/*--------------------------------*- C++ -*----------------------------------*\
| =========                 |                                                 |
| \\      /  F ield         | OpenFOAM: The Open Source CFD Toolbox           |
|  \\    /   O peration     | Version:  2506                                  |
|   \\  /    A nd           | Website:  www.openfoam.com                      |
|    \\/     M anipulation  |                                                 |
\*---------------------------------------------------------------------------*/
FoamFile
{
    version     2.0;
    format      ascii;
    arch        "LSB;label=32;scalar=64";
    class       volScalarField;
    location    "50";
    object      magR;
}
// * * * * * * * * * * * * * * * * * * * * * * * * * * * * * * * * * * * * * //

dimensions      [0 2 -2 0 0 0 0];

internalField   nonuniform List<scalar> 
10720
(
0.0128486
0.0152463
0.0183756
0.0226069
0.0277453
0.034377
0.0429811
0.053829
0.0677501
0.0855895
0.108439
0.138438
0.178639
0.234347
0.312472
0.425061
0.594047
0.85066
1.28259
1.92389
3.3288
5.05992
10.6538
19.6104
14.226
8.46248
5.06152
3.23642
2.98559
2.44765
1.82891
1.97404
1.86865
0.531029
3.31028
4.4759
3.23021
2.35833
7.2686
0.0107445
0.00905029
0.00725906
0.00571837
0.00443803
0.00376463
0.00428223
0.00561595
0.0078212
0.0111199
0.0158705
0.0225607
0.031847
0.0446259
0.0621492
0.0867267
0.122364
0.176118
0.261284
0.40023
0.639078
1.06443
1.89713
3.41082
6.91044
13.9979
31.3035
54.1731
68.0993
73.0396
74.2281
74.2419
73.6026
72.41
70.6963
68.5928
65.4786
61.49
50.5833
0.00304658
0.003047
0.00301876
0.00294533
0.00283199
0.0026927
0.00252289
0.0023283
0.00212825
0.00192477
0.00172764
0.00155092
0.00139833
0.00126761
0.0012949
0.00158962
0.00268489
0.00567354
0.014695
0.0396453
0.141064
0.474637
1.65165
7.69814
17.3728
27.0833
34.4366
34.0621
29.1982
24.0004
19.3241
13.785
8.51663
7.94114
10.2078
12.3657
12.9996
15.0289
16.7158
0.00301208
0.00295737
0.00286988
0.00272769
0.00254999
0.00237555
0.00217831
0.0019491
0.00171865
0.00150108
0.0012959
0.00110613
0.000934242
0.000782006
0.000651098
0.000541985
0.000450338
0.000373936
0.000306571
0.000243927
0.000179914
0.00011221
6.06635e-05
3.15072e-05
0.000810735
0.00543558
0.0360632
0.18401
0.465438
0.794523
1.10483
1.35818
1.55727
1.72683
1.88406
2.05468
2.23253
2.76552
3.87975
0.0021427
0.00210572
0.00204191
0.00195181
0.00185348
0.0017427
0.00162569
0.00151573
0.00141666
0.0013353
0.00127329
0.00122968
0.00120294
0.00118833
0.00119188
0.00122847
0.00118195
0.00107751
0.000729303
0.00405182
0.00203768
0.0057629
0.0017245
0.205827
2.14321
8.61622
22.6687
37.2969
41.1557
37.2089
31.1958
23.1626
16.1857
17.2097
21.1078
21.3627
19.3216
16.7709
17.0273
0.0021677
0.00217408
0.00216066
0.00209604
0.0019934
0.00186921
0.00174175
0.00158369
0.00139608
0.00119524
0.000995973
0.000812801
0.000653667
0.00052129
0.000418986
0.00034357
0.000290573
0.000254516
0.000231176
0.000217001
0.000209349
0.000207482
0.0002104
0.000217854
0.000224567
0.000227877
0.000216965
0.00021316
0.00262807
0.0105634
0.0239541
0.0466618
0.103246
0.20528
0.34432
0.502864
0.661272
0.780775
1.09888
0.00170393
0.00170301
0.0016917
0.00167219
0.00164045
0.00159597
0.0015418
0.00147625
0.00140194
0.00132045
0.0012334
0.00114327
0.00105244
0.000960511
0.000867353
0.000771808
0.000663477
0.000559237
0.000434693
0.000298651
2.72598e-05
0.000772812
0.000250923
0.0136217
1.91285e-05
0.269309
3.07912
14.363
32.6266
42.762
41.042
32.6326
24.8731
25.3283
28.7085
28.1166
24.0199
18.8337
16.1655
0.00169236
0.00167499
0.00164466
0.00159253
0.00152745
0.00145179
0.00135981
0.00124817
0.00112567
0.00100195
0.000883032
0.000773602
0.000675388
0.000588927
0.000515189
0.000452856
0.000401239
0.000358972
0.000325342
0.000298188
0.000276174
0.00025711
0.000238825
0.000217844
0.000195303
0.000176825
0.000163017
0.000155088
0.000133125
0.000123736
7.31022e-06
6.31518e-05
0.000667739
0.000804952
0.00452534
0.0204201
0.0605997
0.156653
0.443581
0.00131384
0.00130774
0.00129469
0.00127247
0.00124146
0.001201
0.00115204
0.00109501
0.0010317
0.000964964
0.000897188
0.000831042
0.00076893
0.000712722
0.0006632
0.000623048
0.00059142
0.000559036
0.000514228
0.00046728
0.000323215
0.000143191
1.47443e-05
0
3.81528e-06
0.0203477
0.0621824
0.728209
8.08291
25.9918
39.4183
38.7853
33.3865
33.4895
35.7427
33.672
27.5884
20.2703
14.9536
0.00131141
0.00130383
0.00128575
0.00124964
0.00120462
0.00115174
0.0010883
0.00101174
0.000926438
0.000836141
0.00074354
0.000652115
0.000564678
0.000483421
0.000410503
0.00034706
0.000293658
0.000250114
0.000215996
0.000190006
0.000170826
0.000156772
0.000146199
0.00013642
0.000125694
0.000115114
0.000107311
0.000102778
0.000101714
9.90269e-05
0.000103996
2.066e-05
0.000356724
4.75578e-05
0.00289123
0.000361141
0.0027993
0.00680205
0.0900461
0.00105542
0.00105615
0.0010529
0.0010449
0.0010317
0.00101286
0.000988313
0.000957566
0.000921225
0.00088018
0.000834933
0.000786466
0.000735698
0.000683199
0.000629566
0.000575921
0.000519669
0.000456607
0.000391151
0.000326513
0.000273113
0.000220058
0.000112353
9.58433e-06
0
0
0
0.0367825
0.136713
4.82054
20.4323
34.0714
38.0843
40.312
41.6878
37.9989
30.1367
21.1578
13.9603
0.00104901
0.00103991
0.00102439
0.000997114
0.000965368
0.000927943
0.000882357
0.000827803
0.000767197
0.00070284
0.000636586
0.000570936
0.000508019
0.000449341
0.000396237
0.000349553
0.000309555
0.000276017
0.00024843
0.00022591
0.000207383
0.000191475
0.000176735
0.000161196
0.000144047
0.000127355
0.000113094
0.00010165
9.23731e-05
8.44125e-05
7.61138e-05
6.53059e-05
4.71899e-05
2.90399e-05
1.6505e-06
2.46102e-05
0.000444655
0.00149652
0.0118479
0.000854503
0.000855713
0.000854484
0.000849576
0.000840903
0.000827806
0.00081
0.000787065
0.000759194
0.000727057
0.000691092
0.000652041
0.000610915
0.000568426
0.000525562
0.000482925
0.000442167
0.000404859
0.000368409
0.000328791
0.000286748
0.000247235
0.00022329
9.99571e-05
8.20267e-06
0
0
0
0.0260353
0.0161168
3.3247
17.176
33.5091
43.2224
45.6939
40.9217
31.6598
21.5504
13.1515
0.000848916
0.000841517
0.000829554
0.000808909
0.000785955
0.000758544
0.000725076
0.000685662
0.000642
0.000595198
0.000546245
0.000496551
0.000447413
0.000399937
0.000355174
0.000314056
0.00027717
0.000244837
0.000217145
0.000193844
0.000174486
0.000158324
0.000144282
0.000130746
0.00011656
0.000102447
8.98434e-05
7.93356e-05
7.08765e-05
6.45102e-05
6.0596e-05
5.92502e-05
5.7921e-05
5.28968e-05
4.68734e-05
8.18556e-06
1.78719e-06
0
0.00258011
0.000702679
0.000705101
0.000706278
0.000704736
0.000700976
0.00069418
0.000684044
0.000670269
0.000652784
0.00063194
0.000607711
0.0005805
0.000550745
0.000518748
0.00048493
0.000449715
0.000413671
0.000375233
0.000334358
0.000293039
0.000254551
0.00021981
0.000204908
0.000189884
0.000106375
7.63003e-06
2.91815e-08
0
0
0.00928981
6.75849e-05
3.10691
19.113
38.3062
45.8872
41.7812
31.9224
21.3497
12.3446
0.000697122
0.000690494
0.000680861
0.000664833
0.000647847
0.000627378
0.000602385
0.000573293
0.000541243
0.000506817
0.00047053
0.000433279
0.000395999
0.000359447
0.000324407
0.000291733
0.000261991
0.000235556
0.000212585
0.000192949
0.000176241
0.000161792
0.000148634
0.000135451
0.000121441
0.000107297
9.41488e-05
8.24861e-05
7.21646e-05
6.29421e-05
5.47984e-05
4.75254e-05
4.10542e-05
3.54634e-05
3.13678e-05
2.33908e-05
1.65563e-05
2.01327e-06
0
0.000583507
0.000586219
0.000588408
0.000588287
0.000586732
0.000583061
0.000576732
0.000567548
0.000555396
0.0005403
0.000522294
0.000501546
0.000478299
0.000452811
0.000425459
0.000396567
0.000366572
0.000336085
0.000305637
0.000274931
0.000244505
0.000215963
0.000192588
0.000186303
0.000178803
0.000116189
5.07124e-07
1.51174e-08
0
0
1.1858e-05
0.106957
5.19708
24.5351
39.395
39.1347
30.3124
20.2488
11.2825
0.000578557
0.000572802
0.00056514
0.000552601
0.000539696
0.000524074
0.00050518
0.000483473
0.000459598
0.000433977
0.000406837
0.000378703
0.000350146
0.00032159
0.00029359
0.00026678
0.000241672
0.000218648
0.000197958
0.000179657
0.00016361
0.000149375
0.00013631
0.000123496
0.00011033
9.72063e-05
8.50521e-05
7.43733e-05
6.51659e-05
5.72837e-05
5.07116e-05
4.55963e-05
4.16742e-05
3.87531e-05
3.64928e-05
3.57894e-05
3.63112e-05
3.70248e-05
1.38403e-06
0.00048923
0.00049203
0.000494718
0.000495791
0.000495641
0.000494066
0.000490699
0.000485124
0.000477279
0.000467165
0.000454604
0.000439694
0.000422622
0.000403449
0.000382356
0.000359499
0.000335272
0.000309823
0.00028276
0.000254952
0.00022782
0.000203687
0.000183544
0.000169746
0.000167404
0.000164333
0.000111329
1.66536e-07
8.67874e-09
0
0
0.0126932
0.276877
9.17121
25.4354
31.0892
25.8257
17.7571
9.68421
0.000484668
0.000479661
0.000473495
0.000463618
0.000453546
0.000441486
0.000427026
0.000410644
0.000392705
0.000373393
0.000352915
0.000331624
0.000309751
0.000287589
0.000265497
0.000243952
0.00022336
0.000204109
0.000186446
0.000170485
0.000156169
0.000143226
0.000131145
0.000119306
0.000107244
9.51975e-05
8.38934e-05
7.37709e-05
6.47684e-05
5.67903e-05
4.96891e-05
4.34967e-05
3.80784e-05
3.35779e-05
2.96891e-05
2.82811e-05
2.61198e-05
4.45624e-05
1.90453e-05
0.000413312
0.00041608
0.000418944
0.000420484
0.000421265
0.000421041
0.000419203
0.000415837
0.00041083
0.00040391
0.000394934
0.000383966
0.000371074
0.000356278
0.000339674
0.000321373
0.000301537
0.00028056
0.000258598
0.000236119
0.00021389
0.000193288
0.000176091
0.000162098
0.000151836
0.000148257
0.000150937
9.85343e-05
1.29026e-07
6.57342e-09
0
0
0.0742247
1.23713
9.79926
17.8971
17.7873
13.4725
7.38568
0.000409208
0.000404853
0.000399872
0.000392053
0.000384023
0.000374577
0.000363449
0.000350923
0.000337322
0.000322714
0.000307144
0.000290904
0.00027414
0.000256955
0.000239533
0.000222213
0.0002053
0.00018911
0.000173883
0.000159755
0.000146737
0.000134696
0.000123312
0.000112165
0.000100945
8.9833e-05
7.93184e-05
6.98136e-05
6.13387e-05
5.38146e-05
4.72078e-05
4.15952e-05
3.69162e-05
3.32552e-05
3.04236e-05
2.97748e-05
2.8906e-05
4.05572e-05
4.83915e-05
0.000351514
0.000354155
0.000357017
0.00035881
0.000360135
0.000360722
0.00036016
0.000358391
0.000355186
0.000350549
0.000344451
0.000336563
0.000327002
0.000315822
0.000303024
0.000288651
0.000272801
0.000255827
0.000237645
0.000218619
0.000199666
0.000181914
0.000166827
0.000154678
0.000143823
0.000133977
0.00013022
0.000132735
7.8359e-05
1.00111e-07
1.55204e-10
0
0.00488879
0.0739675
1.28912
5.31836
7.67551
7.43973
4.33981
0.000347882
0.000344042
0.000339979
0.000333751
0.000327337
0.000319768
0.000311105
0.000301522
0.000291117
0.000279983
0.00026809
0.00025564
0.000242768
0.000229425
0.000215747
0.000201929
0.000188178
0.000174717
0.000161769
0.000149497
0.000137959
0.000127087
0.000116655
0.000106397
9.61325e-05
8.59721e-05
7.62901e-05
6.74058e-05
5.94089e-05
5.22122e-05
4.58031e-05
4.01831e-05
3.5318e-05
3.13493e-05
2.81003e-05
2.69317e-05
2.62939e-05
3.35633e-05
5.57218e-05
0.000300665
0.00030314
0.000305894
0.000307779
0.000309357
0.000310431
0.000310651
0.000309889
0.000308107
0.000305128
0.000300868
0.000295296
0.000288194
0.000279727
0.00026981
0.000258508
0.000245839
0.000232095
0.000217302
0.000201709
0.00018598
0.000170986
0.00015772
0.00014675
0.000137063
0.000127059
0.00011711
0.000112955
0.000114164
6.31165e-05
2.28697e-06
0
0
0.0391454
0.182196
0.456544
1.12827
1.74857
1.29719
0.000297479
0.000294116
0.000290773
0.000285758
0.000280569
0.000274538
0.000267661
0.000260213
0.000252276
0.000243758
0.000234623
0.000225032
0.000215086
0.000204755
0.000194044
0.000183044
0.000171891
0.000160762
0.000149825
0.000139229
0.000129039
0.000119234
0.000109695
0.000100255
9.08292e-05
8.15124e-05
7.25742e-05
6.42947e-05
5.67638e-05
4.99809e-05
4.38925e-05
3.85529e-05
3.3952e-05
3.02392e-05
2.71518e-05
2.59162e-05
2.51943e-05
3.02122e-05
5.166e-05
0.000258465
0.000260716
0.000263313
0.0002652
0.000266912
0.000268254
0.000268954
0.000268923
0.000268013
0.000266286
0.000263454
0.000259505
0.000254412
0.000248056
0.000240446
0.000231658
0.000221659
0.000210664
0.000198734
0.000185939
0.000172829
0.00016015
0.000148645
0.000138753
0.000129992
0.000121121
0.000111624
0.000101512
9.66256e-05
0.000102525
3.43478e-05
4.50887e-08
0
0.000193451
0.0127181
0.122736
0.185531
0.250269
0.14021
0.000255668
0.000252725
0.000249947
0.000245897
0.00024165
0.000236794
0.00023135
0.000225458
0.000219334
0.000212845
0.000205808
0.000198409
0.000190702
0.000182693
0.000174303
0.000165587
0.000156594
0.000147447
0.00013829
0.000129234
0.000120332
0.000111599
0.000102984
9.44063e-05
8.58362e-05
7.7338e-05
6.9143e-05
6.14714e-05
5.44427e-05
4.80374e-05
4.22357e-05
3.7083e-05
3.2589e-05
2.88384e-05
2.56538e-05
2.41014e-05
2.30688e-05
2.71187e-05
4.60943e-05
0.000223146
0.000225181
0.000227595
0.00022942
0.000231169
0.000232665
0.000233625
0.00023405
0.000233798
0.000232832
0.000231091
0.000228439
0.00022488
0.000220132
0.000214322
0.0002075
0.000199707
0.000190955
0.000181404
0.000171048
0.000160251
0.000149612
0.000139723
0.000130912
0.000122933
0.000114962
0.000106671
9.76981e-05
8.5581e-05
8.99944e-05
8.27875e-05
2.51487e-06
0
0
0.00210027
0.0258663
0.0132994
0.0293302
0.032898
0.000220696
0.000218144
0.000215791
0.000212502
0.000209008
0.000205066
0.000200722
0.000196102
0.000191272
0.00018628
0.000180953
0.000175187
0.00016921
0.000162962
0.000156402
0.000149521
0.000142308
0.000134834
0.000127204
0.000119509
0.0001118
0.000104106
9.63978e-05
8.86279e-05
8.08412e-05
7.31089e-05
6.56091e-05
5.8515e-05
5.19569e-05
4.5923e-05
4.04402e-05
3.55227e-05
3.1207e-05
2.75738e-05
2.44496e-05
2.27741e-05
2.15957e-05
2.47146e-05
4.13331e-05
0.000193389
0.000195216
0.00019745
0.000199181
0.00020089
0.00020243
0.00020356
0.000204256
0.000204472
0.000204047
0.000203094
0.000201418
0.000198903
0.000195498
0.000191112
0.000185873
0.000179796
0.000172893
0.000165286
0.000156946
0.000148105
0.000139248
0.000130817
0.000123101
0.000115943
0.000108799
0.000101247
9.38457e-05
8.36058e-05
7.4496e-05
8.74034e-05
3.82905e-05
9.81215e-08
0
0
0
0.00246142
0.00561845
0.00414114
0.000191244
0.000189021
0.000187034
0.000184325
0.000181437
0.000178229
0.000174735
0.00017108
0.000167266
0.000163399
0.000159313
0.000154902
0.000150252
0.000145361
0.000140231
0.000134792
0.000129022
0.000122948
0.000116647
0.000110165
0.000103544
9.68149e-05
8.99658e-05
8.30006e-05
7.59803e-05
6.89845e-05
6.21516e-05
5.563e-05
4.95321e-05
4.38927e-05
3.87215e-05
3.40244e-05
2.98582e-05
2.62962e-05
2.31536e-05
2.12939e-05
1.98903e-05
2.22599e-05
3.70624e-05
0.000168136
0.000169809
0.000171841
0.000173457
0.000175095
0.000176627
0.000177824
0.000178709
0.000179194
0.000179235
0.00017873
0.000177766
0.000176128
0.000173689
0.000170463
0.000166483
0.000161763
0.000156344
0.000150342
0.000143677
0.000136504
0.000129191
0.000122071
0.000115372
0.00010903
0.000102689
9.59076e-05
8.90268e-05
8.20049e-05
7.0078e-05
7.13586e-05
7.62518e-05
1.60149e-07
3.25094e-10
0
0
0
0
0.00413863
0.000166287
0.000164356
0.000162667
0.000160409
0.000157993
0.00015537
0.000152562
0.000149652
0.000146657
0.000143607
0.000140481
0.000137142
0.000133479
0.000129658
0.000125628
0.00012135
0.000116753
0.000111855
0.00010667
0.000101249
9.56091e-05
8.97684e-05
8.37237e-05
7.75175e-05
7.12234e-05
6.49268e-05
5.87202e-05
5.27578e-05
4.71163e-05
4.18634e-05
3.69858e-05
3.25415e-05
2.85426e-05
2.50696e-05
2.19557e-05
1.99216e-05
1.8297e-05
1.99471e-05
3.30493e-05
0.000146614
0.000148128
0.000149969
0.000151479
0.00015302
0.000154507
0.000155711
0.000156695
0.00015737
0.000157694
0.000157584
0.000157042
0.000156042
0.000154417
0.000152161
0.000149146
0.000145524
0.000141304
0.000136622
0.000131358
0.000125585
0.000119584
0.00011361
0.000107859
0.000102287
9.66798e-05
9.07329e-05
8.43282e-05
7.84579e-05
6.99014e-05
6.18252e-05
7.16559e-05
3.61316e-05
1.76847e-06
0
0
0
0
0.00433922
0.000144994
0.000143328
0.000141888
0.000139986
0.000137963
0.00013581
0.000133534
0.00013121
0.00012887
0.000126458
0.000124045
0.00012149
0.000118664
0.000115655
0.000112488
0.000109121
0.000105475
0.000101538
9.72998e-05
9.27815e-05
8.80069e-05
8.29704e-05
7.76857e-05
7.21998e-05
6.6589e-05
6.09402e-05
5.53454e-05
4.99145e-05
4.47367e-05
3.98528e-05
3.52765e-05
3.10719e-05
2.72433e-05
2.38544e-05
2.07566e-05
1.8547e-05
1.67071e-05
1.77366e-05
2.92407e-05
0.000128176
0.000129539
0.000131221
0.0001326
0.000134049
0.000135451
0.00013665
0.000137673
0.000138453
0.000138947
0.000139133
0.000138886
0.000138363
0.000137361
0.000135778
0.000133603
0.00013088
0.000127627
0.00012398
0.000119877
0.000115284
0.000110413
0.000105449
0.000100565
9.57496e-05
9.08199e-05
8.56496e-05
7.99863e-05
7.43863e-05
6.86232e-05
5.99076e-05
5.929e-05
6.36993e-05
2.62311e-05
1.97143e-06
1.1354e-07
0
0
0.00468915
0.000126755
0.000125319
0.000124081
0.000122463
0.00012078
0.00011899
0.000117144
0.00011529
0.000113432
0.000111548
0.000109652
0.000107695
0.000105547
0.000103155
0.00010067
9.80273e-05
9.51479e-05
9.19872e-05
8.85333e-05
8.47909e-05
8.07636e-05
7.64515e-05
7.18627e-05
6.70377e-05
6.20752e-05
5.70421e-05
5.20193e-05
4.70789e-05
4.2333e-05
3.78151e-05
3.35537e-05
2.95645e-05
2.5926e-05
2.26281e-05
1.95597e-05
1.72096e-05
1.51651e-05
1.56574e-05
2.56682e-05
0.000112314
0.000113541
0.000115059
0.000116328
0.000117663
0.000118984
0.000120135
0.000121161
0.000121993
0.000122608
0.000122975
0.000123026
0.000122769
0.000122197
0.000121198
0.000119731
0.00011768
0.000115193
0.000112372
0.000109213
0.000105618
0.000101712
9.76367e-05
9.3536e-05
8.94186e-05
8.51506e-05
8.06643e-05
7.58186e-05
7.06594e-05
6.59356e-05
5.98067e-05
5.42558e-05
6.06822e-05
6.37525e-05
3.06675e-05
2.54623e-06
1.76604e-06
0
0.00518412
0.000111058
0.000109821
0.000108764
0.00010738
0.000105955
0.000104465
0.000102963
0.000101476
9.99977e-05
9.85299e-05
9.7042e-05
9.55266e-05
9.38748e-05
9.20269e-05
9.00811e-05
8.79883e-05
8.57078e-05
8.31826e-05
8.03697e-05
7.72813e-05
7.39153e-05
7.02517e-05
6.62948e-05
6.20886e-05
5.77098e-05
5.32379e-05
4.87376e-05
4.42836e-05
3.99394e-05
3.57644e-05
3.17972e-05
2.80635e-05
2.45836e-05
2.13865e-05
1.83488e-05
1.58845e-05
1.36486e-05
1.36882e-05
2.23465e-05
9.86089e-05
9.97127e-05
0.000101092
0.000102242
0.000103467
0.000104693
0.000105787
0.000106794
0.00010765
0.000108334
0.000108813
0.000109066
0.000109007
0.000108777
0.000108211
0.000107205
0.000105752
0.000103897
0.00010175
9.9334e-05
9.65497e-05
9.34504e-05
9.01527e-05
8.67663e-05
8.32895e-05
7.96666e-05
7.57949e-05
7.16806e-05
6.72242e-05
6.29681e-05
5.87773e-05
5.36585e-05
5.50079e-05
6.8351e-05
6.97107e-05
5.15326e-05
3.63556e-05
5.31084e-08
0.00560693
9.74961e-05
9.64201e-05
9.5515e-05
9.434e-05
9.31204e-05
9.18859e-05
9.06485e-05
8.94464e-05
8.82793e-05
8.71291e-05
8.59558e-05
8.47865e-05
8.35148e-05
8.2113e-05
8.05688e-05
7.89086e-05
7.70994e-05
7.50836e-05
7.28168e-05
7.02902e-05
6.74787e-05
6.43866e-05
6.10039e-05
5.73593e-05
5.35155e-05
4.95564e-05
4.55391e-05
4.15284e-05
3.75875e-05
3.37512e-05
3.00626e-05
2.65575e-05
2.32543e-05
2.01531e-05
1.71667e-05
1.45929e-05
1.21867e-05
1.18293e-05
1.92982e-05
8.67212e-05
8.77242e-05
8.89722e-05
9.00045e-05
9.11284e-05
9.22598e-05
9.33005e-05
9.42642e-05
9.51151e-05
9.58306e-05
9.63853e-05
9.67492e-05
9.68984e-05
9.68278e-05
9.65728e-05
9.60075e-05
9.50544e-05
9.36761e-05
9.20533e-05
9.02383e-05
8.81128e-05
8.56823e-05
8.30466e-05
8.02785e-05
7.73961e-05
7.43504e-05
7.10749e-05
6.7588e-05
6.38686e-05
6.01657e-05
5.69308e-05
5.35401e-05
5.33996e-05
6.33927e-05
7.35008e-05
8.57654e-05
0.000113564
1.84633e-07
0.00545295
8.57407e-05
8.48046e-05
8.40234e-05
8.30154e-05
8.19751e-05
8.09519e-05
7.99309e-05
7.89573e-05
7.80264e-05
7.71238e-05
7.6215e-05
7.52802e-05
7.43116e-05
7.32742e-05
7.20328e-05
7.071e-05
6.92806e-05
6.76787e-05
6.58539e-05
6.37864e-05
6.14676e-05
5.88781e-05
5.59946e-05
5.28452e-05
4.94999e-05
4.60138e-05
4.24476e-05
3.88523e-05
3.52816e-05
3.17803e-05
2.83757e-05
2.50848e-05
2.19518e-05
1.89639e-05
1.60231e-05
1.33676e-05
1.07889e-05
1.00663e-05
1.65042e-05
7.63813e-05
7.72972e-05
7.84162e-05
7.93474e-05
8.03781e-05
8.14253e-05
8.23911e-05
8.33031e-05
8.41363e-05
8.48512e-05
8.54467e-05
8.58952e-05
8.61832e-05
8.62419e-05
8.62184e-05
8.59585e-05
8.53401e-05
8.43897e-05
8.32045e-05
8.18589e-05
8.02478e-05
7.83618e-05
7.62821e-05
7.40559e-05
7.17115e-05
6.91919e-05
6.64768e-05
6.35699e-05
6.05044e-05
5.74576e-05
5.48613e-05
5.26939e-05
5.33307e-05
6.01233e-05
6.66382e-05
8.63181e-05
0.000148072
2.55253e-07
0.00455558
7.55226e-05
7.46985e-05
7.40393e-05
7.31619e-05
7.22742e-05
7.14106e-05
7.05734e-05
6.97829e-05
6.90369e-05
6.83263e-05
6.76245e-05
6.68746e-05
6.6152e-05
6.53304e-05
6.43827e-05
6.33338e-05
6.21921e-05
6.09045e-05
5.9452e-05
5.77815e-05
5.58744e-05
5.3714e-05
5.12708e-05
4.85611e-05
4.56586e-05
4.26118e-05
3.94568e-05
3.62528e-05
3.30316e-05
2.98452e-05
2.67059e-05
2.36462e-05
2.06713e-05
1.78056e-05
1.4928e-05
1.22098e-05
9.45852e-06
8.39985e-06
1.39629e-05
6.73732e-05
6.82036e-05
6.92021e-05
7.00531e-05
7.0988e-05
7.19446e-05
7.2833e-05
7.36965e-05
7.44927e-05
7.51983e-05
7.58159e-05
7.63044e-05
7.66653e-05
7.68696e-05
7.69532e-05
7.6871e-05
7.65556e-05
7.59799e-05
7.51266e-05
7.41292e-05
7.29234e-05
7.14878e-05
6.98756e-05
6.81204e-05
6.62492e-05
6.42144e-05
6.19994e-05
5.96313e-05
5.71444e-05
5.474e-05
5.27534e-05
5.1304e-05
5.28537e-05
5.83124e-05
6.13028e-05
8.62655e-05
0.000135843
2.39536e-07
0.00307837
6.66023e-05
6.58928e-05
6.53191e-05
6.45647e-05
6.38031e-05
6.30736e-05
6.23768e-05
6.17347e-05
6.11332e-05
6.05754e-05
6.0026e-05
5.94552e-05
5.88753e-05
5.8245e-05
5.75419e-05
5.66738e-05
5.57494e-05
5.47467e-05
5.3599e-05
5.22505e-05
5.06871e-05
4.88873e-05
4.68256e-05
4.45157e-05
4.20071e-05
3.93485e-05
3.65744e-05
3.37276e-05
3.08344e-05
2.79375e-05
2.50552e-05
2.22125e-05
1.9411e-05
1.66679e-05
1.3873e-05
1.11064e-05
8.20671e-06
6.81867e-06
1.16783e-05
5.95005e-05
6.02528e-05
6.11557e-05
6.19167e-05
6.27578e-05
6.36347e-05
6.44532e-05
6.5264e-05
6.60227e-05
6.67001e-05
6.73073e-05
6.78232e-05
6.82327e-05
6.85235e-05
6.86882e-05
6.87597e-05
6.86596e-05
6.83575e-05
6.77893e-05
6.7106e-05
6.62528e-05
6.51976e-05
6.3972e-05
6.2609e-05
6.11254e-05
5.94933e-05
5.77129e-05
5.58098e-05
5.38351e-05
5.19908e-05
5.05681e-05
4.96402e-05
5.16687e-05
5.65419e-05
5.78518e-05
8.69805e-05
0.000112387
2.05707e-07
0.00108403
5.88092e-05
5.81928e-05
5.76949e-05
5.70424e-05
5.63863e-05
5.57658e-05
5.51896e-05
5.46627e-05
5.41819e-05
5.37414e-05
5.33086e-05
5.28707e-05
5.24075e-05
5.19321e-05
5.13658e-05
5.06832e-05
4.99634e-05
4.91681e-05
4.82553e-05
4.71638e-05
4.58839e-05
4.43957e-05
4.2666e-05
4.07037e-05
3.85549e-05
3.62476e-05
3.38151e-05
3.12878e-05
2.87014e-05
2.60753e-05
2.34452e-05
2.08109e-05
1.81907e-05
1.55706e-05
1.28648e-05
1.00779e-05
7.05643e-06
5.33642e-06
9.67181e-06
5.2604e-05
5.32934e-05
5.40945e-05
5.47742e-05
5.55411e-05
5.63378e-05
5.70955e-05
5.7839e-05
5.8548e-05
5.9203e-05
5.97985e-05
6.03117e-05
6.07447e-05
6.10973e-05
6.13116e-05
6.15078e-05
6.15822e-05
6.1449e-05
6.1111e-05
6.06738e-05
6.00975e-05
5.93361e-05
5.8427e-05
5.74043e-05
5.62507e-05
5.49778e-05
5.358e-05
5.20882e-05
5.05791e-05
4.92229e-05
4.8278e-05
4.77876e-05
5.00045e-05
5.43748e-05
5.49012e-05
8.45954e-05
0.000101612
2.01116e-07
0
5.19856e-05
5.1451e-05
5.10153e-05
5.04511e-05
4.98877e-05
4.93584e-05
4.88744e-05
4.84352e-05
4.80507e-05
4.76921e-05
4.73609e-05
4.70213e-05
4.665e-05
4.6284e-05
4.58452e-05
4.53385e-05
4.4747e-05
4.41049e-05
4.33673e-05
4.24956e-05
4.14674e-05
4.02379e-05
3.87987e-05
3.71436e-05
3.52989e-05
3.33027e-05
3.1178e-05
2.89511e-05
2.66461e-05
2.42848e-05
2.18906e-05
1.94689e-05
1.7029e-05
1.45454e-05
1.19407e-05
9.16796e-06
6.0444e-06
3.94469e-06
7.94281e-06
4.65551e-05
4.71758e-05
4.78936e-05
4.85009e-05
4.91935e-05
4.99187e-05
5.0609e-05
5.12967e-05
5.19638e-05
5.25794e-05
5.31467e-05
5.36522e-05
5.40943e-05
5.44706e-05
5.47568e-05
5.4988e-05
5.51451e-05
5.5172e-05
5.50375e-05
5.47633e-05
5.43864e-05
5.38455e-05
5.31964e-05
5.24333e-05
5.1582e-05
5.06271e-05
4.95703e-05
4.84599e-05
4.7347e-05
4.64276e-05
4.58676e-05
4.57585e-05
4.80414e-05
5.19636e-05
5.20397e-05
8.1019e-05
9.66925e-05
2.13166e-07
0
4.59934e-05
4.5531e-05
4.51546e-05
4.46599e-05
4.4166e-05
4.37209e-05
4.33067e-05
4.29501e-05
4.26354e-05
4.23491e-05
4.20882e-05
4.18262e-05
4.1534e-05
4.12392e-05
4.09084e-05
4.05386e-05
4.00346e-05
3.94986e-05
3.89135e-05
3.82456e-05
3.742e-05
3.64186e-05
3.52205e-05
3.38197e-05
3.22465e-05
3.05238e-05
2.86727e-05
2.67191e-05
2.46788e-05
2.2568e-05
2.03977e-05
1.8182e-05
1.59171e-05
1.35911e-05
1.10955e-05
8.37621e-06
5.19862e-06
2.6477e-06
6.48619e-06
4.12372e-05
4.17994e-05
4.24317e-05
4.29722e-05
4.36006e-05
4.42596e-05
4.4894e-05
4.55303e-05
4.61439e-05
4.67158e-05
4.72527e-05
4.77453e-05
4.8179e-05
4.85667e-05
4.88903e-05
4.91426e-05
4.93687e-05
4.95061e-05
4.95165e-05
4.93947e-05
4.91851e-05
4.88494e-05
4.8403e-05
4.78528e-05
4.72324e-05
4.65256e-05
4.57522e-05
4.4954e-05
4.41774e-05
4.36116e-05
4.33725e-05
4.35673e-05
4.58818e-05
4.94769e-05
4.92539e-05
7.72242e-05
9.1676e-05
2.28184e-07
0
4.07352e-05
4.03204e-05
3.99988e-05
3.95619e-05
3.91302e-05
3.87488e-05
3.83999e-05
3.81017e-05
3.78427e-05
3.76229e-05
3.74125e-05
3.71995e-05
3.69792e-05
3.67433e-05
3.65001e-05
3.61907e-05
3.578e-05
3.53509e-05
3.49092e-05
3.43803e-05
3.37181e-05
3.29076e-05
3.19016e-05
3.07172e-05
2.93795e-05
2.79035e-05
2.63041e-05
2.45918e-05
2.27921e-05
2.09091e-05
1.89554e-05
1.6937e-05
1.48439e-05
1.26664e-05
1.03109e-05
7.68427e-06
4.5343e-06
1.46191e-06
5.35153e-06
3.65521e-05
3.70585e-05
3.76124e-05
3.81009e-05
3.86677e-05
3.92745e-05
3.98475e-05
4.04253e-05
4.09944e-05
4.15239e-05
4.20264e-05
4.24936e-05
4.29166e-05
4.33026e-05
4.36512e-05
4.39147e-05
4.41916e-05
4.4423e-05
4.45159e-05
4.45191e-05
4.444e-05
4.42476e-05
4.39495e-05
4.35767e-05
4.3141e-05
4.26498e-05
4.21103e-05
4.15697e-05
4.10798e-05
4.07923e-05
4.08187e-05
4.12458e-05
4.35707e-05
4.69405e-05
4.65309e-05
7.33115e-05
8.65891e-05
2.45216e-07
0
3.6104e-05
3.57434e-05
3.54537e-05
3.50685e-05
3.46973e-05
3.436e-05
3.40654e-05
3.3812e-05
3.3604e-05
3.34232e-05
3.32582e-05
3.30925e-05
3.2925e-05
3.27246e-05
3.25372e-05
3.22776e-05
3.19788e-05
3.1645e-05
3.12842e-05
3.08597e-05
3.03388e-05
2.96711e-05
2.88345e-05
2.78419e-05
2.67044e-05
2.54424e-05
2.40644e-05
2.25772e-05
2.09902e-05
1.93206e-05
1.75643e-05
1.57356e-05
1.38142e-05
1.17865e-05
9.59012e-06
7.09329e-06
4.07001e-06
3.94479e-07
4.58621e-06
3.24244e-05
3.28716e-05
3.33636e-05
3.38028e-05
3.43204e-05
3.48625e-05
3.53825e-05
3.59142e-05
3.64314e-05
3.69174e-05
3.73859e-05
3.78289e-05
3.82377e-05
3.8611e-05
3.89529e-05
3.92472e-05
3.95266e-05
3.97808e-05
3.99577e-05
4.00605e-05
4.00663e-05
3.99567e-05
3.97574e-05
3.95074e-05
3.92361e-05
3.89357e-05
3.86017e-05
3.82899e-05
3.80298e-05
3.79702e-05
3.82143e-05
3.88187e-05
4.11033e-05
4.43273e-05
4.38616e-05
6.92036e-05
8.17186e-05
2.6334e-07
0
3.2017e-05
3.17036e-05
3.14463e-05
3.11088e-05
3.07767e-05
3.0487e-05
3.02333e-05
3.00214e-05
2.98484e-05
2.96976e-05
2.95743e-05
2.94406e-05
2.93032e-05
2.91473e-05
2.89849e-05
2.87853e-05
2.85797e-05
2.82929e-05
2.79917e-05
2.76614e-05
2.72535e-05
2.67137e-05
2.60201e-05
2.5183e-05
2.42262e-05
2.3154e-05
2.19668e-05
2.06771e-05
1.92871e-05
1.78096e-05
1.62429e-05
1.45893e-05
1.2836e-05
1.09709e-05
8.93536e-06
6.61083e-06
3.82282e-06
5.8067e-07
4.19613e-06
2.87775e-05
2.91718e-05
2.96072e-05
3.00047e-05
3.04738e-05
3.09623e-05
3.1434e-05
3.19136e-05
3.23848e-05
3.28326e-05
3.32699e-05
3.36762e-05
3.40607e-05
3.4425e-05
3.47598e-05
3.50636e-05
3.5329e-05
3.55973e-05
3.58254e-05
3.59968e-05
3.60748e-05
3.60387e-05
3.5924e-05
3.57703e-05
3.56145e-05
3.54525e-05
3.52888e-05
3.51428e-05
3.50631e-05
3.51749e-05
3.55903e-05
3.63065e-05
3.85133e-05
4.16082e-05
4.12098e-05
6.47279e-05
7.66125e-05
2.80223e-07
0
2.84129e-05
2.81334e-05
2.79082e-05
2.76059e-05
2.73153e-05
2.70622e-05
2.6846e-05
2.66645e-05
2.65175e-05
2.64e-05
2.62928e-05
2.61869e-05
2.60751e-05
2.59629e-05
2.58146e-05
2.56717e-05
2.54749e-05
2.52676e-05
2.50353e-05
2.47765e-05
2.44533e-05
2.40183e-05
2.34457e-05
2.27479e-05
2.19411e-05
2.10323e-05
2.00189e-05
1.89021e-05
1.76897e-05
1.63884e-05
1.4999e-05
1.35168e-05
1.1936e-05
1.02353e-05
8.37721e-06
6.25689e-06
3.7742e-06
1.43922e-06
4.11299e-06
2.55513e-05
2.59056e-05
2.62922e-05
2.66502e-05
2.70674e-05
2.75078e-05
2.7932e-05
2.83677e-05
2.87966e-05
2.92055e-05
2.96031e-05
2.99814e-05
3.03426e-05
3.06842e-05
3.10034e-05
3.13123e-05
3.1569e-05
3.18453e-05
3.21122e-05
3.23129e-05
3.24547e-05
3.24846e-05
3.2427e-05
3.23414e-05
3.22694e-05
3.22136e-05
3.21651e-05
3.2142e-05
3.2196e-05
3.24301e-05
3.29604e-05
3.37487e-05
3.58115e-05
3.88537e-05
3.84763e-05
5.96914e-05
7.10004e-05
2.93543e-07
0
2.52277e-05
2.49757e-05
2.47777e-05
2.45079e-05
2.42538e-05
2.40338e-05
2.38409e-05
2.3687e-05
2.35626e-05
2.34643e-05
2.3375e-05
2.3294e-05
2.32027e-05
2.31069e-05
2.29956e-05
2.28639e-05
2.27111e-05
2.25763e-05
2.23706e-05
2.21523e-05
2.18996e-05
2.15634e-05
2.11054e-05
2.05275e-05
1.98454e-05
1.90743e-05
1.8207e-05
1.7245e-05
1.61946e-05
1.50578e-05
1.3836e-05
1.25157e-05
1.10965e-05
9.56787e-06
7.89507e-06
6.00005e-06
3.87348e-06
2.20016e-06
4.23872e-06
2.26971e-05
2.30143e-05
2.33573e-05
2.36712e-05
2.40484e-05
2.44468e-05
2.48279e-05
2.52235e-05
2.56099e-05
2.59818e-05
2.63477e-05
2.66911e-05
2.70207e-05
2.73449e-05
2.76484e-05
2.7938e-05
2.82062e-05
2.84673e-05
2.87264e-05
2.89526e-05
2.91359e-05
2.92058e-05
2.91785e-05
2.91321e-05
2.91166e-05
2.91403e-05
2.9178e-05
2.92584e-05
2.94109e-05
2.97266e-05
3.03331e-05
3.11795e-05
3.30121e-05
3.61355e-05
3.55346e-05
5.42536e-05
6.51807e-05
3.03334e-07
0
2.24064e-05
2.21847e-05
2.20029e-05
2.17674e-05
2.15417e-05
2.13468e-05
2.11778e-05
2.10434e-05
2.09362e-05
2.08557e-05
2.07875e-05
2.07179e-05
2.06445e-05
2.05669e-05
2.04775e-05
2.03629e-05
2.02571e-05
2.01287e-05
1.99527e-05
1.97849e-05
1.96065e-05
1.93485e-05
1.89751e-05
1.84956e-05
1.7921e-05
1.72638e-05
1.65274e-05
1.57061e-05
1.48033e-05
1.38114e-05
1.27401e-05
1.15797e-05
1.03127e-05
8.95511e-06
7.47085e-06