/*--------------------------------*- C++ -*----------------------------------*\
| =========                 |                                                 |
| \\      /  F ield         | OpenFOAM: The Open Source CFD Toolbox           |
|  \\    /   O peration     | Version:  2506                                  |
|   \\  /    A nd           | Website:  www.openfoam.com                      |
|    \\/     M anipulation  |                                                 |
\*---------------------------------------------------------------------------*/
FoamFile
{
    version     2.0;
    format      ascii;
    arch        "LSB;label=32;scalar=64";
    class       volScalarField;
    location    "50";
    object      nut;
}
// * * * * * * * * * * * * * * * * * * * * * * * * * * * * * * * * * * * * * //

dimensions      [0 2 -1 0 0 0 0];

internalField   nonuniform List<scalar> 
10720
(
1.61976e-05
1.86889e-05
2.20283e-05
2.63938e-05
3.21771e-05
3.98614e-05
5.01593e-05
6.35444e-05
8.08874e-05
0.000102931
0.000130709
0.000166385
0.000213151
0.000277358
0.000367361
0.000498078
0.000697861
0.00100993
0.00155615
0.00242694
0.00449407
0.0076868
0.0198379
0.0495145
0.0524191
0.0458279
0.0432582
0.0376996
0.0424996
0.0439645
0.042837
0.0391983
0.0337831
0.0330963
0.0392175
0.0435156
0.0404946
0.0376117
0.0642766
1.40873e-05
1.22755e-05
1.05582e-05
8.99186e-06
7.62164e-06
6.72561e-06
8.09312e-06
1.04799e-05
1.42037e-05
2.00017e-05
2.90141e-05
4.27069e-05
6.25031e-05
8.97644e-05
0.000125807
0.000173784
0.000240194
0.000337016
0.000486766
0.000726103
0.00113035
0.00183744
0.00320033
0.00563656
0.0112321
0.0224846
0.0498848
0.0859176
0.107754
0.115564
0.117722
0.118318
0.118185
0.117462
0.116235
0.114658
0.112245
0.109248
0.0988885
5.49923e-06
5.39871e-06
5.30087e-06
5.20686e-06
5.09746e-06
4.98599e-06
4.88142e-06
4.77318e-06
4.67779e-06
4.59523e-06
4.52532e-06
4.48589e-06
4.5098e-06
4.52524e-06
5.68813e-06
9.93056e-06
2.73048e-05
7.77256e-05
0.000188295
0.000376536
0.000924964
0.00214648
0.00546717
0.0214255
0.0476661
0.085479
0.134142
0.176913
0.203984
0.215234
0.213841
0.197364
0.169217
0.165992
0.188659
0.203268
0.200399
0.192667
0.178248
5.58139e-06
5.68642e-06
5.77834e-06
5.88792e-06
5.98757e-06
6.08083e-06
6.00086e-06
5.85986e-06
5.6834e-06
5.48523e-06
5.27335e-06
5.0493e-06
4.81247e-06
4.56215e-06
4.28181e-06
3.9706e-06
3.59531e-06
3.15318e-06
2.59879e-06
1.9378e-06
1.18929e-06
4.98514e-07
1.50246e-07
3.98436e-08
2.07991e-05
0.000249759
0.00158214
0.00794328
0.0207855
0.0370867
0.0523048
0.0628786
0.0687263
0.0718126
0.0737371
0.0754779
0.0769805
0.0810727
0.0833593
6.22076e-06
6.2366e-06
6.25113e-06
6.2671e-06
6.28673e-06
6.30816e-06
6.33189e-06
6.35898e-06
6.38993e-06
6.42518e-06
6.4664e-06
6.51465e-06
6.57125e-06
6.64289e-06
6.70869e-06
6.914e-06
6.1771e-06
4.98108e-06
2.29747e-06
5.22167e-05
2.13004e-05
0.000186102
8.49625e-05
0.00221505
0.0122777
0.0368288
0.0904409
0.168665
0.238644
0.287141
0.314278
0.317293
0.314336
0.344404
0.387966
0.39024
0.35205
0.293805
0.234086
6.20395e-06
6.18645e-06
6.17391e-06
6.15971e-06
6.15418e-06
6.14661e-06
6.15525e-06
6.17007e-06
6.18817e-06
6.2078e-06
6.22951e-06
6.25527e-06
6.28457e-06
6.31645e-06
6.35221e-06
6.39171e-06
6.4365e-06
6.48759e-06
6.54813e-06
6.62076e-06
6.7111e-06
6.83004e-06
6.971e-06
7.16132e-06
7.22402e-06
6.96388e-06
5.88638e-06
5.8809e-06
0.000279069
0.00146954
0.00468458
0.0104073
0.0181926
0.0271232
0.0361883
0.0446751
0.0518299
0.0588608
0.0659242
6.1126e-06
6.11116e-06
6.11046e-06
6.10916e-06
6.10738e-06
6.10644e-06
6.10692e-06
6.10862e-06
6.11276e-06
6.11947e-06
6.12938e-06
6.14337e-06
6.16238e-06
6.18785e-06
6.21963e-06
6.26986e-06
6.29313e-06
6.34411e-06
5.36504e-06
3.00101e-06
2.02202e-08
8.29335e-06
6.23194e-07
0.000453646
9.48553e-08
0.00402263
0.0233027
0.0811974
0.179859
0.278421
0.347725
0.381873
0.411805
0.476651
0.538864
0.535557
0.471212
0.376803
0.270993
6.11002e-06
6.10805e-06
6.10961e-06
6.10954e-06
6.11619e-06
6.12061e-06
6.11995e-06
6.11728e-06
6.11372e-06
6.11056e-06
6.10767e-06
6.1051e-06
6.10316e-06
6.10228e-06
6.10228e-06
6.10316e-06
6.10486e-06
6.10728e-06
6.11025e-06
6.1137e-06
6.1174e-06
6.12115e-06
6.12509e-06
6.12975e-06
6.1363e-06
6.15633e-06
6.13662e-06
6.36932e-06
5.6529e-06
6.58583e-06
4.11175e-08
6.30855e-06
0.00040826
0.00159522
0.00415207
0.00862572
0.0153657
0.0250614
0.0410192
6.12517e-06
6.12581e-06
6.12592e-06
6.12588e-06
6.12642e-06
6.12669e-06
6.12709e-06
6.12809e-06
6.12991e-06
6.13294e-06
6.13742e-06
6.14361e-06
6.15184e-06
6.16256e-06
6.17637e-06
6.19523e-06
6.21763e-06
6.23843e-06
6.23788e-06
6.53014e-06
4.28426e-06
1.01559e-06
6.94602e-09
0
1.75668e-10
0.000846976
0.0054308
0.0112676
0.0690973
0.185248
0.306311
0.388922
0.462371
0.565409
0.649601
0.64632
0.56445
0.44488
0.299282
6.12288e-06
6.11807e-06
6.11638e-06
6.11287e-06
6.11629e-06
6.11814e-06
6.11862e-06
6.1188e-06
6.1189e-06
6.11935e-06
6.11996e-06
6.1205e-06
6.1214e-06
6.12324e-06
6.12603e-06
6.12964e-06
6.13411e-06
6.13944e-06
6.14561e-06
6.15259e-06
6.1604e-06
6.16908e-06
6.17889e-06
6.19022e-06
6.20428e-06
6.21952e-06
6.24558e-06
6.24298e-06
6.37253e-06
6.25515e-06
7.44426e-06
3.66158e-07
7.81968e-05
2.97667e-06
0.000976652
0.000131365
0.00131316
0.00243878
0.0144094
6.11913e-06
6.11922e-06
6.11883e-06
6.11818e-06
6.11758e-06
6.11695e-06
6.11646e-06
6.11639e-06
6.11713e-06
6.11877e-06
6.12142e-06
6.12523e-06
6.13022e-06
6.13665e-06
6.14489e-06
6.15546e-06
6.17025e-06
6.18409e-06
6.21624e-06
6.24676e-06
6.60766e-06
6.53902e-06
2.00284e-06
8.12914e-09
0
0
0
0.00263136
0.00533365
0.0642139
0.192623
0.328589
0.459318
0.608011
0.719924
0.724017
0.63373
0.499463
0.324343
6.11803e-06
6.11358e-06
6.11141e-06
6.10785e-06
6.11087e-06
6.11301e-06
6.11368e-06
6.11379e-06
6.11374e-06
6.1139e-06
6.11424e-06
6.11466e-06
6.11517e-06
6.11594e-06
6.11683e-06
6.11795e-06
6.11943e-06
6.12132e-06
6.12359e-06
6.1262e-06
6.12913e-06
6.1323e-06
6.1358e-06
6.13985e-06
6.14438e-06
6.14927e-06
6.15444e-06
6.16062e-06
6.16695e-06
6.17259e-06
6.20481e-06
6.09477e-06
4.77946e-06
3.05321e-06
1.79922e-08
4.98563e-06
0.000307683
0.000624478
0.00260265
6.11665e-06
6.11707e-06
6.11641e-06
6.11609e-06
6.11571e-06
6.11478e-06
6.11381e-06
6.11324e-06
6.11327e-06
6.11399e-06
6.11532e-06
6.11713e-06
6.11937e-06
6.12198e-06
6.12502e-06
6.12858e-06
6.13309e-06
6.13756e-06
6.14385e-06
6.13456e-06
6.19024e-06
6.46791e-06
7.57358e-06
2.02661e-06
1.14127e-08
0
0
0
0.00123339
0.00207384
0.0659093
0.207751
0.394279
0.597773
0.745876
0.766677
0.67809
0.539679
0.346283
6.11571e-06
6.11132e-06
6.10858e-06
6.10492e-06
6.10744e-06
6.10947e-06
6.11041e-06
6.11088e-06
6.11116e-06
6.11161e-06
6.11219e-06
6.11281e-06
6.11348e-06
6.11428e-06
6.11507e-06
6.11602e-06
6.11731e-06
6.11914e-06
6.12152e-06
6.1244e-06
6.12782e-06
6.13177e-06
6.13631e-06
6.14157e-06
6.14777e-06
6.15515e-06
6.16392e-06
6.17434e-06
6.18638e-06
6.20251e-06
6.21111e-06
6.31875e-06
6.23936e-06
5.41565e-06
4.55917e-06
1.5418e-07
7.97192e-09
0
0.000622163
6.11368e-06
6.11415e-06
6.11349e-06
6.11296e-06
6.11233e-06
6.11126e-06
6.1104e-06
6.11012e-06
6.11072e-06
6.11204e-06
6.11397e-06
6.1165e-06
6.11952e-06
6.12305e-06
6.12716e-06
6.13193e-06
6.13765e-06
6.14435e-06
6.15182e-06
6.1524e-06
6.17284e-06
6.09446e-06
6.72173e-06
7.28286e-06
3.03356e-06
1.69792e-08
1.65762e-13
0
0
0.000452592
2.90323e-06
0.0765909
0.27278
0.527328
0.720762
0.769502
0.694094
0.562547
0.362098
6.1125e-06
6.10832e-06
6.10527e-06
6.10173e-06
6.10396e-06
6.10598e-06
6.10714e-06
6.10787e-06
6.10838e-06
6.10902e-06
6.10976e-06
6.11054e-06
6.11135e-06
6.11226e-06
6.11316e-06
6.11409e-06
6.11504e-06
6.11608e-06
6.11732e-06
6.11884e-06
6.12088e-06
6.12333e-06
6.1262e-06
6.12946e-06
6.13313e-06
6.1373e-06
6.14206e-06
6.14744e-06
6.15347e-06
6.16019e-06
6.1677e-06
6.17637e-06
6.19475e-06
6.19092e-06
6.4246e-06
4.25904e-06
2.44191e-06
1.85876e-08
0
6.11055e-06
6.11131e-06
6.11068e-06
6.11001e-06
6.10942e-06
6.10846e-06
6.10771e-06
6.1075e-06
6.10801e-06
6.10906e-06
6.11055e-06
6.11246e-06
6.11469e-06
6.11723e-06
6.12009e-06
6.12324e-06
6.12671e-06
6.13034e-06
6.13567e-06
6.14019e-06
6.1534e-06
6.15126e-06
6.08416e-06
6.7316e-06
7.55039e-06
4.3379e-06
1.06617e-10
8.79331e-14
0
0
7.43751e-09
0.0211505
0.130445
0.398163
0.637026
0.725116
0.675959
0.563244
0.367285
6.10927e-06
6.10534e-06
6.10213e-06
6.09877e-06
6.10075e-06
6.10275e-06
6.1041e-06
6.10505e-06
6.10581e-06
6.10662e-06
6.10747e-06
6.10839e-06
6.10935e-06
6.11039e-06
6.11139e-06
6.1124e-06
6.11338e-06
6.11437e-06
6.11536e-06
6.1165e-06
6.11796e-06
6.11988e-06
6.12229e-06
6.12522e-06
6.12874e-06
6.13296e-06
6.13801e-06
6.14402e-06
6.15112e-06
6.15951e-06
6.16938e-06
6.18071e-06
6.19478e-06
6.21343e-06
6.27496e-06
6.30957e-06
6.74833e-06
4.77552e-06
2.83644e-09
6.10734e-06
6.10843e-06
6.10768e-06
6.10696e-06
6.1065e-06
6.10553e-06
6.10516e-06
6.10514e-06
6.10564e-06
6.10661e-06
6.10797e-06
6.10972e-06
6.11183e-06
6.11429e-06
6.11715e-06
6.12045e-06
6.12429e-06
6.12877e-06
6.13391e-06
6.13982e-06
6.14355e-06
6.16627e-06
6.12455e-06
6.10031e-06
6.76322e-06
7.81957e-06
4.84662e-06
1.50726e-11
4.59948e-14
0
0
0.000972073
0.0296424
0.237253
0.493582
0.625317
0.616007
0.535238
0.356291
6.10605e-06
6.10247e-06
6.09921e-06
6.096e-06
6.09768e-06
6.09972e-06
6.10115e-06
6.10227e-06
6.10321e-06
6.10419e-06
6.10515e-06
6.10619e-06
6.10729e-06
6.10848e-06
6.10962e-06
6.11079e-06
6.1119e-06
6.11298e-06
6.11399e-06
6.11497e-06
6.11592e-06
6.11699e-06
6.11838e-06
6.1203e-06
6.12276e-06
6.12581e-06
6.12952e-06
6.13395e-06
6.13917e-06
6.14526e-06
6.15224e-06
6.16051e-06
6.17023e-06
6.18419e-06
6.18568e-06
6.29775e-06
5.87898e-06
9.27436e-06
6.17581e-07
6.10428e-06
6.1053e-06
6.10463e-06
6.10407e-06
6.10345e-06
6.10271e-06
6.10272e-06
6.10263e-06
6.10319e-06
6.10406e-06
6.10522e-06
6.10674e-06
6.10857e-06
6.11072e-06
6.11322e-06
6.11609e-06
6.11942e-06
6.12322e-06
6.12773e-06
6.13351e-06
6.13883e-06
6.1489e-06
6.16625e-06
6.11058e-06
6.12878e-06
6.7214e-06
8.32968e-06
4.82428e-06
1.18692e-11
3.69222e-14
0
0
0.00969543
0.097994
0.30929
0.468166
0.506733
0.471721
0.322922
6.10305e-06
6.09985e-06
6.09668e-06
6.09356e-06
6.09493e-06
6.09688e-06
6.09842e-06
6.0996e-06
6.10066e-06
6.10178e-06
6.1029e-06
6.10405e-06
6.10524e-06
6.10651e-06
6.10778e-06
6.10908e-06
6.11034e-06
6.11154e-06
6.11264e-06
6.11363e-06
6.1145e-06
6.11528e-06
6.11609e-06
6.1173e-06
6.11911e-06
6.12156e-06
6.1247e-06
6.1286e-06
6.13332e-06
6.13894e-06
6.14556e-06
6.15341e-06
6.16258e-06
6.1738e-06
6.18267e-06
6.23398e-06
5.98843e-06
7.46768e-06
4.15548e-06
6.10154e-06
6.10244e-06
6.10185e-06
6.10136e-06
6.1008e-06
6.10026e-06
6.10007e-06
6.10006e-06
6.10071e-06
6.10152e-06
6.10252e-06
6.10385e-06
6.10552e-06
6.10753e-06
6.10992e-06
6.11267e-06
6.11587e-06
6.11956e-06
6.12391e-06
6.12907e-06
6.13516e-06
6.14098e-06
6.15563e-06
6.16148e-06
6.11747e-06
6.12388e-06
6.75402e-06
8.53112e-06
4.10169e-06
9.61209e-12
3.0664e-17
0
0.000558751
0.0169203
0.13525
0.270821
0.342705
0.360115
0.252593
6.10045e-06
6.09767e-06
6.09466e-06
6.09155e-06
6.0926e-06
6.09429e-06
6.09586e-06
6.09714e-06
6.09822e-06
6.09943e-06
6.10068e-06
6.10193e-06
6.10318e-06
6.10451e-06
6.10583e-06
6.1072e-06
6.10855e-06
6.10985e-06
6.11105e-06
6.11212e-06
6.11303e-06
6.11378e-06
6.11438e-06
6.115e-06
6.11611e-06
6.11786e-06
6.12026e-06
6.12334e-06
6.12714e-06
6.1317e-06
6.13712e-06
6.14356e-06
6.15121e-06
6.16048e-06
6.17124e-06
6.18944e-06
6.16444e-06
6.384e-06
6.23463e-06
6.09929e-06
6.1e-06
6.09944e-06
6.09898e-06
6.09843e-06
6.09788e-06
6.09773e-06
6.09788e-06
6.09807e-06
6.0988e-06
6.09974e-06
6.10092e-06
6.10242e-06
6.10431e-06
6.10657e-06
6.10916e-06
6.11214e-06
6.11559e-06
6.11963e-06
6.12447e-06
6.13029e-06
6.13671e-06
6.14487e-06
6.15917e-06
6.16296e-06
6.1271e-06
6.10876e-06
6.81367e-06
8.66479e-06
3.62638e-06
7.44743e-09
0
0
0.0048614
0.0345364
0.0986786
0.149859
0.187977
0.131044
6.09838e-06
6.09603e-06
6.09322e-06
6.09009e-06
6.09075e-06
6.09222e-06
6.09356e-06
6.09487e-06
6.096e-06
6.09722e-06
6.09854e-06
6.09986e-06
6.10115e-06
6.10248e-06
6.10383e-06
6.10521e-06
6.10658e-06
6.10792e-06
6.10919e-06
6.11036e-06
6.11137e-06
6.1122e-06
6.11283e-06
6.1133e-06
6.1139e-06
6.11509e-06
6.11691e-06
6.11937e-06
6.12251e-06
6.12637e-06
6.13107e-06
6.13668e-06
6.14336e-06
6.1515e-06
6.16117e-06
6.17288e-06
6.19075e-06
6.17794e-06
6.4158e-06
6.09762e-06
6.09808e-06
6.09749e-06
6.09701e-06
6.0964e-06
6.09584e-06
6.09567e-06
6.09574e-06
6.09594e-06
6.0961e-06
6.0972e-06
6.09822e-06
6.09953e-06
6.10122e-06
6.10325e-06
6.10557e-06
6.10826e-06
6.11143e-06
6.11516e-06
6.11967e-06
6.12503e-06
6.13146e-06
6.13858e-06
6.14846e-06
6.16309e-06
6.1654e-06
6.13971e-06
6.0926e-06
6.83318e-06
9.44935e-06
1.60518e-06
5.61035e-12
0
1.73766e-05
0.00164506
0.0163002
0.0296907
0.0425566
0.0227754
6.09689e-06
6.09493e-06
6.09233e-06
6.08918e-06
6.08943e-06
6.09061e-06
6.09181e-06
6.09286e-06
6.094e-06
6.09525e-06
6.09651e-06
6.09781e-06
6.09914e-06
6.1005e-06
6.10185e-06
6.10323e-06
6.10459e-06
6.10595e-06
6.10726e-06
6.10852e-06
6.10966e-06
6.11066e-06
6.11145e-06
6.112e-06
6.11239e-06
6.11301e-06
6.11418e-06
6.11595e-06
6.11835e-06
6.12141e-06
6.12523e-06
6.12985e-06
6.13547e-06
6.14248e-06
6.15088e-06
6.16151e-06
6.17681e-06
6.17507e-06
6.28633e-06
6.09655e-06
6.0967e-06
6.09603e-06
6.09546e-06
6.09477e-06
6.09415e-06
6.09391e-06
6.0939e-06
6.09398e-06
6.0942e-06
6.0948e-06
6.09567e-06
6.09682e-06
6.09821e-06
6.09987e-06
6.10185e-06
6.1042e-06
6.10701e-06
6.11034e-06
6.11441e-06
6.11932e-06
6.12522e-06
6.13225e-06
6.14021e-06
6.15299e-06
6.16116e-06
6.1806e-06
6.16912e-06
5.84469e-06
7.95952e-06
8.63988e-06
1.54355e-08
0
0
0.000362269
0.00372129
0.00207034
0.00462802
0.00628686
6.09595e-06
6.0943e-06
6.09187e-06
6.08874e-06
6.08862e-06
6.08949e-06
6.09046e-06
6.09143e-06
6.09231e-06
6.09358e-06
6.09463e-06
6.09589e-06
6.09727e-06
6.09866e-06
6.1e-06
6.10133e-06
6.10267e-06
6.10403e-06
6.1054e-06
6.10676e-06
6.10807e-06
6.10926e-06
6.11026e-06
6.111e-06
6.11146e-06
6.11169e-06
6.11225e-06
6.11336e-06
6.11506e-06
6.11739e-06
6.12045e-06
6.12423e-06
6.12894e-06
6.13492e-06
6.14216e-06
6.15165e-06
6.16328e-06
6.17541e-06
6.21776e-06
6.09595e-06
6.09581e-06
6.09501e-06
6.09433e-06
6.09355e-06
6.09286e-06
6.09254e-06
6.09244e-06
6.09244e-06
6.09257e-06
6.09283e-06
6.09349e-06
6.09442e-06
6.09554e-06
6.0969e-06
6.0986e-06
6.1007e-06
6.10322e-06
6.10624e-06
6.10991e-06
6.11436e-06
6.11964e-06
6.12616e-06
6.13343e-06
6.14364e-06
6.1547e-06
6.16013e-06
6.23678e-06
6.00852e-06
5.94905e-06
1.00154e-05
2.99048e-06
3.3915e-11
0
0
0
0.00046567
0.00105586
0.000960091
6.09546e-06
6.09399e-06
6.0917e-06
6.08866e-06
6.08822e-06
6.0888e-06
6.08955e-06
6.09033e-06
6.09118e-06
6.09209e-06
6.09306e-06
6.09425e-06
6.0956e-06
6.09697e-06
6.09829e-06
6.09958e-06
6.1009e-06
6.10228e-06
6.10371e-06
6.10517e-06
6.1066e-06
6.10792e-06
6.10906e-06
6.10995e-06
6.11054e-06
6.11076e-06
6.11084e-06
6.1114e-06
6.11253e-06
6.11426e-06
6.11666e-06
6.11973e-06
6.12364e-06
6.12869e-06
6.13486e-06
6.14312e-06
6.15282e-06
6.16708e-06
6.19168e-06
6.09566e-06
6.09529e-06
6.09436e-06
6.09359e-06
6.09275e-06
6.092e-06
6.09161e-06
6.09144e-06
6.09137e-06
6.09141e-06
6.0916e-06
6.09183e-06
6.09261e-06
6.09347e-06
6.09459e-06
6.09604e-06
6.09785e-06
6.10002e-06
6.10265e-06
6.10589e-06
6.10988e-06
6.11463e-06
6.12048e-06
6.12742e-06
6.13546e-06
6.14882e-06
6.14846e-06
6.1882e-06
6.26686e-06
5.64297e-06
7.2503e-06
1.07205e-05
6.73525e-11
2.01631e-16
0
0
0
0
0.00107925
6.09524e-06
6.09391e-06
6.09169e-06
6.08877e-06
6.08811e-06
6.08846e-06
6.08902e-06
6.08963e-06
6.09034e-06
6.09107e-06
6.09197e-06
6.09292e-06
6.09412e-06
6.09546e-06
6.09676e-06
6.09802e-06
6.0993e-06
6.10066e-06
6.10211e-06
6.10359e-06
6.10503e-06
6.10638e-06
6.10755e-06
6.10848e-06
6.10914e-06
6.10944e-06
6.1094e-06
6.10965e-06
6.11044e-06
6.1118e-06
6.11377e-06
6.11634e-06
6.11967e-06
6.124e-06
6.12928e-06
6.13645e-06
6.14473e-06
6.15792e-06
6.17756e-06
6.09555e-06
6.09501e-06
6.09399e-06
6.09317e-06
6.0923e-06
6.09154e-06
6.09112e-06
6.09089e-06
6.09076e-06
6.09074e-06
6.09079e-06
6.09101e-06
6.09132e-06
6.09195e-06
6.09288e-06
6.094e-06
6.0954e-06
6.09716e-06
6.09937e-06
6.10211e-06
6.10556e-06
6.10974e-06
6.11487e-06
6.12137e-06
6.12841e-06
6.13983e-06
6.14853e-06
6.14557e-06
6.27466e-06
6.01502e-06
5.82561e-06
9.67633e-06
2.96235e-06
5.28106e-09
0
0
0
0
0.00122922
6.09518e-06
6.09395e-06
6.09177e-06
6.08898e-06
6.08819e-06
6.08836e-06
6.08877e-06
6.08924e-06
6.08981e-06
6.09048e-06
6.09112e-06
6.09187e-06
6.09295e-06
6.09421e-06
6.09543e-06
6.09661e-06
6.09781e-06
6.09912e-06
6.10052e-06
6.10194e-06
6.10333e-06
6.10461e-06
6.10573e-06
6.10667e-06
6.10737e-06
6.10778e-06
6.10781e-06
6.10794e-06
6.10854e-06
6.10965e-06
6.11129e-06
6.1135e-06
6.11639e-06
6.12015e-06
6.12474e-06
6.13103e-06
6.13822e-06
6.15017e-06
6.16678e-06
6.09551e-06
6.09484e-06
6.09378e-06
6.09298e-06
6.09214e-06
6.09141e-06
6.09098e-06
6.0907e-06
6.09051e-06
6.09044e-06
6.09042e-06
6.09048e-06
6.09061e-06
6.09102e-06
6.09164e-06
6.09248e-06
6.09363e-06
6.09507e-06
6.09691e-06
6.09921e-06
6.10209e-06
6.10562e-06
6.10994e-06
6.11558e-06
6.12219e-06
6.13061e-06
6.14434e-06
6.13903e-06
6.19169e-06
6.24836e-06
5.78099e-06
6.91566e-06
8.53901e-06
1.12119e-06
3.91258e-09
1.03087e-11
0
0
0.00139713
6.09519e-06
6.09405e-06
6.0919e-06
6.08925e-06
6.08838e-06
6.08842e-06
6.08871e-06
6.08909e-06
6.08954e-06
6.0901e-06
6.09064e-06
6.09125e-06
6.0921e-06
6.09315e-06
6.09425e-06
6.09536e-06
6.09652e-06
6.09775e-06
6.09904e-06
6.10035e-06
6.10163e-06
6.10285e-06
6.10394e-06
6.10489e-06
6.10568e-06
6.10623e-06
6.10644e-06
6.1065e-06
6.1069e-06
6.10774e-06
6.10906e-06
6.11089e-06
6.11336e-06
6.11659e-06
6.12056e-06
6.1261e-06
6.13241e-06
6.14335e-06
6.1576e-06
6.09548e-06
6.0947e-06
6.09365e-06
6.0929e-06
6.09212e-06
6.09144e-06
6.09101e-06
6.09071e-06
6.09049e-06
6.09037e-06
6.09031e-06
6.09027e-06
6.09035e-06
6.0904e-06
6.0908e-06
6.09152e-06
6.09241e-06
6.0935e-06
6.09494e-06
6.09681e-06
6.09918e-06
6.10209e-06
6.10566e-06
6.11032e-06
6.11632e-06
6.12312e-06
6.13513e-06
6.14155e-06
6.14514e-06
6.24613e-06
6.07952e-06
5.95854e-06
7.7576e-06
6.46908e-06
9.98672e-07
5.57716e-09
2.19947e-09
0
0.00154497
6.09524e-06
6.09419e-06
6.0921e-06
6.08957e-06
6.08864e-06
6.08859e-06
6.0888e-06
6.08909e-06
6.08946e-06
6.08991e-06
6.09041e-06
6.09086e-06
6.09147e-06
6.09232e-06
6.09333e-06
6.09441e-06
6.0955e-06
6.09662e-06
6.09777e-06
6.09894e-06
6.10012e-06
6.10128e-06
6.10238e-06
6.10339e-06
6.10427e-06
6.10496e-06
6.10538e-06
6.10545e-06
6.10565e-06
6.1062e-06
6.10718e-06
6.10864e-06
6.11066e-06
6.11334e-06
6.11669e-06
6.1215e-06
6.12698e-06
6.13694e-06
6.14929e-06
6.09546e-06
6.09457e-06
6.09352e-06
6.09284e-06
6.09214e-06
6.09151e-06
6.09109e-06
6.09079e-06
6.09055e-06
6.09042e-06
6.09034e-06
6.09026e-06
6.09021e-06
6.09023e-06
6.09036e-06
6.09077e-06
6.09142e-06
6.09231e-06
6.09349e-06
6.09502e-06
6.09699e-06
6.09936e-06
6.10224e-06
6.10597e-06
6.11101e-06
6.11703e-06
6.12597e-06
6.13786e-06
6.13555e-06
6.18424e-06
6.2203e-06
5.96429e-06
6.43125e-06
7.62289e-06
5.36524e-06
2.39274e-06
9.20824e-07
1.63071e-12
0.00161502
6.09534e-06
6.09439e-06
6.0924e-06
6.08997e-06
6.08899e-06
6.08886e-06
6.08899e-06
6.08922e-06
6.08952e-06
6.08989e-06
6.09031e-06
6.0907e-06
6.09113e-06
6.09183e-06
6.09273e-06
6.09372e-06
6.09471e-06
6.0957e-06
6.09669e-06
6.09773e-06
6.09882e-06
6.09995e-06
6.10106e-06
6.10211e-06
6.10304e-06
6.10378e-06
6.10431e-06
6.10454e-06
6.10463e-06
6.10496e-06
6.10566e-06
6.10682e-06
6.10848e-06
6.1107e-06
6.11352e-06
6.11764e-06
6.12231e-06
6.13123e-06
6.14172e-06
6.0955e-06
6.09446e-06
6.09339e-06
6.09277e-06
6.09214e-06
6.09157e-06
6.09118e-06
6.0909e-06
6.09068e-06
6.09056e-06
6.09048e-06
6.09039e-06
6.09028e-06
6.09027e-06
6.09013e-06
6.09034e-06
6.0909e-06
6.09158e-06
6.09241e-06
6.09356e-06
6.09513e-06
6.09704e-06
6.09931e-06
6.10226e-06
6.10632e-06
6.11159e-06
6.11871e-06
6.12976e-06
6.13377e-06
6.15023e-06
6.21464e-06
6.10728e-06
6.1027e-06
6.82095e-06
6.40316e-06
6.82078e-06
8.48671e-06
2.13076e-11
0.00154312
6.09551e-06
6.09468e-06
6.0928e-06
6.09047e-06
6.08945e-06
6.08923e-06
6.08929e-06
6.08945e-06
6.08969e-06
6.08999e-06
6.09032e-06
6.09075e-06
6.091e-06
6.09154e-06
6.09229e-06
6.09316e-06
6.09406e-06
6.09493e-06
6.09581e-06
6.09674e-06
6.09775e-06
6.09883e-06
6.0999e-06
6.10091e-06
6.10179e-06
6.10249e-06
6.10299e-06
6.10329e-06
6.10335e-06
6.1036e-06
6.10417e-06
6.10518e-06
6.10662e-06
6.10855e-06
6.11102e-06
6.11463e-06
6.11864e-06
6.12661e-06
6.13518e-06
6.09563e-06
6.09441e-06
6.09331e-06
6.09273e-06
6.09218e-06
6.09167e-06
6.09133e-06
6.09107e-06
6.09089e-06
6.09079e-06
6.09073e-06
6.09065e-06
6.09053e-06
6.09039e-06
6.09033e-06
6.09031e-06
6.09051e-06
6.09085e-06
6.09147e-06
6.09244e-06
6.09378e-06
6.09539e-06
6.09719e-06
6.09946e-06
6.10261e-06
6.1069e-06
6.11303e-06
6.12177e-06
6.12869e-06
6.13995e-06
6.17976e-06
6.14514e-06
6.18013e-06
6.38887e-06
5.72016e-06
7.35745e-06
1.42723e-05
4.752e-11
0.00129486
6.09578e-06
6.09507e-06
6.09331e-06
6.09108e-06
6.09001e-06
6.08971e-06
6.0897e-06
6.08978e-06
6.08996e-06
6.09019e-06
6.09045e-06
6.09078e-06
6.09109e-06
6.09145e-06
6.092e-06
6.09275e-06
6.09355e-06
6.09434e-06
6.09513e-06
6.09598e-06
6.0969e-06
6.09785e-06
6.09879e-06
6.09966e-06
6.10044e-06
6.10107e-06
6.10153e-06
6.10184e-06
6.10193e-06
6.10217e-06
6.1027e-06
6.10361e-06
6.10489e-06
6.10665e-06
6.10889e-06
6.11215e-06
6.11571e-06
6.12294e-06
6.12987e-06
6.09587e-06
6.09448e-06
6.09337e-06
6.09284e-06
6.09235e-06
6.09188e-06
6.09158e-06
6.09135e-06
6.09119e-06
6.09112e-06
6.09106e-06
6.09099e-06
6.09087e-06
6.09068e-06
6.09061e-06
6.09033e-06
6.09033e-06
6.09069e-06
6.09134e-06
6.09224e-06
6.09342e-06
6.09475e-06
6.09613e-06
6.09778e-06
6.10008e-06
6.10333e-06
6.10853e-06
6.11546e-06
6.12183e-06
6.13489e-06
6.16022e-06
6.12184e-06
6.26095e-06
6.30913e-06
5.27111e-06
7.88609e-06
1.29636e-05
4.9956e-11
0.000864842
6.09613e-06
6.09552e-06
6.09385e-06
6.09173e-06
6.09064e-06
6.09027e-06
6.09018e-06
6.09021e-06
6.09031e-06
6.09048e-06
6.09067e-06
6.09091e-06
6.09133e-06
6.09144e-06
6.09184e-06
6.09247e-06
6.09319e-06
6.09392e-06
6.09465e-06
6.0954e-06
6.09616e-06
6.09694e-06
6.09771e-06
6.09847e-06
6.0992e-06
6.09982e-06
6.10031e-06
6.10066e-06
6.10083e-06
6.10109e-06
6.10155e-06
6.10232e-06
6.10342e-06
6.10497e-06
6.10699e-06
6.10993e-06
6.11313e-06
6.11978e-06
6.12546e-06
6.09618e-06
6.09472e-06
6.09363e-06
6.09315e-06
6.09269e-06
6.09224e-06
6.09194e-06
6.09171e-06
6.09156e-06
6.09149e-06
6.09145e-06
6.09138e-06
6.09127e-06
6.0911e-06
6.09093e-06
6.09058e-06
6.0906e-06
6.09093e-06
6.09137e-06
6.09193e-06
6.09275e-06
6.09371e-06
6.09471e-06
6.09588e-06
6.09755e-06
6.09997e-06
6.10428e-06
6.11004e-06
6.11499e-06
6.12903e-06
6.15038e-06
6.09586e-06
6.281e-06
6.31228e-06
5.14089e-06
8.67695e-06
9.96768e-06
4.29471e-11
0.000289787
6.09652e-06
6.09595e-06
6.09432e-06
6.09233e-06
6.09125e-06
6.09084e-06
6.0907e-06
6.09067e-06
6.09072e-06
6.09083e-06
6.09097e-06
6.09116e-06
6.09149e-06
6.09156e-06
6.09187e-06
6.09237e-06
6.093e-06
6.09367e-06
6.09432e-06
6.09492e-06
6.09552e-06
6.09616e-06
6.09685e-06
6.09758e-06
6.0983e-06
6.09893e-06
6.09943e-06
6.09979e-06
6.1e-06
6.10019e-06
6.10056e-06
6.10121e-06
6.10216e-06
6.10355e-06
6.10535e-06
6.108e-06
6.11086e-06
6.11699e-06
6.12167e-06
6.09651e-06
6.09507e-06
6.09407e-06
6.09363e-06
6.09317e-06
6.09271e-06
6.09239e-06
6.09214e-06
6.09197e-06
6.0919e-06
6.09185e-06
6.09179e-06
6.09168e-06
6.09152e-06
6.09127e-06
6.09111e-06
6.09091e-06
6.09094e-06
6.09108e-06
6.09146e-06
6.09216e-06
6.093e-06
6.09377e-06
6.09453e-06
6.09559e-06
6.09719e-06
6.10052e-06
6.10521e-06
6.10864e-06
6.12313e-06
6.13994e-06
6.08358e-06
6.27599e-06
6.29705e-06
5.10652e-06
8.98568e-06
9.14984e-06
4.58212e-11
0
6.09684e-06
6.09622e-06
6.09461e-06
6.09276e-06
6.09174e-06
6.09132e-06
6.09115e-06
6.09109e-06
6.09111e-06
6.09119e-06
6.09129e-06
6.09144e-06
6.09168e-06
6.09186e-06
6.09206e-06
6.09241e-06
6.09293e-06
6.09351e-06
6.09404e-06
6.09454e-06
6.09505e-06
6.09564e-06
6.09628e-06
6.09696e-06
6.09759e-06
6.09812e-06
6.09851e-06
6.09876e-06
6.09889e-06
6.09899e-06
6.09931e-06
6.09992e-06
6.10084e-06
6.10218e-06
6.1039e-06
6.10636e-06
6.109e-06
6.11471e-06
6.11852e-06
6.09675e-06
6.09547e-06
6.0946e-06
6.0942e-06
6.09372e-06
6.09324e-06
6.09289e-06
6.09261e-06
6.09244e-06
6.09235e-06
6.09229e-06
6.09222e-06
6.09211e-06
6.09195e-06
6.09172e-06
6.09155e-06
6.09115e-06
6.09104e-06
6.09121e-06
6.09165e-06
6.09236e-06
6.09317e-06
6.09383e-06
6.0943e-06
6.09483e-06
6.09566e-06
6.09796e-06
6.10149e-06
6.10338e-06
6.11796e-06
6.12894e-06
6.07795e-06
6.26742e-06
6.26808e-06
5.08369e-06
9.0701e-06
9.29888e-06
5.5067e-11
0
6.09698e-06
6.09626e-06
6.09465e-06
6.09294e-06
6.09199e-06
6.0916e-06
6.09145e-06
6.09139e-06
6.09141e-06
6.09148e-06
6.09157e-06
6.09171e-06
6.09188e-06
6.09227e-06
6.09225e-06
6.09247e-06
6.09289e-06
6.09338e-06
6.09385e-06
6.09432e-06
6.0948e-06
6.09532e-06
6.09584e-06
6.09634e-06
6.09679e-06
6.09712e-06
6.09734e-06
6.09745e-06
6.09746e-06
6.09754e-06
6.09785e-06
6.09845e-06
6.09938e-06
6.10072e-06
6.10242e-06
6.10481e-06
6.10736e-06
6.11279e-06
6.11601e-06
6.0968e-06
6.09579e-06
6.09508e-06
6.09473e-06
6.09426e-06
6.09378e-06
6.09343e-06
6.09315e-06
6.09297e-06
6.09287e-06
6.09279e-06
6.09271e-06
6.0926e-06
6.09244e-06
6.09223e-06
6.09199e-06
6.09156e-06
6.09148e-06
6.09169e-06
6.09202e-06
6.09249e-06
6.09306e-06
6.09352e-06
6.09377e-06
6.094e-06
6.09433e-06
6.09587e-06
6.09844e-06
6.0991e-06
6.11308e-06
6.11989e-06
6.07083e-06
6.26234e-06
6.24487e-06
5.05911e-06
9.08936e-06
9.37739e-06
6.53872e-11
0
6.09686e-06
6.09601e-06
6.09443e-06
6.09282e-06
6.09195e-06
6.09161e-06
6.09149e-06
6.09147e-06
6.09153e-06
6.09163e-06
6.09174e-06
6.09189e-06
6.09207e-06
6.0924e-06
6.09244e-06
6.09264e-06
6.09297e-06
6.09339e-06
6.09384e-06
6.09428e-06
6.09468e-06
6.09507e-06
6.09541e-06
6.09572e-06
6.09596e-06
6.09612e-06
6.0962e-06
6.09621e-06
6.09617e-06
6.09625e-06
6.09657e-06
6.09716e-06
6.09807e-06
6.09938e-06
6.10101e-06
6.10329e-06
6.10573e-06
6.11092e-06
6.11376e-06
6.09663e-06
6.09593e-06
6.0954e-06
6.09514e-06
6.09473e-06
6.09431e-06
6.094e-06
6.09375e-06
6.09357e-06
6.09347e-06
6.09338e-06
6.09329e-06
6.09317e-06
6.093e-06
6.09279e-06
6.09249e-06
6.09228e-06
6.09196e-06
6.09191e-06
6.09198e-06
6.09226e-06
6.09271e-06
6.09309e-06
6.09323e-06
6.09323e-06
6.09317e-06
6.09406e-06
6.09586e-06
6.0955e-06
6.10811e-06
6.11299e-06
6.06313e-06
6.25732e-06
6.22811e-06
5.03549e-06
9.08317e-06
9.34901e-06
7.65322e-11
0
6.09649e-06
6.09556e-06
6.09402e-06
6.09248e-06
6.09165e-06
6.09134e-06
6.09127e-06
6.0913e-06
6.0914e-06
6.09155e-06
6.09172e-06
6.09191e-06
6.09214e-06
6.09243e-06
6.09268e-06
6.09285e-06
6.0931e-06
6.09346e-06
6.09387e-06
6.09425e-06
6.09458e-06
6.09485e-06
6.09505e-06
6.09519e-06
6.09528e-06
6.09531e-06
6.0953e-06
6.09526e-06
6.0952e-06
6.09527e-06
6.09557e-06
6.09614e-06
6.09702e-06
6.09826e-06
6.09978e-06
6.10189e-06
6.10417e-06
6.10904e-06
6.11149e-06
6.09624e-06
6.09583e-06
6.09547e-06
6.09534e-06
6.09506e-06
6.09476e-06
6.09455e-06
6.09436e-06
6.09422e-06
6.09413e-06
6.09405e-06
6.09395e-06
6.09382e-06
6.09365e-06
6.09344e-06
6.09317e-06
6.09291e-06
6.0924e-06
6.0922e-06
6.09227e-06
6.09258e-06
6.09304e-06
6.09339e-06
6.09346e-06
6.09331e-06
6.09295e-06
6.09321e-06
6.09434e-06
6.09296e-06
6.10335e-06
6.10887e-06
6.05633e-06
6.24655e-06
6.21554e-06
5.02366e-06
9.0758e-06
9.29162e-06
8.89407e-11
0
6.09596e-06
6.09505e-06
6.09357e-06
6.09205e-06
6.09121e-06
6.09089e-06
6.09082e-06
6.09088e-06
6.09104e-06
6.09125e-06
6.09148e-06
6.09173e-06
6.09203e-06
6.09233e-06
6.09278e-06
6.09295e-06
6.09317e-06
6.09349e-06
6.09387e-06
6.09424e-06
6.09452e-06
6.0947e-06
6.09478e-06
6.09478e-06
6.09476e-06
6.09472e-06
6.09464e-06
6.09455e-06
6.09445e-06
6.0945e-06
6.09476e-06
6.09529e-06
6.09612e-06
6.09729e-06
6.0987e-06
6.10065e-06
6.10276e-06
6.10727e-06
6.10935e-06
6.09574e-06
6.09553e-06
6.09532e-06
6.09536e-06
6.09525e-06
6.09511e-06
6.09503e-06
6.09494e-06
6.09487e-06
6.09483e-06
6.09477e-06
6.09469e-06
6.09456e-06
6.09439e-06
6.09418e-06
6.09392e-06
6.09359e-06
6.09307e-06
6.09288e-06
6.09297e-06
6.09322e-06
6.09349e-06
6.09362e-06
6.09352e-06
6.09331e-06
6.0929e-06
6.09284e-06
6.09366e-06
6.09153e-06
6.09926e-06
6.10785e-06
6.04887e-06
6.23263e-06
6.20424e-06
5.0381e-06
9.06205e-06
9.19484e-06
1.02689e-10
0
6.09543e-06
6.09466e-06
6.09326e-06
6.09171e-06
6.09079e-06
6.09039e-06
6.09028e-06
6.09033e-06
6.09051e-06
6.09076e-06
6.09104e-06
6.09137e-06
6.09172e-06
6.09211e-06
6.09251e-06
6.09292e-06
6.09321e-06
6.09351e-06
6.09386e-06
6.0942e-06
6.09443e-06
6.09454e-06
6.09455e-06
6.0945e-06
6.09443e-06
6.09431e-06
6.09415e-06
6.09396e-06
6.09375e-06
6.09371e-06
6.0939e-06
6.09437e-06
6.09515e-06
6.09627e-06
6.09762e-06
6.09947e-06
6.10148e-06
6.10569e-06
6.10745e-06
6.09525e-06
6.09512e-06
6.09504e-06
6.09525e-06
6.09531e-06
6.09534e-06
6.0954e-06
6.09544e-06
6.09547e-06
6.0955e-06
6.0955e-06
6.09545e-06
6.09535e-06
6.0952e-06
6.095e-06
6.09475e-06
6.09441e-06
6.09412e-06
6.09365e-06
6.09348e-06
6.09349e-06
6.09358e-06
6.09355e-06
6.09331e-06
6.09306e-06
6.09274e-06
6.09257e-06
6.09336e-06
6.09097e-06
6.09622e-06
6.10807e-06
6.04388e-06
6.21131e-06
6.21405e-06
5.06161e-06
8.99401e-06
9.06726e-06
1.17791e-10
0
6.09507e-06
6.09456e-06
6.09324e-06
6.09164e-06
6.09059e-06
6.09005e-06
6.08982e-06
6.08979e-06
6.08993e-06
6.09018e-06
6.09048e-06
6.09085e-06
6.09125e-06
6.09171e-06
6.09213e-06
6.09268e-06
6.09308e-06
6.0934e-06
6.09372e-06
6.09403e-06
6.09426e-06
6.09439e-06
6.09441e-06
6.09434e-06
6.09418e-06
6.09393e-06
6.09361e-06
6.09326e-06
6.09293e-06
6.09281e-06
6.09294e-06
6.09336e-06
6.0941e-06
6.09516e-06
6.09649e-06
6.09827e-06
6.10021e-06
6.10421e-06
6.10573e-06
6.09495e-06
6.09479e-06
6.09478e-06
6.0951e-06
6.09529e-06
6.09547e-06
6.09567e-06
6.09584e-06
6.09599e-06
6.09613e-06
6.09621e-06
6.09622e-06
6.09617e-06
6.09606e-06
6.09588e-06
6.09565e-06
6.09536e-06
6.09503e-06
6.09441e-06
6.09409e-06
6.09402e-06
6.09409e-06
6.09402e-06
6.09367e-06
6.09329e-06
6.09296e-06
6.09269e-06
6.09345e-06
6.09122e-06