/*--------------------------------*- C++ -*----------------------------------*\
| =========                 |                                                 |
| \\      /  F ield         | OpenFOAM: The Open Source CFD Toolbox           |
|  \\    /   O peration     | Version:  2506                                  |
|   \\  /    A nd           | Website:  www.openfoam.com                      |
|    \\/     M anipulation  |                                                 |
\*---------------------------------------------------------------------------*/
FoamFile
{
    version     2.0;
    format      ascii;
    arch        "LSB;label=32;scalar=64";
    class       volScalarField;
    location    "50";
    object      nuTilda;
}
// * * * * * * * * * * * * * * * * * * * * * * * * * * * * * * * * * * * * * //

dimensions      [0 2 -1 0 0 0 0];

internalField   nonuniform List<scalar> 
10720
(
5.36789e-05
5.62573e-05
5.94851e-05
6.34228e-05
6.83089e-05
7.44434e-05
8.23297e-05
9.23865e-05
0.000105525
0.000122817
0.000145802
0.000177105
0.000220288
0.000281795
0.000369957
0.000499509
0.000698594
0.00101028
0.0015563
0.002427
0.00449409
0.00768681
0.0198379
0.0495145
0.0524191
0.0458279
0.0432582
0.0376996
0.0424996
0.0439645
0.042837
0.0391984
0.0337831
0.0330963
0.0392175
0.0435156
0.0404946
0.0376117
0.0642766
5.13421e-05
4.91897e-05
4.69867e-05
4.47954e-05
4.26884e-05
4.11846e-05
4.34369e-05
4.68817e-05
5.14754e-05
5.75534e-05
6.56744e-05
7.66495e-05
9.16049e-05
0.000112393
0.000141649
0.000183801
0.00024597
0.000340083
0.000488262
0.00072678
0.00113063
0.00183755
0.00320037
0.00563657
0.0112321
0.0224846
0.0498848
0.0859176
0.107754
0.115564
0.117722
0.118318
0.118185
0.117462
0.116235
0.114658
0.112245
0.109248
0.0988885
3.89101e-05
3.87101e-05
3.85131e-05
3.83216e-05
3.80959e-05
3.78628e-05
3.7641e-05
3.74082e-05
3.72001e-05
3.70179e-05
3.68618e-05
3.67732e-05
3.6827e-05
3.68617e-05
3.92799e-05
4.61324e-05
6.42137e-05
0.000103106
0.000197097
0.000379011
0.000925381
0.00214656
0.00546718
0.0214255
0.0476661
0.085479
0.134142
0.176913
0.203984
0.215234
0.213841
0.197364
0.169217
0.165992
0.188659
0.203268
0.200399
0.192667
0.178248
3.90719e-05
3.92766e-05
3.94538e-05
3.96627e-05
3.98505e-05
4.00245e-05
3.98754e-05
3.96094e-05
3.92707e-05
3.88824e-05
3.84572e-05
3.79956e-05
3.74931e-05
3.69442e-05
3.63058e-05
3.5564e-05
3.46166e-05
3.34113e-05
3.1726e-05
2.93552e-05
2.58452e-05
2.06782e-05
1.52658e-05
1.09378e-05
5.83228e-05
0.000255141
0.00158228
0.00794328
0.0207855
0.0370867
0.0523048
0.0628786
0.0687263
0.0718126
0.0737371
0.0754779
0.0769805
0.0810727
0.0833593
4.02826e-05
4.03115e-05
4.03381e-05
4.03672e-05
4.0403e-05
4.04419e-05
4.04849e-05
4.05339e-05
4.05897e-05
4.06531e-05
4.07269e-05
4.08129e-05
4.09134e-05
4.10397e-05
4.11551e-05
4.15105e-05
4.02024e-05
3.78524e-05
3.07044e-05
8.38818e-05
5.88001e-05
0.000195075
0.000108663
0.00221512
0.0122777
0.0368288
0.0904409
0.168665
0.238644
0.287141
0.314278
0.317293
0.314336
0.344404
0.387966
0.39024
0.35205
0.293805
0.234086
4.02517e-05
4.02196e-05
4.01966e-05
4.01704e-05
4.01602e-05
4.01463e-05
4.01622e-05
4.01895e-05
4.02228e-05
4.02588e-05
4.02986e-05
4.03456e-05
4.0399e-05
4.04569e-05
4.05217e-05
4.05929e-05
4.06734e-05
4.07647e-05
4.08724e-05
4.10008e-05
4.11593e-05
4.13659e-05
4.1608e-05
4.19301e-05
4.20351e-05
4.15958e-05
3.96597e-05
3.96493e-05
0.000283455
0.0014697
0.0046846
0.0104073
0.0181926
0.0271232
0.0361883
0.0446751
0.0518299
0.0588608
0.0659242
4.00834e-05
4.00808e-05
4.00795e-05
4.00771e-05
4.00738e-05
4.0072e-05
4.00729e-05
4.00761e-05
4.00837e-05
4.00962e-05
4.01145e-05
4.01403e-05
4.01753e-05
4.02222e-05
4.02805e-05
4.03722e-05
4.04146e-05
4.0507e-05
3.86425e-05
3.29702e-05
9.22844e-06
4.3747e-05
2.18895e-05
0.000455365
1.35978e-05
0.00402265
0.0233027
0.0811974
0.179859
0.278421
0.347725
0.381873
0.411805
0.476651
0.538864
0.535557
0.471212
0.376803
0.270993
4.00787e-05
4.0075e-05
4.00779e-05
4.00778e-05
4.00901e-05
4.00983e-05
4.0097e-05
4.00921e-05
4.00855e-05
4.00797e-05
4.00743e-05
4.00696e-05
4.0066e-05
4.00643e-05
4.00643e-05
4.0066e-05
4.00691e-05
4.00736e-05
4.00791e-05
4.00855e-05
4.00923e-05
4.00993e-05
4.01065e-05
4.01151e-05
4.01273e-05
4.01642e-05
4.01279e-05
4.05526e-05
3.92116e-05
4.09392e-05
1.10244e-05
4.04426e-05
0.000410374
0.00159536
0.00415209
0.00862572
0.0153657
0.0250614
0.0410192
4.01067e-05
4.01079e-05
4.01081e-05
4.0108e-05
4.0109e-05
4.01095e-05
4.01102e-05
4.01121e-05
4.01155e-05
4.0121e-05
4.01293e-05
4.01407e-05
4.01559e-05
4.01757e-05
4.02011e-05
4.02357e-05
4.02768e-05
4.03149e-05
4.03139e-05
4.08405e-05
3.63115e-05
2.48119e-05
7.06292e-06
0
2.81594e-06
0.000847474
0.00543082
0.0112676
0.0690973
0.185248
0.306311
0.388922
0.462371
0.565409
0.649601
0.64632
0.56445
0.44488
0.299282
4.01025e-05
4.00936e-05
4.00904e-05
4.00839e-05
4.00903e-05
4.00937e-05
4.00946e-05
4.00949e-05
4.00951e-05
4.00959e-05
4.0097e-05
4.0098e-05
4.00997e-05
4.01031e-05
4.01083e-05
4.01149e-05
4.01232e-05
4.0133e-05
4.01444e-05
4.01573e-05
4.01717e-05
4.01877e-05
4.02057e-05
4.02266e-05
4.02524e-05
4.02803e-05
4.03279e-05
4.03232e-05
4.05584e-05
4.03454e-05
4.23996e-05
1.91188e-05
0.000103465
3.28983e-05
0.000977027
0.000146361
0.00131336
0.00243884
0.0144094
4.00955e-05
4.00957e-05
4.0095e-05
4.00938e-05
4.00926e-05
4.00915e-05
4.00906e-05
4.00904e-05
4.00918e-05
4.00948e-05
4.00998e-05
4.01068e-05
4.0116e-05
4.01279e-05
4.01431e-05
4.01626e-05
4.01898e-05
4.02153e-05
4.02743e-05
4.03301e-05
4.09777e-05
4.08562e-05
2.96114e-05
7.34641e-06
0
0
0
0.00263142
0.00533366
0.0642139
0.192623
0.328589
0.459318
0.608011
0.719924
0.724017
0.63373
0.499463
0.324343
4.00935e-05
4.00852e-05
4.00812e-05
4.00746e-05
4.00802e-05
4.00842e-05
4.00854e-05
4.00856e-05
4.00856e-05
4.00858e-05
4.00865e-05
4.00873e-05
4.00882e-05
4.00896e-05
4.00913e-05
4.00933e-05
4.00961e-05
4.00996e-05
4.01038e-05
4.01086e-05
4.0114e-05
4.01199e-05
4.01263e-05
4.01338e-05
4.01422e-05
4.01512e-05
4.01607e-05
4.01721e-05
4.01838e-05
4.01941e-05
4.02533e-05
4.00504e-05
3.74218e-05
3.31232e-05
8.96257e-06
3.7862e-05
0.000311332
0.000625392
0.0026027
4.00909e-05
4.00917e-05
4.00905e-05
4.00899e-05
4.00892e-05
4.00875e-05
4.00857e-05
4.00846e-05
4.00847e-05
4.0086e-05
4.00885e-05
4.00918e-05
4.0096e-05
4.01008e-05
4.01064e-05
4.0113e-05
4.01213e-05
4.01296e-05
4.01412e-05
4.0124e-05
4.02266e-05
4.07296e-05
4.26105e-05
2.97036e-05
7.99734e-06
0
0
0
0.00123363
0.00207392
0.0659093
0.207751
0.394279
0.597773
0.745876
0.766677
0.67809
0.539679
0.346283
4.00892e-05
4.00811e-05
4.0076e-05
4.00692e-05
4.00739e-05
4.00776e-05
4.00794e-05
4.00802e-05
4.00808e-05
4.00816e-05
4.00827e-05
4.00838e-05
4.00851e-05
4.00865e-05
4.0088e-05
4.00898e-05
4.00921e-05
4.00955e-05
4.00999e-05
4.01053e-05
4.01116e-05
4.01189e-05
4.01273e-05
4.0137e-05
4.01484e-05
4.0162e-05
4.01782e-05
4.01974e-05
4.02195e-05
4.02491e-05
4.02649e-05
4.04611e-05
4.03166e-05
3.8744e-05
3.69376e-05
1.53655e-05
7.3106e-06
0
0.000623084
4.00854e-05
4.00863e-05
4.00851e-05
4.00841e-05
4.00829e-05
4.0081e-05
4.00794e-05
4.00789e-05
4.008e-05
4.00824e-05
4.0086e-05
4.00906e-05
4.00962e-05
4.01028e-05
4.01104e-05
4.01192e-05
4.01298e-05
4.01421e-05
4.01559e-05
4.0157e-05
4.01946e-05
4.00498e-05
4.11778e-05
4.21331e-05
3.30659e-05
8.83348e-06
4.93532e-07
0
0
0.00045432
3.26788e-05
0.0765909
0.27278
0.527328
0.720762
0.769502
0.694094
0.562547
0.362098
4.00832e-05
4.00755e-05
4.00699e-05
4.00633e-05
4.00674e-05
4.00712e-05
4.00733e-05
4.00747e-05
4.00756e-05
4.00768e-05
4.00782e-05
4.00796e-05
4.00811e-05
4.00828e-05
4.00845e-05
4.00862e-05
4.0088e-05
4.00899e-05
4.00922e-05
4.0095e-05
4.00987e-05
4.01033e-05
4.01086e-05
4.01146e-05
4.01214e-05
4.01291e-05
4.01379e-05
4.01478e-05
4.01589e-05
4.01713e-05
4.01852e-05
4.02011e-05
4.02349e-05
4.02278e-05
4.0652e-05
3.62527e-05
3.12049e-05
9.03594e-06
0
4.00796e-05
4.0081e-05
4.00799e-05
4.00786e-05
4.00775e-05
4.00758e-05
4.00744e-05
4.0074e-05
4.00749e-05
4.00769e-05
4.00796e-05
4.00832e-05
4.00873e-05
4.0092e-05
4.00973e-05
4.01031e-05
4.01095e-05
4.01163e-05
4.01261e-05
4.01344e-05
4.01588e-05
4.01549e-05
4.00307e-05
4.1195e-05
4.25728e-05
3.64357e-05
2.48545e-06
4.21194e-07
0
0
7.18477e-06
0.0211505
0.130445
0.398163
0.637026
0.725116
0.675959
0.563244
0.367285
4.00773e-05
4.007e-05
4.0064e-05
4.00578e-05
4.00615e-05
4.00652e-05
4.00677e-05
4.00695e-05
4.00709e-05
4.00724e-05
4.00739e-05
4.00756e-05
4.00774e-05
4.00793e-05
4.00812e-05
4.00831e-05
4.00849e-05
4.00867e-05
4.00885e-05
4.00906e-05
4.00934e-05
4.00969e-05
4.01014e-05
4.01068e-05
4.01133e-05
4.01211e-05
4.01304e-05
4.01415e-05
4.01546e-05
4.01701e-05
4.01882e-05
4.02091e-05
4.02349e-05
4.02691e-05
4.03815e-05
4.04444e-05
4.12242e-05
3.74132e-05
5.64536e-06
4.00737e-05
4.00757e-05
4.00743e-05
4.0073e-05
4.00721e-05
4.00703e-05
4.00697e-05
4.00696e-05
4.00705e-05
4.00723e-05
4.00749e-05
4.00781e-05
4.0082e-05
4.00866e-05
4.00919e-05
4.0098e-05
4.01051e-05
4.01133e-05
4.01228e-05
4.01338e-05
4.01406e-05
4.01825e-05
4.01056e-05
4.00607e-05
4.12501e-05
4.30059e-05
3.75665e-05
1.52402e-06
3.58196e-07
0
0
0.000972451
0.0296424
0.237253
0.493582
0.625317
0.616007
0.535238
0.356291
4.00713e-05
4.00647e-05
4.00586e-05
4.00527e-05
4.00558e-05
4.00596e-05
4.00622e-05
4.00643e-05
4.0066e-05
4.00679e-05
4.00696e-05
4.00716e-05
4.00736e-05
4.00758e-05
4.00779e-05
4.00801e-05
4.00821e-05
4.00841e-05
4.0086e-05
4.00878e-05
4.00896e-05
4.00916e-05
4.00941e-05
4.00977e-05
4.01022e-05
4.01079e-05
4.01147e-05
4.01229e-05
4.01326e-05
4.01438e-05
4.01567e-05
4.01719e-05
4.01898e-05
4.02155e-05
4.02182e-05
4.0423e-05
3.96457e-05
4.52058e-05
2.1839e-05
4.0068e-05
4.00699e-05
4.00687e-05
4.00676e-05
4.00665e-05
4.00651e-05
4.00651e-05
4.0065e-05
4.0066e-05
4.00676e-05
4.00698e-05
4.00726e-05
4.0076e-05
4.00799e-05
4.00846e-05
4.00899e-05
4.00961e-05
4.01031e-05
4.01114e-05
4.01221e-05
4.01319e-05
4.01505e-05
4.01825e-05
4.00797e-05
4.01134e-05
4.11773e-05
4.38028e-05
3.75185e-05
1.43566e-06
3.39052e-07
0
0
0.00969544
0.097994
0.30929
0.468166
0.506733
0.471721
0.322922
4.00657e-05
4.00598e-05
4.00539e-05
4.00482e-05
4.00507e-05
4.00543e-05
4.00572e-05
4.00594e-05
4.00613e-05
4.00634e-05
4.00655e-05
4.00676e-05
4.00698e-05
4.00722e-05
4.00745e-05
4.00769e-05
4.00792e-05
4.00815e-05
4.00835e-05
4.00853e-05
4.00869e-05
4.00884e-05
4.00899e-05
4.00921e-05
4.00955e-05
4.01e-05
4.01058e-05
4.0113e-05
4.01217e-05
4.01321e-05
4.01443e-05
4.01588e-05
4.01757e-05
4.01964e-05
4.02127e-05
4.03067e-05
3.98521e-05
4.24379e-05
3.60091e-05
4.0063e-05
4.00646e-05
4.00635e-05
4.00626e-05
4.00616e-05
4.00606e-05
4.00602e-05
4.00602e-05
4.00614e-05
4.00629e-05
4.00648e-05
4.00672e-05
4.00703e-05
4.00741e-05
4.00785e-05
4.00836e-05
4.00895e-05
4.00963e-05
4.01044e-05
4.01139e-05
4.01251e-05
4.01359e-05
4.01629e-05
4.01737e-05
4.00925e-05
4.01043e-05
4.12341e-05
4.41095e-05
3.5881e-05
1.36191e-06
5.75574e-08
0
0.00055989
0.0169203
0.13525
0.270821
0.342705
0.360115
0.252593
4.00609e-05
4.00558e-05
4.00502e-05
4.00444e-05
4.00464e-05
4.00495e-05
4.00524e-05
4.00548e-05
4.00568e-05
4.0059e-05
4.00614e-05
4.00637e-05
4.0066e-05
4.00684e-05
4.00709e-05
4.00734e-05
4.00759e-05
4.00783e-05
4.00806e-05
4.00825e-05
4.00842e-05
4.00856e-05
4.00867e-05
4.00879e-05
4.00899e-05
4.00932e-05
4.00976e-05
4.01033e-05
4.01103e-05
4.01188e-05
4.01288e-05
4.01406e-05
4.01548e-05
4.01719e-05
4.01917e-05
4.02251e-05
4.01791e-05
4.0579e-05
4.03079e-05
4.00588e-05
4.00601e-05
4.00591e-05
4.00582e-05
4.00572e-05
4.00562e-05
4.00559e-05
4.00562e-05
4.00565e-05
4.00579e-05
4.00596e-05
4.00618e-05
4.00646e-05
4.00681e-05
4.00723e-05
4.00771e-05
4.00826e-05
4.0089e-05
4.00964e-05
4.01054e-05
4.01161e-05
4.0128e-05
4.01431e-05
4.01694e-05
4.01764e-05
4.01102e-05
4.00763e-05
4.13376e-05
4.43106e-05
3.46974e-05
7.18717e-06
0
0
0.00486141
0.0345364
0.0986786
0.149859
0.187977
0.131044
4.00571e-05
4.00527e-05
4.00475e-05
4.00417e-05
4.00429e-05
4.00457e-05
4.00481e-05
4.00506e-05
4.00527e-05
4.00549e-05
4.00574e-05
4.00598e-05
4.00622e-05
4.00647e-05
4.00672e-05
4.00697e-05
4.00723e-05
4.00748e-05
4.00771e-05
4.00793e-05
4.00811e-05
4.00827e-05
4.00839e-05
4.00847e-05
4.00858e-05
4.00881e-05
4.00914e-05
4.0096e-05
4.01018e-05
4.01089e-05
4.01176e-05
4.0128e-05
4.01403e-05
4.01553e-05
4.01731e-05
4.01947e-05
4.02275e-05
4.0204e-05
4.06362e-05
4.00557e-05
4.00565e-05
4.00555e-05
4.00546e-05
4.00534e-05
4.00524e-05
4.00521e-05
4.00522e-05
4.00526e-05
4.00529e-05
4.00549e-05
4.00568e-05
4.00592e-05
4.00624e-05
4.00661e-05
4.00704e-05
4.00754e-05
4.00813e-05
4.00882e-05
4.00965e-05
4.01064e-05
4.01183e-05
4.01315e-05
4.01497e-05
4.01767e-05
4.01809e-05
4.01335e-05
4.00464e-05
4.13713e-05
4.54565e-05
2.79414e-05
1.1904e-06
0
5.49204e-05
0.00164519
0.0163002
0.0296907
0.0425566
0.0227754
4.00543e-05
4.00507e-05
4.00459e-05
4.004e-05
4.00405e-05
4.00427e-05
4.00449e-05
4.00469e-05
4.0049e-05
4.00513e-05
4.00536e-05
4.0056e-05
4.00585e-05
4.0061e-05
4.00635e-05
4.00661e-05
4.00686e-05
4.00711e-05
4.00735e-05
4.00759e-05
4.0078e-05
4.00798e-05
4.00813e-05
4.00823e-05
4.00831e-05
4.00842e-05
4.00864e-05
4.00896e-05
4.00941e-05
4.00997e-05
4.01068e-05
4.01153e-05
4.01257e-05
4.01387e-05
4.01542e-05
4.01737e-05
4.02019e-05
4.01987e-05
4.04022e-05
4.00537e-05
4.0054e-05
4.00527e-05
4.00517e-05
4.00504e-05
4.00493e-05
4.00488e-05
4.00488e-05
4.00489e-05
4.00493e-05
4.00505e-05
4.00521e-05
4.00542e-05
4.00568e-05
4.00599e-05
4.00635e-05
4.00679e-05
4.00731e-05
4.00793e-05
4.00868e-05
4.00959e-05
4.01068e-05
4.01198e-05
4.01345e-05
4.0158e-05
4.01731e-05
4.02089e-05
4.01878e-05
3.95805e-05
4.32275e-05
4.42733e-05
8.62518e-06
0
0
0.000364937
0.00372132
0.00207043
0.00462804
0.00628687
4.00526e-05
4.00495e-05
4.0045e-05
4.00392e-05
4.0039e-05
4.00406e-05
4.00424e-05
4.00442e-05
4.00458e-05
4.00482e-05
4.00501e-05
4.00525e-05
4.0055e-05
4.00576e-05
4.00601e-05
4.00626e-05
4.0065e-05
4.00676e-05
4.00701e-05
4.00726e-05
4.0075e-05
4.00773e-05
4.00791e-05
4.00805e-05
4.00813e-05
4.00818e-05
4.00828e-05
4.00848e-05
4.0088e-05
4.00923e-05
4.0098e-05
4.0105e-05
4.01137e-05
4.01247e-05
4.01381e-05
4.01556e-05
4.0177e-05
4.01993e-05
4.02771e-05
4.00526e-05
4.00523e-05
4.00508e-05
4.00496e-05
4.00481e-05
4.00469e-05
4.00463e-05
4.00461e-05
4.00461e-05
4.00463e-05
4.00468e-05
4.0048e-05
4.00498e-05
4.00518e-05
4.00543e-05
4.00575e-05
4.00614e-05
4.00661e-05
4.00717e-05
4.00785e-05
4.00867e-05
4.00965e-05
4.01085e-05
4.0122e-05
4.01408e-05
4.01612e-05
4.01712e-05
4.03119e-05
3.98897e-05
3.97781e-05
4.62497e-05
3.29392e-05
1.86657e-06
0
0
0
0.000467303
0.00105618
0.000960479
4.00517e-05
4.0049e-05
4.00447e-05
4.00391e-05
4.00382e-05
4.00393e-05
4.00407e-05
4.00422e-05
4.00437e-05
4.00454e-05
4.00472e-05
4.00494e-05
4.00519e-05
4.00545e-05
4.00569e-05
4.00593e-05
4.00618e-05
4.00643e-05
4.0067e-05
4.00697e-05
4.00723e-05
4.00748e-05
4.00769e-05
4.00785e-05
4.00796e-05
4.008e-05
4.00802e-05
4.00812e-05
4.00833e-05
4.00865e-05
4.0091e-05
4.00966e-05
4.01039e-05
4.01132e-05
4.01246e-05
4.01398e-05
4.01577e-05
4.0184e-05
4.02292e-05
4.00521e-05
4.00514e-05
4.00496e-05
4.00482e-05
4.00466e-05
4.00453e-05
4.00445e-05
4.00442e-05
4.00441e-05
4.00442e-05
4.00445e-05
4.00449e-05
4.00464e-05
4.0048e-05
4.00501e-05
4.00528e-05
4.00561e-05
4.00601e-05
4.0065e-05
4.0071e-05
4.00784e-05
4.00872e-05
4.0098e-05
4.01109e-05
4.01257e-05
4.01504e-05
4.01497e-05
4.02228e-05
4.03668e-05
3.91922e-05
4.20789e-05
4.72029e-05
2.21582e-06
9.21686e-08
0
0
0
0
0.00107956
4.00513e-05
4.00488e-05
4.00447e-05
4.00393e-05
4.0038e-05
4.00387e-05
4.00397e-05
4.00409e-05
4.00422e-05
4.00435e-05
4.00452e-05
4.0047e-05
4.00492e-05
4.00517e-05
4.00541e-05
4.00564e-05
4.00588e-05
4.00613e-05
4.0064e-05
4.00667e-05
4.00694e-05
4.00719e-05
4.00741e-05
4.00758e-05
4.0077e-05
4.00776e-05
4.00775e-05
4.0078e-05
4.00794e-05
4.0082e-05
4.00856e-05
4.00904e-05
4.00965e-05
4.01045e-05
4.01143e-05
4.01275e-05
4.01428e-05
4.01671e-05
4.02033e-05
4.00519e-05
4.00508e-05
4.00489e-05
4.00474e-05
4.00458e-05
4.00444e-05
4.00436e-05
4.00432e-05
4.0043e-05
4.00429e-05
4.0043e-05
4.00434e-05
4.0044e-05
4.00452e-05
4.00469e-05
4.0049e-05
4.00516e-05
4.00548e-05
4.00589e-05
4.0064e-05
4.00704e-05
4.00781e-05
4.00876e-05
4.00997e-05
4.01127e-05
4.01338e-05
4.01498e-05
4.01444e-05
4.0381e-05
3.99019e-05
3.95442e-05
4.57777e-05
3.28558e-05
6.59494e-06
0
0
0
0
0.00122946
4.00512e-05
4.00489e-05
4.00448e-05
4.00397e-05
4.00382e-05
4.00385e-05
4.00393e-05
4.00401e-05
4.00412e-05
4.00424e-05
4.00436e-05
4.0045e-05
4.0047e-05
4.00494e-05
4.00516e-05
4.00538e-05
4.0056e-05
4.00585e-05
4.00611e-05
4.00637e-05
4.00663e-05
4.00686e-05
4.00707e-05
4.00724e-05
4.00738e-05
4.00745e-05
4.00746e-05
4.00748e-05
4.00759e-05
4.0078e-05
4.0081e-05
4.00851e-05
4.00905e-05
4.00974e-05
4.01059e-05
4.01175e-05
4.01308e-05
4.01529e-05
4.01834e-05
4.00518e-05
4.00505e-05
4.00486e-05
4.00471e-05
4.00455e-05
4.00442e-05
4.00434e-05
4.00429e-05
4.00425e-05
4.00424e-05
4.00423e-05
4.00425e-05
4.00427e-05
4.00434e-05
4.00446e-05
4.00462e-05
4.00483e-05
4.0051e-05
4.00544e-05
4.00586e-05
4.0064e-05
4.00705e-05
4.00785e-05
4.00889e-05
4.01012e-05
4.01167e-05
4.01421e-05
4.01323e-05
4.02293e-05
4.0333e-05
3.94588e-05
4.15133e-05
4.41214e-05
2.54539e-05
6.11827e-06
1.38594e-06
0
0
0.00139732
4.00512e-05
4.00491e-05
4.00451e-05
4.00402e-05
4.00385e-05
4.00386e-05
4.00392e-05
4.00399e-05
4.00407e-05
4.00417e-05
4.00427e-05
4.00439e-05
4.00455e-05
4.00474e-05
4.00494e-05
4.00515e-05
4.00536e-05
4.00559e-05
4.00583e-05
4.00607e-05
4.00631e-05
4.00654e-05
4.00674e-05
4.00692e-05
4.00706e-05
4.00716e-05
4.0072e-05
4.00721e-05
4.00729e-05
4.00744e-05
4.00769e-05
4.00803e-05
4.00848e-05
4.00908e-05
4.00982e-05
4.01084e-05
4.01201e-05
4.01403e-05
4.01665e-05
4.00517e-05
4.00503e-05
4.00483e-05
4.00469e-05
4.00455e-05
4.00442e-05
4.00434e-05
4.00429e-05
4.00425e-05
4.00422e-05
4.00421e-05
4.0042e-05
4.00422e-05
4.00423e-05
4.0043e-05
4.00444e-05
4.0046e-05
4.0048e-05
4.00507e-05
4.00542e-05
4.00586e-05
4.0064e-05
4.00706e-05
4.00792e-05
4.00903e-05
4.01029e-05
4.01251e-05
4.0137e-05
4.01436e-05
4.03289e-05
4.00221e-05
3.9796e-05
4.2907e-05
4.07317e-05
2.47047e-05
6.68556e-06
5.29747e-06
0
0.00154512
4.00513e-05
4.00493e-05
4.00455e-05
4.00407e-05
4.0039e-05
4.00389e-05
4.00393e-05
4.00399e-05
4.00406e-05
4.00414e-05
4.00423e-05
4.00431e-05
4.00443e-05
4.00459e-05
4.00477e-05
4.00497e-05
4.00518e-05
4.00538e-05
4.0056e-05
4.00581e-05
4.00603e-05
4.00625e-05
4.00645e-05
4.00664e-05
4.0068e-05
4.00693e-05
4.00701e-05
4.00702e-05
4.00706e-05
4.00716e-05
4.00734e-05
4.00761e-05
4.00798e-05
4.00848e-05
4.0091e-05
4.00999e-05
4.011e-05
4.01284e-05
4.01512e-05
4.00517e-05
4.005e-05
4.00481e-05
4.00468e-05
4.00455e-05
4.00444e-05
4.00436e-05
4.0043e-05
4.00426e-05
4.00423e-05
4.00422e-05
4.0042e-05
4.00419e-05
4.0042e-05
4.00422e-05
4.0043e-05
4.00442e-05
4.00458e-05
4.0048e-05
4.00509e-05
4.00545e-05
4.00589e-05
4.00642e-05
4.00712e-05
4.00805e-05
4.00916e-05
4.01082e-05
4.01301e-05
4.01259e-05
4.02156e-05
4.02817e-05
3.98068e-05
4.0664e-05
4.26904e-05
3.8643e-05
3.10369e-05
2.41936e-05
8.74054e-07
0.00161516
4.00514e-05
4.00497e-05
4.0046e-05
4.00415e-05
4.00397e-05
4.00394e-05
4.00397e-05
4.00401e-05
4.00407e-05
4.00413e-05
4.00421e-05
4.00429e-05
4.00436e-05
4.00449e-05
4.00466e-05
4.00485e-05
4.00503e-05
4.00521e-05
4.0054e-05
4.00559e-05
4.00579e-05
4.006e-05
4.00621e-05
4.0064e-05
4.00657e-05
4.00671e-05
4.00681e-05
4.00685e-05
4.00687e-05
4.00693e-05
4.00706e-05
4.00727e-05
4.00758e-05
4.00799e-05
4.00851e-05
4.00928e-05
4.01014e-05
4.01179e-05
4.01373e-05
4.00518e-05
4.00498e-05
4.00478e-05
4.00467e-05
4.00455e-05
4.00445e-05
4.00438e-05
4.00432e-05
4.00428e-05
4.00426e-05
4.00424e-05
4.00423e-05
4.00421e-05
4.0042e-05
4.00418e-05
4.00422e-05
4.00432e-05
4.00445e-05
4.0046e-05
4.00482e-05
4.00511e-05
4.00546e-05
4.00588e-05
4.00643e-05
4.00718e-05
4.00816e-05
4.00947e-05
4.01152e-05
4.01226e-05
4.0153e-05
4.02713e-05
4.00736e-05
4.00651e-05
4.13502e-05
4.06135e-05
4.13499e-05
4.40422e-05
1.6618e-06
0.00154327
4.00518e-05
4.00502e-05
4.00468e-05
4.00424e-05
4.00405e-05
4.00401e-05
4.00402e-05
4.00405e-05
4.0041e-05
4.00415e-05
4.00421e-05
4.00429e-05
4.00434e-05
4.00444e-05
4.00458e-05
4.00474e-05
4.00491e-05
4.00507e-05
4.00523e-05
4.0054e-05
4.00559e-05
4.00579e-05
4.00599e-05
4.00618e-05
4.00634e-05
4.00647e-05
4.00656e-05
4.00662e-05
4.00663e-05
4.00668e-05
4.00678e-05
4.00697e-05
4.00724e-05
4.00759e-05
4.00805e-05
4.00872e-05
4.00946e-05
4.01093e-05
4.01252e-05
4.0052e-05
4.00497e-05
4.00477e-05
4.00466e-05
4.00456e-05
4.00446e-05
4.0044e-05
4.00435e-05
4.00432e-05
4.0043e-05
4.00429e-05
4.00428e-05
4.00425e-05
4.00423e-05
4.00422e-05
4.00421e-05
4.00425e-05
4.00431e-05
4.00443e-05
4.00461e-05
4.00486e-05
4.00515e-05
4.00549e-05
4.00591e-05
4.00649e-05
4.00729e-05
4.00842e-05
4.01004e-05
4.01132e-05
4.0134e-05
4.02073e-05
4.01436e-05
4.0208e-05
4.05878e-05
3.93418e-05
4.22567e-05
5.15536e-05
2.03079e-06
0.00129508
4.00523e-05
4.0051e-05
4.00477e-05
4.00436e-05
4.00416e-05
4.0041e-05
4.0041e-05
4.00412e-05
4.00415e-05
4.00419e-05
4.00424e-05
4.0043e-05
4.00436e-05
4.00442e-05
4.00453e-05
4.00466e-05
4.00481e-05
4.00496e-05
4.00511e-05
4.00526e-05
4.00543e-05
4.00561e-05
4.00579e-05
4.00595e-05
4.00609e-05
4.00621e-05
4.00629e-05
4.00635e-05
4.00637e-05
4.00641e-05
4.00651e-05
4.00668e-05
4.00692e-05
4.00724e-05
4.00766e-05
4.00826e-05
4.00892e-05
4.01026e-05
4.01154e-05
4.00524e-05
4.00499e-05
4.00478e-05
4.00468e-05
4.00459e-05
4.0045e-05
4.00445e-05
4.00441e-05
4.00438e-05
4.00436e-05
4.00435e-05
4.00434e-05
4.00432e-05
4.00428e-05
4.00427e-05
4.00422e-05
4.00422e-05
4.00428e-05
4.0044e-05
4.00457e-05
4.00479e-05
4.00504e-05
4.00529e-05
4.0056e-05
4.00602e-05
4.00663e-05
4.00759e-05
4.00887e-05
4.01005e-05
4.01246e-05
4.01714e-05
4.01005e-05
4.0356e-05
4.04436e-05
3.84527e-05
4.31115e-05
5.00255e-05
2.05633e-06
0.00086532
4.00529e-05
4.00518e-05
4.00487e-05
4.00448e-05
4.00427e-05
4.00421e-05
4.00419e-05
4.00419e-05
4.00421e-05
4.00424e-05
4.00428e-05
4.00432e-05
4.0044e-05
4.00442e-05
4.0045e-05
4.00461e-05
4.00475e-05
4.00488e-05
4.00502e-05
4.00516e-05
4.0053e-05
4.00544e-05
4.00559e-05
4.00573e-05
4.00586e-05
4.00598e-05
4.00607e-05
4.00613e-05
4.00616e-05
4.00621e-05
4.0063e-05
4.00644e-05
4.00664e-05
4.00693e-05
4.0073e-05
4.00785e-05
4.00844e-05
4.00967e-05
4.01072e-05
4.0053e-05
4.00503e-05
4.00483e-05
4.00474e-05
4.00465e-05
4.00457e-05
4.00452e-05
4.00447e-05
4.00444e-05
4.00443e-05
4.00442e-05
4.00441e-05
4.00439e-05
4.00436e-05
4.00433e-05
4.00426e-05
4.00427e-05
4.00433e-05
4.00441e-05
4.00451e-05
4.00467e-05
4.00484e-05
4.00503e-05
4.00525e-05
4.00556e-05
4.006e-05
4.0068e-05
4.00787e-05
4.00879e-05
4.01138e-05
4.01532e-05
4.00524e-05
4.03925e-05
4.04494e-05
3.81859e-05
4.43289e-05
4.61838e-05
1.98007e-06
0.000293873
4.00536e-05
4.00526e-05
4.00496e-05
4.00459e-05
4.00439e-05
4.00431e-05
4.00428e-05
4.00428e-05
4.00429e-05
4.00431e-05
4.00433e-05
4.00437e-05
4.00443e-05
4.00444e-05
4.0045e-05
4.0046e-05
4.00471e-05
4.00484e-05
4.00496e-05
4.00507e-05
4.00518e-05
4.0053e-05
4.00543e-05
4.00556e-05
4.00569e-05
4.00581e-05
4.0059e-05
4.00597e-05
4.00601e-05
4.00605e-05
4.00611e-05
4.00623e-05
4.00641e-05
4.00667e-05
4.007e-05
4.00749e-05
4.00802e-05
4.00916e-05
4.01002e-05
4.00536e-05
4.0051e-05
4.00491e-05
4.00483e-05
4.00474e-05
4.00466e-05
4.0046e-05
4.00455e-05
4.00452e-05
4.00451e-05
4.0045e-05
4.00449e-05
4.00447e-05
4.00444e-05
4.00439e-05
4.00436e-05
4.00432e-05
4.00433e-05
4.00436e-05
4.00443e-05
4.00456e-05
4.00471e-05
4.00486e-05
4.005e-05
4.00519e-05
4.00549e-05
4.00611e-05
4.00698e-05
4.00761e-05
4.01029e-05
4.0134e-05
4.00296e-05
4.03834e-05
4.04217e-05
3.81147e-05
4.47863e-05
4.50258e-05
2.01239e-06
0
4.00542e-05
4.00531e-05
4.00501e-05
4.00467e-05
4.00448e-05
4.0044e-05
4.00437e-05
4.00436e-05
4.00436e-05
4.00438e-05
4.00439e-05
4.00442e-05
4.00447e-05
4.0045e-05
4.00454e-05
4.0046e-05
4.0047e-05
4.00481e-05
4.0049e-05
4.005e-05
4.00509e-05
4.0052e-05
4.00532e-05
4.00545e-05
4.00556e-05
4.00566e-05
4.00573e-05
4.00578e-05
4.0058e-05
4.00582e-05
4.00588e-05
4.00599e-05
4.00616e-05
4.00641e-05
4.00673e-05
4.00719e-05
4.00768e-05
4.00873e-05
4.00944e-05
4.00541e-05
4.00517e-05
4.00501e-05
4.00493e-05
4.00485e-05
4.00476e-05
4.00469e-05
4.00464e-05
4.00461e-05
4.00459e-05
4.00458e-05
4.00457e-05
4.00455e-05
4.00452e-05
4.00448e-05
4.00444e-05
4.00437e-05
4.00435e-05
4.00438e-05
4.00446e-05
4.00459e-05
4.00474e-05
4.00487e-05
4.00495e-05
4.00505e-05
4.0052e-05
4.00563e-05
4.00629e-05
4.00664e-05
4.00934e-05
4.01137e-05
4.00192e-05
4.03678e-05
4.0369e-05
3.80673e-05
4.49098e-05
4.52411e-05
2.10702e-06
0
4.00545e-05
4.00532e-05
4.00502e-05
4.0047e-05
4.00452e-05
4.00445e-05
4.00442e-05
4.00441e-05
4.00442e-05
4.00443e-05
4.00445e-05
4.00447e-05
4.0045e-05
4.00458e-05
4.00457e-05
4.00461e-05
4.00469e-05
4.00478e-05
4.00487e-05
4.00496e-05
4.00505e-05
4.00514e-05
4.00524e-05
4.00533e-05
4.00541e-05
4.00548e-05
4.00552e-05
4.00554e-05
4.00554e-05
4.00555e-05
4.00561e-05
4.00572e-05
4.00589e-05
4.00614e-05
4.00646e-05
4.0069e-05
4.00737e-05
4.00838e-05
4.00898e-05
4.00542e-05
4.00523e-05
4.0051e-05
4.00503e-05
4.00495e-05
4.00486e-05
4.00479e-05
4.00474e-05
4.00471e-05
4.00469e-05
4.00467e-05
4.00466e-05
4.00464e-05
4.00461e-05
4.00457e-05
4.00452e-05
4.00445e-05
4.00443e-05
4.00447e-05
4.00453e-05
4.00462e-05
4.00472e-05
4.00481e-05
4.00486e-05
4.0049e-05
4.00496e-05
4.00524e-05
4.00572e-05
4.00584e-05
4.00843e-05
4.00969e-05
4.0006e-05
4.03585e-05
4.03266e-05
3.80161e-05
4.49379e-05
4.53538e-05
2.19948e-06
0
4.00543e-05
4.00527e-05
4.00498e-05
4.00468e-05
4.00452e-05
4.00445e-05
4.00443e-05
4.00443e-05
4.00444e-05
4.00446e-05
4.00448e-05
4.00451e-05
4.00454e-05
4.0046e-05
4.00461e-05
4.00464e-05
4.00471e-05
4.00478e-05
4.00487e-05
4.00495e-05
4.00502e-05
4.0051e-05
4.00516e-05
4.00522e-05
4.00526e-05
4.00529e-05
4.00531e-05
4.00531e-05
4.0053e-05
4.00531e-05
4.00537e-05
4.00548e-05
4.00565e-05
4.00589e-05
4.0062e-05
4.00662e-05
4.00707e-05
4.00803e-05
4.00856e-05
4.00538e-05
4.00525e-05
4.00516e-05
4.00511e-05
4.00503e-05
4.00495e-05
4.0049e-05
4.00485e-05
4.00482e-05
4.0048e-05
4.00478e-05
4.00477e-05
4.00474e-05
4.00471e-05
4.00467e-05
4.00462e-05
4.00458e-05
4.00452e-05
4.00451e-05
4.00452e-05
4.00457e-05
4.00466e-05
4.00473e-05
4.00475e-05
4.00475e-05
4.00474e-05
4.00491e-05
4.00524e-05
4.00518e-05
4.00751e-05
4.00841e-05
3.99916e-05
4.03494e-05
4.0296e-05
3.79667e-05
4.49288e-05
4.53131e-05
2.28775e-06
0
4.00536e-05
4.00519e-05
4.0049e-05
4.00462e-05
4.00446e-05
4.0044e-05
4.00439e-05
4.0044e-05
4.00442e-05
4.00444e-05
4.00447e-05
4.00451e-05
4.00455e-05
4.00461e-05
4.00465e-05
4.00468e-05
4.00473e-05
4.0048e-05
4.00487e-05
4.00494e-05
4.00501e-05
4.00505e-05
4.00509e-05
4.00512e-05
4.00513e-05
4.00514e-05
4.00514e-05
4.00513e-05
4.00512e-05
4.00513e-05
4.00519e-05
4.00529e-05
4.00546e-05
4.00569e-05
4.00597e-05
4.00636e-05
4.00678e-05
4.00768e-05
4.00814e-05
4.00531e-05
4.00524e-05
4.00517e-05
4.00515e-05
4.00509e-05
4.00504e-05
4.005e-05
4.00496e-05
4.00494e-05
4.00492e-05
4.00491e-05
4.00489e-05
4.00486e-05
4.00483e-05
4.00479e-05
4.00474e-05
4.0047e-05
4.0046e-05
4.00456e-05
4.00458e-05
4.00463e-05
4.00472e-05
4.00478e-05
4.0048e-05
4.00477e-05
4.0047e-05
4.00475e-05
4.00496e-05
4.0047e-05
4.00663e-05
4.00765e-05
3.9979e-05
4.03297e-05
4.0273e-05
3.79419e-05
4.49181e-05
4.52307e-05
2.37532e-06
0
4.00526e-05
4.00509e-05
4.00482e-05
4.00453e-05
4.00438e-05
4.00432e-05
4.00431e-05
4.00432e-05
4.00435e-05
4.00439e-05
4.00443e-05
4.00448e-05
4.00453e-05
4.00459e-05
4.00467e-05
4.0047e-05
4.00474e-05
4.0048e-05
4.00487e-05
4.00494e-05
4.00499e-05
4.00503e-05
4.00504e-05
4.00504e-05
4.00504e-05
4.00503e-05
4.00502e-05
4.005e-05
4.00498e-05
4.00499e-05
4.00504e-05
4.00514e-05
4.00529e-05
4.00551e-05
4.00577e-05
4.00613e-05
4.00652e-05
4.00736e-05
4.00774e-05
4.00522e-05
4.00518e-05
4.00514e-05
4.00515e-05
4.00513e-05
4.0051e-05
4.00509e-05
4.00507e-05
4.00506e-05
4.00505e-05
4.00504e-05
4.00502e-05
4.005e-05
4.00497e-05
4.00493e-05
4.00488e-05
4.00482e-05
4.00472e-05
4.00469e-05
4.00471e-05
4.00475e-05
4.0048e-05
4.00483e-05
4.00481e-05
4.00477e-05
4.00469e-05
4.00468e-05
4.00483e-05
4.00444e-05
4.00587e-05
4.00746e-05
3.99651e-05
4.03043e-05
4.02523e-05
3.79722e-05
4.4898e-05
4.5091e-05
2.46224e-06
0
4.00516e-05
4.00502e-05
4.00476e-05
4.00447e-05
4.0043e-05
4.00423e-05
4.00421e-05
4.00422e-05
4.00425e-05
4.0043e-05
4.00435e-05
4.00441e-05
4.00447e-05
4.00455e-05
4.00462e-05
4.0047e-05
4.00475e-05
4.00481e-05
4.00487e-05
4.00493e-05
4.00498e-05
4.005e-05
4.005e-05
4.00499e-05
4.00498e-05
4.00496e-05
4.00492e-05
4.00489e-05
4.00485e-05
4.00484e-05
4.00488e-05
4.00496e-05
4.00511e-05
4.00532e-05
4.00557e-05
4.00591e-05
4.00628e-05
4.00706e-05
4.00739e-05
4.00513e-05
4.00511e-05
4.00509e-05
4.00513e-05
4.00514e-05
4.00515e-05
4.00516e-05
4.00516e-05
4.00517e-05
4.00518e-05
4.00518e-05
4.00517e-05
4.00515e-05
4.00512e-05
4.00508e-05
4.00504e-05
4.00497e-05
4.00492e-05
4.00483e-05
4.0048e-05
4.0048e-05
4.00482e-05
4.00481e-05
4.00477e-05
4.00472e-05
4.00466e-05
4.00463e-05
4.00478e-05
4.00434e-05
4.00531e-05
4.0075e-05
3.99558e-05
4.02652e-05
4.02703e-05
3.80213e-05
4.47985e-05
4.49056e-05
2.54816e-06
0
4.0051e-05
4.005e-05
4.00476e-05
4.00446e-05
4.00426e-05
4.00416e-05
4.00412e-05
4.00412e-05
4.00414e-05
4.00419e-05
4.00424e-05
4.00431e-05
4.00439e-05
4.00447e-05
4.00455e-05
4.00465e-05
4.00473e-05
4.00479e-05
4.00485e-05
4.0049e-05
4.00495e-05
4.00497e-05
4.00497e-05
4.00496e-05
4.00493e-05
4.00488e-05
4.00482e-05
4.00476e-05
4.0047e-05
4.00468e-05
4.0047e-05
4.00478e-05
4.00492e-05
4.00511e-05
4.00536e-05
4.00569e-05
4.00605e-05
4.00679e-05
4.00707e-05
4.00507e-05
4.00504e-05
4.00504e-05
4.0051e-05
4.00514e-05
4.00517e-05
4.00521e-05
4.00524e-05
4.00527e-05
4.00529e-05
4.00531e-05
4.00531e-05
4.0053e-05
4.00528e-05
4.00525e-05
4.0052e-05
4.00515e-05
4.00509e-05
4.00497e-05
4.00491e-05
4.0049e-05
4.00491e-05
4.0049e-05
4.00484e-05
4.00477e-05
4.0047e-05
4.00465e-05
4.0048e-05
4.00438e-05
4.00495e-05