/*--------------------------------*- C++ -*----------------------------------*\
| =========                 |                                                 |
| \\      /  F ield         | OpenFOAM: The Open Source CFD Toolbox           |
|  \\    /   O peration     | Version:  2506                                  |
|   \\  /    A nd           | Website:  www.openfoam.com                      |
|    \\/     M anipulation  |                                                 |
\*---------------------------------------------------------------------------*/
FoamFile
{
    version     2.0;
    format      ascii;
    arch        "LSB;label=32;scalar=64";
    class       volScalarField;
    location    "50";
    object      p;
}
// * * * * * * * * * * * * * * * * * * * * * * * * * * * * * * * * * * * * * //

dimensions      [0 2 -2 0 0 0 0];

internalField   nonuniform List<scalar> 
10720
(
170.018
121.142
61.718
-1.22259
-64.4788
-131.26
-194.475
-251.784
-304.405
-349.357
-387.281
-418.598
-443.329
-461.631
-474.026
-480.373
-481.136
-474.938
-462.188
-442.027
-416.858
-391.519
-374.914
-365.959
-354.352
-335.303
-310.378
-281.206
-250.266
-222.212
-197.135
-173.2
-155.735
-152.109
-151.54
-129.359
-83.1985
-34.3272
-0.869908
214.863
254.074
291.006
319.976
336.148
340.595
335.457
318.226
291.902
261.494
230.761
202.118
176.234
153.465
133.874
116.264
100.344
85.4111
71.0505
56.54
41.807
26.5047
10.8558
-4.52037
-17.3362
-26.5336
-33.6016
-38.9674
-42.5934
-44.5547
-44.8242
-43.4279
-40.2721
-35.2303
-28.2996
-18.9573
-6.40688
13.591
47.3236
200.596
163.897
120.761
72.588
20.8844
-34.019
-89.5152
-143.7
-195.59
-243.502
-286.698
-324.659
-356.994
-383.624
-404.394
-418.853
-426.749
-427.768
-422.304
-410.235
-393.608
-376.758
-366.935
-362.672
-353.315
-334.527
-309.814
-280.86
-250.038
-222.077
-197.096
-173.136
-155.482
-151.77
-151.415
-129.476
-83.4059
-34.4418
-1.4234
232.206
260.863
287.364
309.373
323.273
328.384
324.288
310.832
290.413
265.867
239.656
213.687
189.017
166.288
145.772
127.038
109.839
93.7412
78.353
63.1294
47.8901
32.3879
16.7916
1.71028
-11.0713
-20.5858
-27.9385
-33.805
-38.2301
-41.0162
-41.96
-41.0899
-38.3614
-33.6814
-27.0506
-17.9453
-5.59335
14.3298
46.5903
198.131
165.579
127.121
83.1821
35.6208
-15.2226
-67.9081
-120.391
-171.246
-219.245
-263.088
-302.095
-335.762
-363.682
-385.309
-400.557
-409.585
-412.211
-408.594
-398.964
-384.873
-369.613
-358.797
-353.351
-345.441
-329.377
-306.765
-279.155
-249.201
-221.626
-196.852
-172.944
-155.108
-151.347
-151.329
-129.71
-83.752
-34.687
-1.62904
226.107
251.443
274.606
293.7
306.102
311.516
309.274
299.186
282.734
261.736
238.208
213.984
190.313
167.981
147.413
128.538
111.132
94.8665
79.3755
64.2099
49.1205
33.9152
18.7069
4.01761
-8.75276
-18.6469
-26.3269
-32.365
-36.8044
-39.5147
-40.4004
-39.5534
-36.9493
-32.4696
-26.0618
-17.1659
-4.98672
14.736
45.5281
194.636
167.127
134.439
97.1691
56.6322
12.69
-33.3678
-80.1036
-126.409
-171.119
-213.113
-251.592
-285.868
-315.384
-339.589
-358.219
-371.309
-378.487
-379.711
-375.252
-366.339
-355.528
-346.743
-341.17
-333.862
-320.228
-300.436
-275.289
-247.135
-220.519
-196.164
-172.449
-154.694
-151.113
-151.409
-130.031
-84.1884
-35.0469
-1.89896
218.29
239.687
259.53
276.207
287.54
293.216
292.47
285.091
272.114
254.847
234.858
213.653
192.307
171.577
151.944
133.524
116.225
99.8629
84.1809
68.8557
53.6646
38.4665
23.3479
8.76912
-4.12485
-14.4163
-22.4797
-28.8499
-33.627
-36.7255
-38.0366
-37.6029
-35.3805
-31.2447
-25.1297
-16.469
-4.48155
14.9694
44.3673
186.346
162.045
133.054
99.8963
63.8072
24.3322
-17.4659
-60.3675
-103.552
-145.947
-186.511
-224.422
-258.894
-289.251
-314.88
-335.37
-350.3
-359.496
-362.8
-360.585
-353.927
-344.998
-336.961
-331.009
-323.546
-310.723
-292.535
-269.631
-243.645
-218.457
-194.886
-171.628
-154.244
-151.079
-151.633
-130.408
-84.6988
-35.5883
-2.34871
207.275
226.123
243.74
258.711
269.253
275.118
275.541
270.308
260.131
245.943
228.942
210.352
191.077
171.83
153.132
135.228
118.162
101.869
86.1922
70.9066
55.8186
40.8131
25.9558
11.6424
-1.1974
-11.7173
-20.0654
-26.6849
-31.677
-34.9617
-36.4236
-36.1188
-34.0339
-30.0654
-24.136
-15.6634
-3.87394
15.2381
43.1783
177.088
155.534
129.764
100.329
68.3786
33.2558
-4.09349
-42.686
-81.938
-120.922
-158.766
-194.729
-228.032
-257.967
-283.909
-305.323
-321.768
-333.112
-339.241
-340.383
-337.343
-331.751
-325.913
-320.816
-313.823
-301.762
-284.644
-263.383
-239.314
-215.589
-193.011
-170.521
-153.757
-151.105
-151.835
-130.724
-85.215
-36.2636
-2.87464
195.702
212.448
228.27
241.906
251.823
257.802
259.102
255.519
247.576
235.963
221.623
205.549
188.476
171.02
153.679
136.738
120.319
104.441
89.0278
73.9364
59.0265
44.2192
29.5822
15.4704
2.66454
-8.06353
-16.6923
-23.5641
-28.784
-32.2963
-34.0072
-33.9754
-32.1953
-28.5534
-22.9422
-14.7563
-3.24349
15.4562
41.9153
167.2
147.79
124.555
98.0339
69.3469
37.7073
3.94333
-31.0993
-67.0347
-103.063
-138.459
-172.583
-204.691
-234.094
-260.16
-282.302
-300.045
-313.035
-321.089
-324.336
-323.477
-319.868
-315.314
-310.703
-304.167
-293.052
-277.132
-257.303
-234.836
-212.387
-190.798
-169.266
-153.255
-151.028
-151.795
-130.809
-85.6348
-37.0074
-3.38464
184.006
199.113
213.522
226.091
235.487
241.513
243.472
241.167
234.998
225.499
213.416
199.562
184.521
168.802
152.855
136.963
121.292
105.927
90.8618
76.0292
61.349
46.784
32.4108
18.5455
5.84385
-5.00098
-13.8494
-20.9457
-26.3882
-30.1352
-32.0965
-32.3145
-30.7832
-27.3878
-22.0066
-14.0284
-2.73699
15.5462
40.574
157.355
139.726
118.621
94.5725
68.6701
40.0548
9.48191
-22.3098
-55.0737
-88.1397
-120.897
-152.823
-183.257
-211.557
-237.106
-259.317
-277.652
-291.747
-301.437
-306.768
-308.237
-306.841
-303.89
-300.113
-294.265
-284.255
-269.712
-251.387
-230.441
-209.17
-188.502
-167.977
-152.716
-150.635
-151.241
-130.468
-85.8625
-37.7198
-3.78412
172.659
186.421
199.661
211.348
220.285
226.306
228.754
227.438
222.68
214.906
204.728
192.819
179.642
165.613
151.114
136.4
121.65
106.986
92.4499
78.0306
63.7009
49.4623
35.4022
21.8075
9.24326
-1.66641
-10.7035
-18.0151
-23.6805
-27.6621
-29.8696
-30.335
-29.0583
-25.9256
-20.801
-13.0708
-2.05521
15.717
39.3199
147.766
131.626
112.303
90.3261
66.7645
40.7164
12.8707
-16.1081
-46.0776
-76.4616
-106.761
-136.563
-165.287
-192.36
-217.21
-239.256
-257.957
-272.896
-283.84
-290.726
-293.904
-294.155
-292.479
-289.479
-284.325
-275.379
-262.205
-245.417
-226.008
-205.943
-186.215
-166.633
-151.997
-149.665
-149.834
-129.45
-85.7738
-38.3358
-3.98115
161.819
174.462
186.722
197.655
206.184
212.154
214.965
214.42
210.788
204.424
195.84
185.604
174.09
161.628
148.536
135.024
121.265
107.394
93.4806
79.5589
65.6462
51.7798
38.0589
24.7513
12.3519
1.4248
-7.76172
-15.2666
-21.1424
-25.3497
-27.7984
-28.5059
-27.473
-24.5861
-19.6994
-12.2039
-1.46454
15.7684
38.0373
138.585
123.717
105.92
85.7182
64.1615
40.3379
14.8784
-11.6174
-39.0761
-66.9985
-94.9683
-122.664
-149.588
-175.254
-199.141
-220.696
-239.395
-254.791
-266.634
-274.811
-279.513
-281.299
-280.894
-278.771
-274.386
-266.482
-254.619
-239.306
-221.398
-202.544
-183.826
-165.161
-150.928
-147.917
-147.287
-127.457
-85.2131
-38.7233
-3.88135
151.569
163.26
174.675
184.967
193.115
199.001
202.076
202.131
199.401
194.193
186.941
178.137
168.086
157.054
145.298
132.985
120.264
107.265
94.0711
80.7446
67.3357
53.9077
40.5744
27.5872
15.3927
4.50414
-4.77884
-12.4422
-18.5037
-22.9197
-25.5966
-26.5379
-25.7442
-23.1048
-18.4649
-11.2274
-0.803801
15.812
36.7767
129.87
116.097
99.6236
80.9566
61.1252
39.2291
15.856
-8.45018
-33.6683
-59.3695
-85.2096
-110.921
-136.086
-160.296
-183.101
-203.996
-222.478
-238.104
-250.567
-259.721
-265.619
-268.653
-269.354
-268.082
-264.479
-257.584
-246.97
-233.04
-216.551
-198.874
-181.157
-163.465
-149.478
-145.415
-143.597
-124.336
-83.9838
-38.7802
-3.43813
141.931
152.798
163.481
173.202
181.004
186.78
190.04
190.559
188.554
184.297
178.16
170.575
161.802
152.053
141.538
130.381
118.7
106.61
94.195
81.5306
68.6881
55.7515
42.843
30.2039
18.2474
7.44504
-1.88801
-9.67758
-15.9054
-20.5182
-23.4182
-24.5934
-24.0405
-21.6495
-17.2603
-10.2928
-0.20607
15.7518
35.4581
121.643
108.831
93.5159
76.194
57.8691
37.6558
16.1096
-6.25614
-29.4638
-53.1361
-77.0202
-100.883
-124.349
-147.092
-168.729
-188.812
-206.875
-222.488
-235.31
-245.183
-252.045
-256.144
-257.843
-257.401
-254.582
-248.654
-239.222
-226.588
-211.432
-194.906
-178.131
-161.41
-147.711
-142.407
-139.11
-120.289
-82.0414
-38.3913
-2.70217
132.898
143.045
153.08
162.29
169.765
175.419
178.799
179.681
178.254
174.779
169.579
163.035
155.369
146.76
137.38
127.315
116.653
105.485
93.8885
81.94
69.7215
57.3292
44.8881
32.6331
20.9521
10.2853
0.952172
-6.92498
-13.2927
-18.0839
-21.1958
-22.5995
-22.286
-20.1458
-16.0148
-9.3346
0.386888
15.6376
34.1003
113.908
101.942
87.6525
71.5188
54.5203
35.7931
15.8649
-4.78472
-26.2057
-48.0463
-70.1102
-92.2639
-114.134
-135.444
-155.885
-175.068
-192.573
-207.994
-220.969
-231.326
-238.922
-243.882
-246.44
-246.77
-244.705
-239.688
-231.364
-219.953
-206.054
-190.657
-174.787
-158.97
-145.663
-139.199
-134.298
-115.771
-79.5581
-37.625
-1.86018
124.446
133.959
143.413
152.155
159.323
164.843
168.3
169.458
168.498
165.663
161.249
155.594
148.89
141.287
132.931
123.88
114.193
103.939
93.178
81.9791
70.4265
58.6189
46.6832
34.8458
23.4759
12.9883
3.70199
-4.22499
-10.7058
-15.6569
-18.9692
-20.5971
-20.5221
-18.6342
-14.7665
-8.38726
0.949174
15.4619
32.7079
106.649
95.4386
82.0632
66.9892
51.1697
33.7635
15.2736
-3.844
-23.659
-43.8663
-64.2629
-84.8033
-105.185
-125.127
-144.377
-162.608
-179.449
-194.527
-207.478
-218.113
-226.245
-231.894
-235.186
-236.221
-234.872
-230.711
-223.426
-213.17
-200.463
-186.159
-171.191
-156.214
-143.339
-135.94
-129.529
-111.171
-76.8062
-36.5989
-1.14002
116.545
125.488
134.42
142.733
149.608
154.985
158.479
159.854
159.27
156.961
153.203
148.308
142.438
135.721
128.282
120.161
111.393
102.026
92.0994
81.6683
70.8103
59.6217
48.2257
36.8389
25.8151
15.5498
6.35705
-1.57914
-8.14199
-13.23
-16.7272
-18.571
-18.7312
-17.0968
-13.4983
-7.43461
1.49462
15.2397
31.3009
99.8454
89.3143
76.7619
62.6401
47.8757
31.6513
14.4506
-3.29576
-21.669
-40.3894
-59.288
-78.3211
-97.2964
-115.954
-134.048
-151.307
-167.415
-182.036
-194.823
-205.565
-214.056
-220.233
-224.135
-225.801
-225.122
-221.764
-215.454
-206.294
-194.722
-181.475
-167.414
-153.246
-140.776
-132.624
-124.934
-106.703
-73.9586
-35.4609
-0.656809
109.162
117.59
126.044
133.96
140.557
145.785
149.286
150.822
150.544
148.671
145.463
141.214
136.069
130.133
123.512
116.236
108.323
99.8009
90.6899
81.0285
70.8813
60.3369
49.5093
38.603
27.9579
17.955
8.8997
0.994853
-5.61803
-10.8186
-14.4837
-16.5337
-16.9256
-15.5455
-12.222
-6.48897
2.01347
14.9683
29.878
93.4722
83.5582
71.7513
58.4923
44.6779
29.5186
13.4786
-3.03251
-20.1043
-37.479
-55.0186
-72.6777
-90.3076
-107.75
-124.743
-141.039
-156.374
-170.456
-182.964
-193.668
-202.366
-208.926
-213.322
-215.54
-215.477
-212.866
-207.47
-199.347
-188.859
-176.64
-163.486
-150.106
-138.016
-129.24
-120.496
-102.373
-71.0579
-34.215
-0.403658
102.263
110.221
118.236
125.782
132.113
137.188
140.672
142.328
142.297
140.787
138.04
134.339
129.823
124.575
118.684
112.169
105.043
97.3158
88.9908
80.088
70.6557
60.7697
50.5317
40.1321
29.897
20.1931
11.317
3.48321
-3.14596
-8.43295
-12.246
-14.4902
-15.1078
-13.9823
-10.9392
-5.55043
2.5052
14.6501
28.4375
87.5052
78.1543
67.0277
54.555
41.6014
27.4077
12.4178
-2.97563
-18.8684
-35.0236
-51.3173
-67.7326
-84.1105
-100.376
-116.325
-131.688
-146.238
-159.726
-171.865
-182.415
-191.188
-198.002
-202.78
-205.468
-205.96
-204.037
-199.491
-192.345
-182.891
-171.673
-159.415
-146.798
-135.082
-125.804
-116.175
-98.1233
-68.0554
-32.858
-0.310711
95.8139
103.342
110.95
118.15
124.226
129.144
132.592
134.335
134.502
133.295
130.938
127.702
123.729
119.087
113.847
108.019
101.61
94.6226
87.0449
78.8783
70.154
60.9312
51.297
41.4245
31.6262
22.2547
13.5972
5.87323
-0.737796
-6.08348
-10.0225
-12.4463
-13.2815
-12.4092
-9.65184
-4.62049
2.97087
14.293
26.9827
81.9193
73.0853
62.5843
50.8303
38.663
25.3479
11.3141
-3.06444
-17.885
-32.9286
-48.086
-63.353
-78.5946
-93.7401
-108.682
-123.147
-136.918
-149.78
-161.483
-171.788
-180.523
-187.477
-192.534
-195.608
-196.591
-195.294
-191.529
-185.294
-176.821
-166.568
-155.178
-143.296
-131.967
-122.307
-111.921
-93.8784
-64.9452
-31.3757
-0.291308
89.783
96.9128
104.145
111.02
116.85
121.61
125.007
126.808
127.135
126.18
124.155
121.318
117.811
113.701
109.04
103.83
98.0728
91.7679
84.8922
77.4312
69.3982
60.835
51.8112
42.4808
33.1412
24.1316
15.7277
8.15065
1.59135
-3.78416
-7.82632
-10.4127
-11.4565
-10.8345
-8.36729
-3.70351
3.40672
13.8971
25.5152
76.6896
68.3331
58.4085
47.3178
35.87
23.3604
10.2002
-3.25112
-17.0946
-31.123
-45.2407
-59.4527
-73.6505
-87.7528
-101.713
-115.319
-128.33
-140.554
-151.775
-161.768
-170.37
-177.365
-182.607
-185.988
-187.393
-186.655
-183.605
-178.215
-170.662
-161.326
-150.77
-139.592
-128.653
-118.7
-107.652
-89.5963
-61.7582
-29.8649
-0.220812
84.141
90.9018
97.7842
104.35
109.943
114.547
117.879
119.716
120.17
119.426
117.685
115.188
112.084
108.439
104.294
99.6394
94.4737
88.7941
82.5716
75.7795
68.4133
60.4975
52.0826
43.3044
34.4416
25.8192
17.7006
10.3055
3.83127
-1.54474
-5.66516
-8.39535
-9.63565
-9.2593
-7.08531
-2.79926
3.81586
13.4719
24.0436
71.7934
63.8805
54.4898
44.0116
33.2274
21.458
9.10044
-3.50227
-16.4503
-29.5496
-42.7127
-55.9557
-69.1816
-82.3312
-95.3482
-108.12
-120.397
-131.986
-142.698
-152.327
-160.722
-167.672
-173.015
-176.624
-178.383
-178.14
-175.735
-171.122
-164.427
-155.955
-146.193
-135.683
-125.116
-114.928
-103.316
-85.2883
-58.604
-28.3704
-0.0200801
78.861
85.2785
91.8327
98.1059
103.47
107.916
111.177
113.031
113.585
113.018
111.519
109.32
106.561
103.321
99.6329
95.4786
90.8492
85.7398
80.1199
73.9544
67.2248
59.9382
52.1254
43.9021
35.528
27.3125
19.5071
12.3252
5.96809
0.620236
-3.55322
-6.40783
-7.83125
-7.69486
-5.81529
-1.91353
4.19377
13.0163
22.5689
67.2095
59.7093
50.8156
40.9065
30.7353
19.6497
8.03176
-3.78995
-15.9157
-28.1609
-40.448
-52.7983
-65.1267
-77.3944
-89.5313
-101.48
-113.049
-124.016
-134.205
-143.438
-151.567
-158.402
-163.772
-167.538
-169.584
-169.769
-167.941
-164.036
-158.133
-150.472
-141.463
-131.58
-121.351
-110.97
-98.918
-81.0329
-55.5836
-26.944
0.392517
73.919
80.015
86.2598
92.2545
97.3988
101.689
104.87
106.728
107.359
106.939
105.649
103.706
101.249
98.3582
95.0749
91.3716
87.229
82.6381
77.5704
71.9868
65.8593
59.1775
51.9543
44.2828
36.4041
28.6113
21.1425
14.2027
7.99308
2.70208
-1.49844
-4.45621
-6.04745
-6.14243
-4.55712
-1.04579
4.5449
12.5416
21.103
62.918
55.804
47.3738
37.9947
28.393
17.941
7.00732
-4.09421
-15.4603
-26.9197
-38.3996
-49.9268
-61.4261
-72.8677
-84.2008
-95.3532
-106.226
-116.587
-126.253
-135.067
-142.889
-149.553
-154.885
-158.741
-161.01
-161.559
-160.239
-156.972
-151.796
-144.891
-136.592
-127.289
-117.368
-106.858
-94.5305
-76.9247
-52.7387
-25.5006
1.05091
69.2917
75.0857
81.0376
86.7669
91.699
95.8351
98.9316
100.78
101.471
101.175
100.063
98.3468
96.1512
93.5643
90.636
87.3377
83.6363
79.5167
74.9524
69.9065
64.343
58.2374
51.5845
44.4568
37.075
29.7156
22.6017
15.9287
9.89376
4.68702
0.484425
-2.55503
-4.2985
-4.61501
-3.32209
-0.202834
4.86501
12.0471
19.648
58.9007
52.1486
44.153
35.2701
26.1968
16.3342
6.03555
-4.39839
-15.0639
-25.7961
-36.5307
-47.2968
-58.028
-68.702
-79.2857
-89.6936
-99.8785
-109.65
-118.801
-127.185
-134.671
-141.119
-146.359
-150.248
-152.678
-153.526
-152.647
-149.95
-145.437
-139.231
-131.594
-122.829
-113.204
-102.65
-90.2203
-73.004
-50.0127
-23.9127
1.94017
64.9576
70.4678
76.1419
81.6172
86.3449
90.3291
93.3372
95.1658
95.9015
95.7087
94.7517
93.2304
91.2688
88.9482
86.3298
83.3906
80.0885
76.3983
72.2935
67.7413
62.702
57.1403
51.0344
44.4374
37.5489
30.6284
23.8838
17.4983
11.6633
6.56717
2.38774
-0.711103
-2.58917
-3.11501
-2.11023
0.616022
5.15924
11.5448
18.2186
55.1396
48.7285
41.1417
32.7235
24.1443
14.8311
5.12277
-4.69207
-14.7064
-24.767
-34.8119
-44.8732
-54.8916
-64.8518
-74.7286
-84.4504
-93.9713
-103.161
-111.805
-119.756
-126.889
-133.088
-138.191
-142.061
-144.595
-145.684
-145.183
-142.988
-139.073
-133.507
-126.482
-118.219
-108.903
-98.4092
-86.0303
-69.2417
-47.3183
-22.0517
2.99288
60.8977
66.1392
71.5496
76.7826
81.3127
85.1469
88.0635
89.8649
90.633
90.5265
89.7022
88.3518
86.5973
84.512
82.1651
79.5431
76.6013
73.3025
69.6178
65.5169
60.9613
55.9083
50.3227
44.2383
37.8348
31.3532
24.9868
18.9057
13.2919
8.3298
4.19753
1.06091
-0.934544
-1.65675
-0.933806
1.40368
5.42285
11.033
16.8179
51.6181
45.5292
38.3274
30.3467
22.2301
13.4299
4.27315
-4.96469
-14.3756
-23.8116
-33.2167
-42.6242
-51.981
-61.2775
-70.4951
-79.5718
-88.4585
-97.0817
-105.23
-112.753
-119.525
-125.451
-130.378
-134.183
-136.772
-138.045
-137.862
-136.106
-132.724
-127.74
-121.279
-113.494
-104.509
-94.1656
-81.9368
-65.568
-44.5702
-19.9661
4.12134
57.0937
62.0809
67.24
72.2405
76.5797
80.2665
83.0904
84.8585
85.6485
85.6135
84.9041
83.7037
82.1312
80.2574
78.1491
75.8064
73.1861
70.2443
66.9437
63.2552
59.1434
54.5623
49.4672
43.8747
37.9436
31.8976
25.914
20.1497
14.7756
9.96969
5.90732
2.75491
0.660995
-0.242782
0.207284
2.16052
5.66169
10.5242
15.4615
48.3206
42.536
35.6984
28.1295
20.448
12.1295
3.48814
-5.21199
-14.0592
-22.9148
-31.7259
-40.5251
-49.2665
-57.945
-66.5443
-75.0218
-83.3099
-91.3725
-99.0409
-106.144
-112.554
-118.189
-122.914
-126.616
-129.215
-130.621
-130.698
-129.32
-126.408
-121.947
-116.008
-108.682
-100.05
-89.9239
-77.9047
-61.9234
-41.7527
-17.7158
5.21147
53.5291
58.2746
63.1937
67.9711
72.1259
75.6688
78.3982
80.1287
80.9319
80.9565
80.3462
79.2779
77.8668
76.1816
74.2845
72.186
69.853
67.236
64.2879
60.976
57.2694
53.1235
48.487
43.3618
37.8873
32.2687
26.668
21.228
16.1079
11.4767
7.50505
4.35749
2.18352
1.11321
1.30078
2.87931
5.8715
10.0171
14.1513
45.2324
39.7355
33.2426
26.064
18.7921
10.9258
2.76839
-5.42789
-13.7503
-22.064
-30.3212
-38.5553
-46.7238
-54.8249
-62.8488
-70.7553
-78.4898
-86.0121
-93.2088
-99.9009
-105.951
-111.286
-115.786
-119.356
-121.928
-123.423
-123.709
-122.65
-120.147
-116.155
-110.697
-103.814
-95.547
-85.6763
-73.8966
-58.2927
-38.9056
-15.4879
6.22918
50.1872
54.7034
59.3935
63.957
67.9336
71.3355
73.9706
75.6587
76.4683
76.5422
76.0187
75.0665
73.798
72.2823
70.572
68.6894
66.6112
64.2901
61.6628
58.6947
55.3571
51.6108
47.4005
42.7167
37.6798
32.477
27.255
22.1435
17.2882
12.8478
8.98622
5.86404
3.62918
2.40917
2.34738
3.56172
6.05922
9.52346
12.903
42.3393
37.1161
30.9505
24.1409
17.2555
9.81627
2.1135
-5.61185
-13.4413
-21.2496
-28.9909
-36.6975
-44.3316
-51.8947
-59.3781
-66.7515
-73.964
-80.9725
-87.7092
-93.9988
-99.6949
-104.725
-108.988
-112.402
-114.916
-116.46
-116.906
-116.111
-113.961
-110.386
-105.368
-98.9072
-91.01
-81.4212
-69.9117
-54.7058
-36.1082
-13.3856
7.17567
47.0532
51.3518
55.8233
60.1813
63.9858
67.2504
69.7906
71.4339
72.2436
72.3584
71.9101
71.0609
69.9211
68.5534
67.0168
65.3206
63.4696
61.4096
59.0776
56.4233
53.4231
50.0421
46.2255
41.955
37.3343
32.5324
27.6814
22.8974
18.3134
14.0764
10.3415
7.26279
4.98524
3.63251
3.33582
4.20155
6.22066
9.04089
11.7175
39.629
34.6682
28.8122
22.3532
15.8326
8.79514
1.52138
-5.76008
-13.1294
-20.4642
-27.7218
-34.9368
-42.0722
-49.1314
-56.1119
-62.9819
-69.7104
-76.2328
-82.5135
-88.4113
-93.763
-98.4899
-102.509
-105.753
-108.183
-109.741
-110.302
-109.721
-107.872
-104.664
-100.049
-93.989
-86.4587
-77.176
-65.9771
-51.2289
-33.4442
-11.5702
8.07106
44.1142
48.2055
52.4678
56.6285
60.2672
63.3974
65.8442
67.4395
68.2448
68.3931
68.011
67.2534
66.2265
64.9963
63.6081
62.0855
60.4271
58.6014
56.5365
54.1733
51.4824
48.4332
44.9773
41.0921
36.8645
32.4464
27.9557
23.4956
19.1861
15.1622
11.5685
8.55121
6.24933
4.7821
4.26793
4.80123
6.36378
8.58136
10.6093
37.0929
32.3793
26.8194
20.6916
14.5167
7.86022
0.990296
-5.87458
-12.8094
-19.7006
-26.5071
-33.2609
-39.9302
-46.5193
-53.0263
-59.4285
-65.6929
-71.7673
-77.6089
-83.1197
-88.1356
-92.5655
-96.3394
-99.4019
-101.727
-103.267
-103.905
-103.492
-101.896
-99.01
-94.7605
-89.0793
-81.9145
-72.9648
-62.1336
-47.9176
-30.9749
-10.0695
8.84788
41.3575
45.2512
49.3138
53.2851
56.7634
59.7632
62.1167
63.6631
64.4596
64.6353
64.3103
63.6345
62.7104
61.6003
60.3551
58.9824
57.4927
55.87
54.0448
51.9506
49.5427
46.796
43.6709
40.1428
36.2843
32.2307
28.0866
23.9429
19.9074
16.1024
12.6612
9.72019
7.41102
5.84698
5.13372
5.35553
6.48498
8.14231
9.57773
34.7175
30.2394
24.9607
19.1498
13.302
7.00492
0.517149
-5.95364
-12.4819
-18.9561
-25.338
-31.6611
-37.894
-44.0423
-50.1083
-56.0677
-61.8991
-67.5493
-72.9719
-78.1072
-82.796
-86.9378
-90.4693
-93.3436
-95.5458
-97.0413
-97.7206
-97.4368
-96.0517
-93.447
-89.53
-84.2077
-77.41
-68.8228
-58.4116
-44.815
-28.739
-8.94031
9.42143
38.7732
42.4779
46.349
50.1381
53.4616
56.3339
58.596
60.0917
60.8767
61.0741
60.7999
60.1966
59.3638
58.3622
57.2424
56.0088
54.6732
53.2224
51.6084
49.7557
47.6088
45.1416
42.3199
39.1207
35.6069
31.8974
28.0845
24.2479
20.4831
16.9002
13.6204
10.7693
8.4697
6.82755
5.93592
5.86793
6.59297
7.73549
8.63563
32.495
28.2395
23.2295
17.7187
12.182
6.22676
0.0995637
-6.00121
-12.1441
-18.2265
-24.2116
-30.1293
-35.9534
-41.6894
-47.3394
-52.8882
-58.3072
-63.5635
-68.5905
-73.3526
-77.7243
-81.5908
-84.8867
-87.5698
-89.6362
-91.0641
-91.7547
-91.5648
-90.3533
-87.9942
-84.3795
-79.3985
-72.9687
-64.773
-54.8334
-41.917
-26.7094
-8.10021
9.68099
36.3503
39.8744
43.5618
47.1755
50.3494
53.0983
55.2695
56.7147
57.4845
57.6992
57.4688
56.9307
56.1806
55.2763
54.2673
53.1663
51.9635
50.6651
49.2317
47.5947
45.6894
43.4802
40.9357
38.0386
34.8438
31.4572
27.9589
24.4177
20.9176
17.5565
14.4436
11.6932
9.41755
7.71481
6.66591
6.33381
6.68424
7.3574
7.77906
30.4141
26.3727
21.6168
16.3929
11.1514
5.51925
-0.265852
-6.0151
-11.7973
-17.5102
-23.1206
-28.6594
-34.0999
-39.4491
-44.7121
-49.8701
-54.9071
-59.7833
-64.4462
-68.8493
-72.911
-76.5105
-79.577
-82.0691
-83.991
-85.3343
-86.0119
-85.8869
-84.8177
-82.673
-79.3346
-74.6791
-68.6184
-60.84
-51.3881
-39.2106
-24.8541
-7.49945
9.61184
34.0787
37.4301
40.9415
44.3864
47.416
50.0444
52.1274
53.5201
54.2734
54.5011
54.3095
53.829
53.1516
52.3358
51.4273
50.439
49.3648
48.1991
46.9239
45.4764
43.7911
41.8174
39.5281
36.9068
34.0059
30.9205
27.7196
24.4612
21.2182
18.0767
15.1343
12.4934
10.2556
8.5102
7.32679
6.75629
6.7665
7.01748
7.01657
28.4666
24.6294
20.1171
15.1647
10.2042
4.8799
-0.58169
-6.00084
-11.4393
-16.8048
-22.0645
-27.2458
-32.3265
-37.3137
-42.2106
-47.0072
-51.6796
-56.2027
-60.5186
-64.5854
-68.346
-71.6843
-74.5272
-76.8309
-78.6046
-79.8516
-80.4973
-80.413
-79.4587
-77.5009
-74.4145
-70.0693
-64.3742
-57.0294
-48.0885
-36.6565
-23.112
-7.00806
9.2634
31.9492
35.1352
38.4779
41.7607
44.6507
47.1629
49.158
50.4996
51.2335
51.4708
51.312
50.8828
50.2717
49.5343
48.7158
47.8314
46.868
45.8272
44.6864
43.4064
41.9166
40.1628
38.107
35.7361
33.1042
30.2982
27.3764
24.3867
21.3911
18.4645
15.6929
13.1676
10.9791
9.20703
7.91126
7.131
6.83464
6.70959
6.34065
26.6447
23.0026
18.7215
14.0293
9.33553
4.30234
-0.852071
-5.95657
-11.0738
-16.111
-21.0386
-25.8854
-30.6282
-35.2746
-39.8315
-44.2832
-48.6191
-52.8041
-56.8018
-60.5511
-64.0147
-67.0982
-69.7256
-71.8474
-73.473
-74.6165
-75.2169
-75.154
-74.2914
-72.4957
-69.6398
-65.5903
-60.2546
-53.3567
-44.9191
-34.2401
-21.4874
-6.59082
8.72023
29.9525
32.9806
36.1617
39.2884
42.0442
44.4429
46.3534
47.6424
48.3561
48.5995
48.47
48.0858
47.5335
46.8662
46.1306
45.3351
44.4786
43.542
42.5229
41.3866
40.0756
38.5227
36.679
34.5362
32.149
29.6001
26.9388
24.203
21.4439
18.7259
16.1243
13.7193
11.5904
9.808
8.42176
7.46017
6.89444
6.44045
5.75591
24.9397
21.4841
17.4249
12.9791
8.53956
3.78444
-1.07915
-5.88812
-10.6988
-15.4268
-20.0437
-24.5744
-28.9998
-33.3276
-37.5618
-41.6958
-45.7093
-49.5826
-53.2731
-56.7308
-59.9122
-62.7477
-65.1654
-67.1099
-68.5901
-69.628
-70.1741
-70.1172
-69.3266
-67.6717
-65.0265
-61.2578
-56.2722
-49.8209
-41.9003
-31.9502
-19.9917
-6.22246
8.00449
28.0811
30.9578
33.9838
36.9609
39.5867
41.8764
43.7028
44.9411
45.6325
45.8796
45.7743
45.4309
44.9309
44.328
43.6634
42.9511
42.1832
41.3493
40.4352
39.4264
38.2704
36.8974
35.2502
33.3154
31.1506
28.8367
26.417
23.9193
21.3844
18.8668
16.4317
14.1489
12.0877
10.3087
8.85257
7.73973
6.94014
6.20201
5.25141
23.3451
20.0676
16.2191
12.0099
7.81191
3.3196
-1.26731
-5.7942
-10.3179
-14.7539
-19.0758
-23.3108
-27.4379
-31.4654
-35.4009
-39.2307
-42.9483
-46.5235
-49.9276
-53.1074
-56.0266
-58.6262
-60.8403
-62.6121
-63.951
-64.884
-65.3704
-65.3081
-64.5736
-63.0419
-60.5901
-57.0891
-52.4433
-46.4396
-39.0258
-29.8052
-18.6776
-5.98496
7.07947
26.3267
29.0588
31.9362
34.7692
37.2705
39.4537
41.1997
42.3862
43.0551
43.3031
43.2195
42.9114
42.4584
41.9117
41.3129
40.6722
39.9871
39.2397
38.4254
37.5237
36.5014
35.2915
33.8246
32.0814
30.118
28.018
25.8207
23.5445
21.2207
18.8942
16.6211
14.4616
12.4751
10.7124
9.20786
7.97182
6.97733
5.99991
4.82962
21.8532
18.746
15.0997
11.1145
7.14694
2.90602
-1.41902
-5.68094
-9.92995
-14.0907
-18.1371
-22.0922
-25.9394
-29.6864
-33.3375
-36.8886
-40.322
-43.6233
-46.7545
-49.6772
-52.3494
-54.7224
-56.7402
-58.3467
-59.551
-60.3826
-60.8068
-60.7306
-60.0396
-58.6162
-56.3433
-53.0974
-48.7826
-43.2146
-36.3255
-27.8171
-17.5591
-5.92955
5.90657
24.6824
27.2762
30.0108
32.7059
35.0866
37.1681
38.8344
39.9715
40.6163
40.8636
40.797
40.5209
40.1102
39.6139
39.0728
38.4974
37.8821
37.2201
36.4872
35.6812
34.7742
33.7083
32.4089
30.8397
29.0592
27.1538
25.1596
23.0879
20.9609
18.8153
16.6982
14.661
12.7538
11.0188
9.4825
8.15336
6.99904
5.82665
4.48011
20.4584
17.5136
14.0592
10.2894
6.5405
2.53735
-1.53841
-5.54674
-9.5394
-13.4397
-17.2243
-20.9178
-24.5019
-27.9846
-31.3736
-34.6569
-37.8311
-40.8697
-43.7509
-46.4292
-48.8677
-51.0282
-52.858
-54.3091
-55.3883
-56.1224
-56.4826
-56.3865
-55.7297
-54.4035
-52.2975
-49.2965
-45.3034
-40.1679
-33.7941
-26.0009
-16.6439
-6.09707
4.50584
23.1413
25.6029
28.2008
30.763
33.0285
35.0105
36.6012
37.688
38.3094
38.5537
38.5027
38.2538
37.88
37.4292
36.9394
36.4207
35.8704
35.2771
34.6257
33.9024
33.0945
32.1557
31.0025
29.5938
27.9827
26.2543
24.4435
22.5583
20.6137
18.6382
16.6706
14.7539
12.93
11.2334
9.68598
8.28519
7.00658
5.68432
4.20349
19.1538
16.3643
13.0942
9.52791
5.98764
2.21188
-1.6278
-5.39831
-9.14503
-12.8
-16.34
-19.7858
-23.1231
-26.3594
-29.4985
-32.5382
-35.4631
-38.263
-40.9041
-43.3582
-45.5819
-47.5363
-49.1874
-50.4946
-51.4582
-52.0993
-52.3955
-52.276
-51.6477
-50.4108
-48.4623
-45.696
-42.018
-37.2987
-31.4557
-24.353
-15.8969
-6.44091
2.9653
21.6975
24.0326
26.4993
28.9343
31.088
32.9755
34.4911
35.5306
36.1271
36.3676
36.3282
36.104
35.7636
35.3525
34.9077
34.4402
33.9445
33.4162
32.8324
32.1875
31.465
30.6285
29.6075
28.351
26.8985
25.3286
23.6816
21.9649
20.1882
18.3719
16.5466
14.7474
13.009
11.3594
9.81542
8.36625
6.9965
5.56354
3.98703
17.9346
15.2932
12.1978
8.82708
5.4848
1.92369
-1.69121
-5.2341
-8.75143
-12.1743
-15.4817
-18.6964
-21.8019
-24.8057
-27.7158
-30.521
-33.2204
-35.7903
-38.2135
-40.4556
-42.4776
-44.2431
-45.7281
-46.9001
-47.7538
-48.3061
-48.5403
-48.3972
-47.7949
-46.6421
-44.8444
-42.3042
-38.9315
-34.6248
-29.2913
-22.87
-15.2913
-6.90379
1.383
20.3448
22.5587
24.9
27.2124
29.2597
31.0546
32.4993
33.4908
34.0637
34.2987
34.2701
34.0666
33.7549
33.3793
32.9745
32.5503
32.106
31.6305
31.1132
30.5319
29.8812
29.1332
28.2324
27.1192
25.8091
24.382
22.8802
21.3153
19.693
18.0253
16.3348
14.6496
12.9986
11.4034
9.87601
8.40383
6.97379
5.46509
3.82819
16.7945
14.2947
11.3671
8.18107
5.02756
1.67171
-1.73061
-5.06035
-8.35775
-11.562
-14.6527
-17.6484
-20.5366
-23.3245
-26.0157
-28.6091
-31.0911
-33.4541
-35.6694
-37.7147
-39.5496
-41.1417
-42.4745
-43.5195
-44.2689
-44.7374
-44.9144
-44.7501
-44.1728
-43.1009
-41.4478
-39.1249
-36.0511
-32.1369
-27.3145
-21.5398
-14.7931
-7.41376
-0.162338
19.0775
21.1755
23.3963
25.5917
27.5357
29.243
30.6175
31.5642
32.1124
32.3415
32.3206
32.1358
31.8501
31.5051
31.135
30.7504
30.3476
29.9222
29.4566
28.9381
28.3499
27.6803
26.8845
25.8936
24.7167
23.4168
22.0458
20.619
19.1385
17.6087
16.045
14.4696
12.9059
11.3708
9.87334
8.39752
6.93321
5.37888
3.71206
15.729
13.3643
10.5958
7.58737
4.61294
1.45064
-1.74971
-4.87535
-7.96802
-10.9658
-13.8502
-16.642
-19.3265
-21.9108
-24.4024
-26.7918
-29.0787
-31.2428
-33.2711
-35.131
-36.796
-38.227
-39.418
-40.3448
-40.997
-41.3899
-41.5166
-41.3344
-40.7819
-39.7875
-38.2735
-36.1606
-33.3742
-29.8418
-25.5029
-20.3532
-14.3877
-7.93912
-1.63494
17.8897
19.8771
21.9825
24.0652
25.9112
27.5327
28.8413
29.7425
30.2677
30.4899
30.4765
30.3074
30.0437
29.7261
29.3864
29.0343
28.671
28.2852
27.8698
27.4011
26.8748
26.2723
25.5569
24.6782
23.6192
22.4389
21.1883
19.8868
18.5347
17.1314
15.6864
14.2162
12.7396
11.2698
9.81209
8.35158
6.87716
5.30499
3.63548
14.7324
12.4969
9.88121
7.0405
4.23671
1.25954
-1.74989
-4.68475
-7.58117
-10.3848
-13.0776
-15.6764
-18.1704
-20.5661
-22.8672
-25.0731
-27.1722
-29.159
-31.0081
-32.7026
-34.2069
-35.4937
-36.5535
-37.3675
-37.9328
-38.262
-38.3458
-38.1492
-37.6209
-36.7006
-35.3203
-33.4088
-30.8975
-27.73
-23.8619
-19.2982
-14.0585
-8.45631
-3.01699
16.7768
18.658
20.6528
22.6279
24.3787
25.9193
27.1626
28.0219
28.5232
28.7385
28.7301
28.5757
28.3324
28.0384
27.7252
27.4032
27.07
26.7236
26.3463
25.9297
25.4519
24.9035
24.2589
23.4712
22.5248
21.4571
20.3176
19.1277
17.8905
16.6025
15.2681
13.8986
12.5084
11.1072
9.69912
8.26724
6.80261
5.23581
3.58575
13.8005
11.6882
9.21743
6.53803
3.89611
1.09344
-1.73454
-4.48683
-7.20104
-9.82158
-12.3322
-14.7517
-17.0676
-19.2859
-21.4141
-23.4436
-25.3752
-27.1915
-28.8819
-30.4194
-31.7824
-32.9382
-33.8771
-34.5842
-35.0719
-35.3473
-35.3973
-35.1899
-34.6857
-33.8366
-32.5842
-30.8647
-28.6199
-25.7992
-22.3732
-18.3635
-13.7947
-8.95978
-4.30325
15.7334
17.5133
19.4024
21.2739