/*--------------------------------*- C++ -*----------------------------------*\
| =========                 |                                                 |
| \\      /  F ield         | OpenFOAM: The Open Source CFD Toolbox           |
|  \\    /   O peration     | Version:  2506                                  |
|   \\  /    A nd           | Website:  www.openfoam.com                      |
|    \\/     M anipulation  |                                                 |
\*---------------------------------------------------------------------------*/
FoamFile
{
    version     2.0;
    format      ascii;
    arch        "LSB;label=32;scalar=64";
    class       pointScalarField;
    location    "50";
    object      streamFunction;
}
// * * * * * * * * * * * * * * * * * * * * * * * * * * * * * * * * * * * * * //

dimensions      [0 3 -1 0 0 0 0];

internalField   nonuniform List<scalar> 
21812
(
0
0
0
0
0
0
0
0
0
0
0
0
0
0
0
0
0
0
0
0
0
0
0
0
0
0
0
0
0
0
0
0
0
0
0
0
0
0
0
0
0
0
0
0
0
0
0
0
0
0
0
0
0
0
0
0
0
0
0
0
0
0
0
0
0
0
0
0
0
0
0
0
0
0
0
0
0
0
0
0
0
0
0
0
0
0
0
0
0
0
0
0
0
0
0
0
0
0
0
0
0
0
0
0
0
0
0
0
0
0
0
0
0
0
0
0
0
0
0
0
0
0
0
0
0
0
0
0
0
0
0
0
0
0
0
0
0
0
0
0
0
0
0
0
0
0
0
0
0
0
0
0
0
0
0
0
2.98084
3.39376
3.84732
4.26744
4.65784
5.03422
5.35886
5.63498
5.87298
6.05618
6.19966
6.30626
6.37276
6.40656
6.40032
6.33692
6.2103
6.00374
5.69954
5.26426
4.65576
3.81608
2.75582
1.64446
0.761822
0.25655
0.0429132
-0.026443
-0.0101825
0.0306632
0.0333018
-0.0175548
-0.064978
-0.0967074
-0.384184
-0.758612
-0.939132
-0.958342
-0.709726
0.296118
2.52312
2.0405
1.47467
0.873644
0.257132
-0.360866
-0.970854
-1.53153
-2.03
-2.45334
-2.80014
-3.08266
-3.3121
-3.49738
-3.65384
-3.78618
-3.9038
-4.01022
-4.11114
-4.20794
-4.30354
-4.3967
-4.48532
-4.5545
-4.60084
-4.63204
-4.65018
-4.66098
-4.66574
-4.6632
-4.6484
-4.61964
-4.5764
-4.51926
-4.4455
-4.34866
-4.20092
-3.89936
-3.43844
2.98084
3.39376
3.84732
4.26744
4.65784
5.03422
5.35886
5.63498
5.87298
6.05618
6.19966
6.30626
6.37276
6.40656
6.40032
6.33692
6.2103
6.00374
5.69954
5.26426
4.65576
3.81608
2.75582
1.64446
0.761822
0.25655
0.0429132
-0.026443
-0.0101825
0.0306632
0.0333018
-0.0175548
-0.064978
-0.0967074
-0.384184
-0.758612
-0.939132
-0.958342
-0.709726
0.296118
2.52312
2.0405
1.47467
0.873644
0.257132
-0.360866
-0.970854
-1.53153
-2.03
-2.45334
-2.80014
-3.08266
-3.3121
-3.49738
-3.65384
-3.78618
-3.9038
-4.01022
-4.11114
-4.20794
-4.30354
-4.3967
-4.48532
-4.5545
-4.60084
-4.63204
-4.65018
-4.66098
-4.66574
-4.6632
-4.6484
-4.61964
-4.5764
-4.51926
-4.4455
-4.34866
-4.20092
-3.89936
-3.43844
5.70706
6.53798
7.42324
8.30076
9.12332
9.92522
10.6521
11.2969
11.8744
12.3607
12.7713
13.1095
13.3729
13.5713
13.7071
13.7744
13.7631
13.6523
13.418
13.0015
12.3288
11.2578
9.6757
7.63386
5.48872
3.66903
2.37975
1.62674
1.26751
1.0599
0.863252
0.680327
0.547464
0.261477
-0.486204
-1.17735
-1.37623
-1.23105
-0.847349
0.756106
4.82614
3.88939
2.79211
1.63084
0.420321
-0.813942
-2.01363
-3.11408
-4.097
-4.94768
-5.6615
-6.25778
-6.75548
-7.16802
-7.52112
-7.82532
-8.0958
-8.34232
-8.57554
-8.79846
-9.01708
-9.2312
-9.43694
-9.60904
-9.73778
-9.83428
-9.8974
-9.931
-9.93648
-9.91676
-9.87162
-9.80308
-9.71118
-9.59638
-9.45368
-9.27082
-9.0178
-8.5123
-7.6659
5.70706
6.53798
7.42324
8.30076
9.12332
9.92522
10.6521
11.2969
11.8744
12.3607
12.7713
13.1095
13.3729
13.5713
13.7071
13.7744
13.7631
13.6523
13.418
13.0015
12.3288
11.2578
9.6757
7.63386
5.48872
3.66903
2.37975
1.62674
1.26751
1.0599
0.863252
0.680327
0.547464
0.261477
-0.486204
-1.17735
-1.37623
-1.23105
-0.847349
0.756106
4.82614
3.88939
2.79211
1.63084
0.420321
-0.813942
-2.01363
-3.11408
-4.097
-4.94768
-5.6615
-6.25778
-6.75548
-7.16802
-7.52112
-7.82532
-8.0958
-8.34232
-8.57554
-8.79846
-9.01708
-9.2312
-9.43694
-9.60904
-9.73778
-9.83428
-9.8974
-9.931
-9.93648
-9.91676
-9.87162
-9.80308
-9.71118
-9.59638
-9.45368
-9.27082
-9.0178
-8.5123
-7.6659
8.35964
9.62146
10.9457
12.3
13.5632
14.7907
15.9289
16.9462
17.8638
18.6498
19.3221
19.8842
20.3354
20.6816
20.9305
21.0696
21.1013
21.007
20.7804
20.376
19.7474
18.7793
17.3243
15.2668
12.7468
10.1193
7.68687
5.69708
4.29931
3.36968
2.68255
2.15924
1.75807
1.09161
-0.141914
-1.13116
-1.31692
-0.95632
-0.404397
1.65972
7.0477
5.64655
3.99787
2.26832
0.466935
-1.37558
-3.16291
-4.804
-6.27492
-7.55892
-8.64792
-9.5658
-10.3394
-10.9884
-11.5456
-12.029
-12.4594
-12.852
-13.2216
-13.5741
-13.9194
-14.2569
-14.5801
-14.857
-15.0716
-15.2375
-15.3551
-15.4289
-15.4614
-15.4564
-15.4144
-15.3364
-15.2222
-15.0706
-14.874
-14.6133
-14.249
-13.5287
-12.3144
8.35964
9.62146
10.9457
12.3
13.5632
14.7907
15.9289
16.9462
17.8638
18.6498
19.3221
19.8842
20.3354
20.6816
20.9305
21.0696
21.1013
21.007
20.7804
20.376
19.7474
18.7793
17.3243
15.2668
12.7468
10.1193
7.68687
5.69708
4.29931
3.36968
2.68255
2.15924
1.75807
1.09161
-0.141914
-1.13116
-1.31692
-0.95632
-0.404397
1.65972
7.0477
5.64655
3.99787
2.26832
0.466935
-1.37558
-3.16291
-4.804
-6.27492
-7.55892
-8.64792
-9.5658
-10.3394
-10.9884
-11.5456
-12.029
-12.4594
-12.852
-13.2216
-13.5741
-13.9194
-14.2569
-14.5801
-14.857
-15.0716
-15.2375
-15.3551
-15.4289
-15.4614
-15.4564
-15.4144
-15.3364
-15.2222
-15.0706
-14.874
-14.6133
-14.249
-13.5287
-12.3144
10.9317
12.6384
14.4131
16.265
17.9844
19.6581
21.228
22.6442
23.9267
25.0456
26.0143
26.8382
27.5161
28.0537
28.4584
28.7229
28.8447
28.8043
28.5884
28.156
27.4675
26.4424
25.0027
23.0622
20.661
17.9618
15.1004
12.2487
9.66999
7.5441
5.89657
4.67542
3.72175
2.50037
0.734502
-0.552055
-0.715558
-0.124428
0.637131
3.12298
9.17954
7.31007
5.09494
2.78774
0.388893
-2.0679
-4.44942
-6.63294
-8.59124
-10.3095
-11.7757
-13.02
-14.0776
-14.9738
-15.7484
-16.4241
-17.0284
-17.5802
-18.0989
-18.5933
-19.0751
-19.545
-19.995
-20.3858
-20.696
-20.9407
-21.1214
-21.2434
-21.3098
-21.3263
-21.2938
-21.2134
-21.0848
-20.9062
-20.6666
-20.3394
-19.872
-18.9369
-17.3298
10.9317
12.6384
14.4131
16.265
17.9844
19.6581
21.228
22.6442
23.9267
25.0456
26.0143
26.8382
27.5161
28.0537
28.4584
28.7229
28.8447
28.8043
28.5884
28.156
27.4675
26.4424
25.0027
23.0622
20.661
17.9618
15.1004
12.2487
9.66999
7.5441
5.89657
4.67542
3.72175
2.50037
0.734502
-0.552055
-0.715558
-0.124428
0.637131
3.12298
9.17954
7.31007
5.09494
2.78774
0.388893
-2.0679
-4.44942
-6.63294
-8.59124
-10.3095
-11.7757
-13.02
-14.0776
-14.9738
-15.7484
-16.4241
-17.0284
-17.5802
-18.0989
-18.5933
-19.0751
-19.545
-19.995
-20.3858
-20.696
-20.9407
-21.1214
-21.2434
-21.3098
-21.3263
-21.2938
-21.2134
-21.0848
-20.9062
-20.6666
-20.3394
-19.872
-18.9369
-17.3298
13.4638
15.6329
17.876
20.2523
22.4427
24.5805
26.6009
28.4305
30.0931
31.5625
32.8407
33.9394
34.8558
35.5994
36.1713
36.5664
36.7818
36.7996
36.6086
36.1655
35.4381
34.3508
32.8509
30.9012
28.5737
25.9977
23.1964
20.1648
16.9898
13.8258
10.9426
8.5917
6.69653
4.67181
2.27755
0.662649
0.502098
1.31028
2.29374
5.154
11.2517
8.90003
6.09457
3.1922
0.180887
-2.90476
-5.89363
-8.6272
-11.0774
-13.234
-15.0802
-16.6547
-18.0022
-19.1522
-20.1519
-21.0296
-21.8167
-22.5361
-23.2115
-23.8548
-24.4793
-25.0865
-25.6673
-26.1765
-26.5869
-26.9146
-27.1619
-27.3352
-27.4375
-27.4759
-27.4522
-27.369
-27.2258
-27.0203
-26.7401
-26.3525
-25.7927
-24.6677
-22.6738
13.4638
15.6329
17.876
20.2523
22.4427
24.5805
26.6009
28.4305
30.0931
31.5625
32.8407
33.9394
34.8558
35.5994
36.1713
36.5664
36.7818
36.7996
36.6086
36.1655
35.4381
34.3508
32.8509
30.9012
28.5737
25.9977
23.1964
20.1648
16.9898
13.8258
10.9426
8.5917
6.69653
4.67181
2.27755
0.662649
0.502098
1.31028
2.29374
5.154
11.2517
8.90003
6.09457
3.1922
0.180887
-2.90476
-5.89363
-8.6272
-11.0774
-13.234
-15.0802
-16.6547
-18.0022
-19.1522
-20.1519
-21.0296
-21.8167
-22.5361
-23.2115
-23.8548
-24.4793
-25.0865
-25.6673
-26.1765
-26.5869
-26.9146
-27.1619
-27.3352
-27.4375
-27.4759
-27.4522
-27.369
-27.2258
-27.0203
-26.7401
-26.3525
-25.7927
-24.6677
-22.6738
15.9682
18.6195
21.3544
24.2808
26.963
29.5825
32.0756
34.334
36.3962
38.2309
39.8369
41.2303
42.4048
43.373
44.1352
44.6835
45.0197
45.1199
44.9739
44.541
43.7889
42.6488
41.0802
39.0574
36.6735
34.0891
31.345
28.3864
25.1593
21.5951
17.8128
14.2033
10.9955
7.84729
4.65995
2.64008
2.42937
3.41126
4.59448
7.75518
13.2769
10.426
7.00334
3.48253
-0.162619
-3.89805
-7.51253
-10.8082
-13.7579
-16.3576
-18.5871
-20.4939
-22.1341
-23.543
-24.7738
-25.8606
-26.8382
-27.7341
-28.575
-29.3754
-30.1508
-30.9029
-31.6216
-32.2573
-32.7762
-33.1941
-33.5154
-33.7461
-33.8902
-33.9558
-33.9453
-33.8621
-33.7054
-33.4733
-33.1497
-32.6977
-32.0374
-30.723
-28.3415
15.9682
18.6195
21.3544
24.2808
26.963
29.5825
32.0756
34.334
36.3962
38.2309
39.8369
41.2303
42.4048
43.373
44.1352
44.6835
45.0197
45.1199
44.9739
44.541
43.7889
42.6488
41.0802
39.0574
36.6735
34.0891
31.345
28.3864
25.1593
21.5951
17.8128
14.2033
10.9955
7.84729
4.65995
2.64008
2.42937
3.41126
4.59448
7.75518
13.2769
10.426
7.00334
3.48253
-0.162619
-3.89805
-7.51253
-10.8082
-13.7579
-16.3576
-18.5871
-20.4939
-22.1341
-23.543
-24.7738
-25.8606
-26.8382
-27.7341
-28.575
-29.3754
-30.1508
-30.9029
-31.6216
-32.2573
-32.7762
-33.1941
-33.5154
-33.7461
-33.8902
-33.9558
-33.9453
-33.8621
-33.7054
-33.4733
-33.1497
-32.6977
-32.0374
-30.723
-28.3415
18.4605
21.6193
24.8672
28.3735
31.571
34.6948
37.6804
40.3873
42.8636
45.0806
47.0291
48.7302
50.1792
51.3863
52.3526
53.0705
53.5386
53.7352
53.6487
53.2403
52.4802
51.307
49.6894
47.6075
45.1452
42.4683
39.6487
36.6671
33.473
29.9126
25.848
21.391
16.8343
12.2957
8.09335
5.53548
5.17927
6.25674
7.58318
10.9414
15.2666
11.8948
7.82543
3.65943
-0.645137
-5.05679
-9.31923
-13.1936
-16.6539
-19.7045
-22.3216
-24.5634
-26.499
-28.1701
-29.6364
-30.9374
-32.1125
-33.192
-34.2058
-35.1705
-36.1035
-37.0067
-37.8694
-38.6371
-39.271
-39.7857
-40.1861
-40.4793
-40.6689
-40.7648
-40.7694
-40.6876
-40.5185
-40.2593
-39.8918
-39.3736
-38.6093
-37.1061
-34.3425
18.4605
21.6193
24.8672
28.3735
31.571
34.6948
37.6804
40.3873
42.8636
45.0806
47.0291
48.7302
50.1792
51.3863
52.3526
53.0705
53.5386
53.7352
53.6487
53.2403
52.4802
51.307
49.6894
47.6075
45.1452
42.4683
39.6487
36.6671
33.473
29.9126
25.848
21.391
16.8343
12.2957
8.09335
5.53548
5.17927
6.25674
7.58318
10.9414
15.2666
11.8948
7.82543
3.65943
-0.645137
-5.05679
-9.31923
-13.1936
-16.6539
-19.7045
-22.3216
-24.5634
-26.499
-28.1701
-29.6364
-30.9374
-32.1125
-33.192
-34.2058
-35.1705
-36.1035
-37.0067
-37.8694
-38.6371
-39.271
-39.7857
-40.1861
-40.4793
-40.6689
-40.7648
-40.7694
-40.6876
-40.5185
-40.2593
-39.8918
-39.3736
-38.6093
-37.1061
-34.3425
20.9502
24.6427
28.4306
32.549
36.2849
39.9369
43.4379
46.6116
49.5223
52.1352
54.4413
56.4666
58.2037
59.6636
60.8495
61.7521
62.3691
62.6791
62.6696
62.3014
61.5477
60.3543
58.6975
56.5661
54.0384
51.2659
48.3212
45.2076
41.9164
38.343
34.3004
29.5806
24.1095
18.2064
12.8079
9.53222
8.88509
9.9387
11.315
14.7359
17.229
13.3129
8.563
3.72119
-1.27242
-6.38972
-11.3268
-15.7996
-19.7847
-23.2964
-26.307
-28.8869
-31.1205
-33.056
-34.7603
-36.2803
-37.6576
-38.9267
-40.1197
-41.2556
-42.3525
-43.4138
-44.4271
-45.3339
-46.0902
-46.7088
-47.1952
-47.5572
-47.7977
-47.9282
-47.9519
-47.8741
-47.694
-47.4082
-46.9954
-46.4084
-45.5356
-43.8404
-40.7007
20.9502
24.6427
28.4306
32.549
36.2849
39.9369
43.4379
46.6116
49.5223
52.1352
54.4413
56.4666
58.2037
59.6636
60.8495
61.7521
62.3691
62.6791
62.6696
62.3014
61.5477
60.3543
58.6975
56.5661
54.0384
51.2659
48.3212
45.2076
41.9164
38.343
34.3004
29.5806
24.1095
18.2064
12.8079
9.53222
8.88509
9.9387
11.315
14.7359
17.229
13.3129
8.563
3.72119
-1.27242
-6.38972
-11.3268
-15.7996
-19.7847
-23.2964
-26.307
-28.8869
-31.1205
-33.056
-34.7603
-36.2803
-37.6576
-38.9267
-40.1197
-41.2556
-42.3525
-43.4138
-44.4271
-45.3339
-46.0902
-46.7088
-47.1952
-47.5572
-47.7977
-47.9282
-47.9519
-47.8741
-47.694
-47.4082
-46.9954
-46.4084
-45.5356
-43.8404
-40.7007
23.4482
27.7017
32.0578
36.8216
41.1225
45.3301
49.3717
53.0343
56.3957
59.4235
62.1013
64.4625
66.5008
68.2275
69.646
70.7468
71.5277
71.9652
72.046
71.7321
70.9987
69.7976
68.1124
65.9391
63.356
60.5032
57.4423
54.1744
50.7059
46.982
42.8953
38.19
32.3916
25.5424
18.976
14.8212
13.6947
14.5601
15.8558
19.1664
19.1709
14.6837
9.21742
3.66747
-2.04862
-7.90461
-13.5468
-18.6416
-23.1686
-27.1537
-30.5657
-33.4883
-36.0223
-38.2243
-40.169
-41.9105
-43.4944
-44.9577
-46.3352
-47.6482
-48.9159
-50.1409
-51.3111
-52.3638
-53.2498
-53.979
-54.558
-54.9941
-55.291
-55.4605
-55.5063
-55.4348
-55.2448
-54.9328
-54.4743
-53.8168
-52.8321
-50.9446
-47.4389
23.4482
27.7017
32.0578
36.8216
41.1225
45.3301
49.3717
53.0343
56.3957
59.4235
62.1013
64.4625
66.5008
68.2275
69.646
70.7468
71.5277
71.9652
72.046
71.7321
70.9987
69.7976
68.1124
65.9391
63.356
60.5032
57.4423
54.1744
50.7059
46.982
42.8953
38.19
32.3916
25.5424
18.976
14.8212
13.6947
14.5601
15.8558
19.1664
19.1709
14.6837
9.21742
3.66747
-2.04862
-7.90461
-13.5468
-18.6416
-23.1686
-27.1537
-30.5657
-33.4883
-36.0223
-38.2243
-40.169
-41.9105
-43.4944
-44.9577
-46.3352
-47.6482
-48.9159
-50.1409
-51.3111
-52.3638
-53.2498
-53.979
-54.558
-54.9941
-55.291
-55.4605
-55.5063
-55.4348
-55.2448
-54.9328
-54.4743
-53.8168
-52.8321
-50.9446
-47.4389
25.9603
30.806
35.7608
41.2066
46.101
50.8897
55.4996
59.6729
63.5056
66.9659
70.0304
72.7419
75.0959
77.1009
78.7638
80.0771
81.034
81.6125
81.7975
81.5529
80.8548
79.6572
77.9536
75.7445
73.1106
70.1848
67.0202
63.6121
59.9636
56.0298
51.7578
47.005
41.2089
33.9933
26.5902
21.5339
19.7441
20.2205
21.2685
24.2545
21.099
16.0114
9.78969
3.49458
-2.97897
-9.61105
-15.991
-21.7341
-26.8233
-31.297
-35.1197
-38.3905
-41.2286
-43.6989
-45.8858
-47.8511
-49.6441
-51.3053
-52.8723
-54.3675
-55.8108
-57.206
-58.5394
-59.7447
-60.7675
-61.6148
-62.2928
-62.8097
-63.1683
-63.3816
-63.4537
-63.3912
-63.1934
-62.8559
-62.3508
-61.6209
-60.5215
-58.4414
-54.5804
25.9603
30.806
35.7608
41.2066
46.101
50.8897
55.4996
59.6729
63.5056
66.9659
70.0304
72.7419
75.0959
77.1009
78.7638
80.0771
81.034
81.6125
81.7975
81.5529
80.8548
79.6572
77.9536
75.7445
73.1106
70.1848
67.0202
63.6121
59.9636
56.0298
51.7578
47.005
41.2089
33.9933
26.5902
21.5339
19.7441
20.2205
21.2685
24.2545
21.099
16.0114
9.78969
3.49458
-2.97897
-9.61105
-15.991
-21.7341
-26.8233
-31.297
-35.1197
-38.3905
-41.2286
-43.6989
-45.8858
-47.8511
-49.6441
-51.3053
-52.8723
-54.3675
-55.8108
-57.206
-58.5394
-59.7447
-60.7675
-61.6148
-62.2928
-62.8097
-63.1683
-63.3816
-63.4537
-63.3912
-63.1934
-62.8559
-62.3508
-61.6209
-60.5215
-58.4414
-54.5804
28.4947
33.9643
39.5491
45.7149
51.235
56.6358
61.8423
66.5485
70.875
74.7866
78.2546
81.3301
84.0105
86.3071
88.2284
89.7641
90.9102
91.6424
91.9456
91.7826
91.132
89.9507
88.2376
85.9998
83.3196
80.3248
77.0631
73.5255
69.7121
65.5778
61.0678
56.1232
50.3293
43.137
35.388
29.63
27.0894
26.9809
27.5975
30.0046
23.0166
17.2983
10.2796
3.20037
-4.07015
-11.517
-18.6712
-25.0919
-30.7661
-35.7454
-39.9907
-43.6166
-46.7631
-49.5042
-51.935
-54.1253
-56.1296
-57.9917
-59.7514
-61.4332
-63.0578
-64.6287
-66.131
-67.4958
-68.6624
-69.6348
-70.419
-71.0228
-71.4492
-71.7111
-71.8132
-71.763
-71.5591
-71.1972
-70.645
-69.8416
-68.6246
-66.3526
-62.1498
28.4947
33.9643
39.5491
45.7149
51.235
56.6358
61.8423
66.5485
70.875
74.7866
78.2546
81.3301
84.0105
86.3071
88.2284
89.7641
90.9102
91.6424
91.9456
91.7826
91.132
89.9507
88.2376
85.9998
83.3196
80.3248
77.0631
73.5255
69.7121
65.5778
61.0678
56.1232
50.3293
43.137
35.388
29.63
27.0894
26.9809
27.5975
30.0046
23.0166
17.2983
10.2796
3.20037
-4.07015
-11.517
-18.6712
-25.0919
-30.7661
-35.7454
-39.9907
-43.6166
-46.7631
-49.5042
-51.935
-54.1253
-56.1296
-57.9917
-59.7514
-61.4332
-63.0578
-64.6287
-66.131
-67.4958
-68.6624
-69.6348
-70.419
-71.0228
-71.4492
-71.7111
-71.8132
-71.763
-71.5591
-71.1972
-70.645
-69.8416
-68.6246
-66.3526
-62.1498
31.0559
37.1845
43.4341
50.36
56.5377
62.5819
68.4156
73.6829
78.525
82.9079
86.7957
90.251
93.2729
95.8716
98.0618
99.833
101.18
102.077
102.51
102.441
101.851
100.697
98.985
96.7257
94.0041
90.9439
87.5882
83.9252
79.9556
75.6375
70.9046
65.7035
59.7816
52.6858
44.9478
38.8163
35.6023
34.7988
34.8316
36.3889
24.9282
18.545
10.6862
2.78077
-5.3283
-13.632
-21.6001
-28.7301
-35.0145
-40.5192
-45.2003
-49.19
-52.6501
-55.6647
-58.341
-60.758
-62.9748
-65.0397
-66.9954
-68.8673
-70.6775
-72.4289
-74.1065
-75.6372
-76.9546
-78.0593
-78.9565
-79.6541
-80.1538
-80.4696
-80.6062
-80.5715
-80.3642
-79.9785
-79.3793
-78.5012
-77.1643
-74.7027
-70.1728
31.0559
37.1845
43.4341
50.36
56.5377
62.5819
68.4156
73.6829
78.525
82.9079
86.7957
90.251
93.2729
95.8716
98.0618
99.833
101.18
102.077
102.51
102.441
101.851
100.697
98.985
96.7257
94.0041
90.9439
87.5882
83.9252
79.9556
75.6375
70.9046
65.7035
59.7816
52.6858
44.9478
38.8163
35.6023
34.7988
34.8316
36.3889
24.9282
18.545
10.6862
2.78077
-5.3283
-13.632
-21.6001
-28.7301
-35.0145
-40.5192
-45.2003
-49.19
-52.6501
-55.6647
-58.341
-60.758
-62.9748
-65.0397
-66.9954
-68.8673
-70.6775
-72.4289
-74.1065
-75.6372
-76.9546
-78.0593
-78.9565
-79.6541
-80.1538
-80.4696
-80.6062
-80.5715
-80.3642
-79.9785
-79.3793
-78.5012
-77.1643
-74.7027
-70.1728
33.6509
40.4732
47.4242
55.1529
62.0242
68.7459
75.2389
81.0947
86.4777
91.3522
95.6781
99.5285
102.905
105.82
108.291
110.308
111.867
112.941
113.515
113.552
113.032
111.917
110.214
107.941
105.184
102.064
98.6179
94.8328
90.7094
86.2131
81.2787
75.8301
69.6945
62.5945
54.9491
48.6593
44.9202
43.4435
42.8469
43.3355
26.836
19.754
11.008
2.23202
-6.76071
-15.9672
-24.79
-32.6641
-39.5864
-45.638
-50.7706
-55.1341
-58.9141
-62.2064
-65.1299
-67.7747
-70.2051
-72.4746
-74.6281
-76.6932
-78.6925
-80.6293
-82.4873
-84.1905
-85.6655
-86.9096
-87.9267
-88.7243
-89.3037
-89.679
-89.8548
-89.8394
-89.6312
-89.2232
-88.5769
-87.6237
-86.1653
-83.5161
-78.676
33.6509
40.4732
47.4242
55.1529
62.0242
68.7459
75.2389
81.0947
86.4777
91.3522
95.6781
99.5285
102.905
105.82
108.291
110.308
111.867
112.941
113.515
113.552
113.032
111.917
110.214
107.941
105.184
102.064
98.6179
94.8328
90.7094
86.2131
81.2787
75.8301
69.6945
62.5945
54.9491
48.6593
44.9202
43.4435
42.8469
43.3355
26.836
19.754
11.008
2.23202
-6.76071
-15.9672
-24.79
-32.6641
-39.5864
-45.638
-50.7706
-55.1341
-58.9141
-62.2064
-65.1299
-67.7747
-70.2051
-72.4746
-74.6281
-76.6932
-78.6925
-80.6293
-82.4873
-84.1905
-85.6655
-86.9096
-87.9267
-88.7243
-89.3037
-89.679
-89.8548
-89.8394
-89.6312
-89.2232
-88.5769
-87.6237
-86.1653
-83.5161
-78.676
36.2832
43.8379
51.5292
60.1059
67.708
75.1425
82.3291
88.8032
94.7526
100.142
104.925
109.188
112.933
116.177
118.942
121.214
122.996
124.258
124.984
125.138
124.699
123.633
121.949
119.668
116.882
113.707
110.175
106.272
101.998
97.3234
92.1943
86.5227
80.1602
72.9596
65.3286
58.8977
54.6804
52.5509
51.3448
50.7187
28.745
20.9242
11.2429
1.54878
-8.37487
-18.5317
-28.255
-36.9104
-44.5007
-51.1232
-56.7242
-61.4729
-65.5806
-69.1547
-72.3279
-75.2021
-77.8473
-80.3218
-82.6747
-84.9355
-87.1271
-89.2532
-91.297
-93.1787
-94.8177
-96.2082
-97.3522
-98.2567
-98.9221
-99.3626
-99.5823
-99.5899
-99.3837
-98.9553
-98.2624
-97.2337
-95.653
-92.8201
-87.6876
36.2832
43.8379
51.5292
60.1059
67.708
75.1425
82.3291
88.8032
94.7526
100.142
104.925
109.188
112.933
116.177
118.942
121.214
122.996
124.258
124.984
125.138
124.699
123.633
121.949
119.668
116.882
113.707
110.175
106.272
101.998
97.3234
92.1943
86.5227
80.1602
72.9596
65.3286
58.8977
54.6804
52.5509
51.3448
50.7187
28.745
20.9242
11.2429
1.54878
-8.37487
-18.5317
-28.255
-36.9104
-44.5007
-51.1232
-56.7242
-61.4729
-65.5806
-69.1547
-72.3279
-75.2021
-77.8473
-80.3218
-82.6747
-84.9355
-87.1271
-89.2532
-91.297
-93.1787
-94.8177
-96.2082
-97.3522
-98.2567
-98.9221
-99.3626
-99.5823
-99.5899
-99.3837
-98.9553
-98.2624
-97.2337
-95.653
-92.8201
-87.6876
38.9576
47.2862
55.758
65.2304
73.6022
81.7875
89.7056
96.8283
103.372
109.302
114.563
119.256
123.385
126.97
130.039
132.581
134.595
136.055
136.944
137.223
136.876
135.868
134.211
131.93
129.12
125.896
122.283
118.266
113.844
108.994
103.67
97.7874
91.2126
83.8738
76.1713
69.5364
64.8203
62.0214
60.1928
58.5038
30.656
22.0581
11.3886
0.726144
-10.1787
-21.3377
-32.0085
-41.4855
-49.776
-56.9957
-63.084
-68.2313
-72.6754
-76.5369
-79.9628
-83.0678
-85.9284
-88.609
-91.1622
-93.6202
-96.0067
-98.3261
-100.561
-102.626
-104.436
-105.98
-107.257
-108.275
-109.033
-109.544
-109.813
-109.848
-109.647
-109.2
-108.462
-107.358
-105.654
-102.642
-97.2366
38.9576
47.2862
55.758
65.2304
73.6022
81.7875
89.7056
96.8283
103.372
109.302
114.563
119.256
123.385
126.97
130.039
132.581
134.595
136.055
136.944
137.223
136.876
135.868
134.211
131.93
129.12
125.896
122.283
118.266
113.844
108.994
103.67
97.7874
91.2126
83.8738
76.1713
69.5364
64.8203
62.0214
60.1928
58.5038
30.656
22.0581
11.3886
0.726144
-10.1787
-21.3377
-32.0085
-41.4855
-49.776
-56.9957
-63.084
-68.2313
-72.6754
-76.5369
-79.9628
-83.0678
-85.9284
-88.609
-91.1622
-93.6202
-96.0067
-98.3261
-100.561
-102.626
-104.436
-105.98
-107.257
-108.275
-109.033
-109.544
-109.813
-109.848
-109.647
-109.2
-108.462
-107.358
-105.654
-102.642
-97.2366
41.6796
50.8251
60.12
70.5381
79.7205
88.6981
97.3862
105.191
112.359
118.855
124.615
129.756
134.287
138.228
141.614
144.435
146.692
148.36
149.42
149.836
149.589
148.648
147.026
144.752
141.923
138.654
134.966
130.84
126.276
121.253
115.732
109.641
102.864
95.3789
87.5599
80.6709
75.4327
71.9413
69.4473
66.7501
32.5717
23.1538
11.4415
-0.242076
-12.1816
-24.3972
-36.0665
-46.4076
-55.4332
-63.2776
-69.8744
-75.4347
-80.2255
-84.3805
-88.0629
-91.4006
-94.4777
-97.3647
-100.119
-102.776
-105.359
-107.875
-110.304
-112.56
-114.547
-116.249
-117.668
-118.805
-119.662
-120.25
-120.574
-120.641
-120.448
-119.985
-119.202
-118.023
-116.198
-113.011
-107.354
41.6796
50.8251
60.12
70.5381
79.7205
88.6981
97.3862
105.191
112.359
118.855
124.615
129.756
134.287
138.228
141.614
144.435
146.692
148.36
149.42
149.836
149.589
148.648
147.026
144.752
141.923
138.654
134.966
130.84
126.276
121.253
115.732
109.641
102.864
95.3789
87.5599
80.6709
75.4327
71.9413
69.4473
66.7501
32.5717
23.1538
11.4415
-0.242076
-12.1816
-24.3972
-36.0665
-46.4076
-55.4332
-63.2776
-69.8744
-75.4347
-80.2255
-84.3805
-88.0629
-91.4006
-94.4777
-97.3647
-100.119
-102.776
-105.359
-107.875
-110.304
-112.56
-114.547
-116.249
-117.668
-118.805
-119.662
-120.25
-120.574
-120.641
-120.448
-119.985
-119.202
-118.023
-116.198
-113.011
-107.354
44.4526
54.4597
64.6238
76.0405
86.078
95.8904
105.389
113.911
121.735
128.824
135.107
140.718
145.666
149.979
153.694
156.805
159.316
161.201
162.443
163.004
162.866
161.999
160.419
158.158
155.317
152.009
148.25
144.019
139.317
134.125
128.411
122.109
115.13
107.493
99.5343
92.3653
86.5914
82.3862
79.1756
75.5105
34.494
24.2116
11.399
-1.36258
-14.3929
-27.7224
-40.4447
-51.6951
-61.4931
-69.9925
-77.1199
-83.1094
-88.2581
-92.7143
-96.6574
-100.231
-103.525
-106.619
-109.575
-112.431
-115.214
-117.928
-120.556
-123.007
-125.176
-127.045
-128.61
-129.875
-130.837
-131.508
-131.891
-131.995
-131.814
-131.338
-130.513
-129.26
-127.314
-123.959
-118.072
44.4526
54.4597
64.6238
76.0405
86.078
95.8904
105.389
113.911
121.735
128.824
135.107
140.718
145.666
149.979
153.694
156.805
159.316
161.201
162.443
163.004
162.866
161.999
160.419
158.158
155.317
152.009
148.25
144.019
139.317
134.125
128.411
122.109
115.13
107.493
99.5343
92.3653
86.5914
82.3862
79.1756
75.5105
34.494
24.2116
11.399
-1.36258
-14.3929
-27.7224
-40.4447
-51.6951
-61.4931
-69.9925
-77.1199
-83.1094
-88.2581
-92.7143
-96.6574
-100.231
-103.525
-106.619
-109.575
-112.431
-115.214
-117.928
-120.556
-123.007
-125.176
-127.045
-128.61
-129.875
-130.837
-131.508
-131.891
-131.995
-131.814
-131.338
-130.513
-129.26
-127.314
-123.959
-118.072
47.282
58.1984
69.2802
81.7496
92.6903
103.381
113.734
123.011
131.525
139.237
146.067
152.168
157.553
162.25
166.309
169.724
172.499
174.611
176.043
176.757
176.737
175.951
174.42
172.178
169.329
165.987
162.162
157.832
152.996
147.639
141.734
135.222
128.036
120.232
112.114
104.646
98.331
93.3938
89.4172
84.814
36.4257
25.2312
11.2566
-2.64183
-16.8232
-31.3274
-45.159
-57.3676
-67.9776
-77.1646
-84.847
-91.2832
-96.8026
-101.568
-105.777
-109.589
-113.103
-116.405
-119.563
-122.618
-125.601
-128.516
-131.347
-133.998
-136.355
-138.395
-140.114
-141.511
-142.585
-143.345
-143.794
-143.939
-143.775
-143.289
-142.422
-141.098
-139.035
-135.518
-129.423
47.282
58.1984
69.2802
81.7496
92.6903
103.381
113.734
123.011
131.525
139.237
146.067
152.168
157.553
162.25
166.309
169.724
172.499
174.611
176.043
176.757
176.737
175.951
174.42
172.178
169.329
165.987
162.162
157.832
152.996
147.639
141.734
135.222
128.036
120.232
112.114
104.646
98.331
93.3938
89.4172
84.814
36.4257
25.2312
11.2566
-2.64183
-16.8232
-31.3274
-45.159
-57.3676
-67.9776
-77.1646
-84.847
-91.2832
-96.8026
-101.568
-105.777
-109.589
-113.103
-116.405
-119.563
-122.618
-125.601
-128.516
-131.347
-133.998
-136.355
-138.395
-140.114
-141.511
-142.585
-143.345
-143.794
-143.939
-143.775
-143.289
-142.422
-141.098
-139.035
-135.518
-129.423
50.1717
62.0479
74.0969
87.6794
99.5701
111.189
122.442
132.514
141.751
150.117
157.522
164.136
169.976
175.077
179.493
183.222
186.272
188.621
190.252
191.127
191.232
190.535
189.058
186.839
183.988
180.617
176.732
172.307
167.342
161.823
155.729
149.009
141.611
133.624
125.319
117.534
110.67
104.981
100.195
94.6816
38.3682
26.2115
11.0102
-4.087
-19.4827
-35.2263
-50.2279
-63.4454
-74.91
-84.8188
-93.0824
-99.9847
-105.889
-110.973
-115.455
-119.508
-123.243
-126.753
-130.114
-133.37
-136.553
-139.672
-142.709
-145.563
-148.114
-150.332
-152.209
-153.746
-154.937
-155.793
-156.313
-156.505
-156.361
-155.868
-154.964
-153.571
-151.393
-147.722
-141.443
50.1717
62.0479
74.0969
87.6794
99.5701
111.189
122.442
132.514
141.751
150.117
157.522
164.136
169.976
175.077
179.493
183.222
186.272
188.621
190.252
191.127
191.232
190.535
189.058
186.839
183.988
180.617
176.732
172.307
167.342
161.823
155.729
149.009
141.611
133.624
125.319
117.534
110.67
104.981
100.195
94.6816
38.3682
26.2115
11.0102
-4.087
-19.4827
-35.2263
-50.2279
-63.4454
-74.91
-84.8188
-93.0824
-99.9847
-105.889
-110.973
-115.455
-119.508
-123.243
-126.753
-130.114
-133.37
-136.553
-139.672
-142.709
-145.563
-148.114
-150.332
-152.209
-153.746
-154.937
-155.793
-156.313
-156.505
-156.361
-155.868
-154.964
-153.571
-151.393
-147.722
-141.443
53.1265
66.0151
79.0848
93.8414
106.736
119.331
131.533
142.442
152.441
161.493
169.501
176.652
182.968
188.489
193.278
197.334
200.671
203.265
205.103
206.149
206.384
205.781
204.365
202.175
199.326
195.93
191.989
187.473
182.384
176.708
170.427
163.499
155.886
147.698
139.177
131.053
123.63
117.166
111.529
105.132
40.3231
27.1514
10.6552
-5.70702
-22.3833
-39.4341
-55.6696
-69.9506
-82.3146
-92.9824
-101.855
-109.244
-115.548
-120.962
-125.722
-130.022
-133.98
-137.701
-141.264
-144.721
-148.106
-151.429
-154.675
-157.738
-160.487
-162.887
-164.929
-166.611
-167.926
-168.883
-169.48
-169.724
-169.606
-169.11
-168.172
-166.712
-164.424
-160.609
-154.168
53.1265
66.0151
79.0848
93.8414
106.736
119.331
131.533
142.442
152.441
161.493
169.501
176.652
182.968
188.489
193.278
197.334
200.671
203.265
205.103
206.149
206.384
205.781
204.365
202.175
199.326
195.93
191.989
187.473
182.384
176.708
170.427
163.499
155.886
147.698
139.177
131.053
123.63
117.166
111.529
105.132
40.3231
27.1514
10.6552
-5.70702
-22.3833
-39.4341
-55.6696
-69.9506
-82.3146
-92.9824
-101.855
-109.244
-115.548
-120.962
-125.722
-130.022
-133.98
-137.701
-141.264
-144.721
-148.106
-151.429
-154.675
-157.738
-160.487
-162.887
-164.929
-166.611
-167.926
-168.883
-169.48
-169.724
-169.606
-169.11
-168.172
-166.712
-164.424
-160.609
-154.168
56.1498
70.1075
84.2545
100.25
114.202
127.827
141.029
152.819
163.62
173.394
182.032
189.747
196.561
202.521
207.699
212.096
215.73
218.58
220.635
221.856
222.229
221.726
220.374
218.219
215.375
211.958
207.965
203.362
198.154
192.323
185.859
178.723
170.89
162.484
153.721
145.236
137.238
129.968
123.449
116.192
42.2923
28.0498
10.1874
-7.50996
-25.5373
-43.9673
-61.5046
-76.9062
-90.2172
-101.683
-111.195
-119.093
-125.813
-131.568
-136.615
-141.166
-145.351
-149.282
-153.05
-156.708
-160.295
-163.825
-167.282
-170.557
-173.509
-176.095
-178.308
-180.141
-181.586
-182.65
-183.33
-183.631
-183.543
-183.049
-182.08
-180.557
-178.165
-174.215
-167.636
56.1498
70.1075
84.2545
100.25
114.202
127.827
141.029
152.819
163.62
173.394
182.032
189.747
196.561
202.521
207.699
212.096
215.73
218.58
220.635
221.856
222.229
221.726
220.374
218.219
215.375
211.958
207.965
203.362
198.154
192.323
185.859
178.723
170.89
162.484
153.721
145.236
137.238
129.968
123.449
116.192
42.2923
28.0498
10.1874
-7.50996
-25.5373
-43.9673
-61.5046
-76.9062
-90.2172
-101.683
-111.195
-119.093
-125.813
-131.568
-136.615
-141.166
-145.351
-149.282
-153.05
-156.708
-160.295
-163.825
-167.282
-170.557
-173.509
-176.095
-178.308
-180.141
-181.586
-182.65
-183.33
-183.631
-183.543
-183.049
-182.08
-180.557
-178.165
-174.215
-167.636
59.2477
74.3329
89.6162
106.92
121.987
136.698
150.954
163.671
175.316
185.849
195.151
203.455
210.79
217.208
222.79
227.544
231.487
234.604
236.882
238.287
238.804
238.406
237.122
235.005
232.169
228.734
224.694
220.009
214.685
208.705
202.057
194.713
186.656
178.017
168.985
160.116
151.524
143.413
135.991
127.893
44.2773
28.9057
9.60124
-9.50446
-28.9578
-48.8428
-67.7528
-84.3359
-98.6445
-110.95
-121.134
-129.564
-136.718
-142.826
-148.169
-152.977
-157.392
-161.537
-165.509
-169.37
-173.16
-176.897
-180.568
-184.058
-187.217
-189.995
-192.383
-194.372
-195.953
-197.13
-197.899
-198.263
-198.21
-197.722
-196.727
-195.146
-192.655
-188.581
-181.887
59.2477
74.3329
89.6162
106.92
121.987
136.698
150.954
163.671
175.316
185.849
195.151
203.455
210.79
217.208
222.79
227.544
231.487
234.604
236.882
238.287
238.804
238.406
237.122
235.005
232.169
228.734
224.694
220.009
214.685
208.705
202.057
194.713
186.656
178.017
168.985
160.116
151.524
143.413
135.991
127.893
44.2773
28.9057
9.60124
-9.50446