/*--------------------------------*- C++ -*----------------------------------*\
| =========                 |                                                 |
| \\      /  F ield         | OpenFOAM: The Open Source CFD Toolbox           |
|  \\    /   O peration     | Version:  2506                                  |
|   \\  /    A nd           | Website:  www.openfoam.com                      |
|    \\/     M anipulation  |                                                 |
\*---------------------------------------------------------------------------*/
FoamFile
{
    version     2.0;
    format      ascii;
    arch        "LSB;label=32;scalar=64";
    class       volSymmTensorField;
    location    "50";
    object      turbulenceProperties:devReff;
}
// * * * * * * * * * * * * * * * * * * * * * * * * * * * * * * * * * * * * * //

dimensions      [0 2 -2 0 0 0 0];

internalField   nonuniform List<symmTensor> 
10720
(
(0.00121597 0.00204678 -4.04859e-21 -0.00127137 -1.49886e-20 5.53964e-05)
(0.00160641 0.0023682 2.55372e-20 -0.00164274 9.26252e-20 3.63325e-05)
(0.0022457 0.00266666 -6.11496e-20 -0.00233308 -2.35207e-19 8.73811e-05)
(0.00312658 0.00306553 1.05328e-19 -0.00323982 4.4131e-19 0.000113233)
(0.0043329 0.00343694 -1.10557e-19 -0.00446048 -3.85214e-19 0.000127574)
(0.00603427 0.00368381 -1.31626e-19 -0.00623071 -2.92077e-19 0.000196438)
(0.0083588 0.00380372 2.8906e-19 -0.00861176 7.00966e-19 0.000252965)
(0.011417 0.00358189 -5.97789e-19 -0.0117322 -1.25886e-18 0.000315189)
(0.0153678 0.00275505 -1.23079e-19 -0.0157901 2.06385e-19 0.000422356)
(0.020307 0.00110886 4.80956e-19 -0.0208352 7.84213e-19 0.000528125)
(0.026277 -0.00175465 1.03401e-18 -0.0269403 5.30553e-19 0.000663266)
(0.0334845 -0.00626122 -2.31395e-18 -0.0343162 -2.07691e-18 0.00083173)
(0.0422435 -0.0130364 3.97178e-19 -0.0432844 4.89398e-19 0.00104096)
(0.0532311 -0.0231082 1.82418e-18 -0.0545367 9.24526e-19 0.00130562)
(0.0671696 -0.0380475 -2.91876e-18 -0.0688214 -3.90408e-18 0.00165181)
(0.0853538 -0.0605554 -3.31859e-18 -0.0874701 -1.72869e-18 0.00211628)
(0.109958 -0.0956079 1.14274e-17 -0.112826 9.91247e-18 0.00286789)
(0.143515 -0.150579 1.4786e-17 -0.147463 1.87507e-17 0.00394839)
(0.194787 -0.244803 -2.13022e-17 -0.200604 -2.79577e-17 0.00581747)
(0.260941 -0.38925 -4.06849e-18 -0.269257 6.25153e-18 0.00831685)
(0.400893 -0.703794 -1.62673e-17 -0.414504 2.2632e-17 0.0136111)
(0.541677 -1.10569 1.87034e-18 -0.559879 1.85841e-17 0.0182018)
(0.991805 -2.39525 -6.04246e-17 -1.02558 -2.84682e-16 0.0337783)
(1.47184 -4.54139 1.15677e-16 -1.52774 3.38057e-16 0.0559009)
(0.724116 -3.38914 2.1393e-16 -0.760899 -5.13565e-16 0.0367831)
(0.245743 -2.04874 8.46096e-17 -0.257112 1.09869e-15 0.0113685)
(0.0657922 -1.23297 -1.20093e-16 -0.0612847 -9.64869e-17 -0.0045075)
(-0.0281275 -0.788917 2.44476e-16 0.0304351 3.50253e-16 -0.00230758)
(-0.0640197 -0.725423 3.56299e-16 0.06439 1.58394e-15 -0.000370334)
(-0.0661387 -0.593551 -2.985e-16 0.0622212 2.43434e-15 0.00391759)
(-0.0788602 -0.439737 -6.3138e-16 0.0685071 -2.28479e-15 0.0103531)
(-0.127336 -0.464565 7.97535e-17 0.125987 -8.28724e-16 0.00134983)
(-0.0903469 -0.444918 -8.85662e-16 0.10405 -2.08535e-15 -0.0137034)
(0.114456 0.0597175 -9.34248e-16 -0.115434 -7.17063e-15 0.000978547)
(0.33056 0.73257 9.66592e-16 -0.347061 9.8115e-16 0.0165007)
(0.384134 1.01855 -7.04963e-17 -0.400635 1.28284e-15 0.0165007)
(0.27409 0.737907 -2.3337e-16 -0.278365 -5.82096e-16 0.00427488)
(0.238413 0.525867 -8.34154e-17 -0.226893 -1.30882e-15 -0.0115205)
(0.522509 1.67591 -1.81916e-16 -0.607656 2.15536e-16 0.085147)
(0.000883386 0.00178089 1.25549e-20 -0.000899163 2.86345e-20 1.57767e-05)
(0.000682173 0.00152009 -1.10661e-20 -0.000714872 -2.80429e-20 3.26983e-05)
(0.000511582 0.00124129 -9.12102e-20 -0.000523332 -4.41662e-20 1.17502e-05)
(0.000408165 0.000987456 1.0517e-19 -0.000401885 -5.12808e-21 -6.28005e-06)
(0.000377086 0.000756849 -3.50628e-20 -0.000342433 6.47778e-20 -3.46536e-05)
(0.000417672 0.000600739 -1.77882e-20 -0.000373876 2.10026e-19 -4.37959e-05)
(0.000568073 0.00058311 -2.70772e-20 -0.000540662 -3.06596e-20 -2.74111e-05)
(0.000812102 0.000654282 1.18348e-19 -0.000806511 -1.37988e-19 -5.59121e-06)
(0.00117577 0.000844135 1.43073e-19 -0.00118234 -4.162e-20 6.5713e-06)
(0.00169373 0.00124054 -7.32188e-20 -0.00171335 -4.42821e-21 1.96205e-05)
(0.00243456 0.00196727 -5.07637e-20 -0.00247279 1.49883e-19 3.82352e-05)
(0.00348596 0.00319722 3.65634e-19 -0.00354637 -1.87449e-20 6.04121e-05)
(0.00490653 0.00516133 5.43842e-19 -0.00499829 -1.16566e-19 9.17654e-05)
(0.00672464 0.00810564 -1.77216e-19 -0.00685645 -1.52121e-19 0.000131807)
(0.00897407 0.0122659 1.93484e-19 -0.00914329 -1.99689e-19 0.000169212)
(0.0117373 0.0181045 3.45124e-19 -0.0119601 -1.1887e-19 0.000222804)
(0.0153316 0.0264567 -4.64667e-19 -0.0156127 5.60038e-19 0.000281061)
(0.0202661 0.0389434 9.07786e-19 -0.0206326 8.04341e-20 0.000366585)
(0.0275429 0.0586584 4.31617e-19 -0.0280298 -8.52782e-19 0.000486956)
(0.0384676 0.0909506 -2.02674e-18 -0.0391687 4.02071e-20 0.000701163)
(0.0557174 0.146792 -6.53906e-18 -0.0567728 -4.03491e-19 0.00105541)
(0.0831067 0.247092 -3.61186e-18 -0.0848415 -1.55286e-19 0.00173483)
(0.129759 0.445101 9.33603e-18 -0.132886 -1.74059e-18 0.00312722)
(0.19565 0.809173 -1.69358e-17 -0.201789 2.26356e-18 0.00613846)
(0.314005 1.65586 6.69466e-18 -0.327294 4.12151e-18 0.0132885)
(0.47219 3.38016 -2.05563e-16 -0.49981 2.4566e-17 0.0276195)
(0.697545 7.5999 -1.17907e-16 -0.76245 -1.37514e-17 0.0649051)
(0.600682 13.1953 9.29608e-17 -0.711319 -1.22893e-17 0.110637)
(0.0111642 16.6076 1.08531e-17 -0.135398 1.68345e-18 0.124234)
(-0.749295 17.7993 5.6344e-17 0.63751 -4.26931e-17 0.111784)
(-1.4872 18.0455 -5.27744e-16 1.39403 2.43307e-17 0.0931673)
(-2.16439 17.9811 1.69687e-16 2.08911 5.50481e-17 0.0752765)
(-2.77133 17.74 -2.30332e-15 2.71253 -3.44711e-16 0.0587994)
(-3.29888 17.3532 -4.07801e-15 3.25488 5.33092e-16 0.0439948)
(-3.7438 16.8342 1.33934e-15 3.71129 3.0077e-16 0.0325059)
(-4.1125 16.2187 1.21577e-15 4.08783 4.92992e-17 0.0246677)
(-4.37373 15.3622 1.7053e-15 4.35068 2.03411e-16 0.0230447)
(-4.50767 14.3064 -3.41423e-16 4.48779 -6.13247e-17 0.0198863)
(-4.12209 11.6381 -5.28739e-15 4.06206 -8.20027e-16 0.0600345)
(0.000532756 -0.000303969 6.42703e-22 -0.000503521 6.39805e-22 -2.92342e-05)
(0.00047115 -0.000396397 1.76091e-20 -0.000434475 5.39391e-20 -3.66754e-05)
(0.000376896 -0.00048059 -1.05945e-20 -0.000329567 -2.38413e-20 -4.73283e-05)
(0.000273534 -0.00052755 -3.02639e-20 -0.000216282 -5.28132e-20 -5.72527e-05)
(0.000166931 -0.000542577 1.00699e-19 -0.000101181 1.72434e-19 -6.575e-05)
(6.19834e-05 -0.000529645 3.85367e-20 1.25348e-05 6.22188e-20 -7.45182e-05)
(-2.38294e-05 -0.000490293 1.75543e-19 0.000106228 1.75444e-19 -8.2399e-05)
(-8.72919e-05 -0.000434152 -7.56078e-20 0.000175633 -2.17751e-20 -8.8341e-05)
(-0.000129519 -0.000371049 1.21291e-19 0.000222562 9.77483e-20 -9.30433e-05)
(-0.000149441 -0.000308509 7.57102e-21 0.000245665 2.76664e-21 -9.62236e-05)
(-0.000152954 -0.000251835 -1.88875e-19 0.000250821 -1.61169e-19 -9.78667e-05)
(-0.000145352 -0.000204722 2.4049e-19 0.000244021 2.72238e-19 -9.86699e-05)
(-0.000129906 -0.00016833 1.38675e-19 0.000228832 7.54519e-20 -9.89254e-05)
(-0.000110894 -0.000144239 -1.99552e-20 0.000208494 1.03774e-20 -9.75999e-05)
(-9.44555e-05 -0.000143843 -1.08521e-19 0.000195967 9.83934e-21 -0.000101511)
(-8.09296e-05 -0.000182802 1.82208e-19 0.000203585 1.85401e-19 -0.000122656)
(-6.13179e-05 -0.00038159 2.63551e-19 0.000279142 -2.68837e-19 -0.000217824)
(0.00010857 -0.00110715 -2.07946e-18 0.0003741 -2.21128e-18 -0.00048267)
(0.000947041 -0.00334412 4.67566e-19 6.14971e-05 3.29069e-18 -0.00100854)
(0.00357931 -0.00916702 4.03739e-18 -0.00181765 -8.34632e-19 -0.00176166)
(0.014128 -0.0320888 9.65516e-18 -0.0105323 3.85548e-18 -0.00359571)
(0.04827 -0.106787 -1.60106e-17 -0.042008 -1.26575e-17 -0.00626197)
(0.159179 -0.372517 4.79265e-17 -0.149887 1.08996e-16 -0.00929153)
(0.658757 -1.76051 2.39614e-18 -0.649778 -1.44636e-16 -0.00897879)
(1.23777 -4.04945 -2.58933e-16 -1.25855 3.08671e-16 0.0207799)
(1.44004 -6.4427 4.75637e-17 -1.47347 -2.34505e-15 0.0334304)
(1.0396 -8.33213 1.90671e-17 -1.06797 2.65775e-16 0.028364)
(0.312156 -8.30087 -2.61026e-16 -0.329032 -1.93694e-15 0.016876)
(-0.182986 -7.1182 -4.38964e-16 0.200839 -9.07338e-15 -0.0178534)
(-0.445998 -5.83494 -3.86774e-16 0.473899 -1.2052e-14 -0.0279017)
(-0.635435 -4.6705 1.02477e-15 0.623221 1.32636e-14 0.0122138)
(-0.600646 -3.31183 -1.04336e-15 0.543526 2.58619e-15 0.0571204)
(-0.231671 -2.06404 -6.62985e-16 0.232582 1.36587e-15 -0.000910546)
(-0.134749 -1.927 6.67736e-15 0.201446 4.0916e-14 -0.0666965)
(-0.521924 -2.42813 -9.19936e-16 0.56842 -4.45641e-15 -0.0464961)
(-1.04964 -2.8264 -1.40816e-15 1.05386 -8.42884e-15 -0.00421243)
(-1.29903 -2.89309 4.52823e-16 1.29411 3.11463e-15 0.00492072)
(-1.4296 -3.36795 1.31844e-15 1.46104 9.74536e-15 -0.0314302)
(-2.17352 -3.45879 1.80481e-16 2.14097 -7.69003e-16 0.0325521)
(0.000572033 -0.000190676 9.26811e-21 -0.000551415 -1.05264e-21 -2.06182e-05)
(0.000583343 -7.36431e-05 -1.2318e-20 -0.000569393 -1.20325e-19 -1.39494e-05)
(0.000561116 6.2981e-05 -2.57287e-20 -0.000557297 9.2564e-21 -3.81912e-06)
(0.000493225 0.00019876 -2.31681e-20 -0.000496501 2.0632e-19 3.27535e-06)
(0.000389295 0.000303968 4.59946e-20 -0.000397461 -2.2633e-20 8.16584e-06)
(0.000274216 0.000367108 -3.46377e-21 -0.000286252 -2.29764e-19 1.20362e-05)
(0.000149766 0.000394858 -1.49787e-20 -0.000160982 -1.11777e-19 1.12154e-05)
(2.35819e-05 0.000380447 -2.36929e-19 -2.78177e-05 1.12083e-19 4.23584e-06)
(-7.59453e-05 0.000328547 7.31688e-20 8.13225e-05 7.60211e-20 -5.37717e-06)
(-0.000136186 0.000259237 -4.22719e-20 0.000150189 -4.44153e-20 -1.40028e-05)
(-0.00016042 0.000191143 -3.60178e-20 0.00018092 -4.39422e-20 -2.04998e-05)
(-0.000159954 0.000134938 -4.82821e-20 0.000184793 -3.0587e-20 -2.48395e-05)
(-0.000145959 9.31516e-05 -3.63168e-21 0.000173278 1.62728e-20 -2.73188e-05)
(-0.000125988 6.50442e-05 2.64607e-20 0.000154243 4.91486e-20 -2.82544e-05)
(-0.000105336 4.78553e-05 5.72596e-20 0.000133269 4.78573e-21 -2.79332e-05)
(-8.6959e-05 3.78064e-05 -1.01421e-19 0.000113722 1.45744e-20 -2.67632e-05)
(-7.13544e-05 3.23245e-05 1.04046e-19 9.64418e-05 -1.00453e-20 -2.50874e-05)
(-5.87048e-05 2.95564e-05 -2.031e-20 8.18663e-05 -9.99875e-21 -2.31615e-05)
(-4.86059e-05 2.79808e-05 -4.78897e-20 6.9693e-05 3.17915e-20 -2.10871e-05)
(-4.06327e-05 2.6805e-05 -3.56447e-20 5.97049e-05 1.67128e-20 -1.90722e-05)
(-3.43885e-05 2.5599e-05 -8.41052e-20 5.17055e-05 3.70046e-20 -1.7317e-05)
(-2.98773e-05 2.44206e-05 -1.06139e-19 4.60225e-05 2.69214e-20 -1.61452e-05)
(-2.72285e-05 2.37779e-05 -1.35861e-19 4.33047e-05 1.82737e-20 -1.60761e-05)
(-2.54334e-05 2.40631e-05 6.58811e-20 4.24676e-05 -7.22308e-21 -1.70342e-05)
(-7.282e-05 8.09878e-05 -1.77766e-20 0.000129298 -8.09315e-21 -5.64778e-05)
(-0.000580764 0.000786144 1.4289e-18 0.00108976 -4.40306e-19 -0.000509)
(-0.00344538 0.00551978 8.38512e-18 0.00670942 -2.56799e-20 -0.00326403)
(-0.0159657 0.0306326 1.47696e-18 0.0316948 2.79527e-18 -0.015729)
(-0.0357012 0.0863771 -6.62921e-19 0.0710368 -8.99821e-19 -0.0353356)
(-0.0523789 0.162898 7.49296e-17 0.101886 1.68172e-17 -0.0495068)
(-0.0633069 0.24259 5.25718e-16 0.115943 -4.39718e-17 -0.0526366)
(-0.0717094 0.309452 3.11269e-16 0.11986 3.08813e-17 -0.0481505)
(-0.0815836 0.360702 2.15116e-15 0.123514 5.83231e-17 -0.0419301)
(-0.0940903 0.40237 3.03762e-15 0.130999 -5.04666e-16 -0.0369089)
(-0.109357 0.439367 -7.37232e-16 0.142441 1.67866e-16 -0.0330835)
(-0.125231 0.479124 -5.94479e-16 0.155414 1.00021e-17 -0.0301828)
(-0.144118 0.519962 -1.50092e-15 0.170291 -9.2369e-17 -0.0261732)
(-0.172212 0.6475 -2.87421e-15 0.198192 -2.47921e-16 -0.0259797)
(-0.225156 0.921417 -2.24182e-15 0.199027 1.07367e-15 0.0261295)
(0.000360041 -0.000197355 3.6777e-21 -0.000370567 8.35534e-21 1.05259e-05)
(0.00030685 -0.000260006 -3.29144e-20 -0.000321044 -4.35538e-20 1.41942e-05)
(0.00023258 -0.000312135 -3.20764e-21 -0.000250746 -1.28838e-20 1.81666e-05)
(0.000145058 -0.000342239 3.25705e-20 -0.000168559 3.99623e-20 2.35012e-05)
(5.41002e-05 -0.000349789 -6.55494e-20 -8.23792e-05 -9.5407e-20 2.82791e-05)
(-3.63807e-05 -0.000332971 -6.50051e-20 2.9618e-06 -9.91e-20 3.34189e-05)
(-0.000116711 -0.000293307 -1.46679e-19 7.75947e-05 -1.90542e-19 3.91168e-05)
(-0.000179956 -0.000237862 -8.39703e-21 0.000135819 -6.05374e-21 4.41361e-05)
(-0.000224426 -0.000171965 -8.7489e-20 0.000175625 -1.34842e-19 4.88012e-05)
(-0.000249073 -0.000103105 2.58326e-19 0.000195948 2.65402e-19 5.31253e-05)
(-0.000255878 -3.6964e-05 -2.30147e-20 0.000199283 4.885e-20 5.65956e-05)
(-0.000248172 2.29112e-05 3.99331e-20 0.000188668 2.13204e-20 5.9504e-05)
(-0.000229774 7.43102e-05 -2.06502e-19 0.000167974 -2.28555e-19 6.18006e-05)
(-0.000203842 0.000116476 1.10737e-19 0.000140578 -2.91744e-21 6.32639e-05)
(-0.000176574 0.000149877 4.18291e-20 0.000113813 9.88377e-20 6.27608e-05)
(-0.000153651 0.000177916 5.38511e-20 9.22481e-05 2.38047e-20 6.14033e-05)
(-0.000127792 0.000189219 -2.2835e-19 7.26457e-05 -1.26227e-19 5.51459e-05)
(-0.000104612 0.000188514 1.89108e-19 5.78689e-05 1.36523e-19 4.67429e-05)
(-7.74576e-05 0.000161388 5.5006e-20 4.34531e-05 3.1761e-21 3.40046e-05)
(-0.000361721 0.000807036 -1.04755e-18 0.000216467 -1.83154e-19 0.000145253)
(-0.000162451 0.000354938 5.11251e-19 0.000105892 -1.58106e-19 5.65595e-05)
(-0.00065305 0.00129521 1.37689e-19 0.000429358 1.14818e-18 0.000223692)
(0.000129211 -0.000373078 3.36453e-19 -0.000168551 -3.71031e-19 3.93403e-05)
(0.017889 -0.0471813 -8.08052e-18 -0.0176645 -7.34573e-18 -0.000224515)
(0.164113 -0.497182 6.32548e-18 -0.160888 5.1489e-17 -0.0032245)
(0.549949 -2.02936 -1.06612e-16 -0.5439 7.23506e-17 -0.00604861)
(1.09592 -5.41954 5.90851e-17 -1.09111 2.01626e-17 -0.00481192)
(1.14558 -9.02354 -1.35124e-16 -1.14689 4.76257e-16 0.00130153)
(0.498808 -10.0245 -7.82978e-16 -0.499739 1.1706e-15 0.000931765)
(-0.175859 -9.07251 7.51511e-16 0.188363 1.18227e-15 -0.0125037)
(-0.633345 -7.58192 7.25047e-16 0.622274 -1.2285e-15 0.011071)
(-0.683115 -5.6102 -1.58903e-15 0.624166 2.92619e-15 0.0589484)
(-0.272332 -3.93848 1.85506e-15 0.251557 1.93008e-14 0.0207746)
(-0.330284 -4.17974 -1.1307e-15 0.401969 -1.47634e-14 -0.0716847)
(-1.11935 -5.01641 -1.32521e-15 1.18319 -1.9447e-15 -0.0638352)
(-1.83505 -4.87346 -6.56801e-16 1.84789 -7.32095e-15 -0.0128449)
(-2.00396 -4.26433 1.31139e-15 2.00547 -1.33855e-15 -0.00151184)
(-1.69312 -3.70481 3.1117e-16 1.76612 -6.37523e-15 -0.0730016)
(-2.21405 -3.5158 -3.22878e-16 2.20547 5.27112e-16 0.00858528)
(0.000397773 -0.000122213 -7.91848e-21 -0.000406534 -1.40653e-20 8.76158e-06)
(0.000416503 -4.47028e-05 -1.30982e-20 -0.000422416 1.78546e-20 5.91329e-06)
(0.000414614 4.71576e-05 1.02602e-19 -0.00041886 1.08747e-19 4.246e-06)
(0.000382393 0.000138269 -1.53849e-22 -0.000383271 -9.30263e-20 8.77939e-07)
(0.000320386 0.000217683 -7.75261e-21 -0.000319938 -8.31273e-20 -4.47996e-07)
(0.000237432 0.00027446 -3.72973e-20 -0.000238019 1.08737e-19 5.87095e-07)
(0.000143165 0.000306211 1.41423e-19 -0.00014431 1.33794e-19 1.14445e-06)
(4.91973e-05 0.000303423 1.27238e-19 -5.01815e-05 6.32857e-20 9.84172e-07)
(-2.82318e-05 0.00026954 8.12456e-20 2.62259e-05 -9.06488e-20 2.00591e-06)
(-8.1319e-05 0.000217821 3.33506e-20 7.69883e-05 6.16563e-20 4.33072e-06)
(-0.000109336 0.000161206 -8.46996e-20 0.000102177 3.00339e-20 7.15897e-06)
(-0.000117298 0.000109356 3.4303e-21 0.000107453 4.02424e-20 9.84535e-06)
(-0.000112061 6.6791e-05 4.74414e-20 9.98514e-05 -5.80269e-20 1.22096e-05)
(-9.93923e-05 3.47476e-05 1.41064e-19 8.51519e-05 -7.31103e-20 1.42404e-05)
(-8.43428e-05 1.2653e-05 -1.05261e-20 6.87468e-05 -1.94521e-21 1.55961e-05)
(-6.98369e-05 -1.96005e-06 -8.82289e-21 5.33114e-05 2.90438e-20 1.65256e-05)
(-5.72539e-05 -1.1075e-05 1.13392e-19 4.02566e-05 -7.03686e-20 1.69973e-05)
(-4.69944e-05 -1.65664e-05 1.03062e-20 2.98335e-05 5.47412e-21 1.71609e-05)
(-3.91523e-05 -1.99047e-05 1.15636e-19 2.21437e-05 -1.82755e-20 1.70086e-05)
(-3.31706e-05 -2.23225e-05 1.19468e-19 1.63941e-05 -2.55581e-21 1.67765e-05)
(-2.85496e-05 -2.44557e-05 3.03839e-19 1.21126e-05 -4.77726e-20 1.6437e-05)
(-2.45432e-05 -2.69129e-05 3.70841e-19 8.37057e-06 -5.7269e-20 1.61727e-05)
(-2.02023e-05 -2.98984e-05 2.03652e-19 4.17686e-06 -1.65722e-20 1.60254e-05)
(-1.3941e-05 -3.28454e-05 4.30318e-20 -2.59837e-06 -2.99325e-21 1.65393e-05)
(-5.76638e-06 -3.3571e-05 -5.14274e-20 -1.18111e-05 2.62987e-21 1.75775e-05)
(2.20179e-06 -3.14581e-05 2.00424e-19 -2.08194e-05 -1.09655e-21 1.86176e-05)
(8.30253e-06 -2.64338e-05 -5.42986e-20 -2.70813e-05 9.32916e-21 1.87788e-05)
(1.23402e-05 -2.13521e-05 -4.24929e-20 -3.13224e-05 -2.94763e-22 1.89823e-05)
(0.000245266 -0.000258877 9.79265e-20 -0.000558858 1.05152e-20 0.000313592)
(0.00110833 -0.000505233 -2.98917e-18 -0.00239115 3.54116e-19 0.00128282)
(0.00257101 0.00112778 -1.52218e-17 -0.00543388 6.13439e-18 0.00286288)
(0.0032776 0.00841708 -8.29454e-17 -0.0071801 -3.38178e-18 0.0039025)
(0.0016284 0.0244539 -1.90599e-16 -0.00512076 4.01049e-17 0.00349236)
(-0.00297949 0.0499705 -4.48533e-16 0.00120314 3.99081e-17 0.00177635)
(-0.010425 0.0833181 -1.04312e-15 0.010782 -2.71105e-16 -0.000357045)
(-0.0179814 0.121146 2.51098e-16 0.0200013 1.00847e-16 -0.00201992)
(-0.025921 0.158886 -1.29527e-15 0.0289316 -2.87566e-16 -0.00301057)
(-0.0138046 0.189929 3.51586e-15 0.0140189 5.7657e-16 -0.00021426)
(-0.0260602 0.266724 5.21281e-15 0.0142734 9.67533e-16 0.0117869)
(0.000291382 -0.000160015 7.58001e-21 -0.000288673 8.83596e-21 -2.70944e-06)
(0.000258371 -0.000209121 -7.94387e-21 -0.000254923 -1.41694e-20 -3.44817e-06)
(0.000210803 -0.000254491 -4.81593e-21 -0.000205616 -1.33961e-20 -5.18745e-06)
(0.000153878 -0.000288067 5.19682e-20 -0.000146857 7.23908e-20 -7.02092e-06)
(9.19401e-05 -0.000306454 4.23241e-20 -8.28829e-05 6.18069e-20 -9.05726e-06)
(2.73564e-05 -0.000309092 6.55057e-20 -1.58649e-05 7.7053e-20 -1.14915e-05)
(-3.33364e-05 -0.000296298 8.01175e-20 4.74713e-05 8.55891e-20 -1.41349e-05)
(-8.52029e-05 -0.000270132 -3.73878e-20 0.00010213 -4.9489e-20 -1.69276e-05)
(-0.000126164 -0.000234187 -1.59716e-19 0.000146199 -1.4711e-19 -2.00346e-05)
(-0.000154162 -0.000193014 1.76587e-19 0.000177159 1.06496e-19 -2.29966e-05)
(-0.000169602 -0.000150395 1.66139e-19 0.000195534 1.35477e-19 -2.59324e-05)
(-0.000174042 -0.000109589 2.20848e-19 0.000202706 1.15582e-19 -2.86631e-05)
(-0.000169521 -7.29809e-05 -3.29184e-19 0.000200705 -1.22271e-19 -3.11842e-05)
(-0.000158039 -4.17386e-05 -3.19822e-19 0.000191371 -2.04202e-19 -3.33328e-05)
(-0.000141627 -1.65393e-05 3.87497e-19 0.0001765 1.31538e-19 -3.48729e-05)
(-0.000121626 2.04672e-06 8.98433e-20 0.000157479 5.01404e-20 -3.58535e-05)
(-9.88159e-05 1.70219e-05 -5.44811e-20 0.00013361 5.12861e-21 -3.4794e-05)
(-7.59662e-05 2.88831e-05 -2.06224e-19 0.00010846 -1.26745e-19 -3.24937e-05)
(-5.26869e-05 3.77897e-05 4.05963e-20 7.97408e-05 -1.67645e-20 -2.70538e-05)
(-3.42701e-05 4.30706e-05 2.03136e-19 5.34311e-05 6.41028e-20 -1.9161e-05)
(-2.61186e-05 4.69892e-05 -2.29372e-19 3.74281e-05 -6.7288e-20 -1.13095e-05)
(-6.50765e-05 0.00012416 2.18079e-19 7.91068e-05 3.68437e-20 -1.40302e-05)
(-4.68265e-05 9.07538e-05 -3.63638e-20 5.1792e-05 -8.52382e-21 -4.96557e-06)
(-0.00146527 0.00300893 -3.69743e-18 0.00161665 1.08964e-18 -0.000151374)
(4.12966e-06 -1.85562e-05 4.8577e-20 -1.01423e-06 -8.93993e-21 -3.11543e-06)
(0.0190068 -0.0631763 -1.75377e-17 -0.0179321 1.53081e-17 -0.0010747)
(0.178499 -0.73017 2.77118e-19 -0.174486 -3.92907e-18 -0.00401374)
(0.626406 -3.44716 1.27679e-16 -0.620582 -4.20819e-17 -0.00582371)
(0.901103 -7.90593 -1.39228e-17 -0.899069 7.48756e-16 -0.00203439)
(0.4477 -10.419 5.95667e-16 -0.450558 -1.58925e-15 0.00285818)
(-0.250927 -10.0061 -1.63436e-17 0.235157 -3.26825e-15 0.0157699)
(-0.518936 -7.9423 3.69344e-15 0.482325 3.13036e-15 0.0366111)
(-0.290531 -6.05911 2.07012e-15 0.282594 1.83532e-15 0.00793713)
(-0.512044 -6.15253 -1.56078e-15 0.570809 -4.51505e-15 -0.0587643)
(-1.51902 -6.8284 -2.25642e-15 1.56943 -7.23281e-16 -0.0504172)
(-2.40614 -6.41909 3.34203e-15 2.41526 1.98262e-14 -0.00912056)
(-2.50958 -5.2934 -5.08715e-15 2.50784 -4.51479e-15 0.00174886)
(-1.95571 -4.13686 -5.36588e-15 2.02983 -8.41371e-16 -0.0741213)
(-2.10293 -3.34629 3.27556e-15 2.06439 -1.22009e-15 0.0385372)
(0.000313091 -0.000102496 -1.45707e-20 -0.000312233 -2.16091e-20 -8.58015e-07)
(0.000322875 -4.3812e-05 -1.10608e-20 -0.000322554 4.30133e-20 -3.20954e-07)
(0.000318234 2.50156e-05 4.4042e-20 -0.000319327 4.53745e-20 1.09257e-06)
(0.00029509 9.35709e-05 -4.16956e-20 -0.000295214 1.87215e-20 1.23562e-07)
(0.000253408 0.000154968 2.37672e-20 -0.000253156 8.40505e-20 -2.52714e-07)
(0.000196714 0.000202278 -3.33032e-21 -0.00019681 -1.04096e-19 9.62778e-08)
(0.00012845 0.000230761 4.21088e-20 -0.000129323 3.39507e-21 8.73014e-07)
(5.80403e-05 0.000235465 -1.03584e-19 -5.90006e-05 -5.6901e-20 9.6023e-07)
(-3.63279e-06 0.000218811 -4.1155e-20 2.9537e-06 3.36757e-21 6.79092e-07)
(-5.08725e-05 0.000188053 1.62681e-19 5.07865e-05 6.88674e-22 8.60852e-08)
(-8.14236e-05 0.000150893 4.56355e-20 8.23781e-05 -7.82977e-21 -9.54506e-07)
(-9.68078e-05 0.000114095 7.32713e-20 9.91299e-05 -3.90792e-20 -2.32209e-06)
(-0.000100707 8.18021e-05 -1.5782e-19 0.000104477 -1.48839e-20 -3.77023e-06)
(-9.70656e-05 5.59101e-05 -1.46103e-19 0.000102233 3.96871e-20 -5.16745e-06)
(-8.94065e-05 3.68523e-05 2.74981e-20 9.58997e-05 1.76965e-20 -6.49328e-06)
(-8.03487e-05 2.34482e-05 3.8069e-20 8.79048e-05 -1.0799e-20 -7.55607e-06)
(-7.14538e-05 1.44457e-05 -1.26743e-19 7.98306e-05 1.34225e-20 -8.37683e-06)
(-6.34969e-05 8.50745e-06 5.70248e-21 7.24488e-05 -1.03209e-20 -8.95198e-06)
(-5.68525e-05 4.47131e-06 -4.10748e-20 6.6204e-05 1.17375e-21 -9.35151e-06)
(-5.14096e-05 1.29882e-06 1.0217e-19 6.09432e-05 -3.33383e-20 -9.53363e-06)
(-4.6919e-05 -1.60724e-06 -1.16581e-19 5.65066e-05 5.84847e-22 -9.58758e-06)
(-4.29238e-05 -4.70416e-06 -2.1088e-19 5.24347e-05 1.46258e-20 -9.51091e-06)
(-3.88153e-05 -8.18169e-06 2.38549e-20 4.81756e-05 -8.79972e-21 -9.36038e-06)
(-3.38086e-05 -1.15645e-05 6.33543e-20 4.29351e-05 -8.9643e-21 -9.12657e-06)
(-2.82248e-05 -1.34707e-05 1.64367e-19 3.73167e-05 -1.31784e-20 -9.09184e-06)
(-2.34103e-05 -1.36604e-05 -1.62173e-19 3.28836e-05 1.80801e-20 -9.47334e-06)
(-1.97432e-05 -1.30375e-05 -2.36196e-20 2.97099e-05 -5.49937e-21 -9.96673e-06)
(-1.71307e-05 -1.23663e-05 1.67291e-20 2.76081e-05 -4.27897e-21 -1.04774e-05)
(-1.3749e-05 -1.08704e-05 -7.79454e-21 2.36407e-05 8.12505e-22 -9.89168e-06)
(-1.14158e-05 -1.02819e-05 -1.121e-20 2.08858e-05 -8.54482e-21 -9.47e-06)
(-4.7447e-06 -5.26503e-06 -1.05197e-20 9.32518e-06 -6.71602e-21 -4.58048e-06)
(-4.24736e-06 -6.48779e-06 5.98875e-20 9.44769e-06 4.33842e-21 -5.20033e-06)
(-3.37834e-05 -9.72626e-05 3.88728e-18 0.000112527 9.51503e-19 -7.87434e-05)
(8.27235e-05 -3.57701e-05 3.15324e-17 5.18137e-05 3.69321e-19 -0.000134537)
(0.000526393 0.000981444 1.15316e-16 -0.000488648 -3.03169e-18 -3.77446e-05)
(0.00153492 0.00468304 -2.32775e-16 -0.0017997 -2.10499e-17 0.00026478)
(0.0026854 0.0144477 9.40478e-16 -0.00333699 1.27902e-16 0.000651592)
(0.00939342 0.0367606 -6.26299e-16 -0.0109964 -1.42444e-16 0.00160299)
(0.00178931 0.107957 -4.33968e-16 -0.00604702 -1.18414e-15 0.00425771)
(0.000223932 -0.000121993 -1.38255e-20 -0.000224707 -1.26329e-20 7.74591e-07)
(0.000197751 -0.000158775 1.39455e-21 -0.000199151 -1.19955e-21 1.40025e-06)
(0.000161086 -0.000192575 1.74656e-20 -0.00016278 2.20431e-20 1.69346e-06)
(0.000116719 -0.000217374 -9.54142e-20 -0.000119049 -9.20993e-20 2.33011e-06)
(6.78927e-05 -0.000231006 -7.05933e-20 -7.10643e-05 -8.23719e-20 3.17161e-06)
(1.63735e-05 -0.000232608 1.52353e-19 -2.03747e-05 1.53946e-19 4.00127e-06)
(-3.31929e-05 -0.000221655 -1.53813e-19 2.80985e-05 -1.56344e-19 5.09436e-06)
(-7.70303e-05 -0.000199348 -6.02476e-20 7.0709e-05 -5.1661e-20 6.32126e-06)
(-0.000112705 -0.000167944 -1.59641e-19 0.000105138 -1.18989e-19 7.56739e-06)
(-0.000138273 -0.000130719 -4.11524e-20 0.000129232 -5.1776e-20 9.04044e-06)
(-0.000153243 -9.08117e-05 2.19679e-20 0.000142672 -2.81942e-21 1.0571e-05)
(-0.000158135 -5.11387e-05 -1.31715e-19 0.000145959 -1.38453e-19 1.21754e-05)
(-0.000154157 -1.40955e-05 3.65393e-19 0.000140316 2.40897e-19 1.38409e-05)
(-0.000142923 1.8688e-05 -1.03277e-19 0.000127363 -1.79704e-20 1.55603e-05)
(-0.000126069 4.59842e-05 -2.98336e-19 0.000108855 -1.35104e-19 1.72138e-05)
(-0.000105657 6.7533e-05 1.87588e-19 8.67924e-05 1.43953e-20 1.88644e-05)
(-8.39378e-05 8.24581e-05 -1.42794e-19 6.42549e-05 -7.80025e-20 1.96829e-05)
(-6.24715e-05 9.0131e-05 4.30248e-21 4.3269e-05 9.14275e-20 1.92025e-05)
(-4.16516e-05 9.03778e-05 -3.00999e-20 2.41278e-05 -2.32144e-20 1.75238e-05)
(-2.35717e-05 8.56344e-05 -2.55333e-19 8.42962e-06 -1.61084e-19 1.51421e-05)
(-8.61907e-06 6.53224e-05 1.64567e-19 -1.31004e-06 1.43211e-19 9.92911e-06)
(-5.00912e-06 4.72461e-05 2.13189e-21 1.22295e-07 -7.99908e-20 4.88683e-06)
(-1.24054e-05 5.32927e-05 3.08686e-20 9.96684e-06 9.28486e-21 2.43858e-06)
(-2.28206e-05 7.51412e-05 9.83418e-20 2.14366e-05 2.68058e-21 1.38394e-06)
(-2.42206e-05 8.54692e-05 -3.4245e-20 2.36193e-05 -9.87201e-21 6.01363e-07)
(-0.000949262 0.00492542 9.73461e-18 0.000978181 1.78303e-18 -2.89189e-05)
(0.00718633 -0.0134884 -1.60937e-18 -0.0067336 2.59261e-19 -0.00045273)
(0.0422835 -0.172744 -1.36287e-17 -0.0414039 -8.2591e-18 -0.000879558)
(0.323146 -1.94508 -3.60785e-17 -0.319383 8.268e-17 -0.00376218)
(0.625233 -6.30804 -2.81198e-15 -0.624353 4.62357e-17 -0.000879883)
(0.339406 -9.60678 -1.12442e-15 -0.359165 1.99637e-16 0.0197596)
(-0.087232 -9.45836 8.27337e-16 0.058607 -5.38479e-15 0.028625)
(-0.201734 -8.13939 2.75883e-15 0.214027 -6.62217e-15 -0.0122926)
(-0.69037 -8.13471 -6.27613e-15 0.75255 -4.14435e-16 -0.06218)
(-1.86526 -8.51018 6.11162e-15 1.90454 1.0848e-14 -0.0392801)
(-2.81897 -7.71235 -1.84119e-15 2.82044 4.33202e-16 -0.00147068)
(-2.84658 -6.09816 -5.74757e-16 2.83807 1.33022e-14 0.00850573)
(-2.11857 -4.44894 3.94279e-16 2.18694 4.29899e-15 -0.0683697)
(-1.94654 -3.09966 -8.53181e-15 1.8929 2.73822e-15 0.0536477)
(0.000241649 -7.96266e-05 1.01639e-20 -0.000242612 -4.24025e-21 9.63054e-07)
(0.000250627 -3.60606e-05 -3.49746e-20 -0.000251106 -2.63336e-20 4.7849e-07)
(0.000249115 1.49751e-05 -6.90418e-21 -0.000249869 1.77173e-20 7.54211e-07)
(0.000233812 6.66085e-05 2.9719e-20 -0.000233455 -8.67797e-20 -3.57023e-07)
(0.000204696 0.000114185 -1.90726e-19 -0.000204194 -1.56992e-19 -5.02523e-07)
(0.000163744 0.000152787 -1.46405e-19 -0.000163546 1.27843e-19 -1.98059e-07)
(0.00011343 0.000178517 2.27395e-19 -0.000113585 3.68546e-20 1.55568e-07)
(6.01814e-05 0.000187202 -1.08564e-19 -6.0355e-05 -1.04923e-19 1.73598e-07)
(1.14944e-05 0.000179711 -6.45424e-20 -1.16592e-05 1.95919e-20 1.64785e-07)
(-2.80945e-05 0.000160108 -3.90592e-20 2.78054e-05 -7.15307e-20 2.8913e-07)
(-5.59473e-05 0.00013336 3.54146e-21 5.54601e-05 2.9982e-20 4.87126e-07)
(-7.20791e-05 0.000104526 -4.83902e-20 7.13083e-05 -2.60907e-20 7.70793e-07)
(-7.84817e-05 7.7308e-05 -1.03528e-19 7.73002e-05 8.72258e-20 1.1815e-06)
(-7.78073e-05 5.38469e-05 1.18653e-19 7.61064e-05 1.06985e-20 1.7009e-06)
(-7.26759e-05 3.51414e-05 7.68247e-20 7.04135e-05 -2.94208e-20 2.26245e-06)
(-6.5388e-05 2.09705e-05 -1.5766e-20 6.25318e-05 -1.68175e-20 2.85623e-06)
(-5.75406e-05 1.06568e-05 4.49502e-20 5.41016e-05 -2.60685e-22 3.43895e-06)
(-5.00976e-05 3.29852e-06 -7.72998e-20 4.61433e-05 1.84083e-20 3.95431e-06)
(-4.35828e-05 -1.97074e-06 5.46584e-20 3.92243e-05 -6.65308e-21 4.3585e-06)
(-3.80772e-05 -5.98721e-06 -6.47694e-20 3.33973e-05 -7.53874e-21 4.67993e-06)
(-3.34293e-05 -9.34247e-06 7.15393e-20 2.85088e-05 -5.53006e-21 4.92051e-06)
(-2.9249e-05 -1.24742e-05 8.14932e-20 2.41234e-05 -1.46919e-21 5.12557e-06)
(-2.50159e-05 -1.55677e-05 -1.50158e-20 1.97199e-05 4.36661e-21 5.29595e-06)
(-2.00227e-05 -1.82968e-05 -1.63573e-19 1.45044e-05 1.282e-20 5.51822e-06)
(-1.43465e-05 -1.97283e-05 -5.36016e-20 8.60282e-06 4.71391e-21 5.74369e-06)
(-9.00846e-06 -1.96135e-05 -1.71138e-20 3.14892e-06 -6.59376e-21 5.85954e-06)
(-4.49567e-06 -1.86729e-05 6.57797e-20 -1.55249e-06 -3.64942e-21 6.04816e-06)
(-7.4487e-07 -1.73789e-05 9.19375e-22 -5.56706e-06 1.18035e-21 6.31193e-06)
(2.34585e-06 -1.60684e-05 -2.91023e-21 -8.91905e-06 -1.06371e-21 6.5732e-06)
(4.68849e-06 -1.44944e-05 4.27828e-20 -1.12077e-05 4.1859e-21 6.51917e-06)
(6.56723e-06 -1.41087e-05 3.02041e-20 -1.30486e-05 1.77832e-21 6.48134e-06)
(4.32792e-06 -7.61426e-06 -9.89992e-20 -7.62978e-06 -1.13316e-20 3.30187e-06)
(3.76605e-05 -5.86246e-05 -2.04116e-18 -6.0016e-05 -1.14916e-19 2.23555e-05)
(5.49453e-06 -7.68538e-06 -5.76092e-20 -7.91847e-06 3.59643e-20 2.42394e-06)
(0.000407321 -0.000502097 2.63462e-18 -0.000534272 2.83917e-18 0.000126951)
(6.10204e-05 -5.68404e-05 -7.16906e-19 -7.19647e-05 -6.6381e-19 1.09443e-05)
(0.000592956 -0.000288384 -2.66147e-17 -0.000646377 -6.03855e-19 5.34205e-05)
(0.00159208 0.000333415 8.34664e-17 -0.00166491 9.45735e-18 7.28344e-05)
(0.0054812 0.0210045 -3.26367e-16 -0.00683256 3.27485e-17 0.00135136)
(0.000179972 -9.87179e-05 1.29465e-20 -0.000179711 1.03368e-20 -2.60834e-07)
(0.000160633 -0.000127966 -2.92173e-20 -0.000160432 -2.25417e-20 -2.01218e-07)
(0.000133251 -0.000155528 -4.66885e-22 -0.000132821 -6.57704e-21 -4.30107e-07)
(9.99355e-05 -0.00017701 -5.65087e-21 -9.92763e-05 -1.34082e-20 -6.59163e-07)
(6.29427e-05 -0.000190553 8.49404e-20 -6.20968e-05 8.01533e-20 -8.45852e-07)
(2.30823e-05 -0.000195596 6.10833e-20 -2.18591e-05 5.57407e-20 -1.2232e-06)
(-1.62608e-05 -0.000191348 8.50477e-21 1.78645e-05 1.44251e-20 -1.60364e-06)
(-5.228e-05 -0.000178319 1.64244e-19 5.43597e-05 1.41097e-19 -2.07965e-06)
(-8.3137e-05 -0.000157836 -1.18465e-20 8.58611e-05 3.36923e-21 -2.72408e-06)
(-0.000106985 -0.000132037 -5.35359e-20 0.000110391 -2.97316e-20 -3.40614e-06)
(-0.000123045 -0.000103124 1.03468e-19 0.000127256 4.63041e-20 -4.21082e-06)