/*--------------------------------*- C++ -*----------------------------------*\
| =========                 |                                                 |
| \\      /  F ield         | OpenFOAM: The Open Source CFD Toolbox           |
|  \\    /   O peration     | Version:  2506                                  |
|   \\  /    A nd           | Website:  www.openfoam.com                      |
|    \\/     M anipulation  |                                                 |
\*---------------------------------------------------------------------------*/
FoamFile
{
    version     2.0;
    format      ascii;
    arch        "LSB;label=32;scalar=64";
    class       pointScalarField;
    location    "4";
    object      streamFunction;
}
// * * * * * * * * * * * * * * * * * * * * * * * * * * * * * * * * * * * * * //

dimensions      [0 3 -1 0 0 0 0];

internalField   nonuniform List<scalar> 
882
(
0
0
0
0
0
0
0
0
0
0
0
0
0
0
0
0
0
0
0
0
0
0
-2.6128e-05
-8.6512e-05
-0.000160344
-0.000237442
-0.000314795
-0.000391422
-0.000465927
-0.000536932
-0.000601386
-0.000655747
-0.00069538
-0.000714232
-0.000706276
-0.000665632
-0.000588632
-0.000475791
-0.000335048
-0.000184065
-5.5718e-05
0
0
-9.09354e-05
-0.000271815
-0.000487134
-0.000711057
-0.000934138
-0.00115221
-0.00136103
-0.00155566
-0.00172828
-0.0018692
-0.00196625
-0.00200491
-0.00196996
-0.00184722
-0.00162855
-0.00131665
-0.000932589
-0.000522952
-0.000170036
0
0
-0.000174568
-0.000505129
-0.000893393
-0.00129537
-0.00169415
-0.00208178
-0.00245068
-0.00279187
-0.00309231
-0.00333555
-0.00350106
-0.0035645
-0.00349954
-0.00328136
-0.00289473
-0.00234307
-0.00166243
-0.000935508
-0.000307634
0
0
-0.000265647
-0.000759504
-0.00133568
-0.00193066
-0.00252005
-0.00309232
-0.00363696
-0.00414132
-0.00458743
-0.00495213
-0.00520592
-0.00531318
-0.0052337
-0.00492654
-0.00436331
-0.00354273
-0.00251544
-0.00141029
-0.000458277
0
0
-0.000359695
-0.0010239
-0.00179651
-0.00259372
-0.00338397
-0.00415296
-0.0048881
-0.00557407
-0.00618885
-0.0067031
-0.00707803
-0.00726476
-0.00720604
-0.00683542
-0.0061004
-0.00498305
-0.00354344
-0.00197049
-0.000622003
0
0
-0.000455272
-0.00129473
-0.00227033
-0.00327746
-0.004278
-0.00525592
-0.00619791
-0.00708758
-0.00790053
-0.00860263
-0.00914634
-0.00946749
-0.00949092
-0.00910942
-0.0082306
-0.0067956
-0.00485528
-0.0026715
-0.000803606
0
0
-0.000551929
-0.00157101
-0.00275564
-0.00397994
-0.00519989
-0.00639911
-0.00756542
-0.00868367
-0.00972985
-0.0106681
-0.0114448
-0.0119825
-0.0121782
-0.0118889
-0.0109461
-0.00920707
-0.00666166
-0.00363839
-0.00102488
0
0
-0.000649444
-0.00185238
-0.00325168
-0.00469961
-0.00614697
-0.00757861
-0.00898582
-0.0103578
-0.0116752
-0.0129054
-0.0139951
-0.0148595
-0.0153713
-0.0153574
-0.0145343
-0.0126019
-0.00936445
-0.00515417
-0.00137135
0
0
-0.000747705
-0.00213862
-0.00375757
-0.00543396
-0.00711414
-0.00878591
-0.0104467
-0.0120939
-0.0137183
-0.0152991
-0.0167943
-0.0181278
-0.019171
-0.0197133
-0.0193742
-0.0175367
-0.0135974
-0.00775352
-0.00209706
0
0
-0.000846957
-0.00243016
-0.00427277
-0.00617992
-0.00809404
-0.0100076
-0.0119267
-0.0138614
-0.0158193
-0.0178016
-0.019795
-0.021759
-0.0236042
-0.0251153
-0.0257731
-0.0244776
-0.0199447
-0.0121159
-0.00371822
0
0
-0.00094835
-0.00272913
-0.00479852
-0.00693534
-0.0090785
-0.0112265
-0.0133967
-0.0156152
-0.0179126
-0.0203241
-0.0228849
-0.0256234
-0.0285312
-0.0314179
-0.0335206
-0.0331136
-0.0282219
-0.0185079
-0.00678624
0
0
-0.00105484
-0.0030411
-0.00534
-0.00770147
-0.0100613
-0.0124252
-0.0148228
-0.0172984
-0.0199092
-0.0227313
-0.0258635
-0.0294232
-0.0334888
-0.0378504
-0.0414474
-0.0418882
-0.0369708
-0.0260375
-0.0112422
0
0
-0.00117261
-0.00337777
-0.00590962
-0.00848643
-0.011042
-0.0135902
-0.0161731
-0.0188512
-0.0217065
-0.0248529
-0.0284469
-0.0326795
-0.0376698
-0.0431172
-0.0476922
-0.0488311
-0.0441921
-0.0328973
-0.0158639
0
0
-0.00131375
-0.0037611
-0.00653089
-0.00930879
-0.0120302
-0.0147187
-0.0174264
-0.0202254
-0.0232126
-0.0265231
-0.0303421
-0.0348874
-0.04027
-0.0461161
-0.0510125
-0.0525651
-0.0485381
-0.0377305
-0.0195229
0
0
-0.00149956
-0.00422976
-0.00724706
-0.0102048
-0.0130513
-0.0158241
-0.0185828
-0.0214025
-0.0243802
-0.0276491
-0.0313856
-0.035788
-0.0409409
-0.0465117
-0.0512713
-0.0529532
-0.0496634
-0.0400107
-0.0218183
0
0
-0.00176892
-0.00484482
-0.00811149
-0.0112176
-0.0141408
-0.0169365
-0.0196683
-0.0224046
-0.0252278
-0.0282462
-0.0315987
-0.0354239
-0.0398216
-0.0445227
-0.0485826
-0.0502743
-0.0479785
-0.0400517
-0.022733
0
0
-0.00221034
-0.00578225
-0.00927654
-0.0124406
-0.0153578
-0.0181052
-0.0207353
-0.023295
-0.0258401
-0.0284399
-0.0311822
-0.0341766
-0.0374855
-0.0409487
-0.0440433
-0.0455933
-0.0443223
-0.0381398
-0.0223126
0
0
-0.00264484
-0.00680745
-0.0106385
-0.0139331
-0.0168253
-0.0194365
-0.0218328
-0.0240551
-0.0261544
-0.0281685
-0.030171
-0.0322081
-0.0343505
-0.0365179
-0.0385311
-0.0397355
-0.0390306
-0.0342402
-0.0205223
0
0
-0.00657303
-0.0105965
-0.0133017
-0.0155103
-0.0174077
-0.0190537
-0.0205018
-0.0217833
-0.0229512
-0.024019
-0.0250458
-0.0260385
-0.0270676
-0.0280946
-0.0290218
-0.0294828
-0.0288199
-0.0249046
-0.0151546
0
0
0
0
0
0
0
0
0
0
0
0
0
0
0
0
0
0
0
0
0
0
0
0
0
0
0
0
0
0
0
0
0
0
0
0
0
0
0
0
0
0
0
0
-2.6128e-05
-8.6512e-05
-0.000160344
-0.000237442
-0.000314795
-0.000391422
-0.000465927
-0.000536932
-0.000601386
-0.000655747
-0.00069538
-0.000714232
-0.000706276
-0.000665632
-0.000588632
-0.000475791
-0.000335048
-0.000184065
-5.5718e-05
0
0
-9.09354e-05
-0.000271815
-0.000487134
-0.000711057
-0.000934138
-0.00115221
-0.00136103
-0.00155566
-0.00172828
-0.0018692
-0.00196625
-0.00200491
-0.00196996
-0.00184722
-0.00162855
-0.00131665
-0.000932589
-0.000522952
-0.000170036
0
0
-0.000174568
-0.000505129
-0.000893393
-0.00129537
-0.00169415
-0.00208178
-0.00245068
-0.00279187
-0.00309231
-0.00333555
-0.00350106
-0.0035645
-0.00349954
-0.00328136
-0.00289473
-0.00234307
-0.00166243
-0.000935508
-0.000307634
0
0
-0.000265647
-0.000759504
-0.00133568
-0.00193066
-0.00252005
-0.00309232
-0.00363696
-0.00414132
-0.00458743
-0.00495213
-0.00520592
-0.00531318
-0.0052337
-0.00492654
-0.00436331
-0.00354273
-0.00251544
-0.00141029
-0.000458277
0
0
-0.000359695
-0.0010239
-0.00179651
-0.00259372
-0.00338397
-0.00415296
-0.0048881
-0.00557407
-0.00618885
-0.0067031
-0.00707803
-0.00726476
-0.00720604
-0.00683542
-0.0061004
-0.00498305
-0.00354344
-0.00197049
-0.000622003
0
0
-0.000455272
-0.00129473
-0.00227033
-0.00327746
-0.004278
-0.00525592
-0.00619791
-0.00708758
-0.00790053
-0.00860263
-0.00914634
-0.00946749
-0.00949092
-0.00910942
-0.0082306
-0.0067956
-0.00485528
-0.0026715
-0.000803606
0
0
-0.000551929
-0.00157101
-0.00275564
-0.00397994
-0.00519989
-0.00639911
-0.00756542
-0.00868367
-0.00972985
-0.0106681
-0.0114448
-0.0119825
-0.0121782
-0.0118889
-0.0109461
-0.00920707
-0.00666166
-0.00363839
-0.00102488
0
0
-0.000649444
-0.00185238
-0.00325168
-0.00469961
-0.00614697
-0.00757861
-0.00898582
-0.0103578
-0.0116752
-0.0129054
-0.0139951
-0.0148595
-0.0153713
-0.0153574
-0.0145343
-0.0126019
-0.00936445
-0.00515417
-0.00137135
0
0
-0.000747705
-0.00213862
-0.00375757
-0.00543396
-0.00711414
-0.00878591
-0.0104467
-0.0120939
-0.0137183
-0.0152991
-0.0167943
-0.0181278
-0.019171
-0.0197133
-0.0193742
-0.0175367
-0.0135974
-0.00775352
-0.00209706
0
0
-0.000846957
-0.00243016
-0.00427277
-0.00617992
-0.00809404
-0.0100076
-0.0119267
-0.0138614
-0.0158193
-0.0178016
-0.019795
-0.021759
-0.0236042
-0.0251153
-0.0257731
-0.0244776
-0.0199447
-0.0121159
-0.00371822
0
0
-0.00094835
-0.00272913
-0.00479852
-0.00693534
-0.0090785
-0.0112265
-0.0133967
-0.0156152
-0.0179126
-0.0203241
-0.0228849
-0.0256234
-0.0285312
-0.0314179
-0.0335206
-0.0331136
-0.0282219
-0.0185079
-0.00678624
0
0
-0.00105484
-0.0030411
-0.00534
-0.00770147
-0.0100613
-0.0124252
-0.0148228
-0.0172984
-0.0199092
-0.0227313
-0.0258635
-0.0294232
-0.0334888
-0.0378504
-0.0414474
-0.0418882
-0.0369708
-0.0260375
-0.0112422
0
0
-0.00117261
-0.00337777
-0.00590962
-0.00848643
-0.011042
-0.0135902
-0.0161731
-0.0188512
-0.0217065
-0.0248529
-0.0284469
-0.0326795
-0.0376698
-0.0431172
-0.0476922
-0.0488311
-0.0441921
-0.0328973
-0.0158639
0
0
-0.00131375
-0.0037611
-0.00653089
-0.00930879
-0.0120302
-0.0147187
-0.0174264
-0.0202254
-0.0232126
-0.0265231
-0.0303421
-0.0348874
-0.04027
-0.0461161
-0.0510125
-0.0525651
-0.0485381
-0.0377305
-0.0195229
0
0
-0.00149956
-0.00422976
-0.00724706
-0.0102048
-0.0130513
-0.0158241
-0.0185828
-0.0214025
-0.0243802
-0.0276491
-0.0313856
-0.035788
-0.0409409
-0.0465117
-0.0512713
-0.0529532
-0.0496634
-0.0400107
-0.0218183
0
0
-0.00176892
-0.00484482
-0.00811149
-0.0112176
-0.0141408
-0.0169365
-0.0196683
-0.0224046
-0.0252278
-0.0282462
-0.0315987
-0.0354239
-0.0398216
-0.0445227
-0.0485826
-0.0502743
-0.0479785
-0.0400517
-0.022733
0
0
-0.00221034
-0.00578225
-0.00927654
-0.0124406
-0.0153578
-0.0181052
-0.0207353
-0.023295
-0.0258401
-0.0284399
-0.0311822
-0.0341766
-0.0374855
-0.0409487
-0.0440433
-0.0455933
-0.0443223
-0.0381398
-0.0223126
0
0
-0.00264484
-0.00680745
-0.0106385
-0.0139331
-0.0168253
-0.0194365
-0.0218328
-0.0240551
-0.0261544
-0.0281685
-0.030171
-0.0322081
-0.0343505
-0.0365179
-0.0385311
-0.0397355
-0.0390306
-0.0342402
-0.0205223
0
0
-0.00657303
-0.0105965
-0.0133017
-0.0155103
-0.0174077
-0.0190537
-0.0205018
-0.0217833
-0.0229512
-0.024019
-0.0250458
-0.0260385
-0.0270676
-0.0280946
-0.0290218
-0.0294828
-0.0288199
-0.0249046
-0.0151546
0
0
0
0
0
0
0
0
0
0
0
0
0
0
0
0
0
0
0
0
0
0
)
;

boundaryField
{
    movingWall
    {
        type            calculated;
    }
    fixedWalls
    {
        type            calculated;
    }
    frontAndBack
    {
        type            empty;
    }
}


// ************************************************************************* //
