/*--------------------------------*- C++ -*----------------------------------*\
| =========                 |                                                 |
| \\      /  F ield         | OpenFOAM: The Open Source CFD Toolbox           |
|  \\    /   O peration     | Version:  2506                                  |
|   \\  /    A nd           | Website:  www.openfoam.com                      |
|    \\/     M anipulation  |                                                 |
\*---------------------------------------------------------------------------*/
FoamFile
{
    version     2.0;
    format      ascii;
    arch        "LSB;label=32;scalar=64";
    class       pointScalarField;
    location    "36";
    object      streamFunction;
}
// * * * * * * * * * * * * * * * * * * * * * * * * * * * * * * * * * * * * * //

dimensions      [0 3 -1 0 0 0 0];

internalField   nonuniform List<scalar> 
882
(
0
0
0
0
0
0
0
0
0
0
0
0
0
0
0
0
0
0
0
0
0
0
0.000151451
0.000283799
0.000297981
0.000172157
-0.000128363
-0.000665887
-0.00147175
-0.00246187
-0.00343962
-0.00417529
-0.00450194
-0.00432296
-0.0035797
-0.00238389
-0.000961556
0.000315807
0.0010602
0.00101491
0.000454578
0
0
0.000268817
0.00034499
-1.0264e-05
-0.000907013
-0.00242473
-0.0045485
-0.00706613
-0.0095858
-0.011687
-0.0130292
-0.0133975
-0.0126717
-0.0108241
-0.00799792
-0.00456092
-0.00118563
0.00121641
0.00185516
0.000972593
0
0
0.000136201
-0.000291873
-0.00162488
-0.00401391
-0.00741813
-0.0115314
-0.0158307
-0.0197435
-0.0227957
-0.0246388
-0.0250084
-0.0238335
-0.021068
-0.0168008
-0.0113787
-0.00556196
-0.000657179
0.00176187
0.00126395
0
0
-0.000360343
-0.0018348
-0.00470308
-0.00902372
-0.0145034
-0.0205333
-0.0263885
-0.0314513
-0.0352746
-0.0375449
-0.0379845
-0.0365778
-0.033242
-0.0279639
-0.0209592
-0.0128635
-0.00502164
0.000389448
0.00138169
0
0
-0.00120913
-0.0041597
-0.00886943
-0.0152082
-0.0226072
-0.030236
-0.0372907
-0.043178
-0.0475125
-0.050054
-0.0506147
-0.0491691
-0.0456241
-0.0398863
-0.0319846
-0.0222669
-0.0117818
-0.00280672
0.00111934
0
0
-0.0022756
-0.00689524
-0.0134694
-0.0216412
-0.0306203
-0.0394437
-0.0473001
-0.0536601
-0.0582286
-0.0608665
-0.0615079
-0.0601189
-0.05662
-0.0508872
-0.0427936
-0.0323583
-0.0201379
-0.00799995
-3.0062e-05
0
0
-0.00336317
-0.00960235
-0.0178488
-0.0275362
-0.0377146
-0.0473561
-0.0556841
-0.0622549
-0.0668778
-0.0695127
-0.0701797
-0.0688661
-0.0655118
-0.0600031
-0.0521533
-0.0417453
-0.028815
-0.0144784
-0.00242868
0
0
-0.00427811
-0.0119044
-0.0215176
-0.0323685
-0.0434054
-0.0535807
-0.0621725
-0.0688273
-0.0734521
-0.0760827
-0.076778
-0.0755441
-0.0723429
-0.0670916
-0.0596183
-0.0496095
-0.036685
-0.0211436
-0.00597769
0
0
-0.00488804
-0.0135583
-0.0241895
-0.0358676
-0.0474842
-0.0579997
-0.0667493
-0.073458
-0.0781066
-0.0807769
-0.0815394
-0.0804077
-0.0773548
-0.0723281
-0.0652112
-0.055701
-0.0431901
-0.0272314
-0.00987201
0
0
-0.00511362
-0.0144325
-0.0257254
-0.0379251
-0.0498942
-0.0606163
-0.0694744
-0.0762467
-0.0809598
-0.0837187
-0.0845968
-0.0836077
-0.0807256
-0.0759119
-0.0691042
-0.0600816
-0.0481767
-0.0323305
-0.0134135
0
0
-0.00495214
-0.0144992
-0.0261199
-0.0385664
-0.0506865
-0.0614944
-0.0704126
-0.0772517
-0.082055
-0.0849351
-0.0859669
-0.085166
-0.0825061
-0.077948
-0.0714605
-0.0629188
-0.0517156
-0.0363448
-0.0164318
0
0
-0.00446154
-0.0138136
-0.0253917
-0.0378023
-0.0498766
-0.060655
-0.0695804
-0.0764719
-0.0813706
-0.0843862
-0.0855974
-0.0850257
-0.0826475
-0.0784304
-0.0723504
-0.0643327
-0.0539176
-0.0393024
-0.0188948
0
0
-0.00372283
-0.0124874
-0.0236783
-0.035763
-0.0475659
-0.0581597
-0.0669968
-0.0738857
-0.078852
-0.0819961
-0.0834022
-0.0831054
-0.0810837
-0.0773097
-0.0717655
-0.0644319
-0.0548914
-0.04124
-0.0208287
0
0
-0.00287395
-0.0107166
-0.021177
-0.0326282
-0.0438888
-0.0540763
-0.0626607
-0.0694367
-0.0744052
-0.0776496
-0.0792547
-0.0792811
-0.0776967
-0.0744947
-0.0696582
-0.0631532
-0.0546568
-0.0422262
-0.0222693
0
0
-0.00208911
-0.00880825
-0.0182429
-0.0287329
-0.0391256
-0.0486061
-0.056685
-0.0631544
-0.0679931
-0.071264
-0.073051
-0.0734216
-0.0723681
-0.0698821
-0.0659546
-0.0605235
-0.0533119
-0.0424056
-0.023201
0
0
-0.00152805
-0.00709306
-0.0152123
-0.0243703
-0.0335118
-0.0419212
-0.0491758
-0.0550812
-0.0596031
-0.0627859
-0.0647057
-0.0654313
-0.0649978
-0.0633805
-0.0605834
-0.0565027
-0.0507979
-0.041492
-0.0233656
0
0
-0.00138551
-0.00608924
-0.0127578
-0.0202188
-0.0276595
-0.0345512
-0.0405751
-0.0455671
-0.0494978
-0.0523985
-0.054339
-0.0553813
-0.0556001
-0.0549582
-0.0534623
-0.0509592
-0.0469515
-0.0392903
-0.0227276
0
0
-0.00189594
-0.00590292
-0.0110479
-0.0164788
-0.0217939
-0.0267485
-0.0311613
-0.0349095
-0.0379819
-0.0403921
-0.0422052
-0.0434623
-0.0442181
-0.0444574
-0.0441827
-0.0431743
-0.0407487
-0.0348684
-0.0206864
0
0
-0.00606803
-0.00954243
-0.0123143
-0.0149759
-0.017581
-0.0200278
-0.0222458
-0.0241718
-0.0258122
-0.0271537
-0.0282443
-0.0290809
-0.0297286
-0.0301602
-0.0303911
-0.0301869
-0.0288704
-0.024774
-0.0150559
0
0
0
0
0
0
0
0
0
0
0
0
0
0
0
0
0
0
0
0
0
0
0
0
0
0
0
0
0
0
0
0
0
0
0
0
0
0
0
0
0
0
0
0
0.000151451
0.000283799
0.000297981
0.000172157
-0.000128363
-0.000665887
-0.00147175
-0.00246187
-0.00343962
-0.00417529
-0.00450194
-0.00432296
-0.0035797
-0.00238389
-0.000961556
0.000315807
0.0010602
0.00101491
0.000454578
0
0
0.000268817
0.00034499
-1.0264e-05
-0.000907013
-0.00242473
-0.0045485
-0.00706613
-0.0095858
-0.011687
-0.0130292
-0.0133975
-0.0126717
-0.0108241
-0.00799792
-0.00456092
-0.00118563
0.00121641
0.00185516
0.000972593
0
0
0.000136201
-0.000291873
-0.00162488
-0.00401391
-0.00741813
-0.0115314
-0.0158307
-0.0197435
-0.0227957
-0.0246388
-0.0250084
-0.0238335
-0.021068
-0.0168008
-0.0113787
-0.00556196
-0.000657179
0.00176187
0.00126395
0
0
-0.000360343
-0.0018348
-0.00470308
-0.00902372
-0.0145034
-0.0205333
-0.0263885
-0.0314513
-0.0352746
-0.0375449
-0.0379845
-0.0365778
-0.033242
-0.0279639
-0.0209592
-0.0128635
-0.00502164
0.000389448
0.00138169
0
0
-0.00120913
-0.0041597
-0.00886943
-0.0152082
-0.0226072
-0.030236
-0.0372907
-0.043178
-0.0475125
-0.050054
-0.0506147
-0.0491691
-0.0456241
-0.0398863
-0.0319846
-0.0222669
-0.0117818
-0.00280672
0.00111934
0
0
-0.0022756
-0.00689524
-0.0134694
-0.0216412
-0.0306203
-0.0394437
-0.0473001
-0.0536601
-0.0582286
-0.0608665
-0.0615079
-0.0601189
-0.05662
-0.0508872
-0.0427936
-0.0323583
-0.0201379
-0.00799995
-3.0062e-05
0
0
-0.00336317
-0.00960235
-0.0178488
-0.0275362
-0.0377146
-0.0473561
-0.0556841
-0.0622549
-0.0668778
-0.0695127
-0.0701797
-0.0688661
-0.0655118
-0.0600031
-0.0521533
-0.0417453
-0.028815
-0.0144784
-0.00242868
0
0
-0.00427811
-0.0119044
-0.0215176
-0.0323685
-0.0434054
-0.0535807
-0.0621725
-0.0688273
-0.0734521
-0.0760827
-0.076778
-0.0755441
-0.0723429
-0.0670916
-0.0596183
-0.0496095
-0.036685
-0.0211436
-0.00597769
0
0
-0.00488804
-0.0135583
-0.0241895
-0.0358676
-0.0474842
-0.0579997
-0.0667493
-0.073458
-0.0781066
-0.0807769
-0.0815394
-0.0804077
-0.0773548
-0.0723281
-0.0652112
-0.055701
-0.0431901
-0.0272314
-0.00987201
0
0
-0.00511362
-0.0144325
-0.0257254
-0.0379251
-0.0498942
-0.0606163
-0.0694744
-0.0762467
-0.0809598
-0.0837187
-0.0845968
-0.0836077
-0.0807256
-0.0759119
-0.0691042
-0.0600816
-0.0481767
-0.0323305
-0.0134135
0
0
-0.00495214
-0.0144992
-0.0261199
-0.0385664
-0.0506865
-0.0614944
-0.0704126
-0.0772517
-0.082055
-0.0849351
-0.0859669
-0.085166
-0.0825061
-0.077948
-0.0714605
-0.0629188
-0.0517156
-0.0363448
-0.0164318
0
0
-0.00446154
-0.0138136
-0.0253917
-0.0378023
-0.0498766
-0.060655
-0.0695804
-0.0764719
-0.0813706
-0.0843862
-0.0855974
-0.0850257
-0.0826475
-0.0784304
-0.0723504
-0.0643327
-0.0539176
-0.0393024
-0.0188948
0
0
-0.00372283
-0.0124874
-0.0236783
-0.035763
-0.0475659
-0.0581597
-0.0669968
-0.0738857
-0.078852
-0.0819961
-0.0834022
-0.0831054
-0.0810837
-0.0773097
-0.0717655
-0.0644319
-0.0548914
-0.04124
-0.0208287
0
0
-0.00287395
-0.0107166
-0.021177
-0.0326282
-0.0438888
-0.0540763
-0.0626607
-0.0694367
-0.0744052
-0.0776496
-0.0792547
-0.0792811
-0.0776967
-0.0744947
-0.0696582
-0.0631532
-0.0546568
-0.0422262
-0.0222693
0
0
-0.00208911
-0.00880825
-0.0182429
-0.0287329
-0.0391256
-0.0486061
-0.056685
-0.0631544
-0.0679931
-0.071264
-0.073051
-0.0734216
-0.0723681
-0.0698821
-0.0659546
-0.0605235
-0.0533119
-0.0424056
-0.023201
0
0
-0.00152805
-0.00709306
-0.0152123
-0.0243703
-0.0335118
-0.0419212
-0.0491758
-0.0550812
-0.0596031
-0.0627859
-0.0647057
-0.0654313
-0.0649978
-0.0633805
-0.0605834
-0.0565027
-0.0507979
-0.041492
-0.0233656
0
0
-0.00138551
-0.00608924
-0.0127578
-0.0202188
-0.0276595
-0.0345512
-0.0405751
-0.0455671
-0.0494978
-0.0523985
-0.054339
-0.0553813
-0.0556001
-0.0549582
-0.0534623
-0.0509592
-0.0469515
-0.0392903
-0.0227276
0
0
-0.00189594
-0.00590292
-0.0110479
-0.0164788
-0.0217939
-0.0267485
-0.0311613
-0.0349095
-0.0379819
-0.0403921
-0.0422052
-0.0434623
-0.0442181
-0.0444574
-0.0441827
-0.0431743
-0.0407487
-0.0348684
-0.0206864
0
0
-0.00606803
-0.00954243
-0.0123143
-0.0149759
-0.017581
-0.0200278
-0.0222458
-0.0241718
-0.0258122
-0.0271537
-0.0282443
-0.0290809
-0.0297286
-0.0301602
-0.0303911
-0.0301869
-0.0288704
-0.024774
-0.0150559
0
0
0
0
0
0
0
0
0
0
0
0
0
0
0
0
0
0
0
0
0
0
)
;

boundaryField
{
    movingWall
    {
        type            calculated;
    }
    fixedWalls
    {
        type            calculated;
    }
    frontAndBack
    {
        type            empty;
    }
}


// ************************************************************************* //
