/*--------------------------------*- C++ -*----------------------------------*\
| =========                 |                                                 |
| \\      /  F ield         | OpenFOAM: The Open Source CFD Toolbox           |
|  \\    /   O peration     | Version:  2506                                  |
|   \\  /    A nd           | Website:  www.openfoam.com                      |
|    \\/     M anipulation  |                                                 |
\*---------------------------------------------------------------------------*/
FoamFile
{
    version     2.0;
    format      ascii;
    arch        "LSB;label=32;scalar=64";
    class       volScalarField;
    location    "250";
    object      turbulenceProperties:epsilon;
}
// * * * * * * * * * * * * * * * * * * * * * * * * * * * * * * * * * * * * * //

dimensions      [0 2 -3 0 0 0 0];

internalField   nonuniform List<scalar> 
1340
(
0.259252
0.339946
0.452795
0.623329
0.839884
1.13444
1.53026
2.03429
2.68321
3.51337
4.57642
5.96245
7.79955
10.2873
13.7657
18.7516
26.2234
37.3489
55.998
83.0735
139.441
212.244
434.465
741.764
742.089
673.635
643.477
643.194
648.753
644.681
627.606
597.72
552.446
493.083
419.943
0.194043
0.147008
0.100318
0.0666366
0.0405273
0.0221631
0.0111743
0.00735958
0.00727861
0.00711304
0.0067084
0.00610536
0.00544704
0.00471845
0.00396156
0.00327765
0.00267001
0.00214867
0.00181962
0.00177194
0.00210348
0.00330286
0.00670018
0.0165147
0.0441023
0.138297
0.447816
1.73622
6.20331
23.1492
82.6751
164.634
233.003
276.107
283.178
249.844
192.672
135.696
91.8109
63.4176
45.6518
34.2112
0.00722601
0.0070305
0.00664019
0.00608206
0.0053588
0.00447546
0.00330171
0.00324953
0.00310439
0.00288904
0.00267208
0.00244344
0.00222271
0.00203307
0.00187668
0.00175956
0.00167143
0.00162156
0.0016077
0.00163437
0.00164353
0.00154683
0.00118986
0.00088217
7.86122e-06
0.0162021
0.00427416
0.00626156
0.000130669
0.03055
0.529384
2.48487
7.60957
19.5138
41.244
69.0631
90.1866
93.274
79.5917
60.4276
44.0171
0.00335362
0.00334569
0.00332819
0.00321108
0.00300812
0.00268203
0.00235367
0.00236339
0.00233969
0.00230086
0.00222179
0.00210668
0.00196745
0.00180033
0.0016184
0.00142846
0.00123759
0.00105098
0.000872604
0.000707309
0.000557453
0.000419342
0.000301626
0.00021225
0.000121798
3.76856e-05
1.25489e-14
0.000200992
0.000101239
0.0108835
0.0363896
0.0553311
0.0206945
0.00397204
0.0146404
0.406708
3.03678
11.1694
24.3042
34.7961
36.7192
0.00230347
0.00222842
0.0021131
0.00197829
0.00181553
0.0013247
0.00132001
0.00129945
0.00126321
0.00120817
0.00113549
0.00105066
0.000956596
0.000857927
0.000761684
0.000671227
0.000589834
0.00052013
0.000462791
0.000417642
0.000381487
0.000345159
0.000303623
0.000261992
0.000207103
9.44043e-05
8.57449e-06
1.44602e-07
2.504e-09
0
0
0.0121236
0.0145833
0.0307131
0.0124691
0.0226578
0.0167855
0.148504
2.25891
8.70383
0.00131785
0.00129926
0.00126266
0.00120516
0.00112635
0.000890006
0.000897611
0.000896885
0.000890485
0.000873073
0.000845219
0.00080862
0.000762502
0.000708695
0.000649568
0.000586571
0.000522076
0.000458316
0.000396918
0.000339251
0.00028427
0.000229886
0.000180118
0.000138841
0.000107128
8.47143e-05
5.87955e-05
2.97761e-05
9.3597e-07
4.16807e-08
9.4581e-09
1.2257e-09
6.22823e-18
0
0.000981455
0.0055174
0.0316699
0.00321102
0.041448
0.0390467
0.000873941
0.000851994
0.000820574
0.000780012
0.000582408
0.000587535
0.000588356
0.00058538
0.000576092
0.000560182
0.000538306
0.000510214
0.000476683
0.000439225
0.000399073
0.000357775
0.000317012
0.000278158
0.000242145
0.000209985
0.000182812
0.000159185
0.000136798
0.000115203
9.63227e-05
8.21033e-05
6.84864e-05
4.66973e-05
2.11784e-05
6.20488e-06
6.0808e-07
2.13499e-15
4.50553e-09
4.16303e-11
0
0
0.00011057
0.0164053
0.0100884
0.000572883
0.000560115
0.000541798
0.000517069
0.000400092
0.000405571
0.000408842
0.000410163
0.000407922
0.000401827
0.000392204
0.000378493
0.000360919
0.000340135
0.000316439
0.000290653
0.000263632
0.000236133
0.000208908
0.000182698
0.000157345
0.000132475
0.000109466
8.97138e-05
7.38817e-05
6.22568e-05
5.44758e-05
4.86966e-05
4.01451e-05
2.89466e-05
1.76757e-05
8.33587e-06
2.9815e-06
2.28397e-08
4.27858e-09
9.53379e-12
0
0
0.000871783
0.000391932
0.00038221
0.000369366
0.000352654
0.000278412
0.000282813
0.000286044
0.000288069
0.000287995
0.000285529
0.000280759
0.000273224
0.000262976
0.000250268
0.000235263
0.000218404
0.000200236
0.000181286
0.000162175
0.000143371
0.000125408
0.000108979
9.40617e-05
8.05676e-05
6.86083e-05
5.85227e-05
5.03649e-05
4.35858e-05
3.69994e-05
2.98813e-05
2.31711e-05
1.74237e-05
1.25945e-05
6.83475e-06
3.01877e-06
8.3777e-09
1.30828e-09
0
0
0.000272433
0.000265592
0.000256879
0.000208074
0.000207785
0.000206055
0.000202523
0.000197181
0.000190097
0.00018126
0.000170889
0.000159256
0.000146652
0.000133438
0.000119953
0.0001066
9.34675e-05
8.07483e-05
6.90301e-05
5.88409e-05
5.04037e-05
4.35487e-05
3.75487e-05
3.15588e-05
2.54214e-05
1.98562e-05
1.55596e-05
1.25959e-05
1.0403e-05
8.52636e-06
4.7075e-06
9.76365e-07
4.25308e-09
1.74966e-14
0.000152068
0.000150542
0.000147762
0.000143746
0.000138427
0.0001319
0.000124298
0.00011578
0.000106585
9.69664e-05
8.71742e-05
7.75148e-05
6.8257e-05
5.95982e-05
5.17853e-05
4.49453e-05
3.90512e-05
3.3724e-05
2.8393e-05
2.29233e-05
1.78349e-05
1.37851e-05
1.09165e-05
9.03184e-06
7.75972e-06
7.02657e-06
5.48219e-06
2.19073e-06
1.57053e-11
0.000111883
0.00010978
0.000106739
0.000102789
9.798e-05
9.23914e-05
8.61535e-05
7.94215e-05
7.23783e-05
6.52412e-05
5.81237e-05
5.12304e-05
4.48721e-05
3.92235e-05
3.42677e-05
2.9746e-05
2.52584e-05
2.06703e-05
1.63248e-05
1.27168e-05
1.00151e-05
8.0769e-06
6.64994e-06
5.79639e-06
5.33707e-06
5.15989e-06
2.37864e-06
8.41489e-05
8.2467e-05
8.01125e-05
7.70918e-05
7.34302e-05
6.92055e-05
6.45124e-05
5.9464e-05
5.42299e-05
4.89397e-05
4.3732e-05
3.8795e-05
3.42671e-05
3.01545e-05
2.63144e-05
2.25048e-05
1.86385e-05
1.49544e-05
1.18235e-05
9.40416e-06
7.58781e-06
6.18776e-06
5.1343e-06
4.43964e-06
4.17102e-06
4.6705e-06
6.40117e-05
6.2671e-05
6.08317e-05
5.84941e-05
5.56911e-05
5.24744e-05
4.89119e-05
4.51239e-05
4.11992e-05
3.72278e-05
3.33525e-05
2.97162e-05
2.63378e-05
2.31318e-05
1.99429e-05
1.67124e-05
1.36103e-05
1.09201e-05
8.79028e-06
7.15529e-06
5.87807e-06
4.86504e-06
4.08993e-06
3.55447e-06
3.40283e-06
4.985e-05
4.91444e-05
4.80648e-05
4.66014e-05
4.47627e-05
4.2579e-05
4.00918e-05
3.73698e-05
3.44927e-05
3.15215e-05
2.8538e-05
2.56651e-05
2.2928e-05
2.02799e-05
1.76298e-05
1.49423e-05
1.23387e-05
1.00352e-05
8.16603e-06
6.70382e-06
5.5504e-06
4.6349e-06
3.89902e-06
3.39858e-06
2.72468e-06
3.86417e-05
3.80473e-05
3.71621e-05
3.59893e-05
3.45359e-05
3.28247e-05
3.08934e-05
2.8807e-05
2.65977e-05
2.43162e-05
2.20612e-05
1.98646e-05
1.7704e-05
1.55233e-05
1.33041e-05
1.11341e-05
9.17671e-06
7.54793e-06
6.24667e-06
5.20612e-06
4.37807e-06
3.70616e-06
3.25009e-06
2.69365e-06
3.01651e-05
2.9661e-05
2.89352e-05
2.79871e-05
2.68268e-05
2.54744e-05
2.39758e-05
2.23522e-05
2.06315e-05
1.88827e-05
1.71405e-05
1.53975e-05
1.36209e-05
1.1801e-05
1.00039e-05
8.35242e-06
6.94437e-06
5.79459e-06
4.86105e-06
4.10891e-06
3.50283e-06
3.04832e-06
2.72031e-06
2.39577e-05
2.36963e-05
2.32678e-05
2.26669e-05
2.1897e-05
2.09652e-05
1.9902e-05
1.87218e-05
1.74389e-05
1.60956e-05
1.47287e-05
1.33388e-05
1.19054e-05
1.04253e-05
8.94754e-06
7.56476e-06
6.358e-06
5.35064e-06
4.51988e-06
3.83949e-06
3.29349e-06
2.85071e-06
2.61044e-06
1.89458e-05
1.87134e-05
1.83487e-05
1.78509e-05
1.72225e-05
1.64785e-05
1.56313e-05
1.46861e-05
1.36659e-05
1.2606e-05
1.15104e-05
1.03657e-05
9.17156e-06
7.9652e-06
6.81643e-06
5.79119e-06
4.91645e-06
4.18314e-06
3.57335e-06
3.0797e-06
2.67208e-06
2.42121e-06
1.51643e-05
1.50571e-05
1.48506e-05
1.45404e-05
1.41264e-05
1.36134e-05
1.30135e-05
1.23267e-05
1.1562e-05
1.0749e-05
9.89461e-06
8.98966e-06
8.03471e-06
7.05766e-06
6.11091e-06
5.24739e-06
4.49452e-06
3.8523e-06
3.31089e-06
2.86474e-06
2.50053e-06
2.22879e-06
1.21182e-05
1.20152e-05
1.18325e-05
1.15682e-05
1.12231e-05
1.08068e-05
1.03148e-05
9.74928e-06
9.13318e-06
8.47436e-06
7.7664e-06
7.00944e-06
6.22442e-06
5.45047e-06
4.72954e-06
4.08742e-06
3.52961e-06
3.05281e-06
2.65206e-06
2.32727e-06
2.05697e-06
9.75656e-06
9.71938e-06
9.62234e-06
9.4623e-06
9.23713e-06
8.95333e-06
8.6061e-06
8.1941e-06
7.73322e-06
7.23089e-06
6.6832e-06
6.08913e-06
5.46379e-06
4.83649e-06
4.24001e-06
3.6973e-06
3.21705e-06
2.80031e-06
2.44382e-06
2.15245e-06
1.9009e-06
7.86193e-06
7.82049e-06
7.73084e-06
7.58983e-06
7.40116e-06
7.16107e-06
6.86622e-06
6.52616e-06
6.14793e-06
5.72893e-06
5.26726e-06
4.77353e-06
4.26958e-06
3.78057e-06
3.32621e-06
2.91637e-06
2.55486e-06
2.24063e-06
1.97901e-06
1.75198e-06
6.35866e-06
6.35254e-06
6.30966e-06
6.22714e-06
6.10629e-06
5.9443e-06
5.73765e-06
5.49042e-06
5.20943e-06
4.89241e-06
4.5372e-06
4.15101e-06
3.74982e-06
3.35256e-06
2.97577e-06
2.6292e-06
2.3182e-06
2.04344e-06
1.80969e-06
1.60623e-06
5.14268e-06
5.15777e-06
5.14525e-06
5.10244e-06
5.0289e-06
4.92342e-06
4.78165e-06
4.60476e-06
4.3988e-06
4.1622e-06
3.89209e-06
3.59305e-06
3.27661e-06
2.95694e-06
2.64731e-06
2.35695e-06
2.09163e-06
1.85323e-06
1.64609e-06
1.46381e-06
4.18594e-06
4.19228e-06
4.17563e-06
4.13471e-06
4.06915e-06
3.97502e-06
3.85106e-06
3.70268e-06
3.52836e-06
3.32516e-06
3.09582e-06
2.84855e-06
2.59382e-06
2.34184e-06
2.10076e-06
1.87631e-06
1.67114e-06
1.48884e-06
1.32609e-06
3.39592e-06
3.41324e-06
3.41321e-06
3.39441e-06
3.35661e-06
3.2965e-06
3.21199e-06
3.10696e-06
2.9804e-06
2.82942e-06
2.65544e-06
2.46412e-06
2.263e-06
2.05992e-06
1.86159e-06
1.67329e-06
1.49807e-06
1.33906e-06
1.19427e-06
2.75396e-06
2.77687e-06
2.78701e-06
2.7827e-06
2.76391e-06
2.72769e-06
2.67195e-06
2.59914e-06
2.50876e-06
2.39816e-06
2.26765e-06
2.12113e-06
1.96387e-06
1.80167e-06
1.64003e-06
1.48349e-06
1.33483e-06
1.19729e-06
1.06936e-06
2.25779e-06
2.27349e-06
2.27825e-06
2.27193e-06
2.25226e-06
2.21707e-06
2.16812e-06
2.10478e-06
2.02481e-06
1.92806e-06
1.81702e-06
1.69527e-06
1.56696e-06
1.43636e-06
1.30731e-06
1.18232e-06
1.06403e-06
9.51969e-07
1.83461e-06
1.85286e-06
1.86288e-06
1.8645e-06
1.85593e-06
1.83526e-06
1.80347e-06
1.76011e-06
1.70326e-06
1.63247e-06
1.54918e-06
1.4558e-06
1.35525e-06
1.25068e-06
1.14511e-06
1.04082e-06
9.39963e-07
8.42418e-07
1.48984e-06
1.50865e-06
1.52139e-06
1.52777e-06
1.52642e-06
1.51575e-06
1.49617e-06
1.4673e-06
1.42762e-06
1.37653e-06
1.31474e-06
1.24381e-06
1.16571e-06
1.08268e-06
9.97077e-07
9.10671e-07
8.25304e-07
7.41038e-07
1.22735e-06
1.24112e-06
1.25005e-06
1.25318e-06
1.24912e-06
1.238e-06
1.2195e-06
1.19242e-06
1.15608e-06
1.11079e-06
1.05743e-06
9.97284e-07
9.31897e-07
8.62987e-07
7.91974e-07
7.20224e-07
6.48002e-07
9.97747e-07
1.01138e-06
1.02138e-06
1.02705e-06
1.02725e-06
1.02183e-06
1.01061e-06
9.92603e-07
9.67183e-07
9.34373e-07
8.94627e-07
8.48702e-07
7.97615e-07
7.4256e-07
6.84587e-07
6.24748e-07
5.63297e-07
8.10393e-07
8.23258e-07
8.33403e-07
8.40323e-07
8.43077e-07
8.41387e-07
8.35165e-07
8.23635e-07
8.06181e-07
7.82689e-07
7.53352e-07
7.18568e-07
6.78932e-07
6.35251e-07
5.88251e-07
5.38694e-07
6.69483e-07
6.79167e-07
6.86467e-07
6.90601e-07
6.91249e-07
6.88355e-07
6.8131e-07
6.6958e-07
6.5298e-07
6.31525e-07
6.05372e-07
5.74831e-07
5.40389e-07
5.02537e-07
4.61772e-07
5.43884e-07
5.52794e-07
5.59927e-07
5.64666e-07
5.66668e-07
5.65901e-07
5.61905e-07
5.54239e-07
5.42675e-07
5.2712e-07
5.07583e-07
4.84185e-07
4.5719e-07
4.26884e-07
3.93582e-07
4.41429e-07
4.49402e-07
4.56053e-07
4.60873e-07
4.63573e-07
4.64111e-07
4.6213e-07
4.57282e-07
4.49341e-07
4.38157e-07
4.23646e-07
4.05816e-07
3.84769e-07
3.6064e-07
3.33607e-07
3.57953e-07
3.64959e-07
3.70947e-07
3.75537e-07
3.78486e-07
3.79742e-07
3.79052e-07
3.76126e-07
3.70757e-07
3.62774e-07
3.52054e-07
3.38527e-07
3.22187e-07
3.03077e-07
2.81268e-07
2.90012e-07
2.96052e-07
3.01318e-07
3.05513e-07
3.08438e-07
3.10039e-07
3.1013e-07
3.0848e-07
3.0491e-07
2.99251e-07
2.91361e-07
2.81131e-07
2.68495e-07
2.53427e-07
2.35935e-07
2.39912e-07
2.44461e-07
2.48186e-07
2.50922e-07
2.52618e-07
2.53138e-07
2.52312e-07
2.49984e-07
2.45995e-07
2.40202e-07
2.32483e-07
2.22742e-07
2.10912e-07
1.96956e-07
1.94238e-07
1.98105e-07
2.01334e-07
2.03787e-07
2.0543e-07
2.06164e-07
2.05851e-07
2.04363e-07
2.01563e-07
1.97316e-07
1.91499e-07
1.84006e-07
1.7475e-07
1.63672e-07
1.57114e-07
1.60362e-07
1.63115e-07
1.65258e-07
1.66767e-07
1.67567e-07
1.67552e-07
1.66621e-07
1.64661e-07
1.61547e-07
1.57165e-07
1.5141e-07
1.44192e-07
1.35439e-07
1.26985e-07
1.29686e-07
1.31996e-07
1.33827e-07
1.35156e-07
1.35936e-07
1.36086e-07
1.35519e-07
1.34145e-07
1.31859e-07
1.28555e-07
1.2414e-07
1.18526e-07
1.11638e-07
1.02557e-07
1.04781e-07
1.06699e-07
1.08237e-07
1.09379e-07
1.10092e-07
1.10315e-07
1.09981e-07
1.09014e-07
1.07329e-07
1.04835e-07
1.01449e-07
9.70909e-08
9.16907e-08
8.4593e-08
8.61678e-08
8.74422e-08
8.84022e-08
8.90251e-08
8.9268e-08
8.90778e-08
8.83938e-08
8.71456e-08
8.5258e-08
8.26607e-08
7.92837e-08
7.50641e-08
6.82487e-08
6.95301e-08
7.05726e-08
7.13649e-08
7.18938e-08
7.21268e-08
7.20231e-08
7.15341e-08
7.06029e-08
6.91695e-08
6.71762e-08
6.45626e-08
5.50319e-08
5.60662e-08
5.69095e-08
5.75551e-08
5.79934e-08
5.82008e-08
5.81463e-08
5.77915e-08
5.70916e-08
5.59997e-08
5.44673e-08
5.24459e-08
4.43538e-08
4.5184e-08
4.58609e-08
4.63799e-08
4.67358e-08
4.69119e-08
4.68842e-08
4.66221e-08
4.60916e-08
4.5256e-08
4.40765e-08
4.25137e-08
3.57364e-08
3.63991e-08
3.69383e-08
3.73508e-08
3.76352e-08
3.77789e-08
3.77639e-08
3.75668e-08
3.71612e-08
3.65188e-08
3.56093e-08
3.44012e-08
2.93143e-08
2.97408e-08
3.00662e-08
3.02899e-08
3.04036e-08
3.03936e-08
3.02424e-08
2.99296e-08
2.94331e-08
2.87301e-08
2.77961e-08
2.36056e-08
2.3941e-08
2.41954e-08
2.43693e-08
2.44571e-08
2.44484e-08
2.43299e-08
2.40863e-08
2.37009e-08
2.3156e-08
2.24332e-08
1.90093e-08
1.92716e-08
1.9469e-08
1.96027e-08
1.96687e-08
1.96594e-08
1.95648e-08
1.93735e-08
1.90728e-08
1.86496e-08
1.80895e-08
1.5311e-08
1.55152e-08
1.56671e-08
1.57686e-08
1.58169e-08
1.58064e-08
1.57296e-08
1.55781e-08
1.53426e-08
1.50129e-08
1.45784e-08
1.23363e-08
1.24943e-08
1.26107e-08
1.26869e-08
1.27213e-08
1.27097e-08
1.26466e-08
1.25257e-08
1.23402e-08
1.20826e-08
1.17448e-08
9.94451e-09
1.00665e-08
1.0155e-08
1.02115e-08
1.0235e-08
1.02226e-08
1.01702e-08
1.00731e-08
9.92628e-09
9.7243e-09
8.02182e-09
8.11566e-09
8.18252e-09
8.22393e-09
8.23922e-09
8.22634e-09
8.18233e-09
8.10382e-09
7.9871e-09
7.82824e-09
6.5486e-09
6.59875e-09
6.62861e-09
6.63785e-09
6.62484e-09
6.58759e-09
6.52365e-09
6.43037e-09
6.30489e-09
5.28994e-09
5.32727e-09
5.34834e-09
5.35308e-09
5.34036e-09
5.30865e-09
5.25627e-09
5.1813e-09
5.08171e-09
4.27796e-09
4.30558e-09
4.32019e-09
4.32182e-09
4.30967e-09
4.28265e-09
4.23956e-09
4.17905e-09
4.09968e-09
3.46238e-09
3.48272e-09
3.49263e-09
3.49218e-09
3.4809e-09
3.45799e-09
3.42258e-09
3.37372e-09
3.3104e-09
2.80249e-09
2.81732e-09
2.82387e-09
2.82226e-09
2.81212e-09
2.7929e-09
2.76397e-09
2.72468e-09
2.6743e-09
2.26715e-09
2.27781e-09
2.28193e-09
2.27964e-09
2.27067e-09
2.25464e-09
2.23112e-09
2.19965e-09
1.83394e-09
1.84144e-09
1.8437e-09
1.84089e-09
1.83285e-09
1.81932e-09
1.80005e-09
1.77472e-09
1.4853e-09
1.49033e-09
1.49114e-09
1.48787e-09
1.48047e-09
1.46879e-09
1.45267e-09
1.43194e-09
1.20951e-09
1.20919e-09
1.20557e-09
1.19863e-09
1.1883e-09
1.17448e-09
1.15716e-09
9.84198e-10
9.83032e-10
9.79142e-10
9.7259e-10
9.63293e-10
9.51197e-10
9.36445e-10
8.05032e-10
8.03817e-10
8.00371e-10
7.95016e-10
7.87164e-10
7.76916e-10
7.65019e-10
6.76315e-10
6.7485e-10
6.71382e-10
6.66759e-10
6.59668e-10
6.50317e-10
6.40519e-10
5.80274e-10
5.78387e-10
5.74472e-10
5.69624e-10
5.624e-10
5.52861e-10
4.96425e-10
4.9499e-10
4.91657e-10
4.87421e-10
4.81085e-10
4.72482e-10
4.20436e-10
4.18527e-10
4.14813e-10
4.1025e-10
4.04068e-10
3.95525e-10
3.55574e-10
3.54644e-10
3.52144e-10
3.4868e-10
3.4397e-10
3.37558e-10
2.91492e-10
2.8859e-10
2.84254e-10
2.79387e-10
2.7381e-10
2.6541e-10
2.53672e-10
2.53886e-10
2.52748e-10
2.49946e-10
2.4671e-10
2.43747e-10
1.83206e-10
1.78324e-10
1.74302e-10
1.69579e-10
1.59542e-10
2.05532e-10
2.07814e-10
2.05349e-10
2.04638e-10
2.12324e-10
1.273e-10
1.27842e-10
1.31698e-10
1.30105e-10
1.20069e-10
2.92973e-10
3.0957e-10
3.07977e-10
3.1525e-10
3.49333e-10
3.67362e-10
3.89236e-10
4.21651e-10
7.49159e-10
8.39152e-10
7.80093e-10
7.03121e-10
)
;

boundaryField
{
    inlet
    {
        type            calculated;
        value           nonuniform List<scalar> 4(1.46149e-08 1.65476e-08 1.69747e-08 1.73736e-08);
    }
    outlet
    {
        type            calculated;
        value           nonuniform List<scalar> 0();
    }
    walls
    {
        type            calculated;
        value           uniform 0;
    }
    frontAndBack
    {
        type            empty;
    }
    procBoundary5to0
    {
        type            processor;
        value           nonuniform List<scalar> 4(0.000197872 0.000193257 0.000188236 0.000182071);
    }
    procBoundary5to1
    {
        type            processor;
        value           nonuniform List<scalar> 
13
(
0.0063102
0.00354085
0.00354085
0.00226297
0.00161296
0.00161296
0.00101926
0.00072945
0.00072945
0.000485839
0.000332252
0.00024553
0.00024553
)
;
    }
    procBoundary5to4
    {
        type            processor;
        value           nonuniform List<scalar> 
95
(
0.000201512
0.000204575
0.000206961
0.000206961
0.000151827
0.000152423
0.000152423
0.000113528
0.000113126
0.000113126
8.51559e-05
8.51559e-05
6.48568e-05
6.48568e-05
5.01993e-05
3.89617e-05
3.89617e-05
3.04527e-05
3.04527e-05
2.40587e-05
1.90547e-05
1.90547e-05
1.51783e-05
1.2147e-05
1.2147e-05
9.73773e-06
7.8583e-06
7.8583e-06
6.33122e-06
5.10258e-06
4.15901e-06
4.15901e-06
3.3634e-06
2.71967e-06
2.23264e-06
2.23264e-06
1.80934e-06
1.46585e-06
1.20911e-06
1.20911e-06
9.80765e-07
7.95084e-07
6.57734e-07
6.57734e-07
5.3342e-07
4.32286e-07
3.50082e-07
2.83316e-07
2.34773e-07
2.34773e-07
1.8991e-07
1.53508e-07
1.24003e-07
1.0011e-07
8.27758e-08
8.27758e-08
6.67718e-08
5.38396e-08
4.33965e-08
3.49709e-08
2.87886e-08
2.87886e-08
2.31904e-08
1.86824e-08
1.50544e-08
1.21356e-08
9.78789e-09
7.89977e-09
6.47668e-09
6.47668e-09
5.23492e-09
4.23609e-09
3.43059e-09
2.77842e-09
2.2491e-09
1.82049e-09
1.47543e-09
1.20639e-09
1.20639e-09
9.82505e-10
8.03891e-10
6.7561e-10
5.80013e-10
4.95932e-10
4.20505e-10
3.54955e-10
2.93108e-10
2.51881e-10
1.87191e-10
1.87191e-10
2.02237e-10
1.257e-10
2.78661e-10
3.23357e-10
7.46246e-10
)
;
    }
    procBoundary5to6
    {
        type            processor;
        value           nonuniform List<scalar> 
86
(
337.435
26.462
31.8594
32.1263
16.4693
1.53387
0.0345345
0.0225144
0
0
1.51675e-18
3.38976e-09
1.3976e-06
4.96415e-06
4.25467e-06
2.74801e-06
2.1178e-06
2.01704e-06
2.04352e-06
2.00904e-06
1.89424e-06
1.74304e-06
1.58945e-06
1.44528e-06
1.31113e-06
1.18468e-06
1.06507e-06
9.52356e-07
8.4667e-07
7.48546e-07
6.58187e-07
5.75449e-07
5.00365e-07
4.86814e-07
4.86814e-07
4.18317e-07
3.57433e-07
3.03756e-07
2.56799e-07
2.16012e-07
1.80838e-07
1.50716e-07
1.25086e-07
1.03411e-07
8.51863e-08
6.99439e-08
6.12749e-08
6.12749e-08
4.98908e-08
4.05315e-08
3.28656e-08
2.66076e-08
2.15142e-08
1.73785e-08
1.40282e-08
1.13189e-08
9.46122e-09
9.46122e-09
7.62284e-09
6.14397e-09
4.95515e-09
3.99975e-09
3.23139e-09
2.61192e-09
2.15971e-09
2.15971e-09
1.74297e-09
1.40637e-09
1.1362e-09
9.18934e-10
7.50824e-10
6.28926e-10
5.43418e-10
5.43418e-10
4.63749e-10
3.87034e-10
3.30194e-10
2.58109e-10
2.36944e-10
1.55043e-10
2.04227e-10
1.23873e-10
3.69682e-10
3.69682e-10
4.2551e-10
1.21838e-09
)
;
    }
}


// ************************************************************************* //
