/*--------------------------------*- C++ -*----------------------------------*\
| =========                 |                                                 |
| \\      /  F ield         | OpenFOAM: The Open Source CFD Toolbox           |
|  \\    /   O peration     | Version:  2506                                  |
|   \\  /    A nd           | Website:  www.openfoam.com                      |
|    \\/     M anipulation  |                                                 |
\*---------------------------------------------------------------------------*/
FoamFile
{
    version     2.0;
    format      ascii;
    arch        "LSB;label=32;scalar=64";
    class       volScalarField;
    location    "250";
    object      turbulenceProperties:L;
}
// * * * * * * * * * * * * * * * * * * * * * * * * * * * * * * * * * * * * * //

dimensions      [0 1 0 0 0 0 0];

internalField   nonuniform List<scalar> 
1340
(
0.0017892
0.00171341
0.001647
0.00158335
0.00154545
0.00152522
0.00152692
0.0015551
0.00161182
0.00169995
0.00182505
0.00199317
0.00221069
0.00249209
0.0028597
0.00334473
0.00400817
0.00491089
0.0062775
0.00817022
0.0116989
0.0166873
0.029016
0.0466314
0.0546572
0.0564437
0.0575509
0.0591232
0.0605461
0.0614049
0.0618046
0.0619979
0.0621387
0.0622943
0.0625324
0.00188285
0.00198111
0.00214055
0.00233285
0.00260328
0.00298984
0.00351506
0.00386741
0.00387806
0.00390047
0.00395811
0.00405263
0.00417018
0.00432287
0.00451632
0.00473558
0.00498453
0.00526253
0.0054846
0.00552595
0.00534647
0.00500274
0.00478985
0.00498936
0.00555641
0.00656735
0.00777125
0.0100909
0.0130408
0.0186338
0.0299884
0.0413689
0.0540729
0.0689525
0.085227
0.101046
0.115392
0.129046
0.142804
0.155534
0.166311
0.175047
0.00388528
0.00391228
0.00396886
0.0040575
0.00418873
0.00438262
0.00473372
0.00475282
0.00480764
0.00489507
0.00499185
0.00510509
0.00522779
0.00534616
0.00545485
0.0055442
0.00561682
0.00566072
0.00567424
0.00565354
0.00564582
0.00572468
0.00609893
0.00658574
0.0286983
0.00549054
0.00525403
0.0080676
0.019142
0.0187357
0.0263291
0.0342962
0.0443488
0.0586722
0.0770866
0.0980589
0.119282
0.139095
0.158136
0.177551
0.197106
0.00471514
0.00471772
0.00472374
0.00476599
0.00484421
0.00498495
0.00514953
0.0051442
0.00515717
0.0051788
0.00522428
0.00529426
0.00538559
0.00550653
0.00565529
0.00583475
0.00604801
0.00630061
0.00660097
0.00695746
0.00738509
0.00793099
0.00860989
0.00939228
0.0107986
0.0151361
19.8488
0.00957871
0.0118321
0.00740083
0.0158913
0.0285307
0.0323904
0.0558494
0.0723174
0.0818365
0.102838
0.127232
0.151782
0.174958
0.197931
0.00517737
0.00522045
0.0052903
0.00537823
0.00549497
0.00594564
0.00595093
0.00597433
0.00601674
0.00608415
0.00617927
0.00630043
0.00644997
0.00662799
0.00682821
0.0070476
0.00727925
0.00751199
0.0077349
0.00793643
0.00811869
0.00832523
0.00859747
0.00892443
0.00945933
0.0115331
0.0237076
0.0920611
0.363208
0
0
0.0116524
0.012841
0.0195797
0.0150117
0.032952
0.12071
0.188785
0.184947
0.202275
0.00595336
0.00597452
0.00601736
0.00608787
0.00619169
0.00656711
0.00655315
0.00655448
0.00656623
0.00659873
0.00665244
0.00672648
0.00682597
0.00695202
0.00710512
0.0072887
0.00750412
0.00775257
0.00803652
0.00835836
0.00873633
0.00921295
0.00979277
0.0104521
0.0111546
0.011835
0.0129423
0.0154136
0.0451079
0.12679
0.207667
0.410112
1.48652
0
0.00925881
0.0152932
0.0339561
0.0130445
0.101539
0.317366
0.00659707
0.00663915
0.00670182
0.00678729
0.00730156
0.00728559
0.00728305
0.00729229
0.00732151
0.00737295
0.00744674
0.0075472
0.00767657
0.00783526
0.00802533
0.00824755
0.00850081
0.00878333
0.00909321
0.00942311
0.00975546
0.0100991
0.0104893
0.0109499
0.0114534
0.0119286
0.0124865
0.0137086
0.0167837
0.0236687
0.0483805
20.9806
0.237634
1.13368
0
0
0.0115421
0.0431157
0.0371613
0.00733172
0.00737313
0.00743468
0.00752202
0.00802015
0.00799293
0.00797689
0.00797046
0.00798139
0.00801148
0.00806018
0.00813219
0.00822943
0.00835237
0.00850452
0.00868718
0.00890171
0.00915028
0.00943486
0.00975647
0.0101278
0.010573
0.0110895
0.0116552
0.012235
0.0127708
0.0132084
0.0135955
0.0142732
0.0154772
0.0174768
0.0211268
0.0279003
0.130695
0.224665
1.70697
0
0
0.0228634
0.00806156
0.00811232
0.00818194
0.0082772
0.00878113
0.00874677
0.00872197
0.0087066
0.00870715
0.00872588
0.00876271
0.00882251
0.00890723
0.0090182
0.00915869
0.00933053
0.00953534
0.00977532
0.0100514
0.0103659
0.0107187
0.0111017
0.011518
0.0119727
0.0124634
0.0129688
0.0134647
0.0139619
0.0145511
0.0153588
0.0163828
0.0176072
0.0190868
0.022154
0.0273711
0.175919
0.322182
0
0
0.00882891
0.0088852
0.00895959
0.00944425
0.00944752
0.00946729
0.00950829
0.00957204
0.00965999
0.00977563
0.00992069
0.0100971
0.0103074
0.0105536
0.0108385
0.011163
0.011536
0.0119657
0.012444
0.012951
0.013462
0.013963
0.01449
0.0151335
0.0159757
0.0169983
0.0180772
0.019077
0.020037
0.0210833
0.0243213
0.0373656
0.215088
12.6354
0.0102144
0.0102402
0.010288
0.0103591
0.0104572
0.0105842
0.0107425
0.0109348
0.0111634
0.0114305
0.0117388
0.0120886
0.0124791
0.0129096
0.0133712
0.0138533
0.0143488
0.0148847
0.0155387
0.0163923
0.0174537
0.0186156
0.0197371
0.0207061
0.0215319
0.0221324
0.0235179
0.0295435
1.37651
0.0110288
0.0110813
0.0111594
0.0112651
0.0114008
0.0115694
0.0117734
0.0120153
0.0122975
0.0126209
0.0129907
0.0134072
0.0138588
0.0143329
0.0148252
0.0153591
0.0160001
0.0168223
0.0178445
0.0189938
0.0201618
0.0212761
0.0223382
0.0231377
0.0236665
0.0239527
0.0288583
0.0118429
0.0119028
0.0119893
0.0121051
0.0122532
0.0124361
0.0126564
0.0129168
0.0132178
0.0135614
0.0139483
0.0143723
0.0148252
0.0153068
0.015837
0.0164685
0.0172632
0.0182404
0.0193437
0.0204827
0.0216109
0.0227402
0.0238263
0.0247167
0.0251417
0.0246258
0.012681
0.0127483
0.0128436
0.01297
0.0131302
0.013327
0.0135633
0.0138394
0.0141578
0.0145212
0.0149258
0.0153628
0.0158335
0.0163557
0.0169736
0.0177404
0.0186749
0.019732
0.0208318
0.0219316
0.023036
0.0241499
0.0252194
0.026121
0.0264427
0.013499
0.0135472
0.0136227
0.0137284
0.0138672
0.0140417
0.0142546
0.0145074
0.0148009
0.015138
0.015519
0.0159362
0.0163919
0.0169026
0.0175049
0.0182439
0.0191384
0.0201532
0.021219
0.022292
0.0233695
0.0244465
0.0255243
0.0264185
0.0278919
0.0143865
0.0144424
0.0145276
0.0146445
0.0147962
0.0149854
0.0152143
0.0154826
0.0157946
0.0161527
0.0165505
0.0169903
0.0174865
0.0180707
0.0187813
0.0196362
0.0206087
0.0216405
0.022689
0.0237465
0.0247979
0.0258515
0.0267185
0.0279819
0.0153053
0.01537
0.0154655
0.0155948
0.0157608
0.0159659
0.0162097
0.0164964
0.0168301
0.0172069
0.0176285
0.0181075
0.0186711
0.0193527
0.0201688
0.0210994
0.0220961
0.023119
0.024157
0.0251942
0.0262195
0.0271471
0.0279355
0.0162128
0.0162573
0.0163317
0.0164389
0.0165815
0.0167627
0.0169823
0.0172438
0.0175525
0.0179078
0.0183096
0.018769
0.0193101
0.0199618
0.0207394
0.0216284
0.0225888
0.0235843
0.0246005
0.0256247
0.0266269
0.0276033
0.0282328
0.0171926
0.0172457
0.0173308
0.0174504
0.0176074
0.0178029
0.0180394
0.0183229
0.0186557
0.019036
0.0194737
0.0199904
0.0206115
0.0213512
0.022199
0.0231223
0.0240886
0.0250813
0.0260889
0.0270775
0.0280535
0.0287639
0.0181767
0.0182089
0.0182719
0.0183686
0.0185017
0.0186736
0.0188852
0.0191429
0.0194519
0.0198097
0.0202242
0.020715
0.0213048
0.0220068
0.0228137
0.0236994
0.024635
0.0256032
0.0265912
0.0275714
0.0285238
0.0293593
0.0192247
0.0192658
0.0193398
0.0194493
0.0195971
0.0197832
0.020015
0.0202991
0.0206331
0.0210229
0.0214865
0.0220445
0.0227089
0.0234754
0.024323
0.0252267
0.0261693
0.0271362
0.0281081
0.0290413
0.029951
0.0202953
0.0203147
0.0203657
0.0204513
0.0205748
0.020736
0.020942
0.0212004
0.0215095
0.0218737
0.0223087
0.022834
0.0234611
0.0241874
0.0249966
0.0258673
0.026783
0.0277283
0.0286885
0.029614
0.0305472
0.0214209
0.0214492
0.0215111
0.0216104
0.0217468
0.0219268
0.0221585
0.0224417
0.0227792
0.0231847
0.0236769
0.0242667
0.0249531
0.0257236
0.0265604
0.0274481
0.0283715
0.0293178
0.0302425
0.0311771
0.0225881
0.0225935
0.0226318
0.0227064
0.0228179
0.0229718
0.0231759
0.0234325
0.0237423
0.0241179
0.0245767
0.0251294
0.0257762
0.0265081
0.0273101
0.0281687
0.0290694
0.0300009
0.0309261
0.0318619
0.023819
0.0238015
0.023816
0.0238658
0.0239526
0.0240799
0.0242564
0.0244861
0.0247678
0.0251125
0.0255373
0.0260529
0.0266603
0.0273534
0.0281204
0.0289491
0.0298265
0.0307427
0.0316674
0.0326103
0.0250768
0.0250673
0.0250923
0.0251541
0.0252549
0.0254031
0.0256051
0.0258578
0.0261715
0.0265625
0.0270413
0.02761
0.0282642
0.0289957
0.029794
0.0306477
0.0315479
0.0324723
0.033426
0.0264229
0.0263894
0.0263894
0.0264259
0.0265
0.02662
0.0267934
0.027017
0.0272994
0.0276565
0.0280988
0.028629
0.029245
0.0299406
0.030708
0.0315377
0.0324221
0.0333446
0.0343124
0.027844
0.0277864
0.0277611
0.0277718
0.0278189
0.0279108
0.0280553
0.0282497
0.0285008
0.0288239
0.0292299
0.0297221
0.0303001
0.0309602
0.0316964
0.0325014
0.0333709
0.0342906
0.0352732
0.0292617
0.0292111
0.0291958
0.0292161
0.0292797
0.0293952
0.0295598
0.0297797
0.0300695
0.0304398
0.0308946
0.031435
0.0320596
0.0327648
0.0335451
0.0343985
0.0353172
0.0363137
0.0308202
0.030744
0.0307026
0.0306959
0.0307313
0.0308175
0.0309524
0.0311413
0.031398
0.031733
0.0321512
0.0326548
0.0332444
0.0339185
0.0346746
0.0355124
0.036429
0.0374407
0.0324666
0.0323649
0.0322969
0.0322632
0.0322703
0.032327
0.0324322
0.0325906
0.0328148
0.0331151
0.0334975
0.0339652
0.0345204
0.035164
0.0358956
0.0367184
0.0376332
0.0386603
0.0340784
0.0339835
0.0339227
0.0339015
0.033929
0.034005
0.0341332
0.0343253
0.034592
0.0349394
0.035372
0.0358937
0.0365075
0.0372154
0.038023
0.0389366
0.039979
0.0358894
0.0357679
0.03568
0.0356307
0.035629
0.0356761
0.0357747
0.0359359
0.0361698
0.0364832
0.0368819
0.037371
0.0379556
0.0386404
0.0394337
0.0403458
0.0414039
0.0378049
0.0376563
0.0375412
0.0374637
0.0374331
0.0374519
0.0375215
0.0376521
0.0378543
0.0381352
0.0385012
0.0389589
0.0395155
0.040178
0.0409576
0.0418687
0.039654
0.0395119
0.0394065
0.0393474
0.0393382
0.0393795
0.0394809
0.0396527
0.0399024
0.0402371
0.0406648
0.0411945
0.0418358
0.0426023
0.0435129
0.0417682
0.0415989
0.0414658
0.0413785
0.041342
0.041356
0.0414293
0.0415719
0.0417916
0.0420966
0.0424959
0.0430003
0.0436215
0.044376
0.0452863
0.0440055
0.0438091
0.0436485
0.0435339
0.0434704
0.0434578
0.0435043
0.0436192
0.0438107
0.0440876
0.0444604
0.044941
0.0455434
0.0462868
0.0471973
0.0463731
0.046149
0.0459616
0.0458205
0.045731
0.0456932
0.045714
0.0458027
0.0459676
0.0462184
0.0465664
0.0470248
0.04761
0.0483434
0.0492545
0.0488786
0.0486274
0.0484136
0.0482465
0.0481318
0.0480695
0.048066
0.0481302
0.0482705
0.0484971
0.0488222
0.0492604
0.04983
0.0505548
0.0514669
0.0512519
0.0510119
0.0508194
0.0506803
0.050595
0.0505691
0.0506104
0.0507279
0.0509323
0.0512367
0.0516568
0.0522126
0.0529299
0.0538436
0.0540306
0.053765
0.0535481
0.0533863
0.0532792
0.0532318
0.0532521
0.0533488
0.0535331
0.0538189
0.0542231
0.0547669
0.0554781
0.056394
0.0569731
0.0566824
0.0564417
0.0562579
0.0561303
0.0560631
0.0560644
0.0561426
0.056309
0.0565784
0.0569688
0.0575026
0.0582091
0.0591277
0.0600877
0.0597724
0.0595091
0.0593046
0.0591583
0.0590732
0.059057
0.0591187
0.0592696
0.0595249
0.0599037
0.0604294
0.0611327
0.0620546
0.0633843
0.0630453
0.0627602
0.0625361
0.0623723
0.062271
0.0622395
0.0622868
0.0624246
0.0626682
0.0630376
0.0635572
0.0642587
0.0651847
0.0665105
0.0662045
0.065962
0.0657823
0.0656669
0.0656223
0.0656573
0.065784
0.0660184
0.0663808
0.0668963
0.0675976
0.0685282
0.0701779
0.0698523
0.069593
0.069399
0.0692711
0.0692152
0.0692401
0.0693582
0.0695858
0.0699436
0.0704568
0.0711593
0.0740577
0.0737138
0.0734392
0.0732325
0.0730938
0.0730286
0.0730458
0.0731577
0.0733809
0.0737361
0.0742494
0.0749548
0.0781612
0.0777997
0.0775111
0.0772934
0.0771458
0.0770734
0.0770849
0.077193
0.0774142
0.0777692
0.0782844
0.0789942
0.0824984
0.0821204
0.0818191
0.0815924
0.0814378
0.0813603
0.0813685
0.0814751
0.0816966
0.0820536
0.0825727
0.0832883
0.086687
0.0863745
0.08614
0.0859805
0.0859001
0.0859073
0.0860145
0.0862385
0.0865999
0.087125
0.0878479
0.0915102
0.0911881
0.0909475
0.0907849
0.0907034
0.0907115
0.0908219
0.0910507
0.0914187
0.091952
0.092684
0.0966009
0.0962707
0.0960257
0.0958618
0.0957812
0.0957927
0.0959084
0.0961444
0.0965212
0.0970643
0.0978072
0.10197
0.101633
0.101386
0.101222
0.101145
0.101162
0.101285
0.101531
0.101918
0.102473
0.103228
0.107628
0.107286
0.107038
0.106877
0.106805
0.106829
0.106962
0.10722
0.10762
0.10819
0.108959
0.113586
0.113241
0.112993
0.112837
0.112772
0.112806
0.112952
0.113223
0.113639
0.114225
0.119854
0.119506
0.119261
0.119111
0.119056
0.119103
0.119263
0.119551
0.119985
0.120589
0.126091
0.125851
0.125709
0.125665
0.125727
0.125904
0.126212
0.126667
0.127293
0.133001
0.132768
0.132637
0.132608
0.132687
0.132885
0.133215
0.133694
0.134345
0.140252
0.140027
0.139908
0.139895
0.139994
0.140214
0.140569
0.141076
0.141754
0.147868
0.147651
0.147547
0.147552
0.147671
0.147916
0.148297
0.148831
0.149538
0.155894
0.155689
0.155598
0.155621
0.155761
0.156029
0.156435
0.156997
0.157731
0.164378
0.164185
0.164111
0.164153
0.164315
0.164607
0.165039
0.165626
0.173327
0.17315
0.173097
0.173163
0.173353
0.173675
0.174138
0.174756
0.182707
0.182553
0.182528
0.182629
0.182857
0.183219
0.183726
0.184387
0.192333
0.192346
0.192491
0.192769
0.193187
0.193753
0.194474
0.202504
0.202564
0.202765
0.203106
0.203595
0.204239
0.205039
0.212936
0.213016
0.213245
0.213604
0.214135
0.214838
0.215669
0.222414
0.222535
0.222822
0.223207
0.223805
0.224606
0.22546
0.231094
0.231282
0.231676
0.232167
0.23291
0.233908
0.240288
0.240462
0.240868
0.24139
0.242181
0.243277
0.250477
0.250762
0.251321
0.252018
0.252976
0.254332
0.261191
0.261362
0.261824
0.262473
0.263367
0.264609
0.274493
0.275181
0.276224
0.27742
0.278822
0.281002
0.284198
0.284138
0.284458
0.285251
0.286182
0.287048
0.308288
0.310377
0.312152
0.314303
0.319133
0.299554
0.298728
0.29962
0.29988
0.297129
0.337668
0.33731
0.334813
0.335833
0.342641
0.274154
0.270404
0.270753
0.269177
0.262358
0.259079
0.25536
0.250305
0.216807
0.210745
0.214625
0.220272
)
;

boundaryField
{
    inlet
    {
        type            calculated;
        value           nonuniform List<scalar> 4(0.103162 0.100008 0.0993728 0.0987975);
    }
    outlet
    {
        type            calculated;
        value           nonuniform List<scalar> 0();
    }
    walls
    {
        type            calculated;
        value           uniform 0;
    }
    frontAndBack
    {
        type            empty;
    }
    procBoundary5to0
    {
        type            processor;
        value           nonuniform List<scalar> 4(0.00956371 0.00962029 0.00968379 0.00976473);
    }
    procBoundary5to1
    {
        type            processor;
        value           nonuniform List<scalar> 
13
(
0.00403427
0.00464804
0.00464804
0.00520103
0.00565994
0.00565994
0.00634827
0.006902
0.006902
0.00764012
0.00840147
0.00906137
0.00906137
)
;
    }
    procBoundary5to4
    {
        type            processor;
        value           nonuniform List<scalar> 
95
(
0.00952022
0.00948439
0.00945693
0.00945693
0.0102184
0.0102084
0.0102084
0.0109887
0.0109984
0.0109984
0.0118077
0.0118077
0.0126395
0.0126395
0.0134755
0.0143569
0.0143569
0.0152691
0.0152691
0.0161958
0.017168
0.017168
0.0181724
0.0192133
0.0192133
0.0203051
0.0214234
0.0214234
0.0226125
0.0238656
0.0251173
0.0251173
0.0264866
0.0279313
0.0293438
0.0293438
0.0309272
0.0325986
0.0342063
0.0342063
0.0360438
0.0379856
0.0398299
0.0398299
0.0419715
0.0442364
0.0466316
0.0491648
0.0515301
0.0515301
0.0543358
0.0573047
0.0604456
0.0637681
0.0668725
0.0668725
0.0705627
0.0744643
0.0785886
0.0829462
0.0870799
0.0870799
0.091917
0.0970207
0.102401
0.10807
0.114038
0.120314
0.126439
0.126439
0.13335
0.140597
0.148209
0.15623
0.164706
0.173646
0.183012
0.192458
0.192458
0.202591
0.213011
0.222472
0.23112
0.240347
0.250466
0.261304
0.274114
0.284702
0.306634
0.306634
0.300767
0.338737
0.277608
0.267475
0.217018
)
;
    }
    procBoundary5to6
    {
        type            processor;
        value           nonuniform List<scalar> 
86
(
0.0628936
0.181805
0.215973
0.222161
0.223912
0.250581
0.212013
0.0831793
0
0
0.457128
0.229185
0.0332315
0.0244682
0.0252972
0.027879
0.0296959
0.0300617
0.0299805
0.0301271
0.030581
0.0312228
0.0319483
0.032715
0.0335208
0.0343815
0.0353087
0.0363101
0.0373937
0.0385631
0.0398235
0.0411836
0.0426486
0.0429423
0.0429423
0.0446015
0.0463903
0.0483165
0.0503881
0.0526147
0.0550053
0.0575688
0.060315
0.0632537
0.066395
0.0697494
0.0720953
0.0720953
0.0758967
0.0799428
0.0842447
0.0888129
0.0936583
0.0987927
0.104226
0.10997
0.115011
0.115011
0.121394
0.128119
0.135195
0.142631
0.150444
0.158665
0.166387
0.166387
0.175547
0.18522
0.195365
0.206009
0.216681
0.226492
0.234918
0.234918
0.244414
0.255716
0.266072
0.282968
0.289086
0.321424
0.300031
0.33998
0.25867
0.25867
0.249736
0.191987
)
;
    }
}


// ************************************************************************* //
