/*--------------------------------*- C++ -*----------------------------------*\
| =========                 |                                                 |
| \\      /  F ield         | OpenFOAM: The Open Source CFD Toolbox           |
|  \\    /   O peration     | Version:  2506                                  |
|   \\  /    A nd           | Website:  www.openfoam.com                      |
|    \\/     M anipulation  |                                                 |
\*---------------------------------------------------------------------------*/
FoamFile
{
    version     2.0;
    format      ascii;
    arch        "LSB;label=32;scalar=64";
    class       volScalarField;
    location    "15";
    object      p;
}
// * * * * * * * * * * * * * * * * * * * * * * * * * * * * * * * * * * * * * //

dimensions      [0 2 -2 0 0 0 0];

internalField   nonuniform List<scalar> 
400
(
-4.05556e-09
-0.000106707
-0.000297688
-0.000563018
-0.000888793
-0.001244
-0.00156137
-0.00172683
-0.00159797
-0.00104783
-5.78501e-06
0.00151084
0.00334939
0.00499465
0.00591789
0.00583927
0.0048039
0.00364285
0.00287759
0.00274822
0.000103867
-6.9253e-06
-0.000157222
-0.000362714
-0.000619987
-0.000920053
-0.00124549
-0.00153523
-0.00165173
-0.00139866
-0.000599306
0.000787459
0.00251509
0.00415156
0.00514911
0.00517149
0.00432821
0.00317375
0.00254938
0.00250721
0.000297968
0.000141092
-1.42368e-05
-0.000245144
-0.000594412
-0.00110552
-0.00179421
-0.00258032
-0.00325154
-0.00349668
-0.00303046
-0.00179396
-2.15585e-05
0.00188173
0.00335335
0.00391499
0.00350716
0.00261581
0.00184092
0.0017225
0.000439214
0.000232309
2.83055e-05
-0.000338241
-0.000987335
-0.00203056
-0.00349088
-0.00520428
-0.00681235
-0.00786178
-0.00798566
-0.00710804
-0.00540088
-0.00315051
-0.000838718
0.000957934
0.0018096
0.00171219
0.0010616
0.000498953
0.000358861
8.92238e-05
-0.000231975
-0.000886366
-0.00209667
-0.00402751
-0.0066372
-0.00959298
-0.0123591
-0.0143915
-0.0153107
-0.0149786
-0.0134582
-0.0109334
-0.00774543
-0.00441579
-0.0016239
-2.86906e-06
0.000206742
-0.00125015
-0.000130447
-0.000478926
-0.000998212
-0.00209642
-0.00409374
-0.00715278
-0.0110835
-0.0153113
-0.0191276
-0.0219736
-0.0235409
-0.0236939
-0.0224295
-0.0199023
-0.0162825
-0.0118138
-0.00705256
-0.00313397
-0.0015331
-0.00342088
-0.00114522
-0.00158688
-0.00236736
-0.00400227
-0.00686902
-0.0110548
-0.0161587
-0.0213578
-0.0258348
-0.0290797
-0.0308887
-0.0312315
-0.0301687
-0.027852
-0.0243483
-0.0195999
-0.0137302
-0.00780087
-0.00437258
-0.00496193
-0.00267731
-0.00321149
-0.00426771
-0.00642185
-0.0100514
-0.0151342
-0.0210651
-0.0268362
-0.0316067
-0.0349583
-0.0367867
-0.0371369
-0.0361429
-0.0339866
-0.0307619
-0.0263156
-0.020376
-0.0133859
-0.00776384
-0.00537243
-0.00457895
-0.00517808
-0.00646729
-0.00902217
-0.01318
-0.0188315
-0.0252334
-0.0312798
-0.036159
-0.0395344
-0.0413489
-0.0416623
-0.0406274
-0.0384709
-0.0354065
-0.0313906
-0.0259853
-0.0189506
-0.0117217
-0.00667452
-0.00661263
-0.00721735
-0.00865565
-0.0114344
-0.0158421
-0.0217379
-0.0283321
-0.034491
-0.0394362
-0.0428656
-0.0447153
-0.0450115
-0.0438826
-0.0415897
-0.0384852
-0.0347389
-0.0300277
-0.0236665
-0.0162522
-0.0097069
-0.00852775
-0.00907113
-0.0105484
-0.0133544
-0.0177436
-0.0235978
-0.0301649
-0.0363375
-0.0413486
-0.044873
-0.0468005
-0.0471054
-0.0458622
-0.043367
-0.0400892
-0.0364262
-0.0323277
-0.0269101
-0.0202849
-0.0133937
-0.0101242
-0.0105533
-0.0119453
-0.0145785
-0.0187075
-0.0242608
-0.0305902
-0.0366747
-0.0417332
-0.0453617
-0.0473757
-0.0477091
-0.0463469
-0.0436701
-0.0401953
-0.0365067
-0.0328986
-0.0283418
-0.0227082
-0.0159747
-0.0113292
-0.0115798
-0.0127351
-0.0150079
-0.0186558
-0.0236728
-0.0295623
-0.0354335
-0.0404801
-0.0441889
-0.0462803
-0.0466375
-0.0452525
-0.042461
-0.0388492
-0.0350757
-0.0318483
-0.0278657
-0.0230639
-0.0164598
-0.0121404
-0.0121711
-0.012933
-0.0146364
-0.0175817
-0.0218671
-0.0271529
-0.0326817
-0.037633
-0.0413867
-0.0435593
-0.0439749
-0.0426576
-0.0398642
-0.0362239
-0.0324719
-0.0293437
-0.0256771
-0.0217081
-0.0147243
-0.0126035
-0.0124047
-0.0126358
-0.0135943
-0.0156829
-0.0191068
-0.0236686
-0.0287407
-0.0335144
-0.0372849
-0.0395717
-0.0401326
-0.0389619
-0.0362849
-0.0327315
-0.0290286
-0.0258846
-0.0223445
-0.0195491
-0.0108707
-0.0128205
-0.0124053
-0.0119213
-0.011991
-0.0131723
-0.0157324
-0.0195647
-0.0241468
-0.0287099
-0.0324979
-0.0349477
-0.0357401
-0.0348397
-0.0323992
-0.0290095
-0.0253335
-0.0220616
-0.0184705
-0.0166887
-0.00361758
-0.012858
-0.0122913
-0.0109332
-0.0100684
-0.0104034
-0.0122311
-0.0154687
-0.0196469
-0.0240468
-0.0278939
-0.0305693
-0.0316633
-0.0310879
-0.0289915
-0.0257757
-0.021977
-0.0182089
-0.0139216
-0.0101981
0.012312
-0.0137105
-0.0122252
-0.00952008
-0.0077424
-0.00746178
-0.00885222
-0.0117714
-0.0157516
-0.0201307
-0.0241328
-0.0271283
-0.0286267
-0.0284739
-0.0266606
-0.0235013
-0.0191784
-0.0139327
-0.00598153
0.00811722
0.0493231
-0.0118641
-0.0126739
-0.0086143
-0.00581153
-0.00503304
-0.00623075
-0.00908357
-0.0130672
-0.0175713
-0.0218034
-0.0251645
-0.0270856
-0.0273795
-0.0258169
-0.0224211
-0.0165205
-0.00687531
0.0119062
0.0493294
0.119791
-0.0294816
-0.0123947
-0.00472047
-0.00212678
-0.00195617
-0.0035034
-0.00658275
-0.0107624
-0.0154656
-0.0199101
-0.0235097
-0.0257041
-0.0262765
-0.0248241
-0.0207904
-0.0121187
0.00546319
0.0426492
0.112265
0.216456
)
;

boundaryField
{
    movingWall
    {
        type            zeroGradient;
    }
    fixedWalls
    {
        type            zeroGradient;
    }
    frontAndBack
    {
        type            empty;
    }
}


// ************************************************************************* //
