/*--------------------------------*- C++ -*----------------------------------*\
| =========                 |                                                 |
| \\      /  F ield         | OpenFOAM: The Open Source CFD Toolbox           |
|  \\    /   O peration     | Version:  2506                                  |
|   \\  /    A nd           | Website:  www.openfoam.com                      |
|    \\/     M anipulation  |                                                 |
\*---------------------------------------------------------------------------*/
FoamFile
{
    version     2.0;
    format      ascii;
    arch        "LSB;label=32;scalar=64";
    class       volVectorField;
    location    "15";
    object      U;
}
// * * * * * * * * * * * * * * * * * * * * * * * * * * * * * * * * * * * * * //

dimensions      [0 1 -1 0 0 0 0];

internalField   nonuniform List<vector> 
400
(
(0.000591217 -0.000686544 0)
(0.00121283 -0.000553362 0)
(0.000812161 -0.000275103 0)
(-0.000667321 4.23044e-05 0)
(-0.00367355 0.000567506 0)
(-0.00887689 0.00143501 0)
(-0.0169303 0.00275601 0)
(-0.0279703 0.00443214 0)
(-0.0409975 0.0058977 0)
(-0.0535594 0.00619249 0)
(-0.0624574 0.00464819 0)
(-0.0650521 0.00157918 0)
(-0.0599179 -0.00196318 0)
(-0.0468028 -0.00538751 0)
(-0.0284486 -0.00739247 0)
(-0.0080746 -0.00686659 0)
(0.00816957 -0.00397332 0)
(0.0145781 0.00110725 0)
(0.0104084 0.00392271 0)
(0.00302758 0.00305824 0)
(-5.92007e-05 -0.00116655 0)
(-0.00177643 0.000451794 0)
(-0.00635274 0.00243455 0)
(-0.0138511 0.00495684 0)
(-0.0253717 0.00859704 0)
(-0.0419603 0.0134267 0)
(-0.0634465 0.0187641 0)
(-0.0875221 0.0228377 0)
(-0.110024 0.0232942 0)
(-0.12673 0.0187377 0)
(-0.134863 0.0097006 0)
(-0.133239 -0.00193546 0)
(-0.122167 -0.0141794 0)
(-0.10177 -0.0251029 0)
(-0.0742256 -0.0315606 0)
(-0.0421911 -0.0304183 0)
(-0.0108053 -0.0202947 0)
(0.0102909 -0.00317747 0)
(0.0122062 0.0100022 0)
(0.00417857 0.0100248 0)
(-0.00128101 0.00104435 0)
(-0.00681708 0.00632965 0)
(-0.0171954 0.0118446 0)
(-0.0318378 0.0189683 0)
(-0.0520734 0.0283037 0)
(-0.07818 0.0385462 0)
(-0.107901 0.046699 0)
(-0.136918 0.0491788 0)
(-0.160927 0.0437808 0)
(-0.177266 0.0308591 0)
(-0.18477 0.0124766 0)
(-0.183301 -0.00898842 0)
(-0.173211 -0.0313338 0)
(-0.154265 -0.0514918 0)
(-0.1266 -0.0652161 0)
(-0.0908175 -0.0670208 0)
(-0.0495102 -0.0518051 0)
(-0.0104747 -0.0203202 0)
(0.0075113 0.0103722 0)
(0.00381405 0.0167438 0)
(-0.00279431 0.00679182 0)
(-0.0125541 0.0176698 0)
(-0.0287635 0.0277427 0)
(-0.0499225 0.0403875 0)
(-0.0770222 0.0554604 0)
(-0.10907 0.06939 0)
(-0.142271 0.0771474 0)
(-0.171968 0.0749721 0)
(-0.19506 0.0623921 0)
(-0.210459 0.041576 0)
(-0.21808 0.0150845 0)
(-0.218464 -0.0150221 0)
(-0.212051 -0.0465709 0)
(-0.198207 -0.0765266 0)
(-0.175496 -0.100361 0)
(-0.142082 -0.110953 0)
(-0.0970217 -0.0988951 0)
(-0.0435373 -0.0573884 0)
(-0.000415294 -0.00124794 0)
(0.0043742 0.0209025 0)
(-0.00413084 0.0158585 0)
(-0.017576 0.0339896 0)
(-0.0385149 0.0490985 0)
(-0.0643128 0.067151 0)
(-0.0953757 0.0866488 0)
(-0.12946 0.101697 0)
(-0.161833 0.106351 0)
(-0.188325 0.098107 0)
(-0.207382 0.0786422 0)
(-0.219407 0.0512829 0)
(-0.225497 0.0185839 0)
(-0.226947 -0.017769 0)
(-0.224372 -0.0561094 0)
(-0.217171 -0.0943619 0)
(-0.203468 -0.129176 0)
(-0.179376 -0.153486 0)
(-0.140456 -0.154734 0)
(-0.0838811 -0.116245 0)
(-0.0165821 -0.0334005 0)
(0.0060565 0.0207235 0)
(-0.00489783 0.0274671 0)
(-0.0206797 0.053861 0)
(-0.0442894 0.0738327 0)
(-0.0719136 0.0962751 0)
(-0.103301 0.118192 0)
(-0.135248 0.131986 0)
(-0.162837 0.131955 0)
(-0.182992 0.117419 0)
(-0.195703 0.0918863 0)
(-0.2026 0.0594873 0)
(-0.205699 0.0229853 0)
(-0.206754 -0.0159958 0)
(-0.206582 -0.0566878 0)
(-0.205292 -0.0988719 0)
(-0.201611 -0.141609 0)
(-0.190817 -0.180246 0)
(-0.165817 -0.202183 0)
(-0.119266 -0.183566 0)
(-0.048905 -0.0967653 0)
(0.00452679 0.011071 0)
(-0.00480196 0.0401648 0)
(-0.0210186 0.075169 0)
(-0.0447291 0.0992509 0)
(-0.0711427 0.124471 0)
(-0.0995874 0.146754 0)
(-0.126493 0.157598 0)
(-0.147459 0.152147 0)
(-0.160766 0.131528 0)
(-0.167619 0.100742 0)
(-0.170248 0.0645897 0)
(-0.170704 0.0260859 0)
(-0.170486 -0.0131621 0)
(-0.170544 -0.0529516 0)
(-0.172011 -0.0943743 0)
(-0.174982 -0.138919 0)
(-0.175892 -0.186276 0)
(-0.166811 -0.228004 0)
(-0.137939 -0.2392 0)
(-0.0835231 -0.175009 0)
(-0.00606904 -0.0129954 0)
(-0.00376788 0.0521974 0)
(-0.0184049 0.095635 0)
(-0.0397974 0.122881 0)
(-0.062594 0.149267 0)
(-0.0860556 0.170366 0)
(-0.106854 0.177438 0)
(-0.121555 0.166643 0)
(-0.129703 0.140647 0)
(-0.133206 0.105593 0)
(-0.134262 0.0666568 0)
(-0.134274 0.0267332 0)
(-0.133795 -0.0127824 0)
(-0.133317 -0.0515241 0)
(-0.134415 -0.090253 0)
(-0.138797 -0.131594 0)
(-0.145612 -0.179707 0)
(-0.148332 -0.233468 0)
(-0.135938 -0.272876 0)
(-0.100707 -0.243121 0)
(-0.0248108 -0.0617392 0)
(-0.00198159 0.0618548 0)
(-0.0133399 0.113116 0)
(-0.0305907 0.142689 0)
(-0.0482766 0.168967 0)
(-0.0658488 0.18808 0)
(-0.0806425 0.191539 0)
(-0.0903618 0.176399 0)
(-0.0954572 0.146427 0)
(-0.0979652 0.108454 0)
(-0.0995832 0.0676766 0)
(-0.100789 0.0265514 0)
(-0.1012 -0.0138542 0)
(-0.100776 -0.0527586 0)
(-0.100752 -0.089636 0)
(-0.103703 -0.126446 0)
(-0.111553 -0.169987 0)
(-0.120865 -0.227335 0)
(-0.120067 -0.288595 0)
(-0.0999126 -0.298001 0)
(-0.0335889 -0.136893 0)
(0.000162666 0.0678212 0)
(-0.00671966 0.126077 0)
(-0.0186479 0.157557 0)
(-0.0304707 0.183081 0)
(-0.0418648 0.200163 0)
(-0.0510567 0.200901 0)
(-0.0568436 0.182977 0)
(-0.0601437 0.150755 0)
(-0.0626167 0.11134 0)
(-0.0652366 0.069728 0)
(-0.0677761 0.0278393 0)
(-0.0694702 -0.0136505 0)
(-0.0700755 -0.0536693 0)
(-0.0701097 -0.0902739 0)
(-0.0718436 -0.123653 0)
(-0.0785957 -0.160613 0)
(-0.0910158 -0.21483 0)
(-0.0979594 -0.289688 0)
(-0.0910887 -0.336213 0)
(-0.0298565 -0.212499 0)
(0.00220086 0.0692449 0)
(0.000350484 0.133367 0)
(-0.00566023 0.166644 0)
(-0.0113904 0.19109 0)
(-0.016592 0.206441 0)
(-0.0203801 0.205672 0)
(-0.0225285 0.186745 0)
(-0.0241233 0.154085 0)
(-0.0262056 0.114626 0)
(-0.0290883 0.0730345 0)
(-0.0322539 0.0308817 0)
(-0.0351172 -0.0113395 0)
(-0.0374585 -0.0524662 0)
(-0.0392287 -0.0896005 0)
(-0.0418588 -0.121358 0)
(-0.0481512 -0.152532 0)
(-0.0623698 -0.200239 0)
(-0.0742445 -0.281887 0)
(-0.0794295 -0.359994 0)
(-0.0228438 -0.275033 0)
(0.00378563 0.0663681 0)
(0.00691998 0.134816 0)
(0.00685695 0.169965 0)
(0.0071221 0.193479 0)
(0.0080668 0.207601 0)
(0.00975627 0.206433 0)
(0.0116286 0.18793 0)
(0.012478 0.156202 0)
(0.0117647 0.117689 0)
(0.00963987 0.0767631 0)
(0.00671471 0.0349655 0)
(0.00303335 -0.00714978 0)
(-0.00117532 -0.0481735 0)
(-0.00579748 -0.0853295 0)
(-0.0115944 -0.116307 0)
(-0.0194689 -0.14335 0)
(-0.0361805 -0.183746 0)
(-0.0514845 -0.267286 0)
(-0.0682925 -0.372524 0)
(-0.0152297 -0.327571 0)
(0.00450445 0.0600848 0)
(0.01187 0.130567 0)
(0.0173362 0.167183 0)
(0.0231881 0.18956 0)
(0.0300053 0.202519 0)
(0.0372668 0.201813 0)
(0.0438748 0.185141 0)
(0.0483866 0.155764 0)
(0.0503092 0.119297 0)
(0.0499076 0.0798682 0)
(0.047798 0.039241 0)
(0.0436873 -0.00194686 0)
(0.0378322 -0.0416685 0)
(0.0299207 -0.0776426 0)
(0.0195608 -0.107337 0)
(0.00790787 -0.131284 0)
(-0.0125372 -0.165343 0)
(-0.0294617 -0.247453 0)
(-0.057943 -0.375365 0)
(-0.00740967 -0.370178 0)
(0.0041665 0.0518497 0)
(0.0143188 0.121594 0)
(0.024565 0.159428 0)
(0.0354398 0.180771 0)
(0.0477487 0.192354 0)
(0.0606075 0.192247 0)
(0.0724812 0.178161 0)
(0.0816414 0.152172 0)
(0.0872996 0.118794 0)
(0.089479 0.0818468 0)
(0.0886199 0.0434788 0)
(0.0845015 0.00473806 0)
(0.077109 -0.0322855 0)
(0.0660264 -0.0657661 0)
(0.0510426 -0.093464 0)
(0.0341686 -0.114922 0)
(0.00855159 -0.14361 0)
(-0.00783236 -0.223369 0)
(-0.0485148 -0.372441 0)
(0.000986234 -0.406794 0)
(0.00278047 0.0436169 0)
(0.0134095 0.109613 0)
(0.0266682 0.146405 0)
(0.0415021 0.165626 0)
(0.0586966 0.175186 0)
(0.0770661 0.175314 0)
(0.0945796 0.164125 0)
(0.109127 0.142514 0)
(0.119428 0.113696 0)
(0.125052 0.080922 0)
(0.126078 0.0465446 0)
(0.122443 0.0120273 0)
(0.113649 -0.0208495 0)
(0.0998831 -0.0504093 0)
(0.0804146 -0.0749052 0)
(0.0585293 -0.0944736 0)
(0.0277076 -0.119269 0)
(0.0136514 -0.196939 0)
(-0.0395931 -0.367097 0)
(0.0109557 -0.43932 0)
(0.000504604 0.0370401 0)
(0.00937099 0.0974089 0)
(0.0241789 0.132317 0)
(0.0419559 0.148937 0)
(0.0630204 0.15561 0)
(0.0859945 0.154744 0)
(0.10858 0.145539 0)
(0.128321 0.128153 0)
(0.143405 0.104557 0)
(0.152941 0.0772178 0)
(0.156381 0.0482946 0)
(0.153962 0.0194527 0)
(0.144523 -0.0079712 0)
(0.129052 -0.0322408 0)
(0.106051 -0.0523775 0)
(0.080452 -0.0697591 0)
(0.0456463 -0.0929027 0)
(0.0340659 -0.170718 0)
(-0.0300331 -0.361976 0)
(0.0248195 -0.467066 0)
(-0.00296214 0.0376932 0)
(-0.000986369 0.0873479 0)
(0.0117602 0.112208 0)
(0.0324724 0.123892 0)
(0.0577149 0.12782 0)
(0.0852957 0.126213 0)
(0.112652 0.118982 0)
(0.137296 0.106043 0)
(0.157025 0.0885246 0)
(0.170636 0.0680535 0)
(0.176959 0.0464277 0)
(0.176326 0.0249942 0)
(0.167261 0.00496371 0)
(0.152076 -0.0127675 0)
(0.127506 -0.0276264 0)
(0.101357 -0.0429282 0)
(0.0649991 -0.0670242 0)
(0.0543092 -0.147105 0)
(-0.0137283 -0.352218 0)
(0.0475062 -0.480281 0)
(-0.00729507 0.0287349 0)
(-0.00804379 0.0868355 0)
(0.000907565 0.104827 0)
(0.0218329 0.106718 0)
(0.0493267 0.104256 0)
(0.0795435 0.0999072 0)
(0.109794 0.0932998 0)
(0.137385 0.0836641 0)
(0.160249 0.0716495 0)
(0.177241 0.057815 0)
(0.186459 0.043719 0)
(0.189484 0.0299122 0)
(0.183082 0.0178022 0)
(0.172788 0.00685576 0)
(0.151413 -0.00262394 0)
(0.132991 -0.016358 0)
(0.0981068 -0.0437557 0)
(0.0873407 -0.127726 0)
(0.0272351 -0.321131 0)
(0.0885856 -0.452066 0)
(-0.101373 0.0898265 0)
(-0.0752452 0.0730245 0)
(-0.0547023 0.0644537 0)
(-0.0159718 0.0620092 0)
(0.0233062 0.059723 0)
(0.063247 0.0567959 0)
(0.101059 0.0531417 0)
(0.137278 0.04807 0)
(0.167422 0.0423398 0)
(0.19534 0.0356874 0)
(0.213366 0.0293662 0)
(0.230904 0.0231173 0)
(0.235049 0.0182009 0)
(0.242965 0.0136407 0)
(0.232274 0.00928854 0)
(0.232237 -4.90031e-05 0)
(0.200328 -0.0245667 0)
(0.199379 -0.088664 0)
(0.143601 -0.228608 0)
(0.1693 -0.340993 0)
(0.132941 0.106493 0)
(0.164831 0.0814315 0)
(0.221849 0.0596004 0)
(0.278514 0.046384 0)
(0.325562 0.038653 0)
(0.370044 0.0331929 0)
(0.406808 0.0294098 0)
(0.445399 0.0258756 0)
(0.474121 0.0233239 0)
(0.507018 0.020328 0)
(0.525914 0.0184178 0)
(0.552624 0.0156547 0)
(0.560441 0.0145072 0)
(0.581682 0.0119434 0)
(0.576453 0.0114404 0)
(0.589796 0.00725563 0)
(0.558883 0.00255467 0)
(0.54492 -0.0162885 0)
(0.438368 -0.0492395 0)
(0.338931 -0.100858 0)
)
;

boundaryField
{
    movingWall
    {
        type            fixedValue;
        value           uniform (1 0 0);
    }
    fixedWalls
    {
        type            noSlip;
    }
    frontAndBack
    {
        type            empty;
    }
}


// ************************************************************************* //
