/*--------------------------------*- C++ -*----------------------------------*\
| =========                 |                                                 |
| \\      /  F ield         | OpenFOAM: The Open Source CFD Toolbox           |
|  \\    /   O peration     | Version:  2506                                  |
|   \\  /    A nd           | Website:  www.openfoam.com                      |
|    \\/     M anipulation  |                                                 |
\*---------------------------------------------------------------------------*/
FoamFile
{
    version     2.0;
    format      ascii;
    arch        "LSB;label=32;scalar=64";
    class       volVectorField;
    location    "14";
    object      U;
}
// * * * * * * * * * * * * * * * * * * * * * * * * * * * * * * * * * * * * * //

dimensions      [0 1 -1 0 0 0 0];

internalField   nonuniform List<vector> 
400
(
(0.00049999 -0.000607675 0)
(0.00083867 -0.000404269 0)
(0.000110253 -0.000142694 0)
(-0.00150636 0.00014184 0)
(-0.00439306 0.000617986 0)
(-0.00918123 0.00139764 0)
(-0.0164437 0.00254148 0)
(-0.026321 0.00394975 0)
(-0.0379988 0.00517307 0)
(-0.0493887 0.00544028 0)
(-0.0576318 0.00413225 0)
(-0.0602056 0.00139899 0)
(-0.0556176 -0.00183518 0)
(-0.0435418 -0.00499182 0)
(-0.0265403 -0.00682701 0)
(-0.00769166 -0.0063104 0)
(0.00728421 -0.00363909 0)
(0.0131732 0.000951941 0)
(0.00945313 0.00353132 0)
(0.00277046 0.00276715 0)
(-0.000225805 -0.000725173 0)
(-0.00236251 0.00103801 0)
(-0.00724303 0.00277768 0)
(-0.0144739 0.00486952 0)
(-0.024942 0.00793563 0)
(-0.0396493 0.0120617 0)
(-0.0586834 0.0166792 0)
(-0.0804134 0.0203651 0)
(-0.101411 0.0210977 0)
(-0.117658 0.017366 0)
(-0.126094 0.00926859 0)
(-0.125213 -0.00153646 0)
(-0.115148 -0.0130128 0)
(-0.0959622 -0.0232888 0)
(-0.0698446 -0.0293229 0)
(-0.0394957 -0.0281963 0)
(-0.00998117 -0.0187459 0)
(0.00956089 -0.00303216 0)
(0.0113094 0.00911675 0)
(0.00389449 0.00918807 0)
(-0.00143647 0.00186734 0)
(-0.00718518 0.00721085 0)
(-0.0173319 0.0118878 0)
(-0.0308233 0.0176295 0)
(-0.0487999 0.0253657 0)
(-0.0719236 0.0342619 0)
(-0.0989403 0.0419557 0)
(-0.126516 0.0452578 0)
(-0.150477 0.0415522 0)
(-0.167534 0.0303079 0)
(-0.175944 0.0132028 0)
(-0.175303 -0.00723316 0)
(-0.165957 -0.02865 0)
(-0.14769 -0.0479963 0)
(-0.120805 -0.0610925 0)
(-0.0860646 -0.0627717 0)
(-0.0462933 -0.0483724 0)
(-0.0093267 -0.0189491 0)
(0.00729616 0.00953119 0)
(0.00367999 0.0155667 0)
(-0.00278199 0.00763373 0)
(-0.0122778 0.0182067 0)
(-0.027517 0.0265819 0)
(-0.0466366 0.0367516 0)
(-0.0707634 0.04955 0)
(-0.0998975 0.0625312 0)
(-0.131572 0.0713089 0)
(-0.16163 0.0715908 0)
(-0.186213 0.0615051 0)
(-0.203222 0.0423744 0)
(-0.212108 0.0169438 0)
(-0.213245 -0.0123689 0)
(-0.207156 -0.0431922 0)
(-0.193354 -0.0723272 0)
(-0.170574 -0.0952943 0)
(-0.13724 -0.105279 0)
(-0.0927658 -0.0935139 0)
(-0.0407941 -0.0539291 0)
(-2.24029e-05 -0.00129704 0)
(0.00426955 0.0197043 0)
(-0.00390548 0.0162876 0)
(-0.0165438 0.0334822 0)
(-0.035861 0.0460018 0)
(-0.0591478 0.0608243 0)
(-0.0873528 0.0782379 0)
(-0.119673 0.0937302 0)
(-0.152505 0.101194 0)
(-0.181222 0.0964202 0)
(-0.202815 0.0794017 0)
(-0.216811 0.0532482 0)
(-0.224099 0.0210487 0)
(-0.225969 -0.0151376 0)
(-0.223302 -0.053297 0)
(-0.215583 -0.0910132 0)
(-0.201138 -0.12489 0)
(-0.176292 -0.148071 0)
(-0.136958 -0.148637 0)
(-0.0807406 -0.110893 0)
(-0.0153024 -0.0314746 0)
(0.00592194 0.019815 0)
(-0.00450881 0.0270483 0)
(-0.0190923 0.051803 0)
(-0.0407866 0.0685625 0)
(-0.0660217 0.0876399 0)
(-0.0953438 0.10843 0)
(-0.127062 0.124392 0)
(-0.156771 0.128575 0)
(-0.180114 0.11791 0)
(-0.195535 0.0944637 0)
(-0.20421 0.0626719 0)
(-0.208199 0.0259225 0)
(-0.20939 -0.0137248 0)
(-0.208876 -0.0549202 0)
(-0.206708 -0.0970691 0)
(-0.20196 -0.139109 0)
(-0.189986 -0.176496 0)
(-0.163984 -0.197055 0)
(-0.116833 -0.177741 0)
(-0.0467035 -0.0923648 0)
(0.00450602 0.0109487 0)
(-0.00436872 0.0386595 0)
(-0.019262 0.0714072 0)
(-0.0411511 0.0920633 0)
(-0.0656602 0.114322 0)
(-0.0929137 0.136757 0)
(-0.120696 0.151324 0)
(-0.144516 0.151039 0)
(-0.160972 0.134332 0)
(-0.170012 0.105111 0)
(-0.173836 0.0688675 0)
(-0.174716 0.0293908 0)
(-0.174354 -0.0110924 0)
(-0.173927 -0.0517846 0)
(-0.174503 -0.0935439 0)
(-0.17651 -0.137689 0)
(-0.176411 -0.184019 0)
(-0.166371 -0.224361 0)
(-0.136666 -0.234285 0)
(-0.0816122 -0.170113 0)
(-0.00545372 -0.012267 0)
(-0.00342168 0.0495987 0)
(-0.0168551 0.0902994 0)
(-0.0367502 0.114231 0)
(-0.0581638 0.138312 0)
(-0.0810014 0.160779 0)
(-0.10309 0.172773 0)
(-0.120527 0.167733 0)
(-0.131161 0.145502 0)
(-0.136059 0.111435 0)
(-0.137665 0.071739 0)
(-0.137679 0.0302945 0)
(-0.136921 -0.0107898 0)
(-0.135996 -0.0506836 0)
(-0.136383 -0.089948 0)
(-0.140025 -0.130991 0)
(-0.146184 -0.178125 0)
(-0.148331 -0.230591 0)
(-0.135429 -0.268706 0)
(-0.0997234 -0.238489 0)
(-0.0240335 -0.0595862 0)
(-0.00181405 0.0583553 0)
(-0.0122413 0.106511 0)
(-0.0283911 0.13305 0)
(-0.0450949 0.15768 0)
(-0.0622369 0.179077 0)
(-0.07814 0.188234 0)
(-0.0899228 0.179154 0)
(-0.096618 0.152755 0)
(-0.0998008 0.11529 0)
(-0.101526 0.0732295 0)
(-0.102597 0.0301938 0)
(-0.102818 -0.0120497 0)
(-0.10214 -0.052338 0)
(-0.101674 -0.0899108 0)
(-0.104142 -0.126458 0)
(-0.111621 -0.16887 0)
(-0.120694 -0.224819 0)
(-0.1197 -0.284766 0)
(-0.0992561 -0.293418 0)
(-0.0333253 -0.13359 0)
(0.000108504 0.0637705 0)
(-0.00620262 0.118562 0)
(-0.0174334 0.147274 0)
(-0.028555 0.171608 0)
(-0.0394464 0.191476 0)
(-0.0491858 0.198321 0)
(-0.0560782 0.186645 0)
(-0.0600585 0.157922 0)
(-0.0626366 0.118742 0)
(-0.0651166 0.0755304 0)
(-0.0675127 0.0315357 0)
(-0.0691198 -0.0118729 0)
(-0.06967 -0.0533515 0)
(-0.0695822 -0.090784 0)
(-0.0711578 -0.123928 0)
(-0.077903 -0.159643 0)
(-0.0905062 -0.212323 0)
(-0.0976357 -0.285934 0)
(-0.0905707 -0.331734 0)
(-0.0298076 -0.208931 0)
(0.00191081 0.065092 0)
(0.000234486 0.125353 0)
(-0.00546636 0.155993 0)
(-0.0107357 0.179457 0)
(-0.0152637 0.197671 0)
(-0.0188698 0.203088 0)
(-0.0210528 0.190478 0)
(-0.0224401 0.161362 0)
(-0.0241553 0.122157 0)
(-0.0267162 0.0789453 0)
(-0.0297065 0.0346841 0)
(-0.0325316 -0.00942466 0)
(-0.0350208 -0.0519178 0)
(-0.0370401 -0.0899707 0)
(-0.0398694 -0.12141 0)
(-0.046551 -0.151279 0)
(-0.0613628 -0.197277 0)
(-0.0738496 -0.27776 0)
(-0.0789573 -0.35525 0)
(-0.0228196 -0.271064 0)
(0.00327806 0.0625574 0)
(0.00613203 0.126722 0)
(0.00598526 0.159166 0)
(0.00641571 0.181595 0)
(0.0081281 0.198204 0)
(0.0106497 0.203028 0)
(0.0134642 0.190872 0)
(0.0154106 0.162918 0)
(0.0156129 0.124986 0)
(0.0140612 0.0826853 0)
(0.0114149 0.0388972 0)
(0.00777883 -0.00510355 0)
(0.00318823 -0.0473934 0)
(-0.0020409 -0.085074 0)
(-0.00840282 -0.115617 0)
(-0.0171122 -0.14137 0)
(-0.0348094 -0.180039 0)
(-0.0511807 -0.262701 0)
(-0.0679499 -0.367576 0)
(-0.0152675 -0.323272 0)
(0.00386454 0.0570273 0)
(0.0104453 0.122864 0)
(0.015387 0.156571 0)
(0.0210003 0.177566 0)
(0.0284956 0.192273 0)
(0.0369923 0.196898 0)
(0.0451822 0.186426 0)
(0.0515085 0.161186 0)
(0.0549504 0.12591 0)
(0.0555003 0.0856245 0)
(0.0537813 0.0433273 0)
(0.049688 0.000524256 0)
(0.043464 -0.0403622 0)
(0.0347555 -0.0765323 0)
(0.0233193 -0.105622 0)
(0.0105965 -0.128125 0)
(-0.0110731 -0.160659 0)
(-0.0294102 -0.242232 0)
(-0.0578072 -0.370151 0)
(-0.00751296 -0.365625 0)
(0.00353035 0.049867 0)
(0.0124107 0.11487 0)
(0.0215911 0.149479 0)
(0.0316555 0.168989 0)
(0.0441468 0.181316 0)
(0.0581803 0.185299 0)
(0.0718667 0.176847 0)
(0.0832444 0.155284 0)
(0.0909112 0.12389 0)
(0.0944837 0.0869103 0)
(0.094295 0.0474912 0)
(0.0902946 0.00760866 0)
(0.0824323 -0.0302393 0)
(0.0704756 -0.0637288 0)
(0.0543432 -0.0906096 0)
(0.0362368 -0.110567 0)
(0.00945105 -0.137937 0)
(-0.00817453 -0.217634 0)
(-0.0486454 -0.367138 0)
(0.000794174 -0.402207 0)
(0.00228503 0.0428239 0)
(0.0113223 0.104352 0)
(0.0229839 0.137652 0)
(0.0364086 0.154709 0)
(0.0529388 0.164121 0)
(0.0717693 0.166841 0)
(0.0906889 0.160169 0)
(0.107307 0.142805 0)
(0.119717 0.116557 0)
(0.127 0.0846406 0)
(0.128961 0.0500165 0)
(0.125661 0.0149632 0)
(0.116604 -0.0182762 0)
(0.102135 -0.0475856 0)
(0.0817868 -0.071162 0)
(0.0589995 -0.0892268 0)
(0.0274134 -0.112622 0)
(0.0127429 -0.190706 0)
(-0.0400189 -0.361949 0)
(0.0106543 -0.435081 0)
(0.000225176 0.0373444 0)
(0.00747937 0.0940793 0)
(0.0202126 0.125379 0)
(0.0360015 0.139566 0)
(0.0554563 0.145386 0)
(0.0777336 0.145744 0)
(0.100679 0.139635 0)
(0.121695 0.125778 0)
(0.138458 0.104863 0)
(0.149556 0.0790135 0)
(0.154117 0.0506554 0)
(0.152252 0.0219583 0)
(0.142948 -0.00527985 0)
(0.127268 -0.0289827 0)
(0.104072 -0.0481909 0)
(0.0782893 -0.0642239 0)
(0.0435838 -0.0860723 0)
(0.0324802 -0.164665 0)
(-0.0308795 -0.357691 0)
(0.0243643 -0.463701 0)
(-0.00300409 0.0389355 0)
(-0.00246388 0.0856888 0)
(0.00816656 0.107289 0)
(0.0266476 0.11671 0)
(0.0495913 0.119563 0)
(0.0753485 0.118318 0)
(0.101748 0.112902 0)
(0.1264 0.102467 0)
(0.14685 0.0872128 0)
(0.161458 0.068334 0)
(0.168778 0.0476799 0)
(0.168819 0.026825 0)
(0.160379 0.00733739 0)
(0.145547 -0.00972404 0)
(0.121504 -0.023741 0)
(0.0960961 -0.0379174 0)
(0.0610614 -0.0607745 0)
(0.0521045 -0.141255 0)
(-0.0150436 -0.348864 0)
(0.0468648 -0.478061 0)
(-0.00650532 0.0301862 0)
(-0.00805881 0.0868393 0)
(-0.00138571 0.10249 0)
(0.0168199 0.10234 0)
(0.0413644 0.0988294 0)
(0.0688011 0.0943211 0)
(0.096897 0.0885282 0)
(0.123252 0.0803491 0)
(0.145805 0.0698736 0)
(0.16306 0.0573053 0)
(0.173013 0.0441345 0)
(0.176797 0.0309842 0)
(0.171398 0.0194232 0)
(0.162146 0.00901716 0)
(0.142044 0.000119338 0)
(0.12534 -0.0127954 0)
(0.0924745 -0.0394103 0)
(0.0841575 -0.124274 0)
(0.0255054 -0.319963 0)
(0.0879028 -0.45114 0)
(-0.100693 0.0908765 0)
(-0.0746948 0.0738148 0)
(-0.0551932 0.0637413 0)
(-0.0183565 0.0602577 0)
(0.0185632 0.0572868 0)
(0.0558868 0.0540861 0)
(0.0914448 0.0506256 0)
(0.125903 0.0461416 0)
(0.155084 0.0411497 0)
(0.182599 0.0351732 0)
(0.200888 0.0293935 0)
(0.218961 0.0235592 0)
(0.223938 0.0189725 0)
(0.232992 0.0147639 0)
(0.223343 0.0107246 0)
(0.225337 0.00176715 0)
(0.194745 -0.0226471 0)
(0.195943 -0.0874313 0)
(0.142189 -0.228351 0)
(0.168963 -0.34078 0)
(0.13332 0.106821 0)
(0.165731 0.0821905 0)
(0.223241 0.0604281 0)
(0.27981 0.0471355 0)
(0.326273 0.0391538 0)
(0.369682 0.0334677 0)
(0.405189 0.0295083 0)
(0.442528 0.0258811 0)
(0.470219 0.0233034 0)
(0.502465 0.0203266 0)
(0.521008 0.0184435 0)
(0.547813 0.0157205 0)
(0.555804 0.0146105 0)
(0.577683 0.0121134 0)
(0.572928 0.011691 0)
(0.587299 0.00760795 0)
(0.55706 0.00295707 0)
(0.544089 -0.0159612 0)
(0.4385 -0.0489766 0)
(0.339115 -0.100667 0)
)
;

boundaryField
{
    movingWall
    {
        type            fixedValue;
        value           uniform (1 0 0);
    }
    fixedWalls
    {
        type            noSlip;
    }
    frontAndBack
    {
        type            empty;
    }
}


// ************************************************************************* //
