/*--------------------------------*- C++ -*----------------------------------*\
| =========                 |                                                 |
| \\      /  F ield         | OpenFOAM: The Open Source CFD Toolbox           |
|  \\    /   O peration     | Version:  2506                                  |
|   \\  /    A nd           | Website:  www.openfoam.com                      |
|    \\/     M anipulation  |                                                 |
\*---------------------------------------------------------------------------*/
FoamFile
{
    version     2.0;
    format      ascii;
    arch        "LSB;label=32;scalar=64";
    class       volScalarField;
    location    "100";
    object      turbulenceProperties:L;
}
// * * * * * * * * * * * * * * * * * * * * * * * * * * * * * * * * * * * * * //

dimensions      [0 1 0 0 0 0 0];

internalField   nonuniform List<scalar> 
1340
(
0.0100782
0.01004
0.0100142
0.0109549
0.0109051
0.0108674
0.0108417
0.0108302
0.0118691
0.0118079
0.0117584
0.0117194
0.0116928
0.0116817
0.0116902
0.0128213
0.0127498
0.012689
0.0126373
0.0125965
0.0125699
0.0125613
0.0125728
0.0138113
0.0137301
0.0136587
0.0135947
0.0135398
0.0134983
0.0134736
0.0134681
0.0134831
0.0148414
0.0147506
0.0146691
0.0145932
0.0145246
0.0144688
0.0144287
0.0144065
0.0144043
0.0159172
0.0158157
0.0157237
0.0156352
0.015553
0.0154828
0.0154275
0.015389
0.0153697
0.0153718
0.0170466
0.0169325
0.0168283
0.0167264
0.0166297
0.0165446
0.0164735
0.016419
0.0163827
0.0163677
0.0163757
0.0182371
0.0181083
0.0179896
0.017873
0.0177603
0.0176593
0.0175718
0.0175003
0.0174465
0.0174135
0.017403
0.0194929
0.0193476
0.0192134
0.0190802
0.0189505
0.0188321
0.0187273
0.0186379
0.0185659
0.0185141
0.0184853
0.0184795
0.0208144
0.020653
0.0205023
0.020352
0.0202043
0.0200681
0.0199447
0.0198365
0.0197455
0.0196745
0.0196254
0.0195997
0.0222002
0.0220239
0.0218573
0.0216899
0.0215242
0.0213698
0.0212274
0.0210999
0.0209892
0.020898
0.0208283
0.0207823
0.0207611
0.0236516
0.0234608
0.0232793
0.0230949
0.0229115
0.0227387
0.0225773
0.0224302
0.0222996
0.0221881
0.0220978
0.0220302
0.0219881
0.0251728
0.0249672
0.0247708
0.0245695
0.0243684
0.0241771
0.0239967
0.0238298
0.0236792
0.0235471
0.023436
0.0233467
0.023283
0.0232449
0.0267715
0.0265494
0.026337
0.0261187
0.025899
0.0256889
0.025489
0.0253024
0.0251315
0.0249791
0.0248468
0.0247364
0.0246502
0.0245897
0.0284558
0.0282152
0.0279853
0.0277487
0.0275093
0.0272793
0.027059
0.0268518
0.0266605
0.0264871
0.0263337
0.0262018
0.0260931
0.0260101
0.0302325
0.029972
0.0297234
0.0294667
0.0292061
0.0289547
0.0287131
0.028484
0.0282714
0.0280765
0.0279015
0.0277475
0.0276164
0.0275104
0.0274298
0.0321073
0.0318259
0.0315574
0.031279
0.0309956
0.0307215
0.0304567
0.030205
0.0299697
0.0297525
0.0295552
0.0293785
0.0292244
0.0290945
0.02899
0.0340837
0.033782
0.0334926
0.0331908
0.0328828
0.032585
0.0322958
0.0320204
0.0317613
0.0315208
0.0313001
0.0311003
0.0309226
0.0307684
0.0306397
0.0361663
0.0358444
0.0355329
0.0352069
0.034874
0.0345509
0.0342365
0.0339363
0.0336526
0.0333875
0.0331429
0.0329185
0.0327164
0.0325373
0.0323836
0.0322553
0.0383621
0.0380191
0.0376842
0.0373329
0.0369742
0.036625
0.0362847
0.0359583
0.0356492
0.0353586
0.0350887
0.0348394
0.0346121
0.0344077
0.0342283
0.0340742
0.0406785
0.0403134
0.0399534
0.0395759
0.0391901
0.0388141
0.0384466
0.0380931
0.0377575
0.0374406
0.0371447
0.0368696
0.0366164
0.0363862
0.0361799
0.0359998
0.0434849
0.0431243
0.0427342
0.0423486
0.0419434
0.0415293
0.0411253
0.0407295
0.0403478
0.0399848
0.0396406
0.0393178
0.039016
0.0387359
0.038479
0.0382458
0.0380391
0.0378587
0.0460928
0.0457078
0.0452908
0.0448774
0.0444431
0.0439994
0.0435656
0.0431401
0.0427294
0.0423376
0.041965
0.0416145
0.0412852
0.0409779
0.0406936
0.0404329
0.0401978
0.0399892
0.0488459
0.0484353
0.0479905
0.0475483
0.0470834
0.046608
0.0461435
0.0456868
0.0452454
0.0448233
0.0444218
0.0440425
0.0436848
0.0433493
0.0430367
0.0427481
0.0424844
0.0422475
0.051753
0.0513154
0.0508417
0.0503695
0.0498723
0.0493644
0.0488672
0.048378
0.0479044
0.0474513
0.047019
0.0466099
0.0462228
0.0458584
0.0455172
0.0451997
0.0449065
0.0446416
0.0444045
0.0548234
0.0543579
0.0538539
0.0533504
0.0528194
0.0522769
0.0517456
0.0512221
0.0507148
0.0502295
0.0497654
0.0493251
0.048908
0.0485137
0.0481428
0.0477957
0.0474736
0.0471788
0.0469122
0.0580687
0.0575734
0.0570374
0.056501
0.0559345
0.0553558
0.0547885
0.0542287
0.0536871
0.0531673
0.0526697
0.0521973
0.0517486
0.0513238
0.0509225
0.0505453
0.0501937
0.0498691
0.0495728
0.0615003
0.0609731
0.0604035
0.0598328
0.0592285
0.0586115
0.0580065
0.0574093
0.0568302
0.0562745
0.0557422
0.0552365
0.0547553
0.0542984
0.0538657
0.0534581
0.0530759
0.0527217
0.0523959
0.0651297
0.0645691
0.0639642
0.0633569
0.0627129
0.0620555
0.0614105
0.0607733
0.0601552
0.0595624
0.0589938
0.0584527
0.0579374
0.0574475
0.0569832
0.056544
0.0561312
0.0557467
0.0553911
0.0689688
0.0683739
0.067732
0.0670857
0.0664002
0.0656997
0.0650127
0.0643331
0.0636742
0.0630416
0.0624346
0.0618567
0.0613062
0.0607819
0.0602845
0.059813
0.059369
0.0589534
0.05857
0.0582215
0.0730311
0.0724001
0.0717197
0.0710322
0.0703028
0.0695571
0.0688254
0.0681008
0.0673983
0.0667239
0.0660764
0.0654605
0.0648729
0.0643131
0.0637812
0.0632766
0.0628005
0.0623542
0.0619416
0.0615634
0.0773304
0.0766618
0.0759412
0.0752106
0.0744347
0.0736411
0.0728615
0.0720899
0.0713409
0.0706225
0.0699327
0.069276
0.0686498
0.0680527
0.0674851
0.0669466
0.0664375
0.0659605
0.0655171
0.0651107
0.0818815
0.081174
0.0804113
0.0796355
0.07881
0.0779661
0.0771359
0.0763134
0.0755159
0.0747501
0.0740147
0.0733154
0.0726486
0.0720128
0.0714084
0.0708344
0.0702921
0.0697823
0.0693098
0.0688753
0.0867003
0.0859531
0.085146
0.0843231
0.0834451
0.0825471
0.0816632
0.0807869
0.0799364
0.0791205
0.0783375
0.0775928
0.0768831
0.0762067
0.0755637
0.0749534
0.0743761
0.0738346
0.0733317
0.0728698
0.0918052
0.0910167
0.0901633
0.0892902
0.0883571
0.0874018
0.0864597
0.0855253
0.0846188
0.0837493
0.0829145
0.0821216
0.0813662
0.0806473
0.0799643
0.0793163
0.0787038
0.0781294
0.0775954
0.0771093
0.0766774
0.0972156
0.0963837
0.0954825
0.0945561
0.0935642
0.092547
0.0915431
0.0905463
0.0895786
0.0886511
0.0877617
0.0869166
0.0861136
0.0853489
0.0846239
0.0839367
0.0832883
0.0826809
0.0821175
0.0816052
0.0811496
0.102952
0.102075
0.101124
0.100141
0.0990865
0.0980032
0.096932
0.0958669
0.0948341
0.093844
0.0928946
0.0919945
0.0911392
0.0903266
0.0895571
0.088829
0.0881433
0.0875014
0.0869086
0.0863712
0.0858935
0.109035
0.108114
0.10711
0.106068
0.104946
0.103791
0.102647
0.101508
0.100403
0.0993449
0.0983314
0.0973704
0.0964596
0.095595
0.0947784
0.0940072
0.0932824
0.0926067
0.0919832
0.091421
0.0909242
0.115491
0.114523
0.113465
0.112359
0.111164
0.109932
0.108708
0.107489
0.106306
0.105173
0.104088
0.103063
0.102091
0.101172
0.100304
0.0994868
0.0987215
0.09801
0.0973566
0.0967704
0.0962559
0.122344
0.121329
0.120214
0.119041
0.117768
0.116451
0.115139
0.113832
0.112562
0.111347
0.110186
0.109089
0.108052
0.107071
0.106149
0.105283
0.104475
0.103726
0.103042
0.10243
0.101902
0.101478
0.129623
0.12856
0.127385
0.126141
0.124783
0.123373
0.121964
0.120558
0.119194
0.117889
0.116643
0.115468
0.114359
0.113313
0.112332
0.111413
0.110558
0.109769
0.109053
0.108417
0.107872
0.107439
0.137359
0.136248
0.135012
0.13369
0.132239
0.130726
0.12921
0.127695
0.126224
0.124819
0.123479
0.122218
0.12103
0.119913
0.118868
0.117892
0.116987
0.116156
0.115405
0.114742
0.114183
0.113742
0.145588
0.144429
0.143129
0.141723
0.140169
0.138541
0.136904
0.135266
0.133677
0.132159
0.130716
0.129359
0.128085
0.12689
0.125775
0.124737
0.123778
0.122901
0.122113
0.121423
0.120848
0.120402
0.154349
0.153142
0.151774
0.150277
0.148609
0.146852
0.145078
0.143302
0.141579
0.139935
0.138375
0.136911
0.135542
0.134261
0.133069
0.131964
0.130947
0.130021
0.129193
0.128474
0.127882
0.127432
0.163685
0.16243
0.160992
0.159394
0.1576
0.155696
0.153766
0.151833
0.149957
0.14817
0.146478
0.144896
0.14342
0.142044
0.140769
0.13959
0.13851
0.137532
0.136661
0.13591
0.135301
0.134846
0.173641
0.172343
0.170831
0.169122
0.167183
0.165112
0.163005
0.160891
0.158841
0.156891
0.15505
0.153334
0.151739
0.150257
0.14889
0.147631
0.146483
0.145446
0.144531
0.143746
0.143118
0.142658
0.184274
0.182934
0.181344
0.17951
0.177406
0.175145
0.172833
0.170513
0.168263
0.166128
0.164116
0.162248
0.160517
0.158918
0.157447
0.1561
0.154876
0.153778
0.152814
0.151994
0.151341
0.150882
0.150714
0.195642
0.194263
0.192591
0.190616
0.188322
0.185842
0.183295
0.180737
0.178257
0.175908
0.173702
0.171659
0.169776
0.168042
0.166456
0.16501
0.163703
0.162537
0.16152
0.160662
0.159988
0.159521
0.159367
0.207812
0.2064
0.204641
0.202502
0.199992
0.197258
0.194436
0.191604
0.18886
0.186266
0.183836
0.181594
0.179535
0.17765
0.175933
0.174375
0.172975
0.171734
0.170659
0.169761
0.169063
0.168592
0.168451
0.220862
0.219426
0.217571
0.215241
0.21248
0.209451
0.206309
0.203161
0.20011
0.197236
0.194549
0.192076
0.189817
0.187761
0.185896
0.184211
0.182708
0.181387
0.180252
0.179314
0.178593
0.178118
0.177993
0.234884
0.233429
0.231467
0.228914
0.225861
0.222484
0.21897
0.215457
0.212053
0.208858
0.205873
0.203132
0.200647
0.1984
0.19637
0.194548
0.192935
0.19153
0.190335
0.189356
0.188615
0.18814
0.188035
0.249967
0.248502
0.246422
0.243605
0.240214
0.236424
0.23248
0.228547
0.224731
0.221175
0.217839
0.214785
0.212053
0.209604
0.207402
0.205437
0.203711
0.202219
0.200958
0.199935
0.199172
0.198694
0.19861
0.26623
0.264763
0.262546
0.259414
0.255629
0.251345
0.246909
0.242487
0.238197
0.234239
0.230467
0.227053
0.224079
0.221438
0.219058
0.216942
0.215093
0.2135
0.212157
0.211075
0.210275
0.209787
0.209724
0.283816
0.282356
0.279978
0.276466
0.272217
0.267333
0.262359
0.257347
0.252519
0.248131
0.243804
0.239978
0.236794
0.233974
0.231396
0.229096
0.227095
0.22537
0.223916
0.222747
0.221891
0.221387
0.221344
0.302867
0.301423
0.298855
0.294892
0.290086
0.284482
0.278942
0.273169
0.267813
0.26298
0.257902
0.253639
0.250286
0.247254
0.244404
0.241863
0.239665
0.237772
0.236172
0.234891
0.23397
0.233435
0.233415
0.233837
0.323489
0.32209
0.319291
0.314782
0.309313
0.302865
0.296731
0.289929
0.28436
0.278827
0.272534
0.267978
0.264656
0.261308
0.258039
0.255197
0.25278
0.250694
0.248934
0.247539
0.246543
0.245977
0.24596
0.246414
0.34538
0.344073
0.341002
0.335911
0.329732
0.322427
0.315718
0.30769
0.302693
0.295685
0.287538
0.282999
0.280098
0.27622
0.272243
0.268992
0.26632
0.264013
0.262075
0.260558
0.259489
0.25888
0.258843
0.25928
0.367046
0.365851
0.36253
0.357034
0.350324
0.342585
0.335635
0.326911
0.323384
0.314425
0.30439
0.299786
0.296901
0.291841
0.286629
0.28261
0.279416
0.276665
0.274357
0.272555
0.271263
0.270489
0.270348
0.270716
0.387377
0.386375
0.383081
0.377585
0.370798
0.363355
0.356598
0.348397
0.3462
0.336787
0.324912
0.319363
0.315239
0.308469
0.301704
0.296531
0.292471
0.28902
0.286137
0.283885
0.282251
0.281239
0.280916
0.281149
0.408546
0.407803
0.4047
0.399373
0.392734
0.385862
0.379412
0.372327
0.371106
0.362577
0.348981
0.341923
0.335535
0.326872
0.318472
0.311907
0.306756
0.302465
0.298916
0.296161
0.294172
0.292936
0.29243
0.292518
0.432967
0.432447
0.429486
0.424268
0.417765
0.411493
0.405277
0.399616
0.3992
0.391811
0.37617
0.367409
0.357894
0.346964
0.336787
0.328681
0.322281
0.317035
0.31275
0.309427
0.307053
0.305581
0.304923
0.304954
0.460683
0.460358
0.457517
0.452401
0.446142
0.440565
0.434692
0.430933
0.431307
0.425523
0.40732
0.396746
0.383021
0.369173
0.356954
0.347123
0.339291
0.33295
0.327829
0.323868
0.321075
0.319326
0.318472
0.318337
0.492311
0.49209
0.489354
0.484393
0.478593
0.473849
0.46866
0.467407
0.468667
0.46527
0.443704
0.430959
0.411644
0.394015
0.379292
0.367436
0.357921
0.350286
0.344178
0.339505
0.336255
0.33429
0.333496
0.33361
0.528205
0.527965
0.525426
0.520919
0.516103
0.512521
0.508784
0.510683
0.513162
0.513377
0.487394
0.471592
0.44479
0.422149
0.404202
0.389846
0.378291
0.369103
0.361848
0.356291
0.352282
0.349627
0.348073
0.347285
0.568536
0.568075
0.56596
0.562651
0.559881
0.55846
0.557899
0.563572
0.568348
0.573622
0.541403
0.520686
0.483692
0.454265
0.432043
0.414489
0.40037
0.389313
0.380896
0.374772
0.370763
0.368767
0.368604
0.369763
0.371385
0.614002
0.612951
0.611427
0.610322
0.611271
0.614193
0.620281
0.63077
0.641886
0.652436
0.609849
0.581023
0.529709
0.4909
0.463099
0.441551
0.424052
0.410107
0.399205
0.390769
0.384331
0.379358
0.375286
0.371896
0.369513
0.664976
0.662772
0.662711
0.665992
0.673572
0.684759
0.702425
0.71911
0.747039
0.753268
0.69661
0.65634
0.584376
0.532278
0.497016
0.470805
0.450263
0.434564
0.422971
0.414801
0.409831
0.408034
0.409051
0.41119
0.412016
0.715724
0.712531
0.718093
0.733262
0.756761
0.786529
0.823094
0.844905
0.90038
0.853155
0.79842
0.748762
0.650248
0.580554
0.533405
0.497043
0.467501
0.443849
0.424875
0.409037
0.394933
0.381464
0.368471
0.357499
0.350228
0.751213
0.748189
0.764949
0.804221
0.866727
0.954254
1.05203
1.0848
1.14061
0.934657
0.897554
0.83665
0.717976
0.634577
0.5766
0.529099
0.488831
0.455544
0.428292
0.405979
0.387926
0.373516
0.361952
0.352758
0.345202
0.766999
0.764487
0.789904
0.850516
0.961963
1.17564
1.60378
1.77299
1.41179
1.05241
1.12585
0.894602
0.698463
0.581192
0.503541
0.447446
0.40466
0.371068
0.344384
0.32311
0.306431
0.293931
0.285531
0.280832
0.277727
)
;

boundaryField
{
    inlet
    {
        type            calculated;
        value           nonuniform List<scalar> 
25
(
0.831337
0.829046
0.857227
0.924747
1.05286
1.31546
1.94548
1.91311
1.35079
1.30394
0.830016
0.601421
0.456725
0.369317
0.311431
0.270165
0.239133
0.214982
0.19575
0.180213
0.167587
0.157402
0.149335
0.143168
0.138495
)
;
    }
    outlet
    {
        type            calculated;
        value           nonuniform List<scalar> 0();
    }
    walls
    {
        type            calculated;
        value           nonuniform List<scalar> 0();
    }
    frontAndBack
    {
        type            empty;
    }
    procBoundary4to0
    {
        type            processor;
        value           nonuniform List<scalar> 
72
(
0.0101238
0.0110105
0.0119327
0.0128908
0.0138858
0.0149227
0.0160093
0.0171533
0.0183598
0.0196298
0.0209622
0.0223568
0.0238174
0.025351
0.0269659
0.0286695
0.0304669
0.0323613
0.0343557
0.0364577
0.0386745
0.0410139
0.0410139
0.0438336
0.0464641
0.0492405
0.0521723
0.0552699
0.0585437
0.0620048
0.0656651
0.0695361
0.0736305
0.0779622
0.0825464
0.0873994
0.0925393
0.0979851
0.103757
0.109877
0.116367
0.123255
0.130567
0.138335
0.146595
0.155383
0.16474
0.174713
0.185354
0.196722
0.208882
0.221913
0.235899
0.250926
0.267112
0.284596
0.303503
0.323945
0.345653
0.367232
0.387465
0.408454
0.432696
0.460235
0.491755
0.527743
0.568547
0.615267
0.669249
0.726435
0.770934
0.792514
)
;
    }
    procBoundary4to5
    {
        type            processor;
        value           nonuniform List<scalar> 
95
(
0.00924038
0.00921442
0.00920188
0.0100014
0.0100014
0.0100051
0.0108353
0.0108353
0.0108615
0.0117191
0.0117191
0.0126065
0.0126065
0.0135228
0.0144248
0.0144248
0.0154006
0.0154006
0.0164136
0.0174191
0.0174191
0.0185059
0.0196016
0.0196016
0.020773
0.0219741
0.0219741
0.0232411
0.0245599
0.0259557
0.0259557
0.0273839
0.0289166
0.03054
0.03054
0.0321632
0.0339524
0.0358501
0.0358501
0.0377147
0.0398126
0.0420422
0.0420422
0.0442078
0.0466827
0.0493137
0.052107
0.0550737
0.0550737
0.0579187
0.0612286
0.0647493
0.0684872
0.0724601
0.0724601
0.0763213
0.0807727
0.0854983
0.0905147
0.0958374
0.0958374
0.101224
0.107189
0.113498
0.120171
0.127215
0.134642
0.14247
0.14247
0.150825
0.159512
0.168624
0.178204
0.188281
0.198898
0.210052
0.221724
0.221724
0.234366
0.246985
0.259855
0.271274
0.281648
0.292909
0.305346
0.318551
0.334187
0.346938
0.346938
0.372913
0.368206
0.410935
0.346101
0.338071
0.277085
)
;
    }
}


// ************************************************************************* //
