/*--------------------------------*- C++ -*----------------------------------*\
| =========                 |                                                 |
| \\      /  F ield         | OpenFOAM: The Open Source CFD Toolbox           |
|  \\    /   O peration     | Version:  2506                                  |
|   \\  /    A nd           | Website:  www.openfoam.com                      |
|    \\/     M anipulation  |                                                 |
\*---------------------------------------------------------------------------*/
FoamFile
{
    version     2.0;
    format      ascii;
    arch        "LSB;label=32;scalar=64";
    class       volScalarField;
    location    "100";
    object      turbulenceProperties:k;
}
// * * * * * * * * * * * * * * * * * * * * * * * * * * * * * * * * * * * * * //

dimensions      [0 2 -2 0 0 0 0];

internalField   nonuniform List<scalar> 
1340
(
0.000459232
0.000462741
0.000465136
0.000388627
0.000392199
0.000394933
0.000396812
0.000397662
0.000331037
0.000334486
0.000337318
0.000339576
0.000341134
0.00034179
0.000341298
0.000283677
0.000286875
0.000289636
0.000292018
0.000293919
0.000295176
0.000295585
0.000295052
0.00024447
0.000247368
0.000249964
0.000252327
0.000254382
0.000255955
0.000256899
0.000257114
0.000256549
0.000211722
0.000214334
0.00021672
0.000218982
0.000221057
0.000222767
0.00022401
0.000224704
0.000224776
0.000184085
0.00018645
0.000188635
0.000190774
0.000192795
0.000194546
0.000195945
0.000196928
0.000197424
0.000197371
0.00016051
0.000162676
0.000164694
0.000166704
0.000168645
0.000170384
0.000171857
0.000172998
0.000173765
0.000174085
0.000173914
0.000140239
0.00014224
0.000144121
0.000146005
0.000147863
0.000149557
0.000151049
0.000152285
0.000153224
0.000153805
0.00015399
0.000122745
0.000124597
0.000126344
0.000128115
0.000129873
0.000131511
0.000132986
0.000134265
0.000135307
0.000136065
0.000136489
0.000136575
0.000107648
0.00010934
0.000110953
0.0001126
0.000114252
0.000115809
0.000117246
0.000118529
0.000119624
0.000120489
0.000121093
0.00012141
9.4624e-05
9.61464e-05
9.76193e-05
9.91334e-05
0.000100666
0.000102128
0.000103503
0.000104758
0.000105866
0.000106793
0.000107509
0.000107985
0.000108206
8.33667e-05
8.47289e-05
8.60558e-05
8.74365e-05
8.88426e-05
9.01985e-05
9.14938e-05
9.26989e-05
9.37885e-05
9.47339e-05
9.55099e-05
9.60972e-05
9.64665e-05
7.35974e-05
7.48138e-05
7.60048e-05
7.72558e-05
7.85362e-05
7.97845e-05
8.09889e-05
8.21282e-05
8.31764e-05
8.41129e-05
8.49133e-05
8.55644e-05
8.60337e-05
8.63161e-05
6.50724e-05
6.61647e-05
6.72355e-05
6.83639e-05
6.95284e-05
7.06705e-05
7.17838e-05
7.28467e-05
7.38408e-05
7.47451e-05
7.55435e-05
7.62194e-05
7.67543e-05
7.71328e-05
5.75984e-05
5.85841e-05
5.95503e-05
6.05697e-05
6.16281e-05
6.26714e-05
6.36958e-05
6.46828e-05
6.56143e-05
6.64762e-05
6.72531e-05
6.79321e-05
6.84997e-05
6.89378e-05
5.10277e-05
5.19185e-05
5.27902e-05
5.37137e-05
5.4676e-05
5.56294e-05
5.65692e-05
5.74826e-05
5.83503e-05
5.91633e-05
5.99077e-05
6.05746e-05
6.11513e-05
6.16234e-05
6.19864e-05
4.52424e-05
4.6046e-05
4.68325e-05
4.767e-05
4.85455e-05
4.94154e-05
5.02781e-05
5.11195e-05
5.19249e-05
5.26859e-05
5.33917e-05
5.40359e-05
5.4607e-05
5.50959e-05
5.54938e-05
4.01473e-05
4.08678e-05
4.15769e-05
4.23366e-05
4.31331e-05
4.39251e-05
4.47152e-05
4.54877e-05
4.62327e-05
4.69409e-05
4.76049e-05
4.82184e-05
4.87744e-05
4.92643e-05
4.96792e-05
3.56567e-05
3.63001e-05
3.69392e-05
3.76265e-05
3.83484e-05
3.90689e-05
3.97896e-05
4.04968e-05
4.11822e-05
4.18387e-05
4.24586e-05
4.30392e-05
4.35727e-05
4.40536e-05
4.44727e-05
4.48274e-05
3.16917e-05
3.22661e-05
3.28422e-05
3.34631e-05
3.41155e-05
3.47692e-05
3.54244e-05
3.60705e-05
3.66987e-05
3.73044e-05
3.78804e-05
3.84245e-05
3.89307e-05
3.93946e-05
3.98086e-05
4.01693e-05
2.81853e-05
2.8698e-05
2.92174e-05
2.97776e-05
3.03667e-05
3.09579e-05
3.15526e-05
3.21409e-05
3.27148e-05
3.3271e-05
3.38031e-05
3.43094e-05
3.47856e-05
3.5227e-05
3.56299e-05
3.59873e-05
2.46647e-05
2.50788e-05
2.55388e-05
2.6006e-05
2.65109e-05
2.70422e-05
2.75762e-05
2.81147e-05
2.86492e-05
2.91718e-05
2.96806e-05
3.01699e-05
3.06384e-05
3.1083e-05
3.14995e-05
3.18848e-05
3.22323e-05
3.25402e-05
2.19526e-05
2.23239e-05
2.2737e-05
2.31578e-05
2.36126e-05
2.40913e-05
2.45734e-05
2.50605e-05
2.55446e-05
2.60196e-05
2.64837e-05
2.69317e-05
2.7363e-05
2.7775e-05
2.81644e-05
2.85288e-05
2.88635e-05
2.91654e-05
1.95478e-05
1.98806e-05
2.02508e-05
2.06293e-05
2.10387e-05
2.147e-05
2.19045e-05
2.23446e-05
2.27827e-05
2.32138e-05
2.36354e-05
2.40442e-05
2.44396e-05
2.48194e-05
2.51812e-05
2.55224e-05
2.58401e-05
2.61308e-05
1.74134e-05
1.77117e-05
1.80432e-05
1.83831e-05
1.87515e-05
1.91394e-05
1.95308e-05
1.99278e-05
2.03238e-05
2.07138e-05
2.10964e-05
2.14684e-05
2.18295e-05
2.21778e-05
2.25115e-05
2.28289e-05
2.3128e-05
2.34033e-05
2.36538e-05
1.55176e-05
1.57845e-05
1.60813e-05
1.63863e-05
1.67174e-05
1.70662e-05
1.74185e-05
1.77764e-05
1.81338e-05
1.84859e-05
1.88323e-05
1.917e-05
1.94983e-05
1.98166e-05
2.01231e-05
2.04164e-05
2.06944e-05
2.09538e-05
2.11926e-05
1.38317e-05
1.40707e-05
1.43364e-05
1.46099e-05
1.49073e-05
1.52207e-05
1.55375e-05
1.58599e-05
1.61815e-05
1.64995e-05
1.68127e-05
1.71184e-05
1.74165e-05
1.77061e-05
1.79862e-05
1.82556e-05
1.85123e-05
1.87541e-05
1.89789e-05
1.23312e-05
1.25454e-05
1.27831e-05
1.30281e-05
1.32953e-05
1.35767e-05
1.38614e-05
1.41513e-05
1.44412e-05
1.47278e-05
1.50104e-05
1.52866e-05
1.55564e-05
1.58193e-05
1.60744e-05
1.63205e-05
1.65564e-05
1.67796e-05
1.69889e-05
1.09952e-05
1.1187e-05
1.13995e-05
1.16192e-05
1.1859e-05
1.21116e-05
1.23674e-05
1.26281e-05
1.28889e-05
1.31468e-05
1.34015e-05
1.36507e-05
1.38946e-05
1.41326e-05
1.43638e-05
1.45878e-05
1.48031e-05
1.5008e-05
1.52014e-05
9.80517e-06
9.97657e-06
1.01666e-05
1.03634e-05
1.05785e-05
1.08053e-05
1.10349e-05
1.12693e-05
1.15037e-05
1.17358e-05
1.19651e-05
1.21897e-05
1.24096e-05
1.26246e-05
1.28338e-05
1.30369e-05
1.32326e-05
1.34198e-05
1.35961e-05
1.37593e-05
8.74471e-06
8.8978e-06
9.06745e-06
9.24383e-06
9.43667e-06
9.6401e-06
9.84617e-06
1.00569e-05
1.02676e-05
1.04762e-05
1.06825e-05
1.08845e-05
1.10826e-05
1.12764e-05
1.14652e-05
1.16488e-05
1.18261e-05
1.1996e-05
1.21563e-05
1.23061e-05
7.79937e-06
7.93603e-06
8.08737e-06
8.24527e-06
8.41809e-06
8.60051e-06
8.78556e-06
8.97465e-06
9.1641e-06
9.35151e-06
9.53691e-06
9.71858e-06
9.8967e-06
1.00711e-05
1.02413e-05
1.04067e-05
1.05668e-05
1.07202e-05
1.08658e-05
1.10018e-05
6.95648e-06
7.07828e-06
7.2132e-06
7.35445e-06
7.50934e-06
7.6728e-06
7.83887e-06
8.00878e-06
8.17883e-06
8.34729e-06
8.514e-06
8.6772e-06
8.83722e-06
8.99396e-06
9.14687e-06
9.2957e-06
9.43972e-06
9.57812e-06
9.70916e-06
9.83203e-06
6.20469e-06
6.31304e-06
6.43331e-06
6.55951e-06
6.69828e-06
6.84482e-06
6.99382e-06
7.14639e-06
7.29928e-06
7.45062e-06
7.60032e-06
7.74692e-06
7.8906e-06
8.03131e-06
8.16857e-06
8.30214e-06
8.43152e-06
8.55566e-06
8.67341e-06
8.78371e-06
5.53385e-06
5.63016e-06
5.73725e-06
5.85001e-06
5.97425e-06
6.10558e-06
6.23937e-06
6.37647e-06
6.51383e-06
6.6498e-06
6.78439e-06
6.91605e-06
7.04507e-06
7.17123e-06
7.29427e-06
7.41395e-06
7.52979e-06
7.64092e-06
7.74645e-06
7.84444e-06
7.93305e-06
4.93504e-06
5.0206e-06
5.11584e-06
5.21659e-06
5.32779e-06
5.44557e-06
5.56567e-06
5.6889e-06
5.81249e-06
5.93477e-06
6.05568e-06
6.17402e-06
6.28972e-06
6.40293e-06
6.51313e-06
6.62021e-06
6.72369e-06
6.82285e-06
6.9168e-06
7.0039e-06
7.08278e-06
4.40043e-06
4.47632e-06
4.56097e-06
4.65093e-06
4.75049e-06
4.85611e-06
4.96404e-06
5.07497e-06
5.18613e-06
5.29614e-06
5.40496e-06
5.51126e-06
5.6152e-06
5.71669e-06
5.81536e-06
5.91109e-06
6.00342e-06
6.09182e-06
6.17522e-06
6.25231e-06
6.32204e-06
3.92307e-06
3.99025e-06
4.06541e-06
4.14571e-06
4.23486e-06
4.32965e-06
4.42672e-06
4.52658e-06
4.62675e-06
4.72588e-06
4.82381e-06
4.9195e-06
5.01286e-06
5.10395e-06
5.19229e-06
5.27784e-06
5.36017e-06
5.43868e-06
5.51268e-06
5.58069e-06
5.64184e-06
3.49674e-06
3.55612e-06
3.62279e-06
3.69444e-06
3.77431e-06
3.85941e-06
3.94683e-06
4.03686e-06
4.1272e-06
4.21665e-06
4.30497e-06
4.39109e-06
4.47509e-06
4.55681e-06
4.63598e-06
4.71246e-06
4.78582e-06
4.85556e-06
4.92096e-06
4.98076e-06
5.03416e-06
3.11596e-06
3.16836e-06
3.22742e-06
3.29135e-06
3.3629e-06
3.43943e-06
3.51823e-06
3.59954e-06
3.68121e-06
3.76198e-06
3.84168e-06
3.91936e-06
3.99497e-06
4.06847e-06
4.13947e-06
4.20784e-06
4.27324e-06
4.33515e-06
4.39293e-06
4.44556e-06
4.49175e-06
4.52938e-06
2.77585e-06
2.82197e-06
2.87425e-06
2.93127e-06
2.99541e-06
3.06429e-06
3.13549e-06
3.20906e-06
3.28296e-06
3.35605e-06
3.42815e-06
3.49828e-06
3.56649e-06
3.63261e-06
3.69635e-06
3.75758e-06
3.81594e-06
3.87096e-06
3.92199e-06
3.96817e-06
4.00833e-06
4.04072e-06
2.472e-06
2.51247e-06
2.5587e-06
2.60957e-06
2.66715e-06
2.72927e-06
2.7937e-06
2.86039e-06
2.92745e-06
2.99375e-06
3.05906e-06
3.12255e-06
3.18413e-06
3.24373e-06
3.30103e-06
3.35593e-06
3.40808e-06
3.457e-06
3.50215e-06
3.54274e-06
3.57751e-06
3.60532e-06
2.20043e-06
2.2359e-06
2.27672e-06
2.32213e-06
2.3739e-06
2.43002e-06
2.48851e-06
2.54913e-06
2.61011e-06
2.67041e-06
2.72973e-06
2.78729e-06
2.84304e-06
2.89685e-06
2.94845e-06
2.99772e-06
3.04436e-06
3.08794e-06
3.12793e-06
3.16362e-06
3.19377e-06
3.2175e-06
1.95771e-06
1.98872e-06
2.02473e-06
2.06529e-06
2.1119e-06
2.16275e-06
2.21598e-06
2.27125e-06
2.3269e-06
2.38187e-06
2.4359e-06
2.48826e-06
2.53881e-06
2.5875e-06
2.63404e-06
2.67835e-06
2.72012e-06
2.759e-06
2.79449e-06
2.82587e-06
2.85209e-06
2.87228e-06
1.74077e-06
1.76777e-06
1.7995e-06
1.83577e-06
1.87782e-06
1.92404e-06
1.97264e-06
2.0232e-06
2.07414e-06
2.12447e-06
2.17385e-06
2.22158e-06
2.26755e-06
2.31169e-06
2.35378e-06
2.39369e-06
2.43117e-06
2.4659e-06
2.49741e-06
2.52511e-06
2.54791e-06
2.56513e-06
1.54686e-06
1.57025e-06
1.59818e-06
1.63065e-06
1.66872e-06
1.71084e-06
1.75537e-06
1.80179e-06
1.84861e-06
1.89484e-06
1.94012e-06
1.98379e-06
2.02573e-06
2.06588e-06
2.10401e-06
2.14004e-06
2.17374e-06
2.20482e-06
2.23285e-06
2.2573e-06
2.27718e-06
2.29188e-06
1.37349e-06
1.3937e-06
1.41825e-06
1.44738e-06
1.48193e-06
1.52044e-06
1.56139e-06
1.60418e-06
1.64736e-06
1.69e-06
1.73168e-06
1.7718e-06
1.81022e-06
1.84684e-06
1.8815e-06
1.91412e-06
1.94451e-06
1.97237e-06
1.99736e-06
2.01896e-06
2.03643e-06
2.04884e-06
2.05341e-06
1.21852e-06
1.23588e-06
1.25743e-06
1.28364e-06
1.3151e-06
1.35043e-06
1.38824e-06
1.42782e-06
1.46782e-06
1.50728e-06
1.54582e-06
1.58283e-06
1.61816e-06
1.65172e-06
1.68334e-06
1.71298e-06
1.74045e-06
1.76551e-06
1.78783e-06
1.80697e-06
1.82225e-06
1.83292e-06
1.83647e-06
1.07997e-06
1.0948e-06
1.11371e-06
1.13736e-06
1.1661e-06
1.19865e-06
1.2337e-06
1.27044e-06
1.30764e-06
1.34431e-06
1.38008e-06
1.41438e-06
1.44701e-06
1.47788e-06
1.50687e-06
1.53393e-06
1.55887e-06
1.58147e-06
1.60146e-06
1.61845e-06
1.63185e-06
1.64099e-06
1.64375e-06
9.56113e-07
9.68672e-07
9.85269e-07
1.00671e-06
1.03305e-06
1.06315e-06
1.09578e-06
1.13001e-06
1.16473e-06
1.19893e-06
1.23227e-06
1.26422e-06
1.29448e-06
1.32299e-06
1.34968e-06
1.37448e-06
1.3972e-06
1.41763e-06
1.43554e-06
1.4506e-06
1.46234e-06
1.47015e-06
1.47222e-06
8.45366e-07
8.55941e-07
8.70513e-07
8.90039e-07
9.1427e-07
9.42237e-07
9.72725e-07
1.0047e-06
1.03722e-06
1.0692e-06
1.10043e-06
1.13033e-06
1.15851e-06
1.18491e-06
1.20953e-06
1.23229e-06
1.25298e-06
1.27144e-06
1.28746e-06
1.30081e-06
1.31105e-06
1.31769e-06
1.31917e-06
7.4642e-07
7.55252e-07
7.68058e-07
7.85923e-07
8.08276e-07
8.34394e-07
8.62954e-07
8.92909e-07
9.23491e-07
9.53428e-07
9.82856e-07
1.011e-06
1.03722e-06
1.06161e-06
1.08427e-06
1.10511e-06
1.12392e-06
1.14057e-06
1.15494e-06
1.16679e-06
1.17575e-06
1.18142e-06
1.18242e-06
6.58009e-07
6.65326e-07
6.76612e-07
6.93048e-07
7.1373e-07
7.38268e-07
7.65032e-07
7.9319e-07
8.22022e-07
8.50042e-07
8.78089e-07
9.047e-07
9.28874e-07
9.51165e-07
9.71943e-07
9.91003e-07
1.00811e-06
1.02321e-06
1.03621e-06
1.04686e-06
1.05485e-06
1.05976e-06
1.06041e-06
5.78991e-07
5.84996e-07
5.94978e-07
6.10192e-07
6.2939e-07
6.52597e-07
6.77577e-07
7.04231e-07
7.31415e-07
7.57515e-07
7.84644e-07
8.09863e-07
8.31793e-07
8.51962e-07
8.71053e-07
8.88634e-07
9.04364e-07
9.18259e-07
9.30225e-07
9.40019e-07
9.47289e-07
9.51614e-07
9.5198e-07
5.08436e-07
5.13321e-07
5.22184e-07
5.36315e-07
5.54237e-07
5.76288e-07
5.99405e-07
6.2501e-07
6.50258e-07
6.74381e-07
7.01199e-07
7.24969e-07
7.44523e-07
7.62893e-07
7.80794e-07
7.97287e-07
8.11975e-07
8.2496e-07
8.36175e-07
8.45321e-07
8.51993e-07
8.5591e-07
8.56055e-07
8.52975e-07
4.45676e-07
4.49559e-07
4.57477e-07
4.70676e-07
4.87471e-07
5.08448e-07
5.29687e-07
5.54835e-07
5.7678e-07
5.99898e-07
6.27923e-07
6.49453e-07
6.65864e-07
6.83031e-07
7.00449e-07
7.16139e-07
7.29903e-07
7.42098e-07
7.52629e-07
7.6114e-07
7.67302e-07
7.70839e-07
7.70947e-07
7.68117e-07
3.90967e-07
3.93946e-07
4.01073e-07
4.13324e-07
4.28962e-07
4.4862e-07
4.67889e-07
4.92624e-07
5.09024e-07
5.33441e-07
5.64098e-07
5.82337e-07
5.94462e-07
6.1127e-07
6.29259e-07
6.44561e-07
6.5756e-07
6.69106e-07
6.79039e-07
6.8697e-07
6.92643e-07
6.95909e-07
6.96111e-07
6.93766e-07
3.4617e-07
3.48436e-07
3.54851e-07
3.65862e-07
3.80012e-07
3.97375e-07
4.14004e-07
4.36395e-07
4.45965e-07
4.71741e-07
5.03361e-07
5.18937e-07
5.29073e-07
5.4758e-07
5.67674e-07
5.83936e-07
5.97363e-07
6.09301e-07
6.19598e-07
6.2782e-07
6.33814e-07
6.37449e-07
6.38116e-07
6.36384e-07
3.10785e-07
3.124e-07
3.17797e-07
3.27116e-07
3.39202e-07
3.53241e-07
3.66755e-07
3.84225e-07
3.89117e-07
4.1117e-07
4.41775e-07
4.5726e-07
4.69303e-07
4.9013e-07
5.12356e-07
5.3039e-07
5.45219e-07
5.58315e-07
5.69622e-07
5.78697e-07
5.85421e-07
5.8964e-07
5.91e-07
5.90024e-07
2.7941e-07
2.80429e-07
2.84747e-07
2.92395e-07
3.02365e-07
3.13232e-07
3.23972e-07
3.36418e-07
3.38635e-07
3.54753e-07
3.82934e-07
3.98906e-07
4.14239e-07
4.36487e-07
4.59819e-07
4.79378e-07
4.95613e-07
5.09778e-07
5.21955e-07
5.31712e-07
5.38927e-07
5.43488e-07
5.45369e-07
5.45045e-07
2.48776e-07
2.49375e-07
2.52827e-07
2.59085e-07
2.67214e-07
2.75422e-07
2.83936e-07
2.92036e-07
2.92645e-07
3.03785e-07
3.29573e-07
3.45478e-07
3.64093e-07
3.87393e-07
4.11161e-07
4.31691e-07
4.49009e-07
4.63991e-07
4.76794e-07
4.8709e-07
4.94653e-07
4.9943e-07
5.0159e-07
5.0149e-07
2.19739e-07
2.20049e-07
2.22792e-07
2.2786e-07
2.34298e-07
2.40268e-07
2.46804e-07
2.51127e-07
2.50692e-07
2.57551e-07
2.81087e-07
2.9627e-07
3.17885e-07
3.4218e-07
3.6601e-07
3.87035e-07
4.05111e-07
4.2069e-07
4.33937e-07
4.44616e-07
4.52385e-07
4.57357e-07
4.59814e-07
4.60206e-07
1.92408e-07
1.92581e-07
1.94742e-07
1.98751e-07
2.03598e-07
2.07695e-07
2.1232e-07
2.13459e-07
2.12311e-07
2.1542e-07
2.36872e-07
2.51091e-07
2.75208e-07
3.00387e-07
3.24162e-07
3.45421e-07
3.64031e-07
3.80074e-07
3.93684e-07
4.04599e-07
4.12456e-07
4.17321e-07
4.19312e-07
4.19025e-07
1.67142e-07
1.67294e-07
1.68916e-07
1.71851e-07
1.75074e-07
1.77529e-07
1.80147e-07
1.78808e-07
1.77083e-07
1.76933e-07
1.96303e-07
2.09681e-07
2.35715e-07
2.61679e-07
2.85435e-07
3.06845e-07
3.25877e-07
3.42304e-07
3.56169e-07
3.67367e-07
3.75776e-07
3.81505e-07
3.84922e-07
3.86671e-07
1.44264e-07
1.44499e-07
1.45581e-07
1.47299e-07
1.4876e-07
1.49518e-07
1.49818e-07
1.46815e-07
1.44356e-07
1.41712e-07
1.59085e-07
1.71998e-07
1.99319e-07
2.25982e-07
2.49829e-07
2.71439e-07
2.90923e-07
3.07684e-07
3.21433e-07
3.32025e-07
3.39243e-07
3.42926e-07
3.43231e-07
3.41083e-07
3.38111e-07
1.23684e-07
1.24108e-07
1.24728e-07
1.2518e-07
1.24791e-07
1.23606e-07
1.2119e-07
1.17191e-07
1.13165e-07
1.09533e-07
1.25371e-07
1.38124e-07
1.66188e-07
1.93508e-07
2.17443e-07
2.39186e-07
2.59335e-07
2.77274e-07
2.92626e-07
3.05397e-07
3.15715e-07
3.24047e-07
3.31117e-07
3.37182e-07
3.41544e-07
1.05441e-07
1.06144e-07
1.06163e-07
1.05119e-07
1.02765e-07
9.94328e-08
9.44911e-08
9.01538e-08
8.35341e-08
8.21573e-08
9.60754e-08
1.08233e-07
1.36544e-07
1.64588e-07
1.88776e-07
2.10384e-07
2.3002e-07
2.46941e-07
2.60664e-07
2.71035e-07
2.7765e-07
2.801e-07
2.78709e-07
2.75817e-07
2.74712e-07
9.10106e-08
9.18285e-08
9.04107e-08
8.67062e-08
8.1401e-08
7.53506e-08
6.87979e-08
6.52875e-08
5.74798e-08
6.40295e-08
7.31206e-08
8.31505e-08
1.10272e-07
1.38348e-07
1.63894e-07
1.88757e-07
2.1337e-07
2.36718e-07
2.58336e-07
2.78731e-07
2.98996e-07
3.20484e-07
3.43486e-07
3.64893e-07
3.80203e-07
8.26083e-08
8.32779e-08
7.96659e-08
7.20685e-08
6.20376e-08
5.11624e-08
4.20739e-08
3.95627e-08
3.57724e-08
5.33345e-08
5.78433e-08
6.65844e-08
9.04397e-08
1.15789e-07
1.40254e-07
1.66574e-07
1.95153e-07
2.24719e-07
2.5423e-07
2.82946e-07
3.09896e-07
3.34271e-07
3.55972e-07
3.7477e-07
3.91358e-07
7.92395e-08
7.97617e-08
7.47069e-08
6.44277e-08
5.03437e-08
3.36636e-08
1.79845e-08
1.46555e-08
2.32847e-08
4.2043e-08
3.67207e-08
5.82264e-08
9.55669e-08
1.38046e-07
1.83917e-07
2.3293e-07
2.84798e-07
3.38702e-07
3.93226e-07
4.46716e-07
4.96671e-07
5.39817e-07
5.7205e-07
5.91354e-07
6.04655e-07
)
;

boundaryField
{
    inlet
    {
        type            calculated;
        value           nonuniform List<scalar> 
25
(
7.94528e-08
7.98929e-08
7.47216e-08
6.41967e-08
4.95004e-08
3.16567e-08
1.43147e-08
1.48168e-08
3.00132e-08
3.22219e-08
6.76537e-08
1.28911e-07
2.23557e-07
3.41913e-07
4.80835e-07
6.38951e-07
8.15552e-07
1.00909e-06
1.21712e-06
1.43603e-06
1.66057e-06
1.88243e-06
2.09132e-06
2.27538e-06
2.43152e-06
)
;
    }
    outlet
    {
        type            calculated;
        value           nonuniform List<scalar> 0();
    }
    walls
    {
        type            calculated;
        value           nonuniform List<scalar> 0();
    }
    frontAndBack
    {
        type            empty;
    }
    procBoundary4to0
    {
        type            processor;
        value           nonuniform List<scalar> 
72
(
0.000455072
0.000384687
0.000327502
0.000280626
0.000241862
0.000209436
0.000181984
0.000158521
0.000138366
0.000121033
0.000106131
9.33016e-05
8.22115e-05
7.25687e-05
6.41388e-05
5.67434e-05
5.02456e-05
4.45349e-05
3.9514e-05
3.50891e-05
3.11818e-05
2.77261e-05
2.77261e-05
2.42737e-05
2.16032e-05
1.92358e-05
1.71347e-05
1.5268e-05
1.36082e-05
1.21314e-05
1.08166e-05
9.64582e-06
8.60288e-06
7.67347e-06
6.84486e-06
6.10582e-06
5.44639e-06
4.85782e-06
4.33237e-06
3.86323e-06
3.44429e-06
3.0701e-06
2.73585e-06
2.43721e-06
2.17031e-06
1.93176e-06
1.71853e-06
1.52792e-06
1.35752e-06
1.20517e-06
1.06893e-06
9.47075e-07
8.38103e-07
7.40724e-07
6.5367e-07
5.75818e-07
5.06306e-07
4.44419e-07
3.90347e-07
3.45818e-07
3.10642e-07
2.79535e-07
2.49087e-07
2.20167e-07
1.92842e-07
1.67434e-07
1.44258e-07
1.23175e-07
1.04098e-07
8.83446e-08
7.84327e-08
7.42152e-08
)
;
    }
    procBoundary4to5
    {
        type            processor;
        value           nonuniform List<scalar> 
95
(
0.000546311
0.000549399
0.000550899
0.000466327
0.000466327
0.000465985
0.000397301
0.000397301
0.000395389
0.000339628
0.000339628
0.000293485
0.000293485
0.000255055
0.000224143
0.000224143
0.000196636
0.000196636
0.000173115
0.000153706
0.000153706
0.000136184
0.000121386
0.000121386
0.000108082
9.65898e-05
9.65898e-05
8.63454e-05
7.73205e-05
6.92275e-05
6.92275e-05
6.21949e-05
5.57761e-05
5.00041e-05
5.00041e-05
4.50843e-05
4.0458e-05
3.62884e-05
3.62884e-05
3.27891e-05
2.94246e-05
2.63865e-05
2.63865e-05
2.38648e-05
2.14015e-05
1.91789e-05
1.71778e-05
1.5377e-05
1.5377e-05
1.39036e-05
1.24411e-05
1.11249e-05
9.94378e-06
8.88329e-06
8.88329e-06
8.00723e-06
7.14902e-06
6.38063e-06
5.693e-06
5.07822e-06
5.07822e-06
4.55212e-06
4.05959e-06
3.62085e-06
3.22987e-06
2.8821e-06
2.5729e-06
2.29793e-06
2.29793e-06
2.0504e-06
1.83316e-06
1.64037e-06
1.46874e-06
1.31572e-06
1.17901e-06
1.05711e-06
9.48726e-07
9.48726e-07
8.49132e-07
7.6457e-07
6.90702e-07
6.33771e-07
5.87936e-07
5.43593e-07
5.00205e-07
4.59588e-07
4.17581e-07
3.87445e-07
3.87445e-07
3.35345e-07
3.43973e-07
2.76158e-07
3.89325e-07
4.08043e-07
6.0746e-07
)
;
    }
}


// ************************************************************************* //
