/*--------------------------------*- C++ -*----------------------------------*\
| =========                 |                                                 |
| \\      /  F ield         | OpenFOAM: The Open Source CFD Toolbox           |
|  \\    /   O peration     | Version:  2506                                  |
|   \\  /    A nd           | Website:  www.openfoam.com                      |
|    \\/     M anipulation  |                                                 |
\*---------------------------------------------------------------------------*/
FoamFile
{
    version     2.0;
    format      ascii;
    arch        "LSB;label=32;scalar=64";
    class       pointScalarField;
    location    "1.6";
    object      streamFunction;
}
// * * * * * * * * * * * * * * * * * * * * * * * * * * * * * * * * * * * * * //

dimensions      [0 3 -1 0 0 0 0];

internalField   nonuniform List<scalar> 
882
(
0
0
0
0
0
0
0
0
0
0
0
0
0
0
0
0
0
0
0
0
0
0
1.26081e-06
-2.86486e-06
-1.22764e-05
-2.51377e-05
-3.97464e-05
-5.47114e-05
-6.88475e-05
-8.0953e-05
-8.97911e-05
-9.41566e-05
-9.30605e-05
-8.6016e-05
-7.333e-05
-5.6381e-05
-3.74743e-05
-1.95579e-05
-5.6715e-06
1.9765e-06
2.98006e-06
0
0
-3.0536e-06
-2.33271e-05
-5.91841e-05
-0.000105411
-0.00015684
-0.000208883
-0.000257367
-0.000298179
-0.000327242
-0.00034079
-0.000335977
-0.000311611
-0.000269025
-0.000212576
-0.000149414
-8.8567e-05
-3.91903e-05
-8.0855e-06
2.8598e-06
0
0
-1.4128e-05
-6.3754e-05
-0.000142555
-0.000240358
-0.000347266
-0.000454303
-0.000553132
-0.000635592
-0.000693744
-0.000720437
-0.000710409
-0.000661608
-0.000576649
-0.000463668
-0.000336063
-0.000210917
-0.000105843
-3.45048e-05
-1.97682e-06
0
0
-3.15505e-05
-0.000123278
-0.000260666
-0.000426713
-0.000605674
-0.000783364
-0.000946558
-0.00108236
-0.0011783
-0.00122323
-0.00120886
-0.00113177
-0.000995496
-0.000811992
-0.00060159
-0.000391025
-0.000208885
-7.87337e-05
-1.17374e-05
0
0
-5.45962e-05
-0.000200002
-0.000410209
-0.000659559
-0.000925494
-0.00118808
-0.00142883
-0.00162975
-0.00177342
-0.00184408
-0.00182965
-0.00172431
-0.00153146
-0.00126604
-0.000955327
-0.000637057
-0.000353773
-0.000143153
-2.67427e-05
0
0
-8.23826e-05
-0.000291379
-0.000586693
-0.000932454
-0.00129855
-0.00165901
-0.00199002
-0.0022684
-0.00247155
-0.00257853
-0.0025725
-0.00244367
-0.00219353
-0.00183826
-0.0014111
-0.0009616
-0.000549536
-0.000232304
-4.80828e-05
0
0
-0.000113842
-0.000394224
-0.000784439
-0.00123722
-0.00171442
-0.00218402
-0.00261706
-0.00298541
-0.00326127
-0.00341811
-0.00343317
-0.00329108
-0.00298883
-0.00254105
-0.00198469
-0.00138065
-0.000808864
-0.000353319
-7.78074e-05
0
0
-0.000147706
-0.000504727
-0.000996554
-0.00156373
-0.00215986
-0.0027471
-0.00329182
-0.00376147
-0.00412337
-0.0043453
-0.0043978
-0.00425814
-0.00391601
-0.0033808
-0.00268918
-0.00191081
-0.00114708
-0.000515897
-0.000119037
0
0
-0.000182554
-0.0006186
-0.00121512
-0.00190002
-0.00261863
-0.00332776
-0.00398984
-0.00456877
-0.00502779
-0.00532943
-0.00543737
-0.00532028
-0.00495801
-0.0043504
-0.00352824
-0.00256447
-0.00157977
-0.000731825
-0.000176076
0
0
-0.000216976
-0.000731499
-0.0014318
-0.00223291
-0.00307208
-0.00390137
-0.00468032
-0.00537049
-0.00593239
-0.0063245
-0.00650438
-0.0064319
-0.00607553
-0.00542155
-0.0044882
-0.00334298
-0.00211863
-0.00101381
-0.000254556
0
0
-0.000249902
-0.000839819
-0.00163902
-0.00254945
-0.00350066
-0.0044408
-0.00532781
-0.00612253
-0.00678456
-0.00727031
-0.00753317
-0.0075252
-0.00720391
-0.00653921
-0.00553042
-0.00422867
-0.00276547
-0.00137311
-0.00036153
0
0
-0.00028112
-0.000941942
-0.00183174
-0.00283906
-0.00388639
-0.00491927
-0.00589562
-0.0067775
-0.00752586
-0.00809759
-0.00844462
-0.00851469
-0.00825532
-0.00762072
-0.00658687
-0.00517754
-0.00350467
-0.00181545
-0.000505291
0
0
-0.000312139
-0.00104003
-0.00200978
-0.00309612
-0.00421583
-0.0053138
-0.00635009
-0.00729015
-0.0080987
-0.00873597
-0.00915586
-0.00930545
-0.00912673
-0.0085611
-0.00756106
-0.00611515
-0.00429586
-0.0023349
-0.000694354
0
0
-0.000347605
-0.00114249
-0.0021805
-0.00332245
-0.0044824
-0.00560788
-0.00666382
-0.00762157
-0.00845198
-0.00912128
-0.0095886
-0.0098046
-0.00971122
-0.00924322
-0.00833455
-0.00693727
-0.00506833
-0.0029062
-0.000934585
0
0
-0.000397774
-0.00126717
-0.00236075
-0.00352779
-0.00468579
-0.00579011
-0.00681428
-0.00773813
-0.00854079
-0.00919657
-0.0096725
-0.00992652
-0.0099062
-0.00954752
-0.0087758
-0.00751417
-0.00571798
-0.00347575
-0.00122303
0
0
-0.000482438
-0.00144377
-0.00257429
-0.00372244
-0.00482116
-0.00584138
-0.00676969
-0.00759689
-0.00831198
-0.00889868
-0.00933361
-0.00958468
-0.00960971
-0.00935349
-0.00874499
-0.0076943
-0.00610497
-0.00395124
-0.00153744
0
0
-0.000634737
-0.00170582
-0.0028283
-0.00388281
-0.00483857
-0.00569156
-0.00644538
-0.00710322
-0.00766413
-0.0081213
-0.00846127
-0.00866316
-0.00869794
-0.00852464
-0.0080871
-0.00730214
-0.00604645
-0.00418778
-0.00182263
0
0
-0.000893374
-0.00202786
-0.00301355
-0.00383736
-0.00452898
-0.0051128
-0.00560743
-0.00602542
-0.006373
-0.00665047
-0.00685271
-0.00696937
-0.00698515
-0.00687544
-0.00660653
-0.00612016
-0.00530515
-0.00396128
-0.00194212
0
0
-0.00115676
-0.00203513
-0.00259073
-0.00299358
-0.00330251
-0.003544
-0.00373599
-0.0038901
-0.00401257
-0.0041057
-0.00416893
-0.00419961
-0.00419346
-0.00414004
-0.00402983
-0.00383914
-0.00350818
-0.00286845
-0.00162366
0
0
0
0
0
0
0
0
0
0
0
0
0
0
0
0
0
0
0
0
0
0
0
0
0
0
0
0
0
0
0
0
0
0
0
0
0
0
0
0
0
0
0
0
1.26081e-06
-2.86486e-06
-1.22764e-05
-2.51377e-05
-3.97464e-05
-5.47114e-05
-6.88475e-05
-8.0953e-05
-8.97911e-05
-9.41566e-05
-9.30605e-05
-8.6016e-05
-7.333e-05
-5.6381e-05
-3.74743e-05
-1.95579e-05
-5.6715e-06
1.9765e-06
2.98006e-06
0
0
-3.0536e-06
-2.33271e-05
-5.91841e-05
-0.000105411
-0.00015684
-0.000208883
-0.000257367
-0.000298179
-0.000327242
-0.00034079
-0.000335977
-0.000311611
-0.000269025
-0.000212576
-0.000149414
-8.8567e-05
-3.91903e-05
-8.0855e-06
2.8598e-06
0
0
-1.4128e-05
-6.3754e-05
-0.000142555
-0.000240358
-0.000347266
-0.000454303
-0.000553132
-0.000635592
-0.000693744
-0.000720437
-0.000710409
-0.000661608
-0.000576649
-0.000463668
-0.000336063
-0.000210917
-0.000105843
-3.45048e-05
-1.97682e-06
0
0
-3.15505e-05
-0.000123278
-0.000260666
-0.000426713
-0.000605674
-0.000783364
-0.000946558
-0.00108236
-0.0011783
-0.00122323
-0.00120886
-0.00113177
-0.000995496
-0.000811992
-0.00060159
-0.000391025
-0.000208885
-7.87337e-05
-1.17374e-05
0
0
-5.45962e-05
-0.000200002
-0.000410209
-0.000659559
-0.000925494
-0.00118808
-0.00142883
-0.00162975
-0.00177342
-0.00184408
-0.00182965
-0.00172431
-0.00153146
-0.00126604
-0.000955327
-0.000637057
-0.000353773
-0.000143153
-2.67427e-05
0
0
-8.23826e-05
-0.000291379
-0.000586693
-0.000932454
-0.00129855
-0.00165901
-0.00199002
-0.0022684
-0.00247155
-0.00257853
-0.0025725
-0.00244367
-0.00219353
-0.00183826
-0.0014111
-0.0009616
-0.000549536
-0.000232304
-4.80828e-05
0
0
-0.000113842
-0.000394224
-0.000784439
-0.00123722
-0.00171442
-0.00218402
-0.00261706
-0.00298541
-0.00326127
-0.00341811
-0.00343317
-0.00329108
-0.00298883
-0.00254105
-0.00198469
-0.00138065
-0.000808864
-0.000353319
-7.78074e-05
0
0
-0.000147706
-0.000504727
-0.000996554
-0.00156373
-0.00215986
-0.0027471
-0.00329182
-0.00376147
-0.00412337
-0.0043453
-0.0043978
-0.00425814
-0.00391601
-0.0033808
-0.00268918
-0.00191081
-0.00114708
-0.000515897
-0.000119037
0
0
-0.000182554
-0.0006186
-0.00121512
-0.00190002
-0.00261863
-0.00332776
-0.00398984
-0.00456877
-0.00502779
-0.00532943
-0.00543737
-0.00532028
-0.00495801
-0.0043504
-0.00352824
-0.00256447
-0.00157977
-0.000731825
-0.000176076
0
0
-0.000216976
-0.000731499
-0.0014318
-0.00223291
-0.00307208
-0.00390137
-0.00468032
-0.00537049
-0.00593239
-0.0063245
-0.00650438
-0.0064319
-0.00607553
-0.00542155
-0.0044882
-0.00334298
-0.00211863
-0.00101381
-0.000254556
0
0
-0.000249902
-0.000839819
-0.00163902
-0.00254945
-0.00350066
-0.0044408
-0.00532781
-0.00612253
-0.00678456
-0.00727031
-0.00753317
-0.0075252
-0.00720391
-0.00653921
-0.00553042
-0.00422867
-0.00276547
-0.00137311
-0.00036153
0
0
-0.00028112
-0.000941942
-0.00183174
-0.00283906
-0.00388639
-0.00491927
-0.00589562
-0.0067775
-0.00752586
-0.00809759
-0.00844462
-0.00851469
-0.00825532
-0.00762072
-0.00658687
-0.00517754
-0.00350467
-0.00181545
-0.000505291
0
0
-0.000312139
-0.00104003
-0.00200978
-0.00309612
-0.00421583
-0.0053138
-0.00635009
-0.00729015
-0.0080987
-0.00873597
-0.00915586
-0.00930545
-0.00912673
-0.0085611
-0.00756106
-0.00611515
-0.00429586
-0.0023349
-0.000694354
0
0
-0.000347605
-0.00114249
-0.0021805
-0.00332245
-0.0044824
-0.00560788
-0.00666382
-0.00762157
-0.00845198
-0.00912128
-0.0095886
-0.0098046
-0.00971122
-0.00924322
-0.00833455
-0.00693727
-0.00506833
-0.0029062
-0.000934585
0
0
-0.000397774
-0.00126717
-0.00236075
-0.00352779
-0.00468579
-0.00579011
-0.00681428
-0.00773813
-0.00854079
-0.00919657
-0.0096725
-0.00992652
-0.0099062
-0.00954752
-0.0087758
-0.00751417
-0.00571798
-0.00347575
-0.00122303
0
0
-0.000482438
-0.00144377
-0.00257429
-0.00372244
-0.00482116
-0.00584138
-0.00676969
-0.00759689
-0.00831198
-0.00889868
-0.00933361
-0.00958468
-0.00960971
-0.00935349
-0.00874499
-0.0076943
-0.00610497
-0.00395124
-0.00153744
0
0
-0.000634737
-0.00170582
-0.0028283
-0.00388281
-0.00483857
-0.00569156
-0.00644538
-0.00710322
-0.00766413
-0.0081213
-0.00846127
-0.00866316
-0.00869794
-0.00852464
-0.0080871
-0.00730214
-0.00604645
-0.00418778
-0.00182263
0
0
-0.000893374
-0.00202786
-0.00301355
-0.00383736
-0.00452898
-0.0051128
-0.00560743
-0.00602542
-0.006373
-0.00665047
-0.00685271
-0.00696937
-0.00698515
-0.00687544
-0.00660653
-0.00612016
-0.00530515
-0.00396128
-0.00194212
0
0
-0.00115676
-0.00203513
-0.00259073
-0.00299358
-0.00330251
-0.003544
-0.00373599
-0.0038901
-0.00401257
-0.0041057
-0.00416893
-0.00419961
-0.00419346
-0.00414004
-0.00402983
-0.00383914
-0.00350818
-0.00286845
-0.00162366
0
0
0
0
0
0
0
0
0
0
0
0
0
0
0
0
0
0
0
0
0
0
)
;

boundaryField
{
    movingWall
    {
        type            calculated;
    }
    fixedWalls
    {
        type            calculated;
    }
    frontAndBack
    {
        type            empty;
    }
}


// ************************************************************************* //
