/*--------------------------------*- C++ -*----------------------------------*\
| =========                 |                                                 |
| \\      /  F ield         | OpenFOAM: The Open Source CFD Toolbox           |
|  \\    /   O peration     | Version:  2506                                  |
|   \\  /    A nd           | Website:  www.openfoam.com                      |
|    \\/     M anipulation  |                                                 |
\*---------------------------------------------------------------------------*/
FoamFile
{
    version     2.0;
    format      ascii;
    arch        "LSB;label=32;scalar=64";
    class       volScalarField;
    location    "350";
    object      nut;
}
// * * * * * * * * * * * * * * * * * * * * * * * * * * * * * * * * * * * * * //

dimensions      [0 2 -1 0 0 0 0];

internalField   nonuniform List<scalar> 
1340
(
6.96207e-06
8.09658e-06
1.07905e-05
1.54805e-05
2.32255e-05
3.55737e-05
5.44508e-05
8.1383e-05
0.000117939
0.000167171
0.000236266
0.000339368
0.000501787
0.000773214
0.00124189
0.00211745
0.00376968
0.00732758
0.014722
0.0324753
0.0663185
0.0934674
0.105024
0.108432
0.109374
0.10947
0.108974
0.107973
5.91109e-06
6.02167e-06
5.95911e-06
5.81772e-06
5.62464e-06
5.39036e-06
5.12412e-06
4.82949e-06
4.49576e-06
4.11979e-06
3.67672e-06
3.16248e-06
2.54832e-06
1.84354e-06
1.07407e-06
4.20545e-07
5.41024e-08
1.4692e-09
9.28551e-09
9.37035e-05
0.000539858
0.00415626
0.0141146
0.0287184
0.043726
0.0550614
0.0618244
0.0656063
0.0680041
6.14159e-06
6.12757e-06
6.13234e-06
6.1473e-06
6.16692e-06
6.1909e-06
6.22024e-06
6.25309e-06
6.29012e-06
6.33105e-06
6.37754e-06
6.43084e-06
6.49454e-06
6.572e-06
6.67145e-06
6.79901e-06
6.98029e-06
7.1736e-06
7.436e-06
7.15678e-06
7.24744e-06
2.4845e-06
8.36643e-05
0.000790262
0.00301721
0.00754154
0.0142521
0.022435
0.0311555
6.10033e-06
6.10165e-06
6.10258e-06
6.10044e-06
6.09775e-06
6.09426e-06
6.09052e-06
6.08706e-06
6.08364e-06
6.08031e-06
6.07683e-06
6.07316e-06
6.06916e-06
6.0641e-06
6.05902e-06
6.05365e-06
6.04792e-06
6.04111e-06
6.03484e-06
6.02806e-06
6.03039e-06
6.02313e-06
6.08255e-06
5.999e-06
5.95246e-06
5.20932e-06
4.16156e-06
0.000226318
0.00104493
0.00304126
6.10922e-06
6.1071e-06
6.10522e-06
6.10415e-06
6.1039e-06
6.10389e-06
6.1038e-06
6.10414e-06
6.10468e-06
6.10564e-06
6.10688e-06
6.10843e-06
6.11027e-06
6.11246e-06
6.11494e-06
6.1177e-06
6.12074e-06
6.12417e-06
6.12797e-06
6.13291e-06
6.1372e-06
6.15044e-06
6.1301e-06
6.27274e-06
5.69522e-06
8.70854e-06
5.81899e-07
2.55833e-05
0.000245327
0.000728236
6.10634e-06
6.10607e-06
6.1047e-06
6.1035e-06
6.10252e-06
6.10192e-06
6.10148e-06
6.101e-06
6.10075e-06
6.10058e-06
6.10057e-06
6.1006e-06
6.10072e-06
6.10092e-06
6.10117e-06
6.10143e-06
6.10166e-06
6.10178e-06
6.10185e-06
6.1015e-06
6.10143e-06
6.10175e-06
6.10215e-06
6.10394e-06
6.10349e-06
6.11256e-06
6.09539e-06
6.19887e-06
5.60365e-06
4.20401e-06
2.90023e-09
6.10554e-06
6.10547e-06
6.10428e-06
6.10312e-06
6.10223e-06
6.10172e-06
6.10136e-06
6.10116e-06
6.10104e-06
6.10109e-06
6.10104e-06
6.10108e-06
6.10125e-06
6.10148e-06
6.10182e-06
6.10223e-06
6.10274e-06
6.10331e-06
6.10399e-06
6.10479e-06
6.10577e-06
6.10705e-06
6.10872e-06
6.11081e-06
6.11345e-06
6.11681e-06
6.12094e-06
6.1258e-06
6.1497e-06
5.5242e-06
3.40536e-06
6.10438e-06
6.10452e-06
6.10362e-06
6.10259e-06
6.10178e-06
6.10132e-06
6.101e-06
6.10084e-06
6.10077e-06
6.10086e-06
6.10095e-06
6.10106e-06
6.10113e-06
6.10113e-06
6.10122e-06
6.10131e-06
6.10144e-06
6.10158e-06
6.10174e-06
6.1019e-06
6.10202e-06
6.1022e-06
6.10242e-06
6.10268e-06
6.10294e-06
6.10304e-06
6.10351e-06
6.10081e-06
6.11178e-06
6.0774e-06
6.31427e-06
6.10208e-06
6.10361e-06
6.10387e-06
6.10318e-06
6.10222e-06
6.10152e-06
6.10108e-06
6.10083e-06
6.1007e-06
6.10064e-06
6.10072e-06
6.10081e-06
6.10096e-06
6.10109e-06
6.10123e-06
6.10132e-06
6.10132e-06
6.10139e-06
6.10151e-06
6.10167e-06
6.10186e-06
6.10208e-06
6.10242e-06
6.10292e-06
6.10359e-06
6.10444e-06
6.1055e-06
6.10687e-06
6.10838e-06
6.11077e-06
6.10699e-06
6.12488e-06
6.10296e-06
6.10331e-06
6.10275e-06
6.10188e-06
6.10128e-06
6.10088e-06
6.10073e-06
6.10057e-06
6.10049e-06
6.10054e-06
6.10061e-06
6.10076e-06
6.10093e-06
6.10111e-06
6.10127e-06
6.10142e-06
6.10153e-06
6.10162e-06
6.10161e-06
6.10163e-06
6.10167e-06
6.10177e-06
6.10195e-06
6.10222e-06
6.10256e-06
6.10298e-06
6.1034e-06
6.10412e-06
6.10371e-06
6.10875e-06
6.08879e-06
6.10286e-06
6.10239e-06
6.1016e-06
6.10108e-06
6.10075e-06
6.10059e-06
6.10042e-06
6.10032e-06
6.10033e-06
6.10039e-06
6.10053e-06
6.10069e-06
6.10089e-06
6.10108e-06
6.10126e-06
6.10142e-06
6.10157e-06
6.10168e-06
6.10177e-06
6.10182e-06
6.10189e-06
6.10203e-06
6.10227e-06
6.10259e-06
6.10303e-06
6.10354e-06
6.1044e-06
6.10437e-06
6.10886e-06
6.09347e-06
6.10207e-06
6.10134e-06
6.10087e-06
6.10058e-06
6.10043e-06
6.10029e-06
6.10016e-06
6.10014e-06
6.10015e-06
6.10027e-06
6.10041e-06
6.1006e-06
6.1008e-06
6.10101e-06
6.10122e-06
6.10144e-06
6.10162e-06
6.10178e-06
6.10193e-06
6.10201e-06
6.10205e-06
6.10214e-06
6.10229e-06
6.10252e-06
6.10282e-06
6.10325e-06
6.1035e-06
6.10507e-06
6.10156e-06
6.10112e-06
6.1007e-06
6.10041e-06
6.10025e-06
6.10011e-06
6.09997e-06
6.09992e-06
6.09992e-06
6.1e-06
6.10013e-06
6.10031e-06
6.10052e-06
6.10077e-06
6.10101e-06
6.10125e-06
6.10148e-06
6.10168e-06
6.10188e-06
6.10202e-06
6.10209e-06
6.10212e-06
6.10221e-06
6.10236e-06
6.10259e-06
6.10291e-06
6.10333e-06
6.10371e-06
6.10477e-06
6.10052e-06
6.10024e-06
6.10007e-06
6.09995e-06
6.09979e-06
6.09971e-06
6.09969e-06
6.09976e-06
6.09988e-06
6.10006e-06
6.10026e-06
6.10051e-06
6.10075e-06
6.10102e-06
6.10127e-06
6.10151e-06
6.10174e-06
6.10193e-06
6.10206e-06
6.10213e-06
6.10215e-06
6.10222e-06
6.10235e-06
6.10255e-06
6.10286e-06
6.10306e-06
6.10414e-06
6.10006e-06
6.09989e-06
6.09976e-06
6.0996e-06
6.09952e-06
6.09949e-06
6.09954e-06
6.09964e-06
6.0998e-06
6.09999e-06
6.10022e-06
6.10048e-06
6.10076e-06
6.10103e-06
6.1013e-06
6.10156e-06
6.10178e-06
6.10196e-06
6.10209e-06
6.10214e-06
6.10217e-06
6.10224e-06
6.10237e-06
6.10257e-06
6.1028e-06
6.1033e-06
6.09988e-06
6.09971e-06
6.09959e-06
6.09942e-06
6.09932e-06
6.09929e-06
6.09933e-06
6.09941e-06
6.09956e-06
6.09975e-06
6.09998e-06
6.10023e-06
6.10051e-06
6.1008e-06
6.10108e-06
6.10137e-06
6.10162e-06
6.10184e-06
6.10201e-06
6.10212e-06
6.10218e-06
6.1022e-06
6.10226e-06
6.10238e-06
6.10256e-06
6.10282e-06
6.09953e-06
6.09939e-06
6.09924e-06
6.09915e-06
6.0991e-06
6.09914e-06
6.09921e-06
6.09935e-06
6.09952e-06
6.09973e-06
6.09998e-06
6.10026e-06
6.10056e-06
6.10086e-06
6.10116e-06
6.10143e-06
6.10167e-06
6.10187e-06
6.10203e-06
6.10214e-06
6.10219e-06
6.10221e-06
6.10227e-06
6.10239e-06
6.10256e-06
6.09936e-06
6.09922e-06
6.09906e-06
6.09897e-06
6.09893e-06
6.09896e-06
6.09903e-06
6.09915e-06
6.09931e-06
6.09952e-06
6.09975e-06
6.10003e-06
6.10033e-06
6.10064e-06
6.10094e-06
6.10123e-06
6.10149e-06
6.10172e-06
6.10191e-06
6.10206e-06
6.10216e-06
6.10221e-06
6.10223e-06
6.10229e-06
6.10241e-06
6.09904e-06
6.0989e-06
6.09882e-06
6.09878e-06
6.0988e-06
6.09887e-06
6.09898e-06
6.09912e-06
6.09932e-06
6.09955e-06
6.09982e-06
6.10011e-06
6.10041e-06
6.10072e-06
6.10102e-06
6.10129e-06
6.10154e-06
6.10176e-06
6.10194e-06
6.10209e-06
6.10219e-06
6.10223e-06
6.10225e-06
6.10232e-06
6.09887e-06
6.09874e-06
6.09866e-06
6.09863e-06
6.09865e-06
6.09871e-06
6.09882e-06
6.09896e-06
6.09914e-06
6.09935e-06
6.0996e-06
6.09989e-06
6.1002e-06
6.1005e-06
6.10079e-06
6.10107e-06
6.10133e-06
6.10157e-06
6.10178e-06
6.10196e-06
6.1021e-06
6.10219e-06
6.10223e-06
6.10227e-06
6.09871e-06
6.09859e-06
6.09852e-06
6.0985e-06
6.09852e-06
6.09858e-06
6.09867e-06
6.0988e-06
6.09896e-06
6.09916e-06
6.0994e-06
6.09967e-06
6.09996e-06
6.10026e-06
6.10055e-06
6.10083e-06
6.1011e-06
6.10136e-06
6.10159e-06
6.1018e-06
6.10197e-06
6.1021e-06
6.1022e-06
6.10221e-06
6.09845e-06
6.0984e-06
6.09837e-06
6.09839e-06
6.09844e-06
6.09852e-06
6.09863e-06
6.09878e-06
6.09896e-06
6.09919e-06
6.09945e-06
6.09973e-06
6.10003e-06
6.10031e-06
6.10059e-06
6.10087e-06
6.10114e-06
6.10139e-06
6.10163e-06
6.10183e-06
6.102e-06
6.10213e-06
6.1022e-06
6.09831e-06
6.09826e-06
6.09824e-06
6.09826e-06
6.0983e-06
6.09837e-06
6.09847e-06
6.09861e-06
6.09878e-06
6.09899e-06
6.09924e-06
6.09951e-06
6.09979e-06
6.10007e-06
6.10035e-06
6.10063e-06
6.10091e-06
6.10118e-06
6.10143e-06
6.10166e-06
6.10186e-06
6.10202e-06
6.10214e-06
6.09812e-06
6.0981e-06
6.09812e-06
6.09815e-06
6.09822e-06
6.09831e-06
6.09844e-06
6.09859e-06
6.09879e-06
6.09902e-06
6.09929e-06
6.09956e-06
6.09983e-06
6.10011e-06
6.10039e-06
6.10067e-06
6.10094e-06
6.10121e-06
6.10146e-06
6.10169e-06
6.10188e-06
6.10204e-06
6.09797e-06
6.09795e-06
6.09797e-06
6.098e-06
6.09806e-06
6.09814e-06
6.09826e-06
6.09841e-06
6.09859e-06
6.09881e-06
6.09906e-06
6.09932e-06
6.09958e-06
6.09985e-06
6.10013e-06
6.10042e-06
6.1007e-06
6.10098e-06
6.10124e-06
6.10149e-06
6.10172e-06
6.1019e-06
6.09782e-06
6.0978e-06
6.09781e-06
6.09784e-06
6.0979e-06
6.09798e-06
6.09809e-06
6.09822e-06
6.0984e-06
6.0986e-06
6.09884e-06
6.09909e-06
6.09934e-06
6.0996e-06
6.09988e-06
6.10016e-06
6.10045e-06
6.10074e-06
6.10102e-06
6.10129e-06
6.10154e-06
6.10174e-06
6.09764e-06
6.09765e-06
6.09768e-06
6.09773e-06
6.09781e-06
6.09791e-06
6.09803e-06
6.09819e-06
6.09839e-06
6.09861e-06
6.09885e-06
6.09909e-06
6.09935e-06
6.09962e-06
6.0999e-06
6.10019e-06
6.10048e-06
6.10077e-06
6.10105e-06
6.10132e-06
6.10156e-06
6.09746e-06
6.09748e-06
6.09751e-06
6.09756e-06
6.09763e-06
6.09772e-06
6.09784e-06
6.09799e-06
6.09817e-06
6.09838e-06
6.09861e-06
6.09884e-06
6.09908e-06
6.09935e-06
6.09962e-06
6.09991e-06
6.10021e-06
6.10051e-06
6.1008e-06
6.10109e-06
6.10135e-06
6.09728e-06
6.0973e-06
6.09733e-06
6.09738e-06
6.09744e-06
6.09753e-06
6.09763e-06
6.09777e-06
6.09795e-06
6.09815e-06
6.09836e-06
6.09858e-06
6.09882e-06
6.09907e-06
6.09934e-06
6.09963e-06
6.09992e-06
6.10023e-06
6.10053e-06
6.10083e-06
6.10112e-06
6.0971e-06
6.09713e-06
6.09718e-06
6.09724e-06
6.09732e-06
6.09742e-06
6.09755e-06
6.09771e-06
6.0979e-06
6.0981e-06
6.09831e-06
6.09854e-06
6.09878e-06
6.09905e-06
6.09933e-06
6.09962e-06
6.09993e-06
6.10024e-06
6.10055e-06
6.10085e-06
6.0969e-06
6.09692e-06
6.09697e-06
6.09702e-06
6.0971e-06
6.09719e-06
6.09731e-06
6.09746e-06
6.09764e-06
6.09783e-06
6.09803e-06
6.09825e-06
6.09848e-06
6.09874e-06
6.09901e-06
6.09931e-06
6.09961e-06
6.09993e-06
6.10025e-06
6.10057e-06
6.0967e-06
6.09674e-06
6.09679e-06
6.09686e-06
6.09695e-06
6.09706e-06
6.0972e-06
6.09737e-06
6.09755e-06
6.09773e-06
6.09794e-06
6.09816e-06
6.09841e-06
6.09868e-06
6.09896e-06
6.09927e-06
6.09959e-06
6.09991e-06
6.10024e-06
6.09646e-06
6.09649e-06
6.09654e-06
6.09661e-06
6.09668e-06
6.09679e-06
6.09692e-06
6.09707e-06
6.09724e-06
6.09741e-06
6.09761e-06
6.09782e-06
6.09806e-06
6.09832e-06
6.0986e-06
6.0989e-06
6.09922e-06
6.09955e-06
6.09989e-06
6.09619e-06
6.09622e-06
6.09627e-06
6.09632e-06
6.0964e-06
6.09649e-06
6.09661e-06
6.09675e-06
6.0969e-06
6.09707e-06
6.09725e-06
6.09745e-06
6.09768e-06
6.09793e-06
6.0982e-06
6.0985e-06
6.09881e-06
6.09915e-06
6.09949e-06
6.09592e-06
6.09596e-06
6.09601e-06
6.09608e-06
6.09616e-06
6.09627e-06
6.0964e-06
6.09654e-06
6.09669e-06
6.09686e-06
6.09705e-06
6.09726e-06
6.0975e-06
6.09777e-06
6.09806e-06
6.09837e-06
6.0987e-06
6.09905e-06
6.0956e-06
6.09563e-06
6.09567e-06
6.09572e-06
6.0958e-06
6.09589e-06
6.09601e-06
6.09614e-06
6.09628e-06
6.09643e-06
6.09661e-06
6.09681e-06
6.09704e-06
6.09729e-06
6.09757e-06
6.09788e-06
6.09821e-06
6.09856e-06
6.09523e-06
6.09525e-06
6.09528e-06
6.09533e-06
6.09539e-06
6.09547e-06
6.09557e-06
6.09569e-06
6.09582e-06
6.09596e-06
6.09612e-06
6.09631e-06
6.09653e-06
6.09677e-06
6.09704e-06
6.09734e-06
6.09767e-06
6.09802e-06
6.09483e-06
6.09486e-06
6.09489e-06
6.09494e-06
6.09501e-06
6.0951e-06
6.0952e-06
6.09531e-06
6.09544e-06
6.09559e-06
6.09576e-06
6.09597e-06
6.0962e-06
6.09646e-06
6.09675e-06
6.09706e-06
6.09741e-06
6.09436e-06
6.09438e-06
6.0944e-06
6.09444e-06
6.09449e-06
6.09456e-06
6.09465e-06
6.09474e-06
6.09486e-06
6.095e-06
6.09516e-06
6.09535e-06
6.09557e-06
6.09581e-06
6.09609e-06
6.0964e-06
6.09384e-06
6.09384e-06
6.09385e-06
6.09387e-06
6.09391e-06
6.09397e-06
6.09404e-06
6.09412e-06
6.09422e-06
6.09435e-06
6.0945e-06
6.09467e-06
6.09487e-06
6.09511e-06
6.09538e-06
6.09568e-06
6.09325e-06
6.09324e-06
6.09325e-06
6.09328e-06
6.09332e-06
6.09337e-06
6.09344e-06
6.09353e-06
6.09364e-06
6.09377e-06
6.09393e-06
6.09412e-06
6.09434e-06
6.0946e-06
6.09489e-06
6.09259e-06
6.09257e-06
6.09257e-06
6.09258e-06
6.09261e-06
6.09265e-06
6.0927e-06
6.09277e-06
6.09287e-06
6.09299e-06
6.09314e-06
6.09332e-06
6.09352e-06
6.09377e-06
6.09404e-06
6.09187e-06
6.09184e-06
6.09183e-06
6.09182e-06
6.09183e-06
6.09186e-06
6.0919e-06
6.09196e-06
6.09205e-06
6.09216e-06
6.09229e-06
6.09246e-06
6.09265e-06
6.09288e-06
6.09315e-06
6.09105e-06
6.09102e-06
6.09101e-06
6.09101e-06
6.09102e-06
6.09105e-06
6.0911e-06
6.09118e-06
6.09128e-06
6.0914e-06
6.09156e-06
6.09174e-06
6.09196e-06
6.09221e-06
6.09021e-06
6.09017e-06
6.09015e-06
6.09014e-06
6.09015e-06
6.09017e-06
6.09021e-06
6.09028e-06
6.09037e-06
6.09049e-06
6.09063e-06
6.09081e-06
6.09101e-06
6.09125e-06
6.08933e-06
6.08929e-06
6.08926e-06
6.08924e-06
6.08924e-06
6.08926e-06
6.0893e-06
6.08936e-06
6.08944e-06
6.08955e-06
6.08969e-06
6.08986e-06
6.09006e-06
6.09029e-06
6.08837e-06
6.08834e-06
6.08832e-06
6.08832e-06
6.08834e-06
6.08837e-06
6.08843e-06
6.08852e-06
6.08862e-06
6.08876e-06
6.08892e-06
6.08911e-06
6.08933e-06
6.08745e-06
6.08742e-06
6.0874e-06
6.0874e-06
6.08742e-06
6.08745e-06
6.08751e-06
6.0876e-06
6.0877e-06
6.08784e-06
6.08799e-06
6.08818e-06
6.0884e-06
6.08653e-06
6.0865e-06
6.08648e-06
6.08648e-06
6.0865e-06
6.08654e-06
6.0866e-06
6.08669e-06
6.08679e-06
6.08692e-06
6.08708e-06
6.08726e-06
6.08747e-06
6.08561e-06
6.08558e-06
6.08557e-06
6.08557e-06
6.08559e-06
6.08563e-06
6.08569e-06
6.08577e-06
6.08587e-06
6.086e-06
6.08615e-06
6.08633e-06
6.08653e-06
6.08465e-06
6.08463e-06
6.08463e-06
6.08465e-06
6.08468e-06
6.08474e-06
6.08481e-06
6.08491e-06
6.08503e-06
6.08517e-06
6.08534e-06
6.08553e-06
6.08368e-06
6.08365e-06
6.08364e-06
6.08364e-06
6.08366e-06
6.0837e-06
6.08376e-06
6.08384e-06
6.08394e-06
6.08407e-06
6.08423e-06
6.08441e-06
6.08261e-06
6.08256e-06
6.08252e-06
6.0825e-06
6.08249e-06
6.08251e-06
6.08254e-06
6.0826e-06
6.08268e-06
6.08279e-06
6.08292e-06
6.0814e-06
6.08131e-06
6.08123e-06
6.08117e-06
6.08113e-06
6.0811e-06
6.0811e-06
6.08113e-06
6.08118e-06
6.08125e-06
6.08136e-06
6.07985e-06
6.07972e-06
6.07962e-06
6.07953e-06
6.07946e-06
6.07942e-06
6.07941e-06
6.07942e-06
6.07946e-06
6.07953e-06
6.07818e-06
6.07801e-06
6.07785e-06
6.07772e-06
6.07762e-06
6.07754e-06
6.07748e-06
6.07746e-06
6.07747e-06
6.0775e-06
6.07637e-06
6.07616e-06
6.07598e-06
6.07582e-06
6.07569e-06
6.07558e-06
6.07551e-06
6.07546e-06
6.07543e-06
6.07544e-06
6.07457e-06
6.07436e-06
6.07417e-06
6.07401e-06
6.07388e-06
6.07377e-06
6.07369e-06
6.07363e-06
6.0736e-06
6.07358e-06
6.073e-06
6.07282e-06
6.07267e-06
6.07255e-06
6.07245e-06
6.07236e-06
6.0723e-06
6.07226e-06
6.07223e-06
6.07221e-06
6.07182e-06
6.07175e-06
6.0717e-06
6.07167e-06
6.07165e-06
6.07164e-06
6.07163e-06
6.07163e-06
6.07164e-06
6.0716e-06
6.07166e-06
6.07173e-06
6.07181e-06
6.07188e-06
6.07196e-06
6.07204e-06
6.0721e-06
6.07216e-06
6.07232e-06
6.07251e-06
6.07271e-06
6.0729e-06
6.07308e-06
6.07324e-06
6.0734e-06
6.07353e-06
6.07381e-06
6.07413e-06
6.07445e-06
6.07475e-06
6.07503e-06
6.07529e-06
6.07553e-06
6.07574e-06
6.07598e-06
6.07644e-06
6.07688e-06
6.0773e-06
6.07768e-06
6.07804e-06
6.07837e-06
6.07867e-06
6.07874e-06
6.07933e-06
6.07989e-06
6.08042e-06
6.08091e-06
6.08136e-06
6.08178e-06
6.08216e-06
6.08265e-06
6.08331e-06
6.08392e-06
6.0845e-06
6.08503e-06
6.08552e-06
6.08597e-06
6.08618e-06
6.08691e-06
6.08759e-06
6.08822e-06
6.08881e-06
6.08936e-06
6.08987e-06
6.08917e-06
6.08993e-06
6.09065e-06
6.09131e-06
6.09194e-06
6.09253e-06
6.09308e-06
6.09139e-06
6.09214e-06
6.09284e-06
6.09351e-06
6.09414e-06
6.09474e-06
6.09531e-06
6.09328e-06
6.09399e-06
6.09466e-06
6.0953e-06
6.09591e-06
6.0965e-06
6.09707e-06
6.09478e-06
6.09545e-06
6.09609e-06
6.0967e-06
6.09729e-06
6.09787e-06
6.09843e-06
6.09595e-06
6.09661e-06
6.09725e-06
6.09787e-06
6.09848e-06
6.09908e-06
6.09727e-06
6.09802e-06
6.09877e-06
6.09951e-06
6.10024e-06
6.10096e-06
6.09964e-06
6.10065e-06
6.10165e-06
6.10265e-06
6.10363e-06
6.1046e-06
6.10508e-06
6.1064e-06
6.1077e-06
6.10898e-06
6.11024e-06
6.10977e-06
6.11115e-06
6.11249e-06
6.11379e-06
6.11507e-06
6.10996e-06
6.11089e-06
6.11177e-06
6.11261e-06
6.11342e-06
6.10273e-06
6.10347e-06
6.10427e-06
6.10511e-06
6.106e-06
6.09982e-06
6.10237e-06
6.10505e-06
6.10784e-06
6.1107e-06
6.10209e-06
6.10393e-06
6.10566e-06
6.10727e-06
6.10878e-06
)
;

boundaryField
{
    inlet
    {
        type            freestream;
        freestreamValue uniform 1e-05;
        value           uniform 1e-05;
    }
    outlet
    {
        type            freestream;
        freestreamValue nonuniform List<scalar> 0();
        value           nonuniform List<scalar> 0();
    }
    walls
    {
        type            nutUSpaldingWallFunction;
        value           nonuniform List<scalar> 
28
(
0.000447374
0.000550146
0.000888229
0.00120862
0.00147058
0.00168112
0.001853
0.00199559
0.00211597
0.00221977
0.00231136
0.00239443
0.00247133
0.00254414
0.0026135
0.00267942
0.00273861
0.00278467
0.00281718
0.00283941
0.00285444
0.00286356
0.00286761
0.00286511
0.00285442
0.00283525
0.00280805
0.00277237
)
;
    }
    frontAndBack
    {
        type            empty;
    }
    procBoundary1to0
    {
        type            processor;
        value           nonuniform List<scalar> 
94
(
6.10156e-06
6.10156e-06
6.10248e-06
6.10248e-06
6.10247e-06
6.10247e-06
6.10178e-06
6.10178e-06
6.10091e-06
6.10091e-06
6.10034e-06
6.10034e-06
6.10017e-06
6.09971e-06
6.09971e-06
6.09954e-06
6.0992e-06
6.0992e-06
6.09904e-06
6.09887e-06
6.09855e-06
6.09855e-06
6.09841e-06
6.09817e-06
6.09817e-06
6.09802e-06
6.09786e-06
6.09765e-06
6.09765e-06
6.09748e-06
6.09729e-06
6.09709e-06
6.09709e-06
6.09688e-06
6.09668e-06
6.09668e-06
6.09643e-06
6.09617e-06
6.0959e-06
6.0959e-06
6.09558e-06
6.09522e-06
6.09482e-06
6.09482e-06
6.09436e-06
6.09385e-06
6.09326e-06
6.09326e-06
6.09261e-06
6.09191e-06
6.09109e-06
6.09109e-06
6.09026e-06
6.08938e-06
6.08842e-06
6.08842e-06
6.0875e-06
6.08657e-06
6.08565e-06
6.08468e-06
6.08468e-06
6.08371e-06
6.08267e-06
6.08149e-06
6.07998e-06
6.07998e-06
6.07836e-06
6.07659e-06
6.0748e-06
6.07319e-06
6.07191e-06
6.07191e-06
6.07156e-06
6.07213e-06
6.07348e-06
6.0755e-06
6.07813e-06
6.08195e-06
6.08195e-06
6.0854e-06
6.08836e-06
6.09059e-06
6.09253e-06
6.09409e-06
6.09527e-06
6.0965e-06
6.09863e-06
6.10375e-06
6.10375e-06
6.10835e-06
6.10899e-06
6.10204e-06
6.09745e-06
6.10014e-06
)
;
    }
    procBoundary1to2
    {
        type            processor;
        value           nonuniform List<scalar> 
84
(
0.106576
0.0699945
0.0395982
0.00688437
0.000716325
0.000160134
5.85668e-08
6.02171e-06
6.18213e-06
6.18611e-06
6.1648e-06
6.11904e-06
6.10285e-06
6.10211e-06
6.10315e-06
6.10319e-06
6.10288e-06
6.10262e-06
6.10245e-06
6.10235e-06
6.10225e-06
6.10223e-06
6.10219e-06
6.10213e-06
6.10204e-06
6.10193e-06
6.10177e-06
6.10158e-06
6.10137e-06
6.10113e-06
6.10086e-06
6.10056e-06
6.10021e-06
6.09983e-06
6.0994e-06
6.09892e-06
6.09838e-06
6.09778e-06
6.09675e-06
6.09675e-06
6.09601e-06
6.09522e-06
6.09436e-06
6.09345e-06
6.09251e-06
6.09154e-06
6.09056e-06
6.0896e-06
6.08865e-06
6.08771e-06
6.08677e-06
6.08577e-06
6.08463e-06
6.08309e-06
6.08309e-06
6.0815e-06
6.07964e-06
6.07757e-06
6.07548e-06
6.07359e-06
6.07221e-06
6.07164e-06
6.07221e-06
6.07365e-06
6.07365e-06
6.07593e-06
6.07894e-06
6.08251e-06
6.08639e-06
6.09034e-06
6.0936e-06
6.09586e-06
6.09762e-06
6.09898e-06
6.09967e-06
6.09967e-06
6.10167e-06
6.10556e-06
6.11149e-06
6.11632e-06
6.11421e-06
6.10693e-06
6.11363e-06
6.11016e-06
)
;
    }
    procBoundary1to5
    {
        type            processor;
        value           nonuniform List<scalar> 
13
(
8.24543e-06
8.24543e-06
5.77996e-06
6.15933e-06
6.15933e-06
6.09829e-06
6.11043e-06
6.11043e-06
6.10464e-06
6.10388e-06
6.10276e-06
6.10276e-06
6.10267e-06
)
;
    }
}


// ************************************************************************* //
