/*--------------------------------*- C++ -*----------------------------------*\
| =========                 |                                                 |
| \\      /  F ield         | OpenFOAM: The Open Source CFD Toolbox           |
|  \\    /   O peration     | Version:  2506                                  |
|   \\  /    A nd           | Website:  www.openfoam.com                      |
|    \\/     M anipulation  |                                                 |
\*---------------------------------------------------------------------------*/
FoamFile
{
    version     2.0;
    format      ascii;
    arch        "LSB;label=32;scalar=64";
    class       volScalarField;
    location    "350";
    object      turbulenceProperties:I;
}
// * * * * * * * * * * * * * * * * * * * * * * * * * * * * * * * * * * * * * //

dimensions      [0 0 0 0 0 0 0];

internalField   nonuniform List<scalar> 
1340
(
0.0170022
0.0134835
0.00874308
0.00732174
0.00706299
0.00731376
0.0078706
0.00865656
0.00966573
0.0109377
0.0125663
0.0146963
0.0175305
0.0214026
0.0267182
0.0344051
0.0453573
0.0627087
0.0884386
0.130976
0.186825
0.221536
0.234698
0.238639
0.240293
0.241518
0.242567
0.243552
0.00583321
0.00715642
0.00638452
0.00446809
0.00313657
0.00234237
0.00183766
0.00149001
0.00123541
0.00104038
0.000884587
0.000756327
0.000645156
0.000542918
0.00043868
0.000325457
0.000185343
7.26355e-05
0.000113019
0.00129847
0.00295712
0.00830009
0.0151192
0.021081
0.0257807
0.0293927
0.0322552
0.0347425
0.0371131
0.0040557
0.00446459
0.00424706
0.00349872
0.00272219
0.00212272
0.00168601
0.00136387
0.0011225
0.000937948
0.00079619
0.000687126
0.000604335
0.000541326
0.000494073
0.000459246
0.000434777
0.000416879
0.000406316
0.000396896
0.00040279
0.000306698
0.000797165
0.00202956
0.00340316
0.00491167
0.00734758
0.0106607
0.0142953
0.00268417
0.00299085
0.00316905
0.00308231
0.00273191
0.00229105
0.00189364
0.0015749
0.0013268
0.00113414
0.00098277
0.000863018
0.000767342
0.000690448
0.000627397
0.000575246
0.000530998
0.000491947
0.00045412
0.00041791
0.000387949
0.00036483
0.000347672
0.000328747
0.000305553
0.000263559
0.00020871
0.000577704
0.000760861
0.00145473
0.0021672
0.00233681
0.00242975
0.00238884
0.00220563
0.00194541
0.00167737
0.00143631
0.00123105
0.00106
0.000918193
0.000800816
0.000703769
0.000623734
0.00055752
0.00050271
0.000456851
0.000417551
0.000381157
0.000345834
0.000313545
0.00028715
0.000267937
0.000258181
0.000246279
0.000270894
0.000131361
0.000334999
0.000725647
0.00115182
0.00167236
0.0017942
0.0018974
0.00195256
0.00193046
0.00182479
0.00166322
0.00148166
0.00130505
0.0011453
0.00100619
0.000887422
0.000787065
0.000702807
0.000632291
0.000573117
0.000523127
0.000480113
0.000441884
0.000405658
0.000370124
0.000337006
0.000307846
0.000282862
0.000261389
0.000243095
0.0002271
0.000212384
0.000190171
0.000159722
2.293e-05
0.00143479
0.00151694
0.00158485
0.00162036
0.00160713
0.00154199
0.00143753
0.00131258
0.00118292
0.00105848
0.000944427
0.000842613
0.000753108
0.000675283
0.00060809
0.000550157
0.00050013
0.000456497
0.000417571
0.000381179
0.000346003
0.000313025
0.000283554
0.000257949
0.000235846
0.000217199
0.000202697
0.000192979
0.000187171
0.000178298
0.00015506
0.00124698
0.00130455
0.00135164
0.00137586
0.00136748
0.00132517
0.00125493
0.00116717
0.00107161
0.000975511
0.000883684
0.00079877
0.000721864
0.000653361
0.000593023
0.000540149
0.000493795
0.000452821
0.000415858
0.000381225
0.000347916
0.000316637
0.00028836
0.000263264
0.000240842
0.000220654
0.00020261
0.000186477
0.000172006
0.000159003
0.00014992
0.00104972
0.00109557
0.00113745
0.00117136
0.00118858
0.00118309
0.00115442
0.0011057
0.00104285
0.000971855
0.000897682
0.000824125
0.000753677
0.000687834
0.000627427
0.000572743
0.000523644
0.00047968
0.000440121
0.000403979
0.000370071
0.000337641
0.000307106
0.000279295
0.000254471
0.000232318
0.000212532
0.000195132
0.000180436
0.000168805
0.000160559
0.000156046
0.000971488
0.00100288
0.001028
0.00104059
0.00103694
0.00101687
0.000982129
0.000936286
0.000883023
0.00082562
0.000766922
0.000708998
0.000653279
0.000600831
0.0005522
0.000507599
0.000466922
0.000429753
0.000395426
0.000363139
0.000332323
0.000303287
0.000276689
0.000252761
0.000231228
0.000211767
0.000194282
0.000178802
0.000165293
0.000154247
0.000146063
0.000892358
0.000911379
0.000920789
0.000918333
0.000903913
0.00087855
0.00084451
0.000804141
0.00075958
0.000712793
0.000665374
0.00061854
0.00057329
0.000530322
0.000490022
0.000452495
0.0004176
0.000384952
0.000354037
0.000324515
0.000296634
0.00027091
0.000247587
0.000226498
0.00020742
0.000190318
0.000175335
0.000162689
0.000152898
0.00014625
0.000814718
0.000821895
0.00082021
0.000809587
0.000790705
0.000765048
0.000734133
0.00069932
0.000662004
0.000623312
0.000584167
0.000545451
0.000507812
0.000471752
0.000437534
0.00040519
0.000374516
0.000345238
0.000317235
0.000290715
0.000266102
0.000243625
0.000223187
0.000204609
0.00018784
0.000172978
0.000160129
0.000149748
0.000142325
0.000738904
0.000737719
0.000729746
0.000715441
0.000695808
0.000671874
0.000644539
0.000614693
0.000583137
0.000550547
0.000517615
0.000484902
0.000452885
0.000421899
0.000392089
0.000363422
0.000335819
0.000309297
0.000284082
0.000260518
0.000238834
0.000218996
0.000200883
0.000184473
0.000169897
0.000157323
0.000147212
0.00014005
0.000667439
0.000661338
0.000650317
0.000635107
0.000616401
0.000594774
0.000570845
0.000545114
0.000518038
0.000490144
0.000461884
0.000433667
0.00040582
0.000378564
0.000351979
0.00032614
0.000301172
0.000277309
0.000254864
0.000234053
0.000214889
0.000197301
0.000181284
0.000166967
0.000154492
0.000144291
0.000136857
0.000602123
0.000593515
0.000581574
0.000566802
0.000549581
0.000530303
0.0005093
0.000486849
0.000463299
0.000438989
0.000414255
0.000389407
0.000364679
0.000340205
0.000316129
0.000292693
0.000270179
0.000248858
0.000228932
0.000210455
0.000193399
0.000177783
0.000163744
0.00015144
0.000141296
0.000133788
0.000550396
0.000543573
0.0005341
0.000522331
0.000508512
0.000492917
0.000475718
0.000457093
0.000437254
0.000416429
0.000394867
0.000372821
0.000350517
0.000328118
0.000305838
0.000283967
0.000262813
0.00024263
0.000223617
0.000205857
0.000189362
0.000174167
0.000160415
0.000148259
0.000138109
0.000130424
0.000499388
0.000491777
0.000482302
0.00047114
0.00045845
0.000444337
0.000428869
0.000412179
0.000394389
0.000375673
0.000356221
0.000336216
0.000315832
0.000295313
0.000274995
0.000255185
0.000236143
0.000218059
0.000201034
0.000185115
0.000170354
0.000156896
0.000144899
0.000134759
0.000126919
0.000460044
0.000453867
0.000446174
0.00043708
0.000426699
0.000415068
0.000402201
0.000388157
0.000372989
0.000356791
0.000339701
0.000321868
0.000303435
0.00028463
0.000265811
0.000247333
0.000229434
0.000212289
0.000196018
0.000180691
0.000166377
0.000153219
0.000141379
0.000131233
0.000123209
0.000419759
0.000413452
0.000405988
0.000397438
0.000387814
0.000377084
0.000365254
0.000352333
0.000338359
0.000323396
0.000307549
0.000290939
0.000273797
0.000256472
0.000239303
0.000222528
0.000206321
0.00019081
0.000176084
0.000162224
0.00014937
0.000137689
0.000127532
0.000119313
0.000388947
0.000383724
0.000377551
0.000370468
0.00036246
0.000353484
0.000343509
0.000332499
0.000320451
0.000307394
0.000293376
0.000278477
0.00026291
0.000247014
0.000231113
0.000215443
0.00020017
0.000185425
0.000171308
0.00015791
0.000145365
0.000133842
0.000123664
0.000115232
0.000361007
0.000356644
0.000351495
0.000345588
0.000338891
0.000331349
0.000322918
0.000313535
0.00030316
0.000291776
0.000279408
0.000266102
0.000252022
0.000237478
0.000222799
0.00020821
0.000193861
0.000179881
0.000166376
0.000153444
0.000141209
0.000129841
0.00011963
0.000110967
0.000331915
0.00032758
0.000322613
0.000316983
0.000310621
0.00030347
0.000295458
0.000286522
0.000276618
0.000265727
0.000253865
0.000241167
0.000227915
0.000214413
0.000200867
0.000187422
0.000174197
0.000161302
0.000148836
0.000136914
0.000125696
0.000115441
0.000106526
0.000309268
0.000305592
0.000301389
0.00029662
0.000291225
0.000285142
0.000278284
0.000270578
0.000261962
0.000252388
0.000241839
0.000230421
0.000218378
0.000205993
0.000193446
0.000180876
0.000168395
0.000156108
0.000144108
0.000132498
0.000121425
0.000111112
0.000101923
0.000285344
0.000281752
0.000277689
0.000273091
0.000267893
0.000262008
0.000255355
0.000247858
0.000239448
0.000230083
0.000219833
0.000208911
0.000197568
0.000185981
0.000174258
0.000162504
0.000150816
0.000139279
0.00012798
0.00011705
0.000106668
9.7175e-05
0.000266665
0.000263577
0.000260088
0.000256143
0.000251681
0.000246616
0.000240856
0.000234323
0.000226934
0.000218629
0.000209444
0.000199562
0.000189197
0.000178515
0.000167602
0.000156554
0.000145453
0.000134373
0.000123386
0.000112595
0.000102134
9.23052e-05
0.000249412
0.000246733
0.000243718
0.000240315
0.000236461
0.000232083
0.000227087
0.000221386
0.000214888
0.000207517
0.000199291
0.000190358
0.000180909
0.000171075
0.000160938
0.000150571
0.000140043
0.000129417
0.000118741
0.000108087
9.754e-05
8.73439e-05
0.000231111
0.000228485
0.000225529
0.000222189
0.000218386
0.000214035
0.000209049
0.000203331
0.00019679
0.000189428
0.000181359
0.000172751
0.000163713
0.000154307
0.000144593
0.000134624
0.000124445
0.00011408
0.000103566
9.29304e-05
8.23338e-05
0.000216614
0.000214309
0.000211725
0.000208809
0.000205491
0.000201689
0.000197315
0.000192272
0.000186463
0.000179871
0.000172588
0.000164751
0.000156452
0.000147738
0.000138649
0.000129225
0.000119488
0.000109438
9.90764e-05
8.83575e-05
7.73321e-05
0.000203146
0.000201109
0.000198834
0.000196275
0.000193366
0.00019003
0.000186183
0.000181725
0.000176558
0.000170652
0.000164074
0.000156946
0.000149333
0.000141269
0.000132778
0.000123881
0.000114583
0.000104858
9.46635e-05
8.38806e-05
7.24142e-05
0.000188813
0.000186798
0.00018454
0.000181977
0.000179037
0.000175641
0.00017169
0.000167086
0.00016179
0.000155852
0.000149366
0.000142388
0.000134932
0.000127011
0.000118626
0.000109766
0.000100378
9.0379e-05
7.95738e-05
6.76865e-05
0.00017736
0.000175562
0.000173557
0.000171287
0.000168685
0.000165676
0.000162168
0.000158058
0.000153301
0.000147936
0.000142036
0.000135643
0.000128759
0.000121379
0.000113494
0.000105074
9.60441e-05
8.62815e-05
7.55207e-05
6.32871e-05
0.000165073
0.000163283
0.000161262
0.000158951
0.000156278
0.000153151
0.000149475
0.000145198
0.000140346
0.00013498
0.000129126
0.000122776
0.000115915
0.000108519
0.000100544
9.18965e-05
8.24241e-05
7.18054e-05
5.9385e-05
0.000155282
0.000153676
0.000151869
0.000149807
0.00014742
0.000144628
0.000141334
0.000137484
0.000133095
0.000128214
0.000122857
0.000117009
0.000110644
0.000103729
9.62065e-05
8.79735e-05
7.88585e-05
6.85126e-05
5.61664e-05
0.00014614
0.000144692
0.000143071
0.000141225
0.000139093
0.000136592
0.000133632
0.000130161
0.000126188
0.000121751
0.000116856
0.000111479
0.00010559
9.9147e-05
9.2089e-05
8.4307e-05
7.56253e-05
6.57039e-05
5.37823e-05
0.000136298
0.000134838
0.000133179
0.000131266
0.000129022
0.000126362
0.000123231
0.000119634
0.000115601
0.000111132
0.0001062
0.00010077
9.47957e-05
8.8213e-05
8.09189e-05
7.27493e-05
6.34093e-05
5.22845e-05
0.000128455
0.000127135
0.000125642
0.000123923
0.000121906
0.000119511
0.000116685
0.000113429
0.000109768
0.000105696
0.000101184
9.61963e-05
9.06851e-05
8.45892e-05
7.78163e-05
7.02304e-05
6.16109e-05
5.15805e-05
0.000121127
0.000119933
0.000118586
0.000117037
0.000115223
0.000113066
0.000110516
0.000107572
0.000104251
0.00010055
9.64362e-05
9.1875e-05
8.68207e-05
8.122e-05
7.49953e-05
6.80485e-05
6.02491e-05
5.14681e-05
0.0001132
0.000111984
0.000110589
0.000108956
0.000107013
0.000104712
0.000102051
9.90471e-05
9.56921e-05
9.19566e-05
8.78062e-05
8.32022e-05
7.80982e-05
7.24382e-05
6.61633e-05
5.92301e-05
5.17079e-05
0.000106908
0.000105809
0.000104553
0.000103083
0.000101333
9.92601e-05
9.68605e-05
9.41486e-05
9.11172e-05
8.77392e-05
8.3984e-05
7.9819e-05
7.52076e-05
7.01148e-05
6.45193e-05
5.84471e-05
0.000101028
0.000100035
9.89033e-05
9.75816e-05
9.60089e-05
9.41439e-05
9.19846e-05
8.95436e-05
8.68153e-05
8.37755e-05
8.03979e-05
7.66563e-05
7.25259e-05
6.79897e-05
6.30562e-05
5.77988e-05
9.46368e-05
9.36186e-05
9.24314e-05
9.10196e-05
8.93454e-05
8.74074e-05
8.52188e-05
8.27735e-05
8.00518e-05
7.70321e-05
7.36951e-05
7.00259e-05
6.60224e-05
6.17142e-05
5.71999e-05
8.95886e-05
8.86736e-05
8.76096e-05
8.63458e-05
8.48472e-05
8.31135e-05
8.11577e-05
7.89759e-05
7.65519e-05
7.38689e-05
7.09137e-05
6.76794e-05
6.41748e-05
6.04418e-05
5.6586e-05
8.4865e-05
8.40462e-05
8.30957e-05
8.19665e-05
8.06288e-05
7.90835e-05
7.73434e-05
7.54063e-05
7.32589e-05
7.08893e-05
6.82892e-05
6.54582e-05
6.24118e-05
5.91965e-05
5.59135e-05
7.97137e-05
7.88654e-05
7.78607e-05
7.66717e-05
7.52996e-05
7.37579e-05
7.20459e-05
7.01537e-05
6.8073e-05
6.57995e-05
6.3337e-05
6.07043e-05
5.79473e-05
5.51559e-05
7.56535e-05
7.4901e-05
7.40101e-05
7.29566e-05
7.17433e-05
7.03832e-05
6.88775e-05
6.72191e-05
6.54021e-05
6.34252e-05
6.12948e-05
5.90303e-05
5.66735e-05
5.43007e-05
7.1847e-05
7.11809e-05
7.03935e-05
6.94643e-05
6.83964e-05
6.72024e-05
6.58846e-05
6.4438e-05
6.28593e-05
6.11489e-05
5.93141e-05
5.73736e-05
5.53633e-05
5.33449e-05
6.76872e-05
6.69949e-05
6.61785e-05
6.52426e-05
6.41992e-05
6.30511e-05
6.17953e-05
6.043e-05
5.89566e-05
5.73825e-05
5.57243e-05
5.40118e-05
5.2293e-05
6.44027e-05
6.37964e-05
6.30827e-05
6.22662e-05
6.13585e-05
6.03629e-05
5.92775e-05
5.81016e-05
5.68371e-05
5.54909e-05
5.40769e-05
5.26187e-05
5.11532e-05
6.1311e-05
6.0783e-05
6.0162e-05
5.94528e-05
5.86664e-05
5.78067e-05
5.68723e-05
5.58631e-05
5.47815e-05
5.3633e-05
5.24289e-05
5.11874e-05
4.99358e-05
5.83976e-05
5.79395e-05
5.74015e-05
5.67882e-05
5.61101e-05
5.53705e-05
5.45687e-05
5.37054e-05
5.27823e-05
5.18042e-05
5.07797e-05
4.97223e-05
4.86517e-05
5.52517e-05
5.47878e-05
5.42594e-05
5.36761e-05
5.30417e-05
5.23559e-05
5.16189e-05
5.08325e-05
5.00005e-05
4.9129e-05
4.82277e-05
4.73105e-05
5.27052e-05
5.23059e-05
5.18517e-05
5.13515e-05
5.08084e-05
5.02226e-05
4.95942e-05
4.89249e-05
4.82173e-05
4.74757e-05
4.67067e-05
4.59197e-05
5.02846e-05
4.99413e-05
4.95511e-05
4.91222e-05
4.86575e-05
4.81571e-05
4.76216e-05
4.70518e-05
4.64496e-05
4.5818e-05
4.51612e-05
4.79743e-05
4.76784e-05
4.73425e-05
4.69742e-05
4.6576e-05
4.61482e-05
4.56912e-05
4.52057e-05
4.46927e-05
4.4154e-05
4.35923e-05
4.55027e-05
4.52126e-05
4.48953e-05
4.45532e-05
4.41866e-05
4.3796e-05
4.33817e-05
4.29441e-05
4.24843e-05
4.20033e-05
4.34035e-05
4.31518e-05
4.28775e-05
4.2583e-05
4.22684e-05
4.19342e-05
4.15803e-05
4.12069e-05
4.08141e-05
4.04021e-05
4.13758e-05
4.11571e-05
4.092e-05
4.06666e-05
4.0397e-05
4.01112e-05
3.98091e-05
3.94906e-05
3.91552e-05
3.88024e-05
3.94225e-05
3.92334e-05
3.90295e-05
3.88124e-05
3.85821e-05
3.83385e-05
3.80813e-05
3.78101e-05
3.75241e-05
3.72223e-05
3.75523e-05
3.73904e-05
3.72164e-05
3.70316e-05
3.68358e-05
3.66289e-05
3.64104e-05
3.61797e-05
3.59359e-05
3.56778e-05
3.56348e-05
3.54868e-05
3.53297e-05
3.51632e-05
3.4987e-05
3.48008e-05
3.4604e-05
3.43955e-05
3.41741e-05
3.39618e-05
3.38343e-05
3.36987e-05
3.35549e-05
3.34029e-05
3.32423e-05
3.30726e-05
3.28928e-05
3.27019e-05
3.23523e-05
3.22379e-05
3.21165e-05
3.19884e-05
3.18536e-05
3.17119e-05
3.15629e-05
3.14059e-05
3.07786e-05
3.06705e-05
3.05569e-05
3.04382e-05
3.03149e-05
3.01868e-05
3.00536e-05
2.99145e-05
2.92217e-05
2.91148e-05
2.90045e-05
2.88913e-05
2.87756e-05
2.86572e-05
2.85359e-05
2.84114e-05
2.76817e-05
2.7574e-05
2.7465e-05
2.73552e-05
2.7245e-05
2.7134e-05
2.70224e-05
2.69099e-05
2.60665e-05
2.59579e-05
2.58501e-05
2.57435e-05
2.56379e-05
2.55341e-05
2.54311e-05
2.46372e-05
2.4528e-05
2.4421e-05
2.43162e-05
2.42146e-05
2.41162e-05
2.40202e-05
2.34072e-05
2.32968e-05
2.31887e-05
2.30835e-05
2.29824e-05
2.2885e-05
2.27918e-05
2.23815e-05
2.22711e-05
2.21621e-05
2.20561e-05
2.19532e-05
2.18542e-05
2.17603e-05
2.14164e-05
2.13074e-05
2.11991e-05
2.10926e-05
2.09882e-05
2.08876e-05
2.07914e-05
2.04536e-05
2.03436e-05
2.02333e-05
2.01236e-05
2.00161e-05
1.99126e-05
1.98133e-05
1.95155e-05
1.9398e-05
1.92771e-05
1.91542e-05
1.90323e-05
1.89135e-05
1.85568e-05
1.84237e-05
1.82855e-05
1.81436e-05
1.80006e-05
1.78581e-05
1.74177e-05
1.72224e-05
1.70208e-05
1.68183e-05
1.66207e-05
1.64328e-05
1.57374e-05
1.54183e-05
1.50773e-05
1.47205e-05
1.43553e-05
1.39592e-05
1.35991e-05
1.32588e-05
1.29541e-05
1.27015e-05
1.38761e-05
1.36453e-05
1.34684e-05
1.33438e-05
1.32656e-05
1.87953e-05
1.94793e-05
2.01222e-05
2.07147e-05
2.12486e-05
2.89533e-05
2.9197e-05
2.93884e-05
2.95298e-05
2.96286e-05
4.03711e-05
4.06285e-05
4.08166e-05
4.09399e-05
4.10109e-05
)
;

boundaryField
{
    inlet
    {
        type            calculated;
        value           nonuniform List<scalar> 5(7.09803e-05 7.19587e-05 7.28281e-05 7.3594e-05 7.42613e-05);
    }
    outlet
    {
        type            calculated;
        value           nonuniform List<scalar> 0();
    }
    walls
    {
        type            calculated;
        value           uniform 0;
    }
    frontAndBack
    {
        type            empty;
    }
    procBoundary1to0
    {
        type            processor;
        value           nonuniform List<scalar> 
94
(
0.000936858
0.000936858
0.000868264
0.000868264
0.000800056
0.000800056
0.000733352
0.000733352
0.000668305
0.000668305
0.000606877
0.000606877
0.000554164
0.000504866
0.000504866
0.000464502
0.000424833
0.000424833
0.000393158
0.000364547
0.0003356
0.0003356
0.000312412
0.000288496
0.000288496
0.000269387
0.000251789
0.000233458
0.000233458
0.000218682
0.000204986
0.000190628
0.000190628
0.000178988
0.000166684
0.000166684
0.000156733
0.000147457
0.000137607
0.000137607
0.000129642
0.000122208
0.000114283
0.000114283
0.00010789
0.000101919
9.55319e-05
9.55319e-05
9.03956e-05
8.55907e-05
8.04459e-05
8.04459e-05
7.6305e-05
7.24245e-05
6.82737e-05
6.82737e-05
6.49166e-05
6.17593e-05
5.87867e-05
5.56469e-05
5.56469e-05
5.30455e-05
5.05768e-05
4.82261e-05
4.57589e-05
4.57589e-05
4.36265e-05
4.15704e-05
3.95917e-05
3.76976e-05
3.57724e-05
3.57724e-05
3.40802e-05
3.24585e-05
3.088e-05
2.93232e-05
2.77855e-05
2.61754e-05
2.61754e-05
2.47481e-05
2.35202e-05
2.24931e-05
2.15249e-05
2.05621e-05
1.96284e-05
1.86831e-05
1.76007e-05
1.603e-05
1.603e-05
1.43267e-05
1.41564e-05
1.80636e-05
2.8668e-05
4.00357e-05
)
;
    }
    procBoundary1to2
    {
        type            processor;
        value           nonuniform List<scalar> 
84
(
0.244662
0.0396024
0.0179013
0.00339476
0.00106566
0.000410559
5.5871e-05
0.000143863
0.000157777
0.000145228
0.000146268
0.000141065
0.000138542
0.000134816
0.000131375
0.000127544
0.000123588
0.000119402
0.000115025
0.000110447
0.000105673
0.000100704
9.55464e-05
9.02087e-05
8.46963e-05
7.90214e-05
7.31999e-05
6.72562e-05
6.12325e-05
5.52137e-05
4.93713e-05
4.4067e-05
3.99758e-05
3.7941e-05
3.81869e-05
3.99207e-05
4.21689e-05
4.43561e-05
5.20901e-05
5.20901e-05
5.24625e-05
5.27284e-05
5.28341e-05
5.27549e-05
5.24858e-05
5.20337e-05
5.1412e-05
5.06381e-05
4.97316e-05
4.87107e-05
4.75934e-05
4.63942e-05
4.51251e-05
4.44849e-05
4.44849e-05
4.30104e-05
4.15025e-05
3.9971e-05
3.84315e-05
3.69035e-05
3.54037e-05
3.39381e-05
3.2498e-05
3.12397e-05
3.12397e-05
2.97688e-05
2.82824e-05
2.67952e-05
2.53282e-05
2.3927e-05
2.27028e-05
2.16706e-05
2.06992e-05
1.97189e-05
1.87996e-05
1.87996e-05
1.7718e-05
1.62592e-05
1.39909e-05
1.25141e-05
1.32195e-05
2.17158e-05
2.96961e-05
4.10405e-05
)
;
    }
    procBoundary1to5
    {
        type            processor;
        value           nonuniform List<scalar> 
13
(
0.0101837
0.0101837
0.00439747
0.00342267
0.00342267
0.00237231
0.00197619
0.00197619
0.00155022
0.00134885
0.00118506
0.00118506
0.0010028
)
;
    }
}


// ************************************************************************* //
