/*--------------------------------*- C++ -*----------------------------------*\
| =========                 |                                                 |
| \\      /  F ield         | OpenFOAM: The Open Source CFD Toolbox           |
|  \\    /   O peration     | Version:  2506                                  |
|   \\  /    A nd           | Website:  www.openfoam.com                      |
|    \\/     M anipulation  |                                                 |
\*---------------------------------------------------------------------------*/
FoamFile
{
    version     2.0;
    format      ascii;
    arch        "LSB;label=32;scalar=64";
    class       pointScalarField;
    location    "42";
    object      streamFunction;
}
// * * * * * * * * * * * * * * * * * * * * * * * * * * * * * * * * * * * * * //

dimensions      [0 3 -1 0 0 0 0];

internalField   nonuniform List<scalar> 
882
(
0
0
0
0
0
0
0
0
0
0
0
0
0
0
0
0
0
0
0
0
0
0
0.000153954
0.000289037
0.00030428
0.000178206
-0.000124276
-0.000666284
-0.0014794
-0.00247773
-0.00346177
-0.00419994
-0.00452531
-0.00434075
-0.00358925
-0.00238367
-0.000952611
0.00033077
0.0010748
0.00102414
0.000457936
0
0
0.000275346
0.000357121
1.473e-06
-0.000901654
-0.00243206
-0.00457362
-0.00711049
-0.00964607
-0.0117568
-0.0131008
-0.0134639
-0.0127259
-0.010861
-0.0080144
-0.00455762
-0.00116688
0.00124117
0.0018734
0.000979763
0
0
0.000145132
-0.000278845
-0.00161965
-0.00402802
-0.00746019
-0.0116044
-0.0159316
-0.0198653
-0.0229293
-0.0247742
-0.0251348
-0.0239429
-0.0211531
-0.0168561
-0.0114031
-0.00555853
-0.000636517
0.00178277
0.00127259
0
0
-0.000353904
-0.00183158
-0.00472051
-0.00907588
-0.0145973
-0.0206678
-0.0265567
-0.0316439
-0.0354808
-0.037753
-0.0381811
-0.0367538
-0.0333881
-0.0280727
-0.0210275
-0.0128924
-0.00501939
0.000406462
0.0013915
0
0
-0.00120991
-0.00417621
-0.0089216
-0.0153091
-0.0227601
-0.0304359
-0.0375281
-0.0434424
-0.0477919
-0.0503354
-0.0508841
-0.049415
-0.0458354
-0.0400543
-0.0321048
-0.0223389
-0.0118106
-0.00280391
0.00112927
0
0
-0.00228715
-0.00693701
-0.0135611
-0.0217929
-0.0308313
-0.0397058
-0.0476028
-0.0539924
-0.0585782
-0.0612197
-0.0618499
-0.0604349
-0.0568968
-0.0511146
-0.0429665
-0.0324763
-0.0202047
-0.00802265
-2.5148e-05
0
0
-0.00338661
-0.00967003
-0.0179782
-0.0277344
-0.0379774
-0.0476738
-0.0560457
-0.06265
-0.0672944
-0.0699367
-0.0705944
-0.0692534
-0.0658553
-0.06029
-0.0523771
-0.0419066
-0.028919
-0.0145305
-0.00243657
0
0
-0.00431205
-0.0119946
-0.021679
-0.0326052
-0.043711
-0.0539447
-0.0625845
-0.0692779
-0.0739296
-0.0765724
-0.0772611
-0.0759998
-0.0727517
-0.0674369
-0.0598908
-0.0498093
-0.0368199
-0.0212215
-0.00600475
0
0
-0.00492945
-0.0136649
-0.0243743
-0.0361326
-0.0478216
-0.0583987
-0.0672002
-0.073952
-0.0786323
-0.0813189
-0.0820776
-0.0809199
-0.0778192
-0.0727249
-0.0655273
-0.0559337
-0.0433491
-0.0273287
-0.00991372
0
0
-0.00515823
-0.0145481
-0.0259235
-0.0382065
-0.0502505
-0.0610367
-0.0699493
-0.0767676
-0.0815153
-0.0842929
-0.0851695
-0.0841565
-0.081228
-0.0763464
-0.0694541
-0.0603398
-0.048352
-0.0324392
-0.0134633
0
0
-0.00499521
-0.0146157
-0.026321
-0.0388523
-0.0510483
-0.0619212
-0.0708948
-0.0777806
-0.082619
-0.0855184
-0.0865502
-0.0857278
-0.0830246
-0.0784016
-0.0718301
-0.0631928
-0.0518997
-0.0364582
-0.016485
0
0
-0.0044985
-0.0139221
-0.0255842
-0.0380793
-0.0502294
-0.0610724
-0.0700524
-0.0769892
-0.0819217
-0.0849561
-0.086168
-0.0855772
-0.0831593
-0.0788823
-0.0727226
-0.06461
-0.0541015
-0.0394135
-0.0189467
0
0
-0.00374944
-0.0125795
-0.0238511
-0.036018
-0.0478956
-0.0585526
-0.0674422
-0.0743736
-0.079371
-0.0825322
-0.0839394
-0.0836263
-0.0815691
-0.0777408
-0.0721234
-0.0647
-0.055066
-0.0413415
-0.0208761
0
0
-0.00288766
-0.0107855
-0.0213201
-0.0328493
-0.0441816
-0.0544298
-0.0630637
-0.0698787
-0.0748751
-0.0781345
-0.0797403
-0.0797539
-0.0781381
-0.0748879
-0.069986
-0.0633986
-0.0548141
-0.0423131
-0.0223097
0
0
-0.00209001
-0.00885023
-0.0183492
-0.0289104
-0.0393698
-0.0489069
-0.0570314
-0.0635361
-0.0683993
-0.0716833
-0.0734713
-0.0738301
-0.0727499
-0.0702223
-0.0662378
-0.0607348
-0.0534449
-0.0424792
-0.0232314
0
0
-0.00151906
-0.00710867
-0.0152787
-0.0244968
-0.0336965
-0.0421561
-0.0494513
-0.0553876
-0.0599305
-0.0631244
-0.065045
-0.0657609
-0.0653053
-0.0636535
-0.0608091
-0.0566695
-0.0508987
-0.0415411
-0.0233846
0
0
-0.00137073
-0.00608306
-0.0127864
-0.0202927
-0.0277793
-0.0347119
-0.0407691
-0.0457862
-0.0497336
-0.0526428
-0.0545832
-0.0556172
-0.05582
-0.0551506
-0.0536188
-0.051072
-0.0470158
-0.0393174
-0.022738
0
0
-0.00188525
-0.00588753
-0.0110472
-0.0165029
-0.021846
-0.0268276
-0.0312627
-0.0350281
-0.0381115
-0.0405272
-0.0423401
-0.043592
-0.0443366
-0.0445581
-0.0442624
-0.0432278
-0.0407743
-0.0348745
-0.0206881
0
0
-0.00606156
-0.00952796
-0.0123006
-0.0149687
-0.0175838
-0.0200416
-0.0222694
-0.0242034
-0.0258492
-0.0271937
-0.0282846
-0.0291192
-0.0297623
-0.0301877
-0.0304107
-0.0301946
-0.0288687
-0.0247688
-0.015053
0
0
0
0
0
0
0
0
0
0
0
0
0
0
0
0
0
0
0
0
0
0
0
0
0
0
0
0
0
0
0
0
0
0
0
0
0
0
0
0
0
0
0
0
0.000153954
0.000289037
0.00030428
0.000178206
-0.000124276
-0.000666284
-0.0014794
-0.00247773
-0.00346177
-0.00419994
-0.00452531
-0.00434075
-0.00358925
-0.00238367
-0.000952611
0.00033077
0.0010748
0.00102414
0.000457936
0
0
0.000275346
0.000357121
1.473e-06
-0.000901654
-0.00243206
-0.00457362
-0.00711049
-0.00964607
-0.0117568
-0.0131008
-0.0134639
-0.0127259
-0.010861
-0.0080144
-0.00455762
-0.00116688
0.00124117
0.0018734
0.000979763
0
0
0.000145132
-0.000278845
-0.00161965
-0.00402802
-0.00746019
-0.0116044
-0.0159316
-0.0198653
-0.0229293
-0.0247742
-0.0251348
-0.0239429
-0.0211531
-0.0168561
-0.0114031
-0.00555853
-0.000636517
0.00178277
0.00127259
0
0
-0.000353904
-0.00183158
-0.00472051
-0.00907588
-0.0145973
-0.0206678
-0.0265567
-0.0316439
-0.0354808
-0.037753
-0.0381811
-0.0367538
-0.0333881
-0.0280727
-0.0210275
-0.0128924
-0.00501939
0.000406462
0.0013915
0
0
-0.00120991
-0.00417621
-0.0089216
-0.0153091
-0.0227601
-0.0304359
-0.0375281
-0.0434424
-0.0477919
-0.0503354
-0.0508841
-0.049415
-0.0458354
-0.0400543
-0.0321048
-0.0223389
-0.0118106
-0.00280391
0.00112927
0
0
-0.00228715
-0.00693701
-0.0135611
-0.0217929
-0.0308313
-0.0397058
-0.0476028
-0.0539924
-0.0585782
-0.0612197
-0.0618499
-0.0604349
-0.0568968
-0.0511146
-0.0429665
-0.0324763
-0.0202047
-0.00802265
-2.5148e-05
0
0
-0.00338661
-0.00967003
-0.0179782
-0.0277344
-0.0379774
-0.0476738
-0.0560457
-0.06265
-0.0672944
-0.0699367
-0.0705944
-0.0692534
-0.0658553
-0.06029
-0.0523771
-0.0419066
-0.028919
-0.0145305
-0.00243657
0
0
-0.00431205
-0.0119946
-0.021679
-0.0326052
-0.043711
-0.0539447
-0.0625845
-0.0692779
-0.0739296
-0.0765724
-0.0772611
-0.0759998
-0.0727517
-0.0674369
-0.0598908
-0.0498093
-0.0368199
-0.0212215
-0.00600475
0
0
-0.00492945
-0.0136649
-0.0243743
-0.0361326
-0.0478216
-0.0583987
-0.0672002
-0.073952
-0.0786323
-0.0813189
-0.0820776
-0.0809199
-0.0778192
-0.0727249
-0.0655273
-0.0559337
-0.0433491
-0.0273287
-0.00991372
0
0
-0.00515823
-0.0145481
-0.0259235
-0.0382065
-0.0502505
-0.0610367
-0.0699493
-0.0767676
-0.0815153
-0.0842929
-0.0851695
-0.0841565
-0.081228
-0.0763464
-0.0694541
-0.0603398
-0.048352
-0.0324392
-0.0134633
0
0
-0.00499521
-0.0146157
-0.026321
-0.0388523
-0.0510483
-0.0619212
-0.0708948
-0.0777806
-0.082619
-0.0855184
-0.0865502
-0.0857278
-0.0830246
-0.0784016
-0.0718301
-0.0631928
-0.0518997
-0.0364582
-0.016485
0
0
-0.0044985
-0.0139221
-0.0255842
-0.0380793
-0.0502294
-0.0610724
-0.0700524
-0.0769892
-0.0819217
-0.0849561
-0.086168
-0.0855772
-0.0831593
-0.0788823
-0.0727226
-0.06461
-0.0541015
-0.0394135
-0.0189467
0
0
-0.00374944
-0.0125795
-0.0238511
-0.036018
-0.0478956
-0.0585526
-0.0674422
-0.0743736
-0.079371
-0.0825322
-0.0839394
-0.0836263
-0.0815691
-0.0777408
-0.0721234
-0.0647
-0.055066
-0.0413415
-0.0208761
0
0
-0.00288766
-0.0107855
-0.0213201
-0.0328493
-0.0441816
-0.0544298
-0.0630637
-0.0698787
-0.0748751
-0.0781345
-0.0797403
-0.0797539
-0.0781381
-0.0748879
-0.069986
-0.0633986
-0.0548141
-0.0423131
-0.0223097
0
0
-0.00209001
-0.00885023
-0.0183492
-0.0289104
-0.0393698
-0.0489069
-0.0570314
-0.0635361
-0.0683993
-0.0716833
-0.0734713
-0.0738301
-0.0727499
-0.0702223
-0.0662378
-0.0607348
-0.0534449
-0.0424792
-0.0232314
0
0
-0.00151906
-0.00710867
-0.0152787
-0.0244968
-0.0336965
-0.0421561
-0.0494513
-0.0553876
-0.0599305
-0.0631244
-0.065045
-0.0657609
-0.0653053
-0.0636535
-0.0608091
-0.0566695
-0.0508987
-0.0415411
-0.0233846
0
0
-0.00137073
-0.00608306
-0.0127864
-0.0202927
-0.0277793
-0.0347119
-0.0407691
-0.0457862
-0.0497336
-0.0526428
-0.0545832
-0.0556172
-0.05582
-0.0551506
-0.0536188
-0.051072
-0.0470158
-0.0393174
-0.022738
0
0
-0.00188525
-0.00588753
-0.0110472
-0.0165029
-0.021846
-0.0268276
-0.0312627
-0.0350281
-0.0381115
-0.0405272
-0.0423401
-0.043592
-0.0443366
-0.0445581
-0.0442624
-0.0432278
-0.0407743
-0.0348745
-0.0206881
0
0
-0.00606156
-0.00952796
-0.0123006
-0.0149687
-0.0175838
-0.0200416
-0.0222694
-0.0242034
-0.0258492
-0.0271937
-0.0282846
-0.0291192
-0.0297623
-0.0301877
-0.0304107
-0.0301946
-0.0288687
-0.0247688
-0.015053
0
0
0
0
0
0
0
0
0
0
0
0
0
0
0
0
0
0
0
0
0
0
)
;

boundaryField
{
    movingWall
    {
        type            calculated;
    }
    fixedWalls
    {
        type            calculated;
    }
    frontAndBack
    {
        type            empty;
    }
}


// ************************************************************************* //
