/*--------------------------------*- C++ -*----------------------------------*\
| =========                 |                                                 |
| \\      /  F ield         | OpenFOAM: The Open Source CFD Toolbox           |
|  \\    /   O peration     | Version:  2506                                  |
|   \\  /    A nd           | Website:  www.openfoam.com                      |
|    \\/     M anipulation  |                                                 |
\*---------------------------------------------------------------------------*/
FoamFile
{
    version     2.0;
    format      ascii;
    arch        "LSB;label=32;scalar=64";
    class       surfaceScalarField;
    location    "250";
    object      phi;
}
// * * * * * * * * * * * * * * * * * * * * * * * * * * * * * * * * * * * * * //

dimensions      [0 3 -1 0 0 0 0];

oriented        oriented;

internalField   nonuniform List<scalar> 
2558
(
-0.2338
0.253396
-0.0195966
0.275393
-0.0219969
0.294329
-0.0189361
0.311242
-0.0169123
0.327216
-0.0159741
0.339943
-0.0127273
0.349926
-0.00998291
0.357915
-0.00798917
0.362943
-0.005028
0.366006
-0.00306305
0.367155
-0.00114868
0.365839
0.00131605
0.362191
0.00364847
0.35603
0.00616069
0.346959
0.00907135
0.334867
0.0120917
0.318978
0.0158891
0.29861
0.020368
0.272605
0.0260046
0.240221
0.0323845
0.200968
0.0392529
0.158163
0.0428043
0.119785
0.0383784
0.0956609
0.0241243
0.0907006
0.00496044
0.100213
-0.00951262
0.11416
-0.0139467
0.12662
-0.0124594
0.135655
-0.00903565
0.14126
-0.00560503
0.143999
-0.00273827
0.144022
-2.25038e-05
0.141195
0.00282632
0.135634
0.00556157
0.00856761
-0.210717
-0.0230831
-0.186779
-0.0239374
-0.157392
-0.0293877
-0.125186
-0.0322051
-0.0912762
-0.0339102
-0.0563353
-0.0349409
-0.213183
0.234689
-0.0411035
0.256713
-0.0440204
0.279736
-0.0419595
0.301247
-0.0384234
0.322288
-0.0370148
0.341871
-0.0323098
0.359595
-0.0277076
0.375746
-0.0241402
0.389954
-0.019236
0.402299
-0.0154073
0.413016
-0.0118655
0.422553
-0.00822102
0.43125
-0.0050491
0.439159
-0.00174823
0.446071
0.00215947
0.451548
0.00661481
0.455257
0.0121803
0.456838
0.0187864
0.454946
0.0278967
0.448413
0.0389182
0.434784
0.0528814
0.412474
0.0651149
0.381312
0.0695395
0.346246
0.0591903
0.313722
0.0374846
0.285627
0.0185829
0.261724
0.0099561
0.242138
0.00712724
0.227131
0.00597132
0.216109
0.00541674
0.207241
0.00613078
0.198938
0.0082804
0.190244
0.0115203
0.180398
0.0154078
0.0203112
-0.191223
-0.0450424
-0.167724
-0.0474366
-0.140211
-0.0569007
-0.111106
-0.0613099
-0.0801911
-0.0648252
-0.0672695
-0.206946
0.228644
-0.0628007
0.250491
-0.0658678
0.274079
-0.0655475
0.295641
-0.0599853
0.316134
-0.0575082
0.33573
-0.0519055
0.353129
-0.0451066
0.368723
-0.0397342
0.382064
-0.0325763
0.393415
-0.0267582
0.402738
-0.0211888
0.410165
-0.0156483
0.415548
-0.010432
0.419367
-0.0055669
0.421621
-9.50186e-05
0.42334
0.00489585
0.424621
0.0108999
0.426393
0.0170135
0.429088
0.0252017
0.433386
0.0346207
0.439267
0.0470001
0.444743
0.059639
0.445998
0.0682844
0.440128
0.0650609
0.428157
0.0494555
0.412582
0.0341581
0.394445
0.0280923
0.373224
0.0283482
0.348744
0.0304519
0.322253
0.0319079
0.296163
0.032221
0.272552
0.0318914
0.251836
0.0322358
0.232821
0.0344238
0.0393335
-0.185108
-0.0668805
-0.161179
-0.0713663
-0.132556
-0.0855232
-0.102792
-0.091074
-0.0716887
-0.0959285
-0.199346
0.222029
-0.0854836
0.244794
-0.0886329
0.269828
-0.090581
0.292682
-0.0828398
0.314843
-0.0796689
0.336095
-0.0731579
0.355619
-0.0646303
0.373238
-0.0573535
0.389166
-0.0485037
0.403181
-0.0407736
0.415397
-0.0334041
0.425825
-0.0260769
0.434532
-0.0191391
0.441592
-0.0126264
0.447305
-0.0058081
0.451126
0.00107458
0.453161
0.00886456
0.453185
0.0169903
0.451744
0.026642
0.449322
0.0370432
0.447165
0.049157
0.446535
0.0602687
0.446921
0.0678982
0.446079
0.0659032
0.442118
0.0534166
0.435614
0.0406623
0.427935
0.0357714
0.419381
0.0369022
0.4089
0.0409333
0.394811
0.0459976
0.375639
0.0513928
0.351171
0.0563596
0.323277
0.0601302
0.294641
0.0630598
0.0673762
-0.176951
-0.0892757
-0.152946
-0.0953714
-0.123825
-0.114644
-0.0939295
-0.120969
-0.127096
-0.195509
0.219014
-0.108988
0.242649
-0.112268
0.269075
-0.117007
0.292669
-0.106434
0.315807
-0.102807
0.338098
-0.0954488
0.358435
-0.0849673
0.376923
-0.0758408
0.393849
-0.0654306
0.408561
-0.0554856
0.421438
-0.0462809
0.432411
-0.03705
0.441758
-0.0284855
0.449157
-0.020026
0.454755
-0.0114058
0.458616
-0.0027862
0.461014
0.00646593
0.462076
0.015929
0.461667
0.0270507
0.460215
0.0384956
0.457824
0.0515479
0.454909
0.0631839
0.451542
0.0712643
0.447047
0.0703986
0.440777
0.0596869
0.433187
0.0482525
0.425445
0.0435134
0.418284
0.0440622
0.411756
0.0474618
0.405529
0.0522248
0.398531
0.0583903
0.388717
0.066174
0.373419
0.075428
0.350884
0.0855956
0.0964543
-0.172063
-0.112722
-0.14733
-0.120104
-0.116945
-0.14503
-0.086197
-0.151717
-0.192337
0.216857
-0.133508
0.241816
-0.137227
0.26962
-0.144811
0.294421
-0.131236
0.318583
-0.126969
0.342245
-0.119111
0.363561
-0.106282
0.383343
-0.0956229
0.401284
-0.0833718
0.417269
-0.0714704
0.431525
-0.0605377
0.44387
-0.0493948
0.454533
-0.0391485
0.463509
-0.0290021
0.47067
-0.0185661
0.476376
-0.00849252
0.480231
0.00261121
0.482355
0.0138048
0.482941
0.026465
0.481965
0.0394708
0.479664
0.0538489
0.47629
0.066558
0.471575
0.0759792
0.465061
0.0769131
0.456567
0.0681812
0.446718
0.0581009
0.436541
0.0536907
0.426667
0.0539365
0.417283
0.0568463
0.408545
0.060963
0.400705
0.0662303
0.393714
0.0731646
0.386724
0.082419
0.377138
0.0951817
0.112888
-0.167926
-0.137132
-0.14238
-0.145651
-0.110689
-0.176721
-0.183606
-0.190487
0.216336
-0.159357
0.242335
-0.163226
0.271706
-0.174182
0.297777
-0.157307
0.323187
-0.152379
0.347919
-0.143842
0.370391
-0.128755
0.39101
-0.116241
0.409979
-0.102341
0.426877
-0.0883683
0.441933
-0.0755943
0.455287
-0.0627483
0.466809
-0.0506709
0.476573
-0.0387657
0.484651
-0.0266442
0.490874
-0.0147152
0.495431
-0.00194579
0.498314
0.0109213
0.499663
0.025116
0.49957
0.0395639
0.498241
0.0551778
0.495734
0.069065
0.491924
0.0797892
0.486071
0.0827663
0.477967
0.0762849
0.4681
0.0679688
0.457408
0.0643819
0.446477
0.0648678
0.435438
0.0678853
0.424289
0.0721118
0.413223
0.0772962
0.402583
0.0838042
0.392868
0.0921341
0.384315
0.103735
0.121552
-0.164865
-0.162754
-0.138209
-0.172307
-0.10506
-0.20987
-0.21681
-0.189327
0.216511
-0.186541
0.243942
-0.190657
0.274994
-0.205234
0.302267
-0.18458
0.328965
-0.179078
0.354947
-0.169824
0.378437
-0.152245
0.400264
-0.138069
0.42005
-0.122128
0.437885
-0.106203
0.453998
-0.0917069
0.468229
-0.076979
0.480658
-0.0631002
0.491414
-0.0495216
0.500443
-0.0356729
0.507722
-0.0219949
0.513315
-0.00753867
0.517213
0.00702357
0.519389
0.0229396
0.519971
0.0389827
0.519178
0.0559704
0.517038
0.0712053
0.513475
0.083352
0.5081
0.0881411
0.50055
0.0838355
0.491171
0.0773479
0.480783
0.0747702
0.469909
0.0757413
0.458624
0.079171
0.446907
0.083829
0.434669
0.0895343
0.421985
0.0964882
0.409006
0.105113
0.396314
0.116427
0.133051
-0.162473
-0.189608
-0.134656
-0.200124
-0.0997918
-0.244734
-0.188999
0.217553
0.246432
0.279184
0.307848
0.336015
-0.207245
0.363353
-0.197162
0.388062
-0.176955
0.410776
-0.160782
0.431674
-0.143025
0.450343
-0.124873
0.467165
-0.108529
0.482214
-0.0920276
0.495508
-0.0763938
0.507066
-0.0610794
0.516902
-0.0455094
0.525063
-0.0301555
0.531436
-0.0139122
0.53604
0.00242011
0.538937
0.0200421
0.540192
0.0377274
0.539988
0.056175
0.538366
0.0728265
0.535227
0.0864911
0.530278
0.0930901
0.523243
0.0908706
0.514343
0.0862479
0.504265
0.0848487
0.493591
0.086415
0.482452
0.0903093
0.470766
0.0955157
0.458468
0.101832
0.445457
0.109499
0.431581
0.118989
0.416768
0.131241
0.148446
-0.160655
-0.131482
0.343924
0.372737
0.39862
-0.202838
0.422475
-0.184638
0.444361
-0.164911
0.463912
-0.144424
0.481595
-0.126212
0.497526
-0.107959
0.511537
-0.0904041
0.523826
-0.0733684
0.534542
-0.0562254
0.543427
-0.0390405
0.550608
-0.0210932
0.555984
-0.00295598
0.559696
0.0163303
0.561711
0.0357115
0.562021
0.0558653
0.560874
0.0739736
0.558102
0.0892627
0.553517
0.0976756
0.546856
0.097532
0.538251
0.0948527
0.528393
0.0947065
0.517815
0.0969934
0.506626
0.101498
0.494896
0.107246
0.482545
0.114184
0.46948
0.122563
0.455543
0.132927
0.440446
0.146338
0.165048
0.410341
0.435428
0.458353
-0.187837
0.478851
-0.164922
0.49733
-0.144691
0.513904
-0.124533
0.52872
-0.105221
0.541861
-0.0865094
0.553176
-0.0675402
0.562845
-0.0487091
0.570751
-0.029
0.576913
-0.00911725
0.581263
0.0119799
0.583899
0.0330758
0.584836
0.0549283
0.58412
0.0746896
0.581762
0.09162
0.577585
0.101853
0.571352
0.103765
0.563169
0.103035
0.553528
0.104347
0.542958
0.107564
0.531727
0.11273
0.519781
0.119191
0.507182
0.126783
0.493888
0.135857
0.479766
0.147048
0.464582
0.161523
0.181686
0.473515
0.494922
-0.186328
0.514305
-0.164075
0.53175
-0.141977
0.547192
-0.120663
0.560964
-0.100282
0.573061
-0.0796371
0.583426
-0.0590737
0.591998
-0.037572
0.598796
-0.0159152
0.603815
0.00696114
0.607099
0.0297915
0.608626
0.0534009
0.608437
0.0748787
0.606504
0.0935531
0.602718
0.10564
0.596886
0.109596
0.589084
0.110837
0.579697
0.113734
0.569247
0.118014
0.557927
0.124049
0.545814
0.131305
0.532916
0.139681
0.519231
0.149543
0.504719
0.16156
0.489154
0.177088
0.198522
0.512253
0.532479
-0.184301
0.550669
-0.160167
0.566939
-0.136932
0.581425
-0.114768
0.594147
-0.0923586
0.605113
-0.0700406
0.61436
-0.0468182
0.621844
-0.0233996
0.627497
0.00130843
0.631305
0.0259835
0.633377
0.0513284
0.633645
0.0746105
0.632136
0.0950621
0.628803
0.108973
0.623471
0.114928
0.616063
0.118246
0.606985
0.122812
0.596648
0.128351
0.585308
0.13539
0.573056
0.143556
0.559907
0.15283
0.545851
0.163599
0.530842
0.176569
0.514732
0.193199
0.215918
0.551978
-0.205501
0.570962
-0.179151
0.587951
-0.153921
0.60312
-0.129938
0.616393
-0.105632
0.628047
-0.0816947
0.637916
-0.0566867
0.645988
-0.0314718
0.652266
-0.0049694
0.656694
0.021555
0.65927
0.0487524
0.660037
0.0738438
0.658975
0.0961238
0.656055
0.111894
0.651138
0.119846
0.644137
0.125247
0.635392
0.131557
0.625242
0.138501
0.613923
0.146709
0.601557
0.155921
0.588168
0.166219
0.573782
0.177986
0.558307
0.192044
0.541665
0.209841
0.233984
0.572794
0.592636
-0.198993
0.610265
-0.17155
0.62612
-0.145792
0.640152
-0.119664
0.652378
-0.0939199
0.662847
-0.0671567
0.671481
-0.0401053
0.678225
-0.0117135
0.683176
0.0166038
0.686291
0.0456373
0.687476
0.0726592
0.686855
0.0967444
0.684373
0.114376
0.679914
0.124305
0.673385
0.131775
0.664942
0.14
0.654994
0.148449
0.643767
0.157936
0.631326
0.168363
0.61775
0.179795
0.603039
0.192697
0.587184
0.207899
0.570018
0.227007
0.252703
0.615589
0.634098
-0.19006
0.650591
-0.162285
0.665217
-0.13429
0.678028
-0.106731
0.689045
-0.0781742
0.698223
-0.0492833
0.705593
-0.019083
0.711018
0.0111782
0.714558
0.0420982
0.716234
0.0709825
0.716008
0.0969707
0.713944
0.116441
0.709906
0.128343
0.703802
0.137879
0.695747
0.148055
0.686032
0.158164
0.674882
0.169086
0.662401
0.180844
0.648672
0.193525
0.633699
0.20767
0.617432
0.224166
0.599777
0.244662
0.271985
0.659292
-0.209342
0.67652
-0.179513
0.691749
-0.149519
0.705161
-0.120142
0.716713
-0.0897263
0.726442
-0.0590119
0.734253
-0.026894
0.740193
0.00523758
0.744171
0.0381206
0.74623
0.0689227
0.746442
0.0967587
0.74478
0.118103
0.741202
0.131921
0.735509
0.143572
0.727816
0.155747
0.71836
0.167621
0.707321
0.180125
0.694853
0.193311
0.68099
0.207387
0.665771
0.222889
0.649153
0.240785
0.631032
0.262783
0.291796
0.685937
0.703886
-0.197463
0.719851
-0.165484
0.733801
-0.134092
0.745924
-0.10185
0.756141
-0.0692287
0.76448
-0.0352325
0.770828
-0.00111041
0.775218
0.0337306
0.777722
0.0664182
0.778266
0.0962145
0.776999
0.11937
0.77381
0.135111
0.768531
0.148851
0.761226
0.163053
0.75205
0.176797
0.741205
0.19097
0.728753
0.205763
0.714793
0.221348
0.699346
0.238335
0.682392
0.257739
0.66385
0.281326
0.312171
0.732948
-0.21617
0.749543
-0.182079
0.764111
-0.14866
0.776744
-0.114483
0.787429
-0.079913
0.796174
-0.0439779
0.802964
-0.00790014
0.807792
0.0289022
0.810598
0.0636125
0.811515
0.0952978
0.810639
0.120246
0.80784
0.137909
0.803004
0.153687
0.796071
0.169986
0.787174
0.185693
0.776485
0.201659
0.764118
0.21813
0.750099
0.235367
0.734464
0.253971
0.717208
0.274994
0.698248
0.300286
0.333027
0.76366
0.780898
-0.199317
0.796103
-0.163865
0.809238
-0.127618
0.820392
-0.0910677
0.829617
-0.0532023
0.83678
-0.0150639
0.841941
0.0237415
0.845111
0.060443
0.84636
0.0940488
0.845825
0.120781
0.843416
0.140319
0.838946
0.158157
0.832377
0.176555
0.823823
0.194247
0.813347
0.212135
0.801048
0.230429
0.786992
0.249424
0.771222
0.26974
0.753706
0.292511
0.734363
0.319629
0.354352
0.814004
-0.217269
0.829808
-0.179669
0.843518
-0.141328
0.855189
-0.102739
0.864774
-0.0627867
0.872338
-0.0226284
0.877811
0.0182693
0.8813
0.0569536
0.882908
0.0924415
0.882587
0.121101
0.880549
0.142357
0.876469
0.162236
0.870189
0.182835
0.862018
0.202418
0.85176
0.222393
0.839609
0.24258
0.825552
0.263481
0.809674
0.285618
0.79192
0.310265
0.772239
0.339311
0.37612
0.848998
0.865416
-0.196087
0.879678
-0.15559
0.891799
-0.11486
0.901793
-0.0727808
0.909697
-0.0305326
0.915525
0.0124415
0.919245
0.0532336
0.921115
0.0905718
0.921143
0.121073
0.91935
0.144151
0.91566
0.165926
0.909821
0.188674
0.901931
0.210308
0.89194
0.232384
0.879818
0.254703
0.865845
0.277453
0.849945
0.301518
0.832014
0.328196
0.811962
0.359364
0.398284
0.902978
-0.2132
0.917791
-0.170403
0.930392
-0.127461
0.940781
-0.0831698
0.949076
-0.0388277
0.955204
0.0063134
0.959214
0.0492241
0.961202
0.0885835
0.961497
0.120779
0.960084
0.145563
0.956683
0.169327
0.951166
0.194191
0.943436
0.218037
0.933741
0.242079
0.921853
0.266591
0.908028
0.291278
0.891882
0.317665
0.873807
0.346271
0.853587
0.379584
0.42079
0.942522
-0.230922
0.958025
-0.185906
0.971095
-0.140531
0.981968
-0.0940431
0.99041
-0.0472699
0.9969
-0.0001768
1.00115
0.0449791
1.00339
0.0863342
1.00395
0.120224
1.0027
0.146817
0.999527
0.172496
0.994306
0.199413
0.986894
0.225449
0.977334
0.251639
0.965859
0.278067
0.951896
0.30524
0.935999
0.333562
0.917763
0.364507
0.897257
0.40009
0.443526
0.98437
1.00036
-0.201896
1.01383
-0.154
1.02514
-0.105353
1.03403
-0.0561655
1.04062
-0.00676624
1.04515
0.0404549
1.04755
0.0839285
1.04826
0.119518
1.0473
0.147778
1.04448
0.175311
1.03953
0.204366
1.03242
0.232558
1.02316
0.260899
1.01163
0.289599
0.998035
0.318836
0.981955
0.349641
0.963608
0.382854
0.943203
0.420495
0.466683
1.04493
-0.218359
1.05918
-0.168243
1.07069
-0.116864
1.08002
-0.0655006
1.08679
-0.0135372
1.09145
0.0358022
1.09417
0.0812075
1.09487
0.118817
1.09415
0.148495
1.09137
0.178097
1.08681
0.20892
1.07998
0.239386
1.07102
0.269866
1.0596
0.301013
1.04592
0.332514
1.03017
0.365397
1.01191
0.401114
0.991058
0.441346
0.489758
1.09219
-0.235672
1.10675
-0.182803
1.11873
-0.128849
1.12831
-0.0750763
1.1354
-0.0206313
1.14014
0.0310685
1.14285
0.0784909
1.144
0.117674
1.14314
0.149347
1.14079
0.180453
1.13611
0.213594
1.1297
0.245796
1.12086
0.278709
1.10989
0.311988
1.09646
0.345941
1.08044
0.381417
1.06231
0.41924
1.04152
0.462135
0.513273
1.14171
1.15682
-0.197911
1.16931
-0.141336
1.17905
-0.0848196
1.18658
-0.0281553
1.19145
0.026196
1.19433
0.0756106
1.19534
0.116664
1.19481
0.149879
1.1924
0.182862
1.18821
0.217781
1.18171
0.252297
1.17314
0.287283
1.16229
0.32284
1.14897
0.359256
1.13334
0.397051
1.11494
0.437642
1.09427
0.482806
0.536726
1.2097
-0.213685
1.22274
-0.154376
1.23287
-0.0949473
1.24026
-0.0355452
1.24549
0.0209628
1.24823
0.0728759
1.24926
0.115628
1.24886
0.150281
1.24649
0.185227
1.24243
0.221841
1.23629
0.258439
1.22781
0.295764
1.21708
0.333572
1.20404
0.372291
1.18851
0.41258
1.17048
0.455674
1.14954
0.503752
0.560051
1.26553
-0.229948
1.27879
-0.167632
1.28932
-0.105478
1.29709
-0.043317
1.30209
0.0159571
1.30521
0.0697603
1.30638
0.114459
1.30572
0.150939
1.30368
0.187272
1.29955
0.22597
1.29342
0.264572
1.28531
0.303865
1.27485
0.34404
1.26194
0.385199
1.24638
0.428135
1.22831
0.473748
1.20774
0.524325
0.583478
1.32424
1.33804
-0.181438
1.34879
-0.116229
1.35672
-0.0512481
1.3621
0.0105763
1.36489
0.0669747
1.36597
0.113378
1.3657
0.151212
1.36344
0.189529
1.35937
0.230045
1.35352
0.270423
1.34531
0.312074
1.33494
0.354409
1.32216
0.397973
1.30706
0.44324
1.28913
0.491679
1.26853
0.54492
0.606797
1.40023
-0.195672
1.41153
-0.127526
1.41954
-0.0592526
1.42495
0.00516278
1.42803
0.0638946
1.42903
0.112383
1.42854
0.151697
1.42639
0.191679
1.42248
0.23396
1.41642
0.276483
1.40853
0.31996
1.39824
0.364697
1.38575
0.410468
1.3705
0.458487
1.35289
0.509289
1.33247
0.565344
0.629951
1.46616
-0.210632
1.47747
-0.138838
1.4859
-0.0676799
1.49143
-0.000373322
1.49424
0.0610849
1.49527
0.111359
1.49462
0.152348
1.49249
0.193804
1.48855
0.237902
1.4827
0.282332
1.47465
0.32801
1.46458
0.374771
1.45205
0.422991
1.43727
0.473267
1.41971
0.526851
1.3995
0.585554
1.53519
1.54723
-0.150876
1.55569
-0.0761472
1.5612
-0.00587691
1.56422
0.0580597
1.56506
0.11052
1.56444
0.152965
1.56218
0.196067
1.55802
0.242061
1.55219
0.288162
1.54425
0.335953
1.53421
0.384808
1.52195
0.435254
1.50719
0.488026
1.48985
0.544194
0.605517
1.62047
-0.163024
1.62936
-0.0850442
1.63481
-0.0113214
1.63765
0.0552198
1.63859
0.109577
1.63773
0.153826
1.63528
0.198514
1.63117
0.246175
1.62517
0.29416
1.61745
0.343672
1.60743
0.394831
1.59511
0.447569
1.58052
0.502615
1.56341
0.561306
0.625344
1.69789
-0.175671
1.70677
-0.0939282
1.71252
-0.0170712
1.71536
0.0523782
1.71591
0.109034
1.71504
0.154689
1.71251
0.201044
1.70826
0.250429
1.70221
0.300208
1.69423
0.351649
1.6842
0.404868
1.67211
0.459658
1.65768
0.517041
1.64066
0.578324
0.644725
1.77919
-0.188672
1.7886
-0.103333
1.79421
-0.0226819
1.79696
0.0496315
1.79752
0.108475
1.79634
0.155862
1.79371
0.203679
1.78928
0.254861
1.78314
0.306345
1.77502
0.359766
1.76509
0.414801
1.75306
0.471691
1.73864
0.531461
1.72201
0.594956
0.664077
1.86522
-0.202075
1.87464
-0.112752
1.88038
-0.0284221
1.88303
0.0469832
1.88359
0.10791
1.8822
0.157249
1.87927
0.206608
1.87463
0.2595
1.86838
0.312602
1.86023
0.367911
1.85023
0.424806
1.83794
0.483983
1.8238
0.545596
1.80726
0.611496
0.6831
1.95578
1.96538
-0.122356
1.97132
-0.0343648
1.97399
0.0443138
1.97406
0.107844
1.97256
0.15875
1.96949
0.209682
1.96461
0.26438
1.95805
0.319163
1.9497
0.37626
1.93959
0.434914
1.92759
0.495976
1.91329
0.559902
1.89684
0.627948
0.701792
2.06116
-0.132221
2.067
-0.0402011
2.06948
0.0418326
2.0695
0.107823
2.06789
0.160357
2.06446
0.213116
2.05945
0.269389
2.05256
0.326052
2.04412
0.384703
2.03373
0.445298
2.02158
0.508134
2.00751
0.573966
1.99128
0.644184
0.7203
2.16211
-0.14259
2.16796
-0.0460554
2.17054
0.039254
2.17033
0.108037
2.16827
0.162418
2.1646
0.216779
2.1593
0.274696
2.15219
0.33316
2.14348
0.393414
2.13307
0.455703
2.12087
0.520341
2.10659
0.588241
2.09055
0.660224
0.738635
2.26854
-0.153156
2.27461
-0.0521288
2.27682
0.0370466
2.27646
0.1084
2.27423
0.16465
2.27018
0.220821
2.26455
0.280335
2.25733
0.340373
2.24832
0.402423
2.23758
0.466444
2.22515
0.532767
2.21107
0.602329
2.19492
0.676372
0.75681
2.38062
-0.163841
2.38679
-0.0583023
2.38902
0.0348219
2.38836
0.109056
2.38593
0.167074
2.38174
0.22502
2.3756
0.28647
2.36797
0.348006
2.35863
0.411761
2.34781
0.477268
2.33513
0.545444
2.32092
0.61654
2.30478
0.692514
0.774705
2.49898
2.50519
-0.0645162
2.50724
0.0327788
2.50653
0.109759
2.50372
0.169888
2.49909
0.229644
2.49272
0.292846
2.48464
0.356083
2.47509
0.421314
2.46373
0.48863
2.45105
0.55812
2.43654
0.631047
2.42066
0.708395
0.792629
2.63015
-0.0708559
2.63217
0.0307531
2.6311
0.110827
2.6279
0.173091
2.62294
0.234608
2.61615
0.299631
2.60774
0.364493
2.5978
0.431252
2.5863
0.500135
2.57317
0.571248
2.55876
0.645461
2.54241
0.724747
2.7617
-0.077285
2.76375
0.0286989
2.76232
0.112254
2.75898
0.176435
2.75366
0.239929
2.74644
0.30685
2.73767
0.373259
2.72718
0.441745
2.71522
0.512094
2.70203
0.58444
2.68712
0.660372
0.740908
2.90077
-0.0839286
2.90244
0.0270294
2.901
0.113695
2.89721
0.180218
2.89137
0.245777
2.88383
0.314388
2.87453
0.382554
2.86374
0.45254
2.85143
0.524399
2.83759
0.598283
2.8227
0.675261
0.757332
3.04706
-0.0904371
3.04897
0.0251208
3.04709
0.115578
3.04297
0.18433
3.03686
0.251889
3.02884
0.322409
3.019
0.392398
3.0076
0.463942
2.99491
0.53708
2.98094
0.612259
2.96535
0.69085
0.773776
3.20179
3.20323
0.0236775
3.20129
0.117521
3.19678
0.188839
3.19026
0.258414
3.18172
0.330944
3.17144
0.402679
3.15968
0.475702
3.14632
0.550442
3.13177
0.626811
3.11613
0.706489
0.79083
3.36626
0.0221778
3.36379
0.119985
3.35906
0.193567
3.35207
0.265412
3.343
0.340013
3.33225
0.41343
3.31968
0.488265
3.30602
0.564101
3.291
0.641836
3.27487
0.722623
0.807986
3.53815
0.020572
3.53559
0.122551
3.5303
0.198854
3.52281
0.272908
3.51317
0.349649
3.50179
0.42481
3.48881
0.501242
3.47441
0.578503
3.45875
0.657501
3.44222
0.739153
0.825556
3.71934
0.0192816
3.71645
0.12544
3.71071
0.20459
3.70285
0.28077
3.69276
0.35974
3.68072
0.436848
3.66716
0.514805
3.65212
0.593538
3.63605
0.673569
3.61882
0.756389
0.843714
3.91055
0.0179624
3.90733
0.128663
3.90138
0.210533
3.89298
0.289173
3.88213
0.370588
3.86954
0.449441
3.85523
0.529116
3.83953
0.60924
3.82275
0.690344
3.80491
0.77423
0.862232
4.11221
0.0167618
4.10874
0.132129
4.10227
0.217
4.0933
0.298152
4.08207
0.381818
4.06862
0.462889
4.05366
0.544072
4.03726
0.62564
4.01974
0.707862
4.0014
0.792577
4.32493
0.0156266
4.32116
0.135902
4.31429
0.223868
4.3047
0.307741
4.29279
0.393735
4.27886
0.476817
4.26295
0.559977
4.24596
0.642634
4.22753
0.726291
0.811602
4.54937
4.54528
0.139992
4.53795
0.231198
4.52785
0.317846
4.51507
0.406515
4.50035
0.491528
4.48388
0.576456
4.46584
0.660665
4.44687
0.745263
0.83148
4.78165
0.144479
4.77398
0.238866
4.76318
0.328643
4.7498
0.419893
4.73414
0.507194
4.71678
0.593815
4.69795
0.679495
4.67813
0.765083
0.852247
5.03098
0.14924
5.02263
0.24722
5.0114
0.339867
4.99721
0.434086
4.98083
0.523578
4.96255
0.61209
4.94275
0.699296
4.92191
0.785922
0.873807
5.29401
0.154335
5.2852
0.256036
5.2732
0.351864
5.25832
0.448962
5.24104
0.540858
5.22181
0.631321
5.20101
0.720104
5.17911
0.807815
0.896335
5.57145
0.159611
5.56203
0.265457
5.54937
0.364528
5.53361
0.464716
5.5154
0.55907
5.49518
0.65154
5.47346
0.741825
5.45061
0.830671
0.919867
5.86402
0.165462
5.85406
0.275413
5.84067
0.37792
5.82399
0.481398
5.80493
0.578126
5.78354
0.672929
5.76073
0.764632
5.73674
0.854663
6.17257
0.171699
6.16212
0.285864
6.14797
0.392069
6.13047
0.498904
6.11025
0.598342
6.08792
0.695264
6.06371
0.788838
0.879701
6.4983
0.178267
6.48722
0.296939
6.47209
0.407201
6.4537
0.517292
6.43228
0.61976
6.40882
0.718728
6.38357
0.814089
0.90623
6.84172
6.82991
0.308747
6.8142
0.422913
6.79472
0.536769
6.77231
0.64217
6.74741
0.743632
6.7208
0.840699
0.93403
7.19179
0.320672
7.17487
0.439839
7.15415
0.557487
7.13109
0.665226
7.10457
0.770155
7.07708
0.868186
0.963544
7.57318
0.334745
7.55567
0.457347
7.53402
0.579139
7.50842
0.690824
7.48142
0.797162
7.45169
0.897913
0.993366
7.97589
0.347604
7.95704
0.476195
7.93417
0.602007
7.90874
0.716254
7.87936
0.826539
7.84867
0.928608
1.0267
5.77668
0.380876
5.74897
0.503902
5.7328
0.618181
5.71238
0.736675
5.6916
0.84732
5.71082
0.909388
6.34703
0.417393
6.31621
0.534727
6.29699
0.637397
6.27757
0.756094
6.25527
0.869624
0.890397
6.97382
0.45737
6.93973
0.568819
6.91991
0.65721
6.89741
0.778599
6.87083
0.896206
0.866548
7.66213
0.501017
7.62454
0.606408
7.60396
0.677795
7.57688
0.805675
7.54977
0.923313
0.841945
8.41838
0.549832
8.37712
0.647664
8.35296
0.701956
8.32638
0.832256
8.29599
0.953705
0.815434
9.2488
0.602819
9.20357
0.692892
9.17689
0.728641
9.14662
0.862527
9.11398
0.986341
0.784669
10.1616
10.1137
0.740832
10.0844
0.75796
10.0517
0.895241
10.0141
1.02385
0.752287
11.1102
0.796082
11.079
0.789191
11.042
0.932277
11.0016
1.06422
0.716293
12.2123
0.854127
12.1771
0.824419
12.1375
0.97184
12.0936
1.10817
0.674741
13.4094
0.920881
13.3709
0.862891
13.3271
1.01559
13.2778
1.15754
14.7545
0.990777
14.7143
0.903103
14.6662
1.06364
1.20656
16.1763
1.07009
16.1282
0.951208
16.0741
1.1177
1.26819
17.863
17.8186
17.7701
)
;

boundaryField
{
    inlet
    {
        type            calculated;
        value           nonuniform List<scalar> 4(1.14865 0.995614 1.16622 1.31787);
    }
    outlet
    {
        type            calculated;
        value           nonuniform List<scalar> 0();
    }
    walls
    {
        type            calculated;
        value           uniform 0;
    }
    frontAndBack
    {
        type            empty;
    }
    procBoundary5to0
    {
        type            processor;
        value           nonuniform List<scalar> 4(-0.215095 -0.217951 -0.229297 -0.281379);
    }
    procBoundary5to1
    {
        type            processor;
        value           nonuniform List<scalar> 
13
(
-0.0219569
-0.0343784
-0.0478625
-0.0393976
-0.0995606
-0.0627625
-0.0542972
-0.158995
-0.0788002
-0.0718554
-0.0650633
-0.251539
-0.0948379
)
;
    }
    procBoundary5to4
    {
        type            processor;
        value           nonuniform List<scalar> 
95
(
-0.219536
-0.237985
-0.213244
-0.314466
-0.236703
-0.225974
-0.383308
-0.229871
-0.209724
-0.449511
-0.21184
-0.489854
-0.208728
-0.530778
-0.550699
-0.227596
-0.594863
-0.219719
-0.64001
-0.665884
-0.229395
-0.71424
-0.744155
-0.235675
-0.796052
-0.830206
-0.236061
-0.885865
-0.9248
-0.965808
-0.249483
-1.02847
-1.07487
-1.12374
-0.253652
-1.19393
-1.24927
-1.30719
-0.246998
-1.386
-1.4512
-1.51997
-0.22585
-1.60832
-1.68524
-1.76619
-1.85181
-1.9418
-0.216051
-2.0513
-2.15174
-2.25797
-2.36993
-2.48775
-0.175068
-2.62381
-2.75527
-2.89412
-3.04055
-3.19474
-0.0974871
-3.36476
-3.53655
-3.71805
-3.90923
-4.11101
-4.3238
-4.54821
0.0144684
-4.78613
-5.03574
-5.29911
-5.57673
-5.86987
-6.17881
-6.50487
-6.8487
0.185246
-7.20372
-7.58725
-7.98874
-5.80995
-6.38355
-7.01379
-7.70578
-8.46719
-9.30179
-10.2202
0.661405
-11.1655
-12.2704
-13.4761
-14.8244
-16.2556
-17.9416
)
;
    }
    procBoundary5to6
    {
        type            processor;
        value           nonuniform List<scalar> 
86
(
0.127067
0.168654
0.213799
0.266598
0.321806
0.360703
0.375652
0.384816
0.401374
0.423844
0.447945
0.472318
0.497336
0.523599
0.5513
0.580495
0.611222
0.643475
0.677393
0.713038
0.750471
0.789798
0.831081
0.874522
0.920046
0.967983
1.01801
1.07081
1.12621
1.18431
1.24521
1.30931
1.37642
0.65303
1.46989
1.54359
1.62128
1.70265
1.78824
1.87814
1.97277
2.07222
2.17674
2.28688
2.40274
2.52456
0.810471
2.67096
2.80628
2.9489
3.09907
3.25771
3.42465
3.60066
3.78639
3.98235
0.881284
4.20851
4.427
4.65736
4.90035
5.15659
5.42707
5.71203
0.94458
6.03867
6.35704
6.693
7.04757
7.42187
7.81534
5.71383
1.02368
6.27426
6.89468
7.57438
8.3225
9.14475
10.0465
11.0376
12.1351
13.3203
0.632225
14.6172
16.0125
17.7204
)
;
    }
}


// ************************************************************************* //
