/*--------------------------------*- C++ -*----------------------------------*\
| =========                 |                                                 |
| \\      /  F ield         | OpenFOAM: The Open Source CFD Toolbox           |
|  \\    /   O peration     | Version:  2506                                  |
|   \\  /    A nd           | Website:  www.openfoam.com                      |
|    \\/     M anipulation  |                                                 |
\*---------------------------------------------------------------------------*/
FoamFile
{
    version     2.0;
    format      ascii;
    arch        "LSB;label=32;scalar=64";
    class       volScalarField;
    location    "250";
    object      turbulenceProperties:k;
}
// * * * * * * * * * * * * * * * * * * * * * * * * * * * * * * * * * * * * * //

dimensions      [0 2 -2 0 0 0 0];

internalField   nonuniform List<scalar> 
1340
(
0.0199741
0.0232484
0.027412
0.0330427
0.0396638
0.0480421
0.0586947
0.0718332
0.088483
0.109728
0.137218
0.17359
0.222473
0.289817
0.385736
0.526194
0.742395
1.07606
1.66029
2.5744
4.61923
7.74511
18.0554
35.3868
39.3503
37.6911
37.0341
37.6946
38.5173
38.7178
38.1959
37.0506
35.2085
32.6932
29.4493
0.0170355
0.0146458
0.0119531
0.00963708
0.0074426
0.00545838
0.00385166
0.00310738
0.00309021
0.00305488
0.00296677
0.00283038
0.00267355
0.00248844
0.00228023
0.00207413
0.00187199
0.00167928
0.00154512
0.00152563
0.0016732
0.00216244
0.00336628
0.00631184
0.0130532
0.0312618
0.0765489
0.224854
0.623492
1.90299
6.10611
11.9768
18.0484
23.7664
27.8379
28.6861
26.3557
22.4778
18.534
15.331
12.8765
10.9925
0.00307911
0.00303731
0.00295195
0.00282543
0.00265244
0.00242434
0.00208372
0.00206725
0.00202062
0.00194934
0.00187479
0.00179287
0.00171006
0.00163559
0.00157155
0.00152186
0.00148342
0.00146133
0.00145531
0.00146777
0.00147191
0.00142673
0.00124943
0.00107725
0.000123531
0.00664256
0.00265323
0.00455509
0.000614211
0.0229791
0.193056
0.645523
1.61575
3.64806
7.20728
11.9317
16.2439
18.4046
18.0362
16.2151
14.0743
0.00209999
0.00209745
0.0020919
0.0020547
0.00198865
0.00187771
0.00175882
0.00176244
0.00175358
0.00173897
0.00170883
0.00166398
0.00160807
0.00153827
0.0014585
0.00137027
0.00127548
0.00117543
0.0010711
0.000964388
0.000856225
0.000742693
0.000629781
0.000527989
0.000400144
0.000229266
1.38879e-08
0.000515865
0.000375969
0.00621695
0.0231368
0.0451925
0.0255305
0.0122152
0.0346265
0.344904
1.53434
4.21336
7.95816
11.1136
12.5069
0.00173996
0.00171139
0.00166653
0.0016125
0.00154475
0.00131954
0.00131721
0.00130691
0.00128856
0.00126017
0.00122169
0.00117517
0.00112134
0.00106194
0.00100061
0.000939332
0.000880555
0.000826907
0.000780019
0.000741023
0.000708254
0.000673735
0.000631949
0.000587207
0.000521887
0.000352781
0.000115242
1.87231e-05
3.129e-06
0
0
0.00904158
0.0109106
0.0237483
0.0109074
0.0274333
0.053374
0.307621
1.86284
4.86012
0.00131612
0.00130681
0.00128827
0.00125859
0.00121675
0.00108158
0.00108619
0.00108575
0.00108187
0.00107124
0.00105401
0.00103094
0.00100111
0.000965145
0.000924009
0.000878062
0.000828389
0.000776163
0.000722311
0.00066779
0.000611297
0.000549734
0.000486616
0.00042726
0.000375362
0.00033391
0.000277832
0.000198332
4.04162e-05
1.01133e-05
5.22789e-06
2.10735e-06
4.35971e-10
0
0.00145154
0.00641261
0.0349882
0.00402029
0.0868902
0.178501
0.00107177
0.00105822
0.00103853
0.00101254
0.000874932
0.000878775
0.000879389
0.000877162
0.000870175
0.000858076
0.000841154
0.000818913
0.000791546
0.000759811
0.000724251
0.000685754
0.00064551
0.000604662
0.000564166
0.000525373
0.000490208
0.000457441
0.000424063
0.00038916
0.000355894
0.000328734
0.000300315
0.000247591
0.000167262
9.27862e-05
3.17663e-05
5.43143e-09
3.48858e-06
4.3533e-07
0
0
0.000392187
0.0264621
0.0173309
0.000867747
0.000858022
0.000843876
0.000824392
0.000725171
0.000730119
0.000733058
0.000734242
0.000732232
0.000726741
0.000717986
0.000705325
0.000688755
0.00066863
0.000644919
0.000618085
0.000588653
0.000557108
0.00052401
0.000490037
0.000454769
0.000417284
0.000379322
0.000343399
0.00031163
0.000286077
0.000267658
0.000253206
0.000229958
0.000195167
0.000152325
0.00010473
6.35196e-05
6.91054e-06
3.24665e-06
2.14077e-07
0
0
0.00245044
0.000717737
0.000708778
0.000696768
0.000680822
0.000604929
0.000609692
0.000613165
0.000615331
0.000615251
0.000612612
0.000607472
0.000599265
0.000587919
0.000573539
0.000556079
0.000535785
0.000513016
0.000488138
0.000461692
0.000434103
0.000405999
0.000378473
0.000351618
0.000325421
0.000300299
0.00027735
0.000257294
0.000239371
0.0002206
0.000198328
0.000174758
0.000151623
0.000128871
9.46952e-05
6.32354e-05
4.31689e-06
1.87391e-06
0
0
0.000598398
0.000590836
0.000581063
0.00052296
0.000522597
0.000520416
0.000515937
0.000509087
0.000499858
0.000488102
0.000473932
0.000457517
0.000439039
0.000418792
0.000397067
0.000374316
0.000350501
0.000325781
0.000301216
0.000278099
0.000257391
0.000239248
0.000222154
0.000203666
0.000182803
0.00016159
0.000143097
0.000128836
0.000117185
0.000106173
7.85953e-05
3.66664e-05
3.14117e-06
1.26474e-08
0.000447073
0.000444823
0.000440697
0.000434667
0.000426549
0.000416372
0.000404196
0.000390099
0.000374289
0.000357001
0.000338496
0.000319192
0.000299525
0.000279883
0.000260894
0.000243054
0.000226558
0.000210538
0.000193181
0.000173576
0.000153103
0.000134608
0.0001198
0.000109009
0.000101119
9.63961e-05
8.50709e-05
5.37337e-05
2.58691e-07
0.000383478
0.000379857
0.000374559
0.000367562
0.000358862
0.000348477
0.000336508
0.000323093
0.000308434
0.000292833
0.000276398
0.000259491
0.000242855
0.000227056
0.000212228
0.000197731
0.000182207
0.000164829
0.000146481
0.000129282
0.000114728
0.000103032
9.34953e-05
8.73367e-05
8.39146e-05
8.2707e-05
5.58829e-05
0.00033257
0.000329229
0.000324495
0.000318319
0.000310667
0.000301598
0.000291192
0.000279567
0.00026698
0.000253623
0.00023975
0.000225812
0.000212226
0.000199084
0.000185976
0.000171988
0.000156519
0.0001402
0.000124662
0.000111177
9.98632e-05
9.01772e-05
8.2143e-05
7.64021e-05
7.41258e-05
7.88343e-05
0.00029006
0.000287006
0.000282763
0.000277277
0.000270552
0.000262623
0.000253551
0.000243535
0.000232703
0.000221203
0.000209374
0.000197631
0.000186058
0.000174367
0.000161903
0.000148211
0.000133751
0.000119806
0.000107489
9.69787e-05
8.7897e-05
7.99612e-05
7.33127e-05
6.83474e-05
6.69335e-05
0.000255971
0.000254153
0.000251346
0.00024749
0.000242558
0.000236568
0.000229555
0.000221625
0.000212923
0.000203546
0.000193674
0.000183666
0.000173597
0.000163265
0.000152224
0.000140142
0.000127349
0.000114848
0.000103602
9.38699e-05
8.54139e-05
7.8052e-05
7.15844e-05
6.68368e-05
5.98056e-05
0.000225365
0.000223625
0.000221008
0.000217493
0.000213056
0.000207711
0.000201507
0.000194584
0.000186974
0.000178775
0.000170284
0.000161584
0.000152544
0.000142841
0.000132237
0.000120973
0.000109826
9.96038e-05
9.06124e-05
8.27222e-05
7.58597e-05
6.97941e-05
6.53658e-05
5.94782e-05
0.000199118
0.000197447
0.000195016
0.000191795
0.000187777
0.000182983
0.000177519
0.000171403
0.000164674
0.00015754
0.000150096
0.000142261
0.000133802
0.000124543
0.000114669
0.000104777
9.55383e-05
8.72717e-05
7.99333e-05
7.34902e-05
6.78538e-05
6.32997e-05
5.98038e-05
0.000177452
0.000176481
0.000174878
0.000172605
0.000169649
0.000166
0.000161736
0.000156867
0.000151397
0.00014545
0.000139136
0.000132409
0.000125093
0.000117059
0.000108445
9.97144e-05
9.14157e-05
8.38619e-05
7.70771e-05
7.10395e-05
6.57957e-05
6.12099e-05
5.85945e-05
0.000157803
0.000156832
0.000155296
0.000153175
0.000150455
0.000147169
0.000143336
0.000138935
0.000134022
0.00012872
0.000123
0.000116724
0.000109795
0.000102319
9.46539e-05
8.72458e-05
8.03872e-05
7.41503e-05
6.8533e-05
6.36243e-05
5.92611e-05
5.64242e-05
0.000141179
0.000140679
0.000139711
0.000138244
0.000136262
0.000133765
0.000130784
0.000127286
0.000123275
0.000118862
0.00011404
0.0001087
0.000102765
9.63141e-05
8.96216e-05
8.30485e-05
7.68604e-05
7.11577e-05
6.59681e-05
6.13633e-05
5.73286e-05
5.41281e-05
0.000126205
0.000125668
0.000124709
0.000123308
0.000121455
0.000119181
0.000116437
0.0001132
0.000109565
0.000105539
0.000101034
9.59845e-05
9.04501e-05
8.46402e-05
7.88441e-05
7.32969e-05
6.81122e-05
6.33449e-05
5.90411e-05
5.53078e-05
5.19963e-05
0.000113242
0.000113026
0.00011246
0.000111521
0.000110186
0.00010848
0.000106356
0.000103779
0.000100818
9.74888e-05
9.37241e-05
8.94617e-05
8.47435e-05
7.97306e-05
7.46524e-05
6.97113e-05
6.50264e-05
6.06687e-05
5.66757e-05
5.31903e-05
4.99842e-05
0.000101654
0.000101386
0.000100803
9.98792e-05
9.863e-05
9.7017e-05
9.49987e-05
9.26164e-05
8.98925e-05
8.67753e-05
8.32055e-05
7.92099e-05
7.49122e-05
7.04918e-05
6.61204e-05
6.19131e-05
5.79489e-05
5.42684e-05
5.10022e-05
4.79867e-05
9.14201e-05
9.13761e-05
9.10672e-05
9.04697e-05
8.95876e-05
8.83913e-05
8.68412e-05
8.49497e-05
8.27474e-05
8.01901e-05
7.72242e-05
7.38646e-05
7.02045e-05
6.63817e-05
6.25403e-05
5.87859e-05
5.51997e-05
5.18254e-05
4.87715e-05
4.59478e-05
8.22155e-05
8.23361e-05
8.22361e-05
8.18933e-05
8.13009e-05
8.04438e-05
7.92772e-05
7.7797e-05
7.60373e-05
7.39641e-05
7.15238e-05
6.87213e-05
6.56255e-05
6.23421e-05
5.89878e-05
5.5659e-05
5.24328e-05
4.93545e-05
4.65146e-05
4.38638e-05
7.41747e-05
7.42308e-05
7.40833e-05
7.37194e-05
7.31326e-05
7.22818e-05
7.11459e-05
6.97618e-05
6.80998e-05
6.61098e-05
6.37893e-05
6.11888e-05
5.83889e-05
5.54803e-05
5.25471e-05
4.96607e-05
4.68671e-05
4.42371e-05
4.17493e-05
6.68095e-05
6.69797e-05
6.69794e-05
6.67947e-05
6.64217e-05
6.58243e-05
6.4975e-05
6.39039e-05
6.25888e-05
6.09829e-05
5.90783e-05
5.69103e-05
5.45384e-05
5.20338e-05
4.94655e-05
4.68972e-05
4.43739e-05
4.19529e-05
3.96199e-05
6.01642e-05
6.0414e-05
6.05241e-05
6.04774e-05
6.02728e-05
5.98766e-05
5.92617e-05
5.84486e-05
5.74235e-05
5.61435e-05
5.45944e-05
5.28013e-05
5.08061e-05
4.86629e-05
4.64288e-05
4.41573e-05
4.18866e-05
3.96699e-05
3.74907e-05
5.44755e-05
5.46646e-05
5.47218e-05
5.46459e-05
5.44088e-05
5.39821e-05
5.33829e-05
5.25973e-05
5.15884e-05
5.03409e-05
4.88698e-05
4.72041e-05
4.53826e-05
4.34503e-05
4.14525e-05
3.94212e-05
3.73972e-05
3.53732e-05
4.91056e-05
4.93493e-05
4.94826e-05
4.95041e-05
4.93902e-05
4.91144e-05
4.86872e-05
4.80984e-05
4.73153e-05
4.63215e-05
4.51244e-05
4.37433e-05
4.22056e-05
4.05446e-05
3.87959e-05
3.69871e-05
3.51494e-05
3.32756e-05
4.42516e-05
4.45301e-05
4.47178e-05
4.48114e-05
4.47917e-05
4.46349e-05
4.43456e-05
4.39157e-05
4.33178e-05
4.25357e-05
4.15701e-05
4.04332e-05
3.91431e-05
3.77235e-05
3.62014e-05
3.45973e-05
3.29359e-05
3.12092e-05
4.01646e-05
4.03893e-05
4.05344e-05
4.05851e-05
4.05193e-05
4.03386e-05
4.00361e-05
3.95891e-05
3.89811e-05
3.82099e-05
3.7281e-05
3.62052e-05
3.49982e-05
3.36793e-05
3.22639e-05
3.07677e-05
2.91844e-05
3.62135e-05
3.64601e-05
3.66399e-05
3.67414e-05
3.6745e-05
3.6648e-05
3.64462e-05
3.61201e-05
3.56546e-05
3.50446e-05
3.42912e-05
3.33994e-05
3.23786e-05
3.12412e-05
2.99969e-05
2.86559e-05
2.72102e-05
3.26368e-05
3.28949e-05
3.30969e-05
3.32341e-05
3.32885e-05
3.32551e-05
3.31319e-05
3.29025e-05
3.2552e-05
3.20742e-05
3.14674e-05
3.07323e-05
2.98727e-05
2.88958e-05
2.78063e-05
2.66093e-05
2.9664e-05
2.98778e-05
3.0038e-05
3.01283e-05
3.01424e-05
3.00793e-05
2.99249e-05
2.96662e-05
2.92962e-05
2.88109e-05
2.8208e-05
2.74873e-05
2.66511e-05
2.57008e-05
2.46363e-05
2.67371e-05
2.69552e-05
2.71285e-05
2.72431e-05
2.72914e-05
2.72729e-05
2.71764e-05
2.69904e-05
2.67074e-05
2.63218e-05
2.58294e-05
2.52271e-05
2.45138e-05
2.36874e-05
2.27447e-05
2.40875e-05
2.4304e-05
2.44832e-05
2.46123e-05
2.46843e-05
2.46986e-05
2.46458e-05
2.45162e-05
2.43024e-05
2.39981e-05
2.35973e-05
2.30954e-05
2.24886e-05
2.17721e-05
2.09402e-05
2.16907e-05
2.19019e-05
2.20809e-05
2.22171e-05
2.23042e-05
2.23412e-05
2.23208e-05
2.22345e-05
2.20753e-05
2.18363e-05
2.15113e-05
2.1094e-05
2.05786e-05
1.9959e-05
1.92275e-05
1.9524e-05
1.97263e-05
1.99009e-05
2.0039e-05
2.01347e-05
2.01869e-05
2.01899e-05
2.01361e-05
2.00192e-05
1.98326e-05
1.95694e-05
1.92228e-05
1.87858e-05
1.82511e-05
1.761e-05
1.77577e-05
1.79253e-05
1.80613e-05
1.81606e-05
1.82219e-05
1.82406e-05
1.82109e-05
1.81267e-05
1.79815e-05
1.77685e-05
1.74807e-05
1.71106e-05
1.665e-05
1.60897e-05
1.59782e-05
1.61365e-05
1.62675e-05
1.63663e-05
1.64321e-05
1.64614e-05
1.6449e-05
1.63894e-05
1.62767e-05
1.61044e-05
1.58652e-05
1.55517e-05
1.51556e-05
1.46673e-05
1.43704e-05
1.45182e-05
1.46423e-05
1.47382e-05
1.48053e-05
1.48408e-05
1.48401e-05
1.47988e-05
1.47115e-05
1.45718e-05
1.43728e-05
1.41072e-05
1.37668e-05
1.33424e-05
1.29192e-05
1.30559e-05
1.31717e-05
1.32627e-05
1.33284e-05
1.33669e-05
1.33742e-05
1.33463e-05
1.32785e-05
1.31649e-05
1.29989e-05
1.27738e-05
1.24816e-05
1.21135e-05
1.16103e-05
1.17355e-05
1.18424e-05
1.19275e-05
1.19902e-05
1.20293e-05
1.20415e-05
1.20232e-05
1.19702e-05
1.18774e-05
1.17386e-05
1.15475e-05
1.12967e-05
1.09781e-05
1.05446e-05
1.06423e-05
1.07207e-05
1.07794e-05
1.08173e-05
1.0832e-05
1.08205e-05
1.07789e-05
1.07025e-05
1.0586e-05
1.04235e-05
1.02083e-05
9.93298e-06
9.47127e-06
9.55978e-06
9.63118e-06
9.6851e-06
9.72093e-06
9.73667e-06
9.72968e-06
9.69659e-06
9.63328e-06
9.535e-06
9.3966e-06
9.212e-06
8.50488e-06
8.58444e-06
8.64876e-06
8.69769e-06
8.73075e-06
8.74634e-06
8.74226e-06
8.71555e-06
8.66262e-06
8.57938e-06
8.46119e-06
8.3027e-06
7.63531e-06
7.70644e-06
7.76395e-06
7.80777e-06
7.83767e-06
7.85243e-06
7.85011e-06
7.82814e-06
7.78348e-06
7.71261e-06
7.61144e-06
7.47529e-06
6.85356e-06
6.91682e-06
6.96787e-06
7.00667e-06
7.0333e-06
7.04672e-06
7.04532e-06
7.02692e-06
6.98888e-06
6.92822e-06
6.8414e-06
6.72435e-06
6.20727e-06
6.25227e-06
6.28638e-06
6.30973e-06
6.32156e-06
6.32053e-06
6.30479e-06
6.2721e-06
6.21987e-06
6.14514e-06
6.04444e-06
5.57018e-06
5.60961e-06
5.63934e-06
5.65956e-06
5.66975e-06
5.66875e-06
5.655e-06
5.62662e-06
5.58143e-06
5.5169e-06
5.43012e-06
4.99855e-06
5.03292e-06
5.05864e-06
5.07597e-06
5.08452e-06
5.08332e-06
5.07107e-06
5.04622e-06
5.00692e-06
4.95105e-06
4.87614e-06
4.48603e-06
4.51584e-06
4.53791e-06
4.55258e-06
4.55956e-06
4.55804e-06
4.54696e-06
4.52502e-06
4.49067e-06
4.44217e-06
4.37742e-06
4.02673e-06
4.05244e-06
4.07127e-06
4.08356e-06
4.08909e-06
4.08723e-06
4.07707e-06
4.05754e-06
4.02739e-06
3.98513e-06
3.92904e-06
3.61536e-06
3.63746e-06
3.65343e-06
3.66359e-06
3.66779e-06
3.66557e-06
3.65616e-06
3.63867e-06
3.61206e-06
3.57513e-06
3.2471e-06
3.26604e-06
3.27947e-06
3.28776e-06
3.29082e-06
3.28824e-06
3.27944e-06
3.26367e-06
3.24008e-06
3.2077e-06
2.93382e-06
2.94503e-06
2.95169e-06
2.95375e-06
2.95086e-06
2.94255e-06
2.92824e-06
2.90723e-06
2.87873e-06
2.63684e-06
2.64613e-06
2.65136e-06
2.65254e-06
2.64938e-06
2.64151e-06
2.62845e-06
2.60964e-06
2.58444e-06
2.37124e-06
2.37889e-06
2.38292e-06
2.38337e-06
2.38002e-06
2.37255e-06
2.36059e-06
2.34368e-06
2.32132e-06
2.13326e-06
2.13952e-06
2.14256e-06
2.14243e-06
2.13897e-06
2.13192e-06
2.12097e-06
2.10579e-06
2.08593e-06
1.91923e-06
1.92431e-06
1.92654e-06
1.92599e-06
1.92254e-06
1.91596e-06
1.90601e-06
1.89242e-06
1.87484e-06
1.72621e-06
1.73027e-06
1.73183e-06
1.73096e-06
1.72756e-06
1.72145e-06
1.71245e-06
1.70033e-06
1.55255e-06
1.55572e-06
1.55668e-06
1.55549e-06
1.55209e-06
1.54636e-06
1.53815e-06
1.52729e-06
1.3972e-06
1.39956e-06
1.39994e-06
1.39841e-06
1.39493e-06
1.38942e-06
1.38177e-06
1.37188e-06
1.26083e-06
1.26066e-06
1.25877e-06
1.25514e-06
1.24973e-06
1.24244e-06
1.23324e-06
1.13734e-06
1.13667e-06
1.13442e-06
1.13061e-06
1.1252e-06
1.11811e-06
1.10941e-06
1.02862e-06
1.02784e-06
1.02564e-06
1.0222e-06
1.01714e-06
1.0105e-06
1.00273e-06
9.42801e-07
9.4178e-07
9.39357e-07
9.36119e-07
9.31128e-07
9.24506e-07
9.17516e-07
8.73294e-07
8.71874e-07
8.68918e-07
8.65244e-07
8.59741e-07
8.52419e-07
8.07735e-07
8.06567e-07
8.03848e-07
8.00379e-07
7.9516e-07
7.88018e-07
7.43346e-07
7.41656e-07
7.38359e-07
7.34287e-07
7.28734e-07
7.2099e-07
6.83604e-07
6.8271e-07
6.803e-07
6.76945e-07
6.72358e-07
6.66062e-07
6.18945e-07
6.15857e-07
6.11212e-07
6.05957e-07
5.99879e-07
5.90606e-07
5.77399e-07
5.77643e-07
5.76347e-07
5.73143e-07
5.6942e-07
5.6599e-07
4.90695e-07
4.84112e-07
4.78622e-07
4.72093e-07
4.57909e-07
5.19736e-07
5.22614e-07
5.19505e-07
5.18605e-07
5.28254e-07
4.09035e-07
4.09904e-07
4.16039e-07
4.13516e-07
3.97248e-07
6.20528e-07
6.37862e-07
6.36219e-07
6.43687e-07
6.77593e-07
6.94859e-07
7.15248e-07
7.44436e-07
9.92301e-07
1.05021e-06
1.01258e-06
9.6133e-07
)
;

boundaryField
{
    inlet
    {
        type            calculated;
        value           nonuniform List<scalar> 4(4.38282e-06 4.66364e-06 4.72343e-06 4.77861e-06);
    }
    outlet
    {
        type            calculated;
        value           nonuniform List<scalar> 0();
    }
    walls
    {
        type            calculated;
        value           uniform 0;
    }
    frontAndBack
    {
        type            empty;
    }
    procBoundary5to0
    {
        type            processor;
        value           nonuniform List<scalar> 4(0.00050998 0.000503996 0.000497405 0.000489191);
    }
    procBoundary5to1
    {
        type            processor;
        value           nonuniform List<scalar> 
13
(
0.00288459
0.00215674
0.00215674
0.00172474
0.00145603
0.00145603
0.00115746
0.000979172
0.000979172
0.00079911
0.000660836
0.000568082
0.000568082
)
;
    }
    procBoundary5to4
    {
        type            processor;
        value           nonuniform List<scalar> 
95
(
0.000514649
0.000518545
0.00052156
0.00052156
0.000446719
0.000447595
0.000447595
0.000386287
0.000385602
0.000385602
0.000334554
0.000334554
0.000291969
0.000291969
0.000256866
0.000226296
0.000226296
0.000200065
0.000200065
0.000177825
0.000158256
0.000158256
0.000141244
0.000126355
0.000126355
0.000113133
0.00010163
0.00010163
9.12226e-05
8.18943e-05
7.39357e-05
7.39357e-05
6.64888e-05
5.97885e-05
5.41713e-05
5.41713e-05
4.87662e-05
4.3894e-05
3.9865e-05
3.9865e-05
3.5904e-05
3.23271e-05
2.94026e-05
2.94026e-05
2.64786e-05
2.38367e-05
2.14509e-05
1.92973e-05
1.75665e-05
1.75665e-05
1.57992e-05
1.42045e-05
1.27667e-05
1.1471e-05
1.04307e-05
1.04307e-05
9.36823e-06
8.41225e-06
7.55246e-06
6.77976e-06
6.15136e-06
6.15136e-06
5.52096e-06
4.95538e-06
4.44828e-06
3.99384e-06
3.58677e-06
3.2223e-06
2.91766e-06
2.91766e-06
2.62309e-06
2.35961e-06
2.12344e-06
1.91097e-06
1.71933e-06
1.54685e-06
1.39255e-06
1.2592e-06
1.2592e-06
1.13636e-06
1.02789e-06
9.42309e-07
8.73097e-07
8.07334e-07
7.43407e-07
6.83008e-07
6.20658e-07
5.75357e-07
4.96003e-07
4.96003e-07
5.15553e-07
4.06455e-07
6.05181e-07
6.51913e-07
9.90369e-07
)
;
    }
    procBoundary5to6
    {
        type            processor;
        value           nonuniform List<scalar> 
86
(
25.5511
9.49942
12.0588
12.3566
7.95634
1.76213
0.125687
0.0506441
0
0
1.98005e-10
2.81697e-06
4.30692e-05
8.17541e-05
7.54231e-05
6.01279e-05
5.27148e-05
5.14475e-05
5.18033e-05
5.13858e-05
4.99043e-05
4.78701e-05
4.57097e-05
4.35857e-05
4.15131e-05
3.94604e-05
3.74155e-05
3.53804e-05
3.33596e-05
3.1367e-05
2.94129e-05
2.75021e-05
2.56452e-05
2.52956e-05
2.52956e-05
2.34485e-05
2.16751e-05
1.99814e-05
1.83722e-05
1.68501e-05
1.54173e-05
1.40748e-05
1.28224e-05
1.16586e-05
1.05815e-05
9.58824e-06
8.97439e-06
8.97439e-06
8.09793e-06
7.29895e-06
6.57256e-06
5.91381e-06
5.31774e-06
4.77936e-06
4.29403e-06
3.85714e-06
3.52644e-06
3.52644e-06
3.16534e-06
2.84176e-06
2.55205e-06
2.29286e-06
2.06089e-06
1.85285e-06
1.68483e-06
1.68483e-06
1.51356e-06
1.35958e-06
1.22202e-06
1.09899e-06
9.93387e-07
9.09176e-07
8.45109e-07
8.45109e-07
7.80703e-07
7.13209e-07
6.58757e-07
5.82426e-07
5.58036e-07
4.51405e-07
5.18084e-07
4.03491e-07
6.97047e-07
6.97047e-07
7.47836e-07
1.26546e-06
)
;
    }
}


// ************************************************************************* //
