/*--------------------------------*- C++ -*----------------------------------*\
| =========                 |                                                 |
| \\      /  F ield         | OpenFOAM: The Open Source CFD Toolbox           |
|  \\    /   O peration     | Version:  2506                                  |
|   \\  /    A nd           | Website:  www.openfoam.com                      |
|    \\/     M anipulation  |                                                 |
\*---------------------------------------------------------------------------*/
FoamFile
{
    version     2.0;
    format      ascii;
    arch        "LSB;label=32;scalar=64";
    class       volScalarField;
    location    "250";
    object      turbulenceProperties:I;
}
// * * * * * * * * * * * * * * * * * * * * * * * * * * * * * * * * * * * * * //

dimensions      [0 0 0 0 0 0 0];

internalField   nonuniform List<scalar> 
1340
(
0.00417377
0.00414882
0.00416897
0.00429737
0.00446067
0.00468996
0.00500288
0.0053885
0.00586595
0.00645402
0.00717232
0.00806309
0.00918681
0.0106267
0.012526
0.0150827
0.0186864
0.0238148
0.0319836
0.0443623
0.0692301
0.111286
0.226863
0.418935
0.505736
0.465537
0.40744
0.365768
0.338881
0.321812
0.310764
0.303068
0.29862
0.296519
0.296567
0.0042252
0.00438224
0.00456314
0.00498508
0.00568693
0.00704447
0.0101844
0.00181795
0.00166483
0.00152723
0.00139736
0.00127673
0.00116851
0.00106935
0.000977925
0.000896836
0.000824194
0.000759308
0.000711272
0.00069205
0.00071127
0.000795472
0.000979387
0.00132804
0.00189941
0.00294033
0.00464088
0.00812799
0.0141023
0.0263401
0.0517485
0.0800524
0.108173
0.136118
0.160369
0.174784
0.176959
0.170637
0.161325
0.152997
0.147087
0.144239
0.00198367
0.00219107
0.00246997
0.002868
0.00346337
0.0043977
0.00157871
0.00145476
0.00133328
0.00121903
0.00112075
0.00103359
0.000958141
0.000895692
0.000844793
0.000804917
0.000774032
0.000752403
0.000739097
0.000733999
0.000729745
0.000715085
0.000666933
0.000617315
0.000208051
0.00151374
0.000945097
0.00122068
0.000444042
0.00273044
0.00808935
0.015298
0.0252352
0.0398777
0.0596278
0.0826653
0.104886
0.121578
0.130469
0.133621
0.134912
0.00172235
0.00189307
0.00212887
0.0024434
0.00286712
0.00342273
0.00149026
0.00138672
0.001287
0.0011963
0.00111319
0.00103589
0.000965467
0.000900526
0.00084092
0.000785945
0.000734994
0.000687241
0.000641837
0.000598285
0.000555809
0.000512288
0.000468815
0.000428371
0.000373618
0.00028418
2.22468e-06
0.000430315
0.000367162
0.00149125
0.00289063
0.00409178
0.00312984
0.00220703
0.00379826
0.0123392
0.0271318
0.0477003
0.0708126
0.0915285
0.10695
0.00160003
0.00172806
0.00189089
0.00210526
0.00237229
0.00131455
0.00122934
0.00114551
0.00106626
0.000993138
0.000924154
0.000860415
0.000801961
0.000748333
0.000700022
0.000656855
0.000618821
0.000586137
0.000558814
0.000536827
0.000519314
0.00050296
0.000485276
0.000467407
0.000441498
0.000364569
0.000209649
8.51076e-05
3.50853e-05
0
0
0.00197704
0.00221196
0.00331705
0.00228179
0.00367471
0.00522727
0.012943
0.0335082
0.0583883
0.00140566
0.00150909
0.00163739
0.00179524
0.00197616
0.00119676
0.00112918
0.00106145
0.000997526
0.000938168
0.000881748
0.000829285
0.000780516
0.000735027
0.000692787
0.000653392
0.000616599
0.000582265
0.000550151
0.00052007
0.000490973
0.00046103
0.000431037
0.000402766
0.000377683
0.000357411
0.000327932
0.000279411
0.000127625
6.48833e-05
4.76241e-05
3.09523e-05
4.55879e-07
0
0.000869561
0.0018652
0.00443752
0.00152967
0.00724851
0.0107258
0.00126673
0.00134416
0.00143792
0.00155018
0.0010772
0.00102231
0.000966412
0.000912738
0.000862503
0.000813994
0.000768204
0.000725188
0.000684528
0.00064636
0.00061054
0.000576954
0.000545683
0.000516769
0.000490201
0.000466223
0.000445421
0.000427021
0.000409362
0.000391621
0.000375
0.000361743
0.000347919
0.000319006
0.00026603
0.000202023
0.000120938
1.62028e-06
4.20944e-05
1.52532e-05
0
0
0.000495208
0.00416268
0.0034394
0.00113331
0.00119402
0.00126588
0.00134882
0.000977317
0.00093332
0.000887844
0.000843775
0.000802346
0.000761995
0.000723745
0.000687638
0.000653319
0.000620914
0.000590212
0.0005611
0.000533553
0.000507485
0.000482826
0.000459585
0.000437243
0.000415003
0.000393332
0.000373187
0.000355526
0.000341554
0.000332136
0.000325825
0.000314518
0.000294836
0.000265972
0.00022561
0.000179924
6.08484e-05
4.28395e-05
1.13217e-05
0
0
0.00133045
0.00102148
0.00106848
0.00112328
0.00118504
0.000887727
0.000852037
0.000814647
0.000777978
0.00074333
0.000709234
0.000676618
0.00064558
0.000615803
0.0005874
0.000560241
0.000534219
0.000509351
0.000485605
0.000463011
0.000441549
0.000421297
0.000402592
0.000385274
0.00036912
0.000354148
0.000340851
0.000329691
0.000320383
0.000311105
0.000299653
0.000286719
0.000272772
0.000257149
0.000225699
0.000189185
5.08136e-05
3.45059e-05
0
0
0.000923091
0.000960136
0.00100277
0.000690627
0.000662041
0.000634536
0.000608236
0.000582876
0.000558564
0.000535171
0.000512608
0.000490885
0.000469964
0.000449846
0.000430532
0.000412083
0.000394278
0.000376982
0.000360577
0.000345638
0.00033266
0.000321777
0.00031209
0.000301914
0.000290164
0.000277689
0.00026657
0.000258376
0.000252056
0.000245831
0.000217151
0.00015264
4.61135e-05
3.03345e-06
0.000594526
0.000572122
0.000550373
0.000529396
0.000509071
0.000489311
0.000470122
0.000451469
0.000433373
0.000415867
0.000398974
0.000382792
0.000367423
0.000352946
0.000339601
0.000327592
0.000317011
0.000307279
0.000297039
0.000285248
0.000272322
0.000260174
0.000250493
0.000244227
0.000240842
0.000241239
0.000233006
0.000190887
1.37054e-05
0.000519995
0.000502015
0.000484506
0.000467384
0.000450647
0.000434269
0.000418255
0.000402636
0.000387457
0.000372802
0.00035862
0.000345009
0.000332326
0.000320851
0.00031063
0.000301192
0.000291452
0.000280471
0.000268411
0.000256632
0.000246493
0.000238571
0.000232539
0.000230434
0.000232103
0.000237363
0.000201683
0.000475709
0.00046062
0.000445781
0.000431182
0.000416786
0.000402605
0.000388672
0.000375018
0.000361753
0.00034892
0.000336598
0.000325004
0.00031434
0.000304613
0.000295473
0.000286123
0.000275828
0.000264673
0.000253702
0.000244043
0.000236029
0.000229335
0.000224277
0.000222142
0.000225287
0.000240019
0.000437806
0.000424993
0.000412327
0.000399768
0.000387312
0.000374987
0.00036282
0.00035092
0.000339325
0.000328074
0.000317344
0.000307371
0.000298157
0.000289421
0.000280542
0.00027093
0.000260622
0.00025045
0.000241397
0.000233785
0.000227401
0.000222088
0.000218267
0.000216869
0.000221594
0.000415959
0.000404933
0.000393974
0.000383044
0.000372127
0.000361257
0.000350461
0.000339813
0.000329395
0.00031924
0.000309441
0.000300224
0.00029159
0.000283315
0.000274931
0.000265971
0.000256439
0.000246988
0.000238466
0.000231235
0.000225183
0.000220255
0.000216354
0.000214997
0.000209854
0.000385672
0.000376221
0.000366745
0.000357238
0.00034771
0.000338187
0.000328719
0.000319411
0.000310269
0.000301348
0.000292854
0.00028481
0.000277044
0.000269184
0.000260867
0.00025208
0.00024333
0.000235329
0.000228449
0.000222656
0.000218003
0.000214328
0.000213167
0.000209672
0.000359075
0.000350901
0.000342653
0.000334336
0.000325972
0.000317598
0.000309316
0.000301135
0.00029308
0.000285313
0.00027788
0.000270652
0.00026334
0.000255652
0.000247572
0.000239497
0.000232016
0.000225491
0.000219949
0.000215461
0.000212047
0.000210334
0.000210652
0.000342573
0.000335543
0.000328417
0.000321194
0.00031389
0.000306527
0.000299195
0.000291913
0.000284686
0.000277623
0.000270803
0.000264134
0.000257379
0.000250308
0.000242906
0.00023548
0.000228519
0.000222363
0.000217089
0.000212751
0.000209546
0.000207411
0.000208929
0.00032068
0.000314556
0.000308316
0.00030197
0.000295537
0.000289081
0.000282634
0.000276191
0.000269812
0.000263604
0.000257502
0.000251307
0.000244836
0.000238078
0.000231276
0.000224829
0.000219052
0.000214057
0.0002099
0.000206818
0.000204673
0.000205447
0.000306351
0.000301111
0.000295749
0.000290266
0.000284676
0.000279015
0.000273341
0.000267637
0.000261922
0.000256311
0.000250768
0.000245128
0.000239241
0.000233098
0.000226892
0.00022095
0.000215555
0.000210843
0.00020689
0.000203885
0.000201913
0.000201653
0.000288079
0.000283498
0.000278787
0.000273957
0.000269032
0.000264077
0.00025906
0.00025398
0.000248948
0.000243953
0.000238857
0.000233532
0.000227974
0.000222335
0.000216885
0.000211875
0.000207449
0.000203708
0.00020078
0.000198938
0.000198078
0.00027548
0.000271589
0.00026757
0.000263429
0.000259175
0.00025487
0.000250485
0.000246007
0.000241531
0.000237063
0.000232496
0.000227714
0.000222711
0.000217612
0.000212639
0.000208011
0.000203875
0.000200346
0.000197521
0.000195719
0.000194648
0.000260041
0.000256636
0.000253108
0.00024946
0.000245744
0.000241941
0.000238031
0.000234083
0.000230122
0.000226061
0.000221795
0.000217317
0.000212732
0.000208218
0.000203968
0.000200122
0.000196801
0.000194094
0.000192285
0.000191166
0.000248854
0.000245994
0.000243014
0.000239913
0.000236733
0.000233463
0.000230081
0.000226629
0.000223149
0.000219566
0.000215787
0.000211805
0.000207704
0.00020363
0.000199749
0.000196192
0.00019308
0.000190497
0.000188673
0.000187512
0.000238038
0.000235659
0.000233166
0.000230558
0.000227857
0.000225074
0.000222175
0.000219183
0.00021615
0.00021302
0.000209703
0.000206187
0.000202542
0.000198887
0.000195362
0.00019209
0.000189184
0.000186726
0.000184902
0.000183665
0.000225638
0.000223576
0.000221405
0.000219137
0.000216791
0.000214337
0.00021177
0.000209158
0.000206448
0.000203558
0.000200475
0.000197256
0.000193998
0.000190816
0.000187822
0.00018512
0.000182787
0.000180965
0.00017964
0.000215935
0.000214254
0.00021247
0.00021059
0.000208636
0.000206582
0.00020441
0.000202182
0.000199861
0.000197367
0.000194685
0.000191862
0.000188976
0.000186123
0.000183397
0.000180892
0.000178683
0.000176878
0.000175457
0.000206551
0.000205202
0.000203762
0.000202229
0.000200628
0.00019893
0.000197117
0.00019524
0.000193273
0.000191145
0.000188832
0.000186376
0.000183837
0.000181292
0.000178825
0.000176515
0.000174422
0.000172643
0.000171136
0.000196432
0.000195293
0.000194066
0.000192776
0.000191397
0.000189907
0.00018835
0.000186705
0.000184906
0.000182931
0.000180812
0.000178594
0.00017634
0.000174116
0.000171994
0.000170021
0.000168264
0.000166689
0.000187943
0.000187066
0.000186109
0.000185093
0.000183996
0.000182795
0.000181525
0.00018017
0.000178669
0.000177002
0.000175188
0.000173265
0.00017128
0.000169287
0.000167342
0.000165485
0.000163761
0.000162126
0.000179734
0.000179084
0.000178364
0.000177588
0.00017674
0.000175796
0.000174781
0.000173684
0.00017245
0.000171058
0.000169521
0.000167866
0.000166129
0.000164351
0.000162576
0.000160829
0.000159142
0.000157461
0.000171352
0.000170838
0.000170271
0.000169641
0.000168921
0.000168131
0.000167261
0.000166265
0.000165118
0.000163829
0.000162416
0.000160906
0.000159326
0.000157709
0.000156072
0.000154425
0.000152711
0.000163872
0.000163534
0.000163147
0.000162705
0.000162182
0.000161587
0.000160916
0.000160126
0.000159196
0.000158128
0.000156933
0.000155627
0.00015423
0.000152761
0.000151227
0.000149625
0.000147893
0.000156639
0.000156452
0.00015622
0.00015594
0.000155585
0.00015516
0.000154661
0.000154054
0.000153313
0.000152437
0.000151434
0.000150312
0.00014908
0.000147748
0.000146313
0.000144761
0.000149597
0.000149496
0.000149353
0.000149142
0.000148861
0.000148511
0.000148059
0.000147481
0.000146774
0.00014594
0.00014498
0.000143896
0.000142689
0.000141349
0.000139849
0.000142966
0.000142976
0.000142948
0.000142859
0.0001427
0.000142475
0.000142154
0.000141716
0.000141155
0.000140467
0.00013965
0.000138699
0.000137606
0.000136355
0.000134911
0.00013656
0.000136662
0.000136729
0.00013674
0.000136685
0.000136564
0.000136353
0.000136033
0.000135595
0.000135034
0.000134341
0.000133506
0.000132518
0.00013135
0.000129965
0.000130378
0.000130556
0.000130701
0.000130793
0.000130821
0.000130786
0.000130667
0.000130445
0.000130111
0.000129656
0.00012907
0.000128338
0.000127443
0.000126355
0.00012503
0.000124418
0.000124656
0.000124863
0.00012502
0.000125116
0.000125151
0.000125106
0.000124964
0.000124716
0.000124351
0.000123856
0.000123213
0.000122401
0.000121387
0.000120125
0.000118963
0.000119219
0.000119427
0.000119577
0.000119666
0.000119679
0.000119602
0.000119424
0.000119133
0.000118715
0.000118149
0.000117411
0.000116467
0.000115268
0.000113476
0.000113768
0.000114014
0.000114204
0.000114335
0.000114394
0.000114368
0.000114247
0.000114017
0.000113662
0.000113162
0.00011249
0.00011161
0.000110475
0.000108191
0.00010851
0.000108784
0.000109003
0.000109165
0.000109259
0.000109272
0.000109194
0.000109013
0.000108712
0.000108267
0.000107654
0.000106835
0.000105763
0.000103108
0.000103445
0.000103738
0.000103977
0.00010416
0.000104278
0.000104321
0.000104277
0.000104134
0.000103876
0.000103479
0.000102917
0.000102154
0.000101145
9.82245e-05
9.85713e-05
9.88759e-05
9.91271e-05
9.93235e-05
9.94584e-05
9.95211e-05
9.95022e-05
9.93892e-05
9.91655e-05
9.88087e-05
9.82925e-05
9.75827e-05
9.66343e-05
9.38881e-05
9.41973e-05
9.44545e-05
9.46579e-05
9.48019e-05
9.4878e-05
9.48768e-05
9.47866e-05
9.45906e-05
9.42674e-05
9.37918e-05
9.3131e-05
9.22426e-05
8.93931e-05
8.97016e-05
8.99592e-05
9.0164e-05
9.03121e-05
9.03958e-05
9.04067e-05
9.0333e-05
9.01587e-05
8.98638e-05
8.94245e-05
8.88093e-05
8.5084e-05
8.53875e-05
8.56408e-05
8.58431e-05
8.59909e-05
8.60777e-05
8.60956e-05
8.60334e-05
8.58762e-05
8.56054e-05
8.51981e-05
8.46253e-05
8.09571e-05
8.12525e-05
8.14986e-05
8.16948e-05
8.18388e-05
8.19252e-05
8.19465e-05
8.1892e-05
8.1748e-05
8.14975e-05
8.11188e-05
8.05854e-05
7.70096e-05
7.72945e-05
7.75309e-05
7.77183e-05
7.78561e-05
7.79391e-05
7.79607e-05
7.7911e-05
7.77773e-05
7.75439e-05
7.71911e-05
7.66944e-05
7.35103e-05
7.37351e-05
7.39124e-05
7.40418e-05
7.41194e-05
7.41391e-05
7.40919e-05
7.39662e-05
7.37473e-05
7.34177e-05
7.29553e-05
6.98965e-05
7.01085e-05
7.02742e-05
7.03941e-05
7.04651e-05
7.04815e-05
7.04352e-05
7.03154e-05
7.01091e-05
6.98004e-05
6.93695e-05
6.64493e-05
6.66476e-05
6.68012e-05
6.69109e-05
6.69744e-05
6.69863e-05
6.69394e-05
6.68243e-05
6.66291e-05
6.63395e-05
6.59377e-05
6.31648e-05
6.33491e-05
6.349e-05
6.3589e-05
6.36443e-05
6.36511e-05
6.3603e-05
6.34914e-05
6.33059e-05
6.30337e-05
6.2659e-05
6.00381e-05
6.0208e-05
6.03364e-05
6.04248e-05
6.04717e-05
6.04732e-05
6.04233e-05
6.03144e-05
6.01375e-05
5.98812e-05
5.95314e-05
5.70647e-05
5.72207e-05
5.73367e-05
5.74145e-05
5.74529e-05
5.74488e-05
5.73968e-05
5.72902e-05
5.7121e-05
5.68791e-05
5.42398e-05
5.43824e-05
5.44863e-05
5.45538e-05
5.45841e-05
5.45744e-05
5.45201e-05
5.44152e-05
5.42528e-05
5.40241e-05
5.1689e-05
5.17812e-05
5.18388e-05
5.18613e-05
5.18461e-05
5.17892e-05
5.16857e-05
5.15293e-05
5.13125e-05
4.9136e-05
4.92171e-05
4.92651e-05
4.928e-05
4.92595e-05
4.92001e-05
4.90976e-05
4.89465e-05
4.87405e-05
4.67163e-05
4.67871e-05
4.68264e-05
4.68344e-05
4.6809e-05
4.67474e-05
4.66458e-05
4.64996e-05
4.63034e-05
4.44196e-05
4.4481e-05
4.45124e-05
4.45141e-05
4.44847e-05
4.44215e-05
4.43214e-05
4.41803e-05
4.39935e-05
4.22318e-05
4.22844e-05
4.23089e-05
4.23056e-05
4.22733e-05
4.22096e-05
4.21117e-05
4.19765e-05
4.17997e-05
4.01419e-05
4.01864e-05
4.02046e-05
4.01969e-05
4.01621e-05
4.00985e-05
4.00037e-05
3.98747e-05
3.81506e-05
3.81874e-05
3.81991e-05
3.81866e-05
3.81491e-05
3.80849e-05
3.79922e-05
3.78687e-05
3.62652e-05
3.6294e-05
3.6299e-05
3.62809e-05
3.62393e-05
3.61731e-05
3.60807e-05
3.59605e-05
3.45151e-05
3.45129e-05
3.44885e-05
3.44418e-05
3.4372e-05
3.42777e-05
3.41584e-05
3.28419e-05
3.28322e-05
3.2801e-05
3.27485e-05
3.26738e-05
3.2576e-05
3.24554e-05
3.12879e-05
3.1276e-05
3.12435e-05
3.11932e-05
3.11191e-05
3.10216e-05
3.09076e-05
2.99967e-05
2.99804e-05
2.99427e-05
2.98929e-05
2.98159e-05
2.97134e-05
2.96057e-05
2.89032e-05
2.88795e-05
2.88311e-05
2.87717e-05
2.86825e-05
2.85634e-05
2.78298e-05
2.78093e-05
2.77628e-05
2.77042e-05
2.76158e-05
2.74945e-05
2.67292e-05
2.66983e-05
2.66392e-05
2.65668e-05
2.64678e-05
2.63294e-05
2.56631e-05
2.56456e-05
2.56004e-05
2.55381e-05
2.54528e-05
2.53356e-05
2.44484e-05
2.43866e-05
2.42945e-05
2.41906e-05
2.40701e-05
2.38852e-05
2.36407e-05
2.36447e-05
2.36179e-05
2.35525e-05
2.34767e-05
2.34074e-05
2.18194e-05
2.16723e-05
2.15494e-05
2.14024e-05
2.10797e-05
2.24762e-05
2.25375e-05
2.24702e-05
2.2451e-05
2.26596e-05
1.99695e-05
1.99902e-05
2.0139e-05
2.00776e-05
1.96793e-05
2.46006e-05
2.49402e-05
2.49073e-05
2.50531e-05
2.57733e-05
2.60976e-05
2.6476e-05
2.70084e-05
3.11155e-05
3.20053e-05
3.14222e-05
3.06078e-05
)
;

boundaryField
{
    inlet
    {
        type            calculated;
        value           nonuniform List<scalar> 4(6.5547e-05 6.76109e-05 6.80336e-05 6.84148e-05);
    }
    outlet
    {
        type            calculated;
        value           nonuniform List<scalar> 0();
    }
    walls
    {
        type            calculated;
        value           uniform 0;
    }
    frontAndBack
    {
        type            empty;
    }
    procBoundary5to0
    {
        type            processor;
        value           nonuniform List<scalar> 4(0.000809549 0.000837892 0.000867249 0.000900708);
    }
    procBoundary5to1
    {
        type            processor;
        value           nonuniform List<scalar> 
13
(
0.0170027
0.00583355
0.00583355
0.00405572
0.00268416
0.00268416
0.00216716
0.00167232
0.00167232
0.00143476
0.00124695
0.0010497
0.0010497
)
;
    }
    procBoundary5to4
    {
        type            processor;
        value           nonuniform List<scalar> 
95
(
0.000780574
0.000749865
0.000719481
0.000719481
0.000641937
0.00061786
0.00061786
0.000557585
0.000538555
0.000538555
0.000491128
0.000491128
0.000450763
0.000450763
0.000427065
0.000395141
0.000395141
0.000367191
0.000367191
0.000349521
0.0003267
0.0003267
0.000311473
0.000292537
0.000292537
0.000279245
0.00026332
0.00026332
0.000251595
0.000240304
0.000227593
0.000227593
0.00021752
0.00020781
0.00019749
0.00019749
0.000188745
0.000180317
0.000171803
0.000171803
0.000164153
0.000156776
0.000149656
0.000149656
0.000142917
0.000136422
0.000130168
0.000124149
0.000118677
0.000118677
0.000113153
0.000107843
0.000102742
9.78483e-05
9.35374e-05
9.35374e-05
8.9043e-05
8.4739e-05
8.06206e-05
7.66839e-05
7.32381e-05
7.32381e-05
6.96383e-05
6.62058e-05
6.29362e-05
5.98247e-05
5.68663e-05
5.4056e-05
5.15594e-05
5.15594e-05
4.90187e-05
4.66109e-05
4.43252e-05
4.21475e-05
4.00675e-05
3.80853e-05
3.6209e-05
3.44943e-05
3.44943e-05
3.28292e-05
3.1278e-05
2.99901e-05
2.89013e-05
2.78243e-05
2.67318e-05
2.56534e-05
2.44837e-05
2.36006e-05
2.19378e-05
2.19378e-05
2.23871e-05
1.99073e-05
2.42969e-05
2.52821e-05
3.10915e-05
)
;
    }
    procBoundary5to6
    {
        type            processor;
        value           nonuniform List<scalar> 
86
(
0.298823
0.144626
0.136697
0.117921
0.0824623
0.0357358
0.00949169
0.00621092
0
0
3.93963e-07
4.69572e-05
0.000183836
0.00025368
0.000243984
0.000218096
0.00020444
0.000202203
0.000203144
0.000202571
0.000199878
0.000196011
0.000191786
0.000187528
0.000183267
0.000178933
0.000174492
0.000169938
0.000165274
0.000160525
0.000155709
0.000150832
0.000145918
0.000143023
0.000143023
0.000138121
0.000133202
0.000128287
0.000123394
0.000118539
0.000113739
0.00010901
0.000104367
9.98213e-05
9.53854e-05
9.10683e-05
8.79789e-05
8.79789e-05
8.38507e-05
7.98643e-05
7.60239e-05
7.23325e-05
6.8792e-05
6.5402e-05
6.21625e-05
5.90713e-05
5.65522e-05
5.65522e-05
5.37184e-05
5.1026e-05
4.84714e-05
4.60499e-05
4.3755e-05
4.15759e-05
3.97081e-05
3.97081e-05
3.77114e-05
3.581e-05
3.4012e-05
3.23105e-05
3.07698e-05
2.94765e-05
2.84451e-05
2.84451e-05
2.73705e-05
2.61905e-05
2.51994e-05
2.37219e-05
2.32447e-05
2.09313e-05
2.24422e-05
1.98343e-05
2.607e-05
2.607e-05
2.70697e-05
3.5108e-05
)
;
    }
}


// ************************************************************************* //
