/*--------------------------------*- C++ -*----------------------------------*\
| =========                 |                                                 |
| \\      /  F ield         | OpenFOAM: The Open Source CFD Toolbox           |
|  \\    /   O peration     | Version:  2506                                  |
|   \\  /    A nd           | Website:  www.openfoam.com                      |
|    \\/     M anipulation  |                                                 |
\*---------------------------------------------------------------------------*/
FoamFile
{
    version     2.0;
    format      ascii;
    arch        "LSB;label=32;scalar=64";
    class       volVectorField;
    location    "250";
    object      U;
}
// * * * * * * * * * * * * * * * * * * * * * * * * * * * * * * * * * * * * * //

dimensions      [0 1 -1 0 0 0 0];

internalField   nonuniform List<vector> 
1340
(
(0.226973 27.6468 6.74868e-18)
(1.96423 29.9429 -5.62392e-17)
(4.13701 32.1613 2.12893e-16)
(6.63462 33.8941 -4.10411e-16)
(9.39067 35.2243 3.14727e-16)
(12.3369 36.1096 2.00411e-16)
(15.3183 36.4518 -3.61723e-16)
(18.2392 36.2853 1.24264e-15)
(21.0145 35.6751 -8.39486e-16)
(23.5613 34.656 -5.81021e-16)
(25.8428 33.3232 3.00339e-16)
(27.8123 31.7257 1.67829e-15)
(29.4227 29.8605 6.52423e-16)
(30.6578 27.7676 5.97912e-16)
(31.4747 25.4624 1.43049e-15)
(31.8456 22.9759 1.24049e-15)
(31.7004 20.3095 -2.52935e-15)
(30.9621 17.4996 -8.97385e-15)
(29.497 14.5587 6.68093e-15)
(27.1782 11.5512 -3.12708e-16)
(23.8656 8.54139 -1.30762e-15)
(19.61 5.68932 -2.41981e-15)
(14.9456 3.24147 8.24911e-15)
(11.5025 1.45258 -2.14028e-15)
(10.1239 0.269932 1.47054e-15)
(10.7618 -0.354004 -3.14434e-15)
(12.1806 -0.59832 1.8867e-16)
(13.6863 -0.721189 -1.36874e-15)
(14.9277 -0.874359 -5.43877e-15)
(15.7496 -1.09057 -7.66477e-15)
(16.1817 -1.35139 7.70806e-15)
(16.318 -1.62538 2.68935e-15)
(16.1157 -1.87186 1.10633e-15)
(15.6083 -2.0674 3.71172e-14)
(14.7796 -2.18759 -5.57385e-15)
(-1.14305 25.1964 7.66475e-18)
(-2.24894 22.4359 1.16863e-17)
(-3.01442 19.3292 -9.05173e-17)
(-3.31687 15.733 8.60538e-17)
(-2.99666 12.0183 -2.86072e-16)
(-2.02404 8.3206 7.07957e-16)
(-0.486875 4.95168 1.88664e-15)
(7.15345 23.9926 -3.5466e-18)
(9.04384 25.7196 -2.16291e-17)
(11.3472 27.2837 1.5074e-17)
(14.0029 28.5803 6.47219e-17)
(16.8645 29.5495 -3.30655e-16)
(19.9369 30.1313 -1.76139e-16)
(23.1074 30.279 -5.8218e-16)
(26.2435 30.014 1.14534e-16)
(29.2913 29.346 -4.87223e-16)
(32.1679 28.3269 -8.47568e-17)
(34.8173 27.0094 1.21759e-15)
(37.2325 25.4921 -1.62265e-15)
(39.4222 23.865 -9.28208e-16)
(41.3981 22.1606 -1.68375e-17)
(43.1474 20.4097 5.61877e-16)
(44.6295 18.651 -1.17296e-15)
(45.8254 16.9078 -6.08907e-16)
(46.6985 15.2091 3.57512e-15)
(47.1879 13.5622 -5.88129e-16)
(47.1818 11.9717 -1.20944e-15)
(46.4879 10.3888 -1.7023e-15)
(44.8788 8.71628 1.48002e-15)
(42.2149 6.81712 -2.19457e-15)
(38.6974 4.75686 -2.05494e-16)
(35.1814 2.86765 1.18445e-15)
(32.0385 1.34833 1.13683e-15)
(29.242 0.24247 8.53282e-17)
(26.8572 -0.54946 5.73359e-16)
(24.9936 -1.15173 1.34731e-15)
(23.6317 -1.62542 1.07619e-15)
(22.598 -1.99669 -1.04664e-15)
(21.6689 -2.28428 -1.23192e-16)
(20.7444 -2.5096 1.44869e-14)
(19.7386 -2.67914 -1.09732e-14)
(18.5613 -2.77833 1.73847e-15)
(5.55851 22.1534 3.08112e-17)
(4.17345 20.1088 -9.5841e-17)
(2.95966 17.7149 -4.79969e-16)
(2.03906 14.9947 4.47297e-16)
(1.59127 12.0369 6.06241e-16)
(1.70511 8.98123 -2.53203e-17)
(8.30357 22.1002 2.14404e-18)
(9.64515 23.6259 1.0024e-17)
(11.2776 25.1118 5.10311e-18)
(13.1538 26.4858 -5.3638e-17)
(15.2213 27.6291 1.44142e-16)
(17.4794 28.5183 2.15262e-16)
(19.8536 29.1147 5.84882e-16)
(22.2695 29.3806 2.46105e-17)
(24.6699 29.316 6.10485e-16)
(26.9971 28.933 -1.19598e-15)
(29.1977 28.2514 -1.30104e-16)
(31.2379 27.2964 -3.34494e-16)
(33.0905 26.0977 1.512e-15)
(34.7382 24.6883 -3.33356e-16)
(36.1795 23.1022 -4.39009e-16)
(37.4733 21.3506 -6.31279e-16)
(38.6499 19.4637 1.9517e-15)
(39.7292 17.4974 -1.55561e-15)
(40.7713 15.5013 -9.25135e-16)
(41.8213 13.5486 2.37425e-15)
(42.9402 11.6807 -1.87544e-15)
(44.0481 9.88651 -3.58058e-16)
(44.8584 8.02731 -4.50693e-16)
(44.9288 6.01947 6.38861e-16)
(44.1659 4.02466 -3.69417e-16)
(42.8214 2.28199 5.95294e-16)
(41.1179 0.901646 -1.14464e-16)
(39.1067 -0.183674 -8.58429e-17)
(36.7456 -1.0742 1.53209e-15)
(34.0702 -1.8026 2.17541e-16)
(31.2854 -2.36696 -3.02976e-15)
(28.6775 -2.77413 3.16281e-15)
(26.4027 -3.04605 -7.70672e-16)
(24.3962 -3.2059 1.52964e-16)
(22.4685 -3.26616 -3.41756e-15)
(7.20934 20.493 3.84011e-18)
(6.24972 18.7382 -8.46873e-17)
(5.45233 16.673 2.9207e-16)
(4.812 14.3626 2.30227e-16)
(4.48382 11.8816 -6.55626e-16)
(4.51345 9.2996 -6.21913e-16)
(10.9046 20.2251 1.19613e-17)
(12.161 21.5201 -1.40263e-17)
(13.6677 22.7813 1.64292e-17)
(15.4015 23.9345 -2.31184e-17)
(17.3159 24.8893 -6.94664e-17)
(19.4174 25.627 -1.79029e-16)
(21.6499 26.1034 -2.87207e-16)
(23.953 26.2838 1.04018e-16)
(26.2803 26.1601 6.91718e-16)
(28.5766 25.7342 -4.55548e-16)
(30.791 25.0189 -7.66767e-16)
(32.8839 24.0375 -1.16263e-15)
(34.8197 22.8242 1.31969e-15)
(36.5719 21.4162 2.22717e-15)
(38.1299 19.8463 -1.98865e-15)
(39.4542 18.1662 -8.58955e-16)
(40.4993 16.434 1.08903e-16)
(41.2614 14.6863 1.74642e-15)
(41.7502 12.96 1.00886e-16)
(42.0138 11.2897 -2.52712e-15)
(42.1497 9.70223 3.3642e-15)
(42.3102 8.1919 -1.57332e-15)
(42.5995 6.67585 3.38452e-16)
(42.8729 5.06639 1.34313e-15)
(42.8277 3.42947 -8.01468e-16)
(42.3755 1.95144 6.70473e-16)
(41.6768 0.738807 7.41753e-17)
(40.8872 -0.256875 -3.79376e-16)
(39.9854 -1.12554 -3.03107e-16)
(38.8148 -1.89816 -4.3272e-16)
(37.1887 -2.55909 4.85091e-16)
(35.0003 -3.08089 -4.99583e-15)
(32.3445 -3.44533 -5.15594e-15)
(29.5137 -3.65361 1.44763e-15)
(26.7419 -3.71813 5.71014e-15)
(9.84943 18.8703 -5.22493e-17)
(8.90273 17.4014 -2.10379e-17)
(8.07653 15.6686 3.58776e-16)
(7.38535 13.7115 -1.58913e-16)
(6.96005 11.5995 9.40705e-16)
(12.4354 18.8264 -2.29664e-17)
(13.4917 19.9757 7.30411e-18)
(14.7657 21.1178 7.11854e-19)
(16.2228 22.1903 6.15925e-17)
(17.8231 23.1106 1.12019e-16)
(19.5873 23.874 -3.03492e-16)
(21.4687 24.4409 4.33842e-16)
(23.4201 24.776 1.92255e-16)
(25.4112 24.8693 5.37867e-16)
(27.3954 24.7141 2.80667e-16)
(29.3314 24.3119 -8.40683e-17)
(31.1847 23.6747 9.63372e-16)
(32.9209 22.8214 -2.01763e-15)
(34.5133 21.7734 1.4123e-16)
(35.9409 20.5547 2.09234e-15)
(37.1833 19.1887 -1.03676e-15)
(38.2527 17.6712 1.07061e-15)
(39.1435 16.025 -2.1731e-16)
(39.8481 14.2832 6.95048e-17)
(40.3597 12.4921 2.56268e-15)
(40.6843 10.6912 -1.75481e-15)
(40.8478 8.9115 7.1598e-17)
(40.8926 7.14533 -3.85207e-16)
(40.8113 5.38712 -1.7681e-15)
(40.5119 3.70828 6.45093e-16)
(39.9566 2.22913 -2.16343e-15)
(39.2571 1.0064 -8.18236e-17)
(38.5568 -0.00841252 2.70318e-16)
(37.9225 -0.895687 -2.23337e-16)
(37.3332 -1.69017 4.06069e-15)
(36.724 -2.39476 1.55625e-15)
(35.961 -3.00572 -7.23746e-16)
(34.8127 -3.50574 -4.12125e-15)
(33.0332 -3.85705 6.56322e-15)
(30.5648 -4.02359 -4.84268e-15)
(11.5425 17.6304 1.2126e-17)
(10.739 16.347 -1.52215e-16)
(10.0173 14.8322 5.98135e-17)
(9.38572 13.1246 3.82156e-17)
(8.96034 11.2884 -1.3403e-15)
(13.9265 17.5926 1.59481e-17)
(14.8863 18.6096 -2.81492e-17)
(16.0394 19.6261 5.55873e-18)
(17.3537 20.5834 4.96737e-18)
(18.7904 21.4083 -7.23542e-17)
(20.3794 22.1013 -8.81331e-17)
(22.0804 22.624 -2.73612e-17)
(23.8555 22.9446 -4.37314e-16)
(25.684 23.0496 -3.89776e-17)
(27.5278 22.9279 2.02829e-16)
(29.3515 22.5753 -3.46086e-16)
(31.1254 21.995 4.24989e-16)
(32.8163 21.1973 1.45069e-15)
(34.3959 20.1971 7.5539e-16)
(35.8399 19.0127 -2.99657e-15)
(37.1287 17.6658 2.00497e-15)
(38.2354 16.1961 6.4015e-16)
(39.1323 14.6545 -1.34276e-15)
(39.8092 13.0809 5.86959e-16)
(40.2735 11.5044 1.4501e-16)
(40.5427 9.94556 -5.46496e-16)
(40.6419 8.40207 2.87296e-15)
(40.5806 6.84306 1.30992e-16)
(40.3317 5.24977 2.35938e-15)
(39.8491 3.68486 -5.06811e-16)
(39.1348 2.26752 2.25507e-16)
(38.279 1.07226 7.26214e-17)
(37.3966 0.0765738 -2.3814e-17)
(36.5473 -0.784926 -1.27689e-15)
(35.7406 -1.54862 -1.03626e-15)
(34.9841 -2.22245 1.14874e-16)
(34.3022 -2.81077 3.68931e-15)
(33.6812 -3.318 4.63683e-15)
(32.993 -3.73825 2.3555e-15)
(31.9078 -4.03693 -2.58732e-15)
(13.1067 16.5379 -3.71892e-17)
(12.3654 15.4131 -2.6439e-17)
(11.6859 14.0817 8.90565e-17)
(11.0779 12.5771 -2.31464e-16)
(15.1258 16.5496 -1.16242e-17)
(15.9877 17.4629 -1.86882e-18)
(17.0227 18.3833 6.63705e-18)
(18.1971 19.2562 -1.86452e-17)
(19.4724 20.0162 1.12751e-16)
(20.8836 20.6697 -4.39315e-17)
(22.3941 21.1835 -8.04142e-17)
(23.9718 21.5284 1.8553e-16)
(25.6041 21.6931 2.47916e-16)
(27.2587 21.6661 -2.20647e-16)
(28.907 21.4401 9.5684e-16)
(30.5248 21.0149 -5.01892e-16)
(32.0818 20.3954 -1.36037e-15)
(33.5511 19.591 -2.40388e-15)
(34.909 18.6158 3.53285e-15)
(36.1313 17.4893 -1.60193e-15)
(37.1984 16.2321 -2.14454e-15)
(38.1022 14.8539 -1.32606e-15)
(38.834 13.3773 -9.83179e-16)
(39.3898 11.8351 -1.41251e-16)
(39.7738 10.2591 -4.84262e-16)
(39.994 8.67417 -3.3219e-15)
(40.0477 7.08197 1.3469e-15)
(39.8988 5.4835 -3.70866e-15)
(39.4986 3.93111 2.97503e-16)
(38.8493 2.52025 3.19646e-16)
(38.0289 1.31549 -8.14747e-17)
(37.1371 0.302733 2.69913e-16)
(36.2243 -0.573318 8.39986e-16)
(35.2928 -1.34568 1.56581e-16)
(34.3427 -2.02082 1.09825e-16)
(33.3995 -2.60205 -3.16829e-15)
(32.5053 -3.09462 5.20861e-15)
(31.7147 -3.50272 1.78259e-15)
(31.0175 -3.82348 3.25725e-15)
(14.3839 15.6048 -1.30289e-19)
(13.71 14.6034 1.00991e-16)
(13.0799 13.4161 -1.04676e-16)
(12.5032 12.0731 5.51457e-16)
(16.1809 15.6309 -8.40724e-20)
(16.9711 16.4549 2.65189e-18)
(17.9185 17.2888 3.24908e-18)
(18.9894 18.0814 -9.25288e-22)
(20.1455 18.7736 -2.47681e-17)
(21.4246 19.3754 -2.16029e-16)
(22.7934 19.8561 1.41918e-17)
(24.2243 20.1897 2.33203e-16)
(25.7101 20.3659 -5.6898e-16)
(27.2243 20.3723 -3.21352e-16)
(28.7435 20.2001 6.42196e-17)
(30.2485 19.8454 7.72208e-16)
(31.7131 19.3081 2.19803e-15)
(33.1129 18.5919 3.13096e-15)
(34.4247 17.7052 8.8521e-17)
(35.6247 16.6608 -1.87223e-16)
(36.6929 15.4743 2.73874e-15)
(37.6074 14.1749 2.37542e-15)
(38.3507 12.7975 -1.23586e-17)
(38.9168 11.371 -2.36132e-15)
(39.3097 9.91893 8.03594e-16)
(39.5394 8.45387 9.71703e-16)
(39.6094 6.97416 -1.75717e-16)
(39.4971 5.48013 1.44266e-15)
(39.1619 4.01365 -8.0346e-16)
(38.5968 2.65673 -3.80492e-16)
(37.8595 1.4731 -1.27486e-17)
(37.0337 0.462152 -4.18524e-16)
(36.1652 -0.417778 -1.34461e-16)
(35.2543 -1.1945 -2.57578e-15)
(34.2911 -1.87262 1.12723e-15)
(33.2777 -2.45248 -2.60147e-15)
(32.2259 -2.93632 -5.87473e-15)
(31.1704 -3.32551 3.1033e-16)
(30.1631 -3.61749 -1.90671e-15)
(15.496 14.7802 -1.63285e-17)
(14.872 13.8822 -5.80519e-17)
(14.2799 12.8153 1.06068e-16)
(13.7292 11.6066 -4.32511e-16)
(17.0918 14.8194 -1.38994e-17)
(17.8197 15.5675 -2.59017e-17)
(18.6912 16.3276 1.07663e-17)
(19.6725 17.0518 7.88435e-18)
(20.7256 17.6857 3.54707e-17)
(21.8891 18.2425 1.00333e-16)
(23.1326 18.6945 2.39998e-16)
(24.431 19.0184 2.61684e-16)
(25.7815 19.2065 -2.56716e-16)
(27.1611 19.2468 -6.09172e-17)
(28.551 19.1302 -1.19133e-16)
(29.9364 18.8519 -1.95565e-15)
(31.2948 18.4095 5.01108e-16)
(32.6044 17.8036 -2.03161e-15)
(33.844 17.0392 -5.43608e-16)
(34.9907 16.1255 6.65257e-16)
(36.0226 15.0773 -1.84231e-15)
(36.9217 13.9109 -1.0046e-15)
(37.6741 12.6441 -4.81913e-16)
(38.2699 11.3001 1.56175e-15)
(38.7059 9.90367 1.18478e-16)
(38.9827 8.47635 7.16284e-16)
(39.0978 7.03018 1.3562e-15)
(39.0331 5.57691 -2.75778e-16)
(38.7588 4.15399 -8.18238e-18)
(38.2688 2.82753 1.17819e-15)
(37.6094 1.65352 2.18078e-16)
(36.8529 0.638332 -4.35781e-17)
(36.0443 -0.249729 2.89628e-16)
(35.1885 -1.03505 -2.6087e-16)
(34.2768 -1.7222 -2.9738e-15)
(33.3056 -2.31063 5.58955e-15)
(32.2704 -2.80061 -5.90996e-15)
(31.1699 -3.18966 -6.1635e-15)
(29.9984 -3.47074 5.73765e-15)
(16.4571 14.0478 8.58595e-18)
(15.877 13.2362 1.22459e-16)
(15.3193 12.2701 -4.23261e-17)
(21.2524 16.712 -1.01699e-17)
(22.3203 17.2248 -3.79003e-17)
(23.4594 17.6448 -3.6892e-16)
(24.647 17.9518 6.44186e-17)
(25.883 18.1391 -1.84043e-16)
(27.1479 18.1958 4.30876e-16)
(28.4263 18.1132 -4.38121e-16)
(29.7073 17.8854 1.24233e-15)
(30.9715 17.5084 -8.76556e-17)
(32.2008 16.9798 -7.44536e-17)
(33.376 16.3012 -3.71765e-16)
(34.4752 15.4781 -1.74087e-16)
(35.478 14.5202 6.47437e-16)
(36.3656 13.4412 1.31224e-15)
(37.1196 12.2628 1.34646e-15)
(37.727 11.0085 8.90065e-16)
(38.1814 9.69998 7.01292e-16)
(38.4811 8.35514 1.44311e-16)
(38.6218 6.98594 -9.14631e-16)
(38.5893 5.6057 -2.11138e-17)
(38.3606 4.24701 5.91542e-16)
(37.9297 2.96546 -8.82657e-16)
(37.3328 1.81294 -1.89269e-16)
(36.6314 0.802922 -1.52155e-16)
(35.8691 -0.0864491 -2.95627e-16)
(35.0557 -0.875483 2.57626e-15)
(34.1876 -1.5683 2.4361e-15)
(33.2639 -2.16393 -1.32715e-15)
(32.2812 -2.66192 2.41045e-15)
(31.232 -3.05855 -8.73991e-16)
(30.0851 -3.344 -2.97525e-15)
(23.7562 16.6995 1.34314e-16)
(24.847 16.9884 2.05507e-16)
(25.9819 17.1715 1.49264e-16)
(27.1436 17.239 -5.4445e-16)
(28.3202 17.1831 9.32155e-17)
(29.5034 16.9976 -4.156e-16)
(30.6768 16.6777 -1.18722e-16)
(31.8253 16.2199 -3.57537e-16)
(32.9318 15.6234 2.72977e-16)
(33.9767 14.8911 4.69231e-16)
(34.9403 14.0297 -1.07537e-16)
(35.8038 13.0505 -1.43337e-15)
(36.5503 11.9674 -7.87481e-16)
(37.165 10.7989 -8.68861e-16)
(37.6383 9.56432 -3.23559e-16)
(37.9641 8.2833 -6.80797e-16)
(38.1355 6.97255 -1.18055e-16)
(38.1393 5.64984 1.0826e-15)
(37.9573 4.34501 2.52062e-17)
(37.5839 3.10391 5.53589e-16)
(37.0467 1.9726 1.0531e-16)
(36.3975 0.968816 5.02096e-16)
(35.6768 0.0789833 5.17676e-16)
(34.8981 -0.712911 -2.95737e-15)
(34.0616 -1.41022 -1.00235e-15)
(33.1696 -2.01144 -4.8682e-15)
(32.2224 -2.51568 5.10908e-15)
(31.2185 -2.919 3.60767e-16)
(30.1301 -3.21156 2.39818e-15)
(26.0827 16.284 4.41139e-16)
(27.1537 16.3558 2.35864e-16)
(28.2394 16.3176 3.46009e-16)
(29.334 16.1635 -1.82875e-16)
(30.4239 15.8881 -7.22125e-16)
(31.4965 15.4869 1.57409e-15)
(32.5372 14.9576 -6.48407e-16)
(33.5282 14.3006 -6.77521e-16)
(34.4515 13.5199 -4.4427e-16)
(35.2889 12.6235 1.29977e-15)
(36.0232 11.6231 1.55992e-15)
(36.6382 10.5354 4.33149e-16)
(37.1217 9.37841 -1.81488e-15)
(37.4652 8.17016 4.03415e-16)
(37.6605 6.92769 -8.1951e-17)
(37.6957 5.66989 3.34902e-16)
(37.5559 4.4238 -1.54959e-16)
(37.2355 3.22776 1.15667e-16)
(36.7554 2.12282 4.62603e-17)
(36.1577 1.13001 -2.69254e-16)
(35.4792 0.243254 4.49015e-16)
(34.7351 -0.549091 1.9161e-15)
(33.928 -1.24909 4.62978e-17)
(33.0616 -1.85443 5.01426e-15)
(32.1382 -2.36341 2.13147e-15)
(31.1602 -2.77146 -2.37225e-15)
(30.1078 -3.0695 -3.31916e-15)
(27.1695 15.542 4.28193e-16)
(28.1732 15.5161 -8.82325e-16)
(29.187 15.3862 -6.09299e-17)
(30.1992 15.1473 1.12545e-15)
(31.1996 14.7942 -5.35253e-16)
(32.1758 14.3235 5.96456e-16)
(33.1123 13.7342 1.09463e-15)
(33.9925 13.0281 -2.42867e-15)
(34.7991 12.2106 -8.39767e-16)
(35.5153 11.2906 -1.79713e-15)
(36.1252 10.2811 -5.41482e-16)
(36.6143 9.19781 1.46723e-15)
(36.9723 8.05812 -5.9666e-17)
(37.1891 6.87999 -3.70583e-16)
(37.2536 5.68356 -1.01961e-15)
(37.1533 4.49383 6.56845e-17)
(36.8827 3.34275 -5.63465e-16)
(36.4569 2.26634 -1.62291e-17)
(35.9102 1.28755 -8.12303e-17)
(35.275 0.406408 -8.07117e-16)
(34.5673 -0.384411 -3.3517e-16)
(33.7916 -1.08563 2.38039e-16)
(32.952 -1.69403 7.62081e-16)
(32.0515 -2.20686 -3.11116e-15)
(31.0934 -2.61866 -4.12578e-15)
(30.0626 -2.92072 -1.6831e-16)
(28.1192 14.7708 8.40036e-17)
(29.0594 14.6593 -2.03277e-16)
(30 14.4494 -4.2117e-16)
(30.9328 14.136 5.24315e-16)
(31.8476 13.715 -2.33917e-15)
(32.7306 13.184 -3.45915e-16)
(33.567 12.5433 9.25341e-16)
(34.3405 11.796 -4.31418e-16)
(35.0353 10.949 4.15835e-16)
(35.6352 10.0126 -5.07279e-18)
(36.1248 9.00089 -4.34596e-16)
(36.4922 7.92997 4.14172e-16)
(36.7263 6.81733 2.26109e-16)
(36.8165 5.6832 5.68561e-16)
(36.7519 4.55053 1.19542e-16)
(36.527 3.44597 2.47364e-17)
(36.1522 2.40116 -8.32587e-17)
(35.6548 1.43996 1.39137e-16)
(35.063 0.567443 2.09717e-16)
(34.3928 -0.219646 3.86886e-16)
(33.6501 -0.920445 -1.46011e-15)
(32.8396 -1.53073 -1.93794e-15)
(31.9645 -2.04666 1.18484e-15)
(31.0281 -2.46176 1.22231e-14)
(30.0179 -2.76702 2.42421e-15)
(28.0732 14.0773 -3.11106e-16)
(28.9463 13.9797 -1.22322e-16)
(29.8211 13.7933 2.85199e-16)
(30.6908 13.513 -6.24141e-16)
(31.547 13.1345 5.17414e-16)
(32.3778 12.6547 -4.33392e-16)
(33.17 12.0725 1.02674e-15)
(33.9087 11.3893 2.69136e-15)
(34.5788 10.6102 1.76472e-15)
(35.1649 9.74272 2.85455e-16)
(35.6509 8.79936 -3.33939e-16)
(36.0237 7.79479 -3.4083e-17)
(36.2718 6.74591 -9.72094e-16)
(36.3845 5.6727 2.32484e-17)
(36.352 4.59626 4.08558e-16)
(36.1689 3.53873 7.06412e-17)
(35.8419 2.52762 2.06065e-17)
(35.392 1.58697 5.10427e-18)
(34.8432 0.72584 -8.19628e-16)
(34.2109 -0.0553272 -1.66358e-15)
(33.5022 -0.753997 4.16594e-16)
(32.7222 -1.36488 2.98577e-16)
(31.8744 -1.88302 -2.82082e-15)
(30.9624 -2.30095 -1.13448e-14)
(29.9757 -2.60901 -2.74816e-15)
(28.8451 13.3435 3.50012e-16)
(29.6592 13.176 -2.73516e-16)
(30.4701 12.9233 -8.66557e-17)
(31.2709 12.5811 4.9678e-16)
(32.0514 12.1457 2.12674e-15)
(32.7999 11.6152 -2.65584e-15)
(33.503 10.9896 1.08891e-16)
(34.1464 10.2724 -1.27087e-15)
(34.7154 9.46927 1.95253e-16)
(35.1943 8.59084 -1.25841e-15)
(35.5688 7.65044 -3.28514e-16)
(35.8271 6.66409 -6.21753e-17)
(35.9589 5.65093 2.25952e-16)
(35.955 4.63021 -5.40447e-16)
(35.8098 3.62031 5.4121e-17)
(35.5271 2.64499 3.1443e-17)
(35.1225 1.72784 -1.05481e-16)
(34.6159 0.880913 7.92581e-16)
(34.0218 0.107953 8.20306e-16)
(33.3476 -0.586741 1.49519e-15)
(32.599 -1.19683 9.46382e-16)
(31.7798 -1.71616 1.93636e-15)
(30.894 -2.13632 4.24158e-15)
(29.9328 -2.44685 3.02605e-15)
(29.5112 12.5953 -1.58949e-16)
(30.2675 12.3658 3.60594e-17)
(31.0162 12.0545 7.9395e-16)
(31.7485 11.6578 -6.33764e-16)
(32.4543 11.1731 2.30135e-15)
(33.1215 10.5994 -1.13372e-15)
(33.7366 9.93894 4.84167e-16)
(34.2861 9.19572 3.45474e-16)
(34.7547 8.37858 1.7903e-15)
(35.1277 7.49959 4.14564e-16)
(35.393 6.57375 8.51301e-16)
(35.5405 5.61921 -2.2686e-16)
(35.5616 4.65331 -5.1041e-16)
(35.4507 3.69118 3.47721e-16)
(35.2088 2.75322 2.34219e-17)
(34.8472 1.86211 -3.17581e-16)
(34.3819 1.03204 -5.43511e-16)
(33.8258 0.269587 1.62596e-15)
(33.1866 -0.419242 -1.05033e-15)
(32.4701 -1.02701 -5.84909e-16)
(31.6805 -1.54644 -2.19461e-15)
(30.822 -1.96811 4.36904e-16)
(29.8877 -2.28076 4.88035e-16)
(29.3748 12.0489 1.89615e-16)
(30.0805 11.8386 1.15577e-16)
(30.7803 11.5539 -1.281e-15)
(31.4668 11.1909 5.83441e-16)
(32.1311 10.7467 -2.09757e-15)
(32.7625 10.2197 8.06289e-16)
(33.3486 9.61078 -8.88703e-16)
(33.8767 8.92309 -8.77127e-16)
(34.3324 8.16356 2.91933e-16)
(34.701 7.34312 -1.6333e-15)
(34.9703 6.47567 -9.58417e-16)
(35.1303 5.57807 4.63593e-16)
(35.1729 4.66597 7.11453e-16)
(35.0925 3.75156 8.36661e-17)
(34.888 2.8522 9.96084e-18)
(34.5669 1.98939 2.51375e-16)
(34.1416 1.17869 -1.10045e-16)
(33.6232 0.429009 -1.1993e-15)
(33.0193 -0.252028 -2.25457e-16)
(32.3356 -0.855912 -8.46915e-16)
(31.5764 -1.37423 -4.75054e-17)
(30.7464 -1.79657 -3.50987e-16)
(29.8401 -2.11093 -3.15471e-16)
(29.9066 11.3405 2.41745e-16)
(30.5606 11.0787 3.86258e-16)
(31.2037 10.7452 -1.98967e-16)
(31.8281 10.3368 2.11988e-15)
(32.4243 9.85164 -5.08016e-16)
(32.9811 9.28963 8.20418e-16)
(33.4866 8.65309 -9.2061e-16)
(33.9274 7.94743 4.22121e-16)
(34.2891 7.18247 1.54342e-15)
(34.5596 6.37089 8.6741e-16)
(34.729 5.52833 -5.07907e-16)
(34.7899 4.66871 -2.57687e-16)
(34.7363 3.80169 -4.59828e-16)
(34.5658 2.94186 1.37106e-17)
(34.2825 2.10929 -1.57697e-16)
(33.8957 1.32031 3.78778e-16)
(33.4144 0.585616 2.78697e-16)
(32.8458 -0.0856799 5.67052e-16)
(32.1954 -0.684046 5.02606e-16)
(31.4675 -1.19999 -4.20705e-16)
(30.667 -1.62211 -6.65413e-17)
(29.7899 -1.9377 -2.29564e-15)
(29.744 10.87 1.24021e-15)
(30.3553 10.6278 -2.99357e-16)
(30.9573 10.3201 5.88882e-16)
(31.5435 9.9435 -6.41098e-16)
(32.1056 9.49579 -7.34973e-16)
(32.6331 8.97639 -1.09269e-15)
(33.1152 8.38693 1.74804e-15)
(33.5395 7.73149 -1.52906e-15)
(33.8923 7.01882 8.99453e-16)
(34.1614 6.26045 -7.6261e-16)
(34.3375 5.47084 1.91552e-17)
(34.4133 4.66226 -2.45866e-17)
(34.3832 3.84206 9.65198e-17)
(34.2433 3.02232 3.12884e-17)
(33.9951 2.22159 3.63743e-17)
(33.645 1.45642 -3.1193e-16)
(33.2001 0.738833 2.28222e-18)
(32.6666 0.0792193 -6.45328e-16)
(32.0499 -0.511942 1.48962e-16)
(31.3539 -1.02416 2.22263e-15)
(30.5838 -1.44513 -1.07672e-17)
(29.7372 -1.76136 -4.34217e-16)
(30.1625 10.2003 -8.2616e-17)
(30.7259 9.91515 -1.15541e-15)
(31.2758 9.56683 1.7978e-16)
(31.8046 9.15284 1.13848e-16)
(32.3033 8.67219 1.74424e-16)
(32.7616 8.12587 5.65172e-16)
(33.1683 7.51707 1.17735e-15)
(33.5104 6.85348 -2.26193e-15)
(33.776 6.14555 5.11954e-16)
(33.9562 5.40658 -7.64094e-17)
(34.0441 4.64736 7.50298e-16)
(34.0341 3.87316 3.06312e-17)
(33.9215 3.09376 -1.79478e-17)
(33.7057 2.32615 2.81734e-16)
(33.3903 1.58664 4.52959e-16)
(32.9807 0.888152 4.36525e-16)
(32.482 0.242101 -2.48725e-17)
(31.899 -0.340179 -1.3235e-15)
(31.2357 -0.847291 -2.45865e-15)
(30.4969 -1.26609 7.72409e-16)
(29.6817 -1.58234 1.56815e-15)
(29.9808 9.79539 -7.99625e-16)
(30.5079 9.53011 2.09685e-16)
(31.0232 9.20687 7.78805e-16)
(31.5201 8.82311 -9.56564e-16)
(31.9905 8.37755 3.27033e-16)
(32.425 7.87071 -6.13878e-16)
(32.8133 7.30512 -1.84196e-15)
(33.1434 6.68746 2.33205e-16)
(33.4037 6.02718 -1.89861e-16)
(33.5856 5.3365 -2.36915e-16)
(33.6828 4.6248 -6.48904e-16)
(33.6899 3.89555 -2.06332e-16)
(33.6015 3.15646 7.10691e-17)
(33.4153 2.42289 -1.19954e-16)
(33.1326 1.71063 -4.36054e-16)
(32.757 1.03308 -1.93273e-16)
(32.2925 0.402404 1.29038e-15)
(31.7432 -0.169301 1.46477e-15)
(31.1128 -0.669898 3.86203e-15)
(30.4062 -1.08549 -5.15888e-16)
(29.6234 -1.40111 -1.5463e-16)
(30.3019 9.16417 -9.01683e-16)
(30.7845 8.86331 -3.621e-16)
(31.2509 8.50671 -1.58119e-16)
(31.6939 8.09303 2.63876e-16)
(32.1047 7.62229 1.00205e-15)
(32.4742 7.09666 7.38022e-16)
(32.7911 6.52185 5.43404e-16)
(33.0445 5.9064 7.33237e-16)
(33.2262 5.26155 5.94645e-16)
(33.3302 4.5954 5.69396e-16)
(33.3515 3.90987 1.22999e-16)
(33.2842 3.21078 -6.64413e-17)
(33.1248 2.51186 -1.78541e-16)
(32.8726 1.82816 4.58911e-16)
(32.5296 1.17316 -5.26823e-16)
(32.0985 0.5596 -4.96875e-16)
(31.5828 9.27763e-05 6.78365e-16)
(30.9856 -0.492564 1.43371e-15)
(30.3117 -0.903839 1.51816e-15)
(29.5622 -1.21815 -1.40099e-15)
(30.1067 8.81684 7.33524e-16)
(30.5584 8.53596 -4.06673e-16)
(30.9957 8.20385 3.86185e-16)
(31.4121 7.81908 -4.69478e-16)
(31.7998 7.38139 -9.37723e-16)
(32.1502 6.89261 3.96961e-16)
(32.4533 6.35765 2.40908e-16)
(32.6986 5.78421 -6.74899e-16)
(32.8782 5.18265 -4.67627e-17)
(32.9868 4.56001 -2.53728e-16)
(33.0196 3.91679 -9.9748e-17)
(32.9707 3.25712 1.2767e-17)
(32.8353 2.59315 1.80328e-16)
(32.6114 1.93902 -2.05698e-16)
(32.2993 1.30802 6.91022e-16)
(31.9007 0.713173 -8.60611e-17)
(31.4181 0.167391 -3.83234e-16)
(30.8543 -0.3159 -3.36101e-15)
(30.2136 -0.721754 -1.35932e-15)
(29.4979 -1.03401 1.35379e-15)
(29.9213 8.48737 2.50527e-16)
(30.3439 8.2244 -3.51954e-16)
(30.7535 7.9144 9.70407e-16)
(31.1444 7.55587 -4.14766e-16)
(31.5095 7.1484 6.37141e-16)
(31.8409 6.69356 -2.82978e-16)
(32.1296 6.19554 -7.20872e-16)
(32.3657 5.66146 1.82572e-16)
(32.5418 5.10077 -3.46481e-17)
(32.653 4.51956 5.13511e-17)
(32.6949 3.91708 1.16841e-16)
(32.6617 3.29601 -9.77921e-18)
(32.5478 2.66701 -9.98827e-17)
(32.35 2.04316 -1.65935e-16)
(32.0671 1.43738 -6.55838e-16)
(31.6998 0.862615 -2.77455e-16)
(31.2497 0.33211 9.56824e-17)
(30.7191 -0.140484 1.09746e-16)
(30.1119 -0.539771 8.45001e-16)
(29.4307 -0.849221 9.42042e-16)
(30.1399 7.92832 1.08954e-15)
(30.5233 7.63831 1.82846e-16)
(30.8897 7.30367 3.45107e-16)
(31.2329 6.92384 -6.013e-16)
(31.5456 6.50025 -1.60929e-17)
(31.8196 6.03648 6.95031e-16)
(32.0458 5.53911 3.54116e-16)
(32.2171 5.01681 -2.81313e-16)
(32.3292 4.47482 -2.45863e-16)
(32.3781 3.91143 -4.65443e-17)
(32.3581 3.32795 4.21423e-17)
(32.2632 2.73367 1.67436e-16)
(32.0891 2.14057 1.56796e-17)
(31.8336 1.56093 6.66435e-16)
(31.4964 1.00754 -7.87342e-16)
(31.078 0.493626 -1.69326e-15)
(30.5804 0.0330606 2.23373e-16)
(30.0069 -0.358523 -1.06063e-15)
(29.3605 -0.664415 -1.75118e-15)
(29.9455 7.64716 -3.22693e-16)
(30.3041 7.37529 -8.95799e-17)
(30.6473 7.06241 8.20636e-16)
(30.9693 6.70789 -4.94268e-16)
(31.2637 6.31302 8.31782e-17)
(31.5229 5.88102 -3.81075e-16)
(31.7386 5.41784 -2.40033e-16)
(31.9042 4.93153 7.49939e-17)
(32.0157 4.42664 2.59635e-16)
(32.0697 3.90057 -1.31397e-17)
(32.0607 3.35354 -5.32249e-17)
(31.9824 2.79348 -1.13767e-16)
(31.8298 2.23132 8.67044e-17)
(31.5999 1.67852 -9.22938e-17)
(31.2912 1.14754 1.23789e-15)
(30.9037 0.651471 1.44064e-15)
(30.4386 0.204186 -6.9142e-17)
(29.8987 -0.178689 -4.47498e-16)
(29.2874 -0.480182 4.0039e-16)
(29.7601 7.38055 -3.65823e-16)
(30.0952 7.12519 -1.69127e-15)
(30.4163 6.83218 -3.46135e-16)
(30.718 6.50088 -3.0593e-16)
(30.9946 6.13241 9.14809e-16)
(31.239 5.72978 9.67621e-16)
(31.4439 5.2984 -2.99915e-16)
(31.6029 4.84578 -1.58015e-16)
(31.7126 4.37582 1.37912e-16)
(31.77 3.88528 -2.11832e-16)
(31.77 3.37334 3.69429e-17)
(31.7061 2.84684 1.28872e-16)
(31.5729 2.3155 -1.66663e-16)
(31.3666 1.79005 -3.3715e-16)
(31.085 1.28234 -5.6982e-17)
(30.7273 0.805122 -1.53389e-15)
(30.2941 0.372245 -9.04833e-16)
(29.7876 -0.000827687 3.71112e-16)
(29.2114 -0.297202 1.3247e-15)
(29.896 6.88763 6.38882e-17)
(30.196 6.61277 6.01633e-16)
(30.4783 6.30279 3.22731e-16)
(30.7376 5.95865 -1.10507e-15)
(30.9676 5.58316 -3.69983e-16)
(31.1614 5.18136 5.67645e-16)
(31.3133 4.76017 -1.47046e-16)
(31.4201 4.32305 -1.1173e-16)
(31.4795 3.8662 5.70668e-17)
(31.4867 3.38799 -3.29841e-17)
(31.4351 2.89413 2.36461e-19)
(31.3193 2.39334 -1.28588e-16)
(31.1348 1.89543 2.56731e-16)
(30.8787 1.4116 -4.02864e-16)
(30.5495 0.954202 6.61469e-16)
(30.1473 0.536697 -5.75327e-16)
(29.6739 0.174389 2.50455e-16)
(29.1326 -0.116054 -1.04089e-15)
(29.7056 6.66233 3.56548e-16)
(29.9857 6.40411 -7.84814e-16)
(30.2496 6.1137 4.73826e-16)
(30.4922 5.79198 6.54089e-16)
(30.708 5.44161 -3.18932e-17)
(30.8908 5.06725 2.52721e-16)
(31.0351 4.67539 -1.59955e-16)
(31.1383 4.26907 8.99438e-17)
(31.1985 3.84406 -3.58616e-17)
(31.2112 3.39807 1.51427e-17)
(31.1702 2.93584 -2.75739e-17)
(31.0697 2.46508 -1.04522e-16)
(30.9051 1.9947 2.78849e-16)
(30.6728 1.53517 -4.48877e-17)
(30.371 1.09827 -6.27519e-16)
(29.9988 0.697051 2.45231e-15)
(29.5579 0.346359 -9.63887e-16)
(29.0512 0.0626225 -6.3496e-17)
(29.5235 6.44885 -2.32189e-16)
(29.7849 6.20595 2.74581e-16)
(30.0311 5.93359 -2.33427e-16)
(30.2578 5.63255 -4.51199e-16)
(30.4598 5.30543 7.96522e-17)
(30.6316 4.95655 -7.99872e-16)
(30.7681 4.59199 3.77968e-16)
(30.867 4.21448 -1.81058e-16)
(30.9269 3.81951 -1.07726e-16)
(30.9438 3.40418 4.28818e-18)
(30.9118 2.97241 -5.14277e-17)
(30.8249 2.531 1.46355e-16)
(30.6784 2.08793 -3.41865e-16)
(30.4683 1.6529 -1.9517e-17)
(30.1923 1.23701 2.80316e-16)
(29.8492 0.852774 5.92582e-16)
(29.4399 0.514531 4.05528e-16)
(28.9673 0.23818 8.31627e-16)
(29.5929 6.01814 -3.95298e-16)
(29.8225 5.7624 -4.30919e-16)
(30.0339 5.48046 1.1845e-15)
(30.2226 5.17484 1.38456e-16)
(30.3836 4.84959 -1.24893e-16)
(30.5121 4.51046 -3.72116e-18)
(30.6063 4.15988 -9.33982e-17)
(30.6652 3.79313 1.00654e-16)
(30.6851 3.40689 -1.26252e-17)
(30.6604 3.00434 3.79222e-17)
(30.5855 2.5914 -1.02299e-16)
(30.4553 2.17523 -6.79985e-17)
(30.2658 1.76469 3.10962e-17)
(30.0142 1.37015 9.42332e-16)
(29.6989 1.00346 -1.6642e-15)
(29.3204 0.678329 -2.71258e-17)
(28.8812 0.410042 -6.54662e-16)
(29.4093 5.84032 9.93812e-17)
(29.6231 5.59995 5.46296e-16)
(29.8201 5.33569 -4.82778e-16)
(29.996 5.04998 1.40121e-16)
(30.1463 4.74667 6.84959e-16)
(30.2669 4.43117 3.19568e-16)
(30.3561 4.10572 1.47902e-16)
(30.4132 3.76546 -7.91532e-17)
(30.4351 3.40672 7.28465e-18)
(30.4165 3.03207 3.47883e-17)
(30.352 2.64664 2.34724e-17)
(30.2365 2.25677 1.63516e-16)
(30.0661 1.87052 4.86662e-16)
(29.8373 1.49745 -7.6868e-16)
(29.5486 1.14872 1.55296e-15)
(29.1997 0.837263 -4.32698e-16)
(28.7929 0.577652 5.31729e-16)
(29.2336 5.67224 -2.48712e-15)
(29.4325 5.44611 2.03099e-16)
(29.6157 5.19824 2.98627e-16)
(29.7794 4.931 -5.57398e-16)
(29.9195 4.64803 2.52104e-16)
(30.0322 4.35453 -3.06063e-16)
(30.1162 4.0525 8.25491e-18)
(30.171 3.73702 -3.96606e-17)
(30.1941 3.40421 -3.38028e-18)
(30.1804 3.05607 2.95471e-17)
(30.1249 2.69707 9.17466e-17)
(30.0227 2.33276 2.10848e-16)
(29.8696 1.9704 -4.63757e-16)
(29.6623 1.61878 8.63166e-17)
(29.3987 1.28823 9.13536e-17)
(29.0783 0.990885 1.47725e-16)
(29.2503 5.30068 -3.64171e-16)
(29.4205 5.06801 -7.19288e-16)
(29.5725 4.81791 7.07779e-17)
(29.7027 4.55384 -4.20073e-16)
(29.8077 4.28077 3.70712e-16)
(29.8863 4.00053 -1.80213e-16)
(29.9386 3.70821 4.73709e-17)
(29.9621 3.39977 -4.31359e-19)
(29.9525 3.07677 -6.52069e-17)
(29.9047 2.74302 -1.12382e-16)
(29.8143 2.40341 5.18092e-18)
(29.6771 2.06441 -3.42879e-16)
(29.4897 1.73401 2.61936e-16)
(29.2497 1.42171 -1.20262e-15)
(28.9565 1.13879 3.68085e-16)
(29.0761 5.16342 4.58958e-16)
(29.2339 4.94489 7.70175e-16)
(29.3749 4.7107 -5.99636e-16)
(29.4956 4.46419 3.50482e-16)
(29.5931 4.21011 -3.43324e-16)
(29.6665 3.95015 2.82455e-17)
(29.7158 3.67944 -1.90238e-17)
(29.7393 3.39387 -2.25179e-17)
(29.7328 3.09458 2.66848e-17)
(29.6918 2.78487 -3.40168e-17)
(29.6119 2.46898 7.01482e-17)
(29.4891 2.15266 4.93219e-16)
(29.3201 1.8431 -6.3123e-17)
(29.1023 1.54898 3.0842e-16)
(28.8348 1.28065 -4.80678e-16)
(28.9094 5.0341 5.77656e-16)
(29.0557 4.82873 -4.69384e-16)
(29.1862 4.60935 8.18148e-16)
(29.2979 4.37916 -7.21201e-16)
(29.3882 4.14273 -1.65768e-16)
(29.4562 3.90162 -5.70581e-18)
(29.5026 3.65104 -1.57159e-16)
(29.5256 3.38685 -2.83866e-18)
(29.5215 3.10987 5.98628e-17)
(29.4862 2.82295 -3.22819e-17)
(29.4156 2.52973 -1.21695e-16)
(29.306 2.2353 -3.98021e-16)
(29.1539 1.94608 -4.70294e-16)
(28.9569 1.6699 6.45351e-16)
(28.7137 1.41622 2.64305e-16)
(28.7499 4.91245 -1.47404e-15)
(28.8853 4.71935 -1.15294e-16)
(29.006 4.51374 -4.61841e-16)
(29.1091 4.29875 4.58574e-16)
(29.1925 4.0787 1.22648e-16)
(29.2555 3.85511 2.51378e-16)
(29.2987 3.62328 1.48339e-16)
(29.3209 3.37904 -2.74392e-17)
(29.3187 3.123 -1.7042e-17)
(29.2883 2.85758 9.07527e-17)