/*--------------------------------*- C++ -*----------------------------------*\
| =========                 |                                                 |
| \\      /  F ield         | OpenFOAM: The Open Source CFD Toolbox           |
|  \\    /   O peration     | Version:  2506                                  |
|   \\  /    A nd           | Website:  www.openfoam.com                      |
|    \\/     M anipulation  |                                                 |
\*---------------------------------------------------------------------------*/
FoamFile
{
    version     2.0;
    format      ascii;
    arch        "LSB;label=32;scalar=64";
    class       surfaceScalarField;
    location    "41";
    object      phi;
}
// * * * * * * * * * * * * * * * * * * * * * * * * * * * * * * * * * * * * * //

dimensions      [0 3 -1 0 0 0 0];

oriented        oriented;

internalField   nonuniform List<scalar> 
760
(
1.53651e-05
-1.5365e-05
2.88393e-05
-1.34742e-05
3.03539e-05
-1.51453e-06
1.7741e-05
1.26128e-05
-1.24863e-05
3.02273e-05
-6.66295e-05
5.41432e-05
-0.000147856
8.12268e-05
-0.000247605
9.97485e-05
-0.000345936
9.83317e-05
-0.000419724
7.37875e-05
-0.000452278
3.25541e-05
-0.000433896
-1.83821e-05
-0.000358834
-7.50618e-05
-0.000238375
-0.000120459
-9.536e-05
-0.000143015
3.29142e-05
-0.000128274
0.000107327
-7.4413e-05
0.000102321
5.00663e-06
4.57546e-05
5.6566e-05
4.57547e-05
1.20914e-05
-2.74564e-05
6.72476e-06
-8.10762e-06
-3.03517e-05
3.55619e-05
-0.00010799
9.02507e-05
-0.000230658
0.000152895
-0.000390457
0.000213942
-0.000562689
0.000253459
-0.000716323
0.000253382
-0.000828953
0.000210962
-0.000889551
0.000134385
-0.000893373
3.63758e-05
-0.00083811
-7.36443e-05
-0.000726869
-0.000186303
-0.000562884
-0.000284444
-0.000360433
-0.000345466
-0.0001498
-0.000338907
1.65322e-05
-0.000240745
8.48311e-05
-6.32923e-05
5.21426e-05
8.92545e-05
9.78974e-05
-1.30514e-05
-1.4405e-05
-6.36129e-05
4.24539e-05
-0.000162046
0.000133995
-0.000312419
0.000240624
-0.00050241
0.000342886
-0.000702506
0.000414038
-0.000881437
0.000432391
-0.00102118
0.000393129
-0.0011165
0.000306276
-0.00116659
0.000184477
-0.0011664
3.61856e-05
-0.00112107
-0.000118972
-0.00102866
-0.000278713
-0.000883729
-0.000429377
-0.000684229
-0.000544966
-0.000438985
-0.000584152
-0.000187715
-0.000492014
-9.08892e-06
-0.000241918
2.92663e-05
5.08993e-05
0.000127164
-4.98773e-05
3.54723e-05
-0.000155166
0.000147742
-0.000309825
0.000288654
-0.000504334
0.000435133
-0.00071308
0.000551632
-0.00090559
0.000606548
-0.00106168
0.000588485
-0.001177
0.000508441
-0.00125428
0.000383563
-0.00129703
0.000227222
-0.00130382
4.29771e-05
-0.00128033
-0.000142458
-0.00122281
-0.000336232
-0.00112106
-0.000531129
-0.000961953
-0.000704075
-0.000733018
-0.000813087
-0.000438074
-0.000786958
-0.000137583
-0.000542409
1.18764e-05
-9.85603e-05
0.00013904
-8.55176e-05
0.00012099
-0.000234231
0.000296456
-0.000419692
0.000474115
-0.000622724
0.000638165
-0.000815546
0.000744454
-0.000975992
0.000766994
-0.00109628
0.000708775
-0.00117897
0.000591129
-0.00123023
0.000434826
-0.00125738
0.000254371
-0.00126947
5.50618e-05
-0.00126533
-0.000146589
-0.00124401
-0.000357559
-0.00119751
-0.000577625
-0.00110717
-0.000794422
-0.000944184
-0.00097607
-0.000678771
-0.00105237
-0.000320873
-0.000900307
-2.62223e-05
-0.000393211
0.000112818
-0.000107596
0.000228586
-0.000275774
0.000464634
-0.000463457
0.000661798
-0.000647742
0.00082245
-0.000806372
0.000903084
-0.000926194
0.000886816
-0.00100665
0.000789227
-0.00105416
0.000638643
-0.00107778
0.000458446
-0.00108758
0.000264167
-0.00109574
6.32224e-05
-0.00110119
-0.000141132
-0.00110542
-0.000353338
-0.00110539
-0.000577652
-0.00108561
-0.000814204
-0.00101325
-0.00104843
-0.000838999
-0.00122662
-0.000521589
-0.00121772
-0.000115382
-0.000799418
-2.56404e-06
-0.0001098
0.000338386
-0.000272979
0.000627814
-0.000441239
0.000830057
-0.000593541
0.000974752
-0.000713936
0.00102348
-0.000796061
0.000968941
-0.00084352
0.000836686
-0.000864952
0.000660075
-0.000870764
0.000464258
-0.000870813
0.000264217
-0.000873552
6.59616e-05
-0.000880988
-0.000133696
-0.000895075
-0.000339251
-0.000916874
-0.000555854
-0.000940502
-0.000790576
-0.000942561
-0.00104637
-0.000871031
-0.00129815
-0.000650469
-0.00143828
-0.000240996
-0.00120889
-0.00024356
-9.24118e-05
0.000430797
-0.000232166
0.000767568
-0.000369656
0.000967547
-0.000486564
0.00109166
-0.000572771
0.00110969
-0.000626449
0.00102262
-0.00065317
0.000863408
-0.000662004
0.000668908
-0.000662669
0.000464924
-0.000662655
0.000264203
-0.000665748
6.90549e-05
-0.000673752
-0.000125693
-0.00068882
-0.000324183
-0.000713989
-0.000530685
-0.000750809
-0.000753755
-0.000789843
-0.00100733
-0.000789761
-0.00129823
-0.000668816
-0.00155922
-0.000356606
-0.0015211
-0.000600166
-6.1643e-05
0.00049244
-0.000166818
0.000872743
-0.000269213
0.00106994
-0.000352343
0.00117479
-0.000410595
0.00116794
-0.000444871
0.0010569
-0.000460965
0.000879502
-0.000466729
0.000674672
-0.000469507
0.000467702
-0.000473827
0.000268522
-0.00048081
7.60384e-05
-0.000491176
-0.000115326
-0.000505976
-0.000309383
-0.000528126
-0.000508535
-0.000563114
-0.000718768
-0.000612058
-0.000958389
-0.000652645
-0.00125765
-0.000610511
-0.00160136
-0.000390739
-0.00174087
-0.000990905
-2.2834e-05
0.000515274
-8.81944e-05
0.000938103
-0.000154734
0.00113648
-0.000207146
0.0012272
-0.00024259
0.00120338
-0.000263433
0.00107774
-0.000274465
0.000890533
-0.000281037
0.000681244
-0.000287709
0.000474374
-0.000296773
0.000277586
-0.000308536
8.78013e-05
-0.000323007
-0.000100855
-0.000340257
-0.000292132
-0.000361587
-0.000487205
-0.000392215
-0.000688141
-0.000440284
-0.000910319
-0.000500093
-0.00119784
-0.000510922
-0.00159053
-0.000354872
-0.00189692
-0.00134578
1.62854e-05
0.000498989
-6.7481e-06
0.000961137
-3.97036e-05
0.00116944
-6.44924e-05
0.00125199
-7.9655e-05
0.00121855
-8.82773e-05
0.00108636
-9.4322e-05
0.000896578
-0.000101012
0.000687934
-0.000110044
0.000483406
-0.000122194
0.000289736
-0.000137685
0.000103292
-0.000156738
-8.18018e-05
-0.000179271
-0.0002696
-0.000205151
-0.000461324
-0.000237281
-0.000656011
-0.000285068
-0.000862533
-0.000354646
-0.00112826
-0.000401835
-0.00154334
-0.000302123
-0.00199664
-0.0016479
4.95936e-05
0.000449395
6.92593e-05
0.000941471
7.35768e-05
0.00116512
7.71969e-05
0.00124837
8.18054e-05
0.00121394
8.48205e-05
0.00108335
8.42121e-05
0.000897187
7.91288e-05
0.000693017
6.97431e-05
0.000492792
5.62717e-05
0.000303207
3.82769e-05
0.000121287
1.51331e-05
-5.86579e-05
-1.33794e-05
-0.000241088
-4.79455e-05
-0.000426758
-8.91266e-05
-0.00061483
-0.00014163
-0.000810029
-0.000220162
-0.00104973
-0.000295544
-0.00146796
-0.000246183
-0.002046
-0.00189408
7.47742e-05
0.000374621
0.000134048
0.000882197
0.000173047
0.00112612
0.000205829
0.00121559
0.000233077
0.00118669
0.000251674
0.00106475
0.000260712
0.000888149
0.00026125
0.000692479
0.000254763
0.000499278
0.000242077
0.000315894
0.000222569
0.000140795
0.000194852
-3.09407e-05
0.000158828
-0.000205063
0.000113997
-0.000381928
5.98204e-05
-0.000560653
-9.06301e-06
-0.000741146
-9.65395e-05
-0.000962251
-0.000192906
-0.00137159
-0.000192991
-0.00204591
-0.00208707
8.60132e-05
0.000288608
0.000179092
0.000789118
0.000252697
0.00105252
0.000316393
0.00115189
0.000370872
0.00113221
0.000411724
0.0010239
0.000437264
0.000862608
0.000448876
0.000680868
0.000448947
0.000499207
0.000439113
0.000325727
0.000419266
0.000160642
0.000386672
1.65366e-06
0.000342596
-0.000160987
0.000284865
-0.000324196
0.000213416
-0.000489204
0.00012989
-0.00065762
2.49997e-05
-0.000857361
-9.73254e-05
-0.00124927
-0.000143435
-0.0019998
-0.00223051
7.96047e-05
0.000209003
0.000193178
0.000675545
0.000296588
0.000949106
0.000393283
0.0010552
0.000480482
0.00104501
0.000551514
0.000952863
0.000602384
0.000811738
0.00063337
0.000649882
0.000646648
0.000485929
0.000644178
0.000328197
0.000625985
0.000178836
0.000591485
3.61532e-05
0.00053802
-0.000107522
0.000465879
-0.000252055
0.000374264
-0.00039759
0.000265969
-0.000549326
0.000136633
-0.000728024
-1.67577e-05
-0.00109588
-9.22874e-05
-0.00192427
-0.0023228
5.69754e-05
0.000152028
0.000173823
0.000558697
0.000306532
0.000816397
0.000440663
0.000921065
0.000566491
0.000919184
0.000674124
0.000845231
0.000756963
0.000728898
0.000813718
0.000593128
0.000845687
0.00045396
0.000854675
0.000319208
0.000841427
0.000192083
0.00080578
7.18006e-05
0.000743421
-4.51634e-05
0.000655977
-0.00016461
0.000542133
-0.000283746
0.000405975
-0.000413168
0.000254233
-0.000576282
9.35203e-05
-0.000935164
-1.54525e-05
-0.0018153
-0.00233825
1.47662e-05
0.000137261
0.000102299
0.000471165
0.000248752
0.000669944
0.000419727
0.000750091
0.000590842
0.000748068
0.000743385
0.000692689
0.000867052
0.000605231
0.000958861
0.000501319
0.00101834
0.000394477
0.00104677
0.00029078
0.00104479
0.000194066
0.00101303
0.000103558
0.000947322
2.05467e-05
0.000849221
-6.65098e-05
0.000718149
-0.000152674
0.000559098
-0.000254116
0.000387864
-0.000405048
0.000222113
-0.000769413
6.45595e-05
-0.00165775
-0.00227369
-5.13972e-05
0.000188659
1.94604e-05
0.000400307
0.000173585
0.000515819
0.00037839
0.000545285
0.000592486
0.000533972
0.000787382
0.000497793
0.000949407
0.000443205
0.00107445
0.00037628
0.00116075
0.000308174
0.00121005
0.000241479
0.00122281
0.000181305
0.00120109
0.000125281
0.00114701
7.46301e-05
0.00105808
2.24117e-05
0.000934702
-2.92918e-05
0.000783717
-0.000103132
0.000623701
-0.000245031
0.00044405
-0.000589762
0.000204888
-0.00141858
-0.0020688
-0.000417571
0.000606229
-0.000364002
0.000346739
-0.000125447
0.000277265
0.000153087
0.000266751
0.000425664
0.000261395
0.000677819
0.000245638
0.000898369
0.000222655
0.00108136
0.000193285
0.00122504
0.000164502
0.00133211
0.000134404
0.00140432
0.000109094
0.00144611
8.34911e-05
0.00145637
6.43764e-05
0.00143615
4.26251e-05
0.00138446
2.23979e-05
0.0013028
-2.1466e-05
0.00119025
-0.000132489
0.00101044
-0.000409951
0.000563462
-0.000971603
-0.00150534
0.000606229
0.000952968
0.00123023
0.00149698
0.00175838
0.00200402
0.00222667
0.00241996
0.00258446
0.00271886
0.00282796
0.00291145
0.00297583
0.00301845
0.00304085
0.00301938
0.00288689
0.00247694
0.00150534
)
;

boundaryField
{
    movingWall
    {
        type            calculated;
        value           uniform 0;
    }
    fixedWalls
    {
        type            calculated;
        value           uniform 0;
    }
    frontAndBack
    {
        type            empty;
    }
}


// ************************************************************************* //
