/*--------------------------------*- C++ -*----------------------------------*\
| =========                 |                                                 |
| \\      /  F ield         | OpenFOAM: The Open Source CFD Toolbox           |
|  \\    /   O peration     | Version:  2506                                  |
|   \\  /    A nd           | Website:  www.openfoam.com                      |
|    \\/     M anipulation  |                                                 |
\*---------------------------------------------------------------------------*/
FoamFile
{
    version     2.0;
    format      ascii;
    arch        "LSB;label=32;scalar=64";
    class       pointScalarField;
    location    "41";
    object      streamFunction;
}
// * * * * * * * * * * * * * * * * * * * * * * * * * * * * * * * * * * * * * //

dimensions      [0 3 -1 0 0 0 0];

internalField   nonuniform List<scalar> 
882
(
0
0
0
0
0
0
0
0
0
0
0
0
0
0
0
0
0
0
0
0
0
0
0.000153662
0.000288389
0.000303565
0.000177465
-0.000124864
-0.000666322
-0.00147855
-0.00247607
-0.00345942
-0.00419712
-0.0045227
-0.00433911
-0.0035885
-0.00238374
-0.000953518
0.00032915
0.00107334
0.00102326
0.000457544
0
0
0.000274576
0.000355637
4.8e-08
-0.000902435
-0.00243144
-0.00457089
-0.00710544
-0.0096393
-0.011749
-0.0130926
-0.0134564
-0.0127202
-0.0108572
-0.00801258
-0.00455785
-0.00116885
0.00123866
0.00187157
0.00097897
0
0
0.000144062
-0.000280492
-0.00162041
-0.00402662
-0.00745554
-0.011596
-0.0159198
-0.0198511
-0.022914
-0.0247585
-0.0251204
-0.0239309
-0.0211438
-0.0168499
-0.0114001
-0.0055587
-0.000638492
0.00178068
0.00127163
0
0
-0.000354711
-0.00183215
-0.00471866
-0.00906996
-0.0145863
-0.0206519
-0.0265366
-0.0316211
-0.0354568
-0.0377288
-0.0381586
-0.0367342
-0.0333719
-0.0280605
-0.0210197
-0.0128889
-0.00501923
0.000404848
0.0013904
0
0
-0.00120989
-0.00417446
-0.00891558
-0.0152972
-0.0227418
-0.0304118
-0.0374994
-0.0434108
-0.0477591
-0.0503026
-0.0508533
-0.0493875
-0.045812
-0.0400356
-0.0320914
-0.0223307
-0.0118069
-0.00280388
0.00112817
0
0
-0.00228585
-0.0069322
-0.0135502
-0.0217746
-0.0308055
-0.0396737
-0.0475659
-0.0539524
-0.0585369
-0.0611784
-0.0618107
-0.0603994
-0.0568662
-0.0510895
-0.0429475
-0.0324632
-0.0201969
-0.00801977
-2.5646e-05
0
0
-0.00338385
-0.00966199
-0.0179625
-0.02771
-0.0379449
-0.0476343
-0.0560011
-0.0626019
-0.0672445
-0.0698866
-0.0705462
-0.0692093
-0.0658169
-0.0602582
-0.0523525
-0.0418888
-0.0289072
-0.0145245
-0.00243561
0
0
-0.00430796
-0.0119837
-0.0216591
-0.0325757
-0.0436726
-0.0538988
-0.0625328
-0.069222
-0.0738712
-0.0765131
-0.0772037
-0.0759468
-0.0727051
-0.0673981
-0.0598606
-0.0497873
-0.0368049
-0.0212126
-0.00600167
0
0
-0.00492439
-0.0136518
-0.0243512
-0.0360991
-0.0477785
-0.0583475
-0.0671425
-0.0738892
-0.0785663
-0.0812514
-0.0820118
-0.0808586
-0.0777649
-0.0726794
-0.0654917
-0.0559078
-0.0433313
-0.0273177
-0.00990906
0
0
-0.00515273
-0.0145338
-0.0258986
-0.0381706
-0.0502044
-0.0609819
-0.0698871
-0.0766996
-0.0814433
-0.0842191
-0.0850972
-0.0840886
-0.0811675
-0.0762952
-0.0694139
-0.0603107
-0.0483322
-0.032427
-0.0134578
0
0
-0.00498988
-0.0146013
-0.0262956
-0.0388155
-0.051001
-0.0618646
-0.0708303
-0.0777097
-0.0825438
-0.085441
-0.086474
-0.085656
-0.0829602
-0.0783467
-0.0717867
-0.0631614
-0.0518787
-0.0364453
-0.016479
0
0
-0.00449395
-0.0139087
-0.0255598
-0.0380435
-0.0501829
-0.0610164
-0.0699882
-0.0769184
-0.0818463
-0.0848783
-0.0860913
-0.0855047
-0.083094
-0.0788262
-0.0726779
-0.0645777
-0.0540803
-0.0394007
-0.0189408
0
0
-0.0037462
-0.0125682
-0.0238294
-0.0359852
-0.0478522
-0.0584997
-0.0673811
-0.0743059
-0.0792987
-0.0824576
-0.0838656
-0.0835562
-0.0815057
-0.0776862
-0.0720797
-0.0646683
-0.0550457
-0.0413298
-0.0208707
0
0
-0.00288607
-0.0107773
-0.0213024
-0.0328213
-0.0441435
-0.0543824
-0.0630084
-0.0698172
-0.0748092
-0.0780664
-0.0796729
-0.0796894
-0.0780797
-0.0748376
-0.0699456
-0.0633694
-0.0547957
-0.0423031
-0.0223051
0
0
-0.00209002
-0.00884548
-0.0183365
-0.0288885
-0.0393386
-0.0488673
-0.0569846
-0.0634835
-0.0683428
-0.0716246
-0.0734131
-0.0737746
-0.0726995
-0.0701788
-0.0662029
-0.0607097
-0.0534294
-0.0424706
-0.023228
0
0
-0.00152027
-0.00710725
-0.0152712
-0.0244818
-0.0336737
-0.0421261
-0.049415
-0.0553463
-0.0598859
-0.0630779
-0.0649988
-0.0657168
-0.0652653
-0.063619
-0.0607816
-0.0566499
-0.050887
-0.0415354
-0.0233825
0
0
-0.00137261
-0.00608426
-0.0127837
-0.0202846
-0.0277653
-0.0346922
-0.0407445
-0.0457577
-0.0497025
-0.0526102
-0.0545509
-0.0555865
-0.0557921
-0.0551268
-0.0536001
-0.051059
-0.0470084
-0.0393143
-0.0227369
0
0
-0.00188658
-0.00588966
-0.0110478
-0.0165007
-0.0218404
-0.0268184
-0.0312504
-0.0350132
-0.038095
-0.0405097
-0.0423228
-0.0435756
-0.044322
-0.044546
-0.0442531
-0.0432218
-0.0407714
-0.0348738
-0.020688
0
0
-0.00606229
-0.00952968
-0.0123023
-0.0149698
-0.0175838
-0.0200402
-0.0222667
-0.0241996
-0.0258446
-0.0271886
-0.0282796
-0.0291145
-0.0297583
-0.0301845
-0.0304085
-0.0301938
-0.0288689
-0.0247694
-0.0150534
0
0
0
0
0
0
0
0
0
0
0
0
0
0
0
0
0
0
0
0
0
0
0
0
0
0
0
0
0
0
0
0
0
0
0
0
0
0
0
0
0
0
0
0
0.000153662
0.000288389
0.000303565
0.000177465
-0.000124864
-0.000666322
-0.00147855
-0.00247607
-0.00345942
-0.00419712
-0.0045227
-0.00433911
-0.0035885
-0.00238374
-0.000953518
0.00032915
0.00107334
0.00102326
0.000457544
0
0
0.000274576
0.000355637
4.8e-08
-0.000902435
-0.00243144
-0.00457089
-0.00710544
-0.0096393
-0.011749
-0.0130926
-0.0134564
-0.0127202
-0.0108572
-0.00801258
-0.00455785
-0.00116885
0.00123866
0.00187157
0.00097897
0
0
0.000144062
-0.000280492
-0.00162041
-0.00402662
-0.00745554
-0.011596
-0.0159198
-0.0198511
-0.022914
-0.0247585
-0.0251204
-0.0239309
-0.0211438
-0.0168499
-0.0114001
-0.0055587
-0.000638492
0.00178068
0.00127163
0
0
-0.000354711
-0.00183215
-0.00471866
-0.00906996
-0.0145863
-0.0206519
-0.0265366
-0.0316211
-0.0354568
-0.0377288
-0.0381586
-0.0367342
-0.0333719
-0.0280605
-0.0210197
-0.0128889
-0.00501923
0.000404848
0.0013904
0
0
-0.00120989
-0.00417446
-0.00891558
-0.0152972
-0.0227418
-0.0304118
-0.0374994
-0.0434108
-0.0477591
-0.0503026
-0.0508533
-0.0493875
-0.045812
-0.0400356
-0.0320914
-0.0223307
-0.0118069
-0.00280388
0.00112817
0
0
-0.00228585
-0.0069322
-0.0135502
-0.0217746
-0.0308055
-0.0396737
-0.0475659
-0.0539524
-0.0585369
-0.0611784
-0.0618107
-0.0603994
-0.0568662
-0.0510895
-0.0429475
-0.0324632
-0.0201969
-0.00801977
-2.5646e-05
0
0
-0.00338385
-0.00966199
-0.0179625
-0.02771
-0.0379449
-0.0476343
-0.0560011
-0.0626019
-0.0672445
-0.0698866
-0.0705462
-0.0692093
-0.0658169
-0.0602582
-0.0523525
-0.0418888
-0.0289072
-0.0145245
-0.00243561
0
0
-0.00430796
-0.0119837
-0.0216591
-0.0325757
-0.0436726
-0.0538988
-0.0625328
-0.069222
-0.0738712
-0.0765131
-0.0772037
-0.0759468
-0.0727051
-0.0673981
-0.0598606
-0.0497873
-0.0368049
-0.0212126
-0.00600167
0
0
-0.00492439
-0.0136518
-0.0243512
-0.0360991
-0.0477785
-0.0583475
-0.0671425
-0.0738892
-0.0785663
-0.0812514
-0.0820118
-0.0808586
-0.0777649
-0.0726794
-0.0654917
-0.0559078
-0.0433313
-0.0273177
-0.00990906
0
0
-0.00515273
-0.0145338
-0.0258986
-0.0381706
-0.0502044
-0.0609819
-0.0698871
-0.0766996
-0.0814433
-0.0842191
-0.0850972
-0.0840886
-0.0811675
-0.0762952
-0.0694139
-0.0603107
-0.0483322
-0.032427
-0.0134578
0
0
-0.00498988
-0.0146013
-0.0262956
-0.0388155
-0.051001
-0.0618646
-0.0708303
-0.0777097
-0.0825438
-0.085441
-0.086474
-0.085656
-0.0829602
-0.0783467
-0.0717867
-0.0631614
-0.0518787
-0.0364453
-0.016479
0
0
-0.00449395
-0.0139087
-0.0255598
-0.0380435
-0.0501829
-0.0610164
-0.0699882
-0.0769184
-0.0818463
-0.0848783
-0.0860913
-0.0855047
-0.083094
-0.0788262
-0.0726779
-0.0645777
-0.0540803
-0.0394007
-0.0189408
0
0
-0.0037462
-0.0125682
-0.0238294
-0.0359852
-0.0478522
-0.0584997
-0.0673811
-0.0743059
-0.0792987
-0.0824576
-0.0838656
-0.0835562
-0.0815057
-0.0776862
-0.0720797
-0.0646683
-0.0550457
-0.0413298
-0.0208707
0
0
-0.00288607
-0.0107773
-0.0213024
-0.0328213
-0.0441435
-0.0543824
-0.0630084
-0.0698172
-0.0748092
-0.0780664
-0.0796729
-0.0796894
-0.0780797
-0.0748376
-0.0699456
-0.0633694
-0.0547957
-0.0423031
-0.0223051
0
0
-0.00209002
-0.00884548
-0.0183365
-0.0288885
-0.0393386
-0.0488673
-0.0569846
-0.0634835
-0.0683428
-0.0716246
-0.0734131
-0.0737746
-0.0726995
-0.0701788
-0.0662029
-0.0607097
-0.0534294
-0.0424706
-0.023228
0
0
-0.00152027
-0.00710725
-0.0152712
-0.0244818
-0.0336737
-0.0421261
-0.049415
-0.0553463
-0.0598859
-0.0630779
-0.0649988
-0.0657168
-0.0652653
-0.063619
-0.0607816
-0.0566499
-0.050887
-0.0415354
-0.0233825
0
0
-0.00137261
-0.00608426
-0.0127837
-0.0202846
-0.0277653
-0.0346922
-0.0407445
-0.0457577
-0.0497025
-0.0526102
-0.0545509
-0.0555865
-0.0557921
-0.0551268
-0.0536001
-0.051059
-0.0470084
-0.0393143
-0.0227369
0
0
-0.00188658
-0.00588966
-0.0110478
-0.0165007
-0.0218404
-0.0268184
-0.0312504
-0.0350132
-0.038095
-0.0405097
-0.0423228
-0.0435756
-0.044322
-0.044546
-0.0442531
-0.0432218
-0.0407714
-0.0348738
-0.020688
0
0
-0.00606229
-0.00952968
-0.0123023
-0.0149698
-0.0175838
-0.0200402
-0.0222667
-0.0241996
-0.0258446
-0.0271886
-0.0282796
-0.0291145
-0.0297583
-0.0301845
-0.0304085
-0.0301938
-0.0288689
-0.0247694
-0.0150534
0
0
0
0
0
0
0
0
0
0
0
0
0
0
0
0
0
0
0
0
0
0
)
;

boundaryField
{
    movingWall
    {
        type            calculated;
    }
    fixedWalls
    {
        type            calculated;
    }
    frontAndBack
    {
        type            empty;
    }
}


// ************************************************************************* //
