/*--------------------------------*- C++ -*----------------------------------*\
| =========                 |                                                 |
| \\      /  F ield         | OpenFOAM: The Open Source CFD Toolbox           |
|  \\    /   O peration     | Version:  2506                                  |
|   \\  /    A nd           | Website:  www.openfoam.com                      |
|    \\/     M anipulation  |                                                 |
\*---------------------------------------------------------------------------*/
FoamFile
{
    version     2.0;
    format      ascii;
    arch        "LSB;label=32;scalar=64";
    class       volVectorField;
    location    "41";
    object      U;
}
// * * * * * * * * * * * * * * * * * * * * * * * * * * * * * * * * * * * * * //

dimensions      [0 1 -1 0 0 0 0];

internalField   nonuniform List<vector> 
400
(
(0.00165715 -0.00166307 0)
(0.00475964 -0.00186611 0)
(0.00646847 -0.00118599 0)
(0.00554019 -0.000565213 0)
(0.00145261 0.00019289 0)
(-0.0068915 0.00173704 0)
(-0.0205566 0.00474462 0)
(-0.0393255 0.00864478 0)
(-0.0604315 0.0111904 0)
(-0.0786701 0.0104511 0)
(-0.089359 0.00676746 0)
(-0.0901054 0.00170417 0)
(-0.080034 -0.00354936 0)
(-0.059992 -0.0081958 0)
(-0.0337027 -0.0107768 0)
(-0.00560779 -0.00975767 0)
(0.0163621 -0.00480884 0)
(0.0241784 0.00271169 0)
(0.0160455 0.0064066 0)
(0.00429358 0.00468269 0)
(0.00167583 -0.00497376 0)
(0.00304002 -0.00393475 0)
(-0.000574833 0.000627707 0)
(-0.0114356 0.00642188 0)
(-0.0313735 0.0139544 0)
(-0.0608336 0.0235699 0)
(-0.096238 0.0327674 0)
(-0.130631 0.0368059 0)
(-0.15803 0.0333263 0)
(-0.175148 0.0233414 0)
(-0.180563 0.00917687 0)
(-0.174315 -0.00681807 0)
(-0.156976 -0.0229213 0)
(-0.129272 -0.0366301 0)
(-0.0934524 -0.0443084 0)
(-0.0522469 -0.0416781 0)
(-0.0116092 -0.0263418 0)
(0.0166098 -0.00144013 0)
(0.017706 0.0160352 0)
(0.00551209 0.0147079 0)
(-0.000280349 -0.0056097 0)
(-0.00545458 0.000946387 0)
(-0.0196252 0.0142752 0)
(-0.0443279 0.0310153 0)
(-0.0798458 0.0490343 0)
(-0.121364 0.063791 0)
(-0.16124 0.0700247 0)
(-0.193988 0.0656236 0)
(-0.217486 0.0519596 0)
(-0.231136 0.0314994 0)
(-0.23494 0.00657794 0)
(-0.229552 -0.0207747 0)
(-0.215281 -0.0483974 0)
(-0.191625 -0.0726852 0)
(-0.15831 -0.0885127 0)
(-0.115303 -0.0888541 0)
(-0.0644043 -0.0669008 0)
(-0.0139231 -0.0228596 0)
(0.00938325 0.0176258 0)
(0.00415121 0.0234013 0)
(-0.00346837 0.000645772 0)
(-0.0174437 0.0173059 0)
(-0.0432641 0.041254 0)
(-0.0791162 0.0676472 0)
(-0.122019 0.0904151 0)
(-0.164598 0.103062 0)
(-0.200455 0.10222 0)
(-0.227633 0.0891725 0)
(-0.246384 0.0670512 0)
(-0.25731 0.0385531 0)
(-0.261245 0.0055493 0)
(-0.258991 -0.0306352 0)
(-0.250485 -0.067775 0)
(-0.234679 -0.102939 0)
(-0.209581 -0.130673 0)
(-0.17249 -0.142193 0)
(-0.120861 -0.125339 0)
(-0.0566691 -0.0708336 0)
(-0.0010583 0.00325396 0)
(0.0047371 0.0280195 0)
(-0.00661441 0.014888 0)
(-0.0285038 0.043962 0)
(-0.0627705 0.0765355 0)
(-0.103575 0.108035 0)
(-0.146047 0.13018 0)
(-0.183101 0.137211 0)
(-0.211273 0.128681 0)
(-0.230931 0.108145 0)
(-0.24336 0.0794549 0)
(-0.250286 0.0453953 0)
(-0.253401 0.0075006 0)
(-0.253642 -0.0334328 0)
(-0.250787 -0.0762644 0)
(-0.244268 -0.119687 0)
(-0.231276 -0.159751 0)
(-0.207184 -0.188018 0)
(-0.165964 -0.189176 0)
(-0.102953 -0.142464 0)
(-0.0221567 -0.0390091 0)
(0.00732399 0.0268475 0)
(-0.00842535 0.0347844 0)
(-0.0348358 0.0761998 0)
(-0.0724001 0.114066 0)
(-0.112211 0.146512 0)
(-0.149185 0.164768 0)
(-0.177861 0.16481 0)
(-0.197242 0.148796 0)
(-0.208855 0.121777 0)
(-0.214681 0.0880999 0)
(-0.217209 0.0507545 0)
(-0.218433 0.011206 0)
(-0.219373 -0.0301428 0)
(-0.220236 -0.0737859 0)
(-0.221099 -0.12013 0)
(-0.219756 -0.167971 0)
(-0.211089 -0.211822 0)
(-0.187011 -0.23748 0)
(-0.138953 -0.2177 0)
(-0.0624931 -0.118594 0)
(0.0057515 0.0140184 0)
(-0.00819285 0.0566759 0)
(-0.0349524 0.109263 0)
(-0.0710886 0.149305 0)
(-0.106008 0.179736 0)
(-0.13541 0.192412 0)
(-0.155661 0.185161 0)
(-0.167419 0.162204 0)
(-0.172782 0.129661 0)
(-0.174163 0.0923147 0)
(-0.174088 0.0531949 0)
(-0.174106 0.0135436 0)
(-0.174918 -0.0266119 0)
(-0.17708 -0.0684521 0)
(-0.181122 -0.113309 0)
(-0.186367 -0.162327 0)
(-0.189136 -0.21435 0)
(-0.181502 -0.26035 0)
(-0.153473 -0.274058 0)
(-0.0988025 -0.20513 0)
(-0.00887346 -0.0147278 0)
(-0.00604877 0.0770238 0)
(-0.0294302 0.139519 0)
(-0.0607367 0.179771 0)
(-0.0889368 0.206666 0)
(-0.110757 0.21328 0)
(-0.124149 0.199115 0)
(-0.130663 0.170081 0)
(-0.132595 0.133144 0)
(-0.132412 0.0933296 0)
(-0.132097 0.0533812 0)
(-0.132376 0.0140303 0)
(-0.133449 -0.0251213 0)
(-0.135786 -0.065152 0)
(-0.140081 -0.107357 0)
(-0.146927 -0.153774 0)
(-0.154958 -0.206778 0)
(-0.158127 -0.264346 0)
(-0.146043 -0.306806 0)
(-0.111692 -0.276131 0)
(-0.0307449 -0.0750339 0)
(-0.00267734 0.0928226 0)
(-0.0201389 0.164349 0)
(-0.0446019 0.203935 0)
(-0.065581 0.226741 0)
(-0.0806962 0.227754 0)
(-0.0890525 0.207929 0)
(-0.0925067 0.174348 0)
(-0.0931935 0.134506 0)
(-0.0932302 0.0934544 0)
(-0.0938249 0.0534724 0)
(-0.0950512 0.0146594 0)
(-0.0968217 -0.0238059 0)
(-0.0993193 -0.0627671 0)
(-0.103057 -0.102993 0)
(-0.109184 -0.146195 0)
(-0.118409 -0.196378 0)
(-0.127506 -0.257945 0)
(-0.125967 -0.321938 0)
(-0.107035 -0.333405 0)
(-0.0371461 -0.162511 0)
(0.00122125 0.101813 0)
(-0.00878919 0.181984 0)
(-0.0252953 0.221314 0)
(-0.0391392 0.240768 0)
(-0.0485046 0.23759 0)
(-0.053267 0.213764 0)
(-0.0550857 0.177152 0)
(-0.0556136 0.135627 0)
(-0.0563897 0.0941737 0)
(-0.0579876 0.0545426 0)
(-0.0601885 0.0162713 0)
(-0.0628436 -0.0217444 0)
(-0.0659532 -0.0602185 0)
(-0.0697116 -0.099457 0)
(-0.0750675 -0.140254 0)
(-0.0836092 -0.186373 0)
(-0.0953871 -0.246186 0)
(-0.100288 -0.322645 0)
(-0.0948946 -0.370775 0)
(-0.0308236 -0.241387 0)
(0.00505805 0.102924 0)
(0.00295825 0.191453 0)
(-0.00528048 0.231688 0)
(-0.0123063 0.248691 0)
(-0.0166275 0.242661 0)
(-0.018444 0.216581 0)
(-0.0190379 0.178649 0)
(-0.019457 0.136737 0)
(-0.0206581 0.0955879 0)
(-0.0228267 0.0565697 0)
(-0.0256673 0.0189412 0)
(-0.0291071 -0.0184968 0)
(-0.0331659 -0.0564966 0)
(-0.0378044 -0.0952041 0)
(-0.0435853 -0.134641 0)
(-0.0517883 -0.17735 0)
(-0.0653069 -0.233184 0)
(-0.0740616 -0.316246 0)
(-0.0810685 -0.395186 0)
(-0.0229006 -0.305795 0)
(0.00832545 0.0965083 0)
(0.0140511 0.192404 0)
(0.0139511 0.235161 0)
(0.0135734 0.25142 0)
(0.0142079 0.244382 0)
(0.0154211 0.2178 0)
(0.0163055 0.179879 0)
(0.0163846 0.138333 0)
(0.0152548 0.097706 0)
(0.012968 0.0593001 0)
(0.00980312 0.0224038 0)
(0.00573334 -0.0141764 0)
(0.000611268 -0.051309 0)
(-0.00544094 -0.0891814 0)
(-0.0128286 -0.127499 0)
(-0.0217725 -0.167395 0)
(-0.0375689 -0.218047 0)
(-0.0488071 -0.302527 0)
(-0.0679292 -0.406966 0)
(-0.014475 -0.358661 0)
(0.0101356 0.083714 0)
(0.0230788 0.184876 0)
(0.0306687 0.231311 0)
(0.0365422 0.247975 0)
(0.0421539 0.241164 0)
(0.0470649 0.215506 0)
(0.0504573 0.178888 0)
(0.0520778 0.138672 0)
(0.0518754 0.0992212 0)
(0.0500698 0.0619048 0)
(0.0469182 0.0261959 0)
(0.0423396 -0.00903327 0)
(0.0361546 -0.0447316 0)
(0.0284589 -0.0811596 0)
(0.0184836 -0.118003 0)
(0.00729779 -0.155583 0)
(-0.0120127 -0.201693 0)
(-0.0245482 -0.284486 0)
(-0.0560002 -0.409533 0)
(-0.0061919 -0.400597 0)
(0.00967041 0.0667571 0)
(0.0285562 0.169262 0)
(0.0437112 0.220347 0)
(0.056118 0.239234 0)
(0.0672918 0.234305 0)
(0.0768695 0.21106 0)
(0.0839805 0.176926 0)
(0.0883144 0.138793 0)
(0.0899494 0.100942 0)
(0.0892054 0.0649632 0)
(0.0864232 0.0307034 0)
(0.0814058 -0.002869 0)
(0.0739927 -0.0364111 0)
(0.0644501 -0.0705517 0)
(0.0514486 -0.105129 0)
(0.0367583 -0.140092 0)
(0.0125691 -0.181629 0)
(-0.000433818 -0.261321 0)
(-0.045064 -0.405363 0)
(0.00267357 -0.435156 0)
(0.00677724 0.049256 0)
(0.0288318 0.147855 0)
(0.0503036 0.201974 0)
(0.0689684 0.222633 0)
(0.0862584 0.219745 0)
(0.10178 0.199695 0)
(0.114281 0.169274 0)
(0.123072 0.134609 0)
(0.12807 0.0997159 0)
(0.129546 0.0663046 0)
(0.12778 0.0346104 0)
(0.122858 0.00380833 0)
(0.114297 -0.0264953 0)
(0.102735 -0.0571742 0)
(0.0859529 -0.0883127 0)
(0.0670787 -0.120565 0)
(0.0373881 -0.158465 0)
(0.0232353 -0.235389 0)
(-0.0347799 -0.397787 0)
(0.0133349 -0.463577 0)
(0.00232805 0.0347611 0)
(0.0231746 0.123195 0)
(0.0501038 0.17862 0)
(0.0755259 0.201298 0)
(0.0999216 0.200906 0)
(0.122555 0.184579 0)
(0.141773 0.158681 0)
(0.156357 0.128468 0)
(0.165896 0.0975561 0)
(0.170618 0.0676528 0)
(0.170489 0.0393416 0)
(0.166238 0.0121967 0)
(0.156499 -0.0141589 0)
(0.142949 -0.0404823 0)
(0.121987 -0.0671099 0)
(0.0988173 -0.0956113 0)
(0.063415 -0.130707 0)
(0.0463175 -0.206035 0)
(-0.0231121 -0.386276 0)
(0.0283326 -0.485003 0)
(-0.00338887 0.0289543 0)
(0.00973921 0.101217 0)
(0.0363438 0.14774 0)
(0.0678359 0.168153 0)
(0.100389 0.169259 0)
(0.131788 0.157015 0)
(0.159483 0.136717 0)
(0.18175 0.112515 0)
(0.19756 0.0874802 0)
(0.207281 0.0631415 0)
(0.210097 0.0402439 0)
(0.207786 0.0186388 0)
(0.197637 -0.00203988 0)
(0.183197 -0.0223208 0)
(0.158742 -0.042694 0)
(0.132548 -0.0662693 0)
(0.0915621 -0.100172 0)
(0.0691895 -0.178868 0)
(-0.00475659 -0.369545 0)
(0.0519681 -0.491363 0)
(-0.0137822 0.0188513 0)
(-0.00749606 0.088227 0)
(0.0187469 0.123727 0)
(0.0555308 0.136502 0)
(0.0962327 0.135928 0)
(0.136185 0.126728 0)
(0.172049 0.112149 0)
(0.201539 0.094509 0)
(0.223162 0.0762258 0)
(0.238022 0.0582958 0)
(0.243963 0.041686 0)
(0.244839 0.0262524 0)
(0.235658 0.0121763 0)
(0.224027 -0.00139818 0)
(0.199431 -0.0152354 0)
(0.175945 -0.0340785 0)
(0.132173 -0.0668482 0)
(0.107125 -0.145439 0)
(0.037147 -0.326042 0)
(0.0922368 -0.455835 0)
(-0.105859 0.0826536 0)
(-0.0776264 0.069178 0)
(-0.0486332 0.0731936 0)
(0.0033638 0.0774903 0)
(0.0564561 0.0777015 0)
(0.10876 0.0734057 0)
(0.155538 0.0661101 0)
(0.197536 0.0567854 0)
(0.22939 0.0472284 0)
(0.257333 0.0377009 0)
(0.272996 0.0291864 0)
(0.288144 0.0213372 0)
(0.28865 0.0147208 0)
(0.292967 0.00843606 0)
(0.277064 0.00156841 0)
(0.270246 -0.00957087 0)
(0.231348 -0.0351771 0)
(0.217697 -0.0952413 0)
(0.150118 -0.229718 0)
(0.170655 -0.341492 0)
(0.130059 0.103809 0)
(0.158512 0.0754029 0)
(0.21247 0.0534232 0)
(0.27096 0.0417744 0)
(0.323396 0.0360082 0)
(0.375605 0.0319953 0)
(0.419946 0.028937 0)
(0.465005 0.0255904 0)
(0.497895 0.0229183 0)
(0.532989 0.019737 0)
(0.552354 0.0175937 0)
(0.578162 0.0146728 0)
(0.584377 0.01325 0)
(0.602861 0.0104464 0)
(0.59449 0.00949723 0)
(0.603227 0.005102 0)
(0.567658 0.000173632 0)
(0.547722 -0.0182637 0)
(0.435923 -0.0504093 0)
(0.336867 -0.101405 0)
)
;

boundaryField
{
    movingWall
    {
        type            fixedValue;
        value           uniform (1 0 0);
    }
    fixedWalls
    {
        type            noSlip;
    }
    frontAndBack
    {
        type            empty;
    }
}


// ************************************************************************* //
