/*--------------------------------*- C++ -*----------------------------------*\
| =========                 |                                                 |
| \\      /  F ield         | OpenFOAM: The Open Source CFD Toolbox           |
|  \\    /   O peration     | Version:  2506                                  |
|   \\  /    A nd           | Website:  www.openfoam.com                      |
|    \\/     M anipulation  |                                                 |
\*---------------------------------------------------------------------------*/
FoamFile
{
    version     2.0;
    format      ascii;
    arch        "LSB;label=32;scalar=64";
    class       volScalarField;
    location    "350";
    object      div(phi);
}
// * * * * * * * * * * * * * * * * * * * * * * * * * * * * * * * * * * * * * //

dimensions      [0 0 -1 0 0 0 0];

internalField   nonuniform List<scalar> 
1340
(
-1.38763e-08
-2.1602e-08
-4.48468e-09
-2.15789e-08
-3.45743e-09
-6.4111e-09
-1.47759e-08
-4.93516e-10
-8.1339e-09
-2.34986e-09
-8.9784e-09
-1.58111e-08
2.76894e-09
-7.32459e-09
-1.05283e-09
-5.15789e-09
1.11014e-08
-2.08325e-08
1.88048e-09
2.82849e-09
-6.39852e-09
1.3034e-09
-6.01558e-09
-1.19239e-09
-2.30436e-09
8.99834e-09
-3.03527e-09
4.13118e-09
6.43976e-09
-3.31282e-09
-7.60574e-09
2.76565e-09
-5.34573e-09
4.14065e-10
-4.12081e-09
-7.10058e-09
2.06346e-08
-7.92013e-09
3.13548e-09
1.8602e-09
1.15414e-08
1.51109e-09
-6.28231e-09
7.55665e-10
2.93558e-09
-6.16614e-09
2.32198e-09
-4.77005e-09
-5.08781e-10
-3.25983e-08
1.15297e-08
1.38661e-08
-1.80986e-08
1.63827e-08
-5.11461e-10
3.5189e-09
-7.18662e-10
7.13759e-09
-3.22145e-09
2.65131e-09
6.53258e-09
-2.97116e-09
-7.5402e-09
3.05193e-09
-4.88644e-09
1.17297e-09
-3.51805e-09
-1.90355e-08
5.08992e-08
-4.9237e-08
4.31108e-08
-2.97647e-08
1.62091e-08
-1.10887e-08
-6.79058e-09
1.31483e-08
-1.65081e-10
8.02602e-09
-4.88263e-09
1.7945e-09
-1.39201e-09
9.83266e-09
1.9396e-09
-5.77205e-09
1.0468e-10
3.5173e-09
-6.42606e-09
2.69966e-09
-4.16855e-09
-1.19123e-10
2.55677e-08
2.0182e-08
2.2772e-08
3.20198e-08
1.44371e-08
3.28107e-08
1.28057e-08
2.10577e-08
-5.7833e-09
1.64921e-08
-1.88215e-08
1.12878e-08
-2.18432e-08
1.46285e-09
-5.57825e-09
-9.54055e-09
4.90884e-09
-5.39703e-09
1.67708e-09
-1.578e-09
7.57173e-09
-3.57161e-09
1.55141e-09
6.52271e-09
-2.2575e-09
-7.21653e-09
3.44884e-09
-4.44376e-09
1.51129e-09
-2.75896e-09
2.95686e-07
-9.23504e-08
1.20848e-07
-4.95693e-08
9.26431e-08
-3.16472e-08
5.5193e-08
-1.80178e-08
4.67177e-08
-3.49048e-11
4.04158e-08
7.57249e-09
2.76581e-08
1.64202e-08
2.50648e-08
2.48683e-08
1.602e-08
2.38373e-08
1.15105e-08
7.40843e-09
7.43142e-09
-9.12364e-09
1.88299e-09
-1.80514e-08
4.69427e-09
-1.95817e-08
-1.28321e-08
-8.04415e-09
-6.35625e-09
7.05141e-10
-6.52647e-09
8.97717e-10
-7.56522e-09
7.99337e-09
2.89037e-09
-5.5001e-09
-1.33802e-10
4.04641e-09
-5.79477e-09
2.92291e-09
-3.61707e-09
1.25318e-10
6.00344e-07
-1.37029e-06
-4.03238e-07
-9.29076e-07
-1.86223e-07
-7.42368e-07
-7.30749e-08
-5.98065e-07
2.96528e-08
-4.88552e-07
6.0277e-08
-4.36395e-07
9.3373e-08
-4.12396e-07
9.63007e-08
-4.01779e-07
1.17385e-07
-3.83773e-07
1.18285e-07
-3.7853e-07
1.3606e-07
-3.79593e-07
1.52083e-07
-3.69116e-07
1.62679e-07
-3.39166e-07
1.79113e-07
-2.9601e-07
1.7155e-07
-2.31541e-07
1.95015e-07
-1.6378e-07
2.04967e-07
-1.18234e-07
1.9046e-07
-7.85758e-08
1.50876e-07
-5.05722e-08
1.16851e-07
-3.41063e-08
8.69115e-08
-1.79156e-08
6.2736e-08
1.21244e-09
5.47692e-08
1.34172e-08
4.4865e-08
2.13806e-08
3.18017e-08
2.77675e-08
2.75303e-08
2.48086e-08
2.2609e-08
2.3088e-08
1.5138e-08
1.8224e-08
1.09159e-08
3.72826e-09
2.45513e-09
-4.33848e-09
3.05208e-09
-1.47019e-08
-6.6252e-09
-1.29338e-08
-8.98084e-09
-4.50992e-09
-1.05949e-08
-3.07793e-09
-1.06419e-08
5.21314e-09
-7.07965e-09
-5.89988e-10
5.67638e-09
-8.67696e-10
-6.25856e-09
4.0112e-09
-4.33381e-09
1.63912e-09
-2.30909e-09
1.73658e-06
-7.51672e-07
3.81503e-07
-5.41783e-07
3.9318e-07
-4.55181e-07
3.77868e-07
-3.91823e-07
3.6989e-07
-3.30997e-07
3.27347e-07
-2.87911e-07
3.00797e-07
-2.59072e-07
2.70104e-07
-2.41897e-07
2.51428e-07
-2.26111e-07
2.23176e-07
-2.16708e-07
2.05468e-07
-2.1305e-07
1.90715e-07
-2.08197e-07
1.75462e-07
-1.92429e-07
1.60655e-07
-1.66368e-07
1.40639e-07
-1.39476e-07
1.50365e-07
-1.14248e-07
1.23217e-07
-8.58205e-08
1.27446e-07
-5.96513e-08
1.15941e-07
-3.79115e-08
9.45498e-08
-1.78753e-08
8.12686e-08
-3.40029e-09
6.72927e-08
4.71497e-09
4.98201e-08
1.52394e-08
3.79486e-08
2.14668e-08
3.35714e-08
2.04422e-08
2.36702e-08
2.43183e-08
1.80349e-08
1.93794e-08
1.73398e-08
1.65402e-08
1.21998e-08
1.00232e-08
8.14081e-09
5.07294e-09
1.86907e-10
4.04794e-10
-4.6252e-09
-5.34279e-09
-4.83344e-09
-6.28063e-09
-3.45704e-09
-9.75876e-09
-1.17543e-09
-1.37922e-08
4.34713e-09
2.20433e-09
-4.17628e-09
-1.01595e-09
4.68028e-09
-5.42411e-09
3.13974e-09
-3.39546e-09
2.4393e-10
1.86402e-06
-7.48746e-07
2.78435e-07
-4.48141e-07
3.52164e-07
-3.4626e-07
3.7321e-07
-3.05691e-07
3.60423e-07
-2.82465e-07
3.38503e-07
-2.53842e-07
2.99003e-07
-2.27462e-07
2.69787e-07
-2.05115e-07
2.44952e-07
-1.86389e-07
2.24275e-07
-1.69088e-07
2.03896e-07
-1.55023e-07
1.86054e-07
-1.46429e-07
1.74744e-07
-1.3489e-07
1.50848e-07
-1.20565e-07
1.36802e-07
-9.47696e-08
1.11872e-07
-6.30172e-08
1.2823e-07
-4.03644e-08
1.18304e-07
-3.15214e-08
1.00892e-07
-3.09831e-08
8.29205e-08
-3.18093e-08
5.5246e-08
-2.54209e-08
3.65158e-08
-9.13204e-09
3.32831e-08
1.77334e-09
3.06371e-08
9.78867e-09
2.1506e-08
1.77066e-08
2.04609e-08
1.60146e-08
1.77628e-08
1.7247e-08
1.31987e-08
1.58766e-08
1.30779e-08
1.20064e-08
9.60433e-09
8.23457e-09
5.16935e-09
3.36799e-09
1.16568e-09
-6.70084e-10
-1.62809e-09
-1.75409e-09
-4.42237e-09
-2.39578e-09
-1.17585e-08
4.68727e-09
-6.16022e-09
-1.09522e-09
2.01368e-10
1.08449e-10
-5.51267e-09
4.46738e-09
-3.8211e-09
1.77442e-09
-1.72112e-09
1.80711e-06
-5.21085e-07
4.28191e-07
-3.69916e-07
3.99166e-07
-3.0545e-07
3.8119e-07
-2.65606e-07
3.56292e-07
-2.4788e-07
3.33692e-07
-2.33787e-07
2.89527e-07
-2.14757e-07
2.49356e-07
-1.92915e-07
2.1797e-07
-1.7503e-07
1.96287e-07
-1.57709e-07
1.75e-07
-1.41807e-07
1.58389e-07
-1.2849e-07
1.44848e-07
-1.16276e-07
1.30346e-07
-1.02465e-07
1.14543e-07
-8.88087e-08
9.87094e-08
-7.77359e-08
8.42483e-08
-6.29578e-08
7.01471e-08
-4.7978e-08
7.21338e-08
-3.30623e-08
6.0819e-08
-2.08416e-08
5.51557e-08
-1.19825e-08
4.81538e-08
-1.01432e-08
3.21448e-08
-3.28285e-09
2.13281e-08
4.89799e-09
2.20804e-08
8.34492e-09
1.63761e-08
1.51123e-08
1.36422e-08
1.51905e-08
1.42666e-08
1.40012e-08
1.11016e-08
1.11736e-08
8.76903e-09
7.30432e-09
5.63338e-09
3.74448e-09
2.56756e-09
1.53937e-09
1.44367e-10
2.44544e-10
7.45821e-10
-3.73653e-09
2.57355e-09
-1.05905e-08
2.53654e-09
-4.52865e-09
-3.53853e-09
-7.54237e-09
3.07398e-09
-4.68312e-09
3.40351e-09
-2.71849e-09
4.66464e-10
1.72515e-06
-6.19795e-07
2.12755e-07
-3.48089e-07
2.90378e-07
-2.46686e-07
2.87582e-07
-1.96699e-07
2.8481e-07
-1.72448e-07
2.7042e-07
-1.619e-07
2.56101e-07
-1.51475e-07
2.2453e-07
-1.38517e-07
1.97412e-07
-1.27091e-07
1.75008e-07
-1.19472e-07
1.54175e-07
-1.12224e-07
1.35639e-07
-1.03825e-07
1.19591e-07
-9.67393e-08
1.07272e-07
-8.74191e-08
9.31117e-08
-7.74184e-08
7.99398e-08
-6.63216e-08
6.76197e-08
-5.92265e-08
6.22289e-08
-5.5059e-08
4.4599e-08
-5.32883e-08
3.58215e-08
-5.04145e-08
2.34309e-08
-4.50001e-08
9.38581e-09
-2.95136e-08
1.12258e-08
-1.43711e-08
1.66095e-08
-2.31192e-09
1.32649e-08
9.14129e-09
1.55487e-08
1.11586e-08
1.38408e-08
1.22883e-08
9.35137e-09
1.12005e-08
8.25278e-09
8.60761e-09
6.21129e-09
5.69523e-09
4.70846e-09
2.61121e-09
3.62495e-09
1.27798e-09
1.87055e-09
7.74068e-10
2.61277e-09
1.38367e-09
-8.69898e-09
3.16786e-09
-8.68603e-09
-3.38072e-09
-8.79182e-09
-1.59391e-09
-7.62812e-09
3.80423e-09
-3.39408e-09
1.9327e-09
-1.36242e-09
1.47434e-06
-5.58049e-07
2.52514e-07
-3.86342e-07
2.8226e-07
-3.08507e-07
2.68752e-07
-2.54303e-07
2.61948e-07
-2.15705e-07
2.44161e-07
-1.97245e-07
2.2714e-07
-1.88849e-07
2.0042e-07
-1.7738e-07
1.69465e-07
-1.60507e-07
1.43241e-07
-1.47117e-07
1.22952e-07
-1.3564e-07
1.06667e-07
-1.25327e-07
9.42224e-08
-1.15382e-07
8.57845e-08
-1.06947e-07
7.95998e-08
-9.66371e-08
7.36013e-08
-8.62781e-08
6.50762e-08
-7.57656e-08
6.03791e-08
-6.62957e-08
5.08722e-08
-5.69792e-08
4.71169e-08
-4.5544e-08
3.56452e-08
-3.1528e-08
4.22968e-08
-2.04006e-08
3.83084e-08
-1.17143e-08
2.79855e-08
-3.47369e-09
2.99773e-08
1.08453e-10
2.00721e-08
4.02102e-09
1.21953e-08
6.46376e-09
1.06597e-08
8.04912e-09
6.39179e-09
7.92339e-09
4.22807e-09
6.36881e-09
2.42217e-09
4.20348e-09
1.64599e-09
2.858e-09
6.13055e-10
1.73616e-09
2.33007e-09
-4.82882e-09
2.2949e-09
-7.61772e-09
-1.95439e-09
-6.18024e-09
-4.74146e-09
-8.12345e-09
1.47127e-10
-5.42068e-09
2.96557e-09
-2.4817e-09
5.92711e-10
1.47822e-06
-5.82283e-07
2.07737e-07
-3.85978e-07
2.20728e-07
-3.15214e-07
1.96501e-07
-2.71756e-07
1.76566e-07
-2.3856e-07
1.55374e-07
-2.13013e-07
1.42504e-07
-1.93904e-07
1.31237e-07
-1.76673e-07
1.23998e-07
-1.56138e-07
1.11253e-07
-1.36728e-07
9.84821e-08
-1.21414e-07
8.59085e-08
-1.10352e-07
7.69347e-08
-1.00833e-07
6.82831e-08
-9.38663e-08
6.09062e-08
-8.78586e-08
5.44955e-08
-8.05128e-08
4.76422e-08
-7.17103e-08
4.23123e-08
-6.20701e-08
3.78724e-08
-5.21357e-08
3.4059e-08
-4.35763e-08
3.10493e-08
-3.75523e-08
2.34389e-08
-2.96208e-08
1.67044e-08
-2.18311e-08
2.11101e-08
-1.54817e-08
1.12073e-08
-8.39325e-09
1.07796e-08
-2.96958e-09
1.02452e-08
1.01227e-09
5.2319e-09
3.1658e-09
3.89468e-09
3.86463e-09
1.63558e-09
3.46146e-09
3.29843e-10
2.35934e-09
4.25807e-10
1.77201e-09
6.39345e-11
1.48155e-09
1.28354e-09
8.65995e-11
-1.78792e-10
-1.63744e-09
-2.27087e-10
-4.91897e-09
-5.09058e-09
-3.58454e-09
-7.53896e-09
1.79899e-09
-3.96633e-09
1.72095e-09
-1.12202e-09
1.11501e-06
-7.19742e-07
1.58663e-07
-4.60335e-07
2.15502e-07
-3.40943e-07
2.1845e-07
-2.66636e-07
2.08296e-07
-2.14909e-07
1.96312e-07
-1.77724e-07
1.80969e-07
-1.50421e-07
1.65799e-07
-1.30753e-07
1.53679e-07
-1.1371e-07
1.40497e-07
-9.67393e-08
1.26399e-07
-7.98605e-08
1.11786e-07
-6.50426e-08
1.00823e-07
-5.20042e-08
9.19243e-08
-4.15701e-08
8.42575e-08
-3.38037e-08
7.73289e-08
-2.94417e-08
6.896e-08
-2.68383e-08
5.93093e-08
-2.58039e-08
5.02069e-08
-2.47039e-08
4.17007e-08
-2.39653e-08
3.39029e-08
-2.27588e-08
2.79333e-08
-2.38245e-08
2.21294e-08
-2.47768e-08
1.01644e-08
-2.34588e-08
9.10457e-09
-2.02857e-08
5.44936e-09
-1.6075e-08
1.67844e-09
-1.15501e-08
1.31106e-09
-6.75144e-09
-5.87258e-10
-2.75411e-09
-1.18544e-09
6.60776e-10
-1.41106e-09
3.02264e-09
-1.31516e-09
4.38566e-09
-1.85501e-09
5.37449e-09
-2.37367e-09
6.79107e-09
-2.10572e-09
4.5481e-09
-2.1091e-09
-4.00766e-10
-3.54618e-09
-6.57869e-09
-4.89257e-10
-6.27958e-09
2.40421e-09
-2.4568e-09
6.02067e-10
3.17329e-07
-4.79838e-07
2.83699e-08
-3.85636e-07
6.84186e-08
-3.11623e-07
9.67422e-08
-2.50342e-07
1.12921e-07
-2.01159e-07
1.23468e-07
-1.61707e-07
1.25725e-07
-1.30256e-07
1.25696e-07
-1.05186e-07
1.23032e-07
-8.62632e-08
1.19391e-07
-7.08796e-08
1.10413e-07
-5.77947e-08
9.98297e-08
-4.68605e-08
8.92796e-08
-3.90147e-08
7.9402e-08
-3.32969e-08
7.0153e-08
-2.99211e-08
6.06909e-08
-2.83238e-08
5.21119e-08
-2.72397e-08
4.22378e-08
-2.57861e-08
3.54546e-08
-2.38424e-08
2.74187e-08
-2.11524e-08
2.31554e-08
-1.63882e-08
1.70299e-08
-1.04598e-08
2.23791e-08
-7.62807e-09
1.72766e-08
-7.98939e-09
1.06756e-08
-8.61786e-09
6.46018e-09
-8.3035e-09
5.09379e-10
-5.56747e-09
-1.61285e-10
-1.33299e-09
9.08714e-10
2.14877e-09
1.86777e-09
4.17403e-09
2.26503e-09
4.76069e-09
2.31155e-09
4.70683e-09
1.76603e-09
6.19495e-09
1.91851e-09
3.91177e-09
1.36657e-09
1.7841e-09
-5.66961e-10
-2.81154e-09
-1.48868e-09
-6.98989e-09
1.99128e-09
-4.16895e-09
1.48402e-09
-1.01949e-09
5.08966e-08
-4.63818e-07
-5.85139e-08
-3.73883e-07
-1.09513e-08
-3.00267e-07
3.04678e-08
-2.37763e-07
5.75622e-08
-1.8812e-07
7.66026e-08
-1.49232e-07
8.42504e-08
-1.19943e-07
8.98416e-08
-9.76564e-08
8.78656e-08
-8.21848e-08
8.45273e-08
-7.19781e-08
7.76331e-08
-6.4609e-08
6.87885e-08
-5.79172e-08
5.88583e-08
-5.2398e-08
4.92142e-08
-4.78412e-08
4.13987e-08
-4.40902e-08
3.42326e-08
-4.05712e-08
2.89737e-08
-3.66966e-08
2.44929e-08
-3.2422e-08
2.07917e-08
-2.81496e-08
1.75955e-08
-2.40863e-08
1.43899e-08
-2.09429e-08
1.25686e-08
-1.93488e-08
7.34768e-09
-1.7057e-08
3.33698e-09
-1.45623e-08
3.09666e-09
-1.05464e-08
6.54704e-10
-6.45882e-09
2.28692e-09
-2.14581e-09
3.34509e-09
1.00714e-09
3.68904e-09
3.28151e-09
3.61883e-09
4.41744e-09
3.4061e-09
4.61357e-09
2.95991e-09
4.32385e-09
2.41587e-09
5.35416e-09
2.2672e-09
3.24538e-09
1.66702e-09
1.26961e-09
2.88388e-10
-7.29182e-10
-5.08243e-09
1.14018e-09
-5.92096e-09
2.10193e-09
-2.50977e-09
6.16994e-10
1.73494e-07
-2.26256e-07
6.63162e-08
-1.89056e-07
8.48551e-08
-1.641e-07
8.86372e-08
-1.42563e-07
8.84244e-08
-1.23214e-07
8.5329e-08
-1.06564e-07
8.04435e-08
-9.24164e-08
7.47592e-08
-7.96638e-08
6.97825e-08
-6.80287e-08
6.45879e-08
-5.83519e-08
5.9419e-08
-5.09132e-08
5.44224e-08
-4.40406e-08
4.8423e-08
-3.76842e-08
4.30704e-08
-3.22442e-08
3.83419e-08
-2.70317e-08
3.42844e-08
-2.21764e-08
3.06225e-08
-1.89186e-08
2.69844e-08
-1.68459e-08
2.31609e-08
-1.55755e-08
1.92654e-08
-1.44489e-08
1.5636e-08
-1.3559e-08
1.19011e-08
-1.28016e-08
9.47887e-09
-1.37033e-08
5.60403e-09
-1.4516e-08
3.94851e-11
-1.4535e-08
-2.2347e-09
-1.22454e-08
-3.84583e-09
-8.34106e-09
-2.75231e-09
-3.87451e-09
-8.30204e-10
-3.56761e-10
6.55606e-10
1.67585e-09
1.16642e-09
2.51302e-09
1.20328e-09
2.80307e-09
1.00995e-09
3.56772e-09
1.1627e-09
1.83398e-09
8.86295e-10
3.74342e-10
1.36422e-10
-2.23545e-09
3.19157e-10
-6.38361e-09
2.26165e-09
-4.07972e-09
1.25964e-09
-2.56545e-10
2.68303e-07
-2.32435e-07
4.82896e-08
-1.88457e-07
5.48199e-08
-1.56135e-07
5.79575e-08
-1.28711e-07
6.06768e-08
-1.0571e-07
6.12947e-08
-8.70517e-08
5.99703e-08
-7.19759e-08
5.68704e-08
-6.03317e-08
5.29247e-08
-5.13469e-08
4.74085e-08
-4.44266e-08
4.16852e-08
-3.93952e-08
3.57794e-08
-3.63916e-08
2.91902e-08
-3.43991e-08
2.28886e-08
-3.2624e-08
1.64681e-08
-3.06314e-08
1.16283e-08
-2.89331e-08
7.77322e-09
-2.73389e-08
5.55061e-09
-2.56787e-08
4.00146e-09
-2.33576e-08
3.93514e-09
-2.06596e-08
3.30837e-09
-1.75675e-08
4.24084e-09
-1.43576e-08
3.06385e-09
-1.02814e-08
4.95697e-09
-6.4723e-09
6.01813e-09
-3.6865e-09
5.73553e-09
-2.04151e-09
5.13398e-09
-1.35874e-09
3.38066e-09
-1.11818e-09
1.63239e-09
-6.46634e-10
4.32059e-10
-7.09769e-11
-1.35655e-10
2.50259e-10
-3.93812e-10
5.13129e-10
-6.75841e-10
9.09742e-10
-7.77226e-10
6.48924e-10
-3.98249e-10
-2.74512e-10
-7.68331e-10
-3.74336e-10
-5.05496e-09
2.13961e-09
-4.89735e-09
1.07136e-09
-1.50123e-09
-9.84853e-11
9.63883e-08
-1.67418e-07
2.73584e-08
-1.34508e-07
4.35001e-08
-1.1067e-07
5.0046e-08
-9.09742e-08
5.24584e-08
-7.46512e-08
5.18958e-08
-6.16445e-08
4.86802e-08
-5.14434e-08
4.40688e-08
-4.36543e-08
3.8858e-08
-3.82258e-08
3.29704e-08
-3.46576e-08
2.59594e-08
-3.23064e-08
1.97696e-08
-3.07718e-08
1.42755e-08
-2.9618e-08
1.00178e-08
-2.81105e-08
6.65113e-09
-2.61104e-08
4.05857e-09
-2.42677e-08
2.30663e-09
-2.25366e-08
1.12424e-09
-2.08904e-08
8.13915e-10
-1.91328e-08
6.03745e-10
-1.72442e-08
9.20168e-10
-1.51721e-08
5.44714e-10
-1.32213e-08
7.83372e-10
-1.20362e-08
9.30975e-10
-1.18594e-08
-1.61068e-09
-1.18679e-08
-2.73977e-09
-1.11557e-08
-4.3255e-09
-9.60116e-09
-4.82945e-09
-7.17164e-09
-4.11098e-09
-4.82054e-09
-3.25422e-09
-3.08172e-09
-2.69259e-09
-1.83562e-09
-2.21224e-09
-7.74729e-10
-1.85521e-09
-4.29584e-10
-1.58526e-09
-4.25182e-10
-1.10591e-09
-1.10536e-09
-7.075e-10
-2.91516e-09
1.64671e-09
-4.29407e-09
2.05076e-10
-2.76865e-09
-1.16835e-09
-5.7265e-10
1.63922e-07
-1.07954e-07
4.11862e-08
-8.38243e-08
4.67761e-08
-6.71172e-08
4.48612e-08
-5.43924e-08
4.20568e-08
-4.43704e-08
3.68583e-08
-3.68595e-08
3.24708e-08
-3.08318e-08
2.76452e-08
-2.63137e-08
2.35484e-08
-2.30291e-08
1.87947e-08
-2.0697e-08
1.47598e-08
-1.89543e-08
1.16987e-08
-1.74994e-08
9.08743e-09
-1.61245e-08
7.81328e-09
-1.51005e-08
7.13837e-09
-1.47986e-08
6.85183e-09
-1.36973e-08
5.79809e-09
-1.12664e-08
5.27474e-09
-9.68614e-09
4.61202e-09
-9.82483e-09
3.75202e-09
-1.01899e-08
3.27234e-09
-9.60255e-09
2.32587e-09
-8.58487e-09
2.40811e-09
-7.09831e-09
1.20078e-09
-5.29829e-09
1.81426e-09
-3.35871e-09
2.21293e-09
-2.06414e-09
1.85585e-09
-1.57048e-09
1.40777e-09
-1.80316e-09
-4.44346e-11
-2.23389e-09
-1.42924e-09
-2.24886e-09
-2.0115e-09
-1.9615e-09
-2.03351e-09
-1.49163e-09
-1.88784e-09
-1.73212e-09
-2.3038e-09
-1.14464e-09
-1.76447e-09
-7.08929e-10
-1.34892e-09
5.92088e-10
-2.51528e-09
-4.84108e-10
-2.5357e-09
-1.56996e-09
-8.39936e-10
-2.08861e-10
3.14702e-08
-2.47125e-08
-9.50142e-09
-2.49099e-08
-1.60665e-08
-2.44466e-08
-1.99606e-08
-2.41702e-08
-2.3885e-08
-2.54434e-08
-2.52408e-08
-2.8212e-08
-2.7881e-08
-3.23573e-08
-2.8254e-08
-3.64129e-08
-2.93876e-08
-4.01042e-08
-2.7373e-08
-4.24557e-08
-2.61039e-08
-4.3641e-08
-2.25785e-08
-4.32369e-08
-1.94464e-08
-4.21273e-08
-1.55209e-08
-3.98695e-08
-1.2114e-08
-3.60957e-08
-9.06946e-09
-3.06049e-08
-6.48256e-09
-2.51747e-08
-4.81349e-09
-2.13011e-08
-3.26016e-09
-1.84136e-08
-2.74029e-09
-1.53361e-08
-2.17485e-09
-1.20309e-08
-1.86397e-09
-9.12644e-09
-2.19714e-09
-7.10402e-09
-2.10686e-09
-6.31817e-09
-2.74853e-09
-6.61919e-09
-4.5552e-09
-7.30858e-09
-5.70443e-09
-7.54447e-09
-6.70416e-09
-7.03327e-09
-6.45928e-09
-5.78191e-09
-5.27415e-09
-4.31645e-09
-3.94462e-09
-3.01176e-09
-2.80413e-09
-1.82175e-09
-2.25238e-09
-1.93759e-09
-1.88344e-09
-9.01612e-10
-8.89249e-10
-5.80865e-10
-3.12772e-10
-7.35019e-10
-4.16509e-10
-1.05259e-09
-7.82368e-10
-4.1587e-10
-1.27777e-10
-4.55258e-16
)
;

boundaryField
{
    inlet
    {
        type            extrapolatedCalculated;
        value           nonuniform List<scalar> 
27
(
-1.38763e-08
-4.48468e-09
-6.4111e-09
-2.34986e-09
-5.15789e-09
-1.19239e-09
-4.12081e-09
-5.08781e-10
-3.51805e-09
-1.19123e-10
-2.75896e-09
1.25318e-10
-2.30909e-09
2.4393e-10
-1.72112e-09
4.66464e-10
-1.36242e-09
5.92711e-10
-1.12202e-09
6.02067e-10
-1.01949e-09
6.16994e-10
-2.56545e-10
-9.84853e-11
-5.7265e-10
-2.08861e-10
-4.55258e-16
)
;
    }
    outlet
    {
        type            extrapolatedCalculated;
        value           nonuniform List<scalar> 
78
(
3.14702e-08
-2.47125e-08
-9.50142e-09
-2.49099e-08
-1.60665e-08
-2.44466e-08
-1.99606e-08
-2.41702e-08
-2.3885e-08
-2.54434e-08
-2.52408e-08
-2.8212e-08
-2.7881e-08
-3.23573e-08
-2.8254e-08
-3.64129e-08
-2.93876e-08
-4.01042e-08
-2.7373e-08
-4.24557e-08
-2.61039e-08
-4.3641e-08
-2.25785e-08
-4.32369e-08
-1.94464e-08
-4.21273e-08
-1.55209e-08
-3.98695e-08
-1.2114e-08
-3.60957e-08
-9.06946e-09
-3.06049e-08
-6.48256e-09
-2.51747e-08
-4.81349e-09
-2.13011e-08
-3.26016e-09
-1.84136e-08
-2.74029e-09
-1.53361e-08
-2.17485e-09
-1.20309e-08
-1.86397e-09
-9.12644e-09
-2.19714e-09
-7.10402e-09
-2.10686e-09
-6.31817e-09
-2.74853e-09
-6.61919e-09
-4.5552e-09
-7.30858e-09
-5.70443e-09
-7.54447e-09
-6.70416e-09
-7.03327e-09
-6.45928e-09
-5.78191e-09
-5.27415e-09
-4.31645e-09
-3.94462e-09
-3.01176e-09
-2.80413e-09
-1.82175e-09
-2.25238e-09
-1.93759e-09
-1.88344e-09
-9.01612e-10
-8.89249e-10
-5.80865e-10
-3.12772e-10
-7.35019e-10
-4.16509e-10
-1.05259e-09
-7.82368e-10
-4.1587e-10
-1.27777e-10
-4.55258e-16
)
;
    }
    walls
    {
        type            extrapolatedCalculated;
        value           nonuniform List<scalar> 0();
    }
    frontAndBack
    {
        type            empty;
    }
    procBoundary7to3
    {
        type            processor;
        value           nonuniform List<scalar> 
16
(
-4.99605e-06
-2.25621e-06
-1.60325e-06
-1.64147e-06
-1.23104e-06
-1.08173e-06
-1.30361e-06
-1.674e-06
-6.38248e-07
-6.38248e-07
-6.09889e-07
-3.15622e-07
-3.42185e-07
-2.27517e-07
-1.6571e-07
-4.35549e-08
)
;
    }
    procBoundary7to6
    {
        type            processor;
        value           nonuniform List<scalar> 
91
(
-8.62633e-09
-5.16155e-09
-5.16155e-09
-8.59877e-10
-8.59877e-10
5.95272e-09
5.95272e-09
7.31234e-09
6.61703e-09
6.61703e-09
3.30696e-09
1.09423e-08
1.09423e-08
1.07591e-08
6.67332e-09
1.80444e-08
1.80444e-08
3.50585e-08
-1.83195e-09
1.58748e-08
1.58748e-08
3.46148e-08
-2.77778e-09
-1.34775e-08
3.41755e-08
3.41755e-08
2.98567e-08
-2.85949e-08
4.01022e-08
-4.11693e-08
4.60372e-08
4.60372e-08
1.28831e-08
2.11988e-08
1.86108e-08
1.39626e-08
2.93088e-08
-7.75399e-09
4.64518e-08
4.64518e-08
1.05712e-07
-1.13223e-07
8.17211e-08
-5.11553e-08
6.58261e-08
-1.95365e-08
4.29822e-08
-4.19556e-10
2.57132e-08
1.14403e-08
2.19057e-08
2.3428e-09
2.3428e-09
-1.5247e-06
1.65031e-06
-1.13018e-06
1.7993e-06
-1.0017e-06
1.67633e-06
-8.94822e-07
1.47872e-06
-7.66803e-07
1.29211e-06
-6.79406e-07
1.16322e-06
-6.15809e-07
1.053e-06
-5.66308e-07
9.41202e-07
-5.11181e-07
8.45392e-07
-4.73094e-07
7.66516e-07
-4.48381e-07
6.99275e-07
-4.21465e-07
5.97317e-07
-3.81519e-07
5.15661e-07
-3.39665e-07
4.28545e-07
-2.94984e-07
3.67771e-07
-2.53237e-07
2.91774e-07
-1.98595e-07
2.40726e-07
-1.58509e-07
2.82377e-07
-3.39504e-07
-3.39504e-07
)
;
    }
}


// ************************************************************************* //
