/*--------------------------------*- C++ -*----------------------------------*\
| =========                 |                                                 |
| \\      /  F ield         | OpenFOAM: The Open Source CFD Toolbox           |
|  \\    /   O peration     | Version:  2506                                  |
|   \\  /    A nd           | Website:  www.openfoam.com                      |
|    \\/     M anipulation  |                                                 |
\*---------------------------------------------------------------------------*/
FoamFile
{
    version     2.0;
    format      ascii;
    arch        "LSB;label=32;scalar=64";
    class       volScalarField;
    location    "350";
    object      nuTilda;
}
// * * * * * * * * * * * * * * * * * * * * * * * * * * * * * * * * * * * * * //

dimensions      [0 2 -1 0 0 0 0];

internalField   nonuniform List<scalar> 
1340
(
4.00638e-05
4.00652e-05
4.00644e-05
4.00292e-05
4.00664e-05
4.00652e-05
4.00255e-05
4.0029e-05
4.00676e-05
4.00662e-05
4.00087e-05
4.00129e-05
4.00253e-05
4.00288e-05
4.00689e-05
4.00673e-05
4.00182e-05
4.00101e-05
4.00086e-05
4.00128e-05
4.0025e-05
4.00286e-05
4.00703e-05
4.00686e-05
4.0042e-05
4.00349e-05
4.00271e-05
4.0019e-05
4.00106e-05
4.00086e-05
4.00126e-05
4.00248e-05
4.00283e-05
4.00717e-05
4.00701e-05
4.00594e-05
4.00541e-05
4.00492e-05
4.00431e-05
4.0036e-05
4.0028e-05
4.00198e-05
4.00111e-05
4.00086e-05
4.00125e-05
4.00246e-05
4.0028e-05
4.00732e-05
4.00718e-05
4.00826e-05
4.00787e-05
4.00736e-05
4.00673e-05
4.00608e-05
4.00554e-05
4.00504e-05
4.00443e-05
4.00371e-05
4.0029e-05
4.00206e-05
4.00117e-05
4.00086e-05
4.00123e-05
4.00244e-05
4.00276e-05
4.00747e-05
4.00736e-05
4.00945e-05
4.00931e-05
4.00914e-05
4.00894e-05
4.00871e-05
4.00842e-05
4.00803e-05
4.00753e-05
4.00689e-05
4.00623e-05
4.00567e-05
4.00517e-05
4.00456e-05
4.00383e-05
4.003e-05
4.00216e-05
4.00123e-05
4.00086e-05
4.00121e-05
4.00242e-05
4.00271e-05
4.00763e-05
4.00757e-05
4.00993e-05
4.00992e-05
4.00992e-05
4.0099e-05
4.00987e-05
4.00981e-05
4.00973e-05
4.00962e-05
4.00948e-05
4.00931e-05
4.00911e-05
4.00888e-05
4.00859e-05
4.00821e-05
4.0077e-05
4.00707e-05
4.00639e-05
4.00582e-05
4.00531e-05
4.0047e-05
4.00396e-05
4.00312e-05
4.00225e-05
4.0013e-05
4.00087e-05
4.00119e-05
4.00239e-05
4.00266e-05
4.00778e-05
4.00779e-05
4.01024e-05
4.01038e-05
4.01034e-05
4.01029e-05
4.01025e-05
4.0102e-05
4.01015e-05
4.01013e-05
4.01012e-05
4.01011e-05
4.01011e-05
4.0101e-05
4.0101e-05
4.01009e-05
4.01009e-05
4.01007e-05
4.01004e-05
4.00999e-05
4.00991e-05
4.0098e-05
4.00966e-05
4.00949e-05
4.00929e-05
4.00906e-05
4.00877e-05
4.00839e-05
4.00789e-05
4.00725e-05
4.00656e-05
4.00597e-05
4.00546e-05
4.00484e-05
4.00409e-05
4.00324e-05
4.00236e-05
4.00138e-05
4.00089e-05
4.00116e-05
4.00237e-05
4.0026e-05
4.00794e-05
4.00803e-05
3.89304e-06
1.0142e-06
0
0
0.000161018
0.000476354
0.0161335
0.0552269
0.112703
0.176128
0.235552
0.285661
0.324122
0.35047
0.36588
0.3727
0.37385
0.362871
0.331031
0.272252
0.189117
0.0998191
0.0327094
0.00162888
0.000472602
0
0
0
4.95491e-06
1.94299e-05
4.01627e-05
4.32963e-05
4.06984e-05
3.96937e-05
3.99336e-05
4.01365e-05
4.01376e-05
4.01123e-05
4.01084e-05
4.01077e-05
4.0105e-05
4.01036e-05
4.01035e-05
4.01035e-05
4.01032e-05
4.0103e-05
4.01029e-05
4.01028e-05
4.01028e-05
4.01027e-05
4.01027e-05
4.01026e-05
4.01025e-05
4.01022e-05
4.01017e-05
4.01009e-05
4.00999e-05
4.00985e-05
4.00968e-05
4.00948e-05
4.00925e-05
4.00896e-05
4.00859e-05
4.00808e-05
4.00744e-05
4.00674e-05
4.00614e-05
4.00562e-05
4.00499e-05
4.00424e-05
4.00337e-05
4.00247e-05
4.00147e-05
4.00091e-05
4.00114e-05
4.00234e-05
4.00254e-05
4.00809e-05
4.00829e-05
4.00768e-05
5.84487e-06
1.54998e-06
0
0
4.99918e-06
0.00209399
0.00822866
0.0367068
0.0875896
0.150409
0.21321
0.268312
0.311965
0.342881
0.361634
0.370791
0.373083
0.364469
0.336213
0.281379
0.201323
0.112306
0.0400658
0.00373804
0.00103657
0
0
0
3.18076e-06
1.19326e-05
3.80921e-05
4.43922e-05
4.16077e-05
3.98414e-05
3.98591e-05
4.00982e-05
4.01204e-05
4.00948e-05
4.01e-05
4.01099e-05
4.01098e-05
4.01063e-05
4.01048e-05
4.01048e-05
4.01049e-05
4.01048e-05
4.01047e-05
4.01046e-05
4.01046e-05
4.01045e-05
4.01045e-05
4.01044e-05
4.01041e-05
4.01036e-05
4.01029e-05
4.01018e-05
4.01005e-05
4.00988e-05
4.00968e-05
4.00944e-05
4.00916e-05
4.00879e-05
4.00829e-05
4.00765e-05
4.00693e-05
4.00632e-05
4.00578e-05
4.00516e-05
4.00439e-05
4.00351e-05
4.00259e-05
4.00156e-05
4.00093e-05
4.00111e-05
4.00231e-05
4.00248e-05
4.00824e-05
4.00856e-05
4.32287e-05
4.01978e-05
1.19503e-05
3.1333e-06
0
0
0
0.000625603
0.00229537
0.0211361
0.0633476
0.123
0.187882
0.247809
0.297056
0.333216
0.356276
0.368342
0.371952
0.365628
0.340873
0.290102
0.213342
0.124126
0.0477329
0.00678364
0.00182598
0
0
0
8.51641e-07
2.09458e-06
3.22739e-05
4.36683e-05
4.21703e-05
4.00221e-05
3.98661e-05
4.01835e-05
4.02142e-05
4.01227e-05
4.00876e-05
4.00987e-05
4.01096e-05
4.01101e-05
4.01076e-05
4.01066e-05
4.01066e-05
4.01067e-05
4.01066e-05
4.01065e-05
4.01065e-05
4.01064e-05
4.01063e-05
4.01061e-05
4.01056e-05
4.01049e-05
4.01039e-05
4.01026e-05
4.01009e-05
4.00989e-05
4.00965e-05
4.00937e-05
4.009e-05
4.00851e-05
4.00786e-05
4.00714e-05
4.0065e-05
4.00596e-05
4.00533e-05
4.00456e-05
4.00366e-05
4.00273e-05
4.00167e-05
4.00097e-05
4.00109e-05
4.00228e-05
4.00242e-05
4.00839e-05
4.00886e-05
4.0325e-05
4.28765e-05
4.01994e-05
2.02203e-05
5.25603e-06
0
0
0
4.52135e-05
8.43308e-05
0.0107616
0.0420821
0.095595
0.1605
0.224661
0.279771
0.321752
0.349675
0.364986
0.370012
0.365842
0.34452
0.297861
0.224398
0.135338
0.0555982
0.0102568
0.00270869
0
0
0
7.23596e-08
7.29375e-06
2.93202e-05
4.31393e-05
4.28128e-05
3.98863e-05
3.92601e-05
3.98403e-05
4.02103e-05
4.02092e-05
4.01254e-05
4.00955e-05
4.01021e-05
4.01097e-05
4.01105e-05
4.01091e-05
4.01085e-05
4.01086e-05
4.01086e-05
4.01085e-05
4.01085e-05
4.01084e-05
4.01082e-05
4.01078e-05
4.01071e-05
4.01061e-05
4.01048e-05
4.01031e-05
4.01011e-05
4.00987e-05
4.00959e-05
4.00923e-05
4.00874e-05
4.0081e-05
4.00736e-05
4.00671e-05
4.00615e-05
4.00551e-05
4.00474e-05
4.00382e-05
4.00287e-05
4.00178e-05
4.00102e-05
4.00106e-05
4.00225e-05
4.00235e-05
4.00852e-05
4.00916e-05
3.99083e-05
4.02875e-05
4.23745e-05
4.06471e-05
2.8877e-05
7.39582e-06
1.11679e-07
0
0
9.44398e-07
0.000973313
0.00364682
0.0244387
0.0683066
0.129659
0.196605
0.258182
0.307622
0.342159
0.36206
0.369517
0.36716
0.348994
0.306573
0.236666
0.148251
0.0651658
0.0135815
0.00396194
0.000132672
0
0
0
5.76625e-06
2.25157e-05
4.14343e-05
4.5859e-05
4.26642e-05
3.99617e-05
3.94797e-05
3.98846e-05
4.01583e-05
4.01774e-05
4.01261e-05
4.0104e-05
4.01067e-05
4.01113e-05
4.01118e-05
4.01109e-05
4.01106e-05
4.01106e-05
4.01106e-05
4.01105e-05
4.01103e-05
4.011e-05
4.01093e-05
4.01084e-05
4.01071e-05
4.01054e-05
4.01034e-05
4.0101e-05
4.00982e-05
4.00947e-05
4.00899e-05
4.00834e-05
4.00759e-05
4.00692e-05
4.00635e-05
4.00571e-05
4.00493e-05
4.004e-05
4.00302e-05
4.00191e-05
4.00107e-05
4.00104e-05
4.00221e-05
4.00228e-05
4.00866e-05
4.00949e-05
4.01227e-05
3.99959e-05
4.02436e-05
4.12551e-05
4.10298e-05
3.69484e-05
1.58401e-05
4.16345e-06
2.99199e-08
0
0
0.000170371
0.000578131
0.00992565
0.0352148
0.0805872
0.140508
0.204999
0.264234
0.311532
0.343842
0.361361
0.364905
0.354243
0.322695
0.265327
0.186406
0.102788
0.0406127
0.0059235
0.00197668
5.33861e-05
0
0
6.77856e-07
5.15412e-06
1.76106e-05
3.68735e-05
4.39311e-05
4.2716e-05
4.03963e-05
3.96478e-05
3.98687e-05
4.01207e-05
4.01634e-05
4.01262e-05
4.01074e-05
4.01097e-05
4.01137e-05
4.01141e-05
4.01134e-05
4.01132e-05
4.01132e-05
4.01131e-05
4.01128e-05
4.01122e-05
4.01113e-05
4.011e-05
4.01083e-05
4.01063e-05
4.01039e-05
4.01012e-05
4.00976e-05
4.00929e-05
4.00865e-05
4.00788e-05
4.00719e-05
4.0066e-05
4.00595e-05
4.00516e-05
4.00421e-05
4.0032e-05
4.00206e-05
4.00115e-05
4.00102e-05
4.00217e-05
4.00222e-05
4.00878e-05
4.00984e-05
4.01313e-05
4.01241e-05
4.00236e-05
4.01202e-05
4.05939e-05
4.20641e-05
4.00079e-05
3.31907e-05
4.83288e-06
1.36087e-06
0
0
4.42637e-06
8.00492e-05
0.00231896
0.00858655
0.0315926
0.0738121
0.131366
0.195253
0.25546
0.304449
0.338404
0.356346
0.35835
0.34255
0.302991
0.238124
0.158331
0.082378
0.0297599
0.0026199
0.000951902
1.81378e-05
0
0
4.63695e-07
5.19066e-06
1.92255e-05
3.81707e-05
4.40893e-05
4.23126e-05
4.01445e-05
3.96763e-05
3.99725e-05
4.01643e-05
4.016e-05
4.01204e-05
4.01107e-05
4.01153e-05
4.01177e-05
4.01174e-05
4.01168e-05
4.01165e-05
4.01162e-05
4.01157e-05
4.01148e-05
4.01136e-05
4.01119e-05
4.01099e-05
4.01075e-05
4.01047e-05
4.01012e-05
4.00965e-05
4.00901e-05
4.00823e-05
4.00751e-05
4.0069e-05
4.00623e-05
4.00543e-05
4.00446e-05
4.00342e-05
4.00224e-05
4.00125e-05
4.00099e-05
4.00213e-05
4.00215e-05
4.0089e-05
4.01021e-05
4.01114e-05
4.01207e-05
4.01102e-05
4.00721e-05
4.00542e-05
4.04e-05
4.1278e-05
4.21121e-05
3.84706e-05
2.44468e-05
6.34102e-06
8.68362e-08
0
0
0
7.31416e-05
0.00202503
0.00741886
0.0294586
0.0707107
0.127779
0.191905
0.2529
0.302697
0.336779
0.35289
0.350775
0.326891
0.277348
0.206237
0.127564
0.0595939
0.0164206
0.000843999
0.000341634
0
0
0
5.3366e-07
6.93058e-06
2.69984e-05
4.19538e-05
4.38067e-05
4.11429e-05
3.9718e-05
3.97791e-05
4.00938e-05
4.01754e-05
4.01386e-05
4.0115e-05
4.01157e-05
4.01196e-05
4.01204e-05
4.01202e-05
4.012e-05
4.01194e-05
4.01186e-05
4.01173e-05
4.01157e-05
4.01137e-05
4.01112e-05
4.01084e-05
4.01049e-05
4.01003e-05
4.0094e-05
4.00861e-05
4.00786e-05
4.00722e-05
4.00653e-05
4.00572e-05
4.00473e-05
4.00366e-05
4.00244e-05
4.00136e-05
4.00098e-05
4.00208e-05
4.00209e-05
4.00901e-05
4.01059e-05
4.01077e-05
4.01121e-05
4.01102e-05
4.00933e-05
4.00427e-05
4.01848e-05
4.06388e-05
4.19979e-05
4.12956e-05
3.61513e-05
1.32562e-05
3.49431e-06
0
0
0
0
6.67313e-05
0.00201124
0.00739395
0.0295743
0.0712025
0.128906
0.193827
0.255355
0.304657
0.336618
0.347848
0.338486
0.304642
0.245864
0.170631
0.0947408
0.038207
0.00668274
0.00197999
1.70003e-06
0
0
0
4.00931e-06
1.49471e-05
3.67806e-05
4.43128e-05
4.25964e-05
4.01933e-05
3.96911e-05
3.9992e-05
4.01695e-05
4.01612e-05
4.01295e-05
4.01231e-05
4.01244e-05
4.01239e-05
4.01231e-05
4.01229e-05
4.01225e-05
4.01214e-05
4.01197e-05
4.01177e-05
4.01152e-05
4.01123e-05
4.01088e-05
4.01043e-05
4.00981e-05
4.00902e-05
4.00824e-05
4.00756e-05
4.00686e-05
4.00603e-05
4.00502e-05
4.00391e-05
4.00266e-05
4.0015e-05
4.00098e-05
4.00202e-05
4.00202e-05
4.00909e-05
4.01096e-05
4.0105e-05
4.01061e-05
4.01078e-05
4.01117e-05
4.00952e-05
4.00717e-05
4.00313e-05
4.03438e-05
4.10904e-05
4.2223e-05
3.99375e-05
2.7823e-05
7.19308e-06
9.79228e-08
0
0
0
0
7.02302e-05
0.00225164
0.0083666
0.0319378
0.0754355
0.134923
0.20091
0.262072
0.308842
0.335865
0.340322
0.321268
0.276338
0.208686
0.131453
0.0629723
0.0192329
7.4753e-05
0.000139509
0
0
0
4.392e-07
6.90304e-06
2.69743e-05
4.24531e-05
4.35293e-05
4.08665e-05
3.97085e-05
3.98649e-05
4.01136e-05
4.0148e-05
4.0123e-05
4.01222e-05
4.01298e-05
4.01306e-05
4.01279e-05
4.01262e-05
4.01252e-05
4.01239e-05
4.01219e-05
4.01194e-05
4.01164e-05
4.0113e-05
4.01086e-05
4.01025e-05
4.00945e-05
4.00865e-05
4.00793e-05
4.0072e-05
4.00637e-05
4.00534e-05
4.00419e-05
4.0029e-05
4.00166e-05
4.00099e-05
4.00196e-05
4.00195e-05
4.00914e-05
4.01133e-05
4.01047e-05
4.01052e-05
4.01056e-05
4.01072e-05
4.0109e-05
4.01058e-05
4.00804e-05
4.00338e-05
4.0108e-05
4.05089e-05
4.17791e-05
4.1614e-05
3.6874e-05
1.41202e-05
3.7378e-06
1.2325e-08
0
0
0
0
0.00012621
0.000180897
0.0101795
0.036589
0.0835393
0.145803
0.212638
0.271889
0.314001
0.333311
0.328478
0.297512
0.240559
0.166154
0.0912917
0.0351036
0.00534983
0.00158207
0
0
0
0
4.92655e-06
1.91423e-05
3.9118e-05
4.41769e-05
4.17949e-05
3.99742e-05
3.98896e-05
4.01751e-05
4.02105e-05
4.0138e-05
4.01111e-05
4.01221e-05
4.01319e-05
4.01325e-05
4.01302e-05
4.01282e-05
4.01262e-05
4.01238e-05
4.01208e-05
4.01174e-05
4.0113e-05
4.01071e-05
4.00991e-05
4.00909e-05
4.00834e-05
4.00757e-05
4.00672e-05
4.00568e-05
4.0045e-05
4.00316e-05
4.00185e-05
4.00101e-05
4.0019e-05
4.00187e-05
4.00917e-05
4.01169e-05
4.01053e-05
4.01057e-05
4.01061e-05
4.01064e-05
4.01074e-05
4.01087e-05
4.01107e-05
4.00942e-05
4.00644e-05
4.00081e-05
4.02518e-05
4.08978e-05
4.23392e-05
3.93882e-05
3.10387e-05
1.68092e-06
5.80024e-07
0
0
0
0
1.82031e-06
0.00017227
0.000275915
0.0132307
0.0446129
0.0962989
0.16171
0.228438
0.283582
0.318191
0.327138
0.310069
0.265297
0.197226
0.120735
0.0546915
0.0147068
0.00399894
7.20434e-05
0
0
0
2.5108e-06
8.96559e-06
3.3416e-05
4.36482e-05
4.23217e-05
3.97383e-05
3.94037e-05
3.99786e-05
4.02611e-05
4.0223e-05
4.01467e-05
4.01258e-05
4.01307e-05
4.01342e-05
4.01333e-05
4.0131e-05
4.01283e-05
4.01254e-05
4.01219e-05
4.01176e-05
4.01118e-05
4.01039e-05
4.00956e-05
4.00877e-05
4.00797e-05
4.0071e-05
4.00603e-05
4.00482e-05
4.00344e-05
4.00206e-05
4.00106e-05
4.00184e-05
4.00179e-05
4.00918e-05
4.01204e-05
4.01064e-05
4.01068e-05
4.01071e-05
4.01074e-05
4.01078e-05
4.01082e-05
4.011e-05
4.01113e-05
4.0109e-05
4.00818e-05
4.00367e-05
4.00475e-05
4.0525e-05
4.15364e-05
4.21548e-05
3.67217e-05
2.19556e-05
5.71822e-06
1.27578e-07
0
0
0
0
2.93615e-06
0.000599168
0.00193844
0.0186503
0.0564025
0.114069
0.182192
0.246753
0.294652
0.317835
0.313672
0.280852
0.221268
0.14598
0.0740815
0.0250939
0.00297479
0.000726251
0
0
0
2.80836e-07
6.95677e-06
2.76502e-05
4.49531e-05
4.584e-05
4.16107e-05
3.94468e-05
3.95238e-05
4.00082e-05
4.01861e-05
4.0173e-05
4.01439e-05
4.01367e-05
4.0137e-05
4.01361e-05
4.01337e-05
4.01306e-05
4.0127e-05
4.01228e-05
4.01171e-05
4.01094e-05
4.0101e-05
4.00928e-05
4.00843e-05
4.00754e-05
4.00646e-05
4.00522e-05
4.00378e-05
4.00234e-05
4.00116e-05
4.00176e-05
4.0017e-05
4.00908e-05
4.0124e-05
4.01073e-05
4.01077e-05
4.0108e-05
4.01084e-05
4.01087e-05
4.01091e-05
4.01095e-05
4.01105e-05
4.01123e-05
4.01141e-05
4.01014e-05
4.00644e-05
4.00086e-05
4.02383e-05
4.09293e-05
4.23538e-05
4.0865e-05
3.40934e-05
1.63964e-05
4.33864e-06
1.25005e-07
0
0
0
0
2.18246e-05
0.00152764
0.00563278
0.0284315
0.0742229
0.138968
0.210304
0.272411
0.312461
0.322493
0.301508
0.249413
0.173989
0.0944475
0.0305046
0.00157276
0.00143186
0.000452887
0.000152394
3.03674e-05
0
9.1592e-07
8.01579e-06
3.07221e-05
4.42149e-05
4.38399e-05
4.11211e-05
3.99895e-05
3.99678e-05
4.01095e-05
4.01534e-05
4.01485e-05
4.0142e-05
4.01396e-05
4.01375e-05
4.01346e-05
4.0131e-05
4.01268e-05
4.01213e-05
4.01137e-05
4.01053e-05
4.00968e-05
4.00879e-05
4.00787e-05
4.00678e-05
4.00551e-05
4.00405e-05
4.00252e-05
4.00123e-05
4.00175e-05
4.00164e-05
4.00919e-05
4.01267e-05
4.01083e-05
4.01087e-05
4.01091e-05
4.01096e-05
4.011e-05
4.01105e-05
4.0111e-05
4.01115e-05
4.01121e-05
4.01139e-05
4.01158e-05
4.01171e-05
4.009e-05
4.00521e-05
4.00223e-05
4.04453e-05
4.13918e-05
4.23486e-05
4.0448e-05
3.37269e-05
1.51751e-05
3.76436e-06
0
0
0
0
0
6.71415e-05
0.00172741
0.00592488
0.027598
0.0689277
0.12585
0.188117
0.242752
0.278759
0.28792
0.267591
0.219395
0.153437
0.0896782
0.0436259
0.0175785
0.00562303
0.0010654
0.000241593
0
0
5.3512e-06
2.03816e-05
3.5245e-05
4.0476e-05
4.08064e-05
4.03233e-05
4.0137e-05
4.01342e-05
4.01499e-05
4.01521e-05
4.01496e-05
4.01469e-05
4.01439e-05
4.01403e-05
4.0136e-05
4.01307e-05
4.01234e-05
4.01152e-05
4.01064e-05
4.00968e-05
4.00868e-05
4.00755e-05
4.00625e-05
4.00468e-05
4.00309e-05
4.00148e-05
4.00174e-05
4.0015e-05
4.00869e-05
4.01332e-05
)
;

boundaryField
{
    inlet
    {
        type            freestream;
        freestreamValue uniform 4e-05;
        value           nonuniform List<scalar> 
27
(
4.00638e-05
4.00644e-05
4.00652e-05
4.00662e-05
4.00673e-05
4.00686e-05
4.00701e-05
4.00718e-05
4.00736e-05
4.00757e-05
4.00779e-05
4.00803e-05
4.00829e-05
4.00856e-05
4.00886e-05
4.00916e-05
4.00949e-05
4.00984e-05
4.01021e-05
4.01059e-05
4.01096e-05
4.01133e-05
4.01169e-05
4.01204e-05
4.0124e-05
4.01267e-05
4.01332e-05
)
;
    }
    outlet
    {
        type            freestream;
        freestreamValue uniform 4e-05;
        value           nonuniform List<scalar> 
78
(
4.01083e-05
4.01087e-05
4.01091e-05
4.01096e-05
4.011e-05
4.01105e-05
4.0111e-05
4.01115e-05
4.01121e-05
4.01139e-05
4.01158e-05
4.01171e-05
4.009e-05
4.00521e-05
4.00223e-05
4.04453e-05
4.13918e-05
4.23486e-05
4.0448e-05
3.37269e-05
1.51751e-05
3.76436e-06
0
0
0
0
0
6.71415e-05
0.00172741
0.00592488
0.027598
0.0689277
0.12585
0.188117
0.242752
0.278759
0.28792
0.267591
0.219395
0.153437
0.0896782
0.0436259
0.0175785
0.00562303
0.0010654
0.000241593
0
0
5.3512e-06
2.03816e-05
3.5245e-05
4.0476e-05
4.08064e-05
4.03233e-05
4.0137e-05
4.01342e-05
4.01499e-05
4.01521e-05
4.01496e-05
4.01469e-05
4.01439e-05
4.01403e-05
4.0136e-05
4.01307e-05
4.01234e-05
4.01152e-05
4.01064e-05
4.00968e-05
4.00868e-05
4.00755e-05
4.00625e-05
4.00468e-05
4.00309e-05
4.00148e-05
4.00174e-05
4.0015e-05
4.00869e-05
4.01332e-05
)
;
    }
    walls
    {
        type            fixedValue;
        value           nonuniform List<scalar> 0();
    }
    frontAndBack
    {
        type            empty;
    }
    procBoundary7to3
    {
        type            processor;
        value           nonuniform List<scalar> 
16
(
3.85024e-05
4.34288e-05
4.04626e-05
3.99064e-05
4.01103e-05
4.01433e-05
4.01187e-05
4.01093e-05
4.01062e-05
4.01062e-05
4.01046e-05
4.01043e-05
4.0105e-05
4.01061e-05
4.0107e-05
4.01079e-05
)
;
    }
    procBoundary7to6
    {
        type            processor;
        value           nonuniform List<scalar> 
91
(
4.00634e-05
4.00641e-05
4.00641e-05
4.00293e-05
4.00293e-05
4.00257e-05
4.00257e-05
4.00088e-05
4.0013e-05
4.0013e-05
4.00175e-05
4.00097e-05
4.00097e-05
4.00409e-05
4.00339e-05
4.00262e-05
4.00262e-05
4.00581e-05
4.00528e-05
4.0048e-05
4.0048e-05
4.0081e-05
4.00771e-05
4.0072e-05
4.00658e-05
4.00658e-05
4.00929e-05
4.00915e-05
4.00898e-05
4.00878e-05
4.00855e-05
4.00855e-05
4.00977e-05
4.00976e-05
4.00976e-05
4.00974e-05
4.00971e-05
4.00965e-05
4.00957e-05
4.00957e-05
4.01041e-05
4.01029e-05
4.01018e-05
4.0101e-05
4.01004e-05
4.01e-05
4.00998e-05
4.00996e-05
4.00995e-05
4.00994e-05
4.00994e-05
4.00994e-05
4.00994e-05
3.30353e-08
0
1.82662e-06
0.00122169
0.00477094
0.0288401
0.0763617
0.137263
0.199219
0.254655
0.300004
0.333824
0.356246
0.369058
0.374831
0.374636
0.360954
0.325343
0.262661
0.176807
0.0879441
0.0264728
0.0001501
7.79656e-05
0
0
0
6.30308e-06
2.51218e-05
4.14861e-05
4.27207e-05
4.04231e-05
3.98068e-05
4.00386e-05
4.015e-05
4.01244e-05
4.0103e-05
4.0103e-05
)
;
    }
}


// ************************************************************************* //
