/*--------------------------------*- C++ -*----------------------------------*\
| =========                 |                                                 |
| \\      /  F ield         | OpenFOAM: The Open Source CFD Toolbox           |
|  \\    /   O peration     | Version:  2506                                  |
|   \\  /    A nd           | Website:  www.openfoam.com                      |
|    \\/     M anipulation  |                                                 |
\*---------------------------------------------------------------------------*/
FoamFile
{
    version     2.0;
    format      ascii;
    arch        "LSB;label=32;scalar=64";
    class       volSymmTensorField;
    location    "350";
    object      turbulenceProperties:R;
}
// * * * * * * * * * * * * * * * * * * * * * * * * * * * * * * * * * * * * * //

dimensions      [0 2 -2 0 0 0 0];

internalField   nonuniform List<symmTensor> 
1340
(
(6.83735e-07 1.49448e-08 -2.47282e-20 5.44188e-07 -2.53604e-21 6.50961e-07)
(4.35358e-07 -1.18643e-08 -2.43796e-20 5.37419e-07 -3.07045e-21 4.54984e-07)
(6.94378e-07 1.64901e-08 1.2861e-20 5.52208e-07 1.27849e-21 6.59706e-07)
(5.00189e-07 2.45832e-08 1.30636e-19 4.0571e-07 1.44905e-20 4.78684e-07)
(4.26014e-07 -1.2799e-08 3.23603e-23 5.19043e-07 -1.13344e-22 4.38246e-07)
(6.8948e-07 1.96006e-08 -2.87864e-22 5.5381e-07 6.7999e-23 6.62405e-07)
(1.86443e-07 1.0775e-08 -6.64112e-20 2.11045e-07 -7.87129e-21 1.80264e-07)
(4.9328e-07 2.29815e-08 2.13389e-21 4.00138e-07 4.45279e-22 4.7339e-07)
(4.19459e-07 -1.32494e-08 2.91335e-20 5.06871e-07 3.60212e-21 4.27531e-07)
(6.90088e-07 2.114e-08 -5.84344e-20 5.57064e-07 -6.00736e-21 6.66374e-07)
(1.83367e-07 1.85362e-08 -1.58399e-19 1.66338e-07 -1.83417e-20 1.66525e-07)
(3.42883e-07 2.24411e-08 -8.67215e-20 2.80508e-07 -9.60699e-21 3.24366e-07)
(1.85375e-07 1.06537e-08 2.93123e-20 2.0864e-07 3.45215e-21 1.78333e-07)
(4.88543e-07 2.10806e-08 -4.32631e-20 3.95299e-07 -4.80913e-21 4.6876e-07)
(4.1282e-07 -1.31941e-08 -1.22762e-19 4.96962e-07 -1.51871e-20 4.18993e-07)
(6.94425e-07 2.18097e-08 5.60999e-20 5.61039e-07 5.63879e-21 6.70978e-07)
(2.6738e-07 2.27539e-08 2.34249e-20 2.24732e-07 2.69575e-21 2.42631e-07)
(3.1385e-07 2.33912e-08 -6.26088e-21 2.57965e-07 -7.43509e-22 2.9132e-07)
(1.78415e-07 1.75958e-08 6.09354e-22 1.61027e-07 -1.11694e-22 1.61266e-07)
(3.37329e-07 2.05751e-08 2.9035e-22 2.74369e-07 -4.37878e-23 3.18605e-07)
(1.84163e-07 1.05172e-08 2.06225e-20 2.06213e-07 2.47982e-21 1.76379e-07)
(4.84229e-07 1.92307e-08 -2.18575e-21 3.90941e-07 -3.39701e-22 4.64598e-07)
(4.07658e-07 -1.31353e-08 7.39966e-23 4.88836e-07 -6.37472e-24 4.11983e-07)
(6.98725e-07 2.24113e-08 -2.1305e-22 5.65093e-07 5.06392e-23 6.75736e-07)
(3.81437e-07 2.5465e-08 -5.27832e-20 3.08968e-07 -6.13091e-21 3.45955e-07)
(3.34197e-07 2.40204e-08 -6.72799e-20 2.73133e-07 -7.64979e-21 3.02377e-07)
(3.332e-07 2.37505e-08 -8.42347e-20 2.71843e-07 -9.39489e-21 3.04642e-07)
(2.57455e-07 2.11095e-08 -3.42237e-20 2.15067e-07 -3.71747e-21 2.32777e-07)
(3.05921e-07 2.15471e-08 3.80158e-21 2.4978e-07 5.58727e-22 2.83366e-07)
(1.73147e-07 1.66284e-08 6.44246e-20 1.55498e-07 7.41712e-21 1.55774e-07)
(3.31765e-07 1.87695e-08 1.33632e-20 2.68479e-07 1.40432e-21 3.13014e-07)
(1.83036e-07 1.02872e-08 -4.62347e-20 2.03839e-07 -5.40718e-21 1.74445e-07)
(4.80323e-07 1.7556e-08 4.1502e-20 3.87269e-07 4.57152e-21 4.61154e-07)
(4.04467e-07 -1.32082e-08 6.88015e-23 4.82718e-07 -4.28736e-23 4.06705e-07)
(7.0232e-07 2.29686e-08 1.05404e-22 5.69034e-07 -2.34592e-23 6.80475e-07)
(4.4496e-07 2.2895e-08 -1.24854e-20 3.53339e-07 -1.19501e-21 3.99062e-07)
(4.164e-07 2.33508e-08 6.20197e-20 3.32425e-07 6.83185e-21 3.74709e-07)
(3.82607e-07 2.31365e-08 7.20819e-21 3.07247e-07 7.15068e-22 3.44432e-07)
(3.65718e-07 2.29558e-08 4.15256e-20 2.94524e-07 4.57343e-21 3.30922e-07)
(3.20093e-07 2.1822e-08 1.68494e-22 2.60072e-07 -1.27398e-22 2.88772e-07)
(3.21653e-07 2.16459e-08 3.64698e-22 2.60783e-07 -2.38668e-23 2.93405e-07)
(2.47299e-07 1.94649e-08 2.868e-20 2.05329e-07 3.21867e-21 2.22778e-07)
(2.97809e-07 1.97194e-08 -3.62168e-21 2.41624e-07 -4.47465e-22 2.75319e-07)
(1.67668e-07 1.56238e-08 -2.99411e-22 1.49824e-07 7.70656e-23 1.5011e-07)
(3.26388e-07 1.70193e-08 -6.12141e-23 2.62929e-07 2.05809e-23 3.07686e-07)
(1.81927e-07 9.97112e-09 1.32731e-22 2.01541e-07 -2.59202e-23 1.72543e-07)
(4.77079e-07 1.6001e-08 -2.25659e-22 3.84288e-07 5.97573e-23 4.58424e-07)
(4.02879e-07 -1.33513e-08 1.06022e-19 4.78614e-07 1.3234e-20 4.03188e-07)
(7.05526e-07 2.3307e-08 2.84669e-20 5.72625e-07 2.89386e-21 6.84882e-07)
(5.70334e-07 1.26779e-08 -3.43817e-20 4.42712e-07 -3.54686e-21 5.06519e-07)
(5.30645e-07 1.53909e-08 2.54411e-20 4.13386e-07 2.82975e-21 4.72017e-07)
(4.92549e-07 1.7395e-08 1.28415e-20 3.8534e-07 1.27607e-21 4.38931e-07)
(4.5637e-07 1.87486e-08 -4.76743e-21 3.58698e-07 -5.64709e-22 4.07561e-07)
(4.2104e-07 1.97573e-08 6.89764e-23 3.32759e-07 -8.17498e-24 3.76801e-07)
(3.95505e-07 2.04508e-08 -2.3438e-22 3.1414e-07 4.40177e-23 3.55127e-07)
(3.63856e-07 2.04955e-08 -2.64016e-23 2.9065e-07 -1.0719e-22 3.26737e-07)
(3.49644e-07 2.05126e-08 -4.52598e-20 2.80035e-07 -5.00866e-21 3.15663e-07)
(3.05748e-07 1.96691e-08 -2.16133e-20 2.4701e-07 -2.25845e-21 2.75031e-07)
(3.09818e-07 1.95719e-08 2.70612e-20 2.49684e-07 3.04675e-21 2.8198e-07)
(2.36983e-07 1.78266e-08 -2.73009e-20 1.95582e-07 -3.12603e-21 2.12691e-07)
(2.89565e-07 1.79129e-08 1.09548e-23 2.33528e-07 -2.8016e-23 2.67213e-07)
(1.62011e-07 1.4591e-08 -5.82643e-20 1.44053e-07 -6.72105e-21 1.44316e-07)
(3.21176e-07 1.53152e-08 -1.20738e-20 2.57664e-07 -1.27563e-21 3.02556e-07)
(1.80799e-07 9.59251e-09 2.39232e-20 1.99358e-07 2.80189e-21 1.70704e-07)
(4.744e-07 1.45129e-08 -3.76318e-20 3.81818e-07 -4.15484e-21 4.562e-07)
(4.02407e-07 -1.35157e-08 -8.9491e-20 4.7612e-07 -1.11243e-20 4.01076e-07)
(7.09104e-07 2.33937e-08 -3.63855e-20 5.76279e-07 -3.61643e-21 6.89439e-07)
(7.21887e-07 -1.47128e-08 -3.20647e-20 5.5983e-07 -3.24941e-21 6.40845e-07)
(6.81011e-07 -8.79734e-09 -4.83509e-21 5.2681e-07 -3.67595e-22 6.03897e-07)
(6.4112e-07 -3.46879e-09 -5.01442e-21 4.95272e-07 -5.06569e-22 5.68181e-07)
(6.02376e-07 1.27271e-09 -7.78358e-21 4.65236e-07 -7.54144e-22 5.33792e-07)
(5.64893e-07 5.42236e-09 -1.52617e-21 4.36684e-07 -5.55563e-23 5.00776e-07)
(5.2876e-07 8.9486e-09 2.17507e-20 4.09569e-07 2.32939e-21 4.6915e-07)
(4.94101e-07 1.1823e-08 2.50301e-20 3.83854e-07 2.61483e-21 4.38972e-07)
(4.60547e-07 1.40277e-08 -5.18524e-23 3.59112e-07 -3.39483e-23 4.09805e-07)
(4.28623e-07 1.56041e-08 1.08114e-20 3.35614e-07 1.19015e-21 3.82142e-07)
(3.96831e-07 1.68275e-08 6.95791e-21 3.12291e-07 7.25131e-22 3.54448e-07)
(3.74279e-07 1.77108e-08 -1.61043e-23 2.95903e-07 -2.47864e-23 3.35398e-07)
(3.44794e-07 1.79814e-08 -1.73516e-24 2.74081e-07 8.52535e-24 3.08901e-07)
(3.33201e-07 1.81669e-08 2.66575e-22 2.65503e-07 -2.15732e-24 3.00191e-07)
(2.91143e-07 1.7588e-08 2.07536e-20 2.33952e-07 2.22831e-21 2.61167e-07)
(2.97679e-07 1.75526e-08 -2.57837e-20 2.38549e-07 -2.88359e-21 2.70373e-07)
(2.26487e-07 1.62139e-08 2.59883e-20 1.8583e-07 2.96404e-21 2.02521e-07)
(2.81149e-07 1.61429e-08 8.65246e-25 2.25473e-07 3.07785e-23 2.59023e-07)
(1.56174e-07 1.35446e-08 5.56677e-20 1.3821e-07 6.36508e-21 1.38413e-07)
(3.1601e-07 1.36607e-08 1.16384e-20 2.52591e-07 1.1901e-21 2.97521e-07)
(1.79669e-07 9.16466e-09 -2.27617e-20 1.9733e-07 -2.69951e-21 1.68962e-07)
(4.72079e-07 1.30821e-08 9.33528e-23 3.797e-07 2.51722e-23 4.54308e-07)
(4.02808e-07 -1.37027e-08 1.52247e-19 4.74902e-07 1.88682e-20 4.00072e-07)
(7.12329e-07 2.32436e-08 1.56669e-22 5.79453e-07 -6.49883e-23 6.93493e-07)
(8.93249e-07 -6.56023e-08 -7.05032e-21 7.3088e-07 -6.92594e-22 8.12085e-07)
(8.59735e-07 -5.8024e-08 -1.60974e-20 6.9677e-07 -1.48233e-21 7.78266e-07)
(8.25544e-07 -5.05495e-08 7.45341e-21 6.63096e-07 7.22976e-22 7.44328e-07)
(7.90847e-07 -4.3246e-08 -1.40472e-20 6.30004e-07 -1.41782e-21 7.10428e-07)
(7.55874e-07 -3.61832e-08 -4.69521e-21 5.9767e-07 -3.41091e-22 6.76771e-07)
(7.2082e-07 -2.94241e-08 1.72354e-20 5.66224e-07 1.73348e-21 6.43517e-07)
(6.85886e-07 -2.30258e-08 1.79537e-21 5.35782e-07 1.22956e-22 6.10827e-07)
(6.51255e-07 -1.70377e-08 1.72355e-22 5.0643e-07 -6.87263e-23 5.78833e-07)
(6.17095e-07 -1.14978e-08 -5.3112e-21 4.78229e-07 -5.65439e-22 5.47651e-07)
(5.83537e-07 -6.43149e-09 -3.90035e-21 4.512e-07 -3.84467e-22 5.17357e-07)
(5.5071e-07 -1.85375e-09 4.45916e-23 4.25354e-07 4.35558e-24 4.8802e-07)
(5.18741e-07 2.22345e-09 5.4545e-24 4.007e-07 -6.03889e-24 4.5971e-07)
(4.877e-07 5.75573e-09 -1.26672e-22 3.77196e-07 1.1246e-23 4.32434e-07)
(4.57793e-07 8.70338e-09 -4.02174e-21 3.54877e-07 -3.81967e-22 4.06331e-07)
(4.28574e-07 1.10299e-08 3.46714e-23 3.33267e-07 -2.03337e-23 3.80893e-07)
(4.00755e-07 1.2759e-08 -1.03683e-20 3.12778e-07 -1.11188e-21 3.56795e-07)
(3.72435e-07 1.41367e-08 -6.65146e-21 2.91997e-07 -6.96381e-22 3.32097e-07)
(3.52811e-07 1.51617e-08 -1.53452e-23 2.77772e-07 1.51022e-23 3.15606e-07)
(3.25498e-07 1.56225e-08 -1.66095e-24 2.57597e-07 1.0967e-22 2.90999e-07)
(3.1645e-07 1.5946e-08 4.08627e-20 2.5098e-07 4.55161e-21 2.8457e-07)
(2.76328e-07 1.5603e-08 1.06965e-20 2.20942e-07 1.22533e-21 2.47233e-07)
(2.85267e-07 1.56106e-08 4.2078e-20 2.27411e-07 4.63048e-21 2.58623e-07)
(2.1585e-07 1.46452e-08 -2.47789e-20 1.76118e-07 -2.84877e-21 1.92317e-07)
(2.72559e-07 1.44251e-08 1.4476e-23 2.17464e-07 -8.70433e-24 2.50756e-07)
(1.50186e-07 1.2497e-08 -3.79463e-20 1.32337e-07 -4.26691e-21 1.32439e-07)
(3.1084e-07 1.20626e-08 3.20026e-20 2.47669e-07 3.65176e-21 2.92541e-07)
(1.78534e-07 8.69512e-09 5.5345e-20 1.95447e-07 6.4408e-21 1.67311e-07)
(4.7002e-07 1.1707e-08 -3.31461e-24 3.77868e-07 -4.1581e-23 4.5268e-07)
(4.04401e-07 -1.39247e-08 -9.89691e-23 4.75308e-07 2.24537e-23 4.0046e-07)
(7.1558e-07 2.28975e-08 8.18567e-21 5.82525e-07 8.32784e-22 6.97495e-07)
(1.0056e-06 -1.21572e-07 5.97552e-21 9.44549e-07 5.40585e-22 9.75108e-07)
(9.94197e-07 -1.18282e-07 2.26035e-22 9.24387e-07 2.28013e-23 9.59332e-07)
(9.81583e-07 -1.14639e-07 3.7096e-22 9.03212e-07 4.52014e-23 9.42444e-07)
(9.67666e-07 -1.10643e-07 1.77576e-20 8.80999e-07 1.63757e-21 9.24382e-07)
(9.52349e-07 -1.0629e-07 7.98347e-21 8.57727e-07 7.45296e-22 9.0509e-07)
(9.35575e-07 -1.01586e-07 1.25725e-20 8.33429e-07 1.15632e-21 8.84554e-07)
(9.17336e-07 -9.65439e-08 3.93101e-21 8.08175e-07 3.60957e-22 8.62804e-07)
(8.97653e-07 -9.11848e-08 7.16499e-21 7.82058e-07 6.489e-22 8.39904e-07)
(8.76564e-07 -8.55429e-08 -4.13104e-21 7.5521e-07 -4.77828e-22 8.15929e-07)
(8.54166e-07 -7.96511e-08 -2.47836e-20 7.27778e-07 -2.30458e-21 7.91011e-07)
(8.30526e-07 -7.35534e-08 4.75546e-21 6.99908e-07 4.78547e-22 7.65251e-07)
(8.05753e-07 -6.72981e-08 -6.52954e-21 6.71757e-07 -6.4613e-22 7.38784e-07)
(7.7999e-07 -6.09395e-08 3.1522e-23 6.43508e-07 1.14696e-23 7.11773e-07)
(7.53365e-07 -5.45345e-08 4.41216e-23 6.1532e-07 -2.36249e-23 6.84361e-07)
(7.26049e-07 -4.81436e-08 -9.12355e-24 5.8737e-07 3.70667e-24 6.56724e-07)
(6.98167e-07 -4.1826e-08 4.43176e-23 5.59788e-07 -1.0352e-23 6.28987e-07)
(6.69903e-07 -3.56417e-08 1.55322e-23 5.32734e-07 -1.2557e-23 6.01324e-07)
(6.41414e-07 -2.96498e-08 -5.83933e-23 5.06331e-07 -1.84999e-23 5.73875e-07)
(6.12862e-07 -2.39071e-08 -8.99632e-21 4.80689e-07 -8.3528e-22 5.46775e-07)
(5.84399e-07 -1.84612e-08 1.81933e-20 4.55895e-07 1.88455e-21 5.20144e-07)
(5.56159e-07 -1.3358e-08 -1.51028e-21 4.32005e-07 -2.18628e-22 4.94077e-07)
(5.28252e-07 -8.62574e-09 3.7583e-21 4.09044e-07 3.91726e-22 4.68642e-07)
(5.00774e-07 -4.28897e-09 1.565e-23 3.87018e-07 -1.81295e-23 4.43889e-07)
(4.73843e-07 -3.65556e-10 -2.40349e-22 3.65946e-07 -8.08316e-23 4.19889e-07)
(4.47508e-07 3.09238e-09 -1.95573e-20 3.45783e-07 -2.12516e-21 3.96635e-07)
(4.22036e-07 6.03595e-09 -1.90883e-20 3.26632e-07 -1.94289e-21 3.74335e-07)
(3.96906e-07 8.41339e-09 1.38286e-20 3.07966e-07 1.51133e-21 3.5241e-07)
(3.73006e-07 1.02299e-08 -1.09617e-20 2.90333e-07 -1.21182e-21 3.31704e-07)
(3.4806e-07 1.17048e-08 6.32784e-21 2.72007e-07 7.03484e-22 3.09911e-07)
(3.31276e-07 1.28243e-08 -4.81835e-23 2.59864e-07 -1.21589e-23 2.95892e-07)
(3.06126e-07 1.34389e-08 -2.33695e-23 2.41304e-07 -2.81469e-23 2.7316e-07)
(2.99519e-07 1.38696e-08 -1.47376e-20 2.36552e-07 -1.65173e-21 2.68903e-07)
(2.61414e-07 1.37323e-08 -2.89867e-20 2.08062e-07 -3.26348e-21 2.33323e-07)
(2.7266e-07 1.37637e-08 -4.0143e-20 2.16326e-07 -4.36615e-21 2.46795e-07)
(2.0514e-07 1.31351e-08 1.07687e-20 1.66501e-07 1.26671e-21 1.82137e-07)
(2.63831e-07 1.27722e-08 5.87904e-21 2.09522e-07 6.97108e-22 2.42439e-07)
(1.4411e-07 1.14599e-08 2.89954e-20 1.26488e-07 3.29608e-21 1.26455e-07)
(3.05686e-07 1.0524e-08 1.99537e-20 2.42901e-07 2.22538e-21 2.87628e-07)
(1.77358e-07 8.1913e-09 -7.20761e-23 1.93664e-07 -9.1767e-24 1.65715e-07)
(4.68194e-07 1.03753e-08 -3.23469e-24 3.76278e-07 -2.06975e-24 4.51272e-07)
(4.06562e-07 -1.4166e-08 -3.91723e-23 4.76612e-07 -1.04986e-23 4.01618e-07)
(7.18871e-07 2.23604e-08 -7.81882e-21 5.85486e-07 -7.81209e-22 7.01424e-07)
(5.28096e-09 -3.8815e-12 -7.50356e-26 5.29287e-09 -3.12271e-27 5.28771e-09)
(3.22859e-10 -7.29612e-15 5.33627e-29 3.22917e-10 -1.10512e-29 3.22891e-10)
(0 -0 0 0 0 0)
(0 -0 -0 0 -0 0)
(2.63243e-05 -1.1447e-05 -1.16907e-20 2.74925e-05 -2.04606e-21 2.69033e-05)
(5.13524e-05 -2.46399e-05 9.3857e-20 6.00722e-05 6.402e-21 5.57613e-05)
(0.00408882 0.00201317 1.9091e-18 0.00518091 2.87209e-19 0.00463637)
(0.0540768 0.025977 -6.69454e-18 0.0631135 -5.08326e-19 0.05859)
(0.210122 0.100583 3.85094e-18 0.242775 -2.53403e-19 0.226433)
(0.464294 0.222425 3.1002e-17 0.537587 2.82765e-18 0.500942)
(0.733201 0.352064 7.15886e-18 0.854603 1.06141e-18 0.793918)
(0.917959 0.442194 2.49876e-17 1.08009 2.91947e-18 0.999037)
(0.943657 0.456492 -3.96195e-17 1.12469 -1.59529e-18 1.03419)
(0.77678 0.378143 -1.26509e-16 0.944846 -1.28602e-17 0.860828)
(0.436368 0.215253 4.05509e-17 0.557394 -1.88838e-18 0.496884)
(0.0290574 0.00112162 2.60753e-16 0.0765083 2.40411e-17 0.0527806)
(0.496894 -0.214566 3.57612e-17 0.460202 7.50499e-18 0.47856)
(0.89359 -0.373529 -5.22545e-17 0.784229 -4.66643e-18 0.838915)
(1.02382 -0.421861 7.84334e-18 0.878674 -1.05475e-18 0.951224)
(0.843205 -0.344171 7.55025e-17 0.713418 7.49433e-18 0.778279)
(0.473463 -0.191907 -2.87792e-17 0.396461 -3.16361e-18 0.434949)
(0.154645 -0.0624011 5.34005e-17 0.128647 5.61167e-18 0.141646)
(0.0209463 -0.00847797 -2.63714e-17 0.0175029 -2.51048e-18 0.0192243)
(0.000168138 -7.33499e-05 1.41688e-18 0.000158552 1.05199e-19 0.000163379)
(1.36167e-05 6.51661e-06 2.55807e-19 2.52067e-05 2.70758e-20 1.94457e-05)
(0 -0 0 0 0 0)
(0 -0 0 0 0 0)
(0 -0 0 0 0 0)
(1.78938e-08 -3.9207e-11 -1.32655e-25 1.78946e-08 -8.43123e-29 1.78942e-08)
(2.41959e-07 -8.04839e-09 1.47411e-22 2.42287e-07 1.51078e-23 2.42124e-07)
(9.30282e-07 -1.20026e-07 -5.17755e-21 9.32433e-07 -4.24565e-22 9.31369e-07)
(1.04802e-06 -1.52633e-07 -9.71874e-21 1.04281e-06 -9.32878e-22 1.04542e-06)
(9.22771e-07 -1.20747e-07 7.343e-22 9.11576e-07 4.26853e-23 9.17179e-07)
(8.68648e-07 -1.08364e-07 -3.11652e-21 8.51969e-07 -3.02378e-22 8.60314e-07)
(8.68205e-07 -1.08638e-07 6.72296e-21 8.44362e-07 6.14741e-22 8.56291e-07)
(8.68029e-07 -1.08589e-07 -2.12321e-21 8.36583e-07 -1.65841e-22 8.52316e-07)
(8.60272e-07 -1.0651e-07 -5.93368e-21 8.21526e-07 -5.48893e-22 8.40912e-07)
(8.51337e-07 -1.04019e-07 -5.30472e-21 8.05361e-07 -5.07557e-22 8.28364e-07)
(8.4276e-07 -1.01504e-07 4.89663e-21 7.89495e-07 4.52605e-22 8.16147e-07)
(8.33526e-07 -9.8757e-08 6.26508e-26 7.73035e-07 -1.74711e-24 8.03303e-07)
(8.23209e-07 -9.57044e-08 -9.42872e-24 7.55642e-07 1.29413e-23 7.89451e-07)
(8.11792e-07 -9.23593e-08 -5.89599e-24 7.37353e-07 9.16667e-24 7.74601e-07)
(7.99221e-07 -8.87184e-08 -8.37882e-24 7.18172e-07 6.33167e-24 7.58728e-07)
(7.85419e-07 -8.47779e-08 -4.44952e-24 6.98105e-07 2.56448e-24 7.41793e-07)
(7.70382e-07 -8.05447e-08 -2.43386e-22 6.77207e-07 -2.76713e-23 7.23828e-07)
(7.54137e-07 -7.60409e-08 -6.68553e-21 6.5558e-07 -6.38388e-22 7.04891e-07)
(7.36762e-07 -7.12926e-08 4.26249e-23 6.33358e-07 4.099e-23 6.85091e-07)
(7.18327e-07 -6.63305e-08 1.88536e-20 6.10672e-07 1.81792e-21 6.64528e-07)
(6.98899e-07 -6.11888e-08 2.34627e-23 5.87646e-07 -3.83443e-23 6.43298e-07)
(6.7858e-07 -5.59076e-08 4.7788e-21 5.64428e-07 4.58302e-22 6.21528e-07)
(6.5749e-07 -5.05338e-08 -1.21848e-21 5.41175e-07 -1.21882e-22 5.99352e-07)
(6.35755e-07 -4.51154e-08 8.15673e-21 5.18037e-07 8.18011e-22 5.76913e-07)
(6.13471e-07 -3.97002e-08 5.93665e-24 4.95129e-07 -2.67671e-23 5.54313e-07)
(5.90785e-07 -3.4341e-08 2.00639e-24 4.72596e-07 -8.68497e-24 5.317e-07)
(5.67821e-07 -2.90894e-08 6.55788e-24 4.50552e-07 3.29749e-23 5.09194e-07)
(5.44704e-07 -2.39975e-08 8.60526e-21 4.29097e-07 7.99204e-22 4.86904e-07)
(5.21557e-07 -1.91118e-08 -1.90832e-20 4.08313e-07 -1.94595e-21 4.64936e-07)
(4.98489e-07 -1.4477e-08 4.82271e-21 3.88257e-07 5.57277e-22 4.43373e-07)
(4.75574e-07 -1.01261e-08 -2.70417e-23 3.68944e-07 -5.06687e-24 4.22257e-07)
(4.52877e-07 -6.08552e-09 7.00137e-23 3.50374e-07 -4.94572e-23 4.01622e-07)
(4.30509e-07 -2.37849e-09 -1.07765e-20 3.32573e-07 -1.13873e-21 3.81538e-07)
(4.08477e-07 9.40003e-10 1.15792e-22 3.15483e-07 1.59252e-23 3.6197e-07)
(3.87104e-07 3.81478e-09 3.60279e-21 2.99264e-07 3.37797e-22 3.43189e-07)
(3.65795e-07 6.18048e-09 -8.99236e-23 2.83348e-07 1.19853e-23 3.24544e-07)
(3.45593e-07 8.02638e-09 9.38231e-23 2.68406e-07 -2.88893e-23 3.0704e-07)
(3.23892e-07 9.5453e-09 -6.05353e-21 2.52433e-07 -6.86704e-22 2.88037e-07)
(3.09839e-07 1.0715e-08 -1.38883e-20 2.4228e-07 -1.51872e-21 2.76385e-07)
(2.86824e-07 1.14462e-08 -9.06066e-21 2.25298e-07 -9.4589e-22 2.55502e-07)
(2.82531e-07 1.19547e-08 4.52261e-21 2.223e-07 5.5998e-22 2.5329e-07)
(2.46498e-07 1.19912e-08 2.15412e-20 1.95379e-07 2.3832e-21 2.19516e-07)
(2.59931e-07 1.20276e-08 1.9333e-20 2.05341e-07 2.06113e-21 2.34944e-07)
(1.94441e-07 1.16982e-08 -2.72689e-23 1.57049e-07 -6.91903e-23 1.72059e-07)
(2.54972e-07 1.11951e-08 -2.56468e-20 2.01647e-07 -2.86823e-21 2.34072e-07)
(1.37986e-07 1.04462e-08 -5.52259e-23 1.20714e-07 2.60326e-23 1.20505e-07)
(3.0045e-07 9.04495e-09 -1.92735e-20 2.38194e-07 -2.08785e-21 2.82674e-07)
(1.76182e-07 7.66699e-09 1.47147e-20 1.92045e-07 1.74498e-21 1.64229e-07)
(4.66508e-07 9.06652e-09 -7.88473e-23 3.74834e-07 -8.01594e-24 4.49972e-07)
(4.09388e-07 -1.44104e-08 -6.0779e-20 4.78952e-07 -7.52489e-21 4.0365e-07)
(7.2225e-07 2.16368e-08 7.44911e-21 5.88337e-07 7.59406e-22 7.0527e-07)
(4.86043e-07 -5.11215e-08 -9.64642e-25 5.76311e-07 -3.08841e-23 5.37327e-07)
(1.03158e-08 -1.88272e-11 5.94917e-25 1.0366e-08 5.03004e-26 1.03438e-08)
(6.91404e-10 -3.14611e-14 1.10502e-27 6.91694e-10 1.85374e-28 6.91547e-10)
(0 -0 -0 0 -0 0)
(0 -0 -0 0 -0 0)
(5.0091e-08 -1.11645e-10 4.91623e-28 5.00999e-08 -1.54573e-27 5.00955e-08)
(0.000329453 -0.000151355 2.20955e-22 0.000344022 -5.66046e-21 0.000336752)
(0.000446715 0.00022246 1.04119e-18 0.00075212 1.1028e-19 0.000600017)
(0.0214899 0.0103842 -3.32827e-18 0.025525 -3.49019e-19 0.0235076)
(0.118865 0.0570056 1.91662e-17 0.138069 1.75651e-18 0.128457)
(0.319613 0.153219 -1.00635e-17 0.3708 -4.40364e-19 0.345198)
(0.570829 0.274136 2.31378e-19 0.665625 -7.99616e-19 0.618237)
(0.778135 0.374741 5.58567e-17 0.914858 5.18568e-18 0.846512)
(0.857673 0.414572 -1.98536e-18 1.01972 1.34977e-18 0.938711)
(0.761981 0.370252 -6.30332e-17 0.921171 -5.71223e-18 0.841589)
(0.492985 0.241886 -1.13323e-18 0.616606 1.59137e-19 0.5548)
(0.10951 0.0551415 -7.2098e-17 0.16987 -8.1211e-18 0.139688)
(0.333443 -0.145984 8.04134e-17 0.316466 5.90083e-18 0.324963)
(0.735154 -0.30776 5.32883e-17 0.64671 5.59094e-18 0.690939)
(0.913242 -0.376208 3.58243e-17 0.783483 2.67454e-18 0.848348)
(0.80109 -0.326719 1.00382e-16 0.676974 1.18084e-17 0.739006)
(0.483329 -0.195661 -1.40014e-16 0.403981 -1.37929e-17 0.443639)
(0.175623 -0.0707157 7.5827e-17 0.14565 7.18129e-18 0.160635)
(0.0280278 -0.0112826 -3.09225e-17 0.0232355 -2.63392e-18 0.0256315)
(0.000525476 -0.000220507 2.56902e-21 0.000463997 -2.71523e-20 0.000494797)
(3.00076e-05 1.48261e-05 2.1327e-22 5.19757e-05 2.55918e-21 4.10546e-05)
(0 0 -0 0 -0 0)
(0 -0 -0 0 -0 0)
(0 -0 0 0 0 0)
(6.39092e-09 -5.77143e-12 -3.49613e-26 6.39085e-09 -3.30077e-27 6.39089e-09)
(7.79708e-08 -9.88005e-10 2.90768e-24 7.79868e-08 2.03489e-26 7.79791e-08)
(7.05988e-07 -8.30925e-08 3.30612e-21 7.05897e-07 3.12456e-22 7.05965e-07)
(9.16019e-07 -1.38653e-07 1.54134e-24 9.08387e-07 -8.84695e-25 9.12232e-07)
(8.03539e-07 -1.08851e-07 6.15811e-21 7.9097e-07 6.00408e-22 7.97279e-07)
(7.31504e-07 -9.16164e-08 -4.8932e-21 7.15349e-07 -4.46042e-22 7.23448e-07)
(7.24024e-07 -9.00828e-08 1.28854e-21 7.023e-07 1.07286e-22 7.13186e-07)
(7.25825e-07 -9.03937e-08 -1.53031e-24 6.97701e-07 -1.10024e-23 7.11788e-07)
(7.20645e-07 -8.88699e-08 6.53914e-21 6.86384e-07 6.21892e-22 7.03538e-07)
(7.13512e-07 -8.67985e-08 -1.78898e-21 6.7323e-07 -1.58349e-22 6.93396e-07)
(7.06867e-07 -8.47655e-08 2.31409e-21 6.60499e-07 2.16961e-22 6.83706e-07)
(6.99669e-07 -8.25384e-08 1.21482e-21 6.47244e-07 1.29179e-22 6.73481e-07)
(6.91241e-07 -7.99859e-08 -1.78436e-24 6.32914e-07 1.13545e-23 6.62101e-07)
(6.81714e-07 -7.71494e-08 6.59721e-21 6.17666e-07 6.42866e-22 6.49714e-07)
(6.71213e-07 -7.40633e-08 -1.23952e-24 6.01657e-07 -1.33703e-24 6.36458e-07)
(6.5972e-07 -7.0728e-08 2.21052e-22 5.8492e-07 3.7921e-23 6.22343e-07)
(6.472e-07 -6.7144e-08 4.79809e-21 5.67487e-07 4.62835e-22 6.07366e-07)
(6.3371e-07 -6.33282e-08 7.68699e-24 5.49468e-07 -3.06315e-23 5.9161e-07)
(6.19314e-07 -5.93033e-08 -3.11767e-23 5.30982e-07 3.80391e-23 5.75168e-07)
(6.04071e-07 -5.50931e-08 1.00584e-20 5.12137e-07 9.88001e-22 5.58122e-07)
(5.88064e-07 -5.07287e-08 -4.539e-21 4.93063e-07 -4.74983e-22 5.4058e-07)
(5.71396e-07 -4.62455e-08 9.6828e-24 4.73903e-07 -2.70363e-23 5.22663e-07)
(5.54163e-07 -4.16815e-08 -7.79989e-21 4.54786e-07 -7.66085e-22 5.04486e-07)
(5.36446e-07 -3.70756e-08 5.03604e-24 4.35821e-07 2.22267e-23 4.86142e-07)
(5.18363e-07 -3.24712e-08 1.71389e-24 4.17137e-07 1.63172e-23 4.67756e-07)
(5.00008e-07 -2.79127e-08 7.97142e-21 3.98836e-07 8.21138e-22 4.49426e-07)
(4.81484e-07 -2.34452e-08 1.04322e-21 3.81012e-07 1.05459e-22 4.3125e-07)
(4.62881e-07 -1.91134e-08 1.66827e-21 3.63737e-07 1.36225e-22 4.13309e-07)
(4.44283e-07 -1.49569e-08 -3.18723e-21 3.47063e-07 -3.66094e-22 3.95671e-07)
(4.25741e-07 -1.10115e-08 -8.61933e-21 3.31004e-07 -8.1023e-22 3.7837e-07)
(4.07283e-07 -7.30214e-09 2.56657e-20 3.15542e-07 2.76012e-21 3.61408e-07)
(3.89005e-07 -3.85683e-09 1.04992e-20 3.00709e-07 1.07628e-21 3.44854e-07)
(3.70869e-07 -7.26727e-10 1.77519e-20 2.86427e-07 1.89357e-21 3.28637e-07)
(3.53251e-07 2.02674e-09 2.05507e-20 2.7291e-07 2.12158e-21 3.13086e-07)
(3.35469e-07 4.32757e-09 -1.59161e-20 2.59539e-07 -1.7084e-21 2.97474e-07)
(3.18728e-07 6.1532e-09 2.20151e-20 2.47116e-07 2.40816e-21 2.82964e-07)
(3.00117e-07 7.66872e-09 -5.70067e-21 2.33383e-07 -6.81776e-22 2.66622e-07)
(2.88661e-07 8.847e-09 -1.17135e-23 2.25118e-07 2.81416e-23 2.57216e-07)
(2.67736e-07 9.65789e-09 4.76525e-21 2.09668e-07 5.02419e-22 2.38141e-07)
(2.65612e-07 1.02175e-08 -3.9879e-21 2.08306e-07 -4.13968e-22 2.37834e-07)
(2.31698e-07 1.03964e-08 1.69214e-20 1.82973e-07 1.92408e-21 2.05913e-07)
(2.47175e-07 1.04161e-08 1.28717e-20 1.94518e-07 1.4205e-21 2.2315e-07)
(1.83813e-07 1.03497e-08 -2.1525e-24 1.47806e-07 1.97239e-24 1.62136e-07)
(2.46024e-07 9.7019e-09 1.64985e-20 1.93858e-07 1.83437e-21 2.25678e-07)
(1.31823e-07 9.47518e-09 3.70196e-24 1.15024e-07 -8.63107e-23 1.1461e-07)
(2.9521e-07 7.61945e-09 -5.57803e-20 2.33586e-07 -6.27408e-21 2.77729e-07)
(1.74848e-07 7.14369e-09 -1.40609e-20 1.90452e-07 -1.61688e-21 1.62735e-07)
(4.64922e-07 7.76264e-09 -3.60169e-20 3.73449e-07 -3.90787e-21 4.48671e-07)
(4.12087e-07 -1.46161e-08 6.12347e-20 4.81453e-07 7.58915e-21 4.05805e-07)
(7.2604e-07 2.07397e-08 -7.11096e-21 5.91274e-07 -7.15067e-22 7.09248e-07)
(5.01773e-07 -6.41431e-08 -3.26503e-25 5.9782e-07 1.19782e-23 5.56378e-07)
(4.28584e-07 -4.67709e-08 1.3681e-24 5.04502e-07 8.96922e-24 4.71188e-07)
(4.01718e-08 -3.17716e-10 -3.70948e-24 4.0984e-08 -4.9063e-25 4.05728e-08)
(2.39448e-09 -5.18488e-13 2.56333e-26 2.39855e-09 1.9857e-27 2.39646e-09)
(0 -0 0 0 0 0)
(0 -0 -0 0 -0 0)
(0 -0 0 0 0 0)
(0.000102644 -4.62705e-05 2.25337e-22 0.000103221 4.5101e-22 0.000102911)
(0.000149738 -7.34366e-05 -2.49235e-22 0.000186836 6.31314e-22 0.00016839)
(0.00610411 0.00298366 1.94849e-20 0.00752816 6.93471e-21 0.00681732)
(0.0584368 0.0281024 -3.26208e-20 0.0684217 -1.21036e-19 0.0634242)
(0.20317 0.0974885 1.44227e-17 0.23635 1.41713e-18 0.219747)
(0.423705 0.203528 2.23231e-19 0.494406 2.47121e-19 0.459056)
(0.640175 0.308243 -1.31942e-18 0.752234 -6.34852e-19 0.696217)
(0.762995 0.368571 4.07153e-17 0.90536 4.11086e-18 0.834189)
(0.731147 0.354753 2.96922e-18 0.879723 6.50105e-19 0.805445)
(0.53016 0.259152 3.08611e-17 0.654089 2.18035e-18 0.592131)
(0.199249 0.0994798 5.81828e-17 0.27002 6.01018e-18 0.234636)
(0.190639 -0.0858946 3.11376e-20 0.19111 1.1618e-18 0.190884)
(0.589319 -0.247315 -3.84791e-17 0.520453 -3.02339e-18 0.554899)
(0.805308 -0.331785 -4.40858e-17 0.691007 -6.58955e-18 0.748158)
(0.754291 -0.307505 1.74457e-16 0.637029 1.79263e-17 0.695645)
(0.487687 -0.1973 -1.34264e-16 0.407244 -1.16834e-17 0.447456)
(0.193878 -0.0779914 4.9405e-19 0.160567 -4.72323e-19 0.177222)
(0.0357904 -0.0143734 -8.40552e-18 0.0295698 -7.80656e-19 0.0326803)
(0.00122354 -0.000503995 -1.40166e-21 0.00104954 -5.88659e-21 0.00113659)
(4.34629e-05 2.1438e-05 -1.32905e-19 7.56936e-05 -1.28668e-20 5.96486e-05)
(0 0 -0 0 0 0)
(0 -0 -0 0 -0 0)
(0 -0 -0 0 -0 0)
(3.9099e-10 -2.53019e-14 9.92194e-32 3.90988e-10 -7.52138e-31 3.90989e-10)
(2.01044e-09 -7.87355e-13 -7.08245e-28 2.01043e-09 -4.33153e-29 2.01044e-09)
(4.26851e-07 -3.73743e-08 -3.59646e-22 4.2664e-07 -2.29383e-23 4.26743e-07)
(7.40548e-07 -1.09085e-07 -9.47134e-21 7.3363e-07 -9.34907e-22 7.37075e-07)
(6.90209e-07 -9.54244e-08 5.68643e-21 6.77559e-07 5.24671e-22 6.83876e-07)
(6.18348e-07 -7.78564e-08 -1.24507e-21 6.02988e-07 -1.06116e-22 6.10671e-07)
(6.06377e-07 -7.52741e-08 4.41553e-25 5.86659e-07 -5.44878e-24 5.9653e-07)
(6.10174e-07 -7.60476e-08 -1.42281e-21 5.84993e-07 -1.30609e-22 5.97602e-07)
(6.06613e-07 -7.48649e-08 -2.75783e-21 5.76254e-07 -2.68968e-22 5.91456e-07)
(5.992e-07 -7.27219e-08 -1.90647e-25 5.63956e-07 -3.40728e-24 5.81605e-07)
(5.92678e-07 -7.07557e-08 -2.8441e-24 5.52458e-07 1.12839e-23 5.72596e-07)
(5.86716e-07 -6.8873e-08 4.06277e-21 5.41424e-07 4.01089e-22 5.64101e-07)
(5.79951e-07 -6.67689e-08 -5.16231e-21 5.29678e-07 -4.94181e-22 5.54846e-07)
(5.72038e-07 -6.4374e-08 -1.26199e-21 5.16954e-07 -1.18954e-22 5.44528e-07)
(5.63167e-07 -6.17348e-08 -1.73139e-24 5.03463e-07 6.50692e-24 5.33348e-07)
(5.53462e-07 -5.88811e-08 -3.25952e-24 4.89357e-07 3.78021e-24 5.21441e-07)
(5.42963e-07 -5.58208e-08 6.2174e-24 4.74719e-07 -1.85795e-23 5.08872e-07)
(5.3171e-07 -5.25658e-08 -7.12354e-24 4.59641e-07 -1.42774e-23 4.95705e-07)
(5.19743e-07 -4.91295e-08 -9.59682e-21 4.44205e-07 -9.12816e-22 4.82003e-07)
(5.07145e-07 -4.55378e-08 1.1807e-20 4.28542e-07 1.20137e-21 4.6787e-07)
(4.94e-07 -4.18156e-08 1.11665e-21 4.12771e-07 7.51326e-23 4.5341e-07)
(4.80395e-07 -3.79934e-08 6.92653e-24 3.97015e-07 -2.6695e-24 4.38728e-07)
(4.66401e-07 -3.41031e-08 6.77273e-24 3.81377e-07 -2.8208e-24 4.23909e-07)
(4.52107e-07 -3.01777e-08 1.45403e-24 3.65967e-07 -3.09615e-23 4.09055e-07)
(4.37589e-07 -2.62551e-08 -7.65067e-21 3.50878e-07 -7.65403e-22 3.94249e-07)
(4.22933e-07 -2.23745e-08 -1.00741e-21 3.362e-07 -7.33275e-23 3.79579e-07)
(4.08201e-07 -1.85736e-08 4.84941e-22 3.21992e-07 7.42893e-23 3.65107e-07)
(3.93463e-07 -1.48914e-08 8.72024e-21 3.08308e-07 9.16559e-22 3.50894e-07)
(3.78729e-07 -1.13583e-08 3.2625e-21 2.9514e-07 2.05589e-22 3.36941e-07)
(3.64018e-07 -8.0007e-09 -3.48666e-20 2.82479e-07 -3.67026e-21 3.23252e-07)
(3.49392e-07 -4.84675e-09 -6.14746e-21 2.70338e-07 -5.4442e-22 3.09871e-07)
(3.34766e-07 -1.94051e-09 6.99178e-21 2.58615e-07 6.82007e-22 2.96685e-07)
(3.20574e-07 6.48584e-10 -3.36914e-20 2.47586e-07 -3.56956e-21 2.84093e-07)
(3.06041e-07 2.84436e-09 1.19644e-20 2.36574e-07 1.34378e-21 2.71282e-07)
(2.92497e-07 4.60356e-09 -6.09149e-21 2.26484e-07 -6.49212e-22 2.59539e-07)
(2.76834e-07 6.07824e-09 6.4835e-21 2.14898e-07 6.67849e-22 2.4574e-07)
(2.67824e-07 7.22413e-09 -2.01687e-20 2.08408e-07 -2.20438e-21 2.38445e-07)
(2.48951e-07 8.08462e-09 7.43634e-21 1.94461e-07 8.77615e-22 2.2115e-07)
(2.48826e-07 8.66382e-09 3.80658e-21 1.94596e-07 4.02695e-22 2.22583e-07)
(2.17083e-07 8.96075e-09 3.33614e-21 1.70885e-07 3.60323e-22 1.92572e-07)
(2.34401e-07 8.937e-09 -1.44124e-20 1.83851e-07 -1.59559e-21 2.11413e-07)
(1.73318e-07 9.1077e-09 -2.06656e-24 1.38818e-07 9.70585e-25 1.52428e-07)
(2.37032e-07 8.28923e-09 -1.5707e-20 1.86171e-07 -1.73632e-21 2.17288e-07)
(1.25668e-07 8.57058e-09 -8.69097e-24 1.09456e-07 1.06719e-22 1.08824e-07)
(2.89724e-07 6.22961e-09 7.06264e-20 2.28859e-07 7.83653e-21 2.72533e-07)
(1.73311e-07 6.6646e-09 -1.91057e-23 1.88835e-07 -3.89588e-23 1.61202e-07)
(4.63813e-07 6.43018e-09 3.4433e-20 3.72405e-07 3.69323e-21 4.47716e-07)
(4.14691e-07 -1.47371e-08 -7.43368e-20 4.84198e-07 -9.19595e-21 4.08132e-07)
(7.30227e-07 1.96765e-08 5.9436e-23 5.94296e-07 4.08531e-24 7.13347e-07)
(3.97684e-07 -4.61441e-08 -2.12631e-25 4.59937e-07 -9.30239e-24 4.33148e-07)
(4.33738e-07 -5.56832e-08 4.72623e-25 5.11802e-07 -2.33027e-23 4.77763e-07)
(3.93526e-07 -4.23636e-08 1.03742e-21 4.64872e-07 1.14197e-22 4.28838e-07)
(1.00196e-07 -2.48556e-09 -5.95772e-23 1.05674e-07 -4.48949e-24 1.02866e-07)
(5.61434e-09 -4.73822e-12 -7.85663e-29 5.64042e-09 -7.73898e-27 5.62739e-09)
(0 -0 0 0 0 0)
(0 -0 -0 0 -0 0)
(0 -0 0 0 -0 0)
(3.84116e-06 -6.00444e-07 2.55047e-26 3.82904e-06 2.07193e-24 3.83497e-06)
(9.61646e-06 -3.19596e-06 1.79564e-24 9.79525e-06 1.45659e-23 9.7073e-06)
(0.000914835 0.000459767 -1.12072e-21 0.00129972 1.45113e-20 0.00110823)
(0.023919 0.0115531 -4.65816e-18 0.0283733 -4.49134e-19 0.0261465)