/*--------------------------------*- C++ -*----------------------------------*\
| =========                 |                                                 |
| \\      /  F ield         | OpenFOAM: The Open Source CFD Toolbox           |
|  \\    /   O peration     | Version:  2506                                  |
|   \\  /    A nd           | Website:  www.openfoam.com                      |
|    \\/     M anipulation  |                                                 |
\*---------------------------------------------------------------------------*/
FoamFile
{
    version     2.0;
    format      ascii;
    arch        "LSB;label=32;scalar=64";
    class       volScalarField;
    location    "350";
    object      turbulenceProperties:I;
}
// * * * * * * * * * * * * * * * * * * * * * * * * * * * * * * * * * * * * * //

dimensions      [0 0 0 0 0 0 0];

internalField   nonuniform List<scalar> 
1340
(
3.021e-05
2.64688e-05
3.04414e-05
2.60165e-05
2.60496e-05
3.04464e-05
1.68096e-05
2.58552e-05
2.57686e-05
3.05171e-05
1.58705e-05
2.15156e-05
1.67324e-05
2.5727e-05
2.5527e-05
3.06285e-05
1.89128e-05
2.05123e-05
1.56336e-05
2.1322e-05
1.66522e-05
2.56113e-05
2.533e-05
3.07416e-05
2.24275e-05
2.10252e-05
2.1038e-05
1.85362e-05
2.02305e-05
1.53808e-05
2.11313e-05
1.65741e-05
2.55125e-05
2.51877e-05
3.08478e-05
2.40795e-05
2.33385e-05
2.24038e-05
2.19437e-05
2.05576e-05
2.06511e-05
1.81454e-05
1.99417e-05
1.51153e-05
2.09481e-05
1.64978e-05
2.54333e-05
2.50978e-05
3.09453e-05
2.70889e-05
2.61617e-05
2.52409e-05
2.43343e-05
2.34134e-05
2.27332e-05
2.18335e-05
2.1441e-05
2.0074e-05
2.02503e-05
1.77421e-05
1.96468e-05
1.48382e-05
2.07709e-05
1.64237e-05
2.53691e-05
2.50487e-05
3.10471e-05
3.04652e-05
2.95763e-05
2.86926e-05
2.78165e-05
2.69498e-05
2.60937e-05
2.52501e-05
2.44077e-05
2.35796e-05
2.27232e-05
2.21052e-05
2.12418e-05
2.09181e-05
1.9573e-05
1.98345e-05
1.73253e-05
1.93445e-05
1.45497e-05
2.05961e-05
1.63533e-05
2.53149e-05
2.5032e-05
3.11383e-05
3.43781e-05
3.36431e-05
3.28916e-05
3.21259e-05
3.13496e-05
3.05654e-05
2.97765e-05
2.89856e-05
2.81951e-05
2.74069e-05
2.66228e-05
2.58447e-05
2.50732e-05
2.43125e-05
2.35485e-05
2.27997e-05
2.20093e-05
2.14551e-05
2.06294e-05
2.03755e-05
1.9055e-05
1.94039e-05
1.68957e-05
1.90345e-05
1.42509e-05
2.04223e-05
1.62862e-05
2.52686e-05
2.5057e-05
3.12284e-05
3.79106e-05
3.75855e-05
3.72359e-05
3.686e-05
3.64561e-05
3.60232e-05
3.5561e-05
3.50698e-05
3.45503e-05
3.40039e-05
3.34319e-05
3.2836e-05
3.22187e-05
3.15819e-05
3.09288e-05
3.02612e-05
2.95823e-05
2.88949e-05
2.82016e-05
2.75049e-05
2.6807e-05
2.61095e-05
2.54137e-05
2.47214e-05
2.40327e-05
2.33537e-05
2.26674e-05
2.19982e-05
2.12751e-05
2.07857e-05
1.9999e-05
1.98153e-05
1.85223e-05
1.89601e-05
1.64551e-05
1.87175e-05
1.39442e-05
2.02498e-05
1.62208e-05
2.5229e-05
2.51044e-05
3.13173e-05
2.81523e-06
6.95735e-07
0
0
0.000200747
0.000288694
0.00263288
0.00938583
0.018585
0.0279882
0.0358413
0.0410286
0.0426407
0.0396629
0.0305596
0.0100142
0.0299956
0.0390973
0.0406718
0.0358281
0.0261408
0.0146579
0.00535204
0.000492271
0.000169848
0
0
0
5.15306e-06
1.89483e-05
3.71508e-05
3.93471e-05
3.68425e-05
3.567e-05
3.55741e-05
3.54787e-05
3.52276e-05
3.49506e-05
3.46785e-05
3.43909e-05
3.40795e-05
3.37437e-05
3.33826e-05
3.29945e-05
3.25794e-05
3.21377e-05
3.1671e-05
3.11806e-05
3.06678e-05
3.01345e-05
2.95831e-05
2.90162e-05
2.84356e-05
2.7844e-05
2.72441e-05
2.66383e-05
2.60288e-05
2.54176e-05
2.48059e-05
2.41943e-05
2.35849e-05
2.29766e-05
2.23777e-05
2.17682e-05
2.11783e-05
2.05235e-05
2.00999e-05
1.93534e-05
1.92399e-05
1.79769e-05
1.85044e-05
1.6006e-05
1.83933e-05
1.36314e-05
2.00749e-05
1.61595e-05
2.51933e-05
2.51772e-05
3.14054e-05
2.82387e-05
3.93268e-06
1.01698e-06
0
0
8.6534e-06
0.000708969
0.000945565
0.00592804
0.0139281
0.0230623
0.0313274
0.0373484
0.040142
0.0387579
0.0319547
0.0161591
0.0245901
0.0354039
0.0384149
0.034963
0.0264434
0.0156235
0.00617891
0.000855965
0.00024656
0
0
0
3.07779e-06
1.07474e-05
3.2328e-05
3.67383e-05
3.43358e-05
3.26978e-05
3.24553e-05
3.24136e-05
3.2215e-05
3.19716e-05
3.17369e-05
3.14879e-05
3.121e-05
3.09059e-05
3.05783e-05
3.02268e-05
2.98506e-05
2.9451e-05
2.90294e-05
2.85871e-05
2.8126e-05
2.76484e-05
2.71567e-05
2.66526e-05
2.61388e-05
2.56177e-05
2.50915e-05
2.45623e-05
2.40319e-05
2.3501e-05
2.29697e-05
2.244e-05
2.19096e-05
2.1389e-05
2.08549e-05
2.0344e-05
1.97581e-05
1.94009e-05
1.86954e-05
1.86517e-05
1.74217e-05
1.80389e-05
1.55502e-05
1.80624e-05
1.33129e-05
1.98998e-05
1.60959e-05
2.51592e-05
2.52519e-05
3.14984e-05
2.8702e-05
2.64307e-05
7.78176e-06
1.89121e-06
0
0
0
0.000391659
0.000500481
0.00318573
0.00974857
0.0182861
0.0267673
0.0335275
0.0374209
0.0374943
0.0326788
0.0207744
0.0187472
0.0316524
0.036075
0.0339695
0.0266026
0.0164287
0.00697783
0.00129652
0.000296971
0
0
0
7.60887e-07
1.72487e-06
2.51242e-05
3.30114e-05
3.17899e-05
3.00325e-05
2.9675e-05
2.96938e-05
2.95326e-05
2.92774e-05
2.90415e-05
2.88168e-05
2.85709e-05
2.82956e-05
2.79952e-05
2.76728e-05
2.73293e-05
2.69657e-05
2.65831e-05
2.61837e-05
2.57697e-05
2.53434e-05
2.49068e-05
2.44623e-05
2.40122e-05
2.35587e-05
2.31036e-05
2.26487e-05
2.2194e-05
2.17395e-05
2.12867e-05
2.0832e-05
2.03883e-05
1.99286e-05
1.94956e-05
1.89799e-05
1.86893e-05
1.80266e-05
1.80514e-05
1.68582e-05
1.7563e-05
1.50896e-05
1.77257e-05
1.29908e-05
1.97154e-05
1.60282e-05
2.51365e-05
2.53298e-05
3.15963e-05
2.53177e-05
2.65854e-05
2.52825e-05
1.23818e-05
2.89541e-06
0
0
0
7.55538e-05
0.000120102
0.00128243
0.006241
0.0138299
0.0222598
0.0296321
0.0345441
0.0359524
0.0328602
0.0237123
0.0120975
0.0279176
0.0337157
0.0328769
0.0265966
0.0170718
0.0076986
0.00171495
0.00034804
0
0
0
6.20595e-08
5.57722e-06
2.07109e-05
2.95339e-05
2.94218e-05
2.74526e-05
2.68267e-05
2.69847e-05
2.70401e-05
2.68653e-05
2.6621e-05
2.63879e-05
2.61553e-05
2.59025e-05
2.56245e-05
2.53252e-05
2.50081e-05
2.46744e-05
2.4326e-05
2.39651e-05
2.35944e-05
2.32157e-05
2.28315e-05
2.24444e-05
2.20561e-05
2.16687e-05
2.12832e-05
2.09002e-05
2.05186e-05
2.01393e-05
1.97578e-05
1.93886e-05
1.90019e-05
1.86454e-05
1.81992e-05
1.79759e-05
1.73558e-05
1.74486e-05
1.62913e-05
1.70862e-05
1.46234e-05
1.73895e-05
1.26421e-05
1.95421e-05
1.59324e-05
2.51133e-05
2.54198e-05
3.17276e-05
2.36576e-05
2.35728e-05
2.49541e-05
2.3847e-05
1.64134e-05
3.79995e-06
5.53489e-08
0
0
1.43075e-06
0.000462426
0.00049093
0.00340291
0.00960982
0.017535
0.025311
0.0312558
0.0341021
0.0328044
0.0261373
0.00970219
0.0236528
0.0311636
0.0317645
0.0266916
0.0179204
0.00866529
0.0022071
0.000333096
0.0001046
0
0
0
4.29724e-06
1.49108e-05
2.56612e-05
2.81664e-05
2.64821e-05
2.48413e-05
2.43859e-05
2.44397e-05
2.44261e-05
2.42601e-05
2.4035e-05
2.38053e-05
2.35688e-05
2.33155e-05
2.3043e-05
2.27549e-05
2.24552e-05
2.21445e-05
2.18266e-05
2.15034e-05
2.1177e-05
2.08506e-05
2.05256e-05
2.02044e-05
1.98868e-05
1.95745e-05
1.92654e-05
1.89594e-05
1.86519e-05
1.83575e-05
1.80441e-05
1.77662e-05
1.73914e-05
1.72365e-05
1.66644e-05
1.68217e-05
1.57126e-05
1.65842e-05
1.41638e-05
1.70246e-05
1.23332e-05
1.9336e-05
1.58632e-05
2.50702e-05
2.55013e-05
3.18153e-05
2.2176e-05
2.18388e-05
2.20694e-05
2.24196e-05
2.19719e-05
1.935e-05
7.80095e-06
1.87349e-06
1.32197e-08
0
0
0.000159447
0.000277351
0.00104916
0.00475149
0.0106675
0.017764
0.0244744
0.0292688
0.0308692
0.028163
0.0195746
0.0129958
0.0251405
0.0289508
0.0268643
0.0204394
0.0121865
0.00522011
0.00096729
0.000314867
4.64745e-05
0
0
4.74712e-07
3.33863e-06
1.0345e-05
2.03665e-05
2.38781e-05
2.33757e-05
2.2172e-05
2.16594e-05
2.16146e-05
2.15834e-05
2.14381e-05
2.12343e-05
2.10212e-05
2.08016e-05
2.05699e-05
2.03266e-05
2.00732e-05
1.9815e-05
1.95545e-05
1.92943e-05
1.90361e-05
1.87825e-05
1.85361e-05
1.82963e-05
1.8065e-05
1.78389e-05
1.76182e-05
1.73966e-05
1.71893e-05
1.69621e-05
1.67729e-05
1.64873e-05
1.64042e-05
1.5903e-05
1.61132e-05
1.50988e-05
1.59986e-05
1.37285e-05
1.6539e-05
1.20951e-05
1.88863e-05
1.54903e-05
2.45092e-05
2.48602e-05
3.06744e-05
2.03679e-05
2.0184e-05
2.02451e-05
2.01383e-05
2.0064e-05
2.0561e-05
1.94505e-05
1.55886e-05
2.0477e-06
5.45364e-07
0
0
4.98313e-06
0.000101005
0.000552281
0.000879887
0.00411638
0.00937615
0.0158242
0.0220371
0.0264931
0.0278458
0.0249338
0.015943
0.0144262
0.023811
0.0259946
0.0229367
0.0165361
0.00931378
0.00367912
0.000474259
0.00021998
1.49736e-05
0
0
2.8099e-07
2.89167e-06
9.66931e-06
1.80771e-05
2.06904e-05
2.00656e-05
1.90895e-05
1.87594e-05
1.8747e-05
1.86876e-05
1.85329e-05
1.83466e-05
1.81598e-05
1.79691e-05
1.77715e-05
1.75718e-05
1.73725e-05
1.71788e-05
1.69921e-05
1.68155e-05
1.66516e-05
1.64996e-05
1.63619e-05
1.62327e-05
1.61132e-05
1.59937e-05
1.58899e-05
1.57655e-05
1.56797e-05
1.54969e-05
1.54996e-05
1.50781e-05
1.53561e-05
1.44323e-05
1.53989e-05
1.32354e-05
1.61086e-05
1.18337e-05
1.86436e-05
1.55168e-05
2.44657e-05
2.51523e-05
3.08105e-05
1.85455e-05
1.84265e-05
1.85629e-05
1.84738e-05
1.8249e-05
1.8185e-05
1.84464e-05
1.87364e-05
1.68414e-05
9.98986e-06
2.31386e-06
3.2948e-08
0
0
0
9.91911e-05
0.000533851
0.000723095
0.00374954
0.00869003
0.0147573
0.0205598
0.0245641
0.0253881
0.021816
0.0114012
0.0162168
0.0227744
0.0231722
0.0191836
0.0128811
0.00658582
0.00210201
0.000118857
0.000138359
0
0
0
2.78477e-07
3.21389e-06
1.12654e-05
1.67633e-05
1.76377e-05
1.67558e-05
1.61481e-05
1.60376e-05
1.60202e-05
1.59161e-05
1.576e-05
1.5599e-05
1.54445e-05
1.5294e-05
1.51484e-05
1.50155e-05
1.48975e-05
1.47979e-05
1.4719e-05
1.46606e-05
1.46229e-05
1.45995e-05
1.459e-05
1.45816e-05
1.45889e-05
1.45729e-05
1.45948e-05
1.45151e-05
1.46071e-05
1.42658e-05
1.46158e-05
1.3775e-05
1.48216e-05
1.27378e-05
1.57159e-05
1.15194e-05
1.84534e-05
1.54716e-05
2.44942e-05
2.53673e-05
3.09295e-05
1.66883e-05
1.68511e-05
1.68197e-05
1.66711e-05
1.65114e-05
1.64253e-05
1.65103e-05
1.69783e-05
1.66152e-05
1.40562e-05
4.70876e-06
1.19938e-06
0
0
0
0
9.34978e-05
0.00052075
0.000728152
0.00369167
0.00846357
0.0142367
0.0196005
0.0229926
0.0230123
0.0183801
0.0048145
0.0174658
0.0214359
0.0202031
0.0155091
0.00943449
0.00419645
0.000908301
0.000247393
1.46224e-06
0
0
0
1.72629e-06
5.52844e-06
1.23743e-05
1.47641e-05
1.44809e-05
1.37554e-05
1.34948e-05
1.34646e-05
1.34024e-05
1.32828e-05
1.31586e-05
1.30496e-05
1.29569e-05
1.28872e-05
1.28423e-05
1.28264e-05
1.28414e-05
1.28857e-05
1.29573e-05
1.3047e-05
1.31534e-05
1.32593e-05
1.33783e-05
1.34681e-05
1.35918e-05
1.36073e-05
1.37802e-05
1.35164e-05
1.39301e-05
1.31706e-05
1.42862e-05
1.22831e-05
1.53581e-05
1.1231e-05
1.82984e-05
1.54055e-05
2.45543e-05
2.54857e-05
3.10397e-05
1.49966e-05
1.51795e-05
1.51668e-05
1.5072e-05
1.49854e-05
1.48817e-05
1.47889e-05
1.48011e-05
1.50215e-05
1.54126e-05
1.44825e-05
9.6521e-06
2.29335e-06
3.32729e-08
0
0
0
0
9.62478e-05
0.000518124
0.000874573
0.00389018
0.00860863
0.0141265
0.0189744
0.0215619
0.0204969
0.0143647
0.00964143
0.0180397
0.0197044
0.0170295
0.0118556
0.00629643
0.00218457
3.68005e-05
8.29888e-05
0
0
0
1.73706e-07
2.30751e-06
7.623e-06
1.13106e-05
1.1816e-05
1.12751e-05
1.09268e-05
1.08702e-05
1.08509e-05
1.07942e-05
1.07381e-05
1.07122e-05
1.07263e-05
1.078e-05
1.08754e-05
1.1013e-05
1.11861e-05
1.13895e-05
1.1609e-05
1.18414e-05
1.20669e-05
1.22977e-05
1.24892e-05
1.27058e-05
1.28059e-05
1.30465e-05
1.28573e-05
1.33216e-05
1.26448e-05
1.38094e-05
1.19015e-05
1.50424e-05
1.10134e-05
1.81717e-05
1.53378e-05
2.46405e-05
2.55099e-05
3.11672e-05
1.3375e-05
1.35555e-05
1.35571e-05
1.34887e-05
1.34306e-05
1.33614e-05
1.33139e-05
1.32278e-05
1.31712e-05
1.3243e-05
1.36588e-05
1.36271e-05
1.18928e-05
4.32076e-06
1.16162e-06
4.34831e-09
0
0
0
0
0.000138169
0.000129661
0.00114795
0.00432627
0.00907299
0.0143214
0.0185137
0.020058
0.0176161
0.00913076
0.0131071
0.0178702
0.0174486
0.0136025
0.00830616
0.0036072
0.000706539
0.000230123
0
0
0
0
1.43724e-06
4.41422e-06
7.93085e-06
8.97969e-06
8.68745e-06
8.2716e-06
8.14372e-06
8.15994e-06
8.20915e-06
8.29763e-06
8.45434e-06
8.67961e-06
8.95925e-06
9.27963e-06
9.62737e-06
9.99121e-06
1.03563e-05
1.07175e-05
1.10578e-05
1.13897e-05
1.16691e-05
1.19601e-05
1.21266e-05
1.24134e-05
1.2288e-05
1.27869e-05
1.21885e-05
1.33819e-05
1.15713e-05
1.47556e-05
1.08278e-05
1.80632e-05
1.52497e-05
2.47333e-05
2.5407e-05
3.13277e-05
1.22782e-05
1.24234e-05
1.24492e-05
1.23934e-05
1.23373e-05
1.22948e-05
1.22717e-05
1.22195e-05
1.21612e-05
1.20843e-05
1.2106e-05
1.22627e-05
1.26892e-05
1.1854e-05
9.21248e-06
5.00453e-07
2.00489e-07
0
0
0
0
2.49073e-06
0.000157615
0.000127493
0.00157326
0.00504506
0.00983347
0.0147106
0.0180322
0.0182503
0.0140465
0.00557494
0.0148931
0.016831
0.0145955
0.0100086
0.00510081
0.00159193
5.95471e-05
5.20419e-05
0
0
0
5.59077e-07
1.05363e-06
3.29927e-06
4.0217e-06
4.42354e-06
4.50153e-06
4.64101e-06
5.07241e-06
5.64576e-06
6.23726e-06
6.8268e-06
7.41061e-06
7.97855e-06
8.5216e-06
9.03833e-06
9.52327e-06
9.98072e-06
1.04005e-05
1.07998e-05
1.11369e-05
1.14709e-05
1.16798e-05
1.19857e-05
1.19136e-05
1.24211e-05
1.19087e-05
1.30882e-05
1.14117e-05
1.45621e-05
1.07984e-05
1.80075e-05
1.51418e-05
2.48469e-05
2.50644e-05
3.165e-05
1.10975e-05
1.12647e-05
1.12818e-05
1.12245e-05
1.11722e-05
1.11606e-05
1.11694e-05
1.11008e-05
1.10857e-05
1.10635e-05
1.10004e-05
1.09654e-05
1.10819e-05
1.13223e-05
1.14894e-05
1.00851e-05
6.09171e-06
1.75843e-06
4.80499e-08
0
0
0
0
4.04046e-06
0.000277107
0.000180627
0.00221728
0.00602621
0.0108073
0.0151099
0.0172513
0.0157694
0.00894768
0.0109609
0.015343
0.0147881
0.0111229
0.00633924
0.00241202
0.000282798
0.000189908
0
0
0
8.2877e-08
1.21773e-06
2.90457e-06
6.14166e-06
5.56012e-06
4.70394e-06
4.87663e-06
5.51691e-06
6.19686e-06
6.80724e-06
7.36249e-06
7.89008e-06
8.39277e-06
8.87074e-06
9.31744e-06
9.73895e-06
1.01281e-05
1.05006e-05
1.08194e-05
1.11302e-05
1.13234e-05
1.15954e-05
1.15286e-05
1.20136e-05
1.15395e-05
1.27043e-05
1.10649e-05
1.42587e-05
1.0464e-05
1.78482e-05
1.48525e-05
2.48417e-05
2.44119e-05
3.21761e-05
1.15544e-05
1.16368e-05
1.16291e-05
1.15671e-05
1.15079e-05
1.14675e-05
1.14438e-05
1.13807e-05
1.13389e-05
1.12901e-05
1.12137e-05
1.1146e-05
1.10948e-05
1.10812e-05
1.11586e-05
1.14039e-05
1.09514e-05
9.26358e-06
4.81617e-06
1.53553e-06
5.2769e-08
0
0
0
0
2.96591e-05
0.00038843
0.000590157
0.00318691
0.00735743
0.0120807
0.0157185
0.0165544
0.0131388
0.00537047
0.0135302
0.0149949
0.0124448
0.007852
0.00322666
0.000382324
0.000253683
0.000172047
7.75867e-05
1.35437e-05
0
1.49037e-07
1.48174e-06
6.56373e-06
9.31236e-06
8.96773e-06
8.36684e-06
8.26335e-06
8.47196e-06
8.76386e-06
9.07019e-06
9.38672e-06
9.71225e-06
1.00372e-05
1.03573e-05
1.06657e-05
1.09699e-05
1.12406e-05
1.15031e-05
1.16688e-05
1.18943e-05
1.1851e-05
1.22675e-05
1.1886e-05
1.29139e-05
1.14778e-05
1.44263e-05
1.08053e-05
1.80248e-05
1.44725e-05
2.50839e-05
2.32644e-05
3.38869e-05
1.07051e-05
1.0741e-05
1.07515e-05
1.07718e-05
1.07851e-05
1.07987e-05
1.08255e-05
1.08581e-05
1.08855e-05
1.09011e-05
1.09162e-05
1.09434e-05
1.09672e-05
1.09926e-05
1.10146e-05
1.11353e-05
1.13444e-05
1.14924e-05
1.09854e-05
9.55188e-06
4.85783e-06
1.44855e-06
0
0
0
0
0
7.52016e-05
0.000357068
0.0006717
0.00294255
0.00641182
0.010157
0.0128606
0.0131736
0.00989939
0.0053633
0.0112071
0.0118932
0.00964352
0.00620735
0.0031347
0.00113699
0.000162176
0.000149931
6.16528e-05
0
0
1.3189e-06
5.16535e-06
8.90632e-06
1.00872e-05
1.01132e-05
1.00104e-05
1.00196e-05
1.0097e-05
1.0196e-05
1.03041e-05
1.0418e-05
1.05351e-05
1.06523e-05
1.07763e-05
1.0888e-05
1.10053e-05
1.10388e-05
1.11111e-05
1.09539e-05
1.12662e-05
1.0793e-05
1.18097e-05
1.01136e-05
1.33453e-05
8.84706e-06
1.70388e-05
1.31729e-05
2.39551e-05
2.3232e-05
3.377e-05
)
;

boundaryField
{
    inlet
    {
        type            calculated;
        value           nonuniform List<scalar> 
27
(
7.72771e-05
7.7345e-05
7.74527e-05
7.75889e-05
7.77331e-05
7.78824e-05
7.80402e-05
7.82051e-05
7.83764e-05
7.85485e-05
7.87205e-05
7.88896e-05
7.90526e-05
7.92063e-05
7.93471e-05
7.94713e-05
7.95815e-05
7.94074e-05
7.9444e-05
7.94446e-05
7.93917e-05
7.92791e-05
7.90906e-05
7.88171e-05
7.84279e-05
7.80413e-05
7.72969e-05
)
;
    }
    outlet
    {
        type            calculated;
        value           nonuniform List<scalar> 
78
(
9.6548e-06
9.7104e-06
9.73278e-06
9.7681e-06
9.79464e-06
9.82143e-06
9.86631e-06
9.9185e-06
9.96382e-06
9.99386e-06
1.00233e-05
1.0068e-05
1.01109e-05
1.01557e-05
1.01954e-05
1.03231e-05
1.05244e-05
1.06535e-05
1.01779e-05
8.89472e-06
4.60458e-06
1.40388e-06
0
0
0
0
0
7.53776e-05
0.000356658
0.000652389
0.0029294
0.00640042
0.0101507
0.0128645
0.0131948
0.00995096
0.00518702
0.0111484
0.0118613
0.00963011
0.00620592
0.00313942
0.00114426
0.000131754
0.000146447
6.01289e-05
0
0
1.23409e-06
4.87591e-06
8.4448e-06
9.57266e-06
9.58984e-06
9.47638e-06
9.46081e-06
9.5016e-06
9.55562e-06
9.6126e-06
9.67067e-06
9.72961e-06
9.78701e-06
9.85473e-06
9.90851e-06
9.98154e-06
9.95091e-06
1.00061e-05
9.74186e-06
1.01712e-05
9.42859e-06
1.08896e-05
8.27984e-06
1.27768e-05
4.57753e-06
1.67165e-05
1.24658e-05
2.35489e-05
2.32602e-05
3.28552e-05
)
;
    }
    walls
    {
        type            calculated;
        value           nonuniform List<scalar> 0();
    }
    frontAndBack
    {
        type            empty;
    }
    procBoundary7to3
    {
        type            processor;
        value           nonuniform List<scalar> 
16
(
3.32972e-05
3.46029e-05
3.00552e-05
2.77211e-05
2.60517e-05
2.407e-05
2.17768e-05
1.96558e-05
1.6766e-05
1.6766e-05
1.50504e-05
1.34309e-05
1.2338e-05
1.11095e-05
1.16657e-05
1.06267e-05
)
;
    }
    procBoundary7to6
    {
        type            processor;
        value           nonuniform List<scalar> 
91
(
3.01659e-05
2.69092e-05
2.69092e-05
2.62663e-05
2.62663e-05
1.68757e-05
1.68757e-05
1.60888e-05
2.1708e-05
2.1708e-05
1.92688e-05
2.07822e-05
2.07822e-05
2.28908e-05
2.14748e-05
2.14096e-05
2.14096e-05
2.47234e-05
2.39229e-05
2.29545e-05
2.29545e-05
2.80575e-05
2.70463e-05
2.60472e-05
2.50631e-05
2.50631e-05
3.1936e-05
3.09433e-05
2.99599e-05
2.89888e-05
2.80313e-05
2.80313e-05
3.66109e-05
3.57633e-05
3.49005e-05
3.40249e-05
3.31403e-05
3.22501e-05
3.13574e-05
3.13574e-05
4.11273e-05
4.07292e-05
4.03034e-05
3.98478e-05
3.93607e-05
3.88418e-05
3.8291e-05
3.77085e-05
3.70957e-05
3.64547e-05
3.57865e-05
3.50932e-05
3.50932e-05
2.50435e-08
0
2.95475e-06
0.000584576
0.000550804
0.00512196
0.013523
0.0235611
0.0329704
0.0403021
0.0446039
0.0449573
0.0402178
0.0283461
0.0167516
0.0352351
0.0427887
0.0428797
0.0365853
0.0257128
0.0136318
0.00457905
0.000125903
6.09301e-05
0
0
0
7.05699e-06
2.66141e-05
4.20253e-05
4.26816e-05
4.01493e-05
3.91871e-05
3.90533e-05
3.88483e-05
3.85335e-05
3.82192e-05
3.82192e-05
)
;
    }
}


// ************************************************************************* //
