/*--------------------------------*- C++ -*----------------------------------*\
| =========                 |                                                 |
| \\      /  F ield         | OpenFOAM: The Open Source CFD Toolbox           |
|  \\    /   O peration     | Version:  2506                                  |
|   \\  /    A nd           | Website:  www.openfoam.com                      |
|    \\/     M anipulation  |                                                 |
\*---------------------------------------------------------------------------*/
FoamFile
{
    version     2.0;
    format      ascii;
    arch        "LSB;label=32;scalar=64";
    class       volScalarField;
    location    "350";
    object      turbulenceProperties:nuEff;
}
// * * * * * * * * * * * * * * * * * * * * * * * * * * * * * * * * * * * * * //

dimensions      [0 2 -1 0 0 0 0];

internalField   nonuniform List<scalar> 
1340
(
1.6102e-05
1.61027e-05
1.61023e-05
1.60833e-05
1.61034e-05
1.61028e-05
1.60813e-05
1.60833e-05
1.61041e-05
1.61033e-05
1.60723e-05
1.60746e-05
1.60812e-05
1.60831e-05
1.61048e-05
1.61039e-05
1.60774e-05
1.60731e-05
1.60723e-05
1.60745e-05
1.60811e-05
1.6083e-05
1.61055e-05
1.61046e-05
1.60902e-05
1.60864e-05
1.60822e-05
1.60778e-05
1.60733e-05
1.60723e-05
1.60744e-05
1.6081e-05
1.60829e-05
1.61063e-05
1.61054e-05
1.60996e-05
1.60967e-05
1.60941e-05
1.60908e-05
1.6087e-05
1.60827e-05
1.60783e-05
1.60736e-05
1.60722e-05
1.60743e-05
1.60809e-05
1.60827e-05
1.61071e-05
1.61063e-05
1.61121e-05
1.611e-05
1.61073e-05
1.61039e-05
1.61004e-05
1.60974e-05
1.60948e-05
1.60915e-05
1.60876e-05
1.60832e-05
1.60787e-05
1.60739e-05
1.60722e-05
1.60742e-05
1.60808e-05
1.60825e-05
1.61079e-05
1.61073e-05
1.61186e-05
1.61178e-05
1.61169e-05
1.61158e-05
1.61146e-05
1.6113e-05
1.61109e-05
1.61082e-05
1.61048e-05
1.61012e-05
1.60982e-05
1.60955e-05
1.60922e-05
1.60882e-05
1.60838e-05
1.60792e-05
1.60743e-05
1.60723e-05
1.60741e-05
1.60806e-05
1.60822e-05
1.61087e-05
1.61084e-05
1.61212e-05
1.61211e-05
1.61211e-05
1.6121e-05
1.61208e-05
1.61205e-05
1.61201e-05
1.61195e-05
1.61188e-05
1.61178e-05
1.61168e-05
1.61155e-05
1.61139e-05
1.61119e-05
1.61091e-05
1.61057e-05
1.61021e-05
1.6099e-05
1.60962e-05
1.60929e-05
1.60889e-05
1.60844e-05
1.60798e-05
1.60746e-05
1.60723e-05
1.6074e-05
1.60805e-05
1.6082e-05
1.61096e-05
1.61096e-05
1.61228e-05
1.61236e-05
1.61234e-05
1.61231e-05
1.61229e-05
1.61226e-05
1.61224e-05
1.61223e-05
1.61222e-05
1.61222e-05
1.61221e-05
1.61221e-05
1.61221e-05
1.6122e-05
1.6122e-05
1.61219e-05
1.61218e-05
1.61215e-05
1.61211e-05
1.61205e-05
1.61197e-05
1.61188e-05
1.61177e-05
1.61165e-05
1.61149e-05
1.61129e-05
1.61101e-05
1.61067e-05
1.6103e-05
1.60998e-05
1.6097e-05
1.60937e-05
1.60897e-05
1.60851e-05
1.60803e-05
1.60751e-05
1.60724e-05
1.60739e-05
1.60804e-05
1.60816e-05
1.61104e-05
1.61109e-05
1.00006e-05
1e-05
1e-05
1e-05
0.000158304
0.000484782
0.0161435
0.0552369
0.112713
0.176138
0.235562
0.285671
0.324132
0.35048
0.36589
0.37271
0.37386
0.362881
0.331041
0.272262
0.189127
0.0998291
0.0327194
0.00163874
0.000481005
1e-05
1e-05
1e-05
1.00017e-05
1.03902e-05
1.61555e-05
1.80032e-05
1.64505e-05
1.59043e-05
1.6032e-05
1.61413e-05
1.61419e-05
1.61282e-05
1.61261e-05
1.61257e-05
1.61243e-05
1.61235e-05
1.61235e-05
1.61234e-05
1.61233e-05
1.61232e-05
1.61231e-05
1.61231e-05
1.61231e-05
1.6123e-05
1.6123e-05
1.6123e-05
1.61229e-05
1.61228e-05
1.61225e-05
1.61221e-05
1.61215e-05
1.61207e-05
1.61198e-05
1.61187e-05
1.61175e-05
1.61159e-05
1.61139e-05
1.61112e-05
1.61077e-05
1.61039e-05
1.61007e-05
1.60979e-05
1.60945e-05
1.60905e-05
1.60858e-05
1.60809e-05
1.60755e-05
1.60725e-05
1.60738e-05
1.60802e-05
1.60813e-05
1.61112e-05
1.61123e-05
1.6109e-05
1.00033e-05
1e-05
1e-05
1e-05
1.00017e-05
0.00210391
0.00823865
0.0367168
0.0875996
0.150419
0.21322
0.268322
0.311975
0.342891
0.361644
0.370801
0.373093
0.364479
0.336223
0.281389
0.201333
0.112316
0.0400758
0.00374801
0.00104624
1e-05
1e-05
1e-05
1.00003e-05
1.00564e-05
1.50956e-05
1.87193e-05
1.69708e-05
1.59827e-05
1.59922e-05
1.61206e-05
1.61326e-05
1.61188e-05
1.61216e-05
1.61269e-05
1.61268e-05
1.6125e-05
1.61242e-05
1.61242e-05
1.61242e-05
1.61242e-05
1.61241e-05
1.61241e-05
1.6124e-05
1.6124e-05
1.6124e-05
1.61239e-05
1.61238e-05
1.61235e-05
1.61231e-05
1.61226e-05
1.61218e-05
1.61209e-05
1.61198e-05
1.61185e-05
1.6117e-05
1.6115e-05
1.61123e-05
1.61088e-05
1.6105e-05
1.61017e-05
1.60988e-05
1.60954e-05
1.60913e-05
1.60865e-05
1.60816e-05
1.6076e-05
1.60727e-05
1.60736e-05
1.60801e-05
1.6081e-05
1.6112e-05
1.61138e-05
1.79603e-05
1.61746e-05
1.00567e-05
1.00003e-05
1e-05
1e-05
1e-05
0.00063469
0.0023053
0.0211461
0.0633576
0.12301
0.187892
0.247819
0.297066
0.333226
0.356286
0.368352
0.371962
0.365638
0.340883
0.290112
0.213352
0.124136
0.0477429
0.00679363
0.00183587
1e-05
1e-05
1e-05
1e-05
1.00001e-05
1.2771e-05
1.82422e-05
1.73052e-05
1.60795e-05
1.59959e-05
1.61668e-05
1.61835e-05
1.61339e-05
1.61148e-05
1.61208e-05
1.61268e-05
1.6127e-05
1.61257e-05
1.61251e-05
1.61251e-05
1.61252e-05
1.61251e-05
1.61251e-05
1.6125e-05
1.6125e-05
1.6125e-05
1.61248e-05
1.61246e-05
1.61242e-05
1.61237e-05
1.61229e-05
1.6122e-05
1.61209e-05
1.61197e-05
1.61181e-05
1.61162e-05
1.61135e-05
1.611e-05
1.61061e-05
1.61027e-05
1.60997e-05
1.60963e-05
1.60922e-05
1.60873e-05
1.60823e-05
1.60766e-05
1.60729e-05
1.60735e-05
1.60799e-05
1.60806e-05
1.61128e-05
1.61154e-05
1.6244e-05
1.77386e-05
1.61755e-05
1.04565e-05
1.00021e-05
1e-05
1e-05
1e-05
1.92797e-05
6.2813e-05
0.0107716
0.0420921
0.095605
0.16051
0.224671
0.279781
0.321762
0.349685
0.364996
0.370022
0.365852
0.34453
0.297871
0.224408
0.135348
0.0556082
0.0102668
0.00271864
1e-05
1e-05
1e-05
1e-05
1.00079e-05
1.1929e-05
1.79036e-05
1.76988e-05
1.60067e-05
1.56779e-05
1.59821e-05
1.61814e-05
1.61808e-05
1.61353e-05
1.61191e-05
1.61227e-05
1.61268e-05
1.61272e-05
1.61265e-05
1.61262e-05
1.61262e-05
1.61262e-05
1.61262e-05
1.61261e-05
1.61261e-05
1.6126e-05
1.61257e-05
1.61254e-05
1.61248e-05
1.61241e-05
1.61232e-05
1.61221e-05
1.61209e-05
1.61193e-05
1.61174e-05
1.61148e-05
1.61113e-05
1.61073e-05
1.61038e-05
1.61008e-05
1.60973e-05
1.60931e-05
1.60882e-05
1.60831e-05
1.60772e-05
1.60731e-05
1.60734e-05
1.60797e-05
1.60803e-05
1.61136e-05
1.6117e-05
1.60184e-05
1.62235e-05
1.7429e-05
1.64218e-05
1.18203e-05
1.00083e-05
1e-05
1e-05
1e-05
1e-05
0.000982936
0.0036568
0.0244487
0.0683166
0.129669
0.196615
0.258192
0.307632
0.342169
0.36207
0.369527
0.36717
0.349004
0.306583
0.236676
0.148261
0.0651758
0.0135915
0.00397192
0.00012504
1e-05
1e-05
1e-05
1.00031e-05
1.06959e-05
1.68697e-05
1.97343e-05
1.76067e-05
1.60471e-05
1.57919e-05
1.60058e-05
1.61531e-05
1.61635e-05
1.61357e-05
1.61237e-05
1.61252e-05
1.61277e-05
1.61279e-05
1.61275e-05
1.61273e-05
1.61273e-05
1.61273e-05
1.61272e-05
1.61271e-05
1.61269e-05
1.61266e-05
1.61261e-05
1.61254e-05
1.61245e-05
1.61234e-05
1.61221e-05
1.61206e-05
1.61187e-05
1.61161e-05
1.61126e-05
1.61085e-05
1.61049e-05
1.61019e-05
1.60984e-05
1.60942e-05
1.60891e-05
1.60839e-05
1.60779e-05
1.60734e-05
1.60732e-05
1.60795e-05
1.60799e-05
1.61143e-05
1.61188e-05
1.61339e-05
1.60654e-05
1.61995e-05
1.67661e-05
1.66373e-05
1.4564e-05
1.0174e-05
1.00008e-05
1e-05
1e-05
1e-05
0.000168872
0.000587062
0.00993565
0.0352248
0.0805972
0.140518
0.205009
0.264244
0.311542
0.343852
0.361371
0.364915
0.354253
0.322705
0.265337
0.186416
0.102798
0.0406227
0.00593349
0.00198659
2.59253e-05
1e-05
1e-05
1e-05
1.0002e-05
1.02647e-05
1.45305e-05
1.84136e-05
1.76388e-05
1.62831e-05
1.58801e-05
1.59973e-05
1.61328e-05
1.61559e-05
1.61357e-05
1.61256e-05
1.61268e-05
1.6129e-05
1.61292e-05
1.61288e-05
1.61287e-05
1.61287e-05
1.61286e-05
1.61285e-05
1.61281e-05
1.61276e-05
1.6127e-05
1.61261e-05
1.6125e-05
1.61237e-05
1.61222e-05
1.61203e-05
1.61177e-05
1.61142e-05
1.61101e-05
1.61064e-05
1.61032e-05
1.60997e-05
1.60954e-05
1.60903e-05
1.60849e-05
1.60787e-05
1.60738e-05
1.60731e-05
1.60793e-05
1.60796e-05
1.6115e-05
1.61207e-05
1.61385e-05
1.61346e-05
1.60803e-05
1.61325e-05
1.63922e-05
1.72414e-05
1.60719e-05
1.30764e-05
1.00015e-05
1e-05
1e-05
1e-05
1.00011e-05
5.715e-05
0.00232889
0.00859654
0.0316026
0.0738221
0.131376
0.195263
0.25547
0.304459
0.338414
0.356356
0.35836
0.34256
0.303001
0.238134
0.158341
0.082388
0.0297699
0.00262985
0.000961507
1.02974e-05
1e-05
1e-05
1e-05
1.0002e-05
1.03743e-05
1.51336e-05
1.85178e-05
1.73913e-05
1.61456e-05
1.58951e-05
1.60528e-05
1.61564e-05
1.6154e-05
1.61326e-05
1.61274e-05
1.61298e-05
1.61312e-05
1.61309e-05
1.61306e-05
1.61305e-05
1.61303e-05
1.613e-05
1.61296e-05
1.61289e-05
1.6128e-05
1.61269e-05
1.61256e-05
1.61241e-05
1.61222e-05
1.61197e-05
1.61162e-05
1.6112e-05
1.61081e-05
1.61048e-05
1.61012e-05
1.60969e-05
1.60916e-05
1.6086e-05
1.60797e-05
1.60743e-05
1.6073e-05
1.60791e-05
1.60792e-05
1.61156e-05
1.61227e-05
1.61277e-05
1.61327e-05
1.61271e-05
1.61065e-05
1.60968e-05
1.62851e-05
1.67793e-05
1.72702e-05
1.52799e-05
1.09588e-05
1.00045e-05
1e-05
1e-05
1e-05
1e-05
4.81999e-05
0.00203495
0.00742885
0.0294686
0.0707207
0.127789
0.191915
0.25291
0.302707
0.336789
0.3529
0.350785
0.326901
0.277358
0.206247
0.127574
0.0596039
0.0164306
0.000853496
0.000348595
1e-05
1e-05
1e-05
1e-05
1.00064e-05
1.14071e-05
1.71754e-05
1.83322e-05
1.67017e-05
1.59172e-05
1.59496e-05
1.61182e-05
1.61624e-05
1.61424e-05
1.61297e-05
1.61301e-05
1.61321e-05
1.61326e-05
1.61325e-05
1.61324e-05
1.61321e-05
1.61316e-05
1.61309e-05
1.61301e-05
1.6129e-05
1.61276e-05
1.61261e-05
1.61242e-05
1.61217e-05
1.61183e-05
1.61141e-05
1.611e-05
1.61065e-05
1.61028e-05
1.60984e-05
1.60931e-05
1.60873e-05
1.60808e-05
1.6075e-05
1.60729e-05
1.60788e-05
1.60789e-05
1.61162e-05
1.61247e-05
1.61257e-05
1.61281e-05
1.61271e-05
1.61179e-05
1.60906e-05
1.61675e-05
1.64172e-05
1.72018e-05
1.67894e-05
1.42157e-05
1.00857e-05
1.00004e-05
1e-05
1e-05
1e-05
1e-05
4.02712e-05
0.00202115
0.00740394
0.0295843
0.0712125
0.128916
0.193837
0.255365
0.304667
0.336628
0.347858
0.338496
0.304652
0.245874
0.170641
0.0947508
0.038217
0.00669273
0.0019899
1e-05
1e-05
1e-05
1e-05
1.00007e-05
1.01382e-05
1.44892e-05
1.86663e-05
1.75649e-05
1.61721e-05
1.5903e-05
1.60633e-05
1.61592e-05
1.61547e-05
1.61375e-05
1.6134e-05
1.61347e-05
1.61345e-05
1.6134e-05
1.61339e-05
1.61337e-05
1.61331e-05
1.61322e-05
1.61311e-05
1.61298e-05
1.61282e-05
1.61263e-05
1.61239e-05
1.61205e-05
1.61162e-05
1.6112e-05
1.61084e-05
1.61046e-05
1.61001e-05
1.60947e-05
1.60887e-05
1.6082e-05
1.60757e-05
1.60729e-05
1.60785e-05
1.60785e-05
1.61166e-05
1.61267e-05
1.61242e-05
1.61249e-05
1.61258e-05
1.61279e-05
1.6119e-05
1.61063e-05
1.60845e-05
1.62543e-05
1.66718e-05
1.73371e-05
1.60341e-05
1.15793e-05
1.00075e-05
1e-05
1e-05
1e-05
1e-05
1e-05
4.4541e-05
0.00226157
0.0083766
0.0319478
0.0754455
0.134933
0.20092
0.262082
0.308852
0.335875
0.340332
0.321278
0.276348
0.208696
0.131463
0.0629823
0.0192429
5.02586e-05
0.000133261
1e-05
1e-05
1e-05
1e-05
1.00063e-05
1.14023e-05
1.7477e-05
1.81525e-05
1.65448e-05
1.59121e-05
1.59952e-05
1.61289e-05
1.61475e-05
1.6134e-05
1.61336e-05
1.61377e-05
1.61381e-05
1.61367e-05
1.61357e-05
1.61352e-05
1.61345e-05
1.61334e-05
1.6132e-05
1.61304e-05
1.61286e-05
1.61262e-05
1.61229e-05
1.61186e-05
1.61142e-05
1.61104e-05
1.61064e-05
1.61019e-05
1.60964e-05
1.60902e-05
1.60832e-05
1.60766e-05
1.60729e-05
1.60782e-05
1.60781e-05
1.61169e-05
1.61287e-05
1.61241e-05
1.61243e-05
1.61246e-05
1.61255e-05
1.61264e-05
1.61247e-05
1.6111e-05
1.60858e-05
1.61259e-05
1.63452e-05
1.70717e-05
1.69745e-05
1.45307e-05
1.01102e-05
1.00005e-05
1e-05
1e-05
1e-05
1e-05
1e-05
0.000117136
0.000180583
0.0101895
0.036599
0.0835493
0.145813
0.212648
0.271899
0.314011
0.333321
0.328488
0.297522
0.240569
0.166164
0.0913017
0.0351136
0.00535981
0.00159193
1e-05
1e-05
1e-05
1e-05
1.00016e-05
1.03679e-05
1.56049e-05
1.85758e-05
1.7081e-05
1.60538e-05
1.60084e-05
1.61622e-05
1.61815e-05
1.61421e-05
1.61276e-05
1.61335e-05
1.61388e-05
1.61391e-05
1.61379e-05
1.61368e-05
1.61357e-05
1.61344e-05
1.61328e-05
1.61309e-05
1.61286e-05
1.61254e-05
1.61211e-05
1.61166e-05
1.61126e-05
1.61084e-05
1.61039e-05
1.60982e-05
1.60919e-05
1.60847e-05
1.60776e-05
1.60731e-05
1.60779e-05
1.60777e-05
1.6117e-05
1.61307e-05
1.61244e-05
1.61246e-05
1.61248e-05
1.6125e-05
1.61256e-05
1.61263e-05
1.61274e-05
1.61184e-05
1.61023e-05
1.6072e-05
1.6204e-05
1.65625e-05
1.74075e-05
1.57442e-05
1.23933e-05
1e-05
1e-05
1e-05
1e-05
1e-05
1e-05
1e-05
0.000170999
0.000281293
0.0132407
0.0446229
0.0963089
0.16172
0.228448
0.283592
0.318201
0.327148
0.310079
0.265307
0.197236
0.120745
0.0547015
0.0147168
0.00400892
4.68098e-05
1e-05
1e-05
1e-05
1.00001e-05
1.0018e-05
1.31548e-05
1.82293e-05
1.73969e-05
1.59279e-05
1.57523e-05
1.60561e-05
1.6209e-05
1.61883e-05
1.61468e-05
1.61355e-05
1.61382e-05
1.61401e-05
1.61396e-05
1.61383e-05
1.61369e-05
1.61353e-05
1.61334e-05
1.61311e-05
1.61279e-05
1.61237e-05
1.61191e-05
1.61149e-05
1.61106e-05
1.61059e-05
1.61001e-05
1.60936e-05
1.60862e-05
1.60787e-05
1.60733e-05
1.60775e-05
1.60773e-05
1.61171e-05
1.61326e-05
1.6125e-05
1.61252e-05
1.61254e-05
1.61256e-05
1.61258e-05
1.6126e-05
1.61269e-05
1.61277e-05
1.61264e-05
1.61117e-05
1.60874e-05
1.60932e-05
1.63541e-05
1.69292e-05
1.72959e-05
1.44631e-05
1.06306e-05
1.0003e-05
1e-05
1e-05
1e-05
1e-05
1e-05
1.00002e-05
0.000608173
0.00194835
0.0186603
0.0564125
0.114079
0.182202
0.246763
0.294662
0.317845
0.313682
0.280862
0.221278
0.14599
0.0740915
0.0251039
0.00298475
0.000735573
1e-05
1e-05
1e-05
1e-05
1.00065e-05
1.1542e-05
1.90998e-05
1.97207e-05
1.69726e-05
1.57747e-05
1.5815e-05
1.6072e-05
1.61682e-05
1.61611e-05
1.61453e-05
1.61414e-05
1.61416e-05
1.61411e-05
1.61398e-05
1.61381e-05
1.61362e-05
1.61339e-05
1.61308e-05
1.61266e-05
1.61221e-05
1.61177e-05
1.61131e-05
1.61082e-05
1.61024e-05
1.60957e-05
1.6088e-05
1.60802e-05
1.60739e-05
1.60771e-05
1.60768e-05
1.61166e-05
1.61346e-05
1.61255e-05
1.61257e-05
1.61259e-05
1.61261e-05
1.61263e-05
1.61265e-05
1.61267e-05
1.61273e-05
1.61282e-05
1.61292e-05
1.61223e-05
1.61023e-05
1.60723e-05
1.61966e-05
1.65803e-05
1.74164e-05
1.65439e-05
1.33986e-05
1.01995e-05
1.0001e-05
1e-05
1e-05
1e-05
1e-05
1e-05
1.0616e-05
0.00153749
0.00564277
0.0284415
0.0742329
0.138978
0.210314
0.272421
0.312471
0.322503
0.301518
0.249423
0.173999
0.0944575
0.0305146
0.00158261
0.00144169
0.000461149
0.000148398
1.22036e-05
1e-05
1e-05
1.00115e-05
1.23025e-05
1.8601e-05
1.83539e-05
1.66893e-05
1.6062e-05
1.60503e-05
1.61267e-05
1.61504e-05
1.61478e-05
1.61443e-05
1.6143e-05
1.61419e-05
1.61403e-05
1.61383e-05
1.6136e-05
1.61331e-05
1.6129e-05
1.61244e-05
1.61198e-05
1.6115e-05
1.611e-05
1.61042e-05
1.60973e-05
1.60894e-05
1.60812e-05
1.60743e-05
1.6077e-05
1.60764e-05
1.61172e-05
1.6136e-05
1.6126e-05
1.61262e-05
1.61265e-05
1.61267e-05
1.6127e-05
1.61273e-05
1.61275e-05
1.61278e-05
1.61281e-05
1.61291e-05
1.61301e-05
1.61308e-05
1.61161e-05
1.60957e-05
1.60796e-05
1.631e-05
1.6845e-05
1.74132e-05
1.63116e-05
1.32652e-05
1.01467e-05
1.00006e-05
1e-05
1e-05
1e-05
1e-05
1e-05
4.07636e-05
0.00173729
0.00593487
0.027608
0.0689377
0.12586
0.188127
0.242762
0.278769
0.28793
0.267601
0.219405
0.153447
0.0896882
0.0436359
0.0175885
0.00563302
0.00107509
0.000245612
1e-05
1e-05
1.00023e-05
1.0471e-05
1.38414e-05
1.6327e-05
1.6511e-05
1.6243e-05
1.61416e-05
1.61401e-05
1.61486e-05
1.61498e-05
1.61484e-05
1.61469e-05
1.61453e-05
1.61434e-05
1.61411e-05
1.61382e-05
1.61342e-05
1.61298e-05
1.6125e-05
1.61198e-05
1.61144e-05
1.61083e-05
1.61013e-05
1.60928e-05
1.60843e-05
1.60756e-05
1.6077e-05
1.60757e-05
1.61145e-05
1.61395e-05
)
;

boundaryField
{
    inlet
    {
        type            calculated;
        value           nonuniform List<scalar> 
27
(
1.6102e-05
1.61023e-05
1.61028e-05
1.61033e-05
1.61039e-05
1.61046e-05
1.61054e-05
1.61063e-05
1.61073e-05
1.61084e-05
1.61096e-05
1.61109e-05
1.61123e-05
1.61138e-05
1.61154e-05
1.6117e-05
1.61188e-05
1.61207e-05
1.61227e-05
1.61247e-05
1.61267e-05
1.61287e-05
1.61307e-05
1.61326e-05
1.61346e-05
1.6136e-05
1.61395e-05
)
;
    }
    outlet
    {
        type            calculated;
        value           nonuniform List<scalar> 
78
(
1.6126e-05
1.61262e-05
1.61265e-05
1.61267e-05
1.6127e-05
1.61273e-05
1.61275e-05
1.61278e-05
1.61281e-05
1.61291e-05
1.61301e-05
1.61308e-05
1.61161e-05
1.60957e-05
1.60796e-05
1.631e-05
1.6845e-05
1.74132e-05
1.63116e-05
1.32652e-05
1.01467e-05
1.00006e-05
1e-05
1e-05
1e-05
1e-05
1e-05
4.07636e-05
0.00173729
0.00593487
0.027608
0.0689377
0.12586
0.188127
0.242762
0.278769
0.28793
0.267601
0.219405
0.153447
0.0896882
0.0436359
0.0175885
0.00563302
0.00107509
0.000245612
1e-05
1e-05
1.00023e-05
1.0471e-05
1.38414e-05
1.6327e-05
1.6511e-05
1.6243e-05
1.61416e-05
1.61401e-05
1.61486e-05
1.61498e-05
1.61484e-05
1.61469e-05
1.61453e-05
1.61434e-05
1.61411e-05
1.61382e-05
1.61342e-05
1.61298e-05
1.6125e-05
1.61198e-05
1.61144e-05
1.61083e-05
1.61013e-05
1.60928e-05
1.60843e-05
1.60756e-05
1.6077e-05
1.60757e-05
1.61145e-05
1.61395e-05
)
;
    }
    walls
    {
        type            calculated;
        value           nonuniform List<scalar> 0();
    }
    frontAndBack
    {
        type            empty;
    }
    procBoundary7to3
    {
        type            processor;
        value           nonuniform List<scalar> 
16
(
1.52956e-05
1.80879e-05
1.63196e-05
1.60174e-05
1.61271e-05
1.6145e-05
1.61317e-05
1.61266e-05
1.61249e-05
1.61249e-05
1.6124e-05
1.61239e-05
1.61243e-05
1.61249e-05
1.61253e-05
1.61258e-05
)
;
    }
    procBoundary7to6
    {
        type            processor;
        value           nonuniform List<scalar> 
91
(
1.61018e-05
1.61021e-05
1.61021e-05
1.60834e-05
1.60834e-05
1.60814e-05
1.60814e-05
1.60724e-05
1.60746e-05
1.60746e-05
1.60771e-05
1.60729e-05
1.60729e-05
1.60897e-05
1.60859e-05
1.60817e-05
1.60817e-05
1.60989e-05
1.60961e-05
1.60935e-05
1.60935e-05
1.61113e-05
1.61092e-05
1.61064e-05
1.61031e-05
1.61031e-05
1.61177e-05
1.6117e-05
1.6116e-05
1.6115e-05
1.61137e-05
1.61137e-05
1.61203e-05
1.61203e-05
1.61202e-05
1.61202e-05
1.612e-05
1.61197e-05
1.61192e-05
1.61192e-05
1.61237e-05
1.61231e-05
1.61225e-05
1.61221e-05
1.61218e-05
1.61216e-05
1.61214e-05
1.61213e-05
1.61213e-05
1.61212e-05
1.61212e-05
1.61212e-05
1.61212e-05
1e-05
1e-05
1e-05
0.00123145
0.00478092
0.0288501
0.0763717
0.137273
0.199229
0.254665
0.300014
0.333834
0.356256
0.369068
0.374841
0.374646
0.360964
0.325353
0.262671
0.176817
0.0879541
0.0264828
0.000145734
5.44196e-05
1e-05
1e-05
1e-05
1.00044e-05
1.10656e-05
1.68998e-05
1.76417e-05
1.62978e-05
1.59643e-05
1.60884e-05
1.61486e-05
1.61348e-05
1.61232e-05
1.61232e-05
)
;
    }
}


// ************************************************************************* //
