/*--------------------------------*- C++ -*----------------------------------*\
| =========                 |                                                 |
| \\      /  F ield         | OpenFOAM: The Open Source CFD Toolbox           |
|  \\    /   O peration     | Version:  2506                                  |
|   \\  /    A nd           | Website:  www.openfoam.com                      |
|    \\/     M anipulation  |                                                 |
\*---------------------------------------------------------------------------*/
FoamFile
{
    version     2.0;
    format      ascii;
    arch        "LSB;label=32;scalar=64";
    class       volScalarField;
    location    "350";
    object      turbulenceProperties:k;
}
// * * * * * * * * * * * * * * * * * * * * * * * * * * * * * * * * * * * * * //

dimensions      [0 2 -2 0 0 0 0];

internalField   nonuniform List<scalar> 
1340
(
9.39442e-07
7.13881e-07
9.53146e-07
6.92291e-07
6.91651e-07
9.52847e-07
2.88876e-07
6.83404e-07
6.7693e-07
9.56763e-07
2.58115e-07
4.73878e-07
2.86174e-07
6.76301e-07
6.64387e-07
9.63221e-07
3.67371e-07
4.31568e-07
2.50354e-07
4.65151e-07
2.83377e-07
6.69884e-07
6.54238e-07
9.69777e-07
5.1818e-07
4.54854e-07
4.54843e-07
3.52649e-07
4.19533e-07
2.42209e-07
4.56629e-07
2.8066e-07
6.64373e-07
6.46945e-07
9.75914e-07
5.9868e-07
5.61767e-07
5.17143e-07
4.95582e-07
4.34468e-07
4.3792e-07
3.37703e-07
4.07376e-07
2.33801e-07
4.48502e-07
2.78006e-07
6.59896e-07
6.42341e-07
9.81516e-07
7.59782e-07
7.08024e-07
6.5841e-07
6.11315e-07
5.653e-07
5.32386e-07
4.90621e-07
4.72671e-07
4.13895e-07
4.20741e-07
3.22628e-07
3.95153e-07
2.2519e-07
4.40698e-07
2.7543e-07
6.56209e-07
6.39802e-07
9.87411e-07
9.61281e-07
9.05859e-07
8.52287e-07
8.00702e-07
7.51176e-07
7.03739e-07
6.58464e-07
6.14732e-07
5.73189e-07
5.31785e-07
5.0279e-07
4.63888e-07
4.49448e-07
3.93131e-07
4.03301e-07
3.07419e-07
3.82822e-07
2.16399e-07
4.33061e-07
2.72981e-07
6.53044e-07
6.38891e-07
9.92638e-07
1.21811e-06
1.16739e-06
1.11648e-06
1.06564e-06
1.01516e-06
9.65281e-07
9.16248e-07
8.68259e-07
8.21488e-07
7.76047e-07
7.32042e-07
6.89575e-07
6.48665e-07
6.09501e-07
5.71367e-07
5.35164e-07
4.98264e-07
4.73095e-07
4.37047e-07
4.26001e-07
3.72251e-07
3.85651e-07
2.92143e-07
3.7039e-07
2.07481e-07
4.25525e-07
2.70645e-07
6.50284e-07
6.40084e-07
9.978e-07
1.46263e-06
1.43896e-06
1.41362e-06
1.38652e-06
1.35758e-06
1.32678e-06
1.29416e-06
1.25981e-06
1.22385e-06
1.18648e-06
1.14784e-06
1.10815e-06
1.06764e-06
1.02652e-06
9.85072e-07
9.43471e-07
9.01981e-07
8.6081e-07
8.20163e-07
7.80219e-07
7.41121e-07
7.02969e-07
6.6584e-07
6.29839e-07
5.94963e-07
5.61501e-07
5.28641e-07
4.97522e-07
4.64989e-07
4.43516e-07
4.10295e-07
4.02487e-07
3.514e-07
3.67891e-07
2.76889e-07
3.57896e-07
1.98526e-07
4.18108e-07
2.68369e-07
6.47872e-07
6.42396e-07
1.00289e-06
7.93077e-09
4.84334e-10
0
0
4.036e-05
8.35929e-05
0.00695305
0.0878901
0.339665
0.751411
1.19086
1.49854
1.55127
1.29123
0.745323
0.0791731
0.717828
1.25837
1.42686
1.16745
0.652437
0.212469
0.0288368
0.000245035
2.91345e-05
0
0
0
2.68413e-08
3.63185e-07
1.39704e-06
1.56812e-06
1.37576e-06
1.29047e-06
1.28443e-06
1.27846e-06
1.26136e-06
1.24253e-06
1.2242e-06
1.20493e-06
1.18415e-06
1.16187e-06
1.13806e-06
1.11266e-06
1.08571e-06
1.0573e-06
1.02761e-06
9.96763e-07
9.64921e-07
9.32268e-07
8.99009e-07
8.65353e-07
8.31457e-07
7.9754e-07
7.63783e-07
7.30353e-07
6.97403e-07
6.65059e-07
6.33387e-07
6.02436e-07
5.7231e-07
5.42965e-07
5.14779e-07
4.86843e-07
4.60519e-07
4.32181e-07
4.14252e-07
3.83812e-07
3.79061e-07
3.30696e-07
3.50108e-07
2.61775e-07
3.45345e-07
1.89602e-07
4.10659e-07
2.66228e-07
6.45657e-07
6.45995e-07
1.00793e-06
7.9984e-07
1.55128e-08
1.03732e-09
0
0
7.51432e-08
0.000505114
0.000899426
0.0352613
0.192695
0.517806
0.927345
1.26975
1.40805
1.26237
0.832196
0.209534
0.487436
1.0364
1.27254
1.10854
0.665475
0.240954
0.0384474
0.000742135
6.15189e-05
0
0
0
9.58633e-09
1.16968e-07
1.05892e-06
1.36832e-06
1.19589e-06
1.08515e-06
1.06976e-06
1.06766e-06
1.05528e-06
1.04007e-06
1.02554e-06
1.0102e-06
9.93129e-07
9.74547e-07
9.54664e-07
9.33491e-07
9.11027e-07
8.87394e-07
8.62732e-07
8.37165e-07
8.10854e-07
7.83981e-07
7.56718e-07
7.29205e-07
7.01628e-07
6.74135e-07
6.46872e-07
6.19964e-07
5.93509e-07
5.67558e-07
5.42117e-07
5.17284e-07
4.92966e-07
4.69624e-07
4.46241e-07
4.24404e-07
4.00061e-07
3.85497e-07
3.57773e-07
3.55877e-07
3.10292e-07
3.32421e-07
2.46878e-07
3.3278e-07
1.80728e-07
4.03262e-07
2.64017e-07
6.43521e-07
6.49672e-07
1.01328e-06
8.27985e-07
7.02137e-07
6.08643e-08
3.59474e-09
0
0
0
0.000154388
0.000252482
0.0102248
0.0951413
0.329633
0.688584
1.04431
1.25127
1.20816
0.88819
0.351953
0.286316
0.832336
1.12224
1.04348
0.671194
0.265833
0.0490203
0.00170483
8.94025e-05
0
0
0
5.86484e-10
3.01566e-09
6.40117e-07
1.10563e-06
1.02582e-06
9.16004e-07
8.94783e-07
8.96385e-07
8.87162e-07
8.72381e-07
8.58866e-07
8.4612e-07
8.32237e-07
8.16761e-07
7.99989e-07
7.8213e-07
7.63278e-07
7.43528e-07
7.22975e-07
7.01778e-07
6.8009e-07
6.58069e-07
6.35843e-07
6.13564e-07
5.91358e-07
5.69356e-07
5.4765e-07
5.26333e-07
5.05405e-07
4.84874e-07
4.64801e-07
4.45033e-07
4.26127e-07
4.06949e-07
3.8926e-07
3.68736e-07
3.57338e-07
3.32281e-07
3.33003e-07
2.9027e-07
3.14833e-07
2.32282e-07
3.20245e-07
1.71974e-07
3.95558e-07
2.61674e-07
6.41967e-07
6.5351e-07
1.01893e-06
6.45385e-07
7.11652e-07
6.43618e-07
1.54368e-07
8.44108e-09
0
0
0
5.75258e-06
1.45595e-05
0.00166139
0.0392194
0.190473
0.483232
0.830843
1.08847
1.13445
0.91568
0.465824
0.120503
0.650877
0.980839
0.975227
0.668822
0.286435
0.0596476
0.00298586
0.000122969
0
0
0
3.90482e-12
3.15549e-08
4.35311e-07
8.85532e-07
8.79185e-07
7.65765e-07
7.31568e-07
7.40544e-07
7.43933e-07
7.34695e-07
7.21747e-07
7.09514e-07
6.97408e-07
6.84341e-07
6.70069e-07
6.54834e-07
6.3885e-07
6.22206e-07
6.05034e-07
5.87462e-07
5.69651e-07
5.51705e-07
5.3376e-07
5.15944e-07
4.98345e-07
4.81057e-07
4.64126e-07
4.47568e-07
4.31342e-07
4.15477e-07
3.99787e-07
3.84863e-07
3.69522e-07
3.55624e-07
3.3864e-07
3.30219e-07
3.07691e-07
3.10826e-07
2.70825e-07
2.97708e-07
2.17974e-07
3.07974e-07
1.62756e-07
3.88369e-07
2.58426e-07
6.40369e-07
6.57971e-07
1.02672e-06
5.64415e-07
5.60388e-07
6.27997e-07
5.73522e-07
2.71696e-07
1.45625e-08
3.08932e-12
0
0
2.06525e-09
0.000216046
0.000243865
0.0117064
0.0927107
0.303773
0.616803
0.909375
1.04258
0.930857
0.575172
0.0783362
0.469348
0.837489
0.906975
0.670623
0.314656
0.0755246
0.00495325
0.000112896
1.11052e-05
0
0
0
1.8745e-08
2.25781e-07
6.68916e-07
8.06153e-07
7.12879e-07
6.27511e-07
6.04943e-07
6.07858e-07
6.07425e-07
5.99444e-07
5.88618e-07
5.77663e-07
5.66484e-07
5.54605e-07
5.41941e-07
5.28684e-07
5.15045e-07
5.01074e-07
4.8695e-07
4.72777e-07
4.58657e-07
4.44726e-07
4.31042e-07
4.17705e-07
4.04698e-07
3.92086e-07
3.79774e-07
3.67753e-07
3.55844e-07
3.44598e-07
3.32817e-07
3.22509e-07
3.08903e-07
3.03292e-07
2.83378e-07
2.88612e-07
2.51692e-07
2.80224e-07
2.04321e-07
2.94953e-07
1.54796e-07
3.79951e-07
2.5606e-07
6.37733e-07
6.62022e-07
1.03163e-06
4.96815e-07
4.81834e-07
4.92074e-07
5.07824e-07
4.87751e-07
3.78294e-07
6.14843e-08
3.54614e-09
1.76545e-13
0
0
2.57074e-05
7.78836e-05
0.00111512
0.0228112
0.113947
0.310476
0.574035
0.794452
0.853373
0.688665
0.326034
0.143172
0.543985
0.744583
0.667966
0.402702
0.147725
0.0275945
0.000953131
0.00010093
2.19428e-06
0
0
2.28848e-10
1.13251e-08
1.08771e-07
4.21689e-07
5.79793e-07
5.55805e-07
5.00189e-07
4.77481e-07
4.7566e-07
4.74441e-07
4.68228e-07
4.59521e-07
4.50493e-07
4.41272e-07
4.31635e-07
4.21614e-07
4.11283e-07
4.00877e-07
3.90502e-07
3.80259e-07
3.70214e-07
3.60463e-07
3.51098e-07
3.42087e-07
3.33487e-07
3.25166e-07
3.1713e-07
3.0914e-07
3.01739e-07
2.93719e-07
2.87097e-07
2.7729e-07
2.74393e-07
2.57787e-07
2.64532e-07
2.32178e-07
2.60531e-07
1.91782e-07
2.78124e-07
1.48766e-07
3.62205e-07
2.44024e-07
6.09084e-07
6.28938e-07
9.58293e-07
4.19878e-07
4.12341e-07
4.14847e-07
4.1049e-07
4.07478e-07
4.27919e-07
3.82952e-07
2.45982e-07
4.24441e-09
3.01044e-10
0
0
2.51374e-08
1.03377e-05
0.000309508
0.000786147
0.0171648
0.0883117
0.247415
0.467994
0.65558
0.700736
0.54606
0.219427
0.179507
0.497459
0.611953
0.495145
0.266797
0.0868892
0.0137483
0.000229371
4.92987e-05
2.27985e-07
0
0
8.02516e-11
8.50233e-09
9.50903e-08
3.32413e-07
4.35549e-07
4.09729e-07
3.70918e-07
3.58284e-07
3.57892e-07
3.5571e-07
3.49929e-07
3.43009e-07
3.36136e-07
3.29187e-07
3.22054e-07
3.14917e-07
3.07867e-07
3.01083e-07
2.94611e-07
2.88543e-07
2.82959e-07
2.77819e-07
2.7319e-07
2.68873e-07
2.64892e-07
2.6093e-07
2.57491e-07
2.53399e-07
2.50562e-07
2.44665e-07
2.44663e-07
2.31463e-07
2.39983e-07
2.11902e-07
2.41114e-07
1.7808e-07
2.63595e-07
1.42284e-07
3.5268e-07
2.44691e-07
6.06533e-07
6.43479e-07
9.6631e-07
3.48657e-07
3.44203e-07
3.49323e-07
3.45985e-07
3.37621e-07
3.35262e-07
3.44975e-07
3.55914e-07
2.87564e-07
1.01182e-07
5.42804e-09
1.10049e-12
0
0
0
9.99153e-06
0.000289913
0.000532348
0.0142808
0.0760671
0.215761
0.408496
0.565484
0.585297
0.421165
0.113485
0.230353
0.4636
0.495711
0.352264
0.163893
0.043755
0.0045015
1.44188e-05
1.95072e-05
0
0
0
7.88803e-11
1.05092e-08
1.29138e-07
2.85978e-07
3.16628e-07
2.85797e-07
2.65483e-07
2.61901e-07
2.61372e-07
2.58028e-07
2.53028e-07
2.47918e-07
2.43066e-07
2.3838e-07
2.33885e-07
2.2982e-07
2.26235e-07
2.23225e-07
2.20854e-07
2.19096e-07
2.17956e-07
2.17234e-07
2.16921e-07
2.16629e-07
2.16792e-07
2.16256e-07
2.16834e-07
2.14398e-07
2.17051e-07
2.06965e-07
2.17168e-07
1.92839e-07
2.23151e-07
1.64785e-07
2.50674e-07
1.34712e-07
3.45254e-07
2.43087e-07
6.0757e-07
6.54149e-07
9.73308e-07
2.8273e-07
2.88277e-07
2.87206e-07
2.8216e-07
2.76782e-07
2.73909e-07
2.76753e-07
2.9267e-07
2.80288e-07
2.00604e-07
2.25119e-08
1.46047e-09
0
0
0
0
8.89547e-06
0.000276471
0.000541025
0.0138706
0.0722561
0.20095
0.371361
0.495743
0.482015
0.300695
0.0204525
0.271369
0.418476
0.384077
0.234024
0.0889315
0.0178758
0.000842413
6.2485e-05
2.17861e-09
0
0
0
3.03298e-09
3.11104e-08
1.5587e-07
2.21899e-07
2.13482e-07
1.92644e-07
1.85429e-07
1.84613e-07
1.82924e-07
1.79687e-07
1.76352e-07
1.73453e-07
1.71003e-07
1.6917e-07
1.67993e-07
1.67573e-07
1.67957e-07
1.69106e-07
1.70971e-07
1.7332e-07
1.76127e-07
1.78936e-07
1.82115e-07
1.84512e-07
1.87856e-07
1.88218e-07
1.9297e-07
1.85601e-07
1.97067e-07
1.76112e-07
2.07122e-07
1.53084e-07
2.39177e-07
1.27941e-07
3.39212e-07
2.40831e-07
6.10159e-07
6.59868e-07
9.797e-07
2.2861e-07
2.34222e-07
2.33832e-07
2.30921e-07
2.28276e-07
2.25131e-07
2.22333e-07
2.22702e-07
2.29385e-07
2.41489e-07
2.13225e-07
9.47096e-08
5.34667e-09
1.12536e-12
0
0
0
0
9.44329e-06
0.000274213
0.000781857
0.0154201
0.074761
0.197627
0.347356
0.435344
0.382757
0.184643
0.0829234
0.294212
0.360443
0.278078
0.138858
0.0400038
0.00486667
1.38429e-06
7.02901e-06
0
0
0
3.07171e-11
5.42132e-09
5.91668e-08
1.30253e-07
1.42154e-07
1.29439e-07
1.21566e-07
1.20311e-07
1.19884e-07
1.18634e-07
1.17403e-07
1.16833e-07
1.17136e-07
1.18303e-07
1.20396e-07
1.23449e-07
1.27345e-07
1.31995e-07
1.37108e-07
1.42619e-07
1.48066e-07
1.53741e-07
1.58516e-07
1.64004e-07
1.66538e-07
1.72799e-07
1.67777e-07
1.80054e-07
1.62177e-07
1.93346e-07
1.43589e-07
2.29243e-07
1.22923e-07
3.34262e-07
2.38531e-07
6.14034e-07
6.6069e-07
9.8711e-07
1.82072e-07
1.87022e-07
1.87065e-07
1.85183e-07
1.83593e-07
1.81706e-07
1.80417e-07
1.78093e-07
1.76572e-07
1.78504e-07
1.89887e-07
1.89008e-07
1.43961e-07
1.90018e-08
1.37337e-09
1.92423e-14
0
0
0
0
1.94944e-05
1.72032e-05
0.00134892
0.0190779
0.0829398
0.202523
0.329438
0.375647
0.282842
0.0750416
0.155139
0.293809
0.288292
0.180697
0.0690954
0.0132308
0.000510429
5.41291e-05
0
0
0
0
2.1036e-09
1.98432e-08
6.40494e-08
8.21054e-08
7.68443e-08
6.96602e-08
6.75191e-08
6.77835e-08
6.85981e-08
7.00785e-08
7.27428e-08
7.66614e-08
8.16692e-08
8.76002e-08
9.4271e-08
1.0151e-07
1.09039e-07
1.16745e-07
1.2424e-07
1.31769e-07
1.38264e-07
1.45191e-07
1.49205e-07
1.56293e-07
1.53106e-07
1.65736e-07
1.50544e-07
1.81392e-07
1.35606e-07
2.20388e-07
1.1871e-07
3.30009e-07
2.35599e-07
6.18211e-07
6.549e-07
9.96493e-07
1.53609e-07
1.57264e-07
1.57917e-07
1.56503e-07
1.55091e-07
1.54024e-07
1.53443e-07
1.52141e-07
1.50691e-07
1.48793e-07
1.49327e-07
1.53215e-07
1.64059e-07
1.43172e-07
8.64727e-08
2.55177e-10
4.09515e-11
0
0
0
0
6.33126e-09
2.54087e-05
1.66581e-05
0.00253563
0.0259234
0.0971349
0.212616
0.310767
0.309791
0.179957
0.0281811
0.203162
0.265615
0.205762
0.0994651
0.026337
0.00258877
3.62764e-06
2.76589e-06
0
0
0
3.18407e-10
1.13083e-09
1.10863e-08
1.64703e-08
1.99236e-08
2.063e-08
2.19255e-08
2.61874e-08
3.24371e-08
3.95834e-08
4.74111e-08
5.58556e-08
6.47307e-08
7.38241e-08
8.30266e-08
9.21482e-08
1.01182e-07
1.09835e-07
1.18386e-07
1.25845e-07
1.33451e-07
1.38298e-07
1.45584e-07
1.43793e-07
1.56253e-07
1.43582e-07
1.73363e-07
1.31772e-07
2.14457e-07
1.1796e-07
3.27699e-07
2.32074e-07
6.2341e-07
6.36845e-07
1.01611e-06
1.25656e-07
1.29471e-07
1.29865e-07
1.28548e-07
1.27352e-07
1.27086e-07
1.27285e-07
1.25726e-07
1.25383e-07
1.24881e-07
1.23459e-07
1.22672e-07
1.25291e-07
1.30785e-07
1.34672e-07
1.03762e-07
3.78572e-08
3.15427e-09
2.35501e-12
0
0
0
0
1.669e-08
7.86893e-05
3.34903e-05
0.00503837
0.0369176
0.116786
0.22283
0.282578
0.230522
0.073238
0.110125
0.219509
0.209484
0.12193
0.0404953
0.00593461
8.18468e-05
3.68539e-05
0
0
0
6.99631e-12
1.51058e-09
8.59313e-09
3.84125e-08
3.14762e-08
2.25245e-08
2.42042e-08
3.09708e-08
3.90667e-08
4.71303e-08
5.51181e-08
6.32826e-08
7.15814e-08
7.99407e-08
8.81636e-08
9.62852e-08
1.04093e-07
1.11844e-07
1.18686e-07
1.25547e-07
1.29882e-07
1.36143e-07
1.34532e-07
1.46038e-07
1.34695e-07
1.6319e-07
1.23768e-07
2.05417e-07
1.1066e-07
3.21622e-07
2.23078e-07
6.22529e-07
6.03639e-07
1.04839e-06
1.36332e-07
1.38282e-07
1.38098e-07
1.36628e-07
1.35232e-07
1.34282e-07
1.33724e-07
1.32252e-07
1.31281e-07
1.30151e-07
1.28392e-07
1.26844e-07
1.2568e-07
1.2537e-07
1.27123e-07
1.3277e-07
1.22441e-07
8.76061e-08
2.36791e-08
2.40686e-09
2.84203e-12
0
0
0
0
9.00501e-07
0.000154832
0.000357778
0.010397
0.0548043
0.144849
0.238829
0.257812
0.15916
0.0264226
0.169421
0.213076
0.151169
0.0617917
0.0106146
0.00015002
6.60149e-05
3.02701e-05
6.14034e-06
1.86899e-07
0
2.26267e-11
2.23628e-09
4.38722e-08
8.82866e-08
8.18515e-08
7.1231e-08
6.94604e-08
7.29901e-08
7.80816e-08
8.36074e-08
8.95126e-08
9.57925e-08
1.02269e-07
1.0885e-07
1.15379e-07
1.21998e-07
1.28031e-07
1.34013e-07
1.37834e-07
1.43149e-07
1.42058e-07
1.52161e-07
1.42795e-07
1.68487e-07
1.33068e-07
2.10107e-07
1.17897e-07
3.2775e-07
2.11624e-07
6.3416e-07
5.47814e-07
1.1607e-06
1.17235e-07
1.1802e-07
1.18249e-07
1.18693e-07
1.18985e-07
1.19281e-07
1.19874e-07
1.20593e-07
1.212e-07
1.21544e-07
1.21877e-07
1.22481e-07
1.23012e-07
1.23576e-07
1.24067e-07
1.26797e-07
1.31599e-07
1.3505e-07
1.23392e-07
9.32851e-08
2.41265e-08
2.14503e-09
0
0
0
0
0
5.79661e-06
0.000130972
0.000463773
0.00886784
0.0416701
0.102734
0.161019
0.165214
0.0918404
0.0268542
0.118373
0.135938
0.0914544
0.0386456
0.0099797
0.00131998
2.68758e-05
2.29479e-05
3.87642e-06
0
0
1.77196e-09
2.71706e-08
8.0752e-08
1.03549e-07
1.04046e-07
1.01903e-07
1.02049e-07
1.03588e-07
1.05585e-07
1.07784e-07
1.10126e-07
1.12559e-07
1.15018e-07
1.17648e-07
1.20033e-07
1.22564e-07
1.23239e-07
1.24797e-07
1.21242e-07
1.28199e-07
1.1761e-07
1.40742e-07
1.03196e-07
1.79564e-07
7.89472e-08
2.92416e-07
1.75189e-07
5.76967e-07
5.46646e-07
1.14592e-06
)
;

boundaryField
{
    inlet
    {
        type            calculated;
        value           nonuniform List<scalar> 
27
(
6.10499e-06
6.11306e-06
6.12789e-06
6.14756e-06
6.16848e-06
6.19015e-06
6.21318e-06
6.2374e-06
6.26269e-06
6.28812e-06
6.31358e-06
6.33859e-06
6.36264e-06
6.38518e-06
6.40558e-06
6.42321e-06
6.43828e-06
6.40761e-06
6.41165e-06
6.40998e-06
6.39943e-06
6.37895e-06
6.3458e-06
6.29858e-06
6.2307e-06
6.16311e-06
6.02632e-06
)
;
    }
    outlet
    {
        type            calculated;
        value           nonuniform List<scalar> 
78
(
9.5356e-08
9.64558e-08
9.68993e-08
9.76021e-08
9.81313e-08
9.86669e-08
9.95684e-08
1.00622e-07
1.01541e-07
1.02152e-07
1.02752e-07
1.03666e-07
1.04549e-07
1.05474e-07
1.06297e-07
1.08973e-07
1.13258e-07
1.16049e-07
1.05915e-07
8.08886e-08
2.1676e-08
2.01472e-09
0
0
0
0
0
5.82356e-06
0.000130666
0.000437471
0.00878845
0.041522
0.10261
0.161136
0.165778
0.0928221
0.0251243
0.117162
0.135232
0.0912085
0.038629
0.0100097
0.00133689
1.7738e-05
2.18934e-05
3.68709e-06
0
0
1.55137e-09
2.42106e-08
7.25988e-08
9.32535e-08
9.35547e-08
9.13195e-08
9.09836e-08
9.17314e-08
9.27365e-08
9.38026e-08
9.48936e-08
9.60053e-08
9.70908e-08
9.83859e-08
9.94077e-08
1.00821e-07
1.00147e-07
1.01211e-07
9.58963e-08
1.04489e-07
8.97546e-08
1.19667e-07
6.91671e-08
1.64594e-07
2.11352e-08
2.81463e-07
1.56889e-07
5.57582e-07
5.47972e-07
1.0847e-06
)
;
    }
    walls
    {
        type            calculated;
        value           nonuniform List<scalar> 0();
    }
    frontAndBack
    {
        type            empty;
    }
    procBoundary7to3
    {
        type            processor;
        value           nonuniform List<scalar> 
16
(
1.10945e-06
1.20097e-06
9.07884e-07
7.73721e-07
6.84416e-07
5.85287e-07
4.79966e-07
3.91644e-07
2.85365e-07
2.85365e-07
2.30251e-07
1.83596e-07
1.5511e-07
1.25931e-07
1.38972e-07
1.15525e-07
)
;
    }
    procBoundary7to6
    {
        type            processor;
        value           nonuniform List<scalar> 
91
(
9.37173e-07
7.37506e-07
7.37506e-07
7.06022e-07
7.06022e-07
2.91195e-07
2.91195e-07
2.65377e-07
4.82617e-07
4.82617e-07
3.81575e-07
4.43266e-07
4.43266e-07
5.40319e-07
4.74918e-07
4.71415e-07
4.71415e-07
6.31918e-07
5.90932e-07
5.4345e-07
5.4345e-07
8.16552e-07
7.57968e-07
7.02216e-07
6.49384e-07
6.49384e-07
1.05883e-06
9.93758e-07
9.31224e-07
8.71362e-07
8.14207e-07
8.14207e-07
1.38481e-06
1.32237e-06
1.26009e-06
1.19824e-06
1.13716e-06
1.07714e-06
1.01843e-06
1.01843e-06
1.72256e-06
1.69118e-06
1.6578e-06
1.62229e-06
1.5846e-06
1.54476e-06
1.50285e-06
1.45899e-06
1.41338e-06
1.36626e-06
1.31783e-06
1.26834e-06
1.26834e-06
6.25834e-13
0
8.7135e-09
0.000341444
0.00030352
0.0262057
0.181072
0.539266
1.02512
1.47415
1.72874
1.68084
1.29496
0.627385
0.217864
0.980201
1.50066
1.58651
1.22076
0.633105
0.183997
0.0210904
1.59943e-05
3.74089e-06
0
0
0
5.02703e-08
7.15564e-07
1.78556e-06
1.84317e-06
1.63222e-06
1.55616e-06
1.5468e-06
1.53187e-06
1.50843e-06
1.48521e-06
1.48521e-06
)
;
    }
}


// ************************************************************************* //
