/*--------------------------------*- C++ -*----------------------------------*\
| =========                 |                                                 |
| \\      /  F ield         | OpenFOAM: The Open Source CFD Toolbox           |
|  \\    /   O peration     | Version:  2506                                  |
|   \\  /    A nd           | Website:  www.openfoam.com                      |
|    \\/     M anipulation  |                                                 |
\*---------------------------------------------------------------------------*/
FoamFile
{
    version     2.0;
    format      ascii;
    arch        "LSB;label=32;scalar=64";
    class       volScalarField;
    location    "450";
    object      turbulenceProperties:nut;
}
// * * * * * * * * * * * * * * * * * * * * * * * * * * * * * * * * * * * * * //

dimensions      [0 2 -1 0 0 0 0];

internalField   nonuniform List<scalar> 
1340
(
2.5808e-05
2.95346e-05
3.45224e-05
4.0985e-05
4.93088e-05
6.00252e-05
7.38545e-05
9.11587e-05
0.000112975
0.000140349
0.000175234
0.000220745
0.000281312
0.000364892
0.000485067
0.000663861
0.000945881
0.00139526
0.00221739
0.00358938
0.00690147
0.0127114
0.0339122
0.0760487
0.0937402
0.0946681
0.0957027
0.0992315
0.102747
0.104486
0.104463
0.103214
0.100846
0.0974143
0.0927944
2.25824e-05
1.98037e-05
1.70736e-05
1.45837e-05
1.22497e-05
1.01071e-05
8.2445e-06
5.08548e-06
4.98033e-06
4.88546e-06
4.80683e-06
4.71662e-06
4.6338e-06
4.57245e-06
4.51875e-06
4.49564e-06
4.51593e-06
4.54347e-06
4.81844e-06
5.87875e-06
8.65252e-06
1.64108e-05
3.68042e-05
8.38956e-05
0.000162734
0.000315374
0.000588583
0.00132188
0.0028312
0.00711313
0.0205078
0.0395401
0.0633177
0.0925304
0.123661
0.148694
0.162652
0.167954
0.168783
0.1672
0.163851
0.159339
5.16908e-06
5.28233e-06
5.37884e-06
5.50984e-06
5.64413e-06
5.78001e-06
6.26616e-06
6.28349e-06
6.30147e-06
6.3208e-06
6.34449e-06
6.371e-06
6.40131e-06
6.43677e-06
6.47862e-06
6.52762e-06
6.58583e-06
6.65743e-06
6.73707e-06
6.87898e-06
6.88564e-06
6.5049e-06
4.67942e-06
3.91426e-06
4.7016e-07
9.75767e-05
0.000254947
5.42487e-06
0.00147385
0.000524366
0.00289823
0.00741592
0.0155424
0.0309678
0.0572748
0.0936878
0.132742
0.164471
0.184897
0.196744
0.203441
6.25289e-06
6.23387e-06
6.21932e-06
6.19774e-06
6.1792e-06
6.15928e-06
6.08613e-06
6.08373e-06
6.08313e-06
6.0835e-06
6.08442e-06
6.08709e-06
6.09198e-06
6.09872e-06
6.10877e-06
6.12237e-06
6.14033e-06
6.16384e-06
6.19448e-06
6.23305e-06
6.2844e-06
6.34632e-06
6.19878e-06
5.96965e-06
4.24921e-06
1.22312e-06
1.52226e-08
8.29409e-08
0
8.39843e-05
0.000604607
0.00157549
0.00336178
0.000202914
0.00343936
0.0133077
0.0355465
0.0727269
0.118803
0.161317
0.193212
6.0868e-06
6.08915e-06
6.09227e-06
6.09447e-06
6.09826e-06
6.11119e-06
6.11175e-06
6.11202e-06
6.11291e-06
6.11446e-06
6.11643e-06
6.1191e-06
6.12268e-06
6.12738e-06
6.13356e-06
6.14164e-06
6.15222e-06
6.1661e-06
6.18395e-06
6.20806e-06
6.23608e-06
6.2816e-06
6.28159e-06
6.52194e-06
6.35144e-06
4.83004e-06
1.87801e-06
1.82064e-08
1.18437e-09
0
0
0
9.67789e-06
0.000770037
0.00038213
0.0015808
0.00800159
0.0295925
0.0707142
0.124118
6.11124e-06
6.10986e-06
6.11056e-06
6.10951e-06
6.11039e-06
6.10507e-06
6.10485e-06
6.10514e-06
6.1054e-06
6.1055e-06
6.1059e-06
6.1065e-06
6.10727e-06
6.10849e-06
6.11018e-06
6.1125e-06
6.11572e-06
6.12008e-06
6.12598e-06
6.13411e-06
6.14498e-06
6.16051e-06
6.17057e-06
6.23467e-06
6.31432e-06
6.59374e-06
6.37429e-06
5.2592e-06
8.09756e-07
1.30696e-08
3.51479e-09
7.0695e-10
2.37701e-12
0
5.40106e-05
0.000351916
0.00182666
0.000393529
0.00875432
0.0380793
6.1046e-06
6.10391e-06
6.10482e-06
6.1046e-06
6.10531e-06
6.10553e-06
6.10569e-06
6.10573e-06
6.10586e-06
6.10595e-06
6.10612e-06
6.10646e-06
6.10694e-06
6.10765e-06
6.10869e-06
6.11015e-06
6.11221e-06
6.11509e-06
6.11904e-06
6.12463e-06
6.13212e-06
6.1399e-06
6.14855e-06
6.16416e-06
6.22591e-06
6.33341e-06
6.91353e-06
6.56185e-06
4.20715e-06
2.09611e-06
4.15985e-07
1.34538e-09
4.3095e-09
3.13753e-11
0
0
6.07138e-05
0.0020573
0.00167673
6.10484e-06
6.10378e-06
6.10417e-06
6.10385e-06
6.10488e-06
6.10502e-06
6.10531e-06
6.10529e-06
6.10511e-06
6.10498e-06
6.10482e-06
6.10466e-06
6.10461e-06
6.10462e-06
6.10471e-06
6.10494e-06
6.10531e-06
6.1059e-06
6.10679e-06
6.10816e-06
6.1102e-06
6.11263e-06
6.11472e-06
6.11965e-06
6.11862e-06
6.11739e-06
6.20674e-06
6.62542e-06
6.97546e-06
6.81082e-06
5.78686e-06
3.90753e-06
1.96613e-06
1.63746e-08
7.00659e-09
1.03825e-11
0
0
0.000385562
6.10429e-06
6.10315e-06
6.10315e-06
6.10273e-06
6.10481e-06
6.10494e-06
6.10509e-06
6.1049e-06
6.10472e-06
6.10444e-06
6.10421e-06
6.10409e-06
6.10396e-06
6.10391e-06
6.10393e-06
6.10403e-06
6.10426e-06
6.10466e-06
6.10528e-06
6.10623e-06
6.10766e-06
6.10955e-06
6.11129e-06
6.11348e-06
6.11505e-06
6.11326e-06
6.08754e-06
6.13295e-06
6.34478e-06
6.65663e-06
7.04937e-06
7.16254e-06
6.95662e-06
4.85941e-06
2.7376e-06
5.0544e-09
2.93061e-09
0
0
6.10424e-06
6.10298e-06
6.10263e-06
6.10417e-06
6.10388e-06
6.10358e-06
6.10335e-06
6.10314e-06
6.10296e-06
6.1028e-06
6.10269e-06
6.10261e-06
6.10255e-06
6.10253e-06
6.10252e-06
6.1026e-06
6.10269e-06
6.10287e-06
6.10342e-06
6.10507e-06
6.10799e-06
6.10282e-06
6.08458e-06
6.09142e-06
6.15663e-06
6.3221e-06
6.57526e-06
6.91187e-06
7.26319e-06
7.45263e-06
5.05654e-06
1.15266e-06
1.07143e-08
0
6.10302e-06
6.10282e-06
6.10263e-06
6.1025e-06
6.1024e-06
6.10234e-06
6.10232e-06
6.10236e-06
6.10246e-06
6.10267e-06
6.10299e-06
6.1035e-06
6.10408e-06
6.10458e-06
6.10513e-06
6.10627e-06
6.10777e-06
6.10367e-06
6.09309e-06
6.08542e-06
6.09252e-06
6.1382e-06
6.23162e-06
6.46796e-06
6.85837e-06
7.60145e-06
7.13977e-06
2.99984e-06
1.57689e-08
6.10214e-06
6.10201e-06
6.1019e-06
6.10182e-06
6.10175e-06
6.10173e-06
6.10172e-06
6.10176e-06
6.10184e-06
6.10197e-06
6.10219e-06
6.10259e-06
6.10316e-06
6.10399e-06
6.10539e-06
6.10659e-06
6.10546e-06
6.10165e-06
6.09494e-06
6.08892e-06
6.08247e-06
6.10524e-06
6.1675e-06
6.49373e-06
7.19658e-06
7.77768e-06
4.00262e-06
6.10166e-06
6.1016e-06
6.10155e-06
6.10152e-06
6.10152e-06
6.10154e-06
6.10161e-06
6.10171e-06
6.10189e-06
6.10214e-06
6.10246e-06
6.10284e-06
6.10333e-06
6.10406e-06
6.10512e-06
6.10617e-06
6.10692e-06
6.107e-06
6.1056e-06
6.09949e-06
6.08787e-06
6.06747e-06
6.0677e-06
6.24227e-06
6.79541e-06
8.52882e-06
6.10138e-06
6.10135e-06
6.10135e-06
6.10135e-06
6.10136e-06
6.1014e-06
6.10147e-06
6.10157e-06
6.10172e-06
6.10195e-06
6.10227e-06
6.10268e-06
6.10323e-06
6.10396e-06
6.10489e-06
6.10599e-06
6.10744e-06
6.10931e-06
6.11098e-06
6.10942e-06
6.10145e-06
6.07228e-06
6.04747e-06
6.07829e-06
6.66623e-06
6.10125e-06
6.10126e-06
6.10128e-06
6.10131e-06
6.10134e-06
6.10139e-06
6.10145e-06
6.10155e-06
6.10167e-06
6.10186e-06
6.1021e-06
6.10241e-06
6.10281e-06
6.10334e-06
6.10405e-06
6.10493e-06
6.10605e-06
6.10761e-06
6.10998e-06
6.11276e-06
6.11487e-06
6.11246e-06
6.07909e-06
6.10408e-06
5.63645e-06
6.10126e-06
6.1013e-06
6.10135e-06
6.10139e-06
6.10144e-06
6.10149e-06
6.10156e-06
6.10166e-06
6.1018e-06
6.10199e-06
6.10224e-06
6.10256e-06
6.10297e-06
6.10354e-06
6.10428e-06
6.1052e-06
6.10632e-06
6.10781e-06
6.11017e-06
6.11263e-06
6.12008e-06
6.10302e-06
6.16503e-06
5.8149e-06
6.10135e-06
6.10141e-06
6.10146e-06
6.10151e-06
6.10157e-06
6.10164e-06
6.10172e-06
6.10184e-06
6.10199e-06
6.10219e-06
6.10245e-06
6.10278e-06
6.10323e-06
6.10385e-06
6.10465e-06
6.10562e-06
6.10673e-06
6.10831e-06
6.10981e-06
6.11488e-06
6.11324e-06
6.12469e-06
6.18944e-06
6.10143e-06
6.1015e-06
6.10156e-06
6.10162e-06
6.10167e-06
6.10174e-06
6.10181e-06
6.10191e-06
6.10203e-06
6.1022e-06
6.10241e-06
6.10269e-06
6.10306e-06
6.10357e-06
6.10426e-06
6.10512e-06
6.10612e-06
6.10732e-06
6.10879e-06
6.10995e-06
6.11892e-06
6.08373e-06
6.31115e-06
6.10159e-06
6.10165e-06
6.10171e-06
6.10177e-06
6.10183e-06
6.1019e-06
6.10198e-06
6.10209e-06
6.10223e-06
6.1024e-06
6.10263e-06
6.10295e-06
6.10338e-06
6.10397e-06
6.10471e-06
6.10563e-06
6.10663e-06
6.10825e-06
6.10781e-06
6.11878e-06
6.0814e-06
6.24432e-06
6.10167e-06
6.10174e-06
6.10181e-06
6.10188e-06
6.10194e-06
6.10201e-06
6.10209e-06
6.10218e-06
6.1023e-06
6.10245e-06
6.10264e-06
6.1029e-06
6.10326e-06
6.10376e-06
6.1044e-06
6.10522e-06
6.10609e-06
6.10758e-06
6.10744e-06
6.11462e-06
6.09744e-06
6.15236e-06
6.10185e-06
6.10193e-06
6.102e-06
6.10207e-06
6.10214e-06
6.10222e-06
6.10231e-06
6.10242e-06
6.10255e-06
6.10271e-06
6.10293e-06
6.10324e-06
6.10366e-06
6.1042e-06
6.1049e-06
6.1057e-06
6.10688e-06
6.10753e-06
6.11042e-06
6.11005e-06
6.10405e-06
6.10195e-06
6.10204e-06
6.10211e-06
6.10219e-06
6.10227e-06
6.10235e-06
6.10243e-06
6.10253e-06
6.10266e-06
6.1028e-06
6.10299e-06
6.10326e-06
6.10362e-06
6.10409e-06
6.1047e-06
6.10542e-06
6.10634e-06
6.10746e-06
6.1081e-06
6.1139e-06
6.09442e-06
6.10215e-06
6.10224e-06
6.10232e-06
6.1024e-06
6.10249e-06
6.10258e-06
6.10267e-06
6.10279e-06
6.10292e-06
6.10309e-06
6.10332e-06
6.10363e-06
6.10404e-06
6.10457e-06
6.10523e-06
6.10598e-06
6.10715e-06
6.10736e-06
6.11264e-06
6.10031e-06
6.10226e-06
6.10236e-06
6.10245e-06
6.10254e-06
6.10263e-06
6.10272e-06
6.10282e-06
6.10293e-06
6.10305e-06
6.1032e-06
6.10341e-06
6.10368e-06
6.10404e-06
6.1045e-06
6.10509e-06
6.10576e-06
6.10678e-06
6.10727e-06
6.11034e-06
6.10685e-06
6.10237e-06
6.10248e-06
6.10258e-06
6.10268e-06
6.10278e-06
6.10287e-06
6.10297e-06
6.10308e-06
6.1032e-06
6.10334e-06
6.10352e-06
6.10377e-06
6.10408e-06
6.10449e-06
6.10501e-06
6.10563e-06
6.10646e-06
6.10725e-06
6.10876e-06
6.10983e-06
6.1026e-06
6.10271e-06
6.10282e-06
6.10293e-06
6.10303e-06
6.10313e-06
6.10325e-06
6.10336e-06
6.1035e-06
6.10366e-06
6.10388e-06
6.10416e-06
6.10452e-06
6.10498e-06
6.10555e-06
6.10626e-06
6.10713e-06
6.10802e-06
6.11016e-06
6.10272e-06
6.10285e-06
6.10296e-06
6.10308e-06
6.10319e-06
6.1033e-06
6.10342e-06
6.10354e-06
6.10367e-06
6.10383e-06
6.10402e-06
6.10428e-06
6.1046e-06
6.10501e-06
6.10552e-06
6.10614e-06
6.10697e-06
6.10774e-06
6.10956e-06
6.10284e-06
6.10297e-06
6.1031e-06
6.10322e-06
6.10334e-06
6.10346e-06
6.10359e-06
6.10371e-06
6.10384e-06
6.10399e-06
6.10418e-06
6.10441e-06
6.10471e-06
6.10508e-06
6.10554e-06
6.1061e-06
6.10684e-06
6.10762e-06
6.10895e-06
6.1031e-06
6.10324e-06
6.10337e-06
6.1035e-06
6.10363e-06
6.10376e-06
6.10389e-06
6.10402e-06
6.10417e-06
6.10435e-06
6.10456e-06
6.10483e-06
6.10517e-06
6.10559e-06
6.10611e-06
6.10677e-06
6.10754e-06
6.10859e-06
6.10323e-06
6.10337e-06
6.10352e-06
6.10366e-06
6.10379e-06
6.10393e-06
6.10407e-06
6.1042e-06
6.10435e-06
6.10452e-06
6.10473e-06
6.10498e-06
6.10529e-06
6.10567e-06
6.10615e-06
6.10675e-06
6.10748e-06
6.1084e-06
6.10335e-06
6.10351e-06
6.10366e-06
6.10381e-06
6.10396e-06
6.10411e-06
6.10425e-06
6.10439e-06
6.10454e-06
6.10471e-06
6.10491e-06
6.10514e-06
6.10543e-06
6.10579e-06
6.10623e-06
6.10678e-06
6.10745e-06
6.10831e-06
6.10364e-06
6.10381e-06
6.10396e-06
6.10412e-06
6.10428e-06
6.10443e-06
6.10458e-06
6.10473e-06
6.1049e-06
6.10509e-06
6.10532e-06
6.10559e-06
6.10593e-06
6.10633e-06
6.10684e-06
6.10746e-06
6.10827e-06
6.10377e-06
6.10395e-06
6.10412e-06
6.10429e-06
6.10445e-06
6.10462e-06
6.10477e-06
6.10493e-06
6.1051e-06
6.10529e-06
6.10551e-06
6.10577e-06
6.10608e-06
6.10646e-06
6.10694e-06
6.10751e-06
6.10827e-06
6.1039e-06
6.10409e-06
6.10427e-06
6.10445e-06
6.10463e-06
6.1048e-06
6.10496e-06
6.10513e-06
6.1053e-06
6.10549e-06
6.10571e-06
6.10596e-06
6.10626e-06
6.10662e-06
6.10706e-06
6.10759e-06
6.10422e-06
6.10442e-06
6.10461e-06
6.1048e-06
6.10498e-06
6.10515e-06
6.10532e-06
6.1055e-06
6.10569e-06
6.10591e-06
6.10615e-06
6.10644e-06
6.10679e-06
6.1072e-06
6.1077e-06
6.10436e-06
6.10457e-06
6.10477e-06
6.10497e-06
6.10516e-06
6.10534e-06
6.10552e-06
6.10571e-06
6.1059e-06
6.10612e-06
6.10636e-06
6.10664e-06
6.10697e-06
6.10737e-06
6.10784e-06
6.10449e-06
6.10471e-06
6.10492e-06
6.10513e-06
6.10534e-06
6.10553e-06
6.10572e-06
6.10591e-06
6.10611e-06
6.10633e-06
6.10657e-06
6.10685e-06
6.10717e-06
6.10755e-06
6.108e-06
6.10461e-06
6.10484e-06
6.10507e-06
6.10529e-06
6.10551e-06
6.10571e-06
6.10591e-06
6.10611e-06
6.10632e-06
6.10654e-06
6.10679e-06
6.10707e-06
6.10738e-06
6.10775e-06
6.10818e-06
6.10473e-06
6.10497e-06
6.10521e-06
6.10545e-06
6.10567e-06
6.10589e-06
6.1061e-06
6.10631e-06
6.10652e-06
6.10676e-06
6.10701e-06
6.10728e-06
6.10759e-06
6.10795e-06
6.10837e-06
6.10509e-06
6.10534e-06
6.10559e-06
6.10583e-06
6.10605e-06
6.10627e-06
6.10649e-06
6.10672e-06
6.10696e-06
6.10722e-06
6.1075e-06
6.10781e-06
6.10817e-06
6.10857e-06
6.10519e-06
6.10546e-06
6.10572e-06
6.10597e-06
6.10621e-06
6.10644e-06
6.10667e-06
6.10691e-06
6.10716e-06
6.10743e-06
6.10771e-06
6.10803e-06
6.10838e-06
6.10878e-06
6.10528e-06
6.10556e-06
6.10583e-06
6.1061e-06
6.10634e-06
6.10659e-06
6.10683e-06
6.10708e-06
6.10734e-06
6.10762e-06
6.10792e-06
6.10824e-06
6.10859e-06
6.10899e-06
6.10534e-06
6.10563e-06
6.10592e-06
6.1062e-06
6.10646e-06
6.10671e-06
6.10697e-06
6.10724e-06
6.10751e-06
6.1078e-06
6.1081e-06
6.10843e-06
6.1088e-06
6.10919e-06
6.10537e-06
6.10568e-06
6.10598e-06
6.10627e-06
6.10655e-06
6.10682e-06
6.10709e-06
6.10736e-06
6.10765e-06
6.10795e-06
6.10827e-06
6.10861e-06
6.10898e-06
6.10939e-06
6.1057e-06
6.10601e-06
6.10632e-06
6.10661e-06
6.10689e-06
6.10717e-06
6.10746e-06
6.10777e-06
6.10808e-06
6.10841e-06
6.10877e-06
6.10915e-06
6.10956e-06
6.10567e-06
6.106e-06
6.10632e-06
6.10662e-06
6.10692e-06
6.10722e-06
6.10753e-06
6.10785e-06
6.10818e-06
6.10852e-06
6.10889e-06
6.10929e-06
6.10561e-06
6.10595e-06
6.10629e-06
6.1066e-06
6.10691e-06
6.10723e-06
6.10755e-06
6.10789e-06
6.10823e-06
6.1086e-06
6.10898e-06
6.10939e-06
6.1055e-06
6.10586e-06
6.1062e-06
6.10653e-06
6.10686e-06
6.10719e-06
6.10753e-06
6.10788e-06
6.10824e-06
6.10863e-06
6.10903e-06
6.10945e-06
6.10533e-06
6.1057e-06
6.10606e-06
6.10641e-06
6.10675e-06
6.10709e-06
6.10745e-06
6.10782e-06
6.1082e-06
6.1086e-06
6.10902e-06
6.10947e-06
6.10548e-06
6.10586e-06
6.10622e-06
6.10657e-06
6.10694e-06
6.10731e-06
6.1077e-06
6.1081e-06
6.10852e-06
6.10896e-06
6.10943e-06
6.10519e-06
6.10559e-06
6.10596e-06
6.10633e-06
6.10671e-06
6.1071e-06
6.10751e-06
6.10793e-06
6.10837e-06
6.10883e-06
6.10932e-06
6.10483e-06
6.10523e-06
6.10562e-06
6.10601e-06
6.1064e-06
6.10681e-06
6.10724e-06
6.10768e-06
6.10814e-06
6.10862e-06
6.10913e-06
6.10437e-06
6.10479e-06
6.1052e-06
6.1056e-06
6.10601e-06
6.10644e-06
6.10688e-06
6.10734e-06
6.10783e-06
6.10833e-06
6.10886e-06
6.10382e-06
6.10426e-06
6.10468e-06
6.10509e-06
6.10552e-06
6.10597e-06
6.10643e-06
6.10691e-06
6.10742e-06
6.10794e-06
6.1085e-06
6.10317e-06
6.10362e-06
6.10406e-06
6.10449e-06
6.10493e-06
6.10539e-06
6.10588e-06
6.10638e-06
6.1069e-06
6.10745e-06
6.10242e-06
6.10288e-06
6.10333e-06
6.10377e-06
6.10423e-06
6.10471e-06
6.10521e-06
6.10573e-06
6.10628e-06
6.10685e-06
6.10204e-06
6.1025e-06
6.10295e-06
6.10343e-06
6.10392e-06
6.10444e-06
6.10498e-06
6.10554e-06
6.10613e-06
6.10109e-06
6.10156e-06
6.10203e-06
6.10252e-06
6.10303e-06
6.10356e-06
6.10411e-06
6.10469e-06
6.1053e-06
6.1e-06
6.10049e-06
6.10097e-06
6.10147e-06
6.102e-06
6.10255e-06
6.10313e-06
6.10373e-06
6.10436e-06
6.09872e-06
6.09921e-06
6.09971e-06
6.10023e-06
6.10078e-06
6.10136e-06
6.10196e-06
6.10259e-06
6.10324e-06
6.09713e-06
6.09763e-06
6.09814e-06
6.09868e-06
6.09925e-06
6.09986e-06
6.10049e-06
6.10116e-06
6.10186e-06
6.09518e-06
6.09568e-06
6.09619e-06
6.09674e-06
6.09734e-06
6.09796e-06
6.09863e-06
6.09934e-06
6.09294e-06
6.09342e-06
6.09392e-06
6.09447e-06
6.09506e-06
6.09569e-06
6.09637e-06
6.0971e-06
6.09056e-06
6.09101e-06
6.0915e-06
6.09202e-06
6.09259e-06
6.0932e-06
6.09387e-06
6.09458e-06
6.08858e-06
6.08904e-06
6.08954e-06
6.09008e-06
6.09066e-06
6.09129e-06
6.09197e-06
6.0861e-06
6.08654e-06
6.08701e-06
6.08753e-06
6.08809e-06
6.08869e-06
6.08934e-06
6.08348e-06
6.08391e-06
6.08438e-06
6.0849e-06
6.08546e-06
6.08606e-06
6.08671e-06
6.08095e-06
6.08137e-06
6.08184e-06
6.08235e-06
6.08292e-06
6.08354e-06
6.08419e-06
6.07863e-06
6.07902e-06
6.07944e-06
6.07992e-06
6.08046e-06
6.08103e-06
6.07632e-06
6.07665e-06
6.07702e-06
6.07744e-06
6.07792e-06
6.07842e-06
6.07399e-06
6.07427e-06
6.07458e-06
6.07494e-06
6.07536e-06
6.07578e-06
6.07183e-06
6.07202e-06
6.07225e-06
6.07251e-06
6.07284e-06
6.07316e-06
6.0706e-06
6.07064e-06
6.07069e-06
6.07075e-06
6.07087e-06
6.071e-06
6.07204e-06
6.07197e-06
6.07188e-06
6.07176e-06
6.07161e-06
6.07151e-06
6.07471e-06
6.07466e-06
6.07459e-06
6.07444e-06
6.07434e-06
6.0778e-06
6.07783e-06
6.07779e-06
6.07765e-06
6.07764e-06
6.08102e-06
6.08117e-06
6.08135e-06
6.08147e-06
6.08156e-06
6.08444e-06
6.08467e-06
6.08472e-06
6.08461e-06
6.08688e-06
6.08769e-06
6.08871e-06
6.08978e-06
6.09831e-06
6.09888e-06
6.09946e-06
6.09971e-06
)
;

boundaryField
{
    inlet
    {
        type            freestream;
        freestreamValue uniform 1e-05;
        value           nonuniform List<scalar> 4(6.09831e-06 6.09888e-06 6.09946e-06 6.09971e-06);
    }
    outlet
    {
        type            freestream;
        freestreamValue nonuniform List<scalar> 0();
        value           nonuniform List<scalar> 0();
    }
    walls
    {
        type            nutUSpaldingWallFunction;
        value           nonuniform List<scalar> 
42
(
0.00322601
0.0034524
0.00368872
0.00387634
0.00405219
0.00420683
0.0043273
0.00441983
0.00448689
0.00452662
0.00454632
0.00454453
0.00451587
0.00446256
0.00438034
0.00426715
0.00411653
0.00392205
0.00367028
0.0033499
0.0029442
0.00245301
0.00192328
0.00152455
0.00136086
0.00143216
0.00158943
0.00175279
0.00188568
0.00197355
0.00202075
0.0020375
0.00201932
0.00196921
0.00188445
0.00298579
0.00271395
0.00241517
0.0020455
0.00164353
0.00120845
0.0007699
)
;
    }
    frontAndBack
    {
        type            empty;
    }
    procBoundary5to0
    {
        type            processor;
        value           nonuniform List<scalar> 4(6.10473e-06 6.10423e-06 6.10295e-06 6.10231e-06);
    }
    procBoundary5to1
    {
        type            processor;
        value           nonuniform List<scalar> 
13
(
6.96115e-06
5.91116e-06
5.91116e-06
6.14154e-06
6.1003e-06
6.1003e-06
6.10918e-06
6.1063e-06
6.1063e-06
6.1055e-06
6.10435e-06
6.10204e-06
6.10204e-06
)
;
    }
    procBoundary5to4
    {
        type            processor;
        value           nonuniform List<scalar> 
95
(
6.10474e-06
6.10475e-06
6.10447e-06
6.10447e-06
6.10365e-06
6.10332e-06
6.10332e-06
6.10253e-06
6.10232e-06
6.10232e-06
6.10176e-06
6.10176e-06
6.10141e-06
6.10141e-06
6.10124e-06
6.10121e-06
6.10121e-06
6.10129e-06
6.10129e-06
6.10135e-06
6.10151e-06
6.10151e-06
6.10158e-06
6.10176e-06
6.10176e-06
6.10185e-06
6.10205e-06
6.10205e-06
6.10215e-06
6.10226e-06
6.10249e-06
6.10249e-06
6.1026e-06
6.10271e-06
6.10296e-06
6.10296e-06
6.10308e-06
6.10319e-06
6.10347e-06
6.10347e-06
6.10359e-06
6.10371e-06
6.10403e-06
6.10403e-06
6.10415e-06
6.10426e-06
6.10438e-06
6.10448e-06
6.10483e-06
6.10483e-06
6.10492e-06
6.10499e-06
6.10504e-06
6.10506e-06
6.10537e-06
6.10537e-06
6.10534e-06
6.10526e-06
6.10513e-06
6.10495e-06
6.10509e-06
6.10509e-06
6.10479e-06
6.10441e-06
6.10394e-06
6.10338e-06
6.10272e-06
6.10195e-06
6.10157e-06
6.10157e-06
6.1006e-06
6.09951e-06
6.09821e-06
6.09662e-06
6.09469e-06
6.09247e-06
6.09011e-06
6.08815e-06
6.08815e-06
6.08569e-06
6.08308e-06
6.08057e-06
6.07829e-06
6.07602e-06
6.07374e-06
6.07166e-06
6.07057e-06
6.0721e-06
6.07473e-06
6.07473e-06
6.07776e-06
6.08084e-06
6.08424e-06
6.08604e-06
6.09761e-06
)
;
    }
    procBoundary5to6
    {
        type            processor;
        value           nonuniform List<scalar> 
86
(
0.0869126
0.153838
0.206325
0.215353
0.175051
0.0932917
0.0217445
0.00542303
0
0
0
1.04876e-08
2.5032e-06
9.96676e-06
9.29889e-06
6.42957e-06
5.26398e-06
5.3073e-06
5.74181e-06
6.07605e-06
6.19466e-06
6.18548e-06
6.14613e-06
6.11947e-06
6.1095e-06
6.10823e-06
6.10917e-06
6.10978e-06
6.10979e-06
6.10955e-06
6.10931e-06
6.10915e-06
6.10907e-06
6.1083e-06
6.1083e-06
6.10836e-06
6.10846e-06
6.10858e-06
6.10873e-06
6.10889e-06
6.10908e-06
6.10927e-06
6.10947e-06
6.10967e-06
6.10986e-06
6.11004e-06
6.10971e-06
6.10971e-06
6.10983e-06
6.10991e-06
6.10994e-06
6.10992e-06
6.10983e-06
6.10967e-06
6.10942e-06
6.10908e-06
6.10803e-06
6.10803e-06
6.10745e-06
6.10675e-06
6.10594e-06
6.10502e-06
6.10393e-06
6.10259e-06
6.10008e-06
6.10008e-06
6.09787e-06
6.09534e-06
6.0927e-06
6.09003e-06
6.08739e-06
6.0849e-06
6.08166e-06
6.08166e-06
6.07898e-06
6.07626e-06
6.07354e-06
6.07117e-06
6.07139e-06
6.07421e-06
6.07753e-06
6.08166e-06
6.08489e-06
6.08489e-06
6.0905e-06
6.10004e-06
)
;
    }
}


// ************************************************************************* //
