/*--------------------------------*- C++ -*----------------------------------*\
| =========                 |                                                 |
| \\      /  F ield         | OpenFOAM: The Open Source CFD Toolbox           |
|  \\    /   O peration     | Version:  2506                                  |
|   \\  /    A nd           | Website:  www.openfoam.com                      |
|    \\/     M anipulation  |                                                 |
\*---------------------------------------------------------------------------*/
FoamFile
{
    version     2.0;
    format      ascii;
    arch        "LSB;label=32;scalar=64";
    class       volScalarField;
    location    "45";
    object      p;
}
// * * * * * * * * * * * * * * * * * * * * * * * * * * * * * * * * * * * * * //

dimensions      [0 2 -2 0 0 0 0];

internalField   nonuniform List<scalar> 
400
(
4.77355e-07
-0.000149577
-0.000531097
-0.00106522
-0.00172233
-0.00247907
-0.00316628
-0.00357661
-0.00354376
-0.00291401
-0.00153335
0.000626511
0.00325044
0.00551647
0.00654908
0.0059603
0.00405983
0.00221833
0.00118084
0.00110971
0.000117005
-5.64269e-05
-0.000373113
-0.000758381
-0.00123623
-0.00187658
-0.00268878
-0.00351942
-0.0040511
-0.00390917
-0.0028221
-0.000808646
0.001699
0.00397162
0.00514751
0.00478623
0.00316773
0.00144675
0.000665799
0.000753353
0.000534378
0.000265256
-7.46218e-05
-0.000554387
-0.00133712
-0.00256122
-0.00418636
-0.00593604
-0.00734288
-0.00787994
-0.00720476
-0.00541116
-0.00285006
-0.000157459
0.00183358
0.00248227
0.00177852
0.000578771
-0.00031866
-0.000319504
0.00114379
0.000735948
0.000191317
-0.000767705
-0.00242997
-0.004895
-0.00792539
-0.0110232
-0.0135839
-0.0150459
-0.0150763
-0.0137185
-0.0111871
-0.00793753
-0.00467094
-0.00213239
-0.000793065
-0.00062836
-0.00120978
-0.0018409
0.0015647
0.000960607
-2.57002e-05
-0.00190826
-0.00496118
-0.00909515
-0.0137846
-0.0183081
-0.02201
-0.0244253
-0.0252951
-0.0244996
-0.0221623
-0.0185703
-0.01416
-0.0095366
-0.00549387
-0.00286559
-0.00211727
-0.00393494
0.00126809
0.000428165
-0.0011957
-0.00426919
-0.00892106
-0.0147376
-0.0208682
-0.0264535
-0.0308828
-0.0338393
-0.0351948
-0.0348495
-0.032885
-0.0294466
-0.0246726
-0.0187804
-0.0123683
-0.00684712
-0.00431788
-0.00643186
-7.15299e-05
-0.00115918
-0.00348308
-0.00773116
-0.0137993
-0.0209043
-0.027949
-0.0340495
-0.0387115
-0.0417744
-0.0432455
-0.0431456
-0.0415405
-0.038497
-0.0339902
-0.0279014
-0.0203468
-0.0125675
-0.00775704
-0.00766458
-0.00246057
-0.00373794
-0.00665757
-0.0118093
-0.0188525
-0.026703
-0.0341344
-0.040325
-0.0449251
-0.0478999
-0.0493385
-0.0493367
-0.0479727
-0.0452918
-0.0412425
-0.0355888
-0.0280677
-0.0191882
-0.0117031
-0.0079021
-0.00552577
-0.00688725
-0.0101924
-0.0158772
-0.0234185
-0.0315467
-0.0390059
-0.0450709
-0.0495118
-0.0523698
-0.0537673
-0.0538116
-0.0525772
-0.0501202
-0.0464468
-0.0413946
-0.0345438
-0.0257107
-0.0165512
-0.00989305
-0.00869747
-0.0100326
-0.0134969
-0.0193615
-0.0270029
-0.0350924
-0.0424059
-0.0482974
-0.0526042
-0.055392
-0.0567786
-0.0568518
-0.0556751
-0.0533181
-0.0498581
-0.0452776
-0.0392557
-0.031239
-0.0221171
-0.0141918
-0.0114478
-0.0126842
-0.0160962
-0.0218488
-0.0292953
-0.0371611
-0.0442821
-0.0500431
-0.0542883
-0.057065
-0.0584671
-0.0585594
-0.0573929
-0.055043
-0.0516473
-0.0473306
-0.0420218
-0.0350694
-0.0269615
-0.0189905
-0.0134817
-0.0145336
-0.0177221
-0.0231009
-0.0301113
-0.0376271
-0.0445641
-0.0502827
-0.0545624
-0.0573979
-0.0588446
-0.0589476
-0.0577494
-0.0553267
-0.051869
-0.047614
-0.0427993
-0.0367452
-0.0297906
-0.0222131
-0.0147667
-0.0154823
-0.0182217
-0.023005
-0.0293889
-0.0364625
-0.043233
-0.0489974
-0.0534139
-0.0563856
-0.0579144
-0.0580231
-0.056749
-0.0541911
-0.0505642
-0.0461686
-0.0415966
-0.0360265
-0.0300116
-0.0227109
-0.0153996
-0.015645
-0.017664
-0.0215684
-0.0271232
-0.0336615
-0.040271
-0.0461543
-0.0508121
-0.0540158
-0.0556914
-0.0558338
-0.0544596
-0.0516968
-0.0478037
-0.0431666
-0.0384372
-0.0329399
-0.027939
-0.02015
-0.0155119
-0.0152344
-0.0162512
-0.0189523
-0.0234445
-0.0293338
-0.0357697
-0.0418325
-0.0468336
-0.050377
-0.0522826
-0.0524912
-0.0510437
-0.0480312
-0.043783
-0.0387397
-0.0335903
-0.0279702
-0.0241548
-0.0143446
-0.015223
-0.0145015
-0.014205
-0.0153427
-0.0185483
-0.0236808
-0.029925
-0.0362121
-0.0416477
-0.0456447
-0.0478983
-0.0482802
-0.0468144
-0.043571
-0.038918
-0.0333203
-0.0275651
-0.0216402
-0.0181067
-0.00389984
-0.0146202
-0.0135852
-0.011684
-0.011055
-0.0128955
-0.0172601
-0.02333
-0.0298744
-0.0358114
-0.0403632
-0.0430948
-0.0437811
-0.0424158
-0.0390318
-0.0339613
-0.0276018
-0.0207227
-0.0134134
-0.00697947
0.0158815
-0.0145598
-0.0126417
-0.00865774
-0.00626349
-0.00692578
-0.0107128
-0.0167088
-0.0235425
-0.030016
-0.0351892
-0.038516
-0.0396493
-0.0385362
-0.0351892
-0.0297548
-0.0222754
-0.0130134
-0.000940698
0.0163891
0.0568093
-0.01179
-0.0118364
-0.00577195
-0.0018522
-0.00183792
-0.00543675
-0.0115359
-0.018689
-0.0256636
-0.031406
-0.0353395
-0.0370343
-0.0363934
-0.0331422
-0.0271305
-0.0175906
-0.00334432
0.0201783
0.0603566
0.129538
-0.0295053
-0.0106491
-0.000676036
0.00298152
0.00235078
-0.00161572
-0.00798891
-0.0154569
-0.0227931
-0.0289191
-0.0332325
-0.03528
-0.0349255
-0.0317536
-0.0251337
-0.0128984
0.00924103
0.0508842
0.122568
0.225823
)
;

boundaryField
{
    movingWall
    {
        type            zeroGradient;
    }
    fixedWalls
    {
        type            zeroGradient;
    }
    frontAndBack
    {
        type            empty;
    }
}


// ************************************************************************* //
