/*--------------------------------*- C++ -*----------------------------------*\
| =========                 |                                                 |
| \\      /  F ield         | OpenFOAM: The Open Source CFD Toolbox           |
|  \\    /   O peration     | Version:  2506                                  |
|   \\  /    A nd           | Website:  www.openfoam.com                      |
|    \\/     M anipulation  |                                                 |
\*---------------------------------------------------------------------------*/
FoamFile
{
    version     2.0;
    format      ascii;
    arch        "LSB;label=32;scalar=64";
    class       surfaceScalarField;
    location    "45";
    object      phi;
}
// * * * * * * * * * * * * * * * * * * * * * * * * * * * * * * * * * * * * * //

dimensions      [0 3 -1 0 0 0 0];

oriented        oriented;

internalField   nonuniform List<scalar> 
760
(
1.54603e-05
-1.54647e-05
2.90454e-05
-1.35851e-05
3.06077e-05
-1.56226e-06
1.79864e-05
1.26213e-05
-1.23092e-05
3.02957e-05
-6.66144e-05
5.43052e-05
-0.000148109
8.1495e-05
-0.000248161
0.000100052
-0.000346724
9.85631e-05
-0.0004206
7.38753e-05
-0.000453101
3.25013e-05
-0.000434512
-1.85891e-05
-0.000359145
-7.53665e-05
-0.00023834
-0.000120805
-9.50089e-05
-0.000143331
3.34694e-05
-0.000128478
0.000107863
-7.43934e-05
0.000102656
5.20672e-06
4.5876e-05
5.67802e-05
4.5876e-05
1.22513e-05
-2.7716e-05
7.00763e-06
-8.34135e-06
-3.01074e-05
3.55528e-05
-0.000107964
9.04776e-05
-0.000231032
0.000153364
-0.000391339
0.000214612
-0.00056403
0.000254186
-0.000717954
0.000253976
-0.000830699
0.000211307
-0.000891266
0.000134443
-0.000894936
3.61714e-05
-0.000839427
-7.40985e-05
-0.000727852
-0.000186942
-0.000563477
-0.000285179
-0.000360625
-0.000346184
-0.000149652
-0.000339451
1.69108e-05
-0.000240956
8.51658e-05
-6.30483e-05
5.22842e-05
8.96618e-05
9.81602e-05
-1.29454e-05
-1.47705e-05
-6.35443e-05
4.22575e-05
-0.000162243
0.000134251
-0.000313108
0.000241343
-0.000503698
0.000343954
-0.000704318
0.000415232
-0.000883595
0.000433463
-0.00102353
0.00039391
-0.00111892
0.000306698
-0.00116899
0.000184519
-0.00116865
3.58231e-05
-0.00112313
-0.000119616
-0.00103045
-0.000279624
-0.00088516
-0.000430466
-0.000685243
-0.000546101
-0.00043954
-0.000585154
-0.000187854
-0.000492641
-8.97873e-06
-0.000241924
2.93292e-05
5.1354e-05
0.000127489
-4.99562e-05
3.51857e-05
-0.000155508
0.00014781
-0.000310662
0.000289405
-0.000505788
0.00043647
-0.000715101
0.000553267
-0.000908008
0.000608139
-0.00106433
0.000589782
-0.00117976
0.00050934
-0.00125709
0.00038403
-0.00129982
0.000227245
-0.00130649
4.24928e-05
-0.00128285
-0.000143251
-0.00122511
-0.000337368
-0.00112306
-0.000532517
-0.00096358
-0.000705576
-0.000734205
-0.000814529
-0.000438744
-0.000788102
-0.000137712
-0.000542956
1.19331e-05
-9.82915e-05
0.000139423
-8.57852e-05
0.000120971
-0.000234982
0.000297007
-0.000421048
0.00047547
-0.000624667
0.000640089
-0.000817928
0.000746527
-0.000978631
0.000768843
-0.00109906
0.00071021
-0.00118182
0.000592104
-0.00123312
0.000435327
-0.00126026
0.000254382
-0.00127231
5.4545e-05
-0.00126804
-0.000147516
-0.00124651
-0.000358898
-0.00119976
-0.000579266
-0.00110912
-0.000796217
-0.000945794
-0.000977859
-0.000679918
-0.00105398
-0.000321393
-0.00090148
-2.62108e-05
-0.000393474
0.000113212
-0.000108017
0.000228988
-0.000276777
0.000465766
-0.000465056
0.000663749
-0.00064983
0.000824864
-0.000808777
0.000905475
-0.000928776
0.000888842
-0.00100934
0.000790776
-0.00105696
0.000639717
-0.00108067
0.00045904
-0.00109053
0.000264243
-0.00109872
6.27337e-05
-0.00110406
-0.000142179
-0.00110806
-0.000354892
-0.00110775
-0.000579574
-0.00108767
-0.000816303
-0.00101502
-0.00105051
-0.000840437
-0.00122856
-0.000522545
-0.00121937
-0.000115566
-0.000800452
-2.35479e-06
-0.000110283
0.000339271
-0.000274045
0.000629528
-0.000442822
0.000832527
-0.000595519
0.00097756
-0.000716165
0.00102612
-0.000798455
0.000971132
-0.000846072
0.000838393
-0.000867692
0.000661337
-0.000873715
0.000465063
-0.000873948
0.000264476
-0.00087677
6.55559e-05
-0.000884123
-0.000134826
-0.000897973
-0.000341042
-0.000919407
-0.00055814
-0.000942622
-0.000793088
-0.00094431
-0.00104882
-0.000872493
-0.00130037
-0.000651599
-0.00144027
-0.000241487
-0.00121056
-0.000243842
-9.28547e-05
0.000432125
-0.000233124
0.000769798
-0.00037104
0.000970443
-0.00048827
0.00109479
-0.000574705
0.00111256
-0.000628578
0.00102501
-0.000655528
0.000865343
-0.000664644
0.000670453
-0.000665613
0.000466031
-0.000665856
0.000264718
-0.000669079
6.87787e-05
-0.000677048
-0.000126856
-0.0006919
-0.000326191
-0.000716676
-0.000533364
-0.000752986
-0.000756778
-0.000791515
-0.00101029
-0.000791058
-0.00130083
-0.000669856
-0.00156147
-0.000357354
-0.00152307
-0.000601195
-6.19743e-05
0.0004941
-0.000167555
0.000875379
-0.000270283
0.00107317
-0.000353676
0.00117818
-0.000412147
0.00117103
-0.000446644
0.0010595
-0.000463002
0.000881701
-0.000469075
0.000676527
-0.000472169
0.000469125
-0.000476744
0.000269293
-0.000483874
7.59088e-05
-0.000494251
-0.000116479
-0.000508903
-0.000311539
-0.00053073
-0.000511537
-0.000565229
-0.00072228
-0.000613605
-0.000961915
-0.000653735
-0.0012607
-0.000611351
-0.00160385
-0.000391339
-0.00174308
-0.000992534
-2.29951e-05
0.000517095
-8.86301e-05
0.000941014
-0.000155403
0.00113994
-0.000208015
0.00123079
-0.000243654
0.00120667
-0.000264711
0.00108056
-0.000275989
0.00089298
-0.000282831
0.000683368
-0.00028976
0.000476054
-0.000299028
0.000278561
-0.000310925
8.78058e-05
-0.000325443
-0.00010196
-0.000342635
-0.000294347
-0.000363777
-0.000490396
-0.00039404
-0.000692017
-0.000441599
-0.000914356
-0.00050092
-0.00120138
-0.000511477
-0.0015933
-0.000355241
-0.00189931
-0.00134778
1.63276e-05
0.000500767
-6.837e-06
0.000964178
-3.99275e-05
0.00117303
-6.48441e-05
0.00125571
-8.01486e-05
0.00122197
-8.89383e-05
0.00108935
-9.51657e-05
0.000899207
-0.000102035
0.000690238
-0.000111222
0.000485241
-0.000123498
0.000290837
-0.000139093
0.000103401
-0.000158223
-8.28298e-05
-0.000180781
-0.00027179
-0.000206616
-0.000464561
-0.000238579
-0.000660054
-0.000286011
-0.000866924
-0.000355171
-0.00113222
-0.00040212
-0.00154635
-0.000302303
-0.00199913
-0.00165008
4.98336e-05
0.000450934
6.95576e-05
0.000944454
7.38716e-05
0.00116872
7.74491e-05
0.00125213
8.1975e-05
0.00121744
8.48887e-05
0.00108644
8.41897e-05
0.000899906
7.90448e-05
0.000695383
6.96082e-05
0.000494678
5.60873e-05
0.000304358
3.80224e-05
0.000121466
1.47943e-05
-5.96017e-05
-1.38095e-05
-0.000243186
-4.84525e-05
-0.000429917
-8.96573e-05
-0.000618849
-0.000142031
-0.00081455
-0.000220299
-0.00105395
-0.000295525
-0.00147112
-0.000246168
-0.00204849
-0.00189625
7.52057e-05
0.000375728
0.000134728
0.000884932
0.000173865
0.00112958
0.000206718
0.00121928
0.000233969
0.00119019
0.000252544
0.00106786
0.000261581
0.000890869
0.000262156
0.000694808
0.000255728
0.000501105
0.000243071
0.000317015
0.00022352
0.000141017
0.000195687
-3.17682e-05
0.000159522
-0.000207021
0.000114517
-0.000384912
6.01626e-05
-0.000564494
-8.83436e-06
-0.000745553
-9.62354e-05
-0.000966552
-0.000192557
-0.0013748
-0.000192825
-0.00204822
-0.00208907
8.65614e-05
0.000289167
0.000180088
0.000791405
0.00025399
0.00105568
0.000317888
0.00115538
0.000372491
0.00113559
0.000413426
0.00102693
0.00043906
0.000865236
0.000450794
0.000683074
0.000450994
0.000500905
0.000441261
0.000326747
0.000421457
0.000160821
0.000388658
1.03056e-06
0.000344419
-0.000162783
0.000286413
-0.000326906
0.000214636
-0.000492716
0.000130803
-0.00066172
2.57056e-05
-0.000861455
-9.67212e-05
-0.00125237
-0.00014315
-0.00200179
-0.00223222
8.015e-05
0.000209017
0.000194356
0.000677199
0.000298229
0.000951807
0.000395271
0.00105834
0.000482731
0.00104813
0.000553968
0.000955688
0.00060503
0.000814174
0.000636216
0.000651888
0.000649682
0.000487439
0.000647339
0.000329091
0.000629142
0.000179019
0.00059462
3.55518e-05
0.000540888
-0.00010905
0.000468387
-0.000254405
0.000376317
-0.000400647
0.000267503
-0.000552906
0.000137706
-0.000731658
-1.61776e-05
-0.00109849
-9.18575e-05
-0.00192611
-0.00232408
5.73903e-05
0.000151626
0.000174962
0.000559628
0.000308304
0.000818466
0.000442984
0.000923662
0.000569259
0.000921854
0.000677254
0.000847694
0.0007604
0.000731028
0.000817431
0.000594857
0.000849633
0.000455236
0.000858773
0.000319951
0.000845573
0.000192219
0.000809823
7.13016e-05
0.000747179
-4.64059e-05
0.000659301
-0.000166528
0.000544892
-0.000286237
0.000408041
-0.000416056
0.00025568
-0.000579296
9.45918e-05
-0.000937401
-1.4955e-05
-0.00181656
-0.00233904
1.50033e-05
0.000136623
0.000103217
0.000471414
0.000250391
0.000671292
0.00042207
0.000751983
0.000593809
0.000750115
0.000746871
0.000694632
0.000870975
0.000606924
0.00096315
0.000502682
0.00102293
0.000395454
0.00105155
0.000291331
0.00104964
0.00019413
0.00101781
0.000103134
0.00095172
1.96825e-05
0.000853173
-6.79808e-05
0.000721437
-0.000154501
0.000561578
-0.000256197
0.000389492
-0.00040721
0.000223076
-0.000770985
6.49309e-05
-0.00165842
-0.0022741
-5.1578e-05
0.000188201
1.97967e-05
0.000400039
0.000174745
0.000516343
0.000380453
0.000546275
0.0005954
0.000535169
0.000791017
0.000499015
0.000953644
0.000444297
0.00107916
0.000377165
0.00116583
0.000308788
0.00121534
0.000241817
0.00122813
0.000181339
0.00120623
0.000125035
0.00115186
7.40532e-05
0.00106237
2.15043e-05
0.00093819
-3.03154e-05
0.000786328
-0.000104335
0.000625358
-0.000246241
0.000444931
-0.000590557
0.000205254
-0.00141874
-0.00206885
-0.000417774
0.000605975
-0.000364131
0.000346397
-0.000125038
0.00027725
0.000154251
0.000266986
0.000427625
0.000261794
0.000680531
0.00024611
0.00090172
0.000223108
0.00108521
0.000193671
0.00122922
0.000164778
0.00133647
0.000134567
0.00140869
0.000109123
0.00145033
8.33972e-05
0.00146023
6.41482e-05
0.00143942
4.23189e-05
0.00138707
2.20283e-05
0.00130473
-2.19868e-05
0.00119137
-0.00013288
0.00101089
-0.000410079
0.000563643
-0.000971499
-0.00150521
0.000605975
0.000952371
0.00122962
0.00149661
0.0017584
0.00200451
0.00222762
0.00242129
0.00258607
0.00272063
0.00282976
0.00291316
0.0029773
0.00301962
0.00304165
0.00301966
0.00288678
0.00247671
0.00150521
)
;

boundaryField
{
    movingWall
    {
        type            calculated;
        value           uniform 0;
    }
    fixedWalls
    {
        type            calculated;
        value           uniform 0;
    }
    frontAndBack
    {
        type            empty;
    }
}


// ************************************************************************* //
