/*--------------------------------*- C++ -*----------------------------------*\
| =========                 |                                                 |
| \\      /  F ield         | OpenFOAM: The Open Source CFD Toolbox           |
|  \\    /   O peration     | Version:  2506                                  |
|   \\  /    A nd           | Website:  www.openfoam.com                      |
|    \\/     M anipulation  |                                                 |
\*---------------------------------------------------------------------------*/
FoamFile
{
    version     2.0;
    format      ascii;
    arch        "LSB;label=32;scalar=64";
    class       volVectorField;
    location    "45";
    object      U;
}
// * * * * * * * * * * * * * * * * * * * * * * * * * * * * * * * * * * * * * //

dimensions      [0 1 -1 0 0 0 0];

internalField   nonuniform List<vector> 
400
(
(0.00166686 -0.00167148 0)
(0.00479078 -0.00187657 0)
(0.00651678 -0.00119187 0)
(0.00559301 -0.000569116 0)
(0.00149919 0.000189449 0)
(-0.00686738 0.00173801 0)
(-0.0205762 0.00476088 0)
(-0.0394069 0.00868008 0)
(-0.0605743 0.01123 0)
(-0.0788466 0.0104757 0)
(-0.0895334 0.0067727 0)
(-0.0902495 0.00169456 0)
(-0.0801239 -0.00357037 0)
(-0.060018 -0.00822209 0)
(-0.0336647 -0.0108019 0)
(-0.0055192 -0.00977331 0)
(0.0164747 -0.00480128 0)
(0.0242754 0.00273191 0)
(0.016092 0.00642879 0)
(0.00430209 0.00469505 0)
(0.0016932 -0.00501013 0)
(0.00308745 -0.00397323 0)
(-0.000514515 0.000612293 0)
(-0.0113966 0.0064303 0)
(-0.0313969 0.0139925 0)
(-0.0609583 0.023649 0)
(-0.0964716 0.0328787 0)
(-0.130943 0.0369118 0)
(-0.15838 0.0333956 0)
(-0.1755 0.0233639 0)
(-0.180891 0.00915574 0)
(-0.1746 -0.00687455 0)
(-0.157202 -0.023006 0)
(-0.129428 -0.0367278 0)
(-0.0935359 -0.0444013 0)
(-0.0522557 -0.0417428 0)
(-0.0115577 -0.0263522 0)
(0.0166958 -0.00139421 0)
(0.0177608 0.0160968 0)
(0.00552254 0.0147468 0)
(-0.00026517 -0.00567622 0)
(-0.00542839 0.000891105 0)
(-0.0196234 0.0142866 0)
(-0.0444017 0.0311032 0)
(-0.0800414 0.0491933 0)
(-0.121686 0.0639892 0)
(-0.161653 0.0702126 0)
(-0.194453 0.0657629 0)
(-0.217973 0.0520345 0)
(-0.23162 0.0315066 0)
(-0.235402 0.00652062 0)
(-0.229979 -0.0208898 0)
(-0.215662 -0.0485582 0)
(-0.191945 -0.0728709 0)
(-0.158561 -0.0886951 0)
(-0.115471 -0.0889975 0)
(-0.064479 -0.0669658 0)
(-0.0139043 -0.0228138 0)
(0.00941341 0.0177174 0)
(0.00415309 0.0234619 0)
(-0.00347084 0.000573053 0)
(-0.0174747 0.017284 0)
(-0.0433669 0.0413529 0)
(-0.0793384 0.0678587 0)
(-0.122377 0.0906941 0)
(-0.165061 0.103345 0)
(-0.200977 0.102453 0)
(-0.228186 0.089331 0)
(-0.246949 0.0671294 0)
(-0.25787 0.0385494 0)
(-0.261788 0.00546473 0)
(-0.259507 -0.0307969 0)
(-0.250961 -0.0679987 0)
(-0.235105 -0.103205 0)
(-0.209945 -0.13095 0)
(-0.172779 -0.142441 0)
(-0.121054 -0.125507 0)
(-0.0567442 -0.0708693 0)
(-0.00103982 0.00334494 0)
(0.00473997 0.0280928 0)
(-0.00663389 0.0148512 0)
(-0.0285932 0.0440241 0)
(-0.0629718 0.0767522 0)
(-0.10391 0.108368 0)
(-0.146499 0.130552 0)
(-0.183622 0.137549 0)
(-0.211827 0.128944 0)
(-0.231502 0.108321 0)
(-0.243938 0.0795408 0)
(-0.250865 0.0453904 0)
(-0.253973 0.00740366 0)
(-0.254194 -0.0336172 0)
(-0.251303 -0.0765224 0)
(-0.244742 -0.120002 0)
(-0.231695 -0.160094 0)
(-0.207542 -0.188355 0)
(-0.166243 -0.18946 0)
(-0.103125 -0.142631 0)
(-0.0221765 -0.0389835 0)
(0.00734291 0.0269276 0)
(-0.00845798 0.0348225 0)
(-0.0349658 0.0763714 0)
(-0.07266 0.114401 0)
(-0.112596 0.146948 0)
(-0.149659 0.16521 0)
(-0.178376 0.165189 0)
(-0.197778 0.149086 0)
(-0.209407 0.121974 0)
(-0.215251 0.0882027 0)
(-0.217797 0.0507596 0)
(-0.219028 0.0111091 0)
(-0.219956 -0.0303387 0)
(-0.220783 -0.0740703 0)
(-0.221598 -0.12048 0)
(-0.220195 -0.168358 0)
(-0.211467 -0.212214 0)
(-0.187326 -0.237847 0)
(-0.13919 -0.217996 0)
(-0.0626185 -0.118737 0)
(0.00578026 0.0140742 0)
(-0.00822955 0.056804 0)
(-0.0350962 0.109548 0)
(-0.0713618 0.149746 0)
(-0.106388 0.180254 0)
(-0.135856 0.192908 0)
(-0.156135 0.185574 0)
(-0.167916 0.162521 0)
(-0.173312 0.129887 0)
(-0.174735 0.0924456 0)
(-0.174703 0.0532202 0)
(-0.174746 0.0134487 0)
(-0.175556 -0.0268327 0)
(-0.177684 -0.0687895 0)
(-0.181663 -0.11373 0)
(-0.186826 -0.162785 0)
(-0.189514 -0.214801 0)
(-0.181811 -0.260769 0)
(-0.153723 -0.274433 0)
(-0.0989948 -0.205404 0)
(-0.00889012 -0.014704 0)
(-0.00607947 0.0772422 0)
(-0.0295608 0.139909 0)
(-0.0609838 0.180303 0)
(-0.0892717 0.207254 0)
(-0.111142 0.213824 0)
(-0.124561 0.199565 0)
(-0.131111 0.170436 0)
(-0.133095 0.133414 0)
(-0.132977 0.0935075 0)
(-0.132722 0.053445 0)
(-0.133037 0.0139502 0)
(-0.134116 -0.025363 0)
(-0.136425 -0.0655481 0)
(-0.140656 -0.107869 0)
(-0.147407 -0.154339 0)
(-0.155335 -0.207325 0)
(-0.158414 -0.264834 0)
(-0.14626 -0.307239 0)
(-0.111868 -0.276495 0)
(-0.0308166 -0.0751473 0)
(-0.00269488 0.0931195 0)
(-0.0202377 0.164831 0)
(-0.0447963 0.204543 0)
(-0.0658451 0.227386 0)
(-0.0810013 0.228341 0)
(-0.0893877 0.208419 0)
(-0.0928859 0.174751 0)
(-0.093634 0.134834 0)
(-0.0937406 0.0936956 0)
(-0.0943947 0.0535891 0)
(-0.0956573 0.0146079 0)
(-0.0974392 -0.0240513 0)
(-0.0999189 -0.0632024 0)
(-0.103606 -0.103582 0)
(-0.10965 -0.146868 0)
(-0.118768 -0.197042 0)
(-0.127763 -0.258521 0)
(-0.126139 -0.322428 0)
(-0.107175 -0.333855 0)
(-0.0372085 -0.16282 0)
(0.00122233 0.102164 0)
(-0.0088419 0.182538 0)
(-0.0254171 0.221979 0)
(-0.039312 0.241462 0)
(-0.0487105 0.238221 0)
(-0.0535032 0.2143 0)
(-0.0553659 0.177609 0)
(-0.0559506 0.136018 0)
(-0.0567857 0.0944767 0)
(-0.0584297 0.0547086 0)
(-0.0606593 0.0162489 0)
(-0.0633274 -0.0219833 0)
(-0.0664316 -0.0606735 0)
(-0.0701617 -0.100098 0)
(-0.0754622 -0.141017 0)
(-0.0839166 -0.187151 0)
(-0.095598 -0.246861 0)
(-0.100402 -0.323184 0)
(-0.0949832 -0.371253 0)
(-0.0308541 -0.241779 0)
(0.00508138 0.103292 0)
(0.0029604 0.192052 0)
(-0.00531732 0.232395 0)
(-0.0123751 0.249421 0)
(-0.0167204 0.243328 0)
(-0.0185624 0.217157 0)
(-0.0191908 0.179151 0)
(-0.0196504 0.137175 0)
(-0.0208892 0.0959362 0)
(-0.0230842 0.0567739 0)
(-0.0259424 0.0189476 0)
(-0.0293953 -0.0187175 0)
(-0.0334605 -0.0569474 0)
(-0.038093 -0.0958611 0)
(-0.0438526 -0.135451 0)
(-0.0520045 -0.178215 0)
(-0.0654545 -0.233954 0)
(-0.0741147 -0.316842 0)
(-0.0811124 -0.395696 0)
(-0.0229136 -0.306236 0)
(0.00837423 0.0968535 0)
(0.0141133 0.193016 0)
(0.0140056 0.235886 0)
(0.013619 0.252171 0)
(0.0142438 0.245076 0)
(0.0154424 0.21841 0)
(0.0163072 0.180416 0)
(0.0163657 0.138804 0)
(0.0152214 0.0980828 0)
(0.0129284 0.0595292 0)
(0.0097576 0.0224346 0)
(0.00567541 -0.0143728 0)
(0.000537844 -0.0517393 0)
(-0.00552648 -0.0898262 0)
(-0.0129265 -0.128315 0)
(-0.0218599 -0.1683 0)
(-0.0376278 -0.21888 0)
(-0.0487883 -0.303152 0)
(-0.0679251 -0.407467 0)
(-0.0144704 -0.35911 0)
(0.0102058 0.0839917 0)
(0.0232012 0.185464 0)
(0.0308145 0.23203 0)
(0.0367024 0.248729 0)
(0.0423221 0.24187 0)
(0.047234 0.21613 0)
(0.0506244 0.179436 0)
(0.0522456 0.139146 0)
(0.0520505 0.0995984 0)
(0.0502576 0.0621384 0)
(0.0471127 0.0262402 0)
(0.0425241 -0.00920558 0)
(0.0363168 -0.0451339 0)
(0.0285946 -0.0817737 0)
(0.0185777 -0.118792 0)
(0.00736165 -0.156485 0)
(-0.0119677 -0.202555 0)
(-0.0244581 -0.28513 0)
(-0.0559551 -0.410019 0)
(-0.0061752 -0.401022 0)
(0.00974495 0.066929 0)
(0.0287263 0.169781 0)
(0.0439393 0.221024 0)
(0.0563879 0.239965 0)
(0.0675927 0.235005 0)
(0.0771921 0.211686 0)
(0.084321 0.177473 0)
(0.0886751 0.139259 0)
(0.0903352 0.101308 0)
(0.0896166 0.0651911 0)
(0.0868591 0.0307567 0)
(0.0818291 -0.00302746 0)
(0.0743879 -0.0367807 0)
(0.0648073 -0.0711157 0)
(0.0517394 -0.10586 0)
(0.0369853 -0.140942 0)
(0.0127305 -0.182469 0)
(-0.000277818 -0.261947 0)
(-0.0449829 -0.405812 0)
(0.00270259 -0.435526 0)
(0.00683151 0.0493075 0)
(0.0290232 0.148261 0)
(0.050592 0.202578 0)
(0.0693273 0.223315 0)
(0.0866726 0.220412 0)
(0.102239 0.200298 0)
(0.114779 0.169795 0)
(0.12361 0.135043 0)
(0.128648 0.100048 0)
(0.130158 0.0665063 0)
(0.128418 0.0346555 0)
(0.123492 0.0036663 0)
(0.114911 -0.0268186 0)
(0.1033 -0.0576695 0)
(0.0864273 -0.0889576 0)
(0.0674619 -0.121324 0)
(0.0376643 -0.159235 0)
(0.0234301 -0.235969 0)
(-0.0346731 -0.398182 0)
(0.0133799 -0.463866 0)
(0.00234873 0.0347143 0)
(0.0233424 0.123455 0)
(0.0504108 0.179105 0)
(0.07594 0.201888 0)
(0.100423 0.201507 0)
(0.123132 0.185134 0)
(0.142416 0.159163 0)
(0.15706 0.128866 0)
(0.166652 0.0978566 0)
(0.171417 0.0678358 0)
(0.171314 0.0393893 0)
(0.167066 0.012095 0)
(0.157295 -0.0144136 0)
(0.143687 -0.0408876 0)
(0.122619 -0.0676451 0)
(0.0993348 -0.0962416 0)
(0.063795 -0.131359 0)
(0.0465378 -0.206508 0)
(-0.0229807 -0.386552 0)
(0.0283977 -0.485195 0)
(-0.00340239 0.0288341 0)
(0.00985928 0.101325 0)
(0.0366213 0.148092 0)
(0.0682455 0.168626 0)
(0.100915 0.169761 0)
(0.132419 0.157485 0)
(0.160208 0.137126 0)
(0.182558 0.112846 0)
(0.198436 0.0877222 0)
(0.208214 0.0632826 0)
(0.211058 0.0402712 0)
(0.20876 0.0185477 0)
(0.19857 -0.00225753 0)
(0.184065 -0.0226506 0)
(0.159492 -0.0431157 0)
(0.133162 -0.0667509 0)
(0.0920031 -0.100672 0)
(0.069415 -0.179251 0)
(-0.00462708 -0.369721 0)
(0.0520323 -0.491464 0)
(-0.0138639 0.0187328 0)
(-0.00750139 0.0882124 0)
(0.0189207 0.123901 0)
(0.0558661 0.136799 0)
(0.0967271 0.136278 0)
(0.136827 0.127076 0)
(0.172819 0.11246 0)
(0.202422 0.094766 0)
(0.224128 0.0764149 0)
(0.239058 0.0584104 0)
(0.245021 0.0417142 0)
(0.245905 0.0261963 0)
(0.236666 0.0120281 0)
(0.22497 -0.00161531 0)
(0.200239 -0.0155172 0)
(0.176589 -0.0343908 0)
(0.13263 -0.0671651 0)
(0.107366 -0.145631 0)
(0.0372588 -0.326074 0)
(0.0922814 -0.455853 0)
(-0.105916 0.0825701 0)
(-0.0776717 0.0691141 0)
(-0.0486049 0.0732613 0)
(0.00351936 0.0776372 0)
(0.0567624 0.0778892 0)
(0.109216 0.0736002 0)
(0.156127 0.0662864 0)
(0.198245 0.0569307 0)
(0.230181 0.0473313 0)
(0.258188 0.0377597 0)
(0.273867 0.0291946 0)
(0.289012 0.0213008 0)
(0.289463 0.0146389 0)
(0.29371 0.00832249 0)
(0.277671 0.00142223 0)
(0.270723 -0.0097167 0)
(0.231688 -0.0353075 0)
(0.217855 -0.0953035 0)
(0.150156 -0.229722 0)
(0.170663 -0.341483 0)
(0.130027 0.103785 0)
(0.158443 0.0753399 0)
(0.212362 0.0533537 0)
(0.27086 0.0417214 0)
(0.323348 0.0359757 0)
(0.375641 0.0319798 0)
(0.420071 0.0289303 0)
(0.465219 0.0255872 0)
(0.498178 0.0229129 0)
(0.533323 0.0197279 0)
(0.552711 0.0175782 0)
(0.578517 0.0146519 0)
(0.584705 0.013222 0)
(0.60314 0.0104136 0)
(0.5947 0.00946008 0)
(0.603359 0.00506862 0)
(0.56771 0.000145413 0)
(0.547694 -0.018282 0)
(0.435852 -0.0504128 0)
(0.336831 -0.101401 0)
)
;

boundaryField
{
    movingWall
    {
        type            fixedValue;
        value           uniform (1 0 0);
    }
    fixedWalls
    {
        type            noSlip;
    }
    frontAndBack
    {
        type            empty;
    }
}


// ************************************************************************* //
