/*--------------------------------*- C++ -*----------------------------------*\
| =========                 |                                                 |
| \\      /  F ield         | OpenFOAM: The Open Source CFD Toolbox           |
|  \\    /   O peration     | Version:  2506                                  |
|   \\  /    A nd           | Website:  www.openfoam.com                      |
|    \\/     M anipulation  |                                                 |
\*---------------------------------------------------------------------------*/
FoamFile
{
    version     2.0;
    format      ascii;
    arch        "LSB;label=32;scalar=64";
    class       pointScalarField;
    location    "32";
    object      streamFunction;
}
// * * * * * * * * * * * * * * * * * * * * * * * * * * * * * * * * * * * * * //

dimensions      [0 3 -1 0 0 0 0];

internalField   nonuniform List<scalar> 
882
(
0
0
0
0
0
0
0
0
0
0
0
0
0
0
0
0
0
0
0
0
0
0
0.000147512
0.000275427
0.000287773
0.000162544
-0.000135115
-0.00066619
-0.00146158
-0.0024403
-0.00340886
-0.00414028
-0.00446773
-0.00429465
-0.0035607
-0.00237607
-0.000965551
0.000302917
0.00104466
0.00100375
0.000450254
0
0
0.000258604
0.000325726
-2.9302e-05
-0.000916286
-0.00241515
-0.00451309
-0.00700364
-0.00950221
-0.011591
-0.0129304
-0.0133046
-0.0125924
-0.0107641
-0.00796128
-0.00454942
-0.00119587
0.00119346
0.00183483
0.000963862
0
0
0.000122331
-0.000312512
-0.00163417
-0.00399408
-0.00735734
-0.0114273
-0.0156901
-0.0195787
-0.0226192
-0.0244622
-0.0248438
-0.0236881
-0.0209492
-0.0167146
-0.011329
-0.00554781
-0.000670126
0.00174076
0.00125364
0
0
-0.000370289
-0.00184038
-0.00467812
-0.00894748
-0.0143682
-0.0203453
-0.0261621
-0.0312025
-0.0350176
-0.0372919
-0.0377485
-0.0363648
-0.0330603
-0.0278207
-0.0208601
-0.0128101
-0.00500931
0.000376035
0.00137038
0
0
-0.00120812
-0.00413567
-0.00879322
-0.0150622
-0.0223919
-0.0299663
-0.0369857
-0.0428556
-0.047187
-0.0497368
-0.0503166
-0.0488969
-0.0453861
-0.0396898
-0.0318357
-0.0221688
-0.0117343
-0.0028012
0.00110925
0
0
-0.0022587
-0.00683435
-0.0133369
-0.0214262
-0.0303319
-0.0391032
-0.0469295
-0.0532773
-0.0578465
-0.0604948
-0.0611556
-0.0597945
-0.056332
-0.0506434
-0.0426001
-0.0322182
-0.0200524
-0.007966
-3.303e-05
0
0
-0.00332925
-0.00950483
-0.0176645
-0.0272609
-0.0373648
-0.0469574
-0.0552592
-0.0618202
-0.0664439
-0.0690879
-0.0697728
-0.0684876
-0.0651722
-0.0597121
-0.0519178
-0.0415678
-0.0286953
-0.0144155
-0.00241723
0
0
-0.00422959
-0.011776
-0.0212911
-0.0320452
-0.0430066
-0.0531344
-0.0617008
-0.0683447
-0.0729672
-0.0756031
-0.0763138
-0.0751078
-0.0719477
-0.0667502
-0.0593402
-0.0493974
-0.0365367
-0.0210559
-0.00594627
0
0
-0.00482938
-0.0134076
-0.0239323
-0.0355089
-0.0470481
-0.0575151
-0.0662374
-0.0729316
-0.0775731
-0.0802443
-0.0810193
-0.0799146
-0.0769045
-0.0719363
-0.0648907
-0.0554567
-0.0430181
-0.0271243
-0.00982607
0
0
-0.00505077
-0.0142697
-0.0254502
-0.0375444
-0.049433
-0.0601033
-0.0689301
-0.075683
-0.0803842
-0.08314
-0.084028
-0.0830648
-0.0802264
-0.0754745
-0.068745
-0.0598087
-0.0479861
-0.0322106
-0.0133588
0
0
-0.00489155
-0.0143351
-0.0258396
-0.0381772
-0.0502131
-0.0609647
-0.0698465
-0.0766613
-0.0814485
-0.0843222
-0.0853618
-0.0845857
-0.0819698
-0.0774754
-0.0710703
-0.0626232
-0.0515121
-0.0362177
-0.0163725
0
0
-0.00440954
-0.0136604
-0.0251216
-0.0374209
-0.0494066
-0.0601231
-0.0690068
-0.0758696
-0.080749
-0.0837559
-0.0849731
-0.0844253
-0.0820904
-0.0779378
-0.0719422
-0.0640242
-0.0537089
-0.0391748
-0.0188354
0
0
-0.00368539
-0.0123567
-0.0234341
-0.0354069
-0.0471175
-0.0576438
-0.0664341
-0.0732906
-0.0782354
-0.0813694
-0.0827803
-0.0825062
-0.0805271
-0.0768169
-0.0713567
-0.0641237
-0.0546872
-0.0411195
-0.0207728
0
0
-0.00285465
-0.0106185
-0.0209733
-0.0323159
-0.0434828
-0.053599
-0.0621324
-0.0688731
-0.0738187
-0.0770527
-0.0786625
-0.0787085
-0.0771655
-0.0740246
-0.0692687
-0.0628609
-0.0544671
-0.0421196
-0.0222198
0
0
-0.00208779
-0.00874863
-0.0180913
-0.0284803
-0.0387822
-0.0481907
-0.0562168
-0.0626496
-0.067465
-0.0707256
-0.0725165
-0.0729059
-0.0718903
-0.0694603
-0.0656063
-0.0602637
-0.0531468
-0.0423135
-0.0231623
0
0
-0.00154056
-0.00707122
-0.0151182
-0.0241903
-0.0332504
-0.0415925
-0.0487963
-0.0546661
-0.0591655
-0.0623383
-0.0642613
-0.0650032
-0.0646023
-0.063033
-0.0602985
-0.0562924
-0.0506689
-0.0414276
-0.0233401
0
0
-0.0014061
-0.00609849
-0.0127184
-0.0201148
-0.0274906
-0.0343261
-0.0403062
-0.0452671
-0.0491785
-0.0520707
-0.0540142
-0.0550704
-0.0553128
-0.0547091
-0.0532609
-0.0508137
-0.0468667
-0.0392528
-0.0227126
0
0
-0.00191089
-0.00592491
-0.0110497
-0.0164456
-0.0217213
-0.0266388
-0.0310212
-0.0347473
-0.0378062
-0.0402103
-0.042025
-0.0432902
-0.044062
-0.0443254
-0.0440781
-0.0431029
-0.0407124
-0.0348575
-0.0206826
0
0
-0.00607685
-0.00956242
-0.0123335
-0.0149859
-0.0175771
-0.0200088
-0.0222133
-0.0241288
-0.0257622
-0.0270999
-0.0281904
-0.0290298
-0.0296837
-0.0301235
-0.0303644
-0.030175
-0.0288703
-0.0247789
-0.0150587
0
0
0
0
0
0
0
0
0
0
0
0
0
0
0
0
0
0
0
0
0
0
0
0
0
0
0
0
0
0
0
0
0
0
0
0
0
0
0
0
0
0
0
0
0.000147512
0.000275427
0.000287773
0.000162544
-0.000135115
-0.00066619
-0.00146158
-0.0024403
-0.00340886
-0.00414028
-0.00446773
-0.00429465
-0.0035607
-0.00237607
-0.000965551
0.000302917
0.00104466
0.00100375
0.000450254
0
0
0.000258604
0.000325726
-2.9302e-05
-0.000916286
-0.00241515
-0.00451309
-0.00700364
-0.00950221
-0.011591
-0.0129304
-0.0133046
-0.0125924
-0.0107641
-0.00796128
-0.00454942
-0.00119587
0.00119346
0.00183483
0.000963862
0
0
0.000122331
-0.000312512
-0.00163417
-0.00399408
-0.00735734
-0.0114273
-0.0156901
-0.0195787
-0.0226192
-0.0244622
-0.0248438
-0.0236881
-0.0209492
-0.0167146
-0.011329
-0.00554781
-0.000670126
0.00174076
0.00125364
0
0
-0.000370289
-0.00184038
-0.00467812
-0.00894748
-0.0143682
-0.0203453
-0.0261621
-0.0312025
-0.0350176
-0.0372919
-0.0377485
-0.0363648
-0.0330603
-0.0278207
-0.0208601
-0.0128101
-0.00500931
0.000376035
0.00137038
0
0
-0.00120812
-0.00413567
-0.00879322
-0.0150622
-0.0223919
-0.0299663
-0.0369857
-0.0428556
-0.047187
-0.0497368
-0.0503166
-0.0488969
-0.0453861
-0.0396898
-0.0318357
-0.0221688
-0.0117343
-0.0028012
0.00110925
0
0
-0.0022587
-0.00683435
-0.0133369
-0.0214262
-0.0303319
-0.0391032
-0.0469295
-0.0532773
-0.0578465
-0.0604948
-0.0611556
-0.0597945
-0.056332
-0.0506434
-0.0426001
-0.0322182
-0.0200524
-0.007966
-3.303e-05
0
0
-0.00332925
-0.00950483
-0.0176645
-0.0272609
-0.0373648
-0.0469574
-0.0552592
-0.0618202
-0.0664439
-0.0690879
-0.0697728
-0.0684876
-0.0651722
-0.0597121
-0.0519178
-0.0415678
-0.0286953
-0.0144155
-0.00241723
0
0
-0.00422959
-0.011776
-0.0212911
-0.0320452
-0.0430066
-0.0531344
-0.0617008
-0.0683447
-0.0729672
-0.0756031
-0.0763138
-0.0751078
-0.0719477
-0.0667502
-0.0593402
-0.0493974
-0.0365367
-0.0210559
-0.00594627
0
0
-0.00482938
-0.0134076
-0.0239323
-0.0355089
-0.0470481
-0.0575151
-0.0662374
-0.0729316
-0.0775731
-0.0802443
-0.0810193
-0.0799146
-0.0769045
-0.0719363
-0.0648907
-0.0554567
-0.0430181
-0.0271243
-0.00982607
0
0
-0.00505077
-0.0142697
-0.0254502
-0.0375444
-0.049433
-0.0601033
-0.0689301
-0.075683
-0.0803842
-0.08314
-0.084028
-0.0830648
-0.0802264
-0.0754745
-0.068745
-0.0598087
-0.0479861
-0.0322106
-0.0133588
0
0
-0.00489155
-0.0143351
-0.0258396
-0.0381772
-0.0502131
-0.0609647
-0.0698465
-0.0766613
-0.0814485
-0.0843222
-0.0853618
-0.0845857
-0.0819698
-0.0774754
-0.0710703
-0.0626232
-0.0515121
-0.0362177
-0.0163725
0
0
-0.00440954
-0.0136604
-0.0251216
-0.0374209
-0.0494066
-0.0601231
-0.0690068
-0.0758696
-0.080749
-0.0837559
-0.0849731
-0.0844253
-0.0820904
-0.0779378
-0.0719422
-0.0640242
-0.0537089
-0.0391748
-0.0188354
0
0
-0.00368539
-0.0123567
-0.0234341
-0.0354069
-0.0471175
-0.0576438
-0.0664341
-0.0732906
-0.0782354
-0.0813694
-0.0827803
-0.0825062
-0.0805271
-0.0768169
-0.0713567
-0.0641237
-0.0546872
-0.0411195
-0.0207728
0
0
-0.00285465
-0.0106185
-0.0209733
-0.0323159
-0.0434828
-0.053599
-0.0621324
-0.0688731
-0.0738187
-0.0770527
-0.0786625
-0.0787085
-0.0771655
-0.0740246
-0.0692687
-0.0628609
-0.0544671
-0.0421196
-0.0222198
0
0
-0.00208779
-0.00874863
-0.0180913
-0.0284803
-0.0387822
-0.0481907
-0.0562168
-0.0626496
-0.067465
-0.0707256
-0.0725165
-0.0729059
-0.0718903
-0.0694603
-0.0656063
-0.0602637
-0.0531468
-0.0423135
-0.0231623
0
0
-0.00154056
-0.00707122
-0.0151182
-0.0241903
-0.0332504
-0.0415925
-0.0487963
-0.0546661
-0.0591655
-0.0623383
-0.0642613
-0.0650032
-0.0646023
-0.063033
-0.0602985
-0.0562924
-0.0506689
-0.0414276
-0.0233401
0
0
-0.0014061
-0.00609849
-0.0127184
-0.0201148
-0.0274906
-0.0343261
-0.0403062
-0.0452671
-0.0491785
-0.0520707
-0.0540142
-0.0550704
-0.0553128
-0.0547091
-0.0532609
-0.0508137
-0.0468667
-0.0392528
-0.0227126
0
0
-0.00191089
-0.00592491
-0.0110497
-0.0164456
-0.0217213
-0.0266388
-0.0310212
-0.0347473
-0.0378062
-0.0402103
-0.042025
-0.0432902
-0.044062
-0.0443254
-0.0440781
-0.0431029
-0.0407124
-0.0348575
-0.0206826
0
0
-0.00607685
-0.00956242
-0.0123335
-0.0149859
-0.0175771
-0.0200088
-0.0222133
-0.0241288
-0.0257622
-0.0270999
-0.0281904
-0.0290298
-0.0296837
-0.0301235
-0.0303644
-0.030175
-0.0288703
-0.0247789
-0.0150587
0
0
0
0
0
0
0
0
0
0
0
0
0
0
0
0
0
0
0
0
0
0
)
;

boundaryField
{
    movingWall
    {
        type            calculated;
    }
    fixedWalls
    {
        type            calculated;
    }
    frontAndBack
    {
        type            empty;
    }
}


// ************************************************************************* //
