/*--------------------------------*- C++ -*----------------------------------*\
| =========                 |                                                 |
| \\      /  F ield         | OpenFOAM: The Open Source CFD Toolbox           |
|  \\    /   O peration     | Version:  2506                                  |
|   \\  /    A nd           | Website:  www.openfoam.com                      |
|    \\/     M anipulation  |                                                 |
\*---------------------------------------------------------------------------*/
FoamFile
{
    version     2.0;
    format      ascii;
    arch        "LSB;label=32;scalar=64";
    class       volScalarField;
    location    "100";
    object      div(phi);
}
// * * * * * * * * * * * * * * * * * * * * * * * * * * * * * * * * * * * * * //

dimensions      [0 0 -1 0 0 0 0];

internalField   nonuniform List<scalar> 
1340
(
6.94215e-07
8.4447e-07
6.57329e-08
3.93327e-08
-3.19694e-07
5.66921e-07
-1.47906e-07
-5.64902e-07
5.87856e-07
1.95877e-08
-5.58894e-07
-3.71113e-07
-4.10029e-07
2.22991e-07
-2.09379e-07
6.04003e-07
7.91195e-07
-1.19125e-06
-4.79558e-09
-2.36686e-07
3.70437e-08
-3.55881e-07
6.54348e-07
3.65518e-08
-2.1504e-07
4.21551e-07
5.45854e-08
1.768e-07
1.31887e-07
-1.87157e-07
-7.4013e-08
-2.68317e-07
3.44266e-07
-1.31182e-07
5.83613e-07
-2.83772e-07
9.7558e-07
-5.01213e-07
1.01368e-07
1.30142e-07
5.27003e-07
4.00733e-08
-2.26311e-07
9.40328e-08
-1.00475e-07
1.23505e-07
-2.36562e-07
6.5721e-07
5.59196e-08
-2.88059e-06
1.2377e-06
1.51133e-07
-7.96073e-07
8.00708e-07
7.40539e-08
9.30857e-08
-7.54418e-08
3.30005e-07
-8.41366e-08
1.63497e-07
2.63555e-07
-1.262e-07
7.06251e-10
-1.65703e-07
4.07859e-07
-7.34261e-08
5.49039e-07
-6.59858e-06
4.76048e-06
-5.60754e-06
2.83077e-06
-2.72822e-06
1.39122e-06
-9.47038e-07
-1.53905e-07
4.6043e-07
2.2934e-07
4.53122e-07
-2.69985e-07
4.13183e-08
-1.62622e-08
4.68048e-07
1.09813e-07
-1.70925e-07
1.70687e-07
1.38072e-09
1.81876e-07
-1.60347e-07
6.33175e-07
6.89252e-08
1.4039e-06
-4.5493e-07
4.2713e-06
3.01319e-06
9.94696e-07
3.43835e-06
8.66655e-07
2.34689e-07
-3.58606e-07
1.68738e-07
-1.53891e-06
1.07381e-06
-1.62319e-06
3.64773e-07
-7.7685e-07
-1.50503e-07
2.88473e-07
-1.63673e-07
3.33462e-08
-1.13663e-07
3.69408e-07
-7.71706e-08
1.32129e-07
3.5259e-07
-6.45063e-08
5.62359e-08
-8.69666e-08
4.16634e-07
-4.29033e-08
4.67473e-07
-5.62981e-06
1.9655e-05
-1.62344e-06
1.4135e-05
-1.78204e-06
1.14768e-05
-1.856e-06
9.15116e-06
-1.84349e-06
7.21441e-06
-2.45738e-06
6.84229e-06
-3.09659e-06
5.75931e-06
-2.06627e-06
5.1803e-06
-1.51419e-06
3.63123e-06
-6.14346e-07
1.21534e-06
-4.53822e-07
-7.36056e-07
2.40045e-07
-1.33418e-06
5.39938e-07
-1.61484e-06
-1.99881e-07
-5.97588e-07
-1.41479e-07
2.23223e-08
-4.02449e-07
6.71838e-08
-3.10562e-07
3.84481e-07
1.93568e-07
-1.34865e-07
2.23772e-07
7.6738e-08
2.27236e-07
-1.17645e-07
5.66348e-07
6.43352e-08
0.00132627
0.000675356
0.000413749
0.00049617
0.000239976
0.00036786
0.000140545
0.000284082
7.65696e-05
0.000228764
3.3571e-05
0.000176361
4.36593e-06
0.000129491
-8.04704e-06
0.000100381
-8.96645e-06
8.23024e-05
-8.3555e-06
7.0454e-05
-5.6247e-06
6.11901e-05
-4.30751e-06
5.24842e-05
-2.87393e-06
4.45759e-05
-1.26735e-06
3.92906e-05
-3.72597e-07
3.66627e-05
-2.07766e-06
3.37913e-05
8.59549e-07
2.95354e-05
-1.13693e-06
2.46174e-05
9.74604e-07
1.94676e-05
1.81473e-06
1.60769e-05
1.73775e-06
1.3616e-05
2.31614e-06
1.13395e-05
2.05862e-06
8.557e-06
1.58242e-06
6.08485e-06
6.86538e-07
4.51747e-06
8.04452e-07
3.0374e-06
1.02226e-06
2.31165e-06
8.5797e-07
1.6838e-06
6.40212e-07
2.40651e-07
2.80461e-07
-2.91756e-07
4.12229e-07
-1.11628e-06
7.48192e-08
-8.23708e-07
-3.43936e-07
-2.13394e-07
-6.06495e-07
-1.0222e-07
-5.57067e-07
2.40768e-07
-2.70699e-07
5.28631e-08
3.72842e-07
2.45298e-08
1.31173e-07
-2.77656e-08
4.25289e-07
-3.03824e-08
3.89399e-07
0.000239109
0.000150716
-1.34496e-05
0.000168518
-3.88377e-06
0.000170639
1.8464e-06
0.000161519
2.56226e-06
0.000147347
-1.29042e-06
0.000129247
-8.83314e-06
0.000104619
-1.38747e-05
8.36576e-05
-1.39723e-05
6.97811e-05
-1.24676e-05
6.05362e-05
-9.72186e-06
5.35268e-05
-8.5938e-06
4.66829e-05
-6.49738e-06
3.98819e-05
-5.75824e-06
3.3607e-05
-3.29249e-06
2.7772e-05
-5.43835e-06
2.12298e-05
-9.49071e-06
1.64558e-05
-1.01303e-05
1.38239e-05
-7.5527e-06
1.35847e-05
-4.31712e-06
1.3378e-05
1.5245e-07
1.24372e-05
2.30346e-06
9.95709e-06
2.15093e-06
7.84184e-06
1.64692e-06
5.71885e-06
1.60673e-06
3.87179e-06
1.17259e-06
3.02141e-06
1.18889e-06
2.05064e-06
1.41306e-06
1.59021e-06
1.12942e-06
9.01291e-07
8.16585e-07
5.37788e-07
1.17802e-07
2.99943e-07
-1.41145e-07
-1.61125e-07
-1.82812e-07
-3.33487e-07
-1.02536e-07
-5.11944e-07
-3.85925e-08
-6.21029e-07
1.86022e-07
1.69804e-07
-5.24944e-08
2.40605e-07
1.36519e-07
2.79126e-07
-8.46724e-08
4.99011e-07
5.40867e-08
0.00122368
0.000644258
0.00036749
0.000434212
0.000185904
0.000319809
0.000101198
0.0002498
6.23515e-05
0.000200677
3.92676e-05
0.000166239
2.20911e-05
0.000136505
7.44889e-06
0.000107339
-1.02861e-06
8.66325e-05
-2.34573e-06
7.27169e-05
-2.83136e-06
6.24216e-05
-1.58256e-06
5.39133e-05
-1.83135e-06
4.5401e-05
-1.33363e-06
3.78217e-05
-9.81256e-07
3.21855e-05
-7.70896e-07
2.80351e-05
-4.71564e-07
2.22858e-05
-1.67068e-06
1.68356e-05
-3.90192e-06
1.235e-05
-3.296e-06
9.53942e-06
-3.29259e-06
7.87078e-06
-2.28738e-06
7.16845e-06
-5.54418e-07
5.9343e-06
4.26493e-07
4.68214e-06
4.27039e-07
3.75501e-06
9.65595e-07
2.58923e-06
1.19337e-06
2.05886e-06
1.1475e-06
1.6277e-06
1.27707e-06
1.17737e-06
9.9593e-07
8.08171e-07
5.9072e-07
4.51369e-07
2.74131e-07
1.44063e-07
2.31273e-08
-5.47728e-09
-1.45861e-07
-2.76021e-08
-5.25357e-07
1.46058e-07
-2.64375e-07
1.10006e-07
1.58962e-07
8.78271e-08
1.91769e-07
1.16106e-08
3.9134e-07
-2.80971e-08
2.88498e-07
0.000396422
0.000131015
1.24644e-05
0.000173225
2.83216e-05
0.0001693
1.74121e-05
0.000149518
8.9365e-06
0.000128046
-1.21917e-06
0.000110878
-9.16931e-06
9.85735e-05
-1.76603e-05
8.42919e-05
-2.27337e-05
6.9025e-05
-2.23862e-05
5.66296e-05
-2.08093e-05
4.73264e-05
-1.67169e-05
4.03178e-05
-1.45454e-05
3.41133e-05
-1.03891e-05
2.83811e-05
-8.33364e-06
2.28739e-05
-4.64611e-06
1.75101e-05
-7.83059e-06
1.25664e-05
-8.69669e-06
8.99407e-06
-8.4816e-06
7.2999e-06
-7.56729e-06
6.72153e-06
-4.47375e-06
6.45293e-06
-2.07657e-06
5.32234e-06
-1.44607e-06
4.45913e-06
-1.00324e-06
3.70353e-06
5.92578e-08
2.83615e-06
3.45265e-07
2.50246e-06
7.34038e-07
1.95206e-06
1.14677e-06
1.55575e-06
1.0876e-06
1.18874e-06
9.37816e-07
8.15754e-07
6.48447e-07
5.14235e-07
3.8001e-07
3.39096e-07
1.45356e-07
1.61148e-07
1.92517e-07
-4.84296e-08
6.95235e-08
-5.08659e-07
2.68746e-07
-1.48316e-07
2.25771e-08
-2.08698e-08
8.6988e-08
2.79302e-07
-8.09469e-08
3.82428e-07
2.80227e-08
0.00124272
0.000679659
0.000622091
0.000447753
0.000377262
0.000299546
0.000240503
0.00021204
0.000145937
0.000159154
9.33278e-05
0.000129133
5.70686e-05
0.000111468
3.29977e-05
9.65081e-05
1.477e-05
7.74109e-05
2.51775e-06
6.0261e-05
-1.70831e-06
4.77271e-05
-3.93691e-06
3.82409e-05
-3.62665e-06
3.10372e-05
-4.26279e-06
2.45424e-05
-3.10142e-06
1.92165e-05
-3.04985e-06
1.46316e-05
-2.112e-06
9.9033e-06
-4.77744e-06
5.17452e-06
-7.37329e-06
1.78482e-06
-8.65184e-06
3.55868e-07
-8.42178e-06
2.32402e-07
-7.27719e-06
1.23209e-06
-4.87497e-06
2.00928e-06
-2.481e-06
2.30465e-06
-1.36306e-06
2.43498e-06
-2.16268e-08
1.96105e-06
6.4175e-07
1.57134e-06
8.06584e-07
1.19002e-06
9.73062e-07
8.42679e-07
8.7762e-07
5.5376e-07
7.11455e-07
3.09854e-07
5.44401e-07
2.32815e-07
3.10953e-07
1.42917e-07
3.75491e-07
1.07147e-07
-4.19562e-07
2.99467e-07
-3.97185e-07
6.05186e-08
-2.13551e-07
7.24534e-10
1.11797e-07
-5.17644e-08
3.28185e-07
-5.43359e-08
2.03599e-07
-0.000348706
-0.000252445
-0.000259602
-0.00016237
-0.0001683
-0.000104001
-0.000115822
-6.87121e-05
-8.53599e-05
-4.63451e-05
-6.65054e-05
-3.18614e-05
-5.63437e-05
-2.21341e-05
-4.96917e-05
-1.53061e-05
-4.3575e-05
-1.02538e-05
-3.566e-05
-6.51367e-06
-2.76566e-05
-4.61561e-06
-2.18835e-05
-3.37652e-06
-1.73163e-05
-2.05625e-06
-1.37877e-05
-5.51788e-07
-1.0321e-05
8.08403e-07
-7.59588e-06
1.80555e-06
-5.67523e-06
2.43837e-06
-4.3599e-06
2.65254e-06
-3.92551e-06
2.62296e-06
-3.45704e-06
2.66436e-06
-3.50013e-06
2.98736e-06
-2.96476e-06
3.16995e-06
-2.62961e-06
3.29927e-06
-2.9598e-06
3.23807e-06
-1.73787e-06
2.89888e-06
-1.33736e-06
2.53835e-06
-8.09966e-07
2.08917e-06
-6.90581e-08
1.67752e-06
1.77397e-07
1.26749e-06
3.29528e-07
8.7779e-07
3.27613e-07
5.41456e-07
3.04654e-07
3.70733e-07
1.61984e-07
2.36259e-07
3.07018e-07
-2.13618e-07
2.89663e-07
-3.54031e-07
1.10636e-07
-1.72185e-07
-8.74881e-08
-2.06117e-08
-2.31084e-08
2.47913e-07
-1.30891e-07
2.72793e-07
-8.70984e-09
-0.000469172
-6.83555e-05
-2.79373e-06
-3.80575e-05
6.51012e-06
-1.83631e-05
8.63247e-06
-1.0143e-05
5.11146e-06
-9.18833e-06
-2.96625e-07
-1.1207e-05
-2.50958e-06
-1.36052e-05
-4.72839e-06
-1.58216e-05
-3.88721e-06
-1.78092e-05
-2.87039e-06
-1.85498e-05
-1.32168e-06
-1.72164e-05
-3.49444e-07
-1.5037e-05
-3.28826e-07
-1.29531e-05
-2.79796e-07
-1.1134e-05
-9.08518e-07
-9.50308e-06
-1.0388e-06
-7.60781e-06
-1.44851e-06
-5.97133e-06
-1.3673e-06
-4.44006e-06
-1.29265e-06
-3.09755e-06
-9.06689e-07
-1.72425e-06
-7.1324e-07
-7.19009e-07
-2.03598e-06
1.42543e-07
-2.82172e-06
8.62261e-07
-2.64481e-06
1.2742e-06
-2.96221e-06
1.5443e-06
-1.94454e-06
1.60726e-06
-9.64593e-07
1.48418e-06
-5.16671e-07
1.22592e-06
-4.582e-08
9.19578e-07
1.00209e-07
6.1358e-07
1.33646e-07
3.55538e-07
1.7541e-07
2.51501e-07
8.0365e-08
2.3194e-07
1.75108e-07
1.65461e-07
9.01329e-08
7.56099e-08
1.06044e-07
-8.80167e-08
-1.51838e-08
-4.62389e-08
2.17472e-07
-1.41789e-07
2.60628e-07
-1.06643e-07
1.19885e-07
-0.00163362
-0.000569746
-0.000584051
-0.00040153
-0.00039395
-0.000270859
-0.00024967
-0.00018082
-0.000159931
-0.000123529
-9.6377e-05
-8.65043e-05
-5.8296e-05
-6.29251e-05
-3.14201e-05
-4.66863e-05
-1.52371e-05
-3.56102e-05
-3.68423e-06
-2.7816e-05
3.70182e-06
-2.11446e-05
8.01464e-06
-1.51922e-05
9.84374e-06
-1.06446e-05
1.04825e-05
-7.46116e-06
1.0753e-05
-5.28723e-06
1.0572e-05
-3.8218e-06
1.01232e-05
-2.69292e-06
9.33527e-06
-1.90862e-06
8.91501e-06
-1.29367e-06
7.757e-06
-8.22935e-07
6.70594e-06
-2.85314e-07
5.19248e-06
7.91036e-08
3.13113e-06
3.05804e-07
5.71192e-07
5.31055e-07
-6.95216e-07
8.2036e-07
-1.41552e-06
1.07864e-06
-1.55565e-06
1.20564e-06
-1.16526e-06
1.20684e-06
-9.07632e-07
1.06276e-06
-6.39319e-07
8.92064e-07
-4.08126e-07
7.273e-07
-2.14732e-07
6.0362e-07
-1.55898e-07
5.53835e-07
-6.8024e-08
6.03181e-07
1.39611e-08
4.08933e-07
1.77454e-08
1.20243e-07
-6.94985e-08
1.90588e-07
-8.19712e-08
3.26128e-07
-2.0676e-07
1.8069e-07
-3.82871e-08
0.00153222
0.00054858
0.000296358
0.000337879
0.000136011
0.000202968
5.21436e-05
0.000123124
9.06879e-06
7.52396e-05
-9.0305e-06
4.55564e-05
-1.79827e-05
2.62021e-05
-1.83182e-05
1.38907e-05
-1.75692e-05
5.6284e-06
-1.36741e-05
5.18837e-07
-1.07857e-05
-2.52119e-06
-6.71336e-06
-3.58591e-06
-4.09643e-06
-3.9389e-06
-1.67746e-06
-3.97669e-06
-2.60666e-07
-3.93614e-06
9.44225e-07
-3.70683e-06
1.826e-06
-3.27979e-06
2.19344e-06
-2.7426e-06
2.65698e-06
-1.97528e-06
2.46227e-06
-1.06526e-06
2.50045e-06
-1.16371e-07
1.98341e-06
6.81042e-07
2.06334e-06
1.15513e-06
1.16551e-06
1.29e-06
3.40165e-07
1.26562e-06
-9.24839e-08
1.15148e-06
-4.52187e-07
1.05409e-06
-2.71881e-07
9.87441e-07
-5.10997e-08
8.84865e-07
1.56423e-07
7.62247e-07
2.31891e-07
6.21383e-07
2.64293e-07
5.33299e-07
2.28314e-07
6.66771e-07
2.63633e-07
4.62349e-07
1.84755e-07
2.47792e-07
-1.24693e-08
1.6548e-07
-3.84383e-08
4.47051e-07
-2.04097e-07
2.50536e-07
-1.35109e-07
6.62709e-08
-0.00139956
-0.000292413
-0.00024448
-0.000168705
-0.00012567
-9.62575e-05
-6.37077e-05
-5.70426e-05
-3.2733e-05
-3.46055e-05
-1.57594e-05
-2.14053e-05
-6.20642e-06
-1.3561e-05
-1.57608e-06
-8.54185e-06
1.54561e-06
-4.83302e-06
1.98848e-06
-2.00644e-06
2.50204e-06
3.79311e-07
1.61203e-06
2.34236e-06
8.15654e-07
3.55477e-06
1.26969e-08
3.89502e-06
-6.6468e-07
3.55236e-06
-8.69554e-07
2.81174e-06
-1.03018e-06
1.87174e-06
-8.01752e-07
1.06668e-06
-5.92711e-07
4.67121e-07
-3.24047e-07
1.04598e-07
-1.36577e-07
-9.49118e-08
2.49525e-08
-2.03999e-07
-6.63813e-07
-1.35093e-07
-1.15446e-06
6.62114e-08
-1.34293e-06
4.22286e-07
-1.32791e-06
6.7856e-07
-7.40036e-07
8.65678e-07
-1.98546e-07
8.79384e-07
1.78112e-07
8.2934e-07
3.78762e-07
7.24813e-07
4.36708e-07
6.1011e-07
4.10746e-07
5.11167e-07
3.88116e-07
6.05659e-07
4.09692e-07
3.53478e-07
3.0936e-07
1.05255e-07
1.87973e-07
-7.07454e-08
4.77631e-07
-1.29666e-07
4.63997e-07
-2.40438e-07
1.43221e-07
-8.43683e-08
0.000568093
8.70538e-05
0.000147875
4.33295e-05
8.72946e-05
9.20823e-06
5.03691e-05
-5.52064e-06
2.84722e-05
-7.47308e-06
2.00557e-05
-2.76416e-06
1.26338e-05
2.71661e-06
1.02209e-05
8.17403e-06
5.07646e-06
1.23993e-05
3.15889e-06
1.59195e-05
-4.35044e-07
1.83103e-05
-2.77175e-06
1.96421e-05
-4.69875e-06
1.89121e-05
-5.93646e-06
1.67209e-05
-5.59209e-06
1.40106e-05
-5.57756e-06
1.11725e-05
-4.62754e-06
8.47404e-06
-4.15301e-06
6.0025e-06
-3.14693e-06
4.10146e-06
-2.65806e-06
2.60559e-06
-2.02588e-06
1.41967e-06
-1.67136e-06
5.12083e-07
-1.30033e-06
-1.76621e-07
-1.70308e-06
-5.3311e-07
-2.13208e-06
-5.76956e-07
-2.15832e-06
-3.65525e-07
-1.86057e-06
-3.45465e-08
-1.10505e-06
2.59493e-07
-3.85092e-07
4.00437e-07
7.94606e-08
4.0235e-07
2.4203e-07
3.62484e-07
2.69917e-07
3.22192e-07
2.93417e-07
4.68308e-07
2.92404e-07
3.52222e-07
1.35496e-07
2.3779e-07
-8.98697e-08
3.61357e-07
-3.11756e-08
7.08742e-07
-3.03895e-07
2.84645e-07
-2.25931e-07
-5.06965e-08
0.00412384
0.00154708
0.00150077
0.00115256
0.00100167
0.000779648
0.000632922
0.000511706
0.000367855
0.000332191
0.000208677
0.000220311
0.000109041
0.000150088
5.27146e-05
0.000105697
1.96661e-05
7.61361e-05
1.57633e-06
5.54632e-05
-7.10517e-06
4.09383e-05
-1.24234e-05
3.03747e-05
-1.39981e-05
2.2135e-05
-1.48292e-05
1.49392e-05
-1.32241e-05
9.2851e-06
-1.19515e-05
5.03476e-06
-1.01698e-05
2.27563e-06
-8.8487e-06
6.31506e-07
-7.1715e-06
-1.53545e-07
-5.92747e-06
-5.49521e-07
-4.79743e-06
-7.67444e-07
-3.71099e-06
-8.35716e-07
-3.12284e-06
-6.49952e-07
-2.46495e-06
-3.26941e-07
-1.72514e-06
-2.1761e-08
-1.31315e-06
8.18829e-08
-7.28945e-07
2.55323e-08
-4.2556e-07
-1.2751e-07
-2.65974e-07
-2.30346e-07
-1.68626e-07
-2.39662e-07
-9.58652e-08
-1.24427e-07
4.33636e-08
-3.75273e-08
1.57382e-07
5.29816e-08
2.11865e-07
8.87501e-08
2.49853e-07
8.08992e-08
3.33459e-07
8.66866e-08
8.55575e-07
-3.06976e-07
4.95073e-07
-2.49175e-07
4.56946e-08
-5.82727e-08
-0.00363048
-0.00181327
-0.00150008
-0.00140453
-0.000964546
-0.00100513
-0.000567834
-0.000707167
-0.000284907
-0.000498104
-0.000116859
-0.000357939
-1.77437e-05
-0.0002623
3.42897e-05
-0.00019723
5.64461e-05
-0.00015336
6.50437e-05
-0.000122564
6.06852e-05
-9.96147e-05
5.67067e-05
-8.01573e-05
4.68803e-05
-6.43547e-05
4.12216e-05
-4.95119e-05
3.11228e-05
-3.69892e-05
2.50398e-05
-2.67574e-05
1.72963e-05
-1.91091e-05
1.28434e-05
-1.28182e-05
7.74415e-06
-8.2433e-06
4.36686e-06
-5.14247e-06
1.34515e-06
-3.60599e-06
-7.54393e-07
-2.89252e-06
-2.05298e-06
-2.7333e-06
-3.24328e-06
-2.77152e-06
-4.13004e-06
-2.73284e-06
-4.20843e-06
-2.47694e-06
-3.79196e-06
-1.99728e-06
-2.75974e-06
-1.35965e-06
-1.60118e-06
-7.37377e-07
-6.24453e-07
-2.13052e-07
4.66906e-08
2.39906e-07
4.61235e-07
3.30588e-07
4.71791e-07
4.49683e-07
4.68893e-07
7.14641e-07
4.49111e-07
7.84213e-07
2.9187e-07
8.94646e-07
-1.48343e-07
6.5188e-07
-6.53649e-08
2.68746e-07
9.11386e-08
4.57203e-08
-0.00137601
-0.000804828
-0.000237329
-0.000564652
-3.45168e-05
-0.000399148
6.38292e-05
-0.000292825
0.000109456
-0.000221636
0.000117347
-0.000170518
0.000117612
-0.000128206
0.000101847
-9.44068e-05
9.10537e-05
-6.68115e-05
7.19056e-05
-4.7066e-05
6.00672e-05
-3.06876e-05
4.39414e-05
-1.74529e-05
3.42759e-05
-6.13092e-06
2.35387e-05
7.97272e-07
1.68875e-05
4.44226e-06
1.07745e-05
5.88249e-06
7.65738e-06
6.84196e-06
5.62676e-06
7.49573e-06
4.50691e-06
7.68442e-06
4.1904e-06
7.17657e-06
4.05004e-06
6.18735e-06
4.70593e-06
5.13121e-06
5.18385e-06
4.08113e-06
5.97373e-06
3.4235e-06
7.09083e-06
3.03849e-06
7.6978e-06
2.76775e-06
7.91095e-06
2.64616e-06
7.4691e-06
2.52019e-06
6.59432e-06
2.39743e-06
5.57114e-06
2.23599e-06
4.3988e-06
2.11409e-06
3.25761e-06
1.32529e-06
2.494e-06
1.41154e-06
2.31325e-06
1.03466e-06
1.38464e-06
6.83189e-07
7.95962e-07
1.89123e-07
5.9047e-07
1.49561e-07
3.46279e-07
2.02431e-07
8.98272e-08
2.01321e-08
-0.00043076
0.000242667
-5.65848e-05
0.000184602
-4.48632e-05
0.000142653
-3.38679e-05
0.000107553
-3.15987e-05
7.94927e-05
-2.18785e-05
5.98215e-05
-1.67974e-05
4.56167e-05
-7.56291e-06
3.5748e-05
-1.50274e-06
2.79612e-05
4.29443e-06
2.23655e-05
8.57332e-06
1.97632e-05
9.76906e-06
1.95682e-05
1.12442e-05
2.06155e-05
1.01015e-05
2.09926e-05
9.45031e-06
2.05793e-05
8.01995e-06
1.96574e-05
7.18261e-06
1.88393e-05
7.89037e-06
1.77576e-05
8.82226e-06
1.60802e-05
1.0802e-05
1.42273e-05
1.23054e-05
1.26691e-05
1.4478e-05
1.17808e-05
1.57403e-05
1.08334e-05
1.67354e-05
9.79525e-06
1.7851e-05
8.66495e-06
1.81782e-05
7.4967e-06
1.78279e-05
6.4387e-06
1.6031e-05
5.40584e-06
1.30416e-05
4.37899e-06
9.58734e-06
3.36753e-06
6.39368e-06
2.53272e-06
3.92213e-06
1.26677e-06
2.7174e-06
1.40864e-06
2.11038e-06
7.65683e-07
9.03822e-07
4.26229e-07
3.3401e-07
2.8814e-07
1.51642e-07
1.81338e-07
1.18511e-07
5.13545e-08
1.22978e-08
0
)
;

boundaryField
{
    inlet
    {
        type            extrapolatedCalculated;
        value           nonuniform List<scalar> 
27
(
6.94215e-07
6.57329e-08
5.66921e-07
1.95877e-08
6.04003e-07
3.65518e-08
5.83613e-07
5.59196e-08
5.49039e-07
6.89252e-08
4.67473e-07
6.43352e-08
3.89399e-07
5.40867e-08
2.88498e-07
2.80227e-08
2.03599e-07
-8.70984e-09
1.19885e-07
-3.82871e-08
6.62709e-08
-8.43683e-08
-5.06965e-08
-5.82727e-08
4.57203e-08
2.01321e-08
0
)
;
    }
    outlet
    {
        type            extrapolatedCalculated;
        value           nonuniform List<scalar> 
78
(
-0.00043076
0.000242667
-5.65848e-05
0.000184602
-4.48632e-05
0.000142653
-3.38679e-05
0.000107553
-3.15987e-05
7.94927e-05
-2.18785e-05
5.98215e-05
-1.67974e-05
4.56167e-05
-7.56291e-06
3.5748e-05
-1.50274e-06
2.79612e-05
4.29443e-06
2.23655e-05
8.57332e-06
1.97632e-05
9.76906e-06
1.95682e-05
1.12442e-05
2.06155e-05
1.01015e-05
2.09926e-05
9.45031e-06
2.05793e-05
8.01995e-06
1.96574e-05
7.18261e-06
1.88393e-05
7.89037e-06
1.77576e-05
8.82226e-06
1.60802e-05
1.0802e-05
1.42273e-05
1.23054e-05
1.26691e-05
1.4478e-05
1.17808e-05
1.57403e-05
1.08334e-05
1.67354e-05
9.79525e-06
1.7851e-05
8.66495e-06
1.81782e-05
7.4967e-06
1.78279e-05
6.4387e-06
1.6031e-05
5.40584e-06
1.30416e-05
4.37899e-06
9.58734e-06
3.36753e-06
6.39368e-06
2.53272e-06
3.92213e-06
1.26677e-06
2.7174e-06
1.40864e-06
2.11038e-06
7.65683e-07
9.03822e-07
4.26229e-07
3.3401e-07
2.8814e-07
1.51642e-07
1.81338e-07
1.18511e-07
5.13545e-08
1.22978e-08
0
)
;
    }
    walls
    {
        type            extrapolatedCalculated;
        value           nonuniform List<scalar> 0();
    }
    frontAndBack
    {
        type            empty;
    }
    procBoundary7to3
    {
        type            processor;
        value           nonuniform List<scalar> 
16
(
0.00163977
0.000431636
0.00139596
0.000628351
0.00127877
-0.000198238
-0.000681301
-0.00115846
0.000703656
0.000703656
-0.000314746
8.26824e-05
0.00162879
-0.00196214
-0.00102161
0.000547533
)
;
    }
    procBoundary7to6
    {
        type            processor;
        value           nonuniform List<scalar> 
91
(
5.52548e-07
-5.08838e-07
-5.08838e-07
-1.04525e-06
-1.04525e-06
-6.75611e-07
-6.75611e-07
6.39946e-08
-4.30492e-07
-4.30492e-07
-1.06685e-08
1.73913e-07
1.73913e-07
5.25591e-07
4.18566e-07
7.39172e-07
7.39172e-07
1.58502e-06
-1.92573e-07
6.99887e-07
6.99887e-07
2.80132e-06
-5.31337e-07
-4.5174e-07
1.32054e-06
1.32054e-06
6.31934e-06
-4.18504e-06
3.53404e-06
-4.21358e-06
3.49738e-06
3.49738e-06
6.2561e-07
3.35887e-06
2.77158e-06
9.44697e-07
5.51634e-06
-4.30817e-06
8.56159e-06
8.56159e-06
-1.08876e-05
8.93994e-06
-7.68793e-06
7.95052e-06
-4.61366e-06
6.66345e-06
-2.36328e-06
4.95755e-06
-1.10383e-06
3.39155e-06
-1.72866e-06
4.72395e-06
4.72395e-06
-0.000613461
-0.000502349
-0.000362499
-0.000278568
-0.000196207
-0.00014883
-9.43079e-05
-8.08855e-05
-3.05622e-05
-4.1786e-05
9.05519e-06
-2.40725e-05
2.68934e-05
-1.48991e-05
3.46532e-05
-1.22489e-05
3.81657e-05
-9.9373e-06
4.12294e-05
-9.18969e-06
4.29313e-05
-8.60706e-06
4.28463e-05
-8.62665e-06
4.06836e-05
-8.13439e-06
3.88534e-05
-7.90054e-06
3.7829e-05
-7.9437e-06
3.50163e-05
-7.64016e-06
2.99919e-05
-7.1838e-06
2.77325e-05
-1.33093e-05
4.28962e-05
4.28962e-05
)
;
    }
}


// ************************************************************************* //
