/*--------------------------------*- C++ -*----------------------------------*\
| =========                 |                                                 |
| \\      /  F ield         | OpenFOAM: The Open Source CFD Toolbox           |
|  \\    /   O peration     | Version:  2506                                  |
|   \\  /    A nd           | Website:  www.openfoam.com                      |
|    \\/     M anipulation  |                                                 |
\*---------------------------------------------------------------------------*/
FoamFile
{
    version     2.0;
    format      ascii;
    arch        "LSB;label=32;scalar=64";
    class       volScalarField;
    location    "100";
    object      p;
}
// * * * * * * * * * * * * * * * * * * * * * * * * * * * * * * * * * * * * * //

dimensions      [0 2 -2 0 0 0 0];

internalField   nonuniform List<scalar> 
1340
(
-5.17056
-0.73783
-4.98918
-3.67805
-0.765025
-4.87309
-2.46019
-3.5959
-0.763767
-4.79028
-3.37283
-3.49019
-2.39584
-3.50746
-0.761281
-4.69717
-3.92981
-3.76113
-3.25727
-3.37993
-2.32905
-3.41002
-0.759269
-4.58994
-4.50608
-4.27701
-4.0699
-3.77002
-3.61838
-3.13949
-3.26641
-2.26029
-3.30925
-0.752529
-4.47977
-4.78895
-4.61641
-4.45055
-4.27732
-4.07059
-3.88489
-3.6074
-3.47315
-3.02024
-3.15129
-2.18968
-3.20836
-0.740191
-4.37162
-4.98156
-4.89102
-4.77728
-4.64236
-4.48803
-4.34041
-4.19614
-4.04466
-3.86001
-3.69563
-3.44105
-3.32447
-2.89858
-3.03409
-2.11659
-3.10699
-0.723524
-4.26423
-4.49
-4.56131
-4.60458
-4.61955
-4.60776
-4.56988
-4.50746
-4.42169
-4.31468
-4.18764
-4.06331
-3.93946
-3.80865
-3.64542
-3.50176
-3.27018
-3.1713
-2.77316
-2.91348
-2.04
-3.00335
-0.702961
-4.15503
-2.73546
-2.9747
-3.19707
-3.40068
-3.58361
-3.74413
-3.8811
-3.99341
-4.08027
-4.14147
-4.17698
-4.18721
-4.17289
-4.13472
-4.07387
-3.99197
-3.88982
-3.78701
-3.68218
-3.57074
-3.42784
-3.30393
-3.09492
-3.01329
-2.64324
-2.78861
-1.95907
-2.8962
-0.678116
-4.04302
0.697025
0.461747
0.218017
-0.0323121
-0.287798
-0.546064
-0.805776
-1.06496
-1.32256
-1.57673
-1.82629
-2.06899
-2.30329
-2.52658
-2.73734
-2.93304
-3.11231
-3.27303
-3.41413
-3.53394
-3.63172
-3.70658
-3.75821
-3.78664
-3.79188
-3.77469
-3.73553
-3.67608
-3.59643
-3.51328
-3.42605
-3.33251
-3.2087
-3.10324
-2.91599
-2.8508
-2.5087
-2.65906
-1.8735
-2.78485
-0.649108
-3.92813
3.79305
3.75986
3.73019
3.70263
3.67284
3.63941
3.60263
3.56304
3.52116
3.4784
3.43656
3.39772
3.36157
3.32494
3.2828
3.23262
3.17459
3.11186
3.04709
2.98215
2.91622
2.84735
2.77185
2.68753
2.59315
2.48931
2.3767
2.25792
2.13273
1.9974
1.85075
1.69802
1.54196
1.38312
1.21995
1.0509
0.873545
0.687034
0.490711
0.285705
0.0732957
-0.144351
-0.365951
-0.589907
-0.815492
-1.04145
-1.26693
-1.49032
-1.71016
-1.92432
-2.13104
-2.32824
-2.51415
-2.68692
-2.84494
-2.98658
-3.11043
-3.21522
-3.29996
-3.36397
-3.40679
-3.42827
-3.42862
-3.40832
-3.36852
-3.30901
-3.2437
-3.17258
-3.09552
-2.9894
-2.90103
-2.7344
-2.68447
-2.36978
-2.5247
-1.783
-2.66876
-0.616004
-3.80982
3.27348
3.2403
3.21063
3.18324
3.15366
3.12048
3.0847
3.04828
3.01298
2.98036
2.95098
2.92486
2.9004
2.8738
2.83898
2.79267
2.73633
2.67491
2.61254
2.5517
2.49211
2.4324
2.36956
2.30067
2.22316
2.13666
2.04128
1.93884
1.83158
1.71993
1.60055
1.47447
1.34619
1.2177
1.08687
0.950996
0.80693
0.653591
0.490728
0.319845
0.142178
-0.0405201
-0.227551
-0.418028
-0.611783
-0.808014
-1.00607
-1.20439
-1.40157
-1.5956
-1.78483
-1.96738
-2.14166
-2.3059
-2.45854
-2.59792
-2.72253
-2.83101
-2.92217
-2.99504
-3.04889
-3.08322
-3.09815
-3.09369
-3.07092
-3.02914
-2.97978
-2.92333
-2.86126
-2.77155
-2.69874
-2.55142
-2.51525
-2.22707
-2.3854
-1.68761
-2.54682
-0.579179
-3.68665
2.87994
2.8473
2.81775
2.79089
2.76323
2.73389
2.70391
2.67499
2.64819
2.62396
2.6013
2.57851
2.55327
2.52315
2.48495
2.43659
2.37928
2.31802
2.25735
2.19961
2.14442
2.09056
2.0359
1.97828
1.915
1.84461
1.76657
1.68179
1.59173
1.49896
1.40286
1.30102
1.19443
1.08682
0.977577
0.863979
0.743048
0.613891
0.476753
0.333294
0.184624
0.0318369
-0.125118
-0.286139
-0.451611
-0.621027
-0.793806
-0.968443
-1.14357
-1.31738
-1.48848
-1.65522
-1.81622
-1.96987
-2.11466
-2.24897
-2.37131
-2.48023
-2.57444
-2.65277
-2.71431
-2.75838
-2.78485
-2.79345
-2.78502
-2.75855
-2.72331
-2.68002
-2.63158
-2.55688
-2.49818
-2.36871
-2.34451
-2.0817
-2.24136
-1.58777
-2.41777
-0.538977
-3.55586
2.50816
2.48041
2.45598
2.43501
2.4145
2.39357
2.37233
2.35103
2.3293
2.30681
2.28253
2.25522
2.22329
2.18591
2.14278
2.09462
2.04264
1.9895
1.93793
1.88948
1.84348
1.79881
1.75404
1.70819
1.65954
1.60643
1.54711
1.48113
1.40857
1.33136
1.25152
1.16866
1.08024
0.987415
0.891983
0.793229
0.688605
0.577113
0.459175
0.336629
0.210465
0.08119
-0.051896
-0.189286
-0.331578
-0.478351
-0.628963
-0.781964
-0.936184
-1.09014
-1.24279
-1.39281
-1.53909
-1.68016
-1.81471
-1.94119
-2.05819
-2.16426
-2.25811
-2.33852
-2.40446
-2.45513
-2.49019
-2.50904
-2.51235
-2.49877
-2.47576
-2.44421
-2.40793
-2.347
-2.30082
-2.18812
-2.17349
-1.9356
-2.09274
-1.48562
-2.27902
-0.497775
-3.41312
2.2636
2.23822
2.21532
2.19559
2.17716
2.15903
2.14026
2.11925
2.09451
2.06581
2.03374
1.99908
1.96185
1.92197
1.87991
1.83747
1.7965
1.7574
1.71782
1.67509
1.6276
1.57553
1.5197
1.46186
1.40342
1.34592
1.29041
1.23856
1.19128
1.14882
1.11083
1.07549
1.03504
0.97875
0.899959
0.80109
0.691103
0.57852
0.46603
0.353298
0.239335
0.123627
0.00516736
-0.11674
-0.242708
-0.372307
-0.50492
-0.639326
-0.774726
-0.910103
-1.04485
-1.17803
-1.30881
-1.43599
-1.55841
-1.67471
-1.78362
-1.88385
-1.97417
-2.05343
-2.12059
-2.1748
-2.21544
-2.24176
-2.25416
-2.25113
-2.23843
-2.21714
-2.19152
-2.14319
-2.10787
-2.01135
-2.00316
-1.79133
-1.93953
-1.3847
-2.12898
-0.46032
-3.2544
1.91163
1.88629
1.86261
1.84114
1.81987
1.79792
1.77479
1.74955
1.72122
1.6899
1.65667
1.62306
1.58997
1.55745
1.52496
1.49249
1.46089
1.43173
1.40569
1.38124
1.35544
1.32678
1.2957
1.26379
1.23217
1.20132
1.17023
1.1374
1.10159
1.06204
1.01741
0.966504
0.908062
0.841116
0.766246
0.685314
0.599086
0.508711
0.415893
0.321665
0.225835
0.127904
0.0270921
-0.0769858
-0.184425
-0.294576
-0.406737
-0.519921
-0.633707
-0.747539
-0.861258
-0.974287
-1.08617
-1.19589
-1.30262
-1.40517
-1.50262
-1.59377
-1.67768
-1.75321
-1.81947
-1.87545
-1.92043
-1.95345
-1.97459
-1.98233
-1.98023
-1.97009
-1.95542
-1.92197
-1.89691
-1.82173
-1.81578
-1.64068
-1.76756
-1.28578
-1.95614
-0.433566
-3.07483
1.57078
1.54814
1.52687
1.5067
1.48489
1.46056
1.43479
1.40879
1.38332
1.35837
1.33349
1.30847
1.2837
1.25964
1.23608
1.21215
1.18753
1.1633
1.14161
1.12393
1.10933
1.09472
1.07741
1.0567
1.03323
1.00754
0.979068
0.946009
0.906101
0.857756
0.800715
0.735572
0.66433
0.590828
0.519353
0.452001
0.387172
0.321395
0.253056
0.182661
0.110615
0.0363349
-0.0409988
-0.121728
-0.205573
-0.291629
-0.379031
-0.467021
-0.555456
-0.644275
-0.733707
-0.823451
-0.913164
-1.00202
-1.08935
-1.17428
-1.25614
-1.33404
-1.4072
-1.47467
-1.53565
-1.58918
-1.63447
-1.67048
-1.69711
-1.71267
-1.71924
-1.7183
-1.71377
-1.69284
-1.67986
-1.62133
-1.62587
-1.47403
-1.60286
-1.15897
-1.80886
-0.361602
-2.96105
1.2893
1.26984
1.25244
1.23661
1.21854
1.1972
1.17445
1.15256
1.13275
1.11466
1.09663
1.07708
1.05595
1.03469
1.01453
0.994937
0.974134
0.950922
0.925937
0.901018
0.877464
0.854507
0.829336
0.799128
0.763401
0.723884
0.683119
0.642962
0.603845
0.564914
0.524928
0.483096
0.439044
0.392106
0.341998
0.289161
0.234834
0.179693
0.123609
0.066245
0.00760842
-0.052756
-0.11542
-0.180656
-0.247915
-0.316306
-0.385001
-0.45366
-0.522498
-0.59184
-0.661981
-0.732628
-0.803432
-0.873689
-0.943069
-1.01094
-1.07701
-1.14053
-1.20106
-1.25773
-1.31006
-1.35703
-1.39812
-1.43216
-1.45924
-1.47735
-1.48811
-1.49235
-1.49408
-1.48166
-1.47738
-1.43149
-1.44484
-1.31147
-1.44441
-1.02985
-1.66982
-0.278674
-2.85542
1.01355
0.998462
0.985086
0.97172
0.955014
0.934377
0.912374
0.892462
0.875552
0.859613
0.841349
0.819711
0.796599
0.775312
0.756985
0.739906
0.72085
0.698271
0.673116
0.648009
0.624663
0.602705
0.579488
0.552128
0.519512
0.483052
0.445386
0.408782
0.374262
0.341358
0.308724
0.275181
0.240149
0.202811
0.16234
0.118682
0.0729586
0.0262063
-0.0213406
-0.0701138
-0.120284
-0.171988
-0.225035
-0.278981
-0.333088
-0.386937
-0.44056
-0.494385
-0.548846
-0.603991
-0.659593
-0.71512
-0.770283
-0.82468
-0.878137
-0.930261
-0.980785
-1.0292
-1.07514
-1.11798
-1.15717
-1.19204
-1.22178
-1.24634
-1.26392
-1.27576
-1.28249
-1.28756
-1.28068
-1.28203
-1.24608
-1.2657
-1.14936
-1.28428
-0.900044
-1.52595
-0.195781
-2.72836
0.747115
0.730451
0.712819
0.694818
0.67557
0.654934
0.634705
0.617025
0.601922
0.586777
0.568297
0.545412
0.520511
0.497799
0.48005
0.466471
0.453434
0.437234
0.416729
0.393666
0.371015
0.35055
0.331837
0.312519
0.290074
0.263495
0.234121
0.204321
0.176267
0.150818
0.127496
0.104665
0.0809024
0.0553685
0.0276775
-0.00288648
-0.036372
-0.0722028
-0.109433
-0.147992
-0.187782
-0.22858
-0.269643
-0.310497
-0.35068
-0.390245
-0.429491
-0.469046
-0.509338
-0.550473
-0.592244
-0.634215
-0.676092
-0.717456
-0.75815
-0.797863
-0.836509
-0.873772
-0.90943
-0.943002
-0.974048
-1.00204
-1.0263
-1.04688
-1.06204
-1.07313
-1.08046
-1.08675
-1.08292
-1.08748
-1.05899
-1.0829
-0.981787
-1.11749
-0.763345
-1.37321
-0.106982
-2.57956
0.695677
0.67382
0.650461
0.627884
0.606251
0.584184
0.561719
0.5402
0.521198
0.504005
0.486371
0.465631
0.44171
0.416671
0.393834
0.374426
0.357339
0.339248
0.31782
0.292535
0.265499
0.23897
0.214524
0.191447
0.168207
0.142901
0.115464
0.0869536
0.0594843
0.034172
0.0114395
-0.00975899
-0.0307713
-0.0533178
-0.0778145
-0.104461
-0.133167
-0.164129
-0.196644
-0.230143
-0.263865
-0.297346
-0.329533
-0.359783
-0.387769
-0.414051
-0.439406
-0.464854
-0.491043
-0.518256
-0.546326
-0.574782
-0.603209
-0.631153
-0.658547
-0.685257
-0.711434
-0.7369
-0.761558
-0.784993
-0.806895
-0.826862
-0.844334
-0.85945
-0.870563
-0.879299
-0.885535
-0.891121
-0.888116
-0.893605
-0.870049
-0.896122
-0.807674
-0.942957
-0.616436
-1.20949
-0.00632966
-2.40628
0.346093
0.323765
0.303216
0.286812
0.273979
0.261297
0.24631
0.229274
0.212677
0.198395
0.186031
0.172941
0.156605
0.136435
0.114433
0.0933921
0.0751179
0.0591075
0.0435807
0.0267412
0.00833874
-0.0107838
-0.029228
-0.0466042
-0.0632862
-0.0803497
-0.0980202
-0.115887
-0.132639
-0.147706
-0.161036
-0.173621
-0.186305
-0.200271
-0.215928
-0.233207
-0.251034
-0.269
-0.286952
-0.305108
-0.323078
-0.340523
-0.356759
-0.371496
-0.38472
-0.3973
-0.410302
-0.424768
-0.441144
-0.459266
-0.478481
-0.497821
-0.516602
-0.534325
-0.551134
-0.567136
-0.582725
-0.597834
-0.612508
-0.626437
-0.639528
-0.65153
-0.662063
-0.671306
-0.677725
-0.683272
-0.687607
-0.691591
-0.688309
-0.693491
-0.673237
-0.699878
-0.621897
-0.755113
-0.454257
-1.02666
0.109629
-2.18085
0.139864
0.127033
0.108139
0.0922669
0.0849113
0.081872
0.076442
0.064695
0.0489296
0.0331893
0.0209029
0.0107773
-0.000169613
-0.015718
-0.0358787
-0.0588174
-0.0804533
-0.0987344
-0.112591
-0.123719
-0.133344
-0.143291
-0.153728
-0.165419
-0.178037
-0.191997
-0.20632
-0.220288
-0.232225
-0.24207
-0.250351
-0.259268
-0.270235
-0.284484
-0.301781
-0.321875
-0.343486
-0.3653
-0.385611
-0.403399
-0.417705
-0.428093
-0.434377
-0.436921
-0.436447
-0.434414
-0.432655
-0.432669
-0.435143
-0.439634
-0.445208
-0.450545
-0.455038
-0.458336
-0.461032
-0.463421
-0.466133
-0.469031
-0.472236
-0.475425
-0.47869
-0.481836
-0.484632
-0.487257
-0.488279
-0.490181
-0.49198
-0.493741
-0.489355
-0.493246
-0.47475
-0.500524
-0.430179
-0.559436
-0.280991
-0.824206
0.234951
-1.8728
-0.935778
-0.934011
-0.931302
-0.929017
-0.92891
-0.931896
-0.938266
-0.948189
-0.960569
-0.972856
-0.982437
-0.988485
-0.992641
-0.997778
-1.00584
-1.01622
-1.02623
-1.03239
-1.03249
-1.02598
-1.01435
-0.999772
-0.984772
-0.970936
-0.959297
-0.949262
-0.939813
-0.928789
-0.914829
-0.897335
-0.877905
-0.857856
-0.837792
-0.815082
-0.785391
-0.742964
-0.683533
-0.604606
-0.508268
-0.401755
-0.298007
-0.210411
-0.148662
-0.114813
-0.104484
-0.109323
-0.122137
-0.138258
-0.155903
-0.173653
-0.190476
-0.20497
-0.216761
-0.22582
-0.233043
-0.238876
-0.24383
-0.247766
-0.250839
-0.253032
-0.254646
-0.255741
-0.256259
-0.256598
-0.255595
-0.255751
-0.256709
-0.257824
-0.253812
-0.257821
-0.242348
-0.267298
-0.207079
-0.325201
-0.0867585
-0.5503
0.325494
-1.31151
0.432966
0.436026
0.434276
0.430084
0.425127
0.42109
0.418035
0.414728
0.409092
0.400934
0.391605
0.383599
0.378191
0.375307
0.373546
0.37188
0.369987
0.368578
0.368217
0.368965
0.369666
0.368491
0.363324
0.352623
0.335752
0.313641
0.288618
0.264897
0.247396
0.240539
0.245548
0.259684
0.275741
0.285082
0.278383
0.24755
0.184822
0.0853862
-0.0508728
-0.213827
-0.383122
-0.530517
-0.630411
-0.669274
-0.653165
-0.601607
-0.536795
-0.472886
-0.415872
-0.365898
-0.322014
-0.282972
-0.248701
-0.219093
-0.1945
-0.174546
-0.158882
-0.146571
-0.136877
-0.128876
-0.121979
-0.115776
-0.110056
-0.105244
-0.100348
-0.0985122
-0.0976193
-0.0969415
-0.0923249
-0.0937983
-0.0811675
-0.0978175
-0.0552979
-0.131392
0.0180954
-0.246936
0.249604
-0.575347
)
;

boundaryField
{
    inlet
    {
        type            freestreamPressure;
        freestreamValue uniform 0;
        value           nonuniform List<scalar> 
27
(
-2.25947
-2.18031
-2.12971
-2.09368
-2.05315
-2.00643
-1.95843
-1.91131
-1.86452
-1.81693
-1.7681
-1.718
-1.66639
-1.61265
-1.55555
-1.49321
-1.42385
-1.34534
-1.2956
-1.2494
-1.19379
-1.12865
-1.05276
-0.954026
-0.819116
-0.573491
-0.251492
)
;
    }
    outlet
    {
        type            freestreamPressure;
        freestreamValue uniform 0;
        value           nonuniform List<scalar> 
78
(
0.00154679
0.00156133
0.00155646
0.00154275
0.00152657
0.0015133
0.00150229
0.00148927
0.00146783
0.00143834
0.00140582
0.00137844
0.00135979
0.00134912
0.00134167
0.00133431
0.00132624
0.00131978
0.00131648
0.00131602
0.00131432
0.00130554
0.00128353
0.00124429
0.00118644
0.00111264
0.00102934
0.0009489
0.000886646
0.000856934
0.000864737
0.000903187
0.00095179
0.000984644
0.000971284
0.000881683
0.000683754
0.000354648
-0.000108241
-0.000665049
-0.0012371
-0.00172446
-0.00204642
-0.00216761
-0.00211397
-0.00194962
-0.0017445
-0.00154261
-0.00136241
-0.00120405
-0.00106439
-0.000939441
-0.000829092
-0.000733179
-0.000653169
-0.000588206
-0.000537478
-0.000498017
-0.000467332
-0.000442207
-0.000420597
-0.000401133
-0.000383143
-0.000368151
-0.000352776
-0.000347769
-0.00034599
-0.000344986
-0.000330205
-0.000336816
-0.000293584
-0.000354373
-0.000203206
-0.000478227
6.83065e-05
-0.000887311
0.00100413
-0.0019208
)
;
    }
    walls
    {
        type            zeroGradient;
    }
    frontAndBack
    {
        type            empty;
    }
    procBoundary7to3
    {
        type            processor;
        value           nonuniform List<scalar> 
16
(
3.82578
3.30678
2.91219
2.53605
2.28783
1.93627
1.59319
1.30982
1.03193
1.03193
0.76698
0.717733
0.36708
0.150866
-0.938052
0.435191
)
;
    }
    procBoundary7to6
    {
        type            processor;
        value           nonuniform List<scalar> 
91
(
-5.28524
-0.658354
-0.658354
-3.77562
-3.77562
-2.5196
-2.5196
-3.48388
-3.5941
-3.5941
-4.08624
-3.90055
-3.90055
-4.73119
-4.47982
-4.25141
-4.25141
-5.08896
-4.89013
-4.70173
-4.70173
-5.40545
-5.2834
-5.13835
-4.97279
-4.97279
-5.02447
-5.07545
-5.09519
-5.08533
-5.04672
-5.04672
-3.22943
-3.4824
-3.714
-3.92215
-4.10497
-4.26131
-4.38954
-4.38954
0.678668
0.399545
0.113396
-0.178269
-0.474069
-0.771559
-1.06894
-1.36388
-1.65465
-1.93913
-2.21555
-2.48161
-2.48161
4.23606
4.21023
4.18775
4.16428
4.13813
4.11024
4.08096
4.04926
4.01391
3.97434
3.93121
3.88604
3.84073
3.79569
3.74917
3.69848
3.64278
3.58264
3.51944
3.45313
3.3823
3.30367
3.21517
3.11592
3.00657
2.88735
2.75996
2.62353
2.47382
2.30859
2.13268
1.94852
1.75702
1.55839
1.35365
1.14221
0.923994
0.923994
)
;
    }
}


// ************************************************************************* //
