/*--------------------------------*- C++ -*----------------------------------*\
| =========                 |                                                 |
| \\      /  F ield         | OpenFOAM: The Open Source CFD Toolbox           |
|  \\    /   O peration     | Version:  2506                                  |
|   \\  /    A nd           | Website:  www.openfoam.com                      |
|    \\/     M anipulation  |                                                 |
\*---------------------------------------------------------------------------*/
FoamFile
{
    version     2.0;
    format      ascii;
    arch        "LSB;label=32;scalar=64";
    class       volSymmTensorField;
    location    "100";
    object      turbulenceProperties:devReff;
}
// * * * * * * * * * * * * * * * * * * * * * * * * * * * * * * * * * * * * * //

dimensions      [0 2 -2 0 0 0 0];

internalField   nonuniform List<symmTensor> 
1340
(
(8.96301e-08 3.76402e-08 -6.49694e-20 -1.29747e-07 -7.61707e-21 4.01173e-08)
(-6.97991e-08 -1.24424e-08 -6.41817e-20 1.03903e-07 -8.43946e-21 -3.41035e-08)
(9.23576e-08 4.02007e-08 3.36568e-20 -1.3183e-07 3.87666e-21 3.94727e-08)
(5.7329e-08 5.07237e-08 3.44517e-19 -8.49492e-08 4.21974e-20 2.76202e-08)
(-6.11159e-08 -1.38119e-08 5.22599e-23 9.83948e-08 -1.84682e-22 -3.72788e-08)
(8.45679e-08 4.53947e-08 -4.72563e-22 -1.28973e-07 1.12014e-22 4.44049e-08)
(-1.59259e-08 2.77478e-08 -1.75312e-19 3.58469e-08 -2.22734e-20 -1.9921e-08)
(5.55341e-08 4.83304e-08 6.16762e-21 -8.43097e-08 1.10324e-21 2.87756e-08)
(-5.59472e-08 -1.44716e-08 7.67625e-20 9.47902e-08 9.97981e-21 -3.88429e-08)
(8.13324e-08 4.79501e-08 -1.53657e-19 -1.28074e-07 -1.80232e-20 4.67417e-08)
(1.02547e-08 4.13659e-08 -4.18705e-19 -1.32142e-09 -5.25634e-20 -8.93328e-09)
(3.59454e-08 4.70094e-08 -2.29073e-19 -4.91251e-08 -2.80445e-20 1.31797e-08)
(-1.48075e-08 2.77211e-08 7.71868e-20 3.50629e-08 9.76704e-21 -2.02554e-08)
(5.55954e-08 4.53154e-08 -1.1405e-19 -8.45361e-08 -1.39811e-20 2.89407e-08)
(-5.32925e-08 -1.42962e-08 -3.23038e-19 9.24972e-08 -4.20064e-20 -3.92047e-08)
(8.17423e-08 4.89737e-08 1.47069e-19 -1.28917e-07 1.70289e-20 4.71745e-08)
(2.63138e-08 4.9363e-08 6.19002e-20 -2.28613e-08 7.75322e-21 -3.45248e-09)
(3.25575e-08 4.96553e-08 -1.65622e-20 -3.80952e-08 -2.11219e-21 5.53773e-09)
(1.04549e-08 4.02709e-08 1.00532e-21 -1.41052e-09 -1.8165e-22 -9.04443e-09)
(3.62617e-08 4.43305e-08 4.74914e-22 -4.95635e-08 -7.08566e-23 1.33017e-08)
(-1.39595e-08 2.77553e-08 5.45737e-20 3.43785e-08 6.99117e-21 -2.0419e-08)
(5.56342e-08 4.23548e-08 -6.00186e-21 -8.47519e-08 -8.98695e-22 2.91176e-08)
(-5.09034e-08 -1.40564e-08 1.12496e-22 9.05243e-08 -4.22049e-24 -3.96208e-08)
(8.20385e-08 4.99095e-08 -3.49625e-22 -1.29771e-07 8.31606e-23 4.77329e-08)
(4.62656e-08 5.29334e-08 -1.39519e-19 -4.70719e-08 -1.76143e-20 8.06242e-10)
(3.88527e-08 5.14995e-08 -1.77786e-19 -3.77377e-08 -2.21511e-20 -1.11495e-09)
(3.73099e-08 5.11597e-08 -2.22538e-19 -3.95166e-08 -2.74056e-20 2.20673e-09)
(2.59905e-08 4.72272e-08 -9.04429e-20 -2.255e-08 -1.09616e-20 -3.44047e-09)
(3.24962e-08 4.72369e-08 1.00427e-20 -3.82573e-08 1.4586e-21 5.76106e-09)
(1.04499e-08 3.92023e-08 1.70341e-19 -1.42602e-09 2.13085e-20 -9.02389e-09)
(3.62394e-08 4.1795e-08 3.53019e-20 -4.97957e-08 4.19717e-21 1.35564e-08)
(-1.31869e-08 2.77225e-08 -1.22009e-19 3.37214e-08 -1.53704e-20 -2.05345e-08)
(5.51879e-08 3.97714e-08 1.0947e-19 -8.47833e-08 1.33403e-20 2.95954e-08)
(-4.84462e-08 -1.39733e-08 9.98544e-23 8.87233e-08 -6.25143e-23 -4.02771e-08)
(8.14481e-08 5.09107e-08 1.73089e-22 -1.30284e-07 -3.8393e-23 4.88363e-08)
(6.09073e-08 4.75615e-08 -3.29208e-20 -6.08782e-08 -3.73892e-21 -2.91699e-11)
(5.49104e-08 4.84111e-08 1.63416e-19 -5.52207e-08 2.00262e-20 3.10326e-10)
(4.89521e-08 4.89131e-08 1.90023e-20 -4.85553e-08 2.19585e-21 -3.96864e-10)
(4.51502e-08 4.94161e-08 1.09497e-19 -4.59654e-08 1.34e-20 8.15219e-10)
(3.80149e-08 4.84231e-08 2.78533e-22 -3.68626e-08 -2.10534e-22 -1.15225e-09)
(3.68442e-08 4.82305e-08 5.98612e-22 -3.91291e-08 -3.78387e-23 2.28496e-09)
(2.56073e-08 4.5028e-08 7.57769e-20 -2.21582e-08 9.35147e-21 -3.44908e-09)
(3.23297e-08 4.47906e-08 -9.56692e-21 -3.82805e-08 -1.24823e-21 5.95078e-09)
(1.04244e-08 3.80672e-08 -4.94562e-22 -1.43793e-09 1.27624e-22 -8.98645e-09)
(3.60818e-08 3.9368e-08 -1.02174e-22 -4.9925e-08 3.50287e-23 1.38433e-08)
(-1.24303e-08 2.75583e-08 2.13469e-22 3.30829e-08 -3.96569e-23 -2.06527e-08)
(5.4595e-08 3.74742e-08 -3.62003e-22 -8.47944e-08 9.09989e-23 3.01994e-08)
(-4.62808e-08 -1.39602e-08 2.78978e-19 8.72574e-08 3.64537e-20 -4.09765e-08)
(8.06743e-08 5.16801e-08 7.48817e-20 -1.30744e-07 8.72266e-21 5.00692e-08)
(8.62102e-08 2.74591e-08 -9.04309e-20 -8.62394e-08 -1.0725e-20 2.91942e-11)
(7.88956e-08 3.33838e-08 6.68016e-20 -7.89014e-08 8.25286e-21 5.7624e-12)
(7.17153e-08 3.79332e-08 3.37815e-20 -7.16953e-08 3.91881e-21 -2.00317e-11)
(6.47894e-08 4.12924e-08 -1.25919e-20 -6.47744e-08 -1.61094e-21 -1.50008e-11)
(5.80486e-08 4.32515e-08 1.14521e-22 -5.79606e-08 -1.4189e-23 -8.79381e-11)
(5.27243e-08 4.43953e-08 -3.83578e-22 -5.29783e-08 7.15127e-23 2.54071e-10)
(4.72334e-08 4.52379e-08 -4.32313e-23 -4.67535e-08 -1.76602e-22 -4.79969e-10)
(4.39039e-08 4.59899e-08 -1.19276e-19 -4.46659e-08 -1.46311e-20 7.62011e-10)
(3.71037e-08 4.53734e-08 -5.7134e-20 -3.58521e-08 -6.78274e-21 -1.25157e-09)
(3.63266e-08 4.52747e-08 7.15413e-20 -3.86028e-08 8.85649e-21 2.27617e-09)
(2.52505e-08 4.27455e-08 -7.21463e-20 -2.17237e-08 -9.0059e-21 -3.52681e-09)
(3.21727e-08 4.22816e-08 1.76375e-23 -3.82151e-08 -4.5249e-23 6.04246e-09)
(1.0484e-08 3.68103e-08 -1.54261e-19 -1.48012e-09 -1.93035e-20 -9.00392e-09)
(3.59534e-08 3.69862e-08 -3.19542e-20 -5.00209e-08 -3.80629e-21 1.40675e-08)
(-1.16544e-08 2.72449e-08 6.31986e-20 3.24606e-08 7.96777e-21 -2.08062e-08)
(5.41311e-08 3.53029e-08 -9.92792e-20 -8.48889e-08 -1.21113e-20 3.07578e-08)
(-4.4483e-08 -1.39469e-08 -2.35443e-19 8.61277e-08 -3.06797e-20 -4.16447e-08)
(8.02386e-08 5.20972e-08 -9.54438e-20 -1.31461e-07 -1.09736e-20 5.12223e-08)
(1.03961e-07 -2.41769e-08 -8.41825e-20 -1.04125e-07 -9.9326e-21 1.64525e-10)
(1.001e-07 -1.24045e-08 -1.26682e-20 -1.00235e-07 -1.2954e-21 1.34989e-10)
(9.55037e-08 -1.80263e-09 -1.31382e-20 -9.55992e-08 -1.5436e-21 9.55231e-11)
(9.03282e-08 7.65848e-09 -2.03492e-20 -9.03915e-08 -2.33396e-21 6.33148e-11)
(8.47181e-08 1.59425e-08 -4.01014e-21 -8.47559e-08 -3.08808e-22 3.77423e-11)
(7.8825e-08 2.30645e-08 5.70332e-20 -7.88283e-08 6.90097e-21 3.2717e-12)
(7.27927e-08 2.89908e-08 6.5949e-20 -7.2769e-08 7.8699e-21 -2.37217e-11)
(6.6748e-08 3.36577e-08 -8.43929e-23 -6.66871e-08 -5.57736e-23 -6.08921e-11)
(6.08417e-08 3.71945e-08 2.84797e-20 -6.07922e-08 3.49267e-21 -4.95097e-11)
(5.49625e-08 3.93453e-08 1.83545e-20 -5.48178e-08 2.18114e-21 -1.4472e-10)
(5.0322e-08 4.06957e-08 -2.06315e-23 -5.05204e-08 -4.30473e-23 1.98407e-10)
(4.53227e-08 4.18086e-08 -2.20829e-24 -4.47637e-08 1.47141e-23 -5.59029e-10)
(4.24813e-08 4.27429e-08 4.34009e-22 -4.31763e-08 -9.72368e-25 6.94919e-10)
(3.60714e-08 4.24319e-08 5.46839e-20 -3.47036e-08 6.59117e-21 -1.36784e-09)
(3.57142e-08 4.2364e-08 -6.81648e-20 -3.79321e-08 -8.39951e-21 2.21793e-09)
(2.48839e-08 4.04298e-08 6.86951e-20 -2.12356e-08 8.551e-21 -3.64828e-09)
(3.20036e-08 3.97432e-08 1.02252e-24 -3.80514e-08 5.05684e-23 6.04789e-09)
(1.06142e-08 3.54418e-08 1.47209e-19 -1.53789e-09 1.83267e-20 -9.07626e-09)
(3.58726e-08 3.4633e-08 3.06561e-20 -5.00831e-08 3.58788e-21 1.42105e-08)
(-1.08706e-08 2.68011e-08 -6.01628e-20 3.18663e-08 -7.63317e-21 -2.09957e-08)
(5.38294e-08 3.31925e-08 1.5267e-22 -8.50581e-08 3.69228e-23 3.12287e-08)
(-4.29604e-08 -1.39403e-08 4.00399e-19 8.52605e-08 5.20752e-20 -4.23001e-08)
(8.00699e-08 5.21495e-08 2.57049e-22 -1.32308e-07 -1.02244e-22 5.22384e-08)
(7.7156e-08 -1.1942e-07 -1.84805e-20 -7.71575e-08 -2.16396e-21 1.51477e-12)
(8.24069e-08 -1.03998e-07 -4.22171e-20 -8.24244e-08 -4.78044e-21 1.75384e-11)
(8.64517e-08 -8.91042e-08 1.95513e-20 -8.64946e-08 2.26476e-21 4.28615e-11)
(8.92901e-08 -7.4781e-08 -3.68522e-20 -8.93303e-08 -4.35444e-21 4.02353e-11)
(9.09351e-08 -6.10592e-08 -1.2361e-20 -9.09665e-08 -1.25177e-21 3.14438e-11)
(9.14834e-08 -4.8023e-08 4.5231e-20 -9.15141e-08 5.32512e-21 3.06984e-11)
(9.09627e-08 -3.57347e-08 4.73536e-21 -9.10074e-08 4.66717e-22 4.46706e-11)
(8.95003e-08 -2.42444e-08 2.71265e-22 -8.95322e-08 -1.10515e-22 3.18492e-11)
(8.71528e-08 -1.36062e-08 -1.39643e-20 -8.71894e-08 -1.69046e-21 3.65892e-11)
(8.40684e-08 -3.87798e-09 -1.02803e-20 -8.40907e-08 -1.19338e-21 2.2261e-11)
(8.03351e-08 4.91734e-09 6.64341e-23 -8.03476e-08 7.82376e-24 1.25314e-11)
(7.61079e-08 1.27544e-08 8.72647e-24 -7.61086e-08 -1.00481e-23 6.7178e-13)
(7.14904e-08 1.95922e-08 -2.08829e-22 -7.14572e-08 1.83316e-23 -3.31965e-11)
(6.66418e-08 2.53871e-08 -1.04175e-20 -6.65842e-08 -1.17884e-21 -5.76012e-11)
(6.16593e-08 3.00371e-08 5.79039e-23 -6.15603e-08 -3.33351e-23 -9.90109e-11)
(5.67227e-08 3.36383e-08 -2.72419e-20 -5.66484e-08 -3.28928e-21 -7.4295e-11)
(5.16827e-08 3.58867e-08 -1.75203e-20 -5.14982e-08 -2.08777e-21 -1.84563e-10)
(4.77194e-08 3.73618e-08 -1.94549e-23 -4.78806e-08 2.21578e-23 1.61171e-10)
(4.32252e-08 3.86818e-08 -2.09639e-24 -4.26141e-08 1.79794e-22 -6.11044e-10)
(4.08724e-08 3.9743e-08 1.07876e-19 -4.15171e-08 1.32779e-20 6.44676e-10)
(3.48918e-08 3.96725e-08 2.83699e-20 -3.34281e-08 3.54819e-21 -1.46369e-09)
(3.49668e-08 3.95753e-08 1.11204e-19 -3.71173e-08 1.35789e-20 2.15054e-09)
(2.44583e-08 3.81471e-08 -6.54692e-20 -2.06862e-08 -8.18512e-21 -3.77201e-09)
(3.17736e-08 3.7231e-08 2.31392e-23 -3.77776e-08 -1.35851e-23 6.00399e-09)
(1.07576e-08 3.40014e-08 -1.00357e-19 -1.58371e-09 -1.23668e-20 -9.17389e-09)
(3.57998e-08 3.23218e-08 8.46141e-20 -5.00906e-08 1.05197e-20 1.42908e-08)
(-1.01133e-08 2.6258e-08 1.46133e-19 3.13102e-08 1.83392e-20 -2.11969e-08)
(5.36265e-08 3.11372e-08 -4.22769e-24 -8.52651e-08 -6.85252e-23 3.16385e-08)
(-4.17223e-08 -1.39653e-08 -1.46312e-22 8.47175e-08 2.95425e-23 -4.29952e-08)
(8.00777e-08 5.19125e-08 2.15161e-20 -1.33301e-07 2.50525e-21 5.32231e-08)
(-4.48937e-08 -2.5904e-07 1.238e-20 4.75645e-08 1.42142e-21 -2.67084e-09)
(-4.90089e-08 -3.29036e-07 6.44601e-22 5.1701e-08 8.63356e-23 -2.69206e-09)
(-3.50046e-08 -2.92065e-07 1.02555e-21 3.67291e-08 1.17072e-22 -1.72445e-09)
(-2.21709e-08 -2.54361e-07 4.68692e-20 2.33435e-08 5.38896e-21 -1.17267e-09)
(-1.13558e-08 -2.31046e-07 2.09215e-20 1.23905e-08 2.42464e-21 -1.03469e-09)
(-9.98104e-10 -2.11812e-07 3.30283e-20 2.07291e-09 3.78792e-21 -1.07481e-09)
(9.15945e-09 -1.93673e-07 1.03367e-20 -8.01659e-09 1.18761e-21 -1.14286e-09)
(1.89931e-08 -1.76606e-07 1.88296e-20 -1.78589e-08 2.13941e-21 -1.13415e-09)
(2.84076e-08 -1.6061e-07 -1.0842e-20 -2.73663e-08 -1.37104e-21 -1.04131e-09)
(3.72189e-08 -1.45526e-07 -6.50734e-20 -3.63342e-08 -7.44886e-21 -8.84765e-10)
(4.53234e-08 -1.31192e-07 1.24321e-20 -4.46053e-08 1.46727e-21 -7.18115e-10)
(5.2586e-08 -1.1746e-07 -1.71645e-20 -5.20254e-08 -2.01597e-21 -5.60546e-10)
(5.89442e-08 -1.04203e-07 4.05414e-23 -5.84796e-08 1.56042e-23 -4.64548e-10)
(6.43305e-08 -9.13523e-08 6.20396e-23 -6.39267e-08 -3.63953e-23 -4.03875e-10)
(6.87641e-08 -7.88676e-08 -1.20466e-23 -6.84176e-08 6.09878e-24 -3.46499e-10)
(7.21962e-08 -6.67616e-08 6.51807e-23 -7.18939e-08 -1.6216e-23 -3.02328e-10)
(7.46438e-08 -5.50852e-08 2.32186e-23 -7.43697e-08 -1.99102e-23 -2.74138e-10)
(7.61259e-08 -4.38739e-08 -8.84965e-23 -7.58989e-08 -2.95515e-23 -2.27021e-10)
(7.66885e-08 -3.31839e-08 -2.36463e-20 -7.65041e-08 -2.66992e-21 -1.84451e-10)
(7.63652e-08 -2.30674e-08 4.78282e-20 -7.62124e-08 5.70828e-21 -1.52792e-10)
(7.52349e-08 -1.3594e-08 -4.00303e-21 -7.51146e-08 -5.76787e-22 -1.20365e-10)
(7.33751e-08 -4.80049e-09 9.85886e-21 -7.32786e-08 1.17858e-21 -9.65144e-11)
(7.0871e-08 3.24749e-09 1.91566e-23 -7.07911e-08 -2.77236e-23 -7.99315e-11)
(6.78326e-08 1.05363e-08 -6.05441e-22 -6.77617e-08 -1.62294e-22 -7.09233e-11)
(6.43487e-08 1.69895e-08 -5.14588e-20 -6.42568e-08 -6.27323e-21 -9.1934e-11)
(6.0567e-08 2.2535e-08 -5.02406e-20 -6.046e-08 -5.90972e-21 -1.07018e-10)
(5.65578e-08 2.70598e-08 3.64182e-20 -5.6413e-08 4.44643e-21 -1.4482e-10)
(5.25329e-08 3.06217e-08 -2.8918e-20 -5.24294e-08 -3.55049e-21 -1.03542e-10)
(4.82894e-08 3.28819e-08 1.66761e-20 -4.80682e-08 2.05168e-21 -2.21198e-10)
(4.49849e-08 3.44102e-08 -7.26131e-23 -4.51162e-08 -2.31106e-23 1.31327e-10)
(4.09945e-08 3.58787e-08 -3.72296e-23 -4.03513e-08 -4.59192e-23 -6.43222e-10)
(3.91166e-08 3.70209e-08 -3.87911e-20 -3.97278e-08 -4.78707e-21 6.11163e-10)
(3.35852e-08 3.71378e-08 -7.65903e-20 -3.20554e-08 -9.46864e-21 -1.52977e-09)
(3.40885e-08 3.69597e-08 -1.06027e-19 -3.61809e-08 -1.28541e-20 2.09239e-09)
(2.39592e-08 3.59487e-08 2.84155e-20 -2.00837e-08 3.59622e-21 -3.87552e-09)
(3.14642e-08 3.47913e-08 1.56138e-20 -3.73976e-08 1.98616e-21 5.93341e-09)
(1.08845e-08 3.25283e-08 7.66461e-20 -1.61299e-09 9.50445e-21 -9.27148e-09)
(3.5719e-08 3.0063e-08 5.29059e-20 -5.00423e-08 6.49025e-21 1.43233e-08)
(-9.40194e-09 2.5634e-08 -1.14704e-22 3.07942e-08 -1.68222e-23 -2.13922e-08)
(5.34942e-08 2.91247e-08 -4.15081e-24 -8.54926e-08 -4.33152e-24 3.19984e-08)
(-4.07236e-08 -1.40085e-08 -5.45666e-23 8.43959e-08 -2.32194e-23 -4.36723e-08)
(8.02343e-08 5.14072e-08 -2.05286e-20 -1.34418e-07 -2.36409e-21 5.41835e-08)
(-7.60531e-08 3.83863e-07 -1.86726e-21 5.58706e-08 -1.82344e-22 2.01825e-08)
(-1.06225e-07 2.93504e-07 2.92156e-22 1.06918e-07 -6.44708e-24 -6.93043e-10)
(-1.42034e-07 2.38283e-07 1.08087e-21 1.63593e-07 1.53174e-22 -2.15588e-08)
(-1.37837e-07 1.95446e-07 -1.05161e-21 1.64326e-07 -9.85096e-23 -2.64887e-08)
(-8.99804e-08 1.34765e-07 -7.95627e-22 9.93932e-08 -1.30585e-22 -9.41279e-09)
(-8.39821e-08 1.48146e-07 1.95896e-21 8.33749e-08 2.15461e-22 6.07199e-10)
(-8.47031e-08 1.894e-07 1.17396e-21 7.77873e-08 1.79343e-22 6.91579e-09)
(-8.19787e-08 1.96179e-07 -1.2006e-21 7.14002e-08 -1.3575e-22 1.05785e-08)
(-5.53172e-08 5.0808e-09 3.35357e-22 4.20176e-08 6.77431e-24 1.32996e-08)
(-2.34328e-07 -1.23602e-05 5.72467e-20 -2.52875e-07 6.9594e-21 4.87203e-07)
(-2.57966e-06 -3.57589e-05 2.91622e-20 1.326e-06 4.61687e-21 1.25366e-06)
(-0.0011366 0.00452491 3.86043e-18 0.00112625 5.24894e-19 1.03511e-05)
(-0.0109244 0.0589473 -1.73766e-17 0.0110881 -1.59251e-18 -0.000163664)
(-0.0401016 0.223463 -1.01626e-16 0.0405503 -1.28989e-17 -0.000448625)
(-0.0907079 0.494019 4.67874e-17 0.0911643 2.70275e-18 -0.000456463)
(-0.155524 0.810585 3.82649e-16 0.155686 4.74024e-17 -0.000161948)
(-0.223251 1.10025 6.1377e-17 0.223103 1.0972e-17 0.000147696)
(-0.28139 1.2981 -1.11055e-16 0.281131 -1.34874e-17 0.000258609)
(-0.317739 1.3549 1.33614e-17 0.317576 -4.98475e-20 0.000162946)
(-0.322022 1.24188 2.08937e-16 0.322041 2.71276e-17 -1.85477e-05)
(-0.288036 0.955925 -1.14446e-16 0.288226 -1.54126e-17 -0.000189908)
(-0.215938 0.524273 4.03722e-16 0.216269 5.31585e-17 -0.00033155)
(-0.113326 0.00316723 -6.18792e-16 0.113717 -7.73389e-17 -0.00039133)
(0.00695898 -0.536605 6.95071e-16 -0.00664975 7.75895e-17 -0.00030923)
(0.128551 -1.01113 4.55914e-16 -0.12839 5.78293e-17 -0.000161277)
(0.228311 -1.32472 8.7929e-17 -0.228276 1.23307e-17 -3.48771e-05)
(0.280237 -1.39359 1.30957e-16 -0.280381 1.12712e-17 0.000143687)
(0.262459 -1.17533 9.37772e-16 -0.262767 1.10164e-16 0.000308677)
(0.175778 -0.729998 -5.07547e-17 -0.175991 -3.81947e-18 0.000212929)
(0.0698187 -0.278774 1.42904e-16 -0.0699023 1.76406e-17 8.35271e-05)
(0.0113725 -0.0480088 -1.28903e-16 -0.0114233 -1.42836e-17 5.08346e-05)
(0.000152289 -0.00207044 -3.73091e-17 -0.000163246 -4.44964e-18 1.0957e-05)
(-9.00084e-06 -1.14129e-06 7.30196e-20 8.86785e-06 6.99989e-21 1.32992e-07)
(-1.2315e-06 -1.65642e-06 -6.76119e-20 1.22898e-06 -8.10197e-21 2.51853e-09)
(-4.31715e-08 -2.53681e-07 1.11095e-20 4.4564e-08 1.28632e-21 -1.3925e-09)
(-3.03784e-08 -2.53629e-07 -3.44814e-21 3.24683e-08 -3.64619e-22 -2.08989e-09)
(-3.21349e-08 -2.12703e-07 -9.64277e-21 3.40536e-08 -1.1169e-21 -1.91876e-09)
(-3.11138e-08 -1.82384e-07 -8.65137e-21 3.24878e-08 -1.02325e-21 -1.37401e-09)
(-3.29581e-08 -2.05278e-07 1.00038e-20 3.402e-08 1.15155e-21 -1.06199e-09)
(-3.58695e-08 -2.59511e-07 -1.42655e-24 3.68449e-08 4.08641e-24 -9.75307e-10)
(-2.57599e-08 -2.28802e-07 1.7474e-24 2.67122e-08 1.87088e-23 -9.52346e-10)
(-1.65537e-08 -2.00679e-07 -1.75343e-24 1.77527e-08 1.09157e-23 -1.19905e-09)
(-8.23125e-09 -1.81716e-07 -6.67244e-24 9.73778e-09 7.92102e-24 -1.50653e-09)
(1.05905e-10 -1.65536e-07 -3.65917e-24 1.59648e-09 3.49761e-24 -1.70239e-09)
(8.44117e-09 -1.50624e-07 -6.24827e-22 -6.72404e-09 -7.83836e-23 -1.71713e-09)
(1.65998e-08 -1.36878e-07 -1.75942e-20 -1.50167e-08 -2.0414e-21 -1.58308e-09)
(2.43797e-08 -1.24123e-07 5.0009e-23 -2.30046e-08 5.71188e-23 -1.37506e-09)
(3.16445e-08 -1.12115e-07 4.95419e-20 -3.0473e-08 5.75789e-21 -1.17151e-09)
(3.82842e-08 -1.00669e-07 3.20971e-23 -3.72812e-08 -5.41273e-23 -1.003e-09)
(4.42458e-08 -8.96292e-08 1.25454e-20 -4.33568e-08 1.45122e-21 -8.89008e-10)
(4.94701e-08 -7.89252e-08 -3.21322e-21 -4.86616e-08 -3.77511e-22 -8.08454e-10)
(5.39641e-08 -6.84947e-08 2.14465e-20 -5.3229e-08 2.52813e-21 -7.35091e-10)
(5.76693e-08 -5.83354e-08 5.56753e-24 -5.70109e-08 -4.05202e-23 -6.58356e-10)
(6.058e-08 -4.84693e-08 1.98947e-24 -5.99896e-08 -1.36354e-23 -5.90381e-10)
(6.26824e-08 -3.89216e-08 1.40451e-23 -6.2172e-08 5.15816e-23 -5.10385e-10)
(6.40008e-08 -2.97166e-08 2.25774e-20 -6.3566e-08 2.54919e-21 -4.34852e-10)
(6.45359e-08 -2.09189e-08 -5.01058e-20 -6.41681e-08 -5.92544e-21 -3.6775e-10)
(6.43513e-08 -1.25777e-08 1.26741e-20 -6.40471e-08 1.60258e-21 -3.04181e-10)
(6.3484e-08 -4.7481e-09 -4.41252e-23 -6.32373e-08 -7.46667e-24 -2.46634e-10)
(6.20001e-08 2.52033e-09 1.06201e-22 -6.17984e-08 -7.73287e-23 -2.01688e-10)
(5.99787e-08 9.193e-09 -2.83762e-20 -5.98091e-08 -3.40819e-21 -1.69659e-10)
(5.74838e-08 1.51826e-08 1.80353e-22 -5.7313e-08 2.88851e-23 -1.70797e-10)
(5.46522e-08 2.0394e-08 9.37914e-21 -5.44878e-08 1.05193e-21 -1.64485e-10)
(5.15264e-08 2.47005e-08 -1.41027e-22 -5.13298e-08 1.70422e-23 -1.96609e-10)
(4.83411e-08 2.81387e-08 1.47874e-22 -4.82049e-08 -4.40063e-23 -1.36195e-10)
(4.48464e-08 3.03301e-08 -1.59241e-20 -4.45884e-08 -1.98187e-21 -2.58e-10)
(4.2171e-08 3.18457e-08 -3.66156e-20 -4.22738e-08 -4.46405e-21 1.02777e-10)
(3.86761e-08 3.34046e-08 -2.39191e-20 -3.80158e-08 -2.83952e-21 -6.60325e-10)
(3.72498e-08 3.45893e-08 1.1912e-20 -3.78436e-08 1.555e-21 5.93742e-10)
(3.21733e-08 3.48485e-08 5.67724e-20 -3.06122e-08 6.95122e-21 -1.56108e-09)
(3.30916e-08 3.45516e-08 5.09563e-20 -3.51446e-08 6.10939e-21 2.05296e-09)
(2.33889e-08 3.38742e-08 -4.36452e-23 -1.94463e-08 -1.12984e-22 -3.94267e-09)
(3.10715e-08 3.24601e-08 -6.78991e-20 -3.69232e-08 -8.34849e-21 5.85164e-09)
(1.09751e-08 3.10587e-08 -9.18859e-23 -1.61822e-09 4.37333e-23 -9.35692e-09)
(3.56246e-08 2.78624e-08 -5.08229e-20 -4.99256e-08 -6.13421e-21 1.43011e-08)
(-8.74913e-09 2.49446e-08 3.8906e-20 3.03321e-08 4.92918e-21 -2.15829e-08)
(5.34434e-08 2.71147e-08 -1.27205e-22 -8.57332e-08 -1.27e-23 3.22898e-08)
(-3.998e-08 -1.40675e-08 -1.59868e-19 8.43403e-08 -2.07673e-20 -4.43603e-08)
(8.05965e-08 5.06297e-08 1.95524e-20 -1.35676e-07 2.27566e-21 5.50796e-08)
(-1.03853e-07 2.44352e-07 -1.56712e-24 9.02779e-08 -3.8911e-23 1.35753e-08)
(-1.21435e-07 1.85007e-07 2.90894e-21 1.18734e-07 3.41355e-22 2.70074e-09)
(-1.42905e-07 1.49076e-07 1.10949e-21 1.54849e-07 1.76242e-22 -1.19435e-08)
(-1.63128e-07 1.52116e-07 -9.58106e-22 1.84216e-07 -9.24145e-23 -2.10882e-08)
(-1.41275e-07 1.48389e-07 -9.15921e-22 1.45784e-07 -1.17881e-22 -4.50842e-09)
(-8.74585e-08 1.08535e-07 2.11248e-24 7.80888e-08 -4.80976e-24 9.36968e-09)
(-7.72527e-08 1.15284e-07 1.03437e-24 6.3217e-08 -1.46361e-23 1.40357e-08)
(-8.43189e-08 1.59923e-07 1.25509e-21 7.14447e-08 1.61675e-22 1.28741e-08)
(-9.32982e-08 1.92163e-07 -9.01452e-22 8.62932e-08 -1.16897e-22 7.00501e-09)
(-8.34894e-08 6.28886e-08 2.17529e-21 8.3678e-08 2.62048e-22 -1.88631e-10)
(-4.70154e-08 -2.97575e-07 -6.76318e-22 5.34615e-08 -6.29073e-23 -6.44609e-09)
(-3.19019e-05 -0.000317253 1.54874e-22 4.02347e-05 -1.78421e-20 -8.33285e-06)
(-0.000603371 0.00158211 6.18143e-18 0.000648712 7.45726e-19 -4.53412e-05)
(-0.00694952 0.0353417 -1.78853e-19 0.00711731 3.34887e-19 -0.000167797)
(-0.0288727 0.159903 -4.43929e-17 0.0290233 -5.27751e-18 -0.000150573)
(-0.0705935 0.387489 -1.11905e-18 0.0704392 -3.32007e-19 0.000154319)
(-0.126922 0.669617 -9.91878e-17 0.126452 -1.30221e-17 0.000469791)
(-0.187522 0.937832 1.27435e-16 0.186995 1.48223e-17 0.000526413)
(-0.240447 1.12903 9.95205e-17 0.240107 1.29952e-17 0.000339686)
(-0.274088 1.1946 8.53252e-17 0.274011 9.83247e-18 7.71932e-05)
(-0.278786 1.10523 2.67233e-16 0.278907 3.64146e-17 -0.000120941)
(-0.248741 0.855894 -5.16584e-16 0.248963 -6.59352e-17 -0.000221833)
(-0.18414 0.470892 4.97617e-16 0.184413 6.22009e-17 -0.000273316)
(-0.0920936 0.00225878 -5.80343e-16 0.092362 -6.88041e-17 -0.000268405)
(0.0155113 -0.484217 9.06041e-20 -0.0153395 -2.89893e-18 -0.000171808)
(0.123311 -0.909913 -9.13368e-19 -0.123266 9.9372e-19 -4.50017e-05)
(0.209668 -1.18467 -2.47001e-16 -0.20973 -2.74832e-17 6.2168e-05)
(0.250668 -1.23046 -4.09944e-16 -0.250893 -4.92557e-17 0.000224805)
(0.227477 -1.01263 4.13897e-17 -0.227806 3.87052e-18 0.000328339)
(0.14506 -0.60166 -7.08721e-17 -0.145254 -8.45366e-18 0.000193405)
(0.0534483 -0.214044 1.97696e-17 -0.0535196 1.54048e-18 7.13589e-05)
(0.00781947 -0.0333915 8.4338e-17 -0.0078533 9.97203e-18 3.38206e-05)
(7.22065e-05 -0.00123334 2.03083e-21 -7.65356e-05 -2.3691e-21 4.32907e-06)
(-6.35664e-05 -1.3247e-05 4.99803e-18 6.34814e-05 5.96189e-19 8.49508e-08)
(-7.24973e-08 -1.19779e-07 -8.15941e-21 7.34735e-08 -9.42062e-22 -9.76207e-10)
(-3.10307e-08 -2.12978e-07 2.14607e-21 3.22459e-08 2.35648e-22 -1.21528e-09)
(-2.13306e-08 -2.07485e-07 -4.03386e-24 2.20403e-08 -1.03931e-23 -7.09701e-10)
(-2.26098e-08 -1.72943e-07 1.06543e-20 2.26314e-08 1.249e-21 -2.15648e-11)
(-2.19265e-08 -1.476e-07 -2.92034e-21 2.15592e-08 -3.30279e-22 3.67372e-10)
(-2.47286e-08 -1.73444e-07 4.97933e-21 2.42899e-08 5.77155e-22 4.38684e-10)
(-2.54694e-08 -2.01311e-07 3.36874e-21 2.55013e-08 4.12055e-22 -3.19691e-11)
(-1.87259e-08 -1.77045e-07 1.17395e-24 1.94935e-08 1.29731e-23 -7.67663e-10)
(-1.2137e-08 -1.56238e-07 1.7391e-20 1.34759e-08 2.041e-21 -1.33889e-09)
(-5.58416e-09 -1.40997e-07 -3.13512e-26 7.23181e-09 -6.48895e-25 -1.64764e-09)
(1.22135e-09 -1.27783e-07 5.86946e-22 4.75136e-10 9.03767e-23 -1.69649e-09)
(8.05305e-09 -1.15792e-07 1.26098e-20 -6.48576e-09 1.46906e-21 -1.56729e-09)
(1.46884e-08 -1.04841e-07 2.00325e-24 -1.33012e-08 -4.20711e-23 -1.38721e-09)
(2.09695e-08 -9.46571e-08 -3.63078e-23 -1.97377e-08 5.51407e-23 -1.23177e-09)
(2.68322e-08 -8.50282e-08 2.64462e-20 -2.57022e-08 3.09492e-21 -1.13003e-09)
(3.22211e-08 -7.57856e-08 -1.1941e-20 -3.11539e-08 -1.43794e-21 -1.06724e-09)
(3.71105e-08 -6.68505e-08 9.38871e-24 -3.60905e-08 -4.06212e-23 -1.02001e-09)
(4.1466e-08 -5.81515e-08 -2.04679e-20 -4.05072e-08 -2.38801e-21 -9.58764e-10)
(4.52404e-08 -4.9671e-08 4.29415e-24 -4.43553e-08 3.46475e-23 -8.85094e-10)
(4.83884e-08 -4.13959e-08 1.56667e-24 -4.75835e-08 2.56177e-23 -8.04932e-10)
(5.08907e-08 -3.33374e-08 2.09769e-20 -5.01719e-08 2.49647e-21 -7.18799e-10)
(5.2734e-08 -2.54982e-08 2.76609e-21 -5.21032e-08 3.27038e-22 -6.30783e-10)
(5.39151e-08 -1.79361e-08 4.31979e-21 -5.33659e-08 4.58306e-22 -5.4917e-10)
(5.44629e-08 -1.06898e-08 -8.38594e-21 -5.39952e-08 -1.05582e-21 -4.67684e-10)
(5.43982e-08 -3.81168e-09 -2.26796e-20 -5.40081e-08 -2.56549e-21 -3.90127e-10)
(5.37587e-08 2.65615e-09 6.75718e-20 -5.34309e-08 8.1987e-21 -3.27819e-10)
(5.25989e-08 8.66791e-09 2.75992e-20 -5.23246e-08 3.26167e-21 -2.74391e-10)
(5.09626e-08 1.41315e-08 4.66872e-20 -5.07101e-08 5.63166e-21 -2.52471e-10)
(4.89663e-08 1.89423e-08 5.41948e-20 -4.8747e-08 6.41413e-21 -2.19335e-10)
(4.66324e-08 2.29617e-08 -4.19348e-20 -4.6389e-08 -5.06752e-21 -2.43374e-10)
(4.42094e-08 2.61996e-08 5.80202e-20 -4.40465e-08 7.07766e-21 -1.62939e-10)
(4.14075e-08 2.82544e-08 -1.50626e-20 -4.1121e-08 -1.93005e-21 -2.86525e-10)
(3.93233e-08 2.96911e-08 -1.59003e-23 -3.94051e-08 4.35265e-23 8.17655e-11)
(3.63078e-08 3.1279e-08 1.25344e-20 -3.56494e-08 1.49543e-21 -6.58454e-10)
(3.53032e-08 3.24716e-08 -1.05236e-20 -3.58971e-08 -1.24497e-21 5.93908e-10)
(3.06785e-08 3.28355e-08 4.47442e-20 -2.91275e-08 5.56016e-21 -1.55106e-09)
(3.19952e-08 3.23908e-08 3.40966e-20 -3.40392e-08 4.16676e-21 2.04397e-09)
(2.27475e-08 3.19751e-08 -2.62776e-24 -1.87928e-08 2.38681e-24 -3.95469e-09)
(3.06061e-08 3.02806e-08 4.36356e-20 -3.6375e-08 5.34755e-21 5.7689e-09)
(1.10132e-08 2.96539e-08 4.39705e-24 -1.61543e-09 -1.37824e-22 -9.39781e-09)
(3.55451e-08 2.57328e-08 -1.47793e-19 -4.97729e-08 -1.82075e-20 1.42278e-08)
(-8.18149e-09 2.42322e-08 -3.71243e-20 2.99169e-08 -4.62656e-21 -2.17354e-08)
(5.35525e-08 2.50712e-08 -9.5201e-20 -8.60078e-08 -1.14846e-20 3.24553e-08)
(-3.94503e-08 -1.40979e-08 1.61043e-19 8.44364e-08 2.09214e-20 -4.49861e-08)
(8.13253e-08 4.95703e-08 -1.86495e-20 -1.37166e-07 -2.15161e-21 5.58409e-08)
(-9.476e-08 1.39261e-07 -6.86221e-25 7.55884e-08 1.22234e-23 1.91716e-08)
(-1.03166e-07 1.1256e-07 2.43354e-24 8.88843e-08 9.60497e-24 1.42816e-08)
(-1.1698e-07 9.99645e-08 -1.04359e-21 1.14882e-07 -1.44859e-22 2.0984e-09)
(-1.32998e-07 1.0391e-07 1.53654e-21 1.44102e-07 1.7452e-22 -1.1104e-08)
(-1.33732e-07 1.17444e-07 2.9645e-22 1.38644e-07 6.49946e-23 -4.91121e-09)
(-1.24992e-07 1.28095e-07 -1.30848e-21 1.20355e-07 -1.61082e-22 4.63694e-09)
(-8.92849e-08 9.90892e-08 5.96809e-22 8.47269e-08 6.38688e-23 4.55797e-09)
(-8.1074e-08 9.74183e-08 3.06187e-24 8.13822e-08 3.29061e-24 -3.08236e-10)
(-9.37614e-08 1.38699e-07 -7.19539e-25 1.01492e-07 2.09128e-24 -7.73105e-09)
(-1.06205e-07 1.81467e-07 3.03687e-24 1.21452e-07 -4.30622e-25 -1.52471e-08)
(-9.97165e-08 9.51311e-08 -8.06345e-25 1.19256e-07 -1.02643e-23 -1.95395e-08)
(-6.14164e-08 -2.24217e-07 1.16139e-21 8.02249e-08 1.42092e-22 -1.88085e-08)
(-1.60473e-05 -0.000225614 5.70074e-22 2.22938e-05 2.70179e-21 -6.24658e-06)
(-0.000257332 0.000316978 -6.74902e-21 0.000265147 -2.06791e-20 -7.81582e-06)
(-0.00404156 0.0200393 1.22781e-17 0.00399283 1.53983e-18 4.87321e-05)
(-0.0202112 0.112259 8.18331e-19 0.0199485 1.46316e-19 0.000262679)
(-0.0547747 0.302209 2.96218e-17 0.0542678 3.31243e-18 0.000506923)
(-0.104333 0.553761 7.42648e-17 0.103801 9.36788e-18 0.000532314)
(-0.159194 0.802924 1.63361e-18 0.158884 9.12645e-19 0.000309874)
(-0.207771 0.987682 -6.25118e-17 0.207751 -7.47096e-18 1.97631e-05)
(-0.238975 1.05957 -8.08221e-17 0.239156 -1.25437e-17 -0.000181468)
(-0.243712 0.988627 4.24105e-16 0.243959 5.4622e-17 -0.000246581)
(-0.216624 0.768687 -4.54642e-16 0.216855 -5.50057e-17 -0.000230735)
(-0.158014 0.421821 -6.80148e-18 0.158217 -2.34605e-18 -0.000202774)
(-0.0746785 -0.00311904 -1.28743e-16 0.0748478 -1.55784e-17 -0.000169279)
(0.0222581 -0.444465 -2.14759e-19 -0.0221691 -3.4642e-19 -8.89351e-05)
(0.118261 -0.827707 -5.67609e-17 -0.118253 -6.92272e-18 -8.79931e-06)
(0.192987 -1.06713 -2.15391e-18 -0.193041 5.16215e-19 5.44726e-05)
(0.224343 -1.08994 -2.19899e-16 -0.224509 -2.60389e-17 0.000165632)
(0.196305 -0.870004 -2.04136e-19 -0.196508 -6.45407e-19 0.000203113)
(0.118264 -0.490434 4.54897e-18 -0.118326 4.77001e-19 6.19418e-05)
(0.0399966 -0.160889 -4.35551e-18 -0.0399911 -4.39663e-19 -5.56207e-06)
(0.00517495 -0.0224061 -1.38309e-17 -0.00517454 -1.39028e-18 -4.11027e-07)
(3.06023e-05 -0.000667209 -1.86024e-17 -2.94758e-05 -2.22252e-18 -1.12642e-06)
(-3.30232e-05 -1.06264e-05 3.04175e-18 3.35422e-05 3.52064e-19 -5.18962e-07)
(-4.85038e-08 -1.09885e-07 -2.04572e-21 4.94833e-08 -2.28989e-22 -9.79463e-10)
(-1.73146e-08 -1.783e-07 -8.1285e-25 1.73749e-08 -3.09828e-24 -6.03247e-11)
(-1.21484e-08 -1.6967e-07 -2.30527e-21 1.13391e-08 -2.65425e-22 8.09293e-10)
(-1.47444e-08 -1.40715e-07 -4.46066e-21 1.36027e-08 -5.26632e-22 1.14166e-09)
(-1.52905e-08 -1.19765e-07 8.03943e-25 1.43894e-08 -2.51458e-24 9.01063e-10)
(-1.91223e-08 -1.48633e-07 3.35952e-24 1.86426e-08 1.14063e-23 4.79636e-10)
(-1.86376e-08 -1.57064e-07 1.11202e-20 1.90095e-08 1.31188e-21 -3.71832e-10)
(-1.37734e-08 -1.36536e-07 -1.3736e-20 1.47579e-08 -1.60178e-21 -9.84485e-10)
(-8.77394e-09 -1.20652e-07 -3.3207e-21 9.99214e-09 -3.85427e-22 -1.2182e-09)
(-3.50357e-09 -1.08388e-07 1.71201e-25 4.70453e-09 8.06172e-24 -1.20096e-09)
(1.9514e-09 -9.75818e-08 -6.56623e-24 -8.79845e-10 4.84702e-24 -1.07156e-09)
(7.35839e-09 -8.78525e-08 5.80912e-25 -6.39929e-09 -2.41651e-23 -9.59099e-10)
(1.25731e-08 -7.89613e-08 -2.46046e-24 -1.1656e-08 -2.20947e-23 -9.17096e-10)
(1.75652e-08 -7.06703e-08 -2.52161e-20 -1.66314e-08 -2.90606e-21 -9.33786e-10)
(2.23014e-08 -6.28124e-08 3.10372e-20 -2.13352e-08 3.68861e-21 -9.66148e-10)
(2.67542e-08 -5.52904e-08 2.92369e-21 -2.57709e-08 2.91384e-22 -9.83364e-10)
(3.08652e-08 -4.8022e-08 1.23883e-23 -2.98981e-08 -4.41412e-24 -9.67044e-10)
(3.45755e-08 -4.09625e-08 7.1011e-24 -3.36497e-08 -3.24896e-24 -9.2572e-10)
(3.78192e-08 -3.40704e-08 1.19522e-24 -3.69485e-08 -4.78131e-23 -8.70779e-10)
(4.05596e-08 -2.73331e-08 -2.00604e-20 -3.97507e-08 -2.35387e-21 -8.08896e-10)
(4.2768e-08 -2.07415e-08 -2.65539e-21 -4.20275e-08 -2.68501e-22 -7.40525e-10)
(4.44298e-08 -1.43289e-08 1.2673e-21 -4.37592e-08 1.92028e-22 -6.70559e-10)
(4.55492e-08 -8.12936e-09 2.29507e-20 -4.49524e-08 2.75298e-21 -5.96844e-10)
(4.61298e-08 -2.17971e-09 8.54018e-21 -4.56077e-08 8.06322e-22 -5.22114e-10)
(4.61865e-08 3.47807e-09 -9.16838e-20 -4.57311e-08 -1.09835e-20 -4.55447e-10)
(4.57539e-08 8.79384e-09 -1.61995e-20 -4.53657e-08 -1.77512e-21 -3.88244e-10)
(4.48491e-08 1.36887e-08 1.84461e-20 -4.45035e-08 2.12133e-21 -3.45593e-10)
(4.35839e-08 1.80469e-08 -8.86564e-20 -4.32983e-08 -1.06352e-20 -2.85677e-10)
(4.19441e-08 2.17317e-08 3.14885e-20 -4.16487e-08 3.89407e-21 -2.95332e-10)
(4.02018e-08 2.4711e-08 -1.59919e-20 -4.00088e-08 -1.92056e-21 -1.92973e-10)
(3.80276e-08 2.65819e-08 1.70929e-20 -3.77142e-08 2.016e-21 -3.13423e-10)