/*--------------------------------*- C++ -*----------------------------------*\
| =========                 |                                                 |
| \\      /  F ield         | OpenFOAM: The Open Source CFD Toolbox           |
|  \\    /   O peration     | Version:  2506                                  |
|   \\  /    A nd           | Website:  www.openfoam.com                      |
|    \\/     M anipulation  |                                                 |
\*---------------------------------------------------------------------------*/
FoamFile
{
    version     2.0;
    format      ascii;
    arch        "LSB;label=32;scalar=64";
    class       volScalarField;
    location    "100";
    object      turbulenceProperties:I;
}
// * * * * * * * * * * * * * * * * * * * * * * * * * * * * * * * * * * * * * //

dimensions      [0 0 0 0 0 0 0];

internalField   nonuniform List<scalar> 
1340
(
2.37602e-05
2.10102e-05
2.39778e-05
2.04712e-05
2.06764e-05
2.40534e-05
1.44664e-05
2.03288e-05
2.04614e-05
2.4151e-05
1.3772e-05
1.69536e-05
1.44365e-05
2.01956e-05
2.02883e-05
2.42613e-05
1.54609e-05
1.63005e-05
1.36222e-05
1.6755e-05
1.44047e-05
2.00725e-05
2.01468e-05
2.43741e-05
1.74294e-05
1.66309e-05
1.66213e-05
1.51758e-05
1.60549e-05
1.34624e-05
1.65606e-05
1.43656e-05
1.9971e-05
2.0041e-05
2.44854e-05
1.82183e-05
1.77547e-05
1.72382e-05
1.70141e-05
1.62457e-05
1.62874e-05
1.48741e-05
1.57971e-05
1.32894e-05
1.63733e-05
1.43181e-05
1.98925e-05
1.99709e-05
2.45914e-05
1.96917e-05
1.91664e-05
1.86576e-05
1.8164e-05
1.76356e-05
1.72317e-05
1.67579e-05
1.65866e-05
1.58484e-05
1.59393e-05
1.45579e-05
1.55274e-05
1.3102e-05
1.61917e-05
1.4264e-05
1.98309e-05
1.99295e-05
2.47011e-05
2.13862e-05
2.07903e-05
2.02325e-05
1.97119e-05
1.92252e-05
1.87684e-05
1.8336e-05
1.79141e-05
1.75038e-05
1.70436e-05
1.67005e-05
1.62707e-05
1.61513e-05
1.54442e-05
1.55816e-05
1.42311e-05
1.52479e-05
1.29017e-05
1.60139e-05
1.42063e-05
1.97804e-05
1.99111e-05
2.48028e-05
2.47102e-05
2.38653e-05
2.30802e-05
2.23507e-05
2.16718e-05
2.10467e-05
2.04691e-05
1.99378e-05
1.94474e-05
1.89968e-05
1.85799e-05
1.8196e-05
1.7836e-05
1.74978e-05
1.71632e-05
1.68369e-05
1.64464e-05
1.61647e-05
1.5781e-05
1.57131e-05
1.50385e-05
1.52198e-05
1.38988e-05
1.49625e-05
1.26913e-05
1.5839e-05
1.41458e-05
1.97381e-05
1.99239e-05
2.49039e-05
3.09002e-05
3.85216e-05
3.60476e-05
3.32955e-05
3.16286e-05
3.02607e-05
2.89389e-05
2.76806e-05
2.65083e-05
2.54249e-05
2.44286e-05
2.35137e-05
2.26715e-05
2.18957e-05
2.11843e-05
2.05327e-05
1.99403e-05
1.94051e-05
1.89242e-05
1.84913e-05
1.81046e-05
1.7758e-05
1.7446e-05
1.71645e-05
1.69033e-05
1.66599e-05
1.64125e-05
1.61708e-05
1.58497e-05
1.563e-05
1.5294e-05
1.5277e-05
1.4637e-05
1.48591e-05
1.35664e-05
1.46753e-05
1.24742e-05
1.56679e-05
1.40824e-05
1.97022e-05
1.99544e-05
2.50042e-05
4.17633e-05
3.74321e-05
3.60618e-05
3.28495e-05
1.3985e-05
3.75823e-06
0
0
0
0.000201739
0.000345435
0.00395901
0.0142391
0.0279531
0.042237
0.0553887
0.066493
0.0747946
0.0793689
0.0789559
0.0718357
0.0553249
0.0249613
0.0538309
0.072448
0.080216
0.0788848
0.0692718
0.0524111
0.0314181
0.0128041
0.00261417
0.000170975
8.27804e-05
0
0
0
7.17433e-06
2.71431e-05
3.4089e-05
3.17981e-05
2.95433e-05
2.80417e-05
2.67414e-05
2.5513e-05
2.43743e-05
2.3332e-05
2.23789e-05
2.1508e-05
2.07114e-05
1.9986e-05
1.9331e-05
1.87446e-05
1.82264e-05
1.77735e-05
1.7382e-05
1.70455e-05
1.67608e-05
1.65195e-05
1.63138e-05
1.61371e-05
1.59768e-05
1.58298e-05
1.56698e-05
1.55121e-05
1.52594e-05
1.51009e-05
1.48139e-05
1.48468e-05
1.42436e-05
1.45037e-05
1.32389e-05
1.439e-05
1.22546e-05
1.54989e-05
1.40185e-05
1.96695e-05
2.00073e-05
2.51034e-05
3.43134e-05
3.1353e-05
3.07906e-05
3.2568e-05
3.03387e-05
1.90027e-05
5.17686e-06
0
0
0
1.48512e-05
0.0010351
0.00238958
0.0110164
0.0235655
0.0372069
0.049982
0.0608424
0.0690151
0.0736162
0.0734614
0.0669306
0.0514826
0.0221638
0.0503964
0.0677997
0.0749076
0.0733025
0.0637099
0.0472601
0.0274144
0.0106528
0.0020138
0.000461234
0
0
0
1.82285e-07
8.56607e-07
2.57234e-05
2.9876e-05
2.78648e-05
2.60339e-05
2.4688e-05
2.34853e-05
2.23686e-05
2.13488e-05
2.04187e-05
1.95708e-05
1.87986e-05
1.81043e-05
1.74894e-05
1.69563e-05
1.65035e-05
1.61291e-05
1.58266e-05
1.559e-05
1.54122e-05
1.52825e-05
1.51889e-05
1.51221e-05
1.50668e-05
1.50183e-05
1.49462e-05
1.48709e-05
1.46849e-05
1.4585e-05
1.43471e-05
1.44279e-05
1.38642e-05
1.41597e-05
1.29234e-05
1.41121e-05
1.20382e-05
1.53361e-05
1.39527e-05
1.96379e-05
2.00668e-05
2.52045e-05
2.71847e-05
2.58071e-05
2.61061e-05
2.7889e-05
2.85577e-05
2.83282e-05
2.10752e-05
5.88208e-06
0
0
0
0
0.000870736
0.00117262
0.00828164
0.0196799
0.0327008
0.0451656
0.0558566
0.0639538
0.0685962
0.0686532
0.0625918
0.0479765
0.0197008
0.0476702
0.0638749
0.0702714
0.0682717
0.0585419
0.0423982
0.0236752
0.00870647
0.00147873
0.000337954
0
0
0
1.65317e-06
7.55898e-06
2.45523e-05
2.63168e-05
2.44042e-05
2.28577e-05
2.16368e-05
2.05168e-05
1.94873e-05
1.85483e-05
1.76918e-05
1.69162e-05
1.62283e-05
1.56348e-05
1.51418e-05
1.47487e-05
1.4453e-05
1.42467e-05
1.41203e-05
1.40616e-05
1.40543e-05
1.40818e-05
1.41313e-05
1.41835e-05
1.42342e-05
1.42482e-05
1.42519e-05
1.4129e-05
1.4083e-05
1.38929e-05
1.40173e-05
1.34968e-05
1.38237e-05
1.262e-05
1.38422e-05
1.18279e-05
1.51735e-05
1.38854e-05
1.96148e-05
2.01357e-05
2.53053e-05
2.40029e-05
2.36222e-05
2.45545e-05
2.65857e-05
2.70003e-05
2.76148e-05
2.81717e-05
2.2426e-05
6.08308e-06
3.9731e-08
0
0
0
0.000660638
0.000695823
0.00597341
0.0162384
0.0286541
0.0408576
0.0514318
0.0594864
0.0641647
0.0643776
0.0586527
0.0446266
0.0176279
0.045587
0.0605277
0.0661115
0.0635866
0.0536062
0.0377297
0.020162
0.00693106
0.00102825
0.000261517
0
0
0
2.86296e-06
1.15935e-05
2.33495e-05
2.32137e-05
2.11877e-05
1.98641e-05
1.87885e-05
1.77283e-05
1.67225e-05
1.5802e-05
1.49755e-05
1.42555e-05
1.36562e-05
1.31901e-05
1.28605e-05
1.26636e-05
1.25849e-05
1.26055e-05
1.27008e-05
1.2846e-05
1.30165e-05
1.31958e-05
1.33629e-05
1.35144e-05
1.36135e-05
1.3692e-05
1.36267e-05
1.36285e-05
1.3483e-05
1.36452e-05
1.31689e-05
1.35214e-05
1.23544e-05
1.35981e-05
1.16383e-05
1.50314e-05
1.38111e-05
1.9594e-05
2.02203e-05
2.54299e-05
2.39041e-05
2.35703e-05
2.30494e-05
2.38793e-05
2.46314e-05
2.48857e-05
2.48012e-05
2.34818e-05
1.90335e-05
2.22922e-06
7.50277e-07
0
0
0
0.000397932
0.000649339
0.00390666
0.0128903
0.024599
0.0366
0.047218
0.0554194
0.0603153
0.0608427
0.0555754
0.042257
0.0170765
0.0436241
0.0575908
0.0624779
0.0594381
0.0491918
0.0336161
0.0171628
0.00532846
0.00065187
0.000187887
0
0
0
3.22886e-06
1.21327e-05
2.26693e-05
2.17222e-05
1.89242e-05
1.72406e-05
1.61111e-05
1.50601e-05
1.40497e-05
1.31291e-05
1.23339e-05
1.16934e-05
1.12328e-05
1.09643e-05
1.08809e-05
1.0953e-05
1.11409e-05
1.14004e-05
1.16971e-05
1.20005e-05
1.2294e-05
1.25588e-05
1.27937e-05
1.29635e-05
1.31056e-05
1.30902e-05
1.31329e-05
1.30295e-05
1.32205e-05
1.27984e-05
1.31659e-05
1.20644e-05
1.33081e-05
1.14502e-05
1.48545e-05
1.37441e-05
1.95569e-05
2.03024e-05
2.55112e-05
2.70021e-05
2.47911e-05
2.13755e-05
1.96664e-05
1.86508e-05
1.81893e-05
1.76212e-05
1.61206e-05
1.43511e-05
1.28564e-05
7.5239e-06
2.15338e-06
9.2862e-10
0
0
5.03657e-05
0.000856786
0.00156683
0.00781437
0.0173975
0.0284551
0.039081
0.0479241
0.053957
0.0561184
0.0531369
0.0432032
0.0213575
0.0355029
0.0509712
0.0570864
0.0553113
0.0465419
0.0327627
0.0179005
0.00681682
0.00125765
0.000228801
3.11928e-05
0
0
5.16156e-07
3.96633e-06
1.27474e-05
1.78388e-05
1.64623e-05
1.45519e-05
1.31727e-05
1.20225e-05
1.09571e-05
1.00086e-05
9.25233e-06
8.76659e-06
8.60017e-06
8.72857e-06
9.06494e-06
9.512e-06
9.99602e-06
1.04751e-05
1.09245e-05
1.13352e-05
1.16963e-05
1.20126e-05
1.22517e-05
1.24562e-05
1.24941e-05
1.2572e-05
1.25194e-05
1.27285e-05
1.23829e-05
1.27407e-05
1.17522e-05
1.29336e-05
1.12284e-05
1.45128e-05
1.34318e-05
1.91375e-05
1.97956e-05
2.46526e-05
1.92721e-05
1.35226e-05
1.51367e-05
1.90039e-05
2.02117e-05
2.09758e-05
2.13216e-05
2.139e-05
2.13367e-05
2.15727e-05
2.0589e-05
1.65463e-05
1.12411e-07
9.17613e-08
0
0
0
0.000270261
0.000370176
0.00253078
0.00923708
0.018683
0.0290233
0.0385899
0.0461274
0.0505449
0.0506544
0.0450064
0.0310175
0.0213727
0.0418533
0.0509183
0.0518655
0.0456351
0.0339687
0.0203271
0.00898478
0.00245843
0.000256155
9.06256e-05
0
0
0
1.99104e-06
6.47699e-06
1.301e-05
1.27843e-05
1.09901e-05
9.3924e-06
7.96368e-06
6.55313e-06
5.27157e-06
4.77428e-06
5.46117e-06
6.47243e-06
7.41927e-06
8.25383e-06
8.98271e-06
9.62233e-06
1.01813e-05
1.06725e-05
1.10963e-05
1.14641e-05
1.17475e-05
1.19898e-05
1.2061e-05
1.21582e-05
1.21419e-05
1.23593e-05
1.20687e-05
1.24207e-05
1.14936e-05
1.26758e-05
1.10214e-05
1.43768e-05
1.33321e-05
1.91453e-05
1.99848e-05
2.47704e-05
2.81925e-05
3.16811e-05
3.2987e-05
3.31206e-05
3.15129e-05
2.97604e-05
2.83198e-05
2.72344e-05
2.65916e-05
2.56772e-05
2.42983e-05
2.26189e-05
2.05447e-05
8.48064e-06
2.36333e-06
0
0
0
1.54002e-05
0.000574491
0.00070885
0.00399229
0.0114397
0.0208658
0.0305134
0.0389254
0.0449059
0.0472998
0.0447954
0.0356117
0.0135143
0.0331032
0.0449985
0.0482808
0.0441491
0.0342563
0.0217446
0.010543
0.00350041
0.00049446
0.000111324
0
0
0
8.16258e-07
2.382e-06
8.77335e-06
8.88155e-06
7.18041e-06
5.52693e-06
4.37622e-06
4.59631e-06
5.55126e-06
6.47183e-06
7.27308e-06
7.97779e-06
8.60923e-06
9.17834e-06
9.69363e-06
1.01575e-05
1.05766e-05
1.09485e-05
1.12792e-05
1.15392e-05
1.17654e-05
1.18321e-05
1.19191e-05
1.19104e-05
1.21133e-05
1.18551e-05
1.21904e-05
1.12975e-05
1.24857e-05
1.08246e-05
1.42966e-05
1.31954e-05
1.92174e-05
2.01094e-05
2.48662e-05
3.77505e-05
3.83838e-05
3.61235e-05
3.33359e-05
2.9466e-05
2.64428e-05
2.43444e-05
2.36571e-05
2.37464e-05
2.18952e-05
1.85833e-05
1.69424e-05
1.68725e-05
1.29442e-05
3.90482e-06
3.10489e-08
0
0
0
9.30859e-05
0.00092998
0.00101002
0.00641123
0.0145027
0.0236808
0.0324015
0.0393779
0.0434232
0.0432872
0.0374623
0.0227991
0.0243188
0.0391563
0.0444824
0.0421969
0.03389
0.0224292
0.0115803
0.00421316
0.000797477
0.000123398
3.52338e-06
0
0
9.97697e-08
7.14202e-08
5.39192e-06
6.46817e-06
6.73135e-06
7.18117e-06
7.72569e-06
8.22747e-06
8.65916e-06
9.03831e-06
9.38464e-06
9.71215e-06
1.0026e-05
1.03286e-05
1.06162e-05
1.08909e-05
1.1147e-05
1.13866e-05
1.15792e-05
1.17511e-05
1.17896e-05
1.18467e-05
1.18214e-05
1.19877e-05
1.17452e-05
1.2049e-05
1.11781e-05
1.23537e-05
1.06659e-05
1.42524e-05
1.30505e-05
1.93194e-05
2.0156e-05
2.49535e-05
3.08892e-05
2.91948e-05
2.31358e-05
1.95547e-05
1.57079e-05
1.29769e-05
1.29255e-05
1.66261e-05
1.87085e-05
1.60394e-05
8.78816e-06
1.28411e-05
1.47801e-05
9.45448e-06
1.26663e-05
2.81995e-06
8.19356e-07
0
0
0
0
0.000488704
0.000701692
0.00305221
0.00967766
0.018027
0.0266254
0.0341302
0.0393218
0.0409694
0.0376808
0.0273518
0.0147878
0.0333805
0.0405528
0.0399161
0.0330183
0.0225573
0.0121492
0.00471886
0.00107054
4.55997e-05
2.19891e-05
0
0
2.12146e-09
1.08369e-06
5.54453e-06
8.57528e-06
9.40259e-06
9.75845e-06
1.00742e-05
1.03404e-05
1.05512e-05
1.07242e-05
1.08759e-05
1.10158e-05
1.11515e-05
1.1285e-05
1.14198e-05
1.15533e-05
1.16875e-05
1.17964e-05
1.18972e-05
1.18979e-05
1.19195e-05
1.18653e-05
1.19815e-05
1.17425e-05
1.20048e-05
1.11491e-05
1.22902e-05
1.05684e-05
1.42447e-05
1.29124e-05
1.94476e-05
2.01259e-05
2.50543e-05
2.23328e-05
2.46909e-05
2.68477e-05
2.63133e-05
2.51235e-05
2.36485e-05
2.14863e-05
1.79648e-05
1.53675e-05
1.46426e-05
1.05413e-05
1.01007e-05
1.51665e-05
1.62244e-05
1.35514e-05
1.45393e-05
5.54532e-06
1.01288e-06
0
0
0
0
7.41619e-05
0.00107307
0.000631265
0.00598124
0.0133694
0.0215688
0.0292543
0.0351926
0.0381576
0.0368225
0.0294997
0.0106537
0.0277007
0.036555
0.0373664
0.0317297
0.0222056
0.0123033
0.00499209
0.00126827
5.03084e-05
3.15961e-05
0
0
0
1.48794e-06
7.15245e-06
1.04955e-05
1.11664e-05
1.13331e-05
1.14944e-05
1.16358e-05
1.17406e-05
1.18155e-05
1.18684e-05
1.19075e-05
1.19396e-05
1.19724e-05
1.20083e-05
1.20514e-05
1.20821e-05
1.21129e-05
1.20785e-05
1.20682e-05
1.19776e-05
1.20391e-05
1.17922e-05
1.20147e-05
1.11615e-05
1.22667e-05
1.04889e-05
1.42605e-05
1.2765e-05
1.95839e-05
1.99971e-05
2.51793e-05
4.25409e-05
4.03336e-05
3.56901e-05
3.02104e-05
2.55356e-05
2.12437e-05
1.85739e-05
1.64489e-05
1.11804e-05
1.31392e-05
1.69658e-05
1.67905e-05
1.62725e-05
1.77903e-05
1.88907e-05
1.90917e-05
1.86001e-05
1.08239e-05
2.22546e-06
2.56341e-08
0
0
0
0
0.000847488
0.00132167
0.00308356
0.00957855
0.0172315
0.0248552
0.0312257
0.0351325
0.0352938
0.0302119
0.0166732
0.0222207
0.0326388
0.0346881
0.0301648
0.021515
0.0121671
0.00509916
0.00133198
0.000109091
6.39713e-05
1.61727e-07
0
0
2.00316e-06
8.65933e-06
1.23278e-05
1.28224e-05
1.28597e-05
1.29146e-05
1.29345e-05
1.29167e-05
1.2878e-05
1.28262e-05
1.27646e-05
1.27014e-05
1.26425e-05
1.25964e-05
1.25483e-05
1.25063e-05
1.24334e-05
1.23961e-05
1.22709e-05
1.22733e-05
1.20157e-05
1.21936e-05
1.13584e-05
1.23904e-05
1.05916e-05
1.43602e-05
1.26715e-05
1.97434e-05
1.97012e-05
2.54331e-05
3.9442e-05
3.53106e-05
3.05631e-05
2.58257e-05
3.07645e-05
3.52776e-05
3.67391e-05
3.76098e-05
3.78993e-05
3.75565e-05
3.71841e-05
3.59942e-05
3.30953e-05
2.95821e-05
2.70018e-05
2.55096e-05
2.52687e-05
2.44874e-05
1.84673e-05
3.98604e-06
1.29041e-06
0
0
0
0
0.000487521
0.000910599
0.000964991
0.00660473
0.0136443
0.0209836
0.0274572
0.0319038
0.0331048
0.0297061
0.01947
0.0167439
0.0286075
0.0316333
0.0280853
0.0203114
0.0116464
0.00499979
0.00146104
0.000209559
5.79064e-06
8.65506e-07
0
1.33035e-07
7.87506e-07
1.00507e-05
1.30451e-05
1.3136e-05
1.30658e-05
1.31614e-05
1.32275e-05
1.32193e-05
1.31683e-05
1.30927e-05
1.30012e-05
1.28993e-05
1.28023e-05
1.27052e-05
1.26181e-05
1.2531e-05
1.24858e-05
1.23237e-05
1.2273e-05
1.19843e-05
1.21503e-05
1.12809e-05
1.23311e-05
1.03808e-05
1.4336e-05
1.2404e-05
1.97894e-05
1.92008e-05
2.58561e-05
5.08292e-05
6.21831e-05
7.12342e-05
7.61177e-05
7.87482e-05
7.92815e-05
7.80836e-05
7.56849e-05
7.25896e-05
6.92935e-05
6.60399e-05
6.25657e-05
5.82168e-05
5.30824e-05
4.85955e-05
4.61569e-05
4.65869e-05
4.91314e-05
4.95171e-05
4.21427e-05
1.78486e-05
5.12062e-06
4.45043e-08
0
0
0
7.29524e-05
0.00133509
0.00185788
0.0044662
0.0112395
0.0185118
0.0251436
0.0299736
0.0318109
0.0293591
0.0207864
0.0137128
0.0263116
0.0298008
0.026667
0.019237
0.0108191
0.004336
0.000826616
0.000252364
9.62167e-05
2.85016e-05
4.76988e-07
4.032e-08
2.69879e-06
1.08124e-05
1.58149e-05
1.58065e-05
1.52378e-05
1.49843e-05
1.48492e-05
1.47003e-05
1.45294e-05
1.43509e-05
1.41695e-05
1.39926e-05
1.38182e-05
1.36522e-05
1.35135e-05
1.34436e-05
1.32633e-05
1.31524e-05
1.28624e-05
1.29402e-05
1.21572e-05
1.29716e-05
1.12122e-05
1.47272e-05
1.26388e-05
2.00175e-05
1.8582e-05
2.72838e-05
0.000123819
0.000125585
0.000122679
0.000119488
0.000115316
0.000109738
0.000102887
9.50526e-05
8.64984e-05
7.76158e-05
6.88334e-05
6.0591e-05
5.3423e-05
4.80898e-05
4.57824e-05
4.69428e-05
5.08879e-05
5.67768e-05
6.37078e-05
6.88425e-05
6.71696e-05
4.8226e-05
5.83552e-06
1.55902e-06
0
0
0
0
0.00053004
0.0010141
0.00157409
0.00652882
0.0126674
0.0189157
0.0241678
0.027332
0.0272913
0.0228061
0.0105268
0.0183064
0.024743
0.0244574
0.0195024
0.0126131
0.00647444
0.00257609
0.000752491
0.000147152
1.3601e-05
3.02977e-06
0
2.22589e-06
8.57999e-06
1.38245e-05
1.47554e-05
1.45636e-05
1.43184e-05
1.41254e-05
1.39356e-05
1.3736e-05
1.35318e-05
1.33352e-05
1.31416e-05
1.29565e-05
1.28218e-05
1.27941e-05
1.26175e-05
1.2452e-05
1.20932e-05
1.21842e-05
1.13208e-05
1.2207e-05
1.01368e-05
1.39711e-05
1.16456e-05
1.91102e-05
1.87032e-05
2.73952e-05
)
;

boundaryField
{
    inlet
    {
        type            calculated;
        value           nonuniform List<scalar> 
27
(
6.02706e-05
6.03574e-05
6.048e-05
6.06255e-05
6.07754e-05
6.09276e-05
6.1086e-05
6.12507e-05
6.14214e-05
6.15936e-05
6.17667e-05
6.19386e-05
6.21073e-05
6.22702e-05
6.24241e-05
6.25658e-05
6.26955e-05
6.25985e-05
6.26712e-05
6.27178e-05
6.27238e-05
6.26841e-05
6.25851e-05
6.24192e-05
6.21564e-05
6.18896e-05
6.13446e-05
)
;
    }
    outlet
    {
        type            calculated;
        value           nonuniform List<scalar> 
78
(
0.000124272
0.000126027
0.000123107
0.000119893
0.000115692
0.000110076
0.000103174
9.52604e-05
8.65705e-05
7.74432e-05
6.82127e-05
5.91577e-05
5.06114e-05
4.33691e-05
3.96653e-05
4.1075e-05
4.60238e-05
5.27061e-05
6.01065e-05
6.55986e-05
6.44499e-05
4.65848e-05
5.67818e-06
1.52657e-06
0
0
0
0
0.00054339
0.00103736
0.00138143
0.00644061
0.0125942
0.0188524
0.0241161
0.0272959
0.0272772
0.0228245
0.0106234
0.0182291
0.0247059
0.0244538
0.0195264
0.0126539
0.0065204
0.00261986
0.000790964
0.000161057
1.19134e-05
2.60745e-06
0
1.86426e-06
7.11969e-06
1.1457e-05
1.22689e-05
1.21752e-05
1.20418e-05
1.1943e-05
1.18313e-05
1.16967e-05
1.15456e-05
1.14e-05
1.12462e-05
1.11175e-05
1.10084e-05
1.10101e-05
1.08388e-05
1.0751e-05
1.02963e-05
1.0663e-05
9.36125e-06
1.1121e-05
7.43709e-06
1.34648e-05
1.01212e-05
1.87846e-05
1.83848e-05
2.6645e-05
)
;
    }
    walls
    {
        type            calculated;
        value           nonuniform List<scalar> 0();
    }
    frontAndBack
    {
        type            empty;
    }
    procBoundary7to3
    {
        type            processor;
        value           nonuniform List<scalar> 
16
(
4.59855e-05
3.72241e-05
2.92498e-05
2.54245e-05
2.49256e-05
2.80251e-05
2.31773e-05
2.33326e-05
3.86742e-05
3.86742e-05
3.52967e-05
1.64599e-05
4.37995e-05
4.77698e-05
2.96996e-05
0.00012248
)
;
    }
    procBoundary7to6
    {
        type            processor;
        value           nonuniform List<scalar> 
91
(
2.38988e-05
2.13268e-05
2.13268e-05
2.06714e-05
2.06714e-05
1.45014e-05
1.45014e-05
1.39136e-05
1.71489e-05
1.71489e-05
1.57288e-05
1.65354e-05
1.65354e-05
1.78277e-05
1.69995e-05
1.69381e-05
1.69381e-05
1.87901e-05
1.82673e-05
1.77082e-05
1.77082e-05
2.06014e-05
1.99838e-05
1.93893e-05
1.88141e-05
1.88141e-05
2.28317e-05
2.21266e-05
2.14598e-05
2.08341e-05
2.02455e-05
2.02455e-05
2.68355e-05
2.5905e-05
2.50299e-05
2.42062e-05
2.34309e-05
2.27035e-05
2.20234e-05
2.20234e-05
4.33029e-05
4.05781e-05
3.73615e-05
3.54981e-05
3.40683e-05
3.26682e-05
3.12993e-05
2.99999e-05
2.87819e-05
2.76461e-05
2.65915e-05
2.56159e-05
2.56159e-05
4.9683e-05
4.535e-05
3.81966e-05
4.67599e-06
1.33196e-06
0
0
0
0.0005522
0.000742744
0.00614043
0.018091
0.0329544
0.0479487
0.0615898
0.0730533
0.08157
0.0861422
0.0854049
0.077498
0.0595532
0.0280979
0.0583402
0.0781613
0.0865112
0.0853065
0.0754712
0.0579818
0.035689
0.0151432
0.00324322
0.000272714
0.00013433
0
0
0
8.0463e-06
8.0463e-06
)
;
    }
}


// ************************************************************************* //
