/*--------------------------------*- C++ -*----------------------------------*\
| =========                 |                                                 |
| \\      /  F ield         | OpenFOAM: The Open Source CFD Toolbox           |
|  \\    /   O peration     | Version:  2506                                  |
|   \\  /    A nd           | Website:  www.openfoam.com                      |
|    \\/     M anipulation  |                                                 |
\*---------------------------------------------------------------------------*/
FoamFile
{
    version     2.0;
    format      ascii;
    arch        "LSB;label=32;scalar=64";
    class       volScalarField;
    location    "100";
    object      turbulenceProperties:L;
}
// * * * * * * * * * * * * * * * * * * * * * * * * * * * * * * * * * * * * * //

dimensions      [0 1 0 0 0 0 0];

internalField   nonuniform List<scalar> 
1340
(
0.283959
0.322069
0.281447
0.330102
0.327235
0.280617
0.467051
0.332457
0.330652
0.279527
0.490059
0.398314
0.468036
0.334696
0.333454
0.278301
0.436082
0.41386
0.495502
0.403085
0.46909
0.336796
0.33578
0.27706
0.386296
0.405042
0.405486
0.444345
0.420254
0.501438
0.40787
0.470388
0.338557
0.337542
0.27585
0.369188
0.378992
0.390504
0.395819
0.414735
0.413879
0.453431
0.427178
0.508024
0.412591
0.471975
0.339941
0.338718
0.274709
0.341135
0.350602
0.360301
0.370246
0.38151
0.390611
0.401804
0.40612
0.425224
0.423002
0.463359
0.434666
0.515352
0.417275
0.473794
0.341045
0.339419
0.273536
0.314001
0.323017
0.331956
0.340777
0.349477
0.358076
0.366633
0.375399
0.384346
0.394887
0.403152
0.413947
0.417169
0.436452
0.4328
0.474082
0.442704
0.523418
0.421967
0.475753
0.341966
0.339734
0.272462
0.272194
0.281748
0.29126
0.300706
0.310077
0.319254
0.328241
0.336986
0.345496
0.353722
0.361709
0.36941
0.376955
0.384348
0.391969
0.399706
0.409356
0.416635
0.426908
0.42891
0.448328
0.443182
0.485504
0.451225
0.532164
0.426687
0.477823
0.342749
0.339522
0.271404
0.221643
0.176694
0.188158
0.202923
0.213415
0.222966
0.23304
0.243515
0.254169
0.264891
0.275591
0.28622
0.296765
0.307203
0.31745
0.327467
0.33715
0.346415
0.355201
0.363511
0.371289
0.378566
0.385384
0.391772
0.397912
0.403832
0.410041
0.416309
0.424898
0.431013
0.44062
0.441264
0.46073
0.454036
0.497492
0.460136
0.541497
0.431411
0.480018
0.343424
0.339013
0.270363
0.164206
0.183357
0.191098
0.20847
0.631367
4.44138
0
0
0
0.178015
0.309149
1.22771
1.1087
1.09634
1.10954
1.14114
1.19099
1.26343
1.36991
1.53749
1.83751
2.53455
5.85617
2.79017
2.06922
1.78548
1.63574
1.54545
1.48776
1.44431
1.39266
1.3538
0.425971
0.18849
0
0
0
1.71234
0.252849
0.199218
0.21289
0.22851
0.240575
0.252174
0.264205
0.276437
0.288682
0.30088
0.312974
0.324931
0.336652
0.347995
0.358829
0.36899
0.378363
0.386868
0.394505
0.40122
0.407114
0.412295
0.416877
0.421146
0.42516
0.429622
0.434127
0.441467
0.44624
0.455021
0.454164
0.473564
0.46526
0.509893
0.469342
0.551283
0.436181
0.482253
0.344046
0.338129
0.269343
0.199747
0.218567
0.222765
0.211349
0.22591
0.388591
2.6323
0
0
0
0.666718
0.793727
1.36961
1.14221
1.12253
1.13432
1.16537
1.21521
1.28808
1.39556
1.56525
1.87036
2.58498
6.26538
2.83517
2.10545
1.81983
1.67013
1.58075
1.52258
1.4739
1.40955
1.32722
1.40643
0
0
0
0.0324147
3.10382
0.264149
0.226666
0.242484
0.259111
0.273112
0.287006
0.301229
0.315518
0.329797
0.344003
0.358059
0.371723
0.384737
0.396784
0.407634
0.417073
0.425032
0.431488
0.436483
0.440225
0.442991
0.445016
0.446736
0.448284
0.450569
0.452984
0.458873
0.462152
0.469949
0.467468
0.486636
0.476666
0.522444
0.478668
0.561277
0.440881
0.484578
0.344654
0.337142
0.268313
0.251924
0.265355
0.262295
0.245683
0.240618
0.242431
0.334075
2.13526
0
0
0
0
0.626606
1.85041
1.1802
1.14583
1.15545
1.18637
1.23677
1.31065
1.41966
1.5922
1.90402
2.643
6.72294
2.86251
2.13537
1.85109
1.70287
1.61431
1.5543
1.49753
1.41446
1.2545
1.32137
0
0
0
9.0481
1.42162
0.274798
0.256935
0.276518
0.294948
0.311507
0.328416
0.345664
0.363074
0.380572
0.397954
0.414762
0.430456
0.44443
0.456246
0.465565
0.472303
0.476541
0.478557
0.478848
0.47797
0.476372
0.47471
0.473125
0.472784
0.4728
0.47706
0.478756
0.485436
0.481276
0.499998
0.488358
0.535106
0.488092
0.571342
0.445678
0.486981
0.345114
0.336008
0.267296
0.285079
0.28968
0.278678
0.257387
0.25352
0.24847
0.243938
0.308223
1.96788
0.000323646
0
0
0
0.462663
1.71606
1.22943
1.16616
1.17293
1.20404
1.25545
1.33076
1.44186
1.61821
1.93947
2.71452
7.18533
2.86609
2.15759
1.87923
1.73412
1.64662
1.58386
1.5182
1.41346
1.1642
1.09808
0
0
0
5.7508
0.721075
0.288393
0.290987
0.318034
0.339116
0.358574
0.379968
0.402727
0.426106
0.449557
0.47221
0.492888
0.510274
0.523332
0.531462
0.534792
0.533939
0.52997
0.524033
0.517239
0.510291
0.504009
0.49847
0.494967
0.492271
0.49478
0.494849
0.500317
0.494521
0.512564
0.499385
0.54672
0.496951
0.580743
0.449967
0.489662
0.34554
0.334624
0.266042
0.286075
0.290143
0.296721
0.28642
0.277664
0.274867
0.27637
0.292554
0.358818
6.57797
2.07358
0
0
0
0.284636
0.643439
1.31972
1.19295
1.19317
1.22307
1.27414
1.34921
1.46014
1.63669
1.96034
2.74796
7.11544
2.8756
2.17682
1.90327
1.76107
1.67362
1.60498
1.52239
1.35276
1.14904
1.10739
0
0
0
4.68634
0.646571
0.298836
0.313377
0.356449
0.390566
0.417962
0.447151
0.479254
0.512792
0.545801
0.57566
0.599238
0.613907
0.618619
0.614573
0.604249
0.590549
0.575637
0.561165
0.547864
0.536421
0.52669
0.519923
0.51443
0.515191
0.513652
0.517858
0.510526
0.527519
0.512981
0.559974
0.507879
0.590384
0.455411
0.492107
0.346261
0.333291
0.265258
0.253141
0.275744
0.319835
0.347644
0.366572
0.375868
0.388012
0.424636
0.478295
0.530815
1.03359
6.0152
4.14782e-09
0
0
0.136113
0.754794
1.59448
1.23141
1.21633
1.24216
1.28946
1.35905
1.46047
1.61862
1.897
2.51269
5.35064
3.33559
2.33903
1.99929
1.83415
1.73674
1.664
1.58082
1.47933
1.19786
1.91019
0.2689
0
0
0.734987
3.13911
0.558908
0.378816
0.41081
0.463008
0.511081
0.55997
0.614411
0.672589
0.727517
0.767798
0.782663
0.771195
0.742651
0.707831
0.673649
0.642938
0.616595
0.594364
0.576137
0.561099
0.550286
0.541403
0.539921
0.536717
0.539101
0.530396
0.545355
0.530225
0.574975
0.522693
0.602152
0.466224
0.50362
0.353916
0.341853
0.274557
0.354595
0.505386
0.451528
0.359644
0.338127
0.325803
0.320528
0.319507
0.320318
0.317952
0.332898
0.414495
0.00737851
0.00401354
0
0
0
0.208697
0.364217
1.38157
1.24437
1.25718
1.29755
1.35762
1.44333
1.57153
1.78408
2.20134
3.40763
5.16942
2.69919
2.17066
1.94553
1.82413
1.7409
1.66191
1.56092
1.38713
1.05741
0.853977
0
0
0
6.88642
1.32935
0.516663
0.528785
0.613377
0.716681
0.845026
1.02662
1.27508
1.40685
1.2312
1.03963
0.907318
0.81579
0.749754
0.700055
0.661757
0.631433
0.607451
0.588107
0.574075
0.562628
0.55947
0.555143
0.556021
0.546389
0.5597
0.544027
0.588055
0.533447
0.613593
0.470726
0.507479
0.353834
0.338662
0.273298
0.242291
0.215606
0.207071
0.206219
0.216702
0.22943
0.241102
0.250733
0.256732
0.265784
0.28135
0.303313
0.332477
1.02886
6.4291
0
0
0
0.660598
0.354276
1.00776
1.34033
1.28805
1.31714
1.36855
1.44155
1.54811
1.71755
2.0274
2.7575
7.65701
3.2344
2.36984
2.05969
1.90573
1.80894
1.72812
1.63263
1.51405
1.12108
1.39607
0
0
0
2.67007
4.84805
0.77052
0.760134
0.938792
1.21657
1.53295
1.46057
1.21123
1.03967
0.925485
0.84396
0.78224
0.733896
0.695032
0.663441
0.637297
0.615799
0.597898
0.584583
0.573513
0.570444
0.56643
0.566978
0.557632
0.569932
0.554443
0.598404
0.541692
0.624884
0.473461
0.512837
0.352565
0.336617
0.272289
0.180716
0.177723
0.188828
0.204581
0.231403
0.257838
0.280101
0.288289
0.287045
0.311054
0.366772
0.405345
0.407318
0.547151
3.23912
0.000156618
0
0
0
0.087763
0.592471
2.09007
1.36584
1.36056
1.39869
1.4595
1.54865
1.68776
1.9309
2.44479
4.27555
4.17563
2.61492
2.18195
1.985
1.87041
1.78198
1.69081
1.56807
1.29281
2.24888
2.79222
0
0
0.00539024
0.0019778
1.27149
1.0415
1.00137
0.93726
0.871035
0.818062
0.777437
0.744963
0.717604
0.69354
0.671967
0.652427
0.634893
0.619034
0.604965
0.592392
0.582707
0.574352
0.572647
0.570043
0.571397
0.563622
0.575415
0.561091
0.604949
0.547608
0.634319
0.475028
0.518636
0.350766
0.335896
0.271388
0.220529
0.233318
0.294425
0.348326
0.433571
0.52476
0.526898
0.409759
0.364177
0.424454
0.773773
0.529919
0.464973
0.73137
0.537166
4.68122
2.64977
0
0
0
0
0.27283
0.671834
1.63986
1.45445
1.45849
1.50094
1.57276
1.68756
1.88468
2.27665
3.36778
6.5152
2.93529
2.31941
2.0656
1.92634
1.8268
1.73299
1.61336
1.42068
0.965008
0.522568
0
0
5.18564e-08
4.34612
1.24921
0.785139
0.717111
0.690022
0.668219
0.651105
0.638225
0.628055
0.619423
0.611691
0.604384
0.597383
0.590484
0.583815
0.577272
0.572109
0.567437
0.567577
0.566707
0.569433
0.564063
0.575699
0.563302
0.606677
0.550575
0.640326
0.475388
0.5243
0.348521
0.336462
0.270355
0.304812
0.275719
0.25361
0.258794
0.271058
0.287955
0.316946
0.379162
0.443393
0.465303
0.645611
0.673158
0.448945
0.423674
0.51049
0.468886
1.67583
4.1703
0
0
0
0
0.0934863
0.605591
4.02921
1.65929
1.56028
1.56816
1.61841
1.71089
1.87337
2.18742
2.95663
8.59079
3.3775
2.48
2.15129
1.98016
1.86444
1.76162
1.64369
1.51864
0.953255
0.503132
0
0
0
5.79488
0.970003
0.641402
0.603905
0.594338
0.585841
0.578783
0.573736
0.570231
0.567824
0.566103
0.564727
0.563339
0.561817
0.559973
0.55872
0.557474
0.559235
0.559875
0.564248
0.561519
0.573432
0.562993
0.606173
0.551777
0.645352
0.474979
0.530483
0.346172
0.3387
0.269086
0.160127
0.168917
0.190933
0.225612
0.266946
0.320875
0.366981
0.41442
0.609831
0.519073
0.401847
0.405523
0.418165
0.383128
0.363453
0.363396
0.367806
0.689297
5.64027
8.82663e-05
0
0
0
0
0.404977
1.01919
2.25624
1.7284
1.66363
1.68282
1.75276
1.88755
2.14777
2.74066
5.23866
4.02685
2.6714
2.24533
2.03386
1.89518
1.77605
1.64937
1.47073
1.51132
0.788426
0.0229812
0
0
5.62871
0.808425
0.545545
0.52543
0.523742
0.521578
0.520878
0.521702
0.5234
0.525651
0.528326
0.5311
0.533739
0.535864
0.53809
0.540074
0.543417
0.545214
0.550913
0.55096
0.562923
0.554891
0.59584
0.546419
0.639275
0.471802
0.534541
0.343457
0.343868
0.266488
0.172923
0.193195
0.223233
0.264216
0.221816
0.193428
0.1857
0.181368
0.17998
0.181658
0.183487
0.189387
0.205633
0.229913
0.252397
0.269043
0.274992
0.280891
0.374241
3.42374
7.30006
0
0
0
0
0.237621
0.471703
4.90032
1.98022
1.77741
1.75677
1.80533
1.91897
2.14309
2.63269
4.26076
5.08545
2.91192
2.36392
2.10631
1.9441
1.81512
1.69715
1.64364
2.06614
1.43696
2.99095
0
0.012774
2.40432
0.676233
0.517487
0.513404
0.515575
0.51195
0.509586
0.510045
0.512158
0.51526
0.519029
0.523274
0.527396
0.531602
0.535453
0.539357
0.541478
0.548742
0.551158
0.564592
0.557062
0.600136
0.549234
0.652467
0.47275
0.546237
0.342768
0.352919
0.262278
0.134964
0.110324
0.0962887
0.0900888
0.0870529
0.0864306
0.0877049
0.0904215
0.0942181
0.0986651
0.103515
0.109211
0.117161
0.128196
0.139925
0.14764
0.147374
0.141503
0.139883
0.16074
0.506038
3.36086
0.00046493
0
0
0
0.094436
0.599518
1.72013
2.38714
1.90227
1.83209
1.86151
1.96076
2.16273
2.59638
3.89062
6.03157
3.06577
2.41883
2.11727
1.91816
1.73974
1.52761
1.04482
1.27253
0.392143
0.268285
0.583777
0.000355592
4.56628
0.649589
0.427149
0.427734
0.44253
0.449856
0.454086
0.458841
0.464388
0.47032
0.476491
0.482664
0.488907
0.495019
0.500271
0.503033
0.510008
0.514454
0.526199
0.523207
0.557044
0.52226
0.604273
0.460313
0.536237
0.338959
0.364754
0.248704
0.0551486
0.0543254
0.0555576
0.0569839
0.0589882
0.0619291
0.0659898
0.071356
0.0783311
0.0872217
0.0983134
0.1117
0.126662
0.140475
0.14717
0.143328
0.132455
0.119645
0.108412
0.101735
0.102311
0.14139
3.10829
10.979
0
0
0
0
0.429078
0.797013
3.31846
2.03742
1.8888
1.89259
1.9702
2.13049
2.44817
3.20076
7.25476
4.17044
2.86271
2.39723
2.13935
1.95196
1.78341
1.64636
1.59471
1.39848
0.49857
4.04617
0
5.79145
0.878499
0.48695
0.457322
0.463424
0.471295
0.477818
0.484457
0.491645
0.499219
0.50674
0.514367
0.521882
0.52754
0.528846
0.536398
0.543682
0.559965
0.555961
0.598505
0.555272
0.668678
0.485504
0.582153
0.35534
0.362322
0.248183
)
;

boundaryField
{
    inlet
    {
        type            calculated;
        value           nonuniform List<scalar> 
27
(
0.112199
0.112052
0.111837
0.111579
0.111314
0.111047
0.11077
0.110483
0.110187
0.10989
0.109593
0.1093
0.109015
0.108741
0.108485
0.108253
0.108044
0.108225
0.10811
0.10804
0.108041
0.108123
0.10831
0.108618
0.109113
0.10962
0.110717
)
;
    }
    outlet
    {
        type            calculated;
        value           nonuniform List<scalar> 
78
(
0.0549476
0.0541353
0.055365
0.0567926
0.0587983
0.0617405
0.0658084
0.0712032
0.0782692
0.0874201
0.0992128
0.114412
0.133705
0.155773
0.169875
0.163812
0.14646
0.128892
0.114913
0.10677
0.106633
0.146376
3.19346
10.7109
0
0
0
0
0.418541
0.779157
3.78134
2.06535
1.89976
1.89886
1.97421
2.1329
2.44877
3.19709
7.18605
4.18659
2.86614
2.39707
2.13645
1.94557
1.77082
1.61888
1.51718
1.27777
0.569197
4.59976
0
6.28456
1.0584
0.587564
0.550003
0.554324
0.560389
0.565122
0.570615
0.577353
0.58509
0.592752
0.601041
0.608193
0.614418
0.614519
0.624401
0.629679
0.657661
0.635256
0.723726
0.60948
0.91114
0.503757
0.6698
0.361497
0.368598
0.255168
)
;
    }
    walls
    {
        type            calculated;
        value           nonuniform List<scalar> 0();
    }
    frontAndBack
    {
        type            empty;
    }
    procBoundary7to3
    {
        type            processor;
        value           nonuniform List<scalar> 
16
(
0.149147
0.184118
0.234116
0.269129
0.274344
0.243887
0.294837
0.292779
0.176422
0.176422
0.193019
0.413565
0.155499
0.142733
0.230908
0.055775
)
;
    }
    procBoundary7to6
    {
        type            processor;
        value           nonuniform List<scalar> 
91
(
0.28227
0.317334
0.317334
0.326856
0.326856
0.465912
0.465912
0.485025
0.39373
0.39373
0.428588
0.407923
0.407923
0.377576
0.396175
0.397828
0.397828
0.357837
0.36825
0.380037
0.380037
0.32592
0.336118
0.346568
0.357325
0.357325
0.293954
0.303341
0.312805
0.322259
0.331708
0.331708
0.250536
0.25945
0.268447
0.277519
0.286654
0.295803
0.304919
0.304919
0.157525
0.167441
0.181012
0.190288
0.198179
0.206564
0.215472
0.224679
0.234066
0.243567
0.253118
0.262659
0.262659
0.138206
0.152089
0.179435
3.44866
7.9144
0
0
0
0.394586
1.1259
1.14706
1.0716
1.06488
1.08074
1.11388
1.16465
1.2376
1.34422
1.51126
1.80916
2.49881
5.51429
2.72415
2.02631
1.7484
1.6007
1.51088
1.45327
1.41264
1.37263
1.36142
0.539487
0.256423
0
0
0
1.52567
1.52567
)
;
    }
}


// ************************************************************************* //
