/*--------------------------------*- C++ -*----------------------------------*\
| =========                 |                                                 |
| \\      /  F ield         | OpenFOAM: The Open Source CFD Toolbox           |
|  \\    /   O peration     | Version:  2506                                  |
|   \\  /    A nd           | Website:  www.openfoam.com                      |
|    \\/     M anipulation  |                                                 |
\*---------------------------------------------------------------------------*/
FoamFile
{
    version     2.0;
    format      ascii;
    arch        "LSB;label=32;scalar=64";
    class       volScalarField;
    location    "400";
    object      static(p)_coeff;
}
// * * * * * * * * * * * * * * * * * * * * * * * * * * * * * * * * * * * * * //

dimensions      [0 0 0 0 0 0 0];

internalField   nonuniform List<scalar> 
10720
(
-0.184208
-0.395062
-0.643075
-0.887506
-1.11337
-1.34345
-1.54759
-1.71898
-1.86787
-1.98437
-2.07307
-2.13839
-2.18368
-2.21106
-2.22108
-2.21181
-2.18594
-2.14035
-2.07926
-2.00287
-1.9211
-1.84299
-1.77613
-1.69638
-1.57736
-1.42627
-1.27136
-1.13649
-1.02041
-0.911216
-0.803278
-0.696319
-0.59047
-0.484635
-0.377626
-0.266375
-0.152496
-0.020474
0.0769041
0.0268866
0.21927
0.42436
0.615836
0.779461
0.90344
0.97662
1.00113
0.994027
0.955856
0.893655
0.824015
0.754373
0.686981
0.623742
0.564251
0.508676
0.45574
0.404646
0.353936
0.303464
0.252308
0.200743
0.149987
0.105565
0.0705565
0.0418225
0.0185109
0.00116859
-0.0103069
-0.0166499
-0.0182988
-0.0154983
-0.00826689
0.00342123
0.0206118
0.0450022
0.0861864
0.156258
0.127802
-0.032379
-0.211839
-0.402439
-0.598305
-0.798776
-0.993341
-1.17585
-1.34429
-1.49346
-1.62274
-1.73215
-1.82141
-1.8905
-1.93891
-1.96572
-1.97317
-1.96091
-1.93205
-1.88821
-1.83722
-1.78606
-1.73794
-1.67166
-1.56295
-1.41787
-1.2666
-1.13333
-1.0178
-0.908841
-0.800983
-0.694133
-0.5885
-0.482946
-0.37625
-0.265287
-0.151641
-0.0195737
0.0759883
0.271939
0.409334
0.546383
0.678575
0.795073
0.888145
0.948508
0.974224
0.97
0.938384
0.887559
0.827819
0.764927
0.701667
0.640132
0.581052
0.524814
0.470878
0.41866
0.367187
0.316168
0.264992
0.213902
0.164154
0.120105
0.0844978
0.0553112
0.031321
0.01242
-0.00109536
-0.00926316
-0.012363
-0.0107011
-0.00437451
0.00661322
0.0232805
0.0472783
0.08823
0.155548
0.168557
0.0246383
-0.137412
-0.316333
-0.501841
-0.691977
-0.882114
-1.06438
-1.2341
-1.38832
-1.52333
-1.6375
-1.72992
-1.80115
-1.85189
-1.88337
-1.89568
-1.889
-1.86525
-1.82656
-1.77845
-1.72691
-1.67538
-1.61066
-1.51252
-1.38208
-1.24337
-1.11757
-1.00621
-0.900284
-0.794934
-0.689995
-0.585604
-0.480798
-0.374597
-0.264029
-0.150694
-0.0188356
0.0763498
0.298426
0.424599
0.550092
0.668906
0.771543
0.853212
0.90769
0.934068
0.934536
0.911059
0.869788
0.81768
0.760008
0.700224
0.640726
0.582803
0.527041
0.473345
0.421284
0.370145
0.319531
0.269024
0.218815
0.170033
0.126117
0.0897397
0.059803
0.0352576
0.0160613
0.00247333
-0.00569407
-0.00890792
-0.00751705
-0.00156365
0.00904327
0.0253748
0.0491115
0.0896654
0.154375
0.235428
0.114782
-0.0230426
-0.17461
-0.33374
-0.500226
-0.669142
-0.835288
-0.994743
-1.14409
-1.28001
-1.40034
-1.50372
-1.58969
-1.6579
-1.7087
-1.74075
-1.75395
-1.7492
-1.72832
-1.69514
-1.65421
-1.60802
-1.54808
-1.45982
-1.34309
-1.21628
-1.09774
-0.990572
-0.887941
-0.785516
-0.683027
-0.580629
-0.477415
-0.372373
-0.262608
-0.14981
-0.0185418
0.0769591
0.343492
0.447271
0.55137
0.651795
0.739699
0.811335
0.861347
0.888301
0.892925
0.876591
0.844014
0.800356
0.749936
0.696009
0.640907
0.586059
0.53228
0.479816
0.42851
0.377921
0.327762
0.27781
0.228273
0.180215
0.136473
0.0995615
0.068985
0.0437874
0.023839
0.00932276
7.25368e-05
-0.00422056
-0.00378108
0.00140653
0.0114453
0.027375
0.0508197
0.0908616
0.153061
0.253546
0.146129
0.0228398
-0.113731
-0.257509
-0.409709
-0.566271
-0.722428
-0.875189
-1.02114
-1.15687
-1.28
-1.38852
-1.48095
-1.55641
-1.61398
-1.65291
-1.67323
-1.67564
-1.66197
-1.63524
-1.59925
-1.55591
-1.49919
-1.41782
-1.31076
-1.19247
-1.07921
-0.97515
-0.875115
-0.775178
-0.674928
-0.574477
-0.472942
-0.369353
-0.260836
-0.148949
-0.0186661
0.0771481
0.350002
0.442139
0.534806
0.624195
0.702492
0.767118
0.813947
0.84126
0.849145
0.838843
0.813764
0.777793
0.73431
0.686156
0.635553
0.584007
0.532505
0.481579
0.431331
0.381586
0.332178
0.283024
0.234369
0.187196
0.143848
0.106611
0.0754621
0.0496401
0.0290307
0.0138348
0.00397366
-0.000806029
-0.000746641
0.00412135
0.013881
0.0295537
0.052726
0.0921488
0.151721
0.264762
0.169661
0.0599337
-0.0615188
-0.189418
-0.325834
-0.466979
-0.609066
-0.749904
-0.88637
-1.0156
-1.13531
-1.24334
-1.33791
-1.41775
-1.48176
-1.52959
-1.56064
-1.57495
-1.57358
-1.55854
-1.53247
-1.49655
-1.44644
-1.37352
-1.27656
-1.16724
-1.06
-0.959662
-0.862441
-0.764927
-0.666758
-0.568141
-0.468242
-0.366093
-0.258907
-0.148175
-0.019297
0.0768103
0.350165
0.431438
0.51377
0.593779
0.664244
0.723259
0.767479
0.794895
0.805233
0.799726
0.780869
0.751666
0.714758
0.672511
0.626919
0.579404
0.531005
0.482399
0.43389
0.385514
0.337254
0.28915
0.241503
0.195245
0.152372
0.114965
0.0833549
0.0570108
0.0358323
0.02001
0.00950218
0.0040621
0.00346193
0.00769186
0.0168762
0.032051
0.0547643
0.0933917
0.150263
0.264524
0.178694
0.0794035
-0.0305975
-0.146208
-0.27019
-0.399183
-0.529869
-0.66079
-0.789166
-0.912517
-1.02881
-1.13584
-1.23169
-1.31481
-1.38388
-1.43768
-1.47544
-1.49672
-1.50232
-1.49388
-1.47346
-1.442
-1.39655
-1.33064
-1.2428
-1.14207
-1.04087
-0.944353
-0.850003
-0.754935
-0.658808
-0.561882
-0.463489
-0.362786
-0.257043
-0.147674
-0.0205452
0.0758677
0.341679
0.414871
0.489394
0.562116
0.62641
0.680927
0.722922
0.750196
0.762347
0.760593
0.74683
0.723413
0.692421
0.655758
0.615138
0.571811
0.526787
0.480825
0.434363
0.387617
0.340715
0.293815
0.247281
0.202004
0.159716
0.122308
0.0903593
0.0635612
0.0418465
0.0254027
0.0142317
0.00814127
0.00693885
0.0106405
0.0193842
0.0341868
0.0565286
0.0943468
0.148586
0.259555
0.181647
0.0913319
-0.00863544
-0.113418
-0.226146
-0.343726
-0.463267
-0.583817
-0.703013
-0.818703
-0.929203
-1.03247
-1.12662
-1.20999
-1.28109
-1.33855
-1.38164
-1.40979
-1.42317
-1.42268
-1.40959
-1.38437
-1.34485
-1.28633
-1.20742
-1.11516
-1.02019
-0.927809
-0.836619
-0.744269
-0.650434
-0.555404
-0.458612
-0.359364
-0.255128
-0.147392
-0.0223632
0.0741672
0.329694
0.396089
0.464066
0.530727
0.58989
0.640676
0.680672
0.707595
0.721076
0.722221
0.712564
0.694009
0.668211
0.636692
0.600869
0.561805
0.52041
0.477447
0.433426
0.388673
0.343445
0.298003
0.252761
0.20858
0.167012
0.129782
0.0976389
0.0704876
0.0483144
0.0313139
0.0195343
0.0128313
0.0110359
0.0141756
0.0224066
0.0367318
0.0585702
0.0953788
0.146903
0.25099
0.179651
0.0968563
0.00528023
-0.0904058
-0.193522
-0.301272
-0.411049
-0.522324
-0.633033
-0.741388
-0.846025
-0.945101
-1.03685
-1.11965
-1.19192
-1.25218
-1.29936
-1.33261
-1.35161
-1.35686
-1.34923
-1.32899
-1.2946
-1.2426
-1.17176
-1.08743
-0.998594
-0.910473
-0.82256
-0.733029
-0.641602
-0.548589
-0.453527
-0.355815
-0.253112
-0.147146
-0.0244718
0.0716527
0.31531
0.376096
0.438643
0.500223
0.555055
0.60268
0.640851
0.667285
0.681696
0.685071
0.678708
0.664194
0.642871
0.615966
0.584625
0.549707
0.512007
0.472218
0.430864
0.388348
0.345015
0.301207
0.257388
0.214399
0.173658
0.136753
0.104544
0.0771274
0.0545558
0.0370397
0.0246703
0.0173538
0.0149568
0.0175302
0.0252503
0.0390998
0.0604232
0.0961692
0.145043
0.240495
0.174797
0.0984928
0.0142006
-0.0735913
-0.168278
-0.267257
-0.368178
-0.47081
-0.573344
-0.674316
-0.772632
-0.866662
-0.954868
-1.03569
-1.10754
-1.16891
-1.21859
-1.25569
-1.27957
-1.29025
-1.28811
-1.27312
-1.24409
-1.19851
-1.13534
-1.05866
-0.975975
-0.89228
-0.807798
-0.721201
-0.632285
-0.54139
-0.448162
-0.352097
-0.251005
-0.146849
-0.026699
0.0684707
0.299834
0.355844
0.413747
0.470972
0.522087
0.566949
0.603443
0.629291
0.644311
0.649393
0.645663
0.634476
0.616969
0.594128
0.566887
0.535915
0.501864
0.465335
0.426827
0.386762
0.345539
0.303558
0.261319
0.219647
0.179864
0.143447
0.111325
0.0837542
0.0608705
0.0429048
0.0299926
0.0220949
0.0191126
0.0211156
0.028302
0.0416285
0.0623598
0.0969027
0.143094
0.228862
0.168031
0.0973517
0.019376
-0.0615531
-0.148869
-0.240128
-0.33319
-0.427998
-0.522986
-0.616966
-0.709091
-0.797942
-0.882173
-0.960378
-1.03104
-1.09266
-1.14395
-1.18384
-1.21148
-1.22646
-1.22886
-1.21847
-1.19436
-1.15469
-1.09858
-1.02912
-0.952475
-0.873299
-0.792364
-0.708801
-0.6225
-0.533827
-0.442527
-0.348207
-0.248834
-0.14649
-0.0290704
0.064816
0.283897
0.335799
0.389688
0.443136
0.491012
0.533422
0.568348
0.593555
0.608935
0.61531
0.613668
0.605217
0.590934
0.571637
0.548081
0.52078
0.490243
0.456964
0.421384
0.383911
0.344959
0.304963
0.264439
0.224194
0.185486
0.149702
0.117805
0.090189
0.0670725
0.0487176
0.0353022
0.0268429
0.0232824
0.0247125
0.031355
0.0441353
0.0642321
0.097494
0.141039
0.21669
0.160127
0.09439
0.0219704
-0.052934
-0.133738
-0.218127
-0.304126
-0.391832
-0.479852
-0.567215
-0.653288
-0.736854
-0.816778
-0.891792
-0.960488
-1.02144
-1.07332
-1.11499
-1.1455
-1.16407
-1.17051
-1.16444
-1.14504
-1.11096
-1.06146
-0.998821
-0.928105
-0.853526
-0.776252
-0.695837
-0.612254
-0.525906
-0.436635
-0.344161
-0.246624
-0.146123
-0.0316342
0.0607664
0.267967
0.316283
0.366652
0.41677
0.461794
0.501988
0.53543
0.559968
0.575515
0.582853
0.582877
0.576665
0.565094
0.548853
0.528568
0.504627
0.477406
0.447298
0.414661
0.379862
0.343306
0.305431
0.266747
0.228046
0.190533
0.155527
0.124001
0.0964581
0.073202
0.0545303
0.040666
0.03168
0.0275604
0.0284187
0.0345018
0.0466985
0.0660985
0.09798
0.138894
0.204365
0.151567
0.0902094
0.0227109
-0.0468651
-0.121886
-0.200152
-0.279818
-0.361097
-0.442752
-0.523953
-0.604271
-0.682651
-0.758153
-0.82968
-0.895947
-0.955616
-1.00739
-1.05004
-1.08259
-1.104
-1.11381
-1.11155
-1.09648
-1.06754
-1.02413
-0.967912
-0.902952
-0.833001
-0.759481
-0.682302
-0.601541
-0.517621
-0.430485
-0.339957
-0.244373
-0.145811
-0.0343933
0.0563393
0.252308
0.297474
0.344714
0.391862
0.434345
0.472525
0.504565
0.528408
0.543978
0.552023
0.55336
0.54898
0.539677
0.526062
0.508655
0.487743
0.463607
0.436531
0.406793
0.374697
0.340611
0.304951
0.268215
0.231165
0.194961
0.160865
0.129848
0.102497
0.0791949
0.0602819
0.0460233
0.0365457
0.0318847
0.0321743
0.0376868
0.0492713
0.0679232
0.0983479
0.136667
0.192139
0.142696
0.0852538
0.0221523
-0.0426708
-0.112523
-0.185307
-0.259272
-0.334731
-0.410558
-0.486058
-0.560933
-0.634299
-0.705376
-0.773235
-0.836737
-0.894619
-0.945663
-0.988599
-1.02246
-1.04604
-1.05868
-1.05979
-1.04867
-1.02449
-0.986694
-0.936482
-0.877079
-0.811758
-0.742065
-0.668202
-0.590354
-0.508966
-0.42407
-0.335592
-0.24207
-0.145575
-0.0373384
0.0515772
0.237105
0.279459
0.323911
0.368377
0.40858
0.444902
0.47561
0.498753
0.514228
0.522782
0.525154
0.522268
0.514861
0.503485
0.488589
0.47039
0.449081
0.424866
0.397928
0.36851
0.336923
0.303546
0.268845
0.23354
0.19875
0.165689
0.135318
0.108279
0.0850314
0.0659577
0.0513678
0.0414415
0.0362641
0.0359917
0.0409233
0.0518635
0.0697133
0.0986097
0.134368
0.180179
0.133752
0.0798338
0.0206895
-0.0398718
-0.105082
-0.172923
-0.24175
-0.311926
-0.38242
-0.452649
-0.522433
-0.591023
-0.657784
-0.721919
-0.782437
-0.838195
-0.888038
-0.930732
-0.965279
-0.990442
-1.00535
-1.00935
-1.00179
-0.981929
-0.949283
-0.904661
-0.850583
-0.789843
-0.724022
-0.653549
-0.578694
-0.499936
-0.417382
-0.33106
-0.239713
-0.145402
-0.0404619
0.0465178
0.222469
0.262295
0.304221
0.346267
0.384387
0.418991
0.44844
0.470872
0.486176
0.49507
0.498256
0.496582
0.49076
0.481295
0.46858
0.452788
0.434047
0.412484
0.388218
0.361408
0.332311
0.301251
0.268645
0.235164
0.201881
0.16997
0.14037
0.113765
0.0906717
0.0715226
0.0566677
0.0463389
0.0406731
0.039849
0.0441915
0.054459
0.0714563
0.0987653
0.132009
0.168593
0.124903
0.0741749
0.0186148
-0.0381024
-0.0991125
-0.162481
-0.226654
-0.292023
-0.35764
-0.423023
-0.488063
-0.55213
-0.614715
-0.675156
-0.732579
-0.785969
-0.834256
-0.87626
-0.910964
-0.937189
-0.95388
-0.960331
-0.955897
-0.939948
-0.912
-0.872554
-0.823551
-0.767316
-0.705388
-0.638351
-0.56657
-0.490533
-0.410425
-0.326363
-0.2373
-0.145282
-0.0437442
0.0411795
0.208461
0.245999
0.285628
0.325461
0.361671
0.394681
0.422934
0.444654
0.459721
0.468831
0.472647
0.47196
0.467459
0.459614
0.448786
0.435114
0.418684
0.399564
0.377806
0.353507
0.326854
0.29811
0.267632
0.236036
0.204344
0.173685
0.144975
0.118919
0.0960852
0.0769479
0.0618989
0.0512199
0.045098
0.0437365
0.0474838
0.0570519
0.0731491
0.0988229
0.129601
0.157456
0.116256
0.068434
0.0161422
-0.0370882
-0.0942794
-0.153589
-0.213527
-0.274514
-0.335677
-0.396591
-0.457221
-0.517038
-0.575627
-0.632453
-0.686756
-0.737631
-0.784108
-0.825077
-0.859516
-0.886331
-0.904351
-0.912825
-0.911118
-0.898657
-0.874961
-0.84029
-0.796082
-0.744242
-0.686197
-0.622636
-0.55399
-0.48076
-0.403193
-0.321498
-0.23483
-0.145208
-0.0471611
0.0355809
0.195113
0.230571
0.268094
0.305895
0.340342
0.371855
0.398975
0.419988
0.434765
0.443997
0.448292
0.448407
0.445006
0.438537
0.429338
0.41753
0.403164
0.386269
0.366844
0.34493
0.320643
0.294183
0.265843
0.236171
0.206134
0.176817
0.149105
0.123709
0.101237
0.0822016
0.0670329
0.0560595
0.0495185
0.0476371
0.0507866
0.0596311
0.0747854
0.098788
0.127158
0.146809
0.107887
0.0627363
0.0134283
-0.0366129
-0.0903265
-0.145928
-0.202005
-0.258986
-0.316064
-0.372864
-0.429409
-0.485244
-0.54005
-0.59338
-0.644583
-0.69287
-0.737356
-0.777018
-0.810853
-0.837852
-0.856803
-0.866904
-0.867531
-0.858152
-0.838284
-0.807984
-0.768284
-0.720695
-0.666498
-0.60643
-0.540967
-0.47062
-0.395689
-0.316463
-0.232298
-0.145177
-0.0506866
0.0297551
0.182436
0.215986
0.251572
0.287495
0.320308
0.350419
0.376457
0.396769
0.41123
0.420497
0.425152
0.425916
0.423431
0.41813
0.410337
0.400153
0.387623
0.372739
0.355465
0.335787
0.313766
0.289537
0.263319
0.235591
0.207257
0.179357
0.152738
0.128107
0.106097
0.0872527
0.0720417
0.0608341
0.0539142
0.0515352
0.0540864
0.0621873
0.0763598
0.0986682
0.124692
0.136673
0.0998499
0.0571551
0.0105984
-0.0365259
-0.0870457
-0.139252
-0.19179
-0.245104
-0.298429
-0.35144
-0.404199
-0.456319
-0.507549
-0.557531
-0.6057
-0.651378
-0.693764
-0.731926
-0.764897
-0.791739
-0.81127
-0.822631
-0.825213
-0.818523
-0.802071
-0.775752
-0.740255
-0.696754
-0.646346
-0.589766
-0.527521
-0.460123
-0.387919
-0.31126
-0.229701
-0.145186
-0.0542943
0.0237371
0.170428
0.202221
0.236013
0.270196
0.301479
0.330273
0.355279
0.374904
0.389016
0.398257
0.403182
0.404468
0.402747
0.398437
0.39185
0.383089
0.372183
0.359107
0.3438
0.326203
0.306327
0.284244
0.260108
0.234323
0.207727
0.181302
0.155857
0.132086
0.110634
0.0920708
0.0768958
0.065517
0.0582622
0.0554124
0.057369
0.0647092
0.0778681
0.0984713
0.122217
0.127058
0.0921769
0.0517526
0.00773516
-0.0366998
-0.0842839
-0.133364
-0.182656
-0.232599
-0.28247
-0.331983
-0.381237
-0.429891
-0.477755
-0.524548
-0.569785
-0.612872
-0.653105
-0.689626
-0.721535
-0.747946
-0.767748
-0.780041
-0.784229
-0.779852
-0.766423
-0.743704
-0.712111
-0.672503
-0.625795
-0.572681
-0.513675
-0.449286
-0.379883
-0.305886
-0.227034
-0.145224
-0.0579588
0.0175658
0.159078
0.189244
0.221371
0.253933
0.283782
0.311328
0.335349
0.354303
0.368051
0.37722
0.382335
0.384038
0.382953
0.379486
0.37394
0.366415
0.356941
0.345483
0.331957
0.316283
0.298417
0.278384
0.256272
0.23241
0.207562
0.182654
0.158451
0.135625
0.11482
0.0966267
0.0815663
0.0700818
0.0625399
0.0592487
0.0606179
0.0671864
0.0793059
0.0982047
0.119747
0.117962
0.0848844
0.0465702
0.0049076
-0.0370441
-0.0819144
-0.128113
-0.174412
-0.221248
-0.267937
-0.314221
-0.360228
-0.405657
-0.450368
-0.494135
-0.536554
-0.577103
-0.615165
-0.649958
-0.680657
-0.706411
-0.726223
-0.739155
-0.744627
-0.742216
-0.731438
-0.711954
-0.683955
-0.648032
-0.604913
-0.555224
-0.499462
-0.438117
-0.371592
-0.300343
-0.22429
-0.145279
-0.0616522
0.0112833
0.14837
0.177023
0.207597
0.238642
0.267144
0.29351
0.31659
0.334888
0.34826
0.357317
0.362558
0.364599
0.364046
0.361292
0.35664
0.350192
0.341978
0.331959
0.320045
0.306126
0.290133
0.272039
0.251874
0.229894
0.206789
0.183424
0.160517
0.138708
0.118634
0.100892
0.086024
0.0745011
0.0667226
0.0630235
0.0638174
0.0696074
0.0806691
0.0978773
0.117294
0.10938
0.0779825
0.041632
0.00216227
-0.0374848
-0.0798412
-0.123372
-0.166906
-0.210867
-0.254616
-0.297918
-0.340916
-0.383343
-0.425102
-0.466018
-0.505742
-0.54383
-0.579736
-0.612757
-0.642137
-0.667066
-0.686665
-0.699978
-0.706444
-0.705675
-0.697198
-0.680604
-0.655894
-0.623435
-0.58377
-0.537444
-0.48491
-0.426643
-0.363049
-0.294633
-0.221463
-0.145338
-0.0653442
0.00493381
0.138284
0.165523
0.194642
0.224264
0.251496
0.276747
0.298926
0.316582
0.329572
0.33849
0.343809
0.346119
0.346003
0.343859
0.339975
0.334465
0.32736
0.31862
0.308149
0.295829
0.281565
0.265288
0.246979
0.226824
0.205442
0.18363
0.162054
0.141323
0.122052
0.104841
0.0902419
0.0787471
0.0707852
0.0667149
0.0669497
0.0719609
0.0819543
0.097496
0.114873
0.101299
0.0714705
0.0369574
-0.000464891
-0.0379723
-0.0779881
-0.119044
-0.160014
-0.201316
-0.24234
-0.282879
-0.323083
-0.362721
-0.40172
-0.439954
-0.477119
-0.512835
-0.546625
-0.57786
-0.60585
-0.62983
-0.649026
-0.662502
-0.669707
-0.670281
-0.663783
-0.649745
-0.628028
-0.598802
-0.562444
-0.519395
-0.470061
-0.414883
-0.354273
-0.288758
-0.218545
-0.145385
-0.0690084
-0.00144102
0.128792
0.154713
0.182464
0.210744
0.236781
0.260972
0.282289
0.29932
0.311923
0.320681
0.326038
0.328555
0.328809
0.327185
0.323961
0.319267
0.313133
0.305522
0.296344
0.285474
0.272795
0.25821
0.241655
0.223258
0.203559
0.183292
0.163072
0.143463
0.12506
0.108451
0.0941927
0.0827932
0.0747023
0.0703004
0.0699972
0.0742349
0.0831579
0.0970695
0.112495
0.0937044
0.065346
0.0325547
-0.00295049
-0.0384603
-0.0762954
-0.115047
-0.153635
-0.192468
-0.230968
-0.268944
-0.306554
-0.343593
-0.380016
-0.415726
-0.450469
-0.483919
-0.515651
-0.545108
-0.57167
-0.594614
-0.61326
-0.626706
-0.634423
-0.63608
-0.631258
-0.619471
-0.600455
-0.574228
-0.541011
-0.50114
-0.454959
-0.402871
-0.345279
-0.28272
-0.21553
-0.1454
-0.072612
-0.00779524
0.119872
0.144554
0.171021
0.198036
0.222939
0.246121
0.26661
0.283034
0.295257
0.303836
0.309196
0.311876
0.312435
0.311255
0.308604
0.30462
0.299334
0.292726
0.284701
0.275135
0.263902
0.250881
0.235973
0.21925
0.201183
0.18244
0.163582
0.14513
0.127646
0.111702
0.0978528
0.0866129
0.0784481
0.0737569
0.0729418
0.0764175
0.0842771
0.0966043
0.110172
0.0865768
0.0596019
0.0284286
-0.00527855
-0.0389176
-0.0747162
-0.111316
-0.147686
-0.184223
-0.220377
-0.255972
-0.29117
-0.325792
-0.359811
-0.393154
-0.425614
-0.456902
-0.486646
-0.514358
-0.539473
-0.561326
-0.579301
-0.592567
-0.600597
-0.603097
-0.599686
-0.589857
-0.57327
-0.549802
-0.519549
-0.482736
-0.439649
-0.390634
-0.336077
-0.276525
-0.212408
-0.145365
-0.076125
-0.0140847
0.111499
0.135015
0.160269
0.186086
0.209915
0.232136
0.251832
0.267671
0.279514
0.287901
0.293242
0.296048
0.296862
0.296057
0.293903
0.290534
0.285996
0.280269
0.273269
0.264875
0.254953
0.243369
0.229995
0.214858
0.19836
0.181106
0.163603
0.146326
0.129802
0.114578
0.101199
0.090181
0.0819978
0.0770614
0.0757644
0.0784972
0.0853085
0.0961064
0.107914
0.0798998
0.054228
0.0245776
-0.00743896
-0.039324
-0.0732142
-0.107802
-0.142101
-0.176498
-0.210467
-0.243848
-0.276802
-0.309169
-0.340945
-0.372074
-0.402377
-0.431615
-0.459458
-0.485469
-0.509141
-0.529869
-0.547087
-0.560042
-0.568224
-0.571359
-0.569111
-0.560977
-0.546548
-0.525613
-0.49814
-0.464261
-0.424182
-0.378205
-0.326692
-0.270176
-0.209174
-0.145257
-0.0795159
-0.0202642
0.103648
0.126064
0.15017
0.174851
0.197661
0.218966
0.2379
0.253173
0.264642
0.272831
0.278131
0.281029
0.282057
0.281575
0.279848
0.277017
0.273132
0.268183
0.262093
0.254747
0.246011
0.235738
0.223785
0.210137
0.195138
0.179327
0.163158
0.147062
0.131525
0.117066
0.104213
0.0934746
0.0853277
0.0801914
0.0784472
0.0804618
0.0862494
0.095582
0.105731
0.0736537
0.0492109
0.0209993
-0.00942525
-0.0396612
-0.0717601
-0.104463
-0.136826
-0.169223
-0.201153
-0.232472
-0.263337
-0.293607
-0.323287
-0.352345
-0.380622
-0.407917
-0.433943
-0.458307
-0.480559
-0.500146
-0.516544
-0.529091
-0.537279
-0.540869
-0.539574
-0.532892
-0.520377
-0.50174
-0.476859
-0.445772
-0.408615
-0.365626
-0.317144
-0.263683
-0.205818
-0.145056
-0.0827583
-0.0262888
0.096291
0.117669
0.140688
0.164292
0.18613
0.206563
0.224766
0.239489
0.250592
0.258578
0.263822
0.266787
0.267991
0.267784
0.26643
0.264068
0.260757
0.256492
0.251208
0.244797
0.237126
0.228047
0.217402
0.205146
0.191565
0.17714
0.162274
0.147352
0.132818
0.119159
0.106878
0.0964729
0.0884149
0.083125
0.0809717
0.0823001
0.0870971
0.0950345
0.103629
0.0678191
0.044539
0.0176853
-0.011234
-0.0399191
-0.0703326
-0.101266
-0.131816
-0.162342
-0.19237
-0.221764
-0.250682
-0.278993
-0.30672
-0.333835
-0.36021
-0.385671
-0.40997
-0.432751
-0.453616
-0.472064
-0.487604
-0.499664
-0.507744
-0.51164
-0.511099
-0.50565
-0.494825
-0.478267
-0.455787
-0.427341
-0.392995
-0.352937
-0.307454
-0.257051
-0.202334
-0.144743
-0.0858199
-0.0321175
0.089404
0.109798
0.131788
0.154366
0.17528
0.19488
0.21238
0.226574
0.237317
0.245099
0.250274
0.253286
0.254637
0.254667
0.253635
0.251683
0.248874
0.245212
0.240641
0.235061
0.228346
0.220349
0.210902
0.199936
0.187689
0.174585
0.160979
0.147213
0.133687
0.120852
0.109183
0.0991572
0.0912381
0.0858421
0.0833211
0.0840006
0.0878475
0.0944678
0.101614
0.0623754
0.0401966
0.0146291
-0.012867
-0.0400898
-0.0689167
-0.098184
-0.127033
-0.155807
-0.184055
-0.211649
-0.23875
-0.265237
-0.291135
-0.316437
-0.341028
-0.364765
-0.387422
-0.408692
-0.428211
-0.445529
-0.460197
-0.471703
-0.479586
-0.483659
-0.483709
-0.479299
-0.469946
-0.455263
-0.434999
-0.409038
-0.377386
-0.340173
-0.297654
-0.250292
-0.198716
-0.144289
-0.088676
-0.0377111
0.0829632
0.102424
0.123436
0.145037
0.165069
0.183874
0.2007
0.214381
0.224774
0.232351
0.237448
0.24049
0.241962
0.242197
0.241445
0.23985
0.237482
0.234352
0.230411
0.225569
0.219709
0.212687
0.204332
0.194557
0.183556
0.171703
0.159307
0.146668
0.134144
0.122146
0.111117
0.101513
0.0937789
0.0883226
0.0854786
0.085552
0.0884986
0.0938836
0.0996884
0.0573039
0.0361689
0.0118217
-0.0143275
-0.0401685
-0.0674975
-0.0951972
-0.122446
-0.149576
-0.176156
-0.202069
-0.227471
-0.252253
-0.276447
-0.30005
-0.322974
-0.345083
-0.366191
-0.38602
-0.404243
-0.420458
-0.434245
-0.445162
-0.452773
-0.456911
-0.457417
-0.45387
-0.445798
-0.43279
-0.414557
-0.390924
-0.361843
-0.327384
-0.287766
-0.243416
-0.194958
-0.143681
-0.0912973
-0.043032
0.0769446
0.0955187
0.1156
0.136271
0.155462
0.173506
0.189685
0.202871
0.212923
0.220295
0.225308
0.228366
0.229938
0.230349
0.229841
0.22856
0.226579
0.223915
0.22053
0.216344
0.211246
0.2051
0.197737
0.189055
0.179212
0.168534
0.157291
0.145741
0.134202
0.123045
0.112678
0.103529
0.0960213
0.0905492
0.0874287
0.0869445
0.0890458
0.0932829
0.0978534
0.0525855
0.032442
0.00925224
-0.0156193
-0.040154
-0.0660683
-0.092289
-0.118033
-0.143618
-0.168635
-0.192973
-0.216786
-0.239976
-0.262575
-0.284593
-0.305951
-0.326538
-0.346181
-0.364641
-0.381625
-0.396766
-0.409677
-0.419982
-0.427261
-0.431385
-0.432219
-0.429388
-0.422422
-0.41091
-0.394527
-0.373065
-0.346417
-0.314612
-0.277823
-0.236435
-0.191058
-0.142896
-0.0936621
-0.0480491
0.0713253
0.089057
0.108252
0.128036
0.146422
0.163738
0.179295
0.192005
0.201726
0.208895
0.213818
0.21688
0.218535
0.219098
0.218802
0.217796
0.216156
0.213903
0.211008
0.207401
0.202983
0.197622
0.191155
0.183472
0.174699
0.165119
0.154965
0.14446
0.13388
0.123558
0.113865
0.105197
0.097953
0.0925079
0.0891585
0.0881682
0.0894856
0.0926644
0.0961082
0.0482011
0.0289999
0.00691054
-0.0167486
-0.0400466
-0.0646225
-0.0894474
-0.113775
-0.137907
-0.161455
-0.184318
-0.206644
-0.228343
-0.249452
-0.269987
-0.28988
-0.309036
-0.327304
-0.344468
-0.360266
-0.374372
-0.386425
-0.3961
-0.403013
-0.40705
-0.408115
-0.405864
-0.399854
-0.389667
-0.37497
-0.355516
-0.331164
-0.301899
-0.267853
-0.229363
-0.187015
-0.141919
-0.0957485
-0.0527334
0.0660834
0.0830135
0.101364
0.1203
0.137918
0.154536
0.169496
0.181747
0.191145
0.198115
0.202945
0.206003
0.207725
0.208418
0.208308
0.207543
0.206201
0.20431
0.201848
0.198754
0.194939
0.190279
0.18462
0.177845
0.170055
0.161495
0.152364
0.142851
0.133198
0.123695
0.11468
0.106513
0.0995642
0.0941859
0.0906557
0.0892144
0.0898142
0.0920264
0.0944492
0.0441326
0.0258279
0.0047855
-0.0177219
-0.0398476
-0.0631563
-0.0866617
-0.109651
-0.132416
-0.154584
-0.176065
-0.196998
-0.217303
-0.237019
-0.256167
-0.274689
-0.292504
-0.30948
-0.32542
-0.340094
-0.353203
-0.364425
-0.373467
-0.379983
-0.383882
-0.385094
-0.383314
-0.378117
-0.369104
-0.35593
-0.338334
-0.316138
-0.289291
-0.257887
-0.222217
-0.182826
-0.140736
-0.097538
-0.0570581
0.0611979
0.0773643
0.0949091
0.113035
0.129917
0.145866
0.160253
0.172061
0.181148
0.187923
0.192657
0.195702
0.197478
0.198284
0.198336
0.197783
0.196704
0.19513
0.19305
0.190409
0.187128
0.183094
0.178159
0.172208
0.165317
0.157697
0.149521
0.140945
0.132178
0.123474
0.115131
0.107477
0.100849
0.0955743
0.091911
0.0900754
0.0900272
0.0913659
0.0928717
0.0403619
0.0229113
0.00286572
-0.0185465
-0.0395595
-0.0616682
-0.0839245
-0.105652
-0.127127
-0.147998
-0.168179
-0.187807
-0.206807
-0.225221
-0.243073
-0.260313
-0.276872
-0.292633
-0.307421
-0.32103
-0.33319
-0.343605
-0.352023
-0.358128
-0.361851
-0.363141
-0.361733
-0.357234
-0.349257
-0.337458
-0.321563
-0.301381
-0.276826
-0.247954
-0.215012
-0.178496
-0.139333
-0.0990143
-0.0610033
0.0566484
0.0720869
0.0888618
0.106213
0.122391
0.1377
0.151535
0.162916
0.171701
0.178283
0.182921
0.185947
0.187767
0.188669
0.188863
0.188496
0.187648
0.186355
0.184609
0.182368
0.17956
0.176082
0.171796
0.166588
0.160516
0.153761
0.146469
0.138772
0.130845
0.12291
0.115228
0.108091
0.101805
0.096667
0.0929164
0.0907448
0.0901206
0.0906788
0.0913683
0.0368726
0.0202356
0.00113992
-0.0192303
-0.0391871
-0.0601573
-0.0812323
-0.101766
-0.122026
-0.141676
-0.160636
-0.17904
-0.196818
-0.214013
-0.230653
-0.246694
-0.262078
-0.276701
-0.290407
-0.303008
-0.314266
-0.323908
-0.331714
-0.337402
-0.340919
-0.342238
-0.341126
-0.337216
-0.330146
-0.319581
-0.30525
-0.286942
-0.264545
-0.238087
-0.207767
-0.17403
-0.137706
-0.100167
-0.0645518
0.0524158
0.0671592
0.0831987
0.0998082
0.115312
0.130006
0.143311
0.154281
0.162775
0.169168
0.173709
0.17671
0.178564
0.17955
0.179869
0.179664
0.179019
0.177972
0.176522
0.174633
0.172242
0.169258
0.16555
0.161011
0.155681
0.149716
0.143239
0.13636
0.129225
0.122024
0.114985
0.108363
0.102433
0.0974617
0.0936668
0.0912174
0.0900902
0.0899594
0.0899305
0.0336476
0.0177869
-0.000403338
-0.0197812
-0.0387342
-0.0586243
-0.0785788
-0.097985
-0.117099
-0.135597
-0.153411
-0.170665
-0.187298
-0.203354
-0.21886
-0.233782
-0.248065
-0.261622
-0.274313
-0.285967
-0.296371
-0.305277
-0.312488
-0.317762
-0.321054
-0.322358
-0.321474
-0.318066
-0.311793
-0.302337
-0.289431
-0.272856
-0.252484
-0.228313
-0.2005
-0.169434
-0.135851
-0.100987
-0.0676925
0.0484815
0.0625612
0.077897
0.0937973
0.108655
0.122759
0.135554
0.146127
0.154339
0.160548
0.164991
0.167964
0.169845
0.1709
0.171328
0.171267
0.1708
0.16997
0.168778
0.167199
0.165176
0.162628
0.159437
0.155497
0.150837
0.145591
0.139862
0.133738
0.127345
0.120839
0.114418
0.108305
0.102739
0.097959
0.0941602
0.0914898
0.0899325
0.0892025
0.0885486
0.0306714
0.0155517
-0.00177515
-0.020208
-0.0382065
-0.0570708
-0.0759638
-0.0943033
-0.112334
-0.129748
-0.146482
-0.162658
-0.178218
-0.193207
-0.207653
-0.221528
-0.234784
-0.247344
-0.259083
-0.269849
-0.279446
-0.287654
-0.294293
-0.29916
-0.302215
-0.303475
-0.302763
-0.299781
-0.294205
-0.285744
-0.274134
-0.259158
-0.240676
-0.218661
-0.193231
-0.164719
-0.133765
-0.101471
-0.0704175
0.044828
0.0582735
0.0729361
0.0881566
0.102396
0.115933
0.128237
0.138428
0.146366
0.152396
0.156741
0.159682
0.161582
0.162698
0.163219
0.163284
0.162974
0.162333
0.16137
0.160062
0.158364
0.156202
0.153467
0.150063
0.146006
0.14141
0.136362
0.130935
0.125229
0.119377
0.113546
0.107928
0.102731
0.0981622
0.0943965
0.0915602
0.0896441
0.0884013
0.0872116
0.0279291
0.0135168
-0.00298633
-0.020518
-0.0376091
-0.0554987
-0.0733854
-0.0907149
-0.107721
-0.124113
-0.139832
-0.154996
-0.16955
-0.183539
-0.196995
-0.209891
-0.222188
-0.233817
-0.244666
-0.254598
-0.263438
-0.270987
-0.277082
-0.281551
-0.284367
-0.28556
-0.284979
-0.282354
-0.277391
-0.269818
-0.259384
-0.245878
-0.229152
-0.209157
-0.18598
-0.159895
-0.131452
-0.101617
-0.0727235
0.0414377
0.0542774
0.068295
0.0828645
0.0965096
0.109503
0.121335
0.131157
0.13883
0.144685
0.148932
0.151838
0.153751
0.154918
0.155521
0.155696
0.155523
0.155049
0.154285
0.153215
0.151802
0.14998
0.147651
0.144723
0.141207
0.137197
0.132768
0.127976
0.122904
0.117662
0.11239
0.10725
0.102419
0.0980784
0.0943791
0.0914283
0.0892218
0.0875497
0.0859081
0.0254059
0.011669
-0.00404731
-0.0207199
-0.0369477
-0.0539104
-0.0708423
-0.0872154
-0.103254
-0.118683
-0.133447
-0.147659
-0.161269
-0.174324
-0.186853
-0.198835
-0.210237
-0.220997
-0.231015
-0.240167
-0.248297
-0.255225
-0.260805
-0.264893
-0.267472
-0.268582
-0.268097
-0.265774
-0.261349
-0.254569
-0.245199
-0.233039
-0.217936
-0.199827
-0.178767
-0.154977
-0.128921
-0.101431
-0.0746129
0.038295
0.050555
0.0639555
0.0779
0.0909758
0.103445
0.114823
0.124289
0.131707
0.137391
0.141541
0.144409
0.146328
0.147538
0.148212
0.148482
0.14843
0.148101
0.147512
0.146651
0.145487
0.143964
0.141992
0.139488
0.136454
0.132972
0.1291
0.124886
0.120396
0.115719
0.110971
0.106288
0.101819
0.0977176
0.0941132
0.0910961
0.0886642
0.086641
0.0846267
0.0230879
0.00999647
-0.00496877
-0.0208218
-0.0362277
-0.0523093
-0.0683346
-0.0838024
-0.0989265
-0.113446
-0.127309
-0.140628
-0.153354
-0.165534
-0.177197
-0.188326
-0.198893
-0.208843