/*--------------------------------*- C++ -*----------------------------------*\
| =========                 |                                                 |
| \\      /  F ield         | OpenFOAM: The Open Source CFD Toolbox           |
|  \\    /   O peration     | Version:  2506                                  |
|   \\  /    A nd           | Website:  www.openfoam.com                      |
|    \\/     M anipulation  |                                                 |
\*---------------------------------------------------------------------------*/
FoamFile
{
    version     2.0;
    format      ascii;
    arch        "LSB;label=32;scalar=64";
    class       volSymmTensorField;
    location    "400";
    object      turbulenceProperties:R;
}
// * * * * * * * * * * * * * * * * * * * * * * * * * * * * * * * * * * * * * //

dimensions      [0 2 -2 0 0 0 0];

internalField   nonuniform List<symmTensor> 
10720
(
(0.0144988 0.00306875 -6.84739e-22 0.0120404 -1.61361e-20 0.0134173)
(0.0172866 0.00364569 -9.29317e-23 0.0136447 1.04864e-19 0.0155754)
(0.0210787 0.00423417 -2.14383e-20 0.0153257 -3.37289e-19 0.0184316)
(0.0262504 0.00499594 9.57188e-20 0.0176186 7.06458e-19 0.0222311)
(0.0326217 0.00571452 -1.87825e-19 0.0200523 -6.9357e-19 0.026672)
(0.0409539 0.00622488 -1.4771e-19 0.0227818 -3.86293e-19 0.0323712)
(0.0517331 0.00649518 2.87123e-19 0.0261171 1.10315e-18 0.0395675)
(0.0651913 0.00618101 -7.49146e-19 0.0300845 -2.0378e-18 0.0484254)
(0.0821906 0.00491647 -1.89717e-19 0.0351309 5.55273e-19 0.0596895)
(0.10357 0.00243289 5.72955e-19 0.0419321 1.17571e-18 0.0740119)
(0.130615 -0.00179551 1.49451e-18 0.0513612 5.46521e-19 0.0925367)
(0.165468 -0.00835547 -3.39846e-18 0.0647916 -3.15631e-18 0.117021)
(0.21109 -0.0181758 6.49697e-19 0.0840952 8.38586e-19 0.1499)
(0.272354 -0.0328491 2.6147e-18 0.112291 1.23916e-18 0.195176)
(0.357553 -0.0550347 -3.99511e-18 0.154537 -6.24081e-18 0.25967)
(0.479505 -0.0890631 -4.30059e-18 0.219191 -2.54668e-18 0.354039)
(0.663288 -0.143543 1.90118e-17 0.322814 1.7604e-17 0.499443)
(0.940196 -0.230775 1.7732e-17 0.488981 3.35507e-17 0.723347)
(1.4174 -0.387142 -3.5229e-17 0.789751 -5.46087e-17 1.11644)
(2.14081 -0.639983 -1.37397e-18 1.27813 1.4514e-17 1.72768)
(3.75097 -1.21249 -2.71844e-17 2.39985 5.19731e-17 3.10447)
(6.10076 -2.11285 -1.24358e-17 4.185 4.18539e-17 5.18202)
(13.836 -5.12745 -1.43102e-16 10.2536 -6.41778e-16 12.123)
(25.9898 -10.3103 3.31424e-16 21.0501 5.58853e-16 23.6451)
(27.6393 -11.6472 4.23715e-17 24.5413 -7.12213e-16 26.1521)
(25.5075 -11.2292 3.65781e-16 24.4653 5.81123e-16 24.9694)
(24.4023 -11.0453 -8.18267e-17 24.7232 -7.84341e-17 24.5181)
(24.332 -11.2281 2.74507e-16 25.6864 2.30565e-16 24.972)
(24.4165 -11.4416 7.29001e-16 26.7054 1.20846e-15 25.5363)
(24.1216 -11.4541 4.00507e-16 27.2734 1.9975e-15 25.685)
(23.3953 -11.2398 -1.41139e-15 27.3093 -1.93132e-15 25.3549)
(22.3229 -10.8335 -4.74867e-16 26.8594 -7.26087e-16 24.6069)
(20.8803 -10.2202 -3.22826e-17 25.8523 -4.36779e-15 23.3887)
(19.0955 -9.41344 -2.58302e-15 24.2901 -7.29939e-15 21.7159)
(16.9505 -8.40514 1.00624e-15 22.1145 9.23179e-16 19.5538)
(14.5068 -7.22636 1.22258e-15 19.366 1.14341e-15 16.953)
(11.3432 -5.67273 -1.224e-16 15.4773 -5.25044e-16 13.4304)
(8.32959 -4.17099 -1.51837e-15 11.5006 -2.44674e-17 9.91765)
(1.83897 -0.926446 -1.88561e-16 2.78468 -1.90263e-15 2.31064)
(0.0120301 0.00257346 1.65926e-21 0.0106522 3.85338e-20 0.0113951)
(0.0101308 0.00212442 -2.37321e-21 0.00934049 1.70623e-23 0.00982539)
(0.00808314 0.00164666 -1.23391e-20 0.00782729 -8.64909e-20 0.00799974)
(0.00638592 0.00123968 2.95488e-21 0.00644526 5.55276e-20 0.00644596)
(0.00486371 0.000879189 2.15765e-21 0.00505103 -1.00498e-20 0.00497247)
(0.00355263 0.000586708 -1.7019e-20 0.00372636 5.57117e-20 0.0036392)
(0.00253013 0.000377468 -9.14022e-20 0.00261695 7.35653e-20 0.0025572)
(0.00194574 0.000261406 5.68546e-20 0.00191625 -2.71178e-20 0.00190779)
(0.00211346 0.000277939 1.01429e-19 0.00191824 -5.13046e-20 0.00199814)
(0.00295783 0.000385225 -8.01636e-20 0.0024703 2.02628e-20 0.0027115)
(0.00451442 0.000623822 -2.35968e-20 0.00352083 1.11287e-19 0.00402733)
(0.0069353 0.00109498 1.74296e-19 0.00509622 7.25005e-20 0.00603462)
(0.010512 0.00197148 3.5865e-19 0.0073282 -5.58415e-20 0.00895542)
(0.0156729 0.00349524 -6.87741e-21 0.0104664 -2.18647e-19 0.0131347)
(0.0229294 0.00591751 -7.16462e-20 0.0148954 -1.54512e-19 0.0190125)
(0.0330184 0.00952976 2.48021e-20 0.0213044 -5.36573e-20 0.0273117)
(0.0472598 0.0147525 -1.86025e-19 0.0308193 6.323e-19 0.0392458)
(0.0681597 0.0224734 7.12235e-19 0.0454427 2.64746e-19 0.0570864)
(0.100399 0.0344353 3.18637e-19 0.0687663 -1.18362e-18 0.0849737)
(0.152284 0.0539241 -1.29505e-18 0.107411 -3.39672e-19 0.130422)
(0.240272 0.0874853 -4.38414e-18 0.174648 -2.00334e-18 0.208335)
(0.393912 0.147341 -3.32819e-18 0.295579 -8.90075e-19 0.346203)
(0.682853 0.262512 6.19828e-18 0.530387 -5.76129e-19 0.609274)
(1.22834 0.486477 -7.44719e-18 0.992766 1.2049e-18 1.11599)
(2.39606 0.978112 4.06398e-18 2.02224 -7.21413e-18 2.2209)
(4.80349 2.01626 -1.26329e-16 4.23162 2.61478e-18 4.5421)
(10.5254 4.53131 -7.82998e-17 9.66707 1.2295e-17 10.1539)
(21.2649 9.3676 6.59153e-17 20.3424 8.24675e-19 20.9241)
(29.545 13.2905 8.6975e-18 29.4246 -1.25637e-19 29.641)
(32.6385 14.9583 6.28527e-17 33.7976 4.36039e-19 33.3655)
(33.0576 15.3971 -4.37142e-16 35.5108 -4.89447e-18 34.4076)
(32.6456 15.4171 1.57295e-16 36.2844 2.0927e-17 34.566)
(31.9228 15.2549 -1.88886e-15 36.6214 -1.53184e-16 34.3557)
(30.9818 14.9549 -3.45824e-15 36.6007 -2.36973e-16 33.8616)
(29.8497 14.5327 1.05837e-15 36.2459 1.08372e-16 33.1083)
(28.563 14.0097 1.00939e-15 35.6024 1.6269e-16 32.1355)
(26.9098 13.2866 1.45041e-15 34.4276 2.66656e-16 30.7168)
(25.1171 12.4693 -2.90365e-16 32.9255 -3.67423e-17 29.0663)
(20.143 10.0655 -4.55423e-15 27.4161 -7.84123e-16 23.7895)
(0.00226708 -0.000155249 4.14167e-23 0.00189643 1.34947e-21 0.00205173)
(0.00222407 -0.000181974 9.6523e-21 0.00191884 2.33897e-20 0.00203798)
(0.00215865 -0.000204455 -8.83524e-21 0.00194121 -1.55767e-20 0.00201039)
(0.00205931 -0.00021172 -5.88765e-21 0.0019265 -1.67696e-20 0.00194814)
(0.00192973 -0.000206755 3.91872e-20 0.00187662 7.60562e-20 0.00185481)
(0.00178982 -0.000193311 1.50776e-20 0.00180978 2.33914e-20 0.00174788)
(0.00164017 -0.000173017 7.08533e-20 0.00171468 6.50922e-20 0.0016224)
(0.00148395 -0.000149084 -3.63229e-20 0.00159447 -6.98997e-21 0.00148233)
(0.00133654 -0.000125538 5.11405e-20 0.001468 3.54371e-20 0.00134399)
(0.00119891 -0.00010453 -1.82195e-21 0.00133681 7.77675e-23 0.00120848)
(0.00107268 -8.69448e-05 -6.96685e-20 0.00120612 -5.95213e-20 0.00107993)
(0.000987026 -7.8024e-05 9.33784e-20 0.00111434 1.16246e-19 0.000989118)
(0.000976211 -8.37162e-05 6.53834e-20 0.0011064 3.28556e-20 0.000969185)
(0.00107581 -0.000114017 -1.70905e-20 0.00122303 9.2696e-21 0.00104862)
(0.00141248 -0.000214139 -1.40973e-19 0.0015927 2.32058e-20 0.00132276)
(0.00229546 -0.000517916 3.75392e-19 0.00244942 4.29576e-19 0.00199405)
(0.00462251 -0.00138355 7.64234e-19 0.00434266 -8.35681e-19 0.0036819)
(0.0101339 -0.00334591 -4.1658e-18 0.00824703 -5.39946e-18 0.00777221)
(0.0250004 -0.00841326 4.90647e-19 0.0184619 7.23874e-18 0.0193052)
(0.061475 -0.020801 7.24877e-18 0.0433976 -2.03585e-18 0.0486254)
(0.180191 -0.0619732 1.53484e-17 0.126122 6.08174e-18 0.146601)
(0.491214 -0.173849 -2.34513e-17 0.349976 -2.24576e-17 0.411314)
(1.47334 -0.543023 7.39128e-17 1.09248 1.86568e-16 1.27128)
(4.60675 -1.77746 1.58894e-19 3.60407 -1.54147e-16 4.10129)
(8.79427 -3.54022 -2.72833e-16 7.27521 1.69346e-16 8.07019)
(12.9121 -5.39294 -9.71815e-17 11.2784 -6.59937e-16 12.1766)
(16.5559 -7.1492 1.18064e-18 15.277 7.56739e-17 16.0241)
(18.8673 -8.39412 -2.94541e-16 18.3833 -4.44853e-16 18.7385)
(18.906 -8.63621 -4.93643e-16 19.4315 -2.83312e-15 19.2677)
(16.9093 -7.89739 -1.66955e-16 18.2825 -3.54664e-15 17.6577)
(14.0809 -6.69155 5.229e-16 15.935 4.89646e-15 15.0206)
(11.3784 -5.47754 -9.55148e-16 13.3928 -3.76136e-17 12.3584)
(9.25513 -4.49788 -7.18897e-15 11.2535 1.34198e-15 10.2097)
(7.67102 -3.75327 8.772e-15 9.56213 1.59515e-14 8.57215)
(6.47981 -3.18624 -1.48863e-15 8.23133 -8.63837e-16 7.31956)
(5.56401 -2.74336 3.41024e-15 7.14756 -4.9912e-15 6.32506)
(4.91719 -2.43217 -1.50347e-15 6.39225 1.52299e-15 5.63466)
(4.36047 -2.13695 3.24898e-15 5.51648 4.02515e-16 4.88554)
(4.4973 -2.25513 5.36239e-15 5.98291 7.29062e-15 5.37353)
(0.00227291 -0.000117567 3.19296e-21 0.00185 7.89803e-21 0.00203578)
(0.00226158 -7.76373e-05 -4.39125e-21 0.00180467 -3.31925e-20 0.00200878)
(0.00221 -2.67205e-05 -6.5209e-21 0.0017391 -3.88995e-20 0.00195512)
(0.00211611 3.07927e-05 -2.5306e-21 0.00166072 5.87263e-20 0.00187425)
(0.00197223 8.48937e-05 6.95047e-22 0.00156958 1.56781e-20 0.00176327)
(0.00177353 0.000127801 1.38548e-20 0.00146039 -5.32128e-20 0.00161495)
(0.00153865 0.000150826 2.90416e-20 0.00133585 -7.28372e-20 0.00143915)
(0.00131418 0.000152955 -1.19466e-19 0.0012122 3.15469e-21 0.0012683)
(0.00111353 0.000139696 1.82434e-20 0.00109252 8.08319e-20 0.00110891)
(0.000921927 0.000116357 4.57769e-22 0.000968419 -4.75428e-20 0.000948607)
(0.000751498 8.77026e-05 -2.9975e-20 0.000839677 -2.84207e-20 0.00079482)
(0.000614987 6.18784e-05 -2.10392e-20 0.0007172 -2.97618e-20 0.000661721)
(0.000506784 4.2146e-05 -3.79578e-21 0.000605969 6.32185e-21 0.000549868)
(0.000418994 2.82129e-05 1.2222e-20 0.000507055 3.28893e-20 0.000455565)
(0.000346713 1.88844e-05 2.00767e-20 0.000420696 7.75649e-21 0.000376047)
(0.000286782 1.28384e-05 -2.688e-20 0.000346636 -1.3711e-21 0.000309374)
(0.000236371 8.97605e-06 2.22336e-20 0.000283089 2.29654e-21 0.00025311)
(0.000193788 6.45615e-06 -2.36637e-21 0.000228972 -6.93831e-21 0.000205738)
(0.000156381 4.61624e-06 -6.86642e-21 0.000181427 1.09234e-20 0.000164439)
(0.000121923 3.10761e-06 -4.01243e-21 0.000138143 4.36763e-21 0.00012685)
(8.72585e-05 1.73919e-06 -6.0133e-21 9.5864e-05 6.76498e-21 8.97087e-05)
(5.24493e-05 6.64633e-07 -3.52394e-21 5.55806e-05 1.82818e-21 5.32735e-05)
(1.84811e-05 8.35023e-08 -6.76921e-22 1.88625e-05 5.83204e-23 1.85709e-05)
(3.03601e-06 2.27631e-09 8.24219e-24 3.04591e-06 7.82758e-25 3.03795e-06)
(7.72719e-06 1.60523e-08 -3.71421e-24 7.78697e-06 5.09307e-24 7.73604e-06)
(0.000851212 0.00019292 4.75924e-19 0.00142945 1.24496e-19 0.000910859)
(0.00451846 0.00133224 2.64764e-18 0.00782256 -1.89063e-19 0.00474153)
(0.03724 0.0119659 1.08094e-18 0.0620997 -4.50422e-19 0.0383244)
(0.128093 0.0459 -7.53599e-19 0.204224 1.03144e-19 0.130585)
(0.256254 0.10268 4.96278e-17 0.386151 2.01534e-18 0.261141)
(0.390996 0.17064 4.02561e-16 0.55423 9.71972e-18 0.401642)
(0.512546 0.235198 2.39491e-16 0.689721 1.31149e-17 0.533266)
(0.614413 0.289329 1.76218e-15 0.799413 1.20924e-16 0.648418)
(0.701294 0.334889 2.54436e-15 0.897992 1.69259e-16 0.750523)
(0.778827 0.375326 -5.70498e-16 0.995074 -9.71606e-17 0.845002)
(0.856947 0.415519 -4.94327e-16 1.09897 -8.65617e-17 0.940232)
(0.934333 0.456124 -1.22502e-15 1.21466 -5.1504e-16 1.04031)
(1.13398 0.552258 -2.52489e-15 1.45544 -3.46711e-18 1.25444)
(1.57416 0.775652 -2.03889e-15 1.97921 1.35832e-15 1.79198)
(0.00151784 -0.000120501 6.64825e-22 0.00125059 9.19766e-22 0.00139946)
(0.00147803 -0.000143658 -1.05331e-20 0.00126634 -2.55917e-20 0.00139063)
(0.00140942 -0.000159864 -2.32745e-21 0.00127071 -1.17246e-21 0.00136159)
(0.0013199 -0.000165124 8.82563e-21 0.00126219 1.90637e-20 0.00131711)
(0.00122892 -0.000160347 -2.79863e-20 0.00125143 -5.69225e-20 0.0012698)
(0.00113521 -0.000144948 -3.19399e-20 0.00123354 -5.23478e-20 0.00121758)
(0.00104699 -0.000120403 -6.49513e-20 0.00120872 -9.60036e-20 0.00116504)
(0.000973122 -9.03616e-05 -5.2498e-21 0.00118112 -7.80412e-22 0.00111757)
(0.000915125 -5.71725e-05 -2.87275e-20 0.00115183 -6.84141e-20 0.0010768)
(0.000875391 -2.41345e-05 1.20772e-19 0.00112359 1.37432e-19 0.00104541)
(0.000850749 6.58829e-06 -1.98842e-20 0.00109582 2.70455e-20 0.00102101)
(0.000842033 3.35374e-05 1.36416e-20 0.00107453 8.39393e-21 0.00100686)
(0.00084681 5.60664e-05 -9.39991e-20 0.00106209 -1.19637e-19 0.00100264)
(0.00086417 7.53517e-05 6.12952e-20 0.00106207 -5.69042e-21 0.00101034)
(0.000877937 8.92143e-05 1.77984e-20 0.00105559 5.5232e-20 0.0010111)
(0.000863833 9.31452e-05 2.09353e-20 0.00101387 1.00477e-20 0.000977023)
(0.000771725 7.75927e-05 -8.22357e-20 0.000876616 -4.7896e-20 0.000850697)
(0.000675531 6.16474e-05 5.74962e-20 0.000747975 4.28594e-20 0.00072931)
(8.13391e-05 8.87151e-07 2.6619e-22 8.2275e-05 3.47861e-24 8.20148e-05)
(0.00356403 0.00156623 -2.00944e-18 0.00510512 -3.02321e-19 0.0046298)
(0.00155951 0.000450981 6.84326e-19 0.00198657 -2.68739e-19 0.00183861)
(0.00246694 0.00115696 6.44521e-20 0.00356126 1.10473e-18 0.00312868)
(0.000281254 0.000114805 4.44863e-19 0.000488636 -6.57013e-19 0.00037469)
(0.0178354 -0.00695859 -3.39298e-18 0.0144588 -3.62518e-18 0.0156027)
(0.146216 -0.0585021 4.84161e-18 0.121739 1.70934e-17 0.130998)
(0.474696 -0.196434 -2.90102e-17 0.413539 7.93958e-18 0.43777)
(1.15468 -0.492915 1.48011e-17 1.05389 1.15481e-18 1.09522)
(2.54589 -1.11522 -1.43233e-17 2.42534 7.64686e-17 2.47477)
(4.91963 -2.20236 -4.40702e-16 4.87599 2.46437e-16 4.88763)
(7.95627 -3.63229 2.17026e-16 8.19945 3.53245e-16 8.07312)
(10.5669 -4.91434 1.56359e-15 11.3362 -5.86728e-16 10.9594)
(11.6772 -5.52371 -2.76456e-15 13.0461 2.16217e-15 12.3833)
(11.1865 -5.36676 5.13844e-16 12.9815 9.32658e-15 12.1076)
(9.87468 -4.78689 -4.87248e-17 11.8323 -6.36745e-15 10.8661)
(8.45582 -4.12821 3.05758e-15 10.384 -2.30076e-15 9.42212)
(7.19271 -3.52383 -1.43333e-14 8.95276 5.15278e-16 8.06827)
(6.21507 -3.05357 4.95808e-15 7.81143 -1.62561e-15 7.01463)
(5.27494 -2.55648 5.13594e-15 6.35408 -1.52196e-15 5.79038)
(5.68054 -2.81467 -1.00214e-14 7.35049 2.90301e-15 6.54252)
(0.0015522 -9.11047e-05 -1.3629e-21 0.00123878 -2.59439e-21 0.00140939)
(0.00156569 -5.92718e-05 -5.15644e-21 0.00122371 -7.29605e-21 0.00140586)
(0.0015711 -2.04298e-05 2.13537e-20 0.00121257 4.60392e-20 0.00140042)
(0.00154387 2.08061e-05 4.37933e-21 0.00119225 -5.18727e-21 0.00137348)
(0.00148459 6.12856e-05 3.01558e-21 0.00116498 -3.39742e-20 0.00132791)
(0.00138227 9.45473e-05 -9.39707e-21 0.00112071 2.42904e-20 0.00125262)
(0.0012428 0.000115289 2.83648e-20 0.00105709 8.79151e-20 0.00114977)
(0.00108703 0.000121547 5.94068e-20 0.000979561 6.37738e-20 0.00103372)
(0.000943524 0.000117563 2.02113e-20 0.000906373 -5.07554e-20 0.000925781)
(0.000803108 0.000104287 4.50908e-20 0.000824287 2.67234e-20 0.000814301)
(0.000664145 8.4455e-05 -3.18649e-20 0.00072358 8.18947e-21 0.000694623)
(0.000538854 6.38427e-05 -4.60994e-21 0.000616404 2.70063e-20 0.000579066)
(0.000432621 4.57751e-05 2.01696e-21 0.000514431 -2.43341e-20 0.000475864)
(0.000344876 3.11653e-05 4.36092e-20 0.000422743 -3.07e-20 0.000387132)
(0.000274802 2.01006e-05 3.30657e-21 0.000344658 -4.84104e-21 0.000313885)
(0.000219734 1.20347e-05 -4.90926e-21 0.0002801 2.02968e-20 0.000254781)
(0.000177756 6.39125e-06 3.15944e-20 0.000228861 -3.7321e-20 0.000208694)
(0.000146502 2.47095e-06 5.16389e-21 0.000189412 4.53526e-21 0.000173735)
(0.000124168 -3.00554e-07 3.68392e-20 0.000160366 -2.57638e-21 0.000148286)
(0.000108453 -2.41441e-06 3.96674e-20 0.000139159 8.88753e-21 0.000130019)
(9.7968e-05 -4.1659e-06 1.02386e-19 0.000124208 -1.35247e-20 0.000117442)
(9.16464e-05 -5.84892e-06 1.33983e-19 0.000113941 -2.02684e-20 0.000109334)
(8.90375e-05 -7.67456e-06 8.09272e-20 0.000107309 7.01066e-21 0.000104999)
(8.91706e-05 -9.44654e-06 1.89348e-20 0.000101838 -3.87241e-21 0.000102931)
(9.23389e-05 -1.05777e-05 -2.07362e-20 9.77648e-05 1.00154e-20 0.000103491)
(9.52327e-05 -1.00466e-05 7.57195e-20 9.33018e-05 -1.23043e-20 0.000103181)
(0.000104352 -9.47738e-06 -2.05287e-20 9.58678e-05 -1.99765e-21 0.000110102)
(6.26095e-05 -2.7529e-06 -6.24731e-21 5.80071e-05 1.28795e-22 6.39434e-05)
(0.000474072 -6.55444e-05 2.46678e-20 0.000295498 -7.75867e-22 0.00050194)
(0.00325927 -0.000272255 -1.42216e-18 0.00168559 -5.38183e-20 0.00340786)
(0.00933505 0.000424769 -8.62156e-18 0.00467958 -7.86082e-20 0.00965415)
(0.0187834 0.00468294 -5.47627e-17 0.0112651 -3.17624e-18 0.0193704)
(0.0386073 0.0154382 -1.34236e-16 0.0316843 -4.43161e-18 0.0399597)
(0.0759922 0.034281 -3.33929e-16 0.074777 -2.28643e-17 0.0792703)
(0.130171 0.0608359 -8.54809e-16 0.139693 -7.65124e-17 0.13724)
(0.196714 0.092961 2.15822e-16 0.218897 -1.74169e-17 0.208543)
(0.267582 0.127581 -1.17275e-15 0.305694 2.10913e-16 0.286697)
(0.333473 0.154068 2.94674e-15 0.353586 5.32843e-16 0.34228)
(0.548228 0.261151 4.63644e-15 0.615167 9.50559e-16 0.593664)
(0.00128851 -9.76979e-05 3.60023e-21 0.00106031 6.1589e-21 0.00116907)
(0.00127315 -0.000115779 -5.01347e-21 0.00108092 -9.03768e-21 0.00117114)
(0.00124325 -0.000131401 -2.27993e-21 0.00110007 -1.2564e-21 0.00116414)
(0.0012067 -0.000141542 2.70849e-20 0.00111813 3.96384e-20 0.0011534)
(0.00115891 -0.000144742 1.72144e-20 0.00112689 3.12031e-20 0.00113219)
(0.00110139 -0.000141116 2.18409e-20 0.00112597 4.19419e-20 0.00110098)
(0.00103936 -0.000131397 3.33736e-20 0.00111479 3.86112e-20 0.00106236)
(0.00097277 -0.000116713 -1.91621e-20 0.00108965 -2.97579e-20 0.00101447)
(0.000904785 -9.88096e-05 -6.86081e-20 0.00105272 -6.79747e-20 0.000959829)
(0.000836922 -7.97131e-05 8.92104e-20 0.00100427 5.02403e-20 0.000899698)
(0.000769942 -6.08838e-05 7.51612e-20 0.000946106 6.36554e-20 0.000835248)
(0.000703905 -4.35096e-05 9.75093e-20 0.000879745 4.67115e-20 0.000767498)
(0.000638508 -2.8387e-05 -1.60978e-19 0.000806692 -5.15545e-20 0.000697213)
(0.000573923 -1.58326e-05 -1.37493e-19 0.000729263 -9.23613e-20 0.000625779)
(0.000509962 -5.8084e-06 1.82848e-19 0.000648871 5.75118e-20 0.000553674)
(0.000443547 2.89994e-06 3.71581e-20 0.000563211 2.28825e-20 0.000478836)
(0.000378392 1.0247e-05 -2.73211e-20 0.0004759 2.81981e-21 0.000405125)
(0.000320819 1.57417e-05 -8.4206e-20 0.000394952 -5.51683e-20 0.000339745)
(0.000249418 1.52628e-05 1.44623e-20 0.000291024 -5.54885e-21 0.000259739)
(0.000147585 6.47466e-06 2.21327e-20 0.000158862 6.8286e-21 0.000150572)
(3.23884e-10 2.95118e-17 -1.11878e-31 3.23884e-10 -3.21779e-32 3.23884e-10)
(0.000337114 2.91811e-05 4.4733e-20 0.000364758 6.38978e-21 0.000347111)
(0.000245903 1.37955e-05 -5.38524e-21 0.000255838 -1.16751e-21 0.000249754)
(0.00385649 0.00175716 -1.36465e-18 0.00470322 6.69219e-19 0.00416803)
(0.0150474 0.00699855 3.88721e-18 0.0166426 -1.24061e-18 0.0153994)
(0.0309548 0.0136504 -7.93649e-18 0.0304971 1.05315e-17 0.0297845)
(0.0186671 0.00761163 6.54717e-20 0.0161509 -1.50213e-19 0.0167861)
(0.0101906 0.00297661 3.996e-18 0.00622582 -1.41957e-18 0.00768278)
(0.0289228 -0.0103201 6.32868e-18 0.0209043 1.60171e-17 0.0241558)
(0.249194 -0.107268 2.65577e-17 0.230636 -1.20289e-16 0.238065)
(1.05893 -0.476632 -6.62571e-17 1.0617 -3.94965e-16 1.05701)
(2.81228 -1.29767 2.07496e-15 2.96833 5.51003e-16 2.88623)
(5.15365 -2.42336 2.96966e-15 5.68139 6.72335e-16 5.41619)
(7.0034 -3.34384 -1.64325e-15 8.02819 -2.23407e-15 7.5209)
(7.70704 -3.72256 -7.33316e-15 9.13213 1.42198e-15 8.42852)
(7.50797 -3.65054 4.84781e-15 9.09126 4.88733e-15 8.3034)
(7.00492 -3.42072 -1.01674e-14 8.60283 -1.30402e-16 7.81089)
(6.25849 -3.01953 -1.3026e-14 7.41673 1.88147e-15 6.8221)
(6.54325 -3.21257 9.21192e-15 8.14433 -3.43358e-15 7.3863)
(0.00128955 -7.51053e-05 -5.52713e-21 0.00103296 -1.12538e-20 0.00115767)
(0.00127903 -5.12174e-05 -1.90129e-21 0.00100505 7.68438e-21 0.00113893)
(0.00125241 -2.16723e-05 1.83046e-20 0.000970769 3.49006e-20 0.00111006)
(0.00121287 9.52595e-06 -7.83638e-21 0.000937749 -4.4008e-22 0.00107456)
(0.0011558 3.99803e-05 6.82806e-21 0.00090392 4.32683e-20 0.00102992)
(0.00107627 6.60808e-05 -2.37546e-21 0.000865083 -4.20764e-20 0.000970835)
(0.000980823 8.44566e-05 2.26462e-20 0.000822616 -5.87469e-22 0.000901574)
(0.000879002 9.33552e-05 -5.58951e-20 0.000777355 -3.37803e-20 0.000828196)
(0.000775196 9.35049e-05 -3.05327e-20 0.000727845 2.63973e-21 0.000751978)
(0.000668447 8.57801e-05 5.06153e-20 0.00066838 2.28419e-20 0.000669064)
(0.000565374 7.27338e-05 2.36166e-20 0.000599846 -1.93797e-21 0.000583173)
(0.000474459 5.81122e-05 2.7952e-20 0.000530017 -1.72579e-20 0.00050253)
(0.00039836 4.43972e-05 -4.31502e-20 0.000464236 -2.82827e-20 0.000431155)
(0.000335838 3.26773e-05 -5.34779e-20 0.000404536 1.0095e-20 0.000369552)
(0.000285192 2.33519e-05 4.87959e-21 0.00035199 1.41313e-20 0.000317446)
(0.000244164 1.62556e-05 1.65267e-20 0.000306523 -4.91834e-21 0.000273742)
(0.000211306 1.10713e-05 -4.05725e-20 0.000268255 -3.21228e-21 0.000237766)
(0.000185058 7.34785e-06 -1.55776e-21 0.000236566 -6.45834e-21 0.000208457)
(0.000164287 4.64534e-06 -1.55664e-20 0.000210856 -3.04698e-21 0.000184938)
(0.000147524 2.56438e-06 3.26929e-20 0.000189738 -1.88341e-20 0.00016581)
(0.000134023 8.4832e-07 -3.55899e-20 0.000172461 -1.23658e-20 0.000150273)
(0.000122797 -7.19749e-07 -7.39671e-20 0.000157832 -8.7316e-21 0.000137238)
(0.00011289 -2.26716e-06 3.34751e-21 0.000144556 -1.12039e-20 0.000125549)
(0.000102631 -3.70544e-06 1.89358e-20 0.000130416 -1.07745e-20 0.000113287)
(9.22058e-05 -4.60777e-06 5.73466e-20 0.000115839 -4.00105e-21 0.000100632)
(8.36252e-05 -4.88859e-06 -5.37417e-20 0.00010376 -3.11262e-21 8.99599e-05)
(7.72229e-05 -4.8357e-06 -9.23839e-21 9.46602e-05 2.87348e-21 8.18253e-05)
(7.26576e-05 -4.67206e-06 5.59228e-21 8.81595e-05 4.89185e-22 7.58995e-05)
(6.6909e-05 -4.28867e-06 -2.56154e-21 8.02436e-05 -1.02992e-22 6.89666e-05)
(5.91231e-05 -3.80606e-06 -3.71131e-21 7.01608e-05 1.80424e-22 6.02533e-05)
(4.48902e-05 -2.80214e-06 -5.48085e-21 5.21798e-05 -2.89481e-22 4.52652e-05)
(2.86617e-05 -1.69122e-06 1.35413e-20 3.24292e-05 3.90713e-22 2.86041e-05)
(0.000200248 -5.49515e-05 1.9288e-18 0.000303505 1.25486e-19 0.000184233)
(0.0003956 -4.55559e-05 1.86688e-17 0.000505579 1.73632e-18 0.000287288)
(0.00167509 0.000601047 7.86544e-17 0.00130141 1.0362e-17 0.00133783)
(0.0085928 0.00334274 -1.73532e-16 0.00675814 -2.65158e-17 0.00776578)
(0.0268639 0.0112114 7.42369e-16 0.0232344 1.098e-16 0.0257687)
(0.0706253 0.0278927 -4.85914e-16 0.0566985 -1.68207e-16 0.0643978)
(0.229863 0.104464 -3.29533e-16 0.230737 -1.40981e-15 0.237468)
(0.000964184 -7.43952e-05 -5.1339e-21 0.000794145 -7.64721e-21 0.00088088)
(0.000948036 -8.78629e-05 1.00848e-21 0.000806674 1.60685e-21 0.000879834)
(0.000922327 -9.91036e-05 6.11156e-21 0.000818491 6.63759e-21 0.00087316)
(0.000888694 -0.000105919 -3.75458e-20 0.000827171 -5.33657e-20 0.000861441)
(0.000847362 -0.000107503 -2.74899e-20 0.000830131 -3.21511e-20 0.000843043)
(0.000799166 -0.000103634 6.42544e-20 0.000826512 7.69155e-20 0.000817865)
(0.000747502 -9.45852e-05 -6.82382e-20 0.000815492 -8.47341e-20 0.000787513)
(0.000694334 -8.11874e-05 -3.08597e-20 0.000796215 -2.05296e-20 0.00075235)
(0.000641646 -6.45648e-05 -7.33984e-20 0.000769009 -5.49261e-20 0.000713455)
(0.000592383 -4.63123e-05 -1.36859e-20 0.00073571 -2.49034e-20 0.000673376)
(0.000547813 -2.77255e-05 9.19856e-21 0.000697763 -3.3192e-21 0.00063332)
(0.000509143 -1.00027e-05 -5.03839e-20 0.000657258 -6.68228e-20 0.000594938)
(0.000477365 5.89068e-06 1.64257e-19 0.000616742 1.12498e-19 0.000559942)
(0.00045267 1.93867e-05 -5.41629e-20 0.00057828 -9.47197e-21 0.000529342)
(0.000434927 3.04261e-05 -1.33058e-19 0.00054349 -5.81847e-20 0.0005039)
(0.000422118 3.85842e-05 8.84719e-20 0.000512421 1.7706e-21 0.000482213)
(0.000408336 4.36384e-05 -6.45548e-20 0.000480641 -3.72337e-20 0.000458845)
(0.000389442 4.58349e-05 8.87685e-22 0.000444145 4.74563e-20 0.000430001)
(0.000367957 4.64526e-05 -1.58554e-20 0.000407004 -1.24565e-20 0.000399328)
(0.000333212 4.27384e-05 -1.09822e-19 0.000357064 -7.58785e-20 0.000354716)
(0.000229418 2.22783e-05 4.66202e-20 0.000237064 4.52575e-20 0.000237422)
(7.4789e-05 2.44392e-06 1.27834e-22 7.53073e-05 -3.94136e-21 7.53968e-05)
(1.23816e-05 6.18473e-08 3.40071e-23 1.23895e-05 1.0405e-23 1.23917e-05)
(1.97498e-06 1.38637e-09 1.93839e-24 1.975e-06 -8.68917e-26 1.97509e-06)
(0 0 -0 0 -0 0)
(0 0 0 0 0 0)
(0.00661651 0.00274709 -2.13478e-19 0.00579158 4.78159e-21 0.00626026)
(0.00812578 0.00334889 -5.32155e-19 0.00700791 -3.29641e-19 0.00759942)
(0.0173686 0.00709311 2.32147e-20 0.0147075 1.82772e-18 0.0160559)
(0.00778402 0.00309705 -9.01583e-18 0.00638126 7.44261e-19 0.00707331)
(0.021373 0.00807423 -1.0228e-17 0.0162927 1.71046e-18 0.0187687)
(0.0456434 0.0119284 2.75098e-17 0.0248804 -1.60562e-16 0.0349231)
(0.241265 -0.0984516 5.75574e-16 0.20466 -7.06223e-16 0.221717)
(1.27452 -0.584469 -2.98311e-15 1.32786 1.59001e-16 1.29819)
(3.15459 -1.49037 4.8354e-15 3.52095 1.81674e-15 3.33505)
(5.00541 -2.3995 -9.6054e-16 5.80775 4.22652e-16 5.40551)
(6.12729 -2.964 -1.75014e-15 7.29547 3.98573e-15 6.71732)
(6.43276 -3.08586 6.73187e-16 7.49444 2.44339e-16 6.94765)
(6.97177 -3.40216 -1.72597e-14 8.48088 4.31248e-15 7.78255)
(0.000973465 -5.79985e-05 3.27632e-21 0.000780252 1.33926e-21 0.000878655)
(0.000975253 -4.0419e-05 -1.18514e-20 0.000766602 -1.70412e-20 0.000871937)
(0.000967266 -1.88376e-05 1.51339e-21 0.000749908 7.71164e-21 0.000859508)
(0.000946598 4.464e-06 6.46299e-21 0.000731281 -2.15633e-20 0.000839408)
(0.000911521 2.77237e-05 -5.25596e-20 0.000710679 -7.55783e-20 0.000811429)
(0.000858155 4.8361e-05 -4.66985e-20 0.000685178 3.59637e-20 0.000771672)
(0.000791987 6.3922e-05 7.53602e-20 0.000656882 3.91253e-20 0.00072425)
(0.000720108 7.29086e-05 -2.43792e-20 0.000627126 -7.08136e-20 0.000673549)
(0.000644753 7.53648e-05 -3.32864e-20 0.000594065 9.44901e-21 0.00061951)
(0.000566061 7.16185e-05 -2.26981e-20 0.000553809 -3.94162e-20 0.000560128)
(0.000489215 6.33216e-05 7.94999e-21 0.000507022 1.20025e-20 0.000498292)
(0.000418546 5.28399e-05 -1.48981e-20 0.000456702 -1.94839e-20 0.000437783)
(0.000355882 4.20686e-05 -3.07706e-20 0.000405681 4.13951e-20 0.000380969)
(0.000301269 3.21407e-05 3.26393e-20 0.000355937 1.91487e-20 0.000328868)
(0.000254411 2.36691e-05 2.77382e-20 0.000309162 -1.27569e-20 0.00028217)
(0.000214681 1.68088e-05 -5.7e-21 0.000266565 -1.14175e-20 0.000241166)
(0.000181472 1.14777e-05 1.65647e-20 0.000228957 3.68951e-21 0.000205933)
(0.000154124 7.42322e-06 -2.45443e-20 0.000196705 6.27138e-21 0.000176314)
(0.000131988 4.34785e-06 1.73811e-20 0.000169795 -4.57133e-22 0.00015196)
(0.000114177 1.94918e-06 -2.28839e-20 0.000147595 -1.06867e-20 0.000132111)
(9.99954e-05 -7.81613e-09 2.20833e-20 0.000129473 1.84576e-21 0.000116088)
(8.86512e-05 -1.71735e-06 2.96116e-20 0.000114496 6.47753e-21 0.000103037)
(7.93378e-05 -3.28758e-06 -2.06735e-21 0.00010157 2.71819e-21 9.20037e-05)
(7.07555e-05 -4.65801e-06 -5.55255e-20 8.8911e-05 2.6531e-23 8.14973e-05)
(6.22272e-05 -5.53084e-06 -2.06713e-20 7.58577e-05 -8.82706e-21 7.08404e-05)
(5.44257e-05 -5.80858e-06 -6.09319e-21 6.37405e-05 9.39002e-21 6.09892e-05)
(4.8389e-05 -5.71895e-06 2.25746e-20 5.38789e-05 2.80326e-22 5.32168e-05)
(4.45578e-05 -5.39429e-06 8.12314e-22 4.66713e-05 -1.85043e-22 4.79349e-05)
(4.35219e-05 -5.06209e-06 -1.29351e-21 4.27176e-05 1.10498e-22 4.57565e-05)
(4.12476e-05 -4.09724e-06 1.36265e-20 3.83485e-05 6.31197e-23 4.23655e-05)
(5.17203e-05 -5.49475e-06 1.54839e-20 4.50198e-05 5.00603e-22 5.23192e-05)
(1.19057e-05 -3.2049e-07 -4.938e-21 1.13918e-05 -2.7327e-22 1.18876e-05)
(8.48415e-05 -1.23736e-05 -5.48013e-19 6.20679e-05 -4.25054e-20 8.20516e-05)
(0.00043949 -0.000103878 -1.01636e-18 0.000233792 -1.24121e-19 0.00039706)
(0.00111114 -0.000257412 1.99338e-18 0.000562095 2.13179e-20 0.00095137)
(0.00229403 -0.000460433 -8.77126e-18 0.001071 3.61653e-18 0.00181963)
(0.000888092 -9.18468e-05 -1.25518e-17 0.000354198 -1.04469e-17 0.000652309)
(0.00285998 0.000199123 5.25211e-17 0.00112301 3.75105e-18 0.00196099)
(0.0489466 0.0196849 -2.90184e-16 0.03991 5.22039e-17 0.0464857)
(0.000790905 -6.10377e-05 4.49953e-21 0.000651723 5.22684e-21 0.000720682)
(0.000783264 -7.19184e-05 -1.13149e-20 0.000665466 -1.36e-20 0.000723794)
(0.000768842 -8.14806e-05 -9.13675e-22 0.000679511 -1.89064e-21 0.000723263)
(0.000750132 -8.80975e-05 -4.71602e-21 0.000693162 -2.45938e-21 0.000720571)
(0.000725974 -9.09734e-05 3.73926e-20 0.000703302 4.30342e-20 0.000713348)
(0.000696866 -8.99702e-05 2.86742e-20 0.000709711 2.36587e-20 0.000701597)
(0.000664829 -8.51172e-05 3.64624e-22 0.000711195 1.1563e-20 0.000685955)
(0.000630417 -7.68323e-05 7.11428e-20 0.000706165 6.89334e-20 0.000665795)
(0.000594649 -6.58165e-05 -8.8855e-21 0.000694369 -1.18644e-21 0.000641447)
(0.000558761 -5.31289e-05 -2.45731e-20 0.000675774 -1.15384e-20 0.000613612)
(0.000523172 -3.97212e-05 4.82709e-20 0.000650576 1.8014e-20 0.000582548)
(0.000488366 -2.64974e-05 -6.49867e-20 0.000619627 -2.51869e-20 0.000548931)
(0.000454737 -1.42759e-05 -1.1472e-19 0.000584128 -8.96764e-20 0.000513598)
(0.000422326 -3.55608e-06 -4.79317e-20 0.000545248 1.23545e-20 0.000477146)
(0.000391153 5.36851e-06 2.069e-19 0.000504242 9.34421e-20 0.000440264)
(0.000359901 1.22814e-05 -1.49586e-19 0.000460634 -6.81805e-20 0.000402109)
(0.00032622 1.76138e-05 -3.59848e-20 0.000412321 3.12057e-20 0.000360958)
(0.000291867 2.13315e-05 6.73187e-20 0.000362139 4.38793e-20 0.000319049)
(0.00025981 2.36628e-05 -4.25508e-20 0.000314455 -3.4533e-22 0.000279944)
(0.000232194 2.49057e-05 -1.40457e-20 0.000272563 3.51655e-20 0.000246203)
(0.000210651 2.55478e-05 2.00089e-20 0.000238474 -1.28539e-20 0.000219523)
(0.000178777 2.14394e-05 -1.27352e-19 0.00019261 1.2328e-20 0.000182507)
(0.000130311 1.22212e-05 7.0726e-22 0.000133227 -1.18669e-20 0.00013055)
(2.5528e-05 4.72712e-07 -1.89173e-21 2.54641e-05 1.90302e-22 2.54689e-05)
(6.71927e-06 3.13828e-08 3.39605e-23 6.70521e-06 9.94866e-24 6.71116e-06)
(3.37486e-06 7.70692e-09 -2.68783e-24 3.36972e-06 -1.13293e-23 3.37206e-06)
(1.45192e-06 1.40811e-09 -1.04582e-25 1.45085e-06 -9.74372e-27 1.45134e-06)
(2.07135e-12 2.75786e-21 4.61296e-37 2.07135e-12 1.13716e-38 2.07135e-12)
(0 0 0 0 -0 0)
(0.0010484 0.00031648 3.40636e-19 0.000844419 5.48934e-19 0.000943582)