/*--------------------------------*- C++ -*----------------------------------*\
| =========                 |                                                 |
| \\      /  F ield         | OpenFOAM: The Open Source CFD Toolbox           |
|  \\    /   O peration     | Version:  2506                                  |
|   \\  /    A nd           | Website:  www.openfoam.com                      |
|    \\/     M anipulation  |                                                 |
\*---------------------------------------------------------------------------*/
FoamFile
{
    version     2.0;
    format      ascii;
    arch        "LSB;label=32;scalar=64";
    class       volScalarField;
    location    "400";
    object      turbulenceProperties:k;
}
// * * * * * * * * * * * * * * * * * * * * * * * * * * * * * * * * * * * * * //

dimensions      [0 2 -2 0 0 0 0];

internalField   nonuniform List<scalar> 
10720
(
0.0199782
0.0232534
0.027418
0.0330501
0.039673
0.0480535
0.0587088
0.0718506
0.0885055
0.109757
0.137256
0.173641
0.222542
0.28991
0.38588
0.526368
0.742773
1.07626
1.6618
2.57331
4.62765
7.73389
18.1063
35.3425
39.1664
37.4712
36.8218
37.4952
38.3291
38.54
38.0298
36.8946
35.0607
32.5507
29.3094
25.4129
20.1254
14.8739
3.46714
0.0170387
0.0146484
0.0119551
0.00963857
0.00744361
0.00545909
0.00385214
0.00288489
0.00301492
0.00406982
0.00603129
0.00903307
0.0133978
0.019637
0.0284187
0.0408172
0.0586624
0.0853444
0.127069
0.195059
0.311627
0.517847
0.911257
1.66855
3.3196
6.78861
15.1732
31.2657
44.3053
49.9008
51.488
51.7481
51.4499
50.7221
49.6019
48.1504
46.0271
43.5545
35.6743
0.00310762
0.00309044
0.00305512
0.00296698
0.00283058
0.00267374
0.00248862
0.00228037
0.00207427
0.0018721
0.00167936
0.00154524
0.0015259
0.00167373
0.00216397
0.00336946
0.00632353
0.0130766
0.0313837
0.076749
0.226457
0.626252
1.91855
6.15606
12.0698
18.1835
23.9285
27.9946
28.8026
26.4248
22.5182
18.5648
15.3591
12.9027
11.0153
9.51832
8.47205
7.38124
7.92687
0.00307935
0.00303752
0.00295211
0.00282554
0.00265254
0.00242444
0.00215683
0.00189734
0.00165748
0.00141948
0.001193
0.000996954
0.00083131
0.000690807
0.000571728
0.000471396
0.000386285
0.000314249
0.000251123
0.000193458
0.000136416
8.06517e-05
2.79573e-05
4.55993e-06
1.16251e-05
0.00159576
0.00854128
0.068832
0.231451
0.451773
0.673434
0.867766
1.03112
1.1749
1.30945
1.44807
1.59465
1.92193
2.67267
0.00208394
0.0020675
0.00202086
0.0019496
0.00187507
0.00179316
0.00171037
0.00163591
0.00157188
0.00152219
0.00148379
0.00146171
0.00145577
0.00146829
0.00147232
0.00142736
0.00124952
0.00107641
0.000122814
0.00664947
0.00269234
0.00457844
0.00057229
0.0239484
0.199477
0.663003
1.65189
3.723
7.34162
12.1144
16.4312
18.5533
18.1378
16.2865
14.131
12.1069
10.5206
8.7097
9.78678
0.00210019
0.00209763
0.00209205
0.0020548
0.00198874
0.0018778
0.00172483
0.00155016
0.00138784
0.00122085
0.00104117
0.000867162
0.000711458
0.000577376
0.000466673
0.000377307
0.000307655
0.000254824
0.00021641
0.000188815
0.000169809
0.000157461
0.000150673
0.00014697
0.000146798
0.000145858
0.000155161
9.228e-05
0.000635755
0.00417637
0.0118344
0.0247094
0.0551257
0.11502
0.203552
0.312077
0.429987
0.51467
0.87853
0.00175894
0.0017626
0.00175373
0.00173912
0.00170899
0.00166417
0.00160826
0.00153845
0.00145866
0.00137045
0.00127565
0.00117557
0.00107121
0.000964482
0.000856253
0.000742797
0.000629709
0.000527758
0.00040009
0.000228509
4.85826e-10
0.000524492
0.000375747
0.00636387
0.0235447
0.0456182
0.025802
0.0120496
0.0369915
0.358948
1.58882
4.33342
8.12561
11.2762
12.6338
12.4513
11.7093
10.2487
11.0369
0.00174009
0.0017115
0.00166662
0.00161259
0.00154482
0.00145609
0.00135251
0.00124228
0.00112751
0.00100295
0.000874196
0.000753503
0.000646875
0.000554963
0.000477314
0.000412214
0.000358663
0.00031504
0.00028004
0.000251536
0.000228379
0.000208933
0.000191498
0.000173167
0.000154338
0.000138673
0.000126854
0.000118358
0.00010806
9.47686e-05
7.11676e-05
4.48475e-05
0.000343993
0.000594233
0.00215716
0.0115584
0.0379335
0.0958608
0.349034
0.0013196
0.00131727
0.00130699
0.00128865
0.00126027
0.00122177
0.00117525
0.00112145
0.00106205
0.00100073
0.000939448
0.00088067
0.000827025
0.000780146
0.000741158
0.000708376
0.000673912
0.000631794
0.000587144
0.000522496
0.000351952
0.000112747
1.85814e-05
2.96254e-06
0
0
0.00933417
0.0113666
0.024066
0.0106193
0.0282172
0.0527234
0.33382
1.95028
5.00529
8.10933
10.07
10.4374
11.6176
0.00131619
0.0013069
0.00128834
0.00125864
0.00121681
0.0011575
0.00108656
0.00101039
0.000929164
0.000839999
0.000747265
0.000656515
0.000571266
0.000493037
0.000422872
0.000361206
0.000308181
0.000263572
0.000226871
0.000196941
0.000172778
0.000153092
0.000136456
0.000120582
0.000104463
8.95777e-05
7.77424e-05
6.9582e-05
6.5998e-05
6.09808e-05
7.45297e-05
1.75925e-05
0.00011448
0.000535171
0.0013123
0.00259233
0.000947299
0.00297199
0.0676711
0.00108166
0.00108626
0.00108581
0.00108193
0.00107131
0.00105409
0.00103099
0.00100119
0.000965233
0.000924074
0.000878148
0.000828462
0.000776232
0.000722361
0.000667829
0.000611321
0.000549749
0.000486528
0.000427104
0.00037548
0.000334324
0.000276947
0.000197044
3.82305e-05
1.00678e-05
5.05832e-06
2.17706e-06
3.10703e-12
0
0.0014182
0.00673027
0.0366753
0.00679555
0.0905215
0.198315
1.85558
5.17736
8.34465
11.0855
0.00107183
0.00105828
0.00103859
0.00101259
0.000979211
0.000935343
0.00088486
0.000830697
0.000771782
0.000706676
0.000638483
0.000570594
0.000505639
0.00044513
0.000390106
0.000341241
0.000298774
0.00026257
0.000232214
0.000206928
0.00018581
0.000167758
0.000151536
0.000135379
0.000118609
0.000102649
8.87078e-05
7.70652e-05
6.72773e-05
5.91592e-05
5.21958e-05
4.58646e-05
3.63117e-05
2.33157e-05
1.56894e-08
4.65826e-07
0.000160096
0.000683271
0.00769987
0.000874976
0.000878799
0.000879427
0.0008772
0.00087021
0.000858116
0.000841206
0.000818951
0.000791598
0.000759859
0.000724293
0.000685816
0.000645551
0.000604692
0.000564213
0.000525409
0.000490233
0.000457469
0.000423994
0.000389094
0.000356261
0.000328675
0.00029947
0.000246997
0.000166879
8.944e-05
3.26353e-05
3.84965e-11
3.4927e-06
3.70199e-07
0
0
0.000885783
0.0286003
0.0217574
0.127672
0.850385
4.25537
8.89389
0.000867796
0.000858061
0.000843902
0.00082442
0.000799133
0.000766704
0.000730245
0.000690497
0.000646736
0.000598759
0.000548304
0.000497322
0.000447349
0.000399434
0.000354475
0.000313195
0.000275995
0.000243109
0.000214541
0.000189955
0.000168869
0.00015058
0.0001342
0.000118462
0.000102693
8.77635e-05
7.46341e-05
6.35715e-05
5.43819e-05
4.69071e-05
4.13207e-05
3.76997e-05
3.55855e-05
3.31397e-05
3.0316e-05
1.385e-05
1.33756e-06
6.56883e-08
0.000229434
0.000725204
0.000730149
0.000733089
0.000734268
0.000732264
0.000726781
0.000718016
0.000705364
0.000688797
0.000668665
0.000644948
0.000618106
0.000588689
0.000557145
0.000524031
0.00049005
0.000454768
0.000417279
0.000379282
0.000343322
0.000311691
0.000286327
0.000267526
0.000252991
0.000229931
0.000195017
0.00015363
0.000104592
6.35258e-05
5.84084e-06
3.16172e-06
1.24369e-07
0
0
0.00314308
0.0539758
0.0990387
0.967699
5.32946
0.000717764
0.000708788
0.00069678
0.000680831
0.000660838
0.000636088
0.000609031
0.000579195
0.00054619
0.000510361
0.000472543
0.000433914
0.000395418
0.000357788
0.000321759
0.000288025
0.000257012
0.00022909
0.000204406
0.000182809
0.000163955
0.000147312
0.000132152
0.000117539
0.000102965
8.90554e-05
7.65919e-05
6.57506e-05
5.63487e-05
4.81443e-05
4.10868e-05
3.50401e-05
2.98904e-05
2.54667e-05
2.23967e-05
1.9579e-05
1.38875e-05
1.57035e-06
1.62521e-05
0.00060495
0.000609705
0.000613187
0.000615346
0.000615268
0.000612644
0.000607493
0.000599289
0.00058795
0.000573565
0.000556098
0.00053579
0.000513038
0.000488166
0.000461706
0.000434107
0.000406011
0.000378471
0.000351617
0.000325399
0.000300285
0.000277506
0.000257427
0.000239236
0.000220468
0.000198474
0.000175056
0.000152815
0.000130292
9.44536e-05
6.1932e-05
2.49821e-06
1.61231e-06
0
0
0
0.031165
0.133917
2.12129
0.000598409
0.000590832
0.000581071
0.000568092
0.000552262
0.000533147
0.000512554
0.000489736
0.000464511
0.000437394
0.00040876
0.00037929
0.000349554
0.000319997
0.000291126
0.000263467
0.000237439
0.000213392
0.000191535
0.000171902
0.000154341
0.000138528
0.000123942
0.000109942
9.61998e-05
8.30997e-05
7.12872e-05
6.0986e-05
5.20658e-05
4.43882e-05
3.79037e-05
3.26421e-05
2.86469e-05
2.58614e-05
2.4274e-05
2.44899e-05
2.62052e-05
2.76949e-05
1.05085e-06
0.000509981
0.000514656
0.000518553
0.000521564
0.000522974
0.000522611
0.00052044
0.000515956
0.000509091
0.000499874
0.000488109
0.000473942
0.00045752
0.000439051
0.000418796
0.000397059
0.000374314
0.000350492
0.000325773
0.000301201
0.000278089
0.000257435
0.000239387
0.000222244
0.00020364
0.000182706
0.000161653
0.00014376
0.000129812
0.000118224
0.000106524
7.70562e-05
3.21734e-05
2.85207e-06
0
0
0
0.0466296
0.547356
0.000503997
0.000497428
0.000489197
0.000478393
0.000465648
0.00045074
0.000434684
0.000416928
0.000397459
0.00037668
0.000354767
0.000332147
0.000309081
0.000285823
0.000262754
0.000240244
0.000218629
0.000198248
0.000179328
0.00016197
0.000146138
0.000131639
0.00011813
0.000105179
9.25073e-05
8.04311e-05
6.94455e-05
5.97503e-05
5.1241e-05
4.38022e-05
3.73595e-05
3.19118e-05
2.73576e-05
2.37849e-05
2.11751e-05
2.06618e-05
2.03451e-05
3.41218e-05
1.41773e-05
0.000433001
0.00043737
0.00044129
0.000444611
0.00044673
0.00044759
0.00044707
0.000444826
0.00044071
0.000434687
0.000426549
0.000416383
0.000404208
0.000390105
0.000374281
0.000357011
0.0003385
0.000319179
0.000299516
0.000279879
0.000260899
0.000243076
0.00022664
0.000210672
0.00019327
0.000173581
0.000153069
0.000134713
0.000120132
0.000109655
0.000101874
9.70619e-05
8.47077e-05
4.91844e-05
3.27371e-06
0
0
0.00248539
0.139868
0.000427631
0.000421925
0.000415031
0.000406
0.000395591
0.00038382
0.000371089
0.000357057
0.000341889
0.000325808
0.000308894
0.00029137
0.000273399
0.000255114
0.000236702
0.000218426
0.000200547
0.00018332
0.000166981
0.000151658
0.000137384
0.000124063
0.000111486
9.93955e-05
8.76267e-05
7.63917e-05
6.6087e-05
5.69222e-05
4.88439e-05
4.17661e-05
3.56588e-05
3.05412e-05
2.63888e-05
2.32768e-05
2.11427e-05
2.08856e-05
2.07859e-05
2.94788e-05
3.68108e-05
0.000370118
0.000374187
0.000378003
0.000381419
0.000383979
0.000385643
0.000386287
0.000385599
0.000383483
0.00037985
0.00037458
0.000367573
0.000358861
0.00034848
0.000336512
0.000323097
0.000308435
0.000292825
0.000276392
0.000259496
0.000242871
0.000227084
0.000212294
0.000197835
0.00018232
0.000164928
0.00014651
0.000129286
0.000114793
0.000103214
9.38602e-05
8.77875e-05
8.47492e-05
8.14367e-05
5.33053e-05
2.63671e-06
0
0.000802084
0.048637
0.00036531
0.000360314
0.000354479
0.000346869
0.000338284
0.000328838
0.00031862
0.000307398
0.00029545
0.000282876
0.000269692
0.000256034
0.000241997
0.00022756
0.000212865
0.000198073
0.000183349
0.000168892
0.000154894
0.000141502
0.000128786
0.000116733
0.000105208
9.40546e-05
8.32297e-05
7.28854e-05
6.33233e-05
5.47391e-05
4.7117e-05
4.03978e-05
3.45419e-05
2.95679e-05
2.54482e-05
2.22432e-05
1.99579e-05
1.93679e-05
1.95844e-05
2.51719e-05
4.02026e-05
0.000318124
0.000321876
0.000325513
0.000328863
0.0003316
0.000333692
0.00033503
0.000335354
0.000334552
0.000332572
0.000329239
0.000324489
0.000318317
0.000310671
0.000301612
0.000291195
0.000279563
0.000266984
0.000253628
0.000239764
0.000225831
0.000212251
0.000199136
0.000186049
0.000172084
0.000156624
0.000140281
0.000124704
0.000111202
9.98951e-05
9.02846e-05
8.23121e-05
7.67337e-05
7.45178e-05
7.83295e-05
4.03197e-05
5.71256e-08
0.000259242
0.0161552
0.000313856
0.000309455
0.000304473
0.000298047
0.000290917
0.000283224
0.000274918
0.000265868
0.000256362
0.000246443
0.000236081
0.000225365
0.000214323
0.00020291
0.000191166
0.000179207
0.000167118
0.000155051
0.000143131
0.000131498
0.000120249
0.000109397
9.8883e-05
8.86507e-05
7.86945e-05
6.91632e-05
6.02953e-05
5.22653e-05
4.50719e-05
3.87064e-05
3.31299e-05
2.8381e-05
2.44552e-05
2.14168e-05
1.92702e-05
1.86341e-05
1.88981e-05
2.31757e-05
3.69528e-05
0.000274797
0.000278219
0.000281642
0.000284867
0.000287627
0.000289938
0.000291703
0.000292688
0.000292794
0.000291962
0.000290051
0.000287004
0.000282764
0.000277282
0.000270548
0.000262625
0.000253547
0.000243543
0.00023272
0.000221208
0.000209386
0.000197662
0.000186103
0.000174422
0.000161988
0.000148299
0.000133838
0.000119867
0.000107529
9.70075e-05
8.79309e-05
8.00316e-05
7.34108e-05
6.84921e-05
6.74777e-05
8.14561e-05
8.02152e-08
2.68344e-05
0.00405387
0.000270985
0.000267134
0.000262825
0.000257358
0.000251396
0.000245066
0.00023822
0.000230873
0.000223251
0.000215346
0.000207138
0.000198678
0.000189949
0.000180882
0.000171499
0.000161847
0.000151937
0.00014189
0.000131802
0.000121776
0.000111892
0.000102199
9.2686e-05
8.33653e-05
7.42778e-05
6.55391e-05
5.73536e-05
4.98699e-05
4.31274e-05
3.71081e-05
3.1819e-05
2.72768e-05
2.34819e-05
2.04873e-05
1.83388e-05
1.75961e-05
1.77519e-05
2.14573e-05
3.32488e-05
0.000238405
0.000241511
0.000244681
0.000247721
0.000250422
0.000252827
0.000254802
0.000256191
0.000256893
0.000256858
0.000255971
0.00025415
0.000251346
0.000247489
0.000242559
0.000236562
0.000229556
0.000221622
0.000212928
0.000203546
0.000193687
0.000183691
0.000173631
0.000163313
0.000152298
0.000140214
0.000127422
0.000114915
0.000103653
9.39062e-05
8.54388e-05
7.80811e-05
7.16442e-05
6.68256e-05
6.01535e-05
7.49732e-05
3.79517e-05
3.65452e-07
0.000271513
0.000234983
0.000231597
0.000227863
0.000223183
0.000218167
0.000212885
0.000207209
0.000201194
0.000195026
0.000188672
0.000182122
0.000175393
0.000168451
0.000161235
0.000153716
0.000145915
0.000137815
0.000129482
0.00012097
0.000112367
0.000103748
9.51626e-05
8.66265e-05
7.81731e-05
6.98894e-05
6.19035e-05
5.43725e-05
4.74249e-05
4.11203e-05
3.54448e-05
3.04309e-05
2.61004e-05
2.2454e-05
1.9562e-05
1.74623e-05
1.66641e-05
1.67222e-05
1.98511e-05
2.9982e-05
0.000207606
0.000210434
0.000213348
0.000216157
0.00021877
0.000221176
0.000223244
0.000224858
0.00022596
0.000226476
0.000226295
0.000225358
0.000223625
0.000221008
0.000217491
0.00021305
0.000207709
0.000201511
0.000194584
0.000186981
0.000178789
0.000170311
0.000161611
0.000152596
0.00014289
0.000132297
0.000121036
0.000109889
9.96536e-05
9.06516e-05
8.27534e-05
7.58812e-05
6.98293e-05
6.53698e-05
5.95399e-05
6.0386e-05
7.22942e-05
1.52626e-07
1.87593e-05
0.000204553
0.000201547
0.000198304
0.000194281
0.000190043
0.000185581
0.00018084
0.000175869
0.000170833
0.00016569
0.000160425
0.000155042
0.000149495
0.000143721
0.000137688
0.000131366
0.000124751
0.000117847
0.000110698
0.00010336
9.58788e-05
8.8318e-05
8.07026e-05
7.30941e-05
6.55922e-05
5.83229e-05
5.14121e-05
4.49891e-05
3.91107e-05
3.37909e-05
2.90495e-05
2.49269e-05
2.14252e-05
1.86175e-05
1.65357e-05
1.56602e-05
1.56309e-05
1.82552e-05
2.70261e-05
0.000181386
0.000183933
0.000186612
0.000189215
0.000191686
0.000194025
0.000196108
0.000197834
0.00019917
0.000200043
0.000200356
0.000200052
0.000199106
0.000197449
0.000195013
0.000191796
0.000187774
0.000182986
0.000177524
0.000171413
0.000164688
0.000157563
0.00015013
0.0001423
0.000133846
0.000124591
0.00011472
0.000104825
9.55848e-05
8.73127e-05
7.99687e-05
7.35081e-05
6.78716e-05
6.33233e-05
5.97892e-05
5.27588e-05
7.89526e-05
3.97455e-07
3.74204e-10
0.000178678
0.000176001
0.000173145
0.000169685
0.000166068
0.000162293
0.000158292
0.000154158
0.000150005
0.000145818
0.000141554
0.000137214
0.000132754
0.000128115
0.000123258
0.000118134
0.000112723
0.000107016
0.000101033
9.47935e-05
8.8341e-05
8.17214e-05
7.49637e-05
6.81492e-05
6.13848e-05
5.47867e-05
4.84757e-05
4.25533e-05
3.70838e-05
3.21105e-05
2.76406e-05
2.37214e-05
2.03756e-05
1.76577e-05
1.56113e-05
1.46697e-05
1.45536e-05
1.67266e-05
2.42928e-05
0.000158943
0.000161255
0.000163684
0.000166103
0.000168403
0.000170626
0.000172683
0.000174448
0.000175918
0.000176997
0.000177644
0.000177826
0.000177451
0.000176474
0.000174873
0.000172597
0.000169654
0.000166002
0.000161741
0.000156873
0.000151409
0.000145463
0.000139166
0.000132438
0.000125133
0.000117102
0.000108485
9.97565e-05
9.14571e-05
8.3892e-05
7.71049e-05
7.10568e-05
6.5807e-05
6.1221e-05
5.86074e-05
5.13135e-05
6.7076e-05
2.54646e-05
5.11641e-07
0.000156518
0.000154158
0.000151641
0.000148633
0.000145539
0.000142305
0.000138904
0.00013546
0.000132007
0.000128563
0.000125081
0.000121565
0.000117966
0.000114219
0.000110281
0.00010612
0.000101692
9.6974e-05
9.19785e-05
8.66903e-05
8.11501e-05
7.53919e-05
6.9439e-05
6.33641e-05
5.72832e-05
5.13173e-05
4.55748e-05
4.0139e-05
3.50727e-05
3.04228e-05
2.62275e-05
2.25033e-05
1.92998e-05
1.66764e-05
1.46633e-05
1.36564e-05
1.3462e-05
1.52639e-05
2.17531e-05
0.000139643
0.000141728
0.000143942
0.000146159
0.000148293
0.000150397
0.000152375
0.000154125
0.000155648
0.000156871
0.000157734
0.000158211
0.000158248
0.000157797
0.000156826
0.000155288
0.000153174
0.000150459
0.000147173
0.000143341
0.000138942
0.000134034
0.000128736
0.000123031
0.000116754
0.000109833
0.000102355
9.46864e-05
8.72716e-05
8.04155e-05
7.41733e-05
6.85483e-05
6.36323e-05
5.92564e-05
5.64498e-05
5.16574e-05
5.48826e-05
5.15201e-05
6.11034e-06
0.000137478
0.000135372
0.000133154
0.000130538
0.000127872
0.000125079
0.000122181
0.000119274
0.000116406
0.000113545
0.000110685
0.000107811
0.000104884
0.000101835
9.86366e-05
9.52501e-05
9.1613e-05
8.77219e-05
8.35475e-05
7.90831e-05
7.43456e-05
6.93469e-05
6.41225e-05
5.87382e-05
5.33012e-05
4.79338e-05
4.27213e-05
3.77487e-05
3.3076e-05
2.87473e-05
2.4808e-05
2.12836e-05
1.82282e-05
1.56833e-05
1.36953e-05
1.26321e-05
1.23768e-05
1.38642e-05
1.9408e-05
0.000122977
0.000124845
0.000126858
0.000128885
0.000130858
0.000132834
0.000134706
0.000136416
0.000137928
0.000139215
0.000140215
0.000140904
0.000141235
0.000141171
0.00014068
0.000139711
0.000138241
0.00013626
0.000133765
0.000130792
0.000127293
0.00012329
0.000118877
0.000114063
0.000108728
0.000102791
9.63481e-05
8.96445e-05
8.3075e-05
7.68844e-05
7.11725e-05
6.5977e-05
6.13714e-05
5.73204e-05
5.41393e-05
5.13091e-05
4.84592e-05
5.53529e-05
2.5992e-05
0.000121034
0.00011916
0.000117192
0.000114918
0.000112595
0.000110182
0.000107698
0.000105224
0.000102813
0.000100431
9.80607e-05
9.56947e-05
9.32979e-05
9.08076e-05
8.81973e-05
8.54237e-05
8.2436e-05
7.92218e-05
7.57334e-05
7.1975e-05
6.79324e-05
6.36222e-05
5.90581e-05
5.42991e-05
4.94628e-05
4.46435e-05
3.99252e-05
3.53893e-05
3.10925e-05
2.70774e-05
2.33834e-05
2.00683e-05
1.7147e-05
1.46926e-05
1.27362e-05
1.16219e-05
1.12971e-05
1.25344e-05
1.72609e-05
0.000108521
0.000110206
0.000112036
0.000113877
0.000115695
0.000117536
0.000119296
0.000120929
0.000122415
0.000123716
0.000124787
0.000125607
0.00012614
0.000126353
0.000126201
0.000125668
0.000124707
0.000123309
0.000121456
0.000119185
0.000116446
0.000113211
0.000109583
0.000105552
0.000101052
9.60033e-05
9.04758e-05
8.46695e-05
7.88696e-05
7.33118e-05
6.81237e-05
6.33572e-05
5.90465e-05
5.53044e-05
5.19914e-05
4.98788e-05
4.59177e-05
4.98399e-05
4.04598e-05
0.000106783
0.000105103
0.000103363
0.000101371
9.93484e-05
9.72501e-05
9.51022e-05
9.2996e-05
9.09455e-05
8.89481e-05
8.69683e-05
8.50074e-05
8.30277e-05
8.09875e-05
7.88471e-05
7.65595e-05
7.41031e-05
7.14372e-05
6.85335e-05
6.53647e-05
6.1926e-05
5.82173e-05
5.42471e-05
5.0064e-05
4.57667e-05
4.14551e-05
3.72063e-05
3.30819e-05
2.91382e-05
2.54226e-05
2.19768e-05
1.88471e-05
1.60694e-05
1.36979e-05
1.17717e-05
1.061e-05
1.02276e-05
1.1264e-05
1.52939e-05
9.59397e-05
9.746e-05
9.91107e-05
0.000100788
0.000102467
0.000104163
0.000105804
0.000107352
0.000108788
0.000110075
0.000111173
0.000112069
0.000112735
0.00011313
0.000113231
0.000113019
0.000112456
0.00011152
0.000110189
0.000108481
0.000106359
0.000103786
0.000100832
9.75021e-05
9.37378e-05
8.94843e-05
8.47615e-05
7.97558e-05
7.46695e-05
6.97306e-05
6.50392e-05
6.06806e-05
5.66783e-05
5.31875e-05
4.99693e-05
4.78608e-05
4.45985e-05
4.42735e-05
4.37641e-05
9.43948e-05
9.28789e-05
9.13317e-05
8.95811e-05
8.78118e-05
8.59812e-05
8.41195e-05
8.23121e-05
8.05646e-05
7.88696e-05
7.72118e-05
7.55755e-05
7.39293e-05
7.2239e-05
7.04682e-05
6.85894e-05
6.65592e-05
6.43423e-05
6.19173e-05
5.92507e-05
5.6332e-05
5.31439e-05
4.96942e-05
4.6031e-05
4.22347e-05
3.83894e-05
3.4567e-05
3.08299e-05
2.72227e-05
2.37955e-05
2.05857e-05
1.76381e-05
1.49978e-05
1.27005e-05
1.08093e-05
9.6092e-06
9.18204e-06
1.006e-05
1.35045e-05
8.49542e-05
8.63286e-05
8.78219e-05
8.93472e-05
9.0882e-05
9.24447e-05
9.39746e-05
9.54229e-05
9.67843e-05
9.80292e-05
9.91345e-05
0.000100064
0.000100811
0.000101332
0.000101626
0.000101645
0.00010138
0.0001008
9.98805e-05
9.86352e-05
9.7019e-05
9.50064e-05
9.26236e-05
8.99082e-05
8.67943e-05
8.3227e-05
7.92295e-05
7.49227e-05
7.0508e-05
6.61335e-05
6.19223e-05
5.79562e-05
5.42686e-05
5.09997e-05
4.79724e-05
4.56962e-05
4.31738e-05
4.06341e-05
4.15989e-05
8.35733e-05
8.22247e-05
8.08416e-05
7.92984e-05
7.77352e-05
7.61391e-05
7.45173e-05
7.29494e-05
7.14535e-05
7.00093e-05
6.86027e-05
6.72274e-05
6.58499e-05
6.44437e-05
6.29748e-05
6.14185e-05
5.97282e-05
5.7891e-05
5.58595e-05
5.36118e-05
5.11303e-05
4.84003e-05
4.54206e-05
4.22192e-05
3.88668e-05
3.54518e-05
3.20284e-05
2.86488e-05
2.53567e-05
2.21996e-05
1.92182e-05
1.64492e-05
1.39344e-05
1.17226e-05
9.86985e-06
8.63558e-06
8.1592e-06
8.92325e-06
1.1885e-05
7.53454e-05
7.65759e-05
7.79292e-05
7.93201e-05
8.07194e-05
8.21503e-05
8.35638e-05
8.49186e-05
8.6203e-05
8.73975e-05
8.84624e-05
8.94002e-05
9.0191e-05
9.08026e-05
9.12182e-05
9.14155e-05
9.13712e-05
9.10597e-05
9.04688e-05
8.95914e-05
8.83955e-05
8.68469e-05
8.49546e-05
8.27556e-05
8.02017e-05
7.72353e-05
7.38755e-05
7.02174e-05
6.6395e-05
6.25483e-05
5.87946e-05
5.5203e-05
5.18257e-05
4.87682e-05
4.59329e-05
4.35665e-05
4.13844e-05
3.82318e-05
3.82709e-05
7.4103e-05
7.2894e-05
7.16681e-05
7.03046e-05
6.89179e-05
6.7512e-05
6.61006e-05
6.47362e-05
6.34442e-05
6.22031e-05
6.10067e-05
5.98429e-05
5.86874e-05
5.75076e-05
5.62776e-05
5.49714e-05
5.35689e-05
5.20335e-05
5.03212e-05
4.84326e-05
4.63302e-05
4.3997e-05
4.14203e-05
3.86254e-05
3.56806e-05
3.26511e-05
2.95906e-05
2.65417e-05
2.35489e-05
2.06493e-05
1.78823e-05
1.52824e-05
1.28979e-05
1.0765e-05
8.94308e-06
7.6793e-06
7.16613e-06
7.84881e-06
1.04163e-05
6.69064e-05
6.80176e-05
6.92405e-05
7.04985e-05
7.17753e-05
7.30924e-05
7.43958e-05
7.5649e-05
7.68507e-05
7.79788e-05
7.90083e-05
7.99319e-05
8.07306e-05
8.13915e-05
8.18902e-05
8.22129e-05
8.23343e-05
8.22335e-05
8.18878e-05
8.13012e-05
8.04443e-05
7.92794e-05
7.78003e-05
7.60411e-05
7.39711e-05
7.15322e-05
6.8729e-05
6.564e-05
6.2348e-05
5.89945e-05
5.56642e-05
5.24314e-05
4.93517e-05
4.65076e-05
4.38488e-05
4.14918e-05
3.93771e-05
3.62658e-05
3.52277e-05
6.57984e-05
6.47144e-05
6.36143e-05
6.24121e-05
6.11881e-05
5.99383e-05
5.8703e-05
5.75201e-05
5.63967e-05
5.53212e-05
5.42952e-05
5.33046e-05
5.23189e-05
5.13186e-05
5.02902e-05
4.91978e-05
4.80207e-05
4.67244e-05
4.5294e-05
4.36979e-05
4.19113e-05
3.9915e-05
3.76909e-05
3.52625e-05
3.26792e-05
2.99958e-05
2.7264e-05
2.4522e-05
2.18036e-05
1.91468e-05
1.65828e-05
1.41523e-05
1.18884e-05
9.83612e-06
8.04248e-06
6.75398e-06
6.20928e-06
6.84131e-06
9.10461e-06
5.94848e-05
6.04877e-05
6.15921e-05
6.27363e-05
6.38986e-05
6.50964e-05
6.62936e-05
6.74518e-05
6.85698e-05
6.96287e-05
7.06093e-05
7.15047e-05
7.22986e-05
7.29775e-05
7.3526e-05
7.39311e-05
7.41726e-05
7.42303e-05
7.40805e-05
7.37171e-05
7.31324e-05
7.22834e-05
7.11473e-05
6.97664e-05
6.81084e-05
6.61174e-05
6.37972e-05
6.11941e-05
5.8392e-05
5.54843e-05
5.25506e-05
4.96585e-05
4.68663e-05
4.4229e-05
4.17372e-05
3.94392e-05
3.73101e-05
3.43633e-05
3.26281e-05
5.84905e-05
5.75248e-05
5.65334e-05
5.54658e-05
5.43832e-05
5.3283e-05
5.2192e-05
5.11521e-05
5.0174e-05
4.92405e-05
4.83532e-05
4.74973e-05
4.66562e-05
4.58089e-05
4.49324e-05
4.40145e-05
4.302e-05
4.19305e-05
4.07252e-05
3.93724e-05
3.78604e-05
3.61482e-05
3.4234e-05
3.21207e-05
2.98526e-05
2.7484e-05
2.50573e-05
2.25955e-05
2.01319e-05
1.77018e-05
1.53343e-05
1.30593e-05
1.09189e-05
8.94274e-06
7.18235e-06
5.86553e-06
5.2928e-06
5.90369e-06
7.93451e-06
5.29449e-05
5.38481e-05
5.48468e-05
5.58811e-05
5.69373e-05
5.80318e-05
5.91237e-05
6.01916e-05
6.12312e-05
6.22206e-05
6.31412e-05
6.39959e-05
6.47739e-05
6.5451e-05
6.60255e-05
6.6484e-05
6.68058e-05
6.69751e-05
6.69784e-05
6.67922e-05
6.64186e-05
6.58255e-05
6.49759e-05
6.39074e-05
6.25917e-05
6.09866e-05
5.90846e-05
5.69122e-05
5.45453e-05
5.20384e-05
4.94663e-05
4.68974e-05
4.4373e-05
4.1945e-05
3.96076e-05
3.73941e-05
3.52624e-05
3.24497e-05
3.03296e-05
5.20544e-05
5.11855e-05
5.03032e-05
4.93513e-05
4.83866e-05
4.74115e-05
4.64485e-05
4.55327e-05
4.46736e-05
4.38637e-05
4.30898e-05
4.23458e-05
4.1628e-05
4.08988e-05
4.01493e-05
3.93704e-05
3.85297e-05
3.76072e-05
3.65875e-05
3.54456e-05
3.41525e-05
3.26905e-05
3.10377e-05
2.92018e-05
2.72191e-05
2.51327e-05
2.2975e-05
2.0766e-05
1.85404e-05
1.63226e-05
1.41395e-05
1.20168e-05
9.98934e-06
8.09212e-06
6.36411e-06
5.0248e-06
4.42293e-06
5.03649e-06
6.89586e-06
4.71676e-05
4.79822e-05
4.88865e-05
4.98202e-05
5.07788e-05
5.17765e-05
5.2775e-05
5.37567e-05
5.47106e-05
5.56309e-05
5.6499e-05
5.73028e-05
5.80461e-05
5.87146e-05
5.92974e-05
5.97854e-05
6.01587e-05
6.04107e-05
6.05214e-05
6.04772e-05
6.0269e-05
5.98732e-05
5.92642e-05
5.84469e-05
5.74241e-05
5.61433e-05
5.46001e-05
5.28018e-05
5.08077e-05
4.86625e-05
4.64263e-05
4.4158e-05
4.18815e-05
3.96615e-05
3.7478e-05
3.53612e-05
3.32519e-05
3.0545e-05
2.82181e-05
4.63712e-05
4.55902e-05
4.48013e-05
4.3959e-05
4.30968e-05
4.22296e-05
4.13735e-05
4.05703e-05
3.98108e-05
3.90965e-05
3.8426e-05
3.77791e-05
3.71487e-05
3.6519e-05
3.5885e-05
3.52197e-05
3.45004e-05
3.37148e-05
3.28537e-05
3.1874e-05
3.07739e-05
2.95226e-05
2.80947e-05
2.65062e-05
2.47693e-05
2.29321e-05
2.10152e-05
1.90412e-05
1.70343e-05
1.50138e-05
1.30035e-05
1.10315e-05
9.11494e-06
7.29104e-06
5.60174e-06
4.23446e-06
3.60266e-06
4.24212e-06
5.98127e-06
4.20587e-05
4.27956e-05
4.36067e-05
4.44527e-05
4.53228e-05
4.62293e-05
4.71413e-05
4.8037e-05
4.89151e-05
4.97641e-05
5.05741e-05
5.13325e-05
5.20387e-05
5.26827e-05
5.32578e-05
5.37597e-05
5.41669e-05
5.44688e-05
5.46607e-05
5.47218e-05
5.46454e-05
5.44037e-05
5.39815e-05
5.33823e-05
5.2598e-05
5.15904e-05
5.03404e-05
4.88698e-05
4.72051e-05
4.53801e-05
4.34494e-05
4.14506e-05
3.94146e-05
3.73892e-05
3.53604e-05
3.33414e-05
3.12816e-05
2.86767e-05
2.62485e-05
4.13459e-05
4.06477e-05
3.99334e-05
3.91867e-05
3.84165e-05
3.76463e-05
3.6886e-05
3.61708e-05
3.55022e-05
3.48738e-05
3.42831e-05
3.37154e-05
3.31645e-05
3.26233e-05
3.20757e-05
3.14971e-05
3.08815e-05
3.0219e-05
2.94754e-05
2.86465e-05
2.77073e-05
2.66261e-05
2.54004e-05
2.40182e-05
2.2503e-05
2.08853e-05
1.9185e-05
1.74262e-05
1.56157e-05
1.37767e-05
1.19337e-05
1.01014e-05
8.3036e-06
6.555e-06
4.90321e-06
3.5031e-06
2.83672e-06
3.52662e-06
5.17826e-06
3.75339e-05
3.81953e-05
3.89271e-05
3.96933e-05
4.04782e-05
4.13016e-05
4.21334e-05
4.29529e-05
4.37602e-05
4.45426e-05
4.52885e-05
4.59971e-05
4.6665e-05
4.72827e-05
4.78421e-05
4.83367e-05
4.8763e-05
4.91014e-05
4.93442e-05
4.94804e-05
4.95044e-05
4.93903e-05
4.91109e-05
4.86881e-05
4.80956e-05
4.73174e-05
4.63218e-05
4.5126e-05
4.37436e-05
4.22034e-05
4.05452e-05
3.87912e-05
3.69812e-05
3.51407e-05
3.32629e-05
3.13514e-05
2.93562e-05
2.68634e-05
2.4406e-05
3.68898e-05
3.6271e-05
3.56266e-05
3.49566e-05
3.4277e-05
3.35868e-05
3.29135e-05
3.22759e-05
3.16834e-05
3.11287e-05
3.06011e-05
3.01059e-05
2.96248e-05
2.91512e-05
2.86738e-05
2.81715e-05
2.76462e-05
2.70769e-05
2.64403e-05
2.57328e-05
2.49218e-05
2.39967e-05
2.29397e-05
2.17387e-05
2.04139e-05
1.89886e-05
1.7486e-05
1.59163e-05
1.42898e-05
1.26222e-05
1.09328e-05
9.23531e-06
7.55142e-06
5.88844e-06
4.27678e-06
2.84865e-06
2.12433e-06
2.89539e-06
4.49319e-06
3.35209e-05
3.41143e-05
3.4772e-05
3.54611e-05
3.6177e-05
3.69255e-05
3.76784e-05
3.84276e-05
3.91652e-05
3.98805e-05
4.05723e-05
4.1231e-05
4.18546e-05
4.24405e-05
4.29775e-05
4.34612e-05
4.38876e-05
4.42476e-05
4.45275e-05
4.47138e-05
4.48104e-05
4.47918e-05
4.46331e-05
4.43446e-05
4.39152e-05
4.33158e-05
4.25337e-05
4.15711e-05
4.04302e-05
3.91425e-05
3.77211e-05
3.61959e-05
3.45909e-05
3.29267e-05
3.11981e-05
2.93985e-05
2.74806e-05
2.51094e-05
2.26801e-05
3.29401e-05
3.23836e-05
3.1812e-05
3.12071e-05
3.05996e-05
2.9989e-05
2.93875e-05
2.88213e-05
2.82934e-05
2.77972e-05
2.73316e-05
2.68943e-05
2.64723e-05
2.60578e-05
2.56358e-05
2.52047e-05
2.47494e-05
2.42519e-05
2.37119e-05
2.31021e-05
2.24064e-05
2.16123e-05
2.06953e-05
1.96494e-05
1.84935e-05
1.72417e-05
1.59148e-05
1.45173e-05
1.30572e-05
1.15491e-05
1.00062e-05
8.4424e-06
6.86751e-06
5.29138e-06
3.73088e-06
2.2737e-06
1.46875e-06
2.36025e-06
3.91714e-06
2.99526e-05
3.04844e-05
3.10773e-05
3.17048e-05
3.23525e-05
3.30279e-05
3.37106e-05
3.43901e-05
3.50661e-05
3.57243e-05
3.63561e-05
3.69661e-05
3.75476e-05
3.80955e-05
3.86082e-05
3.9077e-05
3.9495e-05
3.986e-05
4.016e-05
4.03852e-05
4.05294e-05
4.05823e-05
4.05179e-05
4.0336e-05
4.00363e-05
3.95887e-05
3.89758e-05
3.82081e-05
3.72798e-05
3.62037e-05
3.49933e-05
3.36736e-05
3.22576e-05
3.07594e-05
2.91755e-05
2.74872e-05
2.56645e-05
2.34235e-05
2.10628e-05
2.94349e-05
2.89347e-05
2.84243e-05
2.78845e-05
2.73399e-05
2.67922e-05
2.62577e-05
2.57558e-05
2.52825e-05
2.48395e-05
2.44299e-05
2.40384e-05
2.36645e-05
2.32961e-05
2.29282e-05
2.25541e-05
2.21542e-05
2.17266e-05
2.12596e-05
2.07338e-05
2.0136e-05
1.94498e-05
1.86584e-05
1.77506e-05
1.67386e-05
1.56423e-05
1.44677e-05
1.32226e-05
1.19202e-05
1.05607e-05
9.15463e-06
7.71819e-06
6.25781e-06
4.77647e-06
3.27893e-06
1.80832e-06
8.73009e-07
1.93652e-06
3.43983e-06
2.67779e-05
2.72576e-05
2.77957e-05
2.83592e-05
2.89417e-05
2.95523e-05
3.01745e-05
3.07925e-05
3.14065e-05
3.20091e-05
3.25895e-05
3.31497e-05
3.36889e-05
3.42005e-05
3.46832e-05
3.51305e-05
3.55371e-05
3.5898e-05
3.62085e-05
3.64567e-05
3.66373e-05
3.67369e-05
3.67432e-05
3.6645e-05
3.64408e-05
3.61189e-05