/*--------------------------------*- C++ -*----------------------------------*\
| =========                 |                                                 |
| \\      /  F ield         | OpenFOAM: The Open Source CFD Toolbox           |
|  \\    /   O peration     | Version:  2506                                  |
|   \\  /    A nd           | Website:  www.openfoam.com                      |
|    \\/     M anipulation  |                                                 |
\*---------------------------------------------------------------------------*/
FoamFile
{
    version     2.0;
    format      ascii;
    arch        "LSB;label=32;scalar=64";
    class       volScalarField;
    location    "150";
    object      div(phi);
}
// * * * * * * * * * * * * * * * * * * * * * * * * * * * * * * * * * * * * * //

dimensions      [0 0 -1 0 0 0 0];

internalField   nonuniform List<scalar> 
1340
(
0.00016417
0.000113007
-0.000177938
0.000278943
0.000194789
4.59452e-05
4.07655e-05
0.000554459
4.90378e-05
5.37675e-05
-0.000149821
3.21989e-05
0.000153709
2.97587e-05
4.28628e-05
0.000389789
2.22376e-05
5.58169e-05
-0.00015681
3.61285e-06
0.000148263
4.02368e-05
3.79546e-05
0.000299031
-9.96253e-06
5.67144e-05
-0.000171136
2.41954e-05
0.000129713
5.75294e-05
2.7999e-05
0.000229896
-3.81987e-05
5.67724e-05
-0.000182075
3.33137e-05
0.000105153
6.76093e-05
2.02703e-05
0.000164411
-5.55641e-05
4.52499e-05
-0.000173218
4.05065e-05
8.27619e-05
7.13632e-05
1.39238e-05
0.000108547
-6.44303e-05
3.48309e-05
-0.000157898
3.82933e-05
6.49162e-05
7.01946e-05
1.01407e-05
6.91417e-05
-6.49139e-05
2.62052e-05
-0.000141407
3.15564e-05
4.81778e-05
6.4821e-05
8.2922e-06
4.49867e-05
-5.99668e-05
1.63521e-05
-0.000122364
2.76784e-05
3.06036e-05
5.1459e-05
8.21935e-06
3.02907e-05
-5.32755e-05
1.4087e-05
-0.000106694
1.60876e-05
1.7361e-05
3.30241e-05
6.05682e-06
2.47338e-05
-4.71211e-05
4.77045e-06
-8.74306e-05
1.08512e-05
7.99585e-06
1.75243e-05
1.86575e-06
2.4077e-05
-3.29428e-05
-3.33551e-07
-7.53366e-05
9.82459e-06
4.46842e-06
8.79719e-06
-2.93962e-06
2.48455e-05
-2.65015e-05
-5.13171e-06
-5.97595e-05
6.50117e-06
5.35804e-06
7.01307e-06
-5.02797e-06
2.46383e-05
-1.48113e-05
-9.32696e-06
-4.68377e-05
6.7292e-06
6.76737e-06
9.4537e-06
-3.66004e-06
2.20226e-05
-7.68628e-06
-9.06084e-06
-3.57939e-05
5.81216e-06
1.5323e-05
1.03568e-05
1.25716e-06
1.64518e-05
-1.11869e-05
-1.01708e-05
-2.36857e-05
1.5268e-06
1.62375e-05
1.05026e-05
5.19623e-06
1.19902e-05
-8.53974e-06
-9.64655e-06
-1.49835e-05
-1.33123e-06
-3.20758e-05
1.1864e-05
8.80929e-06
7.61374e-06
8.20494e-06
2.65081e-05
-5.41298e-06
-7.57419e-06
-1.00143e-05
-2.16953e-06
-1.51131e-05
8.83117e-06
7.27882e-06
7.71817e-06
5.79932e-06
2.25834e-05
-3.66948e-06
-5.93822e-06
-5.9338e-06
-3.32247e-06
-1.52846e-05
5.79081e-06
5.51774e-06
6.29354e-06
4.27294e-06
2.08264e-05
-2.7921e-06
-3.84153e-06
-4.29182e-06
-2.88306e-06
-1.48624e-05
3.51012e-06
3.69068e-06
4.42002e-06
3.14454e-06
1.84482e-05
-1.85917e-06
-2.47699e-06
-3.17037e-06
-2.32257e-06
-7.47111e-06
2.35738e-06
2.1429e-06
2.78147e-06
2.23347e-06
6.8909e-06
-2.12272e-06
-1.56992e-06
-2.30906e-06
-1.69558e-06
-5.71175e-06
1.03064e-06
8.86593e-07
1.73243e-06
1.40316e-06
3.68133e-06
-1.19206e-06
-7.57727e-07
-1.44183e-06
-1.19588e-06
-5.69411e-06
-4.59844e-06
8.05042e-07
4.75294e-07
9.31214e-07
1.06308e-06
1.64608e-06
4.27567e-06
-3.49271e-07
-1.51062e-07
-6.78874e-07
-8.98633e-07
-6.95898e-07
-2.90129e-06
8.21436e-07
2.85458e-07
5.20088e-07
7.23803e-07
1.4482e-06
3.42497e-06
8.27542e-08
2.24277e-07
-3.58149e-07
-5.26623e-07
5.33589e-07
-1.79692e-06
6.91293e-07
5.01469e-08
2.73138e-07
3.93536e-07
-4.86324e-07
2.24867e-06
7.56658e-08
3.12087e-07
-8.34979e-08
-4.43063e-07
3.14838e-08
-1.23495e-06
4.60444e-07
5.34587e-08
4.81031e-08
2.28995e-07
-9.99952e-07
1.08264e-06
1.16092e-07
3.01972e-07
1.22905e-07
-2.28282e-07
1.67768e-07
-6.03889e-07
-2.84327e-07
-1.22788e-07
-1.10684e-07
3.2849e-07
-9.8319e-07
-8.33318e-07
-7.71893e-07
-1.37732e-07
-1.4832e-07
4.95679e-07
1.32852e-07
-5.31742e-07
-6.93158e-07
-1.57703e-07
-6.00553e-07
-1.30013e-07
-4.49004e-08
7.6653e-07
6.57008e-07
5.22982e-08
-6.05076e-07
-1.14906e-07
-1.52926e-07
5.4145e-07
3.26686e-07
-2.66341e-07
-1.04193e-07
2.04774e-07
-2.8503e-07
-2.05334e-07
-4.5491e-07
7.20051e-07
8.4742e-07
3.04667e-07
-2.79932e-07
-1.93778e-07
-9.47186e-07
4.45111e-07
-3.55394e-07
6.37562e-08
-7.76716e-08
3.55425e-07
-8.13653e-07
3.44423e-07
-7.77129e-07
1.01835e-06
6.64405e-08
6.11551e-07
-1.35799e-07
4.74407e-07
-4.07907e-07
6.98391e-07
2.33119e-07
1.40122e-07
3.59198e-07
3.34128e-07
5.09668e-07
-1.98683e-07
7.21199e-07
1.33568e-07
6.54279e-07
3.79983e-07
3.5966e-07
3.76889e-07
1.15736e-08
5.63942e-07
-1.71678e-07
8.25265e-07
-3.15205e-07
2.7648e-08
2.40465e-07
2.12028e-07
2.59003e-07
9.94314e-08
3.40108e-07
1.53048e-07
4.45929e-07
5.72394e-07
1.16901e-07
1.3879e-07
1.1572e-07
1.43923e-07
1.54975e-07
1.22559e-07
2.60689e-07
-6.34881e-07
1.55541e-08
-7.81093e-08
2.99308e-08
-8.41948e-08
3.58579e-07
1.0322e-08
1.4156e-07
1.72868e-07
-1.0109e-07
-8.53748e-08
-9.77311e-08
5.35431e-07
9.31403e-08
1.09861e-07
3.91499e-07
-4.14561e-07
2.59901e-08
-5.15529e-08
6.90133e-07
-1.78814e-07
6.44163e-07
-9.61025e-08
-1.32388e-07
-1.69068e-07
1.58558e-07
4.41818e-08
3.74591e-07
-1.5337e-07
4.82456e-07
-3.10433e-07
2.73638e-08
-3.76076e-07
1.91837e-07
1.45098e-07
1.99929e-07
3.38722e-08
2.33312e-07
-1.66306e-07
-5.06806e-09
-1.71763e-07
1.96624e-07
3.68092e-07
2.38483e-07
2.00859e-07
2.00663e-07
1.04877e-07
9.65986e-08
4.47925e-08
1.54728e-07
5.81048e-08
3.23281e-07
2.15001e-07
2.3441e-07
2.32235e-07
1.87467e-07
1.86452e-07
1.72789e-07
1.64673e-07
1.73126e-07
3.87214e-07
2.40759e-07
2.24087e-07
2.28793e-07
1.91212e-07
2.04856e-07
1.59959e-07
1.71254e-07
1.40549e-07
1.83325e-07
2.56593e-07
2.56561e-07
2.12261e-07
1.76116e-07
1.60568e-07
1.64584e-07
5.16273e-08
1.56566e-07
3.95275e-07
2.06879e-07
2.63653e-07
1.59643e-07
1.6901e-07
1.04676e-07
1.21288e-07
9.42056e-09
1.37561e-07
5.69749e-07
8.51999e-08
2.12589e-07
8.9065e-08
5.63183e-08
1.40964e-07
4.26177e-08
6.09446e-08
2.038e-07
9.16901e-08
1.77742e-07
3.91069e-07
-1.10968e-08
6.04481e-07
-1.98827e-08
8.07671e-07
8.17005e-08
1.26662e-07
1.38423e-06
1.0306e-06
1.12954e-06
1.03809e-06
1.30861e-06
1.14154e-06
1.57699e-06
1.20991e-06
1.13656e-06
7.60863e-07
3.50039e-06
2.61249e-06
2.55807e-06
2.58072e-06
2.81645e-06
2.66709e-06
2.92131e-06
2.66913e-06
1.91591e-06
1.71951e-06
4.47669e-06
2.49261e-06
2.52201e-06
2.38694e-06
2.40363e-06
2.62229e-06
2.69913e-06
1.7856e-06
2.04912e-06
2.34633e-07
0.00183058
-8.07487e-05
0.000272966
0.000101745
0.000184221
8.89752e-05
0.000136549
4.2768e-05
0.000121152
-3.289e-06
9.77488e-05
-2.99897e-05
7.80633e-05
-3.3325e-05
6.35903e-05
-2.61342e-05
5.40926e-05
-1.63888e-05
4.73816e-05
-1.04813e-05
3.51143e-05
-6.29351e-06
1.84644e-05
-4.11458e-06
8.047e-06
-2.12181e-06
-1.60173e-06
1.36638e-07
-6.16647e-06
3.77793e-06
-4.44219e-06
4.69795e-06
-3.15869e-06
4.98109e-06
-3.12516e-06
4.15283e-06
-1.83498e-06
3.05322e-06
-1.54788e-06
2.15459e-06
-1.03668e-06
1.38614e-06
-6.00877e-07
9.43397e-07
-2.7454e-07
3.44951e-07
7.11778e-08
9.12561e-08
-9.07018e-08
4.24005e-08
-2.58291e-07
1.0123e-07
-9.90947e-07
1.53659e-07
-6.1011e-07
6.1586e-07
4.3053e-07
7.36687e-07
1.1909e-06
-7.84056e-07
6.67828e-07
1.9263e-07
1.40627e-06
1.48367e-07
1.45932e-07
-2.00333e-08
-6.12518e-07
-3.90318e-08
3.16883e-07
-2.25427e-07
3.42372e-07
1.66144e-07
1.53481e-07
-6.48608e-08
-1.59531e-07
-5.67658e-07
2.54634e-07
-2.43646e-07
2.89489e-06
5.04264e-06
0.000492779
-0.000349725
0.000155171
-0.000259476
0.000167559
-0.000200801
0.000162069
-0.00016553
0.00016943
-0.000148918
0.000160779
-0.000132341
0.000145321
-0.000108162
0.000108462
-8.38296e-05
8.75388e-05
-6.00508e-05
5.60275e-05
-3.5648e-05
4.24378e-05
-1.42031e-05
3.09205e-05
1.55449e-07
2.0011e-05
7.47795e-06
1.32569e-05
8.53661e-06
7.46512e-06
5.37493e-06
9.62201e-07
3.67271e-06
-1.95294e-06
2.40549e-06
-1.96083e-06
2.21873e-06
-2.15571e-06
2.22131e-06
-1.28206e-06
1.91573e-06
-7.10535e-07
1.38744e-06
-2.7463e-07
6.52799e-07
4.2542e-08
4.02558e-07
4.05484e-08
8.189e-08
1.56826e-07
-1.61328e-07
1.21424e-08
-5.02498e-07
-1.23257e-07
-1.0241e-06
3.66338e-08
-6.85854e-07
3.55796e-07
4.11774e-08
-4.65386e-07
1.44657e-06
5.7981e-08
6.62188e-07
-5.11406e-07
6.29905e-07
3.29822e-07
1.56815e-07
5.25636e-07
-1.64223e-07
-4.32431e-07
4.44481e-07
8.42151e-08
2.53571e-07
2.75757e-07
2.37472e-07
2.40295e-07
4.77342e-07
-8.97991e-07
1.49261e-06
9.10904e-07
0.000395807
-0.000345987
0.000104179
-0.000290446
0.00010169
-0.000252514
8.62859e-05
-0.000220854
8.08472e-05
-0.000208013
7.75795e-05
-0.000189906
8.19691e-05
-0.000152325
7.44802e-05
-0.000115326
6.86174e-05
-8.20253e-05
5.60063e-05
-5.63337e-05
4.64389e-05
-3.8185e-05
2.63775e-05
-2.6533e-05
1.49125e-05
-1.88278e-05
3.26602e-06
-1.32924e-05
-3.74702e-06
-6.81788e-06
-3.39483e-06
-2.59457e-06
-2.29215e-06
2.46746e-07
-2.07717e-06
1.38118e-06
-1.01042e-06
1.60309e-06
-9.06586e-07
1.46099e-06
-6.44948e-07
1.13974e-06
-3.93787e-07
9.53523e-07
-1.1979e-07
3.99141e-07
1.93186e-07
1.07634e-07
1.05383e-07
-5.13672e-08
1.51963e-07
-6.54659e-08
-5.03607e-07
-6.92185e-08
-1.06258e-06
-1.21283e-07
-9.20077e-07
-2.77698e-08
7.84219e-07
-7.63139e-07
5.27322e-07
-1.13133e-08
1.1236e-06
7.14933e-08
7.96967e-08
-4.25636e-08
-6.04075e-07
-1.60202e-07
3.57258e-07
-3.29855e-08
3.1007e-07
6.57461e-08
1.32928e-07
1.89168e-07
-1.71756e-07
-7.2808e-07
1.08906e-06
-1.50034e-06
-0.000338653
-0.000538408
-9.5553e-05
-0.000368792
1.88972e-05
-0.000274819
7.00598e-05
-0.000208872
9.04541e-05
-0.000173805
0.000105024
-0.000151171
0.000104129
-0.000124787
9.87974e-05
-9.67167e-05
8.01064e-05
-7.36237e-05
6.95034e-05
-5.20928e-05
5.05495e-05
-3.32733e-05
4.15816e-05
-1.68238e-05
3.08605e-05
-5.57192e-06
2.1599e-05
9.27174e-07
1.61732e-05
1.94143e-06
8.36728e-06
1.44508e-06
3.0018e-06
6.14463e-07
7.82605e-07
5.99698e-07
-8.22657e-07
9.78861e-07
-8.14036e-07
1.2631e-06
-6.1461e-07
1.24941e-06
-2.94199e-07
7.37336e-07
-7.6871e-08
5.51279e-07
-5.03884e-08
2.16907e-07
1.52883e-07
3.06482e-08
1.34241e-07
-2.47258e-08
1.56118e-07
-3.94355e-07
-1.54114e-07
-9.06161e-07
-1.25803e-07
-7.16012e-07
-8.99225e-07
9.57859e-07
7.34883e-08
6.05817e-07
-4.48433e-07
3.37572e-07
-1.8613e-08
4.26155e-09
2.64269e-07
-1.44334e-07
-2.19259e-07
1.99913e-07
5.67723e-08
2.41208e-07
6.06332e-08
-1.32738e-07
3.45623e-07
9.90261e-07
-1.76213e-06
0.000677404
-5.78326e-05
0.000134905
-5.52216e-05
9.56097e-05
-6.80728e-05
6.66043e-05
-7.46947e-05
5.03822e-05
-7.72954e-05
4.33772e-05
-8.22096e-05
4.27584e-05
-8.1339e-05
4.38298e-05
-7.20569e-05
4.21042e-05
-6.03934e-05
4.12611e-05
-4.75536e-05
3.58937e-05
-3.51437e-05
3.30148e-05
-2.42783e-05
2.28639e-05
-1.64445e-05
1.6486e-05
-1.07789e-05
7.38646e-06
-6.25973e-06
3.49652e-06
-3.07952e-06
1.83074e-06
-7.20101e-07
4.8072e-07
4.57097e-07
4.21305e-07
9.17114e-07
-1.13083e-07
9.9444e-07
-3.34794e-07
8.69049e-07
-4.26877e-07
9.25392e-07
-2.55867e-07
5.15599e-07
3.22517e-08
2.60847e-07
1.8889e-08
4.60244e-08
1.81251e-07
6.07862e-08
1.34156e-07
7.41244e-08
-2.72628e-07
-3.7826e-08
-1.10222e-06
-3.38299e-07
5.01688e-07
-5.64217e-07
2.55994e-07
-3.02022e-07
7.30131e-07
-1.48403e-07
6.83419e-08
1.72339e-07
-4.55236e-07
-1.67152e-07
-1.11909e-07
-1.21468e-08
1.45302e-07
-1.52748e-07
4.3083e-08
3.76795e-07
-4.56613e-07
-1.4639e-06
0.00021091
-8.74402e-05
4.92399e-05
-6.62906e-05
4.50864e-05
-6.27963e-05
4.44111e-05
-6.07242e-05
4.14313e-05
-5.8116e-05
4.03792e-05
-5.77045e-05
4.10651e-05
-5.67392e-05
4.03604e-05
-5.20228e-05
3.96869e-05
-4.4668e-05
3.48245e-05
-3.70472e-05
3.29066e-05
-2.76385e-05
2.63676e-05
-1.80683e-05
2.34858e-05
-8.77105e-06
1.84725e-05
-2.31533e-06
1.51721e-05
4.65596e-07
1.00792e-05
9.97644e-07
5.31374e-06
3.86649e-07
2.45864e-06
1.41405e-07
2.35945e-07
3.6579e-07
-3.54438e-07
7.59889e-07
-4.83718e-07
1.0184e-06
-2.74063e-07
6.99964e-07
-1.6667e-07
6.03464e-07
-1.71905e-07
3.13152e-07
2.76835e-08
1.41795e-07
4.28824e-08
1.8427e-08
2.59296e-07
1.09306e-07
2.3241e-07
-3.31538e-07
1.73313e-07
-4.5777e-07
-8.81343e-07
1.75998e-07
-3.317e-07
3.9732e-07
-5.00641e-07
2.61858e-08
-3.39085e-08
-4.18089e-07
1.47932e-07
-2.96638e-07
-1.56631e-07
-9.52257e-08
-7.65905e-08
3.38793e-07
-1.63146e-07
-6.19921e-07
6.47326e-05
-0.000143294
2.47629e-05
-0.000104272
3.30808e-05
-8.56837e-05
3.56497e-05
-7.18729e-05
3.46037e-05
-5.93857e-05
3.28956e-05
-5.04784e-05
3.21536e-05
-4.63028e-05
3.17043e-05
-4.24998e-05
3.12958e-05
-3.67361e-05
2.78185e-05
-3.04908e-05
2.59733e-05
-2.35459e-05
2.12069e-05
-1.65318e-05
1.86462e-05
-1.03554e-05
1.31052e-05
-6.0024e-06
7.95853e-06
-2.67722e-06
4.50005e-06
-1.00218e-06
2.41485e-06
1.02572e-07
9.2786e-07
6.47989e-07
7.18735e-07
8.74477e-07
2.03072e-07
8.72635e-07
-9.47515e-08
7.08403e-07
-3.82415e-07
8.38262e-07
-3.05341e-07
5.62825e-07
-6.70409e-08
3.65385e-07
-7.37857e-08
1.07101e-07
9.21942e-08
9.92351e-08
1.68248e-07
2.26362e-07
2.00644e-07
3.50539e-07
-6.59419e-07
-5.51187e-07
-2.81638e-07
-9.24824e-07
-3.37083e-07
-8.24521e-07
6.17365e-08
-2.08996e-07
-4.02946e-07
1.73403e-07
-4.7342e-07
-1.71057e-07
-1.9146e-07
-3.82729e-08
2.29754e-07
-4.54741e-07
-0.00161909
-0.00075198
-0.000378116
-0.00040553
-0.000146125
-0.000238661
-5.10309e-05
-0.000152364
-6.1043e-06
-9.97843e-05
1.57851e-05
-6.58164e-05
2.48965e-05
-4.7527e-05
2.99346e-05
-3.63659e-05
2.93378e-05
-2.75541e-05
2.72644e-05
-1.98219e-05
2.19286e-05
-1.423e-05
1.86137e-05
-9.20093e-06
1.37285e-05
-4.93076e-06
1.0713e-05
-1.19579e-06
8.58747e-06
5.34833e-07
5.34737e-06
1.03968e-06
2.5671e-06
6.5831e-07
9.63028e-07
3.52753e-07
-4.67515e-07
3.81067e-07
-7.23484e-07
6.33916e-07
-7.0782e-07
9.20438e-07
-3.50509e-07
6.91859e-07
-2.1592e-07
6.26898e-07
-2.2629e-07
3.85157e-07
-5.22575e-08
2.72257e-07
7.51846e-09
1.40928e-07
2.37999e-07
8.74304e-08
3.4707e-07
-6.67907e-08
-2.09363e-07
-4.96985e-07
-1.2606e-06
-6.0616e-07
-1.16258e-06
-5.424e-08
-5.09323e-07
-2.17506e-07
6.5143e-08
-6.31089e-07
4.06189e-07
-1.22737e-07
-6.90011e-08
0.00196866
0.000746348
0.000501148
0.000444588
0.000219235
0.000273442
9.33273e-05
0.000182074
4.13056e-05
0.000121418
1.46676e-05
7.44665e-05
3.4822e-06
4.30219e-05
-2.85528e-06
2.41139e-05
-4.83995e-06
1.27044e-05
-5.85627e-06
5.08059e-06
-4.29861e-06
4.62216e-07
-2.27476e-06
-2.09146e-06
-7.30747e-07
-2.65212e-06
3.16141e-07
-2.27119e-06
-1.43819e-06
-1.00545e-06
-1.64444e-06
1.83449e-07
-1.42058e-06
1.07741e-06
-1.39093e-06
1.46826e-06
-5.2603e-07
1.46586e-06
-3.8135e-07
1.19187e-06
-3.21356e-07
7.90939e-07
-5.11694e-07
8.02091e-07
-4.00787e-07
5.9197e-07
-1.52287e-07
4.68204e-07
-1.22074e-07
2.57693e-07
4.62696e-08
2.14727e-07
6.01406e-08
2.57955e-07
5.27675e-07
-2.4641e-07
1.55387e-07
-1.10962e-06
-2.18892e-07
-1.30007e-06
7.15995e-08
-7.8116e-07
4.25745e-07
-5.48649e-08
-4.5272e-07
4.82812e-07
0.000147873
0.000266134
-5.73554e-05
0.000247729
-9.17973e-05
0.00019981
-7.57321e-05
0.000147514
-6.31634e-05
0.000100623
-4.24432e-05
6.49748e-05
-3.05905e-05
3.91659e-05
-1.92743e-05
2.43881e-05
-1.37463e-05
1.57013e-05
-9.61864e-06
9.49351e-06
-7.32296e-06
4.91063e-06
-6.25538e-06
2.07721e-06
-5.16792e-06
1.02891e-06
-4.92672e-06
1.16837e-06
-3.44117e-06
1.29573e-06
-3.17111e-06
1.28233e-06
-3.60603e-06
8.49135e-07
-3.07842e-06
5.14262e-07
-3.1071e-06
3.89397e-07
-2.41365e-06
5.14589e-07
-1.71671e-06
8.3494e-07
-8.45695e-07
7.21235e-07
-4.22419e-07
6.52919e-07
-3.3793e-07
3.94189e-07
-1.24328e-07
2.90098e-07
-2.34834e-08
1.03683e-07
2.75361e-07
6.36235e-07
-2.46393e-07
8.3122e-07
-9.98314e-07
8.09531e-07
-9.96337e-07
7.2026e-07
-1.03549e-06
6.8011e-07
-3.31062e-06
2.09208e-05
-3.17112e-05
3.63875e-05
-3.20637e-05
3.81965e-05
-2.55618e-05
3.13155e-05
-2.0607e-05
1.97219e-05
-1.47766e-05
9.57208e-06
-1.2206e-05
3.74695e-06
-1.05037e-05
1.7514e-06
-9.67247e-06
9.84039e-07
-8.88017e-06
-1.85771e-08
-7.951e-06
-8.01878e-07
-7.19572e-06
-1.30721e-06
-6.55514e-06
-1.41726e-06
-5.80301e-06
-1.527e-06
-7.51901e-06
-1.20867e-06
-7.62338e-06
-4.68279e-07
-6.7267e-06
3.95829e-07
-5.64969e-06
9.78584e-07
-3.46441e-06
1.20084e-06
-2.14361e-06
1.16225e-06
-1.17272e-06
8.00793e-07
-8.72435e-07
6.75661e-07
-6.70644e-07
4.12673e-07
-4.61674e-07
3.75471e-07
-3.74105e-07
2.29834e-07
-1.73175e-07
3.74496e-07
2.52909e-07
4.43413e-08
7.67801e-07
-7.99892e-07
1.32942e-06
-0.000664124
-0.000270954
-0.000112001
-0.000147189
-2.82576e-05
-9.17821e-05
6.96479e-06
-6.09989e-05
1.80268e-05
-3.95741e-05
2.24015e-05
-2.37349e-05
2.07898e-05
-1.3006e-05
1.96442e-05
-5.76842e-06
1.67085e-05
-1.67653e-06
1.43962e-05
6.36103e-07
1.1115e-05
1.85494e-06
8.45422e-06
2.52371e-06
6.6224e-06
2.36898e-06
5.25067e-06
1.73704e-06
3.84571e-06
7.93662e-07
1.18016e-06
-4.07662e-08
-1.66632e-06
-7.40715e-07
-3.20216e-06
-9.32661e-07
-4.12385e-06
-7.25252e-07
-3.31436e-06
-1.41249e-07
-2.3798e-06
3.57798e-07
-1.38176e-06
4.0456e-07
-7.97469e-07
2.9529e-07
-5.57417e-07
1.39399e-07
-4.48901e-07
2.76847e-07
0.000614927
0.00021619
0.000124081
0.000110441
4.26201e-05
5.62142e-05
1.12959e-05
2.66895e-05
-1.81845e-06
1.152e-05
-7.80108e-06
5.07713e-06
-9.7359e-06
1.68964e-06
-9.53075e-06
-1.68005e-06
-8.21179e-06
-4.81461e-06
-6.70613e-06
-6.5065e-06
-5.22819e-06
-5.54004e-06
-2.99487e-06
-3.21188e-06
-9.31946e-07
-1.30152e-06
8.56533e-07
-2.53007e-08
1.55906e-06
1.10459e-06
1.86011e-06
2.06168e-06
1.41659e-06
2.93044e-06
1.08968e-06
3.46932e-06
2.74811e-07
4.31841e-06
)
;

boundaryField
{
    inlet
    {
        type            extrapolatedCalculated;
        value           nonuniform List<scalar> 
11
(
4.47669e-06
2.49261e-06
2.52201e-06
2.38694e-06
2.40363e-06
2.62229e-06
2.69913e-06
1.7856e-06
2.04912e-06
2.34633e-07
5.04264e-06
)
;
    }
    outlet
    {
        type            extrapolatedCalculated;
        value           nonuniform List<scalar> 0();
    }
    walls
    {
        type            extrapolatedCalculated;
        value           nonuniform List<scalar> 4(0.00016417 0.000113007 -0.000177938 0.000278943);
    }
    frontAndBack
    {
        type            empty;
    }
    procBoundary6to2
    {
        type            processor;
        value           nonuniform List<scalar> 
13
(
-0.00131231
-0.000869355
-0.000719131
-0.0012362
4.02867e-05
-0.0002651
-0.000343109
-0.00198658
0.00181087
0.000236665
-9.18917e-05
-0.000746779
0.000598726
)
;
    }
    procBoundary6to3
    {
        type            processor;
        value           uniform -0.000117568;
    }
    procBoundary6to5
    {
        type            processor;
        value           nonuniform List<scalar> 
86
(
0.000205498
0.000159752
9.52888e-05
0.000138719
8.26864e-05
0.000157009
6.15572e-05
0.000159217
3.26709e-05
0.000149689
1.27153e-05
0.000136679
-9.69075e-06
0.000114732
-1.08109e-05
8.09997e-05
-2.18534e-05
4.48088e-05
-2.36875e-05
1.50245e-05
-2.06228e-05
-1.13489e-07
-1.97825e-05
-3.82369e-07
-1.21636e-05
1.19536e-05
-9.00167e-06
2.56963e-05
8.82891e-06
1.56779e-06
1.9091e-05
-2.52184e-05
3.79657e-05
3.79657e-05
2.26784e-05
-1.06651e-05
1.9082e-05
-1.07848e-05
1.73934e-05
-1.12795e-05
1.71722e-05
-5.57893e-06
8.85443e-06
-1.30717e-06
-2.56045e-06
2.92847e-06
2.92847e-06
5.51433e-06
-3.76551e-06
3.73942e-06
-2.34627e-06
2.2374e-06
-1.44254e-06
-9.86323e-08
-9.90601e-07
9.07984e-07
9.07984e-07
1.22617e-06
3.20625e-07
-5.94656e-07
1.07095e-06
-4.80728e-07
3.3059e-07
3.52913e-07
3.52913e-07
2.78307e-07
5.74671e-08
6.96613e-07
-5.35908e-07
5.1405e-07
-5.57266e-07
-1.66869e-08
-1.66869e-08
-3.65147e-08
2.57879e-07
1.12422e-07
2.67499e-07
1.12047e-07
4.42149e-07
1.72557e-07
-1.35642e-07
7.00562e-07
7.00562e-07
1.15898e-06
2.59875e-06
2.81862e-06
)
;
    }
    procBoundary6to7
    {
        type            processor;
        value           nonuniform List<scalar> 
91
(
4.526e-06
4.526e-06
5.58587e-06
5.58587e-06
1.95294e-06
1.95294e-06
1.27298e-06
2.80018e-07
1.27298e-06
1.17651e-06
3.4628e-09
2.80018e-07
4.32415e-07
-1.40641e-07
-1.44596e-07
3.4628e-09
4.50428e-07
-5.49945e-07
-1.51788e-07
-1.40641e-07
-1.26891e-07
-8.13015e-07
-3.71646e-08
1.61406e-07
-5.49945e-07
-4.78418e-07
-1.32887e-06
9.70344e-07
-1.38917e-06
5.38784e-07
-8.13015e-07
-6.66989e-07
-3.20671e-07
-2.36044e-07
3.49536e-07
4.4915e-07
-1.31408e-07
5.68295e-07
-1.32887e-06
-1.81221e-07
1.37526e-06
2.26174e-06
4.77388e-07
1.47233e-06
1.83348e-07
9.62846e-07
-2.51416e-07
5.50494e-07
-1.16641e-07
3.94471e-07
-1.86408e-07
-3.20671e-07
3.8305e-07
-0.000179597
2.03246e-05
-4.2904e-05
1.90427e-05
-2.24015e-05
1.56826e-05
-9.98883e-06
9.87434e-06
2.13137e-06
5.80366e-06
8.09705e-06
3.83872e-06
1.39934e-05
3.06025e-06
1.79322e-05
2.09283e-06
2.04725e-05
1.53763e-06
2.21678e-05
2.19769e-06
2.04042e-05
2.95224e-06
1.73567e-05
3.10307e-06
1.17077e-05
2.88579e-06
8.09023e-06
2.93655e-06
4.26571e-06
3.44534e-06
2.25468e-06
4.17476e-06
2.86678e-06
4.19958e-06
1.91406e-06
3.76713e-06
1.37526e-06
1.80448e-06
)
;
    }
}


// ************************************************************************* //
