/*--------------------------------*- C++ -*----------------------------------*\
| =========                 |                                                 |
| \\      /  F ield         | OpenFOAM: The Open Source CFD Toolbox           |
|  \\    /   O peration     | Version:  2506                                  |
|   \\  /    A nd           | Website:  www.openfoam.com                      |
|    \\/     M anipulation  |                                                 |
\*---------------------------------------------------------------------------*/
FoamFile
{
    version     2.0;
    format      ascii;
    arch        "LSB;label=32;scalar=64";
    class       volScalarField;
    location    "150";
    object      p;
}
// * * * * * * * * * * * * * * * * * * * * * * * * * * * * * * * * * * * * * //

dimensions      [0 2 -2 0 0 0 0];

internalField   nonuniform List<scalar> 
1340
(
-89.0437
-51.2087
-7.40431
29.4436
-88.6303
-50.8945
-7.09618
29.1131
-88.1886
-50.5706
-6.87209
29.1753
-87.6693
-50.2642
-6.79231
29.2622
-87.0189
-49.9473
-6.83658
29.1592
-86.3379
-49.6609
-7.03561
28.8324
-85.6573
-49.445
-7.41367
28.2528
-84.9493
-49.261
-7.92541
27.3935
-84.2171
-49.0714
-8.49889
26.2884
-83.4634
-48.8682
-9.11873
25.0166
-82.6922
-48.6642
-9.80265
23.6196
-81.907
-48.478
-10.5599
22.1037
-81.1075
-48.3186
-11.3894
20.4777
-80.292
-48.1859
-12.2889
18.7518
-79.4608
-48.0764
-13.2554
16.9331
-78.6136
-47.9891
-14.2812
15.0279
-77.7508
-47.9228
-15.3591
13.0446
-76.8703
-47.8767
-16.4804
10.9952
-75.9721
-47.8487
-17.6373
8.89118
-75.0539
-47.8355
-18.821
6.74521
-74.1145
-47.8331
-20.0222
4.57076
-73.1514
-47.8366
-21.2303
2.38202
-72.1627
-47.8407
-22.4363
0.192144
-71.1459
-47.8388
-23.6287
-1.98405
-70.0979
-47.8247
-24.7972
-4.13266
-69.0168
-47.7901
-25.9302
-6.23867
-67.8992
-47.7283
-27.0188
-8.2879
-66.7431
-47.6323
-28.0511
-10.2676
-65.5459
-47.493
-29.0185
-12.1654
-64.3054
-47.3046
-29.9104
-13.9693
-63.0207
-47.0601
-30.7194
-15.6693
-61.6909
-46.7533
-31.4371
-17.2561
-60.3152
-46.3798
-32.0573
-18.7213
-70.9699
-58.8947
-45.9345
-32.5736
-20.0583
-68.5831
-57.4305
-45.4157
-32.9828
-21.2619
-66.1913
-55.9243
-44.8214
-33.2811
-22.3283
-63.799
-54.3795
-44.1509
-33.4673
-23.2552
-61.414
-52.7994
-43.4053
-33.5405
-24.0415
-59.0414
-51.1883
-42.5868
-33.5024
-24.6881
-56.6887
-49.5509
-41.6985
-33.3551
-25.1965
-54.3607
-47.8928
-40.7449
-33.1025
-25.5701
-52.0644
-46.2195
-39.731
-32.7492
-25.8134
-49.8045
-44.5369
-38.6629
-32.3014
-25.9319
-47.5867
-42.851
-37.547
-31.7656
-25.9317
-45.4153
-41.168
-36.3905
-31.1494
-25.8203
-46.5862
-43.2948
-39.4937
-35.2002
-30.4605
-25.6055
-44.1614
-41.2285
-37.8337
-33.9837
-29.7073
-25.2959
-41.829
-39.2197
-36.1932
-32.7478
-28.8981
-24.8999
-39.5886
-37.2705
-34.5771
-31.4996
-28.0412
-24.4266
-37.4398
-35.3831
-32.9896
-30.2456
-27.145
-23.8849
-35.3813
-33.5586
-31.4346
-28.9918
-26.2173
-23.2836
-33.4118
-31.7981
-29.9154
-27.744
-25.2655
-22.6314
-31.5291
-30.1015
-28.4347
-26.507
-24.2967
-21.9364
-29.731
-28.4691
-26.9947
-25.2855
-23.3172
-21.2064
-28.959
-28.0148
-26.9002
-25.597
-24.0832
-22.3329
-20.4488
-27.2122
-26.3778
-25.3937
-24.2429
-22.9035
-21.3492
-19.6702
-25.554
-24.8169
-23.9487
-22.9331
-21.7492
-20.3705
-18.8768
-23.9801
-23.3292
-22.5636
-21.668
-20.6224
-19.401
-18.0742
-22.486
-21.9115
-21.2368
-20.4476
-19.5249
-18.4439
-17.2672
-21.0675
-20.5607
-19.9663
-19.2713
-18.4578
-17.5023
-16.46
-19.7202
-19.2734
-18.7501
-18.1385
-17.422
-16.5781
-15.6563
-18.7738
-18.4399
-18.0466
-17.586
-17.0482
-16.4177
-15.6735
-14.8594
-17.517
-17.2227
-16.8766
-16.4718
-15.9995
-15.4454
-14.7899
-14.072
-16.3232
-16.0642
-15.7601
-15.4049
-14.9908
-14.5045
-13.928
-13.296
-15.1885
-14.9611
-14.6946
-14.3836
-14.0211
-13.5951
-13.089
-12.5339
-14.108
-13.909
-13.6761
-13.4044
-13.088
-12.7158
-12.2726
-11.7858
-13.0793
-12.9059
-12.7032
-12.4667
-12.1912
-11.867
-11.4799
-11.0548
-12.2499
-12.0941
-11.912
-11.6997
-11.4526
-11.1617
-10.8142
-10.4327
-11.6826
-11.5598
-11.4163
-11.248
-11.0521
-10.8246
-10.557
-10.2372
-9.88626
-10.9693
-10.8564
-10.7256
-10.5718
-10.3925
-10.1847
-9.94029
-9.648
-9.32938
-10.2378
-10.1337
-10.0149
-9.87487
-9.71165
-9.52271
-9.30086
-9.03472
-8.74291
-9.50629
-9.41363
-9.30865
-9.18407
-9.03778
-8.86797
-8.66862
-8.43033
-8.17603
-8.73087
-8.64549
-8.55073
-8.43865
-8.30746
-8.15577
-7.97716
-7.75967
-7.5143
-8.02861
-7.96003
-7.88325
-7.78937
-7.67649
-7.54436
-7.39001
-7.20943
-7.0337
-7.12084
-7.05294
-6.9812
-6.89651
-6.79709
-6.68192
-6.54267
-6.36122
-6.12722
-6.64899
-6.61282
-6.57019
-6.51091
-6.43402
-6.3422
-6.24045
-6.13924
-6.09783
-5.21319
-5.1591
-5.10777
-5.05016
-4.98363
-4.90443
-4.79432
-4.61546
-4.30615
-5.71195
-5.73835
-5.74307
-5.74052
-5.72509
-5.69416
-5.65449
-5.63157
-5.67197
-5.90106
-2.45412
-2.39155
-2.33864
-2.30132
-2.26747
-2.23089
-2.18357
-2.08404
-1.85704
-1.33417
-6.36633
-6.25731
-6.27701
-6.39253
-6.47769
-6.51784
-6.55471
-6.65672
-6.92207
-7.54256
107.824
106.808
105.515
103.879
101.639
98.6001
94.5857
89.5486
83.7418
77.6444
71.659
65.9399
60.4764
55.226
50.1691
45.3069
40.6459
36.1886
31.9336
27.8763
24.0101
20.3291
16.8272
13.4988
10.3386
7.34097
4.50019
1.81098
-0.729669
-3.12404
-5.3733
-7.47726
-9.4361
-11.2487
-12.9141
-14.4316
-15.8008
-17.0218
-18.0954
-19.023
-19.807
-20.4506
-20.9582
-21.3345
-21.5858
-21.7186
-21.7401
-21.6582
-21.4811
-21.2172
-20.8753
-20.4638
-19.9913
-19.4659
-18.8956
-18.2878
-17.6496
-16.9872
-16.3066
-15.6132
-14.9115
-14.2057
-13.4994
-12.7957
-12.0978
-11.4064
-10.7264
-10.1427
-9.62217
-9.0941
-8.52672
-7.99615
-7.33141
-6.92323
-5.94542
-6.09651
-4.06777
-6.07941
-1.00115
-7.99385
46.2088
45.7874
45.4108
45.0783
44.7683
44.5186
44.3301
44.1261
43.7774
43.1839
42.3304
41.2273
39.8731
38.2793
36.4729
34.4838
32.3415
30.0726
27.7033
25.258
22.7604
20.2326
17.6947
15.1644
12.6582
10.1911
7.77808
5.43195
3.16384
0.982366
-1.1053
-3.0928
-4.97549
-6.74866
-8.40838
-9.95139
-11.3748
-12.6763
-13.8543
-14.9075
-15.8356
-16.6392
-17.3198
-17.8791
-18.3206
-18.6483
-18.8669
-18.9817
-18.9989
-18.9252
-18.7675
-18.5331
-18.2294
-17.8639
-17.4439
-16.9766
-16.4687
-15.9268
-15.357
-14.7648
-14.1554
-13.5334
-12.9031
-12.2678
-11.6315
-10.9956
-10.3648
-9.81999
-9.33185
-8.83682
-8.29817
-7.79917
-7.15751
-6.78
-5.82352
-5.99163
-4.01563
-5.96827
-1.08967
26.973
26.6527
26.3087
25.9622
25.5756
25.1317
24.6352
24.0922
23.5074
22.8859
22.2478
21.6176
20.9975
20.3738
19.7277
19.0399
18.2962
17.4846
16.5959
15.6229
14.5626
13.4148
12.1825
10.8716
9.49064
8.04937
6.55894
5.03102
3.4789
1.91588
0.355314
-1.18943
-2.70618
-4.18319
-5.60965
-6.97586
-8.27315
-9.49373
-10.631
-11.6791
-12.6337
-13.4911
-14.2489
-14.9055
-15.4607
-15.9152
-16.2706
-16.5295
-16.6953
-16.7722
-16.7652
-16.6796
-16.5213
-16.2963
-16.011
-15.6716
-15.2846
-14.856
-14.3916
-13.8971
-13.3776
-12.8381
-12.2831
-11.7165
-11.1424
-10.5629
-9.98262
-9.47797
-9.02352
-8.56208
-8.05446
-7.58591
-6.97459
-6.61771
-5.70582
-5.85511
-3.99294
-5.79997
25.9591
25.7671
25.5591
25.3437
25.1066
24.8259
24.4823
24.0568
23.5316
22.8932
22.1473
21.3259
20.4635
19.5743
18.663
17.731
16.7812
15.816
14.8364
13.8417
12.8308
11.8014
10.7515
9.67819
8.57995
7.4552
6.30388
5.12652
3.92575
2.70504
1.46958
0.225893
-1.01871
-2.25601
-3.47711
-4.67305
-5.8348
-6.95355
-8.02101
-9.02935
-9.97175
-10.8422
-11.6356
-12.3477
-12.9756
-13.5173
-13.9718
-14.3393
-14.6208
-14.8184
-14.9348
-14.9735
-14.9388
-14.8352
-14.668
-14.4424
-14.164
-13.8383
-13.4708
-13.0667
-12.6313
-12.1694
-11.6859
-11.1845
-10.67
-10.1446
-9.61326
-9.14752
-8.72474
-8.29446
-7.81601
-7.3762
-6.79326
-6.45793
-5.58333
-5.72774
-3.94655
22.2769
22.0773
21.8735
21.6791
21.4881
21.2935
21.0861
20.856
20.5938
20.2866
19.9192
19.4836
18.9861
18.4343
17.8299
17.1729
16.4633
15.702
14.8922
14.0376
13.142
12.2089
11.2419
10.2446
9.22084
8.17407
7.1079
6.02535
4.9299
3.82453
2.71253
1.59761
0.483637
-0.624997
-1.72324
-2.80564
-3.86629
-4.89893
-5.89706
-6.85412
-7.76384
-8.62015
-9.41749
-10.1507
-10.8157
-11.4089
-11.9277
-12.3704
-12.7363
-13.0253
-13.2386
-13.378
-13.4458
-13.4454
-13.3806
-13.2554
-13.0744
-12.8424
-12.5642
-12.2448
-11.8888
-11.5011
-11.0863
-10.6485
-10.1923
-9.72042
-9.23763
-8.81048
-8.4192
-8.01997
-7.57079
-7.16002
-6.60495
-6.29351
-5.45132
-5.60243
17.7148
17.5359
17.3494
17.17
16.9911
16.8107
16.627
16.4335
16.2237
15.9922
15.7325
15.437
15.1034
14.7361
14.3385
13.9112
13.4538
12.9645
12.4412
11.8818
11.2847
10.6483
9.97185
9.25556
8.50076
7.70908
6.88317
6.02583
5.14075
4.23166
3.30283
2.35884
1.40436
0.444221
-0.516431
-1.47246
-2.41853
-3.34917
-4.25878
-5.14168
-5.99224
-6.80488
-7.57421
-8.29501
-8.96269
-9.57296
-10.1222
-10.6076
-11.027
-11.3788
-11.6627
-11.8788
-12.028
-12.1122
-12.1335
-12.0951
-12.0001
-11.8524
-11.6561
-11.4153
-11.1344
-10.8176
-10.4695
-10.0939
-9.6953
-9.27683
-8.84289
-8.45488
-8.09596
-7.72878
-7.31028
-6.92958
-6.40399
-6.11741
14.6456
14.4978
14.3398
14.1845
14.0272
13.867
13.7054
13.54
13.3652
13.1747
12.9634
12.7249
12.454
12.1501
11.8182
11.462
11.0837
10.6852
10.2666
9.82585
9.36156
8.87238
8.35768
7.81672
7.2491
6.65412
6.03152
5.38116
4.70367
3.99998
3.27178
2.52139
1.75164
0.96591
0.168155
-0.637325
-1.44584
-2.25245
-3.05192
-3.83888
-4.60794
-5.35365
-6.07067
-6.75371
-7.39793
-7.99862
-8.55157
-9.05305
-9.49991
-9.88965
-10.2205
-10.4913
-10.7017
-10.8521
-10.9434
-10.9774
-10.9561
-10.8823
-10.759
-10.5897
-10.3781
-10.1278
-9.84294
-9.52714
-9.18466
-8.8186
-8.43315
-8.08429
-7.75805
-7.42333
-7.0363
-6.68622
12.5379
12.415
12.282
12.1488
12.0136
11.8765
11.7394
11.6016
11.4602
11.3103
11.1472
10.9662
10.762
10.5297
10.2692
9.98423
9.6779
9.35094
9.00385
8.63599
8.24671
7.83597
7.40427
6.95169
6.47815
5.98324
5.46677
4.92866
4.36922
3.78882
3.1882
2.56839
1.93068
1.27676
0.608754
-0.0707953
-0.758882
-1.45206
-2.14645
-2.83781
-3.52168
-4.19332
-4.84796
-5.48061
-6.08655
-6.66108
-7.19975
-7.69842
-8.15341
-8.56149
-8.92
-9.22683
-9.48059
-9.68043
-9.82625
-9.91856
-9.9584
-9.94742
-9.88772
-9.78181
-9.63265
-9.4433
-9.2173
-8.95783
-8.66879
-8.35327
-8.01495
-7.70461
-7.41069
10.8611
10.7536
10.6383
10.523
10.4043
10.2803
10.1519
10.0208
9.88739
9.75114
9.60954
9.46023
9.30043
9.12563
8.92965
8.70997
8.46857
8.20809
7.92971
7.63444
7.32217
6.99216
6.64381
6.27665
5.88988
5.48275
5.05497
4.6066
4.13809
3.64998
3.14299
2.61807
2.07622
1.51873
0.947133
0.363248
-0.230843
-0.832647
-1.4394
-2.04793
-2.65486
-3.25647
-3.84883
-4.42777
-4.98911
-5.52854
-6.04189
-6.52505
-6.97418
-7.38575
-7.75662
-8.08405
-8.36591
-8.60053
-8.7869
-8.92455
-9.01355
-9.05461
-9.04885
-8.998
-8.90413
-8.76969
-8.59748
-8.39031
-8.15155
-7.88404
9.47312
9.38509
9.2908
9.19356
9.08778
8.97042
8.84185
8.70553
8.56572
8.42707
8.2914
8.15736
8.02076
7.87815
7.72576
7.55858
7.37219
7.16592
6.9412
6.70013
6.4456
6.1786
5.89726
5.59952
5.28427
4.95111
4.59989
4.23067
3.84359
3.43881
3.01654
2.57722
2.12134
1.64972
1.16341
0.663781
0.152425
-0.368699
-0.89744
-1.43129
-1.96757
-2.50327
-3.03522
-3.55992
-4.07384
-4.57324
-5.05433
-5.51331
-5.9465
-6.35033
-6.72155
-7.05707
-7.35433
-7.6111
-7.8257
-7.99688
-8.124
-8.20681
-8.24578
-8.24164
-8.19587
-8.10998
8.39326
8.32066
8.24337
8.16291
8.07245
7.96696
7.84549
7.71015
7.5659
7.41942
7.27773
7.14545
7.02244
6.90305
6.77967
6.64609
6.49791
6.33249
6.14986
5.95115
5.73692
5.50908
5.26941
5.01689
4.74974
4.46747
4.17053
3.85928
3.5337
3.19353
2.83857
2.46877
2.08419
1.68518
1.27231
0.846421
0.408523
-0.0400447
-0.497747
-0.962727
-1.43295
-1.90604
-2.37944
-2.85028
-3.3156
-3.77217
-4.21668
-4.64573
-5.0559
-5.44379
-5.80617
-6.13992
-6.44222
-6.71055
-6.94273
-7.13708
-7.2922
7.37415
7.31042
7.24226
7.17208
7.09571
7.00972
6.91281
6.80443
6.68572
6.55898
6.42853
6.29939
6.17689
6.06344
5.95713
5.85136
5.73822
5.61081
5.46576
5.30372
5.12687
4.93514
4.72888
4.51039
4.28106
4.04033
3.78782
3.52354
3.2474
2.95883
2.65737
2.34278
2.0151
1.67451
1.32143
0.956391
0.580057
0.193289
-0.202883
-0.607174
-1.01812
-1.43397
-1.85275
-2.2722
-2.68992
-3.10325
-3.50938
-3.90532
-4.28803
-4.65439
6.43537
6.37571
6.31083
6.24405
6.17364
6.09858
6.01858
5.93315
5.84169
5.74392
5.64014
5.53159
5.42057
5.31043
5.20441
5.10385
5.00654
4.90703
4.79832
4.67461
4.53429
4.37932
4.21079
4.02809
3.8337
3.6308
3.4196
3.19867
2.96688
2.72362
2.46853
2.20146
1.92247
1.63178
1.32972
1.01662
0.692939
0.359201
)
;

boundaryField
{
    inlet
    {
        type            freestreamPressure;
        freestreamValue uniform 0;
        value           nonuniform List<scalar> 
11
(
-2.98374
-2.74385
-2.7539
-2.80595
-2.84465
-2.86353
-2.88096
-2.92709
-3.04532
-3.18839
-3.51936
)
;
    }
    outlet
    {
        type            freestreamPressure;
        freestreamValue nonuniform List<scalar> 0();
        value           nonuniform List<scalar> 0();
    }
    walls
    {
        type            zeroGradient;
    }
    frontAndBack
    {
        type            empty;
    }
    procBoundary6to2
    {
        type            processor;
        value           nonuniform List<scalar> 
13
(
107.405
46.434
27.1532
26.0969
22.4221
17.8379
14.7513
12.6314
10.9451
9.54416
8.45166
7.42569
6.48371
)
;
    }
    procBoundary6to3
    {
        type            processor;
        value           uniform 5.61431;
    }
    procBoundary6to5
    {
        type            processor;
        value           nonuniform List<scalar> 
86
(
-125.513
-124.982
-124.392
-123.573
-122.525
-121.425
-120.305
-119.146
-117.942
-116.68
-115.364
-113.995
-112.574
-111.099
-109.57
-107.987
-106.35
-104.658
-102.912
-101.111
-99.256
-97.3479
-95.3875
-93.3758
-91.3148
-89.205
-87.0507
-84.8526
-82.6151
-80.3414
-78.0351
-75.7012
-73.344
-73.344
-81.8431
-78.5904
-75.3692
-72.1897
-69.0592
-65.9869
-62.9788
-60.0422
-57.1817
-54.4027
-51.7085
-49.1022
-49.1022
-49.3719
-46.6418
-44.0342
-41.5472
-39.1772
-36.9214
-34.7757
-32.7363
-30.7989
-30.7989
-29.747
-27.9103
-26.1723
-24.5274
-22.9703
-21.4957
-20.0986
-20.0986
-19.0526
-17.7634
-16.5406
-15.3799
-14.2758
-13.2259
-12.382
-12.382
-11.7862
-11.0664
-10.3289
-9.58864
-8.80883
-8.09093
-7.18687
-6.67974
-5.27272
-5.27272
-5.62608
-2.4879
-5.97983
)
;
    }
    procBoundary6to7
    {
        type            processor;
        value           nonuniform List<scalar> 
91
(
-7.83391
-7.83391
-1.22927
-1.22927
-5.6692
-5.6692
-3.87983
-5.30915
-3.87983
-5.46737
-6.19144
-5.30915
-5.92963
-7.10806
-6.75259
-6.19144
-6.43288
-7.59111
-7.31812
-7.10806
-7.05577
-7.98631
-7.82695
-7.63484
-7.59111
-7.41254
-7.4074
-7.48216
-7.51677
-7.51168
-7.98631
-7.46801
-5.00136
-5.32589
-5.62514
-5.89643
-6.13739
-6.34589
-7.4074
-6.52026
0.0161333
-0.335383
-0.694218
-1.05908
-1.42844
-1.80056
-2.17352
-2.54519
-2.9132
-3.27507
-3.62814
-5.00136
-3.96967
5.56122
5.50367
5.44399
5.38084
5.31355
5.2427
5.16859
5.09107
5.00986
4.92477
4.83579
4.7431
4.64753
4.55058
4.4545
4.36119
4.27094
4.18115
4.08642
3.98024
3.85911
3.72371
3.57651
3.41831
3.24991
3.0732
2.88871
2.69484
2.49015
2.27429
2.04756
1.81023
1.56253
1.30462
1.03664
0.758778
0.0161333
0.471331
)
;
    }
}


// ************************************************************************* //
