/*--------------------------------*- C++ -*----------------------------------*\
| =========                 |                                                 |
| \\      /  F ield         | OpenFOAM: The Open Source CFD Toolbox           |
|  \\    /   O peration     | Version:  2506                                  |
|   \\  /    A nd           | Website:  www.openfoam.com                      |
|    \\/     M anipulation  |                                                 |
\*---------------------------------------------------------------------------*/
FoamFile
{
    version     2.0;
    format      ascii;
    arch        "LSB;label=32;scalar=64";
    class       volScalarField;
    location    "150";
    object      turbulenceProperties:epsilon;
}
// * * * * * * * * * * * * * * * * * * * * * * * * * * * * * * * * * * * * * //

dimensions      [0 2 -3 0 0 0 0];

internalField   nonuniform List<scalar> 
1340
(
392.624
280.684
180.289
34.6711
23.3496
19.3804
16.5696
19.7289
25.5875
19.3977
14.1113
17.6283
21.8112
19.5452
15.4351
17.3601
6.57125
11.5126
13.4356
16.4449
0.125781
1.93947
6.73357
13.0256
0.0182441
0.0201311
1.15481
6.99976
0.00255224
0.00167225
0.0387543
2.03037
0
0.000195348
0.0038562
0.283434
0
0
0.00104017
0.034363
5.51299e-10
0
0.000103497
0.00891231
2.70205e-07
1.83177e-13
2.69087e-05
0.00287226
4.19319e-06
1.55536e-12
2.45883e-07
0.000712348
4.46732e-06
1.37484e-06
1.0062e-11
1.73859e-05
3.01079e-06
4.69577e-06
1.31443e-10
4.37449e-08
2.34954e-06
4.84398e-06
2.00227e-08
2.60074e-15
2.25679e-06
3.40997e-06
1.2448e-06
3.75253e-10
2.27917e-06
2.42831e-06
2.82584e-06
1.14662e-07
2.22329e-06
2.02258e-06
2.7729e-06
1.01643e-06
2.08741e-06
1.86992e-06
2.21867e-06
1.86291e-06
1.92201e-06
1.76816e-06
1.79825e-06
1.9658e-06
1.75889e-06
1.64882e-06
1.54489e-06
1.72938e-06
1.60611e-06
1.51065e-06
1.37535e-06
1.46096e-06
1.46235e-06
1.36765e-06
1.23527e-06
1.23954e-06
1.32596e-06
1.22959e-06
1.10525e-06
1.061e-06
1.19602e-06
1.1e-06
9.82499e-07
9.12077e-07
1.07292e-06
9.79756e-07
8.68533e-07
7.84824e-07
9.57192e-07
8.68513e-07
7.64304e-07
6.75268e-07
8.49026e-07
7.65946e-07
6.69575e-07
5.80532e-07
7.48906e-07
6.7216e-07
5.84204e-07
4.98694e-07
6.56953e-07
5.86943e-07
5.07503e-07
4.27944e-07
5.72999e-07
5.10081e-07
4.39181e-07
3.66735e-07
4.97038e-07
4.4107e-07
3.78539e-07
3.13883e-07
4.74939e-07
4.28783e-07
3.79618e-07
3.24966e-07
2.68196e-07
4.07428e-07
3.67892e-07
3.25231e-07
2.77966e-07
2.28744e-07
3.47545e-07
3.14039e-07
2.77371e-07
2.3691e-07
1.9473e-07
2.94854e-07
2.66698e-07
2.35515e-07
2.01212e-07
1.65436e-07
2.48847e-07
2.25388e-07
1.99127e-07
1.70306e-07
1.40246e-07
2.08945e-07
1.8958e-07
1.67681e-07
1.43681e-07
1.18622e-07
1.74602e-07
1.58751e-07
1.4065e-07
1.20842e-07
1.00106e-07
1.45259e-07
1.3238e-07
1.17551e-07
1.01338e-07
8.43e-08
1.20349e-07
1.09955e-07
9.79015e-08
8.4741e-08
7.08324e-08
9.93219e-08
9.0988e-08
8.12604e-08
7.06556e-08
5.93757e-08
8.16696e-08
7.50362e-08
6.72358e-08
5.87488e-08
4.96427e-08
6.69329e-08
6.16863e-08
5.54745e-08
4.8723e-08
4.14079e-08
5.81767e-08
5.46989e-08
5.05653e-08
4.5649e-08
4.03107e-08
3.44632e-08
4.73071e-08
4.45872e-08
4.13465e-08
3.74731e-08
3.3275e-08
2.86205e-08
3.8381e-08
3.62636e-08
3.37329e-08
3.06934e-08
2.74071e-08
2.37151e-08
3.10758e-08
2.94334e-08
2.74648e-08
2.50894e-08
2.25265e-08
1.96078e-08
2.51188e-08
2.38475e-08
2.23214e-08
2.04724e-08
1.84802e-08
1.61804e-08
2.02813e-08
1.92968e-08
1.81149e-08
1.6679e-08
1.51352e-08
1.33285e-08
1.63615e-08
1.55996e-08
1.46853e-08
1.35718e-08
1.23773e-08
1.09607e-08
1.31909e-08
1.26018e-08
1.18949e-08
1.10321e-08
1.01087e-08
8.99962e-09
1.06301e-08
1.01743e-08
9.62878e-09
8.96087e-09
8.24703e-09
7.37968e-09
8.84807e-09
8.56443e-09
8.21133e-09
7.79036e-09
7.2739e-09
6.72234e-09
6.045e-09
7.1197e-09
6.89842e-09
6.62557e-09
6.30051e-09
5.90147e-09
5.47555e-09
4.94737e-09
5.73005e-09
5.55777e-09
5.34603e-09
5.09458e-09
4.78612e-09
4.45711e-09
4.04578e-09
4.61544e-09
4.4803e-09
4.31533e-09
4.12023e-09
3.88121e-09
3.62656e-09
3.3063e-09
3.7214e-09
3.61494e-09
3.48597e-09
3.3341e-09
3.14835e-09
2.95049e-09
2.70078e-09
3.00303e-09
2.91921e-09
2.81833e-09
2.69981e-09
2.55503e-09
2.40082e-09
2.20592e-09
2.42501e-09
2.35863e-09
2.27985e-09
2.18742e-09
2.0746e-09
1.95416e-09
1.80199e-09
2.00057e-09
1.95763e-09
1.90533e-09
1.84401e-09
1.77209e-09
1.68438e-09
1.59044e-09
1.47193e-09
1.61308e-09
1.57886e-09
1.53823e-09
1.49034e-09
1.43442e-09
1.36652e-09
1.2935e-09
1.20159e-09
1.30043e-09
1.27318e-09
1.24103e-09
1.20345e-09
1.15992e-09
1.10734e-09
1.05058e-09
9.79396e-10
1.04991e-09
1.02778e-09
1.00194e-09
9.72167e-10
9.3797e-10
8.9699e-10
8.527e-10
7.97608e-10
8.48688e-10
8.30173e-10
8.08955e-10
7.84883e-10
7.57516e-10
7.25093e-10
6.9012e-10
6.46958e-10
6.94364e-10
6.79028e-10
6.61641e-10
6.41959e-10
6.19712e-10
5.93483e-10
5.65164e-10
5.30169e-10
5.82394e-10
5.69433e-10
5.5518e-10
5.39061e-10
5.20766e-10
4.99114e-10
4.75603e-10
4.47731e-10
5.02243e-10
4.92716e-10
4.80793e-10
4.68141e-10
4.5429e-10
4.38791e-10
4.20723e-10
4.00772e-10
3.77987e-10
4.28265e-10
4.19134e-10
4.08234e-10
3.96505e-10
3.83933e-10
3.7016e-10
3.54533e-10
3.37637e-10
3.19711e-10
3.58589e-10
3.49976e-10
3.39859e-10
3.2904e-10
3.17638e-10
3.05321e-10
2.91429e-10
2.75851e-10
2.58277e-10
3.05852e-10
2.98611e-10
2.89972e-10
2.80549e-10
2.7048e-10
2.59635e-10
2.47786e-10
2.3574e-10
2.24558e-10
2.41113e-10
2.3407e-10
2.26202e-10
2.17959e-10
2.09421e-10
2.00227e-10
1.8965e-10
1.76732e-10
1.61146e-10
2.19457e-10
2.13849e-10
2.07161e-10
1.99785e-10
1.91995e-10
1.83974e-10
1.76221e-10
1.70319e-10
1.67512e-10
1.46622e-10
1.41428e-10
1.35841e-10
1.30006e-10
1.23904e-10
1.17034e-10
1.08295e-10
9.66733e-11
8.22621e-11
1.86677e-10
1.82991e-10
1.78307e-10
1.72695e-10
1.66838e-10
1.61548e-10
1.59203e-10
1.63285e-10
1.71665e-10
1.13804e-10
1.13167e-10
1.11406e-10
1.08413e-10
1.04404e-10
9.91141e-11
9.19548e-11
8.68871e-11
7.87271e-11
3.3009e-10
3.15257e-10
3.15379e-10
3.15293e-10
3.14345e-10
3.13333e-10
3.14283e-10
3.2615e-10
3.56206e-10
3.68651e-10
3.72672e-10
3.69566e-10
3.73784e-10
3.78465e-10
3.82265e-10
3.85546e-10
3.90369e-10
4.08135e-10
4.40319e-10
4.37518e-10
1.10135e-09
7.90238e-10
8.12406e-10
8.31815e-10
8.4404e-10
8.58227e-10
8.77005e-10
9.13279e-10
9.46391e-10
6.89901e-10
48.6878
6.64411
2.12763
11.5519
16.5451
15.9383
11.2005
4.88455
0.977095
0.0730657
0.00637231
0.00202304
0.000553793
1.2282e-06
1.50934e-09
0
3.00937e-11
2.66577e-08
6.26677e-07
1.39242e-06
1.5467e-06
1.36778e-06
1.14533e-06
9.62283e-07
8.17703e-07
6.99799e-07
6.00212e-07
5.15093e-07
4.41991e-07
3.79284e-07
3.25476e-07
2.79266e-07
2.396e-07
2.05472e-07
1.76069e-07
1.50744e-07
1.28907e-07
1.10075e-07
9.3835e-08
7.9845e-08
6.78207e-08
5.75002e-08
4.86494e-08
4.10497e-08
3.45525e-08
2.90191e-08
2.43168e-08
2.03268e-08
1.69495e-08
1.41011e-08
1.17078e-08
9.70116e-09
8.02302e-09
6.62338e-09
5.45989e-09
4.49521e-09
3.69683e-09
3.03711e-09
2.49296e-09
2.0451e-09
1.67729e-09
1.37518e-09
1.12671e-09
9.21439e-10
7.5296e-10
6.12202e-10
5.01989e-10
4.25175e-10
3.58085e-10
3.05848e-10
2.41956e-10
2.18235e-10
1.44477e-10
1.71075e-10
6.46792e-11
1.86054e-10
6.20411e-11
3.64954e-10
3.77517e-10
6.11363e-10
22.346
16.0067
2.60574
1.19956
5.91767
8.90821
8.18922
4.80563
1.40633
0.119284
0.00225792
0.000288787
0.000142902
2.25032e-06
4.5e-09
0
4.16217e-12
3.83435e-09
1.9527e-07
5.587e-07
6.83252e-07
6.39899e-07
5.60284e-07
4.89232e-07
4.30977e-07
3.81397e-07
3.37489e-07
2.98145e-07
2.62917e-07
2.31537e-07
2.03654e-07
1.78917e-07
1.57024e-07
1.37631e-07
1.20447e-07
1.0524e-07
9.17776e-08
7.98757e-08
6.93538e-08
6.00687e-08
5.19043e-08
4.47442e-08
3.84712e-08
3.29658e-08
2.8159e-08
2.39845e-08
2.037e-08
1.7247e-08
1.45561e-08
1.22477e-08
1.02777e-08
8.60168e-09
7.18002e-09
5.97839e-09
4.96693e-09
4.11875e-09
3.40952e-09
2.81789e-09
2.32551e-09
1.91685e-09
1.57866e-09
1.29898e-09
1.06773e-09
8.75698e-10
7.17414e-10
5.84686e-10
4.79799e-10
4.06147e-10
3.41092e-10
2.92505e-10
2.29813e-10
2.09359e-10
1.35749e-10
1.64905e-10
5.92906e-11
1.78718e-10
5.77156e-11
3.46125e-10
3.5675e-10
9.31693
11.6346
6.38706
0.887595
0.780967
3.79761
5.76098
5.03197
2.53065
0.52528
0.0220389
0.000172211
7.72162e-06
2.3013e-06
0
0
3.50526e-13
3.078e-10
4.40275e-08
1.91805e-07
2.76718e-07
2.76046e-07
2.50515e-07
2.2665e-07
2.07597e-07
1.91387e-07
1.76563e-07
1.62513e-07
1.49065e-07
1.36248e-07
1.24074e-07
1.12565e-07
1.01759e-07
9.16462e-08
8.22202e-08
7.34832e-08
6.5418e-08
5.80208e-08
5.12528e-08
4.50962e-08
3.95362e-08
3.45477e-08
3.00834e-08
2.60851e-08
2.25289e-08
1.93895e-08
1.66315e-08
1.42158e-08
1.21062e-08
1.02737e-08
8.69205e-09
7.33216e-09
6.16708e-09
5.1723e-09
4.32703e-09
3.61206e-09
3.0093e-09
2.50266e-09
2.07776e-09
1.72242e-09
1.42629e-09
1.17974e-09
9.74728e-10
8.03408e-10
6.6136e-10
5.41588e-10
4.46004e-10
3.78696e-10
3.18136e-10
2.74814e-10
2.15326e-10
1.98213e-10
1.27473e-10
1.56987e-10
5.65222e-11
1.70121e-10
5.69875e-11
3.31625e-10
4.0616
6.69343
6.45118
3.1808
0.377582
0.48659
2.45201
3.81277
3.29214
1.53558
0.277325
0.0103039
5.22543e-05
2.02683e-05
0
0
4.96283e-20
3.89452e-17
1.7473e-08
1.2471e-07
2.01101e-07
2.07457e-07
1.87225e-07
1.65281e-07
1.48147e-07
1.34802e-07
1.23477e-07
1.13305e-07
1.03966e-07
9.53198e-08
8.7257e-08
7.97156e-08
7.26581e-08
6.60393e-08
5.98257e-08
5.40002e-08
4.85561e-08
4.34943e-08
3.87954e-08
3.44576e-08
3.04866e-08
2.68807e-08
2.36137e-08
2.06517e-08
1.79843e-08
1.56021e-08
1.34884e-08
1.16196e-08
9.97054e-09
8.52379e-09
7.26383e-09
6.17124e-09
5.22736e-09
4.41432e-09
3.71761e-09
3.12366e-09
2.61918e-09
2.19204e-09
1.83125e-09
1.52728e-09
1.27214e-09
1.0583e-09
8.79409e-10
7.28972e-10
6.03386e-10
4.96824e-10
4.10909e-10
3.50668e-10
2.95239e-10
2.57163e-10
2.01109e-10
1.87134e-10
1.19636e-10
1.49329e-10
5.41552e-11
1.62588e-10
5.58953e-11
1.55385
3.36217
4.57254
3.97526
1.91872
0.24013
0.270571
1.52877
2.49926
2.19189
1.00718
0.181473
0.00740212
2.52568e-05
7.15095e-06
0
0
7.80319e-16
5.96369e-13
4.18539e-08
1.51424e-07
1.65083e-07
1.46628e-07
1.30174e-07
1.1658e-07
1.05246e-07
9.56876e-08
8.7216e-08
7.94981e-08
7.24491e-08
6.59957e-08
6.00699e-08
5.46176e-08
4.95954e-08
4.49557e-08
4.06583e-08
3.66782e-08
3.29982e-08
2.95903e-08
2.64409e-08
2.35506e-08
2.09167e-08
1.8518e-08
1.63275e-08
1.43355e-08
1.2539e-08
1.09309e-08
9.49606e-09
8.21647e-09
7.08154e-09
6.08306e-09
5.20908e-09
4.44665e-09
3.7833e-09
3.20935e-09
2.71551e-09
2.29243e-09
1.93133e-09
1.62386e-09
1.3627e-09
1.14178e-09
9.55264e-10
7.9823e-10
6.65327e-10
5.53621e-10
4.58275e-10
3.80554e-10
3.263e-10
2.75247e-10
2.4155e-10
1.88482e-10
1.77175e-10
1.12455e-10
1.42576e-10
5.16513e-11
1.56717e-10
0.408307
1.36432
2.56473
3.20032
2.6947
1.33896
0.201111
0.131554
0.942042
1.66438
1.52182
0.726572
0.143279
0.00733946
1.26732e-05
2.30593e-06
0
0
5.0761e-20
7.71143e-11
3.54944e-08
1.22216e-07
1.10773e-07
8.90055e-08
7.85844e-08
7.20241e-08
6.61973e-08
6.09035e-08
5.60359e-08
5.14809e-08
4.72336e-08
4.32966e-08
3.96399e-08
3.62348e-08
3.30571e-08
3.00886e-08
2.73209e-08
2.47464e-08
2.23473e-08
2.01144e-08
1.80514e-08
1.61591e-08
1.4425e-08
1.28282e-08
1.13603e-08
1.0022e-08
8.81282e-09
7.72341e-09
6.74112e-09
5.85957e-09
5.0754e-09
4.38206e-09
3.77099e-09
3.23362e-09
2.76377e-09
2.35544e-09
2.00243e-09
1.6985e-09
1.43756e-09
1.21405e-09
1.02338e-09
8.61139e-10
7.23622e-10
6.0649e-10
5.07369e-10
4.2227e-10
3.52064e-10
3.0321e-10
2.56163e-10
2.26434e-10
1.763e-10
1.67479e-10
1.05445e-10
1.36061e-10
0.0477083
0.36584
1.10481
1.95181
2.362
1.99533
1.04697
0.197063
0.0530468
0.577223
1.13134
1.10299
0.568824
0.129073
0.00880887
3.82648e-05
5.20582e-06
0
0
0
4.74946e-11
2.0411e-08
9.05683e-08
8.27383e-08
6.14508e-08
5.23191e-08
4.76838e-08
4.36527e-08
4.0038e-08
3.68579e-08
3.3935e-08
3.12077e-08
2.869e-08
2.63743e-08
2.4223e-08
2.22045e-08
2.03078e-08
1.8529e-08
1.68576e-08
1.5287e-08
1.3821e-08
1.24651e-08
1.12137e-08
1.00518e-08
8.97138e-09
7.97611e-09
7.06867e-09
6.24403e-09
5.49335e-09
4.81239e-09
4.20043e-09
3.65438e-09
3.16882e-09
2.73762e-09
2.35683e-09
2.02275e-09
1.73144e-09
1.4786e-09
1.2598e-09
1.0708e-09
9.08257e-10
7.6885e-10
6.49871e-10
5.47878e-10
4.60965e-10
3.85905e-10
3.23166e-10
2.7968e-10
2.36698e-10
2.10883e-10
1.63884e-10
1.57526e-10
0.000662608
0.0362298
0.272579
0.817675
1.45433
1.79429
1.57639
0.896686
0.215945
0.0140131
0.347828
0.787375
0.836108
0.474548
0.126935
0.011927
0.000222416
1.73057e-05
0
0
0
1.39021e-11
5.52174e-09
5.9097e-08
6.34365e-08
4.66993e-08
3.88355e-08
3.51548e-08
3.18603e-08
2.88107e-08
2.6267e-08
2.40725e-08
2.20617e-08
2.02093e-08
1.85214e-08
1.69761e-08
1.55457e-08
1.42151e-08
1.29714e-08
1.18056e-08
1.07172e-08
9.70991e-09
8.78016e-09
7.9148e-09
7.10553e-09
6.3548e-09
5.66617e-09
5.03721e-09
4.46098e-09
3.93399e-09
3.45645e-09
3.02726e-09
2.643e-09
2.29897e-09
1.99249e-09
1.72135e-09
1.48309e-09
1.2748e-09
1.09327e-09
9.35257e-10
7.98277e-10
6.79892e-10
5.78159e-10
4.90423e-10
4.15131e-10
3.49728e-10
2.94288e-10
2.56092e-10
2.17184e-10
1.74012e-05
0.000203601
0.0150108
0.131549
0.458695
0.919426
1.24685
1.20224
0.776688
0.24995
0.00385653
0.180009
0.525951
0.634483
0.405079
0.12737
0.0156764
0.000604143
2.96794e-05
1.56175e-08
0
0
3.1875e-12
1.22879e-09
3.56921e-08
4.54829e-08
3.41853e-08
2.86369e-08
2.64307e-08
2.40997e-08
2.15622e-08
1.94063e-08
1.76636e-08
1.61413e-08
1.47421e-08
1.34567e-08
1.22846e-08
1.12135e-08
1.02252e-08
9.30671e-09
8.45456e-09
7.67079e-09
6.9521e-09
6.28661e-09
5.66478e-09
5.08647e-09
4.55488e-09
4.06886e-09
3.62235e-09
3.2119e-09
2.83772e-09
2.49964e-09
2.19547e-09
1.92147e-09
1.67554e-09
1.45637e-09
1.26248e-09
1.09191e-09
9.42322e-10
8.11225e-10
6.96736e-10
5.97048e-10
5.10816e-10
4.36035e-10
3.71406e-10
3.14975e-10
0
2.22582e-06
1.86818e-07
0.00276571
0.0556425
0.257463
0.584404
0.86616
0.91915
0.682698
0.295196
0.0277064
0.0593965
0.295424
0.439445
0.327687
0.12093
0.0183664
0.000839458
8.30646e-06
1.14111e-06
0
0
2.07742e-12
9.08833e-10
3.08639e-08
3.99406e-08
2.70895e-08
2.07945e-08
1.94016e-08
1.82966e-08
1.6464e-08
1.4619e-08
1.31485e-08
1.19564e-08
1.08926e-08
9.90988e-09
9.01243e-09
8.19699e-09
7.4498e-09
6.7621e-09
6.1334e-09
5.56148e-09
5.0364e-09
4.54792e-09
4.09382e-09
3.6765e-09
3.29547e-09
2.9456e-09
2.62319e-09
2.32806e-09
2.06049e-09
1.81905e-09
1.60065e-09
1.40345e-09
1.22661e-09
1.06929e-09
9.30153e-10
8.07529e-10
6.99419e-10
6.04406e-10
5.21071e-10
3.97655e-06
4.68442e-05
6.6583e-05
0.00216582
0.0361537
0.160495
0.392914
0.67379
0.892118
0.933718
0.744962
0.398086
0.0907417
0.00816288
0.142709
0.286653
0.256273
0.111098
0.0191412
0.00063014
1.66646e-05
0
0
0
1.16477e-12
4.76559e-10
2.22351e-08
3.74371e-08
2.62468e-08
1.71156e-08
1.43821e-08
1.37106e-08
1.27009e-08
1.12913e-08
1.0013e-08
9.00451e-09
8.15837e-09
7.39327e-09
6.69431e-09
6.0607e-09
5.48645e-09
4.96702e-09
4.49885e-09
4.07354e-09
3.68102e-09
3.31729e-09
2.98356e-09
2.67976e-09
2.40169e-09
2.14551e-09
1.91055e-09
1.69716e-09
1.50442e-09
1.32972e-09
1.17137e-09
1.0287e-09
9.01215e-10
2.22375e-05
2.00314e-05
0.000467353
0.00762925
0.0388575
0.115483
0.247315
0.423164
0.609867
0.755024
0.796096
0.685445
0.436141
0.156978
0.00830347
0.0583484
0.188945
0.215449
0.114474
0.0230145
0.00035657
1.45131e-05
0
0
0
8.3334e-17
2.32985e-11
7.49058e-09
2.96093e-08
2.6017e-08
1.58926e-08
1.13793e-08
1.03113e-08
9.7642e-09
8.82512e-09
7.7765e-09
6.90254e-09
6.20107e-09
5.59191e-09
5.03878e-09
4.53823e-09
4.0912e-09
3.69393e-09
3.33781e-09
3.01284e-09
2.71373e-09
2.44039e-09
2.19277e-09
1.96744e-09
1.7606e-09
1.48365e-05
5.6716e-06
0.000774576
0.00753519
0.0291049
0.0735215
0.144497
0.239469
0.349084
0.456941
0.5393
0.566108
0.509065
0.361881
0.168519
0.0256967
0.0169517
0.112936
0.176103
0.123587
0.0353121
0.00175469
0.000100678
0
0
0
0
3.92772e-13
6.06846e-11
1.06483e-08
2.33125e-08
1.67573e-08
1.01197e-08
7.89573e-09
7.40536e-09
6.89234e-09
6.11842e-09
5.37494e-09
)
;

boundaryField
{
    inlet
    {
        type            calculated;
        value           nonuniform List<scalar> 
11
(
2.0969e-08
1.88281e-08
1.97302e-08
2.05831e-08
2.13524e-08
2.20469e-08
2.27072e-08
2.33814e-08
2.41995e-08
2.23434e-08
2.47506e-08
)
;
    }
    outlet
    {
        type            calculated;
        value           nonuniform List<scalar> 0();
    }
    walls
    {
        type            calculated;
        value           uniform 0;
    }
    frontAndBack
    {
        type            empty;
    }
    procBoundary6to2
    {
        type            processor;
        value           nonuniform List<scalar> 
13
(
34.2336
9.98632
3.66871
1.33249
0.342519
0.0405486
0.00077739
1.81234e-05
0
0
7.52399e-14
4.26947e-07
3.25927e-06
)
;
    }
    procBoundary6to3
    {
        type            processor;
        value           uniform 3.40352e-07;
    }
    procBoundary6to5
    {
        type            processor;
        value           nonuniform List<scalar> 
86
(
487.105
29.9146
34.6529
21.2841
2.06304
0.0250792
0.0179309
0
0
3.99268e-10
2.44659e-07
3.73977e-06
3.99002e-06
3.09813e-06
2.85766e-06
2.83465e-06
2.72919e-06
2.54802e-06
2.36093e-06
2.19245e-06
2.03672e-06
1.88561e-06
1.73628e-06
1.58925e-06
1.4462e-06
1.30853e-06
1.1771e-06
1.05272e-06
9.35933e-07
8.27068e-07
7.26436e-07
6.3425e-07
5.50471e-07
5.50471e-07
5.19478e-07
4.44814e-07
3.78701e-07
3.20642e-07
2.70013e-07
2.2619e-07
1.88556e-07
1.56485e-07
1.2933e-07
1.06463e-07
8.73126e-08
7.13702e-08
7.13702e-08
6.09987e-08
4.95009e-08
4.00826e-08
3.2392e-08
2.61375e-08
2.10702e-08
1.69735e-08
1.36646e-08
1.09959e-08
1.09959e-08
9.07303e-09
7.29498e-09
5.86782e-09
4.7245e-09
3.80809e-09
3.07204e-09
2.47935e-09
2.47935e-09
2.03584e-09
1.64116e-09
1.32321e-09
1.06873e-09
8.64612e-10
7.07329e-10
5.92615e-10
5.92615e-10
5.10894e-10
4.36469e-10
3.66603e-10
3.12805e-10
2.47943e-10
2.25796e-10
1.50932e-10
1.94118e-10
1.1063e-10
1.1063e-10
2.82399e-10
3.71761e-10
6.38193e-10
)
;
    }
    procBoundary6to7
    {
        type            processor;
        value           nonuniform List<scalar> 
91
(
6.16527e-10
6.16527e-10
3.33632e-10
3.33632e-10
3.1913e-10
3.1913e-10
5.48277e-11
4.89968e-11
5.48277e-11
1.51436e-10
9.83299e-11
4.89968e-11
1.29462e-10
1.95176e-10
1.51435e-10
9.83299e-11
1.47466e-10
2.66422e-10
2.33219e-10
1.95176e-10
1.98234e-10
4.48556e-10
3.85328e-10
3.30325e-10
2.66422e-10
2.82082e-10
7.88065e-10
6.87939e-10
5.99296e-10
5.20949e-10
4.48556e-10
4.51814e-10
1.571e-09
1.39884e-09
1.2435e-09
1.1028e-09
9.75073e-10
8.59676e-10
7.88065e-10
7.5626e-10
4.77735e-09
4.28025e-09
3.83707e-09
3.43891e-09
3.08791e-09
2.77879e-09
2.50108e-09
2.24776e-09
2.01751e-09
1.81022e-09
1.6232e-09
1.571e-09
1.45267e-09
1.93321e-05
2.18817e-05
0.00151767
0.0100976
0.0329051
0.0743821
0.134275
0.207435
0.284643
0.353756
0.400733
0.410541
0.369947
0.275401
0.1466
0.0354014
0.0035623
0.0621231
0.134077
0.126163
0.0539996
0.00855984
0.000575487
2.63014e-06
0
0
0
1.40414e-17
4.17579e-12
1.14259e-09
1.23367e-08
1.53952e-08
9.88996e-09
6.61616e-09
5.72355e-09
5.38575e-09
4.77735e-09
4.86019e-09
)
;
    }
}


// ************************************************************************* //
