/*--------------------------------*- C++ -*----------------------------------*\
| =========                 |                                                 |
| \\      /  F ield         | OpenFOAM: The Open Source CFD Toolbox           |
|  \\    /   O peration     | Version:  2506                                  |
|   \\  /    A nd           | Website:  www.openfoam.com                      |
|    \\/     M anipulation  |                                                 |
\*---------------------------------------------------------------------------*/
FoamFile
{
    version     2.0;
    format      ascii;
    arch        "LSB;label=32;scalar=64";
    class       volScalarField;
    location    "150";
    object      turbulenceProperties:I;
}
// * * * * * * * * * * * * * * * * * * * * * * * * * * * * * * * * * * * * * //

dimensions      [0 0 0 0 0 0 0];

internalField   nonuniform List<scalar> 
1340
(
0.289464
0.296242
0.307486
0.397841
0.128944
0.136304
0.14861
0.261989
0.118801
0.124708
0.131744
0.210081
0.0976338
0.10981
0.121065
0.177465
0.0587428
0.0815825
0.102482
0.149716
0.016419
0.0424808
0.0737129
0.120723
0.00595875
0.0100671
0.0393371
0.0879675
0.00260448
0.00211446
0.013041
0.0545727
0
0.000950106
0.00394901
0.0276531
0
0
0.00234066
0.0132186
3.21337e-05
0
0.00086483
0.00741939
0.000128035
5.67841e-06
0.00047273
0.00419838
0.000247204
9.08662e-06
0.000138013
0.00206775
0.000251678
0.000195362
1.44096e-05
0.000421109
0.000227263
0.000266597
2.53744e-05
9.95823e-05
0.000213503
0.000268979
7.73246e-05
2.43671e-06
0.000211452
0.000244888
0.00019832
3.37991e-05
0.000212114
0.000224177
0.000243083
0.000120009
0.000210942
0.000213864
0.000241588
0.000196976
0.000207761
0.000209534
0.000227644
0.000227105
0.000203626
0.000206479
0.000215315
0.00022919
0.000199276
0.000202762
0.00020676
0.000220931
0.000194927
0.000198232
0.00020037
0.000210812
0.000190547
0.00019323
0.000194625
0.000201418
0.000186085
0.000188034
0.000188874
0.000192914
0.000181503
0.000182764
0.000183007
0.000185007
0.000176802
0.00017746
0.000177089
0.000177505
0.000171997
0.000172118
0.000171184
0.000170338
0.000167094
0.000166738
0.00016531
0.000163461
0.000162118
0.000161342
0.000159495
0.000156864
0.000157085
0.000155944
0.000153739
0.000150526
0.000152003
0.000150562
0.00014807
0.000144427
0.000146896
0.000145201
0.000142491
0.000138563
0.000143231
0.000141776
0.000139884
0.000137007
0.000132911
0.000138209
0.00013666
0.000134624
0.000131638
0.00012746
0.000133181
0.00013157
0.00012943
0.000126387
0.000122204
0.000128165
0.000126518
0.000124314
0.00012126
0.000117131
0.000123181
0.000121519
0.000119289
0.000116262
0.000112232
0.000118241
0.000116588
0.000114365
0.000111399
0.000107502
0.000113364
0.000111739
0.000109549
0.000106674
0.000102935
0.000108568
0.000106985
0.000104853
0.000102092
9.85298e-05
0.000103866
0.000102337
0.00010028
9.76529e-05
9.42799e-05
9.92703e-05
9.78031e-05
9.58337e-05
9.33519e-05
9.01771e-05
9.47892e-05
9.33937e-05
9.15208e-05
8.91911e-05
8.62125e-05
9.04329e-05
8.91148e-05
8.7347e-05
8.51721e-05
8.23881e-05
8.71641e-05
8.62122e-05
8.49717e-05
8.33136e-05
8.12946e-05
7.87027e-05
8.30272e-05
8.21328e-05
8.09716e-05
7.9423e-05
7.75577e-05
7.51523e-05
7.90351e-05
7.81993e-05
7.71168e-05
7.56758e-05
7.3959e-05
7.17316e-05
7.51902e-05
7.44124e-05
7.34074e-05
7.20718e-05
7.04963e-05
6.84381e-05
7.14958e-05
7.07738e-05
6.98442e-05
6.86114e-05
6.71691e-05
6.52715e-05
6.79581e-05
6.72876e-05
6.64286e-05
6.5293e-05
6.39761e-05
6.22303e-05
6.4576e-05
6.39542e-05
6.31616e-05
6.21169e-05
6.09154e-05
5.9311e-05
6.13471e-05
6.07715e-05
6.00408e-05
5.90805e-05
5.79847e-05
5.65113e-05
5.82683e-05
5.77355e-05
5.70638e-05
5.61821e-05
5.51823e-05
5.38296e-05
5.57144e-05
5.53361e-05
5.48427e-05
5.42254e-05
5.34172e-05
5.25052e-05
5.12648e-05
5.28976e-05
5.25437e-05
5.20885e-05
5.15213e-05
5.07814e-05
4.99499e-05
4.88139e-05
5.02206e-05
4.98909e-05
4.94696e-05
4.89477e-05
4.82701e-05
4.75119e-05
4.64727e-05
4.76845e-05
4.73753e-05
4.69841e-05
4.65029e-05
4.58811e-05
4.51883e-05
4.42378e-05
4.52839e-05
4.49932e-05
4.46291e-05
4.41844e-05
4.36127e-05
4.29773e-05
4.21067e-05
4.30094e-05
4.27369e-05
4.23986e-05
4.1987e-05
4.14601e-05
4.08759e-05
4.00779e-05
4.0853e-05
4.05962e-05
4.02828e-05
3.99028e-05
3.94179e-05
3.888e-05
3.81486e-05
3.89911e-05
3.87985e-05
3.85583e-05
3.82692e-05
3.79194e-05
3.74745e-05
3.69802e-05
3.63119e-05
3.70183e-05
3.68358e-05
3.66145e-05
3.6347e-05
3.60253e-05
3.5619e-05
3.51664e-05
3.45583e-05
3.51409e-05
3.49683e-05
3.47604e-05
3.45117e-05
3.42154e-05
3.38441e-05
3.34294e-05
3.28766e-05
3.33681e-05
3.32017e-05
3.30036e-05
3.27701e-05
3.24948e-05
3.21532e-05
3.17719e-05
3.12695e-05
3.1692e-05
3.15267e-05
3.13337e-05
3.111e-05
3.08491e-05
3.05296e-05
3.0174e-05
2.97104e-05
3.01888e-05
3.00281e-05
2.98427e-05
2.96282e-05
2.93796e-05
2.9077e-05
2.87398e-05
2.83005e-05
2.89279e-05
2.87721e-05
2.85978e-05
2.83965e-05
2.81623e-05
2.78764e-05
2.75559e-05
2.7157e-05
2.79011e-05
2.77729e-05
2.76091e-05
2.74323e-05
2.72348e-05
2.70083e-05
2.67361e-05
2.64256e-05
2.60541e-05
2.68405e-05
2.67007e-05
2.65306e-05
2.63439e-05
2.61393e-05
2.59096e-05
2.56407e-05
2.53405e-05
2.50082e-05
2.57033e-05
2.55515e-05
2.53693e-05
2.51701e-05
2.49551e-05
2.47164e-05
2.44382e-05
2.41144e-05
2.37304e-05
2.47283e-05
2.45841e-05
2.44082e-05
2.4212e-05
2.3997e-05
2.37588e-05
2.34898e-05
2.32073e-05
2.29353e-05
2.33269e-05
2.31576e-05
2.29638e-05
2.27554e-05
2.25336e-05
2.22871e-05
2.19925e-05
2.16151e-05
2.11291e-05
2.28084e-05
2.26639e-05
2.24876e-05
2.22882e-05
2.20716e-05
2.1842e-05
2.16133e-05
2.14361e-05
2.1353e-05
2.06449e-05
2.04615e-05
2.02585e-05
2.00398e-05
1.98032e-05
1.95261e-05
1.91548e-05
1.8624e-05
1.7893e-05
2.19482e-05
2.18411e-05
2.17024e-05
2.15324e-05
2.13508e-05
2.11832e-05
2.111e-05
2.12479e-05
2.15182e-05
1.9421e-05
1.93947e-05
1.93197e-05
1.91898e-05
1.90112e-05
1.87675e-05
1.84216e-05
1.81673e-05
1.77313e-05
2.53483e-05
2.506e-05
2.50648e-05
2.50657e-05
2.505e-05
2.50333e-05
2.50559e-05
2.52924e-05
2.58559e-05
2.60753e-05
2.61891e-05
2.61342e-05
2.62079e-05
2.62888e-05
2.63537e-05
2.64096e-05
2.64922e-05
2.67908e-05
2.73136e-05
2.72848e-05
3.42489e-05
3.1525e-05
3.17453e-05
3.19324e-05
3.2049e-05
3.21839e-05
3.23591e-05
3.26867e-05
3.29664e-05
3.04404e-05
0.220301
0.180149
0.141804
0.194831
0.182452
0.153144
0.118448
0.0808249
0.0444465
0.0181436
0.00745257
0.00413623
0.00202363
0.000222724
4.86449e-05
0
1.98204e-05
8.8682e-05
0.000180236
0.000217008
0.000221473
0.000213461
0.000202947
0.000193177
0.000184464
0.000176513
0.000169047
0.000161964
0.000155215
0.000148787
0.000142664
0.000136823
0.000131252
0.000125924
0.00012082
0.000115925
0.000111223
0.000106699
0.000102339
9.8135e-05
9.40836e-05
9.0177e-05
8.64059e-05
8.27532e-05
7.92218e-05
7.58129e-05
7.25222e-05
6.93431e-05
6.62723e-05
6.33101e-05
6.04578e-05
5.77114e-05
5.50689e-05
5.2529e-05
5.0092e-05
4.77566e-05
4.55202e-05
4.33795e-05
4.13323e-05
3.93772e-05
3.75135e-05
3.57358e-05
3.4037e-05
3.24042e-05
3.08434e-05
2.93206e-05
2.79313e-05
2.68208e-05
2.5715e-05
2.4742e-05
2.33543e-05
2.2779e-05
2.05659e-05
2.14702e-05
1.68531e-05
2.19581e-05
1.67101e-05
2.60092e-05
2.6303e-05
2.95259e-05
0.133067
0.149172
0.106782
0.0897765
0.126741
0.127129
0.110022
0.0836287
0.0521612
0.0226101
0.00617215
0.0025821
0.00150224
0.000253924
5.9322e-05
0
1.23058e-05
5.57056e-05
0.000134691
0.000172496
0.000180615
0.000176848
0.000170222
0.000163753
0.000157909
0.000152474
0.000147246
0.000142162
0.000137214
0.000132417
0.000127772
0.000123277
0.000118932
0.000114726
0.000110648
0.000106694
0.000102854
9.91222e-05
9.54894e-05
9.19519e-05
8.85115e-05
8.5167e-05
8.19115e-05
7.87289e-05
7.56244e-05
7.26039e-05
6.96657e-05
6.6806e-05
6.40225e-05
6.13173e-05
5.8695e-05
5.61546e-05
5.3695e-05
5.13165e-05
4.90212e-05
4.68102e-05
4.46831e-05
4.26384e-05
4.06745e-05
3.87913e-05
3.69888e-05
3.52635e-05
3.36108e-05
3.20182e-05
3.04928e-05
2.90022e-05
2.76315e-05
2.65276e-05
2.54148e-05
2.44766e-05
2.30632e-05
2.25502e-05
2.0253e-05
2.12785e-05
1.64933e-05
2.17422e-05
1.64119e-05
2.56723e-05
2.59298e-05
0.0932504
0.11388
0.110179
0.0718996
0.0702766
0.100118
0.102523
0.0889825
0.0656354
0.0373125
0.0130628
0.00251132
0.000494893
0.00025979
0
0
6.82726e-06
3.0581e-05
9.27513e-05
0.000130959
0.000143076
0.000142555
0.000138639
0.00013473
0.000131351
0.000128274
0.000125297
0.000122325
0.000119327
0.000116308
0.000113269
0.000110217
0.000107162
0.000104107
0.000101053
9.80095e-05
9.49781e-05
9.19685e-05
8.89787e-05
8.60155e-05
8.30901e-05
8.02119e-05
7.73789e-05
7.45797e-05
7.18229e-05
6.91193e-05
6.64723e-05
6.38808e-05
6.13431e-05
5.88635e-05
5.6449e-05
5.41006e-05
5.18185e-05
4.96028e-05
4.74569e-05
4.53835e-05
4.33832e-05
4.14557e-05
3.95996e-05
3.78147e-05
3.61022e-05
3.44591e-05
3.28828e-05
3.13606e-05
2.98998e-05
2.84699e-05
2.71464e-05
2.60803e-05
2.4987e-05
2.41074e-05
2.26988e-05
2.22508e-05
1.99423e-05
2.10235e-05
1.63001e-05
2.14805e-05
1.63604e-05
2.5406e-05
0.0690729
0.0886858
0.0978752
0.0890415
0.0546778
0.0585105
0.0846382
0.0881175
0.0769581
0.0559481
0.0305753
0.0101163
0.00137403
0.000761748
0
0
2.0406e-07
8.89096e-07
7.45082e-05
0.00011741
0.000131789
0.000132507
0.000128761
0.000124419
0.000120698
0.000117542
0.000114665
0.000111913
0.000109229
0.000106593
0.000103984
0.000101394
9.8818e-05
9.62464e-05
9.36718e-05
9.10917e-05
8.85069e-05
8.59227e-05
8.33355e-05
8.07508e-05
7.81811e-05
7.56387e-05
7.31217e-05
7.06203e-05
6.81419e-05
6.56981e-05
6.32964e-05
6.09371e-05
5.86169e-05
5.63407e-05
5.41174e-05
5.19489e-05
4.98363e-05
4.77786e-05
4.57798e-05
4.3844e-05
4.19722e-05
4.01649e-05
3.84209e-05
3.67397e-05
3.51231e-05
3.35689e-05
3.20759e-05
3.06316e-05
2.92423e-05
2.78798e-05
2.66104e-05
2.55963e-05
2.45357e-05
2.37201e-05
2.23224e-05
2.19401e-05
1.96338e-05
2.07675e-05
1.61296e-05
2.12432e-05
1.62823e-05
0.0491871
0.0675855
0.0809913
0.0852741
0.0757813
0.0466685
0.0482245
0.0721942
0.0767795
0.0678734
0.0494258
0.0270292
0.00905665
0.000970345
0.000495948
0
0
1.71755e-06
7.4498e-06
9.01091e-05
0.000122699
0.00012515
0.000121141
0.000117255
0.000113754
0.000110587
0.000107707
0.000104971
0.000102309
9.97139e-05
9.71773e-05
9.46907e-05
9.22475e-05
8.98429e-05
8.74679e-05
8.51134e-05
8.2776e-05
8.04549e-05
7.8142e-05
7.58363e-05
7.35474e-05
7.12849e-05
6.90448e-05
6.68151e-05
6.45976e-05
6.24028e-05
6.02403e-05
5.811e-05
5.60064e-05
5.39333e-05
5.19005e-05
4.99118e-05
4.79673e-05
4.6066e-05
4.42122e-05
4.24103e-05
4.06627e-05
3.89708e-05
3.73338e-05
3.57509e-05
3.42243e-05
3.27527e-05
3.13365e-05
2.99638e-05
2.86401e-05
2.73399e-05
2.61195e-05
2.51523e-05
2.41204e-05
2.33612e-05
2.19716e-05
2.16493e-05
1.93378e-05
2.05339e-05
1.59429e-05
2.10534e-05
0.0310675
0.0485764
0.0635354
0.0735292
0.0758357
0.0672044
0.0430904
0.0388669
0.0620385
0.0677658
0.0609672
0.0450756
0.0252984
0.00897643
0.000660126
0.000314569
0
0
1.97903e-07
2.15576e-05
8.57005e-05
0.000116034
0.000112924
0.000106549
0.00010302
0.000100567
9.82443e-05
9.60019e-05
9.38138e-05
9.16431e-05
8.94951e-05
8.73799e-05
8.52919e-05
8.32241e-05
8.11699e-05
7.91246e-05
7.70888e-05
7.50635e-05
7.30418e-05
7.10214e-05
6.90121e-05
6.70233e-05
6.50528e-05
6.30869e-05
6.11225e-05
5.91696e-05
5.72395e-05
5.53321e-05
5.34403e-05
5.15663e-05
4.97203e-05
4.79076e-05
4.61285e-05
4.4381e-05
4.26695e-05
4.09991e-05
3.93734e-05
3.77946e-05
3.62624e-05
3.4776e-05
3.33375e-05
3.19466e-05
3.06051e-05
2.93023e-05
2.80429e-05
2.68039e-05
2.56313e-05
2.47081e-05
2.37024e-05
2.29969e-05
2.16161e-05
2.13543e-05
1.90348e-05
2.03008e-05
0.0151394
0.0308243
0.0465175
0.0594023
0.0676737
0.0693339
0.061933
0.0419037
0.0302876
0.0538934
0.0607907
0.0559443
0.0424281
0.0247927
0.00955455
0.0010596
0.000490904
0
0
0
1.91106e-05
7.45692e-05
0.000107337
0.000104717
9.68325e-05
9.27886e-05
9.0477e-05
8.83234e-05
8.62633e-05
8.43313e-05
8.24466e-05
8.05818e-05
7.87545e-05
7.69701e-05
7.52109e-05
7.34591e-05
7.17099e-05
6.9964e-05
6.82151e-05
6.64595e-05
6.47046e-05
6.2962e-05
6.12322e-05
5.95012e-05
5.77618e-05
5.60243e-05
5.43011e-05
5.25933e-05
5.08931e-05
4.92009e-05
4.75267e-05
4.58772e-05
4.42532e-05
4.26518e-05
4.10768e-05
3.95335e-05
3.80269e-05
3.65596e-05
3.51321e-05
3.37427e-05
3.23939e-05
3.10857e-05
2.98212e-05
2.85911e-05
2.73992e-05
2.6225e-05
2.51036e-05
2.42274e-05
2.32504e-05
2.26018e-05
2.12337e-05
2.10375e-05
0.00370396
0.0141882
0.0286141
0.0429157
0.054641
0.0622693
0.0641892
0.0583894
0.042027
0.0213342
0.0468864
0.055201
0.0522893
0.0409365
0.0252368
0.0108689
0.00240189
0.000926779
0
0
0
1.44074e-05
5.46776e-05
9.60769e-05
9.77656e-05
9.02133e-05
8.5945e-05
8.36766e-05
8.14925e-05
7.93213e-05
7.73703e-05
7.55683e-05
7.38097e-05
7.20849e-05
7.04107e-05
6.87792e-05
6.71724e-05
6.55816e-05
6.39978e-05
6.24141e-05
6.08339e-05
5.92678e-05
5.77173e-05
5.61674e-05
5.4607e-05
5.30437e-05
5.14904e-05
4.99499e-05
4.84137e-05
4.68795e-05
4.53565e-05
4.38526e-05
4.23693e-05
4.09024e-05
3.94544e-05
3.80311e-05
3.6638e-05
3.52783e-05
3.39528e-05
3.26595e-05
3.14002e-05
3.01754e-05
2.89891e-05
2.78337e-05
2.67116e-05
2.56053e-05
2.45383e-05
2.3713e-05
2.27674e-05
0.00100269
0.0026332
0.0107004
0.0223597
0.0349405
0.0460452
0.0539286
0.0570893
0.0538192
0.0418636
0.0149359
0.0387501
0.0490791
0.0484474
0.0394524
0.0256812
0.0122083
0.00380046
0.00127288
7.00063e-05
0
0
1.03028e-05
3.85943e-05
8.443e-05
8.97263e-05
8.32744e-05
7.94994e-05
7.77976e-05
7.58968e-05
7.36859e-05
7.16487e-05
6.98692e-05
6.82042e-05
6.65707e-05
6.49687e-05
6.34086e-05
6.18866e-05
6.03875e-05
5.88996e-05
5.74234e-05
5.59692e-05
5.45397e-05
5.31198e-05
5.16941e-05
5.02657e-05
4.88471e-05
4.74431e-05
4.60438e-05
4.46446e-05
4.32527e-05
4.18766e-05
4.05187e-05
3.91736e-05
3.7842e-05
3.65297e-05
3.52425e-05
3.39844e-05
3.27561e-05
3.15554e-05
3.03833e-05
2.92404e-05
2.81314e-05
2.70506e-05
2.59987e-05
2.49615e-05
0
0.000320533
0.000166382
0.00554597
0.0162757
0.0286383
0.0396133
0.0477239
0.0518012
0.0505292
0.0422868
0.0237059
0.0285097
0.0414199
0.0433233
0.036883
0.0251493
0.0127924
0.00424161
0.000698595
0.000294221
0
0
9.31213e-06
3.58241e-05
8.13009e-05
8.68428e-05
7.84606e-05
7.32657e-05
7.19022e-05
7.07608e-05
6.88097e-05
6.66862e-05
6.48417e-05
6.32259e-05
6.16808e-05
6.01538e-05
5.86607e-05
5.72079e-05
5.57826e-05
5.43776e-05
5.30004e-05
5.16564e-05
5.03326e-05
4.90102e-05
4.76874e-05
4.6376e-05
4.50823e-05
4.37967e-05
4.25116e-05
4.1232e-05
3.99667e-05
3.87188e-05
3.74823e-05
3.6256e-05
3.50448e-05
3.38552e-05
3.26913e-05
3.15545e-05
3.04417e-05
2.93538e-05
2.82902e-05
0.00061317
0.00160077
0.00266346
0.00787326
0.0183674
0.0295503
0.0399579
0.0486279
0.0548081
0.057631
0.0559852
0.0485351
0.0334475
0.0179282
0.0352115
0.0393224
0.0347544
0.0244622
0.0125764
0.00337358
0.000949903
0
0
0
8.14952e-06
3.08361e-05
7.47703e-05
8.55483e-05
7.78831e-05
6.97116e-05
6.66282e-05
6.57556e-05
6.4427e-05
6.24661e-05
6.05274e-05
5.88596e-05
5.7348e-05
5.58796e-05
5.44386e-05
5.30349e-05
5.16677e-05
5.03388e-05
4.90516e-05
4.77955e-05
4.65501e-05
4.53086e-05
4.40805e-05
4.28735e-05
4.16793e-05
4.04882e-05
3.93024e-05
3.81307e-05
3.6977e-05
3.58351e-05
3.47019e-05
3.35814e-05
3.248e-05
0.0015962
0.00225645
0.00603124
0.013677
0.0223564
0.0313039
0.0398799
0.0476185
0.0541106
0.058849
0.061107
0.0598644
0.0538304
0.0414083
0.01938
0.0301871
0.0378125
0.0353356
0.0259694
0.0135465
0.00232893
0.000785948
0
0
0
9.71769e-07
1.56557e-05
5.72327e-05
8.05444e-05
7.78718e-05
6.84214e-05
6.27777e-05
6.11674e-05
6.02728e-05
5.86923e-05
5.67849e-05
5.50429e-05
5.35197e-05
5.20899e-05
5.06898e-05
4.93231e-05
4.80062e-05
4.67443e-05
4.5526e-05
4.43295e-05
4.31433e-05
4.19739e-05
4.08297e-05
3.97045e-05
3.85869e-05
0.00133601
0.00165146
0.00698242
0.0139596
0.021283
0.0285766
0.0355927
0.0421349
0.0480156
0.053001
0.0567446
0.058703
0.0580683
0.053726
0.0442297
0.0271439
0.0235867
0.035713
0.0364642
0.0291227
0.0170298
0.00486925
0.00180471
0
0
0
0
6.28614e-06
1.91081e-05
6.19664e-05
7.58486e-05
6.94839e-05
6.09382e-05
5.71669e-05
5.61954e-05
5.51375e-05
5.34518e-05
5.16808e-05
)
;

boundaryField
{
    inlet
    {
        type            calculated;
        value           nonuniform List<scalar> 
11
(
7.17373e-05
6.98248e-05
7.06489e-05
7.13998e-05
7.20581e-05
7.26389e-05
7.31781e-05
7.37133e-05
7.43346e-05
7.283e-05
7.47139e-05
)
;
    }
    outlet
    {
        type            calculated;
        value           nonuniform List<scalar> 0();
    }
    walls
    {
        type            calculated;
        value           uniform 0;
    }
    frontAndBack
    {
        type            empty;
    }
    procBoundary6to2
    {
        type            processor;
        value           nonuniform List<scalar> 
13
(
0.13201
0.0881286
0.0629672
0.0449273
0.02847
0.0139287
0.0037839
0.00106559
0
0
4.075e-06
0.000237441
0.000642443
)
;
    }
    procBoundary6to3
    {
        type            processor;
        value           uniform 0.000205564;
    }
    procBoundary6to5
    {
        type            processor;
        value           nonuniform List<scalar> 
86
(
0.287306
0.128462
0.116741
0.0846488
0.035963
0.00781942
0.00519912
0
0
2.87909e-05
0.000120531
0.000230766
0.00023499
0.000220489
0.000216283
0.000216136
0.000214379
0.000210996
0.000207289
0.000203786
0.000200383
0.000196888
0.000193209
0.000189333
0.000185279
0.00018107
0.000176714
0.000172225
0.000167616
0.000162895
0.000158077
0.000153184
0.000148229
0.000148229
0.000144518
0.000139525
0.000134512
0.000129499
0.000124503
0.000119539
0.000114629
0.000109793
0.000105046
0.000100398
9.58597e-05
9.1444e-05
9.1444e-05
8.78738e-05
8.36929e-05
7.96579e-05
7.57708e-05
7.20375e-05
6.84634e-05
6.5048e-05
6.17863e-05
5.86752e-05
5.86752e-05
5.60029e-05
5.31676e-05
5.04755e-05
4.79264e-05
4.5514e-05
4.32281e-05
4.10579e-05
4.10579e-05
3.91462e-05
3.71654e-05
3.52829e-05
3.35076e-05
3.1832e-05
3.03224e-05
2.90485e-05
2.90485e-05
2.80163e-05
2.69644e-05
2.58424e-05
2.48647e-05
2.34879e-05
2.29691e-05
2.07932e-05
2.2162e-05
1.92833e-05
1.92833e-05
2.43791e-05
2.61733e-05
2.98885e-05
)
;
    }
    procBoundary6to7
    {
        type            processor;
        value           nonuniform List<scalar> 
91
(
2.95953e-05
2.95953e-05
2.54939e-05
2.54939e-05
2.51696e-05
2.51696e-05
1.62053e-05
1.57372e-05
1.62053e-05
2.08785e-05
1.87112e-05
1.57372e-05
2.00558e-05
2.21791e-05
2.08273e-05
1.87112e-05
2.07012e-05
2.39507e-05
2.31782e-05
2.21791e-05
2.22654e-05
2.7257e-05
2.62495e-05
2.52674e-05
2.39507e-05
2.42998e-05
3.14027e-05
3.03505e-05
2.93207e-05
2.83127e-05
2.7257e-05
2.73259e-05
3.7476e-05
3.63801e-05
3.53041e-05
3.42419e-05
3.3189e-05
3.21478e-05
3.14027e-05
3.11243e-05
5.0119e-05
4.87047e-05
4.73386e-05
4.60092e-05
4.474e-05
4.35311e-05
4.23584e-05
4.12034e-05
4.00689e-05
3.89638e-05
3.7885e-05
3.7476e-05
3.682e-05
0.00171432
0.00245088
0.00847907
0.015257
0.022204
0.028955
0.0353035
0.0410952
0.0461829
0.0503933
0.0534881
0.0551014
0.0546661
0.0513431
0.0439361
0.030482
0.0167257
0.0326519
0.036803
0.0324178
0.0219919
0.0104916
0.00385782
0.000433092
0
0
0
6.42862e-07
1.0487e-05
3.64976e-05
6.42205e-05
6.81105e-05
6.0629e-05
5.46645e-05
5.26502e-05
5.1806e-05
5.0119e-05
5.04379e-05
)
;
    }
}


// ************************************************************************* //
