/*--------------------------------*- C++ -*----------------------------------*\
| =========                 |                                                 |
| \\      /  F ield         | OpenFOAM: The Open Source CFD Toolbox           |
|  \\    /   O peration     | Version:  2506                                  |
|   \\  /    A nd           | Website:  www.openfoam.com                      |
|    \\/     M anipulation  |                                                 |
\*---------------------------------------------------------------------------*/
FoamFile
{
    version     2.0;
    format      ascii;
    arch        "LSB;label=32;scalar=64";
    class       volScalarField;
    location    "150";
    object      turbulenceProperties:nuEff;
}
// * * * * * * * * * * * * * * * * * * * * * * * * * * * * * * * * * * * * * //

dimensions      [0 2 -1 0 0 0 0];

internalField   nonuniform List<scalar> 
1340
(
0.0887573
0.0806039
0.070925
0.0463749
0.139288
0.134749
0.128035
0.129615
0.175231
0.177333
0.174042
0.182292
0.170045
0.187681
0.197643
0.213062
0.118505
0.160115
0.193506
0.223604
0.045795
0.097574
0.157889
0.212058
0.00514345
0.0322482
0.0973736
0.176473
0.00122299
0.00070766
0.0377919
0.122791
1e-05
0.000229976
0.00306526
0.0674462
1e-05
1e-05
0.00133153
0.0303133
1.00022e-05
1e-05
0.000247142
0.0116483
1.06067e-05
1e-05
5.92805e-05
0.00373896
1.83197e-05
1e-05
1.05058e-05
0.000911875
1.92963e-05
1.29891e-05
1.00001e-05
2.91606e-05
1.65996e-05
2.04703e-05
1.00008e-05
1.00826e-05
1.54595e-05
2.1437e-05
1.00716e-05
1e-05
1.55595e-05
1.85364e-05
1.3276e-05
1.00016e-05
1.59718e-05
1.65272e-05
1.78188e-05
1.03052e-05
1.62283e-05
1.58705e-05
1.83529e-05
1.25594e-05
1.62839e-05
1.58755e-05
1.73284e-05
1.52306e-05
1.62484e-05
1.60401e-05
1.65512e-05
1.63581e-05
1.62045e-05
1.6155e-05
1.62303e-05
1.64812e-05
1.61779e-05
1.61941e-05
1.61597e-05
1.63522e-05
1.61656e-05
1.61923e-05
1.61684e-05
1.62517e-05
1.61593e-05
1.61795e-05
1.61811e-05
1.62094e-05
1.61546e-05
1.61682e-05
1.61823e-05
1.61961e-05
1.61498e-05
1.61601e-05
1.61763e-05
1.619e-05
1.61448e-05
1.61539e-05
1.61685e-05
1.61833e-05
1.61399e-05
1.61484e-05
1.61612e-05
1.61756e-05
1.61353e-05
1.61432e-05
1.61547e-05
1.61678e-05
1.6131e-05
1.61383e-05
1.61488e-05
1.61605e-05
1.61271e-05
1.61337e-05
1.61434e-05
1.61538e-05
1.61235e-05
1.61295e-05
1.61383e-05
1.61476e-05
1.61154e-05
1.61201e-05
1.61255e-05
1.61337e-05
1.61419e-05
1.61127e-05
1.6117e-05
1.61219e-05
1.61293e-05
1.61366e-05
1.61103e-05
1.61141e-05
1.61185e-05
1.61253e-05
1.61318e-05
1.61079e-05
1.61115e-05
1.61154e-05
1.61215e-05
1.61273e-05
1.61058e-05
1.61089e-05
1.61125e-05
1.61181e-05
1.61232e-05
1.6104e-05
1.61067e-05
1.61098e-05
1.61148e-05
1.61193e-05
1.61024e-05
1.61048e-05
1.61075e-05
1.61119e-05
1.61158e-05
1.6101e-05
1.61032e-05
1.61055e-05
1.61094e-05
1.61127e-05
1.60997e-05
1.61016e-05
1.61037e-05
1.61072e-05
1.611e-05
1.60985e-05
1.61001e-05
1.6102e-05
1.61051e-05
1.61075e-05
1.60975e-05
1.60989e-05
1.61004e-05
1.61031e-05
1.61052e-05
1.60968e-05
1.60979e-05
1.60991e-05
1.61014e-05
1.61031e-05
1.60955e-05
1.60961e-05
1.6097e-05
1.6098e-05
1.61e-05
1.61013e-05
1.60951e-05
1.60956e-05
1.60963e-05
1.60971e-05
1.60988e-05
1.60998e-05
1.60948e-05
1.60951e-05
1.60956e-05
1.60963e-05
1.60977e-05
1.60985e-05
1.60948e-05
1.60949e-05
1.60952e-05
1.60956e-05
1.60967e-05
1.60974e-05
1.60949e-05
1.60948e-05
1.60949e-05
1.60951e-05
1.60959e-05
1.60965e-05
1.60953e-05
1.6095e-05
1.60949e-05
1.60949e-05
1.60954e-05
1.60958e-05
1.60959e-05
1.60955e-05
1.60952e-05
1.60949e-05
1.60951e-05
1.60954e-05
1.60968e-05
1.60962e-05
1.60957e-05
1.60952e-05
1.60951e-05
1.60952e-05
1.60976e-05
1.60971e-05
1.60966e-05
1.60959e-05
1.60954e-05
1.60953e-05
1.60985e-05
1.60983e-05
1.60979e-05
1.60974e-05
1.60969e-05
1.60961e-05
1.60957e-05
1.60988e-05
1.60987e-05
1.60985e-05
1.60982e-05
1.60978e-05
1.6097e-05
1.60965e-05
1.6099e-05
1.60989e-05
1.60988e-05
1.60987e-05
1.60984e-05
1.60979e-05
1.60974e-05
1.6099e-05
1.60991e-05
1.6099e-05
1.6099e-05
1.60989e-05
1.60986e-05
1.60982e-05
1.60989e-05
1.6099e-05
1.60991e-05
1.60991e-05
1.60991e-05
1.6099e-05
1.60989e-05
1.60987e-05
1.60988e-05
1.6099e-05
1.60991e-05
1.60992e-05
1.60992e-05
1.60993e-05
1.60981e-05
1.60984e-05
1.60986e-05
1.60989e-05
1.60991e-05
1.60992e-05
1.60994e-05
1.60967e-05
1.60971e-05
1.60975e-05
1.60978e-05
1.60982e-05
1.60986e-05
1.60989e-05
1.60993e-05
1.60951e-05
1.60956e-05
1.60961e-05
1.60966e-05
1.60971e-05
1.60976e-05
1.60981e-05
1.60986e-05
1.60932e-05
1.60937e-05
1.60943e-05
1.60949e-05
1.60954e-05
1.60961e-05
1.60967e-05
1.60975e-05
1.60912e-05
1.60917e-05
1.60923e-05
1.60929e-05
1.60935e-05
1.60942e-05
1.60949e-05
1.60958e-05
1.60891e-05
1.60897e-05
1.60902e-05
1.60908e-05
1.60914e-05
1.60921e-05
1.60928e-05
1.60937e-05
1.60871e-05
1.60876e-05
1.60882e-05
1.60888e-05
1.60894e-05
1.60901e-05
1.60908e-05
1.60917e-05
1.6085e-05
1.60856e-05
1.60863e-05
1.6087e-05
1.60876e-05
1.60884e-05
1.60891e-05
1.609e-05
1.60821e-05
1.60827e-05
1.60834e-05
1.60841e-05
1.60848e-05
1.60856e-05
1.60864e-05
1.60873e-05
1.60882e-05
1.60797e-05
1.60803e-05
1.60809e-05
1.60815e-05
1.60822e-05
1.60829e-05
1.60838e-05
1.60847e-05
1.60858e-05
1.60772e-05
1.60777e-05
1.60783e-05
1.60789e-05
1.60795e-05
1.60801e-05
1.60809e-05
1.60817e-05
1.60828e-05
1.60747e-05
1.60751e-05
1.60756e-05
1.60762e-05
1.60768e-05
1.60774e-05
1.60781e-05
1.60788e-05
1.60797e-05
1.6072e-05
1.60724e-05
1.60728e-05
1.60732e-05
1.60737e-05
1.60743e-05
1.60749e-05
1.60756e-05
1.60764e-05
1.60707e-05
1.60708e-05
1.60709e-05
1.60711e-05
1.60714e-05
1.60717e-05
1.60721e-05
1.60726e-05
1.60732e-05
1.60722e-05
1.6072e-05
1.60719e-05
1.60717e-05
1.60716e-05
1.60716e-05
1.60716e-05
1.60716e-05
1.60718e-05
1.60749e-05
1.60746e-05
1.60743e-05
1.6074e-05
1.60737e-05
1.60733e-05
1.6073e-05
1.60727e-05
1.60724e-05
1.60786e-05
1.60785e-05
1.60785e-05
1.60784e-05
1.60783e-05
1.60782e-05
1.6078e-05
1.60778e-05
1.60776e-05
1.60817e-05
1.60815e-05
1.60813e-05
1.6081e-05
1.60807e-05
1.60805e-05
1.60802e-05
1.60799e-05
1.60797e-05
1.60796e-05
1.60868e-05
1.60875e-05
1.60882e-05
1.6089e-05
1.60898e-05
1.60906e-05
1.60915e-05
1.60923e-05
1.60934e-05
1.60945e-05
1.60955e-05
1.60955e-05
1.60954e-05
1.60952e-05
1.6095e-05
1.60949e-05
1.60949e-05
1.60951e-05
1.60955e-05
1.60957e-05
0.147864
0.177358
0.208963
0.243044
0.258928
0.25221
0.22157
0.167744
0.0995812
0.0410402
0.0136777
0.00415787
0.000903949
1.16822e-05
1.00048e-05
1e-05
1.00002e-05
1.01015e-05
1.20306e-05
1.49743e-05
1.6379e-05
1.65679e-05
1.64166e-05
1.62886e-05
1.62322e-05
1.62142e-05
1.62067e-05
1.61992e-05
1.61904e-05
1.61814e-05
1.61729e-05
1.6165e-05
1.61579e-05
1.61513e-05
1.61452e-05
1.61395e-05
1.61343e-05
1.61295e-05
1.61251e-05
1.6121e-05
1.61173e-05
1.61141e-05
1.61112e-05
1.61085e-05
1.6106e-05
1.61038e-05
1.6102e-05
1.61003e-05
1.60989e-05
1.60977e-05
1.60968e-05
1.60961e-05
1.60957e-05
1.60956e-05
1.60957e-05
1.60963e-05
1.6097e-05
1.60979e-05
1.60985e-05
1.6099e-05
1.60993e-05
1.60992e-05
1.60988e-05
1.60977e-05
1.60961e-05
1.60941e-05
1.6092e-05
1.60904e-05
1.60887e-05
1.60862e-05
1.60832e-05
1.60801e-05
1.60768e-05
1.60735e-05
1.60719e-05
1.60722e-05
1.60774e-05
1.60794e-05
1.6095e-05
1.60958e-05
0.180225
0.212548
0.232235
0.253183
0.273181
0.275912
0.255029
0.209089
0.141519
0.0676149
0.020401
0.00488275
0.00115076
2.01079e-05
1.00351e-05
1e-05
1.00001e-05
1.00439e-05
1.16384e-05
1.47821e-05
1.63763e-05
1.66172e-05
1.64623e-05
1.63193e-05
1.62527e-05
1.62302e-05
1.6221e-05
1.62124e-05
1.62026e-05
1.61925e-05
1.6183e-05
1.61742e-05
1.61662e-05
1.61588e-05
1.6152e-05
1.61457e-05
1.614e-05
1.61346e-05
1.61297e-05
1.61251e-05
1.61209e-05
1.61173e-05
1.61141e-05
1.61111e-05
1.61082e-05
1.61057e-05
1.61036e-05
1.61018e-05
1.61001e-05
1.60987e-05
1.60975e-05
1.60967e-05
1.60961e-05
1.60957e-05
1.60957e-05
1.6096e-05
1.60967e-05
1.60975e-05
1.60982e-05
1.60988e-05
1.60992e-05
1.60992e-05
1.60988e-05
1.60978e-05
1.60963e-05
1.60943e-05
1.60922e-05
1.60906e-05
1.60889e-05
1.60865e-05
1.60835e-05
1.60804e-05
1.6077e-05
1.60737e-05
1.6072e-05
1.60722e-05
1.60772e-05
1.60792e-05
1.60953e-05
0.180594
0.221618
0.246419
0.260498
0.274435
0.284951
0.278655
0.248602
0.193244
0.117789
0.0456799
0.00804155
0.000275
3.6482e-05
1e-05
1e-05
1e-05
1.00109e-05
1.09973e-05
1.41584e-05
1.62928e-05
1.67046e-05
1.65292e-05
1.6355e-05
1.62744e-05
1.62468e-05
1.6236e-05
1.62265e-05
1.62155e-05
1.62041e-05
1.61934e-05
1.61836e-05
1.61747e-05
1.61666e-05
1.6159e-05
1.61521e-05
1.61457e-05
1.61398e-05
1.61343e-05
1.61292e-05
1.61246e-05
1.61206e-05
1.6117e-05
1.61136e-05
1.61105e-05
1.61077e-05
1.61053e-05
1.61032e-05
1.61013e-05
1.60996e-05
1.60982e-05
1.60972e-05
1.60964e-05
1.60959e-05
1.60957e-05
1.60958e-05
1.60964e-05
1.60972e-05
1.6098e-05
1.60986e-05
1.6099e-05
1.60992e-05
1.60989e-05
1.60979e-05
1.60964e-05
1.60944e-05
1.60924e-05
1.60908e-05
1.60892e-05
1.60868e-05
1.60838e-05
1.60806e-05
1.60773e-05
1.60739e-05
1.6072e-05
1.60721e-05
1.60769e-05
1.60789e-05
0.163293
0.210829
0.244783
0.264354
0.274576
0.283555
0.288207
0.276999
0.242662
0.183038
0.105385
0.0361079
0.00244721
0.000604562
1e-05
1e-05
1e-05
1e-05
1.05229e-05
1.34656e-05
1.59581e-05
1.67123e-05
1.66434e-05
1.6429e-05
1.63055e-05
1.62636e-05
1.62502e-05
1.62403e-05
1.62292e-05
1.62171e-05
1.62051e-05
1.6194e-05
1.61839e-05
1.61749e-05
1.61666e-05
1.61589e-05
1.61518e-05
1.61453e-05
1.61392e-05
1.61336e-05
1.61285e-05
1.6124e-05
1.61201e-05
1.61164e-05
1.61129e-05
1.61098e-05
1.61071e-05
1.61047e-05
1.61026e-05
1.61007e-05
1.60991e-05
1.60978e-05
1.60969e-05
1.60962e-05
1.60957e-05
1.60957e-05
1.60961e-05
1.60968e-05
1.60977e-05
1.60984e-05
1.60989e-05
1.60991e-05
1.60989e-05
1.60981e-05
1.60966e-05
1.60946e-05
1.60927e-05
1.60911e-05
1.60894e-05
1.60871e-05
1.60841e-05
1.60809e-05
1.60776e-05
1.60741e-05
1.60722e-05
1.6072e-05
1.60767e-05
0.132513
0.185016
0.227621
0.257064
0.273526
0.281243
0.28674
0.287945
0.274475
0.238711
0.178031
0.100817
0.0329125
0.00129281
0.000317124
1e-05
1e-05
1e-05
1.00001e-05
1.16425e-05
1.58887e-05
1.69031e-05
1.66823e-05
1.64892e-05
1.63659e-05
1.62981e-05
1.62719e-05
1.62582e-05
1.62441e-05
1.623e-05
1.62175e-05
1.62057e-05
1.61946e-05
1.61842e-05
1.61749e-05
1.61664e-05
1.61586e-05
1.61514e-05
1.61447e-05
1.61385e-05
1.61329e-05
1.61279e-05
1.61235e-05
1.61194e-05
1.61156e-05
1.61121e-05
1.61091e-05
1.61064e-05
1.61041e-05
1.61019e-05
1.61e-05
1.60985e-05
1.60974e-05
1.60965e-05
1.60959e-05
1.60956e-05
1.60958e-05
1.60965e-05
1.60973e-05
1.60981e-05
1.60987e-05
1.60991e-05
1.60989e-05
1.60982e-05
1.60968e-05
1.60948e-05
1.60929e-05
1.60913e-05
1.60897e-05
1.60874e-05
1.60843e-05
1.60811e-05
1.60779e-05
1.60743e-05
1.60723e-05
1.6072e-05
0.0918029
0.147681
0.198044
0.237915
0.265141
0.280055
0.286135
0.288814
0.287523
0.27277
0.236655
0.176314
0.100036
0.0327189
0.000570786
0.000157186
1e-05
1e-05
1e-05
1.00082e-05
1.22125e-05
1.7681e-05
1.75145e-05
1.65789e-05
1.63239e-05
1.63003e-05
1.62886e-05
1.62786e-05
1.62674e-05
1.62502e-05
1.6232e-05
1.62175e-05
1.62058e-05
1.6195e-05
1.61846e-05
1.61749e-05
1.61661e-05
1.61582e-05
1.61508e-05
1.6144e-05
1.61377e-05
1.61322e-05
1.61272e-05
1.61227e-05
1.61185e-05
1.61147e-05
1.61113e-05
1.61083e-05
1.61057e-05
1.61032e-05
1.61011e-05
1.60994e-05
1.6098e-05
1.60969e-05
1.60961e-05
1.60956e-05
1.60956e-05
1.60961e-05
1.6097e-05
1.60978e-05
1.60986e-05
1.6099e-05
1.6099e-05
1.60983e-05
1.6097e-05
1.60951e-05
1.60931e-05
1.60915e-05
1.609e-05
1.60877e-05
1.60847e-05
1.60814e-05
1.60781e-05
1.60746e-05
0.0480644
0.101744
0.158416
0.208632
0.248155
0.275151
0.28984
0.295034
0.29538
0.291992
0.276142
0.239847
0.179948
0.1036
0.0355023
0.00126948
0.00043762
1e-05
1e-05
1e-05
1.00071e-05
1.18062e-05
1.80908e-05
1.81185e-05
1.66875e-05
1.62874e-05
1.62839e-05
1.62801e-05
1.62679e-05
1.62645e-05
1.62548e-05
1.62366e-05
1.62188e-05
1.62056e-05
1.61949e-05
1.61847e-05
1.61749e-05
1.61658e-05
1.61576e-05
1.61501e-05
1.61432e-05
1.6137e-05
1.61315e-05
1.61265e-05
1.61218e-05
1.61175e-05
1.61138e-05
1.61105e-05
1.61075e-05
1.61048e-05
1.61024e-05
1.61004e-05
1.60988e-05
1.60975e-05
1.60964e-05
1.60957e-05
1.60955e-05
1.60958e-05
1.60966e-05
1.60975e-05
1.60983e-05
1.60989e-05
1.6099e-05
1.60984e-05
1.60971e-05
1.60953e-05
1.60933e-05
1.60918e-05
1.60902e-05
1.6088e-05
1.6085e-05
1.60817e-05
0.0128824
0.049786
0.10401
0.16074
0.210823
0.250359
0.277801
0.293279
0.299034
0.298954
0.295766
0.281187
0.246811
0.188605
0.113678
0.0442875
0.0058087
0.00167536
1e-05
1e-05
1e-05
1.00029e-05
1.069e-05
1.693e-05
1.82346e-05
1.68029e-05
1.63242e-05
1.63395e-05
1.63233e-05
1.62696e-05
1.62497e-05
1.62492e-05
1.624e-05
1.62225e-05
1.62064e-05
1.61944e-05
1.61843e-05
1.61746e-05
1.61654e-05
1.61569e-05
1.61492e-05
1.61423e-05
1.61362e-05
1.61307e-05
1.61255e-05
1.61208e-05
1.61166e-05
1.61129e-05
1.61096e-05
1.61066e-05
1.61039e-05
1.61016e-05
1.60997e-05
1.60981e-05
1.60969e-05
1.60959e-05
1.60954e-05
1.60955e-05
1.60962e-05
1.60972e-05
1.60981e-05
1.60987e-05
1.60989e-05
1.60985e-05
1.60973e-05
1.60955e-05
1.60936e-05
1.6092e-05
1.60905e-05
0.00267536
0.0108572
0.0396177
0.082836
0.131646
0.178307
0.217539
0.24671
0.265182
0.274367
0.277532
0.278295
0.269558
0.242181
0.191123
0.121744
0.053986
0.0135369
0.00350629
1.17967e-05
1e-05
1e-05
1.0001e-05
1.0222e-05
1.54868e-05
1.77332e-05
1.65492e-05
1.61733e-05
1.63479e-05
1.64039e-05
1.63151e-05
1.62475e-05
1.62357e-05
1.62364e-05
1.62256e-05
1.62088e-05
1.61945e-05
1.61837e-05
1.61741e-05
1.61648e-05
1.61561e-05
1.61484e-05
1.61415e-05
1.61354e-05
1.61297e-05
1.61244e-05
1.61197e-05
1.61156e-05
1.61119e-05
1.61086e-05
1.61055e-05
1.61029e-05
1.61008e-05
1.6099e-05
1.60974e-05
1.60963e-05
1.60955e-05
1.60953e-05
1.60959e-05
1.60968e-05
1.60978e-05
1.60986e-05
1.60989e-05
1.60985e-05
1.60975e-05
1.60957e-05
1e-05
0.00022242
0.000191271
0.0158097
0.0564658
0.109905
0.16181
0.205357
0.237041
0.255747
0.262773
0.262054
0.257835
0.247988
0.22401
0.17959
0.117583
0.05575
0.0152531
0.00115506
0.000268532
1e-05
1e-05
1.00007e-05
1.02017e-05
1.59792e-05
1.86892e-05
1.66743e-05
1.58185e-05
1.61011e-05
1.64118e-05
1.63991e-05
1.62819e-05
1.62276e-05
1.62253e-05
1.62243e-05
1.62113e-05
1.61956e-05
1.61831e-05
1.61731e-05
1.61639e-05
1.61552e-05
1.61475e-05
1.61407e-05
1.61344e-05
1.61285e-05
1.61233e-05
1.61187e-05
1.61146e-05
1.61108e-05
1.61074e-05
1.61045e-05
1.6102e-05
1.60999e-05
1.60982e-05
1.60967e-05
1.60957e-05
1.60953e-05
1.60955e-05
1.60964e-05
1.60975e-05
1.60984e-05
0.00166242
0.0065412
0.0353584
0.0829042
0.145003
0.211678
0.273942
0.325678
0.36294
0.383366
0.386153
0.372528
0.346287
0.312717
0.27699
0.234437
0.179501
0.113461
0.0498504
0.0081822
0.00197921
1e-05
1e-05
1e-05
1.00005e-05
1.01284e-05
1.52412e-05
2.01492e-05
1.80963e-05
1.60425e-05
1.57765e-05
1.61962e-05
1.64161e-05
1.63507e-05
1.62491e-05
1.62165e-05
1.62171e-05
1.62114e-05
1.6197e-05
1.6183e-05
1.61721e-05
1.61628e-05
1.61543e-05
1.61466e-05
1.61396e-05
1.61332e-05
1.61273e-05
1.61221e-05
1.61176e-05
1.61134e-05
1.61096e-05
1.61063e-05
1.61035e-05
1.61011e-05
1.6099e-05
1.60973e-05
1.60961e-05
0.0136943
0.0607447
0.132797
0.214037
0.296307
0.374854
0.44591
0.506303
0.553219
0.584062
0.596523
0.588898
0.560772
0.513858
0.452743
0.38452
0.310117
0.227454
0.138219
0.0553677
0.00329294
0.00107663
1e-05
1e-05
1e-05
1e-05
1.00098e-05
1.21995e-05
1.98898e-05
1.99979e-05
1.69841e-05
1.57418e-05
1.59142e-05
1.63098e-05
1.63928e-05
1.62927e-05
1.62207e-05
1.62081e-05
1.62077e-05
1.61974e-05
1.61831e-05
1.61713e-05
1.61619e-05
1.61535e-05
1.61456e-05
1.61383e-05
1.61318e-05
1.61261e-05
1.61209e-05
1.61163e-05
0.0101453
0.0619718
0.144807
0.236517
0.327259
0.413812
0.494413
0.56734
0.630608
0.6819
0.718604
0.737925
0.737163
0.714253
0.668596
0.602214
0.519741
0.42493
0.317396
0.200765
0.0891859
0.0127104
0.00430148
1e-05
1e-05
1e-05
1e-05
1.00003e-05
1.00328e-05
1.43912e-05
2.10983e-05
1.91124e-05
1.63348e-05
1.56816e-05
1.60538e-05
1.63556e-05
1.63414e-05
1.62443e-05
)
;

boundaryField
{
    inlet
    {
        type            calculated;
        value           nonuniform List<scalar> 
11
(
1.60955e-05
1.60955e-05
1.60954e-05
1.60952e-05
1.6095e-05
1.60949e-05
1.60949e-05
1.60951e-05
1.60955e-05
1.60957e-05
1.60958e-05
)
;
    }
    outlet
    {
        type            calculated;
        value           nonuniform List<scalar> 0();
    }
    walls
    {
        type            calculated;
        value           nonuniform List<scalar> 4(0.00189362 0.00169841 0.00146343 0.000774155);
    }
    frontAndBack
    {
        type            empty;
    }
    procBoundary6to2
    {
        type            processor;
        value           nonuniform List<scalar> 
13
(
0.117343
0.130801
0.126242
0.106738
0.0755818
0.0396781
0.011758
0.00323302
1e-05
1e-05
1.00003e-05
0.000355705
0.00247391
)
;
    }
    procBoundary6to3
    {
        type            processor;
        value           uniform 0.000253331;
    }
    procBoundary6to5
    {
        type            processor;
        value           nonuniform List<scalar> 
86
(
0.0946996
0.143983
0.171496
0.146261
0.073641
0.013989
0.00337469
1e-05
1e-05
1.00017e-05
1.05366e-05
1.69091e-05
1.75989e-05
1.61876e-05
1.59945e-05
1.62524e-05
1.63551e-05
1.62918e-05
1.62093e-05
1.61687e-05
1.61601e-05
1.61612e-05
1.61607e-05
1.6157e-05
1.61517e-05
1.61463e-05
1.61413e-05
1.61366e-05
1.61324e-05
1.61285e-05
1.61248e-05
1.61215e-05
1.61183e-05
1.61183e-05
1.61116e-05
1.61093e-05
1.61072e-05
1.61052e-05
1.61033e-05
1.61018e-05
1.61006e-05
1.60994e-05
1.60983e-05
1.60973e-05
1.60965e-05
1.6096e-05
1.6096e-05
1.6095e-05
1.60948e-05
1.60947e-05
1.60948e-05
1.60951e-05
1.60957e-05
1.60965e-05
1.60973e-05
1.6098e-05
1.6098e-05
1.60987e-05
1.60989e-05
1.6099e-05
1.6099e-05
1.60988e-05
1.60984e-05
1.60978e-05
1.60978e-05
1.60963e-05
1.60946e-05
1.60927e-05
1.60907e-05
1.60886e-05
1.60865e-05
1.60844e-05
1.60844e-05
1.60815e-05
1.60792e-05
1.60768e-05
1.60742e-05
1.60717e-05
1.60707e-05
1.60724e-05
1.60751e-05
1.60786e-05
1.60786e-05
1.60816e-05
1.60863e-05
1.60954e-05
)
;
    }
    procBoundary6to7
    {
        type            processor;
        value           nonuniform List<scalar> 
91
(
1.6096e-05
1.6096e-05
1.60957e-05
1.60957e-05
1.60787e-05
1.60787e-05
1.60764e-05
1.60724e-05
1.60764e-05
1.60719e-05
1.60784e-05
1.60724e-05
1.60748e-05
1.60883e-05
1.60853e-05
1.60784e-05
1.6082e-05
1.60938e-05
1.60923e-05
1.60883e-05
1.60908e-05
1.60988e-05
1.60986e-05
1.60976e-05
1.60938e-05
1.60959e-05
1.60953e-05
1.60952e-05
1.6096e-05
1.60971e-05
1.60988e-05
1.60981e-05
1.61121e-05
1.61084e-05
1.61052e-05
1.61025e-05
1.61001e-05
1.60981e-05
1.60953e-05
1.60965e-05
1.62043e-05
1.62017e-05
1.61961e-05
1.61825e-05
1.61696e-05
1.61603e-05
1.61523e-05
1.61444e-05
1.6137e-05
1.61304e-05
1.61247e-05
1.61121e-05
1.61196e-05
0.0212402
0.0784081
0.161568
0.252862
0.343851
0.431875
0.515736
0.594087
0.665101
0.726489
0.77555
0.809248
0.824378
0.817877
0.787429
0.732367
0.654208
0.556289
0.437578
0.300768
0.160544
0.0557177
0.0156856
0.00056066
1e-05
1e-05
1e-05
1e-05
1.00034e-05
1.06458e-05
1.71247e-05
2.02441e-05
1.75721e-05
1.58754e-05
1.58354e-05
1.62377e-05
1.62043e-05
1.63658e-05
)
;
    }
}


// ************************************************************************* //
