/*--------------------------------*- C++ -*----------------------------------*\
| =========                 |                                                 |
| \\      /  F ield         | OpenFOAM: The Open Source CFD Toolbox           |
|  \\    /   O peration     | Version:  2506                                  |
|   \\  /    A nd           | Website:  www.openfoam.com                      |
|    \\/     M anipulation  |                                                 |
\*---------------------------------------------------------------------------*/
FoamFile
{
    version     2.0;
    format      ascii;
    arch        "LSB;label=32;scalar=64";
    class       pointScalarField;
    location    "60.001527662331064";
    object      streamFunction;
}
// * * * * * * * * * * * * * * * * * * * * * * * * * * * * * * * * * * * * * //

dimensions      [0 3 -1 0 0 0 0];

internalField   nonuniform List<scalar> 
19880
(
0
-0.055311
-0.103444
-0.136692
-0.150217
-0.141142
0
-0.0597153
-0.11494
-0.152862
-0.164468
-0.150008
0
-0.054982
-0.107361
-0.140826
-0.143703
-0.116939
0
-0.0415067
-0.0815239
-0.100901
-0.0894739
-0.043495
0
-0.0250984
-0.0482871
-0.04822
-0.0111242
0.0649218
0
-0.0141999
-0.0185347
0.0138248
0.0909651
0.197812
0
-0.055311
-0.103444
-0.136692
-0.150217
-0.141142
0
-0.0597153
-0.11494
-0.152862
-0.164468
-0.150008
0
-0.054982
-0.107361
-0.140826
-0.143703
-0.116939
0
-0.0415067
-0.0815239
-0.100901
-0.0894739
-0.043495
0
-0.0250984
-0.0482871
-0.04822
-0.0111242
0.0649218
0
-0.0141999
-0.0185347
0.0138248
0.0909651
0.197812
-4.8e-07
2e-08
2e-08
4e-08
0
0.107935
0.0719279
0.0306504
0.00271802
-0.00922808
0.248365
0.204855
0.142116
0.0742135
0.0174125
0.383709
0.340246
0.274749
0.190195
0.0963977
0.516984
0.474707
0.408376
0.31897
0.208962
0.646757
0.60582
0.539492
0.447965
0.332586
-4.8e-07
2e-08
2e-08
4e-08
0
0.107935
0.0719279
0.0306504
0.00271802
-0.00922808
0.248365
0.204855
0.142116
0.0742135
0.0174125
0.383709
0.340246
0.274749
0.190195
0.0963977
0.516984
0.474707
0.408376
0.31897
0.208962
0.646757
0.60582
0.539492
0.447965
0.332586
-4.881e-07
1.119e-07
-2.281e-07
1.7e-07
-4.8e-07
0.119084
0.131518
0.138525
0.138605
0.129408
0.22736
0.253216
0.270268
0.27733
0.271113
0.327875
0.367342
0.395072
0.408734
0.405578
0.422732
0.475483
0.51365
0.534606
0.536407
0.51371
0.579616
0.628148
0.656688
0.663342
-4.881e-07
1.119e-07
-2.281e-07
1.7e-07
-4.8e-07
0.119084
0.131518
0.138525
0.138605
0.129408
0.22736
0.253216
0.270268
0.27733
0.271113
0.327875
0.367342
0.395072
0.408734
0.405578
0.422732
0.475483
0.51365
0.534606
0.536407
0.51371
0.579616
0.628148
0.656688
0.663342
0.0271625
0.0233871
0.0190207
0.0139014
0.00802521
-1.881e-07
0.136371
0.113257
0.0887561
0.0621941
0.032595
-1.881e-07
0.242694
0.200708
0.156633
0.109354
0.0575316
-1.881e-07
0.343089
0.283191
0.220606
0.1539
0.0815228
-8.81e-08
0.434631
0.35818
0.278486
0.193828
0.102267
-3.881e-07
0.0271625
0.0233871
0.0190207
0.0139014
0.00802521
-1.881e-07
0.136371
0.113257
0.0887561
0.0621941
0.032595
-1.881e-07
0.242694
0.200708
0.156633
0.109354
0.0575316
-1.881e-07
0.343089
0.283191
0.220606
0.1539
0.0815228
-8.81e-08
0.434631
0.35818
0.278486
0.193828
0.102267
-3.881e-07
-0.450518
-0.368189
-0.283535
-0.19518
-0.101636
3.9e-07
-0.374756
-0.306663
-0.236672
-0.163524
-0.0858511
-1.881e-07
-0.285735
-0.233876
-0.18062
-0.124927
-0.0657188
-1.881e-07
-0.187083
-0.152881
-0.117857
-0.0812699
-0.0421955
-1.881e-07
-0.0817395
-0.0662468
-0.0505873
-0.0344471
-0.0171542
-1.881e-07
-0.450518
-0.368189
-0.283535
-0.19518
-0.101636
3.9e-07
-0.374756
-0.306663
-0.236672
-0.163524
-0.0858511
-1.881e-07
-0.285735
-0.233876
-0.18062
-0.124927
-0.0657188
-1.881e-07
-0.187083
-0.152881
-0.117857
-0.0812699
-0.0421955
-1.881e-07
-0.0817395
-0.0662468
-0.0505873
-0.0344471
-0.0171542
-1.881e-07
-0.511554
-0.554062
-0.575324
-0.573385
-0.54656
-0.416741
-0.44958
-0.464205
-0.458591
-0.430478
-0.319553
-0.342759
-0.351089
-0.342213
-0.313164
-0.21841
-0.231723
-0.234789
-0.224549
-0.195588
-0.112516
-0.11673
-0.113487
-0.10185
-0.0761608
2.9e-07
9e-08
2.1e-07
2.1e-07
2.1e-07
-0.511554
-0.554062
-0.575324
-0.573385
-0.54656
-0.416741
-0.44958
-0.464205
-0.458591
-0.430478
-0.319553
-0.342759
-0.351089
-0.342213
-0.313164
-0.21841
-0.231723
-0.234789
-0.224549
-0.195588
-0.112516
-0.11673
-0.113487
-0.10185
-0.0761608
2.9e-07
9e-08
2.1e-07
2.1e-07
2.1e-07
-0.493434
-0.413529
-0.307692
-0.183972
-0.0673175
-0.378327
-0.301885
-0.204093
-0.100802
-0.0244969
-0.261895
-0.18941
-0.105861
-0.0346533
1.996e-05
-0.144988
-0.0830029
-0.028543
0.00317385
0.0059736
-0.0394456
-0.00855996
0.00683964
0.00970247
0.00161593
2.1e-07
2.1e-07
2.1e-07
2.1e-07
2.1e-07
-0.493434
-0.413529
-0.307692
-0.183972
-0.0673175
-0.378327
-0.301885
-0.204093
-0.100802
-0.0244969
-0.261895
-0.18941
-0.105861
-0.0346533
1.996e-05
-0.144988
-0.0830029
-0.028543
0.00317385
0.0059736
-0.0394456
-0.00855996
0.00683964
0.00970247
0.00161593
2.1e-07
2.1e-07
2.1e-07
2.1e-07
2.1e-07
2.1e-07
-0.00959047
-0.0101872
-0.0078816
-0.0092717
-0.0210068
2.1e-07
-0.019411
-0.0284915
-0.0307119
-0.0277946
-0.0225202
2.1e-07
-0.0309389
-0.051907
-0.0629673
-0.0632553
-0.0520145
0
-0.0441229
-0.0794154
-0.101945
-0.10846
-0.0976265
2.1e-07
-0.00959047
-0.0101872
-0.0078816
-0.0092717
-0.0210068
2.1e-07
-0.019411
-0.0284915
-0.0307119
-0.0277946
-0.0225202
2.1e-07
-0.0309389
-0.051907
-0.0629673
-0.0632553
-0.0520145
0
-0.0441229
-0.0794154
-0.101945
-0.10846
-0.0976265
-0.0654018
0.0853112
0.266016
0.441909
0.576769
0.630501
0.594848
0.485314
0.332733
0.171534
0.0140229
-0.137131
-0.285118
-0.423434
-0.527446
-0.571209
-0.545344
-0.458403
-0.332428
-0.194885
-0.0577696
0.0741764
0.201268
0.32636
0.446678
0.54979
0.619359
0.644072
0.62155
0.558191
0.467594
0.365324
0.260956
0.15899
0.0603585
-0.0368493
-0.134513
-0.231343
-0.321536
-0.39433
-0.440008
-0.452664
-0.431327
-0.379987
-0.306636
-0.221164
-0.132069
-0.0430722
0.0441124
0.129599
0.21422
0.297569
0.376346
0.444255
0.494466
0.521532
0.522637
0.498041
0.450982
0.386993
0.312744
0.234489
0.155417
0.0768619
-0.00053919
-0.07634
-0.149001
-0.215136
-0.270046
-0.308975
-0.328338
-0.32645
-0.303768
-0.262734
-0.207248
-0.14194
-0.0714276
0.00061112
0.0727642
0.144092
0.213179
0.277917
0.335266
0.381569
0.413371
0.428225
0.425153
0.404769
0.36911
0.321207
0.264515
0.202454
0.138329
0.0742038
0.0113056
-0.0483028
-0.102075
-0.146546
-0.180704
0.0243724
-0.0659243
0.0932867
0.272975
0.448478
0.601531
0.686762
0.680354
0.591896
0.451064
0.293312
0.134573
-0.0210361
-0.173493
-0.314408
-0.41874
-0.462019
-0.435742
-0.348101
-0.22079
-0.0823876
0.0539584
0.182805
0.304617
0.423094
0.537411
0.636895
0.705753
0.732671
0.714833
0.658045
0.574702
0.478484
0.378502
0.279211
0.181464
0.0836257
-0.0154386
-0.113938
-0.206265
-0.281009
-0.328263
-0.342022
-0.32117
-0.269367
-0.194317
-0.106303
-0.0152021
0.0751948
0.162676
0.247185
0.329931
0.410927
0.487442
0.553728
0.603143
0.630237
0.632204
0.609186
0.564286
0.502942
0.43141
0.35519
0.277374
0.19925
0.12152
0.044791
-0.0290829
-0.0964088
-0.152279
-0.191938
-0.21181
-0.210216
-0.187593
-0.146365
-0.0904336
-0.0244809
0.0466814
0.118891
0.190749
0.261164
0.328974
0.392364
0.448591
0.494125
0.52555
0.54036
0.537542
0.517623
0.482548
0.435227
0.379057
0.317322
0.253123
0.188604
0.124878
0.0640842
0.0090734
-0.0366134
-0.0719098
-0.0832506
-0.0289057
0.128357
0.298432
0.456679
0.605052
0.71486
0.743011
0.686281
0.56803
0.421391
0.266615
0.111023
-0.0422312
-0.184265
-0.291049
-0.338764
-0.31836
-0.236625
-0.11381
0.0223624
0.156262
0.281158
0.397201
0.508148
0.61539
0.711564
0.781892
0.814193
0.804734
0.757854
0.684091
0.59551
0.500983
0.405218
0.309331
0.212194
0.113263
0.0144985
-0.0790966
-0.156239
-0.206576
-0.223697
-0.206314
-0.157374
-0.083651
0.00493089
0.0970646
0.188174
0.275497
0.35862
0.438901
0.516992
0.590935
0.655713
0.704868
0.732972
0.737155
0.717334
0.676225
0.618833
0.550934
0.477494
0.401545
0.324499
0.247068
0.1701
0.0956055
0.0274779
-0.0293169
-0.0699826
-0.090962
-0.0905376
-0.0689851
-0.0285872
0.0268232
0.0925584
0.163587
0.235642
0.306896
0.3761
0.442295
0.504088
0.559028
0.60377
0.634903
0.649929
0.647766
0.628778
0.59476
0.54853
0.493317
0.432301
0.368368
0.303725
0.239514
0.177865
0.121846
0.0751365
0.038736
0.0260908
0.0441602
0.188746
0.343635
0.483652
0.610052
0.722975
0.782599
0.76359
0.676932
0.55033
0.405885
0.255124
0.104404
-0.0370674
-0.147712
-0.203819
-0.194628
-0.124867
-0.01174
0.119118
0.249115
0.369842
0.480535
0.584213
0.683663
0.77579
0.848758
0.888939
0.890306
0.855569
0.793267
0.713868
0.62598
0.53474
0.441862
0.34687
0.249508
0.151694
0.0579807
-0.0214489
-0.0757886
-0.0982642
-0.0871216
-0.0441829
0.0251379
0.111905
0.204059
0.295283
0.382123
0.463751
0.541482
0.616401
0.687497
0.750803
0.800318
0.830371
0.837845
0.822363
0.786208
0.733798
0.67035
0.600425
0.527021
0.451687
0.375268
0.298842
0.224353
0.155826
0.098246
0.0563968
0.033839
0.0323452
0.0518773
0.0904439
0.144404
0.209045
0.279363
0.35087
0.42122
0.489012
0.553443
0.613438
0.666945
0.710894
0.741908
0.757401
0.756215
0.738565
0.706059
0.66136
0.607552
0.547665
0.484388
0.419869
0.355542
0.293447
0.23677
0.189255
0.151872
0.137859
0.145005
0.266822
0.400531
0.525242
0.633003
0.730366
0.803147
0.820541
0.771204
0.672789
0.54599
0.405408
0.260347
0.121095
0.00605445
-0.0612625
-0.0680871
-0.014857
0.0850632
0.207827
0.332572
0.449016
0.555199
0.652962
0.745057
0.831687
0.906023
0.955173
0.969532
0.948744
0.899451
0.830658
0.750631
0.664968
0.576182
0.484533
0.39001
0.294255
0.201467
0.120362
0.0617217
0.0323861
0.0349313
0.0692867
0.131864
0.214426
0.305224
0.395923
0.482084
0.562369
0.637799
0.709688
0.777854
0.839534
0.88968
0.922564
0.934376
0.924037
0.893619
0.846924
0.788587
0.722824
0.652616
0.579667
0.50495
0.429695
0.355969
0.287561
0.229436
0.186345
0.161855
0.157811
0.17448
0.21036
0.262129
0.325048
0.394035
0.464565
0.533769
0.600053
0.662653
0.720759
0.772716
0.815835
0.846933
0.863231
0.863308
0.847301
0.816703
0.773964
0.721976
0.663601
0.601376
0.537374
0.473263
0.411177
0.354257
0.306238
0.268091
0.252753
0.259081
0.352679
0.462086
0.570888
0.667459
0.750229
0.817189
0.853217
0.839994
0.776267
0.675081
0.551306
0.416342
0.281902
0.164338
0.0855625
0.0605699
0.094092
0.177291
0.288401
0.405929
0.517756
0.620262
0.713951
0.800585
0.88154
0.954366
1.00999
1.03722
1.03202
0.997598
0.941215
0.87066
0.791936
0.708402
0.621139
0.530473
0.437771
0.346775
0.264922
0.20207
0.165079
0.157711
0.182067
0.236321
0.312702
0.400229
0.489451
0.574741
0.654011
0.727657
0.797016
0.862506
0.922458
0.972847
1.00859
1.02517
1.0209
0.996981
0.95667
0.904023
0.843037
0.776664
0.706726
0.634477
0.561126
0.488809
0.421084
0.362828
0.318638
0.291933
0.284804
0.298123
0.330841
0.379793
0.440342
0.507479
0.576663
0.644542
0.709295
0.770107
0.826386
0.876769
0.918976
0.950108
0.967379
0.969078
0.955106
0.926818
0.886437
0.836655
0.780141
0.719369
0.656351
0.592922
0.531372
0.474713
0.426641
0.388001
0.13409
-0.0654018
0.0853112
0.266016
0.441909
0.576769
0.630501
0.594848
0.485314
0.332733
0.171534
0.0140229
-0.137131
-0.285118
-0.423434
-0.527446
-0.571209
-0.545344
-0.458403
-0.332428
-0.194885
-0.0577696
0.0741764
0.201268
0.32636
0.446678
0.54979
0.619359
0.644072
0.62155
0.558191
0.467594
0.365324
0.260956
0.15899
0.0603585
-0.0368493
-0.134513
-0.231343
-0.321536
-0.39433
-0.440008
-0.452664
-0.431327
-0.379987
-0.306636
-0.221164
-0.132069
-0.0430722
0.0441124
0.129599
0.21422
0.297569
0.376346
0.444255
0.494466
0.521532
0.522637
0.498041
0.450982
0.386993
0.312744
0.234489
0.155417
0.0768619
-0.00053919
-0.07634
-0.149001
-0.215136
-0.270046
-0.308975
-0.328338
-0.32645
-0.303768
-0.262734
-0.207248
-0.14194
-0.0714276
0.00061112
0.0727642
0.144092
0.213179
0.277917
0.335266
0.381569
0.413371
0.428225
0.425153
0.404769
0.36911
0.321207
0.264515
0.202454
0.138329
0.0742038
0.0113056
-0.0483028
-0.102075
-0.146546
-0.180704
0.0243724
-0.0659243
0.0932867
0.272975
0.448478
0.601531
0.686762
0.680354
0.591896
0.451064
0.293312
0.134573
-0.0210361
-0.173493
-0.314408
-0.41874
-0.462019
-0.435742
-0.348101
-0.22079
-0.0823876
0.0539584
0.182805
0.304617
0.423094
0.537411
0.636895
0.705753
0.732671
0.714833
0.658045
0.574702
0.478484
0.378502
0.279211
0.181464
0.0836257
-0.0154386
-0.113938
-0.206265
-0.281009
-0.328263
-0.342022
-0.32117
-0.269367
-0.194317
-0.106303
-0.0152021
0.0751948
0.162676
0.247185
0.329931
0.410927
0.487442
0.553728
0.603143
0.630237
0.632204
0.609186
0.564286
0.502942
0.43141
0.35519
0.277374
0.19925
0.12152
0.044791
-0.0290829
-0.0964088
-0.152279
-0.191938
-0.21181
-0.210216
-0.187593
-0.146365
-0.0904336
-0.0244809
0.0466814
0.118891
0.190749
0.261164
0.328974
0.392364
0.448591
0.494125
0.52555
0.54036
0.537542
0.517623
0.482548
0.435227
0.379057
0.317322
0.253123
0.188604
0.124878
0.0640842
0.0090734
-0.0366134
-0.0719098
-0.0832506
-0.0289057
0.128357
0.298432
0.456679
0.605052
0.71486
0.743011
0.686281
0.56803
0.421391
0.266615
0.111023
-0.0422312
-0.184265
-0.291049
-0.338764
-0.31836
-0.236625
-0.11381
0.0223624
0.156262
0.281158
0.397201
0.508148
0.61539
0.711564
0.781892
0.814193
0.804734
0.757854
0.684091
0.59551
0.500983
0.405218
0.309331
0.212194
0.113263
0.0144985
-0.0790966
-0.156239
-0.206576
-0.223697
-0.206314
-0.157374
-0.083651
0.00493089
0.0970646
0.188174
0.275497
0.35862
0.438901
0.516992
0.590935
0.655713
0.704868
0.732972
0.737155
0.717334
0.676225
0.618833
0.550934
0.477494
0.401545
0.324499
0.247068
0.1701
0.0956055
0.0274779
-0.0293169
-0.0699826
-0.090962
-0.0905376
-0.0689851
-0.0285872
0.0268232
0.0925584
0.163587
0.235642
0.306896
0.3761
0.442295
0.504088
0.559028
0.60377
0.634903
0.649929
0.647766
0.628778
0.59476
0.54853
0.493317
0.432301
0.368368
0.303725
0.239514
0.177865
0.121846
0.0751365
0.038736
0.0260908
0.0441602
0.188746
0.343635
0.483652
0.610052
0.722975
0.782599
0.76359
0.676932
0.55033
0.405885
0.255124
0.104404
-0.0370674
-0.147712
-0.203819
-0.194628
-0.124867
-0.01174
0.119118
0.249115
0.369842
0.480535
0.584213
0.683663
0.77579
0.848758
0.888939
0.890306
0.855569
0.793267
0.713868
0.62598
0.53474
0.441862
0.34687
0.249508
0.151694
0.0579807
-0.0214489
-0.0757886
-0.0982642
-0.0871216
-0.0441829
0.0251379
0.111905
0.204059
0.295283
0.382123
0.463751
0.541482
0.616401
0.687497
0.750803
0.800318
0.830371
0.837845
0.822363
0.786208
0.733798
0.67035
0.600425
0.527021
0.451687
0.375268
0.298842
0.224353
0.155826
0.098246
0.0563968
0.033839
0.0323452
0.0518773
0.0904439
0.144404
0.209045
0.279363
0.35087
0.42122
0.489012
0.553443
0.613438
0.666945
0.710894
0.741908
0.757401
0.756215
0.738565
0.706059
0.66136
0.607552
0.547665
0.484388
0.419869
0.355542
0.293447
0.23677
0.189255
0.151872
0.137859
0.145005
0.266822
0.400531
0.525242
0.633003
0.730366
0.803147
0.820541
0.771204
0.672789
0.54599
0.405408
0.260347
0.121095
0.00605445
-0.0612625
-0.0680871
-0.014857
0.0850632
0.207827
0.332572
0.449016
0.555199
0.652962
0.745057
0.831687
0.906023
0.955173
0.969532
0.948744
0.899451
0.830658
0.750631
0.664968
0.576182
0.484533
0.39001
0.294255
0.201467
0.120362
0.0617217
0.0323861
0.0349313
0.0692867
0.131864
0.214426
0.305224
0.395923
0.482084
0.562369
0.637799
0.709688
0.777854
0.839534
0.88968
0.922564
0.934376
0.924037
0.893619
0.846924
0.788587
0.722824
0.652616
0.579667
0.50495
0.429695
0.355969
0.287561
0.229436
0.186345
0.161855
0.157811
0.17448
0.21036
0.262129
0.325048
0.394035
0.464565
0.533769
0.600053
0.662653
0.720759
0.772716
0.815835
0.846933
0.863231
0.863308
0.847301
0.816703
0.773964
0.721976
0.663601
0.601376
0.537374
0.473263
0.411177
0.354257
0.306238
0.268091
0.252753
0.259081
0.352679
0.462086
0.570888
0.667459
0.750229
0.817189
0.853217
0.839994
0.776267
0.675081
0.551306
0.416342
0.281902
0.164338
0.0855625
0.0605699
0.094092
0.177291
0.288401
0.405929
0.517756
0.620262
0.713951
0.800585
0.88154
0.954366
1.00999
1.03722
1.03202
0.997598
0.941215
0.87066
0.791936
0.708402
0.621139
0.530473
0.437771
0.346775
0.264922
0.20207
0.165079
0.157711
0.182067
0.236321
0.312702
0.400229
0.489451
0.574741
0.654011
0.727657
0.797016
0.862506
0.922458
0.972847
1.00859
1.02517
1.0209
0.996981
0.95667
0.904023
0.843037
0.776664
0.706726
0.634477
0.561126
0.488809
0.421084
0.362828
0.318638
0.291933
0.284804
0.298123
0.330841
0.379793
0.440342
0.507479
0.576663
0.644542
0.709295
0.770107
0.826386
0.876769
0.918976
0.950108
0.967379
0.969078
0.955106
0.926818
0.886437
0.836655
0.780141
0.719369
0.656351
0.592922
0.531372
0.474713
0.426641
0.388001
0.13409
0.504959
0.549543
0.615586
0.691523
0.767296
0.835138
0.888933
0.921795
0.932777
0.918915
0.873433
0.796937
0.696764
0.583513
0.470538
0.374357
0.31437
0.304954
0.347355
0.427526
0.526259
0.627526
0.722997
0.810579
0.890675
0.963827
1.03022
1.0888
1.13497
1.16107
1.16118
1.1357
1.08954
1.02883
0.958808
0.88282
0.802508
0.71886
0.63366
0.550806
0.476943
0.419725
0.385276
0.377963
0.401466
0.452759
0.524274
0.60607
0.689335
0.768572
0.841734
0.908983
0.971415
1.02958
1.0825
1.12719
1.15946
1.17546
1.17323
1.15338
1.1184
1.07162
1.01641
0.955397
0.890355
0.82268
0.753794
0.685966
0.622647
0.568198
0.526694
0.50128
0.494288
0.506665
0.537215
0.582982
0.639787
0.703011
0.768272
0.832089
0.892481
0.948616
1.00012
1.04605
1.0846
1.11325
1.12948
1.13162
1.11934
1.0936
1.05628
1.00971
0.956266
0.898219
0.837525
0.776125
0.716443
0.661273
0.614024
0.575307
0.319629
0.788638
0.819591
0.864347
0.915999
0.967447
1.01275
1.04672
1.06318
1.05802
1.03332
0.99134
0.931146
0.853507
0.765068
0.677802
0.607644
0.572147
0.580097
0.625761
0.696068
0.777131
0.858706
0.936222
1.00846
1.07519
1.13599
1.1901
1.2365
1.27301
1.29531
1.29867
1.2812
1.24478
1.19369
1.13243
1.06441
0.991765
0.916026
0.839309
0.765369
0.699786
0.648968
0.619006
0.614555
0.637317
0.684548
0.749561
0.823584
0.898707
0.970009
1.03571
1.09585
1.15115
1.20207
1.24812
1.2873
1.3163
1.33163
1.33122
1.31516
1.28524
1.24413
1.19468
1.13924
1.07958
1.0172
0.953669
0.891261
0.833147
0.78316
0.744984
0.721719
0.715429
0.726627
0.754262
0.795937
0.848049
0.906353
0.966643
1.02546
1.08078
1.13175
1.17813
1.21935
1.25408
1.28019
1.29534
1.29788
1.28729
1.26421
1.23013
1.18707
1.13711
1.08235
1.02471
0.966169
0.909121
0.856122
0.810323
0.77226
0.123887
1.05277
1.07385
1.10393
1.13845
1.17269
1.20221
1.22306
1.23114
1.22221
1.19559
1.15435
1.1015
1.03971
0.974138
0.914161
0.872146
0.857537
0.871934
0.910939
0.966061
1.02813
1.09154
1.15342
1.2123
1.26714
1.31691
1.36041
1.39646
1.42393
1.44115
1.44538
1.43387
1.40626
1.36464
1.31237
1.25268
1.18812
1.12075
1.05301
0.988421
0.931714
0.888338
0.863492
0.861203
0.882816
0.925815
0.983966
1.04938
1.11532
1.17783
1.23553
1.28835
1.33663
1.38052
1.41977
1.45326
1.47882
1.49358
1.49517
1.48288
1.45782
1.42213
1.37829
1.32849
1.27447
1.21783
1.16022
1.10384
1.05152
1.00661
0.972318
0.951315
0.945328
0.954929
0.979415
1.0168
1.06388
1.11671
1.17136
1.22456
1.27435
1.31989
1.36099
1.39735
1.42807
1.4515
1.46558
1.46861
1.4598
1.43945
1.40876
1.36941
1.32328
1.2723
1.21834
1.16335
1.10962
1.05947
1.01577
0.978952
0.329841
1.30425
1.31809
1.33794
1.3607
1.38311
1.40198
1.41432
1.4174
1.40882
1.38734
1.35397
1.3116
1.26429
1.21749
1.17842
1.15424
1.1485
1.16121
1.19009
1.23009
1.27622
1.32493
1.37383
1.42118
1.46558
1.5058
1.54063
1.56873
1.58882
1.60007
1.60181
1.59287
1.57211
1.53956
1.49678
1.4462
1.39038
1.3318
1.27317
1.21779
1.16969
1.13349
1.11391
1.11456
1.13592
1.17486
1.22562
1.28161
1.33769
1.39101
1.44058
1.48619
1.52781
1.56529
1.59832
1.62624
1.64786
1.66124
1.66423
1.6556
1.63548
1.6053
1.56712
1.523
1.47475
1.42405
1.37259
1.32244
1.27607
1.23632
1.20593
1.18718
1.18166
1.18993
1.21146
1.24456
1.28639
1.33338
1.38194
1.42911
1.4731
1.51312
1.54899
1.58053
1.60718
1.62775
1.64055
1.64395
1.63695
1.61948
1.59234
1.55693
1.51493
1.46814
1.41837
1.36748
1.31762
1.27089
1.22983
1.1948
0.114128
1.54771
1.55638
1.56909
1.58365
1.5978
1.60926
1.61594
1.61603
1.60821
1.59193
1.56775
1.53749
1.50426
1.47227
1.4464
1.43072
1.42728
1.43615
1.4563
1.48517
1.51972
1.55732
1.59585
1.6336
1.66914
1.70123
1.72876
1.7506
1.76552
1.77253
1.77128
1.76186
1.74417
1.71802
1.68368
1.64234
1.59587
1.5466
1.49723
1.45094
1.41138
1.38265
1.36899
1.37295
1.39371
1.4279
1.47071
1.5171
1.5635
1.60802
1.6499
1.68871
1.72417
1.75587
1.78339
1.80623
1.8238
1.83506
1.83851
1.83281
1.81738
1.79275
1.7604
1.72213
1.67974
1.635
1.58965
1.54561
1.50504
1.47035
1.44382
1.4274
1.42247
1.42959
1.44837
1.47738
1.51404
1.55511
1.59742
1.6384
1.67654
1.71114
1.74199
1.76891
1.79156
1.80917
1.82046
1.82401
1.81871
1.80414
1.78069
1.74945
1.71185
1.66958
1.62436
1.57797
1.53237
1.48946
1.45147
1.4187
0.33845
1.78569
1.79069
1.79839
1.80728
1.81577
1.82227
1.82532
1.8237
1.81665
1.80399
1.78632
1.76501
1.74216
1.72052
1.70307
1.69243
1.69022
1.69686
1.71176
1.73338
1.75971
1.78881
1.81899
1.8488
1.87696
1.90234
1.92391
1.9407
1.95176
1.95618
1.95341
1.94351
1.9269
1.90399
1.87523
1.8413
1.80338
1.76324
1.72324
1.68628
1.65576
1.63526
1.6277
1.63395
1.65292
1.68173
1.71638
1.75358
1.79114
1.82775
1.86267
1.89531
1.92518
1.95177
1.97459
1.99312
2.00692
2.01553
2.01823
2.01413
2.00248
1.98311
1.95671
1.92454
1.88822
1.8495
1.81013
1.77195
1.73688
1.70694
1.68403
1.66984
1.66569
1.67206
1.68853
1.71379
1.74547
1.78069
1.81676
1.85162
1.88407
1.91351
1.93968
1.96235
1.98124
1.99586
2.00536
2.00867
2.00474
1.99293
1.97323
1.94633
1.91339
1.87591
1.83551
1.79385
1.75276
1.71391
1.67928
1.64907
0.107233
2.01981
2.02223
2.02647
2.0315
2.03618
2.03941
2.04019
2.03771
2.03152
2.02159
2.00846
1.99315
1.97717
1.96234
1.95063
1.94375
1.94285
1.94828
1.95968
1.97613
1.9963
2.01883
2.04241
2.06584
2.08802
2.10797
2.12478
2.13765
2.14582
2.14863
2.14559
2.13651
2.12158
2.10134
2.07651
2.04799
2.01691
1.98476
1.9535
1.92564
1.90396
1.89098
1.88785
1.89462
1.91043
1.93306
1.95997
1.9892
2.01931
2.04919
2.07807
2.10524
2.13014
2.15226
2.17109
2.18611
2.19688
2.20307
2.20437
2.20048
2.191
2.17566
2.15459
2.12844
2.09834
2.06578
2.03239
1.99988
1.97
1.94452
1.92505
1.91313
1.90997
1.91593
1.93047
1.95227
1.97915
2.00868
2.03875
2.06781
2.09495
2.11964
2.14157
2.16044
2.17595
2.18775
2.19531
2.19793
2.19483
2.18535
2.16921
2.14668
2.11856
2.08608
2.05069
2.01393
1.97747
1.94281
1.91168
1.88423
0.34357
2.2512
2.25184
2.25372
2.25613
2.25827
2.25939
2.2588
2.25598
2.25065
2.24287
2.23306
2.22198
2.2107
2.2005
2.19267
2.18837
2.18835
2.19291
2.20184
2.21454
2.23013
2.24764
2.26604
2.28439
2.30177
2.31737
2.33042
2.34025
2.34626
2.34798
2.34508
2.33739
2.32498
2.3082
2.28767
2.26432
2.23932
2.21409
2.19032
2.16995
2.15486
2.14643
2.14514
2.1508
2.16278
2.17984
2.20051
2.22345
2.24753
2.27181
2.2955
2.31792
2.33851
2.35677
2.37222
2.38438
2.39284
2.39725
2.39736
2.3931
2.38447
2.37148
2.35423
2.33306
2.30863
2.282
2.25447
2.22752
2.2027
2.18162
2.16578
2.15646
2.15451
2.16021
2.17303
2.19151
2.21373
2.23786
2.26238
2.28617
2.30853
2.32899
2.34717
2.36271
2.37529
2.38459
2.39025
2.39189
2.38903
2.3812
2.36805
2.34957
2.32619
2.29879
2.26854
2.2368
2.20504
2.17463
2.14709
2.12257
0.103817
2.48065
2.48005
2.48035
2.48101
2.4815
2.48129
2.47991
2.47702
2.47249
2.46637
2.459
2.45095
2.44296
2.43593
2.43073
2.42814
2.42868
2.43255
2.43964
2.44955
2.46168
2.47531
2.48967
2.50402
2.5176
2.52975
2.53985
2.54734
2.55176
2.55275
2.55009
2.54371
2.53371
2.52037
2.50419
2.48593
2.46656
2.44729
2.42944
2.41439
2.40334
2.39713
2.39611
2.40024
2.40915
2.42209
2.43809
2.45617
2.47543
2.49507
2.51438
2.53276
2.54967
2.56464
2.57724
2.58707
2.59377
2.597
2.59651
2.59222
2.58421
2.57266
2.55785
2.54016
2.52009
2.49841
2.47611
2.45437
2.43448
2.41786
2.4058
2.39927
2.39872
2.4042
2.4151
2.43015
2.44792
2.46713
2.48676
2.506
2.52424
2.54101
2.55592
2.56859
2.57868
2.5859
2.58995
2.5906
2.58759
2.58069
2.56967
2.55449
2.53532
2.51272
2.48751
2.46076
2.43373
2.40759
2.38371
2.36222
0.345101
2.70868
2.70728
2.70654
2.70607
2.70551
2.70448
2.70268
2.6999
2.69604
2.6912
2.68563
2.67973
2.67405
2.6692
2.66578
2.66432
2.66517
2.66847
2.67417
2.68198
2.69147
2.70211
2.71334
2.72453
2.73513
2.74458
2.75237
2.75806
2.7613
2.76182
2.75946
2.7542
2.74616
2.73562
2.723
2.70892
2.69412
2.67952
2.66607
2.65474
2.64638
2.64162
2.64077
2.64386
2.65066
2.66064
2.67316
2.68746
2.70286
2.71869
2.73436
2.74934
2.76315
2.77537
2.78562
2.79354
2.79884
2.80126
2.80059
2.79673
2.78972
2.7797
2.767
2.75203
2.73534
2.71761
2.69966
2.68245
2.66702
2.65448
2.64576
2.64147
2.6418
2.64656
2.65524
2.66696
2.68079
2.69586
2.71144
2.72688
2.74164
2.75527
2.76738
2.7776
2.78563
2.79117
2.79397
2.79383
2.7906
2.7842
2.77458
2.76175
2.74586
2.72728
2.70655
2.68444
2.66191
2.63993
2.61963
2.60117
0.104326
2.93565
2.93376
2.93237
2.9312
2.92999
2.9285
2.92652
2.92391
2.92064
2.91678
2.91253
2.90818
2.90411
2.90076
2.89854
2.89781
2.89881
2.90164
2.90624
2.91243
2.91989
2.92823
2.937
2.94574
2.954
2.96132
2.96733
2.97165
2.97403
2.97425
2.97221
2.96791
2.96147
2.95314
2.94327
2.93237
2.92101
2.90988
2.89969
2.89114
2.88485
2.88128
2.88069
2.88313
2.88842
2.89622
2.90606
2.9174
2.92971
2.94245
2.95513
2.96729
2.97852
2.98845
2.99676
3.00313
3.00733
3.00916
3.00847
3.0052
2.99936
2.99108
2.9806
2.96832
2.95472
2.94043
2.92617
2.91272
2.9009
2.89147
2.88505
2.88197
2.88233
2.88597
2.89251
2.90142
2.91208
2.92385
2.93618
2.9485
2.96036
2.97134
2.98108
2.98925
2.99556
2.99977
3.00165
3.00101
2.99774
2.9918
2.98321
2.97207
2.95858
2.94304
2.92588
2.90764
2.88906
2.87084
2.85391
2.83842
0.343583
3.1618
3.15965
3.15788
3.1563
3.15473
3.15301
3.15099
3.1486
3.14582
3.14272
3.13944
3.1362
3.13327
3.13095
3.12954
3.12926
3.1303
3.13271
3.13645
3.14138
3.14726
3.15381
3.16067
3.1675
3.17392
3.1796
3.18422
3.18751
3.18925
3.18929
3.18756
3.18408
3.17895
3.17238
3.16467
3.15621
3.14747
3.13897
3.13122
3.12477
3.12005
3.11742
3.11707
3.11903
3.12321
3.12936
3.13714
3.14616
3.156
3.16623
3.17647
3.18631
3.19541
3.20346
3.21017
3.21529
3.21863
3.22002
3.21937
3.21664
3.21187
3.20517
3.19677
3.18697
3.17618
3.16491
3.15375
3.14329
3.13415
3.12686
3.12185
3.11935
3.11945
3.12206
3.12693
3.1337
3.14192
3.15112
3.16084
3.17063
3.18009
3.18886
3.19663
3.20309
3.20801
3.21115
3.21234
3.21142
3.20829
3.20293
3.19535
3.18568
3.17412
3.16097
3.14659
3.13145
3.1161
3.1011
3.08717
3.07446
0.105572
3.38733
3.38507
3.38312
3.38133
3.3796
3.37779
3.37584
3.37368
3.37131
3.36879
3.36623
3.36379
3.36167
3.36006
3.35918
3.35918
3.36018
3.36222
3.36527
3.3692
3.37386
3.379
3.38438
3.38971
3.39471
3.39911
3.40266
3.40516
3.40643
3.40637
3.40493
3.40213
3.39806
3.3929
3.3869
3.38035
3.37362
3.36712
3.36123
3.35636
3.35283
3.35091
3.35073
3.35234
3.35567
3.36055
3.36673
3.37392
3.38179
3.39001
3.39825
3.40619
3.41354
3.42004
3.42546
3.42957
3.43222
3.43329
3.43271
3.43045
3.42658
3.42119
3.41448
3.40672
3.39822
3.38939
3.38067
3.37252
3.36538
3.35965
3.35566
3.35359
3.35352
3.35539
3.35905
3.36422
3.37058
3.37775
3.38539
3.39313
3.40062
3.40758
3.41372
3.41878
3.42256
3.42487
3.42555
3.42448
3.42159
3.41686
3.41031
3.40205
3.39226
3.3812
3.36919
3.35663
3.34397
3.33167
3.32029
3.30996
0.342744
3.61235
3.6101
3.60809
3.60624
3.60447
3.60268
3.60084
3.5989
3.59688
3.59482
3.59281
3.59095
3.58939
3.58827
3.58774
3.58789
3.58882
3.59054
3.59301
3.59616
3.59985
3.6039
3.60811
3.61227
3.61616
3.61957
3.62231
3.62421
3.62514
3.62503
3.62384
3.6216
3.61839
3.61435
3.60968
3.60462
3.59945
3.59448
3.59
3.58633
3.58369
3.5823
3.58226
3.58359
3.58627
3.59016
3.59509
3.60082
3.60712
3.61371
3.62034
3.62673
3.63266
3.6379
3.64225
3.64555
3.64766
3.6485
3.64799
3.64615
3.64301
3.63869
3.63334
3.62718
3.62047
3.61352
3.60669
3.60031
3.59472
3.59022
3.58705
3.58536
3.58521
3.58658
3.58934
3.5933
3.59821
3.6038
3.60978
3.61585
3.62176
3.62723
3.63205
3.63598
3.63885
3.6405
3.64081
3.63968
3.63705
3.63293
3.62734
3.62038
3.6122
3.60302
3.5931
3.58276
3.57239
3.56235
3.55307
3.54464
0.106764
3.83697
3.8348
3.83284
3.83102
3.82929
3.82758
3.82589
3.82417
3.82245
3.82075
3.81915
3.81771
3.81656
3.81577
3.81546
3.81569
3.81652
3.81796
3.81996
3.82248
3.8254
3.82859
3.83189
3.83514
3.83817
3.84081
3.84292
3.84436
3.84505
3.84492
3.84395
3.84217
3.83964
3.8365
3.83287
3.82897
3.825
3.8212
3.81781
3.81504
3.81308
3.81208
3.81213
3.81325
3.81542
3.81853
3.82247
3.82705
3.83209
3.83737
3.84268
3.84782
3.85258
3.85679
3.86028
3.86293
3.86461
3.86526
3.86484
3.86335
3.86083
3.85738
3.85312
3.84824
3.84294
3.83747
3.83211
3.8271
3.82272
3.81918
3.81666
3.81529
3.81512
3.81611
3.81819
3.82122
3.82501
3.82935
3.83401
3.83877
3.84339
3.84767
3.85141
3.85443
3.85658
3.85773
3.85777
3.85664
3.85429
3.85072
3.84598
3.84015
3.83335
3.82577
3.81763
3.80918
3.80072
3.79253
3.78495
3.77803
0.341191
4.06125
4.05922
4.05736
4.05564
4.05401
4.05243
4.05089
4.04938
4.04791
4.04651
4.04522
4.04411
4.04324
4.04268
4.04251
4.04277
4.04349
4.04468
4.0463
4.04831
4.05062
4.05313
4.05572
4.05826
4.06061
4.06265
4.06427
4.06537
4.06588
4.06575
4.06497
4.06356
4.06159
4.05914
4.05634
4.05333
4.05029
4.0474
4.04483
4.04275
4.0413
4.0406
4.04071
4.04165
4.04341
4.0459
4.04905
4.05271
4.05673
4.06095
4.06521
4.06932
4.07313
4.0765
4.0793
4.08141
4.08275
4.08327
4.08292
4.08173
4.07972
4.07697
4.0736
4.06974
4.06556
4.06127
4.05706
4.05313
4.04969
4.04691
4.04491
4.0438
4.04362
4.04434
4.0459
4.04822
4.05113
4.05449
4.0581
4.0618
4.06539
4.06871
4.07159
4.07389
4.07548
4.07625
4.07611
4.07502
4.07294
4.06988
4.06588
4.06101
4.05538
4.04914
4.04247
4.03557
4.02866
4.02199
4.01579
4.01012
0.108244
4.28524
4.28338
4.28167
4.28009
4.27859
4.27716
4.2758
4.27449
4.27324
4.27207
4.27104
4.27016
4.2695
4.2691
4.26901
4.26927
4.26988
4.27085
4.27216
4.27376
4.27558
4.27755
4.27957
4.28155
4.28337
4.28495
4.2862
4.28703
4.28741
4.28729
4.28667
4.28557
4.28403
4.28214
4.27998
4.27767
4.27535
4.27316
4.27121
4.26966
4.2686
4.26812
4.26826
4.26905
4.27047
4.27248
4.27499
4.2779
4.28111
4.28447
4.28786
4.29114
4.29418
4.29686
4.29909
4.30078
4.30184
4.30225
4.30197
4.30102
4.29943
4.29726
4.2946
4.29156
4.28828
4.28491
4.28162
4.27854
4.27585
4.27366
4.27208