/*--------------------------------*- C++ -*----------------------------------*\
| =========                 |                                                 |
| \\      /  F ield         | OpenFOAM: The Open Source CFD Toolbox           |
|  \\    /   O peration     | Version:  2506                                  |
|   \\  /    A nd           | Website:  www.openfoam.com                      |
|    \\/     M anipulation  |                                                 |
\*---------------------------------------------------------------------------*/
FoamFile
{
    version     2.0;
    format      ascii;
    arch        "LSB;label=32;scalar=64";
    class       volVectorField;
    location    "60.001527662331064";
    object      U;
}
// * * * * * * * * * * * * * * * * * * * * * * * * * * * * * * * * * * * * * //

dimensions      [0 1 -1 0 0 0 0];

internalField   nonuniform List<vector> 
9700
(
(1.07841 0.000848916 4.10579e-22)
(1.07876 0.00266868 2.29591e-24)
(1.07572 0.00104878 7.15358e-28)
(1.07941 0.00448477 -5.50902e-22)
(1.07598 0.0033425 -5.8785e-24)
(1.07391 0.00112512 -4.04039e-22)
(1.08053 0.00646285 -1.1707e-23)
(1.0765 0.00561779 -4.26266e-35)
(1.07411 0.00360932 -3.99152e-22)
(1.07158 0.00119376 0)
(1.08206 0.00857304 4.45676e-22)
(1.07739 0.00813704 1.38299e-23)
(1.07452 0.00606117 -3.10448e-21)
(1.07171 0.00385599 -1.17002e-22)
(1.06924 0.00122539 3.80448e-22)
(1.08413 0.010929 4.93004e-22)
(1.07862 0.0108563 -6.59413e-27)
(1.07522 0.00879218 -4.70083e-22)
(1.07197 0.00646851 9.02865e-35)
(1.06929 0.00398384 4.0597e-22)
(1.06683 0.0012247 2.40375e-27)
(1.0868 0.0135665 1.5217e-22)
(1.08026 0.0139466 8.40749e-27)
(1.07618 0.0117461 -4.87644e-22)
(1.07244 0.00939445 2.76115e-22)
(1.0694 0.00667295 2.84079e-21)
(1.0668 0.0040083 -2.35714e-23)
(1.06445 0.00119074 -3.29198e-22)
(1.0902 0.0165941 7.64723e-22)
(1.08239 0.0174689 2.76955e-22)
(1.07747 0.0151191 -4.3012e-22)
(1.07308 0.0125625 0)
(1.06962 0.00969696 3.3459e-22)
(1.06675 0.00670111 -1.27025e-35)
(1.06434 0.00392511 -3.05798e-22)
(1.06214 0.00112558 -2.63744e-21)
(1.09451 0.020099 -1.94727e-22)
(1.08509 0.0215906 -1.07341e-21)
(1.07913 0.0189786 -9.92065e-23)
(1.07393 0.0161936 0)
(1.06992 0.0129674 3.46706e-22)
(1.06673 0.00973934 5.53798e-23)
(1.06415 0.00654639 -2.31812e-25)
(1.06196 0.00373989 -3.06866e-21)
(1.05999 0.00103222 -2.33054e-24)
(1.10006 0.0242058 -8.33791e-22)
(1.08852 0.0264587 -4.23019e-22)
(1.08123 0.0235134 -5.9727e-21)
(1.07501 0.020359 -8.52626e-37)
(1.07032 0.0167216 5.04587e-22)
(1.06668 0.0130159 -2.66906e-26)
(1.06388 0.00951198 -4.31443e-22)
(1.06164 0.00621918 -4.16854e-22)
(1.05974 0.00346091 5.49368e-22)
(1.05802 0.000914873 2.26085e-21)
(1.10702 0.0290325 6.90321e-22)
(1.09298 0.0322873 4.26133e-23)
(1.08388 0.0288902 1.03887e-21)
(1.07637 0.0252673 2.38947e-22)
(1.0708 0.0210275 1.15188e-21)
(1.06661 0.0167772 3.38094e-26)
(1.0635 0.0126956 -4.40678e-22)
(1.06115 0.00903057 -3.14456e-21)
(1.0593 0.0057344 3.85086e-22)
(1.05773 0.00310031 2.37926e-21)
(1.0563 0.000778645 0)
(1.11434 0.0348921 4.19352e-23)
(1.09851 0.0393237 4.18631e-23)
(1.08733 0.0353651 5.25945e-21)
(1.07807 0.0311013 9.01701e-22)
(1.07137 0.0261021 5.05881e-21)
(1.06648 0.0210824 1.11692e-21)
(1.06297 0.0163453 -2.67294e-22)
(1.06045 0.0120294 -2.87308e-21)
(1.05861 0.00831744 -3.12538e-22)
(1.05718 0.00511357 -1.827e-25)
(1.05596 0.002673 -1.71803e-36)
(1.05485 0.000629185 2.30976e-22)
(1.11981 0.0424985 5.05137e-21)
(1.1036 0.0480291 2.23493e-22)
(1.09152 0.0432543 -7.12741e-22)
(1.08028 0.0381491 -3.20184e-22)
(1.07206 0.0321302 -2.11947e-21)
(1.06627 0.0261475 -1.34279e-22)
(1.06225 0.0205064 5.35108e-22)
(1.0595 0.0154581 -2.94321e-21)
(1.05763 0.0110491 5.672e-27)
(1.05632 0.00740463 2.26509e-21)
(1.05535 0.00438264 4.97546e-36)
(1.05449 0.00219581 2.63181e-22)
(1.0537 0.000472253 2.98593e-27)
(1.1237 0.0522378 -2.58736e-23)
(1.10605 0.0590784 2.52785e-34)
(1.09492 0.0529952 -6.48305e-22)
(1.08289 0.0467698 -1.13247e-21)
(1.07297 0.0394103 -4.48304e-21)
(1.06595 0.0321482 -1.723e-21)
(1.06129 0.0253849 -4.53371e-21)
(1.05824 0.0193442 -3.37863e-21)
(1.05631 0.0141593 -7.14863e-27)
(1.05512 0.00979957 2.28114e-21)
(1.05435 0.00633065 -1.86763e-36)
(1.05382 0.00357053 1.49379e-25)
(1.05333 0.00168678 -3.04365e-23)
(1.05285 0.000313115 -1.71831e-22)
(1.1296 0.0629519 1.02152e-21)
(1.10758 0.072645 -2.50001e-22)
(1.09547 0.0649902 -1.18542e-20)
(1.08435 0.057361 -1.05377e-21)
(1.07393 0.0483156 5.24255e-22)
(1.06555 0.0393732 1.80287e-22)
(1.06 0.0311377 -4.68357e-21)
(1.05659 0.0238769 -4.04872e-21)
(1.05457 0.0176559 1.54262e-21)
(1.05349 0.0125101 2.51569e-21)
(1.05297 0.00833424 0)
(1.05274 0.00513829 1.25664e-22)
(1.05264 0.00270785 -9.07643e-36)
(1.0525 0.00116523 -1.40004e-22)
(1.05232 0.000153525 -2.06723e-22)
(1.13694 0.0730168 5.1452e-21)
(1.11304 0.0878102 -5.23046e-23)
(1.09527 0.0794062 -9.82832e-22)
(1.08268 0.0701258 3.88764e-34)
(1.07353 0.0591887 8.05065e-22)
(1.06488 0.0481813 2.01223e-22)
(1.05836 0.0380258 3.68e-21)
(1.05443 0.0291868 -2.52813e-21)
(1.05232 0.0217053 1.97511e-21)
(1.05136 0.0155231 3.48328e-21)
(1.0511 0.0105819 0)
(1.05123 0.00671185 1.22756e-22)
(1.05151 0.00387292 7.05486e-23)
(1.0518 0.00182612 -1.29149e-21)
(1.05199 0.000651357 -5.61112e-22)
(1.0521 -1.2353e-05 -3.97656e-28)
(1.13958 0.0819658 -7.94741e-22)
(1.12133 0.103393 -2.18873e-22)
(1.0994 0.096086 -1.33052e-21)
(1.08007 0.0853027 1.00152e-21)
(1.06985 0.0720357 9.67318e-21)
(1.06276 0.0588681 1.3187e-21)
(1.05616 0.0463711 -5.30506e-22)
(1.05167 0.0354952 1.36604e-21)
(1.04942 0.0264074 2.85262e-21)
(1.04861 0.0189786 -1.74425e-22)
(1.04868 0.0130402 -9.74866e-36)
(1.04921 0.00845274 3.33688e-22)
(1.04994 0.00499406 -3.38015e-26)
(1.05067 0.00258157 -2.5857e-22)
(1.05132 0.000956145 -2.01131e-22)
(1.0518 0.000163268 1.71765e-22)
(1.05217 -0.000152964 1.66468e-22)
(1.1325 0.0898604 3.34151e-21)
(1.12507 0.119252 -1.04328e-21)
(1.1067 0.114354 1.22471e-21)
(1.08203 0.103471 0)
(1.06468 0.0870818 5.42922e-22)
(1.05727 0.0712994 1.14545e-34)
(1.05246 0.0564362 -2.47189e-22)
(1.0481 0.0430695 -5.54357e-21)
(1.04571 0.0319375 -1.86857e-21)
(1.0451 0.0229438 -5.64465e-22)
(1.04556 0.0158201 -1.4986e-21)
(1.04658 0.0103085 1.26554e-21)
(1.04783 0.00620381 4.2321e-26)
(1.0491 0.00324426 -2.53166e-22)
(1.05023 0.0013104 1.20615e-22)
(1.05118 0.000128037 1.16811e-21)
(1.0519 -0.000285006 1.86886e-22)
(1.05248 -0.000270928 -1.41125e-22)
(1.11665 0.0966522 -2.76588e-21)
(1.11918 0.134828 2.7321e-21)
(1.10978 0.133352 -2.27439e-21)
(1.08808 0.124406 -3.3052e-34)
(1.06362 0.105548 -3.68376e-22)
(1.04954 0.0855753 -1.32741e-21)
(1.04549 0.0680162 -3.70687e-21)
(1.04303 0.0521441 -4.11373e-21)
(1.04099 0.0384988 -2.19793e-21)
(1.04065 0.0275466 2.40224e-21)
(1.0416 0.0189563 1.68439e-21)
(1.04323 0.0123601 2.07974e-21)
(1.04511 0.00743207 1.38326e-21)
(1.04699 0.00391774 -4.80432e-23)
(1.04871 0.00152465 -1.84151e-22)
(1.05017 0.000102307 5.39984e-23)
(1.05136 -0.000627288 -8.63452e-22)
(1.05226 -0.000678923 -3.90232e-22)
(1.05302 -0.000366348 -2.74009e-28)
(1.09278 0.102033 2.03994e-21)
(1.10484 0.14957 2.36534e-21)
(1.10425 0.152218 -6.6074e-21)
(1.09093 0.146567 3.533e-35)
(1.06739 0.127892 -1.0419e-21)
(1.04487 0.103285 -4.22109e-22)
(1.03551 0.0809827 -8.14454e-22)
(1.03489 0.062518 -5.84789e-22)
(1.03474 0.0462891 2.68733e-21)
(1.03502 0.0329243 2.432e-21)
(1.03661 0.0225313 1.99581e-21)
(1.03899 0.0146112 5.25552e-22)
(1.04164 0.00873037 -1.6432e-22)
(1.04428 0.00451593 8.19686e-22)
(1.04668 0.00167494 -1.71829e-22)
(1.04876 -0.000106633 4.5945e-27)
(1.05046 -0.00100176 7.55954e-23)
(1.05182 -0.00128452 -1.32577e-22)
(1.05285 -0.00100441 2.19886e-23)
(1.05372 -0.00043635 1.0989e-22)
(1.06126 0.105779 -1.37187e-20)
(1.08281 0.163526 -9.0046e-21)
(1.09029 0.1706 1.16518e-20)
(1.08553 0.168724 4.78324e-35)
(1.06943 0.15232 3.23053e-22)
(1.04551 0.125736 5.18068e-26)
(1.02701 0.0969102 -2.47396e-21)
(1.0232 0.0738257 -4.58658e-21)
(1.02573 0.0551643 3.73344e-22)
(1.02783 0.0392227 2.8173e-21)
(1.03034 0.0266218 -2.16237e-21)
(1.03366 0.0171021 -1.59254e-21)
(1.03728 0.0100733 -2.08673e-21)
(1.04082 0.00506194 -1.64994e-21)
(1.04406 0.00166137 -2.77353e-22)
(1.04687 -0.000450107 -5.71365e-27)
(1.04921 -0.00159454 6.36981e-23)
(1.05106 -0.00196489 1.17138e-22)
(1.05252 -0.00182431 2.38642e-35)
(1.05361 -0.00125103 8.55344e-23)
(1.05454 -0.000478156 2.8508e-24)
(1.02225 0.106743 -1.11034e-21)
(1.05304 0.17616 -1.04897e-21)
(1.06894 0.188508 4.52474e-21)
(1.07192 0.190619 0)
(1.06414 0.176911 7.17784e-21)
(1.04626 0.151361 -4.24757e-23)
(1.02362 0.117947 1.01182e-21)
(1.01118 0.0872388 -4.37684e-21)
(1.01297 0.0646139 -2.09654e-21)
(1.01819 0.046367 8.84534e-23)
(1.02248 0.0313092 -3.86581e-36)
(1.02702 0.0198584 1.05445e-22)
(1.03183 0.0114633 2.16944e-22)
(1.03649 0.00550418 -7.70305e-22)
(1.04075 0.00147981 -4.01767e-22)
(1.04445 -0.00103848 2.40623e-22)
(1.04753 -0.00238701 1.97994e-22)
(1.05002 -0.00289014 -1.08911e-22)
(1.05193 -0.00275596 -4.98625e-23)
(1.0534 -0.00222909 1.00256e-22)
(1.0545 -0.00141108 1.41684e-23)
(1.05543 -0.000490526 -8.41805e-22)
(0.976833 0.104482 -4.49874e-23)
(1.01646 0.186906 4.463e-21)
(1.04048 0.205372 -9.44238e-21)
(1.05116 0.212152 1.21349e-35)
(1.05081 0.20114 -1.32034e-20)
(1.04103 0.177585 1.92123e-21)
(1.02224 0.143356 -2.16487e-22)
(1.00319 0.105412 -7.0298e-22)
(0.998228 0.0751688 1.70748e-26)
(1.00496 0.0538443 2.29777e-21)
(1.0124 0.0365628 -9.96673e-36)
(1.01877 0.0228953 4.46886e-22)
(1.02506 0.0128843 2.42445e-22)
(1.0311 0.00581137 8.72166e-22)
(1.03659 0.0010556 1.39019e-21)
(1.04138 -0.00190221 7.43147e-22)
(1.04538 -0.00349609 8.2178e-22)
(1.04861 -0.00407264 -9.14196e-23)
(1.05112 -0.0039524 3.01089e-27)
(1.05301 -0.00334932 3.87663e-22)
(1.05442 -0.00248614 2.14967e-22)
(1.05546 -0.0014802 -9.24203e-22)
(1.05633 -0.000473858 -3.6583e-25)
(0.928617 0.0985552 -1.46172e-21)
(0.974785 0.194753 3.10086e-22)
(1.00564 0.220417 -5.17828e-21)
(1.02395 0.232827 4.73282e-35)
(1.0306 0.224933 1.99363e-21)
(1.02815 0.203305 2.3876e-21)
(1.01685 0.170228 -5.63777e-21)
(0.998655 0.128901 -5.76263e-21)
(0.985656 0.0893947 -3.1721e-21)
(0.9886 0.0615564 2.51286e-22)
(0.99912 0.0419789 -1.11641e-35)
(1.00846 0.0261856 1.09121e-21)
(1.0167 0.0142931 1.60979e-21)
(1.02444 0.00593281 -1.50544e-22)
(1.03144 0.000327669 -5.74869e-22)
(1.03754 -0.00313584 -1.48847e-22)
(1.04266 -0.00497753 -1.16058e-22)
(1.04681 -0.0056331 -1.2351e-22)
(1.05004 -0.00545371 -3.68243e-27)
(1.05247 -0.00474683 7.51434e-23)
(1.05423 -0.00372629 -3.11368e-23)
(1.0555 -0.00258844 -7.96588e-23)
(1.05642 -0.00145732 6.31876e-23)
(1.05719 -0.000430024 7.42783e-22)
(0.879862 0.0919795 2.46647e-25)
(0.930436 0.199429 3.22289e-22)
(0.966016 0.232707 4.35503e-22)
(0.991198 0.251826 3.78188e-35)
(1.00451 0.247869 1.38005e-20)
(1.0086 0.228358 -1.06429e-20)
(1.00459 0.196687 1.12399e-20)
(0.992467 0.155132 -8.71734e-22)
(0.976968 0.109167 1.8013e-21)
(0.972195 0.0713896 3.03081e-21)
(0.982251 0.0470531 0)
(0.995382 0.0294637 -1.6411e-22)
(1.00642 0.0156368 1.56402e-35)
(1.01625 0.00578009 1.89798e-22)
(1.02509 -0.000784531 -1.79734e-21)
(1.03278 -0.00482699 -4.48442e-22)
(1.03926 -0.00694294 -7.15998e-22)
(1.04452 -0.00765058 1.46132e-23)
(1.04864 -0.0073829 9.16014e-23)
(1.05174 -0.00648532 5.64112e-23)
(1.05398 -0.00524793 -3.00486e-23)
(1.05553 -0.00387616 -6.52649e-22)
(1.0566 -0.00253471 6.38536e-22)
(1.05734 -0.00134505 7.48678e-22)
(1.05795 -0.000361947 7.68571e-23)
(0.842505 0.0820647 -1.47668e-20)
(0.887363 0.202261 -1.84436e-21)
(0.92427 0.24198 4.28062e-21)
(0.954384 0.268173 -7.07057e-21)
(0.973583 0.269188 -4.21066e-21)
(0.983667 0.252455 -1.2883e-21)
(0.985892 0.222229 4.10173e-21)
(0.980796 0.181543 -9.38217e-21)
(0.968921 0.133054 3.45896e-22)
(0.958876 0.0859653 4.40716e-21)
(0.963396 0.0527234 1.5346e-35)
(0.978822 0.0321008 -2.29355e-21)
(0.993702 0.0167423 -1.75068e-21)
(1.00624 0.00526528 -4.48472e-22)
(1.0173 -0.00240243 -1.69161e-21)
(1.02692 -0.00708308 -2.41568e-22)
(1.03504 -0.00950422 2.32524e-23)
(1.04166 -0.0102516 9.30468e-22)
(1.04687 -0.00983958 1.04685e-22)
(1.0508 -0.00868857 5.84268e-23)
(1.05363 -0.00713372 3.55112e-23)
(1.05557 -0.00544072 -5.39486e-22)
(1.05683 -0.00379637 -1.28133e-22)
(1.05763 -0.00232999 3.83714e-22)
(1.05816 -0.00114987 7.67754e-23)
(1.05856 -0.000273436 -2.56009e-29)
(0.815517 0.0756115 -1.02949e-20)
(0.851718 0.198899 8.66666e-22)
(0.883572 0.248972 1.71885e-23)
(0.915833 0.281347 1.19035e-25)
(0.939371 0.287978 2.87438e-21)
(0.954626 0.274922 7.29986e-21)
(0.962171 0.246653 -1.238e-20)
(0.963118 0.207002 -9.99996e-21)
(0.957367 0.158301 1.26071e-21)
(0.947731 0.10553 3.20989e-23)
(0.945855 0.0614131 -9.11256e-36)
(0.959111 0.0342563 1.01117e-22)
(0.977899 0.0170538 -6.33973e-22)
(0.994052 0.0042403 -2.68919e-22)
(1.00783 -0.00464522 2.93588e-23)
(1.01976 -0.01005 1.68986e-22)
(1.02984 -0.0127932 -8.60758e-23)
(1.03811 -0.0135708 -2.90231e-22)
(1.04465 -0.0129634 2.93378e-36)
(1.04961 -0.0114736 1.81974e-22)
(1.05319 -0.00950629 2.92068e-22)
(1.05562 -0.00737823 -3.65591e-22)
(1.05717 -0.00532102 2.84434e-27)
(1.05807 -0.00349344 5.71923e-22)
(1.05855 -0.00198573 -9.87764e-22)
(1.05882 -0.00088194 1.89156e-23)
(1.059 -0.000168454 -7.90255e-23)
(0.792926 0.0683532 -1.37328e-22)
(0.825187 0.196584 7.37551e-22)
(0.850618 0.249428 0)
(0.878017 0.291083 -2.41324e-21)
(0.90407 0.303608 -1.04531e-20)
(0.92306 0.294943 7.4413e-22)
(0.934947 0.269462 -6.82659e-21)
(0.940671 0.231214 -1.05135e-20)
(0.94068 0.18303 2.80256e-21)
(0.9353 0.127945 4.98686e-21)
(0.930691 0.0748662 -4.16e-39)
(0.938671 0.0373357 1.74973e-21)
(0.958653 0.0163562 1.12407e-25)
(0.9792 0.00228885 -2.08988e-21)
(0.996372 -0.00767881 1.90222e-21)
(1.01105 -0.0138732 -5.86658e-22)
(1.02348 -0.016977 8.26695e-23)
(1.03373 -0.0177625 -1.029e-21)
(1.04188 -0.0169105 -1.26008e-22)
(1.0481 -0.0149911 5.59631e-22)
(1.05261 -0.0124965 3.09415e-23)
(1.05569 -0.00980795 -4.64927e-22)
(1.05761 -0.0072117 -2.85372e-27)
(1.05868 -0.00489682 4.90728e-22)
(1.05917 -0.00298341 7.21595e-23)
(1.0593 -0.00151939 3.67595e-35)
(1.05929 -0.000555349 -9.80986e-23)
(1.05922 -4.77391e-05 0)
(0.775177 0.0619358 2.02582e-21)
(0.803413 0.192233 -7.77151e-21)
(0.826486 0.248761 2.66431e-21)
(0.848369 0.295419 -1.47845e-21)
(0.86992 0.315398 1.40464e-20)
(0.891043 0.311841 9.88376e-22)
(0.905928 0.290043 6.83572e-22)
(0.915127 0.253885 -8.27518e-21)
(0.91949 0.206561 -6.30159e-21)
(0.919175 0.150872 6.86191e-21)
(0.916081 0.092397 0)
(0.919424 0.0436922 2.45646e-22)
(0.937087 0.0147823 1.51948e-21)
(0.961192 -0.000865801 1.30024e-22)
(0.982587 -0.0118035 1.33597e-22)
(1.00054 -0.0187442 -3.20493e-22)
(1.01575 -0.0222249 7.89351e-22)
(1.02835 -0.0230155 -7.82052e-22)
(1.03845 -0.0218561 -1.31999e-22)
(1.04622 -0.0194176 -2.55928e-22)
(1.05189 -0.0162635 -1.77265e-22)
(1.05576 -0.0128701 7.60821e-23)
(1.05819 -0.00958198 1.24024e-22)
(1.0595 -0.00664268 3.4443e-22)
(1.06004 -0.00418902 5.31321e-23)
(1.06007 -0.00229146 -7.23966e-23)
(1.05984 -0.000954372 4.08418e-22)
(1.05953 -0.000187378 7.91272e-23)
(1.05922 7.96679e-05 -8.12909e-22)
(0.762453 0.0559439 -6.23022e-21)
(0.785692 0.187636 7.98229e-22)
(0.806447 0.246056 4.83644e-21)
(0.827784 0.295915 1.17012e-21)
(0.843794 0.321462 -2.47338e-21)
(0.860688 0.324582 3.89561e-21)
(0.877168 0.307769 1.06553e-20)
(0.888321 0.274701 -1.50978e-20)
(0.895374 0.22869 -1.1238e-20)
(0.899083 0.173018 9.1085e-21)
(0.899653 0.111727 -7.42785e-37)
(0.901624 0.0546207 0)
(0.915084 0.0144816 0)
(0.940085 -0.00591847 1.36995e-21)
(0.966092 -0.0172615 -2.09012e-21)
(0.987962 -0.0249033 1.57947e-21)
(1.0064 -0.0287466 -3.77935e-22)
(1.02177 -0.029523 1.92749e-22)
(1.0342 -0.0280146 1.01823e-22)
(1.04385 -0.0249483 -7.05612e-22)
(1.05096 -0.021002 4.93921e-22)
(1.05585 -0.0167288 5.53537e-22)
(1.05892 -0.0125753 -8.84255e-23)
(1.06057 -0.00883639 1.62361e-22)
(1.0612 -0.00569673 4.01992e-23)
(1.06115 -0.00323111 6.0305e-28)
(1.06073 -0.00145208 -6.47102e-24)
(1.06012 -0.000319114 -3.54671e-22)
(1.05953 0.000203438 -8.34702e-22)
(1.05897 0.000203294 3.21828e-25)
(0.754756 0.0509126 -4.92235e-21)
(0.772662 0.182466 1.47745e-22)
(0.790231 0.242093 -9.58469e-22)
(0.810192 0.294673 1.74907e-22)
(0.826393 0.323795 -2.33871e-21)
(0.838118 0.331454 2.13128e-21)
(0.850656 0.321526 1.31082e-22)
(0.862244 0.293255 6.17334e-21)
(0.870272 0.249405 -1.65077e-20)
(0.876117 0.194001 -2.62227e-21)
(0.880224 0.131255 6.40247e-35)
(0.883781 0.0679904 1.90968e-21)
(0.894104 0.0176372 9.16501e-23)
(0.91723 -0.0111924 1.01278e-21)
(0.946462 -0.0248629 4.35975e-22)
(0.973031 -0.0325614 1.57836e-21)
(0.995193 -0.0367696 -1.5157e-21)
(1.01378 -0.0375126 1.39172e-21)
(1.02896 -0.0356036 -6.39252e-36)
(1.04088 -0.0318266 -8.0158e-22)
(1.04975 -0.0269263 -1.05246e-23)
(1.05593 -0.0215935 9.19107e-23)
(1.05983 -0.0163565 4.07876e-22)
(1.06194 -0.0116169 5.16707e-23)
(1.06272 -0.00760085 -1.67646e-22)
(1.06261 -0.00441641 -9.95759e-28)
(1.06197 -0.00206965 -6.55146e-23)
(1.06109 -0.000507569 1.22327e-23)
(1.06013 0.000353618 2.75526e-22)
(1.05927 0.000597603 -1.23627e-22)
(1.05849 0.000317296 8.81523e-22)
(0.751879 0.0467135 4.6374e-21)
(0.764297 0.177025 -9.22565e-21)
(0.778556 0.237041 -1.20494e-22)
(0.796238 0.291244 -1.8717e-21)
(0.812102 0.32391 -3.91709e-21)
(0.823717 0.334561 -1.1361e-21)
(0.831512 0.330208 7.62493e-21)
(0.838827 0.30848 1.51528e-20)
(0.846131 0.268563 -1.06797e-20)
(0.852249 0.213924 4.10256e-21)
(0.858117 0.150092 9.59121e-36)
(0.864209 0.0829683 6.20125e-22)
(0.873591 0.0233257 -7.09464e-21)
(0.893938 -0.0160823 -2.30612e-21)
(0.924389 -0.0339395 -1.43081e-21)
(0.955313 -0.0422824 -2.71166e-22)
(0.981882 -0.0464807 2.05981e-21)
(1.00412 -0.0472168 3.43704e-22)
(1.02251 -0.0448793 -7.89643e-23)
(1.03714 -0.0402993 -2.61542e-22)
(1.04819 -0.0343117 2.36559e-23)
(1.05597 -0.0276948 1.39866e-21)
(1.06095 -0.021144 -6.92732e-22)
(1.06366 -0.0151446 -5.25804e-22)
(1.06467 -0.0100272 1.05035e-23)
(1.06452 -0.0059272 3.31479e-23)
(1.06366 -0.00286231 -5.82424e-23)
(1.06244 -0.000762545 0)
(1.06113 0.000494187 -8.01973e-22)
(1.05986 0.00102873 -3.84033e-22)
(1.05877 0.000974617 9.30637e-22)
(1.05779 0.000417089 -9.0823e-22)
(0.753932 0.0436586 1.8182e-21)
(0.760566 0.171393 -2.07145e-21)
(0.771461 0.231032 1.53566e-21)
(0.786432 0.28622 5.44519e-21)
(0.80131 0.321432 1.13508e-21)
(0.812429 0.336054 4.86052e-21)
(0.819825 0.335086 4.21043e-21)
(0.822526 0.31958 7.26859e-22)
(0.824968 0.284965 1.89693e-20)
(0.829363 0.232929 2.31546e-21)
(0.83517 0.168057 -1.44281e-20)
(0.842554 0.0981941 -7.02746e-21)
(0.852859 0.0314067 -1.25217e-21)
(0.870795 -0.0182852 2.00298e-21)
(0.900545 -0.0444562 -3.59663e-22)
(0.935032 -0.0541342 -3.85849e-22)
(0.966144 -0.0582351 -1.28681e-22)
(0.992558 -0.058818 -4.80017e-21)
(1.01461 -0.0560847 4.03028e-22)
(1.03244 -0.0506645 -4.09704e-22)
(1.04612 -0.0434395 -1.58838e-21)
(1.05592 -0.0353414 2.18822e-21)
(1.06228 -0.0271797 4.16878e-22)
(1.06579 -0.0196376 -1.18703e-21)
(1.06714 -0.0131249 -2.06246e-22)
(1.06697 -0.00786771 5.0698e-23)
(1.06586 -0.00389193 -4.53068e-22)
(1.06427 -0.00111087 0)
(1.06252 0.000624077 -7.90982e-22)
(1.06084 0.00150174 8.26251e-23)
(1.05931 0.00167105 5.21126e-22)
(1.05803 0.00131451 -9.68483e-22)
(1.05691 0.000499937 1.1212e-25)
(0.759806 0.0416036 3.31329e-21)
(0.761184 0.165712 1.2839e-20)
(0.768912 0.224204 -4.03385e-21)
(0.781073 0.279766 5.05208e-21)
(0.794134 0.316848 -2.77996e-21)
(0.80476 0.335807 5.38056e-22)
(0.810899 0.337745 -5.08659e-21)
(0.813406 0.327092 -1.7201e-21)
(0.810694 0.298325 -2.65251e-21)
(0.809815 0.249458 1.55307e-20)
(0.813036 0.185663 3.35146e-25)
(0.820343 0.112558 2.87008e-21)
(0.831037 0.0411574 9.55619e-21)
(0.848152 -0.018804 3.16806e-21)
(0.875885 -0.0540453 3.21461e-22)
(0.912237 -0.0682033 1.23588e-21)
(0.947983 -0.0722392 2.93725e-21)
(0.978795 -0.0725709 9.39911e-22)
(1.00496 -0.0694303 8.20825e-28)
(1.02649 -0.0631896 -4.44284e-22)
(1.04337 -0.0546639 2.90994e-23)
(1.05568 -0.0448522 -6.55965e-23)
(1.06382 -0.0348019 -8.43513e-22)
(1.06841 -0.025341 -3.96589e-22)
(1.07024 -0.0170999 5.20426e-22)
(1.0701 -0.0103672 2.45451e-37)
(1.06871 -0.00523315 4.30098e-23)
(1.06667 -0.00159386 1.2569e-23)
(1.06441 0.000749612 -8.29705e-22)
(1.0622 0.00201881 -4.47642e-27)
(1.06022 0.00246218 9.04501e-22)
(1.05851 0.00224723 3.22751e-22)
(1.0571 0.00159934 -2.36386e-23)
(1.05588 0.000561799 9.29793e-22)
(0.768126 0.0403771 -1.83491e-21)
(0.765847 0.159948 -2.36363e-21)
(0.770689 0.216598 -8.16413e-21)
(0.780128 0.272039 2.03591e-20)
(0.791013 0.310568 7.9101e-22)
(0.800554 0.333477 -7.36191e-21)
(0.805442 0.338645 -6.35893e-22)
(0.806886 0.33276 1.30203e-20)
(0.803591 0.308229 9.01062e-21)
(0.797196 0.264212 -5.16315e-21)
(0.794644 0.200677 2.33891e-20)
(0.798668 0.127304 2.77647e-21)
(0.809273 0.0499046 1.29758e-21)
(0.825481 -0.0164761 -7.18233e-21)
(0.851393 -0.0631357 -7.30021e-21)
(0.887702 -0.0832856 -4.60986e-21)
(0.927149 -0.0887099 6.11217e-22)
(0.962765 -0.0885836 -2.94193e-21)
(0.993271 -0.0851296 1.48401e-34)
(1.01901 -0.0781515 6.21011e-21)
(1.03965 -0.0683039 6.45098e-22)
(1.05509 -0.0566505 4.04352e-21)
(1.06553 -0.0443654 1.61345e-21)
(1.07158 -0.0326126 -1.04271e-21)
(1.07409 -0.0221881 1.08904e-21)
(1.07405 -0.0136055 -1.10774e-22)
(1.07236 -0.00698613 1.9218e-22)
(1.06979 -0.00224923 -8.18422e-22)
(1.06689 0.000851365 -1.08458e-21)
(1.06406 0.00262301 6.55382e-27)
(1.0615 0.00334818 9.83469e-22)
(1.05931 0.00332483 -9.40457e-22)
(1.05748 0.00272792 1.77596e-35)
(1.056 0.00181411 9.70326e-22)
(1.05475 0.000598755 0)
(0.781828 0.0393593 -6.33455e-22)
(0.773839 0.154283 -6.78794e-21)
(0.776394 0.208281 4.14913e-22)
(0.783337 0.263073 -7.28242e-22)
(0.792181 0.302887 9.40663e-21)
(0.799941 0.328678 -3.52836e-21)
(0.803649 0.338426 5.12554e-21)
(0.803571 0.336329 1.86581e-20)
(0.799366 0.316183 3.22966e-20)
(0.791875 0.27578 -4.17912e-20)
(0.783589 0.215634 -2.97176e-20)
(0.781013 0.138756 -2.63115e-21)
(0.787983 0.0603748 2.18631e-21)
(0.803541 -0.0152804 3.47234e-21)
(0.827503 -0.0695078 9.08197e-22)
(0.862396 -0.0992744 4.27457e-21)
(0.904105 -0.107249 2.988e-21)
(0.944169 -0.107094 -7.35575e-22)
(0.979411 -0.103286 -4.81175e-22)
(1.00965 -0.0957968 -1.22775e-21)
(1.03467 -0.0847555 -4.10523e-21)
(1.05391 -0.0711439 3.64597e-21)
(1.06733 -0.0563734 2.18459e-21)
(1.07533 -0.0418315 5.92717e-23)
(1.07884 -0.028748 -2.97727e-22)
(1.07902 -0.0177928 -1.60305e-22)
(1.077 -0.0092897 -2.6446e-23)
(1.07379 -0.00314039 1.17454e-23)
(1.07012 0.000933732 -6.50269e-24)
(1.0665 0.00331666 -5.57637e-22)
(1.06323 0.00440975 1.03392e-21)
(1.06043 0.00454175 -1.05161e-21)
(1.05813 0.00404485 7.1242e-23)
(1.05628 0.00308817 -3.3512e-22)
(1.05479 0.00194777 -4.12162e-24)
(1.05356 0.000608482 -9.50006e-23)
(0.803506 0.0382541 7.18397e-22)
(0.788784 0.145865 1.53726e-21)
(0.785668 0.199592 -3.66581e-21)
(0.790404 0.253071 -1.07712e-20)
(0.797313 0.293723 2.19116e-20)
(0.803345 0.322334 -1.05251e-20)
(0.805647 0.33663 5.25144e-21)
(0.803941 0.33791 -2.8284e-21)
(0.798714 0.322279 -2.01066e-20)
(0.789787 0.285104 -5.66292e-21)
(0.779947 0.22792 3.41208e-20)
(0.771422 0.152549 4.74017e-21)
(0.770559 0.0661075 1.77431e-20)
(0.782725 -0.0106408 -2.36005e-21)
(0.80468 -0.0767837 -2.04429e-20)
(0.837549 -0.113876 9.79208e-22)
(0.879406 -0.12778 7.30156e-21)
(0.923232 -0.127983 6.44771e-22)
(0.963069 -0.124026 2.32621e-21)
(0.998193 -0.116335 3.93736e-21)
(1.02806 -0.104398 -2.03669e-21)
(1.05189 -0.0889171 -7.51317e-21)
(1.06905 -0.0713607 -4.744e-21)
(1.07969 -0.0535883 -5.21145e-21)
(1.08464 -0.0371649 2.26804e-22)
(1.08522 -0.02326 1.76881e-21)
(1.08288 -0.0123089 1.77752e-21)
(1.07889 -0.0043512 8.46514e-22)
(1.07427 0.000975585 -6.71755e-22)
(1.06967 0.00414831 -7.91399e-22)
(1.0655 0.0056695 1.06832e-21)
(1.06194 0.0060141 -1.12485e-21)
(1.05904 0.0055373 -2.18195e-27)
(1.05675 0.00458467 1.06865e-21)
(1.05495 0.00330942 1.60424e-35)
(1.05353 0.00199372 -7.9448e-23)
(1.05237 0.000590543 -7.66441e-29)
(0.827779 0.0384796 2.04146e-20)
(0.81041 0.134129 1.94508e-21)
(0.801375 0.18716 3.36772e-21)
(0.800845 0.242528 2.4789e-24)
(0.806042 0.283412 -3.2158e-21)
(0.810485 0.314379 -5.86644e-22)
(0.811642 0.332659 5.99074e-21)
(0.808434 0.337156 5.7059e-21)
(0.801982 0.32604 -3.38019e-20)
(0.791734 0.292476 7.94634e-21)
(0.779904 0.237706 3.88983e-20)
(0.769223 0.164427 7.41666e-21)
(0.762108 0.0772177 -3.2575e-20)
(0.765093 -0.0123718 -1.60096e-21)
(0.784183 -0.0798765 2.3282e-21)
(0.813632 -0.129208 7.32143e-21)
(0.854469 -0.148524 -8.5521e-21)
(0.900122 -0.151236 -1.41886e-20)
(0.944281 -0.147176 -5.74852e-21)
(0.984178 -0.139725 1.01784e-21)
(1.01943 -0.127532 3.74649e-22)
(1.04862 -0.110523 1.19548e-20)
(1.07056 -0.0901509 3.92346e-21)
(1.08468 -0.0685619 -5.20438e-21)
(1.09167 -0.048112 -2.69368e-23)
(1.09296 -0.0303761 -6.43891e-35)
(1.09031 -0.016313 -1.5438e-22)
(1.0854 -0.00598251 1.56133e-22)
(1.07958 0.000958221 -6.36077e-23)
(1.07376 0.00514208 9.38891e-22)
(1.06845 0.00721889 -6.61941e-22)
(1.06394 0.00778211 -1.18721e-21)
(1.06027 0.00735158 3.31085e-27)
(1.05741 0.00628276 1.12487e-21)
(1.05522 0.00491668 7.52993e-24)
(1.05357 0.00338073 3.24882e-22)
(1.05228 0.00194964 5.2453e-24)
(1.05124 0.000546154 8.61255e-23)
(0.853015 0.0373526 -4.26358e-22)
(0.834864 0.122486 -1.35551e-23)
(0.823874 0.170607 -4.33801e-21)
(0.81764 0.227542 4.79387e-21)
(0.817876 0.27244 -3.99878e-21)
(0.821008 0.305068 1.86907e-23)
(0.821213 0.326701 -9.81773e-22)
(0.817034 0.33462 -1.22118e-20)
(0.809391 0.327325 -2.01558e-20)
(0.797967 0.297323 -5.54197e-21)
(0.784263 0.245617 -1.66686e-20)
(0.770846 0.173681 -9.65163e-21)
(0.760993 0.0876159 -1.83926e-20)
(0.757976 -0.00574643 7.99314e-22)
(0.766336 -0.0890978 4.26243e-20)
(0.792805 -0.140972 2.40823e-20)
(0.829892 -0.170205 9.66579e-21)
(0.875991 -0.1757 1.74169e-21)
(0.922979 -0.172513 9.45079e-22)
(0.967391 -0.165564 -9.28141e-22)
(1.00793 -0.153854 -2.39384e-35)
(1.04326 -0.136188 -9.81013e-21)
(1.07116 -0.113342 -2.59943e-21)
(1.09016 -0.0877776 7.82933e-21)
(1.10019 -0.062381 2.68181e-21)
(1.10267 -0.0398641 -3.66478e-21)
(1.09974 -0.0216237 -1.21408e-21)
(1.0937 -0.00821186 -1.832e-21)
(1.08638 0.000858796 -7.60596e-22)
(1.07899 0.00634907 5.37643e-22)
(1.07226 0.00912654 -4.14641e-22)
(1.06652 0.00997544 3.47697e-22)
(1.06189 0.00954177 -2.53411e-22)
(1.0583 0.00835187 1.22606e-21)
(1.05561 0.00674019 0)
(1.05363 0.0050248 -1.46596e-22)
(1.05218 0.00329875 -8.35069e-22)
(1.05108 0.0018177 6.54075e-23)
(1.05021 0.000477865 8.00608e-23)
(0.878357 0.0357756 3.34832e-22)
(0.860721 0.109179 -1.88984e-22)
(0.849235 0.153685 1.50133e-21)
(0.841104 0.207564 7.26981e-26)
(0.835983 0.256753 3.80815e-21)
(0.834428 0.294842 -4.88005e-21)
(0.833992 0.31902 2.77064e-21)
(0.829293 0.3302 6.17021e-21)
(0.820807 0.325903 -1.97615e-20)
(0.808556 0.299541 -3.08939e-21)
(0.793184 0.250895 -1.05557e-21)
(0.777235 0.181461 -1.22866e-20)
(0.763628 0.0952011 -1.37841e-21)
(0.757492 0.0027933 -3.90845e-20)
(0.757913 -0.0889818 -6.2027e-21)
(0.774836 -0.15657 -1.71195e-20)
(0.808182 -0.189612 -9.13672e-21)
(0.851475 -0.201335 -2.26626e-20)
(0.899986 -0.199183 1.53466e-21)
(0.947581 -0.193203 2.12401e-20)
(0.993011 -0.182648 -4.01187e-21)
(1.03441 -0.165117 -6.83528e-21)
(1.06924 -0.140737 -2.38828e-21)
(1.09476 -0.111484 -3.48738e-21)
(1.10966 -0.0810061 5.1424e-22)
(1.11468 -0.0525476 6.87523e-22)
(1.11188 -0.0289451 5.77683e-22)
(1.10444 -0.0112788 -2.47582e-35)
(1.09511 0.000611719 -1.05337e-21)
(1.0857 0.00783059 1.92845e-21)
(1.07713 0.0115115 2.55538e-21)
(1.06984 0.0127027 -3.03994e-21)
(1.06397 0.0122683 -1.54159e-22)
(1.05945 0.0108553 1.37577e-21)
(1.05611 0.00896435 0)
(1.05372 0.00688795 -1.13664e-22)
(1.05203 0.00490433 -1.2378e-23)
(1.05086 0.00306783 4.93179e-22)
(1.04999 0.00160422 1.27643e-22)
(1.04933 0.000389147 1.28515e-28)
(0.902728 0.0322472 -2.22515e-21)
(0.887102 0.0956177 5.46976e-23)
(0.875666 0.13568 7.42035e-22)
(0.867077 0.186874 -2.8606e-21)
(0.860739 0.235616 8.85969e-21)
(0.854208 0.2798 -2.30379e-21)
(0.849489 0.309892 7.89616e-21)
(0.844822 0.323814 3.15727e-21)
(0.835977 0.322105 1.94716e-20)
(0.823218 0.298926 3.50428e-20)
(0.806704 0.253473 1.47562e-20)
(0.788516 0.186531 3.59568e-20)
(0.771466 0.102163 1.35531e-20)
(0.759578 0.00782482 2.94619e-21)
(0.757313 -0.0831527 2.79412e-20)
(0.764053 -0.16364 8.27806e-22)
(0.789698 -0.210553 -3.1315e-20)
(0.828898 -0.225851 4.30062e-21)
(0.875888 -0.226787 7.27798e-21)
(0.925381 -0.221719 -2.72112e-21)
(0.974194 -0.212819 -6.95261e-25)
(1.02116 -0.19635 1.31964e-21)
(1.06281 -0.170882 1.11247e-20)
(1.09578 -0.138689 1.11435e-20)
(1.1175 -0.103225 -7.88207e-21)
(1.1274 -0.0690357 -9.30191e-26)
(1.12676 -0.0389619 4.75039e-21)
(1.11844 -0.0157942 3.76745e-21)
(1.10662 8.18373e-05 -8.76657e-23)
(1.09439 0.0096439 -4.40188e-21)
(1.08336 0.0145178 1.89768e-21)
(1.07407 0.0161425 -1.07371e-21)
(1.06663 0.0156716 3.08995e-35)
(1.06093 0.0139748 -1.35159e-21)
(1.05676 0.0116567 1.14819e-23)
(1.05382 0.00916087 -1.24341e-22)
(1.05183 0.00672043 7.53573e-28)
(1.05052 0.00456209 1.49242e-22)
(1.04967 0.00269941 -4.54691e-22)
(1.04907 0.00131909 -9.28587e-23)
(1.04865 0.000283921 -6.61518e-23)
(0.926042 0.0276968 1.47097e-21)
(0.912897 0.081471 1.81103e-23)
(0.901791 0.117766 0)
(0.893944 0.165479 -1.35601e-35)
(0.887428 0.213311 -9.68459e-21)
(0.88072 0.258935 5.12795e-21)
(0.871528 0.295896 7.88075e-24)
(0.862995 0.315323 -4.87665e-21)
(0.854511 0.315642 1.12662e-20)
(0.841653 0.29563 8.70108e-21)
(0.82449 0.253052 2.92325e-20)
(0.804669 0.188954 5.76996e-20)
(0.784608 0.106438 2.0218e-20)
(0.76783 0.0129155 2.34958e-20)
(0.759457 -0.0809469 -8.57619e-20)
(0.761441 -0.162669 1.91171e-21)
(0.777541 -0.223556 4.98761e-20)
(0.809368 -0.250671 2.2351e-20)
(0.852667 -0.253666 1.53458e-20)
(0.901334 -0.250392 -2.19472e-21)
(0.952088 -0.243261 -9.14738e-21)
(1.00286 -0.228502 1.50639e-20)
(1.05088 -0.202894 2.45119e-20)
(1.09113 -0.167465 -8.09681e-21)
(1.12021 -0.127221 -1.25114e-20)
(1.13701 -0.0869601 -5.36669e-21)
(1.14112 -0.0511107 -1.37115e-24)
(1.13476 -0.0219765 0)