/*--------------------------------*- C++ -*----------------------------------*\
| =========                 |                                                 |
| \\      /  F ield         | OpenFOAM: The Open Source CFD Toolbox           |
|  \\    /   O peration     | Version:  2506                                  |
|   \\  /    A nd           | Website:  www.openfoam.com                      |
|    \\/     M anipulation  |                                                 |
\*---------------------------------------------------------------------------*/
FoamFile
{
    version     2.0;
    format      ascii;
    arch        "LSB;label=32;scalar=64";
    class       pointScalarField;
    location    "1.8";
    object      streamFunction;
}
// * * * * * * * * * * * * * * * * * * * * * * * * * * * * * * * * * * * * * //

dimensions      [0 3 -1 0 0 0 0];

internalField   nonuniform List<scalar> 
882
(
0
0
0
0
0
0
0
0
0
0
0
0
0
0
0
0
0
0
0
0
0
0
1.26645e-06
-2.85579e-06
-1.22785e-05
-2.5141e-05
-3.97544e-05
-5.47369e-05
-6.88797e-05
-8.0982e-05
-8.98321e-05
-9.42034e-05
-9.30913e-05
-8.6055e-05
-7.3359e-05
-5.6389e-05
-3.74589e-05
-1.95543e-05
-5.6669e-06
1.9927e-06
2.98169e-06
0
0
-3.0516e-06
-2.33296e-05
-5.92117e-05
-0.000105458
-0.000156912
-0.000208993
-0.000257502
-0.000298324
-0.000327406
-0.000340961
-0.000336125
-0.000311753
-0.000269137
-0.000212644
-0.000149436
-8.8581e-05
-3.91899e-05
-8.0672e-06
2.86372e-06
0
0
-1.41333e-05
-6.37815e-05
-0.000142633
-0.000240485
-0.000347449
-0.000454555
-0.000553434
-0.000635923
-0.000694103
-0.000720802
-0.00071074
-0.000661913
-0.000576896
-0.000463838
-0.000336154
-0.000210971
-0.00010586
-3.44909e-05
-1.97247e-06
0
0
-3.15676e-05
-0.000123344
-0.000260818
-0.000426955
-0.000606012
-0.000783808
-0.000947083
-0.00108293
-0.00117892
-0.00122384
-0.00120943
-0.00113229
-0.000995925
-0.000812305
-0.000601783
-0.000391143
-0.000208935
-7.8732e-05
-1.17349e-05
0
0
-5.4629e-05
-0.000200119
-0.000410455
-0.000659943
-0.000926021
-0.00118875
-0.00142962
-0.00163061
-0.00177433
-0.00184499
-0.00183051
-0.00172509
-0.00153211
-0.00126653
-0.000955653
-0.000637264
-0.000353873
-0.000143172
-2.67446e-05
0
0
-8.24337e-05
-0.000291552
-0.000587045
-0.000932996
-0.00129928
-0.00165994
-0.00199109
-0.00226957
-0.00247278
-0.00257977
-0.00257365
-0.00244473
-0.00219443
-0.00183896
-0.00141159
-0.000961917
-0.000549701
-0.000232352
-4.80916e-05
0
0
-0.000113912
-0.000394456
-0.000784899
-0.00123792
-0.00171536
-0.00218519
-0.00261841
-0.00298689
-0.00326282
-0.00341966
-0.00343463
-0.00329243
-0.00298998
-0.00254197
-0.00198535
-0.00138109
-0.000809109
-0.000353405
-7.78257e-05
0
0
-0.000147794
-0.000505013
-0.000997113
-0.00156458
-0.00216099
-0.0027485
-0.00329343
-0.00376322
-0.00412519
-0.00434712
-0.00439954
-0.00425974
-0.00391741
-0.00338194
-0.00269002
-0.00191139
-0.00114742
-0.000516027
-0.000119067
0
0
-0.000182655
-0.000618929
-0.00121576
-0.00190098
-0.00261992
-0.00332933
-0.00399165
-0.00457072
-0.00502982
-0.00533147
-0.00543932
-0.00532208
-0.0049596
-0.00435171
-0.00352924
-0.00256518
-0.00158019
-0.000732004
-0.000176121
0
0
-0.000217085
-0.000731854
-0.00143249
-0.00223395
-0.00307346
-0.00390306
-0.00468225
-0.00537257
-0.00593455
-0.00632665
-0.00650645
-0.00643381
-0.00607723
-0.00542297
-0.00448931
-0.00334379
-0.00211914
-0.00101404
-0.000254617
0
0
-0.000250011
-0.000840179
-0.00163972
-0.00255051
-0.00350207
-0.00444252
-0.00532976
-0.00612463
-0.00678673
-0.00727247
-0.00753523
-0.00752711
-0.00720561
-0.00654065
-0.00553157
-0.00422954
-0.00276603
-0.00137338
-0.000361607
0
0
-0.000281223
-0.000942284
-0.00183241
-0.00284008
-0.00388775
-0.00492093
-0.0058975
-0.00677951
-0.00752792
-0.00809963
-0.00844656
-0.00851648
-0.00825692
-0.00762208
-0.00658798
-0.0051784
-0.00350525
-0.00181574
-0.000505381
0
0
-0.000312227
-0.00104033
-0.00201038
-0.00309704
-0.00421706
-0.00531531
-0.00635179
-0.00729196
-0.00810056
-0.0087378
-0.00915757
-0.00930703
-0.00912812
-0.00856229
-0.00756204
-0.00611592
-0.0042964
-0.00233519
-0.000694451
0
0
-0.000347671
-0.00114272
-0.00218099
-0.00332322
-0.00448345
-0.00560916
-0.00666528
-0.00762311
-0.00845356
-0.00912282
-0.00959003
-0.0098059
-0.00971236
-0.00924417
-0.00833533
-0.0069379
-0.00506879
-0.00290646
-0.000934679
0
0
-0.000397814
-0.00126733
-0.00236111
-0.00352837
-0.00468659
-0.00579111
-0.00681542
-0.00773934
-0.00854202
-0.00919778
-0.0096736
-0.00992751
-0.00990705
-0.00954823
-0.00877637
-0.00751462
-0.00571832
-0.00347595
-0.00122311
0
0
-0.000482451
-0.00144385
-0.00257451
-0.00372281
-0.0048217
-0.00584208
-0.00677049
-0.00759776
-0.00831286
-0.00889954
-0.00933439
-0.00958537
-0.00961029
-0.00935394
-0.00874534
-0.00769459
-0.00610518
-0.00395137
-0.0015375
0
0
-0.000634729
-0.00170583
-0.00282839
-0.003883
-0.00483886
-0.00569196
-0.00644587
-0.00710375
-0.00766468
-0.00812184
-0.00846175
-0.00866358
-0.00869828
-0.00852489
-0.00808728
-0.00730228
-0.00604655
-0.00418784
-0.00182266
0
0
-0.000893357
-0.00202783
-0.00301356
-0.00383741
-0.00452909
-0.00511298
-0.00560766
-0.00602567
-0.00637327
-0.00665074
-0.00685294
-0.00696957
-0.0069853
-0.00687554
-0.00660659
-0.0061202
-0.00530518
-0.00396129
-0.00194213
0
0
-0.00115675
-0.00203511
-0.00259072
-0.00299358
-0.00330253
-0.00354405
-0.00373606
-0.00389017
-0.00401265
-0.00410578
-0.00416899
-0.00419966
-0.00419349
-0.00414005
-0.00402983
-0.00383914
-0.00350817
-0.00286844
-0.00162366
0
0
0
0
0
0
0
0
0
0
0
0
0
0
0
0
0
0
0
0
0
0
0
0
0
0
0
0
0
0
0
0
0
0
0
0
0
0
0
0
0
0
0
0
1.26645e-06
-2.85579e-06
-1.22785e-05
-2.5141e-05
-3.97544e-05
-5.47369e-05
-6.88797e-05
-8.0982e-05
-8.98321e-05
-9.42034e-05
-9.30913e-05
-8.6055e-05
-7.3359e-05
-5.6389e-05
-3.74589e-05
-1.95543e-05
-5.6669e-06
1.9927e-06
2.98169e-06
0
0
-3.0516e-06
-2.33296e-05
-5.92117e-05
-0.000105458
-0.000156912
-0.000208993
-0.000257502
-0.000298324
-0.000327406
-0.000340961
-0.000336125
-0.000311753
-0.000269137
-0.000212644
-0.000149436
-8.8581e-05
-3.91899e-05
-8.0672e-06
2.86372e-06
0
0
-1.41333e-05
-6.37815e-05
-0.000142633
-0.000240485
-0.000347449
-0.000454555
-0.000553434
-0.000635923
-0.000694103
-0.000720802
-0.00071074
-0.000661913
-0.000576896
-0.000463838
-0.000336154
-0.000210971
-0.00010586
-3.44909e-05
-1.97247e-06
0
0
-3.15676e-05
-0.000123344
-0.000260818
-0.000426955
-0.000606012
-0.000783808
-0.000947083
-0.00108293
-0.00117892
-0.00122384
-0.00120943
-0.00113229
-0.000995925
-0.000812305
-0.000601783
-0.000391143
-0.000208935
-7.8732e-05
-1.17349e-05
0
0
-5.4629e-05
-0.000200119
-0.000410455
-0.000659943
-0.000926021
-0.00118875
-0.00142962
-0.00163061
-0.00177433
-0.00184499
-0.00183051
-0.00172509
-0.00153211
-0.00126653
-0.000955653
-0.000637264
-0.000353873
-0.000143172
-2.67446e-05
0
0
-8.24337e-05
-0.000291552
-0.000587045
-0.000932996
-0.00129928
-0.00165994
-0.00199109
-0.00226957
-0.00247278
-0.00257977
-0.00257365
-0.00244473
-0.00219443
-0.00183896
-0.00141159
-0.000961917
-0.000549701
-0.000232352
-4.80916e-05
0
0
-0.000113912
-0.000394456
-0.000784899
-0.00123792
-0.00171536
-0.00218519
-0.00261841
-0.00298689
-0.00326282
-0.00341966
-0.00343463
-0.00329243
-0.00298998
-0.00254197
-0.00198535
-0.00138109
-0.000809109
-0.000353405
-7.78257e-05
0
0
-0.000147794
-0.000505013
-0.000997113
-0.00156458
-0.00216099
-0.0027485
-0.00329343
-0.00376322
-0.00412519
-0.00434712
-0.00439954
-0.00425974
-0.00391741
-0.00338194
-0.00269002
-0.00191139
-0.00114742
-0.000516027
-0.000119067
0
0
-0.000182655
-0.000618929
-0.00121576
-0.00190098
-0.00261992
-0.00332933
-0.00399165
-0.00457072
-0.00502982
-0.00533147
-0.00543932
-0.00532208
-0.0049596
-0.00435171
-0.00352924
-0.00256518
-0.00158019
-0.000732004
-0.000176121
0
0
-0.000217085
-0.000731854
-0.00143249
-0.00223395
-0.00307346
-0.00390306
-0.00468225
-0.00537257
-0.00593455
-0.00632665
-0.00650645
-0.00643381
-0.00607723
-0.00542297
-0.00448931
-0.00334379
-0.00211914
-0.00101404
-0.000254617
0
0
-0.000250011
-0.000840179
-0.00163972
-0.00255051
-0.00350207
-0.00444252
-0.00532976
-0.00612463
-0.00678673
-0.00727247
-0.00753523
-0.00752711
-0.00720561
-0.00654065
-0.00553157
-0.00422954
-0.00276603
-0.00137338
-0.000361607
0
0
-0.000281223
-0.000942284
-0.00183241
-0.00284008
-0.00388775
-0.00492093
-0.0058975
-0.00677951
-0.00752792
-0.00809963
-0.00844656
-0.00851648
-0.00825692
-0.00762208
-0.00658798
-0.0051784
-0.00350525
-0.00181574
-0.000505381
0
0
-0.000312227
-0.00104033
-0.00201038
-0.00309704
-0.00421706
-0.00531531
-0.00635179
-0.00729196
-0.00810056
-0.0087378
-0.00915757
-0.00930703
-0.00912812
-0.00856229
-0.00756204
-0.00611592
-0.0042964
-0.00233519
-0.000694451
0
0
-0.000347671
-0.00114272
-0.00218099
-0.00332322
-0.00448345
-0.00560916
-0.00666528
-0.00762311
-0.00845356
-0.00912282
-0.00959003
-0.0098059
-0.00971236
-0.00924417
-0.00833533
-0.0069379
-0.00506879
-0.00290646
-0.000934679
0
0
-0.000397814
-0.00126733
-0.00236111
-0.00352837
-0.00468659
-0.00579111
-0.00681542
-0.00773934
-0.00854202
-0.00919778
-0.0096736
-0.00992751
-0.00990705
-0.00954823
-0.00877637
-0.00751462
-0.00571832
-0.00347595
-0.00122311
0
0
-0.000482451
-0.00144385
-0.00257451
-0.00372281
-0.0048217
-0.00584208
-0.00677049
-0.00759776
-0.00831286
-0.00889954
-0.00933439
-0.00958537
-0.00961029
-0.00935394
-0.00874534
-0.00769459
-0.00610518
-0.00395137
-0.0015375
0
0
-0.000634729
-0.00170583
-0.00282839
-0.003883
-0.00483886
-0.00569196
-0.00644587
-0.00710375
-0.00766468
-0.00812184
-0.00846175
-0.00866358
-0.00869828
-0.00852489
-0.00808728
-0.00730228
-0.00604655
-0.00418784
-0.00182266
0
0
-0.000893357
-0.00202783
-0.00301356
-0.00383741
-0.00452909
-0.00511298
-0.00560766
-0.00602567
-0.00637327
-0.00665074
-0.00685294
-0.00696957
-0.0069853
-0.00687554
-0.00660659
-0.0061202
-0.00530518
-0.00396129
-0.00194213
0
0
-0.00115675
-0.00203511
-0.00259072
-0.00299358
-0.00330253
-0.00354405
-0.00373606
-0.00389017
-0.00401265
-0.00410578
-0.00416899
-0.00419966
-0.00419349
-0.00414005
-0.00402983
-0.00383914
-0.00350817
-0.00286844
-0.00162366
0
0
0
0
0
0
0
0
0
0
0
0
0
0
0
0
0
0
0
0
0
0
)
;

boundaryField
{
    movingWall
    {
        type            calculated;
    }
    fixedWalls
    {
        type            calculated;
    }
    frontAndBack
    {
        type            empty;
    }
}


// ************************************************************************* //
