/*--------------------------------*- C++ -*----------------------------------*\
| =========                 |                                                 |
| \\      /  F ield         | OpenFOAM: The Open Source CFD Toolbox           |
|  \\    /   O peration     | Version:  2506                                  |
|   \\  /    A nd           | Website:  www.openfoam.com                      |
|    \\/     M anipulation  |                                                 |
\*---------------------------------------------------------------------------*/
FoamFile
{
    version     2.0;
    format      ascii;
    arch        "LSB;label=32;scalar=64";
    class       volScalarField;
    location    "100";
    object      div(phi);
}
// * * * * * * * * * * * * * * * * * * * * * * * * * * * * * * * * * * * * * //

dimensions      [0 0 -1 0 0 0 0];

internalField   nonuniform List<scalar> 
1340
(
0.000257441
-0.000191788
3.29207e-05
-0.000321674
0.000437057
0.000229063
-2.02423e-05
-0.000108264
-7.53342e-07
-1.91417e-05
0.000214842
6.93632e-05
-3.11615e-05
-2.51997e-05
-8.32921e-06
3.47356e-05
9.85377e-06
8.61712e-05
9.14475e-05
1.8478e-06
-6.287e-06
2.16341e-05
3.07571e-05
2.48187e-05
2.60034e-05
0.000167606
4.98398e-05
2.37968e-05
1.35825e-05
1.82277e-05
2.1516e-05
2.86731e-05
2.02556e-05
3.87379e-05
8.21763e-05
4.83059e-05
1.69624e-05
1.82951e-05
1.74466e-05
2.46472e-05
5.26235e-06
2.3511e-05
1.44425e-05
-5.00592e-06
-6.35216e-05
2.76837e-05
2.41155e-05
1.58885e-05
1.61251e-05
6.00943e-06
1.45826e-05
1.18719e-06
1.65701e-05
-7.1187e-06
-1.26623e-05
2.42892e-05
1.19251e-05
1.45603e-05
8.92009e-06
1.35779e-05
-3.78918e-06
7.73551e-06
-2.84018e-06
9.91822e-06
-1.14077e-05
-2.3522e-05
1.5421e-05
1.65932e-05
9.55888e-06
9.0239e-06
-1.14154e-06
4.60691e-06
-7.82865e-06
6.33611e-06
-4.12932e-07
5.34277e-06
-9.1962e-06
1.60559e-05
6.52943e-06
8.122e-06
2.9456e-06
4.63246e-06
-7.4197e-06
-1.88912e-06
-3.99486e-06
6.87348e-06
5.28294e-06
-1.31013e-05
4.85571e-05
7.72811e-06
8.96767e-06
3.70434e-06
2.73492e-06
-4.65988e-06
-3.22514e-06
-9.66788e-06
-2.97328e-06
5.36504e-06
-6.8081e-08
1.74275e-05
-2.43625e-05
7.20633e-06
2.53496e-06
2.89642e-06
-1.3731e-06
-2.41484e-06
-8.77969e-06
-9.36407e-06
-5.4027e-06
-2.70918e-07
2.399e-06
-2.91446e-06
4.52923e-05
4.2814e-06
4.64037e-06
-6.1465e-09
-1.60027e-06
-5.33988e-06
-9.53459e-06
-9.56929e-06
-1.12915e-05
7.72912e-07
-1.0478e-06
8.84273e-06
-2.57435e-05
3.85927e-05
5.38915e-06
3.85658e-07
3.4125e-08
-3.31667e-06
-7.72104e-06
-7.95557e-06
-1.58369e-05
-6.68185e-06
-9.29534e-06
1.95266e-06
-1.84757e-06
2.18892e-06
-9.83092e-06
3.06429e-06
1.82066e-06
-2.42411e-06
-4.56243e-06
-5.29975e-06
-1.44676e-05
-9.87329e-06
-1.87639e-05
-1.46021e-06
-3.34029e-06
1.52803e-06
-1.00731e-05
-1.04945e-05
5.69222e-07
2.89619e-06
2.11469e-07
-2.48858e-06
-4.88685e-06
-1.18381e-05
-7.51994e-06
-2.04559e-05
-7.85746e-06
-1.48828e-05
2.18166e-07
-2.61111e-06
9.72669e-07
-6.09792e-06
-2.22612e-06
4.66587e-06
-2.44257e-06
-3.79141e-06
-6.54169e-06
-3.94428e-06
-1.79672e-05
-7.96934e-06
-2.37578e-05
-1.45827e-06
-4.35364e-06
-1.5222e-06
-1.48109e-05
-3.40131e-06
1.65607e-06
-1.70013e-07
8.58303e-07
-6.31769e-06
-6.10828e-06
-1.46444e-05
-5.08059e-06
-2.36527e-05
-6.11318e-06
-1.92168e-05
-2.02056e-06
-6.48555e-06
2.38515e-06
-1.8969e-06
-1.56145e-05
7.6244e-05
2.09931e-05
-1.75114e-05
-9.4009e-06
-9.14424e-06
-3.01186e-06
-2.01525e-05
-6.70332e-06
-2.68948e-05
-2.63762e-06
-8.78985e-06
-3.8352e-06
-1.68953e-05
-1.87783e-05
5.26598e-05
-4.17417e-05
-2.38212e-05
-4.37652e-06
-1.71883e-05
-9.22393e-06
-1.70245e-05
-3.79218e-06
-2.50834e-05
-5.28337e-06
-2.29915e-05
-4.74124e-06
-1.05067e-05
-5.18955e-07
3.97813e-06
-3.71458e-05
0.000133761
2.93132e-05
-2.67902e-05
-1.84038e-05
-1.16662e-05
-1.38025e-06
-2.11134e-05
-3.66378e-06
-2.85196e-05
-1.42205e-06
-1.23104e-05
-4.20423e-06
-2.17713e-05
-2.26434e-05
2.11672e-05
2.28036e-05
0.000148529
-2.66758e-05
-1.1393e-05
-1.29397e-05
-8.36796e-06
-1.74699e-05
-8.47904e-07
-2.55331e-05
-2.28677e-06
-2.51842e-05
-5.48951e-06
-1.25871e-05
-2.0174e-06
-1.25379e-05
1.01497e-05
1.08269e-05
0.000140544
-2.22081e-05
-1.26038e-05
-9.92881e-06
2.7455e-07
-2.09583e-05
-1.97667e-06
-2.87689e-05
-1.64515e-06
-1.33483e-05
-5.90539e-06
-2.44083e-05
-2.40259e-05
2.24074e-05
3.93734e-05
9.3909e-07
0.000123697
-1.43277e-05
-1.0102e-05
-6.48179e-06
-1.70801e-05
4.71535e-07
-2.47895e-05
-1.14236e-06
-2.53412e-05
-6.24204e-06
-1.29636e-05
-2.74017e-06
-7.13369e-06
-8.27623e-06
4.25447e-05
1.85083e-05
-1.97916e-05
-1.56653e-05
-9.1878e-06
-8.26915e-06
2.31926e-06
-2.0108e-05
7.96137e-07
-2.79516e-05
6.5472e-07
-1.27874e-05
-4.13034e-06
-2.6378e-05
-1.93542e-05
1.87436e-05
4.5321e-05
-3.75411e-05
7.16502e-05
-1.21014e-05
-6.80879e-06
-4.76159e-06
-1.58631e-05
2.92586e-06
-2.36294e-05
1.76121e-06
-2.45591e-05
-4.20753e-06
-1.30018e-05
-1.30028e-06
-8.27574e-06
3.03062e-05
-2.35497e-06
4.15641e-05
-6.05659e-05
8.29566e-05
-1.07063e-05
-7.27964e-06
-6.65356e-06
3.42715e-06
-1.8802e-05
1.96643e-06
-2.64772e-05
1.50849e-06
-1.19741e-05
-4.59428e-06
-2.71706e-05
3.44981e-06
1.54714e-05
5.07251e-05
-1.30123e-05
7.90087e-06
-3.75602e-05
-9.01578e-06
-6.02961e-06
-3.66762e-06
-1.48278e-05
3.56545e-06
-2.18792e-05
2.56156e-06
-2.31411e-05
-3.92338e-06
-1.28141e-05
3.90124e-07
2.75565e-06
2.39257e-05
1.58311e-05
8.6302e-06
-5.08042e-05
6.3422e-05
-1.06007e-05
-5.63044e-06
-5.64983e-06
4.57097e-06
-1.73047e-05
3.89037e-06
-2.46216e-05
3.57265e-06
-1.09754e-05
-4.48982e-06
-2.39904e-05
-2.16603e-06
2.77447e-05
1.38454e-05
-1.49649e-05
-6.7081e-07
-6.31889e-05
7.83755e-05
-7.32465e-06
-3.96686e-06
-2.69653e-06
-1.33396e-05
5.13748e-06
-2.00852e-05
4.67243e-06
-2.15539e-05
-2.6859e-06
-1.26394e-05
4.66513e-07
2.6526e-06
1.13557e-05
1.1855e-05
-6.51284e-06
-3.43792e-05
-5.12566e-07
-2.79519e-05
-7.01518e-06
-4.74221e-06
-4.53636e-06
4.9359e-06
-1.56579e-05
4.38695e-06
-2.25094e-05
3.78089e-06
-1.02419e-05
-4.65463e-06
-2.35366e-05
-5.11986e-06
1.88602e-05
6.38003e-06
-2.32156e-05
-4.91597e-06
-7.38696e-05
5.15001e-05
-5.54445e-06
-3.98207e-06
-2.118e-06
-1.22018e-05
5.14608e-06
-1.80144e-05
4.82629e-06
-1.97419e-05
-2.66049e-06
-1.20392e-05
7.53135e-08
-8.72757e-07
3.46953e-06
3.76785e-06
-9.80026e-06
-5.74341e-05
-2.25039e-06
-6.13006e-05
4.83357e-05
-7.80717e-06
-3.81082e-06
-3.93238e-06
5.38371e-06
-1.40288e-05
5.49939e-06
-2.02671e-05
4.99092e-06
-9.18838e-06
-3.59918e-06
-2.27415e-05
-7.2499e-06
1.23689e-05
9.90911e-07
-2.21762e-05
-1.33126e-05
-5.70106e-05
6.89862e-06
-3.78085e-05
-4.82276e-06
-2.58939e-06
-1.58151e-06
-1.07625e-05
5.97597e-06
-1.60538e-05
6.1109e-06
-1.77694e-05
-1.53292e-06
-1.10058e-05
4.83723e-07
-1.57748e-06
1.72865e-06
4.5716e-06
-4.3976e-06
-5.16036e-05
5.79058e-06
-7.44777e-05
6.29119e-05
-5.17562e-06
-3.35567e-06
-3.13498e-06
5.26706e-06
-1.23871e-05
5.4675e-06
-1.79375e-05
4.83655e-06
-8.1673e-06
-3.06798e-06
-2.03962e-05
-6.08979e-06
1.32592e-05
4.54586e-06
-1.3345e-05
-1.45919e-06
-7.10849e-05
1.40165e-05
-5.93529e-05
4.5955e-05
-3.76345e-06
-2.83517e-06
-1.26728e-06
-9.68434e-06
5.57708e-06
-1.40201e-05
5.78609e-06
-1.56728e-05
-1.3595e-06
-9.6159e-06
1.40565e-06
2.01555e-07
3.7344e-06
8.36987e-06
2.13774e-06
-4.06114e-05
7.77819e-06
-5.41164e-05
9.93328e-06
-3.35294e-05
-6.08171e-06
-2.72707e-06
-2.74122e-06
5.29732e-06
-1.08743e-05
5.93299e-06
-1.56716e-05
5.46133e-06
-6.89632e-06
-1.82042e-06
-1.70867e-05
-4.16308e-06
1.3999e-05
6.84722e-06
-8.35039e-06
7.43624e-06
-6.54386e-05
1.67549e-05
-6.07428e-05
-3.68833e-06
-3.37042e-06
-1.78685e-06
-9.46293e-07
-8.40313e-06
5.87436e-06
-1.22213e-05
6.36612e-06
-1.36011e-05
-3.19696e-07
-7.88723e-06
2.45496e-06
1.75992e-06
4.6841e-06
9.16467e-06
5.82452e-06
-3.3731e-05
1.61196e-05
-6.32016e-05
-6.20929e-06
-3.52951e-05
8.75941e-07
-3.9631e-06
-2.42461e-06
-2.14598e-06
4.92437e-06
-9.45847e-06
5.50099e-06
-1.35218e-05
5.03825e-06
-5.74082e-06
-1.15153e-06
-1.39172e-05
-2.56209e-06
1.32487e-05
7.11533e-06
-6.46206e-06
1.06228e-05
-5.49662e-05
1.78911e-05
-3.88093e-05
1.25288e-05
-1.73179e-05
-2.57361e-06
-2.03513e-06
-7.57641e-07
-7.48638e-06
5.20719e-06
-1.05077e-05
5.67093e-06
-1.16316e-05
-1.47914e-07
-6.27241e-06
3.25687e-06
2.57932e-06
4.56877e-06
8.15005e-06
7.15011e-06
-2.80969e-05
1.73346e-05
-4.97459e-05
1.63972e-05
-9.08485e-06
7.76761e-06
-4.6798e-06
-1.93651e-06
-1.89606e-06
4.67749e-06
-8.23008e-06
5.45904e-06
-1.15885e-05
5.1887e-06
-4.59016e-06
-1.49662e-07
-1.10762e-05
-1.49218e-06
1.16345e-05
6.64219e-06
-5.6853e-06
9.50872e-06
-3.92908e-05
1.90295e-05
4.5863e-06
1.04082e-05
2.27934e-05
-2.27788e-06
-1.22179e-06
-5.80464e-07
-6.44712e-06
5.11409e-06
-9.06262e-06
5.72797e-06
-9.86974e-06
5.64763e-07
-4.83857e-06
3.72363e-06
2.98786e-06
4.09827e-06
6.13305e-06
6.56217e-06
-2.07563e-05
1.32096e-05
1.34963e-06
1.79422e-05
1.35522e-05
-2.02506e-07
9.57102e-06
-2.94174e-06
-1.72699e-06
-1.4779e-06
4.15439e-06
-7.11889e-06
4.79497e-06
-9.85994e-06
4.57411e-06
-3.72981e-06
1.54439e-07
-8.86453e-06
-9.02975e-07
9.24325e-06
5.7427e-06
-5.54299e-06
4.91915e-06
-1.59143e-06
1.42199e-05
-9.16247e-06
8.50487e-06
-2.53254e-05
1.06183e-05
-1.66618e-06
-1.44402e-06
-4.92782e-07
-5.716e-06
4.33008e-06
-7.73347e-06
4.87607e-06
-8.33568e-06
4.85511e-07
-3.80885e-06
3.77856e-06
2.61115e-06
2.76765e-06
4.40633e-06
2.7026e-06
2.47004e-06
3.67537e-06
-1.36459e-05
6.27449e-06
-3.69652e-05
4.79764e-06
-2.6428e-05
-3.47612e-06
-1.36327e-06
-1.34357e-06
3.76545e-06
-6.16204e-06
4.48961e-06
-8.36876e-06
4.39252e-06
-3.0002e-06
6.14416e-07
-7.25273e-06
-1.03819e-06
7.27548e-06
2.38808e-06
1.95706e-06
-1.40255e-06
-1.13496e-05
4.37938e-06
-4.58061e-05
5.98137e-06
-3.93235e-05
2.19153e-05
-1.44123e-06
-8.44051e-07
-4.065e-07
-4.88944e-06
4.0629e-06
-6.62224e-06
4.67169e-06
-7.03335e-06
7.94892e-07
-3.04464e-06
3.6105e-06
1.90687e-06
1.04723e-06
1.97476e-06
6.67175e-07
-3.87514e-06
9.2911e-07
-2.82303e-05
9.65985e-06
-4.43877e-05
7.9835e-06
-2.87045e-05
2.42738e-05
-2.10263e-06
-1.21887e-06
-1.04633e-06
3.24572e-06
-5.29424e-06
3.82166e-06
-7.06587e-06
3.71665e-06
-2.51329e-06
5.72586e-07
-6.10174e-06
-1.21985e-06
5.06417e-06
6.68876e-07
4.6069e-07
-3.51496e-06
-1.34206e-05
3.85088e-06
-3.98818e-05
1.2529e-05
-2.41229e-05
7.44575e-06
-1.08514e-05
-1.00168e-06
-1.0102e-06
-3.51733e-07
-4.29069e-06
3.34997e-06
-5.60938e-06
3.86751e-06
-5.92551e-06
5.41386e-07
-2.54909e-06
3.17901e-06
1.46971e-06
4.01103e-07
1.74704e-06
1.11227e-06
-2.07494e-06
2.68765e-06
-2.25036e-05
1.39665e-05
-3.51507e-05
1.13052e-05
-1.4127e-05
1.59256e-05
-2.47053e-06
-9.37152e-07
-9.52847e-07
2.86465e-06
-4.53843e-06
3.46816e-06
-5.95107e-06
3.40478e-06
-2.10628e-06
6.46875e-07
-5.11258e-06
-1.07589e-06
4.34615e-06
1.08232e-06
1.67899e-06
-1.03574e-06
-1.00274e-05
7.12593e-06
-3.24824e-05
1.54783e-05
-1.98768e-05
1.01512e-05
-1.53964e-05
-8.16917e-07
-5.51442e-07
-2.75818e-07
-3.61541e-06
3.06891e-06
-4.75112e-06
3.59613e-06
-4.98005e-06
6.274e-07
-2.14437e-06
2.76226e-06
1.09365e-06
-6.62527e-10
1.00515e-06
4.54984e-07
-2.44326e-06
2.32054e-06
-1.96162e-05
1.34254e-05
-3.03847e-05
1.19902e-05
-2.18092e-05
1.70168e-05
-1.40285e-06
-7.94573e-07
-7.08679e-07
2.4466e-06
-3.83422e-06
2.91447e-06
-4.95363e-06
2.79873e-06
-1.82071e-06
4.4632e-07
-4.40727e-06
-1.28541e-06
2.71932e-06
-2.76162e-07
-2.80339e-07
-2.73039e-06
-1.01618e-05
4.709e-06
-2.7855e-05
1.4823e-05
-2.55773e-05
1.01002e-05
-1.5696e-05
1.94105e-05
-4.6187e-07
-6.22306e-07
-1.87447e-07
-3.09573e-06
2.51908e-06
-3.94091e-06
2.92173e-06
-4.13735e-06
3.52688e-07
-1.86526e-06
2.21722e-06
6.04567e-07
-6.48992e-07
3.93228e-07
5.49728e-08
-1.8713e-06
2.59032e-06
-1.53213e-05
1.25238e-05
-2.55243e-05
1.45367e-05
-1.20488e-05
8.99571e-06
-4.57443e-06
-1.59244e-06
-5.33447e-07
-5.89865e-07
2.14515e-06
-3.19134e-06
2.59731e-06
-4.06472e-06
2.51451e-06
-1.55131e-06
3.19014e-07
-3.75396e-06
-1.17523e-06
2.23459e-06
8.05007e-08
6.5175e-07
-7.75871e-07
-7.03503e-06
6.44972e-06
-2.18246e-05
1.50157e-05
-1.95314e-05
1.20628e-05
-4.45674e-06
1.4428e-05
-2.86912e-07
-2.23287e-07
-9.34316e-08
-2.50674e-06
2.27593e-06
-3.23941e-06
2.74384e-06
-3.43502e-06
3.96119e-07
-1.61321e-06
1.8193e-06
4.57282e-07
-6.6282e-07
3.381e-07
6.4863e-08
-1.48053e-06
2.74804e-06
-1.23766e-05
1.1618e-05
-1.99778e-05
1.39848e-05
-6.64057e-06
1.07625e-05
-1.35338e-06
-7.3933e-07
-3.73133e-07
-3.77647e-07
1.83803e-06
-2.57876e-06
2.23181e-06
-3.32776e-06
2.14496e-06
-1.46592e-06
1.36269e-07
-3.07649e-06
-1.22311e-06
1.414e-06
-4.55297e-07
-2.86776e-07
-1.48996e-06
-6.45247e-06
4.55826e-06
-1.71371e-05
1.25285e-05
-1.25626e-05
1.18041e-05
3.8169e-07
1.24762e-05
-1.16546e-07
-3.63925e-07
-1.07688e-07
-2.12866e-06
1.93343e-06
-2.63621e-06
2.2348e-06
-2.9269e-06
5.47985e-08
-1.41452e-06
1.3444e-06
3.28308e-07
-7.98727e-07
-2.56491e-07
-1.3742e-07
-1.0634e-06
2.59542e-06
-8.51032e-06
9.97353e-06
-1.17872e-05
1.26535e-05
3.02636e-06
9.98781e-06
5.27385e-06
-7.04174e-07
1.09574e-08
-5.25329e-08
1.73301e-06
-2.12825e-06
2.00106e-06
-2.7672e-06
1.73381e-06
-1.12886e-06
1.77192e-07
-2.30764e-06
-5.41545e-07
1.2159e-07
3.46289e-07
-2.34015e-07
2.20971e-07
-3.99372e-06
5.09088e-06
-8.91024e-06
1.11413e-05
2.61964e-06
1.13245e-05
5.38107e-06
5.71603e-06
3.21285e-06
-9.43232e-08
-2.73204e-07
-2.74641e-07
-1.71396e-06
1.83789e-06
-2.24116e-06
2.12923e-06
-2.18093e-06
2.99986e-10
-1.06371e-06
1.48881e-06
-5.86738e-07
5.49454e-07
-1.32579e-06
1.03155e-06
-1.13333e-06
3.3274e-06
-2.78925e-06
9.39607e-06
3.11241e-06
1.06083e-05
1.03032e-06
6.42264e-06
-3.44947e-06
4.85903e-06
-3.36923e-07
-1.19519e-08
1.96215e-07
1.68877e-06
-2.02982e-06
1.88449e-06
-2.11278e-06
1.12915e-06
-6.44562e-07
3.45078e-07
-1.96594e-06
2.90192e-07
-8.66079e-07
8.87154e-07
-2.61613e-07
5.30363e-07
-2.2108e-07
3.19605e-06
2.23996e-06
6.41932e-06
-4.438e-07
6.11041e-06
-7.12635e-06
3.61647e-06
-3.49266e-06
1.28504e-08
-2.90437e-07
-2.45054e-07
-1.6163e-06
1.61716e-06
-1.75302e-06
1.60379e-06
-1.20658e-06
1.65791e-07
-7.32031e-07
1.38568e-06
-6.19519e-07
4.41051e-07
-1.91209e-07
3.06308e-07
1.315e-07
-1.02136e-07
3.41326e-07
1.16151e-06
-9.57419e-07
3.80119e-06
-7.87728e-06
3.53067e-06
-4.18499e-06
3.75974e-06
-4.21796e-07
2.44541e-08
2.31917e-08
1.35411e-06
-1.4394e-06
1.49255e-06
-1.30051e-06
8.96056e-07
-3.76186e-07
5.26708e-07
-1.30467e-06
1.7108e-07
4.43287e-07
6.76417e-07
6.20043e-07
2.02181e-07
2.47857e-07
2.05247e-08
-8.67367e-08
1.8331e-06
-6.25548e-06
3.36936e-06
-7.1651e-06
2.04238e-06
-3.45104e-06
1.58851e-07
2.75357e-08
6.90685e-08
-1.07646e-06
1.36247e-06
-1.09049e-06
1.28519e-06
-6.47446e-07
4.15659e-07
-4.5497e-07
9.23727e-07
4.01664e-07
6.58764e-08
1.27541e-06
7.5805e-08
1.43548e-06
-3.41588e-07
1.09805e-06
-1.55243e-07
-4.65477e-06
2.12679e-06
-9.46286e-06
2.17431e-06
-3.81818e-06
3.39585e-06
-9.14097e-08
7.14068e-08
7.87766e-08
1.12157e-06
-8.80472e-07
1.18468e-06
-7.07759e-07
7.61154e-07
-1.26268e-07
4.87032e-07
-5.80199e-07
-8.97163e-08
9.56643e-07
4.09597e-07
8.12526e-07
4.41496e-07
9.055e-07
4.65249e-07
-1.99334e-06
2.24505e-06
-7.94331e-06
3.29549e-06
-5.30204e-06
1.94278e-06
-2.7743e-06
3.04084e-07
2.01196e-07
2.98054e-07
-5.85914e-07
1.02905e-06
-5.90285e-07
9.07257e-07
-2.9104e-07
3.88762e-07
-2.00896e-07
5.90881e-07
4.29695e-07
1.56309e-08
4.70982e-07
5.42827e-07
4.99615e-07
7.80957e-07
3.35119e-07
2.34116e-06
-3.98122e-06
4.17466e-06
-6.29515e-06
2.48302e-06
-1.91597e-06
3.10029e-06
-1.52524e-08
2.11533e-07
1.32802e-07
8.46145e-07
-4.15e-07
8.29731e-07
-3.40359e-07
4.92047e-07
2.29879e-08
3.81211e-07
-2.57279e-07
1.09403e-07
5.48342e-07
2.39275e-07
6.90754e-07
3.66965e-07
7.34224e-07
4.92144e-07
-1.96072e-06
2.69163e-06
-4.91076e-06
3.77288e-06
-6.49943e-07
2.48952e-06
2.44637e-07
4.57934e-07
3.52601e-07
3.87739e-07
-1.42367e-07
7.69596e-07
-2.30757e-07
5.66956e-07
-8.71001e-08
2.58443e-07
-7.31178e-08
5.38296e-07
1.67337e-07
3.38514e-07
3.18979e-07
5.51227e-07
2.82168e-07
6.2655e-07
-7.65712e-08
2.22137e-06
-1.52146e-06
4.44521e-06
3.36692e-07
3.46483e-06
8.10177e-07
1.40311e-06
-5.63527e-08
2.40115e-07
2.93944e-07
2.5996e-07
6.33979e-07
1.701e-09
5.17781e-07
-3.30276e-08
2.55501e-07
2.72894e-07
4.32591e-07
1.19238e-07
2.27656e-07
5.27635e-08
2.3358e-07
1.23241e-07
2.38768e-07
1.41957e-10
6.03002e-07
-4.76046e-08
2.66786e-06
1.15927e-06
3.39465e-06
-4.19856e-07
1.6351e-06
-1.53194e-06
1.63699e-06
3.24708e-07
4.52931e-07
2.71215e-07
3.16667e-07
4.85371e-07
1.52073e-07
2.48054e-07
1.7704e-07
2.87791e-07
4.03547e-07
1.75459e-07
-1.62666e-07
-1.20849e-07
-2.17297e-07
-9.43266e-08
-1.885e-08
-5.84325e-08
3.64001e-07
1.99938e-07
5.93435e-07
8.43372e-07
-7.94371e-07
1.81872e-06
-9.46845e-07
1.86025e-06
-8.10157e-07
5.64518e-07
1.8567e-07
4.49641e-07
4.77401e-07
4.05562e-07
3.08521e-07
1.81624e-07
1.05756e-07
3.18713e-07
1.25308e-07
-1.51736e-07
-2.62343e-07
-8.15286e-07
-2.40716e-07
-6.32996e-07
-2.02661e-07
-3.41658e-07
1.49128e-08
-4.35439e-08
1.56403e-07
-1.33332e-09
1.20466e-06
-2.87954e-07
1.61689e-06
-1.06674e-07
1.64353e-06
2.61785e-07
4.20862e-07
4.31601e-07
4.8286e-07
4.11974e-07
2.72155e-07
1.17259e-07
1.17849e-07
1.04458e-07
-1.47403e-08
-1.87081e-07
-8.30081e-07
-1.69969e-07
-1.00095e-06
-1.35708e-08
-9.22558e-07
3.86181e-08
-4.26937e-07
1.01211e-07
-2.21436e-07
-4.00099e-07
-2.53868e-07
5.21732e-07
2.17005e-07
9.18137e-07
-1.23602e-07
2.84693e-07
1.61983e-07
1.36388e-07
1.28659e-07
8.38026e-08
3.56615e-08
2.21688e-08
2.28599e-08
6.36521e-09
-4.60059e-08
-2.04812e-07
-1.13619e-07
-3.86647e-07
-4.62148e-08
-6.0536e-07
1.501e-08
-7.13723e-07
8.58988e-08
-7.77897e-07
-6.19886e-07
-6.58351e-07
-1.31723e-06
-2.93319e-07
-4.78507e-07
-1.74367e-07
-5.93861e-07
)
;

boundaryField
{
    inlet
    {
        type            extrapolatedCalculated;
        value           nonuniform List<scalar> 
26
(
2.84693e-07
1.61983e-07
1.36388e-07
1.28659e-07
8.38026e-08
3.56615e-08
2.21688e-08
2.28599e-08
6.36521e-09
-4.60059e-08
-2.04812e-07
-1.13619e-07
-3.86647e-07
-4.62148e-08
-6.0536e-07
1.501e-08
-7.13723e-07
8.58988e-08
-7.77897e-07
-6.19886e-07
-6.58351e-07
-1.31723e-06
-2.93319e-07
-4.78507e-07
-1.74367e-07
-5.93861e-07
)
;
    }
    outlet
    {
        type            extrapolatedCalculated;
        value           nonuniform List<scalar> 0();
    }
    walls
    {
        type            extrapolatedCalculated;
        value           nonuniform List<scalar> 0();
    }
    frontAndBack
    {
        type            empty;
    }
    procBoundary0to1
    {
        type            processor;
        value           nonuniform List<scalar> 
94
(
-0.000429905
-0.000153095
-0.000153095
-4.99863e-05
-4.99863e-05
1.5724e-05
1.5724e-05
5.33827e-07
5.33827e-07
-5.88551e-05
-5.88551e-05
-5.3658e-05
-2.99652e-05
-2.99652e-05
-1.10493e-05
-1.49609e-05
-1.49609e-05
-5.3021e-05
6.5382e-05
-7.61941e-05
-7.61941e-05
-4.33106e-05
-1.36825e-05
-1.36825e-05
-3.90377e-06
-3.59666e-07
3.12996e-06
3.12996e-06
8.41834e-06
0.0002329
-3.46872e-05
-3.46872e-05
0.000125405
-5.90124e-05
-5.90124e-05
-3.74564e-05
4.71377e-05
-0.000115321
-0.000115321
-6.75803e-05
4.66056e-05
-0.000103773
-0.000103773
-4.79203e-05
3.41199e-05
-8.90622e-05
-8.90622e-05
-4.84477e-05
3.94635e-05
-7.97003e-05
-7.97003e-05
-3.93119e-05
-3.91841e-05
-5.22716e-05
-5.22716e-05
-2.15669e-05
-7.85601e-06
5.10842e-06
-2.30227e-06
-2.30227e-06
3.98142e-06
-1.94459e-05
7.01044e-06
-3.99994e-05
-3.99994e-05
-1.96229e-05
7.3569e-06
-1.02022e-05
1.01541e-05
-2.05506e-05
-2.05506e-05
-9.0856e-06
1.13181e-05
1.69626e-06
1.28171e-05
5.75475e-06
9.75904e-06
9.75904e-06
6.65353e-06
-1.32224e-06
3.95843e-06
-2.10103e-06
2.37306e-06
-2.09864e-06
1.80294e-06
-8.37845e-07
1.76557e-06
1.76557e-06
1.43922e-06
-8.02915e-07
1.82156e-06
5.74059e-07
7.85251e-07
-1.04121e-06
)
;
    }
    procBoundary0to4
    {
        type            processor;
        value           nonuniform List<scalar> 
72
(
0.000339188
0.000137252
0.00017446
7.77291e-05
4.02632e-05
3.92087e-05
1.23664e-05
2.40007e-05
1.57474e-06
1.10963e-05
-1.85553e-06
7.32262e-06
-3.24815e-06
3.80566e-06
-2.60528e-06
4.86336e-06
-1.40248e-07
5.18114e-06
-4.07218e-06
2.9066e-05
-7.54252e-06
1.09936e-05
7.27257e-06
7.27257e-06
-1.39598e-05
-9.43742e-06
-1.20533e-05
-9.73291e-06
-1.07618e-05
-6.18245e-06
-8.88669e-06
-6.27277e-06
-8.03615e-06
-3.70484e-06
-6.86342e-06
-4.31319e-06
-6.3927e-06
-2.41142e-06
-5.48008e-06
-3.01671e-06
-5.06771e-06
-1.49647e-06
-4.24969e-06
-1.97999e-06
-3.84793e-06
-7.86961e-07
-3.15203e-06
-1.17064e-06
-2.78139e-06
-2.84914e-07
-2.21445e-06
-5.61915e-07
-1.87993e-06
9.23214e-08
-1.40744e-06
-1.11977e-07
-1.09779e-06
3.69117e-07
-7.88348e-07
3.40827e-07
-7.87694e-07
4.23139e-07
-4.66232e-07
3.00071e-07
-2.26019e-07
4.24301e-07
-4.20996e-08
3.50442e-07
2.55461e-07
2.08937e-07
4.84494e-07
1.7673e-07
)
;
    }
    procBoundary0to5
    {
        type            processor;
        value           nonuniform List<scalar> 4(9.46421e-05 5.68434e-05 -0.000311109 0.000317295);
    }
}


// ************************************************************************* //
