/*--------------------------------*- C++ -*----------------------------------*\
| =========                 |                                                 |
| \\      /  F ield         | OpenFOAM: The Open Source CFD Toolbox           |
|  \\    /   O peration     | Version:  2506                                  |
|   \\  /    A nd           | Website:  www.openfoam.com                      |
|    \\/     M anipulation  |                                                 |
\*---------------------------------------------------------------------------*/
FoamFile
{
    version     2.0;
    format      ascii;
    arch        "LSB;label=32;scalar=64";
    class       volScalarField;
    location    "100";
    object      nut;
}
// * * * * * * * * * * * * * * * * * * * * * * * * * * * * * * * * * * * * * //

dimensions      [0 2 -1 0 0 0 0];

internalField   nonuniform List<scalar> 
1340
(
6.08837e-06
6.07702e-06
6.06858e-06
6.06412e-06
6.06483e-06
6.07132e-06
6.06285e-06
6.05871e-06
6.05877e-06
6.06142e-06
6.06082e-06
6.05967e-06
6.05753e-06
6.05953e-06
6.064e-06
6.06713e-06
6.06474e-06
6.06364e-06
6.05815e-06
6.06307e-06
6.06991e-06
6.07628e-06
6.07842e-06
6.07476e-06
6.07135e-06
6.06936e-06
6.06711e-06
6.07606e-06
6.0837e-06
6.08847e-06
6.08942e-06
6.08581e-06
6.08146e-06
6.07801e-06
6.07555e-06
6.08143e-06
6.08909e-06
6.09313e-06
6.09395e-06
6.09468e-06
6.09257e-06
6.08927e-06
6.08595e-06
6.083e-06
6.08067e-06
6.09307e-06
6.09503e-06
6.09349e-06
6.09051e-06
6.09194e-06
6.09216e-06
6.09123e-06
6.08973e-06
6.08779e-06
6.08577e-06
6.09578e-06
6.09128e-06
6.08577e-06
6.08126e-06
6.08336e-06
6.08554e-06
6.08707e-06
6.08793e-06
6.08803e-06
6.08732e-06
6.08658e-06
6.08898e-06
6.0812e-06
6.07544e-06
6.07203e-06
6.07389e-06
6.07666e-06
6.07952e-06
6.08209e-06
6.08404e-06
6.08514e-06
6.08547e-06
6.07776e-06
6.07139e-06
6.06852e-06
6.06747e-06
6.06816e-06
6.06999e-06
6.07257e-06
6.07547e-06
6.07822e-06
6.08046e-06
6.08197e-06
6.08315e-06
6.06905e-06
6.06721e-06
6.06796e-06
6.06866e-06
6.06797e-06
6.06804e-06
6.06917e-06
6.07108e-06
6.07338e-06
6.07564e-06
6.07767e-06
6.07922e-06
6.06713e-06
6.06972e-06
6.07249e-06
6.07344e-06
6.0719e-06
6.07042e-06
6.0699e-06
6.07026e-06
6.07129e-06
6.07268e-06
6.07426e-06
6.07579e-06
6.07148e-06
6.07596e-06
6.07846e-06
6.07857e-06
6.07692e-06
6.07479e-06
6.07324e-06
6.07234e-06
6.07204e-06
6.07224e-06
6.07284e-06
6.07383e-06
6.07467e-06
6.07822e-06
6.08173e-06
6.08261e-06
6.08186e-06
6.08054e-06
6.07864e-06
6.07694e-06
6.07554e-06
6.07445e-06
6.07371e-06
6.07336e-06
6.07346e-06
6.07388e-06
6.08334e-06
6.08453e-06
6.08394e-06
6.08292e-06
6.08199e-06
6.08069e-06
6.07943e-06
6.07823e-06
6.07702e-06
6.07589e-06
6.07498e-06
6.07439e-06
6.07423e-06
6.07408e-06
6.08515e-06
6.08449e-06
6.08344e-06
6.08266e-06
6.08194e-06
6.08114e-06
6.08042e-06
6.07968e-06
6.07879e-06
6.07776e-06
6.07674e-06
6.07586e-06
6.07521e-06
6.07481e-06
6.08448e-06
6.08334e-06
6.08271e-06
6.08221e-06
6.08152e-06
6.08093e-06
6.08051e-06
6.08013e-06
6.07961e-06
6.07889e-06
6.07805e-06
6.0772e-06
6.07642e-06
6.07583e-06
6.08322e-06
6.08263e-06
6.08258e-06
6.08211e-06
6.08138e-06
6.08078e-06
6.08041e-06
6.08016e-06
6.07986e-06
6.0794e-06
6.07881e-06
6.07815e-06
6.07746e-06
6.0768e-06
6.0763e-06
6.08264e-06
6.08277e-06
6.08291e-06
6.08225e-06
6.08147e-06
6.08086e-06
6.08047e-06
6.0802e-06
6.07995e-06
6.07962e-06
6.07921e-06
6.07874e-06
6.07821e-06
6.07761e-06
6.07712e-06
6.08289e-06
6.08326e-06
6.08315e-06
6.08229e-06
6.08149e-06
6.08094e-06
6.08057e-06
6.08028e-06
6.08003e-06
6.07974e-06
6.07943e-06
6.07908e-06
6.07869e-06
6.07822e-06
6.07775e-06
6.0834e-06
6.08351e-06
6.08306e-06
6.08214e-06
6.08131e-06
6.08083e-06
6.08052e-06
6.08027e-06
6.08003e-06
6.07978e-06
6.07952e-06
6.07926e-06
6.07896e-06
6.07862e-06
6.07819e-06
6.07785e-06
6.08363e-06
6.08341e-06
6.08288e-06
6.08203e-06
6.0811e-06
6.08059e-06
6.08031e-06
6.08009e-06
6.07989e-06
6.07968e-06
6.07948e-06
6.07929e-06
6.07907e-06
6.07881e-06
6.0785e-06
6.07817e-06
6.08331e-06
6.08301e-06
6.08226e-06
6.08119e-06
6.08053e-06
6.08015e-06
6.07987e-06
6.07967e-06
6.07948e-06
6.07933e-06
6.07919e-06
6.07903e-06
6.07884e-06
6.07863e-06
6.07834e-06
6.07812e-06
6.08361e-06
6.08365e-06
6.08297e-06
6.08177e-06
6.08091e-06
6.08032e-06
6.07987e-06
6.07956e-06
6.07933e-06
6.07916e-06
6.07903e-06
6.07891e-06
6.07877e-06
6.07861e-06
6.07842e-06
6.07824e-06
6.0844e-06
6.08466e-06
6.084e-06
6.08275e-06
6.08171e-06
6.08091e-06
6.08024e-06
6.07974e-06
6.07938e-06
6.07913e-06
6.07895e-06
6.0788e-06
6.07867e-06
6.07853e-06
6.07839e-06
6.07824e-06
6.08544e-06
6.08568e-06
6.08503e-06
6.08381e-06
6.08272e-06
6.08179e-06
6.08095e-06
6.08026e-06
6.07973e-06
6.07934e-06
6.07905e-06
6.07883e-06
6.07865e-06
6.07849e-06
6.07836e-06
6.07821e-06
6.07809e-06
6.08635e-06
6.08639e-06
6.08575e-06
6.08465e-06
6.08362e-06
6.08268e-06
6.08179e-06
6.08097e-06
6.08031e-06
6.07978e-06
6.07937e-06
6.07904e-06
6.07878e-06
6.07856e-06
6.07839e-06
6.07823e-06
6.0781e-06
6.08689e-06
6.08669e-06
6.08605e-06
6.08507e-06
6.08417e-06
6.08334e-06
6.0825e-06
6.08168e-06
6.08096e-06
6.08035e-06
6.07984e-06
6.07941e-06
6.07906e-06
6.07877e-06
6.07853e-06
6.07834e-06
6.07817e-06
6.08702e-06
6.08664e-06
6.08599e-06
6.08509e-06
6.08432e-06
6.08363e-06
6.08291e-06
6.08218e-06
6.0815e-06
6.08089e-06
6.08033e-06
6.07985e-06
6.07944e-06
6.07908e-06
6.07878e-06
6.07853e-06
6.0783e-06
6.07813e-06
6.08688e-06
6.08644e-06
6.08575e-06
6.08487e-06
6.08417e-06
6.08359e-06
6.083e-06
6.0824e-06
6.08181e-06
6.08125e-06
6.08072e-06
6.08023e-06
6.0798e-06
6.07941e-06
6.07907e-06
6.07876e-06
6.07849e-06
6.07827e-06
6.08667e-06
6.08626e-06
6.08554e-06
6.08462e-06
6.08391e-06
6.08337e-06
6.08286e-06
6.08235e-06
6.08186e-06
6.08138e-06
6.08091e-06
6.08046e-06
6.08005e-06
6.07966e-06
6.07931e-06
6.07898e-06
6.07867e-06
6.07841e-06
6.08654e-06
6.08622e-06
6.08548e-06
6.08448e-06
6.08371e-06
6.08313e-06
6.08263e-06
6.08216e-06
6.08172e-06
6.0813e-06
6.08088e-06
6.08048e-06
6.08011e-06
6.07976e-06
6.07942e-06
6.0791e-06
6.07879e-06
6.07848e-06
6.07824e-06
6.08658e-06
6.08634e-06
6.08559e-06
6.08452e-06
6.08365e-06
6.08299e-06
6.08244e-06
6.08194e-06
6.0815e-06
6.08108e-06
6.08069e-06
6.08032e-06
6.07999e-06
6.07967e-06
6.07937e-06
6.07908e-06
6.07879e-06
6.07849e-06
6.07824e-06
6.08679e-06
6.08657e-06
6.08581e-06
6.08468e-06
6.08374e-06
6.08299e-06
6.08235e-06
6.08178e-06
6.08127e-06
6.08082e-06
6.0804e-06
6.08004e-06
6.07972e-06
6.07943e-06
6.07915e-06
6.07889e-06
6.07863e-06
6.07836e-06
6.07811e-06
6.08705e-06
6.08679e-06
6.08602e-06
6.08488e-06
6.0839e-06
6.08308e-06
6.08236e-06
6.08169e-06
6.08109e-06
6.08056e-06
6.08009e-06
6.07969e-06
6.07935e-06
6.07906e-06
6.0788e-06
6.07856e-06
6.07833e-06
6.0781e-06
6.07784e-06
6.07762e-06
6.08726e-06
6.0869e-06
6.08612e-06
6.085e-06
6.08401e-06
6.08317e-06
6.08238e-06
6.08163e-06
6.08094e-06
6.08031e-06
6.07977e-06
6.07931e-06
6.07893e-06
6.07862e-06
6.07836e-06
6.07813e-06
6.07791e-06
6.0777e-06
6.07747e-06
6.07726e-06
6.0873e-06
6.08685e-06
6.08607e-06
6.08497e-06
6.08401e-06
6.08317e-06
6.08235e-06
6.08153e-06
6.08076e-06
6.08005e-06
6.07943e-06
6.07891e-06
6.07849e-06
6.07815e-06
6.07786e-06
6.07763e-06
6.07741e-06
6.07721e-06
6.07701e-06
6.07681e-06
6.08717e-06
6.08669e-06
6.0859e-06
6.08482e-06
6.08388e-06
6.08306e-06
6.08222e-06
6.08135e-06
6.08051e-06
6.07974e-06
6.07906e-06
6.07849e-06
6.07803e-06
6.07765e-06
6.07735e-06
6.0771e-06
6.07688e-06
6.07668e-06
6.07649e-06
6.07628e-06
6.07609e-06
6.08698e-06
6.08651e-06
6.08571e-06
6.08462e-06
6.0837e-06
6.08288e-06
6.08201e-06
6.08109e-06
6.08019e-06
6.07936e-06
6.07863e-06
6.07803e-06
6.07754e-06
6.07714e-06
6.07682e-06
6.07656e-06
6.07633e-06
6.07613e-06
6.07594e-06
6.07575e-06
6.07557e-06
6.08682e-06
6.08639e-06
6.08558e-06
6.08447e-06
6.08354e-06
6.08269e-06
6.08177e-06
6.08077e-06
6.07981e-06
6.07892e-06
6.07815e-06
6.07753e-06
6.07703e-06
6.07663e-06
6.0763e-06
6.07603e-06
6.07581e-06
6.0756e-06
6.07542e-06
6.07523e-06
6.07505e-06
6.08675e-06
6.08634e-06
6.0855e-06
6.08437e-06
6.08342e-06
6.08252e-06
6.08152e-06
6.08044e-06
6.07939e-06
6.07845e-06
6.07765e-06
6.07701e-06
6.07651e-06
6.07611e-06
6.0758e-06
6.07553e-06
6.07531e-06
6.07511e-06
6.07492e-06
6.07474e-06
6.07457e-06
6.08672e-06
6.08626e-06
6.0854e-06
6.08426e-06
6.0833e-06
6.08236e-06
6.08127e-06
6.08008e-06
6.07896e-06
6.07796e-06
6.07714e-06
6.07649e-06
6.076e-06
6.07561e-06
6.07531e-06
6.07506e-06
6.07485e-06
6.07466e-06
6.07448e-06
6.0743e-06
6.07412e-06
6.07395e-06
6.08659e-06
6.08605e-06
6.08518e-06
6.08406e-06
6.08311e-06
6.08213e-06
6.08095e-06
6.07967e-06
6.07847e-06
6.07744e-06
6.07661e-06
6.07597e-06
6.07549e-06
6.07513e-06
6.07484e-06
6.07461e-06
6.07441e-06
6.07424e-06
6.07407e-06
6.0739e-06
6.07373e-06
6.07356e-06
6.0863e-06
6.08567e-06
6.08478e-06
6.08369e-06
6.08277e-06
6.08177e-06
6.08052e-06
6.07916e-06
6.07791e-06
6.07686e-06
6.07604e-06
6.07542e-06
6.07497e-06
6.07463e-06
6.07437e-06
6.07416e-06
6.07398e-06
6.07382e-06
6.07367e-06
6.07351e-06
6.07334e-06
6.07318e-06
6.08584e-06
6.08516e-06
6.08425e-06
6.08318e-06
6.08229e-06
6.08126e-06
6.07993e-06
6.07851e-06
6.07724e-06
6.0762e-06
6.0754e-06
6.07482e-06
6.0744e-06
6.07409e-06
6.07385e-06
6.07366e-06
6.07351e-06
6.07336e-06
6.07323e-06
6.07309e-06
6.07294e-06
6.07278e-06
6.08529e-06
6.08461e-06
6.08367e-06
6.0826e-06
6.08171e-06
6.08063e-06
6.07922e-06
6.07775e-06
6.07647e-06
6.07546e-06
6.0747e-06
6.07416e-06
6.07377e-06
6.07348e-06
6.07326e-06
6.0731e-06
6.07296e-06
6.07283e-06
6.07271e-06
6.07259e-06
6.07246e-06
6.0723e-06
6.07214e-06
6.08477e-06
6.08412e-06
6.08315e-06
6.08205e-06
6.08112e-06
6.07995e-06
6.07844e-06
6.07692e-06
6.07565e-06
6.07467e-06
6.07395e-06
6.07344e-06
6.07306e-06
6.07279e-06
6.07259e-06
6.07244e-06
6.07231e-06
6.07221e-06
6.07211e-06
6.07201e-06
6.0719e-06
6.07177e-06
6.07163e-06
6.08433e-06
6.08369e-06
6.0827e-06
6.08157e-06
6.08058e-06
6.07928e-06
6.07766e-06
6.0761e-06
6.07485e-06
6.0739e-06
6.07319e-06
6.07269e-06
6.07232e-06
6.07205e-06
6.07185e-06
6.07171e-06
6.0716e-06
6.07152e-06
6.07145e-06
6.07138e-06
6.07131e-06
6.07123e-06
6.07113e-06
6.08395e-06
6.08331e-06
6.08229e-06
6.08114e-06
6.08009e-06
6.07865e-06
6.07692e-06
6.07533e-06
6.07409e-06
6.07315e-06
6.07245e-06
6.07193e-06
6.07156e-06
6.07129e-06
6.07111e-06
6.07099e-06
6.07091e-06
6.07087e-06
6.07084e-06
6.07082e-06
6.0708e-06
6.07079e-06
6.07076e-06
6.08357e-06
6.0829e-06
6.08188e-06
6.08071e-06
6.07961e-06
6.07803e-06
6.0762e-06
6.0746e-06
6.07337e-06
6.07243e-06
6.07172e-06
6.07121e-06
6.07085e-06
6.07061e-06
6.07048e-06
6.07041e-06
6.07039e-06
6.07041e-06
6.07044e-06
6.07049e-06
6.07055e-06
6.07062e-06
6.07071e-06
6.08315e-06
6.08245e-06
6.08141e-06
6.08024e-06
6.07909e-06
6.07739e-06
6.0755e-06
6.0739e-06
6.07267e-06
6.07173e-06
6.07103e-06
6.07056e-06
6.07028e-06
6.07014e-06
6.07011e-06
6.07015e-06
6.07023e-06
6.07033e-06
6.07045e-06
6.07059e-06
6.07074e-06
6.07091e-06
6.07116e-06
6.07144e-06
6.08266e-06
6.08193e-06
6.08088e-06
6.07972e-06
6.0785e-06
6.07669e-06
6.07477e-06
6.07319e-06
6.07197e-06
6.07105e-06
6.07042e-06
6.07009e-06
6.07e-06
6.07005e-06
6.07019e-06
6.07037e-06
6.07056e-06
6.07077e-06
6.07098e-06
6.0712e-06
6.07145e-06
6.07173e-06
6.07208e-06
6.07246e-06
6.08211e-06
6.08138e-06
6.08031e-06
6.07914e-06
6.07786e-06
6.07595e-06
6.07403e-06
6.07247e-06
6.07127e-06
6.07043e-06
6.07001e-06
6.06996e-06
6.07016e-06
6.07045e-06
6.07078e-06
6.07109e-06
6.0714e-06
6.07169e-06
6.07198e-06
6.07228e-06
6.07261e-06
6.07296e-06
6.07338e-06
6.07383e-06
6.08154e-06
6.0808e-06
6.07972e-06
6.07854e-06
6.07719e-06
6.07518e-06
6.07327e-06
6.07173e-06
6.0706e-06
6.06999e-06
6.06994e-06
6.07026e-06
6.07073e-06
6.07123e-06
6.0717e-06
6.07214e-06
6.07254e-06
6.07292e-06
6.07329e-06
6.07367e-06
6.07407e-06
6.0745e-06
6.075e-06
6.07553e-06
6.08096e-06
6.08021e-06
6.07912e-06
6.07793e-06
6.07649e-06
6.07441e-06
6.07253e-06
6.07102e-06
6.07006e-06
6.06986e-06
6.07025e-06
6.07088e-06
6.07156e-06
6.07223e-06
6.07285e-06
6.07341e-06
6.07393e-06
6.07442e-06
6.07489e-06
6.07536e-06
6.07586e-06
6.07639e-06
6.07698e-06
6.07762e-06
6.08036e-06
6.07961e-06
6.07852e-06
6.07732e-06
6.07579e-06
6.07365e-06
6.0718e-06
6.07037e-06
6.06977e-06
6.07007e-06
6.07081e-06
6.0717e-06
6.0726e-06
6.07346e-06
6.07425e-06
6.07497e-06
6.07563e-06
6.07624e-06
6.07682e-06
6.0774e-06
6.07798e-06
6.07861e-06
6.0793e-06
6.08005e-06
6.07975e-06
6.079e-06
6.07791e-06
6.07669e-06
6.07508e-06
6.07292e-06
6.07109e-06
6.06986e-06
6.0698e-06
6.07051e-06
6.07157e-06
6.07273e-06
6.07389e-06
6.07498e-06
6.07596e-06
6.07684e-06
6.07763e-06
6.07836e-06
6.07904e-06
6.07971e-06
6.08038e-06
6.08109e-06
6.08185e-06
6.0827e-06
6.08355e-06
6.0791e-06
6.07835e-06
6.07727e-06
6.07604e-06
6.07435e-06
6.0722e-06
6.07042e-06
6.06959e-06
6.07004e-06
6.07113e-06
6.07253e-06
6.07402e-06
6.07546e-06
6.07678e-06
6.07795e-06
6.07897e-06
6.07988e-06
6.0807e-06
6.08146e-06
6.08219e-06
6.08293e-06
6.08369e-06
6.08451e-06
6.0854e-06
6.0863e-06
6.07852e-06
6.07778e-06
6.07669e-06
6.07544e-06
6.07367e-06
6.07152e-06
6.06977e-06
6.0696e-06
6.07047e-06
6.07193e-06
6.07368e-06
6.07545e-06
6.07711e-06
6.07859e-06
6.07987e-06
6.08097e-06
6.08194e-06
6.0828e-06
6.08359e-06
6.08435e-06
6.0851e-06
6.08588e-06
6.08672e-06
6.08762e-06
6.08853e-06
6.07802e-06
6.07728e-06
6.07619e-06
6.07491e-06
6.07306e-06
6.07092e-06
6.06922e-06
6.0698e-06
6.07113e-06
6.07301e-06
6.07505e-06
6.077e-06
6.07876e-06
6.08029e-06
6.08159e-06
6.08269e-06
6.08365e-06
6.08451e-06
6.08528e-06
6.08603e-06
6.08676e-06
6.08751e-06
6.08832e-06
6.0892e-06
6.09008e-06
6.0775e-06
6.07677e-06
6.07568e-06
6.07437e-06
6.07245e-06
6.07034e-06
6.06878e-06
6.07018e-06
6.07203e-06
6.07432e-06
6.07659e-06
6.07866e-06
6.08047e-06
6.082e-06
6.08328e-06
6.08435e-06
6.08528e-06
6.08609e-06
6.08683e-06
6.08753e-06
6.08823e-06
6.08894e-06
6.0897e-06
6.09052e-06
6.09134e-06
6.07694e-06
6.07621e-06
6.07514e-06
6.07381e-06
6.07182e-06
6.06978e-06
6.06849e-06
6.0708e-06
6.07316e-06
6.0758e-06
6.07824e-06
6.08035e-06
6.08213e-06
6.08361e-06
6.08482e-06
6.08582e-06
6.08667e-06
6.08742e-06
6.0881e-06
6.08874e-06
6.08937e-06
6.09003e-06
6.09072e-06
6.09148e-06
6.09224e-06
6.07633e-06
6.07562e-06
6.07456e-06
6.07322e-06
6.0712e-06
6.06928e-06
6.06841e-06
6.0716e-06
6.07442e-06
6.07733e-06
6.07983e-06
6.0819e-06
6.08358e-06
6.08494e-06
6.08603e-06
6.08693e-06
6.08769e-06
6.08836e-06
6.08897e-06
6.08955e-06
6.09013e-06
6.09073e-06
6.09138e-06
6.0921e-06
6.09284e-06
6.07566e-06
6.07498e-06
6.07395e-06
6.07261e-06
6.07059e-06
6.06886e-06
6.06857e-06
6.07248e-06
6.07567e-06
6.07874e-06
6.08119e-06
6.08311e-06
6.08462e-06
6.08583e-06
6.0868e-06
6.08761e-06
6.08831e-06
6.08893e-06
6.08952e-06
6.09009e-06
6.09067e-06
6.09128e-06
6.09196e-06
6.09272e-06
6.09352e-06
6.07493e-06
6.07428e-06
6.07329e-06
6.07197e-06
6.06999e-06
6.06854e-06
6.06898e-06
6.07329e-06
6.07671e-06
6.07979e-06
6.08207e-06
6.08381e-06
6.08518e-06
6.0863e-06
6.08724e-06
6.08807e-06
6.08881e-06
6.08951e-06
6.09017e-06
6.09084e-06
6.09152e-06
6.09226e-06
6.09308e-06
6.09401e-06
6.09502e-06
6.07413e-06
6.07352e-06
6.07259e-06
6.07132e-06
6.06942e-06
6.06836e-06
6.06949e-06
6.07385e-06
6.07732e-06
6.08027e-06
6.08239e-06
6.08406e-06
6.08547e-06
6.08673e-06
6.08786e-06
6.0889e-06
6.08987e-06
6.09077e-06
6.09165e-06
6.09251e-06
6.09341e-06
6.09436e-06
6.09542e-06
6.09662e-06
6.09793e-06
6.09925e-06
6.07323e-06
6.07268e-06
6.07182e-06
6.07064e-06
6.06889e-06
6.06833e-06
6.06993e-06
6.07399e-06
6.07732e-06
6.08017e-06
6.08237e-06
6.08431e-06
6.08611e-06
6.08778e-06
6.0893e-06
6.09067e-06
6.09192e-06
6.09307e-06
6.09415e-06
6.09519e-06
6.09625e-06
6.09735e-06
6.09855e-06
6.09988e-06
6.10129e-06
6.10269e-06
6.07222e-06
6.07175e-06
6.071e-06
6.06995e-06
6.06843e-06
6.06838e-06
6.07019e-06
6.07357e-06
6.0767e-06
6.07982e-06
6.08258e-06
6.08512e-06
6.08741e-06
6.08941e-06
6.0911e-06
6.09253e-06
6.09377e-06
6.09486e-06
6.09583e-06
6.09675e-06
6.09764e-06
6.09855e-06
6.0995e-06
6.1005e-06
6.10153e-06
6.10251e-06
6.0711e-06
6.07072e-06
6.07012e-06
6.06926e-06
6.06805e-06
6.06839e-06
6.07011e-06
6.07252e-06
6.07576e-06
6.07965e-06
6.08299e-06
6.08563e-06
6.0876e-06
6.08906e-06
6.09012e-06
6.09093e-06
6.09158e-06
6.09212e-06
6.09258e-06
6.09301e-06
6.09341e-06
6.0938e-06
6.09422e-06
6.09467e-06
6.09516e-06
6.09569e-06
6.06983e-06
6.06958e-06
6.06917e-06
6.06859e-06
6.06778e-06
6.06827e-06
6.06957e-06
6.07085e-06
6.07462e-06
6.07862e-06
6.0807e-06
6.08166e-06
6.08216e-06
6.08252e-06
6.08287e-06
6.08322e-06
6.08358e-06
6.08394e-06
6.08429e-06
6.08465e-06
6.08503e-06
6.08555e-06
6.0863e-06
6.08735e-06
6.08872e-06
6.09031e-06
6.0684e-06
6.0683e-06
6.06815e-06
6.06793e-06
6.06764e-06
6.06793e-06
6.06843e-06
6.06871e-06
6.07167e-06
6.07273e-06
6.07125e-06
6.07092e-06
6.07171e-06
6.07317e-06
6.07489e-06
6.07666e-06
6.07837e-06
6.07996e-06
6.08143e-06
6.08281e-06
6.08413e-06
6.08545e-06
6.08682e-06
6.0883e-06
6.08982e-06
6.09131e-06
)
;

boundaryField
{
    inlet
    {
        type            freestream;
        freestreamValue uniform 1e-05;
        value           uniform 1e-05;
    }
    outlet
    {
        type            freestream;
        freestreamValue nonuniform List<scalar> 0();
        value           nonuniform List<scalar> 0();
    }
    walls
    {
        type            nutUSpaldingWallFunction;
        value           nonuniform List<scalar> 0();
    }
    frontAndBack
    {
        type            empty;
    }
    procBoundary0to1
    {
        type            processor;
        value           nonuniform List<scalar> 
94
(
6.07669e-06
6.06526e-06
6.06526e-06
6.06244e-06
6.06244e-06
6.06412e-06
6.06412e-06
6.06813e-06
6.06813e-06
6.07287e-06
6.07287e-06
6.07632e-06
6.08312e-06
6.08312e-06
6.08441e-06
6.08592e-06
6.08592e-06
6.08483e-06
6.08195e-06
6.07776e-06
6.07776e-06
6.07658e-06
6.07437e-06
6.07437e-06
6.07418e-06
6.07413e-06
6.075e-06
6.075e-06
6.0752e-06
6.0761e-06
6.07705e-06
6.07705e-06
6.07706e-06
6.07767e-06
6.07767e-06
6.07763e-06
6.07788e-06
6.07803e-06
6.07803e-06
6.07788e-06
6.07789e-06
6.07794e-06
6.07794e-06
6.0778e-06
6.07787e-06
6.07802e-06
6.07802e-06
6.07778e-06
6.07779e-06
6.07775e-06
6.07775e-06
6.07723e-06
6.07692e-06
6.07653e-06
6.07653e-06
6.07578e-06
6.07527e-06
6.07476e-06
6.07431e-06
6.07431e-06
6.07365e-06
6.07326e-06
6.0729e-06
6.07254e-06
6.07254e-06
6.07189e-06
6.07144e-06
6.07102e-06
6.07079e-06
6.0709e-06
6.0709e-06
6.07184e-06
6.07294e-06
6.07438e-06
6.07618e-06
6.07838e-06
6.08088e-06
6.08088e-06
6.08448e-06
6.08728e-06
6.08953e-06
6.09104e-06
6.09226e-06
6.0931e-06
6.09367e-06
6.09442e-06
6.09612e-06
6.09612e-06
6.10066e-06
6.10414e-06
6.1035e-06
6.09627e-06
6.0921e-06
6.09273e-06
)
;
    }
    procBoundary0to4
    {
        type            processor;
        value           nonuniform List<scalar> 
72
(
6.09977e-06
6.08342e-06
6.06776e-06
6.05864e-06
6.05981e-06
6.07025e-06
6.08404e-06
6.09353e-06
6.09396e-06
6.08624e-06
6.07585e-06
6.06891e-06
6.06839e-06
6.07302e-06
6.0791e-06
6.08335e-06
6.08467e-06
6.08402e-06
6.08304e-06
6.0827e-06
6.083e-06
6.0834e-06
6.0836e-06
6.0836e-06
6.08362e-06
6.08402e-06
6.08484e-06
6.08583e-06
6.08665e-06
6.08712e-06
6.08722e-06
6.08709e-06
6.08693e-06
6.08686e-06
6.08697e-06
6.08721e-06
6.08747e-06
6.08764e-06
6.08765e-06
6.08751e-06
6.08733e-06
6.0872e-06
6.08714e-06
6.08708e-06
6.08691e-06
6.08657e-06
6.08609e-06
6.08555e-06
6.08506e-06
6.08464e-06
6.08425e-06
6.08385e-06
6.08339e-06
6.08287e-06
6.0823e-06
6.0817e-06
6.08109e-06
6.08046e-06
6.0798e-06
6.0792e-06
6.07869e-06
6.07815e-06
6.07756e-06
6.07692e-06
6.07622e-06
6.07544e-06
6.07459e-06
6.07363e-06
6.07255e-06
6.07135e-06
6.06999e-06
6.06845e-06
)
;
    }
    procBoundary0to5
    {
        type            processor;
        value           nonuniform List<scalar> 4(6.10459e-06 6.0944e-06 6.08523e-06 6.07833e-06);
    }
}


// ************************************************************************* //
