/*--------------------------------*- C++ -*----------------------------------*\
| =========                 |                                                 |
| \\      /  F ield         | OpenFOAM: The Open Source CFD Toolbox           |
|  \\    /   O peration     | Version:  2506                                  |
|   \\  /    A nd           | Website:  www.openfoam.com                      |
|    \\/     M anipulation  |                                                 |
\*---------------------------------------------------------------------------*/
FoamFile
{
    version     2.0;
    format      ascii;
    arch        "LSB;label=32;scalar=64";
    class       volScalarField;
    location    "100";
    object      turbulenceProperties:k;
}
// * * * * * * * * * * * * * * * * * * * * * * * * * * * * * * * * * * * * * //

dimensions      [0 2 -2 0 0 0 0];

internalField   nonuniform List<scalar> 
1340
(
0.000455072
0.000449525
0.000443833
0.000437026
0.000427302
0.000384687
0.000379848
0.000375058
0.000369496
0.000361619
0.000353026
0.000327502
0.000323381
0.000319359
0.000314789
0.000308321
0.00030137
0.000293648
0.000280626
0.000277149
0.00027372
0.0002699
0.000264513
0.000258807
0.000252497
0.000245502
0.000241862
0.000238849
0.000235838
0.000232552
0.000228045
0.000223327
0.000218148
0.000212451
0.000206423
0.000209436
0.000206728
0.000204003
0.000201121
0.000197344
0.000193431
0.000189175
0.000184534
0.000179689
0.000174727
0.000181984
0.000179495
0.000176993
0.000174464
0.000171296
0.000168042
0.000164536
0.000160754
0.000156852
0.000152877
0.000158521
0.00015624
0.000153972
0.000151762
0.000149095
0.00014637
0.000143467
0.000140377
0.000137229
0.000134052
0.000130846
0.000138366
0.000136317
0.000134311
0.000132398
0.000130129
0.000127824
0.000125393
0.000122852
0.000120296
0.000117749
0.00011518
0.000121033
0.000119242
0.0001175
0.000115847
0.000113898
0.000111921
0.000109859
0.000107745
0.000105652
0.000103591
0.00010154
9.94835e-05
0.000106131
0.000104591
0.000103084
0.000101645
9.99606e-05
9.82444e-05
9.64785e-05
9.46978e-05
9.29622e-05
9.12772e-05
8.9625e-05
8.79743e-05
9.33016e-05
9.19763e-05
9.06597e-05
8.93951e-05
8.7932e-05
8.64348e-05
8.49115e-05
8.33987e-05
8.19454e-05
8.05541e-05
7.92104e-05
7.78721e-05
8.22115e-05
8.10525e-05
7.98852e-05
7.87646e-05
7.74892e-05
7.61853e-05
7.48698e-05
7.35786e-05
7.2352e-05
7.11925e-05
7.00853e-05
6.90045e-05
6.79266e-05
7.25687e-05
7.1534e-05
7.04911e-05
6.94976e-05
6.83821e-05
6.72481e-05
6.6113e-05
6.50068e-05
6.39685e-05
6.29969e-05
6.20789e-05
6.11945e-05
6.03132e-05
6.41388e-05
6.32035e-05
6.22756e-05
6.13963e-05
6.04177e-05
5.94298e-05
5.8449e-05
5.74999e-05
5.66168e-05
5.57988e-05
5.50339e-05
5.43044e-05
5.35877e-05
5.28721e-05
5.67434e-05
5.58991e-05
5.50779e-05
5.43011e-05
5.34394e-05
5.25755e-05
5.17241e-05
5.09078e-05
5.0155e-05
4.9463e-05
4.88229e-05
4.82174e-05
4.76279e-05
4.70385e-05
5.02456e-05
4.94897e-05
4.87655e-05
4.80781e-05
4.7317e-05
4.6558e-05
4.58153e-05
4.51094e-05
4.44631e-05
4.3875e-05
4.33359e-05
4.28312e-05
4.23434e-05
4.1854e-05
4.45349e-05
4.38611e-05
4.32223e-05
4.26119e-05
4.19377e-05
4.1268e-05
4.06165e-05
4.00022e-05
3.94447e-05
3.89413e-05
3.84837e-05
3.80596e-05
3.76522e-05
3.72494e-05
3.68413e-05
3.9514e-05
3.891e-05
3.83448e-05
3.78016e-05
3.72033e-05
3.66105e-05
3.60373e-05
3.54992e-05
3.50147e-05
3.45805e-05
3.41888e-05
3.38291e-05
3.34864e-05
3.31498e-05
3.28105e-05
3.50891e-05
3.45467e-05
3.40448e-05
3.35607e-05
3.30284e-05
3.25027e-05
3.19971e-05
3.15237e-05
3.11e-05
3.07224e-05
3.03846e-05
3.00773e-05
2.97853e-05
2.95023e-05
2.92146e-05
3.11818e-05
3.06943e-05
3.02472e-05
2.98162e-05
2.93415e-05
2.88748e-05
2.84272e-05
2.80093e-05
2.76367e-05
2.73064e-05
2.70123e-05
2.67462e-05
2.64967e-05
2.62563e-05
2.60136e-05
2.57637e-05
2.77261e-05
2.72884e-05
2.68898e-05
2.65057e-05
2.60823e-05
2.56668e-05
2.52694e-05
2.48993e-05
2.457e-05
2.4279e-05
2.40211e-05
2.37895e-05
2.35732e-05
2.33651e-05
2.31621e-05
2.29448e-05
2.42737e-05
2.39189e-05
2.35764e-05
2.31984e-05
2.28277e-05
2.24739e-05
2.21448e-05
2.18526e-05
2.15948e-05
2.13666e-05
2.11625e-05
2.09734e-05
2.07934e-05
2.06166e-05
2.04311e-05
2.02339e-05
2.16032e-05
2.12879e-05
2.09819e-05
2.06441e-05
2.03132e-05
1.99973e-05
1.97036e-05
1.94432e-05
1.92134e-05
1.90103e-05
1.88292e-05
1.86618e-05
1.85037e-05
1.83489e-05
1.81892e-05
1.80172e-05
1.92358e-05
1.89549e-05
1.86816e-05
1.83796e-05
1.8084e-05
1.78016e-05
1.7539e-05
1.73057e-05
1.70999e-05
1.69179e-05
1.67553e-05
1.66059e-05
1.64665e-05
1.63289e-05
1.61883e-05
1.6038e-05
1.71347e-05
1.6884e-05
1.66397e-05
1.637e-05
1.61058e-05
1.58531e-05
1.5618e-05
1.54085e-05
1.52235e-05
1.50595e-05
1.49128e-05
1.47787e-05
1.46526e-05
1.45301e-05
1.44055e-05
1.42742e-05
1.41367e-05
1.5268e-05
1.50438e-05
1.48255e-05
1.45847e-05
1.43487e-05
1.41228e-05
1.39118e-05
1.37237e-05
1.35568e-05
1.34085e-05
1.32755e-05
1.31538e-05
1.30401e-05
1.29299e-05
1.28176e-05
1.27021e-05
1.2581e-05
1.36082e-05
1.34075e-05
1.32126e-05
1.29976e-05
1.27868e-05
1.25846e-05
1.23956e-05
1.22262e-05
1.20757e-05
1.19412e-05
1.18203e-05
1.17095e-05
1.16058e-05
1.15057e-05
1.14042e-05
1.13015e-05
1.11936e-05
1.21314e-05
1.19518e-05
1.17776e-05
1.15858e-05
1.13977e-05
1.12169e-05
1.10474e-05
1.0895e-05
1.07589e-05
1.06366e-05
1.05263e-05
1.04253e-05
1.03303e-05
1.02388e-05
1.0147e-05
1.00543e-05
9.95843e-06
9.85899e-06
1.08166e-05
1.06562e-05
1.05005e-05
1.03296e-05
1.01618e-05
1.00001e-05
9.84801e-06
9.71094e-06
9.58774e-06
9.47652e-06
9.37586e-06
9.28308e-06
9.19601e-06
9.11205e-06
9.02882e-06
8.94482e-06
8.85989e-06
8.77078e-06
9.64582e-06
9.50261e-06
9.36361e-06
9.21145e-06
9.0618e-06
8.91721e-06
8.78093e-06
8.65748e-06
8.54599e-06
8.4448e-06
8.35248e-06
8.26728e-06
8.18736e-06
8.11025e-06
8.0343e-06
7.95794e-06
7.88137e-06
7.80176e-06
8.60288e-06
8.47519e-06
8.35131e-06
8.21581e-06
8.08258e-06
7.95346e-06
7.8313e-06
7.72014e-06
7.61914e-06
7.52688e-06
7.4423e-06
7.36393e-06
7.29022e-06
7.21938e-06
7.14977e-06
7.08036e-06
7.01118e-06
6.9396e-06
6.86481e-06
7.67347e-06
7.5597e-06
7.44935e-06
7.32906e-06
7.21057e-06
7.09538e-06
6.98603e-06
6.88603e-06
6.79467e-06
6.71041e-06
6.63263e-06
6.56039e-06
6.49252e-06
6.42731e-06
6.36349e-06
6.30052e-06
6.23777e-06
6.17429e-06
6.10798e-06
6.84486e-06
6.74363e-06
6.64538e-06
6.53896e-06
6.43386e-06
6.33128e-06
6.23361e-06
6.14371e-06
6.06093e-06
5.9841e-06
5.91266e-06
5.84607e-06
5.78324e-06
5.72323e-06
5.66465e-06
5.60738e-06
5.55049e-06
5.4936e-06
5.43469e-06
6.10582e-06
6.01587e-06
5.92857e-06
5.83474e-06
5.74169e-06
5.6506e-06
5.56354e-06
5.48293e-06
5.40819e-06
5.33807e-06
5.27227e-06
5.21079e-06
5.1529e-06
5.09744e-06
5.04374e-06
4.99119e-06
4.93942e-06
4.88844e-06
4.83569e-06
4.78028e-06
5.44639e-06
5.36659e-06
5.2893e-06
5.20672e-06
5.12465e-06
5.04404e-06
4.96678e-06
4.89471e-06
4.82719e-06
4.76327e-06
4.70293e-06
4.6462e-06
4.59258e-06
4.5414e-06
4.4919e-06
4.44373e-06
4.39714e-06
4.35102e-06
4.30462e-06
4.25485e-06
4.85782e-06
4.78716e-06
4.71896e-06
4.64658e-06
4.57445e-06
4.50341e-06
4.43509e-06
4.37086e-06
4.31009e-06
4.25194e-06
4.1965e-06
4.14421e-06
4.09477e-06
4.04738e-06
4.00188e-06
3.95781e-06
3.9152e-06
3.87384e-06
3.83194e-06
3.78816e-06
4.33237e-06
4.26997e-06
4.20998e-06
4.14682e-06
4.08365e-06
4.02134e-06
3.96126e-06
3.90425e-06
3.84969e-06
3.7969e-06
3.74618e-06
3.69809e-06
3.65239e-06
3.60866e-06
3.56661e-06
3.52609e-06
3.48737e-06
3.44961e-06
3.4125e-06
3.37492e-06
3.33517e-06
3.86323e-06
3.80822e-06
3.75571e-06
3.70085e-06
3.64577e-06
3.59142e-06
3.53886e-06
3.48847e-06
3.43966e-06
3.39187e-06
3.34552e-06
3.30142e-06
3.25947e-06
3.21908e-06
3.18041e-06
3.14333e-06
3.10771e-06
3.07384e-06
3.04123e-06
3.00862e-06
2.9739e-06
3.44429e-06
3.39594e-06
3.35021e-06
3.30277e-06
3.25503e-06
3.20789e-06
3.16223e-06
3.11785e-06
3.07428e-06
3.0312e-06
2.98909e-06
2.94884e-06
2.91034e-06
2.87333e-06
2.83782e-06
2.80382e-06
2.77163e-06
2.74102e-06
2.71224e-06
2.68364e-06
2.65348e-06
3.0701e-06
3.02777e-06
2.98818e-06
2.94744e-06
2.90622e-06
2.86569e-06
2.82628e-06
2.78737e-06
2.74863e-06
2.70991e-06
2.67179e-06
2.63524e-06
2.6003e-06
2.56647e-06
2.53409e-06
2.5032e-06
2.47366e-06
2.44675e-06
2.4215e-06
2.39607e-06
2.36953e-06
2.73585e-06
2.69891e-06
2.66488e-06
2.63012e-06
2.59484e-06
2.56034e-06
2.52655e-06
2.49258e-06
2.45821e-06
2.42358e-06
2.38934e-06
2.35641e-06
2.32475e-06
2.29418e-06
2.26486e-06
2.23678e-06
2.21094e-06
2.18711e-06
2.1641e-06
2.14136e-06
2.11772e-06
2.0928e-06
2.43721e-06
2.40507e-06
2.37612e-06
2.34673e-06
2.3168e-06
2.28779e-06
2.2591e-06
2.22952e-06
2.1992e-06
2.16838e-06
2.13776e-06
2.10827e-06
2.07996e-06
2.05245e-06
2.02598e-06
2.00127e-06
1.97823e-06
1.95633e-06
1.93557e-06
1.9151e-06
1.89475e-06
1.8739e-06
2.17031e-06
2.14252e-06
2.11816e-06
2.09356e-06
2.06852e-06
2.04451e-06
2.0204e-06
1.99477e-06
1.96811e-06
1.94086e-06
1.91371e-06
1.88752e-06
1.86224e-06
1.83755e-06
1.81413e-06
1.79201e-06
1.77088e-06
1.7511e-06
1.73229e-06
1.71431e-06
1.69698e-06
1.6795e-06
1.93176e-06
1.9079e-06
1.88772e-06
1.86741e-06
1.84677e-06
1.82735e-06
1.80731e-06
1.78524e-06
1.76201e-06
1.73811e-06
1.71414e-06
1.69094e-06
1.66848e-06
1.64648e-06
1.62541e-06
1.60526e-06
1.58617e-06
1.56818e-06
1.55142e-06
1.53598e-06
1.52131e-06
1.50635e-06
1.71853e-06
1.69821e-06
1.68183e-06
1.66533e-06
1.64872e-06
1.63349e-06
1.61709e-06
1.59823e-06
1.57821e-06
1.55745e-06
1.53641e-06
1.51588e-06
1.49578e-06
1.47598e-06
1.45691e-06
1.43869e-06
1.42125e-06
1.40499e-06
1.39023e-06
1.37661e-06
1.36397e-06
1.35112e-06
1.33642e-06
1.52792e-06
1.51077e-06
1.49785e-06
1.48475e-06
1.47183e-06
1.46043e-06
1.44722e-06
1.4313e-06
1.41438e-06
1.39653e-06
1.37805e-06
1.35972e-06
1.3416e-06
1.32358e-06
1.30618e-06
1.28947e-06
1.27361e-06
1.25896e-06
1.24559e-06
1.23372e-06
1.22268e-06
1.21182e-06
1.19923e-06
1.35752e-06
1.34324e-06
1.33346e-06
1.32333e-06
1.31382e-06
1.30589e-06
1.29548e-06
1.2823e-06
1.26834e-06
1.25313e-06
1.23681e-06
1.22023e-06
1.20358e-06
1.18692e-06
1.17083e-06
1.15549e-06
1.14092e-06
1.12755e-06
1.11569e-06
1.105e-06
1.09533e-06
1.08607e-06
1.07549e-06
1.20517e-06
1.19347e-06
1.18649e-06
1.179e-06
1.17265e-06
1.16785e-06
1.15984e-06
1.1493e-06
1.13821e-06
1.12523e-06
1.11049e-06
1.09515e-06
1.07962e-06
1.06403e-06
1.04905e-06
1.03478e-06
1.02139e-06
1.00924e-06
9.98408e-07
9.8903e-07
9.80735e-07
9.72681e-07
9.63632e-07
1.06893e-06
1.05953e-06
1.05505e-06
1.04987e-06
1.04649e-06
1.04446e-06
1.03852e-06
1.03057e-06
1.0222e-06
1.01092e-06
9.97178e-07
9.82634e-07
9.6788e-07
9.53188e-07
9.39199e-07
9.26082e-07
9.13841e-07
9.02807e-07
8.93252e-07
8.84956e-07
8.77622e-07
8.7085e-07
8.63349e-07
9.47075e-07
9.39727e-07
9.37476e-07
9.34333e-07
9.33723e-07
9.34083e-07
9.29913e-07
9.2458e-07
9.18708e-07
9.08451e-07
8.95096e-07
8.81049e-07
8.67055e-07
8.53308e-07
8.4042e-07
8.28466e-07
8.17466e-07
8.07687e-07
7.99179e-07
7.91969e-07
7.85728e-07
7.80202e-07
7.74036e-07
7.65359e-07
8.38103e-07
8.32612e-07
8.32316e-07
8.30937e-07
8.32961e-07
8.35281e-07
8.32651e-07
8.29979e-07
8.26221e-07
8.16223e-07
8.02895e-07
7.89412e-07
7.76341e-07
7.63742e-07
7.5211e-07
7.41484e-07
7.3175e-07
7.23127e-07
7.15789e-07
7.09511e-07
7.04244e-07
6.99629e-07
6.94572e-07
6.87156e-07
7.40724e-07
7.36909e-07
7.38282e-07
7.38451e-07
7.42919e-07
7.46741e-07
7.45502e-07
7.45594e-07
7.43489e-07
7.32977e-07
7.1958e-07
7.07035e-07
6.95292e-07
6.84046e-07
6.73717e-07
6.6427e-07
6.55648e-07
6.48052e-07
6.41517e-07
6.36106e-07
6.31523e-07
6.27531e-07
6.23153e-07
6.1662e-07
6.5367e-07
6.51347e-07
6.54129e-07
6.5566e-07
6.62403e-07
6.67221e-07
6.67332e-07
6.70227e-07
6.69374e-07
6.57844e-07
6.44666e-07
6.33595e-07
6.23362e-07
6.13344e-07
6.04023e-07
5.95476e-07
5.87616e-07
5.80644e-07
5.74747e-07
5.69747e-07
5.65589e-07
5.62008e-07
5.57876e-07
5.51672e-07
5.75818e-07
5.7486e-07
5.78838e-07
5.81619e-07
5.90435e-07
5.95771e-07
5.97192e-07
6.02575e-07
6.02718e-07
5.90259e-07
5.77879e-07
5.68558e-07
5.59642e-07
5.50373e-07
5.41539e-07
5.3336e-07
5.25826e-07
5.19181e-07
5.13476e-07
5.08777e-07
5.04804e-07
5.01316e-07
4.97332e-07
4.91342e-07
5.06306e-07
5.06622e-07
5.11604e-07
5.15593e-07
5.26321e-07
5.31849e-07
5.34611e-07
5.4191e-07
5.42683e-07
5.29506e-07
5.18518e-07
5.10868e-07
5.02562e-07
4.9335e-07
4.84515e-07
4.76379e-07
4.68908e-07
4.62308e-07
4.56786e-07
4.52144e-07
4.48342e-07
4.45056e-07
4.41093e-07
4.35204e-07
4.44419e-07
4.45809e-07
4.51539e-07
4.56733e-07
4.69096e-07
4.74696e-07
4.78916e-07
4.88481e-07
4.90374e-07
4.75221e-07
4.65188e-07
4.5893e-07
4.50654e-07
4.41032e-07
4.3199e-07
4.23794e-07
4.16305e-07
4.0982e-07
4.04343e-07
3.99978e-07
3.96415e-07
3.93081e-07
3.89158e-07
3.83517e-07
3.7624e-07
3.90347e-07
3.92551e-07
3.98483e-07
4.04564e-07
4.17757e-07
4.22839e-07
4.27821e-07
4.40237e-07
4.47193e-07
4.27983e-07
4.17152e-07
4.12466e-07
4.04353e-07
3.94355e-07
3.85259e-07
3.77202e-07
3.69929e-07
3.63533e-07
3.58287e-07
3.54034e-07
3.50329e-07
3.46989e-07
3.43184e-07
3.37958e-07
3.31425e-07
3.45818e-07
3.4839e-07
3.53825e-07
3.60074e-07
3.72633e-07
3.75883e-07
3.79358e-07
3.95654e-07
4.08746e-07
3.85188e-07
3.7365e-07
3.70883e-07
3.63784e-07
3.54198e-07
3.45547e-07
3.38066e-07
3.31243e-07
3.25254e-07
3.20197e-07
3.15872e-07
3.12208e-07
3.08892e-07
3.05313e-07
3.00664e-07
2.94853e-07
3.10642e-07
3.13238e-07
3.17837e-07
3.23527e-07
3.34141e-07
3.34381e-07
3.35763e-07
3.51375e-07
3.68067e-07
3.44741e-07
3.34605e-07
3.33529e-07
3.28178e-07
3.19865e-07
3.12073e-07
3.05306e-07
2.99156e-07
2.93678e-07
2.88949e-07
2.84919e-07
2.81422e-07
2.78289e-07
2.75039e-07
2.70793e-07
2.65485e-07
2.79535e-07
2.82111e-07
2.85895e-07
2.91131e-07
2.99676e-07
2.9743e-07
2.982e-07
3.10017e-07
3.2682e-07
3.07298e-07
2.99434e-07
2.99254e-07
2.95548e-07
2.88798e-07
2.82059e-07
2.76051e-07
2.7054e-07
2.6561e-07
2.6137e-07
2.57691e-07
2.54453e-07
2.5157e-07
2.48488e-07
2.44465e-07
2.39559e-07
2.49087e-07
2.51574e-07
2.54551e-07
2.59593e-07
2.66008e-07
2.62548e-07
2.63689e-07
2.71863e-07
2.89255e-07
2.74425e-07
2.6841e-07
2.68193e-07
2.65386e-07
2.59859e-07
2.54124e-07
2.48965e-07
2.44198e-07
2.39857e-07
2.36015e-07
2.32671e-07
2.29745e-07
2.27021e-07
2.24097e-07
2.20273e-07
2.15608e-07
2.20167e-07
2.22473e-07
2.24729e-07
2.29707e-07
2.33905e-07
2.30526e-07
2.32042e-07
2.37021e-07
2.55578e-07
2.45437e-07
2.41181e-07
2.40877e-07
2.38669e-07
2.33903e-07
2.28796e-07
2.24382e-07
2.20534e-07
2.17039e-07
2.1384e-07
2.10942e-07
2.08233e-07
2.05657e-07
2.02726e-07
1.98831e-07
1.94122e-07
1.92842e-07
1.94805e-07
1.96369e-07
2.01238e-07
2.0325e-07
2.01397e-07
2.02693e-07
2.05761e-07
2.26342e-07
2.20474e-07
2.17616e-07
2.17423e-07
2.16093e-07
2.12183e-07
2.07226e-07
2.02635e-07
1.98847e-07
1.95836e-07
1.93342e-07
1.91035e-07
1.88706e-07
1.86164e-07
1.82971e-07
1.78734e-07
1.73615e-07
1.67434e-07
1.68798e-07
1.69604e-07
1.74031e-07
1.73957e-07
1.74985e-07
1.74983e-07
1.78382e-07
2.01924e-07
1.99917e-07
1.97991e-07
1.97264e-07
1.96288e-07
1.93637e-07
1.89802e-07
1.8531e-07
1.8068e-07
1.76532e-07
1.73175e-07
1.70506e-07
1.68069e-07
1.65385e-07
1.61773e-07
1.56562e-07
1.49983e-07
1.44258e-07
1.44778e-07
1.44677e-07
1.4794e-07
1.45821e-07
1.50259e-07
1.4719e-07
1.54432e-07
1.82153e-07
1.83499e-07
1.83237e-07
1.81591e-07
1.7834e-07
1.73874e-07
1.70023e-07
1.66949e-07
1.63767e-07
1.59903e-07
1.55606e-07
1.51303e-07
1.4714e-07
1.42816e-07
1.37552e-07
1.30705e-07
1.22469e-07
1.13524e-07
1.23175e-07
1.2268e-07
1.21571e-07
1.22927e-07
1.19067e-07
1.26123e-07
1.17777e-07
1.34273e-07
1.66876e-07
1.68581e-07
1.71037e-07
1.70281e-07
1.65066e-07
1.56321e-07
1.47214e-07
1.40211e-07
1.35792e-07
1.33009e-07
1.30441e-07
1.27253e-07
1.2309e-07
1.17708e-07
1.10745e-07
1.02071e-07
9.22468e-08
8.20501e-08
1.04098e-07
1.02218e-07
9.96466e-08
9.86322e-08
9.43466e-08
1.03121e-07
9.01728e-08
1.24149e-07
1.57926e-07
1.55218e-07
1.58163e-07
1.56604e-07
1.53194e-07
1.47867e-07
1.37902e-07
1.24407e-07
1.11978e-07
1.04493e-07
1.02904e-07
1.05753e-07
1.10784e-07
1.1589e-07
1.1881e-07
1.18038e-07
1.14827e-07
1.11871e-07
8.83446e-08
8.40792e-08
7.84249e-08
7.40044e-08
7.07063e-08
8.15578e-08
7.33095e-08
1.3062e-07
1.56972e-07
1.59817e-07
1.78871e-07
1.8155e-07
1.71169e-07
1.55671e-07
1.439e-07
1.42261e-07
1.48094e-07
1.54388e-07
1.57791e-07
1.59065e-07
1.59737e-07
1.6141e-07
1.66227e-07
1.76521e-07
1.9195e-07
2.09534e-07
7.84327e-08
7.10994e-08
6.04037e-08
4.96153e-08
4.52693e-08
5.77194e-08
6.6658e-08
1.36518e-07
1.43883e-07
1.59292e-07
1.99299e-07
2.37493e-07
2.79569e-07
3.22846e-07
3.6092e-07
3.90752e-07
4.12095e-07
4.28279e-07
4.43489e-07
4.60197e-07
4.79247e-07
5.00244e-07
5.22101e-07
5.42019e-07
5.5686e-07
5.67853e-07
7.42152e-08
6.51358e-08
5.05324e-08
3.16938e-08
1.95422e-08
3.63234e-08
6.51665e-08
1.05841e-07
1.52599e-07
3.28043e-07
4.908e-07
6.32579e-07
7.41458e-07
8.17173e-07
8.65263e-07
8.95806e-07
9.18495e-07
9.40115e-07
9.62718e-07
9.85681e-07
1.00752e-06
1.02777e-06
1.04716e-06
1.06917e-06
1.09151e-06
1.10981e-06
)
;

boundaryField
{
    inlet
    {
        type            calculated;
        value           nonuniform List<scalar> 
26
(
7.44845e-08
6.54493e-08
5.05799e-08
3.03508e-08
1.57035e-08
3.86624e-08
7.6698e-08
7.7155e-08
3.43407e-07
6.90527e-07
1.07378e-06
1.4467e-06
1.77838e-06
2.05793e-06
2.28186e-06
2.45782e-06
2.59661e-06
2.70909e-06
2.80491e-06
2.89156e-06
2.97452e-06
3.05947e-06
3.15279e-06
3.25889e-06
3.3698e-06
3.47368e-06
)
;
    }
    outlet
    {
        type            calculated;
        value           nonuniform List<scalar> 0();
    }
    walls
    {
        type            calculated;
        value           nonuniform List<scalar> 0();
    }
    frontAndBack
    {
        type            empty;
    }
    procBoundary0to1
    {
        type            processor;
        value           nonuniform List<scalar> 
94
(
0.000509234
0.000416514
0.000416514
0.000343519
0.000343519
0.000285018
0.000285018
0.000237977
0.000237977
0.000200185
0.000200185
0.000169593
0.000148845
0.000148845
0.000127557
0.000112607
0.000112607
9.73983e-05
8.63256e-05
7.65516e-05
7.65516e-05
6.68437e-05
5.94415e-05
5.94415e-05
5.21342e-05
4.64391e-05
4.13648e-05
4.13648e-05
3.64131e-05
3.24583e-05
2.89227e-05
2.89227e-05
2.54938e-05
2.27181e-05
2.27181e-05
2.002e-05
1.78357e-05
1.58823e-05
1.58823e-05
1.3988e-05
1.24535e-05
1.10821e-05
1.10821e-05
9.74997e-06
8.67633e-06
7.71806e-06
7.71806e-06
6.78263e-06
6.03739e-06
5.37198e-06
5.37198e-06
4.71722e-06
4.20007e-06
3.74217e-06
3.74217e-06
3.28907e-06
2.93489e-06
2.6201e-06
2.34048e-06
2.34048e-06
2.06323e-06
1.84917e-06
1.65892e-06
1.48904e-06
1.48904e-06
1.31647e-06
1.18214e-06
1.06081e-06
9.51234e-07
8.53042e-07
8.53042e-07
7.53539e-07
6.77025e-07
6.07504e-07
5.43207e-07
4.83232e-07
4.27297e-07
4.27297e-07
3.6841e-07
3.24446e-07
2.88656e-07
2.59912e-07
2.34505e-07
2.10824e-07
1.89277e-07
1.68358e-07
1.42927e-07
1.42927e-07
1.0423e-07
7.20028e-08
1.10717e-07
2.27088e-07
5.77223e-07
1.12347e-06
)
;
    }
    procBoundary0to4
    {
        type            processor;
        value           nonuniform List<scalar> 
72
(
0.000459232
0.000388627
0.000331037
0.000283677
0.00024447
0.000211722
0.000184085
0.00016051
0.000140239
0.000122745
0.000107648
9.4624e-05
8.33667e-05
7.35974e-05
6.50724e-05
5.75984e-05
5.10277e-05
4.52424e-05
4.01473e-05
3.56567e-05
3.16917e-05
2.81853e-05
2.46647e-05
2.46647e-05
2.19526e-05
1.95478e-05
1.74134e-05
1.55176e-05
1.38317e-05
1.23312e-05
1.09952e-05
9.80517e-06
8.74471e-06
7.79937e-06
6.95648e-06
6.20469e-06
5.53385e-06
4.93504e-06
4.40043e-06
3.92307e-06
3.49674e-06
3.11596e-06
2.77585e-06
2.472e-06
2.20043e-06
1.95771e-06
1.74077e-06
1.54686e-06
1.37349e-06
1.21852e-06
1.07997e-06
9.56113e-07
8.45366e-07
7.4642e-07
6.58009e-07
5.78991e-07
5.08436e-07
4.45676e-07
3.90967e-07
3.4617e-07
3.10785e-07
2.7941e-07
2.48776e-07
2.19739e-07
1.92408e-07
1.67142e-07
1.44264e-07
1.23684e-07
1.05441e-07
9.10106e-08
8.26083e-08
7.92395e-08
)
;
    }
    procBoundary0to5
    {
        type            processor;
        value           nonuniform List<scalar> 4(0.000542284 0.000536213 0.000529608 0.000521357);
    }
}


// ************************************************************************* //
