/*--------------------------------*- C++ -*----------------------------------*\
| =========                 |                                                 |
| \\      /  F ield         | OpenFOAM: The Open Source CFD Toolbox           |
|  \\    /   O peration     | Version:  2506                                  |
|   \\  /    A nd           | Website:  www.openfoam.com                      |
|    \\/     M anipulation  |                                                 |
\*---------------------------------------------------------------------------*/
FoamFile
{
    version     2.0;
    format      ascii;
    arch        "LSB;label=32;scalar=64";
    class       volSymmTensorField;
    location    "100";
    object      turbulenceProperties:devReff;
}
// * * * * * * * * * * * * * * * * * * * * * * * * * * * * * * * * * * * * * //

dimensions      [0 2 -2 0 0 0 0];

internalField   nonuniform List<symmTensor> 
1340
(
(8.32578e-05 -6.02855e-05 -2.46787e-21 -8.32194e-05 -2.34995e-24 -3.8387e-08)
(9.06016e-05 -4.58152e-05 2.33647e-20 -9.06558e-05 2.0848e-20 5.4151e-08)
(9.54366e-05 -3.08479e-05 4.82254e-20 -9.54092e-05 1.58573e-20 -2.73882e-08)
(9.78127e-05 -1.31086e-05 -7.94681e-20 -9.7954e-05 -7.91137e-20 1.41357e-07)
(9.64367e-05 5.88911e-06 -1.11391e-19 -9.63206e-05 -6.92911e-20 -1.16118e-07)
(6.9894e-05 -5.16819e-05 1.03071e-20 -6.98667e-05 8.16346e-21 -2.73025e-08)
(7.61127e-05 -3.96564e-05 2.9003e-20 -7.61467e-05 9.29661e-21 3.4057e-08)
(8.03005e-05 -2.71828e-05 -7.22371e-20 -8.02763e-05 -4.06888e-20 -2.42115e-08)
(8.25243e-05 -1.24109e-05 1.28132e-20 -8.26367e-05 2.25072e-20 1.1246e-07)
(8.16994e-05 3.48214e-06 1.12873e-19 -8.15971e-05 2.96786e-20 -1.0222e-07)
(7.74176e-05 1.94161e-05 -8.09021e-20 -7.73485e-05 -7.38669e-20 -6.90644e-08)
(5.90559e-05 -4.46314e-05 -5.43992e-21 -5.90346e-05 -4.88745e-21 -2.12283e-08)
(6.43921e-05 -3.45589e-05 -2.28598e-20 -6.44105e-05 -1.21054e-20 1.83576e-08)
(6.80543e-05 -2.40736e-05 -1.39496e-21 -6.80304e-05 3.31853e-21 -2.38827e-08)
(7.0131e-05 -1.16477e-05 4.05938e-20 -7.02189e-05 2.08384e-20 8.79116e-08)
(6.96883e-05 1.77575e-06 -2.8528e-20 -6.96029e-05 -2.3821e-21 -8.53566e-08)
(6.63863e-05 1.52996e-05 9.55138e-20 -6.63351e-05 5.83846e-20 -5.11638e-08)
(6.00841e-05 2.81594e-05 1.57651e-19 -6.00903e-05 4.89052e-20 6.25939e-09)
(5.01866e-05 -3.87897e-05 7.17653e-21 -5.01718e-05 4.5529e-21 -1.47835e-08)
(5.48154e-05 -3.02865e-05 1.02572e-20 -5.48265e-05 6.23141e-21 1.10091e-08)
(5.80354e-05 -2.1407e-05 2.65568e-20 -5.80099e-05 4.50736e-21 -2.55229e-08)
(5.99624e-05 -1.08672e-05 -7.22707e-20 -6.0032e-05 -4.07301e-20 6.95256e-08)
(5.97853e-05 5.60369e-07 -3.51705e-20 -5.97164e-05 -1.89363e-20 -6.89182e-08)
(5.72181e-05 1.21214e-05 -9.2835e-20 -5.71805e-05 -4.40235e-20 -3.76217e-08)
(5.21126e-05 2.3205e-05 -1.13288e-19 -5.21192e-05 -1.73251e-20 6.52854e-09)
(4.4612e-05 3.29548e-05 9.56838e-20 -4.46287e-05 8.53119e-21 1.66764e-08)
(4.28692e-05 -3.39048e-05 7.47061e-21 -4.28562e-05 2.75595e-21 -1.30215e-08)
(4.69068e-05 -2.66631e-05 1.33865e-21 -4.69155e-05 -6.02663e-22 8.7375e-09)
(4.97431e-05 -1.90941e-05 -2.20891e-20 -4.97156e-05 -3.50985e-21 -2.75847e-08)
(5.15152e-05 -1.00927e-05 6.78654e-20 -5.15689e-05 3.87885e-20 5.37299e-08)
(5.15288e-05 -2.99447e-07 1.26771e-19 -5.14733e-05 4.34591e-20 -5.55098e-08)
(4.95231e-05 9.64442e-06 4.06607e-21 -4.94969e-05 1.12436e-20 -2.61756e-08)
(4.53626e-05 1.92363e-05 2.3931e-19 -4.53699e-05 7.34943e-20 7.31073e-09)
(3.91422e-05 2.77612e-05 -7.16322e-20 -3.91563e-05 -5.5388e-20 1.4044e-08)
(3.15135e-05 3.43767e-05 -1.20293e-19 -3.15101e-05 -2.34393e-20 -3.43469e-09)
(3.67746e-05 -2.97673e-05 6.89889e-21 -3.67638e-05 2.50113e-21 -1.0792e-08)
(4.03038e-05 -2.35625e-05 -1.27758e-20 -4.03084e-05 -6.43916e-21 4.54847e-09)
(4.28044e-05 -1.70618e-05 -4.05464e-21 -4.27801e-05 -2.44314e-21 -2.42911e-08)
(4.44238e-05 -9.34413e-06 -1.05439e-20 -4.44663e-05 4.79291e-21 4.24619e-08)
(4.45755e-05 -9.04089e-07 9.25515e-20 -4.4532e-05 2.44489e-20 -4.35762e-08)
(4.30088e-05 7.68862e-06 -1.03547e-19 -4.29904e-05 -4.03773e-20 -1.84132e-08)
(3.95991e-05 1.60293e-05 1.25803e-20 -3.96064e-05 5.11589e-21 7.34188e-09)
(3.44142e-05 2.35027e-05 3.82877e-20 -3.44262e-05 -4.22731e-21 1.20043e-08)
(2.79957e-05 2.93875e-05 -3.06707e-19 -2.79937e-05 -5.50181e-20 -1.98082e-09)
(2.09794e-05 3.34339e-05 7.66086e-20 -2.0971e-05 3.06712e-20 -8.36511e-09)
(3.16488e-05 -2.62197e-05 -1.03705e-20 -3.16414e-05 -2.27957e-21 -7.37257e-09)
(3.47394e-05 -2.08805e-05 8.77682e-21 -3.47403e-05 7.44595e-21 8.48797e-10)
(3.69479e-05 -1.52707e-05 5.80493e-20 -3.69247e-05 2.41373e-20 -2.32357e-08)
(3.84283e-05 -8.61906e-06 1.58879e-20 -3.84632e-05 -2.16748e-21 3.49114e-08)
(3.86787e-05 -1.31839e-06 -7.26054e-20 -3.8643e-05 -2.33794e-20 -3.57183e-08)
(3.74555e-05 6.13621e-06 6.64519e-20 -3.74426e-05 2.89626e-20 -1.28357e-08)
(3.46487e-05 1.34123e-05 -1.64381e-20 -3.46562e-05 -4.53445e-21 7.41078e-09)
(3.03065e-05 1.99816e-05 1.69133e-19 -3.03156e-05 4.58291e-20 9.08731e-09)
(2.48785e-05 2.52194e-05 5.13511e-20 -2.48777e-05 2.11601e-20 -8.64375e-10)
(1.89064e-05 2.88956e-05 -3.25782e-20 -1.88975e-05 -9.39813e-21 -8.93386e-09)
(2.73019e-05 -2.31525e-05 1.29168e-21 -2.72968e-05 -5.39869e-22 -5.03182e-09)
(3.00206e-05 -1.85399e-05 -2.47056e-21 -3.002e-05 -3.84993e-21 -5.88517e-10)
(3.19803e-05 -1.36871e-05 -4.99962e-20 -3.19586e-05 -2.44648e-20 -2.17568e-08)
(3.33359e-05 -7.93264e-06 -8.23021e-20 -3.33647e-05 -3.4124e-20 2.88397e-08)
(3.36532e-05 -1.59171e-06 -1.00981e-19 -3.36246e-05 -1.81884e-20 -2.8622e-08)
(3.26997e-05 4.8962e-06 1.47826e-19 -3.26899e-05 4.02688e-20 -9.78563e-09)
(3.03785e-05 1.12622e-05 -1.37737e-19 -3.03864e-05 -4.29549e-20 7.87989e-09)
(2.67258e-05 1.70491e-05 3.39016e-20 -2.67335e-05 2.21186e-20 7.70904e-09)
(2.21157e-05 2.17138e-05 8.39953e-20 -2.21145e-05 1.77982e-20 -1.15785e-09)
(1.70106e-05 2.50475e-05 5.67897e-20 -1.70049e-05 1.67121e-20 -5.71785e-09)
(1.17329e-05 2.71236e-05 5.6517e-20 -1.17326e-05 1.00489e-20 -2.96107e-10)
(2.35981e-05 -2.04872e-05 1.30733e-20 -2.3594e-05 6.70433e-21 -4.12348e-09)
(2.60036e-05 -1.64921e-05 2.07751e-20 -2.60025e-05 9.84423e-21 -1.16087e-09)
(2.77551e-05 -1.22844e-05 5.73386e-20 -2.7735e-05 1.84579e-20 -2.0041e-08)
(2.89998e-05 -7.2889e-06 -1.2363e-20 -2.90235e-05 -5.09729e-21 2.37188e-08)
(2.93579e-05 -1.76133e-06 4.92904e-20 -2.9335e-05 7.59793e-21 -2.29144e-08)
(2.86156e-05 3.90245e-06 -1.61186e-19 -2.8608e-05 -4.27106e-20 -7.62394e-09)
(2.6686e-05 9.4875e-06 1.39651e-19 -2.6693e-05 6.13128e-20 7.04776e-09)
(2.35982e-05 1.45951e-05 1.90936e-19 -2.36052e-05 3.24355e-20 6.98062e-09)
(1.96661e-05 1.87494e-05 -1.00416e-20 -1.96651e-05 -1.60753e-20 -1.01068e-09)
(1.52847e-05 2.17661e-05 8.53275e-20 -1.52798e-05 -5.63589e-21 -4.90118e-09)
(1.07323e-05 2.36983e-05 5.78536e-20 -1.07307e-05 8.77365e-21 -1.67306e-09)
(2.04369e-05 -1.81651e-05 -1.58813e-20 -2.04338e-05 -5.50943e-21 -3.13195e-09)
(2.25782e-05 -1.47002e-05 1.87533e-20 -2.25763e-05 4.96594e-21 -1.89496e-09)
(2.41534e-05 -1.10416e-05 -5.06761e-20 -2.41353e-05 -2.09858e-20 -1.80724e-08)
(2.52972e-05 -6.69023e-06 -4.08357e-20 -2.53171e-05 -1.1679e-20 1.98834e-08)
(2.5678e-05 -1.85712e-06 -1.13873e-20 -2.56593e-05 6.08492e-21 -1.86489e-08)
(2.50992e-05 3.10421e-06 1.66645e-19 -2.50943e-05 4.71195e-20 -4.93814e-09)
(2.34879e-05 8.01468e-06 -1.9869e-20 -2.34942e-05 -2.15839e-20 6.36119e-09)
(2.08644e-05 1.2532e-05 -1.33523e-19 -2.08701e-05 -4.90114e-20 5.71846e-09)
(1.74951e-05 1.62347e-05 -1.14707e-19 -1.74944e-05 -3.23671e-20 -6.62323e-10)
(1.37216e-05 1.89561e-05 -3.85083e-19 -1.37176e-05 -6.11014e-20 -4.02573e-09)
(9.78254e-06 2.07451e-05 5.89861e-20 -9.78197e-06 2.38189e-20 -5.67612e-10)
(5.93577e-06 2.16728e-05 2.17177e-19 -5.93497e-06 1.95295e-20 -8.05324e-10)
(1.7737e-05 -1.61396e-05 9.9612e-21 -1.77349e-05 3.7643e-21 -2.15493e-09)
(1.96517e-05 -1.31297e-05 3.62048e-21 -1.96495e-05 3.26229e-21 -2.14429e-09)
(2.10733e-05 -9.93941e-06 6.05947e-20 -2.10569e-05 2.33568e-20 -1.6356e-08)
(2.21236e-05 -6.13618e-06 9.50497e-20 -2.21406e-05 2.62612e-20 1.69422e-08)
(2.25146e-05 -1.89769e-06 -3.49055e-20 -2.2499e-05 -2.03439e-20 -1.55956e-08)
(2.20637e-05 2.46152e-06 -1.39206e-19 -2.20602e-05 -3.98518e-20 -3.50824e-09)
(2.07119e-05 6.78958e-06 2.25248e-20 -2.0718e-05 2.80113e-21 6.0656e-09)
(1.84731e-05 1.07904e-05 -1.59802e-19 -1.84783e-05 -3.01094e-20 5.22509e-09)
(1.55735e-05 1.4092e-05 7.62858e-20 -1.55731e-05 3.69282e-20 -4.13548e-10)
(1.23105e-05 1.65443e-05 1.63225e-19 -1.23072e-05 4.56167e-20 -3.36137e-09)
(8.89168e-06 1.81898e-05 -1.03294e-19 -8.89094e-06 -2.34385e-20 -7.31703e-10)
(5.54055e-06 1.90853e-05 -1.46836e-19 -5.53876e-06 -3.25398e-20 -1.78761e-09)
(1.54265e-05 -1.43706e-05 -1.15201e-20 -1.5425e-05 -1.82929e-21 -1.50042e-09)
(1.7143e-05 -1.1749e-05 3.58845e-20 -1.71405e-05 1.1706e-20 -2.46313e-09)
(1.84275e-05 -8.95808e-06 -1.96601e-20 -1.84127e-05 -7.87711e-21 -1.47785e-08)
(1.93903e-05 -5.62475e-06 -1.5593e-20 -1.9405e-05 -5.5498e-21 1.46245e-08)
(1.97823e-05 -1.89815e-06 -3.30094e-20 -1.97697e-05 -1.30404e-20 -1.25793e-08)
(1.94341e-05 1.94125e-06 -1.01405e-19 -1.94311e-05 -2.51875e-20 -2.98994e-09)
(1.82957e-05 5.76592e-06 -6.02908e-20 -1.83011e-05 -1.78902e-20 5.37935e-09)
(1.63772e-05 9.31607e-06 -6.84536e-21 -1.63815e-05 1.03943e-20 4.32959e-09)
(1.38723e-05 1.22622e-05 6.94817e-20 -1.38714e-05 2.94237e-20 -9.1338e-10)
(1.10408e-05 1.44693e-05 7.56848e-20 -1.10376e-05 1.2965e-20 -3.17014e-09)
(8.06544e-06 1.59748e-05 1.6606e-19 -8.06529e-06 1.3587e-20 -1.53379e-10)
(5.13993e-06 1.68251e-05 -3.57193e-20 -5.1381e-06 -1.4096e-20 -1.83122e-09)
(1.34421e-05 -1.28193e-05 -8.47144e-21 -1.34415e-05 -4.30525e-21 -5.88882e-10)
(1.49821e-05 -1.05294e-05 -5.34002e-20 -1.4979e-05 -1.72566e-20 -3.13886e-09)
(1.61423e-05 -8.08083e-06 -3.28009e-20 -1.6129e-05 -9.99729e-21 -1.32153e-08)
(1.70242e-05 -5.15207e-06 -2.91308e-20 -1.7037e-05 -8.52741e-21 1.28599e-08)
(1.74105e-05 -1.86858e-06 -2.19997e-20 -1.74003e-05 -3.11263e-21 -1.02153e-08)
(1.71457e-05 1.51963e-06 6.33363e-20 -1.71433e-05 8.31096e-21 -2.39305e-09)
(1.61858e-05 4.90568e-06 -2.86611e-19 -1.61905e-05 -6.71712e-20 4.75716e-09)
(1.45366e-05 8.06088e-06 2.01732e-20 -1.45407e-05 3.39772e-20 4.08172e-09)
(1.23658e-05 1.06915e-05 3.83739e-19 -1.23654e-05 7.12007e-20 -4.19525e-10)
(9.90136e-06 1.26771e-05 1.10703e-19 -9.89866e-06 -6.68938e-22 -2.69359e-09)
(7.3032e-06 1.40497e-05 -2.90779e-19 -7.30263e-06 -6.45634e-20 -5.74726e-10)
(4.74218e-06 1.48513e-05 -2.16302e-19 -4.74036e-06 -2.06903e-20 -1.82887e-09)
(2.34748e-06 1.51656e-05 4.22691e-20 -2.34492e-06 1.94258e-20 -2.55881e-09)
(1.17297e-05 -1.14524e-05 9.52275e-21 -1.17296e-05 2.41621e-21 -1.47113e-10)
(1.31117e-05 -9.44537e-06 -1.50367e-20 -1.31085e-05 -2.96338e-21 -3.15209e-09)
(1.41595e-05 -7.29421e-06 5.80667e-20 -1.41471e-05 1.25441e-20 -1.23867e-08)
(1.49676e-05 -4.71556e-06 -1.45174e-19 -1.49788e-05 -4.63585e-20 1.12326e-08)
(1.53436e-05 -1.81711e-06 -1.10851e-19 -1.53354e-05 -2.56827e-20 -8.17712e-09)
(1.51466e-05 1.17813e-06 -5.87202e-20 -1.51444e-05 -6.80938e-21 -2.18261e-09)
(1.43364e-05 4.1804e-06 1.33874e-19 -1.43405e-05 4.95058e-20 4.12674e-09)
(1.2915e-05 6.98847e-06 1.77409e-19 -1.29183e-05 2.04758e-20 3.27763e-09)
(1.10289e-05 9.33943e-06 -1.86028e-19 -1.10283e-05 -4.91343e-20 -6.45807e-10)
(8.87821e-06 1.11249e-05 1.547e-19 -8.87609e-06 2.75887e-20 -2.12146e-09)
(6.60468e-06 1.23729e-05 1.16137e-20 -6.60436e-06 1.44832e-20 -3.1384e-10)
(4.35987e-06 1.31202e-05 -5.47323e-20 -4.35862e-06 8.92289e-21 -1.24762e-09)
(2.25554e-06 1.34385e-05 1.86672e-19 -2.25254e-06 3.11396e-20 -2.99696e-09)
(1.02459e-05 -1.02423e-05 -9.74994e-21 -1.02458e-05 -3.86639e-21 -1.3281e-10)
(1.14864e-05 -8.47878e-06 -2.08425e-20 -1.14834e-05 -4.73632e-21 -2.93881e-09)
(1.24339e-05 -6.58741e-06 3.88362e-20 -1.24228e-05 1.4257e-20 -1.11147e-08)
(1.31751e-05 -4.31387e-06 7.35611e-20 -1.31848e-05 2.27902e-20 9.6878e-09)
(1.35378e-05 -1.75039e-06 1.16782e-19 -1.35312e-05 3.29004e-20 -6.57364e-09)
(1.33952e-05 9.00553e-07 7.83947e-20 -1.33932e-05 2.41682e-20 -2.00293e-09)
(1.27107e-05 3.56637e-06 2.32795e-19 -1.27144e-05 3.79368e-20 3.66132e-09)
(1.14836e-05 6.06728e-06 -3.51411e-19 -1.14867e-05 -7.75604e-20 3.11083e-09)
(9.84122e-06 8.16967e-06 3.12994e-20 -9.84068e-06 1.34375e-20 -5.43364e-10)
(7.95956e-06 9.7757e-06 -6.62926e-20 -7.95761e-06 -7.46304e-21 -1.9483e-09)
(5.96591e-06 1.09085e-05 1.37821e-19 -5.96532e-06 2.19473e-20 -5.92971e-10)
(3.99406e-06 1.16004e-05 5.0769e-20 -3.99255e-06 4.67015e-21 -1.50886e-09)
(2.14259e-06 1.19158e-05 1.05111e-19 -2.14012e-06 -1.99151e-21 -2.47148e-09)
(4.37002e-07 1.1937e-05 4.6655e-20 -4.35548e-07 -1.00632e-21 -1.45425e-09)
(8.95679e-06 -9.16693e-06 9.70997e-21 -8.95686e-06 3.76046e-21 7.64274e-11)
(1.00714e-05 -7.61626e-06 3.34738e-20 -1.00684e-05 7.25681e-21 -3.06544e-09)
(1.09299e-05 -5.9509e-06 -7.69631e-20 -1.09201e-05 -2.08076e-20 -9.84579e-09)
(1.16095e-05 -3.94431e-06 2.93157e-20 -1.16182e-05 1.24388e-20 8.639e-09)
(1.19569e-05 -1.67442e-06 9.53836e-20 -1.19516e-05 2.12104e-20 -5.24425e-09)
(1.18578e-05 6.74841e-07 -2.39315e-20 -1.1856e-05 -1.21819e-20 -1.79857e-09)
(1.12786e-05 3.04477e-06 -1.25354e-19 -1.12819e-05 -2.27132e-20 3.26503e-09)
(1.02174e-05 5.27486e-06 2.75864e-19 -1.02197e-05 5.94409e-20 2.31499e-09)
(8.78421e-06 7.15607e-06 -2.33203e-19 -8.78366e-06 -4.83407e-20 -5.48288e-10)
(7.13565e-06 8.5994e-06 1.91257e-19 -7.13397e-06 4.0229e-20 -1.688e-09)
(5.38449e-06 9.62597e-06 -7.25889e-20 -5.38414e-06 -2.70829e-20 -3.54878e-10)
(3.64964e-06 1.02636e-05 -8.21204e-20 -3.64838e-06 -1.09225e-20 -1.26829e-09)
(2.01909e-06 1.0569e-05 -1.7606e-19 -2.01708e-06 -2.24272e-20 -2.0041e-09)
(5.15633e-07 1.06144e-05 1.98722e-20 -5.13994e-07 4.41073e-21 -1.63979e-09)
(7.8351e-06 -8.21002e-06 -1.32637e-22 -7.83547e-06 -1.20292e-22 3.78996e-10)
(8.83834e-06 -6.84598e-06 8.4777e-21 -8.83534e-06 1.25753e-21 -2.99628e-09)
(9.61709e-06 -5.37836e-06 -4.57936e-20 -9.60823e-06 -1.04576e-20 -8.85199e-09)
(1.02404e-05 -3.60461e-06 8.39986e-20 -1.02479e-05 2.02236e-20 7.48788e-09)
(1.05709e-05 -1.5923e-06 -1.09813e-19 -1.05668e-05 -2.60275e-20 -4.12096e-09)
(1.05061e-05 4.92159e-07 1.38911e-19 -1.05044e-05 3.75141e-20 -1.69683e-09)
(1.00156e-05 2.60072e-06 1.29111e-19 -1.00185e-05 2.20352e-20 2.9609e-09)
(9.09619e-06 4.59024e-06 -1.2366e-19 -9.09848e-06 -3.28739e-20 2.28671e-09)
(7.84351e-06 6.27409e-06 -1.67155e-20 -7.84295e-06 7.46925e-21 -5.561e-10)
(6.39637e-06 7.5716e-06 1.95117e-20 -6.39487e-06 -1.27507e-20 -1.50616e-09)
(4.85561e-06 8.50076e-06 -9.26772e-20 -4.85511e-06 -1.1517e-20 -5.02011e-10)
(3.32725e-06 9.08602e-06 1.21046e-19 -3.32595e-06 2.11642e-20 -1.30464e-09)
(1.89004e-06 9.37742e-06 7.40638e-20 -1.88829e-06 2.10191e-20 -1.74626e-09)
(5.64597e-07 9.43857e-06 1.10333e-20 -5.62573e-07 -9.91084e-21 -2.02446e-09)
(6.85849e-06 -7.3585e-06 -1.65749e-21 -6.85889e-06 -7.45912e-22 4.01187e-10)
(7.76296e-06 -6.15734e-06 7.47175e-21 -7.75996e-06 1.79985e-21 -3.00678e-09)
(8.46971e-06 -4.86266e-06 -2.25255e-21 -8.46187e-06 -2.11449e-21 -7.83972e-09)
(9.04102e-06 -3.29322e-06 -4.87189e-20 -9.04754e-06 -1.51823e-20 6.51602e-09)
(9.35408e-06 -1.50718e-06 -1.16059e-19 -9.35071e-06 -2.79245e-20 -3.37026e-09)
(9.3163e-06 3.44549e-07 -8.12207e-20 -9.31481e-06 -1.95946e-20 -1.48056e-09)
(8.90044e-06 2.22208e-06 -1.38152e-19 -8.90291e-06 -3.15279e-20 2.47011e-09)
(8.10223e-06 3.99874e-06 5.54368e-20 -8.10415e-06 1.46138e-20 1.91784e-09)
(7.00572e-06 5.50602e-06 2.56383e-20 -7.00515e-06 1.92417e-21 -5.65178e-10)
(5.73353e-06 6.67197e-06 -2.88505e-19 -5.73217e-06 -4.26724e-20 -1.35192e-09)
(4.37617e-06 7.51175e-06 -5.53366e-20 -4.37567e-06 2.92972e-21 -5.01136e-10)
(3.02799e-06 8.04707e-06 -1.16196e-19 -3.02683e-06 -1.7342e-20 -1.15835e-09)
(1.76005e-06 8.32191e-06 2.07905e-19 -1.75847e-06 2.13641e-20 -1.58494e-09)
(5.90291e-07 8.39427e-06 -2.18929e-19 -5.89031e-07 -2.51856e-20 -1.26043e-09)
(-4.77752e-07 8.30912e-06 -8.56397e-20 4.77975e-07 -6.4448e-21 -2.23464e-10)
(6.00797e-06 -6.6002e-06 1.0144e-20 -6.00846e-06 3.75672e-21 4.90125e-10)
(6.82348e-06 -5.54116e-06 3.49046e-20 -6.8205e-06 1.0015e-20 -2.97512e-09)
(7.46511e-06 -4.39775e-06 6.29547e-20 -7.45808e-06 1.66301e-20 -7.03035e-09)
(7.98852e-06 -3.00761e-06 6.29983e-20 -7.99423e-06 1.62581e-20 5.71446e-09)
(8.284e-06 -1.42113e-06 9.77349e-20 -8.28118e-06 2.33076e-20 -2.82032e-09)
(8.2674e-06 2.25639e-07 9.55046e-20 -8.2661e-06 1.46173e-20 -1.29586e-09)
(7.91486e-06 1.89861e-06 -2.45213e-19 -7.917e-06 -5.20531e-20 2.14396e-09)
(7.2208e-06 3.48584e-06 -1.21446e-19 -7.22248e-06 -1.42152e-20 1.67726e-09)
(6.25938e-06 4.83577e-06 1.71808e-19 -6.25879e-06 3.34486e-20 -5.85554e-10)
(5.13941e-06 5.88321e-06 3.33955e-19 -5.13823e-06 6.59933e-20 -1.18741e-09)
(3.94207e-06 6.64141e-06 1.62336e-19 -3.94155e-06 1.91963e-20 -5.185e-10)
(2.75174e-06 7.12954e-06 -3.09723e-20 -2.75051e-06 -5.5226e-21 -1.23017e-09)
(1.63171e-06 7.38671e-06 -6.47001e-20 -1.63018e-06 -1.32467e-20 -1.52512e-09)
(5.99022e-07 7.46472e-06 2.56907e-19 -5.97775e-07 3.59122e-20 -1.24682e-09)
(-3.4446e-07 7.40409e-06 -4.7683e-20 3.44761e-07 -7.77067e-21 -3.00175e-10)
(5.26579e-06 -5.92337e-06 8.16213e-21 -5.26641e-06 1.75295e-21 6.19831e-10)
(6.00137e-06 -4.9891e-06 -6.97916e-21 -5.99843e-06 -2.56567e-21 -2.93115e-09)
(6.58396e-06 -3.97822e-06 -2.47652e-20 -6.57772e-06 -6.51335e-21 -6.23452e-09)
(7.06334e-06 -2.74607e-06 -2.41895e-20 -7.06828e-06 -1.03483e-20 4.93777e-09)
(7.34118e-06 -1.33549e-06 -2.62351e-19 -7.33896e-06 -5.98426e-20 -2.21984e-09)
(7.34133e-06 1.29833e-07 -4.90586e-20 -7.34021e-06 -2.7217e-21 -1.12857e-09)
(7.0425e-06 1.6219e-06 1.30725e-19 -7.04438e-06 3.20171e-20 1.87248e-09)
(6.43834e-06 3.04057e-06 1.13655e-19 -6.43983e-06 1.88615e-20 1.48404e-09)
(5.5943e-06 4.24975e-06 -2.74846e-19 -5.59377e-06 -4.80074e-20 -5.30026e-10)
(4.60712e-06 5.19062e-06 4.55123e-20 -4.60603e-06 -9.47849e-22 -1.09365e-09)
(3.54974e-06 5.87469e-06 -2.66885e-20 -3.54917e-06 -4.09424e-21 -5.65306e-10)
(2.49788e-06 6.31874e-06 4.93969e-21 -2.4968e-06 4.84037e-21 -1.07458e-09)
(1.50803e-06 6.55744e-06 -8.17957e-20 -1.50669e-06 -6.0717e-21 -1.34735e-09)
(5.95586e-07 6.63799e-06 -1.48034e-19 -5.94465e-07 -2.66062e-20 -1.12056e-09)
(-2.37238e-07 6.59541e-06 1.84322e-21 2.37642e-07 7.01131e-22 -4.04549e-10)
(4.61697e-06 -5.31845e-06 -2.32754e-21 -4.61773e-06 -3.56272e-22 7.56334e-10)
(5.28087e-06 -4.49379e-06 2.35474e-20 -5.27797e-06 5.92638e-21 -2.90129e-09)
(5.80986e-06 -3.59927e-06 2.29625e-20 -5.80438e-06 5.09105e-21 -5.4885e-09)
(6.24901e-06 -2.5064e-06 8.02761e-21 -6.25323e-06 1.64881e-21 4.22309e-09)
(6.50951e-06 -1.2513e-06 3.32249e-20 -6.50767e-06 1.3272e-20 -1.84888e-09)
(6.52275e-06 5.34216e-08 2.14758e-19 -6.52168e-06 4.22549e-20 -1.07307e-09)
(6.26941e-06 1.38495e-06 -1.25063e-19 -6.27108e-06 -2.87845e-20 1.66862e-09)
(5.74317e-06 2.65335e-06 8.58849e-20 -5.74436e-06 2.69959e-20 1.19623e-09)
(5.00124e-06 3.7368e-06 3.01691e-19 -5.00078e-06 4.70687e-20 -4.68176e-10)
(4.13031e-06 4.58176e-06 -2.26728e-19 -4.12935e-06 -3.77442e-20 -9.5687e-10)
(3.19573e-06 5.19829e-06 1.85763e-19 -3.19527e-06 2.98475e-20 -4.6819e-10)
(2.26517e-06 5.60138e-06 1.30472e-19 -2.26404e-06 1.16488e-20 -1.13519e-09)
(1.38979e-06 5.8221e-06 2.22267e-19 -1.38836e-06 2.64799e-20 -1.43353e-09)
(5.83576e-07 5.90254e-06 -2.52332e-20 -5.82698e-07 -2.98309e-21 -8.78283e-10)
(-1.52196e-07 5.87454e-06 -9.45102e-20 1.52483e-07 -8.92469e-21 -2.86666e-10)
(-8.14775e-07 5.7628e-06 -1.10175e-19 8.14525e-07 -7.9902e-21 2.50091e-10)
(4.04907e-06 -4.77717e-06 2.59104e-21 -4.04988e-06 -3.15607e-22 8.11565e-10)
(4.64873e-06 -4.0489e-06 -5.97436e-20 -4.64595e-06 -1.30762e-20 -2.78057e-09)
(5.12912e-06 -3.25688e-06 7.29522e-20 -5.12433e-06 1.74367e-20 -4.78303e-09)
(5.53127e-06 -2.28692e-06 -2.32215e-20 -5.535e-06 -3.4916e-21 3.73019e-09)
(5.77512e-06 -1.16972e-06 1.94952e-19 -5.77356e-06 4.04017e-20 -1.56223e-09)
(5.79831e-06 -7.18722e-09 -1.29811e-19 -5.79735e-06 -3.04501e-20 -9.58798e-10)
(5.58374e-06 1.18156e-06 2.08876e-20 -5.58522e-06 1.10652e-20 1.48015e-09)
(5.12499e-06 2.31614e-06 3.18105e-19 -5.12602e-06 4.65542e-20 1.0268e-09)
(4.47229e-06 3.28714e-06 -3.64325e-19 -4.47179e-06 -6.60781e-20 -5.05508e-10)
(3.70313e-06 4.04593e-06 1.49182e-19 -3.70223e-06 3.22217e-20 -8.98517e-10)
(2.87648e-06 4.60124e-06 -2.30454e-19 -2.87593e-06 -4.57068e-20 -5.47406e-10)
(2.05277e-06 4.96661e-06 -2.87946e-19 -2.05184e-06 -4.17118e-20 -9.30373e-10)
(1.27834e-06 5.16953e-06 -1.46788e-19 -1.27713e-06 -2.15912e-20 -1.20868e-09)
(5.65071e-07 5.24783e-06 5.57002e-20 -5.64191e-07 1.30572e-20 -8.80514e-10)
(-8.47714e-08 5.23161e-06 1.50475e-19 8.49362e-08 1.74784e-20 -1.64738e-10)
(-6.69148e-07 5.13989e-06 6.60876e-20 6.69183e-07 1.08788e-20 -3.42913e-11)
(4.09358e-06 -3.64886e-06 -2.08966e-20 -4.09103e-06 -5.28765e-21 -2.54393e-09)
(4.53002e-06 -2.94743e-06 -2.39715e-20 -4.52573e-06 -5.31504e-21 -4.28846e-09)
(4.89825e-06 -2.08596e-06 -9.32401e-21 -4.90151e-06 -3.99073e-21 3.2618e-09)
(5.12598e-06 -1.09106e-06 -1.42164e-19 -5.12469e-06 -2.7099e-20 -1.28816e-09)
(5.15667e-06 -5.47255e-08 2.30053e-19 -5.15579e-06 4.72593e-20 -8.88896e-10)
(4.97516e-06 1.007e-06 -9.56379e-20 -4.9764e-06 -2.73399e-20 1.23545e-09)
(4.57488e-06 2.02227e-06 -4.09053e-19 -4.57581e-06 -7.31511e-20 9.30282e-10)
(4.00044e-06 2.89239e-06 3.57885e-19 -3.99997e-06 7.49478e-20 -4.76512e-10)
(3.32065e-06 3.57379e-06 5.16468e-20 -3.3199e-06 3.82678e-22 -7.50707e-10)
(2.589e-06 4.07363e-06 1.10196e-19 -2.58849e-06 2.99863e-20 -5.13036e-10)
(1.85919e-06 4.40439e-06 1.30426e-19 -1.85826e-06 2.36071e-20 -9.32367e-10)
(1.17354e-06 4.59034e-06 -1.43332e-20 -1.17231e-06 5.94592e-21 -1.22759e-09)
(5.42677e-07 4.66577e-06 2.88013e-20 -5.4186e-07 -1.16196e-21 -8.16637e-10)
(-3.1248e-08 4.65716e-06 -1.54489e-19 3.14059e-08 -2.03801e-20 -1.57938e-10)
(-5.47495e-07 4.58278e-06 8.47909e-20 5.47763e-07 7.42183e-21 -2.68587e-10)
(-1.01592e-06 4.45653e-06 -1.60951e-19 1.01598e-06 -1.89079e-20 -6.12093e-11)
(3.60576e-06 -3.2889e-06 -1.52853e-20 -3.60345e-06 -2.88906e-21 -2.30871e-09)
(4.00237e-06 -2.6676e-06 3.88528e-20 -3.99863e-06 7.19349e-21 -3.74353e-09)
(4.3394e-06 -1.9022e-06 -1.15993e-19 -4.34221e-06 -2.51091e-20 2.80479e-09)
(4.55169e-06 -1.01571e-06 3.04816e-20 -4.55064e-06 5.32805e-21 -1.05594e-09)
(4.58798e-06 -9.15455e-08 -2.19688e-19 -4.58715e-06 -4.49348e-20 -8.26047e-10)
(4.43459e-06 8.57117e-07 5.05913e-20 -4.43566e-06 1.22232e-20 1.07235e-09)
(4.08524e-06 1.76586e-06 1.37815e-20 -4.08595e-06 8.00782e-21 7.19756e-10)
(3.57925e-06 2.54582e-06 -1.75267e-20 -3.57875e-06 -1.08644e-20 -5.02429e-10)
(2.97811e-06 3.15761e-06 -5.2184e-20 -2.97735e-06 -4.32071e-21 -7.60379e-10)
(2.33013e-06 3.60737e-06 2.89228e-19 -2.32961e-06 3.9847e-20 -5.22698e-10)
(1.68339e-06 3.90634e-06 -3.32647e-20 -1.68254e-06 -1.00428e-20 -8.54682e-10)
(1.07608e-06 4.07613e-06 2.5914e-19 -1.07505e-06 2.99438e-20 -1.02894e-09)
(5.17889e-07 4.1478e-06 -8.31965e-20 -5.17136e-07 -1.23794e-20 -7.5283e-10)
(1.06599e-08 4.14497e-06 9.1177e-20 -1.04613e-08 1.58992e-20 -1.98587e-10)
(-4.44862e-07 4.08476e-06 -7.26017e-20 4.45136e-07 -1.13458e-20 -2.7357e-10)
(-8.57197e-07 3.97876e-06 1.22147e-19 8.5754e-07 1.91093e-20 -3.42173e-10)
(3.17681e-06 -2.96505e-06 -7.42136e-20 -3.17468e-06 -1.63898e-20 -2.12591e-09)
(3.53725e-06 -2.4143e-06 -9.24061e-21 -3.53396e-06 1.05517e-21 -3.28994e-09)
(3.84562e-06 -1.73405e-06 1.88826e-19 -3.84806e-06 4.00818e-20 2.44577e-09)
(4.04324e-06 -9.43988e-07 1.67851e-21 -4.04233e-06 -7.34852e-22 -9.0809e-10)
(4.08349e-06 -1.19455e-07 1.37233e-19 -4.08273e-06 2.65939e-20 -7.65266e-10)
(3.95415e-06 7.28424e-07 -1.60484e-19 -3.95507e-06 -3.27775e-20 9.16139e-10)
(3.64925e-06 1.54188e-06 2.17891e-20 -3.64983e-06 6.94706e-21 5.86489e-10)
(3.20325e-06 2.24116e-06 -6.63831e-20 -3.2028e-06 -7.66137e-21 -4.49551e-10)
(2.67148e-06 2.79034e-06 5.70304e-20 -2.67081e-06 6.43449e-21 -6.65714e-10)
(2.09737e-06 3.1949e-06 -1.52295e-19 -2.09689e-06 -3.49929e-20 -4.85903e-10)
(1.52396e-06 3.46479e-06 -8.32565e-20 -1.52315e-06 -5.83251e-21 -8.08319e-10)
(9.85815e-07 3.61952e-06 -2.87938e-19 -9.84774e-07 -4.0295e-20 -1.0405e-09)
(4.91735e-07 3.68714e-06 8.433e-20 -4.91214e-07 1.62675e-20 -5.20444e-10)
(4.36091e-08 3.68844e-06 3.94291e-20 -4.34745e-08 2.34591e-21 -1.34603e-10)
(-3.5829e-07 3.63934e-06 -3.12161e-20 3.58574e-07 -7.34887e-22 -2.833e-10)
(-7.21341e-07 3.5504e-06 -3.65993e-20 7.21879e-07 -4.1419e-21 -5.37892e-10)
(2.79933e-06 -2.67333e-06 5.36381e-20 -2.79741e-06 1.26133e-20 -1.91576e-09)
(3.1268e-06 -2.18501e-06 8.83863e-20 -3.12395e-06 1.74347e-20 -2.85404e-09)
(3.40888e-06 -1.58024e-06 -7.99112e-20 -3.41102e-06 -2.03279e-20 2.14171e-09)
(3.59259e-06 -8.76032e-07 -2.12059e-19 -3.59186e-06 -4.03426e-20 -7.32087e-10)
(3.63554e-06 -1.40202e-07 1.92884e-20 -3.63489e-06 3.55267e-21 -6.56912e-10)
(3.52685e-06 6.17822e-07 -4.38338e-20 -3.52762e-06 -5.34894e-21 7.73543e-10)
(3.26067e-06 1.34627e-06 1.3464e-19 -3.26115e-06 2.62909e-20 4.87277e-10)
(2.86751e-06 1.97323e-06 1.85913e-19 -2.86699e-06 2.78091e-20 -5.22463e-10)
(2.39693e-06 2.46621e-06 -1.20835e-19 -2.39625e-06 -1.9408e-20 -6.77523e-10)
(1.88801e-06 2.83003e-06 -1.79007e-19 -1.8875e-06 -1.92395e-20 -5.12551e-10)
(1.37956e-06 3.0735e-06 3.53271e-19 -1.37874e-06 5.12947e-20 -8.19117e-10)
(9.02641e-07 3.21424e-06 1.77213e-19 -9.01838e-07 2.76119e-20 -8.0288e-10)
(4.65255e-07 3.27717e-06 -5.27724e-20 -4.64776e-07 -1.36287e-20 -4.79429e-10)
(6.89068e-08 3.28162e-06 2.28298e-20 -6.87226e-08 2.07225e-21 -1.84163e-10)
(-2.85143e-07 3.24168e-06 1.54841e-19 2.85415e-07 2.03559e-20 -2.71597e-10)
(-6.05276e-07 3.16721e-06 1.35169e-19 6.05636e-07 1.62678e-20 -3.60698e-10)
(-8.96529e-07 3.06501e-06 2.0965e-20 8.96938e-07 1.65206e-21 -4.0964e-10)
(2.46693e-06 -2.41038e-06 -1.30299e-20 -2.4652e-06 -3.54291e-21 -1.73171e-09)
(2.7644e-06 -1.97728e-06 -9.99801e-20 -2.76191e-06 -2.05779e-20 -2.48501e-09)
(3.02237e-06 -1.43951e-06 1.49086e-20 -3.02423e-06 7.35299e-21 1.86255e-09)
(3.19295e-06 -8.11677e-07 3.22885e-19 -3.19231e-06 6.06753e-20 -6.34305e-10)
(3.23757e-06 -1.54852e-07 -2.45328e-19 -3.23695e-06 -4.8722e-20 -6.24895e-10)
(3.14653e-06 5.22888e-07 2.21028e-20 -3.14719e-06 6.20377e-21 6.6413e-10)
(2.91421e-06 1.17521e-06 -1.1531e-20 -2.9146e-06 -2.64081e-21 3.93997e-10)
(2.5676e-06 1.73739e-06 -1.22039e-19 -2.56714e-06 -1.66824e-20 -4.62595e-10)
(2.15114e-06 2.1799e-06 3.41113e-19 -2.1505e-06 5.07863e-20 -6.40166e-10)
(1.69986e-06 2.50707e-06 1.8787e-20 -1.69934e-06 -5.64665e-21 -5.13671e-10)
(1.24904e-06 2.72655e-06 -3.38892e-19 -1.24821e-06 -5.37462e-20 -8.29997e-10)
(8.26138e-07 2.85434e-06 8.89653e-20 -8.25383e-07 1.06695e-20 -7.54747e-10)
(4.3888e-07 2.91288e-06 -1.62507e-19 -4.38472e-07 -2.19661e-20 -4.08304e-10)
(8.86247e-08 2.9195e-06 -1.48242e-19 -8.86235e-08 -2.03365e-20 -1.17628e-12)
(-2.23729e-07 2.88683e-06 -6.78346e-20 2.23969e-07 -9.87331e-21 -2.40274e-10)
(-5.05855e-07 2.82443e-06 2.58908e-20 5.06199e-07 1.56348e-21 -3.43754e-10)
(-7.61854e-07 2.73798e-06 1.90278e-20 7.623e-07 1.46818e-21 -4.46043e-10)
(2.17409e-06 -2.17327e-06 -3.54288e-20 -2.17248e-06 -6.62924e-21 -1.60206e-09)
(2.44425e-06 -1.78904e-06 6.45247e-20 -2.4421e-06 1.38798e-20 -2.14614e-09)
(2.68007e-06 -1.31079e-06 4.47462e-20 -2.6817e-06 4.69783e-21 1.63025e-09)
(2.83824e-06 -7.51071e-07 -3.51105e-19 -2.83773e-06 -6.6327e-20 -5.15324e-10)
(2.88371e-06 -1.64759e-07 2.54752e-19 -2.88319e-06 5.14831e-20 -5.24359e-10)
(2.80777e-06 4.41346e-07 -9.16323e-20 -2.80836e-06 -1.48797e-20 5.89221e-10)
(2.60512e-06 1.02567e-06 2.89166e-19 -2.60542e-06 5.01891e-20 2.95921e-10)
(2.29952e-06 1.52979e-06 2.02934e-19 -2.29905e-06 2.63353e-20 -4.6748e-10)
(1.93091e-06 1.92701e-06 -5.11214e-19 -1.93027e-06 -8.46788e-20 -6.34831e-10)
(1.5308e-06 2.22112e-06 -2.33577e-19 -1.53026e-06 -2.95653e-20 -5.30426e-10)
(1.13097e-06 2.41896e-06 9.80386e-20 -1.13018e-06 2.13098e-20 -7.90475e-10)
(7.55984e-07 2.53488e-06 -3.70388e-20 -7.55268e-07 -7.04251e-21 -7.16086e-10)
(4.13076e-07 2.58899e-06 1.15997e-19 -4.12644e-07 2.0774e-20 -4.3156e-10)
(1.03422e-07 2.59706e-06 -9.35013e-20 -1.03267e-07 -1.00749e-20 -1.54327e-10)
(-1.72234e-07 2.57043e-06 -3.0825e-20 1.72593e-07 -3.78041e-21 -3.59809e-10)
(-4.20495e-07 2.51811e-06 -2.09544e-20 4.20896e-07 -7.71475e-22 -4.01265e-10)
(-6.45847e-07 2.44473e-06 -2.10745e-20 6.46302e-07 -3.37648e-21 -4.5448e-10)
(1.91597e-06 -1.95933e-06 3.10502e-21 -1.91453e-06 1.3751e-21 -1.4432e-09)
(2.16128e-06 -1.6185e-06 7.46017e-20 -2.15941e-06 1.42949e-20 -1.86844e-09)
(2.37679e-06 -1.19308e-06 -8.28841e-20 -2.37823e-06 -1.52665e-20 1.44254e-09)
(2.52332e-06 -6.94072e-07 1.89586e-19 -2.52289e-06 3.70267e-20 -4.30645e-10)
(2.56896e-06 -1.70594e-07 -9.78689e-20 -2.56848e-06 -1.97593e-20 -4.80923e-10)
(2.50596e-06 3.71467e-07 1.4948e-19 -2.50647e-06 2.51523e-20 5.04566e-10)
(2.32924e-06 8.94829e-07 -2.72085e-19 -2.32951e-06 -5.26477e-20 2.68723e-10)
(2.0599e-06 1.34688e-06 -2.79347e-20 -2.05944e-06 -3.96017e-21 -4.62304e-10)
(1.73356e-06 1.70352e-06 4.23217e-19 -1.73298e-06 7.61676e-20 -5.78398e-10)
(1.37885e-06 1.96783e-06 -2.55897e-20 -1.37831e-06 -4.36937e-22 -5.3356e-10)
(1.02421e-06 2.14609e-06 -6.25866e-20 -1.02342e-06 -8.67524e-21 -7.83984e-10)
(6.91759e-07 2.2512e-06 -1.7121e-20 -6.9104e-07 6.40654e-22 -7.18849e-10)
(3.88107e-07 2.3011e-06 1.54892e-19 -3.87666e-07 2.1188e-20 -4.40806e-10)
(1.14387e-07 2.31007e-06 9.05333e-20 -1.14133e-07 1.22723e-20 -2.53931e-10)
(-1.28912e-07 2.28855e-06 -9.64978e-20 1.29319e-07 -1.34505e-20 -4.07787e-10)
(-3.47206e-07 2.24453e-06 1.47713e-19 3.47722e-07 1.97107e-20 -5.15565e-10)
(-5.45575e-07 2.18239e-06 2.34804e-20 5.46082e-07 2.5943e-21 -5.06622e-10)
(-7.27382e-07 2.10499e-06 -1.25314e-19 7.27597e-07 -1.38246e-20 -2.14564e-10)
(1.6884e-06 -1.76625e-06 -8.94429e-21 -1.68712e-06 -2.78184e-21 -1.28303e-09)
(1.91117e-06 -1.46393e-06 -1.15236e-19 -1.90954e-06 -2.22895e-20 -1.62383e-09)
(2.10801e-06 -1.0855e-06 2.6828e-20 -2.10928e-06 6.36677e-21 1.27138e-09)
(2.2436e-06 -6.40631e-07 1.89345e-20 -2.24326e-06 1.62334e-21 -3.43703e-10)