/*--------------------------------*- C++ -*----------------------------------*\
| =========                 |                                                 |
| \\      /  F ield         | OpenFOAM: The Open Source CFD Toolbox           |
|  \\    /   O peration     | Version:  2506                                  |
|   \\  /    A nd           | Website:  www.openfoam.com                      |
|    \\/     M anipulation  |                                                 |
\*---------------------------------------------------------------------------*/
FoamFile
{
    version     2.0;
    format      ascii;
    arch        "LSB;label=32;scalar=64";
    class       volScalarField;
    location    "150";
    object      magR;
}
// * * * * * * * * * * * * * * * * * * * * * * * * * * * * * * * * * * * * * //

dimensions      [0 2 -2 0 0 0 0];

internalField   nonuniform List<scalar> 
1340
(
60.6515
57.9641
54.845
45.0178
1.849
2.02871
2.44007
3.39803
0.414787
0.564517
0.667044
1.14435
0.0166117
0.0524694
0.12894
0.459214
0.000724942
0.00183927
0.00455197
0.090341
9.78537e-05
0.000324223
0.00105023
0.0106299
6.68645e-06
1.3702e-06
1.6559e-07
0.000447231
2.31623e-05
1.51643e-05
1.75333e-06
3.94052e-05
3.07979e-05
3.27099e-05
3.14571e-05
1.06449e-06
2.5917e-05
2.50833e-05
4.11339e-05
1.41426e-05
2.63513e-05
2.56426e-05
3.57869e-05
4.1677e-05
2.44263e-05
2.4126e-05
3.01822e-05
4.67323e-05
2.35522e-05
2.33514e-05
2.7686e-05
4.29927e-05
2.22606e-05
2.19274e-05
2.55673e-05
3.85164e-05
2.11132e-05
2.06671e-05
2.36202e-05
3.46066e-05
1.9851e-05
1.93092e-05
2.16704e-05
3.1088e-05
1.85951e-05
1.79722e-05
1.98119e-05
2.78488e-05
1.73276e-05
1.66279e-05
1.80367e-05
2.48567e-05
1.60719e-05
1.52996e-05
1.63455e-05
2.20942e-05
1.48217e-05
1.39849e-05
1.47393e-05
1.95635e-05
1.35774e-05
1.26865e-05
1.32122e-05
1.72511e-05
1.23449e-05
1.14119e-05
1.17671e-05
1.51536e-05
1.11404e-05
1.01706e-05
1.04032e-05
1.32621e-05
9.97479e-06
8.9731e-06
9.11677e-06
1.15549e-05
8.84664e-06
7.82036e-06
7.91037e-06
1.00239e-05
7.75787e-06
6.71491e-06
6.7857e-06
8.66081e-06
6.7232e-06
5.66506e-06
5.74497e-06
7.45913e-06
5.75767e-06
4.67896e-06
4.78662e-06
6.40289e-06
4.86865e-06
3.76081e-06
3.91251e-06
5.47981e-06
4.06117e-06
2.91183e-06
3.12848e-06
4.68531e-06
3.34407e-06
2.13232e-06
2.4464e-06
4.01934e-06
2.73605e-06
1.42836e-06
1.88402e-06
3.48086e-06
2.26498e-06
8.18551e-07
1.46988e-06
3.06207e-06
1.95308e-06
3.98428e-07
1.2452e-06
2.7537e-06
1.80692e-06
5.11914e-07
1.22682e-06
2.54799e-06
1.80741e-06
8.81917e-07
1.35317e-06
2.42771e-06
1.90418e-06
1.23849e-06
1.53945e-06
2.36852e-06
2.04452e-06
1.54923e-06
1.73782e-06
2.35408e-06
2.857e-06
2.19752e-06
1.80643e-06
1.91782e-06
2.36341e-06
2.86797e-06
2.33033e-06
2.01313e-06
2.0668e-06
2.37799e-06
2.87962e-06
2.43904e-06
2.17428e-06
2.18603e-06
2.39249e-06
2.8839e-06
2.52024e-06
2.29367e-06
2.27516e-06
2.40207e-06
2.87355e-06
2.57081e-06
2.37323e-06
2.33319e-06
2.40052e-06
2.84653e-06
2.5926e-06
2.41807e-06
2.36328e-06
2.38614e-06
2.80396e-06
2.58946e-06
2.434e-06
2.36966e-06
2.36015e-06
2.74465e-06
2.56253e-06
2.42358e-06
2.35393e-06
2.32177e-06
2.66945e-06
2.51428e-06
2.38991e-06
2.31827e-06
2.27083e-06
2.58259e-06
2.44995e-06
2.3386e-06
2.26732e-06
2.20995e-06
2.48681e-06
2.37312e-06
2.27359e-06
2.20442e-06
2.14164e-06
2.38263e-06
2.28516e-06
2.19655e-06
2.13076e-06
2.066e-06
2.27128e-06
2.18776e-06
2.10937e-06
2.0479e-06
1.98353e-06
2.15693e-06
2.08433e-06
2.01535e-06
1.95874e-06
1.89642e-06
2.10156e-06
2.03969e-06
1.97622e-06
1.9161e-06
1.86461e-06
1.80576e-06
1.97162e-06
1.91862e-06
1.86543e-06
1.81268e-06
1.76637e-06
1.71198e-06
1.84174e-06
1.79745e-06
1.75225e-06
1.70629e-06
1.66525e-06
1.61574e-06
1.71345e-06
1.67644e-06
1.6383e-06
1.59865e-06
1.56274e-06
1.51818e-06
1.58881e-06
1.55806e-06
1.52596e-06
1.4919e-06
1.46079e-06
1.42101e-06
1.46964e-06
1.44407e-06
1.4171e-06
1.38799e-06
1.36131e-06
1.32611e-06
1.35701e-06
1.33581e-06
1.31323e-06
1.28844e-06
1.26572e-06
1.23482e-06
1.2507e-06
1.23303e-06
1.21425e-06
1.19329e-06
1.17409e-06
1.1472e-06
1.15033e-06
1.13514e-06
1.1198e-06
1.10226e-06
1.08614e-06
1.06303e-06
1.0649e-06
1.05396e-06
1.04103e-06
1.02864e-06
1.01402e-06
1.00071e-06
9.81199e-07
9.69387e-07
9.6008e-07
9.49909e-07
9.3968e-07
9.27571e-07
9.16917e-07
9.00762e-07
8.77181e-07
8.69625e-07
8.61347e-07
8.53078e-07
8.43278e-07
8.35068e-07
8.21938e-07
7.89284e-07
7.83157e-07
7.76512e-07
7.69992e-07
7.62238e-07
7.56231e-07
7.45769e-07
7.06729e-07
7.01761e-07
6.96405e-07
6.91347e-07
6.85339e-07
6.81238e-07
6.73001e-07
6.31627e-07
6.27564e-07
6.23258e-07
6.19471e-07
6.15061e-07
6.12656e-07
6.06631e-07
5.68182e-07
5.64611e-07
5.60906e-07
5.57907e-07
5.54512e-07
5.53266e-07
5.49057e-07
5.1762e-07
5.14205e-07
5.10853e-07
5.08168e-07
5.05131e-07
5.0438e-07
5.01012e-07
4.73454e-07
4.7015e-07
4.67043e-07
4.64495e-07
4.61592e-07
4.60944e-07
4.58164e-07
4.30607e-07
4.27199e-07
4.24431e-07
4.22147e-07
4.19496e-07
4.19015e-07
4.16937e-07
3.90889e-07
3.87356e-07
3.83691e-07
3.81012e-07
3.78814e-07
3.7654e-07
3.76583e-07
3.76465e-07
3.47284e-07
3.42772e-07
3.38558e-07
3.34957e-07
3.31902e-07
3.28995e-07
3.27637e-07
3.25436e-07
2.91481e-07
2.86727e-07
2.82718e-07
2.7982e-07
2.78087e-07
2.77412e-07
2.80852e-07
2.88089e-07
2.14792e-07
2.04965e-07
1.96127e-07
1.88908e-07
1.8322e-07
1.78915e-07
1.76571e-07
1.71969e-07
1.71201e-07
1.69899e-07
1.71038e-07
1.74877e-07
1.82152e-07
1.92957e-07
2.15271e-07
2.48443e-07
1.83822e-07
1.82694e-07
1.81345e-07
1.79676e-07
1.78817e-07
1.85976e-07
2.23252e-07
2.6188e-07
5.30179e-07
5.5036e-07
5.67937e-07
5.8407e-07
6.02298e-07
6.28288e-07
6.92262e-07
7.46714e-07
9.78768e-07
9.8089e-07
9.82199e-07
9.8286e-07
9.83204e-07
9.86284e-07
1.00664e-06
9.59288e-07
1.88473e-06
1.88425e-06
1.88212e-06
1.87881e-06
1.87297e-06
1.86856e-06
1.85121e-06
1.71622e-06
11.6211
3.30357
0.956766
0.308272
0.0551722
0.00371418
0.000392073
3.52531e-05
1.40131e-06
2.4384e-05
4.84638e-05
4.93427e-05
4.46903e-05
4.01858e-05
3.62883e-05
3.27662e-05
2.95046e-05
2.64852e-05
2.37017e-05
2.11399e-05
1.88001e-05
1.66768e-05
1.47574e-05
1.30269e-05
1.14741e-05
1.0095e-05
8.87846e-06
7.80714e-06
6.86715e-06
6.05133e-06
5.35512e-06
4.7701e-06
4.28295e-06
3.88281e-06
3.56224e-06
3.30907e-06
3.11052e-06
2.95883e-06
2.84074e-06
2.74381e-06
2.6638e-06
2.59499e-06
2.53025e-06
2.46631e-06
2.40213e-06
2.33489e-06
2.26303e-06
2.18758e-06
2.10955e-06
2.02792e-06
1.94254e-06
1.85475e-06
1.76508e-06
1.67349e-06
1.58026e-06
1.48621e-06
1.3928e-06
1.30165e-06
1.21391e-06
1.12955e-06
1.04836e-06
9.69262e-07
8.91434e-07
8.15115e-07
7.41313e-07
6.70609e-07
6.06147e-07
5.49987e-07
5.02937e-07
4.60679e-07
4.19758e-07
3.8024e-07
3.27945e-07
2.96451e-07
1.71506e-07
2.72893e-07
2.35803e-07
7.37605e-07
8.43281e-07
1.52724e-06
6.62751
2.20206
0.474301
0.0836499
0.00892316
0.000608447
0.000118452
7.81444e-08
1.4813e-06
2.21993e-05
2.92642e-05
2.85089e-05
2.66619e-05
2.50053e-05
2.35098e-05
2.20574e-05
2.06199e-05
1.91948e-05
1.77996e-05
1.64395e-05
1.51277e-05
1.38714e-05
1.26743e-05
1.15459e-05
1.04899e-05
9.51227e-06
8.61451e-06
7.7937e-06
7.04721e-06
6.37673e-06
5.78226e-06
5.25989e-06
4.80285e-06
4.40628e-06
4.06677e-06
3.7766e-06
3.5297e-06
3.32216e-06
3.14532e-06
2.99173e-06
2.85929e-06
2.74312e-06
2.63747e-06
2.53951e-06
2.44757e-06
2.35821e-06
2.26949e-06
2.18179e-06
2.09497e-06
2.00739e-06
1.91846e-06
1.82897e-06
1.73895e-06
1.64797e-06
1.55609e-06
1.46399e-06
1.3729e-06
1.28425e-06
1.19891e-06
1.11676e-06
1.03755e-06
9.60224e-07
8.84044e-07
8.09351e-07
7.3714e-07
6.67875e-07
6.04522e-07
5.4899e-07
5.02574e-07
4.60944e-07
4.20289e-07
3.81106e-07
3.28612e-07
2.98802e-07
1.70202e-07
2.87215e-07
2.01385e-07
7.43601e-07
8.32292e-07
1.56534e-06
3.94642
1.26457
0.19561
0.0159359
0.000758243
0.000137815
1.38764e-05
3.73503e-07
6.34704e-06
1.78779e-05
1.80732e-05
1.70927e-05
1.6102e-05
1.52784e-05
1.45244e-05
1.37905e-05
1.30773e-05
1.23833e-05
1.1706e-05
1.10556e-05
1.04259e-05
9.81879e-06
9.23077e-06
8.66701e-06
8.12663e-06
7.60858e-06
7.11395e-06
6.6428e-06
6.19462e-06
5.77288e-06
5.37931e-06
5.01406e-06
4.67662e-06
4.3676e-06
4.08722e-06
3.83333e-06
3.60514e-06
3.40187e-06
3.21913e-06
3.05387e-06
2.90604e-06
2.77246e-06
2.64954e-06
2.5358e-06
2.4298e-06
2.3286e-06
2.23064e-06
2.13619e-06
2.04458e-06
1.95403e-06
1.86388e-06
1.77459e-06
1.68582e-06
1.59693e-06
1.50785e-06
1.41913e-06
1.33178e-06
1.24701e-06
1.16543e-06
1.08685e-06
1.01094e-06
9.36682e-07
8.63453e-07
7.91617e-07
7.22148e-07
6.5543e-07
5.94175e-07
5.40284e-07
4.95491e-07
4.55492e-07
4.16023e-07
3.7801e-07
3.26624e-07
2.98091e-07
1.73214e-07
2.93936e-07
1.86674e-07
7.38701e-07
8.14391e-07
1.56845e-06
2.18692
0.548995
0.045567
0.00109214
0.000260395
4.21488e-08
8.46605e-08
1.53699e-06
9.17691e-06
1.24525e-05
1.15729e-05
1.11009e-05
1.06598e-05
1.02877e-05
9.91628e-06
9.53814e-06
9.16492e-06
8.7948e-06
8.42962e-06
8.07555e-06
7.72783e-06
7.3911e-06
7.0636e-06
6.74566e-06
6.43845e-06
6.14097e-06
5.85212e-06
5.57215e-06
5.30067e-06
5.03861e-06
4.78622e-06
4.54337e-06
4.31059e-06
4.08857e-06
3.87783e-06
3.67855e-06
3.49136e-06
3.31673e-06
3.15283e-06
2.99928e-06
2.85705e-06
2.72462e-06
2.60013e-06
2.48351e-06
2.37384e-06
2.269e-06
2.1682e-06
2.07181e-06
1.97899e-06
1.88817e-06
1.79884e-06
1.71125e-06
1.62488e-06
1.53902e-06
1.45348e-06
1.36873e-06
1.28563e-06
1.20513e-06
1.1277e-06
1.05305e-06
9.80821e-07
9.10025e-07
8.40136e-07
7.71513e-07
7.05114e-07
6.41273e-07
5.82488e-07
5.30694e-07
4.87851e-07
4.49674e-07
4.11642e-07
3.7507e-07
3.25196e-07
2.97976e-07
1.7923e-07
2.9889e-07
1.81786e-07
7.31555e-07
7.92934e-07
1.5553e-06
0.933003
0.13542
0.00249349
1.25426e-05
7.17084e-07
3.96114e-09
7.41752e-08
5.01044e-06
9.52729e-06
9.56212e-06
8.94215e-06
8.75704e-06
8.55977e-06
8.38067e-06
8.1824e-06
7.97269e-06
7.75482e-06
7.52661e-06
7.29238e-06
7.05174e-06
6.80492e-06
6.55536e-06
6.30609e-06
6.05604e-06
5.80815e-06
5.56546e-06
5.32677e-06
5.09446e-06
4.86916e-06
4.65115e-06
4.44083e-06
4.23806e-06
4.04354e-06
3.85693e-06
3.67811e-06
3.50747e-06
3.34484e-06
3.19038e-06
3.04277e-06
2.90236e-06
2.76982e-06
2.644e-06
2.52413e-06
2.41069e-06
2.30284e-06
2.19926e-06
2.09975e-06
2.00466e-06
1.91321e-06
1.82407e-06
1.737e-06
1.65208e-06
1.56873e-06
1.48627e-06
1.40443e-06
1.32364e-06
1.24465e-06
1.16824e-06
1.09468e-06
1.02369e-06
9.54885e-07
8.87291e-07
8.20505e-07
7.54866e-07
6.91334e-07
6.30189e-07
5.73698e-07
5.23852e-07
4.82782e-07
4.46146e-07
4.09349e-07
3.74037e-07
3.25552e-07
2.99629e-07
1.86702e-07
3.0568e-07
1.78779e-07
7.31904e-07
7.81454e-07
1.55274e-06
0.232579
0.00933414
0.000830508
2.20413e-09
0
1.54629e-07
2.62813e-06
7.68809e-06
8.57526e-06
7.9574e-06
7.68612e-06
7.6023e-06
7.47832e-06
7.3496e-06
7.20083e-06
7.04338e-06
6.8757e-06
6.6991e-06
6.51646e-06
6.32653e-06
6.13164e-06
5.93325e-06
5.73358e-06
5.53136e-06
5.32876e-06
5.1282e-06
4.92905e-06
4.73353e-06
4.54125e-06
4.35252e-06
4.16835e-06
3.98919e-06
3.81615e-06
3.64909e-06
3.48818e-06
3.33403e-06
3.18636e-06
3.04529e-06
2.90994e-06
2.78069e-06
2.65769e-06
2.5399e-06
2.42715e-06
2.31978e-06
2.21684e-06
2.11767e-06
2.02232e-06
1.93098e-06
1.84297e-06
1.75726e-06
1.6738e-06
1.59258e-06
1.513e-06
1.43442e-06
1.35664e-06
1.28002e-06
1.20523e-06
1.13291e-06
1.06319e-06
9.9582e-07
9.30356e-07
8.65912e-07
8.02158e-07
7.39455e-07
6.78771e-07
6.203e-07
5.6606e-07
5.18136e-07
4.78803e-07
4.43618e-07
4.08008e-07
3.73856e-07
3.26735e-07
3.02224e-07
1.95075e-07
3.13695e-07
1.74559e-07
7.35253e-07
0.0175251
0.00113064
0
0
8.87373e-08
1.53024e-06
5.75221e-06
7.25653e-06
6.79089e-06
6.44974e-06
6.39514e-06
6.35184e-06
6.27646e-06
6.1923e-06
6.09338e-06
5.98776e-06
5.87275e-06
5.74881e-06
5.61777e-06
5.47939e-06
5.33586e-06
5.18794e-06
5.03566e-06
4.8803e-06
4.72389e-06
4.56728e-06
4.41176e-06
4.25838e-06
4.10568e-06
3.9544e-06
3.8055e-06
3.65939e-06
3.51679e-06
3.3777e-06
3.24222e-06
3.11079e-06
2.98344e-06
2.86043e-06
2.74137e-06
2.62675e-06
2.51637e-06
2.40969e-06
2.30709e-06
2.20845e-06
2.11314e-06
2.02098e-06
1.93205e-06
1.84649e-06
1.76368e-06
1.68296e-06
1.60439e-06
1.5279e-06
1.45291e-06
1.37889e-06
1.3057e-06
1.23367e-06
1.1634e-06
1.0954e-06
1.02974e-06
9.66136e-07
9.04206e-07
8.43092e-07
7.82532e-07
7.22947e-07
6.65294e-07
6.09648e-07
5.57783e-07
5.11957e-07
4.74504e-07
4.40827e-07
4.06535e-07
3.73748e-07
3.28199e-07
3.05253e-07
2.03785e-07
3.21833e-07
0.00140152
0
0
4.8438e-08
8.65069e-07
4.60415e-06
6.18785e-06
5.91389e-06
5.52828e-06
5.4464e-06
5.43675e-06
5.39272e-06
5.3323e-06
5.26364e-06
5.18568e-06
5.1021e-06
5.01142e-06
4.91404e-06
4.81116e-06
4.70331e-06
4.59194e-06
4.47735e-06
4.35919e-06
4.23892e-06
4.11848e-06
3.99834e-06
3.87937e-06
3.76123e-06
3.64276e-06
3.52485e-06
3.40828e-06
3.29326e-06
3.18022e-06
3.06907e-06
2.95975e-06
2.8526e-06
2.74763e-06
2.64518e-06
2.54512e-06
2.44756e-06
2.35228e-06
2.25932e-06
2.16899e-06
2.08116e-06
1.99553e-06
1.91223e-06
1.8313e-06
1.7529e-06
1.6766e-06
1.60201e-06
1.52929e-06
1.45833e-06
1.38861e-06
1.31974e-06
1.25164e-06
1.1846e-06
1.11913e-06
1.05567e-06
9.94234e-07
9.34604e-07
8.76358e-07
8.18707e-07
7.61538e-07
7.05237e-07
6.50772e-07
5.98128e-07
5.48929e-07
5.05427e-07
4.69958e-07
4.37904e-07
4.05019e-07
3.73416e-07
3.29542e-07
3.08547e-07
0
0
2.42526e-08
4.25236e-07
4.01356e-06
5.36338e-06
5.19591e-06
4.84499e-06
4.74268e-06
4.75136e-06
4.73724e-06
4.69795e-06
4.65011e-06
4.59418e-06
4.53107e-06
4.46174e-06
4.38578e-06
4.30422e-06
4.21779e-06
4.12734e-06
4.03361e-06
3.93704e-06
3.83813e-06
3.73775e-06
3.63806e-06
3.53989e-06
3.44256e-06
3.34548e-06
3.24839e-06
3.15206e-06
3.05685e-06
2.963e-06
2.87081e-06
2.77973e-06
2.68987e-06
2.60147e-06
2.51438e-06
2.42906e-06
2.34531e-06
2.26281e-06
2.1815e-06
2.10171e-06
2.02341e-06
1.94656e-06
1.87108e-06
1.79715e-06
1.7248e-06
1.65415e-06
1.58499e-06
1.51715e-06
1.45083e-06
1.38587e-06
1.32189e-06
1.25856e-06
1.1958e-06
1.13399e-06
1.07349e-06
1.0147e-06
9.57572e-07
9.01971e-07
8.4757e-07
7.93678e-07
7.40016e-07
6.87121e-07
6.35999e-07
5.86417e-07
5.39683e-07
4.98549e-07
4.65115e-07
4.34615e-07
4.03435e-07
0
1.36676e-08
2.73855e-07
3.46996e-06
4.69624e-06
4.54384e-06
4.23134e-06
4.13702e-06
4.15558e-06
4.16334e-06
4.14522e-06
4.11581e-06
4.07988e-06
4.03663e-06
3.98706e-06
3.93176e-06
3.87041e-06
3.80385e-06
3.73309e-06
3.65867e-06
3.58082e-06
3.49994e-06
3.41699e-06
3.33327e-06
3.25026e-06
3.16821e-06
3.08612e-06
3.00387e-06
2.92154e-06
2.83995e-06
2.75929e-06
2.67991e-06
2.6019e-06
2.52462e-06
2.44839e-06
2.37324e-06
2.29928e-06
2.22688e-06
2.15555e-06
2.08498e-06
2.01518e-06
1.94631e-06
1.87838e-06
1.81142e-06
1.74533e-06
1.68028e-06
1.61619e-06
1.55319e-06
1.49122e-06
1.43027e-06
1.37048e-06
1.31166e-06
1.25356e-06
1.19607e-06
1.13915e-06
1.08267e-06
1.02722e-06
9.73108e-07
9.2036e-07
8.68943e-07
8.18395e-07
7.67848e-07
7.17736e-07
6.68334e-07
6.20524e-07
5.74325e-07
1.94838e-08
8.42607e-08
1.79183e-06
5.46424e-06
4.19504e-06
3.81096e-06
3.81172e-06
3.79146e-06
3.80788e-06
3.79233e-06
3.765e-06
3.73296e-06
3.69493e-06
3.65137e-06
3.60255e-06
3.54884e-06
3.49076e-06
3.42856e-06
3.36334e-06
3.29508e-06
3.22416e-06
3.15105e-06
3.07705e-06
3.00326e-06
2.93042e-06
2.85817e-06
2.78577e-06
2.71328e-06
2.64102e-06
2.56966e-06
2.49943e-06
2.43043e-06
2.36258e-06
2.29554e-06
2.22943e-06
2.16442e-06
2.10076e-06
2.03853e-06
1.97699e-06
1.91582e-06
1.85533e-06
1.79598e-06
1.73742e-06
1.67912e-06
1.62146e-06
1.56448e-06
1.50798e-06
1.45218e-06
1.39714e-06
1.34289e-06
1.28949e-06
1.23682e-06
1.18488e-06
1.13315e-06
1.0812e-06
1.03008e-06
9.79711e-07
9.30325e-07
8.819e-07
8.34473e-07
7.88344e-07
7.07032e-05
1.42406e-05
2.90644e-06
5.45251e-06
3.73604e-06
3.54235e-06
3.70533e-06
3.63911e-06
3.6237e-06
3.58925e-06
3.54751e-06
3.50419e-06
3.45578e-06
3.40348e-06
3.34718e-06
3.28756e-06
3.22514e-06
3.15985e-06
3.09253e-06
3.02306e-06
2.9521e-06
2.88027e-06
2.80892e-06
2.7386e-06
2.6695e-06
2.60114e-06
2.53304e-06
2.46547e-06
2.39886e-06
2.33371e-06
2.27016e-06
2.2081e-06
2.14737e-06
2.08765e-06
2.02918e-06
1.97211e-06
1.91662e-06
1.86244e-06
1.80881e-06
1.75597e-06
1.70427e-06
1.65254e-06
1.60061e-06
1.55035e-06
1.50024e-06
1.45042e-06
1.40083e-06
1.3517e-06
1.30318e-06
1.25529e-06
1.20797e-06
1.16092e-06
1.11444e-06
1.06976e-06
0.00051968
5.57217e-08
1.02e-06
5.11461e-06
3.41296e-06
3.44235e-06
3.58765e-06
3.48175e-06
3.44835e-06
3.40365e-06
3.35195e-06
3.29961e-06
3.24306e-06
3.18392e-06
3.12204e-06
3.05806e-06
2.99206e-06
2.9243e-06
2.85508e-06
2.78474e-06
2.71393e-06
2.64353e-06
2.57427e-06
2.50644e-06
2.43996e-06
2.37419e-06
2.30923e-06
2.24537e-06
2.18308e-06
2.12269e-06
2.06418e-06
2.0074e-06
1.95206e-06
1.89806e-06
1.84572e-06
1.79507e-06
1.74623e-06
1.69856e-06
1.65116e-06
1.60289e-06
1.55665e-06
1.51743e-06
)
;

boundaryField
{
    inlet
    {
        type            calculated;
        value           nonuniform List<scalar> 
13
(
6.38505e-06
6.4667e-06
6.53796e-06
6.60144e-06
6.66226e-06
6.72408e-06
6.80505e-06
6.82647e-06
6.76242e-06
6.7251e-06
6.67211e-06
6.62497e-06
6.5864e-06
)
;
    }
    outlet
    {
        type            calculated;
        value           nonuniform List<scalar> 0();
    }
    walls
    {
        type            calculated;
        value           nonuniform List<scalar> 4(1.03288 0.980383 0.908431 0.721629);
    }
    frontAndBack
    {
        type            empty;
    }
    procBoundary2to1
    {
        type            processor;
        value           nonuniform List<scalar> 
84
(
62.498
1.67833
0.274685
0.003382
0.000254878
2.4613e-05
2.93151e-05
2.79386e-05
3.068e-05
2.67872e-05
2.68592e-05
2.53502e-05
2.45268e-05
2.33685e-05
2.22828e-05
2.11024e-05
1.99131e-05
1.87119e-05
1.75144e-05
1.63141e-05
1.51096e-05
1.39081e-05
1.27285e-05
1.15816e-05
1.04654e-05
9.38308e-06
8.35289e-06
7.39173e-06
6.50616e-06
5.70069e-06
4.98208e-06
4.36239e-06
3.85454e-06
3.46085e-06
3.17685e-06
2.99489e-06
2.89633e-06
2.85711e-06
2.85711e-06
3.6106e-06
3.49974e-06
3.40685e-06
3.32277e-06
3.23864e-06
3.15051e-06
3.05753e-06
2.95652e-06
2.84678e-06
2.73125e-06
2.6117e-06
2.48776e-06
2.35979e-06
2.23029e-06
2.23029e-06
2.16396e-06
2.02323e-06
1.88453e-06
1.74893e-06
1.61805e-06
1.49364e-06
1.37677e-06
1.26698e-06
1.16344e-06
1.16344e-06
1.0755e-06
9.78076e-07
8.84358e-07
7.9525e-07
7.11686e-07
6.35786e-07
5.71895e-07
5.21221e-07
4.76947e-07
4.33766e-07
4.33766e-07
3.95034e-07
3.52065e-07
2.97048e-07
2.25487e-07
1.7499e-07
1.85361e-07
5.07318e-07
9.7522e-07
1.88273e-06
)
;
    }
    procBoundary2to3
    {
        type            processor;
        value           nonuniform List<scalar> 
88
(
7.75144e-07
1.555e-06
1.71359e-07
7.75144e-07
7.38568e-07
2.13727e-07
1.71359e-07
3.29878e-07
3.73803e-07
3.31845e-07
2.13727e-07
3.12547e-07
5.31058e-07
4.92639e-07
4.61171e-07
4.32201e-07
3.73803e-07
4.02424e-07
7.42716e-07
6.96139e-07
6.502e-07
6.05755e-07
5.31058e-07
5.62519e-07
1.02556e-06
9.79185e-07
9.33447e-07
8.88602e-07
8.44464e-07
8.00977e-07
7.42716e-07
7.58368e-07
1.47717e-06
1.43135e-06
1.38711e-06
1.34309e-06
1.29944e-06
1.25626e-06
1.21369e-06
1.17167e-06
1.13015e-06
1.08883e-06
1.04723e-06
1.02556e-06
1.00648e-06
7.99481e-06
1.37502e-07
2.33492e-06
4.74509e-06
3.13542e-06
3.41575e-06
3.42431e-06
3.3063e-06
3.26517e-06
3.2074e-06
3.1472e-06
3.08736e-06
3.02517e-06
2.96195e-06
2.8974e-06
2.83157e-06
2.76472e-06
2.69688e-06
2.62836e-06
2.55957e-06
2.49124e-06
2.42396e-06
2.35816e-06
2.29376e-06
2.23049e-06
2.16817e-06
2.10704e-06
2.04732e-06
1.98954e-06
1.93378e-06
1.88e-06
1.82794e-06
1.77743e-06
1.72864e-06
1.68178e-06
1.63692e-06
1.59386e-06
1.55176e-06
1.51025e-06
1.46928e-06
1.42442e-06
1.47717e-06
1.38024e-06
)
;
    }
    procBoundary2to6
    {
        type            processor;
        value           nonuniform List<scalar> 
13
(
15.5589
11.6374
7.52206
4.72258
2.63136
1.12269
0.277666
0.0169347
0.00124856
0
0.000469999
0.00319779
0.00224835
)
;
    }
}


// ************************************************************************* //
