/*--------------------------------*- C++ -*----------------------------------*\
| =========                 |                                                 |
| \\      /  F ield         | OpenFOAM: The Open Source CFD Toolbox           |
|  \\    /   O peration     | Version:  2506                                  |
|   \\  /    A nd           | Website:  www.openfoam.com                      |
|    \\/     M anipulation  |                                                 |
\*---------------------------------------------------------------------------*/
FoamFile
{
    version     2.0;
    format      ascii;
    arch        "LSB;label=32;scalar=64";
    class       volVectorField;
    location    "150";
    object      momentError;
}
// * * * * * * * * * * * * * * * * * * * * * * * * * * * * * * * * * * * * * //

dimensions      [0 1 -2 0 0 0 0];

internalField   nonuniform List<vector> 
1340
(
(0.0390568 0.00500207 2.62238e-15)
(0.0456327 0.00440655 -9.62551e-16)
(0.0237372 0.00307828 -9.77478e-15)
(0.00857785 0.00490029 -2.05599e-14)
(0.0626172 0.00592006 -2.59635e-15)
(0.0609245 0.00556208 -6.67656e-16)
(0.0459835 0.00526077 2.90472e-15)
(0.0251592 0.00624262 8.25757e-15)
(0.0520549 0.0059089 -1.53523e-15)
(0.0502483 0.00553117 1.37826e-14)
(0.0409531 0.00517414 8.29701e-15)
(0.0284362 0.00649924 -9.95922e-14)
(0.0497859 0.00300162 7.63916e-15)
(0.045307 0.00444534 -1.28682e-14)
(0.039855 0.00519765 -2.61532e-14)
(0.0292616 0.00630053 -1.31179e-15)
(0.0471177 0.00759705 -4.79949e-16)
(0.0429746 0.00511612 9.21921e-15)
(0.0390167 0.00392164 -1.11144e-14)
(0.0310807 0.00703254 6.4814e-15)
(0.0473048 0.00412031 -9.41962e-15)
(0.0426685 0.00468977 3.55976e-15)
(0.0380559 0.00434798 3.98452e-14)
(0.0331005 0.00553289 2.97735e-14)
(0.046634 0.00441261 6.11265e-15)
(0.0426547 0.00434251 -2.08764e-15)
(0.037668 0.0040386 -5.20765e-16)
(0.0333249 0.00608282 -4.16687e-14)
(0.046544 0.00504521 -3.27389e-15)
(0.0429578 0.00472113 -4.79668e-15)
(0.037782 0.00416658 2.9729e-15)
(0.0336807 0.00549287 -2.18942e-14)
(0.0463371 0.00429775 -5.31931e-16)
(0.0430565 0.00426383 7.92258e-16)
(0.037957 0.00390094 -7.53671e-15)
(0.0348741 0.00457116 7.8109e-15)
(0.0460179 0.00443907 1.75625e-16)
(0.0430501 0.00427084 -2.07974e-14)
(0.0379664 0.00372737 1.74231e-15)
(0.0355259 0.00400248 1.54854e-14)
(0.0455977 0.00401737 5.89838e-16)
(0.0429221 0.00396705 1.91734e-14)
(0.03783 0.00345949 6.31465e-15)
(0.0360552 0.0034629 -6.83383e-14)
(0.0450822 0.00390135 6.57307e-15)
(0.0426832 0.00383109 -4.92738e-15)
(0.0375812 0.00323979 -2.0973e-14)
(0.0363686 0.00293129 3.92025e-14)
(0.0445083 0.00355745 -1.09338e-14)
(0.0423651 0.00355308 4.02618e-15)
(0.0372539 0.00296765 2.27327e-14)
(0.0365021 0.00243642 6.03967e-14)
(0.0438635 0.00328469 1.17943e-15)
(0.0419681 0.00329668 1.99203e-15)
(0.036875 0.00268399 -1.16705e-14)
(0.0364931 0.00195335 -6.28844e-15)
(0.0431523 0.00294379 6.92932e-16)
(0.0414893 0.00299549 -5.86282e-15)
(0.03643 0.00238334 -2.30346e-14)
(0.0363658 0.00150576 -2.38689e-14)
(0.0423633 0.00259805 -1.27189e-15)
(0.0409207 0.00267459 3.15752e-16)
(0.035914 0.00206407 1.78347e-14)
(0.0361224 0.00108422 4.59396e-14)
(0.0415198 0.00223003 2.70891e-15)
(0.0402738 0.00233268 -3.93369e-15)
(0.0353111 0.0017348 1.66461e-14)
(0.0357488 0.000688826 -1.89662e-14)
(0.040629 0.00185715 1.02764e-15)
(0.0395692 0.00197587 7.22861e-15)
(0.034657 0.00139582 2.98239e-15)
(0.0352532 0.000311738 -9.25579e-15)
(0.0397022 0.00147997 5.19472e-15)
(0.0388206 0.00160843 1.43818e-14)
(0.0339583 0.00105679 -9.19817e-15)
(0.0346583 -4.21943e-05 -3.0087e-14)
(0.0387238 0.00110542 -8.2202e-15)
(0.0380417 0.00123532 -1.64901e-14)
(0.0332323 0.000717191 -1.2388e-14)
(0.0339923 -0.000373725 1.07587e-14)
(0.0377207 0.000729374 4.78139e-15)
(0.0372087 0.000860205 3.8613e-15)
(0.0324572 0.000384083 1.87432e-14)
(0.0332581 -0.000678704 1.56965e-14)
(0.0366827 0.000362125 -1.76692e-15)
(0.0363255 0.000491561 2.72017e-15)
(0.0316473 5.94158e-05 -4.9819e-15)
(0.0324666 -0.000961031 -1.2062e-14)
(0.0356356 2.74667e-06 -6.00595e-17)
(0.0354099 0.000125044 -3.28281e-15)
(0.0308006 -0.000257917 -1.03232e-14)
(0.0316161 -0.00121986 -1.96036e-15)
(0.0345663 -0.000341843 8.15718e-17)
(0.0344556 -0.000228875 1.50336e-15)
(0.0299397 -0.000565513 1.40052e-14)
(0.0307287 -0.00146158 1.69425e-14)
(0.0334885 -0.000670915 2.23966e-15)
(0.033471 -0.000573472 -4.9371e-15)
(0.029055 -0.00086242 -4.1769e-15)
(0.029809 -0.00168384 -1.06259e-14)
(0.0323981 -0.000976556 -4.98842e-17)
(0.0324575 -0.000892578 8.33072e-15)
(0.0281515 -0.00114118 -1.1197e-14)
(0.0288665 -0.00189026 -1.86627e-14)
(0.0313256 -0.00125383 4.12403e-15)
(0.0314409 -0.00118855 -1.11674e-14)
(0.0272368 -0.00140087 -2.20114e-15)
(0.0279039 -0.00207698 2.02549e-14)
(0.0302593 -0.00150551 -8.27618e-15)
(0.0304259 -0.00145273 2.63859e-15)
(0.0263294 -0.00163501 1.32247e-15)
(0.02694 -0.0022462 -9.19031e-15)
(0.0292048 -0.00173358 6.9765e-15)
(0.029405 -0.00169178 -1.53612e-16)
(0.025419 -0.00184386 6.64914e-15)
(0.0259751 -0.00239471 1.33544e-14)
(0.0281453 -0.00194412 -7.55341e-15)
(0.0283656 -0.00190011 6.46613e-15)
(0.0245035 -0.00202396 1.9123e-15)
(0.0250093 -0.00252407 5.10926e-16)
(0.0270955 -0.00213549 -1.6373e-15)
(0.027329 -0.00208149 2.50906e-15)
(0.023584 -0.0021749 1.05604e-15)
(0.0240428 -0.00263078 -8.8515e-15)
(0.0260585 -0.00231236 7.39841e-15)
(0.0262993 -0.00223258 -1.41261e-15)
(0.022674 -0.00229448 -3.44326e-15)
(0.0230887 -0.00271372 -1.29764e-14)
(0.025034 -0.00247245 1.25794e-15)
(0.0253123 -0.00236373 -1.14706e-16)
(0.0217829 -0.00238857 1.63654e-15)
(0.022154 -0.00277116 8.04057e-15)
(0.0240141 -0.00262581 -5.95444e-15)
(0.0243205 -0.0024786 -3.40958e-15)
(0.0209036 -0.00246174 -1.53946e-15)
(0.0212408 -0.00280761 8.72184e-15)
(0.0230023 -0.00277582 3.77139e-15)
(0.0233364 -0.00258295 4.53356e-15)
(0.0200353 -0.00251998 3.43127e-15)
(0.0203471 -0.00282559 -7.59565e-15)
(0.0220035 -0.00292965 -2.79149e-15)
(0.0223684 -0.00268284 -3.66082e-15)
(0.0191911 -0.00256601 -1.99708e-15)
(0.0194857 -0.00282985 1.01406e-14)
(0.0210071 -0.00308648 -1.75925e-15)
(0.0213996 -0.00277919 2.80682e-15)
(0.0183606 -0.00260491 1.30088e-15)
(0.0186534 -0.00282727 -2.90373e-15)
(0.020008 -0.00324854 -6.99067e-16)
(0.0204254 -0.00287513 -2.87348e-15)
(0.0175335 -0.00263838 3.4928e-15)
(0.0178318 -0.00282093 -2.73461e-15)
(0.0200065 -0.00406772 4.62844e-15)
(0.0217005 -0.00345281 -2.38146e-16)
(0.01792 -0.00292633 2.02533e-15)
(0.0167427 -0.00267848 -1.39651e-15)
(0.0170535 -0.00281055 -7.82641e-15)
(0.0189746 -0.00421679 -6.07691e-15)
(0.0204702 -0.00356208 1.75799e-15)
(0.0170567 -0.00301389 1.62372e-15)
(0.0159697 -0.00272669 -1.08714e-14)
(0.0163027 -0.00279772 1.71649e-15)
(0.0178974 -0.00433376 1.38415e-15)
(0.0193715 -0.00366356 -2.95057e-16)
(0.0161954 -0.00310217 -8.38561e-16)
(0.0151869 -0.0027661 9.60624e-15)
(0.0155472 -0.00278099 6.10252e-15)
(0.0168536 -0.00441947 8.53594e-16)
(0.0183013 -0.00375252 -5.97028e-16)
(0.015352 -0.00317417 -2.0687e-15)
(0.0144203 -0.0027935 -6.25036e-17)
(0.0148069 -0.00276355 1.15993e-16)
(0.0158474 -0.00447007 -3.37261e-15)
(0.0172497 -0.00381745 -3.33602e-15)
(0.0145288 -0.00323067 -3.65539e-15)
(0.0136764 -0.00281534 -1.98376e-15)
(0.0140989 -0.00274904 -2.38033e-15)
(0.014867 -0.00448736 -1.38276e-15)
(0.016222 -0.00385856 -4.02242e-16)
(0.0137132 -0.00327519 3.22076e-15)
(0.0129387 -0.00283363 1.06803e-15)
(0.0134045 -0.00273674 -6.22043e-15)
(0.0139318 -0.00447192 -4.10807e-15)
(0.0152299 -0.00387798 3.25447e-15)
(0.0129194 -0.00330394 1.79294e-15)
(0.0122165 -0.0028436 -1.72166e-15)
(0.012721 -0.00272163 3.14667e-15)
(0.0130529 -0.00442664 1.19534e-15)
(0.0142779 -0.00387216 -1.60049e-15)
(0.0121607 -0.00331536 -5.50577e-16)
(0.0115248 -0.0028435 2.30778e-15)
(0.0120673 -0.0027013 5.42738e-15)
(0.0122109 -0.00435798 1.71017e-15)
(0.0133694 -0.00384474 -1.38213e-15)
(0.0114207 -0.00331091 -2.37217e-15)
(0.0108472 -0.00283395 -1.47104e-16)
(0.011432 -0.00267739 -4.43513e-15)
(0.0114208 -0.00427349 -5.54378e-16)
(0.0124938 -0.00379658 8.01578e-17)
(0.0106952 -0.00328953 3.0671e-15)
(0.0101764 -0.00281275 -1.91032e-15)
(0.0107987 -0.00264974 1.21135e-15)
(0.0106877 -0.00417031 -2.20441e-15)
(0.0116658 -0.00372962 1.43975e-16)
(0.00999993 -0.00324861 3.58102e-15)
(0.00952951 -0.0027779 -3.09208e-15)
(0.0101787 -0.0026163 -2.40932e-15)
(0.0100044 -0.00404367 1.65675e-15)
(0.0108794 -0.00363804 4.49854e-16)
(0.00934398 -0.00318716 7.31932e-16)
(0.00891669 -0.00273096 5.78193e-16)
(0.00958808 -0.0025777 -9.26241e-16)
(0.00935022 -0.0038973 8.41243e-16)
(0.0101465 -0.00352188 -2.19828e-15)
(0.00871843 -0.00310226 -1.87557e-15)
(0.00832931 -0.00267198 1.81463e-15)
(0.00902022 -0.0025364 4.38777e-15)
(0.00887917 -0.00373769 -1.0798e-15)
(0.00930704 -0.00339213 2.9159e-15)
(0.00811777 -0.00299626 8.7618e-17)
(0.00776438 -0.0025983 -2.10887e-15)
(0.00846298 -0.0024889 2.70784e-15)
(0.00867997 -0.0039166 -2.05046e-15)
(0.00950904 -0.00359092 3.42184e-16)
(0.00782228 -0.00321542 1.29762e-15)
(0.00755283 -0.00288708 1.28175e-16)
(0.00723642 -0.00251355 -3.40044e-15)
(0.00793069 -0.00242941 -3.05531e-15)
(0.00807458 -0.00369278 1.23205e-15)
(0.0088255 -0.00340013 2.88174e-15)
(0.0072805 -0.00306823 6.4544e-17)
(0.00703381 -0.00277875 -2.96704e-15)
(0.0067343 -0.00242062 8.82645e-16)
(0.00742099 -0.00235708 -2.34477e-15)
(0.00750517 -0.00348156 -1.7091e-15)
(0.00822277 -0.0032219 -2.206e-15)
(0.00678022 -0.00292314 9.93035e-16)
(0.00654256 -0.00265888 1.42025e-15)
(0.00625599 -0.00231752 -1.38034e-15)
(0.00693706 -0.00227448 2.53218e-16)
(0.00696298 -0.00327413 6.81167e-16)
(0.00762707 -0.00304135 -2.84345e-16)
(0.00629851 -0.00276794 6.46377e-17)
(0.00607119 -0.00252691 -1.07577e-16)
(0.00579723 -0.00220743 1.68437e-15)
(0.00647167 -0.0021851 5.63074e-16)
(0.00644422 -0.00306201 1.12726e-15)
(0.00705904 -0.00285341 6.52987e-16)
(0.00584148 -0.00260571 -2.15806e-15)
(0.00562405 -0.002389 -1.37347e-15)
(0.00536201 -0.00209319 -1.04314e-15)
(0.00602329 -0.00209095 2.41003e-16)
(0.00594898 -0.00285038 -1.33544e-15)
(0.00652467 -0.00266627 -1.82507e-15)
(0.00541092 -0.00244158 -1.07723e-15)
(0.00520415 -0.00224733 2.81409e-15)
(0.00495117 -0.00197432 3.8202e-16)
(0.00559283 -0.001991 2.83337e-16)
(0.00548736 -0.00264686 -1.64362e-16)
(0.0060147 -0.00248511 1.15957e-15)
(0.00501145 -0.00228004 -6.56873e-16)
(0.00481382 -0.00210425 -5.36291e-16)
(0.00456848 -0.00185086 3.28086e-15)
(0.00518698 -0.00188413 -1.31976e-15)
(0.00505213 -0.00245277 1.79024e-15)
(0.00557861 -0.0023078 1.35469e-15)
(0.00463968 -0.00211597 -2.37033e-15)
(0.00445135 -0.0019578 7.36067e-16)
(0.004213 -0.00172427 -9.45168e-16)
(0.00480922 -0.00177091 1.03186e-15)
(0.00474694 -0.00226757 -1.20213e-15)
(0.00502769 -0.00213383 7.73401e-16)
(0.00427876 -0.00194717 1.68814e-15)
(0.00411314 -0.00180663 -2.6479e-15)
(0.00388012 -0.00159527 1.36833e-15)
(0.00445309 -0.00165536 2.55277e-15)
(0.00434758 -0.00218359 -4.8236e-16)
(0.0050122 -0.00209748 4.21586e-16)
(0.00416737 -0.00193426 3.5909e-16)
(0.00394863 -0.0017849 -9.82683e-16)
(0.00380803 -0.00165631 1.32392e-16)
(0.00357963 -0.00146496 1.50193e-15)
(0.00413105 -0.00153924 5.42623e-17)
(0.00397725 -0.00197946 1.42221e-15)
(0.00459018 -0.00190065 1.9365e-15)
(0.00383667 -0.00176184 -1.77938e-15)
(0.00364935 -0.00163264 -1.10317e-16)
(0.00352328 -0.00151312 -6.75844e-16)
(0.00330475 -0.00133892 -7.40918e-16)
(0.00383919 -0.00142502 2.3722e-15)
(0.00363656 -0.00178423 -1.26811e-16)
(0.00420797 -0.00171773 -9.87534e-16)
(0.00353784 -0.00159828 -1.17964e-15)
(0.00337552 -0.00148365 2.54923e-15)
(0.00326393 -0.00137569 1.09927e-15)
(0.00305913 -0.00121776 -3.04437e-15)
(0.00357812 -0.00131055 -2.23813e-15)
(0.00333666 -0.001592 6.24235e-16)
(0.00385194 -0.00154121 -7.42162e-16)
(0.00326891 -0.00143936 2.14078e-16)
(0.00313133 -0.00133856 5.15911e-16)
(0.00303381 -0.00124224 -1.05883e-15)
(0.0028417 -0.00109828 -2.11658e-15)
(0.00334322 -0.00119062 2.44191e-15)
(0.00307289 -0.0014022 2.73708e-15)
(0.00359423 -0.00136704 5.69965e-17)
(0.00303356 -0.00128384 -1.79883e-15)
(0.00291469 -0.00119669 1.44703e-16)
(0.00282843 -0.0011102 1.25768e-15)
(0.00264689 -0.000977802 5.77861e-16)
(0.00313356 -0.00106659 -4.63893e-16)
(0.00284453 -0.0012118 -3.30753e-16)
(0.00331691 -0.00119541 3.1664e-16)
(0.00281667 -0.00112688 -4.85841e-16)
(0.00271183 -0.00105157 -6.98488e-16)
(0.00263376 -0.000973916 4.7312e-16)
(0.00246218 -0.000854064 -1.09907e-15)
(0.00293884 -0.000938573 1.78482e-16)
(0.00272035 -0.00107847 1.63922e-15)
(0.00323923 -0.00106763 7.86016e-16)
(0.00268168 -0.00100465 2.17309e-16)
(0.00255848 -0.000931574 6.79464e-16)
(0.00247925 -0.000858799 -5.60797e-17)
(0.0023233 -0.000751819 7.85093e-16)
(0.00280826 -0.0008321 -3.5975e-17)
(0.00255167 -0.000951743 7.28133e-16)
(0.00303651 -0.000944503 1.77246e-15)
(0.00252616 -0.00089515 -5.59204e-16)
(0.00240661 -0.000833673 -1.05727e-15)
(0.00230272 -0.00075917 5.95143e-16)
(0.00214402 -0.000659077 4.59905e-16)
(0.0026108 -0.000727454 4.30305e-16)
(0.0023978 -0.000821396 7.98343e-16)
(0.00286255 -0.000813432 -8.30742e-16)
(0.00239476 -0.00077521 -4.45191e-16)
(0.0022836 -0.000731246 7.49686e-16)
(0.00216397 -0.000666781 1.8529e-15)
(0.00199005 -0.000571242 -7.85692e-16)
(0.0024316 -0.000630346 -2.46314e-15)
(0.00231744 -0.000686249 -1.03406e-17)
(0.00260982 -0.000671566 -5.03118e-16)
(0.00226025 -0.000634575 1.23999e-17)
(0.00216849 -0.000607777 7.04882e-16)
(0.00205124 -0.000563796 -1.3385e-16)
(0.00185986 -0.000481016 -4.38926e-16)
(0.0022719 -0.000536349 5.84979e-16)
(0.00206982 -0.000574974 -1.4028e-15)
(0.00255959 -0.00056179 -8.43278e-16)
(0.00218378 -0.00052702 -5.4664e-17)
(0.00215075 -0.00050042 4.54473e-16)
(0.00208161 -0.000478099 4.28188e-16)
(0.00196514 -0.000447945 1.26209e-15)
(0.00176801 -0.000387427 -6.0627e-16)
(0.00214162 -0.000432424 -1.48573e-15)
(0.00191596 -0.00045699 1.5109e-16)
(0.00238667 -0.000434552 -3.8513e-17)
(0.00205352 -0.000403021 -4.90418e-16)
(0.00204319 -0.000377771 1.19802e-15)
(0.0019907 -0.000354203 3.70521e-16)
(0.00188343 -0.000332297 -1.23279e-15)
(0.00169576 -0.000292511 -6.18529e-16)
(0.00203754 -0.000352103 3.14701e-16)
(0.00178448 -0.000345441 -9.09661e-16)
(0.00221499 -0.000319578 4.55877e-18)
(0.0019286 -0.000284443 3.70256e-16)
(0.0019389 -0.000250156 -1.3344e-15)
(0.00190867 -0.000220217 2.63356e-15)
(0.00181961 -0.000198157 -2.95512e-16)
(0.00164536 -0.000172952 -1.11752e-15)
(0.00200581 -0.000196294 1.00827e-15)
(0.00166038 -0.000229463 5.13232e-17)
(0.00213681 -0.000212543 5.77189e-16)
(0.00180957 -0.000187662 7.24541e-16)
(0.00183649 -0.000160475 -1.05868e-15)
(0.00183193 -0.000137223 1.17204e-15)
(0.00176503 -0.000124826 -6.1705e-16)
(0.00160231 -0.000113208 -1.43496e-15)
(0.00192541 -0.000185862 1.64199e-15)
(0.00160627 2.60686e-06 1.69404e-16)
(0.00205962 3.47832e-05 6.45917e-16)
(0.00176411 6.83203e-05 1.27897e-15)
(0.00180745 0.00010506 -2.52263e-17)
(0.00182298 0.000135444 -1.8443e-15)
(0.00177589 0.00015436 5.40002e-16)
(0.00163678 0.000153691 -5.31163e-16)
(0.00207608 0.000223795 -3.5091e-16)
(0.00153408 5.58849e-05 -6.09757e-16)
(0.00198726 7.17201e-05 -9.5294e-16)
(0.00170883 8.83466e-05 2.99298e-16)
(0.00176559 0.000108888 1.44982e-15)
(0.00179901 0.000126864 2.74902e-16)
(0.00176589 0.000130963 -5.7263e-16)
(0.00162273 0.000124589 1.29389e-16)
(0.00197911 0.00010415 8.20577e-16)
(0.00161732 0.000495257 1.54884e-15)
(0.00205306 0.000563891 4.52383e-16)
(0.00181145 0.000610809 -1.27302e-15)
(0.001874 0.000659986 1.35197e-16)
(0.00191541 0.000694724 -9.07603e-16)
(0.00189903 0.00071132 -3.26681e-16)
(0.00179682 0.000688739 1.6898e-15)
(0.00240372 0.00095441 -1.10487e-16)
(0.00138934 8.16282e-05 -1.02715e-15)
(0.00179352 9.12846e-05 -4.61224e-16)
(0.00157545 9.62907e-05 9.79229e-16)
(0.00162903 0.000100737 -4.24661e-16)
(0.00165884 0.000107089 -3.53802e-16)
(0.00163154 0.000107535 1.19319e-15)
(0.00148615 0.000102832 -8.62346e-17)
(0.00174704 4.08894e-05 -8.3254e-16)
(0.00129729 0.00138243 -6.15249e-16)
(0.00148483 0.00148561 -1.22e-15)
(0.00139495 0.00157234 -6.43844e-16)
(0.00142106 0.00163703 2.30976e-15)
(0.00142619 0.00166851 -1.27419e-16)
(0.00140471 0.00166786 -6.10858e-16)
(0.00135596 0.00158138 -8.37225e-16)
(0.00186379 0.00195574 -3.2585e-15)
(0.0675575 0.00946337 -1.45734e-14)
(0.0317469 -0.015423 1.75554e-14)
(0.0371615 -0.0129539 -9.22817e-14)
(0.0426626 -0.0116573 1.63162e-14)
(0.0466719 -0.0100514 3.58227e-14)
(0.0483318 -0.00897652 -1.7198e-14)
(0.0490172 -0.00849865 -5.49708e-14)
(0.0495532 -0.00803068 3.565e-15)
(0.0500614 -0.00731905 4.7563e-15)
(0.0503782 -0.00684142 -2.47592e-14)
(0.0504431 -0.00638761 -1.25677e-14)
(0.0502809 -0.0060001 3.55857e-14)
(0.049929 -0.00563623 5.48125e-14)
(0.0494317 -0.00531644 -3.44384e-14)
(0.0488163 -0.0050206 2.14171e-14)
(0.0480815 -0.00476452 9.64251e-15)
(0.0472215 -0.00454226 -4.53348e-14)
(0.0462434 -0.0043621 3.55946e-14)
(0.0451812 -0.00421063 -4.91623e-14)
(0.0440631 -0.00409161 2.92134e-14)
(0.042903 -0.00399485 -7.75874e-15)
(0.0417027 -0.00392179 1.79079e-15)
(0.0404668 -0.00386619 1.04191e-14)
(0.039208 -0.00383108 -9.50206e-15)
(0.0379441 -0.00381033 -2.88967e-15)
(0.036678 -0.00380662 -4.11029e-15)
(0.0354131 -0.00381357 1.54734e-14)
(0.0341574 -0.0038349 -9.89005e-15)
(0.0329164 -0.00386402 1.17158e-14)
(0.03169 -0.00390091 2.08647e-15)
(0.0304823 -0.00393525 -1.33896e-14)
(0.0293007 -0.00396312 -1.17188e-14)
(0.0281519 -0.00397839 1.1349e-14)
(0.0270386 -0.00398041 8.23394e-15)
(0.0259635 -0.00396514 -2.82282e-15)
(0.024939 -0.00393747 5.70757e-15)
(0.0239072 -0.00390629 -1.6289e-15)
(0.0229318 -0.00387337 -1.13222e-14)
(0.0220174 -0.0038357 3.35501e-15)
(0.021136 -0.00379796 -1.94015e-16)
(0.0202633 -0.00376176 -7.55059e-16)
(0.0194223 -0.00372867 6.27008e-15)
(0.0186182 -0.00369927 -4.61911e-15)
(0.0178296 -0.00367196 -7.81316e-16)
(0.017059 -0.00364049 7.32631e-16)
(0.0163227 -0.00360403 5.6531e-15)
(0.015599 -0.00356756 -2.53037e-15)
(0.0148706 -0.00353284 5.34881e-15)
(0.0141548 -0.00349453 -1.00258e-15)
(0.0134695 -0.0034508 1.42227e-15)
(0.0127938 -0.00340611 1.3567e-15)
(0.0121251 -0.00335989 2.78227e-16)
(0.0114766 -0.0033055 1.47618e-15)
(0.0108517 -0.00323778 1.79566e-15)
(0.0102525 -0.00315453 -1.00574e-15)
(0.00966437 -0.00305781 -3.55586e-16)
(0.00908378 -0.00295294 -1.31846e-15)
(0.0085158 -0.00284156 1.92119e-15)
(0.0079763 -0.00271857 -3.82193e-15)
(0.00747083 -0.00258307 1.19076e-15)
(0.00699823 -0.00244081 -4.5212e-15)
(0.00657083 -0.00229734 -1.95326e-15)
(0.00617935 -0.00215487 1.64148e-16)
(0.00582254 -0.00200446 2.94063e-15)
(0.00549918 -0.00184126 3.37515e-15)
(0.00521645 -0.00166939 -7.42788e-16)
(0.00496518 -0.00148236 -2.85608e-15)
(0.00487114 -0.00134666 -1.30793e-15)
(0.00461664 -0.0011903 1.81426e-15)
(0.00438712 -0.00104649 5.12399e-15)
(0.00418098 -0.000903575 -2.32126e-15)
(0.00401323 -0.000734631 1.96565e-15)
(0.00383992 -0.00061555 -1.64955e-15)
(0.00380367 -0.000303636 -6.81428e-16)
(0.00362922 -0.000338808 -7.82249e-16)
(0.00403099 0.000532873 3.70321e-15)
(0.00383753 0.000134097 -3.86569e-16)
(0.00480164 0.00195251 2.21592e-16)
(0.00340494 -4.18795e-06 8.73429e-16)
(0.00363876 0.00384473 9.4945e-15)
(0.094087 -0.00994116 3.83145e-15)
(0.0601235 -0.0173708 -4.2427e-15)
(0.0589387 -0.0153487 1.86274e-14)
(0.0623748 -0.0164218 -3.89312e-15)
(0.0634031 -0.016326 -5.9825e-15)
(0.061962 -0.0162373 1.87479e-15)
(0.0606409 -0.0159884 1.01544e-14)
(0.0596954 -0.0149518 -6.20262e-16)
(0.0588122 -0.0141959 -7.27617e-16)
(0.0578946 -0.0134154 3.43975e-15)
(0.0569103 -0.0126381 3.75437e-15)
(0.0558747 -0.0118589 -7.36675e-15)
(0.0548099 -0.0110826 -9.7807e-15)
(0.0537229 -0.0103228 6.14211e-15)
(0.0526038 -0.00958857 -3.40919e-15)
(0.0514266 -0.00889418 -2.42947e-15)
(0.0501891 -0.00824173 7.65004e-15)
(0.0488989 -0.00763921 -5.98048e-15)
(0.0475776 -0.00708448 8.85389e-15)
(0.046237 -0.00658369 -5.61641e-15)
(0.0448794 -0.0061343 9.91532e-16)
(0.0434985 -0.00573826 -1.83678e-16)
(0.0421022 -0.00539111 -1.38724e-15)
(0.0407004 -0.00509287 8.44892e-16)
(0.0393057 -0.00483921 8.42515e-16)
(0.0379155 -0.00463119 1.35056e-15)
(0.0365324 -0.00446464 -3.11467e-15)
(0.0351601 -0.00434013 2.03852e-15)
(0.0338036 -0.00425196 -2.51793e-15)
(0.0324654 -0.00419629 -1.29022e-16)
(0.0311515 -0.00416334 2.1924e-15)
(0.0298637 -0.00414601 2.29866e-15)
(0.0286099 -0.00413688 -2.47515e-15)
(0.0273959 -0.00412933 -1.2207e-15)
(0.0262246 -0.00411567 1.23475e-15)
(0.0251067 -0.00409469 -1.2882e-15)
(0.0240169 -0.00407082 1.40329e-16)
(0.0228274 -0.00404586 1.78491e-15)
(0.0218042 -0.00402089 -3.84824e-16)
(0.0208505 -0.00399984 4.22113e-16)
(0.0199273 -0.00397824 5.97324e-16)
(0.0190486 -0.00395326 -1.83761e-15)
(0.0182083 -0.00392461 8.92897e-16)
(0.0173901 -0.00389237 4.29079e-16)
(0.0166049 -0.00385115 -1.06649e-15)
(0.0158614 -0.00380188 -7.57253e-16)
(0.015133 -0.00374893 8.22813e-17)
(0.0144091 -0.00369466 -1.97712e-16)
(0.0137093 -0.00363504 -3.46133e-16)
(0.0130445 -0.00356849 6.23974e-16)
(0.0123956 -0.00349871 -6.518e-16)
(0.0117146 -0.00342558 1.15979e-15)
(0.0110939 -0.00334836 2.48914e-16)
(0.0104995 -0.00326256 -1.38676e-16)
(0.00992583 -0.00316321 4.11148e-16)
(0.0093591 -0.00305119 8.98712e-16)
(0.00879879 -0.00293247 2.01395e-16)
(0.0082513 -0.00281133 1.26519e-16)
(0.00773174 -0.00268363 1.80969e-15)
(0.00724631 -0.00254679 -1.36385e-15)
(0.00677932 -0.00240317 -7.50045e-16)
(0.00636584 -0.00225631 -1.4331e-15)
(0.00598349 -0.00210852 -9.36508e-16)
(0.00563262 -0.00195416 -2.65549e-15)
(0.00531791 -0.00179184 -7.9258e-16)
(0.00504642 -0.00162486 -2.00509e-16)
(0.00480954 -0.0014435 6.484e-16)
(0.00472921 -0.00131212 4.97324e-16)
(0.00447891 -0.00115893 -8.84185e-16)
(0.00426034 -0.00101239 -2.85332e-16)
(0.00405793 -0.000861087 8.35603e-16)
(0.00388879 -0.000687223 -3.27332e-16)
(0.00371449 -0.000554085 -4.92733e-16)
(0.00363647 -0.000265697 7.73984e-16)
(0.00350754 -0.000243768 5.71165e-17)
(0.00374816 0.000493403 -5.21071e-16)
(0.00372841 0.000192382 1.13784e-15)
(0.00431275 0.00173311 -2.27976e-16)
(0.00340857 0.000182837 -1.48787e-16)
(0.00307711 0.00366089 4.0072e-16)
(0.098876 -0.00586027 -1.09642e-16)
(0.0786514 -0.0038083 -6.66976e-17)
(0.0743595 -0.00227213 -8.83481e-17)
(0.0761897 -0.00249544 1.06405e-16)
(0.0748893 -0.00253746 -2.55066e-16)
(0.0726025 -0.00267239 -1.76492e-16)
(0.070723 -0.00300657 1.56118e-17)
(0.0690055 -0.003547 -2.0154e-16)
(0.0672613 -0.00393625 -2.28732e-16)
(0.0654411 -0.00428506 1.01463e-16)
(0.0635598 -0.00457326 -2.52117e-16)
(0.0616604 -0.00479325 -2.10653e-16)
(0.0597716 -0.00495854 1.80692e-16)
(0.0578957 -0.00506716 3.50368e-16)
(0.0560217 -0.00513154 -1.97238e-16)
(0.0541326 -0.00515543 1.91732e-16)
(0.0522408 -0.00514699 1.0491e-16)
(0.0503682 -0.00510874 -1.43795e-17)
(0.0485369 -0.00504979 -3.58184e-17)
(0.0467484 -0.0049716 1.37942e-16)
(0.0449992 -0.00488025 6.8957e-16)
(0.0432823 -0.00477881 -3.54119e-17)
(0.0416101 -0.00467315 1.90303e-16)
(0.0399856 -0.00456347 8.09392e-17)
(0.0384122 -0.00445484 -1.11369e-16)
(0.0368799 -0.00435259 -1.8005e-16)
(0.0353877 -0.00426308 -4.73739e-16)
(0.0339343 -0.00419084 -9.92207e-18)
(0.0325228 -0.00413786 9.96561e-19)
(0.031151 -0.00410423 1.76231e-16)
(0.0298196 -0.00408711 2.27605e-16)
(0.0285245 -0.00408402 -1.05231e-15)
(0.0272712 -0.00409052 -1.18615e-15)
(0.0260649 -0.00410085 -5.86925e-16)
(0.0249048 -0.00410749 2.26908e-16)
(0.0237965 -0.00410728 6.42944e-16)
(0.0227354 -0.00410096 1.50908e-18)
(0.0216362 -0.00408898 1.44384e-16)
(0.020653 -0.00407374 4.69243e-16)
(0.0197211 -0.00405937 4.802e-16)
(0.0188237 -0.00404076 4.21043e-17)
(0.0179725 -0.00401462 -2.25357e-16)
(0.0171576 -0.00398126 -1.54832e-16)
(0.0163704 -0.00394205 -7.60005e-16)
(0.0156249 -0.00389057 -1.33941e-15)
(0.0149211 -0.00382692 -6.62592e-16)
(0.0142342 -0.00375546 -2.54701e-16)
(0.0135601 -0.00368032 8.98556e-16)
(0.0129184 -0.00359971 1.32279e-15)
(0.0123128 -0.00351409 -3.12431e-17)
(0.0117254 -0.00342679 4.0977e-16)
(0.0111209 -0.00333751 -1.48223e-15)
(0.0105636 -0.00324456 -1.1531e-15)
(0.0100257 -0.00314315 1.56928e-16)
(0.00950015 -0.00302908 -8.25013e-16)
(0.00897705 -0.00290466 -2.58101e-16)
(0.00845855 -0.00277726 -2.90554e-16)
(0.00795137 -0.00265221 5.82834e-16)
(0.00746735 -0.00252637 2.86804e-15)
(0.00701162 -0.00239688 5.28864e-16)
(0.00657392 -0.00226333 3.19229e-15)
(0.00617965 -0.00212526 1.3608e-16)
(0.00581084 -0.00198254 3.32323e-16)
(0.00547205 -0.00183195 -1.42842e-15)
(0.00517118 -0.00167589 -2.3507e-16)
(0.00491507 -0.00151838 7.99306e-16)
(0.00469552 -0.0013486 -3.19116e-16)
(0.00462696 -0.00122519 6.0717e-16)
(0.00438488 -0.0010764 -2.07965e-16)
(0.00418023 -0.000928769 -6.54075e-16)
(0.003989 -0.000777069 -9.02708e-16)
(0.00381684 -0.000606759 4.72367e-16)
(0.00364338 -0.000478717 1.57821e-15)
(0.00353148 -0.000208493 -1.53077e-15)
(0.00344372 -0.000186752 5.74779e-17)
(0.00357459 0.000482036 -9.92199e-17)
(0.0036709 0.00020168 -2.55143e-15)
(0.00405272 0.00171392 2.00394e-15)
(0.00338314 0.000248973 -1.98823e-17)
(0.00276315 0.00363918 -3.43954e-15)
(0.0975654 -0.000151566 2.19425e-17)
(0.0776191 0.000405218 -3.55857e-17)
(0.0718966 0.00027891 1.12878e-18)
(0.0717205 5.96448e-05 -6.26835e-17)
(0.0694426 -2.0254e-05 2.86309e-17)
(0.0674975 -0.000206236 1.71085e-17)
(0.0660038 -0.000373629 -1.65669e-17)
(0.0646071 -0.000573937 -1.53557e-17)
(0.0631295 -0.000783523 -1.50092e-16)
(0.0615895 -0.000985286 -7.13129e-18)
(0.0600068 -0.00117586 1.31895e-16)
(0.0584101 -0.00135915 -1.35766e-17)
(0.056807 -0.00154662 5.3184e-17)
(0.0551851 -0.00172973 -1.1807e-17)
(0.0535285 -0.00191725 2.53027e-18)
(0.0518308 -0.00210266 -1.76775e-16)
(0.0501152 -0.00229084 -3.3443e-16)
(0.048402 -0.00247119 -3.38524e-16)
(0.0467097 -0.0026485 1.6637e-16)
(0.0450364 -0.00281475 -2.97747e-17)
(0.0433795 -0.00297269 4.97892e-16)
(0.0417398 -0.0031146 -1.22192e-16)
(0.0401367 -0.00324268 -3.53422e-16)
(0.0385747 -0.00335025 2.76786e-16)
(0.0370507 -0.00344031 -5.08958e-17)
(0.0355584 -0.00351277 4.58385e-18)
(0.0341037 -0.00357422 -1.2007e-16)
(0.0326892 -0.00362631 -2.49825e-17)
(0.0313194 -0.00367454 4.27199e-17)
(0.0299909 -0.00372048 9.09406e-17)
(0.0287031 -0.00376739 4.30744e-16)
(0.0274517 -0.0038152 4.86159e-17)
(0.0262442 -0.00386366 3.07277e-16)
(0.025084 -0.00391011 -1.93226e-16)
(0.0239665 -0.0039508 7.65648e-18)
(0.0228939 -0.00398293 7.49131e-17)
(0.0218729 -0.00400576 -4.89205e-16)
(0.0208481 -0.00401697 -1.85735e-16)
(0.0199045 -0.00401785 4.00901e-16)
(0.019 -0.00401192 -6.72954e-17)
(0.01813 -0.00399591 -1.69772e-16)
(0.0173016 -0.00397016 4.69946e-16)
(0.0165059 -0.00393734 6.01543e-16)
(0.0157401 -0.00389803 7.30715e-16)
(0.0150176 -0.00384526 3.90782e-16)
(0.0143329 -0.0037781 1.80638e-16)
(0.013666 -0.00369982 8.85808e-16)
(0.0130188 -0.00361441 -1.78657e-16)
(0.0124088 -0.00352267 -1.76152e-16)
(0.011833 -0.00342759 -1.54145e-15)
(0.0112747 -0.00333253 2.86458e-16)
(0.0107105 -0.00323465 1.76639e-15)
(0.0101847 -0.00313011 -1.61381e-15)
(0.00967562 -0.00301487 -2.54287e-16)
(0.00917824 -0.00288787 2.40093e-16)
(0.00868441 -0.0027533 -7.59597e-16)
(0.00819855 -0.00261832 2.80786e-16)
(0.00772539 -0.00248826 -1.4122e-15)
(0.00727201 -0.00236078 -1.63632e-15)
(0.00683955 -0.00223494 -1.48105e-16)
(0.00642062 -0.00210909 -1.63806e-15)
(0.00603488 -0.00197906 4.77644e-17)
(0.0056714 -0.00184295 -3.7634e-16)
(0.00534039 -0.00169882 3.84525e-15)
(0.00505131 -0.00155102 6.13456e-16)
(0.00480823 -0.00140377 -8.03487e-17)
(0.00460103 -0.0012468 5.50172e-16)
(0.00453949 -0.00113286 -2.94268e-16)
(0.00430329 -0.000989608 6.9104e-16)
(0.00410906 -0.000841702 1.98167e-15)
(0.00393031 -0.000689077 1.59647e-15)
(0.00376525 -0.000521527 1.19476e-15)
(0.00360299 -0.000396643 4.04091e-16)
(0.00348644 -0.000143833 4.47706e-17)
(0.0034135 -0.000125702 -2.07696e-18)
(0.00352469 0.000501748 5.16443e-16)
(0.00360752 0.000224386 -4.00413e-15)
(0.00401337 0.00174339 -3.33727e-15)
(0.00328702 0.000280856 5.87592e-17)
(0.00269084 0.00361202 5.61569e-16)
(0.0832381 -4.82142e-05 8.51127e-17)
(0.0698796 0.000263262 4.42602e-17)
(0.0671791 0.000388661 -5.22137e-18)
(0.0654076 0.000137482 -3.22549e-17)
(0.0632447 -0.00042166 -3.17386e-16)
(0.0616462 -0.000686673 -8.31887e-17)
(0.0603707 -0.00101565 1.32827e-16)
(0.0590531 -0.00135808 -1.0283e-17)
(0.0576729 -0.00164387 6.00084e-17)
(0.0562667 -0.00188789 -8.39481e-17)
(0.054852 -0.00209055 -3.33154e-16)
(0.0534463 -0.00226318 -1.2039e-16)
(0.0520413 -0.00241132 1.61993e-16)
(0.0506213 -0.00253452 3.77952e-17)
(0.0491735 -0.0026429 -2.39644e-16)
(0.0477034 -0.00273503 -7.2304e-17)
(0.0462327 -0.00282082 5.91062e-17)
(0.0447772 -0.00289704 2.18189e-16)
(0.0433403 -0.00297189 -2.92494e-17)
(0.041916 -0.00304353 -9.89633e-17)
(0.0404992 -0.00311905 -4.85579e-17)
(0.0390962 -0.00319202 -1.44236e-16)
(0.037718 -0.0032645 -4.5061e-16)
(0.0363646 -0.00333058 -5.56865e-18)
(0.0350272 -0.00339318 -2.01774e-16)
(0.0337039 -0.00344812 -1.45307e-16)
(0.032404 -0.00349878 1.39296e-16)
(0.0311331 -0.00354292 -2.23807e-16)
(0.0298944 -0.00358567 -2.20079e-16)
(0.028684 -0.00362652 -3.34031e-16)
(0.0275021 -0.00366967 -4.44859e-16)
(0.0263477 -0.00371368 3.62247e-16)
(0.0252298 -0.00375957 2.61171e-16)
(0.0241506 -0.00380521 -3.1725e-17)
(0.0231042 -0.00384855 7.42753e-16)
(0.0220925 -0.00388614 -2.63759e-16)
(0.0211263 -0.00391597 -1.01499e-15)
(0.0201706 -0.00393349 2.71812e-16)
(0.0192698 -0.00393834 -8.91294e-16)
(0.0183976 -0.00393192 1.1719e-16)
(0.0175574 -0.00391284 -3.00584e-16)
(0.0167534 -0.00388468 -4.69671e-16)
(0.0159786 -0.00385105 -2.14985e-16)
(0.015235 -0.00381127 1.87991e-18)
(0.0145313 -0.00375872 7.58799e-16)
(0.0138591 -0.0036923 4.79496e-17)
(0.0132041 -0.00361347 -3.16052e-16)
(0.0125742 -0.00352462 -4.35449e-16)
(0.011983 -0.00342791 -4.59047e-16)
(0.0114218 -0.00332821 -1.90375e-16)
(0.0108751 -0.00322892 -2.6454e-16)
(0.0103288 -0.00312574 -1.63373e-15)
(0.00981543 -0.00301383 1.77401e-16)
(0.00931867 -0.00289067 9.35282e-17)
(0.00883618 -0.00275737 3.89729e-16)
(0.00836255 -0.00261886 1.62431e-15)
(0.00790198 -0.00248038 1.55071e-15)