/*--------------------------------*- C++ -*----------------------------------*\
| =========                 |                                                 |
| \\      /  F ield         | OpenFOAM: The Open Source CFD Toolbox           |
|  \\    /   O peration     | Version:  2506                                  |
|   \\  /    A nd           | Website:  www.openfoam.com                      |
|    \\/     M anipulation  |                                                 |
\*---------------------------------------------------------------------------*/
FoamFile
{
    version     2.0;
    format      ascii;
    arch        "LSB;label=32;scalar=64";
    class       volScalarField;
    location    "150";
    object      p;
}
// * * * * * * * * * * * * * * * * * * * * * * * * * * * * * * * * * * * * * //

dimensions      [0 2 -2 0 0 0 0];

internalField   nonuniform List<scalar> 
1340
(
4.26279
12.9141
27.3797
51.8447
5.18528
13.701
28.0896
51.5836
5.91284
14.337
28.5861
51.1748
6.60368
14.9274
28.9979
50.7191
7.36423
15.5914
29.4444
50.2534
8.23103
16.2976
29.8726
49.7445
8.97129
16.9088
30.2011
49.1587
9.85855
17.6194
30.5582
48.572
10.679
18.2604
30.8283
47.9221
11.5595
18.9338
31.081
47.2421
12.4297
19.5827
31.2827
46.5249
13.3214
20.2309
31.4488
45.7767
14.2157
20.8642
31.5737
44.9996
15.1175
21.4859
31.662
44.1982
16.0207
22.0915
31.7139
43.3762
16.9235
22.6801
31.7322
42.5379
17.8223
23.2495
31.719
41.6875
18.7137
23.7981
31.6771
40.8303
19.5944
24.3247
31.6093
39.9708
20.4604
24.8275
31.5183
39.1139
21.3084
25.3056
31.4075
38.2643
22.134
25.7576
31.2793
37.4269
22.9338
26.183
31.1368
36.6059
23.7035
26.5804
30.9823
35.8056
24.4394
26.9493
30.8185
35.0297
25.1374
27.2884
30.6471
34.2812
25.7938
27.5973
30.4698
33.563
26.4046
27.8745
30.2878
32.8767
26.9663
28.1195
30.102
32.2238
27.4752
28.3308
29.9125
31.6043
27.9285
28.5075
29.7193
31.0182
28.3228
28.6479
29.5216
30.4642
28.6557
28.751
29.3186
29.9408
28.9249
28.8152
29.1086
29.4451
29.1289
28.8392
28.89
28.9745
29.2661
28.8215
28.6606
28.5253
29.336
28.7614
28.4184
28.0939
29.3385
28.6576
28.1608
27.6761
30.2493
29.2742
28.5098
27.8858
27.2681
30.1336
29.1441
28.3164
27.5909
26.8654
29.9403
28.9495
28.0778
27.2745
26.4645
29.673
28.6927
27.7944
26.9346
26.0613
29.3362
28.3767
27.467
26.5699
25.6524
28.9349
28.0044
27.0967
26.1792
25.2346
28.4743
27.5797
26.6852
25.7621
24.8056
27.9599
27.1065
26.2345
25.3183
24.3629
27.3975
26.589
25.7471
24.8483
23.9052
26.7927
26.0317
25.2256
24.3527
23.4312
26.1513
25.4391
24.6732
23.8328
22.9405
25.4789
24.8158
24.093
23.2902
22.4329
24.7807
24.1664
23.4883
22.7267
21.909
24.0619
23.4956
22.8624
22.1444
21.3696
23.791
23.3274
22.8077
22.2189
21.5456
20.816
23.0018
22.5816
22.1058
21.5611
20.9331
20.2495
22.2087
21.8284
21.3941
20.8926
20.3095
19.672
21.4154
21.0721
20.6768
20.2166
19.6773
19.0854
20.6256
20.316
19.9571
19.5361
19.0391
18.4916
19.8419
19.5632
19.238
18.854
18.3975
17.8929
19.0673
18.8167
18.5227
18.1732
17.755
17.2913
18.3039
18.079
17.8135
17.4961
17.114
16.689
17.5541
17.3525
17.1129
16.825
16.4765
16.088
16.9709
16.8194
16.6394
16.4228
16.1619
15.8449
15.4904
16.236
16.1013
15.9401
15.745
15.509
15.2209
14.8982
15.5208
15.4008
15.2566
15.0811
14.868
14.6066
14.3133
14.826
14.7194
14.5905
14.4329
14.2408
14.0037
13.7377
14.1522
14.0576
13.9427
13.8015
13.6284
13.4138
13.1727
13.5008
13.4172
13.315
13.1886
13.0329
12.8387
12.6205
12.9715
12.8955
12.802
12.6855
12.5415
12.3611
12.1584
12.5302
12.4594
12.3717
12.2619
12.1258
11.9544
11.7621
12.0771
12.0114
11.9295
11.8266
11.6983
11.5362
11.3543
11.6138
11.5537
11.4777
11.3818
11.2619
11.1093
10.9378
11.1838
11.1426
11.0883
11.0179
10.929
10.8176
10.6749
10.5141
10.7051
10.6696
10.621
10.5569
10.4752
10.3722
10.2388
10.0872
10.2162
10.1874
10.1465
10.0911
10.0193
9.92759
9.80817
9.67562
9.74489
9.7182
9.67945
9.62653
9.55828
9.471
9.35265
9.20774
9.28561
9.28242
9.26679
9.23593
9.18925
9.12747
9.05228
8.9958
8.64389
8.61773
8.5848
8.54345
8.49058
8.41354
8.27813
8.04389
8.96882
9.00926
9.02845
9.02657
9.01181
9.00822
9.06731
9.29506
6.04941
6.03935
6.03739
6.03747
6.02294
5.9428
5.69183
5.09935
12.1988
12.2701
12.3105
12.335
12.3752
12.511
12.8628
13.6306
107.405
104.111
100.466
96.6251
92.6877
88.744
84.8611
81.0909
77.415
73.8638
70.4365
67.1449
63.9951
60.9934
58.1437
55.4489
52.9095
50.5258
48.2954
46.215
44.2802
42.4853
40.8241
39.2896
37.8745
36.5712
35.3722
34.2698
33.2568
32.3257
31.47
30.6828
29.9575
29.2877
28.6675
28.0905
27.5512
27.0436
26.5622
26.1014
25.6562
25.2217
24.7934
24.3671
23.9391
23.5063
23.0659
22.6157
22.1541
21.68
21.1929
20.6926
20.1795
19.6541
19.1177
18.5715
18.0172
17.4565
16.8913
16.3234
15.7548
15.1875
14.6233
14.0641
13.512
12.9683
12.4359
11.9875
11.6005
11.2027
10.7959
10.3822
9.96244
9.56935
9.0829
8.95646
7.84222
9.46292
4.69836
13.9586
46.434
46.5922
46.9733
47.3063
47.5712
47.7369
47.7925
47.7311
47.5499
47.2584
46.8567
46.353
45.7538
45.0674
44.3033
43.4719
42.5838
41.6504
40.6834
39.6943
38.6944
37.6938
36.7024
35.7288
34.7804
33.8631
32.9818
32.1399
31.3396
30.5818
29.8668
29.1935
28.5604
27.965
27.405
26.877
26.3778
25.9037
25.4512
25.0163
24.5954
24.1848
23.7809
23.3802
22.9796
22.5761
22.1672
21.7508
21.325
20.8885
20.4404
19.9803
19.5079
19.0237
18.5283
18.0228
17.5081
16.9859
16.4576
15.925
15.3899
14.8542
14.3198
13.7884
13.2622
12.7424
12.2321
11.8016
11.4294
11.046
10.6531
10.2534
9.84625
9.46811
8.99117
8.88025
7.78565
9.36085
4.78608
13.634
27.1532
27.2778
27.4081
27.5288
27.6728
27.8368
28.0239
28.2288
28.449
28.6787
28.9103
29.1383
29.3548
29.5535
29.7277
29.8713
29.9789
30.0457
30.0682
30.0442
29.9723
29.8525
29.6862
29.4759
29.2252
28.9381
28.6198
28.2755
27.9106
27.5304
27.1401
26.744
26.3461
25.9495
25.5567
25.1694
24.7886
24.4145
24.047
23.6853
23.3284
22.9745
22.6223
22.2695
21.9144
21.555
21.1894
20.8161
20.4334
20.0403
19.6358
19.2195
18.791
18.3505
17.8984
17.4353
16.9621
16.4801
15.9905
15.4951
14.9953
14.4931
13.9903
13.4886
12.99
12.4958
12.0094
11.5982
11.2422
10.8748
10.4973
10.113
9.72015
9.35642
8.89538
8.78511
7.74656
9.2077
4.92478
13.2576
26.0969
26.2042
26.2878
26.3522
26.4012
26.4328
26.4498
26.4521
26.4426
26.4217
26.3919
26.3548
26.312
26.265
26.2151
26.1628
26.1088
26.0526
25.9938
25.9313
25.8636
25.7891
25.7057
25.6115
25.5048
25.3837
25.2472
25.0944
24.9251
24.7394
24.5381
24.3224
24.0936
23.8535
23.6038
23.3461
23.0818
22.8122
22.5383
22.2605
21.9791
21.6939
21.4044
21.11
20.8096
20.5023
20.1869
19.8622
19.5273
19.1812
18.8232
18.4527
18.0696
17.6739
17.2656
16.8453
16.4138
15.9719
15.5211
15.0627
14.5983
14.1295
13.6582
13.186
12.7148
12.2461
11.7835
11.3911
11.0507
10.6987
10.3362
9.96682
9.58797
9.23785
8.79135
8.6852
7.68591
9.08442
4.96799
13.0149
22.4221
22.5353
22.6494
22.7615
22.8707
22.9762
23.0769
23.171
23.2575
23.3344
23.4008
23.4554
23.4973
23.5257
23.5403
23.5409
23.5277
23.5012
23.462
23.4109
23.3491
23.2775
23.1973
23.1093
23.0143
22.9129
22.8053
22.6918
22.5721
22.4461
22.3136
22.174
22.0272
21.8727
21.7106
21.5406
21.363
21.1775
20.9844
20.7837
20.5753
20.3591
20.1349
19.9022
19.6607
19.4095
19.148
18.8755
18.5913
18.2947
17.9852
17.6623
17.3259
16.9758
16.6122
16.2354
15.846
15.4451
15.0335
14.6127
14.1842
13.7495
13.3103
12.8682
12.4252
11.9828
11.5446
11.1715
10.847
10.5108
10.1638
9.80953
9.44512
9.10869
8.67684
8.57723
7.60785
8.96969
4.95979
12.8167
17.8379
17.9314
18.0311
18.1318
18.236
18.3437
18.4546
18.5685
18.6851
18.8037
18.9239
19.0448
19.1655
19.2849
19.4019
19.5152
19.6235
19.7253
19.8195
19.9048
19.9801
20.0445
20.0973
20.1379
20.1662
20.1821
20.1856
20.1771
20.157
20.1258
20.0839
20.0316
19.9695
19.8976
19.8163
19.7256
19.6255
19.5159
19.3967
19.2676
19.1287
18.9794
18.8196
18.6489
18.4669
18.2732
18.0672
17.8485
17.6164
17.3707
17.1107
16.8364
16.5474
16.2437
15.9254
15.5928
15.2465
14.8872
14.5159
14.1337
13.7421
13.3425
12.9365
12.5257
12.1122
11.6974
11.285
10.9323
10.6249
10.3056
9.97511
9.6371
9.28837
8.9664
8.55086
8.45692
7.52137
8.83853
14.7513
14.8387
14.9323
15.0267
15.1245
15.2249
15.328
15.4337
15.542
15.6526
15.7657
15.8811
15.9986
16.1179
16.239
16.3614
16.4848
16.6085
16.732
16.8546
16.9754
17.0934
17.2077
17.3171
17.4205
17.5167
17.6048
17.6838
17.7528
17.8111
17.8581
17.8934
17.9169
17.9283
17.9277
17.9149
17.89
17.853
17.804
17.7428
17.6695
17.5837
17.4853
17.3742
17.2499
17.1122
16.9606
16.7949
16.6146
16.4192
16.2087
15.9826
15.7408
15.4834
15.2104
14.9221
14.619
14.3017
13.971
13.628
13.2739
12.9101
12.5381
12.1597
11.7768
11.3906
11.0049
10.6738
10.3842
10.0827
9.76982
9.44897
9.1171
8.81025
8.41301
8.32304
12.6314
12.7146
12.8036
12.8944
12.9889
13.0863
13.1867
13.2899
13.3958
13.5043
13.6151
13.7282
13.8432
13.9599
14.078
14.1975
14.3178
14.4389
14.5603
14.6819
14.8032
14.9239
15.0434
15.1615
15.2775
15.3908
15.5006
15.6064
15.7072
15.8021
15.8903
15.971
16.0433
16.1063
16.1595
16.2021
16.2336
16.2535
16.2613
16.2566
16.2393
16.2088
16.1649
16.1073
16.0357
15.9498
15.8491
15.7334
15.6022
15.4553
15.2922
15.1129
14.9172
14.7049
14.4762
14.2314
13.9709
13.6951
13.4049
13.1009
12.7845
12.4567
12.1193
11.7737
11.4217
11.0648
10.7067
10.3975
10.1264
9.84329
9.54856
9.24564
8.93149
8.64021
10.9451
11.0208
11.101
11.1831
11.2683
11.3565
11.4476
11.5419
11.6391
11.7395
11.8428
11.9492
12.0582
12.1702
12.2845
12.4013
12.52
12.6406
12.7626
12.8858
13.0096
13.1339
13.258
13.3817
13.5044
13.6258
13.7452
13.8621
13.9761
14.0866
14.1928
14.2943
14.3902
14.4799
14.5627
14.6377
14.7042
14.7615
14.8087
14.8453
14.8704
14.8835
14.884
14.8713
14.8449
14.8042
14.7488
14.6783
14.5921
14.49
14.3714
14.2362
14.0841
13.915
13.729
13.5262
13.307
13.0718
12.8211
12.5557
12.2764
11.9846
11.6816
11.3689
11.0483
10.7211
10.3909
10.1042
9.85182
9.58752
9.31147
9.54416
9.60978
9.67955
9.75166
9.82681
9.90492
9.98592
10.07
10.157
10.2471
10.3402
10.4364
10.5355
10.6378
10.7429
10.851
10.9618
11.0754
11.1914
11.3099
11.4303
11.5526
11.6763
11.8012
11.9267
12.0526
12.1782
12.303
12.4266
12.5483
12.6674
12.7835
12.8958
13.0037
13.1065
13.2035
13.294
13.3773
13.4525
13.5188
13.5756
13.6219
13.6571
13.6804
13.6911
13.6885
13.6719
13.6408
13.5945
13.5325
13.4544
13.3596
13.248
13.1193
12.9735
12.8106
12.6309
12.4347
12.2223
11.9943
11.7516
11.4951
11.2262
10.9463
10.6571
10.3596
8.45166
8.50518
8.56202
8.62098
8.68276
8.74725
8.81461
8.88487
8.95812
9.03441
9.11381
9.19635
9.28207
9.371
9.46315
9.55854
9.65711
9.75885
9.86368
9.97154
10.0823
10.1957
10.3118
10.4301
10.5505
10.6727
10.7962
10.9206
11.0456
11.1706
11.2949
11.4181
11.5394
11.6582
11.7739
11.8856
11.9926
12.0942
12.1895
12.2778
12.3582
12.4298
12.4918
12.5435
12.584
12.6125
12.6282
12.6304
12.6184
12.5915
12.5491
12.4907
12.4158
12.324
12.2154
12.0897
11.9471
11.7877
11.6118
11.4198
11.2121
7.42569
7.47331
7.52393
7.57658
7.63188
7.68967
7.75021
7.8134
7.87948
7.94835
8.02024
8.09505
8.17298
8.25393
8.33806
8.42531
8.51577
8.60936
8.70616
8.80607
8.90908
9.01508
9.124
9.23568
9.34997
9.46663
9.58543
9.70606
9.8282
9.95146
10.0754
10.1995
10.3233
10.4461
10.5675
10.6866
10.8028
10.9153
11.0234
11.1262
11.2228
11.3123
11.3942
11.4673
11.5309
11.584
11.6259
11.6555
11.6722
11.675
11.6635
11.6368
11.5945
11.5356
6.48371
6.52857
6.57602
6.62526
6.67678
6.73058
6.78678
6.84547
6.90676
6.97073
7.03747
7.10704
7.17951
7.25496
7.33341
7.41493
7.49952
7.58723
7.67805
7.77199
7.86902
7.96911
8.0722
8.17823
8.28707
8.39857
8.51258
8.62888
8.74721
8.86728
8.98874
9.11119
9.23424
9.35738
9.48012
9.60187
9.72206
9.83996
9.95494
10.0662
10.1731
10.2743
)
;

boundaryField
{
    inlet
    {
        type            freestreamPressure;
        freestreamValue uniform 0;
        value           nonuniform List<scalar> 
13
(
6.88649
6.92549
6.94711
6.95972
6.98124
7.05667
7.25392
7.68628
7.87118
7.6884
7.4764
7.33974
7.22812
)
;
    }
    outlet
    {
        type            freestreamPressure;
        freestreamValue nonuniform List<scalar> 0();
        value           nonuniform List<scalar> 0();
    }
    walls
    {
        type            zeroGradient;
    }
    frontAndBack
    {
        type            empty;
    }
    procBoundary2to1
    {
        type            processor;
        value           nonuniform List<scalar> 
84
(
-1.92649
-0.823736
0.0218079
0.850397
1.70148
2.74299
3.61195
4.66725
5.65331
6.71742
7.77869
8.87502
9.98383
11.1117
12.2509
13.3993
14.5523
15.7054
16.8536
17.9915
19.1138
20.2144
21.2875
22.3267
23.3259
24.2787
25.1792
26.0213
26.7996
27.5087
28.1442
28.7018
29.1785
29.5714
29.879
30.1001
30.235
30.2841
30.2841
31.4356
31.286
31.0511
30.7362
30.3472
29.8903
29.3722
28.7992
28.1782
27.5156
26.8178
26.0909
25.3407
24.5725
24.5725
24.2051
23.3741
22.5428
21.7149
20.8935
20.0816
19.2814
18.4952
17.7246
17.7246
17.0974
16.348
15.6197
14.9134
14.2289
13.5679
13.0321
12.5864
12.1285
11.6602
11.6602
11.2127
10.7285
10.2341
9.76004
9.278
8.66247
8.9089
6.0673
12.0905
)
;
    }
    procBoundary2to3
    {
        type            processor;
        value           nonuniform List<scalar> 
88
(
4.948
12.5917
7.4267
4.948
8.68849
8.26235
7.4267
8.17548
9.02661
8.73091
8.26235
8.45574
10.0573
9.79326
9.56003
9.31492
9.02661
9.05826
10.9897
10.7543
10.5067
10.2486
10.0573
9.98119
11.46
11.3683
11.2599
11.1348
10.9931
10.8352
10.9897
10.6618
10.3691
10.4572
10.5376
10.6092
10.6711
10.7223
10.762
10.7894
10.8036
10.8039
10.79
11.46
10.7611
5.6588
5.70132
5.74641
5.79329
5.84239
5.89361
5.94709
6.00286
6.061
6.12157
6.18465
6.25029
6.31855
6.38953
6.46324
6.53975
6.61908
6.70131
6.78642
6.87445
6.96539
7.05926
7.15601
7.25566
7.35808
7.46328
7.57109
7.68142
7.79408
7.90888
8.02555
8.14381
8.26333
8.38374
8.50459
8.62545
8.74579
8.8651
8.98271
9.09812
9.2108
10.3691
9.31997
)
;
    }
    procBoundary2to6
    {
        type            processor;
        value           nonuniform List<scalar> 
13
(
107.824
46.2088
26.973
25.9591
22.2769
17.7148
14.6456
12.5379
10.8611
9.47312
8.39326
7.37415
6.43537
)
;
    }
}


// ************************************************************************* //
