/*--------------------------------*- C++ -*----------------------------------*\
| =========                 |                                                 |
| \\      /  F ield         | OpenFOAM: The Open Source CFD Toolbox           |
|  \\    /   O peration     | Version:  2506                                  |
|   \\  /    A nd           | Website:  www.openfoam.com                      |
|    \\/     M anipulation  |                                                 |
\*---------------------------------------------------------------------------*/
FoamFile
{
    version     2.0;
    format      ascii;
    arch        "LSB;label=32;scalar=64";
    class       volScalarField;
    location    "150";
    object      turbulenceProperties:k;
}
// * * * * * * * * * * * * * * * * * * * * * * * * * * * * * * * * * * * * * //

dimensions      [0 2 -2 0 0 0 0];

internalField   nonuniform List<scalar> 
1340
(
49.3031
47.1186
44.5831
36.5946
1.50347
1.64945
1.9839
2.76228
0.337177
0.458891
0.542236
0.930308
0.0135042
0.0426592
0.104817
0.373357
0.000590252
0.00149574
0.00370051
0.0734663
8.20703e-05
0.000265122
0.000855182
0.00864498
5.78967e-06
1.18662e-06
1.43405e-07
0.000367908
1.99726e-05
1.31044e-05
1.51841e-06
3.40491e-05
2.6523e-05
2.81575e-05
2.71414e-05
9.2187e-07
2.23204e-05
2.16079e-05
3.5345e-05
1.2243e-05
2.2694e-05
2.20901e-05
3.079e-05
3.59576e-05
2.10371e-05
2.07797e-05
2.59914e-05
4.02486e-05
2.02847e-05
2.01114e-05
2.38458e-05
3.70235e-05
1.91723e-05
1.8885e-05
2.20205e-05
3.3172e-05
1.81842e-05
1.77998e-05
2.03432e-05
2.98058e-05
1.70971e-05
1.66304e-05
1.86639e-05
2.67755e-05
1.60155e-05
1.5479e-05
1.70633e-05
2.39857e-05
1.49239e-05
1.43212e-05
1.55345e-05
2.14086e-05
1.38424e-05
1.31772e-05
1.40779e-05
1.90293e-05
1.27657e-05
1.20449e-05
1.26946e-05
1.68497e-05
1.1694e-05
1.09267e-05
1.13794e-05
1.48581e-05
1.06325e-05
9.82891e-06
1.01348e-05
1.30516e-05
9.59515e-06
8.7598e-06
8.96014e-06
1.14225e-05
8.59125e-06
7.72847e-06
7.85217e-06
9.95211e-06
7.6196e-06
6.73565e-06
6.81313e-06
8.63345e-06
6.68185e-06
5.78354e-06
5.84449e-06
7.45949e-06
5.79071e-06
4.87932e-06
4.94813e-06
6.42451e-06
4.95911e-06
4.03e-06
4.12272e-06
5.5148e-06
4.1934e-06
3.23921e-06
3.36985e-06
4.71976e-06
3.49792e-06
2.50798e-06
2.69457e-06
4.03547e-06
2.88028e-06
1.83658e-06
2.1071e-06
3.46187e-06
2.3566e-06
1.23026e-06
1.62272e-06
2.99809e-06
1.95085e-06
7.05031e-07
1.26602e-06
2.63738e-06
1.68222e-06
3.43175e-07
1.07251e-06
2.37179e-06
1.55633e-06
4.40921e-07
1.05667e-06
2.19461e-06
1.55675e-06
7.5961e-07
1.16551e-06
2.09102e-06
1.6401e-06
1.06673e-06
1.32595e-06
2.04004e-06
1.76098e-06
1.33438e-06
1.49681e-06
2.0276e-06
2.4608e-06
1.89277e-06
1.55592e-06
1.65185e-06
2.03565e-06
2.47024e-06
2.00716e-06
1.73395e-06
1.78018e-06
2.0482e-06
2.48028e-06
2.1008e-06
1.87275e-06
1.88287e-06
2.0607e-06
2.48397e-06
2.17074e-06
1.97559e-06
1.95964e-06
2.06895e-06
2.47505e-06
2.2143e-06
2.04412e-06
2.00963e-06
2.06762e-06
2.45178e-06
2.23307e-06
2.08274e-06
2.03554e-06
2.05524e-06
2.41512e-06
2.23037e-06
2.09646e-06
2.04104e-06
2.03285e-06
2.36403e-06
2.20717e-06
2.08749e-06
2.0275e-06
1.99979e-06
2.29926e-06
2.16561e-06
2.05849e-06
1.99679e-06
1.95592e-06
2.22445e-06
2.11021e-06
2.0143e-06
1.9529e-06
1.90349e-06
2.14195e-06
2.04403e-06
1.95831e-06
1.89873e-06
1.84465e-06
2.05223e-06
1.96827e-06
1.89195e-06
1.83528e-06
1.7795e-06
1.95631e-06
1.88438e-06
1.81686e-06
1.76391e-06
1.70847e-06
1.85783e-06
1.79529e-06
1.73588e-06
1.68712e-06
1.63344e-06
1.81014e-06
1.75684e-06
1.70217e-06
1.65039e-06
1.60604e-06
1.55536e-06
1.69822e-06
1.65256e-06
1.60675e-06
1.56131e-06
1.52142e-06
1.47458e-06
1.58635e-06
1.5482e-06
1.50926e-06
1.46968e-06
1.43433e-06
1.39169e-06
1.47584e-06
1.44397e-06
1.41111e-06
1.37696e-06
1.34603e-06
1.30766e-06
1.36849e-06
1.34201e-06
1.31436e-06
1.28502e-06
1.25822e-06
1.22396e-06
1.26585e-06
1.24382e-06
1.22059e-06
1.19552e-06
1.17254e-06
1.14222e-06
1.16883e-06
1.15058e-06
1.13112e-06
1.10977e-06
1.0902e-06
1.06359e-06
1.07726e-06
1.06205e-06
1.04587e-06
1.02782e-06
1.01128e-06
9.88121e-07
9.90814e-07
9.77733e-07
9.64511e-07
9.49409e-07
9.35522e-07
9.15621e-07
9.17226e-07
9.07806e-07
8.96666e-07
8.85999e-07
8.73403e-07
8.6194e-07
8.45133e-07
8.34959e-07
8.26942e-07
8.18181e-07
8.09371e-07
7.98941e-07
7.89764e-07
7.75849e-07
7.55537e-07
7.49029e-07
7.41898e-07
7.34776e-07
7.26335e-07
7.19263e-07
7.07954e-07
6.79828e-07
6.7455e-07
6.68826e-07
6.6321e-07
6.56531e-07
6.51357e-07
6.42346e-07
6.08719e-07
6.0444e-07
5.99827e-07
5.9547e-07
5.90294e-07
5.86762e-07
5.79668e-07
5.44031e-07
5.40531e-07
5.36821e-07
5.3356e-07
5.29762e-07
5.27689e-07
5.225e-07
4.89383e-07
4.86307e-07
4.83115e-07
4.80533e-07
4.77608e-07
4.76534e-07
4.7291e-07
4.45833e-07
4.42891e-07
4.40004e-07
4.37691e-07
4.35075e-07
4.34428e-07
4.31527e-07
4.07791e-07
4.04945e-07
4.02269e-07
4.00074e-07
3.97574e-07
3.97015e-07
3.94621e-07
3.70886e-07
3.67951e-07
3.65567e-07
3.63599e-07
3.61316e-07
3.60901e-07
3.59111e-07
3.36677e-07
3.33634e-07
3.30477e-07
3.28169e-07
3.26276e-07
3.24317e-07
3.24354e-07
3.24252e-07
2.99119e-07
2.95233e-07
2.91603e-07
2.88501e-07
2.85869e-07
2.83366e-07
2.82196e-07
2.803e-07
2.51055e-07
2.4696e-07
2.43507e-07
2.4101e-07
2.39518e-07
2.38936e-07
2.419e-07
2.48134e-07
1.85002e-07
1.76538e-07
1.68927e-07
1.6271e-07
1.57812e-07
1.54107e-07
1.52097e-07
1.48144e-07
1.47479e-07
1.46364e-07
1.47353e-07
1.50666e-07
1.5694e-07
1.66264e-07
1.85518e-07
2.14122e-07
1.58587e-07
1.57647e-07
1.56514e-07
1.5511e-07
1.5442e-07
1.6068e-07
1.92922e-07
2.26224e-07
4.57293e-07
4.74672e-07
4.89808e-07
5.03711e-07
5.1945e-07
5.41961e-07
5.97279e-07
6.44188e-07
8.4447e-07
8.46293e-07
8.47421e-07
8.48027e-07
8.4844e-07
8.51411e-07
8.69461e-07
8.28683e-07
1.62526e-06
1.62481e-06
1.62297e-06
1.62016e-06
1.61527e-06
1.61184e-06
1.59742e-06
1.48094e-06
9.44781
2.68557
0.777907
0.250749
0.0449219
0.00302828
0.000323714
3.04833e-05
1.21357e-06
2.10953e-05
4.17806e-05
4.24962e-05
3.84911e-05
3.46145e-05
3.12578e-05
2.82237e-05
2.5414e-05
2.2813e-05
2.04152e-05
1.82085e-05
1.61931e-05
1.43642e-05
1.27109e-05
1.12203e-05
9.88286e-06
8.695e-06
7.64714e-06
6.7244e-06
5.91478e-06
5.2121e-06
4.61244e-06
4.10856e-06
3.68898e-06
3.34433e-06
3.06822e-06
2.85017e-06
2.67915e-06
2.5485e-06
2.44679e-06
2.3633e-06
2.29439e-06
2.23512e-06
2.17936e-06
2.12429e-06
2.06902e-06
2.0111e-06
1.9492e-06
1.88422e-06
1.81702e-06
1.74671e-06
1.67316e-06
1.59755e-06
1.52032e-06
1.44143e-06
1.36113e-06
1.28012e-06
1.19966e-06
1.12115e-06
1.04558e-06
9.72916e-07
9.02985e-07
8.34853e-07
7.67816e-07
7.02078e-07
6.38509e-07
5.77608e-07
5.22083e-07
4.73711e-07
4.33185e-07
3.96787e-07
3.61541e-07
3.27504e-07
2.8246e-07
2.55337e-07
1.47743e-07
2.35138e-07
2.03632e-07
6.35956e-07
7.27824e-07
1.31686e-06
5.38747
1.7902
0.385581
0.0680638
0.00727569
0.000496937
9.92744e-05
6.76751e-08
1.28283e-06
1.91686e-05
2.52067e-05
2.45496e-05
2.29618e-05
2.15362e-05
2.02482e-05
1.89972e-05
1.77592e-05
1.65317e-05
1.53301e-05
1.41588e-05
1.3029e-05
1.1947e-05
1.09161e-05
9.94422e-06
9.03475e-06
8.1928e-06
7.4196e-06
6.71266e-06
6.06974e-06
5.49227e-06
4.98026e-06
4.53036e-06
4.13672e-06
3.79516e-06
3.50274e-06
3.25283e-06
3.04018e-06
2.86142e-06
2.70912e-06
2.57683e-06
2.46276e-06
2.3627e-06
2.27171e-06
2.18733e-06
2.10815e-06
2.03119e-06
1.95477e-06
1.87923e-06
1.80445e-06
1.72902e-06
1.65242e-06
1.57535e-06
1.49781e-06
1.41944e-06
1.34031e-06
1.26097e-06
1.18252e-06
1.10617e-06
1.03265e-06
9.619e-07
8.93674e-07
8.27066e-07
7.61449e-07
6.97112e-07
6.34913e-07
5.75252e-07
5.20683e-07
4.72851e-07
4.32872e-07
3.97015e-07
3.61998e-07
3.28249e-07
2.83036e-07
2.5736e-07
1.46617e-07
2.47438e-07
1.73841e-07
6.40824e-07
7.17661e-07
1.34894e-06
3.20801
1.02796
0.15901
0.0129548
0.000616465
0.000113165
1.1987e-05
3.23462e-07
5.49306e-06
1.5403e-05
1.55627e-05
1.47201e-05
1.38687e-05
1.31599e-05
1.25105e-05
1.18784e-05
1.12641e-05
1.06662e-05
1.00828e-05
9.52256e-06
8.9801e-06
8.45709e-06
7.95057e-06
7.46496e-06
6.9995e-06
6.55328e-06
6.12724e-06
5.72144e-06
5.33543e-06
4.97219e-06
4.63321e-06
4.31863e-06
4.028e-06
3.76185e-06
3.52036e-06
3.30169e-06
3.10515e-06
2.93008e-06
2.77269e-06
2.63035e-06
2.50303e-06
2.38797e-06
2.28211e-06
2.18414e-06
2.09284e-06
2.00568e-06
1.92131e-06
1.83996e-06
1.76105e-06
1.68306e-06
1.60541e-06
1.52851e-06
1.45205e-06
1.37548e-06
1.29876e-06
1.22234e-06
1.1471e-06
1.07408e-06
1.00381e-06
9.36131e-07
8.7075e-07
8.06789e-07
7.43713e-07
6.81837e-07
6.21999e-07
5.64533e-07
5.1177e-07
4.65352e-07
4.26771e-07
3.92319e-07
3.58324e-07
3.25582e-07
2.81323e-07
2.56747e-07
1.49209e-07
2.53224e-07
1.61173e-07
6.36589e-07
7.0224e-07
1.35166e-06
1.77773
0.446275
0.0370424
0.000888538
0.000212009
3.65019e-08
7.33181e-08
1.33094e-06
7.92101e-06
1.07182e-05
9.96583e-06
9.56049e-06
9.18112e-06
8.86064e-06
8.54065e-06
8.21492e-06
7.89344e-06
7.57465e-06
7.26014e-06
6.95519e-06
6.65573e-06
6.36573e-06
6.0837e-06
5.80988e-06
5.54532e-06
5.28912e-06
5.04037e-06
4.79925e-06
4.56544e-06
4.33974e-06
4.12237e-06
3.91321e-06
3.71273e-06
3.52151e-06
3.34e-06
3.16837e-06
3.00715e-06
2.85675e-06
2.71558e-06
2.58333e-06
2.46083e-06
2.34676e-06
2.23954e-06
2.1391e-06
2.04464e-06
1.95434e-06
1.86753e-06
1.7845e-06
1.70456e-06
1.62633e-06
1.54939e-06
1.47395e-06
1.39955e-06
1.3256e-06
1.25193e-06
1.17893e-06
1.10735e-06
1.03802e-06
9.71317e-07
9.07019e-07
8.44808e-07
7.83828e-07
7.23629e-07
6.64521e-07
6.07328e-07
5.52338e-07
5.01704e-07
4.57092e-07
4.2019e-07
3.87307e-07
3.5455e-07
3.2305e-07
2.80093e-07
2.56648e-07
1.54391e-07
2.57495e-07
1.57019e-07
6.30491e-07
6.83941e-07
1.34052e-06
0.758431
0.110082
0.00202694
1.07874e-05
6.20994e-07
3.43045e-09
6.42376e-08
4.33146e-06
8.20173e-06
8.23012e-06
7.70084e-06
7.54173e-06
7.3721e-06
7.21787e-06
7.04713e-06
6.86655e-06
6.67894e-06
6.48242e-06
6.28071e-06
6.07348e-06
5.86092e-06
5.64599e-06
5.43131e-06
5.21596e-06
5.00247e-06
4.79346e-06
4.58788e-06
4.38781e-06
4.19377e-06
4.00601e-06
3.82488e-06
3.65024e-06
3.48271e-06
3.32199e-06
3.16798e-06
3.02101e-06
2.88094e-06
2.74791e-06
2.62078e-06
2.49984e-06
2.38569e-06
2.27733e-06
2.17408e-06
2.07638e-06
1.98349e-06
1.89427e-06
1.80857e-06
1.72666e-06
1.6479e-06
1.57112e-06
1.49612e-06
1.42299e-06
1.3512e-06
1.28017e-06
1.20968e-06
1.14009e-06
1.07205e-06
1.00624e-06
9.42877e-07
8.81733e-07
8.22468e-07
7.64246e-07
7.0672e-07
6.50182e-07
5.95459e-07
5.42791e-07
4.94133e-07
4.51199e-07
4.15824e-07
3.84268e-07
3.52575e-07
3.22161e-07
2.80399e-07
2.58073e-07
1.60826e-07
2.63346e-07
1.54467e-07
6.3082e-07
6.74148e-07
1.33839e-06
0.189061
0.00758816
0.000675117
1.90883e-09
0
1.33913e-07
2.27445e-06
6.62259e-06
7.37801e-06
6.8515e-06
6.61963e-06
6.54735e-06
6.44068e-06
6.3298e-06
6.20169e-06
6.0661e-06
5.92171e-06
5.76963e-06
5.61235e-06
5.44879e-06
5.28096e-06
5.11011e-06
4.93816e-06
4.76401e-06
4.58954e-06
4.41682e-06
4.24531e-06
4.07693e-06
3.91134e-06
3.7488e-06
3.59018e-06
3.43588e-06
3.28686e-06
3.14297e-06
3.00439e-06
2.87163e-06
2.74444e-06
2.62295e-06
2.50637e-06
2.39505e-06
2.28911e-06
2.18766e-06
2.09055e-06
1.99807e-06
1.90941e-06
1.824e-06
1.74187e-06
1.6632e-06
1.5874e-06
1.51358e-06
1.44169e-06
1.37173e-06
1.30319e-06
1.23551e-06
1.16851e-06
1.10252e-06
1.0381e-06
9.75803e-07
9.15757e-07
8.57727e-07
8.0134e-07
7.45832e-07
6.90917e-07
6.36908e-07
5.84637e-07
5.34273e-07
4.87554e-07
4.46275e-07
4.12396e-07
3.82091e-07
3.5142e-07
3.22004e-07
2.81418e-07
2.60307e-07
1.68037e-07
2.70248e-07
1.50851e-07
6.33708e-07
0.0142461
0.00091937
0
0
7.68487e-08
1.32474e-06
4.95902e-06
6.24166e-06
5.84552e-06
5.55465e-06
5.50779e-06
5.47041e-06
5.40553e-06
5.33304e-06
5.24786e-06
5.15692e-06
5.05789e-06
4.95117e-06
4.83833e-06
4.71917e-06
4.59557e-06
4.46819e-06
4.33706e-06
4.20327e-06
4.06858e-06
3.93371e-06
3.79977e-06
3.66768e-06
3.53617e-06
3.40589e-06
3.27766e-06
3.15182e-06
3.02901e-06
2.90922e-06
2.79254e-06
2.67935e-06
2.56966e-06
2.46372e-06
2.36118e-06
2.26246e-06
2.16739e-06
2.07551e-06
1.98714e-06
1.90218e-06
1.82009e-06
1.74072e-06
1.66412e-06
1.59042e-06
1.51911e-06
1.44958e-06
1.3819e-06
1.31602e-06
1.25144e-06
1.18767e-06
1.12463e-06
1.0626e-06
1.00207e-06
9.43499e-07
8.86941e-07
8.32159e-07
7.78816e-07
7.26176e-07
6.74012e-07
6.22689e-07
5.73029e-07
5.25099e-07
4.80425e-07
4.40953e-07
4.08693e-07
3.79687e-07
3.50151e-07
3.21911e-07
2.82679e-07
2.62916e-07
1.75538e-07
2.77256e-07
0.00113932
0
0
4.19485e-08
7.49047e-07
3.97087e-06
5.32197e-06
5.08922e-06
4.76077e-06
4.69081e-06
4.68232e-06
4.64439e-06
4.59236e-06
4.53323e-06
4.46611e-06
4.39414e-06
4.31606e-06
4.23221e-06
4.14362e-06
4.05075e-06
3.95485e-06
3.85618e-06
3.75443e-06
3.65086e-06
3.54714e-06
3.44368e-06
3.34123e-06
3.23949e-06
3.13747e-06
3.03592e-06
2.93553e-06
2.83648e-06
2.73912e-06
2.64339e-06
2.54924e-06
2.45696e-06
2.36656e-06
2.27832e-06
2.19214e-06
2.10811e-06
2.02606e-06
1.94599e-06
1.86819e-06
1.79255e-06
1.71879e-06
1.64704e-06
1.57734e-06
1.50982e-06
1.4441e-06
1.37985e-06
1.31722e-06
1.2561e-06
1.19605e-06
1.13673e-06
1.07807e-06
1.02033e-06
9.63938e-07
9.09278e-07
8.56361e-07
8.04999e-07
7.54829e-07
7.05172e-07
6.5593e-07
6.07434e-07
5.6052e-07
5.15175e-07
4.72798e-07
4.35328e-07
4.04778e-07
3.77169e-07
3.48845e-07
3.21625e-07
2.83835e-07
2.65753e-07
0
0
2.10034e-08
3.68244e-07
3.46115e-06
4.61246e-06
4.47062e-06
4.17199e-06
4.08478e-06
4.09209e-06
4.07984e-06
4.04602e-06
4.00482e-06
3.95666e-06
3.90232e-06
3.84263e-06
3.77722e-06
3.70699e-06
3.63257e-06
3.55468e-06
3.47398e-06
3.39082e-06
3.30565e-06
3.21921e-06
3.13336e-06
3.04882e-06
2.965e-06
2.88141e-06
2.79779e-06
2.71483e-06
2.63285e-06
2.55202e-06
2.47263e-06
2.39419e-06
2.31679e-06
2.24066e-06
2.16566e-06
2.09218e-06
2.02004e-06
1.94899e-06
1.87896e-06
1.81024e-06
1.7428e-06
1.67661e-06
1.6116e-06
1.54793e-06
1.48561e-06
1.42476e-06
1.36519e-06
1.30676e-06
1.24964e-06
1.19369e-06
1.13858e-06
1.08403e-06
1.02998e-06
9.76734e-07
9.2463e-07
8.73987e-07
8.24783e-07
7.76891e-07
7.30033e-07
6.83613e-07
6.37391e-07
5.9183e-07
5.47796e-07
5.05088e-07
4.64835e-07
4.29404e-07
4.00607e-07
3.74336e-07
3.47481e-07
0
1.18365e-08
2.37158e-07
2.99207e-06
4.03829e-06
3.90918e-06
3.64345e-06
3.56316e-06
3.57902e-06
3.58557e-06
3.56996e-06
3.54465e-06
3.5137e-06
3.47647e-06
3.43379e-06
3.38618e-06
3.33335e-06
3.27604e-06
3.21511e-06
3.15103e-06
3.084e-06
3.01435e-06
2.94292e-06
2.87084e-06
2.79935e-06
2.7287e-06
2.65801e-06
2.58718e-06
2.51628e-06
2.44602e-06
2.37655e-06
2.30819e-06
2.24101e-06
2.17446e-06
2.1088e-06
2.04408e-06
1.98039e-06
1.91803e-06
1.8566e-06
1.79582e-06
1.7357e-06
1.67638e-06
1.61788e-06
1.56021e-06
1.50329e-06
1.44726e-06
1.39206e-06
1.3378e-06
1.28442e-06
1.23193e-06
1.18043e-06
1.12977e-06
1.07973e-06
1.03021e-06
9.81179e-07
9.32533e-07
8.84772e-07
8.38164e-07
7.9273e-07
7.48443e-07
7.04903e-07
6.61365e-07
6.18201e-07
5.75648e-07
5.34467e-07
4.94673e-07
1.68735e-08
7.29716e-08
1.54962e-06
4.68245e-06
3.60894e-06
3.28209e-06
3.28281e-06
3.26551e-06
3.27943e-06
3.26602e-06
3.2425e-06
3.21491e-06
3.18217e-06
3.14466e-06
3.10263e-06
3.05638e-06
3.00637e-06
2.95281e-06
2.89666e-06
2.83788e-06
2.77682e-06
2.71387e-06
2.65014e-06
2.5866e-06
2.52388e-06
2.46166e-06
2.39931e-06
2.3369e-06
2.27467e-06
2.21321e-06
2.15274e-06
2.09331e-06
2.03488e-06
1.97714e-06
1.92021e-06
1.86423e-06
1.8094e-06
1.75581e-06
1.7028e-06
1.65011e-06
1.59802e-06
1.54691e-06
1.49647e-06
1.44625e-06
1.3966e-06
1.34752e-06
1.29886e-06
1.2508e-06
1.20339e-06
1.15666e-06
1.11067e-06
1.06531e-06
1.02057e-06
9.7601e-07
9.3127e-07
8.8724e-07
8.43852e-07
8.01314e-07
7.59603e-07
7.18752e-07
6.7902e-07
5.75125e-05
1.18445e-05
2.50826e-06
4.67156e-06
3.21727e-06
3.05198e-06
3.19084e-06
3.13417e-06
3.12078e-06
3.09111e-06
3.05519e-06
3.01788e-06
2.9762e-06
2.93116e-06
2.88268e-06
2.83135e-06
2.77761e-06
2.72138e-06
2.66342e-06
2.60361e-06
2.5425e-06
2.48065e-06
2.41921e-06
2.35865e-06
2.29915e-06
2.24029e-06
2.18164e-06
2.12345e-06
2.0661e-06
2.01e-06
1.95526e-06
1.90182e-06
1.84952e-06
1.79809e-06
1.74773e-06
1.69859e-06
1.6508e-06
1.60413e-06
1.55794e-06
1.51244e-06
1.46791e-06
1.42336e-06
1.37863e-06
1.33534e-06
1.29219e-06
1.24928e-06
1.20656e-06
1.16425e-06
1.12246e-06
1.08121e-06
1.04046e-06
9.99933e-07
9.59894e-07
9.21413e-07
0.000422447
4.82563e-08
8.8292e-07
4.38493e-06
2.94076e-06
2.96563e-06
3.08923e-06
2.99861e-06
2.96976e-06
2.93126e-06
2.88675e-06
2.84168e-06
2.79299e-06
2.74207e-06
2.68878e-06
2.63369e-06
2.57686e-06
2.51851e-06
2.45892e-06
2.39834e-06
2.33737e-06
2.27675e-06
2.21711e-06
2.1587e-06
2.10146e-06
2.04482e-06
1.98888e-06
1.93389e-06
1.88025e-06
1.82824e-06
1.77785e-06
1.72895e-06
1.68129e-06
1.63479e-06
1.58972e-06
1.5461e-06
1.50403e-06
1.46298e-06
1.42216e-06
1.38059e-06
1.34076e-06
1.30699e-06
)
;

boundaryField
{
    inlet
    {
        type            calculated;
        value           nonuniform List<scalar> 
13
(
5.4736e-06
5.54356e-06
5.60469e-06
5.65932e-06
5.71194e-06
5.76608e-06
5.83695e-06
5.8548e-06
5.79659e-06
5.76211e-06
5.71693e-06
5.67731e-06
5.64457e-06
)
;
    }
    outlet
    {
        type            calculated;
        value           nonuniform List<scalar> 0();
    }
    walls
    {
        type            calculated;
        value           uniform 0;
    }
    frontAndBack
    {
        type            empty;
    }
    procBoundary2to1
    {
        type            processor;
        value           nonuniform List<scalar> 
84
(
50.8042
1.36489
0.223298
0.00275219
0.000210539
2.1251e-05
2.53153e-05
2.40672e-05
2.64242e-05
2.30714e-05
2.31331e-05
2.18333e-05
2.11241e-05
2.01266e-05
1.91916e-05
1.8175e-05
1.71508e-05
1.61162e-05
1.50849e-05
1.40512e-05
1.30138e-05
1.1979e-05
1.0963e-05
9.97525e-06
9.01386e-06
8.08168e-06
7.19439e-06
6.36655e-06
5.60381e-06
4.91006e-06
4.29112e-06
3.75738e-06
3.31997e-06
2.98089e-06
2.73627e-06
2.57955e-06
2.49466e-06
2.46089e-06
2.46089e-06
3.10989e-06
3.0144e-06
2.9344e-06
2.86198e-06
2.78951e-06
2.71361e-06
2.63352e-06
2.54653e-06
2.452e-06
2.3525e-06
2.24953e-06
2.14277e-06
2.03255e-06
1.92101e-06
1.92101e-06
1.86388e-06
1.74267e-06
1.6232e-06
1.5064e-06
1.39368e-06
1.28652e-06
1.18586e-06
1.09128e-06
1.0021e-06
1.0021e-06
9.2636e-07
8.42443e-07
7.61719e-07
6.84966e-07
6.12989e-07
5.47613e-07
4.92582e-07
4.48934e-07
4.10801e-07
3.73607e-07
3.73607e-07
3.40247e-07
3.03237e-07
2.5585e-07
1.94213e-07
1.50735e-07
1.59876e-07
4.37602e-07
8.41413e-07
1.62357e-06
)
;
    }
    procBoundary2to3
    {
        type            processor;
        value           nonuniform List<scalar> 
88
(
6.68742e-07
1.34036e-06
1.48108e-07
6.68742e-07
6.36566e-07
1.841e-07
1.48108e-07
2.84183e-07
3.21958e-07
2.85819e-07
1.841e-07
2.69197e-07
4.57405e-07
4.24313e-07
3.97209e-07
3.72257e-07
3.21958e-07
3.46609e-07
6.39718e-07
5.99599e-07
5.60029e-07
5.21745e-07
4.57405e-07
4.84504e-07
8.83345e-07
8.43399e-07
8.04003e-07
7.65376e-07
7.27359e-07
6.89902e-07
6.39718e-07
6.532e-07
1.27231e-06
1.23285e-06
1.19474e-06
1.15683e-06
1.11924e-06
1.08204e-06
1.04538e-06
1.00919e-06
9.73427e-07
9.37836e-07
9.02011e-07
8.83345e-07
8.66912e-07
6.79735e-06
1.19079e-07
2.01715e-06
4.0714e-06
2.70291e-06
2.94182e-06
2.94863e-06
2.84754e-06
2.81199e-06
2.76224e-06
2.71042e-06
2.65888e-06
2.60533e-06
2.55089e-06
2.49531e-06
2.43863e-06
2.38107e-06
2.32265e-06
2.26364e-06
2.20442e-06
2.14557e-06
2.08764e-06
2.03098e-06
1.97553e-06
1.92104e-06
1.86738e-06
1.81473e-06
1.7633e-06
1.71355e-06
1.66554e-06
1.61922e-06
1.57439e-06
1.53089e-06
1.48887e-06
1.44851e-06
1.40988e-06
1.3728e-06
1.33654e-06
1.30079e-06
1.26551e-06
1.22687e-06
1.27231e-06
1.18882e-06
)
;
    }
    procBoundary2to6
    {
        type            processor;
        value           nonuniform List<scalar> 
13
(
12.648
9.45994
6.11463
3.83895
2.13901
0.912624
0.225713
0.0137674
0.00101523
0
0.000382142
0.00260044
0.00182801
)
;
    }
}


// ************************************************************************* //
