/*--------------------------------*- C++ -*----------------------------------*\
| =========                 |                                                 |
| \\      /  F ield         | OpenFOAM: The Open Source CFD Toolbox           |
|  \\    /   O peration     | Version:  2506                                  |
|   \\  /    A nd           | Website:  www.openfoam.com                      |
|    \\/     M anipulation  |                                                 |
\*---------------------------------------------------------------------------*/
FoamFile
{
    version     2.0;
    format      ascii;
    arch        "LSB;label=32;scalar=64";
    class       volSymmTensorField;
    location    "150";
    object      turbulenceProperties:R;
}
// * * * * * * * * * * * * * * * * * * * * * * * * * * * * * * * * * * * * * //

dimensions      [0 2 -2 0 0 0 0];

internalField   nonuniform List<symmTensor> 
1340
(
(29.2465 14.345 1.05414e-15 36.4552 1.53245e-16 32.9046)
(27.5477 13.6016 1.48825e-15 35.2445 2.61339e-16 31.445)
(25.7109 12.764 -2.97564e-16 33.7025 -3.95051e-17 29.7528)
(20.6574 10.3232 -4.67408e-15 28.1291 -8.05256e-16 24.4027)
(0.890171 0.431679 -5.07222e-16 1.14009 -7.67476e-17 0.976689)
(0.966598 0.471935 -1.26878e-15 1.2559 -4.72837e-16 1.0764)
(1.17096 0.570186 -2.58799e-15 1.50194 -3.50079e-17 1.2949)
(1.62779 0.801988 -2.08285e-15 2.04362 1.32427e-15 1.85315)
(0.212122 0.100378 2.24456e-16 0.237096 -5.53692e-18 0.225137)
(0.285088 0.136075 -1.20953e-15 0.326844 1.59807e-16 0.30585)
(0.350889 0.162289 3.05793e-15 0.372999 5.45738e-16 0.360583)
(0.579484 0.276406 4.78384e-15 0.652718 9.74685e-16 0.628414)
(0.00995985 0.00392177 -1.89173e-16 0.00794859 -2.74184e-17 0.00910005)
(0.0300573 0.0126288 7.9705e-16 0.0262641 1.16516e-16 0.028997)
(0.0768944 0.0305747 -5.19483e-16 0.0622978 -1.703e-16 0.0704419)
(0.245264 0.111749 -3.54121e-16 0.24754 -1.41133e-15 0.253911)
(0.00052097 -0.000106947 -2.00076e-18 0.000246816 5.12196e-19 0.000412719)
(0.00140314 -0.000149075 -2.01526e-17 0.000561513 -1.45453e-17 0.00102682)
(0.00356022 0.000259722 6.548e-17 0.00140343 5.01388e-18 0.00243736)
(0.0529692 0.0214157 -3.09114e-16 0.0435228 5.09808e-17 0.0504407)
(6.51975e-05 -1.46196e-05 1.55461e-18 5.05453e-05 1.50609e-19 4.83977e-05)
(0.000247897 -3.98966e-05 -1.31514e-17 0.000123511 -4.79464e-19 0.000158837)
(0.000835901 -3.25493e-05 -1.88322e-17 0.000337777 -5.85256e-18 0.000536687)
(0.00685394 0.00229026 8.1986e-18 0.00448575 5.0279e-17 0.00595026)
(3.92652e-06 -4.15184e-08 -3.8257e-21 3.77711e-06 -4.65938e-22 3.8757e-06)
(7.94292e-07 -1.03794e-09 2.7665e-22 7.87273e-07 6.71205e-23 7.91681e-07)
(9.56464e-08 -2.05069e-12 4.71314e-26 9.55575e-08 5.48364e-25 9.56057e-08)
(0.000299991 7.69688e-05 4.37277e-18 0.000177905 3.99667e-19 0.00025792)
(1.4358e-05 -1.20179e-06 1.10334e-19 1.25727e-05 1.8037e-20 1.30146e-05)
(9.40105e-06 -3.35612e-07 -2.62092e-20 8.17674e-06 -1.00356e-20 8.63095e-06)
(1.01936e-06 -1.46871e-10 4.58341e-23 1.00593e-06 1.06074e-23 1.01152e-06)
(2.36986e-05 1.52719e-06 8.00444e-22 2.15573e-05 -2.93537e-20 2.28422e-05)
(1.94612e-05 -1.33454e-06 -5.31825e-21 1.57341e-05 -4.50195e-21 1.78508e-05)
(2.10727e-05 -7.73765e-07 3.71119e-20 1.62667e-05 3.54605e-20 1.89756e-05)
(2.00003e-05 6.04393e-08 1.80457e-20 1.61694e-05 -1.72252e-20 1.8113e-05)
(6.15357e-07 1.17234e-09 -6.80351e-24 6.13658e-07 6.94253e-24 6.14725e-07)
(1.63203e-05 -1.33224e-06 4.08611e-20 1.35414e-05 5.28999e-21 1.47791e-05)
(1.61196e-05 -6.6995e-07 2.21251e-19 1.27324e-05 4.1324e-21 1.43638e-05)
(2.72637e-05 1.51437e-07 -2.58197e-19 2.00225e-05 1.88965e-20 2.34039e-05)
(8.30966e-06 2.3087e-07 5.98605e-21 7.99045e-06 2.70184e-21 8.18583e-06)
(1.66306e-05 -1.24868e-06 3.93613e-21 1.36034e-05 -6.92893e-21 1.5154e-05)
(1.64615e-05 -5.90495e-07 -2.51679e-19 1.29365e-05 -3.85822e-20 1.47822e-05)
(2.34315e-05 1.9965e-07 3.31006e-19 1.76717e-05 5.03035e-20 2.04769e-05)
(2.5308e-05 2.09814e-06 8.19026e-20 2.24206e-05 -2.93778e-20 2.41866e-05)
(1.53981e-05 -1.19785e-06 -9.64608e-20 1.268e-05 -5.60884e-21 1.39961e-05)
(1.55325e-05 -5.70825e-07 1.63561e-19 1.21598e-05 2.34643e-20 1.38669e-05)
(1.96072e-05 2.10599e-07 -1.49847e-19 1.5106e-05 -6.29841e-20 1.72697e-05)
(2.86297e-05 2.86191e-06 -1.85289e-19 2.47613e-05 -9.96129e-20 2.71062e-05)
(1.485e-05 -1.13401e-06 1.11052e-19 1.21995e-05 1.3376e-20 1.35198e-05)
(1.50422e-05 -5.24139e-07 -2.30162e-19 1.17418e-05 -3.02431e-20 1.34387e-05)
(1.79465e-05 2.40992e-07 -1.50239e-20 1.38879e-05 2.26122e-20 1.58571e-05)
(2.63417e-05 2.67305e-06 -2.9923e-19 2.27792e-05 2.96767e-20 2.49261e-05)
(1.40303e-05 -1.08209e-06 -8.17723e-20 1.15448e-05 -1.42042e-20 1.27696e-05)
(1.41316e-05 -4.81104e-07 1.50765e-19 1.10265e-05 4.33384e-20 1.2612e-05)
(1.65705e-05 2.68554e-07 2.37166e-20 1.28277e-05 1.89878e-20 1.46428e-05)
(2.35746e-05 2.38726e-06 1.73934e-19 2.04509e-05 5.75902e-20 2.23185e-05)
(1.3305e-05 -1.0255e-06 1.72448e-20 1.09469e-05 6.67723e-21 1.21164e-05)
(1.33214e-05 -4.3718e-07 6.48152e-20 1.03881e-05 -1.19652e-20 1.18901e-05)
(1.53023e-05 2.90562e-07 1.23122e-19 1.18521e-05 -6.39187e-21 1.35319e-05)
(2.11649e-05 2.14995e-06 -8.52613e-20 1.84039e-05 -5.21924e-20 2.00428e-05)
(1.25055e-05 -9.68543e-07 1.12901e-20 1.02974e-05 1.82655e-22 1.13913e-05)
(1.24496e-05 -3.96469e-07 -9.51351e-20 9.70362e-06 -1.28653e-20 1.11075e-05)
(1.40308e-05 3.06243e-07 -1.63034e-19 1.08798e-05 -4.05919e-20 1.24171e-05)
(1.89982e-05 1.94329e-06 -9.5886e-20 1.65575e-05 3.38009e-20 1.79952e-05)
(1.17099e-05 -9.10661e-07 -4.33625e-21 9.64903e-06 1.26877e-21 1.06721e-05)
(1.15901e-05 -3.5803e-07 5.10075e-20 9.0293e-06 2.25067e-21 1.03385e-05)
(1.2818e-05 3.16491e-07 -6.62355e-20 9.95362e-06 2.00789e-20 1.13551e-05)
(1.70034e-05 1.75349e-06 2.30653e-19 1.48563e-05 1.76168e-20 1.61116e-05)
(1.09057e-05 -8.54298e-07 4.17857e-20 8.99678e-06 -1.73612e-21 9.94523e-06)
(1.07252e-05 -3.23366e-07 -1.49471e-19 8.35257e-06 -1.86785e-20 9.56466e-06)
(1.166e-05 3.20882e-07 9.93536e-20 9.06888e-06 2.58711e-20 1.03401e-05)
(1.516e-05 1.57766e-06 -1.76896e-19 1.32846e-05 -1.71562e-20 1.43725e-05)
(1.01081e-05 -7.99552e-07 -1.16295e-19 8.35142e-06 -1.17911e-20 9.22531e-06)
(9.86963e-06 -2.92533e-07 3.65009e-20 7.68461e-06 2.30928e-20 8.80025e-06)
(1.05579e-05 3.19067e-07 7.39313e-20 8.22536e-06 -8.30612e-21 9.37263e-06)
(1.34584e-05 1.41437e-06 2.86348e-19 1.18324e-05 3.54441e-20 1.27678e-05)
(9.3132e-06 -7.45946e-07 5.89926e-20 7.70984e-06 1.16994e-20 8.50835e-06)
(9.02211e-06 -2.64837e-07 1.15684e-19 7.02415e-06 4.62801e-21 8.0436e-06)
(9.5121e-06 3.12166e-07 -7.20558e-20 7.42351e-06 -1.88059e-20 8.45363e-06)
(1.19001e-05 1.26368e-06 -1.71945e-19 1.05002e-05 -4.83539e-20 1.12992e-05)
(8.52166e-06 -6.92863e-07 -1.59095e-20 7.07172e-06 -4.54576e-21 7.79468e-06)
(8.1847e-06 -2.39267e-07 -8.85131e-20 6.37231e-06 -1.67571e-20 7.29643e-06)
(8.51864e-06 3.01682e-07 -4.1821e-20 6.66072e-06 6.22272e-21 7.5794e-06)
(1.04762e-05 1.12525e-06 3.28302e-20 9.28194e-06 2.22489e-20 9.95801e-06)
(7.73736e-06 -6.4037e-07 4.70894e-21 6.44002e-06 3.24629e-21 7.08765e-06)
(7.36222e-06 -2.15461e-07 1.36687e-20 5.73261e-06 7.63609e-21 6.563e-06)
(7.57924e-06 2.88383e-07 4.98857e-20 5.93848e-06 1.41075e-20 6.75185e-06)
(9.18439e-06 9.99029e-07 1.80313e-21 8.17635e-06 -7.78367e-21 8.74246e-06)
(6.97032e-06 -5.89385e-07 3.31641e-20 5.82337e-06 1.87664e-21 6.39661e-06)
(6.56088e-06 -1.93777e-07 3.1776e-21 5.10993e-06 -2.17402e-21 5.8488e-06)
(6.69338e-06 2.72781e-07 6.70949e-20 5.25638e-06 -6.39239e-21 5.97052e-06)
(8.01904e-06 8.84523e-07 -4.82948e-20 7.17881e-06 -2.6069e-21 7.64716e-06)
(6.22733e-06 -5.40285e-07 -2.64382e-20 5.2274e-06 -3.47923e-21 5.72777e-06)
(5.78744e-06 -1.74435e-07 -2.39096e-20 4.50955e-06 5.39764e-22 5.15995e-06)
(5.85886e-06 2.54681e-07 -1.32358e-19 4.6123e-06 -1.59218e-20 5.23319e-06)
(6.96725e-06 7.80315e-07 2.7276e-20 6.27769e-06 9.19278e-21 6.65927e-06)
(5.5079e-06 -4.92392e-07 1.89491e-20 4.65097e-06 7.40113e-22 5.08032e-06)
(5.04266e-06 -1.56507e-07 5.28564e-20 3.93172e-06 7.27866e-21 4.49691e-06)
(5.07689e-06 2.35371e-07 4.96722e-20 4.00786e-06 2.10435e-20 4.54151e-06)
(6.02393e-06 6.85954e-07 2.83351e-20 5.46885e-06 3.75202e-21 5.77413e-06)
(4.81354e-06 -4.45301e-07 -4.8937e-20 4.09477e-06 -3.89423e-21 4.4554e-06)
(4.32838e-06 -1.39256e-07 -2.2309e-21 3.37756e-06 -1.54997e-21 3.86114e-06)
(4.34814e-06 2.1602e-07 8.88261e-20 3.44438e-06 1.53516e-21 3.89645e-06)
(5.18351e-06 6.01175e-07 4.55046e-20 4.74881e-06 -4.67205e-21 4.98667e-06)
(4.15333e-06 -3.99695e-07 4.21136e-20 3.56662e-06 6.85521e-21 3.86147e-06)
(3.64995e-06 -1.2287e-07 3.38881e-20 2.85126e-06 3.11254e-21 3.25744e-06)
(3.67381e-06 1.96991e-07 -6.74167e-20 2.92309e-06 -9.78638e-21 3.29935e-06)
(4.4417e-06 5.25554e-07 -1.0795e-19 4.11434e-06 -9.70832e-21 4.29299e-06)
(3.53641e-06 -3.56225e-07 2.15805e-21 3.07464e-06 -1.98165e-21 3.30717e-06)
(3.0125e-06 -1.07837e-07 -1.09699e-20 2.35705e-06 -4.76594e-21 2.69045e-06)
(3.05294e-06 1.78092e-07 4.94199e-20 2.44315e-06 5.17259e-21 2.74934e-06)
(3.78892e-06 4.57954e-07 7.04736e-20 3.557e-06 9.11398e-21 3.68368e-06)
(2.96737e-06 -3.14804e-07 -2.94114e-21 2.6227e-06 -8.78633e-22 2.79673e-06)
(2.41878e-06 -9.38807e-08 -3.25807e-20 1.89704e-06 -3.98583e-21 2.1626e-06)
(2.48644e-06 1.59642e-07 -7.2601e-20 2.00572e-06 -8.56484e-21 2.24754e-06)
(3.21771e-06 3.97439e-07 -8.70978e-20 3.07025e-06 -1.37233e-20 3.15155e-06)
(2.44938e-06 -2.75074e-07 -9.55665e-21 2.21339e-06 -1.29954e-21 2.33307e-06)
(1.86965e-06 -8.04789e-08 -2.26443e-20 1.47173e-06 -9.809e-22 1.67458e-06)
(1.9774e-06 1.42362e-07 3.52694e-20 1.61439e-06 8.03232e-21 1.79736e-06)
(2.72494e-06 3.43628e-07 -8.1206e-21 2.65217e-06 8.93312e-21 2.69382e-06)
(1.98771e-06 -2.36833e-07 -9.33169e-21 1.85158e-06 -1.0216e-21 1.92127e-06)
(1.36535e-06 -6.72162e-08 -5.86252e-21 1.0813e-06 1.93176e-21 1.22652e-06)
(1.5324e-06 1.26916e-07 3.24577e-21 1.27615e-06 -1.02004e-21 1.40565e-06)
(2.31005e-06 2.96356e-07 8.40802e-20 2.30336e-06 1.3095e-20 2.31034e-06)
(1.59333e-06 -2.00289e-07 -1.27777e-20 1.54777e-06 -1.09034e-21 1.57208e-06)
(9.09565e-07 -5.40753e-08 3.08072e-20 7.29035e-07 2.97709e-21 8.21923e-07)
(1.16145e-06 1.13474e-07 1.23576e-20 1.00139e-06 -4.63113e-22 1.08261e-06)
(1.97202e-06 2.55307e-07 8.38712e-20 2.02376e-06 5.12611e-22 2.0004e-06)
(1.28245e-06 -1.65912e-07 -3.79897e-21 1.31774e-06 1.08475e-21 1.30152e-06)
(5.13082e-07 -4.14209e-08 -9.94973e-21 4.25519e-07 -1.82587e-21 4.71461e-07)
(8.8083e-07 1.01745e-07 -2.95468e-20 8.06545e-07 -3.61176e-21 8.44668e-07)
(1.70614e-06 2.19734e-07 -7.32426e-20 1.80919e-06 -1.37858e-20 1.75943e-06)
(1.06784e-06 -1.33656e-07 2.33908e-20 1.17423e-06 2.36106e-21 1.12237e-06)
(2.30729e-07 -2.91861e-08 1.37009e-20 2.25645e-07 -6.17312e-23 2.29977e-07)
(7.13991e-07 9.17388e-08 1.83426e-22 7.15505e-07 3.08527e-21 7.1552e-07)
(1.50687e-06 1.88996e-07 -5.26983e-20 1.65466e-06 -8.09104e-22 1.58204e-06)
(9.53213e-07 -1.03257e-07 -4.97836e-21 1.12109e-06 -1.10535e-21 1.03836e-06)
(2.59856e-07 -1.70501e-08 -4.6872e-20 3.27051e-07 -4.25265e-21 2.94935e-07)
(6.70331e-07 8.37646e-08 3.59337e-20 7.38181e-07 1.76199e-21 7.04835e-07)
(1.36944e-06 1.62906e-07 2.52231e-20 1.55604e-06 2.93239e-21 1.46374e-06)
(9.27551e-07 -7.50448e-08 8.00067e-21 1.14738e-06 7.18602e-22 1.03857e-06)
(4.41274e-07 -5.25265e-09 2.99108e-20 5.70724e-07 4.43503e-21 5.07222e-07)
(7.14331e-07 7.7602e-08 -4.42181e-20 8.39416e-07 -5.11332e-21 7.77271e-07)
(1.28379e-06 1.41057e-07 -4.73296e-20 1.50367e-06 -5.28145e-21 1.39458e-06)
(9.61802e-07 -4.92494e-08 -7.5426e-21 1.22433e-06 -6.00235e-22 1.09407e-06)
(6.19814e-07 5.92926e-09 -1.42342e-20 8.01813e-07 -2.5071e-21 7.11831e-07)
(7.97049e-07 7.28886e-08 2.2113e-20 9.70724e-07 3.02803e-21 8.84136e-07)
(1.23582e-06 1.22761e-07 1.42016e-20 1.48372e-06 5.6472e-21 1.36055e-06)
(1.02526e-06 -2.49805e-08 1.3081e-20 1.32213e-06 1.76444e-21 1.17457e-06)
(7.76515e-07 1.70808e-08 3.50796e-21 1.00207e-06 3.4269e-22 8.90177e-07)
(8.90685e-07 6.99804e-08 -2.80004e-20 1.10495e-06 -2.06823e-21 9.97984e-07)
(1.21585e-06 1.07994e-07 6.55298e-20 1.48709e-06 5.70814e-21 1.35227e-06)
(1.43091e-06 -1.99068e-08 -8.8713e-21 1.84963e-06 -1.27928e-22 1.64104e-06)
(1.09984e-06 -3.48634e-09 3.85117e-21 1.4233e-06 -1.29648e-21 1.26239e-06)
(9.0698e-07 2.75909e-08 -1.65558e-20 1.16717e-06 1.39473e-22 1.03769e-06)
(9.77653e-07 6.83515e-08 4.7924e-20 1.22476e-06 6.03159e-21 1.10128e-06)
(1.21185e-06 9.62734e-08 -9.32263e-21 1.50179e-06 -3.07986e-21 1.35765e-06)
(1.43561e-06 6.40095e-09 2.4024e-20 1.8576e-06 2.61655e-21 1.64726e-06)
(1.16703e-06 1.50784e-08 -3.90051e-20 1.50876e-06 -4.03356e-21 1.33854e-06)
(1.01228e-06 3.69892e-08 5.97224e-20 1.29928e-06 5.68234e-21 1.15633e-06)
(1.05032e-06 6.73193e-08 3.76578e-21 1.32322e-06 -2.96415e-21 1.18681e-06)
(1.21308e-06 8.66991e-08 3.0138e-21 1.51728e-06 6.30582e-22 1.36605e-06)
(1.44341e-06 2.91626e-08 -6.75696e-21 1.86324e-06 -1.6987e-21 1.65391e-06)
(1.2237e-06 3.20528e-08 7.64896e-21 1.57696e-06 2.68967e-21 1.40093e-06)
(1.09504e-06 4.59263e-08 -3.32201e-20 1.40165e-06 -5.55406e-21 1.24881e-06)
(1.10908e-06 6.72877e-08 -5.48078e-20 1.40143e-06 -5.20048e-21 1.25523e-06)
(1.21624e-06 7.93098e-08 -1.73792e-21 1.53075e-06 -1.30603e-21 1.37441e-06)
(1.44924e-06 4.87074e-08 -9.51636e-21 1.86237e-06 -4.02583e-22 1.65632e-06)
(1.26755e-06 4.69412e-08 2.30748e-20 1.62643e-06 2.7727e-21 1.4475e-06)
(1.15707e-06 5.42237e-08 -6.39327e-21 1.4768e-06 8.60416e-22 1.31731e-06)
(1.15348e-06 6.81471e-08 2.01936e-20 1.45941e-06 3.97706e-21 1.30639e-06)
(1.2184e-06 7.40155e-08 -3.47726e-20 1.53954e-06 -2.61389e-21 1.37996e-06)
(1.44864e-06 6.49122e-08 1.54456e-20 1.85113e-06 1.98469e-21 1.65034e-06)
(1.29648e-06 5.95317e-08 1.90035e-20 1.65562e-06 1.24676e-21 1.47649e-06)
(1.19918e-06 6.15173e-08 1.82363e-20 1.5261e-06 1.5723e-21 1.36296e-06)
(1.18269e-06 6.93325e-08 5.71497e-21 1.49688e-06 6.82801e-22 1.3397e-06)
(1.21592e-06 7.01763e-08 3.37891e-20 1.5402e-06 4.8927e-21 1.37911e-06)
(1.44006e-06 7.81341e-08 2.41015e-21 1.82872e-06 -1.82839e-22 1.63479e-06)
(1.31114e-06 7.00478e-08 -5.33944e-21 1.66603e-06 -1.62561e-21 1.48897e-06)
(1.22391e-06 6.78427e-08 -2.12707e-20 1.5529e-06 -2.41062e-21 1.38868e-06)
(1.19817e-06 7.07051e-08 2.4688e-20 1.51595e-06 1.95631e-21 1.35696e-06)
(1.20767e-06 6.74558e-08 1.68813e-20 1.53193e-06 7.61971e-22 1.37088e-06)
(1.42376e-06 8.8805e-08 -1.07902e-21 1.79618e-06 -4.45266e-23 1.61031e-06)
(1.31333e-06 7.88004e-08 -2.32425e-20 1.66027e-06 -2.28092e-21 1.48713e-06)
(1.23419e-06 7.33871e-08 1.48082e-20 1.56093e-06 1.92987e-21 1.3978e-06)
(1.20207e-06 7.23226e-08 -1.80651e-20 1.51939e-06 -3.05961e-21 1.36062e-06)
(1.19414e-06 6.58095e-08 -6.39286e-21 1.51558e-06 -1.90873e-21 1.35598e-06)
(1.39879e-06 9.6925e-08 4.95723e-21 1.75307e-06 5.08332e-22 1.57621e-06)
(1.30341e-06 8.567e-08 4.70745e-21 1.6393e-06 1.55808e-21 1.47163e-06)
(1.2312e-06 7.79085e-08 -8.89329e-21 1.55198e-06 -1.33748e-21 1.3918e-06)
(1.19504e-06 7.38432e-08 -2.02653e-20 1.50837e-06 -1.1649e-21 1.35158e-06)
(1.17478e-06 6.48635e-08 -3.72179e-20 1.49085e-06 -3.32239e-21 1.33396e-06)
(1.36537e-06 1.02688e-07 -4.70821e-21 1.70015e-06 -5.01538e-22 1.533e-06)
(1.28247e-06 9.0722e-08 2.24269e-20 1.60485e-06 2.01911e-21 1.4439e-06)
(1.21639e-06 8.13279e-08 -1.4509e-21 1.52815e-06 -8.0928e-24 1.37245e-06)
(1.17807e-06 7.50283e-08 2.29356e-20 1.4844e-06 3.10213e-21 1.3311e-06)
(1.14934e-06 6.42474e-08 2.34352e-20 1.45778e-06 2.59256e-21 1.30472e-06)
(1.32563e-06 1.0658e-07 7.33679e-21 1.64016e-06 1.17578e-21 1.48311e-06)
(1.25318e-06 9.43455e-08 -1.75223e-20 1.56029e-06 -2.86769e-21 1.40694e-06)
(1.19262e-06 8.39043e-08 -2.66595e-21 1.493e-06 -1.14269e-22 1.34298e-06)
(1.15351e-06 7.6018e-08 8.48614e-21 1.45044e-06 9.34266e-22 1.30185e-06)
(1.11914e-06 6.39595e-08 -3.62218e-20 1.41807e-06 -4.31971e-21 1.26977e-06)
(1.28092e-06 1.08871e-07 1.41843e-20 1.5749e-06 1.35725e-21 1.42809e-06)
(1.21731e-06 9.67115e-08 -2.29436e-20 1.50795e-06 -2.21601e-21 1.3628e-06)
(1.16188e-06 8.57169e-08 6.37558e-21 1.44909e-06 4.93446e-22 1.30564e-06)
(1.12304e-06 7.67956e-08 2.43157e-20 1.40868e-06 2.68227e-21 1.26573e-06)
(1.08541e-06 6.39485e-08 3.86959e-21 1.37335e-06 9.6792e-22 1.23055e-06)
(1.23139e-06 1.09635e-07 -8.09189e-21 1.50482e-06 -1.04431e-21 1.36825e-06)
(1.17545e-06 9.78081e-08 1.03301e-21 1.44882e-06 7.38537e-22 1.31228e-06)
(1.1249e-06 8.66538e-08 -1.34871e-20 1.39761e-06 -1.66379e-21 1.2614e-06)
(1.08715e-06 7.71529e-08 8.89669e-21 1.35998e-06 4.89765e-23 1.22344e-06)
(1.0481e-06 6.39525e-08 -9.05331e-21 1.32379e-06 -1.29166e-21 1.18712e-06)
(1.1776e-06 1.09019e-07 8.14548e-21 1.43073e-06 1.02063e-21 1.3043e-06)
(1.12837e-06 9.77027e-08 1.2318e-20 1.38405e-06 1.0489e-21 1.25633e-06)
(1.08255e-06 8.66983e-08 -8.54139e-22 1.33985e-06 6.39575e-22 1.21133e-06)
(1.04651e-06 7.69645e-08 -2.64866e-20 1.30545e-06 -3.49074e-21 1.17586e-06)
(1.00737e-06 6.3737e-08 -1.45136e-20 1.26981e-06 -1.37596e-21 1.13975e-06)
(1.1218e-06 1.07411e-07 -3.17979e-21 1.35524e-06 -5.63067e-22 1.23862e-06)
(1.07787e-06 9.66674e-08 -2.20486e-20 1.31579e-06 -2.80825e-21 1.19692e-06)
(1.03651e-06 8.60229e-08 2.97925e-20 1.2779e-06 3.61222e-21 1.15735e-06)
(1.00262e-06 7.6334e-08 -2.23044e-20 1.24695e-06 -1.59737e-21 1.12467e-06)
(9.64326e-07 6.33286e-08 5.64843e-21 1.21284e-06 7.64223e-22 1.08972e-06)
(1.10311e-06 1.14642e-07 1.8985e-21 1.31038e-06 6.63074e-23 1.20679e-06)
(1.06387e-06 1.04774e-07 -4.48201e-21 1.27852e-06 -7.94342e-22 1.1713e-06)
(1.02465e-06 9.48138e-08 -4.66812e-21 1.24491e-06 2.61877e-22 1.13479e-06)
(9.87585e-07 8.46707e-08 1.27735e-20 1.21284e-06 7.52787e-22 1.10036e-06)
(9.56094e-07 7.52307e-08 2.95625e-20 1.18537e-06 4.0439e-21 1.07062e-06)
(9.19468e-07 6.26677e-08 -4.14268e-21 1.15361e-06 -6.73388e-22 1.03764e-06)
(1.03803e-06 1.10285e-07 -4.97028e-21 1.22624e-06 -4.69354e-22 1.13216e-06)
(1.00345e-06 1.01257e-07 -2.44238e-20 1.19993e-06 -2.75508e-21 1.10175e-06)
(9.69572e-07 9.21647e-08 3.4716e-20 1.17276e-06 3.90353e-21 1.07117e-06)
(9.36229e-07 8.2618e-08 -1.73975e-20 1.14542e-06 -2.04841e-21 1.04097e-06)
(9.07282e-07 7.35739e-08 2.26715e-20 1.12136e-06 2.10438e-21 1.01421e-06)
(8.72931e-07 6.16252e-08 -8.69272e-21 1.09247e-06 -8.41827e-22 9.83755e-07)
(9.72338e-07 1.05246e-07 1.31414e-20 1.14277e-06 1.67812e-21 1.05758e-06)
(9.42503e-07 9.71465e-08 5.81061e-21 1.12172e-06 9.35116e-22 1.03217e-06)
(9.12852e-07 8.8827e-08 -1.7489e-20 1.0995e-06 -2.45017e-21 1.00617e-06)
(8.8305e-07 7.99437e-08 1.15577e-20 1.07644e-06 1.45378e-21 9.79872e-07)
(8.56786e-07 7.14068e-08 -2.71439e-21 1.05572e-06 -7.17444e-22 9.56146e-07)
(8.2502e-07 6.01723e-08 6.67194e-21 1.02989e-06 8.72736e-22 9.28461e-07)
(9.06912e-07 9.97302e-08 3.72912e-21 1.06087e-06 1.64856e-22 9.83907e-07)
(8.81147e-07 9.2487e-08 -4.01961e-21 1.04412e-06 -3.76917e-22 9.6267e-07)
(8.55338e-07 8.49439e-08 4.32926e-21 1.02616e-06 7.96612e-22 9.40729e-07)
(8.28924e-07 7.67692e-08 -1.06022e-20 1.00695e-06 -1.19465e-21 9.18051e-07)
(8.05356e-07 6.87999e-08 -7.25315e-21 9.89425e-07 -8.51333e-22 8.97289e-07)
(7.76282e-07 5.83327e-08 -4.56492e-22 9.66629e-07 -3.88022e-23 8.72401e-07)
(8.42935e-07 9.39797e-08 -1.4333e-20 9.81712e-07 -1.70892e-21 9.12331e-07)
(8.20761e-07 8.75375e-08 1.63068e-20 9.68563e-07 2.18016e-21 8.94692e-07)
(7.98336e-07 8.07413e-08 6.97362e-21 9.54158e-07 6.22962e-22 8.76226e-07)
(7.75009e-07 7.32751e-08 1.6601e-20 9.38283e-07 1.94088e-21 8.5675e-07)
(7.54026e-07 6.59043e-08 -4.07728e-21 9.23662e-07 -3.1218e-22 8.38752e-07)
(7.27611e-07 5.62236e-08 9.04353e-21 9.03747e-07 8.60468e-22 8.16565e-07)
(7.81454e-07 8.81937e-08 6.75299e-21 9.06339e-07 9.33201e-22 8.43905e-07)
(7.62336e-07 8.24799e-08 1.79376e-20 8.9608e-07 1.92939e-21 8.29234e-07)
(7.42864e-07 7.63859e-08 -1.53646e-20 8.84611e-07 -1.74862e-21 8.13713e-07)
(7.22344e-07 6.9612e-08 -1.37038e-20 8.71619e-07 -2.03514e-21 7.97072e-07)
(7.03812e-07 6.28534e-08 5.79561e-21 8.59631e-07 6.89292e-22 7.81636e-07)
(6.79985e-07 5.39624e-08 -1.89658e-20 8.42421e-07 -2.07671e-21 7.62025e-07)
(7.23097e-07 8.25059e-08 -2.61426e-21 8.35338e-07 -5.95834e-22 7.79227e-07)
(7.06636e-07 7.74548e-08 -8.03969e-21 8.27454e-07 -9.34051e-22 7.67062e-07)
(6.89757e-07 7.2016e-08 1.69775e-20 8.18426e-07 2.14999e-21 7.54061e-07)
(6.71754e-07 6.59082e-08 -2.43436e-20 8.07886e-07 -2.71804e-21 7.39898e-07)
(6.55469e-07 5.97585e-08 -5.34966e-21 7.98191e-07 -7.02634e-22 7.26747e-07)
(6.34117e-07 5.16454e-08 2.48127e-20 7.83487e-07 2.90746e-21 7.09566e-07)
(6.67792e-07 7.6947e-08 -2.74114e-20 7.68548e-07 -3.26734e-21 7.18185e-07)
(6.53544e-07 7.24803e-08 2.27226e-20 7.6251e-07 2.65325e-21 7.08039e-07)
(6.38976e-07 6.76517e-08 -4.57547e-21 7.5554e-07 -5.88252e-22 6.97219e-07)
(6.23265e-07 6.21787e-08 4.86335e-21 7.47116e-07 8.37423e-22 6.85255e-07)
(6.09022e-07 5.66185e-08 2.21354e-21 7.39402e-07 5.43326e-23 6.74134e-07)
(5.90021e-07 4.92621e-08 -1.88461e-20 7.27e-07 -2.33003e-21 6.5922e-07)
(6.15373e-07 7.15323e-08 8.59515e-21 7.05706e-07 1.20974e-21 6.60549e-07)
(6.02781e-07 6.75603e-08 -2.3897e-20 7.00863e-07 -3.06432e-21 6.51821e-07)
(5.90329e-07 6.32953e-08 1.54737e-20 6.95707e-07 1.9511e-21 6.42987e-07)
(5.76713e-07 5.84192e-08 5.6705e-21 6.89125e-07 5.54565e-22 6.3298e-07)
(5.64307e-07 5.34155e-08 -2.76704e-20 6.83104e-07 -3.36116e-21 6.23633e-07)
(5.47554e-07 4.6782e-08 1.25162e-20 6.72836e-07 1.68173e-21 6.10852e-07)
(5.74836e-07 6.92243e-08 2.96733e-22 6.48117e-07 -1.35813e-22 6.115e-07)
(5.64752e-07 6.61316e-08 -5.65467e-21 6.45648e-07 -6.83859e-22 6.05212e-07)
(5.53769e-07 6.26517e-08 4.18796e-21 6.41811e-07 7.47357e-22 5.97752e-07)
(5.43154e-07 5.88799e-08 5.01562e-21 6.38187e-07 4.77308e-22 5.90657e-07)
(5.31373e-07 5.45436e-08 -1.18974e-20 6.33122e-07 -1.34983e-21 5.8231e-07)
(5.20685e-07 5.00633e-08 -5.48519e-21 6.28612e-07 -5.66946e-22 5.74584e-07)
(5.06106e-07 4.41219e-08 6.86126e-21 6.20337e-07 6.61038e-22 5.63823e-07)
(5.24092e-07 6.34526e-08 -2.67694e-20 5.89175e-07 -3.32841e-21 5.5665e-07)
(5.15209e-07 6.07145e-08 9.77771e-21 5.87376e-07 1.37445e-21 5.51298e-07)
(5.06025e-07 5.76894e-08 8.42362e-21 5.849e-07 9.13902e-22 5.45436e-07)
(4.96857e-07 5.4347e-08 -2.85561e-21 5.82306e-07 -4.84327e-22 5.39578e-07)
(4.86705e-07 5.04943e-08 1.68214e-20 5.78512e-07 2.22873e-21 5.32665e-07)
(4.77654e-07 4.6496e-08 -1.73068e-20 5.75404e-07 -1.77821e-21 5.2647e-07)
(4.65154e-07 4.1204e-08 -9.02931e-21 5.68956e-07 -1.21173e-21 5.17588e-07)
(4.74884e-07 5.77604e-08 -7.09829e-22 5.32483e-07 1.09216e-22 5.03708e-07)
(4.67267e-07 5.53659e-08 1.88382e-20 5.31425e-07 2.26853e-21 4.99365e-07)
(4.594e-07 5.27041e-08 -1.47535e-20 5.29809e-07 -1.88716e-21 4.94587e-07)
(4.51567e-07 4.97488e-08 -1.70793e-20 5.28133e-07 -2.07745e-21 4.89852e-07)
(4.42931e-07 4.63358e-08 1.37632e-20 5.25483e-07 1.70098e-21 4.84257e-07)
(4.35405e-07 4.27753e-08 3.60892e-20 5.23645e-07 4.45812e-21 4.79478e-07)
(4.24824e-07 3.8082e-08 -1.24647e-20 5.18805e-07 -1.62898e-21 4.7228e-07)
(4.27805e-07 5.22383e-08 6.6287e-21 4.78622e-07 7.71288e-22 4.53228e-07)
(4.21261e-07 5.01387e-08 -8.49438e-22 4.78132e-07 -1.27559e-22 4.49707e-07)
(4.14555e-07 4.77973e-08 -1.55744e-21 4.77228e-07 -8.3253e-23 4.45869e-07)
(4.07935e-07 4.51885e-08 -8.50257e-22 4.76349e-07 -4.69388e-23 4.42137e-07)
(4.00668e-07 4.21698e-08 2.41087e-20 4.74685e-07 2.78676e-21 4.37709e-07)
(3.94533e-07 3.90014e-08 -3.96212e-21 4.73971e-07 -6.96965e-22 4.3421e-07)
(3.85688e-07 3.4849e-08 -3.35813e-20 4.70517e-07 -3.96106e-21 4.28487e-07)
(3.83486e-07 4.69987e-08 -1.37226e-20 4.28123e-07 -1.71742e-21 4.05828e-07)
(3.7784e-07 4.5152e-08 1.64991e-20 4.28062e-07 2.01712e-21 4.02978e-07)
(3.721e-07 4.30894e-08 4.19976e-21 4.27676e-07 6.34734e-22 3.99878e-07)
(3.66522e-07 4.07853e-08 -8.99575e-21 4.27434e-07 -1.20939e-21 3.96983e-07)
(3.60451e-07 3.8116e-08 -1.18272e-20 4.26587e-07 -1.44795e-21 3.93551e-07)
(3.55537e-07 3.52955e-08 4.27834e-21 4.26821e-07 4.65165e-22 3.91165e-07)
(3.4818e-07 3.16209e-08 3.26627e-21 4.24488e-07 7.28828e-22 3.86667e-07)
(3.43114e-07 4.21946e-08 5.96077e-21 3.82258e-07 7.20446e-22 3.6269e-07)
(3.38211e-07 4.05671e-08 -9.52315e-21 3.82492e-07 -1.262e-21 3.60359e-07)
(3.33277e-07 3.87439e-08 2.45137e-20 3.82501e-07 2.94214e-21 3.57865e-07)
(3.28624e-07 3.67128e-08 -1.95385e-20 3.82795e-07 -2.3602e-21 3.55701e-07)
(3.23652e-07 3.43621e-08 2.7391e-20 3.82689e-07 3.3743e-21 3.53182e-07)
(3.1985e-07 3.18673e-08 -1.49402e-20 3.83747e-07 -1.88821e-21 3.51782e-07)
(3.13948e-07 2.86357e-08 3.04119e-20 3.82545e-07 3.70931e-21 3.48507e-07)
(3.08819e-07 3.80459e-08 -1.55633e-20 3.43689e-07 -2.09042e-21 3.26258e-07)
(3.04388e-07 3.65652e-08 -3.89316e-22 3.4402e-07 -1.13647e-23 3.24207e-07)
(2.99983e-07 3.49086e-08 -1.0833e-20 3.44191e-07 -1.39058e-21 3.22056e-07)
(2.95943e-07 3.30615e-08 -6.32596e-22 3.44773e-07 3.64656e-23 3.20349e-07)
(2.91712e-07 3.09245e-08 -4.73174e-21 3.45096e-07 -8.06773e-22 3.18408e-07)
(2.88688e-07 2.86381e-08 -7.81184e-21 3.46698e-07 -8.48292e-22 3.17682e-07)
(2.84003e-07 2.57392e-08 1.088e-20 3.46415e-07 1.04894e-21 3.15401e-07)
(2.81532e-07 3.47562e-08 -2.25592e-20 3.12905e-07 -2.73745e-21 2.97229e-07)
(2.77348e-07 3.3381e-08 -3.45581e-21 3.13169e-07 -3.67203e-22 2.95266e-07)
(2.7329e-07 3.18506e-08 1.3082e-20 3.13394e-07 1.66003e-21 2.93324e-07)
(2.69574e-07 3.01373e-08 1.25022e-23 3.14007e-07 -4.91865e-23 2.91801e-07)
(2.65698e-07 2.81531e-08 -1.1353e-20 3.14388e-07 -1.48234e-21 2.90064e-07)
(2.63073e-07 2.60193e-08 1.12259e-21 3.1615e-07 4.73526e-22 2.89633e-07)
(2.59042e-07 2.33641e-08 -1.70641e-20 3.16212e-07 -2.29845e-21 2.87799e-07)
(2.57795e-07 3.19211e-08 3.23286e-21 2.85925e-07 5.61786e-22 2.71863e-07)
(2.53819e-07 3.06489e-08 9.88299e-21 2.86105e-07 1.23521e-21 2.69967e-07)
(2.50034e-07 2.92384e-08 -7.6946e-21 2.86332e-07 -1.02325e-21 2.68172e-07)
(2.46541e-07 2.76537e-08 -1.08497e-20 2.86878e-07 -1.42829e-21 2.66729e-07)
(2.42886e-07 2.58119e-08 -2.06181e-20 2.87192e-07 -2.36172e-21 2.65069e-07)
(2.40461e-07 2.38308e-08 4.37721e-20 2.88874e-07 5.26058e-21 2.64696e-07)
(2.36916e-07 2.13987e-08 -2.92217e-20 2.89153e-07 -3.32191e-21 2.63172e-07)
(2.34755e-07 2.91581e-08 9.2358e-21 2.59773e-07 1.1705e-21 2.47245e-07)
(2.30871e-07 2.79713e-08 -3.22005e-21 2.5975e-07 -4.75196e-22 2.45281e-07)
(2.27401e-07 2.66778e-08 2.95606e-21 2.60049e-07 3.84382e-22 2.43684e-07)
(2.24195e-07 2.52212e-08 -1.69951e-20 2.60618e-07 -2.11338e-21 2.42386e-07)
(2.20813e-07 2.35161e-08 2.57577e-20 2.60949e-07 3.25606e-21 2.4087e-07)
(2.18613e-07 2.16816e-08 -2.51714e-20 2.62593e-07 -3.21897e-21 2.40595e-07)
(2.15608e-07 1.94771e-08 3.46736e-20 2.63146e-07 4.34031e-21 2.39469e-07)
(2.15304e-07 2.73169e-08 1.25499e-20 2.33564e-07 1.59912e-21 2.24485e-07)
(2.11463e-07 2.63626e-08 6.43737e-21 2.33348e-07 8.06817e-22 2.22456e-07)
(2.07627e-07 2.52701e-08 -5.54194e-21 2.32995e-07 -7.29936e-22 2.20332e-07)
(2.04321e-07 2.40766e-08 -4.99677e-21 2.33216e-07 -6.76484e-22 2.18801e-07)
(2.01303e-07 2.27364e-08 -1.10666e-20 2.33705e-07 -1.27474e-21 2.17543e-07)
(1.98261e-07 2.11717e-08 -1.09962e-20 2.34145e-07 -1.41257e-21 2.16228e-07)
(1.96474e-07 1.94917e-08 2.84752e-20 2.35996e-07 3.64308e-21 2.16238e-07)
(1.94662e-07 1.7541e-08 -1.60051e-20 2.37666e-07 -2.08273e-21 2.16177e-07)
(1.91588e-07 2.43562e-08 -6.31244e-21 2.07306e-07 -7.7714e-22 1.99344e-07)
(1.87333e-07 2.33995e-08 1.06445e-20 2.06371e-07 1.24716e-21 1.96762e-07)
(1.8332e-07 2.23427e-08 -1.10482e-20 2.0554e-07 -1.28539e-21 1.94345e-07)
(1.7965e-07 2.11723e-08 -9.78127e-21 2.05047e-07 -1.27223e-21 1.92304e-07)
(1.76307e-07 1.98705e-08 9.09504e-21 2.04851e-07 1.10143e-21 1.90581e-07)
(1.73065e-07 1.8374e-08 1.81491e-20 2.04723e-07 2.43803e-21 1.88944e-07)
(1.70614e-07 1.66826e-08 -3.30855e-21 2.05546e-07 -6.28031e-22 1.88231e-07)
(1.67885e-07 1.48065e-08 8.35305e-21 2.05637e-07 1.1473e-21 1.87078e-07)
(1.61335e-07 2.06327e-08 2.04064e-20 1.73327e-07 2.60705e-21 1.67448e-07)
(1.57059e-07 1.97352e-08 -2.39937e-20 1.72202e-07 -3.12742e-21 1.64658e-07)
(1.53246e-07 1.8742e-08 2.78305e-20 1.71488e-07 3.58105e-21 1.6228e-07)
(1.50034e-07 1.76402e-08 -2.19707e-20 1.71431e-07 -2.74598e-21 1.60555e-07)
(1.47491e-07 1.6419e-08 -2.52026e-20 1.72052e-07 -3.22761e-21 1.59493e-07)
(1.45576e-07 1.50392e-08 3.62509e-20 1.73297e-07 4.59044e-21 1.58999e-07)
(1.45958e-07 1.36786e-08 -2.25276e-20 1.77034e-07 -2.86442e-21 1.60807e-07)
(1.48452e-07 1.22544e-08 1.77558e-20 1.83103e-07 2.1858e-21 1.64713e-07)
(1.19313e-07 1.53526e-08 3.0496e-21 1.27068e-07 2.95962e-22 1.23622e-07)
(1.12466e-07 1.4248e-08 -2.13341e-20 1.22487e-07 -2.65515e-21 1.18124e-07)
(1.06254e-07 1.30983e-08 1.39006e-20 1.18423e-07 1.63654e-21 1.13176e-07)
(1.00945e-07 1.18991e-08 -3.74923e-21 1.15299e-07 -3.30636e-22 1.09176e-07)
(9.64836e-08 1.0595e-08 -1.54384e-20 1.13074e-07 -1.84494e-21 1.06066e-07)
(9.27527e-08 9.07563e-09 4.08957e-20 1.11659e-07 4.97067e-21 1.03803e-07)
(8.98043e-08 6.87716e-09 -2.12599e-20 1.11456e-07 -2.49218e-21 1.02935e-07)
(8.63847e-08 4.74399e-09 4.29916e-21 1.09202e-07 3.75314e-22 1.00702e-07)
(9.52904e-08 1.17252e-08 -1.06672e-20 1.03094e-07 -1.33243e-21 9.65723e-08)
(9.29717e-08 1.08014e-08 -1.08216e-20 1.04189e-07 -1.30272e-21 9.55679e-08)
(9.20807e-08 9.74156e-09 -1.75004e-20 1.06644e-07 -2.27527e-21 9.59811e-08)
(9.27441e-08 8.54427e-09 3.01205e-20 1.10618e-07 3.77172e-21 9.79706e-08)
(9.54843e-08 7.3059e-09 5.03907e-21 1.16512e-07 6.83069e-22 1.01885e-07)
(1.00601e-07 6.16697e-09 -9.76807e-21 1.24349e-07 -1.32205e-21 1.07578e-07)
(1.12512e-07 6.05291e-09 2.53991e-20 1.3906e-07 3.19325e-21 1.19464e-07)
(1.29802e-07 5.87206e-09 -3.83015e-20 1.6089e-07 -4.76171e-21 1.37552e-07)
(1.11854e-07 4.07758e-09 1.41076e-20 9.34997e-08 1.77762e-21 1.1182e-07)
(1.1065e-07 3.46582e-09 4.75345e-21 9.31061e-08 6.47145e-22 1.11539e-07)
(1.09317e-07 2.94318e-09 -2.08853e-20 9.26494e-08 -2.57998e-21 1.11062e-07)
(1.07604e-07 2.41775e-09 -1.43059e-20 9.21797e-08 -1.8912e-21 1.10436e-07)
(1.05986e-07 1.60893e-09 5.49433e-21 9.24147e-08 7.70105e-22 1.1044e-07)
(1.08123e-07 5.02657e-11 6.54994e-21 9.76329e-08 7.32867e-22 1.15603e-07)