/*--------------------------------*- C++ -*----------------------------------*\
| =========                 |                                                 |
| \\      /  F ield         | OpenFOAM: The Open Source CFD Toolbox           |
|  \\    /   O peration     | Version:  2506                                  |
|   \\  /    A nd           | Website:  www.openfoam.com                      |
|    \\/     M anipulation  |                                                 |
\*---------------------------------------------------------------------------*/
FoamFile
{
    version     2.0;
    format      ascii;
    arch        "LSB;label=32;scalar=64";
    class       volScalarField;
    location    "150";
    object      turbulenceProperties:I;
}
// * * * * * * * * * * * * * * * * * * * * * * * * * * * * * * * * * * * * * //

dimensions      [0 0 0 0 0 0 0];

internalField   nonuniform List<scalar> 
1340
(
0.244771
0.246182
0.249589
0.256513
0.0398798
0.0426895
0.0478457
0.0615688
0.0183823
0.02186
0.0243063
0.034337
0.00363238
0.00655711
0.0104874
0.0211644
0.000762006
0.00122965
0.00196709
0.00926681
0.000284224
0.000517833
0.000946365
0.0031617
7.56507e-05
3.4704e-05
1.22752e-05
0.000650791
0.000140684
0.000115439
3.99744e-05
0.00019755
0.000162392
0.000169436
0.000169154
3.24327e-05
0.0001492
0.0001486
0.000193177
0.000117922
0.000150688
0.00015043
0.000180431
0.00020164
0.000145318
0.00014607
0.000165883
0.000212868
0.00014293
0.000143869
0.00015898
0.000203731
0.000139185
0.000139573
0.000152853
0.000192449
0.000135775
0.000135656
0.000146983
0.000182065
0.000131872
0.000131268
0.00014084
0.000172237
0.000127843
0.000126777
0.000134709
0.000162723
0.000123609
0.00012207
0.000128565
0.000153468
0.000119237
0.000117209
0.000122414
0.000144452
0.000114686
0.000112168
0.000116262
0.000135716
0.000109936
0.000106933
0.000110086
0.000127256
0.000104985
0.000101508
0.000103899
0.000119104
9.9877e-05
9.59084e-05
9.76947e-05
0.000111278
9.46399e-05
9.01569e-05
9.14545e-05
0.000103742
8.9247e-05
8.42296e-05
8.51862e-05
9.65141e-05
8.36813e-05
7.8104e-05
7.8894e-05
8.96167e-05
7.79946e-05
7.17849e-05
7.25865e-05
8.30847e-05
7.22576e-05
6.52768e-05
6.62495e-05
7.69059e-05
6.65136e-05
5.85537e-05
5.98886e-05
7.10848e-05
6.0805e-05
5.15467e-05
5.35458e-05
6.56766e-05
5.52227e-05
4.41287e-05
4.73432e-05
6.07843e-05
4.99877e-05
3.61296e-05
4.15398e-05
5.65263e-05
4.551e-05
2.73582e-05
3.66844e-05
5.29817e-05
4.22827e-05
1.90911e-05
3.37576e-05
5.02116e-05
4.06866e-05
2.16428e-05
3.34998e-05
4.82708e-05
4.07041e-05
2.84088e-05
3.51736e-05
4.70907e-05
4.17872e-05
3.36649e-05
3.75058e-05
4.64872e-05
4.33026e-05
3.76488e-05
3.98364e-05
4.632e-05
5.12706e-05
4.48912e-05
4.06469e-05
4.18336e-05
4.63865e-05
5.13616e-05
4.62206e-05
4.28987e-05
4.34109e-05
4.6504e-05
5.1452e-05
4.72738e-05
4.45681e-05
4.4626e-05
4.66199e-05
5.147e-05
4.80365e-05
4.5757e-05
4.55048e-05
4.66869e-05
5.13514e-05
4.84933e-05
4.65215e-05
4.60572e-05
4.66447e-05
5.10781e-05
4.8671e-05
4.6933e-05
4.63266e-05
4.64769e-05
5.06586e-05
4.861e-05
4.70581e-05
4.63604e-05
4.61942e-05
5.00797e-05
4.83212e-05
4.6925e-05
4.61753e-05
4.5787e-05
4.93454e-05
4.78257e-05
4.6563e-05
4.57916e-05
4.52509e-05
4.84899e-05
4.71689e-05
4.60234e-05
4.52513e-05
4.46084e-05
4.75342e-05
4.63804e-05
4.53403e-05
4.45836e-05
4.38809e-05
4.64785e-05
4.54681e-05
4.45251e-05
4.37955e-05
4.30654e-05
4.53292e-05
4.4443e-05
4.35912e-05
4.28977e-05
4.21629e-05
4.41232e-05
4.33337e-05
4.25667e-05
4.19154e-05
4.11923e-05
4.35358e-05
4.28572e-05
4.21491e-05
4.14633e-05
4.08575e-05
4.0161e-05
4.21157e-05
4.15168e-05
4.09053e-05
4.02871e-05
3.97285e-05
3.90697e-05
4.0654e-05
4.01369e-05
3.96007e-05
3.90462e-05
3.85371e-05
3.79217e-05
3.91639e-05
3.87166e-05
3.82487e-05
3.77549e-05
3.72958e-05
3.67258e-05
3.76665e-05
3.72811e-05
3.68734e-05
3.64346e-05
3.60236e-05
3.54991e-05
3.61831e-05
3.58503e-05
3.5495e-05
3.51067e-05
3.47419e-05
3.42624e-05
3.47282e-05
3.44416e-05
3.41327e-05
3.37899e-05
3.34679e-05
3.30327e-05
3.33021e-05
3.30537e-05
3.27866e-05
3.24858e-05
3.22034e-05
3.18112e-05
3.19024e-05
3.16805e-05
3.14532e-05
3.11914e-05
3.09449e-05
3.05953e-05
3.06696e-05
3.05039e-05
3.03071e-05
3.01156e-05
2.98882e-05
2.96761e-05
2.93689e-05
2.92309e-05
2.90836e-05
2.89214e-05
2.87561e-05
2.85593e-05
2.83815e-05
2.8116e-05
2.77781e-05
2.76526e-05
2.7514e-05
2.73738e-05
2.72067e-05
2.70623e-05
2.68362e-05
2.63248e-05
2.62177e-05
2.61007e-05
2.59841e-05
2.58449e-05
2.57329e-05
2.55434e-05
2.48884e-05
2.47968e-05
2.46973e-05
2.46017e-05
2.44876e-05
2.44057e-05
2.42483e-05
2.35101e-05
2.34311e-05
2.33465e-05
2.32706e-05
2.31817e-05
2.3129e-05
2.30068e-05
2.22843e-05
2.22113e-05
2.21349e-05
2.20714e-05
2.19989e-05
2.19676e-05
2.18766e-05
2.12596e-05
2.11869e-05
2.11147e-05
2.10553e-05
2.09876e-05
2.09661e-05
2.08894e-05
2.03229e-05
2.02497e-05
2.018e-05
2.01215e-05
2.00543e-05
2.0035e-05
1.99685e-05
1.93726e-05
1.9294e-05
1.9229e-05
1.91742e-05
1.91102e-05
1.90946e-05
1.90419e-05
1.84505e-05
1.83658e-05
1.82771e-05
1.82112e-05
1.8156e-05
1.80982e-05
1.80951e-05
1.80876e-05
1.73835e-05
1.72692e-05
1.71615e-05
1.70682e-05
1.6988e-05
1.69107e-05
1.68722e-05
1.68114e-05
1.59195e-05
1.57885e-05
1.56768e-05
1.55949e-05
1.55449e-05
1.55238e-05
1.56169e-05
1.58135e-05
1.36621e-05
1.33456e-05
1.30542e-05
1.28109e-05
1.26154e-05
1.24649e-05
1.23813e-05
1.22166e-05
1.21979e-05
1.21519e-05
1.21929e-05
1.23288e-05
1.25823e-05
1.29496e-05
1.36776e-05
1.46931e-05
1.265e-05
1.26127e-05
1.25674e-05
1.25108e-05
1.24825e-05
1.27321e-05
1.39488e-05
1.51002e-05
2.14963e-05
2.19019e-05
2.22486e-05
2.25617e-05
2.29107e-05
2.34013e-05
2.45688e-05
2.55217e-05
2.91497e-05
2.91803e-05
2.91989e-05
2.92081e-05
2.92127e-05
2.92582e-05
2.95512e-05
2.8826e-05
4.04347e-05
4.0423e-05
4.03926e-05
4.03498e-05
4.0283e-05
4.02392e-05
4.00756e-05
3.86149e-05
0.13201
0.0622385
0.032116
0.0178105
0.00744629
0.00192197
0.000625835
0.000191276
3.80093e-05
0.000157837
0.000221266
0.000222315
0.000210815
0.000199223
0.000188689
0.000178731
0.000169092
0.00015975
0.000150717
0.00014198
0.000133577
0.000125531
0.000117845
0.00011051
0.000103533
9.69544e-05
9.07891e-05
8.50183e-05
7.96351e-05
7.46683e-05
7.01666e-05
6.61579e-05
6.26317e-05
5.9584e-05
5.70266e-05
5.49224e-05
5.32123e-05
5.18645e-05
5.07867e-05
4.9882e-05
4.91198e-05
4.84524e-05
4.78156e-05
4.71792e-05
4.65329e-05
4.58481e-05
4.51078e-05
4.43199e-05
4.34922e-05
4.26118e-05
4.1674e-05
4.06902e-05
3.9663e-05
3.85889e-05
3.74676e-05
3.63053e-05
3.51165e-05
3.39198e-05
3.27295e-05
3.15459e-05
3.03662e-05
2.91747e-05
2.7957e-05
2.67133e-05
2.54572e-05
2.41968e-05
2.29905e-05
2.18889e-05
2.09239e-05
2.00183e-05
1.91018e-05
1.81742e-05
1.68728e-05
1.60387e-05
1.21981e-05
1.53959e-05
1.4324e-05
2.5359e-05
2.70044e-05
3.64157e-05
0.0881286
0.0470438
0.0211857
0.00879142
0.00286105
0.000746846
0.000333581
8.70186e-06
3.78484e-05
0.00014615
0.000167414
0.000165032
0.000159421
0.00015421
0.000149347
0.000144482
0.00013952
0.000134443
0.000129301
0.000124106
0.000118903
0.000113718
0.00010857
0.000103502
9.85428e-05
9.37354e-05
8.9108e-05
8.46705e-05
8.04356e-05
7.64434e-05
7.27297e-05
6.93097e-05
6.61784e-05
6.33406e-05
6.08089e-05
5.85603e-05
5.65778e-05
5.48558e-05
5.33443e-05
5.19957e-05
5.08032e-05
4.97327e-05
4.87385e-05
4.77981e-05
4.68984e-05
4.60077e-05
4.51071e-05
4.42e-05
4.32843e-05
4.23421e-05
4.13654e-05
4.03608e-05
3.93265e-05
3.82554e-05
3.71455e-05
3.60018e-05
3.4837e-05
3.36677e-05
3.25048e-05
3.13474e-05
3.01922e-05
2.90234e-05
2.78278e-05
2.66075e-05
2.53758e-05
2.41392e-05
2.29526e-05
2.1863e-05
2.0911e-05
2.00194e-05
1.91098e-05
1.81914e-05
1.68871e-05
1.60997e-05
1.21501e-05
1.57917e-05
1.32343e-05
2.54506e-05
2.68173e-05
3.68372e-05
0.0629672
0.0339964
0.0131075
0.00371936
0.000810342
0.000347214
0.000113004
1.85611e-05
7.64807e-05
0.000128058
0.000128711
0.00012517
0.000121489
0.000118336
0.00011537
0.000112408
0.00010945
0.00010649
0.00010352
0.000100583
9.76535e-05
9.47424e-05
9.18343e-05
8.89566e-05
8.6108e-05
8.32861e-05
8.05003e-05
7.77552e-05
7.50526e-05
7.24193e-05
6.98743e-05
6.74282e-05
6.50885e-05
6.2871e-05
6.07904e-05
5.88438e-05
5.70385e-05
5.53811e-05
5.38477e-05
5.24227e-05
5.11142e-05
4.9902e-05
4.876e-05
4.76788e-05
4.66486e-05
4.56436e-05
4.46498e-05
4.36707e-05
4.26999e-05
4.17193e-05
4.07208e-05
3.97084e-05
3.86772e-05
3.76183e-05
3.65289e-05
3.54132e-05
3.4282e-05
3.31496e-05
3.20243e-05
3.0904e-05
2.97842e-05
2.86494e-05
2.74879e-05
2.63023e-05
2.5106e-05
2.39043e-05
2.27477e-05
2.16823e-05
2.07574e-05
1.98956e-05
1.90082e-05
1.81135e-05
1.68328e-05
1.60778e-05
1.22555e-05
1.59731e-05
1.27427e-05
2.53594e-05
2.65313e-05
3.6851e-05
0.0449273
0.0218758
0.00623525
0.000964098
0.000470978
6.18118e-06
8.76047e-06
3.73246e-05
9.10557e-05
0.000105922
0.000102139
0.000100044
9.80428e-05
9.63207e-05
9.45698e-05
9.27528e-05
9.09234e-05
8.90714e-05
8.72048e-05
8.53553e-05
8.34981e-05
8.16582e-05
7.98269e-05
7.80067e-05
7.62053e-05
7.44179e-05
7.2639e-05
7.0871e-05
6.91125e-05
6.73706e-05
6.56487e-05
6.39475e-05
6.22729e-05
6.06323e-05
5.90327e-05
5.74791e-05
5.59805e-05
5.45451e-05
5.31626e-05
5.18341e-05
5.05722e-05
4.93681e-05
4.82088e-05
4.70968e-05
4.60264e-05
4.49793e-05
4.39494e-05
4.29414e-05
4.19482e-05
4.09534e-05
3.99516e-05
3.89451e-05
3.79275e-05
3.68897e-05
3.58278e-05
3.47458e-05
3.36532e-05
3.25618e-05
3.14781e-05
3.03987e-05
2.93187e-05
2.82225e-05
2.70999e-05
2.59537e-05
2.47974e-05
2.36355e-05
2.25149e-05
2.14821e-05
2.05906e-05
1.97628e-05
1.89032e-05
1.80389e-05
1.67926e-05
1.60719e-05
1.24648e-05
1.6105e-05
1.25769e-05
2.52311e-05
2.61844e-05
3.66793e-05
0.02847
0.0106864
0.00144494
0.000105451
2.53097e-05
1.88148e-06
8.14256e-06
6.68707e-05
9.20311e-05
9.22052e-05
8.92065e-05
8.82961e-05
8.73139e-05
8.64121e-05
8.54e-05
8.43142e-05
8.31691e-05
8.19502e-05
8.06781e-05
7.93478e-05
7.79575e-05
7.65242e-05
7.50634e-05
7.3567e-05
7.2051e-05
7.05336e-05
6.9007e-05
6.74867e-05
6.59775e-05
6.44822e-05
6.30049e-05
6.15458e-05
6.01117e-05
5.87022e-05
5.73181e-05
5.59646e-05
5.46428e-05
5.33564e-05
5.20968e-05
5.08693e-05
4.96824e-05
4.85283e-05
4.74024e-05
4.63113e-05
4.52492e-05
4.42049e-05
4.31779e-05
4.21729e-05
4.1183e-05
4.01949e-05
3.92059e-05
3.82172e-05
3.72219e-05
3.62113e-05
3.51811e-05
3.41353e-05
3.30824e-05
3.20325e-05
3.09897e-05
2.99504e-05
2.89093e-05
2.78509e-05
2.67667e-05
2.56593e-05
2.45427e-05
2.34207e-05
2.23361e-05
2.1336e-05
2.0477e-05
1.96794e-05
1.88455e-05
1.80098e-05
1.67981e-05
1.61133e-05
1.272e-05
1.62845e-05
1.24734e-05
2.52313e-05
2.59954e-05
3.66324e-05
0.0139287
0.00277621
0.000828202
1.39346e-06
0
1.16755e-05
4.81248e-05
8.21347e-05
8.67113e-05
8.35799e-05
8.21746e-05
8.17471e-05
8.11019e-05
8.04248e-05
7.96311e-05
7.87803e-05
7.78615e-05
7.68792e-05
7.58477e-05
7.47571e-05
7.36186e-05
7.24387e-05
7.12289e-05
6.99796e-05
6.87025e-05
6.74119e-05
6.6103e-05
6.47901e-05
6.34703e-05
6.21455e-05
6.0823e-05
5.95064e-05
5.82048e-05
5.69184e-05
5.56499e-05
5.44056e-05
5.31851e-05
5.19913e-05
5.08183e-05
4.96717e-05
4.85544e-05
4.7459e-05
4.63856e-05
4.5339e-05
4.43118e-05
4.32987e-05
4.23012e-05
4.13228e-05
4.03571e-05
3.93937e-05
3.84324e-05
3.74732e-05
3.65092e-05
3.55326e-05
3.45395e-05
3.35338e-05
3.25233e-05
3.15165e-05
3.05157e-05
2.95175e-05
2.85157e-05
2.74956e-05
2.64502e-05
2.53824e-05
2.43069e-05
2.32259e-05
2.2178e-05
2.12115e-05
2.03855e-05
1.96175e-05
1.88092e-05
1.80007e-05
1.68247e-05
1.61795e-05
1.29999e-05
1.64938e-05
1.23254e-05
2.52823e-05
0.0037839
0.000961166
0
0
8.79835e-06
3.65358e-05
7.07021e-05
7.93378e-05
7.67976e-05
7.48823e-05
7.4587e-05
7.43559e-05
7.39371e-05
7.34639e-05
7.28998e-05
7.22907e-05
7.1619e-05
7.08852e-05
7.00987e-05
6.92557e-05
6.83679e-05
6.74384e-05
6.64652e-05
6.54549e-05
6.44193e-05
6.3363e-05
6.2294e-05
6.12193e-05
6.0128e-05
5.90246e-05
5.79159e-05
5.68047e-05
5.56968e-05
5.45927e-05
5.34934e-05
5.24033e-05
5.13233e-05
5.02565e-05
4.92006e-05
4.8161e-05
4.71369e-05
4.61245e-05
4.51283e-05
4.41485e-05
4.31795e-05
4.22209e-05
4.12739e-05
4.03411e-05
3.94167e-05
3.84936e-05
3.75731e-05
3.66546e-05
3.57312e-05
3.47959e-05
3.38464e-05
3.28862e-05
3.19223e-05
3.09618e-05
3.0006e-05
2.90511e-05
2.80914e-05
2.71125e-05
2.61083e-05
2.50832e-05
2.40519e-05
2.30148e-05
2.20058e-05
2.10763e-05
2.02864e-05
1.95491e-05
1.87694e-05
1.7993e-05
1.6858e-05
1.62567e-05
1.32844e-05
1.67033e-05
0.00106559
0
0
6.47482e-06
2.73648e-05
6.30178e-05
7.29714e-05
7.13753e-05
6.90519e-05
6.8562e-05
6.85204e-05
6.82639e-05
6.79029e-05
6.74874e-05
6.70096e-05
6.64917e-05
6.59228e-05
6.53041e-05
6.46419e-05
6.39381e-05
6.32012e-05
6.24321e-05
6.16266e-05
6.07936e-05
5.99461e-05
5.90868e-05
5.82217e-05
5.73479e-05
5.6456e-05
5.55521e-05
5.46418e-05
5.37266e-05
5.28098e-05
5.18907e-05
5.09688e-05
5.0047e-05
4.91254e-05
4.82073e-05
4.72919e-05
4.63805e-05
4.54715e-05
4.45654e-05
4.36657e-05
4.27716e-05
4.18803e-05
4.09937e-05
4.01128e-05
3.92395e-05
3.83696e-05
3.74991e-05
3.663e-05
3.57611e-05
3.4886e-05
3.39996e-05
3.31e-05
3.21904e-05
3.12771e-05
3.03661e-05
2.9458e-05
2.85495e-05
2.76342e-05
2.66986e-05
2.57389e-05
2.47593e-05
2.37749e-05
2.27849e-05
2.18205e-05
2.09327e-05
2.01812e-05
1.94772e-05
1.87281e-05
1.79795e-05
1.68878e-05
1.63401e-05
0
0
4.56733e-06
1.91269e-05
5.86501e-05
6.772e-05
6.66862e-05
6.44366e-05
6.37768e-05
6.3852e-05
6.37756e-05
6.35309e-05
6.32275e-05
6.28677e-05
6.24566e-05
6.19996e-05
6.14926e-05
6.09415e-05
6.035e-05
5.97228e-05
5.90642e-05
5.8376e-05
5.76608e-05
5.69241e-05
5.61815e-05
5.54394e-05
5.46923e-05
5.39353e-05
5.31656e-05
5.23892e-05
5.16088e-05
5.08262e-05
5.0044e-05
4.92574e-05
4.84671e-05
4.76754e-05
4.68807e-05
4.60874e-05
4.52936e-05
4.44966e-05
4.36953e-05
4.28931e-05
4.20896e-05
4.12846e-05
4.04772e-05
3.96692e-05
3.88613e-05
3.80547e-05
3.72471e-05
3.64368e-05
3.56261e-05
3.4813e-05
3.39928e-05
3.31608e-05
3.23151e-05
3.14602e-05
3.06008e-05
2.97419e-05
2.88833e-05
2.80227e-05
2.7155e-05
2.6268e-05
2.53554e-05
2.44239e-05
2.349e-05
2.25488e-05
2.16256e-05
2.07806e-05
2.00686e-05
1.93964e-05
1.86848e-05
0
3.42024e-06
1.53114e-05
5.43948e-05
6.32056e-05
6.22003e-05
6.00629e-05
5.9412e-05
5.95598e-05
5.96308e-05
5.95182e-05
5.93249e-05
5.90842e-05
5.87897e-05
5.84477e-05
5.80615e-05
5.76276e-05
5.71512e-05
5.66385e-05
5.60926e-05
5.55141e-05
5.49049e-05
5.42715e-05
5.36234e-05
5.29719e-05
5.23191e-05
5.16564e-05
5.09823e-05
5.02972e-05
4.96075e-05
4.89148e-05
4.8222e-05
4.75302e-05
4.68333e-05
4.61341e-05
4.5433e-05
4.47308e-05
4.40313e-05
4.33298e-05
4.2623e-05
4.19108e-05
4.11947e-05
4.04747e-05
3.97509e-05
3.90221e-05
3.82902e-05
3.75539e-05
3.68146e-05
3.60716e-05
3.53247e-05
3.45754e-05
3.38213e-05
3.30589e-05
3.22864e-05
3.15028e-05
3.07056e-05
2.99023e-05
2.9097e-05
2.829e-05
2.74808e-05
2.66617e-05
2.58174e-05
2.49531e-05
2.4072e-05
2.31885e-05
2.23028e-05
4.075e-06
8.47502e-06
3.90615e-05
6.79134e-05
5.96342e-05
5.6882e-05
5.69012e-05
5.6765e-05
5.69005e-05
5.67994e-05
5.66105e-05
5.63858e-05
5.61152e-05
5.58013e-05
5.54453e-05
5.50491e-05
5.46159e-05
5.41464e-05
5.36484e-05
5.31208e-05
5.25657e-05
5.19859e-05
5.13912e-05
5.07905e-05
5.01898e-05
4.95859e-05
4.89721e-05
4.83488e-05
4.7718e-05
4.70858e-05
4.64542e-05
4.58241e-05
4.5195e-05
4.45634e-05
4.39306e-05
4.32981e-05
4.26685e-05
4.20429e-05
4.14137e-05
4.07774e-05
4.0137e-05
3.94975e-05
3.8855e-05
3.82031e-05
3.75463e-05
3.68845e-05
3.62152e-05
3.55408e-05
3.48615e-05
3.41778e-05
3.34903e-05
3.27973e-05
3.20984e-05
3.13864e-05
3.06546e-05
2.99168e-05
2.91713e-05
2.84214e-05
2.76662e-05
2.69061e-05
2.61456e-05
0.000237441
0.000107772
4.96037e-05
6.77094e-05
5.62023e-05
5.47519e-05
5.5997e-05
5.55113e-05
5.54071e-05
5.51581e-05
5.48522e-05
5.45323e-05
5.41709e-05
5.37764e-05
5.33471e-05
5.28875e-05
5.24009e-05
5.18858e-05
5.13483e-05
5.07866e-05
5.02052e-05
4.96089e-05
4.90086e-05
4.84091e-05
4.78122e-05
4.72135e-05
4.66085e-05
4.59994e-05
4.53902e-05
4.47856e-05
4.4187e-05
4.35938e-05
4.30046e-05
4.24163e-05
4.18313e-05
4.12515e-05
4.0679e-05
4.01112e-05
3.95401e-05
3.89682e-05
3.83995e-05
3.78206e-05
3.72292e-05
3.66467e-05
3.60555e-05
3.54569e-05
3.48497e-05
3.42364e-05
3.36186e-05
3.29965e-05
3.23692e-05
3.17322e-05
3.10893e-05
3.04581e-05
0.000642443
6.86769e-06
2.9382e-05
6.54933e-05
5.36467e-05
5.38856e-05
5.50106e-05
5.42116e-05
5.39644e-05
5.36282e-05
5.32346e-05
5.28329e-05
5.23941e-05
5.19304e-05
5.14398e-05
5.09266e-05
5.0391e-05
4.9834e-05
4.92578e-05
4.86642e-05
4.80585e-05
4.74481e-05
4.68391e-05
4.62346e-05
4.56337e-05
4.50307e-05
4.44263e-05
4.38234e-05
4.32266e-05
4.26395e-05
4.20622e-05
4.14938e-05
4.09315e-05
4.03746e-05
3.98268e-05
3.92887e-05
3.87622e-05
3.82405e-05
3.77138e-05
3.71685e-05
3.66376e-05
3.61818e-05
)
;

boundaryField
{
    inlet
    {
        type            calculated;
        value           nonuniform List<scalar> 
13
(
7.37888e-05
7.42542e-05
7.46568e-05
7.50137e-05
7.53572e-05
7.57129e-05
7.61909e-05
7.63315e-05
7.59536e-05
7.571e-05
7.53918e-05
7.51127e-05
7.488e-05
)
;
    }
    outlet
    {
        type            calculated;
        value           nonuniform List<scalar> 0();
    }
    walls
    {
        type            calculated;
        value           uniform 0;
    }
    frontAndBack
    {
        type            empty;
    }
    procBoundary2to1
    {
        type            processor;
        value           nonuniform List<scalar> 
84
(
0.243684
0.0374395
0.0147871
0.00162582
0.000451645
0.000143527
0.000157015
0.000153314
0.00016095
0.000150658
0.000151143
0.000147112
0.000144982
0.000141794
0.000138735
0.00013528
0.000131676
0.000127897
0.000123983
0.000119894
0.000115608
0.000111128
0.000106508
0.00010178
9.6919e-05
9.19229e-05
8.68659e-05
8.18354e-05
7.68814e-05
7.2055e-05
6.74363e-05
6.31657e-05
5.9426e-05
5.63497e-05
5.4019e-05
5.24715e-05
5.16153e-05
5.12717e-05
5.12717e-05
5.77509e-05
5.6846e-05
5.60676e-05
5.53451e-05
5.46074e-05
5.38212e-05
5.29781e-05
5.20488e-05
5.10237e-05
4.99255e-05
4.87668e-05
4.75406e-05
4.62466e-05
4.49049e-05
4.49049e-05
4.42077e-05
4.26897e-05
4.11463e-05
3.95869e-05
3.80285e-05
3.64918e-05
3.49926e-05
3.35287e-05
3.20927e-05
3.20927e-05
3.08285e-05
2.93671e-05
2.78961e-05
2.64279e-05
2.49787e-05
2.35899e-05
2.23592e-05
2.13353e-05
2.03994e-05
1.9445e-05
1.9445e-05
1.85488e-05
1.75032e-05
1.60711e-05
1.39981e-05
1.23313e-05
1.27008e-05
2.10267e-05
2.90977e-05
4.04183e-05
)
;
    }
    procBoundary2to3
    {
        type            processor;
        value           nonuniform List<scalar> 
88
(
2.58893e-05
3.66408e-05
1.22116e-05
2.58893e-05
2.5332e-05
1.36018e-05
1.22116e-05
1.69074e-05
1.79829e-05
1.69416e-05
1.36018e-05
1.64413e-05
2.14412e-05
2.06474e-05
1.99746e-05
1.93346e-05
1.79829e-05
1.86543e-05
2.53715e-05
2.45569e-05
2.37271e-05
2.28966e-05
2.14412e-05
2.20596e-05
2.98201e-05
2.91354e-05
2.84437e-05
2.77485e-05
2.70466e-05
2.63366e-05
2.53715e-05
2.56218e-05
3.57068e-05
3.51561e-05
3.4615e-05
3.40673e-05
3.35143e-05
3.2957e-05
3.23972e-05
3.1834e-05
3.12668e-05
3.06909e-05
3.00993e-05
2.98201e-05
2.95075e-05
8.13761e-05
1.0773e-05
4.43488e-05
6.30208e-05
5.13606e-05
5.35954e-05
5.36708e-05
5.27564e-05
5.244e-05
5.19884e-05
5.15129e-05
5.10357e-05
5.05342e-05
5.00187e-05
4.94861e-05
4.89364e-05
4.83711e-05
4.77898e-05
4.71946e-05
4.65888e-05
4.59784e-05
4.5369e-05
4.47645e-05
4.41644e-05
4.35663e-05
4.29684e-05
4.2373e-05
4.17827e-05
4.12031e-05
4.06356e-05
4.00801e-05
3.95345e-05
3.89972e-05
3.84707e-05
3.79576e-05
3.74596e-05
3.69748e-05
3.64939e-05
3.60128e-05
3.55309e-05
3.49935e-05
3.57068e-05
3.44549e-05
)
;
    }
    procBoundary2to6
    {
        type            processor;
        value           nonuniform List<scalar> 
13
(
0.220301
0.133067
0.0932504
0.0690729
0.0491871
0.0310675
0.0151394
0.00370396
0.00100269
0
0.00061317
0.0015962
0.00133601
)
;
    }
}


// ************************************************************************* //
