/*--------------------------------*- C++ -*----------------------------------*\
| =========                 |                                                 |
| \\      /  F ield         | OpenFOAM: The Open Source CFD Toolbox           |
|  \\    /   O peration     | Version:  2506                                  |
|   \\  /    A nd           | Website:  www.openfoam.com                      |
|    \\/     M anipulation  |                                                 |
\*---------------------------------------------------------------------------*/
FoamFile
{
    version     2.0;
    format      ascii;
    arch        "LSB;label=32;scalar=64";
    class       volScalarField;
    location    "350";
    object      nuTilda;
}
// * * * * * * * * * * * * * * * * * * * * * * * * * * * * * * * * * * * * * //

dimensions      [0 2 -1 0 0 0 0];

internalField   nonuniform List<scalar> 
1340
(
0.106576
0.10443
0.101995
0.092461
0.0699945
0.0717262
0.0752982
0.0784592
0.0395982
0.0470011
0.0536722
0.0631645
0.00688438
0.0131275
0.0218459
0.0392286
0.000717021
0.0012398
0.00164096
0.0137115
0.000171497
0.000293894
0.000431203
0.00237794
1.20472e-05
8.04822e-06
1.51975e-06
8.71253e-05
3.99144e-05
3.48081e-05
9.00226e-06
2.07811e-05
4.02117e-05
4.11018e-05
3.69412e-05
5.52708e-06
4.0219e-05
3.95605e-05
4.44797e-05
2.13546e-05
4.01798e-05
3.96078e-05
4.19227e-05
3.64876e-05
4.00954e-05
3.99856e-05
4.02546e-05
4.01742e-05
4.00654e-05
4.00916e-05
3.99725e-05
4.03491e-05
4.0064e-05
4.00835e-05
4.00256e-05
4.01459e-05
4.00659e-05
4.00705e-05
4.0064e-05
4.00736e-05
4.0066e-05
4.00664e-05
4.00708e-05
4.00651e-05
4.00654e-05
4.00657e-05
4.00692e-05
4.00668e-05
4.00649e-05
4.00653e-05
4.00677e-05
4.00672e-05
4.00646e-05
4.0065e-05
4.00668e-05
4.00668e-05
4.00645e-05
4.00647e-05
4.00663e-05
4.00662e-05
4.00643e-05
4.00645e-05
4.00658e-05
4.00658e-05
4.00642e-05
4.00643e-05
4.00655e-05
4.00654e-05
4.00642e-05
4.00642e-05
4.00651e-05
4.00652e-05
4.0064e-05
4.00641e-05
4.00648e-05
4.00649e-05
4.00639e-05
4.00639e-05
4.00645e-05
4.00647e-05
4.00637e-05
4.00637e-05
4.00641e-05
4.00644e-05
4.00634e-05
4.00635e-05
4.00638e-05
4.00641e-05
4.0063e-05
4.00633e-05
4.00635e-05
4.00639e-05
4.00626e-05
4.0063e-05
4.00631e-05
4.00636e-05
4.00622e-05
4.00627e-05
4.00628e-05
4.00633e-05
4.00617e-05
4.00622e-05
4.00624e-05
4.00631e-05
4.00611e-05
4.00617e-05
4.0062e-05
4.00628e-05
4.00605e-05
4.00611e-05
4.00615e-05
4.00624e-05
4.00598e-05
4.00605e-05
4.00609e-05
4.0062e-05
4.0059e-05
4.00597e-05
4.00602e-05
4.00614e-05
4.00581e-05
4.00589e-05
4.00594e-05
4.00606e-05
4.00571e-05
4.00579e-05
4.00584e-05
4.00598e-05
4.0056e-05
4.00568e-05
4.00574e-05
4.00588e-05
4.00541e-05
4.00547e-05
4.00556e-05
4.00562e-05
4.00576e-05
4.00527e-05
4.00534e-05
4.00542e-05
4.00548e-05
4.00563e-05
4.00512e-05
4.00519e-05
4.00527e-05
4.00533e-05
4.00549e-05
4.00496e-05
4.00503e-05
4.00511e-05
4.00517e-05
4.00533e-05
4.0048e-05
4.00486e-05
4.00494e-05
4.005e-05
4.00515e-05
4.00462e-05
4.00468e-05
4.00476e-05
4.00482e-05
4.00497e-05
4.00444e-05
4.0045e-05
4.00457e-05
4.00463e-05
4.00478e-05
4.00426e-05
4.00432e-05
4.00439e-05
4.00445e-05
4.00459e-05
4.00408e-05
4.00413e-05
4.0042e-05
4.00426e-05
4.00439e-05
4.0039e-05
4.00396e-05
4.00402e-05
4.00408e-05
4.00421e-05
4.00373e-05
4.00378e-05
4.00385e-05
4.0039e-05
4.00402e-05
4.00356e-05
4.0036e-05
4.00367e-05
4.00372e-05
4.00384e-05
4.00337e-05
4.00342e-05
4.00348e-05
4.00353e-05
4.00365e-05
4.00316e-05
4.00321e-05
4.00327e-05
4.00332e-05
4.00343e-05
4.00287e-05
4.00291e-05
4.00295e-05
4.00301e-05
4.00306e-05
4.00318e-05
4.00258e-05
4.00261e-05
4.00265e-05
4.00271e-05
4.00275e-05
4.00287e-05
4.00223e-05
4.00226e-05
4.00229e-05
4.00234e-05
4.00239e-05
4.00249e-05
4.00185e-05
4.00187e-05
4.00189e-05
4.00194e-05
4.00197e-05
4.00207e-05
4.00146e-05
4.00147e-05
4.00149e-05
4.00152e-05
4.00155e-05
4.00163e-05
4.00111e-05
4.00112e-05
4.00113e-05
4.00115e-05
4.00116e-05
4.00123e-05
4.00085e-05
4.00085e-05
4.00086e-05
4.00087e-05
4.00088e-05
4.00092e-05
4.00075e-05
4.00075e-05
4.00075e-05
4.00075e-05
4.00075e-05
4.00076e-05
4.00085e-05
4.00086e-05
4.00086e-05
4.00086e-05
4.00087e-05
4.00085e-05
4.00112e-05
4.00114e-05
4.00115e-05
4.00117e-05
4.00117e-05
4.00118e-05
4.00115e-05
4.00154e-05
4.00157e-05
4.0016e-05
4.00162e-05
4.00163e-05
4.00165e-05
4.00162e-05
4.0021e-05
4.00215e-05
4.00218e-05
4.00222e-05
4.00224e-05
4.00227e-05
4.00225e-05
4.00276e-05
4.00282e-05
4.00287e-05
4.00292e-05
4.00296e-05
4.003e-05
4.00299e-05
4.00348e-05
4.00356e-05
4.00362e-05
4.00368e-05
4.00373e-05
4.00379e-05
4.0038e-05
4.00422e-05
4.0043e-05
4.00437e-05
4.00444e-05
4.00451e-05
4.00458e-05
4.0046e-05
4.00482e-05
4.00491e-05
4.005e-05
4.00509e-05
4.00517e-05
4.00525e-05
4.0053e-05
4.00524e-05
4.00534e-05
4.00544e-05
4.00553e-05
4.00563e-05
4.00574e-05
4.00581e-05
4.00557e-05
4.00567e-05
4.00577e-05
4.00587e-05
4.00597e-05
4.00609e-05
4.00618e-05
4.00582e-05
4.00592e-05
4.00602e-05
4.00613e-05
4.00623e-05
4.00635e-05
4.00646e-05
4.00595e-05
4.00606e-05
4.00616e-05
4.00627e-05
4.00638e-05
4.00649e-05
4.00662e-05
4.00673e-05
4.00632e-05
4.00645e-05
4.00658e-05
4.00671e-05
4.00684e-05
4.00697e-05
4.00712e-05
4.00724e-05
4.00704e-05
4.00722e-05
4.00739e-05
4.00756e-05
4.00774e-05
4.00792e-05
4.00813e-05
4.00829e-05
4.00814e-05
4.00836e-05
4.00859e-05
4.00882e-05
4.00905e-05
4.00929e-05
4.00956e-05
4.0098e-05
4.00903e-05
4.00926e-05
4.00949e-05
4.00971e-05
4.00995e-05
4.0102e-05
4.01048e-05
4.01074e-05
4.00864e-05
4.00878e-05
4.00892e-05
4.00906e-05
4.0092e-05
4.00935e-05
4.0095e-05
4.00967e-05
4.00729e-05
4.00747e-05
4.00766e-05
4.00786e-05
4.00807e-05
4.00829e-05
4.00856e-05
4.00877e-05
4.00853e-05
4.00909e-05
4.00965e-05
4.01023e-05
4.01083e-05
4.01147e-05
4.01219e-05
4.01286e-05
4.00789e-05
4.00813e-05
4.00834e-05
4.00854e-05
4.00873e-05
4.0089e-05
4.00908e-05
4.00923e-05
0.126592
0.0830854
0.054267
0.0293301
0.00865846
0.000820624
9.31353e-05
2.19483e-05
6.30602e-06
2.73298e-05
3.85911e-05
4.04979e-05
4.03321e-05
4.01328e-05
4.00808e-05
4.00768e-05
4.00773e-05
4.00761e-05
4.00743e-05
4.00727e-05
4.00713e-05
4.00702e-05
4.00692e-05
4.00684e-05
4.00676e-05
4.00669e-05
4.00663e-05
4.00658e-05
4.00653e-05
4.00648e-05
4.00645e-05
4.0064e-05
4.00635e-05
4.0063e-05
4.00623e-05
4.00615e-05
4.00605e-05
4.00595e-05
4.00583e-05
4.00569e-05
4.00554e-05
4.00537e-05
4.00519e-05
4.00501e-05
4.00481e-05
4.00462e-05
4.00442e-05
4.00424e-05
4.00405e-05
4.00387e-05
4.00367e-05
4.00346e-05
4.00319e-05
4.00288e-05
4.00249e-05
4.00206e-05
4.00162e-05
4.00122e-05
4.00092e-05
4.00078e-05
4.00088e-05
4.00118e-05
4.00167e-05
4.00231e-05
4.00307e-05
4.00389e-05
4.0047e-05
4.0054e-05
4.00591e-05
4.00628e-05
4.00655e-05
4.00683e-05
4.00737e-05
4.00847e-05
4.01002e-05
4.01092e-05
4.00977e-05
4.00896e-05
4.01331e-05
4.00938e-05
0.149877
0.0867145
0.043177
0.0174615
0.00341329
0.000828912
1.77852e-06
2.47981e-06
1.08884e-05
3.49077e-05
4.01253e-05
4.05201e-05
4.0241e-05
4.01115e-05
4.00881e-05
4.0087e-05
4.00856e-05
4.00829e-05
4.00801e-05
4.00776e-05
4.00755e-05
4.00738e-05
4.00723e-05
4.0071e-05
4.00698e-05
4.00688e-05
4.0068e-05
4.00672e-05
4.00665e-05
4.0066e-05
4.00655e-05
4.0065e-05
4.00644e-05
4.00637e-05
4.00629e-05
4.00621e-05
4.00611e-05
4.006e-05
4.00587e-05
4.00573e-05
4.00557e-05
4.0054e-05
4.00522e-05
4.00503e-05
4.00483e-05
4.00464e-05
4.00444e-05
4.00425e-05
4.00407e-05
4.00388e-05
4.00369e-05
4.00347e-05
4.0032e-05
4.00287e-05
4.00248e-05
4.00204e-05
4.0016e-05
4.0012e-05
4.0009e-05
4.00078e-05
4.0009e-05
4.00122e-05
4.00172e-05
4.00238e-05
4.00315e-05
4.00397e-05
4.00479e-05
4.0055e-05
4.006e-05
4.00636e-05
4.00663e-05
4.00691e-05
4.00748e-05
4.00862e-05
4.0102e-05
4.01103e-05
4.00984e-05
4.00914e-05
4.0136e-05
4.00947e-05
0.151266
0.0808181
0.0295081
0.00711671
0.000417572
9.99199e-05
4.5094e-07
1.99562e-06
2.52507e-05
3.98414e-05
4.05891e-05
4.03901e-05
4.01623e-05
4.01021e-05
4.00958e-05
4.00945e-05
4.00913e-05
4.00876e-05
4.00841e-05
4.00811e-05
4.00786e-05
4.00764e-05
4.00746e-05
4.00729e-05
4.00715e-05
4.00703e-05
4.00693e-05
4.00684e-05
4.00677e-05
4.0067e-05
4.00664e-05
4.00658e-05
4.00652e-05
4.00644e-05
4.00636e-05
4.00627e-05
4.00616e-05
4.00605e-05
4.00591e-05
4.00577e-05
4.00561e-05
4.00543e-05
4.00525e-05
4.00505e-05
4.00486e-05
4.00466e-05
4.00446e-05
4.00428e-05
4.00409e-05
4.00391e-05
4.00371e-05
4.00348e-05
4.0032e-05
4.00286e-05
4.00246e-05
4.00202e-05
4.00157e-05
4.00117e-05
4.00089e-05
4.00078e-05
4.00092e-05
4.00126e-05
4.00178e-05
4.00246e-05
4.00324e-05
4.00407e-05
4.00489e-05
4.0056e-05
4.0061e-05
4.00645e-05
4.00671e-05
4.007e-05
4.0076e-05
4.00878e-05
4.01039e-05
4.01114e-05
4.00992e-05
4.00935e-05
4.01389e-05
4.00956e-05
0.135196
0.0642306
0.0149412
0.000786663
0.000196076
0
3.73266e-06
1.58041e-05
3.64946e-05
4.14575e-05
4.04526e-05
4.02548e-05
4.01196e-05
4.01034e-05
4.01022e-05
4.00992e-05
4.00948e-05
4.00905e-05
4.00867e-05
4.00834e-05
4.00806e-05
4.00782e-05
4.00761e-05
4.00743e-05
4.00728e-05
4.00715e-05
4.00704e-05
4.00695e-05
4.00687e-05
4.0068e-05
4.00673e-05
4.00667e-05
4.00659e-05
4.00652e-05
4.00643e-05
4.00633e-05
4.00622e-05
4.0061e-05
4.00596e-05
4.00581e-05
4.00564e-05
4.00546e-05
4.00528e-05
4.00508e-05
4.00488e-05
4.00468e-05
4.00449e-05
4.0043e-05
4.00412e-05
4.00393e-05
4.00373e-05
4.00349e-05
4.00321e-05
4.00286e-05
4.00245e-05
4.00199e-05
4.00154e-05
4.00115e-05
4.00088e-05
4.00079e-05
4.00095e-05
4.00131e-05
4.00185e-05
4.00254e-05
4.00334e-05
4.00417e-05
4.005e-05
4.00571e-05
4.0062e-05
4.00654e-05
4.0068e-05
4.0071e-05
4.00773e-05
4.00896e-05
4.01059e-05
4.01126e-05
4.00999e-05
4.00959e-05
4.0142e-05
4.00964e-05
0.104438
0.0387217
0.00281483
0.000693382
0
2.05191e-06
8.98947e-06
3.09018e-05
4.14428e-05
4.11907e-05
4.02283e-05
4.01743e-05
4.01066e-05
4.01094e-05
4.0107e-05
4.01022e-05
4.00971e-05
4.00924e-05
4.00884e-05
4.0085e-05
4.0082e-05
4.00795e-05
4.00773e-05
4.00754e-05
4.00738e-05
4.00725e-05
4.00714e-05
4.00704e-05
4.00696e-05
4.00689e-05
4.00682e-05
4.00674e-05
4.00667e-05
4.00659e-05
4.00649e-05
4.00639e-05
4.00628e-05
4.00615e-05
4.00601e-05
4.00585e-05
4.00568e-05
4.0055e-05
4.00531e-05
4.00511e-05
4.00491e-05
4.00471e-05
4.00451e-05
4.00433e-05
4.00414e-05
4.00395e-05
4.00375e-05
4.0035e-05
4.00321e-05
4.00285e-05
4.00243e-05
4.00197e-05
4.00151e-05
4.00112e-05
4.00086e-05
4.00079e-05
4.00098e-05
4.00136e-05
4.00192e-05
4.00263e-05
4.00344e-05
4.00428e-05
4.00512e-05
4.00583e-05
4.0063e-05
4.00663e-05
4.00689e-05
4.0072e-05
4.00787e-05
4.00915e-05
4.01079e-05
4.01137e-05
4.01008e-05
4.00985e-05
4.01452e-05
4.00972e-05
0.0650015
0.0150741
0.00031704
7.70327e-05
0
6.5021e-06
2.70185e-05
4.03625e-05
4.20358e-05
4.05025e-05
4.0122e-05
4.01411e-05
4.01089e-05
4.01152e-05
4.01097e-05
4.0104e-05
4.00985e-05
4.00938e-05
4.00897e-05
4.00861e-05
4.00831e-05
4.00805e-05
4.00783e-05
4.00764e-05
4.00748e-05
4.00734e-05
4.00722e-05
4.00713e-05
4.00704e-05
4.00697e-05
4.0069e-05
4.00682e-05
4.00674e-05
4.00666e-05
4.00656e-05
4.00645e-05
4.00633e-05
4.0062e-05
4.00605e-05
4.00589e-05
4.00572e-05
4.00553e-05
4.00534e-05
4.00514e-05
4.00494e-05
4.00474e-05
4.00454e-05
4.00435e-05
4.00417e-05
4.00398e-05
4.00377e-05
4.00352e-05
4.00321e-05
4.00284e-05
4.0024e-05
4.00193e-05
4.00148e-05
4.0011e-05
4.00085e-05
4.0008e-05
4.00101e-05
4.00142e-05
4.002e-05
4.00272e-05
4.00355e-05
4.0044e-05
4.00524e-05
4.00595e-05
4.00641e-05
4.00673e-05
4.00698e-05
4.00731e-05
4.00802e-05
4.00936e-05
4.01101e-05
4.0115e-05
4.01016e-05
4.01013e-05
0.0258449
0.000880461
7.65427e-05
1.86453e-05
5.30286e-06
2.19763e-05
3.95749e-05
4.24435e-05
4.10355e-05
4.01147e-05
4.01174e-05
4.01308e-05
4.01158e-05
4.01184e-05
4.01107e-05
4.01048e-05
4.00993e-05
4.00946e-05
4.00905e-05
4.00869e-05
4.00839e-05
4.00813e-05
4.00791e-05
4.00772e-05
4.00756e-05
4.00742e-05
4.00731e-05
4.00721e-05
4.00713e-05
4.00705e-05
4.00698e-05
4.0069e-05
4.00682e-05
4.00673e-05
4.00663e-05
4.00652e-05
4.00639e-05
4.00625e-05
4.0061e-05
4.00594e-05
4.00576e-05
4.00557e-05
4.00537e-05
4.00517e-05
4.00496e-05
4.00476e-05
4.00457e-05
4.00438e-05
4.0042e-05
4.004e-05
4.00379e-05
4.00353e-05
4.00321e-05
4.00282e-05
4.00238e-05
4.0019e-05
4.00145e-05
4.00107e-05
4.00084e-05
4.00082e-05
4.00105e-05
4.00148e-05
4.00208e-05
4.00283e-05
4.00366e-05
4.00452e-05
4.00537e-05
4.00607e-05
4.00653e-05
4.00683e-05
4.00708e-05
4.00742e-05
4.00818e-05
4.00958e-05
4.01123e-05
4.01162e-05
0.00298484
0.00074241
9.07383e-07
4.37323e-06
1.85519e-05
3.9204e-05
4.28732e-05
4.14243e-05
4.0245e-05
4.00545e-05
4.01376e-05
4.01278e-05
4.01215e-05
4.01187e-05
4.01106e-05
4.01048e-05
4.00995e-05
4.00949e-05
4.00909e-05
4.00874e-05
4.00844e-05
4.00819e-05
4.00797e-05
4.00778e-05
4.00763e-05
4.0075e-05
4.00739e-05
4.00729e-05
4.00721e-05
4.00713e-05
4.00706e-05
4.00698e-05
4.00689e-05
4.0068e-05
4.00669e-05
4.00658e-05
4.00645e-05
4.00631e-05
4.00615e-05
4.00598e-05
4.0058e-05
4.0056e-05
4.0054e-05
4.0052e-05
4.00499e-05
4.00479e-05
4.0046e-05
4.00441e-05
4.00423e-05
4.00403e-05
4.0038e-05
4.00354e-05
4.0032e-05
4.0028e-05
4.00235e-05
4.00187e-05
4.00141e-05
4.00104e-05
4.00083e-05
4.00083e-05
4.0011e-05
4.00155e-05
4.00217e-05
4.00294e-05
4.00378e-05
4.00465e-05
4.0055e-05
4.0062e-05
4.00664e-05
4.00694e-05
4.00718e-05
4.00755e-05
4.00836e-05
4.00982e-05
0.000808167
0
1.55165e-06
6.6721e-06
3.92106e-05
4.33125e-05
4.16948e-05
4.03501e-05
4.00289e-05
4.01105e-05
4.0144e-05
4.01272e-05
4.01236e-05
4.01172e-05
4.01098e-05
4.01043e-05
4.00992e-05
4.00948e-05
4.0091e-05
4.00876e-05
4.00848e-05
4.00823e-05
4.00802e-05
4.00784e-05
4.0077e-05
4.00757e-05
4.00747e-05
4.00737e-05
4.00729e-05
4.00721e-05
4.00713e-05
4.00705e-05
4.00696e-05
4.00686e-05
4.00676e-05
4.00664e-05
4.0065e-05
4.00636e-05
4.00619e-05
4.00602e-05
4.00583e-05
4.00564e-05
4.00543e-05
4.00523e-05
4.00502e-05
4.00482e-05
4.00463e-05
4.00444e-05
4.00426e-05
4.00405e-05
4.00382e-05
4.00354e-05
4.0032e-05
4.00278e-05
4.00231e-05
4.00183e-05
4.00137e-05
4.00101e-05
4.00082e-05
4.00085e-05
4.00114e-05
4.00162e-05
4.00227e-05
4.00305e-05
4.00392e-05
4.00479e-05
4.00565e-05
4.00634e-05
4.00677e-05
4.00705e-05
4.00729e-05
0
0
8.98596e-06
3.70961e-05
4.44258e-05
4.16832e-05
4.03891e-05
4.00124e-05
4.00833e-05
4.01472e-05
4.01387e-05
4.0127e-05
4.01225e-05
4.01149e-05
4.01086e-05
4.01034e-05
4.00986e-05
4.00944e-05
4.00908e-05
4.00877e-05
4.0085e-05
4.00826e-05
4.00807e-05
4.0079e-05
4.00776e-05
4.00764e-05
4.00754e-05
4.00746e-05
4.00737e-05
4.00729e-05
4.00721e-05
4.00713e-05
4.00703e-05
4.00693e-05
4.00682e-05
4.0067e-05
4.00656e-05
4.0064e-05
4.00624e-05
4.00606e-05
4.00587e-05
4.00567e-05
4.00546e-05
4.00526e-05
4.00505e-05
4.00485e-05
4.00466e-05
4.00448e-05
4.00429e-05
4.00408e-05
4.00384e-05
4.00355e-05
4.00319e-05
4.00276e-05
4.00227e-05
4.00178e-05
4.00133e-05
4.00099e-05
4.00081e-05
4.00088e-05
4.0012e-05
4.0017e-05
4.00238e-05
4.00318e-05
4.00405e-05
4.00494e-05
0
8.05759e-06
3.31186e-05
4.48898e-05
4.1813e-05
4.02308e-05
4.00117e-05
4.00625e-05
4.01447e-05
4.0148e-05
4.01324e-05
4.01255e-05
4.01194e-05
4.01125e-05
4.0107e-05
4.01021e-05
4.00977e-05
4.00939e-05
4.00905e-05
4.00876e-05
4.00851e-05
4.00829e-05
4.00811e-05
4.00796e-05
4.00783e-05
4.00772e-05
4.00762e-05
4.00754e-05
4.00745e-05
4.00737e-05
4.00729e-05
4.0072e-05
4.0071e-05
4.007e-05
4.00688e-05
4.00675e-05
4.00661e-05
4.00645e-05
4.00628e-05
4.0061e-05
4.0059e-05
4.0057e-05
4.00549e-05
4.00528e-05
4.00508e-05
4.00488e-05
4.00469e-05
4.00451e-05
4.00431e-05
4.0041e-05
4.00385e-05
4.00355e-05
4.00317e-05
4.00272e-05
4.00223e-05
4.00174e-05
4.00129e-05
4.00096e-05
4.00081e-05
4.00091e-05
4.00126e-05
8.04434e-06
3.29893e-05
4.44571e-05
4.2085e-05
4.00169e-05
3.99711e-05
4.00692e-05
4.01396e-05
4.01541e-05
4.01378e-05
4.0128e-05
4.01223e-05
4.01158e-05
4.011e-05
4.01051e-05
4.01006e-05
4.00966e-05
4.00931e-05
4.00901e-05
4.00874e-05
4.00851e-05
4.00832e-05
4.00815e-05
4.00801e-05
4.00789e-05
4.00779e-05
4.0077e-05
4.00762e-05
4.00753e-05
4.00745e-05
4.00737e-05
4.00727e-05
4.00717e-05
4.00706e-05
4.00694e-05
4.00681e-05
4.00666e-05
4.0065e-05
4.00632e-05
4.00613e-05
4.00593e-05
4.00573e-05
4.00552e-05
4.00531e-05
4.00511e-05
4.00492e-05
4.00473e-05
4.00454e-05
4.00434e-05
4.00413e-05
4.00386e-05
4.00354e-05
4.00315e-05
4.00269e-05
3.50102e-05
4.33169e-05
4.1973e-05
3.99478e-05
3.9889e-05
4.00946e-05
4.01422e-05
4.01552e-05
4.01417e-05
4.01299e-05
4.0124e-05
4.01181e-05
4.01123e-05
4.01074e-05
4.0103e-05
4.0099e-05
4.00955e-05
4.00923e-05
4.00896e-05
4.00872e-05
4.00852e-05
4.00835e-05
4.0082e-05
4.00807e-05
4.00796e-05
4.00787e-05
4.00778e-05
4.0077e-05
4.00762e-05
4.00753e-05
4.00744e-05
4.00735e-05
4.00724e-05
4.00713e-05
4.007e-05
4.00686e-05
4.00671e-05
4.00654e-05
4.00636e-05
4.00617e-05
4.00597e-05
4.00576e-05
)
;

boundaryField
{
    inlet
    {
        type            freestream;
        freestreamValue uniform 4e-05;
        value           uniform 4e-05;
    }
    outlet
    {
        type            freestream;
        freestreamValue nonuniform List<scalar> 0();
        value           nonuniform List<scalar> 0();
    }
    walls
    {
        type            fixedValue;
        value           uniform 0;
    }
    frontAndBack
    {
        type            empty;
    }
    procBoundary2to1
    {
        type            processor;
        value           nonuniform List<scalar> 
84
(
0.107973
0.0680041
0.0311555
0.0030413
0.000728909
5.67685e-06
3.41117e-05
4.0453e-05
4.01061e-05
4.00393e-05
4.0048e-05
4.0063e-05
4.00689e-05
4.00678e-05
4.00662e-05
4.00653e-05
4.00648e-05
4.00646e-05
4.00644e-05
4.00643e-05
4.00642e-05
4.00642e-05
4.00641e-05
4.00639e-05
4.00636e-05
4.00633e-05
4.0063e-05
4.00626e-05
4.00622e-05
4.00617e-05
4.00611e-05
4.00605e-05
4.00599e-05
4.00592e-05
4.00583e-05
4.00574e-05
4.00564e-05
4.00553e-05
4.00553e-05
4.00534e-05
4.00521e-05
4.00506e-05
4.00491e-05
4.00474e-05
4.00457e-05
4.00439e-05
4.00421e-05
4.00403e-05
4.00386e-05
4.00369e-05
4.00351e-05
4.00333e-05
4.00312e-05
4.00312e-05
4.00284e-05
4.00255e-05
4.00221e-05
4.00184e-05
4.00145e-05
4.00111e-05
4.00085e-05
4.00074e-05
4.00084e-05
4.00084e-05
4.0011e-05
4.00151e-05
4.00205e-05
4.0027e-05
4.00341e-05
4.00413e-05
4.00473e-05
4.00514e-05
4.00547e-05
4.00572e-05
4.00572e-05
4.00584e-05
4.00619e-05
4.00686e-05
4.00791e-05
4.0088e-05
4.0085e-05
4.00712e-05
4.00799e-05
4.00764e-05
)
;
    }
    procBoundary2to3
    {
        type            processor;
        value           nonuniform List<scalar> 
88
(
4.01486e-05
4.00978e-05
4.01025e-05
4.01486e-05
4.01045e-05
4.01146e-05
4.01025e-05
4.01175e-05
4.00768e-05
4.00855e-05
4.01146e-05
4.01007e-05
4.0058e-05
4.00648e-05
4.00689e-05
4.00717e-05
4.00768e-05
4.00741e-05
4.00179e-05
4.00249e-05
4.00332e-05
4.0042e-05
4.0058e-05
4.00509e-05
4.00218e-05
4.00168e-05
4.00125e-05
4.00093e-05
4.00081e-05
4.00095e-05
4.00179e-05
4.00133e-05
4.00555e-05
4.00534e-05
4.00514e-05
4.00495e-05
4.00476e-05
4.00457e-05
4.00437e-05
4.00415e-05
4.00387e-05
4.00353e-05
4.00312e-05
4.00218e-05
4.00264e-05
4.28511e-05
4.15236e-05
3.99647e-05
3.98649e-05
4.01099e-05
4.01578e-05
4.01527e-05
4.01426e-05
4.01308e-05
4.01246e-05
4.01193e-05
4.01139e-05
4.01091e-05
4.01048e-05
4.01009e-05
4.00974e-05
4.00943e-05
4.00916e-05
4.00892e-05
4.00871e-05
4.00853e-05
4.00838e-05
4.00825e-05
4.00813e-05
4.00803e-05
4.00794e-05
4.00786e-05
4.00778e-05
4.0077e-05
4.00761e-05
4.00752e-05
4.00742e-05
4.00731e-05
4.00719e-05
4.00706e-05
4.00691e-05
4.00675e-05
4.00658e-05
4.00639e-05
4.0062e-05
4.00599e-05
4.00555e-05
4.00579e-05
)
;
    }
    procBoundary2to6
    {
        type            processor;
        value           nonuniform List<scalar> 
13
(
0.172386
0.21365
0.217839
0.202712
0.172768
0.130182
0.0788831
0.0300031
0.0032255
0.000428167
0
0
8.73582e-06
)
;
    }
}


// ************************************************************************* //
