/*--------------------------------*- C++ -*----------------------------------*\
| =========                 |                                                 |
| \\      /  F ield         | OpenFOAM: The Open Source CFD Toolbox           |
|  \\    /   O peration     | Version:  2506                                  |
|   \\  /    A nd           | Website:  www.openfoam.com                      |
|    \\/     M anipulation  |                                                 |
\*---------------------------------------------------------------------------*/
FoamFile
{
    version     2.0;
    format      ascii;
    arch        "LSB;label=32;scalar=64";
    class       surfaceScalarField;
    location    "350";
    object      phi;
}
// * * * * * * * * * * * * * * * * * * * * * * * * * * * * * * * * * * * * * //

dimensions      [0 3 -1 0 0 0 0];

oriented        oriented;

internalField   nonuniform List<scalar> 
2579
(
0.201729
0.00470603
0.194916
0.00681301
0.181096
0.0138193
0.161216
0.01988
0.228739
0.0087309
0.223784
0.0117677
0.213439
0.0241637
0.19539
0.0379288
0.248123
0.0123449
0.242971
0.0169201
0.232685
0.0344488
0.214882
0.055732
0.265376
0.0153312
0.260649
0.0216463
0.25092
0.0441778
0.23255
0.0741005
0.2793
0.0180971
0.274955
0.0259917
0.26641
0.0527223
0.248614
0.0918964
0.294578
0.0210004
0.289909
0.0306606
0.281544
0.0610866
0.264164
0.109276
0.310228
0.0239953
0.305356
0.0355325
0.296974
0.0694678
0.280105
0.126145
0.326947
0.0270914
0.321887
0.0405915
0.313383
0.0779716
0.297023
0.142505
0.344489
0.0302614
0.339253
0.0458271
0.330722
0.0865026
0.314944
0.158283
0.362987
0.0335234
0.357629
0.051185
0.349086
0.0950446
0.333867
0.173502
0.382494
0.0368368
0.377002
0.0566771
0.36847
0.103577
0.353876
0.188096
0.403027
0.0402135
0.397428
0.0622757
0.388969
0.112035
0.375011
0.202053
0.424695
0.0436128
0.419019
0.067952
0.410598
0.120456
0.397319
0.215332
0.447504
0.0470408
0.441782
0.0736734
0.433486
0.128752
0.42086
0.227957
0.471561
0.0504799
0.465822
0.0794127
0.457622
0.136951
0.445694
0.239886
0.496917
0.0539059
0.491176
0.0851538
0.483137
0.14499
0.471926
0.251096
0.523637
0.0573086
0.517955
0.0908363
0.51007
0.152875
0.499545
0.261621
0.551832
0.0606229
0.546199
0.0964695
0.538545
0.160528
0.528716
0.27145
0.581539
0.063875
0.576032
0.101976
0.568587
0.167974
0.559463
0.280574
0.612875
0.0670085
0.607507
0.107344
0.600309
0.175172
0.59187
0.289013
0.645913
0.070035
0.640734
0.112523
0.633826
0.18208
0.626032
0.296806
0.680784
0.0728724
0.675791
0.117517
0.669184
0.188686
0.662083
0.303907
0.717553
0.0755417
0.712815
0.122255
0.706539
0.194963
0.700048
0.310398
0.756349
0.0779894
0.751896
0.126707
0.745949
0.20091
0.740075
0.316272
0.797276
0.0802766
0.79316
0.130823
0.787566
0.206505
0.782274
0.321564
0.840469
0.0822723
0.836622
0.13467
0.831526
0.211601
0.826782
0.326307
0.886094
0.0839062
0.882696
0.138068
0.877845
0.216453
0.873641
0.330512
0.934363
0.0852767
0.931065
0.141367
0.926785
0.220733
0.923123
0.334173
0.98503
0.0863734
0.982366
0.144031
0.978396
0.224702
0.975333
0.337236
1.03875
0.0871631
1.03646
0.146326
1.03297
0.228189
1.03035
0.339855
1.09551
0.0876483
1.09351
0.148331
1.09048
0.231214
1.08818
0.342159
1.15535
0.0878115
1.15389
0.149792
1.15135
0.233749
1.14946
0.344054
1.21877
0.0874085
1.21759
0.150972
1.21529
0.236044
1.21406
0.345283
1.2854
0.0870686
1.28479
0.151589
1.28299
0.237844
1.28201
0.346258
1.35619
0.0861501
1.35572
0.152062
1.35452
0.239037
1.35395
0.346836
1.43086
0.0850451
1.43092
0.151997
1.42984
0.240119
1.42962
0.347058
1.50971
0.0836341
1.51003
0.15167
1.50954
0.240611
1.50968
0.346919
1.59323
0.0819518
1.59395
0.150954
1.59368
0.240882
1.59402
0.346573
1.67954
0.0228135
1.68138
0.0801091
1.68234
0.149997
1.68236
0.240856
1.68316
0.345771
1.77254
0.0198664
1.77464
0.0780156
1.77581
0.148826
1.77627
0.240396
1.77724
0.344794
1.87098
0.0167685
1.87319
0.0758067
1.87468
0.147333
1.87531
0.239768
1.87656
0.343545
1.97499
0.0136599
1.97741
0.0733853
1.9791
0.145645
1.97984
0.239026
1.98136
0.342024
2.08511
0.0104272
2.0876
0.0708942
2.08956
0.143684
2.09056
0.238026
2.09206
0.340521
2.20149
0.00720239
2.20418
0.0682066
2.20615
0.141714
2.20723
0.236949
2.2091
0.338651
2.32467
0.00399844
2.32741
0.0654701
2.32936
0.139767
2.33066
0.235651
2.33258
0.336732
2.45493
0.000570595
2.45756
0.0628372
2.45975
0.137583
2.46096
0.234437
2.46294
0.334754
2.59256
-0.00271467
2.59533
0.0600598
2.59748
0.135439
2.59887
0.233048
2.60072
0.332898
2.73804
-0.0059529
2.74085
0.0572556
2.74292
0.133361
2.74433
0.231639
2.74634
0.330889
2.89198
-0.00918231
2.89464
0.0545952
2.89691
0.131095
2.89809
0.230458
2.90009
0.328893
3.05473
-0.0125061
3.0573
0.0520238
3.05936
0.129037
3.06066
0.229156
3.06263
0.326921
3.22659
-0.0155703
3.22916
0.0494577
3.23127
0.126927
3.23233
0.228087
3.23412
0.325138
3.40822
-0.0186366
3.41092
0.0467535
3.41271
0.125144
3.41377
0.227023
3.4155
0.323411
3.59731
-0.0817535
3.60037
-0.0217035
3.60274
0.0443908
3.60456
0.123323
3.60538
0.226201
3.60693
0.321856
3.80014
-0.0855239
3.80313
-0.0246953
3.80549
0.0420298
3.80728
0.121529
3.80785
0.225635
3.80933
0.320379
4.01453
-0.0893588
4.01756
-0.0277213
4.01975
0.039837
4.02133
0.119952
4.02179
0.225169
4.02308
0.31909
4.24088
-0.0930334
4.24384
-0.0306806
4.2461
0.0375778
4.2474
0.118652
4.24766
0.224908
4.24863
0.318125
4.48006
-0.0969435
4.48288
-0.0335033
4.48485
0.0356154
4.48613
0.117365
4.48618
0.224857
4.48708
0.317227
4.73238
-0.100764
4.73517
-0.0363
4.73726
0.0335266
4.73828
0.116345
4.73803
0.225103
4.73864
0.316625
4.99892
-0.104749
5.00176
-0.0391353
5.00358
0.0317022
5.00452
0.115406
5.00402
0.225605
5.00432
0.316324
5.28028
-0.108695
5.28304
-0.0418875
5.2848
0.0299382
5.28552
0.114689
5.28476
0.226363
5.28491
0.31617
5.57722
-0.112635
5.57994
-0.044607
5.58151
0.0283724
5.58219
0.114006
5.5811
0.227459
5.58099
0.316276
5.88654
-0.18612
5.89065
-0.116742
5.89334
-0.0472982
5.89501
0.0267019
5.89532
0.1137
5.89404
0.228732
5.89355
0.316766
6.21736
-0.192124
6.22139
-0.120774
6.22412
-0.0500274
6.22568
0.0251442
6.22588
0.1135
6.22421
0.230401
6.22352
0.31745
6.56619
-0.198282
6.57044
-0.125031
6.57323
-0.0528144
6.57447
0.0239018
6.5746
0.113368
6.57262
0.232382
6.57171
0.318365
6.93437
-0.204759
6.9389
-0.129563
6.94167
-0.0555831
6.94287
0.0227011
6.94285
0.11338
6.93966
0.235575
6.93887
0.31916
7.32249
-0.212242
7.32657
-0.133641
7.32885
-0.0578598
7.32991
0.0216343
7.33043
0.112866
7.32839
0.23761
7.32595
0.321608
7.73053
-0.217972
7.73534
-0.138457
7.73831
-0.0608223
7.74005
0.0198878
7.73875
0.114172
7.73624
0.24012
7.73509
0.322751
5.66328
-0.245998
5.69467
-0.169843
5.731
-0.097156
5.77027
-0.0193818
5.81693
0.0675077
5.87524
0.181811
5.92677
0.271227
6.23301
-0.277818
6.26815
-0.204976
6.30566
-0.134669
6.34997
-0.0636867
6.40176
0.0157121
6.46548
0.11809
6.52315
0.213555
6.85858
-0.31227
6.89758
-0.243983
6.9402
-0.177287
6.98967
-0.113156
7.04547
-0.0400845
7.11601
0.0475413
7.17736
0.152207
7.54898
-0.349484
7.59068
-0.285684
7.63729
-0.223894
7.69076
-0.166625
7.75321
-0.102538
7.82952
-0.0287681
7.89971
0.0820197
8.26552
-0.457618
8.3082
-0.392159
8.35276
-0.330248
8.406
-0.277129
8.46359
-0.224217
8.5329
-0.171852
8.61763
-0.113493
8.693
0.00664914
9.09687
-0.497968
9.1426
-0.437881
9.19396
-0.38161
9.24888
-0.332046
9.31461
-0.289953
9.38961
-0.246847
9.48177
-0.205654
9.56627
-0.0778485
10.0108
-0.542868
10.0597
-0.486792
10.1155
-0.437339
10.1785
-0.395143
10.2487
-0.360072
10.3307
-0.328922
10.4342
-0.309076
10.5252
-0.168872
11.0154
-0.59246
11.0702
-0.541567
11.1317
-0.498868
11.1993
-0.462727
11.2765
-0.43731
11.3673
-0.419631
11.48
-0.421868
11.5808
-0.269661
12.1165
-0.646632
12.177
-0.602094
12.2429
-0.564781
12.3174
-0.537214
12.4028
-0.52274
12.5017
-0.518502
12.6235
-0.543647
12.7321
-0.378339
13.3268
-0.704746
13.3923
-0.667636
13.4657
-0.638156
13.5476
-0.619083
13.6406
-0.615768
13.7504
-0.62834
13.889
-0.682168
14.0119
-0.501272
14.6506
-0.76888
14.7223
-0.739293
14.8018
-0.717678
14.8911
-0.708382
14.9937
-0.718326
15.1115
-0.746192
15.2532
-0.823868
15.3794
-0.627407
16.1469
-0.841504
16.2277
-0.820162
16.3186
-0.808577
16.4194
-0.80914
16.5337
-0.832618
16.6716
-0.884062
16.8497
-1.00203
17.0084
-0.786104
17.778
17.8663
17.9634
18.0722
18.1952
18.3326
18.4903
18.6388
-0.178857
0.177433
-0.191357
0.20789
-0.204096
0.22762
-0.215803
0.244258
-0.226784
0.259594
-0.237133
0.274513
-0.246933
0.289905
-0.256138
0.306228
-0.26473
0.323535
-0.272692
0.341828
-0.280053
0.361238
-0.28679
0.381747
-0.292923
0.403453
-0.298471
0.426408
-0.303458
0.45068
-0.3079
0.476368
-0.311865
0.50351
-0.315356
0.532207
-0.318431
0.562538
-0.321135
0.594573
-0.323515
0.628412
-0.325619
0.664188
-0.327498
0.701927
-0.3292
0.741777
-0.33077
0.783843
-0.33225
0.828262
-0.333681
0.875071
-0.335098
0.92454
-0.336533
0.976768
-0.338014
1.03183
-0.339565
1.08973
-0.341196
1.15109
-0.342959
1.21583
-0.344833
1.28388
-0.346841
1.35595
-0.34899
1.43177
-0.351288
1.51198
-0.353736
1.59647
-0.356335
1.68576
-0.359082
1.77999
-0.361973
1.87945
-0.364998
1.98438
-0.36815
2.09521
-0.371401
2.21235
-0.374765
2.33594
-0.378225
2.4664
-0.381738
2.60423
-0.3853
2.7499
-0.388894
2.90368
-0.392499
3.06624
-0.3961
3.23772
-0.399678
3.41908
-0.403216
3.61047
-0.406698
3.81281
-0.41011
4.02649
-0.413437
4.25195
-0.41667
4.49031
-0.419798
4.74177
-0.422816
5.00734
-0.42572
5.28782
-0.42849
5.58376
-0.431167
5.89623
-0.433704
6.22606
-0.436109
6.57411
-0.438383
6.94114
-0.440525
7.32809
-0.442539
7.73711
-0.443924
5.92815
-0.445315
6.52455
-0.44669
7.17874
-0.44809
7.90111
-0.449458
8.69437
-0.450787
9.56759
-0.452065
10.5265
-0.453099
11.5819
-0.454208
12.7333
-0.454331
14.012
-0.45714
15.3822
-0.455331
17.0066
18.6481
-0.192744
0.191202
-0.200613
0.21576
-0.206981
0.233988
-0.211929
0.249207
-0.216176
0.263841
-0.220421
0.278758
-0.224982
0.294466
-0.22986
0.311105
-0.235015
0.328691
-0.240416
0.34723
-0.245999
0.366821
-0.25175
0.387498
-0.257617
0.40932
-0.263555
0.432346
-0.26952
0.456645
-0.275477
0.482324
-0.281351
0.509384
-0.287132
0.537988
-0.292775
0.568181
-0.298247
0.600045
-0.303522
0.633688
-0.30858
0.669247
-0.313411
0.706758
-0.318008
0.746374
-0.322373
0.788209
-0.326515
0.832404
-0.330447
0.879004
-0.33419
0.928283
-0.337764
0.980343
-0.341197
1.03526
-0.344513
1.09305
-0.347753
1.15433
-0.350909
1.21898
-0.354041
1.28702
-0.357161
1.35907
-0.36029
1.4349
-0.363447
1.51514
-0.366647
1.59967
-0.369903
1.68902
-0.373224
1.78331
-0.376615
1.88284
-0.380079
1.98785
-0.383616
2.09875
-0.387235
2.21597
-0.390905
2.33961
-0.394617
2.47011
-0.398386
2.608
-0.402189
2.75371
-0.40601
2.9075
-0.409838
3.07006
-0.413655
3.24154
-0.417449
3.42287
-0.421202
3.61423
-0.4249
3.81651
-0.428529
4.03012
-0.432074
4.2555
-0.43554
4.49378
-0.438889
4.74511
-0.442112
5.01056
-0.445234
5.29094
-0.448251
5.58678
-0.451112
5.89909
-0.453858
6.22881
-0.456483
6.57674
-0.45894
6.9436
-0.461275
7.33042
-0.463475
7.73931
-0.465007
5.92968
-0.466519
6.52606
-0.468063
7.18028
-0.469574
7.90262
-0.471087
8.69588
-0.472561
9.56907
-0.473985
10.5279
-0.475149
11.583
-0.47641
12.7345
-0.47666
14.0123
-0.479736
15.3853
-0.478454
17.0053
18.6576
-0.2219
0.203315
-0.229787
0.223647
-0.235899
0.2401
-0.240902
0.25421
-0.245419
0.268357
-0.249822
0.283162
-0.254193
0.298836
-0.258519
0.315431
-0.262775
0.332946
-0.266985
0.35144
-0.271162
0.370998
-0.275299
0.391635
-0.279416
0.413436
-0.283514
0.436444
-0.287622
0.460754
-0.291742
0.486444
-0.295891
0.513533
-0.300045
0.542143
-0.304236
0.572372
-0.308454
0.604262
-0.312704
0.637938
-0.31695
0.673493
-0.321214
0.711021
-0.325486
0.750645
-0.329732
0.792455
-0.333942
0.836614
-0.338126
0.883187
-0.342264
0.932421
-0.34635
0.984429
-0.35038
1.03929
-0.354352
1.09702
-0.358271
1.15825
-0.36214
1.22285
-0.365978
1.29085
-0.369773
1.36287
-0.373546
1.43867
-0.377309
1.5189
-0.381072
1.60343
-0.384835
1.69278
-0.388641
1.78712
-0.392451
1.88665
-0.396306
1.9917
-0.40021
2.10265
-0.404125
2.21988
-0.408088
2.34357
-0.412083
2.47411
-0.416116
2.61204
-0.420155
2.75775
-0.424201
2.91155
-0.428233
3.07409
-0.432263
3.24557
-0.436279
3.42689
-0.440228
3.61817
-0.444136
3.82041
-0.447989
4.03398
-0.451733
4.25924
-0.455399
4.49745
-0.458962
4.74868
-0.462416
5.01401
-0.465754
5.29428
-0.468972
5.58999
-0.472062
5.90218
-0.475018
6.23176
-0.477835
6.57955
-0.480525
6.94629
-0.483057
7.33295
-0.485435
7.74169
-0.487088
5.93134
-0.488771
6.52774
-0.49043
7.18194
-0.49212
7.90431
-0.49377
8.69753
-0.495412
9.57071
-0.496996
10.5295
-0.498286
11.5843
-0.49973
12.736
-0.500065
14.0126
-0.50351
15.3887
-0.502568
17.0044
18.6674
-0.250592
0.211595
-0.255953
0.229007
-0.259699
0.243845
-0.262939
0.25745
-0.266188
0.271604
-0.269588
0.286561
-0.273127
0.302375
-0.276778
0.319082
-0.280523
0.336691
-0.28435
0.355267
-0.288246
0.374894
-0.292198
0.395587
-0.296193
0.417431
-0.300218
0.44047
-0.304273
0.464808
-0.308319
0.49049
-0.312377
0.517591
-0.316431
0.546197
-0.320478
0.576419
-0.324517
0.608301
-0.328547
0.641968
-0.332581
0.677527
-0.33659
0.71503
-0.340608
0.754663
-0.344627
0.796475
-0.348651
0.840637
-0.352681
0.887218
-0.35672
0.936459
-0.360766
0.988476
-0.36482
1.04335
-0.368879
1.10108
-0.372944
1.16231
-0.377013
1.22692
-0.381085
1.29493
-0.38516
1.36694
-0.389239
1.44275
-0.393323
1.52298
-0.397415
1.60752
-0.40153
1.6969
-0.405634
1.79122
-0.409768
1.89078
-0.41392
1.99586
-0.418093
2.10683
-0.422287
2.22408
-0.426502
2.34779
-0.430734
2.47834
-0.43498
2.61628
-0.439234
2.762
-0.443489
2.9158
-0.447737
3.07834
-0.451967
3.2498
-0.456169
3.43109
-0.460331
3.62234
-0.464439
3.82452
-0.468482
4.03802
-0.472459
4.26322
-0.476318
4.50131
-0.480092
4.75245
-0.483773
5.01769
-0.487326
5.29783
-0.490744
5.59341
-0.494049
5.90549
-0.497219
6.23493
-0.500247
6.58258
-0.503129
6.94917
-0.505865
7.33569
-0.508458
7.74428
-0.510254
5.93313
-0.512069
6.52955
-0.513896
7.18377
-0.515729
7.90614
-0.517557
8.69936
-0.519349
9.5725
-0.521097
10.5312
-0.522542
11.5858
-0.524169
12.7376
-0.524676
14.0131
-0.52838
15.3924
-0.527995
17.004
18.6772
-0.286279
0.217462
-0.289772
0.232501
-0.291944
0.246017
-0.293938
0.259444
-0.296046
0.273712
-0.298294
0.28881
-0.300639
0.30472
-0.303104
0.321547
-0.305684
0.339271
-0.308383
0.357966
-0.311204
0.377714
-0.314147
0.39853
-0.317213
0.420496
-0.320408
0.443665
-0.323703
0.468103
-0.32712
0.493907
-0.330643
0.521113
-0.334264
0.549818
-0.337974
0.58013
-0.341765
0.612091
-0.345625
0.645828
-0.349545
0.681447
-0.353515
0.719
-0.357527
0.758674
-0.361572
0.80052
-0.365644
0.84471
-0.369739
0.891312
-0.373852
0.940572
-0.377983
0.992606
-0.382129
1.04749
-0.386288
1.10524
-0.390463
1.16649
-0.394654
1.23111
-0.39886
1.29913
-0.403083
1.37117
-0.407322
1.44699
-0.41158
1.52724
-0.415856
1.6118
-0.420151
1.70119
-0.424465
1.79554
-0.428799
1.89511
-0.433165
2.00022
-0.437525
2.11119
-0.441915
2.22847
-0.446322
2.35219
-0.450743
2.48276
-0.455173
2.62071
-0.459609
2.76644
-0.464043
2.92024
-0.468469
3.08277
-0.472892
3.25422
-0.477261
3.43546
-0.481605
3.62668
-0.485899
3.82882
-0.490131
4.04225
-0.494288
4.26738
-0.498359
4.50538
-0.502335
4.75643
-0.506208
5.02157
-0.509971
5.30159
-0.513615
5.59706
-0.517148
5.90902
-0.520517
6.2383
-0.523757
6.58582
-0.526851
6.95226
-0.529795
7.33863
-0.532594
7.74708
-0.534538
5.93508
-0.536507
6.53152
-0.538495
7.18576
-0.540495
7.90814
-0.542495
8.70136
-0.544462
9.57447
-0.546383
10.5331
-0.548008
11.5874
-0.549788
12.7394
-0.550561
14.0139
-0.554427
15.3963
-0.554749
-0.323398
0.221322
-0.325509
0.234613
-0.327002
0.247509
-0.328587
0.26103
-0.330284
0.27541
-0.33206
0.290585
-0.33393
0.30659
-0.33586
0.323477
-0.337889
0.3413
-0.339994
0.36007
-0.342176
0.379897
-0.344458
0.400812
-0.346834
0.422872
-0.349307
0.446138
-0.35188
0.470675
-0.354556
0.496583
-0.357338
0.523896
-0.360239
0.552718
-0.363239
0.58313
-0.36635
0.615202
-0.36956
0.649038
-0.372888
0.684775
-0.376332
0.722444
-0.379856
0.762199
-0.383487
0.80415
-0.387217
0.848441
-0.39102
0.895115
-0.3949
0.944451
-0.398848
0.996554
-0.402858
1.0515
-0.406923
1.1093
-0.411039
1.1706
-0.4152
1.23527
-0.41939
1.30332
-0.423631
1.37541
-0.427906
1.45127
-0.432216
1.53155
-0.436559
1.61614
-0.440932
1.70556
-0.445336
1.79994
-0.449781
1.89956
-0.454229
2.00467
-0.458715
2.11567
-0.463238
2.23299
-0.467769
2.35672
-0.472317
2.48731
-0.476867
2.62526
-0.481437
2.77101
-0.486011
2.92481
-0.490593
3.08735
-0.495137
3.25876
-0.499671
3.43999
-0.504187
3.6312
-0.508646
3.83327
-0.513034
4.04664
-0.517368
4.27171
-0.521623
4.50963
-0.525788
4.76059
-0.529857
5.02564
-0.533821
5.30556
-0.537671
5.60091
-0.541398
5.91275
-0.545006
6.24191
-0.548444
6.58926
-0.551749
6.95557
-0.554905
7.34179
-0.557929
7.7501
-0.56001
5.93716
-0.562139
6.53365
-0.564294
7.18791
-0.566468
7.91031
-0.568664
8.70355
-0.570803
9.57661
-0.572906
10.5352
-0.574722
11.5892
-0.576686
12.7413
-0.577727
-0.360666
0.22341
-0.361863
0.23581
-0.363017
0.248663
-0.364322
0.262335
-0.365703
0.27679
-0.367152
0.292034
-0.368668
0.308106
-0.370255
0.325064
-0.371918
0.342962
-0.373657
0.361809
-0.375475
0.381715
-0.377374
0.402712
-0.379358
0.424856
-0.381427
0.448207
-0.383584
0.472832
-0.38583
0.498829
-0.388168
0.526234
-0.3906
0.55515
-0.393127
0.585657
-0.395752
0.617826
-0.398476
0.651762
-0.401301
0.6876
-0.404229
0.725372
-0.40726
0.76523
-0.410396
0.807286
-0.413637
0.851681
-0.416981
0.89846
-0.420429
0.947899
-0.423977
1.0001
-0.427623
1.05515
-0.431362
1.11304
-0.435192
1.17443
-0.439106
1.23919
-0.4431
1.30732
-0.447169
1.37948
-0.451307
1.4554
-0.455511
1.53575
-0.459775
1.62041
-0.464096
1.70989
-0.468469
1.80431
-0.472891
1.90398
-0.477357
2.00914
-0.481866
2.12018
-0.486412
2.23754
-0.490992
2.3613
-0.495601
2.49192
-0.500234
2.6299
-0.504886
2.77566
-0.50955
2.92948
-0.51422
3.09202
-0.518886
3.26343
-0.523539
3.44465
-0.528169
3.63583
-0.532765
3.83787
-0.537313
4.05119
-0.541802
4.2762
-0.546221
4.51405
-0.55056
4.76493
-0.554811
5.02989
-0.558963
5.30971
-0.563024
5.60497
-0.566937
5.91666
-0.570737
6.24571
-0.574398
6.59292
-0.577914
6.95908
-0.581282
7.34516
-0.584503
7.75332
-0.586754
5.93941
-0.589047
6.53595
-0.591375
7.19024
-0.59373
7.91267
-0.5961
8.70592
-0.59845
9.57896
-0.600747
10.5375
-0.602765
-0.398651
0.224412
-0.399472
0.236631
-0.400441
0.249632
-0.401492
0.263387
-0.402591
0.277889
-0.403744
0.293187
-0.404954
0.309316
-0.406235
0.326345
-0.40756
0.344288
-0.408963
0.363212
-0.410446
0.383198
-0.411993
0.404259
-0.413618
0.42648
-0.415313
0.449902
-0.417102
0.474621
-0.418988
0.500715
-0.420954
0.528199
-0.423001
0.557198
-0.425154
0.58781
-0.427404
0.620076
-0.429764
0.654122
-0.432203
0.690039
-0.434756
0.727924
-0.437422
0.767897
-0.440183
0.810047
-0.443038
0.854537
-0.446011
0.901432
-0.44909
0.950978
-0.452276
1.00329
-0.455569
1.05844
-0.458967
1.11644
-0.462471
1.17794
-0.466078
1.24279
-0.469797
1.31104
-0.473603
1.38328
-0.477504
1.45931
-0.481497
1.53975
-0.485576
1.62449
-0.489726
1.71403
-0.493978
1.80857
-0.498279
1.90828
-0.50266
2.01352
-0.507117
2.12464
-0.511607
2.24203
-0.516161
2.36586
-0.520762
2.49652
-0.525417
2.63455
-0.530093
2.78033
-0.534796
2.93418
-0.539505
3.09673
-0.544237
3.26816
-0.548984
3.44939
-0.553693
3.64053
-0.558393
3.84257
-0.563072
4.05587
-0.567677
4.2808
-0.572252
4.51863
-0.576744
4.76942
-0.581143
5.03429
-0.58547
5.31404
-0.589699
5.6092
-0.593818
5.92078
-0.597815
6.24971
-0.601694
6.5968
-0.605417
6.96281
-0.608997
7.34874
-0.612416
7.75674
-0.61484
5.94183
-0.6173
6.53841
-0.619805
7.19274
-0.622348
7.91521
-0.6249
-0.62747
-0.437595
0.225024
-0.438337
0.237373
-0.439146
0.250441
-0.440002
0.264243
-0.440897
0.278784
-0.441847
0.294137
-0.442823
0.310293
-0.443861
0.327383
-0.444951
0.345378
-0.446098
0.364358
-0.447304
0.384404
-0.448572
0.405527
-0.449907
0.427815
-0.451321
0.451316
-0.452798
0.476098
-0.454341
0.502258
-0.455976
0.529834
-0.457694
0.558916
-0.459501
0.589617
-0.4614
0.621975
-0.463395
0.656116
-0.465499
0.692144
-0.467683
0.730108
-0.469983
0.770196
-0.47239
0.812453
-0.474905
0.857053
-0.477532
0.904059
-0.480271
0.953717
-0.483123
1.00614
-0.486089
1.06141
-0.48918
1.11953
-0.492362
1.18112
-0.495669
1.2461
-0.499088
1.31445
-0.502617
1.38681
-0.506256
1.46294
-0.510002
1.54349
-0.513852
1.62834
-0.517815
1.718
-0.521852
1.8126
-0.526007
1.91244
-0.530238
2.01775
-0.53454
2.12894
-0.538933
2.24642
-0.543399
2.37032
-0.547931
2.50105
-0.552523
2.63914
-0.557167
2.78498
-0.561857
2.93887
-0.566584
3.10146
-0.571351
3.27293
-0.576109
3.45415
-0.5809
3.64533
-0.58567
3.84734
-0.590407
4.0606
-0.59514
4.28554
-0.599801
4.52329
-0.604422
4.77404
-0.608994
5.03886
-0.613477
5.31852
-0.617858
5.61358
-0.62217
5.92509
-0.626339
6.25388
-0.630397
6.60086
-0.634322
6.96673
-0.63811
7.35253
-0.641772
-0.644323
-0.646953
-0.64964
-0.477647
0.225592
-0.478297
0.238024
-0.478991
0.251134
-0.4797
0.264952
-0.480445
0.279529
-0.481217
0.294909
-0.48205
0.311126
-0.482905
0.328237
-0.483826
0.346299
-0.484784
0.365316
-0.485782
0.385402
-0.486844
0.406589
-0.487962
0.428933
-0.489141
0.452495
-0.490383
0.47734
-0.491691
0.503567
-0.49307
0.531213
-0.494535
0.560381
-0.496066
0.591148
-0.49768
0.623589
-0.499368
0.657804
-0.501158
0.693933
-0.503052
0.732003
-0.505023
0.772167
-0.507105
0.814536
-0.509305
0.859252
-0.511602
0.906356
-0.51401
0.956125
-0.516532
1.00866
-0.519171
1.06405
-0.521917
1.12228
-0.524805
1.18401
-0.527802
1.2491
-0.530908
1.31756
-0.534147
1.39005
-0.537506
1.4663
-0.540983
1.54697
-0.544578
1.63193
-0.548289
1.72171
-0.552112
1.81643
-0.556044
1.91637
-0.560082
2.02179
-0.564221
2.13308
-0.56847
2.25067
-0.572798
2.37465
-0.577212
2.50546
-0.581691
2.64362
-0.586256
2.78954
-0.590885
2.9435
-0.595584
3.10616
-0.600303
3.27765
-0.605071
3.45892
-0.609863
3.65012
-0.614666
3.85214
-0.619468
4.06541
-0.624255
4.29032
-0.629017
4.52805
-0.633741
4.77877
-0.638417
5.04353
-0.643034
5.32314
-0.647594
5.61814
-0.652037
-0.656409
-0.660637
-0.664756
-0.518904
0.226114
-0.519453
0.238573
-0.520011
0.251692
-0.520607
0.265549
-0.521234
0.280156
-0.521904
0.295579
-0.522586
0.311808
-0.523326
0.328978
-0.524083
0.347056
-0.524892
0.366125
-0.525755
0.386265
-0.526654
0.407488
-0.527601
0.429881
-0.52859
0.453484
-0.529657
0.478406
-0.530771
0.504681
-0.531948
0.532389
-0.533179
0.561612
-0.534491
0.592461
-0.535877
0.624974
-0.537351
0.659279
-0.538896
0.695478
-0.540515
0.733622
-0.542247
0.773898
-0.544061
0.81635
-0.54596
0.861152
-0.547973
0.908369
-0.550092
0.958244
-0.55232
1.01089
-0.55466
1.06639
-0.557116
1.12473
-0.559692
1.18658
-0.562388
1.25179
-0.565219
1.32039
-0.568164
1.393
-0.571234
1.46937
-0.574431
1.55017
-0.577753
1.63525
-0.581202
1.72516
-0.584774
1.82
-0.588456
1.92005
-0.592271
2.0256
-0.596214
2.13702
-0.600245
2.2547
-0.604397
2.3788
-0.608652
2.50972
-0.613018
2.64799
-0.617462
2.79399
-0.621989
2.94803
-0.626579
3.11075
-0.631249
3.28232
-0.635987
3.46366
-0.640743
3.65487
-0.645543
3.85694
-0.650375
-0.655198
-0.660015
-0.664814
-0.669569
-0.674312
-0.561426
0.226558
-0.561887
0.239034
-0.56238
0.252185
-0.562887
0.266055
-0.563419
0.280688
-0.563968
0.296128
-0.564569
0.312409
-0.565178
0.329587
-0.565842
0.347721
-0.566531
0.366814
-0.567246
0.38698
-0.568012
0.408254
-0.568821
0.43069
-0.569687
0.45435
-0.570579
0.479298
-0.571533
0.505636
-0.572543
0.533399
-0.573623
0.562692
-0.574754
0.593591
-0.57595
0.626171
-0.577205
0.660533
-0.578544
0.696818
-0.579974
0.735051
-0.581462
0.775386
-0.583048
0.817936
-0.584736
0.86284
-0.586507
0.91014
-0.588376
0.960113
-0.590349
1.01286
-0.592429
1.06847
-0.594619
1.12692
-0.596912
1.18888
-0.599347
1.25423
-0.601879
1.32292
-0.604547
1.39566
-0.607341
1.47217
-0.610263
1.55309
-0.613315
1.63831
-0.616498
1.72834
-0.619811
1.82331
-0.623268
1.92351
-0.626842
2.02917
-0.630531
-0.634357
-0.63832
-0.642387
-0.646555
-0.650845
-0.655237
-0.659736
-0.664308
-0.668941
-0.673666
-0.605359
-0.605741
-0.606155
-0.60659
-0.607047
-0.607527
-0.608034
-0.608578
-0.609128
-0.60972
-0.610345
-0.611017
-0.611714
-0.612439
-0.613218
-0.614055
-0.614929
-0.615843
-0.616823
-0.617862
-0.618976
-0.620132
-0.62137
-0.622682
-0.624085
-0.625547
-0.627108
-0.628761
-0.63051
-0.632359
-0.634313
-0.636388
-0.638552
-0.640845
-0.643259
-0.645796
-0.648461
-0.651268
-0.654181
-0.657241
-0.660435
)
;

boundaryField
{
    inlet
    {
        type            calculated;
        value           nonuniform List<scalar> 
13
(
-0.919755
-0.908408
-0.905723
-0.917924
-0.955588
-1.02151
-1.15971
-0.934633
-0.46463
-0.487906
-0.512358
-0.537882
-0.564597
)
;
    }
    outlet
    {
        type            calculated;
        value           nonuniform List<scalar> 0();
    }
    walls
    {
        type            calculated;
        value           uniform 0;
    }
    frontAndBack
    {
        type            empty;
    }
    procBoundary2to1
    {
        type            processor;
        value           nonuniform List<scalar> 
84
(
-0.206435
-0.232764
-0.251737
-0.268362
-0.282066
-0.297482
-0.313223
-0.330043
-0.347659
-0.366249
-0.385808
-0.406404
-0.428095
-0.450932
-0.475
-0.500344
-0.52704
-0.555147
-0.584791
-0.616009
-0.648939
-0.683622
-0.720223
-0.758796
-0.799563
-0.842465
-0.887728
-0.935734
-0.986127
-1.03954
-1.096
-1.15551
-1.21836
-1.28506
-1.35527
-1.42975
-1.5083
-1.59155
-0.0257208
-1.67663
-1.7696
-1.86788
-1.97188
-2.08187
-2.19827
-2.32147
-2.4515
-2.58927
-2.7348
-2.88875
-3.0514
-3.22353
-3.40515
0.0779003
-3.59345
-3.79637
-4.0107
-4.23721
-4.47615
-4.72855
-4.99494
-5.27634
-5.57328
0.180483
-5.88091
-6.21135
-6.56003
-6.92789
-7.31501
-7.7248
-5.63525
-6.20119
-6.82412
-7.51177
0.420407
-8.22831
-9.05652
-9.96591
-10.9658
-12.0623
-13.2687
-14.5865
-16.0743
-17.6998
)
;
    }
    procBoundary2to3
    {
        type            processor;
        value           nonuniform List<scalar> 
88
(
17.0043
18.6871
14.0149
-0.58179
15.4003
11.5912
-0.604898
12.7435
8.70848
9.58153
-0.62997
10.54
7.7604
5.94438
6.54104
7.19543
-0.652376
7.91795
5.92954
6.25825
6.60509
6.97085
-0.668746
7.35652
4.07024
4.29515
4.53286
4.78357
5.04829
5.32788
-0.67897
5.6228
2.14071
2.25853
2.38277
2.51378
2.65216
2.79828
2.95242
3.11524
3.28689
3.46829
3.6596
-0.678428
3.86171
0.226946
0.239416
0.252599
0.26649
0.281145
0.296608
0.312915
0.330131
0.348271
0.367406
0.387604
0.408926
0.431387
0.455075
0.480078
0.506473
0.534273
0.563606
0.594572
0.62721
0.661647
0.697974
0.736289
0.776699
0.819339
0.864302
0.911701
0.961766
1.01461
1.07032
1.12888
1.19095
1.25639
1.32522
1.39808
1.4747
1.55575
1.64111
1.73125
1.82637
1.9267
-0.663764
2.0325
)
;
    }
    procBoundary2to6
    {
        type            processor;
        value           nonuniform List<scalar> 
13
(
0.162637
0.178973
0.209785
0.24231
0.280412
0.319537
0.358577
0.397649
0.436983
0.477078
0.518382
0.560981
0.604971
)
;
    }
}


// ************************************************************************* //
