/*--------------------------------*- C++ -*----------------------------------*\
| =========                 |                                                 |
| \\      /  F ield         | OpenFOAM: The Open Source CFD Toolbox           |
|  \\    /   O peration     | Version:  2506                                  |
|   \\  /    A nd           | Website:  www.openfoam.com                      |
|    \\/     M anipulation  |                                                 |
\*---------------------------------------------------------------------------*/
FoamFile
{
    version     2.0;
    format      ascii;
    arch        "LSB;label=32;scalar=64";
    class       volScalarField;
    location    "350";
    object      turbulenceProperties:nut;
}
// * * * * * * * * * * * * * * * * * * * * * * * * * * * * * * * * * * * * * //

dimensions      [0 2 -1 0 0 0 0];

internalField   nonuniform List<scalar> 
1340
(
0.106576
0.10443
0.101995
0.092461
0.0699945
0.0717262
0.0752982
0.0784592
0.0395982
0.0470011
0.0536722
0.0631645
0.00688437
0.0131275
0.0218459
0.0392286
0.000716325
0.00123957
0.00164083
0.0137115
0.000160134
0.000289808
0.000429286
0.00237787
5.85668e-08
1.17056e-08
1.49043e-11
5.65315e-05
6.02171e-06
3.66917e-06
1.83124e-08
5.08327e-07
6.18213e-06
6.67825e-06
4.56079e-06
2.60618e-09
6.18611e-06
5.83416e-06
8.77809e-06
5.65633e-07
6.1648e-06
5.85901e-06
7.15689e-06
4.36047e-06
6.11904e-06
6.05991e-06
6.20549e-06
6.16175e-06
6.10285e-06
6.11704e-06
6.05288e-06
6.25717e-06
6.10211e-06
6.11262e-06
6.0814e-06
6.1464e-06
6.10315e-06
6.10559e-06
6.10211e-06
6.10731e-06
6.10319e-06
6.1034e-06
6.10576e-06
6.10272e-06
6.10288e-06
6.103e-06
6.10492e-06
6.10362e-06
6.10262e-06
6.10282e-06
6.10408e-06
6.10385e-06
6.10245e-06
6.10265e-06
6.10362e-06
6.1036e-06
6.10235e-06
6.1025e-06
6.10334e-06
6.10332e-06
6.10225e-06
6.10236e-06
6.10308e-06
6.10308e-06
6.10223e-06
6.10228e-06
6.10289e-06
6.10288e-06
6.10219e-06
6.10222e-06
6.10272e-06
6.10274e-06
6.10213e-06
6.10215e-06
6.10256e-06
6.10261e-06
6.10204e-06
6.10205e-06
6.10237e-06
6.10246e-06
6.10193e-06
6.10195e-06
6.10218e-06
6.1023e-06
6.10177e-06
6.10185e-06
6.10202e-06
6.10217e-06
6.10158e-06
6.10173e-06
6.10184e-06
6.10204e-06
6.10137e-06
6.10158e-06
6.10163e-06
6.10189e-06
6.10113e-06
6.10138e-06
6.10145e-06
6.10175e-06
6.10086e-06
6.10115e-06
6.10126e-06
6.10163e-06
6.10056e-06
6.10087e-06
6.10103e-06
6.10148e-06
6.10021e-06
6.10056e-06
6.10076e-06
6.10127e-06
6.09983e-06
6.1002e-06
6.10043e-06
6.10101e-06
6.0994e-06
6.09979e-06
6.10005e-06
6.10069e-06
6.09892e-06
6.09933e-06
6.09961e-06
6.1003e-06
6.09838e-06
6.09881e-06
6.09911e-06
6.09984e-06
6.09778e-06
6.09821e-06
6.09853e-06
6.0993e-06
6.09675e-06
6.09711e-06
6.09755e-06
6.09789e-06
6.09868e-06
6.09601e-06
6.09637e-06
6.09682e-06
6.09716e-06
6.09797e-06
6.09522e-06
6.09557e-06
6.09602e-06
6.09636e-06
6.09718e-06
6.09436e-06
6.09471e-06
6.09515e-06
6.09549e-06
6.09631e-06
6.09345e-06
6.09379e-06
6.09422e-06
6.09456e-06
6.09538e-06
6.09251e-06
6.09283e-06
6.09325e-06
6.09358e-06
6.09439e-06
6.09154e-06
6.09185e-06
6.09226e-06
6.09258e-06
6.09336e-06
6.09056e-06
6.09086e-06
6.09126e-06
6.09157e-06
6.09232e-06
6.0896e-06
6.08988e-06
6.09027e-06
6.09057e-06
6.09129e-06
6.08865e-06
6.08893e-06
6.0893e-06
6.08959e-06
6.09028e-06
6.08771e-06
6.08799e-06
6.08834e-06
6.08863e-06
6.08929e-06
6.08677e-06
6.08703e-06
6.08738e-06
6.08767e-06
6.08831e-06
6.08577e-06
6.08602e-06
6.08637e-06
6.08665e-06
6.08727e-06
6.08463e-06
6.08488e-06
6.08521e-06
6.0855e-06
6.08611e-06
6.08309e-06
6.08329e-06
6.08353e-06
6.08385e-06
6.08412e-06
6.08473e-06
6.0815e-06
6.08168e-06
6.08189e-06
6.08219e-06
6.08245e-06
6.08305e-06
6.07964e-06
6.07978e-06
6.07996e-06
6.08023e-06
6.08047e-06
6.08105e-06
6.07757e-06
6.07768e-06
6.07782e-06
6.07805e-06
6.07824e-06
6.07877e-06
6.07548e-06
6.07555e-06
6.07564e-06
6.07582e-06
6.07596e-06
6.07642e-06
6.07359e-06
6.07363e-06
6.07369e-06
6.07381e-06
6.0739e-06
6.07424e-06
6.07221e-06
6.07223e-06
6.07225e-06
6.07232e-06
6.07236e-06
6.07257e-06
6.07164e-06
6.07164e-06
6.07164e-06
6.07166e-06
6.07166e-06
6.07174e-06
6.07221e-06
6.07225e-06
6.07228e-06
6.07227e-06
6.07228e-06
6.07223e-06
6.07365e-06
6.07375e-06
6.07384e-06
6.0739e-06
6.07392e-06
6.07397e-06
6.07381e-06
6.07593e-06
6.0761e-06
6.07623e-06
6.07635e-06
6.07642e-06
6.0765e-06
6.07636e-06
6.07894e-06
6.07917e-06
6.07938e-06
6.07956e-06
6.07969e-06
6.07984e-06
6.07973e-06
6.08251e-06
6.08282e-06
6.0831e-06
6.08335e-06
6.08356e-06
6.08378e-06
6.08374e-06
6.08639e-06
6.08677e-06
6.08712e-06
6.08745e-06
6.08773e-06
6.08804e-06
6.08809e-06
6.09034e-06
6.09077e-06
6.09118e-06
6.09156e-06
6.09191e-06
6.09229e-06
6.09242e-06
6.0936e-06
6.09409e-06
6.09456e-06
6.09502e-06
6.09545e-06
6.09593e-06
6.09618e-06
6.09586e-06
6.09639e-06
6.09691e-06
6.09743e-06
6.09795e-06
6.09852e-06
6.09893e-06
6.09762e-06
6.09816e-06
6.09869e-06
6.09924e-06
6.09979e-06
6.10041e-06
6.10092e-06
6.09898e-06
6.09952e-06
6.10007e-06
6.10063e-06
6.1012e-06
6.10185e-06
6.10241e-06
6.09967e-06
6.10025e-06
6.10083e-06
6.10141e-06
6.102e-06
6.10261e-06
6.10329e-06
6.10388e-06
6.10167e-06
6.10237e-06
6.10307e-06
6.10376e-06
6.10447e-06
6.10519e-06
6.10599e-06
6.10665e-06
6.10556e-06
6.10651e-06
6.10745e-06
6.10838e-06
6.10934e-06
6.11032e-06
6.11143e-06
6.11233e-06
6.11149e-06
6.11271e-06
6.11393e-06
6.11516e-06
6.11642e-06
6.11773e-06
6.11918e-06
6.12049e-06
6.11632e-06
6.11755e-06
6.11877e-06
6.12001e-06
6.12128e-06
6.12262e-06
6.12413e-06
6.12557e-06
6.11421e-06
6.11498e-06
6.11573e-06
6.11648e-06
6.11724e-06
6.11805e-06
6.11884e-06
6.11977e-06
6.10693e-06
6.10791e-06
6.10892e-06
6.10997e-06
6.1111e-06
6.11229e-06
6.11375e-06
6.11491e-06
6.11363e-06
6.11661e-06
6.11965e-06
6.12278e-06
6.12604e-06
6.1295e-06
6.13341e-06
6.13705e-06
6.11016e-06
6.11144e-06
6.1126e-06
6.11367e-06
6.11466e-06
6.11559e-06
6.11657e-06
6.11742e-06
0.126592
0.0830854
0.054267
0.0293301
0.00865846
0.000820093
6.45415e-05
6.29776e-07
4.41512e-09
1.47463e-06
5.33949e-06
6.33906e-06
6.24788e-06
6.13929e-06
6.11117e-06
6.109e-06
6.10928e-06
6.10864e-06
6.10769e-06
6.10682e-06
6.10607e-06
6.10544e-06
6.10492e-06
6.10447e-06
6.10405e-06
6.10367e-06
6.10335e-06
6.10307e-06
6.10279e-06
6.10256e-06
6.10235e-06
6.10213e-06
6.10186e-06
6.10154e-06
6.10117e-06
6.10074e-06
6.10024e-06
6.09967e-06
6.09901e-06
6.09827e-06
6.09745e-06
6.09656e-06
6.0956e-06
6.09459e-06
6.09354e-06
6.09249e-06
6.09145e-06
6.09043e-06
6.08944e-06
6.08845e-06
6.0874e-06
6.08623e-06
6.08482e-06
6.0831e-06
6.08105e-06
6.07874e-06
6.07635e-06
6.07419e-06
6.07257e-06
6.07181e-06
6.07235e-06
6.07399e-06
6.07661e-06
6.08006e-06
6.08415e-06
6.08855e-06
6.09292e-06
6.09672e-06
6.09948e-06
6.10145e-06
6.10293e-06
6.10443e-06
6.10734e-06
6.11327e-06
6.12167e-06
6.1265e-06
6.12032e-06
6.11595e-06
6.13946e-06
6.11822e-06
0.149877
0.0867145
0.043177
0.0174615
0.00341326
0.000828391
2.79549e-11
1.05653e-10
3.91305e-08
3.708e-06
6.13523e-06
6.35137e-06
6.19809e-06
6.12776e-06
6.11514e-06
6.11454e-06
6.11379e-06
6.11231e-06
6.11079e-06
6.10947e-06
6.10834e-06
6.10738e-06
6.10657e-06
6.10586e-06
6.10524e-06
6.1047e-06
6.10424e-06
6.10384e-06
6.10348e-06
6.10318e-06
6.10291e-06
6.10263e-06
6.10231e-06
6.10195e-06
6.10154e-06
6.10107e-06
6.10054e-06
6.09993e-06
6.09925e-06
6.09848e-06
6.09763e-06
6.09672e-06
6.09574e-06
6.09471e-06
6.09365e-06
6.09259e-06
6.09155e-06
6.09053e-06
6.08954e-06
6.08854e-06
6.08749e-06
6.08629e-06
6.08484e-06
6.08308e-06
6.08098e-06
6.07862e-06
6.07622e-06
6.07408e-06
6.0725e-06
6.07183e-06
6.07247e-06
6.0742e-06
6.0769e-06
6.08043e-06
6.08458e-06
6.08902e-06
6.09343e-06
6.09724e-06
6.09996e-06
6.1019e-06
6.10335e-06
6.10488e-06
6.10794e-06
6.11408e-06
6.12263e-06
6.12711e-06
6.1207e-06
6.11692e-06
6.14102e-06
6.11871e-06
0.151266
0.0808181
0.0295081
0.0071167
0.000415529
7.35369e-05
1.15532e-13
4.43125e-11
1.08694e-06
5.98271e-06
6.38957e-06
6.27969e-06
6.15528e-06
6.12269e-06
6.11927e-06
6.11857e-06
6.11686e-06
6.11483e-06
6.11296e-06
6.11136e-06
6.10998e-06
6.10881e-06
6.10781e-06
6.10693e-06
6.10618e-06
6.10553e-06
6.10498e-06
6.1045e-06
6.10409e-06
6.10375e-06
6.10343e-06
6.1031e-06
6.10274e-06
6.10234e-06
6.1019e-06
6.1014e-06
6.10083e-06
6.1002e-06
6.09949e-06
6.09869e-06
6.09782e-06
6.09688e-06
6.09588e-06
6.09484e-06
6.09378e-06
6.09271e-06
6.09166e-06
6.09065e-06
6.08966e-06
6.08865e-06
6.08758e-06
6.08635e-06
6.08486e-06
6.08305e-06
6.08089e-06
6.07849e-06
6.07608e-06
6.07395e-06
6.07242e-06
6.07185e-06
6.0726e-06
6.07443e-06
6.07723e-06
6.08085e-06
6.08507e-06
6.08954e-06
6.09398e-06
6.0978e-06
6.10048e-06
6.10236e-06
6.10379e-06
6.10536e-06
6.10859e-06
6.11498e-06
6.12366e-06
6.12772e-06
6.1211e-06
6.11805e-06
6.14262e-06
6.11918e-06
0.135196
0.0642306
0.0149412
0.000786085
0.000187189
0
5.42297e-10
1.724e-07
4.36351e-06
6.88319e-06
6.31406e-06
6.2056e-06
6.13218e-06
6.12338e-06
6.12277e-06
6.12114e-06
6.11874e-06
6.11639e-06
6.11434e-06
6.11257e-06
6.11106e-06
6.10976e-06
6.10865e-06
6.10769e-06
6.10687e-06
6.10617e-06
6.10557e-06
6.10506e-06
6.10463e-06
6.10426e-06
6.1039e-06
6.10354e-06
6.10315e-06
6.10273e-06
6.10226e-06
6.10173e-06
6.10114e-06
6.10048e-06
6.09974e-06
6.09892e-06
6.09802e-06
6.09706e-06
6.09604e-06
6.09499e-06
6.09391e-06
6.09284e-06
6.0918e-06
6.09078e-06
6.08979e-06
6.08878e-06
6.08769e-06
6.08642e-06
6.08489e-06
6.08301e-06
6.0808e-06
6.07836e-06
6.07592e-06
6.07381e-06
6.07234e-06
6.07187e-06
6.07274e-06
6.07468e-06
6.07758e-06
6.0813e-06
6.08558e-06
6.0901e-06
6.09457e-06
6.09839e-06
6.10102e-06
6.10285e-06
6.10425e-06
6.10587e-06
6.10929e-06
6.11594e-06
6.12473e-06
6.12835e-06
6.12152e-06
6.11932e-06
6.14429e-06
6.11963e-06
0.104438
0.0387217
0.00281479
0.000692638
0
4.9528e-11
1.82088e-08
2.35373e-06
6.87463e-06
6.7291e-06
6.19115e-06
6.16181e-06
6.1251e-06
6.12666e-06
6.12532e-06
6.12277e-06
6.11997e-06
6.11746e-06
6.11529e-06
6.11343e-06
6.11183e-06
6.11046e-06
6.10929e-06
6.10828e-06
6.10742e-06
6.10669e-06
6.10608e-06
6.10555e-06
6.10511e-06
6.10473e-06
6.10435e-06
6.10396e-06
6.10355e-06
6.10311e-06
6.10261e-06
6.10206e-06
6.10144e-06
6.10076e-06
6.09999e-06
6.09915e-06
6.09823e-06
6.09724e-06
6.09621e-06
6.09514e-06
6.09406e-06
6.09298e-06
6.09194e-06
6.09092e-06
6.08993e-06
6.08891e-06
6.08779e-06
6.08649e-06
6.0849e-06
6.08296e-06
6.08069e-06
6.07821e-06
6.07576e-06
6.07368e-06
6.07226e-06
6.0719e-06
6.0729e-06
6.07495e-06
6.07796e-06
6.08178e-06
6.08613e-06
6.09069e-06
6.09519e-06
6.099e-06
6.10159e-06
6.10336e-06
6.10473e-06
6.10642e-06
6.11004e-06
6.11698e-06
6.12584e-06
6.12899e-06
6.12196e-06
6.12073e-06
6.14604e-06
6.12004e-06
0.0650015
0.0150741
0.000313519
4.32045e-05
0
4.99008e-09
1.41115e-06
6.26451e-06
7.22442e-06
6.3416e-06
6.13347e-06
6.14382e-06
6.12636e-06
6.12979e-06
6.1268e-06
6.12371e-06
6.12076e-06
6.11819e-06
6.11597e-06
6.11406e-06
6.11242e-06
6.11102e-06
6.10981e-06
6.10878e-06
6.10791e-06
6.10717e-06
6.10655e-06
6.10603e-06
6.10558e-06
6.10518e-06
6.10479e-06
6.10438e-06
6.10395e-06
6.10349e-06
6.10297e-06
6.10239e-06
6.10175e-06
6.10104e-06
6.10024e-06
6.09938e-06
6.09843e-06
6.09743e-06
6.09638e-06
6.0953e-06
6.09421e-06
6.09313e-06
6.09209e-06
6.09107e-06
6.09007e-06
6.08904e-06
6.0879e-06
6.08656e-06
6.08491e-06
6.0829e-06
6.08056e-06
6.07804e-06
6.07559e-06
6.07353e-06
6.07219e-06
6.07195e-06
6.07308e-06
6.07525e-06
6.07838e-06
6.08229e-06
6.08672e-06
6.09131e-06
6.09584e-06
6.09965e-06
6.10218e-06
6.10389e-06
6.10524e-06
6.10701e-06
6.11085e-06
6.11809e-06
6.127e-06
6.12965e-06
6.12242e-06
6.12228e-06
0.0258449
0.00088
4.25684e-05
3.31672e-07
2.20844e-09
6.32927e-07
5.84175e-06
7.47108e-06
6.64047e-06
6.12948e-06
6.13095e-06
6.13821e-06
6.13012e-06
6.1315e-06
6.12736e-06
6.12414e-06
6.12116e-06
6.11861e-06
6.1164e-06
6.11449e-06
6.11285e-06
6.11144e-06
6.11024e-06
6.10921e-06
6.10835e-06
6.10762e-06
6.107e-06
6.10649e-06
6.10604e-06
6.10563e-06
6.10522e-06
6.1048e-06
6.10435e-06
6.10387e-06
6.10333e-06
6.10273e-06
6.10206e-06
6.10132e-06
6.1005e-06
6.09961e-06
6.09864e-06
6.09762e-06
6.09655e-06
6.09545e-06
6.09436e-06
6.09328e-06
6.09224e-06
6.09123e-06
6.09023e-06
6.08918e-06
6.08801e-06
6.08661e-06
6.0849e-06
6.08282e-06
6.08042e-06
6.07786e-06
6.07541e-06
6.07339e-06
6.07213e-06
6.07202e-06
6.07329e-06
6.07558e-06
6.07883e-06
6.08284e-06
6.08734e-06
6.09197e-06
6.09654e-06
6.10033e-06
6.10279e-06
6.10444e-06
6.10577e-06
6.10763e-06
6.11173e-06
6.11929e-06
6.12821e-06
6.13033e-06
0.0029848
0.000741761
1.89403e-12
1.02172e-09
3.25159e-07
5.649e-06
7.73647e-06
6.86389e-06
6.20027e-06
6.097e-06
6.14188e-06
6.1366e-06
6.13317e-06
6.13168e-06
6.1273e-06
6.12417e-06
6.12127e-06
6.11878e-06
6.11662e-06
6.11475e-06
6.11314e-06
6.11176e-06
6.11058e-06
6.10958e-06
6.10874e-06
6.10803e-06
6.10744e-06
6.10693e-06
6.10649e-06
6.10607e-06
6.10565e-06
6.10521e-06
6.10475e-06
6.10424e-06
6.10368e-06
6.10306e-06
6.10236e-06
6.1016e-06
6.10075e-06
6.09983e-06
6.09884e-06
6.0978e-06
6.09672e-06
6.09561e-06
6.09451e-06
6.09344e-06
6.0924e-06
6.09139e-06
6.09038e-06
6.08932e-06
6.08811e-06
6.08666e-06
6.08488e-06
6.08272e-06
6.08026e-06
6.07766e-06
6.07522e-06
6.07324e-06
6.07207e-06
6.07211e-06
6.07352e-06
6.07595e-06
6.07931e-06
6.08343e-06
6.088e-06
6.09268e-06
6.09727e-06
6.10104e-06
6.10343e-06
6.10502e-06
6.10633e-06
6.10831e-06
6.11268e-06
6.12057e-06
0.000807619
0
1.61955e-11
5.5324e-09
5.65243e-06
8.0136e-06
7.02197e-06
6.25769e-06
6.08321e-06
6.12725e-06
6.14535e-06
6.13625e-06
6.13433e-06
6.13087e-06
6.12688e-06
6.12389e-06
6.12113e-06
6.11875e-06
6.11667e-06
6.11488e-06
6.11332e-06
6.11199e-06
6.11086e-06
6.10991e-06
6.1091e-06
6.10842e-06
6.10786e-06
6.10737e-06
6.10693e-06
6.1065e-06
6.10607e-06
6.10562e-06
6.10514e-06
6.10461e-06
6.10403e-06
6.10338e-06
6.10266e-06
6.10187e-06
6.101e-06
6.10005e-06
6.09904e-06
6.09798e-06
6.09688e-06
6.09577e-06
6.09467e-06
6.0936e-06
6.09256e-06
6.09155e-06
6.09054e-06
6.08945e-06
6.08821e-06
6.0867e-06
6.08484e-06
6.0826e-06
6.08008e-06
6.07745e-06
6.07501e-06
6.07309e-06
6.07202e-06
6.07222e-06
6.07378e-06
6.07635e-06
6.07984e-06
6.08407e-06
6.08871e-06
6.09342e-06
6.09804e-06
6.10178e-06
6.10409e-06
6.10561e-06
6.10693e-06
0
0
1.81804e-08
4.63055e-06
8.74186e-06
7.01519e-06
6.2791e-06
6.0743e-06
6.11253e-06
6.14708e-06
6.14249e-06
6.13615e-06
6.13371e-06
6.12963e-06
6.12621e-06
6.12338e-06
6.12079e-06
6.11855e-06
6.11659e-06
6.11489e-06
6.11343e-06
6.11217e-06
6.11111e-06
6.11021e-06
6.10945e-06
6.10881e-06
6.10828e-06
6.1078e-06
6.10736e-06
6.10693e-06
6.10649e-06
6.10603e-06
6.10553e-06
6.10498e-06
6.10437e-06
6.1037e-06
6.10295e-06
6.10213e-06
6.10123e-06
6.10026e-06
6.09923e-06
6.09815e-06
6.09705e-06
6.09593e-06
6.09483e-06
6.09376e-06
6.09273e-06
6.09172e-06
6.0907e-06
6.08959e-06
6.08829e-06
6.08671e-06
6.08477e-06
6.08246e-06
6.07987e-06
6.07722e-06
6.0748e-06
6.07293e-06
6.07199e-06
6.07236e-06
6.07408e-06
6.07679e-06
6.08041e-06
6.08475e-06
6.08946e-06
6.09421e-06
0
1.17601e-08
3.05163e-06
9.05639e-06
7.09176e-06
6.19253e-06
6.07395e-06
6.10129e-06
6.14575e-06
6.14756e-06
6.13908e-06
6.13537e-06
6.13206e-06
6.12829e-06
6.12533e-06
6.12268e-06
6.1203e-06
6.11823e-06
6.11642e-06
6.11484e-06
6.11348e-06
6.11232e-06
6.11134e-06
6.1105e-06
6.1098e-06
6.10921e-06
6.1087e-06
6.10824e-06
6.1078e-06
6.10736e-06
6.10691e-06
6.10643e-06
6.10591e-06
6.10534e-06
6.10471e-06
6.10401e-06
6.10324e-06
6.10239e-06
6.10146e-06
6.10047e-06
6.09942e-06
6.09832e-06
6.09721e-06
6.09609e-06
6.09499e-06
6.09393e-06
6.0929e-06
6.0919e-06
6.09086e-06
6.08972e-06
6.08837e-06
6.08671e-06
6.08468e-06
6.08229e-06
6.07964e-06
6.07697e-06
6.07457e-06
6.07278e-06
6.07198e-06
6.07254e-06
6.07441e-06
1.1683e-08
3.00747e-06
8.76288e-06
7.25394e-06
6.0767e-06
6.05208e-06
6.10489e-06
6.14299e-06
6.15083e-06
6.142e-06
6.13672e-06
6.13364e-06
6.13011e-06
6.12694e-06
6.1243e-06
6.12187e-06
6.11972e-06
6.11784e-06
6.11619e-06
6.11475e-06
6.11352e-06
6.11246e-06
6.11156e-06
6.1108e-06
6.11016e-06
6.10961e-06
6.10912e-06
6.10867e-06
6.10823e-06
6.10778e-06
6.10732e-06
6.10683e-06
6.10629e-06
6.10569e-06
6.10504e-06
6.10431e-06
6.10351e-06
6.10263e-06
6.10168e-06
6.10066e-06
6.09959e-06
6.09849e-06
6.09736e-06
6.09625e-06
6.09515e-06
6.0941e-06
6.09308e-06
6.09207e-06
6.09102e-06
6.08984e-06
6.08843e-06
6.08669e-06
6.08457e-06
6.08208e-06
3.74821e-06
8.01636e-06
7.18691e-06
6.03961e-06
6.0081e-06
6.11861e-06
6.1444e-06
6.15145e-06
6.14412e-06
6.13775e-06
6.13452e-06
6.13136e-06
6.12822e-06
6.12556e-06
6.12318e-06
6.12101e-06
6.1191e-06
6.11742e-06
6.11594e-06
6.11466e-06
6.11355e-06
6.11261e-06
6.1118e-06
6.11112e-06
6.11053e-06
6.11002e-06
6.10955e-06
6.10911e-06
6.10867e-06
6.10821e-06
6.10774e-06
6.10722e-06
6.10666e-06
6.10604e-06
6.10536e-06
6.1046e-06
6.10377e-06
6.10286e-06
6.10189e-06
6.10085e-06
6.09976e-06
6.09864e-06
)
;

boundaryField
{
    inlet
    {
        type            freestream;
        freestreamValue uniform 1e-05;
        value           uniform 1e-05;
    }
    outlet
    {
        type            freestream;
        freestreamValue nonuniform List<scalar> 0();
        value           nonuniform List<scalar> 0();
    }
    walls
    {
        type            nutUSpaldingWallFunction;
        value           nonuniform List<scalar> 4(0.00272751 0.00266324 0.00257244 0.00231612);
    }
    frontAndBack
    {
        type            empty;
    }
    procBoundary2to1
    {
        type            processor;
        value           nonuniform List<scalar> 
84
(
0.107973
0.0680041
0.0311555
0.00304126
0.000728236
2.90023e-09
3.40536e-06
6.31427e-06
6.12488e-06
6.08879e-06
6.09347e-06
6.10156e-06
6.10477e-06
6.10414e-06
6.1033e-06
6.10282e-06
6.10256e-06
6.10241e-06
6.10232e-06
6.10227e-06
6.10221e-06
6.1022e-06
6.10214e-06
6.10204e-06
6.1019e-06
6.10174e-06
6.10156e-06
6.10135e-06
6.10112e-06
6.10085e-06
6.10057e-06
6.10024e-06
6.09989e-06
6.09949e-06
6.09905e-06
6.09856e-06
6.09802e-06
6.09741e-06
6.09741e-06
6.0964e-06
6.09568e-06
6.09489e-06
6.09404e-06
6.09315e-06
6.09221e-06
6.09125e-06
6.09029e-06
6.08933e-06
6.0884e-06
6.08747e-06
6.08653e-06
6.08553e-06
6.08441e-06
6.08441e-06
6.08292e-06
6.08136e-06
6.07953e-06
6.0775e-06
6.07544e-06
6.07358e-06
6.07221e-06
6.07164e-06
6.07216e-06
6.07216e-06
6.07353e-06
6.07574e-06
6.07867e-06
6.08216e-06
6.08597e-06
6.08987e-06
6.09308e-06
6.09531e-06
6.09707e-06
6.09843e-06
6.09843e-06
6.09908e-06
6.10096e-06
6.1046e-06
6.11024e-06
6.11507e-06
6.11342e-06
6.106e-06
6.1107e-06
6.10878e-06
)
;
    }
    procBoundary2to3
    {
        type            processor;
        value           nonuniform List<scalar> 
88
(
6.14789e-06
6.12039e-06
6.12291e-06
6.14789e-06
6.124e-06
6.12946e-06
6.12291e-06
6.13102e-06
6.10904e-06
6.11372e-06
6.12946e-06
6.12194e-06
6.09885e-06
6.10256e-06
6.10477e-06
6.10624e-06
6.10904e-06
6.10756e-06
6.07727e-06
6.08103e-06
6.08547e-06
6.09025e-06
6.09885e-06
6.09505e-06
6.07938e-06
6.07669e-06
6.07433e-06
6.07263e-06
6.07198e-06
6.07274e-06
6.07727e-06
6.07478e-06
6.09752e-06
6.0964e-06
6.09532e-06
6.09427e-06
6.09326e-06
6.09225e-06
6.09117e-06
6.08995e-06
6.08847e-06
6.08664e-06
6.08442e-06
6.07938e-06
6.08185e-06
7.72273e-06
6.92169e-06
6.04866e-06
5.99524e-06
6.12693e-06
6.15286e-06
6.15008e-06
6.14461e-06
6.13823e-06
6.13485e-06
6.13201e-06
6.12907e-06
6.12646e-06
6.12416e-06
6.12205e-06
6.12016e-06
6.11849e-06
6.11701e-06
6.11571e-06
6.11459e-06
6.11362e-06
6.11279e-06
6.11207e-06
6.11146e-06
6.11093e-06
6.11045e-06
6.10999e-06
6.10955e-06
6.1091e-06
6.10864e-06
6.10815e-06
6.10761e-06
6.10703e-06
6.10638e-06
6.10567e-06
6.10488e-06
6.10402e-06
6.10308e-06
6.10208e-06
6.10102e-06
6.09992e-06
6.09752e-06
6.09879e-06
)
;
    }
    procBoundary2to6
    {
        type            processor;
        value           nonuniform List<scalar> 
13
(
0.172386
0.21365
0.217839
0.202712
0.172768
0.130182
0.0788831
0.0300031
0.00322547
0.000426223
0
0
1.62417e-08
)
;
    }
}


// ************************************************************************* //
