/*--------------------------------*- C++ -*----------------------------------*\
| =========                 |                                                 |
| \\      /  F ield         | OpenFOAM: The Open Source CFD Toolbox           |
|  \\    /   O peration     | Version:  2506                                  |
|   \\  /    A nd           | Website:  www.openfoam.com                      |
|    \\/     M anipulation  |                                                 |
\*---------------------------------------------------------------------------*/
FoamFile
{
    version     2.0;
    format      ascii;
    arch        "LSB;label=32;scalar=64";
    class       volScalarField;
    location    "350";
    object      turbulenceProperties:epsilon;
}
// * * * * * * * * * * * * * * * * * * * * * * * * * * * * * * * * * * * * * //

dimensions      [0 2 -3 0 0 0 0];

internalField   nonuniform List<scalar> 
1340
(
978.901
912.853
836.925
619.374
1.34796
1.59531
2.20732
4.09683
0.110627
0.177005
0.222086
0.549854
0.000863196
0.00494333
0.0189489
0.139786
7.94475e-05
9.20945e-05
0.000240975
0.0150724
7.30345e-06
1.14995e-05
4.8498e-05
0.00111904
4.91392e-09
8.12115e-10
7.03173e-13
2.43583e-05
3.15725e-07
1.80149e-07
1.14259e-09
1.53707e-07
4.53926e-07
5.26834e-07
5.92034e-07
3.89681e-10
3.24139e-07
3.15521e-07
8.75661e-07
1.33806e-07
3.31712e-07
3.29082e-07
6.59067e-07
1.03025e-06
2.85449e-07
2.91864e-07
4.81981e-07
1.22974e-06
2.64129e-07
2.71676e-07
4.08724e-07
1.03842e-06
2.3554e-07
2.3975e-07
3.50314e-07
8.40587e-07
2.11223e-07
2.12722e-07
2.99826e-07
6.83942e-07
1.86618e-07
1.8588e-07
2.5352e-07
5.5584e-07
1.63625e-07
1.61107e-07
2.12858e-07
4.48976e-07
1.41794e-07
1.37886e-07
1.77246e-07
3.60067e-07
1.21472e-07
1.16536e-07
1.46242e-07
2.86601e-07
1.02721e-07
9.70855e-08
1.19497e-07
2.26641e-07
8.56442e-08
7.96048e-08
9.6529e-08
1.77934e-07
7.02907e-08
6.41315e-08
7.7004e-08
1.38716e-07
5.66911e-08
5.06292e-08
6.05677e-08
1.07424e-07
4.4842e-08
3.90609e-08
4.6865e-08
8.25947e-08
3.46964e-08
2.93281e-08
3.56163e-08
6.30981e-08
2.61851e-08
2.1317e-08
2.65171e-08
4.78955e-08
1.92082e-08
1.48876e-08
1.92968e-08
3.61633e-08
1.3642e-08
9.87786e-09
1.36916e-08
2.71945e-08
9.34383e-09
6.118e-09
9.46152e-09
2.04187e-08
6.16007e-09
3.43211e-09
6.37958e-09
1.53705e-08
3.92878e-09
1.64167e-09
4.23838e-09
1.16674e-08
2.48855e-09
5.79657e-10
2.84806e-09
9.00399e-09
1.68265e-09
8.70289e-11
2.04107e-09
7.13309e-09
1.36377e-09
1.98645e-11
1.67128e-09
5.85705e-09
1.39845e-09
2.51386e-10
1.61278e-09
5.01768e-09
1.66977e-09
6.73442e-10
1.76106e-09
4.49091e-09
2.07923e-09
1.19671e-09
2.03154e-09
4.17934e-09
2.54689e-09
1.7509e-09
2.35785e-09
4.00786e-09
4.81742e-09
3.0114e-09
2.28277e-09
2.69026e-09
3.91984e-09
4.96375e-09
3.42854e-09
2.75495e-09
2.99323e-09
3.87334e-09
5.0749e-09
3.76933e-09
3.14406e-09
3.24373e-09
3.83892e-09
5.12799e-09
4.018e-09
3.43772e-09
3.42837e-09
3.79644e-09
5.1118e-09
4.16927e-09
3.63312e-09
3.54228e-09
3.73397e-09
5.02453e-09
4.22578e-09
3.73388e-09
3.58609e-09
3.64522e-09
4.87114e-09
4.19612e-09
3.74878e-09
3.5647e-09
3.52804e-09
4.66077e-09
4.09236e-09
3.68975e-09
3.48656e-09
3.38422e-09
4.40498e-09
3.92831e-09
3.56968e-09
3.36076e-09
3.217e-09
4.1163e-09
3.71837e-09
3.40228e-09
3.19746e-09
3.03087e-09
3.8064e-09
3.47586e-09
3.20029e-09
3.00658e-09
2.8313e-09
3.48593e-09
3.2127e-09
2.97484e-09
2.79676e-09
2.62292e-09
3.1635e-09
2.93898e-09
2.73576e-09
2.57577e-09
2.41039e-09
2.84585e-09
2.66239e-09
2.4906e-09
2.34977e-09
2.1974e-09
2.694e-09
2.53805e-09
2.38915e-09
2.24545e-09
2.12374e-09
1.98697e-09
2.36723e-09
2.24387e-09
2.12393e-09
2.00504e-09
1.90173e-09
1.78171e-09
2.06362e-09
1.96665e-09
1.87079e-09
1.77354e-09
1.68732e-09
1.58397e-09
1.78515e-09
1.70941e-09
1.63348e-09
1.55477e-09
1.48397e-09
1.39643e-09
1.53379e-09
1.47501e-09
1.41533e-09
1.35226e-09
1.29498e-09
1.22179e-09
1.31085e-09
1.26548e-09
1.21888e-09
1.16873e-09
1.12292e-09
1.06233e-09
1.11607e-09
1.08115e-09
1.04493e-09
1.00529e-09
9.69013e-10
9.19313e-10
9.47108e-10
9.20297e-10
8.92248e-10
8.61098e-10
8.32619e-10
7.92252e-10
8.00128e-10
7.79591e-10
7.57986e-10
7.33703e-10
7.11591e-10
6.79257e-10
6.85787e-10
6.70976e-10
6.55314e-10
6.3881e-10
6.20124e-10
6.03267e-10
5.77827e-10
5.6804e-10
5.56807e-10
5.44972e-10
5.32547e-10
5.1843e-10
5.05924e-10
4.86318e-10
4.64808e-10
4.56336e-10
4.47498e-10
4.38301e-10
4.27851e-10
4.189e-10
4.04097e-10
3.75995e-10
3.69656e-10
3.63141e-10
3.56451e-10
3.48868e-10
3.42746e-10
3.31745e-10
3.0129e-10
2.96567e-10
2.91801e-10
2.87007e-10
2.81591e-10
2.77568e-10
2.69421e-10
2.4077e-10
2.37219e-10
2.33725e-10
2.30347e-10
2.2659e-10
2.24144e-10
2.18344e-10
1.95665e-10
1.92798e-10
1.90057e-10
1.87508e-10
1.84739e-10
1.8323e-10
1.7915e-10
1.62768e-10
1.60281e-10
1.57954e-10
1.55828e-10
1.53558e-10
1.52473e-10
1.49329e-10
1.35762e-10
1.33539e-10
1.31476e-10
1.29619e-10
1.27685e-10
1.26833e-10
1.24361e-10
1.12034e-10
1.10072e-10
1.08252e-10
1.06649e-10
1.05011e-10
1.04326e-10
1.02381e-10
9.27185e-11
9.06441e-11
8.87841e-11
8.71192e-11
8.572e-11
8.44095e-11
8.40729e-11
8.32906e-11
7.32899e-11
7.10863e-11
6.90496e-11
6.7197e-11
6.55798e-11
6.40766e-11
6.30893e-11
6.15022e-11
5.20601e-11
5.00974e-11
4.84332e-11
4.7073e-11
4.60913e-11
4.54966e-11
4.62922e-11
4.81782e-11
2.85754e-11
2.58026e-11
2.3394e-11
2.13689e-11
1.97062e-11
1.83632e-11
1.73135e-11
1.58072e-11
1.82928e-11
1.76364e-11
1.74524e-11
1.77784e-11
1.88605e-11
2.0887e-11
2.6132e-11
3.49212e-11
2.2774e-11
2.25382e-11
2.22476e-11
2.18415e-11
2.15265e-11
2.28182e-11
3.16279e-11
4.27485e-11
1.65356e-10
1.77905e-10
1.892e-10
1.99939e-10
2.12721e-10
2.32325e-10
2.84332e-10
3.3158e-10
5.83359e-10
5.86997e-10
5.89615e-10
5.9139e-10
5.92617e-10
5.9662e-10
6.20959e-10
5.63886e-10
2.12903e-09
2.13048e-09
2.12816e-09
2.1237e-09
2.11418e-09
2.10931e-09
2.07509e-09
1.78607e-09
38.7307
4.31161
0.463983
0.0822293
0.00851773
0.000396922
2.5546e-05
2.21078e-07
7.3049e-10
4.13553e-07
1.36789e-06
1.37408e-06
1.13295e-06
9.25533e-07
7.61463e-07
6.25609e-07
5.10901e-07
4.14667e-07
3.34712e-07
2.68623e-07
2.14446e-07
1.70339e-07
1.34679e-07
1.06057e-07
8.32205e-08
6.51354e-08
5.09069e-08
3.97848e-08
3.11493e-08
2.44894e-08
1.93877e-08
1.55059e-08
1.25697e-08
1.03627e-08
8.71205e-09
7.48048e-09
6.56121e-09
5.87065e-09
5.34414e-09
4.93267e-09
4.59915e-09
4.31607e-09
4.06424e-09
3.82997e-09
3.60443e-09
3.38269e-09
3.16226e-09
2.9423e-09
2.72373e-09
2.50735e-09
2.29473e-09
2.08705e-09
1.8854e-09
1.69095e-09
1.50495e-09
1.32921e-09
1.16576e-09
1.01646e-09
8.82279e-10
7.62705e-10
6.55995e-10
5.59848e-10
4.72817e-10
3.9437e-10
3.25123e-10
2.65145e-10
2.15925e-10
1.77918e-10
1.48852e-10
1.24359e-10
1.02593e-10
8.40365e-11
6.16417e-11
5.03742e-11
1.52227e-11
4.15305e-11
3.53897e-11
3.19783e-10
4.40136e-10
1.40822e-09
11.8486
2.14678
0.155048
0.00937532
0.000460624
7.36829e-05
7.21045e-13
3.05058e-12
2.16501e-09
3.0481e-07
4.68648e-07
4.42984e-07
3.91393e-07
3.47953e-07
3.10275e-07
2.75265e-07
2.42391e-07
2.11669e-07
1.83502e-07
1.57861e-07
1.34818e-07
1.14309e-07
9.62498e-08
8.05842e-08
6.71057e-08
5.56273e-08
4.59627e-08
3.79044e-08
3.12379e-08
2.57715e-08
2.13215e-08
1.77232e-08
1.4829e-08
1.25111e-08
1.06619e-08
9.18619e-09
8.00861e-09
7.06476e-09
6.30203e-09
5.67884e-09
5.1615e-09
4.72302e-09
4.34371e-09
4.00742e-09
3.70284e-09
3.42184e-09
3.15869e-09
2.90974e-09
2.67277e-09
2.44625e-09
2.22958e-09
2.02223e-09
1.82386e-09
1.63457e-09
1.4549e-09
1.28598e-09
1.12934e-09
9.86504e-10
8.5806e-10
7.43377e-10
6.40721e-10
5.47942e-10
4.63732e-10
3.87705e-10
3.20517e-10
2.62165e-10
2.14096e-10
1.76702e-10
1.48124e-10
1.24066e-10
1.02515e-10
8.41544e-11
6.17122e-11
5.09571e-11
1.49407e-11
4.56949e-11
2.71256e-11
3.22161e-10
4.32167e-10
1.47352e-09
4.68007
0.917271
0.0458396
0.000788194
1.47634e-05
2.5715e-06
5.48926e-16
4.0339e-13
3.07874e-08
1.73875e-07
1.69647e-07
1.52809e-07
1.36546e-07
1.23778e-07
1.1261e-07
1.02277e-07
9.27457e-08
8.39068e-08
7.56921e-08
6.81785e-08
6.124e-08
5.48598e-08
4.89696e-08
4.35916e-08
3.86781e-08
3.41877e-08
3.01182e-08
2.64561e-08
2.31723e-08
2.02545e-08
1.76806e-08
1.54274e-08
1.34705e-08
1.17826e-08
1.03364e-08
9.10193e-09
8.05289e-09
7.16199e-09
6.40467e-09
5.75844e-09
5.20405e-09
4.72381e-09
4.30386e-09
3.93191e-09
3.59844e-09
3.29613e-09
3.01886e-09
2.76255e-09
2.52383e-09
2.30023e-09
2.09004e-09
1.89174e-09
1.70423e-09
1.52682e-09
1.35951e-09
1.20296e-09
1.05819e-09
9.2636e-10
8.07773e-10
7.01672e-10
6.06363e-10
5.19895e-10
4.41136e-10
3.6984e-10
3.06713e-10
2.51725e-10
2.06214e-10
1.70612e-10
1.43471e-10
1.20693e-10
1.0006e-10
8.24372e-11
6.06722e-11
5.03459e-11
1.53297e-11
4.7492e-11
2.36425e-11
3.16914e-10
4.15005e-10
1.48083e-09
1.90083
0.289835
0.00651966
1.13437e-05
2.28944e-06
0
2.76835e-12
1.69973e-09
5.59875e-08
8.48808e-08
7.36242e-08
6.83049e-08
6.31932e-08
5.9007e-08
5.4932e-08
5.09404e-08
4.71499e-08
4.3536e-08
4.01115e-08
3.69328e-08
3.39436e-08
3.11764e-08
2.85996e-08
2.62017e-08
2.39809e-08
2.1917e-08
1.99962e-08
1.82141e-08
1.65594e-08
1.50271e-08
1.36115e-08
1.23076e-08
1.1114e-08
1.00251e-08
9.03751e-09
8.1472e-09
7.34779e-09
6.63312e-09
5.99634e-09
5.42927e-09
4.92484e-09
4.47538e-09
4.07318e-09
3.71205e-09
3.38604e-09
3.09006e-09
2.81961e-09
2.57138e-09
2.34227e-09
2.12979e-09
1.93199e-09
1.74694e-09
1.57327e-09
1.40997e-09
1.25663e-09
1.11362e-09
9.81653e-10
8.61535e-10
7.53394e-10
6.56407e-10
5.68949e-10
4.89272e-10
4.16427e-10
3.50263e-10
2.91538e-10
2.40216e-10
1.9756e-10
1.64076e-10
1.38574e-10
1.17167e-10
9.75543e-11
8.07709e-11
5.9801e-11
4.99197e-11
1.6255e-11
4.88137e-11
2.21562e-11
3.10581e-10
3.94127e-10
1.45922e-09
0.602192
0.0485181
0.000126916
5.61254e-06
0
9.73028e-14
7.2322e-11
1.56051e-08
4.72677e-08
4.50736e-08
4.04263e-08
3.90972e-08
3.76327e-08
3.63689e-08
3.49597e-08
3.34815e-08
3.19438e-08
3.03322e-08
2.86929e-08
2.7032e-08
2.5355e-08
2.36923e-08
2.20696e-08
2.04795e-08
1.89483e-08
1.74949e-08
1.61098e-08
1.48074e-08
1.35891e-08
1.24531e-08
1.13985e-08
1.04211e-08
9.52065e-09
8.69009e-09
7.92642e-09
7.22751e-09
6.58703e-09
6.00267e-09
5.46998e-09
4.98481e-09
4.54427e-09
4.1438e-09
3.77923e-09
3.44777e-09
3.14554e-09
2.86941e-09
2.61639e-09
2.38407e-09
2.17006e-09
1.9722e-09
1.78872e-09
1.61769e-09
1.45777e-09
1.30789e-09
1.16745e-09
1.03668e-09
9.16123e-10
8.06335e-10
7.07316e-10
6.18234e-10
5.37571e-10
4.6377e-10
3.96052e-10
3.34341e-10
2.79437e-10
2.31281e-10
1.91068e-10
1.59377e-10
1.35239e-10
1.1492e-10
9.61111e-11
7.99883e-11
5.96387e-11
5.0178e-11
1.75656e-11
5.09567e-11
2.1109e-11
3.10857e-10
3.83401e-10
1.45649e-09
0.10958
0.00240719
1.1969e-06
2.85749e-07
0
1.07429e-11
5.78176e-09
2.80057e-08
3.21253e-08
2.77549e-08
2.64203e-08
2.59562e-08
2.53198e-08
2.46915e-08
2.39609e-08
2.31959e-08
2.23669e-08
2.14881e-08
2.0588e-08
1.96558e-08
1.87045e-08
1.77391e-08
1.67761e-08
1.58088e-08
1.48515e-08
1.39146e-08
1.2992e-08
1.20993e-08
1.12385e-08
1.04129e-08
9.6276e-09
8.88324e-09
8.18439e-09
7.5292e-09
6.9181e-09
6.35175e-09
5.82639e-09
5.34197e-09
4.89511e-09
4.4836e-09
4.1059e-09
3.75841e-09
3.43892e-09
3.14576e-09
2.87602e-09
2.628e-09
2.39957e-09
2.18901e-09
1.99463e-09
1.8147e-09
1.6478e-09
1.49222e-09
1.34683e-09
1.21061e-09
1.08301e-09
9.64186e-10
8.54591e-10
7.54636e-10
6.64236e-10
5.82587e-10
5.08314e-10
4.40053e-10
3.77171e-10
3.19692e-10
2.6842e-10
2.23261e-10
1.85335e-10
1.55315e-10
1.32458e-10
1.13138e-10
9.50767e-11
7.95604e-11
5.97882e-11
5.07772e-11
1.91188e-11
5.36204e-11
1.99047e-11
3.13637e-10
0.00573321
1.42155e-06
2.67413e-07
7.39047e-10
2.35797e-12
1.36541e-09
1.50267e-08
1.95437e-08
1.73905e-08
1.6023e-08
1.60026e-08
1.59347e-08
1.57798e-08
1.55918e-08
1.53379e-08
1.50526e-08
1.47117e-08
1.43244e-08
1.39073e-08
1.34543e-08
1.29751e-08
1.24715e-08
1.1947e-08
1.1411e-08
1.08698e-08
1.03217e-08
9.77204e-09
9.23027e-09
8.69397e-09
8.16821e-09
7.65605e-09
7.15827e-09
6.67884e-09
6.21848e-09
5.77844e-09
5.36037e-09
4.96415e-09
4.5912e-09
4.24021e-09
3.91151e-09
3.60479e-09
3.31823e-09
3.05172e-09
2.80395e-09
2.5735e-09
2.35981e-09
2.16135e-09
1.97724e-09
1.80632e-09
1.6474e-09
1.49946e-09
1.3612e-09
1.23168e-09
1.11006e-09
9.95985e-10
8.89568e-10
7.91215e-10
7.01292e-10
6.1965e-10
5.45562e-10
4.77811e-10
4.15238e-10
3.57343e-10
3.04245e-10
2.56747e-10
2.14704e-10
1.79167e-10
1.50925e-10
1.2944e-10
1.11182e-10
9.39421e-11
7.90899e-11
5.99682e-11
5.14864e-11
2.08742e-11
5.63898e-11
5.38255e-06
3.39873e-06
7.68296e-16
5.25574e-13
3.74006e-10
8.49897e-09
1.20117e-08
1.08298e-08
9.88971e-09
9.82183e-09
9.97599e-09
1.00113e-08
1.00151e-08
9.98734e-09
9.92153e-09
9.82772e-09
9.69835e-09
9.53821e-09
9.35285e-09
9.14061e-09
8.90624e-09
8.65204e-09
8.37764e-09
8.0901e-09
7.79298e-09
7.48368e-09
7.16794e-09
6.84975e-09
6.52805e-09
6.20679e-09
5.8876e-09
5.57097e-09
5.25998e-09
4.95526e-09
4.65767e-09
4.36887e-09
4.0893e-09
3.82029e-09
3.56189e-09
3.31483e-09
3.07964e-09
2.85602e-09
2.64446e-09
2.4446e-09
2.25616e-09
2.07926e-09
1.91309e-09
1.75749e-09
1.6118e-09
1.47539e-09
1.34761e-09
1.22755e-09
1.11457e-09
1.00804e-09
9.07774e-10
8.13939e-10
7.26907e-10
6.47029e-10
5.74156e-10
5.07655e-10
4.46471e-10
3.89655e-10
3.36845e-10
2.88217e-10
2.44585e-10
2.05741e-10
1.72681e-10
1.46315e-10
1.26268e-10
1.09118e-10
9.27601e-11
7.86178e-11
6.0224e-11
5.23339e-11
3.85546e-06
0
3.29213e-15
2.20024e-12
5.37017e-09
7.818e-09
7.07283e-09
6.4353e-09
6.39267e-09
6.56608e-09
6.68768e-09
6.75936e-09
6.81381e-09
6.84177e-09
6.845e-09
6.82366e-09
6.77722e-09
6.70959e-09
6.62088e-09
6.51178e-09
6.38444e-09
6.24189e-09
6.08599e-09
5.9162e-09
5.7376e-09
5.55078e-09
5.35645e-09
5.15715e-09
4.95387e-09
4.74843e-09
4.54104e-09
4.333e-09
4.12661e-09
3.92084e-09
3.71744e-09
3.51759e-09
3.32109e-09
3.12918e-09
2.9422e-09
2.76052e-09
2.58476e-09
2.4153e-09
2.25225e-09
2.09602e-09
1.94672e-09
1.80464e-09
1.66955e-09
1.54165e-09
1.42073e-09
1.30649e-09
1.19862e-09
1.09653e-09
9.99852e-10
9.08181e-10
8.21435e-10
7.39866e-10
6.63856e-10
5.93711e-10
5.29346e-10
4.70222e-10
4.15456e-10
3.64291e-10
3.165e-10
2.72299e-10
2.32499e-10
1.96834e-10
1.66256e-10
1.41793e-10
1.23186e-10
1.07137e-10
9.16837e-11
0
0
5.51647e-12
2.66989e-09
5.57569e-09
4.55284e-09
4.23132e-09
4.21377e-09
4.3681e-09
4.50732e-09
4.60307e-09
4.68361e-09
4.7499e-09
4.79688e-09
4.82679e-09
4.84063e-09
4.83588e-09
4.81435e-09
4.77744e-09
4.72526e-09
4.65919e-09
4.58053e-09
4.49116e-09
4.39096e-09
4.28277e-09
4.1676e-09
4.04535e-09
3.91834e-09
3.78727e-09
3.65325e-09
3.51597e-09
3.37715e-09
3.23806e-09
3.09743e-09
2.95727e-09
2.8179e-09
2.6793e-09
2.54247e-09
2.40748e-09
2.27481e-09
2.14493e-09
2.01804e-09
1.89456e-09
1.77472e-09
1.65876e-09
1.54711e-09
1.43972e-09
1.33694e-09
1.23877e-09
1.14515e-09
1.05595e-09
9.70843e-10
8.89639e-10
8.12076e-10
7.38231e-10
6.68349e-10
6.02829e-10
5.41975e-10
4.85731e-10
4.3368e-10
3.85107e-10
3.39432e-10
2.96533e-10
2.56671e-10
2.2063e-10
1.88089e-10
0
1.56657e-12
1.18113e-09
3.69444e-09
3.05082e-09
2.74247e-09
2.80866e-09
2.92353e-09
3.0478e-09
3.14041e-09
3.21941e-09
3.2903e-09
3.34926e-09
3.3965e-09
3.43101e-09
3.45452e-09
3.46558e-09
3.46395e-09
3.45192e-09
3.42917e-09
3.39671e-09
3.35494e-09
3.30509e-09
3.24772e-09
3.18419e-09
3.11488e-09
3.04003e-09
2.96131e-09
2.8788e-09
2.79323e-09
2.70469e-09
2.61403e-09
2.52193e-09
2.42799e-09
2.33326e-09
2.23787e-09
2.14197e-09
2.04621e-09
1.95053e-09
1.8554e-09
1.76118e-09
1.66797e-09
1.57617e-09
1.48597e-09
1.39768e-09
1.31168e-09
1.22802e-09
1.14711e-09
1.06902e-09
9.93817e-10
9.21523e-10
8.51936e-10
7.84982e-10
7.2052e-10
6.58686e-10
5.99734e-10
5.44055e-10
4.91943e-10
4.43383e-10
3.98064e-10
3.55432e-10
1.29028e-12
6.17168e-10
2.54418e-09
2.05573e-09
1.82462e-09
1.89185e-09
1.9979e-09
2.09084e-09
2.17157e-09
2.23945e-09
2.30238e-09
2.35864e-09
2.40648e-09
2.44664e-09
2.47729e-09
2.50024e-09
2.51471e-09
2.52009e-09
2.51837e-09
2.50897e-09
2.4928e-09
2.46996e-09
2.44169e-09
2.40805e-09
2.36991e-09
2.32775e-09
2.28163e-09
2.23264e-09
2.18077e-09
2.12644e-09
2.06975e-09
2.01129e-09
1.95122e-09
1.8894e-09
1.82652e-09
1.76248e-09
1.69745e-09
1.63183e-09
1.56545e-09
1.49869e-09
1.43183e-09
1.36484e-09
1.298e-09
1.23157e-09
1.16575e-09
1.10083e-09
1.037e-09
9.74562e-10
9.13688e-10
8.54474e-10
7.97029e-10
7.41216e-10
6.87032e-10
6.34425e-10
6.6358e-10
1.33713e-09
1.47679e-09
1.22753e-09
1.30744e-09
1.39025e-09
1.46185e-09
1.52357e-09
1.57956e-09
1.63052e-09
1.67884e-09
1.72133e-09
1.75792e-09
1.78934e-09
1.81432e-09
1.83378e-09
1.84711e-09
1.85448e-09
1.85667e-09
1.85359e-09
1.84573e-09
1.83347e-09
1.817e-09
1.79702e-09
1.77398e-09
1.74774e-09
1.71902e-09
1.68812e-09
1.65516e-09
1.62036e-09
1.58382e-09
1.54602e-09
1.50673e-09
1.46614e-09
1.42462e-09
1.38186e-09
1.33824e-09
1.2937e-09
1.24824e-09
1.20215e-09
1.15537e-09
1.108e-09
)
;

boundaryField
{
    inlet
    {
        type            calculated;
        value           nonuniform List<scalar> 
13
(
2.2205e-08
2.28032e-08
2.33357e-08
2.38207e-08
2.42955e-08
2.47911e-08
2.54416e-08
2.5633e-08
2.51541e-08
2.48714e-08
2.45038e-08
2.41887e-08
2.39328e-08
)
;
    }
    outlet
    {
        type            calculated;
        value           nonuniform List<scalar> 0();
    }
    walls
    {
        type            calculated;
        value           uniform 0;
    }
    frontAndBack
    {
        type            empty;
    }
    procBoundary2to1
    {
        type            processor;
        value           nonuniform List<scalar> 
84
(
1025.36
1.13453
0.0598394
6.81281e-05
0.000109902
1.00013e-10
4.38927e-07
3.82775e-07
4.46584e-07
3.40738e-07
3.40256e-07
3.03182e-07
2.82373e-07
2.55759e-07
2.31995e-07
2.08097e-07
1.85338e-07
1.63474e-07
1.4278e-07
1.23386e-07
1.05406e-07
8.89372e-08
7.40611e-08
6.08236e-08
4.92285e-08
3.92494e-08
3.08285e-08
2.38772e-08
1.82777e-08
1.38969e-08
1.05843e-08
8.18122e-09
6.53075e-09
5.48019e-09
4.88826e-09
4.62674e-09
4.58562e-09
4.67337e-09
4.67337e-09
7.57596e-09
7.25767e-09
6.97703e-09
6.70066e-09
6.40824e-09
6.09e-09
5.74392e-09
5.37328e-09
4.98482e-09
4.58649e-09
4.18635e-09
3.79187e-09
3.40893e-09
3.04197e-09
3.04197e-09
2.85425e-09
2.49222e-09
2.16061e-09
1.86001e-09
1.59126e-09
1.35477e-09
1.14954e-09
9.72612e-10
8.19564e-10
8.19564e-10
6.9998e-10
5.78876e-10
4.73074e-10
3.82286e-10
3.06087e-10
2.44456e-10
1.98688e-10
1.65433e-10
1.38163e-10
1.1417e-10
1.1417e-10
9.49775e-11
7.5631e-11
5.43192e-11
3.16731e-11
1.94175e-11
2.30985e-11
1.51637e-10
5.78054e-10
2.12207e-09
)
;
    }
    procBoundary2to3
    {
        type            processor;
        value           nonuniform List<scalar> 
88
(
3.77936e-10
1.46198e-09
1.88318e-11
3.77936e-10
3.16293e-10
2.2877e-11
1.88318e-11
5.91606e-11
7.82582e-11
6.06478e-11
2.2877e-11
5.33816e-11
1.59972e-10
1.37409e-10
1.20226e-10
1.05263e-10
7.82582e-11
9.07254e-11
3.15059e-10
2.76914e-10
2.41285e-10
2.08919e-10
1.59972e-10
1.79443e-10
5.8352e-10
5.34577e-10
4.87963e-10
4.43946e-10
4.02553e-10
3.63567e-10
3.15059e-10
3.26572e-10
1.06021e-09
1.01217e-09
9.63976e-10
9.15861e-10
8.68096e-10
8.20831e-10
7.74271e-10
7.28557e-10
6.83776e-10
6.3988e-10
5.96853e-10
5.8352e-10
5.54681e-10
1.08867e-09
8.53942e-10
9.06661e-10
9.0816e-10
9.91555e-10
1.03835e-09
1.08563e-09
1.12778e-09
1.16832e-09
1.2062e-09
1.24112e-09
1.272e-09
1.29884e-09
1.32246e-09
1.34143e-09
1.35632e-09
1.3672e-09
1.37419e-09
1.37751e-09
1.37724e-09
1.3736e-09
1.36702e-09
1.35772e-09
1.3459e-09
1.3318e-09
1.31574e-09
1.29799e-09
1.27851e-09
1.25771e-09
1.23554e-09
1.2122e-09
1.1878e-09
1.16233e-09
1.13595e-09
1.10866e-09
1.08043e-09
1.05145e-09
1.02154e-09
9.90804e-10
9.59364e-10
9.271e-10
1.06021e-09
8.94115e-10
)
;
    }
    procBoundary2to6
    {
        type            processor;
        value           nonuniform List<scalar> 
13
(
59.5952
25.2803
10.5442
4.87483
2.10858
0.696113
0.12595
0.00584642
4.05394e-06
1.87e-06
0
0
1.97888e-12
)
;
    }
}


// ************************************************************************* //
