/*--------------------------------*- C++ -*----------------------------------*\
| =========                 |                                                 |
| \\      /  F ield         | OpenFOAM: The Open Source CFD Toolbox           |
|  \\    /   O peration     | Version:  2506                                  |
|   \\  /    A nd           | Website:  www.openfoam.com                      |
|    \\/     M anipulation  |                                                 |
\*---------------------------------------------------------------------------*/
FoamFile
{
    version     2.0;
    format      ascii;
    arch        "LSB;label=32;scalar=64";
    class       volScalarField;
    location    "350";
    object      turbulenceProperties:I;
}
// * * * * * * * * * * * * * * * * * * * * * * * * * * * * * * * * * * * * * //

dimensions      [0 0 0 0 0 0 0];

internalField   nonuniform List<scalar> 
1340
(
0.244662
0.246102
0.249517
0.255933
0.0396024
0.0424669
0.0476501
0.0611845
0.0179013
0.0214173
0.0239676
0.0337464
0.00339476
0.00626638
0.0101593
0.0207131
0.00106566
0.00128524
0.00178313
0.00901141
0.000410559
0.000533252
0.000855766
0.00301963
5.5871e-05
3.79115e-05
8.14503e-06
0.000509215
0.000143863
0.000126714
4.14599e-05
0.000133835
0.000157777
0.000165892
0.000173517
3.50367e-05
0.000145228
0.000145972
0.000192168
0.0001283
0.000146268
0.00014766
0.000178663
0.000206329
0.000141065
0.000143446
0.000165125
0.000215212
0.000138542
0.000141031
0.000158488
0.000205832
0.000134816
0.00013681
0.000152534
0.000194771
0.000131375
0.000132891
0.00014674
0.000184564
0.000127544
0.000128589
0.000140728
0.00017486
0.000123588
0.00012417
0.000134715
0.000165425
0.000119402
0.000119521
0.000128686
0.000156233
0.000115025
0.000114682
0.000122637
0.000147286
0.000110447
0.000109639
0.000116584
0.000138638
0.000105673
0.000104398
0.000110508
0.000130273
0.000100704
9.89667e-05
0.000104416
0.000122208
9.55464e-05
9.33401e-05
9.83094e-05
0.000114462
9.02087e-05
8.7525e-05
9.21787e-05
0.000107023
8.46963e-05
8.15129e-05
8.60407e-05
9.99151e-05
7.90214e-05
7.52967e-05
7.98983e-05
9.31373e-05
7.31999e-05
6.88603e-05
7.37707e-05
8.67106e-05
6.72562e-05
6.2169e-05
6.76825e-05
8.06515e-05
6.12325e-05
5.51676e-05
6.16876e-05
7.49921e-05
5.52137e-05
4.77552e-05
5.58785e-05
6.97789e-05
4.93713e-05
3.97215e-05
5.0429e-05
6.50675e-05
4.4067e-05
3.06228e-05
4.564e-05
6.09286e-05
3.99758e-05
1.90628e-05
4.19754e-05
5.74307e-05
3.7941e-05
1.3176e-05
3.99123e-05
5.46228e-05
3.81869e-05
2.4849e-05
3.95407e-05
5.2508e-05
3.99207e-05
3.17856e-05
4.04008e-05
5.10318e-05
4.21689e-05
3.66905e-05
4.18492e-05
5.00842e-05
4.43561e-05
4.03403e-05
4.34143e-05
4.95251e-05
5.20901e-05
4.62413e-05
4.30899e-05
4.48446e-05
4.92144e-05
5.24625e-05
4.7748e-05
4.51431e-05
4.60298e-05
4.90315e-05
5.27284e-05
4.88697e-05
4.66345e-05
4.69344e-05
4.88858e-05
5.28341e-05
4.96282e-05
4.76587e-05
4.75566e-05
4.87134e-05
5.27549e-05
5.00556e-05
4.82896e-05
4.79126e-05
4.84746e-05
5.24858e-05
5.01865e-05
4.85852e-05
4.80239e-05
4.81463e-05
5.20337e-05
5.00565e-05
4.85946e-05
4.79138e-05
4.77163e-05
5.1412e-05
4.96989e-05
4.83604e-05
4.76091e-05
4.71835e-05
5.06381e-05
4.91451e-05
4.7918e-05
4.71321e-05
4.65499e-05
4.97316e-05
4.84247e-05
4.73e-05
4.6506e-05
4.58213e-05
4.87107e-05
4.75632e-05
4.65344e-05
4.5752e-05
4.50069e-05
4.75934e-05
4.65832e-05
4.56438e-05
4.48873e-05
4.41139e-05
4.63942e-05
4.55042e-05
4.46487e-05
4.3928e-05
4.31505e-05
4.51251e-05
4.43402e-05
4.35638e-05
4.28858e-05
4.21227e-05
4.44849e-05
4.3795e-05
4.31031e-05
4.2401e-05
4.17701e-05
4.10348e-05
4.30104e-05
4.24112e-05
4.18017e-05
4.11694e-05
4.05886e-05
3.98908e-05
4.15025e-05
4.0982e-05
4.0446e-05
3.9879e-05
3.93494e-05
3.8695e-05
3.9971e-05
3.95192e-05
3.9049e-05
3.85426e-05
3.80643e-05
3.74565e-05
3.84315e-05
3.80398e-05
3.76283e-05
3.7178e-05
3.67496e-05
3.6189e-05
3.69035e-05
3.65644e-05
3.62049e-05
3.58056e-05
3.54246e-05
3.49102e-05
3.54037e-05
3.51101e-05
3.47967e-05
3.44435e-05
3.41065e-05
3.36371e-05
3.39381e-05
3.36839e-05
3.34107e-05
3.30993e-05
3.28029e-05
3.23772e-05
3.2498e-05
3.22776e-05
3.20399e-05
3.17663e-05
3.15074e-05
3.11251e-05
3.12397e-05
3.10627e-05
3.08714e-05
3.06651e-05
3.04264e-05
3.02029e-05
2.98635e-05
2.97688e-05
2.96146e-05
2.94488e-05
2.92709e-05
2.90647e-05
2.88751e-05
2.85774e-05
2.82824e-05
2.81477e-05
2.80044e-05
2.78521e-05
2.76757e-05
2.75188e-05
2.72605e-05
2.67952e-05
2.66774e-05
2.6554e-05
2.64247e-05
2.62754e-05
2.61499e-05
2.59272e-05
2.53282e-05
2.52249e-05
2.51187e-05
2.50097e-05
2.48844e-05
2.47869e-05
2.4594e-05
2.3927e-05
2.38355e-05
2.37437e-05
2.3653e-05
2.35504e-05
2.34797e-05
2.33185e-05
2.27028e-05
2.26167e-05
2.25328e-05
2.24531e-05
2.23649e-05
2.2313e-05
2.21808e-05
2.16706e-05
2.15852e-05
2.15037e-05
2.14275e-05
2.13448e-05
2.13015e-05
2.11845e-05
2.06992e-05
2.06121e-05
2.05296e-05
2.04537e-05
2.03732e-05
2.03341e-05
2.02287e-05
1.97189e-05
1.96304e-05
1.95467e-05
1.94712e-05
1.93926e-05
1.93566e-05
1.92607e-05
1.87996e-05
1.86927e-05
1.85947e-05
1.85052e-05
1.84281e-05
1.83543e-05
1.83321e-05
1.82849e-05
1.7718e-05
1.75827e-05
1.74543e-05
1.73346e-05
1.72274e-05
1.71253e-05
1.70557e-05
1.69435e-05
1.62592e-05
1.61034e-05
1.59672e-05
1.58528e-05
1.5768e-05
1.57149e-05
1.57806e-05
1.59358e-05
1.39909e-05
1.36383e-05
1.33078e-05
1.30093e-05
1.27475e-05
1.25232e-05
1.23384e-05
1.20582e-05
1.25141e-05
1.24007e-05
1.23684e-05
1.24256e-05
1.26101e-05
1.29352e-05
1.36794e-05
1.47068e-05
1.32195e-05
1.31857e-05
1.31433e-05
1.3083e-05
1.30353e-05
1.32259e-05
1.43485e-05
1.54665e-05
2.17158e-05
2.2118e-05
2.24617e-05
2.27739e-05
2.31292e-05
2.36446e-05
2.48724e-05
2.58543e-05
2.96961e-05
2.9742e-05
2.97747e-05
2.97964e-05
2.98098e-05
2.98547e-05
3.01391e-05
2.93968e-05
4.10405e-05
4.10416e-05
4.10233e-05
4.09942e-05
4.09427e-05
4.09189e-05
4.07703e-05
3.92998e-05
0.14165
0.0645489
0.0318482
0.0173181
0.00715608
0.00183411
0.000536204
0.000149167
4.11875e-05
0.000169888
0.000225408
0.000224898
0.000213465
0.00020217
0.000191851
0.000182028
0.000172474
0.000163197
0.000154231
0.000145572
0.00013724
0.000129243
0.00012159
0.000114293
0.000107354
0.000100785
9.4597e-05
8.87986e-05
8.34032e-05
7.8425e-05
7.38795e-05
6.9781e-05
6.61378e-05
6.29541e-05
6.02213e-05
5.79149e-05
5.59967e-05
5.44143e-05
5.31068e-05
5.20116e-05
5.10688e-05
5.02248e-05
4.94371e-05
4.86708e-05
4.79002e-05
4.71084e-05
4.62839e-05
4.54196e-05
4.45138e-05
4.35642e-05
4.25719e-05
4.15363e-05
4.04569e-05
3.93336e-05
3.81679e-05
3.69658e-05
3.57387e-05
3.45022e-05
3.32712e-05
3.20518e-05
3.08383e-05
2.96138e-05
2.83642e-05
2.7084e-05
2.57874e-05
2.44878e-05
2.32469e-05
2.21366e-05
2.11623e-05
2.02239e-05
1.92665e-05
1.83221e-05
1.695e-05
1.61119e-05
1.19434e-05
1.53571e-05
1.47506e-05
2.56227e-05
2.76206e-05
3.7036e-05
0.0971535
0.0508627
0.0214524
0.00838216
0.00261249
0.00115841
8.30281e-06
1.14109e-05
4.89579e-05
0.000151228
0.00016811
0.00016556
0.000160264
0.000155382
0.000150765
0.000146097
0.000141306
0.000136386
0.000131398
0.00012635
0.000121276
0.000116197
0.000111142
0.000106159
0.000101268
9.64953e-05
9.18778e-05
8.74438e-05
8.32142e-05
7.92147e-05
7.54645e-05
7.19803e-05
6.87729e-05
6.58484e-05
6.32093e-05
6.0845e-05
5.87441e-05
5.68848e-05
5.52396e-05
5.3779e-05
5.24706e-05
5.12809e-05
5.0182e-05
4.91451e-05
4.8148e-05
4.71723e-05
4.62032e-05
4.52299e-05
4.42448e-05
4.32413e-05
4.22155e-05
4.11632e-05
4.00798e-05
3.89627e-05
3.78114e-05
3.663e-05
3.54281e-05
3.42202e-05
3.30183e-05
3.18273e-05
3.06401e-05
2.94401e-05
2.8214e-05
2.69576e-05
2.5686e-05
2.44106e-05
2.31906e-05
2.20927e-05
2.11311e-05
2.02074e-05
1.92589e-05
1.83252e-05
1.69521e-05
1.6156e-05
1.18865e-05
1.57267e-05
1.38015e-05
2.56651e-05
2.74973e-05
3.74379e-05
0.0714758
0.0386043
0.0138752
0.00350074
0.000636616
0.000288451
1.59704e-06
6.90196e-06
8.48514e-05
0.000128459
0.000127665
0.000124314
0.000120808
0.00011783
0.000115031
0.000112249
0.000109489
0.000106732
0.000103968
0.000101233
9.84999e-05
9.5773e-05
9.30363e-05
9.03133e-05
8.75965e-05
8.48787e-05
8.21754e-05
7.94992e-05
7.6854e-05
7.42582e-05
7.1726e-05
6.92731e-05
6.69158e-05
6.46675e-05
6.25409e-05
6.05419e-05
5.86766e-05
5.69435e-05
5.53377e-05
5.38503e-05
5.24703e-05
5.11821e-05
4.9972e-05
4.88235e-05
4.77222e-05
4.66554e-05
4.56107e-05
4.45792e-05
4.35523e-05
4.25229e-05
4.14853e-05
4.04332e-05
3.93607e-05
3.82631e-05
3.71387e-05
3.59905e-05
3.48265e-05
3.36596e-05
3.24999e-05
3.13503e-05
3.02024e-05
2.90398e-05
2.78498e-05
2.66294e-05
2.53945e-05
2.4155e-05
2.29665e-05
2.18933e-05
2.09575e-05
2.00637e-05
1.91383e-05
1.82272e-05
1.68772e-05
1.61047e-05
1.19617e-05
1.58771e-05
1.33353e-05
2.5553e-05
2.72243e-05
3.74601e-05
0.0531392
0.0266874
0.00708458
0.000691938
0.000327711
0
1.02416e-05
4.27269e-05
9.59373e-05
0.000106535
0.000102729
0.000100785
9.88129e-05
9.71078e-05
9.53604e-05
9.35534e-05
9.1737e-05
8.99011e-05
8.80534e-05
8.62294e-05
8.44037e-05
8.26026e-05
8.08142e-05
7.90379e-05
7.72802e-05
7.55335e-05
7.37933e-05
7.20626e-05
7.03381e-05
6.86219e-05
6.69157e-05
6.52222e-05
6.355e-05
6.19029e-05
6.02889e-05
5.87164e-05
5.71907e-05
5.57174e-05
5.43008e-05
5.29407e-05
5.16381e-05
5.03899e-05
4.91904e-05
4.8035e-05
4.69169e-05
4.58295e-05
4.47653e-05
4.3719e-05
4.26839e-05
4.16541e-05
4.06241e-05
3.95869e-05
3.85367e-05
3.74681e-05
3.63781e-05
3.52694e-05
3.4149e-05
3.30279e-05
3.19148e-05
3.08109e-05
2.97067e-05
2.8586e-05
2.74371e-05
2.62574e-05
2.50637e-05
2.38649e-05
2.27139e-05
2.16738e-05
2.07703e-05
1.99103e-05
1.90127e-05
1.81305e-05
1.68131e-05
1.60678e-05
1.21367e-05
1.59843e-05
1.31202e-05
2.54181e-05
2.68768e-05
3.73025e-05
0.0362096
0.0147782
0.00172635
0.000557947
0
4.74344e-06
2.06043e-05
6.95536e-05
9.13918e-05
9.02897e-05
8.78151e-05
8.70741e-05
8.62364e-05
8.54948e-05
8.46457e-05
8.37273e-05
8.27394e-05
8.16654e-05
8.05283e-05
7.93255e-05
7.80537e-05
7.67289e-05
7.53669e-05
7.39573e-05
7.252e-05
7.10725e-05
6.96063e-05
6.81384e-05
6.66746e-05
6.52179e-05
6.37732e-05
6.23415e-05
6.093e-05
5.95361e-05
5.81631e-05
5.68163e-05
5.54932e-05
5.41988e-05
5.29334e-05
5.16976e-05
5.04944e-05
4.93219e-05
4.81779e-05
4.70633e-05
4.59744e-05
4.49084e-05
4.38616e-05
4.28313e-05
4.1813e-05
4.08023e-05
3.97948e-05
3.87837e-05
3.77636e-05
3.67292e-05
3.56772e-05
3.46098e-05
3.35337e-05
3.24583e-05
3.13908e-05
3.03311e-05
2.92692e-05
2.81891e-05
2.70803e-05
2.5941e-05
2.47883e-05
2.36302e-05
2.25167e-05
2.15098e-05
2.06379e-05
1.98086e-05
1.89372e-05
1.80822e-05
1.67982e-05
1.60856e-05
1.23725e-05
1.61547e-05
1.29616e-05
2.54176e-05
2.66916e-05
3.72666e-05
0.0205439
0.00544502
0.000309468
0.000153539
0
1.32215e-05
5.43216e-05
7.95869e-05
8.2444e-05
7.94096e-05
7.84236e-05
7.80778e-05
7.75948e-05
7.71106e-05
7.65356e-05
7.59194e-05
7.5234e-05
7.44861e-05
7.36956e-05
7.28486e-05
7.1952e-05
7.10057e-05
7.00217e-05
6.89889e-05
6.79182e-05
6.6818e-05
6.5678e-05
6.45148e-05
6.33296e-05
6.21265e-05
6.09127e-05
5.9691e-05
5.84713e-05
5.72539e-05
5.6044e-05
5.48482e-05
5.36646e-05
5.24994e-05
5.13515e-05
5.02222e-05
4.91144e-05
4.80251e-05
4.69544e-05
4.59036e-05
4.48694e-05
4.38518e-05
4.28482e-05
4.18573e-05
4.08766e-05
3.99026e-05
3.89319e-05
3.79583e-05
3.69774e-05
3.59841e-05
3.49753e-05
3.39534e-05
3.29244e-05
3.18967e-05
3.08762e-05
2.98615e-05
2.88425e-05
2.78038e-05
2.67361e-05
2.56384e-05
2.45285e-05
2.34124e-05
2.23371e-05
2.13637e-05
2.05242e-05
1.97253e-05
1.88807e-05
1.80534e-05
1.68048e-05
1.61301e-05
1.26354e-05
1.63592e-05
1.27717e-05
2.54677e-05
0.00770535
0.000414792
0.000150017
3.34211e-05
9.23384e-06
3.83233e-05
6.77427e-05
7.24584e-05
7.03068e-05
6.88515e-05
6.88311e-05
6.87608e-05
6.85957e-05
6.83943e-05
6.81185e-05
6.78044e-05
6.74225e-05
6.69801e-05
6.64931e-05
6.59511e-05
6.5362e-05
6.47244e-05
6.40387e-05
6.33136e-05
6.25539e-05
6.17543e-05
6.09189e-05
6.00591e-05
5.9169e-05
5.82544e-05
5.73189e-05
5.63626e-05
5.53921e-05
5.44089e-05
5.34157e-05
5.24171e-05
5.14145e-05
5.04135e-05
4.94133e-05
4.8418e-05
4.74302e-05
4.6448e-05
4.5475e-05
4.45109e-05
4.35544e-05
4.26077e-05
4.16685e-05
4.0737e-05
3.98116e-05
3.88899e-05
3.79695e-05
3.70455e-05
3.61138e-05
3.51697e-05
3.42116e-05
3.32411e-05
3.22642e-05
3.12886e-05
3.03185e-05
2.9352e-05
2.83789e-05
2.73848e-05
2.63613e-05
2.53087e-05
2.42449e-05
2.3174e-05
2.21395e-05
2.12029e-05
2.0399e-05
1.9633e-05
1.88185e-05
1.80216e-05
1.68133e-05
1.61826e-05
1.29137e-05
1.65637e-05
0.000782032
0.000492606
1.54085e-06
6.47374e-06
2.80898e-05
5.85136e-05
6.39301e-05
6.22289e-05
6.07947e-05
6.06868e-05
6.09278e-05
6.09844e-05
6.09937e-05
6.09557e-05
6.08599e-05
6.07209e-05
6.0526e-05
6.02809e-05
5.99925e-05
5.96562e-05
5.92772e-05
5.88568e-05
5.83917e-05
5.78911e-05
5.7359e-05
5.67877e-05
5.61852e-05
5.55567e-05
5.48977e-05
5.4214e-05
5.35069e-05
5.27756e-05
5.20254e-05
5.12563e-05
5.04693e-05
4.96677e-05
4.8852e-05
4.80258e-05
4.71891e-05
4.63446e-05
4.54949e-05
4.46397e-05
4.37824e-05
4.29232e-05
4.20627e-05
4.12038e-05
4.03448e-05
3.94874e-05
3.8631e-05
3.77741e-05
3.69153e-05
3.60506e-05
3.51767e-05
3.42898e-05
3.33886e-05
3.24754e-05
3.15554e-05
3.06357e-05
2.97196e-05
2.88045e-05
2.78803e-05
2.69339e-05
2.5958e-05
2.49537e-05
2.39396e-05
2.2917e-05
2.19266e-05
2.10305e-05
2.02651e-05
1.95343e-05
1.87529e-05
1.79893e-05
1.68267e-05
1.62449e-05
0.000517616
0
2.06642e-06
8.75749e-06
5.20046e-05
5.72633e-05
5.5775e-05
5.44325e-05
5.43358e-05
5.47042e-05
5.4959e-05
5.51084e-05
5.52227e-05
5.52835e-05
5.52948e-05
5.5257e-05
5.51686e-05
5.50367e-05
5.48606e-05
5.46402e-05
5.43783e-05
5.40796e-05
5.37463e-05
5.33749e-05
5.29749e-05
5.25456e-05
5.20866e-05
5.1602e-05
5.10922e-05
5.05601e-05
5.00043e-05
4.94265e-05
4.88315e-05
4.82148e-05
4.758e-05
4.69295e-05
4.62616e-05
4.55791e-05
4.48824e-05
4.41721e-05
4.34499e-05
4.27171e-05
4.19739e-05
4.12221e-05
4.04626e-05
3.96974e-05
3.8926e-05
3.81506e-05
3.73711e-05
3.65869e-05
3.57972e-05
3.49987e-05
3.41891e-05
3.33653e-05
3.25263e-05
3.16747e-05
3.08155e-05
2.99548e-05
2.90953e-05
2.82342e-05
2.73613e-05
2.64651e-05
2.55396e-05
2.45866e-05
2.36248e-05
2.26531e-05
2.17094e-05
2.0857e-05
2.01321e-05
1.94378e-05
1.86917e-05
0
0
1.05943e-05
4.35489e-05
5.2544e-05
4.98275e-05
4.88879e-05
4.88299e-05
4.92737e-05
4.96647e-05
4.99286e-05
5.01482e-05
5.03281e-05
5.04558e-05
5.05387e-05
5.05797e-05
5.05726e-05
5.0522e-05
5.04311e-05
5.02993e-05
5.01293e-05
4.99234e-05
4.96853e-05
4.94131e-05
4.91132e-05
4.87869e-05
4.84324e-05
4.80547e-05
4.76546e-05
4.72339e-05
4.67901e-05
4.63272e-05
4.58481e-05
4.5347e-05
4.48296e-05
4.42958e-05
4.37441e-05
4.31773e-05
4.25944e-05
4.19965e-05
4.13844e-05
4.07582e-05
4.0119e-05
3.94673e-05
3.88038e-05
3.81305e-05
3.74468e-05
3.67549e-05
3.60551e-05
3.53471e-05
3.46303e-05
3.39024e-05
3.31614e-05
3.24044e-05
3.16316e-05
3.0845e-05
3.00496e-05
2.92505e-05
2.84499e-05
2.76447e-05
2.68255e-05
2.59819e-05
2.51092e-05
2.42102e-05
2.33034e-05
2.23849e-05
0
7.82136e-06
3.55181e-05
4.73277e-05
4.49881e-05
4.37665e-05
4.40246e-05
4.44697e-05
4.49376e-05
4.52769e-05
4.55608e-05
4.5812e-05
4.60188e-05
4.61835e-05
4.63042e-05
4.63875e-05
4.64293e-05
4.64288e-05
4.63938e-05
4.63229e-05
4.62188e-05
4.60823e-05
4.59166e-05
4.57226e-05
4.5504e-05
4.52611e-05
4.49934e-05
4.4706e-05
4.43979e-05
4.40708e-05
4.37236e-05
4.33586e-05
4.29774e-05
4.2577e-05
4.21606e-05
4.17277e-05
4.12775e-05
4.08121e-05
4.03297e-05
3.98314e-05
3.9318e-05
3.87886e-05
3.82444e-05
3.76853e-05
3.71121e-05
3.65263e-05
3.59274e-05
3.53176e-05
3.4697e-05
3.40656e-05
3.34233e-05
3.27678e-05
3.20976e-05
3.14103e-05
3.07061e-05
2.99869e-05
2.92573e-05
2.85219e-05
2.7782e-05
2.70345e-05
2.6271e-05
7.43894e-06
3.01468e-05
4.30145e-05
4.06938e-05
3.94519e-05
3.98099e-05
4.03585e-05
4.08219e-05
4.12118e-05
4.15314e-05
4.18218e-05
4.20772e-05
4.22914e-05
4.24697e-05
4.26053e-05
4.27073e-05
4.27729e-05
4.28e-05
4.27973e-05
4.27622e-05
4.26982e-05
4.26055e-05
4.24886e-05
4.23472e-05
4.21843e-05
4.20014e-05
4.17978e-05
4.15776e-05
4.134e-05
4.10861e-05
4.08154e-05
4.05299e-05
4.02294e-05
3.99124e-05
3.95812e-05
3.92346e-05
3.88722e-05
3.84952e-05
3.81015e-05
3.76921e-05
3.72675e-05
3.68262e-05
3.63688e-05
3.58957e-05
3.5407e-05
3.49037e-05
3.43858e-05
3.38549e-05
3.33115e-05
3.27555e-05
3.21872e-05
3.16042e-05
3.10054e-05
3.03889e-05
3.06013e-05
3.6526e-05
3.7403e-05
3.56737e-05
3.62398e-05
3.68038e-05
3.72701e-05
3.76584e-05
3.80006e-05
3.83047e-05
3.8587e-05
3.88307e-05
3.90375e-05
3.92133e-05
3.93522e-05
3.94604e-05
3.95352e-05
3.95782e-05
3.95937e-05
3.95814e-05
3.95437e-05
3.94824e-05
3.93981e-05
3.92943e-05
3.91727e-05
3.90322e-05
3.88761e-05
3.87054e-05
3.85204e-05
3.83216e-05
3.8109e-05
3.78848e-05
3.76469e-05
3.73958e-05
3.71332e-05
3.68561e-05
3.65662e-05
3.62625e-05
3.59436e-05
3.56109e-05
3.52627e-05
3.48986e-05
)
;

boundaryField
{
    inlet
    {
        type            calculated;
        value           nonuniform List<scalar> 
13
(
7.48365e-05
7.53311e-05
7.57617e-05
7.61465e-05
7.65189e-05
7.69063e-05
7.74214e-05
7.75924e-05
7.72305e-05
7.69946e-05
7.6687e-05
7.64213e-05
7.6202e-05
)
;
    }
    outlet
    {
        type            calculated;
        value           nonuniform List<scalar> 0();
    }
    walls
    {
        type            calculated;
        value           uniform 0;
    }
    frontAndBack
    {
        type            empty;
    }
    procBoundary2to1
    {
        type            processor;
        value           nonuniform List<scalar> 
84
(
0.243552
0.0371131
0.0142953
0.00145473
0.00115182
2.293e-05
0.00015506
0.00014992
0.000156046
0.000146063
0.00014625
0.000142325
0.00014005
0.000136857
0.000133788
0.000130424
0.000126919
0.000123209
0.000119313
0.000115232
0.000110967
0.000106526
0.000101923
9.7175e-05
9.23052e-05
8.73439e-05
8.23338e-05
7.73321e-05
7.24142e-05
6.76865e-05
6.32871e-05
5.9385e-05
5.61664e-05
5.37823e-05
5.22845e-05
5.15805e-05
5.14681e-05
5.17079e-05
5.17079e-05
5.84471e-05
5.77988e-05
5.71999e-05
5.6586e-05
5.59135e-05
5.51559e-05
5.43007e-05
5.33449e-05
5.2293e-05
5.11532e-05
4.99358e-05
4.86517e-05
4.73105e-05
4.59197e-05
4.59197e-05
4.51612e-05
4.35923e-05
4.20033e-05
4.04021e-05
3.88024e-05
3.72223e-05
3.56778e-05
3.41741e-05
3.27019e-05
3.27019e-05
3.14059e-05
2.99145e-05
2.84114e-05
2.69099e-05
2.54311e-05
2.40202e-05
2.27918e-05
2.17603e-05
2.07914e-05
1.98133e-05
1.98133e-05
1.89135e-05
1.78581e-05
1.64328e-05
1.43553e-05
1.27015e-05
1.32656e-05
2.12486e-05
2.96286e-05
4.10109e-05
)
;
    }
    procBoundary2to3
    {
        type            processor;
        value           nonuniform List<scalar> 
88
(
2.65946e-05
3.72827e-05
1.25949e-05
2.65946e-05
2.55144e-05
1.32104e-05
1.25949e-05
1.67604e-05
1.7963e-05
1.68513e-05
1.32104e-05
1.63214e-05
2.14905e-05
2.06843e-05
2.00014e-05
1.93444e-05
1.7963e-05
1.86357e-05
2.54824e-05
2.46653e-05
2.38229e-05
2.29736e-05
2.14905e-05
2.21105e-05
2.97545e-05
2.9104e-05
2.84416e-05
2.77708e-05
2.70929e-05
2.64047e-05
2.54824e-05
2.56987e-05
3.45187e-05
3.4123e-05
3.37111e-05
3.32834e-05
3.28413e-05
3.23848e-05
3.19148e-05
3.14316e-05
3.09351e-05
3.04237e-05
2.98957e-05
2.97545e-05
2.93494e-05
3.46356e-05
3.25627e-05
3.30273e-05
3.30398e-05
3.37769e-05
3.41697e-05
3.45527e-05
3.4884e-05
3.51942e-05
3.54772e-05
3.57326e-05
3.59544e-05
3.61445e-05
3.63097e-05
3.64416e-05
3.65449e-05
3.66207e-05
3.66704e-05
3.66958e-05
3.66974e-05
3.66767e-05
3.66365e-05
3.65779e-05
3.65022e-05
3.64104e-05
3.63044e-05
3.61858e-05
3.60538e-05
3.59107e-05
3.57561e-05
3.55906e-05
3.54147e-05
3.52279e-05
3.50309e-05
3.4823e-05
3.46036e-05
3.43734e-05
3.41304e-05
3.38747e-05
3.36064e-05
3.33237e-05
3.45187e-05
3.30265e-05
)
;
    }
    procBoundary2to6
    {
        type            processor;
        value           nonuniform List<scalar> 
13
(
0.249505
0.146362
0.103051
0.0780148
0.0579509
0.0395184
0.0222287
0.00800566
0.000740397
0.000367572
0
0
8.18185e-06
)
;
    }
}


// ************************************************************************* //
