/*--------------------------------*- C++ -*----------------------------------*\
| =========                 |                                                 |
| \\      /  F ield         | OpenFOAM: The Open Source CFD Toolbox           |
|  \\    /   O peration     | Version:  2506                                  |
|   \\  /    A nd           | Website:  www.openfoam.com                      |
|    \\/     M anipulation  |                                                 |
\*---------------------------------------------------------------------------*/
FoamFile
{
    version     2.0;
    format      ascii;
    arch        "LSB;label=32;scalar=64";
    class       volScalarField;
    location    "350";
    object      turbulenceProperties:nuEff;
}
// * * * * * * * * * * * * * * * * * * * * * * * * * * * * * * * * * * * * * //

dimensions      [0 2 -1 0 0 0 0];

internalField   nonuniform List<scalar> 
1340
(
0.106586
0.10444
0.102005
0.092471
0.0700045
0.0717362
0.0753082
0.0784692
0.0396082
0.0470111
0.0536822
0.0631745
0.00689437
0.0131375
0.0218559
0.0392386
0.000726325
0.00124957
0.00165083
0.0137215
0.000170134
0.000299808
0.000439286
0.00238787
1.00586e-05
1.00117e-05
1e-05
6.65315e-05
1.60217e-05
1.36692e-05
1.00183e-05
1.05083e-05
1.61821e-05
1.66782e-05
1.45608e-05
1.00026e-05
1.61861e-05
1.58342e-05
1.87781e-05
1.05656e-05
1.61648e-05
1.5859e-05
1.71569e-05
1.43605e-05
1.6119e-05
1.60599e-05
1.62055e-05
1.61617e-05
1.61029e-05
1.6117e-05
1.60529e-05
1.62572e-05
1.61021e-05
1.61126e-05
1.60814e-05
1.61464e-05
1.61031e-05
1.61056e-05
1.61021e-05
1.61073e-05
1.61032e-05
1.61034e-05
1.61058e-05
1.61027e-05
1.61029e-05
1.6103e-05
1.61049e-05
1.61036e-05
1.61026e-05
1.61028e-05
1.61041e-05
1.61038e-05
1.61025e-05
1.61026e-05
1.61036e-05
1.61036e-05
1.61024e-05
1.61025e-05
1.61033e-05
1.61033e-05
1.61023e-05
1.61024e-05
1.61031e-05
1.61031e-05
1.61022e-05
1.61023e-05
1.61029e-05
1.61029e-05
1.61022e-05
1.61022e-05
1.61027e-05
1.61027e-05
1.61021e-05
1.61022e-05
1.61026e-05
1.61026e-05
1.6102e-05
1.61021e-05
1.61024e-05
1.61025e-05
1.61019e-05
1.61019e-05
1.61022e-05
1.61023e-05
1.61018e-05
1.61019e-05
1.6102e-05
1.61022e-05
1.61016e-05
1.61017e-05
1.61018e-05
1.6102e-05
1.61014e-05
1.61016e-05
1.61016e-05
1.61019e-05
1.61011e-05
1.61014e-05
1.61015e-05
1.61018e-05
1.61009e-05
1.61011e-05
1.61013e-05
1.61016e-05
1.61006e-05
1.61009e-05
1.6101e-05
1.61015e-05
1.61002e-05
1.61006e-05
1.61008e-05
1.61013e-05
1.60998e-05
1.61002e-05
1.61004e-05
1.6101e-05
1.60994e-05
1.60998e-05
1.61001e-05
1.61007e-05
1.60989e-05
1.60993e-05
1.60996e-05
1.61003e-05
1.60984e-05
1.60988e-05
1.60991e-05
1.60998e-05
1.60978e-05
1.60982e-05
1.60985e-05
1.60993e-05
1.60967e-05
1.60971e-05
1.60976e-05
1.60979e-05
1.60987e-05
1.6096e-05
1.60964e-05
1.60968e-05
1.60972e-05
1.6098e-05
1.60952e-05
1.60956e-05
1.6096e-05
1.60964e-05
1.60972e-05
1.60944e-05
1.60947e-05
1.60951e-05
1.60955e-05
1.60963e-05
1.60935e-05
1.60938e-05
1.60942e-05
1.60946e-05
1.60954e-05
1.60925e-05
1.60928e-05
1.60933e-05
1.60936e-05
1.60944e-05
1.60915e-05
1.60918e-05
1.60923e-05
1.60926e-05
1.60934e-05
1.60906e-05
1.60909e-05
1.60913e-05
1.60916e-05
1.60923e-05
1.60896e-05
1.60899e-05
1.60903e-05
1.60906e-05
1.60913e-05
1.60886e-05
1.60889e-05
1.60893e-05
1.60896e-05
1.60903e-05
1.60877e-05
1.6088e-05
1.60883e-05
1.60886e-05
1.60893e-05
1.60868e-05
1.6087e-05
1.60874e-05
1.60877e-05
1.60883e-05
1.60858e-05
1.6086e-05
1.60864e-05
1.60866e-05
1.60873e-05
1.60846e-05
1.60849e-05
1.60852e-05
1.60855e-05
1.60861e-05
1.60831e-05
1.60833e-05
1.60835e-05
1.60838e-05
1.60841e-05
1.60847e-05
1.60815e-05
1.60817e-05
1.60819e-05
1.60822e-05
1.60825e-05
1.60831e-05
1.60796e-05
1.60798e-05
1.608e-05
1.60802e-05
1.60805e-05
1.6081e-05
1.60776e-05
1.60777e-05
1.60778e-05
1.6078e-05
1.60782e-05
1.60788e-05
1.60755e-05
1.60755e-05
1.60756e-05
1.60758e-05
1.6076e-05
1.60764e-05
1.60736e-05
1.60736e-05
1.60737e-05
1.60738e-05
1.60739e-05
1.60742e-05
1.60722e-05
1.60722e-05
1.60723e-05
1.60723e-05
1.60724e-05
1.60726e-05
1.60716e-05
1.60716e-05
1.60716e-05
1.60717e-05
1.60717e-05
1.60717e-05
1.60722e-05
1.60722e-05
1.60723e-05
1.60723e-05
1.60723e-05
1.60722e-05
1.60737e-05
1.60738e-05
1.60738e-05
1.60739e-05
1.60739e-05
1.6074e-05
1.60738e-05
1.60759e-05
1.60761e-05
1.60762e-05
1.60763e-05
1.60764e-05
1.60765e-05
1.60764e-05
1.60789e-05
1.60792e-05
1.60794e-05
1.60796e-05
1.60797e-05
1.60798e-05
1.60797e-05
1.60825e-05
1.60828e-05
1.60831e-05
1.60834e-05
1.60836e-05
1.60838e-05
1.60837e-05
1.60864e-05
1.60868e-05
1.60871e-05
1.60874e-05
1.60877e-05
1.6088e-05
1.60881e-05
1.60903e-05
1.60908e-05
1.60912e-05
1.60916e-05
1.60919e-05
1.60923e-05
1.60924e-05
1.60936e-05
1.60941e-05
1.60946e-05
1.6095e-05
1.60955e-05
1.60959e-05
1.60962e-05
1.60959e-05
1.60964e-05
1.60969e-05
1.60974e-05
1.60979e-05
1.60985e-05
1.60989e-05
1.60976e-05
1.60982e-05
1.60987e-05
1.60992e-05
1.60998e-05
1.61004e-05
1.61009e-05
1.6099e-05
1.60995e-05
1.61001e-05
1.61006e-05
1.61012e-05
1.61018e-05
1.61024e-05
1.60997e-05
1.61003e-05
1.61008e-05
1.61014e-05
1.6102e-05
1.61026e-05
1.61033e-05
1.61039e-05
1.61017e-05
1.61024e-05
1.61031e-05
1.61038e-05
1.61045e-05
1.61052e-05
1.6106e-05
1.61067e-05
1.61056e-05
1.61065e-05
1.61074e-05
1.61084e-05
1.61093e-05
1.61103e-05
1.61114e-05
1.61123e-05
1.61115e-05
1.61127e-05
1.61139e-05
1.61152e-05
1.61164e-05
1.61177e-05
1.61192e-05
1.61205e-05
1.61163e-05
1.61175e-05
1.61188e-05
1.612e-05
1.61213e-05
1.61226e-05
1.61241e-05
1.61256e-05
1.61142e-05
1.6115e-05
1.61157e-05
1.61165e-05
1.61172e-05
1.6118e-05
1.61188e-05
1.61198e-05
1.61069e-05
1.61079e-05
1.61089e-05
1.611e-05
1.61111e-05
1.61123e-05
1.61137e-05
1.61149e-05
1.61136e-05
1.61166e-05
1.61197e-05
1.61228e-05
1.6126e-05
1.61295e-05
1.61334e-05
1.6137e-05
1.61102e-05
1.61114e-05
1.61126e-05
1.61137e-05
1.61147e-05
1.61156e-05
1.61166e-05
1.61174e-05
0.126602
0.0830954
0.054277
0.0293401
0.00866846
0.000830093
7.45415e-05
1.06298e-05
1.00044e-05
1.14746e-05
1.53395e-05
1.63391e-05
1.62479e-05
1.61393e-05
1.61112e-05
1.6109e-05
1.61093e-05
1.61086e-05
1.61077e-05
1.61068e-05
1.61061e-05
1.61054e-05
1.61049e-05
1.61045e-05
1.6104e-05
1.61037e-05
1.61034e-05
1.61031e-05
1.61028e-05
1.61026e-05
1.61024e-05
1.61021e-05
1.61019e-05
1.61015e-05
1.61012e-05
1.61007e-05
1.61002e-05
1.60997e-05
1.6099e-05
1.60983e-05
1.60975e-05
1.60966e-05
1.60956e-05
1.60946e-05
1.60935e-05
1.60925e-05
1.60914e-05
1.60904e-05
1.60894e-05
1.60884e-05
1.60874e-05
1.60862e-05
1.60848e-05
1.60831e-05
1.60811e-05
1.60787e-05
1.60763e-05
1.60742e-05
1.60726e-05
1.60718e-05
1.60724e-05
1.6074e-05
1.60766e-05
1.60801e-05
1.60841e-05
1.60885e-05
1.60929e-05
1.60967e-05
1.60995e-05
1.61015e-05
1.61029e-05
1.61044e-05
1.61073e-05
1.61133e-05
1.61217e-05
1.61265e-05
1.61203e-05
1.6116e-05
1.61395e-05
1.61182e-05
0.149887
0.0867245
0.043187
0.0174715
0.00342326
0.000838391
1e-05
1.00001e-05
1.00391e-05
1.3708e-05
1.61352e-05
1.63514e-05
1.61981e-05
1.61278e-05
1.61151e-05
1.61145e-05
1.61138e-05
1.61123e-05
1.61108e-05
1.61095e-05
1.61083e-05
1.61074e-05
1.61066e-05
1.61059e-05
1.61052e-05
1.61047e-05
1.61042e-05
1.61038e-05
1.61035e-05
1.61032e-05
1.61029e-05
1.61026e-05
1.61023e-05
1.61019e-05
1.61015e-05
1.61011e-05
1.61005e-05
1.60999e-05
1.60992e-05
1.60985e-05
1.60976e-05
1.60967e-05
1.60957e-05
1.60947e-05
1.60937e-05
1.60926e-05
1.60915e-05
1.60905e-05
1.60895e-05
1.60885e-05
1.60875e-05
1.60863e-05
1.60848e-05
1.60831e-05
1.6081e-05
1.60786e-05
1.60762e-05
1.60741e-05
1.60725e-05
1.60718e-05
1.60725e-05
1.60742e-05
1.60769e-05
1.60804e-05
1.60846e-05
1.6089e-05
1.60934e-05
1.60972e-05
1.61e-05
1.61019e-05
1.61034e-05
1.61049e-05
1.61079e-05
1.61141e-05
1.61226e-05
1.61271e-05
1.61207e-05
1.61169e-05
1.6141e-05
1.61187e-05
0.151276
0.0808281
0.0295181
0.0071267
0.000425529
8.35369e-05
1e-05
1e-05
1.10869e-05
1.59827e-05
1.63896e-05
1.62797e-05
1.61553e-05
1.61227e-05
1.61193e-05
1.61186e-05
1.61169e-05
1.61148e-05
1.6113e-05
1.61114e-05
1.611e-05
1.61088e-05
1.61078e-05
1.61069e-05
1.61062e-05
1.61055e-05
1.6105e-05
1.61045e-05
1.61041e-05
1.61037e-05
1.61034e-05
1.61031e-05
1.61027e-05
1.61023e-05
1.61019e-05
1.61014e-05
1.61008e-05
1.61002e-05
1.60995e-05
1.60987e-05
1.60978e-05
1.60969e-05
1.60959e-05
1.60948e-05
1.60938e-05
1.60927e-05
1.60917e-05
1.60906e-05
1.60897e-05
1.60887e-05
1.60876e-05
1.60864e-05
1.60849e-05
1.6083e-05
1.60809e-05
1.60785e-05
1.60761e-05
1.60739e-05
1.60724e-05
1.60719e-05
1.60726e-05
1.60744e-05
1.60772e-05
1.60808e-05
1.60851e-05
1.60895e-05
1.6094e-05
1.60978e-05
1.61005e-05
1.61024e-05
1.61038e-05
1.61054e-05
1.61086e-05
1.6115e-05
1.61237e-05
1.61277e-05
1.61211e-05
1.6118e-05
1.61426e-05
1.61192e-05
0.135206
0.0642406
0.0149512
0.000796085
0.000197189
1e-05
1.00005e-05
1.01724e-05
1.43635e-05
1.68832e-05
1.63141e-05
1.62056e-05
1.61322e-05
1.61234e-05
1.61228e-05
1.61211e-05
1.61187e-05
1.61164e-05
1.61143e-05
1.61126e-05
1.61111e-05
1.61098e-05
1.61087e-05
1.61077e-05
1.61069e-05
1.61062e-05
1.61056e-05
1.61051e-05
1.61046e-05
1.61043e-05
1.61039e-05
1.61035e-05
1.61032e-05
1.61027e-05
1.61023e-05
1.61017e-05
1.61011e-05
1.61005e-05
1.60997e-05
1.60989e-05
1.6098e-05
1.60971e-05
1.6096e-05
1.6095e-05
1.60939e-05
1.60928e-05
1.60918e-05
1.60908e-05
1.60898e-05
1.60888e-05
1.60877e-05
1.60864e-05
1.60849e-05
1.6083e-05
1.60808e-05
1.60784e-05
1.60759e-05
1.60738e-05
1.60723e-05
1.60719e-05
1.60727e-05
1.60747e-05
1.60776e-05
1.60813e-05
1.60856e-05
1.60901e-05
1.60946e-05
1.60984e-05
1.6101e-05
1.61029e-05
1.61043e-05
1.61059e-05
1.61093e-05
1.61159e-05
1.61247e-05
1.61283e-05
1.61215e-05
1.61193e-05
1.61443e-05
1.61196e-05
0.104448
0.0387317
0.00282479
0.000702638
1e-05
1e-05
1.00182e-05
1.23537e-05
1.68746e-05
1.67291e-05
1.61912e-05
1.61618e-05
1.61251e-05
1.61267e-05
1.61253e-05
1.61228e-05
1.612e-05
1.61175e-05
1.61153e-05
1.61134e-05
1.61118e-05
1.61105e-05
1.61093e-05
1.61083e-05
1.61074e-05
1.61067e-05
1.61061e-05
1.61056e-05
1.61051e-05
1.61047e-05
1.61044e-05
1.6104e-05
1.61036e-05
1.61031e-05
1.61026e-05
1.61021e-05
1.61014e-05
1.61008e-05
1.61e-05
1.60991e-05
1.60982e-05
1.60972e-05
1.60962e-05
1.60951e-05
1.60941e-05
1.6093e-05
1.60919e-05
1.60909e-05
1.60899e-05
1.60889e-05
1.60878e-05
1.60865e-05
1.60849e-05
1.6083e-05
1.60807e-05
1.60782e-05
1.60758e-05
1.60737e-05
1.60723e-05
1.60719e-05
1.60729e-05
1.6075e-05
1.6078e-05
1.60818e-05
1.60861e-05
1.60907e-05
1.60952e-05
1.6099e-05
1.61016e-05
1.61034e-05
1.61047e-05
1.61064e-05
1.611e-05
1.6117e-05
1.61258e-05
1.6129e-05
1.6122e-05
1.61207e-05
1.6146e-05
1.612e-05
0.0650115
0.0150841
0.000323519
5.32045e-05
1e-05
1.0005e-05
1.14112e-05
1.62645e-05
1.72244e-05
1.63416e-05
1.61335e-05
1.61438e-05
1.61264e-05
1.61298e-05
1.61268e-05
1.61237e-05
1.61208e-05
1.61182e-05
1.6116e-05
1.61141e-05
1.61124e-05
1.6111e-05
1.61098e-05
1.61088e-05
1.61079e-05
1.61072e-05
1.61066e-05
1.6106e-05
1.61056e-05
1.61052e-05
1.61048e-05
1.61044e-05
1.6104e-05
1.61035e-05
1.6103e-05
1.61024e-05
1.61018e-05
1.6101e-05
1.61002e-05
1.60994e-05
1.60984e-05
1.60974e-05
1.60964e-05
1.60953e-05
1.60942e-05
1.60931e-05
1.60921e-05
1.60911e-05
1.60901e-05
1.6089e-05
1.60879e-05
1.60866e-05
1.60849e-05
1.60829e-05
1.60806e-05
1.6078e-05
1.60756e-05
1.60735e-05
1.60722e-05
1.6072e-05
1.60731e-05
1.60753e-05
1.60784e-05
1.60823e-05
1.60867e-05
1.60913e-05
1.60958e-05
1.60997e-05
1.61022e-05
1.61039e-05
1.61052e-05
1.6107e-05
1.61109e-05
1.61181e-05
1.6127e-05
1.61297e-05
1.61224e-05
1.61223e-05
0.0258549
0.00089
5.25684e-05
1.03317e-05
1.00022e-05
1.06329e-05
1.58417e-05
1.74711e-05
1.66405e-05
1.61295e-05
1.6131e-05
1.61382e-05
1.61301e-05
1.61315e-05
1.61274e-05
1.61241e-05
1.61212e-05
1.61186e-05
1.61164e-05
1.61145e-05
1.61129e-05
1.61114e-05
1.61102e-05
1.61092e-05
1.61083e-05
1.61076e-05
1.6107e-05
1.61065e-05
1.6106e-05
1.61056e-05
1.61052e-05
1.61048e-05
1.61044e-05
1.61039e-05
1.61033e-05
1.61027e-05
1.61021e-05
1.61013e-05
1.61005e-05
1.60996e-05
1.60986e-05
1.60976e-05
1.60965e-05
1.60955e-05
1.60944e-05
1.60933e-05
1.60922e-05
1.60912e-05
1.60902e-05
1.60892e-05
1.6088e-05
1.60866e-05
1.60849e-05
1.60828e-05
1.60804e-05
1.60779e-05
1.60754e-05
1.60734e-05
1.60721e-05
1.6072e-05
1.60733e-05
1.60756e-05
1.60788e-05
1.60828e-05
1.60873e-05
1.6092e-05
1.60965e-05
1.61003e-05
1.61028e-05
1.61044e-05
1.61058e-05
1.61076e-05
1.61117e-05
1.61193e-05
1.61282e-05
1.61303e-05
0.0029948
0.000751761
1e-05
1.0001e-05
1.03252e-05
1.5649e-05
1.77365e-05
1.68639e-05
1.62003e-05
1.6097e-05
1.61419e-05
1.61366e-05
1.61332e-05
1.61317e-05
1.61273e-05
1.61242e-05
1.61213e-05
1.61188e-05
1.61166e-05
1.61148e-05
1.61131e-05
1.61118e-05
1.61106e-05
1.61096e-05
1.61087e-05
1.6108e-05
1.61074e-05
1.61069e-05
1.61065e-05
1.61061e-05
1.61057e-05
1.61052e-05
1.61047e-05
1.61042e-05
1.61037e-05
1.61031e-05
1.61024e-05
1.61016e-05
1.61008e-05
1.60998e-05
1.60988e-05
1.60978e-05
1.60967e-05
1.60956e-05
1.60945e-05
1.60934e-05
1.60924e-05
1.60914e-05
1.60904e-05
1.60893e-05
1.60881e-05
1.60867e-05
1.60849e-05
1.60827e-05
1.60803e-05
1.60777e-05
1.60752e-05
1.60732e-05
1.60721e-05
1.60721e-05
1.60735e-05
1.60759e-05
1.60793e-05
1.60834e-05
1.6088e-05
1.60927e-05
1.60973e-05
1.6101e-05
1.61034e-05
1.6105e-05
1.61063e-05
1.61083e-05
1.61127e-05
1.61206e-05
0.000817619
1e-05
1e-05
1.00055e-05
1.56524e-05
1.80136e-05
1.7022e-05
1.62577e-05
1.60832e-05
1.61272e-05
1.61453e-05
1.61363e-05
1.61343e-05
1.61309e-05
1.61269e-05
1.61239e-05
1.61211e-05
1.61188e-05
1.61167e-05
1.61149e-05
1.61133e-05
1.6112e-05
1.61109e-05
1.61099e-05
1.61091e-05
1.61084e-05
1.61079e-05
1.61074e-05
1.61069e-05
1.61065e-05
1.61061e-05
1.61056e-05
1.61051e-05
1.61046e-05
1.6104e-05
1.61034e-05
1.61027e-05
1.61019e-05
1.6101e-05
1.61001e-05
1.6099e-05
1.6098e-05
1.60969e-05
1.60958e-05
1.60947e-05
1.60936e-05
1.60926e-05
1.60916e-05
1.60905e-05
1.60895e-05
1.60882e-05
1.60867e-05
1.60848e-05
1.60826e-05
1.60801e-05
1.60775e-05
1.6075e-05
1.60731e-05
1.6072e-05
1.60722e-05
1.60738e-05
1.60763e-05
1.60798e-05
1.60841e-05
1.60887e-05
1.60934e-05
1.6098e-05
1.61018e-05
1.61041e-05
1.61056e-05
1.61069e-05
1e-05
1e-05
1.00182e-05
1.46306e-05
1.87419e-05
1.70152e-05
1.62791e-05
1.60743e-05
1.61125e-05
1.61471e-05
1.61425e-05
1.61362e-05
1.61337e-05
1.61296e-05
1.61262e-05
1.61234e-05
1.61208e-05
1.61186e-05
1.61166e-05
1.61149e-05
1.61134e-05
1.61122e-05
1.61111e-05
1.61102e-05
1.61095e-05
1.61088e-05
1.61083e-05
1.61078e-05
1.61074e-05
1.61069e-05
1.61065e-05
1.6106e-05
1.61055e-05
1.6105e-05
1.61044e-05
1.61037e-05
1.6103e-05
1.61021e-05
1.61012e-05
1.61003e-05
1.60992e-05
1.60982e-05
1.6097e-05
1.60959e-05
1.60948e-05
1.60938e-05
1.60927e-05
1.60917e-05
1.60907e-05
1.60896e-05
1.60883e-05
1.60867e-05
1.60848e-05
1.60825e-05
1.60799e-05
1.60772e-05
1.60748e-05
1.60729e-05
1.6072e-05
1.60724e-05
1.60741e-05
1.60768e-05
1.60804e-05
1.60847e-05
1.60895e-05
1.60942e-05
1e-05
1.00118e-05
1.30516e-05
1.90564e-05
1.70918e-05
1.61925e-05
1.60739e-05
1.61013e-05
1.61457e-05
1.61476e-05
1.61391e-05
1.61354e-05
1.61321e-05
1.61283e-05
1.61253e-05
1.61227e-05
1.61203e-05
1.61182e-05
1.61164e-05
1.61148e-05
1.61135e-05
1.61123e-05
1.61113e-05
1.61105e-05
1.61098e-05
1.61092e-05
1.61087e-05
1.61082e-05
1.61078e-05
1.61074e-05
1.61069e-05
1.61064e-05
1.61059e-05
1.61053e-05
1.61047e-05
1.6104e-05
1.61032e-05
1.61024e-05
1.61015e-05
1.61005e-05
1.60994e-05
1.60983e-05
1.60972e-05
1.60961e-05
1.6095e-05
1.60939e-05
1.60929e-05
1.60919e-05
1.60909e-05
1.60897e-05
1.60884e-05
1.60867e-05
1.60847e-05
1.60823e-05
1.60796e-05
1.6077e-05
1.60746e-05
1.60728e-05
1.6072e-05
1.60725e-05
1.60744e-05
1.00117e-05
1.30075e-05
1.87629e-05
1.72539e-05
1.60767e-05
1.60521e-05
1.61049e-05
1.6143e-05
1.61508e-05
1.6142e-05
1.61367e-05
1.61336e-05
1.61301e-05
1.61269e-05
1.61243e-05
1.61219e-05
1.61197e-05
1.61178e-05
1.61162e-05
1.61148e-05
1.61135e-05
1.61125e-05
1.61116e-05
1.61108e-05
1.61102e-05
1.61096e-05
1.61091e-05
1.61087e-05
1.61082e-05
1.61078e-05
1.61073e-05
1.61068e-05
1.61063e-05
1.61057e-05
1.6105e-05
1.61043e-05
1.61035e-05
1.61026e-05
1.61017e-05
1.61007e-05
1.60996e-05
1.60985e-05
1.60974e-05
1.60962e-05
1.60952e-05
1.60941e-05
1.60931e-05
1.60921e-05
1.6091e-05
1.60898e-05
1.60884e-05
1.60867e-05
1.60846e-05
1.60821e-05
1.37482e-05
1.80164e-05
1.71869e-05
1.60396e-05
1.60081e-05
1.61186e-05
1.61444e-05
1.61515e-05
1.61441e-05
1.61377e-05
1.61345e-05
1.61314e-05
1.61282e-05
1.61256e-05
1.61232e-05
1.6121e-05
1.61191e-05
1.61174e-05
1.61159e-05
1.61147e-05
1.61136e-05
1.61126e-05
1.61118e-05
1.61111e-05
1.61105e-05
1.611e-05
1.61096e-05
1.61091e-05
1.61087e-05
1.61082e-05
1.61077e-05
1.61072e-05
1.61067e-05
1.6106e-05
1.61054e-05
1.61046e-05
1.61038e-05
1.61029e-05
1.61019e-05
1.61008e-05
1.60998e-05
1.60986e-05
)
;

boundaryField
{
    inlet
    {
        type            calculated;
        value           uniform 2e-05;
    }
    outlet
    {
        type            calculated;
        value           nonuniform List<scalar> 0();
    }
    walls
    {
        type            calculated;
        value           nonuniform List<scalar> 4(0.00273751 0.00267324 0.00258244 0.00232612);
    }
    frontAndBack
    {
        type            empty;
    }
    procBoundary2to1
    {
        type            processor;
        value           nonuniform List<scalar> 
84
(
0.107983
0.0680141
0.0311655
0.00305126
0.000738236
1.00029e-05
1.34054e-05
1.63143e-05
1.61249e-05
1.60888e-05
1.60935e-05
1.61016e-05
1.61048e-05
1.61041e-05
1.61033e-05
1.61028e-05
1.61026e-05
1.61024e-05
1.61023e-05
1.61023e-05
1.61022e-05
1.61022e-05
1.61021e-05
1.6102e-05
1.61019e-05
1.61017e-05
1.61016e-05
1.61013e-05
1.61011e-05
1.61009e-05
1.61006e-05
1.61002e-05
1.60999e-05
1.60995e-05
1.60991e-05
1.60986e-05
1.6098e-05
1.60974e-05
1.60974e-05
1.60964e-05
1.60957e-05
1.60949e-05
1.6094e-05
1.60931e-05
1.60922e-05
1.60913e-05
1.60903e-05
1.60893e-05
1.60884e-05
1.60875e-05
1.60865e-05
1.60855e-05
1.60844e-05
1.60844e-05
1.60829e-05
1.60814e-05
1.60795e-05
1.60775e-05
1.60754e-05
1.60736e-05
1.60722e-05
1.60716e-05
1.60722e-05
1.60722e-05
1.60735e-05
1.60757e-05
1.60787e-05
1.60822e-05
1.6086e-05
1.60899e-05
1.60931e-05
1.60953e-05
1.60971e-05
1.60984e-05
1.60984e-05
1.60991e-05
1.6101e-05
1.61046e-05
1.61102e-05
1.61151e-05
1.61134e-05
1.6106e-05
1.61107e-05
1.61088e-05
)
;
    }
    procBoundary2to3
    {
        type            processor;
        value           nonuniform List<scalar> 
88
(
1.61479e-05
1.61204e-05
1.61229e-05
1.61479e-05
1.6124e-05
1.61295e-05
1.61229e-05
1.6131e-05
1.6109e-05
1.61137e-05
1.61295e-05
1.61219e-05
1.60988e-05
1.61026e-05
1.61048e-05
1.61062e-05
1.6109e-05
1.61076e-05
1.60773e-05
1.6081e-05
1.60855e-05
1.60903e-05
1.60988e-05
1.6095e-05
1.60794e-05
1.60767e-05
1.60743e-05
1.60726e-05
1.6072e-05
1.60727e-05
1.60773e-05
1.60748e-05
1.60975e-05
1.60964e-05
1.60953e-05
1.60943e-05
1.60933e-05
1.60922e-05
1.60912e-05
1.60899e-05
1.60885e-05
1.60866e-05
1.60844e-05
1.60794e-05
1.60818e-05
1.77227e-05
1.69217e-05
1.60487e-05
1.59952e-05
1.61269e-05
1.61529e-05
1.61501e-05
1.61446e-05
1.61382e-05
1.61349e-05
1.6132e-05
1.61291e-05
1.61265e-05
1.61242e-05
1.6122e-05
1.61202e-05
1.61185e-05
1.6117e-05
1.61157e-05
1.61146e-05
1.61136e-05
1.61128e-05
1.61121e-05
1.61115e-05
1.61109e-05
1.61104e-05
1.611e-05
1.61096e-05
1.61091e-05
1.61086e-05
1.61081e-05
1.61076e-05
1.6107e-05
1.61064e-05
1.61057e-05
1.61049e-05
1.6104e-05
1.61031e-05
1.61021e-05
1.6101e-05
1.60999e-05
1.60975e-05
1.60988e-05
)
;
    }
    procBoundary2to6
    {
        type            processor;
        value           nonuniform List<scalar> 
13
(
0.172396
0.21366
0.217849
0.202722
0.172778
0.130192
0.0788931
0.0300131
0.00323547
0.000436223
1e-05
1e-05
1.00162e-05
)
;
    }
}


// ************************************************************************* //
