/*--------------------------------*- C++ -*----------------------------------*\
| =========                 |                                                 |
| \\      /  F ield         | OpenFOAM: The Open Source CFD Toolbox           |
|  \\    /   O peration     | Version:  2506                                  |
|   \\  /    A nd           | Website:  www.openfoam.com                      |
|    \\/     M anipulation  |                                                 |
\*---------------------------------------------------------------------------*/
FoamFile
{
    version     2.0;
    format      ascii;
    arch        "LSB;label=32;scalar=64";
    class       volVectorField;
    location    "350";
    object      U;
}
// * * * * * * * * * * * * * * * * * * * * * * * * * * * * * * * * * * * * * //

dimensions      [0 1 -1 0 0 0 0];

internalField   nonuniform List<vector> 
1340
(
(23.0076 2.62724 2.30802e-16)
(22.3172 2.92663 8.27344e-16)
(21.3671 3.13419 2.18489e-15)
(18.7647 3.31174 2.34044e-15)
(24.6043 3.18326 -1.08917e-16)
(24.0357 3.42889 -6.36525e-16)
(23.4729 3.64808 -2.27532e-15)
(21.4975 3.71656 -2.42355e-15)
(25.2953 3.03917 1.03754e-16)
(24.7696 3.37349 -9.25353e-16)
(24.1691 3.62608 4.34794e-15)
(22.3695 3.72739 1.0708e-14)
(25.5774 3.25117 -5.65664e-16)
(25.1461 3.52027 2.55296e-15)
(24.614 3.69601 -1.98964e-15)
(22.9848 3.75933 -2.10589e-15)
(25.524 3.00279 -1.74659e-16)
(25.1355 3.32887 -8.61666e-16)
(24.6769 3.54897 2.85229e-15)
(23.3013 3.66101 -3.1226e-15)
(25.495 3.16965 6.63752e-16)
(25.1125 3.44512 -2.53173e-15)
(24.6511 3.59201 -3.30277e-15)
(23.4321 3.62879 1.09354e-15)
(25.4656 3.00997 -6.04018e-16)
(25.0931 3.29797 1.83174e-15)
(24.6334 3.4606 1.91115e-16)
(23.5069 3.50382 5.68336e-15)
(25.4314 3.05762 6.69211e-16)
(25.0687 3.32354 -6.18726e-16)
(24.6197 3.44651 2.69433e-16)
(23.5731 3.43479 -3.06651e-16)
(25.4023 2.99153 -2.0356e-17)
(25.0507 3.25233 3.23121e-16)
(24.6139 3.37064 3.29573e-16)
(23.6445 3.34526 -4.17676e-16)
(25.3698 2.98011 2.61545e-16)
(25.0302 3.2263 2.11327e-15)
(24.6073 3.32284 -2.5683e-15)
(23.7156 3.2676 2.00414e-15)
(25.3388 2.94289 2.71244e-17)
(25.0118 3.17915 -2.46714e-15)
(24.6033 3.26443 4.19451e-15)
(23.7856 3.19128 2.17725e-15)
(25.3069 2.91655 -5.99737e-16)
(24.9935 3.14017 1.60317e-15)
(24.6006 3.21112 -2.3594e-15)
(23.8538 3.11933 -4.08684e-15)
(25.2752 2.88508 7.52319e-16)
(24.976 3.0971 -2.32376e-15)
(24.5998 3.15697 -2.10118e-16)
(23.9202 3.05081 -5.57533e-15)
(25.2433 2.85555 -5.71934e-16)
(24.9591 3.05541 1.58609e-15)
(24.6005 3.10461 4.17958e-16)
(23.9845 2.98619 3.5529e-15)
(25.2115 2.82522 1.41861e-16)
(24.9428 3.01315 6.86646e-16)
(24.6027 3.05321 1.76151e-15)
(24.0465 2.92553 -1.78986e-15)
(25.1798 2.79543 8.34423e-17)
(24.9272 2.97138 -1.05978e-15)
(24.6063 3.00333 -2.50341e-15)
(24.1062 2.86875 -1.56133e-15)
(25.1484 2.7659 -1.98587e-17)
(24.9122 2.93005 5.54532e-16)
(24.6112 2.95501 -8.81012e-16)
(24.1634 2.81602 4.30083e-15)
(25.1173 2.737 3.64332e-16)
(24.8979 2.88951 -1.70876e-15)
(24.6172 2.90842 1.51748e-15)
(24.2182 2.76718 -3.23389e-15)
(25.0866 2.70887 -1.07358e-15)
(24.8843 2.84999 4.58547e-16)
(24.6243 2.86375 1.14408e-15)
(24.2704 2.72232 5.1564e-15)
(25.0566 2.68173 5.70608e-16)
(24.8714 2.81173 1.34467e-15)
(24.6323 2.82115 -1.18261e-15)
(24.32 2.68137 -3.16066e-15)
(25.0273 2.65582 -1.69688e-16)
(24.8592 2.77501 -1.09927e-15)
(24.641 2.78075 -5.83533e-16)
(24.3671 2.64419 6.49202e-16)
(24.9988 2.63134 5.03111e-17)
(24.8478 2.74005 1.82157e-16)
(24.6504 2.74275 7.80025e-16)
(24.4116 2.61079 -9.91899e-18)
(24.9713 2.60852 3.66086e-16)
(24.8371 2.70711 3.76069e-17)
(24.6603 2.70725 9.80032e-16)
(24.4536 2.58095 -8.33025e-16)
(24.945 2.58756 -2.99224e-16)
(24.8273 2.67642 -3.32191e-16)
(24.6705 2.67441 -2.02891e-15)
(24.4932 2.55467 5.17476e-16)
(24.9199 2.56868 2.32179e-16)
(24.8182 2.64817 7.10738e-16)
(24.6811 2.64435 8.02785e-16)
(24.5305 2.53175 4.58773e-16)
(24.8962 2.55206 -5.96904e-16)
(24.81 2.62257 -4.34182e-18)
(24.6917 2.61719 1.36768e-15)
(24.5655 2.51209 6.96566e-16)
(24.874 2.53787 5.41531e-16)
(24.8027 2.59978 4.47632e-16)
(24.7025 2.59302 -1.09301e-15)
(24.5983 2.49558 -1.77106e-15)
(24.8536 2.52625 1.70011e-17)
(24.7963 2.57994 -1.48647e-16)
(24.7134 2.57192 7.87115e-16)
(24.629 2.48209 1.15178e-15)
(24.8349 2.51734 -3.33356e-17)
(24.791 2.56318 -4.81134e-16)
(24.7242 2.55395 -1.15747e-15)
(24.6578 2.47151 -1.41243e-15)
(24.8182 2.51121 -1.44286e-16)
(24.7867 2.54956 -3.19349e-16)
(24.7349 2.53916 5.69803e-16)
(24.6848 2.46374 -9.27946e-17)
(24.8036 2.50793 -1.33075e-16)
(24.7835 2.53916 -8.01616e-17)
(24.7457 2.52756 6.44754e-17)
(24.7101 2.45868 1.37254e-15)
(24.7912 2.50751 -1.71109e-16)
(24.7815 2.53197 4.63672e-16)
(24.7564 2.51914 1.98458e-16)
(24.7338 2.45624 1.30278e-15)
(24.781 2.50993 -5.67069e-17)
(24.7807 2.52799 -1.58792e-16)
(24.7672 2.51387 -4.9048e-16)
(24.7561 2.45634 -1.19544e-15)
(24.7732 2.51515 3.39642e-16)
(24.7813 2.52717 2.02141e-16)
(24.7781 2.51169 -2.67138e-18)
(24.7771 2.45888 -8.2319e-16)
(24.7679 2.52307 -7.65889e-17)
(24.7833 2.52942 -7.15231e-16)
(24.7892 2.51253 5.89728e-16)
(24.7971 2.46378 3.98673e-16)
(24.765 2.53358 1.22667e-16)
(24.7867 2.53463 4.59186e-16)
(24.8006 2.51626 -7.37113e-16)
(24.8161 2.47095 -7.31189e-16)
(24.7647 2.54651 -1.20295e-16)
(24.7916 2.54264 -2.1842e-16)
(24.8124 2.52276 3.68709e-16)
(24.8344 2.48029 2.45212e-16)
(24.7669 2.56168 2.05914e-16)
(24.7981 2.55329 4.86724e-17)
(24.8246 2.53187 -4.43934e-16)
(24.8521 2.4917 1.03441e-15)
(24.7297 2.58577 -1.27682e-16)
(24.7716 2.57889 5.47209e-17)
(24.8062 2.56638 -2.45243e-16)
(24.8374 2.54343 7.91328e-16)
(24.8694 2.50507 -1.69574e-16)
(24.7361 2.60985 3.59706e-16)
(24.7788 2.59792 -6.02541e-16)
(24.816 2.58169 9.64644e-16)
(24.8508 2.55723 3.81304e-17)
(24.8865 2.52027 4.27988e-17)
(24.7455 2.63486 -1.06534e-16)
(24.7884 2.61852 1.20042e-16)
(24.8274 2.59898 -5.52857e-16)
(24.865 2.57309 -8.89638e-16)
(24.9034 2.53716 -2.32407e-17)
(24.7577 2.66058 -1.40532e-16)
(24.8003 2.64045 3.65102e-16)
(24.8404 2.61802 -1.01471e-16)
(24.88 2.59078 3.34984e-16)
(24.9205 2.55559 -5.36416e-16)
(24.7726 2.68679 2.41849e-16)
(24.8145 2.66347 2.92512e-16)
(24.855 2.63855 2.8701e-16)
(24.8959 2.61008 9.69612e-17)
(24.9377 2.57541 5.2718e-16)
(24.79 2.71327 3.3407e-17)
(24.8309 2.68733 -9.77103e-17)
(24.8712 2.66032 -3.35523e-16)
(24.9127 2.63076 4.06607e-16)
(24.9552 2.59646 2.44217e-16)
(24.8097 2.73983 -2.47996e-17)
(24.8492 2.71179 -3.56445e-16)
(24.8889 2.68307 2.35483e-16)
(24.9305 2.65259 -3.03934e-16)
(24.9731 2.61855 -1.03674e-16)
(24.8314 2.76628 7.97387e-17)
(24.8693 2.73663 7.52849e-17)
(24.9081 2.70658 -1.44952e-16)
(24.9493 2.67535 -3.24137e-16)
(24.9915 2.64152 -5.63527e-16)
(24.8551 2.79245 -6.19824e-17)
(24.8911 2.76164 3.39341e-16)
(24.9287 2.73061 -2.87108e-17)
(24.969 2.69881 3.76885e-16)
(25.0105 2.66519 3.48275e-16)
(24.8803 2.8182 1.05134e-16)
(24.9145 2.78664 -2.71802e-16)
(24.9505 2.75494 -3.32688e-17)
(24.9896 2.72277 1.31494e-16)
(25.0301 2.68937 -5.45563e-16)
(24.907 2.8434 2.01485e-16)
(24.9392 2.81144 -3.39962e-16)
(24.9735 2.77938 1.06748e-16)
(25.0112 2.74702 3.8373e-16)
(25.0503 2.71391 5.75795e-17)
(24.9349 2.86794 -1.14176e-16)
(24.9651 2.83589 2.05042e-17)
(24.9976 2.80375 -1.9955e-16)
(25.0337 2.77139 1.35176e-16)
(25.0712 2.73863 -1.34357e-16)
(24.9639 2.89173 1.14725e-16)
(24.992 2.85988 1.75496e-16)
(25.0227 2.82788 -1.14848e-17)
(25.0569 2.7957 -4.1387e-16)
(25.0927 2.76338 -1.95807e-16)
(24.9937 2.91471 -4.95903e-17)
(25.0198 2.88327 -3.11404e-16)
(25.0486 2.85165 4.3785e-16)
(25.0809 2.81981 -3.3905e-16)
(25.1149 2.78802 8.81074e-17)
(25.0021 2.96769 2.06403e-17)
(25.024 2.93682 -6.30105e-17)
(25.0482 2.90599 -5.80937e-17)
(25.0751 2.8749 1.85774e-16)
(25.1055 2.84356 4.49038e-16)
(25.1375 2.8124 -5.65759e-17)
(25.0347 2.98802 -6.32632e-17)
(25.0548 2.958 -3.11541e-16)
(25.0771 2.92794 4.72504e-16)
(25.1021 2.89756 -2.53566e-16)
(25.1306 2.86684 3.34827e-16)
(25.1607 2.8364 -1.24344e-16)
(25.0673 3.00728 1.60826e-16)
(25.0857 2.97824 7.19809e-17)
(25.1063 2.94907 -2.3634e-16)
(25.1294 2.91952 1.60231e-16)
(25.156 2.88954 -4.68486e-17)
(25.1841 2.85991 9.1032e-17)
(25.0996 3.02549 4.45305e-17)
(25.1164 2.9975 -5.11549e-17)
(25.1353 2.96932 5.50641e-17)
(25.1567 2.9407 -1.48775e-16)
(25.1815 2.91158 -1.07656e-16)
(25.2077 2.88283 -6.51301e-18)
(25.1315 3.04265 -1.64299e-16)
(25.1469 3.01578 2.02661e-16)
(25.1642 2.98867 8.62904e-17)
(25.1839 2.96106 2.17486e-16)
(25.2069 2.93286 -6.01483e-17)
(25.2312 2.90506 1.16728e-16)
(25.1629 3.0588 7.71859e-17)
(25.1769 3.03308 2.05919e-16)
(25.1927 3.00709 -2.00208e-16)
(25.2108 2.98055 -1.81501e-16)
(25.2321 2.95334 8.05498e-17)
(25.2546 2.92655 -2.36385e-16)
(25.1935 3.07397 -3.37713e-17)
(25.2063 3.04943 -9.5816e-17)
(25.2208 3.02458 2.0496e-16)
(25.2374 2.99915 -3.17958e-16)
(25.257 2.97299 -6.37424e-17)
(25.2778 2.94725 3.03073e-16)
(25.2235 3.0882 -2.95122e-16)
(25.2351 3.06484 2.57505e-16)
(25.2483 3.04116 -5.95818e-17)
(25.2635 3.01687 5.976e-17)
(25.2815 2.99179 2.83747e-17)
(25.3008 2.96712 -2.29191e-16)
(25.2526 3.10154 8.99214e-17)
(25.2632 3.07936 -2.64713e-16)
(25.2752 3.05684 1.8372e-16)
(25.2892 3.0337 6.16947e-17)
(25.3057 3.00972 -3.56175e-16)
(25.3234 2.98616 1.52567e-16)
(25.2725 3.1349 3.30943e-18)
(25.2809 3.11403 -5.7971e-17)
(25.2905 3.093 5.06563e-17)
(25.3015 3.07164 5.48209e-17)
(25.3142 3.04965 -1.43414e-16)
(25.3294 3.02679 -6.31543e-17)
(25.3457 3.00435 7.81192e-17)
(25.3005 3.14542 -2.60029e-16)
(25.3081 3.12567 1.03303e-16)
(25.3167 3.10578 8.81936e-17)
(25.3268 3.08555 -3.20872e-17)
(25.3384 3.06471 1.98761e-16)
(25.3523 3.04296 -2.14646e-16)
(25.3673 3.02165 -9.9458e-17)
(25.327 3.15514 -3.6266e-18)
(25.3338 3.13648 1.85975e-16)
(25.3417 3.1177 -1.553e-16)
(25.3508 3.09859 -1.83924e-16)
(25.3614 3.07887 1.61465e-16)
(25.3742 3.05824 4.3926e-16)
(25.3879 3.03805 -1.37985e-16)
(25.3518 3.16406 6.46163e-17)
(25.358 3.14647 -7.89692e-18)
(25.3651 3.12876 -1.28173e-17)
(25.3734 3.11074 -7.34292e-18)
(25.3831 3.09212 2.64515e-16)
(25.3948 3.07259 -6.021e-17)
(25.4074 3.05352 -3.53021e-16)
(25.3748 3.17225 -1.23034e-16)
(25.3804 3.15567 1.56128e-16)
(25.3868 3.13901 3.90178e-17)
(25.3943 3.12204 -9.65143e-17)
(25.4032 3.10451 -1.25015e-16)
(25.4139 3.08607 5.0071e-17)
(25.4255 3.0681 3.31731e-17)
(25.396 3.17964 5.13956e-17)
(25.401 3.16405 -8.80216e-17)
(25.4068 3.14839 2.31777e-16)
(25.4136 3.13245 -1.97304e-16)
(25.4216 3.11597 2.86201e-16)
(25.4314 3.0986 -1.74352e-16)
(25.442 3.08171 3.01469e-16)
(25.4124 3.18535 -1.34685e-16)
(25.417 3.17057 -4.88981e-18)
(25.4223 3.15575 -9.92994e-17)
(25.4287 3.14068 -6.38118e-18)
(25.4361 3.1251 -5.29905e-17)
(25.4453 3.10866 -8.81473e-17)
(25.4552 3.09274 9.98208e-17)
(25.4251 3.18981 -1.90805e-16)
(25.4294 3.17572 -2.79864e-17)
(25.4344 3.1616 1.19543e-16)
(25.4403 3.14727 -1.62894e-18)
(25.4474 3.13247 -1.14753e-16)
(25.456 3.11684 1.34779e-17)
(25.4655 3.10176 -1.61976e-16)
(25.4376 3.19417 3.01306e-17)
(25.4416 3.18078 8.372e-17)
(25.4463 3.16739 -7.07474e-17)
(25.4518 3.15382 -1.0228e-16)
(25.4584 3.13982 -1.99832e-16)
(25.4665 3.12505 4.81744e-16)
(25.4755 3.11085 -2.77396e-16)
(25.4498 3.19836 7.58741e-17)
(25.4535 3.18568 -2.87951e-17)
(25.4578 3.17302 2.39222e-17)
(25.463 3.16022 -1.52181e-16)
(25.4692 3.14704 2.49879e-16)
(25.4767 3.13313 -2.7343e-16)
(25.4851 3.11983 3.19027e-16)
(25.459 3.21448 1.00714e-16)
(25.4618 3.20236 4.99612e-17)
(25.4651 3.19042 -4.68844e-17)
(25.4691 3.17853 -4.39725e-17)
(25.4738 3.16654 -9.69809e-17)
(25.4795 3.1542 -1.03916e-16)
(25.4866 3.14119 3.03438e-16)
(25.4944 3.12879 -1.48501e-16)
(25.4707 3.21737 -4.92438e-17)
(25.4731 3.20593 8.40136e-17)
(25.4761 3.1947 -8.88113e-17)
(25.4797 3.18357 -8.00679e-17)
(25.484 3.17238 8.10964e-17)
(25.4893 3.16093 1.65131e-16)
(25.4958 3.1489 -3.55366e-17)
(25.5031 3.13764 7.06826e-17)
(25.4813 3.22026 1.57853e-16)
(25.4833 3.20952 -1.86979e-16)
(25.4858 3.19899 2.19104e-16)
(25.4889 3.18856 -1.79523e-16)
(25.4926 3.17808 -2.10033e-16)
(25.4972 3.16734 3.23625e-16)
(25.503 3.15603 -2.28352e-16)
(25.5093 3.14518 1.50358e-16)
(25.4888 3.22134 2.25764e-17)
(25.4903 3.2115 -1.62936e-16)
(25.4923 3.20197 1.07703e-16)
(25.4948 3.19265 -3.00007e-17)
(25.4979 3.1834 -1.23572e-16)
(25.5019 3.17407 3.55779e-16)
(25.5071 3.16445 -2.12309e-16)
(25.5136 3.15628 3.63374e-17)
(25.4899 3.2214 -8.08983e-17)
(25.4903 3.21135 -8.18891e-17)
(25.4912 3.20155 -1.31286e-16)
(25.4928 3.19192 2.34217e-16)
(25.4949 3.18234 4.01293e-17)
(25.4977 3.17254 -8.34299e-17)
(25.5008 3.16209 2.4506e-16)
(25.5038 3.15099 -3.14492e-16)
(25.4875 3.22808 1.02739e-16)
(25.4874 3.22108 3.339e-17)
(25.4876 3.21442 -1.52686e-16)
(25.4883 3.20802 -1.04708e-16)
(25.4895 3.20178 4.46207e-17)
(25.4917 3.19583 5.45202e-17)
(25.4963 3.19043 -1.35488e-16)
(25.5041 3.18886 1.2603e-17)
(25.474 3.18394 -1.37198e-16)
(25.4738 3.17279 1.08594e-16)
(25.4743 3.16215 9.62767e-17)
(25.4756 3.15196 -7.45068e-17)
(25.4772 3.14206 3.17995e-16)
(25.4784 3.13179 -4.42513e-16)
(25.4767 3.12015 1.76984e-16)
(25.4713 3.10466 -2.71141e-16)
(25.5135 3.32262 1.55026e-16)
(25.514 3.321 -1.21051e-16)
(25.5146 3.31943 1.02549e-17)
(25.5155 3.31797 6.46751e-17)
(25.5175 3.3168 -8.57875e-17)
(25.5222 3.31667 -1.50902e-16)
(25.5353 3.31901 1.71771e-16)
(25.5559 3.32804 -4.08463e-17)
(25.561 2.95963 1.19465e-16)
(25.5661 2.94723 1.4571e-16)
(25.572 2.93545 -1.16672e-16)
(25.5782 2.92403 -3.10912e-16)
(25.5829 2.9125 4.16222e-16)
(25.5844 2.9007 -3.53781e-16)
(25.5743 2.88745 8.59144e-16)
(25.5555 2.87888 -5.40339e-16)
(18.57 1.40469 7.98613e-19)
(21.2069 1.31009 1.57437e-17)
(22.1302 1.37845 7.77821e-19)
(22.637 1.47282 -3.53773e-19)
(22.9055 1.53882 1.38243e-18)
(23.0337 1.62213 9.55188e-19)
(23.1262 1.67918 -2.07415e-20)
(23.2178 1.75235 1.88992e-19)
(23.3127 1.81086 2.35404e-19)
(23.4068 1.86935 0)
(23.4993 1.92247 -2.11359e-17)
(23.5897 1.97127 3.28905e-19)
(23.6778 2.01593 -1.11721e-19)
(23.7634 2.05641 -1.13913e-19)
(23.8461 2.09295 6.74258e-20)
(23.9258 2.12562 2.87954e-17)
(24.0023 2.15482 4.73163e-17)
(24.0755 2.18055 -6.96246e-21)
(24.1452 2.20331 2.44563e-21)
(24.2114 2.22332 1.47237e-20)
(24.274 2.24091 -5.0735e-20)
(24.3331 2.25645 9.54575e-21)
(24.3886 2.27023 1.01809e-19)
(24.4407 2.28265 5.42939e-20)
(24.4894 2.29398 2.98622e-19)
(24.5349 2.30456 -4.11377e-20)
(24.5773 2.31466 5.34014e-19)
(24.6167 2.32455 3.78399e-19)
(24.6533 2.33447 3.92256e-20)
(24.6873 2.34461 2.71643e-19)
(24.7189 2.35516 -6.95545e-19)
(24.7483 2.36627 -8.42202e-17)
(24.7756 2.37809 -3.27929e-17)
(24.801 2.39071 2.12381e-18)
(24.8248 2.40422 -2.10531e-18)
(24.8472 2.4187 -1.59967e-18)
(24.8683 2.43419 3.04302e-18)
(24.8883 2.45072 6.19601e-19)
(24.9075 2.4683 5.2546e-19)
(24.926 2.48692 -2.25016e-18)
(24.9439 2.50656 -1.17494e-16)
(24.9615 2.52717 2.54931e-18)
(24.979 2.54869 -3.15081e-17)
(24.9963 2.57104 -9.02068e-17)
(25.0138 2.59413 2.43401e-18)
(25.0314 2.61785 -7.71694e-17)
(25.0494 2.64209 1.60144e-18)
(25.0677 2.66673 1.44534e-18)
(25.0865 2.69164 1.36157e-16)
(25.1059 2.7167 3.07119e-19)
(25.1257 2.74179 1.8779e-18)
(25.1461 2.76677 -2.18895e-16)
(25.167 2.79153 -5.62258e-19)
(25.1883 2.81596 1.36344e-17)
(25.2099 2.83995 -7.70541e-20)
(25.2317 2.86339 -3.37879e-19)
(25.2535 2.8862 -1.46183e-18)
(25.2752 2.90831 5.52371e-17)
(25.2967 2.92968 1.26022e-17)
(25.3182 2.95025 1.28901e-16)
(25.3394 2.97002 2.35533e-16)
(25.3602 2.98896 1.4919e-16)
(25.3805 3.00702 5.51871e-17)
(25.4 3.0242 2.15683e-19)
(25.4184 3.04044 2.53251e-18)
(25.4354 3.05581 5.83778e-17)
(25.451 3.07017 -4.92859e-17)
(25.4635 3.08189 -1.14173e-18)
(25.4732 3.09149 2.22341e-18)
(25.4827 3.1012 -1.40913e-16)
(25.4918 3.11082 -1.42476e-16)
(25.5005 3.12041 8.87204e-19)
(25.5087 3.13006 1.00516e-16)
(25.5143 3.13799 -1.2807e-16)
(25.5181 3.15069 0)
(25.5065 3.14404 -2.04676e-17)
(25.5085 3.1873 -1.25288e-17)
(25.4708 3.09595 2.55881e-16)
(25.5652 3.33311 -5.89247e-18)
(25.5533 2.87745 -2.84381e-16)
(21.0245 1.29204 -5.19733e-18)
(22.8579 1.28554 -4.9014e-18)
(23.599 1.35091 8.57807e-18)
(23.8825 1.38822 -3.86974e-18)
(23.9866 1.41727 2.81523e-17)
(24.0143 1.44688 1.29181e-17)
(24.0332 1.47414 -3.21852e-19)
(24.0571 1.50787 3.39366e-18)
(24.0845 1.53961 5.14026e-18)
(24.1133 1.57526 0)
(24.1433 1.61151 2.40147e-17)
(24.1744 1.64908 1.37617e-17)
(24.2065 1.6876 -6.47758e-18)
(24.2394 1.7267 -1.00562e-17)
(24.2732 1.7661 3.75686e-17)
(24.3075 1.80554 -3.73567e-17)
(24.3423 1.84471 -4.71693e-17)
(24.3775 1.88331 4.58722e-18)
(24.4128 1.92108 3.22425e-17)
(24.448 1.95783 6.32463e-18)
(24.483 1.99334 -5.65246e-18)
(24.5177 2.02751 1.931e-17)
(24.5518 2.06017 -9.78836e-18)
(24.5852 2.0913 1.19511e-18)
(24.6178 2.1209 4.51832e-18)
(24.6494 2.14899 -1.21294e-17)
(24.6799 2.17564 4.38295e-18)
(24.7094 2.20097 2.40692e-18)
(24.7376 2.22513 1.9862e-19)
(24.7646 2.24826 1.12114e-18)
(24.7903 2.27055 -2.39052e-18)
(24.8148 2.29216 8.33549e-17)
(24.8381 2.3133 9.92256e-17)
(24.8603 2.33412 4.71649e-18)
(24.8814 2.35479 -5.02895e-17)
(24.9015 2.37546 -2.77388e-17)
(24.9207 2.39626 3.19508e-17)
(24.9391 2.4173 9.54885e-19)
(24.9568 2.43868 9.79214e-18)
(24.9739 2.46045 -5.26992e-17)
(24.9907 2.48269 3.35392e-17)
(25.007 2.5054 1.04828e-16)
(25.0232 2.5286 3.09577e-17)
(25.0393 2.55227 9.47767e-17)
(25.0555 2.57639 1.27795e-16)
(25.0717 2.6009 6.75987e-17)
(25.0882 2.62574 7.56061e-17)
(25.105 2.65084 -9.20225e-17)
(25.1222 2.67611 -1.31101e-16)
(25.1399 2.70146 -8.947e-17)
(25.158 2.7268 2.18706e-18)
(25.1767 2.75202 1.52868e-16)
(25.1958 2.77703 1.18432e-17)
(25.2153 2.80172 -2.95585e-17)
(25.2352 2.826 -9.10681e-20)
(25.2552 2.84976 -9.95445e-17)
(25.2753 2.87294 7.76077e-18)
(25.2954 2.89545 -1.08329e-16)
(25.3153 2.91726 -2.44103e-16)
(25.3353 2.93831 -2.69097e-17)
(25.355 2.95858 -2.3146e-16)
(25.3746 2.97804 1.24606e-17)
(25.3936 2.99665 -8.06219e-19)
(25.4119 3.01438 3.06649e-16)
(25.4291 3.03118 3.73135e-17)
(25.445 3.04711 -6.38137e-17)
(25.4597 3.06204 4.72753e-17)
(25.4714 3.07425 -5.8888e-17)
(25.4805 3.08426 6.5763e-17)
(25.4893 3.09444 1.40118e-16)
(25.4979 3.10453 1.39291e-16)
(25.506 3.1146 1.08311e-18)
(25.5136 3.12481 -1.02246e-16)
(25.5186 3.13312 1.2481e-16)
(25.5214 3.14676 0)
(25.5097 3.13976 2.1342e-17)
(25.5093 3.18538 1.46807e-18)
(25.4764 3.0923 -3.46281e-16)
(25.5628 3.33348 5.72631e-18)
(25.5668 2.88112 2.82567e-16)
(22.7086 1.38044 4.46737e-18)
(23.9193 1.42433 9.27265e-18)
(24.4579 1.4746 1.12377e-18)
(24.5985 1.50458 -1.13157e-18)
(24.627 1.53456 -5.61747e-18)
(24.6285 1.56154 4.2801e-18)
(24.6327 1.58941 -1.14709e-19)
(24.6397 1.61696 3.08527e-18)
(24.6472 1.64368 1.84744e-17)
(24.6545 1.67073 0)
(24.6618 1.69697 -9.48678e-18)
(24.6692 1.72327 7.04317e-18)
(24.6767 1.74932 -3.55355e-18)
(24.6845 1.77529 -1.5303e-17)
(24.6926 1.80121 -1.91822e-17)
(24.7011 1.82722 7.91513e-18)
(24.71 1.85326 3.41278e-17)
(24.7195 1.87953 2.55884e-17)
(24.7295 1.90588 -3.76517e-17)
(24.7402 1.93244 5.38614e-18)
(24.7516 1.95913 -6.43385e-17)
(24.7636 1.98596 -2.75916e-17)
(24.7763 2.01285 5.53726e-18)
(24.7896 2.03973 -1.64933e-17)
(24.8035 2.06657 4.84915e-18)
(24.8179 2.09327 1.59283e-17)
(24.8327 2.11975 5.05232e-17)
(24.8479 2.14598 2.81537e-18)
(24.8634 2.17188 2.36613e-19)
(24.879 2.19745 -8.19123e-18)
(24.8947 2.22265 -3.75817e-17)
(24.9105 2.24749 1.42331e-17)
(24.9261 2.27201 -1.88711e-18)
(24.9417 2.29624 5.82905e-17)
(24.957 2.32024 4.0678e-17)
(24.9721 2.34407 -4.7179e-17)
(24.987 2.3678 -2.07768e-17)
(25.0017 2.39151 1.10123e-18)
(25.0162 2.41526 -7.42131e-17)
(25.0305 2.43911 2.97823e-18)
(25.0446 2.46312 -4.71634e-17)
(25.0587 2.48733 -9.71738e-17)
(25.0727 2.51176 -3.15038e-17)
(25.0868 2.53642 -5.5748e-17)
(25.101 2.56131 -2.89892e-18)
(25.1153 2.58642 -5.15285e-18)
(25.13 2.61171 -8.18315e-17)
(25.1449 2.63714 5.87265e-18)
(25.1603 2.66265 2.34314e-18)
(25.1761 2.68819 1.56815e-16)
(25.1924 2.71367 -3.27372e-17)
(25.2091 2.73902 -1.1404e-16)
(25.2264 2.76415 1.71489e-16)
(25.2441 2.78899 2.62219e-17)
(25.2621 2.81343 7.61686e-17)
(25.2803 2.8374 1.69504e-16)
(25.2986 2.86082 -2.0987e-18)
(25.317 2.88361 1.04773e-16)
(25.3353 2.90574 4.43266e-18)
(25.3537 2.92715 -4.35628e-19)
(25.372 2.94782 1.82506e-18)
(25.3901 2.96771 -7.74599e-19)
(25.4077 2.98677 -8.38238e-19)
(25.4247 3.00498 -2.89215e-16)
(25.4407 3.02227 -3.07279e-17)
(25.4556 3.03871 -3.26697e-18)
(25.4692 3.05415 -4.77033e-17)
(25.4801 3.06681 -4.94053e-19)
(25.4885 3.07721 -5.9855e-17)
(25.4966 3.08781 -1.71897e-16)
(25.5045 3.09835 -1.37971e-16)
(25.512 3.10888 -8.20268e-17)
(25.5189 3.11963 -6.2313e-17)
(25.5233 3.12835 -1.7703e-18)
(25.5249 3.14275 0)
(25.5135 3.13582 -5.34745e-17)
(25.5098 3.1829 4.29025e-16)
(25.4837 3.08981 3.43118e-16)
(25.5589 3.33258 -5.2818e-18)
(25.5831 2.88503 -9.09986e-19)
(23.7061 1.48735 -5.0787e-19)
(24.4894 1.5243 -6.30977e-18)
(24.8109 1.55108 1.49006e-18)
(24.8517 1.56962 -2.95633e-19)
(24.8509 1.58952 8.22343e-18)
(24.85 1.60883 1.08418e-18)
(24.8538 1.63021 -2.92901e-20)
(24.8588 1.65156 1.72425e-19)
(24.8637 1.67386 -9.30704e-19)
(24.8686 1.69667 0)
(24.8734 1.71978 1.28255e-18)
(24.8783 1.74342 2.12068e-18)
(24.8831 1.76726 -1.12675e-18)
(24.888 1.79134 -9.90125e-19)
(24.893 1.81558 2.27932e-17)
(24.8979 1.83991 9.64503e-18)
(24.903 1.86425 -3.58925e-18)
(24.9081 1.88863 -9.88567e-19)
(24.9134 1.91294 2.29432e-17)
(24.9188 1.93723 2.646e-18)
(24.9244 1.96146 4.09996e-18)
(24.9302 1.98565 2.30735e-17)
(24.9363 2.0098 4.95874e-17)
(24.9427 2.03395 -1.2857e-17)
(24.9494 2.05809 3.26984e-18)
(24.9565 2.08225 -8.75011e-19)
(24.964 2.10645 -4.10512e-17)
(24.9719 2.13069 2.23293e-18)
(24.9802 2.15497 1.96654e-19)
(24.9888 2.1793 2.06938e-18)
(24.9978 2.20367 5.11168e-19)
(25.0072 2.22807 -1.60791e-18)
(25.0168 2.25249 -2.33706e-17)
(25.0268 2.27694 -1.60157e-17)
(25.037 2.30139 -7.12e-17)
(25.0474 2.32587 1.52132e-18)
(25.058 2.35037 1.24669e-16)
(25.0687 2.37491 1.13508e-18)
(25.0796 2.39951 6.63789e-17)
(25.0906 2.42418 -1.83132e-17)
(25.1017 2.44895 6.85101e-17)
(25.113 2.47383 9.27556e-17)
(25.1245 2.49883 -2.46454e-17)
(25.1362 2.52396 6.31176e-18)
(25.1481 2.54921 -4.07965e-17)
(25.1603 2.57459 -5.25439e-18)
(25.1728 2.60006 2.50665e-18)
(25.1857 2.62559 5.95357e-18)
(25.1991 2.65116 2.37017e-18)
(25.2129 2.67671 -2.57492e-18)
(25.2273 2.70219 3.7484e-18)
(25.2421 2.72753 3.43271e-18)
(25.2575 2.75266 -1.63139e-19)
(25.2733 2.77751 -1.62712e-18)
(25.2894 2.802 -1.11239e-16)
(25.3058 2.82606 -1.6291e-16)
(25.3224 2.8496 -8.13891e-17)
(25.339 2.87257 -1.58002e-18)
(25.3557 2.89491 2.17229e-16)
(25.3725 2.91659 -4.42175e-19)
(25.3893 2.93757 2.15712e-16)
(25.406 2.9578 -7.88696e-19)
(25.4223 2.97724 -8.54951e-19)
(25.4379 2.99585 -8.0003e-20)
(25.4527 3.01358 3.38489e-18)
(25.4664 3.03047 -3.35153e-18)
(25.479 3.04639 -2.17353e-19)
(25.489 3.05947 -5.09153e-19)
(25.4967 3.07024 3.01925e-18)
(25.5042 3.08124 2.67957e-18)
(25.5114 3.09222 4.9468e-19)
(25.5183 3.10319 2.4728e-18)
(25.5245 3.11447 -3.15273e-19)
(25.5283 3.12363 -1.88505e-18)
(25.5287 3.1387 0)
(25.5174 3.13205 1.32732e-18)
(25.5109 3.1802 -1.67203e-17)
(25.4905 3.08777 -9.12619e-17)
(25.5576 3.33155 -1.78989e-19)
(25.5967 2.88809 -6.42847e-19)
(24.4633 1.62833 -6.13894e-18)
(24.9198 1.65011 9.68749e-19)
(25.05 1.6647 1.215e-18)
(25.0392 1.67559 -3.23513e-19)
(25.0346 1.68738 7.16886e-18)
(25.0345 1.69965 1.66038e-17)
(25.0365 1.71302 -9.3314e-18)
(25.0383 1.72666 8.84414e-19)
(25.0398 1.74119 -1.4001e-18)
(25.0412 1.75628 0)
(25.0424 1.77208 1.56071e-17)
(25.0436 1.7886 2.18706e-17)
(25.0447 1.80579 -8.65862e-18)
(25.0459 1.8237 -9.36486e-18)
(25.0471 1.8423 2.99933e-19)
(25.0483 1.86153 -1.13182e-18)
(25.0497 1.88141 -4.54404e-19)
(25.0512 1.90186 -9.56953e-19)
(25.0529 1.92284 -3.44911e-17)
(25.0548 1.94431 3.53351e-18)
(25.0568 1.96621 3.13373e-18)
(25.0591 1.98847 -1.27911e-17)
(25.0617 2.01103 -2.30476e-18)
(25.0645 2.03388 4.04617e-18)
(25.0676 2.05691 2.74305e-17)
(25.071 2.08013 7.00312e-18)
(25.0747 2.1035 3.86031e-17)
(25.0788 2.12697 2.30151e-17)
(25.0831 2.15055 2.88212e-17)
(25.0878 2.17422 1.70398e-17)
(25.0928 2.19798 5.6049e-17)
(25.0981 2.22182 -2.5095e-17)
(25.1038 2.24574 -2.72992e-17)
(25.1098 2.26976 3.43185e-17)
(25.1161 2.29387 -9.77455e-18)
(25.1228 2.31807 2.02033e-17)
(25.1297 2.34237 -2.96448e-18)
(25.137 2.36678 -4.06077e-17)
(25.1446 2.39129 1.52468e-17)
(25.1525 2.41591 1.30456e-17)
(25.1607 2.44064 -3.70494e-17)
(25.1691 2.46549 -8.78805e-17)
(25.178 2.49045 5.47827e-17)
(25.1871 2.51551 6.49688e-18)
(25.1966 2.54068 -6.91677e-17)
(25.2065 2.56593 -5.40872e-18)
(25.2168 2.59125 1.98803e-18)
(25.2276 2.61662 4.85906e-17)
(25.2389 2.642 5.59064e-17)
(25.2507 2.66735 4.79954e-17)
(25.263 2.69263 7.24473e-19)
(25.2759 2.71779 2.34012e-16)
(25.2894 2.74276 -1.68369e-19)
(25.3033 2.76748 -2.6157e-17)
(25.3175 2.79187 1.04828e-16)
(25.3321 2.81588 4.304e-17)
(25.3469 2.83942 -1.15615e-16)
(25.3618 2.86244 -1.64731e-18)
(25.3768 2.88489 1.02181e-17)
(25.392 2.90673 2.28569e-17)
(25.4073 2.92791 -4.34425e-18)
(25.4225 2.9484 -1.26057e-17)
(25.4374 2.96814 -2.11216e-16)
(25.4518 2.98708 2.67179e-16)
(25.4653 3.00518 1.42932e-16)
(25.4778 3.02247 -3.56975e-18)
(25.4894 3.03881 -2.3213e-19)
(25.4985 3.05228 -1.00382e-16)
(25.5055 3.06339 3.23705e-18)
(25.5122 3.07478 3.7461e-17)
(25.5188 3.08617 5.33155e-19)
(25.525 3.09758 2.23814e-16)
(25.5305 3.10935 -3.42094e-19)
(25.5337 3.11897 -1.21163e-16)
(25.5329 3.13466 0)
(25.5215 3.12841 -1.82412e-17)
(25.5126 3.17742 1.2477e-17)
(25.4969 3.08599 8.87896e-17)
(25.5582 3.33047 1.41961e-19)
(25.6092 2.89078 -6.14825e-19)
(25.007 1.75845 -4.24169e-19)
(25.207 1.76846 8.60758e-19)
(25.2205 1.77773 -8.50216e-19)
(25.205 1.78554 -5.86542e-19)
(25.205 1.7946 -3.09289e-19)
(25.2058 1.80408 -1.31028e-17)
(25.2069 1.81404 1.67106e-17)
(25.2072 1.82436 -1.35269e-18)
(25.2072 1.83517 -1.03739e-17)
(25.2068 1.84639 0)
(25.2061 1.8581 -5.98597e-18)
(25.2051 1.87029 -7.02448e-19)
(25.2038 1.88298 -8.10902e-20)
(25.2023 1.8962 -2.21168e-18)
(25.2006 1.90994 -2.07336e-19)
(25.1987 1.92424 -7.84708e-18)
(25.1968 1.93913 -2.03329e-18)
(25.1948 1.95459 -1.42441e-17)
(25.1928 1.97065 2.27928e-19)
(25.1908 1.98732 3.73102e-19)
(25.189 2.00458 3.90027e-17)
(25.1873 2.02243 2.6898e-19)
(25.1858 2.04087 -2.22627e-17)
(25.1845 2.05988 2.71505e-17)
(25.1836 2.0794 -1.45123e-18)
(25.1829 2.09944 -1.82341e-17)
(25.1826 2.11995 -8.25784e-19)
(25.1827 2.14089 -4.17797e-19)
(25.1831 2.16222 -1.79956e-17)
(25.184 2.18391 -1.30743e-17)
(25.1853 2.20591 -5.42086e-17)
(25.1869 2.2282 2.17547e-17)
(25.189 2.25074 2.76178e-18)
(25.1915 2.27353 -5.2768e-17)
(25.1945 2.29653 1.06167e-17)
(25.1978 2.31973 -1.69644e-17)
(25.2015 2.34312 -2.94549e-18)
(25.2057 2.36668 4.23841e-17)
(25.2102 2.39043 -1.3258e-17)
(25.2152 2.41434 -1.24956e-17)
(25.2206 2.43841 -1.05462e-17)
(25.2264 2.46264 8.32426e-17)
(25.2326 2.48701 -2.02357e-19)
(25.2393 2.51152 3.48153e-17)
(25.2464 2.53615 3.31261e-18)
(25.2539 2.56088 -5.52717e-18)
(25.262 2.58571 -4.52838e-17)
(25.2706 2.61059 -3.58412e-17)
(25.2798 2.63551 -5.05491e-17)
(25.2895 2.66042 -1.81984e-16)
(25.2998 2.68529 6.65659e-17)
(25.3108 2.71006 -8.07694e-17)
(25.3223 2.73469 -1.42389e-16)
(25.3343 2.75911 -6.61068e-19)
(25.3467 2.78326 -6.95161e-17)
(25.3594 2.80707 -3.67086e-17)
(25.3724 2.83047 1.1626e-16)
(25.3855 2.85341 -1.72695e-18)
(25.3989 2.87584 -1.47102e-17)
(25.4125 2.89772 -2.36988e-17)
(25.4262 2.91901 -4.59711e-18)
(25.44 2.93965 -5.21299e-19)
(25.4535 2.95959 2.08487e-16)
(25.4665 2.97879 -2.80812e-16)
(25.4787 2.99718 -1.34965e-16)
(25.49 3.0148 -3.83559e-18)
(25.5004 3.0315 4.29927e-17)
(25.5086 3.04531 1.51032e-16)
(25.5148 3.05674 3.4981e-18)
(25.5209 3.06848 2.40723e-18)
(25.5267 3.08026 2.07195e-18)
(25.5323 3.09209 -1.39225e-16)
(25.5371 3.10434 5.7448e-17)
(25.5395 3.11441 1.16546e-16)
(25.5375 3.13064 0)
(25.526 3.12493 5.35316e-17)
(25.5149 3.17454 -3.99551e-16)
(25.5038 3.08458 -1.33498e-18)
(25.3145 1.87087 -3.04648e-19)
(25.3516 1.87392 5.86651e-19)
(25.3336 1.88062 5.40182e-19)
(25.3296 1.88663 -2.29697e-19)
(25.3315 1.89379 -1.99355e-19)
(25.3323 1.9011 9.46373e-19)
(25.3327 1.9088 -1.15944e-18)
(25.3325 1.91685 2.7918e-19)
(25.3319 1.92529 4.51243e-19)
(25.331 1.93411 0)
(25.3298 1.94334 2.06796e-19)
(25.3282 1.95299 -4.74979e-19)
(25.3262 1.96306 -5.55269e-20)
(25.324 1.97358 5.07506e-19)
(25.3215 1.98454 -1.46259e-19)
(25.3187 1.99596 1.00596e-19)
(25.3156 2.00787 -1.48553e-18)
(25.3124 2.02024 1.09238e-18)
(25.309 2.03311 1.73131e-19)
(25.3055 2.04648 3.644e-18)
(25.302 2.06036 -1.58444e-18)
(25.2984 2.07476 1.64866e-17)
(25.2948 2.08969 -1.12764e-17)
(25.2913 2.10516 5.75089e-19)
(25.288 2.12117 -2.50236e-20)
(25.2848 2.13773 5.39267e-19)
(25.2818 2.15482 -7.28509e-19)
(25.2791 2.17246 -3.73736e-19)
(25.2767 2.19062 -9.65439e-19)
(25.2747 2.2093 1.68509e-18)
(25.273 2.22847 4.26099e-19)
(25.2717 2.24812 -1.37295e-18)
(25.2708 2.26822 2.5958e-18)
(25.2704 2.28875 5.50331e-17)
(25.2704 2.30967 4.65378e-19)
(25.2709 2.33097 1.42556e-18)
(25.2718 2.35262 -2.83759e-18)
(25.2732 2.37459 1.10544e-18)
(25.275 2.39687 8.8706e-19)
(25.2774 2.41943 1.98964e-19)
(25.2802 2.44225 1.35377e-18)
(25.2835 2.46531 -1.86016e-18)
(25.2873 2.4886 -2.00487e-19)
(25.2916 2.5121 4.62987e-18)
(25.2964 2.53578 3.30562e-18)
(25.3018 2.55962 -5.53312e-18)
(25.3077 2.58361 5.66215e-18)
(25.3142 2.6077 6.32319e-18)
(25.3213 2.63188 2.52802e-18)
(25.329 2.6561 4.41775e-18)
(25.3374 2.68033 8.48756e-19)
(25.3464 2.70451 -3.73617e-18)
(25.356 2.72861 6.87715e-18)
(25.3661 2.75255 -6.7623e-19)
(25.3766 2.77628 -3.78888e-17)
(25.3875 2.79974 3.94954e-17)
(25.3987 2.82286 6.7378e-19)
(25.4102 2.84558 -1.78779e-18)
(25.4219 2.86787 -2.42406e-18)
(25.4339 2.88967 2.09776e-17)
(25.446 2.91094 -1.82308e-16)
(25.4583 2.93163 1.03863e-17)
(25.4703 2.95168 -1.01211e-18)
(25.4819 2.97104 3.41499e-19)
(25.4928 2.98964 4.07892e-18)
(25.5029 3.00752 -4.07371e-18)
(25.5122 3.02453 -1.38031e-18)
(25.5194 3.03864 -1.9099e-18)
(25.5249 3.05034 3.74055e-18)
(25.5302 3.0624 -3.02754e-17)
(25.5353 3.07454 -8.66624e-19)
(25.5401 3.08676 -2.09683e-16)
(25.5441 3.09946 1.80165e-16)