/*--------------------------------*- C++ -*----------------------------------*\
| =========                 |                                                 |
| \\      /  F ield         | OpenFOAM: The Open Source CFD Toolbox           |
|  \\    /   O peration     | Version:  2506                                  |
|   \\  /    A nd           | Website:  www.openfoam.com                      |
|    \\/     M anipulation  |                                                 |
\*---------------------------------------------------------------------------*/
FoamFile
{
    version     2.0;
    format      ascii;
    arch        "LSB;label=32;scalar=64";
    class       volVectorField;
    location    "119.9718890538999";
    object      ddt0(U);
}
// * * * * * * * * * * * * * * * * * * * * * * * * * * * * * * * * * * * * * //

dimensions      [0 1 -2 0 0 0 0];

internalField   nonuniform List<vector> 
9700
(
(0.000357104 -0.00019701 -2.04525e-23)
(0.000479503 -0.000834407 -2.96298e-24)
(0.00103883 -7.79442e-05 -2.779e-28)
(0.000741101 -0.00138241 3.51162e-23)
(0.00124918 -0.00045206 1.41196e-24)
(0.00107802 6.10169e-06 9.08672e-24)
(0.00117378 -0.00216979 5.99533e-24)
(0.00162874 -0.000712041 4.31573e-37)
(0.00129981 -0.000182599 6.87804e-24)
(0.00111502 0.000100285 0)
(0.00181358 -0.00307967 -4.62032e-23)
(0.00229689 -0.00114898 -3.24867e-24)
(0.00169135 -0.000246257 1.16619e-22)
(0.00135016 0.000133393 3.92443e-23)
(0.000907198 0.00018559 -3.17159e-24)
(0.00256331 -0.00437488 -3.25537e-23)
(0.00323798 -0.00164279 7.51381e-28)
(0.00238856 -0.000437409 4.04044e-23)
(0.0017537 0.000300475 6.49582e-37)
(0.00112812 0.00043156 -9.20662e-24)
(0.000552754 0.000256609 -6.74568e-28)
(0.00392988 -0.00607193 -7.55249e-23)
(0.00482573 -0.00235647 -9.08504e-27)
(0.00338174 -0.000647488 6.05676e-23)
(0.00248272 0.00040756 -1.15672e-22)
(0.00149845 0.000813829 -1.4952e-23)
(0.000741065 0.000694879 5.87471e-24)
(5.42614e-05 0.000306712 -7.66618e-24)
(0.00558264 -0.00834531 -1.01626e-22)
(0.00647782 -0.00334451 -5.59092e-22)
(0.00478858 -0.000949735 1.75521e-23)
(0.00352441 0.000574147 0)
(0.00217599 0.00120684 1.94957e-23)
(0.00104899 0.00126484 -2.30531e-37)
(0.000190245 0.00089723 -1.39316e-23)
(-0.000535938 0.000331977 -7.20665e-23)
(0.00776385 -0.0109566 6.70019e-22)
(0.00903168 -0.0044636 1.80759e-22)
(0.00677307 -0.00137188 -2.09293e-22)
(0.00504115 0.000754371 0)
(0.00314561 0.00172541 2.16107e-23)
(0.00162103 0.00191384 -1.60372e-23)
(0.000406462 0.00160832 -5.43122e-27)
(-0.000466699 0.00101997 -9.64931e-23)
(-0.00116926 0.000330289 2.59873e-25)
(0.0106775 -0.0153537 3.25227e-22)
(0.0125285 -0.00666827 -7.65608e-22)
(0.00951814 -0.00206396 3.12896e-22)
(0.00711972 0.000965361 4.21156e-37)
(0.00455315 0.00237743 -3.46571e-23)
(0.00244038 0.00274874 8.39161e-27)
(0.000817462 0.00245751 7.82076e-24)
(-0.000362251 0.00181244 -1.49601e-23)
(-0.00117501 0.00105043 -1.36226e-23)
(-0.00178817 0.000301458 9.02582e-23)
(0.0145441 -0.0208294 -2.98444e-22)
(0.0171618 -0.00902858 -1.65502e-23)
(0.0132597 -0.00297313 -1.52592e-22)
(0.0100072 0.00119682 -1.20167e-22)
(0.00651358 0.00321836 -3.24133e-22)
(0.00363543 0.00383262 -1.17939e-26)
(0.00140664 0.00354049 6.2832e-24)
(-0.000151585 0.00278663 -1.45115e-22)
(-0.00119336 0.0018557 1.76167e-23)
(-0.0018692 0.000984508 1.04889e-22)
(-0.00233679 0.000247289 0)
(0.0193559 -0.0282142 -7.25461e-23)
(0.0232561 -0.0125234 -8.57801e-23)
(0.0182324 -0.00424293 -1.7027e-21)
(0.0139533 0.00144042 -5.35733e-22)
(0.00924465 0.00430918 -5.54401e-23)
(0.00531274 0.00525612 -4.41012e-22)
(0.00227077 0.00496924 -4.81701e-23)
(0.000150185 0.00402457 -1.71191e-22)
(-0.00120525 0.00286595 8.5607e-23)
(-0.0020101 0.00173139 -9.5956e-27)
(-0.00248555 0.000827144 -7.26464e-38)
(-0.00276473 0.00017176 9.91056e-24)
(0.025498 -0.0380765 -6.52606e-21)
(0.0312984 -0.0175497 -4.7709e-22)
(0.0249505 -0.00623665 2.7193e-22)
(0.0193421 0.00162411 2.78631e-22)
(0.0130312 0.00571856 5.8982e-22)
(0.00766406 0.00715586 6.29019e-23)
(0.00349253 0.00686562 -3.24303e-22)
(0.000596639 0.00567458 -2.34047e-22)
(-0.00122391 0.00414747 -6.75158e-28)
(-0.00224516 0.00268369 1.6316e-22)
(-0.00273734 0.00144851 2.05569e-37)
(-0.00296695 0.000591995 1.15897e-23)
(-0.00303191 8.08787e-05 1.35599e-28)
(0.0329545 -0.0510634 1.74096e-22)
(0.0415824 -0.024549 -8.31356e-35)
(0.0339333 -0.00926879 1.24534e-22)
(0.0267342 0.0016471 1.40248e-21)
(0.0182797 0.00750003 3.96384e-22)
(0.0109626 0.00968447 1.00259e-21)
(0.0052195 0.00943293 -3.14912e-22)
(0.00123458 0.00788122 -3.58507e-22)
(-0.00124622 0.00586771 9.53812e-28)
(-0.00258584 0.00389013 2.12599e-22)
(-0.00317434 0.0022533 -9.95856e-38)
(-0.00330743 0.00103135 8.12765e-27)
(-0.00326846 0.000299861 -1.34368e-24)
(-0.00311218 -1.77744e-05 -6.79443e-24)
(0.0417983 -0.0677339 1.52716e-22)
(0.0539745 -0.0340789 9.85624e-22)
(0.0454419 -0.013628 6.47288e-21)
(0.0366289 0.00129261 1.78095e-21)
(0.0255633 0.00970805 -8.17021e-24)
(0.0156161 0.0130315 -1.36215e-22)
(0.00768035 0.0129054 1.1415e-22)
(0.00214776 0.0108959 2.58562e-23)
(-0.00126943 0.00818056 -1.43995e-22)
(-0.00308072 0.00551765 2.76125e-22)
(-0.00380654 0.0032713 0)
(-0.00390558 0.00161282 1.14137e-23)
(-0.00366714 0.000516796 -4.50226e-37)
(-0.00336128 -2.33075e-05 -5.26782e-24)
(-0.00299583 -0.000115948 -8.1708e-24)
(0.0520307 -0.0893492 -8.70225e-21)
(0.0689688 -0.0473936 5.14927e-22)
(0.0599906 -0.0198618 9.6893e-22)
(0.04939 0.000663222 -1.57452e-34)
(0.0352598 0.012413 -3.80282e-22)
(0.0221097 0.0174457 -2.01215e-22)
(0.0112255 0.0176103 5.38344e-22)
(0.00348735 0.0150184 -1.36917e-21)
(-0.0012882 0.0113582 5.26599e-22)
(-0.00377334 0.00771286 3.25156e-22)
(-0.00472878 0.00464969 0)
(-0.00476961 0.00234685 1.41185e-23)
(-0.00437074 0.00082035 4.65446e-24)
(-0.00378266 -4.92767e-05 -5.51252e-23)
(-0.00323533 -0.000349339 -2.47199e-23)
(-0.00268984 -0.000205727 -1.72134e-29)
(0.0623625 -0.117795 -2.75133e-21)
(0.086947 -0.0669114 2.81946e-22)
(0.0791535 -0.0301797 5.01813e-21)
(0.0667525 -0.00102161 -3.45225e-21)
(0.0480692 0.0161935 -1.98279e-21)
(0.0305576 0.0233993 -1.79167e-21)
(0.0161163 0.0240006 -3.94687e-23)
(0.00548359 0.0206916 -9.95451e-22)
(-0.00125639 0.0157363 7.69258e-22)
(-0.00474137 0.0107362 1.23103e-23)
(-0.00602647 0.00651093 -1.8007e-36)
(-0.00602979 0.00334458 3.27832e-23)
(-0.00538474 0.00120291 -2.87272e-27)
(-0.00452747 -5.18214e-05 -1.5044e-23)
(-0.00364281 -0.000617298 -7.03492e-24)
(-0.00289934 -0.000650955 6.39865e-24)
(-0.00221681 -0.000280176 8.24157e-24)
(0.0710505 -0.15261 -1.59858e-20)
(0.106032 -0.0944174 -4.35224e-21)
(0.103804 -0.0481088 -2.34461e-21)
(0.0917894 -0.00693747 0)
(0.0675845 0.0198305 3.9568e-22)
(0.0423608 0.0318663 3.8629e-35)
(0.0221558 0.0329775 -4.04855e-22)
(0.00806003 0.0285522 -1.18493e-22)
(-0.00111909 0.0218244 -1.05472e-21)
(-0.0060583 0.0149181 3.14008e-22)
(-0.00785256 0.0090718 -4.42485e-23)
(-0.00780268 0.00469072 1.27386e-22)
(-0.00686028 0.00172807 4.64746e-27)
(-0.00559706 -5.34978e-05 -1.77362e-23)
(-0.00436313 -0.000925937 2.8792e-23)
(-0.00325895 -0.00113967 3.43308e-23)
(-0.00237948 -0.00090387 6.80521e-24)
(-0.00161237 -0.000333961 -9.95448e-24)
(0.0769723 -0.19384 4.15912e-20)
(0.119423 -0.12643 1.07831e-20)
(0.128326 -0.0754911 -6.71131e-21)
(0.124816 -0.0212374 3.64425e-34)
(0.0986609 0.0196225 9.47695e-21)
(0.0632809 0.0412489 3.99892e-21)
(0.0317276 0.0457028 -1.43725e-21)
(0.0107506 0.0398019 -2.19198e-21)
(-0.00131934 0.0303763 7.83278e-22)
(-0.00786773 0.0207654 1.12044e-21)
(-0.0103961 0.0126139 7.61197e-23)
(-0.0102977 0.00653258 5.04252e-22)
(-0.00893022 0.00243493 1.98059e-22)
(-0.00714754 -4.37783e-05 5.53618e-24)
(-0.00539237 -0.0013079 -4.17959e-24)
(-0.00389433 -0.00172781 -3.16692e-24)
(-0.00266298 -0.00157451 -2.57849e-23)
(-0.00171622 -0.00108904 -5.30398e-24)
(-0.00092102 -0.000363706 3.77123e-29)
(0.0599455 -0.250964 -3.12585e-21)
(0.124933 -0.157498 8.45412e-21)
(0.142636 -0.107072 1.89729e-20)
(0.155601 -0.0432118 -1.80653e-34)
(0.138074 0.0117539 -3.10976e-22)
(0.09882 0.0483221 2.05056e-21)
(0.0525556 0.060742 3.42256e-22)
(0.0168196 0.0555843 -4.44406e-22)
(-0.00253007 0.0426217 -7.61382e-22)
(-0.0108948 0.0290317 1.69717e-21)
(-0.013977 0.0175663 1.32854e-22)
(-0.0137956 0.00906783 4.00071e-22)
(-0.011834 0.00338563 -3.06824e-23)
(-0.00931153 -3.00374e-05 1.61144e-22)
(-0.00687654 -0.00180517 -2.07512e-24)
(-0.00479593 -0.00245228 4.32114e-28)
(-0.0031637 -0.00239281 -1.28733e-24)
(-0.00190329 -0.00188954 -5.48912e-24)
(-0.000959607 -0.00119408 -3.54804e-24)
(-0.000192967 -0.000367981 1.74392e-23)
(0.0241883 -0.318885 9.20962e-20)
(0.122055 -0.192729 -2.12323e-20)
(0.146223 -0.138151 -4.03803e-20)
(0.17156 -0.067915 -5.6097e-35)
(0.172556 0.000332177 -1.71042e-20)
(0.142262 0.0509955 -7.48177e-25)
(0.0896431 0.0765396 8.14731e-21)
(0.0351868 0.0757251 -4.92576e-21)
(-0.00125409 0.059638 4.18054e-22)
(-0.0159841 0.0406673 2.43782e-21)
(-0.0194372 0.024553 -2.11986e-22)
(-0.0187371 0.012583 -8.16018e-22)
(-0.015904 0.00467363 -5.12341e-22)
(-0.0123292 -3.93293e-05 -1.93229e-22)
(-0.00893274 -0.00246586 8.79704e-25)
(-0.00608721 -0.00340166 -7.41572e-28)
(-0.00386704 -0.00339412 -8.65042e-24)
(-0.00223399 -0.00287183 -1.44344e-23)
(-0.00103882 -0.00206437 1.71976e-36)
(-0.000165534 -0.00121346 5.91557e-23)
(0.000520407 -0.000347278 -1.34216e-24)
(-0.020482 -0.385735 -1.02522e-21)
(0.107823 -0.232662 -4.45192e-22)
(0.144297 -0.169739 2.8966e-20)
(0.174688 -0.092312 0)
(0.189267 -0.0109453 -9.58046e-21)
(0.176107 0.0563154 -1.87871e-20)
(0.131328 0.0934688 -1.15561e-21)
(0.0689909 0.100856 -6.8395e-21)
(0.0111333 0.0833794 2.98569e-21)
(-0.0204181 0.0566784 1.23174e-22)
(-0.0277478 0.0340634 -2.03112e-36)
(-0.025913 0.0174881 1.19325e-22)
(-0.0216356 0.00640053 7.0636e-23)
(-0.0165364 -8.4248e-05 -2.81228e-22)
(-0.0117755 -0.00339858 1.14746e-22)
(-0.00785817 -0.00465436 1.52603e-23)
(-0.00486529 -0.00470378 -5.48925e-24)
(-0.00269024 -0.00406487 6.34999e-24)
(-0.00118013 -0.00313451 7.26463e-24)
(-0.000134585 -0.00209055 1.23554e-23)
(0.000609328 -0.00114856 -7.52536e-24)
(0.00117085 -0.00030383 -2.83584e-22)
(-0.0426897 -0.424808 -3.96344e-21)
(0.0858422 -0.292676 1.28325e-20)
(0.127256 -0.193739 1.88822e-19)
(0.165977 -0.116144 -4.60873e-35)
(0.19219 -0.0226845 2.90121e-20)
(0.192425 0.0634526 3.7312e-20)
(0.161288 0.118954 -1.9485e-20)
(0.10452 0.133999 -1.37075e-21)
(0.0359618 0.117189 -3.59619e-26)
(-0.0175708 0.0809256 5.2789e-21)
(-0.0378761 0.0468476 -1.40733e-35)
(-0.0363067 0.0238196 3.15663e-22)
(-0.0296644 0.00873489 1.06707e-22)
(-0.0224199 -0.000259634 2.11331e-22)
(-0.0156975 -0.00470604 4.57164e-22)
(-0.0102786 -0.00638374 -9.02022e-23)
(-0.00621467 -0.00641785 7.59283e-23)
(-0.00332847 -0.00561856 1.61237e-23)
(-0.00136403 -0.00442397 -3.83237e-28)
(-8.32908e-05 -0.00316913 -5.88114e-23)
(0.000744196 -0.00197151 4.43961e-23)
(0.0013123 -0.00100702 -2.68161e-22)
(0.00171619 -0.00024137 5.44052e-25)
(-0.0397901 -0.437895 -1.0089e-20)
(0.052097 -0.348867 -1.04801e-23)
(0.100241 -0.222062 4.7161e-21)
(0.148698 -0.13685 -1.18045e-34)
(0.182827 -0.036595 2.06477e-20)
(0.19798 0.0683 2.46184e-20)
(0.177248 0.145741 1.28889e-21)
(0.129523 0.177462 -1.74305e-20)
(0.0623715 0.166078 -1.1096e-20)
(-0.00666229 0.119582 9.4514e-21)
(-0.0462643 0.0675898 -2.38798e-35)
(-0.0509315 0.0318063 2.10197e-21)
(-0.0407859 0.011382 9.68218e-22)
(-0.0304363 -0.000626257 -6.9994e-23)
(-0.0211234 -0.00665603 -1.98077e-22)
(-0.013564 -0.00875482 7.21917e-23)
(-0.00803034 -0.00875234 -2.25777e-23)
(-0.00416958 -0.00763451 5.18303e-23)
(-0.00160995 -0.00609417 3.76969e-28)
(7.33068e-06 -0.00445791 -1.30068e-24)
(0.000976405 -0.00298209 1.76775e-23)
(0.00153739 -0.00172125 -2.56991e-23)
(0.00189786 -0.000801629 -1.03158e-22)
(0.00212291 -0.000164957 4.40325e-22)
(-0.0142944 -0.434971 7.45496e-23)
(0.0155953 -0.405553 -6.0348e-22)
(0.0730951 -0.254715 7.91388e-21)
(0.125887 -0.155199 -1.61576e-34)
(0.164317 -0.0510147 -4.29312e-20)
(0.191457 0.0681933 -6.80698e-20)
(0.187631 0.167607 7.54853e-21)
(0.149722 0.220338 -2.65613e-21)
(0.0800524 0.221531 -9.9448e-21)
(0.00882167 0.176956 1.23329e-20)
(-0.0505898 0.103961 0)
(-0.0696917 0.0455693 1.8908e-22)
(-0.0576561 0.0139001 4.54757e-35)
(-0.0409732 -0.00167767 1.35777e-22)
(-0.0283601 -0.00949696 -9.88335e-22)
(-0.0180372 -0.0121572 1.99235e-22)
(-0.010435 -0.0119041 -3.33817e-22)
(-0.00527227 -0.0103479 2.95272e-22)
(-0.00190613 -0.00824244 -6.16998e-24)
(0.000152925 -0.00611721 -1.26011e-23)
(0.0013229 -0.00417858 1.76705e-23)
(0.00192613 -0.0025956 -2.90085e-22)
(0.00219336 -0.00136235 2.98058e-22)
(0.00233032 -0.000549379 3.7798e-22)
(0.00236863 -8.07176e-05 5.5821e-23)
(0.00734376 -0.430498 4.94793e-22)
(0.000847805 -0.434431 1.75279e-20)
(0.0488807 -0.290876 -5.62105e-20)
(0.101077 -0.170157 4.76264e-21)
(0.139181 -0.0639813 -9.539e-21)
(0.17412 0.064283 -4.73931e-21)
(0.186345 0.183671 2.31338e-20)
(0.16317 0.258271 -3.17893e-20)
(0.107564 0.272119 1.44903e-20)
(0.0326759 0.240352 2.34443e-20)
(-0.0471797 0.157354 3.35165e-35)
(-0.0880152 0.0730442 -3.07571e-21)
(-0.0838405 0.0184596 -2.40681e-21)
(-0.0572473 -0.00440325 -8.37331e-22)
(-0.0372997 -0.0138297 -1.23107e-21)
(-0.023894 -0.0169614 -1.38901e-22)
(-0.01363 -0.0163222 -5.39298e-22)
(-0.00666814 -0.0139622 1.74013e-22)
(-0.00225822 -0.0111016 -2.52588e-24)
(0.000392771 -0.008233 -4.91874e-23)
(0.00183033 -0.00570889 -2.17816e-23)
(0.00249254 -0.0036196 -1.33575e-22)
(0.00270411 -0.00204468 2.57896e-22)
(0.00267183 -0.000924427 2.39965e-22)
(0.00258629 -0.000270027 -1.42374e-23)
(0.00244365 4.57983e-06 -1.36573e-28)
(0.00781059 -0.42048 -8.49743e-21)
(-0.00514892 -0.447906 1.29478e-20)
(0.0264758 -0.320148 -2.34808e-22)
(0.0749356 -0.187849 -2.934e-25)
(0.110615 -0.0728564 -6.98414e-21)
(0.147252 0.0569653 1.02625e-20)
(0.174008 0.194009 -4.76818e-21)
(0.166955 0.29086 -3.87769e-20)
(0.124924 0.323124 2.66343e-20)
(0.0410418 0.296511 1.85555e-21)
(-0.0266753 0.219456 -8.46172e-35)
(-0.0967562 0.115687 -1.10565e-21)
(-0.114914 0.0321751 -1.70544e-21)
(-0.086095 -0.0094327 -5.04999e-22)
(-0.050452 -0.0207687 6.38145e-23)
(-0.0306679 -0.0238436 6.56313e-23)
(-0.0177103 -0.0224217 -1.45161e-22)
(-0.00844093 -0.0189277 1.27856e-23)
(-0.00262046 -0.0148653 2.04018e-36)
(0.000768035 -0.0110186 -3.14662e-22)
(0.00255942 -0.00764309 -1.89273e-22)
(0.00330864 -0.00491896 -3.7803e-23)
(0.0034408 -0.00283163 -6.7556e-27)
(0.00326274 -0.00137457 5.62416e-22)
(0.00294664 -0.000441743 -7.69702e-22)
(0.00265595 1.54856e-05 1.26551e-22)
(0.00235105 8.39801e-05 -7.45529e-23)
(0.00675668 -0.412747 -3.35539e-22)
(-0.00823264 -0.449542 -1.99285e-20)
(0.0121418 -0.340533 -4.40551e-20)
(0.0495259 -0.204292 1.66058e-20)
(0.0824644 -0.0787375 4.82242e-20)
(0.115375 0.0503289 -5.33508e-22)
(0.151044 0.197792 -1.05687e-20)
(0.160673 0.316431 -4.11007e-20)
(0.132332 0.372666 2.34101e-20)
(0.0705013 0.35449 6.95002e-20)
(0.0177614 0.290294 -1.10084e-38)
(-0.090975 0.170503 2.79933e-21)
(-0.13736 0.0611066 6.26342e-25)
(-0.126867 -0.0124613 -6.55284e-21)
(-0.0762655 -0.0333325 3.12965e-21)
(-0.0393844 -0.0335882 -1.0903e-21)
(-0.0221228 -0.0309525 -4.85262e-23)
(-0.0105664 -0.0256377 -3.09757e-22)
(-0.00298011 -0.0199402 -1.44331e-23)
(0.0013828 -0.014649 -1.26348e-22)
(0.00359076 -0.0101629 4.24749e-22)
(0.00445091 -0.00654523 5.49062e-22)
(0.00449424 -0.00381884 8.6958e-27)
(0.00411018 -0.00187895 3.5953e-22)
(0.00357148 -0.000637302 2.26698e-22)
(0.00300719 4.94529e-05 3.49141e-35)
(0.00254291 0.000286021 -1.45033e-22)
(0.00210659 0.00015127 0)
(0.00246886 -0.409198 -1.84741e-21)
(-0.00478121 -0.44642 -4.6783e-20)
(0.00117637 -0.353581 5.26361e-20)
(0.0311188 -0.218377 -4.82118e-20)
(0.0558467 -0.0803985 -9.66909e-20)
(0.0831283 0.0445669 -2.62869e-21)
(0.121095 0.19655 -2.75776e-22)
(0.144375 0.335031 -3.20472e-20)
(0.132763 0.413296 -5.2178e-20)
(0.0836542 0.417308 9.03804e-20)
(0.0110831 0.357627 0)
(-0.0741186 0.245764 2.964e-20)
(-0.144052 0.106679 1.81661e-20)
(-0.164297 -0.00391721 1.38545e-21)
(-0.119834 -0.0518498 2.11755e-22)
(-0.0576054 -0.0501013 -5.31188e-22)
(-0.0264616 -0.0422112 1.32233e-21)
(-0.0126192 -0.0348783 -2.46995e-22)
(-0.00318091 -0.0266654 -2.96124e-23)
(0.00232147 -0.0194588 -7.68887e-23)
(0.00506786 -0.0134201 3.36023e-22)
(0.00603135 -0.00864139 1.599e-22)
(0.00595188 -0.00503798 -5.60157e-22)
(0.00531666 -0.002497 3.02363e-22)
(0.00446418 -0.00083473 5.08885e-23)
(0.00361845 0.000112225 -3.15606e-22)
(0.00285852 0.000512654 4.12234e-22)
(0.00226414 0.000521836 1.04455e-22)
(0.001737 0.000201882 -8.65741e-22)
(0.00870788 -0.404646 9.93641e-22)
(-0.00394785 -0.442398 1.09798e-20)
(-0.00792331 -0.360558 7.0127e-20)
(0.0186829 -0.230379 -5.9568e-20)
(0.0359482 -0.0804608 6.82321e-22)
(0.0515603 0.0461506 -1.80277e-20)
(0.0871657 0.190272 -9.76087e-21)
(0.1205 0.343967 -1.41062e-20)
(0.125348 0.446786 -1.97942e-20)
(0.0915595 0.471539 1.64324e-19)
(0.0277625 0.420808 -8.09415e-37)
(-0.0491321 0.317769 -5.74169e-20)
(-0.136713 0.164695 -2.75743e-20)
(-0.182857 0.0218466 1.79031e-20)
(-0.168557 -0.0679597 -5.26922e-21)
(-0.0953184 -0.0782052 4.62741e-21)
(-0.0354752 -0.0594281 -6.08289e-22)
(-0.0134001 -0.0466379 2.88758e-22)
(-0.00297447 -0.0357644 3.9925e-23)
(0.00384986 -0.0257384 -8.08542e-23)
(0.00712985 -0.0176647 5.78914e-22)
(0.008218 -0.0113307 -3.92582e-22)
(0.00794835 -0.00658899 -3.79683e-22)
(0.00697637 -0.00324027 2.88474e-22)
(0.00573164 -0.00105313 4.76982e-23)
(0.00448908 0.000224095 2.10257e-27)
(0.00341043 0.000818634 9.67578e-23)
(0.0025211 0.000913992 -3.81214e-22)
(0.00184847 0.000706092 -9.09244e-22)
(0.00127743 0.000233148 4.02779e-25)
(0.00919823 -0.406125 2.90608e-20)
(-0.00444821 -0.438094 1.67366e-20)
(-0.00801062 -0.362342 -3.04826e-21)
(0.00562074 -0.240665 8.26815e-20)
(0.0212592 -0.0820119 6.39788e-20)
(0.0287432 0.049646 -1.03963e-20)
(0.0525223 0.190156 -5.18935e-22)
(0.0889176 0.346013 2.11834e-20)
(0.108832 0.468426 -3.23089e-21)
(0.0936059 0.516706 6.96727e-20)
(0.0412639 0.482489 1.88707e-33)
(-0.0291393 0.378423 -1.77909e-20)
(-0.107321 0.227602 -1.51442e-20)
(-0.178212 0.0598591 -7.49943e-22)
(-0.202808 -0.0704379 1.58085e-21)
(-0.147725 -0.115119 4.03973e-21)
(-0.0604476 -0.089355 -3.90623e-21)
(-0.0145902 -0.0627637 2.10593e-21)
(-0.0010329 -0.0472159 -1.03233e-35)
(0.0061195 -0.0340344 -3.55661e-22)
(0.0100987 -0.0231609 1.11179e-23)
(0.0111958 -0.014782 8.72126e-23)
(0.0106669 -0.00856141 2.81472e-22)
(0.00923717 -0.0041625 8.36551e-22)
(0.00747047 -0.00128453 -6.47787e-22)
(0.00572306 0.000408132 -2.76285e-27)
(0.00419413 0.00121987 -7.91141e-23)
(0.00297287 0.00143025 -2.8795e-23)
(0.00202903 0.00122497 3.06491e-22)
(0.00133448 0.000825977 -1.67824e-22)
(0.000768903 0.000244025 9.87381e-22)
(0.011453 -0.409847 -5.37958e-21)
(-0.00640143 -0.433403 -7.83889e-21)
(-0.00923807 -0.360606 -2.614e-20)
(-0.00406032 -0.247919 -5.18408e-20)
(0.00672612 -0.0783222 1.20905e-19)
(0.0125602 0.0487334 8.9477e-21)
(0.0279467 0.181224 -3.96915e-20)
(0.0547303 0.347136 -4.68735e-20)
(0.0846689 0.483572 -7.25181e-20)
(0.0851753 0.553319 3.90219e-20)
(0.0506302 0.535446 3.20722e-34)
(-0.0130851 0.440066 9.52325e-20)
(-0.0852273 0.288872 5.37432e-20)
(-0.160226 0.109631 1.01816e-20)
(-0.213489 -0.0548229 -6.3245e-21)
(-0.195737 -0.146993 -1.02385e-21)
(-0.106026 -0.137002 4.92615e-21)
(-0.024482 -0.0886596 5.4424e-22)
(0.00281873 -0.0616942 -1.13694e-22)
(0.0102414 -0.044521 -2.92225e-22)
(0.0141444 -0.0302191 -3.97224e-23)
(0.0152899 -0.0192412 1.33605e-21)
(0.0143302 -0.0110543 -1.21849e-22)
(0.0122924 -0.00531439 -1.13932e-21)
(0.00983195 -0.00153355 5.77385e-23)
(0.0074142 0.000690531 7.5667e-23)
(0.00530336 0.00178063 -8.18195e-23)
(0.00361176 0.00207992 0)
(0.00234788 0.00190318 -9.24857e-22)
(0.00142729 0.00142432 -4.3405e-22)
(0.000767936 0.000873866 1.05259e-21)
(0.00025485 0.000234721 -1.03257e-21)
(0.0132357 -0.416336 4.05657e-21)
(-0.0102111 -0.429485 3.71455e-20)
(-0.0118773 -0.355935 1.63277e-20)
(-0.0116521 -0.248211 6.06591e-21)
(-0.0076614 -0.0709363 -6.90902e-20)
(-0.00274224 0.0481348 -8.87816e-20)
(0.0114587 0.174828 -2.61059e-20)
(0.0294628 0.345616 -5.04797e-21)
(0.052817 0.488606 -3.74349e-20)
(0.073285 0.576627 3.73342e-20)
(0.0503907 0.58532 1.23681e-20)
(0.00115253 0.496823 1.31375e-20)
(-0.0663441 0.345508 4.35349e-21)
(-0.135639 0.163262 -1.87281e-20)
(-0.201437 -0.0233952 -1.26612e-21)
(-0.222921 -0.163083 4.44132e-21)
(-0.159389 -0.192409 7.96074e-21)
(-0.0539062 -0.134848 -8.4683e-21)
(0.00531512 -0.0817035 1.58334e-21)
(0.016836 -0.0571931 -5.63757e-22)
(0.0200947 -0.0392538 -1.22454e-21)
(0.020769 -0.0248017 2.01671e-21)
(0.0192447 -0.0142784 1.25414e-21)
(0.0163903 -0.00673476 -1.43399e-21)
(0.0130158 -0.00180899 2.28413e-22)
(0.00970762 0.00111831 9.69881e-23)
(0.00682276 0.0025435 -7.85759e-22)
(0.00451424 0.00296406 0)
(0.00279553 0.00274216 -9.72774e-22)
(0.00159124 0.00220429 1.43881e-22)
(0.000768748 0.0014997 5.92179e-22)
(0.000197691 0.000848169 -1.10658e-21)
(-0.000222657 0.000206594 1.40109e-25)
(0.0169695 -0.418191 1.15142e-19)
(-0.0175849 -0.42205 1.17952e-21)
(-0.0166085 -0.34949 7.98135e-21)
(-0.0196516 -0.242891 -4.00341e-20)
(-0.0213573 -0.06083 -8.14723e-20)
(-0.0177048 0.047489 2.05019e-23)
(-0.00263742 0.170925 3.63682e-20)
(0.0122934 0.338302 5.85844e-21)
(0.0299777 0.486553 -7.54943e-21)
(0.048464 0.589228 -1.35231e-20)
(0.0370804 0.608813 3.41856e-25)
(0.0140789 0.550248 1.4034e-20)
(-0.048289 0.397659 -1.65144e-20)
(-0.110714 0.210296 -2.77566e-20)
(-0.175731 0.0151466 8.10461e-22)
(-0.224173 -0.159925 -2.07383e-20)
(-0.201499 -0.24292 1.13018e-20)
(-0.099665 -0.199677 2.15659e-21)
(-0.00484672 -0.117627 -1.20989e-25)
(0.0264798 -0.0725839 -5.8624e-22)
(0.0283896 -0.0498746 5.92736e-23)
(0.0281838 -0.0320707 -6.22266e-23)
(0.0257938 -0.0182082 -1.70381e-21)
(0.0218306 -0.00856981 9.61799e-22)
(0.0172782 -0.00208974 -1.47324e-22)
(0.0128027 0.00172499 1.32469e-36)
(0.00888234 0.00360739 9.10531e-23)
(0.00574871 0.00413949 2.77291e-23)
(0.00342465 0.00387178 -1.10973e-21)
(0.00181654 0.00315937 -5.93724e-27)
(0.000768832 0.00231416 1.0335e-21)
(0.000109608 0.00144893 3.67114e-22)
(-0.000329019 0.000753471 -4.52418e-23)
(-0.00062552 0.000162298 1.09236e-21)
(0.02155 -0.419312 -7.15226e-20)
(-0.0222233 -0.411919 -1.02124e-20)
(-0.0312646 -0.332582 -1.14151e-19)
(-0.0316492 -0.230976 4.37974e-20)
(-0.0344423 -0.0500144 2.54931e-21)
(-0.0314143 0.0459199 3.84195e-20)
(-0.0160942 0.167694 6.87986e-21)
(-0.00168721 0.334226 -5.85512e-20)
(0.0145911 0.474262 -2.54007e-20)
(0.034624 0.590112 1.92618e-20)
(0.0418837 0.632456 -5.7226e-22)
(0.0334631 0.582587 -1.67798e-19)
(-0.0274061 0.444907 -2.93787e-22)
(-0.0877208 0.25036 1.48182e-20)
(-0.144019 0.0522211 -8.4651e-21)
(-0.204568 -0.141648 3.33487e-20)
(-0.220853 -0.276122 3.64071e-21)
(-0.147242 -0.275145 -9.55685e-21)
(-0.0318422 -0.175546 2.89162e-34)
(0.0317161 -0.0961587 8.57233e-21)
(0.0407521 -0.0625011 -9.58176e-25)
(0.0380159 -0.0404047 4.04123e-21)
(0.034312 -0.0234282 1.77934e-21)
(0.0290679 -0.0107639 9.13091e-23)
(0.0229353 -0.00243818 1.82699e-21)
(0.0169456 0.00259754 -1.60101e-22)
(0.0116684 0.00504585 8.16098e-22)
(0.00742154 0.00575256 -1.18016e-21)
(0.00428089 0.00536036 -1.51543e-21)
(0.00212704 0.00443713 7.56875e-27)
(0.00075918 0.00330363 1.1582e-21)
(-4.91277e-05 0.00222927 -1.05873e-21)
(-0.000495794 0.0012802 2.01415e-35)
(-0.000769841 0.000600057 1.10981e-21)
(-0.00092306 0.000105823 0)
(0.0201371 -0.411863 -1.07122e-22)
(-0.0367825 -0.404956 1.17687e-21)
(-0.0550687 -0.332388 4.44745e-21)
(-0.0454084 -0.213778 4.47118e-21)
(-0.0473893 -0.0369432 6.99999e-20)
(-0.0442325 0.0461461 -7.84478e-20)
(-0.0287607 0.16491 -1.72463e-20)
(-0.0147615 0.331956 -4.48122e-20)
(0.000649439 0.4668 -1.06861e-19)
(0.0234824 0.574675 8.36399e-20)
(0.0371746 0.632044 3.69797e-20)
(0.0330229 0.609669 -5.71153e-21)
(-0.00165867 0.484726 2.14185e-21)
(-0.0670408 0.280124 -4.59993e-21)
(-0.111277 0.0800383 -7.10667e-22)
(-0.17171 -0.115638 1.77172e-20)
(-0.215847 -0.288959 -1.95911e-20)
(-0.182511 -0.344545 -3.37195e-21)
(-0.0701212 -0.255957 1.2311e-21)
(0.0262661 -0.137668 -1.67259e-21)
(0.0546789 -0.0769888 -5.05677e-21)
(0.0511219 -0.0508702 4.69196e-21)
(0.0455602 -0.0293886 3.01759e-21)
(0.0383886 -0.0137249 4.15277e-23)
(0.0304576 -0.002786 -2.34087e-22)
(0.0224778 0.00376582 -2.0795e-22)
(0.0154034 0.00702278 4.48621e-23)
(0.00968811 0.00791386 2.94338e-23)
(0.0054383 0.0073914 -4.54334e-23)
(0.00254068 0.00611334 -5.88363e-22)
(0.000732163 0.00462033 1.24779e-21)
(-0.000286348 0.00316976 -1.20179e-21)
(-0.000794747 0.00196243 1.06297e-22)
(-0.000998669 0.00101136 -3.84616e-22)
(-0.00109118 0.000402869 7.50582e-24)
(-0.00109463 4.22096e-05 -1.18801e-22)
(-0.00292575 -0.399437 -1.00113e-20)
(-0.0472027 -0.375704 6.29372e-21)
(-0.0685686 -0.309287 2.56232e-21)
(-0.0588853 -0.197845 -8.09464e-20)
(-0.0598148 -0.0303907 1.22007e-19)
(-0.0546846 0.0487459 -6.34959e-21)
(-0.0432192 0.162781 1.97485e-21)
(-0.0268522 0.33174 3.74522e-21)
(-0.0141628 0.459636 4.28064e-20)
(0.0091895 0.570509 4.14072e-21)
(0.029421 0.6252 6.7812e-21)
(0.0332506 0.607199 -2.02531e-20)
(0.0213428 0.523585 3.9754e-20)
(-0.0409932 0.324802 1.39937e-20)
(-0.0799438 0.104436 -2.54807e-20)
(-0.132418 -0.0888139 -7.44812e-21)
(-0.191988 -0.284815 5.77253e-20)
(-0.19645 -0.39758 3.73832e-21)
(-0.109896 -0.346654 -5.07452e-21)
(0.00821934 -0.202792 5.05015e-21)
(0.0651832 -0.102738 1.38399e-21)
(0.068595 -0.0608776 -8.39518e-21)
(0.0593713 -0.0372948 -4.10194e-21)
(0.0506747 -0.0171895 -4.11248e-21)
(0.0402121 -0.00333125 8.53831e-23)
(0.0298474 0.00534964 2.07734e-21)
(0.0204345 0.00965423 1.83543e-21)
(0.0127357 0.0108696 -4.05987e-23)
(0.00700276 0.0101082 -1.75399e-21)
(0.00309102 0.00839294 -9.82704e-22)
(0.000675715 0.00634161 1.34128e-21)
(-0.000640615 0.0044138 -1.2887e-21)
(-0.00123272 0.00277624 -2.59397e-27)
(-0.00140737 0.00154172 1.22278e-21)
(-0.00136041 0.000668329 1.80982e-35)
(-0.00127095 0.00017995 -1.27504e-22)
(-0.00113069 -2.29552e-05 -2.9128e-30)
(-0.0497078 -0.363154 -8.41087e-20)
(-0.0607313 -0.343162 1.07721e-20)
(-0.0700764 -0.283978 1.55687e-21)
(-0.0746496 -0.1815 -4.98208e-24)
(-0.0726749 -0.024887 -2.23737e-20)
(-0.0640572 0.0523076 4.87191e-20)
(-0.0581133 0.164637 6.27696e-20)
(-0.0408945 0.331261 -7.0381e-20)
(-0.0274263 0.455108 1.00208e-19)
(-0.00626675 0.560386 -2.07039e-20)
(0.0147223 0.62727 -3.20988e-20)
(0.0260851 0.624603 5.6243e-22)
(0.0237301 0.530337 -5.75771e-20)
(-0.00807199 0.345308 -1.91749e-21)
(-0.0498732 0.0922218 2.5137e-21)
(-0.0909965 -0.0630618 -4.53637e-21)
(-0.158294 -0.269292 4.46419e-21)
(-0.188578 -0.430942 -9.50725e-20)
(-0.138072 -0.434885 1.15869e-20)
(-0.0208229 -0.289273 1.77517e-21)
(0.0679754 -0.144233 2.37683e-23)
(0.0871464 -0.0766061 1.17236e-20)
(0.0781153 -0.0453836 3.69456e-21)
(0.0656529 -0.0220155 -3.67649e-21)
(0.0530836 -0.00403493 1.7953e-22)
(0.0395494 0.00733735 -1.74056e-35)
(0.0271734 0.0131679 -3.3984e-22)
(0.016874 0.0148109 1.46837e-22)
(0.00911185 0.0138282 -1.42949e-22)
(0.00382007 0.0114442 1.46954e-21)
(0.000577232 0.00867512 -5.45021e-22)
(-0.00115333 0.00603307 -1.3804e-21)
(-0.00187528 0.00384385 2.91542e-27)
(-0.00200211 0.00216384 1.22907e-21)
(-0.00183953 0.00100778 -1.52544e-23)
(-0.00155595 0.000282426 3.90173e-22)
(-0.00129952 -4.92133e-05 -9.94802e-25)
(-0.00103341 -8.41273e-05 1.20573e-22)
(-0.0424936 -0.330424 3.59146e-21)
(-0.073443 -0.305757 -1.45898e-21)
(-0.0836222 -0.253919 6.82198e-20)
(-0.0947955 -0.154038 -2.3065e-21)
(-0.0869038 -0.0174006 -4.52263e-21)
(-0.0753085 0.0581145 1.70279e-20)
(-0.0731667 0.173456 2.2107e-20)
(-0.0569786 0.329556 2.58735e-20)
(-0.0379227 0.452 -5.06548e-21)
(-0.0196729 0.552522 1.94591e-20)
(0.00382206 0.617251 4.25292e-21)
(0.0172519 0.620735 2.87272e-20)
(0.0221995 0.553143 -3.17653e-20)
(0.00827036 0.380989 2.84957e-21)
(-0.0270035 0.0976955 5.14958e-20)
(-0.0572902 -0.0393038 2.54292e-20)
(-0.121466 -0.24559 6.20941e-20)
(-0.165604 -0.446883 1.25407e-20)
(-0.14735 -0.510655 -1.3983e-21)
(-0.04912 -0.390056 -3.07258e-21)
(0.0588802 -0.20615 -5.81833e-35)
(0.1039 -0.0990551 -1.35177e-20)
(0.0997198 -0.0557391 -1.54152e-21)
(0.085382 -0.0281341 6.11527e-21)
(0.0693241 -0.00540746 2.62947e-21)
(0.0525246 0.00978294 -1.56014e-21)
(0.0362262 0.0177283 1.77042e-21)
(0.0224687 0.0201238 -1.48481e-21)
(0.0119889 0.0188118 -2.15325e-21)
(0.00479738 0.0156295 3.16193e-22)
(0.000408028 0.0118001 -5.52268e-22)
(-0.00188426 0.0082185 1.33272e-22)
(-0.00278943 0.00522364 -1.58491e-22)
(-0.0028686 0.00296893 1.29267e-21)
(-0.00253423 0.00139175 0)
(-0.00206123 0.000409593 -1.07494e-22)
(-0.00157501 -0.000112564 -1.04837e-21)
(-0.0011803 -0.000265267 1.22933e-22)
(-0.000816004 -0.000136396 1.21379e-22)
(-0.0339361 -0.30283 2.04529e-21)
(-0.0818938 -0.270323 2.10046e-20)
(-0.100235 -0.219976 -4.71543e-20)
(-0.113042 -0.139454 -2.69708e-25)
(-0.103687 -0.0264203 7.19032e-21)
(-0.0888043 0.0722577 -6.92866e-21)
(-0.088783 0.18582 1.76828e-21)
(-0.0748415 0.327929 7.60524e-20)
(-0.0511402 0.448313 -6.34274e-20)
(-0.0303333 0.545698 1.17724e-20)
(-0.00794062 0.609795 5.35445e-22)
(0.0133679 0.618478 9.07941e-21)
(0.0222313 0.551804 3.14907e-20)
(0.0199282 0.40846 -1.14198e-19)
(-0.0130727 0.118593 -5.51543e-21)
(-0.0364497 -0.0229969 -2.70041e-20)
(-0.0869917 -0.217249 -1.03683e-19)
(-0.132583 -0.454302 -4.69851e-20)
(-0.138155 -0.566724 -1.579e-21)
(-0.0689071 -0.49339 5.35499e-20)
(0.0464371 -0.291505 -1.64646e-20)
(0.117255 -0.135404 -3.43646e-21)
(0.121062 -0.0681929 4.09753e-21)
(0.108481 -0.0351277 -3.56372e-21)
(0.0901936 -0.00819397 2.97405e-22)
(0.0694673 0.0122493 5.85359e-22)
(0.0485712 0.0234537 2.31501e-22)
(0.0301782 0.0271305 1.8072e-35)
(0.0159301 0.0256129 -3.0225e-21)
(0.00611987 0.0212683 1.02448e-21)
(0.000152916 0.0160874 2.55868e-21)
(-0.00293132 0.0111415 -2.94564e-21)
(-0.00407742 0.00707218 -6.23757e-23)
(-0.00409298 0.00399534 1.38467e-21)
(-0.00354135 0.0018739 0)
(-0.00279197 0.00053119 -1.24859e-22)
(-0.00206148 -0.000200201 1.52626e-24)
(-0.0014227 -0.000483206 6.5886e-22)