/*--------------------------------*- C++ -*----------------------------------*\
| =========                 |                                                 |
| \\      /  F ield         | OpenFOAM: The Open Source CFD Toolbox           |
|  \\    /   O peration     | Version:  2506                                  |
|   \\  /    A nd           | Website:  www.openfoam.com                      |
|    \\/     M anipulation  |                                                 |
\*---------------------------------------------------------------------------*/
FoamFile
{
    version     2.0;
    format      ascii;
    arch        "LSB;label=32;scalar=64";
    class       volScalarField;
    location    "119.9718890538999";
    object      mag(vorticity);
}
// * * * * * * * * * * * * * * * * * * * * * * * * * * * * * * * * * * * * * //

dimensions      [0 0 -1 0 0 0 0];

internalField   nonuniform List<scalar> 
9700
(
7.94383e-05
0.000212505
2.95254e-05
0.000129302
0.000280995
4.64772e-05
0.000355128
0.000428513
3.02728e-06
5.27772e-05
0.00127267
0.000642684
2.83008e-05
5.09929e-05
6.9883e-05
0.00178477
0.000942258
3.53612e-05
7.93022e-05
2.03309e-05
6.63082e-05
0.0025047
0.00127732
8.78622e-05
0.000104861
4.84087e-05
2.96027e-05
7.34917e-05
0.0036975
0.00153675
0.000166759
0.000116496
7.50305e-05
5.84228e-05
3.07848e-05
5.4715e-05
0.00951751
0.00137339
0.000276024
0.000172561
6.83064e-05
7.06963e-05
6.08489e-05
2.39304e-05
4.03898e-05
0.0130407
0.00274158
0.000251455
0.000185196
6.85248e-05
8.64028e-05
9.22222e-05
7.26616e-05
4.16179e-05
3.10027e-05
0.0101056
0.00358445
0.000527518
0.000129862
3.09175e-05
9.1391e-05
0.00010569
0.00011007
8.54047e-05
3.88692e-05
1.35409e-05
0.012631
0.00476138
0.000992688
0.000120343
5.84734e-06
5.75937e-05
0.000110921
0.000127973
0.000149914
0.000126237
5.53565e-05
7.19205e-06
0.0170808
0.00634302
0.00141507
9.8987e-05
6.72189e-05
4.02032e-05
9.93992e-05
0.000150459
0.000193448
0.000195128
0.000157978
7.5176e-05
2.47641e-05
0.0235229
0.00794534
0.00210673
5.79658e-05
0.0002013
2.59188e-06
5.88992e-05
0.000149936
0.000201181
0.000243116
0.000225083
0.000199546
7.54366e-05
4.72715e-05
0.0323365
0.00905699
0.00391544
0.000428876
0.000459237
9.92003e-05
3.08718e-05
0.000116529
0.000188523
0.000260267
0.000294842
0.000266496
0.00023399
9.95222e-05
5.08586e-05
0.0431881
0.0107528
0.0070543
0.00216728
0.00158935
0.000617584
8.46635e-05
0.000123924
0.000177132
0.000274857
0.0003581
0.000354806
0.000350106
0.000260163
0.000118235
5.95056e-05
0.0560382
0.0145278
0.00964345
0.00403895
0.00367303
0.00238113
0.001096
8.5249e-05
0.000236877
0.000302216
0.000353962
0.000424306
0.000423076
0.000376068
0.000297742
0.00012747
8.26696e-05
0.0702153
0.0189234
0.0127713
0.00366878
0.00364279
0.00359196
0.00338431
0.00172572
8.5168e-05
0.000358425
0.000371119
0.000432729
0.00046367
0.000481853
0.000406009
0.000345659
0.000174043
9.9879e-05
0.108928
0.0223279
0.0234352
0.00747139
0.00145365
0.000764627
0.0022166
0.00419379
0.00242214
0.000130439
0.000484174
0.000471808
0.000524988
0.000572339
0.000531098
0.000459297
0.00036259
0.000168683
9.25705e-05
0.192401
0.0293225
0.0433307
0.0300714
0.0116292
0.00499077
0.00818714
0.000972
0.00473067
0.00305101
6.54506e-05
0.00061318
0.000596947
0.00063035
0.000627468
0.000556695
0.000472206
0.000341245
0.000170909
9.13783e-05
0.0836011
0.0520217
0.065753
0.0683124
0.0567314
0.0166813
0.0132569
0.0187321
0.00540779
0.00497452
0.00337762
6.93543e-05
0.000696281
0.000664399
0.000694713
0.000663229
0.000586427
0.000492177
0.0003574
0.000200139
8.14829e-05
0.0134549
0.101544
0.0812231
0.107655
0.124852
0.0909629
0.0251962
0.0231574
0.0309779
0.00973694
0.00524978
0.00330851
0.000276722
0.000774366
0.000750839
0.000760658
0.00069519
0.00062482
0.000491562
0.000357788
0.000164922
8.11926e-05
0.0258852
0.196398
0.0833354
0.136916
0.1923
0.1918
0.130654
0.033551
0.0354883
0.0430095
0.0123363
0.00557211
0.0027885
0.000565136
0.000864948
0.000833951
0.000820795
0.000728791
0.000635459
0.000462176
0.000348678
0.000192745
7.8731e-05
0.034701
0.316668
0.0583343
0.148149
0.246091
0.288558
0.260871
0.163798
0.0353398
0.0520814
0.0527088
0.0120901
0.00586453
0.00191541
0.000808878
0.000917324
0.00091672
0.000854445
0.000741268
0.000610006
0.000461812
0.000323354
0.00018022
6.35434e-05
0.104275
0.445666
0.00184901
0.133726
0.276465
0.370264
0.385291
0.314844
0.185253
0.0187726
0.0727903
0.0580356
0.00895073
0.00570852
0.000904148
0.000965209
0.000952276
0.000947461
0.000854877
0.00072636
0.000589407
0.000422654
0.000284006
0.000146154
4.18217e-05
0.153056
0.561728
0.0991716
0.0918345
0.2775
0.425043
0.497419
0.463329
0.339965
0.192228
0.0221663
0.0943556
0.0570089
0.0039943
0.00476261
3.10605e-05
0.0010252
0.000983102
0.00096189
0.000845084
0.000712271
0.000542439
0.00038447
0.000239719
0.000111935
2.03987e-05
0.156967
0.657701
0.213237
0.0179725
0.248917
0.444635
0.581519
0.605324
0.508905
0.3261
0.109479
0.0694594
0.111252
0.0484549
0.000828542
0.00316326
0.000675946
0.00107395
0.00100596
0.000951454
0.000799761
0.000661948
0.000502809
0.000349949
0.000204085
0.000123689
2.20137e-05
0.0952149
0.730055
0.32152
0.0762311
0.189348
0.426675
0.626664
0.718883
0.677615
0.509109
0.30048
0.0329864
0.11644
0.116391
0.0339108
0.00376662
0.00136042
0.000975555
0.00109477
0.00102011
0.000896628
0.000753715
0.000584842
0.000446742
0.000304763
0.000192263
0.000109115
5.65089e-06
0.0552005
0.793368
0.411767
0.171405
0.111001
0.372782
0.625585
0.792945
0.817284
0.702227
0.483253
0.214336
0.0423193
0.156856
0.105365
0.0177917
0.00411782
6.21369e-05
0.0010786
0.00107896
0.000953903
0.000821025
0.000675368
0.000530903
0.000359431
0.000237023
0.000124356
6.48219e-05
8.48746e-06
0.112065
0.856038
0.504877
0.258523
0.0597033
0.301022
0.581026
0.815739
0.918675
0.861929
0.67386
0.412299
0.099227
0.128634
0.177373
0.079679
0.00510109
0.00266646
0.000831219
0.00105898
0.00105165
0.000900973
0.0007552
0.000577128
0.000443538
0.000300194
0.000181323
0.00010592
3.12216e-05
2.3422e-06
0.312046
0.920597
0.572423
0.343946
0.0164937
0.219559
0.511746
0.791948
0.970192
0.985289
0.844461
0.591201
0.27603
0.0306619
0.200887
0.167657
0.0475353
0.0014017
0.000851034
0.00111933
0.00103195
0.000989275
0.000798416
0.000634955
0.000509534
0.000341653
0.000256348
0.00014351
7.0763e-05
4.39535e-05
6.94642e-06
0.437244
0.97892
0.638721
0.421701
0.0870015
0.143825
0.428794
0.728539
0.973447
1.0639
0.98481
0.762904
0.457322
0.117328
0.155666
0.236194
0.130369
0.0198126
0.00249651
0.000360532
0.0010919
0.000955817
0.000869195
0.000703068
0.000530829
0.000387466
0.00026675
0.000184829
0.000120124
3.87864e-05
1.47276e-05
7.53762e-06
0.576056
1.03157
0.697857
0.486886
0.151285
0.0677598
0.348533
0.646089
0.918781
1.09404
1.08345
0.908098
0.622537
0.282801
0.0517072
0.25193
0.224466
0.0803558
0.00329095
0.00115847
0.000825982
0.000949295
0.000863031
0.000757278
0.000574196
0.000451195
0.000290923
0.000204886
0.000147856
7.14089e-05
4.35482e-05
1.40806e-05
6.26727e-06
0.667638
1.06912
0.74234
0.537949
0.207113
0.00646362
0.262238
0.561095
0.835234
1.04817
1.13183
1.01857
0.758438
0.435892
0.0828193
0.207752
0.294654
0.172786
0.0359105
0.00233051
0.000178414
0.000847278
0.000831246
0.000733499
0.000598519
0.000478991
0.000336371
0.000219244
0.00014879
9.52828e-05
6.0182e-05
3.65541e-05
1.15989e-05
6.42548e-06
0.751883
1.09193
0.765469
0.574357
0.254416
0.0781659
0.176136
0.481005
0.744043
0.966934
1.09292
1.07251
0.857104
0.558496
0.218121
0.11989
0.316859
0.272717
0.104679
0.00826894
0.00199085
0.000643249
0.000703241
0.000662969
0.00058001
0.000452325
0.000350214
0.00023573
0.000150526
9.03882e-05
7.32251e-05
3.75523e-05
5.31252e-05
5.22303e-06
3.32163e-06
0.751658
1.07829
0.785302
0.597093
0.292754
0.163168
0.0950654
0.405202
0.663698
0.878964
1.0191
1.05268
0.913108
0.638828
0.33035
0.0142481
0.291577
0.349993
0.200621
0.0470084
0.00261639
0.000442291
0.000547232
0.000511657
0.000493933
0.00040488
0.000326383
0.000231282
0.000150155
0.000101805
8.55609e-05
5.564e-05
5.55084e-05
4.78603e-05
4.10677e-05
1.77795e-05
0.701759
1.01584
0.781337
0.606931
0.326557
0.221652
0.0278381
0.337945
0.583389
0.808306
0.954677
0.994216
0.922687
0.672851
0.403648
0.0839105
0.234183
0.392173
0.302017
0.113832
0.0135869
0.0035763
0.000296027
0.00031221
0.000301198
0.000310971
0.000247188
0.00018779
0.000138159
8.6286e-05
7.21068e-05
5.99313e-05
6.23759e-05
7.9769e-05
8.55568e-05
3.61301e-05
1.574e-05
0.610285
0.916876
0.745703
0.602067
0.343832
0.256731
0.0173168
0.279057
0.511908
0.725348
0.892337
0.957592
0.888033
0.673393
0.404653
0.159427
0.166787
0.39975
0.394326
0.202574
0.0465283
0.00139272
0.00159023
0.000293728
0.000111959
0.000108616
0.000123393
0.000120712
7.64532e-05
8.31583e-05
4.07074e-05
5.78256e-05
6.87819e-05
9.077e-05
8.75888e-05
8.47279e-05
5.37998e-05
2.3484e-05
0.487372
0.786079
0.661929
0.583175
0.387921
0.266728
0.0316202
0.226696
0.452369
0.648508
0.810143
0.89411
0.863564
0.662958
0.349904
0.207029
0.10895
0.385535
0.465832
0.308175
0.102252
0.0117595
0.000742585
0.000271713
4.47388e-05
4.4639e-05
2.5213e-05
3.58331e-05
2.06567e-05
1.82286e-05
2.127e-06
3.3879e-05
5.16534e-05
8.77473e-05
0.000120366
0.000143271
0.000127532
7.40962e-05
3.6548e-05
0.313089
0.628095
0.550645
0.505795
0.392365
0.257468
0.0469941
0.185455
0.400394
0.586114
0.732407
0.819291
0.805355
0.650392
0.328767
0.237937
0.0722754
0.372388
0.51529
0.414562
0.183564
0.035955
0.000809114
0.00126988
0.000498765
0.000301906
0.000122875
0.000134125
0.000148863
0.000100903
4.32669e-05
8.36262e-06
3.73544e-05
9.42894e-05
0.000137736
0.000191183
0.000190948
0.000179628
0.000103247
3.58176e-05
0.226723
0.417438
0.41132
0.418963
0.336085
0.215656
0.0477407
0.157866
0.357827
0.533779
0.674044
0.746669
0.741983
0.614758
0.318143
0.224501
0.0524703
0.3746
0.559137
0.51283
0.281891
0.076832
0.00472646
0.00415437
0.00342904
0.00223921
0.0010816
0.000323957
0.000163726
0.000208684
0.000132401
7.21342e-05
1.92246e-05
9.72388e-05
0.000142702
0.000201655
0.000245962
0.000224683
0.00021123
0.000127897
5.05686e-05
0.0703308
0.253477
0.253153
0.28933
0.246585
0.159899
0.0295825
0.144933
0.32608
0.489696
0.615746
0.682329
0.672838
0.563562
0.304158
0.175175
0.0458653
0.413505
0.592226
0.608745
0.392401
0.140417
0.0166915
0.00836912
0.00964851
0.00844358
0.00547065
0.00255497
0.000871671
0.000225732
0.000183687
0.000166952
4.49237e-05
4.94343e-05
0.000160097
0.000204475
0.000259056
0.00030272
0.000293169
0.000246828
0.000162924
6.41082e-05
0.0607884
0.0694975
0.0884209
0.140556
0.130223
0.0791102
0.0155794
0.150544
0.3106
0.454828
0.564199
0.619438
0.601112
0.49585
0.270434
0.106102
0.0695578
0.443947
0.663696
0.675541
0.510379
0.225056
0.0418881
0.0115609
0.0199332
0.0202465
0.0157921
0.00963136
0.00471714
0.0017925
0.000361776
0.000126224
0.000133887
1.1713e-05
0.00013554
0.000215474
0.000307466
0.000367761
0.00036736
0.000338215
0.000295491
0.000181386
6.1099e-05
0.132255
0.0608975
0.0510571
0.00587908
0.00082537
0.0221253
0.0808519
0.178062
0.304238
0.43357
0.520694
0.553241
0.523005
0.416595
0.210247
0.0442942
0.129815
0.46828
0.700481
0.772828
0.613738
0.324208
0.084354
0.0134788
0.0357473
0.0411018
0.0351438
0.0238173
0.0134559
0.00699182
0.00299716
0.000561112
6.56459e-05
6.23613e-05
5.53669e-05
0.000220474
0.00032108
0.000397346
0.000437635
0.000438663
0.000385419
0.000304651
0.000185222
5.90695e-05
0.131516
0.114066
0.13441
0.115153
0.111676
0.121959
0.158309
0.213603
0.302699
0.398889
0.476779
0.488832
0.437488
0.327647
0.125996
0.0265496
0.213239
0.49642
0.711742
0.845921
0.709673
0.438775
0.141126
0.00799241
0.0590794
0.0763953
0.0751846
0.0531637
0.0303248
0.0151517
0.00860602
0.00430032
0.000789054
3.45885e-06
8.4277e-06
0.000176418
0.000317836
0.000437258
0.000493154
0.00052089
0.000487305
0.000427485
0.000325267
0.000204841
6.09879e-05
0.0857843
0.0980289
0.146913
0.15979
0.174503
0.187509
0.212272
0.252813
0.297144
0.352183
0.39819
0.408645
0.347372
0.232597
0.0553095
0.102395
0.304061
0.532536
0.736126
0.866949
0.847214
0.518626
0.224473
0.00641676
0.0821108
0.125741
0.140187
0.120781
0.0730687
0.0334663
0.0135742
0.00917714
0.00535662
0.000926159
6.56686e-05
0.000104327
0.000304588
0.000427897
0.0005399
0.000602177
0.00060276
0.000551539
0.000471005
0.000345838
0.000227686
5.48753e-05
0.0373693
0.0489484
0.104557
0.138667
0.17219
0.197003
0.221119
0.246873
0.278702
0.311291
0.313963
0.299743
0.247106
0.137296
0.00885515
0.178906
0.368796
0.576636
0.76859
0.897596
0.90017
0.648016
0.29219
0.0410597
0.101139
0.17668
0.221845
0.220947
0.172576
0.0949678
0.031921
0.00895588
0.00898273
0.00589389
0.000843773
0.000128837
0.000226254
0.000427717
0.000588974
0.000656837
0.000699662
0.000673496
0.000594915
0.000488008
0.000362314
0.000220899
4.50011e-05
0.0117579
0.0078419
0.0477615
0.082024
0.121227
0.154194
0.182165
0.204038
0.219446
0.230727
0.243544
0.205963
0.142793
0.0474538
0.0891338
0.251701
0.432062
0.626309
0.809713
0.937023
0.940581
0.763437
0.384903
0.0816651
0.106914
0.225812
0.304269
0.334102
0.302237
0.244341
0.101073
0.0249818
0.00285881
0.00872791
0.00574056
0.000587493
0.000218431
0.000382306
0.000581723
0.000703284
0.00077672
0.000776615
0.000703155
0.000622421
0.000485166
0.000352299
0.000224618
3.6345e-05
0.00649037
0.00771446
0.0106897
0.0296868
0.0592262
0.0889372
0.115769
0.136814
0.148974
0.151686
0.13964
0.121346
0.0625154
0.031318
0.157211
0.316729
0.492013
0.67678
0.854565
0.978052
0.990759
0.83236
0.492433
0.139572
0.101418
0.260837
0.385389
0.448638
0.437002
0.356736
0.251874
0.0945867
0.0118975
0.00253233
0.00880254
0.00492454
0.000225262
0.00031663
0.000537689
0.000726006
0.000821567
0.00084729
0.000836869
0.000733286
0.00060682
0.000477648
0.000344488
0.000209105
3.45088e-05
0.0072541
0.00690909
0.000917243
0.00296601
0.0166826
0.0347078
0.053928
0.0699255
0.0806976
0.0830579
0.0748124
0.0470816
0.00285401
0.0855598
0.210592
0.370766
0.54654
0.722348
0.898021
1.01907
1.03509
0.89594
0.586307
0.211979
0.0708744
0.287139
0.446428
0.560441
0.579842
0.495615
0.370833
0.209207
0.0749292
0.00599421
0.00520976
0.00900433
0.00356965
8.73325e-05
0.00046384
0.000711043
0.000860113
0.000925572
0.000935345
0.000868683
0.000754891
0.000604017
0.000462254
0.00032235
0.000191212
1.2774e-05
0.00682708
0.00343571
0.000307716
0.00264365
0.000178836
0.00639599
0.01575
0.0251544
0.0314775
0.033878
0.030087
0.0102424
0.0333794
0.117058
0.237269
0.404942
0.594954
0.762199
0.923588
1.05728
1.07277
0.949408
0.664303
0.287993
0.0268352
0.279551
0.507553
0.649831
0.713141
0.66824
0.543032
0.371462
0.183464
0.0378642
0.0238214
0.0041142
0.00856607
0.00203407
0.000353129
0.000651511
0.00089041
0.00101057
0.00101187
0.000982978
0.00088653
0.000727454
0.00058247
0.000414469
0.000291379
0.000138711
2.08885e-05
0.0055417
0.00179917
0.00140597
0.000871036
0.00142544
0.00122788
0.000949217
0.00448803
0.00760837
0.00780754
0.00535268
0.00431033
0.0411578
0.115236
0.240385
0.404376
0.615463
0.799606
0.94026
1.06481
1.10028
0.988014
0.725783
0.356742
0.021262
0.250975
0.517998
0.756074
0.834845
0.809196
0.695087
0.52591
0.310568
0.124055
0.00874549
0.0352975
2.9307e-05
0.00692989
0.000740692
0.000548762
0.000826317
0.00102806
0.00109366
0.00105618
0.000988851
0.000854541
0.000691051
0.000537044
0.000379378
0.000253489
0.00013455
1.23076e-05
0.00441084
0.001231
0.00172631
0.000608418
0.00030675
0.000612711
0.00100256
0.000844622
6.33263e-05
6.05036e-05
0.00291332
0.00904169
0.0311811
0.0971965
0.214419
0.38357
0.582448
0.815209
0.942592
1.0563
1.10566
1.00036
0.762232
0.404293
0.0653021
0.217641
0.492806
0.769178
0.977402
0.960012
0.831045
0.651099
0.434856
0.219679
0.0447882
0.0513128
0.0358244
0.00468379
0.00440994
7.47875e-05
0.000740569
0.000985784
0.00112351
0.00113291
0.00107405
0.000977533
0.000820606
0.000666696
0.000485086
0.000349791
0.000205299
0.000115927
2.52517e-06
0.00350987
0.000823046
0.00149115
0.000913939
0.00107723
0.000734059
0.000213894
0.000244119
0.000664031
0.000903812
0.00252727
0.0072773
0.0198042
0.0662963
0.172747
0.332894
0.533709
0.74814
0.954389
1.01102
1.06456
1.0019
0.769747
0.425035
0.0502071
0.181567
0.464841
0.741312
0.965181
1.08018
0.984355
0.773655
0.546303
0.315091
0.112256
0.0347102
0.0768571
0.0261377
0.00709874
0.00185555
0.000508802
0.000950663
0.00112716
0.00121655
0.00115044
0.00106563
0.000919046
0.000768173
0.000578811
0.000412956
0.000286535
0.000159835
8.59174e-05
9.43917e-06
0.0027714
0.000545656
0.00130138
0.000873311
0.00115719
0.00110644
0.00103125
0.000690078
0.000367713
6.16558e-05
0.000854336
0.00394882
0.0109246
0.0365614
0.118992
0.265944
0.455976
0.664325
0.869543
0.989346
1.00546
0.951361
0.756987
0.415969
0.0723656
0.057867
0.436773
0.718225
0.953356
1.05733
1.02921
0.891527
0.644426
0.401811
0.180045
0.00105779
0.0987365
0.0784206
0.0120819
0.00623578
0.000155875
0.000766943
0.00110611
0.00124217
0.00125187
0.00115654
0.00100544
0.000839499
0.00065488
0.00048376
0.000342043
0.000210167
0.00012186
4.23055e-05
9.58252e-06
0.0021259
0.000343629
0.00111043
0.000849365
0.00107376
0.00112756
0.0011373
0.00105541
0.000827156
0.000609635
0.000196915
0.00146082
0.00600948
0.0167212
0.0647631
0.187412
0.361021
0.561063
0.750308
0.913507
0.933668
0.899844
0.718174
0.419292
0.102489
0.00316458
0.418176
0.696701
0.946794
1.09654
1.06604
0.911149
0.721343
0.470636
0.23816
0.0395027
0.0992215
0.133709
0.059074
0.000259636
0.00315279
0.00058458
0.000969689
0.00121498
0.00129103
0.00121401
0.00109348
0.000928618
0.000763935
0.000567871
0.000398456
0.000278115
0.000151446
8.74464e-05
2.49977e-05
1.61797e-05
0.00135562
0.000168685
0.000912603
0.000769829
0.000978716
0.00103971
0.00109839
0.0010809
0.000997833
0.000763292
0.000551089
6.30801e-05
0.00290989
0.00836824
0.0259373
0.104991
0.259203
0.438181
0.627072
0.775808
0.864188
0.813704
0.671695
0.405007
0.164198
0.0160563
0.387341
0.683616
0.938374
1.1148
1.1367
1.00618
0.761152
0.51878
0.27949
0.0705137
0.0932202
0.171216
0.132613
0.0323029
0.0055952
0.000393064
0.000819643
0.00111594
0.00124609
0.00123958
0.00116839
0.000995364
0.000823747
0.000655917
0.000477438
0.000317638
0.000183936
0.000103397
4.41097e-05
2.2274e-05
1.68225e-05
0.00058813
9.02582e-05
0.000764299
0.000647227
0.000871441
0.000949114
0.00101354
0.00105426
0.000998438
0.000867732
0.000612482
0.000360221
0.000742453
0.00459397
0.0102619
0.039632
0.151687
0.31662
0.480245
0.639161
0.732168
0.731702
0.614818
0.364948
0.16086
0.0157412
0.365333
0.674796
0.917278
1.11917
1.18569
1.06643
0.828518
0.543896
0.299927
0.0876621
0.0893294
0.201434
0.199194
0.100788
0.0126805
0.00634119
0.000561544
0.000915917
0.00118516
0.00123554
0.00117628
0.00102432
0.000879321
0.000710341
0.000521339
0.000347083
0.000231623
0.000119958
6.90671e-05
1.904e-05
4.4151e-06
1.54064e-05
3.67843e-05
5.86715e-05
0.000595587
0.000553285
0.000737012
0.000848185
0.000934783
0.000960075
0.000981032
0.000868867
0.000717033
0.000433114
8.36663e-05
0.00180461
0.00563611
0.0111498
0.0578931
0.193365
0.335634
0.486672
0.592357
0.618605
0.543571
0.368552
0.146794
0.0652365
0.358437
0.662068
0.899138
1.09103
1.1783
1.10602
0.869698
0.563498
0.299265
0.0873154
0.093949
0.227807
0.265531
0.178507
0.0554445
0.00297472
0.00350066
0.000746818
0.000977213
0.0011619
0.00113652
0.00105747
0.0009
0.000725713
0.000549148
0.000396358
0.00026767
0.000148409
7.96746e-05
1.63176e-05
1.00579e-05
8.30327e-07
1.585e-05
1.68092e-05
7.61104e-05
0.000416013
0.000451658
0.000637854
0.000727232
0.000836337
0.000899466
0.000890806
0.000878786
0.00073534
0.000548642
0.000249444
0.000321955
0.00294322
0.00499787
0.0111671
0.0773515
0.230671
0.325432
0.459585
0.490481
0.451332
0.321127
0.121514
0.102605
0.365743
0.649315
0.884126
1.06045
1.14664
1.0864
0.890878
0.580342
0.296238
0.0747881
0.109304
0.258039
0.325478
0.269544
0.123794
0.0190151
0.000724541
0.000475985
0.000700937
0.000922411
0.00107417
0.00100468
0.000891265
0.00074231
0.000569761
0.00041069
0.000263671
0.000170108
9.46469e-05
3.9583e-05
2.27616e-05
1.20583e-05
1.64167e-05
2.15239e-05
2.1868e-07
0.000205446
0.000325028
0.000499877
0.000625874
0.000719935
0.000794476
0.00083305
0.000825992
0.000733024
0.000587257
0.000367335
7.94886e-05
0.000957487
0.00370731
0.00179645
0.0100675
0.0916047
0.240019
0.304242
0.360729
0.34388
0.252279
0.0865646
0.125998
0.37436
0.642994
0.866942
1.02864
1.10506
1.05799
0.877839
0.584053
0.270018
0.0687534
0.132901
0.292203
0.390675
0.359442
0.214917
0.0632742
0.0016604
0.000973616
0.000387979
0.000639494
0.000740163
0.000877096
0.000822825
0.000715439
0.000571764
0.000397554
0.000267626
0.000163054
8.62216e-05
4.92125e-05
1.13426e-05
2.00407e-05
2.00395e-05
8.46809e-06
3.69553e-06
6.85638e-05
0.000179032
0.000347724
0.000485055
0.000611432
0.000689929
0.000739685
0.000752389
0.000690657
0.000605294
0.000439861
0.000175915
0.000145265
0.00181516
0.00341695
0.00422395
0.00597173
0.0774248
0.15145
0.224153
0.227079
0.167747
0.038418
0.14677
0.381111
0.639125
0.855586
0.989523
1.05068
1.00124
0.838824
0.567774
0.239131
0.0648274
0.144707
0.343499
0.447521
0.464579
0.319691
0.130455
0.0212192
0.00164621
0.000245849
0.000424632
0.000567103
0.00055585
0.000645622
0.000596736
0.000511574
0.000408367
0.000255272
0.000150507
7.54776e-05
3.68142e-05
2.57779e-06
6.33069e-07
3.42571e-05
5.54015e-05
3.32753e-05
2.03757e-05
8.00143e-05
0.000195086
0.000353668
0.000471308
0.000582877
0.000631419
0.0006607
0.000663535
0.000592618
0.00047226
0.000294401
2.99673e-05
0.000452234
0.00280884
0.00142164
0.0125422
0.00428582
0.0420566
0.0936351
0.11194
0.0751113
0.0214451
0.174419
0.367118
0.615884
0.845032
0.96526
0.981167
0.922487
0.76877
0.53103
0.208888
0.0626388
0.148051
0.368133
0.551459
0.542509
0.449122
0.225215
0.0565465
0.00402017
0.00039895
0.0013571
0.00065232
0.000605382
0.00039327
0.000409789
0.000375692
0.000324937
0.000245282
0.000137236
5.24225e-05
3.6585e-06
5.14292e-06
1.25015e-05
3.71958e-05
4.85698e-05
7.36678e-05
5.89596e-05
3.58933e-05
8.32242e-05
0.000183959
0.000354247
0.000456375
0.000535412
0.000577841
0.000599051
0.00055746
0.000469364
0.000341475
0.000159008
9.95082e-05
0.000924379
0.00366196
0.0020834
0.0220705
0.021887
0.000634141
0.0143158
0.0130107
0.0842833
0.205155
0.366381
0.543517
0.76654
0.922278
0.91435
0.828055
0.676755
0.469239
0.171623
0.0432026
0.128277
0.38261
0.600849
0.710121
0.558203
0.344875
0.120607
0.0158262
0.00141017
0.00111371
0.00111182
0.000639912
0.000683435
0.000370401
0.000194445
0.000181416
0.000114633
9.09721e-05
6.75864e-06
1.11681e-05
1.28164e-05
6.69473e-06
2.17444e-05
6.28467e-05
0.000101211
0.000106386
6.02924e-05
3.18607e-05
7.15537e-05
0.000200141
0.000332434
0.000413211
0.000476301
0.000513702
0.00050324
0.000457434
0.000343366
0.000221906
2.71707e-05
0.000204182
0.00158912
0.00422858
0.00620172
0.0319035
0.0455323
0.0517174
0.0777159
0.136194
0.231115
0.358089
0.507106
0.632466
0.778025
0.798953
0.702747
0.559968
0.380109
0.158753
0.00686601
0.099181
0.390834
0.629335
0.808926
0.779902
0.477531
0.20336
0.0466359
0.00152344
0.00170943
0.00426294
0.00262823
0.000727281
0.000439105
0.000476093
0.000107057
1.23435e-06
5.126e-05
1.72582e-05
4.23784e-05
5.02039e-05
1.93838e-05
2.09514e-05
6.54188e-05
0.000125351
0.000146305
0.000143084
0.000107528
3.02039e-05
7.85191e-05
0.00016234
0.000309681
0.000370689
0.000428957
0.000442283
0.000414679
0.000340925
0.000243111
0.000104603
3.81482e-05
0.000319693
0.0023557
0.00450801
0.00953653
0.0406006
0.070712
0.105049
0.15984
0.23696
0.33807
0.44803
0.558075
0.614702
0.669945
0.593204
0.437511
0.28135
0.127356
0.0465578
0.103827
0.41477
0.65475
0.846499
0.909062
0.637254
0.330338
0.0875757
0.00915596
0.0101178
0.0166438
0.0194196
0.0122173
0.00479958
0.000613356
0.000519573
0.000169878
0.000131045
0.000174829
0.000129248
0.000102624
4.63974e-05
7.96089e-06
5.87755e-05
0.000124705
0.000169197
0.000196447
0.000184431
0.000153296
3.55161e-05
7.0355e-05
0.000187282
0.000289523
0.000345624
0.000359716
0.000359617
0.000322942
0.000252068
0.000165325
3.13504e-05
7.76605e-05
0.000452013
0.00309506
0.0047808
0.0107089
0.0453711
0.0891604
0.142846
0.212085
0.291183
0.37755
0.448142
0.495999
0.490231
0.403021
0.301179
0.185551
0.0666307
0.0668648
0.137382
0.448837
0.692996
0.887567
0.978383
0.853393
0.412628
0.173046
0.0187586
0.0199018
0.0406763
0.0486439
0.0449778
0.0276117
0.0117979
0.00307521
0.00022457
0.000230457
0.000248375
0.000280898
0.000163615
0.000102133
4.03882e-05
5.393e-05
0.000136772
0.000203899
0.00025
0.000251612
0.000241831
0.000158101
4.72665e-05
7.86019e-05
0.000158705
0.000235946
0.000269991
0.000293788
0.0002975
0.000228652
0.00017081
7.77342e-05
4.0339e-05
7.43525e-05
0.000587718
0.0036318
0.00527575
0.00905759
0.0434399
0.0930813
0.15204
0.220389
0.283206
0.337049
0.360196
0.347542
0.299584
0.197844
0.10929
0.0157126
0.103798
0.254137
0.490753
0.733871
0.941055
1.04261
0.985769
0.622979
0.226562
0.0540537
0.0337236
0.0740816
0.099183
0.0962494
0.0755735
0.0444036
0.0198582
0.00669423
0.000593153
0.000241343
0.000289009
0.000308637
0.000188906
6.51881e-05
3.60938e-05
0.00014193
0.00024554
0.000307764
0.000322771
0.000299112
0.000280589
0.000181768
5.08978e-05
5.69287e-05
0.00013009
0.000213645
0.000225637
0.000241223
0.00020163
0.000157945
9.08408e-05
3.34303e-05
4.6831e-05
5.0632e-05
0.000638334
0.00379373
0.00585453
0.00491318
0.0340502
0.0798577
0.130325
0.183922
0.219829
0.236818
0.225779
0.185156
0.13644
0.0590026
0.0239454
0.137919
0.305406
0.524044
0.774486
0.993817
1.12246
1.07228
0.812759
0.346081
0.0852587
0.0369265
0.116185
0.168239
0.181344
0.151263
0.100942
0.0548525
0.0255112
0.0105555
0.00161192
0.000139604
0.000358768
0.000306969
0.000138277
2.22903e-06
0.000118727
0.000229873
0.000338781
0.000370612
0.000405757
0.000360531
0.000292729
0.00021338
5.32752e-05
5.45742e-05
0.000135093
0.000198043
0.000182079
0.000193132
0.000158534
0.000129329
7.41351e-05
1.06346e-06
2.47101e-05
2.1496e-06
0.000576209
0.00353021
0.00618336
8.79868e-06
0.0200073
0.0545218
0.0897446
0.119855
0.132315
0.125483
0.104689
0.0688898
0.029088
0.0491257
0.167837
0.345573
0.571951
0.817935
1.048
1.19246
1.18058
0.954589
0.517225
0.141268
0.0350429
0.150564
0.248989
0.292909
0.272627
0.204145
0.111724
0.052962
0.0263285
0.0135169
0.00241053
1.26078e-05
0.000399219
0.000274213
6.27054e-05
8.92379e-05
0.000232615
0.00036307
0.000450502
0.000490459
0.000459454
0.000418228
0.000347516
0.000219017
5.84134e-05
4.30494e-05
0.000116044
0.000144724
0.000159027
0.000139759
0.000128929
6.9007e-05
4.30605e-05
2.727e-05
1.24386e-06
5.61859e-05
0.000443923
0.00282177
0.00571636
0.00371562
0.00655051
0.02719
0.0488954
0.0573994
0.0577123
0.0461528
0.032026
0.00491168
0.0524625
0.182621
0.378796
0.619631
0.863717
1.0992
1.25767
1.26747
1.07663
0.680941
0.238355
0.00645859
0.183217
0.31906
0.41593
0.422228
0.363737
0.232241
0.104629
0.0385006
0.0230999
0.0148836
0.00253563
0.000210698
0.000380678
0.000169942
4.46535e-05
0.000259099
0.00039926
0.000514317
0.000550175
0.00057137
0.000525738
0.000459135
0.000350874
0.000235759
3.78527e-05
2.6117e-05
8.81794e-05
0.000105325
0.000127923
0.000112521
8.14075e-05
8.16438e-05
4.77319e-05
5.64836e-05
4.88809e-05
0.000135762
0.000200856
0.00184232
0.00438968
0.00480106
0.00166939
0.00675655
0.0189666
0.0173393
0.0154668
0.00901782
0.0021004
0.0469124
0.162921
0.382678
0.662979
0.907257
1.12474
1.31423
1.33585
1.17786
0.818898
0.35987
0.0441657
0.169761
0.396387
0.531705
0.580974
0.516382
0.432439
0.209486
0.0820192
0.0165616
0.0191525
0.0145288
0.00203191
0.000365618
0.00032236
4.1208e-05
0.000211112
0.000391196
0.000536879
0.000625504
0.00065586
0.000626442
0.000559797
0.000472797
0.000326454
0.000205167
2.60689e-05
2.37755e-05
4.40922e-05
8.33843e-05
7.91164e-05
8.3499e-05
7.78843e-05
6.43813e-05
6.79492e-05
0.000123419
0.000132804
0.000246415
5.51843e-05
0.000815285
0.0025912
0.00358533
0.003429
0.00269245
0.00301481
0.000967149
0.000849376
0.00468115
0.0337133
0.133016
0.333188
0.652146
0.958633
1.14323
1.32288
1.38533
1.25054
0.929949
0.482717
0.108697
0.132102
0.401627
0.668802
0.753546
0.706689
0.560992
0.398152
0.192677
0.0446935
0.00518818
0.0174478
0.0124361
0.00133524
0.000444299
0.000157508
0.000123391
0.000361391
0.000547607
0.000686489
0.000741528
0.0007574
0.000678704
0.000591264
0.000472192
0.000343188
0.000184686
2.54059e-05
8.98535e-06
2.31355e-05
5.55643e-05
6.51635e-05
7.82686e-05
7.95849e-05
0.000102351
0.000134729
0.000180427
0.000237792
0.000328027
0.000299107
3.83904e-05
0.000960893
0.00161257
0.00177017
0.00337615
0.00144128
0.00162351
0.00308173
0.0214386
0.0951664
0.274364
0.554316
0.953927
1.1612
1.29897
1.40787
1.28814
1.01078
0.589242
0.18383
0.0912516
0.362428
0.693317
0.945624
0.941666
0.78134
0.582769
0.350958
0.146679
0.00374932
0.019189
0.0181272
0.00902866
0.000809905
0.000379426
2.64663e-05
0.0003296
0.000581497
0.000715965
0.000835469
0.00083717
0.000810268
0.000732211
0.000602032
0.000467029
0.000300884
0.000181434
5.54291e-06
1.6718e-06
1.552e-05
6.36349e-05
5.55818e-05
0.000101272
0.000108402
0.000139953
0.000224458
0.00029279
0.000357018
0.000445396
0.000464466
0.000439361
8.81808e-05
0.000172375
0.000324783
0.00141033
0.000600896
0.00157738
0.0112287
0.0603137
0.200587
0.460444
0.792048
1.20048
1.23302
1.34401
1.31418
1.05613
0.667086
0.258101
0.0488714
0.320457
0.645818
0.966105
1.13114
1.04245
0.805168
0.532891
0.277953
0.0683265
0.0518092
0.0201281
0.0185799
0.00529323
0.000589278
0.000187951
0.000272186
0.000567392
0.000757322
0.000887074
0.000930544
0.000927461
0.000846958
0.000719434
0.000569478
0.000437523
0.000282992
0.000151611
2.31578e-06
1.03856e-05
8.13563e-06
4.70277e-05
7.63617e-05
0.000110457
0.000155347
0.000225802
0.000300743
0.000417168
0.00048046
0.000613108
0.000630836
0.00069884
0.000631952
0.000452946
0.000379517
0.000105384
0.000217734
0.00549734
0.031892
0.13058
0.344065
0.657466
1.0026
1.26888
1.23861
1.25862
1.05707
0.698049
0.274254
0.00946117
0.283348
0.604081
0.920803
1.13304
1.15766
1.0026
0.698339
0.403008
0.16539
0.0218161
0.084611
0.00889617
0.0159446
0.00244414
0.000452717
9.2446e-05
0.000485184
0.00076257