/*--------------------------------*- C++ -*----------------------------------*\
| =========                 |                                                 |
| \\      /  F ield         | OpenFOAM: The Open Source CFD Toolbox           |
|  \\    /   O peration     | Version:  2506                                  |
|   \\  /    A nd           | Website:  www.openfoam.com                      |
|    \\/     M anipulation  |                                                 |
\*---------------------------------------------------------------------------*/
FoamFile
{
    version     2.0;
    format      ascii;
    arch        "LSB;label=32;scalar=64";
    class       volScalarField;
    location    "119.9718890538999";
    object      p;
}
// * * * * * * * * * * * * * * * * * * * * * * * * * * * * * * * * * * * * * //

dimensions      [0 2 -2 0 0 0 0];

internalField   nonuniform List<scalar> 
9700
(
0.00112729
0.00113023
0.00260323
0.0011189
0.0026138
0.00468824
0.00111954
0.00260998
0.00469651
0.00659352
0.00110469
0.00263018
0.00468387
0.00660041
0.0085575
0.00110158
0.00263877
0.00469371
0.00658514
0.00856291
0.0104989
0.00107077
0.0026716
0.00468222
0.00658946
0.00854508
0.0105037
0.0124444
0.0010546
0.00270826
0.00468239
0.00657028
0.00854358
0.0104852
0.0124499
0.0143831
0.00103042
0.0027446
0.00468164
0.00656145
0.00851582
0.0104806
0.0124327
0.0143909
0.0163168
0.00100251
0.00279424
0.00468323
0.00653776
0.00849211
0.0104481
0.0124284
0.0143773
0.0163285
0.0182405
0.000985787
0.00290727
0.00468972
0.00651224
0.00844478
0.0104143
0.0123957
0.0143776
0.0163212
0.0182577
0.0201493
0.000983725
0.00306785
0.00471801
0.00647599
0.00838485
0.0103492
0.0123577
0.0143503
0.0163306
0.0182591
0.0201734
0.0220381
0.00101809
0.00329693
0.00477397
0.00644231
0.00829655
0.0102596
0.0122828
0.0143164
0.0163153
0.0182824
0.0201858
0.0220702
0.0239015
0.00111481
0.00363321
0.00487743
0.00641065
0.00818174
0.0101223
0.012173
0.0142428
0.0162952
0.0182858
0.0202271
0.0220953
0.0239421
0.0257327
0.00133411
0.00410074
0.00506085
0.00638858
0.00802587
0.00992842
0.0119981
0.0141275
0.0162362
0.0182893
0.0202551
0.0221579
0.0239811
0.0257819
0.0275254
0.00172415
0.00475611
0.00535169
0.00638575
0.00782074
0.00964521
0.0117382
0.0139348
0.0161343
0.0182589
0.0202914
0.0222155
0.0240669
0.0258353
0.0275828
0.0292753
0.00237247
0.00564384
0.00581076
0.00640796
0.0075394
0.00924217
0.0113422
0.0136356
0.0159504
0.0181906
0.0203027
0.0222917
0.0241571
0.0259448
0.0276499
0.0293398
0.0309773
0.00335309
0.00673462
0.00645168
0.00646459
0.00715196
0.00864793
0.0107541
0.0131635
0.0156494
0.0180445
0.0202872
0.0223554
0.0242781
0.0260686
0.0277823
0.0294196
0.0310477
0.0326278
0.00513519
0.00790856
0.00721819
0.00642009
0.00656019
0.00778838
0.00985808
0.0124376
0.0151562
0.0177844
0.0202066
0.0224085
0.0244013
0.0262361
0.0279387
0.0295724
0.0311382
0.0327024
0.0342253
0.00800615
0.00940525
0.00796189
0.00613816
0.00544093
0.0063836
0.00853116
0.011309
0.0143729
0.0173328
0.0200283
0.0224165
0.0245335
0.0264214
0.0281512
0.0297583
0.0313082
0.0328014
0.0343025
0.0357685
0.0115814
0.011343
0.00875997
0.00532323
0.00342623
0.00389333
0.00625331
0.00957952
0.0131378
0.0165874
0.0196784
0.0223543
0.0246458
0.0266372
0.028397
0.0300115
0.0315189
0.0329842
0.0344073
0.0358465
0.0372572
0.0145896
0.0133359
0.0094873
0.00410942
0.000106983
-0.000411912
0.0022736
0.00648265
0.0111843
0.0153883
0.0190608
0.0221567
0.0247233
0.0268604
0.0286942
0.030312
0.0318059
0.0332137
0.0345981
0.0359542
0.0373344
0.0386928
0.0152043
0.0149686
0.0101565
0.00245742
-0.00409661
-0.00704023
-0.00455792
0.00108885
0.00764744
0.0134372
0.0180247
0.0217426
0.0247131
0.0270878
0.0290257
0.0306829
0.032152
0.0335262
0.0348398
0.0361483
0.0374424
0.0387678
0.0400778
0.0133972
0.0151361
0.0103904
0.000719255
-0.00902854
-0.0151955
-0.0147091
-0.0085708
0.00110392
0.00985883
0.0162766
0.0209774
0.0245553
0.0272797
0.0293998
0.031112
0.0325842
0.0339064
0.0351683
0.0363954
0.0376351
0.0388736
0.0401494
0.0414142
0.0100094
0.013718
0.00968126
-0.00106711
-0.0138805
-0.02441
-0.0273525
-0.022115
-0.0106176
0.0029659
0.0129777
0.0195993
0.0241396
0.0274004
0.0297889
0.0316182
0.0330937
0.0343841
0.0355696
0.03673
0.0378808
0.0390609
0.0402511
0.0414818
0.0427048
0.006118
0.0106478
0.00783829
-0.0028882
-0.0181093
-0.0332787
-0.0414697
-0.0386529
-0.0277694
-0.00911401
0.00639817
0.0168611
0.0232582
0.0273644
0.0301806
0.0321833
0.0337088
0.0349528
0.0360752
0.0371393
0.0382123
0.0392995
0.0404296
0.0415779
0.042768
0.0439535
0.00281643
0.00645936
0.004468
-0.00489088
-0.0212905
-0.0405945
-0.0548857
-0.0575794
-0.0469944
-0.026435
-0.00507383
0.0112302
0.0213271
0.0270234
0.0305106
0.0328162
0.0344172
0.0356479
0.0366795
0.0376546
0.0386169
0.0396195
0.0406564
0.0417454
0.0428578
0.0440124
0.045163
-0.000414483
0.00251724
0.000329872
-0.00750675
-0.0231278
-0.0453031
-0.0657416
-0.0756143
-0.069632
-0.0495587
-0.0216771
0.000914854
0.0171763
0.0259656
0.0306825
0.0334689
0.035246
0.0364597
0.0374227
0.0382704
0.0391246
0.0400083
0.0409582
0.041957
0.0430132
0.0440957
0.0452179
0.0463356
-0.00392996
-0.00206069
-0.00351005
-0.0098187
-0.0236655
-0.0465986
-0.0723187
-0.0901832
-0.0918286
-0.0749258
-0.0459105
-0.0155018
0.00912767
0.0233813
0.0304161
0.0340864
0.0361586
0.0374304
0.0382948
0.0390289
0.0397292
0.0404929
0.0413221
0.0422359
0.0432077
0.0442389
0.0452952
0.0463874
0.0474738
-0.00758752
-0.00688799
-0.00820406
-0.0115189
-0.0227665
-0.044742
-0.0731883
-0.0989315
-0.109966
-0.100309
-0.0723844
-0.0367104
-0.00436351
0.0179392
0.0292136
0.0344782
0.0371322
0.0385293
0.0393495
0.0399186
0.0404717
0.0410661
0.041771
0.0425684
0.0434614
0.0444164
0.0454275
0.0464597
0.0475235
0.0485793
-0.0113979
-0.0118635
-0.0129258
-0.0138722
-0.0215552
-0.0398309
-0.0688331
-0.0996539
-0.121286
-0.121527
-0.0991543
-0.0619302
-0.0225214
0.00832387
0.0261602
0.0343645
0.038031
0.0397608
0.040557
0.0409997
0.0413385
0.0417643
0.042296
0.0429727
0.0437591
0.0446449
0.0455893
0.0465831
0.0475923
0.048628
0.0496524
-0.0149251
-0.016899
-0.0174501
-0.0161926
-0.0203554
-0.0348506
-0.0597291
-0.0929638
-0.122478
-0.13554
-0.122292
-0.0879814
-0.0447589
-0.00586473
0.0201671
0.0332401
0.0386841
0.0410191
0.0419448
0.0422395
0.0423913
0.0425725
0.0429268
0.0434377
0.0441143
0.0449077
0.0457949
0.0467321
0.0477095
0.0486949
0.0497013
0.0506925
-0.0180517
-0.0212271
-0.0214444
-0.0178716
-0.0187157
-0.0293106
-0.0510384
-0.0794998
-0.114239
-0.13817
-0.138131
-0.111268
-0.0682997
-0.02381
0.0106249
0.0303528
0.0388638
0.0421742
0.0434234
0.0436806
0.043592
0.043546
0.0436464
0.0439843
0.0445127
0.0452137
0.0460259
0.0469191
0.0478497
0.0488092
0.049768
0.0507426
0.0516992
-0.0207501
-0.0245706
-0.0243458
-0.0187517
-0.0164014
-0.0232237
-0.0409496
-0.0671358
-0.0976073
-0.128825
-0.142534
-0.127663
-0.0899586
-0.0435842
-0.00240158
0.0250259
0.0381611
0.0431087
0.0448872
0.0452477
0.0449883
0.044643
0.0444974
0.0445925
0.0449658
0.0455449
0.0462871
0.0471243
0.0480239
0.0489451
0.0498826
0.0508107
0.0517514
0.0526707
-0.0222326
-0.0269486
-0.0257463
-0.0185277
-0.0135421
-0.0167267
-0.0299746
-0.0525284
-0.0825061
-0.110905
-0.13395
-0.133418
-0.105728
-0.0624248
-0.017757
0.0168333
0.0360662
0.0436391
0.046203
0.0468609
0.0465179
0.0459104
0.045436
0.0452892
0.04545
0.045904
0.0465568
0.0473492
0.0482116
0.0491135
0.0500189
0.0509286
0.0518222
0.0527255
0.0536051
-0.0214602
-0.0271595
-0.0256107
-0.0168671
-0.010172
-0.00976495
-0.0183768
-0.0369455
-0.0643306
-0.094484
-0.116696
-0.12839
-0.112814
-0.0770075
-0.0335292
0.0061323
0.0319013
0.0434859
0.0472637
0.0483277
0.0481131
0.0472808
0.0464994
0.0460273
0.0459732
0.0462614
0.0468299
0.0475688
0.0484118
0.0492932
0.0501883
0.0510696
0.0519457
0.0527999
0.0536625
0.0545008
-0.0184442
-0.0239518
-0.0234445
-0.0134924
-0.00595067
-0.00238856
-0.00634404
-0.0209226
-0.0451426
-0.0742477
-0.100693
-0.113673
-0.112385
-0.0855393
-0.0479008
-0.00604835
0.0254457
0.04196
0.0479114
0.0495833
0.0495525
0.048689
0.0476038
0.0468227
0.0464826
0.0466068
0.0470693
0.0477717
0.0485976
0.0494824
0.0503701
0.0512465
0.0520948
0.0529306
0.0537409
0.0545606
0.0553562
-0.0127374
-0.0175035
-0.0185048
-0.00897723
-0.00100239
0.00555801
0.00584768
-0.00493957
-0.0255209
-0.0529733
-0.0803322
-0.0996525
-0.1021
-0.0885361
-0.0589617
-0.0186574
0.0168735
0.0385686
0.0476016
0.0503875
0.0508368
0.049937
0.0486818
0.0475749
0.0469661
0.0468785
0.0472491
0.0479136
0.0487528
0.0496539
0.0505627
0.0514394
0.0522843
0.0530901
0.0538792
0.0546427
0.0554178
0.0561701
-0.00641015
-0.00896352
-0.00977275
-0.00295698
0.00498378
0.0142418
0.0176579
0.0106159
-0.00628442
-0.0310295
-0.0587822
-0.0814774
-0.0917129
-0.0837648
-0.063839
-0.0306909
0.00641321
0.0326024
0.0457836
0.0501306
0.0514613
0.0509064
0.049556
0.0482016
0.0473031
0.0470301
0.0472933
0.0479563
0.0488283
0.0497887
0.05074
0.0516484
0.0524958
0.0532955
0.05405
0.0547882
0.0555031
0.0562326
0.0569417
-0.00130349
0.000169283
6.29761e-05
0.00606695
0.0137642
0.0231325
0.0288405
0.0252266
0.0120535
-0.00977481
-0.0362448
-0.0613234
-0.077208
-0.0780473
-0.0625773
-0.0386179
-0.00551503
0.0234919
0.0412031
0.0485904
0.0506782
0.0510659
0.0499209
0.0484919
0.0473709
0.0469134
0.0471214
0.0478056
0.0487766
0.0498369
0.0508833
0.0518503
0.0527318
0.0535304
0.0542727
0.0549697
0.0556543
0.0563199
0.0570041
0.0576715
0.00256726
0.00636648
0.00958998
0.0158088
0.0242326
0.0335084
0.0391181
0.0386323
0.028923
0.0103085
-0.0144749
-0.0400822
-0.0602285
-0.0684822
-0.0602107
-0.0437691
-0.0148001
0.01069
0.0332134
0.0441256
0.0486566
0.0497704
0.049398
0.0480998
0.0469018
0.0463533
0.046548
0.0473529
0.0484895
0.0497448
0.0509455
0.0520288
0.0529734
0.0538003
0.0545327
0.0552086
0.0558445
0.0564746
0.0570919
0.0577327
0.0583603
0.0053494
0.00984934
0.0172704
0.0247421
0.0336964
0.0431493
0.0505692
0.0503102
0.0440194
0.0284871
0.00608861
-0.019307
-0.0419317
-0.0560652
-0.0556639
-0.0458259
-0.0269496
-0.000111217
0.0199466
0.0365635
0.0436445
0.0468965
0.0474084
0.0466229
0.0455149
0.0450075
0.0453463
0.0463673
0.0478352
0.0493976
0.0508723
0.0521435
0.0532088
0.0540913
0.054839
0.0554925
0.0560968
0.0566705
0.0572473
0.0578194
0.0584192
0.0590096
0.00696086
0.0123235
0.0221209
0.0312673
0.0408654
0.0512646
0.0593311
0.0629934
0.0565721
0.0444974
0.0245253
0.000326872
-0.0236756
-0.0419854
-0.0490522
-0.0459927
-0.034635
-0.0167821
0.00714068
0.0229618
0.0356729
0.0411068
0.043422
0.0434169
0.0426811
0.0423941
0.0430672
0.0445647
0.0465396
0.0486446
0.0505563
0.0521448
0.0534068
0.0543975
0.0551829
0.0558335
0.0564005
0.0569317
0.0574451
0.0579725
0.0585031
0.0590652
0.0596218
0.00736919
0.0125481
0.0244502
0.034713
0.0451402
0.0561203
0.0658502
0.070981
0.0699351
0.0573312
0.0406787
0.018037
-0.0063293
-0.0276169
-0.0407092
-0.0444968
-0.0410023
-0.0273073
-0.0120837
0.0081264
0.0219215
0.0322294
0.0365887
0.0379265
0.037737
0.0378289
0.0391108
0.0413373
0.0443088
0.0471519
0.0498505
0.0519404
0.0535275
0.0546984
0.0555646
0.0562275
0.0567704
0.0572488
0.0577095
0.0581678
0.0586509
0.0591447
0.0596733
0.0602001
0.00673584
0.0116968
0.0242015
0.0351808
0.0463233
0.0576358
0.0683105
0.07629
0.0772673
0.0709182
0.0532124
0.0335444
0.00957715
-0.0138342
-0.0313466
-0.0417993
-0.0452822
-0.0374971
-0.0247109
-0.0120492
0.00598366
0.018453
0.0266663
0.0296316
0.0301771
0.0306085
0.0326771
0.0359711
0.040288
0.0448975
0.0484732
0.0513916
0.053499
0.0549661
0.0559748
0.0566806
0.0572062
0.0576387
0.0580322
0.0584292
0.0588393
0.0592844
0.0597472
0.0602469
0.0607473
0.00557973
0.0104987
0.0223386
0.0333135
0.0447808
0.0562908
0.0673009
0.0767425
0.0821136
0.0783361
0.0667175
0.0451853
0.023515
-0.000823579
-0.0218569
-0.0380351
-0.0477237
-0.0462468
-0.0380427
-0.025429
-0.0139827
0.00240262
0.0127978
0.0183241
0.0198223
0.0203058
0.0227725
0.0273761
0.0335796
0.0404886
0.0461354
0.0502484
0.0532017
0.055153
0.0563975
0.0571935
0.0577188
0.0581038
0.0584311
0.0587488
0.0590914
0.059462
0.0598764
0.0603142
0.0607892
0.0612667
0.00451763
0.00929084
0.0198821
0.0301921
0.041427
0.0527538
0.0638443
0.0736697
0.0814456
0.0828513
0.0747135
0.0581755
0.0338652
0.0107204
-0.0128962
-0.0335172
-0.0485071
-0.0536553
-0.0503018
-0.0407464
-0.0269907
-0.0162909
-0.00332636
0.00411871
0.00655972
0.0071951
0.00907676
0.0144092
0.0220758
0.033149
0.0418725
0.0481841
0.0524342
0.055165
0.0568097
0.0577605
0.0583171
0.0586582
0.0589102
0.0591447
0.0593992
0.059699
0.0600399
0.0604313
0.0608493
0.0613038
0.0617619
0.00377232
0.00827342
0.0174905
0.0268031
0.0373112
0.0480863
0.0588206
0.068941
0.0769074
0.0819654
0.0790775
0.0669906
0.0459498
0.019488
-0.00489189
-0.0287535
-0.0481094
-0.0593706
-0.0615209
-0.0550966
-0.0430279
-0.0284044
-0.0197819
-0.0120754
-0.00844663
-0.00868538
-0.00745451
-0.00247369
0.00616936
0.0208037
0.0344358
0.0443271
0.0508962
0.0548595
0.0571428
0.0583811
0.0590022
0.0593167
0.0594854
0.0596211
0.0597803
0.0599871
0.060257
0.0605782
0.0609535
0.0613565
0.0617946
0.0622357
0.00326519
0.00744959
0.0154314
0.0236997
0.0332102
0.043183
0.053313
0.0630792
0.0717356
0.0774497
0.0787604
0.0719884
0.0555207
0.0301189
0.00191782
-0.0240697
-0.0470605
-0.0632384
-0.0708926
-0.0686535
-0.0581941
-0.0436743
-0.0305114
-0.0258713
-0.0249461
-0.0250804
-0.0265051
-0.0224396
-0.0127321
0.00415177
0.0224974
0.0372007
0.04782
0.0539816
0.0573114
0.0590056
0.0597932
0.0600839
0.0601745
0.0601948
0.0602376
0.0603424
0.0605187
0.0607718
0.0610824
0.0614472
0.0618405
0.0622648
0.0626908
0.00289171
0.0067692
0.0137487
0.0210575
0.029537
0.0385686
0.0479434
0.0571808
0.0656672
0.0724722
0.0756276
0.072968
0.0617246
0.0403446
0.0106468
-0.0188717
-0.0454119
-0.0654953
-0.0776624
-0.0801695
-0.0723708
-0.0584309
-0.043887
-0.0348857
-0.0361192
-0.042531
-0.044834
-0.0448864
-0.0350573
-0.018183
0.00585405
0.0254177
0.0418374
0.0519114
0.0570983
0.0595996
0.0606484
0.0609942
0.0609832
0.060883
0.0607878
0.060766
0.0608391
0.0610023
0.0612506
0.0615586
0.0619191
0.0623049
0.062717
0.0631291
0.00260287
0.00621304
0.0123909
0.0188771
0.0263951
0.0345036
0.0430275
0.0516156
0.0597555
0.066723
0.0713146
0.0714567
0.0644721
0.0479158
0.0215356
-0.0120343
-0.0414392
-0.0662705
-0.0820064
-0.0884088
-0.0844265
-0.0716158
-0.056946
-0.0454262
-0.0435059
-0.0514531
-0.0638223
-0.0653682
-0.0607095
-0.0423281
-0.0178705
0.00847133
0.0316832
0.0474625
0.0560367
0.0599682
0.0615777
0.062002
0.0619562
0.0616921
0.061445
0.0612729
0.0612167
0.0612809
0.0614472
0.0617014
0.0620136
0.0623737
0.0627525
0.0631536
0.063552
0.00237672
0.00576197
0.0112927
0.01709
0.0237764
0.0310193
0.0387267
0.0465778
0.0542363
0.0610933
0.0663163
0.0683409
0.0648697
0.0529089
0.0307424
-0.000170666
-0.036144
-0.0631117
-0.0838408
-0.0942611
-0.0928659
-0.0825629
-0.0678711
-0.055656
-0.0503369
-0.0580517
-0.0706928
-0.0859874
-0.0826702
-0.0702544
-0.0430275
-0.0124866
0.0164736
0.0394307
0.0531429
0.0597817
0.0623874
0.0631604
0.0630357
0.0626692
0.0622158
0.0618726
0.0616639
0.0616033
0.0616802
0.0618637
0.0621326
0.0624532
0.0628132
0.0631861
0.0635761
0.0639599
0.002203
0.00539163
0.0104054
0.015629
0.0216106
0.0280968
0.0350279
0.0421837
0.0492483
0.0558407
0.0612382
0.0644708
0.063541
0.055794
0.0384989
0.011086
-0.0229518
-0.0585244
-0.0807976
-0.0956416
-0.0983479
-0.0899105
-0.076144
-0.0633797
-0.0555453
-0.0626392
-0.0766951
-0.0916008
-0.105007
-0.0924189
-0.0709147
-0.0369587
-0.00222342
0.0271149
0.0472687
0.0582531
0.062858
0.0642426
0.0643217
0.0637461
0.0631406
0.0625711
0.0621843
0.0619782
0.061942
0.0620505
0.0622626
0.0625514
0.0628817
0.0632418
0.0636073
0.0639847
0.0643523
0.00206539
0.0050924
0.0096858
0.0144389
0.019829
0.0256625
0.0319104
0.0383945
0.0449029
0.0510736
0.056474
0.0602576
0.0612207
0.0568673
0.0444461
0.0220937
-0.00924924
-0.0438388
-0.0760194
-0.0909168
-0.0988764
-0.0930352
-0.0808338
-0.0681391
-0.0593769
-0.0663546
-0.078433
-0.0972952
-0.110713
-0.117183
-0.0930018
-0.0628252
-0.0248696
0.0106966
0.0376356
0.0543706
0.0623284
0.0651312
0.0655112
0.0650616
0.0641503
0.0633939
0.0627829
0.0624027
0.0622369
0.0622504
0.0624057
0.0626536
0.0629643
0.0633033
0.0636613
0.0640164
0.0643789
0.0647281
0.00196259
0.00484549
0.00910879
0.0134687
0.0183701
0.0236485
0.0292994
0.0351907
0.0411459
0.0469182
0.0521091
0.0562131
0.0582439
0.0566357
0.0485417
0.0316538
0.00531052
-0.027626
-0.059183
-0.0859966
-0.0924457
-0.0917645
-0.081235
-0.0699076
-0.0630089
-0.0671642
-0.0783735
-0.0966929
-0.116223
-0.123544
-0.11974
-0.0849544
-0.0482486
-0.00931106
0.0240376
0.0471927
0.0599803
0.065195
0.066653
0.066232
0.0653954
0.064278
0.063471
0.0628791
0.0625549
0.0624632
0.062547
0.0627589
0.0630451
0.063376
0.0637203
0.0640721
0.0644128
0.0647575
0.0650856
0.00187881
0.00465304
0.00864059
0.0126861
0.0171764
0.0219905
0.0271282
0.0324951
0.0379593
0.0433131
0.0482844
0.0524349
0.0551668
0.0553311
0.0509776
0.0393833
0.0187515
-0.00948126
-0.0409816
-0.0664323
-0.0860609
-0.0847176
-0.0778691
-0.068361
-0.0648321
-0.0646459
-0.0762853
-0.0938196
-0.114573
-0.129832
-0.126485
-0.1119
-0.0701254
-0.0304334
0.00680945
0.0361614
0.054788
0.0638278
0.0669869
0.0675093
0.0664602
0.0653819
0.0642098
0.0634032
0.0628941
0.0626714
0.0626817
0.0628493
0.0631213
0.0634436
0.0637897
0.0641332
0.0644731
0.0647951
0.0651184
0.0654225
0.00182342
0.00449323
0.00827507
0.0120504
0.0162095
0.0206275
0.025332
0.0302427
0.0352661
0.0402416
0.0449457
0.0490769
0.0521567
0.0534928
0.0517749
0.0448865
0.0301952
0.00732004
-0.0196098
-0.0468611
-0.0650032
-0.0769208
-0.0702514
-0.0631552
-0.0614434
-0.0602387
-0.0710287
-0.0887155
-0.110084
-0.128886
-0.134409
-0.119133
-0.0959127
-0.0520911
-0.0126793
0.0213362
0.0458807
0.0600147
0.0660524
0.0678831
0.0676394
0.0662736
0.065043
0.0639429
0.0632346
0.0628675
0.0627847
0.0629156
0.0631726
0.0635018
0.0638532
0.0642059
0.0645408
0.0648625
0.0651608
0.065459
0.0657365
0.00177449
0.00438241
0.00797942
0.0115506
0.015423
0.0195182
0.0238483
0.0283701
0.0330037
0.037632
0.0420798
0.0461098
0.0493921
0.0514181
0.05143
0.047999
0.0386972
0.0211729
-0.000184188
-0.0236013
-0.0444742
-0.0553331
-0.0609426
-0.0548649
-0.0528138
-0.0530784
-0.062883
-0.0806006
-0.102735
-0.122871
-0.134473
-0.127745
-0.104161
-0.0758912
-0.0343198
0.00289294
0.0329446
0.0526801
0.0630154
0.0669689
0.0679286
0.0671511
0.0657193
0.0644891
0.0635436
0.0630154
0.0628409
0.0629259
0.0631857
0.0635289
0.0639058
0.0642746
0.0646229
0.0649403
0.065237
0.0655069
0.0657766
0.0660249
0.00175564
0.00428634
0.00776863
0.0111487
0.0148016
0.0186131
0.0226353
0.0268152
0.0311126
0.035425
0.0396267
0.0435293
0.046888
0.0493516
0.0504172
0.0492729
0.0443762
0.0325954
0.0165194
-0.00216432
-0.0212025
-0.0347932
-0.0403145
-0.0435642
-0.0418739
-0.0426733
-0.052674
-0.0698966
-0.0919886
-0.114061
-0.128621
-0.129351
-0.113312
-0.0868608
-0.0563478
-0.0188675
0.0152164
0.04105
0.0566784
0.0642141
0.0668836
0.0673009
0.0662689
0.0648668
0.0637756
0.0630765
0.062799
0.0628569
0.0631232
0.0635089
0.0639259
0.0643342
0.0647054
0.065037
0.0653276
0.065593
0.0658302
0.0660683
0.0662854
0.00173422
0.00424533
0.00759724
0.0108575
0.0143032
0.0178948
0.0216417
0.0255377
0.0295331
0.0335689
0.0375334
0.0412953
0.0446585
0.0473799
0.0491069
0.0493861
0.0473083
0.0414146
0.0305178
0.0180292
0.000704803
-0.0128348
-0.0203332
-0.0240802
-0.0265723
-0.0311099
-0.0401509
-0.0572522
-0.0785384
-0.101429
-0.119434
-0.125847
-0.117206
-0.0968601
-0.0723921
-0.0394687
-0.00706102
0.0238909
0.0457424
0.0584765
0.0640121
0.0663049
0.066136
0.065025
0.063792
0.0629732
0.0626111
0.0626419
0.062955
0.063401
0.0638958
0.064365
0.0647838
0.0651404
0.0654426
0.0656979
0.0659263
0.0661275
0.0663317
0.0665162
0.00420044
0.00751354
0.0106264
0.0139385
0.0173184
0.0208497
0.0244866
0.0282284
0.0320074
0.0357587
0.0393644
0.0426926
0.0455468
0.0477019
0.0488261
0.0485421
0.0459844
0.0403404
0.0318044
0.0199271
0.00791032
-0.000345258
-0.00460525
-0.00901571
-0.0129027
-0.0272928
-0.0426267
-0.0636319
-0.0860417
-0.106091
-0.117459
-0.116206
-0.102852
-0.0840539
-0.06013
-0.0270183
0.000566192
0.0291798
0.0476604
0.0589402
0.0633631
0.0649562
0.0644976
0.0634621
0.0625757
0.0621652
0.0622223
0.0625999
0.0631695
0.0637749
0.0643494
0.0648419
0.0652474
0.0655721
0.0658331
0.0660458
0.0662329
0.0663957
0.0665644
0.0667158
0.0074396
0.0105068
0.0136531
0.0168937
0.0202131
0.0236449
0.0271492
0.0307096
0.0342526
0.0377097
0.0409612
0.0438806
0.0462834
0.0479786
0.0486891
0.04816
0.0458457
0.0410873
0.0336131
0.0244115
0.0182755
0.0134157
0.00978648
0.00290247
-0.00532137
-0.0285377
-0.0470371
-0.0693572
-0.0900673
-0.104907
-0.109941
-0.104238
-0.0920059
-0.0738821
-0.0524811
-0.0197881
0.00458326
0.0317661
0.0477608
0.0577991
0.0618076
0.0628978
0.0624041
0.061687
0.0613228
0.0614475
0.0619865
0.0627231
0.0635238
0.0642491
0.0648633
0.0653465
0.0657147
0.0659912
0.0662013
0.066366
0.066509
0.0666325
0.0667648
0.0668831
0.0104096
0.0135001
0.0165638
0.0197412
0.0229666
0.0262808
0.0296294
0.0329913
0.0362895
0.0394552
0.0423716
0.0449269
0.0469615
0.0483331
0.0488612
0.0484747
0.0467992
0.043088
0.0380556
0.0331889
0.0293401
0.0260302
0.0211389
0.0101495
-0.00358864
-0.0316919
-0.050982
-0.0723321
-0.089652
-0.0994575
-0.101111
-0.0952762
-0.085744
-0.0676027
-0.05073
-0.0172083
0.00624255
0.0324168
0.0469489
0.0559541
0.0593683
0.060171
0.0599489
0.0598138
0.0601602
0.0609265
0.0619783
0.0630475
0.064025
0.0648159
0.0654237
0.0658641
0.0661728
0.0663881
0.0665403
0.0666539
0.0667517
0.0668359
0.0669319
0.0670164
0.0133825
0.0163829
0.0193762
0.0224612
0.0255783
0.0287553
0.0319336
0.0350889
0.0381434
0.0410314
0.0436468
0.0459005
0.047669
0.0488767
0.0494725
0.0494948
0.0486035
0.0466154
0.0442029
0.0416996
0.0393033
0.0358369
0.0284051
0.0129748
-0.00502264
-0.0349388
-0.0536302
-0.0722702
-0.0858638
-0.0939399
-0.0940835
-0.0930626
-0.0819183
-0.0682643
-0.0525922
-0.0175241
0.0061453
0.0314873
0.04533
0.0531038
0.055969
0.0568234
0.0572538
0.0579955
0.0592326
0.0607168
0.0622564
0.0635863
0.0646636
0.0654559
0.0660101
0.0663769
0.0666085
0.0667534
0.0668439
0.0669056
0.0669589
0.0670048
0.0670665
0.0671174
0.0162485
0.019173
0.022071
0.0250525
0.0280451
0.0310723
0.034073
0.0370215
0.0398418
0.0424768
0.0448384
0.0468647
0.0484815
0.0496886
0.0505364
0.0511007
0.0512238
0.0509198
0.0501785
0.0490802
0.0468733
0.0419534
0.0316819
0.012806
-0.00802729
-0.0388295
-0.054259
-0.0699575
-0.0829279
-0.0899948
-0.0945056
-0.0929828
-0.0859312
-0.0725434
-0.0550439
-0.0199691
0.00643328
0.0299366
0.042465
0.0489251
0.0515417
0.0529592
0.0545156
0.0564251
0.0587095
0.0609144
0.0628421
0.0643275
0.0654129
0.0661397
0.0665976
0.0668665
0.0670089
0.0670789
0.0671074
0.0671187
0.0671295
0.0671388
0.067167
0.0671862
0.0190255
0.0218512
0.0246464
0.0275109
0.0303687
0.0332396
0.0360617
0.0388093
0.0414133
0.04383
0.0459923
0.0478715
0.0494495
0.0507843
0.0519869
0.0531774
0.0542718
0.0550718
0.0553065
0.0545355
0.0515152
0.0445303
0.0319882
0.0103428
-0.0129426
-0.0401999
-0.0535363
-0.0693939
-0.0832547
-0.0926886
-0.100485
-0.100806
-0.0937758
-0.0777023
-0.0580468
-0.0220399
0.00633782
0.0270527
0.0377403
0.0431239
0.0461107
0.0488158
0.051983
0.0553743
0.0587554
0.0615567
0.0637204
0.0652333
0.0662311
0.0668318
0.0671602
0.0673152
0.0673632
0.0673584
0.0673275
0.0672917
0.0672631
0.0672384
0.0672344
0.0672235
0.0216941
0.0244157
0.0270978
0.0298367
0.0325543
0.0352676
0.0379147
0.0404739
0.0428873
0.0451248
0.0471456
0.0489563
0.0505845
0.0521268
0.0537303
0.0554835
0.0572267
0.0585862
0.0590299
0.0577889
0.0535312
0.044552
0.0304126
0.00846193
-0.0155291
-0.0400655
-0.0559726
-0.07391
-0.0898039
-0.105611
-0.113049
-0.112758
-0.102627
-0.0816213
-0.0587371
-0.0214126
0.004665
0.0217379
0.030588
0.0355719
0.0400166
0.0446941
0.0500615
0.0551458
0.0594498
0.0626306
0.064842
0.0662434
0.0670675
0.0674955
0.0676735
0.0677085
0.0676631
0.067588
0.0675028
0.0674247
0.0673602
0.0673044
0.0672697
0.0672302
0.0242528
0.0268615
0.0294244
0.0320335
0.0346097
0.0371672
0.039648
0.0420375
0.0442885
0.0463881
0.0483233
0.0501282
0.051864
0.0536466
0.0556088
0.0577305
0.0597664
0.0611529
0.0612376
0.0591839
0.0537233
0.0432111
0.0279801
0.00580119
-0.0193838
-0.0448529
-0.0638714
-0.084968
-0.106767
-0.12172
-0.12942
-0.125574
-0.10945
-0.081927
-0.0549828
-0.0222294
-4.83481e-05
0.013075
0.0206768
0.0267991
0.0337535
0.0412332
0.0493526
0.0558708
0.0607865
0.0640665
0.0661204
0.0672836
0.0678695
0.0680971
0.0681177
0.0680354
0.0679037
0.0677659
0.0676335
0.0675187
0.0674221
0.067338
0.0672743
0.0672071
0.0266958
0.0291871
0.0316285
0.0341068
0.0365426
0.0389503
0.0412785
0.0435185
0.045637
0.0476387
0.0495331
0.0513737
0.053241
0.0552391
0.0574419
0.0597115
0.0617111
0.062803
0.0622307
0.0592968
0.0528234
0.0412742
0.0248627
0.00146991
-0.026954
-0.054733
-0.0783539
-0.104415
-0.126599
-0.142324
-0.146506
-0.135514
-0.111011
-0.0773235
-0.0511617
-0.0263947
-0.00908234
0.000490492
0.00855681
0.0173835
0.0278928
0.0397031
0.0501221
0.05757
0.0626591
0.0657358
0.0674457
0.068278
0.0685898
0.0686096
0.0684786
0.0682898
0.0680834
0.0678931
0.0677213
0.0675756
0.0674507
0.0673407
0.0672493
0.0671552
0.0290216
0.0313942
0.033714
0.0360623
0.0383618
0.0406299
0.0428201
0.044932
0.0469472
0.0488831
0.0507668
0.0526615
0.0546465
0.0567864
0.0590836
0.0612917
0.063074
0.0637218
0.0623979
0.0585837
0.0511404
0.0384974
0.0201303
-0.00605778
-0.039256
-0.0706942
-0.100614
-0.129051
-0.151023
-0.163425
-0.159683
-0.138913
-0.105859
-0.0711679
-0.0512892
-0.0357338
-0.0232373
-0.0156584
-0.00490827
0.00657379
0.0245796
0.0405053
0.0522838
0.060086
0.0648824
0.0674707
0.0687069
0.0691604
0.0691921
0.0690148
0.0687487
0.0684701
0.0682035
0.0679721
0.0677692
0.0675981
0.0674482
0.067314
0.0671959
0.0670753
0.0312312
0.0334859
0.0356852
0.0379067
0.0400778
0.0422168
0.0442845
0.0462897
0.0482248
0.0501173
0.0520047
0.0539464
0.0560032
0.058186
0.0604359
0.0624128
0.0639126
0.0638962
0.0619085
0.0571784
0.0485708
0.0342224
0.0126842
-0.0179004
-0.0576714
-0.0932775
-0.128688
-0.156746
-0.175145
-0.17948
-0.164458
-0.134137
-0.0971222
-0.0685395
-0.0570894
-0.0516321
-0.0423294
-0.0339358
-0.0197499
0.000170055
0.0252679
0.0431346
0.0556759
0.063151
0.0672037
0.069107
0.0698092
0.0698817
0.0696525
0.0693033
0.0689267
0.068579
0.0682684
0.0680073
0.067781
0.0675892
0.0674167
0.0672594
0.0671149
0.0669679
0.0333273
0.0354654
0.0375472
0.0396482
0.0416986
0.0437199
0.0456811
0.0475967
0.0494682
0.0513288
0.0532171
0.0551771
0.0572413
0.0593632
0.0614508
0.0630675
0.0641204
0.063389
0.0607338
0.0549678
0.0447494
0.0277985
0.00170438
-0.0348991
-0.082684
-0.121013
-0.15896
-0.182862
-0.193145
-0.185425
-0.159192
-0.123438
-0.0901896
-0.0719727
-0.0698398
-0.0741353
-0.064694
-0.0521416
-0.0287655
0.00323336
0.0280087
0.047574
0.0599215
0.0663484
0.0693729
0.0705103
0.070687
0.0704122
0.0699603
0.0694749
0.0690172
0.0686226
0.0682843
0.0680043
0.0677611
0.0675519
0.0673582
0.0671779
0.0670069
0.066833
0.0353125
0.0373371
0.0393068
0.0412933
0.0432315
0.0451472
0.0470145
0.048853
0.0506705
0.052499
0.0543704
0.0563056
0.0583073
0.0602748
0.0621061
0.0632924
0.0637067
0.0623615
0.0588408
0.0517658
0.0393272
0.0186862
-0.0134862
-0.0572207
-0.112633
-0.150526
-0.185609
-0.202219
-0.199523
-0.179394
-0.146369
-0.112588
-0.0890758
-0.0835887
-0.0894978
-0.101037
-0.086644
-0.0655477
-0.0271885
0.00622483
0.0335333
0.0535082
0.0643195
0.0692922
0.071191
0.0715948
0.0713048
0.0707405
0.0701174
0.0695372
0.0690297
0.0686102
0.0682591
0.0679692
0.0677138
0.0674889
0.0672741
0.0670702
0.0668719
0.0666705
0.0371906
0.039107
0.0409693
0.0428479
0.0446834
0.046503
0.048286
0.0500552
0.05182
0.0536056
0.0554321
0.0572942
0.0591668
0.0609041
0.0623931
0.0631169
0.0628637
0.0608079
0.0561909
0.0474417
0.0320076
0.00642344
-0.0329589
-0.0835892
-0.14296
-0.17654
-0.202684
-0.207359
-0.192591
-0.164236
-0.132267
-0.106355
-0.0966683
-0.103782
-0.11431
-0.12748
-0.102322
-0.0696711
-0.0248849
0.0115811
0.0419048
0.0596944
0.0682957
0.0716915
0.072544
0.0723214
0.0716515
0.0708725
0.0701363
0.0695036
0.0689771
0.068553
0.0682015
0.0679082
0.067643
0.0674024
0.0671654
0.0669364
0.0667096
0.0664797
0.038967
0.0407796
0.0425398
0.0443182
0.0460581
0.047789
0.0494944
0.0511966
0.0529025
0.0546271
0.0563762
0.0581173
0.0598027
0.061252
0.0623271
0.0625432
0.0616172
0.0586987
0.0527772
0.0418889
0.0225109
-0.00894569
-0.0555248
-0.110432
-0.167836
-0.191898
-0.205803
-0.197025
-0.174771
-0.146735
-0.120793
-0.108966
-0.113529
-0.130513
-0.140587
-0.147402
-0.10646
-0.0644107
-0.0177064
0.0236438
0.050664
0.0652306
0.0714534
0.0734034
0.0734026
0.0726805
0.0717391
0.0708279
0.070037
0.0693923
0.0688747
0.0684628
0.06812
0.0678267
0.0675518
0.0672937
0.0670323
0.0667762
0.0665193
0.0662599
0.040646
0.0423594
0.0440237
0.0457076
0.0473579
0.049006
0.0506366
0.0522685
0.0539043
0.0555461
0.0571844
0.0587622
0.0602125
0.0613336
0.0619543
0.0616339
0.0599744
0.0560861
0.0486049
0.0350072
0.0110631
-0.0263728
-0.0783914
-0.131402
-0.181985
-0.192309
-0.192939
-0.176174
-0.153422
-0.130075
-0.118275
-0.122011
-0.137351
-0.159451
-0.162695
-0.158392
-0.101286
-0.0507593
-0.00202834
0.0356162
0.058547
0.0695114
0.0736161
0.0744492
0.0737652
0.0726961
0.0716001
0.0706354
0.0698448
0.0692246
0.0687391
0.068352
0.0680227
0.0677294
0.0674421
0.0671632
0.0668741
0.0665886
0.0663
0.0660103
0.0422317
0.0438516
0.0454245
0.0470188
0.0485846
0.0501529
0.0517075
0.0532625
0.0548141
0.0563503
0.0578473
0.0592273
0.0604069
0.0611723
0.0613262
0.060438
0.058004
0.0530222
0.0437182
0.0270916
-0.0015203
-0.04394
-0.0969675
-0.140855
-0.181564
-0.178017
-0.169129
-0.152088
-0.13416
-0.123105
-0.129639
-0.14211
-0.164999
-0.184077
-0.173081
-0.153245
-0.0860765
-0.0317554
0.0138555
0.046415
0.0645991
0.0723023
0.0748582
0.0748158
0.0736706
0.0724235
0.0712766
0.0703289
0.0695883
0.0690232
0.068587
0.0682317
0.0679158
0.0676189
0.0673143
0.0670098
0.0666894
0.0663722
0.0660506
0.0657302
0.0437291
0.0452594