/*--------------------------------*- C++ -*----------------------------------*\
| =========                 |                                                 |
| \\      /  F ield         | OpenFOAM: The Open Source CFD Toolbox           |
|  \\    /   O peration     | Version:  2506                                  |
|   \\  /    A nd           | Website:  www.openfoam.com                      |
|    \\/     M anipulation  |                                                 |
\*---------------------------------------------------------------------------*/
FoamFile
{
    version     2.0;
    format      ascii;
    arch        "LSB;label=32;scalar=64";
    class       pointScalarField;
    location    "119.9718890538999";
    object      streamFunction;
}
// * * * * * * * * * * * * * * * * * * * * * * * * * * * * * * * * * * * * * //

dimensions      [0 3 -1 0 0 0 0];

internalField   nonuniform List<scalar> 
19880
(
0
0.0922154
0.172981
0.233993
0.263871
0.258203
0
0.0814615
0.151074
0.206408
0.23953
0.243268
0
0.0578179
0.107331
0.150165
0.181399
0.194933
0
0.0283979
0.0529765
0.0790868
0.108747
0.136347
0
0.00277412
0.00641017
0.0240956
0.0630999
0.109397
0
-0.00970529
-0.00640882
0.0295532
0.093247
0.16528
0
0.0922154
0.172981
0.233993
0.263871
0.258203
0
0.0814615
0.151074
0.206408
0.23953
0.243268
0
0.0578179
0.107331
0.150165
0.181399
0.194933
0
0.0283979
0.0529765
0.0790868
0.108747
0.136347
0
0.00277412
0.00641017
0.0240956
0.0630999
0.109397
0
-0.00970529
-0.00640882
0.0295532
0.093247
0.16528
1e-07
1.38778e-17
6.93889e-18
-4.33681e-19
0
0.113094
0.077827
0.0340652
0.0023369
-0.0107268
0.238057
0.197323
0.136173
0.0687998
0.016078
0.356166
0.315044
0.252597
0.171957
0.0885607
0.474419
0.43242
0.367755
0.281612
0.182705
0.590579
0.547633
0.480137
0.388858
0.279138
1e-07
1.38778e-17
6.93889e-18
-4.33681e-19
0
0.113094
0.077827
0.0340652
0.0023369
-0.0107268
0.238057
0.197323
0.136173
0.0687998
0.016078
0.356166
0.315044
0.252597
0.171957
0.0885607
0.474419
0.43242
0.367755
0.281612
0.182705
0.590579
0.547633
0.480137
0.388858
0.279138
5e-08
-2.5e-07
-1.2e-07
3.9e-07
-4e-07
0.1112
0.125333
0.135167
0.138084
0.132694
0.205793
0.233093
0.252123
0.261158
0.258572
0.29506
0.335538
0.364412
0.379333
0.37695
0.379935
0.433145
0.471544
0.492524
0.494199
0.46218
0.527986
0.576042
0.60382
0.609088
5e-08
-2.5e-07
-1.2e-07
3.9e-07
-4e-07
0.1112
0.125333
0.135167
0.138084
0.132694
0.205793
0.233093
0.252123
0.261158
0.258572
0.29506
0.335538
0.364412
0.379333
0.37695
0.379935
0.433145
0.471544
0.492524
0.494199
0.46218
0.527986
0.576042
0.60382
0.609088
-0.0324732
-0.0279632
-0.0227729
-0.0166762
-0.00980155
-5e-08
0.0794308
0.0645464
0.0495359
0.034091
0.0176289
-5e-08
0.187855
0.15412
0.119549
0.083322
0.0447768
-5e-08
0.289761
0.238221
0.185192
0.129457
0.0704263
-5e-08
0.382393
0.314479
0.244474
0.170841
0.0928587
5e-08
-0.0324732
-0.0279632
-0.0227729
-0.0166762
-0.00980155
-5e-08
0.0794308
0.0645464
0.0495359
0.034091
0.0176289
-5e-08
0.187855
0.15412
0.119549
0.083322
0.0447768
-5e-08
0.289761
0.238221
0.185192
0.129457
0.0704263
-5e-08
0.382393
0.314479
0.244474
0.170841
0.0928587
5e-08
-0.535962
-0.443554
-0.34682
-0.243543
-0.131991
-1.4e-07
-0.452955
-0.375141
-0.293765
-0.206731
-0.11265
4.5e-07
-0.357824
-0.296727
-0.232697
-0.164025
-0.089744
-5e-08
-0.254129
-0.211123
-0.165834
-0.116977
-0.0636129
5e-08
-0.144696
-0.120713
-0.0951972
-0.0673691
-0.0364186
5e-08
-0.535962
-0.443554
-0.34682
-0.243543
-0.131991
-1.4e-07
-0.452955
-0.375141
-0.293765
-0.206731
-0.11265
4.5e-07
-0.357824
-0.296727
-0.232697
-0.164025
-0.089744
-5e-08
-0.254129
-0.211123
-0.165834
-0.116977
-0.0636129
5e-08
-0.144696
-0.120713
-0.0951972
-0.0673691
-0.0364186
5e-08
-0.606522
-0.660305
-0.694599
-0.707302
-0.696877
-0.50087
-0.544413
-0.571461
-0.579605
-0.566813
-0.390722
-0.423989
-0.444112
-0.447632
-0.433134
-0.273444
-0.296617
-0.311033
-0.312411
-0.298278
-0.147652
-0.160774
-0.16817
-0.167044
-0.152328
7.6e-07
-4e-08
-2.4e-07
-2.4e-07
-2.4e-07
-0.606522
-0.660305
-0.694599
-0.707302
-0.696877
-0.50087
-0.544413
-0.571461
-0.579605
-0.566813
-0.390722
-0.423989
-0.444112
-0.447632
-0.433134
-0.273444
-0.296617
-0.311033
-0.312411
-0.298278
-0.147652
-0.160774
-0.16817
-0.167044
-0.152328
7.6e-07
-4e-08
-2.4e-07
-2.4e-07
-2.4e-07
-0.662109
-0.601879
-0.515102
-0.401864
-0.265391
-0.531281
-0.471384
-0.385175
-0.274412
-0.146534
-0.397861
-0.338369
-0.253068
-0.150311
-0.0481481
-0.263538
-0.203517
-0.123486
-0.0465967
0.0056483
-0.120445
-0.0716545
-0.0212465
0.00636203
0.0115483
-2.4e-07
-2.4e-07
-2.4e-07
-2.4e-07
-2.4e-07
-0.662109
-0.601879
-0.515102
-0.401864
-0.265391
-0.531281
-0.471384
-0.385175
-0.274412
-0.146534
-0.397861
-0.338369
-0.253068
-0.150311
-0.0481481
-0.263538
-0.203517
-0.123486
-0.0465967
0.0056483
-0.120445
-0.0716545
-0.0212465
0.00636203
0.0115483
-2.4e-07
-2.4e-07
-2.4e-07
-2.4e-07
-2.4e-07
-2.4e-07
0.0189016
0.0414864
0.0348542
-0.0200832
-0.11666
-2.4e-07
0.0414137
0.0876823
0.108735
0.0906898
0.0273369
-2.4e-07
0.0685418
0.136422
0.177735
0.183111
0.14637
0
0.0871988
0.16779
0.224098
0.244316
0.226182
-2.4e-07
0.0189016
0.0414864
0.0348542
-0.0200832
-0.11666
-2.4e-07
0.0414137
0.0876823
0.108735
0.0906898
0.0273369
-2.4e-07
0.0685418
0.136422
0.177735
0.183111
0.14637
0
0.0871988
0.16779
0.224098
0.244316
0.226182
0.160968
-0.024605
-0.22332
-0.414153
-0.587446
-0.693144
-0.689586
-0.584448
-0.425796
-0.260573
-0.101072
0.0518064
0.202835
0.346719
0.459038
0.507545
0.479012
0.3827
0.245036
0.0975574
-0.0488876
-0.192427
-0.333952
-0.468761
-0.57925
-0.643668
-0.649953
-0.598871
-0.501966
-0.375669
-0.237287
-0.0977101
0.0403069
0.173223
0.291119
0.378567
0.421512
0.414247
0.360452
0.270354
0.156306
0.0299015
-0.0989815
-0.226153
-0.344911
-0.44305
-0.507533
-0.529111
-0.506413
-0.444727
-0.35376
-0.244024
-0.124903
-0.00439255
0.112557
0.217369
0.299176
0.348512
0.360154
0.3342
0.275518
0.191929
0.0920444
-0.0155566
-0.123938
-0.229773
-0.325607
-0.401859
-0.449879
-0.464163
-0.443809
-0.392405
-0.316479
-0.223625
-0.123131
-0.0228588
0.0713334
0.148145
0.198227
0.216121
0.201183
0.157162
0.0907308
0.010015
-0.0757689
-0.158464
-0.229284
-0.280167
-0.306224
-0.305799
-0.280023
-0.232212
-0.167196
-0.0910309
-0.0117821
0.0659496
0.135273
0.187488
0.219616
0.369875
0.179509
0.0261298
-0.157331
-0.345359
-0.510079
-0.595772
-0.572743
-0.456127
-0.29508
-0.131951
0.0223734
0.168959
0.314755
0.456637
0.571747
0.625862
0.60354
0.513101
0.380749
0.236455
0.0911444
-0.0526986
-0.194498
-0.328922
-0.438778
-0.503592
-0.511512
-0.463249
-0.369881
-0.247011
-0.111175
0.0259809
0.16069
0.290512
0.407401
0.496296
0.542382
0.538636
0.487825
0.399779
0.28679
0.160767
0.0317265
-0.0959685
-0.215346
-0.313407
-0.377479
-0.399287
-0.377539
-0.31748
-0.228573
-0.121397
-0.00535855
0.112212
0.226061
0.328642
0.409746
0.45959
0.47249
0.448186
0.391247
0.309143
0.210268
0.103134
-0.00523065
-0.111328
-0.20734
-0.283172
-0.330351
-0.343841
-0.322994
-0.271505
-0.19612
-0.10456
-0.00541845
0.0937152
0.186366
0.26187
0.310804
0.327319
0.310535
0.264186
0.194965
0.1112
0.0228673
-0.0622115
-0.135099
-0.187614
-0.214998
-0.215631
-0.190635
-0.143416
-0.078978
-0.00343576
0.0752578
0.152145
0.220117
0.270721
0.300769
0.291489
0.176558
0.06827
-0.087694
-0.259311
-0.405038
-0.472787
-0.439084
-0.322859
-0.169554
-0.0146174
0.130934
0.268445
0.404908
0.540992
0.658213
0.7224
0.71414
0.638398
0.51851
0.381713
0.240929
0.100146
-0.0390318
-0.171127
-0.280763
-0.348968
-0.36352
-0.323827
-0.239294
-0.124169
0.00588383
0.138351
0.267771
0.392574
0.507305
0.598387
0.650108
0.653736
0.610342
0.528524
0.420203
0.297415
0.17007
0.0435072
-0.0752788
-0.173536
-0.238942
-0.263517
-0.245657
-0.190228
-0.10616
-0.00353019
0.10816
0.221484
0.331218
0.431156
0.511945
0.563511
0.579535
0.559029
0.505871
0.427068
0.330846
0.225543
0.117971
0.0125037
-0.0831405
-0.158783
-0.20609
-0.220181
-0.200458
-0.150543
-0.0770314
0.0122237
0.109025
0.206156
0.296729
0.371172
0.419744
0.436013
0.418654
0.371131
0.300044
0.213957
0.12382
0.0366758
-0.0385358
-0.0932959
-0.122769
-0.125211
-0.101671
-0.0556017
0.00784133
0.0823515
0.160274
0.236131
0.302944
0.352411
0.381288
0.370308
0.156494
0.101343
-0.0145573
-0.156511
-0.277925
-0.331068
-0.295533
-0.189781
-0.0513321
0.0909719
0.225953
0.353331
0.478079
0.60419
0.720833
0.797387
0.808815
0.754696
0.653382
0.528797
0.395988
0.261084
0.126798
-0.0015498
-0.110981
-0.184257
-0.208635
-0.182117
-0.111326
-0.0077307
0.114018
0.240097
0.363112
0.481439
0.592255
0.685075
0.744135
0.758191
0.725981
0.654273
0.554133
0.437378
0.313777
0.189775
0.0726079
-0.0260447
-0.0941514
-0.123289
-0.111722
-0.0635953
0.0133461
0.109737
0.215946
0.324151
0.429099
0.525699
0.606194
0.660509
0.681174
0.666245
0.618732
0.545028
0.453053
0.350818
0.24503
0.141035
0.0461792
-0.0294121
-0.0775135
-0.0933863
-0.0763209
-0.029482
0.0409031
0.126963
0.220627
0.314851
0.403092
0.476581
0.525545
0.542704
0.526038
0.478569
0.406686
0.319201
0.227902
0.13906
0.0613959
0.0039777
-0.0281247
-0.0330378
-0.0116897
0.0325961
0.0945771
0.167761
0.244644
0.31935
0.385112
0.433949
0.46246
0.450731
0.143854
0.12918
0.0592684
-0.0436686
-0.137746
-0.179496
-0.149577
-0.0613198
0.0579692
0.185272
0.308932
0.426392
0.539659
0.653143
0.764474
0.851977
0.886412
0.858499
0.780525
0.672638
0.551043
0.42424
0.296395
0.172646
0.0636372
-0.0152204
-0.051602
-0.0412521
0.0126977
0.102241
0.213706
0.332188
0.448379
0.559717
0.665045
0.757807
0.824274
0.850942
0.832954
0.774627
0.685692
0.577499
0.459758
0.339736
0.224975
0.12612
0.0549527
0.0197039
0.02276
0.0613981
0.129605
0.218567
0.318441
0.421
0.520836
0.613547
0.6931
0.750497
0.777158
0.76939
0.729124
0.662069
0.575747
0.477808
0.374858
0.272952
0.179415
0.103926
0.0545545
0.0358468
0.0489285
0.0915075
0.157834
0.239964
0.32988
0.420669
0.506117
0.578474
0.628342
0.647577
0.633003
0.586896
0.515417
0.427614
0.335717
0.245664
0.16567
0.105364
0.0701221
0.0620521
0.0805609
0.122527
0.182627
0.254182
0.3298
0.403247
0.468012
0.516548
0.545489
0.534068
0.184594
0.175275
0.135991
0.0700864
0.00261627
-0.0297571
-0.00886483
0.0591502
0.15757
0.268527
0.38027
0.488386
0.5922
0.693782
0.795178
0.886196
0.940804
0.941347
0.890885
0.804655
0.698342
0.582359
0.46259
0.344363
0.236704
0.152952
0.10457
0.0976469
0.133219
0.206631
0.305633
0.415129
0.524271
0.628971
0.728281
0.818575
0.889966
0.928811
0.926957
0.884887
0.810155
0.713158
0.603552
0.489171
0.377802
0.2794
0.205131
0.163055
0.156427
0.184516
0.242909
0.323344
0.416043
0.512603
0.607157
0.695688
0.773414
0.833
0.865899
0.866537
0.835051
0.776194
0.696897
0.604442
0.505587
0.406595
0.314912
0.239641
0.188525
0.166217
0.174628
0.212403
0.274035
0.351603
0.437184
0.524065
0.606426
0.677345
0.728122
0.750235
0.739147
0.695821
0.626138
0.53924
0.447422
0.356804
0.274882
0.211614
0.172914
0.161268
0.176476
0.215674
0.273467
0.343058
0.417109
0.489135
0.552899
0.601301
0.631272
0.446935
0.160968
-0.024605
-0.22332
-0.414153
-0.587446
-0.693144
-0.689586
-0.584448
-0.425796
-0.260573
-0.101072
0.0518064
0.202835
0.346719
0.459038
0.507545
0.479012
0.3827
0.245036
0.0975574
-0.0488876
-0.192427
-0.333952
-0.468761
-0.57925
-0.643668
-0.649953
-0.598871
-0.501966
-0.375669
-0.237287
-0.0977101
0.0403069
0.173223
0.291119
0.378567
0.421512
0.414247
0.360452
0.270354
0.156306
0.0299015
-0.0989815
-0.226153
-0.344911
-0.44305
-0.507533
-0.529111
-0.506413
-0.444727
-0.35376
-0.244024
-0.124903
-0.00439255
0.112557
0.217369
0.299176
0.348512
0.360154
0.3342
0.275518
0.191929
0.0920444
-0.0155566
-0.123938
-0.229773
-0.325607
-0.401859
-0.449879
-0.464163
-0.443809
-0.392405
-0.316479
-0.223625
-0.123131
-0.0228588
0.0713334
0.148145
0.198227
0.216121
0.201183
0.157162
0.0907308
0.010015
-0.0757689
-0.158464
-0.229284
-0.280167
-0.306224
-0.305799
-0.280023
-0.232212
-0.167196
-0.0910309
-0.0117821
0.0659496
0.135273
0.187488
0.219616
0.369875
0.179509
0.0261298
-0.157331
-0.345359
-0.510079
-0.595772
-0.572743
-0.456127
-0.29508
-0.131951
0.0223734
0.168959
0.314755
0.456637
0.571747
0.625862
0.60354
0.513101
0.380749
0.236455
0.0911444
-0.0526986
-0.194498
-0.328922
-0.438778
-0.503592
-0.511512
-0.463249
-0.369881
-0.247011
-0.111175
0.0259809
0.16069
0.290512
0.407401
0.496296
0.542382
0.538636
0.487825
0.399779
0.28679
0.160767
0.0317265
-0.0959685
-0.215346
-0.313407
-0.377479
-0.399287
-0.377539
-0.31748
-0.228573
-0.121397
-0.00535855
0.112212
0.226061
0.328642
0.409746
0.45959
0.47249
0.448186
0.391247
0.309143
0.210268
0.103134
-0.00523065
-0.111328
-0.20734
-0.283172
-0.330351
-0.343841
-0.322994
-0.271505
-0.19612
-0.10456
-0.00541845
0.0937152
0.186366
0.26187
0.310804
0.327319
0.310535
0.264186
0.194965
0.1112
0.0228673
-0.0622115
-0.135099
-0.187614
-0.214998
-0.215631
-0.190635
-0.143416
-0.078978
-0.00343576
0.0752578
0.152145
0.220117
0.270721
0.300769
0.291489
0.176558
0.06827
-0.087694
-0.259311
-0.405038
-0.472787
-0.439084
-0.322859
-0.169554
-0.0146174
0.130934
0.268445
0.404908
0.540992
0.658213
0.7224
0.71414
0.638398
0.51851
0.381713
0.240929
0.100146
-0.0390318
-0.171127
-0.280763
-0.348968
-0.36352
-0.323827
-0.239294
-0.124169
0.00588383
0.138351
0.267771
0.392574
0.507305
0.598387
0.650108
0.653736
0.610342
0.528524
0.420203
0.297415
0.17007
0.0435072
-0.0752788
-0.173536
-0.238942
-0.263517
-0.245657
-0.190228
-0.10616
-0.00353019
0.10816
0.221484
0.331218
0.431156
0.511945
0.563511
0.579535
0.559029
0.505871
0.427068
0.330846
0.225543
0.117971
0.0125037
-0.0831405
-0.158783
-0.20609
-0.220181
-0.200458
-0.150543
-0.0770314
0.0122237
0.109025
0.206156
0.296729
0.371172
0.419744
0.436013
0.418654
0.371131
0.300044
0.213957
0.12382
0.0366758
-0.0385358
-0.0932959
-0.122769
-0.125211
-0.101671
-0.0556017
0.00784133
0.0823515
0.160274
0.236131
0.302944
0.352411
0.381288
0.370308
0.156494
0.101343
-0.0145573
-0.156511
-0.277925
-0.331068
-0.295533
-0.189781
-0.0513321
0.0909719
0.225953
0.353331
0.478079
0.60419
0.720833
0.797387
0.808815
0.754696
0.653382
0.528797
0.395988
0.261084
0.126798
-0.0015498
-0.110981
-0.184257
-0.208635
-0.182117
-0.111326
-0.0077307
0.114018
0.240097
0.363112
0.481439
0.592255
0.685075
0.744135
0.758191
0.725981
0.654273
0.554133
0.437378
0.313777
0.189775
0.0726079
-0.0260447
-0.0941514
-0.123289
-0.111722
-0.0635953
0.0133461
0.109737
0.215946
0.324151
0.429099
0.525699
0.606194
0.660509
0.681174
0.666245
0.618732
0.545028
0.453053
0.350818
0.24503
0.141035
0.0461792
-0.0294121
-0.0775135
-0.0933863
-0.0763209
-0.029482
0.0409031
0.126963
0.220627
0.314851
0.403092
0.476581
0.525545
0.542704
0.526038
0.478569
0.406686
0.319201
0.227902
0.13906
0.0613959
0.0039777
-0.0281247
-0.0330378
-0.0116897
0.0325961
0.0945771
0.167761
0.244644
0.31935
0.385112
0.433949
0.46246
0.450731
0.143854
0.12918
0.0592684
-0.0436686
-0.137746
-0.179496
-0.149577
-0.0613198
0.0579692
0.185272
0.308932
0.426392
0.539659
0.653143
0.764474
0.851977
0.886412
0.858499
0.780525
0.672638
0.551043
0.42424
0.296395
0.172646
0.0636372
-0.0152204
-0.051602
-0.0412521
0.0126977
0.102241
0.213706
0.332188
0.448379
0.559717
0.665045
0.757807
0.824274
0.850942
0.832954
0.774627
0.685692
0.577499
0.459758
0.339736
0.224975
0.12612
0.0549527
0.0197039
0.02276
0.0613981
0.129605
0.218567
0.318441
0.421
0.520836
0.613547
0.6931
0.750497
0.777158
0.76939
0.729124
0.662069
0.575747
0.477808
0.374858
0.272952
0.179415
0.103926
0.0545545
0.0358468
0.0489285
0.0915075
0.157834
0.239964
0.32988
0.420669
0.506117
0.578474
0.628342
0.647577
0.633003
0.586896
0.515417
0.427614
0.335717
0.245664
0.16567
0.105364
0.0701221
0.0620521
0.0805609
0.122527
0.182627
0.254182
0.3298
0.403247
0.468012
0.516548
0.545489
0.534068
0.184594
0.175275
0.135991
0.0700864
0.00261627
-0.0297571
-0.00886483
0.0591502
0.15757
0.268527
0.38027
0.488386
0.5922
0.693782
0.795178
0.886196
0.940804
0.941347
0.890885
0.804655
0.698342
0.582359
0.46259
0.344363
0.236704
0.152952
0.10457
0.0976469
0.133219
0.206631
0.305633
0.415129
0.524271
0.628971
0.728281
0.818575
0.889966
0.928811
0.926957
0.884887
0.810155
0.713158
0.603552
0.489171
0.377802
0.2794
0.205131
0.163055
0.156427
0.184516
0.242909
0.323344
0.416043
0.512603
0.607157
0.695688
0.773414
0.833
0.865899
0.866537
0.835051
0.776194
0.696897
0.604442
0.505587
0.406595
0.314912
0.239641
0.188525
0.166217
0.174628
0.212403
0.274035
0.351603
0.437184
0.524065
0.606426
0.677345
0.728122
0.750235
0.739147
0.695821
0.626138
0.53924
0.447422
0.356804
0.274882
0.211614
0.172914
0.161268
0.176476
0.215674
0.273467
0.343058
0.417109
0.489135
0.552899
0.601301
0.631272
0.446935
0.404658
0.395217
0.373687
0.339614
0.300286
0.270483
0.264874
0.292419
0.350678
0.42927
0.516494
0.605386
0.692888
0.777657
0.858935
0.936314
1.00523
1.0511
1.05859
1.02342
0.955822
0.867645
0.768396
0.664753
0.562843
0.470912
0.399025
0.356553
0.350703
0.383364
0.448831
0.535493
0.630154
0.723672
0.812606
0.896059
0.971111
1.03071
1.06507
1.06608
1.0323
0.968944
0.884204
0.786709
0.684291
0.584874
0.497595
0.431666
0.393934
0.388134
0.414033
0.466718
0.538435
0.620527
0.705557
0.788261
0.865187
0.932506
0.984401
1.01405
1.0161
0.989416
0.937312
0.865569
0.780771
0.689469
0.598138
0.514184
0.445521
0.3989
0.378688
0.387355
0.422946
0.479907
0.550826
0.628496
0.706896
0.781035
0.84509
0.891353
0.911998
0.90164
0.860212
0.792782
0.708219
0.617752
0.528149
0.44618
0.381313
0.339843
0.324733
0.336093
0.371162
0.424704
0.490044
0.560121
0.628394
0.689152
0.736209
0.767294
0.586163
0.653117
0.639247
0.621679
0.598878
0.57642
0.563044
0.566703
0.591581
0.636437
0.695053
0.761038
0.830052
0.899421
0.967183
1.0315
1.09038
1.14068
1.1753
1.18465
1.16315
1.11341
1.04322
0.960922
0.873607
0.787815
0.71089
0.651068
0.617061
0.615043
0.645112
0.701467
0.773975
0.852023
0.928741
1.0016
1.0699
1.13137
1.18036
1.20897
1.21098
1.18457
1.13247
1.06067
0.976495
0.887348
0.8009
0.725307
0.668489
0.636785
0.633132
0.656263
0.701752
0.763207
0.833382
0.905854
0.976015
1.04104
1.09805
1.14242
1.16834
1.171
1.14881
1.10375
1.04031
0.964247
0.881781
0.79932
0.723825
0.662307
0.620988
0.604085
0.612887
0.645172
0.696001
0.758921
0.827507
0.896395
0.961439
1.01806
1.05973
1.07895
1.07013
1.03219
0.96919
0.88909
0.8016
0.714206
0.63381
0.568719
0.525309
0.506926
0.513833
0.543578
0.591464
0.651252
0.716162
0.779746
0.836719
0.88174
0.913621
0.435524
0.900686
0.886921
0.873243
0.859013
0.847237
0.842925
0.850094
0.870846
0.904663
0.948697
0.999327
1.0534
1.10833
1.16184
1.21179
1.25595
1.29181
1.31601
1.32386
1.31081
1.27602
1.22303
1.15789
1.08718
1.01744
0.955494
0.908589
0.883113
0.883374
0.909566
0.956181
1.01439
1.0764
1.1375
1.19564
1.24987
1.29851
1.33772
1.36167
1.36478
1.3446
1.30266
1.24341
1.17284
1.09763
1.0248
0.961409
0.914127
0.888261
0.885645
0.904862
0.942601
0.993682
1.05198
1.11204
1.16992
1.22328
1.27003
1.30687
1.32922
1.33259
1.31474
1.27664
1.2218
1.15514
1.08244
1.00976
0.943464
0.889803
0.854179
0.839938
0.847888
0.876065
0.920184
0.974569
1.03356
1.09249
1.14797
1.19657
1.23323
1.25137
1.24511
1.21225
1.1556
1.08184
0.999332
0.915856
0.838555
0.77472
0.730404
0.709017
0.711141
0.734827
0.775995
0.829044
0.887639
0.945555
0.997831
1.03979
1.07127
0.597647
1.14494
1.13277
1.12225
1.11329
1.10746
1.10735
1.11538
1.13292
1.15973
1.19413
1.23374
1.27617
1.31927
1.36108
1.39967
1.43302
1.45881
1.47463
1.47825
1.46802
1.44313
1.40467
1.35591
1.30172
1.24772
1.20009
1.16516
1.14795
1.15092
1.17323
1.20993
1.25447
1.30192
1.34927
1.39474
1.43698
1.47446
1.5046
1.52349
1.52692
1.51226
1.47981
1.43258
1.3754
1.314
1.2545
1.20296
1.16472
1.14358
1.1411
1.15661
1.18713
1.22824
1.27507
1.32329
1.36971
1.41234
1.44957
1.47903
1.49733
1.50079
1.48697
1.45588
1.40991
1.35317
1.2908
1.22833
1.17144
1.12552
1.09523
1.08339
1.09038
1.11427
1.15138
1.1969
1.24608
1.29502
1.341
1.3815
1.41277
1.42946
1.42604
1.39942
1.35077
1.28517
1.20978
1.13214
1.05935
0.998093
0.95391
0.930122
0.927636
0.945045
0.978925
1.02435
1.07558
1.12684
1.17347
1.21129
1.24067
0.424733
1.38636
1.37604
1.36791
1.3621
1.35953
1.36172
1.37001
1.38507
1.40666
1.43374
1.46473
1.49793
1.53161
1.56412
1.59378
1.61893
1.63786
1.64879
1.64998
1.64056
1.62081
1.59193
1.55604
1.5163
1.47694
1.44295
1.41924
1.40915
1.41352
1.43085
1.45785
1.4907
1.52636
1.56261
1.5977
1.6301
1.65835
1.68075
1.69493
1.69808
1.68779
1.66366
1.62746
1.58279
1.53432
1.48717
1.44644
1.41633
1.3993
1.39672
1.40848
1.43204
1.46385
1.50022
1.53781
1.57404
1.60722
1.63603
1.6588
1.67314
1.67623
1.66577
1.6412
1.60396
1.55721
1.50531
1.45309
1.4055
1.36714
1.34199
1.33223
1.33781
1.35708
1.38708
1.42384
1.46349
1.50288
1.53985
1.57254
1.59832
1.61319
1.61234
1.59224
1.55259
1.49668
1.4303
1.36033
1.29353
1.23609
1.19313
1.16787
1.16139
1.17272
1.19911
1.23635
1.27945
1.3232
1.36339
1.39626
1.4222
0.608097
1.62531
1.61674
1.61048
1.60671
1.606
1.60919
1.61699
1.62974
1.64723
1.66874
1.69316
1.71921
1.74554
1.77082
1.79368
1.81278
1.82681
1.83452
1.83485
1.82722
1.8119
1.79012
1.76378
1.73533
1.70789
1.68493
1.66952
1.66352
1.66722
1.67968
1.69905
1.72313
1.74983
1.77737
1.80415
1.82874
1.84978
1.8659
1.87568
1.87755
1.87008
1.85266
1.82607
1.79266
1.75588
1.71977
1.68833
1.66484
1.65132
1.64881
1.65713
1.67455
1.6984
1.72587
1.75443
1.78207
1.80732
1.82902
1.84591
1.85642
1.85863
1.85072
1.83188
1.80279
1.76566
1.72394
1.68169
1.64314
1.61215
1.59157
1.58302
1.58688
1.60174
1.62495
1.65342
1.68424
1.71495
1.74377
1.76929
1.78968
1.80216
1.80305
1.78891
1.75838
1.71307
1.65716
1.59648
1.5371
1.48471
1.44409
1.41838
1.40873
1.41453
1.43366
1.46266
1.49727
1.53301
1.56617
1.5935
1.61515
0.415048
1.86186
1.85487
1.85004
1.84758
1.84783
1.85128
1.85829
1.869
1.88319
1.90033
1.91961
1.94007
1.96067
1.98033
1.99799
2.01261
2.02321
2.02895
2.02919
2.02363
2.01254
1.99685
1.97807
1.95811
1.9392
1.92358
1.91315
1.90907
1.91164
1.92045
1.93444
1.95216
1.97211
1.99286
2.01309
2.03157
2.04714
2.05868
2.06511
2.06553
2.05932
2.04633
2.02702
2.00277
1.97587
1.94916
1.92561
1.90773
1.89725
1.89499
1.90074
1.91326
1.93065
1.95087
1.97209
1.99274
2.01158
2.02757
2.03967
2.04683
2.04782
2.04152
2.02723
2.00518
1.97677
1.94449
1.91151
1.88125
1.85679
1.84033
1.83302
1.83513
1.84563
1.86252
1.88359
1.9067
1.92991
1.95173
1.97097
1.98634
1.99606
1.99759
1.98812
1.96584
1.93102
1.88625
1.83596
1.78525
1.7391
1.70198
1.67695
1.6651
1.66614
1.6786
1.69971
1.72593
1.75355
1.77947
1.80099
1.81807
0.616899
2.09617
2.09047
2.08673
2.0851
2.08581
2.08913
2.09523
2.10415
2.11567
2.12937
2.14465
2.16077
2.17693
2.19229
2.20601
2.21731
2.22547
2.22991
2.23024
2.22637
2.21859
2.20759
2.19447
2.18061
2.16751
2.15671
2.14949
2.14669
2.14864
2.1551
2.1654
2.17855
2.19346
2.20903
2.22421
2.23799
2.24942
2.25763
2.26181
2.26135
2.25597
2.24579
2.23135
2.21363
2.19415
2.17482
2.15771
2.14463
2.13689
2.13507
2.139
2.1478
2.1602
2.17481
2.19031
2.2055
2.21932
2.23085
2.23922
2.24366
2.24344
2.23797
2.2269
2.21035
2.18916
2.165
2.14013
2.11708
2.09816
2.08507
2.07873
2.07931
2.08614
2.09789
2.11299
2.12983
2.14689
2.16293
2.17691
2.18788
2.19471
2.19584
2.18934
2.17356
2.14802
2.11397
2.07435
2.03309
1.99438
1.96184
1.93816
1.92501
1.92245
1.92928
1.94329
1.96169
1.98157
2.00049
2.01636
2.02899
0.407664
2.32841
2.32376
2.32083
2.31973
2.32061
2.32362
2.32883
2.33621
2.34555
2.35652
2.36866
2.38139
2.3941
2.40614
2.41686
2.42569
2.43209
2.43567
2.43618
2.43363
2.42827
2.42063
2.41152
2.40192
2.39289
2.3855
2.38062
2.37887
2.38049
2.38535
2.39301
2.40279
2.41392
2.42556
2.43689
2.44712
2.4555
2.46137
2.46414
2.4634
2.45898
2.45105
2.4401
2.42695
2.41273
2.39878
2.38648
2.37708
2.37142
2.36991
2.37242
2.37843
2.38713
2.39755
2.40875
2.41977
2.42975
2.43791
2.44355
2.44609
2.44503
2.44006
2.43109
2.41834
2.40244
2.38452
2.36608
2.34885
2.33446
2.32418
2.31875
2.31833
2.32253
2.33047
2.34102
2.35297
2.36516
2.37656
2.38632
2.39366
2.39783
2.39792
2.39281
2.38139
2.36302
2.3381
2.30831
2.27634
2.24535
2.21826
2.1973
2.18408
2.17904
2.18131
2.1892
2.20069
2.21367
2.22637
2.23718
2.24585
0.622752
2.55885
2.55504
2.55271
2.55195
2.55284
2.55547
2.55985
2.56591
2.57347
2.58227
2.59193
2.60201
2.61205
2.62153
2.62998
2.63695
2.64205
2.64503
2.64572
2.64417
2.64058
2.63536
2.62911
2.62253
2.61638
2.61139
2.60819
2.6072
2.60861
2.61234
2.6181
2.62543
2.63375
2.64245
2.65089
2.65846
2.66458
2.66877
2.6706
2.66982
2.66634
2.66031
2.65212
2.64241
2.632
2.62185
2.61291
2.60601
2.60173
2.60036
2.60187
2.60592
2.61198
2.61937
2.62737
2.63526
2.64235
2.64803
2.65174
2.653
2.65148
2.64699
2.63957
2.62949
2.61729
2.60378
2.59001
2.57712
2.56625
2.55828
2.55378
2.55288
2.55533
2.56052
2.56767
2.57591
2.58435
2.5922
2.59873
2.60327
2.60527
2.60418
2.59942
2.5904
2.57675
2.55856
2.5367
2.5128
2.48898
2.4674
2.44985
2.4376
2.43114
2.43002
2.43317
2.43925
2.44684
2.45466
2.46147
2.46694
0.403223
2.78771
2.78456
2.78268
2.78213
2.78295
2.78519
2.78882
2.79378
2.79989
2.80695
2.81465
2.82266
2.83061
2.83812
2.84482
2.85037
2.85451
2.85705
2.85788
2.85707
2.85477
2.85131
2.84711
2.84268
2.83856
2.83527
2.83324
2.83279
2.83404
2.83695
2.84133
2.84684
2.85307
2.85957
2.86584
2.87143
2.87591
2.8789
2.88012
2.87938
2.87667
2.87211
2.86601
2.85884
2.8512
2.84376
2.83718
2.83203
2.82874
2.82752
2.82837
2.83107
2.83524
2.84042
2.84606
2.85161
2.85654
2.86038
2.86269
2.86314
2.86147
2.85757
2.85151
2.84351
2.83403
2.82368
2.81323
2.80347
2.79518
2.78897
2.78522
2.78404
2.78524
2.78845
2.7931
2.79859
2.80423
2.80942
2.81355
2.81608
2.81653
2.81451
2.80971
2.80191
2.791
2.77712
2.7608
2.74297
2.72496
2.70818
2.69394
2.68316
2.67628
2.67318
2.67329
2.67579
2.6797
2.68409
2.68796
2.69101
0.626038
3.01519
3.01257
3.01103
3.0106
3.01132
3.01318
3.01617
3.0202
3.02513
3.03079
3.03695
3.04333
3.04965
3.05562
3.06097
3.06545
3.06885
3.07104
3.07197
3.07169
3.07032
3.06811
3.06536
3.06245
3.05976
3.05767
3.05647
3.05638
3.05751
3.05982
3.06318
3.06735
3.07204
3.07689
3.08156
3.08569
3.08896
3.09109
3.09188
3.09123
3.08911
3.08566
3.0811
3.07578
3.07014
3.06464
3.05976
3.0559
3.05335
3.05229
3.05271
3.05448
3.05732
3.06089
3.06479
3.06863
3.07198
3.07449
3.07582
3.07573
3.07404
3.07069
3.06575
3.05942
3.05203
3.04406
3.03603
3.02853
3.02209
3.01714
3.01393
3.01255
3.01289
3.01469
3.01756
3.02103
3.02462
3.02784
3.0302
3.03129
3.03072
3.0282
3.02349
3.01652
3.00732
2.99611
2.98331
2.96956
2.95568
2.94258
2.93112
2.92194
2.91542
2.91159
2.91013
2.91053
2.91209
2.91414
2.91593
2.91719
0.400826
3.24151
3.23931
3.23803
3.23767
3.23827
3.2398
3.24223
3.2455
3.24947
3.25401
3.25893
3.26402
3.26907
3.27384
3.27814
3.28177
3.28459
3.28651
3.28749
3.28758
3.28686
3.28554
3.28382
3.28198
3.2803
3.27904
3.27841
3.27856
3.27958
3.28144
3.28404
3.28722
3.29076
3.29439
3.29786
3.30091
3.3033
3.30482
3.30533
3.30477
3.30313
3.30051
3.29708
3.29312
3.28893
3.28484
3.28119
3.27828
3.2763
3.27538
3.27552
3.27663
3.27851
3.28092
3.28357
3.28615
3.28836
3.28991
3.29056
3.29013
3.2885
3.28563
3.2816
3.27656
3.27077
3.26456
3.25833
3.25248
3.24739
3.24337
3.24059
3.23912
3.23889
3.23972
3.24132
3.24336
3.24546
3.24725
3.24836
3.24846
3.24724
3.2445
3.24006
3.23389
3.22606
3.21677
3.20638
3.19538
3.18434
3.17389
3.16458
3.15687
3.15103
3.1471
3.14489
3.14404
3.14409
3.14455
3.14487
3.14483
0.627788
3.46681
3.46496
3.46387
3.46356
3.46404
3.46528
3.46724
3.46988
3.47307
3.47671
3.48065
3.48472
3.48876
3.49259
3.49606
3.49903
3.50138
3.50307
3.50405
3.50438
3.50412
3.50341
3.50241
3.50132
3.50034
3.49965
3.4994
3.49971
3.50063
3.50214
3.50418
3.50662
3.5093
3.51203
3.51461
3.51686
3.5186
3.51969
3.52001
3.51953
3.51826
3.51627
3.51369
3.51072
3.50759
3.50453
3.50179
3.49957
3.49802
3.49722
3.49718
3.49783
3.49904
3.50063
3.50238
3.50406
3.50544
3.50631
3.5065
3.50587
3.50434
3.50189
3.49858
3.49453
3.48994
3.48506
3.48016
3.47555
3.47147
3.46816
3.46574
3.46426
3.46367
3.46384
3.46456
3.46559
3.46663
3.46741
3.46765
3.46709
3.4655
3.46273
3.45866
3.45328
3.44665
3.43894
3.43044
3.42151
3.41257
3.40407
3.39641
3.38989
3.38469
3.38086
3.37825
3.37664
3.3757
3.37509
3.37441
3.3735
0.399561
3.69126
3.68969
3.68877
3.68849
3.68885
3.68984
3.69142
3.69354
3.6961
3.69901
3.70216
3.70542
3.70866
3.71174
3.71455
3.71699
3.71897
3.72045
3.7214
3.72188
3.72192
3.72162
3.72112
3.72055
3.72004
3.71974
3.71975
3.72014
3.72097
3.72221
3.72382
3.72569
3.72773
3.72979
3.73172
3.73338
3.73465
3.73543
3.73562
3.73522
3.73423
3.73272
3.73077
3.72854
3.72619
3.72388
3.72181
3.7201
3.71887
3.71818
3.71803
3.71837
3.71911
3.72011
3.72122
3.72226
3.72306
3.72347
3.72336
3.72263
3.72122
3.71912
3.71639
3.71312
3.70945
3.70557
3.70169
3.698
3.69471
3.69196
3.68985
3.6884
3.6876
3.68733
3.68746
3.68778
3.6881
3.6882
3.68786
3.68688
3.68511
3.68243
3.67875
3.67409
3.66849
3.6621
3.65513
3.64784
3.64055
3.63358
3.6272
3.62163
3.617
3.61333
3.61056
3.60851
3.60696
3.60568
3.60437
3.6029
0.628731
3.91498
3.91366
3.91286
3.9126
3.91288
3.91366
3.91492
3.9166
3.91865
3.92098
3.9235
3.9261
3.9287
3.93118
3.93347
3.93547
3.93713
3.93842
3.93933
3.93988
3.94011
3.94009
3.93991
3.93968
3.93949
3.93945
3.93961
3.94005
3.94079
3.94181
3.94308
3.94454
3.9461
3.94765
3.94909
3.95032
3.95125
3.9518
3.95192
3.95158
3.95082
3.94966
3.94818
3.9465
3.94472
3.94298
3.9414
3.94008
3.9391
3.9385
3.93829
3.93843
3.93884
3.93943
3.94009
3.94068
3.94109
3.94119
3.9409
3.94013
3.93885
3.93706
3.9348
3.93215
3.9292
3.92609
3.92298
3.92001
3.91733
3.91503
3.91318
3.91182
3.9109
3.91037
3.9101
3.90997
3.90981
3.90946
3.90876
3.90756
3.90574
3.90322
3.89995
3.89592
3.8912
3.88589
3.88015
3.87418
3.8682
3.86244
3.8571
3.85233
3.84822
3.84481
3.84203
3.83979
3.83793
3.83627
3.83461
3.83283
0.398875
4.13808
4.13696
4.13628
4.13604
4.13624
4.13685
4.13784
4.13918
4.14081
4.14266
4.14467
4.14675
4.14883
4.15083
4.15268
4.15432
4.15572
4.15684
4.15767
4.15824
4.15858
4.15873
4.15876
4.15875
4.15877
4.15888
4.15913
4.15958
4.16023
4.16107
4.16208
4.16322
4.16441
4.16558
4.16666
4.16758
4.16826
4.16865
4.16871
4.16843
4.16784
4.16695
4.16583
4.16455
4.16321
4.16189
4.16068
4.15966
4.15887
4.15836
4.15811
4.15811
4.15831
4.15862