/*--------------------------------*- C++ -*----------------------------------*\
| =========                 |                                                 |
| \\      /  F ield         | OpenFOAM: The Open Source CFD Toolbox           |
|  \\    /   O peration     | Version:  2506                                  |
|   \\  /    A nd           | Website:  www.openfoam.com                      |
|    \\/     M anipulation  |                                                 |
\*---------------------------------------------------------------------------*/
FoamFile
{
    version     2.0;
    format      ascii;
    arch        "LSB;label=32;scalar=64";
    class       volVectorField;
    location    "119.9718890538999";
    object      U;
}
// * * * * * * * * * * * * * * * * * * * * * * * * * * * * * * * * * * * * * //

dimensions      [0 1 -1 0 0 0 0];

internalField   nonuniform List<vector> 
9700
(
(1.09333 0.000883106 3.95392e-22)
(1.09324 0.00289964 -2.42224e-24)
(1.09062 0.000834942 1.9463e-28)
(1.09307 0.00464478 -5.1249e-22)
(1.09056 0.00270495 -5.08065e-25)
(1.08943 0.000833345 -3.94691e-22)
(1.09278 0.00649551 -2.12135e-25)
(1.0905 0.00432019 -3.93625e-35)
(1.08941 0.00268184 -3.95809e-22)
(1.0877 0.000840933 0)
(1.09234 0.00809839 3.94543e-22)
(1.09035 0.0059861 2.1632e-24)
(1.08941 0.00428803 -2.90107e-21)
(1.08772 0.00268555 4.61873e-24)
(1.08612 0.000866904 3.87156e-22)
(1.09171 0.00962155 3.92126e-22)
(1.09015 0.00737223 -1.14427e-27)
(1.08938 0.00592852 -3.92344e-22)
(1.0878 0.00430376 9.21459e-35)
(1.08618 0.00275328 3.86095e-22)
(1.08442 0.000906212 8.96557e-29)
(1.09084 0.0108507 -3.50226e-23)
(1.08986 0.00860393 1.92236e-27)
(1.08935 0.00728821 -3.88505e-22)
(1.08791 0.00594505 -8.18391e-24)
(1.08633 0.00443055 2.84754e-21)
(1.08452 0.00286908 1.0225e-24)
(1.08266 0.000955641 -3.84703e-22)
(1.08962 0.0117762 5.63452e-22)
(1.0894 0.00944317 5.47648e-23)
(1.08928 0.00847622 -3.85214e-22)
(1.08807 0.00731498 0)
(1.08657 0.00613407 3.88753e-22)
(1.08473 0.00464049 -1.3794e-35)
(1.08278 0.00302438 -3.87013e-22)
(1.08079 0.00101025 -3.21647e-21)
(1.08792 0.0123022 3.20981e-23)
(1.08877 0.00992439 -7.88351e-22)
(1.08917 0.00926428 -3.78933e-22)
(1.08829 0.00850421 0)
(1.08692 0.00758949 3.88034e-22)
(1.08508 0.00645377 -2.78562e-24)
(1.08304 0.00491837 -2.60107e-25)
(1.08093 0.00320347 -3.71935e-21)
(1.07881 0.00106483 -1.65634e-25)
(1.08559 0.0122958 -5.08107e-22)
(1.08787 0.00969422 -1.34199e-22)
(1.089 0.00958984 -4.09046e-21)
(1.08859 0.00929447 4.09913e-38)
(1.08741 0.00888343 3.7624e-22)
(1.08558 0.00805411 1.83327e-27)
(1.08346 0.00688145 -3.82996e-22)
(1.0812 0.00523665 -5.01584e-22)
(1.07895 0.00338876 3.88325e-22)
(1.07672 0.00111396 3.18597e-21)
(1.08237 0.0115348 3.91495e-22)
(1.08658 0.00863766 2.05759e-23)
(1.08873 0.00924833 9.32303e-22)
(1.08897 0.00962037 -1.19987e-23)
(1.08808 0.0098124 3.18677e-22)
(1.08631 0.00953488 -2.73229e-27)
(1.08409 0.00867711 -3.81342e-22)
(1.08167 0.00737498 -3.73946e-21)
(1.07922 0.00556466 5.00823e-22)
(1.07684 0.00356107 3.30717e-21)
(1.07454 0.00115248 0)
(1.07797 0.00986693 7.45046e-25)
(1.08471 0.00649976 2.93294e-23)
(1.08829 0.00803269 2.9299e-21)
(1.08944 0.00925066 -4.36923e-23)
(1.08898 0.0103142 4.07863e-21)
(1.0873 0.0107133 -1.15515e-22)
(1.08498 0.0104157 -3.95035e-22)
(1.08235 0.00939838 -3.36459e-21)
(1.07968 0.00788692 3.92908e-22)
(1.07708 0.00586899 -2.58463e-25)
(1.07463 0.00370182 -2.3889e-36)
(1.07229 0.00117597 3.74068e-22)
(1.07194 0.00700481 2.45275e-21)
(1.08207 0.00291884 2.58105e-22)
(1.08756 0.00558715 -3.34701e-22)
(1.09003 0.00795441 1.26694e-23)
(1.09019 0.0101677 -8.46816e-22)
(1.08867 0.0115455 1.70151e-23)
(1.08623 0.011941 -4.8762e-22)
(1.08334 0.0114421 -3.37852e-21)
(1.08037 0.0101495 -1.63137e-28)
(1.0775 0.0083652 3.34459e-21)
(1.07482 0.00611739 6.09049e-36)
(1.07234 0.00379483 3.8025e-22)
(1.07 0.00118112 7.50012e-28)
(1.06372 0.00278735 -2.33234e-23)
(1.07822 -0.00259008 1.51256e-34)
(1.08644 0.00150439 -2.84979e-22)
(1.0907 0.00535979 3.34294e-23)
(1.09179 0.00914251 -2.88763e-21)
(1.09053 0.0118374 2.72032e-22)
(1.08795 0.0132424 -4.176e-21)
(1.08472 0.0133813 -3.78378e-21)
(1.08136 0.0125173 3.64761e-28)
(1.07812 0.0108548 3.3828e-21)
(1.07515 0.00875935 -2.3103e-36)
(1.07246 0.00628183 2.53993e-25)
(1.07 0.00382771 -5.99457e-24)
(1.06771 0.00116603 -3.57487e-22)
(1.05231 -0.00298536 1.92497e-22)
(1.07252 -0.0104339 -5.12596e-22)
(1.08455 -0.00476485 -3.93479e-21)
(1.09146 0.000988629 1.34262e-23)
(1.09387 0.00686769 3.28092e-22)
(1.09306 0.0113857 -3.57468e-23)
(1.09032 0.0141696 -3.07158e-21)
(1.08665 0.0152497 -2.68285e-21)
(1.08275 0.0148994 2.95061e-22)
(1.07902 0.0135335 3.42802e-21)
(1.07564 0.0114408 0)
(1.07267 0.00902549 3.69711e-22)
(1.07003 0.00634108 -1.77201e-35)
(1.06766 0.00379306 -3.52152e-22)
(1.06547 0.00113046 -4.57337e-22)
(1.03671 -0.0102754 4.05689e-21)
(1.06391 -0.021194 -2.51092e-22)
(1.08133 -0.0137494 -2.85106e-22)
(1.092 -0.0057361 1.28925e-34)
(1.09653 0.00285432 2.46059e-22)
(1.09645 0.00985665 -5.14264e-23)
(1.09358 0.014576 3.06785e-21)
(1.08931 0.0169557 -4.59447e-21)
(1.08469 0.0173801 3.00594e-21)
(1.08028 0.0163434 3.43372e-21)
(1.07636 0.0143852 0)
(1.07298 0.0118435 3.77024e-22)
(1.0701 0.00913033 1.32296e-23)
(1.0676 0.00628267 -2.68536e-21)
(1.06536 0.00368909 -8.84111e-22)
(1.06331 0.00107578 -1.98769e-28)
(1.01555 -0.0191582 9.92501e-22)
(1.05135 -0.0355327 -1.22624e-22)
(1.07598 -0.0264282 -8.59035e-22)
(1.09203 -0.0155218 4.42463e-23)
(1.0996 -0.00340937 3.22717e-21)
(1.10085 0.00682388 -4.52847e-22)
(1.09802 0.0142055 -3.25911e-22)
(1.09303 0.0184347 -1.00109e-21)
(1.0874 0.0199356 3.52192e-21)
(1.08206 0.0194192 1.45743e-23)
(1.07738 0.0175636 -1.75487e-35)
(1.07345 0.0149807 4.05884e-22)
(1.07021 0.0120146 -5.84583e-27)
(1.06751 0.00905443 -3.92159e-22)
(1.06522 0.00610404 -4.6475e-22)
(1.06315 0.00351961 3.60432e-22)
(1.06126 0.00100484 4.36621e-22)
(0.987266 -0.0285361 7.07221e-21)
(1.03294 -0.054319 1.37926e-21)
(1.06764 -0.0441065 2.05376e-22)
(1.09127 -0.0299483 0)
(1.10338 -0.0128563 2.09655e-22)
(1.10633 0.00192397 5.6998e-35)
(1.10375 0.0127775 -4.27243e-22)
(1.09808 0.0195466 -2.51263e-21)
(1.09121 0.0226005 -3.03471e-21)
(1.08455 0.0228064 1.14984e-21)
(1.0788 0.0211546 6.24233e-23)
(1.07411 0.01843 4.70865e-22)
(1.07037 0.0152511 6.75414e-27)
(1.06739 0.0119263 -3.97467e-22)
(1.06497 0.00879391 -6.70734e-22)
(1.06293 0.00581237 3.00592e-21)
(1.06107 0.00329358 4.50292e-22)
(1.05937 0.000921638 -4.19706e-22)
(0.950705 -0.0368836 -2.09377e-20)
(1.00573 -0.0765466 -2.7259e-21)
(1.05344 -0.0680373 1.00411e-21)
(1.08904 -0.0511447 6.53215e-36)
(1.10846 -0.027737 1.05796e-21)
(1.11419 -0.00604149 1.02581e-21)
(1.11129 0.0101344 -1.85451e-21)
(1.10456 0.0202216 -3.4504e-21)
(1.09637 0.0253781 8.26621e-22)
(1.08806 0.0266424 3.621e-21)
(1.08081 0.0252649 -1.62244e-22)
(1.07504 0.0224012 4.60646e-21)
(1.0706 0.0188454 1.90965e-22)
(1.06723 0.0151572 -3.57779e-22)
(1.06463 0.0115736 -4.76211e-22)
(1.06255 0.00836009 3.1907e-22)
(1.06079 0.00542383 -2.47808e-21)
(1.05916 0.00302418 -8.42767e-22)
(1.05765 0.000830933 -2.37989e-28)
(0.904496 -0.0404016 -5.46205e-21)
(0.967877 -0.100568 -2.16751e-21)
(1.0289 -0.0964487 1.6891e-21)
(1.08053 -0.0805786 -1.38355e-35)
(1.11377 -0.0510096 8.96086e-23)
(1.1261 -0.0199182 6.66771e-22)
(1.12323 0.00486635 9.35292e-23)
(1.11348 0.0205298 -4.21273e-22)
(1.10284 0.0284291 -8.49232e-22)
(1.09275 0.0310804 3.89132e-21)
(1.08366 0.0301231 -3.42304e-22)
(1.07636 0.0270477 3.83158e-21)
(1.07095 0.0230227 -1.83557e-23)
(1.06702 0.018756 -1.75407e-22)
(1.06415 0.0146932 -4.87097e-22)
(1.06201 0.0109741 2.02799e-27)
(1.06029 0.00777821 4.03419e-22)
(1.05882 0.00496171 -4.24332e-22)
(1.05742 0.0027273 1.7824e-23)
(1.05611 0.000737915 3.91969e-22)
(0.853654 -0.0368524 2.38137e-20)
(0.919519 -0.123866 7.38397e-21)
(0.992228 -0.126769 -3.64256e-21)
(1.0592 -0.115607 -3.88996e-35)
(1.11222 -0.0836239 -3.93907e-21)
(1.13995 -0.0432295 -2.39993e-25)
(1.14233 -0.00618645 3.88449e-21)
(1.12903 0.0190838 -2.52117e-21)
(1.1122 0.0320579 4.03193e-22)
(1.09844 0.0364741 3.85433e-21)
(1.08739 0.0360142 6.04701e-22)
(1.07826 0.0326628 -3.88461e-21)
(1.07145 0.0279623 -1.55928e-22)
(1.06674 0.0229455 -4.55637e-21)
(1.0635 0.0181558 -8.89845e-22)
(1.06124 0.0138853 -2.55669e-27)
(1.05959 0.0101649 4.08753e-22)
(1.05824 0.00708442 -5.25616e-22)
(1.05706 0.0044538 8.54829e-35)
(1.05588 0.00242052 5.92657e-22)
(1.05476 0.000647773 3.89345e-24)
(0.800406 -0.0212061 1.43593e-22)
(0.862336 -0.145075 6.73982e-22)
(0.943412 -0.156662 -1.60411e-21)
(1.02319 -0.153098 0)
(1.09488 -0.122338 -7.95609e-21)
(1.14576 -0.0758995 -6.73849e-21)
(1.16478 -0.0266552 -1.1609e-21)
(1.15481 0.0128271 -1.18306e-21)
(1.13018 0.035301 3.79225e-21)
(1.10708 0.0433597 1.43534e-22)
(1.09161 0.043407 -2.28499e-36)
(1.08063 0.0396269 5.10588e-22)
(1.07219 0.033987 5.03402e-24)
(1.06636 0.0279091 9.24553e-22)
(1.06261 0.0221651 -2.82892e-21)
(1.0602 0.0170845 4.40396e-22)
(1.05859 0.0127877 5.018e-22)
(1.05743 0.00919877 -4.29212e-22)
(1.05644 0.00632165 -4.23647e-23)
(1.05553 0.00393065 3.94211e-22)
(1.05454 0.00212155 1.81468e-23)
(1.05357 0.000565273 -3.44672e-21)
(0.749398 0.00124388 0)
(0.800622 -0.159941 -2.42255e-22)
(0.884496 -0.184396 1.54151e-20)
(0.972805 -0.190695 -2.28938e-35)
(1.06039 -0.163953 2.36234e-20)
(1.13257 -0.114659 1.47305e-20)
(1.17748 -0.0552472 -9.65257e-21)
(1.1848 -0.00147998 1.4847e-22)
(1.16097 0.0356989 -4.57821e-26)
(1.12557 0.0515768 4.73174e-21)
(1.0983 0.0530235 -1.9224e-35)
(1.08291 0.0484399 4.53746e-22)
(1.07299 0.0415276 -1.25791e-23)
(1.06589 0.0339595 3.87558e-21)
(1.0614 0.0268892 4.43655e-22)
(1.05878 0.020742 2.91816e-21)
(1.05724 0.0156203 8.94209e-22)
(1.05628 0.0114757 -4.34501e-22)
(1.05557 0.00813777 2.6373e-27)
(1.0549 0.00553679 9.4139e-22)
(1.0542 0.00342272 9.21223e-22)
(1.05338 0.00184666 -3.86136e-21)
(1.05254 0.000494493 -1.0206e-24)
(0.698649 0.0269189 1.06796e-21)
(0.740483 -0.166258 4.74625e-24)
(0.819321 -0.208049 1.30504e-21)
(0.910581 -0.225996 -7.74835e-35)
(1.00921 -0.20644 8.7245e-21)
(1.10026 -0.156961 1.06623e-20)
(1.16861 -0.0897896 1.19983e-20)
(1.20371 -0.022 5.70306e-21)
(1.1968 0.0308516 -1.34547e-21)
(1.15863 0.0598466 1.09556e-20)
(1.11499 0.0656812 -2.40793e-35)
(1.08666 0.0599026 4.24885e-21)
(1.0731 0.0510512 -2.59876e-22)
(1.06507 0.0415323 -5.09051e-22)
(1.05978 0.0325938 -7.30963e-22)
(1.05685 0.0249963 -1.05036e-21)
(1.05541 0.0187902 -7.25456e-23)
(1.05472 0.0138701 -7.83144e-22)
(1.05435 0.010037 -3.37528e-27)
(1.05403 0.00704882 3.93331e-22)
(1.05362 0.00477644 -4.29641e-23)
(1.05309 0.00295789 -3.64538e-22)
(1.05239 0.00160979 1.60588e-22)
(1.05164 0.000438578 3.21121e-21)
(0.649513 0.046324 3.69072e-23)
(0.684311 -0.163792 4.54843e-22)
(0.752697 -0.22696 2.81853e-21)
(0.841245 -0.257534 -1.02898e-34)
(0.944472 -0.247107 -4.08406e-20)
(1.04893 -0.201364 -3.2998e-20)
(1.13963 -0.128825 -2.85165e-20)
(1.1996 -0.0484968 1.65294e-21)
(1.22079 0.0214432 -1.78078e-20)
(1.19807 0.0666747 3.0437e-21)
(1.1471 0.0816685 0)
(1.0993 0.0757049 9.91248e-22)
(1.07334 0.063293 1.92976e-34)
(1.06305 0.051022 -5.50045e-22)
(1.05744 0.0396792 -1.12084e-21)
(1.05424 0.0300386 -3.12749e-21)
(1.05293 0.0223976 4.81033e-22)
(1.05262 0.0164609 -2.34793e-21)
(1.05269 0.0119554 8.87989e-23)
(1.05281 0.00856493 3.93703e-22)
(1.0528 0.00599791 -4.36989e-23)
(1.05257 0.00408304 -3.64105e-21)
(1.05215 0.00255986 3.03596e-21)
(1.05153 0.00142168 3.3649e-21)
(1.05084 0.000399466 3.2857e-22)
(0.612979 0.0573361 1.52384e-20)
(0.636634 -0.158547 -1.23971e-20)
(0.690333 -0.239708 -2.28614e-20)
(0.77036 -0.284512 -3.55474e-21)
(0.871334 -0.284217 -8.52414e-21)
(0.98197 -0.244954 -2.74655e-21)
(1.08944 -0.171359 1.06906e-20)
(1.17482 -0.0804453 2.39135e-20)
(1.22265 0.00537015 1.00159e-20)
(1.22654 0.0704509 -1.33049e-20)
(1.18748 0.0999776 -3.52589e-35)
(1.12742 0.097811 5.97026e-21)
(1.08026 0.0804293 1.26794e-21)
(1.05979 0.0629739 -9.07364e-21)
(1.05355 0.0484431 -1.63343e-21)
(1.05062 0.0362037 -1.16941e-22)
(1.04957 0.0265436 3.35078e-21)
(1.04978 0.0193073 7.96333e-22)
(1.05047 0.013923 1.08683e-22)
(1.05117 0.0100041 6.99005e-22)
(1.05167 0.00715057 5.57309e-23)
(1.05186 0.00504475 -3.47228e-21)
(1.05173 0.00349255 -3.8406e-22)
(1.05135 0.00224679 1.83557e-21)
(1.05077 0.00128912 4.09294e-22)
(1.05009 0.000377699 1.81664e-28)
(0.588159 0.0608544 4.26012e-21)
(0.604489 -0.153126 -7.22022e-21)
(0.638305 -0.248344 5.90716e-23)
(0.704383 -0.306299 8.1711e-26)
(0.796012 -0.316229 -4.60248e-21)
(0.904826 -0.285738 9.78528e-21)
(1.02145 -0.214413 5.0511e-20)
(1.12698 -0.117131 3.35456e-20)
(1.20269 -0.0162202 3.38099e-20)
(1.23249 0.0661998 3.13795e-21)
(1.22113 0.117303 -4.16585e-35)
(1.16594 0.125573 -2.52471e-21)
(1.10161 0.105984 1.03325e-21)
(1.06025 0.0794695 -6.26962e-22)
(1.04736 0.0592012 -7.89756e-22)
(1.04526 0.0436737 6.01376e-22)
(1.045 0.0314832 5.17844e-22)
(1.04597 0.0224171 -7.73736e-22)
(1.04749 0.0159584 -7.98945e-36)
(1.04898 0.0113506 2.45412e-21)
(1.05015 0.00813922 5.05454e-22)
(1.05087 0.00587566 -3.43531e-21)
(1.05116 0.00423955 9.79077e-27)
(1.05105 0.00303242 3.03127e-21)
(1.05066 0.00202994 -4.59882e-21)
(1.05006 0.00121448 -1.3479e-22)
(1.04937 0.000372429 -3.08291e-22)
(0.568602 0.0599429 6.94758e-22)
(0.587558 -0.149839 2.51275e-20)
(0.604913 -0.252643 1.47289e-20)
(0.649319 -0.32374 -2.47675e-21)
(0.725567 -0.343058 5.13242e-20)
(0.824484 -0.32129 4.49182e-22)
(0.940995 -0.25616 -5.94511e-21)
(1.05936 -0.155851 4.41779e-20)
(1.15799 -0.0430005 2.16996e-20)
(1.21952 0.0570123 1.32142e-21)
(1.23403 0.127732 -1.87467e-38)
(1.20129 0.155101 -1.48365e-20)
(1.13534 0.140487 -4.25812e-25)
(1.07259 0.105076 1.36865e-21)
(1.04181 0.0733983 -1.66011e-21)
(1.03701 0.0525948 4.68836e-21)
(1.03862 0.0372601 7.26945e-22)
(1.04084 0.025965 -1.62409e-21)
(1.04352 0.0179827 -1.58245e-22)
(1.04607 0.0125851 8.66299e-22)
(1.04813 0.00890848 -3.63814e-21)
(1.04957 0.00647015 -4.48274e-21)
(1.05038 0.00480847 -1.23311e-26)
(1.05065 0.00362039 3.19295e-21)
(1.05049 0.00271961 1.3639e-22)
(1.05004 0.00191292 1.58715e-34)
(1.04939 0.00119582 -2.37138e-22)
(1.04865 0.00038148 0)
(0.558529 0.0539266 5.31808e-21)
(0.577986 -0.150252 2.05502e-20)
(0.587835 -0.254682 1.42879e-20)
(0.614464 -0.335035 3.98161e-20)
(0.666353 -0.364827 -2.10372e-21)
(0.749018 -0.351383 -5.46702e-23)
(0.855841 -0.293573 8.15834e-21)
(0.977033 -0.194859 4.19896e-20)
(1.09219 -0.0736636 1.00661e-20)
(1.17891 0.0436562 2.45234e-20)
(1.22302 0.132942 0)
(1.2211 0.182125 1.43486e-20)
(1.16934 0.180292 -1.3054e-20)
(1.09825 0.142365 9.30556e-22)
(1.04422 0.0957034 -1.08891e-21)
(1.02694 0.0635227 5.66836e-22)
(1.02924 0.0439585 -3.55504e-21)
(1.03389 0.0298376 -2.08898e-21)
(1.03823 0.0200989 -1.88863e-22)
(1.04222 0.0135555 7.06647e-23)
(1.04547 0.0094047 -1.33933e-21)
(1.04784 0.00674059 -1.9407e-21)
(1.04935 0.00508739 7.70363e-22)
(1.05011 0.00400041 3.13288e-21)
(1.05027 0.00321056 3.18462e-22)
(1.04999 0.00255948 3.04003e-22)
(1.04943 0.00189195 1.66344e-21)
(1.0487 0.00122704 1.91739e-22)
(1.0479 0.000401638 -2.74177e-21)
(0.5579 0.043277 1.22317e-21)
(0.576263 -0.154377 -7.12068e-21)
(0.579709 -0.257983 -2.5188e-20)
(0.596616 -0.341619 7.01347e-21)
(0.628702 -0.379096 3.24071e-20)
(0.684874 -0.374682 -3.43548e-21)
(0.774672 -0.326437 -6.50019e-20)
(0.888321 -0.231478 1.50743e-20)
(1.00981 -0.106054 -3.78062e-20)
(1.11646 0.0244939 -1.41712e-20)
(1.18745 0.134041 -1.08789e-35)
(1.21305 0.203324 -2.78836e-20)
(1.19024 0.221146 3.0862e-20)
(1.12822 0.188804 -1.08037e-20)
(1.05914 0.13066 1.5496e-20)
(1.02034 0.0802107 1.74367e-22)
(1.01662 0.05134 5.91583e-22)
(1.02416 0.0341365 -5.72986e-22)
(1.03118 0.0220364 1.70782e-22)
(1.03713 0.0143026 -8.49956e-22)
(1.04197 0.00941987 -2.00892e-21)
(1.04559 0.00660452 -5.82243e-22)
(1.04802 0.00496502 3.1668e-21)
(1.04942 0.0040587 2.97797e-21)
(1.04998 0.00348272 3.11931e-22)
(1.04995 0.00301703 -1.88036e-27)
(1.04949 0.00254612 -4.60361e-22)
(1.04879 0.00195604 -1.32139e-21)
(1.04797 0.00129837 -2.79436e-21)
(1.04709 0.000429059 -6.93812e-25)
(0.571501 0.0267328 -1.08336e-20)
(0.58463 -0.162698 -9.41101e-21)
(0.581495 -0.262886 -6.21009e-22)
(0.58885 -0.348247 2.44433e-21)
(0.608978 -0.388055 -1.7641e-20)
(0.643685 -0.389837 -4.23112e-20)
(0.704472 -0.350707 -2.58995e-22)
(0.801613 -0.265138 -4.76045e-20)
(0.919292 -0.138663 -1.97815e-20)
(1.0361 0.0020843 -3.29283e-20)
(1.12951 0.128776 3.29748e-34)
(1.18285 0.218433 2.37609e-20)
(1.18969 0.257168 2.41886e-20)
(1.15013 0.238963 -1.47797e-20)
(1.08176 0.177939 -3.41578e-21)
(1.02335 0.108131 -6.87531e-21)
(1.00352 0.0616833 -1.32189e-22)
(1.01078 0.0381174 2.77686e-22)
(1.02167 0.0239283 2.57724e-35)
(1.03042 0.0144246 -5.91267e-22)
(1.03742 0.00893754 -4.2833e-23)
(1.04266 0.00581528 -3.18329e-22)
(1.0463 0.00433693 -2.66404e-21)
(1.04853 0.00366949 2.12805e-21)
(1.04965 0.00342483 9.07004e-22)
(1.04992 0.00326438 2.27566e-27)
(1.04962 0.00303092 -2.99899e-22)
(1.04896 0.00266262 3.14857e-22)
(1.0481 0.00208798 9.35739e-22)
(1.04718 0.00139725 -1.11076e-22)
(1.04622 0.000459602 2.58513e-21)
(0.596956 0.00672349 -3.34776e-23)
(0.603529 -0.175144 1.20872e-20)
(0.592706 -0.270039 7.10944e-21)
(0.591424 -0.354709 4.30189e-21)
(0.599258 -0.395964 1.04851e-20)
(0.621284 -0.399482 -8.19331e-21)
(0.658911 -0.367854 -2.14428e-20)
(0.724878 -0.289464 -2.43318e-20)
(0.828024 -0.169792 5.4783e-20)
(0.945954 -0.0227539 -2.30815e-21)
(1.05295 0.118744 3.91403e-35)
(1.12992 0.227741 3.6211e-20)
(1.16507 0.286401 -8.13336e-20)
(1.15388 0.286905 3.94021e-20)
(1.10151 0.232704 1.28056e-20)
(1.03546 0.149897 1.24912e-21)
(0.995629 0.079741 -5.41346e-21)
(0.994439 0.0427414 -7.00056e-22)
(1.00878 0.0247976 -2.17035e-22)
(1.02162 0.0140503 3.96591e-22)
(1.03143 0.00747087 1.71054e-22)
(1.03889 0.00430124 -3.0281e-21)
(1.04409 0.00293307 1.96483e-21)
(1.04743 0.00271474 2.59855e-21)
(1.04925 0.0029065 2.75143e-22)
(1.04993 0.00319699 -5.57767e-23)
(1.04983 0.00333265 -2.94502e-22)
(1.04922 0.00322789 0)
(1.04834 0.00288254 -2.81236e-21)
(1.04734 0.00226591 -1.1929e-21)
(1.04631 0.00150925 2.6122e-21)
(1.04529 0.000489129 -2.50434e-21)
(0.635763 -0.0180237 -2.30316e-21)
(0.633839 -0.190038 -7.68735e-21)
(0.614414 -0.279433 -3.28095e-21)
(0.604305 -0.361335 -2.68829e-21)
(0.600171 -0.402507 -4.30021e-21)
(0.608959 -0.40714 -2.84486e-20)
(0.633315 -0.379434 -5.4005e-21)
(0.674611 -0.307074 4.97573e-21)
(0.744894 -0.192824 -3.17898e-20)
(0.852346 -0.0484249 -7.40529e-21)
(0.964076 0.104394 -1.6273e-20)
(1.05814 0.231292 -2.11613e-20)
(1.11748 0.309497 -7.46669e-21)
(1.13507 0.329105 2.50296e-20)
(1.10797 0.288723 3.82128e-21)
(1.04941 0.202777 1.85906e-22)
(0.995644 0.110542 9.41139e-22)
(0.978802 0.0506514 8.95076e-21)
(0.992101 0.0248993 1.86745e-21)
(1.0099 0.0121326 2.3807e-21)
(1.02374 0.00509013 1.77098e-21)
(1.03395 0.00153908 -2.85414e-21)
(1.04129 0.000632082 -1.49113e-21)
(1.04605 0.000913977 3.4765e-21)
(1.0488 0.00180557 2.36707e-21)
(1.05001 0.00269025 -6.24934e-23)
(1.05016 0.00335733 1.68328e-22)
(1.04963 0.00365346 0)
(1.04871 0.00357006 -2.79427e-21)
(1.04761 0.00317215 -4.54948e-22)
(1.04647 0.0024649 1.4922e-21)
(1.04537 0.00161938 -2.5053e-21)
(1.04429 0.000513778 -7.4426e-25)
(0.686612 -0.0437028 -2.25525e-20)
(0.674835 -0.207931 -1.73871e-20)
(0.646566 -0.290301 3.26539e-21)
(0.626992 -0.368283 -6.97383e-21)
(0.611499 -0.40745 -1.25224e-20)
(0.607229 -0.412753 6.48516e-22)
(0.618115 -0.388661 1.63264e-20)
(0.645695 -0.320607 -7.49214e-21)
(0.690142 -0.211023 2.13502e-20)
(0.763786 -0.0688236 -2.48842e-20)
(0.870507 0.0863412 0)
(0.972998 0.229011 7.90647e-21)
(1.05107 0.326134 2.96882e-20)
(1.09371 0.364083 -5.85632e-20)
(1.09501 0.340699 -3.86946e-21)
(1.05584 0.261023 6.9544e-21)
(1.00045 0.154058 -9.01372e-21)
(0.96779 0.067681 -1.68956e-21)
(0.97288 0.024453 -9.65281e-26)
(0.994755 0.0087538 4.0368e-22)
(1.01361 0.000763565 -2.22837e-22)
(1.0277 -0.00250471 5.43368e-23)
(1.03766 -0.00309195 1.87543e-21)
(1.04436 -0.00189184 1.05097e-21)
(1.0483 -0.000156865 -2.32691e-21)
(1.05022 0.00162769 3.42509e-36)
(1.05068 0.00299668 2.00608e-22)
(1.05023 0.00385921 2.51474e-22)
(1.04926 0.00417384 -2.71926e-21)
(1.04804 0.0040092 5.63773e-27)
(1.04676 0.00349294 2.73345e-21)
(1.04552 0.00265917 8.60847e-22)
(1.04435 0.0017134 1.14117e-22)
(1.04325 0.000530173 2.3327e-21)
(0.748811 -0.0720796 9.40928e-21)
(0.726348 -0.224111 1.98395e-22)
(0.687206 -0.301608 0)
(0.658946 -0.375011 -2.21437e-20)
(0.632574 -0.410829 -1.49758e-21)
(0.615924 -0.416283 1.51541e-20)
(0.613548 -0.395489 3.74947e-21)
(0.627655 -0.33056 -3.62304e-20)
(0.657973 -0.227438 -2.56913e-20)
(0.706099 -0.0867304 5.98924e-21)
(0.780878 0.0696672 -3.0665e-20)
(0.881063 0.221317 -3.61757e-20)
(0.971905 0.336046 1.67109e-21)
(1.03352 0.391301 -2.54672e-20)
(1.06112 0.385158 9.38057e-20)
(1.04751 0.318361 -1.21068e-20)
(1.00301 0.20682 -2.34039e-21)
(0.961813 0.0957993 5.49246e-21)
(0.954495 0.0283924 -1.57505e-34)
(0.975604 0.0025211 -4.68982e-21)
(1.00085 -0.0054537 -1.98594e-21)
(1.01951 -0.00879201 -2.05016e-21)
(1.03313 -0.00839478 -1.01771e-21)
(1.0422 -0.00621845 1.05071e-21)
(1.04777 -0.00315954 -7.16141e-22)
(1.05059 -0.000255284 7.02697e-23)
(1.05148 0.00214932 2.21305e-21)
(1.05112 0.00376319 -6.74018e-22)
(1.05006 0.00463033 -2.4992e-21)
(1.04866 0.00482626 -6.44842e-27)
(1.04719 0.00449021 2.65988e-21)
(1.04578 0.00380503 -2.72184e-21)
(1.04447 0.0028244 4.54859e-35)
(1.04328 0.00177895 2.46393e-21)
(1.04217 0.000535712 0)
(0.833253 -0.106079 -2.77795e-22)
(0.785788 -0.242879 0)
(0.735501 -0.311977 -5.0237e-21)
(0.698884 -0.380382 3.55906e-21)
(0.662363 -0.412585 5.46908e-21)
(0.634571 -0.417998 -1.41743e-20)
(0.619458 -0.400038 -1.03049e-20)
(0.620245 -0.337507 -2.55964e-20)
(0.636859 -0.238887 -1.3141e-19)
(0.671389 -0.107023 8.92451e-20)
(0.722249 0.0532504 4.89337e-20)
(0.795487 0.208816 2.20488e-21)
(0.887383 0.338408 6.39188e-22)
(0.960596 0.410589 -3.34026e-21)
(1.00885 0.420339 -1.23373e-20)
(1.02135 0.369723 -2.82055e-20)
(0.99631 0.263001 5.73487e-21)
(0.956914 0.134995 1.52601e-21)
(0.939106 0.0389197 3.38972e-22)
(0.954575 -0.00349502 7.80069e-22)
(0.984054 -0.0153522 1.7695e-21)
(1.00941 -0.0174071 3.96329e-22)
(1.02719 -0.0161508 -2.27143e-21)
(1.03958 -0.0123181 -3.03392e-23)
(1.04718 -0.00770395 2.4874e-22)
(1.05122 -0.00313589 6.89038e-23)
(1.05265 0.000579933 1.97234e-22)
(1.05241 0.00328756 6.01374e-23)
(1.05121 0.004892 -2.41923e-22)
(1.04957 0.00557811 1.33492e-22)
(1.04783 0.00553334 2.66997e-21)
(1.04617 0.00495597 -2.59935e-21)
(1.04468 0.00407075 -2.58603e-22)
(1.04335 0.00293942 -8.04273e-22)
(1.04217 0.00180655 -4.30247e-23)
(1.0411 0.000528812 -2.26905e-22)
(0.938461 -0.140499 -2.72459e-21)
(0.863397 -0.259376 4.26111e-21)
(0.791309 -0.322047 1.39806e-24)
(0.74561 -0.383984 -2.61173e-20)
(0.699761 -0.4128 4.81958e-21)
(0.662333 -0.417916 2.0647e-20)
(0.635111 -0.401875 -6.16502e-21)
(0.623338 -0.341687 3.8134e-21)
(0.626087 -0.246869 3.49056e-20)
(0.647042 -0.119638 2.75471e-20)
(0.685778 0.0301403 -7.46341e-20)
(0.736934 0.193869 -9.40385e-21)
(0.80641 0.335115 -8.22884e-21)
(0.883265 0.422859 6.47171e-20)
(0.943756 0.445629 3.29555e-20)
(0.978473 0.411809 7.69739e-21)
(0.976141 0.316742 -3.93467e-20)
(0.947783 0.181379 -1.55655e-21)
(0.925263 0.0589892 -1.83022e-22)
(0.933797 -0.00826125 -2.19339e-21)
(0.96429 -0.0278443 1.73557e-21)
(0.996051 -0.0297801 8.38579e-22)
(1.01995 -0.026659 3.2862e-21)
(1.03616 -0.021015 1.44247e-21)
(1.04658 -0.0140967 -1.09694e-22)
(1.05218 -0.00749298 -4.63426e-22)
(1.05436 -0.00186672 -6.01333e-22)
(1.05425 0.00224292 -2.38681e-21)
(1.05286 0.00491193 -3.96289e-21)
(1.05086 0.00625681 -1.21877e-21)
(1.04875 0.00659605 2.71403e-21)
(1.04675 0.00621479 -2.62385e-21)
(1.04499 0.00535262 6.27628e-27)
(1.04348 0.00425752 2.26729e-21)
(1.0422 0.0029882 3.88729e-35)
(1.04107 0.00179044 -1.5188e-22)
(1.04005 0.00050901 -1.90366e-28)
(1.0339 -0.166123 -4.17845e-20)
(0.957674 -0.272441 1.35901e-20)
(0.867443 -0.32741 1.04101e-20)
(0.797147 -0.385177 -1.05255e-23)
(0.743637 -0.411246 -1.27115e-20)
(0.697715 -0.41655 3.11918e-20)
(0.659809 -0.400506 1.96592e-20)
(0.635486 -0.342909 -5.31949e-20)
(0.626195 -0.251255 1.13764e-19)
(0.632428 -0.129546 -8.36882e-20)
(0.657993 0.0178633 -7.97808e-20)
(0.699098 0.172533 -1.21623e-20)
(0.748497 0.322075 2.68005e-20)
(0.810073 0.428367 3.39551e-22)
(0.873971 0.460876 -3.19795e-20)
(0.923419 0.443419 1.60619e-20)
(0.941736 0.363469 -6.78432e-21)
(0.930218 0.229642 3.98475e-20)
(0.910341 0.0873516 -1.82059e-21)
(0.912771 -0.00776892 -4.68826e-22)
(0.942793 -0.0430995 -1.46287e-22)
(0.97977 -0.046331 -1.4115e-21)
(1.01044 -0.0409806 3.58108e-22)
(1.03203 -0.0327865 -2.72301e-22)
(1.04585 -0.0231519 -3.529e-23)
(1.05363 -0.0136457 2.93586e-35)
(1.05676 -0.00562756 -1.57552e-22)
(1.05686 0.000513647 -1.39536e-23)
(1.05518 0.00456195 -2.01628e-22)
(1.0527 0.00685199 2.34057e-21)
(1.05005 0.00771128 2.50025e-23)
(1.04758 0.00757327 -2.69956e-21)
(1.04545 0.00679504 -7.43075e-27)
(1.04368 0.00563364 2.44879e-21)
(1.04223 0.00434071 9.7933e-23)
(1.04103 0.00296108 7.38926e-22)
(1.03998 0.00172881 1.44242e-23)
(1.03905 0.000476995 2.05501e-22)
(1.11555 -0.179482 6.75704e-21)
(1.0465 -0.277317 9.40204e-22)
(0.956856 -0.327448 1.79964e-20)
(0.866576 -0.382107 1.43564e-20)
(0.791863 -0.408061 2.51344e-21)
(0.738918 -0.412854 1.92994e-20)
(0.691906 -0.395644 2.66681e-20)
(0.655989 -0.340746 4.58806e-20)
(0.635203 -0.252281 1.79091e-20)
(0.629319 -0.134969 3.90298e-20)
(0.640051 0.0057795 5.34919e-20)
(0.668718 0.160227 8.78804e-21)
(0.710448 0.305339 2.06699e-20)
(0.755741 0.4218 1.9659e-21)
(0.807368 0.468838 3.22335e-21)
(0.862449 0.46392 -5.39744e-20)
(0.896175 0.401412 -4.08819e-20)
(0.901924 0.274596 -5.50352e-21)
(0.891589 0.120704 6.31571e-22)
(0.891423 -0.00148014 2.24546e-22)
(0.918834 -0.0577915 0)
(0.961095 -0.0676282 -6.03974e-22)
(0.998585 -0.0602341 4.86515e-22)
(1.02663 -0.0486376 1.92009e-21)
(1.0451 -0.0354573 -3.0964e-22)
(1.05563 -0.0224061 2.61824e-23)
(1.06015 -0.0109944 1.56894e-21)
(1.0605 -0.00226485 8.45171e-23)
(1.05845 0.00378123 -2.40491e-21)
(1.05528 0.00730733 -1.34387e-22)
(1.05189 0.00890808 -8.55366e-22)
(1.04876 0.00910244 -5.65974e-22)
(1.04611 0.00840531 4.24096e-22)
(1.04397 0.00720897 2.48972e-21)
(1.04229 0.00576414 0)
(1.04096 0.00430573 -4.04621e-22)
(1.03989 0.00285525 -1.88626e-21)
(1.03895 0.00162386 1.58309e-22)
(1.03812 0.000434495 1.94634e-22)
(1.18162 -0.184865 4.5385e-23)
(1.1214 -0.273139 -1.21167e-20)
(1.03886 -0.320257 -2.58454e-20)
(0.949141 -0.371646 3.17209e-25)
(0.856676 -0.400962 1.52671e-20)
(0.783422 -0.406138 2.01417e-20)
(0.729279 -0.387307 -2.08284e-20)
(0.683471 -0.334598 6.29551e-20)
(0.651976 -0.249859 -2.66383e-20)
(0.635311 -0.136637 2.13479e-20)
(0.63398 -0.000887169 -8.07621e-22)
(0.649042 0.147108 1.29373e-20)
(0.679593 0.292684 5.02031e-21)
(0.72024 0.410682 1.20025e-20)
(0.757471 0.470082 2.5139e-21)
(0.801768 0.473742 -7.84014e-21)
(0.844452 0.4299 8.03923e-20)
(0.864734 0.312743 6.22798e-21)
(0.866457 0.15503 1.52507e-21)
(0.868811 0.00988323 -5.84704e-21)
(0.893878 -0.0716206 1.27416e-21)
(0.939018 -0.0917857 -7.0812e-22)
(0.984455 -0.0847702 1.89797e-21)
(1.01964 -0.0697263 -3.2454e-21)
(1.04407 -0.0521671 1.8477e-22)
(1.05844 -0.0344248 6.59906e-23)
(1.06479 -0.018751 1.46907e-23)
(1.06556 -0.00631917 1.92997e-35)
(1.06298 0.0023131 -2.26022e-21)
(1.0589 0.00762945 4.18509e-23)
(1.05446 0.0102053 2.56605e-21)
(1.05042 0.0108698 -3.68906e-21)
(1.04704 0.0102861 1.87225e-22)
(1.04439 0.00900241 2.50011e-21)
(1.04238 0.00740822 0)
(1.04088 0.00572387 -2.32611e-22)
(1.03972 0.00414871 -3.35309e-23)
(1.03881 0.00267491 1.12176e-21)
(1.038 0.00148153 2.74867e-22)
(1.03729 0.000384047 1.89382e-28)
(1.22449 -0.17982 -3.04238e-21)
(1.17503 -0.25963 -1.59354e-21)
(1.10609 -0.304726 8.01535e-21)
(1.02384 -0.353797 -1.65736e-20)
(0.932419 -0.384608 -5.46004e-20)
(0.84269 -0.393027 -1.02325e-20)
(0.76933 -0.375139 -2.21654e-20)
(0.716221 -0.324719 -1.73782e-20)
(0.67526 -0.243179 -1.72291e-20)
(0.64863 -0.134635 -1.30249e-19)
(0.636855 -0.00381401 4.06017e-20)
(0.640202 0.139255 -8.68376e-20)
(0.659057 0.280029 -2.09532e-20)
(0.690807 0.3995 -1.63604e-20)
(0.726117 0.466969 -8.98997e-21)
(0.755229 0.477456 3.3784e-20)
(0.792614 0.445815 -3.07851e-20)
(0.822242 0.341677 -1.51833e-20)
(0.836432 0.185106 9.78872e-21)
(0.843422 0.0254772 5.75376e-22)
(0.867166 -0.0829997 -4.11681e-25)
(0.913841 -0.119375 3.2712e-22)
(0.966444 -0.114722 2.37184e-21)
(1.01069 -0.0966082 5.03856e-21)
(1.04231 -0.0742707 -1.60791e-21)
(1.06198 -0.0509863 -1.75064e-26)
(1.07112 -0.0295537 1.04962e-21)
(1.07254 -0.012363 9.7503e-22)
(1.06932 2.73569e-05 -2.0686e-22)
(1.06391 0.00769807 -8.58799e-22)
(1.05808 0.0116852 2.88164e-21)
(1.05274 0.0129646 1.7596e-23)
(1.04836 0.012538 3.28327e-35)
(1.04499 0.0111386 -3.11495e-21)
(1.04252 0.00929848 -5.36831e-22)
(1.04076 0.00736539 -2.3641e-22)
(1.0395 0.00550808 2.05267e-27)
(1.03856 0.00387661 3.17775e-22)
(1.03782 0.00243057 -1.05686e-21)
(1.03715 0.00131064 -1.40496e-22)
(1.03656 0.000328808 -1.73501e-22)
(1.23794 -0.165534 -7.5727e-22)
(1.20494 -0.237523 -1.27487e-22)
(1.15293 -0.280874 -3.0676e-21)
(1.08376 -0.327903 1.10426e-34)
(0.999743 -0.359238 4.44219e-20)
(0.91081 -0.370948 1.59622e-20)
(0.822789 -0.356472 2.83064e-22)
(0.751724 -0.310413 1.30086e-20)
(0.703665 -0.232868 3.29446e-20)
(0.668108 -0.12785 -9.00403e-20)
(0.646673 -0.00274067 3.12711e-20)
(0.639933 0.134806 -1.5457e-19)
(0.647939 0.270945 -4.00006e-20)
(0.670176 0.387912 -1.88146e-20)
(0.699961 0.461025 2.52889e-20)
(0.727712 0.477925 -2.11397e-20)
(0.752764 0.454774 4.76506e-20)
(0.781609 0.35514 3.00441e-20)
(0.802587 0.209602 2.17576e-20)
(0.816992 0.0387633 -2.26681e-20)
(0.839599 -0.0900692 -8.35227e-21)
(0.885801 -0.148325 7.53121e-21)
(0.94479 -0.149755 1.01466e-20)
(0.998145 -0.129759 -2.26169e-21)
(1.03909 -0.102756 -7.06207e-21)
(1.06573 -0.0729397 -1.53445e-21)
(1.07915 -0.0446592 -7.64726e-25)
(1.08201 -0.0209231 0)
(1.07808 -0.00363792 -1.46257e-21)