/*--------------------------------*- C++ -*----------------------------------*\
| =========                 |                                                 |
| \\      /  F ield         | OpenFOAM: The Open Source CFD Toolbox           |
|  \\    /   O peration     | Version:  2506                                  |
|   \\  /    A nd           | Website:  www.openfoam.com                      |
|    \\/     M anipulation  |                                                 |
\*---------------------------------------------------------------------------*/
FoamFile
{
    version     2.0;
    format      ascii;
    arch        "LSB;label=32;scalar=64";
    class       volScalarField;
    location    "200";
    object      nut;
}
// * * * * * * * * * * * * * * * * * * * * * * * * * * * * * * * * * * * * * //

dimensions      [0 2 -1 0 0 0 0];

internalField   nonuniform List<scalar> 
1340
(
6.10094e-06
6.10028e-06
6.09916e-06
6.09849e-06
6.09764e-06
6.10098e-06
6.10034e-06
6.09922e-06
6.09838e-06
6.09743e-06
6.09856e-06
6.10082e-06
6.10035e-06
6.09936e-06
6.09845e-06
6.09742e-06
6.0984e-06
6.09874e-06
6.10065e-06
6.10045e-06
6.09964e-06
6.0987e-06
6.09756e-06
6.09838e-06
6.09866e-06
6.09806e-06
6.1006e-06
6.10064e-06
6.09998e-06
6.09896e-06
6.09773e-06
6.0984e-06
6.09864e-06
6.09807e-06
6.09778e-06
6.10062e-06
6.10078e-06
6.1002e-06
6.09913e-06
6.09781e-06
6.09837e-06
6.09858e-06
6.09807e-06
6.09779e-06
6.09771e-06
6.10059e-06
6.10078e-06
6.10026e-06
6.09919e-06
6.09784e-06
6.0983e-06
6.09848e-06
6.09802e-06
6.09777e-06
6.09766e-06
6.1004e-06
6.10063e-06
6.10023e-06
6.09922e-06
6.09787e-06
6.09823e-06
6.09837e-06
6.09796e-06
6.09771e-06
6.09758e-06
6.09748e-06
6.10012e-06
6.10044e-06
6.1002e-06
6.0993e-06
6.09797e-06
6.0982e-06
6.09829e-06
6.0979e-06
6.09764e-06
6.09747e-06
6.09735e-06
6.09986e-06
6.10032e-06
6.10022e-06
6.09941e-06
6.09811e-06
6.09823e-06
6.09825e-06
6.09787e-06
6.09757e-06
6.09737e-06
6.0972e-06
6.09711e-06
6.09972e-06
6.10026e-06
6.10024e-06
6.09949e-06
6.09824e-06
6.09826e-06
6.09823e-06
6.09786e-06
6.09752e-06
6.09727e-06
6.09707e-06
6.09695e-06
6.09965e-06
6.10019e-06
6.10021e-06
6.09949e-06
6.0983e-06
6.09825e-06
6.09819e-06
6.09783e-06
6.09746e-06
6.09717e-06
6.09694e-06
6.09679e-06
6.09959e-06
6.10005e-06
6.10008e-06
6.09942e-06
6.09829e-06
6.09819e-06
6.09811e-06
6.09777e-06
6.09737e-06
6.09706e-06
6.09681e-06
6.09665e-06
6.09652e-06
6.09947e-06
6.09985e-06
6.09991e-06
6.09932e-06
6.09825e-06
6.09811e-06
6.098e-06
6.09767e-06
6.09725e-06
6.09693e-06
6.09667e-06
6.0965e-06
6.09636e-06
6.09931e-06
6.09965e-06
6.09976e-06
6.09924e-06
6.09822e-06
6.09802e-06
6.09789e-06
6.09755e-06
6.09713e-06
6.09679e-06
6.09652e-06
6.09634e-06
6.0962e-06
6.09608e-06
6.09918e-06
6.0995e-06
6.09966e-06
6.0992e-06
6.09822e-06
6.09797e-06
6.09779e-06
6.09744e-06
6.09701e-06
6.09666e-06
6.09638e-06
6.0962e-06
6.09605e-06
6.09592e-06
6.0991e-06
6.09942e-06
6.09959e-06
6.09917e-06
6.09824e-06
6.09793e-06
6.09771e-06
6.09735e-06
6.09692e-06
6.09655e-06
6.09626e-06
6.09606e-06
6.0959e-06
6.09577e-06
6.09908e-06
6.09937e-06
6.09952e-06
6.09911e-06
6.09823e-06
6.09789e-06
6.09763e-06
6.09726e-06
6.09683e-06
6.09646e-06
6.09616e-06
6.09595e-06
6.09577e-06
6.09562e-06
6.0955e-06
6.09907e-06
6.0993e-06
6.09941e-06
6.09902e-06
6.09818e-06
6.09782e-06
6.09754e-06
6.09716e-06
6.09673e-06
6.09636e-06
6.09608e-06
6.09585e-06
6.09566e-06
6.09551e-06
6.09539e-06
6.09903e-06
6.09919e-06
6.09928e-06
6.09889e-06
6.0981e-06
6.09771e-06
6.09742e-06
6.09703e-06
6.09661e-06
6.09625e-06
6.09598e-06
6.09574e-06
6.09556e-06
6.09542e-06
6.09532e-06
6.09895e-06
6.09905e-06
6.09912e-06
6.09876e-06
6.09799e-06
6.09758e-06
6.09727e-06
6.09688e-06
6.09646e-06
6.09612e-06
6.09586e-06
6.09563e-06
6.09546e-06
6.09533e-06
6.09523e-06
6.09516e-06
6.09885e-06
6.09892e-06
6.09898e-06
6.09862e-06
6.09787e-06
6.09744e-06
6.09711e-06
6.09671e-06
6.0963e-06
6.09597e-06
6.09571e-06
6.0955e-06
6.09534e-06
6.09522e-06
6.09512e-06
6.09505e-06
6.09879e-06
6.09885e-06
6.09849e-06
6.09775e-06
6.0973e-06
6.09694e-06
6.09653e-06
6.09613e-06
6.0958e-06
6.09555e-06
6.09535e-06
6.0952e-06
6.09508e-06
6.09499e-06
6.09492e-06
6.09488e-06
6.09869e-06
6.09872e-06
6.09836e-06
6.09763e-06
6.09715e-06
6.09676e-06
6.09635e-06
6.09594e-06
6.09562e-06
6.09538e-06
6.09518e-06
6.09504e-06
6.09493e-06
6.09484e-06
6.09477e-06
6.09473e-06
6.09858e-06
6.09859e-06
6.09822e-06
6.0975e-06
6.09699e-06
6.09658e-06
6.09615e-06
6.09575e-06
6.09543e-06
6.09519e-06
6.095e-06
6.09485e-06
6.09474e-06
6.09466e-06
6.0946e-06
6.09455e-06
6.09846e-06
6.09844e-06
6.09807e-06
6.09734e-06
6.09682e-06
6.09638e-06
6.09595e-06
6.09554e-06
6.09522e-06
6.09499e-06
6.09479e-06
6.09465e-06
6.09454e-06
6.09446e-06
6.09439e-06
6.09434e-06
6.09431e-06
6.09833e-06
6.09828e-06
6.0979e-06
6.09717e-06
6.09662e-06
6.09617e-06
6.09573e-06
6.09532e-06
6.09501e-06
6.09477e-06
6.09457e-06
6.09442e-06
6.09431e-06
6.09422e-06
6.09416e-06
6.0941e-06
6.09406e-06
6.09818e-06
6.09812e-06
6.09772e-06
6.09699e-06
6.09642e-06
6.09594e-06
6.09549e-06
6.09509e-06
6.09477e-06
6.09452e-06
6.09432e-06
6.09417e-06
6.09405e-06
6.09396e-06
6.09388e-06
6.09383e-06
6.09378e-06
6.09803e-06
6.09795e-06
6.09754e-06
6.09679e-06
6.0962e-06
6.0957e-06
6.09524e-06
6.09483e-06
6.09451e-06
6.09425e-06
6.09404e-06
6.09388e-06
6.09375e-06
6.09365e-06
6.09357e-06
6.09351e-06
6.09345e-06
6.09341e-06
6.09788e-06
6.09777e-06
6.09734e-06
6.09658e-06
6.09596e-06
6.09545e-06
6.09498e-06
6.09456e-06
6.09423e-06
6.09396e-06
6.09374e-06
6.09356e-06
6.09342e-06
6.0933e-06
6.09321e-06
6.09314e-06
6.09308e-06
6.09303e-06
6.09772e-06
6.09758e-06
6.09713e-06
6.09636e-06
6.09571e-06
6.09518e-06
6.0947e-06
6.09427e-06
6.09392e-06
6.09364e-06
6.09339e-06
6.09319e-06
6.09304e-06
6.09291e-06
6.09281e-06
6.09272e-06
6.09265e-06
6.09259e-06
6.09753e-06
6.09736e-06
6.0969e-06
6.09611e-06
6.09544e-06
6.0949e-06
6.0944e-06
6.09396e-06
6.09359e-06
6.09328e-06
6.09301e-06
6.09278e-06
6.09261e-06
6.09246e-06
6.09234e-06
6.09224e-06
6.09216e-06
6.09209e-06
6.09203e-06
6.09733e-06
6.09713e-06
6.09665e-06
6.09584e-06
6.09515e-06
6.09459e-06
6.09408e-06
6.09362e-06
6.09322e-06
6.09288e-06
6.09257e-06
6.09232e-06
6.09212e-06
6.09195e-06
6.09181e-06
6.0917e-06
6.0916e-06
6.09152e-06
6.09145e-06
6.09711e-06
6.0969e-06
6.09638e-06
6.09555e-06
6.09484e-06
6.09427e-06
6.09374e-06
6.09325e-06
6.09281e-06
6.09243e-06
6.09209e-06
6.0918e-06
6.09157e-06
6.09138e-06
6.09122e-06
6.09109e-06
6.09098e-06
6.09089e-06
6.09081e-06
6.09689e-06
6.09665e-06
6.09611e-06
6.09525e-06
6.09452e-06
6.09393e-06
6.09338e-06
6.09285e-06
6.09237e-06
6.09193e-06
6.09155e-06
6.09122e-06
6.09096e-06
6.09074e-06
6.09057e-06
6.09042e-06
6.0903e-06
6.09019e-06
6.0901e-06
6.09002e-06
6.09666e-06
6.0964e-06
6.09584e-06
6.09495e-06
6.09419e-06
6.09358e-06
6.09299e-06
6.09242e-06
6.09188e-06
6.09139e-06
6.09095e-06
6.09059e-06
6.09029e-06
6.09004e-06
6.08985e-06
6.08969e-06
6.08955e-06
6.08944e-06
6.08934e-06
6.08925e-06
6.09643e-06
6.09614e-06
6.09555e-06
6.09463e-06
6.09385e-06
6.09321e-06
6.09259e-06
6.09195e-06
6.09135e-06
6.09079e-06
6.0903e-06
6.08989e-06
6.08956e-06
6.08929e-06
6.08907e-06
6.0889e-06
6.08875e-06
6.08863e-06
6.08853e-06
6.08843e-06
6.09618e-06
6.09586e-06
6.09523e-06
6.09428e-06
6.09349e-06
6.09282e-06
6.09215e-06
6.09145e-06
6.09077e-06
6.09014e-06
6.08959e-06
6.08913e-06
6.08877e-06
6.08848e-06
6.08825e-06
6.08807e-06
6.08791e-06
6.08779e-06
6.08768e-06
6.08758e-06
6.0875e-06
6.09591e-06
6.09555e-06
6.09489e-06
6.09392e-06
6.09311e-06
6.09241e-06
6.09168e-06
6.0909e-06
6.09014e-06
6.08943e-06
6.08882e-06
6.08833e-06
6.08794e-06
6.08763e-06
6.08739e-06
6.0872e-06
6.08705e-06
6.08692e-06
6.08681e-06
6.08671e-06
6.08663e-06
6.0956e-06
6.09522e-06
6.09452e-06
6.09352e-06
6.09269e-06
6.09196e-06
6.09116e-06
6.0903e-06
6.08945e-06
6.08867e-06
6.088e-06
6.08748e-06
6.08707e-06
6.08675e-06
6.08651e-06
6.08632e-06
6.08616e-06
6.08604e-06
6.08593e-06
6.08584e-06
6.08576e-06
6.09527e-06
6.09486e-06
6.09413e-06
6.0931e-06
6.09225e-06
6.09148e-06
6.0906e-06
6.08963e-06
6.08869e-06
6.08785e-06
6.08714e-06
6.08659e-06
6.08617e-06
6.08585e-06
6.08561e-06
6.08542e-06
6.08527e-06
6.08515e-06
6.08505e-06
6.08497e-06
6.08489e-06
6.09493e-06
6.09449e-06
6.09372e-06
6.09266e-06
6.09179e-06
6.09097e-06
6.08999e-06
6.08892e-06
6.08789e-06
6.08698e-06
6.08624e-06
6.08568e-06
6.08526e-06
6.08494e-06
6.08471e-06
6.08453e-06
6.08438e-06
6.08427e-06
6.08417e-06
6.08409e-06
6.08401e-06
6.08395e-06
6.09457e-06
6.09411e-06
6.0933e-06
6.09221e-06
6.09132e-06
6.09043e-06
6.08934e-06
6.08815e-06
6.08703e-06
6.08608e-06
6.08532e-06
6.08475e-06
6.08434e-06
6.08403e-06
6.0838e-06
6.08362e-06
6.08348e-06
6.08336e-06
6.08327e-06
6.08318e-06
6.08311e-06
6.08304e-06
6.09419e-06
6.0937e-06
6.09286e-06
6.09174e-06
6.09082e-06
6.08986e-06
6.08864e-06
6.08734e-06
6.08614e-06
6.08515e-06
6.08438e-06
6.08382e-06
6.08341e-06
6.0831e-06
6.08287e-06
6.08268e-06
6.08254e-06
6.08242e-06
6.08231e-06
6.08221e-06
6.08213e-06
6.08204e-06
6.09379e-06
6.09328e-06
6.0924e-06
6.09124e-06
6.0903e-06
6.08924e-06
6.0879e-06
6.08648e-06
6.08522e-06
6.08421e-06
6.08344e-06
6.08288e-06
6.08246e-06
6.08214e-06
6.08189e-06
6.08169e-06
6.08152e-06
6.08138e-06
6.08125e-06
6.08113e-06
6.08102e-06
6.08091e-06
6.09337e-06
6.09282e-06
6.0919e-06
6.09072e-06
6.08974e-06
6.08859e-06
6.08711e-06
6.08559e-06
6.08429e-06
6.08326e-06
6.08249e-06
6.08191e-06
6.08147e-06
6.08111e-06
6.08083e-06
6.08059e-06
6.08039e-06
6.08021e-06
6.08004e-06
6.07989e-06
6.07974e-06
6.0796e-06
6.07945e-06
6.09291e-06
6.09233e-06
6.09138e-06
6.09017e-06
6.08916e-06
6.08789e-06
6.08626e-06
6.08466e-06
6.08333e-06
6.0823e-06
6.08151e-06
6.08089e-06
6.08039e-06
6.07998e-06
6.07963e-06
6.07934e-06
6.07908e-06
6.07886e-06
6.07865e-06
6.07845e-06
6.07826e-06
6.07808e-06
6.07788e-06
6.09241e-06
6.09181e-06
6.09082e-06
6.08959e-06
6.08853e-06
6.08713e-06
6.08538e-06
6.08371e-06
6.08237e-06
6.08132e-06
6.08048e-06
6.07979e-06
6.0792e-06
6.0787e-06
6.07828e-06
6.07792e-06
6.0776e-06
6.07733e-06
6.07708e-06
6.07684e-06
6.07662e-06
6.07639e-06
6.07617e-06
6.09189e-06
6.09126e-06
6.09024e-06
6.08898e-06
6.08787e-06
6.08633e-06
6.08445e-06
6.08274e-06
6.08139e-06
6.0803e-06
6.07936e-06
6.07856e-06
6.07787e-06
6.07728e-06
6.07678e-06
6.07635e-06
6.07599e-06
6.07568e-06
6.0754e-06
6.07515e-06
6.07491e-06
6.07467e-06
6.07444e-06
6.09133e-06
6.09068e-06
6.08962e-06
6.08834e-06
6.08717e-06
6.08548e-06
6.08349e-06
6.08176e-06
6.08038e-06
6.0792e-06
6.07814e-06
6.07721e-06
6.07641e-06
6.07574e-06
6.07519e-06
6.07474e-06
6.07436e-06
6.07405e-06
6.07378e-06
6.07354e-06
6.07332e-06
6.07311e-06
6.07291e-06
6.09074e-06
6.09007e-06
6.08898e-06
6.08767e-06
6.08643e-06
6.08459e-06
6.08252e-06
6.08077e-06
6.07933e-06
6.07802e-06
6.07681e-06
6.07576e-06
6.07489e-06
6.0742e-06
6.07366e-06
6.07324e-06
6.07291e-06
6.07265e-06
6.07244e-06
6.07226e-06
6.07211e-06
6.07198e-06
6.07186e-06
6.07176e-06
6.09012e-06
6.08942e-06
6.08831e-06
6.08697e-06
6.08566e-06
6.08366e-06
6.08153e-06
6.07976e-06
6.07821e-06
6.07674e-06
6.0754e-06
6.0743e-06
6.07345e-06
6.07283e-06
6.07239e-06
6.07209e-06
6.07188e-06
6.07173e-06
6.07163e-06
6.07157e-06
6.07153e-06
6.07152e-06
6.07154e-06
6.07159e-06
6.08945e-06
6.08874e-06
6.0876e-06
6.08624e-06
6.08484e-06
6.08269e-06
6.08053e-06
6.07871e-06
6.07702e-06
6.07539e-06
6.074e-06
6.07297e-06
6.07228e-06
6.07185e-06
6.07162e-06
6.07151e-06
6.07148e-06
6.07151e-06
6.07158e-06
6.07167e-06
6.07178e-06
6.07191e-06
6.07206e-06
6.07225e-06
6.08874e-06
6.08801e-06
6.08686e-06
6.08547e-06
6.08398e-06
6.0817e-06
6.07952e-06
6.07762e-06
6.07576e-06
6.07406e-06
6.07277e-06
6.07197e-06
6.07158e-06
6.07146e-06
6.07152e-06
6.07167e-06
6.07186e-06
6.07207e-06
6.07228e-06
6.07251e-06
6.07274e-06
6.073e-06
6.07328e-06
6.0736e-06
6.08799e-06
6.08725e-06
6.08607e-06
6.08467e-06
6.08308e-06
6.08068e-06
6.0785e-06
6.07647e-06
6.07447e-06
6.07286e-06
6.07187e-06
6.07147e-06
6.07151e-06
6.07177e-06
6.07213e-06
6.07251e-06
6.0729e-06
6.07327e-06
6.07363e-06
6.07399e-06
6.07435e-06
6.07473e-06
6.07515e-06
6.0756e-06
6.08719e-06
6.08644e-06
6.08525e-06
6.08383e-06
6.08214e-06
6.07964e-06
6.07746e-06
6.07527e-06
6.07326e-06
6.07194e-06
6.07145e-06
6.07159e-06
6.07207e-06
6.07269e-06
6.07333e-06
6.07395e-06
6.07453e-06
6.07507e-06
6.07557e-06
6.07607e-06
6.07656e-06
6.07706e-06
6.07761e-06
6.0782e-06
6.08633e-06
6.08558e-06
6.08439e-06
6.08294e-06
6.08116e-06
6.0786e-06
6.07639e-06
6.07407e-06
6.07224e-06
6.07145e-06
6.07159e-06
6.07227e-06
6.07318e-06
6.07415e-06
6.07508e-06
6.07593e-06
6.0767e-06
6.0774e-06
6.07805e-06
6.07867e-06
6.07927e-06
6.07989e-06
6.08055e-06
6.08126e-06
6.08199e-06
6.08542e-06
6.08467e-06
6.08348e-06
6.08201e-06
6.08014e-06
6.07754e-06
6.07528e-06
6.07295e-06
6.07158e-06
6.07146e-06
6.07224e-06
6.07344e-06
6.07479e-06
6.07611e-06
6.07731e-06
6.07838e-06
6.07932e-06
6.08017e-06
6.08093e-06
6.08165e-06
6.08235e-06
6.08305e-06
6.0838e-06
6.0846e-06
6.08541e-06
6.08459e-06
6.08384e-06
6.08265e-06
6.08115e-06
6.07917e-06
6.07651e-06
6.07409e-06
6.07196e-06
6.07134e-06
6.07193e-06
6.07328e-06
6.07494e-06
6.07664e-06
6.07822e-06
6.07961e-06
6.08082e-06
6.08187e-06
6.08279e-06
6.08362e-06
6.08439e-06
6.08513e-06
6.08587e-06
6.08666e-06
6.08749e-06
6.08834e-06
6.08388e-06
6.08313e-06
6.08192e-06
6.08037e-06
6.07829e-06
6.07555e-06
6.07291e-06
6.07132e-06
6.07152e-06
6.07282e-06
6.07469e-06
6.0767e-06
6.07862e-06
6.08034e-06
6.08181e-06
6.08306e-06
6.08414e-06
6.08507e-06
6.0859e-06
6.08666e-06
6.0874e-06
6.08813e-06
6.0889e-06
6.08971e-06
6.09054e-06
6.0831e-06
6.08235e-06
6.08114e-06
6.07954e-06
6.07737e-06
6.07455e-06
6.07175e-06
6.07114e-06
6.07213e-06
6.07411e-06
6.07644e-06
6.07873e-06
6.0808e-06
6.08258e-06
6.08408e-06
6.08532e-06
6.08638e-06
6.08728e-06
6.08807e-06
6.0888e-06
6.0895e-06
6.09019e-06
6.09091e-06
6.09167e-06
6.09245e-06
6.08223e-06
6.08149e-06
6.08028e-06
6.07864e-06
6.07639e-06
6.07352e-06
6.07068e-06
6.07125e-06
6.07308e-06
6.07574e-06
6.07845e-06
6.08093e-06
6.08306e-06
6.08483e-06
6.08627e-06
6.08745e-06
6.08843e-06
6.08926e-06
6.08999e-06
6.09066e-06
6.09129e-06
6.09191e-06
6.09257e-06
6.09327e-06
6.09398e-06
6.08127e-06
6.08054e-06
6.07934e-06
6.07768e-06
6.07538e-06
6.07247e-06
6.06978e-06
6.07169e-06
6.07439e-06
6.07763e-06
6.0806e-06
6.08311e-06
6.08517e-06
6.08682e-06
6.08814e-06
6.0892e-06
6.09007e-06
6.09082e-06
6.09147e-06
6.09206e-06
6.09263e-06
6.0932e-06
6.0938e-06
6.09446e-06
6.09514e-06
6.0802e-06
6.0795e-06
6.07832e-06
6.07666e-06
6.07433e-06
6.07143e-06
6.06915e-06
6.07244e-06
6.07592e-06
6.07958e-06
6.08259e-06
6.08498e-06
6.08685e-06
6.08833e-06
6.0895e-06
6.09045e-06
6.09124e-06
6.09193e-06
6.09255e-06
6.09312e-06
6.09369e-06
6.09427e-06
6.0949e-06
6.0956e-06
6.09635e-06
6.07903e-06
6.07835e-06
6.07721e-06
6.07557e-06
6.07327e-06
6.07045e-06
6.06889e-06
6.07336e-06
6.07742e-06
6.08124e-06
6.0841e-06
6.08627e-06
6.08796e-06
6.08932e-06
6.09044e-06
6.0914e-06
6.09225e-06
6.093e-06
6.09371e-06
6.09439e-06
6.09507e-06
6.09579e-06
6.09658e-06
6.09748e-06
6.09846e-06
6.07773e-06
6.0771e-06
6.07601e-06
6.07442e-06
6.0722e-06
6.06957e-06
6.06906e-06
6.07422e-06
6.07854e-06
6.08225e-06
6.08491e-06
6.08698e-06
6.0887e-06
6.09022e-06
6.09156e-06
6.09276e-06
6.09385e-06
6.09486e-06
6.0958e-06
6.09672e-06
6.09764e-06
6.09861e-06
6.09968e-06
6.1009e-06
6.10221e-06
6.10354e-06
6.07628e-06
6.07571e-06
6.07472e-06
6.07323e-06
6.07115e-06
6.06888e-06
6.06958e-06
6.07469e-06
6.07891e-06
6.0825e-06
6.08524e-06
6.08762e-06
6.08981e-06
6.09182e-06
6.09363e-06
6.09524e-06
6.09667e-06
6.09797e-06
6.09916e-06
6.10029e-06
6.10141e-06
6.10256e-06
6.10381e-06
6.10519e-06
6.10665e-06
6.1081e-06
6.07469e-06
6.0742e-06
6.07332e-06
6.072e-06
6.07015e-06
6.06842e-06
6.06999e-06
6.07446e-06
6.07846e-06
6.08236e-06
6.08578e-06
6.08891e-06
6.09171e-06
6.09414e-06
6.09618e-06
6.09789e-06
6.09933e-06
6.10058e-06
6.10167e-06
6.10268e-06
6.10363e-06
6.10458e-06
6.10557e-06
6.10663e-06
6.1077e-06
6.10872e-06
6.07292e-06
6.07253e-06
6.07183e-06
6.07075e-06
6.06924e-06
6.06821e-06
6.07012e-06
6.0734e-06
6.0775e-06
6.08234e-06
6.08649e-06
6.08979e-06
6.09227e-06
6.09409e-06
6.09543e-06
6.09643e-06
6.09721e-06
6.09784e-06
6.09837e-06
6.09883e-06
6.09924e-06
6.09965e-06
6.10009e-06
6.10059e-06
6.10117e-06
6.1018e-06
6.07096e-06
6.0707e-06
6.07023e-06
6.06949e-06
6.06847e-06
6.06814e-06
6.0697e-06
6.07148e-06
6.0762e-06
6.08119e-06
6.08384e-06
6.08512e-06
6.08585e-06
6.08641e-06
6.08694e-06
6.08747e-06
6.08799e-06
6.08849e-06
6.08898e-06
6.08944e-06
6.08995e-06
6.09068e-06
6.09174e-06
6.09321e-06
6.0951e-06
6.09726e-06
6.06878e-06
6.06868e-06
6.06851e-06
6.06823e-06
6.06786e-06
6.06787e-06
6.06852e-06
6.06894e-06
6.07263e-06
6.07396e-06
6.07219e-06
6.07189e-06
6.07303e-06
6.07503e-06
6.07738e-06
6.0798e-06
6.08213e-06
6.08431e-06
6.08634e-06
6.08824e-06
6.09007e-06
6.0919e-06
6.09379e-06
6.09581e-06
6.09789e-06
6.09992e-06
)
;

boundaryField
{
    inlet
    {
        type            freestream;
        freestreamValue uniform 1e-05;
        value           uniform 1e-05;
    }
    outlet
    {
        type            freestream;
        freestreamValue nonuniform List<scalar> 0();
        value           nonuniform List<scalar> 0();
    }
    walls
    {
        type            nutUSpaldingWallFunction;
        value           nonuniform List<scalar> 0();
    }
    frontAndBack
    {
        type            empty;
    }
    procBoundary0to1
    {
        type            processor;
        value           nonuniform List<scalar> 
94
(
6.09803e-06
6.09891e-06
6.09891e-06
6.09894e-06
6.09894e-06
6.0981e-06
6.0981e-06
6.09774e-06
6.09774e-06
6.09771e-06
6.09771e-06
6.09763e-06
6.09758e-06
6.09758e-06
6.09742e-06
6.09727e-06
6.09727e-06
6.09701e-06
6.09683e-06
6.09667e-06
6.09667e-06
6.0964e-06
6.09624e-06
6.09624e-06
6.09595e-06
6.09578e-06
6.09563e-06
6.09563e-06
6.09537e-06
6.09528e-06
6.09522e-06
6.09522e-06
6.09507e-06
6.09498e-06
6.09498e-06
6.09481e-06
6.09467e-06
6.0945e-06
6.0945e-06
6.09426e-06
6.09402e-06
6.09374e-06
6.09374e-06
6.09336e-06
6.09297e-06
6.09253e-06
6.09253e-06
6.09196e-06
6.09138e-06
6.09073e-06
6.09073e-06
6.08994e-06
6.08916e-06
6.08834e-06
6.08834e-06
6.08741e-06
6.08655e-06
6.08568e-06
6.08482e-06
6.08482e-06
6.08389e-06
6.08297e-06
6.08196e-06
6.0808e-06
6.0808e-06
6.07929e-06
6.07768e-06
6.07593e-06
6.0742e-06
6.07272e-06
6.07272e-06
6.07168e-06
6.07166e-06
6.07246e-06
6.07394e-06
6.07609e-06
6.07882e-06
6.07882e-06
6.0827e-06
6.08619e-06
6.08915e-06
6.09133e-06
6.0932e-06
6.09467e-06
6.09581e-06
6.09711e-06
6.09946e-06
6.09946e-06
6.10486e-06
6.10951e-06
6.10968e-06
6.10248e-06
6.09962e-06
6.10184e-06
)
;
    }
    procBoundary0to4
    {
        type            processor;
        value           nonuniform List<scalar> 
72
(
6.10082e-06
6.10097e-06
6.10083e-06
6.10052e-06
6.10027e-06
6.10016e-06
6.10013e-06
6.10002e-06
6.09979e-06
6.09953e-06
6.09933e-06
6.09925e-06
6.09923e-06
6.09918e-06
6.09907e-06
6.09892e-06
6.09881e-06
6.09877e-06
6.09879e-06
6.09881e-06
6.09879e-06
6.09874e-06
6.09875e-06
6.09875e-06
6.09866e-06
6.09858e-06
6.0985e-06
6.0984e-06
6.09829e-06
6.09816e-06
6.09804e-06
6.0979e-06
6.09775e-06
6.09758e-06
6.09739e-06
6.09719e-06
6.09699e-06
6.09677e-06
6.09655e-06
6.09631e-06
6.09604e-06
6.09574e-06
6.09541e-06
6.09507e-06
6.09471e-06
6.09433e-06
6.09393e-06
6.09349e-06
6.09301e-06
6.0925e-06
6.09196e-06
6.09138e-06
6.09076e-06
6.0901e-06
6.0894e-06
6.08864e-06
6.08784e-06
6.08697e-06
6.08604e-06
6.0852e-06
6.08447e-06
6.08367e-06
6.08278e-06
6.08179e-06
6.08069e-06
6.07947e-06
6.07812e-06
6.07662e-06
6.07495e-06
6.07311e-06
6.07107e-06
6.06881e-06
)
;
    }
    procBoundary0to5
    {
        type            processor;
        value           nonuniform List<scalar> 4(6.10066e-06 6.10004e-06 6.09904e-06 6.0987e-06);
    }
}


// ************************************************************************* //
