/*--------------------------------*- C++ -*----------------------------------*\
| =========                 |                                                 |
| \\      /  F ield         | OpenFOAM: The Open Source CFD Toolbox           |
|  \\    /   O peration     | Version:  2506                                  |
|   \\  /    A nd           | Website:  www.openfoam.com                      |
|    \\/     M anipulation  |                                                 |
\*---------------------------------------------------------------------------*/
FoamFile
{
    version     2.0;
    format      ascii;
    arch        "LSB;label=32;scalar=64";
    class       volScalarField;
    location    "200";
    object      div(phi);
}
// * * * * * * * * * * * * * * * * * * * * * * * * * * * * * * * * * * * * * //

dimensions      [0 0 -1 0 0 0 0];

internalField   nonuniform List<scalar> 
1340
(
-0.000114656
-2.78682e-05
-3.89252e-06
1.71342e-08
7.79291e-06
5.71113e-06
9.66791e-06
5.91557e-06
7.7178e-06
2.44942e-06
3.5116e-06
-4.4205e-06
-3.24515e-06
-1.06459e-05
-9.01102e-06
-7.63641e-06
-5.71922e-06
-4.71292e-06
-5.92337e-06
-7.30445e-06
-7.54031e-06
-1.56484e-05
-2.19499e-07
-5.50144e-06
-1.05323e-05
-1.37525e-05
-1.78273e-05
-2.91332e-05
-3.38607e-05
-2.0112e-05
-2.8032e-06
-1.56975e-07
4.66146e-06
6.99937e-06
8.36916e-06
1.04785e-05
7.87578e-06
8.04202e-06
3.08805e-06
1.79532e-06
-5.23291e-06
-6.57834e-06
-1.20854e-05
-1.01544e-05
-6.39837e-06
-2.71628e-06
-3.29287e-06
-9.63975e-06
-1.63525e-05
-2.35102e-05
-3.45376e-05
-1.20079e-05
-2.19063e-05
-2.49169e-05
-2.86496e-05
-2.60674e-05
-3.4412e-05
-3.03733e-05
1.524e-05
1.10743e-05
7.18719e-06
7.15914e-06
5.22006e-06
8.65631e-06
6.38641e-06
8.2601e-06
4.45003e-06
3.89717e-06
1.33433e-07
-2.7294e-06
-5.16728e-06
-8.88575e-06
-8.85362e-06
-9.30669e-06
-7.43862e-06
-6.14537e-06
-5.15967e-06
-2.31671e-06
-3.12722e-06
-3.12212e-06
1.49758e-06
-1.27283e-06
-2.82915e-06
-7.4994e-06
-1.3383e-05
-2.45811e-05
-3.37713e-05
2.81102e-05
1.94713e-05
1.29404e-05
1.05743e-05
6.69439e-06
7.52594e-06
8.48897e-06
8.43841e-06
8.77872e-06
5.48735e-06
3.58185e-06
-1.80358e-06
-4.86944e-06
-9.90436e-06
-1.20433e-05
-1.23498e-05
-8.97897e-06
-5.23265e-06
-3.51695e-06
-6.33503e-06
-1.07935e-05
-1.84229e-05
-2.61822e-05
-1.51151e-05
-2.35854e-05
-2.52261e-05
-3.0362e-05
-2.78431e-05
-3.75854e-05
1.30872e-05
1.60934e-05
2.06608e-05
1.59214e-05
9.28958e-06
6.30287e-06
6.89436e-06
6.14674e-06
8.9726e-06
6.23917e-06
6.77149e-06
2.2747e-06
1.25859e-06
-2.65842e-06
-4.10792e-06
-7.13108e-06
-7.47656e-06
-8.29916e-06
-7.28932e-06
-6.08331e-06
-4.14702e-06
-1.29287e-06
7.38322e-07
2.84453e-06
1.78507e-06
3.45729e-06
2.52255e-06
-1.63267e-06
-8.91824e-06
-2.0113e-05
-6.60085e-06
9.59801e-06
1.99051e-05
1.82607e-05
1.47855e-05
9.17403e-06
7.174e-06
5.95803e-06
7.48577e-06
7.97531e-06
7.92365e-06
5.92106e-06
2.05039e-06
-9.50476e-07
-5.47581e-06
-8.83014e-06
-1.14803e-05
-1.18722e-05
-9.65289e-06
-6.32114e-06
-3.29632e-06
-2.97566e-06
-4.96111e-06
-1.01698e-05
-1.566e-05
-1.26936e-05
-1.90701e-05
-2.24689e-05
-2.66253e-05
-2.59756e-05
-3.4294e-05
1.56609e-05
8.96533e-06
1.75134e-05
1.78787e-05
1.15443e-05
7.83315e-06
4.88656e-06
4.48845e-06
6.63864e-06
6.71515e-06
7.94475e-06
4.65867e-06
3.64624e-06
2.45941e-07
-4.24029e-07
-3.84888e-06
-4.14054e-06
-6.40618e-06
-5.91125e-06
-6.49774e-06
-5.17937e-06
-3.77673e-06
-1.03303e-06
1.42144e-06
5.31253e-06
3.84049e-06
4.86078e-06
6.51187e-06
2.53467e-06
-5.33416e-06
-1.38797e-05
6.54892e-06
1.7312e-05
1.30114e-05
1.58994e-05
1.08734e-05
7.38761e-06
4.46987e-06
4.82988e-06
5.39439e-06
7.67894e-06
6.86062e-06
5.17614e-06
2.19941e-06
-2.99644e-07
-3.81505e-06
-6.5646e-06
-9.31964e-06
-9.86861e-06
-8.91828e-06
-6.34721e-06
-3.30006e-06
-1.32582e-06
-1.12658e-06
-3.58088e-06
-6.85302e-06
-7.50507e-06
-1.2641e-05
-1.73379e-05
-2.22422e-05
-2.31539e-05
-2.98906e-05
-3.78146e-06
2.85951e-05
1.41301e-05
1.31804e-05
9.04043e-06
9.44589e-06
4.63277e-06
3.06424e-06
3.33021e-06
4.91709e-06
6.64928e-06
5.80985e-06
4.6896e-06
2.31205e-06
1.87621e-06
-5.24485e-07
-1.12918e-06
-3.4354e-06
-3.67518e-06
-4.79669e-06
-4.69578e-06
-4.53793e-06
-3.44217e-06
-1.66416e-06
8.7154e-07
4.62157e-06
3.2651e-06
6.49634e-06
7.01602e-06
5.69298e-06
-3.00234e-06
-9.09718e-06
2.36297e-05
5.56484e-06
9.13143e-06
1.96483e-05
3.79319e-06
3.33286e-06
2.78412e-06
2.68289e-06
5.09535e-06
5.73463e-06
5.94483e-06
3.82141e-06
3.00757e-06
5.59308e-07
-7.55802e-07
-4.20329e-06
-5.79798e-06
-7.59806e-06
-7.0154e-06
-5.90488e-06
-3.40767e-06
-1.16658e-06
1.60327e-08
-2.28527e-08
-1.59923e-06
-2.46541e-06
-6.07569e-06
-1.13129e-05
-1.66191e-05
-2.02965e-05
-2.58459e-05
2.77999e-05
1.2376e-05
8.66195e-06
3.14346e-06
-1.7921e-07
5.44304e-07
2.3541e-06
3.86039e-06
5.0923e-06
4.38446e-06
3.45403e-06
2.74146e-06
2.06713e-06
1.28545e-06
-3.63479e-07
-1.46169e-06
-2.67875e-06
-3.04119e-06
-3.79626e-06
-3.64658e-06
-3.40616e-06
-2.31734e-06
-3.71657e-07
2.61554e-06
3.05419e-06
5.09191e-06
7.93158e-06
5.65817e-06
-8.41402e-07
-5.80557e-06
2.42366e-05
8.55225e-06
-6.61177e-07
-2.30332e-06
-2.89552e-07
1.85328e-06
3.41953e-06
4.58173e-06
3.80464e-06
3.82291e-06
2.70924e-06
3.07704e-06
6.65313e-07
-7.28781e-07
-3.57478e-06
-4.53323e-06
-5.50814e-06
-4.87533e-06
-3.64566e-06
-1.89095e-06
-4.38938e-07
4.12742e-07
5.94451e-07
3.92906e-07
-1.30947e-06
-5.43877e-06
-1.09427e-05
-1.6094e-05
-2.20912e-05
1.57453e-05
-3.87807e-06
-2.05746e-06
1.73914e-08
1.35001e-06
3.19954e-06
3.16501e-06
3.45634e-06
2.70681e-06
3.39089e-06
2.80346e-06
2.29846e-06
5.01491e-07
-5.23607e-07
-1.66339e-06
-2.23978e-06
-2.94571e-06
-3.21348e-06
-3.30189e-06
-2.77628e-06
-1.55141e-06
7.55349e-07
1.59945e-06
4.13975e-06
6.11564e-06
5.93851e-06
-6.27895e-07
-2.82331e-06
4.76864e-06
-2.4567e-06
-5.18887e-08
1.28752e-06
2.67108e-06
2.92841e-06
3.15756e-06
2.93807e-06
4.04787e-06
3.28966e-06
2.6903e-06
2.93953e-07
-1.017e-06
-3.01857e-06
-3.67452e-06
-4.24136e-06
-3.61046e-06
-2.79258e-06
-1.71327e-06
-5.97276e-07
2.06863e-07
1.02823e-06
7.77388e-07
-1.27386e-06
-5.74259e-06
-1.14149e-05
-1.8019e-05
4.39614e-07
-1.21399e-07
1.61125e-06
1.81071e-06
2.71843e-06
2.19134e-06
3.47133e-06
3.19329e-06
3.77285e-06
2.01481e-06
1.2648e-06
-3.57053e-07
-9.93352e-07
-1.90609e-06
-2.43579e-06
-2.93271e-06
-3.15427e-06
-2.93944e-06
-2.2304e-06
-6.67539e-07
3.9665e-07
2.44325e-06
4.69971e-06
4.53114e-06
-5.923e-07
-1.70457e-06
4.65672e-07
7.48843e-07
8.12377e-07
1.68432e-06
2.16367e-06
2.3721e-06
3.30656e-06
3.59104e-06
3.63048e-06
2.26117e-06
1.35547e-06
-5.10552e-07
-1.48836e-06
-2.89892e-06
-3.32401e-06
-3.65195e-06
-3.38787e-06
-2.86531e-06
-2.11682e-06
-1.03046e-06
-6.74006e-09
8.61116e-07
5.8854e-07
-2.14291e-06
-6.97655e-06
-1.36607e-05
7.96092e-08
5.80377e-07
1.66023e-06
1.39317e-06
2.71912e-06
2.58302e-06
3.75009e-06
2.51927e-06
2.30085e-06
6.58752e-07
5.8793e-08
-1.07353e-06
-1.53377e-06
-2.26479e-06
-2.57916e-06
-2.89032e-06
-2.83081e-06
-2.31276e-06
-1.45015e-06
-3.38108e-07
1.07832e-06
3.02245e-06
3.31351e-06
-1.16571e-06
-6.95645e-07
1.22108e-06
1.25137e-06
-1.49768e-07
1.25349e-06
2.05069e-06
2.69075e-06
2.9104e-06
2.38938e-06
1.94912e-06
7.41302e-07
4.46388e-08
-1.26273e-06
-2.00199e-06
-2.90912e-06
-3.43582e-06
-3.67041e-06
-3.61015e-06
-3.17169e-06
-2.37479e-06
-1.35439e-06
-1.41341e-07
5.96585e-07
-4.03074e-07
-3.72819e-06
-9.70543e-06
-3.1198e-07
6.51974e-07
8.01946e-07
1.23191e-06
2.5972e-06
1.87374e-06
2.27176e-06
9.9116e-07
7.46464e-07
-4.27886e-07
-8.09734e-07
-1.59581e-06
-1.90933e-06
-2.46022e-06
-2.54051e-06
-2.46962e-06
-2.19282e-06
-1.45396e-06
-8.40622e-07
4.22292e-07
1.64569e-06
1.92131e-06
-1.02127e-06
-1.63414e-06
2.0026e-06
-1.2228e-06
2.85814e-07
1.25477e-06
1.56985e-06
1.6275e-06
1.40038e-06
8.60147e-07
4.75179e-07
-3.43318e-07
-8.97098e-07
-1.73662e-06
-2.63229e-06
-3.28531e-06
-3.6865e-06
-3.82889e-06
-3.64374e-06
-3.14666e-06
-2.38872e-06
-1.25444e-06
-2.44983e-07
-2.36017e-07
-2.16794e-06
-6.74813e-06
-1.21206e-06
8.37437e-07
-2.12094e-08
1.28551e-06
7.5514e-07
1.44024e-06
5.87825e-07
7.84583e-07
-1.56232e-07
-3.46428e-07
-1.09421e-06
-1.45408e-06
-2.10722e-06
-2.26404e-06
-2.28876e-06
-2.13766e-06
-1.76021e-06
-1.35479e-06
-7.35377e-07
-3.67952e-08
8.40999e-07
9.27642e-07
-1.2312e-06
-2.2656e-06
-8.81442e-07
7.12383e-07
3.78598e-07
8.52716e-07
6.41333e-07
4.95308e-07
2.12814e-07
-1.58349e-07
-4.62916e-07
-9.766e-07
-1.83768e-06
-2.55176e-06
-3.20852e-06
-3.45473e-06
-3.58991e-06
-3.53065e-06
-3.2789e-06
-2.81748e-06
-1.99682e-06
-1.15509e-06
-8.10698e-07
-1.91792e-06
-4.76064e-06
5.42732e-07
3.62953e-08
1.93269e-07
7.13075e-07
-1.06046e-08
5.00524e-07
-2.1938e-07
-1.60412e-07
-7.63729e-07
-1.21835e-06
-1.87693e-06
-2.21313e-06
-2.27217e-06
-2.07166e-06
-1.74595e-06
-1.40414e-06
-1.01558e-06
-6.29086e-07
-1.49059e-07
3.63591e-07
1.38921e-07
-1.07645e-06
-2.48897e-06
4.76e-07
1.23885e-07
-1.95592e-07
1.06715e-06
-3.37992e-07
-8.05802e-08
-3.9054e-07
-6.8142e-07
-1.3514e-06
-1.9244e-06
-2.69373e-06
-2.91105e-06
-3.01727e-06
-3.02637e-06
-3.00333e-06
-2.93364e-06
-2.71085e-06
-2.24743e-06
-1.75285e-06
-1.47552e-06
-2.20755e-06
-3.9293e-06
-5.84424e-07
1.03515e-07
1.74302e-06
1.40612e-07
1.25097e-07
-5.57861e-07
-5.1039e-07
-9.95411e-07
-1.60067e-06
-2.22357e-06
-2.35398e-06
-2.20713e-06
-1.78535e-06
-1.41163e-06
-1.06262e-06
-7.67505e-07
-4.71828e-07
-1.92877e-07
4.35861e-08
-2.81523e-07
-1.09944e-06
-2.71983e-06
8.5933e-07
1.70299e-06
1.15667e-06
1.30118e-06
-8.1517e-07
-1.93854e-07
-1.06664e-06
-1.27815e-06
-1.60751e-06
-2.20214e-06
-2.40337e-06
-2.48395e-06
-2.33231e-06
-2.29624e-06
-2.30203e-06
-2.33326e-06
-2.28286e-06
-2.12998e-06
-1.94752e-06
-1.88136e-06
-2.66173e-06
-3.31391e-06
7.95451e-07
3.70175e-06
-6.22888e-07
1.39879e-06
-2.11769e-06
-1.44726e-06
-1.88688e-06
-2.27144e-06
-2.28288e-06
-2.28074e-06
-1.82798e-06
-1.43952e-06
-1.09136e-06
-8.1157e-07
-5.84039e-07
-3.80299e-07
-2.43188e-07
-1.60291e-07
-5.0509e-07
-1.2218e-06
-2.19818e-06
7.0028e-06
-2.70493e-07
3.76248e-06
-2.68029e-06
-1.52057e-06
-2.56375e-06
-2.71003e-06
-2.2692e-06
-1.98375e-06
-1.93016e-06
-1.69068e-06
-1.59972e-06
-1.54867e-06
-1.59916e-06
-1.67874e-06
-1.7543e-06
-1.79414e-06
-1.82569e-06
-2.01112e-06
-2.68048e-06
-2.99139e-06
-1.05195e-06
4.40476e-06
-2.55007e-07
-1.34417e-06
-1.95347e-06
-3.81836e-06
-2.66904e-06
-2.00799e-06
-2.00173e-06
-1.57435e-06
-1.2992e-06
-1.00144e-06
-7.95831e-07
-6.09756e-07
-4.72861e-07
-3.4277e-07
-2.91433e-07
-2.80558e-07
-6.02464e-07
-1.16224e-06
-1.78833e-06
3.65955e-06
-1.31857e-06
1.9791e-07
-4.21499e-06
-2.54856e-06
-1.83343e-06
-1.62767e-06
-1.35725e-06
-1.0295e-06
-9.5433e-07
-8.9629e-07
-9.11603e-07
-1.01616e-06
-1.10074e-06
-1.26795e-06
-1.35966e-06
-1.57056e-06
-1.79827e-06
-2.54755e-06
-2.54664e-06
-1.73772e-06
1.90413e-06
-2.40339e-06
-1.80856e-06
-1.37119e-06
-1.35088e-06
-1.44726e-06
-1.01928e-06
-9.18695e-07
-6.70184e-07
-5.95466e-07
-5.18026e-07
-4.5644e-07
-3.75411e-07
-3.39014e-07
-2.88313e-07
-3.64029e-07
-5.43892e-07
-1.07221e-06
-1.26537e-06
-9.07504e-07
-7.02462e-07
-1.16779e-06
-7.49786e-07
-1.62924e-06
-4.95082e-07
-9.76707e-07
-5.88766e-07
-4.18279e-07
-3.88208e-07
-5.0231e-07
-5.45967e-07
-7.1449e-07
-8.03227e-07
-1.01385e-06
-1.16898e-06
-1.53958e-06
-2.09873e-06
-2.18691e-06
8.38642e-07
-1.40305e-06
5.27361e-07
-1.72856e-06
2.87466e-07
-1.24396e-06
-9.10689e-07
-4.74041e-07
-3.5161e-07
-3.35141e-07
-3.11992e-07
-3.35264e-07
-2.94846e-07
-3.0465e-07
-2.7808e-07
-3.4418e-07
-4.67408e-07
-8.25073e-07
-9.787e-07
-2.60197e-06
1.43266e-06
-1.07057e-06
4.79402e-07
-1.01949e-06
-9.53672e-07
-3.58901e-07
-5.79062e-07
-2.62831e-07
-2.07507e-07
-2.1432e-07
-3.14072e-07
-3.89595e-07
-5.23095e-07
-6.54623e-07
-8.55413e-07
-1.14677e-06
-1.86507e-06
-1.57219e-06
-1.44399e-06
2.33584e-07
-5.17494e-07
-4.0053e-07
-4.14771e-07
-1.17985e-06
-5.80266e-07
-3.32392e-07
-1.92243e-07
-2.38497e-07
-2.10968e-07
-2.56906e-07
-2.27299e-07
-2.71897e-07
-2.67672e-07
-4.89975e-07
-6.56499e-07
-5.69546e-07
8.78992e-07
-6.24708e-07
4.93907e-07
-6.8105e-07
-1.40778e-06
-7.24306e-07
-6.82847e-07
-2.65152e-07
-1.14221e-07
-1.06492e-07
-1.56534e-07
-2.25209e-07
-3.14446e-07
-4.26945e-07
-5.81351e-07
-9.99417e-07
-1.27932e-06
-1.45022e-06
-2.05053e-06
1.23414e-06
-4.01535e-07
-8.84078e-07
-4.42746e-07
-1.21429e-06
-3.73386e-07
-7.97439e-08
-9.65148e-08
-9.56741e-08
-1.68586e-07
-1.90912e-07
-2.40268e-07
-2.32748e-07
-3.52995e-07
-4.40124e-07
-6.92728e-07
4.0321e-08
-8.21607e-07
-1.08263e-07
-8.68546e-08
-1.36012e-06
-2.34812e-07
9.62771e-08
1.19789e-07
3.52979e-08
-2.79476e-08
-1.07211e-07
-1.81666e-07
-2.40603e-07
-3.26889e-07
-4.89982e-07
-7.52229e-07
-8.46468e-07
-1.93638e-06
5.30315e-07
-1.21565e-07
-9.06486e-07
-9.68709e-08
2.46921e-07
3.49548e-07
2.68105e-08
4.52448e-08
-1.25671e-07
-2.06846e-07
-2.73569e-07
-2.86753e-07
-3.37128e-07
-3.66958e-07
-5.03604e-07
-6.88283e-07
-1.48581e-06
-1.32562e-07
-6.45474e-08
2.6069e-07
3.92138e-07
-2.86002e-08
2.05776e-07
-2.68311e-07
-2.30935e-07
-2.3724e-07
-2.68003e-07
-3.01511e-07
-3.20286e-07
-4.24892e-07
-5.89816e-07
-8.43041e-07
-7.81863e-07
3.18416e-07
1.93508e-07
-9.89733e-08
3.04192e-07
-7.57228e-07
-3.02157e-07
-2.5717e-07
-3.43477e-07
-3.64716e-07
-3.76829e-07
-3.70077e-07
-4.54401e-07
-4.48032e-07
-4.58075e-07
8.73235e-07
-1.17773e-07
-2.39072e-07
1.80702e-07
-1.29641e-06
-2.11111e-07
-1.5904e-07
-2.50721e-07
-2.84945e-07
-3.38074e-07
-3.08372e-07
-3.17638e-07
-3.78712e-07
-4.33544e-07
-5.30291e-07
-1.43181e-06
2.37746e-08
1.60361e-07
-1.41063e-06
2.03937e-08
4.45877e-08
-1.43048e-08
-1.38231e-07
-2.83435e-07
-2.98175e-07
-3.11204e-07
-3.45802e-07
-3.55348e-07
-4.34778e-07
-2.81003e-07
-6.58682e-07
-1.1894e-06
8.74826e-08
1.40565e-07
1.76804e-07
2.09696e-08
-1.35301e-07
-1.75035e-07
-1.93128e-07
-2.27547e-07
-2.18245e-07
-2.67921e-07
-3.19183e-07
-2.99836e-07
-5.41934e-07
-1.54004e-08
7.66374e-08
2.07072e-07
1.12119e-07
2.09686e-08
-2.87586e-08
-3.99023e-08
-2.37318e-07
-1.60326e-07
-2.02122e-07
-3.09745e-07
-2.65691e-07
-2.52408e-07
-1.04943e-06
6.45326e-08
1.54063e-07
7.34595e-08
4.63865e-08
7.76648e-09
3.14929e-08
-3.13626e-07
-4.03884e-08
-3.01023e-07
-2.19635e-07
-1.92731e-07
-2.0319e-07
-2.0522e-07
-5.25773e-07
-7.94825e-08
-3.73302e-08
-5.13577e-08
1.41299e-08
-3.29003e-07
8.45563e-08
-6.81227e-07
-2.01695e-07
-1.68004e-07
-1.61862e-07
-2.28997e-07
-1.18292e-07
1.79896e-07
-3.13233e-08
-1.47363e-07
-2.26643e-08
-2.63173e-07
1.05344e-07
-1.07663e-06
-1.34331e-07
-1.01215e-07
-4.72587e-08
-1.03398e-07
-1.07428e-07
-8.78108e-08
1.58594e-07
-1.87969e-07
4.31596e-08
-1.21397e-07
1.18254e-07
-1.11565e-06
4.69238e-08
4.41015e-10
1.44975e-07
4.32239e-08
-4.60375e-08
-7.23591e-09
-4.86946e-08
-1.26918e-07
2.50077e-07
3.06917e-08
1.19126e-07
-8.41906e-07
1.30363e-07
2.45034e-08
2.78251e-07
7.7077e-08
7.93625e-08
2.53023e-08
2.40398e-08
7.33168e-08
4.58982e-08
7.89567e-08
-4.68633e-07
6.22476e-08
-4.44116e-09
2.84548e-07
4.49955e-08
2.01897e-07
2.99014e-08
1.60799e-07
6.98861e-08
1.153e-07
-2.45584e-07
-1.60598e-07
-4.59827e-08
1.95032e-08
1.51952e-07
-3.50727e-08
1.86546e-07
-3.67311e-08
1.97953e-07
-4.17178e-08
1.22671e-07
-5.05914e-08
2.32831e-07
-1.48819e-07
1.44643e-07
-4.55443e-08
-1.59609e-07
7.78247e-08
-1.22463e-07
1.61662e-07
-1.78751e-07
1.31083e-07
-2.16061e-07
-8.10925e-07
3.5226e-07
-4.78576e-08
-2.11534e-07
6.88878e-09
-1.63645e-07
1.11543e-07
-2.74565e-07
1.18675e-07
-5.39947e-07
2.3896e-07
-2.99509e-07
-1.05017e-07
2.07164e-08
-8.90191e-08
6.93919e-08
-2.70073e-07
1.14506e-07
-8.84628e-07
1.29813e-07
-3.04485e-07
1.85816e-07
4.77888e-08
2.83434e-08
1.35845e-08
-1.99139e-07
1.08255e-07
-9.66977e-07
1.14606e-07
-4.06895e-07
4.00537e-07
-1.52769e-07
3.25792e-08
-2.65944e-08
-9.02822e-08
8.23115e-08
-7.7466e-07
1.69823e-07
-6.74705e-07
2.33961e-07
-2.84783e-07
2.25891e-07
-6.55946e-08
6.48323e-08
-1.34961e-08
-4.95397e-07
1.45227e-07
-8.11868e-07
2.18252e-07
-2.55698e-07
3.4556e-07
-5.02486e-07
2.56326e-07
-3.41148e-08
-2.45709e-07
8.97749e-08
-7.72858e-07
2.27857e-07
-4.53186e-07
2.13143e-07
-9.43386e-08
-2.06311e-07
-3.82496e-08
1.32472e-07
-5.70758e-07
2.56562e-07
-5.91989e-07
2.38012e-07
-1.22768e-08
2.58998e-07
2.22177e-07
1.48887e-07
-2.59223e-07
2.69683e-07
-5.75799e-07
2.7119e-07
-8.46162e-08
2.33405e-07
1.43568e-07
1.39892e-08
-1.59237e-08
2.18813e-07
-4.51407e-07
3.06274e-07
-3.39188e-07
2.94783e-07
-8.90803e-08
2.61854e-07
1.62983e-07
-2.20718e-07
2.89971e-07
-4.81212e-07
2.80082e-07
-1.44848e-07
3.88392e-07
1.07564e-07
-3.60839e-08
2.20499e-07
-3.53969e-07
3.22692e-07
-2.5483e-07
2.54435e-07
-9.37504e-08
1.76345e-07
1.81483e-07
-1.09169e-07
3.12155e-07
-3.21887e-07
3.06656e-07
-1.23492e-07
3.65842e-07
1.35139e-07
1.69221e-07
-1.8164e-07
2.96761e-07
-1.76117e-07
2.52725e-07
-4.57099e-08
-5.11246e-08
-6.24036e-08
1.72575e-07
-3.10367e-07
3.10262e-07
-1.24677e-07
3.78981e-07
8.26344e-08
6.7466e-08
-2.02731e-07
2.60901e-07
-2.84989e-07
2.5144e-07
-8.11874e-08
-9.11266e-08
-7.24802e-08
1.24413e-07
-3.2115e-07
2.20434e-07
-6.2335e-08
2.6662e-07
3.57411e-08
5.87447e-08
-2.05889e-07
1.84597e-07
-1.3316e-07
1.94382e-07
-3.96109e-08
-9.39161e-08
-8.29239e-08
1.34982e-07
-2.1034e-07
1.84765e-07
-1.33426e-07
3.25931e-07
3.17241e-08
6.4959e-08
-1.63686e-07
1.4173e-07
-1.79091e-07
2.55323e-07
-8.42866e-08
-5.59127e-08
1.12659e-07
-9.12639e-08
1.01184e-07
-1.07422e-07
9.92375e-08
4.88553e-08
-3.08645e-08
1.4482e-07
-4.3177e-08
1.35223e-07
7.38778e-08
1.06174e-07
3.52261e-08
9.30433e-08
1.14325e-08
7.57457e-08
1.10101e-09
8.25371e-08
-7.20257e-09
1.00366e-07
4.3779e-08
5.09723e-08
5.12183e-08
6.44261e-08
7.1169e-08
6.10049e-08
-6.5769e-08
-6.01036e-08
-4.16082e-08
-1.52377e-08
-4.46454e-07
-3.32802e-07
-2.83417e-07
-2.84487e-07
-2.23785e-07
-8.45105e-07
-3.81871e-07
-3.80418e-07
-3.02826e-07
-3.41418e-07
)
;

boundaryField
{
    inlet
    {
        type            extrapolatedCalculated;
        value           nonuniform List<scalar> 5(-8.45105e-07 -3.81871e-07 -3.80418e-07 -3.02826e-07 -3.41418e-07);
    }
    outlet
    {
        type            extrapolatedCalculated;
        value           nonuniform List<scalar> 0();
    }
    walls
    {
        type            extrapolatedCalculated;
        value           nonuniform List<scalar> 
28
(
-0.000114656
-2.78682e-05
-3.89252e-06
1.71342e-08
7.79291e-06
5.71113e-06
9.66791e-06
5.91557e-06
7.7178e-06
2.44942e-06
3.5116e-06
-4.4205e-06
-3.24515e-06
-1.06459e-05
-9.01102e-06
-7.63641e-06
-5.71922e-06
-4.71292e-06
-5.92337e-06
-7.30445e-06
-7.54031e-06
-1.56484e-05
-2.19499e-07
-5.50144e-06
-1.05323e-05
-1.37525e-05
-1.78273e-05
-2.91332e-05
)
;
    }
    frontAndBack
    {
        type            empty;
    }
    procBoundary1to0
    {
        type            processor;
        value           nonuniform List<scalar> 
94
(
4.31758e-05
4.31758e-05
2.28541e-05
2.28541e-05
7.46659e-06
7.46659e-06
1.23645e-05
1.23645e-05
6.23522e-06
6.23522e-06
-3.44912e-06
-3.44912e-06
1.75212e-06
7.08335e-07
7.08335e-07
1.30797e-07
8.8186e-07
8.8186e-07
3.98879e-07
1.03545e-06
1.6381e-06
1.6381e-06
-2.55704e-07
-2.50054e-07
-2.50054e-07
5.18815e-07
-3.49091e-07
1.47755e-06
1.47755e-06
-1.0864e-06
3.88367e-06
4.55982e-06
4.55982e-06
4.0571e-06
3.48636e-06
3.48636e-06
-2.36215e-07
1.5642e-06
1.73637e-06
1.73637e-06
-7.48845e-07
1.28494e-06
1.56705e-06
1.56705e-06
-3.58373e-07
8.26546e-07
7.9491e-07
7.9491e-07
-6.79556e-07
1.30766e-06
1.05512e-06
1.05512e-06
-6.06944e-07
6.1725e-08
3.41985e-07
3.41985e-07
-3.95267e-07
2.35059e-07
6.6893e-07
4.29668e-07
4.29668e-07
2.08202e-07
-3.95666e-07
5.65127e-07
6.215e-07
6.215e-07
-1.11988e-07
3.46012e-07
-2.56563e-07
4.0504e-07
4.62035e-07
4.62035e-07
-7.59458e-08
3.16671e-07
-2.97945e-08
2.83504e-07
1.25859e-07
8.97404e-08
8.97404e-08
1.28615e-07
-1.14024e-07
8.60673e-08
-1.27332e-07
8.03642e-08
-1.15327e-07
9.09214e-08
-7.68244e-08
-4.01274e-08
-4.01274e-08
1.45168e-08
7.07601e-08
-1.61826e-07
-1.65002e-07
-5.27507e-07
)
;
    }
    procBoundary1to2
    {
        type            processor;
        value           nonuniform List<scalar> 
84
(
-1.9534e-05
-3.90614e-05
-7.47119e-06
-4.01347e-05
1.62133e-06
-3.46821e-05
9.90262e-06
-2.7674e-05
1.4595e-05
-2.18454e-05
1.64799e-05
-1.68224e-05
1.72228e-05
-1.29731e-05
1.58971e-05
-9.53696e-06
1.48003e-05
-6.4089e-06
1.22022e-05
-3.88377e-06
1.1182e-05
-2.17283e-06
8.45049e-06
-1.55635e-06
6.38109e-06
-1.61124e-06
4.04855e-06
-1.82326e-06
2.02619e-06
-1.96167e-06
7.73334e-07
-1.72594e-06
1.09536e-08
-1.4819e-06
-6.49538e-08
-9.12424e-07
-3.15265e-07
-9.64747e-07
-1.08986e-06
-1.08986e-06
-7.13223e-07
-6.18687e-07
-3.10387e-07
-5.22998e-07
-1.99302e-07
-3.15701e-07
-1.19701e-07
-2.83561e-07
-5.09971e-08
8.84811e-09
6.1344e-08
9.52745e-08
1.13718e-07
3.19122e-07
3.19122e-07
-2.83515e-07
4.26422e-07
-3.08373e-07
3.52494e-07
-3.87164e-08
2.88519e-07
1.96552e-07
1.80345e-07
4.5776e-07
4.5776e-07
1.11578e-08
3.13198e-07
2.98275e-09
3.14036e-07
-1.04113e-08
3.17264e-07
3.40097e-08
2.94847e-07
-6.74357e-08
-1.76535e-07
-1.76535e-07
4.13539e-08
-6.88192e-08
7.9183e-08
-3.99184e-09
1.03818e-07
-3.01359e-08
-5.1343e-07
-7.41711e-07
)
;
    }
    procBoundary1to5
    {
        type            processor;
        value           nonuniform List<scalar> 
13
(
-0.000132203
-0.000132203
-5.99545e-05
4.45634e-06
4.45634e-06
-5.34369e-06
-2.82115e-05
-2.82115e-05
-2.79168e-05
-6.76169e-06
4.12011e-05
4.12011e-05
3.2919e-05
)
;
    }
}


// ************************************************************************* //
