/*--------------------------------*- C++ -*----------------------------------*\
| =========                 |                                                 |
| \\      /  F ield         | OpenFOAM: The Open Source CFD Toolbox           |
|  \\    /   O peration     | Version:  2506                                  |
|   \\  /    A nd           | Website:  www.openfoam.com                      |
|    \\/     M anipulation  |                                                 |
\*---------------------------------------------------------------------------*/
FoamFile
{
    version     2.0;
    format      ascii;
    arch        "LSB;label=32;scalar=64";
    class       volScalarField;
    location    "200";
    object      p;
}
// * * * * * * * * * * * * * * * * * * * * * * * * * * * * * * * * * * * * * //

dimensions      [0 2 -2 0 0 0 0];

internalField   nonuniform List<scalar> 
1340
(
338.592
335.817
322.485
301.246
277.602
253.98
231.159
209.788
189.704
170.95
153.091
135.857
118.751
101.723
84.4603
67.0573
49.9274
34.9464
23.1561
13.49
5.66098
-0.147477
-3.97306
-6.06563
-6.57088
-5.5708
-3.07074
0.93891
321.163
329.459
327.676
316.677
299.317
279.014
257.671
236.237
215.423
195.46
176.467
158.259
140.635
123.266
106.048
88.7756
71.5314
54.7421
39.8859
27.892
18.072
10.0087
3.66701
-0.851931
-3.56266
-4.55927
-3.94496
-1.75152
2.02074
307.262
315.844
315.701
307.504
293.372
275.636
256.053
235.787
215.651
196.069
177.233
159.101
141.529
124.27
107.189
90.144
73.1988
56.737
41.9254
29.6697
19.5949
11.3439
4.90327
0.360716
-2.34991
-3.38573
-2.86403
-0.797717
2.84503
274.916
291.511
300.34
301.638
295.898
284.721
269.845
252.719
234.433
215.776
197.228
179.054
161.333
144.009
126.933
110.002
93.141
76.4212
60.2027
45.448
33.009
22.7155
14.2419
7.54457
2.68533
-0.394149
-1.79676
-1.59791
0.208754
3.65899
259.847
275.415
284.406
286.844
283.173
274.545
262.272
247.49
231.154
214.013
196.572
179.161
161.955
144.984
128.188
111.509
94.9166
78.4946
62.5751
47.9526
35.4019
24.9131
16.2271
9.30497
4.21496
0.928803
-0.638474
-0.568248
1.13004
4.48547
225.199
244.923
259.647
268.704
272.003
269.976
263.466
253.489
240.934
226.595
211.145
195.063
178.695
162.269
145.881
129.545
113.251
97.0119
80.9288
65.3172
50.8539
38.2433
27.5965
18.7321
11.6159
6.31257
2.80646
1.01444
0.860193
2.34147
5.50136
212.303
230.535
244.535
253.57
257.508
256.769
251.995
243.982
233.43
220.98
207.208
192.539
177.308
161.77
146.07
130.281
114.442
98.608
82.8996
67.6186
53.3517
40.7388
29.9756
20.9561
13.657
8.14201
4.41043
2.39751
2.0389
3.34103
6.35146
199.868
216.864
230.211
239.148
243.558
243.815
240.442
234.081
225.288
214.579
202.43
189.198
175.191
160.662
145.784
130.666
115.391
100.047
84.7735
69.8617
55.8366
43.2819
32.451
23.3102
15.8544
10.1496
6.21107
3.98984
3.42963
4.54076
7.37692
169.626
188.019
203.966
216.715
225.506
230.247
231.272
229.023
224.035
216.761
207.614
196.98
185.149
172.388
158.929
144.95
130.584
115.946
101.153
86.3582
71.8477
58.1005
45.6539
34.7987
25.5662
17.9741
12.0933
7.95395
5.52414
4.75942
5.67815
8.34083
176.814
191.842
204.042
212.649
217.611
219.225
217.875
214.019
208.04
200.27
191.022
180.525
168.995
156.637
143.616
130.076
116.15
101.971
87.709
73.642
60.2168
47.9335
37.1053
27.8191
20.1198
14.0854
9.76107
7.13351
6.16972
6.89458
9.37588
180.471
192.154
200.558
205.654
207.715
207.08
204.156
199.272
192.702
184.701
175.445
165.102
153.841
141.808
129.141
115.98
102.47
88.7857
75.1991
62.1356
50.0644
39.3106
30.007
22.2272
16.0594
11.5636
8.74484
7.58434
8.11443
10.4109
181.006
189.197
194.358
196.756
196.69
194.529
190.565
185.031
178.14
170.019
160.798
150.607
139.566
127.801
115.448
102.653
89.5886
76.522
63.8607
52.0505
41.4202
32.1394
24.3106
18.0342
13.385
10.3869
9.03599
9.37164
11.4779
178.521
183.699
186.344
186.73
185.192
182
177.357
171.44
164.345
156.166
146.999
136.937
126.084
114.563
102.516
90.1076
77.5973
65.3765
53.8719
43.412
34.1942
26.3481
19.9883
15.2043
12.0385
10.5033
10.6454
12.5576
173.645
176.468
177.211
176.183
173.636
169.753
164.687
158.509
151.286
143.086
133.971
124.021
113.344
102.066
90.3434
78.4213
66.6768
55.5202
45.2764
36.1626
28.3329
21.9172
17.0196
13.7006
11.9895
11.9403
13.6548
167.109
168.132
167.52
165.512
162.277
157.95
152.588
146.233
138.93
130.717
121.649
111.811
101.315
90.2989
78.9912
67.7543
56.9847
46.9999
38.0307
30.2518
23.8088
18.8199
15.3635
13.4857
13.2486
14.7626
158.248
159.488
159.215
157.657
154.972
151.285
146.641
141.069
134.591
127.225
119.005
109.992
100.277
89.9796
79.3074
68.6065
58.2584
48.5725
39.7871
32.0941
25.6534
20.5973
17.0209
14.9876
14.5673
15.8787
151.267
151.268
150.086
147.87
144.735
140.722
135.849
130.123
123.547
116.131
107.918
98.9739
89.3976
79.3744
69.2313
59.3351
49.9847
41.4208
33.8482
27.4401
22.342
18.6646
16.4881
15.8905
16.9982
143.457
143.68
142.811
140.993
138.334
134.873
130.621
125.576
119.726
113.067
105.619
97.4273
88.5672
79.1994
69.6306
60.2116
51.2288
42.9217
35.5035
29.1587
24.0445
20.2864
17.9803
17.2129
18.1168
136.443
135.836
134.355
132.107
129.128
125.425
120.993
115.808
109.852
103.128
95.6616
87.504
78.792
69.8089
60.8869
52.2994
44.2813
37.05
30.7985
25.6949
21.8774
19.4566
18.5282
19.2294
129.551
129.16
127.968
126.072
123.513
120.296
116.41
111.828
106.522
100.478
93.7036
86.229
78.1658
69.7724
61.3618
53.1927
45.4922
38.4782
32.3497
27.2833
23.4285
20.9091
19.8298
20.3307
122.993
122.782
121.834
120.243
118.049
115.259
111.861
107.824
103.112
97.7003
91.5808
84.7637
77.3356
69.5301
61.6397
53.907
46.5488
39.7801
33.8029
28.8
24.9305
22.3296
21.1107
21.4153
116.696
115.955
114.628
112.752
110.337
107.372
103.824
99.6529
94.8256
89.3201
83.1296
76.3179
69.0933
61.7265
54.4429
47.4473
40.9488
35.1492
30.2355
26.374
23.7095
22.3634
22.4771
110.897
110.332
109.231
107.632
105.546
102.965
99.8544
96.1731
91.882
86.9481
81.3502
75.1314
68.4751
61.6297
54.8029
48.1854
41.9785
36.3809
31.5809
27.7499
25.0402
23.5804
23.5103
104.961
104.054
102.697
100.9
98.6573
95.9374
92.6978
88.8955
84.4902
79.4487
73.7954
67.69
61.3585
54.9908
48.7632
42.8654
37.4911
32.8278
29.0494
26.3131
24.7537
24.5086
99.8363
99.0981
97.9512
96.4081
94.464
92.0911
89.2479
85.8894
81.9697
77.4466
72.3289
66.7532
60.9242
55.0134
49.1817
43.6069
38.4747
33.9688
30.2638
27.5197
25.8756
25.4657
94.9531
94.36
93.396
92.0755
90.395
88.3303
85.8418
82.8843
79.4082
75.3652
70.7505
65.6807
60.3386
54.8781
49.4443
44.2021
39.327
34.9973
31.3853
28.6519
26.9386
26.3754
89.8363
89.0316
87.9068
86.4589
84.6669
82.4948
79.8979
76.8257
73.2247
69.0801
64.4892
59.6148
54.5936
49.5559
44.6518
40.0456
35.9079
32.407
29.702
27.9351
27.2317
85.5228
84.8572
83.9035
82.6604
81.11
79.2194
76.9459
74.2395
71.0436
67.335
63.1946
58.7662
54.1704
49.5223
44.9578
40.6289
36.6966
33.3225
30.6628
28.8583
28.0286
81.4132
80.8687
80.0651
79.0027
77.666
76.0254
74.0415
71.6648
68.8381
65.532
61.8126
57.8063
53.6189
49.351
45.1241
41.0771
37.36
34.127
31.5281
29.7015
28.7607
77.0629
76.3904
75.4875
74.3396
72.9208
71.1949
69.1147
66.6232
63.6866
60.3583
56.7491
52.9506
49.0502
45.1553
41.3915
37.897
34.8163
32.2925
30.4589
29.4227
73.435
72.8775
72.1143
71.1334
69.9111
68.4149
66.6004
64.412
61.8129
58.8461
55.6078
52.1771
48.629
45.0576
41.575
38.3071
35.3878
32.9517
31.1257
30.0101
69.5225
68.882
68.0487
67.0004
65.7081
64.1309
62.2157
59.9239
57.2892
54.3953
51.3099
48.0969
44.8377
41.6314
38.5915
35.8402
33.5025
31.6975
30.519
66.3218
65.7888
65.0853
64.1908
63.0794
61.7139
60.0438
58.0305
55.6996
53.1235
50.3605
47.4638
44.5034
41.566
38.7525
36.1733
33.9428
32.1713
30.9461
63.2699
62.8315
62.2417
61.4833
60.5323
59.3548
57.9042
56.1422
54.0881
51.8042
49.3398
46.7396
44.0629
41.3847
38.7935
36.3881
34.2718
32.5452
31.2887
60.0065
59.5163
58.8782
58.0688
57.0583
55.8036
54.2675
52.4645
50.4475
48.2584
45.9342
43.5248
41.0941
38.7193
36.4872
34.4899
32.8182
31.5452
57.3097
56.9072
56.3743
55.6899
54.8271
53.7468
52.4136
50.8371
49.063
47.1263
45.0574
42.8979
40.7018
38.5352
36.474
34.5989
32.9905
31.7148
54.7363
54.4106
53.9697
53.3957
52.6637
51.7382
50.586
49.2134
47.6591
45.9527
44.1186
42.1911
40.2154
38.2477
36.353
34.6014
33.0634
31.7975
52.0228
51.6623
51.1857
50.5689
49.7803
48.7895
47.5997
46.2437
44.7461
43.1267
41.4133
39.6432
37.8637
36.1297
34.5013
33.0392
31.7944
49.7403
49.4503
49.0584
48.543
47.8756
47.028
46.0013
44.8233
43.5143
42.09
40.5729
38.9934
37.3906
35.8104
34.3034
32.9211
47.5585
47.33
47.0119
46.5856
46.0251
45.3042
44.4228
43.4039
42.2645
41.0167
39.6785
38.2744
36.8362
35.4018
34.0132
32.7134
45.2981
45.0441
44.6962
44.2294
43.6204
42.8677
41.9906
41.0028
39.9139
38.7379
37.4942
36.2084
34.9113
33.637
32.4208
43.3515
43.1533
42.8731
42.4885
41.978
41.3392
40.5878
39.7352
38.7886
37.7588
36.6609
35.5153
34.3464
33.1815
32.049
41.4866
41.3366
41.1149
40.8022
40.3782
39.8396
39.1993
38.4666
37.6469
36.7482
35.7823
34.7648
33.7148
32.6538
31.6039
39.5909
39.4198
39.1699
38.8216
38.3707
37.8282
37.2015
36.4945
35.713
34.8657
33.9647
33.0244
32.0612
31.0921
37.9141
37.7866
37.5906
37.3081
36.9341
36.4774
35.9441
35.3366
34.6593
33.9182
33.1225
32.2828
31.4112
30.5201
36.3031
36.2128
36.0631
35.8378
35.531
35.1493
34.6977
34.1779
33.5927
32.9464
32.2454
31.4974
30.711
29.8947
34.6965
34.5862
34.4106
34.1621
33.8456
33.4653
33.0225
32.5185
31.9564
31.3403
30.6756
29.9678
29.2226
33.2357
33.1593
33.0261
32.8278
32.5679
32.2498
31.8741
31.4416
30.9538
30.4135
29.824
29.1887
28.5106
31.8284
31.7808
31.6837
31.5286
31.3176
31.0534
30.7362
30.3662
29.9439
29.4711
28.9493
28.3801
27.7649
30.4726
30.4491
30.3826
30.2647
30.0959
29.8781
29.6117
29.2961
28.9315
28.5183
28.0572
27.5485
26.9917
29.1631
29.1221
29.0361
28.9035
28.7257
28.503
28.2348
27.9207
27.5603
27.1535
26.6995
26.1969
27.9215
27.9022
27.8429
27.7409
27.5974
27.4125
27.1855
26.9153
26.6015
26.243
25.8386
25.3859
26.7229
26.7216
26.6848
26.6089
26.4947
26.3422
26.1507
25.9189
25.6459
25.3304
24.9706
25.566
25.5796
25.5614
25.5077
25.4184
25.2937
25.1327
24.9343
24.6972
24.4198
24.1001
24.4754
24.4724
24.4375
24.3694
24.2683
24.1336
23.9641
23.7584
23.5148
23.231
23.4082
23.418
23.3984
23.3481
23.2672
23.155
23.0105
22.8323
22.6185
22.3669
22.3773
22.3974
22.3905
22.3551
22.2913
22.1985
22.0757
21.9213
21.7338
21.5108
21.3817
21.4102
21.4137
21.3908
21.3414
21.2652
21.161
21.0275
20.8631
20.6657
20.4207
20.4558
20.4678
20.4553
20.4182
20.356
20.2679
20.1526
20.0086
19.8339
19.5336
19.5524
19.5488
19.522
19.4718
19.3975
19.298
19.172
19.0174
18.6433
18.6676
18.671
18.6529
18.6129
18.5506
18.4649
18.3546
18.218
17.7841
17.8128
17.822
17.8111
17.7798
17.7278
17.6542
17.5578
16.9551
16.9873
17.0013
16.9965
16.9727
16.9297
16.8666
16.7825
16.1559
16.1909
16.2088
16.2091
16.1918
16.1566
16.1027
16.0294
15.3856
15.4227
15.4439
15.4488
15.4371
15.4087
15.3631
15.2995
14.6822
14.706
14.7149
14.7083
14.686
14.6477
14.5927
13.9701
13.9963
14.0086
14.0064
13.9896
13.9578
13.9107
13.3942
13.4232
13.4385
13.4398
13.427
13.3999
13.3582
12.9153
12.9473
12.9657
12.9701
12.9604
12.9367
12.8986
12.4233
12.4585
12.4801
12.4876
12.4813
12.4611
12.4269
11.9198
11.9584
11.9831
11.994
11.9912
11.9747
11.9446
11.4075
11.4496
11.4778
11.4923
11.4932
11.4805
10.8857
10.9322
10.9649
10.9841
10.9899
10.9823
10.3575
10.4073
10.4435
10.4664
10.4764
10.4737
9.89817
9.94084
9.9695
9.98407
9.98486
9.33496
9.39066
9.43546
9.46908
9.49141
8.79751
8.83406
8.85517
8.86204
8.85614
8.68927
8.81581
8.92927
9.02855
9.11174
6.26076
6.25194
6.23828
6.21934
6.19884
11.5202
11.7774
12.0004
12.1932
12.349
)
;

boundaryField
{
    inlet
    {
        type            freestreamPressure;
        freestreamValue uniform 0;
        value           nonuniform List<scalar> 5(6.50952 6.65314 6.77747 6.88478 6.97126);
    }
    outlet
    {
        type            freestreamPressure;
        freestreamValue nonuniform List<scalar> 0();
        value           nonuniform List<scalar> 0();
    }
    walls
    {
        type            zeroGradient;
    }
    frontAndBack
    {
        type            empty;
    }
    procBoundary1to0
    {
        type            processor;
        value           nonuniform List<scalar> 
94
(
159.664
159.664
166.259
166.259
169.814
169.814
170.556
170.556
168.491
168.491
164.166
164.166
155.226
149.862
149.862
141.926
136.042
136.042
129.005
122.331
116.757
116.757
110.832
105.376
105.376
100.123
95.1297
90.3036
90.3036
85.8806
81.6762
77.5018
77.5018
73.7807
69.9796
69.9796
66.6898
63.5597
60.3621
60.3621
57.5921
54.9544
52.2816
52.2816
49.94
47.7068
45.4736
45.4736
43.4805
41.5753
39.6997
39.6997
37.9869
36.3453
34.7552
34.7552
33.2674
31.8372
30.4624
29.1666
29.1666
27.9082
26.6958
25.5278
24.4499
24.4499
23.3729
22.3341
21.3324
20.3668
19.4935
19.4935
18.5992
17.7369
16.9057
16.1049
15.3335
14.6433
14.6433
13.9298
13.3515
12.8693
12.374
11.8671
11.351
10.8251
10.2933
9.8414
9.8414
9.26828
8.74391
8.55107
6.26577
11.2072
)
;
    }
    procBoundary1to2
    {
        type            processor;
        value           nonuniform List<scalar> 
84
(
6.81649
7.72095
8.43111
9.10886
9.8479
10.6945
11.4182
12.2812
13.0835
13.9405
14.7898
15.6583
16.5296
17.4076
18.2864
19.1643
20.0374
20.9025
21.7561
22.5944
23.4136
24.2098
24.9792
25.7176
26.4212
27.0859
27.7078
28.2832
28.8082
29.2795
29.6938
30.0482
30.3401
30.5673
30.7282
30.8215
30.8466
30.8036
31.7074
31.7074
31.5391
31.293
30.9731
30.5841
30.1311
29.6195
29.0551
28.4436
27.7908
27.1027
26.3847
25.6424
24.8809
24.5636
24.5636
23.7348
22.9038
22.074
21.2492
20.4321
19.6255
18.8316
18.0525
17.437
17.437
16.6758
15.9354
15.2167
14.5202
13.8473
13.3009
12.8455
12.3781
11.9005
11.4544
11.4544
10.9615
10.4587
9.97226
9.50212
8.83937
9.17609
6.1817
12.4643
)
;
    }
    procBoundary1to5
    {
        type            processor;
        value           nonuniform List<scalar> 
13
(
330.778
330.778
301.229
289.236
289.236
251.005
238.264
238.264
201.581
190.747
180.028
180.028
148.94
)
;
    }
}


// ************************************************************************* //
