/*--------------------------------*- C++ -*----------------------------------*\
| =========                 |                                                 |
| \\      /  F ield         | OpenFOAM: The Open Source CFD Toolbox           |
|  \\    /   O peration     | Version:  2506                                  |
|   \\  /    A nd           | Website:  www.openfoam.com                      |
|    \\/     M anipulation  |                                                 |
\*---------------------------------------------------------------------------*/
FoamFile
{
    version     2.0;
    format      ascii;
    arch        "LSB;label=32;scalar=64";
    class       volScalarField;
    location    "200";
    object      turbulenceProperties:nuEff;
}
// * * * * * * * * * * * * * * * * * * * * * * * * * * * * * * * * * * * * * //

dimensions      [0 2 -1 0 0 0 0];

internalField   nonuniform List<scalar> 
1340
(
1.68302e-05
1.80754e-05
2.08402e-05
2.55962e-05
3.34246e-05
4.58865e-05
6.49069e-05
9.20006e-05
0.000128743
0.000178237
0.000247749
0.00035158
0.000515191
0.000788932
0.00126127
0.00214561
0.00381087
0.00741025
0.0148641
0.0328342
0.066793
0.0938152
0.10526
0.108627
0.109558
0.109648
0.109146
0.108138
1.59203e-05
1.60342e-05
1.59627e-05
1.5815e-05
1.56185e-05
1.53827e-05
1.51161e-05
1.48216e-05
1.44883e-05
1.4113e-05
1.36707e-05
1.31573e-05
1.25439e-05
1.18398e-05
1.1071e-05
1.04185e-05
1.00539e-05
1.00015e-05
1.00128e-05
0.000106161
0.000564008
0.00424151
0.0142756
0.0289252
0.0439419
0.055264
0.062011
0.0657798
0.0681675
1.61328e-05
1.61183e-05
1.61242e-05
1.61402e-05
1.61606e-05
1.61846e-05
1.62138e-05
1.62465e-05
1.62833e-05
1.63239e-05
1.63701e-05
1.6423e-05
1.64862e-05
1.65632e-05
1.66621e-05
1.67891e-05
1.69693e-05
1.7162e-05
1.74203e-05
1.71378e-05
1.72158e-05
1.2448e-05
9.72388e-05
0.000813916
0.00306444
0.00762093
0.0143656
0.0225782
0.0313193
1.6095e-05
1.60964e-05
1.60974e-05
1.60953e-05
1.60925e-05
1.6089e-05
1.60853e-05
1.6082e-05
1.60788e-05
1.60756e-05
1.60722e-05
1.60687e-05
1.60647e-05
1.60599e-05
1.60552e-05
1.60502e-05
1.60447e-05
1.60383e-05
1.60323e-05
1.60258e-05
1.60289e-05
1.60205e-05
1.60877e-05
1.59723e-05
1.60503e-05
1.48818e-05
1.39681e-05
0.000239953
0.00106907
0.00308496
1.61036e-05
1.61014e-05
1.60994e-05
1.60985e-05
1.60985e-05
1.60987e-05
1.6099e-05
1.60997e-05
1.61006e-05
1.61018e-05
1.61032e-05
1.61049e-05
1.61069e-05
1.61091e-05
1.61117e-05
1.61145e-05
1.61175e-05
1.6121e-05
1.61248e-05
1.61298e-05
1.61341e-05
1.61476e-05
1.61262e-05
1.6274e-05
1.56759e-05
1.87982e-05
1.05205e-05
3.64655e-05
0.000258713
0.000746211
1.61011e-05
1.6101e-05
1.60994e-05
1.60981e-05
1.60974e-05
1.60971e-05
1.6097e-05
1.6097e-05
1.60971e-05
1.60971e-05
1.60973e-05
1.60974e-05
1.60976e-05
1.60979e-05
1.60982e-05
1.60984e-05
1.60987e-05
1.60989e-05
1.60989e-05
1.60988e-05
1.60987e-05
1.60989e-05
1.60992e-05
1.61009e-05
1.61003e-05
1.61092e-05
1.60923e-05
1.61949e-05
1.55913e-05
1.41365e-05
1.00019e-05
1.61008e-05
1.61008e-05
1.60994e-05
1.60981e-05
1.60976e-05
1.60975e-05
1.60975e-05
1.60977e-05
1.60978e-05
1.60978e-05
1.60979e-05
1.6098e-05
1.60981e-05
1.60983e-05
1.60987e-05
1.60991e-05
1.60997e-05
1.61003e-05
1.61011e-05
1.6102e-05
1.61031e-05
1.61046e-05
1.61064e-05
1.61088e-05
1.61117e-05
1.61154e-05
1.61197e-05
1.61257e-05
1.61506e-05
1.55078e-05
1.33697e-05
1.61e-05
1.61002e-05
1.6099e-05
1.6098e-05
1.60977e-05
1.60977e-05
1.60978e-05
1.60979e-05
1.60979e-05
1.60979e-05
1.60979e-05
1.60978e-05
1.60977e-05
1.60977e-05
1.60978e-05
1.6098e-05
1.60982e-05
1.60984e-05
1.60986e-05
1.60989e-05
1.60991e-05
1.60995e-05
1.60999e-05
1.61004e-05
1.61009e-05
1.61012e-05
1.61022e-05
1.60997e-05
1.61109e-05
1.60769e-05
1.63165e-05
1.6098e-05
1.60995e-05
1.60997e-05
1.60988e-05
1.6098e-05
1.60978e-05
1.60979e-05
1.6098e-05
1.60981e-05
1.60981e-05
1.6098e-05
1.60979e-05
1.60979e-05
1.60978e-05
1.60977e-05
1.60977e-05
1.60978e-05
1.60979e-05
1.6098e-05
1.60983e-05
1.60985e-05
1.60989e-05
1.60994e-05
1.61001e-05
1.6101e-05
1.61021e-05
1.61035e-05
1.61053e-05
1.61072e-05
1.61101e-05
1.61069e-05
1.61259e-05
1.60989e-05
1.60993e-05
1.60985e-05
1.60979e-05
1.60979e-05
1.60979e-05
1.6098e-05
1.60981e-05
1.60981e-05
1.60981e-05
1.6098e-05
1.60979e-05
1.60979e-05
1.60979e-05
1.60978e-05
1.60977e-05
1.60977e-05
1.60977e-05
1.60978e-05
1.60979e-05
1.6098e-05
1.60983e-05
1.60986e-05
1.60991e-05
1.60997e-05
1.61005e-05
1.61013e-05
1.61024e-05
1.61025e-05
1.61081e-05
1.60891e-05
1.60989e-05
1.60983e-05
1.60978e-05
1.60978e-05
1.60979e-05
1.6098e-05
1.60981e-05
1.60981e-05
1.60981e-05
1.6098e-05
1.60979e-05
1.60979e-05
1.60979e-05
1.60979e-05
1.60978e-05
1.60977e-05
1.60977e-05
1.60976e-05
1.60977e-05
1.60977e-05
1.60979e-05
1.60982e-05
1.60986e-05
1.60992e-05
1.61e-05
1.61009e-05
1.61022e-05
1.61026e-05
1.61078e-05
1.60928e-05
1.60981e-05
1.60978e-05
1.60978e-05
1.60978e-05
1.60979e-05
1.6098e-05
1.60981e-05
1.6098e-05
1.60979e-05
1.60978e-05
1.60978e-05
1.60978e-05
1.60978e-05
1.60978e-05
1.60977e-05
1.60976e-05
1.60976e-05
1.60975e-05
1.60975e-05
1.60976e-05
1.60977e-05
1.6098e-05
1.60984e-05
1.6099e-05
1.60996e-05
1.61005e-05
1.61012e-05
1.61034e-05
1.61004e-05
1.60977e-05
1.60977e-05
1.60978e-05
1.60978e-05
1.60979e-05
1.6098e-05
1.60979e-05
1.60978e-05
1.60977e-05
1.60977e-05
1.60977e-05
1.60976e-05
1.60976e-05
1.60976e-05
1.60976e-05
1.60975e-05
1.60974e-05
1.60974e-05
1.60974e-05
1.60974e-05
1.60977e-05
1.6098e-05
1.60984e-05
1.6099e-05
1.60998e-05
1.61007e-05
1.61016e-05
1.61033e-05
1.60977e-05
1.60977e-05
1.60978e-05
1.60978e-05
1.60978e-05
1.60978e-05
1.60977e-05
1.60976e-05
1.60975e-05
1.60975e-05
1.60975e-05
1.60975e-05
1.60975e-05
1.60975e-05
1.60974e-05
1.60974e-05
1.60972e-05
1.60972e-05
1.60972e-05
1.60974e-05
1.60976e-05
1.60979e-05
1.60984e-05
1.6099e-05
1.60998e-05
1.61005e-05
1.61022e-05
1.60976e-05
1.60977e-05
1.60977e-05
1.60977e-05
1.60976e-05
1.60975e-05
1.60974e-05
1.60973e-05
1.60972e-05
1.60972e-05
1.60972e-05
1.60972e-05
1.60973e-05
1.60973e-05
1.60972e-05
1.60972e-05
1.60971e-05
1.6097e-05
1.60971e-05
1.60973e-05
1.60975e-05
1.60979e-05
1.60984e-05
1.60991e-05
1.60998e-05
1.61009e-05
1.60976e-05
1.60976e-05
1.60975e-05
1.60975e-05
1.60974e-05
1.60973e-05
1.60972e-05
1.60971e-05
1.6097e-05
1.6097e-05
1.6097e-05
1.6097e-05
1.6097e-05
1.60971e-05
1.60971e-05
1.60971e-05
1.6097e-05
1.60969e-05
1.60969e-05
1.6097e-05
1.60972e-05
1.60974e-05
1.60978e-05
1.60984e-05
1.6099e-05
1.60998e-05
1.60974e-05
1.60974e-05
1.60973e-05
1.60972e-05
1.60971e-05
1.6097e-05
1.60969e-05
1.60968e-05
1.60968e-05
1.60968e-05
1.60968e-05
1.60968e-05
1.60969e-05
1.60969e-05
1.60969e-05
1.60969e-05
1.60968e-05
1.60967e-05
1.60967e-05
1.60969e-05
1.60971e-05
1.60974e-05
1.60978e-05
1.60983e-05
1.6099e-05
1.60973e-05
1.60972e-05
1.60971e-05
1.6097e-05
1.60969e-05
1.60968e-05
1.60967e-05
1.60966e-05
1.60966e-05
1.60965e-05
1.60966e-05
1.60966e-05
1.60967e-05
1.60967e-05
1.60967e-05
1.60967e-05
1.60967e-05
1.60966e-05
1.60965e-05
1.60966e-05
1.60967e-05
1.6097e-05
1.60973e-05
1.60977e-05
1.60983e-05
1.6097e-05
1.60969e-05
1.60968e-05
1.60967e-05
1.60966e-05
1.60965e-05
1.60964e-05
1.60963e-05
1.60963e-05
1.60963e-05
1.60964e-05
1.60964e-05
1.60965e-05
1.60965e-05
1.60966e-05
1.60965e-05
1.60965e-05
1.60964e-05
1.60964e-05
1.60964e-05
1.60966e-05
1.60969e-05
1.60972e-05
1.60977e-05
1.60968e-05
1.60967e-05
1.60967e-05
1.60966e-05
1.60964e-05
1.60963e-05
1.60962e-05
1.60961e-05
1.60961e-05
1.60961e-05
1.60962e-05
1.60962e-05
1.60963e-05
1.60964e-05
1.60964e-05
1.60964e-05
1.60963e-05
1.60962e-05
1.60962e-05
1.60962e-05
1.60963e-05
1.60965e-05
1.60968e-05
1.60972e-05
1.60967e-05
1.60966e-05
1.60965e-05
1.60964e-05
1.60962e-05
1.60961e-05
1.6096e-05
1.6096e-05
1.60959e-05
1.60959e-05
1.6096e-05
1.6096e-05
1.60961e-05
1.60962e-05
1.60962e-05
1.60962e-05
1.60962e-05
1.60961e-05
1.60961e-05
1.60961e-05
1.60961e-05
1.60962e-05
1.60965e-05
1.60968e-05
1.60964e-05
1.60963e-05
1.60962e-05
1.60961e-05
1.60959e-05
1.60958e-05
1.60958e-05
1.60957e-05
1.60957e-05
1.60958e-05
1.60958e-05
1.60959e-05
1.6096e-05
1.6096e-05
1.60961e-05
1.60961e-05
1.60961e-05
1.6096e-05
1.60959e-05
1.60959e-05
1.6096e-05
1.60962e-05
1.60964e-05
1.60962e-05
1.60961e-05
1.6096e-05
1.60959e-05
1.60958e-05
1.60957e-05
1.60956e-05
1.60956e-05
1.60956e-05
1.60956e-05
1.60957e-05
1.60957e-05
1.60958e-05
1.60959e-05
1.60959e-05
1.6096e-05
1.6096e-05
1.6096e-05
1.60959e-05
1.60958e-05
1.60958e-05
1.60959e-05
1.60961e-05
1.6096e-05
1.60958e-05
1.60957e-05
1.60956e-05
1.60955e-05
1.60955e-05
1.60954e-05
1.60954e-05
1.60955e-05
1.60955e-05
1.60956e-05
1.60957e-05
1.60957e-05
1.60958e-05
1.60958e-05
1.60959e-05
1.60959e-05
1.60959e-05
1.60958e-05
1.60958e-05
1.60958e-05
1.60959e-05
1.60958e-05
1.60957e-05
1.60956e-05
1.60955e-05
1.60954e-05
1.60953e-05
1.60953e-05
1.60953e-05
1.60953e-05
1.60954e-05
1.60955e-05
1.60956e-05
1.60956e-05
1.60957e-05
1.60958e-05
1.60958e-05
1.60958e-05
1.60959e-05
1.60958e-05
1.60958e-05
1.60957e-05
1.60958e-05
1.60956e-05
1.60955e-05
1.60954e-05
1.60953e-05
1.60953e-05
1.60952e-05
1.60952e-05
1.60952e-05
1.60952e-05
1.60953e-05
1.60954e-05
1.60955e-05
1.60956e-05
1.60957e-05
1.60957e-05
1.60958e-05
1.60959e-05
1.60959e-05
1.60959e-05
1.60959e-05
1.60958e-05
1.60958e-05
1.60954e-05
1.60953e-05
1.60952e-05
1.60952e-05
1.60951e-05
1.60951e-05
1.60951e-05
1.60952e-05
1.60953e-05
1.60954e-05
1.60955e-05
1.60956e-05
1.60956e-05
1.60957e-05
1.60958e-05
1.60959e-05
1.6096e-05
1.6096e-05
1.6096e-05
1.60959e-05
1.60959e-05
1.60953e-05
1.60952e-05
1.60951e-05
1.60951e-05
1.60951e-05
1.60951e-05
1.60951e-05
1.60952e-05
1.60952e-05
1.60953e-05
1.60954e-05
1.60955e-05
1.60956e-05
1.60957e-05
1.60958e-05
1.60959e-05
1.6096e-05
1.6096e-05
1.6096e-05
1.6096e-05
1.6096e-05
1.60952e-05
1.60951e-05
1.60951e-05
1.60951e-05
1.6095e-05
1.6095e-05
1.60951e-05
1.60951e-05
1.60952e-05
1.60953e-05
1.60954e-05
1.60954e-05
1.60955e-05
1.60956e-05
1.60957e-05
1.60958e-05
1.60959e-05
1.6096e-05
1.6096e-05
1.60961e-05
1.6096e-05
1.60951e-05
1.6095e-05
1.6095e-05
1.6095e-05
1.6095e-05
1.6095e-05
1.6095e-05
1.60951e-05
1.60952e-05
1.60952e-05
1.60953e-05
1.60954e-05
1.60955e-05
1.60956e-05
1.60957e-05
1.60958e-05
1.60959e-05
1.6096e-05
1.60961e-05
1.60961e-05
1.6095e-05
1.60949e-05
1.60949e-05
1.60949e-05
1.60949e-05
1.60949e-05
1.60949e-05
1.6095e-05
1.6095e-05
1.60951e-05
1.60952e-05
1.60953e-05
1.60954e-05
1.60955e-05
1.60956e-05
1.60957e-05
1.60958e-05
1.60959e-05
1.6096e-05
1.60961e-05
1.60948e-05
1.60948e-05
1.60948e-05
1.60947e-05
1.60948e-05
1.60948e-05
1.60948e-05
1.60949e-05
1.6095e-05
1.60951e-05
1.60951e-05
1.60952e-05
1.60953e-05
1.60955e-05
1.60956e-05
1.60957e-05
1.60958e-05
1.60959e-05
1.6096e-05
1.60947e-05
1.60946e-05
1.60946e-05
1.60946e-05
1.60946e-05
1.60946e-05
1.60947e-05
1.60947e-05
1.60948e-05
1.60949e-05
1.6095e-05
1.60951e-05
1.60952e-05
1.60953e-05
1.60954e-05
1.60955e-05
1.60957e-05
1.60958e-05
1.60959e-05
1.60945e-05
1.60945e-05
1.60944e-05
1.60944e-05
1.60944e-05
1.60945e-05
1.60945e-05
1.60945e-05
1.60946e-05
1.60947e-05
1.60947e-05
1.60948e-05
1.60949e-05
1.60951e-05
1.60952e-05
1.60953e-05
1.60955e-05
1.60956e-05
1.60957e-05
1.60943e-05
1.60942e-05
1.60942e-05
1.60942e-05
1.60942e-05
1.60943e-05
1.60943e-05
1.60944e-05
1.60944e-05
1.60945e-05
1.60946e-05
1.60947e-05
1.60948e-05
1.60949e-05
1.60951e-05
1.60952e-05
1.60954e-05
1.60955e-05
1.6094e-05
1.6094e-05
1.6094e-05
1.6094e-05
1.6094e-05
1.6094e-05
1.6094e-05
1.60941e-05
1.60941e-05
1.60942e-05
1.60943e-05
1.60944e-05
1.60945e-05
1.60946e-05
1.60948e-05
1.60949e-05
1.60951e-05
1.60953e-05
1.60937e-05
1.60937e-05
1.60937e-05
1.60937e-05
1.60937e-05
1.60937e-05
1.60937e-05
1.60938e-05
1.60938e-05
1.60939e-05
1.60939e-05
1.6094e-05
1.60941e-05
1.60942e-05
1.60944e-05
1.60945e-05
1.60947e-05
1.60949e-05
1.60934e-05
1.60933e-05
1.60933e-05
1.60933e-05
1.60933e-05
1.60933e-05
1.60934e-05
1.60934e-05
1.60934e-05
1.60935e-05
1.60936e-05
1.60937e-05
1.60938e-05
1.6094e-05
1.60941e-05
1.60943e-05
1.60945e-05
1.6093e-05
1.60929e-05
1.60929e-05
1.60929e-05
1.60929e-05
1.60929e-05
1.60929e-05
1.60929e-05
1.6093e-05
1.6093e-05
1.60931e-05
1.60932e-05
1.60933e-05
1.60935e-05
1.60936e-05
1.60938e-05
1.60925e-05
1.60925e-05
1.60924e-05
1.60924e-05
1.60924e-05
1.60924e-05
1.60924e-05
1.60924e-05
1.60924e-05
1.60925e-05
1.60926e-05
1.60926e-05
1.60928e-05
1.60929e-05
1.6093e-05
1.60932e-05
1.6092e-05
1.60919e-05
1.60919e-05
1.60918e-05
1.60918e-05
1.60918e-05
1.60918e-05
1.60918e-05
1.60919e-05
1.60919e-05
1.6092e-05
1.60921e-05
1.60923e-05
1.60924e-05
1.60926e-05
1.60914e-05
1.60913e-05
1.60913e-05
1.60912e-05
1.60912e-05
1.60912e-05
1.60912e-05
1.60912e-05
1.60912e-05
1.60913e-05
1.60913e-05
1.60914e-05
1.60916e-05
1.60917e-05
1.60919e-05
1.60907e-05
1.60907e-05
1.60906e-05
1.60905e-05
1.60905e-05
1.60905e-05
1.60905e-05
1.60905e-05
1.60905e-05
1.60905e-05
1.60906e-05
1.60907e-05
1.60908e-05
1.60909e-05
1.60911e-05
1.60899e-05
1.60899e-05
1.60898e-05
1.60898e-05
1.60897e-05
1.60897e-05
1.60897e-05
1.60897e-05
1.60898e-05
1.60898e-05
1.60899e-05
1.609e-05
1.60901e-05
1.60903e-05
1.60892e-05
1.60891e-05
1.6089e-05
1.6089e-05
1.60889e-05
1.60889e-05
1.60889e-05
1.60889e-05
1.60889e-05
1.6089e-05
1.60891e-05
1.60892e-05
1.60893e-05
1.60895e-05
1.60883e-05
1.60883e-05
1.60882e-05
1.60881e-05
1.60881e-05
1.60881e-05
1.60881e-05
1.60881e-05
1.60881e-05
1.60882e-05
1.60882e-05
1.60883e-05
1.60885e-05
1.60886e-05
1.60874e-05
1.60873e-05
1.60873e-05
1.60872e-05
1.60872e-05
1.60872e-05
1.60872e-05
1.60873e-05
1.60873e-05
1.60874e-05
1.60875e-05
1.60876e-05
1.60878e-05
1.60865e-05
1.60865e-05
1.60864e-05
1.60864e-05
1.60864e-05
1.60864e-05
1.60864e-05
1.60864e-05
1.60865e-05
1.60865e-05
1.60866e-05
1.60868e-05
1.60869e-05
1.60857e-05
1.60856e-05
1.60856e-05
1.60855e-05
1.60855e-05
1.60855e-05
1.60855e-05
1.60856e-05
1.60856e-05
1.60857e-05
1.60858e-05
1.60859e-05
1.60861e-05
1.60848e-05
1.60848e-05
1.60847e-05
1.60847e-05
1.60847e-05
1.60847e-05
1.60847e-05
1.60847e-05
1.60848e-05
1.60849e-05
1.6085e-05
1.60851e-05
1.60852e-05
1.60839e-05
1.60838e-05
1.60838e-05
1.60838e-05
1.60838e-05
1.60838e-05
1.60838e-05
1.60839e-05
1.6084e-05
1.60841e-05
1.60842e-05
1.60843e-05
1.6083e-05
1.60829e-05
1.60829e-05
1.60828e-05
1.60828e-05
1.60828e-05
1.60829e-05
1.60829e-05
1.6083e-05
1.6083e-05
1.60832e-05
1.60833e-05
1.6082e-05
1.60819e-05
1.60818e-05
1.60818e-05
1.60817e-05
1.60817e-05
1.60817e-05
1.60817e-05
1.60818e-05
1.60818e-05
1.60819e-05
1.60808e-05
1.60807e-05
1.60806e-05
1.60805e-05
1.60804e-05
1.60804e-05
1.60803e-05
1.60803e-05
1.60804e-05
1.60804e-05
1.60805e-05
1.60793e-05
1.60791e-05
1.6079e-05
1.60789e-05
1.60788e-05
1.60787e-05
1.60787e-05
1.60787e-05
1.60787e-05
1.60787e-05
1.60777e-05
1.60775e-05
1.60773e-05
1.60772e-05
1.6077e-05
1.60769e-05
1.60769e-05
1.60768e-05
1.60768e-05
1.60768e-05
1.60759e-05
1.60757e-05
1.60755e-05
1.60753e-05
1.60752e-05
1.60751e-05
1.6075e-05
1.60749e-05
1.60748e-05
1.60748e-05
1.60742e-05
1.6074e-05
1.60738e-05
1.60736e-05
1.60735e-05
1.60733e-05
1.60732e-05
1.60732e-05
1.60731e-05
1.60731e-05
1.60727e-05
1.60725e-05
1.60724e-05
1.60723e-05
1.60722e-05
1.60721e-05
1.6072e-05
1.6072e-05
1.60719e-05
1.60719e-05
1.60717e-05
1.60716e-05
1.60716e-05
1.60716e-05
1.60716e-05
1.60716e-05
1.60716e-05
1.60717e-05
1.60717e-05
1.60717e-05
1.60717e-05
1.60718e-05
1.6072e-05
1.60721e-05
1.60722e-05
1.60723e-05
1.60723e-05
1.60724e-05
1.60725e-05
1.60727e-05
1.60729e-05
1.60731e-05
1.60733e-05
1.60735e-05
1.60736e-05
1.60738e-05
1.60739e-05
1.60743e-05
1.60746e-05
1.60749e-05
1.60752e-05
1.60755e-05
1.60757e-05
1.6076e-05
1.60761e-05
1.60766e-05
1.6077e-05
1.60774e-05
1.60778e-05
1.60782e-05
1.60785e-05
1.60788e-05
1.60788e-05
1.60794e-05
1.608e-05
1.60805e-05
1.6081e-05
1.60815e-05
1.60819e-05
1.60823e-05
1.60827e-05
1.60834e-05
1.6084e-05
1.60846e-05
1.60851e-05
1.60856e-05
1.6086e-05
1.60862e-05
1.60869e-05
1.60876e-05
1.60882e-05
1.60888e-05
1.60894e-05
1.60899e-05
1.60891e-05
1.60899e-05
1.60906e-05
1.60913e-05
1.60919e-05
1.60925e-05
1.60931e-05
1.60913e-05
1.60921e-05
1.60928e-05
1.60935e-05
1.60941e-05
1.60947e-05
1.60953e-05
1.60932e-05
1.60939e-05
1.60946e-05
1.60952e-05
1.60958e-05
1.60964e-05
1.6097e-05
1.60947e-05
1.60953e-05
1.6096e-05
1.60966e-05
1.60972e-05
1.60977e-05
1.60983e-05
1.60958e-05
1.60965e-05
1.60971e-05
1.60977e-05
1.60983e-05
1.60989e-05
1.60971e-05
1.60979e-05
1.60986e-05
1.60993e-05
1.61001e-05
1.61008e-05
1.60995e-05
1.61005e-05
1.61015e-05
1.61024e-05
1.61034e-05
1.61044e-05
1.61049e-05
1.61062e-05
1.61075e-05
1.61087e-05
1.611e-05
1.61095e-05
1.61109e-05
1.61122e-05
1.61135e-05
1.61147e-05
1.61097e-05
1.61106e-05
1.61115e-05
1.61123e-05
1.61131e-05
1.61025e-05
1.61032e-05
1.6104e-05
1.61048e-05
1.61057e-05
1.60996e-05
1.61021e-05
1.61048e-05
1.61076e-05
1.61104e-05
1.61018e-05
1.61037e-05
1.61054e-05
1.6107e-05
1.61084e-05
)
;

boundaryField
{
    inlet
    {
        type            calculated;
        value           uniform 2e-05;
    }
    outlet
    {
        type            calculated;
        value           nonuniform List<scalar> 0();
    }
    walls
    {
        type            calculated;
        value           nonuniform List<scalar> 
28
(
0.00045294
0.000573518
0.000913507
0.00123205
0.00149223
0.00170153
0.00187242
0.00201414
0.00213377
0.00223695
0.002328
0.00241062
0.00248712
0.00255958
0.00262864
0.00269429
0.00275323
0.00279906
0.00283134
0.00285337
0.00286823
0.00287723
0.0028812
0.00287859
0.00286779
0.00284852
0.00282123
0.00278544
)
;
    }
    frontAndBack
    {
        type            empty;
    }
    procBoundary1to0
    {
        type            processor;
        value           nonuniform List<scalar> 
94
(
1.60976e-05
1.60976e-05
1.60986e-05
1.60986e-05
1.60987e-05
1.60987e-05
1.60981e-05
1.60981e-05
1.60978e-05
1.60978e-05
1.60977e-05
1.60977e-05
1.60977e-05
1.60975e-05
1.60975e-05
1.60973e-05
1.60971e-05
1.60971e-05
1.60969e-05
1.60968e-05
1.60965e-05
1.60965e-05
1.60964e-05
1.60961e-05
1.60961e-05
1.60959e-05
1.60958e-05
1.60955e-05
1.60955e-05
1.60954e-05
1.60953e-05
1.60952e-05
1.60952e-05
1.6095e-05
1.60949e-05
1.60949e-05
1.60947e-05
1.60945e-05
1.60943e-05
1.60943e-05
1.60941e-05
1.60938e-05
1.60934e-05
1.60934e-05
1.6093e-05
1.60926e-05
1.6092e-05
1.6092e-05
1.60915e-05
1.60908e-05
1.609e-05
1.609e-05
1.60892e-05
1.60884e-05
1.60875e-05
1.60875e-05
1.60866e-05
1.60858e-05
1.60849e-05
1.6084e-05
1.6084e-05
1.6083e-05
1.6082e-05
1.60809e-05
1.60794e-05
1.60794e-05
1.60779e-05
1.60762e-05
1.60744e-05
1.60729e-05
1.60718e-05
1.60718e-05
1.60716e-05
1.60722e-05
1.60736e-05
1.60756e-05
1.60782e-05
1.6082e-05
1.6082e-05
1.60854e-05
1.60883e-05
1.60905e-05
1.60924e-05
1.6094e-05
1.60951e-05
1.60964e-05
1.60985e-05
1.61035e-05
1.61035e-05
1.61081e-05
1.61087e-05
1.61018e-05
1.60973e-05
1.60999e-05
)
;
    }
    procBoundary1to2
    {
        type            processor;
        value           nonuniform List<scalar> 
84
(
0.106734
0.0701522
0.039772
0.00695784
0.000735847
0.00017249
1.00492e-05
1.6023e-05
1.61846e-05
1.61865e-05
1.61663e-05
1.61195e-05
1.61022e-05
1.61009e-05
1.61014e-05
1.61009e-05
1.61e-05
1.60991e-05
1.60984e-05
1.60978e-05
1.60973e-05
1.60968e-05
1.60964e-05
1.60961e-05
1.6096e-05
1.60959e-05
1.60959e-05
1.60959e-05
1.6096e-05
1.6096e-05
1.6096e-05
1.60961e-05
1.6096e-05
1.60958e-05
1.60957e-05
1.60954e-05
1.60951e-05
1.60947e-05
1.6094e-05
1.6094e-05
1.60934e-05
1.60928e-05
1.60921e-05
1.60913e-05
1.60905e-05
1.60896e-05
1.60888e-05
1.60879e-05
1.60871e-05
1.60863e-05
1.60854e-05
1.60845e-05
1.60835e-05
1.6082e-05
1.6082e-05
1.60806e-05
1.60788e-05
1.60768e-05
1.60748e-05
1.60731e-05
1.60719e-05
1.60717e-05
1.60725e-05
1.60739e-05
1.60739e-05
1.60762e-05
1.60791e-05
1.60826e-05
1.60865e-05
1.60904e-05
1.60936e-05
1.60958e-05
1.60975e-05
1.60988e-05
1.60995e-05
1.60995e-05
1.61015e-05
1.61053e-05
1.61112e-05
1.6116e-05
1.61139e-05
1.61066e-05
1.61133e-05
1.61098e-05
)
;
    }
    procBoundary1to5
    {
        type            processor;
        value           nonuniform List<scalar> 
13
(
1.81138e-05
1.81138e-05
1.57871e-05
1.61508e-05
1.61508e-05
1.60928e-05
1.61047e-05
1.61047e-05
1.60993e-05
1.60991e-05
1.60984e-05
1.60984e-05
1.60987e-05
)
;
    }
}


// ************************************************************************* //
