/*--------------------------------*- C++ -*----------------------------------*\
| =========                 |                                                 |
| \\      /  F ield         | OpenFOAM: The Open Source CFD Toolbox           |
|  \\    /   O peration     | Version:  2506                                  |
|   \\  /    A nd           | Website:  www.openfoam.com                      |
|    \\/     M anipulation  |                                                 |
\*---------------------------------------------------------------------------*/
FoamFile
{
    version     2.0;
    format      ascii;
    arch        "LSB;label=32;scalar=64";
    class       volScalarField;
    location    "200";
    object      turbulenceProperties:nut;
}
// * * * * * * * * * * * * * * * * * * * * * * * * * * * * * * * * * * * * * //

dimensions      [0 2 -1 0 0 0 0];

internalField   nonuniform List<scalar> 
1340
(
6.83016e-06
8.0754e-06
1.08402e-05
1.55962e-05
2.34246e-05
3.58865e-05
5.49069e-05
8.20006e-05
0.000118743
0.000168237
0.000237749
0.00034158
0.000505191
0.000778932
0.00125127
0.00213561
0.00380087
0.00740025
0.0148541
0.0328242
0.066783
0.0938052
0.10525
0.108617
0.109548
0.109638
0.109136
0.108128
5.92029e-06
6.03422e-06
5.9627e-06
5.81499e-06
5.6185e-06
5.38273e-06
5.11609e-06
4.8216e-06
4.48829e-06
4.11299e-06
3.67068e-06
3.15732e-06
2.54387e-06
1.83984e-06
1.07097e-06
4.18463e-07
5.38775e-08
1.45834e-09
1.28332e-08
9.61613e-05
0.000554008
0.00423151
0.0142656
0.0289152
0.0439319
0.055254
0.062001
0.0657698
0.0681575
6.13278e-06
6.1183e-06
6.12423e-06
6.14021e-06
6.16058e-06
6.18462e-06
6.21382e-06
6.24646e-06
6.28326e-06
6.32391e-06
6.37008e-06
6.42297e-06
6.48624e-06
6.56321e-06
6.66208e-06
6.78905e-06
6.96926e-06
7.16197e-06
7.42035e-06
7.13785e-06
7.2158e-06
2.44804e-06
8.72388e-05
0.000803916
0.00305444
0.00761093
0.0143556
0.0225682
0.0313093
6.09501e-06
6.09637e-06
6.09743e-06
6.09527e-06
6.09255e-06
6.08904e-06
6.08534e-06
6.08201e-06
6.07876e-06
6.07559e-06
6.07224e-06
6.06869e-06
6.0647e-06
6.05992e-06
6.05518e-06
6.05015e-06
6.04475e-06
6.03827e-06
6.03234e-06
6.02584e-06
6.0289e-06
6.02046e-06
6.08768e-06
5.97235e-06
6.05026e-06
4.88176e-06
3.96813e-06
0.000229953
0.00105907
0.00307496
6.1036e-06
6.10136e-06
6.09939e-06
6.09848e-06
6.09848e-06
6.09868e-06
6.09901e-06
6.09975e-06
6.1006e-06
6.1018e-06
6.10322e-06
6.10491e-06
6.10686e-06
6.10913e-06
6.11167e-06
6.11447e-06
6.11753e-06
6.12099e-06
6.12483e-06
6.12982e-06
6.13408e-06
6.14765e-06
6.12616e-06
6.27399e-06
5.67588e-06
8.79819e-06
5.20482e-07
2.64655e-05
0.000248713
0.000736211
6.10114e-06
6.10101e-06
6.09944e-06
6.09813e-06
6.09739e-06
6.0971e-06
6.09698e-06
6.09699e-06
6.09712e-06
6.09715e-06
6.0973e-06
6.09744e-06
6.09764e-06
6.09787e-06
6.09815e-06
6.09843e-06
6.09869e-06
6.09885e-06
6.09894e-06
6.09879e-06
6.09868e-06
6.0989e-06
6.09919e-06
6.10088e-06
6.10031e-06
6.1092e-06
6.09231e-06
6.19489e-06
5.59134e-06
4.13648e-06
1.86653e-09
6.1008e-06
6.10082e-06
6.09937e-06
6.09809e-06
6.09758e-06
6.09746e-06
6.09754e-06
6.09768e-06
6.09781e-06
6.09782e-06
6.09791e-06
6.09796e-06
6.0981e-06
6.09832e-06
6.09867e-06
6.09911e-06
6.09967e-06
6.10032e-06
6.10109e-06
6.102e-06
6.10312e-06
6.10457e-06
6.10644e-06
6.10877e-06
6.11168e-06
6.11539e-06
6.11974e-06
6.12566e-06
6.15062e-06
5.50781e-06
3.36968e-06
6.10002e-06
6.10021e-06
6.09904e-06
6.09796e-06
6.0977e-06
6.09768e-06
6.09779e-06
6.09789e-06
6.09793e-06
6.09793e-06
6.09786e-06
6.09777e-06
6.09771e-06
6.09772e-06
6.09781e-06
6.09796e-06
6.09816e-06
6.09838e-06
6.09863e-06
6.09889e-06
6.09914e-06
6.09947e-06
6.09988e-06
6.10035e-06
6.10088e-06
6.10124e-06
6.1022e-06
6.09967e-06
6.11091e-06
6.07695e-06
6.31652e-06
6.09803e-06
6.09946e-06
6.09975e-06
6.0988e-06
6.09796e-06
6.09784e-06
6.09786e-06
6.09797e-06
6.09805e-06
6.09807e-06
6.09803e-06
6.09794e-06
6.09789e-06
6.09778e-06
6.09773e-06
6.09774e-06
6.09779e-06
6.0979e-06
6.09804e-06
6.09826e-06
6.09853e-06
6.09888e-06
6.09937e-06
6.10007e-06
6.10097e-06
6.10211e-06
6.10351e-06
6.10527e-06
6.10724e-06
6.11015e-06
6.1069e-06
6.12586e-06
6.09891e-06
6.09929e-06
6.0985e-06
6.09793e-06
6.09788e-06
6.09791e-06
6.09804e-06
6.09812e-06
6.09813e-06
6.09807e-06
6.09797e-06
6.09794e-06
6.09791e-06
6.09789e-06
6.0978e-06
6.09773e-06
6.09772e-06
6.09773e-06
6.09779e-06
6.0979e-06
6.09804e-06
6.09827e-06
6.09863e-06
6.09912e-06
6.09972e-06
6.10045e-06
6.10125e-06
6.1024e-06
6.10251e-06
6.1081e-06
6.08906e-06
6.09894e-06
6.09826e-06
6.09783e-06
6.09783e-06
6.09789e-06
6.09802e-06
6.0981e-06
6.09814e-06
6.09806e-06
6.09796e-06
6.09793e-06
6.0979e-06
6.0979e-06
6.09787e-06
6.09782e-06
6.09773e-06
6.09766e-06
6.09764e-06
6.09766e-06
6.09773e-06
6.0979e-06
6.0982e-06
6.09864e-06
6.09922e-06
6.09997e-06
6.10085e-06
6.10215e-06
6.10262e-06
6.10777e-06
6.09276e-06
6.0981e-06
6.09776e-06
6.09776e-06
6.09782e-06
6.09795e-06
6.09804e-06
6.09808e-06
6.09801e-06
6.09789e-06
6.09785e-06
6.09782e-06
6.09781e-06
6.09778e-06
6.09776e-06
6.09772e-06
6.09765e-06
6.09756e-06
6.09751e-06
6.09749e-06
6.09755e-06
6.09772e-06
6.09801e-06
6.09842e-06
6.09896e-06
6.09962e-06
6.10048e-06
6.10121e-06
6.1034e-06
6.10036e-06
6.09774e-06
6.09772e-06
6.09775e-06
6.09785e-06
6.09792e-06
6.09795e-06
6.09791e-06
6.09781e-06
6.09774e-06
6.09768e-06
6.09765e-06
6.09764e-06
6.09764e-06
6.09763e-06
6.09761e-06
6.09754e-06
6.09744e-06
6.09736e-06
6.09735e-06
6.09745e-06
6.09766e-06
6.09799e-06
6.09844e-06
6.09903e-06
6.09976e-06
6.10066e-06
6.10161e-06
6.10329e-06
6.09771e-06
6.09769e-06
6.09775e-06
6.09781e-06
6.09782e-06
6.09777e-06
6.09767e-06
6.09758e-06
6.0975e-06
6.09747e-06
6.09745e-06
6.09746e-06
6.09746e-06
6.09746e-06
6.09743e-06
6.09736e-06
6.09725e-06
6.09719e-06
6.09722e-06
6.09735e-06
6.09759e-06
6.09794e-06
6.09841e-06
6.099e-06
6.09978e-06
6.10053e-06
6.10225e-06
6.09763e-06
6.09765e-06
6.09767e-06
6.09766e-06
6.09759e-06
6.09749e-06
6.09737e-06
6.09728e-06
6.09724e-06
6.09722e-06
6.09722e-06
6.09724e-06
6.09726e-06
6.09726e-06
6.09723e-06
6.09716e-06
6.09708e-06
6.09705e-06
6.09711e-06
6.09727e-06
6.09753e-06
6.09791e-06
6.09841e-06
6.09906e-06
6.09979e-06
6.10091e-06
6.09758e-06
6.09756e-06
6.09754e-06
6.0975e-06
6.09741e-06
6.09731e-06
6.09718e-06
6.09707e-06
6.09702e-06
6.09699e-06
6.097e-06
6.09701e-06
6.09705e-06
6.09707e-06
6.09706e-06
6.09705e-06
6.09696e-06
6.09689e-06
6.09689e-06
6.09698e-06
6.09716e-06
6.09744e-06
6.09784e-06
6.09836e-06
6.09902e-06
6.09984e-06
6.09742e-06
6.09738e-06
6.09731e-06
6.09722e-06
6.09712e-06
6.09699e-06
6.09688e-06
6.09681e-06
6.09677e-06
6.09676e-06
6.09678e-06
6.09682e-06
6.09687e-06
6.09689e-06
6.0969e-06
6.09687e-06
6.09678e-06
6.09673e-06
6.09675e-06
6.09685e-06
6.09705e-06
6.09736e-06
6.09778e-06
6.09833e-06
6.09902e-06
6.09727e-06
6.09721e-06
6.09713e-06
6.09703e-06
6.09694e-06
6.09681e-06
6.09669e-06
6.09661e-06
6.09655e-06
6.09654e-06
6.09655e-06
6.0966e-06
6.09665e-06
6.0967e-06
6.09673e-06
6.09672e-06
6.09667e-06
6.09658e-06
6.09655e-06
6.09659e-06
6.09672e-06
6.09695e-06
6.09729e-06
6.09774e-06
6.09833e-06
6.09701e-06
6.09693e-06
6.09684e-06
6.09675e-06
6.09663e-06
6.0965e-06
6.09641e-06
6.09635e-06
6.09633e-06
6.09634e-06
6.09639e-06
6.09644e-06
6.09649e-06
6.09654e-06
6.09655e-06
6.09653e-06
6.09645e-06
6.09638e-06
6.09637e-06
6.09645e-06
6.09661e-06
6.09687e-06
6.09723e-06
6.09774e-06
6.09683e-06
6.09675e-06
6.09666e-06
6.09656e-06
6.09644e-06
6.09631e-06
6.09621e-06
6.09615e-06
6.09613e-06
6.09613e-06
6.09617e-06
6.09623e-06
6.0963e-06
6.09635e-06
6.09638e-06
6.09637e-06
6.09634e-06
6.09625e-06
6.0962e-06
6.09622e-06
6.09633e-06
6.09652e-06
6.09681e-06
6.09724e-06
6.09667e-06
6.09657e-06
6.09647e-06
6.09636e-06
6.09624e-06
6.09612e-06
6.09602e-06
6.09596e-06
6.09593e-06
6.09593e-06
6.09597e-06
6.09603e-06
6.09609e-06
6.09615e-06
6.09619e-06
6.0962e-06
6.0962e-06
6.09615e-06
6.09608e-06
6.09605e-06
6.0961e-06
6.09623e-06
6.09645e-06
6.09679e-06
6.0964e-06
6.09628e-06
6.09618e-06
6.09606e-06
6.09594e-06
6.09584e-06
6.09578e-06
6.09575e-06
6.09574e-06
6.09578e-06
6.09584e-06
6.09591e-06
6.09597e-06
6.09603e-06
6.09606e-06
6.09608e-06
6.09607e-06
6.09601e-06
6.09595e-06
6.09594e-06
6.09601e-06
6.09616e-06
6.09642e-06
6.09624e-06
6.09612e-06
6.09601e-06
6.09588e-06
6.09576e-06
6.09567e-06
6.09561e-06
6.09558e-06
6.09557e-06
6.09561e-06
6.09567e-06
6.09574e-06
6.09582e-06
6.09587e-06
6.09592e-06
6.09596e-06
6.09597e-06
6.09595e-06
6.09588e-06
6.09583e-06
6.09584e-06
6.09593e-06
6.09612e-06
6.09595e-06
6.09583e-06
6.09571e-06
6.0956e-06
6.09552e-06
6.09546e-06
6.09543e-06
6.09543e-06
6.09546e-06
6.09552e-06
6.0956e-06
6.09568e-06
6.09574e-06
6.0958e-06
6.09584e-06
6.09587e-06
6.09588e-06
6.09585e-06
6.09578e-06
6.09575e-06
6.09578e-06
6.09591e-06
6.09578e-06
6.09567e-06
6.09555e-06
6.09545e-06
6.09538e-06
6.09532e-06
6.0953e-06
6.0953e-06
6.09533e-06
6.0954e-06
6.09548e-06
6.09556e-06
6.09563e-06
6.0957e-06
6.09576e-06
6.09582e-06
6.09585e-06
6.09586e-06
6.09582e-06
6.09575e-06
6.09573e-06
6.09579e-06
6.09563e-06
6.09551e-06
6.0954e-06
6.09532e-06
6.09525e-06
6.09521e-06
6.0952e-06
6.09521e-06
6.09525e-06
6.09531e-06
6.0954e-06
6.0955e-06
6.09558e-06
6.09566e-06
6.09574e-06
6.09582e-06
6.09587e-06
6.09591e-06
6.09592e-06
6.09586e-06
6.0958e-06
6.0958e-06
6.09537e-06
6.09528e-06
6.09521e-06
6.09517e-06
6.09514e-06
6.09513e-06
6.09515e-06
6.0952e-06
6.09527e-06
6.09537e-06
6.09547e-06
6.09556e-06
6.09565e-06
6.09574e-06
6.09582e-06
6.0959e-06
6.09596e-06
6.09599e-06
6.09599e-06
6.09592e-06
6.09587e-06
6.09528e-06
6.0952e-06
6.09515e-06
6.09511e-06
6.09509e-06
6.0951e-06
6.09512e-06
6.09516e-06
6.09524e-06
6.09533e-06
6.09543e-06
6.09552e-06
6.09561e-06
6.0957e-06
6.09579e-06
6.09588e-06
6.09595e-06
6.09601e-06
6.09604e-06
6.09602e-06
6.09596e-06
6.09522e-06
6.09515e-06
6.0951e-06
6.09506e-06
6.09504e-06
6.09504e-06
6.09506e-06
6.09511e-06
6.09517e-06
6.09526e-06
6.09535e-06
6.09544e-06
6.09553e-06
6.09562e-06
6.09572e-06
6.09581e-06
6.09591e-06
6.09598e-06
6.09604e-06
6.09607e-06
6.09602e-06
6.09507e-06
6.09502e-06
6.09498e-06
6.09497e-06
6.09497e-06
6.09498e-06
6.09502e-06
6.09508e-06
6.09516e-06
6.09525e-06
6.09533e-06
6.09542e-06
6.09551e-06
6.09561e-06
6.09572e-06
6.09582e-06
6.09592e-06
6.096e-06
6.09605e-06
6.09606e-06
6.09498e-06
6.09493e-06
6.09489e-06
6.09487e-06
6.09487e-06
6.09488e-06
6.09491e-06
6.09497e-06
6.09504e-06
6.09512e-06
6.0952e-06
6.09529e-06
6.09539e-06
6.09549e-06
6.09561e-06
6.09572e-06
6.09583e-06
6.09594e-06
6.09602e-06
6.09607e-06
6.09481e-06
6.09477e-06
6.09475e-06
6.09475e-06
6.09475e-06
6.09478e-06
6.09483e-06
6.0949e-06
6.09498e-06
6.09506e-06
6.09514e-06
6.09524e-06
6.09535e-06
6.09547e-06
6.09559e-06
6.09572e-06
6.09584e-06
6.09594e-06
6.09602e-06
6.09467e-06
6.09463e-06
6.09461e-06
6.0946e-06
6.09461e-06
6.09463e-06
6.09468e-06
6.09474e-06
6.09481e-06
6.09489e-06
6.09497e-06
6.09506e-06
6.09517e-06
6.09529e-06
6.09541e-06
6.09555e-06
6.09568e-06
6.0958e-06
6.09591e-06
6.0945e-06
6.09446e-06
6.09444e-06
6.09443e-06
6.09443e-06
6.09445e-06
6.09449e-06
6.09455e-06
6.09461e-06
6.09467e-06
6.09475e-06
6.09484e-06
6.09494e-06
6.09506e-06
6.09519e-06
6.09533e-06
6.09547e-06
6.09561e-06
6.09574e-06
6.09426e-06
6.09423e-06
6.09422e-06
6.09422e-06
6.09423e-06
6.09426e-06
6.09431e-06
6.09436e-06
6.09442e-06
6.09449e-06
6.09458e-06
6.09468e-06
6.0948e-06
6.09493e-06
6.09507e-06
6.09523e-06
6.09538e-06
6.09554e-06
6.09402e-06
6.09399e-06
6.09397e-06
6.09396e-06
6.09397e-06
6.09399e-06
6.09403e-06
6.09408e-06
6.09414e-06
6.0942e-06
6.09428e-06
6.09438e-06
6.09449e-06
6.09462e-06
6.09476e-06
6.09492e-06
6.09509e-06
6.09526e-06
6.09374e-06
6.0937e-06
6.09368e-06
6.09366e-06
6.09366e-06
6.09368e-06
6.09371e-06
6.09375e-06
6.09379e-06
6.09385e-06
6.09392e-06
6.09401e-06
6.09412e-06
6.09424e-06
6.09439e-06
6.09454e-06
6.09472e-06
6.0949e-06
6.09336e-06
6.09333e-06
6.09331e-06
6.0933e-06
6.09331e-06
6.09333e-06
6.09336e-06
6.09339e-06
6.09344e-06
6.09351e-06
6.09359e-06
6.09369e-06
6.09381e-06
6.09395e-06
6.09411e-06
6.09429e-06
6.09448e-06
6.09297e-06
6.09294e-06
6.09291e-06
6.09289e-06
6.09288e-06
6.09289e-06
6.09291e-06
6.09294e-06
6.09298e-06
6.09304e-06
6.09311e-06
6.09321e-06
6.09332e-06
6.09346e-06
6.09362e-06
6.0938e-06
6.09253e-06
6.09248e-06
6.09244e-06
6.09241e-06
6.0924e-06
6.0924e-06
6.0924e-06
6.09242e-06
6.09245e-06
6.0925e-06
6.09256e-06
6.09265e-06
6.09276e-06
6.09289e-06
6.09304e-06
6.09322e-06
6.09196e-06
6.09191e-06
6.09187e-06
6.09185e-06
6.09183e-06
6.09183e-06
6.09183e-06
6.09185e-06
6.09189e-06
6.09194e-06
6.09202e-06
6.09213e-06
6.09225e-06
6.0924e-06
6.09258e-06
6.09138e-06
6.09132e-06
6.09127e-06
6.09123e-06
6.0912e-06
6.09119e-06
6.09118e-06
6.09119e-06
6.09122e-06
6.09127e-06
6.09134e-06
6.09144e-06
6.09156e-06
6.0917e-06
6.09188e-06
6.09073e-06
6.09066e-06
6.0906e-06
6.09055e-06
6.09051e-06
6.09049e-06
6.09047e-06
6.09047e-06
6.0905e-06
6.09054e-06
6.0906e-06
6.09069e-06
6.0908e-06
6.09094e-06
6.09111e-06
6.08994e-06
6.08987e-06
6.08981e-06
6.08976e-06
6.08973e-06
6.08971e-06
6.0897e-06
6.08972e-06
6.08975e-06
6.08981e-06
6.08989e-06
6.09e-06
6.09013e-06
6.09029e-06
6.08916e-06
6.08908e-06
6.08902e-06
6.08897e-06
6.08893e-06
6.0889e-06
6.08889e-06
6.0889e-06
6.08894e-06
6.08899e-06
6.08907e-06
6.08917e-06
6.0893e-06
6.08946e-06
6.08834e-06
6.08826e-06
6.08819e-06
6.08814e-06
6.08809e-06
6.08807e-06
6.08806e-06
6.08807e-06
6.0881e-06
6.08815e-06
6.08823e-06
6.08833e-06
6.08846e-06
6.08861e-06
6.08741e-06
6.08734e-06
6.08729e-06
6.08724e-06
6.08722e-06
6.08721e-06
6.08722e-06
6.08725e-06
6.08731e-06
6.08738e-06
6.08748e-06
6.0876e-06
6.08775e-06
6.08655e-06
6.08648e-06
6.08643e-06
6.08639e-06
6.08637e-06
6.08636e-06
6.08637e-06
6.08641e-06
6.08646e-06
6.08654e-06
6.08664e-06
6.08676e-06
6.08691e-06
6.08568e-06
6.08562e-06
6.08557e-06
6.08554e-06
6.08552e-06
6.08552e-06
6.08554e-06
6.08557e-06
6.08563e-06
6.08571e-06
6.08581e-06
6.08593e-06
6.08608e-06
6.08482e-06
6.08476e-06
6.08471e-06
6.08468e-06
6.08467e-06
6.08467e-06
6.08469e-06
6.08473e-06
6.08479e-06
6.08487e-06
6.08497e-06
6.08509e-06
6.08524e-06
6.08389e-06
6.08384e-06
6.08381e-06
6.08379e-06
6.08379e-06
6.08381e-06
6.08384e-06
6.0839e-06
6.08397e-06
6.08407e-06
6.08419e-06
6.08433e-06
6.08297e-06
6.08292e-06
6.08287e-06
6.08284e-06
6.08283e-06
6.08284e-06
6.08286e-06
6.0829e-06
6.08296e-06
6.08305e-06
6.08316e-06
6.08329e-06
6.08196e-06
6.08188e-06
6.08182e-06
6.08177e-06
6.08173e-06
6.08171e-06
6.08171e-06
6.08173e-06
6.08178e-06
6.08184e-06
6.08193e-06
6.0808e-06
6.08069e-06
6.08059e-06
6.0805e-06
6.08043e-06
6.08038e-06
6.08035e-06
6.08034e-06
6.08035e-06
6.08039e-06
6.08046e-06
6.07929e-06
6.07914e-06
6.07901e-06
6.0789e-06
6.07881e-06
6.07874e-06
6.07869e-06
6.07867e-06
6.07868e-06
6.07872e-06
6.07768e-06
6.07749e-06
6.07731e-06
6.07716e-06
6.07703e-06
6.07693e-06
6.07685e-06
6.0768e-06
6.07677e-06
6.07678e-06
6.07593e-06
6.07571e-06
6.07551e-06
6.07533e-06
6.07518e-06
6.07505e-06
6.07495e-06
6.07488e-06
6.07483e-06
6.07481e-06
6.0742e-06
6.07398e-06
6.07378e-06
6.0736e-06
6.07346e-06
6.07334e-06
6.07324e-06
6.07316e-06
6.07311e-06
6.07307e-06
6.07272e-06
6.07254e-06
6.07239e-06
6.07226e-06
6.07216e-06
6.07208e-06
6.07201e-06
6.07197e-06
6.07193e-06
6.07191e-06
6.07168e-06
6.07163e-06
6.0716e-06
6.07159e-06
6.07159e-06
6.07161e-06
6.07163e-06
6.07166e-06
6.07169e-06
6.07166e-06
6.07175e-06
6.07185e-06
6.07195e-06
6.07205e-06
6.07216e-06
6.07225e-06
6.07234e-06
6.07243e-06
6.07246e-06
6.07267e-06
6.07288e-06
6.07308e-06
6.07328e-06
6.07346e-06
6.07363e-06
6.07378e-06
6.07394e-06
6.07428e-06
6.07461e-06
6.07492e-06
6.07521e-06
6.07548e-06
6.07573e-06
6.07596e-06
6.07609e-06
6.07656e-06
6.077e-06
6.07743e-06
6.07782e-06
6.07819e-06
6.07853e-06
6.07884e-06
6.07882e-06
6.07942e-06
6.07998e-06
6.08051e-06
6.08101e-06
6.08147e-06
6.08189e-06
6.08228e-06
6.0827e-06
6.08336e-06
6.08398e-06
6.08455e-06
6.08509e-06
6.08559e-06
6.08605e-06
6.08619e-06
6.08692e-06
6.0876e-06
6.08824e-06
6.08883e-06
6.08938e-06
6.08989e-06
6.08915e-06
6.08991e-06
6.09062e-06
6.09129e-06
6.09192e-06
6.09251e-06
6.09307e-06
6.09133e-06
6.09208e-06
6.09279e-06
6.09345e-06
6.09408e-06
6.09469e-06
6.09526e-06
6.0932e-06
6.0939e-06
6.09457e-06
6.09521e-06
6.09582e-06
6.09641e-06
6.09697e-06
6.09467e-06
6.09533e-06
6.09597e-06
6.09658e-06
6.09717e-06
6.09774e-06
6.0983e-06
6.09581e-06
6.09647e-06
6.0971e-06
6.09772e-06
6.09833e-06
6.09893e-06
6.09711e-06
6.09786e-06
6.0986e-06
6.09934e-06
6.10007e-06
6.10078e-06
6.09946e-06
6.10046e-06
6.10146e-06
6.10244e-06
6.10342e-06
6.10439e-06
6.10486e-06
6.10617e-06
6.10745e-06
6.10872e-06
6.10998e-06
6.10951e-06
6.11087e-06
6.1122e-06
6.11349e-06
6.11475e-06
6.10968e-06
6.11059e-06
6.11146e-06
6.11229e-06
6.11309e-06
6.10248e-06
6.10321e-06
6.10399e-06
6.10483e-06
6.10571e-06
6.09962e-06
6.10215e-06
6.1048e-06
6.10756e-06
6.1104e-06
6.10184e-06
6.10366e-06
6.10537e-06
6.10696e-06
6.10844e-06
)
;

boundaryField
{
    inlet
    {
        type            freestream;
        freestreamValue uniform 1e-05;
        value           uniform 1e-05;
    }
    outlet
    {
        type            freestream;
        freestreamValue nonuniform List<scalar> 0();
        value           nonuniform List<scalar> 0();
    }
    walls
    {
        type            nutUSpaldingWallFunction;
        value           nonuniform List<scalar> 
28
(
0.00044294
0.000563518
0.000903507
0.00122205
0.00148223
0.00169153
0.00186242
0.00200414
0.00212377
0.00222695
0.002318
0.00240062
0.00247712
0.00254958
0.00261864
0.00268429
0.00274323
0.00278906
0.00282134
0.00284337
0.00285823
0.00286723
0.0028712
0.00286859
0.00285779
0.00283852
0.00281123
0.00277544
)
;
    }
    frontAndBack
    {
        type            empty;
    }
    procBoundary1to0
    {
        type            processor;
        value           nonuniform List<scalar> 
94
(
6.09764e-06
6.09764e-06
6.09856e-06
6.09856e-06
6.09874e-06
6.09874e-06
6.09806e-06
6.09806e-06
6.09778e-06
6.09778e-06
6.09771e-06
6.09771e-06
6.09766e-06
6.09748e-06
6.09748e-06
6.09735e-06
6.09711e-06
6.09711e-06
6.09695e-06
6.09679e-06
6.09652e-06
6.09652e-06
6.09636e-06
6.09608e-06
6.09608e-06
6.09592e-06
6.09577e-06
6.0955e-06
6.0955e-06
6.09539e-06
6.09532e-06
6.09516e-06
6.09516e-06
6.09505e-06
6.09488e-06
6.09488e-06
6.09473e-06
6.09455e-06
6.09431e-06
6.09431e-06
6.09406e-06
6.09378e-06
6.09341e-06
6.09341e-06
6.09303e-06
6.09259e-06
6.09203e-06
6.09203e-06
6.09145e-06
6.09081e-06
6.09002e-06
6.09002e-06
6.08925e-06
6.08843e-06
6.0875e-06
6.0875e-06
6.08663e-06
6.08576e-06
6.08489e-06
6.08395e-06
6.08395e-06
6.08304e-06
6.08204e-06
6.08091e-06
6.07945e-06
6.07945e-06
6.07788e-06
6.07617e-06
6.07444e-06
6.07291e-06
6.07176e-06
6.07176e-06
6.07159e-06
6.07225e-06
6.0736e-06
6.0756e-06
6.0782e-06
6.08199e-06
6.08199e-06
6.08541e-06
6.08834e-06
6.09054e-06
6.09245e-06
6.09398e-06
6.09514e-06
6.09635e-06
6.09846e-06
6.10354e-06
6.10354e-06
6.1081e-06
6.10872e-06
6.1018e-06
6.09726e-06
6.09992e-06
)
;
    }
    procBoundary1to2
    {
        type            processor;
        value           nonuniform List<scalar> 
84
(
0.106724
0.0701422
0.039762
0.00694784
0.000725847
0.00016249
4.92189e-08
6.02302e-06
6.18459e-06
6.18647e-06
6.16632e-06
6.11948e-06
6.10223e-06
6.10089e-06
6.10143e-06
6.10088e-06
6.09996e-06
6.09911e-06
6.0984e-06
6.09781e-06
6.09728e-06
6.09682e-06
6.09644e-06
6.09615e-06
6.09595e-06
6.09588e-06
6.09589e-06
6.09593e-06
6.09596e-06
6.09599e-06
6.09603e-06
6.09605e-06
6.09598e-06
6.09584e-06
6.09566e-06
6.0954e-06
6.09507e-06
6.09467e-06
6.09399e-06
6.09399e-06
6.09342e-06
6.09277e-06
6.09207e-06
6.0913e-06
6.09048e-06
6.08965e-06
6.08879e-06
6.08793e-06
6.08708e-06
6.08626e-06
6.08541e-06
6.0845e-06
6.08345e-06
6.08205e-06
6.08205e-06
6.08055e-06
6.07878e-06
6.07681e-06
6.07481e-06
6.07305e-06
6.07189e-06
6.07171e-06
6.0725e-06
6.07392e-06
6.07392e-06
6.07616e-06
6.07912e-06
6.08264e-06
6.08647e-06
6.09037e-06
6.09359e-06
6.09581e-06
6.09752e-06
6.09885e-06
6.09952e-06
6.09952e-06
6.10149e-06
6.10534e-06
6.11121e-06
6.11598e-06
6.11386e-06
6.10662e-06
6.1133e-06
6.10981e-06
)
;
    }
    procBoundary1to5
    {
        type            processor;
        value           nonuniform List<scalar> 
13
(
8.11379e-06
8.11379e-06
5.78714e-06
6.15079e-06
6.15079e-06
6.09278e-06
6.10466e-06
6.10466e-06
6.09926e-06
6.09906e-06
6.09844e-06
6.09844e-06
6.0987e-06
)
;
    }
}


// ************************************************************************* //
