/*--------------------------------*- C++ -*----------------------------------*\
| =========                 |                                                 |
| \\      /  F ield         | OpenFOAM: The Open Source CFD Toolbox           |
|  \\    /   O peration     | Version:  2506                                  |
|   \\  /    A nd           | Website:  www.openfoam.com                      |
|    \\/     M anipulation  |                                                 |
\*---------------------------------------------------------------------------*/
FoamFile
{
    version     2.0;
    format      ascii;
    arch        "LSB;label=32;scalar=64";
    class       volVectorField;
    location    "200";
    object      U;
}
// * * * * * * * * * * * * * * * * * * * * * * * * * * * * * * * * * * * * * //

dimensions      [0 1 -1 0 0 0 0];

internalField   nonuniform List<vector> 
1340
(
(1.45059 2.09523 5.50117e-15)
(3.41539 -0.234991 -1.59807e-15)
(5.65163 -2.24616 4.99353e-16)
(7.94281 -3.73277 1.71655e-15)
(10.0525 -4.68651 2.59045e-15)
(11.9181 -5.23589 8.08198e-16)
(13.5502 -5.50384 -1.3745e-15)
(14.9732 -5.5868 -1.23215e-15)
(16.2185 -5.54775 6.60766e-16)
(17.3171 -5.4341 2.48039e-16)
(18.3013 -5.27453 8.29471e-16)
(19.2024 -5.08837 -6.81056e-16)
(20.0421 -4.87824 -1.34374e-16)
(20.8384 -4.64556 -5.90891e-16)
(21.6022 -4.38077 2.91889e-16)
(22.3348 -4.06982 7.97927e-16)
(23.0052 -3.68764 -2.67266e-16)
(23.5455 -3.23427 -2.96686e-16)
(23.9384 -2.75346 -2.86418e-16)
(24.2146 -2.28461 -8.308e-18)
(24.4103 -1.78331 8.62732e-18)
(24.5409 -1.18359 1.67255e-19)
(24.6063 -0.51367 -4.04625e-18)
(24.5856 0.160518 8.08725e-17)
(24.4646 0.791207 5.89439e-17)
(24.2445 1.35591 1.34515e-16)
(23.9338 1.84828 4.02699e-16)
(23.5325 2.27062 1.02341e-17)
(2.47483 5.9297 -2.77089e-15)
(3.66552 3.34105 -4.61256e-15)
(5.1631 1.05283 3.02864e-15)
(6.93194 -0.831582 -1.60522e-15)
(8.82551 -2.18277 2.18877e-16)
(10.6723 -3.06002 -5.03491e-16)
(12.3932 -3.58939 2.80531e-17)
(13.964 -3.86923 1.47789e-16)
(15.3789 -3.9807 4.95834e-16)
(16.6496 -3.9761 -9.01974e-16)
(17.7931 -3.89961 9.68979e-16)
(18.8332 -3.77604 -2.26964e-16)
(19.794 -3.62311 -4.19697e-16)
(20.6985 -3.43788 -2.92127e-16)
(21.5622 -3.21792 -6.60047e-16)
(22.3972 -2.94574 -7.21047e-16)
(23.2054 -2.59987 -7.80361e-16)
(23.9642 -2.1398 3.10154e-16)
(24.6214 -1.57296 -2.07264e-17)
(25.151 -0.96322 1.30749e-16)
(25.5636 -0.334882 9.56756e-17)
(25.8534 0.276181 5.77179e-18)
(26.0127 0.823979 -8.089e-20)
(26.0438 1.29144 1.14811e-18)
(25.9763 1.68686 -4.82416e-17)
(25.8367 2.03321 -2.12983e-17)
(25.6351 2.35007 -1.9136e-16)
(25.3726 2.64589 -1.46579e-16)
(25.0398 2.92407 -2.23422e-17)
(4.99128 6.65135 1.26626e-15)
(5.76736 4.30937 1.86901e-15)
(6.85972 2.21314 1.59631e-15)
(8.21891 0.434924 -1.3805e-15)
(9.7173 -0.967578 -1.01539e-15)
(11.2361 -2.01674 2.61413e-16)
(12.7052 -2.77296 9.8392e-16)
(14.0894 -3.29378 1.39137e-15)
(15.3715 -3.62996 -2.73898e-16)
(16.5499 -3.8248 -3.23226e-17)
(17.6311 -3.91614 9.40159e-16)
(18.6288 -3.92999 1.78804e-17)
(19.5602 -3.88445 7.11784e-16)
(20.4423 -3.78467 6.35731e-16)
(21.2879 -3.63267 1.47836e-15)
(22.1058 -3.42014 1.53883e-15)
(22.8961 -3.13358 6.78215e-16)
(23.6394 -2.7525 1.32862e-16)
(24.2925 -2.292 -1.22546e-16)
(24.8311 -1.80136 3.51198e-16)
(25.2654 -1.30275 -6.7484e-17)
(25.6091 -0.80102 -3.66546e-17)
(25.8675 -0.292525 2.50094e-18)
(26.041 0.224522 1.60988e-18)
(26.1317 0.749927 1.83232e-17)
(26.1409 1.27307 4.42528e-17)
(26.0685 1.77574 6.19236e-17)
(25.9141 2.24232 2.36174e-17)
(25.6683 2.6654 -1.80005e-16)
(6.88168 9.27789 8.04908e-16)
(7.09274 7.06466 -9.90213e-16)
(7.60356 4.97055 1.15251e-17)
(8.39268 3.05473 3.41093e-16)
(9.42583 1.38253 2.36597e-15)
(10.6121 0.00523821 1.74171e-16)
(11.8675 -1.07215 6.73411e-16)
(13.1328 -1.88132 -1.83986e-15)
(14.3674 -2.46289 -1.13843e-15)
(15.5461 -2.85626 3.42195e-16)
(16.6569 -3.10056 1.97058e-16)
(17.6971 -3.22985 -9.45184e-16)
(18.6712 -3.27108 9.36025e-17)
(19.5889 -3.24385 -2.28271e-16)
(20.4618 -3.15749 5.93003e-16)
(21.2992 -3.01515 -6.24052e-16)
(22.1073 -2.81124 -9.06842e-16)
(22.8852 -2.53443 1.13371e-16)
(23.6165 -2.1671 2.21874e-16)
(24.2652 -1.71491 4.29182e-16)
(24.8073 -1.21545 -3.12559e-16)
(25.2479 -0.691786 -3.94458e-17)
(25.598 -0.154958 1.32396e-17)
(25.8625 0.384499 -3.87207e-18)
(26.0442 0.911486 -2.1049e-18)
(26.1483 1.41012 4.45015e-18)
(26.1812 1.86475 -1.07391e-17)
(26.1468 2.27233 -1.31068e-17)
(26.0467 2.63602 1.11986e-17)
(25.8712 2.9625 1.86807e-16)
(8.80713 9.25687 -1.16426e-15)
(8.88217 7.30192 3.5758e-15)
(9.20968 5.42201 -2.79748e-15)
(9.78014 3.6806 -1.10675e-17)
(10.5682 2.12966 3.53552e-17)
(11.5093 0.809017 -3.48109e-16)
(12.5409 -0.26876 -5.1051e-16)
(13.6154 -1.12122 -1.02963e-15)
(14.6953 -1.77526 1.26063e-15)
(15.7531 -2.25668 5.37303e-16)
(16.7728 -2.59519 -1.12755e-16)
(17.7465 -2.81709 2.85582e-16)
(18.6723 -2.94453 -5.21728e-16)
(19.5544 -2.99412 3.5196e-16)
(20.3996 -2.97557 -3.40074e-16)
(21.2142 -2.89223 3.82739e-16)
(22.0018 -2.74081 3.51267e-16)
(22.7605 -2.51312 -6.18511e-17)
(23.4755 -2.1983 -5.21966e-16)
(24.1162 -1.80243 -1.29188e-16)
(24.6595 -1.35743 -4.4627e-17)
(25.1059 -0.88857 1.07059e-16)
(25.4642 -0.408604 1.15065e-18)
(25.7384 0.0731081 -2.97487e-18)
(25.9305 0.546439 1.78543e-17)
(26.0442 1.00325 7.39904e-18)
(26.0849 1.4437 1.55993e-18)
(26.0565 1.86777 1.86494e-17)
(25.9625 2.27189 9.24562e-18)
(25.7971 2.65293 3.18448e-17)
(10.6731 10.8685 -5.59404e-16)
(10.4364 9.16183 1.11072e-15)
(10.4168 7.41804 -9.87635e-16)
(10.6152 5.72299 -8.62031e-16)
(11.0261 4.13971 -9.51328e-16)
(11.628 2.70688 -9.51885e-16)
(12.3754 1.45686 1.46285e-15)
(13.2213 0.406452 -7.10308e-16)
(14.1294 -0.452898 7.91628e-16)
(15.0679 -1.13776 1.51705e-16)
(16.0109 -1.66395 -2.38342e-16)
(16.9413 -2.05279 -6.64595e-16)
(17.8481 -2.32423 -5.25331e-16)
(18.7252 -2.49649 2.88811e-16)
(19.5718 -2.58422 -1.28416e-16)
(20.3904 -2.59725 -3.91349e-16)
(21.1837 -2.54007 -3.45693e-16)
(21.9529 -2.41175 -2.45553e-16)
(22.6946 -2.20657 3.07132e-16)
(23.3952 -1.91698 -1.0152e-16)
(24.0282 -1.5474 -2.90592e-16)
(24.5716 -1.12318 3.23045e-16)
(25.0224 -0.667741 2.17304e-17)
(25.3868 -0.193472 2.10374e-18)
(25.668 0.290649 4.08128e-18)
(25.8676 0.774087 -2.4378e-17)
(25.9889 1.24756 -2.93056e-18)
(26.0369 1.7012 6.86624e-18)
(26.0152 2.12512 -9.2156e-18)
(25.9269 2.51332 -1.82458e-17)
(25.7662 2.86423 8.62465e-17)
(12.0986 10.5482 -2.6738e-16)
(11.8323 9.02421 1.18382e-16)
(11.7483 7.45512 1.17296e-15)
(11.854 5.91915 8.64707e-16)
(12.1462 4.47702 3.69701e-16)
(12.6067 3.15636 -9.49274e-16)
(13.2017 1.98384 -4.57701e-16)
(13.8955 0.976594 7.44109e-16)
(14.6605 0.12981 8.03233e-17)
(15.4709 -0.566983 -3.08894e-17)
(16.3041 -1.12319 -5.40049e-16)
(17.144 -1.55385 4.41896e-16)
(17.9786 -1.87337 9.87645e-16)
(18.7993 -2.09541 -5.55239e-16)
(19.6022 -2.23153 -6.30974e-17)
(20.3863 -2.29019 -5.69595e-16)
(21.1514 -2.2754 -2.87834e-16)
(21.8964 -2.18703 3.01757e-16)
(22.6168 -2.02111 -7.19526e-16)
(23.2999 -1.77286 2.48441e-16)
(23.9223 -1.44654 3.31097e-16)
(24.4629 -1.06304 -1.11853e-16)
(24.9163 -0.644341 -9.4959e-17)
(25.2861 -0.203868 -1.84299e-17)
(25.5747 0.248222 -1.31294e-18)
(25.7832 0.700712 1.69185e-18)
(25.9143 1.14283 -3.68495e-17)
(25.9723 1.56665 6.27078e-17)
(25.9607 1.96866 -7.29739e-18)
(25.8819 2.34531 5.90629e-17)
(25.7296 2.69511 7.41037e-17)
(13.3277 10.2342 -3.28564e-18)
(13.0424 8.86128 -1.87517e-16)
(12.914 7.43907 -1.96831e-15)
(12.9522 6.041 7.95112e-16)
(13.1548 4.72355 -1.14593e-16)
(13.5068 3.5061 1.03099e-15)
(13.9816 2.41138 -5.70405e-16)
(14.5511 1.45549 5.32442e-16)
(15.1946 0.634989 -7.73914e-16)
(15.8916 -0.057081 -5.93359e-16)
(16.6233 -0.625749 3.08018e-16)
(17.3761 -1.08133 3.33195e-16)
(18.1383 -1.43329 3.34355e-16)
(18.9003 -1.69101 1.96479e-16)
(19.6563 -1.86295 -2.30569e-16)
(20.4028 -1.95589 9.21533e-16)
(21.1372 -1.97319 -2.68911e-16)
(21.8565 -1.91521 4.31498e-16)
(22.5549 -1.77918 4.48693e-16)
(23.2201 -1.56232 -1.56363e-18)
(23.831 -1.26854 -8.69915e-17)
(24.3675 -0.914614 -6.87427e-17)
(24.8221 -0.520583 1.493e-17)
(25.196 -0.100046 1.94253e-17)
(25.4906 0.336683 6.30654e-18)
(25.7064 0.77863 1.10738e-17)
(25.8455 1.21532 2.51787e-17)
(25.9114 1.63857 -1.22001e-16)
(25.9072 2.04031 -6.50111e-17)
(25.835 2.41437 1.26303e-17)
(25.6891 2.75734 -1.4804e-16)
(14.8101 11.0993 -4.70223e-16)
(14.3989 9.93011 -2.86078e-16)
(14.1022 8.68425 -6.77246e-16)
(13.943 7.38728 -1.68797e-16)
(13.9317 6.1092 8.6521e-16)
(14.0661 4.90169 6.55763e-16)
(14.334 3.77865 -1.8882e-16)
(14.7135 2.75928 1.58129e-15)
(15.1818 1.85833 -3.96178e-17)
(15.7229 1.07249 1.15631e-15)
(16.3209 0.396504 4.679e-16)
(16.9607 -0.172472 -4.22066e-16)
(17.6312 -0.641332 3.82543e-17)
(18.3219 -1.01603 -8.77363e-16)
(19.0236 -1.3025 5.79469e-17)
(19.7297 -1.5063 5.09654e-16)
(20.435 -1.63214 2.17655e-17)
(21.1352 -1.68242 3.47298e-16)
(21.8255 -1.65731 -4.37484e-16)
(22.4995 -1.55472 -2.81177e-16)
(23.1448 -1.3731 -5.00886e-16)
(23.7422 -1.11598 -3.10521e-16)
(24.2724 -0.797177 -1.98404e-17)
(24.7264 -0.434715 -8.63488e-17)
(25.1031 -0.0422798 -1.62492e-18)
(25.4031 0.369441 -6.23201e-18)
(25.6261 0.789296 -1.51465e-18)
(25.7736 1.20641 3.08165e-17)
(25.8484 1.61155 -1.70003e-17)
(25.8531 1.99833 1.28504e-16)
(25.7896 2.36097 -2.94412e-16)
(25.6519 2.69585 3.46056e-17)
(15.3412 9.63766 -7.74729e-16)
(15.0389 8.50024 2.17564e-15)
(14.858 7.31148 1.16044e-15)
(14.81 6.13857 4.16554e-16)
(14.8923 5.02824 -1.72675e-15)
(15.0944 3.9907 -9.81566e-16)
(15.3979 3.0426 -1.77877e-15)
(15.7838 2.19718 -1.6349e-15)
(16.2391 1.45055 -3.73198e-16)
(16.7515 0.798124 2.53029e-16)
(17.309 0.238402 -2.66931e-16)
(17.9031 -0.23364 -3.41157e-16)
(18.5252 -0.621272 3.687e-16)
(19.167 -0.92782 -4.91542e-16)
(19.8218 -1.15639 5.40445e-17)
(20.4838 -1.30956 1.93246e-16)
(21.1473 -1.38834 3.91724e-16)
(21.8066 -1.39251 -1.7728e-16)
(22.4544 -1.32025 -9.9309e-17)
(23.0786 -1.17051 -8.12011e-17)
(23.661 -0.946531 2.46399e-16)
(24.1831 -0.659639 -1.21543e-17)
(24.6347 -0.325671 5.41624e-17)
(25.013 0.0420342 -7.68243e-18)
(25.3172 0.432648 -4.12039e-18)
(25.5464 0.835134 -1.30447e-17)
(25.7014 1.23851 -3.54137e-17)
(25.7843 1.63351 -1.06165e-16)
(25.7971 2.01227 1.94104e-17)
(25.7414 2.3676 2.9591e-16)
(25.6113 2.6947 3.52709e-16)
(15.8728 8.31379 -1.40389e-15)
(15.677 7.21977 -9.10624e-16)
(15.6016 6.13945 1.09722e-15)
(15.6438 5.11542 1.52888e-15)
(15.7942 4.15524 2.42387e-16)
(16.0368 3.27364 1.06209e-15)
(16.3552 2.48255 9.97902e-16)
(16.7387 1.77731 -5.98757e-16)
(17.1776 1.15326 4.01024e-16)
(17.6624 0.609494 -1.03722e-16)
(18.1868 0.142158 6.8816e-16)
(18.7442 -0.250677 -4.22116e-16)
(19.3276 -0.570258 -6.88093e-16)
(19.9308 -0.817629 -2.39123e-16)
(20.5479 -0.993656 -5.75217e-16)
(21.1728 -1.09809 -5.07571e-16)
(21.7991 -1.12996 -4.48566e-16)
(22.4189 -1.08719 8.33849e-16)
(23.0204 -0.968927 5.15168e-16)
(23.5861 -0.777999 8.29732e-17)
(24.0983 -0.523576 2.79952e-16)
(24.5457 -0.219529 4.72386e-17)
(24.9241 0.121358 1.27418e-17)
(25.2315 0.488204 -1.39999e-18)
(25.4663 0.870007 -2.47532e-18)
(25.6285 1.25575 2.38571e-17)
(25.7194 1.63563 -4.7805e-18)
(25.7407 2.00179 6.86719e-17)
(25.6933 2.3468 1.49511e-16)
(25.5715 2.66523 -6.41285e-16)
(16.4145 7.11774 7.09224e-17)
(16.3185 6.11949 6.50784e-16)
(16.3296 5.17234 -1.92425e-15)
(16.439 4.28232 -1.28741e-15)
(16.6326 3.46233 8.61503e-16)
(16.8957 2.72316 1.25848e-15)
(17.2192 2.05955 -6.51346e-16)
(17.5952 1.4667 -9.12228e-17)
(18.0162 0.943682 -5.27277e-17)
(18.4777 0.486913 -1.72329e-16)
(18.975 0.0953908 6.33508e-16)
(19.5024 -0.230846 8.70387e-16)
(20.0547 -0.491355 8.13544e-17)
(20.6265 -0.685482 6.20614e-16)
(21.2116 -0.811745 2.1443e-16)
(21.8032 -0.868318 3.34777e-16)
(22.3936 -0.852806 -5.21557e-16)
(22.9711 -0.764082 -4.30194e-17)
(23.5186 -0.604325 -2.64583e-16)
(24.019 -0.380987 -3.02175e-16)
(24.4605 -0.105981 -1.13308e-16)
(24.8376 0.208704 2.79304e-17)
(25.147 0.552319 9.23519e-18)
(25.3865 0.914078 5.96195e-18)
(25.555 1.283 1.31501e-18)
(25.6536 1.64909 -3.64024e-17)
(25.6829 2.00395 1.08522e-17)
(25.6437 2.33926 -2.49103e-16)
(25.5303 2.6486 1.6483e-17)
(16.9704 6.08421 -1.71017e-15)
(16.9574 5.20605 4.49862e-16)
(17.0342 4.37954 8.13958e-16)
(17.188 3.61626 -1.40715e-15)
(17.4056 2.92615 -9.57438e-16)
(17.6789 2.30357 8.55111e-16)
(18.0012 1.74317 1.82808e-16)
(18.3666 1.24374 -5.83598e-16)
(18.772 0.801886 5.48564e-16)
(19.214 0.416848 -2.84736e-16)
(19.6885 0.0893871 9.56032e-16)
(20.1915 -0.179138 2.49033e-16)
(20.7183 -0.386918 -3.37102e-17)
(21.2629 -0.53135 1.29523e-16)
(21.819 -0.609825 -9.88459e-17)
(22.3787 -0.619438 -6.14821e-17)
(22.9307 -0.558628 -5.86433e-16)
(23.4587 -0.428745 2.60272e-17)
(23.9455 -0.235647 2.17899e-16)
(24.3794 0.0104858 -7.73721e-18)
(24.7536 0.298622 -3.04002e-17)
(25.0638 0.618315 -1.34304e-17)
(25.307 0.958998 3.93231e-17)
(25.4814 1.30981 -1.91006e-17)
(25.5871 1.66052 1.19766e-16)
(25.6245 2.00246 -3.09545e-16)
(25.5936 2.32683 5.28545e-16)
(25.4889 2.62644 3.00286e-16)
(17.5337 5.22165 1.03543e-16)
(17.5845 4.45283 -5.78886e-16)
(17.7059 3.74182 5.52029e-17)
(17.8859 3.09781 5.42887e-16)
(18.1171 2.51467 -7.39916e-16)
(18.3937 1.98687 2.05626e-16)
(18.7107 1.51276 -5.70225e-17)
(19.0663 1.08874 -3.48704e-16)
(19.4581 0.714069 -5.37605e-16)
(19.8833 0.389855 -4.81179e-16)
(20.3392 0.11792 -2.29311e-16)
(20.8218 -0.0992473 -3.42868e-16)
(21.3262 -0.258228 -1.55073e-16)
(21.846 -0.355647 -2.15675e-16)
(22.3742 -0.387951 7.95153e-17)
(22.8997 -0.352903 4.89625e-16)
(23.4066 -0.25107 7.50056e-17)
(23.8784 -0.0868998 9.63195e-17)
(24.303 0.131099 6.58828e-17)
(24.6728 0.392975 2.42218e-17)
(24.9825 0.688739 6.23122e-18)
(25.2283 1.00815 -3.05859e-17)
(25.4078 1.34055 -2.64657e-17)
(25.5202 1.67565 2.11338e-16)
(25.5652 2.00444 -5.15614e-17)
(25.5426 2.31756 -4.74199e-16)
(25.4467 2.60693 3.62877e-16)
(18.094 4.50689 -8.58318e-17)
(18.189 3.8439 9.52047e-16)
(18.3378 3.24283 -2.58575e-16)
(18.5337 2.69733 2.24528e-16)
(18.7714 2.20159 -1.37566e-16)
(19.0465 1.75362 8.14656e-16)
(19.358 1.34948 1.80198e-16)
(19.7045 0.98815 -2.6828e-17)
(20.0843 0.670687 5.90762e-16)
(20.4957 0.399105 -3.72953e-16)
(20.9358 0.176331 2.95878e-18)
(21.4003 0.00630017 6.29104e-16)
(21.8839 -0.106983 6.38589e-17)
(22.3798 -0.159398 -2.36451e-16)
(22.8779 -0.148012 -2.15166e-16)
(23.3626 -0.0724236 1.48435e-16)
(23.8179 0.0641832 2.88934e-18)
(24.2316 0.254842 -2.52597e-17)
(24.5955 0.490731 1.94795e-17)
(24.9034 0.762465 3.5537e-18)
(25.1508 1.06021 -9.76716e-18)
(25.3346 1.3736 9.27369e-17)
(25.4531 1.69233 -1.27203e-16)
(25.5055 2.00713 1.25296e-16)
(25.491 2.30825 -5.14621e-16)
(25.4042 2.58682 -4.1751e-17)
(18.5666 4.54543 4.05082e-16)
(18.6398 3.9267 6.93939e-16)
(18.7628 3.36558 3.20334e-18)
(18.929 2.85563 6.78173e-16)
(19.1334 2.39096 4.22497e-17)
(19.3723 1.9691 -1.04704e-15)
(19.645 1.58588 -1.96573e-16)
(19.9509 1.23988 -1.4479e-16)
(20.2892 0.93189 4.03998e-17)
(20.659 0.66385 1.36544e-16)
(21.0584 0.438827 -4.95063e-16)
(21.4842 0.261062 -2.58877e-16)
(21.9319 0.134979 3.59867e-16)
(22.3954 0.0651583 3.94903e-16)
(22.8654 0.0551631 -2.36974e-16)
(23.3269 0.106403 -1.12143e-17)
(23.7643 0.217009 -3.03963e-16)
(24.1657 0.381365 5.68905e-17)
(24.5222 0.591802 1.50834e-17)
(24.827 0.83966 -4.34486e-19)
(25.0749 1.1156 2.37372e-17)
(25.262 1.40961 -5.49011e-18)
(25.386 1.71149 1.22578e-16)
(25.4455 2.01178 3.59355e-16)
(25.439 2.30036 1.08207e-15)
(25.3614 2.56761 3.86176e-17)
(19.0608 3.99334 7.1693e-16)
(19.1623 3.46928 -3.26897e-16)
(19.3033 2.99284 -7.16471e-16)
(19.4793 2.55788 -3.69269e-16)
(19.6869 2.16175 -2.01551e-16)
(19.9256 1.79988 -1.95219e-16)
(20.1954 1.4705 3.27984e-16)
(20.4959 1.17404 -6.69918e-16)
(20.8272 0.912149 1.63557e-16)
(21.1883 0.687796 -4.1777e-16)
(21.5769 0.505228 -3.0063e-16)
(21.9893 0.369139 -1.67085e-16)
(22.4205 0.284494 4.21835e-17)
(22.862 0.255574 2.79014e-16)
(23.2996 0.28466 3.93114e-17)
(23.7181 0.370945 1.47824e-16)
(24.1056 0.510152 5.36778e-17)
(24.4533 0.695791 -7.4987e-17)
(24.7538 0.920013 -7.0633e-18)
(25.001 1.17406 -1.91042e-17)
(25.1906 1.44836 -6.35158e-17)
(25.3194 1.73289 2.67389e-17)
(25.3854 2.01807 -4.44198e-16)
(25.3868 2.29353 -4.97033e-16)
(25.3185 2.54894 -2.31842e-16)
(19.4544 4.0466 5.41633e-16)
(19.5378 3.55701 -4.30752e-16)
(19.6575 3.11186 1.35388e-16)
(19.8092 2.70513 3.5839e-16)
(19.9897 2.33391 1.07494e-15)
(20.1986 1.99337 -8.54368e-17)
(20.4362 1.68132 1.42733e-16)
(20.7027 1.39779 3.91001e-16)
(20.9987 1.14404 2.23849e-16)
(21.324 0.92275 7.69912e-16)
(21.677 0.738096 5.1078e-16)
(22.0553 0.594771 -3.90951e-17)
(22.4547 0.497942 -4.40521e-16)
(22.8676 0.452393 3.57869e-17)
(23.2807 0.46134 -1.69695e-16)
(23.6792 0.525085 5.33351e-17)
(24.0518 0.640501 2.66243e-17)
(24.3893 0.802207 -2.94685e-17)
(24.6841 1.00323 1.74228e-18)
(24.9295 1.23548 1.219e-17)
(25.1205 1.48987 -5.12079e-17)
(25.2534 1.75667 9.70989e-18)
(25.3255 2.02622 5.77247e-17)
(25.3346 2.28804 -9.87521e-17)
(25.2756 2.53115 -6.76908e-16)
(19.8906 3.63097 1.22433e-15)
(19.9923 3.21505 -9.24096e-17)
(20.1232 2.83498 -1.29495e-16)
(20.2802 2.48765 -8.7055e-16)
(20.4631 2.16804 5.26385e-16)
(20.6722 1.87357 -4.72759e-16)
(20.9081 1.60388 3.35266e-17)
(21.1719 1.3598 -2.70659e-16)
(21.4639 1.14358 -2.68431e-16)
(21.7835 0.9591 -1.2162e-16)
(22.129 0.810988 -1.40392e-16)
(22.4973 0.704491 1.45692e-16)
(22.8817 0.644741 7.91043e-17)
(23.2699 0.635745 -4.43245e-17)
(23.6478 0.678814 -1.53408e-17)
(24.0043 0.771888 -5.37182e-17)
(24.3305 0.91065 2.26501e-17)
(24.6183 1.08905 7.08985e-18)
(24.8608 1.2997 2.18623e-17)
(25.0523 1.53408 7.92384e-17)
(25.1885 1.78283 -3.23246e-16)
(25.2661 2.0363 -3.56195e-18)
(25.2826 2.28399 2.97533e-16)
(25.2329 2.51436 2.57655e-16)
(20.2223 3.69323 2.1564e-17)
(20.3086 3.30463 -5.65227e-16)
(20.4215 2.9496 1.37237e-16)
(20.5582 2.62498 2.72562e-17)
(20.7183 2.32563 2.40472e-17)
(20.9023 2.04866 2.22776e-16)
(21.1109 1.7933 -5.1833e-16)
(21.3454 1.5599 9.11907e-17)
(21.6068 1.35032 -2.67152e-16)
(21.8951 1.16799 -1.33763e-17)
(22.2094 1.01728 3.05226e-16)
(22.5475 0.90336 -1.24852e-16)
(22.9039 0.8317 -4.17049e-17)
(23.2672 0.806966 2.8438e-16)
(23.6239 0.83129 5.13434e-17)
(23.9635 0.903586 -2.60527e-17)
(24.2773 1.02054 3.36445e-17)
(24.5569 1.17703 -6.07884e-18)
(24.7953 1.36643 -2.38565e-17)
(24.9862 1.58085 8.68156e-17)
(25.1249 1.81134 -1.02189e-16)
(25.2075 2.04838 1.10949e-16)
(25.2311 2.28149 -3.30208e-16)
(25.1906 2.49873 7.4082e-16)
(20.5341 3.7454 -8.65758e-17)
(20.6072 3.38222 5.21733e-16)
(20.7047 3.05065 -4.19973e-16)
(20.8237 2.74753 2.88746e-16)
(20.9639 2.46763 -3.71041e-16)
(21.1257 2.20781 2.87371e-17)
(21.3099 1.96696 -7.17397e-17)
(21.518 1.74494 2.55531e-16)
(21.7514 1.54311 2.26192e-16)
(22.0106 1.36453 -2.4226e-16)
(22.2955 1.21321 -5.32293e-17)
(22.6047 1.0941 3.34643e-16)
(22.9337 1.01274 -8.39938e-17)
(23.2721 0.974345 -7.73307e-17)
(23.6073 0.981838 -1.64425e-16)
(23.9294 1.03498 4.73902e-17)
(24.2297 1.13139 -1.22263e-17)
(24.5002 1.26683 1.74978e-18)
(24.7333 1.43547 -3.3167e-17)
(24.9227 1.63007 -4.95642e-17)
(25.063 1.8422 3.64616e-16)
(25.15 2.06252 -1.02341e-16)
(25.1803 2.28069 -3.4289e-17)
(25.1489 2.48448 -6.41185e-16)
(20.889 3.44938 -5.25039e-16)
(20.9732 3.13975 -1.7867e-16)
(21.0769 2.85689 5.32542e-17)
(21.1997 2.59552 5.2241e-16)
(21.3419 2.35232 1.79614e-16)
(21.5044 2.12586 2.06532e-16)
(21.6887 1.91557 -5.28227e-16)
(21.8966 1.72238 6.96629e-17)
(22.129 1.54882 2.69444e-16)
(22.3862 1.39852 -2.00142e-16)
(22.6679 1.27609 5.6642e-17)
(22.9705 1.18706 -1.05699e-17)
(23.2844 1.13705 7.1016e-17)
(23.598 1.12964 -1.34147e-16)
(23.902 1.16535 -2.14689e-17)
(24.1881 1.24258 6.24883e-17)
(24.4484 1.35796 1.93456e-18)
(24.6754 1.50647 4.07269e-17)
(24.8622 1.68154 -1.10658e-16)
(25.0033 1.87531 -5.16697e-17)
(25.094 2.07874 -2.39416e-16)
(25.1305 2.28166 1.01813e-16)
(25.108 2.47174 2.24917e-16)
(21.155 3.50741 4.46678e-16)
(21.2277 3.2183 5.60614e-16)
(21.318 2.95442 -1.04302e-16)
(21.4255 2.71059 2.83753e-16)
(21.5504 2.48333 -1.75831e-16)
(21.6936 2.27093 -1.18506e-17)
(21.8567 2.07246 1.01819e-16)
(22.0415 1.88846 6.20311e-17)
(22.2492 1.72093 -3.67581e-17)
(22.4808 1.57303 -1.02176e-16)
(22.7365 1.449 -9.97263e-17)
(23.0136 1.35421 -1.05613e-16)
(23.3036 1.29458 -1.31526e-16)
(23.5958 1.27418 -9.2676e-17)
(23.8813 1.29412 -3.36897e-17)
(24.1527 1.35359 -1.4506e-17)
(24.4019 1.45001 -2.55568e-18)
(24.6217 1.57912 -3.32392e-17)
(24.8051 1.73508 -4.80622e-17)
(24.9461 1.91062 9.34886e-17)
(25.0398 2.09709 4.32078e-16)
(25.082 2.28454 -8.25369e-17)
(25.0682 2.46071 -2.24839e-16)
(21.4686 3.28739 -1.033e-16)
(21.5473 3.04129 -5.35508e-16)
(21.6413 2.81399 1.04017e-16)
(21.751 2.60192 -2.10513e-16)
(21.8771 2.40314 -7.70362e-17)
(22.0212 2.21644 -2.89697e-16)
(22.1851 2.04194 -7.61606e-18)
(22.3703 1.88117 1.20181e-16)
(22.5782 1.73679 6.86482e-17)
(22.8095 1.61259 -7.4985e-18)
(23.0623 1.51374 -9.66502e-17)
(23.3292 1.44626 7.67441e-17)
(23.6002 1.41468 3.17779e-16)
(23.8673 1.42058 -2.6517e-17)
(24.1233 1.46378 2.59547e-17)
(24.3609 1.54242 -1.29722e-18)
(24.5726 1.65301 1.87425e-17)
(24.7516 1.79041 1.53582e-16)
(24.8917 1.94797 -4.2768e-16)
(24.9877 2.11751 2.17148e-17)
(25.0351 2.2894 6.4716e-17)
(25.0296 2.45153 7.76162e-17)
(21.6966 3.34814 -9.90522e-18)
(21.7651 3.11864 6.61623e-16)
(21.8474 2.90683 -6.40038e-17)
(21.9436 2.70911 1.10188e-16)
(22.0546 2.52342 -3.38706e-17)
(22.1817 2.34826 2.36396e-17)
(22.3268 2.18335 5.72463e-16)
(22.4916 2.02983 -5.12759e-16)
(22.6777 1.88986 1.68888e-16)
(22.8862 1.76677 2.92529e-16)
(23.1161 1.66538 -2.61039e-17)
(23.3607 1.59176 1.88701e-16)
(23.611 1.5507 -1.57082e-16)
(23.8596 1.54424 -8.33116e-17)
(24.1002 1.57265 -7.38363e-17)
(24.3254 1.63476 -6.69176e-18)
(24.5284 1.72779 -3.21763e-17)
(24.7022 1.84729 -6.80384e-17)
(24.8406 1.98724 3.39549e-16)
(24.9381 2.13999 5.74022e-17)
(24.9902 2.2963 -1.88371e-16)
(24.9926 2.44438 -2.10409e-16)
(21.9123 3.40137 -5.70647e-17)
(21.9718 3.18735 -4.30441e-16)
(22.0438 2.99004 4.18084e-16)
(22.1283 2.80585 -3.4888e-16)
(22.2258 2.63263 4.54476e-16)
(22.3378 2.46864 -1.45853e-16)
(22.4661 2.3133 -3.48206e-16)
(22.6124 2.16731 1.41814e-16)
(22.7784 2.03241 -3.11083e-16)
(22.9659 1.91144 -2.13013e-16)
(23.1741 1.80883 -8.91698e-18)
(23.3974 1.7306 4.56892e-17)
(23.6276 1.68169 -3.62022e-17)
(23.8582 1.66446 -2.29869e-17)
(24.0831 1.6796 2.2477e-17)
(24.2957 1.72651 1.36882e-17)
(24.4892 1.80302 3.78355e-17)
(24.6571 1.90539 4.38862e-17)
(24.7929 2.02823 2.85454e-16)
(24.8913 2.16445 3.49542e-16)
(24.9475 2.30529 2.98248e-16)
(24.9573 2.43936 3.77313e-16)
(22.168 3.2483 2.11107e-16)
(22.2309 3.06453 -5.00764e-16)
(22.3049 2.89308 8.03884e-17)
(22.3905 2.73164 2.77277e-16)
(22.4891 2.57838 -3.14497e-16)
(22.6023 2.43242 1.0294e-16)
(22.7319 2.29413 -9.22672e-18)
(22.8797 2.16476 1.06502e-17)
(23.0477 2.0467 -9.16984e-17)
(23.2357 1.94401 2.53296e-16)
(23.4389 1.86252 -4.80835e-17)
(23.6498 1.80728 2.71233e-18)
(23.8627 1.78081 1.06053e-17)
(24.0719 1.78417 1.36376e-17)
(24.2716 1.81719 -3.01514e-18)
(24.4553 1.87831 1.1456e-17)
(24.6165 1.96442 -6.29857e-17)
(24.7492 2.07076 -4.14762e-16)
(24.8476 2.19083 -7.03303e-16)
(24.9073 2.31641 -2.10446e-16)
(24.924 2.43662 -5.7016e-16)
(22.354 3.30225 -6.19405e-17)
(22.4089 3.1311 2.39502e-16)
(22.4737 2.97152 -3.32893e-17)
(22.5488 2.8212 -4.57818e-16)
(22.6354 2.67816 -1.71555e-17)
(22.7351 2.54131 1.0723e-16)
(22.8497 2.41069 -2.6828e-16)
(22.981 2.28719 4.09201e-16)
(23.1311 2.17272 7.9064e-17)
(23.3004 2.07089 -2.03646e-16)
(23.4846 1.98736 -3.22924e-17)
(23.6771 1.92712 -3.94102e-17)
(23.8727 1.89286 5.83122e-18)
(24.0666 1.88587 6.00565e-17)
(24.2533 1.90635 -1.11278e-18)
(24.4267 1.95324 -7.34092e-18)
(24.5808 2.02402 5.13932e-17)
(24.7095 2.11458 -7.76935e-17)
(24.8074 2.219 7.28563e-16)
(24.8699 2.32962 -1.56354e-16)
(24.893 2.43622 6.20574e-16)
(22.5303 3.34985 -2.23979e-16)
(22.5781 3.19044 -4.17419e-16)
(22.6347 3.04193 4.58013e-16)
(22.7005 2.90204 3.09606e-16)
(22.7766 2.7687 -4.03864e-17)
(22.8643 2.64063 3.95102e-17)
(22.9653 2.51758 1.73455e-16)
(23.0817 2.40013 9.47798e-17)
(23.2156 2.28969 2.12054e-16)
(23.3674 2.18951 -7.13097e-17)
(23.5338 2.10494 6.11538e-17)
(23.7089 2.04095 1.75465e-16)
(23.888 2.00024 1.02702e-16)
(24.0668 1.98427 -3.37662e-17)
(24.2405 1.99353 9.38378e-18)
(24.4034 2.0274 7.59099e-17)
(24.5499 2.08389 -8.81952e-17)
(24.6742 2.15945 1.41697e-16)
(24.7709 2.24884 -9.49478e-16)
(24.8356 2.34494 1.59969e-16)
(24.8644 2.43823 -6.67385e-16)
(22.7389 3.2432 1.3968e-16)
(22.7884 3.10501 2.83246e-16)
(22.8459 2.97489 -1.96287e-16)
(22.9125 2.85067 4.5288e-16)
(22.9895 2.73098 -3.49476e-16)
(23.0785 2.61532 7.63259e-17)
(23.1814 2.50395 -3.50801e-16)
(23.3004 2.39791 -6.11412e-17)
(23.4363 2.3 -6.45737e-17)
(23.5862 2.21528 -2.54091e-16)
(23.7448 2.14861 -1.70195e-16)
(23.9081 2.10268 -1.18972e-16)
(24.0724 2.07902 -2.97118e-17)
(24.2332 2.07835 1.36548e-17)
(24.3855 2.10041 -1.30238e-16)
(24.524 2.14367 1.45612e-16)
(24.6434 2.20513 -1.08889e-16)
(24.7383 2.28016 7.29447e-16)
(24.8045 2.36227 1.06701e-16)
(24.8384 2.4427 7.2921e-16)
(22.8917 3.28994 1.26576e-16)
(22.9347 3.16137 -1.53194e-16)
(22.985 3.04032 -3.95992e-16)
(23.0432 2.92469 -3.58348e-16)
(23.1107 2.81295 4.59364e-16)
(23.189 2.70444 -8.46792e-17)
(23.2797 2.59912 3.84635e-16)
(23.3853 2.49767 9.88202e-17)
(23.5065 2.40251 -1.46969e-17)
(23.641 2.31838 1.02613e-18)
(23.7842 2.24998 9.13916e-17)
(23.9326 2.19994 1.23861e-16)
(24.0828 2.16981 2.02979e-17)
(24.2311 2.16046 -1.58434e-17)
(24.3729 2.1719 7.53743e-17)
(24.5033 2.20303 -7.0903e-17)
(24.6172 2.25136 1.1869e-17)
(24.7098 2.31281 -1.41369e-16)
(24.777 2.38156 -6.41522e-16)
(24.8152 2.44962 8.40957e-17)
(23.0741 3.21156 -2.3087e-16)
(23.1179 3.09897 -1.55701e-17)
(23.1688 2.99137 4.79736e-16)
(23.2278 2.88714 -7.75044e-17)
(23.2964 2.78546 -7.34082e-17)
(23.3763 2.68608 -6.80272e-17)
(23.4697 2.58934 -2.2599e-17)
(23.5776 2.49729 9.65465e-17)
(23.698 2.41437 5.5963e-17)
(23.8268 2.34505 5.53597e-17)
(23.9611 2.29189 -4.46563e-17)
(24.098 2.25639 4.87059e-17)
(24.2341 2.23953 1.86402e-19)
(24.3654 2.24155 -2.57936e-17)
(24.4875 2.26166 6.68413e-17)
(24.5958 2.29785 -8.3403e-17)
(24.6856 2.3466 9.47112e-18)
(24.7531 2.40269 3.92201e-16)
(24.7951 2.45895 -4.10719e-16)
(23.2068 3.25611 3.53488e-16)
(23.2449 3.15138 1.28063e-16)
(23.2892 3.05124 -1.17144e-16)
(23.3407 2.95407 -1.5757e-16)
(23.4007 2.85891 -2.21421e-16)
(23.4709 2.76531 1.98591e-16)
(23.5533 2.67332 -1.35503e-16)
(23.6491 2.58464 1.98217e-16)
(23.7565 2.50339 -9.37821e-17)
(23.8721 2.43384 -1.7802e-17)
(23.9932 2.37842 1.85741e-17)
(24.1174 2.33858 -4.26732e-17)
(24.2419 2.31533 -1.24289e-17)
(24.363 2.30906 -4.15547e-17)
(24.4768 2.31928 4.56805e-17)
(24.5792 2.34435 2.48726e-16)
(24.6658 2.38131 3.09122e-17)
(24.733 2.42553 1.60019e-16)
(24.778 2.47065 -6.5652e-17)
(23.3331 3.29549 1.04902e-16)
(23.3661 3.19805 -1.30896e-16)
(23.4046 3.10485 -1.91438e-17)
(23.4494 3.01429 -1.89372e-16)
(23.5019 2.92531 -1.95267e-16)
(23.5634 2.83726 -1.96848e-16)
(23.6359 2.74997 2.64489e-16)
(23.7207 2.66483 -3.91466e-18)
(23.8163 2.58563 5.91729e-17)
(23.9197 2.51644 3.41472e-17)
(24.0285 2.45952 -8.53605e-17)
(24.1408 2.41625 4.72747e-17)
(24.2542 2.38764 -2.14381e-18)
(24.3654 2.37417 5.0829e-17)
(24.471 2.37559 -1.14463e-16)
(24.5673 2.39061 8.09581e-17)
(24.6504 2.41672 -6.78481e-16)
(24.7169 2.44993 3.2816e-16)
(24.7641 2.48461 4.70789e-16)
(23.4818 3.23944 3.50634e-16)
(23.5151 3.1527 -8.01604e-17)
(23.5541 3.06832 -1.23244e-16)
(23.5998 2.98514 -1.00053e-17)
(23.6536 2.90241 1.55291e-16)
(23.7172 2.81974 -1.00524e-16)
(23.7921 2.73821 -5.53451e-17)
(23.8769 2.66135 -1.88752e-17)
(23.9691 2.59298 -7.34609e-17)
(24.0666 2.53523 5.71682e-17)
(24.1678 2.48934 3.28297e-17)
(24.2706 2.45631 4.86775e-19)
(24.3724 2.43668 4.52049e-17)
(24.47 2.43036 1.48019e-17)
(24.5601 2.43637 -3.77848e-16)
(24.6394 2.45264 3.28115e-16)
(24.7047 2.47571 -4.44331e-16)
(24.7536 2.5007 -5.5241e-16)
(23.5921 3.27599 1.40844e-17)
(23.621 3.19524 3.29798e-16)
(23.6547 3.1166 -2.31537e-16)
(23.6944 3.03886 5.7545e-18)
(23.7413 2.96119 6.50906e-17)
(23.7971 2.88301 1.3418e-16)
(23.863 2.80514 5.66145e-17)
(23.9381 2.73081 -2.03668e-16)
(24.02 2.66365 9.26908e-17)
(24.1071 2.60561 -1.13268e-17)
(24.198 2.55784 2.69046e-17)
(24.2909 2.52124 1.03178e-17)
(24.3837 2.49642 -4.06974e-17)
(24.4735 2.48339 -6.85921e-17)
(24.5575 2.48143 3.77428e-16)
(24.6327 2.48883 1.65644e-16)
(24.6964 2.50269 2.08047e-16)
(24.7464 2.51879 3.29447e-16)
(23.6975 3.30811 -4.11668e-16)
(23.7223 3.2329 1.19369e-16)
(23.7514 3.15958 -1.0375e-16)
(23.7858 3.08695 3.30914e-16)
(23.8265 3.01408 -4.73242e-17)
(23.8753 2.94022 -1.24369e-16)
(23.9332 2.86598 7.81274e-17)
(23.9995 2.79432 7.68264e-17)
(24.0721 2.72867 1.50746e-16)
(24.1497 2.67081 -8.71393e-17)
(24.2311 2.62177 -2.32376e-17)
(24.3148 2.5824 -7.186e-18)
(24.399 2.55326 -2.11762e-17)
(24.4813 2.53449 5.34299e-17)
(24.5593 2.52556 -2.75033e-16)
(24.6304 2.5251 1.03319e-17)
(24.6921 2.53067 -1.83315e-17)
(24.7425 2.53868 1.78153e-16)
(23.8191 3.26608 -8.0395e-17)
(23.8443 3.19771 1.54183e-16)
(23.8739 3.12985 -1.63121e-16)
(23.9093 3.06149 -5.69939e-17)
(23.9518 2.99177 1.1044e-16)
(24.0025 2.92109 -2.12193e-16)
(24.0609 2.85219 4.77347e-18)
(24.1251 2.78827 -2.97539e-18)
(24.194 2.73099 -7.19244e-18)
(24.2666 2.68122 2.77796e-17)
(24.3418 2.63975 -1.02698e-17)
(24.418 2.60712 -3.98821e-17)
(24.4932 2.58353 1.68468e-16)
(24.5654 2.56859 2.43384e-16)
(24.6322 2.56123 2.2756e-16)
(24.6916 2.55944 4.51053e-19)
(24.7419 2.56019 -2.64551e-17)
(23.9119 3.29517 1.08306e-16)
(23.9334 3.23139 -4.68203e-17)
(23.9589 3.16796 -1.24915e-16)
(23.9895 3.10383 7.11222e-17)
(24.0264 3.03806 -9.63634e-17)
(24.0708 2.97086 -8.69799e-17)
(24.122 2.90474 8.78498e-17)
(24.1787 2.84273 -6.35072e-17)
(24.2397 2.78633 -1.96129e-18)
(24.3043 2.73631 8.10744e-18)
(24.3717 2.69336 9.70063e-18)
(24.4404 2.65797 2.23032e-17)
(24.5089 2.63039 -3.13541e-16)
(24.5754 2.61036 -1.3926e-16)
(24.6379 2.59703 1.85809e-16)
(24.6948 2.58879 -2.85337e-16)
(24.0006 3.32052 2.31861e-17)
(24.019 3.26097 -7.33827e-17)