/*--------------------------------*- C++ -*----------------------------------*\
| =========                 |                                                 |
| \\      /  F ield         | OpenFOAM: The Open Source CFD Toolbox           |
|  \\    /   O peration     | Version:  2506                                  |
|   \\  /    A nd           | Website:  www.openfoam.com                      |
|    \\/     M anipulation  |                                                 |
\*---------------------------------------------------------------------------*/
FoamFile
{
    version     2.0;
    format      ascii;
    arch        "LSB;label=32;scalar=64";
    class       pointScalarField;
    location    "109.96836736776783";
    object      streamFunction;
}
// * * * * * * * * * * * * * * * * * * * * * * * * * * * * * * * * * * * * * //

dimensions      [0 3 -1 0 0 0 0];

internalField   nonuniform List<scalar> 
19880
(
0
0.0192915
0.00905073
-0.0372094
-0.113065
-0.205101
0
0.000661032
-0.021028
-0.071174
-0.143825
-0.227329
0
-0.0117719
-0.0380384
-0.082717
-0.139599
-0.199341
0
-0.0135327
-0.0379018
-0.0686757
-0.0999996
-0.125099
0
-0.00758742
-0.0258277
-0.0418998
-0.0464262
-0.032855
0
-0.00927765
-0.022107
-0.0135216
0.0248069
0.0865841
0
0.0192915
0.00905073
-0.0372094
-0.113065
-0.205101
0
0.000661032
-0.021028
-0.071174
-0.143825
-0.227329
0
-0.0117719
-0.0380384
-0.082717
-0.139599
-0.199341
0
-0.0135327
-0.0379018
-0.0686757
-0.0999996
-0.125099
0
-0.00758742
-0.0258277
-0.0418998
-0.0464262
-0.032855
0
-0.00927765
-0.022107
-0.0135216
0.0248069
0.0865841
1e-07
0
0
1e-08
0
0.112886
0.0732738
0.0267325
-0.0057122
-0.0164406
0.240477
0.194282
0.125793
0.050951
-0.0044304
0.361047
0.314123
0.242343
0.149474
0.0528396
0.481453
0.433468
0.359199
0.258977
0.138865
0.600644
0.551966
0.475161
0.369406
0.236013
1e-07
0
0
1e-08
0
0.112886
0.0732738
0.0267325
-0.0057122
-0.0164406
0.240477
0.194282
0.125793
0.050951
-0.0044304
0.361047
0.314123
0.242343
0.149474
0.0528396
0.481453
0.433468
0.359199
0.258977
0.138865
0.600644
0.551966
0.475161
0.369406
0.236013
-5.3e-07
2.7e-07
1.7e-07
2.6e-07
-1e-07
0.115326
0.129532
0.139994
0.144301
0.136374
0.213507
0.240726
0.260003
0.26989
0.264698
0.305931
0.346265
0.374858
0.388957
0.384994
0.393695
0.446783
0.484786
0.504893
0.504655
0.478653
0.544429
0.592141
0.619031
0.622507
-5.3e-07
2.7e-07
1.7e-07
2.6e-07
-1e-07
0.115326
0.129532
0.139994
0.144301
0.136374
0.213507
0.240726
0.260003
0.26989
0.264698
0.305931
0.346265
0.374858
0.388957
0.384994
0.393695
0.446783
0.484786
0.504893
0.504655
0.478653
0.544429
0.592141
0.619031
0.622507
-0.0163813
-0.01425
-0.0117107
-0.00865768
-0.00516823
-3e-08
0.0954667
0.0781299
0.0603434
0.0416855
0.0210541
-3e-08
0.203912
0.167669
0.130275
0.090785
0.0482702
-3e-08
0.305949
0.251846
0.195991
0.137036
0.0742713
-3e-08
0.398726
0.328181
0.255336
0.178524
0.0968529
-3e-08
-0.0163813
-0.01425
-0.0117107
-0.00865768
-0.00516823
-3e-08
0.0954667
0.0781299
0.0603434
0.0416855
0.0210541
-3e-08
0.203912
0.167669
0.130275
0.090785
0.0482702
-3e-08
0.305949
0.251846
0.195991
0.137036
0.0742713
-3e-08
0.398726
0.328181
0.255336
0.178524
0.0968529
-3e-08
-0.519659
-0.429843
-0.335887
-0.235627
-0.127525
-3.55e-07
-0.436638
-0.361319
-0.282648
-0.198612
-0.107865
7e-08
-0.341516
-0.282819
-0.221418
-0.155691
-0.0844686
7e-08
-0.237875
-0.197209
-0.154484
-0.108517
-0.0579543
-3e-08
-0.128516
-0.10687
-0.0839145
-0.0589997
-0.0307303
-3e-08
-0.519659
-0.429843
-0.335887
-0.235627
-0.127525
-3.55e-07
-0.436638
-0.361319
-0.282648
-0.198612
-0.107865
7e-08
-0.341516
-0.282819
-0.221418
-0.155691
-0.0844686
7e-08
-0.237875
-0.197209
-0.154484
-0.108517
-0.0579543
-3e-08
-0.128516
-0.10687
-0.0839145
-0.0589997
-0.0307303
-3e-08
-0.590396
-0.644692
-0.680057
-0.694834
-0.687998
-0.48741
-0.531486
-0.55955
-0.569736
-0.560593
-0.380015
-0.413688
-0.434611
-0.440055
-0.428667
-0.265795
-0.288807
-0.30284
-0.305733
-0.294411
-0.143438
-0.156028
-0.162697
-0.1624
-0.150621
1.045e-06
4.45e-07
4.65e-07
4.65e-07
4.65e-07
-0.590396
-0.644692
-0.680057
-0.694834
-0.687998
-0.48741
-0.531486
-0.55955
-0.569736
-0.560593
-0.380015
-0.413688
-0.434611
-0.440055
-0.428667
-0.265795
-0.288807
-0.30284
-0.305733
-0.294411
-0.143438
-0.156028
-0.162697
-0.1624
-0.150621
1.045e-06
4.45e-07
4.65e-07
4.65e-07
4.65e-07
-0.658958
-0.607902
-0.535713
-0.445183
-0.342239
-0.530627
-0.479565
-0.406956
-0.316974
-0.217295
-0.398022
-0.346436
-0.273385
-0.186412
-0.0973516
-0.263966
-0.210991
-0.139493
-0.0680086
-0.00868111
-0.122608
-0.0785167
-0.0309526
-0.00077058
0.0178372
4.65e-07
4.65e-07
4.65e-07
4.65e-07
4.65e-07
-0.658958
-0.607902
-0.535713
-0.445183
-0.342239
-0.530627
-0.479565
-0.406956
-0.316974
-0.217295
-0.398022
-0.346436
-0.273385
-0.186412
-0.0973516
-0.263966
-0.210991
-0.139493
-0.0680086
-0.00868111
-0.122608
-0.0785167
-0.0309526
-0.00077058
0.0178372
4.65e-07
4.65e-07
4.65e-07
4.65e-07
4.65e-07
4.65e-07
0.0344559
0.0315735
-0.0266321
-0.126717
-0.244373
4.65e-07
0.0436439
0.0527171
0.0174867
-0.0631963
-0.169172
4.65e-07
0.046814
0.0619717
0.0333449
-0.0389371
-0.135062
0
0.0383025
0.0437121
0.00875125
-0.0639086
-0.157501
4.65e-07
0.0344559
0.0315735
-0.0266321
-0.126717
-0.244373
4.65e-07
0.0436439
0.0527171
0.0174867
-0.0631963
-0.169172
4.65e-07
0.046814
0.0619717
0.0333449
-0.0389371
-0.135062
0
0.0383025
0.0437121
0.00875125
-0.0639086
-0.157501
-0.391414
-0.537134
-0.570675
-0.496249
-0.341065
-0.161212
0.0149501
0.180294
0.339529
0.484839
0.57983
0.588783
0.509747
0.373477
0.223754
0.0761231
-0.0654899
-0.204467
-0.341639
-0.467517
-0.557592
-0.590836
-0.560458
-0.474792
-0.352255
-0.215304
-0.0770292
0.0601568
0.195473
0.324703
0.433523
0.502585
0.519163
0.48178
0.399139
0.285035
0.153428
0.0161676
-0.120181
-0.250306
-0.365023
-0.451531
-0.49849
-0.500778
-0.46054
-0.385465
-0.285811
-0.171863
-0.0526045
0.0670165
0.184277
0.292478
0.381392
0.440618
0.463014
0.446867
0.395888
0.317377
0.219762
0.110851
-0.00220264
-0.114713
-0.222307
-0.317007
-0.389741
-0.43272
-0.44179
-0.417204
-0.363173
-0.286393
-0.194229
-0.0937437
0.00836327
0.108068
0.198592
0.271591
0.319914
0.339033
0.327806
0.288445
0.225791
0.146068
0.0558525
-0.0375596
-0.129495
-0.213811
-0.282464
-0.329127
-0.34985
-0.343517
-0.311819
-0.258793
-0.1899
-0.111574
-0.0312545
0.0460474
0.112774
0.161261
0.188776
0.353018
-0.384943
-0.486798
-0.489397
-0.395136
-0.229723
-0.0489609
0.123191
0.281579
0.433768
0.576699
0.6783
0.699178
0.632594
0.506057
0.361006
0.214841
0.0725711
-0.0673699
-0.204444
-0.329246
-0.418412
-0.451807
-0.422738
-0.339086
-0.218276
-0.0820372
0.0554858
0.190995
0.324684
0.453605
0.564426
0.636528
0.655614
0.619403
0.536429
0.420674
0.286408
0.14607
0.00623457
-0.127805
-0.245593
-0.33407
-0.382287
-0.385459
-0.345783
-0.270962
-0.171309
-0.0573655
0.0614255
0.180004
0.295624
0.402661
0.491865
0.552626
0.577276
0.563522
0.514628
0.43762
0.340729
0.231814
0.118216
0.00479436
-0.104198
-0.19996
-0.273174
-0.316402
-0.325727
-0.301454
-0.247843
-0.171657
-0.0804515
0.0186133
0.119238
0.217092
0.306077
0.378358
0.426627
0.446059
0.435333
0.396489
0.334145
0.254355
0.163616
0.0696324
-0.023231
-0.108766
-0.178466
-0.226045
-0.247664
-0.242239
-0.211496
-0.159548
-0.0920003
-0.0152375
0.0637062
0.139354
0.204476
0.251594
0.277739
0.265756
-0.317823
-0.386197
-0.372127
-0.272711
-0.113614
0.0573479
0.218702
0.366588
0.507688
0.644079
0.751712
0.790103
0.745499
0.637702
0.50299
0.36204
0.222398
0.0845925
-0.0500655
-0.172804
-0.262957
-0.301224
-0.27963
-0.204111
-0.0903889
0.0411421
0.175226
0.306564
0.435895
0.562107
0.674288
0.751621
0.777682
0.748194
0.670344
0.557609
0.424443
0.283708
0.142657
0.006354
-0.114192
-0.205701
-0.257469
-0.26472
-0.229129
-0.157893
-0.0609818
0.0509052
0.167845
0.284206
0.396984
0.502128
0.59162
0.654888
0.683584
0.674605
0.630324
0.557185
0.463115
0.355957
0.243164
0.129865
0.0205054
-0.0759672
-0.150139
-0.194619
-0.205585
-0.183315
-0.13179
-0.0576036
0.0315809
0.128343
0.226647
0.322035
0.409203
0.480907
0.52962
0.550279
0.541148
0.503893
0.442884
0.363921
0.273587
0.179611
0.0864998
0.00017426
-0.0705912
-0.119373
-0.142363
-0.138456
-0.109289
-0.058963
0.00680897
0.081569
0.158699
0.23242
0.295997
0.342059
0.367466
0.354496
-0.205175
-0.25145
-0.230351
-0.137253
0.0033612
0.156588
0.303182
0.439023
0.567134
0.692446
0.80251
0.860875
0.844315
0.762552
0.644632
0.513211
0.379308
0.246043
0.115469
-0.0047005
-0.0970581
-0.143183
-0.133642
-0.0716283
0.0303547
0.153856
0.282196
0.407712
0.530605
0.651511
0.76317
0.846919
0.883621
0.865736
0.79827
0.693393
0.565331
0.427167
0.287013
0.1504
0.0276775
-0.0676961
-0.124867
-0.138864
-0.110689
-0.0463361
0.0452207
0.15319
0.267118
0.380361
0.489618
0.591989
0.68132
0.747716
0.781931
0.779671
0.742225
0.675092
0.585861
0.482319
0.37175
0.259633
0.150961
0.0541999
-0.0211073
-0.0675655
-0.081492
-0.0627955
-0.0149075
0.0559829
0.142149
0.235936
0.331237
0.423627
0.508565
0.579671
0.629488
0.652191
0.645566
0.610893
0.552198
0.475098
0.386166
0.292816
0.199984
0.113401
0.0417854
-0.00831373
-0.0330458
-0.0311973
-0.00420984
0.0439387
0.107499
0.179949
0.254854
0.326414
0.388381
0.433644
0.458919
0.445741
-0.0798724
-0.104681
-0.079718
-0.00074117
0.116192
0.248077
0.378544
0.502006
0.61787
0.729552
0.835695
0.911049
0.925352
0.874731
0.779917
0.662908
0.537848
0.410921
0.285404
0.16794
0.0729995
0.0174062
0.011454
0.056153
0.143375
0.256364
0.377214
0.495997
0.611555
0.725284
0.833502
0.922276
0.971972
0.970024
0.917759
0.825251
0.706197
0.573611
0.436438
0.301217
0.177246
0.0778546
0.0141317
-0.00901448
0.00865972
0.0634422
0.147574
0.250002
0.35978
0.469328
0.574755
0.673714
0.761965
0.831315
0.872115
0.878239
0.849488
0.790289
0.707774
0.609525
0.502623
0.39285
0.285769
0.189299
0.112899
0.0639206
0.0459905
0.0597452
0.102728
0.169282
0.25158
0.341752
0.433566
0.5226
0.604894
0.675103
0.726286
0.75188
0.748706
0.717576
0.662193
0.587985
0.501395
0.409403
0.317363
0.231099
0.158989
0.107629
0.080929
0.0802732
0.104569
0.150062
0.211011
0.280831
0.353211
0.422397
0.482603
0.527159
0.552817
0.540237
0.0602046
0.0497594
0.070678
0.129788
0.221666
0.331405
0.445242
0.556359
0.661824
0.761393
0.857435
0.94014
0.980013
0.96334
0.897767
0.801394
0.689699
0.571744
0.4526
0.338502
0.241477
0.176195
0.15416
0.179749
0.249749
0.34948
0.460964
0.572416
0.680752
0.786973
0.889577
0.979485
1.04017
1.05609
1.02332
0.947675
0.841634
0.717993
0.586411
0.454325
0.330571
0.227823
0.156806
0.122928
0.128308
0.171825
0.246632
0.341777
0.446201
0.551633
0.653249
0.748691
0.834978
0.906091
0.953082
0.96835
0.949934
0.900575
0.826593
0.735263
0.633469
0.527317
0.422706
0.327215
0.250054
0.198177
0.175522
0.18358
0.221028
0.282478
0.360165
0.44613
0.534096
0.619597
0.698983
0.7677
0.819784
0.848615
0.849862
0.823404
0.772429
0.702092
0.618747
0.528964
0.43841
0.353163
0.281082
0.228653
0.19985
0.196398
0.21772
0.260252
0.318229
0.385117
0.454668
0.521247
0.579522
0.623314
0.649686
0.441961
-0.391414
-0.537134
-0.570675
-0.496249
-0.341065
-0.161212
0.0149501
0.180294
0.339529
0.484839
0.57983
0.588783
0.509747
0.373477
0.223754
0.0761231
-0.0654899
-0.204467
-0.341639
-0.467517
-0.557592
-0.590836
-0.560458
-0.474792
-0.352255
-0.215304
-0.0770292
0.0601568
0.195473
0.324703
0.433523
0.502585
0.519163
0.48178
0.399139
0.285035
0.153428
0.0161676
-0.120181
-0.250306
-0.365023
-0.451531
-0.49849
-0.500778
-0.46054
-0.385465
-0.285811
-0.171863
-0.0526045
0.0670165
0.184277
0.292478
0.381392
0.440618
0.463014
0.446867
0.395888
0.317377
0.219762
0.110851
-0.00220264
-0.114713
-0.222307
-0.317007
-0.389741
-0.43272
-0.44179
-0.417204
-0.363173
-0.286393
-0.194229
-0.0937437
0.00836327
0.108068
0.198592
0.271591
0.319914
0.339033
0.327806
0.288445
0.225791
0.146068
0.0558525
-0.0375596
-0.129495
-0.213811
-0.282464
-0.329127
-0.34985
-0.343517
-0.311819
-0.258793
-0.1899
-0.111574
-0.0312545
0.0460474
0.112774
0.161261
0.188776
0.353018
-0.384943
-0.486798
-0.489397
-0.395136
-0.229723
-0.0489609
0.123191
0.281579
0.433768
0.576699
0.6783
0.699178
0.632594
0.506057
0.361006
0.214841
0.0725711
-0.0673699
-0.204444
-0.329246
-0.418412
-0.451807
-0.422738
-0.339086
-0.218276
-0.0820372
0.0554858
0.190995
0.324684
0.453605
0.564426
0.636528
0.655614
0.619403
0.536429
0.420674
0.286408
0.14607
0.00623457
-0.127805
-0.245593
-0.33407
-0.382287
-0.385459
-0.345783
-0.270962
-0.171309
-0.0573655
0.0614255
0.180004
0.295624
0.402661
0.491865
0.552626
0.577276
0.563522
0.514628
0.43762
0.340729
0.231814
0.118216
0.00479436
-0.104198
-0.19996
-0.273174
-0.316402
-0.325727
-0.301454
-0.247843
-0.171657
-0.0804515
0.0186133
0.119238
0.217092
0.306077
0.378358
0.426627
0.446059
0.435333
0.396489
0.334145
0.254355
0.163616
0.0696324
-0.023231
-0.108766
-0.178466
-0.226045
-0.247664
-0.242239
-0.211496
-0.159548
-0.0920003
-0.0152375
0.0637062
0.139354
0.204476
0.251594
0.277739
0.265756
-0.317823
-0.386197
-0.372127
-0.272711
-0.113614
0.0573479
0.218702
0.366588
0.507688
0.644079
0.751712
0.790103
0.745499
0.637702
0.50299
0.36204
0.222398
0.0845925
-0.0500655
-0.172804
-0.262957
-0.301224
-0.27963
-0.204111
-0.0903889
0.0411421
0.175226
0.306564
0.435895
0.562107
0.674288
0.751621
0.777682
0.748194
0.670344
0.557609
0.424443
0.283708
0.142657
0.006354
-0.114192
-0.205701
-0.257469
-0.26472
-0.229129
-0.157893
-0.0609818
0.0509052
0.167845
0.284206
0.396984
0.502128
0.59162
0.654888
0.683584
0.674605
0.630324
0.557185
0.463115
0.355957
0.243164
0.129865
0.0205054
-0.0759672
-0.150139
-0.194619
-0.205585
-0.183315
-0.13179
-0.0576036
0.0315809
0.128343
0.226647
0.322035
0.409203
0.480907
0.52962
0.550279
0.541148
0.503893
0.442884
0.363921
0.273587
0.179611
0.0864998
0.00017426
-0.0705912
-0.119373
-0.142363
-0.138456
-0.109289
-0.058963
0.00680897
0.081569
0.158699
0.23242
0.295997
0.342059
0.367466
0.354496
-0.205175
-0.25145
-0.230351
-0.137253
0.0033612
0.156588
0.303182
0.439023
0.567134
0.692446
0.80251
0.860875
0.844315
0.762552
0.644632
0.513211
0.379308
0.246043
0.115469
-0.0047005
-0.0970581
-0.143183
-0.133642
-0.0716283
0.0303547
0.153856
0.282196
0.407712
0.530605
0.651511
0.76317
0.846919
0.883621
0.865736
0.79827
0.693393
0.565331
0.427167
0.287013
0.1504
0.0276775
-0.0676961
-0.124867
-0.138864
-0.110689
-0.0463361
0.0452207
0.15319
0.267118
0.380361
0.489618
0.591989
0.68132
0.747716
0.781931
0.779671
0.742225
0.675092
0.585861
0.482319
0.37175
0.259633
0.150961
0.0541999
-0.0211073
-0.0675655
-0.081492
-0.0627955
-0.0149075
0.0559829
0.142149
0.235936
0.331237
0.423627
0.508565
0.579671
0.629488
0.652191
0.645566
0.610893
0.552198
0.475098
0.386166
0.292816
0.199984
0.113401
0.0417854
-0.00831373
-0.0330458
-0.0311973
-0.00420984
0.0439387
0.107499
0.179949
0.254854
0.326414
0.388381
0.433644
0.458919
0.445741
-0.0798724
-0.104681
-0.079718
-0.00074117
0.116192
0.248077
0.378544
0.502006
0.61787
0.729552
0.835695
0.911049
0.925352
0.874731
0.779917
0.662908
0.537848
0.410921
0.285404
0.16794
0.0729995
0.0174062
0.011454
0.056153
0.143375
0.256364
0.377214
0.495997
0.611555
0.725284
0.833502
0.922276
0.971972
0.970024
0.917759
0.825251
0.706197
0.573611
0.436438
0.301217
0.177246
0.0778546
0.0141317
-0.00901448
0.00865972
0.0634422
0.147574
0.250002
0.35978
0.469328
0.574755
0.673714
0.761965
0.831315
0.872115
0.878239
0.849488
0.790289
0.707774
0.609525
0.502623
0.39285
0.285769
0.189299
0.112899
0.0639206
0.0459905
0.0597452
0.102728
0.169282
0.25158
0.341752
0.433566
0.5226
0.604894
0.675103
0.726286
0.75188
0.748706
0.717576
0.662193
0.587985
0.501395
0.409403
0.317363
0.231099
0.158989
0.107629
0.080929
0.0802732
0.104569
0.150062
0.211011
0.280831
0.353211
0.422397
0.482603
0.527159
0.552817
0.540237
0.0602046
0.0497594
0.070678
0.129788
0.221666
0.331405
0.445242
0.556359
0.661824
0.761393
0.857435
0.94014
0.980013
0.96334
0.897767
0.801394
0.689699
0.571744
0.4526
0.338502
0.241477
0.176195
0.15416
0.179749
0.249749
0.34948
0.460964
0.572416
0.680752
0.786973
0.889577
0.979485
1.04017
1.05609
1.02332
0.947675
0.841634
0.717993
0.586411
0.454325
0.330571
0.227823
0.156806
0.122928
0.128308
0.171825
0.246632
0.341777
0.446201
0.551633
0.653249
0.748691
0.834978
0.906091
0.953082
0.96835
0.949934
0.900575
0.826593
0.735263
0.633469
0.527317
0.422706
0.327215
0.250054
0.198177
0.175522
0.18358
0.221028
0.282478
0.360165
0.44613
0.534096
0.619597
0.698983
0.7677
0.819784
0.848615
0.849862
0.823404
0.772429
0.702092
0.618747
0.528964
0.43841
0.353163
0.281082
0.228653
0.19985
0.196398
0.21772
0.260252
0.318229
0.385117
0.454668
0.521247
0.579522
0.623314
0.649686
0.441961
0.375163
0.361513
0.362862
0.385782
0.433887
0.503335
0.585296
0.671763
0.757721
0.84028
0.917156
0.986779
1.04512
1.07881
1.07348
1.02835
0.953569
0.86102
0.759869
0.656852
0.559172
0.476834
0.421995
0.406145
0.434323
0.499786
0.588102
0.684399
0.779706
0.871883
0.961576
1.04707
1.12102
1.17146
1.18636
1.15921
1.09391
1.00001
0.888386
0.768214
0.647406
0.535128
0.442125
0.377077
0.345593
0.351318
0.392251
0.461062
0.547795
0.642684
0.738062
0.829179
0.913813
0.989664
1.05227
1.09484
1.11083
1.09679
1.05448
0.988691
0.905788
0.812159
0.713896
0.617179
0.529402
0.458474
0.410475
0.38917
0.39696
0.431913
0.488537
0.559624
0.637986
0.717836
0.795021
0.866426
0.928392
0.975965
1.0034
1.00632
0.98355
0.937321
0.872195
0.794067
0.708991
0.622734
0.541626
0.472536
0.421286
0.391837
0.386262
0.40414
0.442013
0.494553
0.555671
0.619416
0.680468
0.734226
0.775433
0.802026
0.597142
0.659198
0.652477
0.657746
0.678386
0.715833
0.767783
0.829126
0.894742
0.960795
1.02443
1.08315
1.1341
1.17318
1.19438
1.19232
1.1633
1.10924
1.03686
0.954076
0.868278
0.787121
0.719915
0.67823
0.672025
0.70209
0.760115
0.833878
0.91244
0.990116
1.06554
1.13881
1.20837
1.26833
1.30886
1.32032
1.29801
1.24329
1.16269
1.0649
0.958306
0.850925
0.751519
0.669258
0.612188
0.586169
0.593015
0.629787
0.690242
0.766326
0.849648
0.933233
1.0126
1.08579
1.15117
1.20542
1.24298
1.25819
1.24792
1.21259
1.15562
1.08223
0.998165
0.90937
0.822011
0.742909
0.678978
0.635945
0.617742
0.625489
0.656881
0.70711
0.770088
0.839521
0.910142
0.978128
1.04084
1.0955
1.1382
1.16392
1.1683
1.14954
1.1089
1.05012
0.978417
0.899437
0.818898
0.742937
0.677663
0.628461
0.599332
0.592103
0.606115
0.638482
0.684637
0.739088
0.796226
0.851035
0.899555
0.93743
0.963656
0.432054
0.929986
0.927341
0.934088
0.951764
0.980905
1.02013
1.06648
1.11661
1.16745
1.21624
1.26041
1.2974
1.3239
1.33602
1.3312
1.30872
1.26898
1.2147
1.1508
1.08358
1.02066
0.971214
0.94448
0.945458
0.973123
1.02066
1.07862
1.14014
1.20176
1.26199
1.31998
1.37429
1.42107
1.45323
1.46276
1.44474
1.3996
1.33193
1.24853
1.15677
1.06426
0.978964
0.908839
0.860836
0.839414
0.845543
0.876822
0.928369
0.993414
1.06466
1.13597
1.20336
1.26503
1.31984
1.36556
1.39808
1.41259
1.40571
1.37699
1.3288
1.26536
1.19175
1.11356
1.03664
0.967145
0.91119
0.873824
0.858168
0.864847
0.891864
0.935181
0.989558
1.04952
1.11043
1.1689
1.22263
1.26956
1.30687
1.33055
1.33639
1.32195
1.28752
1.23592
1.17169
1.10002
1.0264
0.956575
0.896085
0.849823
0.821364
0.812303
0.822281
0.848969
0.888404
0.935662
0.985609
1.03362
1.07623
1.10989
1.13465
0.606523
1.1899
1.18914
1.19591
1.21076
1.23382
1.26415
1.29976
1.33825
1.3772
1.41435
1.44748
1.47435
1.4925
1.49934
1.49294
1.47325
1.44173
1.40062
1.3531
1.30385
1.25932
1.22704
1.21266
1.21782
1.24075
1.2767
1.32004
1.36684
1.41467
1.46178
1.5067
1.54789
1.58279
1.6068
1.61403
1.60005
1.56404
1.5089
1.43988
1.36332
1.286
1.21489
1.15657
1.1168
1.09931
1.10457
1.13055
1.17335
1.22731
1.28633
1.34538
1.4011
1.45191
1.49684
1.53434
1.56147
1.57453
1.5704
1.54797
1.50854
1.45532
1.39268
1.32569
1.25968
1.20008
1.15211
1.12012
1.1068
1.11237
1.13494
1.17116
1.21665
1.26689
1.31797
1.36697
1.41191
1.45117
1.48276
1.5037
1.51042
1.50021
1.4724
1.42874
1.37292
1.30958
1.24382
1.18092
1.12589
1.08306
1.05567
1.04524
1.05152
1.0726
1.10512
1.1448
1.18713
1.22795
1.26424
1.29307
1.31513
0.423388
1.44187
1.4421
1.44834
1.4607
1.47902
1.50254
1.52988
1.5593
1.58898
1.61709
1.64185
1.66149
1.67429
1.67863
1.67311
1.65759
1.63327
1.60239
1.56787
1.5335
1.50405
1.48417
1.47664
1.48181
1.49846
1.52419
1.55602
1.59135
1.62806
1.66431
1.69845
1.72889
1.75386
1.77067
1.77552
1.76475
1.7369
1.6934
1.6381
1.57618
1.51343
1.45578
1.4088
1.37678
1.36216
1.36589
1.38675
1.42119
1.46455
1.512
1.55955
1.60452
1.64549
1.68155
1.71158
1.73358
1.74485
1.74274
1.72584
1.69464
1.65143
1.59976
1.54401
1.48887
1.43904
1.39892
1.37218
1.36083
1.36485
1.38279
1.41193
1.44873
1.48953
1.53117
1.5712
1.60787
1.63986
1.66579
1.68358
1.69048
1.68389
1.66253
1.62712
1.58032
1.52606
1.46885
1.41349
1.36442
1.3255
1.29969
1.28835
1.29127
1.30695
1.33264
1.36472
1.3993
1.4328
1.46262
1.48635
1.5048
0.614448
1.68756
1.68828
1.69372
1.70379
1.71825
1.73651
1.75754
1.78008
1.80272
1.82404
1.84264
1.85716
1.86636
1.86923
1.86509
1.85393
1.83658
1.8147
1.79063
1.76725
1.74766
1.73456
1.72964
1.73336
1.74526
1.76399
1.78765
1.81428
1.84214
1.86962
1.8952
1.91736
1.93456
1.94511
1.94699
1.93804
1.91682
1.88369
1.84101
1.79265
1.74328
1.69778
1.66062
1.63517
1.62337
1.626
1.64211
1.66892
1.70268
1.73969
1.77701
1.81254
1.84501
1.87345
1.89692
1.91408
1.9232
1.92231
1.91005
1.8863
1.85248
1.81129
1.76635
1.72161
1.6811
1.64853
1.62643
1.61629
1.61862
1.63224
1.65475
1.68343
1.71551
1.74851
1.78039
1.80964
1.83507
1.85567
1.87004
1.87628
1.87232
1.85667
1.82924
1.79163
1.74683
1.69865
1.65124
1.60849
1.57384
1.55005
1.53829
1.53831
1.54906
1.56831
1.59303
1.62001
1.64629
1.66973
1.68837
1.70287
0.416316
1.92815
1.92903
1.93359
1.94169
1.95308
1.96726
1.98347
2.00074
2.01801
2.03418
2.0482
2.05905
2.06587
2.06798
2.06505
2.0572
2.04512
2.03002
2.01356
1.99768
1.98443
1.97559
1.97241
1.97534
1.98417
1.99801
2.01561
2.03557
2.0565
2.07707
2.09597
2.11191
2.12356
2.12963
2.12889
2.12033
2.10338
2.0782
2.04609
2.00956
1.97199
1.93708
1.90836
1.88856
1.87939
1.88137
1.89359
1.91385
1.93939
1.96756
1.99627
2.0239
2.04928
2.07143
2.08948
2.10245
2.10928
2.10875
2.09987
2.08234
2.05688
2.02529
1.99033
1.95516
1.92309
1.89706
1.87912
1.87035
1.87108
1.8805
1.89693
1.91843
1.9429
1.96841
1.99324
2.01606
2.03581
2.05167
2.0627
2.06769
2.06522
2.05403
2.03359
2.00463
1.96916
1.93009
1.89088
1.85487
1.825
1.80341
1.79138
1.78909
1.79556
1.80894
1.82681
1.84664
1.86614
1.88361
1.89748
1.90816
0.620856
2.16465
2.16551
2.16924
2.17569
2.18462
2.19563
2.20812
2.22138
2.23458
2.2469
2.25755
2.26576
2.27094
2.27264
2.2707
2.26527
2.25692
2.24652
2.23526
2.2245
2.21562
2.20984
2.20804
2.21056
2.21729
2.22766
2.24082
2.25575
2.27137
2.28661
2.3004
2.31169
2.31942
2.32261
2.32034
2.31211
2.29788
2.27808
2.25367
2.22633
2.19833
2.17233
2.15093
2.13625
2.12956
2.1311
2.14006
2.15489
2.17373
2.19479
2.21659
2.23782
2.25743
2.27448
2.28816
2.29767
2.30236
2.30157
2.29482
2.28191
2.2632
2.2398
2.21356
2.18685
2.16213
2.1417
2.12718
2.11948
2.11888
2.1249
2.13647
2.1522
2.17051
2.18983
2.20878
2.22621
2.2412
2.25303
2.26104
2.2645
2.26256
2.25437
2.23937
2.2178
2.1908
2.16038
2.12915
2.09986
2.07491
2.056
2.04433
2.04032
2.04319
2.05139
2.06314
2.0766
2.09011
2.10236
2.11207
2.1194
0.41071
2.39788
2.39862
2.40161
2.4067
2.41367
2.42221
2.43185
2.44203
2.45215
2.46157
2.4697
2.476
2.48003
2.4815
2.48035
2.47672
2.47105
2.46397
2.45635
2.44914
2.4433
2.43966
2.43882
2.44103
2.44623
2.45405
2.46389
2.47502
2.4866
2.4978
2.50775
2.51564
2.52067
2.52209
2.51932
2.51203
2.50028
2.48454
2.4657
2.44505
2.42427
2.40519
2.38961
2.37895
2.37402
2.37491
2.38111
2.39164
2.40533
2.42096
2.43738
2.45356
2.46856
2.48156
2.49183
2.49875
2.50183
2.5007
2.49516
2.48522
2.47124
2.45394
2.43457
2.4147
2.39607
2.38034
2.36877
2.36218
2.36088
2.36463
2.37271
2.38409
2.39757
2.41195
2.42615
2.43923
2.45041
2.45905
2.46461
2.46659
2.46454
2.45802
2.44672
2.4307
2.41059
2.38764
2.36365
2.34062
2.32042
2.30448
2.29375
2.28855
2.28843
2.29236
2.29913
2.30749
2.31621
2.32428
2.33064
2.33524
0.625443
2.62851
2.6291
2.63144
2.63542
2.64085
2.64746
2.65489
2.66273
2.67051
2.67775
2.68401
2.68889
2.6921
2.69343
2.69287
2.69055
2.68679
2.68207
2.677
2.67226
2.6685
2.66631
2.6661
2.66805
2.67213
2.67807
2.68546
2.69374
2.70229
2.71046
2.71757
2.72301
2.72616
2.72652
2.72372
2.71756
2.70813
2.69584
2.68141
2.66585
2.65037
2.63627
2.62475
2.61674
2.6128
2.61303
2.61716
2.6246
2.63455
2.64613
2.65846
2.67069
2.68207
2.69192
2.69963
2.70469
2.70669
2.70536
2.70065
2.69269
2.68185
2.66874
2.65423
2.63941
2.62546
2.61354
2.60462
2.59932
2.59793
2.6003
2.60592
2.61405
2.62382
2.63435
2.64482
2.65449
2.66269
2.66889
2.67259
2.67341
2.67108
2.66542
2.65637
2.64405
2.62889
2.61166
2.59352
2.57579
2.5598
2.54665
2.53705
2.53128
2.52918
2.53015
2.53344
2.53816
2.5434
2.54835
2.55212
2.55461
0.407037
2.85706
2.85748
2.85929
2.86237
2.86657
2.87168
2.87742
2.88346
2.88945
2.89504
2.89989
2.90373
2.90632
2.90756
2.90743
2.90604
2.90364
2.90058
2.89729
2.89425
2.89193
2.89072
2.89091
2.89263
2.89586
2.9004
2.90594
2.91209
2.91837
2.92428
2.92932
2.933
2.93488
2.93462
2.93196
2.92682
2.91933
2.9098
2.89879
2.88704
2.87542
2.86484
2.85614
2.84997
2.84675
2.84659
2.84934
2.85461
2.86184
2.87039
2.87959
2.88877
2.89733
2.9047
2.91043
2.91408
2.91538
2.91412
2.91026
2.90393
2.89547
2.88536
2.87432
2.86312
2.85261
2.84362
2.83682
2.83266
2.83133
2.83273
2.83653
2.84222
2.84918
2.85678
2.86439
2.8714
2.8773
2.88161
2.88394
2.88398
2.88153
2.8765
2.86892
2.85899
2.8471
2.83381
2.81986
2.80613
2.79351
2.78274
2.77439
2.76871
2.76568
2.76498
2.7661
2.7684
2.7712
2.77385
2.77568
2.77655
0.628251
3.08391
3.08418
3.08555
3.08792
3.09115
3.09509
3.09952
3.10418
3.10881
3.11314
3.11694
3.11998
3.12211
3.12326
3.12342
3.12268
3.12124
3.11933
3.11728
3.11542
3.11407
3.11351
3.11395
3.11546
3.11802
3.12151
3.12568
3.13024
3.13484
3.13909
3.14261
3.14505
3.14608
3.14546
3.14303
3.13877
3.13279
3.12536
3.1169
3.10795
3.09915
3.09114
3.08451
3.07973
3.07712
3.07678
3.0786
3.08233
3.08758
3.09386
3.10069
3.10754
3.11393
3.11942
3.12364
3.12626
3.12706
3.1259
3.12278
3.1178
3.11124
3.10348
3.09506
3.08655
3.07857
3.07171
3.06645
3.06309
3.06179
3.06249
3.06497
3.06888
3.07378
3.0792
3.08464
3.08964
3.09378
3.09667
3.09801
3.09754
3.0951
3.09066
3.08425
3.07608
3.06647
3.05586
3.04482
3.03394
3.02382
3.01501
3.00789
3.00268
2.99938
2.99779
2.99757
2.99824
2.99933
3.00033
3.00073
3.00043
0.404878
3.30942
3.30956
3.31057
3.31237
3.31485
3.31788
3.32129
3.3249
3.32848
3.33186
3.33484
3.33727
3.33904
3.3401
3.34046
3.34017
3.33938
3.33827
3.33706
3.336
3.33531
3.33517
3.33574
3.33706
3.33911
3.34179
3.34494
3.34832
3.35167
3.3547
3.35713
3.3587
3.35917
3.35837
3.35621
3.35269
3.3479
3.34208
3.33554
3.32868
3.32196
3.31584
3.31076
3.30704
3.30493
3.30449
3.30568
3.3083
3.31209
3.31669
3.32172
3.32679
3.33153
3.33558
3.33866
3.34051
3.34097
3.33993
3.33742
3.33351
3.32843
3.32247
3.31603
3.30953
3.30342
3.29812
3.29399
3.29123
3.28999
3.29021
3.29176
3.29439
3.29778
3.30157
3.30539
3.30887
3.31168
3.31352
3.31414
3.31335
3.31103
3.30716
3.30177
3.29504
3.28722
3.27865
3.26975
3.26098
3.25275
3.24547
3.2394
3.23469
3.23136
3.22927
3.22817
3.22773
3.22761
3.22745
3.22685
3.22574
0.629895
3.53382
3.53386
3.53458
3.53593
3.53782
3.54015
3.54278
3.54556
3.54834
3.55098
3.55334
3.5553
3.55678
3.55775
3.55822
3.55822
3.55788
3.55731
3.55668
3.55615
3.55588
3.55601
3.55663
3.55777
3.55942
3.5615
3.56387
3.56637
3.5688
3.57095
3.5726
3.57357
3.57368
3.57282
3.57092
3.56802
3.56419
3.55961
3.55452
3.54923
3.54406
3.53936
3.53543
3.53252
3.5308
3.53033
3.53107
3.5329
3.53562
3.53897
3.54265
3.54639
3.54987
3.55284
3.55506
3.55635
3.55657
3.55565
3.55361
3.55053
3.54658
3.54198
3.53702
3.53202
3.5273
3.52318
3.5199
3.51764
3.51647
3.5164
3.51731
3.51902
3.52131
3.52391
3.52652
3.52887
3.5307
3.53177
3.53189
3.5309
3.52874
3.52537
3.52085
3.5153
3.50892
3.50197
3.49476
3.48763
3.48087
3.47478
3.46956
3.46531
3.46204
3.45967
3.45802
3.45686
3.45596
3.45502
3.45377
3.45213
0.403634
3.75734
3.7573
3.7578
3.7588
3.76023
3.76201
3.76403
3.76618
3.76835
3.77042
3.77228
3.77387
3.77511
3.77599
3.77651
3.7767
3.77664
3.77643
3.77618
3.776
3.776
3.77629
3.77691
3.77789
3.77922
3.78083
3.78262
3.78447
3.78623
3.78773
3.78884
3.78939
3.78928
3.78842
3.78679
3.7844
3.78133
3.77772
3.77374
3.76963
3.76564
3.762
3.75895
3.75666
3.75525
3.75478
3.75521
3.75647
3.75841
3.76082
3.76351
3.76623
3.76877
3.77092
3.77251
3.77338
3.77344
3.77263
3.77098
3.76855
3.76546
3.76188
3.75805
3.75418
3.75052
3.74728
3.74467
3.74279
3.74173
3.74147
3.74193
3.743
3.74449
3.74621
3.74794
3.74946
3.75058
3.7511
3.75088
3.7498
3.74781
3.7449
3.74109
3.7365
3.73127
3.72561
3.71973
3.71389
3.7083
3.70318
3.69867
3.69485
3.69173
3.68926
3.68731
3.68573
3.68434
3.68293
3.68128
3.67935
0.630848
3.98014
3.98003
3.98037
3.9811
3.98218
3.98353
3.98508
3.98674
3.98842
3.99004
3.99153
3.99282
3.99386
3.99464
3.99517
3.99547
3.99559
3.99561
3.99559
3.99563
3.9958
3.99616
3.99675
3.9976
3.99866
3.99991
4.00126
4.00263
4.00389
4.00494
4.00566
4.00594
4.0057
4.0049
4.0035
4.00154
3.99908
3.99622
3.9931
3.9899
3.9868
3.98397
3.98159
3.97977
3.97862
3.97817
3.97839
3.97924
3.98061
3.98234
3.98427
3.98625
3.98809
3.98963
3.99074
3.99131
3.99126
3.99056
3.98922
3.98729
3.98487
3.98208
3.9791
3.97609
3.97323
3.97068
3.96858
3.96703
3.96607
3.96569
3.96586
3.96647
3.9674
3.96849
3.96958
3.97051
3.97112
3.97126
3.97083
3.96973
3.96793
3.96541
3.9622
3.95839
3.95409
3.94945
3.94464
3.93983
3.93519
3.93087
3.92698
3.92357
3.92067
3.91824
3.91618
3.9144
3.91275
3.91108
3.90924
3.90718
0.402918
4.20233
4.20219
4.2024
4.20292
4.20372
4.20475
4.20593
4.20721
4.20852
4.20979
4.21097
4.21201
4.21288
4.21357
4.21408
4.21443
4.21465
4.2148
4.21493
4.2151
4.21535
4.21574
4.21629
4.217
4.21785
4.21882
4.21984
4.22085
4.22176
4.22248
4.22293
4.22303
4.22273
4.222
4.22082
4.21922
4.21725
4.21499
4.21254
4.21005
4.20763
4.20542
4.20355
4.20211
4.20116
4.20074
4.20084
4.2014
4.20234
4.20357
4.20495
4.20637
4.20768
4.20877
4.20954
4.20989
4.20978
4.20918
4.20809
4.20656
4.20465