/*--------------------------------*- C++ -*----------------------------------*\
| =========                 |                                                 |
| \\      /  F ield         | OpenFOAM: The Open Source CFD Toolbox           |
|  \\    /   O peration     | Version:  2506                                  |
|   \\  /    A nd           | Website:  www.openfoam.com                      |
|    \\/     M anipulation  |                                                 |
\*---------------------------------------------------------------------------*/
FoamFile
{
    version     2.0;
    format      ascii;
    arch        "LSB;label=32;scalar=64";
    class       volVectorField;
    location    "109.96836736776783";
    object      U_0;
}
// * * * * * * * * * * * * * * * * * * * * * * * * * * * * * * * * * * * * * //

dimensions      [0 1 -1 0 0 0 0];

internalField   nonuniform List<vector> 
9700
(
(1.08536 0.000893464 3.81276e-22)
(1.08523 0.00297148 -1.62075e-24)
(1.08261 0.000811659 2.39421e-28)
(1.085 0.00477385 -4.9613e-22)
(1.08249 0.00267896 -7.21857e-25)
(1.08147 0.00078301 -3.77927e-22)
(1.08461 0.0067423 -1.99704e-24)
(1.08233 0.00428002 -3.7389e-35)
(1.08138 0.00257724 -3.7868e-22)
(1.07983 0.00075761 0)
(1.08405 0.00850552 3.84465e-22)
(1.08201 0.00599191 2.54265e-24)
(1.08127 0.00411226 -2.79078e-21)
(1.07978 0.00248212 -5.08344e-24)
(1.07841 0.000748968 3.69173e-22)
(1.08325 0.0102918 3.8873e-22)
(1.08157 0.0074583 -1.20948e-27)
(1.08104 0.00573592 -3.82157e-22)
(1.07972 0.00395705 8.76314e-35)
(1.0784 0.0024441 3.70135e-22)
(1.07694 0.000753628 3.00797e-28)
(1.08216 0.0118897 2.64744e-24)
(1.08095 0.00886067 1.86294e-27)
(1.08073 0.00710587 -3.81116e-22)
(1.0796 0.00550025 1.64247e-23)
(1.0784 0.00390075 2.71773e-21)
(1.07696 0.00245136 -9.32788e-25)
(1.07547 0.000770611 -3.63351e-22)
(1.0807 0.0133763 5.66976e-22)
(1.08011 0.00997614 6.85505e-23)
(1.08029 0.00838163 -3.73371e-22)
(1.07944 0.00678516 0)
(1.07839 0.00541631 3.6639e-22)
(1.07702 0.00392256 -1.30812e-35)
(1.07552 0.00250237 -3.63629e-22)
(1.07395 0.000796908 -3.03348e-21)
(1.07872 0.0146058 -1.21332e-23)
(1.07897 0.0108303 -7.65229e-22)
(1.0797 0.00934214 -3.35752e-22)
(1.07921 0.00794931 0)
(1.07839 0.0066803 3.66597e-22)
(1.07711 0.0054533 2.20456e-24)
(1.07563 0.00401961 -2.46335e-25)
(1.07402 0.0025882 -3.50829e-21)
(1.07238 0.000828909 -3.36883e-25)
(1.07609 0.0155641 -5.34927e-22)
(1.07745 0.011245 -1.49807e-22)
(1.0789 0.00999105 -4.1141e-21)
(1.07892 0.00877516 -4.98065e-38)
(1.07839 0.00781736 3.70855e-22)
(1.07727 0.0067487 -7.14487e-28)
(1.07582 0.00560748 -3.69806e-22)
(1.07417 0.00417623 -4.73231e-22)
(1.07246 0.00269766 3.82903e-22)
(1.07073 0.000862371 2.98789e-21)
(1.07257 0.0161018 4.25172e-22)
(1.07542 0.011125 1.97844e-23)
(1.07783 0.0101404 8.97769e-22)
(1.07853 0.00924541 1.63511e-23)
(1.07841 0.00861729 3.87745e-22)
(1.07749 0.00792887 7.54691e-28)
(1.07611 0.00698552 -3.69074e-22)
(1.07443 0.00585541 -3.52859e-21)
(1.07263 0.00437292 4.70891e-22)
(1.07081 0.00281678 3.10333e-21)
(1.06901 0.000892836 0)
(1.06795 0.0161436 7.09829e-24)
(1.0727 0.0102648 2.88529e-23)
(1.07641 0.00966332 3.08086e-21)
(1.07801 0.00916434 7.28473e-23)
(1.07846 0.0090533 3.98282e-21)
(1.07782 0.00879429 1.14637e-23)
(1.07653 0.00827836 -3.65522e-22)
(1.07482 0.00735805 -3.17533e-21)
(1.07294 0.00616757 3.23864e-22)
(1.07099 0.00458545 -2.42276e-25)
(1.06909 0.00293036 -2.24515e-36)
(1.06723 0.000915957 3.49584e-22)
(1.06178 0.0155081 2.95352e-21)
(1.0691 0.00845612 2.51862e-22)
(1.07449 0.00833273 -3.70324e-22)
(1.07733 0.0083727 -3.33782e-23)
(1.07853 0.00893006 -9.56518e-22)
(1.07828 0.00931968 -1.87553e-25)
(1.07713 0.00930071 -3.67478e-22)
(1.07539 0.00882158 -3.18795e-21)
(1.07339 0.00782464 2.81194e-28)
(1.0713 0.00650691 3.12661e-21)
(1.06925 0.00478749 5.76405e-36)
(1.06729 0.00302308 3.5731e-22)
(1.06541 0.000927817 9.2102e-28)
(1.05375 0.0140764 -2.6223e-23)
(1.06423 0.00541504 1.54897e-34)
(1.07193 0.0058706 -3.18151e-22)
(1.07638 0.00662214 -1.60074e-22)
(1.07864 0.00807313 -2.92912e-21)
(1.07894 0.00931808 1.77517e-23)
(1.07797 0.0100406 -4.00337e-21)
(1.07621 0.0100783 -3.56896e-21)
(1.07405 0.00950126 -2.40568e-28)
(1.07177 0.0083326 3.15893e-21)
(1.06954 0.00683285 -2.18501e-36)
(1.06741 0.00495266 2.36941e-25)
(1.06543 0.00308087 -7.54483e-24)
(1.06356 0.000925262 -3.31175e-22)
(1.0431 0.0115768 2.94552e-22)
(1.05786 0.000785656 -4.96745e-22)
(1.06842 0.00194871 -5.00003e-21)
(1.07512 0.00356417 -2.11324e-22)
(1.07877 0.00622411 3.34133e-22)
(1.07984 0.00861829 -4.00132e-24)
(1.07915 0.0103289 -3.08943e-21)
(1.07736 0.0111405 -2.6811e-21)
(1.075 0.0110502 3.8405e-22)
(1.07246 0.0102441 3.21012e-21)
(1.06997 0.00882388 0)
(1.06764 0.00710458 3.38879e-22)
(1.06551 0.00505674 -1.64709e-35)
(1.06355 0.00309198 -3.24349e-22)
(1.06173 0.000906195 -4.23158e-22)
(1.02931 0.00805815 4.40768e-21)
(1.04915 -0.00579937 -2.53579e-22)
(1.06373 -0.00392899 -4.14724e-22)
(1.07334 -0.00117715 1.6377e-34)
(1.07894 0.00299099 3.2622e-22)
(1.08106 0.00696394 -7.4601e-24)
(1.08077 0.010018 2.95664e-21)
(1.07896 0.0118668 -4.12131e-21)
(1.07634 0.0125167 2.76493e-21)
(1.07345 0.0121162 3.27883e-21)
(1.07061 0.0109689 0)
(1.06799 0.00923989 3.4555e-22)
(1.06565 0.00728447 1.67218e-23)
(1.06356 0.00507973 -2.49454e-21)
(1.06168 0.00304815 -8.34604e-22)
(1.05994 0.000869764 -2.28527e-28)
(1.01133 0.00362205 9.78073e-22)
(1.03743 -0.0146734 -1.52509e-22)
(1.05703 -0.0121138 -1.26223e-21)
(1.0708 -0.00822718 4.45736e-22)
(1.07907 -0.00203232 4.06761e-21)
(1.08269 0.0039537 -7.63334e-23)
(1.08301 0.00887088 -3.32106e-22)
(1.08117 0.0121523 -6.50779e-22)
(1.07822 0.013796 3.26488e-21)
(1.07486 0.0140331 -1.05565e-24)
(1.07154 0.0131643 -1.62318e-35)
(1.06852 0.0115928 3.84665e-22)
(1.06587 0.00952647 -7.44179e-27)
(1.06359 0.00734132 -3.70323e-22)
(1.06161 0.00500767 -4.30611e-22)
(1.05984 0.0029452 3.3561e-22)
(1.05824 0.00081644 4.01346e-22)
(0.988624 -0.000752055 7.31982e-21)
(1.02122 -0.0262845 1.55377e-21)
(1.04772 -0.0231419 5.46965e-22)
(1.06676 -0.0179674 0)
(1.07894 -0.00952306 2.10982e-22)
(1.08479 -0.000822283 5.96079e-35)
(1.08603 0.00651865 -3.52759e-22)
(1.08425 0.0118006 -2.74417e-21)
(1.08083 0.0148429 -2.71888e-21)
(1.07683 0.0159331 9.42348e-22)
(1.07287 0.0155355 -4.81524e-23)
(1.06928 0.0140798 4.98886e-22)
(1.06621 0.0120396 8.70707e-27)
(1.06364 0.00963868 -3.75121e-22)
(1.06151 0.00725325 -5.87131e-22)
(1.0597 0.0048338 2.77582e-21)
(1.0581 0.00278349 4.16935e-22)
(1.05665 0.000747959 -3.82758e-22)
(0.960233 -0.00444244 -2.16582e-20)
(0.99971 -0.0409506 -3.26075e-21)
(1.03456 -0.0375092 1.41913e-21)
(1.06067 -0.0313611 -6.11335e-35)
(1.07802 -0.0199149 -4.99967e-23)
(1.08715 -0.0079992 2.07411e-22)
(1.08995 0.00259493 -1.93991e-21)
(1.08842 0.0105179 -3.21674e-21)
(1.08449 0.0155234 3.93854e-22)
(1.07959 0.0178414 3.28223e-21)
(1.07474 0.0180655 -2.15636e-23)
(1.07039 0.0168649 4.24062e-21)
(1.06673 0.0147561 2.51516e-22)
(1.06376 0.0122456 -3.26442e-22)
(1.06139 0.00954511 -4.42466e-22)
(1.05947 0.00700952 2.88311e-22)
(1.05788 0.00455924 -2.27826e-21)
(1.05647 0.00256784 -7.9144e-22)
(1.0552 0.0006671 -2.75544e-28)
(0.926973 -0.00415959 -5.61492e-21)
(0.971628 -0.0585996 -2.54717e-21)
(1.01639 -0.056 -1.83812e-21)
(1.05144 -0.0493102 1.83478e-36)
(1.07614 -0.0346988 -2.99456e-23)
(1.08976 -0.0181594 1.36831e-22)
(1.09472 -0.00339841 -1.15249e-22)
(1.09383 0.00804454 -3.89997e-22)
(1.08944 0.0156587 -2.86503e-22)
(1.08349 0.0197057 3.45054e-21)
(1.07739 0.0208549 -1.43046e-22)
(1.07198 0.0199729 3.43817e-21)
(1.0675 0.0178732 -2.53315e-23)
(1.06396 0.0151046 -1.12182e-22)
(1.06124 0.0121664 -4.53357e-22)
(1.05916 0.00923054 2.2703e-27)
(1.05752 0.00661151 3.63932e-22)
(1.05619 0.00419275 -3.87867e-22)
(1.05499 0.00230695 2.04967e-23)
(1.05392 0.000577551 3.5203e-22)
(0.890676 0.00263802 2.30875e-20)
(0.936601 -0.0776074 7.85622e-21)
(0.991046 -0.0782049 1.61007e-21)
(1.03731 -0.0729646 -5.03253e-36)
(1.07229 -0.0553062 -1.35095e-22)
(1.093 -0.0334311 -5.34839e-26)
(1.10116 -0.0123118 1.19633e-21)
(1.10072 0.00407347 -2.35484e-21)
(1.09581 0.0151552 3.43533e-22)
(1.08874 0.0214919 3.36939e-21)
(1.08114 0.0239423 3.3336e-22)
(1.07423 0.0235761 -3.5148e-21)
(1.06862 0.021449 -2.41502e-22)
(1.06429 0.0184372 -4.24361e-21)
(1.06108 0.0150636 -8.30038e-22)
(1.05873 0.0117806 -2.83722e-27)
(1.05703 0.00869716 3.70512e-22)
(1.05571 0.00607244 -4.31493e-22)
(1.05467 0.00374977 7.75306e-35)
(1.05369 0.00201305 5.05726e-22)
(1.05282 0.000483638 4.54442e-24)
(0.852821 0.0170858 5.1214e-22)
(0.895289 -0.0953767 5.56135e-22)
(0.957871 -0.10276 -1.93076e-21)
(1.01514 -0.1013 0)
(1.06344 -0.0830332 -2.7999e-21)
(1.0956 -0.0557474 -1.77005e-21)
(1.11035 -0.0268591 -3.38576e-22)
(1.1111 -0.00258005 -1.32853e-21)
(1.10435 0.0139069 2.02492e-21)
(1.0954 0.0233018 1.18378e-22)
(1.08615 0.0274499 -2.19984e-36)
(1.07747 0.0278016 4.49243e-22)
(1.07025 0.0257165 1.41546e-23)
(1.06482 0.0223223 8.15128e-22)
(1.06092 0.0184717 -2.62443e-21)
(1.05821 0.0146038 4.21636e-22)
(1.05635 0.0110912 4.74453e-22)
(1.05506 0.00796413 -3.94635e-22)
(1.0541 0.00541576 -4.85069e-23)
(1.05334 0.00325161 3.5453e-22)
(1.05259 0.00170082 2.11275e-23)
(1.05191 0.000390056 -3.03574e-21)
(0.813315 0.0377781 3.56708e-22)
(0.848715 -0.109954 -2.4399e-21)
(0.916688 -0.128078 2.70508e-21)
(0.983643 -0.132634 -8.40313e-36)
(1.04503 -0.115922 9.84728e-21)
(1.09275 -0.0860236 4.90649e-21)
(1.12018 -0.0492212 -3.52746e-21)
(1.12662 -0.0149123 1.72018e-23)
(1.11843 0.0105055 -2.14972e-26)
(1.10487 0.0252272 3.58499e-21)
(1.09236 0.0316559 -1.60384e-35)
(1.0817 0.0329161 4.10668e-22)
(1.07262 0.0308761 -1.62671e-24)
(1.06563 0.0270375 3.58179e-21)
(1.06078 0.0224754 4.69862e-22)
(1.05754 0.0179371 2.74836e-21)
(1.05547 0.0137302 9.03543e-22)
(1.05416 0.0101253 -4.014e-22)
(1.05332 0.00706513 3.00067e-27)
(1.05271 0.00467393 9.10469e-22)
(1.05222 0.0027236 8.19872e-22)
(1.05168 0.00138612 -3.41412e-21)
(1.05118 0.000301698 -1.17735e-24)
(0.771064 0.0586895 1.80055e-21)
(0.801002 -0.116648 0)
(0.868993 -0.152997 1.5966e-22)
(0.94254 -0.165345 -3.58562e-35)
(1.01572 -0.152006 3.52021e-21)
(1.07823 -0.12144 4.40548e-21)
(1.12337 -0.0793695 5.85067e-21)
(1.14348 -0.0350573 2.83385e-21)
(1.13996 0.00207314 -8.06655e-22)
(1.12184 0.0259756 6.51342e-21)
(1.1018 0.036862 -1.91407e-35)
(1.08678 0.0393155 3.55999e-21)
(1.07564 0.0373097 -1.7833e-22)
(1.06689 0.0328286 -4.69093e-22)
(1.06067 0.0273771 -6.98662e-22)
(1.0567 0.0218555 -9.91382e-22)
(1.05431 0.0168416 -7.81372e-23)
(1.05297 0.0124807 -7.28504e-22)
(1.05224 0.00892973 -3.83441e-27)
(1.05185 0.00604639 3.55212e-22)
(1.05157 0.00388553 -5.01572e-23)
(1.05132 0.002193 -3.2063e-22)
(1.05098 0.00108508 1.86617e-22)
(1.05063 0.000223302 2.76883e-21)
(0.726558 0.0758553 2.36838e-23)
(0.756478 -0.117609 2.2924e-22)
(0.81772 -0.174136 1.63813e-22)
(0.893597 -0.197707 -5.21534e-35)
(0.975289 -0.189481 -2.14961e-20)
(1.05099 -0.160094 -1.6857e-20)
(1.11257 -0.114062 -1.6181e-20)
(1.15189 -0.0616094 9.89141e-22)
(1.16283 -0.0131124 -8.72926e-21)
(1.14807 0.0231837 1.90973e-21)
(1.12018 0.0423106 0)
(1.09505 0.0475177 7.51949e-22)
(1.07901 0.0454616 1.66328e-34)
(1.06839 0.0401565 -4.97306e-22)
(1.06066 0.0334325 -1.07392e-21)
(1.05565 0.0266659 -2.97507e-21)
(1.05282 0.0204769 4.01526e-22)
(1.05139 0.0152385 -2.17018e-21)
(1.0508 0.0109207 9.98999e-23)
(1.05065 0.00756858 3.56962e-22)
(1.05068 0.0049625 -5.09838e-23)
(1.05069 0.00309203 -3.15803e-21)
(1.05064 0.00168737 2.63659e-21)
(1.05045 0.000813127 2.91823e-21)
(1.05022 0.000158823 2.8051e-22)
(0.690602 0.086661 1.30896e-20)
(0.713438 -0.115046 -8.12156e-21)
(0.766483 -0.191781 -7.04857e-21)
(0.839662 -0.228964 -3.2971e-21)
(0.925819 -0.226898 -5.94942e-21)
(1.0111 -0.200165 -1.80817e-21)
(1.0876 -0.152115 6.17543e-21)
(1.14445 -0.0918465 1.63575e-20)
(1.17546 -0.0325588 5.19631e-21)
(1.17534 0.0159549 -9.0953e-21)
(1.14888 0.046567 -1.90561e-35)
(1.11289 0.0576003 3.78482e-21)
(1.08502 0.0560352 9.34962e-22)
(1.06967 0.049454 -8.14366e-21)
(1.06048 0.0411441 -1.52198e-21)
(1.05434 0.0325968 -1.15013e-22)
(1.05087 0.0249298 3.21008e-21)
(1.04934 0.0184163 8.5775e-22)
(1.0489 0.0132181 1.21792e-22)
(1.04906 0.00913806 6.378e-22)
(1.04943 0.00611705 6.53677e-23)
(1.04981 0.0038718 -3.04682e-21)
(1.05005 0.00233526 -4.51722e-22)
(1.05017 0.00123295 1.57357e-21)
(1.05008 0.000583899 3.69674e-22)
(1.04994 0.00011087 1.8716e-28)
(0.665367 0.0911921 7.41716e-21)
(0.682409 -0.111309 -5.6614e-21)
(0.718943 -0.205263 5.69799e-23)
(0.785339 -0.256769 9.56571e-26)
(0.870122 -0.263104 -2.31854e-21)
(0.961036 -0.240435 9.06742e-21)
(1.04852 -0.19182 3.31249e-20)
(1.12204 -0.125812 2.37691e-20)
(1.17115 -0.0550174 2.05669e-20)
(1.19066 0.0061999 1.84282e-21)
(1.17855 0.0495811 -2.08998e-35)
(1.1415 0.0692879 -1.59067e-21)
(1.10023 0.0700519 7.26489e-22)
(1.07252 0.0615225 -5.58152e-22)
(1.05951 0.0508887 -7.37122e-22)
(1.05247 0.0401575 5.7625e-22)
(1.04836 0.0303684 5.01571e-22)
(1.04663 0.0222804 -7.74628e-22)
(1.04641 0.0158 -7.0826e-36)
(1.04695 0.0108999 2.30974e-21)
(1.04777 0.007235 5.91753e-22)
(1.04859 0.00465515 -3.01196e-21)
(1.04924 0.00283288 1.16e-26)
(1.04965 0.00165508 2.51917e-21)
(1.04986 0.000852724 -3.89376e-21)
(1.04984 0.000408144 -1.43255e-22)
(1.04974 8.08688e-05 -2.59386e-22)
(0.643563 0.0916818 5.67598e-22)
(0.66315 -0.108245 1.75256e-20)
(0.684836 -0.212606 1.45166e-20)
(0.73467 -0.281154 -3.76815e-21)
(0.813118 -0.296819 3.68452e-20)
(0.903605 -0.279026 7.7996e-22)
(0.997895 -0.232405 -7.3466e-21)
(1.08437 -0.161667 3.29191e-20)
(1.15138 -0.0816144 1.42035e-20)
(1.1899 -0.00683665 -3.85021e-21)
(1.19515 0.0509047 -1.00623e-38)
(1.17158 0.0824385 -9.28148e-21)
(1.12644 0.0884143 -3.02681e-25)
(1.08324 0.0781809 1.03997e-21)
(1.05874 0.0634326 -1.55303e-21)
(1.04934 0.0496394 4.53664e-21)
(1.04494 0.03728 7.14533e-22)
(1.04309 0.0269151 -1.66112e-21)
(1.04313 0.0188948 -1.73672e-22)
(1.04417 0.0127923 9.84336e-22)
(1.04557 0.00842123 -3.30846e-21)
(1.04696 0.00531921 -4.19294e-21)
(1.04811 0.00326292 -1.48155e-26)
(1.04896 0.00190133 2.6996e-21)
(1.04946 0.00108637 5.84031e-23)
(1.04969 0.000564523 1.32521e-34)
(1.04969 0.000293351 -1.87974e-22)
(1.04959 6.9666e-05 0)
(0.626757 0.0886495 2.22711e-21)
(0.648165 -0.107902 2.01041e-20)
(0.664243 -0.216135 8.79781e-21)
(0.698239 -0.297619 4.32108e-20)
(0.759042 -0.327245 1.50142e-20)
(0.84397 -0.315182 8.62031e-22)
(0.93834 -0.271323 7.72594e-21)
(1.03378 -0.199508 3.28379e-20)
(1.11568 -0.110255 1.00982e-20)
(1.17282 -0.0234067 9.7375e-21)
(1.19643 0.0478411 0)
(1.19238 0.0950122 7.41587e-21)
(1.15512 0.110303 -9.45495e-21)
(1.10484 0.101545 7.25051e-22)
(1.06366 0.0809662 -9.89499e-22)
(1.04504 0.0616629 5.56513e-22)
(1.0399 0.0458489 -3.54887e-21)
(1.03836 0.032765 -2.11679e-21)
(1.03882 0.0224921 -2.03845e-22)
(1.04052 0.0149966 7.03293e-24)
(1.04268 0.00957809 -1.38147e-21)
(1.04481 0.0059253 -1.70552e-21)
(1.04661 0.0034975 9.34815e-22)
(1.04798 0.00201615 2.62176e-21)
(1.04891 0.00112577 2.64115e-22)
(1.04942 0.000656456 3.31362e-22)
(1.04962 0.000380578 1.38184e-21)
(1.04958 0.000242926 1.57915e-22)
(1.04945 7.78086e-05 -2.30348e-21)
(0.61736 0.0818587 4.83712e-21)
(0.638549 -0.110112 -6.39797e-21)
(0.649881 -0.220078 -2.73266e-20)
(0.675575 -0.307726 1.28987e-20)
(0.719601 -0.349131 3.53599e-20)
(0.78647 -0.347498 2.0928e-21)
(0.875858 -0.308193 -5.24705e-20)
(0.972547 -0.23575 1.81766e-21)
(1.06569 -0.142072 -3.88985e-20)
(1.13923 -0.0416973 -2.5589e-20)
(1.18361 0.0429364 -8.3249e-36)
(1.19695 0.104339 -1.03443e-20)
(1.17598 0.133359 2.38017e-20)
(1.13049 0.13075 -8.67363e-21)
(1.07854 0.106738 1.35319e-20)
(1.04371 0.0782228 9.47607e-23)
(1.03264 0.0565312 6.05082e-22)
(1.0318 0.0398814 -5.86533e-22)
(1.03311 0.0269814 1.82517e-22)
(1.03573 0.017411 -1.01053e-21)
(1.03891 0.0108326 -1.86428e-21)
(1.04198 0.00634781 -8.91992e-23)
(1.04464 0.00355334 2.83497e-21)
(1.04669 0.00187038 2.43031e-21)
(1.04815 0.000981099 2.54545e-22)
(1.04905 0.000544238 -2.09286e-27)
(1.04948 0.000384145 -4.07084e-22)
(1.0496 0.000306395 -1.09297e-21)
(1.04949 0.00025575 -2.33482e-21)
(1.04928 0.000104172 -4.42757e-25)
(0.615269 0.0715137 -7.30912e-21)
(0.635476 -0.115537 -8.9142e-21)
(0.642003 -0.22455 -6.4688e-22)
(0.659959 -0.316876 -2.1058e-21)
(0.694037 -0.363761 -3.16175e-20)
(0.744052 -0.371137 -4.62905e-20)
(0.81441 -0.340619 -5.86846e-23)
(0.90769 -0.271653 -4.28082e-20)
(1.00373 -0.17206 -3.51694e-20)
(1.09035 -0.064206 -3.88236e-20)
(1.1522 0.0372768 3.7516e-35)
(1.18235 0.112159 2.10465e-20)
(1.1829 0.156303 1.92174e-20)
(1.14999 0.163029 -9.62903e-21)
(1.09915 0.140728 -2.8101e-21)
(1.05038 0.103334 -6.54485e-21)
(1.02563 0.0706401 -4.11894e-23)
(1.02241 0.0486339 2.35676e-22)
(1.02545 0.0322516 2.69558e-35)
(1.02945 0.0203628 -7.38665e-22)
(1.03394 0.0120064 -5.0043e-23)
(1.0383 0.00665182 -2.84189e-22)
(1.04203 0.00328606 -2.24691e-21)
(1.045 0.00143781 1.40003e-21)
(1.04714 0.000525418 9.78329e-22)
(1.04854 0.000209815 2.60208e-27)
(1.04931 0.000183002 -2.40872e-22)
(1.0496 0.000278079 2.63777e-22)
(1.04958 0.000340201 7.74342e-22)
(1.04936 0.000326598 -1.14187e-22)
(1.04905 0.000144458 2.20655e-21)
(0.624364 0.0570787 -2.17353e-21)
(0.640478 -0.124197 1.37727e-20)
(0.641357 -0.230421 1.05544e-20)
(0.651951 -0.32501 9.51829e-21)
(0.67553 -0.376896 -4.92002e-21)
(0.715628 -0.38741 -1.40475e-20)
(0.768393 -0.364426 -9.05494e-21)
(0.841885 -0.302652 2.62514e-21)
(0.937664 -0.204807 4.83119e-20)
(1.02915 -0.0846205 -4.14319e-21)
(1.10505 0.027113 -4.82005e-36)
(1.15321 0.11901 1.32613e-20)
(1.16971 0.176915 -6.82299e-20)
(1.15647 0.19671 2.57342e-20)
(1.11632 0.179907 9.84252e-21)
(1.06394 0.138383 1.15141e-21)
(1.02368 0.0922934 -5.56413e-21)
(1.01109 0.0594274 -7.41716e-22)
(1.0148 0.0386935 -2.27974e-22)
(1.02113 0.0235619 4.16279e-22)
(1.02749 0.0133542 2.00477e-22)
(1.03346 0.00660658 -2.79459e-21)
(1.03866 0.00269357 1.42267e-21)
(1.04277 0.000564002 2.57862e-21)
(1.04583 -0.000305746 2.05004e-22)
(1.04787 -0.000468438 -6.60332e-23)
(1.04907 -0.000261312 -2.29921e-22)
(1.04963 5.42998e-05 0)
(1.04972 0.000335812 -2.28791e-21)
(1.04952 0.000473195 -9.92919e-22)
(1.04916 0.000446811 2.22919e-21)
(1.04873 0.000192978 -2.16884e-21)
(0.643286 0.0399513 -3.5739e-21)
(0.654202 -0.135901 -1.04475e-20)
(0.648549 -0.238213 -5.881e-21)
(0.652004 -0.332644 1.1496e-20)
(0.665089 -0.388173 1.68684e-20)
(0.693825 -0.401698 -1.2225e-20)
(0.736736 -0.381358 4.53784e-21)
(0.791543 -0.325708 7.85698e-21)
(0.8672 -0.231107 1.44991e-21)
(0.962463 -0.11159 -8.97538e-21)
(1.04587 0.0180608 -3.07856e-20)
(1.10837 0.122772 -2.55716e-20)
(1.14253 0.195355 -7.08109e-21)
(1.14663 0.228452 2.13331e-20)
(1.12275 0.221168 2.80335e-21)
(1.07705 0.180904 -3.65708e-22)
(1.02855 0.124327 1.99914e-22)
(1.00142 0.0757591 9.63819e-21)
(1.0009 0.045876 1.97355e-21)
(1.00997 0.0274783 2.61866e-21)
(1.01898 0.0144283 1.84174e-21)
(1.02722 0.00637581 -2.68087e-21)
(1.03422 0.00151884 -1.92876e-21)
(1.0399 -0.000821246 3.25416e-21)
(1.0441 -0.00167007 1.75902e-21)
(1.047 -0.00158588 -7.79242e-23)
(1.04878 -0.00106262 2.86545e-22)
(1.04967 -0.000415135 0)
(1.04994 0.000155057 -2.22019e-21)
(1.04978 0.000544184 -3.24319e-22)
(1.04938 0.000689345 1.25629e-21)
(1.04887 0.000604123 -2.18683e-21)
(1.04832 0.000245079 -2.93039e-25)
(0.673365 0.0197949 -3.23543e-20)
(0.677681 -0.149938 -2.50305e-20)
(0.664514 -0.247716 9.25589e-22)
(0.660458 -0.340491 -1.41747e-21)
(0.663307 -0.397649 5.00094e-21)
(0.679735 -0.413281 2.82383e-21)
(0.711509 -0.395666 3.61471e-21)
(0.756409 -0.343113 -1.3359e-20)
(0.812215 -0.252492 1.96983e-20)
(0.887887 -0.127973 1.12242e-21)
(0.97791 0.000525809 3.87885e-25)
(1.05112 0.125065 7.35227e-21)
(1.09994 0.212205 3.34669e-20)
(1.12099 0.257986 -3.59993e-20)
(1.11417 0.261671 -2.72404e-21)
(1.0823 0.227145 8.26243e-21)
(1.0356 0.165938 -8.93907e-21)
(0.996891 0.101171 -1.8708e-21)
(0.985607 0.0562774 -9.89987e-26)
(0.995059 0.0311017 4.6593e-22)
(1.00791 0.0157425 -2.59685e-22)
(1.01898 0.00541745 5.41774e-23)
(1.02854 -0.000188466 2.5005e-21)
(1.03611 -0.00297981 2.10119e-23)
(1.04188 -0.00370044 -1.61913e-21)
(1.04587 -0.00329851 2.20836e-36)
(1.0484 -0.00233752 1.36705e-22)
(1.04976 -0.00123337 1.92242e-22)
(1.05025 -0.000255123 -2.08882e-21)
(1.05017 0.000467046 3.32567e-27)
(1.04973 0.000879637 2.23954e-21)
(1.04912 0.000966746 7.37047e-22)
(1.04846 0.00078359 4.35514e-23)
(1.04779 0.000296993 2.10315e-21)
(0.713807 -0.00215086 1.74299e-20)
(0.710722 -0.165857 2.61563e-21)
(0.689396 -0.258581 -1.13411e-22)
(0.677232 -0.348672 -1.93901e-20)
(0.670125 -0.405605 1.571e-22)
(0.674254 -0.421839 -1.1193e-20)
(0.693694 -0.407648 1.65952e-21)
(0.727965 -0.357046 -9.84149e-21)
(0.773932 -0.270309 -1.02034e-20)
(0.829635 -0.14793 -3.59145e-21)
(0.902991 -0.00192201 3.23089e-21)
(0.982484 0.121398 -9.14882e-21)
(1.0444 0.225975 2.5618e-21)
(1.08049 0.285934 -2.67658e-20)
(1.09023 0.300448 6.54107e-20)
(1.07465 0.273783 -1.5448e-20)
(1.0382 0.213473 -2.29926e-21)
(0.995987 0.137304 6.31285e-21)
(0.972476 0.072794 -1.89809e-34)
(0.976861 0.0360084 -5.66589e-21)
(0.993116 0.0159992 -2.34453e-21)
(1.00851 0.00417676 -2.24424e-21)
(1.02102 -0.00298058 -8.99296e-22)
(1.03129 -0.00599122 1.64154e-22)
(1.03895 -0.00665289 -1.25647e-21)
(1.04443 -0.0057902 1.02148e-22)
(1.04793 -0.00423597 1.43768e-21)
(1.04989 -0.00252749 -3.47901e-22)
(1.0507 -0.000984158 -1.82537e-21)
(1.05071 0.000194791 -3.54777e-27)
(1.05025 0.000957185 2.16001e-21)
(1.04954 0.00130958 -2.2371e-21)
(1.04873 0.00127962 3.95217e-35)
(1.04793 0.000968366 2.18118e-21)
(1.04716 0.000344876 0)
(0.777232 -0.0326543 4.6378e-22)
(0.752871 -0.181697 1.90214e-20)
(0.722683 -0.269876 3.90016e-21)
(0.701848 -0.356512 1.1808e-21)
(0.684989 -0.411501 -8.64546e-22)
(0.677404 -0.427164 -1.14729e-20)
(0.684165 -0.417 2.82482e-21)
(0.707128 -0.368379 1.00654e-20)
(0.74227 -0.283933 -7.90775e-20)
(0.789275 -0.165918 2.56821e-20)
(0.844406 -0.022378 5.52967e-21)
(0.910556 0.129555 0)
(0.978383 0.236053 2.57758e-21)
(1.02755 0.310336 8.51625e-22)
(1.05216 0.33684 -8.75758e-21)
(1.05277 0.318802 -2.12302e-20)
(1.03088 0.262978 8.60849e-21)
(0.994047 0.18132 1.78601e-21)
(0.962679 0.0994769 7.41939e-23)
(0.957485 0.0432921 9.95717e-22)
(0.974481 0.0162702 2.40637e-21)
(0.994561 0.00132617 4.41063e-22)
(1.01159 -0.00661421 -3.1914e-21)
(1.02488 -0.0103567 -1.96753e-23)
(1.03523 -0.0107289 2.20731e-22)
(1.04253 -0.00930923 1.13394e-22)
(1.04735 -0.0069774 1.2186e-22)
(1.0501 -0.00443649 3.74007e-23)
(1.05132 -0.00215803 -1.66349e-22)
(1.05149 -0.000345691 1.14254e-23)
(1.05099 0.000890263 2.10329e-21)
(1.05015 0.00157975 -2.15996e-21)
(1.04917 0.00179475 -8.18911e-23)
(1.04819 0.00159968 -7.21834e-22)
(1.04728 0.00114125 -1.59471e-23)
(1.04643 0.000384683 -2.14998e-22)
(0.865199 -0.065121 -3.57117e-21)
(0.815528 -0.202795 5.58394e-22)
(0.763341 -0.279754 0)
(0.733693 -0.362982 -3.37759e-21)
(0.706985 -0.415317 -2.74241e-21)
(0.688914 -0.429742 2.25292e-21)
(0.683106 -0.423629 3.15117e-21)
(0.694352 -0.37693 -4.98705e-22)
(0.718194 -0.294317 5.94812e-21)
(0.754582 -0.179257 2.00092e-20)
(0.802186 -0.0381834 -3.46512e-20)
(0.85377 0.111479 -2.83484e-21)
(0.910655 0.247523 6.32531e-21)
(0.966261 0.33079 4.7448e-20)
(1.00255 0.369342 1.31476e-20)
(1.01769 0.360793 7.21982e-21)
(1.01119 0.311326 -3.58493e-20)
(0.985758 0.229658 -1.80822e-21)
(0.954209 0.134783 1.33536e-21)
(0.939571 0.0583033 -3.03339e-21)
(0.9521 0.0157232 2.01437e-21)
(0.977137 -0.00232557 1.77995e-21)
(0.999027 -0.0122355 4.90149e-21)
(1.01688 -0.0161073 1.72022e-21)
(1.03027 -0.0163718 -2.98436e-23)
(1.04012 -0.014155 -9.47966e-22)
(1.04658 -0.0108016 -8.07198e-22)
(1.05041 -0.00719817 -1.47671e-21)
(1.05219 -0.00389905 -2.4433e-21)
(1.05255 -0.00126731 -8.83329e-22)
(1.05203 0.000623746 2.03482e-21)
(1.05102 0.00176901 -2.12656e-21)
(1.04983 0.00227963 1.60227e-27)
(1.04863 0.0022915 2.1171e-21)
(1.04751 0.00189815 3.47019e-35)
(1.04652 0.00128624 -1.85487e-22)
(1.04563 0.000412565 -9.23422e-29)
(0.955419 -0.0962062 -2.19578e-20)
(0.894718 -0.218756 7.36789e-21)
(0.822223 -0.292353 1.23757e-21)
(0.771351 -0.367796 -6.39322e-24)
(0.735483 -0.416413 -5.72629e-21)
(0.707973 -0.430291 1.3591e-20)
(0.690651 -0.426802 2.0487e-20)
(0.689711 -0.382504 -3.98468e-20)
(0.702293 -0.301471 6.96959e-20)
(0.727072 -0.189253 -7.11212e-20)
(0.764873 -0.0505989 -3.86592e-20)
(0.810681 0.099853 -5.40804e-21)
(0.855294 0.241122 5.00971e-21)
(0.902787 0.348912 -5.37351e-22)
(0.945612 0.397657 -2.52922e-20)
(0.971974 0.398514 1.7292e-20)
(0.979566 0.356434 -1.11477e-20)
(0.967815 0.278188 4.51197e-20)
(0.942877 0.176977 -5.6773e-21)
(0.923527 0.0807105 -7.71926e-22)
(0.928584 0.019143 -1.53429e-22)
(0.954778 -0.0086302 -3.36271e-21)
(0.983627 -0.0193751 3.69626e-24)
(1.0062 -0.0241176 -2.44699e-22)
(1.02407 -0.0238618 -1.96036e-22)
(1.03687 -0.0207355 4.81476e-36)
(1.04563 -0.0160777 2.16344e-23)
(1.05082 -0.0110394 -2.84929e-23)
(1.05336 -0.00644485 -1.04463e-22)
(1.054 -0.00266957 1.45949e-21)
(1.05344 6.92107e-05 -1.77981e-22)
(1.05223 0.00184108 -2.08706e-21)
(1.05075 0.00275518 -1.24587e-27)
(1.04927 0.00299529 2.17179e-21)
(1.0479 0.00275528 3.11148e-23)
(1.04671 0.00214805 7.02749e-22)
(1.04568 0.0013896 6.57149e-24)
(1.04478 0.000425416 2.04968e-22)
(1.03905 -0.119594 2.92341e-21)
(0.975748 -0.231058 8.73626e-22)
(0.897711 -0.296282 5.71624e-21)
(0.825926 -0.369316 9.54138e-21)
(0.769557 -0.415462 2.09702e-21)
(0.733768 -0.429331 1.1249e-20)
(0.706302 -0.426357 1.97155e-20)
(0.693173 -0.384895 3.00639e-20)
(0.694488 -0.305178 9.80289e-22)
(0.707893 -0.195715 3.21041e-20)
(0.734504 -0.0600928 3.82723e-20)
(0.772037 0.0896395 2.61584e-21)
(0.813371 0.23392 9.4311e-21)
(0.849364 0.353789 2.06837e-21)
(0.885871 0.422274 2.19319e-20)
(0.919926 0.431332 -3.32245e-20)
(0.938531 0.397051 -3.50358e-20)
(0.939718 0.324074 -6.17024e-21)
(0.925325 0.221527 1.17887e-21)
(0.90692 0.111359 7.24563e-22)
(0.905803 0.027134 8.77553e-36)
(0.929108 -0.0148789 8.93008e-22)
(0.963327 -0.0298309 1.0751e-21)
(0.993204 -0.0343885 1.55852e-21)
(1.01572 -0.0338679 -1.23104e-21)
(1.03278 -0.0295166 9.59139e-22)
(1.04429 -0.0231978 -5.15564e-22)
(1.0514 -0.0163706 1.74831e-22)
(1.05494 -0.0100007 -9.15097e-22)
(1.05597 -0.00477 6.2457e-24)
(1.05537 -0.000843742 -5.5861e-22)
(1.05389 0.00174193 -1.21699e-22)
(1.05205 0.00320441 1.54687e-23)
(1.05018 0.00376343 2.1866e-21)
(1.04848 0.00366377 0)
(1.04702 0.00314443 -2.82976e-22)
(1.04581 0.0023261 -1.84854e-21)
(1.04479 0.00144092 1.81668e-22)
(1.04392 0.000421364 1.98824e-22)
(1.10726 -0.133369 -5.19098e-22)
(1.05071 -0.236068 -1.25459e-20)
(0.973923 -0.296029 -1.51837e-20)
(0.896304 -0.364294 2.75451e-25)
(0.820278 -0.410765 1.08062e-20)
(0.764851 -0.426642 1.39881e-20)
(0.729067 -0.422789 -1.66136e-20)
(0.703934 -0.383385 5.93297e-20)
(0.694565 -0.305558 -3.5595e-20)
(0.696767 -0.198394 1.84684e-20)
(0.712519 -0.0660152 -1.14287e-21)
(0.740136 0.0813453 7.96974e-21)
(0.77547 0.227248 6.48271e-21)
(0.810774 0.350869 -2.88677e-21)
(0.836975 0.434336 6.84056e-23)
(0.865739 0.457983 -1.26535e-20)
(0.892439 0.432072 7.38811e-20)
(0.903539 0.365848 4.84789e-21)
(0.899956 0.265204 2.22062e-21)
(0.887546 0.146544 -1.82983e-20)
(0.882989 0.0420646 4.41166e-21)
(0.902371 -0.0196518 0)
(0.93885 -0.043003 1.62078e-21)
(0.975991 -0.0481478 -3.49979e-21)
(1.00547 -0.0468371 1.98483e-22)
(1.02717 -0.0410836 -1.03707e-22)
(1.04257 -0.0327605 1.01621e-22)
(1.05209 -0.0235729 -6.88809e-36)
(1.05704 -0.0149876 -4.17989e-22)
(1.05861 -0.0077407 3.3112e-22)
(1.05798 -0.00229275 1.8305e-21)
(1.05615 0.00143568 -3.05255e-21)
(1.05381 0.00361448 -3.02603e-23)
(1.05144 0.0045982 2.2075e-21)
(1.04929 0.00470606 0)
(1.04749 0.00422599 -2.23294e-22)
(1.04602 0.0034231 -1.42405e-23)
(1.04485 0.00241454 1.13167e-21)
(1.04388 0.00143392 2.47246e-22)
(1.04308 0.000400008 1.3054e-28)
(1.16163 -0.139373 2.83219e-22)
(1.11377 -0.233205 -2.59066e-21)
(1.04385 -0.289527 9.92794e-21)
(0.966605 -0.353458 -1.68184e-20)
(0.885136 -0.399554 -4.62341e-20)
(0.811225 -0.420052 -1.00515e-20)
(0.756716 -0.415758 -1.82663e-20)
(0.721707 -0.377731 -1.55166e-20)
(0.700972 -0.302452 -9.60728e-21)
(0.694147 -0.197564 -1.15427e-19)
(0.698773 -0.0685071 4.03663e-20)
(0.716466 0.076124 -7.30176e-20)
(0.743789 0.22071 -1.63084e-20)
(0.775707 0.348081 -1.69977e-20)
(0.803721 0.437106 -5.34824e-22)
(0.822305 0.471801 3.25121e-20)
(0.845213 0.45914 -3.33971e-20)
(0.863092 0.402278 -1.76006e-20)
(0.868069 0.30587 1.17598e-20)
(0.863144 0.183708 2.47926e-21)
(0.859518 0.0623787 -5.04708e-25)
(0.874665 -0.0213496 2.4062e-24)
(0.91196 -0.0576765 9.37934e-22)
(0.954774 -0.065814 3.30824e-21)
(0.991883 -0.0635028 1.80345e-22)
(1.02013 -0.0562166 5.01876e-27)
(1.04008 -0.0453606 2.65278e-22)
(1.05294 -0.0333386 1.7436e-22)
(1.05976 -0.0217666 3.19523e-23)
(1.06211 -0.0119778 -1.14266e-21)
(1.0615 -0.00440315 1.4227e-21)
(1.05921 0.000802284 -5.16298e-22)
(1.05622 0.0039877 3.25454e-35)
(1.05317 0.00553032 -2.19468e-21)
(1.05043 0.00590289 -6.11385e-23)
(1.04814 0.00550068 -2.28641e-22)
(1.04633 0.00463104 8.11044e-28)
(1.04493 0.00356407 2.66459e-22)
(1.04387 0.00240272 -1.09528e-21)
(1.043 0.00136685 -9.30702e-23)
(1.0423 0.000362405 -1.84603e-22)
(1.19779 -0.138698 -2.99493e-21)
(1.15976 -0.223621 -2.56678e-22)
(1.1012 -0.275851 -2.37991e-21)
(1.03017 -0.336166 1.00186e-34)
(0.949262 -0.381513 4.12773e-20)
(0.869878 -0.405164 1.99162e-20)
(0.798131 -0.402464 3.0129e-22)
(0.744375 -0.367544 1.19535e-20)
(0.714008 -0.295813 3.77986e-20)
(0.697626 -0.193241 -9.00413e-20)
(0.693758 -0.0675946 3.14504e-20)
(0.70121 0.0733257 -1.44464e-19)
(0.719962 0.216029 -3.43875e-20)
(0.746202 0.343417 -7.8016e-21)
(0.773463 0.438231 9.06027e-21)
(0.794117 0.478945 -2.31763e-20)
(0.807823 0.476649 4.53966e-20)
(0.822275 0.430577 2.85399e-20)
(0.832294 0.342138 2.36786e-20)
(0.834532 0.219441 -3.5868e-20)
(0.833677 0.0877038 -1.00447e-20)
(0.84616 -0.0191415 5.85072e-21)
(0.881926 -0.0728648 5.96547e-21)
(0.930036 -0.087734 -7.90132e-22)
(0.97487 -0.0848444 -5.48109e-21)
(1.01063 -0.0755049 -1.80612e-22)