/*--------------------------------*- C++ -*----------------------------------*\
| =========                 |                                                 |
| \\      /  F ield         | OpenFOAM: The Open Source CFD Toolbox           |
|  \\    /   O peration     | Version:  2506                                  |
|   \\  /    A nd           | Website:  www.openfoam.com                      |
|    \\/     M anipulation  |                                                 |
\*---------------------------------------------------------------------------*/
FoamFile
{
    version     2.0;
    format      ascii;
    arch        "LSB;label=32;scalar=64";
    class       volVectorField;
    location    "109.96836736776783";
    object      vorticity;
}
// * * * * * * * * * * * * * * * * * * * * * * * * * * * * * * * * * * * * * //

dimensions      [0 0 -1 0 0 0 0];

internalField   nonuniform List<vector> 
9700
(
(1.07556e-20 -6.52436e-22 0.000126853)
(1.65411e-20 3.81757e-22 0.000239676)
(4.5629e-24 -1.94997e-21 9.55832e-05)
(1.57046e-21 -3.58003e-21 0.000104082)
(-1.00033e-20 -1.70148e-21 0.000363587)
(9.31469e-21 -1.04875e-20 -1.14727e-05)
(-1.58668e-20 -3.09167e-21 -0.000677951)
(-7.48695e-24 -5.89415e-21 0.000557369)
(1.88393e-20 -9.74349e-21 1.83567e-05)
(5.96391e-24 1.92102e-21 8.11986e-07)
(-1.35353e-20 1.62821e-21 -0.0013802)
(9.09913e-21 1.04696e-21 0.000798722)
(7.95191e-21 -7.35632e-20 1.37647e-05)
(-6.85915e-20 1.99654e-22 8.29693e-05)
(8.85346e-21 1.12064e-20 -2.55773e-05)
(6.90083e-21 1.03145e-20 -0.001935)
(2.83176e-24 -1.96226e-21 0.00108077)
(-1.52077e-20 -1.09832e-20 -1.12835e-05)
(-3.89845e-23 1.41594e-20 0.000115638)
(6.49061e-21 1.08949e-20 3.16808e-05)
(4.40276e-24 -1.88473e-21 -2.39306e-05)
(7.97601e-20 6.84739e-20 -0.00266142)
(-1.63575e-22 -1.94807e-21 0.00143166)
(-5.39222e-21 -1.00023e-20 -3.9038e-05)
(6.05128e-20 6.23741e-21 0.000163411)
(3.68949e-22 7.69881e-20 6.15261e-05)
(-9.34769e-21 -1.56553e-21 4.37169e-05)
(8.99617e-21 -1.96199e-20 -2.67324e-05)
(-1.6076e-20 -6.27756e-21 -0.00364392)
(5.50659e-20 5.16922e-20 0.001871)
(9.2799e-21 -3.88384e-21 -8.34778e-05)
(3.00391e-23 1.92098e-21 0.000192221)
(-5.0011e-21 9.88427e-21 9.85312e-05)
(-5.41171e-24 -6.98939e-21 5.37013e-05)
(1.10516e-20 -2.12265e-20 1.72513e-05)
(-1.17778e-21 -1.00895e-19 -2.76075e-05)
(-4.14054e-20 -1.06695e-19 -0.00498524)
(2.33333e-20 -3.22204e-20 0.00229016)
(4.51458e-20 2.10987e-20 -0.00016213)
(7.49267e-38 1.90775e-21 0.00020968)
(-6.84456e-21 8.79164e-21 0.000110127)
(8.38281e-21 -2.83242e-21 8.90836e-05)
(1.17694e-23 -1.22687e-21 3.20794e-05)
(-1.38474e-20 -1.14437e-19 2.36747e-05)
(-3.39211e-21 1.55536e-20 -2.38157e-05)
(4.85855e-21 -2.82495e-22 -0.0109279)
(-3.53321e-21 -1.01749e-19 0.00241007)
(5.22238e-20 -1.79921e-20 -0.00029081)
(-2.29347e-23 1.83682e-21 0.000230346)
(6.21366e-21 6.20576e-21 0.000105134)
(1.00433e-24 -1.89266e-21 9.86502e-05)
(-1.24182e-20 -1.76191e-20 9.31238e-05)
(-1.84519e-21 -1.41414e-20 6.18846e-05)
(8.82424e-20 2.30753e-20 2.76471e-05)
(1.20596e-20 1.10402e-19 -1.37957e-05)
(-1.23109e-21 -8.79679e-21 -0.0184681)
(-3.97764e-21 2.18587e-20 0.00307188)
(-2.56597e-20 -4.43474e-20 -0.000468308)
(2.49113e-21 2.54111e-20 0.000270786)
(1.94983e-20 -1.49654e-21 7.94685e-05)
(2.31261e-23 -1.89554e-21 9.35175e-05)
(-1.07479e-20 -1.56195e-20 8.62319e-05)
(-1.60064e-20 -1.0858e-19 8.08236e-05)
(2.2453e-21 1.75775e-20 6.86439e-05)
(2.91744e-20 1.13e-19 1.42209e-05)
(4.15258e-35 -6.79565e-21 -1.36163e-05)
(-6.54082e-21 3.08912e-20 -0.0214135)
(-9.62898e-21 1.49597e-20 0.00500901)
(-7.28583e-20 -6.7157e-20 -0.000759433)
(-2.29283e-20 1.51396e-20 0.000292831)
(1.64932e-20 1.26215e-20 6.1545e-05)
(4.30586e-20 -3.08435e-20 9.88158e-05)
(3.2711e-21 -2.00614e-20 9.69011e-05)
(-3.07253e-20 -9.32581e-20 9.45426e-05)
(-8.61505e-20 4.9438e-20 0.000107945)
(-6.28782e-23 -1.22198e-21 9.08031e-05)
(-9.00037e-37 -7.07439e-21 3.25558e-05)
(1.09804e-20 1.39917e-20 6.22862e-06)
(-9.99808e-20 -5.37122e-20 -0.0211576)
(-9.61284e-20 1.37079e-19 0.00639561)
(2.33292e-20 1.14451e-20 -0.00116032)
(2.03745e-20 -2.37511e-20 0.00025866)
(2.76109e-20 1.91217e-20 1.77059e-05)
(-2.04075e-21 -1.648e-20 8.43216e-05)
(4.39262e-20 -5.08208e-20 0.000108973)
(-4.26169e-20 -8.58852e-20 0.000104097)
(7.66922e-22 1.63381e-20 0.000123749)
(1.27825e-22 1.18819e-19 0.000151283)
(2.7274e-34 1.23466e-24 0.000131201)
(1.68855e-20 1.3628e-20 5.4535e-05)
(1.61501e-23 -1.75121e-21 2.63754e-05)
(2.04076e-20 -5.35814e-20 -0.0218044)
(1.62677e-21 -1.9382e-20 0.00829779)
(6.45929e-21 3.90512e-20 -0.00164003)
(1.2127e-19 -3.5465e-20 0.000237204)
(-2.65591e-20 7.97168e-20 -6.96677e-05)
(1.7715e-20 5.61354e-20 4.03318e-05)
(-8.3296e-20 -4.69626e-20 5.87471e-05)
(-7.0656e-20 -8.37221e-20 0.000102037)
(-8.86091e-22 1.65205e-20 0.000137205)
(2.17704e-20 1.21753e-19 0.000162549)
(-4.43118e-35 -7.19059e-21 0.000169184)
(4.46965e-23 9.88749e-24 0.000157949)
(-1.21944e-20 -1.51902e-21 6.91872e-05)
(1.10075e-20 -1.52923e-20 4.18174e-05)
(1.27498e-19 -5.78352e-19 -0.0271532)
(2.17e-19 -2.4951e-19 0.0105719)
(3.16323e-19 5.32264e-19 -0.00228476)
(1.72005e-19 -4.45484e-20 0.00024995)
(6.07191e-22 -1.67488e-20 -0.000172379)
(-6.13214e-21 7.51364e-21 -5.75522e-05)
(-1.15466e-19 3.7132e-20 3.8226e-06)
(-1.24938e-19 3.86725e-20 9.41009e-05)
(8.34922e-20 -3.0521e-20 0.000131152)
(6.03244e-20 1.15408e-19 0.000178635)
(-8.89277e-35 -7.26335e-21 0.000196579)
(-1.5837e-20 1.7404e-20 0.000196904)
(-5.86614e-23 -6.41637e-21 0.000175285)
(2.11742e-20 -1.66212e-20 8.37559e-05)
(9.49922e-22 -1.73038e-20 4.65522e-05)
(-3.54394e-19 -5.69085e-20 -0.0353978)
(1.1167e-19 -1.32587e-19 0.012359)
(6.51098e-20 2.44447e-20 -0.00371089)
(-1.05448e-21 2.24461e-20 5.35568e-06)
(-2.78189e-20 -3.27628e-20 -0.000320493)
(-1.2608e-20 -1.20675e-20 -0.000121928)
(1.2069e-19 -3.51367e-20 -6.30976e-05)
(-1.27559e-19 -1.35458e-19 4.44385e-05)
(5.7178e-20 1.07677e-19 0.000101089)
(1.64561e-19 7.05956e-20 0.000180372)
(-8.67089e-36 -7.30031e-21 0.000219824)
(-1.11308e-20 1.8602e-20 0.000256659)
(1.32536e-20 -2.70618e-21 0.000252086)
(2.8472e-21 -1.12589e-19 0.000201478)
(-8.67178e-20 -3.4539e-20 0.000101302)
(-5.24859e-22 2.11763e-21 6.57269e-05)
(-2.77165e-19 9.43942e-19 -0.0446027)
(2.84699e-20 1.31429e-20 0.0138988)
(5.33967e-19 -2.84162e-19 -0.00672434)
(-3.70011e-19 1.12611e-19 -0.00141058)
(8.45662e-20 -6.35565e-19 -0.00110451)
(-1.32646e-19 -8.40229e-20 -0.000386375)
(-1.03024e-20 8.83379e-21 -0.000134932)
(-1.92822e-20 -1.5891e-19 -2.19451e-06)
(1.53038e-19 9.64082e-20 9.35842e-05)
(-6.68341e-21 2.58131e-21 0.000172437)
(1.20302e-22 -7.17529e-21 0.000252141)
(1.80571e-20 1.39649e-20 0.000286742)
(3.52535e-23 -1.85713e-21 0.000324096)
(-2.20268e-20 -1.76169e-20 0.000290323)
(8.97739e-22 -5.89418e-21 0.000247813)
(7.35123e-21 1.80944e-20 0.000122806)
(8.84451e-21 1.57257e-20 6.17158e-05)
(-4.77889e-19 -3.70663e-19 -0.0573579)
(-6.8589e-19 8.83753e-19 0.0161604)
(-1.59044e-19 -6.16082e-20 -0.0103027)
(7.24709e-22 3.22636e-21 -0.0042075)
(6.83076e-20 -6.15302e-20 -0.00348061)
(-1.17174e-21 -1.53591e-20 -0.00173082)
(-4.1159e-20 -1.07311e-20 -0.00073655)
(-2.05314e-19 2.21379e-19 -0.000151311)
(-1.37943e-19 -8.97414e-20 8.84238e-05)
(-4.47541e-20 1.09651e-19 0.000137708)
(-1.31672e-19 9.01615e-20 0.000255643)
(1.14015e-19 -1.77379e-20 0.000318819)
(-6.17864e-22 -1.83279e-21 0.00036747)
(-1.43253e-20 -1.8427e-20 0.000381835)
(1.01462e-19 -2.82781e-20 0.000327024)
(-1.65883e-20 1.1936e-19 0.000274922)
(1.83067e-20 1.53387e-20 0.000148916)
(1.36816e-21 -1.60682e-20 7.63364e-05)
(1.13967e-18 4.74988e-19 -0.086045)
(1.38974e-18 -1.92947e-18 0.0233156)
(-7.6784e-19 8.38263e-19 -0.0146706)
(1.52637e-32 -1.29614e-21 -0.00652951)
(6.28747e-19 -1.04666e-19 -0.00629338)
(2.98415e-19 1.16442e-19 -0.00442013)
(-2.71736e-19 2.25589e-19 -0.00276831)
(-3.68936e-19 9.92498e-20 -0.00125379)
(-4.49431e-20 2.40559e-19 -0.000191721)
(1.88784e-19 1.35055e-19 0.000166511)
(1.40324e-19 -1.01635e-19 0.000247241)
(6.72736e-20 2.45167e-19 0.000339683)
(1.74332e-19 -3.39672e-20 0.000392892)
(1.56545e-20 -2.11357e-20 0.000441591)
(2.30298e-21 -2.16128e-20 0.000420372)
(-1.29122e-20 1.54275e-20 0.00037214)
(1.96909e-20 -1.07058e-19 0.000313979)
(-6.84212e-20 -3.84842e-20 0.000158143)
(-3.27825e-23 1.8842e-21 8.95274e-05)
(1.55243e-20 -1.38109e-18 -0.137146)
(9.47144e-19 -1.47292e-18 0.0362844)
(9.48057e-19 9.66811e-19 -0.0207782)
(-2.28986e-33 -4.9239e-21 -0.00959848)
(-1.06201e-19 1.7456e-19 -0.00787703)
(1.69955e-19 5.95719e-20 -0.00538741)
(-1.95945e-20 7.9513e-20 -0.00471237)
(-6.93994e-20 3.02668e-20 -0.00376042)
(6.00429e-20 -2.64016e-19 -0.00195173)
(2.78515e-19 1.43766e-19 -0.000245252)
(1.62255e-19 -1.76109e-19 0.00027803)
(-6.2387e-22 2.79341e-19 0.00033195)
(-1.89158e-20 -1.71009e-20 0.00040517)
(1.43746e-19 -3.20835e-20 0.000488314)
(4.01415e-21 -2.44591e-20 0.000513801)
(6.73143e-22 2.08479e-21 0.000469915)
(-2.67726e-20 1.32268e-20 0.000411699)
(3.41627e-21 -1.01078e-20 0.000328275)
(1.14381e-20 5.42256e-21 0.000179576)
(-1.10011e-21 1.15778e-20 8.23008e-05)
(-3.20686e-18 -4.7679e-19 -0.0726278)
(-2.96925e-18 5.56846e-18 0.0634783)
(-1.96539e-18 -2.21534e-18 -0.0305342)
(-5.45824e-33 -4.79982e-21 -0.0183155)
(-1.22143e-18 5.52357e-20 -0.0139509)
(6.00551e-21 -8.75825e-22 -0.00556714)
(4.85302e-19 5.24927e-19 -0.0020721)
(-6.88071e-19 3.17529e-19 -0.003376)
(5.53313e-20 2.37274e-22 -0.00445438)
(4.18266e-19 1.09847e-19 -0.00269044)
(-1.80677e-19 2.00643e-19 -0.000348484)
(-1.40655e-19 -2.45158e-19 0.000393188)
(-2.60389e-19 7.12105e-20 0.000446543)
(-3.77503e-20 -2.88025e-19 0.000509435)
(1.14031e-20 -5.00274e-20 0.000587091)
(-9.93733e-22 2.38536e-21 0.000577626)
(-2.00896e-20 1.55183e-20 0.000537106)
(9.06643e-20 -5.18256e-21 0.000436531)
(1.63346e-22 1.90259e-21 0.000334498)
(-6.12653e-20 7.96702e-21 0.000199448)
(5.43814e-21 -8.2353e-21 8.39961e-05)
(6.44447e-19 1.89646e-18 -0.00424741)
(-9.33793e-20 5.92868e-19 0.109988)
(8.67566e-19 -1.86358e-18 -0.039467)
(4.19355e-34 2.6763e-20 -0.0352188)
(-9.52523e-20 -1.60958e-18 -0.0352153)
(-1.31233e-18 -8.35452e-20 -0.017644)
(1.36331e-20 -2.32606e-19 -0.00173662)
(-8.25435e-19 5.27601e-19 0.00427924)
(1.55978e-19 5.92589e-19 -0.000110397)
(1.8325e-20 4.63442e-21 -0.00462111)
(7.71783e-22 -7.86545e-21 -0.00330989)
(7.22911e-21 4.05598e-20 -0.00036891)
(2.80372e-20 8.03084e-21 0.00050246)
(-1.66816e-19 9.93459e-20 0.00054993)
(7.58046e-20 -1.70018e-19 0.000592433)
(1.0816e-20 3.15211e-20 0.000657095)
(4.24799e-21 2.65838e-20 0.000604218)
(8.55275e-21 -1.91033e-20 0.000565492)
(-1.22249e-20 -1.82489e-21 0.000470598)
(-6.20184e-21 1.39649e-20 0.000333491)
(6.28157e-21 -7.75954e-21 0.000209413)
(8.36762e-21 -7.41458e-20 7.79927e-05)
(-2.83914e-19 -5.56217e-19 0.00352767)
(8.90085e-19 -3.09327e-18 0.184756)
(3.1208e-18 2.36066e-18 -0.0393091)
(-2.4685e-33 1.57624e-20 -0.0540367)
(7.1876e-19 3.14036e-18 -0.0707066)
(2.60041e-18 -5.7807e-19 -0.0578914)
(-1.3733e-18 -2.00415e-19 -0.0254699)
(-1.67061e-19 1.3821e-19 0.00289181)
(7.90086e-21 2.18224e-20 0.0129222)
(7.41946e-19 2.22014e-19 0.00463704)
(-2.35061e-33 9.14446e-21 -0.00436969)
(6.4947e-20 1.81286e-20 -0.00366963)
(3.58048e-20 -1.63525e-20 -0.000287209)
(4.0669e-20 3.14627e-19 0.000598802)
(2.1447e-19 1.18644e-20 0.000630717)
(-2.36514e-20 1.99531e-19 0.000670967)
(1.10986e-19 7.08957e-20 0.000715588)
(1.22072e-20 -2.12872e-20 0.000671898)
(-1.14258e-22 1.91911e-21 0.000583787)
(4.39073e-20 5.41438e-20 0.00045555)
(-1.28161e-20 2.18157e-20 0.000335269)
(4.51496e-21 -8.74435e-20 0.000230382)
(-1.23733e-21 1.47699e-20 4.96661e-05)
(-3.9722e-19 -2.19807e-19 -0.0307929)
(3.76985e-20 -2.76837e-19 0.299386)
(-8.94933e-19 2.63935e-18 -0.0243606)
(-2.81377e-33 -6.9997e-20 -0.0680539)
(1.79973e-18 -1.20672e-18 -0.108941)
(1.87593e-18 -1.06772e-18 -0.117852)
(-6.05213e-19 1.54838e-18 -0.0911454)
(-1.4982e-18 1.49833e-18 -0.0378957)
(-1.1198e-18 5.3879e-19 0.00740548)
(1.06041e-18 1.12643e-18 0.0225988)
(-3.86053e-33 -7.88366e-21 0.00956977)
(3.54386e-19 3.95042e-19 -0.00405542)
(2.70835e-19 -1.00277e-19 -0.00367186)
(-9.23709e-21 -4.84796e-20 -7.91434e-05)
(-7.5385e-20 -7.24999e-20 0.000698905)
(3.73205e-20 -7.95556e-20 0.000724168)
(-1.80911e-20 -2.12334e-20 0.000769711)
(3.04967e-20 -4.22304e-20 0.000752796)
(-2.38241e-22 1.93772e-21 0.000690715)
(-9.42569e-21 1.25412e-20 0.000591509)
(-6.03039e-21 -1.63234e-20 0.0004417)
(4.54845e-21 -2.86049e-21 0.000335868)
(4.082e-20 3.52995e-20 0.000194311)
(-6.05541e-21 4.39574e-20 5.01169e-05)
(-3.41917e-20 -3.99897e-20 -0.089947)
(3.48955e-20 -3.75407e-19 0.412501)
(8.38408e-19 -5.04729e-19 0.0206509)
(8.37154e-21 -1.85141e-20 -0.0703404)
(-1.28543e-18 -3.30437e-18 -0.141982)
(-5.70494e-18 4.88253e-18 -0.178712)
(1.79327e-18 -3.11248e-18 -0.178016)
(-2.96241e-19 2.48192e-19 -0.129808)
(-5.54954e-19 -1.05514e-18 -0.0527794)
(1.54334e-18 -3.33112e-19 0.0125764)
(-4.04382e-35 -8.27854e-21 0.0320712)
(1.06054e-20 1.48103e-19 0.0131848)
(-2.31736e-21 -3.06847e-20 -0.00399635)
(5.69895e-20 -6.89648e-20 -0.00327895)
(-3.3165e-19 -8.56972e-20 0.000229221)
(3.84609e-20 -2.65635e-19 0.000789483)
(-1.85402e-19 9.76243e-21 0.000809706)
(1.48663e-19 -1.18436e-19 0.000824393)
(1.52483e-20 1.66244e-20 0.000790554)
(-1.50082e-20 1.34943e-20 0.000690798)
(-6.39944e-21 -1.50216e-20 0.000561301)
(1.0587e-19 -5.6614e-20 0.000423427)
(-3.92332e-20 5.19517e-20 0.000317346)
(-9.99282e-22 4.9919e-20 0.000203794)
(-6.07109e-22 -3.83772e-21 3.81725e-05)
(-7.19794e-19 2.68141e-19 -0.134929)
(2.08696e-19 4.5568e-18 0.51653)
(-5.97559e-18 -1.85686e-18 0.0920439)
(-2.19761e-18 3.94323e-18 -0.049962)
(-2.00776e-18 2.36703e-18 -0.161408)
(-6.11327e-19 7.56418e-19 -0.23227)
(1.74265e-18 -1.61563e-18 -0.262775)
(-3.26031e-18 2.80567e-18 -0.239413)
(6.34868e-19 -2.0237e-20 -0.164852)
(1.87684e-18 -1.40483e-18 -0.0652779)
(5.59595e-33 -1.0464e-20 0.0209435)
(-4.98134e-19 1.21205e-18 0.0402437)
(-4.62116e-19 3.46755e-19 0.0143499)
(-2.2993e-19 -1.11219e-18 -0.00427974)
(-3.69316e-19 -1.85851e-19 -0.00251184)
(-5.90189e-20 -1.06618e-20 0.000522409)
(-1.56922e-19 2.89422e-19 0.00086491)
(1.62182e-19 1.22834e-19 0.000893768)
(1.77849e-20 2.87284e-20 0.000866498)
(-3.78963e-20 2.65009e-20 0.00079271)
(4.62663e-21 -3.13188e-23 0.000683703)
(1.01786e-19 -6.30719e-20 0.000557476)
(-3.20777e-20 -3.5519e-20 0.000409436)
(-2.08711e-20 2.66407e-21 0.000270899)
(2.12011e-20 1.80588e-21 0.000200804)
(2.17173e-22 -1.38799e-21 3.52303e-05)
(-4.14741e-20 3.50553e-19 -0.15439)
(9.8794e-21 1.63111e-18 0.605941)
(-6.03812e-20 -1.9242e-20 0.184521)
(-7.44558e-22 1.30004e-19 -0.00628915)
(1.62898e-19 -1.08648e-18 -0.164098)
(2.5269e-18 -3.50278e-18 -0.27006)
(-2.2884e-18 3.50277e-18 -0.340017)
(-3.78322e-18 2.91155e-18 -0.345388)
(1.4055e-18 -7.87754e-19 -0.288493)
(1.32589e-19 5.30902e-21 -0.196002)
(-1.1115e-32 -1.91068e-21 -0.0589486)
(-8.56332e-20 -3.03808e-19 0.0340282)
(-2.31934e-19 2.60233e-19 0.0463248)
(-1.29292e-19 -7.61905e-20 0.0126865)
(5.47219e-21 -6.99178e-20 -0.00454603)
(1.96215e-20 8.28346e-20 -0.00156182)
(-3.61741e-20 4.50708e-20 0.000746238)
(-2.35927e-20 -9.62255e-20 0.000908994)
(7.06027e-22 2.89261e-22 0.000936064)
(-1.13946e-19 1.16224e-19 0.000886269)
(5.22385e-20 7.07993e-20 0.000786771)
(1.39529e-19 -5.60802e-20 0.000662138)
(-1.04508e-21 1.46929e-20 0.000498974)
(-7.25791e-20 2.77655e-21 0.000374628)
(4.48527e-20 -3.38352e-20 0.000242995)
(-1.56345e-20 -9.16466e-21 0.00017851)
(3.82678e-23 -1.70948e-21 1.21983e-05)
(1.76608e-20 -1.12808e-19 -0.134805)
(9.52263e-18 -2.97739e-18 0.668999)
(8.52876e-19 -3.723e-18 0.278219)
(-1.00971e-18 1.99415e-18 0.0587301)
(2.44128e-18 2.48306e-18 -0.14283)
(2.40477e-19 -3.22315e-19 -0.289215)
(-2.06517e-18 3.06666e-18 -0.399986)
(-4.3601e-18 2.99656e-18 -0.445993)
(1.50193e-18 -1.34568e-18 -0.411704)
(5.11117e-18 -8.91559e-19 -0.306945)
(-1.949e-34 1.56467e-20 -0.215575)
(9.55717e-19 -1.16603e-18 -0.0299539)
(2.29658e-20 6.19393e-21 0.0508691)
(-1.04916e-18 5.76794e-19 0.0488175)
(6.62874e-19 -2.80186e-19 0.00863598)
(-2.03886e-19 6.15529e-19 -0.00434584)
(1.21329e-20 8.86887e-20 -0.000606575)
(-1.98637e-19 -2.62308e-19 0.000916899)
(-2.31778e-20 -2.79403e-20 0.000945751)
(9.6137e-20 1.56245e-19 0.000972477)
(2.40767e-19 -1.15191e-19 0.000879356)
(1.5228e-19 -1.85775e-19 0.000744211)
(-2.16159e-21 1.43737e-20 0.000621676)
(-7.93561e-20 1.18511e-20 0.000464493)
(-1.86946e-20 -2.29513e-20 0.00032956)
(-1.07649e-21 1.35498e-20 0.000191842)
(2.88936e-21 1.11726e-21 0.000157184)
(-2.49786e-22 -5.27974e-21 -1.56107e-05)
(8.14624e-20 -2.90498e-19 -0.0656257)
(-3.18426e-18 -2.37715e-18 0.721866)
(1.08721e-17 2.08896e-18 0.359466)
(8.96614e-18 -4.03383e-18 0.134371)
(4.7311e-18 -8.6965e-18 -0.101342)
(2.57982e-19 -6.92518e-19 -0.283736)
(3.27915e-19 -4.94758e-19 -0.438772)
(-3.72961e-18 2.36599e-18 -0.529848)
(-3.93721e-18 1.96885e-18 -0.533102)
(6.25713e-18 -2.28574e-18 -0.449289)
(3.43591e-34 -2.92473e-20 -0.28906)
(2.09532e-18 7.06709e-19 -0.15191)
(1.15506e-18 -1.19014e-18 7.82675e-05)
(2.55164e-19 1.55575e-19 0.0688681)
(-2.15216e-20 -2.00741e-19 0.0459653)
(-1.05091e-19 8.10146e-20 0.00360182)
(2.96282e-19 -4.74522e-19 -0.0034641)
(-1.69247e-19 -3.5754e-19 0.000170897)
(-2.92281e-20 -3.77227e-20 0.000993613)
(-6.75055e-20 -5.06514e-20 0.000993189)
(2.59394e-20 -1.39076e-19 0.000974082)
(1.27159e-19 -3.22772e-21 0.000844397)
(-3.60162e-21 1.40919e-19 0.000717762)
(-1.05059e-19 -7.13354e-21 0.000558258)
(-6.78072e-21 -7.71336e-21 0.000407298)
(-2.13492e-21 1.97887e-20 0.000270624)
(-5.08252e-21 -3.6217e-22 0.000174612)
(-5.61878e-22 -4.19216e-21 0.000112035)
(-8.98697e-22 -1.62375e-20 -4.44504e-05)
(-1.66918e-19 -5.01831e-19 0.043109)
(-2.19251e-18 1.54932e-19 0.772542)
(-2.283e-18 2.03245e-18 0.434361)
(1.55271e-18 -2.92621e-18 0.208022)
(3.9726e-18 -6.23814e-20 -0.04644)
(1.08969e-18 -1.76648e-18 -0.257668)
(2.93952e-18 -3.48318e-18 -0.446714)
(-4.47507e-18 5.67668e-18 -0.591733)
(-1.99582e-18 4.8006e-18 -0.639776)
(1.1652e-17 -2.40415e-18 -0.58784)
(-1.15684e-34 1.89375e-20 -0.456695)
(-5.1657e-18 -2.202e-19 -0.280266)
(-2.10657e-18 1.0334e-18 -0.0999823)
(1.52065e-18 -1.28477e-18 0.038297)
(-1.32665e-19 3.06582e-18 0.0823521)
(1.0121e-18 -4.36428e-20 0.0372919)
(-1.49348e-19 6.06072e-20 -0.000691446)
(6.69564e-20 -5.9688e-20 -0.00207414)
(2.56097e-20 4.38459e-20 0.000662592)
(-1.66356e-19 -2.5344e-19 0.0010313)
(2.34757e-19 -5.03114e-20 0.000980842)
(1.86789e-19 2.4405e-19 0.000930262)
(-1.89926e-19 5.64998e-20 0.000775611)
(-1.31809e-19 -4.37568e-20 0.000648517)
(-1.00374e-20 -9.96566e-21 0.000465324)
(7.50941e-22 -1.29663e-21 0.000364255)
(9.54458e-21 -3.90821e-21 0.000225099)
(-5.11798e-22 -2.89727e-21 0.000156899)
(-1.15312e-20 -1.39668e-20 8.84342e-05)
(-2.03742e-22 1.16994e-20 -5.94946e-05)
(-7.16661e-19 3.39134e-20 0.105901)
(-4.86435e-18 -3.60721e-19 0.823486)
(-1.54093e-18 -1.10454e-19 0.502725)
(3.78367e-18 2.94525e-18 0.284165)
(-4.43722e-18 1.83003e-18 0.0115209)
(-8.73122e-19 -1.17952e-18 -0.216718)
(-5.45108e-20 -4.73939e-20 -0.433245)
(4.37825e-18 -2.01229e-18 -0.617153)
(-2.54071e-18 6.21518e-18 -0.722969)
(4.89433e-18 1.64212e-18 -0.71278)
(1.32791e-31 9.50114e-20 -0.602437)
(-1.16925e-18 -1.22193e-18 -0.444071)
(-9.99209e-19 -3.84215e-20 -0.23717)
(-1.3814e-18 -1.68814e-18 -0.0432572)
(-5.2035e-21 -5.84772e-19 0.079882)
(5.15238e-19 -1.58889e-18 0.0854203)
(-9.19176e-19 -1.43656e-19 0.0247158)
(5.58929e-19 3.22351e-19 -0.0029216)
(9.94615e-22 2.49954e-21 -0.000625216)
(-2.39517e-19 -2.75911e-19 0.000860487)
(-6.32296e-21 -1.41384e-20 0.00101294)
(4.65107e-20 9.26611e-21 0.000964369)
(2.47886e-19 5.50534e-20 0.000858942)
(-1.24106e-19 -1.95762e-19 0.000703646)
(-6.16358e-20 6.40515e-20 0.00055062)
(1.48175e-22 -1.24244e-21 0.000423713)
(1.48662e-21 3.01781e-21 0.000287554)
(-5.26169e-21 -7.21004e-21 0.000201269)
(3.37766e-21 2.20196e-21 0.000128804)
(1.67595e-20 1.00788e-21 5.82958e-05)
(4.28059e-21 2.33652e-20 -4.66603e-05)
(-3.08124e-19 -1.38021e-18 0.249823)
(-4.75894e-18 6.5482e-19 0.876076)
(4.11202e-18 4.8138e-19 0.564792)
(6.99557e-19 -3.50288e-19 0.358051)
(-1.7508e-18 3.14835e-18 0.0754064)
(-7.37874e-19 2.96261e-19 -0.17078)
(1.63541e-18 -2.62784e-18 -0.400557)
(2.13148e-18 -5.15289e-18 -0.626126)
(-9.74182e-18 4.4046e-18 -0.77167)
(3.18146e-18 -1.42252e-18 -0.811874)
(7.05923e-20 3.04233e-20 -0.737567)
(7.44423e-18 6.9757e-19 -0.574244)
(3.29923e-18 2.85307e-18 -0.37631)
(2.68981e-18 3.05026e-18 -0.15449)
(2.22035e-19 1.79432e-18 0.0275649)
(-1.00553e-19 2.82923e-19 0.112756)
(9.73802e-19 -1.23257e-18 0.0752936)
(1.09257e-19 -1.07805e-19 0.0119894)
(-4.03888e-20 -6.78072e-20 -0.00297589)
(-9.9136e-20 3.18584e-20 0.00036748)
(2.85174e-22 3.93542e-20 0.000926523)
(5.09644e-19 5.43527e-21 0.000976394)
(-2.8281e-19 -1.94111e-19 0.000893336)
(-2.34427e-19 1.38668e-19 0.000772974)
(-1.38925e-20 -1.70674e-20 0.000620446)
(7.29667e-21 -6.85198e-21 0.000458462)
(1.18319e-21 5.78377e-21 0.000339777)
(6.10465e-22 -5.12027e-21 0.000230358)
(-8.90811e-21 5.98533e-21 0.000137462)
(-7.8046e-21 -4.27885e-21 7.96364e-05)
(9.00458e-21 2.567e-20 6.3116e-05)
(-4.69707e-21 -4.37264e-20 -3.75206e-05)
(-5.06142e-19 -1.47169e-18 0.353716)
(-8.62017e-18 -1.22022e-18 0.926002)
(-1.02421e-18 -5.03595e-19 0.62231)
(1.04517e-17 1.45534e-18 0.425609)
(3.4073e-18 -5.61193e-19 0.137943)
(1.78593e-18 -3.26306e-18 -0.118553)
(2.52844e-19 -1.12843e-18 -0.35484)
(-7.66749e-19 8.3584e-20 -0.600205)
(2.06528e-18 -5.75326e-18 -0.815368)
(3.33072e-18 -1.07726e-18 -0.889144)
(-7.58363e-19 4.61156e-18 -0.847477)
(1.01273e-18 2.61804e-18 -0.709834)
(4.12453e-20 3.26479e-19 -0.505132)
(-8.90394e-19 -2.90244e-19 -0.278457)
(1.36397e-19 3.38301e-19 -0.0600405)
(5.8369e-19 1.42433e-19 0.0957106)
(1.55029e-18 1.23799e-19 0.126446)
(-2.08548e-18 1.96477e-18 0.0545512)
(3.73942e-19 7.50258e-19 0.00283075)
(-7.61778e-20 6.13494e-19 -0.00174177)
(-5.13749e-19 3.07539e-20 0.000865607)
(6.92749e-19 1.01313e-19 0.00088545)
(1.25094e-19 -3.53828e-19 0.00091033)
(-4.11628e-19 3.19055e-20 0.000809953)
(-1.51002e-19 -1.50394e-19 0.000672424)
(1.09984e-20 -6.71988e-21 0.000520568)
(-7.32107e-20 2.63777e-20 0.000377333)
(-4.4687e-22 -4.82414e-21 0.000246866)
(-2.39253e-20 2.46995e-20 0.000153763)
(-7.30506e-21 3.76104e-20 0.000111159)
(1.4255e-20 1.73439e-20 6.50354e-05)
(-6.02521e-21 -5.13777e-20 4.76587e-05)
(-9.36389e-22 1.11508e-20 -2.26811e-05)
(-3.26003e-18 -2.14374e-18 0.462229)
(-9.65894e-19 -6.79946e-18 0.973508)
(-3.50982e-18 2.6698e-19 0.674368)
(4.75006e-18 2.17726e-19 0.483628)
(1.11077e-18 9.90653e-20 0.190679)
(8.14391e-20 6.7635e-20 -0.0609879)
(-6.07366e-19 1.42056e-18 -0.287711)
(1.747e-18 -1.54647e-19 -0.558333)
(-3.60964e-18 1.39689e-18 -0.789327)
(1.22026e-18 -4.21882e-18 -0.96092)
(-7.05819e-20 -1.63074e-20 -0.947594)
(9.67703e-19 -7.31392e-19 -0.825549)
(-1.17527e-18 -3.13959e-18 -0.631994)
(-4.39438e-18 -2.48528e-18 -0.401039)
(-2.84205e-19 -3.82163e-19 -0.165875)
(-1.92483e-18 -6.90016e-20 0.0383835)
(1.1171e-18 -2.14869e-18 0.146565)
(4.88385e-19 -4.69378e-19 0.116805)
(4.82664e-21 -3.73506e-20 0.030473)
(-1.3236e-19 1.8235e-20 -0.00125237)
(9.19376e-21 -8.72267e-20 -0.000397559)
(-2.07329e-20 -1.00043e-20 0.000935533)
(-2.15374e-19 5.25501e-19 0.000868145)
(-1.66406e-19 -5.4359e-19 0.000799541)
(2.19368e-19 2.23614e-19 0.000702617)
(-3.98852e-22 -7.60482e-22 0.000560594)
(-2.5531e-21 -1.25198e-20 0.00042127)
(-4.06787e-21 -1.40266e-20 0.000278432)
(-4.04541e-20 4.39883e-20 0.000204649)
(-7.41257e-22 1.13476e-20 0.000134307)
(4.16635e-20 -7.40805e-22 7.61815e-05)
(9.95882e-21 8.77995e-21 6.11842e-05)
(4.02126e-20 -3.4279e-21 2.22968e-05)
(4.29678e-21 5.79684e-20 -2.06785e-05)
(1.22534e-18 -1.94798e-19 0.548222)
(-7.09429e-19 1.7792e-18 1.01023)
(-8.88902e-18 5.2791e-19 0.71657)
(9.57298e-18 -2.97163e-18 0.528471)
(3.81933e-19 6.8872e-20 0.226555)
(-9.4941e-19 -8.03446e-19 -0.000638754)
(-1.09144e-19 2.05961e-19 -0.229343)
(-6.38208e-20 -2.71866e-18 -0.511034)
(1.26448e-18 -2.014e-18 -0.748323)
(1.40488e-18 8.00611e-19 -0.927437)
(8.02528e-19 -5.46595e-18 -1.01074)
(-1.09909e-17 -5.64331e-19 -0.930829)
(-1.4001e-20 -3.71932e-19 -0.741825)
(8.57033e-19 1.96212e-18 -0.512143)
(3.79084e-18 5.52556e-18 -0.271346)
(3.1189e-18 1.31281e-18 -0.0427707)
(2.36149e-19 -4.57717e-19 0.12832)
(-1.66464e-18 1.65602e-18 0.168315)
(-3.80057e-22 6.91347e-21 0.0878765)
(2.21759e-18 -4.47926e-19 0.0111906)
(2.57408e-20 -8.09884e-19 -0.00162168)
(1.15019e-18 2.48806e-19 0.000409314)
(4.47827e-19 1.92818e-19 0.000813319)
(-3.13691e-19 -5.88386e-19 0.000766384)
(2.32319e-19 -2.52843e-19 0.000673236)
(-2.37763e-20 1.52943e-20 0.000547026)
(-3.27851e-20 -1.80393e-19 0.000444612)
(-1.09305e-19 3.36348e-20 0.000310529)
(-9.55582e-20 5.11472e-20 0.000233115)
(3.37975e-23 1.08909e-20 0.000129009)
(5.73631e-20 2.14635e-22 7.48511e-05)
(-5.37338e-20 -1.61473e-20 7.1051e-05)
(2.84826e-22 -3.78355e-21 3.51396e-05)
(5.23119e-20 5.30244e-20 1.43531e-05)
(2.51521e-23 -6.01007e-21 -3.13644e-05)
(1.20896e-18 2.72923e-18 0.67827)
(1.04647e-17 9.39405e-18 1.03136)
(6.58201e-18 2.5474e-18 0.741906)
(-9.79576e-19 -2.1967e-19 0.559929)
(6.60477e-19 -2.50196e-18 0.25156)
(2.35423e-19 3.41961e-19 0.05781)
(-6.11334e-19 1.56222e-19 -0.161956)
(-5.31844e-18 -7.58618e-19 -0.46134)
(6.97054e-18 -7.49471e-18 -0.701982)
(2.64369e-18 7.17333e-18 -0.898164)
(3.13028e-18 5.19811e-18 -0.996342)
(-4.80974e-20 5.46987e-19 -0.959023)
(-1.05064e-19 -3.39942e-19 -0.827646)
(-1.16592e-18 -9.59603e-19 -0.605426)
(-4.2835e-19 -4.97006e-19 -0.364274)
(-3.41063e-19 -2.77318e-18 -0.127591)
(-2.04394e-18 -5.42001e-19 0.0794553)
(-4.11106e-19 4.18776e-19 0.192576)
(4.27824e-19 1.45837e-19 0.156114)
(-5.05983e-19 1.46542e-19 0.0511049)
(-1.24175e-18 5.2003e-20 0.000920873)
(1.13737e-18 1.12705e-18 -0.000683152)
(4.09865e-19 -8.54539e-19 0.000618331)
(1.10465e-20 1.32691e-20 0.000639522)
(-7.04781e-20 -2.56166e-20 0.000627219)
(-3.0456e-20 1.53129e-20 0.000506955)
(-4.26662e-21 -2.64103e-20 0.000399918)
(3.25096e-21 -1.4802e-20 0.000311658)
(3.72084e-21 1.35941e-20 0.000210432)
(-5.26809e-20 -5.89386e-20 0.000146373)
(8.09387e-20 -1.3323e-20 9.1985e-05)
(-6.612e-20 -3.23482e-20 5.33105e-05)
(-4.10545e-20 5.21578e-20 7.3431e-05)
(-9.69254e-21 -2.09787e-20 3.8892e-05)
(-1.99733e-20 -1.95725e-21 2.00736e-05)
(-3.37614e-22 -7.94611e-21 -8.09146e-06)
(8.12358e-19 3.61316e-18 0.683026)
(-6.36919e-19 -2.51906e-18 1.02016)
(-1.17067e-18 2.36042e-18 0.755644)
(1.74878e-18 8.04811e-18 0.578229)
(1.64922e-18 -6.8582e-18 0.272861)
(-1.92366e-19 -2.96628e-19 0.105702)
(-7.81865e-19 2.00942e-19 -0.0864236)
(1.04566e-18 1.81839e-19 -0.411965)
(4.89948e-18 1.15904e-18 -0.651104)
(-2.6911e-18 1.66235e-18 -0.859373)
(1.84446e-18 -6.21177e-18 -0.985791)
(-3.30566e-18 -4.90852e-19 -0.987873)
(-7.19932e-20 -3.23671e-18 -0.86082)
(6.89366e-18 1.28329e-18 -0.673907)
(5.15857e-18 6.04325e-18 -0.439209)
(-4.4703e-19 -8.81194e-20 -0.202541)
(2.61616e-18 -3.99475e-18 0.0188852)
(2.7447e-19 -3.69892e-19 0.183752)
(-1.487e-18 -4.73867e-19 0.215591)
(1.86086e-18 -6.64449e-19 0.117142)
(-2.5747e-20 1.1401e-18 0.0197367)
(-1.97807e-18 -6.30081e-19 -0.00169957)
(-8.3576e-19 1.57295e-18 -1.89206e-05)
(-1.11251e-18 -2.5984e-19 0.000525658)
(4.88144e-20 6.29452e-20 0.000470675)
(3.42556e-19 -1.42082e-19 0.000461186)
(3.35225e-19 3.62966e-21 0.000367209)
(1.66401e-19 2.91116e-19 0.0003046)
(-7.65655e-20 3.12386e-19 0.000215449)
(-9.57632e-20 5.18087e-21 0.000168573)
(1.15575e-19 -4.02016e-20 0.000102085)
(-9.30515e-20 -2.49213e-20 5.35036e-05)
(-1.84694e-22 1.12643e-20 5.82192e-05)
(7.61647e-21 8.88222e-20 6.83553e-05)
(-1.11954e-22 3.69591e-21 6.66105e-05)
(3.43907e-20 -1.36213e-20 2.90088e-05)
(-1.07906e-23 1.08809e-21 -1.67589e-05)
(-6.99246e-18 -1.96659e-18 0.633981)
(-8.98452e-19 -5.66682e-18 0.958154)
(-5.28817e-19 -4.05492e-18 0.742593)
(-5.45002e-20 3.8599e-21 0.590023)
(2.67868e-20 2.71865e-18 0.298831)
(-4.02586e-20 -2.50207e-18 0.153982)
(-1.02817e-18 -7.80541e-19 -0.0189207)
(1.49615e-18 -2.74046e-19 -0.36452)
(2.64228e-18 2.78706e-18 -0.599573)
(1.20381e-17 -3.44491e-18 -0.809173)
(-5.61839e-18 -4.7292e-18 -0.955055)
(-1.28594e-18 -8.89834e-19 -0.991486)
(-1.22093e-18 5.20336e-18 -0.911026)
(1.72927e-19 3.03569e-19 -0.717361)
(-2.00455e-18 -1.34387e-18 -0.490908)
(-1.13097e-18 -1.57133e-18 -0.259849)
(1.86296e-18 2.09905e-18 -0.0374157)
(-7.76779e-18 6.65835e-18 0.154848)
(2.73033e-18 1.00039e-18 0.250159)
(5.3051e-19 -2.14328e-19 0.192717)
(-1.13331e-20 -1.34379e-19 0.0688463)
(2.69464e-18 -4.35495e-19 0.00168772)
(8.9299e-19 5.01456e-19 -0.000935198)
(-1.05798e-18 -8.14861e-19 0.00012954)
(-5.72739e-21 -1.24733e-19 0.000305032)
(-3.97942e-21 -1.39209e-21 0.000301017)
(-3.00731e-20 6.38964e-20 0.000290267)
(2.30877e-20 4.31678e-21 0.000236224)
(-1.47115e-20 2.45784e-20 0.000193219)
(1.39717e-19 -1.20414e-19 0.000147882)
(-4.83876e-20 -1.05488e-19 0.000105008)
(-1.34106e-19 -3.32533e-21 9.04662e-05)
(-2.48077e-23 1.12453e-20 6.6075e-05)
(6.56637e-20 7.19452e-20 7.91814e-05)
(2.29255e-20 -1.75473e-20 7.03216e-05)
(6.5612e-21 2.38338e-20 7.81505e-05)
(1.18022e-20 3.40329e-22 4.87916e-05)
(3.65274e-23 9.16473e-21 3.34422e-07)
(-8.27163e-19 -3.57116e-18 0.550689)
(2.20524e-19 -4.47661e-19 0.866631)
(-6.31186e-18 3.27285e-18 0.703669)
(2.00429e-19 -4.7649e-18 0.581991)
(-3.65316e-19 1.40888e-18 0.321743)
(1.69126e-19 -1.89422e-18 0.186769)
(3.61882e-19 -1.49087e-18 0.0273527)
(2.46153e-18 -8.39734e-19 -0.324529)
(8.64782e-18 1.02382e-19 -0.549992)
(-3.56184e-18 8.98963e-19 -0.755858)
(-2.61521e-18 2.58934e-18 -0.907862)
(8.16301e-18 2.89304e-19 -0.968985)
(-3.03941e-19 2.56582e-18 -0.912401)
(4.62223e-19 -1.06648e-19 -0.746625)
(-2.31037e-18 -6.5779e-18 -0.515164)
(-2.83646e-18 -5.91268e-18 -0.293593)
(1.28513e-18 -3.53211e-18 -0.0788421)
(1.01638e-18 -6.7402e-19 0.120958)
(-3.42048e-19 -3.11351e-19 0.26158)
(-4.94333e-19 2.31983e-19 0.262421)
(-8.97517e-21 1.74481e-21 0.13757)
(-2.65771e-18 -6.40838e-19 0.0291393)
(-3.97e-19 6.58633e-19 -0.00375317)
(1.4994e-18 1.31937e-18 5.33366e-06)
(4.37187e-19 -4.80429e-19 1.73801e-05)
(-6.09672e-19 2.46058e-19 0.000100855)