/*--------------------------------*- C++ -*----------------------------------*\
| =========                 |                                                 |
| \\      /  F ield         | OpenFOAM: The Open Source CFD Toolbox           |
|  \\    /   O peration     | Version:  2506                                  |
|   \\  /    A nd           | Website:  www.openfoam.com                      |
|    \\/     M anipulation  |                                                 |
\*---------------------------------------------------------------------------*/
FoamFile
{
    version     2.0;
    format      ascii;
    arch        "LSB;label=32;scalar=64";
    class       volScalarField;
    location    "48";
    object      p;
}
// * * * * * * * * * * * * * * * * * * * * * * * * * * * * * * * * * * * * * //

dimensions      [0 2 -2 0 0 0 0];

internalField   nonuniform List<scalar> 
400
(
-1.31664e-07
-0.000150652
-0.000532976
-0.00106799
-0.00172614
-0.0024842
-0.0031725
-0.00358344
-0.00355077
-0.00292059
-0.00153854
0.000623657
0.00324958
0.00551562
0.00654516
0.0059507
0.00404473
0.00220016
0.00116216
0.00109159
0.000115994
-5.77713e-05
-0.000375127
-0.000760929
-0.00123936
-0.0018808
-0.00269467
-0.00352717
-0.00406019
-0.00391836
-0.0028299
-0.00081411
0.0016956
0.00396834
0.00514139
0.00477492
0.00315066
0.00142758
0.000646399
0.000734907
0.000534012
0.000264216
-7.6355e-05
-0.000556851
-0.001341
-0.00256768
-0.00419647
-0.00595015
-0.00736017
-0.00789837
-0.00722199
-0.005426
-0.00286222
-0.000168134
0.001822
0.00246757
0.00175987
0.000558231
-0.000339422
-0.000339137
0.00114502
0.000736361
0.000190366
-0.000770826
-0.00243697
-0.00490783
-0.00794529
-0.0110503
-0.0136167
-0.0150817
-0.015112
-0.0137519
-0.0112164
-0.00796279
-0.00469329
-0.00215351
-0.000814043
-0.000649394
-0.00123105
-0.00186169
0.00156866
0.000963017
-2.62078e-05
-0.00191391
-0.00497476
-0.00911901
-0.0138197
-0.018354
-0.0220647
-0.0244854
-0.0253569
-0.0245589
-0.022216
-0.0186169
-0.0141991
-0.00956887
-0.00552051
-0.00288814
-0.00213775
-0.00395725
0.00127368
0.000431409
-0.00119759
-0.0042801
-0.00894469
-0.0147762
-0.0209221
-0.0265216
-0.0309626
-0.0339269
-0.0352856
-0.0349379
-0.0329667
-0.0295183
-0.0247328
-0.0188286
-0.012405
-0.00687435
-0.00434018
-0.00645651
-6.66848e-05
-0.00115752
-0.00348902
-0.00775007
-0.0138355
-0.0209596
-0.0280231
-0.0341409
-0.0388174
-0.0418905
-0.0433661
-0.0432644
-0.0416518
-0.038596
-0.034074
-0.0279686
-0.0203976
-0.0126035
-0.00778313
-0.00768691
-0.00245937
-0.0037406
-0.00667003
-0.011838
-0.0189021
-0.0267749
-0.0342281
-0.0404389
-0.0450564
-0.0480438
-0.0494889
-0.0494861
-0.0481139
-0.0454186
-0.0413506
-0.0356765
-0.0281351
-0.0192362
-0.0117345
-0.00792299
-0.00553041
-0.00689617
-0.0102126
-0.0159161
-0.0234808
-0.0316337
-0.0391171
-0.0452048
-0.0496656
-0.0525388
-0.0539445
-0.0539887
-0.0527458
-0.0502727
-0.0465779
-0.0415017
-0.0346275
-0.0257723
-0.0165925
-0.00991973
-0.00870847
-0.0100481
-0.0135246
-0.0194092
-0.0270756
-0.0351913
-0.0425306
-0.0484468
-0.0527753
-0.0555799
-0.0569762
-0.0570501
-0.0558647
-0.0534907
-0.0500074
-0.0454004
-0.0393527
-0.0313125
-0.0221701
-0.0142304
-0.0114639
-0.0127048
-0.0161293
-0.0219024
-0.0293744
-0.0372671
-0.0444149
-0.0502014
-0.0544693
-0.0572637
-0.0586761
-0.0587695
-0.0575944
-0.055227
-0.051807
-0.0474624
-0.0421262
-0.0351499
-0.0270227
-0.0190395
-0.0135006
-0.014557
-0.0177578
-0.0231565
-0.030192
-0.0377346
-0.0446983
-0.0504425
-0.0547449
-0.0575982
-0.0590551
-0.0591593
-0.0579526
-0.0555121
-0.0520296
-0.047746
-0.0429032
-0.0368252
-0.0298532
-0.0222663
-0.0147862
-0.0155057
-0.0182563
-0.0230581
-0.0294657
-0.0365651
-0.0433617
-0.049151
-0.0535897
-0.0565785
-0.0581173
-0.0582269
-0.0569441
-0.0543682
-0.0507163
-0.0462915
-0.041691
-0.0360973
-0.0300677
-0.0227596
-0.0154184
-0.0156661
-0.0176942
-0.0216147
-0.0271907
-0.0337532
-0.0403876
-0.0462949
-0.0509739
-0.054194
-0.0558789
-0.0560222
-0.0546385
-0.0518574
-0.0479389
-0.0432721
-0.0385133
-0.0329931
-0.0279819
-0.0201849
-0.0155291
-0.0152519
-0.0162747
-0.018988
-0.0234981
-0.0294092
-0.0358686
-0.0419544
-0.046976
-0.050535
-0.052449
-0.0526573
-0.0512007
-0.0481693
-0.0438947
-0.0388209
-0.0336416
-0.0279988
-0.0241769
-0.0143572
-0.0152379
-0.014515
-0.0142205
-0.0153653
-0.0185843
-0.0237358
-0.030002
-0.0363114
-0.041767
-0.0457792
-0.048041
-0.0484224
-0.0469465
-0.0436834
-0.0390029
-0.0333736
-0.0275881
-0.0216409
-0.018096
-0.00388527
-0.0146319
-0.0135945
-0.0116908
-0.011063
-0.0129121
-0.0172925
-0.023383
-0.0299494
-0.0359064
-0.0404736
-0.0432135
-0.0438994
-0.0425239
-0.0391193
-0.0340203
-0.0276278
-0.0207164
-0.013382
-0.00693264
0.0159231
-0.0145667
-0.0126464
-0.00865592
-0.00625708
-0.00692349
-0.0107236
-0.0167389
-0.0235942
-0.030088
-0.035277
-0.0386126
-0.0397456
-0.0386222
-0.0352559
-0.0297932
-0.0222792
-0.0129813
-0.000879161
0.0164656
0.056873
-0.011792
-0.0118352
-0.00576007
-0.00183283
-0.00182071
-0.00543096
-0.0115487
-0.0187233
-0.0257187
-0.0314775
-0.0354207
-0.0371165
-0.0364671
-0.0331971
-0.0271566
-0.0175813
-0.00329744
0.0202559
0.0604446
0.12961
-0.0295086
-0.0106438
-0.000658316
0.00300685
0.00237453
-0.00160293
-0.00799424
-0.0154838
-0.022841
-0.028984
-0.0333079
-0.0353573
-0.0349951
-0.0318056
-0.0251594
-0.0128912
0.00928479
0.0509558
0.122646
0.225887
)
;

boundaryField
{
    movingWall
    {
        type            zeroGradient;
    }
    fixedWalls
    {
        type            zeroGradient;
    }
    frontAndBack
    {
        type            empty;
    }
}


// ************************************************************************* //
