/*--------------------------------*- C++ -*----------------------------------*\
| =========                 |                                                 |
| \\      /  F ield         | OpenFOAM: The Open Source CFD Toolbox           |
|  \\    /   O peration     | Version:  2506                                  |
|   \\  /    A nd           | Website:  www.openfoam.com                      |
|    \\/     M anipulation  |                                                 |
\*---------------------------------------------------------------------------*/
FoamFile
{
    version     2.0;
    format      ascii;
    arch        "LSB;label=32;scalar=64";
    class       surfaceScalarField;
    location    "48";
    object      phi;
}
// * * * * * * * * * * * * * * * * * * * * * * * * * * * * * * * * * * * * * //

dimensions      [0 3 -1 0 0 0 0];

oriented        oriented;

internalField   nonuniform List<scalar> 
760
(
1.55047e-05
-1.55036e-05
2.91357e-05
-1.36309e-05
3.07166e-05
-1.58088e-06
1.80904e-05
1.26262e-05
-1.2236e-05
3.03264e-05
-6.66144e-05
5.43783e-05
-0.000148232
8.16179e-05
-0.000248426
0.000100193
-0.000347098
9.86726e-05
-0.000421013
7.39152e-05
-0.000453483
3.24697e-05
-0.00043478
-1.87032e-05
-0.000359248
-7.55322e-05
-0.000238259
-0.000120989
-9.47663e-05
-0.000143492
3.38047e-05
-0.000128571
0.000108165
-7.43605e-05
0.000102837
5.32843e-06
4.59395e-05
5.68973e-05
4.59395e-05
1.23231e-05
-2.78267e-05
7.13301e-06
-8.44072e-06
-3.00006e-05
3.55527e-05
-0.000107955
9.05807e-05
-0.000231203
0.000153575
-0.000391742
0.000214917
-0.000564648
0.000254524
-0.000718718
0.000254263
-0.000831528
0.000211482
-0.000892088
0.000134475
-0.000895686
3.60675e-05
-0.000840048
-7.43409e-05
-0.000728293
-0.000187287
-0.000563708
-0.000285574
-0.000360645
-0.000346555
-0.000149506
-0.000339711
1.71571e-05
-0.000241023
8.53609e-05
-6.28753e-05
5.23624e-05
8.98959e-05
9.83019e-05
-1.28961e-05
-1.49306e-05
-6.35099e-05
4.21731e-05
-0.000162327
0.000134369
-0.000313413
0.000241667
-0.000504277
0.000344438
-0.000705146
0.000415786
-0.000884606
0.000433984
-0.00102466
0.000394316
-0.00112012
0.000306941
-0.00117021
0.00018457
-0.0011698
3.56574e-05
-0.00112419
-0.000119952
-0.00103136
-0.000280118
-0.000885874
-0.00043106
-0.00068572
-0.000546709
-0.000439769
-0.000585662
-0.000187876
-0.000492916
-8.89567e-06
-0.000241855
2.9365e-05
5.16352e-05
0.000127667
-4.99882e-05
3.50576e-05
-0.000155656
0.000147841
-0.000311031
0.000289744
-0.000506439
0.000437076
-0.000716025
0.000554023
-0.000909147
0.000608909
-0.00106562
0.000590458
-0.00118117
0.000509861
-0.00125858
0.000384353
-0.00130134
0.000227331
-0.00130797
4.22913e-05
-0.00128426
-0.000143661
-0.00122639
-0.000337992
-0.00112416
-0.000533294
-0.000964456
-0.00070641
-0.000734815
-0.000815303
-0.000439059
-0.000788672
-0.000137749
-0.000543165
1.19666e-05
-9.808e-05
0.000139634
-8.59028e-05
0.00012096
-0.000235316
0.000297254
-0.000421659
0.000476087
-0.00062556
0.000640977
-0.000819053
0.000747517
-0.000979933
0.000769788
-0.0011005
0.000711024
-0.00118338
0.00059274
-0.00123476
0.000435736
-0.00126195
0.000254517
-0.00127401
5.43535e-05
-0.00126968
-0.000147989
-0.00124803
-0.000359645
-0.00120111
-0.00058021
-0.00111027
-0.000797252
-0.000946703
-0.000978869
-0.000680533
-0.00105484
-0.000321643
-0.000902056
-2.61904e-05
-0.000393532
0.000113443
-0.000108207
0.000229168
-0.000277233
0.00046628
-0.000465794
0.000664647
-0.000650817
0.000826
-0.000809958
0.000906658
-0.000930109
0.000889939
-0.00101081
0.000791727
-0.00105856
0.000640484
-0.00108239
0.000459568
-0.00109234
0.000264465
-0.00110057
6.25852e-05
-0.00110585
-0.000142706
-0.00110973
-0.000355768
-0.00110923
-0.000580703
-0.00108894
-0.000817548
-0.00101608
-0.00105173
-0.000841267
-0.00122965
-0.000523064
-0.00122026
-0.000115649
-0.000800947
-2.20621e-06
-0.000110506
0.000339674
-0.000274541
0.000630315
-0.000443571
0.000833677
-0.000596479
0.000978908
-0.00071729
0.00102747
-0.000799725
0.000972373
-0.000847494
0.000839496
-0.000869279
0.00066227
-0.00087547
0.000465759
-0.000875841
0.000264836
-0.000878733
6.54767e-05
-0.000886053
-0.000135386
-0.00089977
-0.000342051
-0.000920985
-0.000559488
-0.000943942
-0.000794591
-0.000945389
-0.00105028
-0.000873374
-0.00130167
-0.000652258
-0.00144138
-0.000241751
-0.00121145
-0.000243957
-9.30634e-05
0.000432737
-0.000233577
0.000770829
-0.000371705
0.000971805
-0.000489109
0.00109631
-0.00057569
0.00111405
-0.000629707
0.00102639
-0.00065682
0.000866609
-0.000666125
0.000671575
-0.000667288
0.000466921
-0.000667695
0.000265243
-0.000671013
6.87947e-05
-0.000678985
-0.000127413
-0.000693731
-0.000327305
-0.000718291
-0.000534928
-0.000754305
-0.000758577
-0.000792532
-0.00101206
-0.000791845
-0.00130235
-0.000670476
-0.00156274
-0.000357778
-0.00152415
-0.000601735
-6.21333e-05
0.000494871
-0.00016791
0.000876605
-0.000270801
0.0010747
-0.000354331
0.00117984
-0.000412925
0.00117264
-0.00044755
0.00106101
-0.000464058
0.000883117
-0.000470302
0.000677819
-0.000473569
0.000470189
-0.000478291
0.000269965
-0.000485521
7.60252e-05
-0.000495933
-0.000117002
-0.000510537
-0.000312701
-0.000532214
-0.000513251
-0.000566456
-0.000724335
-0.000614515
-0.000963997
-0.00065438
-0.00126249
-0.000611847
-0.00160528
-0.000391693
-0.00174431
-0.000993429
-2.30752e-05
0.000517946
-8.8842e-05
0.000942372
-0.000155727
0.00114158
-0.000208433
0.00123255
-0.00024416
0.00120837
-0.000265312
0.00108217
-0.000276697
0.000894502
-0.000283656
0.000684779
-0.0002907
0.000477233
-0.000300068
0.000279333
-0.000312049
8.80059e-05
-0.000326625
-0.000102426
-0.000343832
-0.000295494
-0.000364924
-0.000492159
-0.000395029
-0.000694231
-0.000442328
-0.000916698
-0.000501385
-0.00120343
-0.000511794
-0.00159487
-0.000355454
-0.00190064
-0.00134888
1.63439e-05
0.000501602
-6.88432e-06
0.0009656
-4.00338e-05
0.00117473
-6.49987e-05
0.00125751
-8.03478e-05
0.00122372
-8.91827e-05
0.001091
-9.54541e-05
0.000900774
-0.000102365
0.00069169
-0.000111591
0.000486459
-0.00012391
0.000291652
-0.000139559
0.000103655
-0.000158756
-8.32288e-05
-0.000181382
-0.000272867
-0.000207261
-0.000466281
-0.000239201
-0.000662291
-0.000286484
-0.000869415
-0.000355437
-0.00113448
-0.000402266
-0.00154804
-0.0003024
-0.00200051
-0.00165128
4.99425e-05
0.000451659
6.96925e-05
0.00094585
7.40111e-05
0.00117041
7.75887e-05
0.00125394
8.21133e-05
0.0012192
8.5033e-05
0.00108808
8.43549e-05
0.000901452
7.92457e-05
0.000696799
6.98392e-05
0.000495866
5.63301e-05
0.000305161
3.82404e-05
0.000121745
1.49474e-05
-5.99359e-05
-1.37447e-05
-0.000244175
-4.85007e-05
-0.000431525
-8.97966e-05
-0.000620995
-0.000142165
-0.000817047
-0.000220329
-0.00105632
-0.000295491
-0.00147288
-0.000246149
-0.00204985
-0.00189743
7.54051e-05
0.000376254
0.00013504
0.000886215
0.000174247
0.0011312
0.000207152
0.00122103
0.000234445
0.0011919
0.000253071
0.00106946
0.000262181
0.000892341
0.000262849
0.000696131
0.000256515
0.000502199
0.000243918
0.000317758
0.000224368
0.000141295
0.000196466
-3.20346e-05
0.000160189
-0.000207898
0.000115034
-0.000386369
6.05142e-05
-0.000566475
-8.61286e-06
-0.00074792
-9.60134e-05
-0.000968916
-0.000192334
-0.00137656
-0.000192721
-0.00204946
-0.00209015
8.68174e-05
0.000289437
0.000180548
0.000792484
0.000254589
0.00105716
0.000318594
0.00115703
0.000373288
0.00113721
0.000414318
0.00102843
0.000440064
0.000866595
0.000451927
0.000684268
0.000452253
0.000501874
0.000442614
0.000327396
0.000422851
0.000161058
0.000389967
8.49114e-07
0.000345621
-0.000163552
0.000287437
-0.000328186
0.000215439
-0.000494478
0.000131393
-0.000663874
2.61395e-05
-0.000863662
-9.63655e-05
-0.00125405
-0.000142983
-0.00200285
-0.00223314
8.04077e-05
0.000209029
0.000194902
0.00067799
0.000298985
0.00095308
0.000396193
0.00105982
0.000483796
0.0010496
0.000555168
0.000957053
0.000606373
0.000815391
0.000637711
0.00065293
0.00065132
0.000488265
0.00064908
0.000329636
0.000630914
0.000179225
0.00059639
3.53732e-05
0.000542529
-0.000109691
0.000469836
-0.000255492
0.000377511
-0.000402152
0.000268394
-0.000554757
0.000138321
-0.000733589
-1.58517e-05
-0.00109988
-9.16155e-05
-0.00192708
-0.00232475
5.75894e-05
0.00015144
0.000175496
0.000560083
0.000309124
0.000819452
0.000444055
0.000924887
0.000570547
0.000923113
0.000678732
0.000848869
0.000762056
0.000732066
0.000819257
0.000595729
0.000851611
0.000455911
0.00086086
0.000320387
0.000847712
0.000192373
0.000811938
7.11475e-05
0.000749174
-4.69278e-05
0.000661093
-0.000167411
0.000546399
-0.000287458
0.000409177
-0.000417535
0.000256476
-0.000580888
9.51802e-05
-0.000938584
-1.46834e-05
-0.00181722
-0.00233943
1.51193e-05
0.00013632
0.000103654
0.000471549
0.000251159
0.000671947
0.000423161
0.000752886
0.000595189
0.000751084
0.000748502
0.000695557
0.000872827
0.00060774
0.0009652
0.000503356
0.00102515
0.000395959
0.0010539
0.000291644
0.00105205
0.000194217
0.00102021
0.000102986
0.000953975
1.93095e-05
0.000855231
-6.86675e-05
0.000723176
-0.000155403
0.000562905
-0.000257264
0.000390364
-0.000408347
0.00022359
-0.00077181
6.51283e-05
-0.00165876
-0.00227431
-5.16626e-05
0.000187983
1.9966e-05
0.00039992
0.000175308
0.000516605
0.00038144
0.000546754
0.000596784
0.000535741
0.000792741
0.000499599
0.00095566
0.000444822
0.00108142
0.000377599
0.00116828
0.000309099
0.00121792
0.000242001
0.00123076
0.000181381
0.0012088
0.000124942
0.00115432
7.37917e-05
0.00106458
2.10686e-05
0.00094001
-3.08293e-05
0.000787702
-0.000104956
0.000626232
-0.000246877
0.000445393
-0.000590971
0.000205445
-0.00141881
-0.00206886
-0.000417867
0.00060585
-0.000364179
0.000346232
-0.000124822
0.000277248
0.000154829
0.000267102
0.000428582
0.000261987
0.000681845
0.000246337
0.000903341
0.000223326
0.00108708
0.000193858
0.00123127
0.000164915
0.00133862
0.000134651
0.00141085
0.000109144
0.00145244
8.33576e-05
0.00146219
6.40395e-05
0.00144109
4.21672e-05
0.00138842
2.18385e-05
0.00130573
-2.22593e-05
0.00119193
-0.000133087
0.00101111
-0.000410141
0.000563732
-0.000971437
-0.00150513
0.00060585
0.000952082
0.00122933
0.00149643
0.00175842
0.00200476
0.00222808
0.00242194
0.00258686
0.00272151
0.00283065
0.00291401
0.00297805
0.00302022
0.00304205
0.00301979
0.00288671
0.00247657
0.00150513
)
;

boundaryField
{
    movingWall
    {
        type            calculated;
        value           uniform 0;
    }
    fixedWalls
    {
        type            calculated;
        value           uniform 0;
    }
    frontAndBack
    {
        type            empty;
    }
}


// ************************************************************************* //
