/*--------------------------------*- C++ -*----------------------------------*\
| =========                 |                                                 |
| \\      /  F ield         | OpenFOAM: The Open Source CFD Toolbox           |
|  \\    /   O peration     | Version:  2506                                  |
|   \\  /    A nd           | Website:  www.openfoam.com                      |
|    \\/     M anipulation  |                                                 |
\*---------------------------------------------------------------------------*/
FoamFile
{
    version     2.0;
    format      ascii;
    arch        "LSB;label=32;scalar=64";
    class       pointScalarField;
    location    "48";
    object      streamFunction;
}
// * * * * * * * * * * * * * * * * * * * * * * * * * * * * * * * * * * * * * //

dimensions      [0 3 -1 0 0 0 0];

internalField   nonuniform List<scalar> 
882
(
0
0
0
0
0
0
0
0
0
0
0
0
0
0
0
0
0
0
0
0
0
0
0.000155032
0.000291347
0.000307183
0.00018092
-0.000122355
-0.000666163
-0.0014823
-0.00248415
-0.00347102
-0.00421019
-0.00453484
-0.00434788
-0.00359248
-0.00238263
-0.000947586
0.000338079
0.00108169
0.00102831
0.00045938
0
0
0.000278263
0.000362677
7.177e-06
-0.00089863
-0.00243438
-0.00458358
-0.00712878
-0.00967133
-0.0117863
-0.0131311
-0.0134917
-0.0127484
-0.0108754
-0.00801971
-0.00455404
-0.00115698
0.00125326
0.00188192
0.000983004
0
0
0.000149302
-0.000272422
-0.00161609
-0.00403276
-0.00747715
-0.011635
-0.0159748
-0.0199179
-0.0229875
-0.0248332
-0.0251897
-0.0239903
-0.021189
-0.0168785
-0.0114112
-0.00555467
-0.000625501
0.00179296
0.00127665
0
0
-0.00035058
-0.00182898
-0.0047264
-0.00909715
-0.0146374
-0.0207265
-0.026631
-0.0317296
-0.0355733
-0.0378466
-0.0382694
-0.0368329
-0.0334529
-0.0281201
-0.0210558
-0.0129028
-0.00501609
0.00041547
0.00139632
0
0
-0.00120961
-0.00418214
-0.00894299
-0.0153528
-0.0228279
-0.0305258
-0.037636
-0.0435634
-0.0479209
-0.0504661
-0.0510095
-0.0495297
-0.0459332
-0.0401312
-0.0321585
-0.0223699
-0.0118214
-0.00280096
0.00113442
0
0
-0.00229168
-0.00695447
-0.0136009
-0.0218609
-0.0309275
-0.0398269
-0.0477441
-0.054149
-0.0587448
-0.0613895
-0.0620152
-0.0605882
-0.0570305
-0.0512235
-0.0430479
-0.0325307
-0.0202341
-0.0080316
-2.2074e-05
0
0
-0.00339674
-0.00969988
-0.0180366
-0.0278257
-0.0381004
-0.0478242
-0.0562191
-0.0628418
-0.0674995
-0.0701479
-0.0708025
-0.0694487
-0.0660282
-0.0604333
-0.0524873
-0.0419845
-0.0289678
-0.0145542
-0.00243958
0
0
-0.00432737
-0.0120357
-0.0217537
-0.0327168
-0.0438573
-0.0541213
-0.0627873
-0.0695031
-0.0741724
-0.0768248
-0.0775127
-0.0762385
-0.0729655
-0.0676162
-0.0600304
-0.0499099
-0.0368863
-0.0212589
-0.00601736
0
0
-0.00494871
-0.0137148
-0.0244617
-0.0362601
-0.0479866
-0.0585968
-0.0674279
-0.0742061
-0.0789081
-0.0816077
-0.0823679
-0.0811979
-0.0780709
-0.0729384
-0.0656949
-0.056055
-0.0434301
-0.0273774
-0.00993429
0
0
-0.00517946
-0.0146032
-0.026019
-0.0383444
-0.0504282
-0.0612499
-0.0701948
-0.0770426
-0.0818151
-0.0846084
-0.0854884
-0.0844641
-0.0815092
-0.0765876
-0.0696452
-0.0604783
-0.0484439
-0.0324953
-0.0134888
0
0
-0.00501602
-0.014672
-0.0264193
-0.0389944
-0.0512316
-0.0621417
-0.0711494
-0.0780663
-0.082931
-0.0858475
-0.086884
-0.0860517
-0.083323
-0.0786602
-0.0720372
-0.0633431
-0.0519983
-0.036518
-0.0165128
0
0
-0.00451659
-0.0139751
-0.0256792
-0.0382185
-0.0504105
-0.0612914
-0.0703058
-0.0772738
-0.0822326
-0.0852842
-0.0865016
-0.0859022
-0.0834605
-0.0791452
-0.0729352
-0.0647648
-0.0542016
-0.0394729
-0.0189743
0
0
-0.00376254
-0.0126247
-0.0239367
-0.036147
-0.0480661
-0.0587607
-0.067684
-0.0746453
-0.0796674
-0.082845
-0.0842579
-0.0839375
-0.0818586
-0.0779949
-0.0723301
-0.0648509
-0.0551617
-0.0413963
-0.0209015
0
0
-0.00289437
-0.0108192
-0.0213908
-0.0329611
-0.0443332
-0.0546175
-0.0632834
-0.0701261
-0.0751449
-0.0784189
-0.0800294
-0.0800379
-0.0784024
-0.0751205
-0.0701757
-0.063537
-0.0549003
-0.0423599
-0.0223314
0
0
-0.00209029
-0.00887019
-0.018401
-0.0289991
-0.0394952
-0.0490658
-0.0572196
-0.063749
-0.0686317
-0.0719281
-0.0737202
-0.074074
-0.0729771
-0.0704221
-0.0664006
-0.060853
-0.0535171
-0.0425184
-0.0232475
0
0
-0.0015144
-0.00711523
-0.0153097
-0.0245586
-0.0337897
-0.0422785
-0.0495991
-0.0555564
-0.0601156
-0.0633195
-0.0652431
-0.0659546
-0.0654853
-0.0638112
-0.0609366
-0.0567613
-0.0509524
-0.0415666
-0.0233944
0
0
-0.0013632
-0.00607869
-0.0127982
-0.020327
-0.0278379
-0.0347935
-0.0408708
-0.0459044
-0.0498641
-0.0527805
-0.0547226
-0.0557525
-0.0559456
-0.0552589
-0.0537048
-0.0511322
-0.0470487
-0.0393307
-0.0227431
0
0
-0.00187983
-0.00587903
-0.0110451
-0.0165126
-0.02187
-0.026866
-0.0313142
-0.0350902
-0.0381813
-0.0406013
-0.042415
-0.0436645
-0.0444024
-0.0446131
-0.0443047
-0.0432552
-0.0407864
-0.0348768
-0.0206886
0
0
-0.0060585
-0.00952082
-0.0122933
-0.0149643
-0.0175842
-0.0200476
-0.0222808
-0.0242194
-0.0258686
-0.0272151
-0.0283065
-0.0291401
-0.0297805
-0.0302022
-0.0304205
-0.0301979
-0.0288671
-0.0247657
-0.0150513
0
0
0
0
0
0
0
0
0
0
0
0
0
0
0
0
0
0
0
0
0
0
0
0
0
0
0
0
0
0
0
0
0
0
0
0
0
0
0
0
0
0
0
0
0.000155032
0.000291347
0.000307183
0.00018092
-0.000122355
-0.000666163
-0.0014823
-0.00248415
-0.00347102
-0.00421019
-0.00453484
-0.00434788
-0.00359248
-0.00238263
-0.000947586
0.000338079
0.00108169
0.00102831
0.00045938
0
0
0.000278263
0.000362677
7.177e-06
-0.00089863
-0.00243438
-0.00458358
-0.00712878
-0.00967133
-0.0117863
-0.0131311
-0.0134917
-0.0127484
-0.0108754
-0.00801971
-0.00455404
-0.00115698
0.00125326
0.00188192
0.000983004
0
0
0.000149302
-0.000272422
-0.00161609
-0.00403276
-0.00747715
-0.011635
-0.0159748
-0.0199179
-0.0229875
-0.0248332
-0.0251897
-0.0239903
-0.021189
-0.0168785
-0.0114112
-0.00555467
-0.000625501
0.00179296
0.00127665
0
0
-0.00035058
-0.00182898
-0.0047264
-0.00909715
-0.0146374
-0.0207265
-0.026631
-0.0317296
-0.0355733
-0.0378466
-0.0382694
-0.0368329
-0.0334529
-0.0281201
-0.0210558
-0.0129028
-0.00501609
0.00041547
0.00139632
0
0
-0.00120961
-0.00418214
-0.00894299
-0.0153528
-0.0228279
-0.0305258
-0.037636
-0.0435634
-0.0479209
-0.0504661
-0.0510095
-0.0495297
-0.0459332
-0.0401312
-0.0321585
-0.0223699
-0.0118214
-0.00280096
0.00113442
0
0
-0.00229168
-0.00695447
-0.0136009
-0.0218609
-0.0309275
-0.0398269
-0.0477441
-0.054149
-0.0587448
-0.0613895
-0.0620152
-0.0605882
-0.0570305
-0.0512235
-0.0430479
-0.0325307
-0.0202341
-0.0080316
-2.2074e-05
0
0
-0.00339674
-0.00969988
-0.0180366
-0.0278257
-0.0381004
-0.0478242
-0.0562191
-0.0628418
-0.0674995
-0.0701479
-0.0708025
-0.0694487
-0.0660282
-0.0604333
-0.0524873
-0.0419845
-0.0289678
-0.0145542
-0.00243958
0
0
-0.00432737
-0.0120357
-0.0217537
-0.0327168
-0.0438573
-0.0541213
-0.0627873
-0.0695031
-0.0741724
-0.0768248
-0.0775127
-0.0762385
-0.0729655
-0.0676162
-0.0600304
-0.0499099
-0.0368863
-0.0212589
-0.00601736
0
0
-0.00494871
-0.0137148
-0.0244617
-0.0362601
-0.0479866
-0.0585968
-0.0674279
-0.0742061
-0.0789081
-0.0816077
-0.0823679
-0.0811979
-0.0780709
-0.0729384
-0.0656949
-0.056055
-0.0434301
-0.0273774
-0.00993429
0
0
-0.00517946
-0.0146032
-0.026019
-0.0383444
-0.0504282
-0.0612499
-0.0701948
-0.0770426
-0.0818151
-0.0846084
-0.0854884
-0.0844641
-0.0815092
-0.0765876
-0.0696452
-0.0604783
-0.0484439
-0.0324953
-0.0134888
0
0
-0.00501602
-0.014672
-0.0264193
-0.0389944
-0.0512316
-0.0621417
-0.0711494
-0.0780663
-0.082931
-0.0858475
-0.086884
-0.0860517
-0.083323
-0.0786602
-0.0720372
-0.0633431
-0.0519983
-0.036518
-0.0165128
0
0
-0.00451659
-0.0139751
-0.0256792
-0.0382185
-0.0504105
-0.0612914
-0.0703058
-0.0772738
-0.0822326
-0.0852842
-0.0865016
-0.0859022
-0.0834605
-0.0791452
-0.0729352
-0.0647648
-0.0542016
-0.0394729
-0.0189743
0
0
-0.00376254
-0.0126247
-0.0239367
-0.036147
-0.0480661
-0.0587607
-0.067684
-0.0746453
-0.0796674
-0.082845
-0.0842579
-0.0839375
-0.0818586
-0.0779949
-0.0723301
-0.0648509
-0.0551617
-0.0413963
-0.0209015
0
0
-0.00289437
-0.0108192
-0.0213908
-0.0329611
-0.0443332
-0.0546175
-0.0632834
-0.0701261
-0.0751449
-0.0784189
-0.0800294
-0.0800379
-0.0784024
-0.0751205
-0.0701757
-0.063537
-0.0549003
-0.0423599
-0.0223314
0
0
-0.00209029
-0.00887019
-0.018401
-0.0289991
-0.0394952
-0.0490658
-0.0572196
-0.063749
-0.0686317
-0.0719281
-0.0737202
-0.074074
-0.0729771
-0.0704221
-0.0664006
-0.060853
-0.0535171
-0.0425184
-0.0232475
0
0
-0.0015144
-0.00711523
-0.0153097
-0.0245586
-0.0337897
-0.0422785
-0.0495991
-0.0555564
-0.0601156
-0.0633195
-0.0652431
-0.0659546
-0.0654853
-0.0638112
-0.0609366
-0.0567613
-0.0509524
-0.0415666
-0.0233944
0
0
-0.0013632
-0.00607869
-0.0127982
-0.020327
-0.0278379
-0.0347935
-0.0408708
-0.0459044
-0.0498641
-0.0527805
-0.0547226
-0.0557525
-0.0559456
-0.0552589
-0.0537048
-0.0511322
-0.0470487
-0.0393307
-0.0227431
0
0
-0.00187983
-0.00587903
-0.0110451
-0.0165126
-0.02187
-0.026866
-0.0313142
-0.0350902
-0.0381813
-0.0406013
-0.042415
-0.0436645
-0.0444024
-0.0446131
-0.0443047
-0.0432552
-0.0407864
-0.0348768
-0.0206886
0
0
-0.0060585
-0.00952082
-0.0122933
-0.0149643
-0.0175842
-0.0200476
-0.0222808
-0.0242194
-0.0258686
-0.0272151
-0.0283065
-0.0291401
-0.0297805
-0.0302022
-0.0304205
-0.0301979
-0.0288671
-0.0247657
-0.0150513
0
0
0
0
0
0
0
0
0
0
0
0
0
0
0
0
0
0
0
0
0
0
)
;

boundaryField
{
    movingWall
    {
        type            calculated;
    }
    fixedWalls
    {
        type            calculated;
    }
    frontAndBack
    {
        type            empty;
    }
}


// ************************************************************************* //
