/*--------------------------------*- C++ -*----------------------------------*\
| =========                 |                                                 |
| \\      /  F ield         | OpenFOAM: The Open Source CFD Toolbox           |
|  \\    /   O peration     | Version:  2506                                  |
|   \\  /    A nd           | Website:  www.openfoam.com                      |
|    \\/     M anipulation  |                                                 |
\*---------------------------------------------------------------------------*/
FoamFile
{
    version     2.0;
    format      ascii;
    arch        "LSB;label=32;scalar=64";
    class       volVectorField;
    location    "39.983397905";
    object      ddtCorrDdt0(U);
}
// * * * * * * * * * * * * * * * * * * * * * * * * * * * * * * * * * * * * * //

dimensions      [0 1 -2 0 0 0 0];

internalField   nonuniform List<vector> 
9700
(
(0.0033596 0.000207013 1.30518e-22)
(0.0036395 0.000654601 2.02922e-24)
(0.00261253 0.000413184 2.01827e-28)
(0.00424287 0.00117405 -1.80106e-22)
(0.00281424 0.00128563 -2.19064e-24)
(0.00176457 0.000505092 -1.27765e-22)
(0.00523226 0.00177395 -5.08038e-24)
(0.00329429 0.00224603 -1.41643e-35)
(0.00191188 0.00157101 -1.26462e-22)
(0.000730495 0.000585385 0)
(0.00662001 0.00250109 1.66805e-22)
(0.00409535 0.00334877 4.95849e-24)
(0.00228635 0.00273189 -1.01784e-21)
(0.000806525 0.00182339 -5.94471e-23)
(-0.000431751 0.000630854 1.17771e-22)
(0.00848687 0.00338612 1.87965e-22)
(0.00524309 0.00465952 -2.32839e-27)
(0.00292069 0.00406207 -1.62476e-22)
(0.00104687 0.00316053 2.85181e-35)
(-0.000427035 0.00197208 1.32842e-22)
(-0.00164932 0.000643159 1.19811e-27)
(0.0109174 0.00447864 2.82515e-23)
(0.00680056 0.00624649 2.61628e-27)
(0.0038368 0.00564119 -1.72409e-22)
(0.00147514 0.00469444 1.3894e-22)
(-0.000331619 0.00340793 9.0436e-22)
(-0.00171702 0.00201894 -1.30487e-23)
(-0.00286412 0.000621559 -9.07068e-23)
(0.0140419 0.00579905 3.14992e-22)
(0.00885294 0.00819239 7.30889e-23)
(0.00508725 0.00755839 -1.50494e-22)
(0.00209697 0.00651351 0)
(-0.000133704 0.00505956 9.67526e-23)
(-0.00177137 0.00348034 -3.81552e-36)
(-0.0030006 0.00195966 -7.77798e-23)
(-0.00401003 0.000567434 -6.87026e-22)
(0.0181047 0.00741802 8.57517e-23)
(0.0115243 0.0105755 -3.68313e-22)
(0.0067451 0.00992042 -2.8748e-23)
(0.00295151 0.0087282 0)
(0.000159825 0.0070174 1.05151e-22)
(-0.00181423 0.00516502 3.07262e-23)
(-0.00320219 0.00336951 -6.7418e-26)
(-0.00420779 0.0017983 -8.13393e-22)
(-0.00502884 0.000483564 -1.24809e-24)
(0.0228395 0.00950901 -3.13464e-23)
(0.0150456 0.0135272 5.84808e-23)
(0.0089194 0.012849 -2.29048e-21)
(0.00409204 0.0114701 -3.99236e-37)
(0.00056794 0.00940728 1.91579e-22)
(-0.00186693 0.00716112 -1.49267e-26)
(-0.00348479 0.00499825 -1.50895e-22)
(-0.00454565 0.00308276 -1.12127e-22)
(-0.00527699 0.00154384 2.18223e-22)
(-0.00586752 0.000374532 4.64586e-22)
(0.0287102 0.0117859 -5.65958e-23)
(0.0203086 0.0173178 3.07308e-23)
(0.011739 0.016499 5.26735e-22)
(0.00560403 0.0149018 1.06183e-22)
(0.00111671 0.0123756 5.33876e-22)
(-0.00193276 0.00960215 1.89249e-26)
(-0.00388292 0.00692595 -1.58367e-22)
(-0.00505241 0.00456953 -8.66166e-22)
(-0.00573286 0.00263585 9.28174e-23)
(-0.00615241 0.00121068 5.06209e-22)
(-0.00648356 0.000246316 0)
(0.0359506 0.0140809 2.44415e-23)
(0.0257737 0.0218064 4.25655e-23)
(0.0153076 0.021104 2.3362e-21)
(0.00759915 0.0192288 4.0128e-22)
(0.00185194 0.0161083 1.97885e-21)
(-0.00201634 0.01264 6.30507e-22)
(-0.00442303 0.00928529 -5.95292e-23)
(-0.00577415 0.00632558 -8.17196e-22)
(-0.00643579 0.00390258 -2.88434e-22)
(-0.00670143 0.00205411 -3.78101e-26)
(-0.00678977 0.000817255 -3.61139e-37)
(-0.00684691 0.000105739 3.27929e-23)
(0.0443447 0.0173217 1.68802e-21)
(0.0313415 0.0271224 -2.3944e-22)
(0.0196872 0.026944 -3.28055e-22)
(0.0101403 0.0247116 -1.4677e-22)
(0.0028224 0.0208444 -9.78322e-22)
(-0.00211573 0.0164719 -7.66939e-23)
(-0.00514185 0.012223 4.16833e-22)
(-0.00675902 0.00847418 -8.73016e-22)
(-0.00744066 0.0053935 3.41917e-27)
(-0.00756148 0.00303569 4.35092e-22)
(-0.00740231 0.00136998 1.28364e-36)
(-0.00715822 0.000384601 5.08094e-23)
(-0.00694054 -3.9997e-05 1.53524e-27)
(0.0525591 0.0216251 -4.42934e-24)
(0.0372773 0.0342819 -3.26971e-35)
(0.0245536 0.0342572 -2.86934e-22)
(0.0130515 0.0317013 -5.67362e-22)
(0.00401479 0.026895 -2.03598e-21)
(-0.00224186 0.0213506 -1.00732e-21)
(-0.00608359 0.0159327 -1.6961e-21)
(-0.00807389 0.0111465 -1.0564e-21)
(-0.00881385 0.00721465 -4.3944e-27)
(-0.00879258 0.00418418 4.40684e-22)
(-0.00837242 0.00201802 -4.77771e-37)
(-0.00780202 0.000620381 1.79415e-26)
(-0.00724098 -6.50228e-05 -1.66412e-23)
(-0.00676106 -0.000183649 -1.89976e-24)
(0.0592477 0.0268908 4.35561e-22)
(0.0437247 0.0437419 -3.48009e-23)
(0.0291257 0.0437499 -5.34904e-21)
(0.0158211 0.0407238 -5.6433e-22)
(0.00516332 0.034677 2.5154e-22)
(-0.00249718 0.0276071 1.09304e-22)
(-0.00732176 0.0206629 -2.1051e-21)
(-0.00980683 0.0145182 -1.77782e-21)
(-0.0106476 0.00947258 8.62957e-22)
(-0.0104743 0.00558225 5.8212e-22)
(-0.00976111 0.00276776 0)
(-0.00883062 0.00090537 -2.9569e-23)
(-0.00788329 -0.000155783 -4.16243e-37)
(-0.00703589 -0.000509313 1.56023e-23)
(-0.00631839 -0.000318396 4.43398e-24)
(0.0651681 0.0335831 -7.783e-22)
(0.0489804 0.0551268 9.22843e-23)
(0.0330925 0.0560076 -3.8735e-22)
(0.0178896 0.0525123 2.17249e-34)
(0.00560171 0.0447783 4.44282e-22)
(-0.00326364 0.0356761 1.28113e-22)
(-0.00903762 0.0267377 1.59618e-21)
(-0.0120898 0.0188135 -4.2646e-22)
(-0.0130674 0.0123113 4.19165e-22)
(-0.012717 0.00730481 1.20125e-21)
(-0.0116551 0.00367457 0)
(-0.0103019 0.00122371 -3.40835e-23)
(-0.00891787 -0.000243695 3.91451e-23)
(-0.00764549 -0.000919747 -1.22899e-23)
(-0.00655488 -0.000927491 -8.71983e-23)
(-0.00563405 -0.000438232 -1.77335e-28)
(0.0705178 0.0410875 -8.11978e-22)
(0.0533467 0.0684414 -5.35892e-24)
(0.0367165 0.0707531 7.83986e-22)
(0.019169 0.0674112 3.10024e-22)
(0.00468714 0.0578743 5.38094e-21)
(-0.00527269 0.0461013 8.92209e-22)
(-0.0116836 0.0345646 -2.69983e-22)
(-0.0151688 0.0243233 1.12724e-21)
(-0.0162535 0.0159122 8.69852e-22)
(-0.0156729 0.00945419 -1.15542e-22)
(-0.014174 0.00477791 -1.01667e-36)
(-0.0123034 0.00160185 8.88994e-23)
(-0.0103957 -0.000365125 -1.91425e-26)
(-0.00863598 -0.00137123 -4.37729e-23)
(-0.00710386 -0.00163559 1.08563e-23)
(-0.00582191 -0.00130164 1.73413e-24)
(-0.00474 -0.000537913 -1.97494e-23)
(0.0751484 0.0482102 -2.01325e-21)
(0.0581798 0.0828444 -1.06894e-21)
(0.0403781 0.0873689 4.7261e-22)
(0.0208436 0.0855258 0)
(0.00288806 0.0743439 2.21823e-22)
(-0.00897981 0.0593041 6.23661e-35)
(-0.015947 0.0445692 -7.84505e-23)
(-0.0195194 0.0313917 -3.11189e-21)
(-0.0204942 0.0205064 -4.05543e-22)
(-0.0195548 0.0121545 -7.06971e-22)
(-0.0174836 0.00613285 -9.90701e-22)
(-0.0149549 0.00204333 6.66155e-22)
(-0.0123997 -0.000521914 2.44995e-26)
(-0.0100486 -0.00191752 -3.89618e-23)
(-0.00800544 -0.00242405 2.62013e-22)
(-0.00628695 -0.0022726 -1.43072e-22)
(-0.00487168 -0.00161674 -1.29421e-23)
(-0.00367649 -0.000613241 2.79771e-23)
(0.0784996 0.0547173 3.62983e-21)
(0.0632476 0.096369 2.65545e-21)
(0.0452208 0.104777 -5.75541e-22)
(0.0224369 0.104058 -4.69353e-34)
(0.00278547 0.0941466 -2.91499e-21)
(-0.0132862 0.0753468 -1.37137e-21)
(-0.0219351 0.0569579 -2.31747e-21)
(-0.0257083 0.0403055 -2.06924e-21)
(-0.0262394 0.0263393 -1.77261e-21)
(-0.0246655 0.0155569 5.65008e-22)
(-0.0218106 0.00779905 1.177e-21)
(-0.0184223 0.00255544 -5.50167e-23)
(-0.015041 -0.000743812 8.26611e-22)
(-0.0119565 -0.00258628 7.68545e-23)
(-0.00928906 -0.00335987 2.62241e-23)
(-0.00706198 -0.00335717 -5.67429e-23)
(-0.00523496 -0.00280529 1.68387e-22)
(-0.0037469 -0.00186143 1.85042e-24)
(-0.00248933 -0.000662396 -7.61178e-29)
(0.0770301 0.060214 2.53457e-21)
(0.0665183 0.109394 1.69297e-21)
(0.0503022 0.121457 -4.37764e-21)
(0.0283974 0.121889 5.5221e-35)
(0.00326832 0.113622 -6.40667e-22)
(-0.0152184 0.0929298 -5.80989e-22)
(-0.027922 0.0714045 -6.37193e-22)
(-0.0335167 0.051105 -3.40473e-22)
(-0.0338957 0.033534 2.24109e-21)
(-0.0313841 0.0197898 5.58511e-22)
(-0.0274463 0.00983919 1.49636e-21)
(-0.0229277 0.00313364 -8.52228e-22)
(-0.0184741 -0.00106741 -1.02119e-22)
(-0.0144564 -0.00343558 5.75623e-22)
(-0.0110151 -0.00449279 3.82745e-23)
(-0.00816384 -0.00463093 2.14472e-27)
(-0.00585417 -0.00413389 -6.51685e-23)
(-0.00399674 -0.00321466 3.5851e-23)
(-0.0024947 -0.00202814 6.63629e-24)
(-0.00122766 -0.000688059 -3.4566e-23)
(0.0722665 0.0645895 -1.98063e-20)
(0.0673228 0.122111 -4.53052e-21)
(0.0537936 0.138081 8.16962e-21)
(0.0335354 0.14138 4.73862e-35)
(0.00712946 0.130826 -1.19125e-21)
(-0.00557438 0.112921 -2.08605e-26)
(-0.0314895 0.0868568 -1.35413e-21)
(-0.0410158 0.0635369 -3.09658e-21)
(-0.0430716 0.0419583 1.72964e-22)
(-0.0399327 0.0248146 9.32684e-22)
(-0.0346705 0.0122674 -1.77485e-21)
(-0.0287314 0.00375499 1.37163e-22)
(-0.0229 -0.00155452 -1.36501e-21)
(-0.0176813 -0.0045386 3.51005e-22)
(-0.0132614 -0.00590276 9.56567e-23)
(-0.00963827 -0.00616129 -2.69897e-27)
(-0.00673401 -0.00568183 -7.56313e-23)
(-0.00443959 -0.00472734 1.96097e-22)
(-0.00262569 -0.00348865 -8.40347e-36)
(-0.0011676 -0.0021118 -8.80813e-23)
(6.14316e-05 -0.000690918 2.62595e-25)
(0.0657596 0.0676499 -7.69168e-22)
(0.0647744 0.133661 -4.48555e-22)
(0.0546682 0.154893 2.71411e-21)
(0.0362366 0.162162 0)
(0.0133287 0.152036 6.75271e-21)
(-0.00211391 0.13438 5.89061e-22)
(-0.0339656 0.105479 6.88425e-22)
(-0.0459763 0.0777574 -3.53204e-21)
(-0.0520322 0.0514797 -2.74154e-21)
(-0.0498631 0.0303518 2.52091e-23)
(-0.0435192 0.0149207 -2.22891e-36)
(-0.0360095 0.00433584 -9.20655e-23)
(-0.0285372 -0.00230203 1.51451e-22)
(-0.0218 -0.00600275 -8.19079e-22)
(-0.0161335 -0.00769041 6.23416e-22)
(-0.0115421 -0.00804314 1.68112e-23)
(-0.00790491 -0.00752963 -2.62398e-23)
(-0.00507001 -0.00647791 5.37803e-23)
(-0.0028801 -0.00512068 -1.41702e-23)
(-0.00117877 -0.00362143 -4.21153e-23)
(0.000177584 -0.00211021 1.33786e-24)
(0.00132934 -0.00067194 3.46644e-22)
(0.0572372 0.0694452 -2.19081e-22)
(0.0607658 0.143873 2.27361e-21)
(0.0532965 0.171435 -6.86673e-21)
(0.0370705 0.183179 1.25558e-35)
(0.0153475 0.176054 -1.39725e-20)
(-0.00806388 0.156833 -4.55557e-21)
(-0.0322076 0.128684 2.10465e-21)
(-0.0482512 0.0938532 -9.32576e-22)
(-0.0588061 0.062702 2.51837e-26)
(-0.0598533 0.0363136 4.34376e-22)
(-0.053557 0.0174281 -1.65047e-36)
(-0.0446321 0.00463819 1.93135e-22)
(-0.0354721 -0.00346864 1.84034e-22)
(-0.026984 -0.00798137 -6.71525e-22)
(-0.0197615 -0.00999474 7.87934e-22)
(-0.0139514 -0.010395 -4.26881e-22)
(-0.00940285 -0.0097805 2.30791e-22)
(-0.0059034 -0.00855561 6.7576e-23)
(-0.00324572 -0.00699879 8.48954e-28)
(-0.0012411 -0.0053057 -4.38717e-23)
(0.000286248 -0.00361208 -1.03292e-22)
(0.00148751 -0.00202643 3.83154e-22)
(0.00251973 -0.000610672 -1.32338e-25)
(0.0488905 0.0699243 -1.7543e-21)
(0.0543121 0.152869 1.58456e-22)
(0.0496349 0.186575 -2.73062e-21)
(0.0362602 0.204238 4.43066e-35)
(0.0160874 0.200148 -5.39715e-22)
(-0.00694282 0.180172 -1.33888e-21)
(-0.0285124 0.151182 -8.03144e-21)
(-0.0491504 0.112968 -1.10584e-20)
(-0.0630138 0.0760095 -2.11026e-21)
(-0.0684316 0.0435139 -2.72189e-21)
(-0.064025 0.0196827 -1.32264e-36)
(-0.0541958 0.00425561 -5.77068e-22)
(-0.0434449 -0.00532378 1.3488e-21)
(-0.0332547 -0.0106849 6.1831e-23)
(-0.0242692 -0.0130056 -1.59832e-22)
(-0.0169556 -0.0133735 2.35398e-22)
(-0.0112753 -0.012562 -4.9787e-23)
(-0.0069566 -0.0110663 1.51011e-22)
(-0.003724 -0.0092164 -1.01387e-27)
(-0.00133733 -0.0072358 -5.86796e-23)
(0.000412218 -0.00528245 -1.43921e-24)
(0.00171324 -0.0034627 4.12824e-23)
(0.0027197 -0.00186736 -1.63338e-23)
(0.00358689 -0.000530998 -2.79667e-22)
(0.0383967 0.0700747 3.7591e-24)
(0.046258 0.159823 6.20961e-23)
(0.0443245 0.200838 -2.47203e-22)
(0.0337312 0.224358 4.47066e-35)
(0.0155699 0.224176 1.86778e-20)
(-0.00675807 0.205252 2.54354e-21)
(-0.0287629 0.173364 1.52513e-20)
(-0.0482905 0.13361 -1.18695e-21)
(-0.0652517 0.0914077 4.72511e-21)
(-0.075012 0.0531002 1.74568e-21)
(-0.0741581 0.0225894 0)
(-0.0645279 0.00298867 -4.69983e-22)
(-0.0520489 -0.00825829 -5.47328e-35)
(-0.0402683 -0.0143859 3.39593e-22)
(-0.0296368 -0.0169638 -9.42595e-22)
(-0.0206326 -0.0171855 7.09868e-22)
(-0.0135728 -0.0160363 -6.09672e-22)
(-0.00825115 -0.0141392 6.98268e-22)
(-0.00431509 -0.0118777 2.46508e-23)
(-0.00145746 -0.00950463 -7.13933e-23)
(0.000580626 -0.00719084 -7.061e-25)
(0.00201848 -0.00505791 4.80885e-22)
(0.00304932 -0.00318033 -3.41054e-22)
(0.00382853 -0.00163775 -3.56977e-22)
(0.00449676 -0.000433985 -2.7158e-23)
(0.0291646 0.0693559 -1.43941e-20)
(0.0363048 0.166192 1.74298e-21)
(0.037755 0.212339 6.50108e-21)
(0.0303007 0.243501 -2.20882e-21)
(0.0138721 0.247915 7.27513e-22)
(-0.00728056 0.230231 -2.45541e-23)
(-0.0295802 0.197598 -4.39983e-22)
(-0.0497049 0.155432 -1.26951e-20)
(-0.0668701 0.109325 -1.60927e-21)
(-0.0795232 0.0653459 6.13091e-21)
(-0.0831042 0.027695 2.02957e-35)
(-0.0757092 0.00156178 -3.64686e-21)
(-0.0615529 -0.0126004 -1.90396e-21)
(-0.0475625 -0.0194185 2.79983e-21)
(-0.0354892 -0.0221324 -7.60812e-22)
(-0.0249386 -0.0220832 -1.36687e-22)
(-0.0163316 -0.0204106 -1.05206e-21)
(-0.0098041 -0.0179327 3.34963e-22)
(-0.00501866 -0.0151081 2.73766e-23)
(-0.0015874 -0.0122117 -1.5507e-22)
(0.000809625 -0.00942647 -3.06025e-25)
(0.00243855 -0.00687463 5.35271e-22)
(0.00352046 -0.00464427 8.98146e-23)
(0.0042456 -0.00278112 -1.95905e-22)
(0.00476687 -0.00134715 -6.42911e-23)
(0.0052138 -0.000320563 -9.27843e-29)
(0.0218039 0.0687317 -9.59918e-21)
(0.0272573 0.17091 6.73173e-22)
(0.0287899 0.223395 5.59263e-24)
(0.0252664 0.259544 2.6496e-26)
(0.0121601 0.270049 2.89518e-21)
(-0.00800682 0.255645 -2.49198e-21)
(-0.030191 0.221908 -2.08607e-20)
(-0.051069 0.177658 -1.45212e-20)
(-0.0687157 0.128567 -6.32369e-21)
(-0.082346 0.0798042 -5.66273e-22)
(-0.0898434 0.0357118 3.0181e-36)
(-0.0868952 0.00161003 7.77704e-22)
(-0.0729021 -0.0180563 -8.53058e-22)
(-0.0555886 -0.0262023 -1.57637e-23)
(-0.0412822 -0.0287679 2.95007e-22)
(-0.0295143 -0.0283175 -6.9721e-23)
(-0.0194928 -0.0259321 -2.28542e-22)
(-0.0116159 -0.0226424 5.07688e-23)
(-0.00582478 -0.0190563 4.09158e-36)
(-0.00170937 -0.0154752 -5.87418e-22)
(0.00112526 -0.0120817 -1.49439e-23)
(0.0029981 -0.00899877 6.36795e-22)
(0.00417195 -0.00630511 -2.4775e-27)
(0.00486425 -0.00405894 -3.13632e-22)
(0.00525832 -0.00227862 4.40558e-22)
(0.00550162 -0.00100538 7.10907e-23)
(0.00570979 -0.000194055 1.90734e-23)
(0.0149087 0.0683552 -1.33259e-22)
(0.0198561 0.173616 2.04881e-21)
(0.0205977 0.229782 -3.26671e-22)
(0.0184295 0.275681 -6.16525e-22)
(0.00834987 0.289819 -2.43114e-20)
(-0.00847028 0.278294 -1.71437e-22)
(-0.0299206 0.246348 4.67978e-22)
(-0.051442 0.199734 -1.67089e-20)
(-0.0698923 0.147413 -3.20007e-21)
(-0.0842633 0.0949071 3.58501e-21)
(-0.0938941 0.0458659 1.25226e-39)
(-0.0959563 0.00438417 4.51668e-21)
(-0.085702 -0.0232605 2.09984e-25)
(-0.0659951 -0.0349725 -2.29619e-21)
(-0.0473753 -0.0372848 2.25453e-21)
(-0.033757 -0.036071 -2.03011e-21)
(-0.0227441 -0.0328381 -1.69666e-22)
(-0.0136156 -0.0284973 -2.08109e-22)
(-0.00670553 -0.0238988 -3.09947e-23)
(-0.00179313 -0.0194305 5.40805e-23)
(0.00155878 -0.0152656 9.95791e-22)
(0.00373268 -0.0115132 9.67324e-22)
(0.00503578 -0.00824626 3.48326e-27)
(0.00572167 -0.00550653 -4.38243e-22)
(0.00600165 -0.0033236 5.44755e-23)
(0.00605037 -0.0016895 -1.22706e-35)
(0.00600519 -0.000624274 -2.31786e-23)
(0.00596491 -6.01893e-05 0)
(0.00798191 0.068114 1.77774e-21)
(0.0128304 0.176747 -4.47638e-21)
(0.0141631 0.233296 -3.39754e-21)
(0.012616 0.283671 -1.35098e-20)
(0.0058764 0.309528 4.55397e-21)
(-0.01041 0.300813 3.42355e-22)
(-0.0293214 0.268 -2.95658e-21)
(-0.0502216 0.221215 -1.48611e-20)
(-0.0696221 0.165751 -5.20655e-21)
(-0.0848856 0.109471 -7.24605e-22)
(-0.0957264 0.0565408 0)
(-0.101305 0.00956763 -2.92742e-21)
(-0.0971025 -0.0264222 4.29026e-21)
(-0.0792974 -0.0450175 -1.64106e-22)
(-0.0557581 -0.0483441 4.69058e-22)
(-0.0377499 -0.0456544 -4.70274e-22)
(-0.025485 -0.0412607 1.74881e-21)
(-0.0155489 -0.0357168 5.04509e-23)
(-0.0075798 -0.0298386 -3.17947e-23)
(-0.00179023 -0.0242324 -1.71548e-22)
(0.00215487 -0.0190994 3.00298e-22)
(0.00468408 -0.0145179 5.38426e-22)
(0.00615438 -0.0105403 -2.42677e-22)
(0.00685694 -0.00720019 -5.07712e-22)
(0.00703507 -0.00450747 -3.82897e-23)
(0.00689246 -0.00246327 -1.78345e-22)
(0.0065913 -0.00103442 -1.08807e-22)
(0.00625711 -0.000217218 1.45079e-23)
(0.0059681 7.62897e-05 8.53459e-23)
(0.00106904 0.067378 -5.16742e-21)
(0.00622665 0.179646 5.46981e-22)
(0.0077284 0.236466 4.08449e-21)
(0.00820857 0.288124 -3.16599e-22)
(0.00362483 0.318202 -2.03114e-20)
(-0.00713955 0.319638 -2.59667e-21)
(-0.0279563 0.290162 2.59412e-20)
(-0.0478114 0.240545 -4.95381e-21)
(-0.0672961 0.183027 7.43062e-21)
(-0.0837098 0.123213 7.11805e-21)
(-0.0956164 0.0666342 1.70569e-36)
(-0.103146 0.0157041 4.75484e-21)
(-0.10422 -0.0268833 -7.66006e-21)
(-0.0926871 -0.0543481 4.11344e-21)
(-0.0680694 -0.0621393 -6.50754e-21)
(-0.0433484 -0.0578983 1.58156e-21)
(-0.0274877 -0.0513601 -5.13267e-22)
(-0.0168812 -0.0444102 3.18719e-22)
(-0.00824524 -0.0370702 2.48809e-23)
(-0.00161211 -0.0300557 -2.05434e-22)
(0.00297559 -0.0237168 8.55241e-22)
(0.0059069 -0.0181198 3.47748e-22)
(0.00757829 -0.0132778 -8.72368e-22)
(0.00831814 -0.00920284 -5.62319e-22)
(0.00840308 -0.00589692 -4.36362e-23)
(0.00806723 -0.00334052 1.20816e-27)
(0.00750323 -0.00150702 1.26556e-22)
(0.00685942 -0.000336541 6.09016e-23)
(0.00624616 0.000200851 7.51297e-23)
(0.00571761 0.000210528 3.84233e-25)
(-0.00592715 0.0666698 -3.69145e-21)
(3.30365e-05 0.182785 -4.45402e-22)
(0.00135552 0.238942 1.02993e-22)
(0.00334661 0.291799 -7.82232e-21)
(0.00116767 0.324313 1.5806e-20)
(-0.00473024 0.327518 6.45577e-20)
(-0.0267938 0.303453 8.673e-24)
(-0.0423976 0.258713 1.50502e-20)
(-0.0627571 0.198483 4.30574e-21)
(-0.0801606 0.135672 6.46503e-21)
(-0.093401 0.0757337 -3.66157e-35)
(-0.102306 0.0215393 -3.59859e-21)
(-0.106616 -0.025555 -4.74042e-21)
(-0.10212 -0.0611535 4.05877e-21)
(-0.0824437 -0.0771241 1.29973e-21)
(-0.0530926 -0.0738432 3.39817e-21)
(-0.0300749 -0.0638556 -1.5823e-21)
(-0.0171739 -0.0546074 1.21872e-21)
(-0.00827038 -0.0456997 -1.15808e-35)
(-0.00109422 -0.0370636 -3.98946e-22)
(0.00411271 -0.0292659 5.85236e-24)
(0.00747154 -0.022435 1.38007e-22)
(0.00936934 -0.0165535 8.84188e-22)
(0.0101635 -0.0115953 -3.072e-22)
(0.0101595 -0.00754528 -4.33665e-22)
(0.00962392 -0.00437707 -1.6327e-27)
(0.00877993 -0.0020438 2.1341e-23)
(0.00780906 -0.00048779 -7.27049e-23)
(0.0068424 0.000379003 -2.3641e-23)
(0.00597054 0.000613783 -5.76481e-23)
(0.00522172 0.000337022 -1.90404e-24)
(-0.0121674 0.067081 3.4469e-21)
(-0.00639622 0.185715 -4.47954e-21)
(-0.00470777 0.241045 -1.79872e-21)
(-0.00167209 0.294055 -1.4562e-21)
(-0.00153138 0.328654 -5.25683e-21)
(-0.00675417 0.336437 8.33746e-21)
(-0.018391 0.315445 1.01103e-20)
(-0.0333551 0.26851 5.57263e-21)
(-0.0546997 0.212423 -1.25888e-20)
(-0.0738958 0.146637 7.16409e-22)
(-0.0886446 0.0835306 -6.91983e-36)
(-0.099087 0.0265098 -6.28836e-21)
(-0.10543 -0.0237643 1.24683e-20)
(-0.105987 -0.0652609 -9.64085e-21)
(-0.0943235 -0.0906847 -4.24013e-21)
(-0.0667126 -0.0930218 -5.71149e-22)
(-0.0360694 -0.0802207 3.28548e-21)
(-0.0170607 -0.0667398 4.65001e-22)
(-0.00715798 -0.0556865 -3.04293e-23)
(8.74625e-05 -0.045366 -2.87503e-22)
(0.0057066 -0.0358781 -2.85386e-23)
(0.0094688 -0.0275888 1.63714e-21)
(0.011603 -0.0204696 -8.32323e-22)
(0.0124613 -0.0144618 -1.06835e-21)
(0.0123701 -0.0095231 -4.75732e-23)
(0.0116223 -0.00561586 4.55126e-23)
(0.0104755 -0.00268781 2.2484e-23)
(0.00914386 -0.000660299 0)
(0.00779491 0.000558574 6.87779e-23)
(0.00653758 0.00108518 5.14457e-24)
(0.00543905 0.00100467 3.01644e-23)
(0.00449921 0.000450045 -2.71364e-23)
(-0.0182054 0.0686899 1.85079e-21)
(-0.0136329 0.187267 -2.2674e-21)
(-0.0103614 0.24285 1.23105e-21)
(-0.00654361 0.295345 -1.32508e-20)
(-0.0043256 0.331049 -8.06634e-21)
(-0.00687549 0.341372 1.2973e-20)
(-0.0151405 0.323381 -7.04045e-22)
(-0.0283525 0.281626 1.84388e-21)
(-0.0448517 0.221881 5.16759e-21)
(-0.0643242 0.156409 8.83857e-22)
(-0.0809668 0.0901833 1.02288e-21)
(-0.0932467 0.0304166 1.3149e-21)
(-0.101548 -0.0222903 8.54576e-22)
(-0.105272 -0.0677374 -4.28522e-21)
(-0.100631 -0.101156 -1.09206e-21)
(-0.0802777 -0.112894 -1.02759e-23)
(-0.0468356 -0.101364 6.19567e-22)
(-0.0189364 -0.0821344 -6.09819e-21)
(-0.00496193 -0.0671647 3.12976e-22)
(0.00237638 -0.0549049 -6.75677e-22)
(0.00799091 -0.043661 -1.4846e-21)
(0.0120216 -0.0336874 2.05775e-21)
(0.0143674 -0.0251351 6.94818e-22)
(0.0152914 -0.017895 -1.60855e-21)
(0.0151103 -0.0119055 -6.08506e-22)
(0.014136 -0.00711621 5.90532e-23)
(0.0126556 -0.00346995 -4.31243e-22)
(0.0109222 -0.000882424 0)
(0.00913988 0.00076283 4.39294e-23)
(0.00745601 0.00159319 1.50876e-22)
(0.00595346 0.00175328 2.24633e-23)
(0.00467125 0.00135665 -6.6426e-23)
(0.00357892 0.000543857 5.82359e-26)
(-0.024962 0.0718352 1.83855e-21)
(-0.0216512 0.188494 1.82917e-21)
(-0.0152118 0.244072 -5.1743e-22)
(-0.0110896 0.29566 -4.41225e-21)
(-0.00711035 0.331924 2.30781e-21)
(-0.00685555 0.343986 -2.3561e-21)
(-0.0119492 0.328437 -3.25931e-21)
(-0.0224143 0.288777 4.01548e-21)
(-0.0363172 0.23096 -4.11461e-21)
(-0.0524852 0.162393 4.40241e-21)
(-0.0700514 0.0957002 4.31427e-27)
(-0.0843685 0.0335851 -7.40402e-22)
(-0.0950709 -0.0212937 -1.67267e-21)
(-0.101416 -0.0695642 1.1919e-20)
(-0.101509 -0.108785 9.72155e-22)
(-0.089526 -0.130452 -1.98104e-21)
(-0.060237 -0.125752 4.32393e-21)
(-0.0253197 -0.102916 1.05864e-21)
(-0.00321139 -0.0809681 -3.13203e-26)
(0.00604069 -0.0656373 -4.10996e-22)
(0.0113088 -0.0525645 4.51249e-23)
(0.0152969 -0.0408306 -5.29146e-23)
(0.017771 -0.0306415 -9.53043e-22)
(0.0187405 -0.0219936 -3.54113e-22)
(0.0184659 -0.0147782 7.72213e-22)
(0.01725 -0.00894427 -4.27286e-37)
(0.0154027 -0.0044369 -6.24725e-24)
(0.0132158 -0.00117031 -4.50669e-23)
(0.0109387 0.000980356 -3.68416e-23)
(0.00875951 0.00217387 -4.20648e-27)
(0.00679975 0.00257429 4.38701e-23)
(0.00511037 0.00235421 2.68641e-23)
(0.00369644 0.00165369 -7.69151e-24)
(0.00249862 0.000616821 4.71861e-23)
(-0.0309442 0.0763048 -1.36596e-21)
(-0.029696 0.188412 -1.83363e-21)
(-0.0213051 0.244433 1.12171e-21)
(-0.0152697 0.295236 -4.28402e-21)
(-0.00974337 0.331039 -1.66982e-21)
(-0.00679548 0.344384 1.41306e-20)
(-0.00857882 0.330971 -1.02103e-21)
(-0.0156712 0.293045 6.66906e-21)
(-0.0268559 0.237238 5.21769e-21)
(-0.0407923 0.169029 -2.36235e-21)
(-0.0567352 0.0978237 7.90585e-21)
(-0.0722792 0.0358081 1.16289e-20)
(-0.0856844 -0.0202157 1.4769e-22)
(-0.0950912 -0.0710185 1.87375e-21)
(-0.0986153 -0.114528 -2.12467e-20)
(-0.0930943 -0.144548 1.87786e-21)
(-0.0718293 -0.150103 1.02289e-21)
(-0.0359933 -0.128664 -3.31599e-21)
(-0.00473809 -0.0996917 3.50388e-34)
(0.010437 -0.0779031 5.48402e-21)
(0.0160057 -0.062502 4.42114e-22)
(0.019539 -0.0489806 2.89359e-21)
(0.0219323 -0.0370787 1.16582e-21)
(0.0229053 -0.0268465 -8.17084e-22)
(0.0225265 -0.0182357 9.00181e-22)
(0.0210594 -0.01118 -9.5556e-23)
(0.0188137 -0.00564426 -2.58193e-22)
(0.0161166 -0.00155596 -5.05945e-22)
(0.0132685 0.00121262 -3.14445e-22)
(0.0105106 0.00283529 5.81346e-27)
(0.00800764 0.00351645 1.42503e-22)
(0.00584678 0.00345908 -9.11359e-23)
(0.00403969 0.00286042 1.86277e-36)
(0.00255531 0.00188063 8.02698e-23)
(0.00130273 0.000668493 0)
(-0.03785 0.0833863 -6.49392e-22)
(-0.0373974 0.187942 -5.63261e-21)
(-0.0265398 0.243349 -3.8147e-21)
(-0.0191434 0.293735 6.23096e-22)
(-0.0120938 0.328602 -6.07304e-21)
(-0.00657751 0.342347 1.44373e-20)
(-0.00510211 0.330675 -3.08026e-21)
(-0.00880906 0.294714 -1.50639e-21)
(-0.0169351 0.240272 2.83287e-20)
(-0.0290332 0.17459 -2.42044e-20)
(-0.0432835 0.104371 -2.12472e-20)
(-0.0576898 0.0360925 -1.13941e-21)
(-0.073313 -0.0188362 4.90709e-22)
(-0.0863227 -0.0714628 1.81687e-21)
(-0.093283 -0.118941 2.62575e-21)
(-0.0921876 -0.155603 7.72798e-21)
(-0.0786255 -0.171582 -1.19931e-21)
(-0.0478065 -0.157905 -8.88148e-22)
(-0.0105112 -0.123066 8.37753e-22)
(0.0143884 -0.0934769 -3.17756e-22)
(0.0220026 -0.0734261 -2.77537e-21)
(0.0250192 -0.058069 2.46049e-21)
(0.0270154 -0.0444332 1.33364e-21)
(0.0278721 -0.0325415 4.00005e-23)
(0.027383 -0.0223735 -2.22926e-22)
(0.025663 -0.0139173 -1.19444e-22)
(0.0229979 -0.00716491 -5.14521e-23)
(0.0197355 -0.00208079 -1.87293e-24)
(0.0162311 0.00144566 3.98529e-23)
(0.0127905 0.00359839 -4.18874e-22)
(0.00963866 0.00460943 2.21617e-22)
(0.00690461 0.00473191 -2.05831e-22)
(0.00463085 0.00420645 2.34118e-23)
(0.00278478 0.00324677 -3.70733e-23)
(0.00129874 0.00202543 -1.30483e-23)
(4.59691e-05 0.000680037 6.28319e-25)
(-0.050567 0.08936 2.40108e-22)
(-0.0455195 0.186701 1.783e-21)
(-0.0322344 0.241121 -1.39871e-21)
(-0.0230267 0.290286 -3.43941e-21)
(-0.0136811 0.324494 -1.06137e-20)
(-0.0061142 0.338039 1.2619e-20)
(-0.00147959 0.327582 -4.21456e-21)
(-0.00185829 0.293404 1.45297e-22)
(-0.00701202 0.240896 -8.86805e-21)
(-0.0164395 0.177421 -4.32518e-21)
(-0.0306189 0.10858 1.90735e-20)
(-0.0433719 0.0358054 4.24388e-21)
(-0.0580188 -0.0181039 5.21744e-21)
(-0.0753515 -0.0702841 -1.33256e-20)
(-0.0859915 -0.121686 -1.39785e-20)
(-0.0885657 -0.164323 -1.19787e-21)
(-0.080584 -0.189586 1.27144e-20)
(-0.0571995 -0.186142 7.93559e-22)
(-0.019602 -0.153768 8.10932e-24)
(0.0137891 -0.113558 2.34112e-21)
(0.0280908 -0.0859536 -5.08816e-22)
(0.0319018 -0.0678141 -4.219e-21)
(0.0331647 -0.0526613 -2.14962e-21)
(0.0337418 -0.0391019 -2.95409e-21)
(0.0331059 -0.0272903 1.49015e-22)
(0.0311565 -0.0172634 1.1301e-21)
(0.0280716 -0.00909224 1.2708e-21)
(0.0242009 -0.00280647 9.78879e-22)
(0.019952 0.00165757 1.60561e-22)
(0.0157092 0.00447246 -3.66178e-22)
(0.011775 0.00589496 2.96532e-22)
(0.00834154 0.00622473 -3.04189e-22)
(0.0054867 0.0057629 -7.83834e-28)
(0.00320012 0.00477817 1.55589e-22)
(0.00139954 0.00349194 2.12268e-36)
(-2.00251e-05 0.00208111 3.50722e-23)
(-0.00121249 0.000657374 -8.90014e-29)
(-0.061206 0.0957591 -1.20297e-20)
(-0.0531167 0.184888 2.16699e-21)
(-0.0396235 0.236928 1.37701e-21)
(-0.0267068 0.285748 1.13867e-25)
(-0.0132199 0.318819 9.29463e-22)
(-0.00536123 0.331203 -5.84989e-21)
(0.00232668 0.321851 -1.29628e-20)
(0.00515496 0.289298 1.63156e-20)
(0.00290107 0.238673 -2.89063e-20)
(-0.00377925 0.177972 1.11065e-20)
(-0.016594 0.111971 2.15346e-20)
(-0.0309006 0.0409809 2.67707e-21)
(-0.0438049 -0.0129565 -1.07391e-20)
(-0.0621816 -0.0681535 -4.60091e-22)
(-0.0773378 -0.122072 7.06882e-21)
(-0.0830905 -0.171038 1.27841e-22)
(-0.0792985 -0.204305 -1.40654e-21)
(-0.0623323 -0.211919 -1.76759e-20)
(-0.02949 -0.186007 1.32038e-22)
(0.00894381 -0.140467 6.53595e-22)
(0.0325896 -0.102307 4.36928e-22)
(0.0395944 -0.0784243 5.4858e-21)
(0.0405723 -0.0614616 1.94396e-21)
(0.0405531 -0.0465169 -2.63631e-21)
(0.039752 -0.0330566 -4.07426e-23)
(0.0376118 -0.0213407 -4.1393e-35)
(0.034149 -0.0115458 -6.59769e-23)
(0.0296556 -0.00382128 1.05654e-22)
(0.0245825 0.00180527 -1.56987e-23)
(0.0194057 0.00546145 3.33457e-22)
(0.0145309 0.00741097 -4.42457e-22)
(0.010236 0.00800161 -4.08664e-22)
(0.00665736 0.00760328 1.30573e-27)
(0.00380816 0.00655506 2.62662e-22)
(0.00161542 0.00514239 3.05343e-23)
(-5.47852e-05 0.00358024 1.83375e-23)
(-0.00134502 0.00204328 8.85092e-24)
(-0.00241765 0.000613172 -1.33087e-23)
(-0.0702222 0.10025 -1.17417e-21)
(-0.0600179 0.182075 1.41062e-22)
(-0.0469567 0.229187 -3.84676e-21)
(-0.0323827 0.278307 -2.5054e-22)
(-0.0165901 0.312242 3.14905e-22)
(-0.00520538 0.323294 -4.12524e-21)
(0.00579332 0.313382 -6.1892e-21)
(0.0120847 0.282456 -1.05178e-20)
(0.0128251 0.233984 -6.17406e-21)
(0.00845946 0.175896 -7.0514e-21)
(-0.00169278 0.114093 -1.03347e-20)
(-0.0182543 0.0423133 -8.64058e-21)
(-0.0314194 -0.00693682 -8.02836e-21)
(-0.0501532 -0.0600346 -5.08661e-22)
(-0.0669591 -0.121632 1.54612e-20)
(-0.0767992 -0.174995 1.92368e-20)
(-0.075751 -0.216947 1.20464e-20)
(-0.063864 -0.233887 2.22701e-21)
(-0.0369945 -0.218303 4.77062e-23)
(0.00153773 -0.172332 -5.56711e-22)
(0.033838 -0.12294 -1.31619e-35)
(0.0471067 -0.090627 -4.08414e-21)
(0.0489532 -0.0707597 -5.74547e-22)
(0.0484019 -0.0545995 3.5415e-21)
(0.0472974 -0.0397155 9.84582e-22)
(0.0450669 -0.0262761 -1.65293e-21)
(0.0413235 -0.0146784 -1.05738e-21)
(0.0362478 -0.00525174 -1.1368e-21)
(0.030299 0.00181544 -1.96736e-22)
(0.0240543 0.00655113 3.9081e-22)
(0.0180549 0.00919405 -1.88778e-22)
(0.0127004 0.0101325 2.46432e-22)
(0.00821186 0.00981463 -1.07445e-22)
(0.00464754 0.00866995 3.84538e-22)
(0.0019398 0.00706225 0)
(-5.31849e-05 0.00527665 -9.63573e-23)
(-0.00151251 0.00350633 7.26883e-24)
(-0.00261272 0.0019117 -4.54675e-23)
(-0.0035164 0.000543729 -2.18186e-23)
(-0.0781041 0.102663 -1.49529e-22)
(-0.0664594 0.176835 9.57874e-22)
(-0.0529427 0.220003 5.33918e-21)
(-0.0369929 0.265013 -1.09184e-26)
(-0.0198026 0.300223 -9.02351e-22)
(-0.00378117 0.314175 4.58731e-22)
(0.00727494 0.302913 3.86262e-21)
(0.0187418 0.27286 -2.27161e-20)
(0.0226193 0.226776 6.03681e-21)
(0.0203362 0.171836 -4.62611e-21)
(0.0126143 0.113846 -2.72859e-22)
(-0.00457748 0.0482502 -1.05824e-20)
(-0.0198801 -0.00163821 -4.25174e-21)
(-0.0391733 -0.0497871 -5.25311e-21)
(-0.0576099 -0.114786 -3.18361e-21)
(-0.0686185 -0.178765 -6.57654e-21)
(-0.071653 -0.226284 -1.8203e-20)
(-0.0625025 -0.254085 -1.0843e-20)
(-0.0412759 -0.247414 7.49191e-23)
(-0.00620897 -0.207234 1.20664e-20)
(0.031258 -0.1501 -3.81201e-21)
(0.0528617 -0.105873 -8.69691e-22)
(0.0578024 -0.0805937 1.33967e-21)
(0.0570715 -0.0631317 -2.40334e-21)
(0.0557132 -0.0472242 2.22274e-22)
(0.0534733 -0.0321928 2.54662e-22)
(0.0496453 -0.0186794 3.0324e-22)
(0.0441156 -0.00727836 -1.84843e-35)
(0.037299 0.00156759 -3.63276e-22)
(0.0298692 0.00769821 1.30258e-21)
(0.0225404 0.0112706 1.52109e-21)
(0.0158854 0.0126929 -1.68506e-21)
(0.0102527 0.0124996 -7.01034e-23)
(0.00577168 0.0112306 5.43339e-22)
(0.00239593 0.00935955 0)
(-3.46523e-05 0.00725145 -2.06201e-23)
(-0.00172886 0.00516975 -2.08343e-23)