/*--------------------------------*- C++ -*----------------------------------*\
| =========                 |                                                 |
| \\      /  F ield         | OpenFOAM: The Open Source CFD Toolbox           |
|  \\    /   O peration     | Version:  2506                                  |
|   \\  /    A nd           | Website:  www.openfoam.com                      |
|    \\/     M anipulation  |                                                 |
\*---------------------------------------------------------------------------*/
FoamFile
{
    version     2.0;
    format      ascii;
    arch        "LSB;label=32;scalar=64";
    class       surfaceScalarField;
    location    "39.983397905";
    object      phi_0;
}
// * * * * * * * * * * * * * * * * * * * * * * * * * * * * * * * * * * * * * //

dimensions      [0 3 -1 0 0 0 0];

oriented        oriented;

internalField   nonuniform List<scalar> 
19160
(
-6.92002e-05
-0.227346
-0.000128773
-0.227369
-9.93566e-05
-0.227246
-0.000165785
-0.227447
-0.000191832
-0.227276
-0.000130213
-0.227116
-0.00016579
-0.227542
-0.000266604
-0.227372
-0.00025568
-0.227151
-0.000168523
-0.226948
-0.000112411
-0.227703
-0.00031111
-0.227497
-0.000367432
-0.22726
-0.000334941
-0.226984
-0.000210967
-0.226737
1.31136e-05
-0.227908
-0.000311602
-0.227703
-0.000455405
-0.227409
-0.000492919
-0.227102
-0.000422643
-0.226773
-0.000255522
-0.226481
0.000233199
-0.228165
-0.000251923
-0.227967
-0.000508629
-0.22765
-0.000635333
-0.227267
-0.00063164
-0.226893
-0.000514601
-0.226514
-0.000299101
-0.226182
0.000576574
-0.228519
-0.000112321
-0.228304
-0.000513795
-0.227962
-0.000754684
-0.22753
-0.000834265
-0.227064
-0.000777059
-0.226631
-0.000604487
-0.226208
-0.000339543
-0.225842
0.00108637
-0.228938
0.000132345
-0.228763
-0.000454276
-0.228364
-0.000841723
-0.227875
-0.00102707
-0.227338
-0.00104293
-0.226798
-0.000919221
-0.226316
-0.000687803
-0.22586
-0.000374487
-0.225468
0.00181881
-0.229458
0.000516711
-0.229323
-0.000308518
-0.228909
-0.000884672
-0.228321
-0.00120566
-0.227697
-0.00131312
-0.227067
-0.00124714
-0.22647
-0.00105096
-0.225953
-0.000759688
-0.225475
-0.000401209
-0.225067
0.0028195
-0.230063
0.00109749
-0.230039
-4.842e-05
-0.229583
-0.000867638
-0.228926
-0.00136432
-0.228162
-0.00158853
-0.227421
-0.00159352
-0.226721
-0.00143646
-0.226085
-0.00116459
-0.225548
-0.000814554
-0.225062
-0.000418566
-0.224648
0.00413859
-0.230751
0.00192811
-0.230894
0.000369362
-0.230457
-0.000768875
-0.229682
-0.00149507
-0.228796
-0.0018701
-0.22788
-0.00196465
-0.22705
-0.00185372
-0.226304
-0.00159985
-0.22565
-0.00125134
-0.225111
-0.000850054
-0.22463
-0.000425165
-0.224223
0.00579956
-0.231533
0.00305112
-0.231874
0.000989102
-0.231514
-0.000561732
-0.230664
-0.00158676
-0.22959
-0.00215845
-0.228507
-0.00236828
-0.227477
-0.0023141
-0.22659
-0.00207852
-0.225825
-0.00172486
-0.225176
-0.0013075
-0.224654
-0.00086336
-0.224192
-0.000420573
-0.223802
0.00780782
-0.232124
0.00444862
-0.23293
0.00183362
-0.232719
-0.000222491
-0.231853
-0.00162621
-0.230624
-0.00245382
-0.229295
-0.00281389
-0.228062
-0.00283171
-0.226959
-0.00261633
-0.226052
-0.00225098
-0.225299
-0.00180607
-0.224678
-0.00132867
-0.224189
-0.000853627
-0.223759
-0.000404068
-0.223398
0.0101554
-0.232319
0.00612324
-0.233799
0.00288075
-0.233977
0.000253609
-0.233195
-0.00160767
-0.231872
-0.00275845
-0.23032
-0.00331325
-0.228795
-0.00342434
-0.227469
-0.00323289
-0.226343
-0.00284885
-0.225454
-0.00236358
-0.224741
-0.00183733
-0.224169
-0.00131358
-0.223729
-0.000819437
-0.223343
-0.000376795
-0.223022
0.0128274
-0.231913
0.00808541
-0.234281
0.0041219
-0.23504
0.000845244
-0.234569
-0.00154925
-0.233253
-0.00308565
-0.231544
-0.00388331
-0.22975
-0.00411458
-0.228105
-0.00395314
-0.226749
-0.00354227
-0.225649
-0.0030014
-0.224816
-0.00240808
-0.224171
-0.00181692
-0.223666
-0.00126015
-0.223288
-0.000763186
-0.222957
-0.000339688
-0.222682
0.0158082
-0.230721
0.0103266
-0.234154
0.00556856
-0.235728
0.00153215
-0.235727
-0.00149483
-0.234623
-0.00347393
-0.232865
-0.00455439
-0.230873
-0.00493279
-0.228932
-0.00480885
-0.227249
-0.00436152
-0.225929
-0.00374598
-0.224905
-0.00306329
-0.224161
-0.00238233
-0.223605
-0.00174213
-0.223184
-0.00117221
-0.222879
-0.000686841
-0.22261
-0.000293645
-0.222388
0.0190713
-0.228638
0.0128713
-0.233265
0.00722205
-0.235808
0.00235078
-0.236546
-0.00147352
-0.235748
-0.00398253
-0.234115
-0.0053804
-0.232039
-0.00592327
-0.229883
-0.00584133
-0.227899
-0.00534511
-0.226266
-0.00463082
-0.225045
-0.00383038
-0.224138
-0.00303193
-0.223511
-0.00228305
-0.223064
-0.00161849
-0.222737
-0.00105294
-0.222513
-0.000592301
-0.222311
-0.000240973
-0.222147
0.0225464
-0.225506
0.0157343
-0.231501
0.00917579
-0.235219
0.00331355
-0.236771
-0.00141179
-0.236608
-0.0046381
-0.235092
-0.00642601
-0.233069
-0.00714988
-0.230812
-0.00710474
-0.228619
-0.00654188
-0.226702
-0.00569836
-0.225198
-0.00474385
-0.224131
-0.00379253
-0.223377
-0.00290363
-0.222891
-0.00211793
-0.222565
-0.00145073
-0.22234
-0.000905453
-0.2222
-0.000484282
-0.222068
-0.000183569
-0.221964
0.0261321
-0.221303
0.0188527
-0.228624
0.0114626
-0.233788
0.00455847
-0.236464
-0.00114721
-0.237035
-0.00535888
-0.235887
-0.00770364
-0.233815
-0.00867821
-0.231541
-0.00866717
-0.22925
-0.00801079
-0.227151
-0.0070011
-0.2254
-0.00584704
-0.224095
-0.00469757
-0.223226
-0.00362867
-0.222652
-0.00268893
-0.22232
-0.00189369
-0.222122
-0.00124346
-0.222002
-0.000737169
-0.221947
-0.00036667
-0.221885
-0.000123278
-0.22184
0.029763
-0.216002
0.0221253
-0.224575
0.0140142
-0.231176
0.00613299
-0.235362
-0.000670924
-0.23694
-0.00588168
-0.236512
-0.00912947
-0.234462
-0.0105182
-0.231975
-0.0105945
-0.229613
-0.00981794
-0.227443
-0.00859815
-0.225553
-0.00719248
-0.224054
-0.00578851
-0.223004
-0.00448868
-0.222366
-0.00335314
-0.221988
-0.00239717
-0.221816
-0.00161691
-0.221749
-0.00100724
-0.221732
-0.000554205
-0.221759
-0.000243319
-0.221765
-6.25481e-05
-0.221778
0.033364
-0.209754
0.0254764
-0.219353
0.0167451
-0.227306
0.00793718
-0.23298
2.57943e-05
-0.236059
-0.00621973
-0.236602
-0.0105381
-0.235104
-0.0125931
-0.232387
-0.0129079
-0.229661
-0.0120266
-0.227405
-0.0105484
-0.225493
-0.00883564
-0.22391
-0.00711473
-0.222728
-0.00552092
-0.221972
-0.00413678
-0.221582
-0.00297891
-0.221406
-0.00203759
-0.221396
-0.00130189
-0.221454
-0.000750759
-0.221535
-0.000362601
-0.22164
-0.000119326
-0.221708
-3.16818e-06
-0.221775
0.0368394
-0.202867
0.0288338
-0.213112
0.0195684
-0.222176
0.00990568
-0.229275
0.000908464
-0.233863
-0.00648762
-0.235791
-0.0118128
-0.235327
-0.0147955
-0.232901
-0.0155515
-0.229743
-0.0146744
-0.227014
-0.0129088
-0.225044
-0.010825
-0.223503
-0.00872554
-0.2223
-0.00676901
-0.22148
-0.00507129
-0.221037
-0.00365993
-0.220901
-0.00251882
-0.220925
-0.0016291
-0.221068
-0.000960408
-0.221244
-0.000482595
-0.221415
-0.000170244
-0.221589
1.13197e-06
-0.221712
5.23134e-05
-0.221827
0.0400982
-0.195754
0.0320936
-0.206127
0.0224011
-0.215944
0.0119793
-0.22425
0.00194056
-0.230307
-0.0066077
-0.233743
-0.0130156
-0.234588
-0.016988
-0.233135
-0.018418
-0.230035
-0.0177417
-0.226676
-0.0157343
-0.224188
-0.0132066
-0.222663
-0.0106577
-0.221571
-0.00827457
-0.220794
-0.00619277
-0.220358
-0.00446485
-0.220232
-0.00307594
-0.220344
-0.00199753
-0.220556
-0.00118722
-0.220841
-0.000604015
-0.221123
-0.000213759
-0.221371
1.63376e-05
-0.221604
0.000113832
-0.221774
0.000101886
-0.221929
0.0430101
-0.188738
0.0351594
-0.19882
0.0251555
-0.208881
0.0140824
-0.218047
0.00307546
-0.225385
-0.00661015
-0.230304
-0.0141335
-0.232625
-0.0190943
-0.232482
-0.021376
-0.230177
-0.0211396
-0.226637
-0.019055
-0.223355
-0.0160484
-0.221346
-0.0129425
-0.220378
-0.0100629
-0.219783
-0.00753433
-0.219452
-0.00542123
-0.219402
-0.0037263
-0.219582
-0.00241679
-0.219925
-0.00143524
-0.220308
-0.000727087
-0.220718
-0.00024728
-0.221089
4.66546e-05
-0.221402
0.000190721
-0.221681
0.00021468
-0.221887
0.000144141
-0.222073
0.0442928
-0.122037
0.0378649
-0.191444
0.027742
-0.201406
0.0161582
-0.210957
0.00426006
-0.219232
-0.0065213
-0.225474
-0.0151834
-0.229255
-0.0211743
-0.230545
-0.0243339
-0.229524
-0.0247323
-0.226584
-0.0228222
-0.22287
-0.0194322
-0.219971
-0.0156493
-0.21864
-0.0121485
-0.218292
-0.00911141
-0.218206
-0.00655331
-0.21832
-0.00448862
-0.21864
-0.00289708
-0.219102
-0.00170849
-0.219652
-0.000851395
-0.220184
-0.000267372
-0.220698
9.77983e-05
-0.22114
0.000289815
-0.221501
0.000346573
-0.221813
0.00030041
-0.222043
0.000177705
-0.222251
0.0455227
-0.119591
0.0390775
-0.12325
0.0299991
-0.193701
0.0181097
-0.203358
0.00547035
-0.212167
-0.0063594
-0.219394
-0.0161567
-0.2245
-0.0232192
-0.22721
-0.027293
-0.227586
-0.0284031
-0.225853
-0.0268953
-0.222511
-0.0233675
-0.218934
-0.0189018
-0.216719
-0.0145874
-0.216201
-0.0109221
-0.216481
-0.00786841
-0.216891
-0.00537814
-0.217431
-0.00344855
-0.218088
-0.00201046
-0.2188
-0.000975728
-0.219527
-0.000269446
-0.220182
0.000176611
-0.220777
0.000419674
-0.22127
0.00050692
-0.221661
0.000478865
-0.221991
0.000368268
-0.222233
0.000201128
-0.222452
0.0466707
-0.117469
0.0402371
-0.120751
0.0310425
-0.124293
0.0198168
-0.195408
0.00659863
-0.204486
-0.00612144
-0.212405
-0.0170253
-0.218525
-0.025189
-0.222531
-0.0302201
-0.224283
-0.0320887
-0.2239
-0.0311101
-0.221639
-0.0277245
-0.218154
-0.0227792
-0.215057
-0.0175229
-0.213783
-0.0129975
-0.214125
-0.00935153
-0.214998
-0.00639547
-0.215873
-0.00407773
-0.216802
-0.00234343
-0.217755
-0.0010975
-0.218678
-0.000247508
-0.219549
0.000291505
-0.220297
0.000590277
-0.220948
0.000706784
-0.22147
0.000691024
-0.221873
0.000583372
-0.222207
0.000415366
-0.222448
0.000213883
-0.222666
0.0477015
-0.11573
0.0412928
-0.118525
0.0320228
-0.121731
0.0206949
-0.125171
0.00763051
-0.19644
-0.00590197
-0.204705
-0.0177813
-0.211649
-0.0270227
-0.216692
-0.0330553
-0.219695
-0.0357288
-0.220642
-0.0353457
-0.219664
-0.0322947
-0.217068
-0.0271933
-0.21374
-0.0211027
-0.211477
-0.0154715
-0.211309
-0.0110041
-0.212473
-0.00751715
-0.213877
-0.00477934
-0.215172
-0.00270587
-0.216439
-0.00121203
-0.217641
-0.000193586
-0.218732
0.000452789
-0.219711
0.000813494
-0.22052
0.000958946
-0.2212
0.000950117
-0.221729
0.000836283
-0.222126
0.000655603
-0.222447
0.000440664
-0.222674
0.000215485
-0.222881
0.0486034
-0.114444
0.0422127
-0.11665
0.0328973
-0.1194
0.0215357
-0.122572
0.008315
-0.125856
-0.00560531
-0.196736
-0.01842
-0.204067
-0.0286776
-0.209994
-0.0357151
-0.214032
-0.0392471
-0.216177
-0.0395127
-0.216475
-0.0368981
-0.215061
-0.0319143
-0.212347
-0.0253145
-0.209528
-0.0185397
-0.208409
-0.0129242
-0.209389
-0.00871871
-0.211271
-0.00552566
-0.21313
-0.00308699
-0.214791
-0.00131065
-0.216341
-9.6972e-05
-0.217737
0.000673173
-0.218952
0.0011035
-0.220001
0.00127833
-0.220839
0.00127134
-0.221521
0.00114201
-0.222035
0.000936416
-0.222407
0.000693976
-0.2227
0.000443171
-0.222902
0.000206049
-0.223087
0.0493212
-0.113589
0.0429769
-0.115208
0.0336392
-0.117392
0.0222879
-0.120152
0.00900283
-0.12326
-0.00513296
-0.126328
-0.0188204
-0.196336
-0.0300576
-0.202687
-0.0381167
-0.207593
-0.0425449
-0.210734
-0.0435207
-0.212169
-0.0414102
-0.211963
-0.036706
-0.210269
-0.0299488
-0.207713
-0.0222861
-0.205782
-0.0153171
-0.206016
-0.0100472
-0.208061
-0.00627546
-0.210521
-0.00345729
-0.21276
-0.00137731
-0.214724
5.70795e-05
-0.216495
0.000968519
-0.218033
0.00147719
-0.219326
0.00168255
-0.220405
0.00167229
-0.22124
0.00151775
-0.221897
0.00127411
-0.222373
0.000989223
-0.222702
0.000696939
-0.222954
0.00042313
-0.223119
0.000185712
-0.223273
0.0497985
-0.113288
0.0435278
-0.11414
0.0341745
-0.115743
0.0228914
-0.117995
0.00963362
-0.120783
-0.00460088
-0.123792
-0.0186073
-0.126541
-0.0310759
-0.195318
-0.040129
-0.200674
-0.0455143
-0.204624
-0.0472625
-0.206992
-0.0457276
-0.207852
-0.0414014
-0.207268
-0.0347323
-0.205486
-0.0265732
-0.203426
-0.0183547
-0.202744
-0.0116745
-0.204389
-0.00702645
-0.20731
-0.00376876
-0.21021
-0.00138165
-0.212756
0.000289466
-0.214956
0.00135868
-0.216885
0.0019549
-0.21851
0.0021922
-0.219836
0.00217359
-0.220906
0.00198335
-0.221706
0.00168737
-0.22231
0.00134348
-0.222727
0.000992457
-0.222998
0.000664843
-0.223196
0.000380817
-0.223314
0.000155704
-0.223429
0.0500365
-0.113407
0.0437809
-0.113541
0.0345276
-0.114493
0.0233187
-0.11617
0.010152
-0.118514
-0.00409096
-0.121293
-0.0182739
-0.124125
-0.0311487
-0.126468
-0.0416813
-0.193765
-0.0480206
-0.198168
-0.0506173
-0.201269
-0.0497386
-0.202981
-0.0458807
-0.203372
-0.0394506
-0.20255
-0.0311293
-0.20093
-0.0220129
-0.199768
-0.0138195
-0.200599
-0.00788609
-0.203529
-0.00398371
-0.207095
-0.00127558
-0.210316
0.000631616
-0.213098
0.00186886
-0.215466
0.00256089
-0.217491
0.00283161
-0.21915
0.00279921
-0.220461
0.00256206
-0.221485
0.00219781
-0.222216
0.00177638
-0.222743
0.00134698
-0.223081
0.000946517
-0.22328
0.000598063
-0.223413
0.000318748
-0.223477
0.000117305
-0.223546
0.0499699
-0.114014
0.0437194
-0.113345
0.0346043
-0.113618
0.0235237
-0.114698
0.0105072
-0.116526
-0.00364912
-0.118956
-0.0178887
-0.121678
-0.0310162
-0.124258
-0.0419805
-0.126169
-0.049978
-0.191808
-0.053451
-0.195334
-0.0533168
-0.197691
-0.050033
-0.198829
-0.0439619
-0.198861
-0.0357012
-0.197978
-0.0260782
-0.196864
-0.0165786
-0.197009
-0.00906223
-0.199423
-0.00413868
-0.203374
-0.00100391
-0.207367
0.00112905
-0.210813
0.00253181
-0.213761
0.00332414
-0.21623
0.00362897
-0.218288
0.00357717
-0.219928
0.00328091
-0.22118
0.00283082
-0.222118
0.00231074
-0.222751
0.00178045
-0.223176
0.00128494
-0.22342
0.000851781
-0.223533
0.00050048
-0.223595
0.000239538
-0.2236
7.20738e-05
-0.223618
0.0495445
-0.115033
0.0432643
-0.113559
0.0343996
-0.11314
0.0234959
-0.11359
0.0106662
-0.114857
-0.00332137
-0.116853
-0.0175075
-0.119337
-0.0307401
-0.121954
-0.0420129
-0.124225
-0.0505056
-0.125642
-0.0556699
-0.189589
-0.0563261
-0.192325
-0.0537369
-0.193987
-0.0481589
-0.194632
-0.0401163
-0.194446
-0.0302879
-0.193768
-0.0198512
-0.193592
-0.0107333
-0.195338
-0.00437913
-0.199183
-0.000548783
-0.203829
0.0018406
-0.208078
0.00339061
-0.211672
0.00427918
-0.214716
0.00461684
-0.217218
0.0045395
-0.21925
0.00417142
-0.220818
0.0036161
-0.221965
0.00297356
-0.222781
0.00231618
-0.223287
0.00169963
-0.223591
0.00115758
-0.223726
0.000713589
-0.223746
0.000376129
-0.223731
0.000146404
-0.223674
2.22177e-05
-0.22364
0.0482715
-0.174975
0.0424048
-0.114173
0.0338632
-0.113023
0.0232001
-0.112845
0.0106044
-0.113528
-0.00313366
-0.115044
-0.0171509
-0.11721
-0.0303697
-0.119707
-0.0418081
-0.122159
-0.0506759
-0.124055
-0.0563945
-0.124917
-0.0586524
-0.187263
-0.0568682
-0.189194
-0.0519383
-0.190207
-0.044266
-0.190482
-0.0344366
-0.190297
-0.0234173
-0.190202
-0.0129362
-0.191389
-0.00490314
-0.194814
2.78312e-05
-0.199759
0.00281378
-0.204802
0.00449979
-0.209187
0.00546736
-0.21286
0.00583194
-0.215931
0.00572251
-0.218401
0.00526964
-0.220349
0.0045885
-0.221791
0.00379674
-0.222789
0.00298211
-0.223447
0.00221362
-0.223801
0.0015337
-0.223967
0.000971774
-0.223984
0.000537508
-0.223908
0.000229997
-0.223815
4.40036e-05
-0.223696
-2.99289e-05
-0.22361
0.0463236
-0.179099
0.0405685
-0.173139
0.0329524
-0.113262
0.0226253
-0.112448
0.0103154
-0.112556
-0.00311287
-0.113549
-0.0168779
-0.115317
-0.0299549
-0.117625
-0.0414114
-0.120104
-0.0505218
-0.122313
-0.0567156
-0.123734
-0.059543
-0.124026
-0.0593159
-0.184815
-0.0552065
-0.185926
-0.0480645
-0.186409
-0.0384016
-0.186517
-0.0270563
-0.186658
-0.0155499
-0.187588
-0.00585547
-0.190437
0.000564968
-0.195351
0.00405047
-0.200996
0.00591597
-0.206219
0.00693692
-0.210657
0.00731529
-0.214344
0.00716611
-0.217375
0.00661618
-0.219747
0.00578819
-0.221548
0.0048182
-0.222812
0.00381166
-0.223618
0.00285487
-0.224088
0.00200193
-0.224269
0.00129118
-0.224287
0.000734766
-0.224181
0.000330485
-0.224008
6.93795e-05
-0.22384
-6.29915e-05
-0.223663
-8.18125e-05
-0.223529
0.0436869
-0.183782
0.038183
-0.176714
0.0313281
-0.171515
0.0217114
-0.112348
0.00981046
-0.111943
-0.00327415
-0.112395
-0.016682
-0.113745
-0.029518
-0.115754
-0.040887
-0.118149
-0.0500828
-0.120543
-0.0566462
-0.122382
-0.0600306
-0.123246
-0.06036
-0.122982
-0.057871
-0.182151
-0.0514525
-0.182538
-0.0420989
-0.182712
-0.0306227
-0.18295
-0.0183809
-0.183827
-0.00724263
-0.186201
0.000879908
-0.190752
0.00546029
-0.19676
0.00767208
-0.202752
0.00874143
-0.208023
0.00911038
-0.212452
0.00891279
-0.21609
0.00825549
-0.219014
0.00726084
-0.22122
0.00608234
-0.222813
0.00484524
-0.223846
0.00365737
-0.224421
0.00258909
-0.224675
0.0016913
-0.224669
0.000981092
-0.224533
0.000455698
-0.224306
0.000102806
-0.224042
-9.84129e-05
-0.223805
-0.000169592
-0.223575
-0.000130879
-0.223398
0.04042
-0.188611
0.0353034
-0.180902
0.0292329
-0.174619
0.0203947
-0.170198
0.00900595
-0.111544
-0.00364656
-0.111571
-0.0166063
-0.11247
-0.029094
-0.114169
-0.0402476
-0.116394
-0.0494345
-0.118797
-0.0562379
-0.120951
-0.0601342
-0.122279
-0.060972
-0.122634
-0.0593033
-0.12155
-0.05435
-0.179253
-0.0454933
-0.179143
-0.0340143
-0.17932
-0.0212701
-0.180061
-0.00895307
-0.182117
0.000864528
-0.186186
0.00689099
-0.192182
0.00974428
-0.198833
0.0109214
-0.204932
0.0112636
-0.210176
0.0110049
-0.214544
0.010234
-0.218069
0.00905705
-0.22081
0.00764058
-0.222778
0.00613118
-0.224098
0.00466303
-0.224851
0.00332839
-0.22516
0.00219647
-0.22518
0.00129256
-0.22498
0.000615048
-0.224692
0.000148364
-0.224352
-0.000135183
-0.224005
-0.000265542
-0.223709
-0.000270393
-0.223435
-0.000174957
-0.223223
0.0366167
-0.193257
0.0319841
-0.185291
0.0267453
-0.178414
0.0187508
-0.172975
0.00823481
-0.169427
-0.0042101
-0.11098
-0.0166877
-0.111489
-0.0286978
-0.112866
-0.0395397
-0.114877
-0.0485929
-0.117235
-0.0554896
-0.119546
-0.0598487
-0.121237
-0.0611801
-0.122071
-0.0602948
-0.121643
-0.0561955
-0.119704
-0.0484988
-0.176248
-0.0372074
-0.17595
-0.0240902
-0.1765
-0.0108452
-0.178169
0.000513569
-0.181766
0.00819499
-0.18749
0.0120446
-0.194483
0.0134902
-0.201401
0.0138114
-0.20748
0.0134832
-0.212655
0.0125972
-0.216907
0.0112302
-0.220242
0.00955138
-0.222721
0.00772697
-0.224374
0.00592327
-0.225359
0.00426161
-0.225785
0.00283744
-0.225801
0.00168959
-0.225577
0.00082011
-0.225185
0.000211033
-0.224755
-0.000173266
-0.224314
-0.000372326
-0.223898
-0.000423486
-0.223556
-0.000360733
-0.22325
-0.000212013
-0.223011
0.032426
-0.1974
0.0283418
-0.189615
0.0239429
-0.182489
0.0168474
-0.176511
0.00731785
-0.172058
-0.00418104
-0.169456
-0.0168556
-0.110812
-0.0283362
-0.111851
-0.0387699
-0.113636
-0.047621
-0.115849
-0.0545533
-0.118172
-0.0592183
-0.120176
-0.0610822
-0.121334
-0.0608687
-0.121497
-0.0575871
-0.120251
-0.050696
-0.117507
-0.040118
-0.173337
-0.0268061
-0.173234
-0.0127945
-0.174551
-8.96663e-05
-0.177566
0.00926839
-0.182839
0.0144431
-0.189888
0.016416
-0.197409
0.0167761
-0.204366
0.0163778
-0.210374
0.0153854
-0.215443
0.0138335
-0.21951
0.0118783
-0.222569
0.00970019
-0.224694
0.0075011
-0.225952
0.00544145
-0.226539
0.00365376
-0.226601
0.00219849
-0.22631
0.0010859
-0.225843
0.000297007
-0.225271
-0.000212554
-0.224716
-0.000494009
-0.224192
-0.000596426
-0.223725
-0.000564918
-0.223352
-0.000436452
-0.223025
-0.000239924
-0.222771
0.0280827
-0.200867
0.0245487
-0.193607
0.020956
-0.186628
0.0147766
-0.180418
0.00629036
-0.175484
-0.00412969
-0.172109
-0.0158688
-0.170443
-0.0279892
-0.111159
-0.0379486
-0.112672
-0.0465238
-0.114733
-0.0533936
-0.117008
-0.0582883
-0.119102
-0.0607545
-0.120504
-0.0610561
-0.121147
-0.0585926
-0.120491
-0.0524254
-0.118522
-0.0425731
-0.115052
-0.0293603
-0.170783
-0.0147213
-0.171307
-0.000875696
-0.173765
0.0101056
-0.178403
0.0167961
-0.185192
0.019613
-0.193085
0.0201524
-0.200785
0.019705
-0.207693
0.0186253
-0.213614
0.0169129
-0.218522
0.014687
-0.222319
0.0121272
-0.224996
0.00947336
-0.226666
0.0069346
-0.227445
0.00469673
-0.227582
0.00285392
-0.227256
0.00143218
-0.226656
0.000414605
-0.225961
-0.000252842
-0.225231
-0.00063551
-0.224574
-0.000797209
-0.223991
-0.000796985
-0.223493
-0.000683266
-0.223105
-0.000493259
-0.222772
-0.00025771
-0.222513
0.0238677
-0.203787
0.0208628
-0.197181
0.0179579
-0.190609
0.0126767
-0.184528
0.00524872
-0.179376
-0.00405652
-0.175557
-0.0147274
-0.173251
-0.0260409
-0.172391
-0.0371173
-0.111991
-0.0453377
-0.113858
-0.0521122
-0.116015
-0.0571745
-0.118122
-0.0601398
-0.119716
-0.0609292
-0.120631
-0.0591936
-0.120546
-0.0537281
-0.119189
-0.0445753
-0.11652
-0.0319408
-0.112472
-0.0166197
-0.168884
-0.00171557
-0.170468
0.0106996
-0.174359
0.0190131
-0.18062
0.0229506
-0.18853
0.0238892
-0.196822
0.0234579
-0.204538
0.0223239
-0.211392
0.0204971
-0.217198
0.0180347
-0.22187
0.0150895
-0.225281
0.0119302
-0.227453
0.00882524
-0.228557
0.00603344
-0.228781
0.00370219
-0.22843
0.0018857
-0.22771
0.00057519
-0.226817
-0.000293412
-0.22592
-0.000802853
-0.225064
-0.00103559
-0.224336
-0.00106847
-0.22372
-0.00096459
-0.223212
-0.00077179
-0.222826
-0.000529186
-0.2225
-0.000264497
-0.222249
0.0200335
-0.206404
0.01753
-0.200455
0.0151706
-0.194394
0.0107003
-0.188633
0.00430372
-0.183583
-0.00387878
-0.179554
-0.0134563
-0.176828
-0.0238421
-0.17545
-0.034342
-0.175166
-0.0441157
-0.113213
-0.0507362
-0.115234
-0.0559018
-0.117288
-0.0592683
-0.118994
-0.0604967
-0.120149
-0.0593546
-0.12047
-0.0545884
-0.119686
-0.0461054
-0.117658
-0.0340692
-0.114391
-0.0191183
-0.109973
-0.00265058
-0.167949
0.011189
-0.170957
0.0210166
-0.176362
0.0262946
-0.183964
0.0278864
-0.192527
0.0275925
-0.200957
0.0264559
-0.20867
0.0245834
-0.215478
0.021954
-0.221118
0.0186567
-0.225437
0.0149683
-0.228319
0.0112146
-0.229842
0.00775129
-0.230275
0.00480591
-0.229885
0.00248339
-0.229027
0.000794796
-0.227929
-0.000332633
-0.226777
-0.00100334
-0.22572
-0.0013236
-0.224776
-0.00139342
-0.224011
-0.00129487
-0.22339
-0.00108965
-0.222894
-0.000827425
-0.222528
-0.000542473
-0.222222
-0.000260188
-0.221988
0.0167415
-0.208976
0.0146992
-0.203573
0.0127745
-0.198059
0.00900309
-0.192696
0.00355784
-0.187887
-0.00354823
-0.183914
-0.0120272
-0.180983
-0.0214483
-0.179222
-0.0312635
-0.178528
-0.0407749
-0.178507
-0.0493291
-0.11462
-0.0545244
-0.116612
-0.0581688
-0.118387
-0.059821
-0.119669
-0.0591059
-0.120398
-0.0549602
-0.120098
-0.0471501
-0.118641
-0.0357268
-0.116001
-0.0212113
-0.112298
-0.00486087
-0.107763
0.0114506
-0.168211
0.0228217
-0.172762
0.0295165
-0.179584
0.0320072
-0.188085
0.0320216
-0.196956
0.0309572
-0.205458
0.0291196
-0.213206
0.0264291
-0.219953
0.0228608
-0.225322
0.0186641
-0.229133
0.0142071
-0.231312
0.00995533
-0.232046
0.00624888
-0.231718
0.00327702
-0.230679
0.00109692
-0.22933
-0.000367104
-0.227895
-0.00124578
-0.226535
-0.00167633
-0.225367
-0.00178924
-0.22438
-0.00169166
-0.223614
-0.00146336
-0.223016
-0.00116782
-0.222554
-0.000847465
-0.222223
-0.000532966
-0.22195
-0.000244691
-0.221744
0.0140368
-0.211582
0.0124176
-0.206694
0.0108482
-0.201647
0.00768551
-0.196741
0.00307218
-0.192211
-0.00302974
-0.188405
-0.0104677
-0.185473
-0.0189086
-0.183523
-0.0279726
-0.182513
-0.0371013
-0.182202
-0.0457298
-0.182106
-0.0531093
-0.116035
-0.0569227
-0.117858
-0.0589066
-0.119302
-0.0585117
-0.120263
-0.0549629
-0.120395
-0.0477368
-0.119511
-0.0368911
-0.117477
-0.0228636
-0.114349
-0.00672598
-0.110433
0.00971968
-0.106032
0.024404
-0.169793
0.032519
-0.175765
0.0361033
-0.18368
0.0366167
-0.19268
0.035723
-0.201722
0.0340032
-0.210341
0.0313717
-0.218149
0.0276583
-0.224751
0.0230311
-0.229689
0.0178693
-0.232795
0.012743
-0.2341
0.00812841
-0.233926
0.0043367
-0.232777
0.00151609
-0.231098
-0.000390679
-0.229306
-0.0015408
-0.2276
-0.00211279
-0.226098
-0.00227794
-0.224878
-0.00217669
-0.223895
-0.00191295
-0.223165
-0.00156807
-0.222616
-0.00119534
-0.222206
-0.000831747
-0.221924
-0.000500515
-0.221694
-0.000219226
-0.221524
0.0118358
-0.214156
0.0106183
-0.209783
0.00936588
-0.205212
0.00674483
-0.200706
0.00286294
-0.196532
-0.00234781
-0.192893
-0.00880655
-0.190067
-0.0163076
-0.188074
-0.024578
-0.186917
-0.0332159
-0.186398
-0.0417579
-0.186174
-0.0495187
-0.185697
-0.0556307
-0.117327
-0.0578031
-0.118961
-0.0576818
-0.120131
-0.0545529
-0.120673
-0.047854
-0.120278
-0.0375656
-0.118837
-0.0240317
-0.116309
-0.00821326
-0.112861
0.00825302
-0.108966
0.023425
-0.105053
0.035254
-0.172528
0.0400077
-0.179669
0.0412272
-0.188291
0.0406165
-0.197573
0.0390881
-0.206807
0.0366326
-0.215602
0.0329161
-0.223406
0.0279754
-0.229695
0.0221671
-0.233987
0.0161402
-0.236192
0.0105133
-0.236484
0.00573414
-0.235323
0.00209844
-0.23336
-0.000389881
-0.231099
-0.00190003
-0.228947
-0.00265727
-0.227055
-0.0028876
-0.225489
-0.00277748
-0.224277
-0.00246308
-0.223345
-0.00204953
-0.222683
-0.00160405
-0.222207
-0.00117212
-0.221865
-0.000780141
-0.221645
-0.000447649
-0.221465
-0.00018499
-0.221339
0.00999989
-0.216523
0.00915116
-0.212688
0.00820287
-0.20862
0.00607724
-0.204545
0.00285131
-0.200695
-0.00156132
-0.197318
-0.00712169
-0.194577
-0.0137292
-0.192645
-0.0211975
-0.191455
-0.0292538
-0.19088
-0.0375511
-0.190605
-0.0454818
-0.190211
-0.0522126
-0.189115
-0.056569
-0.118561
-0.0566635
-0.119979
-0.0538274
-0.120857
-0.047553
-0.120974
-0.0377291
-0.120114
-0.0246883
-0.11818
-0.00925455
-0.115267
0.00712884
-0.111737
0.0225588
-0.1081
0.0351726
-0.104971
0.0436292
-0.17615
0.0456683
-0.18411
0.0454791
-0.193153
0.0442093
-0.202695
0.0420187
-0.212193
0.0384422
-0.221128
0.0333178
-0.228749
0.0269372
-0.234465
0.0200325
-0.237879
0.0133551
-0.239034
0.00747769
-0.238228
0.00287047
-0.236095
-0.000349248
-0.2334
-0.00233517
-0.230664
-0.00334016
-0.228264
-0.00365472
-0.226288
-0.00352923
-0.224737
-0.00314493
-0.223596
-0.00263828
-0.222756
-0.00209507
-0.222192
-0.00157138
-0.221808
-0.00109814
-0.221547
-0.000696712
-0.221395
-0.000376822
-0.221273
-0.000143275
-0.221196
0.00842479
-0.218475
0.00788024
-0.215252
0.00721324
-0.211699
0.00554523
-0.208088
0.0029145
-0.204608
-0.000775973
-0.20148
-0.00552315
-0.198917
-0.0112743
-0.197032
-0.0179447
-0.195898
-0.0253447
-0.195364
-0.033246
-0.195185
-0.0411455
-0.194941
-0.0482471
-0.194176
-0.0533883
-0.192296
-0.0554375
-0.119787
-0.0528343
-0.120972
-0.046837
-0.121573
-0.037415
-0.121289
-0.0248178
-0.119985
-0.00979657
-0.117638
0.00637351
-0.114512
0.0219429
-0.111121
0.0350924
-0.10802
0.0443443
-0.105686
0.0498049
-0.180286
0.0501341
-0.188765
0.049183
-0.198127
0.0473306
-0.208007
0.0440101
-0.217761
0.038846
-0.226657
0.0319717
-0.233783
0.0241872
-0.23862
0.0164324
-0.240956
0.00943171
-0.240988
0.00374767
-0.239105
-0.000295183
-0.236149
-0.00286493
-0.232871
-0.00419856
-0.229805
-0.00462651
-0.227292
-0.00447795
-0.22534
-0.00399829
-0.223884
-0.00336719
-0.222867
-0.00269443
-0.222157
-0.00205003
-0.221713
-0.00147034
-0.221435
-0.00097933
-0.221265
-0.000585403
-0.221187
-0.000290717
-0.221126
-9.61771e-05
-0.2211
0.00706001
-0.220017
0.00674068
-0.217336
0.00630848
-0.214348
0.00504395
-0.211197
0.00294691
-0.20812
-9.12527e-05
-0.205292
-0.00409379
-0.202909
-0.0090463
-0.201145
-0.0149182
-0.200059
-0.021606
-0.199636
-0.0289746
-0.199635
-0.0366406
-0.19969
-0.043893
-0.199295
-0.0495691
-0.197995
-0.0525123
-0.195221
-0.0515671
-0.121054
-0.0457783
-0.122031
-0.0366393
-0.122349
-0.0244413
-0.121665
-0.0098453
-0.119936
0.00602574
-0.11729
0.0215855
-0.114155
0.0350902
-0.111119
0.0450398
-0.108716
0.0510365
-0.106918
0.0544102
-0.184563
0.0538413
-0.193423
0.0523516
-0.203148
0.0494027
-0.213399
0.0443335
-0.223248
0.0370853
-0.23177
0.0284329
-0.238029
0.019467
-0.241655
0.0112886
-0.242813
0.0044819
-0.241722
-0.00039762
-0.239003
-0.00356709
-0.235447
-0.00528686
-0.231782
-0.00586377
-0.228568
-0.00568393
-0.226086
-0.005075
-0.224263
-0.00427783
-0.222973
-0.00343463
-0.222126
-0.00263268
-0.221574
-0.0019153
-0.221268
-0.00130923
-0.221106
-0.000821446
-0.221029
-0.000450508
-0.221027
-0.000193714
-0.221029
-4.53353e-05
-0.221055
0.00588301
-0.221187
0.00572036
-0.218997
0.0054656
-0.216493
0.00453326
-0.213837
0.00289514
-0.211146
0.000434979
-0.208646
-0.00289281
-0.206493
-0.00710356
-0.204852
-0.0121957
-0.203867
-0.0181333
-0.203532
-0.0248572
-0.203754
-0.0321057
-0.20417
-0.0392799
-0.204303
-0.045286
-0.203578
-0.0488981
-0.20161
-0.048952
-0.197836
-0.0444403
-0.122392
-0.0354951
-0.123175
-0.023592
-0.123198
-0.00940056
-0.12211
0.00609743
-0.120008
0.0215155
-0.11722
0.0352073
-0.114272
0.0456684
-0.111748
0.0522577
-0.109937
0.055855
-0.108363
0.0579759
-0.188697
0.0569151
-0.197987
0.054382
-0.208127
0.0495766
-0.218642
0.0420962
-0.228259
0.0326597
-0.235997
0.0224761
-0.241038
0.0128783
-0.243244
0.00488265
-0.243214
-0.000983269
-0.241137
-0.00466977
-0.2379
-0.00672801
-0.234006
-0.00745241
-0.230194
-0.00722664
-0.227025
-0.00644327
-0.224718
-0.00542401
-0.223117
-0.00435636
-0.222051
-0.00334966
-0.221409
-0.00245497
-0.221034
-0.00170224
-0.220875
-0.00109608
-0.220831
-0.000630711
-0.220848
-0.000298895
-0.220922
-8.9637e-05
-0.220984
7.32803e-06
-0.221062
0.00487252
-0.222075
0.00481976
-0.220286
0.00469254
-0.218224
0.00401958
-0.215979
0.00275884
-0.213701
0.000794557
-0.211505
-0.00193588
-0.209603
-0.00546728
-0.20813
-0.00982301
-0.207225
-0.0149975
-0.207003
-0.0209973
-0.207391
-0.0276712
-0.208188
-0.0345605
-0.208889
-0.0406709
-0.208918
-0.0447905
-0.207686
-0.045638
-0.204924
-0.042246
-0.20003
-0.0340842
-0.123803
-0.0223618
-0.124406
-0.00852958
-0.124069
0.00656707
-0.122579
0.0217268
-0.120219
0.0354737
-0.117487
0.0463477
-0.114951
0.0534681
-0.112958
0.0573222
-0.111404
0.0593879
-0.109775
0.0607706
-0.192553
0.0587867
-0.202392
0.0543421
-0.212893
0.0468416
-0.223388
0.0367642
-0.232364
0.025399
-0.23892
0.0143364
-0.242496
0.00498812
-0.24335
-0.00213687
-0.24206
-0.0064967
-0.23931
-0.00878045
-0.235848
-0.00954294
-0.231916
-0.00921383
-0.228207
-0.00819385
-0.225275
-0.00687624
-0.223266
-0.00551167
-0.221961
-0.00423848
-0.221163
-0.00311605
-0.220748
-0.0021768
-0.22056
-0.00142188
-0.22055
-0.00083953
-0.220622
-0.000416936
-0.22073
-0.000136583
-0.220875