/*--------------------------------*- C++ -*----------------------------------*\
| =========                 |                                                 |
| \\      /  F ield         | OpenFOAM: The Open Source CFD Toolbox           |
|  \\    /   O peration     | Version:  2506                                  |
|   \\  /    A nd           | Website:  www.openfoam.com                      |
|    \\/     M anipulation  |                                                 |
\*---------------------------------------------------------------------------*/
FoamFile
{
    version     2.0;
    format      ascii;
    arch        "LSB;label=32;scalar=64";
    class       pointScalarField;
    location    "39.983397905";
    object      streamFunction;
}
// * * * * * * * * * * * * * * * * * * * * * * * * * * * * * * * * * * * * * //

dimensions      [0 3 -1 0 0 0 0];

internalField   nonuniform List<scalar> 
19880
(
0
0.016741
0.0391607
0.0611275
0.0810765
0.0978577
0
0.0118664
0.0272816
0.0416731
0.0541983
0.0639873
0
0.00608608
0.013863
0.0207126
0.0266704
0.0313589
0
0.000914729
0.00224192
0.00402633
0.00742973
0.0133708
0
-0.00312355
-0.00522845
-0.00371253
0.00404193
0.0201524
0
-0.0050786
-0.00491597
0.00590423
0.0299029
0.0667563
0
0.016741
0.0391607
0.0611275
0.0810765
0.0978577
0
0.0118664
0.0272816
0.0416731
0.0541983
0.0639873
0
0.00608608
0.013863
0.0207126
0.0266704
0.0313589
0
0.000914729
0.00224192
0.00402633
0.00742973
0.0133708
0
-0.00312355
-0.00522845
-0.00371253
0.00404193
0.0201524
0
-0.0050786
-0.00491597
0.00590423
0.0299029
0.0667563
-7e-08
-7e-08
3e-08
0
0
0.0434234
0.0256285
0.0116645
0.00197893
-0.00341456
0.144684
0.106271
0.0660706
0.0312234
0.00709614
0.264812
0.215444
0.154488
0.0915906
0.03927
0.386739
0.3332
0.260224
0.175222
0.0930561
0.506879
0.451339
0.371458
0.271789
0.164382
-7e-08
-7e-08
3e-08
0
0
0.0434234
0.0256285
0.0116645
0.00197893
-0.00341456
0.144684
0.106271
0.0660706
0.0312234
0.00709614
0.264812
0.215444
0.154488
0.0915906
0.03927
0.386739
0.3332
0.260224
0.175222
0.0930561
0.506879
0.451339
0.371458
0.271789
0.164382
-1.1e-07
-1.2e-07
-1.5e-07
-7e-08
-7e-08
0.0796932
0.0847509
0.0830699
0.0752121
0.061228
0.17398
0.190579
0.196956
0.19227
0.174544
0.264765
0.294452
0.310945
0.31249
0.297433
0.35195
0.394583
0.421335
0.429958
0.418802
0.436571
0.491991
0.52882
0.544586
0.537663
-1.1e-07
-1.2e-07
-1.5e-07
-7e-08
-7e-08
0.0796932
0.0847509
0.0830699
0.0752121
0.061228
0.17398
0.190579
0.196956
0.19227
0.174544
0.264765
0.294452
0.310945
0.31249
0.297433
0.35195
0.394583
0.421335
0.429958
0.418802
0.436571
0.491991
0.52882
0.544586
0.537663
-0.0133095
-0.0112873
-0.00897772
-0.00630957
-0.00320301
-2.1e-07
0.0899065
0.0726169
0.0548747
0.0363123
0.0166316
-2.1e-07
0.189715
0.153662
0.116514
0.077575
0.0362849
-2.1e-07
0.282901
0.229106
0.173648
0.115604
0.0542076
-1.1e-07
0.366353
0.296185
0.223895
0.148415
0.0691263
-1.1e-07
-0.0133095
-0.0112873
-0.00897772
-0.00630957
-0.00320301
-2.1e-07
0.0899065
0.0726169
0.0548747
0.0363123
0.0166316
-2.1e-07
0.189715
0.153662
0.116514
0.077575
0.0362849
-2.1e-07
0.282901
0.229106
0.173648
0.115604
0.0542076
-1.1e-07
0.366353
0.296185
0.223895
0.148415
0.0691263
-1.1e-07
-0.466379
-0.377154
-0.28468
-0.187592
-0.0860992
5.9e-07
-0.394993
-0.320436
-0.243159
-0.162027
-0.0757613
-2.1e-07
-0.310617
-0.252582
-0.192286
-0.128674
-0.0607508
-2.1e-07
-0.216801
-0.176614
-0.134737
-0.0903177
-0.0425972
-2.1e-07
-0.116635
-0.0952755
-0.0728778
-0.0489224
-0.0229251
-2.1e-07
-0.466379
-0.377154
-0.28468
-0.187592
-0.0860992
5.9e-07
-0.394993
-0.320436
-0.243159
-0.162027
-0.0757613
-2.1e-07
-0.310617
-0.252582
-0.192286
-0.128674
-0.0607508
-2.1e-07
-0.216801
-0.176614
-0.134737
-0.0903177
-0.0425972
-2.1e-07
-0.116635
-0.0952755
-0.0728778
-0.0489224
-0.0229251
-2.1e-07
-0.523454
-0.562202
-0.580144
-0.575671
-0.547471
-0.421074
-0.449365
-0.459706
-0.450406
-0.420092
-0.315317
-0.332921
-0.335678
-0.321849
-0.29025
-0.204871
-0.211929
-0.207921
-0.190756
-0.160737
-0.0916746
-0.0901061
-0.0822412
-0.0679357
-0.0491415
2.9e-07
8e-08
6e-08
6e-08
6e-08
-0.523454
-0.562202
-0.580144
-0.575671
-0.547471
-0.421074
-0.449365
-0.459706
-0.450406
-0.420092
-0.315317
-0.332921
-0.335678
-0.321849
-0.29025
-0.204871
-0.211929
-0.207921
-0.190756
-0.160737
-0.0916746
-0.0901061
-0.0822412
-0.0679357
-0.0491415
2.9e-07
8e-08
6e-08
6e-08
6e-08
-0.494329
-0.416056
-0.314937
-0.198578
-0.0826684
-0.367882
-0.294809
-0.205639
-0.112494
-0.0318503
-0.240877
-0.177521
-0.108627
-0.0465262
-0.00053962
-0.120695
-0.0770434
-0.0372667
-0.00755323
0.0108339
-0.0294948
-0.0135906
-0.00225953
0.00438246
0.00769915
6e-08
6e-08
6e-08
6e-08
6e-08
-0.494329
-0.416056
-0.314937
-0.198578
-0.0826684
-0.367882
-0.294809
-0.205639
-0.112494
-0.0318503
-0.240877
-0.177521
-0.108627
-0.0465262
-0.00053962
-0.120695
-0.0770434
-0.0372667
-0.00755323
0.0108339
-0.0294948
-0.0135906
-0.00225953
0.00438246
0.00769915
6e-08
6e-08
6e-08
6e-08
6e-08
6e-08
0.0104419
0.0227957
0.0288988
0.0233246
0.002363
6e-08
0.0139343
0.0340799
0.0516757
0.0624363
0.0634252
6e-08
0.0174186
0.043106
0.0680021
0.0888552
0.103385
0
0.0187899
0.0453149
0.0716395
0.0955306
0.115342
6e-08
0.0104419
0.0227957
0.0288988
0.0233246
0.002363
6e-08
0.0139343
0.0340799
0.0516757
0.0624363
0.0634252
6e-08
0.0174186
0.043106
0.0680021
0.0888552
0.103385
0
0.0187899
0.0453149
0.0716395
0.0955306
0.115342
0.116578
0.108905
0.0677036
-0.00627432
-0.1038
-0.211876
-0.316488
-0.401716
-0.453259
-0.463969
-0.434522
-0.371984
-0.286804
-0.189857
-0.0892558
0.011455
0.110628
0.207478
0.29785
0.372421
0.420263
0.433663
0.411381
0.35866
0.284634
0.199439
0.111412
0.0235762
-0.0626589
-0.147146
-0.230136
-0.310252
-0.382909
-0.440859
-0.476638
-0.485204
-0.465448
-0.42045
-0.356523
-0.281428
-0.202574
-0.123341
-0.0448551
0.0323644
0.108112
0.181107
0.248125
0.304267
0.344214
0.363754
0.360804
0.335824
0.291727
0.233173
0.165481
0.0936527
0.0210301
-0.0512689
-0.122432
-0.191279
-0.255764
-0.312753
-0.358428
-0.389156
-0.402345
-0.396953
-0.373659
-0.334724
-0.283504
-0.223784
-0.159178
-0.0929043
-0.0266772
0.0384775
0.100828
0.158198
0.207903
0.246995
0.272816
0.283527
0.278428
0.258077
0.224191
0.179304
0.126326
0.0681298
0.00752117
-0.0532648
-0.113022
-0.169723
-0.221073
-0.264617
-0.297906
-0.318883
-0.326256
-0.319718
-0.299993
-0.268808
-0.228157
0.046572
0.0775431
0.070569
0.0349126
-0.0301711
-0.117413
-0.213922
-0.303791
-0.370973
-0.403966
-0.398003
-0.354899
-0.282298
-0.190673
-0.0906132
0.0103308
0.109131
0.204299
0.296044
0.382974
0.458181
0.511043
0.532641
0.519596
0.475314
0.407848
0.326782
0.240373
0.152596
0.0651591
-0.0214792
-0.107041
-0.189518
-0.263681
-0.322074
-0.357397
-0.364878
-0.343605
-0.296862
-0.231267
-0.154891
-0.0756445
0.00324641
0.0805199
0.155826
0.229298
0.300132
0.365584
0.421026
0.461151
0.481608
0.480122
0.45697
0.414859
0.35821
0.292047
0.221097
0.148591
0.0758761
0.00372752
-0.0663699
-0.132067
-0.190052
-0.236457
-0.267689
-0.28116
-0.275859
-0.252457
-0.213217
-0.161629
-0.101607
-0.0369257
0.0291167
0.0947868
0.158957
0.220166
0.276513
0.325509
0.364227
0.39002
0.400998
0.396385
0.376658
0.343442
0.299169
0.246618
0.188649
0.127985
0.0669372
0.00663437
-0.0508207
-0.102853
-0.146964
-0.180703
-0.202063
-0.209777
-0.203599
-0.184296
-0.153629
-0.11371
-0.066971
0.0408671
0.0368504
0.00926773
-0.0432135
-0.114704
-0.193637
-0.264804
-0.314094
-0.331753
-0.31438
-0.263335
-0.186083
-0.0926192
0.00715933
0.106529
0.20227
0.292819
0.378504
0.459889
0.533665
0.59078
0.621262
0.619623
0.586621
0.528566
0.454127
0.3713
0.284969
0.19754
0.109956
0.0229728
-0.0611189
-0.136649
-0.196116
-0.232415
-0.240864
-0.220426
-0.17418
-0.108821
-0.0326158
0.046268
0.124336
0.199982
0.273
0.343796
0.412069
0.475718
0.530601
0.571554
0.593995
0.595337
0.575476
0.536719
0.48314
0.4195
0.350177
0.27835
0.205726
0.133232
0.0623512
-0.00426935
-0.0631946
-0.110545
-0.142749
-0.157247
-0.152941
-0.130384
-0.0917636
-0.040568
0.0191483
0.0834336
0.14889
0.213726
0.27669
0.336572
0.391752
0.439923
0.478369
0.504376
0.515989
0.512332
0.493733
0.461678
0.418482
0.366846
0.309548
0.249191
0.188095
0.127573
0.0697281
0.0172463
-0.0272776
-0.0613951
-0.0831318
-0.091279
-0.085606
-0.066893
-0.0369473
0.00208095
0.047785
0.0209714
0.0214203
0.00441959
-0.0327567
-0.0861297
-0.145978
-0.199389
-0.234255
-0.241544
-0.217936
-0.164169
-0.0870469
0.00444193
0.101423
0.197753
0.289922
0.376135
0.456182
0.531144
0.600855
0.659956
0.698717
0.709281
0.689611
0.643498
0.578188
0.501258
0.418195
0.33221
0.244974
0.157789
0.0729815
-0.00376757
-0.0648874
-0.103434
-0.114824
-0.0974702
-0.0538784
0.00946873
0.0841983
0.162053
0.23888
0.312737
0.383394
0.451384
0.516843
0.578419
0.632728
0.674909
0.70018
0.705475
0.690164
0.655995
0.606595
0.546378
0.479528
0.409125
0.337129
0.264843
0.193782
0.126623
0.0669004
0.018476
-0.0151095
-0.0312561
-0.0287766
-0.00795187
0.02921
0.0792767
0.138097
0.201557
0.266192
0.32996
0.391569
0.449988
0.503851
0.551216
0.589463
0.615901
0.628483
0.626206
0.609207
0.578801
0.537164
0.486888
0.430676
0.371031
0.310204
0.249818
0.191943
0.139323
0.0946065
0.060235
0.0381446
0.0295201
0.0345912
0.0525762
0.0816703
0.11967
0.164222
0.0265434
0.0310429
0.024801
0.00285937
-0.0330287
-0.0755376
-0.114186
-0.138336
-0.139824
-0.114558
-0.0627007
0.0105397
0.0972778
0.189744
0.282064
0.370553
0.453131
0.52891
0.598355
0.662569
0.720238
0.764696
0.786926
0.78143
0.749291
0.695493
0.626854
0.549158
0.466335
0.380795
0.294456
0.209856
0.132189
0.0690294
0.0272381
0.0111275
0.023443
0.0625115
0.122368
0.194517
0.270696
0.345969
0.418049
0.486518
0.551871
0.614524
0.673819
0.727299
0.770745
0.799342
0.809479
0.799773
0.771267
0.727049
0.671124
0.607493
0.539288
0.468666
0.397186
0.326527
0.259269
0.198969
0.149456
0.114224
0.0958692
0.0958163
0.114139
0.149134
0.197459
0.254882
0.317157
0.380731
0.443299
0.503498
0.56044
0.612981
0.659459
0.697535
0.724609
0.738483
0.737943
0.722963
0.694668
0.655061
0.606578
0.551848
0.493322
0.433182
0.373303
0.3158
0.263388
0.218745
0.184293
0.161929
0.152826
0.157253
0.174433
0.202576
0.239444
0.282759
0.0675439
0.0690571
0.0671893
0.0562873
0.0349174
0.00700687
-0.0197248
-0.0360688
-0.0344335
-0.010457
0.0364738
0.102993
0.182894
0.269443
0.357053
0.441853
0.521468
0.594506
0.660492
0.720112
0.774086
0.819927
0.850466
0.858118
0.841083
0.801049
0.743291
0.673404
0.595816
0.513634
0.429329
0.345811
0.267831
0.202615
0.15684
0.135139
0.140943
0.174041
0.229038
0.297474
0.371171
0.444598
0.51501
0.581643
0.644789
0.704942
0.76196
0.81427
0.858563
0.89043
0.905697
0.90228
0.880384
0.842325
0.791689
0.732198
0.667001
0.598518
0.528505
0.458804
0.391907
0.331365
0.280927
0.243998
0.223123
0.219978
0.235247
0.267565
0.313611
0.369172
0.429971
0.492283
0.553594
0.612419
0.66791
0.719129
0.764708
0.802608
0.830378
0.845767
0.84729
0.834711
0.808969
0.771844
0.725623
0.672831
0.615851
0.556834
0.497874
0.441151
0.389323
0.345041
0.310742
0.288253
0.278752
0.282555
0.298907
0.326045
0.361728
0.161765
0.116578
0.108905
0.0677036
-0.00627432
-0.1038
-0.211876
-0.316488
-0.401716
-0.453259
-0.463969
-0.434522
-0.371984
-0.286804
-0.189857
-0.0892558
0.011455
0.110628
0.207478
0.29785
0.372421
0.420263
0.433663
0.411381
0.35866
0.284634
0.199439
0.111412
0.0235762
-0.0626589
-0.147146
-0.230136
-0.310252
-0.382909
-0.440859
-0.476638
-0.485204
-0.465448
-0.42045
-0.356523
-0.281428
-0.202574
-0.123341
-0.0448551
0.0323644
0.108112
0.181107
0.248125
0.304267
0.344214
0.363754
0.360804
0.335824
0.291727
0.233173
0.165481
0.0936527
0.0210301
-0.0512689
-0.122432
-0.191279
-0.255764
-0.312753
-0.358428
-0.389156
-0.402345
-0.396953
-0.373659
-0.334724
-0.283504
-0.223784
-0.159178
-0.0929043
-0.0266772
0.0384775
0.100828
0.158198
0.207903
0.246995
0.272816
0.283527
0.278428
0.258077
0.224191
0.179304
0.126326
0.0681298
0.00752117
-0.0532648
-0.113022
-0.169723
-0.221073
-0.264617
-0.297906
-0.318883
-0.326256
-0.319718
-0.299993
-0.268808
-0.228157
0.046572
0.0775431
0.070569
0.0349126
-0.0301711
-0.117413
-0.213922
-0.303791
-0.370973
-0.403966
-0.398003
-0.354899
-0.282298
-0.190673
-0.0906132
0.0103308
0.109131
0.204299
0.296044
0.382974
0.458181
0.511043
0.532641
0.519596
0.475314
0.407848
0.326782
0.240373
0.152596
0.0651591
-0.0214792
-0.107041
-0.189518
-0.263681
-0.322074
-0.357397
-0.364878
-0.343605
-0.296862
-0.231267
-0.154891
-0.0756445
0.00324641
0.0805199
0.155826
0.229298
0.300132
0.365584
0.421026
0.461151
0.481608
0.480122
0.45697
0.414859
0.35821
0.292047
0.221097
0.148591
0.0758761
0.00372752
-0.0663699
-0.132067
-0.190052
-0.236457
-0.267689
-0.28116
-0.275859
-0.252457
-0.213217
-0.161629
-0.101607
-0.0369257
0.0291167
0.0947868
0.158957
0.220166
0.276513
0.325509
0.364227
0.39002
0.400998
0.396385
0.376658
0.343442
0.299169
0.246618
0.188649
0.127985
0.0669372
0.00663437
-0.0508207
-0.102853
-0.146964
-0.180703
-0.202063
-0.209777
-0.203599
-0.184296
-0.153629
-0.11371
-0.066971
0.0408671
0.0368504
0.00926773
-0.0432135
-0.114704
-0.193637
-0.264804
-0.314094
-0.331753
-0.31438
-0.263335
-0.186083
-0.0926192
0.00715933
0.106529
0.20227
0.292819
0.378504
0.459889
0.533665
0.59078
0.621262
0.619623
0.586621
0.528566
0.454127
0.3713
0.284969
0.19754
0.109956
0.0229728
-0.0611189
-0.136649
-0.196116
-0.232415
-0.240864
-0.220426
-0.17418
-0.108821
-0.0326158
0.046268
0.124336
0.199982
0.273
0.343796
0.412069
0.475718
0.530601
0.571554
0.593995
0.595337
0.575476
0.536719
0.48314
0.4195
0.350177
0.27835
0.205726
0.133232
0.0623512
-0.00426935
-0.0631946
-0.110545
-0.142749
-0.157247
-0.152941
-0.130384
-0.0917636
-0.040568
0.0191483
0.0834336
0.14889
0.213726
0.27669
0.336572
0.391752
0.439923
0.478369
0.504376
0.515989
0.512332
0.493733
0.461678
0.418482
0.366846
0.309548
0.249191
0.188095
0.127573
0.0697281
0.0172463
-0.0272776
-0.0613951
-0.0831318
-0.091279
-0.085606
-0.066893
-0.0369473
0.00208095
0.047785
0.0209714
0.0214203
0.00441959
-0.0327567
-0.0861297
-0.145978
-0.199389
-0.234255
-0.241544
-0.217936
-0.164169
-0.0870469
0.00444193
0.101423
0.197753
0.289922
0.376135
0.456182
0.531144
0.600855
0.659956
0.698717
0.709281
0.689611
0.643498
0.578188
0.501258
0.418195
0.33221
0.244974
0.157789
0.0729815
-0.00376757
-0.0648874
-0.103434
-0.114824
-0.0974702
-0.0538784
0.00946873
0.0841983
0.162053
0.23888
0.312737
0.383394
0.451384
0.516843
0.578419
0.632728
0.674909
0.70018
0.705475
0.690164
0.655995
0.606595
0.546378
0.479528
0.409125
0.337129
0.264843
0.193782
0.126623
0.0669004
0.018476
-0.0151095
-0.0312561
-0.0287766
-0.00795187
0.02921
0.0792767
0.138097
0.201557
0.266192
0.32996
0.391569
0.449988
0.503851
0.551216
0.589463
0.615901
0.628483
0.626206
0.609207
0.578801
0.537164
0.486888
0.430676
0.371031
0.310204
0.249818
0.191943
0.139323
0.0946065
0.060235
0.0381446
0.0295201
0.0345912
0.0525762
0.0816703
0.11967
0.164222
0.0265434
0.0310429
0.024801
0.00285937
-0.0330287
-0.0755376
-0.114186
-0.138336
-0.139824
-0.114558
-0.0627007
0.0105397
0.0972778
0.189744
0.282064
0.370553
0.453131
0.52891
0.598355
0.662569
0.720238
0.764696
0.786926
0.78143
0.749291
0.695493
0.626854
0.549158
0.466335
0.380795
0.294456
0.209856
0.132189
0.0690294
0.0272381
0.0111275
0.023443
0.0625115
0.122368
0.194517
0.270696
0.345969
0.418049
0.486518
0.551871
0.614524
0.673819
0.727299
0.770745
0.799342
0.809479
0.799773
0.771267
0.727049
0.671124
0.607493
0.539288
0.468666
0.397186
0.326527
0.259269
0.198969
0.149456
0.114224
0.0958692
0.0958163
0.114139
0.149134
0.197459
0.254882
0.317157
0.380731
0.443299
0.503498
0.56044
0.612981
0.659459
0.697535
0.724609
0.738483
0.737943
0.722963
0.694668
0.655061
0.606578
0.551848
0.493322
0.433182
0.373303
0.3158
0.263388
0.218745
0.184293
0.161929
0.152826
0.157253
0.174433
0.202576
0.239444
0.282759
0.0675439
0.0690571
0.0671893
0.0562873
0.0349174
0.00700687
-0.0197248
-0.0360688
-0.0344335
-0.010457
0.0364738
0.102993
0.182894
0.269443
0.357053
0.441853
0.521468
0.594506
0.660492
0.720112
0.774086
0.819927
0.850466
0.858118
0.841083
0.801049
0.743291
0.673404
0.595816
0.513634
0.429329
0.345811
0.267831
0.202615
0.15684
0.135139
0.140943
0.174041
0.229038
0.297474
0.371171
0.444598
0.51501
0.581643
0.644789
0.704942
0.76196
0.81427
0.858563
0.89043
0.905697
0.90228
0.880384
0.842325
0.791689
0.732198
0.667001
0.598518
0.528505
0.458804
0.391907
0.331365
0.280927
0.243998
0.223123
0.219978
0.235247
0.267565
0.313611
0.369172
0.429971
0.492283
0.553594
0.612419
0.66791
0.719129
0.764708
0.802608
0.830378
0.845767
0.84729
0.834711
0.808969
0.771844
0.725623
0.672831
0.615851
0.556834
0.497874
0.441151
0.389323
0.345041
0.310742
0.288253
0.278752
0.282555
0.298907
0.326045
0.361728
0.161765
0.281235
0.266125
0.252889
0.23922
0.223418
0.206305
0.190781
0.181058
0.182309
0.198813
0.231934
0.281019
0.343521
0.41516
0.490974
0.566839
0.639838
0.7081
0.770387
0.825802
0.873925
0.91499
0.94879
0.972565
0.981559
0.971023
0.940702
0.893003
0.83201
0.761775
0.685779
0.607251
0.529988
0.459178
0.401416
0.362784
0.34717
0.358285
0.394093
0.448495
0.513479
0.582017
0.649513
0.713768
0.774194
0.830991
0.884511
0.934717
0.980593
1.01975
1.04865
1.06362
1.06212
1.04393
1.01059
0.964939
0.910182
0.849208
0.784446
0.717851
0.651497
0.587996
0.530722
0.483151
0.448384
0.4288
0.426233
0.441247
0.472363
0.516376
0.569275
0.626966
0.685843
0.743405
0.798184
0.849434
0.896459
0.938241
0.973127
0.998966
1.01371
1.01583
1.00489
0.981521
0.947215
0.903978
0.854116
0.79986
0.74333
0.6867
0.632227
0.582427
0.539808
0.50667
0.484743
0.475129
0.478085
0.492888
0.517887
0.550943
0.34807
0.534968
0.515913
0.498947
0.483354
0.468383
0.454901
0.445121
0.442235
0.449299
0.468407
0.50038
0.544678
0.59867
0.65878
0.721699
0.784596
0.845272
0.902141
0.953999
0.99982
1.03871
1.07001
1.09332
1.10799
1.11246
1.10417
1.08087
1.04242
0.990816
0.929248
0.861246
0.790567
0.721586
0.659681
0.61096
0.581136
0.574343
0.591024
0.628214
0.679803
0.739049
0.80041
0.860408
0.917422
0.970994
1.02117
1.06807
1.11161
1.15112
1.18495
1.21042
1.22437
1.22438
1.20964
1.18097
1.1405
1.09088
1.03475
0.974493
0.912212
0.850129
0.790862
0.737565
0.693427
0.661395
0.643884
0.642381
0.657015
0.686352
0.72753
0.776869
0.830524
0.885076
0.938132
0.98829
1.03488
1.07739
1.11509
1.14669
1.17036
1.18422
1.1868
1.17749
1.15663
1.12539
1.0855
1.03903
0.988065
0.934688
0.881085
0.829492
0.782291
0.741822
0.710235
0.689152
0.679553
0.681617
0.69467
0.717227
0.747305
0.154957
0.794432
0.775044
0.758356
0.743864
0.73143
0.721794
0.716589
0.717728
0.726734
0.744914
0.772774
0.80951
0.853388
0.902057
0.953133
1.0045
1.05438
1.10133
1.14413
1.1817
1.21301
1.23704
1.25292
1.26018
1.25868
1.24802
1.22711
1.19499
1.15194
1.09974
1.04135
0.98061
0.922135
0.871244
0.83355
0.813852
0.814627
0.834942
0.871163
0.918008
0.970138
1.02345
1.07547
1.12504
1.17173
1.21537
1.25585
1.29297
1.32624
1.35461
1.37629
1.38884
1.38997
1.3784
1.35426
1.31902
1.27481
1.22399
1.16888
1.11166
1.05461
1.00029
0.95164
0.911566
0.882763
0.867365
0.866585
0.880484
0.907743
0.945714
0.990984
1.04
1.08964
1.13769
1.18287
1.22457
1.26239
1.29582
1.32391
1.3452
1.35805
1.36104
1.35335
1.33507
1.30708
1.2708
1.2281
1.18091
1.13125
1.08125
1.03307
0.988953
0.951048
0.921328
0.901255
0.891691
0.892802
0.904
0.923967
0.950891
0.355089
1.05086
1.03291
1.01771
1.00506
0.995122
0.988407
0.985888
0.988718
0.997882
1.01408
1.03754
1.06765
1.10318
1.14251
1.18391
1.22577
1.26661
1.30515
1.34024
1.37086
1.396
1.41467
1.42586
1.42878
1.42318
1.40942
1.3879
1.35863
1.32172
1.27808
1.22987
1.18041
1.13394
1.09523
1.06897
1.05875
1.06544
1.08701
1.12007
1.1606
1.20473
1.24966
1.29373
1.33603
1.37606
1.4135
1.44802
1.47927
1.50681
1.52993
1.54752
1.55794
1.55935
1.55037
1.53052
1.50055
1.46203
1.41695
1.36753
1.31594
1.26447
1.21559
1.17197
1.13624
1.11081
1.09759
1.09759
1.11076
1.13579
1.17023
1.211
1.2549
1.29918
1.34189
1.3819
1.41865
1.45179
1.48094
1.50544
1.52416
1.53576
1.53893
1.53278
1.51712
1.49251
1.46009
1.42149
1.37848
1.33298
1.28703
1.24267
1.20198
1.16692
1.13927
1.12034
1.1109
1.11111
1.12045
1.13777
1.16146
0.148085
1.30224
1.28616
1.27278
1.26198
1.254
1.24923
1.24828
1.25187
1.26058
1.27478
1.29449
1.31923
1.34815
1.38009
1.41377
1.44791
1.4813
1.51284
1.54152
1.56639
1.58658
1.60122
1.60947
1.61053
1.60392
1.58974
1.56862
1.54135
1.50879
1.4721
1.43313
1.3946
1.35997
1.33296
1.31688
1.31352
1.32253
1.34237
1.37054
1.40396
1.44012
1.47719
1.51394
1.54957
1.58348
1.61522
1.64433
1.67037
1.69287
1.71128
1.7249
1.73273
1.73357
1.72623
1.70999
1.685
1.65222
1.61318
1.56987
1.52435
1.47884
1.43568
1.39733
1.36613
1.34421
1.33324
1.33402
1.34637
1.36901
1.39971
1.43571
1.47424
1.51296
1.55023
1.58507
1.61697
1.64558
1.67061
1.69155
1.7076
1.71774
1.72084
1.71602
1.70288
1.6817
1.6533
1.61904
1.58052
1.5395
1.49791
1.45765
1.42062
1.3886
1.36318
1.34551
1.33628
1.33564
1.34316
1.35786
1.37834
0.361391
1.54972
1.53546
1.52376
1.51456
1.50808
1.50461
1.50457
1.50835
1.51631
1.52862
1.54519
1.56566
1.58938
1.61547
1.64297
1.67086
1.69817
1.72395
1.74734
1.76753
1.78377
1.79535
1.80163
1.80204
1.79616
1.7839
1.76563
1.74215
1.71462
1.68451
1.6537
1.62452
1.5996
1.58148
1.57198
1.57159
1.58011
1.59659
1.61913
1.64576
1.67483
1.70505
1.7354
1.76511
1.79355
1.82017
1.84449
1.86602
1.88425
1.89869
1.90881
1.91401
1.91361
1.90687
1.8932
1.87243
1.84502
1.81202
1.775
1.73582
1.69652
1.65927
1.62629
1.59968
1.5813
1.57261
1.57422
1.58574
1.60591
1.63275
1.66387
1.69697
1.73015
1.76207
1.79192
1.81921
1.84359
1.86475
1.88232
1.89572
1.90421
1.90693
1.9031
1.89224
1.87437
1.85001
1.82023
1.78639
1.75008
1.71306
1.67707
1.64385
1.61497
1.59185
1.57551
1.56659
1.56521
1.57103
1.5832
1.60057
0.142679
1.79425
1.78172
1.77151
1.76365
1.7583
1.75569
1.75609
1.75973
1.76681
1.77737
1.7913
1.80828
1.8278
1.84919
1.87169
1.89451
1.91684
1.93791
1.95699
1.9734
1.98651
1.99576
2.00068
2.00088
1.99613
1.9864
1.97196
1.95341
1.93176
1.90836
1.88486
1.86315
1.84514
1.83248
1.8262
1.82657
1.83347
1.84626
1.8638
1.88478
1.90806
1.93259
1.95752
1.98212
2.00577
2.02792
2.04808
2.06575
2.08045
2.09171
2.09907
2.10209
2.10035
2.09353
2.08133
2.06366
2.04074
2.01323
1.98227
1.94938
1.91633
1.88503
1.85748
1.8355
1.8207
1.81432
1.81671
1.82727
1.84489
1.86783
1.89412
1.92194
1.94981
1.97669
2.00189
2.02493
2.04544
2.06312
2.07763
2.08853
2.09531
2.09737
2.09412
2.08511
2.07021
2.04971
2.02436
1.99526
1.96375
1.93139
1.89975
1.87038
1.84468
1.8239
1.80896
1.80045
1.79848
1.80275
1.81258
1.827
0.365714
2.03627
2.02533
2.01646
2.00971
2.00523
2.00319
2.00375
2.00707
2.01323
2.02221
2.03388
2.04797
2.06406
2.08163
2.10008
2.11876
2.13704
2.15427
2.16985
2.18322
2.19387
2.20135
2.20532
2.20551
2.20182
2.19431
2.18325
2.16916
2.15283
2.1353
2.11785
2.10186
2.08869
2.07946
2.07494
2.07539
2.08079
2.09071
2.10442
2.12105
2.13972
2.15962
2.18002
2.20027
2.21981
2.23811
2.25469
2.26912
2.28093
2.2897
2.29502
2.2965
2.29387
2.28696
2.27572
2.26024
2.24075
2.21775
2.19212
2.16503
2.13792
2.11241
2.09019
2.07283
2.0616
2.05728
2.06004
2.06947
2.08448
2.10358
2.12525
2.14815
2.17116
2.19346
2.21445
2.23368
2.25076
2.26537
2.27718
2.28585
2.29101
2.29226
2.28921
2.28154
2.2691
2.25202
2.2308
2.20625
2.17945
2.15172
2.12441
2.09888
2.07635
2.05793
2.04446
2.03649
2.0341
2.03704
2.0448
2.05651
0.139367
2.27603
2.26652
2.25883
2.25302
2.24922
2.24755
2.24813
2.25104
2.25631
2.26388
2.27363
2.28531
2.29858
2.31303
2.32817
2.34349
2.35846
2.37257
2.38532
2.39625
2.40496
2.41109
2.41439
2.41469
2.41193
2.40623
2.39785
2.38723
2.37502
2.362
2.34914
2.33741
2.32779
2.3211
2.3179
2.31848
2.32283
2.33067
2.34155
2.35482
2.36984
2.38599
2.40264
2.41925
2.4353
2.45034
2.46392
2.47563
2.48509
2.49192
2.49577
2.49633
2.49338
2.48681
2.47663
2.46303
2.44632
2.42701
2.40584
2.38376
2.36194
2.34167
2.32431
2.31109
2.30293
2.30023
2.30306
2.31107
2.32336
2.33877
2.35624
2.37476
2.39351
2.41179
2.42909
2.44498
2.45906
2.47102
2.48054
2.48732
2.49108
2.49155
2.48849
2.48172
2.47115
2.45686
2.4392
2.41874
2.39633
2.37299
2.34985
2.32806
2.30869
2.29269
2.28077
2.2734
2.27077
2.27269
2.2787
2.28805
0.368024
2.51383
2.50557
2.4989
2.49388
2.49061
2.4892
2.48972
2.4922
2.49665
2.50299
2.5111
2.52077
2.53172
2.54361
2.55605
2.56862
2.58091
2.59248
2.60294
2.61191
2.61908
2.62417
2.62699
2.62743
2.62547
2.62123
2.61496
2.60701
2.59791
2.58827
2.57881
2.57024
2.56328
2.55851
2.55639
2.55713
2.56075
2.56708
2.57581
2.58648
2.59862
2.61172
2.6253
2.63888
2.65202
2.66432
2.67539
2.68487
2.69244
2.69776
2.70057
2.70062
2.69775
2.69186
2.683
2.67137
2.65729
2.64125
2.62391
2.6061
2.58875
2.57288
2.55953
2.54955
2.54358
2.54187
2.54437
2.55078
2.56047
2.57263
2.58649
2.60131
2.61643
2.63129
2.64543
2.65844
2.66995
2.67965
2.68726
2.69251
2.69516
2.69501
2.69191
2.68579
2.67662
2.66451
2.64973
2.63273
2.61412
2.59473
2.57542
2.55716
2.54081
2.52722
2.51695
2.51037
2.50769
2.50886
2.51344
2.52072
0.137932
2.7499
2.74273
2.73693
2.73258
2.72975
2.72852
2.72893
2.731
2.73471
2.73999
2.74672
2.75472
2.76375
2.77353
2.78375
2.79409
2.80417
2.81369
2.82229
2.82969
2.83563
2.83991
2.84237
2.84294
2.84164
2.83858
2.83395
2.82807
2.82135
2.81425
2.80733
2.80111
2.79613
2.79282
2.79152
2.79239
2.79548
2.80067
2.80774
2.81638
2.82622
2.83686
2.84792
2.859
2.86973
2.87975
2.88875
2.89641
2.90245
2.9066
2.90866
2.90844
2.90582
2.90077
2.89332
2.88367
2.87211
2.85906
2.84511
2.83091
2.81724
2.80487
2.79455
2.7869
2.78233
2.78104
2.78297
2.78788
2.79535
2.80482
2.81573
2.82751
2.83963
2.85163
2.8631
2.87366
2.883
2.89081
2.89685
2.90088
2.90269
2.90214
2.89911
2.89357
2.88555
2.87519
2.86273
2.84855
2.83312
2.81709
2.80114
2.78603
2.77247
2.76113
2.75249
2.74684
2.74434
2.74493
2.74825
2.75373
0.368678
2.98444
2.97822
2.97319
2.9694
2.96693
2.96582
2.96612
2.96782
2.97088
2.97525
2.98081
2.98741
2.99485
3.0029
3.0113
3.0198
3.0281
3.03593
3.04302
3.04915
3.0541
3.05773
3.05991
3.0606
3.05983
3.05768
3.05435
3.05006
3.04515
3.03998
3.03496
3.0305
3.02699
3.02476
3.02406
3.02503
3.0277
3.032
3.03779
3.04482
3.05281
3.06147
3.07047
3.0795
3.08824
3.09639
3.10368
3.10986
3.11467
3.11792
3.11943
3.11908
3.11678
3.11253
3.10639
3.09852
3.08919
3.07874
3.06765
3.05644
3.04571
3.03604
3.02799
3.02199
3.01836
3.01725
3.01862
3.02231
3.02802
3.03537
3.04392
3.05325
3.06293
3.07256
3.0818
3.09033
3.09784
3.10409
3.10885
3.11192
3.11312
3.11234
3.1095
3.10457
3.09762
3.08878
3.07827
3.06643
3.05364
3.04043
3.02733
3.01494
3.00381
2.99446
2.98727
2.98248
2.98018
2.98028
2.98253
2.98647
0.137878
3.21769
3.21229
3.20791
3.20461
3.20243
3.20143
3.20161
3.20298
3.20549
3.20908
3.21366
3.21909
3.22521
3.23183
3.23874
3.24573
3.25256
3.25902
3.26488
3.26997
3.27412
3.27722
3.27917
3.27995
3.27958
3.27815
3.2758
3.27273
3.26919
3.26547
3.26189
3.25874
3.25632
3.25489
3.25463
3.25565
3.25798
3.26158
3.26635
3.27209
3.2786
3.28565
3.29298
3.30032
3.30743
3.31405
3.31995
3.32492
3.32876
3.3313
3.33242
3.33201
3.33004
3.3265
3.32147
3.31511
3.30762
3.2993
3.29052
3.2817
3.27327
3.26568
3.25935
3.25461
3.25169
3.2507
3.25165
3.25441
3.25879
3.26448
3.27119
3.27855
3.28625
3.29394
3.30135
3.30818
3.31419
3.31915
3.32288
3.32519
3.32595
3.32507
3.32248
3.31819
3.31225
3.30478
3.296
3.28616
3.27561
3.26476
3.25404
3.24392
3.23482
3.22713
3.22115
3.21704
3.21486
3.21454
3.21588
3.21853
0.368327
3.44978
3.4451
3.4413
3.43841
3.43649
3.43557
3.43565
3.43673
3.43877
3.44171
3.44546
3.44992
3.45495
3.46038
3.46607
3.47181
3.47743
3.48276
3.48762
3.49185
3.49535
3.498
3.49975
3.50058
3.50052
3.49963
3.49803
3.49588
3.49339
3.49075
3.48824
3.48606
3.48445
3.4836
3.48364
3.48468
3.48673
3.48976
3.4937
3.4984
3.50372
3.50947
3.51543
3.5214
3.52716
3.53253
3.53729
3.54128
3.54435
3.54634
3.54717
3.54677
3.54509
3.54218
3.53808
3.53295
3.52695
3.52033
3.51338
3.50642
3.49979
3.49383
3.48884
3.48508
3.48272
3.48187
3.48251
3.48459
3.48794
3.49237
3.49761
3.50342
3.50951
3.51563
3.52153
3.52698
3.53175
3.53567
3.53855
3.54028
3.54073
3.53982
3.53751
3.53383
3.52881
3.52258
3.51529
3.50718
3.49853
3.48966
3.48092
3.47266
3.46521
3.45887
3.45384
3.45026
3.44817
3.4475
3.4481
3.44971
0.138423
3.68088
3.67684
3.67354
3.67103
3.66934
3.66849
3.66849
3.66933
3.67096
3.67335
3.67642
3.68006
3.68418
3.68864
3.6933
3.69802
3.70264
3.70704
3.71106
3.71459
3.71754
3.71982
3.72139
3.72224
3.72239
3.7219
3.72086
3.71941
3.71768
3.71587
3.71414
3.71268
3.71166
3.71122
3.71147
3.71249
3.71429
3.71685
3.72011
3.72398
3.72833
3.733
3.73785
3.74269
3.74736
3.7517
3.75554
3.75875
3.76119
3.76276
3.76338
3.763
3.7616
3.75921
3.7559
3.75177
3.74698
3.74171
3.73621
3.73071
3.72549
3.72079
3.71685
3.71387
3.71197
3.71124
3.71168
3.71324
3.71582
3.71925
3.72335
3.72791
3.73272
3.73757
3.74224
3.74656
3.75032
3.75339
3.75561
3.75688
3.7571
3.75621
3.75419
3.75106
3.74685
3.74168
3.73568
3.72904
3.72197
3.71475
3.70763
3.70089
3.69478
3.68951
3.68527
3.68213
3.68012
3.67921
3.67928
3.68012
0.367868
3.91114
3.90765
3.90481
3.90263
3.90114
3.90036
3.9003
3.90094
3.90224
3.90416
3.90665
3.90962
3.91298
3.91663
3.92044
3.92431
3.9281
3.93172
3.93505
3.93799
3.94047
3.94243
3.94383
3.94467
3.94496
3.94476
3.94414
3.94319
3.94204
3.94082
3.93968
3.93874
3.93814
3.93799
3.93837
3.93934
3.94091
3.94307
3.94579
3.94896
3.95251
3.95631
3.96024
3.96417
3.96794
3.97144
3.97453
3.97709
3.97904
3.98027
3.98074
3.9804
3.97925
3.97731
3.97464
3.97133
3.96751
3.96333
3.95897
3.95464
3.95052
3.94682
3.94371
3.94134
3.93982
3.9392
3.9395
3.94067
3.94265
3.94531
3.94851
3.95208
3.95586
3.95967
3.96336
3.96675
3.96971
3.97209
3.97378
3.9747
3.97476
3.97392
3.97217
3.96952
3.96602
3.96175
3.95683
3.9514
3.94565
3.93977
3.93398
3.92848
3.92346
3.91909
3.91549
3.91274
3.91086
3.90982
3.90954
3.90986
0.138837
4.14065
4.13767
4.13523
4.13334
4.13204
4.13134
4.13123
4.13171
4.13273
4.13428
4.13628
4.13869
4.14141
4.14438
4.14748
4.15064
4.15374
4.15672
4.15946
4.1619
4.16398
4.16565
4.16689
4.16769
4.16807
4.16806
4.16773
4.16715
4.16642
4.16564
4.16491
4.16435
4.16404
4.16408
4.16453
4.16543
4.1668
4.16862
4.17086
4.17346
4.17635