/*--------------------------------*- C++ -*----------------------------------*\
| =========                 |                                                 |
| \\      /  F ield         | OpenFOAM: The Open Source CFD Toolbox           |
|  \\    /   O peration     | Version:  2506                                  |
|   \\  /    A nd           | Website:  www.openfoam.com                      |
|    \\/     M anipulation  |                                                 |
\*---------------------------------------------------------------------------*/
FoamFile
{
    version     2.0;
    format      ascii;
    arch        "LSB;label=32;scalar=64";
    class       volScalarField;
    location    "100";
    object      nut;
}
// * * * * * * * * * * * * * * * * * * * * * * * * * * * * * * * * * * * * * //

dimensions      [0 2 -1 0 0 0 0];

internalField   nonuniform List<scalar> 
1340
(
1.94575e-05
2.23557e-05
2.62561e-05
3.13567e-05
3.80536e-05
4.68468e-05
5.84427e-05
7.32486e-05
9.21479e-05
0.000115943
0.000145908
0.000184535
0.000235893
0.000306246
0.000405319
0.000551287
0.000772156
0.0011322
0.0017118
0.00282837
0.00468115
0.00946593
0.0177047
0.0478474
0.0874272
0.103174
0.104232
0.103849
0.104526
0.10477
0.103327
0.100217
0.0957658
0.0899832
0.082286
1.69786e-05
1.48281e-05
1.27513e-05
1.08556e-05
9.1393e-06
7.71964e-06
6.91701e-06
5.32235e-06
5.22406e-06
5.12956e-06
5.04302e-06
4.94242e-06
4.84295e-06
4.75506e-06
4.66636e-06
4.59548e-06
4.5432e-06
4.50622e-06
4.52182e-06
4.54589e-06
4.91571e-06
6.7194e-06
1.22941e-05
3.08747e-05
8.13688e-05
0.000171141
0.000353814
0.000679296
0.00162836
0.00338154
0.00909934
0.0219322
0.0391778
0.0612154
0.0868849
0.11205
0.130549
0.140041
0.143413
0.143814
0.142489
0.140002
5.39681e-06
5.49871e-06
5.5915e-06
5.71055e-06
5.82484e-06
5.93116e-06
6.19952e-06
6.21877e-06
6.23764e-06
6.25772e-06
6.28133e-06
6.30689e-06
6.33512e-06
6.3671e-06
6.40343e-06
6.44447e-06
6.49204e-06
6.54738e-06
6.61169e-06
6.69311e-06
6.77289e-06
6.96514e-06
6.44517e-06
5.57646e-06
1.61902e-06
3.30526e-10
0.000127761
7.90291e-05
8.02296e-05
0.00190923
0.000422809
0.00235618
0.00658661
0.0152547
0.0315655
0.0575123
0.0904433
0.122359
0.146369
0.16219
0.172884
6.18507e-06
6.17139e-06
6.1633e-06
6.15243e-06
6.14619e-06
6.13585e-06
6.07044e-06
6.06834e-06
6.06883e-06
6.06986e-06
6.07094e-06
6.07341e-06
6.07788e-06
6.08394e-06
6.09278e-06
6.10436e-06
6.11918e-06
6.13802e-06
6.16186e-06
6.19198e-06
6.22918e-06
6.28116e-06
6.33036e-06
6.28617e-06
5.77377e-06
3.81537e-06
9.39658e-07
1.63323e-10
1.13221e-06
0
5.87057e-05
0.000499198
0.00142338
2.19279e-05
0.000791785
0.005559
0.0186437
0.0451101
0.0847396
0.127408
0.163748
6.07562e-06
6.08435e-06
6.09165e-06
6.09728e-06
6.10429e-06
6.10028e-06
6.09681e-06
6.09558e-06
6.09423e-06
6.09351e-06
6.0937e-06
6.09526e-06
6.09826e-06
6.10265e-06
6.10852e-06
6.11596e-06
6.12519e-06
6.13653e-06
6.15045e-06
6.16784e-06
6.18956e-06
6.21826e-06
6.25504e-06
6.33697e-06
6.44893e-06
5.70182e-06
3.0863e-06
6.23666e-07
1.16184e-08
7.99001e-10
0
0
7.70398e-08
0.000163563
0.00124025
0.00430931
0.00349612
0.0185082
0.0553063
0.110421
6.10746e-06
6.11319e-06
6.11671e-06
6.11665e-06
6.11759e-06
6.10838e-06
6.10396e-06
6.1013e-06
6.09849e-06
6.09578e-06
6.09391e-06
6.09296e-06
6.09298e-06
6.0942e-06
6.09649e-06
6.09979e-06
6.10422e-06
6.10982e-06
6.1168e-06
6.12549e-06
6.13635e-06
6.1504e-06
6.16756e-06
6.18489e-06
6.23981e-06
6.29087e-06
6.5555e-06
5.89684e-06
3.90005e-06
5.15699e-07
1.19476e-08
3.56234e-09
3.94806e-10
0
0
0
0.000823067
0.00109903
0.00825215
0.0419536
6.11383e-06
6.11658e-06
6.11693e-06
6.11482e-06
6.11596e-06
6.11288e-06
6.11022e-06
6.10675e-06
6.10325e-06
6.10022e-06
6.09779e-06
6.09606e-06
6.09512e-06
6.09479e-06
6.09511e-06
6.09626e-06
6.09824e-06
6.10103e-06
6.10467e-06
6.10923e-06
6.1151e-06
6.12203e-06
6.13004e-06
6.13873e-06
6.15176e-06
6.21352e-06
6.56006e-06
6.81162e-06
6.00886e-06
4.00039e-06
1.99756e-06
2.20615e-07
1.04904e-08
8.04459e-10
0
0
0.000245134
0.00197113
0.00289104
6.11625e-06
6.11411e-06
6.11054e-06
6.1071e-06
6.11453e-06
6.11442e-06
6.11354e-06
6.11152e-06
6.10909e-06
6.10675e-06
6.10467e-06
6.103e-06
6.10185e-06
6.10115e-06
6.101e-06
6.10148e-06
6.1026e-06
6.10437e-06
6.10687e-06
6.11011e-06
6.11431e-06
6.11961e-06
6.1255e-06
6.13099e-06
6.13739e-06
6.1357e-06
6.19053e-06
6.3618e-06
6.71843e-06
6.91315e-06
6.825e-06
5.53015e-06
3.62235e-06
4.11908e-07
1.30289e-08
8.64728e-12
0
0
0.000782194
6.10886e-06
6.10224e-06
6.09587e-06
6.09265e-06
6.10459e-06
6.10954e-06
6.11147e-06
6.11167e-06
6.11114e-06
6.11018e-06
6.10919e-06
6.10808e-06
6.10689e-06
6.10571e-06
6.10469e-06
6.10395e-06
6.10352e-06
6.10346e-06
6.10381e-06
6.10452e-06
6.10554e-06
6.1067e-06
6.1083e-06
6.11091e-06
6.11531e-06
6.11841e-06
6.11855e-06
6.13067e-06
6.20745e-06
6.38029e-06
6.65622e-06
7.04443e-06
7.36701e-06
6.06896e-06
4.13638e-06
4.21006e-09
2.80112e-10
0
0
6.0944e-06
6.08523e-06
6.07833e-06
6.1082e-06
6.10855e-06
6.10956e-06
6.1096e-06
6.10932e-06
6.10889e-06
6.10831e-06
6.1077e-06
6.1072e-06
6.10694e-06
6.10704e-06
6.10757e-06
6.1086e-06
6.1102e-06
6.11232e-06
6.1147e-06
6.1174e-06
6.12075e-06
6.12355e-06
6.12282e-06
6.11848e-06
6.13208e-06
6.18294e-06
6.34077e-06
6.65919e-06
7.14447e-06
7.69718e-06
5.79821e-06
1.02531e-07
2.61477e-10
0
6.10357e-06
6.10471e-06
6.10659e-06
6.10772e-06
6.10822e-06
6.10837e-06
6.10833e-06
6.10824e-06
6.10822e-06
6.10833e-06
6.10868e-06
6.10931e-06
6.11026e-06
6.11173e-06
6.11392e-06
6.11702e-06
6.12095e-06
6.12533e-06
6.12682e-06
6.1245e-06
6.11848e-06
6.12406e-06
6.15365e-06
6.35969e-06
6.66144e-06
8.15935e-06
7.40064e-06
6.77011e-08
5.17351e-14
6.09916e-06
6.10236e-06
6.10441e-06
6.10596e-06
6.1071e-06
6.10792e-06
6.10854e-06
6.10907e-06
6.10967e-06
6.11041e-06
6.1114e-06
6.11261e-06
6.11415e-06
6.11624e-06
6.1191e-06
6.12301e-06
6.1277e-06
6.13184e-06
6.13322e-06
6.13065e-06
6.11501e-06
6.12222e-06
6.14036e-06
6.38848e-06
8.88508e-06
5.94153e-06
9.65566e-09
6.09272e-06
6.09704e-06
6.10034e-06
6.10284e-06
6.10475e-06
6.10628e-06
6.10757e-06
6.10874e-06
6.10987e-06
6.11102e-06
6.11228e-06
6.11374e-06
6.11553e-06
6.11786e-06
6.12093e-06
6.12493e-06
6.12994e-06
6.13554e-06
6.14065e-06
6.14401e-06
6.12548e-06
6.13972e-06
5.99728e-06
6.2703e-06
1.06063e-05
2.10392e-06
6.08835e-06
6.09271e-06
6.09603e-06
6.09884e-06
6.10136e-06
6.10364e-06
6.10573e-06
6.10764e-06
6.10944e-06
6.11122e-06
6.11302e-06
6.1149e-06
6.11702e-06
6.11962e-06
6.12288e-06
6.127e-06
6.13232e-06
6.13797e-06
6.1482e-06
6.14665e-06
6.15248e-06
6.19075e-06
5.57135e-06
7.97587e-06
8.91861e-06
6.08031e-06
6.0843e-06
6.088e-06
6.09146e-06
6.09475e-06
6.09782e-06
6.10069e-06
6.10334e-06
6.10582e-06
6.10822e-06
6.11061e-06
6.11297e-06
6.11536e-06
6.11792e-06
6.12088e-06
6.1244e-06
6.12902e-06
6.13394e-06
6.14147e-06
6.15391e-06
6.1334e-06
6.26619e-06
5.90757e-06
5.74583e-06
1.22889e-05
6.07866e-06
6.08176e-06
6.08508e-06
6.08844e-06
6.0917e-06
6.09487e-06
6.09794e-06
6.10094e-06
6.10387e-06
6.10688e-06
6.10988e-06
6.11281e-06
6.11568e-06
6.11866e-06
6.12192e-06
6.12593e-06
6.13075e-06
6.13515e-06
6.151e-06
6.13187e-06
6.19933e-06
6.2685e-06
5.28417e-06
9.60678e-06
6.07878e-06
6.08104e-06
6.08368e-06
6.08645e-06
6.08937e-06
6.09241e-06
6.09555e-06
6.09872e-06
6.1021e-06
6.10564e-06
6.10921e-06
6.11267e-06
6.11604e-06
6.11943e-06
6.12311e-06
6.12788e-06
6.13128e-06
6.14314e-06
6.14404e-06
6.12809e-06
6.36739e-06
5.5883e-06
6.84663e-06
6.07963e-06
6.08018e-06
6.08148e-06
6.08333e-06
6.08557e-06
6.08811e-06
6.09091e-06
6.09389e-06
6.09718e-06
6.10082e-06
6.10471e-06
6.10868e-06
6.11255e-06
6.11637e-06
6.12016e-06
6.12478e-06
6.12875e-06
6.13516e-06
6.15121e-06
6.10541e-06
6.30129e-06
6.0109e-06
5.55154e-06
6.08148e-06
6.08168e-06
6.08261e-06
6.08399e-06
6.08575e-06
6.08787e-06
6.09032e-06
6.09313e-06
6.09642e-06
6.10017e-06
6.10425e-06
6.10842e-06
6.11263e-06
6.11678e-06
6.1213e-06
6.1262e-06
6.12938e-06
6.14864e-06
6.11537e-06
6.20079e-06
6.29125e-06
5.13589e-06
6.08339e-06
6.08316e-06
6.08332e-06
6.08391e-06
6.08493e-06
6.08635e-06
6.08815e-06
6.09033e-06
6.093e-06
6.09624e-06
6.1e-06
6.10412e-06
6.10846e-06
6.11292e-06
6.11747e-06
6.12295e-06
6.12559e-06
6.14077e-06
6.13178e-06
6.12819e-06
6.40883e-06
5.13572e-06
6.08404e-06
6.08404e-06
6.08433e-06
6.08493e-06
6.08585e-06
6.08711e-06
6.08871e-06
6.09073e-06
6.0933e-06
6.09646e-06
6.10017e-06
6.10431e-06
6.10882e-06
6.11343e-06
6.11906e-06
6.12264e-06
6.13218e-06
6.14205e-06
6.09285e-06
6.41965e-06
5.30916e-06
6.08364e-06
6.08409e-06
6.08449e-06
6.08498e-06
6.08567e-06
6.08659e-06
6.08778e-06
6.08929e-06
6.09123e-06
6.09373e-06
6.09682e-06
6.10048e-06
6.10473e-06
6.10928e-06
6.11472e-06
6.11954e-06
6.12487e-06
6.14457e-06
6.08213e-06
6.38062e-06
5.53477e-06
6.08329e-06
6.08402e-06
6.08464e-06
6.08531e-06
6.08612e-06
6.08711e-06
6.08831e-06
6.08981e-06
6.09175e-06
6.09421e-06
6.09727e-06
6.10101e-06
6.10528e-06
6.1103e-06
6.11592e-06
6.11904e-06
6.14157e-06
6.08367e-06
6.32126e-06
5.77464e-06
6.08199e-06
6.08297e-06
6.0838e-06
6.08461e-06
6.08549e-06
6.08647e-06
6.08758e-06
6.08887e-06
6.09044e-06
6.0924e-06
6.09489e-06
6.09804e-06
6.10186e-06
6.10631e-06
6.11212e-06
6.11445e-06
6.13555e-06
6.09113e-06
6.2525e-06
6.00884e-06
6.08062e-06
6.08166e-06
6.08265e-06
6.08362e-06
6.08461e-06
6.08565e-06
6.08676e-06
6.08796e-06
6.08931e-06
6.09093e-06
6.09295e-06
6.09555e-06
6.09886e-06
6.10274e-06
6.10832e-06
6.11067e-06
6.12823e-06
6.10146e-06
6.18393e-06
6.20115e-06
6.08056e-06
6.08155e-06
6.08256e-06
6.08358e-06
6.08464e-06
6.08576e-06
6.08694e-06
6.0882e-06
6.0896e-06
6.09128e-06
6.09339e-06
6.09616e-06
6.09947e-06
6.10446e-06
6.10725e-06
6.12039e-06
6.11141e-06
6.12724e-06
6.31274e-06
6.07997e-06
6.08073e-06
6.08161e-06
6.08256e-06
6.08359e-06
6.08472e-06
6.08592e-06
6.08717e-06
6.08851e-06
6.09001e-06
6.09179e-06
6.09407e-06
6.09683e-06
6.10096e-06
6.10423e-06
6.11272e-06
6.11836e-06
6.09107e-06
6.33537e-06
6.08001e-06
6.08044e-06
6.08106e-06
6.08183e-06
6.08275e-06
6.08378e-06
6.08492e-06
6.08614e-06
6.08743e-06
6.08884e-06
6.09044e-06
6.0924e-06
6.09476e-06
6.09806e-06
6.10167e-06
6.10625e-06
6.12072e-06
6.07672e-06
6.29151e-06
6.08064e-06
6.08095e-06
6.08149e-06
6.0822e-06
6.08305e-06
6.08401e-06
6.08509e-06
6.08627e-06
6.08758e-06
6.08906e-06
6.09079e-06
6.09286e-06
6.09552e-06
6.09921e-06
6.1014e-06
6.11816e-06
6.07973e-06
6.21672e-06
6.08123e-06
6.08132e-06
6.08162e-06
6.08209e-06
6.0827e-06
6.08344e-06
6.08432e-06
6.08534e-06
6.0865e-06
6.08784e-06
6.08938e-06
6.09122e-06
6.09336e-06
6.09678e-06
6.09808e-06
6.11212e-06
6.09101e-06
6.14483e-06
6.08209e-06
6.08205e-06
6.08214e-06
6.08238e-06
6.08278e-06
6.08329e-06
6.08392e-06
6.08471e-06
6.08567e-06
6.08684e-06
6.08821e-06
6.08985e-06
6.09167e-06
6.09458e-06
6.09597e-06
6.10512e-06
6.10144e-06
6.09883e-06
6.08284e-06
6.08278e-06
6.08287e-06
6.08308e-06
6.08337e-06
6.08375e-06
6.08428e-06
6.08499e-06
6.08593e-06
6.08709e-06
6.08854e-06
6.09016e-06
6.09254e-06
6.09442e-06
6.09916e-06
6.10614e-06
6.08226e-06
6.08355e-06
6.08348e-06
6.08349e-06
6.08358e-06
6.08371e-06
6.08388e-06
6.08416e-06
6.08461e-06
6.08528e-06
6.08619e-06
6.08737e-06
6.0888e-06
6.09068e-06
6.09288e-06
6.09503e-06
6.10496e-06
6.08428e-06
6.08424e-06
6.08419e-06
6.08416e-06
6.08419e-06
6.08423e-06
6.08429e-06
6.08439e-06
6.08462e-06
6.08502e-06
6.08566e-06
6.08655e-06
6.08773e-06
6.0892e-06
6.09132e-06
6.09256e-06
6.10056e-06
6.0848e-06
6.08476e-06
6.08475e-06
6.08474e-06
6.08471e-06
6.08469e-06
6.08475e-06
6.08494e-06
6.08533e-06
6.08595e-06
6.08687e-06
6.08803e-06
6.08981e-06
6.09106e-06
6.09587e-06
6.08533e-06
6.08529e-06
6.08527e-06
6.08523e-06
6.08514e-06
6.08504e-06
6.08498e-06
6.085e-06
6.08517e-06
6.08553e-06
6.08616e-06
6.08705e-06
6.08842e-06
6.08983e-06
6.09235e-06
6.08589e-06
6.08582e-06
6.08578e-06
6.08572e-06
6.0856e-06
6.08546e-06
6.08532e-06
6.08522e-06
6.08522e-06
6.08535e-06
6.0857e-06
6.08631e-06
6.08728e-06
6.08861e-06
6.09007e-06
6.08652e-06
6.08641e-06
6.08633e-06
6.08623e-06
6.08608e-06
6.0859e-06
6.08572e-06
6.08555e-06
6.08544e-06
6.08541e-06
6.08553e-06
6.08586e-06
6.08647e-06
6.0875e-06
6.08859e-06
6.08726e-06
6.08712e-06
6.08699e-06
6.08683e-06
6.08664e-06
6.08641e-06
6.08619e-06
6.08597e-06
6.08578e-06
6.08563e-06
6.08558e-06
6.08569e-06
6.086e-06
6.08667e-06
6.08755e-06
6.08792e-06
6.08772e-06
6.0875e-06
6.08724e-06
6.08696e-06
6.08668e-06
6.08641e-06
6.08615e-06
6.08593e-06
6.08575e-06
6.08569e-06
6.08578e-06
6.08612e-06
6.08677e-06
6.08874e-06
6.08851e-06
6.08824e-06
6.08792e-06
6.08757e-06
6.08723e-06
6.08688e-06
6.08655e-06
6.08624e-06
6.08596e-06
6.08576e-06
6.08568e-06
6.08577e-06
6.08615e-06
6.08963e-06
6.08936e-06
6.08906e-06
6.08871e-06
6.08835e-06
6.08796e-06
6.08756e-06
6.08715e-06
6.08674e-06
6.08634e-06
6.08599e-06
6.08572e-06
6.0856e-06
6.0857e-06
6.09054e-06
6.09027e-06
6.09001e-06
6.08974e-06
6.08943e-06
6.08907e-06
6.08864e-06
6.08816e-06
6.08765e-06
6.08713e-06
6.0866e-06
6.08612e-06
6.08574e-06
6.08554e-06
6.09145e-06
6.09124e-06
6.09104e-06
6.09083e-06
6.09057e-06
6.09026e-06
6.08989e-06
6.08944e-06
6.08892e-06
6.08832e-06
6.08768e-06
6.08702e-06
6.08638e-06
6.08584e-06
6.09214e-06
6.09198e-06
6.09184e-06
6.09166e-06
6.09141e-06
6.0911e-06
6.09073e-06
6.09028e-06
6.08973e-06
6.08908e-06
6.08834e-06
6.08754e-06
6.08673e-06
6.09294e-06
6.09284e-06
6.09276e-06
6.09265e-06
6.09248e-06
6.09225e-06
6.09194e-06
6.09157e-06
6.09111e-06
6.09056e-06
6.08989e-06
6.08907e-06
6.09366e-06
6.09362e-06
6.0936e-06
6.09355e-06
6.09345e-06
6.09329e-06
6.09307e-06
6.09277e-06
6.09239e-06
6.09194e-06
6.09138e-06
6.09069e-06
6.09432e-06
6.09433e-06
6.09436e-06
6.09437e-06
6.09434e-06
6.09425e-06
6.0941e-06
6.09388e-06
6.09358e-06
6.09321e-06
6.09274e-06
6.09218e-06
6.09492e-06
6.09498e-06
6.09505e-06
6.09512e-06
6.09514e-06
6.09511e-06
6.09503e-06
6.09489e-06
6.09467e-06
6.09438e-06
6.09401e-06
6.09354e-06
6.09557e-06
6.09567e-06
6.09578e-06
6.09586e-06
6.09589e-06
6.09588e-06
6.09581e-06
6.09568e-06
6.09548e-06
6.09519e-06
6.09481e-06
6.09606e-06
6.09621e-06
6.09636e-06
6.09648e-06
6.09657e-06
6.09663e-06
6.09663e-06
6.09658e-06
6.09646e-06
6.09626e-06
6.09598e-06
6.09644e-06
6.09664e-06
6.09684e-06
6.09701e-06
6.09715e-06
6.09726e-06
6.09733e-06
6.09735e-06
6.09731e-06
6.0972e-06
6.09702e-06
6.0967e-06
6.09696e-06
6.09721e-06
6.09743e-06
6.09763e-06
6.09779e-06
6.09792e-06
6.098e-06
6.09804e-06
6.09801e-06
6.09792e-06
6.09683e-06
6.09714e-06
6.09745e-06
6.09773e-06
6.09798e-06
6.0982e-06
6.09839e-06
6.09854e-06
6.09864e-06
6.09869e-06
6.09868e-06
6.09681e-06
6.09719e-06
6.09755e-06
6.09789e-06
6.0982e-06
6.09848e-06
6.09873e-06
6.09894e-06
6.09911e-06
6.09924e-06
6.09665e-06
6.09708e-06
6.0975e-06
6.0979e-06
6.09827e-06
6.09861e-06
6.09893e-06
6.09921e-06
6.09945e-06
6.09965e-06
6.09681e-06
6.09728e-06
6.09773e-06
6.09818e-06
6.09859e-06
6.09898e-06
6.09933e-06
6.09965e-06
6.09992e-06
6.09638e-06
6.0969e-06
6.09741e-06
6.09791e-06
6.0984e-06
6.09886e-06
6.09928e-06
6.09968e-06
6.10003e-06
6.09578e-06
6.09635e-06
6.09691e-06
6.09747e-06
6.09802e-06
6.09854e-06
6.09905e-06
6.09952e-06
6.09995e-06
6.09499e-06
6.09559e-06
6.0962e-06
6.09681e-06
6.09742e-06
6.09801e-06
6.09859e-06
6.09915e-06
6.09967e-06
6.09396e-06
6.09459e-06
6.09523e-06
6.09588e-06
6.09655e-06
6.09721e-06
6.09786e-06
6.0985e-06
6.09912e-06
6.09269e-06
6.09333e-06
6.09399e-06
6.09468e-06
6.09538e-06
6.09609e-06
6.09681e-06
6.09753e-06
6.09121e-06
6.09186e-06
6.09253e-06
6.09322e-06
6.09394e-06
6.09469e-06
6.09545e-06
6.09622e-06
6.08962e-06
6.09027e-06
6.09093e-06
6.09162e-06
6.09234e-06
6.0931e-06
6.09388e-06
6.09468e-06
6.0886e-06
6.08925e-06
6.08994e-06
6.09066e-06
6.09141e-06
6.09219e-06
6.093e-06
6.08685e-06
6.08749e-06
6.08816e-06
6.08887e-06
6.08962e-06
6.0904e-06
6.0912e-06
6.08498e-06
6.08561e-06
6.08628e-06
6.08698e-06
6.08773e-06
6.08851e-06
6.08931e-06
6.08319e-06
6.08382e-06
6.08449e-06
6.0852e-06
6.08596e-06
6.08675e-06
6.08756e-06
6.08146e-06
6.08207e-06
6.08273e-06
6.08344e-06
6.08419e-06
6.08497e-06
6.07962e-06
6.08019e-06
6.0808e-06
6.08146e-06
6.08219e-06
6.08293e-06
6.0777e-06
6.07822e-06
6.07877e-06
6.07938e-06
6.08005e-06
6.08073e-06
6.07568e-06
6.07615e-06
6.07664e-06
6.07719e-06
6.0778e-06
6.0784e-06
6.07361e-06
6.07401e-06
6.07443e-06
6.0749e-06
6.07544e-06
6.07595e-06
6.07155e-06
6.07187e-06
6.07222e-06
6.07261e-06
6.07307e-06
6.07349e-06
6.06983e-06
6.07005e-06
6.0703e-06
6.07062e-06
6.07092e-06
6.0696e-06
6.06957e-06
6.06958e-06
6.06963e-06
6.06968e-06
6.07099e-06
6.07091e-06
6.07083e-06
6.07076e-06
6.07065e-06
6.07299e-06
6.07294e-06
6.0728e-06
6.07255e-06
6.0747e-06
6.07501e-06
6.07544e-06
6.07591e-06
6.08124e-06
6.0814e-06
6.08158e-06
6.08159e-06
)
;

boundaryField
{
    inlet
    {
        type            freestream;
        freestreamValue uniform 1e-05;
        value           nonuniform List<scalar> 4(6.08124e-06 6.0814e-06 6.08158e-06 6.08159e-06);
    }
    outlet
    {
        type            freestream;
        freestreamValue nonuniform List<scalar> 0();
        value           nonuniform List<scalar> 0();
    }
    walls
    {
        type            nutUSpaldingWallFunction;
        value           nonuniform List<scalar> 
42
(
0.00264903
0.00288983
0.00314083
0.00335114
0.0035514
0.00373237
0.00388173
0.00400449
0.00410238
0.00417372
0.00422433
0.00425638
0.00427043
0.004266
0.00423605
0.00417887
0.00408954
0.00396432
0.0037942
0.00357361
0.00328965
0.00293963
0.00253185
0.00214071
0.00190539
0.0018545
0.00191429
0.00200577
0.00208574
0.00213256
0.00213163
0.00208087
0.00198745
0.00185447
0.0016683
0.00239716
0.00211541
0.00180303
0.00142506
0.00102189
0.000643285
0.00048408
)
;
    }
    frontAndBack
    {
        type            empty;
    }
    procBoundary5to0
    {
        type            processor;
        value           nonuniform List<scalar> 4(6.08837e-06 6.07702e-06 6.06858e-06 6.06412e-06);
    }
    procBoundary5to1
    {
        type            processor;
        value           nonuniform List<scalar> 
13
(
8.40038e-06
6.01946e-06
6.01946e-06
6.12123e-06
6.10695e-06
6.10695e-06
6.11719e-06
6.11339e-06
6.11339e-06
6.10477e-06
6.09128e-06
6.07669e-06
6.07669e-06
)
;
    }
    procBoundary5to4
    {
        type            processor;
        value           nonuniform List<scalar> 
95
(
6.09977e-06
6.10345e-06
6.10532e-06
6.10532e-06
6.09592e-06
6.09883e-06
6.09883e-06
6.09044e-06
6.09383e-06
6.09383e-06
6.08716e-06
6.08716e-06
6.08204e-06
6.08204e-06
6.07671e-06
6.07665e-06
6.07665e-06
6.07809e-06
6.07809e-06
6.08018e-06
6.08239e-06
6.08239e-06
6.08376e-06
6.08386e-06
6.08386e-06
6.08287e-06
6.08211e-06
6.08211e-06
6.08073e-06
6.07967e-06
6.07974e-06
6.07974e-06
6.07958e-06
6.07993e-06
6.08074e-06
6.08074e-06
6.08151e-06
6.08234e-06
6.08309e-06
6.08309e-06
6.08378e-06
6.08437e-06
6.08492e-06
6.08492e-06
6.08547e-06
6.08607e-06
6.08675e-06
6.0875e-06
6.08819e-06
6.08819e-06
6.08906e-06
6.08996e-06
6.09085e-06
6.09167e-06
6.09234e-06
6.09234e-06
6.09307e-06
6.09374e-06
6.09435e-06
6.0949e-06
6.0955e-06
6.0955e-06
6.09593e-06
6.09625e-06
6.09645e-06
6.09651e-06
6.09643e-06
6.09621e-06
6.09631e-06
6.09631e-06
6.09584e-06
6.0952e-06
6.09437e-06
6.09332e-06
6.09204e-06
6.09057e-06
6.08899e-06
6.08796e-06
6.08796e-06
6.08622e-06
6.08437e-06
6.08258e-06
6.08088e-06
6.07908e-06
6.07721e-06
6.07525e-06
6.07324e-06
6.07125e-06
6.06963e-06
6.06963e-06
6.06965e-06
6.07107e-06
6.07305e-06
6.07437e-06
6.081e-06
)
;
    }
    procBoundary5to6
    {
        type            processor;
        value           nonuniform List<scalar> 
86
(
0.0732868
0.135907
0.18006
0.193065
0.169247
0.112334
0.047227
0.00486879
0.00195719
0.000120578
0
0
1.78098e-12
2.18788e-09
2.99722e-07
4.33897e-06
1.04155e-05
1.23791e-05
1.15185e-05
9.78953e-06
8.19381e-06
6.95917e-06
6.09758e-06
5.53992e-06
5.28837e-06
5.31436e-06
5.53491e-06
5.82465e-06
6.07386e-06
6.22121e-06
6.25794e-06
6.21957e-06
6.16001e-06
6.09164e-06
6.09164e-06
6.09634e-06
6.09665e-06
6.09429e-06
6.09143e-06
6.08919e-06
6.08773e-06
6.08675e-06
6.08604e-06
6.08556e-06
6.0855e-06
6.08601e-06
6.08814e-06
6.08814e-06
6.08984e-06
6.09148e-06
6.09297e-06
6.09433e-06
6.0956e-06
6.09674e-06
6.09773e-06
6.0986e-06
6.09931e-06
6.09931e-06
6.09979e-06
6.10014e-06
6.10033e-06
6.10035e-06
6.10015e-06
6.0997e-06
6.09824e-06
6.09824e-06
6.097e-06
6.0955e-06
6.09384e-06
6.09205e-06
6.09016e-06
6.08842e-06
6.08581e-06
6.08581e-06
6.08375e-06
6.08148e-06
6.07907e-06
6.07653e-06
6.07399e-06
6.07127e-06
6.06979e-06
6.07058e-06
6.07251e-06
6.07251e-06
6.07617e-06
6.08158e-06
)
;
    }
}


// ************************************************************************* //
