/*--------------------------------*- C++ -*----------------------------------*\
| =========                 |                                                 |
| \\      /  F ield         | OpenFOAM: The Open Source CFD Toolbox           |
|  \\    /   O peration     | Version:  2506                                  |
|   \\  /    A nd           | Website:  www.openfoam.com                      |
|    \\/     M anipulation  |                                                 |
\*---------------------------------------------------------------------------*/
FoamFile
{
    version     2.0;
    format      ascii;
    arch        "LSB;label=32;scalar=64";
    class       surfaceScalarField;
    location    "29";
    object      phi;
}
// * * * * * * * * * * * * * * * * * * * * * * * * * * * * * * * * * * * * * //

dimensions      [0 3 -1 0 0 0 0];

oriented        oriented;

internalField   nonuniform List<scalar> 
760
(
1.42817e-05
-1.42816e-05
2.65657e-05
-1.2284e-05
2.75892e-05
-1.02346e-06
1.51376e-05
1.24516e-05
-1.42406e-05
2.93783e-05
-6.64765e-05
5.22358e-05
-0.000144625
7.8148e-05
-0.000240896
9.62719e-05
-0.000336497
9.56005e-05
-0.000409085
7.25884e-05
-0.00044198
3.28949e-05
-0.000425575
-1.6405e-05
-0.000353606
-7.19692e-05
-0.000236837
-0.000116768
-9.74336e-05
-0.000139404
2.82176e-05
-0.000125651
0.000102186
-7.3968e-05
9.88514e-05
3.3343e-06
4.44563e-05
5.43951e-05
4.44563e-05
1.04034e-05
-2.4685e-05
3.8514e-06
-5.73207e-06
-3.25362e-05
3.53642e-05
-0.000107494
8.74094e-05
-0.000225543
0.000147427
-0.000379689
0.000206382
-0.000546946
0.000245405
-0.000697512
0.000246838
-0.000808995
0.000207083
-0.000869934
0.000133528
-0.000875345
3.83056e-05
-0.000822576
-6.91735e-05
-0.000714668
-0.000179877
-0.000554654
-0.000276783
-0.000356457
-0.000337601
-0.000149734
-0.000332374
1.36941e-05
-0.000237396
8.18142e-05
-6.47858e-05
5.07728e-05
8.54366e-05
9.52291e-05
-1.39652e-05
-1.07198e-05
-6.37469e-05
4.40496e-05
-0.000158931
0.000130548
-0.000303754
0.000232232
-0.000487354
0.000331028
-0.00068218
0.000401208
-0.000857913
0.000421138
-0.000996208
0.000385132
-0.0010912
0.000302071
-0.00114178
0.000184109
-0.0011433
3.98264e-05
-0.0010998
-0.000112673
-0.00100985
-0.000269823
-0.000868099
-0.000418536
-0.000672453
-0.000533247
-0.000431741
-0.000573086
-0.000184962
-0.000484176
-9.48836e-06
-0.00024026
2.88191e-05
4.71291e-05
0.000124048
-4.86704e-05
3.79506e-05
-0.000150713
0.000146092
-0.000299899
0.000279734
-0.000488041
0.000420374
-0.000691363
0.000534349
-0.00088052
0.000590365
-0.0010352
0.000575813
-0.00115018
0.000500121
-0.00122779
0.00037968
-0.0012713
0.000227621
-0.0012795
4.80233e-05
-0.00125735
-0.000134824
-0.00120157
-0.000325608
-0.00110201
-0.000518088
-0.0009457
-0.00068956
-0.000720374
-0.000798412
-0.000430194
-0.000774356
-0.000135322
-0.000535131
1.16079e-05
-9.98009e-05
0.000135656
-8.23619e-05
0.000120313
-0.000225771
0.000289501
-0.000405065
0.000459028
-0.00060262
0.000617929
-0.000791931
0.00072366
-0.000950917
0.000749352
-0.00107107
0.000695965
-0.00115428
0.000583329
-0.00120639
0.00043179
-0.00123453
0.000255764
-0.00124731
6.08047e-05
-0.00124427
-0.000137863
-0.00122419
-0.000345689
-0.00117901
-0.000563271
-0.00109017
-0.000778397
-0.000929229
-0.000959356
-0.000667248
-0.00103634
-0.000314926
-0.000887452
-2.59121e-05
-0.000388815
0.000109744
-0.000103098
0.000223411
-0.000265343
0.000451746
-0.000447445
0.00064113
-0.000627746
0.000798231
-0.000784458
0.000880372
-0.000903976
0.00086887
-0.000984904
0.000776892
-0.00103314
0.000631564
-0.00105746
0.000456112
-0.00106786
0.000266164
-0.00107633
6.92775e-05
-0.00108276
-0.000131437
-0.00108807
-0.000340373
-0.0010892
-0.000562148
-0.00107049
-0.000797106
-0.000999124
-0.00103072
-0.000826374
-0.00120909
-0.000512332
-0.00120149
-0.000113158
-0.000787989
-3.41435e-06
-0.000105026
0.000328437
-0.000262677
0.000609397
-0.00042653
0.000804982
-0.000576075
0.000947776
-0.000695451
0.000999748
-0.000777635
0.000951054
-0.000825458
0.000824715
-0.000847124
0.00065323
-0.000852901
0.000461889
-0.000852787
0.00026605
-0.00085549
7.19805e-05
-0.000863522
-0.000123405
-0.000878702
-0.000325194
-0.000902035
-0.000538814
-0.000927323
-0.000771819
-0.000930691
-0.00102735
-0.000859998
-0.00127978
-0.000640995
-0.0014205
-0.000236362
-0.00119262
-0.000239777
-8.83661e-05
0.000416803
-0.000223583
0.000744614
-0.000357785
0.000939184
-0.000472811
0.0010628
-0.000558344
0.00108528
-0.000611938
0.00100465
-0.000638565
0.000851342
-0.000647005
0.00066167
-0.000647026
0.00046191
-0.000646381
0.000265406
-0.000649187
7.47866e-05
-0.000657376
-0.000115216
-0.000673223
-0.000309347
-0.000699885
-0.000512153
-0.000738807
-0.000732896
-0.000780007
-0.000986152
-0.00078138
-0.00127841
-0.000661247
-0.00154063
-0.000350275
-0.00150359
-0.000590051
-5.89142e-05
0.000475717
-0.000160789
0.000846489
-0.000260895
0.00103929
-0.000342717
0.00114462
-0.000400387
0.00114295
-0.000434348
0.00103861
-0.000450019
0.000867013
-0.000455139
0.00066679
-0.000457185
0.000463956
-0.000460925
0.000269146
-0.000467599
8.14601e-05
-0.000477866
-0.000104948
-0.000492921
-0.000294293
-0.000515907
-0.000489167
-0.000552607
-0.000696196
-0.000603964
-0.000934795
-0.000646564
-0.00123581
-0.000605224
-0.00158197
-0.000386436
-0.00172238
-0.000976487
-2.18425e-05
0.00049756
-8.51991e-05
0.000909846
-0.000150335
0.00110443
-0.000201898
0.00119619
-0.000236823
0.00117788
-0.000257215
0.001059
-0.00026773
0.000877528
-0.000273738
0.000672797
-0.000279917
0.000470135
-0.000288659
0.000277887
-0.00030021
9.30111e-05
-0.000314424
-9.07343e-05
-0.000331413
-0.000277304
-0.000352717
-0.000467862
-0.000384137
-0.000664777
-0.00043413
-0.000884801
-0.000496162
-0.00117377
-0.000508082
-0.00157005
-0.000352716
-0.00187775
-0.0013292
1.54706e-05
0.000482089
-6.85167e-06
0.000932168
-3.91292e-05
0.0011367
-6.35125e-05
0.00122057
-7.83398e-05
0.0011927
-8.65812e-05
0.00106724
-9.22224e-05
0.00088317
-9.85864e-05
0.000679161
-0.000107424
0.000478972
-0.000119468
0.000289931
-0.000134792
0.000108336
-0.000153475
-7.20519e-05
-0.000175391
-0.000255387
-0.000200609
-0.000442644
-0.000232481
-0.000632905
-0.00028123
-0.000836053
-0.000352632
-0.00110237
-0.000400842
-0.00152184
-0.000301331
-0.00197726
-0.00163053
4.70414e-05
0.000435048
6.57862e-05
0.000913423
6.97784e-05
0.00113271
7.33435e-05
0.00121701
7.81777e-05
0.00118787
8.15664e-05
0.00106385
8.12765e-05
0.000883459
7.63603e-05
0.000684078
6.70201e-05
0.000488312
5.36237e-05
0.000303327
3.58921e-05
0.000126067
1.32749e-05
-4.94348e-05
-1.45095e-05
-0.000227603
-4.80591e-05
-0.000409094
-8.83142e-05
-0.00059265
-0.000140753
-0.000783614
-0.000220347
-0.00102278
-0.000296426
-0.00144576
-0.000246686
-0.002027
-0.00187722
7.066e-05
0.000364388
0.000127461
0.000856622
0.000165165
0.00109501
0.000197345
0.00118483
0.0002246
0.00116061
0.00024347
0.00104498
0.000252713
0.000874216
0.000253293
0.000683497
0.000246794
0.000494812
0.000234234
0.000315887
0.000215183
0.000145119
0.000188194
-2.24459e-05
0.000153117
-0.000192526
0.000109447
-0.000365424
5.65997e-05
-0.000539803
-1.12848e-05
-0.00071573
-9.91053e-05
-0.000934958
-0.000195737
-0.00134913
-0.000194365
-0.00202837
-0.00207159
8.10193e-05
0.000283369
0.00017003
0.000767611
0.000241159
0.00102388
0.000303472
0.00112251
0.000357398
0.00110669
0.000398185
0.0010042
0.000423777
0.000848625
0.000435407
0.000671868
0.000435542
0.000494677
0.000425945
0.000325484
0.000406538
0.000164525
0.000375296
8.79663e-06
0.000332211
-0.00014944
0.000275843
-0.000309057
0.000206014
-0.000469974
0.00012406
-0.000633775
2.01935e-05
-0.000831091
-0.000101625
-0.00122731
-0.000145509
-0.00198449
-0.0022171
7.47263e-05
0.000208642
0.000182783
0.000659555
0.000282446
0.000924216
0.000376766
0.00102819
0.000462597
0.00102086
0.000532989
0.000933806
0.00058359
0.000798023
0.00061446
0.000640998
0.000627797
0.00048134
0.00062569
0.000327591
0.000608343
0.000181872
0.000574673
4.24671e-05
0.000522658
-9.74257e-05
0.000452188
-0.000238587
0.000362575
-0.00038036
0.00025673
-0.000527931
0.000129709
-0.00070407
-2.08068e-05
-0.0010768
-9.53138e-05
-0.00190998
-0.00231241
5.32325e-05
0.00015541
0.000163738
0.000549049
0.000291234
0.00079672
0.000421319
0.000898107
0.000544391
0.000897783
0.000650382
0.000827816
0.000732346
0.000716059
0.0007887
0.000584644
0.000820651
0.000449388
0.000830057
0.000318185
0.000817646
0.000194283
0.000783253
7.68602e-05
0.000722593
-3.67666e-05
0.000637246
-0.00015324
0.000525959
-0.000269073
0.000393161
-0.000395133
0.00024466
-0.00055557
8.60232e-05
-0.000918159
-1.90222e-05
-0.00180493
-0.00233143
1.25894e-05
0.00014282
9.4012e-05
0.000467626
0.000234347
0.000656385
0.000399779
0.000732675
0.000566589
0.000730973
0.000716213
0.000678192
0.000838035
0.000594237
0.000928783
0.000493896
0.000987793
0.000390378
0.00101636
0.000289614
0.00101499
0.00019566
0.000984298
0.000107549
0.000920977
2.65553e-05
0.000825134
-5.73974e-05
0.000697379
-0.000141318
0.000542593
-0.000240347
0.000376377
-0.000389354
0.000215018
-0.0007568
6.17613e-05
-0.00165168
-0.00226967
-4.98613e-05
0.000192682
1.58764e-05
0.000401889
0.000162302
0.000509959
0.000359319
0.000535659
0.000566887
0.000523405
0.000757015
0.000488064
0.000915754
0.000435498
0.00103877
0.000370876
0.001124
0.000305147
0.00117319
0.000240428
0.00118673
0.000182121
0.00116669
0.000127587
0.00111454
7.8711e-05
0.00102885
2.82878e-05
0.000910098
-2.25651e-05
0.000764458
-9.47063e-05
0.000610864
-0.00023576
0.000436925
-0.000582861
0.000201888
-0.00141664
-0.00206778
-0.00041603
0.000608712
-0.000363872
0.000349731
-0.000130758
0.000276844
0.000140796
0.000264105
0.000406656
0.000257545
0.000653144
0.000241576
0.000869508
0.000219135
0.00104979
0.000190596
0.00119212
0.000162814
0.00129897
0.000133584
0.00137191
0.000109173
0.00141522
8.42857e-05
0.00142796
6.59677e-05
0.00141159
4.46595e-05
0.00136408
2.49416e-05
0.00128695
-1.75757e-05
0.00118046
-0.000129268
0.00100615
-0.000408553
0.000561685
-0.000972175
-0.0015061
0.000608712
0.000958443
0.00123529
0.00149939
0.00175694
0.00199851
0.00221765
0.00240824
0.00257106
0.00270464
0.00281381
0.0028981
0.00296407
0.00300873
0.00303367
0.00301609
0.00288682
0.00247827
0.0015061
)
;

boundaryField
{
    movingWall
    {
        type            calculated;
        value           uniform 0;
    }
    fixedWalls
    {
        type            calculated;
        value           uniform 0;
    }
    frontAndBack
    {
        type            empty;
    }
}


// ************************************************************************* //
