/*--------------------------------*- C++ -*----------------------------------*\
| =========                 |                                                 |
| \\      /  F ield         | OpenFOAM: The Open Source CFD Toolbox           |
|  \\    /   O peration     | Version:  2506                                  |
|   \\  /    A nd           | Website:  www.openfoam.com                      |
|    \\/     M anipulation  |                                                 |
\*---------------------------------------------------------------------------*/
FoamFile
{
    version     2.0;
    format      ascii;
    arch        "LSB;label=32;scalar=64";
    class       pointScalarField;
    location    "29";
    object      streamFunction;
}
// * * * * * * * * * * * * * * * * * * * * * * * * * * * * * * * * * * * * * //

dimensions      [0 3 -1 0 0 0 0];

internalField   nonuniform List<scalar> 
882
(
0
0
0
0
0
0
0
0
0
0
0
0
0
0
0
0
0
0
0
0
0
0
0.000142807
0.000265647
0.00027587
0.00015139
-0.000142419
-0.000664752
-0.00144622
-0.00240891
-0.00336489
-0.00409086
-0.00441979
-0.0042558
-0.00353618
-0.00236843
-0.000974355
0.000282198
0.00102189
0.000988528
0.00044452
0
0
0.000246841
0.000304161
-4.9492e-05
-0.00092355
-0.00239785
-0.00446164
-0.00691568
-0.00938403
-0.0114548
-0.0127902
-0.0131732
-0.0124816
-0.0106829
-0.00791497
-0.00453893
-0.00121514
0.00115883
0.00180667
0.000952248
0
0
0.000107189
-0.000333308
-0.0016388
-0.00396109
-0.00727139
-0.0112834
-0.0154948
-0.0193461
-0.0223668
-0.024208
-0.0246062
-0.0234796
-0.0207814
-0.016596
-0.0112635
-0.00553255
-0.000690792
0.00171179
0.00124044
0
0
-0.000379515
-0.00184044
-0.00463779
-0.0088415
-0.014185
-0.0200886
-0.0258468
-0.0308479
-0.0346447
-0.036921
-0.0374012
-0.0360531
-0.0327971
-0.0276161
-0.0207205
-0.0127363
-0.00499273
0.000358566
0.00135652
0
0
-0.00120313
-0.00409815
-0.00868844
-0.0148677
-0.0221043
-0.0295978
-0.0365575
-0.0423907
-0.0467086
-0.0492663
-0.0498743
-0.0484958
-0.045039
-0.0394062
-0.0316222
-0.0220286
-0.0116652
-0.00279069
0.0010974
0
0
-0.00223411
-0.00675158
-0.0131629
-0.0211452
-0.0299489
-0.0386376
-0.0464066
-0.0527221
-0.0572832
-0.0599449
-0.0606376
-0.0593234
-0.0559197
-0.0502982
-0.0423271
-0.0320198
-0.019929
-0.00791401
-3.4183e-05
0
0
-0.00328437
-0.00937835
-0.0174282
-0.0269059
-0.0369034
-0.0464139
-0.0546611
-0.0611933
-0.0658123
-0.0684728
-0.0691925
-0.0679586
-0.0647067
-0.0593185
-0.0516003
-0.0413267
-0.0285289
-0.014324
-0.0023978
0
0
-0.00416804
-0.0116142
-0.021006
-0.031634
-0.0424869
-0.0525333
-0.0610468
-0.0676634
-0.0722825
-0.0749366
-0.0756844
-0.0745323
-0.0714389
-0.0663174
-0.0589884
-0.0491268
-0.0363427
-0.0209364
-0.00590055
0
0
-0.00475718
-0.0132221
-0.023615
-0.0350612
-0.0464907
-0.0568768
-0.065547
-0.0722148
-0.0768544
-0.0795458
-0.0803604
-0.079311
-0.0763681
-0.0714764
-0.0645144
-0.0551664
-0.0428084
-0.0269887
-0.00976491
0
0
-0.0049756
-0.0140741
-0.0251183
-0.0370802
-0.048859
-0.0594489
-0.0682243
-0.0749522
-0.0796535
-0.0824324
-0.0833625
-0.0824552
-0.0796823
-0.0750036
-0.0683558
-0.0595077
-0.04777
-0.0320695
-0.0132921
0
0
-0.0048209
-0.0141426
-0.0255096
-0.0377153
-0.0496424
-0.0603147
-0.0691465
-0.075938
-0.0807278
-0.0836271
-0.0847104
-0.08399
-0.0814362
-0.0770097
-0.0706806
-0.06232
-0.0512963
-0.0360779
-0.0163054
0
0
-0.00435048
-0.0134847
-0.0248118
-0.0369819
-0.0488606
-0.0594991
-0.0683337
-0.0751744
-0.0800576
-0.0830909
-0.0843515
-0.0838572
-0.0815813
-0.0774903
-0.0715637
-0.0637276
-0.0534998
-0.0390422
-0.0187722
0
0
-0.00364388
-0.0122101
-0.0231602
-0.0350084
-0.0466146
-0.0570644
-0.0658066
-0.0726415
-0.0775896
-0.0807485
-0.0821997
-0.0819753
-0.0800501
-0.0763958
-0.0709977
-0.0638404
-0.0544908
-0.0409995
-0.0207159
0
0
-0.00283369
-0.0105098
-0.0207486
-0.0319737
-0.0430406
-0.0530825
-0.0615688
-0.0682874
-0.0732342
-0.0764891
-0.0781343
-0.0782223
-0.076728
-0.0736374
-0.0689376
-0.0625998
-0.0542889
-0.0420158
-0.022171
0
0
-0.00208643
-0.00868197
-0.0179241
-0.028206
-0.0384146
-0.0477526
-0.0557329
-0.0621428
-0.0669562
-0.0702322
-0.0720509
-0.0724756
-0.0715014
-0.0691155
-0.0653119
-0.0600325
-0.0529918
-0.0422239
-0.0231241
0
0
-0.0015541
-0.00704459
-0.0150118
-0.0239928
-0.0329707
-0.0412488
-0.0484095
-0.0542558
-0.0587497
-0.0619316
-0.0638744
-0.0646431
-0.0642755
-0.062743
-0.0600523
-0.0561009
-0.0505452
-0.0413636
-0.0233143
0
0
-0.00142821
-0.00610447
-0.0126683
-0.019995
-0.0273048
-0.0340867
-0.0400291
-0.044968
-0.0488718
-0.051768
-0.0537245
-0.0548001
-0.0550657
-0.0544917
-0.0530785
-0.050675
-0.0467814
-0.0392134
-0.0226967
0
0
-0.00192682
-0.00594571
-0.0110453
-0.0164019
-0.021636
-0.0265165
-0.0308716
-0.0345803
-0.0376318
-0.0400361
-0.0418572
-0.0431332
-0.0439203
-0.0442032
-0.0439775
-0.0430304
-0.0406728
-0.0348442
-0.0206778
0
0
-0.00608712
-0.00958443
-0.0123529
-0.0149939
-0.0175694
-0.0199851
-0.0221765
-0.0240824
-0.0257106
-0.0270464
-0.0281381
-0.028981
-0.0296407
-0.0300873
-0.0303367
-0.0301609
-0.0288682
-0.0247827
-0.015061
0
0
0
0
0
0
0
0
0
0
0
0
0
0
0
0
0
0
0
0
0
0
0
0
0
0
0
0
0
0
0
0
0
0
0
0
0
0
0
0
0
0
0
0
0.000142807
0.000265647
0.00027587
0.00015139
-0.000142419
-0.000664752
-0.00144622
-0.00240891
-0.00336489
-0.00409086
-0.00441979
-0.0042558
-0.00353618
-0.00236843
-0.000974355
0.000282198
0.00102189
0.000988528
0.00044452
0
0
0.000246841
0.000304161
-4.9492e-05
-0.00092355
-0.00239785
-0.00446164
-0.00691568
-0.00938403
-0.0114548
-0.0127902
-0.0131732
-0.0124816
-0.0106829
-0.00791497
-0.00453893
-0.00121514
0.00115883
0.00180667
0.000952248
0
0
0.000107189
-0.000333308
-0.0016388
-0.00396109
-0.00727139
-0.0112834
-0.0154948
-0.0193461
-0.0223668
-0.024208
-0.0246062
-0.0234796
-0.0207814
-0.016596
-0.0112635
-0.00553255
-0.000690792
0.00171179
0.00124044
0
0
-0.000379515
-0.00184044
-0.00463779
-0.0088415
-0.014185
-0.0200886
-0.0258468
-0.0308479
-0.0346447
-0.036921
-0.0374012
-0.0360531
-0.0327971
-0.0276161
-0.0207205
-0.0127363
-0.00499273
0.000358566
0.00135652
0
0
-0.00120313
-0.00409815
-0.00868844
-0.0148677
-0.0221043
-0.0295978
-0.0365575
-0.0423907
-0.0467086
-0.0492663
-0.0498743
-0.0484958
-0.045039
-0.0394062
-0.0316222
-0.0220286
-0.0116652
-0.00279069
0.0010974
0
0
-0.00223411
-0.00675158
-0.0131629
-0.0211452
-0.0299489
-0.0386376
-0.0464066
-0.0527221
-0.0572832
-0.0599449
-0.0606376
-0.0593234
-0.0559197
-0.0502982
-0.0423271
-0.0320198
-0.019929
-0.00791401
-3.4183e-05
0
0
-0.00328437
-0.00937835
-0.0174282
-0.0269059
-0.0369034
-0.0464139
-0.0546611
-0.0611933
-0.0658123
-0.0684728
-0.0691925
-0.0679586
-0.0647067
-0.0593185
-0.0516003
-0.0413267
-0.0285289
-0.014324
-0.0023978
0
0
-0.00416804
-0.0116142
-0.021006
-0.031634
-0.0424869
-0.0525333
-0.0610468
-0.0676634
-0.0722825
-0.0749366
-0.0756844
-0.0745323
-0.0714389
-0.0663174
-0.0589884
-0.0491268
-0.0363427
-0.0209364
-0.00590055
0
0
-0.00475718
-0.0132221
-0.023615
-0.0350612
-0.0464907
-0.0568768
-0.065547
-0.0722148
-0.0768544
-0.0795458
-0.0803604
-0.079311
-0.0763681
-0.0714764
-0.0645144
-0.0551664
-0.0428084
-0.0269887
-0.00976491
0
0
-0.0049756
-0.0140741
-0.0251183
-0.0370802
-0.048859
-0.0594489
-0.0682243
-0.0749522
-0.0796535
-0.0824324
-0.0833625
-0.0824552
-0.0796823
-0.0750036
-0.0683558
-0.0595077
-0.04777
-0.0320695
-0.0132921
0
0
-0.0048209
-0.0141426
-0.0255096
-0.0377153
-0.0496424
-0.0603147
-0.0691465
-0.075938
-0.0807278
-0.0836271
-0.0847104
-0.08399
-0.0814362
-0.0770097
-0.0706806
-0.06232
-0.0512963
-0.0360779
-0.0163054
0
0
-0.00435048
-0.0134847
-0.0248118
-0.0369819
-0.0488606
-0.0594991
-0.0683337
-0.0751744
-0.0800576
-0.0830909
-0.0843515
-0.0838572
-0.0815813
-0.0774903
-0.0715637
-0.0637276
-0.0534998
-0.0390422
-0.0187722
0
0
-0.00364388
-0.0122101
-0.0231602
-0.0350084
-0.0466146
-0.0570644
-0.0658066
-0.0726415
-0.0775896
-0.0807485
-0.0821997
-0.0819753
-0.0800501
-0.0763958
-0.0709977
-0.0638404
-0.0544908
-0.0409995
-0.0207159
0
0
-0.00283369
-0.0105098
-0.0207486
-0.0319737
-0.0430406
-0.0530825
-0.0615688
-0.0682874
-0.0732342
-0.0764891
-0.0781343
-0.0782223
-0.076728
-0.0736374
-0.0689376
-0.0625998
-0.0542889
-0.0420158
-0.022171
0
0
-0.00208643
-0.00868197
-0.0179241
-0.028206
-0.0384146
-0.0477526
-0.0557329
-0.0621428
-0.0669562
-0.0702322
-0.0720509
-0.0724756
-0.0715014
-0.0691155
-0.0653119
-0.0600325
-0.0529918
-0.0422239
-0.0231241
0
0
-0.0015541
-0.00704459
-0.0150118
-0.0239928
-0.0329707
-0.0412488
-0.0484095
-0.0542558
-0.0587497
-0.0619316
-0.0638744
-0.0646431
-0.0642755
-0.062743
-0.0600523
-0.0561009
-0.0505452
-0.0413636
-0.0233143
0
0
-0.00142821
-0.00610447
-0.0126683
-0.019995
-0.0273048
-0.0340867
-0.0400291
-0.044968
-0.0488718
-0.051768
-0.0537245
-0.0548001
-0.0550657
-0.0544917
-0.0530785
-0.050675
-0.0467814
-0.0392134
-0.0226967
0
0
-0.00192682
-0.00594571
-0.0110453
-0.0164019
-0.021636
-0.0265165
-0.0308716
-0.0345803
-0.0376318
-0.0400361
-0.0418572
-0.0431332
-0.0439203
-0.0442032
-0.0439775
-0.0430304
-0.0406728
-0.0348442
-0.0206778
0
0
-0.00608712
-0.00958443
-0.0123529
-0.0149939
-0.0175694
-0.0199851
-0.0221765
-0.0240824
-0.0257106
-0.0270464
-0.0281381
-0.028981
-0.0296407
-0.0300873
-0.0303367
-0.0301609
-0.0288682
-0.0247827
-0.015061
0
0
0
0
0
0
0
0
0
0
0
0
0
0
0
0
0
0
0
0
0
0
)
;

boundaryField
{
    movingWall
    {
        type            calculated;
    }
    fixedWalls
    {
        type            calculated;
    }
    frontAndBack
    {
        type            empty;
    }
}


// ************************************************************************* //
