/*--------------------------------*- C++ -*----------------------------------*\
| =========                 |                                                 |
| \\      /  F ield         | OpenFOAM: The Open Source CFD Toolbox           |
|  \\    /   O peration     | Version:  2506                                  |
|   \\  /    A nd           | Website:  www.openfoam.com                      |
|    \\/     M anipulation  |                                                 |
\*---------------------------------------------------------------------------*/
FoamFile
{
    version     2.0;
    format      ascii;
    arch        "LSB;label=32;scalar=64";
    class       volScalarField;
    location    "190.000237934184668";
    object      mag(vorticity);
}
// * * * * * * * * * * * * * * * * * * * * * * * * * * * * * * * * * * * * * //

dimensions      [0 0 -1 0 0 0 0];

internalField   nonuniform List<scalar> 
9700
(
0.000100772
0.000303242
0.000110754
0.00050645
0.000319384
5.70064e-05
0.000673831
0.000543004
0.000186814
6.90996e-05
0.000757981
0.00078641
0.000329467
0.000228513
5.57269e-05
0.00070706
0.00108156
0.000396556
0.000380161
0.000204004
5.6238e-05
0.000260344
0.00136902
0.00049906
0.000496436
0.00034552
0.00019202
3.85269e-05
0.000818607
0.00171076
0.000594535
0.000654333
0.000473569
0.000317238
0.000166656
3.97949e-05
0.00202751
0.00213277
0.000658318
0.00078449
0.000630563
0.000468396
0.000314291
0.000149165
4.80103e-05
0.00298562
0.00264861
0.000688951
0.000902481
0.000749251
0.000585581
0.000428198
0.00025537
0.000154664
1.95759e-05
0.00435628
0.00325093
0.000699278
0.00104761
0.000830687
0.000693096
0.000512666
0.000363069
0.000213801
0.000103611
1.98938e-05
0.00650015
0.00409632
0.000616457
0.00113516
0.000928736
0.000820299
0.000629876
0.000447281
0.000290986
0.000168277
7.75633e-05
1.86085e-05
0.00963919
0.00516523
0.000419665
0.00121167
0.00102671
0.000884068
0.000717847
0.000536338
0.000355924
0.000229675
0.000137352
3.51005e-05
1.53047e-05
0.0130353
0.00617786
0.000140331
0.0013018
0.00105384
0.000952102
0.000780986
0.000617339
0.000432046
0.00027679
0.000161951
6.00898e-05
2.30837e-05
7.58962e-06
0.013334
0.006372
0.00011594
0.0012997
0.00107383
0.000997533
0.000864993
0.000684913
0.000506744
0.000312808
0.00018441
0.000103899
3.01391e-05
1.21447e-05
2.17365e-05
0.00145147
0.00652273
0.00122992
0.00138456
0.000993275
0.00100844
0.000865753
0.000730096
0.000522813
0.000376517
0.000222244
0.000126847
5.44649e-05
1.23245e-05
3.52919e-05
1.55086e-05
0.0285458
0.0127562
0.00369557
0.000891533
0.000856941
0.000908873
0.000854619
0.000700292
0.000557802
0.000395178
0.00025663
0.000127032
5.57474e-05
4.40844e-06
9.06537e-06
1.52985e-05
9.30341e-06
0.0826126
0.0435306
0.00689305
0.000429333
1.32479e-05
0.000556276
0.000623275
0.000649249
0.000565721
0.000398369
0.000240533
0.000132621
2.61875e-05
9.32963e-06
1.25096e-05
8.04184e-06
1.801e-05
7.81831e-06
0.172067
0.110416
0.00494668
0.00196241
0.00107485
0.000485179
4.74506e-05
0.000165026
0.000398448
0.00039206
0.000221456
0.000121775
2.8732e-05
2.65259e-05
4.81557e-05
3.88642e-05
7.35833e-07
1.52345e-05
2.9901e-07
0.15373
0.232961
0.0178301
0.00269361
0.00133644
0.000773839
0.000896609
0.000792054
0.000496292
0.000125305
0.000246656
9.29728e-05
5.43485e-06
4.29097e-05
5.83418e-05
3.33547e-05
1.67449e-05
2.15649e-05
2.27407e-05
4.38579e-06
0.0300554
0.335793
0.0703271
0.00448316
0.0031482
0.00059502
0.000693124
0.000472751
0.00157588
0.00129059
0.000191624
0.000110403
2.49113e-05
8.45336e-05
7.46503e-05
7.44129e-05
1.87645e-05
1.51699e-06
5.23641e-05
3.42677e-05
6.97391e-06
0.356081
0.361901
0.165134
0.0252741
0.00759957
0.0026335
0.00324775
0.00444426
0.00124383
0.00228244
0.00221088
0.00047766
3.11312e-05
9.10122e-05
0.000135671
9.26873e-05
4.48739e-05
1.3516e-05
3.93944e-05
0.000114203
5.65171e-05
1.71927e-05
0.494875
0.200419
0.275934
0.0788273
0.0143755
0.018998
0.00593904
0.00713603
0.010997
0.00445333
0.00281548
0.00309222
0.000671309
5.74075e-05
0.000179847
0.000134881
7.04105e-05
1.44062e-05
6.64732e-05
0.000105966
0.000142965
0.000108166
2.62271e-05
0.5885
0.232295
0.32437
0.17811
0.00423856
0.0467823
0.0425684
0.0137117
0.0121934
0.0203813
0.00874485
0.00332412
0.00376087
0.000759657
0.000137737
0.00020313
0.000127345
2.37487e-05
7.69934e-05
0.000132661
0.000175355
0.000201499
0.000118821
3.54202e-05
0.619859
0.449342
0.242591
0.297737
0.0477046
0.0679842
0.0950482
0.0790098
0.0255387
0.0197562
0.031794
0.0129705
0.0040169
0.00406751
0.00069956
0.000181611
0.00017171
7.77197e-05
7.66198e-05
0.000161381
0.000247202
0.000235511
0.000243679
0.000164998
4.74956e-05
0.582795
0.553021
0.0092763
0.378387
0.162154
0.063526
0.140481
0.161603
0.122802
0.0378834
0.0303515
0.0438509
0.0155604
0.00503533
0.00391573
0.000537516
0.000193114
0.00012206
3.8425e-05
0.000175247
0.000266464
0.000323559
0.00031233
0.000279561
0.000186435
3.48798e-05
0.520014
0.62344
0.180933
0.301939
0.313194
0.000709354
0.166878
0.232794
0.235715
0.162538
0.0432772
0.0457953
0.0548155
0.0153719
0.0061057
0.00330876
0.000384029
0.000132438
7.53431e-06
0.000179034
0.000280221
0.000395928
0.000413458
0.000374604
0.000327567
0.000197595
4.96642e-05
0.440691
0.568934
0.35104
0.173149
0.417826
0.124392
0.155066
0.284552
0.335058
0.300025
0.185117
0.034885
0.0683437
0.0623571
0.0119833
0.00674377
0.00238914
0.000220963
7.07259e-05
0.000156359
0.000335059
0.000439035
0.000510082
0.000493733
0.000451016
0.000365443
0.000215927
4.9972e-05
0.307575
0.490127
0.338129
0.0692133
0.424893
0.308662
0.084292
0.30322
0.416032
0.427622
0.339145
0.209439
0.00237062
0.0941447
0.06392
0.00620103
0.00641424
0.00147454
8.7273e-05
7.10286e-05
0.000321738
0.000458369
0.000549577
0.000596259
0.000558586
0.000462463
0.000352493
0.000213442
4.1056e-05
0.0810081
0.388514
0.268646
0.0312919
0.40051
0.434466
0.0711246
0.276174
0.461721
0.541473
0.493003
0.342747
0.174554
0.0581262
0.116751
0.0572655
7.78391e-05
0.00505965
0.0007012
4.29887e-05
0.000259343
0.000493363
0.000621776
0.000685076
0.000665398
0.000592776
0.000479507
0.000369019
0.000209369
4.31961e-05
0.00534253
0.307705
0.20552
0.0448077
0.380643
0.532736
0.250812
0.183045
0.466842
0.620736
0.639225
0.520063
0.301429
0.0624084
0.112818
0.128498
0.0426439
0.00449301
0.0031807
0.000205572
0.000239935
0.000492163
0.000671261
0.000775331
0.000784092
0.000748122
0.000639621
0.00050648
0.000329939
0.000197739
2.82293e-05
0.071376
0.183792
0.104266
0.107068
0.390215
0.570696
0.426534
0.0317336
0.41464
0.657535
0.754787
0.694139
0.500001
0.267135
0.0230568
0.160475
0.122695
0.0241857
0.00588812
0.00145232
8.25309e-05
0.000475879
0.000678948
0.000837186
0.00088531
0.000857922
0.000772861
0.000607479
0.000453443
0.000312822
0.000169438
2.95353e-05
0.026956
0.0134336
0.0288513
0.213603
0.439658
0.598589
0.547481
0.140779
0.311737
0.634098
0.825898
0.841767
0.697428
0.457789
0.148962
0.110122
0.192046
0.0984049
0.00800797
0.00471542
0.000271168
0.000320461
0.000721495
0.000857886
0.000947568
0.000951099
0.000868149
0.000749021
0.00061791
0.000415384
0.000271581
0.000134161
3.18233e-05
0.105524
0.116107
0.176123
0.358931
0.525318
0.642608
0.631665
0.299167
0.179886
0.572354
0.838171
0.944522
0.867706
0.645528
0.347985
0.0165054
0.196261
0.193227
0.0627781
0.00140307
0.00256025
0.000321713
0.000569536
0.000914275
0.00102421
0.00104549
0.00097798
0.000885454
0.000711722
0.000527481
0.000360672
0.00022261
0.000119156
2.71572e-06
0.211807
0.246902
0.360092
0.525688
0.635377
0.705047
0.699502
0.440562
0.0897006
0.47251
0.826873
1.00894
0.999001
0.82726
0.53832
0.191026
0.120941
0.251635
0.160122
0.0285011
0.00392777
0.000796982
0.000625245
0.000835269
0.001086
0.00112824
0.00109337
0.000970204
0.000819655
0.00066578
0.000487866
0.000315224
0.000148475
7.43425e-05
2.99024e-06
0.370577
0.416284
0.597852
0.689336
0.755419
0.785185
0.762264
0.564844
0.0198414
0.357538
0.749366
1.05744
1.11879
0.983165
0.721747
0.379868
0.0176918
0.239598
0.256772
0.105388
0.00601262
0.00264304
0.000194456
0.000829364
0.00105257
0.00119523
0.00117488
0.00108627
0.000941864
0.000762704
0.000576147
0.000395649
0.00021775
0.000115029
3.78344e-05
2.25359e-06
0.519229
0.656238
0.772423
0.834989
0.879589
0.875693
0.830223
0.6535
0.185605
0.22847
0.649579
0.984382
1.19904
1.12698
0.885108
0.556747
0.184364
0.156433
0.311117
0.211133
0.0508038
0.00266673
0.000840978
0.000672858
0.000994085
0.00119262
0.00123672
0.00117264
0.00103879
0.000830384
0.000644067
0.000451529
0.000288704
0.000154405
5.91059e-05
1.88499e-05
1.738e-05
0.628144
0.84984
0.914207
0.969742
0.988282
0.971279
0.899766
0.726211
0.320477
0.0900689
0.538893
0.895651
1.13383
1.19192
1.02126
0.707896
0.346591
0.0292595
0.299391
0.313067
0.136159
0.013564
0.00269026
0.000158433
0.000886338
0.00109955
0.00123527
0.0012119
0.00109697
0.000918623
0.000712574
0.00052182
0.000336361
0.000201868
9.92608e-05
2.64449e-05
6.32297e-07
1.5768e-05
0.644332
0.921135
1.03055
1.04691
1.08677
1.05275
0.964355
0.781156
0.409103
0.0374605
0.419343
0.80383
1.07251
1.18182
1.0729
0.821332
0.48447
0.110002
0.231628
0.372885
0.248208
0.0647383
0.00261297
0.000467127
0.000556534
0.00104062
0.00115534
0.00119067
0.00112391
0.000960928
0.000783784
0.000590947
0.000404306
0.000212266
0.000120106
3.53867e-05
1.44684e-05
1.68266e-05
1.79342e-05
0.595763
0.895643
1.00554
1.12994
1.14562
1.09429
1.01433
0.816284
0.460168
0.147065
0.276315
0.708322
1.00299
1.16175
1.129
0.896711
0.58637
0.234407
0.132343
0.381296
0.354258
0.150399
0.0195925
0.00490264
0.000803933
0.000759358
0.00111022
0.00111628
0.00104587
0.000997809
0.000797576
0.000626167
0.000443784
0.000266116
0.00011634
3.01841e-05
1.69379e-05
2.7317e-05
2.55552e-05
2.79467e-05
0.471583
0.784106
0.916474
1.0569
1.13068
1.15117
1.02231
0.829224
0.483142
0.238791
0.118938
0.613748
0.919794
1.11831
1.14059
0.968617
0.648433
0.326354
0.0320673
0.344347
0.435234
0.259472
0.0651084
0.00169712
0.00262558
0.000754576
0.00073485
0.00103888
0.00100356
0.000888687
0.000802799
0.000600705
0.000431453
0.000283065
0.000118907
2.98862e-05
2.52489e-05
4.19989e-05
2.23501e-05
2.03378e-05
3.31117e-05
0.293089
0.611625
0.762217
0.926625
1.04055
1.05911
1.02706
0.816674
0.490067
0.30413
0.0136928
0.525172
0.836126
1.04785
1.12106
0.986834
0.674015
0.377579
0.0493347
0.288301
0.475134
0.379463
0.143073
0.0170538
0.00215816
0.00117409
1.62212e-05
0.000398845
0.000794672
0.000826808
0.000726271
0.000594462
0.000406323
0.000274009
0.000130124
2.10408e-05
4.01789e-05
5.70743e-05
4.61751e-05
5.47469e-06
1.47033e-05
1.96449e-05
0.13843
0.367762
0.555488
0.740277
0.876573
0.949227
0.91568
0.776877
0.487677
0.346328
0.0931599
0.448447
0.760617
0.971928
1.06818
0.983924
0.68482
0.372216
0.104123
0.233101
0.487701
0.483027
0.251256
0.0552337
0.000142777
0.00230578
0.00169357
0.00115529
0.000317116
0.000236373
0.000524575
0.00052126
0.000409859
0.000229381
0.000123906
6.53298e-06
4.7768e-05
7.1848e-05
7.32056e-05
2.86344e-05
2.40953e-05
6.42247e-06
4.28338e-06
0.00767428
0.21951
0.294922
0.510245
0.661935
0.761482
0.774897
0.697897
0.468524
0.367119
0.111406
0.386589
0.698368
0.902476
1.00261
0.95218
0.68547
0.308017
0.158441
0.208254
0.478562
0.570381
0.372761
0.118356
0.0117435
0.00351413
0.00433812
0.00347366
0.00216422
0.00124683
0.000729616
5.01018e-05
0.000329013
0.000194384
3.46204e-05
1.41352e-05
0.000111081
9.5243e-05
8.46483e-05
4.64553e-05
1.1898e-06
5.20836e-05
3.9937e-05
1.27843e-05
0.0833056
0.0538421
0.179545
0.232245
0.430509
0.538318
0.585233
0.539997
0.458422
0.328436
0.0649078
0.347253
0.651243
0.84509
0.936823
0.898545
0.666165
0.278446
0.176563
0.195449
0.512472
0.618549
0.503537
0.213172
0.033367
0.00678629
0.0121941
0.0107241
0.00570372
0.00221846
0.00182934
0.00188695
0.000523669
0.000166807
4.2843e-05
9.23638e-05
0.00013252
0.00014254
0.0001189
7.97767e-05
3.38659e-06
6.19151e-05
9.71289e-05
8.81135e-05
3.22193e-05
0.0935593
0.0721657
0.0335316
0.105354
0.177159
0.248518
0.352496
0.368054
0.316554
0.200241
0.00965714
0.336295
0.618643
0.798906
0.874229
0.831217
0.624396
0.245632
0.175279
0.20129
0.528573
0.715978
0.610884
0.331079
0.0803384
0.0119606
0.0311641
0.0360518
0.0233044
0.00801488
0.000239095
0.00146279
0.00316244
0.00113686
1.59931e-05
0.000131815
0.000190961
0.000194419
0.000154633
0.000110842
8.95313e-06
7.38806e-05
0.000106759
0.000163328
0.000110905
4.00761e-05
0.0552471
0.0896933
0.130009
0.103221
0.0539538
0.0291456
0.102669
0.138019
0.122825
0.0458181
0.103209
0.347807
0.603272
0.763704
0.810846
0.749894
0.556432
0.196753
0.140689
0.226561
0.54686
0.77702
0.740714
0.468822
0.148833
0.00709511
0.0612701
0.0848046
0.0808301
0.0439086
0.010179
0.00422832
0.000159907
0.00439164
0.00160651
0.000155826
0.000244215
0.000273833
0.000200552
0.000120521
2.34289e-05
6.517e-05
0.000154073
0.000188247
0.000192149
0.000143207
5.53556e-05
0.0179094
0.0442949
0.117621
0.160306
0.171943
0.145664
0.108197
0.0801478
0.0822659
0.127101
0.220423
0.379246
0.570452
0.717212
0.741409
0.655111
0.461608
0.110858
0.0534022
0.279835
0.58031
0.793903
0.883628
0.588979
0.260449
0.0110458
0.0886435
0.148837
0.172974
0.144715
0.0720277
0.0110107
0.0108949
0.00117825
0.00547919
0.00174859
0.000275925
0.000329327
0.000294408
0.000171811
4.7904e-05
7.07715e-05
0.000182343
0.000250161
0.000256029
0.000250151
0.000175502
5.13497e-05
0.00424963
0.00162018
0.0550184
0.121453
0.183279
0.217614
0.22655
0.230024
0.239702
0.270531
0.330618
0.415503
0.529822
0.612514
0.630606
0.529349
0.342406
0.0563369
0.0832052
0.353367
0.626073
0.820709
0.930612
0.792011
0.354872
0.0653504
0.107653
0.209015
0.277622
0.281474
0.214035
0.100463
0.00731287
0.0184523
0.00125195
0.0062423
0.00158718
0.000371239
0.000362487
0.000250645
0.000107351
5.05558e-05
0.000191037
0.000293168
0.000345933
0.00034129
0.000290856
0.000199912
4.95372e-05
0.00392038
0.0103687
0.00712371
0.0490635
0.117923
0.186933
0.239699
0.277403
0.306907
0.33693
0.37575
0.427881
0.481331
0.500568
0.473358
0.384612
0.21589
0.0127394
0.197785
0.430716
0.679086
0.860498
0.951847
0.899656
0.50235
0.127964
0.102229
0.260466
0.375044
0.421394
0.379956
0.29834
0.0992361
0.00486001
0.0253692
0.000573541
0.00636887
0.00122014
0.000438441
0.000309207
0.000163071
2.06154e-05
0.000200892
0.000325599
0.000420589
0.000463696
0.000411914
0.000341767
0.000208922
3.957e-05
0.00428085
0.00625658
0.00561347
0.00260948
0.0398543
0.101417
0.169717
0.22998
0.277592
0.314487
0.343375
0.365843
0.383842
0.397879
0.340868
0.236962
0.0961621
0.08557
0.288729
0.509786
0.736741
0.911732
0.99679
0.950145
0.692008
0.215036
0.076425
0.286476
0.462268
0.556442
0.54133
0.430874
0.269542
0.0774801
0.0271952
0.0290239
0.003873
0.00559345
0.000830883
0.000466121
0.000216003
5.03895e-06
0.00018611
0.000364946
0.00047212
0.000537003
0.000541805
0.00046391
0.000360379
0.000217716
5.65949e-05
0.00331186
0.00255692
0.00247741
0.00704317
0.000858468
0.0265388
0.0753922
0.132771
0.186275
0.226979
0.2546
0.267119
0.26281
0.248024
0.21686
0.12468
0.00983774
0.173386
0.371806
0.587995
0.802691
0.97465
1.05716
0.99713
0.78154
0.33582
0.022089
0.293335
0.51449
0.678294
0.709603
0.595331
0.434803
0.207941
0.0331861
0.0539111
0.0265841
0.00701483
0.00410247
0.000586347
0.00038698
6.05872e-05
0.000180286
0.000387085
0.000547774
0.00060715
0.000652219
0.000595744
0.000494425
0.000373336
0.000239438
5.49043e-05
0.00234201
0.00149529
7.70944e-05
0.00297884
0.006461
0.00413895
0.0129443
0.0457992
0.0856316
0.122413
0.147601
0.159369
0.156318
0.139317
0.0969822
0.0282848
0.0839614
0.245742
0.443843
0.663481
0.870143
1.0406
1.1256
1.07856
0.870272
0.46956
0.0528351
0.259451
0.560056
0.763162
0.85551
0.797755
0.628921
0.392353
0.145323
0.0299352
0.074389
0.0175048
0.00820577
0.00249742
0.000406432
0.000232895
0.000160273
0.000369828
0.000579887
0.000693331
0.00072472
0.000713675
0.000642554
0.000498038
0.000356092
0.000213245
3.45728e-05
0.00124986
0.00109519
0.000294853
0.000447404
0.00220873
0.00549321
0.00572989
0.0024717
0.0203442
0.0421412
0.061019
0.0717786
0.0727365
0.0646209
0.0385948
0.0201935
0.129395
0.285782
0.494698
0.733691
0.927818
1.10498
1.18705
1.14912
0.95103
0.58596
0.117547
0.203523
0.544102
0.869831
0.985697
0.954627
0.803014
0.572013
0.28508
0.0437697
0.0951165
0.0784571
0.00516616
0.00686231
0.00134791
0.000257191
8.69985e-06
0.00037775
0.000604855
0.00075967
0.00083856
0.000830417
0.000765281
0.000648439
0.00048692
0.000325543
0.0001921
4.22388e-05
0.000343194
0.000744721
0.000107349
0.000140332
0.00021896
0.00151202
0.00397425
0.0054019
0.00300759
0.00436121
0.0130216
0.0191234
0.0222729
0.0208546
0.0105924
0.0345984
0.131738
0.296214
0.50574
0.76726
1.00118
1.12387
1.24575
1.20468
1.02307
0.676624
0.206943
0.141403
0.484371
0.859393
1.15253
1.13158
0.961824
0.721806
0.431525
0.144522
0.0709101
0.140195
0.0630833
0.00473894
0.00413961
0.000707359
5.86969e-05
0.000335804
0.000639016
0.000829398
0.000946354
0.000964231
0.000886217
0.000799658
0.000641712
0.000464149
0.000291137
0.000176795
1.38188e-05
1.63543e-05
0.000503609
6.07077e-05
0.00018507
6.67065e-05
0.000134889
0.000793422
0.00233578
0.00374035
0.00395966
0.00198831
6.87144e-05
9.29747e-05
0.00136725
0.000255135
0.0255184
0.112704
0.270404
0.493594
0.73525
1.03044
1.17203
1.25092
1.23311
1.07386
0.740723
0.27539
0.0737019
0.40854
0.798028
1.11351
1.27952
1.14709
0.871055
0.568979
0.258814
0.0108372
0.169821
0.149795
0.0360001
0.0083079
0.00175246
0.000330653
0.000231741
0.000598565
0.000880057
0.000993802
0.00105908
0.00103239
0.000940751
0.000773451
0.000613835
0.000397146
0.000254031
0.000115817
1.05036e-05
0.000118663
0.000318854
6.05875e-05
0.000122377
0.000119191
4.98179e-05
2.55848e-05
0.000265292
0.000981879
0.00180047
0.0025291
0.0023129
0.00226076
0.00432994
0.00273424
0.0121904
0.0751609
0.222893
0.438543
0.696002
0.941075
1.20561
1.2259
1.25049
1.08309
0.775219
0.305262
0.00393418
0.33341
0.738094
1.0695
1.23193
1.19923
1.01233
0.691634
0.368518
0.0668643
0.160629
0.228524
0.123401
0.0112215
0.00596258
0.000559355
3.22286e-05
0.00053058
0.00089302
0.00105437
0.00116456
0.00114381
0.001044
0.000908999
0.000742172
0.00053879
0.000334294
0.00020688
9.46992e-05
1.68595e-06
0.000122298
0.0002025
5.88826e-05
8.5711e-05
7.64562e-05
9.6082e-05
1.50077e-06
9.25796e-05
0.000116581
7.86534e-05
0.000274363
0.000761598
0.000752965
0.00109571
0.00318678
0.00339722
0.036143
0.155214
0.359901
0.608617
0.860085
1.08828
1.21263
1.18354
1.09075
0.778813
0.319202
0.045744
0.245588
0.682948
1.02548
1.25796
1.24381
1.0404
0.789398
0.460985
0.143205
0.128237
0.276469
0.230467
0.0769212
0.00182951
0.00249241
0.000147567
0.000437709
0.000843263
0.00114065
0.00123983
0.00125467
0.00114691
0.00102814
0.000846901
0.00064198
0.000441507
0.000286438
0.000134339
5.36231e-05
9.97421e-06
0.000107657
0.000121858
1.24515e-05
3.46483e-05
5.60445e-05
2.79149e-05
9.41837e-06
0.000106304
0.000219493
0.000378744
0.000433452
0.000572641
0.000381076
0.00028206
0.000439521
0.00213945
0.00982079
0.0832603
0.259422
0.495332
0.745311
0.955335
1.13478
1.10639
1.03068
0.763559
0.34202
0.10579
0.142156
0.635895
0.986008
1.25029
1.32834
1.18177
0.853477
0.532118
0.206462
0.0889729
0.299639
0.327834
0.179092
0.0324473
0.00493444
0.000550309
0.000155298
0.000799374
0.00111736
0.00128794
0.00132952
0.00127029
0.0011321
0.000933699
0.00075065
0.000544813
0.000350014
0.000204631
8.55303e-05
2.49552e-05
1.75409e-05
1.80877e-05
8.4946e-05
1.5548e-05
2.47752e-05
1.72229e-05
1.17823e-05
3.99686e-05
0.000116181
0.000254279
0.000400601
0.000588668
0.000708917
0.000901236
0.000872263
0.000407637
0.000879608
0.00256798
0.0276097
0.152188
0.364501
0.59921
0.821621
0.972448
1.05507
0.933208
0.731736
0.341193
0.139517
0.0891288
0.598584
0.93705
1.23549
1.3724
1.26021
0.956189
0.577444
0.248471
0.0565633
0.305263
0.411574
0.299481
0.102682
0.00596069
0.00389634
0.000194211
0.000470556
0.00107909
0.0012855
0.0013932
0.00137084
0.00124221
0.00104635
0.000848143
0.000621964
0.000397804
0.000249895
0.000124386
3.47137e-05
6.80961e-06
2.7648e-05
8.93769e-06
1.53219e-05
1.05867e-05
1.34856e-05
2.64998e-06
5.02213e-05
0.000140169
0.000271756
0.000420283
0.000556289
0.000770389
0.000879187
0.00104171
0.00101659
3.83584e-05
0.00134102
0.00461695
0.0591826
0.228891
0.443278
0.650018
0.823386
0.905692
0.865816
0.688905
0.346387
0.141962
0.0890671
0.56023
0.896904
1.18287
1.35576
1.31638
1.02325
0.613834
0.267195
0.0381196
0.309256
0.471022
0.430055
0.210272
0.0379569
0.00247025
0.00196413
0.000467862
0.000781974
0.00129942
0.00139736
0.00141309
0.00129998
0.00114721
0.000935436
0.000703669
0.000465895
0.000285665
0.000135594
5.14061e-05
2.13899e-05
3.24797e-05
1.22081e-05
2.34731e-05
1.83492e-05
1.19642e-05
1.15924e-06
6.87895e-05
0.000132273
0.000254365
0.000405292
0.000580809
0.000749203
0.000967612
0.00102075
0.00111482
0.000940013
0.000686136
0.000654172
0.00902853
0.100786
0.291234
0.454911
0.651193
0.751314
0.752828
0.628852
0.397705
0.133852
0.137709
0.531318
0.864777
1.13298
1.30693
1.29191
1.07709
0.651808
0.282693
0.0291368
0.316686
0.525312
0.543037
0.348912
0.107537
0.00405683
0.00220626
0.000491381
0.000709768
0.000982332
0.00136375
0.00138778
0.00133956
0.00119894
0.000987803
0.000761034
0.00053296
0.000341421
0.000153447
3.98022e-05
1.00856e-05
3.71571e-05
1.67224e-05
2.1672e-05
1.17431e-05
1.06023e-05
3.62779e-05
5.62136e-05
0.000131797
0.000238159
0.000380878
0.000577473
0.000756088
0.000923729
0.00110671
0.0011059
0.00112072
0.000599389
0.00113132
0.00179834
0.0161017
0.140094
0.326082
0.446976
0.59804
0.61438
0.540343
0.363284
0.11238
0.173143
0.518649
0.836697
1.08721
1.25243
1.26147
1.06942
0.680065
0.253953
0.00878537
0.338181
0.567543
0.6597
0.494607
0.212175
0.0346607
0.0039708
0.00012117
0.000371099
0.000987896
0.00104984
0.00131596
0.00133195
0.0011954
0.001047
0.000806916
0.000579575
0.000356558
0.000181453
5.16503e-05
6.83323e-06
5.28705e-05
5.74093e-05
3.90152e-05
1.0042e-05
7.75359e-06
2.44243e-05
6.67111e-05
0.000113301
0.000207471
0.000336624
0.000521448
0.000718152
0.000891647
0.00104985
0.00118446
0.0011269
0.0010307
1.75532e-05
0.000699063
0.00612238
0.0232241
0.164056
0.329241
0.416726
0.464015
0.426054
0.297115
0.0843238
0.186102
0.510574
0.819037
1.04385
1.19012
1.19961
1.03952
0.686802
0.221209
0.0125741
0.331374
0.658006
0.735771
0.65827
0.34931
0.0895584
0.00392659
0.00121858
0.00135768
0.000968454
0.0012788
0.00113752
0.00117849
0.00116909
0.00100847
0.000842601
0.000600466
0.000359178
0.000196463
6.6148e-05
4.2307e-05
6.33489e-05
8.65151e-05
2.65092e-05
9.39043e-06
7.42384e-06
3.73936e-06
5.03702e-07
9.8378e-05
0.000158405
0.000303843
0.000439911
0.000635809
0.000816259
0.00100105
0.00111127
0.00116921
0.00105829
0.000771594
0.00085198
0.00155951
0.0122185
0.0237708
0.131517
0.226503
0.301481
0.291618
0.204839
0.0368484
0.195438
0.498872
0.81106
1.02163
1.11844
1.11905
0.969181
0.66665
0.209939
0.0316374
0.314401
0.679108
0.914847
0.782817
0.511482
0.181904
0.0218363
0.000820027
0.000702598
0.00112066
0.00111097
0.00146698
0.00124653
0.00103084
0.000965943
0.000765556
0.000593484
0.000374805
0.000188629
4.92533e-05
6.8502e-05
9.59675e-05
8.36646e-05
6.3481e-05
1.44072e-08
2.58988e-06
1.77417e-05
1.19331e-05
2.09915e-05
0.000155416
0.000234068
0.0003948
0.000534401
0.00073465
0.000921107
0.00105233
0.00113806
0.0011166
0.00091253
0.000322672
0.0015884
0.00595467
0.0205378
0.00949897
0.0684333
0.138251
0.148575
0.0955648
0.0310875
0.222445
0.45733
0.763325
1.00552
1.07312
1.02466
0.875056
0.606462
0.201207
0.0311208
0.276396
0.679875
0.989924
1.00644
0.67857
0.297046
0.0644043
0.000333622
0.00271876
0.00415112
0.00247919
0.000192934
0.00111994
0.00127802
0.000912764
0.000747167
0.00052304
0.000387862
0.000177728
2.4949e-05
6.67368e-05
0.000132168
0.00010773
0.000101427
4.26145e-05
1.96485e-05
2.43304e-05
3.49326e-05
2.82283e-05
5.00423e-05
0.000195689
0.00029821
0.000470453
0.000628013
0.000810237
0.000978595
0.00108864
0.00109743
0.00101471
0.000701208
0.000407013
0.00182294
0.0119327
0.031817
0.0205467
0.00853921
0.0202916
0.0170325
0.109159
0.258617
0.451837
0.649369
0.881674
0.999607
0.914578
0.757329
0.511501
0.173613
0.00126409
0.240133
0.676211
0.9955
1.15721
0.891204
0.450299
0.120696
0.00959894
0.0126554
0.0171347
0.0187153
0.0110297
0.00370228
0.00017239
0.00101884
0.000839451
0.000534757
0.00028944
0.000157594
1.94899e-05
0.000104717
0.000159777
0.000150978
0.000100724
6.24035e-05
2.35657e-05
6.20905e-05
5.75517e-05
8.36512e-06
1.75497e-05
7.56035e-05
0.000230778
0.000366792
0.000537581
0.000704084
0.000861995
0.000974326
0.00104032
0.000987201
0.000833702
0.000445687
0.00136572
0.00153892
0.017983
0.0459122
0.0596019
0.0707223
0.107942
0.179508
0.294269
0.440818
0.604824
0.716989
0.829113
0.791158
0.608143
0.394229
0.116598
0.0740209
0.274314
0.688621
1.00328
1.2036
1.0578
0.552846
0.223759
0.0219474
0.0247695
0.0459499
0.0503462
0.0426235
0.02329
0.00870909
0.00256826
0.000216391
0.000748394
0.000292069
3.39349e-05
5.58874e-05
0.000171184
0.00021064
0.000199704
0.00014131
7.26555e-05
1.07192e-05
7.50912e-05
0.00012297
8.86991e-05
3.41213e-05
2.43895e-05
0.000113987
0.000279496
0.00042064
0.000595024
0.000744854
0.000869272
0.000930344
0.000954957
0.000838088
0.000670133
9.09847e-05
0.00248256
0.00116503
0.0224
0.0605945
0.101052
0.150536
0.218301
0.308224
0.420398
0.531119
0.627569
0.643359
0.555017
0.43218
0.26969
0.0841666
0.126578
0.352395
0.705535
1.02095
1.23337
1.23002
0.807576
0.287501
0.0605754
0.0435663
0.0882782
0.113566
0.102095
0.0708379
0.0344344
0.0128251
0.00560174
0.00100082
0.000548035
8.18982e-05
0.000155286
0.000225141
0.000247651
0.000243767
0.000201154
8.26291e-05
4.24678e-06
0.000112079
0.000154703
0.000195251
0.000134244
4.93221e-05
3.12316e-05
0.00013854
0.000321345
0.000452454
0.000611479
0.000752975
0.000836641
0.000875807
0.000838731
0.000676247
0.00047312
0.000334732
0.00355182
0.00142095
0.0234853
0.0701264
0.131303
0.202983
0.283493
0.36795
0.449453
0.498268
0.506113
0.450992
0.299944
0.16377
0.0135306
0.177578
0.412289
0.722172
1.0387
1.28047
1.30331
0.989472
0.429659
0.09563
0.0536529
0.144241
0.203074
0.212744
0.167255
0.0949398
0.0381799
0.0134683
0.0086109
0.00222416
0.000306199
0.000167951
0.00032664
0.000327028
0.000316607
0.000222186
0.000125266
1.2637e-05
0.00011003
0.000202662
0.000243387
0.000245575
0.000182257
5.23175e-05
3.74705e-05
0.000174439
0.000343558
0.00046671
0.000616703
0.000748725
0.000787062
0.000783847
0.00067591
0.000508847
0.000303924
0.000747715
0.00442719
0.00273214
0.0201635
0.0684859
0.136577
0.210237
0.283746
0.339864
0.372379
0.361729
0.306485
0.230259
0.0959678
0.0449199
0.225928
0.466133
0.753679
1.0636
1.31931
1.38984
1.16175
0.630922
0.158923
0.0589952
0.193572
0.308928
0.357547
0.327033
0.234954
0.107045
0.030983
0.0104585
0.0110195
0.00292982
1.01101e-05
0.000375981
0.000451062
0.000383712
0.000287515
0.000156651
2.36324e-05
0.000110385
0.000243811
0.000299758
0.0003275
0.000296238
0.000219585
4.53471e-05
4.37982e-05
0.000204263
0.000364462
0.00047785
0.000605158
0.000669531
0.000703346
0.000644391
0.000532381
0.000322648
0.000164781
0.00106992
0.00494132
0.00481404
0.0127004
0.0538837
0.113682
0.17161
0.222376
0.242604
0.232697
0.194867
0.129258
0.055009
0.0805131
0.269932
0.516222
0.794055
1.08562
1.35941
1.45266
1.27969
0.814479
0.268315
0.0302023
0.246153
0.404031
0.514292
0.514515
0.449784
0.252567
0.10193
0.0133627
0.00634779
0.0125609
0.00278884
0.00031792
0.000533259
0.000484263
0.000367128
0.000193929
3.31828e-05
0.000120122
0.000283283
0.000371788
0.000426787
0.000393281
0.000345241
0.000209014
4.5259e-05
5.20671e-05
0.000215091
0.00036158
0.000461121
0.000555154
0.000597551
0.000584537
0.00048771
0.000344555
0.000160743
7.43353e-06
0.0012118
0.00493056
0.00667373
0.00362254
0.0312773
0.0734172
0.10718
0.131536
0.127841
0.103145
0.070984
0.015878
0.0826359
0.284624
0.564261
0.835361
1.12147
1.35545
1.50478
1.36736
0.959981
0.403176
0.0236228
0.239245
0.516442
0.667677
0.708411
0.609061
0.495068
0.240927
0.0764624
0.00979561
0.0046486
0.0127691
0.00209458
0.00061603
0.000620773
0.000457437
0.000271101
6.46962e-05
0.000127018
0.000286406
0.000427316
0.00049237
0.000515639
0.000449374
0.000363201
0.000229014
5.36382e-05
4.95906e-05
0.000221363
0.000364724
0.000443713
0.000493073
0.000513557
0.00045187
0.000354263
0.000187379
1.75262e-05
8.09435e-05
0.00113424
0.00428976
0.00722368
0.00340698
0.00998741
0.0336899
0.0488607
0.0530274
0.0446779
0.0278196
0.00369955
0.0734903
0.246892
0.558844
0.896804
1.10969
1.38919
1.51072
1.41422
1.06971
0.534953
0.0908791
0.19949
0.534325
0.851407
0.931449
0.837797
0.658229
0.431702
0.214734
0.0289027
0.0306504
0.00679309
0.0112303
0.00136942
0.000811322
0.000576206
0.000375995
0.000113861
0.000103366
0.000299785
0.000479952
0.000569573
0.000630291
0.000590528
0.000523767
0.000387318
0.000236705
2.37958e-05
5.61826e-05
0.000216812
0.000311979
0.000405738
0.000439591
0.000402261
0.000332186
0.000201576
4.48645e-05
0.000125581
0.000173573
0.000914216
0.00315465
0.00610927
0.00604639
0.00265511
0.00670472
0.0163374
0.0106926
0.00731066
0.00323368
0.0508076
0.201844
0.473337
0.883317
1.15814
1.31668
1.48884
1.45633
1.13435
0.642525
0.158389
0.156585
0.488999
0.88406
1.15525
1.1274
0.919721
0.671201
0.377273
0.137858
0.0311335
0.0400885
0.010698
0.00819396
0.000984457
0.000840294
0.000479739
0.000200141
9.24482e-05
0.000323007
0.000514826
0.000672797
0.000717189
0.000736327
0.000669511
0.000519767
0.000378565
0.000209238
1.78596e-05
4.50817e-05
0.00019678
0.000306472
0.000322748
0.000330656
0.00028916
0.000195398
6.11619e-05
9.08673e-05
0.000222424
0.000245895
0.000660349
0.00191427
0.00399304
0.00491488
0.00572144
0.00591302
0.00355054
0.0016664
0.00295492
0.0300235
0.142572
0.39134
0.737981
1.16772
1.2751
1.44017
1.39807
1.17365
0.705897
0.190968
0.113645
0.441948
0.824473
1.16751
1.30099
1.17594
0.870301
0.537841
0.257936
0.0323511
0.0856872
0.0328346
0.0129805
0.00451134
0.000947284
0.000687323
0.000283914
4.59576e-05
0.000350587
0.000549319
0.000725259
0.000818033
0.000849471
0.000799779
0.000689921
0.000544589
0.000386066
0.000190976
1.82151e-05
5.2843e-05
0.000180078