/*--------------------------------*- C++ -*----------------------------------*\
| =========                 |                                                 |
| \\      /  F ield         | OpenFOAM: The Open Source CFD Toolbox           |
|  \\    /   O peration     | Version:  2506                                  |
|   \\  /    A nd           | Website:  www.openfoam.com                      |
|    \\/     M anipulation  |                                                 |
\*---------------------------------------------------------------------------*/
FoamFile
{
    version     2.0;
    format      ascii;
    arch        "LSB;label=32;scalar=64";
    class       surfaceScalarField;
    location    "190.000237934184668";
    object      phi;
}
// * * * * * * * * * * * * * * * * * * * * * * * * * * * * * * * * * * * * * //

dimensions      [0 3 -1 0 0 0 0];

oriented        oriented;

internalField   nonuniform List<scalar> 
19160
(
-0.00066472
-0.23539
-0.00133481
-0.235363
-0.000641287
-0.234749
-0.002005
-0.235352
-0.00128382
-0.234721
-0.00062799
-0.234121
-0.00268476
-0.235297
-0.00192468
-0.234711
-0.00125497
-0.234094
-0.000612639
-0.233508
-0.00337052
-0.235246
-0.00256634
-0.234655
-0.00187989
-0.234086
-0.00122287
-0.233484
-0.000599669
-0.232909
-0.00406993
-0.235153
-0.00320565
-0.234606
-0.00250105
-0.234034
-0.00182933
-0.23348
-0.00119604
-0.232887
-0.000589202
-0.232319
-0.00478323
-0.23501
-0.00384316
-0.234515
-0.00311614
-0.233991
-0.00242845
-0.233435
-0.00178756
-0.232888
-0.00117477
-0.232302
-0.000581008
-0.231738
-0.00551769
-0.234837
-0.00447567
-0.234378
-0.00372177
-0.23391
-0.00301653
-0.233403
-0.00236938
-0.232853
-0.00175494
-0.232308
-0.00115859
-0.231724
-0.000575953
-0.231162
-0.00627789
-0.234566
-0.00510155
-0.234211
-0.0043131
-0.233786
-0.00358764
-0.233339
-0.00293684
-0.232836
-0.0023244
-0.232284
-0.00173105
-0.231736
-0.00114924
-0.231151
-0.000573676
-0.230589
-0.00707481
-0.234218
-0.00571664
-0.233951
-0.00488374
-0.23364
-0.00413379
-0.23324
-0.00348223
-0.232793
-0.00287785
-0.232282
-0.00229328
-0.231722
-0.00171847
-0.231166
-0.00114593
-0.230579
-0.000572523
-0.230016
-0.00792146
-0.233718
-0.00631774
-0.233617
-0.00542497
-0.233409
-0.00464411
-0.23313
-0.00399517
-0.232727
-0.00340666
-0.232264
-0.00284001
-0.231735
-0.00227948
-0.231161
-0.00171595
-0.230596
-0.00114525
-0.230006
-0.000572333
-0.229444
-0.00883198
-0.233024
-0.00690227
-0.233134
-0.00592554
-0.233116
-0.00510339
-0.23295
-0.00446132
-0.232664
-0.0038989
-0.232235
-0.00336271
-0.231742
-0.00282772
-0.231187
-0.00228114
-0.230595
-0.00171815
-0.230023
-0.00114671
-0.229431
-0.000571549
-0.228872
-0.00982185
-0.23208
-0.00746669
-0.23246
-0.00637218
-0.232687
-0.00549196
-0.232728
-0.00486013
-0.232551
-0.00433802
-0.232225
-0.00384918
-0.231749
-0.00335577
-0.231214
-0.00283837
-0.23063
-0.00229071
-0.230023
-0.001724
-0.229446
-0.00114698
-0.228856
-0.000569145
-0.228303
-0.0109361
-0.230748
-0.00800253
-0.231545
-0.00674932
-0.232083
-0.00578337
-0.232396
-0.00516463
-0.232423
-0.00469967
-0.23219
-0.00428237
-0.231791
-0.0038527
-0.231252
-0.00338239
-0.23067
-0.0028618
-0.230059
-0.00230608
-0.229441
-0.00172811
-0.228865
-0.00114381
-0.228281
-0.000562996
-0.22774
-0.0123837
-0.228912
-0.00848142
-0.230269
-0.00704249
-0.231251
-0.0059443
-0.231922
-0.00533638
-0.232224
-0.00495129
-0.232171
-0.00463662
-0.231835
-0.00430293
-0.231341
-0.00390499
-0.230729
-0.00342921
-0.230102
-0.00289417
-0.229471
-0.00231926
-0.22885
-0.00172669
-0.228282
-0.00113274
-0.227712
-0.000552976
-0.227187
-0.0147068
-0.226611
-0.00891648
-0.228477
-0.00722763
-0.230084
-0.00593401
-0.231262
-0.00532659
-0.231932
-0.00504461
-0.23213
-0.00487674
-0.231931
-0.00468248
-0.231456
-0.00439419
-0.230852
-0.00398876
-0.23017
-0.00348972
-0.229507
-0.00292409
-0.228866
-0.00232429
-0.228252
-0.00171263
-0.227702
-0.00111336
-0.227151
-0.000538393
-0.226649
-0.0187951
-0.224037
-0.00947778
-0.226049
-0.00729957
-0.228405
-0.00570706
-0.230311
-0.00506983
-0.231518
-0.00491755
-0.232059
-0.00494908
-0.232058
-0.00495744
-0.231656
-0.00483089
-0.231019
-0.00453398
-0.230307
-0.0040934
-0.229566
-0.00354784
-0.228883
-0.00294255
-0.228248
-0.00231085
-0.227654
-0.00168503
-0.227131
-0.00108421
-0.226605
-0.000518163
-0.226131
-0.0253982
-0.22183
-0.0107071
-0.222808
-0.00728065
-0.226068
-0.00521425
-0.228898
-0.00449406
-0.230887
-0.00448365
-0.231952
-0.00478424
-0.232224
-0.00507494
-0.231941
-0.00518704
-0.2313
-0.00505366
-0.230499
-0.00470565
-0.229694
-0.00419637
-0.228917
-0.00359019
-0.228235
-0.00293512
-0.227623
-0.00227708
-0.227062
-0.00164147
-0.226573
-0.00104308
-0.226081
-0.000493336
-0.225637
-0.034798
-0.220995
-0.0134525
-0.219084
-0.00736732
-0.222721
-0.00439224
-0.22689
-0.00348715
-0.229904
-0.00363868
-0.231732
-0.00428567
-0.232451
-0.00496721
-0.232331
-0.00541782
-0.23171
-0.00553007
-0.230824
-0.00532526
-0.22988
-0.00487755
-0.229013
-0.00427792
-0.22823
-0.0035969
-0.227574
-0.00289838
-0.227002
-0.00221937
-0.226484
-0.00157856
-0.226038
-0.00099213
-0.225582
-0.000464513
-0.225173
-0.0457319
-0.221237
-0.0192601
-0.215187
-0.00811535
-0.218336
-0.00323239
-0.223881
-0.00189388
-0.228484
-0.00217855
-0.231365
-0.0033159
-0.232702
-0.00454261
-0.232876
-0.00546836
-0.232281
-0.00593371
-0.231306
-0.00594844
-0.230201
-0.00560102
-0.229156
-0.00502054
-0.228271
-0.00431074
-0.227516
-0.00356198
-0.22691
-0.00282708
-0.226394
-0.00213302
-0.225929
-0.00149964
-0.22553
-0.000932674
-0.225114
-0.000432015
-0.224741
-0.0541825
-0.219362
-0.0291624
-0.211334
-0.0105561
-0.212746
-0.00203015
-0.219538
0.000430018
-0.226205
0.000170702
-0.230833
-0.00156384
-0.233117
-0.00363443
-0.23361
-0.00526858
-0.233075
-0.00623338
-0.231981
-0.00656657
-0.230688
-0.00637881
-0.229423
-0.00583792
-0.228339
-0.0050969
-0.227484
-0.00428483
-0.226793
-0.00347795
-0.226259
-0.00271506
-0.225812
-0.00202271
-0.225406
-0.00140689
-0.225056
-0.000865516
-0.22468
-0.000397915
-0.224343
-0.0573493
-0.212045
-0.0410848
-0.20744
-0.0158255
-0.206065
-0.00159813
-0.213178
0.00331735
-0.222426
0.00365037
-0.229685
0.00138209
-0.233779
-0.00182886
-0.234922
-0.00463843
-0.23424
-0.00639513
-0.232914
-0.00717923
-0.231368
-0.00722585
-0.229841
-0.00675736
-0.228503
-0.00598335
-0.227453
-0.00509049
-0.226679
-0.00418962
-0.226081
-0.00333699
-0.225637
-0.00256857
-0.225267
-0.00189177
-0.224921
-0.0013018
-0.22462
-0.000794986
-0.224283
-0.000363483
-0.223979
-0.0555663
-0.197094
-0.0514165
-0.201713
-0.0244651
-0.1988
-0.00300675
-0.204656
0.00615618
-0.216017
0.00806428
-0.22684
0.005825
-0.234127
0.00140833
-0.237016
-0.003097
-0.236464
-0.00625609
-0.234379
-0.0077988
-0.232294
-0.00817378
-0.230421
-0.0078162
-0.228782
-0.00700959
-0.227477
-0.00601178
-0.226531
-0.00498635
-0.225882
-0.00401533
-0.225403
-0.0031473
-0.225058
-0.00239253
-0.224766
-0.00174281
-0.22448
-0.00119126
-0.224224
-0.000723823
-0.223923
-0.000330462
-0.223649
-0.0501392
-0.175936
-0.0566564
-0.191854
-0.0350304
-0.191148
-0.00738273
-0.194424
0.00818218
-0.206682
0.0127861
-0.220739
0.0114916
-0.232506
0.00638076
-0.2391
-2.4639e-05
-0.240088
-0.00532783
-0.237392
-0.00832204
-0.233856
-0.0092848
-0.231183
-0.00907288
-0.229164
-0.00823064
-0.227561
-0.00709554
-0.226393
-0.00590213
-0.225615
-0.00477243
-0.225125
-0.00377271
-0.224778
-0.00291603
-0.224535
-0.00219125
-0.224317
-0.00158579
-0.224086
-0.00107976
-0.223868
-0.000655694
-0.223597
-0.000299853
-0.223349
-0.0421984
-0.152521
-0.056721
-0.175872
-0.0443432
-0.182541
-0.0150737
-0.183457
0.00833687
-0.194579
0.0172911
-0.211187
0.017706
-0.226953
0.0127479
-0.238873
0.00482631
-0.243951
-0.00298277
-0.242433
-0.00833571
-0.237378
-0.0105604
-0.23258
-0.0106318
-0.229624
-0.0097219
-0.227673
-0.00840746
-0.226249
-0.00698528
-0.22531
-0.00563982
-0.224748
-0.00446301
-0.224435
-0.0034722
-0.224221
-0.00265017
-0.224076
-0.00197854
-0.223925
-0.00142751
-0.223738
-0.000973187
-0.22355
-0.000592777
-0.223304
-0.000273491
-0.223076
-0.0364186
-0.0892532
-0.0538629
-0.15538
-0.0496626
-0.170552
-0.024732
-0.172883
0.00561481
-0.180735
0.0209277
-0.198215
0.0240525
-0.217534
0.0198914
-0.234097
0.0111248
-0.245172
0.000982492
-0.247916
-0.00728379
-0.243485
-0.0117624
-0.236176
-0.0126237
-0.230588
-0.0116102
-0.227736
-0.0100295
-0.226051
-0.00830416
-0.22493
-0.00666138
-0.224289
-0.00524422
-0.223967
-0.00407339
-0.223833
-0.00312473
-0.223747
-0.00236847
-0.223686
-0.00176425
-0.223588
-0.0012766
-0.223435
-0.000875193
-0.223268
-0.000538858
-0.223039
-0.000252326
-0.222823
-0.0307561
-0.0805305
-0.0509584
-0.0921577
-0.0509138
-0.154128
-0.0333645
-0.16192
-0.000506038
-0.166762
0.0228569
-0.182664
0.0300792
-0.204242
0.0275053
-0.225148
0.0184576
-0.24143
0.00635624
-0.250546
-0.00487773
-0.250322
-0.0124613
-0.242786
-0.0150587
-0.233741
-0.0141414
-0.228057
-0.0120862
-0.225679
-0.00993878
-0.224416
-0.00790019
-0.223692
-0.00615112
-0.223382
-0.00473799
-0.223302
-0.00362048
-0.223338
-0.00275562
-0.22336
-0.00208497
-0.223365
-0.0015605
-0.223304
-0.00113867
-0.223171
-0.00079175
-0.223015
-0.000495934
-0.222796
-0.00023658
-0.222587
-0.025651
-0.0732915
-0.0479631
-0.0835258
-0.0502065
-0.092865
-0.0389479
-0.148545
-0.00830089
-0.154125
0.0220424
-0.165948
0.0353354
-0.18792
0.0351647
-0.211901
0.0266431
-0.233333
0.0130523
-0.248126
-0.00116799
-0.254255
-0.0121862
-0.250597
-0.0176715
-0.240174
-0.0175908
-0.230292
-0.0148868
-0.225257
-0.0119903
-0.223628
-0.00942729
-0.222889
-0.00723493
-0.222608
-0.00548866
-0.222631
-0.00414695
-0.222776
-0.00313847
-0.222955
-0.00238457
-0.22306
-0.0018163
-0.22311
-0.00137558
-0.223067
-0.00102227
-0.222941
-0.000726071
-0.222785
-0.000464525
-0.222568
-0.000226813
-0.22236
-0.0218473
-0.0678957
-0.0452267
-0.076028
-0.0487746
-0.0849577
-0.0409348
-0.090878
-0.0153465
-0.141499
0.0183301
-0.150413
0.0390785
-0.169691
0.0425566
-0.195312
0.0352744
-0.220533
0.0209583
-0.241239
0.00410484
-0.253399
-0.0105282
-0.255913
-0.019871
-0.248398
-0.0218884
-0.235876
-0.018941
-0.226237
-0.0147575
-0.22249
-0.0113106
-0.221744
-0.00855191
-0.221572
-0.00636055
-0.221736
-0.00471335
-0.222065
-0.00351723
-0.222397
-0.00265479
-0.222685
-0.00203412
-0.222842
-0.00157443
-0.222911
-0.00122116
-0.222868
-0.000932117
-0.222735
-0.000679089
-0.22257
-0.000445742
-0.222349
-0.000222576
-0.222137
-0.0199807
-0.0644093
-0.043109
-0.0700134
-0.0471397
-0.0776629
-0.0413361
-0.0845565
-0.0191447
-0.0870798
0.0132056
-0.136375
0.0404946
-0.151829
0.0492555
-0.17639
0.0439965
-0.204034
0.0297235
-0.229298
0.0108556
-0.24799
-0.00735858
-0.256568
-0.0207258
-0.255059
-0.026423
-0.243863
-0.0244534
-0.230364
-0.0189014
-0.222093
-0.0137689
-0.220031
-0.0101397
-0.220156
-0.00738999
-0.220542
-0.00533727
-0.221112
-0.00388795
-0.221694
-0.00288674
-0.222165
-0.00219977
-0.222519
-0.00172126
-0.222695
-0.00137487
-0.222757
-0.00110389
-0.222696
-0.000869763
-0.222544
-0.000652461
-0.222363
-0.000438658
-0.222133
-0.000223229
-0.221914
-0.0200933
-0.0626425
-0.0418815
-0.0656368
-0.0455493
-0.0716038
-0.0405513
-0.0784476
-0.0210686
-0.0826326
0.00915565
-0.0830299
0.0398139
-0.135694
0.0546983
-0.157272
0.0523967
-0.18479
0.0389656
-0.213276
0.0187891
-0.237231
-0.00259872
-0.25275
-0.0199272
-0.257367
-0.0301917
-0.25129
-0.0309142
-0.237402
-0.0249896
-0.224276
-0.0174694
-0.218393
-0.012104
-0.218067
-0.00859393
-0.218952
-0.00603138
-0.219848
-0.00425118
-0.220749
-0.00306456
-0.221516
-0.00229589
-0.222069
-0.0017971
-0.222443
-0.00146639
-0.222604
-0.00122681
-0.222634
-0.00102627
-0.22254
-0.000837399
-0.222359
-0.000644697
-0.222157
-0.00044189
-0.221914
-0.000227279
-0.221687
-0.0222558
-0.062584
-0.0412786
-0.0632454
-0.043984
-0.067202
-0.0388319
-0.0733233
-0.02126
-0.0782562
0.00636794
-0.0798449
0.0374966
-0.0807126
0.0585856
-0.139581
0.0601934
-0.165068
0.0482402
-0.194064
0.0275644
-0.222051
0.0035223
-0.243352
-0.0179178
-0.254759
-0.0323729
-0.255185
-0.0373976
-0.244806
-0.0328009
-0.229591
-0.0233025
-0.218442
-0.0149637
-0.215533
-0.00997814
-0.216683
-0.00679922
-0.218185
-0.00459535
-0.219504
-0.00317309
-0.22064
-0.00229663
-0.221515
-0.00177723
-0.222089
-0.00147332
-0.222436
-0.00128205
-0.222549
-0.00113415
-0.222526
-0.000991047
-0.222386
-0.000832852
-0.222171
-0.000653492
-0.221946
-0.000452304
-0.221689
-0.000233644
-0.221453
-0.0258374
-0.064568
-0.0411629
-0.0626997
-0.0423518
-0.0648776
-0.0362629
-0.069771
-0.0198936
-0.0746897
0.00527444
-0.0771627
0.0352927
-0.077641
0.059216
-0.0813429
0.0668543
-0.146242
0.0573517
-0.17418
0.0368856
-0.203386
0.01079
-0.229319
-0.0144404
-0.24683
-0.0334386
-0.253694
-0.043006
-0.249577
-0.041426
-0.236181
-0.0315006
-0.221393
-0.0197291
-0.213677
-0.0118288
-0.213683
-0.00758537
-0.215897
-0.00491131
-0.217869
-0.0031795
-0.219498
-0.00217239
-0.220764
-0.00162805
-0.221665
-0.00136516
-0.222197
-0.00124537
-0.222473
-0.00117425
-0.222509
-0.0011002
-0.222417
-0.000995212
-0.222224
-0.000852594
-0.221972
-0.000673822
-0.221724
-0.000467515
-0.221455
-0.00024075
-0.221212
-0.0295083
-0.0684964
-0.040916
-0.0648149
-0.04011
-0.0649415
-0.0328006
-0.0683399
-0.0171511
-0.0725135
0.00589726
-0.0753126
0.0339779
-0.0758479
0.0592198
-0.0776449
0.0697504
-0.0842391
0.0655268
-0.154417
0.0464384
-0.183733
0.0191247
-0.21172
-0.0095906
-0.234169
-0.0330163
-0.247252
-0.0471535
-0.249546
-0.0498072
-0.241196
-0.0413387
-0.226343
-0.0271305
-0.213992
-0.0150043
-0.210502
-0.0084666
-0.212801
-0.00511731
-0.215691
-0.00305805
-0.21799
-0.00187431
-0.219796
-0.00130688
-0.221086
-0.00110275
-0.221927
-0.00108254
-0.22236
-0.00112226
-0.222525
-0.001147
-0.222462
-0.00112095
-0.222291
-0.00103359
-0.222043
-0.000889275
-0.221756
-0.000701673
-0.22149
-0.000484139
-0.221212
-0.000246625
-0.220966
-0.0322039
-0.0743105
-0.040115
-0.0692974
-0.0369031
-0.0680218
-0.028377
-0.069365
-0.0132316
-0.0722595
0.00808182
-0.074698
0.0339491
-0.0752837
0.0590525
-0.0756805
0.0720673
-0.0799617
0.0699643
-0.0886765
0.0550997
-0.163079
0.0278369
-0.192445
-0.00337894
-0.217932
-0.0311396
-0.236046
-0.0498826
-0.244523
-0.0569698
-0.242383
-0.0516341
-0.230901
-0.0369346
-0.216539
-0.0205675
-0.208428
-0.00994941
-0.209019
-0.00517163
-0.212747
-0.00271801
-0.216031
-0.00135538
-0.218509
-0.000754048
-0.220349
-0.000632306
-0.221556
-0.000751096
-0.222258
-0.000942812
-0.222539
-0.00110892
-0.222563
-0.00119511
-0.222388
-0.00118902
-0.222136
-0.00109589
-0.221836
-0.000936653
-0.221521
-0.000731513
-0.221243
-0.000497989
-0.22096
-0.000250188
-0.220716
-0.032985
-0.127124
-0.0380856
-0.0763399
-0.0327304
-0.0734702
-0.0233525
-0.0730463
-0.00837176
-0.0742248
0.0115692
-0.0757468
0.0353061
-0.0760551
0.0592284
-0.0754596
0.0738366
-0.0774499
0.0737796
-0.0837771
0.0604623
-0.0940391
0.0359835
-0.171225
0.003139
-0.198963
-0.0280821
-0.220989
-0.0512596
-0.234669
-0.0627647
-0.238728
-0.061311
-0.232706
-0.048115
-0.21972
-0.0289108
-0.208196
-0.0130886
-0.205289
-0.00520907
-0.208981
-0.00207899
-0.213386
-0.000521185
-0.216865
0.000101164
-0.219364
0.000113256
-0.221094
-0.000189191
-0.222118
-0.000592748
-0.222608
-0.000952412
-0.222696
-0.00119888
-0.222559
-0.00130826
-0.222268
-0.00129031
-0.221941
-0.00117278
-0.2216
-0.00098641
-0.221266
-0.000756586
-0.220984
-0.000506698
-0.220704
-0.00025014
-0.220465
-0.030144
-0.150859
-0.0320011
-0.133209
-0.0277169
-0.0813534
-0.0177149
-0.0791077
-0.00284019
-0.0785779
0.0161182
-0.0787738
0.0379938
-0.0784345
0.0602097
-0.0770364
0.0752406
-0.0768636
0.0768686
-0.0805389
0.0653516
-0.0886664
0.0418683
-0.0999239
0.00996332
-0.17805
-0.0243889
-0.202656
-0.0515296
-0.220719
-0.067206
-0.230228
-0.0697533
-0.230286
-0.0594114
-0.22141
-0.0394699
-0.209161
-0.018733
-0.202552
-0.00597147
-0.204527
-0.00104052
-0.21002
0.000722013
-0.214629
0.00135573
-0.218119
0.00122691
-0.220478
0.000675761
-0.221959
-6.57439e-06
-0.222704
-0.000636551
-0.222924
-0.00110369
-0.222791
-0.00137809
-0.222489
-0.00146738
-0.222091
-0.00141116
-0.221703
-0.00125221
-0.221334
-0.00102856
-0.220994
-0.000772939
-0.220718
-0.000507525
-0.220446
-0.000245823
-0.22022
-0.0243152
-0.177651
-0.023571
-0.15929
-0.0190807
-0.141845
-0.0116492
-0.0874192
0.00328382
-0.0852318
0.0214008
-0.0838606
0.041719
-0.082499
0.0620567
-0.0802814
0.0765433
-0.0783391
0.0791942
-0.0791892
0.0696943
-0.0848816
0.0473519
-0.0941499
0.0161378
-0.106098
-0.0192658
-0.183173
-0.0504585
-0.203727
-0.0703528
-0.217573
-0.0767357
-0.223245
-0.0698285
-0.219869
-0.0510892
-0.209791
-0.0269776
-0.200916
-0.00837054
-0.200153
6.96651e-05
-0.205637
0.0025432
-0.211841
0.00312814
-0.216402
0.00281167
-0.219704
0.00195409
-0.221756
0.000891879
-0.222858
-9.73893e-05
-0.223243
-0.000874318
-0.223154
-0.00137788
-0.222791
-0.001621
-0.222336
-0.00165269
-0.22185
-0.00153443
-0.221421
-0.00132
-0.221043
-0.00105699
-0.22071
-0.000776143
-0.220449
-0.000499081
-0.220193
-0.000236528
-0.219983
-0.0168674
-0.204033
-0.0140156
-0.187206
-0.00973805
-0.168632
-0.00214293
-0.151351
0.00955821
-0.0936935
0.0271901
-0.091021
0.0461712
-0.0883127
0.0646522
-0.0850945
0.0778119
-0.08155
0.0808252
-0.0799701
0.0733979
-0.0828928
0.0521715
-0.0897013
0.0219179
-0.09993
-0.0134434
-0.111921
-0.0477258
-0.185905
-0.0719915
-0.202089
-0.0822308
-0.212078
-0.0788049
-0.214269
-0.0625387
-0.208419
-0.0371696
-0.199599
-0.0130241
-0.196263
0.000624188
-0.200707
0.00494016
-0.208034
0.00556865
-0.214281
0.005022
-0.218612
0.00376137
-0.221511
0.00222283
-0.223087
0.000740406
-0.223695
-0.000454508
-0.223663
-0.00128186
-0.22325
-0.00174094
-0.222671
-0.00189931
-0.222089
-0.00184001
-0.221544
-0.00164027
-0.221101
-0.00136703
-0.220733
-0.00106517
-0.220421
-0.00076395
-0.220184
-0.000479939
-0.21995
-0.000222796
-0.21976
-0.00894263
-0.227491
-0.00467949
-0.213369
-0.000448026
-0.196496
0.00723778
-0.178013
0.0185596
-0.160353
0.033008
-0.0995114
0.0508774
-0.0957272
0.067655
-0.0913156
0.0790685
-0.0863512
0.0818644
-0.0825892
0.0762291
-0.0828013
0.0561817
-0.086903
0.0268945
-0.0946778
-0.00804282
-0.105331
-0.0434034
-0.116243
-0.072425
-0.185472
-0.0863094
-0.19801
-0.0860728
-0.20481
-0.0729006
-0.203907
-0.0481595
-0.197429
-0.0199761
-0.192647
-0.000114799
-0.195524
0.00765612
-0.203423
0.00884251
-0.211308
0.00799223
-0.217252
0.00628661
-0.221137
0.00411805
-0.223407
0.00199911
-0.224346
0.000224061
-0.224374
-0.00104783
-0.223897
-0.00181445
-0.223176
-0.00215267
-0.222418
-0.00217899
-0.22175
-0.00200165
-0.221183
-0.00171531
-0.220752
-0.00138402
-0.220414
-0.00104977
-0.220136
-0.000734179
-0.21993
-0.000451255
-0.219721
-0.000205197
-0.219555
-0.00178001
-0.245768
0.00367255
-0.235843
0.00794541
-0.221762
0.0155866
-0.204845
0.0268446
-0.186298
0.0402025
-0.167547
0.0554379
-0.104072
0.0705737
-0.098646
0.080168
-0.0924151
0.0824855
-0.0869723
0.0782484
-0.0846085
0.0593094
-0.085929
0.0308926
-0.0909011
-0.00334121
-0.0993794
-0.0391166
-0.109617
-0.0702494
-0.118419
-0.0893275
-0.182454
-0.0915491
-0.192534
-0.0816092
-0.196101
-0.0588226
-0.193244
-0.0285478
-0.188858
-0.00265669
-0.190105
0.0101723
-0.19804
0.0129469
-0.207527
0.0119435
-0.215259
0.00968365
-0.220649
0.00679122
-0.22381
0.00382193
-0.225229
0.00127532
-0.225397
-0.000622389
-0.224799
-0.00181921
-0.223892
-0.0024155
-0.222913
-0.00256502
-0.222032
-0.0024214
-0.22133
-0.00211815
-0.22078
-0.00174656
-0.22039
-0.00136624
-0.220098
-0.0010078
-0.219862
-0.000688722
-0.219693
-0.000414296
-0.219512
-0.000184383
-0.219371
0.00391262
-0.257192
0.0102175
-0.252313
0.0147324
-0.24263
0.0225391
-0.228715
0.033237
-0.211238
0.0460847
-0.19218
0.0600554
-0.172165
0.0729931
-0.106491
0.0809193
-0.0993973
0.0827524
-0.092682
0.0792443
-0.0879681
0.0614093
-0.0867084
0.0338438
-0.0888802
0.00041302
-0.0946553
-0.0352002
-0.103296
-0.0675591
-0.112308
-0.0892833
-0.118463
-0.0953283
-0.178675
-0.0885539
-0.185589
-0.0682721
-0.186652
-0.0377567
-0.184035
-0.00701794
-0.184496
0.0119744
-0.191907
0.0176822
-0.202775
0.0170033
-0.212587
0.0142062
-0.219781
0.0104416
-0.224299
0.00643239
-0.226421
0.00283875
-0.226793
8.67678e-05
-0.226106
-0.00172512
-0.224893
-0.00268926
-0.223619
-0.00301712
-0.222461
-0.00292385
-0.221529
-0.00259826
-0.22085
-0.00217141
-0.220355
-0.00172739
-0.220029
-0.00130985
-0.219795
-0.000942146
-0.219609
-0.000629744
-0.219477
-0.000370539
-0.219326
-0.000161906
-0.219209
0.00778405
-0.260844
0.0145261
-0.261501
0.019502
-0.257082
0.0273682
-0.247459
0.0376716
-0.233149
0.0499168
-0.21507
0.0626247
-0.194749
0.0743385
-0.17351
0.0812235
-0.106796
0.0826453
-0.0992902
0.0791917
-0.0926294
0.062377
-0.0889358
0.0356216
-0.0884862
0.00303175
-0.0914989
-0.0320024
-0.0978532
-0.0648274
-0.106028
-0.0885347
-0.113056
-0.0964499
-0.117341
-0.0936248
-0.173604
-0.0762824
-0.177579
-0.0464966
-0.177912
-0.0127016
-0.178351
0.0125364
-0.185058
0.0227367
-0.196962
0.0231683
-0.20894
0.0200695
-0.218451
0.0153853
-0.224725
0.0100831
-0.22795
0.005127
-0.228709
0.0011919
-0.227898
-0.00147653
-0.226355
-0.00297407
-0.224609
-0.00356139
-0.223074
-0.00354276
-0.221842
-0.00318795
-0.22094
-0.00268422
-0.220338
-0.00215222
-0.21993
-0.00165305
-0.219685
-0.00121904
-0.219519
-0.000856233
-0.219382
-0.000559811
-0.219288
-0.00032331
-0.219165
-0.000139019
-0.21907
0.0102213
-0.259218
0.0167087
-0.263027
0.0218778
-0.263877
0.0297602
-0.259474
0.0397366
-0.249524
0.0513187
-0.234551
0.0631997
-0.215645
0.0736984
-0.194109
0.0801343
-0.172421
0.0819382
-0.106088
0.0779946
-0.0980931
0.0619631
-0.0922155
0.0361047
-0.0894189
0.00438153
-0.089836
-0.0298308
-0.0936705
-0.06241
-0.100271
-0.0873039
-0.107258
-0.0969708
-0.112535
-0.096051
-0.114915
-0.0825424
-0.167344
-0.0541706
-0.169905
-0.0188852
-0.171728
0.0118263
-0.177641
0.0275406
-0.189862
0.0302894
-0.204083
0.027333
-0.216204
0.0219275
-0.224993
0.0151876
-0.22983
0.00844007
-0.231263
0.00286769
-0.230385
-0.00101564
-0.228359
-0.00326389
-0.226065
-0.00423168
-0.223938
-0.00432639
-0.222291
-0.00393208
-0.221098
-0.00332168
-0.220302
-0.00266649
-0.219823
-0.00205485
-0.219528
-0.00152962
-0.219375
-0.00109909
-0.219276
-0.000754213
-0.219188
-0.000484341
-0.219127
-0.000275339
-0.219028
-0.000117158
-0.218953
0.0111205
-0.252511
0.0169657
-0.259475
0.0223393
-0.263489
0.0299871
-0.264104
0.0393411
-0.259079
0.0501949
-0.2484
0.0613184
-0.23267
0.0710399
-0.212986
0.0774409
-0.191416
0.0792207
-0.169703
0.0754901
-0.103584
0.060017
-0.096147
0.0351329
-0.0912437
0.0043181
-0.0893554
-0.0288653
-0.0908016
-0.0606241
-0.0954563
-0.0858167
-0.101758
-0.0970002
-0.107229
-0.0974753
-0.111111
-0.0867272
-0.11073
-0.0602889
-0.161225
-0.024582
-0.164208
0.00991431
-0.169816
0.0317443
-0.181845
0.0379646
-0.197537
0.035847
-0.212597
0.0301382
-0.224414
0.0221362
-0.231941
0.0132998
-0.234689
0.00544773
-0.233843
-0.00023879
-0.231162
-0.00357634
-0.228046
-0.00507636
-0.22522
-0.00534057
-0.222924
-0.00489545
-0.221327
-0.0041344
-0.220286
-0.00330728
-0.219661
-0.00253838
-0.21934
-0.00188813
-0.21917
-0.00136508
-0.219109
-0.000956437
-0.219074
-0.000644187
-0.219028
-0.000407851
-0.218994
-0.000229706
-0.218916
-9.74227e-05
-0.218855
0.0107557
-0.244879
0.0156693
-0.251214
0.0205048
-0.257641
0.0278232
-0.261325
0.0363946
-0.261157
0.0464682
-0.255352
0.0567772
-0.243859
0.0659392
-0.227569
0.0722594
-0.207805
0.0740517
-0.186247
0.0701419
-0.164355
0.0563857
-0.0999525
0.0325138
-0.0935279
0.00280035
-0.0897259
-0.0291977
-0.0890231
-0.059748
-0.0916777
-0.0843757
-0.0968974
-0.0965383
-0.10222
-0.0980718
-0.106632
-0.0894641
-0.108374
-0.0654642
-0.105555
-0.0295133
-0.156294
0.00787877
-0.162172
0.034884
-0.172956
0.0457454
-0.189626
0.0452553
-0.206946
0.0396805
-0.222139
0.0309249
-0.233203
0.0200983
-0.23874
0.00952617
-0.238768
0.00118643
-0.235268
-0.00390733
-0.230831
-0.00619456
-0.226928
-0.00668279
-0.223878
-0.00616875
-0.221651
-0.0051958
-0.220266
-0.00412485
-0.219468
-0.00313713
-0.219063
-0.00231278
-0.218915
-0.00166402
-0.218871
-0.00116926
-0.218896
-0.00080274
-0.218915
-0.000533039
-0.218903
-0.00033535
-0.218889
-0.000188784
-0.218824
-8.10721e-05
-0.218774
0.00981912
-0.239657
0.0136716
-0.242882
0.0175701
-0.24828
0.023671
-0.253489
0.0312358
-0.256166
0.0400435
-0.254732
0.0494878
-0.248063
0.058121
-0.236041
0.0642382
-0.219548
0.0661394
-0.199892
0.0623799
-0.178485
0.0502109
-0.15818
0.0281403
-0.0955791
-0.000268902
-0.0904586
-0.030758
-0.0881656
-0.0596421
-0.089129
-0.083046
-0.0930074
-0.0956005
-0.0978352
-0.0979285
-0.102363
-0.0907935
-0.105303
-0.0688639
-0.104974
-0.0354259
-0.0996426
0.00564802
-0.154063
0.0372996
-0.164588
0.053108
-0.180318
0.055087
-0.199457
0.0500985
-0.217364
0.0409523
-0.232166
0.0286616
-0.241767
0.0153512
-0.244565
0.00381553
-0.241397
-0.00399446
-0.235181
-0.00769949
-0.229326
-0.00852017
-0.225091
-0.00788485
-0.222162
-0.00660964
-0.220237
-0.00519238
-0.219198
-0.00389526
-0.21871
-0.00283033
-0.218545
-0.00200761
-0.218571
-0.00139733
-0.218643
-0.000958649
-0.21874
-0.000648064
-0.2188
-0.000428241
-0.21881
-0.00027076
-0.218807
-0.000155183
-0.21875
-6.88459e-05
-0.218705
0.00880123
-0.237518
0.0117296
-0.237715
0.0146745
-0.239986
0.0192086
-0.243817
0.0251209
-0.247374
0.0323964
-0.248519
0.0404235
-0.245668
0.0480502
-0.237992
0.0537261
-0.225529
0.0556846
-0.209093
0.0524039
-0.189916
0.0418808
-0.170155
0.0224577
-0.152498
-0.00462641
-0.0912216
-0.0332613
-0.0879553
-0.0601193
-0.0876884
-0.0817612
-0.0904138
-0.0940938
-0.0945141
-0.0970263
-0.0987374
-0.0907398
-0.102417
-0.0706685
-0.103498
-0.0394294
-0.100971
-8.49757e-05
-0.0939096
0.039302
-0.156066
0.0596351
-0.171115
0.0648952
-0.190127
0.0609173
-0.210276
0.0517028
-0.228114
0.0381776
-0.241682
0.0225214
-0.248937
0.00769816
-0.248448
-0.0034678
-0.241924
-0.0094922
-0.233388
-0.0110846
-0.226761
-0.0102504
-0.222725
-0.00852516
-0.220247
-0.00661257
-0.218817
-0.0048774
-0.218216
-0.00347431
-0.218066
-0.00241369
-0.218139
-0.00164504
-0.218324
-0.00111116
-0.21849
-0.000747682
-0.21864
-0.000503098
-0.218725
-0.000335738
-0.218745
-0.000218247
-0.218744
-0.00013042
-0.218689
-6.10482e-05
-0.218644
0.00787684
-0.236853
0.0101248
-0.235913
0.0123509
-0.235392
0.0155079
-0.236285
0.0196181
-0.238315
0.0249224
-0.2399
0.0310791
-0.239174
0.0372013
-0.234819
0.0419527
-0.226219
0.0437136
-0.213558
0.0409335
-0.197623
0.0320592
-0.180095
0.0156394
-0.163336
-0.00807108
-0.149053
-0.0360199
-0.088463
-0.0605976
-0.087477
-0.0802423
-0.0892074
-0.0920084
-0.0924991
-0.0951945
-0.0963459
-0.0893327
-0.100145
-0.0709604
-0.102125
-0.0417666
-0.101161
-0.0044042
-0.0966518
0.0356286
-0.0902362
0.0655823
-0.162013
0.074102
-0.180322
0.071673
-0.200882
0.0627382
-0.221312
0.0482814
-0.238218
0.0302447
-0.249406
0.0123009
-0.253539
-0.00247938
-0.249436
-0.0114371
-0.239979
-0.0145157
-0.229957
-0.0135959
-0.223416
-0.0111528
-0.220098
-0.00853132
-0.218328
-0.00617153
-0.217523
-0.00429467
-0.217396
-0.0029024
-0.217577
-0.00192017
-0.217864
-0.00125738
-0.218178
-0.000826014
-0.218412
-0.000551338
-0.218592
-0.000376485
-0.218684
-0.000261575
-0.218701
-0.000180251
-0.218694
-0.000115107
-0.218635
-5.77919e-05
-0.218586
0.00703254
-0.236439
0.00881355
-0.235542
0.0105809
-0.234143
0.0128593
-0.232743
0.0155558
-0.232223
0.0189645
-0.232357
0.0230396
-0.23186
0.0273157
-0.229289
0.0307373
-0.223604
0.0319601
-0.214465
0.029562
-0.202186
0.0220941
-0.187658
0.00855382
-0.173009
-0.0113204
-0.160087
-0.0355959
-0.149477
-0.0606124
-0.0884481
-0.078273
-0.0894463
-0.0892622
-0.0919535
-0.0924946
-0.095199
-0.0869024
-0.0987761
-0.0699622
-0.101143
-0.04263
-0.101261
-0.00705996
-0.0985054
0.0319877
-0.093011
0.0652306
-0.0898845
0.0824781
-0.170389
0.0819645
-0.190613
0.0735466
-0.211691
0.0586052
-0.231635
0.0385591
-0.246532
0.0171696
-0.254274
-0.00117705
-0.254842
-0.0136519
-0.247221
-0.0188451
-0.235649
-0.0183266
-0.225227
-0.0148634
-0.219705
-0.0111303
-0.217499
-0.00790338
-0.216596
-0.00535457
-0.216463
-0.00350548
-0.216793
-0.00222853
-0.217269
-0.00139493
-0.217726
-0.000873479
-0.21813
-0.000562598
-0.218401
-0.000381896
-0.218587
-0.000276613
-0.218669
-0.00020932
-0.218672
-0.000157777
-0.218651
-0.000109429
-0.218583
-5.8641e-05
-0.218528
0.00623352
-0.236024
0.00768902
-0.235315
0.00914679
-0.234107
0.0109457
-0.23223
0.0128735
-0.230061
0.0149857
-0.228244
0.0173231
-0.22664
0.0197743
-0.224319
0.0217255
-0.220277
0.0221738
-0.213817
0.019945
-0.204848
0.0137925
-0.193884
0.00267326
-0.181777
-0.0137264
-0.170603
-0.0343436
-0.161339
-0.0562303
-0.153859
-0.075851
-0.0908701
-0.0859558
-0.0927527
-0.0889955
-0.0954527
-0.0834935
-0.098608
-0.0677259
-0.101012
-0.0420664
-0.101706
-0.00829501
-0.100026
0.0294772
-0.0959949
0.0640334
-0.0918138
0.0848566
-0.092263
0.0912279
-0.179652
0.083918
-0.200985
0.0687169
-0.221802
0.0470483
-0.240125
0.0226555
-0.252018
0.000546874
-0.255998
-0.0159819
-0.252512
-0.0239868
-0.242079
-0.0246405
-0.229335
-0.0202787
-0.219811
-0.0147369
-0.216099
-0.010206
-0.215196
-0.00674808
-0.215202
-0.00425618
-0.215712
-0.00258248
-0.216439
-0.00151597
-0.217148
-0.000878231
-0.217722
-0.000521722
-0.218171
-0.000338108
-0.218445
-0.000250709
-0.218613
-0.000208477
-0.21867
-0.000180471
-0.21865
-0.000151028
-0.21861
-0.000112467
-0.218529
-6.28813e-05
-0.218465
0.00546828
-0.235698
0.00668881
-0.235023
0.00791746
-0.234085
0.00940366
-0.232565
0.0109715
-0.230328
0.0124982
-0.227573
0.0138524
-0.224774
0.015003
-0.221869
0.0157025
-0.218296
0.0153536
-0.213457
0.0131416
-0.207014
0.00804488
-0.199101
-0.000871685
-0.190339
-0.0141944
-0.181309
-0.0315706
-0.173376
-0.0508636
-0.166706
-0.0688796
-0.160831
-0.0821631
-0.0946627
-0.0848549
-0.0968933
-0.0793002
-0.099646
-0.0643302
-0.102004
-0.040048
-0.103031
-0.00798879
-0.102013
0.0283699
-0.0989188
0.0628711
-0.0948326
0.0866896
-0.0936468
0.0950931
-0.0961281
0.0931113
-0.188846
0.0785315
-0.210799
0.0555871
-0.230341
0.028216
-0.245685
0.00233227
-0.253803
-0.0177624
-0.254218
-0.0297305
-0.246768
-0.0322742
-0.234446
-0.0278223
-0.221792
-0.0200607
-0.214487
-0.0132944
-0.21301