/*--------------------------------*- C++ -*----------------------------------*\
| =========                 |                                                 |
| \\      /  F ield         | OpenFOAM: The Open Source CFD Toolbox           |
|  \\    /   O peration     | Version:  2506                                  |
|   \\  /    A nd           | Website:  www.openfoam.com                      |
|    \\/     M anipulation  |                                                 |
\*---------------------------------------------------------------------------*/
FoamFile
{
    version     2.0;
    format      ascii;
    arch        "LSB;label=32;scalar=64";
    class       volVectorField;
    location    "190.000237934184668";
    object      U_0;
}
// * * * * * * * * * * * * * * * * * * * * * * * * * * * * * * * * * * * * * //

dimensions      [0 1 -1 0 0 0 0];

internalField   nonuniform List<vector> 
9700
(
(1.11478 0.0016085 6.05369e-22)
(1.11472 0.0053064 -4.76116e-25)
(1.10978 0.00154685 5.80986e-28)
(1.11462 0.0086177 -7.93783e-22)
(1.10969 0.00511487 -2.89222e-24)
(1.1075 0.00151094 -5.98295e-22)
(1.11445 0.0122757 -8.14755e-24)
(1.10958 0.00827928 -5.93803e-35)
(1.10741 0.00500636 -5.96729e-22)
(1.10432 0.00146973 0)
(1.11418 0.0157426 6.23038e-22)
(1.10934 0.0117627 8.0367e-24)
(1.10731 0.00809113 -4.46429e-21)
(1.10424 0.00487918 -5.29635e-23)
(1.10153 0.0014343 5.75385e-22)
(1.11379 0.0194423 6.5257e-22)
(1.10903 0.0150138 -3.85635e-27)
(1.1071 0.0114778 -6.30728e-22)
(1.10415 0.00787234 1.36243e-34)
(1.10147 0.00476928 5.8559e-22)
(1.0987 0.00140426 1.35979e-27)
(1.11323 0.0231024 9.48134e-23)
(1.10855 0.0184332 5.39174e-27)
(1.10681 0.0146153 -6.37904e-22)
(1.10396 0.0111481 1.35336e-22)
(1.1014 0.00768597 4.24162e-21)
(1.09865 0.0046762 -1.03066e-23)
(1.09595 0.00138116 -5.46271e-22)
(1.11243 0.026958 9.73935e-22)
(1.10788 0.0217292 1.89405e-22)
(1.10638 0.0178862 -6.04013e-22)
(1.1037 0.0141571 0)
(1.10124 0.0108699 5.50978e-22)
(1.09861 0.0075307 -1.99681e-35)
(1.09592 0.00460614 -5.3676e-22)
(1.09322 0.00136493 -4.51443e-21)
(1.11131 0.0308951 -1.52783e-22)
(1.10695 0.0250976 -1.30024e-21)
(1.10577 0.0209937 -4.00246e-22)
(1.10331 0.0172608 0)
(1.10105 0.0137766 5.55024e-22)
(1.0985 0.0106422 2.53482e-23)
(1.0959 0.00741701 -3.7251e-25)
(1.09321 0.00455968 -5.2153e-21)
(1.09052 0.0013548 -1.24104e-24)
(1.10975 0.0350683 -9.96328e-22)
(1.10564 0.0283875 -3.72548e-22)
(1.10493 0.024108 -7.28044e-21)
(1.10278 0.0201577 -4.7145e-37)
(1.10076 0.0167492 6.30258e-22)
(1.09838 0.0134723 -1.22192e-26)
(1.09585 0.0104812 -5.91372e-22)
(1.09322 0.00734563 -7.03371e-22)
(1.09052 0.00453482 6.40686e-22)
(1.08783 0.00134909 4.31906e-21)
(1.10759 0.0394698 8.17192e-22)
(1.10384 0.0316877 4.58792e-23)
(1.10375 0.0270629 1.42368e-21)
(1.10204 0.0229879 1.44298e-22)
(1.10036 0.0194841 9.67429e-22)
(1.09819 0.0163507 1.60935e-26)
(1.0958 0.0132683 -5.93897e-22)
(1.09321 0.0103885 -5.24332e-21)
(1.09054 0.00731288 6.87887e-22)
(1.08783 0.00452617 4.48251e-21)
(1.08514 0.00134548 0)
(1.1046 0.0442564 4.30269e-23)
(1.10133 0.0349196 6.27139e-23)
(1.10212 0.0299057 5.94561e-21)
(1.10101 0.0255669 6.05253e-22)
(1.09982 0.022097 6.59385e-21)
(1.09796 0.0189743 5.4907e-22)
(1.09574 0.0160998 -5.13868e-22)
(1.09324 0.0131667 -4.7166e-21)
(1.09058 0.0103584 2.65187e-22)
(1.08787 0.00730919 -3.48076e-25)
(1.08514 0.0045257 -3.23309e-36)
(1.08245 0.00134116 4.94074e-22)
(1.10037 0.0494585 6.2163e-21)
(1.09792 0.0381389 5.24125e-22)
(1.09984 0.0325226 -7.7816e-22)
(1.09959 0.0278923 -2.48411e-22)
(1.09907 0.0243892 -2.11029e-21)
(1.09766 0.0214405 -7.01199e-23)
(1.09569 0.0186771 -1.3787e-22)
(1.09329 0.0160006 -4.73352e-21)
(1.09066 0.0131597 2.4185e-27)
(1.08792 0.010376 4.4413e-21)
(1.08517 0.00732041 8.43964e-36)
(1.08244 0.00452346 5.09824e-22)
(1.07977 0.00133318 1.84081e-27)
(1.09453 0.0552307 -1.22056e-22)
(1.0932 0.0413009 3.02424e-34)
(1.0967 0.0348915 -6.54007e-22)
(1.09759 0.0298102 -1.0648e-21)
(1.09803 0.0263139 -5.25938e-21)
(1.09725 0.0235413 -9.70355e-22)
(1.09565 0.0210886 -6.27624e-21)
(1.09341 0.0186 -5.2963e-21)
(1.09081 0.0160424 -3.04588e-27)
(1.08803 0.0132256 4.4555e-21)
(1.08522 0.0104188 -3.18062e-36)
(1.08245 0.00732906 3.30721e-25)
(1.07974 0.00450863 -1.582e-23)
(1.0771 0.00131872 -4.56406e-22)
(1.08689 0.061859 -3.01844e-22)
(1.0867 0.0443411 -1.00929e-21)
(1.09229 0.036932 -1.23996e-20)
(1.09482 0.0312011 -1.25926e-21)
(1.09656 0.0276822 5.98057e-22)
(1.09669 0.0251955 1.12924e-22)
(1.09562 0.0231246 -5.44536e-21)
(1.09362 0.0210554 -4.65295e-21)
(1.09107 0.0187294 1.05095e-21)
(1.08823 0.0161943 4.5571e-21)
(1.08534 0.0133315 0)
(1.08247 0.0104592 4.47598e-22)
(1.07972 0.00731622 -2.26578e-35)
(1.07704 0.00447079 -4.41061e-22)
(1.07446 0.00129543 -5.80893e-22)
(1.07884 0.0712821 8.85878e-21)
(1.07747 0.0470504 -5.28435e-22)
(1.08632 0.0385745 -1.21738e-21)
(1.09088 0.0318975 4.00783e-34)
(1.09452 0.028283 8.41533e-22)
(1.09589 0.0261856 1.45161e-22)
(1.09561 0.0246855 4.71139e-21)
(1.09397 0.0231644 -5.25337e-21)
(1.0915 0.0213241 3.7552e-21)
(1.08859 0.0190224 4.9455e-21)
(1.08554 0.016409 0)
(1.08255 0.0134366 4.50495e-22)
(1.07968 0.0104672 3.59513e-23)
(1.07698 0.00726368 -3.41241e-21)
(1.07437 0.0044011 -1.15844e-21)
(1.07188 0.00126165 -3.35471e-28)
(1.07402 0.0876541 4.04119e-21)
(1.06513 0.0499285 -3.13509e-22)
(1.07781 0.039688 -4.21597e-21)
(1.08547 0.0316632 2.31668e-21)
(1.09153 0.0278765 9.56564e-21)
(1.09477 0.0262199 1.14125e-21)
(1.0956 0.0255367 -5.95093e-22)
(1.09451 0.0248302 2.03893e-22)
(1.09217 0.0236427 4.58133e-21)
(1.08916 0.0218363 -7.07719e-23)
(1.08592 0.0194123 -2.1671e-35)
(1.08271 0.0166271 5.48522e-22)
(1.07969 0.0134964 -1.65369e-26)
(1.07687 0.0104137 -5.14055e-22)
(1.07426 0.00715603 -5.85373e-22)
(1.07175 0.00429323 4.58169e-22)
(1.06937 0.00121665 5.47324e-22)
(1.07023 0.115618 9.71572e-21)
(1.05006 0.0546735 3.89847e-21)
(1.06633 0.0403245 2.09124e-21)
(1.07753 0.030342 0)
(1.08734 0.0260423 3.33486e-22)
(1.09306 0.0249919 1.07905e-34)
(1.09559 0.0253354 -3.61435e-22)
(1.09532 0.0258186 -5.57365e-21)
(1.0932 0.0256138 -3.45525e-21)
(1.09006 0.0244812 7.19062e-22)
(1.08653 0.0224978 -5.81288e-22)
(1.08303 0.0198142 9.40457e-22)
(1.07975 0.016784 2.00793e-26)
(1.07677 0.0134681 -5.14464e-22)
(1.07406 0.0102741 -7.48637e-22)
(1.07159 0.00698238 3.75934e-21)
(1.06921 0.00414428 5.66173e-22)
(1.06697 0.00116069 -5.21597e-22)
(1.08004 0.161819 -6.8535e-21)
(1.03587 0.0654966 -8.26752e-21)
(1.05049 0.0409884 4.17474e-21)
(1.06648 0.02762 -3.3633e-34)
(1.08091 0.0225516 -3.1036e-21)
(1.09052 0.0219158 -1.96429e-21)
(1.09542 0.023732 -3.56372e-21)
(1.09645 0.0257782 -4.79686e-21)
(1.09473 0.0270266 -9.30406e-22)
(1.09143 0.0269326 4.24562e-21)
(1.08752 0.0255486 6.09286e-22)
(1.08357 0.0231873 5.4036e-21)
(1.07993 0.0201349 6.19639e-22)
(1.07668 0.0168168 -4.13001e-22)
(1.07383 0.0133154 -5.88604e-22)
(1.07129 0.0100314 3.8414e-22)
(1.06899 0.00673777 -3.08127e-21)
(1.06677 0.00395504 -1.06636e-21)
(1.06468 0.00109498 -3.51317e-28)
(1.09654 0.220394 -4.44208e-21)
(1.02369 0.0889751 -4.86086e-21)
(1.03113 0.0439547 -1.18895e-20)
(1.05052 0.023388 3.4591e-35)
(1.07183 0.0165906 -2.76742e-22)
(1.08635 0.0166039 -9.79948e-22)
(1.09496 0.0200504 -7.35069e-22)
(1.0979 0.0243573 -5.89221e-22)
(1.09692 0.0275728 1.48561e-21)
(1.09353 0.0290292 4.2277e-21)
(1.08905 0.0286031 6.58916e-22)
(1.08449 0.0266719 3.89706e-21)
(1.08028 0.0237704 -6.89273e-23)
(1.07665 0.0202838 4.89755e-24)
(1.07355 0.0166727 -5.93059e-22)
(1.07092 0.0130131 3.18376e-27)
(1.06859 0.00967759 4.89513e-22)
(1.06651 0.00642378 -5.24984e-22)
(1.06446 0.00372988 2.53373e-23)
(1.06254 0.00102168 4.81113e-22)
(1.08033 0.273624 9.25208e-20)
(1.01742 0.134529 1.78258e-20)
(1.00972 0.0533725 2.29284e-20)
(1.02885 0.0180489 5.54945e-35)
(1.05814 0.00768268 7.10655e-21)
(1.08036 0.00753319 2.64019e-25)
(1.09395 0.0136483 -3.37541e-21)
(1.09975 0.0208986 -3.6716e-21)
(1.09986 0.0269601 4.24717e-22)
(1.09651 0.0305556 4.10215e-21)
(1.09142 0.0315736 -6.2236e-22)
(1.08594 0.0303778 -4.16487e-21)
(1.08096 0.0276572 -7.93064e-22)
(1.07672 0.0241162 -5.32687e-21)
(1.07326 0.0201849 -1.06266e-21)
(1.07043 0.0163152 -3.90536e-27)
(1.06808 0.0125497 4.93867e-22)
(1.06602 0.00921525 -6.04686e-22)
(1.06416 0.00604811 1.05234e-34)
(1.06231 0.00347661 7.0817e-22)
(1.06056 0.000943654 5.66609e-24)
(1.01917 0.30217 -4.01599e-21)
(1.01238 0.19668 1.16316e-21)
(0.987004 0.0756958 -5.37302e-21)
(1.00016 0.0148167 0)
(1.03786 -0.00502679 3.38441e-21)
(1.07058 -0.00623467 5.85852e-21)
(1.09258 0.00219756 7.49287e-22)
(1.10265 0.0144145 -2.33917e-21)
(1.10401 0.0246638 -8.63172e-22)
(1.10055 0.0313469 1.24477e-22)
(1.09481 0.0343776 -3.59659e-36)
(1.08825 0.0343062 4.734e-22)
(1.08209 0.031975 7.16639e-23)
(1.077 0.0283147 7.99831e-22)
(1.07297 0.0241152 -3.23462e-21)
(1.06985 0.0197859 5.44853e-22)
(1.06739 0.0157282 6.19939e-22)
(1.06538 0.0119294 -5.26768e-22)
(1.06361 0.00865666 -5.8742e-23)
(1.06198 0.00562443 4.83033e-22)
(1.06032 0.00320566 2.54546e-23)
(1.05873 0.000864242 -4.17307e-21)
(0.922216 0.298284 1.62335e-21)
(0.990064 0.257804 -4.72296e-21)
(0.963083 0.116127 -3.24535e-20)
(0.964992 0.0190134 1.73722e-35)
(1.00733 -0.0188697 -6.93319e-21)
(1.05351 -0.0261604 -1.15527e-20)
(1.08872 -0.0158637 4.46175e-21)
(1.10731 0.00185185 -1.07486e-22)
(1.11127 0.0193466 8.23464e-27)
(1.10666 0.0310973 2.90063e-21)
(1.09936 0.0370255 -1.62784e-35)
(1.09153 0.0385296 5.31259e-22)
(1.08398 0.0368155 6.3486e-23)
(1.07759 0.0331178 4.12558e-21)
(1.07274 0.0284862 6.97149e-22)
(1.06916 0.0236928 3.44336e-21)
(1.06653 0.0190645 1.13691e-21)
(1.06451 0.0149178 -5.30278e-22)
(1.06287 0.0111705 3.56122e-27)
(1.06138 0.00802331 1.1897e-21)
(1.05998 0.00517082 1.12255e-21)
(1.0585 0.00292905 -4.68335e-21)
(1.05707 0.000786977 -1.51105e-24)
(0.805379 0.277612 2.46953e-21)
(0.933818 0.297643 3.84676e-22)
(0.935174 0.172251 2.33741e-21)
(0.926397 0.0367872 2.09986e-35)
(0.96511 -0.030217 -1.03065e-20)
(1.02359 -0.048909 -8.34512e-21)
(1.07664 -0.0421282 1.71114e-21)
(1.11103 -0.0189693 2.16505e-21)
(1.12299 0.00753915 -5.76137e-23)
(1.11821 0.0283106 1.88337e-21)
(1.1067 0.0394908 -1.62847e-35)
(1.09587 0.0432413 3.27453e-21)
(1.08665 0.0424037 2.64572e-22)
(1.07873 0.0386929 -5.22969e-22)
(1.07263 0.0335766 -8.53025e-22)
(1.06837 0.0280658 -1.20473e-21)
(1.06543 0.0228185 -9.26948e-23)
(1.06338 0.0180306 -9.50084e-22)
(1.06185 0.0139109 -4.44907e-27)
(1.06058 0.0103045 4.81684e-22)
(1.05937 0.0073436 -5.93588e-23)
(1.05817 0.00470802 -4.4134e-22)
(1.05686 0.00265945 2.30242e-22)
(1.05557 0.000715356 3.82456e-21)
(0.685164 0.237453 3.50773e-23)
(0.843897 0.302168 1.06982e-21)
(0.893714 0.228063 -4.29415e-21)
(0.886995 0.0741801 5.44079e-35)
(0.912986 -0.0343077 2.82625e-21)
(0.979039 -0.0717222 2.76395e-20)
(1.04867 -0.0723749 -1.00992e-20)
(1.1052 -0.0491794 8.99283e-22)
(1.13525 -0.0134954 -7.88501e-22)
(1.13725 0.0196036 7.19189e-24)
(1.1218 0.0405029 0)
(1.10338 0.0487399 4.81584e-22)
(1.09001 0.0490777 1.49773e-34)
(1.08034 0.0453916 -4.64973e-22)
(1.07278 0.0396004 -1.32842e-21)
(1.06746 0.0332005 -3.49459e-21)
(1.06407 0.0270116 5.50684e-22)
(1.06192 0.0215077 -2.82374e-21)
(1.06051 0.0167234 1.12603e-22)
(1.05946 0.0127531 4.82558e-22)
(1.05854 0.00937283 -5.92651e-23)
(1.05758 0.00664995 -4.38828e-21)
(1.05656 0.00425786 3.64766e-21)
(1.05538 0.00240935 4.02784e-21)
(1.0542 0.000652497 3.87702e-22)
(0.593669 0.197828 5.4069e-21)
(0.737796 0.291 -2.07089e-20)
(0.825812 0.264907 4.94297e-20)
(0.84644 0.123817 5.45219e-21)
(0.856169 -0.0228538 1.04609e-20)
(0.920317 -0.0916332 2.54442e-21)
(1.00379 -0.104153 -7.07186e-21)
(1.08021 -0.0842034 1.68276e-20)
(1.13626 -0.0438633 5.62052e-23)
(1.1579 0.00161666 -6.23756e-21)
(1.14733 0.0369539 -1.12835e-35)
(1.12047 0.0544233 1.95e-21)
(1.09639 0.057457 3.9262e-22)
(1.0821 0.0536275 -7.66173e-21)
(1.07303 0.0469967 -1.69244e-21)
(1.06649 0.0393204 -1.26434e-22)
(1.06237 0.0319341 3.85611e-21)
(1.06006 0.0253494 9.22127e-22)
(1.05877 0.0198179 1.32855e-22)
(1.05799 0.0152082 8.59233e-22)
(1.05739 0.0115033 7.45707e-23)
(1.05677 0.00842233 -4.22061e-21)
(1.05601 0.00597638 -5.49394e-22)
(1.05512 0.00384171 2.186e-21)
(1.05405 0.00218984 5.07292e-22)
(1.05296 0.000600804 2.79383e-28)
(0.533952 0.166825 -9.22403e-23)
(0.649582 0.273645 -1.05866e-20)
(0.734567 0.274405 2.22319e-22)
(0.795139 0.178144 1.40788e-25)
(0.800929 0.0011996 -4.02808e-22)
(0.851652 -0.103385 -1.06234e-20)
(0.942192 -0.135239 2.51922e-20)
(1.03644 -0.122255 2.59967e-20)
(1.11532 -0.0797744 4.51048e-21)
(1.16574 -0.0244678 4.72354e-22)
(1.17541 0.0258565 7.53632e-36)
(1.15048 0.0580006 -8.71166e-22)
(1.11319 0.0679279 4.91979e-22)
(1.08609 0.0642397 -4.95926e-22)
(1.07279 0.0561828 -7.2308e-22)
(1.06522 0.0469076 6.13918e-22)
(1.06028 0.0377795 5.90437e-22)
(1.05765 0.0298203 -8.90885e-22)
(1.0565 0.0231642 -9.97711e-36)
(1.05606 0.0178417 3.03478e-21)
(1.05587 0.0135681 6.59375e-22)
(1.05565 0.0102279 -4.19626e-21)
(1.05526 0.00750179 1.38965e-26)
(1.05464 0.00535607 3.55894e-21)
(1.05384 0.00347849 -5.42231e-21)
(1.05285 0.00200955 -2.02681e-22)
(1.0518 0.000561841 -3.56579e-22)
(0.487526 0.136183 0)
(0.587053 0.25731 2.45641e-21)
(0.652938 0.27043 3.6851e-20)
(0.724319 0.210567 -1.16321e-20)
(0.749291 0.0519584 0)
(0.782294 -0.105372 -4.76785e-22)
(0.867478 -0.162962 7.20704e-21)
(0.973957 -0.161317 3.66064e-20)
(1.07428 -0.120598 1.13219e-21)
(1.14998 -0.0569114 -2.0939e-20)
(1.18997 0.00801705 1.27863e-38)
(1.18457 0.0569963 -8.46438e-21)
(1.14475 0.0795829 -2.56442e-25)
(1.10011 0.0786466 1.10226e-21)
(1.07348 0.0680402 -1.5552e-21)
(1.06289 0.0563311 4.68988e-21)
(1.05751 0.0450283 7.77955e-22)
(1.05456 0.0350505 -1.7219e-21)
(1.05353 0.026986 -1.74992e-22)
(1.05352 0.0205892 1.03128e-21)
(1.05387 0.0156958 -4.53653e-21)
(1.05417 0.0118958 -5.61863e-21)
(1.05424 0.00899576 -1.74949e-26)
(1.054 0.00665856 3.81685e-21)
(1.05346 0.00481837 1.00604e-22)
(1.0527 0.00318293 1.84506e-34)
(1.05173 0.00187428 -2.48471e-22)
(1.05072 0.000536122 0)
(0.457829 0.110354 1.31983e-22)
(0.534101 0.242101 3.24279e-20)
(0.592356 0.263347 -5.89665e-20)
(0.654908 0.227255 2.50195e-20)
(0.691584 0.087434 4.64847e-20)
(0.719518 -0.0831977 4.83192e-22)
(0.785489 -0.184944 3.95611e-21)
(0.896815 -0.199314 3.69054e-20)
(1.01251 -0.164229 2.4855e-20)
(1.1136 -0.0963011 -1.95506e-20)
(1.18072 -0.0170815 0)
(1.20517 0.050237 7.28924e-22)
(1.18279 0.0904438 -9.07918e-21)
(1.12991 0.0976359 2.94127e-22)
(1.08257 0.084743 -8.48464e-22)
(1.05996 0.0683353 5.95141e-22)
(1.05323 0.0539676 -3.89097e-21)
(1.05046 0.0414805 -2.17096e-21)
(1.04966 0.0313286 -1.96238e-22)
(1.0502 0.0236229 1.28604e-22)
(1.05123 0.0177886 -1.68156e-21)
(1.05222 0.013508 -2.42462e-21)
(1.05288 0.0102862 1.08384e-21)
(1.05312 0.00787325 3.76294e-21)
(1.05296 0.0059343 3.76137e-22)
(1.05243 0.00438605 4.66601e-22)
(1.05165 0.00296479 1.91804e-21)
(1.05069 0.00178632 2.04768e-22)
(1.04967 0.000523041 -3.10891e-21)
(0.445993 0.0947124 -2.19915e-21)
(0.492366 0.229299 -4.03976e-21)
(0.538802 0.255391 -3.78339e-20)
(0.600264 0.231842 4.50523e-20)
(0.637374 0.1167 1.37034e-20)
(0.658451 -0.0581887 7.91794e-21)
(0.708079 -0.193934 -4.38761e-20)
(0.809743 -0.234938 1.98892e-20)
(0.93464 -0.209068 -1.35161e-20)
(1.05459 -0.140224 -7.21876e-20)
(1.15036 -0.0505166 -5.51101e-36)
(1.20407 0.0350057 7.37113e-21)
(1.20949 0.0968414 2.40022e-20)
(1.16909 0.119605 -9.49115e-21)
(1.10751 0.108865 1.08309e-20)
(1.06273 0.0853061 -6.49849e-22)
(1.047 0.0651065 7.13211e-22)
(1.04457 0.0492877 -6.86228e-22)
(1.04453 0.0365649 1.6685e-22)
(1.04583 0.0268954 -8.5163e-22)
(1.04778 0.0199598 -2.61717e-21)
(1.04964 0.0149392 -7.01555e-22)
(1.0511 0.0114081 4.00188e-21)
(1.05196 0.00882986 3.58661e-21)
(1.05227 0.00691877 3.69497e-22)
(1.05208 0.00536128 -2.92159e-27)
(1.0515 0.00407421 -5.92932e-22)
(1.05067 0.00282779 -1.50639e-21)
(1.04968 0.00174408 -3.15622e-21)
(1.04864 0.000520981 -1.00376e-24)
(0.445258 0.0904568 -7.58912e-21)
(0.462339 0.220831 -5.79551e-21)
(0.495748 0.247374 4.52532e-21)
(0.54988 0.229895 -7.02129e-20)
(0.594663 0.130852 -4.93237e-20)
(0.61364 -0.0305667 -3.45502e-20)
(0.639335 -0.191703 9.29855e-23)
(0.723144 -0.26434 -4.67043e-20)
(0.845208 -0.252786 -1.49182e-20)
(0.977689 -0.188032 -5.15224e-20)
(1.09599 -0.089931 -6.37754e-34)
(1.18049 0.0117191 2.1066e-20)
(1.21418 0.0934253 2.1313e-20)
(1.20252 0.139729 -4.10147e-21)
(1.14463 0.139494 -2.18065e-21)
(1.07996 0.111431 -6.06678e-21)
(1.04317 0.0803873 8.26231e-22)
(1.03583 0.0587747 -3.60909e-22)
(1.03747 0.0427313 3.13387e-35)
(1.04005 0.0306994 -4.14707e-22)
(1.04322 0.022076 -5.04368e-23)
(1.04629 0.0162378 -4.21336e-22)
(1.04875 0.0122172 -3.39438e-21)
(1.05046 0.00951946 2.41531e-21)
(1.05137 0.00760622 1.30084e-21)
(1.05161 0.00617749 3.62512e-27)
(1.05131 0.00496077 -3.44034e-22)
(1.05063 0.00388847 3.93524e-22)
(1.04971 0.00276902 1.05528e-21)
(1.04867 0.00174234 -9.1868e-23)
(1.04759 0.000527481 2.88531e-21)
(0.46009 0.0960828 2.2496e-21)
(0.445277 0.217124 1.74022e-20)
(0.4649 0.240064 8.0204e-21)
(0.508557 0.223592 3.21194e-20)
(0.553844 0.135399 -7.81007e-20)
(0.582737 -0.0113047 -1.98914e-20)
(0.593575 -0.179689 1.02063e-20)
(0.64433 -0.28573 1.59214e-20)
(0.754187 -0.293843 7.55561e-20)
(0.887078 -0.235737 -1.95802e-20)
(1.0219 -0.135771 -1.24512e-34)
(1.13192 -0.0182997 -2.61107e-20)
(1.19962 0.0831134 -7.85065e-20)
(1.21573 0.151669 1.0702e-20)
(1.18041 0.171931 7.40713e-21)
(1.11162 0.147623 1.07733e-21)
(1.05061 0.104893 -5.98919e-21)
(1.0264 0.0709603 -8.59605e-22)
(1.02721 0.0500455 -1.82149e-22)
(1.03229 0.0348981 5.69956e-22)
(1.03722 0.0243457 1.97554e-22)
(1.04185 0.0172024 -4.21586e-21)
(1.04571 0.0126931 2.56236e-21)
(1.04848 0.00978806 3.52793e-21)
(1.05023 0.00794991 3.24362e-22)
(1.05102 0.00667651 -9.13578e-23)
(1.05108 0.00567925 -3.36671e-22)
(1.0506 0.00474055 0)
(1.04977 0.00382412 -3.16455e-21)
(1.04875 0.0027793 -1.33231e-21)
(1.04765 0.00177254 2.89608e-21)
(1.04652 0.000539475 -2.77847e-21)
(0.48516 0.11452 -6.64601e-22)
(0.439695 0.217124 -1.62362e-20)
(0.448548 0.23344 -9.79322e-21)
(0.479507 0.213378 -1.13363e-20)
(0.520661 0.132126 8.01748e-20)
(0.553819 -0.00231907 6.18062e-20)
(0.567535 -0.164459 2.06798e-20)
(0.591335 -0.295093 9.65548e-21)
(0.668928 -0.330256 9.77707e-21)
(0.793893 -0.283583 -2.31855e-20)
(0.931946 -0.182526 -1.90474e-20)
(1.06223 -0.0567868 -2.59017e-20)
(1.15762 0.0666342 -7.79282e-21)
(1.2047 0.156671 2.58817e-20)
(1.20152 0.201174 1.91869e-21)
(1.14601 0.189965 -1.88362e-21)
(1.07307 0.142132 -2.05684e-21)
(1.02362 0.0906559 1.13196e-20)
(1.01409 0.0585107 1.38671e-21)
(1.02143 0.0397435 2.71533e-21)
(1.02923 0.0264468 2.79741e-21)
(1.03606 0.017952 -4.34084e-21)
(1.04167 0.0125913 -2.106e-21)
(1.04594 0.00954549 4.78813e-21)
(1.04873 0.00779488 2.89546e-21)
(1.05029 0.00678325 -1.07301e-22)
(1.05081 0.00608115 4.51631e-22)
(1.0506 0.00543492 0)
(1.04989 0.00469365 -3.12217e-21)
(1.04889 0.00386664 -5.8911e-22)
(1.04776 0.00284374 1.65313e-21)
(1.04659 0.00182352 -2.75801e-21)
(1.04542 0.000553581 -9.20535e-25)
(0.514317 0.137783 -1.38199e-20)
(0.448012 0.217409 -2.42782e-20)
(0.446342 0.225425 1.56864e-21)
(0.465916 0.199017 -9.80734e-21)
(0.499179 0.12126 9.61179e-20)
(0.531364 -0.00138537 5.13383e-21)
(0.547927 -0.155048 -2.79382e-20)
(0.56145 -0.293689 -1.66023e-20)
(0.609493 -0.3541 2.03427e-20)
(0.704082 -0.327699 2.08505e-21)
(0.838682 -0.233748 2.22588e-25)
(0.975696 -0.0970288 -2.06313e-22)
(1.09369 0.0408092 3.70475e-20)
(1.16978 0.155436 -1.12773e-20)
(1.1956 0.223248 -1.99208e-21)
(1.16892 0.233368 1.41628e-20)
(1.10269 0.190011 -9.66649e-21)
(1.03411 0.123408 -2.2769e-21)
(1.00275 0.0716619 -5.3461e-26)
(1.00669 0.0444644 6.80083e-22)
(1.01847 0.0287034 -2.49366e-22)
(1.02833 0.0180074 9.45031e-23)
(1.03647 0.0119276 2.71406e-21)
(1.04257 0.00853077 1.2219e-21)
(1.04685 0.00698603 -2.92918e-21)
(1.04936 0.00634888 3.8705e-36)
(1.05053 0.00607539 2.19122e-22)
(1.05065 0.00583491 3.00153e-22)
(1.05009 0.0054346 -2.98202e-21)
(1.04912 0.00479897 8.43804e-27)
(1.04794 0.00399246 3.02878e-21)
(1.04671 0.00294299 9.47781e-22)
(1.04548 0.00188254 1.38832e-22)
(1.04429 0.000566355 2.5694e-21)
(0.548124 0.157521 1.0216e-20)
(0.475755 0.215665 2.24084e-21)
(0.468496 0.213144 -1.81668e-20)
(0.470789 0.179069 -5.65362e-20)
(0.493023 0.103874 1.77083e-21)
(0.519062 -0.00945981 -7.09232e-20)
(0.535629 -0.151373 -5.61685e-21)
(0.543322 -0.291583 4.00282e-20)
(0.573326 -0.367433 7.57002e-21)
(0.639618 -0.360365 -1.11601e-20)
(0.744552 -0.280411 1.1352e-21)
(0.884284 -0.146914 5.73337e-20)
(1.01321 0.0116631 2.7245e-21)
(1.11262 0.146055 -3.12671e-20)
(1.16718 0.237647 4.65109e-20)
(1.17124 0.271363 -2.73003e-20)
(1.12652 0.242622 -2.79095e-21)
(1.05485 0.170235 8.17777e-21)
(1.00054 0.0953615 -2.81798e-34)
(0.990001 0.051078 -8.68069e-21)
(1.00376 0.0299115 -2.21717e-21)
(1.01825 0.0177079 -4.38064e-21)
(1.02948 0.0101334 -1.93068e-21)
(1.03827 0.00663874 1.56356e-21)
(1.04434 0.00526757 -1.44848e-21)
(1.04824 0.00516544 1.41052e-22)
(1.05021 0.00552493 2.49374e-21)
(1.0508 0.00584763 -4.3855e-22)
(1.05043 0.00592422 -2.57589e-21)
(1.04949 0.00564818 -1.00206e-26)
(1.04825 0.00502232 2.89637e-21)
(1.04692 0.00417098 -3.00243e-21)
(1.0456 0.00305505 4.99347e-35)
(1.04433 0.00193643 2.7092e-21)
(1.04313 0.000574566 0)
(0.606366 0.17093 2.80978e-21)
(0.522827 0.21076 6.25356e-20)
(0.505602 0.195645 4.50879e-20)
(0.495097 0.154817 -5.99633e-21)
(0.503858 0.0808197 -6.97596e-20)
(0.520102 -0.0249108 4.86519e-20)
(0.532642 -0.155188 2.53173e-20)
(0.536347 -0.290643 6.09478e-20)
(0.550496 -0.377825 2.19041e-20)
(0.598185 -0.382892 -2.57704e-20)
(0.674837 -0.317327 -1.56062e-20)
(0.785525 -0.188778 5.60694e-23)
(0.923426 -0.0301215 2.17418e-21)
(1.03837 0.1307 6.2246e-21)
(1.11664 0.245405 -5.87597e-21)
(1.14957 0.301817 -2.04868e-20)
(1.13332 0.293357 1.54301e-20)
(1.07542 0.226485 2.51329e-21)
(1.00892 0.134242 -3.65161e-22)
(0.977032 0.0636715 1.6469e-21)
(0.985248 0.031086 4.29113e-21)
(1.00452 0.015685 -1.78334e-21)
(1.02056 0.00744696 -3.56406e-21)
(1.03244 0.00329233 -6.03868e-23)
(1.04122 0.00240398 4.17367e-22)
(1.04676 0.00299595 1.58414e-22)
(1.0499 0.00418835 2.35647e-22)
(1.05108 0.00535284 6.47483e-23)
(1.05097 0.00608255 -2.82608e-22)
(1.05006 0.00630757 3.43255e-22)
(1.04872 0.0060266 2.86593e-21)
(1.04726 0.00531912 -2.81166e-21)
(1.04579 0.00436739 -3.14292e-22)
(1.04442 0.00315721 -8.79854e-22)
(1.04315 0.00197292 -4.78451e-23)
(1.04195 0.000575503 -2.49578e-22)
(0.699751 0.169778 -3.20532e-21)
(0.605168 0.193215 -5.46836e-21)
(0.559798 0.171707 3.63592e-21)
(0.536773 0.127852 8.51758e-20)
(0.532838 0.0532825 -1.12043e-19)
(0.536455 -0.0461173 -1.36449e-20)
(0.541574 -0.166431 8.57049e-21)
(0.540463 -0.293041 -5.90191e-21)
(0.541472 -0.385342 -3.10651e-20)
(0.569374 -0.40102 1.03578e-20)
(0.628924 -0.346045 -1.7245e-20)
(0.710871 -0.227021 1.43064e-20)
(0.822886 -0.0585026 -2.07401e-22)
(0.949518 0.105109 3.59164e-21)
(1.04725 0.245866 -1.01552e-20)
(1.10504 0.32569 9.2228e-21)
(1.11786 0.338401 -4.73053e-20)
(1.08439 0.285451 -2.73967e-21)
(1.02171 0.186425 2.93918e-21)
(0.97193 0.0893523 -5.34796e-21)
(0.965609 0.0333407 2.02232e-21)
(0.986892 0.0126062 5.16734e-21)
(1.00841 0.00252584 5.69169e-21)
(1.02514 -0.00149162 3.96942e-21)
(1.03692 -0.00212966 -2.07739e-22)
(1.04499 -0.000514277 -1.36058e-21)
(1.04953 0.0018543 -1.45875e-21)
(1.05158 0.0041005 -3.02923e-21)
(1.0518 0.00581118 -4.29431e-21)
(1.0509 0.00672365 -1.15949e-21)
(1.04944 0.00691677 2.86947e-21)
(1.04777 0.00650579 -2.79708e-21)
(1.04611 0.00563867 7.58546e-27)
(1.04458 0.0045458 2.45479e-21)
(1.0432 0.0032283 4.2539e-35)
(1.04194 0.00198186 -1.67967e-22)
(1.04078 0.000567215 -2.05777e-28)
(0.810485 0.148609 -1.11947e-19)
(0.726179 0.157786 -1.38533e-21)
(0.645546 0.137473 -1.3107e-20)
(0.596043 0.0951706 1.24857e-23)
(0.578831 0.0241452 3.29745e-20)
(0.569308 -0.0729611 -5.25431e-20)
(0.564252 -0.183635 -3.92123e-20)
(0.556348 -0.300545 4.34176e-20)
(0.547045 -0.391504 -4.06636e-20)
(0.555022 -0.414725 -2.80314e-20)
(0.595281 -0.370673 4.63002e-22)
(0.662036 -0.259747 5.08526e-23)
(0.745446 -0.0979538 2.44861e-20)
(0.854383 0.0925983 0)
(0.962293 0.239753 -1.55128e-20)
(1.04094 0.342049 2.21813e-20)
(1.07973 0.376246 -1.77055e-20)
(1.07452 0.341261 7.2321e-20)
(1.02913 0.246605 -9.14063e-21)
(0.973195 0.129106 -1.50533e-21)
(0.94928 0.0440959 -2.02933e-22)
(0.965149 0.00705746 -7.59467e-21)
(0.993105 -0.0041064 -1.60696e-21)
(1.01507 -0.00888119 2.0111e-21)
(1.03162 -0.00860723 -5.58028e-23)
(1.04252 -0.00581871 5.34499e-35)
(1.04923 -0.00191776 -8.72258e-23)
(1.05233 0.00190998 -7.69225e-23)
(1.05303 0.00487929 -2.00023e-22)
(1.05217 0.00682533 2.34974e-21)
(1.0505 0.00767637 1.99788e-22)
(1.04854 0.00766202 -2.83372e-21)
(1.0466 0.00701266 -8.94559e-27)
(1.04483 0.00592857 2.6388e-21)
(1.04328 0.00467287 1.07474e-22)
(1.04194 0.00325084 8.08972e-22)
(1.04073 0.00195607 1.52907e-23)
(1.03964 0.000548732 2.2662e-22)
(0.926651 0.115467 3.57787e-22)
(0.858187 0.110448 1.9533e-21)
(0.769095 0.0913133 -5.70757e-20)
(0.687035 0.0577856 -1.81729e-20)
(0.640121 -0.0134139 6.48696e-21)
(0.618609 -0.100487 -2.251e-20)
(0.60126 -0.20615 -2.90167e-20)
(0.584638 -0.312603 -2.16422e-20)
(0.56529 -0.397905 4.99778e-21)
(0.556582 -0.424207 2.46275e-21)
(0.575362 -0.39151 2.05114e-20)
(0.624975 -0.287079 -2.28415e-20)
(0.695011 -0.132518 1.89647e-20)
(0.777679 0.0525626 -1.24307e-21)
(0.871749 0.236613 1.19873e-20)
(0.963366 0.351838 -3.29837e-20)
(1.02197 0.405933 -5.00664e-20)
(1.04341 0.390158 -1.04223e-20)
(1.02284 0.30769 1.64586e-21)
(0.974311 0.181415 1.59092e-21)
(0.937929 0.0655874 2.1504e-35)
(0.942485 0.00484182 4.80315e-21)
(0.972727 -0.0148127 1.50449e-21)
(1.00266 -0.0187226 -1.35048e-21)
(1.02413 -0.0179628 -1.54739e-21)
(1.03953 -0.013469 1.5821e-21)
(1.04876 -0.00752014 1.7251e-21)
(1.05351 -0.00169744 7.66064e-22)
(1.05482 0.00314313 -2.24414e-21)
(1.054 0.00642824 -3.02721e-22)
(1.05206 0.00826719 -8.44442e-22)
(1.04968 0.00881468 -6.96585e-22)
(1.04733 0.00844029 5.05478e-22)
(1.04522 0.00747166 2.65086e-21)
(1.04344 0.00614025 0)
(1.04194 0.00472125 -4.36552e-22)
(1.04068 0.00321259 -2.06982e-21)
(1.03955 0.00189208 1.76779e-22)
(1.03854 0.000520141 2.15067e-22)
(1.03461 0.07563 -1.2571e-21)
(0.984569 0.0616268 -1.15014e-20)
(0.900383 0.0422057 5.08915e-20)
(0.814238 0.0038541 9.17784e-26)
(0.734535 -0.0447691 -5.64143e-21)
(0.680118 -0.13593 -3.49642e-21)
(0.652943 -0.23016 8.93866e-21)
(0.624995 -0.328095 -5.21057e-20)
(0.595613 -0.404513 3.86219e-20)
(0.570712 -0.430089 2.43475e-22)
(0.570495 -0.40786 -9.65879e-22)
(0.600957 -0.310393 -4.93505e-21)
(0.654418 -0.160947 -2.97608e-20)
(0.725725 0.0208592 4.75612e-20)
(0.801641 0.206494 1.74282e-21)
(0.881584 0.357997 -8.83217e-21)
(0.95104 0.428712 1.05246e-19)
(0.99298 0.43047 2.11181e-20)
(0.998406 0.36414 2.72523e-21)
(0.967771 0.239697 -4.33497e-20)
(0.928742 0.101117 8.58889e-21)
(0.921188 0.00729755 2.14967e-21)
(0.948973 -0.0264138 2.19833e-21)
(0.985584 -0.0329353 -1.73037e-21)
(1.01499 -0.0306116 2.06607e-23)
(1.03515 -0.0242247 -2.07182e-22)
(1.04834 -0.0157102 -1.52596e-22)
(1.05511 -0.00706431 2.29571e-35)
(1.05739 0.000141665 -1.80858e-21)
(1.05665 0.00543531 -4.70728e-22)
(1.05429 0.00857412 2.1471e-21)
(1.05135 0.00996278 -3.45741e-21)
(1.0484 0.00999288 2.20613e-22)
(1.04582 0.00914456 2.61987e-21)
(1.04367 0.00781287 0)
(1.04196 0.00623405 -2.52324e-22)
(1.04058 0.00467205 -3.50249e-23)
(1.03945 0.00310772 1.23471e-21)
(1.03843 0.00179028 2.99037e-22)
(1.03752 0.000482516 2.02813e-28)
(1.12762 0.0353893 3.72292e-21)
(1.09438 0.0147848 -2.90136e-21)
(1.02173 -0.00529005 1.72885e-20)
(0.944265 -0.0404057 -1.98403e-20)
(0.859833 -0.104936 0)
(0.771023 -0.163721 1.67242e-21)
(0.714541 -0.257209 -1.07109e-20)
(0.676728 -0.344609 -1.39035e-21)
(0.636494 -0.411103 -2.92982e-20)
(0.598993 -0.433035 -1.85101e-20)
(0.579613 -0.419084 8.95014e-21)
(0.59083 -0.329273 -5.88226e-20)
(0.626096 -0.184624 -1.9733e-20)
(0.681325 -0.00628327 1.25219e-20)
(0.749142 0.182105 -2.18029e-20)
(0.812324 0.347773 3.58662e-20)
(0.873976 0.447093 -2.56944e-20)
(0.929045 0.462683 -3.2475e-20)
(0.956293 0.412799 1.27688e-20)
(0.947836 0.297842 6.52754e-21)
(0.917102 0.146266 -2.51443e-25)
(0.900806 0.0209951 -5.16216e-22)
(0.923024 -0.03909 -2.47984e-21)
(0.964403 -0.0508943 3.08801e-22)
(1.00211 -0.0477019 1.50071e-21)
(1.02972 -0.0390388 1.75035e-26)
(1.04747 -0.027179 -5.47638e-22)
(1.0574 -0.0150632 -3.24136e-22)
(1.06095 -0.00441349 -1.36026e-22)
(1.06038 0.00346093 2.09066e-22)
(1.05752 0.00855936 2.4822e-21)
(1.05373 0.0110753 1.72084e-22)
(1.04999 0.0117081 3.15078e-35)
(1.0467 0.011059 -3.21776e-21)
(1.04406 0.00967581 -5.5285e-22)
(1.042 0.00797966 -2.54667e-22)
(1.04046 0.00618296 2.10872e-27)
(1.03924 0.00451663 3.42372e-22)
(1.03827 0.00293719 -1.16727e-21)
(1.03738 0.00165473 -1.48037e-22)
(1.03658 0.000437774 -1.9244e-22)
(1.1868 0.000647173 -3.84042e-21)
(1.17658 -0.0255418 -3.63389e-22)
(1.12485 -0.0461276 2.80625e-21)
(1.06154 -0.084185 -4.13986e-35)
(0.981129 -0.137294 7.03273e-21)
(0.891431 -0.210828 1.38182e-20)
(0.802963 -0.284256 1.14202e-22)
(0.736216 -0.360545 1.16176e-20)
(0.686291 -0.416236 -2.49986e-20)
(0.638046 -0.434103 -3.34148e-21)
(0.602262 -0.425493 -1.94369e-20)
(0.594428 -0.342625 -1.11982e-19)
(0.611417 -0.202945 -4.56202e-20)
(0.64846 -0.0288878 -6.57933e-20)
(0.702837 0.159802 9.95658e-20)
(0.761944 0.332088 -2.59755e-20)
(0.808889 0.452551 2.00494e-20)
(0.857809 0.485785 2.37717e-20)
(0.901223 0.452484 2.41065e-20)
(0.913245 0.350929 -5.55543e-20)
(0.89757 0.19698 -6.66762e-21)
(0.880474 0.0438895 -2.4241e-22)
(0.89495 -0.0461052 0)
(0.939205 -0.0733061 5.52546e-22)
(0.985406 -0.0701862 -3.00311e-21)
(1.02165 -0.0586595 4.89072e-22)
(1.04632 -0.0432557 -6.53003e-25)
(1.06027 -0.0263731 0)
(1.0659 -0.0114153 -5.24151e-22)
(1.06564 0.000290542 9.55289e-22)
(1.06206 0.00796554 2.36199e-21)
(1.05719 0.0121858 -2.96463e-21)
(1.05226 0.0136435 -1.87566e-22)
(1.04801 0.0132881 2.2421e-21)