/*--------------------------------*- C++ -*----------------------------------*\
| =========                 |                                                 |
| \\      /  F ield         | OpenFOAM: The Open Source CFD Toolbox           |
|  \\    /   O peration     | Version:  2506                                  |
|   \\  /    A nd           | Website:  www.openfoam.com                      |
|    \\/     M anipulation  |                                                 |
\*---------------------------------------------------------------------------*/
FoamFile
{
    version     2.0;
    format      ascii;
    arch        "LSB;label=32;scalar=64";
    class       volScalarField;
    location    "30.0155191";
    object      mag(vorticity);
}
// * * * * * * * * * * * * * * * * * * * * * * * * * * * * * * * * * * * * * //

dimensions      [0 0 -1 0 0 0 0];

internalField   nonuniform List<scalar> 
9700
(
0.000143777
0.000586471
7.94327e-05
0.000786024
0.000318874
8.48225e-05
0.00102754
0.000657581
8.29185e-05
9.1569e-05
0.00126206
0.0010491
1.09013e-05
7.26835e-05
0.000144609
0.00145941
0.00141343
8.42038e-05
3.1341e-05
0.000148175
0.000183968
0.00141184
0.00181422
0.000179729
0.000175536
8.34866e-05
0.000235883
0.000223862
0.00087755
0.00223489
0.000304199
0.000302808
1.25301e-05
0.000177777
0.000312484
0.000316851
0.000412714
0.0026888
0.000417946
0.000451658
0.000104862
8.89072e-05
0.000256777
0.000368096
0.000329188
0.000340303
0.00325398
0.00052615
0.000577235
0.00019263
1.51303e-05
0.000159001
0.000300651
0.000403134
0.000321897
0.00170374
0.00415372
0.000695181
0.000740293
0.00031288
7.56526e-05
0.000116155
0.000244239
0.000367383
0.000438137
0.00032096
0.00209569
0.00575111
0.000878752
0.000980412
0.000416183
0.000120918
7.53796e-05
0.000209443
0.000309043
0.00041094
0.000494146
0.000306482
0.00571134
0.00886149
0.00135317
0.00125942
0.000552985
0.000233549
1.5035e-05
0.000173661
0.000272984
0.000371573
0.000413169
0.000505203
0.000279755
0.0312464
0.0159891
0.00303983
0.00176462
0.000794487
0.000360896
4.60392e-05
0.000165812
0.000271517
0.000323894
0.000386068
0.000424231
0.000525436
0.000228812
0.0585473
0.0309726
0.00814987
0.0030481
0.00115863
0.000520243
0.000121135
0.00011482
0.000260929
0.000335747
0.000387739
0.000408982
0.000431572
0.000518159
0.00015895
0.0850741
0.0529398
0.0195476
0.00662701
0.00198763
0.000821203
0.000248692
5.72143e-05
0.000270886
0.000361248
0.000391016
0.000427836
0.000409425
0.000429615
0.000497242
9.3406e-05
0.101201
0.073427
0.0378308
0.0150926
0.00432938
0.00139666
0.000495306
4.3509e-05
0.000221628
0.000363288
0.000444068
0.000449675
0.000440423
0.000411515
0.000418279
0.000432071
4.1128e-05
0.107839
0.0825889
0.0567781
0.0296595
0.0101339
0.00286806
0.000884864
0.000212042
0.0001233
0.000358587
0.000461996
0.000472511
0.000486992
0.000455956
0.000400835
0.000379446
0.000390011
3.73196e-05
0.113495
0.0800602
0.0664151
0.0462828
0.0209955
0.00660086
0.00178406
0.000482841
2.10456e-05
0.000288218
0.000440651
0.0005043
0.000517338
0.000514767
0.000469264
0.000418435
0.000348042
0.00032363
0.000104225
0.121903
0.0756717
0.0634419
0.0559052
0.0350407
0.0141732
0.00400551
0.0010446
0.000173396
0.000201067
0.000398359
0.000520012
0.000559338
0.000546093
0.000512384
0.000463014
0.000396431
0.000293034
0.000258957
0.000190219
0.129202
0.0758583
0.0551864
0.0526043
0.0451001
0.0253938
0.00888223
0.00232497
0.000538758
5.77663e-05
0.000321556
0.000497998
0.000564084
0.000569638
0.000568203
0.000521899
0.000456387
0.000369386
0.000256889
0.000152493
0.000294498
0.130786
0.0779768
0.0500669
0.0407746
0.0435682
0.0355303
0.0171211
0.00520435
0.00126538
0.000216075
0.000208111
0.000438626
0.000541255
0.000603669
0.00061814
0.000589499
0.000532732
0.000457056
0.00035372
0.0002368
7.62369e-05
0.000341091
0.125072
0.0770309
0.0491481
0.0301665
0.0307055
0.0369483
0.026362
0.0106566
0.00284864
0.000622919
5.11485e-05
0.000342255
0.00050932
0.000590118
0.000622233
0.000624175
0.000593629
0.000528747
0.000458038
0.000321904
0.000183508
1.99165e-05
0.000395962
0.112047
0.0709741
0.0479157
0.0252455
0.0157041
0.0257683
0.0306327
0.0181013
0.00606603
0.00142452
0.000189462
0.000191374
0.000406057
0.000516852
0.000588975
0.000635774
0.000635732
0.000590753
0.000531599
0.000435071
0.000316225
0.000136933
9.49589e-05
0.000411608
0.0928561
0.0605242
0.0428495
0.0234012
0.00518415
0.00910139
0.0232628
0.0239557
0.0112249
0.00308201
0.000600623
2.20779e-05
0.000266393
0.00042646
0.000512854
0.000590362
0.000634942
0.00064542
0.000590225
0.000550531
0.000434781
0.000301692
0.000103232
0.000184138
0.000432695
0.0737892
0.0478447
0.0337053
0.0201036
0.000666112
0.00752121
0.00836113
0.0215158
0.016854
0.00611139
0.00133104
0.000149361
9.83116e-05
0.000243195
0.000366575
0.000495818
0.000589845
0.000642072
0.000633136
0.000596995
0.000526607
0.000424942
0.00025551
5.49733e-05
0.000259409
0.00042755
0.0568825
0.0362765
0.0222486
0.0133704
0.00225285
0.0169256
0.0127287
0.0104696
0.0190979
0.0101855
0.00278707
0.00047675
0.000150077
0.000102297
1.81697e-05
0.000205648
0.000400367
0.000543145
0.000617156
0.000612265
0.000600309
0.000533776
0.000404939
0.000257196
6.83869e-08
0.000324283
0.000414441
0.0392279
0.0261524
0.0116103
0.00357024
0.00709599
0.021919
0.0281938
0.0108283
0.0115227
0.0146487
0.00531642
0.00114927
0.000562028
0.000804493
0.000831905
0.000558639
0.000146904
0.000248632
0.000492922
0.000598089
0.000613935
0.000581243
0.000531485
0.000399088
0.000224477
2.09466e-05
0.000389945
0.000370891
0.0228658
0.01683
0.00192637
0.00617242
0.0158034
0.0263131
0.0380647
0.0312471
0.00451441
0.0107177
0.00917962
0.00246441
0.00131485
0.00207629
0.00263071
0.0024292
0.00166913
0.000745698
5.66253e-06
0.000452419
0.000587404
0.000616844
0.000589836
0.000519149
0.000402742
0.000218718
2.82455e-05
0.000403763
0.000321466
0.00773531
0.00821976
0.00789811
0.0158396
0.0254548
0.0349435
0.0442649
0.0476876
0.0264195
0.00220823
0.00873089
0.00457285
0.00250801
0.00409014
0.00589972
0.00641832
0.00543477
0.00360912
0.00174941
0.000383063
0.000358564
0.000590769
0.000616083
0.000586978
0.000502308
0.00040313
0.000232468
3.16009e-05
0.00043711
0.000258573
0.00737047
0.000363098
0.0179232
0.0267054
0.0361076
0.0451343
0.0539869
0.0586475
0.0483617
0.0168488
0.0052794
0.00631774
0.00411188
0.00676721
0.010891
0.0133842
0.0130622
0.0103969
0.006661
0.00326581
0.000903444
0.000240356
0.000602769
0.000620508
0.000569824
0.000488196
0.000379311
0.000215296
4.99615e-05
0.000447162
0.000207024
0.0213246
0.00720427
0.0288815
0.0388923
0.0494001
0.0572943
0.0651092
0.0710774
0.0662489
0.0403969
0.00719331
0.00583612
0.00597387
0.00964519
0.0171362
0.0234516
0.025707
0.0233186
0.0176374
0.0109848
0.00529124
0.00160528
0.000113143
0.000609819
0.000627737
0.000541822
0.000485605
0.000376832
0.000196677
6.11851e-05
0.000439795
0.000144378
0.0344819
0.0150267
0.0413719
0.0532122
0.0654261
0.0736747
0.0786945
0.083884
0.0830154
0.0643526
0.0274831
0.000436879
0.00679554
0.0121199
0.0235622
0.0356896
0.0431066
0.0434173
0.0371764
0.0271045
0.0164898
0.00784704
0.00242672
2.82654e-06
0.00062213
0.000636092
0.000559285
0.000463617
0.00037322
0.000196984
4.57975e-05
0.000443814
7.90142e-05
0.047207
0.0238045
0.05588
0.0703027
0.0850185
0.0942191
0.0980248
0.0985906
0.0988911
0.0863963
0.0532118
0.0144204
0.00440818
0.0134603
0.02875
0.048205
0.063559
0.0697219
0.065617
0.0535886
0.0379676
0.0227011
0.0106536
0.00328631
9.428e-05
0.000657431
0.000622496
0.000527075
0.000480019
0.000356433
0.000185716
5.40071e-05
0.000414599
2.38922e-06
0.0600483
0.0340499
0.0725911
0.0905781
0.108666
0.11971
0.122924
0.119997
0.11484
0.106657
0.0793677
0.0367449
0.00354377
0.0125184
0.0315679
0.0587216
0.0844681
0.099834
0.101102
0.0895431
0.0701457
0.0485882
0.0287964
0.0134177
0.00407285
0.000186853
0.000647902
0.000601241
0.000522008
0.000456458
0.000333847
0.000181737
3.66408e-05
0.000351234
4.82007e-05
0.0758688
0.0464461
0.0914526
0.114007
0.136497
0.150457
0.154091
0.148154
0.137191
0.124728
0.104014
0.0631481
0.0196391
0.0078911
0.0311817
0.0653266
0.102852
0.13058
0.140827
0.132671
0.111017
0.083638
0.0570307
0.0337811
0.015725
0.00468016
0.000239016
0.000645642
0.000575736
0.000503123
0.00042876
0.000341452
0.000212355
8.81824e-06
0.000318932
0.000100054
0.0923926
0.0633055
0.112425
0.140043
0.168173
0.186345
0.191787
0.183594
0.1671
0.147504
0.125156
0.0900932
0.0419445
0.00293784
0.027142
0.0666817
0.116032
0.158768
0.181767
0.180817
0.159173
0.1258
0.0910468
0.0615239
0.0367779
0.0171432
0.00494897
0.000170739
0.000644451
0.000567226
0.000496293
0.000440721
0.00033269
0.000197151
1.02476e-06
0.000259601
0.000150596
0.114366
0.106449
0.137148
0.167984
0.20272
0.22669
0.235741
0.226918
0.204563
0.177883
0.148947
0.114011
0.0675646
0.0195346
0.0182538
0.0624907
0.121836
0.181339
0.221246
0.231779
0.213969
0.176237
0.131616
0.0905261
0.0611711
0.037356
0.0174456
0.00480376
9.14959e-05
0.00062359
0.000548298
0.000495483
0.000414168
0.000324405
0.00021018
3.6419e-05
0.000180955
0.000183045
0.109302
0.131615
0.162707
0.199804
0.239071
0.270129
0.284469
0.278405
0.251297
0.216743
0.179109
0.139502
0.092192
0.0410663
0.0051565
0.052717
0.119181
0.194927
0.255709
0.283563
0.27459
0.236094
0.182564
0.126411
0.0823281
0.0564336
0.0356981
0.0166553
0.00424951
4.97594e-05
0.000590103
0.000517554
0.000477139
0.000412951
0.000329156
0.000221818
6.77402e-05
0.000109628
0.000213928
0.108774
0.128817
0.18937
0.224487
0.280022
0.315545
0.336312
0.334097
0.308111
0.271972
0.217728
0.169347
0.118725
0.0637344
0.0128091
0.0390728
0.108221
0.197164
0.280335
0.331853
0.339528
0.306283
0.244867
0.190092
0.107254
0.0687193
0.0486518
0.032452
0.0149176
0.00340231
0.000202699
0.000548213
0.000496025
0.000452811
0.000410205
0.000332666
0.000239385
8.88363e-05
4.43096e-05
0.000214906
0.103389
0.101567
0.193637
0.213363
0.317532
0.367202
0.390589
0.392343
0.368111
0.311782
0.284856
0.203643
0.148382
0.0892751
0.0324614
0.0211205
0.0912641
0.187398
0.29134
0.370164
0.402696
0.384553
0.324732
0.231213
0.158161
0.0863325
0.0517644
0.0397526
0.0284415
0.0125651
0.00242972
0.000344379
0.000551458
0.000486684
0.000451025
0.000408231
0.000316254
0.000234955
0.000126807
1.93426e-05
0.000240385
0.0962116
0.0951466
0.18951
0.237481
0.3462
0.416723
0.451833
0.453392
0.429961
0.37889
0.297203
0.25011
0.181523
0.117846
0.0552633
0.00277271
0.0701917
0.167537
0.286647
0.393293
0.456102
0.462114
0.415315
0.328335
0.222086
0.128461
0.0618004
0.0340051
0.0314479
0.0241762
0.00985364
0.00148995
0.000425008
0.000520181
0.000479636
0.000445297
0.000387172
0.000324296
0.000238505
0.000168055
8.85885e-05
0.000271975
0.0849394
0.0832799
0.17667
0.262542
0.360852
0.452298
0.506534
0.522228
0.494092
0.443969
0.368794
0.296504
0.220256
0.149365
0.0812168
0.0176994
0.0498174
0.140235
0.267473
0.397396
0.493303
0.530328
0.504652
0.428855
0.325474
0.208591
0.100962
0.0342971
0.0180506
0.0249295
0.0199336
0.00715323
0.000729959
0.000445776
0.000503476
0.000471157
0.000466748
0.00039633
0.000321405
0.000265163
0.000180078
0.000151223
0.00024497
0.0656496
0.068256
0.154953
0.241866
0.347896
0.457946
0.539335
0.580234
0.568623
0.50731
0.433851
0.346658
0.26441
0.183933
0.109932
0.0405006
0.0294869
0.119066
0.233661
0.383515
0.508813
0.581492
0.585442
0.525568
0.422783
0.302823
0.171814
0.0645431
0.0069696
0.00624403
0.0205276
0.0158082
0.00467722
0.000187523
0.000454564
0.000505345
0.000501648
0.000479009
0.000408867
0.00033061
0.000289982
0.000203246
0.000197597
0.00020362
0.0431189
0.0488591
0.127809
0.210612
0.318484
0.434512
0.545654
0.608051
0.633068
0.584194
0.494039
0.403813
0.310299
0.222554
0.140884
0.0654596
0.0085498
0.0991836
0.197093
0.348486
0.50369
0.609571
0.648344
0.614744
0.521589
0.395838
0.258546
0.126257
0.0242921
0.0164114
0.000172848
0.0176122
0.0118166
0.00268511
0.000150992
0.000480175
0.00049328
0.000504669
0.000468345
0.000411177
0.000359807
0.000293888
0.000234623
0.000218868
0.000185467
0.0269609
0.0314845
0.0986997
0.173599
0.275786
0.395774
0.516856
0.623309
0.654011
0.656705
0.568467
0.458962
0.359345
0.263194
0.174034
0.0919865
0.0136058
0.0744252
0.154245
0.30681
0.470451
0.614081
0.688506
0.68557
0.613456
0.491618
0.349205
0.205003
0.0746235
0.0150995
0.0325501
0.00128826
0.0153198
0.0081145
0.0012649
0.000294648
0.000458979
0.000499602
0.000510441
0.000483584
0.0004234
0.000376527
0.000309017
0.000254469
0.000253309
0.00014683
0.0173984
0.0190509
0.0712855
0.134979
0.226613
0.34107
0.469169
0.586505
0.678067
0.685776
0.641414
0.52712
0.40824
0.305263
0.20885
0.119859
0.0370831
0.0461273
0.111032
0.262161
0.429097
0.583577
0.698423
0.735706
0.688163
0.580224
0.437452
0.286895
0.142973
0.0198988
0.0489952
0.039235
0.00127402
0.0127309
0.00495489
0.000416318
0.000390914
0.000468864
0.000513273
0.000517276
0.000489352
0.000425839
0.000400544
0.000322204
0.000266136
0.000269291
0.000108198
0.0104399
0.00854179
0.0465359
0.0981528
0.176696
0.278721
0.402842
0.531485
0.635666
0.692242
0.690088
0.598183
0.468377
0.34764
0.244285
0.148209
0.0619034
0.0136434
0.072703
0.218434
0.38319
0.541888
0.672938
0.745591
0.745293
0.653903
0.517719
0.364251
0.213763
0.0753503
0.0333999
0.072638
0.0362929
0.00500261
0.00967128
0.00260373
5.94941e-05
0.000424218
0.000495663
0.000513974
0.000509895
0.000504901
0.000450745
0.000407847
0.000323857
0.000295363
0.00025987
7.49735e-05
0.00465435
0.00203757
0.0273241
0.0657294
0.130176
0.216529
0.327286
0.455748
0.575976
0.658618
0.674968
0.652589
0.533034
0.399197
0.27964
0.175781
0.0787578
0.0126934
0.031908
0.178672
0.334177
0.496293
0.634724
0.725839
0.755033
0.709317
0.58393
0.432678
0.279102
0.134621
0.00631805
0.07925
0.0819446
0.0262211
0.0076266
0.00646091
0.00110296
0.000260699
0.000445648
0.000510329
0.000535763
0.000549337
0.000505988
0.000463001
0.000424558
0.000377913
0.000299385
0.000289071
3.68711e-05
0.00079164
0.00112734
0.013996
0.0397983
0.0893356
0.160209
0.252262
0.368705
0.494307
0.597381
0.655705
0.640054
0.578901
0.453948
0.320748
0.202727
0.096673
0.0373135
0.0179384
0.14228
0.286095
0.445276
0.593433
0.69617
0.734199
0.719009
0.629632
0.487394
0.334766
0.18848
0.053454
0.0590191
0.111201
0.0758925
0.0136725
0.00802701
0.00368708
0.000289476
0.000364326
0.000478692
0.000555391
0.000566708
0.000579828
0.000541851
0.000501926
0.000455929
0.00038293
0.000306892
0.000279153
1.71103e-05
0.000260834
0.00213482
0.00599934
0.0210508
0.0563467
0.111645
0.185863
0.281235
0.399186
0.513664
0.593506
0.619446
0.584043
0.490933
0.364223
0.226853
0.122584
0.0675003
0.00454539
0.114878
0.241753
0.392219
0.542617
0.661936
0.719256
0.703316
0.641112
0.523679
0.377257
0.23269
0.0967441
0.0261879
0.114279
0.123638
0.0577067
0.00335896
0.00663986
0.00170696
9.54164e-05
0.000398383
0.000510472
0.000572422
0.000591468
0.000593654
0.000570863
0.000515702
0.000461336
0.00038028
0.000298806
0.000245649
5.18354e-05
0.000650506
0.00221014
0.00197217
0.00919594
0.0315566
0.0727037
0.130362
0.204612
0.300367
0.415045
0.511188
0.56443
0.561724
0.503093
0.397082
0.263594
0.154392
0.107512
0.00566773
0.0903094
0.202897
0.340586
0.487664
0.613587
0.691048
0.700255
0.640655
0.538105
0.403769
0.264484
0.131344
0.00637132
0.099575
0.151617
0.114804
0.0344553
0.00241445
0.00447086
0.000583153
0.00025605
0.000446386
0.000533423
0.000585952
0.000638744
0.000633387
0.00057905
0.000548946
0.000472515
0.000387333
0.000325064
0.000226001
8.06524e-05
0.000636601
0.0021393
0.000241617
0.00303795
0.0148694
0.0427379
0.0870721
0.143455
0.209012
0.309927
0.413677
0.486954
0.513475
0.487306
0.411655
0.302301
0.198895
0.137768
0.0223313
0.0691792
0.1699
0.288161
0.43276
0.559659
0.647531
0.676374
0.639744
0.544944
0.415067
0.281274
0.155014
0.0322826
0.0800337
0.159541
0.164007
0.0890953
0.014317
0.00487663
0.00211439
5.98809e-05
0.000322898
0.000503106
0.000609385
0.000659337
0.000668637
0.000651862
0.000626348
0.000578259
0.000497694
0.000419204
0.00031483
0.000184414
0.000117234
0.000517534
0.00216868
0.000423366
0.000396119
0.00557668
0.0213492
0.0535239
0.0972982
0.15319
0.193602
0.314848
0.394094
0.443599
0.446781
0.402834
0.321589
0.226057
0.156088
0.0455686
0.0486796
0.143149
0.258413
0.359352
0.505081
0.596898
0.639108
0.62022
0.544247
0.422397
0.283197
0.166442
0.0495189
0.0639018
0.157307
0.196741
0.149292
0.0564091
0.00333694
0.0047407
0.000882682
0.000126972
0.000413263
0.000566085
0.000641417
0.000689598
0.000717842
0.000677761
0.000659366
0.000604868
0.00051912
0.000416544
0.000287854
0.000152196
0.000118234
0.000270192
0.00208109
0.00071729
0.000526134
0.0013956
0.00857989
0.0282648
0.0620563
0.102816
0.165692
0.194908
0.297055
0.35816
0.385872
0.370901
0.317117
0.238926
0.155983
0.0702708
0.0249976
0.119303
0.221643
0.335632
0.445055
0.542251
0.593047
0.588838
0.529291
0.42347
0.282191
0.167673
0.058378
0.0540085
0.15438
0.216474
0.203052
0.113614
0.027467
6.77367e-05
0.00302148
0.000262473
0.000239394
0.000450755
0.000604571
0.000693499
0.000722282
0.000734767
0.000723597
0.000675052
0.000604513
0.000514655
0.000432642
0.000282412
0.00010902
6.55525e-05
3.54407e-06
0.00186137
0.000829288
0.000780386
9.9221e-05
0.00251088
0.0120674
0.0346999
0.0668095
0.100575
0.143458
0.200905
0.264569
0.309487
0.319313
0.292161
0.235695
0.163942
0.0871486
0.000750217
0.0931972
0.192285
0.295617
0.394235
0.484374
0.540761
0.547778
0.50264
0.414355
0.28317
0.143258
0.0630836
0.0504235
0.155409
0.231357
0.246294
0.17725
0.070291
0.0082184
0.000965091
0.00110202
1.03289e-05
0.000325688
0.000525852
0.000648647
0.00074114
0.000789388
0.000775669
0.000761427
0.000693714
0.000642977
0.000549965
0.000418426
0.000283515
7.96796e-05
6.90847e-05
0.000544237
0.00146367
0.000825674
0.000788191
0.000526425
0.000260813
0.00386478
0.015718
0.0396065
0.066949
0.087803
0.121424
0.175033
0.224075
0.252283
0.248773
0.21517
0.160201
0.0941643
0.0192323
0.065221
0.16136
0.261623
0.351907
0.428532
0.485437
0.499525
0.466594
0.392029
0.283587
0.132171
0.0677383
0.050956
0.161675
0.247749
0.282345
0.238675
0.128951
0.0333106
0.000178807
0.00137986
0.000310984
0.000164306
0.000412267
0.00058806
0.000732324
0.000774142
0.000823531
0.000838836
0.000790231
0.00075563
0.000660136
0.000562038
0.000457113
0.000267896
6.34437e-05
8.97795e-05
0.000459737
0.00137059
0.000801618
0.000742536
0.000624402
0.000413367
0.000667339
0.00532338
0.0190599
0.0421843
0.0627513
0.0774912
0.104182
0.142042
0.176393
0.190451
0.178003
0.142035
0.0899455
0.0271852
0.0460776
0.127826
0.224252
0.316399
0.385317
0.43075
0.447529
0.423277
0.36103
0.270667
0.138596
0.0747844
0.0484341
0.174403
0.267094
0.317946
0.294769
0.195768
0.0757154
0.0101684
0.00220723
0.000961094
7.07793e-05
0.000249587
0.00051123
0.000637397
0.000767341
0.0008361
0.000852411
0.000859869
0.000806771
0.000750757
0.000676537
0.000568834
0.000432026
0.000273918
5.12003e-06
7.44242e-05
0.00113429
0.00122921
0.000758064
0.000679236
0.000602886
0.000555156
0.00027832
0.00110334
0.00682818
0.0216113
0.0421043
0.0556472
0.0636924
0.079773
0.104166
0.124381
0.127406
0.109371
0.0730862
0.0235469
0.0369573
0.107044
0.18275
0.271445
0.344976
0.385696
0.395245
0.375287
0.323237
0.246438
0.150268
0.0642706
0.0351222
0.181298
0.297251
0.350943
0.350947
0.264059
0.132945
0.0335953
7.2358e-05
0.00180084
0.00049614
4.32649e-05
0.000327417
0.000554997
0.000721877
0.000805016
0.000867366
0.000899682
0.000874254
0.000848482
0.000788677
0.000671254
0.000572786
0.00042714
0.000262651
1.54351e-05
5.79585e-05
0.00015562
0.00144911
0.000865417
0.000600454
0.000531352
0.000524639
0.000471343
0.000157735
0.0015292
0.00815469
0.0230106
0.0396779
0.0464568
0.046907
0.0525175
0.0642055
0.0718068
0.0661658
0.0445092
0.00869283
0.038598
0.095511
0.159487
0.222557
0.290709
0.337274
0.346844
0.325519
0.280419
0.215317
0.135515
0.0497867
0.018708
0.18569
0.312647
0.40323
0.397372
0.335641
0.199919
0.0718952
0.00920077
0.00225552
0.00102959
0.000232506
0.000113056
0.000411771
0.000598095
0.000763582
0.000862404
0.00093896
0.000955296
0.000936341
0.000867386
0.000789754
0.000696821
0.000559702
0.000443937
0.000237238
1.43547e-05
4.89339e-05
0.000480681
0.00113474
0.000610741
0.000475456
0.000467911
0.00046812
0.000422761
5.38131e-05
0.00192657
0.0091383
0.0230946
0.0354857
0.036444
0.0300219
0.0260374
0.0257868
0.0225349
0.0100165
0.0141105
0.0488989
0.0927497
0.142788
0.195779
0.239738
0.27623
0.292537
0.275542
0.235233
0.179806
0.111958
0.0322731
0.0220812
0.185559
0.319477
0.432289
0.471158
0.399945
0.274225
0.124249
0.0285295
0.000385058
0.00170518
0.000527202
0.000114594
0.00017994
0.000457086
0.000662135
0.000825424
0.000926727
0.000967968
0.000965651
0.00093535
0.000888797
0.000810745
0.000711376
0.000593393
0.00045012
0.000242148
3.22797e-05
3.92363e-05
0.000158115
0.000919886
0.000509892
0.000385193
0.000397697
0.000411516
0.000394145
7.56105e-07
0.00224985
0.00959928
0.0219792
0.0304666
0.0270667
0.0152953
0.00318326
0.00707232
0.0190906
0.0368545
0.0621631
0.0944889
0.132012
0.170557
0.206663
0.228805
0.232703
0.222727
0.189737
0.142752
0.0851595
0.0138658
0.0593176
0.191176
0.321161
0.443595
0.523296
0.490708
0.349014
0.187362
0.0603721
0.00638508
0.00188627
0.000740166
0.000233402
2.0623e-05
0.00023517
0.000479617
0.000692407
0.000840587
0.000935244
0.000984158
0.00101725
0.000955596
0.000905089
0.000829604
0.000697275
0.000581152
0.000428841
0.000246785
4.00249e-05
2.06572e-05
2.58095e-05
0.000727005
0.000352362
0.000314456
0.00034664
0.000397461
0.000376889
1.71351e-05
0.00239693
0.00949163
0.0199436
0.0254298
0.0193861
0.00435478
0.0133444
0.0307303
0.0487888
0.0695298
0.0937785
0.121167
0.148715
0.171796
0.187552
0.189929
0.171448
0.145513
0.106698
0.0574652
0.00627858
0.0901
0.199283
0.329073
0.451129
0.543957
0.546104
0.44822
0.255976
0.103846
0.020965
0.000395463
0.000629945
1.48867e-05
4.67369e-05
8.12645e-06
0.000224365
0.000482458
0.000729938
0.000889241
0.000992879
0.00103946
0.0010482
0.000980626
0.00089764
0.000815497
0.000686868
0.000560362
0.000428669
0.000242707
3.21848e-05
2.38372e-06
0.000118086
0.000549657
0.000244106
0.000256351
0.000314698
0.000396463
0.00037593
2.17993e-05
0.0023951
0.00884189
0.0173646
0.0208686
0.0140194
0.00190709
0.0219607
0.0427191
0.0633312
0.0840653
0.104054
0.124135
0.139202
0.146521
0.144873
0.134043
0.106287
0.0736749
0.0308781
0.0273312
0.108262
0.21444
0.341065
0.465594
0.561094
0.59442
0.500413
0.324597
0.158432
0.0444713
0.00462532
1.27658e-05
0.000681495
0.000228751
0.00023306
0.000255197
0.000113657
0.00049998
0.000774405
0.000930885
0.00102261
0.00106887
0.00104337
0.000981563
0.000909903
0.00080261
0.000696076
0.000560934
0.000401453
0.00022225
2.74528e-05
3.78783e-05
0.000212297
0.000363218
0.000154863
0.000203952
0.000289973
0.000372135
0.000380328
5.69482e-06
0.00223092
0.00772533
0.0145563
0.0170271
0.0108251
0.0035838
0.022687
0.0429599
0.0624204
0.0802007
0.0929359
0.105027
0.108414
0.104623
0.0938031
0.0774757
0.0465142
0.00680401
0.0485069
0.127896
0.233429
0.358358
0.483858
0.58421
0.626491
0.581872
0.42469
0.209133
0.0788699
0.0144266
0.00171528
0.00117113
2.02628e-05
0.001289
0.0016574
0.00121734
0.000238464
0.000503918
0.000834342
0.000979895
0.0010183
0.00107285
0.00106856
0.000984213
0.000923496
0.000802319
0.00068342
0.000538945
0.000394336
0.000228073
3.88042e-06
0.000142765
0.00029621
0.000197189
5.72751e-05
0.000169951
0.000294039
0.000369677
0.000393789
5.39455e-05
0.0018874
0.00634822
0.0117051
0.0138184
0.00926352
0.0020489
0.0175927
0.0342738
0.049648
0.0627896
0.0679405
0.0729267
0.0693211
0.0614385
0.0486307
0.0287661
0.0112813
0.0685367
0.14844
0.254963
0.379131
0.504603
0.608245
0.659573
0.628541
0.499548
0.291527
0.112661
0.0314233
0.004813
0.0010662
0.00252099
0.00632012
0.00759626
0.00628573
0.00377926
0.000985599
0.000505908
0.000955349
0.00102821
0.0010679
0.00107459
0.00107218
0.00100147
0.00088817
0.00078871
0.000674594
0.000546625
0.000387396
0.000211503
5.06659e-06
0.000156345
0.000399001
2.89775e-05
9.97544e-06
0.000147594
0.000283503
0.000377003
0.000418332
0.000126617
0.00143524
0.00486364
0.00898158
0.010928
0.00834385
0.000799299
0.00997508
0.0215608
0.0315902
0.0399087
0.0421116
0.0405001
0.0357391
0.0281512
0.0131862
0.0183747
0.0818382
0.168644
0.277535
0.402372
0.526882
0.631377
0.688968
0.672167
0.563431
0.373628
0.167596
0.050017
0.010998
5.52333e-05
0.00827158
0.0185978
0.0250197
0.0237954
0.0172461
0.00910891
0.00241491
0.000544714
0.00119146
0.00109752
0.00106641
0.00107936
0.00103504
0.0009772
0.000876999
0.000778955
0.000651113
0.000523664
0.00036718
0.000195167
2.02924e-05
0.000154149
0.000579935
0.000130495
3.45591e-05
0.00012416
0.000269923
0.000377951
0.000449926
0.00019622
0.000927153
0.00338542
0.00644275
0.0082861
0.00731296
0.00316456
0.00311181
0.00984187
0.0150391
0.0183551
0.0217669
0.0179728
0.0139545
0.00448924
0.0220717
0.0799214
0.179423
0.299404
0.42591
0.547945
0.652391
0.713072
0.706926
0.615642
0.442347
0.232101
0.0800768
0.0183833
0.00119011
0.0174871
0.0383938
0.0570795
0.064127
0.0556717
0.0381254
0.0184113
0.00481048
0.000656168
0.00150562
0.00119432
0.00106627
0.00106049
0.00104076
0.000949538
0.000864422
0.000748203
0.000626766
0.000512876
0.000351019
0.000208246
4.07089e-05
0.000164409
0.000645374
0.000233362
9.54927e-05
0.000125755
0.000276667
0.000366443
0.000459059
0.000298583
0.000489865
0.00213965
0.00424022
0.00580548
0.00583159
0.00406006
0.00106368
0.00215288
0.00430174
0.0044211
0.00818576
0.00575715
0.000186186
0.0204957
0.0730506
0.168531
0.306377
0.448485
0.567422
0.664667
0.731631
0.731508
0.656009
0.500483
0.296426
0.120329
0.0313799
0.00204926
0.0286624
0.0643507
0.101387
0.12641
0.128319
0.106904
0.07302
0.0320187
0.00831484
0.000792955
0.00184812
0.00124126
0.00106833
0.00106522
0.00102118
0.00092991
0.000833946
0.000708308
0.000604391
0.000497004
0.00036448
0.000224598
6.05614e-05
0.000183013
0.000652723
0.000330895
9.87265e-05
0.000110578
0.000276439
0.000388211
0.000438614
0.000367137
0.000104329
0.00111425
0.00247638
0.00363676
0.0040617
0.00358719
0.00246357
0.00119287
3.98055e-05
0.00073728
0.00161531
0.00101426
0.016041
0.061063
0.150741
0.283098
0.450508
0.585723
0.673827
0.734251
0.744082
0.682408
0.545639
0.353836
0.166861
0.0514655
0.00255143
0.0390442
0.0927167
0.153386
0.202923
0.226002
0.213014
0.18062
0.11041
0.0474769
0.0128192
0.000872453
0.00215062
0.00125334
0.00105475
0.00104924
0.00100189
0.000897251
0.000812496
0.000689593
0.000578748
0.000447775
0.000347095
0.0002192
0.000105798
0.000164644
0.000642726
0.00043614
0.000133646
0.00013635
0.000275
0.000389952
0.000451946
0.000422786
0.000162192
0.000395049
0.00118447
0.00193595
0.00236727
0.00237082
0.00211978
0.00170149
0.00123276
0.00091754
0.00100109
0.0104246
0.0462578
0.126325
0.253359
0.407872
0.588875
0.674687
0.724947
0.743976
0.692945
0.575269
0.400068
0.213134
0.0778051
0.0114392
0.0368378
0.11764
0.20534
0.285166
0.334285
0.340291
0.280194
0.233483
0.159245
0.0667382
0.0175305
0.000908771
0.00225794
0.00120552
0.00102273
0.00102248
0.000965366
0.000885107
0.000783075
0.000649758
0.000537758
0.000444156
0.00034116
0.000213002
0.000108877
0.000158761
0.000634938
0.000503371
0.000137913
0.000131965
0.000296556
0.000378579
0.000460708
0.000461664
0.000345708
7.22736e-05
0.000318205
0.000726001
0.00105961
0.00118242
0.00123227
0.00111222
0.000846844
0.000666807
0.0055435
0.0308538
0.0979705
0.21478
0.36575
0.52012
0.687927
0.698682
0.715894
0.693071
0.588705
0.432034
0.253455
0.106905
0.0236002
0.0303432
0.116511
0.250958
0.361182
0.440723
0.46904
0.440776
0.372852
0.276029
0.176765
0.0840782
0.0208798
0.00103642
0.002187
0.00114726
0.000991498
0.00099427
0.000941256
0.000848509
0.000759204
0.000640373
0.000533226
0.000410605
0.000326798
0.000212507
0.000146849
0.000151872
0.00060188
0.000539865
0.00012678
0.000139857
0.000326078
0.000411801
0.000473768
0.000479932
0.000450913
0.000354525
0.000141443
6.01812e-05
0.000240137
0.000346829
0.000468558
0.000460252
0.00037093
0.00228768
0.0175157
0.0683756
0.170851
0.313682
0.465711
0.599451
0.702423
0.675104
0.660557
0.587247
0.44875
0.283769
0.134795
0.0371805
0.0236828
0.105655
0.253478
0.433332
0.533752
0.582978
0.571174
0.509942
0.427449
0.311904
0.200433
0.0931799
0.0214585
0.0012874
0.0019289
0.001041
0.000989241
0.000976439
0.000897739
0.000808224
0.000714733
0.000593465
0.000490628
0.000399831
0.000314377
0.000228634
0.000180273
0.000146333
0.000535843
0.00055723
0.000118507
0.000159906
0.0003181
0.000411959
0.000477329
0.000514318
0.000498837
0.000474991
0.000408002
0.00031677
0.00021127
8.83801e-05
3.49105e-05
9.61836e-05
0.000759577
0.00802392
0.0415528
0.124328
0.25547
0.403638
0.53307
0.632433
0.633789
0.619133
0.566154
0.449268
0.301466
0.157281
0.0508128
0.0182876
0.0941938
0.233858
0.439983
0.636751
0.682853
0.671897
0.611579
0.51616
0.412051
0.306865
0.2031
0.0926513
0.0189183
0.00157449
0.00159187
0.000965254
0.000947971
0.000923064
0.000839796
0.000780385
0.000652865
0.000579128
0.000467222
0.000403248
0.000296037
0.000227988
0.000218221
0.000115778
0.000463373
0.000592412
0.000129379
0.000155138
0.000318237
0.000430411
0.000482256
0.000534675
0.000577082
0.000576569
0.000548382
0.000487622
0.000414561
0.000289323
0.000170403
0.000110025
0.00296847
0.0208994
0.0803635
0.193135
0.335315
0.466438
0.557478
0.61416
0.55647
0.529161
0.435455
0.304168
0.168749
0.0587695
0.0133395
0.0825498
0.195614
0.413267
0.63691
0.80803
0.770416
0.686403
0.582034
0.462019
0.356559
0.276801
0.190565
0.0835834
0.0140595
0.00174037
0.00122385
0.000898093
0.000924758
0.000897054
0.000829865
0.000725003
0.00064972
0.000566506
0.000461139
0.000372685
0.000292279
0.000227
0.000223783
8.02213e-05
0.000400489
0.000564092
9.81213e-05
0.000195883
0.000349204
0.000435333
0.000515431
0.000570994
0.000611244
0.00061769
0.000631785
0.000579392
0.000512913
0.000420684
0.000224407
0.000808237
0.00847788
0.043763
0.132053
0.26237
0.393183
0.49168
0.541221
0.548149
0.48329
0.409883
0.294551
0.172722
0.0574361
0.0169658
0.0660269
0.149602
0.386252
0.60797
0.782919
0.866949
0.773179
0.632637
0.498415
0.3715
0.282556
0.235741