/*--------------------------------*- C++ -*----------------------------------*\
| =========                 |                                                 |
| \\      /  F ield         | OpenFOAM: The Open Source CFD Toolbox           |
|  \\    /   O peration     | Version:  2506                                  |
|   \\  /    A nd           | Website:  www.openfoam.com                      |
|    \\/     M anipulation  |                                                 |
\*---------------------------------------------------------------------------*/
FoamFile
{
    version     2.0;
    format      ascii;
    arch        "LSB;label=32;scalar=64";
    class       volVectorField;
    location    "30.0155191";
    object      U;
}
// * * * * * * * * * * * * * * * * * * * * * * * * * * * * * * * * * * * * * //

dimensions      [0 1 -1 0 0 0 0];

internalField   nonuniform List<vector> 
9700
(
(1.07835 0.000332155 2.13219e-22)
(1.07852 0.001096 4.15269e-24)
(1.07728 0.000399924 3.92471e-28)
(1.07876 0.00192791 -2.96116e-22)
(1.07733 0.00131705 -3.17188e-24)
(1.07658 0.000396171 -1.97548e-22)
(1.07911 0.00296287 -1.43045e-23)
(1.07738 0.00227954 -2.1293e-35)
(1.07659 0.00131019 -1.95807e-22)
(1.07579 0.000371911 0)
(1.07955 0.00424674 2.47605e-22)
(1.07741 0.00344813 8.06649e-24)
(1.07653 0.00225458 -1.5564e-21)
(1.07573 0.00123951 -7.52485e-23)
(1.07509 0.000320416 1.85713e-22)
(1.08009 0.00589521 3.10131e-22)
(1.07741 0.00485599 -4.23775e-27)
(1.07641 0.00339506 -2.45761e-22)
(1.07557 0.00211975 4.40168e-35)
(1.07499 0.0010817 2.03255e-22)
(1.0745 0.000248054 1.40769e-27)
(1.0807 0.00801067 2.41743e-22)
(1.07737 0.00662265 6.27647e-27)
(1.0762 0.00475573 -2.60239e-22)
(1.07526 0.00317995 1.8591e-22)
(1.07473 0.00183844 1.40104e-21)
(1.07437 0.000854269 -1.4611e-23)
(1.07407 0.000159339 -1.57797e-22)
(1.0813 0.0107201 3.91585e-22)
(1.07725 0.0088477 2.50913e-22)
(1.07587 0.0064495 -2.15366e-22)
(1.07479 0.00443333 0)
(1.07428 0.0027521 1.55459e-22)
(1.07404 0.00144052 -6.15465e-36)
(1.07392 0.000571444 -1.44233e-22)
(1.07383 5.32068e-05 -1.25726e-21)
(1.08192 0.0141761 -2.50659e-22)
(1.07703 0.0116659 -5.51381e-22)
(1.07537 0.00856325 7.09487e-23)
(1.07411 0.00598377 0)
(1.0736 0.00382477 1.61126e-22)
(1.07347 0.00215503 3.54302e-23)
(1.07354 0.000949606 -1.12046e-25)
(1.07367 0.000250745 -1.48003e-21)
(1.07379 -6.01211e-05 -1.31783e-24)
(1.08257 0.0185726 -3.60752e-22)
(1.07666 0.0152252 -5.03987e-22)
(1.07466 0.01122 -3.30483e-21)
(1.07317 0.00790645 -6.60765e-37)
(1.07265 0.00514773 2.69297e-22)
(1.07262 0.00298842 -1.76044e-26)
(1.07288 0.00142365 -2.1853e-22)
(1.07326 0.000393761 -1.99296e-22)
(1.07363 -9.00029e-05 2.82305e-22)
(1.07396 -0.000171041 1.0782e-21)
(1.08317 0.0241439 2.58603e-22)
(1.07607 0.0197166 5.91891e-23)
(1.07366 0.0145569 3.82832e-22)
(1.07191 0.0103108 1.96049e-22)
(1.07136 0.00678146 7.48301e-22)
(1.07143 0.00401684 2.30198e-26)
(1.0719 0.00197145 -2.23555e-22)
(1.07254 0.000599256 -1.48885e-21)
(1.07321 -0.00019612 1.822e-22)
(1.07381 -0.000433417 1.1303e-21)
(1.07433 -0.000275453 0)
(1.08343 0.0311801 2.93296e-23)
(1.07509 0.0253574 6.72916e-23)
(1.07227 0.0187447 3.0057e-21)
(1.07022 0.0133157 7.87279e-22)
(1.06964 0.00881777 2.53924e-21)
(1.06985 0.00528422 7.90676e-22)
(1.07056 0.00265246 -1.08503e-22)
(1.0715 0.00082957 -1.34262e-21)
(1.07249 -0.0002744 -2.03284e-22)
(1.07341 -0.00078697 -8.57006e-26)
(1.07421 -0.000760249 -8.16466e-37)
(1.07489 -0.000367759 1.10759e-22)
(1.08268 0.0399807 1.70332e-21)
(1.07346 0.0323934 4.33743e-22)
(1.07038 0.0239846 -4.33345e-22)
(1.06798 0.017067 -3.00208e-22)
(1.0674 0.0113544 -1.33442e-21)
(1.06777 0.00686272 -9.90763e-23)
(1.06876 0.00349252 4.41845e-22)
(1.07005 0.0011265 -1.35246e-21)
(1.07142 -0.000378354 3.25865e-27)
(1.07272 -0.00115135 1.03085e-21)
(1.07386 -0.00134795 2.33107e-36)
(1.07481 -0.00105229 1.23895e-22)
(1.07561 -0.000442305 1.04991e-27)
(1.07901 0.0506389 -2.43215e-23)
(1.07059 0.0410369 9.53405e-35)
(1.06772 0.0304986 -3.03238e-22)
(1.06504 0.0217336 -1.16164e-21)
(1.06448 0.014511 -2.30715e-21)
(1.06506 0.00882688 -1.33188e-21)
(1.06641 0.00454245 -2.14417e-21)
(1.06813 0.00149679 -1.52157e-21)
(1.06995 -0.000485451 -4.2259e-27)
(1.07169 -0.00159061 1.00177e-21)
(1.07322 -0.00198513 -8.55885e-37)
(1.07452 -0.00184839 6.98643e-26)
(1.07558 -0.00129233 -1.1158e-23)
(1.07646 -0.000493944 -8.92326e-23)
(1.07001 0.062961 1.37136e-22)
(1.06505 0.0514055 -5.12249e-22)
(1.06373 0.0384863 -7.10406e-21)
(1.06113 0.0275068 -1.19847e-21)
(1.0607 0.0184242 2.50088e-22)
(1.06158 0.0112681 1.46808e-22)
(1.06337 0.00585231 -2.44162e-21)
(1.06562 0.00196892 -2.09566e-21)
(1.06799 -0.000608318 8.81657e-22)
(1.07026 -0.00210424 1.08064e-21)
(1.07229 -0.00274498 0)
(1.07399 -0.00273077 5.7902e-23)
(1.07538 -0.00225884 -4.34567e-36)
(1.07648 -0.00146467 -7.86004e-23)
(1.07739 -0.000518449 -1.11723e-22)
(1.05431 0.0765457 2.19938e-21)
(1.05455 0.0630856 -1.85226e-22)
(1.05716 0.0479729 -7.18845e-22)
(1.05579 0.0345591 2.17213e-34)
(1.05582 0.0232466 5.10059e-22)
(1.05713 0.0142891 1.74435e-22)
(1.05949 0.00748473 1.66364e-21)
(1.06238 0.00256786 -6.47091e-22)
(1.06543 -0.000741568 7.17006e-22)
(1.06836 -0.00272328 1.57122e-21)
(1.07098 -0.00364945 0)
(1.0732 -0.0037811 4.97102e-23)
(1.07499 -0.00334575 2.63348e-23)
(1.07639 -0.00255264 -6.31394e-22)
(1.07746 -0.00155607 -2.37944e-22)
(1.07835 -0.000512746 -4.71927e-29)
(1.03322 0.0911463 9.75245e-23)
(1.03782 0.0754973 -1.06087e-22)
(1.04613 0.0585744 -2.0676e-21)
(1.04804 0.0429104 1.49609e-21)
(1.04943 0.0291163 5.047e-21)
(1.05145 0.0180037 1.23127e-21)
(1.05455 0.00950904 -2.6019e-22)
(1.05825 0.00332706 1.15718e-21)
(1.06214 -0.000885712 1.09728e-21)
(1.06587 -0.00346711 -1.02791e-22)
(1.06923 -0.00474811 -3.46758e-36)
(1.07209 -0.00504313 1.36555e-22)
(1.07439 -0.00464136 -1.29001e-26)
(1.07617 -0.00379102 -1.05287e-22)
(1.0775 -0.00270713 -1.03841e-22)
(1.07848 -0.00155627 8.48359e-23)
(1.07927 -0.000475256 1.04995e-22)
(1.00941 0.106531 3.42078e-21)
(1.01586 0.0883454 5.45077e-22)
(1.0292 0.0696207 1.04452e-21)
(1.03632 0.052205 0)
(1.04077 0.0360559 1.46523e-22)
(1.0442 0.022515 4.60814e-35)
(1.0483 0.0120016 -5.56122e-25)
(1.05301 0.00428355 -2.94233e-21)
(1.05792 -0.00103681 -4.99122e-22)
(1.06265 -0.00436203 -5.31188e-22)
(1.06693 -0.006085 -8.13346e-22)
(1.07058 -0.00658468 5.65209e-22)
(1.07354 -0.00621035 1.65352e-26)
(1.07581 -0.00527252 -9.62536e-23)
(1.07747 -0.00403311 -6.43967e-23)
(1.07864 -0.00270488 6.56226e-22)
(1.07947 -0.00145851 1.02626e-22)
(1.08011 -0.000405908 -1.05478e-22)
(0.984097 0.121986 -8.78371e-21)
(0.991435 0.101799 -5.15365e-22)
(1.00699 0.0807436 3.85801e-22)
(1.01923 0.0617397 -1.98771e-34)
(1.02861 0.0437678 -1.63705e-21)
(1.03478 0.027848 -1.54347e-21)
(1.04043 0.0150306 -1.5728e-21)
(1.04642 0.00547843 -1.5444e-21)
(1.05258 -0.00118918 -1.58759e-21)
(1.05853 -0.00543306 6.97508e-22)
(1.06393 -0.00771267 9.51547e-22)
(1.06857 -0.00847434 5.26192e-22)
(1.07236 -0.00813795 5.56808e-22)
(1.07528 -0.00708112 -2.18025e-23)
(1.07739 -0.00562836 -8.00791e-23)
(1.07883 -0.00404586 5.93723e-23)
(1.07976 -0.00253458 -5.46361e-22)
(1.08036 -0.00126027 -1.64023e-22)
(1.08079 -0.000306065 8.11593e-29)
(0.956746 0.136449 -1.64898e-21)
(0.966284 0.115687 -3.31724e-23)
(0.982055 0.0922443 -5.79713e-21)
(0.996939 0.0710114 2.14812e-35)
(1.01166 0.0515957 -3.50354e-22)
(1.02227 0.0337797 -6.16948e-22)
(1.03046 0.0186169 -5.0031e-22)
(1.03817 0.00694686 -2.07395e-22)
(1.04587 -0.0013351 1.88261e-21)
(1.05328 -0.00670644 5.49483e-22)
(1.06006 -0.00968633 1.17606e-21)
(1.06593 -0.0107915 -2.84252e-22)
(1.07076 -0.0105168 -6.82996e-23)
(1.07451 -0.00931792 2.71577e-22)
(1.07723 -0.00759368 -6.18067e-23)
(1.07906 -0.0056722 5.20243e-28)
(1.08018 -0.00381181 8.66566e-23)
(1.08079 -0.00219223 -9.78754e-23)
(1.08109 -0.000963708 -6.67256e-24)
(1.08127 -0.000177895 1.13857e-22)
(0.927134 0.149127 1.91864e-20)
(0.94004 0.129141 -8.01186e-22)
(0.95656 0.104348 1.08327e-20)
(0.971583 0.0803244 3.18547e-35)
(0.98966 0.0588992 2.28163e-21)
(1.00556 0.0397669 1.27114e-25)
(1.01772 0.0226075 -2.60168e-21)
(1.02787 0.00869925 -1.52721e-21)
(1.03749 -0.00147009 9.63004e-23)
(1.04668 -0.00820718 6.59029e-22)
(1.05511 -0.012065 -1.33493e-21)
(1.06249 -0.0136228 -1.15622e-22)
(1.06862 -0.0134536 -8.9906e-22)
(1.07342 -0.0120987 -2.5265e-22)
(1.07693 -0.0100437 -6.74883e-23)
(1.0793 -0.00769789 -6.03918e-28)
(1.08072 -0.0053787 7.35541e-23)
(1.08142 -0.00332409 -2.09086e-22)
(1.08165 -0.00168168 2.14111e-35)
(1.0816 -0.000576426 2.53432e-22)
(1.08148 -2.12292e-05 -2.29443e-24)
(0.896264 0.159685 -8.03517e-22)
(0.912245 0.141233 -3.81415e-22)
(0.93077 0.116474 1.37999e-21)
(0.945699 0.090248 0)
(0.964114 0.0658527 3.62347e-21)
(0.9841 0.0450866 1.9978e-21)
(1.0013 0.0266086 6.16846e-22)
(1.015 0.0106355 -1.3579e-21)
(1.02709 -0.00159974 -2.13756e-21)
(1.03841 -0.0099607 9.89958e-24)
(1.04883 -0.0149077 -1.54843e-36)
(1.05804 -0.0170624 -5.51762e-23)
(1.06577 -0.017068 9.70471e-23)
(1.0719 -0.0155569 -3.89163e-22)
(1.07645 -0.0131151 3.99814e-23)
(1.07954 -0.0102478 3.72126e-23)
(1.0814 -0.00735763 4.99804e-23)
(1.08229 -0.00473668 -7.46651e-23)
(1.08249 -0.0025874 1.76383e-23)
(1.08227 -0.00101545 1.08908e-22)
(1.08184 -0.000111319 -1.17392e-23)
(1.08139 0.000154397 -1.22452e-21)
(0.865777 0.168145 5.71696e-22)
(0.883502 0.151511 1.27668e-21)
(0.904107 0.127692 -1.08461e-20)
(0.920119 0.100663 8.65481e-36)
(0.937639 0.0731884 -7.15475e-21)
(0.958699 0.0497307 -2.48894e-21)
(0.980556 0.0299028 1.85982e-21)
(0.998892 0.012508 -2.02485e-22)
(1.01425 -0.0017903 1.72709e-26)
(1.02815 -0.0119926 -1.59969e-22)
(1.04093 -0.0182722 -1.20938e-37)
(1.05233 -0.0212073 1.13119e-22)
(1.06202 -0.0214923 1.12942e-22)
(1.06982 -0.0198466 -3.47941e-22)
(1.07568 -0.0169672 3.05419e-22)
(1.07973 -0.0134761 1.43651e-24)
(1.0822 -0.0098793 -1.77725e-23)
(1.0834 -0.00655493 -5.64205e-23)
(1.08367 -0.00375072 -1.20561e-27)
(1.08331 -0.00161963 3.95497e-23)
(1.0826 -0.000214849 2.86568e-22)
(1.08177 0.000414628 -1.31404e-21)
(1.08097 0.000341237 7.73012e-25)
(0.837384 0.174778 1.182e-21)
(0.855181 0.16005 1.65627e-22)
(0.876621 0.137405 -2.3651e-21)
(0.894391 0.110855 2.68131e-35)
(0.911632 0.0813645 -6.60346e-22)
(0.931714 0.0542711 -8.43136e-22)
(0.955692 0.0323682 -2.21036e-21)
(0.978896 0.0136984 -1.52243e-21)
(0.998466 -0.00217911 -4.24545e-22)
(1.01553 -0.0143518 -2.3526e-21)
(1.03108 -0.0222088 1.4087e-36)
(1.04506 -0.026153 -6.14117e-22)
(1.05712 -0.0268676 7.80237e-22)
(1.06697 -0.0251422 5.86748e-23)
(1.07451 -0.0217883 -2.62249e-23)
(1.07981 -0.0175646 8.72388e-23)
(1.08312 -0.0131099 1.10931e-23)
(1.08478 -0.00890966 -5.70788e-23)
(1.0852 -0.00529254 1.71187e-27)
(1.08475 -0.00244367 9.15208e-23)
(1.08379 -0.000451762 3.04309e-23)
(1.08258 0.000690457 -1.28535e-22)
(1.08134 0.000980762 -1.31762e-22)
(1.08019 0.000532006 1.39564e-21)
(0.812794 0.179945 1.35767e-23)
(0.828817 0.167205 2.7868e-22)
(0.849281 0.145696 -3.52653e-22)
(0.868149 0.12004 2.52103e-35)
(0.886124 0.0900808 7.19856e-21)
(0.904857 0.0597794 -2.16452e-22)
(0.928472 0.0340626 3.90694e-21)
(0.954888 0.0140891 -2.05538e-22)
(0.979184 -0.00321156 2.18611e-21)
(1.00014 -0.0171088 -9.42727e-23)
(1.01891 -0.0267644 0)
(1.03588 -0.0319826 -3.2957e-22)
(1.05075 -0.0333359 -4.87008e-35)
(1.06312 -0.0316351 2.23227e-22)
(1.07276 -0.0277973 -2.23974e-22)
(1.07969 -0.0227344 5.14155e-22)
(1.08412 -0.017249 1.571e-23)
(1.08644 -0.011972 -8.74234e-23)
(1.08714 -0.00733689 -5.05574e-23)
(1.08667 -0.00359766 7.7736e-23)
(1.08547 -0.000856916 3.35667e-23)
(1.08389 0.000873315 -1.41731e-21)
(1.08219 0.00166418 1.21102e-21)
(1.08055 0.00156314 1.37535e-21)
(1.07907 0.00071876 1.55895e-22)
(0.796148 0.183599 2.58382e-21)
(0.805746 0.173341 -5.34948e-21)
(0.823444 0.153081 7.8592e-21)
(0.841817 0.128127 -4.23291e-21)
(0.860587 0.0985314 -1.59917e-21)
(0.87886 0.0663404 -3.16762e-22)
(0.900615 0.0367079 4.69985e-22)
(0.927779 0.0130584 -2.23689e-21)
(0.956178 -0.00496899 -8.03463e-22)
(0.981529 -0.0205098 1.40103e-21)
(1.00404 -0.031973 6.44714e-36)
(1.02442 -0.0387567 -1.89093e-21)
(1.04256 -0.0410253 -9.26233e-22)
(1.05796 -0.0395253 2.79591e-21)
(1.07022 -0.0352428 5.81335e-23)
(1.07923 -0.029249 -1.72022e-24)
(1.08516 -0.0225447 -6.57767e-22)
(1.08841 -0.0159509 -3.91608e-22)
(1.08953 -0.0100509 -7.00771e-23)
(1.08912 -0.00519121 1.04818e-22)
(1.0877 -0.00152294 -4.69237e-23)
(1.08573 0.000951058 -1.16767e-21)
(1.08355 0.00230229 3.47671e-22)
(1.08138 0.00266474 8.21059e-22)
(1.07939 0.0021362 8.98684e-23)
(1.0776 0.000893361 -1.31781e-28)
(0.785781 0.186369 3.28698e-22)
(0.789589 0.178437 -2.66344e-21)
(0.800405 0.159977 5.54672e-23)
(0.816423 0.135673 1.07081e-25)
(0.834853 0.106323 1.61e-21)
(0.853432 0.0735755 3.1367e-21)
(0.873523 0.0403119 -3.75591e-21)
(0.899136 0.0129341 -2.22208e-21)
(0.929552 -0.0084396 -1.31968e-21)
(0.959464 -0.0246399 -2.2455e-22)
(0.986099 -0.0379194 8.18811e-36)
(1.01029 -0.0464901 5.19201e-22)
(1.03212 -0.0500251 -3.55794e-22)
(1.05109 -0.0489993 1.69232e-22)
(1.06657 -0.0443924 3.11228e-22)
(1.07825 -0.0374168 -2.00136e-22)
(1.08615 -0.029301 -1.59495e-22)
(1.09067 -0.0211125 2.67636e-22)
(1.09245 -0.0136419 -1.49881e-36)
(1.09219 -0.00737697 4.10051e-24)
(1.09058 -0.00253728 -4.72365e-22)
(1.0882 0.000855011 -1.10798e-21)
(1.08548 0.00290658 -9.70433e-27)
(1.08275 0.00377311 1.66835e-21)
(1.08018 0.00364772 -2.27614e-21)
(1.07787 0.00267471 1.05742e-22)
(1.07582 0.0010478 -1.6717e-22)
(0.778276 0.189116 1.12771e-22)
(0.779358 0.182711 6.90984e-21)
(0.783876 0.166289 9.29862e-21)
(0.7932 0.143053 -4.21343e-21)
(0.809504 0.113943 -4.51361e-21)
(0.827947 0.0807076 4.65093e-22)
(0.847437 0.0455994 -2.87514e-21)
(0.870767 0.0129716 -1.95971e-21)
(0.90063 -0.011204 0)
(0.933685 -0.0301963 -1.50909e-21)
(0.964828 -0.0446366 4.17737e-39)
(0.993083 -0.0551618 1.13985e-21)
(1.01898 -0.0603444 6.85868e-26)
(1.04203 -0.0601885 -4.03833e-22)
(1.06139 -0.0555024 9.74079e-22)
(1.07642 -0.0475782 -2.28215e-21)
(1.08693 -0.0378831 -3.31791e-22)
(1.09321 -0.027791 9.46615e-22)
(1.09594 -0.01838 1.33326e-22)
(1.09599 -0.0103472 -8.31672e-22)
(1.09423 -0.00402704 -5.06336e-22)
(1.0914 0.000526873 -1.99739e-22)
(1.08808 0.00343789 1.35698e-26)
(1.08469 0.00492322 1.49623e-21)
(1.08148 0.00521929 3.44434e-22)
(1.07858 0.00456926 8.78291e-35)
(1.07602 0.00315448 -2.1789e-22)
(1.07377 0.00117528 0)
(0.773778 0.192065 9.04893e-22)
(0.771585 0.187263 7.07695e-21)
(0.773103 0.171852 -5.09406e-21)
(0.776018 0.150355 1.56713e-20)
(0.785676 0.121513 2.13152e-20)
(0.802449 0.0881216 8.26899e-22)
(0.821695 0.0514004 8.45486e-22)
(0.843304 0.0154693 -1.33976e-21)
(0.871148 -0.0147425 -4.87169e-22)
(0.90511 -0.0358461 -1.61793e-21)
(0.939904 -0.0523173 0)
(0.972527 -0.0646785 -2.79942e-21)
(1.00268 -0.0718873 9.51486e-22)
(1.0302 -0.0731036 -5.2581e-22)
(1.05408 -0.0687508 5.65062e-22)
(1.07329 -0.0600593 -3.2652e-22)
(1.08721 -0.0486972 2.0768e-21)
(1.09592 -0.0363947 1.42818e-21)
(1.10007 -0.0246125 1.84008e-22)
(1.10066 -0.0143582 3.09498e-22)
(1.0988 -0.00615463 6.56729e-22)
(1.09548 -0.000124333 -5.33173e-22)
(1.09147 0.00387241 -9.56533e-22)
(1.08731 0.00610895 1.52449e-21)
(1.08335 0.00690783 1.7056e-22)
(1.07977 0.00657513 -2.74939e-22)
(1.07662 0.0053874 9.57456e-22)
(1.0739 0.00355419 1.52584e-22)
(1.07151 0.00127075 -1.59455e-21)
(0.771942 0.19516 -6.35125e-22)
(0.766349 0.192327 -2.61171e-21)
(0.764573 0.177881 -1.3107e-20)
(0.764491 0.157027 1.20866e-20)
(0.767492 0.129449 4.98294e-21)
(0.777881 0.0953724 4.60222e-21)
(0.79584 0.0581604 2.9893e-21)
(0.816668 0.0190036 -7.2713e-21)
(0.841921 -0.0157552 -5.59378e-21)
(0.874748 -0.0422753 -3.39169e-21)
(0.911803 -0.0607741 -1.11751e-37)
(0.948378 -0.0749675 5.66845e-21)
(0.982848 -0.084423 -8.03891e-22)
(1.01503 -0.0875839 8.49938e-22)
(1.04394 -0.0841472 -8.15244e-21)
(1.06813 -0.0750739 -7.54662e-22)
(1.08645 -0.0621202 -3.86171e-22)
(1.09851 -0.0473722 3.88844e-22)
(1.10477 -0.0327652 -1.9572e-22)
(1.10632 -0.0197459 1.45903e-21)
(1.1045 -0.00914181 1.78679e-24)
(1.10065 -0.00121651 -2.27676e-21)
(1.09581 0.0041641 5.82309e-22)
(1.09073 0.00734412 1.65821e-21)
(1.08587 0.00874148 1.77864e-22)
(1.08148 0.00876811 1.94244e-27)
(1.07765 0.00777785 -6.27714e-23)
(1.07437 0.00606553 -7.97119e-22)
(1.07156 0.00385693 -1.68562e-21)
(1.0691 0.00133059 -8.14179e-26)
(0.772998 0.1986 -3.61921e-21)
(0.763771 0.197993 -4.39893e-21)
(0.758456 0.18461 3.11658e-23)
(0.754999 0.16429 -1.24407e-20)
(0.754938 0.136865 -1.63528e-20)
(0.758609 0.103425 -4.2052e-21)
(0.770518 0.0644942 1.26802e-22)
(0.790171 0.0244081 3.77356e-22)
(0.813741 -0.0154176 -1.01169e-20)
(0.843897 -0.0470448 -4.94117e-21)
(0.881267 -0.0696701 -7.37768e-35)
(0.920821 -0.085903 1.31532e-21)
(0.959269 -0.0976699 2.20087e-22)
(0.996008 -0.103274 5.02125e-21)
(1.03017 -0.101467 1.65293e-21)
(1.06002 -0.0926143 4.90044e-21)
(1.08376 -0.0783676 1.02284e-21)
(1.10033 -0.0611069 -8.95404e-22)
(1.10973 -0.0432853 -2.32413e-35)
(1.11293 -0.0269158 1.55937e-21)
(1.11151 -0.0132842 6.69614e-23)
(1.10715 -0.00291623 -5.42639e-23)
(1.10134 0.00425183 -1.07558e-21)
(1.09513 0.00863311 2.74129e-21)
(1.08916 0.0107719 -6.85028e-22)
(1.08379 0.0112094 -2.75131e-27)
(1.07913 0.0104159 -1.94069e-22)
(1.07519 0.00877272 9.77849e-23)
(1.07187 0.00657495 5.80379e-22)
(1.06907 0.00405087 -1.19155e-22)
(1.06661 0.00135291 1.50666e-21)
(0.776857 0.202421 7.2102e-22)
(0.763946 0.2043 1.77863e-21)
(0.754941 0.192044 5.68026e-21)
(0.747823 0.172419 8.55012e-21)
(0.744249 0.144884 -2.18731e-20)
(0.744963 0.111093 -4.98313e-21)
(0.750229 0.0721092 9.13246e-21)
(0.764138 0.0291524 1.4369e-20)
(0.78619 -0.0123373 -1.63267e-21)
(0.813784 -0.0504504 4.63639e-22)
(0.849305 -0.0778098 -1.14961e-35)
(0.890297 -0.0971817 -7.13983e-21)
(0.932035 -0.111262 -3.58468e-21)
(0.972852 -0.11969 -1.06255e-20)
(1.0121 -0.120247 -5.38466e-21)
(1.04793 -0.112395 -8.59017e-22)
(1.07797 -0.0973917 4.98841e-21)
(1.10028 -0.0777621 7.64539e-22)
(1.11415 -0.0564947 3.68457e-22)
(1.12013 -0.0362531 -3.08015e-22)
(1.11981 -0.0189213 -3.13889e-22)
(1.11522 -0.00544808 5.54196e-23)
(1.10835 0.00404234 2.02746e-21)
(1.10075 0.00997942 -1.01535e-21)
(1.0934 0.0130554 2.30234e-22)
(1.08679 0.0139859 8.14032e-23)
(1.08111 0.0133924 -2.08383e-22)
(1.07637 0.0117747 0)
(1.07245 0.00951705 -1.81891e-21)
(1.06921 0.00689577 -7.46709e-22)
(1.06649 0.00412974 1.57702e-21)
(1.06411 0.00133764 -1.4283e-21)
(0.783381 0.206572 -6.31969e-22)
(0.766959 0.211206 -8.86596e-21)
(0.754268 0.200173 -3.5115e-21)
(0.743274 0.181342 8.7856e-21)
(0.735838 0.153834 2.49609e-20)
(0.733027 0.119242 2.11799e-20)
(0.735552 0.0794991 7.48148e-21)
(0.743035 0.0357856 1.40862e-21)
(0.759339 -0.00988813 1.56703e-20)
(0.784706 -0.0507374 -2.38455e-22)
(0.817342 -0.0849424 -7.7654e-21)
(0.857716 -0.108064 -4.24252e-21)
(0.901503 -0.124922 -6.80311e-22)
(0.945645 -0.136243 3.84204e-22)
(0.989324 -0.139842 -1.39373e-21)
(1.03099 -0.133882 -1.84025e-21)
(1.0678 -0.118874 -4.44822e-21)
(1.09695 -0.09724 -1.14986e-20)
(1.11671 -0.0724488 -4.12e-21)
(1.12691 -0.0479393 -4.35652e-21)
(1.12889 -0.0263083 -1.22922e-21)
(1.12479 -0.00903899 2.80633e-22)
(1.11707 0.00340973 3.4436e-21)
(1.10791 0.0113757 -5.60045e-22)
(1.09883 0.0156623 1.87453e-21)
(1.09066 0.0172026 1.13354e-22)
(1.0837 0.0168239 -8.50612e-22)
(1.07795 0.0151865 0)
(1.07328 0.0127852 -1.94176e-21)
(1.06953 0.00998162 -1.64572e-22)
(1.06647 0.00701779 9.26099e-22)
(1.06391 0.00409302 -1.46485e-21)
(1.06166 0.00128645 -6.27829e-25)
(0.792488 0.210894 -1.12931e-20)
(0.772905 0.218486 -7.92103e-21)
(0.756688 0.208849 -2.58111e-21)
(0.741731 0.190975 2.92018e-21)
(0.730148 0.16357 2.6672e-20)
(0.723358 0.128292 1.68399e-21)
(0.722417 0.0870998 -1.16142e-20)
(0.727542 0.0424428 -2.82476e-21)
(0.737625 -0.00478962 -1.84185e-21)
(0.756757 -0.0512333 1.12562e-20)
(0.786424 -0.0891334 1.99501e-25)
(0.824334 -0.118346 6.17365e-22)
(0.868496 -0.138087 5.143e-21)
(0.914788 -0.152466 1.35946e-20)
(0.961897 -0.159496 1.26172e-21)
(1.00864 -0.156345 2.72898e-21)
(1.05218 -0.142282 9.2039e-21)
(1.08887 -0.119265 2.42343e-21)
(1.11582 -0.0910349 2.91729e-25)
(1.13178 -0.0618937 -6.69999e-22)
(1.13752 -0.0354214 5.84061e-22)
(1.13516 -0.0137552 -2.16533e-23)
(1.12736 0.00227715 -5.2841e-21)
(1.11681 0.0128133 5.17736e-21)
(1.10575 0.0186757 -2.29396e-21)
(1.09562 0.0209932 4.14784e-36)
(1.08701 0.0208573 2.15268e-22)
(1.07999 0.0191466 1.47844e-22)
(1.0744 0.0165118 -2.13471e-21)
(1.06999 0.0134075 2.21316e-28)
(1.06652 0.0101519 1.76702e-21)
(1.06372 0.00694083 5.20939e-22)
(1.06139 0.00394557 1.05022e-22)
(1.05933 0.00120259 1.21976e-21)
(0.804054 0.215234 6.81519e-21)
(0.781889 0.225813 1.68486e-22)
(0.762439 0.217794 -1.27461e-20)
(0.743598 0.201095 -2.54209e-21)
(0.727715 0.173978 1.59113e-21)
(0.716529 0.13804 -2.71042e-20)
(0.711542 0.0954804 -2.43879e-21)
(0.713412 0.0488929 2.18686e-20)
(0.721588 0.000804172 1.04972e-20)
(0.734482 -0.0482455 -4.56957e-21)
(0.757036 -0.0930936 1.5124e-20)
(0.791632 -0.126213 9.61941e-21)
(0.834103 -0.150725 6.7617e-22)
(0.881149 -0.167789 -3.12686e-21)
(0.930293 -0.1785 -2.83946e-20)
(0.980888 -0.17894 -7.00115e-21)
(1.03043 -0.166901 1.97735e-21)
(1.0748 -0.143413 -8.18114e-21)
(1.10993 -0.112154 2.80356e-34)
(1.13316 -0.0780975 1.03545e-20)
(1.1442 -0.0460777 6.42576e-21)
(1.14493 -0.019342 1.98282e-21)
(1.13826 0.000804001 -2.7934e-22)
(1.12715 0.0143841 4.69103e-21)
(1.11432 0.02221 3.51134e-21)
(1.10193 0.025527 -2.21185e-22)
(1.09124 0.0256797 2.4139e-21)
(1.08259 0.0238334 -1.59206e-21)
(1.07582 0.0208482 -2.5014e-21)
(1.0706 0.0173157 2.25481e-28)
(1.0666 0.0136228 1.8544e-21)
(1.06351 0.0100285 -1.73977e-21)
(1.06105 0.00667408 2.66092e-35)
(1.05901 0.00369708 1.35921e-21)
(1.05719 0.00109058 0)
(0.822 0.22019 4.43987e-22)
(0.793961 0.232957 2.1143e-20)
(0.771733 0.2266 1.77029e-20)
(0.749268 0.211368 -3.03505e-21)
(0.729084 0.184784 -1.74645e-20)
(0.713223 0.148372 1.37556e-20)
(0.703623 0.104377 1.18562e-20)
(0.701506 0.0559265 2.92305e-20)
(0.706769 0.00568988 4.86122e-20)
(0.718085 -0.0440254 -3.93484e-20)
(0.734027 -0.0927414 -2.16461e-20)
(0.760574 -0.1337 -1.51997e-21)
(0.799929 -0.161412 1.13183e-21)
(0.845796 -0.182203 3.26725e-21)
(0.895533 -0.196126 3.59099e-21)
(0.948216 -0.200758 1.37463e-20)
(1.00241 -0.191903 4.95188e-21)
(1.05391 -0.169108 -2.18666e-21)
(1.09766 -0.135616 -2.4879e-21)
(1.12954 -0.0968003 -2.23101e-21)
(1.14762 -0.0585277 -5.88326e-21)
(1.15285 -0.0256291 -4.3094e-21)
(1.14833 -0.000552964 9.8834e-21)
(1.13773 0.0164687 -4.48606e-23)
(1.12402 0.0265177 -7.32332e-23)
(1.10965 0.031033 -3.11572e-22)
(1.09659 0.0315341 2.10976e-22)
(1.08588 0.0294732 6.96351e-23)
(1.0776 0.0259919 -1.78931e-22)
(1.07135 0.021861 -2.42525e-22)
(1.06669 0.0175751 2.02067e-21)
(1.06322 0.0134337 -1.74968e-21)
(1.0606 0.00962608 -2.50666e-22)
(1.05854 0.00623499 -4.41525e-22)
(1.05682 0.00336123 -5.05479e-23)
(1.05527 0.000955915 -1.02735e-22)
(0.847912 0.224566 -1.91919e-21)
(0.813671 0.240598 -1.57638e-21)
(0.7847 0.234909 -4.05831e-22)
(0.75908 0.221349 2.89225e-20)
(0.73476 0.195632 -2.62305e-20)
(0.714128 0.158983 -1.65224e-20)
(0.699471 0.113722 7.23684e-21)
(0.692644 0.0631916 -4.11756e-21)
(0.694101 0.0109245 -2.59652e-20)
(0.702904 -0.0409018 -7.7703e-21)
(0.717261 -0.0902232 2.70178e-20)
(0.736562 -0.136205 4.23105e-21)
(0.767248 -0.171789 9.1799e-21)
(0.810374 -0.194721 -1.49844e-20)
(0.858828 -0.212174 -2.52032e-20)
(0.911808 -0.220879 -8.77476e-22)
(0.968571 -0.216247 2.62929e-20)
(1.02591 -0.195625 2.04108e-21)
(1.07806 -0.161065 7.71549e-21)
(1.11943 -0.118113 7.79367e-21)
(1.14636 -0.0734765 -1.03081e-20)
(1.15814 -0.0332992 -5.62978e-21)
(1.15689 -0.00176759 -1.897e-20)
(1.14724 0.0196449 -3.20256e-21)
(1.13346 0.0321454 -3.43321e-22)
(1.11809 0.0378927 3.35712e-21)
(1.10303 0.0387436 2.10695e-21)
(1.09001 0.036363 -1.80423e-21)
(1.07981 0.0321912 -4.14595e-21)
(1.07225 0.0272469 -1.38265e-21)
(1.06676 0.0221578 2.2509e-21)
(1.06282 0.0172962 -1.90131e-21)
(1.05998 0.0128622 6.37445e-27)
(1.05788 0.00897139 1.20361e-21)
(1.05624 0.00564781 2.12691e-35)
(1.05487 0.00295455 -1.21111e-23)
(1.05361 0.000804702 -2.20512e-28)
(0.877466 0.22593 -4.28667e-20)
(0.843393 0.246913 -8.80121e-22)
(0.806355 0.243945 -5.53968e-21)
(0.773232 0.230633 8.08453e-24)
(0.745164 0.206076 1.42216e-20)
(0.719851 0.169503 -2.86651e-20)
(0.69995 0.123199 -1.48318e-20)
(0.687708 0.0707171 3.29616e-20)
(0.68452 0.0160438 -6.40142e-20)
(0.68979 -0.0377112 2.3043e-20)
(0.701931 -0.0889304 3.41243e-20)
(0.719247 -0.135635 5.18142e-21)
(0.742074 -0.176847 -1.60403e-20)
(0.776254 -0.206857 -7.83514e-22)
(0.821989 -0.225916 1.00043e-20)
(0.873103 -0.238746 2.47833e-21)
(0.930165 -0.238849 -9.53913e-21)
(0.991054 -0.221822 -4.72122e-20)
(1.05053 -0.187916 -1.3309e-20)
(1.10163 -0.141917 2.17578e-21)
(1.13874 -0.0912831 1.50024e-21)
(1.15948 -0.0434821 2.02116e-20)
(1.16396 -0.00394539 6.94754e-22)
(1.15584 0.0237504 1.30293e-21)
(1.14166 0.0396888 1.09851e-21)
(1.12571 0.0467336 8.15998e-35)
(1.1097 0.0477698 -7.55047e-22)
(1.09485 0.0448893 1.60014e-22)
(1.08254 0.0397727 -2.84472e-22)
(1.07332 0.0337258 2.63674e-21)
(1.06678 0.0275684 -1.50613e-22)
(1.06224 0.0217517 -2.13359e-21)
(1.05911 0.0165119 -7.97197e-27)
(1.05695 0.0119474 1.45684e-21)
(1.0554 0.00810118 1.18687e-22)
(1.05421 0.00494158 3.45929e-22)
(1.0532 0.00249546 1.79948e-23)
(1.05225 0.00064351 7.54046e-23)
(0.909267 0.222985 -5.03052e-22)
(0.878543 0.249384 8.08705e-22)
(0.839286 0.251425 -2.89898e-20)
(0.797373 0.240875 -9.48482e-21)
(0.760524 0.215608 -5.53599e-22)
(0.730857 0.179496 -1.65995e-20)
(0.705753 0.132427 -2.29011e-20)
(0.687808 0.0781469 -3.59367e-20)
(0.678871 0.0211597 -2.03797e-20)
(0.679761 -0.0349662 -1.52138e-20)
(0.688691 -0.0878668 -1.97827e-20)
(0.703749 -0.136195 -6.58292e-21)
(0.723989 -0.178192 -1.00113e-20)
(0.749967 -0.213623 -2.49044e-22)
(0.786404 -0.238739 1.85075e-20)
(0.834257 -0.253673 3.66502e-20)
(0.888839 -0.258736 2.87988e-20)
(0.950581 -0.246527 6.1035e-21)
(1.01501 -0.214917 1.55047e-21)
(1.07507 -0.167707 -2.10594e-21)
(1.12327 -0.112059 -3.53056e-35)
(1.15463 -0.0566019 -1.01733e-20)
(1.16781 -0.00867254 -8.42403e-21)
(1.16443 0.0274433 -2.82099e-21)
(1.14977 0.0488262 7.29444e-21)
(1.132 0.0581098 -6.31305e-21)
(1.11501 0.0592382 7.47086e-21)
(1.0994 0.0555414 -1.52218e-21)
(1.08555 0.0491523 -4.20828e-21)
(1.07455 0.0416284 1.09017e-22)
(1.0667 0.0340467 -9.01401e-22)
(1.06142 0.0269809 -5.17065e-22)
(1.05794 0.0206907 4.90775e-22)
(1.05569 0.0152772 1.5629e-21)
(1.05423 0.0107415 0)
(1.05324 0.00705893 -3.2819e-22)
(1.05249 0.0041484 -7.94224e-22)
(1.05184 0.00200365 1.72784e-23)
(1.05119 0.000478939 6.22694e-23)
(0.941599 0.215945 -6.60865e-22)
(0.916499 0.247393 -1.83104e-21)
(0.877724 0.253344 3.39683e-20)
(0.83438 0.249675 -1.1029e-25)
(0.787024 0.226445 -1.10545e-20)
(0.747415 0.188289 -1.47669e-20)
(0.717344 0.141034 1.80533e-20)
(0.693695 0.0851847 -4.88648e-20)
(0.678653 0.0257011 6.83829e-21)
(0.673972 -0.0325037 -1.03023e-20)
(0.678549 -0.0874661 -2.5225e-22)
(0.690558 -0.137113 -8.04494e-21)
(0.708112 -0.180507 -2.69597e-21)
(0.731038 -0.216438 -1.4112e-20)
(0.759121 -0.246177 -2.86021e-21)
(0.796751 -0.266646 -7.09418e-21)
(0.84721 -0.275157 -4.77518e-20)
(0.906256 -0.268355 -3.85809e-20)
(0.972669 -0.240905 1.78368e-21)
(1.03937 -0.194103 5.02658e-20)
(1.09815 -0.13524 -2.3467e-21)
(1.14168 -0.0729629 -1.76684e-20)
(1.16609 -0.0164052 -2.32091e-20)
(1.17039 0.028805 1.63405e-20)
(1.15938 0.0580889 -4.29958e-22)
(1.13909 0.0716632 1.12347e-21)
(1.11888 0.0736606 -1.54343e-22)
(1.1021 0.0688737 6.84665e-35)
(1.08785 0.0608011 -5.31344e-21)
(1.07568 0.0513671 7.883e-22)
(1.06645 0.0419043 3.31559e-21)
(1.06025 0.0331977 -3.50436e-21)
(1.05635 0.0255551 2.37813e-22)
(1.054 0.0190522 1.63482e-21)
(1.05264 0.0136645 0)
(1.05188 0.00930573 -1.13936e-22)
(1.05143 0.00589235 -4.21143e-23)
(1.05111 0.00330232 4.15742e-22)
(1.0508 0.00149894 1.60727e-22)
(1.05044 0.000317129 2.12011e-28)
(0.972979 0.205262 4.8101e-21)
(0.95472 0.240082 -4.57066e-22)
(0.919471 0.252323 4.20037e-21)
(0.877049 0.253178 2.72805e-21)
(0.828066 0.236427 4.25032e-20)
(0.776291 0.198635 9.12868e-21)
(0.7351 0.14812 1.85924e-20)
(0.705755 0.0916237 1.55401e-20)
(0.684617 0.0298597 1.87607e-20)
(0.673735 -0.0310871 8.32662e-20)
(0.672944 -0.0876559 -9.27187e-21)
(0.680547 -0.138684 3.83467e-20)
(0.694877 -0.183121 9.54858e-21)
(0.714579 -0.220135 6.05881e-21)
(0.739433 -0.249715 1.10188e-20)
(0.768371 -0.274088 -1.6284e-20)
(0.806954 -0.288337 -1.03227e-20)
(0.861171 -0.286536 1.73626e-20)
(0.925307 -0.264131 5.61866e-21)
(0.995563 -0.220098 -6.68129e-21)
(1.06272 -0.159325 -1.36727e-24)
(1.11823 -0.091885 1.47487e-21)
(1.15554 -0.0270475 2.72609e-20)
(1.1707 0.0267097 -2.40932e-21)
(1.1686 0.0658047 -1.27431e-20)
(1.14903 0.0859852 -1.45662e-25)
(1.12432 0.0908653 4.71719e-21)
(1.10313 0.0853668 4.37912e-21)
(1.08782 0.0751567 -6.60092e-22)
(1.07571 0.0633652 -2.40433e-21)
(1.06574 0.0515224 4.00994e-21)
(1.05862 0.0406758 8.85118e-23)
(1.05422 0.0312834 2.47074e-35)
(1.05176 0.0233992 -2.54177e-21)
(1.05054 0.0169349 -7.2728e-22)
(1.05005 0.0117569 -1.19142e-22)
(1.04995 0.00770626 2.61856e-27)
(1.05 0.00465168 2.1408e-22)
(1.05007 0.00243743 -3.35338e-22)
(1.05007 0.00100015 -1.67676e-22)
(1.04998 0.00016331 -3.80627e-23)
(1.00191 0.191429 -2.03404e-21)
(0.991352 0.227866 -7.44058e-23)
(0.962168 0.244968 3.71594e-21)
(0.923996 0.251977 -1.1629e-34)
(0.876063 0.240919 -4.0825e-20)
(0.821729 0.208288 -1.19849e-20)
(0.766409 0.157086 -2.84244e-22)
(0.724503 0.0962171 -1.26009e-20)
(0.696942 0.033666 -2.52019e-20)
(0.679104 -0.0300599 6.14638e-20)
(0.672863 -0.0886743 -3.60559e-21)
(0.674423 -0.141222 7.6446e-20)
(0.685021 -0.186252 1.79278e-20)
(0.701081 -0.224057 9.87514e-21)
(0.722349 -0.254093 -3.11856e-20)
(0.747959 -0.27769 1.385e-20)
(0.776981 -0.295771 1.05596e-20)
(0.817158 -0.300274 6.38291e-21)
(0.876456 -0.284036 7.51472e-21)
(0.945453 -0.243612 1.89066e-20)
(1.01794 -0.183663 -1.34063e-20)
(1.08343 -0.111824 2.47585e-20)
(1.13363 -0.0399375 3.57929e-20)