/*--------------------------------*- C++ -*----------------------------------*\
| =========                 |                                                 |
| \\      /  F ield         | OpenFOAM: The Open Source CFD Toolbox           |
|  \\    /   O peration     | Version:  2506                                  |
|   \\  /    A nd           | Website:  www.openfoam.com                      |
|    \\/     M anipulation  |                                                 |
\*---------------------------------------------------------------------------*/
FoamFile
{
    version     2.0;
    format      ascii;
    arch        "LSB;label=32;scalar=64";
    class       volVectorField;
    location    "30.0155191";
    object      vorticity;
}
// * * * * * * * * * * * * * * * * * * * * * * * * * * * * * * * * * * * * * //

dimensions      [0 0 -1 0 0 0 0];

internalField   nonuniform List<vector> 
9700
(
(4.40511e-21 1.94609e-21 0.000143777)
(7.27744e-21 -1.5864e-21 0.000586471)
(6.72116e-24 -1.06447e-21 -7.94327e-05)
(-1.13557e-21 -4.11625e-21 0.000786024)
(-5.50918e-21 -2.25063e-22 -0.000318874)
(4.76333e-21 -5.78679e-21 8.48225e-05)
(-1.01196e-20 3.02935e-21 0.00102754)
(-2.65413e-23 -3.26583e-21 -0.000657581)
(1.05867e-20 -6.19464e-21 8.29185e-05)
(1.18476e-22 9.93419e-22 9.1569e-05)
(-7.82297e-21 7.97651e-21 0.00126206)
(7.55162e-21 -6.87714e-22 -0.0010491)
(4.67487e-21 -5.16071e-20 -1.09013e-05)
(-3.76948e-20 -3.71026e-21 7.26835e-05)
(3.29253e-21 5.18974e-21 0.000144609)
(1.29659e-20 3.09719e-21 0.00145941)
(1.56095e-23 -1.31604e-21 -0.00141343)
(-1.15468e-20 -9.12448e-21 -8.42038e-05)
(-6.16769e-22 7.66573e-21 -3.1341e-05)
(1.41832e-21 6.79713e-21 0.000148175)
(2.40777e-23 -8.90059e-22 0.000183968)
(1.34419e-19 -3.37806e-20 0.00141184)
(-5.88281e-22 -1.36157e-21 -0.00181422)
(-7.42328e-21 -1.173e-20 -0.000179729)
(4.98958e-20 1.78618e-20 -0.000175536)
(-1.92531e-20 4.36278e-20 8.34866e-05)
(-3.49513e-21 -2.24873e-21 0.000235883)
(2.54112e-21 -5.55797e-21 0.000223862)
(-1.34753e-20 1.52877e-20 0.00087755)
(1.48535e-19 9.48337e-21 -0.00223489)
(1.28948e-20 -1.01762e-20 -0.000304199)
(4.39062e-22 1.09219e-21 -0.000302808)
(-8.6063e-21 2.24142e-21 -1.25301e-05)
(-1.18181e-22 -3.63087e-21 0.000177777)
(4.97512e-21 -4.49196e-21 0.000312484)
(7.46747e-21 -8.67773e-21 0.000316851)
(-1.87414e-19 2.22591e-20 0.000412714)
(-2.11279e-20 -6.72348e-20 -0.0026888)
(1.13648e-19 9.594e-21 -0.000417946)
(1.56102e-36 1.25625e-21 -0.000451658)
(-1.29106e-20 3.60353e-21 -0.000104862)
(4.53696e-21 3.1929e-21 8.89072e-05)
(1.78195e-22 -5.1868e-22 0.000256777)
(2.22479e-20 -9.7484e-21 0.000368096)
(-2.96933e-22 5.96343e-21 0.000329188)
(-5.03717e-21 -1.13523e-20 -0.000340303)
(-2.60071e-19 -2.91984e-20 -0.00325398)
(3.91411e-20 -2.20383e-19 -0.00052615)
(-4.63002e-22 1.75571e-21 -0.000577235)
(-2.99693e-22 1.69654e-20 -0.00019263)
(8.16115e-23 -9.99043e-22 -1.51303e-05)
(2.66347e-21 -1.3799e-20 0.000159001)
(5.78867e-21 -1.1895e-21 0.000300651)
(-6.43376e-21 2.04622e-20 0.000403134)
(-8.92169e-21 -1.72169e-20 0.000321897)
(-8.70363e-21 3.83939e-21 -0.00170374)
(2.8348e-20 1.33252e-20 -0.00415372)
(-1.67476e-19 2.58354e-20 -0.000695181)
(3.9343e-20 3.76181e-20 -0.000740293)
(6.3494e-20 7.97143e-20 -0.00031288)
(-1.8649e-21 -9.7602e-22 -7.56526e-05)
(4.48077e-21 -1.46417e-20 0.000116155)
(6.62286e-20 -1.4556e-20 0.000244239)
(-4.79654e-21 -2.38819e-22 0.000367383)
(-2.22663e-20 -1.80827e-20 0.000438137)
(1.53122e-35 -2.50762e-21 0.00032096)
(4.31567e-20 6.98529e-22 -0.00209569)
(3.62846e-20 5.85964e-21 -0.00575111)
(-8.39137e-20 2.61153e-19 -0.000878752)
(1.66752e-19 9.18647e-20 -0.000980412)
(-1.54866e-19 1.63288e-19 -0.000416183)
(8.33166e-20 1.06056e-19 -0.000120918)
(1.40921e-20 3.92356e-22 7.53796e-05)
(7.84536e-20 -1.55169e-20 0.000209443)
(-1.75183e-21 -3.96113e-20 0.000309043)
(2.37872e-22 -4.70386e-22 0.00041094)
(5.71183e-35 -2.60862e-21 0.000494146)
(-4.89504e-21 -4.79725e-21 0.000306482)
(1.66342e-20 6.74196e-20 -0.00571134)
(2.78776e-19 7.91011e-20 -0.00886149)
(1.16678e-20 -4.60248e-20 -0.00135317)
(-5.95059e-20 -5.32205e-20 -0.00125942)
(-4.425e-20 -1.48889e-19 -0.000552985)
(-5.37513e-21 -2.61817e-20 -0.000233549)
(6.01701e-20 7.66896e-20 1.5035e-05)
(1.05619e-19 -2.01741e-20 0.000173661)
(-4.80122e-22 6.07558e-21 0.000272984)
(-5.66511e-20 -3.04975e-20 0.000371573)
(-1.42298e-34 4.03227e-25 0.000413169)
(-7.43836e-21 -3.92689e-21 0.000505203)
(1.5685e-23 -5.18226e-22 0.000279755)
(-6.39019e-20 -3.8255e-20 -0.0312464)
(2.23412e-21 -2.2823e-20 -0.0159891)
(7.73399e-20 -3.24372e-20 -0.00303983)
(-2.53733e-19 -1.66106e-19 -0.00176462)
(1.84115e-19 -2.06183e-19 -0.000794487)
(-1.42103e-19 -2.01723e-19 -0.000360896)
(2.07557e-19 -1.12271e-19 -4.60392e-05)
(1.55178e-19 -2.76757e-20 0.000165812)
(-2.08215e-21 6.30438e-21 0.000271517)
(-7.66534e-20 -3.64092e-20 0.000323894)
(7.17036e-35 -2.5219e-21 0.000386068)
(1.53477e-22 -3.96509e-24 0.000424231)
(5.32429e-21 -1.19887e-21 0.000525436)
(-5.5021e-21 6.56119e-21 0.000228812)
(-6.18384e-19 -5.4555e-19 -0.0585473)
(-3.91358e-19 -2.86823e-19 -0.0309726)
(3.62784e-19 -8.2658e-19 -0.00814987)
(-2.79345e-19 -1.97382e-19 -0.0030481)
(-4.30291e-20 2.65857e-20 -0.00115863)
(1.24522e-20 3.35323e-20 -0.000520243)
(1.48818e-19 -2.10743e-19 -0.000121135)
(1.21143e-19 -1.66395e-19 0.00011482)
(-2.46074e-20 1.21864e-19 0.000260929)
(-1.10749e-19 -2.47367e-20 0.000335747)
(-2.96134e-35 -2.46775e-21 0.000387739)
(1.97169e-21 -1.18151e-20 0.000408982)
(-8.85455e-23 -1.63634e-21 0.000431572)
(-5.53777e-21 6.96188e-21 0.000518159)
(2.93304e-22 9.73604e-21 0.00015895)
(6.74264e-20 3.50162e-19 -0.0850741)
(-1.63342e-19 -1.89247e-19 -0.0529398)
(-3.80689e-20 -1.12458e-19 -0.0195476)
(-6.36365e-21 3.14957e-20 -0.00662701)
(-1.66933e-20 7.69475e-20 -0.00198763)
(1.7188e-20 2.83795e-20 -0.000821203)
(-2.62413e-19 1.10491e-19 -0.000248692)
(3.11574e-19 1.37583e-19 5.72143e-05)
(-1.53334e-19 -4.13834e-20 0.000270886)
(-1.65317e-19 5.06559e-20 0.000361248)
(-7.75439e-36 -2.44708e-21 0.000391016)
(-7.22104e-22 -1.37189e-20 0.000427836)
(-6.98317e-21 2.47882e-21 0.000409425)
(1.28441e-20 6.01798e-20 0.000429615)
(4.80007e-20 2.06328e-20 0.000497242)
(-1.33203e-22 5.61607e-22 9.3406e-05)
(7.07147e-19 1.06375e-18 -0.101201)
(5.90319e-21 -3.04694e-20 -0.073427)
(-4.92607e-19 -7.55343e-19 -0.0378308)
(3.8056e-19 4.22143e-19 -0.0150926)
(-6.71782e-19 6.4732e-19 -0.00432938)
(1.46582e-19 2.28437e-19 -0.00139666)
(3.87493e-20 -3.37113e-20 -0.000495306)
(9.17153e-20 2.24298e-19 -4.3509e-05)
(-2.29549e-19 -8.75516e-21 0.000221628)
(9.8661e-21 -2.0746e-20 0.000363288)
(1.92085e-21 -2.6076e-21 0.000444068)
(-1.93798e-20 -2.19901e-21 0.000449675)
(6.52474e-23 -3.79808e-22 0.000440423)
(1.17565e-20 7.16379e-21 0.000411515)
(3.5901e-22 1.46972e-20 0.000418279)
(-9.51833e-21 -8.03892e-21 0.000432071)
(-5.05877e-21 -9.51695e-21 4.1128e-05)
(-1.4373e-19 1.29589e-19 -0.107839)
(6.45587e-19 1.13758e-18 -0.0825889)
(-9.93154e-21 2.0925e-19 -0.0567781)
(3.53331e-21 1.11599e-21 -0.0296595)
(-8.56592e-20 -1.77459e-20 -0.0101339)
(6.55301e-21 -1.71542e-20 -0.00286806)
(6.78636e-20 1.4853e-20 -0.000884864)
(3.12306e-19 -3.59421e-19 -0.000212042)
(2.43979e-19 7.09236e-20 0.0001233)
(-2.76813e-20 -1.46347e-19 0.000358587)
(7.29815e-20 -1.32863e-19 0.000461996)
(-8.79237e-20 6.51011e-20 0.000472511)
(-1.31881e-21 -4.08168e-22 0.000486992)
(1.33041e-20 8.78601e-21 0.000455956)
(-6.07835e-20 2.65225e-20 0.000400835)
(5.84751e-21 -7.69477e-20 0.000379446)
(-4.81579e-21 -1.19618e-20 0.000390011)
(-7.44037e-22 7.37204e-21 -3.73196e-05)
(2.16043e-19 -5.61976e-19 -0.113495)
(-1.08533e-18 -1.99428e-18 -0.0800602)
(6.37767e-19 1.08071e-18 -0.0664151)
(2.46468e-32 -3.61554e-21 -0.0462828)
(-4.51005e-19 -6.60663e-19 -0.0209955)
(-1.98712e-19 -3.91362e-19 -0.00660086)
(4.26805e-19 -1.6538e-19 -0.00178406)
(4.92502e-19 -8.60489e-20 -0.000482841)
(1.94726e-21 -2.9685e-19 2.10456e-05)
(-2.82762e-19 -6.49926e-20 0.000288218)
(-9.29591e-20 1.69009e-19 0.000440651)
(-1.73701e-19 -1.74286e-19 0.0005043)
(-1.25561e-19 8.03984e-20 0.000517338)
(-7.41828e-21 1.79482e-20 0.000514767)
(2.0043e-21 1.65937e-20 0.000469264)
(1.37104e-20 -8.54861e-21 0.000418435)
(-1.45807e-20 5.93489e-20 0.000348042)
(3.4094e-20 2.88303e-20 0.00032363)
(1.07261e-23 5.68409e-22 -0.000104225)
(-5.85446e-19 -1.27902e-18 -0.121903)
(-6.69442e-19 -1.20879e-18 -0.0756717)
(4.92986e-19 -6.89796e-19 -0.0634419)
(-3.68525e-33 4.91402e-21 -0.0559052)
(1.4611e-19 4.56999e-20 -0.0350407)
(-8.39807e-20 -1.99446e-19 -0.0141732)
(5.43259e-20 -9.35243e-20 -0.00400551)
(8.32331e-20 -1.05129e-20 -0.0010446)
(-6.40862e-20 3.74535e-19 -0.000173396)
(-3.62114e-19 -9.44322e-20 0.000201067)
(-1.05049e-19 2.21716e-19 0.000398359)
(-9.98213e-20 -2.69852e-19 0.000520012)
(1.9025e-20 -1.29848e-20 0.000559338)
(-1.00097e-19 5.61305e-20 0.000546093)
(3.07257e-21 2.02731e-20 0.000512384)
(1.39564e-22 3.98032e-22 0.000463014)
(1.29955e-20 -1.006e-20 0.000396431)
(-4.19968e-21 1.09591e-20 0.000293034)
(-5.23854e-21 -2.19324e-21 0.000258957)
(1.15757e-21 -3.47579e-21 -0.000190219)
(-3.95751e-19 7.091e-19 -0.129202)
(1.85916e-18 3.9389e-18 -0.0758583)
(-1.25358e-18 1.00073e-18 -0.0551864)
(-4.66898e-33 2.44184e-20 -0.0526043)
(2.39593e-19 1.22017e-18 -0.0451001)
(-6.15936e-21 2.5597e-21 -0.0253938)
(-1.0892e-19 -7.4473e-19 -0.00888223)
(7.59076e-19 -1.30342e-19 -0.00232497)
(-5.62399e-20 -3.7e-22 -0.000538758)
(-4.63266e-19 -6.03757e-20 5.77663e-05)
(1.3074e-19 -2.76788e-19 0.000321556)
(2.38599e-19 1.82178e-19 0.000497998)
(2.10067e-19 -1.60576e-19 0.000564084)
(1.30182e-19 2.34083e-19 0.000569638)
(8.05409e-21 4.42527e-20 0.000568203)
(-8.70605e-23 2.89765e-22 0.000521899)
(1.52254e-20 -1.28475e-20 0.000456387)
(-6.58492e-20 -1.19265e-20 0.000369386)
(-5.74141e-23 5.35847e-22 0.000256889)
(2.56772e-20 1.48647e-20 0.000152493)
(-3.28438e-22 -4.17532e-21 -0.000294498)
(4.94362e-19 1.45629e-18 -0.130786)
(1.69336e-19 2.77916e-19 -0.0779768)
(-5.95406e-19 -1.02899e-18 -0.0500669)
(-7.3963e-34 -4.66238e-20 -0.0407746)
(-8.56158e-19 1.92735e-19 -0.0435682)
(2.50078e-19 1.14741e-18 -0.0355303)
(-1.26553e-19 1.42498e-19 -0.0171211)
(8.14794e-19 -1.09605e-19 -0.00520435)
(-7.23974e-20 -5.67128e-19 -0.00126538)
(-1.74945e-20 -4.22778e-21 -0.000216075)
(-3.15266e-21 -1.41501e-21 0.000208111)
(-3.0466e-20 -3.17867e-20 0.000438626)
(-2.59512e-20 1.87424e-20 0.000541255)
(1.02151e-19 -1.31759e-19 0.000603669)
(-1.44101e-20 1.89767e-19 0.00061814)
(-2.13683e-20 -2.20042e-20 0.000589499)
(-7.27884e-21 -2.51202e-20 0.000532732)
(-8.54729e-21 1.46452e-20 0.000457056)
(7.87921e-21 8.33676e-21 0.00035372)
(7.91138e-21 -4.05347e-21 0.0002368)
(-1.41953e-21 -8.32804e-21 7.62369e-05)
(-1.70818e-20 -2.42227e-20 -0.000341091)
(-1.12745e-19 -3.90124e-19 -0.125072)
(-6.05788e-19 -1.83723e-18 -0.0770309)
(1.45002e-18 -8.45865e-19 -0.0491481)
(-1.61866e-33 -5.28858e-21 -0.0301665)
(1.75895e-18 -6.82038e-19 -0.0307055)
(-3.58328e-19 -2.0972e-18 -0.0369483)
(2.6943e-19 1.08847e-18 -0.026362)
(1.44737e-19 -1.69124e-20 -0.0106566)
(-4.04577e-21 -2.57246e-21 -0.00284864)
(-6.72345e-19 -1.95525e-19 -0.000622919)
(2.43267e-33 -1.61746e-21 5.11485e-05)
(-7.17513e-20 8.0864e-21 0.000342255)
(-3.03465e-20 2.56574e-20 0.00050932)
(-1.53972e-19 -2.83465e-19 0.000590118)
(-2.12416e-19 4.87392e-20 0.000622233)
(-2.78362e-20 -1.90913e-19 0.000624175)
(-1.17022e-19 -6.36161e-20 0.000593629)
(-1.04264e-20 1.8981e-20 0.000528747)
(4.11656e-23 4.30158e-22 0.000458038)
(-1.17132e-20 -6.50453e-20 0.000321904)
(2.08203e-20 -4.41705e-21 0.000183508)
(-6.65109e-20 -1.19312e-20 -1.99165e-05)
(-9.01346e-22 6.99464e-21 -0.000395962)
(-5.87841e-20 -1.28668e-19 -0.112047)
(-4.36605e-20 -1.62741e-19 -0.0709741)
(5.38378e-19 1.28088e-18 -0.0479157)
(-6.65973e-33 4.67721e-20 -0.0252455)
(-1.9268e-19 -1.18827e-18 -0.0157041)
(-2.51647e-19 -1.29093e-18 -0.0257683)
(9.57345e-19 -2.51515e-19 -0.0306327)
(1.2389e-18 -5.05085e-20 -0.0181013)
(8.39113e-19 3.58504e-20 -0.00606603)
(-7.12009e-19 -8.42729e-19 -0.00142452)
(3.49038e-33 -4.39609e-22 -0.000189462)
(-4.10789e-19 -2.68461e-19 0.000191374)
(-2.10189e-19 2.00548e-19 0.000406057)
(3.32589e-20 3.48994e-20 0.000516852)
(9.82203e-20 2.95181e-20 0.000588975)
(1.62607e-21 8.42166e-20 0.000635774)
(2.15845e-20 5.51829e-21 0.000635732)
(-2.26003e-20 4.39737e-20 0.000590753)
(1.20043e-22 3.4827e-22 0.000531599)
(1.44633e-20 -8.96492e-21 0.000435071)
(3.04259e-21 7.15318e-21 0.000316225)
(-9.23137e-21 3.27689e-22 0.000136933)
(4.47418e-20 -3.69269e-20 -9.49589e-05)
(1.79702e-20 9.06844e-20 -0.000411608)
(-8.3911e-21 -2.28952e-20 -0.0928561)
(-3.7589e-20 -1.70952e-19 -0.0605242)
(3.06378e-20 -4.37631e-19 -0.0428495)
(9.99672e-21 1.9853e-21 -0.0234012)
(-2.10942e-18 7.36085e-19 -0.00518415)
(8.76734e-19 3.84779e-18 -0.00910139)
(-2.00971e-18 1.8763e-19 -0.0232628)
(1.90116e-19 6.09794e-21 -0.0239557)
(-2.00521e-19 1.03376e-18 -0.0112249)
(-1.02626e-18 -8.57844e-20 -0.00308201)
(1.99772e-36 1.19666e-21 -0.000600623)
(-3.28081e-20 -1.07581e-19 2.20779e-05)
(4.03011e-21 8.83656e-21 0.000266393)
(-1.63259e-20 7.53802e-20 0.00042646)
(3.50193e-19 -4.36395e-20 0.000512854)
(6.54011e-20 2.87548e-19 0.000590362)
(1.85024e-19 -5.16797e-20 0.000634942)
(-1.399e-19 1.54576e-19 0.00064542)
(-1.7955e-20 -1.60697e-20 0.000590225)
(1.89266e-20 -1.26938e-20 0.000550531)
(3.33462e-21 8.24136e-21 0.000434781)
(-1.38929e-19 -5.04914e-20 0.000301692)
(8.49612e-20 5.47897e-20 0.000103232)
(1.0167e-19 7.07348e-20 -0.000184138)
(1.92124e-21 9.407e-21 -0.000432695)
(-1.11601e-19 2.04778e-19 -0.0737892)
(6.9115e-19 2.35357e-18 -0.0478447)
(-1.5409e-18 4.44296e-19 -0.0337053)
(5.61764e-19 1.86383e-18 -0.0201036)
(2.31261e-19 1.32168e-18 -0.000666112)
(8.50474e-20 3.18146e-19 0.00752121)
(-3.5217e-19 -1.16148e-18 -0.00836113)
(2.07081e-18 3.89177e-20 -0.0215158)
(-8.25602e-20 -5.84911e-19 -0.016854)
(-1.34771e-18 7.59396e-19 -0.00611139)
(-4.00107e-33 1.59013e-21 -0.00133104)
(2.6352e-19 -6.79232e-19 -0.000149361)
(2.974e-19 -3.29754e-19 9.83116e-05)
(6.17609e-19 8.84363e-19 0.000243195)
(4.08203e-19 3.43239e-22 0.000366575)
(5.76017e-20 -5.31688e-21 0.000495818)
(5.29653e-20 -3.56347e-19 0.000589845)
(-2.24834e-19 -1.03753e-19 0.000642072)
(-2.41321e-20 -1.9986e-20 0.000633136)
(4.29811e-20 -3.17726e-20 0.000596995)
(-3.74968e-21 -1.81097e-20 0.000526607)
(-1.83679e-19 4.03932e-22 0.000424942)
(-4.2873e-20 1.29102e-19 0.00025551)
(5.35582e-20 4.59373e-20 5.49733e-05)
(7.19624e-20 -1.27906e-20 -0.000259409)
(-1.65845e-22 -8.37205e-22 -0.00042755)
(-2.21719e-20 2.40579e-19 -0.0568825)
(2.5936e-19 8.5765e-19 -0.0362765)
(-1.77134e-20 -1.09857e-20 -0.0222486)
(-5.595e-23 -3.21035e-20 -0.0133704)
(-3.35724e-19 -2.62894e-19 0.00225285)
(-4.63393e-19 -1.63889e-18 0.0169256)
(2.53968e-18 -3.88025e-19 0.0127287)
(2.27377e-18 -5.45863e-22 -0.0104696)
(1.98402e-19 -1.78259e-18 -0.0190979)
(-1.04932e-20 -1.48704e-19 -0.0101855)
(5.82581e-33 -6.76983e-22 -0.00278707)
(8.76546e-20 1.67594e-19 -0.00047675)
(1.28026e-19 -1.55079e-19 -0.000150077)
(1.24416e-19 3.10179e-20 -0.000102297)
(3.85986e-20 8.02727e-20 1.81697e-05)
(-5.86059e-20 -5.77611e-20 0.000205648)
(1.98413e-20 -6.63156e-20 0.000400367)
(6.61162e-20 9.26953e-20 0.000543145)
(-4.8037e-22 -1.14036e-21 0.000617156)
(1.34388e-19 -1.87222e-19 0.000612265)
(-5.28262e-20 -1.41375e-19 0.000600309)
(-2.43438e-19 1.86005e-20 0.000533776)
(8.21877e-22 6.89982e-21 0.000404939)
(9.34519e-20 1.69135e-19 0.000257196)
(-1.35696e-19 -2.00736e-19 -6.83869e-08)
(-1.35311e-19 3.52766e-20 -0.000324283)
(-1.33539e-21 -1.92614e-20 -0.000414441)
(-2.35194e-20 -3.30881e-20 -0.0392279)
(-3.2495e-19 -1.97782e-18 -0.0261524)
(-8.13404e-19 -1.8167e-18 -0.0116103)
(2.94907e-19 9.26423e-19 -0.00357024)
(2.16762e-18 -8.06325e-19 0.00709599)
(-3.71966e-20 -1.51472e-19 0.021919)
(4.85992e-19 1.21936e-18 0.0281938)
(2.60962e-18 -1.04234e-19 0.0108283)
(-6.11507e-20 -1.23059e-18 -0.0115227)
(-2.12963e-18 -4.9982e-19 -0.0146487)
(7.81235e-35 -6.67411e-21 -0.00531642)
(-5.69512e-19 8.63725e-19 -0.00114927)
(-3.11791e-21 -2.66684e-21 -0.000562028)
(6.64887e-19 -4.24597e-19 -0.000804493)
(-4.2728e-19 4.66073e-19 -0.000831905)
(-1.39153e-19 -6.64047e-19 -0.000558639)
(-5.71914e-20 -8.77246e-20 -0.000146904)
(3.48213e-19 1.99561e-19 0.000248632)
(4.13425e-20 2.91262e-20 0.000492922)
(-1.71855e-19 -2.05845e-19 0.000598089)
(-3.4489e-19 1.82866e-19 0.000613935)
(-3.01824e-19 3.13378e-19 0.000581243)
(2.25832e-21 6.82595e-21 0.000531485)
(1.94847e-19 1.0399e-19 0.000399088)
(-5.917e-20 7.55672e-20 0.000224477)
(8.99041e-22 8.37936e-21 -2.09466e-05)
(8.27496e-20 -3.64036e-20 -0.000389945)
(-2.40239e-22 -3.69979e-21 -0.000370891)
(-7.59328e-20 -1.27843e-19 -0.0228658)
(-9.65401e-19 -1.06382e-18 -0.01683)
(1.98419e-18 -2.22397e-19 -0.00192637)
(3.92433e-19 -3.64084e-18 0.00617242)
(-1.48563e-18 -3.78766e-18 0.0158034)
(-6.56161e-20 -1.71216e-19 0.0263131)
(2.11793e-19 -4.25125e-19 0.0380647)
(2.30798e-18 -2.13438e-19 0.0312471)
(1.55345e-18 5.56992e-19 0.00451441)
(-1.89536e-18 -1.75799e-18 -0.0107177)
(-1.83063e-34 1.86043e-20 -0.00917962)
(-1.04015e-18 -6.26268e-19 -0.00246441)
(-5.88236e-19 8.84797e-19 -0.00131485)
(-2.03655e-19 -6.75549e-20 -0.00207629)
(9.64154e-20 1.30348e-19 -0.00263071)
(5.12455e-20 -1.25284e-19 -0.0024292)
(-5.52382e-21 6.11172e-19 -0.00166913)
(3.77976e-19 2.73767e-19 -0.000745698)
(5.55602e-20 3.4955e-20 5.66253e-06)
(1.12522e-19 3.5381e-20 0.000452419)
(-2.50557e-21 2.25175e-19 0.000587404)
(-2.28426e-19 4.78356e-20 0.000616844)
(2.53568e-20 -2.79729e-19 0.000589836)
(2.57434e-19 1.07899e-19 0.000519149)
(1.97297e-20 1.2264e-20 0.000402742)
(1.54561e-19 -1.07805e-19 0.000218718)
(4.05105e-20 1.12951e-19 -2.82455e-05)
(-5.54922e-20 2.09203e-20 -0.000403763)
(7.76296e-21 -2.21997e-19 -0.000321466)
(-2.90954e-19 2.94066e-20 -0.00773531)
(2.13205e-19 2.65728e-19 -0.00821976)
(1.00586e-18 1.43368e-18 0.00789811)
(-8.87617e-19 -1.48586e-18 0.0158396)
(1.77076e-18 -1.70598e-18 0.0254548)
(-2.55699e-19 -7.97215e-19 0.0349435)
(-3.06351e-18 4.3155e-19 0.0442649)
(1.58505e-18 1.72995e-18 0.0476876)
(-2.51494e-19 2.63404e-18 0.0264195)
(-4.16468e-18 -7.67331e-19 -0.00220823)
(1.75492e-34 7.60303e-21 -0.00873089)
(2.19489e-18 9.41888e-19 -0.00457285)
(1.02646e-18 -1.7051e-18 -0.00250801)
(-6.37923e-19 9.46289e-19 -0.00409014)
(-1.09223e-18 -1.65129e-18 -0.00589972)
(-8.1022e-19 3.26414e-19 -0.00641832)
(8.44973e-20 -1.47554e-19 -0.00543477)
(-2.19011e-20 1.08601e-19 -0.00360912)
(-5.42956e-20 -2.79736e-20 -0.00174941)
(3.61778e-19 2.42872e-19 -0.000383063)
(-3.24865e-19 1.84111e-19 0.000358564)
(-4.08602e-19 -3.95879e-19 0.000590769)
(3.87951e-19 -1.26612e-19 0.000616083)
(3.229e-19 1.42781e-19 0.000586978)
(2.76713e-20 1.37496e-20 0.000502308)
(-6.50149e-22 -9.44156e-22 0.00040313)
(-1.1242e-19 2.98887e-20 0.000232468)
(-2.63922e-20 -1.07059e-19 -3.16009e-05)
(-9.08147e-21 -2.36854e-19 -0.00043711)
(-4.23354e-21 8.01969e-21 -0.000258573)
(-4.2729e-20 2.199e-19 0.00737047)
(1.89731e-19 3.13907e-19 -0.000363098)
(-2.76492e-19 1.17813e-19 0.0179232)
(2.35325e-18 4.75113e-19 0.0267054)
(-4.77876e-19 2.40858e-18 0.0361076)
(-2.56359e-18 1.50829e-18 0.0451343)
(-3.35444e-20 7.35348e-21 0.0539869)
(-2.68947e-18 3.49154e-19 0.0586475)
(-1.08839e-19 2.81207e-18 0.0483617)
(-2.2896e-18 1.26105e-18 0.0168488)
(-4.41375e-32 -9.71524e-21 -0.0052794)
(7.63126e-19 -1.16016e-18 -0.00631774)
(6.64356e-19 -1.28758e-18 -0.00411188)
(1.10096e-18 6.63754e-19 -0.00676721)
(2.14752e-19 2.88991e-19 -0.010891)
(3.77853e-19 1.00411e-18 -0.0133842)
(8.38253e-19 -3.65582e-19 -0.0130622)
(-7.06455e-19 2.10829e-19 -0.0103969)
(-1.3324e-21 -1.8058e-21 -0.006661)
(4.8365e-19 1.63391e-19 -0.00326581)
(9.21055e-21 9.61395e-21 -0.000903444)
(-7.18535e-20 2.46225e-20 0.000240356)
(-4.91624e-19 7.62936e-21 0.000602769)
(3.4174e-19 4.44172e-19 0.000620508)
(1.88287e-19 -2.54845e-19 0.000569824)
(-1.91306e-22 -1.00185e-21 0.000488196)
(-1.4776e-20 -2.56987e-20 0.000379311)
(7.5056e-20 -8.90588e-21 0.000215296)
(1.38081e-20 8.39885e-20 -4.99615e-05)
(2.00939e-19 -1.5221e-20 -0.000447162)
(2.2084e-22 2.33399e-19 -0.000207024)
(3.78547e-19 -6.4043e-19 0.0213246)
(-8.7843e-19 5.97374e-19 0.00720427)
(2.61447e-20 -4.25389e-19 0.0288815)
(-7.7944e-19 -4.28244e-19 0.0388923)
(1.85692e-18 1.63205e-18 0.0494001)
(-8.05069e-19 8.62413e-19 0.0572943)
(-9.75e-19 -9.4594e-19 0.0651092)
(-4.81981e-19 -2.02689e-18 0.0710774)
(3.94958e-18 3.3282e-19 0.0662489)
(-1.03497e-18 -4.47845e-19 0.0403969)
(1.83393e-20 1.81091e-21 0.00719331)
(-2.608e-18 -9.61573e-19 -0.00583612)
(-1.98032e-18 4.19976e-18 -0.00597387)
(-2.03903e-18 -1.46519e-18 -0.00964519)
(-7.10548e-19 -8.38063e-19 -0.0171362)
(-5.17783e-20 -1.62157e-19 -0.0234516)
(2.00397e-20 1.01349e-18 -0.025707)
(-4.71967e-21 1.52382e-19 -0.0233186)
(9.52086e-20 1.14895e-20 -0.0176374)
(9.99039e-20 -1.00162e-19 -0.0109848)
(-3.52471e-20 -5.44349e-20 -0.00529124)
(-7.9429e-19 3.30938e-19 -0.00160528)
(6.25388e-19 2.05137e-19 0.000113143)
(4.29117e-19 -4.31521e-19 0.000609819)
(3.30727e-20 2.41733e-20 0.000627737)
(-2.30907e-20 2.57329e-20 0.000541822)
(-1.845e-20 -2.937e-20 0.000485605)
(2.30938e-22 -4.53004e-21 0.000376832)
(-7.64593e-20 -2.70434e-19 0.000196677)
(-9.31647e-21 -1.14017e-19 -6.11851e-05)
(-6.62099e-20 2.45618e-19 -0.000439795)
(3.18378e-21 -2.39113e-19 -0.000144378)
(2.91192e-19 -4.71249e-19 0.0344819)
(2.60127e-19 5.41619e-19 0.0150267)
(2.72333e-19 5.44458e-20 0.0413719)
(2.23295e-18 -1.60354e-18 0.0532122)
(-7.14466e-19 -1.79093e-18 0.0654261)
(-2.02802e-18 -1.31409e-18 0.0736747)
(2.28213e-19 -8.05393e-19 0.0786945)
(5.91131e-19 -2.59844e-19 0.083884)
(-3.3966e-19 -2.19884e-18 0.0830154)
(-1.18571e-18 -1.67055e-19 0.0643526)
(-4.06909e-19 2.25999e-18 0.0274831)
(-7.70523e-19 1.55559e-18 0.000436879)
(-2.01375e-19 4.81894e-19 -0.00679554)
(4.0718e-19 -1.38978e-18 -0.0121199)
(-2.00041e-19 -1.45362e-19 -0.0235622)
(-4.2891e-19 1.81251e-19 -0.0356896)
(-1.14465e-18 4.34763e-19 -0.0431066)
(3.51005e-19 -2.12678e-18 -0.0434173)
(-8.4566e-19 -4.46487e-20 -0.0371764)
(-3.64169e-19 -4.59108e-19 -0.0271045)
(6.39385e-19 -4.27824e-19 -0.0164898)
(-1.11272e-18 3.83531e-19 -0.00784704)
(8.22459e-20 7.13043e-19 -0.00242672)
(7.73623e-19 -4.17626e-19 2.82654e-06)
(4.86289e-19 2.26345e-19 0.00062213)
(-2.64951e-20 3.35903e-20 0.000636092)
(2.41278e-19 -2.46025e-19 0.000559285)
(-3.49162e-22 -4.99307e-21 0.000463617)
(-9.92145e-20 -3.04405e-19 0.00037322)
(-2.43931e-19 1.4942e-20 0.000196984)
(7.83292e-22 1.53561e-19 -4.57975e-05)
(1.20332e-19 -2.43659e-19 -0.000443814)
(-4.4407e-21 6.71251e-21 -7.90142e-05)
(4.69676e-19 -1.66789e-19 0.047207)
(1.75164e-18 -2.1706e-18 0.0238045)
(-4.68005e-19 6.01892e-19 0.05588)
(1.31269e-18 -8.67353e-19 0.0703027)
(-2.16538e-18 -7.06431e-19 0.0850185)
(4.52496e-19 -2.6742e-19 0.0942191)
(3.818e-19 8.60417e-19 0.0980248)
(-1.15335e-18 4.05923e-19 0.0985906)
(1.56592e-18 1.42858e-19 0.0988911)
(-1.18484e-19 -1.57352e-18 0.0863963)
(-5.40516e-20 2.55108e-20 0.0532118)
(-2.41173e-19 -5.08564e-19 0.0144204)
(8.25718e-19 -2.16233e-18 -0.00440818)
(2.54987e-18 1.29407e-18 -0.0134603)
(2.2979e-19 1.179e-19 -0.02875)
(9.44914e-19 -1.0284e-18 -0.048205)
(3.86666e-19 1.07133e-18 -0.063559)
(-6.77507e-20 3.87277e-19 -0.0697219)
(-9.67661e-21 5.66199e-20 -0.065617)
(9.78867e-20 -1.10911e-19 -0.0535886)
(4.00699e-20 6.14635e-20 -0.0379676)
(2.69061e-20 -8.22641e-21 -0.0227011)
(-9.70483e-20 -8.49275e-19 -0.0106536)
(7.93416e-19 8.25214e-19 -0.00328631)
(-6.70049e-19 -2.96455e-19 -9.428e-05)
(7.90069e-22 1.39769e-21 0.000657431)
(1.02406e-20 3.32893e-20 0.000622496)
(4.48483e-20 1.27274e-20 0.000527075)
(-7.84635e-20 -3.6477e-19 0.000480019)
(-3.83392e-22 9.83639e-21 0.000356433)
(8.12667e-20 2.86951e-19 0.000185716)
(-4.93965e-21 8.57451e-20 -5.40071e-05)
(1.93847e-19 2.92661e-20 -0.000414599)
(-9.41295e-21 2.12393e-19 -2.38922e-06)
(-2.08966e-19 -2.79933e-19 0.0600483)
(-4.0352e-19 7.23617e-19 0.0340499)
(-9.05582e-19 1.56844e-18 0.0725911)
(4.14281e-18 -2.99661e-18 0.0905781)
(4.3229e-19 -1.58017e-19 0.108666)
(-1.99676e-18 1.83463e-18 0.11971)
(4.08837e-20 1.89775e-19 0.122924)
(1.15845e-20 -1.44637e-18 0.119997)
(-4.74748e-19 -1.01414e-18 0.11484)
(-4.49674e-19 3.97766e-19 0.106657)
(2.52946e-19 -2.1802e-18 0.0793677)
(3.48376e-18 4.56914e-19 0.0367449)
(7.78659e-20 -1.94183e-19 0.00354377)
(-4.7956e-19 1.79157e-18 -0.0125184)
(-3.72996e-18 -2.57765e-18 -0.0315679)
(-1.6177e-18 1.84613e-18 -0.0587216)
(7.42167e-20 2.14925e-19 -0.0844681)
(1.67143e-19 -1.09677e-18 -0.099834)
(5.87628e-21 -1.20613e-20 -0.101102)
(-1.81186e-18 1.76064e-18 -0.0895431)
(5.81578e-19 2.38107e-19 -0.0701457)
(-1.82043e-18 5.91676e-19 -0.0485882)
(-8.97402e-19 7.32019e-20 -0.0287964)
(1.11184e-18 6.27062e-19 -0.0134177)
(-1.95394e-19 6.78257e-19 -0.00407285)
(3.89683e-20 -4.69364e-20 -0.000186853)
(3.60127e-19 4.13824e-19 0.000647902)
(2.3417e-19 -3.69445e-19 0.000601241)
(6.75285e-20 -4.89881e-19 0.000522008)
(5.66688e-22 1.0769e-20 0.000456458)
(6.69508e-22 3.24563e-19 0.000333847)
(-1.03481e-19 -3.03357e-19 0.000181737)
(8.40016e-22 -2.49408e-21 -3.66408e-05)
(7.96864e-20 2.38095e-19 -0.000351234)
(7.95861e-23 -3.42793e-21 4.82007e-05)
(-1.50693e-19 7.84854e-19 0.0758688)
(-1.77712e-18 1.91053e-18 0.0464461)
(-3.41186e-19 -8.78705e-20 0.0914526)
(-2.16306e-19 1.15598e-19 0.114007)
(2.81784e-18 -1.29621e-18 0.136497)
(-2.66418e-18 6.07182e-19 0.150457)
(1.0182e-18 -6.44575e-19 0.154091)
(3.45649e-18 -2.06531e-18 0.148154)
(-3.04249e-18 -3.2233e-18 0.137191)
(-1.45672e-18 3.42374e-18 0.124728)
(-1.5623e-18 2.17105e-18 0.104014)
(-3.82859e-20 2.11123e-19 0.0631481)
(6.01315e-20 -3.1835e-19 0.0196391)
(5.1897e-19 -4.20491e-19 -0.0078911)
(4.65963e-19 2.7927e-19 -0.0311817)
(1.22138e-18 9.69682e-19 -0.0653266)
(1.00681e-18 -1.31054e-18 -0.102852)
(5.19471e-21 -2.24671e-19 -0.13058)
(-3.90777e-19 2.8415e-19 -0.140827)
(3.51017e-19 -3.51619e-19 -0.132671)
(1.41046e-18 -8.57213e-19 -0.111017)
(-2.47803e-18 2.2738e-19 -0.083638)
(1.48595e-19 7.43284e-19 -0.0570307)
(-1.66457e-20 -5.57165e-21 -0.0337811)
(1.56554e-19 -1.42001e-20 -0.015725)
(3.86413e-20 -6.51811e-20 -0.00468016)
(5.39263e-20 3.17232e-20 -0.000239016)
(7.9555e-21 -3.91807e-21 0.000645642)
(-4.2717e-20 -2.77675e-20 0.000575736)
(3.63742e-19 -8.36573e-20 0.000503123)
(-1.8911e-21 3.73267e-19 0.00042876)
(3.73508e-20 -3.26621e-19 0.000341452)
(-2.27786e-19 -3.17597e-20 0.000212355)
(1.70582e-20 -7.8223e-20 -8.81824e-06)
(-5.60141e-20 -1.52312e-20 -0.000318932)
(1.27354e-21 -1.80045e-20 0.000100054)
(5.81919e-20 1.16715e-18 0.0923926)
(3.2988e-19 -8.88048e-19 0.0633055)
(-4.11807e-19 1.04893e-18 0.112425)
(-2.19328e-18 2.7039e-18 0.140043)
(5.1405e-18 -3.92345e-18 0.168173)
(-2.76794e-18 1.39631e-18 0.186345)
(1.46731e-18 -4.61968e-19 0.191787)
(-5.58552e-19 2.71968e-20 0.183594)
(-2.15833e-18 1.43332e-18 0.1671)
(9.08373e-19 5.01922e-19 0.147504)
(-3.61761e-19 -2.33508e-18 0.125156)
(1.11219e-18 -1.15244e-19 0.0900932)
(4.19677e-19 -1.5296e-18 0.0419445)
(-2.98209e-18 -1.22947e-18 0.00293784)
(-3.26461e-18 1.58839e-18 -0.027142)
(3.84416e-20 -5.20637e-19 -0.0666817)
(1.05764e-18 1.92394e-18 -0.116032)
(9.08396e-20 1.39789e-19 -0.158768)
(1.10819e-18 -9.64312e-19 -0.181767)
(-1.05002e-18 9.73589e-19 -0.180817)
(-8.20201e-19 2.75801e-19 -0.159173)
(3.05448e-18 -9.14768e-19 -0.1258)
(-1.76373e-19 -8.98063e-19 -0.0910468)
(2.11002e-18 -8.90374e-20 -0.0615239)
(-1.54464e-19 -6.0127e-20 -0.0367779)
(-4.59099e-19 4.67088e-19 -0.0171432)
(-6.50781e-19 3.97854e-19 -0.00494897)
(-8.45394e-19 -3.09851e-19 -0.000170739)
(-5.45753e-19 -7.97079e-19 0.000644451)
(1.35215e-19 -2.95779e-19 0.000567226)
(2.91995e-20 4.3767e-19 0.000496293)
(5.25843e-20 -3.7372e-19 0.000440721)
(-5.87023e-22 8.31027e-21 0.00033269)
(-1.96857e-19 2.20814e-19 0.000197151)
(-3.99676e-22 2.04109e-21 -1.02476e-06)
(8.57964e-20 3.9138e-21 -0.000259601)
(-2.89116e-23 4.61572e-22 0.000150596)
(8.70491e-19 -3.9251e-19 0.114366)
(2.06454e-19 -2.4012e-18 0.106449)
(5.94111e-19 -1.66936e-18 0.137148)
(1.38078e-19 -1.22894e-21 0.167984)
(-9.10737e-19 9.70234e-19 0.20272)
(4.71623e-19 -6.39748e-19 0.22669)
(2.97577e-18 -9.93448e-19 0.235741)
(-1.65114e-18 -2.24207e-19 0.226918)
(-7.60885e-19 2.02153e-18 0.204563)
(-4.8257e-18 -1.09133e-18 0.177883)
(2.41514e-18 -2.10474e-18 0.148947)
(5.36844e-19 -4.83483e-19 0.114011)
(-5.68748e-20 2.34036e-18 0.0675646)
(-8.20987e-20 1.5798e-19 0.0195346)
(1.27839e-18 6.93482e-19 -0.0182538)
(3.13076e-19 -1.35477e-18 -0.0624907)
(-1.17615e-18 1.77725e-18 -0.121836)
(9.27232e-20 -3.64565e-18 -0.181339)
(-1.76263e-18 2.06998e-18 -0.221246)
(-2.23088e-19 2.07367e-19 -0.231779)
(8.91867e-20 -1.14514e-19 -0.213969)
(-2.82031e-18 1.04509e-18 -0.176237)
(-1.75644e-18 1.86623e-19 -0.131616)
(2.48148e-18 3.63677e-19 -0.0905261)
(1.26342e-19 1.16557e-19 -0.0611711)
(2.28377e-20 2.02492e-20 -0.037356)
(-4.11398e-20 -1.41876e-19 -0.0174456)
(-5.70754e-20 1.12496e-20 -0.00480376)
(-2.03118e-20 -5.5115e-20 -9.14959e-05)
(7.52647e-20 5.65079e-19 0.00062359)
(3.90741e-19 -5.03729e-20 0.000548298)
(3.11582e-20 -4.38644e-19 0.000495483)
(-1.16468e-21 8.9755e-21 0.000414168)
(-1.03943e-19 2.79512e-19 0.000324405)
(6.26078e-20 2.0735e-20 0.00021018)
(-2.36379e-20 5.89297e-20 3.6419e-05)
(1.4609e-20 4.34128e-21 -0.000180955)
(-1.5163e-21 1.23312e-20 0.000183045)
(-3.36359e-19 -1.52078e-18 0.109302)
(-1.4304e-20 -1.49368e-20 0.131615)
(-1.51758e-19 1.96966e-18 0.162707)
(7.83119e-19 -2.3652e-18 0.199804)
(-6.83406e-19 8.73795e-19 0.239071)
(2.06087e-19 -7.7007e-19 0.270129)
(4.75346e-19 -7.64662e-19 0.284469)
(-9.32809e-19 1.65857e-19 0.278405)
(-4.38929e-18 6.03757e-19 0.251297)
(1.52849e-18 5.87318e-19 0.216743)
(8.42882e-19 9.36584e-19 0.179109)
(-2.73147e-18 -1.06013e-19 0.139502)
(-1.98496e-19 1.04769e-18 0.092192)
(-1.07324e-19 -8.26326e-20 0.0410663)
(1.28027e-18 -3.8322e-18 -0.0051565)
(3.50546e-18 -1.27761e-18 -0.052717)
(1.59144e-18 7.40085e-19 -0.119181)
(-2.01675e-21 4.08433e-19 -0.194927)
(1.66256e-19 -4.40675e-20 -0.255709)
(9.12676e-20 -1.56759e-19 -0.283563)
(9.08519e-21 -5.14364e-20 -0.27459)