/*--------------------------------*- C++ -*----------------------------------*\
| =========                 |                                                 |
| \\      /  F ield         | OpenFOAM: The Open Source CFD Toolbox           |
|  \\    /   O peration     | Version:  2506                                  |
|   \\  /    A nd           | Website:  www.openfoam.com                      |
|    \\/     M anipulation  |                                                 |
\*---------------------------------------------------------------------------*/
FoamFile
{
    version     2.0;
    format      ascii;
    arch        "LSB;label=32;scalar=64";
    class       volScalarField;
    location    "400";
    object      turbulenceProperties:I;
}
// * * * * * * * * * * * * * * * * * * * * * * * * * * * * * * * * * * * * * //

dimensions      [0 0 0 0 0 0 0];

internalField   nonuniform List<scalar> 
1340
(
0.0170031
0.0134811
0.00874223
0.00732142
0.00706285
0.0073137
0.00787058
0.00865658
0.00966578
0.0109378
0.0125664
0.0146964
0.0175308
0.021403
0.0267187
0.0344059
0.0453583
0.0627104
0.0884408
0.13098
0.186828
0.221537
0.234699
0.238639
0.240294
0.241518
0.242567
0.243552
0.00583362
0.0071565
0.00638397
0.00446763
0.00313631
0.00234222
0.00183756
0.00148994
0.00123536
0.00104034
0.000884559
0.000756306
0.00064514
0.000542906
0.000438671
0.00032545
0.00018534
7.26353e-05
0.000113083
0.00129856
0.00295737
0.00830058
0.0151197
0.0210815
0.0257811
0.0293932
0.0322556
0.0347429
0.0371134
0.0040558
0.00446455
0.00424684
0.00349846
0.00272199
0.00212258
0.00168591
0.0013638
0.00112245
0.000937902
0.000796153
0.000687097
0.000604312
0.000541307
0.000494059
0.000459235
0.000434769
0.000416873
0.000406312
0.000396894
0.000402787
0.00030669
0.000797243
0.00202965
0.00340326
0.00491185
0.00734787
0.0106612
0.0142963
0.00268423
0.00299088
0.00316901
0.00308219
0.00273175
0.00229091
0.00189353
0.00157482
0.00132674
0.00113409
0.000982734
0.00086299
0.00076732
0.000690431
0.000627383
0.000575235
0.000530989
0.00049194
0.000454114
0.000417905
0.000387945
0.000364826
0.00034767
0.000328741
0.000305554
0.000263495
0.000208666
0.000577961
0.000761527
0.00145854
0.00216722
0.00233681
0.00242972
0.00238877
0.00220553
0.00194531
0.00167729
0.00143624
0.001231
0.00105995
0.000918156
0.000800785
0.000703743
0.000623712
0.000557502
0.000502694
0.000456838
0.000417541
0.000381149
0.000345827
0.00031354
0.000287147
0.000267936
0.000258181
0.000246279
0.000270895
0.000131301
0.000334933
0.00072586
0.0011424
0.00167237
0.00179421
0.00189739
0.00195253
0.00193041
0.00182472
0.00166315
0.00148159
0.00130499
0.00114525
0.00100615
0.00088739
0.000787038
0.000702785
0.000632273
0.000573102
0.000523115
0.000480103
0.000441876
0.000405652
0.000370119
0.000337002
0.000307843
0.00028286
0.000261388
0.000243097
0.000227104
0.000212265
0.000188811
0.00015158
3.95119e-06
0.0014348
0.00151694
0.00158484
0.00162034
0.00160709
0.00154194
0.00143748
0.00131253
0.00118287
0.00105844
0.000944392
0.000842583
0.000753083
0.000675262
0.000608071
0.000550142
0.000500117
0.000456486
0.000417562
0.000381171
0.000345997
0.000313021
0.000283551
0.000257947
0.000235845
0.000217197
0.000202691
0.000192969
0.000187384
0.000181161
0.000174039
0.00124698
0.00130454
0.00135163
0.00137584
0.00136745
0.00132513
0.00125489
0.00116713
0.00107157
0.000975476
0.000883653
0.000798743
0.000721841
0.000653342
0.000593007
0.000540135
0.000493783
0.000452811
0.00041585
0.000381219
0.000347911
0.000316633
0.000288358
0.000263262
0.000240841
0.000220654
0.00020261
0.00018648
0.000172027
0.000159068
0.00014978
0.00104972
0.00109556
0.00113744
0.00117135
0.00118856
0.00118307
0.00115439
0.00110567
0.00104282
0.000971823
0.000897652
0.000824098
0.000753653
0.000687812
0.000627409
0.000572727
0.00052363
0.000479669
0.000440111
0.000403971
0.000370064
0.000337636
0.000307102
0.000279292
0.000254469
0.000232317
0.000212532
0.000195132
0.000180436
0.000168806
0.000160577
0.000156182
0.000971484
0.00100287
0.00102799
0.00104057
0.00103692
0.00101684
0.000982103
0.000936259
0.000882997
0.000825595
0.000766899
0.000708977
0.00065326
0.000600814
0.000552185
0.000507586
0.000466911
0.000429743
0.000395419
0.000363133
0.000332318
0.000303283
0.000276687
0.00025276
0.000231227
0.000211767
0.000194283
0.000178803
0.000165295
0.000154253
0.000146085
0.000892351
0.000911368
0.000920775
0.000918316
0.000903893
0.000878529
0.000844488
0.000804119
0.000759558
0.000712773
0.000665355
0.000618523
0.000573275
0.000530309
0.00049001
0.000452485
0.000417591
0.000384945
0.000354031
0.00032451
0.00029663
0.000270907
0.000247585
0.000226497
0.000207419
0.000190319
0.000175336
0.00016269
0.000152901
0.000146254
0.000814708
0.000821882
0.000820195
0.00080957
0.000790687
0.000765029
0.000734114
0.000699302
0.000661986
0.000623295
0.000584152
0.000545437
0.0005078
0.00047174
0.000437524
0.000405181
0.000374509
0.000345232
0.00031723
0.000290712
0.000266099
0.000243624
0.000223187
0.000204609
0.00018784
0.000172979
0.000160131
0.00014975
0.000142328
0.000738893
0.000737706
0.000729732
0.000715426
0.000695792
0.000671857
0.000644523
0.000614678
0.000583122
0.000550533
0.000517602
0.00048489
0.000452874
0.00042189
0.000392081
0.000363415
0.000335814
0.000309292
0.000284078
0.000260516
0.000238833
0.000218996
0.000200883
0.000184474
0.000169899
0.000157325
0.000147214
0.000140053
0.000667428
0.000661325
0.000650303
0.000635093
0.000616387
0.000594759
0.000570831
0.000545101
0.000518026
0.000490133
0.000461873
0.000433658
0.000405811
0.000378556
0.000351972
0.000326135
0.000301168
0.000277306
0.000254862
0.000234052
0.000214888
0.000197301
0.000181285
0.000166968
0.000154494
0.000144293
0.00013686
0.000602112
0.000593503
0.000581561
0.000566789
0.000549569
0.000530291
0.000509289
0.000486838
0.000463288
0.000438979
0.000414246
0.000389399
0.000364672
0.000340199
0.000316124
0.000292689
0.000270175
0.000248856
0.000228931
0.000210454
0.000193399
0.000177784
0.000163746
0.000151442
0.000141299
0.000133791
0.000550387
0.000543563
0.000534089
0.00052232
0.000508501
0.000492906
0.000475707
0.000457083
0.000437245
0.00041642
0.000394859
0.000372813
0.00035051
0.000328112
0.000305833
0.000283963
0.00026281
0.000242627
0.000223615
0.000205856
0.000189362
0.000174168
0.000160417
0.000148261
0.000138111
0.000130426
0.000499379
0.000491767
0.000482293
0.00047113
0.000458441
0.000444328
0.00042886
0.000412171
0.00039438
0.000375666
0.000356214
0.00033621
0.000315826
0.000295309
0.000274992
0.000255182
0.000236141
0.000218057
0.000201033
0.000185115
0.000170355
0.000156898
0.000144901
0.000134761
0.000126922
0.000460036
0.000453858
0.000446165
0.000437072
0.00042669
0.00041506
0.000402193
0.000388149
0.000372982
0.000356784
0.000339694
0.000321862
0.00030343
0.000284626
0.000265808
0.000247331
0.000229432
0.000212288
0.000196017
0.000180691
0.000166377
0.00015322
0.000141381
0.000131236
0.000123212
0.000419751
0.000413445
0.00040598
0.000397431
0.000387806
0.000377076
0.000365247
0.000352326
0.000338352
0.00032339
0.000307544
0.000290934
0.000273793
0.000256468
0.0002393
0.000222526
0.00020632
0.000190809
0.000176084
0.000162224
0.000149371
0.000137691
0.000127535
0.000119316
0.00038894
0.000383717
0.000377544
0.000370461
0.000362454
0.000353478
0.000343503
0.000332493
0.000320445
0.000307388
0.000293371
0.000278473
0.000262907
0.000247011
0.000231111
0.000215441
0.000200169
0.000185424
0.000171308
0.000157911
0.000145366
0.000133844
0.000123666
0.000115234
0.000361001
0.000356638
0.000351489
0.000345581
0.000338885
0.000331343
0.000322912
0.00031353
0.000303155
0.000291771
0.000279404
0.000266098
0.000252019
0.000237475
0.000222797
0.000208208
0.00019386
0.00017988
0.000166376
0.000153445
0.00014121
0.000129843
0.000119632
0.00011097
0.000331909
0.000327575
0.000322607
0.000316977
0.000310616
0.000303465
0.000295453
0.000286517
0.000276614
0.000265723
0.000253861
0.000241163
0.000227913
0.000214411
0.000200866
0.000187421
0.000174196
0.000161302
0.000148837
0.000136915
0.000125698
0.000115443
0.000106529
0.000309263
0.000305587
0.000301384
0.000296615
0.00029122
0.000285137
0.00027828
0.000270573
0.000261957
0.000252384
0.000241836
0.000230418
0.000218376
0.000205991
0.000193444
0.000180875
0.000168395
0.000156108
0.000144108
0.000132499
0.000121427
0.000111114
0.000101925
0.000285339
0.000281748
0.000277684
0.000273086
0.000267888
0.000262004
0.000255351
0.000247854
0.000239444
0.00023008
0.00021983
0.000208909
0.000197566
0.000185979
0.000174257
0.000162503
0.000150816
0.000139279
0.000127981
0.000117052
0.00010667
9.71776e-05
0.000266661
0.000263573
0.000260083
0.000256139
0.000251677
0.000246612
0.000240853
0.00023432
0.000226931
0.000218626
0.000209442
0.00019956
0.000189195
0.000178513
0.000167601
0.000156554
0.000145453
0.000134374
0.000123387
0.000112597
0.000102136
9.23078e-05
0.000249408
0.000246729
0.000243714
0.000240311
0.000236458
0.000232079
0.000227084
0.000221383
0.000214885
0.000207515
0.000199289
0.000190356
0.000180907
0.000171073
0.000160936
0.00015057
0.000140043
0.000129418
0.000118742
0.000108088
9.75421e-05
8.73466e-05
0.000231108
0.000228481
0.000225525
0.000222186
0.000218382
0.000214032
0.000209046
0.000203328
0.000196787
0.000189425
0.000181357
0.000172749
0.000163711
0.000154306
0.000144592
0.000134624
0.000124445
0.000114081
0.000103568
9.29324e-05
8.23364e-05
0.00021661
0.000214306
0.000211721
0.000208806
0.000205488
0.000201686
0.000197312
0.000192269
0.00018646
0.000179869
0.000172586
0.00016475
0.000156451
0.000147737
0.000138648
0.000129224
0.000119488
0.000109439
9.90776e-05
8.83595e-05
7.73347e-05
0.000203143
0.000201106
0.000198832
0.000196272
0.000193363
0.000190027
0.00018618
0.000181722
0.000176556
0.00017065
0.000164072
0.000156944
0.000149332
0.000141268
0.000132777
0.00012388
0.000114583
0.000104858
9.46647e-05
8.38824e-05
7.24167e-05
0.000188811
0.000186795
0.000184538
0.000181975
0.000179035
0.000175638
0.000171688
0.000167084
0.000161788
0.00015585
0.000149364
0.000142386
0.000134931
0.00012701
0.000118625
0.000109766
0.000100378
9.03801e-05
7.95755e-05
6.76891e-05
0.000177357
0.00017556
0.000173555
0.000171285
0.000168683
0.000165674
0.000162166
0.000158056
0.000153299
0.000147934
0.000142035
0.000135642
0.000128758
0.000121379
0.000113494
0.000105074
9.60445e-05
8.62824e-05
7.55222e-05
6.32894e-05
0.000165071
0.000163281
0.00016126
0.000158949
0.000156275
0.000153149
0.000149473
0.000145196
0.000140344
0.000134979
0.000129125
0.000122775
0.000115914
0.000108519
0.000100544
9.18967e-05
8.24248e-05
7.18067e-05
5.9387e-05
0.000155279
0.000153674
0.000151867
0.000149805
0.000147418
0.000144626
0.000141332
0.000137483
0.000133094
0.000128213
0.000122856
0.000117008
0.000110644
0.000103728
9.62063e-05
8.79736e-05
7.8859e-05
6.85136e-05
5.61682e-05
0.000146138
0.00014469
0.000143069
0.000141223
0.000139091
0.00013659
0.00013363
0.00013016
0.000126187
0.00012175
0.000116855
0.000111478
0.000105589
9.91464e-05
9.20887e-05
8.43069e-05
7.56256e-05
6.57046e-05
5.37836e-05
0.000136296
0.000134836
0.000133177
0.000131264
0.00012902
0.000126361
0.00012323
0.000119633
0.000115599
0.000111131
0.000106199
0.000100769
9.4795e-05
8.82126e-05
8.09187e-05
7.27494e-05
6.34097e-05
5.22853e-05
0.000128453
0.000127133
0.00012564
0.000123921
0.000121904
0.000119509
0.000116684
0.000113428
0.000109766
0.000105695
0.000101183
9.61954e-05
9.06844e-05
8.45886e-05
7.78159e-05
7.02303e-05
6.1611e-05
5.15808e-05
0.000121125
0.000119931
0.000118585
0.000117036
0.000115222
0.000113065
0.000110514
0.00010757
0.00010425
0.000100548
9.64352e-05
9.18741e-05
8.68199e-05
8.12194e-05
7.49948e-05
6.80482e-05
6.02489e-05
5.14679e-05
0.000113199
0.000111982
0.000110588
0.000108955
0.000107012
0.000104711
0.00010205
9.90458e-05
9.5691e-05
9.19555e-05
8.78052e-05
8.32014e-05
7.80975e-05
7.24377e-05
6.61628e-05
5.92297e-05
5.17075e-05
0.000106907
0.000105808
0.000104551
0.000103081
0.000101331
9.92587e-05
9.68593e-05
9.41474e-05
9.11161e-05
8.77382e-05
8.3983e-05
7.98181e-05
7.52068e-05
7.01141e-05
6.45188e-05
5.84465e-05
0.000101026
0.000100034
9.8902e-05
9.75803e-05
9.60076e-05
9.41426e-05
9.19834e-05
8.95425e-05
8.68142e-05
8.37745e-05
8.0397e-05
7.66554e-05
7.25251e-05
6.79889e-05
6.30555e-05
5.77982e-05
9.46356e-05
9.36174e-05
9.24301e-05
9.10183e-05
8.93442e-05
8.74063e-05
8.52176e-05
8.27724e-05
8.00507e-05
7.70311e-05
7.36942e-05
7.0025e-05
6.60216e-05
6.17135e-05
5.71991e-05
8.95874e-05
8.86724e-05
8.76084e-05
8.63446e-05
8.4846e-05
8.31123e-05
8.11566e-05
7.89748e-05
7.65509e-05
7.38679e-05
7.09128e-05
6.76785e-05
6.41739e-05
6.0441e-05
5.65852e-05
8.48638e-05
8.40451e-05
8.30945e-05
8.19654e-05
8.06276e-05
7.90824e-05
7.73424e-05
7.54053e-05
7.32579e-05
7.08884e-05
6.82883e-05
6.54573e-05
6.24109e-05
5.91957e-05
5.59126e-05
7.97127e-05
7.88644e-05
7.78597e-05
7.66706e-05
7.52985e-05
7.37568e-05
7.20449e-05
7.01527e-05
6.8072e-05
6.57986e-05
6.33361e-05
6.07034e-05
5.79464e-05
5.51551e-05
7.56524e-05
7.49e-05
7.4009e-05
7.29556e-05
7.17423e-05
7.03822e-05
6.88766e-05
6.72181e-05
6.54012e-05
6.34243e-05
6.12939e-05
5.90295e-05
5.66727e-05
5.42999e-05
7.1846e-05
7.118e-05
7.03925e-05
6.94633e-05
6.83954e-05
6.72015e-05
6.58837e-05
6.44371e-05
6.28584e-05
6.1148e-05
5.93133e-05
5.73727e-05
5.53625e-05
5.3344e-05
6.76862e-05
6.6994e-05
6.61775e-05
6.52416e-05
6.41982e-05
6.30502e-05
6.17944e-05
6.04291e-05
5.89558e-05
5.73816e-05
5.57235e-05
5.40109e-05
5.22922e-05
6.44018e-05
6.37956e-05
6.30818e-05
6.22653e-05
6.13577e-05
6.0362e-05
5.92766e-05
5.81007e-05
5.68363e-05
5.54901e-05
5.40761e-05
5.26179e-05
5.11524e-05
6.13102e-05
6.07822e-05
6.01612e-05
5.94519e-05
5.86656e-05
5.78059e-05
5.68714e-05
5.58623e-05
5.47807e-05
5.36322e-05
5.24281e-05
5.11866e-05
4.9935e-05
5.83967e-05
5.79386e-05
5.74007e-05
5.67874e-05
5.61093e-05
5.53696e-05
5.45679e-05
5.37047e-05
5.27816e-05
5.18035e-05
5.07789e-05
4.97216e-05
4.8651e-05
5.52509e-05
5.4787e-05
5.42586e-05
5.36753e-05
5.30409e-05
5.23551e-05
5.16182e-05
5.08318e-05
4.99997e-05
4.91282e-05
4.8227e-05
4.73098e-05
5.27045e-05
5.23051e-05
5.18509e-05
5.13507e-05
5.08077e-05
5.02219e-05
4.95935e-05
4.89242e-05
4.82166e-05
4.7475e-05
4.6706e-05
4.59191e-05
5.02838e-05
4.99406e-05
4.95504e-05
4.91214e-05
4.86567e-05
4.81564e-05
4.76209e-05
4.70511e-05
4.6449e-05
4.58173e-05
4.51605e-05
4.79736e-05
4.76777e-05
4.73418e-05
4.69735e-05
4.65753e-05
4.61475e-05
4.56906e-05
4.5205e-05
4.4692e-05
4.41534e-05
4.35917e-05
4.5502e-05
4.5212e-05
4.48947e-05
4.45525e-05
4.41859e-05
4.37954e-05
4.3381e-05
4.29435e-05
4.24837e-05
4.20027e-05
4.34029e-05
4.31511e-05
4.28769e-05
4.25824e-05
4.22678e-05
4.19336e-05
4.15797e-05
4.12063e-05
4.08135e-05
4.04015e-05
4.13752e-05
4.11565e-05
4.09194e-05
4.0666e-05
4.03964e-05
4.01106e-05
3.98085e-05
3.949e-05
3.91546e-05
3.88019e-05
3.94219e-05
3.92328e-05
3.90289e-05
3.88118e-05
3.85815e-05
3.83379e-05
3.80808e-05
3.78096e-05
3.75235e-05
3.72218e-05
3.75517e-05
3.73899e-05
3.72158e-05
3.7031e-05
3.68353e-05
3.66283e-05
3.64099e-05
3.61792e-05
3.59353e-05
3.56773e-05
3.56342e-05
3.54863e-05
3.53292e-05
3.51626e-05
3.49865e-05
3.48003e-05
3.46035e-05
3.4395e-05
3.41736e-05
3.39613e-05
3.38338e-05
3.36982e-05
3.35544e-05
3.34024e-05
3.32418e-05
3.30721e-05
3.28923e-05
3.27014e-05
3.23518e-05
3.22374e-05
3.2116e-05
3.19879e-05
3.18531e-05
3.17114e-05
3.15625e-05
3.14055e-05
3.07782e-05
3.067e-05
3.05564e-05
3.04378e-05
3.03145e-05
3.01864e-05
3.00531e-05
2.99141e-05
2.92212e-05
2.91144e-05
2.9004e-05
2.88909e-05
2.87752e-05
2.86568e-05
2.85355e-05
2.84109e-05
2.76812e-05
2.75736e-05
2.74646e-05
2.73548e-05
2.72446e-05
2.71336e-05
2.7022e-05
2.69095e-05
2.60661e-05
2.59575e-05
2.58497e-05
2.57431e-05
2.56375e-05
2.55337e-05
2.54307e-05
2.46368e-05
2.45276e-05
2.44206e-05
2.43158e-05
2.42142e-05
2.41159e-05
2.40198e-05
2.34068e-05
2.32964e-05
2.31882e-05
2.30831e-05
2.2982e-05
2.28846e-05
2.27914e-05
2.23811e-05
2.22707e-05
2.21617e-05
2.20557e-05
2.19528e-05
2.18538e-05
2.17599e-05
2.1416e-05
2.1307e-05
2.11987e-05
2.10922e-05
2.09878e-05
2.08873e-05
2.0791e-05
2.04532e-05
2.03432e-05
2.0233e-05
2.01232e-05
2.00157e-05
1.99122e-05
1.98129e-05
1.95151e-05
1.93976e-05
1.92767e-05
1.91538e-05
1.90319e-05
1.89132e-05
1.85564e-05
1.84234e-05
1.82851e-05
1.81433e-05
1.80003e-05
1.78578e-05
1.74174e-05
1.7222e-05
1.70205e-05
1.6818e-05
1.66203e-05
1.64324e-05
1.5737e-05
1.54179e-05
1.50769e-05
1.47201e-05
1.4355e-05
1.39588e-05
1.35986e-05
1.32584e-05
1.29537e-05
1.27011e-05
1.38756e-05
1.36448e-05
1.34679e-05
1.33432e-05
1.3265e-05
1.8795e-05
1.94791e-05
2.0122e-05
2.07145e-05
2.12483e-05
2.89528e-05
2.91966e-05
2.93879e-05
2.95293e-05
2.96281e-05
4.03706e-05
4.0628e-05
4.08161e-05
4.09394e-05
4.10104e-05
)
;

boundaryField
{
    inlet
    {
        type            calculated;
        value           nonuniform List<scalar> 5(7.09795e-05 7.19578e-05 7.28272e-05 7.35931e-05 7.42603e-05);
    }
    outlet
    {
        type            calculated;
        value           nonuniform List<scalar> 0();
    }
    walls
    {
        type            calculated;
        value           uniform 0;
    }
    frontAndBack
    {
        type            empty;
    }
    procBoundary1to0
    {
        type            processor;
        value           nonuniform List<scalar> 
94
(
0.000936857
0.000936857
0.000868259
0.000868259
0.000800049
0.000800049
0.000733343
0.000733343
0.000668295
0.000668295
0.000606867
0.000606867
0.000554155
0.000504857
0.000504857
0.000464494
0.000424825
0.000424825
0.000393152
0.000364541
0.000335594
0.000335594
0.000312407
0.000288491
0.000288491
0.000269383
0.000251785
0.000233454
0.000233454
0.000218679
0.000204982
0.000190626
0.000190626
0.000178985
0.000166682
0.000166682
0.000156731
0.000147455
0.000137605
0.000137605
0.000129641
0.000122206
0.000114281
0.000114281
0.000107888
0.000101917
9.55305e-05
9.55305e-05
9.03943e-05
8.55894e-05
8.04447e-05
8.04447e-05
7.63039e-05
7.24235e-05
6.82727e-05
6.82727e-05
6.49157e-05
6.17584e-05
5.87859e-05
5.56461e-05
5.56461e-05
5.30447e-05
5.05761e-05
4.82254e-05
4.57582e-05
4.57582e-05
4.36258e-05
4.15698e-05
3.95911e-05
3.7697e-05
3.57719e-05
3.57719e-05
3.40797e-05
3.2458e-05
3.08795e-05
2.93228e-05
2.77851e-05
2.6175e-05
2.6175e-05
2.47477e-05
2.35198e-05
2.24927e-05
2.15245e-05
2.05617e-05
1.9628e-05
1.86827e-05
1.76004e-05
1.60296e-05
1.60296e-05
1.43262e-05
1.41559e-05
1.80634e-05
2.86676e-05
4.00352e-05
)
;
    }
    procBoundary1to2
    {
        type            processor;
        value           nonuniform List<scalar> 
84
(
0.244662
0.0396026
0.0179031
0.00340511
0.00161747
2.16906e-05
0.000118499
0.000141073
0.000157975
0.000145272
0.000146271
0.000141069
0.000138545
0.000134819
0.000131377
0.000127547
0.00012359
0.000119405
0.000115028
0.000110449
0.000105675
0.000100706
9.55489e-05
9.02113e-05
8.4699e-05
7.90241e-05
7.32027e-05
6.72592e-05
6.12356e-05
5.52171e-05
4.93747e-05
4.40705e-05
3.99789e-05
3.79433e-05
3.81879e-05
3.99207e-05
4.21684e-05
4.43554e-05
5.20895e-05
5.20895e-05
5.24618e-05
5.27276e-05
5.28333e-05
5.27541e-05
5.2485e-05
5.20329e-05
5.14112e-05
5.06373e-05
4.97308e-05
4.871e-05
4.75927e-05
4.63936e-05
4.51244e-05
4.44843e-05
4.44843e-05
4.30098e-05
4.15019e-05
3.99704e-05
3.8431e-05
3.69029e-05
3.54032e-05
3.39377e-05
3.24975e-05
3.12393e-05
3.12393e-05
2.97683e-05
2.8282e-05
2.67948e-05
2.53278e-05
2.39266e-05
2.27024e-05
2.16702e-05
2.06988e-05
1.97185e-05
1.87992e-05
1.87992e-05
1.77177e-05
1.62588e-05
1.39905e-05
1.25138e-05
1.32189e-05
2.17156e-05
2.96956e-05
4.10399e-05
)
;
    }
    procBoundary1to5
    {
        type            processor;
        value           nonuniform List<scalar> 
13
(
0.0101849
0.0101849
0.00439779
0.00342281
0.00342281
0.00237237
0.00197622
0.00197622
0.00155024
0.00134886
0.00118507
0.00118507
0.0010028
)
;
    }
}


// ************************************************************************* //
