/*--------------------------------*- C++ -*----------------------------------*\
| =========                 |                                                 |
| \\      /  F ield         | OpenFOAM: The Open Source CFD Toolbox           |
|  \\    /   O peration     | Version:  2506                                  |
|   \\  /    A nd           | Website:  www.openfoam.com                      |
|    \\/     M anipulation  |                                                 |
\*---------------------------------------------------------------------------*/
FoamFile
{
    version     2.0;
    format      ascii;
    arch        "LSB;label=32;scalar=64";
    class       volScalarField;
    location    "400";
    object      turbulenceProperties:L;
}
// * * * * * * * * * * * * * * * * * * * * * * * * * * * * * * * * * * * * * //

dimensions      [0 1 0 0 0 0 0];

internalField   nonuniform List<scalar> 
1340
(
0.00403408
0.00396956
0.00348029
0.00297189
0.0026007
0.0023772
0.00228677
0.00231393
0.0024469
0.00268211
0.00302787
0.0035075
0.00416049
0.00506184
0.00630314
0.00810033
0.0106569
0.0146864
0.0206334
0.0304449
0.0433101
0.0512757
0.0542886
0.0551795
0.0555188
0.0557283
0.0558724
0.0559807
0.00464794
0.00495708
0.00530273
0.00572802
0.00624553
0.00682954
0.00747727
0.00820249
0.00901977
0.0099435
0.0110085
0.0122572
0.0138297
0.0160363
0.0198628
0.0282127
0.0605259
0.233842
0.116424
0.0106148
0.0213819
0.0578543
0.107137
0.156023
0.19457
0.215836
0.222319
0.221015
0.217005
0.0052009
0.00548586
0.00579789
0.006182
0.00669463
0.00733611
0.00809999
0.00899242
0.0100035
0.0111269
0.0123242
0.013544
0.0147006
0.0157429
0.0166075
0.017255
0.0176527
0.0178904
0.0179241
0.017957
0.0174186
0.0228417
0.0157179
0.0446894
0.101285
0.175196
0.221674
0.241581
0.252161
0.00565981
0.00587259
0.00612761
0.00643188
0.00681955
0.00730438
0.00786759
0.00849126
0.00916733
0.00988482
0.0106366
0.011403
0.0121667
0.0129046
0.0136158
0.0142893
0.0149394
0.0156042
0.016409
0.0173811
0.018336
0.0191712
0.0198509
0.0207708
0.0221758
0.0255567
0.0322344
0.0458682
0.156931
0.240332
0.00634814
0.00655208
0.00679455
0.00708528
0.00745179
0.00790072
0.00842915
0.00903611
0.00972659
0.0105027
0.011364
0.0123029
0.0133033
0.0143392
0.0153902
0.0164311
0.0174563
0.0184901
0.0196693
0.0211332
0.0228227
0.0244977
0.0258938
0.0265993
0.0276268
0.0253434
0.0584768
0.0235864
0.0396275
0.0722419
0.00690187
0.00706186
0.00726049
0.00749346
0.00777413
0.00812439
0.00854725
0.00904132
0.00960448
0.0102366
0.0109348
0.0116914
0.0124947
0.0133283
0.0141727
0.0150139
0.0158438
0.0166744
0.0175448
0.0185618
0.0198307
0.0213174
0.0229298
0.024603
0.0263294
0.0280802
0.0298932
0.0319001
0.0357865
0.0448916
8.58406
0.00764002
0.00779999
0.00799229
0.00821902
0.00849252
0.00882626
0.00922326
0.00968447
0.0102112
0.0108063
0.0114711
0.0122037
0.0130002
0.0138516
0.014745
0.0156704
0.0166199
0.0175999
0.0186432
0.0198434
0.0213121
0.0230546
0.0250006
0.0270864
0.0292882
0.0315337
0.0335979
0.0351807
0.0362116
0.0374902
0.0391612
0.0084014
0.00856339
0.0087515
0.00897394
0.00924122
0.00956005
0.00993527
0.0103681
0.010861
0.0114179
0.0120402
0.0127258
0.0134717
0.014269
0.0151061
0.0159735
0.0168671
0.0177944
0.0187869
0.0199207
0.0212839
0.0228853
0.0246789
0.0266338
0.0287726
0.0311277
0.0336939
0.0364806
0.0395087
0.0427879
0.0456642
0.00906132
0.00919029
0.00935355
0.00953961
0.00975926
0.0100207
0.0103267
0.0106823
0.0110895
0.0115516
0.0120733
0.0126578
0.0133056
0.0140158
0.0147845
0.0156053
0.0164724
0.0173842
0.0183501
0.0193999
0.0205974
0.0220196
0.0236911
0.0255795
0.0276555
0.0299298
0.0324174
0.0350825
0.0377964
0.0403498
0.0424695
0.0438444
0.0100086
0.0101728
0.0103589
0.0105773
0.0108331
0.0111278
0.0114663
0.0118505
0.0122846
0.0127746
0.0133237
0.0139338
0.0146064
0.0153388
0.0161279
0.0169702
0.0178655
0.0188236
0.0198712
0.0210596
0.0224546
0.0240811
0.0259173
0.0279419
0.0301706
0.0326328
0.0353312
0.0382326
0.0412921
0.0442903
0.0469395
0.011024
0.0112114
0.0114296
0.0116803
0.011965
0.0122885
0.0126526
0.0130615
0.0135217
0.0140379
0.0146131
0.0152507
0.0159512
0.0167135
0.0175373
0.018426
0.01939
0.0204542
0.0216631
0.0230726
0.0247102
0.0265664
0.0286263
0.0309028
0.0334189
0.0361671
0.039085
0.0420446
0.044767
0.046962
0.0120995
0.0123182
0.0125647
0.0128409
0.0131511
0.0134971
0.0138833
0.0143171
0.0148029
0.0153453
0.0159498
0.0166184
0.0173534
0.0181562
0.019031
0.0199895
0.0210559
0.0222691
0.0236737
0.0252981
0.0271403
0.0291913
0.0314639
0.0339811
0.0367462
0.0397162
0.0428105
0.0457957
0.0483372
0.0132455
0.0134886
0.0137574
0.014056
0.0143863
0.0147525
0.0151617
0.0156202
0.016133
0.0167064
0.0173447
0.0180524
0.0188336
0.0196949
0.0206489
0.0217189
0.0229383
0.024346
0.0259691
0.0278132
0.0298756
0.0321691
0.0347164
0.0375212
0.0405383
0.0436714
0.0466754
0.0492046
0.0144546
0.0147174
0.0150061
0.0153223
0.0156704
0.0160582
0.0164914
0.0169765
0.0175213
0.0181312
0.0188122
0.0195712
0.0204173
0.0213638
0.0224331
0.0236538
0.0250597
0.0266779
0.0285179
0.0305828
0.0328869
0.0354527
0.0382877
0.0413544
0.0445722
0.0477145
0.0504374
0.0157233
0.0160035
0.0163076
0.0166401
0.0170085
0.0174193
0.0178791
0.0183969
0.01898
0.0196362
0.0203739
0.0212035
0.0221395
0.0232046
0.0244268
0.0258339
0.0274501
0.0292896
0.0313615
0.0336822
0.0362747
0.0391501
0.0422756
0.0455745
0.0488233
0.0516821
0.0167783
0.0170515
0.017345
0.0176635
0.018015
0.0184054
0.0188431
0.0193366
0.0198948
0.0205269
0.0212433
0.0220563
0.0229813
0.0240413
0.0252612
0.0266667
0.0282803
0.0301199
0.0321985
0.0345353
0.0371551
0.0400727
0.0432627
0.0466589
0.050051
0.0531059
0.0181526
0.0184374
0.0187443
0.0190806
0.0194534
0.0198706
0.0203422
0.0208772
0.0214868
0.0221824
0.0229779
0.0238911
0.0249445
0.0261618
0.0275654
0.0291784
0.0310195
0.0331069
0.0354628
0.038114
0.0410804
0.0443448
0.0478505
0.0513992
0.054666
0.0193105
0.019588
0.0198848
0.0202085
0.0205658
0.0209651
0.0214169
0.021931
0.0225196
0.0231957
0.0239743
0.0248736
0.0259177
0.0271316
0.0285358
0.0301487
0.0319924
0.0340896
0.0364665
0.0391528
0.0421738
0.0455226
0.0491542
0.0528871
0.0564086
0.0208002
0.0210887
0.0214017
0.0217459
0.0221296
0.0225638
0.0230593
0.0236285
0.0242856
0.0250477
0.0259346
0.0269709
0.0281799
0.0295814
0.0311947
0.0330432
0.0351531
0.0375545
0.0402811
0.0433646
0.0468103
0.050586
0.0545318
0.05835
0.0220776
0.0223599
0.0226639
0.0229968
0.0233673
0.0237863
0.0242648
0.0248168
0.025457
0.026203
0.0270766
0.028104
0.0293085
0.0307087
0.0323243
0.0341796
0.0363045
0.0387335
0.0415054
0.0446595
0.0482154
0.0521563
0.0563501
0.0605189
0.0234243
0.0237018
0.0239989
0.0243226
0.024682
0.025088
0.025552
0.0260881
0.0267126
0.0274446
0.0283058
0.0293236
0.0305231
0.031924
0.0335437
0.0354075
0.0375499
0.0400104
0.0428338
0.0460683
0.0497499
0.0538812
0.058365
0.0629493
0.0251181
0.0254104
0.0257273
0.0260775
0.0264726
0.0269243
0.0274471
0.0280577
0.028776
0.0296261
0.0306363
0.0318323
0.0332332
0.0348575
0.0367325
0.0388959
0.0413928
0.0442751
0.0476013
0.0514255
0.0557764
0.0605997
0.0656804
0.0266138
0.0269028
0.0272143
0.0275579
0.0279446
0.028386
0.0288974
0.0294963
0.030203
0.0310429
0.0320461
0.033239
0.0346417
0.0362724
0.0381621
0.0403505
0.042889
0.0458373
0.0492666
0.053253
0.0578568
0.0630783
0.0687557
0.0284802
0.0287891
0.0291279
0.029508
0.0299414
0.0304436
0.0310324
0.0317291
0.0325603
0.0335576
0.0347492
0.0361559
0.0377971
0.039703
0.0419205
0.0445061
0.0475286
0.0510741
0.0552441
0.0601376
0.0658249
0.072225
0.0301476
0.0304553
0.0307917
0.0311676
0.0315952
0.0320902
0.0326715
0.0333605
0.0341851
0.0351781
0.0363697
0.0377813
0.039435
0.0413613
0.0436125
0.046251
0.0493572
0.053033
0.0574094
0.0626335
0.0688654
0.0761466
0.0319095
0.0322182
0.0325538
0.0329276
0.0333521
0.0338423
0.0344176
0.0351009
0.0359212
0.0369129
0.0381073
0.0395273
0.0411948
0.0431458
0.0454348
0.0481329
0.051332
0.055152
0.0597586
0.0653598
0.0722268
0.0805834
0.0340826
0.0344198
0.0347936
0.0352163
0.0357042
0.0362764
0.0369562
0.0377738
0.038766
0.0399648
0.0413954
0.0430807
0.0450596
0.0473918
0.0501564
0.0534571
0.0574365
0.0622984
0.0683229
0.0759251
0.0855983
0.036053
0.0363938
0.0367699
0.0371937
0.0376813
0.0382526
0.0389316
0.0397493
0.0407441
0.0419502
0.0433939
0.0451005
0.0471116
0.0494918
0.052329
0.05574
0.0598921
0.0650322
0.0715246
0.0799671
0.0912445
0.0381351
0.0384815
0.0388619
0.0392888
0.0397785
0.0403511
0.0410312
0.0418515
0.0428516
0.0440678
0.0455285
0.047259
0.0493059
0.0517384
0.0546534
0.058183
0.0625184
0.0679566
0.0749577
0.0843432
0.0975486
0.0406883
0.041075
0.0415067
0.0420004
0.0425768
0.0432607
0.0440861
0.0450943
0.0463229
0.0478022
0.0495608
0.0516464
0.0541356
0.0571331
0.060787
0.0653145
0.0710634
0.0786021
0.0890098
0.104465
0.0430183
0.0434136
0.0438526
0.0443527
0.0449349
0.0456248
0.0464569
0.0474756
0.0487202
0.050221
0.0520098
0.0541371
0.0566854
0.0597687
0.0635492
0.0682717
0.0743332
0.0824164
0.0938805
0.111824
0.045883
0.0463311
0.0468396
0.0474292
0.0481268
0.0489686
0.0499999
0.0512621
0.0527875
0.0546082
0.0567796
0.0593886
0.0625579
0.0664632
0.0713748
0.0777392
0.0863435
0.0988214
0.11926
0.048488
0.0489469
0.0494655
0.0500649
0.0507729
0.0516258
0.0526711
0.0539525
0.0555035
0.0573584
0.0595745
0.0622434
0.0654951
0.0695192
0.0746061
0.0812432
0.0903047
0.103642
0.126172
0.0512336
0.0517052
0.0522351
0.0528455
0.0535641
0.0544299
0.0554919
0.0567946
0.0583723
0.0602606
0.0625193
0.0652451
0.0685733
0.0727035
0.0779405
0.0847991
0.0942081
0.108129
0.131828
0.0546093
0.0551518
0.0557748
0.0565061
0.0573857
0.0584637
0.0597876
0.0613923
0.0633134
0.0656125
0.0683892
0.0717828
0.0759975
0.0813482
0.0883565
0.0979589
0.112083
0.13565
0.0576636
0.0582202
0.0588559
0.0596001
0.060494
0.0615892
0.0629339
0.0645638
0.0665144
0.0688487
0.0716672
0.0751102
0.0793837
0.0848001
0.0918695
0.101482
0.115377
0.137529
0.0608724
0.0614428
0.0620916
0.0628496
0.0637572
0.0648685
0.0662328
0.0678847
0.0698608
0.0722229
0.0750707
0.0785435
0.0828432
0.0882684
0.0952981
0.104727
0.117989
0.137837
0.0648228
0.0654852
0.0662554
0.0671759
0.068302
0.0696835
0.0713546
0.0733491
0.0757284
0.0785903
0.0820697
0.0863567
0.0917309
0.0986176
0.107684
0.120004
0.137186
0.0683637
0.0690382
0.0698199
0.070752
0.0718906
0.0732849
0.0749688
0.0769742
0.0793596
0.0822184
0.0856778
0.0899129
0.0951744
0.101824
0.110383
0.121579
0.0720681
0.0727538
0.0735452
0.0744862
0.0756331
0.0770362
0.0787264
0.0807334
0.0831113
0.0859475
0.0893592
0.0935037
0.0985953
0.104927
0.112882
0.12289
0.0766335
0.0774323
0.0783795
0.0795313
0.0809374
0.0826264
0.0846234
0.0869794
0.0897736
0.093111
0.0971278
0.102002
0.107958
0.115256
0.124108
0.0806805
0.0814846
0.082434
0.0835851
0.0849875
0.0866668
0.0886434
0.0909629
0.0936957
0.0969337
0.100791
0.10541
0.110955
0.117585
0.125368
0.0848993
0.0857035
0.0866503
0.0877967
0.089189
0.0908492
0.0927937
0.0950616
0.0977154
0.100832
0.104506
0.108844
0.113963
0.119946
0.126775
0.0900928
0.0910343
0.0921692
0.0935432
0.0951755
0.0970771
0.0992806
0.10184
0.104818
0.108289
0.112334
0.117027
0.122405
0.128399
0.0946579
0.0955871
0.0967048
0.0980539
0.0996497
0.101498
0.103625
0.106076
0.108902
0.112161
0.115909
0.120192
0.125014
0.130291
0.0994017
0.100315
0.101411
0.102728
0.104278
0.106063
0.108104
0.110437
0.113102
0.116143
0.1196
0.123496
0.127818
0.132481
0.105224
0.10629
0.107569
0.109066
0.110781
0.112727
0.114935
0.117435
0.12026
0.123436
0.126973
0.13085
0.13499
0.110319
0.111352
0.112586
0.114024
0.115661
0.117507
0.119585
0.121919
0.124533
0.127443
0.130652
0.134136
0.13783
0.11561
0.116603
0.117786
0.11916
0.120715
0.122457
0.124404
0.126576
0.128987
0.131648
0.134559
0.137698
0.141011
0.121103
0.122054
0.123183
0.124488
0.125957
0.127594
0.129412
0.131425
0.133645
0.136078
0.138721
0.141556
0.144543
0.127718
0.128789
0.130023
0.131407
0.132939
0.134632
0.136495
0.138536
0.14076
0.143164
0.145734
0.148441
0.133613
0.134627
0.135791
0.13709
0.138522
0.140096
0.141818
0.143696
0.145732
0.147924
0.150263
0.152728
0.139767
0.140725
0.141823
0.143042
0.144381
0.145844
0.147439
0.149169
0.151037
0.153042
0.155179
0.146217
0.147126
0.148163
0.14931
0.150564
0.151929
0.153408
0.155007
0.156727
0.158569
0.160531
0.15388
0.154864
0.155948
0.157128
0.158405
0.159783
0.161265
0.162855
0.164554
0.166364
0.16104
0.16198
0.163009
0.164122
0.165322
0.166609
0.167989
0.169463
0.171036
0.172712
0.168648
0.169548
0.170527
0.171579
0.172707
0.173911
0.175197
0.176567
0.178027
0.179583
0.17672
0.177579
0.178506
0.179498
0.180555
0.18168
0.182877
0.18415
0.185506
0.186953
0.185237
0.186048
0.186921
0.18785
0.188837
0.189886
0.190999
0.192182
0.193443
0.19479
0.194932
0.19575
0.196619
0.197542
0.198521
0.199561
0.200665
0.201842
0.203101
0.204251
0.205028
0.205855
0.206732
0.20766
0.208643
0.209687
0.210797
0.211983
0.21413
0.2149
0.215715
0.216576
0.217483
0.218438
0.219444
0.220509
0.224796
0.225601
0.226446
0.227328
0.228245
0.2292
0.230195
0.231235
0.236494
0.237377
0.238289
0.239224
0.240181
0.241162
0.242168
0.243204
0.249376
0.250367
0.251372
0.252386
0.253405
0.254433
0.255468
0.256513
0.264579
0.2657
0.266817
0.267923
0.26902
0.270101
0.271174
0.279669
0.280932
0.282174
0.283394
0.28458
0.285731
0.286855
0.294155
0.29557
0.296962
0.298322
0.299633
0.300901
0.302116
0.307465
0.309013
0.310549
0.312051
0.313515
0.314929
0.316274
0.321143
0.322814
0.324482
0.326131
0.327757
0.329332
0.330843
0.33608
0.337928
0.339791
0.341659
0.343499
0.345283
0.347003
0.352051
0.354217
0.356464
0.358768
0.361074
0.363342
0.370049
0.37276
0.375609
0.378565
0.381585
0.384633
0.394061
0.398574
0.40333
0.408213
0.413084
0.417817
0.436023
0.445095
0.455198
0.466259
0.478137
0.491453
0.504539
0.517547
0.529773
0.54035
0.494418
0.502854
0.509523
0.514336
0.517409
0.36517
0.352425
0.341232
0.331526
0.32324
0.236708
0.234743
0.233222
0.232109
0.231336
0.169765
0.168702
0.16793
0.167424
0.167126
)
;

boundaryField
{
    inlet
    {
        type            calculated;
        value           nonuniform List<scalar> 5(0.104169 0.102756 0.101531 0.100475 0.09957);
    }
    outlet
    {
        type            calculated;
        value           nonuniform List<scalar> 0();
    }
    walls
    {
        type            calculated;
        value           uniform 0;
    }
    frontAndBack
    {
        type            empty;
    }
    procBoundary1to0
    {
        type            processor;
        value           nonuniform List<scalar> 
94
(
0.00987418
0.00987418
0.0108587
0.0108587
0.0119099
0.0119099
0.0130256
0.0130256
0.0142138
0.0142138
0.0154653
0.0154653
0.0165241
0.0178852
0.0178852
0.0190474
0.0205282
0.0205282
0.0218097
0.0231586
0.0248434
0.0248434
0.0263402
0.0281921
0.0281921
0.0298591
0.031618
0.0337704
0.0337704
0.035736
0.0378113
0.040334
0.040334
0.0426543
0.0454777
0.0454777
0.0480712
0.0508028
0.0541246
0.0541246
0.0571643
0.0603574
0.0642385
0.0642385
0.0677657
0.0714572
0.0759392
0.0759392
0.0799789
0.0841933
0.0892904
0.0892904
0.0938624
0.0986174
0.104332
0.104332
0.109453
0.114774
0.120302
0.126814
0.126814
0.132755
0.138955
0.145447
0.153014
0.153014
0.16021
0.167849
0.175953
0.184509
0.19417
0.19417
0.203528
0.213413
0.22404
0.235654
0.24842
0.263457
0.263457
0.278392
0.292714
0.305908
0.319489
0.334269
0.349983
0.367501
0.38991
0.428007
0.428007
0.478771
0.48454
0.379866
0.239048
0.171163
)
;
    }
    procBoundary1to2
    {
        type            processor;
        value           nonuniform List<scalar> 
84
(
0.0560831
0.212398
0.258857
0.235054
0.118288
0.667182
0.0619148
0.0487393
0.0436562
0.0475331
0.0472695
0.0490726
0.0500328
0.0514864
0.0529083
0.0545722
0.0563958
0.0584513
0.060756
0.0633568
0.0663029
0.0696598
0.0735068
0.0779442
0.0831061
0.0891639
0.0963451
0.104949
0.115362
0.128025
0.143259
0.160581
0.177086
0.18664
0.185478
0.17744
0.167975
0.159668
0.136149
0.136149
0.135134
0.134388
0.134039
0.134145
0.134723
0.135771
0.137278
0.139228
0.141607
0.144405
0.147615
0.15124
0.155294
0.157437
0.157437
0.162609
0.168285
0.174495
0.181242
0.188499
0.196234
0.204454
0.213259
0.221641
0.221641
0.23233
0.244278
0.257579
0.272247
0.287947
0.303277
0.317561
0.332297
0.348645
0.365536
0.365536
0.387669
0.422278
0.490599
0.548469
0.519243
0.316317
0.23081
0.166989
)
;
    }
    procBoundary1to5
    {
        type            processor;
        value           nonuniform List<scalar> 
13
(
0.00351487
0.00351487
0.00438254
0.00498485
0.00498485
0.00549484
0.00619156
0.00619156
0.00678716
0.00752192
0.00827713
0.00827713
0.00895955
)
;
    }
}


// ************************************************************************* //
