/*--------------------------------*- C++ -*----------------------------------*\
| =========                 |                                                 |
| \\      /  F ield         | OpenFOAM: The Open Source CFD Toolbox           |
|  \\    /   O peration     | Version:  2506                                  |
|   \\  /    A nd           | Website:  www.openfoam.com                      |
|    \\/     M anipulation  |                                                 |
\*---------------------------------------------------------------------------*/
FoamFile
{
    version     2.0;
    format      ascii;
    arch        "LSB;label=32;scalar=64";
    class       volVectorField;
    location    "400";
    object      U;
}
// * * * * * * * * * * * * * * * * * * * * * * * * * * * * * * * * * * * * * //

dimensions      [0 1 -1 0 0 0 0];

internalField   nonuniform List<vector> 
1340
(
(1.36439 2.18882 5.48267e-15)
(3.32266 -0.13951 -1.64501e-15)
(5.553 -2.15989 5.0879e-16)
(7.84877 -3.66176 1.74119e-15)
(9.96511 -4.62794 2.62232e-15)
(11.8356 -5.18647 8.17039e-16)
(13.4722 -5.46193 -1.3887e-15)
(14.9 -5.55117 -1.24463e-15)
(16.1499 -5.51722 6.67136e-16)
(17.2526 -5.40769 2.50562e-16)
(18.2406 -5.2515 8.37583e-16)
(19.145 -5.06815 -6.87911e-16)
(19.9876 -4.8604 -1.3572e-16)
(20.7866 -4.62979 -5.97339e-16)
(21.5528 -4.36685 2.95515e-16)
(22.2875 -4.05759 8.09218e-16)
(22.9598 -3.67699 -2.7182e-16)
(23.5021 -3.22513 -3.03586e-16)
(23.897 -2.74548 -2.94831e-16)
(24.175 -2.27773 -8.40504e-18)
(24.3721 -1.77844 9.26109e-18)
(24.5037 -1.18113 1.2358e-19)
(24.5699 -0.51306 -3.41157e-18)
(24.5503 0.159841 7.46473e-17)
(24.4305 0.789601 5.57193e-17)
(24.2114 1.3536 1.25333e-16)
(23.9018 1.84542 3.63629e-16)
(23.5017 2.26734 9.75908e-18)
(2.40263 6.03983 -2.72085e-15)
(3.58768 3.43891 -4.60251e-15)
(5.08025 1.14188 3.07486e-15)
(6.84371 -0.758208 -1.62471e-15)
(8.73744 -2.12439 2.21165e-16)
(10.5866 -3.01232 -5.08471e-16)
(12.3097 -3.54995 2.78653e-17)
(13.8829 -3.83701 1.49372e-16)
(15.3008 -3.95451 5.00025e-16)
(16.5748 -3.95472 -9.10422e-16)
(17.7215 -3.88206 9.77879e-16)
(18.7646 -3.7616 -2.29135e-16)
(19.7282 -3.6112 -4.23721e-16)
(20.6353 -3.42809 -2.94986e-16)
(21.5012 -3.20995 -6.66841e-16)
(22.3382 -2.93941 -7.29375e-16)
(23.1482 -2.59509 -7.90777e-16)
(23.9088 -2.13663 3.15254e-16)
(24.5677 -1.57144 -2.11983e-17)
(25.099 -0.963324 1.34864e-16)
(25.5135 -0.336454 9.93709e-17)
(25.8055 0.273769 5.90577e-18)
(25.967 0.821306 -1.18843e-19)
(26.0005 1.28865 2.20735e-18)
(25.9349 1.68399 -4.281e-17)
(25.7971 2.03013 -1.89976e-17)
(25.5971 2.3467 -1.76811e-16)
(25.3361 2.64221 -1.28439e-16)
(25.0049 2.92011 -2.58668e-17)
(4.92873 6.75363 1.2497e-15)
(5.69821 4.40207 1.86471e-15)
(6.78417 2.29673 1.61156e-15)
(8.13891 0.507269 -1.39259e-15)
(9.63649 -0.905567 -1.02371e-15)
(11.1564 -1.96299 2.63523e-16)
(12.627 -2.72627 9.91705e-16)
(14.0131 -3.25344 1.40284e-15)
(15.2976 -3.59508 -2.76236e-16)
(16.4787 -3.79449 -3.25747e-17)
(17.5627 -3.88965 9.48145e-16)
(18.5631 -3.90676 1.80345e-17)
(19.4969 -3.86401 7.18354e-16)
(20.3814 -3.76664 6.41901e-16)
(21.2291 -3.6168 1.49359e-15)
(22.0489 -3.40624 1.5561e-15)
(22.8409 -3.12154 6.87057e-16)
(23.5858 -2.74229 1.34657e-16)
(24.2405 -2.28354 -1.24786e-16)
(24.7806 -1.79446 3.59541e-16)
(25.2165 -1.29722 -6.97889e-17)
(25.5617 -0.796781 -3.84974e-17)
(25.8216 -0.289633 2.72243e-18)
(25.9965 0.226062 3.60297e-19)
(26.0885 0.750029 1.64326e-17)
(26.0991 1.27189 3.97918e-17)
(26.028 1.7735 5.65478e-17)
(25.8751 2.23925 1.59582e-17)
(25.6309 2.66169 -1.92198e-16)
(6.83595 9.38074 7.9586e-16)
(7.03834 7.15958 -9.87522e-16)
(7.54194 5.05827 1.19226e-17)
(8.32462 3.13446 3.43404e-16)
(9.35354 1.45264 2.38278e-15)
(10.5377 0.0660504 1.75326e-16)
(11.7925 -1.01955 6.77827e-16)
(13.0582 -1.83596 -1.85336e-15)
(14.2937 -2.42408 -1.14695e-15)
(15.4739 -2.82325 3.44682e-16)
(16.5865 -3.07256 1.98569e-16)
(17.6289 -3.20613 -9.52817e-16)
(18.6051 -3.25102 9.43233e-17)
(19.5249 -3.22691 -2.3027e-16)
(20.3999 -3.14324 5.98287e-16)
(21.2392 -3.00323 -6.30145e-16)
(22.0491 -2.80141 -9.16677e-16)
(22.8287 -2.52653 1.14684e-16)
(23.5615 -2.16106 2.24664e-16)
(24.2117 -1.71068 4.36473e-16)
(24.7554 -1.21289 -3.19594e-16)
(25.1974 -0.69076 -4.04915e-17)
(25.549 -0.155344 1.3926e-17)
(25.8149 0.382866 -4.18178e-18)
(25.9978 0.908832 -2.53817e-18)
(26.1032 1.40673 3.72288e-18)
(26.1373 1.86089 -8.66366e-18)
(26.1041 2.26812 -8.00676e-18)
(26.0052 2.63153 2.10391e-17)
(25.831 2.95787 1.99476e-16)
(8.76622 9.35143 -1.15389e-15)
(8.83376 7.39035 3.56815e-15)
(9.15433 5.50433 -2.81214e-15)
(9.71851 3.75577 -1.11536e-17)
(10.5022 2.19693 3.55402e-17)
(11.4407 0.868546 -3.50141e-16)
(12.471 -0.216319 -5.13729e-16)
(13.5452 -1.07517 -1.0363e-15)
(14.6253 -1.73501 1.26899e-15)
(15.684 -2.22165 5.40888e-16)
(16.7052 -2.56473 -1.13598e-16)
(17.6806 -2.79058 2.87753e-16)
(18.6082 -2.92145 -5.25893e-16)
(19.4922 -2.97399 3.54808e-16)
(20.3393 -2.95803 -3.43157e-16)
(21.1556 -2.87698 3.86283e-16)
(21.9449 -2.72764 3.54813e-16)
(22.7052 -2.50188 -6.26417e-17)
(23.4216 -2.18892 -5.29101e-16)
(24.0638 -1.79482 -1.3149e-16)
(24.6086 -1.35144 -4.53589e-17)
(25.0564 -0.884029 1.09789e-16)
(25.4161 -0.405348 1.21366e-18)
(25.6916 0.0752286 -3.11585e-18)
(25.8851 0.547582 1.95212e-17)
(26 1.0035 8.59594e-18)
(26.0419 1.44299 -3.95979e-18)
(26.0147 1.86612 5.56533e-18)
(25.9218 2.26936 6.89314e-18)
(25.7576 2.6495 3.32482e-17)
(10.644 10.9597 -5.55115e-16)
(10.3998 9.24908 1.10167e-15)
(10.3732 7.5003 -9.85794e-16)
(10.5651 5.8001 -8.66026e-16)
(10.9701 4.21073 -9.55906e-16)
(11.5677 2.77122 -9.56738e-16)
(12.3122 1.51456 1.47026e-15)
(13.1562 0.457829 -7.14319e-16)
(14.0634 -0.407403 7.96166e-16)
(15.0016 -1.09773 1.52568e-16)
(15.945 -1.62894 -2.39962e-16)
(16.8762 -2.02232 -6.69022e-16)
(17.7842 -2.29779 -5.28999e-16)
(18.6627 -2.47364 2.90902e-16)
(19.5108 -2.56454 -1.29499e-16)
(20.331 -2.58038 -3.94687e-16)
(21.1259 -2.52571 -3.4883e-16)
(21.8966 -2.39965 -2.4803e-16)
(22.6397 -2.19656 3.1034e-16)
(23.3417 -1.90896 -1.02688e-16)
(23.9761 -1.54127 -2.94851e-16)
(24.5208 -1.1188 3.28834e-16)
(24.973 -0.664953 2.20533e-17)
(25.3387 -0.192138 2.18085e-18)
(25.6213 0.290653 4.27194e-18)
(25.8222 0.772907 -2.63255e-17)
(25.9447 1.24529 -4.03693e-18)
(25.9938 1.69806 1.2203e-17)
(25.9732 2.12131 -5.31149e-18)
(25.8861 2.509 -2.1275e-17)
(25.7266 2.85961 8.9117e-17)
(12.0724 10.6324 -2.65681e-16)
(11.7992 9.10501 1.1745e-16)
(11.7087 7.53179 1.17133e-15)
(11.8083 5.99137 8.67976e-16)
(12.095 4.54396 3.71307e-16)
(12.5513 3.21762 -9.53256e-16)
(13.1432 2.03938 -4.59993e-16)
(13.8348 1.02661 7.47804e-16)
(14.5985 0.17457 8.08992e-17)
(15.4083 -0.527167 -3.10977e-17)
(16.2414 -1.08797 -5.43316e-16)
(17.0817 -1.52285 4.44805e-16)
(17.9171 -1.84619 9.94299e-16)
(18.7389 -2.07166 -5.59123e-16)
(19.543 -2.21084 -6.36312e-17)
(20.3284 -2.27222 -5.74032e-16)
(21.0949 -2.25989 -2.90158e-16)
(21.8413 -2.17375 3.04526e-16)
(22.563 -2.00987 -7.26879e-16)
(23.2474 -1.76357 2.5132e-16)
(23.8711 -1.43908 3.35626e-16)
(24.4131 -1.05727 -1.13913e-16)
(24.8679 -0.640093 -9.69858e-17)
(25.2389 -0.200993 -1.88855e-17)
(25.5288 0.249871 -1.36546e-18)
(25.7385 0.7013 1.91829e-18)
(25.8707 1.14251 -3.97964e-17)
(25.9299 1.56551 6.92798e-17)
(25.9195 1.96678 -7.03186e-18)
(25.8417 2.34277 6.28995e-17)
(25.6907 2.69199 7.58144e-17)
(13.3039 10.3121 -3.24755e-18)
(13.0123 8.9363 -1.87338e-16)
(12.8778 7.51064 -1.97368e-15)
(12.9103 6.10863 7.97201e-16)
(13.1079 4.78661 -1.15076e-16)
(13.4558 3.5643 1.03493e-15)
(13.9274 2.46463 -5.72733e-16)
(14.4946 1.50388 5.34911e-16)
(15.1365 0.678682 -7.77635e-16)
(15.8325 -0.0178744 -5.9644e-16)
(16.5639 -0.590783 3.0977e-16)
(17.3167 -1.05033 3.35086e-16)
(18.0793 -1.40596 3.36383e-16)
(18.842 -1.66703 1.97803e-16)
(19.5989 -1.84203 -2.32214e-16)
(20.3465 -1.93774 9.28461e-16)
(21.0821 -1.95757 -2.70925e-16)
(21.8026 -1.9019 4.35138e-16)
(22.5022 -1.76801 4.53151e-16)
(23.1686 -1.55317 -1.63622e-18)
(23.7808 -1.26129 -8.82302e-17)
(24.3185 -0.909135 -6.98866e-17)
(24.7743 -0.516717 1.5198e-17)
(25.1495 -0.0976468 1.99075e-17)
(25.4453 0.337751 6.49698e-18)
(25.6624 0.778519 1.16122e-17)
(25.8026 1.21415 2.72383e-17)
(25.8696 1.63647 -1.33617e-16)
(25.8665 2.03745 -6.92678e-17)
(25.7955 2.41089 1.23324e-17)
(25.6507 2.75341 -1.52802e-16)
(14.7938 11.1733 -4.67414e-16)
(14.377 10.0023 -2.8457e-16)
(14.0746 8.75406 -6.76247e-16)
(13.9097 7.45413 -1.69555e-16)
(13.893 6.17256 8.6746e-16)
(14.0229 4.9611 6.57968e-16)
(14.2869 3.83383 -1.89511e-16)
(14.6633 2.81015 1.5873e-15)
(15.1292 1.90493 -3.97367e-17)
(15.6685 1.11492 1.16168e-15)
(16.2653 0.434898 4.70269e-16)
(16.9044 -0.137939 -4.24341e-16)
(17.5746 -0.610465 3.84453e-17)
(18.2654 -0.988603 -8.82592e-16)
(18.9676 -1.27827 5.82577e-17)
(19.6743 -1.48502 5.13059e-16)
(20.3805 -1.61358 2.1854e-17)
(21.0816 -1.66634 3.50094e-16)
(21.773 -1.64352 -4.41216e-16)
(22.4481 -1.54306 -2.83697e-16)
(23.0946 -1.36344 -5.06038e-16)
(23.6931 -1.10819 -3.14201e-16)
(24.2245 -0.791128 -2.01573e-17)
(24.6796 -0.430248 -8.7779e-17)
(25.0576 -0.0392452 -1.65343e-18)
(25.3587 0.371187 -6.41308e-18)
(25.5829 0.789911 -1.57519e-18)
(25.7314 1.20604 3.22516e-17)
(25.8074 1.61032 -1.69269e-17)
(25.8132 1.99637 1.37245e-16)
(25.7508 2.35839 -3.07172e-16)
(25.6142 2.69278 3.53146e-17)
(15.3212 9.70483 -7.70846e-16)
(15.0135 8.56533 2.17223e-15)
(14.8273 7.37398 1.1628e-15)
(14.7743 6.19797 4.17617e-16)
(14.8523 5.08419 -1.73148e-15)
(15.0508 4.04297 -9.84638e-16)
(15.3512 3.09109 -1.78508e-15)
(15.7346 2.24191 -1.6413e-15)
(16.1881 1.49157 -3.74853e-16)
(16.6991 0.835522 2.5417e-16)
(17.2558 0.272298 -2.68287e-16)
(17.8494 -0.203117 -3.42986e-16)
(18.4713 -0.593962 3.70835e-16)
(19.1133 -0.903545 -4.94486e-16)
(19.7685 -1.13496 5.42373e-17)
(20.4311 -1.29079 1.94443e-16)
(21.0954 -1.37203 3.94612e-16)
(21.7556 -1.3785 -1.7873e-16)
(22.4043 -1.30838 -1.00076e-16)
(23.0296 -1.16066 -8.1902e-17)
(23.6131 -0.938585 2.49206e-16)
(24.1363 -0.653457 -1.22825e-17)
(24.5889 -0.321104 5.51078e-17)
(24.9684 0.0451317 -7.82654e-18)
(25.2737 0.434413 -4.21932e-18)
(25.5041 0.835715 -1.34094e-17)
(25.6601 1.23805 -3.69299e-17)
(25.7441 1.63212 -1.1001e-16)
(25.758 2.01012 1.971e-17)
(25.7034 2.36483 3.07561e-16)
(25.5744 2.69147 3.60001e-16)
(15.8494 8.37458 -1.40182e-15)
(15.6486 7.27826 -9.12318e-16)
(15.5686 6.19518 1.09957e-15)
(15.6067 5.16811 1.53287e-15)
(15.7536 4.2047 2.4298e-16)
(15.9933 3.31977 1.0655e-15)
(16.3093 2.52536 1.00162e-15)
(16.6909 1.81682 -6.01251e-16)
(17.1283 1.18953 4.02762e-16)
(17.6121 0.642605 -1.04193e-16)
(18.1359 0.172189 6.91639e-16)
(18.6929 -0.223621 -4.24359e-16)
(19.2762 -0.546051 -6.92002e-16)
(19.8797 -0.796132 -2.40623e-16)
(20.4972 -0.97472 -5.78918e-16)
(21.1227 -1.08157 -5.11064e-16)
(21.7497 -1.11569 -4.51934e-16)
(22.3703 -1.07505 8.4076e-16)
(22.9727 -0.958794 5.19926e-16)
(23.5395 -0.769749 8.3807e-17)
(24.0526 -0.517074 2.83311e-16)
(24.501 -0.21463 4.79255e-17)
(24.8805 0.124798 1.29558e-17)
(25.189 0.490323 -1.42034e-18)
(25.4249 0.870955 -2.48233e-18)
(25.5881 1.25567 2.46052e-17)
(25.6801 1.63465 -3.66155e-18)
(25.7024 2.00006 7.06771e-17)
(25.6561 2.34447 1.53457e-16)
(25.5354 2.66244 -6.54299e-16)
(16.3881 7.1725 7.09306e-17)
(16.2878 6.17179 6.52128e-16)
(16.2951 5.22196 -1.9288e-15)
(16.4012 4.32909 -1.29104e-15)
(16.592 3.50616 8.64182e-16)
(16.8527 2.76404 1.26295e-15)
(17.1743 2.0975 -6.53876e-16)
(17.5488 1.50175 -9.16204e-17)
(17.9687 0.97589 -5.29752e-17)
(18.4294 0.516321 -1.73188e-16)
(18.9262 0.12206 6.36758e-16)
(19.4533 -0.206835 8.75203e-16)
(20.0057 -0.469906 8.1842e-17)
(20.5778 -0.666487 6.24473e-16)
(21.1633 -0.795087 2.15944e-16)
(21.7555 -0.853878 3.37313e-16)
(22.3466 -0.84047 -5.25735e-16)
(22.9248 -0.753738 -4.34935e-17)
(23.4732 -0.595857 -2.67164e-16)
(23.9745 -0.374264 -3.05667e-16)
(24.417 -0.100864 -1.14823e-16)
(24.7951 0.212353 2.83437e-17)
(25.1055 0.554635 9.41522e-18)
(25.346 0.915205 6.14753e-18)
(25.5156 1.28308 1.27239e-18)
(25.6151 1.64824 -3.65662e-17)
(25.6455 2.00233 1.05047e-17)
(25.6074 2.33703 -2.56272e-16)
(25.4951 2.64593 1.71503e-17)
(16.9419 6.13332 -1.71331e-15)
(16.9252 5.25277 4.5095e-16)
(16.9989 4.42374 8.16115e-16)
(17.15 3.65784 -1.41151e-15)
(17.3653 2.96512 -9.60812e-16)
(17.6368 2.33993 8.58293e-16)
(17.9576 1.77694 1.83601e-16)
(18.3218 1.27496 -5.8614e-16)
(18.7262 0.830563 5.51091e-16)
(19.1676 0.443019 -2.8619e-16)
(19.6418 0.113097 9.60992e-16)
(20.1447 -0.157831 2.50392e-16)
(20.6715 -0.367943 -3.39961e-17)
(21.2164 -0.514622 1.3035e-16)
(21.7729 -0.595252 -9.95415e-17)
(22.3332 -0.606927 -6.19374e-17)
(22.8859 -0.548081 -5.91313e-16)
(23.4146 -0.420053 2.6354e-17)
(23.9023 -0.228683 2.20225e-16)
(24.3371 0.0158558 -7.7684e-18)
(24.7122 0.302533 -3.08519e-17)
(25.0234 0.6209 -1.36605e-17)
(25.2675 0.960397 4.01105e-17)
(25.443 1.31016 -1.96155e-17)
(25.5497 1.65996 1.23621e-16)
(25.588 2.00113 -3.18201e-16)
(25.5581 2.3249 5.40386e-16)
(25.4545 2.62408 3.05285e-16)
(17.5037 5.26562 1.03696e-16)
(17.5514 4.49457 -5.80368e-16)
(17.6703 3.78125 5.53638e-17)
(17.8481 3.13491 5.44708e-16)
(18.0776 2.54944 -7.42522e-16)
(18.3527 2.01933 2.06432e-16)
(18.6685 1.54292 -5.72537e-17)
(19.023 1.1166 -3.50304e-16)
(19.4141 0.739649 -5.40191e-16)
(19.8389 0.413168 -4.83689e-16)
(20.2945 0.138994 -2.30578e-16)
(20.7771 -0.0803722 -3.44891e-16)
(21.2815 -0.241498 -1.55972e-16)
(21.8017 -0.340997 -2.17015e-16)
(22.3303 -0.37531 8.01233e-17)
(22.8563 -0.34219 4.93536e-16)
(23.3639 -0.242184 7.57298e-17)
(23.8365 -0.0797234 9.71713e-17)
(24.2619 0.136693 6.66614e-17)
(24.6325 0.397118 2.45325e-17)
(24.9432 0.691559 6.33282e-18)
(25.1899 1.00978 -3.11897e-17)
(25.3704 1.34114 -2.69984e-17)
(25.4837 1.67532 2.16248e-16)
(25.5297 2.00333 -5.21624e-17)
(25.508 2.31584 -4.84711e-16)
(25.4132 2.6048 3.67934e-16)
(18.0631 4.54626 -8.61325e-17)
(18.1556 3.88124 9.54759e-16)
(18.3024 3.2781 -2.59391e-16)
(18.4966 2.73052 2.25303e-16)
(18.7327 2.23271 -1.38119e-16)
(19.0066 1.78267 8.17922e-16)
(19.3171 1.37647 1.8095e-16)
(19.6628 1.01306 -2.69526e-17)
(20.0421 0.693521 5.93616e-16)
(20.4531 0.419865 -3.74845e-16)
(20.893 0.195031 2.96961e-18)
(21.3575 0.0229675 6.32835e-16)
(21.8413 -0.0923085 6.43363e-17)
(22.3376 -0.146667 -2.38044e-16)
(22.8361 -0.137161 -2.16801e-16)
(23.3214 -0.0633654 1.49708e-16)
(23.7773 0.0715588 2.79443e-18)
(24.1917 0.260655 -2.55167e-17)
(24.5564 0.495106 1.96973e-17)
(24.8652 0.765528 3.60446e-18)
(25.1135 1.0621 -9.92e-18)
(25.2982 1.37444 9.44799e-17)
(25.4176 1.69225 -1.30054e-16)
(25.4709 2.00628 1.28398e-16)
(25.4574 2.30679 -5.23727e-16)
(25.3716 2.58496 -4.28439e-17)
(18.5376 4.58258 4.05972e-16)
(18.6085 3.96203 6.95864e-16)
(18.7295 3.39907 3.23703e-18)
(18.894 2.88727 6.80468e-16)
(19.097 2.42074 4.23949e-17)
(19.3346 1.99702 -1.05118e-15)
(19.6063 1.61194 -1.9741e-16)
(19.9114 1.26406 -1.45416e-16)
(20.2491 0.954177 4.05799e-17)
(20.6184 0.684226 1.37321e-16)
(21.0176 0.457285 -4.97687e-16)
(21.4433 0.277606 -2.60403e-16)
(21.891 0.149626 3.62051e-16)
(22.3548 0.0779365 3.97515e-16)
(22.8251 0.0661176 -2.38624e-16)
(23.2871 0.115608 -1.13361e-17)
(23.7251 0.224563 -3.06712e-16)
(24.1271 0.387381 5.74725e-17)
(24.4843 0.596397 1.52224e-17)
(24.7899 0.842956 -4.42864e-19)
(25.0387 1.11772 2.41021e-17)
(25.2267 1.41069 -5.67578e-18)
(25.3515 1.71166 1.2467e-16)
(25.4119 2.01117 3.66059e-16)
(25.4064 2.29916 1.10028e-15)
(25.3297 2.56601 3.87232e-17)
(19.0315 4.02672 7.18862e-16)
(19.131 3.50105 -3.2784e-16)
(19.2704 3.02295 -7.18833e-16)
(19.445 2.58631 -3.70597e-16)
(19.6514 2.18853 -2.02287e-16)
(19.8891 1.82498 -1.95989e-16)
(20.158 1.49391 3.29387e-16)
(20.4579 1.19573 -6.73034e-16)
(20.7887 0.93208 1.64326e-16)
(21.1495 0.70595 -4.19907e-16)
(21.5378 0.521591 -3.02262e-16)
(21.9502 0.383707 -1.6807e-16)
(22.3816 0.297276 4.23958e-17)
(22.8233 0.266597 2.80926e-16)
(23.2613 0.293983 3.96084e-17)
(23.6802 0.378656 1.49062e-16)
(24.0684 0.516354 5.41737e-17)
(24.4167 0.700594 -7.57945e-17)
(24.7178 0.923535 -7.14487e-18)
(24.9658 1.17642 -1.93625e-17)
(25.1562 1.44968 -6.45157e-17)
(25.2858 1.73331 2.69151e-17)
(25.3527 2.01771 -4.51939e-16)
(25.3551 2.29258 -5.05049e-16)
(25.2877 2.54761 -2.34835e-16)
(19.4268 4.07815 5.43076e-16)
(19.5083 3.5871 -4.32003e-16)
(19.6265 3.14047 1.35843e-16)
(19.7769 2.73225 3.59618e-16)
(19.9562 2.35954 1.07893e-15)
(20.1641 2.0175 -8.57703e-17)
(20.4009 1.70392 1.43328e-16)
(20.6667 1.41883 3.92752e-16)
(20.9621 1.16347 2.24922e-16)
(21.287 0.940547 7.7376e-16)
(21.6398 0.754224 5.1351e-16)
(22.0179 0.609211 -3.92906e-17)
(22.4174 0.510685 -4.4318e-16)
(22.8304 0.463449 3.60181e-17)
(23.2438 0.470753 -1.70893e-16)
(23.6427 0.532931 5.37188e-17)
(24.0158 0.646872 2.68437e-17)
(24.3539 0.807206 -2.97449e-17)
(24.6493 1.00697 1.76649e-18)
(24.8954 1.23807 1.23457e-17)
(25.0872 1.49143 -5.18617e-17)
(25.2208 1.75734 9.61785e-18)
(25.2938 2.02612 5.87994e-17)
(25.3038 2.28736 -1.00092e-16)
(25.2456 2.53008 -6.84223e-16)
(19.8629 3.65943 1.22787e-15)
(19.9631 3.24221 -9.26724e-17)
(20.0927 2.8608 -1.29902e-16)
(20.2486 2.51214 -8.73714e-16)
(20.4305 2.19118 5.28412e-16)
(20.6388 1.89534 -4.74708e-16)
(20.874 1.62423 3.36626e-17)
(21.1372 1.37869 -2.71873e-16)
(21.4287 1.16097 -2.69746e-16)
(21.748 0.974943 -1.22284e-16)
(22.0933 0.825252 -1.41152e-16)
(22.4615 0.717152 1.46589e-16)
(22.8461 0.655793 7.95761e-17)
(23.2344 0.645218 -4.45593e-17)
(23.6126 0.686771 -1.54912e-17)
(23.9696 0.77841 -5.41879e-17)
(24.2963 0.91583 2.28724e-17)
(24.5847 1.09299 7.1631e-18)
(24.8278 1.30251 2.21001e-17)
(25.0199 1.53588 8.02595e-17)
(25.1569 1.78375 -3.27555e-16)
(25.2354 2.03647 -3.48566e-18)
(25.2527 2.28357 3.01306e-16)
(25.2038 2.51357 2.60562e-16)
(20.1962 3.72016 2.16471e-17)
(20.2811 3.33038 -5.6701e-16)
(20.3928 2.97416 1.37662e-16)
(20.5284 2.64834 2.7355e-17)
(20.6876 2.34778 2.41315e-17)
(20.8707 2.06958 2.23661e-16)
(21.0786 1.81294 -5.20516e-16)
(21.3125 1.57822 9.15804e-17)
(21.5734 1.36726 -2.68402e-16)
(21.8613 1.1835 -1.34689e-17)
(22.1753 1.03133 3.06821e-16)
(22.5134 0.915899 -1.25543e-16)
(22.8698 0.842713 -4.19873e-17)
(23.2331 0.816468 2.86256e-16)
(23.5901 0.839332 5.16504e-17)
(23.9301 0.910238 -2.62623e-17)
(24.2442 1.02589 3.39383e-17)
(24.5244 1.18117 -6.13725e-18)
(24.7633 1.36946 -2.41177e-17)
(24.9549 1.58288 8.77552e-17)
(25.0943 1.8125 -1.032e-16)
(25.1777 2.0488 1.1231e-16)
(25.2021 2.28134 -3.34183e-16)
(25.1624 2.49822 7.47902e-16)
(20.5095 3.77087 -8.67715e-17)
(20.5813 3.40661 5.23353e-16)
(20.6776 3.07399 -4.21368e-16)
(20.7956 2.76979 2.89757e-16)
(20.9349 2.4888 -3.72367e-16)
(21.0958 2.22786 2.89139e-17)
(21.2793 1.98586 -7.20026e-17)
(21.4868 1.76265 2.56637e-16)
(21.7197 1.55957 2.27224e-16)
(21.9785 1.37968 -2.43405e-16)
(22.263 1.227 -5.3538e-17)
(22.5721 1.10648 3.36436e-16)
(22.9011 1.02368 -8.44922e-17)
(23.2395 0.983845 -7.78055e-17)
(23.5749 0.98994 -1.65572e-16)
(23.8972 1.04174 4.77274e-17)
(24.1979 1.13689 -1.23311e-17)
(24.4688 1.27115 1.76662e-18)
(24.7025 1.43871 -3.3479e-17)
(24.8925 1.63233 -5.01535e-17)
(25.0334 1.8436 3.68719e-16)
(25.1212 2.0632 -1.03438e-16)
(25.1521 2.2808 -3.45684e-17)
(25.1215 2.48423 -6.47088e-16)
(20.8646 3.47245 -5.26615e-16)
(20.9477 3.16189 -1.79229e-16)
(21.0504 2.87807 5.3436e-17)
(21.1722 2.61572 5.24314e-16)
(21.3136 2.37152 1.80326e-16)
(21.4754 2.14402 2.07382e-16)
(21.6592 1.93265 -5.3041e-16)
(21.8665 1.73832 6.99505e-17)
(22.0985 1.56357 2.70715e-16)
(22.3554 1.41201 -2.01128e-16)
(22.6369 1.28827 5.69409e-17)
(22.9393 1.19789 -1.06257e-17)
(23.2532 1.14652 7.14479e-17)
(23.567 1.13778 -1.35014e-16)
(23.8711 1.1722 -2.16367e-17)
(24.1575 1.24821 6.29608e-17)
(24.4182 1.36244 1.95109e-18)
(24.6456 1.5099 4.11106e-17)
(24.833 1.68402 -1.11731e-16)
(24.9747 1.87695 -5.22539e-17)
(25.066 2.07967 -2.41674e-16)
(25.1032 2.28203 1.02881e-16)
(25.0815 2.47176 2.26879e-16)
(21.132 3.52924 4.48006e-16)
(21.2035 3.23927 5.62415e-16)
(21.2929 2.97455 -1.04665e-16)
(21.3996 2.72983 2.8474e-16)
(21.5237 2.50167 -1.76489e-16)
(21.6662 2.28834 -1.18929e-17)
(21.8288 2.0889 1.02233e-16)
(22.013 1.90387 6.22742e-17)
(22.2203 1.73526 -3.69113e-17)
(22.4515 1.58621 -1.02651e-16)
(22.7069 1.46095 -1.0022e-16)
(22.9839 1.36491 -1.06186e-16)
(23.2738 1.30398 -1.32266e-16)
(23.566 1.28232 -9.32264e-17)
(23.8517 1.30103 -3.39247e-17)
(24.1233 1.35933 -1.46243e-17)
(24.3729 1.45464 -2.57449e-18)
(24.593 1.58272 -3.35149e-17)
(24.7769 1.73776 -4.84426e-17)
(24.9184 1.91249 9.42876e-17)
(25.0127 2.09825 4.36143e-16)
(25.0556 2.28517 -8.33023e-17)
(25.0425 2.46099 -2.26688e-16)
(21.4458 3.30724 -1.0362e-16)
(21.5235 3.06038 -5.37279e-16)
(21.6168 2.83229 1.04376e-16)
(21.7258 2.61941 -2.11286e-16)
(21.8513 2.4198 -7.73293e-17)
(21.9948 2.23224 -2.90856e-16)
(22.1581 2.05681 -7.64943e-18)
(22.3429 1.89505 1.20677e-16)
(22.5504 1.74961 6.89271e-17)
(22.7814 1.62429 -7.56055e-18)
(23.034 1.52426 -9.71416e-17)
(23.3007 1.45558 7.71614e-17)
(23.5717 1.4228 3.19643e-16)
(23.8389 1.42753 -2.66655e-17)
(24.0951 1.46961 2.61274e-17)
(24.3329 1.54718 -1.30548e-18)
(24.545 1.65678 1.89033e-17)
(24.7244 1.79328 1.54885e-16)
(24.865 1.95004 -4.31338e-16)
(24.9615 2.11891 2.18258e-17)
(25.0096 2.29027 6.53339e-17)
(25.0047 2.45207 7.81984e-17)
(21.6751 3.36692 -9.97812e-18)
(21.7427 3.13673 6.63774e-16)
(21.8242 2.92422 -6.42101e-17)
(21.9198 2.72579 1.10587e-16)
(22.0302 2.53935 -3.40028e-17)
(22.1567 2.3634 2.36993e-17)
(22.3013 2.19766 5.74763e-16)
(22.4656 2.04324 -5.14919e-16)
(22.6513 1.9023 1.69603e-16)
(22.8595 1.77818 2.93862e-16)
(23.0891 1.67571 -2.61877e-17)
(23.3335 1.60096 1.89689e-16)
(23.5838 1.55877 -1.57972e-16)
(23.8325 1.55121 -8.37884e-17)
(24.0731 1.57855 -7.43155e-17)
(24.2986 1.63965 -6.73849e-18)
(24.5018 1.73172 -3.23979e-17)
(24.676 1.85035 -6.85847e-17)
(24.8148 1.98952 3.42326e-16)
(24.9128 2.14161 5.77805e-17)
(24.9655 2.29741 -1.8987e-16)
(24.9685 2.44517 -2.11919e-16)
(21.892 3.41912 -5.72609e-17)
(21.9507 3.20448 -4.31833e-16)
(22.022 3.00655 4.19481e-16)
(22.1058 2.82172 -3.50107e-16)
(22.2027 2.64782 4.56134e-16)
(22.3142 2.48313 -1.46409e-16)
(22.4419 2.32703 -3.49593e-16)
(22.5877 2.18024 1.42386e-16)
(22.7534 2.04447 -3.12401e-16)
(22.9405 1.92255 -2.1397e-16)
(23.1485 1.81893 -8.93684e-18)
(23.3716 1.73966 4.589e-17)
(23.6017 1.6897 -3.63806e-17)
(23.8322 1.67142 -2.30868e-17)
(24.0572 1.68556 2.26163e-17)
(24.2699 1.73149 1.37781e-17)
(24.4637 1.80709 3.81116e-17)
(24.6319 1.90861 4.41904e-17)
(24.7681 2.03071 2.87491e-16)
(24.8669 2.16629 3.51948e-16)
(24.9236 2.30663 3.00645e-16)
(24.934 2.44039 3.79968e-16)
(22.148 3.2645 2.11793e-16)
(22.2102 3.08018 -5.02422e-16)
(22.2836 2.90814 8.06492e-17)
(22.3687 2.74611 2.78259e-16)
(22.4667 2.59222 -3.1565e-16)
(22.5794 2.44559 1.03345e-16)
(22.7086 2.30657 -9.25147e-18)
(22.856 2.17641 1.07001e-17)
(23.0237 2.05749 -9.20883e-17)
(23.2114 1.95387 2.54446e-16)
(23.4143 1.87141 -4.83236e-17)
(23.6251 1.81519 2.73821e-18)
(23.8379 1.78775 1.06813e-17)
(24.0472 1.79015 1.37125e-17)
(24.2469 1.82225 -3.03413e-18)
(24.4308 1.8825 1.15269e-17)
(24.5923 1.9678 -6.34196e-17)
(24.7253 2.07342 -4.17697e-16)
(24.8241 2.19288 -7.08214e-16)
(24.8842 2.31797 -2.12011e-16)
(24.9015 2.43787 -5.73968e-16)
(22.3351 3.31757 -6.21379e-17)
(22.3894 3.14591 2.4027e-16)
(22.4536 2.98581 -3.339e-17)
(22.5281 2.83496 -4.59405e-16)
(22.6143 2.69136 -1.72144e-17)
(22.7135 2.55391 1.0764e-16)
(22.8276 2.42264 -2.69308e-16)
(22.9586 2.29843 4.10827e-16)
(23.1083 2.18317 7.94203e-17)
(23.2773 2.08049 -2.04527e-16)
(23.4612 1.99606 -3.24527e-17)
(23.6535 1.93491 -3.95975e-17)
(23.8491 1.89975 5.86674e-18)
(24.0429 1.89185 6.03772e-17)
(24.2296 1.91146 -1.11916e-18)
(24.4032 1.95753 -7.38551e-18)
(24.5575 2.02754 5.17287e-17)
(24.6865 2.1174 -7.81547e-17)
(24.7848 2.22123 7.33205e-16)
(24.8476 2.33139 -1.57392e-16)
(24.8712 2.43768 6.2456e-16)
(22.5125 3.36432 -2.24681e-16)
(22.5597 3.20444 -4.1878e-16)
(22.6158 3.05549 4.59527e-16)
(22.681 2.91512 3.10652e-16)
(22.7566 2.78127 -4.05367e-17)
(22.8438 2.65266 3.96383e-17)
(22.9445 2.52903 1.741e-16)
(23.0605 2.41093 9.51286e-17)
(23.1939 2.29979 2.12919e-16)
(23.3455 2.19883 -7.15986e-17)
(23.5116 2.11344 6.13971e-17)
(23.6865 2.0486 1.76276e-16)
(23.8654 2.00705 1.03207e-16)
(24.0442 1.99024 -3.39476e-17)
(24.2179 1.99868 9.43633e-18)
(24.3809 2.03177 7.63435e-17)
(24.5275 2.08752 -8.87106e-17)
(24.652 2.16243 1.4259e-16)
(24.7491 2.25124 -9.55251e-16)
(24.8141 2.34689 1.61103e-16)
(24.8433 2.43989 -6.71496e-16)
(22.7215 3.25643 1.40134e-16)
(22.7704 3.11785 2.84184e-16)
(22.8275 2.9873 -1.9694e-16)
(22.8936 2.86263 4.5445e-16)
(22.9702 2.74245 -3.50702e-16)
(23.0588 2.62627 7.66064e-17)
(23.1613 2.51432 -3.52129e-16)
(23.2799 2.40764 -6.13815e-17)
(23.4155 2.30902 -6.48134e-17)
(23.5651 2.22355 -2.55174e-16)
(23.7235 2.15611 -1.70955e-16)
(23.8866 2.1094 -1.19529e-16)
(24.0508 2.08495 -2.98598e-17)
(24.2116 2.08352 1.37263e-17)
(24.364 2.10484 -1.30951e-16)
(24.5026 2.14741 1.46441e-16)
(24.6221 2.20824 -1.09503e-16)
(24.7173 2.28272 7.33627e-16)
(24.7838 2.3644 1.07413e-16)
(24.818 2.44454 7.33552e-16)
(22.8752 3.30244 1.26979e-16)
(22.9178 3.1735 -1.53684e-16)
(22.9676 3.05208 -3.97304e-16)
(23.0254 2.93605 -3.59576e-16)
(23.0925 2.82387 4.60957e-16)
(23.1703 2.71489 -8.50005e-17)
(23.2607 2.60906 3.86029e-16)
(23.3659 2.50703 9.91941e-17)
(23.4868 2.41123 -1.47448e-17)
(23.621 2.32642 1.02861e-18)
(23.764 2.2573 9.17877e-17)
(23.9121 2.20654 1.24422e-16)
(24.0623 2.17568 2.03987e-17)
(24.2105 2.16562 -1.59224e-17)
(24.3523 2.17638 7.57704e-17)
(24.4827 2.20685 -7.1286e-17)
(24.5968 2.25458 1.19561e-17)
(24.6896 2.31552 -1.42198e-16)
(24.757 2.38385 -6.45082e-16)
(24.7955 2.45162 8.45422e-17)
(23.0581 3.22302 -2.31604e-16)
(23.1014 3.1101 -1.56279e-17)
(23.1519 3.00214 4.81323e-16)
(23.2106 2.89752 -7.77701e-17)
(23.2788 2.79543 -7.36879e-17)
(23.3583 2.69558 -6.82879e-17)
(23.4513 2.59833 -2.26806e-17)
(23.5589 2.5057 9.6927e-17)
(23.679 2.42215 5.6185e-17)
(23.8076 2.35218 5.55801e-17)
(23.9417 2.29836 -4.48519e-17)
(24.0784 2.2622 4.89277e-17)
(24.2144 2.24468 1.88716e-19)
(24.3458 2.24605 -2.59182e-17)
(24.4679 2.26555 6.7176e-17)
(24.5762 2.30118 -8.38103e-17)
(24.6662 2.34943 9.48966e-18)
(24.7339 2.40512 3.94216e-16)
(24.776 2.46111 -4.12997e-16)
(23.1917 3.26692 3.54599e-16)
(23.2293 3.1619 1.28472e-16)
(23.2732 3.06144 -1.17521e-16)
(23.3244 2.96393 -1.58086e-16)
(23.3841 2.8684 -2.22178e-16)
(23.4539 2.77438 1.99279e-16)
(23.536 2.68193 -1.3597e-16)
(23.6314 2.59273 1.98942e-16)
(23.7385 2.51091 -9.41401e-17)
(23.8539 2.44077 -1.78767e-17)
(23.9747 2.38474 1.86556e-17)
(24.0988 2.34428 -4.2859e-17)
(24.2231 2.32043 -1.24843e-17)
(24.3442 2.31357 -4.17409e-17)
(24.458 2.32321 4.58824e-17)
(24.5604 2.34776 2.49937e-16)
(24.6471 2.38425 3.10283e-17)
(24.7145 2.42808 1.60796e-16)
(24.7596 2.47293 -6.59854e-17)
(23.3188 3.30568 1.05217e-16)
(23.3514 3.20797 -1.31313e-16)
(23.3895 3.11451 -1.92025e-17)
(23.4341 3.02365 -1.89988e-16)
(23.4862 2.93433 -1.95922e-16)
(23.5473 2.8459 -1.97527e-16)
(23.6195 2.75821 2.654e-16)
(23.704 2.67259 -3.94173e-18)
(23.7993 2.59288 5.93922e-17)
(23.9024 2.52315 3.42707e-17)
(24.011 2.46568 -8.56988e-17)
(24.1231 2.42185 4.74728e-17)
(24.2363 2.39268 -2.15206e-18)
(24.3475 2.37866 5.10632e-17)
(24.4531 2.37955 -1.14991e-16)
(24.5493 2.39408 8.13034e-17)
(24.6325 2.41975 -6.8159e-16)
(24.6991 2.45259 3.2962e-16)
(24.7464 2.487 4.73202e-16)
(23.4679 3.2488 3.51725e-16)
(23.5009 3.16182 -8.04115e-17)
(23.5396 3.07717 -1.23639e-16)
(23.5849 2.99369 -1.00376e-17)
(23.6384 2.91064 1.55799e-16)
(23.7017 2.8276 -1.00858e-16)
(23.7763 2.74564 -5.55471e-17)
(23.8608 2.66832 -1.89526e-17)
(23.9527 2.59946 -7.3736e-17)
(24.05 2.54121 5.73899e-17)
(24.151 2.49482 3.29601e-17)
(24.2536 2.46127 4.88754e-19)
(24.3553 2.44114 4.53961e-17)
(24.4528 2.43433 1.48646e-17)
(24.5429 2.43988 -3.79517e-16)
(24.6222 2.45573 3.29623e-16)
(24.6875 2.47846 -4.46262e-16)
(24.7365 2.50319 -5.55169e-16)
(23.579 3.28481 1.41264e-17)
(23.6075 3.20384 3.30822e-16)
(23.641 3.12496 -2.32257e-16)
(23.6804 3.04697 5.7761e-18)
(23.7269 2.96901 6.52985e-17)
(23.7824 2.8905 1.34629e-16)
(23.848 2.81224 5.68054e-17)
(23.9228 2.7375 -2.04361e-16)
(24.0045 2.6699 9.30272e-17)
(24.0913 2.61141 -1.1377e-17)
(24.182 2.56317 2.70048e-17)
(24.2748 2.52611 1.03591e-17)
(24.3674 2.50082 -4.08667e-17)
(24.4571 2.48734 -6.88789e-17)
(24.5411 2.48496 3.79029e-16)
(24.6163 2.49198 1.66355e-16)
(24.6799 2.5055 2.08937e-16)
(24.7299 2.52134 3.31059e-16)
(23.6851 3.31641 -4.12917e-16)
(23.7095 3.241 1.19734e-16)
(23.7384 3.16748 -1.04066e-16)
(23.7725 3.09463 3.31937e-16)
(23.813 3.02149 -4.7474e-17)
(23.8614 2.94734 -1.24771e-16)
(23.9191 2.87276 7.83682e-17)
(23.985 2.80072 7.70843e-17)
(24.0574 2.73467 1.51257e-16)
(24.1347 2.67641 -8.74537e-17)
(24.2159 2.62695 -2.33234e-17)
(24.2994 2.58715 -7.21419e-18)
(24.3834 2.55759 -2.1261e-17)
(24.4657 2.53841 5.36486e-17)
(24.5436 2.52909 -2.76152e-16)
(24.6146 2.52826 1.03651e-17)
(24.6763 2.53352 -1.83971e-17)
(24.7266 2.54129 1.7899e-16)
(23.8071 3.27371 -8.06367e-17)
(23.832 3.20516 1.54649e-16)
(23.8614 3.1371 -1.63617e-16)
(23.8965 3.0685 -5.71681e-17)
(23.9387 2.99852 1.10789e-16)
(23.9891 2.92753 -2.12868e-16)
(24.0472 2.8583 4.7856e-18)
(24.1112 2.79403 -2.99201e-18)
(24.1798 2.73638 -7.21136e-18)
(24.2522 2.68623 2.78797e-17)
(24.3272 2.64438 -1.03083e-17)
(24.4032 2.61137 -4.00308e-17)
(24.4783 2.58739 1.69105e-16)
(24.5503 2.5721 2.4433e-16)
(24.6171 2.5644 2.28428e-16)
(24.6764 2.56231 4.53082e-19)
(24.7266 2.56283 -2.65756e-17)
(23.9005 3.30234 1.08628e-16)
(23.9218 3.23839 -4.69621e-17)
(23.9471 3.17478 -1.25285e-16)
(23.9774 3.11045 7.13402e-17)
(24.0141 3.04445 -9.66509e-17)
(24.0581 2.97698 -8.72451e-17)
(24.1091 2.91057 8.81284e-17)
(24.1655 2.84824 -6.37127e-17)
(24.2262 2.79151 -1.96805e-18)
(24.2907 2.74115 8.1323e-18)
(24.3578 2.69784 9.7346e-18)
(24.4263 2.66211 2.23878e-17)
(24.4947 2.63418 -3.147e-16)
(24.561 2.61382 -1.39793e-16)
(24.6235 2.60019 1.8648e-16)
(24.6802 2.59166 -2.8641e-16)
(23.9899 3.32725 2.3256e-17)
(24.008 3.26755 -7.35975e-17)