/*--------------------------------*- C++ -*----------------------------------*\
| =========                 |                                                 |
| \\      /  F ield         | OpenFOAM: The Open Source CFD Toolbox           |
|  \\    /   O peration     | Version:  2506                                  |
|   \\  /    A nd           | Website:  www.openfoam.com                      |
|    \\/     M anipulation  |                                                 |
\*---------------------------------------------------------------------------*/
FoamFile
{
    version     2.0;
    format      ascii;
    arch        "LSB;label=32;scalar=64";
    class       pointScalarField;
    location    "0.9";
    object      streamFunction;
}
// * * * * * * * * * * * * * * * * * * * * * * * * * * * * * * * * * * * * * //

dimensions      [0 3 -1 0 0 0 0];

internalField   nonuniform List<scalar> 
882
(
0
0
0
0
0
0
0
0
0
0
0
0
0
0
0
0
0
0
0
0
0
0
1.16343e-06
-2.83566e-06
-1.1876e-05
-2.42318e-05
-3.82525e-05
-5.26304e-05
-6.62033e-05
-7.7853e-05
-8.6408e-05
-9.07186e-05
-8.9802e-05
-8.3166e-05
-7.1117e-05
-5.4888e-05
-3.66828e-05
-1.93547e-05
-5.8257e-06
1.7348e-06
2.82914e-06
0
0
-2.9919e-06
-2.24566e-05
-5.68025e-05
-0.000101095
-0.000150385
-0.000200325
-0.000246912
-0.000286261
-0.000314486
-0.000327967
-0.000323892
-0.000301015
-0.000260544
-0.000206502
-0.000145712
-8.6879e-05
-3.8868e-05
-8.3639e-06
2.59091e-06
0
0
-1.35534e-05
-6.10281e-05
-0.000136397
-0.000230022
-0.000332464
-0.000435208
-0.000530295
-0.000609979
-0.000666659
-0.000693413
-0.000685013
-0.00063926
-0.000558473
-0.000450225
-0.000327322
-0.000206255
-0.000104128
-3.43677e-05
-2.22991e-06
0
0
-3.01316e-05
-0.000117764
-0.000249126
-0.000408107
-0.000579717
-0.000750494
-0.000907827
-0.00103943
-0.0011333
-0.00117856
-0.00116694
-0.00109473
-0.000964999
-0.000788908
-0.000585944
-0.000381981
-0.000204847
-7.76948e-05
-1.18257e-05
0
0
-5.20858e-05
-0.000191018
-0.000392147
-0.000631144
-0.000886546
-0.00113942
-0.00137213
-0.00156746
-0.00170856
-0.00177993
-0.00176947
-0.00167088
-0.00148697
-0.00123171
-0.000931316
-0.000622431
-0.000346571
-0.000140756
-2.65265e-05
0
0
-7.86584e-05
-0.000278609
-0.000561622
-0.000893643
-0.00124601
-0.00159406
-0.00191499
-0.00218656
-0.00238676
-0.00249485
-0.00249399
-0.00237357
-0.00213451
-0.0017919
-0.00137781
-0.000940493
-0.000538463
-0.000228141
-4.74319e-05
0
0
-0.000108931
-0.000377783
-0.000752629
-0.00118851
-0.00164908
-0.00210388
-0.00252516
-0.00288577
-0.00315847
-0.00331687
-0.00333794
-0.00320561
-0.00291609
-0.00248294
-0.00194192
-0.0013526
-0.000793414
-0.000347043
-7.65982e-05
0
0
-0.00014179
-0.000485175
-0.000959043
-0.00150669
-0.00208385
-0.00265447
-0.00318626
-0.00364763
-0.0040064
-0.00423032
-0.00428947
-0.00416039
-0.00383196
-0.00331253
-0.00263774
-0.00187598
-0.00112707
-0.000507268
-0.000117158
0
0
-0.000175953
-0.000596895
-0.00117363
-0.00183718
-0.0025353
-0.00322673
-0.00387535
-0.00444597
-0.00490216
-0.00520626
-0.00532129
-0.00521508
-0.00486669
-0.00427507
-0.00347017
-0.0025239
-0.0015555
-0.000720794
-0.00017345
0
0
-0.000210116
-0.000708898
-0.00138858
-0.00216752
-0.00298562
-0.00379701
-0.00456269
-0.00524506
-0.00580477
-0.0061999
-0.00638717
-0.00632539
-0.00598239
-0.00534364
-0.0044268
-0.00329876
-0.00209108
-0.00100062
-0.000251167
0
0
-0.000243258
-0.000817738
-0.00159659
-0.00248515
-0.00341571
-0.00433862
-0.00521324
-0.00600115
-0.00666193
-0.00715137
-0.00742187
-0.00742398
-0.00711509
-0.00646408
-0.00547
-0.00418382
-0.00273634
-0.00135841
-0.000357462
0
0
-0.000275163
-0.00092179
-0.00179261
-0.00277944
-0.00380752
-0.0048246
-0.00578998
-0.00666637
-0.00741453
-0.00799058
-0.00834525
-0.00842501
-0.0081766
-0.00755365
-0.006532
-0.0051356
-0.00347627
-0.00180028
-0.000500762
0
0
-0.000307277
-0.00102305
-0.00197619
-0.00304437
-0.00414704
-0.00523121
-0.00625826
-0.0071942
-0.0080035
-0.00864552
-0.0090729
-0.00923147
-0.00906225
-0.00850613
-0.00751554
-0.00607943
-0.00427064
-0.00232062
-0.000689723
0
0
-0.000344138
-0.00112961
-0.00215414
-0.00328102
-0.00442671
-0.0055407
-0.00658917
-0.00754397
-0.0083757
-0.00904975
-0.00952407
-0.00974808
-0.00966276
-0.00920227
-0.00830053
-0.00691001
-0.00504829
-0.00289413
-0.000930316
0
0
-0.000395847
-0.00125888
-0.00234256
-0.00349805
-0.00464487
-0.00574011
-0.0067584
-0.00768007
-0.00848408
-0.00914407
-0.00962602
-0.00988682
-0.00987308
-0.00952021
-0.00875335
-0.00749598
-0.00570411
-0.00346686
-0.00121958
0
0
-0.000481968
-0.00143991
-0.00256415
-0.00370435
-0.00479501
-0.00580844
-0.00673223
-0.00755765
-0.00827367
-0.00886356
-0.00930314
-0.00955946
-0.00958953
-0.0093376
-0.00873239
-0.00768418
-0.00609704
-0.00394579
-0.0015351
0
0
-0.000635313
-0.0017054
-0.00282472
-0.00387454
-0.00482509
-0.00567344
-0.00642395
-0.00708029
-0.00764157
-0.00810074
-0.00844381
-0.00864928
-0.00868751
-0.0085171
-0.00808161
-0.00729791
-0.00604297
-0.00418522
-0.00182138
0
0
-0.000894259
-0.00202901
-0.00301368
-0.0038353
-0.00452416
-0.00510532
-0.00559791
-0.00601484
-0.00636245
-0.00664093
-0.00684486
-0.00696353
-0.00698124
-0.00687311
-0.00660522
-0.00611934
-0.00530443
-0.00396061
-0.00194179
0
0
-0.00115723
-0.00203603
-0.00259148
-0.0029937
-0.0033017
-0.00354224
-0.00373348
-0.00388719
-0.00400966
-0.00410317
-0.00416701
-0.00419835
-0.00419302
-0.00414004
-0.00403009
-0.00383945
-0.00350837
-0.00286849
-0.00162365
0
0
0
0
0
0
0
0
0
0
0
0
0
0
0
0
0
0
0
0
0
0
0
0
0
0
0
0
0
0
0
0
0
0
0
0
0
0
0
0
0
0
0
0
1.16343e-06
-2.83566e-06
-1.1876e-05
-2.42318e-05
-3.82525e-05
-5.26304e-05
-6.62033e-05
-7.7853e-05
-8.6408e-05
-9.07186e-05
-8.9802e-05
-8.3166e-05
-7.1117e-05
-5.4888e-05
-3.66828e-05
-1.93547e-05
-5.8257e-06
1.7348e-06
2.82914e-06
0
0
-2.9919e-06
-2.24566e-05
-5.68025e-05
-0.000101095
-0.000150385
-0.000200325
-0.000246912
-0.000286261
-0.000314486
-0.000327967
-0.000323892
-0.000301015
-0.000260544
-0.000206502
-0.000145712
-8.6879e-05
-3.8868e-05
-8.3639e-06
2.59091e-06
0
0
-1.35534e-05
-6.10281e-05
-0.000136397
-0.000230022
-0.000332464
-0.000435208
-0.000530295
-0.000609979
-0.000666659
-0.000693413
-0.000685013
-0.00063926
-0.000558473
-0.000450225
-0.000327322
-0.000206255
-0.000104128
-3.43677e-05
-2.22991e-06
0
0
-3.01316e-05
-0.000117764
-0.000249126
-0.000408107
-0.000579717
-0.000750494
-0.000907827
-0.00103943
-0.0011333
-0.00117856
-0.00116694
-0.00109473
-0.000964999
-0.000788908
-0.000585944
-0.000381981
-0.000204847
-7.76948e-05
-1.18257e-05
0
0
-5.20858e-05
-0.000191018
-0.000392147
-0.000631144
-0.000886546
-0.00113942
-0.00137213
-0.00156746
-0.00170856
-0.00177993
-0.00176947
-0.00167088
-0.00148697
-0.00123171
-0.000931316
-0.000622431
-0.000346571
-0.000140756
-2.65265e-05
0
0
-7.86584e-05
-0.000278609
-0.000561622
-0.000893643
-0.00124601
-0.00159406
-0.00191499
-0.00218656
-0.00238676
-0.00249485
-0.00249399
-0.00237357
-0.00213451
-0.0017919
-0.00137781
-0.000940493
-0.000538463
-0.000228141
-4.74319e-05
0
0
-0.000108931
-0.000377783
-0.000752629
-0.00118851
-0.00164908
-0.00210388
-0.00252516
-0.00288577
-0.00315847
-0.00331687
-0.00333794
-0.00320561
-0.00291609
-0.00248294
-0.00194192
-0.0013526
-0.000793414
-0.000347043
-7.65982e-05
0
0
-0.00014179
-0.000485175
-0.000959043
-0.00150669
-0.00208385
-0.00265447
-0.00318626
-0.00364763
-0.0040064
-0.00423032
-0.00428947
-0.00416039
-0.00383196
-0.00331253
-0.00263774
-0.00187598
-0.00112707
-0.000507268
-0.000117158
0
0
-0.000175953
-0.000596895
-0.00117363
-0.00183718
-0.0025353
-0.00322673
-0.00387535
-0.00444597
-0.00490216
-0.00520626
-0.00532129
-0.00521508
-0.00486669
-0.00427507
-0.00347017
-0.0025239
-0.0015555
-0.000720794
-0.00017345
0
0
-0.000210116
-0.000708898
-0.00138858
-0.00216752
-0.00298562
-0.00379701
-0.00456269
-0.00524506
-0.00580477
-0.0061999
-0.00638717
-0.00632539
-0.00598239
-0.00534364
-0.0044268
-0.00329876
-0.00209108
-0.00100062
-0.000251167
0
0
-0.000243258
-0.000817738
-0.00159659
-0.00248515
-0.00341571
-0.00433862
-0.00521324
-0.00600115
-0.00666193
-0.00715137
-0.00742187
-0.00742398
-0.00711509
-0.00646408
-0.00547
-0.00418382
-0.00273634
-0.00135841
-0.000357462
0
0
-0.000275163
-0.00092179
-0.00179261
-0.00277944
-0.00380752
-0.0048246
-0.00578998
-0.00666637
-0.00741453
-0.00799058
-0.00834525
-0.00842501
-0.0081766
-0.00755365
-0.006532
-0.0051356
-0.00347627
-0.00180028
-0.000500762
0
0
-0.000307277
-0.00102305
-0.00197619
-0.00304437
-0.00414704
-0.00523121
-0.00625826
-0.0071942
-0.0080035
-0.00864552
-0.0090729
-0.00923147
-0.00906225
-0.00850613
-0.00751554
-0.00607943
-0.00427064
-0.00232062
-0.000689723
0
0
-0.000344138
-0.00112961
-0.00215414
-0.00328102
-0.00442671
-0.0055407
-0.00658917
-0.00754397
-0.0083757
-0.00904975
-0.00952407
-0.00974808
-0.00966276
-0.00920227
-0.00830053
-0.00691001
-0.00504829
-0.00289413
-0.000930316
0
0
-0.000395847
-0.00125888
-0.00234256
-0.00349805
-0.00464487
-0.00574011
-0.0067584
-0.00768007
-0.00848408
-0.00914407
-0.00962602
-0.00988682
-0.00987308
-0.00952021
-0.00875335
-0.00749598
-0.00570411
-0.00346686
-0.00121958
0
0
-0.000481968
-0.00143991
-0.00256415
-0.00370435
-0.00479501
-0.00580844
-0.00673223
-0.00755765
-0.00827367
-0.00886356
-0.00930314
-0.00955946
-0.00958953
-0.0093376
-0.00873239
-0.00768418
-0.00609704
-0.00394579
-0.0015351
0
0
-0.000635313
-0.0017054
-0.00282472
-0.00387454
-0.00482509
-0.00567344
-0.00642395
-0.00708029
-0.00764157
-0.00810074
-0.00844381
-0.00864928
-0.00868751
-0.0085171
-0.00808161
-0.00729791
-0.00604297
-0.00418522
-0.00182138
0
0
-0.000894259
-0.00202901
-0.00301368
-0.0038353
-0.00452416
-0.00510532
-0.00559791
-0.00601484
-0.00636245
-0.00664093
-0.00684486
-0.00696353
-0.00698124
-0.00687311
-0.00660522
-0.00611934
-0.00530443
-0.00396061
-0.00194179
0
0
-0.00115723
-0.00203603
-0.00259148
-0.0029937
-0.0033017
-0.00354224
-0.00373348
-0.00388719
-0.00400966
-0.00410317
-0.00416701
-0.00419835
-0.00419302
-0.00414004
-0.00403009
-0.00383945
-0.00350837
-0.00286849
-0.00162365
0
0
0
0
0
0
0
0
0
0
0
0
0
0
0
0
0
0
0
0
0
0
)
;

boundaryField
{
    movingWall
    {
        type            calculated;
    }
    fixedWalls
    {
        type            calculated;
    }
    frontAndBack
    {
        type            empty;
    }
}


// ************************************************************************* //
