/*--------------------------------*- C++ -*----------------------------------*\
| =========                 |                                                 |
| \\      /  F ield         | OpenFOAM: The Open Source CFD Toolbox           |
|  \\    /   O peration     | Version:  2506                                  |
|   \\  /    A nd           | Website:  www.openfoam.com                      |
|    \\/     M anipulation  |                                                 |
\*---------------------------------------------------------------------------*/
FoamFile
{
    version     2.0;
    format      ascii;
    arch        "LSB;label=32;scalar=64";
    class       volScalarField;
    location    "100";
    object      div(phi);
}
// * * * * * * * * * * * * * * * * * * * * * * * * * * * * * * * * * * * * * //

dimensions      [0 0 -1 0 0 0 0];

internalField   nonuniform List<scalar> 
1340
(
-0.000235378
-0.00225553
-0.00319263
-0.00559995
-0.00088747
-0.00351725
-0.00423049
-0.00708184
6.65246e-05
-0.00126567
-0.00204329
-0.00342505
-0.00114257
-0.00372246
-0.00444087
-0.00716049
0.000188226
-0.000702888
-0.00128953
-0.00246466
-0.0012965
-0.00339176
-0.00417295
-0.00652343
0.000412306
5.15222e-05
-0.000643138
-0.00113666
-0.0013209
-0.00289719
-0.00365853
-0.00528733
0.00052168
0.000446493
-0.00012513
-0.000193223
-0.00131709
-0.00246048
-0.00316605
-0.00417098
0.00061422
0.000724242
0.000170621
0.000339992
-0.00123267
-0.00207265
-0.002668
-0.00323716
0.000672782
0.000845449
0.000357514
0.000679827
-0.00113397
-0.00172411
-0.00222313
-0.0024625
0.000658424
0.000870289
0.000480009
0.000774413
-0.000977817
-0.00141509
-0.00179427
-0.0018524
0.00065956
0.000870481
0.000481404
0.00081913
-0.000800993
-0.00110741
-0.00143322
-0.00134712
0.000585396
0.000769547
0.000495822
0.000741772
-0.000611962
-0.000821385
-0.00106584
-0.000970804
0.000613125
0.000793123
0.000430752
0.000720948
-0.00044412
-0.000566684
-0.000744393
-0.000679981
0.000491577
0.000669327
0.000481867
0.000581945
-0.000331477
-0.000398215
-0.000483215
-0.000496481
0.000411176
0.000587399
0.000417262
0.00050636
-0.00025807
-0.000290916
-0.000322323
-0.000375058
0.00027362
0.000430193
0.000370673
0.000378459
-0.000211145
-0.000247205
-0.00024177
-0.000306837
0.000147293
0.000285174
0.000271702
0.00027372
-0.000176757
-0.000212864
-0.000211231
-0.000256348
7.22402e-05
0.00017663
0.000177135
0.000196372
-0.000134763
-0.00018528
-0.000189437
-0.000209506
1.59873e-05
9.97364e-05
0.000112572
0.000138242
-0.000107041
-0.000143978
-0.000163678
-0.000161053
-3.64195e-06
5.9236e-05
6.83412e-05
0.000106268
-6.18631e-05
-0.000109341
-0.000125758
-0.000123881
-1.9813e-05
3.73189e-05
4.59796e-05
7.79453e-05
-6.85442e-05
-7.59853e-05
-9.26672e-05
-8.87099e-05
-4.64521e-05
5.28248e-07
2.05077e-05
3.3881e-05
5.2626e-05
-3.75217e-05
-3.92628e-05
-4.89897e-05
-6.35056e-05
-6.3593e-05
-3.45123e-05
-4.96581e-07
1.14421e-05
2.01974e-05
3.85916e-05
-1.24352e-05
-2.23315e-05
-3.10062e-05
-4.12401e-05
-4.49403e-05
-2.97611e-05
-4.08861e-06
2.05038e-06
1.24966e-05
2.49278e-05
-6.46514e-06
-1.06715e-05
-1.7244e-05
-2.51511e-05
-3.00302e-05
-1.67327e-05
-6.69506e-06
-2.40963e-06
6.85861e-06
1.72496e-05
-3.83393e-06
-6.09671e-06
-7.97573e-06
-1.31035e-05
-1.89589e-05
-1.50442e-05
-6.31489e-06
-3.55691e-06
4.08056e-06
1.29463e-05
-8.57119e-07
-2.45751e-07
-5.04688e-07
-4.52757e-06
-1.07656e-05
-1.25986e-06
-2.06761e-06
-2.2994e-06
2.68397e-06
1.03093e-05
3.36738e-06
2.69516e-06
3.31484e-06
7.88735e-07
-5.80876e-06
4.18984e-06
-1.79639e-07
-1.5896e-06
8.63683e-07
8.52633e-06
7.40733e-06
1.59071e-06
2.97338e-06
2.97051e-06
-3.95855e-06
3.05987e-05
4.66044e-06
4.82997e-06
-2.10659e-07
-1.3271e-06
5.80812e-06
-1.87056e-05
9.59495e-06
1.91947e-06
3.801e-06
4.52555e-06
-3.31898e-06
2.45153e-05
2.55978e-06
6.45416e-06
1.76324e-06
-5.44905e-06
1.76106e-06
-1.85345e-05
6.38005e-06
2.91594e-06
5.26532e-06
3.20439e-06
-6.87777e-06
1.77907e-05
5.68293e-06
1.24681e-05
4.00069e-06
-2.96082e-06
-5.6351e-07
-9.07143e-06
8.79099e-06
3.89348e-06
9.17416e-06
2.34175e-06
-6.74073e-06
1.09866e-05
2.40418e-06
1.18718e-05
-1.15536e-06
-1.58553e-06
1.07305e-06
-4.99102e-06
6.38079e-06
-6.74395e-06
4.73728e-06
-3.18502e-07
-4.65016e-06
8.115e-06
-8.32283e-06
6.57476e-06
-6.3308e-06
3.41474e-06
-7.80306e-07
1.63228e-05
-2.97174e-06
5.29056e-06
-5.37863e-06
6.83796e-06
-2.20863e-06
5.97741e-06
-2.91934e-06
2.77008e-06
-1.27535e-06
4.70111e-06
-1.36553e-07
3.40709e-06
-3.34079e-06
8.60161e-06
7.32367e-07
1.43225e-06
3.7712e-07
7.00694e-07
-7.46717e-07
2.57606e-08
-9.7187e-07
7.19949e-07
3.13705e-07
-9.62505e-09
-3.0629e-07
-1.43294e-06
-8.42367e-07
8.97492e-06
1.15259e-06
8.69068e-07
-9.76587e-07
-1.29202e-06
-2.62625e-06
-1.13165e-06
6.43294e-07
1.446e-06
-1.3376e-06
-1.52265e-06
-2.31473e-06
-2.52119e-06
-1.56891e-06
8.09313e-06
-6.3545e-08
8.81769e-07
-9.62298e-07
-2.51145e-07
-1.83231e-06
-4.10432e-07
7.021e-07
1.62665e-06
4.69291e-07
1.26004e-06
7.52991e-07
2.03989e-06
-8.08834e-07
4.54672e-06
4.15134e-07
9.94575e-07
8.23885e-07
1.07974e-06
3.06228e-07
5.82895e-07
2.54633e-07
1.27237e-07
-5.18668e-07
-2.90093e-07
-1.66935e-07
-7.5918e-07
1.58604e-07
-4.19945e-06
-7.55085e-07
-1.1776e-06
-1.09017e-06
-1.08266e-06
-1.06199e-06
-9.57624e-07
-1.35124e-06
3.50675e-07
-1.29688e-06
-1.14369e-06
-1.28223e-06
-1.06725e-06
-1.21889e-06
-1.03421e-06
-1.3377e-06
-2.13601e-06
-4.88295e-07
-7.16809e-07
-6.40858e-07
-7.37358e-07
-7.15565e-07
-5.90562e-07
-7.39862e-07
2.40995e-06
1.32437e-07
4.76677e-08
-1.60029e-07
-6.04744e-08
-1.27793e-07
-1.67887e-07
-1.51175e-07
-1.86071e-07
9.26472e-07
4.55898e-07
6.35164e-07
3.32351e-07
3.49461e-07
2.06942e-07
1.14736e-07
3.84446e-06
1.32003e-06
1.00089e-06
8.2713e-07
6.64644e-07
5.94701e-07
2.15559e-07
4.57915e-07
3.57716e-07
1.03695e-06
5.71785e-07
7.47472e-07
3.4708e-07
4.75475e-07
1.9864e-07
7.12971e-07
1.55702e-06
2.4075e-07
-3.65042e-07
2.70308e-08
-7.8539e-07
2.94334e-07
-8.27473e-07
3.75976e-07
-1.45575e-06
-5.21373e-07
-9.23873e-07
-1.01819e-06
-6.39461e-07
-1.11706e-06
-2.19811e-07
-6.2709e-07
-0.0107096
-0.00202367
-0.00241435
-0.00269162
-0.00139821
-0.0023483
-0.000508651
-0.0018444
4.01283e-06
-0.00142452
0.00024921
-0.00109444
0.000375675
-0.000862735
0.000363321
-0.000684638
0.000378342
-0.000535406
0.000299318
-0.000361886
0.000346842
-0.000202145
0.000368615
-9.0053e-05
0.000362539
-3.97727e-05
0.000329274
-4.27657e-05
0.000247832
-6.21142e-05
0.000168936
-7.12347e-05
0.000112986
-6.95027e-05
6.71878e-05
-5.022e-05
4.09026e-05
-3.67205e-05
2.522e-05
-2.42313e-05
9.18133e-06
-1.4643e-05
3.12912e-06
-8.69754e-06
3.07308e-08
-3.77992e-06
-1.3169e-07
-5.6092e-07
1.3749e-06
1.13612e-06
2.35174e-06
8.46463e-07
9.79031e-06
1.14328e-06
8.08816e-06
-1.64349e-06
-8.55254e-07
-3.68114e-06
-7.14196e-06
4.31895e-06
2.47484e-07
-6.02342e-06
4.83953e-06
-2.30272e-06
-2.04984e-06
-2.02953e-06
-4.04172e-06
-1.64417e-06
1.39147e-06
-5.76376e-07
-1.49064e-06
-8.55849e-07
-1.47786e-06
-1.03673e-06
-2.08742e-07
-2.67334e-07
-1.85571e-07
2.49029e-07
-2.77292e-07
-1.12975e-06
0.00100961
0.00343537
0.00110908
0.002658
0.00037721
0.0017145
-8.12025e-06
0.00101352
-0.000232365
0.000523032
-0.000255232
0.000212696
-0.000249263
1.20621e-05
-0.000167558
-9.68523e-05
-0.000121762
-0.000158534
-4.19922e-05
-0.000196623
-6.99691e-06
-0.000216134
-1.12763e-05
-0.00021445
1.72478e-05
-0.000191811
1.47148e-05
-0.000156644
3.27659e-05
-0.000115285
5.18772e-05
-7.98137e-05
5.64593e-05
-4.98584e-05
5.90935e-05
-3.90428e-05
4.46832e-05
-2.82911e-05
2.33615e-05
-2.25908e-05
1.20409e-05
-1.65565e-05
2.22577e-06
-9.22531e-06
-1.08574e-06
-3.54352e-06
-1.43596e-06
4.25133e-07
-8.87877e-07
1.76748e-06
1.25643e-06
5.67475e-06
3.40038e-06
1.19618e-05
3.69764e-06
9.78355e-06
1.12518e-06
1.46531e-06
2.58139e-06
-7.22009e-06
-1.33371e-06
6.33615e-06
-5.8794e-06
1.84131e-07
-5.26885e-07
-5.48845e-07
1.00164e-06
-1.315e-06
-2.29252e-06
2.92685e-07
5.37462e-07
-1.93536e-06
-1.9991e-06
-9.62576e-07
-7.91278e-07
6.60077e-08
5.58136e-07
1.30371e-06
-2.72648e-06
2.02287e-06
0.00300741
0.00521379
0.00133094
0.00465927
0.000449008
0.00365843
3.03805e-05
0.0027524
-0.000268855
0.00196807
-0.000293178
0.00134967
-0.000309405
0.00086626
-0.000227646
0.000525056
-0.000151168
0.000293923
-8.13901e-05
0.000181708
1.12104e-05
0.000150393
0.000135729
0.000145733
0.000197239
0.000130747
0.000233045
9.65051e-05
0.000213268
4.74543e-05
0.000162328
5.22907e-06
0.000116318
-2.60241e-05
6.6642e-05
-3.32917e-05
3.56913e-05
-3.52951e-05
1.9821e-05
-2.89053e-05
5.23218e-06
-2.01734e-05
1.01484e-06
-1.25158e-05
-1.25601e-06
-5.93699e-06
-1.55835e-06
-1.83677e-06
-7.73291e-07
1.46662e-06
-4.49086e-07
2.83018e-06
6.86514e-06
4.65466e-06
1.32094e-05
5.64346e-06
1.0768e-05
2.47429e-06
-2.64235e-06
4.78601e-06
8.17184e-07
-7.318e-06
4.49237e-06
-2.12477e-06
-1.37547e-06
-1.09168e-06
-3.43904e-06
-1.1984e-06
1.20823e-06
-8.30174e-07
-1.80091e-06
-8.2323e-07
-1.02211e-06
-7.59376e-07
-6.77667e-09
-4.97771e-07
-2.52336e-07
-4.97655e-07
-1.53748e-06
1.48463e-06
-0.0137744
-0.00407794
-0.00463123
-0.0025493
-0.00304147
-0.00132631
-0.00203432
-0.000587828
-0.00141162
-0.000179595
-0.00106246
1.82864e-05
-0.000817735
9.44515e-05
-0.000683407
9.9338e-05
-0.000550122
7.25642e-05
-0.000484578
2.92071e-05
-0.000381397
-2.29672e-05
-0.00034689
-7.7114e-05
-0.000311495
-0.000109817
-0.000262365
-0.000122777
-0.000218043
-0.000113538
-0.000150877
-9.02882e-05
-9.36318e-05
-6.3304e-05
-4.08182e-05
-5.10591e-05
-1.47365e-05
-3.95925e-05
-8.27872e-06
-3.22434e-05
-2.22861e-06
-2.45609e-05
-3.03438e-06
-1.57681e-05
-2.61224e-06
-8.27785e-06
-2.04562e-06
-2.3847e-06
-1.6681e-06
-2.49634e-07
1.65285e-07
1.66343e-06
1.95049e-06
7.05423e-06
5.44379e-06
1.19591e-05
5.07773e-06
8.03215e-06
7.03739e-06
-4.56773e-06
-2.58735e-06
6.27842e-06
-5.69794e-06
1.57815e-07
-4.45905e-07
-5.53627e-07
1.61023e-06
-4.17777e-07
-2.1245e-06
-7.26579e-08
4.19932e-07
-1.69326e-06
-1.56189e-06
-4.37823e-07
-2.14473e-06
1.52139e-06
2.82813e-08
3.00751e-07
-3.10316e-06
1.62646e-06
0.00836419
0.00564068
0.00280442
0.00400653
0.00129035
0.00289061
0.000428817
0.00212403
-4.25257e-05
0.00157561
-0.000304841
0.00116539
-0.000399276
0.00085459
-0.000442769
0.000610583
-0.000416975
0.000424498
-0.000381284
0.000282567
-0.000328548
0.000194006
-0.000290721
0.000147053
-0.000198968
0.000121568
-0.000148464
9.55624e-05
-8.61364e-05
6.69245e-05
-4.83592e-05
3.0284e-05
-2.58159e-05
-6.5972e-06
-2.55881e-05
-2.39832e-05
-2.18064e-05
-3.25296e-05
-1.29814e-05
-3.01569e-05
-1.10481e-05
-2.32509e-05
-5.86588e-06
-1.59372e-05
-3.30672e-06
-9.27761e-06
-1.88941e-06
-4.90795e-06
-9.56547e-07
-6.35755e-07
-1.14358e-06
1.1732e-06
9.12487e-07
2.5438e-06
6.25725e-06
4.41958e-06
1.112e-05
5.18521e-06
-1.15169e-06
4.60477e-06
2.60572e-06
-6.85393e-06
4.19053e-06
-1.18707e-06
1.43195e-07
-5.05766e-07
-2.81154e-06
-8.29244e-07
1.12479e-06
-6.09312e-07
-1.88858e-06
-6.62884e-07
-4.58206e-07
-9.77327e-07
-5.13462e-07
2.83343e-07
-1.20907e-07
-8.10309e-07
-1.09662e-06
2.4235e-06
0.00204401
0.0026492
0.00040262
0.00216286
-4.63533e-05
0.00176264
-0.000333144
0.00142372
-0.000495812
0.00114195
-0.000548639
0.000912912
-0.000567915
0.000721249
-0.000513792
0.000566687
-0.000477609
0.000432863
-0.000391387
0.000325429
-0.000347668
0.000227616
-0.000266245
0.000138906
-0.000244159
5.72075e-05
-0.000216188
2.3699e-07
-0.000186364
-3.59403e-05
-0.000158208
-4.73738e-05
-0.000122905
-3.85236e-05
-7.49308e-05
-3.32069e-05
-4.19013e-05
-2.69229e-05
-2.53086e-05
-2.36345e-05
-1.13371e-05
-2.00929e-05
-6.67002e-06
-1.49975e-05
-3.58249e-06
-9.63365e-06
-2.00794e-06
-4.18517e-06
-1.28005e-06
-1.8231e-06
-4.71926e-08
6.83707e-08
-1.21098e-07
1.64207e-06
1.31937e-06
5.80433e-06
2.34293e-06
5.94413e-06
7.96927e-06
9.64933e-08
-1.71142e-06
6.56005e-06
-3.97337e-06
1.44031e-06
-6.12287e-07
-2.29216e-06
1.10819e-06
-5.78281e-09
-5.59274e-07
-2.79891e-08
4.43099e-07
-1.51114e-06
-1.47013e-06
-9.45308e-07
-1.63769e-06
1.84893e-06
-1.10294e-07
4.01397e-07
0.00213569
0.00225763
0.000592301
0.00194446
0.000254039
0.00168672
-1.03686e-06
0.00145073
-0.000157064
0.00123757
-0.000251955
0.00103955
-0.000312412
0.000856314
-0.000325065
0.000689962
-0.000334669
0.000539768
-0.000307072
0.000410116
-0.000286446
0.000296439
-0.000242263
0.000208584
-0.000222004
0.000143843
-0.000163324
9.88127e-05
-0.00013342
6.49949e-05
-9.33187e-05
3.9087e-05
-5.72905e-05
1.06176e-05
-4.5777e-05
-5.82375e-06
-3.47266e-05
-1.54704e-05
-2.07076e-05
-1.6771e-05
-1.44197e-05
-1.42037e-05
-6.84912e-06
-1.07719e-05
-2.86742e-06
-7.26987e-06
-8.31739e-07
-5.11766e-06
-1.3258e-07
-1.73554e-06
-6.57553e-07
-2.95972e-08
4.16493e-08
2.34566e-07
1.17061e-06
5.88271e-07
7.31116e-06
6.33771e-06
3.30757e-06
6.44138e-06
7.02935e-06
-2.37096e-06
5.26173e-06
2.50969e-08
2.6665e-07
1.91403e-06
-2.58855e-06
1.96608e-08
1.0018e-06
3.34895e-07
-1.85012e-06
-2.97916e-07
-1.20927e-07
-5.16845e-07
-4.23889e-07
-2.11824e-07
0.00338157
0.0023675
0.00104255
0.00177354
0.000431515
0.00137321
0.000101218
0.00110218
-0.000110064
0.000904182
-0.000220949
0.000752126
-0.000276254
0.000630422
-0.000303216
0.000524896
-0.000290852
0.000433942
-0.000286394
0.00034704
-0.000249786
0.00027009
-0.000237178
0.000193237
-0.000194016
0.000120174
-0.000187556
5.2653e-05
-0.000169315
4.67012e-06
-0.000147755
-2.25749e-05
-0.000128943
-2.36944e-05
-8.67354e-05
-1.76266e-05
-4.98681e-05
-9.90548e-06
-2.74821e-05
-6.95431e-06
-1.04186e-05
-6.76052e-06
-4.39267e-06
-6.67348e-06
-1.50294e-06
-5.77024e-06
-5.32196e-07
-3.04205e-06
-3.05878e-08
-1.91305e-06
6.6115e-07
-4.36554e-07
-1.59746e-07
7.20185e-07
-5.59653e-09
3.21724e-06
3.12365e-06
5.99456e-06
9.37167e-06
6.13738e-06
4.21315e-06
8.20996e-06
2.03006e-06
3.1537e-06
2.86743e-06
-2.02889e-06
1.96918e-06
1.56091e-07
-1.84021e-07
-5.94883e-07
8.4022e-07
-2.58137e-06
-1.98813e-06
-1.56736e-06
-0.00246719
-0.000406859
-0.000765698
-3.50672e-05
-0.000494864
0.000211744
-0.000319238
0.000356276
-0.000245132
0.000426614
-0.000197232
0.000452537
-0.000182517
0.000443994
-0.000175316
0.000413942
-0.000170896
0.000367487
-0.000172691
0.000311877
-0.000165939
0.000252844
-0.000163039
0.000192749
-0.000146422
0.0001393
-0.000143889
9.59991e-05
-0.000113508
6.63968e-05
-9.74951e-05
4.53042e-05
-6.2891e-05
2.73172e-05
-4.49218e-05
1.50851e-05
-3.13186e-05
6.01286e-06
-1.72154e-05
1.72976e-06
-1.09729e-05
-7.01245e-08
-4.27171e-06
-9.7914e-07
-7.48761e-07
-1.32462e-06
1.05264e-06
-2.27817e-06
1.35955e-06
-9.70424e-07
6.54159e-07
-1.11485e-07
7.42285e-07
3.96179e-07
8.58663e-08
1.17607e-06
3.47985e-06
5.09308e-06
3.55538e-06
7.83014e-06
6.81653e-06
5.74975e-06
3.99657e-06
2.9569e-06
1.26692e-07
4.37741e-06
-4.24777e-06
-7.28793e-07
6.27507e-07
1.07185e-07
-3.50683e-06
0.000544643
0.000783521
0.00013469
0.00066726
3.09196e-05
0.000585176
-5.33062e-05
0.000515944
-9.68548e-05
0.000457222
-0.000133522
0.000404222
-0.000149927
0.000355807
-0.000161317
0.00031202
-0.000165049
0.000270897
-0.000157805
0.000233617
-0.000154817
0.000196048
-0.000137159
0.000160817
-0.000131948
0.000122017
-0.000110203
8.19164e-05
-0.000110484
4.25699e-05
-0.000100284
1.6272e-05
-9.31699e-05
6.95362e-06
-6.96946e-05
7.65685e-06
-4.12427e-05
1.22415e-05
-2.11051e-05
1.29139e-05
-5.43917e-06
9.62859e-06
-2.14932e-08
5.12818e-06
1.69517e-06
1.38763e-06
1.67838e-06
7.79176e-07
1.92452e-06
1.97632e-07
2.41002e-06
6.82962e-07
1.0282e-06
7.0049e-07
4.86792e-07
8.6025e-07
5.02345e-07
8.18914e-07
4.86399e-06
2.37002e-06
7.15288e-06
1.02135e-06
3.32206e-06
1.63973e-06
5.17792e-06
-4.05545e-06
-0.000130255
0.000196877
-3.48413e-05
0.000202382
-3.14959e-05
0.000218101
-4.95136e-05
0.000228962
-4.84093e-05
0.000238587
-6.24336e-05
0.000240102
-6.30564e-05
0.000236989
-7.49293e-05
0.000226638
-7.79237e-05
0.000213041
-8.21916e-05
0.000194714
-8.32918e-05
0.000173758
-8.11131e-05
0.000150067
-7.86375e-05
0.000123369
-7.09524e-05
9.73571e-05
-7.2835e-05
7.63867e-05
-5.69868e-05
6.12142e-05
-4.35577e-05
4.63938e-05
-3.04909e-05
3.6148e-05
-1.97528e-05
2.71594e-05
-9.18579e-06
2.008e-05
-4.81673e-06
1.50302e-05
-2.64875e-07
1.03709e-05
2.22587e-06
7.17337e-06
3.78056e-06
3.88334e-06
4.07944e-06
2.84823e-06
3.1244e-06
1.31396e-06
2.71018e-06
8.29789e-07
1.82825e-06
7.3558e-07
5.1527e-07
9.08644e-07
-6.55821e-07
4.66488e-06
-1.72353e-06
0.00210724
0.00101753
0.000671999
0.000706315
0.000353613
0.000499966
0.000177027
0.000373264
5.58354e-05
0.000291925
-4.85581e-06
0.000241418
-4.7032e-05
0.000208198
-6.21776e-05
0.000186604
-7.16282e-05
0.000171372
-7.1045e-05
0.000159196
-6.63073e-05
0.000148511
-6.30486e-05
0.000136187
-5.25389e-05
0.000122283
-5.02041e-05
0.000101934
-4.04495e-05
7.6531e-05
-4.60433e-05
5.05407e-05
-4.91967e-05
3.56741e-05
-4.17761e-05
3.02077e-05
-2.62346e-05
3.0246e-05
-1.19857e-05
2.97711e-05
2.42355e-06
2.36159e-05
9.55877e-06
2.05508e-05
8.05342e-06
1.20751e-05
6.62042e-06
7.14565e-06
5.52627e-06
3.39224e-06
4.3759e-06
1.97618e-06
2.5633e-06
2.32376e-06
-0.00158408
-0.000614003
-0.000504595
-0.000374429
-0.000289765
-0.000206792
-0.000155748
-9.39065e-05
-9.2934e-05
-1.81046e-05
-4.89526e-05
3.72841e-05
-3.62693e-05
7.48676e-05
-2.27853e-05
0.000102239
-2.52565e-05
0.000118519
-2.38708e-05
0.000128673
-2.70299e-05
0.000131097
-2.98284e-05
0.000128947
-3.03858e-05
0.000120692
-3.29575e-05
0.000106919
-3.22915e-05
8.93286e-05
-4.00607e-05
7.27848e-05
-3.60727e-05
6.03585e-05
-3.18961e-05
5.08977e-05
-2.39518e-05
4.29076e-05
-1.49409e-05
4.26952e-05
-1.97754e-05
6.64537e-05
)
;

boundaryField
{
    inlet
    {
        type            extrapolatedCalculated;
        value           nonuniform List<scalar> 
13
(
-1.45575e-06
-5.21373e-07
-9.23873e-07
-1.01819e-06
-6.39461e-07
-1.11706e-06
-2.19811e-07
-6.2709e-07
-1.12975e-06
2.02287e-06
1.48463e-06
1.62646e-06
2.4235e-06
)
;
    }
    outlet
    {
        type            extrapolatedCalculated;
        value           nonuniform List<scalar> 0();
    }
    walls
    {
        type            extrapolatedCalculated;
        value           nonuniform List<scalar> 4(-0.000235378 -0.00225553 -0.00319263 -0.00559995);
    }
    frontAndBack
    {
        type            empty;
    }
    procBoundary2to1
    {
        type            processor;
        value           nonuniform List<scalar> 
84
(
-0.00148446
-0.00161206
-0.00124252
-0.00170736
-0.00105816
-0.0015747
-0.000756564
-0.00141748
-0.000553333
-0.00128915
-0.000372439
-0.00116308
-0.000235976
-0.00102518
-0.000135729
-0.000880445
5.35949e-06
-0.000748136
1.78775e-05
-0.000631771
5.90654e-05
-0.000515051
7.92926e-05
-0.000432207
4.58481e-05
-0.000341271
4.89414e-05
-0.00027551
3.25105e-05
-0.000212698
2.16923e-05
-0.000165127
7.87494e-06
-0.000114333
6.39523e-06
-9.97564e-05
3.19607e-05
-0.00014524
-0.00014524
-3.54467e-05
-4.73058e-05
-2.01482e-05
-2.59406e-05
-1.01558e-05
-1.38479e-05
-9.99822e-06
-8.60594e-06
-3.52961e-06
-3.92186e-06
-8.23534e-08
3.66513e-06
9.32924e-06
-8.84599e-06
-8.84599e-06
-1.89385e-05
1.94221e-05
-1.96003e-05
1.91263e-05
-1.82309e-05
1.56956e-05
-1.1137e-05
1.16666e-05
-8.02714e-06
-8.02714e-06
-1.08742e-05
1.14044e-05
-5.88715e-06
9.82157e-06
-2.86012e-06
9.13448e-06
-2.51482e-06
6.04109e-06
-1.90018e-07
4.17651e-06
4.17651e-06
4.30278e-06
-3.97704e-06
2.64424e-06
-8.53831e-07
2.33479e-06
6.70908e-07
1.93533e-06
3.67314e-07
-2.45607e-07
)
;
    }
    procBoundary2to3
    {
        type            processor;
        value           nonuniform List<scalar> 
88
(
-3.698e-06
8.39258e-07
1.47409e-07
-3.698e-06
-4.5875e-07
-1.81139e-06
1.47409e-07
2.198e-06
-1.26593e-06
-1.03435e-06
-1.81139e-06
-3.96973e-07
3.10286e-06
1.29976e-07
-6.0144e-07
-1.36739e-06
-1.26593e-06
4.20497e-07
1.09045e-05
3.20201e-06
5.91889e-06
2.07544e-07
3.10286e-06
5.77285e-06
4.06653e-06
2.04005e-06
2.08403e-07
-2.85121e-07
1.78643e-06
-7.20316e-07
1.09045e-05
5.83708e-06
-5.91178e-07
3.07238e-05
3.81427e-06
1.90575e-05
1.28721e-06
1.16635e-05
8.43925e-07
7.23995e-06
-5.78461e-08
3.74868e-06
8.23008e-07
4.06653e-06
2.2847e-06
0.000735666
0.000578802
0.00056694
0.00038358
0.000438037
0.000223723
0.000343679
0.000126717
0.000279084
5.23142e-05
0.000230912
1.14231e-05
0.000196409
-2.02692e-05
0.000169145
-3.42417e-05
0.000149375
-4.41168e-05
0.000133337
-4.56413e-05
0.000121362
-4.49083e-05
0.000110813
-4.31617e-05
0.000101951
-3.76461e-05
9.25375e-05
-3.58924e-05
8.07482e-05
-2.8986e-05
6.47501e-05
-3.3258e-05
4.83539e-05
-3.53366e-05
3.77259e-05
-3.07529e-05
3.17217e-05
-2.45458e-05
2.90798e-05
-1.64778e-05
2.5485e-05
-5.91178e-07
-6.5309e-06
)
;
    }
    procBoundary2to6
    {
        type            processor;
        value           nonuniform List<scalar> 
13
(
0.00202682
0.00541179
0.00558297
-0.0079164
0.0115018
0.00479682
0.00406651
0.00483309
-0.00188236
0.00145457
0.000319785
0.00238422
-0.00157556
)
;
    }
}


// ************************************************************************* //
