/*--------------------------------*- C++ -*----------------------------------*\
| =========                 |                                                 |
| \\      /  F ield         | OpenFOAM: The Open Source CFD Toolbox           |
|  \\    /   O peration     | Version:  2506                                  |
|   \\  /    A nd           | Website:  www.openfoam.com                      |
|    \\/     M anipulation  |                                                 |
\*---------------------------------------------------------------------------*/
FoamFile
{
    version     2.0;
    format      ascii;
    arch        "LSB;label=32;scalar=64";
    class       volScalarField;
    location    "100";
    object      magR;
}
// * * * * * * * * * * * * * * * * * * * * * * * * * * * * * * * * * * * * * //

dimensions      [0 2 -2 0 0 0 0];

internalField   nonuniform List<scalar> 
1340
(
65.8122
63.3008
60.7979
48.7637
1.93483
2.07873
2.41339
3.05857
0.472986
0.635435
0.7301
1.15623
0.01826
0.0548047
0.12009
0.450752
8.69333e-06
0.00148719
0.00299908
0.0675301
1.91073e-06
0.000251038
0.000707837
0.00513153
2.10443e-05
2.05957e-06
1.21087e-08
0.00117829
2.39522e-05
1.99794e-05
1.58803e-07
8.77985e-11
3.16233e-05
3.05279e-05
4.12156e-05
2.03899e-06
2.59778e-05
2.35369e-05
3.42656e-05
2.52382e-05
2.66904e-05
2.53643e-05
3.00855e-05
4.04727e-05
2.4767e-05
2.32852e-05
2.63696e-05
3.74782e-05
2.41862e-05
2.27369e-05
2.49136e-05
3.33745e-05
2.30227e-05
2.14173e-05
2.29491e-05
2.97196e-05
2.20843e-05
2.04211e-05
2.12654e-05
2.65408e-05
2.10276e-05
1.92794e-05
1.95526e-05
2.35892e-05
1.99986e-05
1.8189e-05
1.79655e-05
2.08838e-05
1.89431e-05
1.70748e-05
1.6443e-05
1.84011e-05
1.78894e-05
1.59758e-05
1.50048e-05
1.61314e-05
1.68364e-05
1.48898e-05
1.36458e-05
1.40829e-05
1.57933e-05
1.38269e-05
1.23647e-05
1.22298e-05
1.47601e-05
1.27851e-05
1.11618e-05
1.05644e-05
1.37462e-05
1.17731e-05
1.00352e-05
9.07578e-06
1.27559e-05
1.0799e-05
8.98241e-06
7.75113e-06
1.17959e-05
9.86752e-06
8.00592e-06
6.58147e-06
1.08701e-05
8.98172e-06
7.10615e-06
5.55176e-06
9.9864e-06
8.14801e-06
6.28305e-06
4.65292e-06
9.14667e-06
7.36958e-06
5.53673e-06
3.87749e-06
8.35569e-06
6.64946e-06
4.86714e-06
3.21605e-06
7.61496e-06
5.98989e-06
4.27556e-06
2.66541e-06
6.9294e-06
5.39317e-06
3.76151e-06
2.21922e-06
6.29853e-06
4.8588e-06
3.32347e-06
1.87702e-06
5.72348e-06
4.38528e-06
2.9574e-06
1.63174e-06
5.20151e-06
3.96911e-06
2.65909e-06
1.47612e-06
4.73235e-06
3.60813e-06
2.42184e-06
1.3924e-06
4.31153e-06
3.29601e-06
2.23656e-06
1.36044e-06
3.93779e-06
3.02854e-06
2.09396e-06
1.35876e-06
3.60517e-06
2.79799e-06
1.98345e-06
1.37086e-06
3.99615e-06
3.30954e-06
2.5994e-06
1.89666e-06
1.38602e-06
3.64972e-06
3.04765e-06
2.42719e-06
1.8245e-06
1.39671e-06
3.34053e-06
2.81586e-06
2.27723e-06
1.76213e-06
1.39981e-06
3.06332e-06
2.6082e-06
2.1425e-06
1.70324e-06
1.39299e-06
2.81446e-06
2.42128e-06
2.02026e-06
1.64604e-06
1.3773e-06
2.58956e-06
2.25125e-06
1.90677e-06
1.5878e-06
1.35223e-06
2.38546e-06
2.0956e-06
1.80043e-06
1.52859e-06
1.32028e-06
2.19943e-06
1.95173e-06
1.69905e-06
1.46702e-06
1.28131e-06
2.02938e-06
1.81794e-06
1.60165e-06
1.40342e-06
1.23703e-06
1.87346e-06
1.69328e-06
1.50814e-06
1.33848e-06
1.18833e-06
1.73e-06
1.57669e-06
1.4183e-06
1.27319e-06
1.1374e-06
1.59769e-06
1.46736e-06
1.33191e-06
1.20768e-06
1.08427e-06
1.47608e-06
1.36525e-06
1.24921e-06
1.14268e-06
1.03044e-06
1.36385e-06
1.26959e-06
1.17035e-06
1.07887e-06
9.7642e-07
1.3355e-06
1.25989e-06
1.17937e-06
1.09435e-06
1.01583e-06
9.22554e-07
1.22581e-06
1.16185e-06
1.0938e-06
1.02139e-06
9.54566e-07
8.69685e-07
1.12336e-06
1.06985e-06
1.01251e-06
9.51241e-07
8.94579e-07
8.17877e-07
1.02809e-06
9.83122e-07
9.35176e-07
8.837e-07
8.36172e-07
7.67226e-07
9.39313e-07
9.02098e-07
8.62024e-07
8.18767e-07
7.79036e-07
7.17538e-07
8.57658e-07
8.26347e-07
7.92803e-07
7.566e-07
7.23717e-07
6.6905e-07
7.82084e-07
7.56003e-07
7.27965e-07
6.97628e-07
6.70521e-07
6.22085e-07
7.1296e-07
6.90835e-07
6.67136e-07
6.41923e-07
6.1983e-07
5.77112e-07
6.48777e-07
6.30098e-07
6.10218e-07
5.89367e-07
5.71307e-07
5.33667e-07
6.03293e-07
5.88558e-07
5.72803e-07
5.56162e-07
5.38842e-07
5.24271e-07
4.90958e-07
5.43021e-07
5.30616e-07
5.1778e-07
5.04307e-07
4.90217e-07
4.78292e-07
4.49062e-07
4.84907e-07
4.75083e-07
4.6491e-07
4.54086e-07
4.42665e-07
4.33227e-07
4.07767e-07
4.29568e-07
4.21818e-07
4.13881e-07
4.05429e-07
3.96486e-07
3.89515e-07
3.67484e-07
3.7744e-07
3.71489e-07
3.65455e-07
3.59105e-07
3.52477e-07
3.47801e-07
3.2894e-07
3.31172e-07
3.26333e-07
3.21744e-07
3.17158e-07
3.12539e-07
3.09882e-07
2.93826e-07
2.94032e-07
2.9005e-07
2.8661e-07
2.835e-07
2.80468e-07
2.79336e-07
2.65483e-07
2.64215e-07
2.60509e-07
2.57607e-07
2.55448e-07
2.53784e-07
2.53999e-07
2.4258e-07
2.37496e-07
2.33731e-07
2.30794e-07
2.28871e-07
2.27882e-07
2.28985e-07
2.19548e-07
2.12953e-07
2.09317e-07
2.06393e-07
2.04616e-07
2.0393e-07
2.05542e-07
1.97804e-07
1.91451e-07
1.87647e-07
1.84359e-07
1.81544e-07
1.79928e-07
1.79547e-07
1.81698e-07
1.76913e-07
1.65092e-07
1.61003e-07
1.57506e-07
1.54511e-07
1.52513e-07
1.5162e-07
1.53087e-07
1.47974e-07
1.27402e-07
1.23806e-07
1.21377e-07
1.199e-07
1.19955e-07
1.21793e-07
1.27541e-07
1.31747e-07
7.06494e-08
6.37242e-08
5.88409e-08
5.62677e-08
5.75108e-08
6.33246e-08
8.01887e-08
8.83171e-08
5.17225e-08
5.64075e-08
6.44644e-08
7.47142e-08
8.68209e-08
9.97951e-08
1.14573e-07
1.3523e-07
1.44602e-07
1.48413e-07
1.51133e-07
1.53136e-07
1.56135e-07
1.65398e-07
2.00106e-07
2.32372e-07
3.51428e-07
3.64408e-07
3.75734e-07
3.86046e-07
3.97705e-07
4.14981e-07
4.5778e-07
4.93973e-07
6.9412e-07
6.94877e-07
6.9533e-07
6.95404e-07
6.95063e-07
6.96062e-07
7.07459e-07
6.70245e-07
1.32186e-06
1.31795e-06
1.31311e-06
1.30743e-06
1.29978e-06
1.29258e-06
1.27493e-06
1.17988e-06
26.2469
5.19465
0.810399
0.178236
0.0227054
0.000329187
2.67161e-05
2.97321e-07
4.64663e-06
3.53888e-05
3.79076e-05
3.39553e-05
2.99169e-05
2.65453e-05
2.34581e-05
2.06384e-05
1.80467e-05
1.56911e-05
1.35607e-05
1.16372e-05
9.91182e-06
8.37187e-06
7.00504e-06
5.79726e-06
4.73525e-06
3.80544e-06
2.99745e-06
2.30005e-06
1.70552e-06
1.20837e-06
8.11959e-07
5.44001e-07
4.61381e-07
5.4699e-07
6.88317e-07
8.26637e-07
9.43766e-07
1.03702e-06
1.10722e-06
1.15623e-06
1.18635e-06
1.19984e-06
1.19981e-06
1.18789e-06
1.16725e-06
1.13866e-06
1.10398e-06
1.06456e-06
1.02253e-06
9.7805e-07
9.32607e-07
8.86454e-07
8.40437e-07
7.95118e-07
7.50812e-07
7.07216e-07
6.64378e-07
6.22212e-07
5.81094e-07
5.41264e-07
5.02487e-07
4.64203e-07
4.2654e-07
3.89364e-07
3.53008e-07
3.17926e-07
2.85859e-07
2.5928e-07
2.37951e-07
2.16523e-07
1.96067e-07
1.77024e-07
1.48325e-07
1.38928e-07
9.19982e-08
1.53327e-07
2.19358e-07
4.83688e-07
5.93637e-07
1.05022e-06
13.6136
2.96887
0.171544
0.012575
0.000986645
0.000219889
5.86677e-08
1.07833e-06
1.24455e-05
1.77417e-05
1.66871e-05
1.53428e-05
1.40852e-05
1.2982e-05
1.18971e-05
1.08635e-05
9.85702e-06
8.88478e-06
7.95008e-06
7.05277e-06
6.19859e-06
5.3887e-06
4.62792e-06
3.91991e-06
3.26909e-06
2.6771e-06
2.1478e-06
1.68253e-06
1.28576e-06
9.62363e-07
7.27591e-07
6.00651e-07
5.85367e-07
6.43813e-07
7.30621e-07
8.18546e-07
8.95698e-07
9.5878e-07
1.00689e-06
1.0408e-06
1.06157e-06
1.07074e-06
1.07003e-06
1.06077e-06
1.04495e-06
1.02302e-06
9.96204e-07
9.65764e-07
9.32984e-07
8.98046e-07
8.619e-07
8.24756e-07
7.87086e-07
7.49429e-07
7.11867e-07
6.74285e-07
6.36703e-07
5.99244e-07
5.62318e-07
5.26318e-07
4.90817e-07
4.55486e-07
4.20479e-07
3.85538e-07
3.51041e-07
3.17511e-07
2.86711e-07
2.60747e-07
2.39749e-07
2.18816e-07
1.9874e-07
1.80159e-07
1.51397e-07
1.44659e-07
9.05115e-08
1.70144e-07
1.96932e-07
4.88217e-07
5.92069e-07
1.07611e-06
4.27764
0.53226
0.00584255
0.000605265
0.000146155
0
4.43971e-07
6.95913e-06
1.02232e-05
9.95001e-06
9.30735e-06
8.7067e-06
8.15539e-06
7.62201e-06
7.08691e-06
6.56424e-06
6.04766e-06
5.54585e-06
5.0552e-06
4.58636e-06
4.1366e-06
3.71092e-06
3.30996e-06
2.93934e-06
2.59934e-06
2.29132e-06
2.01622e-06
1.77684e-06
1.57265e-06
1.40515e-06
1.27289e-06
1.17458e-06
1.10595e-06
1.06245e-06
1.03724e-06
1.02484e-06
1.01952e-06
1.01782e-06
1.01625e-06
1.01333e-06
1.00746e-06
9.98215e-07
9.85324e-07
9.69027e-07
9.49784e-07
9.27289e-07
9.02112e-07
8.75051e-07
8.46706e-07
8.17085e-07
7.86709e-07
7.55606e-07
7.2404e-07
6.92362e-07
6.60385e-07
6.28079e-07
5.95384e-07
5.62579e-07
5.30069e-07
4.98109e-07
4.66519e-07
4.34907e-07
4.03188e-07
3.71237e-07
3.39478e-07
3.08405e-07
2.79761e-07
2.55204e-07
2.35215e-07
2.15541e-07
1.96418e-07
1.78776e-07
1.50653e-07
1.45749e-07
9.10226e-08
1.78221e-07
1.82739e-07
4.85068e-07
5.81135e-07
1.07613e-06
0.425419
0.0107561
0.000885771
9.15612e-07
0
1.6096e-07
2.56987e-06
5.04561e-06
4.78918e-06
4.54452e-06
4.36136e-06
4.1684e-06
3.99446e-06
3.81203e-06
3.63108e-06
3.45005e-06
3.27249e-06
3.09882e-06
2.92884e-06
2.76359e-06
2.60182e-06
2.44583e-06
2.2949e-06
2.14984e-06
2.01037e-06
1.87825e-06
1.75353e-06
1.6383e-06
1.53226e-06
1.43724e-06
1.35227e-06
1.27866e-06
1.21493e-06
1.16141e-06
1.11595e-06
1.07834e-06
1.04612e-06
1.01901e-06
9.94725e-07
9.72748e-07
9.51664e-07
9.31073e-07
9.10024e-07
8.88623e-07
8.66546e-07
8.43152e-07
8.18747e-07
7.93821e-07
7.68577e-07
7.42779e-07
7.16751e-07
6.90389e-07
6.63828e-07
6.37099e-07
6.09941e-07
5.82244e-07
5.54007e-07
5.25412e-07
4.97022e-07
4.6915e-07
4.41339e-07
4.13339e-07
3.85e-07
3.56029e-07
3.27001e-07
2.98438e-07
2.71948e-07
2.4899e-07
2.30256e-07
2.12006e-07
1.93959e-07
1.77369e-07
1.50238e-07
1.46627e-07
9.47635e-08
1.82871e-07
1.73847e-07
4.80684e-07
5.67933e-07
1.06591e-06
0.00238775
5.66607e-07
2.41367e-08
0
9.66575e-08
1.54679e-06
3.22078e-06
3.18123e-06
2.96085e-06
2.90122e-06
2.81479e-06
2.73685e-06
2.64911e-06
2.55588e-06
2.4599e-06
2.36144e-06
2.26341e-06
2.16507e-06
2.06848e-06
1.97364e-06
1.88185e-06
1.79361e-06
1.70901e-06
1.6283e-06
1.55198e-06
1.48066e-06
1.41357e-06
1.35117e-06
1.2931e-06
1.23984e-06
1.19025e-06
1.1449e-06
1.10303e-06
1.06498e-06
1.02964e-06
9.97523e-07
9.67552e-07
9.4035e-07
9.14587e-07
8.90784e-07
8.68007e-07
8.46144e-07
8.24543e-07
8.03589e-07
7.82564e-07
7.61044e-07
7.39338e-07
7.17812e-07
6.96394e-07
6.74827e-07
6.53354e-07
6.31749e-07
6.10073e-07
5.88121e-07
5.65552e-07
5.42234e-07
5.18094e-07
4.93535e-07
4.69008e-07
4.44721e-07
4.20434e-07
3.95785e-07
3.70382e-07
3.44091e-07
3.17507e-07
2.91129e-07
2.66591e-07
2.45079e-07
2.27531e-07
2.10626e-07
1.93585e-07
1.77891e-07
1.51924e-07
1.4944e-07
1.01331e-07
1.88752e-07
1.66374e-07
4.8204e-07
5.61957e-07
1.06335e-06
0.000165269
5.42635e-11
0
1.20187e-07
1.72101e-06
3.07774e-06
2.85487e-06
2.48046e-06
2.29391e-06
2.1729e-06
2.07538e-06
2.00291e-06
1.94148e-06
1.89107e-06
1.84333e-06
1.79651e-06
1.74962e-06
1.70108e-06
1.64978e-06
1.59547e-06
1.5398e-06
1.48301e-06
1.4256e-06
1.36847e-06
1.31319e-06
1.25971e-06
1.20855e-06
1.16037e-06
1.11562e-06
1.07408e-06
1.0353e-06
9.99466e-07
9.66383e-07
9.35819e-07
9.07356e-07
8.81128e-07
8.56362e-07
8.33521e-07
8.11666e-07
7.91372e-07
7.71853e-07
7.53128e-07
7.34746e-07
7.17105e-07
6.99339e-07
6.81384e-07
6.6353e-07
6.46113e-07
6.2891e-07
6.11703e-07
5.94698e-07
5.7769e-07
5.60602e-07
5.43069e-07
5.24772e-07
5.05517e-07
4.85283e-07
4.64371e-07
4.43337e-07
4.22454e-07
4.01261e-07
3.7955e-07
3.56877e-07
3.33042e-07
3.08671e-07
2.84403e-07
2.61699e-07
2.41668e-07
2.25356e-07
2.09755e-07
1.93781e-07
1.79072e-07
1.54527e-07
1.53411e-07
1.09271e-07
1.95765e-07
1.58155e-07
4.85478e-07
0
1.59472e-11
2.24659e-07
3.22992e-06
4.55798e-06
4.02676e-06
3.3676e-06
2.91522e-06
2.57407e-06
2.27932e-06
2.0302e-06
1.82546e-06
1.66045e-06
1.5311e-06
1.43044e-06
1.353e-06
1.29506e-06
1.25194e-06
1.21729e-06
1.18769e-06
1.16119e-06
1.13625e-06
1.11143e-06
1.08476e-06
1.05734e-06
1.02908e-06
1.00016e-06
9.70722e-07
9.4179e-07
9.1316e-07
8.85098e-07
8.58142e-07
8.32714e-07
8.08649e-07
7.86083e-07
7.64912e-07
7.44833e-07
7.26136e-07
7.08364e-07
6.92081e-07
6.76484e-07
6.61616e-07
6.47221e-07
6.33464e-07
6.19502e-07
6.05525e-07
5.91776e-07
5.78493e-07
5.65306e-07
5.5217e-07
5.39292e-07
5.26438e-07
5.13436e-07
4.99867e-07
4.8547e-07
4.69908e-07
4.53183e-07
4.35723e-07
4.17958e-07
3.99973e-07
3.81623e-07
3.62597e-07
3.42403e-07
3.20904e-07
2.98746e-07
2.76553e-07
2.55745e-07
2.37233e-07
2.22162e-07
2.0793e-07
1.9318e-07
1.79649e-07
1.56833e-07
1.57493e-07
1.17541e-07
2.02839e-07
1.0234e-08
1.41206e-07
4.31541e-06
6.1668e-06
5.20457e-06
4.41415e-06
3.86923e-06
3.40237e-06
2.99111e-06
2.62236e-06
2.29671e-06
2.01266e-06
1.76748e-06
1.55854e-06
1.38324e-06
1.23935e-06
1.1239e-06
1.03349e-06
9.64176e-07
9.12905e-07
8.75016e-07
8.46625e-07
8.25619e-07
8.0901e-07
7.94666e-07
7.8126e-07
7.68678e-07
7.55895e-07
7.43039e-07
7.29436e-07
7.15389e-07
7.00911e-07
6.86649e-07
6.72196e-07
6.58018e-07
6.44039e-07
6.30304e-07
6.1722e-07
6.0481e-07
5.93451e-07
5.82535e-07
5.72247e-07
5.62301e-07
5.52738e-07
5.42873e-07
5.33044e-07
5.23421e-07
5.14152e-07
5.04857e-07
4.95597e-07
4.8656e-07
4.77536e-07
4.68243e-07
4.58254e-07
4.47352e-07
4.35206e-07
4.21831e-07
4.07517e-07
3.92678e-07
3.7748e-07
3.61684e-07
3.4512e-07
3.27276e-07
3.07999e-07
2.8802e-07
2.67912e-07
2.48924e-07
2.31957e-07
2.18184e-07
2.05252e-07
1.91716e-07
1.7946e-07
1.58702e-07
1.61589e-07
7.34029e-07
6.33319e-06
7.00276e-06
6.00312e-06
5.14779e-06
4.62964e-06
4.14674e-06
3.69405e-06
3.2806e-06
2.90301e-06
2.56077e-06
2.2522e-06
1.97624e-06
1.73116e-06
1.51516e-06
1.32703e-06
1.16487e-06
1.0272e-06
9.12628e-07
8.20025e-07
7.46576e-07
6.89725e-07
6.47365e-07
6.17409e-07
5.96022e-07
5.80574e-07
5.70082e-07
5.62766e-07
5.57255e-07
5.52082e-07
5.47277e-07
5.42373e-07
5.37447e-07
5.32003e-07
5.26518e-07
5.20529e-07
5.14222e-07
5.07921e-07
5.01886e-07
4.96281e-07
4.90711e-07
4.85367e-07
4.80117e-07
4.74951e-07
4.69337e-07
4.63741e-07
4.58264e-07
4.52963e-07
4.47452e-07
4.4195e-07
4.36586e-07
4.31103e-07
4.25244e-07
4.18643e-07
4.11009e-07
4.02005e-07
3.91694e-07
3.80376e-07
3.683e-07
3.55591e-07
3.42161e-07
3.2785e-07
3.12183e-07
2.95161e-07
2.77289e-07
2.59138e-07
2.4196e-07
2.26507e-07
2.13928e-07
2.02353e-07
1.90176e-07
6.69303e-06
7.28973e-06
6.23441e-06
5.48347e-06
5.01819e-06
4.59852e-06
4.1623e-06
3.75534e-06
3.37398e-06
3.01809e-06
2.68831e-06
2.38489e-06
2.10748e-06
1.85529e-06
1.62723e-06
1.42238e-06
1.24009e-06
1.07933e-06
9.38772e-07
8.17814e-07
7.15361e-07
6.30828e-07
5.62578e-07
5.09506e-07
4.69695e-07
4.41678e-07
4.22997e-07
4.11182e-07
4.04716e-07
4.01662e-07
4.00859e-07
4.01186e-07
4.02464e-07
4.03721e-07
4.04934e-07
4.05438e-07
4.0542e-07
4.05128e-07
4.04868e-07
4.04631e-07
4.04286e-07
4.03874e-07
4.03132e-07
4.02112e-07
4.00621e-07
3.99096e-07
3.97515e-07
3.959e-07
3.93952e-07
3.91958e-07
3.89943e-07
3.87717e-07
3.84936e-07
3.81266e-07
3.76542e-07
3.70493e-07
3.6311e-07
3.54507e-07
3.44952e-07
3.34532e-07
3.23214e-07
3.10971e-07
2.975e-07
2.8255e-07
2.66919e-07
2.50907e-07
6.45693e-06
5.91371e-06
5.31043e-06
4.96459e-06
4.63897e-06
4.28795e-06
3.93732e-06
3.60301e-06
3.28064e-06
2.97313e-06
2.68195e-06
2.40839e-06
2.15306e-06
1.91613e-06
1.69782e-06
1.49759e-06
1.31542e-06
1.15074e-06
1.00243e-06
8.70272e-07
7.53451e-07
6.51551e-07
5.63535e-07
4.89044e-07
4.2744e-07
3.78679e-07
3.41501e-07
3.14621e-07
2.97268e-07
2.87834e-07
2.84108e-07
2.84347e-07
2.87429e-07
2.91948e-07
2.97288e-07
3.02459e-07
3.07489e-07
3.12421e-07
3.17372e-07
3.21986e-07
3.26031e-07
3.29645e-07
3.33043e-07
3.35915e-07
3.38173e-07
3.40338e-07
3.42294e-07
3.44002e-07
3.45234e-07
3.46297e-07
3.47197e-07
3.4774e-07
3.47523e-07
3.46338e-07
3.44235e-07
3.4081e-07
3.35978e-07
3.29812e-07
3.22468e-07
3.14345e-07
3.05186e-07
4.98485e-06
4.77087e-06
4.50568e-06
4.3053e-06
4.06343e-06
3.80835e-06
3.55232e-06
3.29768e-06
3.04493e-06
2.79782e-06
2.55791e-06
2.32706e-06
2.10686e-06
1.89831e-06
1.70241e-06
1.51921e-06
1.34943e-06
1.193e-06
1.04942e-06
9.18746e-07
8.00423e-07
6.93956e-07
5.98696e-07
5.1443e-07
4.40378e-07
3.76236e-07
3.21791e-07
2.77086e-07
2.42024e-07
2.164e-07
2.00015e-07
1.91934e-07
1.90978e-07
1.94849e-07
2.0185e-07
2.10266e-07
2.19424e-07
2.28848e-07
2.38372e-07
2.47604e-07
2.56164e-07
2.6387e-07
2.70689e-07
2.76978e-07
2.82868e-07
2.88425e-07
2.93477e-07
2.98021e-07
3.01927e-07
3.05513e-07
3.0864e-07
3.11224e-07
3.13399e-07
3.14379e-07
3.7907e-06
3.76679e-06
3.66246e-06
3.55195e-06
3.41076e-06
3.25655e-06
3.09189e-06
2.9185e-06
2.73933e-06
2.55744e-06
2.37483e-06
2.19387e-06
2.01648e-06
1.84416e-06
1.67832e-06
1.5197e-06
1.36936e-06
1.22777e-06
1.09518e-06
9.71896e-07
8.5785e-07
7.52851e-07
6.56786e-07
5.69172e-07
4.89513e-07
4.17542e-07
3.52962e-07
2.95698e-07
2.4535e-07
2.0207e-07
1.6671e-07
1.40169e-07
1.23723e-07
1.17318e-07
1.19728e-07
1.28031e-07
1.39931e-07
1.53885e-07
1.6794e-07
1.81855e-07
1.95976e-07
2.04516e-07
)
;

boundaryField
{
    inlet
    {
        type            calculated;
        value           nonuniform List<scalar> 
13
(
4.53164e-06
4.5761e-06
4.61372e-06
4.64605e-06
4.67607e-06
4.7058e-06
4.74607e-06
4.74459e-06
4.69586e-06
4.66864e-06
4.63082e-06
4.59767e-06
4.57031e-06
)
;
    }
    outlet
    {
        type            calculated;
        value           nonuniform List<scalar> 0();
    }
    walls
    {
        type            calculated;
        value           nonuniform List<scalar> 4(1.11812 1.07104 1.01137 0.835846);
    }
    frontAndBack
    {
        type            empty;
    }
    procBoundary2to1
    {
        type            processor;
        value           nonuniform List<scalar> 
84
(
67.5807
1.78666
0.320402
0.00415546
0.00213234
1.67405e-06
3.73346e-05
2.94774e-05
3.21702e-05
2.7651e-05
2.80199e-05
2.64917e-05
2.58481e-05
2.48156e-05
2.3912e-05
2.29244e-05
2.19359e-05
2.09204e-05
1.98918e-05
1.88539e-05
1.78135e-05
1.67731e-05
1.57393e-05
1.4718e-05
1.37165e-05
1.27385e-05
1.17919e-05
1.08809e-05
1.00101e-05
9.18201e-06
8.40287e-06
7.67384e-06
6.99745e-06
6.37235e-06
5.80002e-06
5.27732e-06
4.80381e-06
4.37878e-06
4.37878e-06
4.65221e-06
4.22958e-06
3.8483e-06
3.50478e-06
3.19595e-06
2.91782e-06
2.66698e-06
2.43982e-06
2.23431e-06
2.04784e-06
1.87802e-06
1.7231e-06
1.58236e-06
1.45359e-06
1.45359e-06
1.40761e-06
1.28625e-06
1.1739e-06
1.07057e-06
9.74801e-07
8.87386e-07
8.07215e-07
7.34094e-07
6.6652e-07
6.6652e-07
6.17631e-07
5.54821e-07
4.94383e-07
4.37076e-07
3.83482e-07
3.36297e-07
2.98594e-07
2.68504e-07
2.41811e-07
2.16916e-07
2.16916e-07
1.9579e-07
1.69795e-07
1.32282e-07
7.9523e-08
5.16589e-08
1.40144e-07
3.3675e-07
6.92578e-07
1.32423e-06
)
;
    }
    procBoundary2to3
    {
        type            processor;
        value           nonuniform List<scalar> 
88
(
5.59644e-07
1.06398e-06
1.4988e-07
5.59644e-07
4.88698e-07
1.25815e-07
1.4988e-07
2.09186e-07
1.79126e-07
1.6037e-07
1.25815e-07
1.65565e-07
2.35422e-07
2.21212e-07
2.09787e-07
1.99371e-07
1.79126e-07
1.88501e-07
2.94751e-07
2.83157e-07
2.70348e-07
2.56691e-07
2.35422e-07
2.4275e-07
3.13825e-07
3.12684e-07
3.10188e-07
3.06129e-07
3.00708e-07
2.94328e-07
2.94751e-07
2.87255e-07
2.12414e-07
2.23982e-07
2.33606e-07
2.42413e-07
2.50199e-07
2.57119e-07
2.63182e-07
2.68764e-07
2.73855e-07
2.77901e-07
2.80875e-07
3.13825e-07
2.84247e-07
2.66655e-06
2.75562e-06
2.75862e-06
2.74746e-06
2.70923e-06
2.65115e-06
2.57455e-06
2.48181e-06
2.37592e-06
2.25973e-06
2.13578e-06
2.00658e-06
1.87439e-06
1.74108e-06
1.60855e-06
1.47794e-06
1.35069e-06
1.22778e-06
1.11008e-06
9.98242e-07
8.92746e-07
7.93665e-07
7.0125e-07
6.1541e-07
5.35995e-07
4.62762e-07
3.95533e-07
3.34098e-07
2.78e-07
2.27133e-07
1.81235e-07
1.40483e-07
1.05313e-07
7.76214e-08
6.0879e-08
5.89195e-08
6.94242e-08
8.6122e-08
1.08102e-07
1.26112e-07
1.37756e-07
2.12414e-07
1.57046e-07
)
;
    }
    procBoundary2to6
    {
        type            processor;
        value           nonuniform List<scalar> 
13
(
50.7503
29.9746
12.5717
2.828
0.146593
0.000418961
1.55884e-06
0
4.47954e-08
1.4818e-06
5.51765e-06
4.75694e-06
3.5653e-06
)
;
    }
}


// ************************************************************************* //
