/*--------------------------------*- C++ -*----------------------------------*\
| =========                 |                                                 |
| \\      /  F ield         | OpenFOAM: The Open Source CFD Toolbox           |
|  \\    /   O peration     | Version:  2506                                  |
|   \\  /    A nd           | Website:  www.openfoam.com                      |
|    \\/     M anipulation  |                                                 |
\*---------------------------------------------------------------------------*/
FoamFile
{
    version     2.0;
    format      ascii;
    arch        "LSB;label=32;scalar=64";
    class       volScalarField;
    location    "100";
    object      p;
}
// * * * * * * * * * * * * * * * * * * * * * * * * * * * * * * * * * * * * * //

dimensions      [0 2 -2 0 0 0 0];

internalField   nonuniform List<scalar> 
1340
(
-21.088
-12.9565
0.476365
22.6558
-20.0833
-12.0824
1.26837
22.6445
-19.2763
-11.3635
1.86311
22.5
-18.5216
-10.6969
2.38523
22.309
-17.6666
-9.92031
2.98112
22.1582
-16.6952
-9.09781
3.56109
21.9692
-15.8681
-8.37623
4.04447
21.7031
-14.8525
-7.51791
4.5908
21.4637
-13.9222
-6.74283
5.04097
21.1447
-12.9028
-5.90632
5.5031
20.8152
-11.8943
-5.09279
5.91883
20.4499
-10.8472
-4.26284
6.31676
20.0602
-9.78833
-3.43712
6.6868
19.6494
-8.70882
-2.61048
7.03336
19.2177
-7.61464
-1.78572
7.35941
18.7744
-6.50856
-0.966689
7.66345
18.3177
-5.39122
-0.151057
7.95235
17.858
-4.26876
0.654979
8.22336
17.3939
-3.1408
1.45517
8.48438
16.9365
-2.01458
2.24301
8.73211
16.4838
-0.889784
3.02258
8.97482
16.0467
0.225498
3.78724
9.20937
15.6237
1.33161
4.54132
9.44327
15.2247
2.42037
5.27824
9.67295
14.848
3.4916
6.00196
9.90528
14.5024
4.53687
6.70588
10.1366
14.1852
5.55585
7.39376
10.3723
13.9036
6.54064
8.05899
10.6083
13.6541
7.49049
8.70474
10.849
13.442
8.39813
9.32452
11.0895
13.2624
9.2626
9.92074
11.3332
13.1188
10.0774
10.4873
11.5746
13.0053
10.8412
11.0258
11.8159
12.9236
11.5488
11.5302
12.0512
12.8668
12.199
12.0015
12.2817
12.8355
12.7879
12.4343
12.5013
12.8222
13.3146
12.8291
12.7102
12.8263
13.7768
13.1813
12.9026
12.8404
15.1583
14.174
13.4908
13.0781
12.863
15.5056
14.5043
13.7538
13.2311
12.8873
15.7736
14.77
13.9714
13.3613
12.9112
15.9653
14.971
14.141
13.4639
12.9282
16.0836
15.1097
14.2637
13.5385
12.9365
16.133
15.1876
14.3386
13.5817
12.9307
16.1176
15.2078
14.3674
13.5938
12.9093
16.0425
15.1735
14.3508
13.5727
12.8683
15.9124
15.0881
14.2909
13.5194
12.8071
15.733
14.9556
14.1898
13.4335
12.7232
15.5088
14.78
14.0501
13.3164
12.6169
15.2452
14.5655
13.8746
13.1689
12.487
14.9471
14.3161
13.6663
12.993
12.3344
14.6191
14.0359
13.4284
12.7904
12.159
14.775
14.2654
13.7285
13.1635
12.5629
11.9624
14.3533
13.8903
13.398
12.8751
12.3126
11.7449
13.9193
13.4982
13.048
12.5655
12.0413
11.5085
13.4737
13.0928
12.682
12.2384
11.7522
11.2543
13.0235
12.6782
12.3041
11.8972
11.4476
10.9848
12.5689
12.2573
11.9173
11.5453
11.131
10.7018
12.1151
11.8336
11.5254
11.1857
10.805
10.4083
11.6627
11.4096
11.1305
10.8219
10.4725
10.1062
11.2148
10.9873
10.7364
10.4557
10.1358
9.79839
10.9572
10.7722
10.5689
10.3432
10.0897
9.79694
9.48723
10.5013
10.3366
10.155
9.95319
9.72411
9.45803
9.17469
10.0567
9.90918
9.74697
9.56643
9.36089
9.12031
8.86311
9.62349
9.49109
9.34603
9.18493
9.00128
8.78501
8.55292
9.20489
9.08488
8.95447
8.81051
8.64666
8.45287
8.24456
8.80239
8.69328
8.57532
8.44606
8.29938
8.1257
7.93915
8.47816
8.37649
8.2669
8.1472
8.01186
7.85165
7.68025
8.20884
8.11322
8.00959
7.89648
7.76866
7.61753
7.45628
7.93454
7.84534
7.74797
7.64107
7.52013
7.37714
7.22539
7.6544
7.57293
7.48291
7.3828
7.26859
7.13344
6.99062
7.43501
7.36945
7.29578
7.21399
7.12137
7.01431
6.88694
6.75257
7.14277
7.08518
7.01959
6.94585
6.86101
6.76162
6.64219
6.51518
6.84376
6.79469
6.73825
6.67428
6.59974
6.51124
6.40418
6.29336
6.55967
6.51382
6.46075
6.40106
6.33195
6.24916
6.14422
6.02322
6.29629
6.2701
6.2361
6.19473
6.14381
6.08281
6.01442
5.96565
5.8794
5.83808
5.79335
5.74638
5.69293
5.62187
5.50836
5.32556
6.21454
6.22198
6.21508
6.19685
6.1722
6.15778
6.19207
6.35055
4.13032
4.10894
4.09355
4.08183
4.06055
3.99258
3.80432
3.37959
8.65615
8.68399
8.6911
8.68907
8.69982
8.77852
9.00864
9.52653
79.0121
76.2073
72.7206
69.0543
65.334
61.6299
58.0176
54.5459
51.176
47.9602
44.8803
41.9546
39.1862
36.5781
34.1358
31.8562
29.7425
27.7885
25.9943
24.351
22.8565
21.5
20.278
19.1788
18.1981
17.3245
16.5534
15.8739
15.282
14.7672
14.3261
13.9489
13.6323
13.3673
13.1507
12.974
12.8337
12.7221
12.6357
12.5672
12.5129
12.4665
12.424
12.3802
12.3315
12.2739
12.2046
12.121
12.0214
11.9044
11.7693
11.6156
11.4436
11.2532
11.0456
10.8209
10.5809
10.3267
10.0605
9.78484
9.50148
9.21344
8.92366
8.63338
8.34401
8.05573
7.76956
7.52493
7.31114
7.08975
6.86406
6.63454
6.40269
6.1963
5.91029
5.9195
5.16254
6.44893
3.09182
9.7268
25.4348
25.7118
26.1016
26.4851
26.8141
27.0572
27.2035
27.2435
27.1781
27.0148
26.7499
26.3947
25.9514
25.4306
24.8396
24.1893
23.4899
22.7529
21.9901
21.2125
20.4323
19.6589
18.9033
18.173
17.4766
16.8185
16.2049
15.6373
15.119
14.6489
14.2283
13.8539
13.5255
13.2386
12.9919
12.7801
12.6014
12.4502
12.324
12.2174
12.1274
12.0488
11.9782
11.9111
11.8442
11.7735
11.6961
11.6095
11.5113
11.4001
11.2746
11.1342
10.9783
10.8071
10.6205
10.4189
10.2023
9.97202
9.7293
9.47571
9.21418
8.94711
8.67675
8.40603
8.13566
7.86616
7.59848
7.36851
7.16679
6.95739
6.74275
6.52377
6.30073
6.10521
5.82579
5.84309
5.10681
6.34733
3.14391
9.47627
17.1161
16.8881
16.6768
16.4877
16.3201
16.1809
16.064
15.9715
15.8996
15.8474
15.8077
15.7809
15.7575
15.7377
15.7124
15.6807
15.635
15.5742
15.4931
15.3914
15.2662
15.1187
14.9487
14.7588
14.5513
14.3298
14.0985
13.8611
13.6227
13.3865
13.1574
12.9376
12.7309
12.5378
12.3614
12.2005
12.0566
11.9278
11.8142
11.7129
11.6232
11.5417
11.4668
11.395
11.3243
11.2515
11.1743
11.0902
10.9973
10.8941
10.7791
10.6519
10.5116
10.3582
10.1916
10.0113
9.81761
9.61041
9.39073
9.16003
8.9199
8.67296
8.4224
8.1699
7.91751
7.66576
7.41562
7.20068
7.01193
6.81541
6.6131
6.40621
6.19366
6.00804
5.7404
5.75373
5.06137
6.21425
3.22213
9.19876
13.9781
13.9786
13.9802
13.9771
13.9629
13.9403
13.9058
13.8626
13.809
13.7478
13.6782
13.6038
13.5234
13.4412
13.3555
13.2705
13.1843
13.1001
13.0155
12.9332
12.8502
12.7682
12.6844
12.5999
12.5124
12.4227
12.3292
12.2329
12.133
12.031
11.927
11.8225
11.7183
11.6158
11.5162
11.4203
11.3294
11.2435
11.1635
11.0885
11.0188
10.9527
10.8899
10.8282
10.7664
10.7022
10.6342
10.56
10.4784
10.3876
10.2867
10.1748
10.0514
9.91647
9.76945
9.61037
9.43862
9.25448
9.05788
8.8494
8.63099
8.40462
8.17229
7.9374
7.70144
7.46565
7.23147
7.03028
6.85378
6.6701
6.48045
6.28603
6.08482
5.90916
5.65257
5.66668
5.00129
6.11282
3.23142
9.02065
11.683
11.6949
11.7125
11.732
11.7511
11.7717
11.7902
11.8089
11.8236
11.8366
11.8439
11.8478
11.8443
11.8363
11.8198
11.7982
11.7681
11.7331
11.6903
11.6434
11.5902
11.5343
11.4738
11.4119
11.3471
11.2822
11.2155
11.1495
11.0828
11.0172
10.9517
10.8874
10.8239
10.7618
10.7013
10.6426
10.5859
10.5312
10.4788
10.4282
10.3797
10.3321
10.2854
10.2382
10.1898
10.1386
10.0833
10.0223
9.95433
9.87805
9.79245
9.69681
9.5906
9.47366
9.34576
9.20664
9.05626
8.89394
8.71974
8.53406
8.3373
8.131
7.91802
7.70015
7.48008
7.25934
7.03982
6.85163
6.6869
6.51554
6.33867
6.15737
5.9687
5.80393
5.55913
5.57761
4.93148
6.02092
3.2109
8.87084
10.0654
10.0537
10.0472
10.0441
10.0436
10.0473
10.0526
10.062
10.0724
10.0864
10.1006
10.1177
10.1339
10.152
10.1682
10.1851
10.1989
10.2122
10.2213
10.2288
10.2312
10.2311
10.2255
10.2168
10.2028
10.1858
10.1642
10.1403
10.1129
10.084
10.0528
10.0212
9.9884
9.95585
9.92294
9.89059
9.85847
9.82691
9.79576
9.76499
9.73448
9.70367
9.67239
9.63969
9.60513
9.56737
9.52561
9.47837
9.42465
9.36318
9.29308
9.21355
9.12415
9.02465
8.91485
8.79478
8.6641
8.52281
8.37038
8.20642
8.03148
7.84653
7.65262
7.45277
7.24884
7.04312
6.83801
6.66195
6.50819
6.34877
6.18456
6.01647
5.8413
5.68869
5.45732
5.48051
4.85809
5.91628
8.9663
8.94899
8.93517
8.92371
8.91423
8.90803
8.90328
8.90202
8.90188
8.90524
8.90945
8.91703
8.9251
8.93633
8.94773
8.96201
8.97603
8.99256
9.00847
9.02641
9.04318
9.06127
9.07764
9.09455
9.10907
9.12329
9.13454
9.14474
9.15164
9.15709
9.15926
9.15982
9.1575
9.15363
9.14753
9.14024
9.13133
9.12144
9.11033
9.09819
9.0849
9.07031
9.05418
9.03597
9.0153
8.99124
8.96317
8.92988
8.89058
8.84402
8.78944
8.726
8.65321
8.57075
8.47849
8.37642
8.26468
8.14288
8.01088
7.86845
7.7152
7.55117
7.37792
7.19655
7.00964
6.81943
6.62835
6.46412
6.32074
6.17234
6.02001
5.8648
5.70327
5.56309
5.34675
5.37343
8.01189
8.00013
7.99054
7.98198
7.97461
7.96948
7.96541
7.96396
7.96354
7.96594
7.96926
7.97545
7.98238
7.99212
8.00239
8.01539
8.02871
8.04461
8.06066
8.07922
8.09777
8.11856
8.13909
8.16163
8.18364
8.20703
8.22951
8.25289
8.27498
8.29727
8.31788
8.33807
8.35627
8.3736
8.38866
8.40236
8.4137
8.42332
8.43059
8.43596
8.43905
8.43993
8.4384
8.4342
8.42707
8.41639
8.40171
8.3821
8.35685
8.32492
8.28558
8.2379
8.18137
8.11556
8.04023
7.95547
7.86128
7.75794
7.64534
7.52302
7.39069
7.24816
7.0953
6.93364
6.76467
6.59059
6.41442
6.26175
6.12821
5.99007
5.84872
5.70518
5.55657
5.42845
7.0686
7.06709
7.06767
7.06904
7.0715
7.07551
7.08052
7.08738
7.09523
7.10513
7.11596
7.1289
7.14261
7.15839
7.17471
7.19302
7.21165
7.2322
7.25289
7.27547
7.2981
7.3226
7.34705
7.37332
7.39952
7.42741
7.45506
7.48419
7.51289
7.54264
7.57163
7.6012
7.62965
7.65793
7.68467
7.71064
7.7347
7.7574
7.77788
7.79645
7.81254
7.82631
7.83729
7.84545
7.85041
7.85183
7.84929
7.84212
7.8298
7.81139
7.78619
7.75331
7.71213
7.66204
7.60275
7.53424
7.45669
7.37041
7.27558
7.17225
7.05972
6.93757
6.80542
6.66378
6.51368
6.35719
6.19635
6.0559
5.93231
5.80398
5.67264
6.31925
6.32531
6.33229
6.33928
6.34639
6.35418
6.36214
6.37121
6.3807
6.39169
6.40335
6.41684
6.43112
6.44738
6.46443
6.48349
6.5032
6.52487
6.54705
6.57112
6.59556
6.62186
6.64846
6.67682
6.7054
6.73572
6.76615
6.79811
6.8301
6.86345
6.89669
6.93094
6.96482
6.99932
7.03302
7.06673
7.09911
7.13073
7.16046
7.18872
7.21462
7.23834
7.25929
7.27748
7.29248
7.30409
7.31193
7.31555
7.31444
7.3079
7.29527
7.27565
7.24837
7.21276
7.16837
7.115
7.05283
6.98235
6.90398
6.81758
6.72325
6.62005
6.5078
6.38617
6.25574
6.11744
5.52652
5.53954
5.55408
5.56904
5.58456
5.60075
5.61725
5.6345
5.65208
5.67058
5.68955
5.70973
5.73057
5.75286
5.7759
5.80054
5.8259
5.85284
5.88037
5.90942
5.93887
5.96976
6.00092
6.03345
6.06614
6.10018
6.13434
6.16981
6.20535
6.24216
6.27895
6.31681
6.35449
6.39291
6.43086
6.46911
6.50651
6.54361
6.57937
6.61413
6.64699
6.67816
6.70683
6.73304
6.75622
6.77631
6.79282
6.80551
6.81394
6.81757
6.81578
6.80774
6.79278
6.7701
6.7392
6.69974
6.65182
6.59588
6.53229
6.46144
6.38304
4.89328
4.90921
4.9263
4.94371
4.96175
4.98054
4.9998
5.01983
5.04021
5.06141
5.08296
5.10544
5.12837
5.15245
5.17715
5.20324
5.23008
5.25846
5.28761
5.31832
5.34971
5.38257
5.41593
5.45065
5.48568
5.52192
5.55831
5.59584
5.63344
5.67206
5.71069
5.75031
5.78992
5.83041
5.87073
5.91169
5.9522
5.99288
6.03264
6.07194
6.10979
6.1464
6.18074
6.21297
6.24244
6.2692
6.29277
6.31301
6.32948
6.34177
6.34937
6.35146
6.34723
6.33603
4.28477
4.30447
4.32519
4.34633
4.36821
4.39091
4.41437
4.43874
4.46384
4.48983
4.51646
4.54388
4.57182
4.60054
4.62974
4.65977
4.69031
4.72181
4.75387
4.78702
4.82072
4.85555
4.89083
4.92721
4.96386
5.0015
5.03924
5.07787
5.11646
5.15589
5.19521
5.23538
5.27539
5.31623
5.35688
5.39829
5.43941
5.48109
5.52225
5.56349
5.60342
5.64305
)
;

boundaryField
{
    inlet
    {
        type            freestreamPressure;
        freestreamValue uniform 0;
        value           nonuniform List<scalar> 
13
(
4.89901
4.91422
4.91772
4.91607
4.92166
4.9657
5.09541
5.38817
5.50142
5.35983
5.20295
5.10228
5.01759
)
;
    }
    outlet
    {
        type            freestreamPressure;
        freestreamValue nonuniform List<scalar> 0();
        value           nonuniform List<scalar> 0();
    }
    walls
    {
        type            zeroGradient;
    }
    frontAndBack
    {
        type            empty;
    }
    procBoundary2to1
    {
        type            processor;
        value           nonuniform List<scalar> 
84
(
-27.258
-26.0661
-25.133
-24.2382
-23.2948
-22.1396
-21.1863
-19.999
-18.903
-17.6992
-16.5002
-15.2489
-13.9772
-12.6732
-11.3457
-9.99638
-8.62848
-7.24788
-5.85681
-4.46268
-3.06812
-1.68173
-0.30647
1.04837
2.37954
3.67745
4.93874
6.15405
7.32025
8.42859
9.47632
10.4558
11.3649
12.1978
12.9533
13.6274
14.2205
14.7296
14.7296
16.418
16.7307
16.9565
17.0991
17.1638
17.1557
17.0807
16.9448
16.754
16.5141
16.2309
15.9102
15.5573
15.1769
15.1769
15.2563
14.7892
14.3114
13.8283
13.3414
12.8559
12.372
11.8936
11.4209
11.4209
11.1246
10.6517
10.1909
9.74532
9.31509
8.90355
8.57146
8.2965
8.01512
7.72762
7.72762
7.4921
7.19158
6.8852
6.59681
6.31424
5.91454
6.19217
4.15655
8.60354
)
;
    }
    procBoundary2to3
    {
        type            processor;
        value           nonuniform List<scalar> 
88
(
3.19339
8.69896
4.78067
3.19339
5.79746
5.22786
4.78067
5.25697
5.53989
5.40309
5.22786
5.28574
5.97387
5.84622
5.73294
5.61453
5.53989
5.49282
6.29771
6.20342
6.10098
5.98983
5.97387
5.87081
6.31745
6.29061
6.25573
6.21312
6.16318
6.10601
6.29771
6.04185
5.68063
5.71689
5.75083
5.7828
5.81201
5.83858
5.86179
5.88155
5.89711
5.9081
5.91333
6.31745
5.91182
3.85322
3.87722
3.90122
3.92452
3.9476
3.97037
3.9932
4.01602
4.03923
4.0627
4.08683
4.11136
4.13669
4.16248
4.18913
4.21623
4.24426
4.27275
4.30228
4.33234
4.36356
4.39538
4.42845
4.46213
4.49706
4.5325
4.56909
4.60601
4.64394
4.68204
4.72095
4.75989
4.79959
4.83924
4.87962
4.91993
4.96092
5.00179
5.04319
5.08421
5.125
5.68063
5.16438
)
;
    }
    procBoundary2to6
    {
        type            processor;
        value           nonuniform List<scalar> 
13
(
78.1053
25.1691
17.4395
14.0156
11.6724
10.0735
8.97774
8.01677
7.0662
6.30794
5.50973
4.87322
4.26292
)
;
    }
}


// ************************************************************************* //
