/*--------------------------------*- C++ -*----------------------------------*\
| =========                 |                                                 |
| \\      /  F ield         | OpenFOAM: The Open Source CFD Toolbox           |
|  \\    /   O peration     | Version:  2506                                  |
|   \\  /    A nd           | Website:  www.openfoam.com                      |
|    \\/     M anipulation  |                                                 |
\*---------------------------------------------------------------------------*/
FoamFile
{
    version     2.0;
    format      ascii;
    arch        "LSB;label=32;scalar=64";
    class       surfaceScalarField;
    location    "100";
    object      phi;
}
// * * * * * * * * * * * * * * * * * * * * * * * * * * * * * * * * * * * * * //

dimensions      [0 3 -1 0 0 0 0];

oriented        oriented;

internalField   nonuniform List<scalar> 
2579
(
0.2134
0.00416883
0.207611
0.00573342
0.195681
0.0118433
0.177697
0.0178184
0.24101
0.00798682
0.236595
0.0100568
0.22755
0.0207679
0.212889
0.0322575
0.261788
0.0113304
0.25724
0.0145705
0.248076
0.0298702
0.233535
0.0466844
0.280478
0.0140031
0.276349
0.0185915
0.267881
0.0381973
0.252154
0.0621604
0.29487
0.016434
0.291142
0.022298
0.283973
0.045323
0.268653
0.0773893
0.311157
0.0189504
0.307101
0.0262439
0.300022
0.0522544
0.284909
0.0922474
0.327515
0.0215918
0.323304
0.0304565
0.316227
0.0593075
0.301618
0.10681
0.345163
0.0242651
0.340787
0.0347283
0.333588
0.0663614
0.319437
0.120731
0.363572
0.0270567
0.359043
0.0392743
0.35184
0.0735593
0.338247
0.134316
0.38302
0.0298605
0.378389
0.0438063
0.371177
0.0806311
0.358085
0.147206
0.403491
0.0327734
0.398746
0.0485816
0.391542
0.0878437
0.379021
0.159745
0.425033
0.0356635
0.420199
0.0533229
0.413062
0.0948482
0.401112
0.17152
0.447744
0.0386437
0.442849
0.0582588
0.435732
0.101984
0.424394
0.182897
0.471634
0.0415623
0.466705
0.0631009
0.459697
0.108869
0.448932
0.193514
0.496808
0.0445675
0.491871
0.0680839
0.484933
0.115835
0.474778
0.203718
0.523319
0.047471
0.518385
0.072938
0.511577
0.122532
0.502049
0.213121
0.551227
0.0504318
0.546355
0.0778619
0.539663
0.129255
0.530717
0.222125
0.580649
0.0532176
0.575821
0.0826195
0.569324
0.135654
0.560967
0.230381
0.611614
0.0560208
0.606907
0.0873769
0.60057
0.142028
0.592805
0.238205
0.644242
0.0586297
0.639662
0.091899
0.633521
0.148086
0.626321
0.245324
0.6786
0.0612145
0.674195
0.0963632
0.668292
0.154024
0.661608
0.252071
0.714822
0.0635383
0.710579
0.100561
0.704918
0.159621
0.698805
0.258121
0.752964
0.0657682
0.748954
0.104627
0.743562
0.165056
0.737927
0.263814
0.793155
0.0677183
0.789402
0.108346
0.784273
0.170139
0.779121
0.268913
0.835495
0.0695804
0.832047
0.111848
0.827203
0.175026
0.822502
0.27367
0.880116
0.0711002
0.876898
0.115038
0.872487
0.179401
0.868206
0.277907
0.927177
0.0723141
0.924374
0.117886
0.920131
0.183688
0.916261
0.281823
0.976894
0.0732296
0.974137
0.120615
0.970401
0.187395
0.966951
0.285233
1.02899
0.0739222
1.02684
0.122802
1.02334
0.190936
1.02037
0.288234
1.08415
0.0742837
1.08233
0.124605
1.07923
0.193999
1.0766
0.290829
1.14234
0.0743829
1.14076
0.126213
1.13806
0.196727
1.13563
0.293286
1.20359
0.0741456
1.20251
0.127265
1.20023
0.198977
1.19811
0.29537
1.26839
0.0733637
1.26755
0.128122
1.26544
0.201109
1.26391
0.296922
1.33638
0.0726529
1.33607
0.12841
1.33439
0.202759
1.33302
0.298257
1.40849
0.0713765
1.40828
0.128633
1.40715
0.203894
1.40612
0.299312
1.48444
0.0699151
1.48474
0.128313
1.48367
0.204943
1.48292
0.300032
1.56452
0.0681598
1.56505
0.12779
1.56452
0.205477
1.56409
0.300483
1.64923
0.0661277
1.65012
0.126879
1.64978
0.205801
1.6495
0.300742
1.73632
0.0128738
1.7385
0.0639523
1.73961
0.125769
1.73953
0.205894
1.73968
0.300606
1.8304
0.00945981
1.83282
0.0615183
1.83413
0.124448
1.83446
0.205552
1.83475
0.3003
1.92983
0.00588238
1.93237
0.058979
1.93399
0.122828
1.93446
0.205084
1.93501
0.299767
2.03477
0.00228859
2.03752
0.0562192
2.03933
0.121012
2.0399
0.204506
2.0407
0.298949
2.14574
-0.00144506
2.14857
0.0533934
2.15065
0.118933
2.15147
0.203688
2.15225
0.298178
2.26291
-0.00517531
2.26594
0.0503623
2.26802
0.116845
2.26892
0.202787
2.27007
0.297013
2.3868
-0.00889379
2.38988
0.0472794
2.39193
0.114788
2.39306
0.201666
2.39427
0.295807
2.51767
-0.0128452
2.52065
0.0442995
2.52296
0.11248
2.524
0.20062
2.52528
0.294514
2.65584
-0.0166591
2.65897
0.0411658
2.66124
0.110209
2.66247
0.199387
2.66365
0.293338
2.80178
-0.0204258
2.80494
0.0379997
2.80716
0.107996
2.80843
0.198112
2.8098
0.291968
2.9561
-0.0241889
2.95912
0.0349743
2.96154
0.105578
2.9626
0.19705
2.96399
0.290587
3.11913
-0.0280499
3.12207
0.0320324
3.12429
0.103361
3.1255
0.195838
3.1269
0.28919
3.29119
-0.0316494
3.29414
0.0290873
3.29643
0.101074
3.29743
0.194835
3.29867
0.287953
3.47294
-0.035254
3.47604
0.025994
3.47801
0.0991023
3.47904
0.193804
3.48027
0.286728
3.66153
-0.0957735
3.66514
-0.0388618
3.6679
0.0232387
3.66992
0.0970737
3.67074
0.192987
3.67183
0.285641
3.8643
-0.100208
3.86784
-0.0423973
3.87061
0.0204773
3.87263
0.0950534
3.87322
0.192401
3.87427
0.284587
4.07857
-0.104693
4.08214
-0.0459689
4.08475
0.0178762
4.08657
0.0932353
4.08709
0.191876
4.08799
0.283685
4.3047
-0.109026
4.30821
-0.0494757
4.31089
0.0151979
4.31245
0.0916793
4.3128
0.191528
4.31342
0.283065
4.54361
-0.113584
4.54698
-0.0528449
4.54937
0.0128144
4.55094
0.0901156
4.55111
0.191355
4.5517
0.282474
4.79557
-0.11806
4.79892
-0.0561908
4.80145
0.01029
4.80276
0.0888062
4.80267
0.19145
4.803
0.282137
5.0617
-0.122694
5.06509
-0.0595794
5.06736
0.00802763
5.06861
0.0875533
5.0683
0.191764
5.06837
0.282066
5.34257
-0.127294
5.34588
-0.0628874
5.34809
0.0058079
5.34914
0.0865081
5.3486
0.192301
5.34857
0.282101
5.63893
-0.131885
5.64221
-0.0661706
5.64424
0.00378271
5.64527
0.0854695
5.64443
0.193144
5.64417
0.28236
5.94693
-0.204269
5.95169
-0.13665
5.95495
-0.069427
5.95709
0.00163586
5.95777
0.0847974
5.95679
0.194127
5.95618
0.282972
6.27698
-0.211018
6.28168
-0.141343
6.28498
-0.0727316
6.28703
-0.000406448
6.28762
0.0842061
6.28628
0.195475
6.28551
0.283737
6.62498
-0.217922
6.6299
-0.146269
6.63328
-0.0761036
6.63502
-0.00214875
6.63556
0.0836622
6.63394
0.197099
6.63297
0.284705
6.99226
-0.225159
6.99747
-0.151482
7.00083
-0.0794677
7.00255
-0.00386283
7.00297
0.0832413
7.00015
0.199912
6.99934
0.28552
7.37943
-0.233411
7.38419
-0.156242
7.38707
-0.0823456
7.38866
-0.00545603
7.38963
0.0822696
7.38801
0.201528
7.38556
0.287971
7.78646
-0.239911
7.79197
-0.161757
7.79555
-0.0859252
7.79784
-0.0077476
7.79699
0.0831119
7.79492
0.203595
7.79381
0.289084
5.70182
-0.268636
5.7339
-0.193829
5.77091
-0.122939
5.81085
-0.047687
5.85821
0.035754
5.91731
0.144495
5.96928
0.237113
6.27332
-0.301211
6.30918
-0.229693
6.3474
-0.161156
6.39242
-0.0927044
6.44495
-0.0167753
6.5095
0.0799454
6.56765
0.178966
6.90055
-0.336456
6.94033
-0.269473
6.9837
-0.204521
7.03392
-0.142927
7.09049
-0.0733391
7.16191
0.00851604
7.22375
0.117127
7.59256
-0.37451
7.63507
-0.311984
7.68247
-0.251916
7.73672
-0.197183
7.79999
-0.136603
7.87722
-0.0687164
7.94793
0.0464154
8.30971
-0.482577
8.35329
-0.418089
8.3987
-0.357402
8.45277
-0.305991
8.51118
-0.255595
8.58135
-0.206774
8.66705
-0.154417
8.74297
-0.0295006
9.1424
-0.523917
9.18907
-0.464763
9.24135
-0.409677
9.29713
-0.361776
9.36374
-0.322205
9.43962
-0.282656
9.53278
-0.247585
9.61784
-0.114556
10.0576
-0.56988
10.1075
-0.514685
10.1642
-0.466376
10.2282
-0.425809
10.2992
-0.393241
10.3822
-0.365671
10.4868
-0.352101
10.5784
-0.206183
11.0633
-0.620608
11.1192
-0.570536
11.1817
-0.528925
11.2503
-0.494363
11.3285
-0.471429
11.4202
-0.457337
11.534
-0.465917
11.6353
-0.307467
12.1659
-0.676071
12.2276
-0.632287
12.2947
-0.595989
12.3703
-0.569948
12.4568
-0.557945
12.5568
-0.557343
12.6801
-0.589169
12.7897
-0.417054
13.3779
-0.735516
13.4447
-0.69909
13.5193
-0.670566
13.6023
-0.652964
13.6964
-0.652062
13.8072
-0.668151
13.9463
-0.72821
14.0691
-0.539918
14.7064
-0.801379
14.7797
-0.772349
14.8607
-0.751572
14.9514
-0.743689
15.0555
-0.756149
15.1753
-0.787967
15.3206
-0.873555
15.4494
-0.668626
16.1976
-0.875215
16.2797
-0.854418
16.3718
-0.843653
16.4736
-0.845534
16.5887
-0.871212
16.7265
-0.925729
16.9016
-1.04871
17.0577
-0.824751
17.8316
17.9218
18.0208
18.1316
18.2573
18.3993
18.5668
18.7207
-0.291435
0.194267
-0.304823
0.226223
-0.317911
0.246556
-0.328869
0.263033
-0.33876
0.278501
-0.34803
0.294102
-0.356818
0.310388
-0.365104
0.327657
-0.372758
0.345901
-0.379859
0.365128
-0.386317
0.385489
-0.392208
0.406954
-0.397422
0.429626
-0.402092
0.453559
-0.406112
0.478817
-0.409605
0.505504
-0.412526
0.533661
-0.414978
0.563386
-0.416909
0.594755
-0.418458
0.627845
-0.419576
0.662752
-0.420401
0.699615
-0.420897
0.738453
-0.421195
0.779411
-0.421262
0.822602
-0.421218
0.868159
-0.421034
0.91611
-0.42082
0.966732
-0.420542
1.02012
-0.420297
1.07635
-0.420051
1.1354
-0.419872
1.19792
-0.41977
1.26382
-0.419772
1.33302
-0.419864
1.40622
-0.420098
1.48315
-0.420452
1.56445
-0.420964
1.65
-0.421615
1.74033
-0.422431
1.83556
-0.423395
1.93597
-0.424518
2.04182
-0.425786
2.15352
-0.427186
2.27147
-0.428732
2.39581
-0.430417
2.52697
-0.432197
2.66543
-0.434074
2.81167
-0.436032
2.96594
-0.438056
3.12892
-0.440129
3.30074
-0.442238
3.48238
-0.444361
3.67396
-0.446489
3.8764
-0.448604
4.09011
-0.450696
4.31551
-0.452751
4.55375
-0.454759
4.80501
-0.456711
5.07032
-0.458596
5.35045
-0.460393
5.64597
-0.462145
5.95793
-0.463797
6.28716
-0.465363
6.63453
-0.466839
7.00081
-0.468225
7.38694
-0.469522
7.7951
-0.470408
5.97016
-0.471296
6.56854
-0.472162
7.22462
-0.473048
7.94881
-0.473899
8.74382
-0.474707
9.61864
-0.475458
10.5791
-0.475989
11.6358
-0.476526
12.7902
-0.476372
14.069
-0.478125
15.4511
-0.476989
17.0566
18.727
-0.360755
0.21298
-0.369477
0.23504
-0.374302
0.251414
-0.37713
0.265943
-0.379446
0.280829
-0.381715
0.296431
-0.384241
0.312914
-0.386874
0.330328
-0.389695
0.348712
-0.392613
0.368069
-0.395641
0.388505
-0.398742
0.410065
-0.401922
0.432793
-0.405117
0.456755
-0.40832
0.48201
-0.411499
0.508677
-0.414585
0.536739
-0.417589
0.56638
-0.420457
0.59762
-0.423179
0.630553
-0.425709
0.665281
-0.428058
0.701947
-0.43018
0.740575
-0.432106
0.781317
-0.433797
0.824294
-0.4353
0.869643
-0.436588
0.9174
-0.437718
0.967845
-0.438671
1.02108
-0.439512
1.07717
-0.440227
1.13613
-0.440898
1.19858
-0.44147
1.2644
-0.44205
1.33359
-0.442615
1.4068
-0.443222
1.48375
-0.443861
1.5651
-0.444578
1.65071
-0.445367
1.74113
-0.44626
1.83645
-0.447249
1.93697
-0.448357
2.04293
-0.449576
2.15474
-0.450929
2.27282
-0.45238
2.39727
-0.453928
2.52852
-0.455595
2.6671
-0.457357
2.81343
-0.459204
2.96779
-0.461123
3.13084
-0.463103
3.30273
-0.465129
3.4844
-0.467187
3.67602
-0.46926
3.87848
-0.471337
4.09219
-0.473403
4.31758
-0.475463
4.55581
-0.477472
4.80702
-0.479419
5.07226
-0.481329
5.35236
-0.483192
5.64783
-0.484951
5.95969
-0.486653
6.28886
-0.488289
6.63617
-0.489807
7.00233
-0.491254
7.38839
-0.492613
7.79646
-0.493562
5.97111
-0.494482
6.56945
-0.495431
7.22557
-0.49634
7.94972
-0.497248
8.74472
-0.498117
9.61951
-0.498928
10.5799
-0.499504
11.6364
-0.500114
12.7908
-0.5
14.0689
-0.501949
15.4531
-0.501139
17.0558
18.7334
-0.411756
0.224896
-0.41738
0.240816
-0.420702
0.254777
-0.423318
0.26871
-0.425884
0.28341
-0.428263
0.298942
-0.430691
0.315343
-0.432913
0.33266
-0.435118
0.350905
-0.43712
0.370159
-0.439126
0.390497
-0.440928
0.411934
-0.44271
0.434559
-0.444319
0.458412
-0.445918
0.483596
-0.447396
0.510188
-0.448865
0.538198
-0.450219
0.567754
-0.451565
0.59896
-0.452849
0.631851
-0.454122
0.666555
-0.45532
0.703157
-0.456497
0.741764
-0.457651
0.782484
-0.458743
0.825407
-0.459784
0.870698
-0.46078
0.918421
-0.46174
0.968817
-0.462636
1.022
-0.463501
1.07805
-0.464303
1.13695
-0.465087
1.19937
-0.465823
1.26516
-0.466576
1.33434
-0.467291
1.40752
-0.468031
1.48448
-0.468781
1.56585
-0.469582
1.65151
-0.470409
1.74196
-0.471341
1.83737
-0.472312
1.93794
-0.47339
2.044
-0.474572
2.15592
-0.475824
2.27407
-0.477189
2.39863
-0.478654
2.52998
-0.480233
2.66868
-0.481889
2.81509
-0.483631
2.96953
-0.485434
3.13265
-0.487322
3.30461
-0.489281
3.48636
-0.491251
3.67799
-0.493267
3.88049
-0.495312
4.09424
-0.49733
4.3196
-0.499352
4.55784
-0.501352
4.80902
-0.503319
5.07423
-0.505243
5.35429
-0.507115
5.6497
-0.508928
5.9615
-0.510671
6.29061
-0.512342
6.63784
-0.513947
7.00394
-0.515452
7.38989
-0.516855
7.79786
-0.517832
5.97208
-0.518831
6.57045
-0.519798
7.22653
-0.520794
7.95072
-0.521746
8.74567
-0.522692
9.62046
-0.52357
10.5808
-0.524185
11.637
-0.524879
12.7915
-0.524791
14.0688
-0.526973
15.4552
-0.52639
17.0552
18.7399
-0.469626
0.228833
-0.470892
0.241958
-0.471471
0.255207
-0.472043
0.269195
-0.472719
0.283976
-0.473412
0.299585
-0.474192
0.316042
-0.474965
0.333409
-0.475819
0.351697
-0.476656
0.370988
-0.477566
0.391355
-0.478442
0.412811
-0.479374
0.435447
-0.480256
0.4593
-0.481193
0.484491
-0.482035
0.511037
-0.482912
0.539037
-0.483716
0.568563
-0.484528
0.599735
-0.485263
0.632589
-0.485995
0.667255
-0.486675
0.703834
-0.487321
0.742378
-0.487927
0.783082
-0.488531
0.825978
-0.489094
0.871248
-0.48966
0.918957
-0.490201
0.969343
-0.49075
1.02252
-0.491288
1.07857
-0.491838
1.13748
-0.49239
1.19991
-0.49296
1.26571
-0.493547
1.33491
-0.494157
1.40813
-0.494804
1.48512
-0.495485
1.56653
-0.49622
1.65223
-0.497019
1.74276
-0.497858
1.83821
-0.498778
1.93886
-0.499782
2.045
-0.500867
2.157
-0.502045
2.27524
-0.503312
2.3999
-0.504676
2.53134
-0.506133
2.67013
-0.507682
2.81664
-0.509318
2.97117
-0.511036
3.13436
-0.512829
3.30641
-0.514686
3.48822
-0.516596
3.6799
-0.518545
3.88245
-0.520523
4.09622
-0.522529
4.32161
-0.524508
4.55982
-0.52649
4.81101
-0.528467
5.07621
-0.5304
5.35621
-0.532276
5.65158
-0.534116
5.96334
-0.535901
6.29239
-0.537618
6.63956
-0.53926
7.00558
-0.540821
7.39145
-0.542299
7.79934
-0.543319
5.9731
-0.544349
6.57148
-0.545384
7.22757
-0.546421
7.95176
-0.547451
8.7467
-0.548445
9.62145
-0.549389
10.5818
-0.550063
11.6376
-0.550845
12.7923
-0.550841
14.0688
-0.553187
15.4576
-0.552983
17.055
18.7465
-0.520396
0.228976
-0.519795
0.241538
-0.519298
0.254804
-0.518819
0.26886
-0.518475
0.283681
-0.518106
0.299331
-0.517829
0.315783
-0.517521
0.333195
-0.51734
0.351514
-0.517114
0.370839
-0.517017
0.391242
-0.516879
0.412736
-0.516866
0.435411
-0.516833
0.459319
-0.516892
0.484521
-0.516934
0.511121
-0.517085
0.539159
-0.51721
0.56872
-0.517429
0.599923
-0.517621
0.632805
-0.517891
0.667496
-0.518134
0.704095
-0.518439
0.742654
-0.518713
0.783372
-0.519034
0.826277
-0.519328
0.871557
-0.519662
0.919273
-0.519974
0.969667
-0.52032
1.02286
-0.520656
1.07891
-0.521025
1.13784
-0.521402
1.20029
-0.521812
1.26612
-0.522249
1.33535
-0.522725
1.4086
-0.523243
1.48563
-0.523808
1.56709
-0.52443
1.65285
-0.525109
1.74343
-0.52586
1.83895
-0.526679
1.93967
-0.527597
2.04591
-0.528563
2.15797
-0.529635
2.27631
-0.530795
2.40105
-0.53205
2.53259
-0.533397
2.67148
-0.534837
2.81808
-0.536366
2.9727
-0.537981
3.13598
-0.539693
3.30812
-0.541444
3.48997
-0.543273
3.68173
-0.545151
3.88433
-0.547068
4.09814
-0.549012
4.32356
-0.550967
4.56178
-0.552925
4.81297
-0.554876
5.07816
-0.556807
5.35815
-0.558711
5.65348
-0.560594
5.96522
-0.562395
6.29419
-0.564154
6.64131
-0.565844
7.00727
-0.567459
7.39307
-0.568995
7.80087
-0.570059
5.97417
-0.571137
6.57256
-0.572225
7.22866
-0.573321
7.95285
-0.574414
8.74779
-0.575477
9.62251
-0.576486
10.5828
-0.577235
11.6384
-0.578073
12.7931
-0.578224
14.0689
-0.580667
15.46
-0.580932
-0.561128
0.228239
-0.560355
0.240854
-0.559725
0.254189
-0.559038
0.268253
-0.558445
0.283087
-0.557774
0.298732
-0.557233
0.315228
-0.556597
0.332624
-0.556097
0.35099
-0.555518
0.370318
-0.555031
0.390725
-0.554497
0.412255
-0.554074
0.434953
-0.553594
0.458885
-0.553222
0.484114
-0.552803
0.510742
-0.552492
0.538811
-0.552158
0.568421
-0.551912
0.599644
-0.55164
0.632563
-0.551453
0.667276
-0.551265
0.70393
-0.551181
0.742543
-0.551063
0.783269
-0.551043
0.826229
-0.55104
0.871561
-0.551094
0.919299
-0.551156
0.969729
-0.551281
1.02295
-0.55142
1.07905
-0.551615
1.13801
-0.551831
1.2005
-0.5521
1.26636
-0.552383
1.33562
-0.552734
1.40893
-0.553127
1.48602
-0.553577
1.56753
-0.554084
1.65335
-0.554654
1.744
-0.555294
1.83958
-0.556021
1.9404
-0.556799
2.04668
-0.557672
2.15884
-0.55865
2.27728
-0.559699
2.4021
-0.560844
2.53373
-0.562065
2.6727
-0.563397
2.81941
-0.564819
2.97412
-0.566347
3.13751
-0.567928
3.3097
-0.569603
3.49165
-0.571363
3.68349
-0.573166
3.88613
-0.575003
4.09998
-0.576891
4.32545
-0.578805
4.5637
-0.580731
4.8149
-0.582661
5.0801
-0.584587
5.36008
-0.586498
5.65539
-0.58838
5.96711
-0.590243
6.29605
-0.592021
6.64309
-0.593755
7.009
-0.595421
7.39473
-0.597028
7.80248
-0.59812
5.97526
-0.599247
6.57369
-0.60039
7.2298
-0.601546
7.95401
-0.602722
8.74897
-0.60384
9.62363
-0.604917
10.5839
-0.605745
11.6392
-0.606665
12.794
-0.606961
-0.596306
0.22761
-0.595635
0.240263
-0.595025
0.253602
-0.594361
0.267665
-0.593761
0.282498
-0.593101
0.298145
-0.592518
0.314646
-0.591871
0.332048
-0.59131
0.350421
-0.590683
0.369758
-0.590148
0.390176
-0.589547
0.411717
-0.589043
0.434428
-0.588475
0.458376
-0.588004
0.48362
-0.587476
0.510266
-0.587045
0.538354
-0.586563
0.567984
-0.586175
0.599229
-0.585746
0.632172
-0.585408
0.666911
-0.58504
0.703592
-0.584759
0.742235
-0.58446
0.782994
-0.584246
0.825988
-0.584023
0.871357
-0.58388
0.919134
-0.583742
0.969605
-0.58368
1.02287
-0.583633
1.07901
-0.583658
1.13802
-0.583708
1.20055
-0.583825
1.26647
-0.58398
1.33578
-0.584201
1.40914
-0.584469
1.48628
-0.584803
1.56786
-0.585195
1.65374
-0.585656
1.74445
-0.586186
1.84011
-0.586792
1.941
-0.587476
2.04736
-0.588242
2.1596
-0.589096
2.27813
-0.590038
2.40304
-0.591075
2.53477
-0.592204
2.67383
-0.593429
2.82063
-0.594746
2.97544
-0.596157
3.13892
-0.597657
3.3112
-0.599239
3.49323
-0.600897
3.68515
-0.602622
3.88786
-0.604406
4.10176
-0.606236
4.32728
-0.6081
4.56557
-0.60999
4.81679
-0.611896
5.08201
-0.613809
5.36199
-0.615734
5.65732
-0.617613
5.96899
-0.619479
6.29792
-0.621305
6.64492
-0.623078
7.01077
-0.62479
7.39644
-0.626435
7.80412
-0.627586
5.97641
-0.628762
6.57487
-0.629961
7.231
-0.63118
7.95522
-0.632409
8.75019
-0.633617
9.62484
-0.634766
10.585
-0.635677
-0.629531
0.227178
-0.62897
0.23979
-0.628457
0.25313
-0.627901
0.267181
-0.62739
0.282005
-0.626827
0.297646
-0.626318
0.314141
-0.625769
0.331555
-0.62525
0.349896
-0.624689
0.369248
-0.624209
0.389683
-0.623656
0.411212
-0.623175
0.433928
-0.622621
0.457867
-0.622159
0.483134
-0.621658
0.509806
-0.621218
0.53789
-0.620714
0.567518
-0.620306
0.598794
-0.619853
0.631753
-0.619494
0.666526
-0.61907
0.703197
-0.618739
0.741877
-0.618397
0.782676
-0.618114
0.82568
-0.617803
0.871062
-0.61758
0.918884
-0.617355
0.969388
-0.6172
1.02269
-0.617056
1.07887
-0.616979
1.13792
-0.616925
1.2005
-0.61694
1.26646
-0.617001
1.33584
-0.617115
1.40924
-0.617273
1.48644
-0.617501
1.56808
-0.617785
1.65402
-0.618128
1.74479
-0.618568
1.84055
-0.619055
1.94148
-0.619635
2.04794
-0.620314
2.16028
-0.621049
2.27887
-0.621888
2.40388
-0.622822
2.5357
-0.623863
2.67487
-0.624986
2.82175
-0.626203
2.97665
-0.6275
3.14021
-0.628904
3.3126
-0.630411
3.49474
-0.631967
3.6867
-0.633613
3.8895
-0.63534
4.10349
-0.637092
4.32904
-0.63892
4.5674
-0.640768
4.81865
-0.642628
5.08387
-0.644523
5.36389
-0.646426
5.65923
-0.648324
5.97089
-0.650205
6.2998
-0.652071
6.64679
-0.653877
7.01258
-0.655633
7.3982
-0.657313
7.80581
-0.658522
5.97762
-0.659748
6.57609
-0.661004
7.23225
-0.662287
7.95651
-0.663572
-0.664876
-0.662974
0.226835
-0.662656
0.239456
-0.662302
0.252744
-0.661916
0.266794
-0.661536
0.281602
-0.661123
0.297244
-0.660694
0.313696
-0.660234
0.331115
-0.659799
0.349447
-0.659317
0.368792
-0.658868
0.389221
-0.658374
0.410748
-0.657921
0.433463
-0.657439
0.457417
-0.656991
0.482673
-0.656484
0.509333
-0.656048
0.537439
-0.655572
0.567076
-0.655157
0.598362
-0.654705
0.631333
-0.654318
0.666121
-0.653916
0.702823
-0.653549
0.741491
-0.653174
0.782325
-0.652866
0.825352
-0.652542
0.870758
-0.652287
0.918607
-0.652025
0.969141
-0.651827
1.02247
-0.651634
1.07869
-0.651523
1.13779
-0.651395
1.20038
-0.651347
1.2664
-0.651326
1.33582
-0.651371
1.40927
-0.651455
1.48653
-0.651608
1.56822
-0.651811
1.65423
-0.652102
1.74507
-0.652426
1.84087
-0.652857
1.94191
-0.653347
2.04843
-0.653905
2.16083
-0.654561
2.27952
-0.655307
2.40463
-0.656145
2.53654
-0.657075
2.6758
-0.658103
2.82278
-0.659225
2.97778
-0.660444
3.14143
-0.661772
3.31393
-0.663159
3.49612
-0.664662
3.68821
-0.666229
3.89107
-0.667852
4.10511
-0.669571
4.33076
-0.671312
4.56914
-0.673115
4.82045
-0.674974
5.08573
-0.676845
5.36577
-0.678719
5.66111
-0.680632
5.97281
-0.682505
6.30168
-0.684373
6.64866
-0.686208
7.01442
-0.688
7.4
-0.689761
-0.690979
-0.692254
-0.693568
-0.696991
0.226648
-0.696749
0.239247
-0.696529
0.25253
-0.696248
0.266544
-0.695978
0.281333
-0.695645
0.296941
-0.69536
0.313408
-0.694996
0.33078
-0.694684
0.349129
-0.694309
0.368446
-0.693946
0.388849
-0.693552
0.410382
-0.69319
0.433089
-0.692783
0.457038
-0.692413
0.482289
-0.692
0.508947
-0.691629
0.537053
-0.691234
0.566706
-0.690868
0.59798
-0.690467
0.630957
-0.6901
0.665736
-0.689718
0.702464
-0.689403
0.741159
-0.689032
0.781976
-0.688733
0.825034
-0.688431
0.870474
-0.68817
0.918329
-0.687901
0.968885
-0.687691
1.02225
-0.687483
1.07848
-0.687318
1.1376
-0.687196
1.20026
-0.687119
1.2663
-0.687047
1.33575
-0.687053
1.40926
-0.68709
1.48657
-0.687193
1.56831
-0.687339
1.65437
-0.687556
1.74528
-0.687828
1.84115
-0.688175
1.94226
-0.688591
2.04885
-0.689088
2.16133
-0.689681
2.28012
-0.690346
2.40529
-0.6911
2.53729
-0.69193
2.67663
-0.692871
2.82372
-0.693907
2.97881
-0.695056
3.14258
-0.696267
3.31514
-0.697586
3.49744
-0.698993
3.68961
-0.700483
3.89256
-0.70205
4.10668
-0.703687
4.33239
-0.705388
4.57084
-0.707145
4.82221
-0.708949
5.08754
-0.710794
5.36762
-0.712682
5.66301
-0.714556
-0.716464
-0.718329
-0.720186
-0.732629
0.226557
-0.732507
0.239134
-0.732359
0.25238
-0.732193
0.266388
-0.732018
0.281156
-0.731825
0.29676
-0.731596
0.313176
-0.731364
0.330561
-0.7311
0.348862
-0.730818
0.368179
-0.730556
0.388584
-0.730244
0.410088
-0.729944
0.432784
-0.729594
0.456708
-0.729293
0.481982
-0.728943
0.508618
-0.728618
0.53672
-0.728245
0.566355
-0.727918
0.597644
-0.727561
0.630623
-0.727255
0.665421
-0.726908
0.702138
-0.726585
0.740825
-0.726271
0.781683
-0.725986
0.824738
-0.72567
0.870177
-0.725416
0.918064
-0.725154
0.96864
-0.724943
1.02202
-0.72473
1.07829
-0.724572
1.13743
-0.72442
1.20012
-0.724324
1.2662
-0.724261
1.3357
-0.724242
1.40924
-0.724249
1.48658
-0.72432
1.56838
-0.724429
1.65449
-0.724604
1.74545
-0.724829
1.84138
-0.725112
1.94254
-0.725471
2.04922
-0.725924
2.16179
-0.726421
2.28062
-0.727019
2.40589
-0.727701
2.53798
-0.72849
2.67742
-0.729355
2.82458
-0.730315
2.97977
-0.731356
3.14362
-0.732505
3.31629
-0.733763
3.4987
-0.735078
3.69093
-0.736495
3.89398
-0.738008
-0.739582
-0.741226
-0.742934
-0.744684
-0.746514
-0.769661
0.226557
-0.769597
0.239116
-0.769543
0.252358
-0.76945
0.266331
-0.769355
0.281079
-0.769215
0.296648
-0.769104
0.313076
-0.768931
0.330411
-0.768789
0.348725
-0.768598
0.368008
-0.768395
0.38838
-0.768173
0.409884
-0.767959
0.432566
-0.767725
0.456492
-0.767472
0.481723
-0.7672
0.508364
-0.766945
0.536457
-0.766672
0.566101
-0.766405
0.597369
-0.766108
0.630344
-0.765821
0.665125
-0.765522
0.701859
-0.765269
0.740564
-0.764962
0.781396
-0.764706
0.824473
-0.764446
0.869937
-0.764212
0.917821
-0.763966
0.968412
-0.763763
1.02181
-0.763557
1.0781
-0.7634
1.13727
-0.763233
1.19996
-0.763149
1.2661
-0.763047
1.33561
-0.763017
1.4092
-0.763008
1.48658
-0.76306
1.56842
-0.763143
1.65458
-0.763291
1.7456
-0.763481
1.84158
-0.763756
1.94281
-0.764069
2.04954
-0.764444
-0.764905
-0.765465
-0.766089
-0.766787
-0.76759
-0.768485
-0.76949
-0.770572
-0.771729
-0.773008
-0.808801
-0.808842
-0.808876
-0.808885
-0.808871
-0.808833
-0.808773
-0.808706
-0.808588
-0.808462
-0.808321
-0.808172
-0.807996
-0.807781
-0.807577
-0.807364
-0.807137
-0.806871
-0.80663
-0.806364
-0.806131
-0.805844
-0.805597
-0.805328
-0.805106
-0.804835
-0.804617
-0.804385
-0.804196
-0.804001
-0.803854
-0.803722
-0.803611
-0.803523
-0.803493
-0.803478
-0.803525
-0.803613
-0.803737
-0.803905
-0.804151
)
;

boundaryField
{
    inlet
    {
        type            calculated;
        value           nonuniform List<scalar> 
13
(
-0.955695
-0.944666
-0.942669
-0.956321
-0.99692
-1.06771
-1.21621
-0.978639
-0.483275
-0.507522
-0.532964
-0.559587
-0.587491
)
;
    }
    outlet
    {
        type            calculated;
        value           nonuniform List<scalar> 0();
    }
    walls
    {
        type            calculated;
        value           uniform 0;
    }
    frontAndBack
    {
        type            empty;
    }
    procBoundary2to1
    {
        type            processor;
        value           nonuniform List<scalar> 
84
(
-0.217574
-0.244849
-0.26513
-0.283181
-0.297295
-0.313711
-0.330144
-0.34788
-0.366346
-0.385872
-0.40638
-0.427974
-0.450696
-0.474604
-0.499781
-0.526272
-0.554153
-0.58348
-0.614381
-0.64689
-0.681143
-0.717177
-0.755157
-0.795132
-0.837322
-0.881659
-0.928365
-0.977831
-1.02967
-1.08454
-1.14243
-1.20337
-1.26761
-1.33568
-1.40721
-1.48299
-1.56277
-1.64721
-0.016238
-1.73297
-1.82699
-1.92626
-2.03118
-2.14202
-2.25918
-2.38308
-2.51372
-2.65203
-2.79801
-2.95233
-3.11527
-3.28759
-3.46934
0.091267
-3.65701
-3.85988
-4.07407
-4.30038
-4.53904
-4.7911
-5.05706
-5.33797
-5.63433
0.1979
-5.94055
-6.27024
-6.61807
-6.98502
-7.37116
-7.77996
-5.67309
-6.24074
-6.8653
-7.55451
0.444435
-8.27157
-9.10106
-10.0116
-11.0126
-12.1104
-13.3184
-14.6405
-16.1238
-17.7511
)
;
    }
    procBoundary2to3
    {
        type            processor;
        value           nonuniform List<scalar> 
88
(
17.0553
18.7531
14.0692
-0.609535
15.4626
11.6401
-0.636658
12.795
8.75148
9.62614
-0.666103
10.5862
7.80756
5.97884
6.57737
7.23357
-0.694921
7.95786
5.97468
6.30359
6.65053
7.01628
-0.722017
7.40182
4.10819
4.33397
4.57249
4.82392
5.08929
5.36945
-0.748354
5.66484
2.16216
2.28109
2.40646
2.53861
2.67812
2.82539
2.98067
3.14463
3.31738
3.49986
3.69221
-0.774359
3.89533
0.226618
0.239127
0.252366
0.26632
0.281049
0.296598
0.313006
0.330337
0.3486
0.367881
0.388235
0.409738
0.432388
0.456283
0.481516
0.508162
0.536228
0.565848
0.597125
0.630095
0.664889
0.70159
0.740312
0.781147
0.824246
0.869687
0.917597
0.968201
1.02162
1.07792
1.13711
1.19985
1.26598
1.33553
1.40916
1.48658
1.56846
1.65469
1.74572
1.84176
1.94305
-0.804424
2.04984
)
;
    }
    procBoundary2to6
    {
        type            processor;
        value           nonuniform List<scalar> 
13
(
0.274597
0.342068
0.399922
0.46529
0.520507
0.561929
0.597006
0.630082
0.663225
0.697199
0.732715
0.76975
0.808668
)
;
    }
}


// ************************************************************************* //
