/*--------------------------------*- C++ -*----------------------------------*\
| =========                 |                                                 |
| \\      /  F ield         | OpenFOAM: The Open Source CFD Toolbox           |
|  \\    /   O peration     | Version:  2506                                  |
|   \\  /    A nd           | Website:  www.openfoam.com                      |
|    \\/     M anipulation  |                                                 |
\*---------------------------------------------------------------------------*/
FoamFile
{
    version     2.0;
    format      ascii;
    arch        "LSB;label=32;scalar=64";
    class       volSymmTensorField;
    location    "100";
    object      turbulenceProperties:devReff;
}
// * * * * * * * * * * * * * * * * * * * * * * * * * * * * * * * * * * * * * //

dimensions      [0 2 -2 0 0 0 0];

internalField   nonuniform List<symmTensor> 
1340
(
(-3.94002 15.5645 1.19276e-15 3.90234 3.33518e-17 0.0376725)
(-4.23513 14.851 1.66846e-15 4.20049 1.67953e-16 0.0346364)
(-4.47346 14.1417 -3.22192e-16 4.4436 -7.61317e-17 0.0298606)
(-4.06201 11.1784 -5.0945e-15 4.05986 -9.05137e-16 0.00214573)
(-0.119594 0.451092 -5.68139e-16 0.14654 2.25141e-17 -0.0269459)
(-0.141173 0.481801 -1.46429e-15 0.166207 4.84932e-17 -0.0250338)
(-0.157382 0.561464 -2.72614e-15 0.186206 -3.76417e-16 -0.0288234)
(-0.21259 0.714908 -1.89585e-15 0.213528 3.83665e-16 -0.000937526)
(-0.0176451 0.113994 2.31381e-16 0.0179163 1.06211e-16 -0.00027119)
(-0.028553 0.152267 -1.19588e-15 0.0292888 -4.13932e-16 -0.000735815)
(-0.0206341 0.176734 3.36447e-15 0.0226654 5.15611e-16 -0.00203125)
(-0.0562221 0.276744 5.12419e-15 0.0513506 9.60281e-16 0.0048715)
(0.00080397 0.00435611 -2.06293e-16 -0.0010065 -1.70554e-17 0.000202534)
(0.000932249 0.0132681 8.58629e-16 -0.00167313 1.13543e-16 0.00074088)
(0.00505739 0.0288002 -5.65089e-16 -0.00559757 -8.4927e-17 0.000540178)
(-0.00885092 0.109555 -5.14867e-16 0.00423536 -6.81448e-16 0.00461556)
(3.38515e-06 -3.61358e-06 -5.25136e-20 -3.91284e-06 -5.52599e-20 5.27684e-07)
(0.000301109 -0.000193221 -1.95131e-17 -0.000319261 3.34028e-18 1.81515e-05)
(0.000757013 -1.56454e-05 5.33882e-17 -0.000707734 7.25961e-18 -4.92784e-05)
(0.00286318 0.0160747 -2.91155e-16 -0.00384231 -7.96217e-18 0.000979126)
(1.31106e-06 -2.59811e-06 2.58811e-19 -1.27068e-07 4.24162e-20 -1.18399e-06)
(4.87534e-05 -4.13096e-05 -1.17121e-17 -3.09519e-05 -2.24568e-18 -1.78016e-05)
(0.000178183 -5.16107e-05 -1.55582e-17 -0.000146528 -2.57988e-18 -3.1655e-05)
(0.000596743 0.00107862 9.34426e-18 -0.000680058 1.52003e-17 8.33155e-05)
(4.10472e-06 -2.93995e-06 -2.45774e-19 -5.30295e-06 -2.16975e-20 1.19823e-06)
(3.81966e-06 -1.75178e-06 3.75112e-19 -4.72321e-06 2.99888e-20 9.03547e-07)
(5.20691e-06 -9.60843e-07 1.76067e-20 -5.62226e-06 1.06355e-20 4.15354e-07)
(0.000179264 0.000201729 1.59389e-17 -0.000226036 2.12092e-18 4.67716e-05)
(2.5141e-06 -4.0281e-06 3.48769e-19 -1.3764e-06 1.85617e-20 -1.1377e-06)
(3.24282e-06 -2.65737e-06 -1.7763e-19 -2.37223e-06 -2.64322e-21 -8.70588e-07)
(3.79139e-06 -8.33308e-07 3.1616e-20 -3.12882e-06 5.52344e-21 -6.62566e-07)
(3.50088e-06 4.70317e-06 -9.67847e-21 -3.89641e-06 -5.55306e-20 3.95532e-07)
(4.37154e-06 -3.8581e-06 -1.70024e-20 -4.96534e-06 1.69156e-20 5.93796e-07)
(5.00763e-06 -2.44449e-06 1.06e-19 -5.643e-06 -8.18964e-21 6.35367e-07)
(7.61092e-06 -9.8226e-07 6.89342e-20 -7.80235e-06 -5.39866e-21 1.91428e-07)
(3.62257e-06 4.5055e-06 -3.23124e-20 -4.39001e-06 1.28429e-20 7.6744e-07)
(3.27667e-06 -3.93637e-06 1.15786e-19 -2.91053e-06 1.2823e-20 -3.66141e-07)
(3.96642e-06 -2.48969e-06 6.01743e-19 -3.74325e-06 9.79665e-20 -2.23165e-07)
(6.56427e-06 -1.01441e-06 -5.3752e-19 -6.07549e-06 -5.44857e-20 -4.88779e-07)
(3.78391e-06 4.8891e-06 1.88873e-19 -4.35792e-06 5.17868e-20 5.74008e-07)
(3.5851e-06 -3.68761e-06 2.44449e-21 -3.69288e-06 1.61675e-20 1.0777e-07)
(4.26803e-06 -2.28647e-06 -7.10928e-19 -4.45899e-06 -8.52707e-20 1.90964e-07)
(5.8185e-06 -6.97195e-07 7.82419e-19 -5.71332e-06 1.10248e-19 -1.05183e-07)
(4.72466e-06 5.89033e-06 3.04608e-19 -5.50209e-06 -2.67565e-20 7.77431e-07)
(3.22429e-06 -3.61649e-06 -2.54024e-19 -3.11799e-06 -3.98581e-20 -1.06299e-07)
(3.93503e-06 -2.23104e-06 4.50874e-19 -3.93314e-06 5.08728e-20 -1.89331e-09)
(5.188e-06 -5.98121e-07 -4.24738e-19 -4.98283e-06 -7.95479e-20 -2.05167e-07)
(4.38498e-06 5.41627e-06 -5.28918e-19 -5.02676e-06 -1.65145e-19 6.41783e-07)
(3.17289e-06 -3.4686e-06 2.94311e-19 -3.17076e-06 3.05435e-20 -2.13629e-09)
(3.84443e-06 -2.0976e-06 -6.32123e-19 -3.92626e-06 -7.7424e-20 8.18292e-08)
(4.87662e-06 -4.86299e-07 -3.39816e-20 -4.75351e-06 8.69165e-21 -1.23115e-07)
(3.98088e-06 4.79891e-06 -7.81471e-19 -4.54306e-06 -3.05677e-20 5.62177e-07)
(2.97604e-06 -3.359e-06 -2.22872e-19 -2.93458e-06 -1.71389e-20 -4.14604e-08)
(3.62524e-06 -2.00618e-06 4.25032e-19 -3.66648e-06 4.52514e-20 4.12344e-08)
(4.49786e-06 -4.12883e-07 7.0929e-20 -4.37425e-06 1.93959e-20 -1.23619e-07)
(3.60517e-06 4.25476e-06 4.81301e-19 -4.07261e-06 1.08301e-19 4.67442e-07)
(2.83476e-06 -3.23114e-06 5.19914e-20 -2.81639e-06 -1.15654e-21 -1.83755e-08)
(3.45275e-06 -1.90691e-06 1.71687e-19 -3.50659e-06 2.65998e-20 5.38414e-08)
(4.16128e-06 -3.47956e-07 3.25345e-19 -4.06879e-06 2.92852e-20 -9.24922e-08)
(3.27796e-06 3.7634e-06 -2.47697e-19 -3.67343e-06 -8.20651e-20 3.95468e-07)
(2.66297e-06 -3.10997e-06 2.71488e-20 -2.64129e-06 4.52587e-21 -2.16832e-08)
(3.25281e-06 -1.82045e-06 -2.6596e-19 -3.29648e-06 -3.23989e-20 4.3666e-08)
(3.82496e-06 -3.01904e-07 -4.51944e-19 -3.74675e-06 -7.22891e-20 -7.82087e-08)
(2.96973e-06 3.30942e-06 -2.44775e-19 -3.29717e-06 2.06083e-20 3.27435e-07)
(2.49763e-06 -2.98527e-06 -8.50896e-21 -2.48308e-06 -1.55153e-21 -1.45457e-08)
(3.05735e-06 -1.73749e-06 1.36668e-19 -3.09974e-06 1.47386e-20 4.23844e-08)
(3.5102e-06 -2.69175e-07 -1.67293e-19 -3.44992e-06 -3.14266e-21 -6.02819e-08)
(2.68529e-06 2.89022e-06 6.29758e-19 -2.95528e-06 7.1812e-20 2.6999e-07)
(2.32423e-06 -2.86168e-06 1.09912e-19 -2.31188e-06 1.45335e-20 -1.23538e-08)
(2.85475e-06 -1.66081e-06 -4.0737e-19 -2.89199e-06 -4.95832e-20 3.72429e-08)
(3.20887e-06 -2.49078e-07 2.75961e-19 -3.1622e-06 4.53917e-20 -4.66616e-08)
(2.42084e-06 2.5059e-06 -4.85298e-19 -2.63991e-06 -5.91994e-20 2.19063e-07)
(2.15015e-06 -2.73743e-06 -3.17467e-19 -2.14141e-06 -3.53727e-20 -8.73982e-09)
(2.65162e-06 -1.58855e-06 1.12251e-19 -2.68522e-06 1.66111e-20 3.35991e-08)
(2.92358e-06 -2.40479e-07 2.03039e-19 -2.88914e-06 1.35949e-20 -3.44343e-08)
(2.17592e-06 2.15406e-06 7.8156e-19 -2.35068e-06 1.02945e-19 1.74761e-07)
(1.97413e-06 -2.6138e-06 1.64276e-19 -1.96826e-06 1.57827e-20 -5.86939e-09)
(2.44788e-06 -1.5208e-06 3.0946e-19 -2.47802e-06 3.52265e-20 3.01319e-08)
(2.65359e-06 -2.41652e-07 -2.08081e-19 -2.62945e-06 -3.36878e-20 -2.41386e-08)
(1.95165e-06 1.83518e-06 -4.76179e-19 -2.08979e-06 -9.33782e-20 1.38142e-07)
(1.79812e-06 -2.49093e-06 -4.51172e-20 -1.79497e-06 -3.94529e-21 -3.14309e-09)
(2.24533e-06 -1.45744e-06 -2.45161e-19 -2.2725e-06 -3.04695e-20 2.71624e-08)
(2.39847e-06 -2.51383e-07 -1.07582e-19 -2.38289e-06 -4.97343e-21 -1.55768e-08)
(1.74536e-06 1.54608e-06 9.59408e-20 -1.85264e-06 3.32369e-20 1.07279e-07)
(1.62219e-06 -2.36865e-06 1.35383e-20 -1.62091e-06 1.84515e-21 -1.27994e-09)
(2.04412e-06 -1.39751e-06 4.08307e-20 -2.06782e-06 6.66339e-21 2.36982e-08)
(2.158e-06 -2.67642e-07 1.38684e-19 -2.14937e-06 2.37213e-20 -8.62418e-09)
(1.55635e-06 1.28562e-06 1.31559e-21 -1.63791e-06 -8.94278e-21 8.15625e-08)
(1.44819e-06 -2.24732e-06 9.09697e-20 -1.44835e-06 9.66854e-21 1.56042e-10)
(1.84605e-06 -1.34009e-06 8.75321e-21 -1.8664e-06 -9.20078e-23 2.03497e-08)
(1.93151e-06 -2.88087e-07 1.7809e-19 -1.92855e-06 1.02004e-20 -2.96054e-09)
(1.38313e-06 1.05247e-06 -1.32773e-19 -1.44391e-06 -1.32683e-20 6.0781e-08)
(1.27712e-06 -2.12684e-06 -7.35195e-20 -1.27836e-06 -7.87588e-21 1.23875e-09)
(1.65278e-06 -1.28453e-06 -6.73021e-20 -1.6703e-06 -5.75865e-21 1.75243e-08)
(1.71835e-06 -3.11856e-07 -3.61048e-19 -1.71921e-06 -4.41731e-20 8.51866e-10)
(1.22474e-06 8.44498e-07 7.96311e-20 -1.26865e-06 1.66952e-20 4.39102e-08)
(1.11033e-06 -2.00747e-06 5.36254e-20 -1.11231e-06 4.80941e-21 1.97731e-09)
(1.46522e-06 -1.23061e-06 1.45945e-19 -1.48018e-06 1.76464e-20 1.49567e-08)
(1.51835e-06 -3.37139e-07 1.39753e-19 -1.5219e-06 2.99652e-20 3.5498e-09)
(1.07994e-06 6.60321e-07 7.6215e-20 -1.11092e-06 9.91656e-21 3.09806e-08)
(9.48748e-07 -1.88919e-06 -1.34502e-19 -9.51129e-07 -1.36397e-20 2.38129e-09)
(1.28419e-06 -1.17776e-06 -2.86499e-21 -1.29648e-06 -7.70678e-22 1.22944e-08)
(1.33121e-06 -3.62388e-07 2.41434e-19 -1.33639e-06 2.13909e-20 5.18116e-09)
(9.47343e-07 4.97756e-07 1.19194e-19 -9.6798e-07 3.5529e-21 2.06363e-08)
(7.93758e-07 -1.77264e-06 1.18144e-19 -7.96266e-07 1.3915e-20 2.50792e-09)
(1.11094e-06 -1.12561e-06 8.9442e-20 -1.12076e-06 9.70671e-21 9.81914e-09)
(1.15641e-06 -3.86483e-07 -1.88371e-19 -1.16239e-06 -2.41695e-20 5.98772e-09)
(8.25717e-07 3.55279e-07 -2.92262e-19 -8.38513e-07 -3.2786e-20 1.27964e-08)
(6.46219e-07 -1.65748e-06 3.51102e-21 -6.48748e-07 -8.27866e-22 2.52929e-09)
(9.46372e-07 -1.0735e-06 -2.97576e-20 -9.54021e-07 -6.15383e-21 7.64953e-09)
(9.93678e-07 -4.08067e-07 1.36887e-19 -9.99721e-07 1.55219e-20 6.04288e-09)
(7.14325e-07 2.31405e-07 1.9146e-19 -7.21209e-07 2.44499e-20 6.88396e-09)
(5.07183e-07 -1.54409e-06 -7.66814e-21 -5.09594e-07 -1.32187e-21 2.41001e-09)
(7.9128e-07 -1.02113e-06 -9.09761e-20 -7.97043e-07 -1.08579e-20 5.76227e-09)
(8.42599e-07 -4.26242e-07 -1.99654e-19 -8.48236e-07 -2.37944e-20 5.63694e-09)
(6.11746e-07 1.24734e-07 -2.36887e-19 -6.14299e-07 -3.29134e-20 2.55364e-09)
(3.77537e-07 -1.43234e-06 -2.83075e-20 -3.79943e-07 -3.41387e-21 2.40581e-09)
(6.4641e-07 -9.68152e-07 -6.02217e-20 -6.50781e-07 -5.71086e-21 4.37118e-09)
(7.03197e-07 -4.40207e-07 9.78985e-20 -7.08217e-07 1.53647e-20 5.01994e-09)
(5.17649e-07 3.39644e-08 -2.00478e-20 -5.1714e-07 8.69383e-21 -5.09186e-10)
(2.57977e-07 -1.32308e-06 -2.5751e-20 -2.60232e-07 -2.93671e-21 2.25478e-09)
(5.12082e-07 -9.14976e-07 -1.49555e-20 -5.15158e-07 7.0827e-22 3.07647e-09)
(5.75027e-07 -4.49844e-07 1.04154e-20 -5.79327e-07 -8.97601e-23 4.29963e-09)
(4.30933e-07 -4.2527e-08 2.30071e-19 -4.28291e-07 3.17798e-20 -2.64149e-09)
(1.49005e-07 -1.21628e-06 -3.31638e-20 -1.51152e-07 -3.42421e-21 2.14724e-09)
(3.8885e-07 -8.61181e-07 8.46278e-20 -3.90993e-07 9.1944e-21 2.14358e-09)
(4.57963e-07 -4.54621e-07 3.4173e-20 -4.61567e-07 1.98677e-21 3.60355e-09)
(3.5145e-07 -1.05825e-07 2.25387e-19 -3.47449e-07 1.67855e-20 -4.00071e-09)
(5.09754e-08 -1.11243e-06 -1.0147e-20 -5.29034e-08 3.5669e-22 1.92804e-09)
(2.7673e-07 -8.06883e-07 -2.80199e-20 -2.78075e-07 -3.78619e-21 1.34536e-09)
(3.51432e-07 -4.54461e-07 -8.20315e-20 -3.54338e-07 -9.92199e-21 2.90547e-09)
(2.78236e-07 -1.56984e-07 -2.0037e-19 -2.73443e-07 -3.03555e-20 -4.79347e-09)
(-3.59431e-08 -1.01149e-06 6.32936e-20 3.409e-08 6.76047e-21 1.85309e-09)
(1.75929e-07 -7.51865e-07 3.64246e-20 -1.76863e-07 2.35002e-21 9.33486e-10)
(2.55476e-07 -4.49178e-07 -7.57615e-23 -2.57941e-07 3.35494e-21 2.46531e-09)
(2.11409e-07 -1.96968e-07 -1.41888e-19 -2.06333e-07 -1.10427e-20 -5.0755e-09)
(-1.11684e-07 -9.14123e-07 -1.38719e-20 1.10035e-07 -2.0928e-21 1.6486e-09)
(8.62353e-08 -6.96709e-07 -1.26561e-19 -8.67555e-08 -1.33442e-20 5.20181e-10)
(1.69382e-07 -4.39322e-07 9.88301e-20 -1.71409e-07 8.94233e-21 2.027e-09)
(1.50157e-07 -2.27054e-07 6.78726e-20 -1.45018e-07 8.13449e-21 -5.13881e-09)
(-1.76415e-07 -8.20359e-07 2.19596e-20 1.74814e-07 2.22844e-21 1.60105e-09)
(7.55407e-09 -6.41289e-07 8.05602e-20 -7.90679e-09 1.0339e-20 3.52721e-10)
(9.30563e-08 -4.24907e-07 -1.22005e-19 -9.48423e-08 -1.43838e-20 1.78602e-09)
(9.46656e-08 -2.48021e-07 -1.27515e-19 -8.96955e-08 -1.51139e-20 -4.97013e-09)
(-2.30655e-07 -7.30888e-07 -2.10783e-20 2.29384e-07 -2.06667e-21 1.27103e-09)
(-6.04661e-08 -5.86197e-07 -3.82492e-20 6.02735e-08 -5.4124e-21 1.92626e-10)
(2.59771e-08 -4.06548e-07 6.0906e-20 -2.7626e-08 7.67505e-21 1.64889e-09)
(4.44849e-08 -2.60901e-07 3.93051e-20 -3.99033e-08 9.61388e-21 -4.58165e-09)
(-2.74837e-07 -6.45608e-07 3.5778e-20 2.74016e-07 4.40266e-21 8.21608e-10)
(-1.18447e-07 -5.31406e-07 8.71233e-21 1.18408e-07 8.69698e-22 3.96392e-11)
(-3.23208e-08 -3.8464e-07 -7.46769e-20 3.07993e-08 -7.33679e-21 1.52148e-09)
(-3.49595e-10 -2.66656e-07 1.77868e-19 4.50823e-09 1.92082e-20 -4.15864e-09)
(-4.84473e-07 -6.08241e-07 -2.34571e-20 4.84456e-07 -1.49204e-21 1.69099e-11)
(-3.09345e-07 -5.65012e-07 9.99407e-21 3.08673e-07 -1.07018e-21 6.72476e-10)
(-1.66531e-07 -4.7759e-07 -4.35747e-20 1.66605e-07 -2.48935e-21 -7.43842e-11)
(-8.21774e-08 -3.59947e-07 1.30405e-19 8.07516e-08 1.6067e-20 1.42579e-09)
(-4.01685e-08 -2.66342e-07 -2.68295e-20 4.38714e-08 -5.67889e-21 -3.70287e-09)
(-4.8902e-07 -5.15042e-07 6.41667e-20 4.88949e-07 7.10873e-21 7.09254e-11)
(-3.34952e-07 -4.89585e-07 -1.05057e-19 3.34364e-07 -1.15664e-20 5.87317e-10)
(-2.05564e-07 -4.25168e-07 1.62825e-19 2.05765e-07 1.75328e-20 -2.01135e-10)
(-1.24003e-07 -3.32897e-07 8.24279e-21 1.22683e-07 -3.33328e-21 1.32023e-09)
(-7.48182e-08 -2.60757e-07 8.14555e-21 7.80697e-08 1.31716e-21 -3.25154e-09)
(-4.8698e-07 -4.30526e-07 -1.83354e-20 4.87062e-07 -3.33249e-21 -8.12877e-11)
(-3.52451e-07 -4.19667e-07 2.05348e-20 3.52136e-07 4.75184e-21 3.14794e-10)
(-2.36179e-07 -3.74787e-07 -9.18108e-20 2.36641e-07 -1.29907e-20 -4.61953e-10)
(-1.58571e-07 -3.04289e-07 -1.47725e-19 1.57502e-07 -1.61801e-20 1.06875e-09)
(-1.04852e-07 -2.50744e-07 -4.14054e-21 1.07752e-07 -1.95982e-21 -2.90026e-09)
(-4.79286e-07 -3.54275e-07 -2.53404e-20 4.795e-07 -1.9669e-21 -2.14094e-10)
(-3.62712e-07 -3.55086e-07 6.26671e-20 3.62546e-07 7.50838e-21 1.65618e-10)
(-2.58983e-07 -3.26497e-07 -1.70829e-20 2.59518e-07 9.26435e-23 -5.34816e-10)
(-1.86082e-07 -2.74585e-07 5.46495e-20 1.85108e-07 8.64115e-21 9.73537e-10)
(-1.3002e-07 -2.37113e-07 -9.40485e-20 1.32545e-07 -9.53849e-21 -2.52463e-09)
(-4.6679e-07 -2.86126e-07 4.2069e-20 4.67186e-07 5.16685e-21 -3.95353e-10)
(-3.66539e-07 -2.96002e-07 5.13329e-20 3.66609e-07 4.75911e-21 -6.98161e-11)
(-2.74824e-07 -2.80759e-07 4.90498e-20 2.75519e-07 5.07306e-21 -6.94885e-10)
(-2.07319e-07 -2.44496e-07 1.5727e-20 2.06511e-07 1.96453e-21 8.08156e-10)
(-1.50859e-07 -2.20736e-07 9.14431e-20 1.53067e-07 1.23903e-20 -2.20887e-09)
(-4.50309e-07 -2.25726e-07 6.22853e-21 4.5075e-07 7.62213e-23 -4.40344e-10)
(-3.64863e-07 -2.42335e-07 -1.51336e-20 3.65034e-07 -3.18225e-21 -1.70232e-10)
(-2.84474e-07 -2.37778e-07 -5.70114e-20 2.85208e-07 -6.67708e-21 -7.33855e-10)
(-2.2276e-07 -2.14472e-07 6.71957e-20 2.22053e-07 6.85826e-21 7.06822e-10)
(-1.67359e-07 -2.02237e-07 4.4705e-20 1.69275e-07 3.85462e-21 -1.91633e-09)
(-4.30619e-07 -1.72799e-07 -3.74349e-21 4.31064e-07 -3.25711e-22 -4.4489e-10)
(-3.58426e-07 -1.94254e-07 -6.24953e-20 3.58686e-07 -6.8258e-21 -2.6018e-10)
(-2.88614e-07 -1.98053e-07 4.01518e-20 2.89392e-07 5.09268e-21 -7.77225e-10)
(-2.32979e-07 -1.85317e-07 -4.94124e-20 2.32361e-07 -7.29847e-21 6.17609e-10)
(-1.79894e-07 -1.82604e-07 -1.72705e-20 1.81528e-07 -3.72496e-21 -1.63428e-09)
(-4.08617e-07 -1.26698e-07 1.36267e-20 4.09028e-07 1.50084e-21 -4.10986e-10)
(-3.48219e-07 -1.51319e-07 1.26309e-20 3.48495e-07 2.95999e-21 -2.75919e-10)
(-2.88179e-07 -1.61418e-07 -2.45371e-20 2.88919e-07 -3.39405e-21 -7.39748e-10)
(-2.38644e-07 -1.57112e-07 -5.4857e-20 2.3806e-07 -4.99875e-21 5.84117e-10)
(-1.8869e-07 -1.62179e-07 -9.9901e-20 1.90062e-07 -1.07796e-20 -1.37151e-09)
(-3.85086e-07 -8.67633e-08 -1.22121e-20 3.85453e-07 -1.39477e-21 -3.66939e-10)
(-3.35025e-07 -1.13215e-07 6.04883e-20 3.35305e-07 6.37257e-21 -2.80271e-10)
(-2.8389e-07 -1.27877e-07 -3.88433e-21 2.84587e-07 -2.2016e-22 -6.97048e-10)
(-2.40374e-07 -1.30151e-07 6.23732e-20 2.39817e-07 8.19292e-21 5.56797e-10)
(-1.94279e-07 -1.41376e-07 6.27428e-20 1.95378e-07 7.44511e-21 -1.09893e-09)
(-3.60621e-07 -5.25797e-08 1.96042e-20 3.60914e-07 2.83741e-21 -2.92106e-10)
(-3.19601e-07 -7.97771e-08 -4.75788e-20 3.19823e-07 -6.94872e-21 -2.21853e-10)
(-2.76502e-07 -9.75625e-08 -6.73705e-21 2.77087e-07 -5.27569e-22 -5.85075e-10)
(-2.38735e-07 -1.0483e-07 2.23811e-20 2.38147e-07 2.66872e-21 5.87397e-10)
(-1.96799e-07 -1.20764e-07 -9.76618e-20 1.97619e-07 -1.20805e-20 -8.19312e-10)
(-3.35712e-07 -2.38182e-08 3.77266e-20 3.35928e-07 4.06929e-21 -2.16076e-10)
(-3.02472e-07 -5.09863e-08 -6.18703e-20 3.02654e-07 -6.78701e-21 -1.8148e-10)
(-2.66524e-07 -7.07354e-08 1.78696e-20 2.67049e-07 1.78742e-21 -5.24619e-10)
(-2.34204e-07 -8.16742e-08 6.54088e-20 2.33627e-07 7.77355e-21 5.7653e-10)
(-1.9664e-07 -1.0105e-07 1.03308e-20 1.97211e-07 1.99691e-21 -5.70542e-10)
(-3.10829e-07 9.53117e-11 -2.16396e-20 3.11008e-07 -2.75919e-21 -1.78324e-10)
(-2.84256e-07 -2.63905e-08 2.81875e-21 2.84411e-07 1.27387e-21 -1.54384e-10)
(-2.54654e-07 -4.71202e-08 -3.62174e-20 2.55101e-07 -4.55046e-21 -4.47153e-10)
(-2.27378e-07 -6.05539e-08 2.37906e-20 2.26789e-07 1.44258e-21 5.89734e-10)
(-1.94125e-07 -8.2295e-08 -2.45e-20 1.94461e-07 -3.3583e-21 -3.35739e-10)
(-2.86472e-07 1.98471e-08 2.22026e-20 2.86663e-07 2.80235e-21 -1.90218e-10)
(-2.65547e-07 -5.47546e-09 3.2947e-20 2.65714e-07 3.39341e-21 -1.67154e-10)
(-2.41455e-07 -2.64297e-08 -2.70914e-21 2.41869e-07 7.79486e-22 -4.13608e-10)
(-2.18761e-07 -4.14316e-08 -7.1462e-20 2.18192e-07 -9.37944e-21 5.68337e-10)
(-1.89775e-07 -6.46126e-08 -3.85048e-20 1.89896e-07 -4.28702e-21 -1.21226e-10)
(-2.62875e-07 3.58157e-08 -8.98707e-21 2.63102e-07 -1.39244e-21 -2.26996e-10)
(-2.46687e-07 1.19649e-08 -5.8845e-20 2.46877e-07 -7.52003e-21 -1.90458e-10)
(-2.27399e-07 -8.64286e-09 8.01135e-20 2.27788e-07 1.0008e-20 -3.88948e-10)
(-2.08806e-07 -2.44601e-08 -6.00188e-20 2.08243e-07 -5.85154e-21 5.63451e-10)
(-1.83808e-07 -4.8314e-08 1.52812e-20 1.83739e-07 2.03285e-21 6.97588e-11)
(-2.49529e-07 7.22411e-08 4.85486e-21 2.49787e-07 3.39567e-22 -2.58331e-10)
(-2.40303e-07 4.81613e-08 -1.21587e-20 2.40513e-07 -1.90958e-21 -2.09475e-10)
(-2.27924e-07 2.59603e-08 -1.21845e-20 2.28161e-07 -2.17444e-22 -2.36583e-10)
(-2.12688e-07 6.10783e-09 3.46302e-20 2.13074e-07 3.10392e-21 -3.85911e-10)
(-1.97703e-07 -9.92844e-09 7.92948e-20 1.97174e-07 1.06682e-20 5.29573e-10)
(-1.76431e-07 -3.3809e-08 -1.15011e-20 1.76216e-07 -1.71889e-21 2.15034e-10)
(-2.24984e-07 7.89058e-08 -1.35171e-20 2.25271e-07 -1.46249e-21 -2.87149e-10)
(-2.18611e-07 5.71743e-08 -6.50141e-20 2.18906e-07 -7.77967e-21 -2.9413e-10)
(-2.09488e-07 3.6789e-08 9.32236e-20 2.0983e-07 1.11735e-20 -3.42323e-10)
(-1.97736e-07 1.80688e-08 -4.68613e-20 1.98159e-07 -5.77012e-21 -4.22802e-10)
(-1.85985e-07 2.25014e-09 6.0825e-20 1.85518e-07 6.67179e-21 4.6717e-10)
(-1.68051e-07 -2.11929e-08 -2.35232e-20 1.6778e-07 -2.63301e-21 2.708e-10)
(-2.02137e-07 8.29437e-08 3.52428e-20 2.02406e-07 4.53343e-21 -2.68482e-10)
(-1.98158e-07 6.34893e-08 1.5236e-20 1.98417e-07 2.26433e-21 -2.59063e-10)
(-1.91679e-07 4.49722e-08 -4.69041e-20 1.92006e-07 -6.40019e-21 -3.2678e-10)
(-1.8285e-07 2.75763e-08 3.11733e-20 1.83256e-07 4.00097e-21 -4.05419e-10)
(-1.73841e-07 1.23132e-08 -7.42737e-21 1.73469e-07 -1.53398e-21 3.71753e-10)
(-1.5895e-07 -1.03309e-08 1.79254e-20 1.58709e-07 2.36277e-21 2.40951e-10)
(-1.81087e-07 8.48466e-08 1.00212e-20 1.813e-07 7.83913e-22 -2.12654e-10)
(-1.78886e-07 6.75416e-08 -1.07546e-20 1.79123e-07 -1.16217e-21 -2.37031e-10)
(-1.74599e-07 5.08489e-08 1.15559e-20 1.74888e-07 1.88949e-21 -2.88582e-10)
(-1.68223e-07 3.48352e-08 -2.85559e-20 1.68593e-07 -3.44413e-21 -3.70308e-10)
(-1.61605e-07 2.03379e-08 -1.93327e-20 1.6129e-07 -2.39099e-21 3.1486e-10)
(-1.49397e-07 -1.18575e-09 -1.13872e-21 1.49206e-07 -1.13009e-22 1.9159e-10)
(-1.61735e-07 8.50257e-08 -3.81695e-20 1.61899e-07 -4.73391e-21 -1.63616e-10)
(-1.61039e-07 6.97362e-08 4.39356e-20 1.61174e-07 5.84862e-21 -1.34628e-10)
(-1.58469e-07 5.47609e-08 1.86414e-20 1.58657e-07 1.98681e-21 -1.88687e-10)
(-1.54053e-07 4.01333e-08 4.43267e-20 1.5434e-07 5.47499e-21 -2.87019e-10)
(-1.49401e-07 2.65614e-08 -1.09737e-20 1.49111e-07 -1.09832e-21 2.8906e-10)
(-1.39576e-07 6.31957e-09 2.41899e-20 1.39405e-07 2.69044e-21 1.7007e-10)
(-1.44178e-07 8.39973e-08 1.81457e-20 1.44268e-07 2.46673e-21 -8.99877e-11)
(-1.44494e-07 7.04846e-08 4.77165e-20 1.44578e-07 5.60817e-21 -8.35015e-11)
(-1.43258e-07 5.70898e-08 -4.14612e-20 1.43395e-07 -5.03518e-21 -1.36526e-10)
(-1.40456e-07 4.37954e-08 -3.65315e-20 1.40679e-07 -5.21375e-21 -2.23006e-10)
(-1.3749e-07 3.11766e-08 1.54632e-20 1.37184e-07 1.92914e-21 3.05588e-10)
(-1.29696e-07 1.23545e-08 -5.06474e-20 1.29516e-07 -6.0675e-21 1.79719e-10)
(-1.28177e-07 8.19788e-08 -7.14053e-21 1.28269e-07 -1.35869e-21 -9.13065e-11)
(-1.2932e-07 7.00831e-08 -2.13096e-20 1.29374e-07 -2.61058e-21 -5.39755e-11)
(-1.29122e-07 5.81459e-08 4.52448e-20 1.29223e-07 5.85859e-21 -1.01071e-10)
(-1.2758e-07 4.61306e-08 -6.53018e-20 1.27766e-07 -7.8786e-21 -1.85817e-10)
(-1.25977e-07 3.45271e-08 -1.38304e-20 1.2567e-07 -1.83752e-21 3.07265e-10)
(-1.19942e-07 1.71296e-08 6.63112e-20 1.19722e-07 8.26034e-21 2.19326e-10)
(-1.13758e-07 7.93398e-08 -7.30192e-20 1.13858e-07 -9.10936e-21 -9.99826e-11)
(-1.15414e-07 6.88575e-08 6.09229e-20 1.15492e-07 7.52488e-21 -7.75713e-11)
(-1.15961e-07 5.82227e-08 -1.24043e-20 1.1609e-07 -1.6144e-21 -1.28514e-10)
(-1.15471e-07 4.74319e-08 1.31038e-20 1.15632e-07 2.0698e-21 -1.60848e-10)
(-1.15015e-07 3.6856e-08 5.67722e-21 1.14659e-07 3.75219e-22 3.55788e-10)
(-1.1047e-07 2.09404e-08 -5.02321e-20 1.1018e-07 -6.44409e-21 2.90062e-10)
(-1.00719e-07 7.59868e-08 2.27412e-20 1.00898e-07 3.14819e-21 -1.78709e-10)
(-1.02721e-07 6.68062e-08 -6.37699e-20 1.02886e-07 -8.33196e-21 -1.65203e-10)
(-1.03855e-07 5.7403e-08 4.16033e-20 1.04018e-07 5.39409e-21 -1.62812e-10)
(-1.04185e-07 4.77964e-08 1.47199e-20 1.04297e-07 1.64903e-21 -1.11673e-10)
(-1.04614e-07 3.81815e-08 -7.37972e-20 1.04179e-07 -9.38114e-21 4.34346e-10)
(-1.01288e-07 2.372e-08 3.38771e-20 1.00891e-07 4.56827e-21 3.96949e-10)
(-8.60706e-08 7.96992e-08 6.90796e-22 8.62913e-08 -2.0611e-22 -2.20712e-10)
(-8.89991e-08 7.19176e-08 -1.50532e-20 8.92346e-08 -1.8991e-21 -2.35455e-10)
(-9.11556e-08 6.39427e-08 1.13069e-20 9.14073e-08 1.82334e-21 -2.51717e-10)
(-9.26751e-08 5.56809e-08 1.32162e-20 9.28959e-08 1.45654e-21 -2.20759e-10)
(-9.36095e-08 4.71302e-08 -3.18248e-20 9.36889e-08 -3.8831e-21 -7.93762e-11)
(-9.47466e-08 3.84003e-08 -1.44505e-20 9.42474e-08 -1.68215e-21 4.99141e-10)
(-9.23415e-08 2.53038e-08 1.84228e-20 9.18728e-08 2.06331e-21 4.6869e-10)
(-7.54501e-08 7.38334e-08 -7.1295e-20 7.56888e-08 -9.15522e-21 -2.38649e-10)
(-7.8288e-08 6.7111e-08 2.63805e-20 7.8603e-08 3.65456e-21 -3.15006e-10)
(-8.05789e-08 6.02196e-08 2.23418e-20 8.09326e-08 2.64695e-21 -3.53738e-10)
(-8.24103e-08 5.30164e-08 -7.55996e-21 8.2705e-08 -1.19075e-21 -2.9464e-10)
(-8.37983e-08 4.54333e-08 4.47714e-20 8.39143e-08 5.99271e-21 -1.16091e-10)
(-8.54027e-08 3.7476e-08 -4.62701e-20 8.49354e-08 -5.36018e-21 4.67327e-10)
(-8.37146e-08 2.56799e-08 -2.38815e-20 8.3292e-08 -3.23234e-21 4.22561e-10)
(-6.58504e-08 6.7443e-08 -1.77163e-21 6.60745e-08 1.03446e-22 -2.24155e-10)
(-6.86573e-08 6.16943e-08 5.00714e-20 6.89815e-08 6.31449e-21 -3.24191e-10)
(-7.09883e-08 5.57854e-08 -3.96038e-20 7.13914e-08 -5.18693e-21 -4.0308e-10)
(-7.29644e-08 4.95153e-08 -4.52743e-20 7.33446e-08 -5.75456e-21 -3.8025e-10)
(-7.46128e-08 4.27862e-08 3.70933e-20 7.48544e-08 4.77103e-21 -2.41589e-10)
(-7.65758e-08 3.55585e-08 9.59255e-20 7.62403e-08 1.23359e-20 3.35543e-10)
(-7.54187e-08 2.50046e-08 -3.34747e-20 7.51409e-08 -4.45926e-21 2.77753e-10)
(-5.72603e-08 6.08097e-08 1.77253e-20 5.73764e-08 2.18824e-21 -1.16058e-10)
(-5.99204e-08 5.59036e-08 -2.32119e-21 6.02114e-08 -3.36451e-22 -2.90973e-10)
(-6.22146e-08 5.08319e-08 -4.12696e-21 6.26506e-08 -3.49966e-22 -4.36003e-10)
(-6.42581e-08 4.53764e-08 -2.06498e-21 6.47434e-08 -1.69705e-22 -4.85261e-10)
(-6.60631e-08 3.94572e-08 6.4114e-20 6.64682e-08 7.92573e-21 -4.05125e-10)
(-6.82938e-08 3.29651e-08 -1.09867e-20 6.81485e-08 -1.74904e-21 1.4522e-10)
(-6.75155e-08 2.35493e-08 -8.92207e-20 6.74683e-08 -1.11852e-20 4.72721e-11)
(-4.94266e-08 5.43289e-08 -3.62196e-20 4.93408e-08 -4.68113e-21 8.58243e-11)
(-5.19991e-08 5.01157e-08 4.40007e-20 5.21158e-08 5.6142e-21 -1.16661e-10)
(-5.42156e-08 4.57712e-08 1.09971e-20 5.45579e-08 1.60821e-21 -3.42309e-10)
(-5.62593e-08 4.10653e-08 -2.40555e-20 5.67375e-08 -3.2567e-21 -4.78158e-10)
(-5.81504e-08 3.59204e-08 -3.13517e-20 5.86326e-08 -4.00932e-21 -4.82122e-10)
(-6.05639e-08 3.01518e-08 1.14588e-20 6.05509e-08 1.37128e-21 1.30415e-11)
(-6.00719e-08 2.17827e-08 8.75115e-21 6.02412e-08 1.66792e-21 -1.69293e-10)
(-4.26068e-08 4.83953e-08 1.5782e-20 4.24118e-08 2.00083e-21 1.95041e-10)
(-4.50244e-08 4.47245e-08 -2.51842e-20 4.50521e-08 -3.37685e-21 -2.77634e-11)
(-4.71457e-08 4.09821e-08 6.50496e-20 4.74351e-08 8.21953e-21 -2.89405e-10)
(-4.91509e-08 3.69502e-08 -5.1885e-20 4.96277e-08 -6.58112e-21 -4.76777e-10)
(-5.10619e-08 3.25454e-08 7.27934e-20 5.16046e-08 9.35708e-21 -5.42762e-10)
(-5.35644e-08 2.75053e-08 -3.96825e-20 5.36869e-08 -5.1831e-21 -1.22441e-10)
(-5.3282e-08 2.01142e-08 8.07708e-20 5.36874e-08 1.0337e-20 -4.05426e-10)
(-3.73056e-08 4.34632e-08 -4.12683e-20 3.70223e-08 -5.58753e-21 2.8328e-10)
(-3.96504e-08 4.01754e-08 -1.01018e-21 3.95511e-08 -6.61668e-23 9.93898e-11)
(-4.17123e-08 3.68851e-08 -2.87672e-20 4.18721e-08 -3.78806e-21 -1.59833e-10)
(-4.37017e-08 3.33704e-08 -1.63443e-21 4.4073e-08 -1.68338e-23 -3.71279e-10)
(-4.56019e-08 2.95454e-08 -1.26488e-20 4.60877e-08 -2.00143e-21 -4.85743e-10)
(-4.81033e-08 2.51057e-08 -2.06277e-20 4.8246e-08 -2.46148e-21 -1.42725e-10)
(-4.79166e-08 1.85478e-08 2.88443e-20 4.84365e-08 3.23324e-21 -5.19896e-10)
(-3.32052e-08 3.93765e-08 -5.98789e-20 3.28163e-08 -7.61338e-21 3.88877e-10)
(-3.54424e-08 3.6326e-08 -8.95007e-21 3.51887e-08 -1.04965e-21 2.53686e-10)
(-3.74404e-08 3.33061e-08 3.47394e-20 3.74098e-08 4.54189e-21 3.05257e-11)
(-3.94026e-08 3.01411e-08 -1.2549e-22 3.95759e-08 -1.04608e-22 -1.73311e-10)
(-4.13179e-08 2.67463e-08 -3.01232e-20 4.16337e-08 -4.01653e-21 -3.15787e-10)
(-4.3814e-08 2.27819e-08 2.99362e-21 4.38407e-08 9.49099e-22 -2.66986e-11)
(-4.37674e-08 1.699e-08 -4.52627e-20 4.42368e-08 -6.1621e-21 -4.69393e-10)
(-2.93017e-08 3.5816e-08 8.71219e-21 2.90224e-08 1.39951e-21 2.79304e-10)
(-3.14476e-08 3.29284e-08 2.61466e-20 3.12204e-08 3.38787e-21 2.27212e-10)
(-3.33732e-08 3.00634e-08 -2.05424e-20 3.32817e-08 -2.76705e-21 9.15531e-11)
(-3.52731e-08 2.7113e-08 -2.88641e-20 3.53219e-08 -3.86772e-21 -4.87857e-11)
(-3.71669e-08 2.40024e-08 -5.43211e-20 3.73369e-08 -6.68783e-21 -1.69995e-10)
(-3.96446e-08 2.03529e-08 1.15979e-19 3.95664e-08 1.47071e-20 7.82831e-11)
(-3.9697e-08 1.51642e-08 -7.77516e-20 4.01124e-08 -9.55021e-21 -4.15467e-10)
(-2.55394e-08 3.26497e-08 2.45152e-20 2.54176e-08 3.20652e-21 1.21768e-10)
(-2.75812e-08 2.99809e-08 -8.58054e-21 2.74892e-08 -1.23599e-21 9.20275e-11)
(-2.94701e-08 2.72645e-08 7.75788e-21 2.94424e-08 1.03129e-21 2.77096e-11)
(-3.13541e-08 2.44784e-08 -4.49161e-20 3.13882e-08 -5.81039e-21 -3.40387e-11)
(-3.32211e-08 2.15777e-08 6.82276e-20 3.33239e-08 8.91839e-21 -1.02802e-10)
(-3.56456e-08 1.81991e-08 -6.66743e-20 3.55257e-08 -8.78468e-21 1.19837e-10)
(-3.58019e-08 1.35793e-08 9.18605e-20 3.61651e-08 1.19507e-20 -3.63267e-10)
(-1.95729e-08 3.17002e-08 3.32039e-20 1.9486e-08 4.3525e-21 8.68164e-11)
(-2.17623e-08 2.93252e-08 1.69644e-20 2.16765e-08 2.20379e-21 8.57924e-11)
(-2.37079e-08 2.69211e-08 -1.47506e-20 2.36486e-08 -1.97594e-21 5.9339e-11)
(-2.55312e-08 2.43976e-08 -1.32795e-20 2.55049e-08 -1.81008e-21 2.63374e-11)
(-2.74043e-08 2.17759e-08 -2.93485e-20 2.7371e-08 -3.62462e-21 3.3284e-11)
(-2.92654e-08 1.90483e-08 -2.89274e-20 2.92567e-08 -3.81835e-21 8.66951e-12)
(-3.16483e-08 1.59133e-08 7.54119e-20 3.14401e-08 9.93875e-21 2.08258e-10)
(-3.20934e-08 1.19082e-08 -4.2542e-20 3.24466e-08 -5.66986e-21 -3.53244e-10)
(-1.61293e-08 2.7703e-08 -1.66786e-20 1.6321e-08 -2.14033e-21 -1.91695e-10)
(-1.81598e-08 2.54444e-08 2.81674e-20 1.83279e-08 3.50659e-21 -1.681e-10)
(-1.99866e-08 2.31402e-08 -2.93586e-20 2.01443e-08 -3.64327e-21 -1.57705e-10)
(-2.17055e-08 2.07142e-08 -2.58084e-20 2.18224e-08 -3.43627e-21 -1.16968e-10)
(-2.34674e-08 1.81313e-08 2.42291e-20 2.34707e-08 3.08294e-21 -3.36921e-12)
(-2.51848e-08 1.54105e-08 4.80103e-20 2.50832e-08 6.52487e-21 1.01603e-10)
(-2.74312e-08 1.21109e-08 -8.82682e-21 2.69326e-08 -1.51102e-21 4.98568e-10)
(-2.76691e-08 8.29026e-09 2.21934e-20 2.74305e-08 3.06264e-21 2.38598e-10)
(-1.17546e-08 2.18118e-08 5.39096e-20 1.17417e-08 7.08727e-21 1.28984e-11)
(-1.3689e-08 1.97561e-08 -6.34787e-20 1.38233e-08 -8.45691e-21 -1.34301e-10)
(-1.55111e-08 1.76495e-08 7.36696e-20 1.58142e-08 9.73771e-21 -3.03104e-10)
(-1.72915e-08 1.53676e-08 -5.83971e-20 1.77456e-08 -7.58155e-21 -4.54119e-10)
(-1.91612e-08 1.28728e-08 -6.64197e-20 1.9704e-08 -8.75769e-21 -5.42788e-10)
(-2.09682e-08 1.02501e-08 9.59207e-20 2.16738e-08 1.25647e-20 -7.05547e-10)
(-2.32031e-08 7.524e-09 -5.96721e-20 2.39941e-08 -7.83987e-21 -7.90961e-10)
(-2.41658e-08 4.70243e-09 4.69467e-20 2.59186e-08 6.04823e-21 -1.75279e-09)
(-6.53065e-09 1.22208e-08 7.99515e-21 5.84903e-09 8.87136e-22 6.81617e-10)
(-7.88563e-09 9.82635e-09 -5.63687e-20 6.94132e-09 -7.29298e-21 9.44319e-10)
(-9.05549e-09 7.48455e-09 3.6827e-20 7.90033e-09 4.60324e-21 1.15516e-09)
(-1.01628e-08 5.06311e-09 -1.0034e-20 8.79692e-09 -1.06315e-21 1.36584e-09)
(-1.1468e-08 2.40875e-09 -4.05999e-20 9.77065e-09 -5.12672e-21 1.69733e-09)
(-1.29474e-08 -5.82744e-10 1.08046e-19 1.07654e-08 1.37965e-20 2.18199e-09)
(-1.54842e-08 -5.20524e-09 -5.63146e-20 1.20359e-08 -7.03497e-21 3.44831e-09)
(-1.50066e-08 -9.51482e-09 1.14406e-20 1.11649e-08 1.20934e-21 3.84167e-09)
(-3.77535e-09 6.47402e-09 -2.82331e-20 7.33707e-09 -3.65935e-21 -3.56172e-09)
(-5.95115e-09 4.46465e-09 -2.86227e-20 1.00039e-08 -3.62666e-21 -4.05274e-09)
(-8.01612e-09 2.31612e-09 -4.60679e-20 1.25513e-08 -6.13334e-21 -4.53514e-09)
(-9.93862e-09 -6.41342e-11 7.96667e-20 1.495e-08 1.0353e-20 -5.01138e-09)