/*--------------------------------*- C++ -*----------------------------------*\
| =========                 |                                                 |
| \\      /  F ield         | OpenFOAM: The Open Source CFD Toolbox           |
|  \\    /   O peration     | Version:  2506                                  |
|   \\  /    A nd           | Website:  www.openfoam.com                      |
|    \\/     M anipulation  |                                                 |
\*---------------------------------------------------------------------------*/
FoamFile
{
    version     2.0;
    format      ascii;
    arch        "LSB;label=32;scalar=64";
    class       volScalarField;
    location    "100";
    object      turbulenceProperties:k;
}
// * * * * * * * * * * * * * * * * * * * * * * * * * * * * * * * * * * * * * //

dimensions      [0 2 -2 0 0 0 0];

internalField   nonuniform List<scalar> 
1340
(
53.4982
51.4567
49.4221
39.6396
1.57326
1.69015
1.96224
2.48629
0.384486
0.516541
0.593499
0.939912
0.0148461
0.0445625
0.0976229
0.36647
7.52669e-06
0.00120923
0.00243892
0.0549119
1.6547e-06
0.000205953
0.000577283
0.00417303
1.81989e-05
1.78361e-06
1.04865e-08
0.000960437
2.06548e-05
1.72352e-05
1.37527e-07
7.60357e-11
2.7235e-05
2.62964e-05
3.54472e-05
1.7658e-06
2.23734e-05
2.02765e-05
2.94643e-05
2.18152e-05
2.29877e-05
2.18471e-05
2.59063e-05
3.48647e-05
2.13316e-05
2.00549e-05
2.2713e-05
3.22744e-05
2.08313e-05
1.95828e-05
2.14581e-05
2.87449e-05
1.98293e-05
1.84465e-05
1.97658e-05
2.55981e-05
1.90211e-05
1.75885e-05
1.83156e-05
2.28602e-05
1.8111e-05
1.66053e-05
1.68405e-05
2.03179e-05
1.72248e-05
1.56662e-05
1.54736e-05
1.79876e-05
1.63157e-05
1.47066e-05
1.41623e-05
1.58492e-05
1.54082e-05
1.376e-05
1.29237e-05
1.38942e-05
1.45013e-05
1.28246e-05
1.17531e-05
1.21298e-05
1.36029e-05
1.19093e-05
1.06498e-05
1.05337e-05
1.2713e-05
1.10119e-05
9.61372e-06
9.09923e-06
1.18398e-05
1.01403e-05
8.64344e-06
7.8171e-06
1.09869e-05
9.30135e-06
7.73665e-06
6.67616e-06
1.016e-05
8.49906e-06
6.89561e-06
5.66872e-06
9.36263e-06
7.73612e-06
6.12064e-06
4.78182e-06
8.6015e-06
7.01805e-06
5.4117e-06
4.00763e-06
7.87823e-06
6.34758e-06
4.76889e-06
3.33975e-06
7.19696e-06
5.72733e-06
4.19217e-06
2.77005e-06
6.55896e-06
5.15923e-06
3.68264e-06
2.29577e-06
5.96847e-06
4.64527e-06
3.23987e-06
1.91147e-06
5.42509e-06
4.185e-06
2.86258e-06
1.61672e-06
4.92979e-06
3.77715e-06
2.54728e-06
1.40546e-06
4.4802e-06
3.4187e-06
2.29035e-06
1.27142e-06
4.07611e-06
3.10778e-06
2.08599e-06
1.19932e-06
3.71364e-06
2.83894e-06
1.92641e-06
1.17179e-06
3.39173e-06
2.60856e-06
1.80359e-06
1.17034e-06
3.10524e-06
2.40999e-06
1.7084e-06
1.18077e-06
3.442e-06
2.85061e-06
2.23894e-06
1.63365e-06
1.19382e-06
3.14361e-06
2.62503e-06
2.09061e-06
1.57149e-06
1.20303e-06
2.8773e-06
2.42538e-06
1.96144e-06
1.51777e-06
1.2057e-06
2.63853e-06
2.24652e-06
1.8454e-06
1.46705e-06
1.19982e-06
2.42418e-06
2.08552e-06
1.74011e-06
1.41778e-06
1.18631e-06
2.23047e-06
1.93907e-06
1.64236e-06
1.36762e-06
1.16472e-06
2.05467e-06
1.805e-06
1.55077e-06
1.31662e-06
1.1372e-06
1.89444e-06
1.68109e-06
1.46345e-06
1.26359e-06
1.10363e-06
1.74797e-06
1.56584e-06
1.37955e-06
1.20881e-06
1.06549e-06
1.61367e-06
1.45847e-06
1.29901e-06
1.15287e-06
1.02355e-06
1.4901e-06
1.35805e-06
1.22163e-06
1.09664e-06
9.79675e-07
1.37614e-06
1.26388e-06
1.14722e-06
1.04021e-06
9.33914e-07
1.27139e-06
1.17594e-06
1.07598e-06
9.84225e-07
8.87553e-07
1.17473e-06
1.09354e-06
1.00806e-06
9.29266e-07
8.41022e-07
1.15031e-06
1.08518e-06
1.01583e-06
9.42598e-07
8.7497e-07
7.94625e-07
1.05583e-06
1.00074e-06
9.42122e-07
8.79754e-07
8.22199e-07
7.49087e-07
9.67588e-07
9.21501e-07
8.72107e-07
8.19334e-07
7.70529e-07
7.04463e-07
8.85528e-07
8.46794e-07
8.05497e-07
7.61159e-07
7.20222e-07
6.60836e-07
8.0906e-07
7.77005e-07
7.42488e-07
7.0523e-07
6.71008e-07
6.18038e-07
7.38727e-07
7.11758e-07
6.82866e-07
6.51683e-07
6.23359e-07
5.76273e-07
6.73632e-07
6.51168e-07
6.27017e-07
6.00887e-07
5.77539e-07
5.3582e-07
6.14094e-07
5.95036e-07
5.74623e-07
5.52907e-07
5.33877e-07
4.97083e-07
5.58809e-07
5.42721e-07
5.25598e-07
5.07638e-07
4.92082e-07
4.59661e-07
5.19632e-07
5.06941e-07
4.9337e-07
4.79036e-07
4.64118e-07
4.51568e-07
4.22875e-07
4.67718e-07
4.57033e-07
4.45977e-07
4.34372e-07
4.22236e-07
4.11964e-07
3.86787e-07
4.17662e-07
4.092e-07
4.00437e-07
3.91114e-07
3.81277e-07
3.73148e-07
3.51218e-07
3.69996e-07
3.6332e-07
3.56484e-07
3.49204e-07
3.41501e-07
3.35497e-07
3.1652e-07
3.25096e-07
3.1997e-07
3.14773e-07
3.09303e-07
3.03594e-07
2.99567e-07
2.83322e-07
2.85243e-07
2.81076e-07
2.77123e-07
2.73173e-07
2.69194e-07
2.66906e-07
2.53077e-07
2.53254e-07
2.49824e-07
2.46861e-07
2.44182e-07
2.41571e-07
2.40596e-07
2.28664e-07
2.27572e-07
2.2438e-07
2.2188e-07
2.2002e-07
2.18587e-07
2.18772e-07
2.08937e-07
2.04558e-07
2.01315e-07
1.98786e-07
1.97129e-07
1.96278e-07
1.97227e-07
1.89099e-07
1.83419e-07
1.80287e-07
1.77769e-07
1.76238e-07
1.75647e-07
1.77035e-07
1.70371e-07
1.64899e-07
1.61622e-07
1.5879e-07
1.56366e-07
1.54974e-07
1.54646e-07
1.56498e-07
1.52376e-07
1.42196e-07
1.38674e-07
1.35661e-07
1.33082e-07
1.31361e-07
1.30591e-07
1.31855e-07
1.27451e-07
1.09733e-07
1.06635e-07
1.04543e-07
1.03271e-07
1.03319e-07
1.04902e-07
1.09853e-07
1.13478e-07
6.08519e-08
5.48886e-08
5.06841e-08
4.84696e-08
4.95435e-08
5.45555e-08
6.9094e-08
7.60985e-08
4.45943e-08
4.8638e-08
5.55825e-08
6.44138e-08
7.48438e-08
8.60316e-08
9.87867e-08
1.16618e-07
1.24726e-07
1.28022e-07
1.30376e-07
1.32114e-07
1.34721e-07
1.42752e-07
1.72732e-07
2.00527e-07
3.03189e-07
3.14362e-07
3.24113e-07
3.33001e-07
3.43073e-07
3.58046e-07
3.95059e-07
4.26239e-07
5.98876e-07
5.9952e-07
5.99905e-07
5.9999e-07
5.99774e-07
6.00854e-07
6.1103e-07
5.78961e-07
1.13988e-06
1.13649e-06
1.13231e-06
1.12744e-06
1.12094e-06
1.11499e-06
1.10014e-06
1.01812e-06
21.339
4.22269
0.658866
0.145026
0.0185115
0.000272227
2.31033e-05
2.57487e-07
4.02385e-06
3.05313e-05
3.26536e-05
2.92508e-05
2.57742e-05
2.28697e-05
2.02096e-05
1.77802e-05
1.55471e-05
1.35175e-05
1.16821e-05
1.00249e-05
8.53847e-06
7.2118e-06
6.03431e-06
4.99386e-06
4.079e-06
3.27804e-06
2.58203e-06
1.98129e-06
1.46917e-06
1.04095e-06
6.99488e-07
4.68673e-07
3.97473e-07
4.71171e-07
5.92879e-07
7.1201e-07
8.12894e-07
8.93215e-07
9.53676e-07
9.95896e-07
1.02184e-06
1.03346e-06
1.03343e-06
1.02316e-06
1.00539e-06
9.80763e-07
9.50891e-07
9.1694e-07
8.80736e-07
8.42425e-07
8.03284e-07
7.63531e-07
7.23895e-07
6.84861e-07
6.46699e-07
6.09147e-07
5.72249e-07
5.3593e-07
5.00514e-07
4.66206e-07
4.32806e-07
3.9983e-07
3.67389e-07
3.35367e-07
3.04052e-07
2.73835e-07
2.46214e-07
2.23321e-07
2.0495e-07
1.86494e-07
1.68875e-07
1.52473e-07
1.27753e-07
1.19663e-07
7.92684e-08
1.3215e-07
1.89221e-07
4.17086e-07
5.12304e-07
9.05543e-07
11.0664
2.41344
0.139477
0.0102605
0.00080746
0.00018049
5.08077e-08
9.33842e-07
1.07528e-05
1.52849e-05
1.43733e-05
1.32162e-05
1.21329e-05
1.11823e-05
1.02475e-05
9.35698e-06
8.48995e-06
7.65249e-06
6.84738e-06
6.07453e-06
5.33884e-06
4.6413e-06
3.98606e-06
3.37626e-06
2.81572e-06
2.30585e-06
1.84996e-06
1.44922e-06
1.10748e-06
8.28928e-07
6.26713e-07
5.17373e-07
5.04203e-07
5.5454e-07
6.29307e-07
7.05038e-07
7.71491e-07
8.25825e-07
8.67265e-07
8.96475e-07
9.14361e-07
9.22263e-07
9.21647e-07
9.13674e-07
9.00045e-07
8.81162e-07
8.58061e-07
8.31843e-07
8.03608e-07
7.73516e-07
7.42382e-07
7.10388e-07
6.77942e-07
6.45507e-07
6.13154e-07
5.80783e-07
5.48412e-07
5.16147e-07
4.84341e-07
4.53332e-07
4.22754e-07
3.92322e-07
3.62169e-07
3.32072e-07
3.02359e-07
2.73478e-07
2.46948e-07
2.24584e-07
2.06498e-07
1.88468e-07
1.71176e-07
1.55173e-07
1.30399e-07
1.24597e-07
7.79821e-08
1.46595e-07
1.69816e-07
4.20756e-07
5.10489e-07
9.27338e-07
3.47726
0.43267
0.00474952
0.00049206
0.000119082
0
3.84486e-07
6.01216e-06
8.80638e-06
8.56845e-06
8.01612e-06
7.49951e-06
7.02489e-06
6.56564e-06
6.10487e-06
5.65474e-06
5.20982e-06
4.77758e-06
4.35492e-06
3.95102e-06
3.56354e-06
3.1968e-06
2.85136e-06
2.53205e-06
2.23912e-06
1.97375e-06
1.73675e-06
1.53053e-06
1.35462e-06
1.21033e-06
1.09639e-06
1.01171e-06
9.52594e-07
9.1512e-07
8.934e-07
8.82726e-07
8.78144e-07
8.76676e-07
8.75329e-07
8.72808e-07
8.67758e-07
8.59792e-07
8.48688e-07
8.34652e-07
8.18077e-07
7.98702e-07
7.77017e-07
7.53708e-07
7.29295e-07
7.03781e-07
6.77617e-07
6.50828e-07
6.23639e-07
5.96354e-07
5.68811e-07
5.40985e-07
5.12823e-07
4.84566e-07
4.56564e-07
4.29035e-07
4.01825e-07
3.74596e-07
3.47275e-07
3.19754e-07
2.92398e-07
2.65634e-07
2.40962e-07
2.1981e-07
2.02592e-07
1.85647e-07
1.69176e-07
1.53981e-07
1.29759e-07
1.25536e-07
7.84181e-08
1.53549e-07
1.57595e-07
4.18041e-07
5.01081e-07
9.274e-07
0.345822
0.00874357
0.000720238
7.92875e-07
0
1.39395e-07
2.22204e-06
4.3441e-06
4.12442e-06
3.9141e-06
3.75662e-06
3.59044e-06
3.44059e-06
3.28342e-06
3.12753e-06
2.97157e-06
2.81861e-06
2.66901e-06
2.5226e-06
2.38027e-06
2.24094e-06
2.10661e-06
1.97662e-06
1.8517e-06
1.73158e-06
1.61779e-06
1.51038e-06
1.41113e-06
1.31979e-06
1.23795e-06
1.16476e-06
1.10136e-06
1.04646e-06
1.00036e-06
9.61201e-07
9.28807e-07
9.01057e-07
8.77707e-07
8.56786e-07
8.37856e-07
8.19696e-07
8.01961e-07
7.83831e-07
7.65398e-07
7.46382e-07
7.26233e-07
7.05212e-07
6.83742e-07
6.62e-07
6.39779e-07
6.17361e-07
5.94653e-07
5.71776e-07
5.48753e-07
5.25361e-07
5.01505e-07
4.77183e-07
4.52553e-07
4.28099e-07
4.04091e-07
3.80137e-07
3.56019e-07
3.31609e-07
3.06655e-07
2.81651e-07
2.57049e-07
2.34232e-07
2.14457e-07
1.98321e-07
1.82602e-07
1.67059e-07
1.52769e-07
1.294e-07
1.26293e-07
8.16383e-08
1.57562e-07
1.49971e-07
4.14316e-07
4.89829e-07
9.18719e-07
0.00194513
4.90678e-07
2.0903e-08
0
8.37074e-08
1.3375e-06
2.77244e-06
2.73836e-06
2.55002e-06
2.49864e-06
2.4243e-06
2.35718e-06
2.28163e-06
2.20135e-06
2.1187e-06
2.03392e-06
1.9495e-06
1.86481e-06
1.78163e-06
1.69994e-06
1.62089e-06
1.54488e-06
1.47202e-06
1.40249e-06
1.33676e-06
1.27532e-06
1.21753e-06
1.16379e-06
1.11377e-06
1.0679e-06
1.02518e-06
9.86132e-07
9.50068e-07
9.17298e-07
8.86856e-07
8.59194e-07
8.3338e-07
8.0995e-07
7.8776e-07
7.67258e-07
7.4764e-07
7.28809e-07
7.10203e-07
6.92156e-07
6.74046e-07
6.55511e-07
6.36814e-07
6.18274e-07
5.99826e-07
5.8125e-07
5.62754e-07
5.44145e-07
5.25476e-07
5.06567e-07
4.87128e-07
4.67043e-07
4.4625e-07
4.25096e-07
4.0397e-07
3.8305e-07
3.6213e-07
3.40899e-07
3.19018e-07
2.96372e-07
2.73474e-07
2.50753e-07
2.29617e-07
2.11089e-07
1.95974e-07
1.81413e-07
1.66736e-07
1.53219e-07
1.30853e-07
1.28716e-07
8.72952e-08
1.62631e-07
1.43559e-07
4.15505e-07
4.84733e-07
9.16567e-07
0.000134435
4.69936e-11
0
1.04084e-07
1.48801e-06
2.64967e-06
2.45718e-06
2.13621e-06
1.97575e-06
1.87148e-06
1.78752e-06
1.72509e-06
1.67218e-06
1.62877e-06
1.58765e-06
1.54732e-06
1.50694e-06
1.46514e-06
1.42096e-06
1.37418e-06
1.32623e-06
1.27732e-06
1.22787e-06
1.17868e-06
1.13106e-06
1.08501e-06
1.04095e-06
9.99446e-07
9.60909e-07
9.25127e-07
8.91726e-07
8.60864e-07
8.3237e-07
8.06045e-07
7.8153e-07
7.58939e-07
7.37608e-07
7.17935e-07
6.99111e-07
6.81632e-07
6.64819e-07
6.48692e-07
6.32859e-07
6.17664e-07
6.02362e-07
5.86897e-07
5.71519e-07
5.56517e-07
5.417e-07
5.26879e-07
5.12232e-07
4.97582e-07
4.82864e-07
4.67762e-07
4.52003e-07
4.35417e-07
4.17989e-07
3.99976e-07
3.81858e-07
3.63871e-07
3.45616e-07
3.26915e-07
3.07385e-07
2.86855e-07
2.65863e-07
2.4496e-07
2.25404e-07
2.08151e-07
1.94101e-07
1.80664e-07
1.66905e-07
1.54236e-07
1.33095e-07
1.32135e-07
9.4134e-08
1.68668e-07
1.36497e-07
4.18464e-07
0
1.38107e-11
1.94559e-07
2.79023e-06
3.92337e-06
3.46587e-06
2.9e-06
2.51084e-06
2.21697e-06
1.96312e-06
1.74857e-06
1.57224e-06
1.43012e-06
1.31872e-06
1.23203e-06
1.16533e-06
1.11543e-06
1.07829e-06
1.04846e-06
1.02297e-06
1.00014e-06
9.78659e-07
9.57289e-07
9.34318e-07
9.10703e-07
8.86359e-07
8.61457e-07
8.361e-07
8.11181e-07
7.86523e-07
7.62354e-07
7.39137e-07
7.17236e-07
6.96509e-07
6.77073e-07
6.58839e-07
6.41545e-07
6.25442e-07
6.10134e-07
5.9611e-07
5.82676e-07
5.69869e-07
5.57471e-07
5.45622e-07
5.33596e-07
5.21557e-07
5.09714e-07
4.98274e-07
4.86915e-07
4.75601e-07
4.64509e-07
4.53437e-07
4.42238e-07
4.30551e-07
4.1815e-07
4.04746e-07
3.9034e-07
3.753e-07
3.59998e-07
3.44507e-07
3.28701e-07
3.12313e-07
2.94919e-07
2.764e-07
2.57314e-07
2.38199e-07
2.20276e-07
2.04331e-07
1.9135e-07
1.79092e-07
1.66387e-07
1.54732e-07
1.35081e-07
1.35651e-07
1.01257e-07
1.74758e-07
8.86292e-09
1.22288e-07
3.7269e-06
5.30549e-06
4.48004e-06
3.80142e-06
3.33238e-06
2.93033e-06
2.57611e-06
2.25854e-06
1.97808e-06
1.73345e-06
1.52229e-06
1.34234e-06
1.19136e-06
1.06743e-06
9.68003e-07
8.90134e-07
8.3044e-07
7.86284e-07
7.53652e-07
7.29201e-07
7.1111e-07
6.96807e-07
6.84454e-07
6.72909e-07
6.62074e-07
6.51065e-07
6.39993e-07
6.28278e-07
6.1618e-07
6.0371e-07
5.91427e-07
5.78979e-07
5.66768e-07
5.54728e-07
5.42898e-07
5.31628e-07
5.2094e-07
5.11156e-07
5.01754e-07
4.92893e-07
4.84327e-07
4.76089e-07
4.67593e-07
4.59127e-07
4.50839e-07
4.42855e-07
4.34849e-07
4.26873e-07
4.19089e-07
4.11316e-07
4.03312e-07
3.94708e-07
3.85318e-07
3.74856e-07
3.63335e-07
3.51006e-07
3.38224e-07
3.25133e-07
3.11527e-07
2.97259e-07
2.81889e-07
2.65285e-07
2.48075e-07
2.30755e-07
2.14401e-07
1.99786e-07
1.87923e-07
1.76785e-07
1.65126e-07
1.5457e-07
1.36691e-07
1.39178e-07
6.35652e-07
5.45964e-06
6.02407e-06
5.16757e-06
4.43353e-06
3.98727e-06
3.57133e-06
3.18149e-06
2.82542e-06
2.50023e-06
2.20549e-06
1.93974e-06
1.70208e-06
1.49101e-06
1.30498e-06
1.14295e-06
1.00329e-06
8.84717e-07
7.86042e-07
7.06285e-07
6.43026e-07
5.94061e-07
5.57578e-07
5.31779e-07
5.13359e-07
5.00055e-07
4.91019e-07
4.84719e-07
4.79973e-07
4.75519e-07
4.71381e-07
4.67158e-07
4.62916e-07
4.58227e-07
4.53503e-07
4.48345e-07
4.42913e-07
4.37487e-07
4.32289e-07
4.2746e-07
4.22663e-07
4.1806e-07
4.13538e-07
4.09089e-07
4.04254e-07
3.99434e-07
3.94717e-07
3.90151e-07
3.85405e-07
3.80665e-07
3.76045e-07
3.71322e-07
3.66276e-07
3.6059e-07
3.54014e-07
3.46259e-07
3.37377e-07
3.27629e-07
3.17226e-07
3.06279e-07
2.94711e-07
2.82384e-07
2.68889e-07
2.54227e-07
2.38832e-07
2.23198e-07
2.08402e-07
1.95092e-07
1.84258e-07
1.74288e-07
1.63799e-07
5.76635e-06
6.27066e-06
5.36694e-06
4.7228e-06
4.32201e-06
3.96034e-06
3.58471e-06
3.23425e-06
2.90582e-06
2.59933e-06
2.31532e-06
2.05401e-06
1.8151e-06
1.5979e-06
1.4015e-06
1.22506e-06
1.06807e-06
9.29611e-07
8.08556e-07
7.04379e-07
6.16138e-07
5.43332e-07
4.8455e-07
4.3884e-07
4.04552e-07
3.80421e-07
3.64332e-07
3.54157e-07
3.48588e-07
3.45958e-07
3.45268e-07
3.4555e-07
3.46651e-07
3.47735e-07
3.4878e-07
3.49214e-07
3.49199e-07
3.48948e-07
3.48724e-07
3.4852e-07
3.48223e-07
3.47869e-07
3.47229e-07
3.46351e-07
3.45067e-07
3.43753e-07
3.42392e-07
3.41001e-07
3.39323e-07
3.37605e-07
3.3587e-07
3.33953e-07
3.31557e-07
3.28396e-07
3.24327e-07
3.19116e-07
3.12757e-07
3.05346e-07
2.97116e-07
2.88141e-07
2.78392e-07
2.67846e-07
2.56242e-07
2.43364e-07
2.29901e-07
2.16108e-07
5.55628e-06
5.09145e-06
4.57372e-06
4.27591e-06
3.99518e-06
3.69289e-06
3.39096e-06
3.10305e-06
2.82543e-06
2.56061e-06
2.30984e-06
2.07425e-06
1.85435e-06
1.6503e-06
1.46229e-06
1.28984e-06
1.13295e-06
9.91114e-07
8.63384e-07
7.4956e-07
6.48945e-07
5.61181e-07
4.85374e-07
4.21216e-07
3.68157e-07
3.2616e-07
2.94138e-07
2.70987e-07
2.56042e-07
2.47916e-07
2.44708e-07
2.44914e-07
2.47569e-07
2.51462e-07
2.56061e-07
2.60516e-07
2.64848e-07
2.69096e-07
2.73361e-07
2.77336e-07
2.80819e-07
2.83932e-07
2.86859e-07
2.89333e-07
2.91278e-07
2.93143e-07
2.94828e-07
2.96299e-07
2.9736e-07
2.98276e-07
2.99051e-07
2.99519e-07
2.99332e-07
2.98311e-07
2.965e-07
2.93549e-07
2.89388e-07
2.84076e-07
2.7775e-07
2.70753e-07
2.62864e-07
4.29238e-06
4.10894e-06
3.88063e-06
3.70786e-06
3.49952e-06
3.27988e-06
3.0594e-06
2.8401e-06
2.62243e-06
2.40962e-06
2.20301e-06
2.0042e-06
1.81456e-06
1.63495e-06
1.46623e-06
1.30845e-06
1.16223e-06
1.02751e-06
9.03852e-07
7.91308e-07
6.894e-07
5.97703e-07
5.15658e-07
4.4308e-07
3.79301e-07
3.24056e-07
2.77162e-07
2.38658e-07
2.08459e-07
1.86389e-07
1.72277e-07
1.65317e-07
1.64493e-07
1.67828e-07
1.73858e-07
1.81107e-07
1.88995e-07
1.97113e-07
2.05316e-07
2.13268e-07
2.20642e-07
2.27279e-07
2.33152e-07
2.38569e-07
2.43643e-07
2.48429e-07
2.5278e-07
2.56694e-07
2.60059e-07
2.63148e-07
2.65841e-07
2.68067e-07
2.6994e-07
2.70784e-07
3.26468e-06
3.24419e-06
3.15426e-06
3.05904e-06
2.93746e-06
2.80467e-06
2.66286e-06
2.51354e-06
2.35925e-06
2.20259e-06
2.04533e-06
1.88949e-06
1.73672e-06
1.58831e-06
1.44549e-06
1.30888e-06
1.17939e-06
1.05746e-06
9.43262e-07
8.37084e-07
7.38861e-07
6.48428e-07
5.6569e-07
4.9023e-07
4.21621e-07
3.59633e-07
3.0401e-07
2.54689e-07
2.11324e-07
1.74047e-07
1.4359e-07
1.2073e-07
1.06565e-07
1.01049e-07
1.03125e-07
1.10277e-07
1.20527e-07
1.32545e-07
1.44651e-07
1.56637e-07
1.68799e-07
1.76155e-07
)
;

boundaryField
{
    inlet
    {
        type            calculated;
        value           nonuniform List<scalar> 
13
(
3.88478e-06
3.92288e-06
3.95515e-06
3.98302e-06
4.00911e-06
4.03539e-06
4.0709e-06
4.06927e-06
4.0252e-06
4.00015e-06
3.96794e-06
3.94009e-06
3.91684e-06
)
;
    }
    outlet
    {
        type            calculated;
        value           nonuniform List<scalar> 0();
    }
    walls
    {
        type            calculated;
        value           uniform 0;
    }
    frontAndBack
    {
        type            empty;
    }
    procBoundary2to1
    {
        type            processor;
        value           nonuniform List<scalar> 
84
(
54.9358
1.45296
0.260455
0.00337891
0.00173845
1.44975e-06
3.22091e-05
2.53953e-05
2.77089e-05
2.38162e-05
2.41333e-05
2.28171e-05
2.22628e-05
2.13736e-05
2.05954e-05
1.97448e-05
1.88935e-05
1.80188e-05
1.7133e-05
1.6239e-05
1.5343e-05
1.44469e-05
1.35565e-05
1.26769e-05
1.18143e-05
1.0972e-05
1.01567e-05
9.37197e-06
8.62194e-06
7.9087e-06
7.23762e-06
6.60968e-06
6.0271e-06
5.48868e-06
4.99572e-06
4.54551e-06
4.13766e-06
3.77157e-06
3.77157e-06
4.00708e-06
3.64306e-06
3.31465e-06
3.01877e-06
2.75277e-06
2.51321e-06
2.29715e-06
2.10149e-06
1.92448e-06
1.76387e-06
1.6176e-06
1.48416e-06
1.36293e-06
1.25203e-06
1.25203e-06
1.21242e-06
1.10788e-06
1.01112e-06
9.22118e-07
8.39627e-07
7.64333e-07
6.95279e-07
6.32296e-07
5.74092e-07
5.74092e-07
5.31983e-07
4.77881e-07
4.25824e-07
3.76463e-07
3.303e-07
2.89659e-07
2.57183e-07
2.31266e-07
2.08275e-07
1.86833e-07
1.86833e-07
1.68637e-07
1.46246e-07
1.13936e-07
6.84941e-08
4.45277e-08
1.20869e-07
2.9055e-07
5.97552e-07
1.14195e-06
)
;
    }
    procBoundary2to3
    {
        type            processor;
        value           nonuniform List<scalar> 
88
(
4.8275e-07
9.17118e-07
1.29387e-07
4.8275e-07
4.21237e-07
1.08382e-07
1.29387e-07
1.80222e-07
1.54282e-07
1.38128e-07
1.08382e-07
1.42602e-07
2.02771e-07
1.90531e-07
1.8069e-07
1.71719e-07
1.54282e-07
1.62357e-07
2.53876e-07
2.43888e-07
2.32855e-07
2.21091e-07
2.02771e-07
2.09083e-07
2.70306e-07
2.69323e-07
2.67174e-07
2.63677e-07
2.59007e-07
2.53512e-07
2.53876e-07
2.47419e-07
1.82958e-07
1.92922e-07
2.01211e-07
2.08797e-07
2.15503e-07
2.21464e-07
2.26686e-07
2.31495e-07
2.35879e-07
2.39364e-07
2.41926e-07
2.70306e-07
2.4483e-07
2.29658e-06
2.37332e-06
2.37586e-06
2.36625e-06
2.33332e-06
2.2833e-06
2.21733e-06
2.13747e-06
2.04627e-06
1.9462e-06
1.83946e-06
1.72819e-06
1.61435e-06
1.49954e-06
1.3854e-06
1.2729e-06
1.16331e-06
1.05746e-06
9.56095e-07
8.59771e-07
7.68912e-07
6.83577e-07
6.03983e-07
5.30052e-07
4.61653e-07
3.98578e-07
3.40675e-07
2.87762e-07
2.39444e-07
1.95632e-07
1.561e-07
1.21e-07
9.0708e-08
6.68568e-08
5.24363e-08
5.07487e-08
5.97966e-08
7.4179e-08
9.31114e-08
1.08623e-07
1.18653e-07
1.82958e-07
1.35268e-07
)
;
    }
    procBoundary2to6
    {
        type            processor;
        value           nonuniform List<scalar> 
13
(
41.2545
24.3662
10.2194
2.29886
0.119166
0.000340596
1.34873e-06
0
3.8794e-08
1.28286e-06
4.75265e-06
4.09533e-06
3.07055e-06
)
;
    }
}


// ************************************************************************* //
