/*--------------------------------*- C++ -*----------------------------------*\
| =========                 |                                                 |
| \\      /  F ield         | OpenFOAM: The Open Source CFD Toolbox           |
|  \\    /   O peration     | Version:  2506                                  |
|   \\  /    A nd           | Website:  www.openfoam.com                      |
|    \\/     M anipulation  |                                                 |
\*---------------------------------------------------------------------------*/
FoamFile
{
    version     2.0;
    format      ascii;
    arch        "LSB;label=32;scalar=64";
    class       volScalarField;
    location    "100";
    object      turbulenceProperties:L;
}
// * * * * * * * * * * * * * * * * * * * * * * * * * * * * * * * * * * * * * //

dimensions      [0 1 0 0 0 0 0];

internalField   nonuniform List<scalar> 
1340
(
0.0560624
0.0561542
0.0563628
0.0549955
0.213788
0.210023
0.203509
0.178805
0.252188
0.254349
0.265895
0.246376
0.234154
0.247024
0.260617
0.245869
0.0964513
0.100638
0.116888
0.203395
0.263655
0.0578126
0.0614214
0.091168
0.0526819
0.275008
12.4388
0.0454944
0.0474381
0.0519389
1.75507
0.108924
0.0414108
0.0421169
0.0365595
0.294268
0.0456781
0.0479351
0.0401679
0.0474043
0.0450533
0.046204
0.0424749
0.0365682
0.046766
0.0482342
0.0453153
0.0380535
0.0473236
0.0488108
0.0466254
0.0402967
0.048504
0.0502901
0.0485833
0.0426929
0.0495233
0.0515013
0.0504698
0.0451757
0.0507517
0.0530035
0.0526331
0.0479184
0.0520404
0.0545684
0.054908
0.0509272
0.05347
0.05632
0.057393
0.0542534
0.0550216
0.0582244
0.0600797
0.0579441
0.0567153
0.0603096
0.0629998
0.0620147
0.0585576
0.0625838
0.0661821
0.0665466
0.0605718
0.065083
0.0696563
0.0715995
0.0627651
0.0678217
0.0734612
0.0772475
0.0651552
0.0708138
0.0776462
0.0835871
0.0677541
0.0740801
0.0822443
0.09071
0.07058
0.0776466
0.0872951
0.0987636
0.0736362
0.0815217
0.0928363
0.107881
0.0769417
0.0857186
0.0988948
0.118176
0.0805008
0.0902403
0.105478
0.12976
0.0843249
0.0950785
0.112538
0.142533
0.0883975
0.1002
0.119981
0.156205
0.0927186
0.105566
0.127642
0.169847
0.0972646
0.111119
0.135311
0.182165
0.102028
0.116799
0.142699
0.191526
0.106966
0.122502
0.149525
0.197199
0.112064
0.128171
0.155595
0.199501
0.117262
0.133711
0.160805
0.199624
0.122552
0.13911
0.165224
0.19874
0.116402
0.127908
0.144326
0.168961
0.19765
0.121801
0.13329
0.149358
0.17227
0.196893
0.127313
0.138668
0.154198
0.175292
0.196674
0.132949
0.144082
0.158972
0.178297
0.197155
0.138702
0.14954
0.163711
0.181368
0.198274
0.144599
0.155084
0.168512
0.184664
0.200103
0.150658
0.16074
0.173416
0.188206
0.20251
0.1569
0.166559
0.178515
0.192114
0.205566
0.163341
0.172579
0.183862
0.196419
0.209213
0.170002
0.178818
0.189477
0.201127
0.213456
0.17691
0.185312
0.195385
0.206219
0.218183
0.18409
0.192091
0.201622
0.211738
0.223464
0.191523
0.199145
0.208189
0.217677
0.229225
0.199246
0.206511
0.215088
0.224022
0.235481
0.20135
0.207304
0.214264
0.222431
0.230867
0.242258
0.210166
0.215873
0.222487
0.230239
0.238161
0.249513
0.21954
0.224963
0.231246
0.238577
0.246017
0.257294
0.229487
0.234677
0.240618
0.247527
0.254464
0.265652
0.240088
0.24499
0.25062
0.257155
0.263631
0.274696
0.251258
0.255974
0.261333
0.267512
0.273522
0.284477
0.263118
0.267619
0.272724
0.278591
0.284167
0.295022
0.275579
0.279958
0.284887
0.290428
0.295559
0.306303
0.288891
0.293142
0.297879
0.303103
0.307856
0.318528
0.299584
0.303312
0.307455
0.312021
0.316997
0.321372
0.332096
0.315775
0.319445
0.323381
0.327673
0.332349
0.336467
0.347245
0.334165
0.337602
0.341277
0.345321
0.349747
0.353537
0.364407
0.35504
0.358288
0.361707
0.365459
0.369557
0.37285
0.383864
0.378768
0.38179
0.38493
0.388319
0.391953
0.39458
0.405735
0.404365
0.407352
0.410247
0.413204
0.416247
0.418028
0.429297
0.429145
0.432082
0.434668
0.437046
0.439403
0.440293
0.451634
0.452713
0.455922
0.458484
0.460419
0.461926
0.461732
0.472475
0.477499
0.48133
0.484383
0.486415
0.48747
0.486297
0.496638
0.504261
0.508623
0.512214
0.514434
0.515301
0.513277
0.52322
0.53182
0.537185
0.541954
0.54614
0.548587
0.54917
0.545914
0.553247
0.572697
0.579924
0.586328
0.591982
0.595848
0.597602
0.594734
0.604921
0.651906
0.661305
0.667889
0.671991
0.671837
0.666752
0.651564
0.641077
0.875217
0.921464
0.958854
0.980471
0.969814
0.924284
0.821445
0.782769
1.02208
0.978778
0.915716
0.850726
0.789294
0.736231
0.687092
0.632412
0.611493
0.603574
0.598105
0.59416
0.588386
0.571601
0.519647
0.482297
0.392224
0.385192
0.379355
0.374259
0.368726
0.360935
0.343613
0.330808
0.279081
0.278933
0.278846
0.278828
0.27888
0.278632
0.276304
0.283856
0.202285
0.202588
0.202962
0.2034
0.203989
0.204533
0.20591
0.214043
0.212209
0.208447
0.225529
0.222839
0.148142
0.0265778
0.0466743
1.24382
0.154672
0.0390305
0.037833
0.0399615
0.0425516
0.045168
0.0480478
0.0512247
0.0547792
0.0587471
0.063193
0.0682157
0.0739145
0.0804253
0.0879216
0.0966466
0.106936
0.119286
0.134403
0.153431
0.178175
0.211673
0.258218
0.315456
0.342545
0.314616
0.28047
0.255933
0.239525
0.228502
0.221139
0.216401
0.213636
0.212431
0.212434
0.213497
0.215375
0.218062
0.221461
0.225523
0.230111
0.235285
0.240949
0.247142
0.253817
0.26095
0.268539
0.276693
0.285475
0.29499
0.30525
0.316283
0.328262
0.341532
0.356294
0.37292
0.391656
0.412703
0.435239
0.457005
0.477048
0.500095
0.525533
0.553074
0.604207
0.624301
0.766975
0.5941
0.496496
0.334419
0.30176
0.226959
0.35672
0.29456
0.244428
0.262266
0.105402
0.05377
3.39289
0.377354
0.066601
0.0552519
0.0570181
0.0594298
0.062015
0.0645947
0.0674756
0.0706124
0.0741293
0.0780791
0.0825406
0.0876332
0.0934752
0.100252
0.108178
0.11754
0.128708
0.142226
0.158785
0.179399
0.205218
0.237204
0.272799
0.300243
0.304137
0.290004
0.272232
0.257195
0.245868
0.237642
0.231894
0.228085
0.225843
0.224873
0.224948
0.225927
0.227631
0.230056
0.233132
0.236777
0.240901
0.245542
0.250637
0.256219
0.262279
0.268787
0.275787
0.283369
0.291613
0.300591
0.310305
0.320743
0.332142
0.344785
0.358853
0.374766
0.392752
0.412974
0.434593
0.455719
0.475258
0.49747
0.52199
0.548243
0.598048
0.61182
0.773272
0.564081
0.524092
0.332958
0.302297
0.224276
0.439688
0.340595
0.205563
0.147605
0.076593
0
0.636036
0.0892294
0.0727554
0.0738502
0.0763167
0.0788805
0.0814988
0.0842992
0.0874213
0.0908326
0.0946302
0.0988168
0.1035
0.10866
0.114414
0.120797
0.127904
0.135728
0.144331
0.153727
0.163879
0.174569
0.185556
0.196304
0.206251
0.214708
0.221269
0.225753
0.22848
0.229856
0.230454
0.230647
0.230824
0.231156
0.231828
0.232899
0.234417
0.23638
0.238762
0.24164
0.244989
0.248748
0.252877
0.257419
0.262342
0.267686
0.273459
0.279645
0.286336
0.293608
0.301562
0.310231
0.319605
0.3297
0.340682
0.352849
0.366468
0.381916
0.399386
0.419027
0.439959
0.460642
0.479817
0.501236
0.525067
0.550361
0.599524
0.60953
0.771124
0.551162
0.54403
0.334038
0.305122
0.224269
0.474112
0.370885
0.320767
0.337814
0
1.11209
0.150184
0.103843
0.106447
0.109221
0.111455
0.113998
0.116453
0.119205
0.122138
0.1253
0.128653
0.132208
0.135989
0.139994
0.144279
0.148806
0.153619
0.158715
0.164126
0.169799
0.175731
0.181804
0.187988
0.194102
0.200106
0.205784
0.211112
0.215921
0.220274
0.224082
0.227505
0.230511
0.233308
0.235928
0.238527
0.24115
0.243923
0.246842
0.249966
0.25341
0.257159
0.261165
0.265419
0.269988
0.274846
0.280045
0.285592
0.291521
0.297941
0.304946
0.312621
0.321017
0.330059
0.339724
0.350266
0.361938
0.375025
0.389989
0.406935
0.425967
0.446235
0.466355
0.484956
0.505398
0.528384
0.55254
0.600354
0.607703
0.755778
0.544102
0.557684
0.335538
0.308608
0.225326
0.62335
0.474056
4.59113
0
1.44263
0.194198
0.130048
0.130859
0.135284
0.136671
0.138732
0.140693
0.143002
0.145583
0.148394
0.151452
0.154695
0.158166
0.161814
0.165655
0.169644
0.173766
0.178013
0.18237
0.186798
0.191243
0.195727
0.200193
0.204638
0.208986
0.213293
0.217474
0.221563
0.225484
0.229321
0.232982
0.236563
0.239959
0.243315
0.246544
0.249757
0.252963
0.256255
0.259574
0.263037
0.26673
0.270617
0.274644
0.278835
0.283255
0.287872
0.292753
0.297908
0.303417
0.309413
0.315996
0.323275
0.331222
0.339774
0.34893
0.358869
0.369877
0.382355
0.396697
0.412975
0.431282
0.450697
0.470063
0.487853
0.507052
0.528896
0.55173
0.597017
0.601961
0.730901
0.535558
0.57
0.335058
0.310228
0.225591
0.194354
0.0529282
0
1.28003
0.183368
0.132954
0.138243
0.147847
0.153673
0.157908
0.161564
0.164462
0.16704
0.169249
0.171424
0.173641
0.175949
0.17844
0.18119
0.184246
0.187545
0.1911
0.194908
0.198932
0.203074
0.207338
0.211678
0.216027
0.220314
0.224533
0.228698
0.23276
0.236709
0.240542
0.244285
0.247893
0.251452
0.254873
0.258281
0.261571
0.264857
0.268129
0.271462
0.274781
0.278249
0.28189
0.285658
0.289482
0.293414
0.297512
0.301735
0.306145
0.310775
0.315752
0.32121
0.327271
0.334025
0.341464
0.349473
0.358008
0.367342
0.377706
0.389523
0.403224
0.418845
0.436353
0.45489
0.473369
0.490202
0.508104
0.52863
0.54991
0.59197
0.594126
0.70387
0.525889
0.584556
0.333873
0
0.00843336
0.887338
0.130844
0.109339
0.116376
0.12692
0.136317
0.145081
0.154176
0.163357
0.172272
0.180625
0.188096
0.194598
0.200087
0.204511
0.207999
0.210936
0.213545
0.215966
0.218321
0.220742
0.223437
0.226314
0.229398
0.232688
0.236188
0.239787
0.243515
0.247343
0.251196
0.255001
0.258766
0.262453
0.266059
0.269621
0.273069
0.276473
0.279706
0.282911
0.286072
0.289235
0.292359
0.295635
0.299027
0.30248
0.305933
0.30948
0.31314
0.316856
0.320701
0.324736
0.329114
0.333959
0.339444
0.345652
0.352511
0.359927
0.367931
0.376676
0.386435
0.39767
0.41078
0.425746
0.442503
0.460156
0.477774
0.493714
0.51033
0.529452
0.549028
0.587604
0.586382
0.678678
0.516648
9.14743
1.33503
0.11273
0.094294
0.102306
0.110831
0.118342
0.126192
0.134594
0.143741
0.15359
0.164067
0.175073
0.186436
0.197893
0.209062
0.219534
0.228931
0.237014
0.243575
0.248789
0.252923
0.256118
0.25873
0.261052
0.26328
0.265423
0.267655
0.269958
0.272462
0.275121
0.277946
0.280816
0.283818
0.286858
0.289953
0.293094
0.296184
0.299207
0.302056
0.304872
0.3076
0.310308
0.312981
0.315811
0.318709
0.321625
0.324511
0.327484
0.330529
0.333585
0.336721
0.340046
0.343733
0.347896
0.352718
0.358267
0.364507
0.371332
0.378735
0.386919
0.396099
0.406758
0.419298
0.433602
0.449584
0.466419
0.483179
0.498195
0.513649
0.531471
0.549319
0.584136
0.578908
0.396059
0.0922643
0.0885457
0.0952421
0.102597
0.108187
0.114318
0.121116
0.128521
0.136619
0.145459
0.1551
0.165572
0.1769
0.189085
0.20204
0.215641
0.229633
0.243617
0.257001
0.269343
0.28022
0.289239
0.296169
0.301432
0.305413
0.308207
0.310201
0.311728
0.313182
0.314552
0.315968
0.317411
0.319029
0.320685
0.322524
0.324494
0.3265
0.328456
0.330305
0.332174
0.333997
0.335818
0.337639
0.339652
0.341695
0.34373
0.345735
0.347857
0.350015
0.352159
0.354391
0.356824
0.359626
0.362951
0.366994
0.371794
0.377287
0.383424
0.390218
0.397805
0.406398
0.416475
0.42832
0.441913
0.457132
0.473084
0.488957
0.503127
0.517317
0.53362
0.089864
0.0868173
0.093433
0.0993932
0.103904
0.108567
0.114107
0.120127
0.126732
0.133992
0.141969
0.150726
0.160336
0.170883
0.182461
0.195154
0.209001
0.224022
0.240204
0.257351
0.275159
0.293012
0.310272
0.326027
0.339558
0.350158
0.357802
0.362903
0.365786
0.367171
0.367536
0.367383
0.366797
0.366224
0.365673
0.365444
0.365451
0.365582
0.365698
0.365804
0.36596
0.366146
0.366482
0.366946
0.367628
0.36833
0.369061
0.369812
0.370725
0.371667
0.372625
0.373693
0.375041
0.376842
0.379199
0.382283
0.386151
0.39081
0.396188
0.402312
0.409299
0.417281
0.426629
0.437775
0.450416
0.464571
0.0920237
0.0958782
0.101003
0.104458
0.108093
0.112429
0.117321
0.122641
0.128523
0.135002
0.142139
0.149991
0.158632
0.16815
0.17863
0.190193
0.202932
0.216963
0.232455
0.249477
0.268116
0.288317
0.310011
0.33278
0.355949
0.378166
0.398214
0.414871
0.426803
0.433736
0.436567
0.43638
0.434031
0.430657
0.42677
0.423104
0.419628
0.416302
0.413041
0.41007
0.407518
0.405278
0.403204
0.401477
0.400134
0.398858
0.397717
0.396728
0.396019
0.39541
0.394898
0.394589
0.394712
0.395387
0.396593
0.398582
0.40144
0.405177
0.409767
0.41503
0.421215
0.104353
0.106573
0.109651
0.112198
0.115494
0.119292
0.123514
0.128192
0.133404
0.139168
0.145545
0.15259
0.160363
0.168939
0.178391
0.188837
0.20036
0.213088
0.227193
0.242809
0.260133
0.279372
0.300773
0.324468
0.350684
0.379395
0.410231
0.442079
0.47301
0.500223
0.5203
0.531134
0.532458
0.52714
0.517916
0.507445
0.496742
0.486406
0.47659
0.467621
0.459741
0.452978
0.447237
0.44213
0.437502
0.433267
0.429521
0.426234
0.423468
0.420975
0.418837
0.417094
0.415645
0.414997
0.119569
0.119932
0.12164
0.123525
0.126053
0.128999
0.132389
0.136263
0.140646
0.14556
0.15105
0.157153
0.163917
0.171402
0.179667
0.188807
0.198899
0.21005
0.222398
0.236079
0.251278
0.268224
0.287166
0.308473
0.332622
0.360144
0.391701
0.427944
0.469796
0.517656
0.5699
0.621496
0.661492
0.679295
0.672423
0.65026
0.622004
0.593142
0.567784
0.545633
0.525611
0.514521
)
;

boundaryField
{
    inlet
    {
        type            calculated;
        value           nonuniform List<scalar> 
13
(
0.118918
0.118339
0.117855
0.117442
0.117059
0.116678
0.116167
0.116191
0.116825
0.11719
0.117665
0.11808
0.11843
)
;
    }
    outlet
    {
        type            calculated;
        value           nonuniform List<scalar> 0();
    }
    walls
    {
        type            calculated;
        value           uniform 0;
    }
    frontAndBack
    {
        type            empty;
    }
    procBoundary2to1
    {
        type            processor;
        value           nonuniform List<scalar> 
84
(
0.0559843
0.217464
0.246216
0.231236
0.0756183
0.304788
0.0379945
0.0428853
0.0410405
0.0442591
0.0439677
0.0452175
0.0457764
0.0467183
0.0475923
0.0486061
0.0496886
0.0508798
0.052178
0.0535944
0.0551366
0.0568202
0.0586561
0.0606564
0.0628315
0.0651983
0.0677643
0.0705438
0.0735479
0.0767925
0.0802735
0.0839999
0.0879658
0.0921793
0.0966202
0.101292
0.106167
0.1112
0.1112
0.107883
0.113144
0.118617
0.124294
0.13016
0.136223
0.142485
0.14897
0.15567
0.162603
0.169796
0.177264
0.184979
0.192998
0.192998
0.196125
0.205169
0.214762
0.224888
0.235677
0.247013
0.25899
0.271583
0.285019
0.285019
0.296086
0.312399
0.330946
0.351977
0.375771
0.40127
0.425853
0.449081
0.473218
0.499633
0.499633
0.525894
0.564711
0.639771
0.825006
1.02284
0.621168
0.400662
0.279388
0.202102
)
;
    }
    procBoundary2to3
    {
        type            processor;
        value           nonuniform List<scalar> 
88
(
0.310866
0.225523
0.600399
0.310866
0.332774
0.656003
0.600399
0.508759
0.549832
0.581094
0.656003
0.571921
0.479609
0.494775
0.50807
0.521172
0.549832
0.535986
0.428609
0.437301
0.447546
0.459303
0.479609
0.472312
0.415364
0.416122
0.417795
0.420558
0.424334
0.42891
0.428609
0.434162
0.504866
0.491657
0.481423
0.472598
0.465187
0.458884
0.453567
0.448832
0.444641
0.441392
0.43905
0.415364
0.436438
0.142548
0.140223
0.140153
0.140438
0.141424
0.142964
0.145074
0.147759
0.151015
0.154847
0.159275
0.164321
0.170015
0.176401
0.183521
0.191456
0.200269
0.21005
0.220902
0.232944
0.24632
0.261239
0.277917
0.296662
0.317876
0.3421
0.370027
0.402607
0.441355
0.488271
0.546597
0.620807
0.716958
0.834992
0.942664
0.958174
0.882833
0.79274
0.70763
0.655183
0.626891
0.504866
0.587141
)
;
    }
    procBoundary2to6
    {
        type            processor;
        value           nonuniform List<scalar> 
13
(
0.256864
0.397925
0.483776
0.530126
0.542904
0.436589
0.200884
0
3.15002
0.228811
0.0990504
0.106924
0.123297
)
;
    }
}


// ************************************************************************* //
