/*--------------------------------*- C++ -*----------------------------------*\
| =========                 |                                                 |
| \\      /  F ield         | OpenFOAM: The Open Source CFD Toolbox           |
|  \\    /   O peration     | Version:  2506                                  |
|   \\  /    A nd           | Website:  www.openfoam.com                      |
|    \\/     M anipulation  |                                                 |
\*---------------------------------------------------------------------------*/
FoamFile
{
    version     2.0;
    format      ascii;
    arch        "LSB;label=32;scalar=64";
    class       volVectorField;
    location    "450";
    object      momentError;
}
// * * * * * * * * * * * * * * * * * * * * * * * * * * * * * * * * * * * * * //

dimensions      [0 1 -2 0 0 0 0];

internalField   nonuniform List<vector> 
1340
(
(-0.000631503 0.00132119 1.15493e-13)
(0.000750956 0.0115833 -1.13954e-14)
(0.052433 0.0722295 -4.53924e-16)
(1.09064 -0.120055 -6.74682e-14)
(-0.000920922 0.000449696 -3.9494e-14)
(-0.00167812 0.00232684 3.30533e-14)
(-0.032151 0.0143221 -1.41196e-14)
(-0.892605 0.108505 -3.8508e-14)
(-0.00134996 0.000345904 -3.61651e-14)
(-0.0030631 0.00131491 -9.98041e-14)
(-0.0164147 0.00205062 2.77745e-14)
(-0.112743 0.00973606 9.91169e-15)
(-0.00169951 0.000278896 -1.16595e-13)
(-0.00200626 0.000656554 1.66337e-14)
(-0.00663123 -0.000243657 -2.82964e-14)
(-0.0330663 0.00905375 4.56587e-14)
(-0.00252292 0.00022602 1.18028e-13)
(-0.00156569 0.000328407 -3.96435e-14)
(-0.00369102 -0.000743801 -1.66199e-14)
(-0.019644 0.00937146 -5.31825e-16)
(-0.00099102 -0.000455243 7.32786e-14)
(-0.00115271 0.000256309 8.4627e-14)
(-0.00328131 -0.000731929 3.84847e-14)
(-0.0164727 0.0099272 2.85625e-14)
(0.023712 -0.00766006 -1.01837e-13)
(-0.00734378 0.00263107 -5.77941e-14)
(-0.00303188 -0.0012744 6.507e-15)
(-0.0126673 0.00919949 -2.58426e-14)
(-0.0132088 0.00204728 6.94171e-14)
(-0.00334708 -0.00172104 5.85339e-14)
(-0.00186668 4.44362e-05 -3.50452e-14)
(-0.00731957 0.0082204 -2.77325e-14)
(-0.00861485 0.00538522 -8.23518e-14)
(0.00618791 -0.00278523 -1.57878e-14)
(-0.0139678 0.00946942 2.6161e-14)
(-0.00351278 0.00684348 -4.96366e-15)
(0.000952443 -0.000588125 3.04294e-14)
(-0.00125837 -0.000779867 5.40654e-15)
(-0.00278618 0.000625411 -1.68841e-14)
(0.000677545 0.00368193 4.25687e-14)
(-0.000451162 0.000280087 -2.02334e-14)
(-0.000238229 -0.000195739 2.06735e-14)
(0.00626107 -0.0077794 1.50911e-14)
(0.00239973 0.0024593 7.60274e-15)
(-0.000171303 -3.058e-06 5.97703e-14)
(-0.00019164 -0.000288147 3.47059e-14)
(-0.00176826 -0.000767685 1.50389e-14)
(0.000833025 0.00410375 -3.5586e-14)
(-0.000223953 -5.26078e-08 -5.60542e-14)
(-0.000551516 -5.80501e-05 -4.43366e-14)
(-0.00167719 0.000386996 3.17836e-15)
(0.000761135 0.00314492 1.54587e-15)
(-0.000212208 -1.48564e-05 4.06994e-14)
(-0.000550145 -5.53836e-05 5.33802e-14)
(-0.00109397 0.000121021 -3.67084e-14)
(0.000737841 0.00260864 1.99759e-15)
(-0.000206458 -7.85134e-06 3.92953e-15)
(-0.000552782 -4.33778e-06 -6.59993e-14)
(-0.00101411 0.000381638 2.42853e-14)
(0.000685192 0.00234538 1.06453e-15)
(-0.000206438 5.45123e-06 -6.65101e-14)
(-0.000525941 3.69102e-05 2.33759e-14)
(-0.000822279 0.00044177 -1.72112e-15)
(0.000665517 0.00203092 9.70026e-15)
(-0.000206279 1.85419e-05 1.19832e-14)
(-0.000490953 7.3272e-05 6.26856e-15)
(-0.000665273 0.000496604 -1.69638e-14)
(0.000624412 0.00175799 -6.57471e-15)
(-0.000206578 3.0459e-05 1.63917e-14)
(-0.000452952 0.000104638 -5.47976e-15)
(-0.000528815 0.0005234 4.63671e-15)
(0.000573824 0.0015102 7.86101e-15)
(-0.00020281 4.21017e-05 9.12049e-15)
(-0.000413033 0.000129821 -2.65001e-14)
(-0.000413561 0.000528893 2.60766e-14)
(0.000521205 0.00128731 -6.30426e-15)
(-0.000197978 5.38745e-05 -7.04782e-15)
(-0.000371686 0.000149924 7.41981e-15)
(-0.000314161 0.000520064 2.22065e-15)
(0.000468909 0.00108947 -4.58366e-15)
(-0.000188845 6.62495e-05 -1.26023e-14)
(-0.000330308 0.000166058 -4.93419e-15)
(-0.000233469 0.000499811 -1.86644e-14)
(0.000419977 0.000915768 -2.96297e-15)
(-0.000179482 7.83347e-05 -1.59414e-14)
(-0.000290151 0.000177816 -1.05186e-14)
(-0.000165237 0.000473105 4.47032e-15)
(0.000374777 0.000766881 3.08252e-15)
(-0.000166795 8.94148e-05 3.96838e-14)
(-0.000251354 0.000186383 2.06253e-14)
(-0.000111874 0.000443399 -1.04227e-14)
(0.000333457 0.000640272 -6.61005e-16)
(-0.000154819 9.92908e-05 -9.38214e-15)
(-0.000215206 0.000191055 -2.36001e-15)
(-6.73801e-05 0.000412008 6.01607e-15)
(0.000295788 0.00053527 2.02941e-15)
(-0.000140521 0.000107221 -1.58345e-14)
(-0.000181031 0.000193537 -6.53378e-15)
(-3.43336e-05 0.000380184 -1.41014e-14)
(0.000261586 0.000447204 -2.54048e-15)
(-0.000127464 0.00011357 1.0934e-14)
(-0.000150524 0.000192355 -1.87187e-14)
(-7.657e-06 0.000347208 9.63731e-15)
(0.000231423 0.000376638 8.39687e-15)
(-0.000113032 0.000117576 -8.56769e-15)
(-0.000122543 0.000189165 2.79151e-14)
(1.09767e-05 0.000316297 2.3524e-14)
(0.00020473 0.000318274 -1.29423e-15)
(-0.000100229 0.00011956 -3.35904e-15)
(-9.83354e-05 0.000183288 1.2138e-14)
(2.56313e-05 0.0002857 -6.79399e-15)
(0.000180828 0.00027183 1.43692e-15)
(-8.70259e-05 0.000118002 8.39481e-15)
(-7.64725e-05 0.0001768 -2.55934e-14)
(3.4755e-05 0.00025774 -1.03704e-14)
(0.000159544 0.00023237 -4.82193e-15)
(-7.42253e-05 0.000117145 1.56398e-15)
(-5.78496e-05 0.000167256 1.49039e-14)
(4.12417e-05 0.000230969 5.03126e-15)
(0.000140353 0.000200661 -2.62771e-15)
(-6.24381e-05 0.000113176 -1.22344e-14)
(-4.18527e-05 0.000158474 -1.42127e-14)
(4.42649e-05 0.000206295 -1.53639e-14)
(0.000123359 0.000173328 -2.148e-15)
(-5.05929e-05 0.000111317 2.87532e-15)
(-2.82909e-05 0.000147386 3.18499e-15)
(4.53709e-05 0.000183238 3.17361e-15)
(0.000108115 0.00015132 9.70907e-15)
(-4.13936e-05 0.000105613 2.95557e-15)
(-1.82119e-05 0.000136886 1.41166e-15)
(4.48607e-05 0.000162294 -4.31662e-16)
(9.47071e-05 0.000131931 1.29274e-15)
(-4.38686e-05 8.22404e-05 -1.97102e-14)
(-3.19756e-05 0.000101002 -1.93896e-14)
(-8.81294e-06 0.000125866 -6.1537e-15)
(4.30123e-05 0.000143233 -4.92809e-15)
(8.28051e-05 0.000116204 -9.69921e-15)
(-3.55259e-05 8.04428e-05 5.06113e-16)
(-2.46782e-05 9.66013e-05 7.17221e-15)
(-3.42307e-06 0.000114516 3.05123e-15)
(4.06604e-05 0.000126252 9.99525e-15)
(7.24118e-05 0.00010212 8.02811e-15)
(-3.02998e-05 7.68141e-05 1.21921e-14)
(-1.87769e-05 8.94277e-05 -1.76858e-15)
(1.87952e-06 0.000104071 1.26576e-14)
(3.77295e-05 0.000111068 3.10562e-15)
(6.32483e-05 9.04808e-05 4.04366e-15)
(-2.42525e-05 7.18191e-05 -2.57707e-15)
(-1.38574e-05 8.29276e-05 8.36207e-15)
(4.57349e-06 9.3976e-05 -1.09722e-14)
(3.46853e-05 9.76356e-05 -9.65505e-15)
(5.53178e-05 7.9974e-05 -1.0254e-14)
(-2.04777e-05 6.73029e-05 -6.7697e-15)
(-9.66594e-06 7.61328e-05 -9.61804e-15)
(7.39079e-06 8.45355e-05 6.82862e-15)
(3.14617e-05 8.58806e-05 3.87745e-16)
(4.84272e-05 7.12471e-05 -8.13545e-15)
(-1.5816e-05 6.24676e-05 5.88253e-15)
(-6.48889e-06 6.9685e-05 1.06236e-14)
(8.15187e-06 7.57192e-05 -5.7773e-15)
(2.84855e-05 7.55285e-05 -1.18705e-14)
(4.24607e-05 6.33253e-05 1.84191e-15)
(-1.33795e-05 5.77191e-05 4.73076e-15)
(-3.92695e-06 6.32687e-05 8.08503e-15)
(9.43396e-06 6.76111e-05 2.49883e-15)
(2.55218e-05 6.66009e-05 1.35836e-14)
(3.72981e-05 5.65807e-05 1.1274e-14)
(-1.00875e-05 5.24739e-05 -2.57357e-15)
(-2.02456e-06 5.74625e-05 3.51221e-16)
(9.08476e-06 6.01964e-05 3.74439e-15)
(2.29587e-05 5.8727e-05 2.61121e-16)
(3.27808e-05 5.04298e-05 -9.84167e-17)
(-8.33262e-06 4.76914e-05 -2.10059e-15)
(-5.22865e-07 5.11554e-05 -1.30005e-14)
(9.51702e-06 5.36922e-05 -1.0439e-14)
(2.04692e-05 5.19513e-05 -6.33843e-15)
(2.88659e-05 4.512e-05 -1.92e-15)
(-5.93343e-06 4.28537e-05 -5.32632e-15)
(7.83747e-07 4.64622e-05 -6.09503e-16)
(8.98748e-06 4.7751e-05 7.86424e-15)
(1.83142e-05 4.60093e-05 2.50864e-15)
(2.53964e-05 4.02901e-05 -6.70934e-15)
(-4.37653e-06 3.95315e-05 1.45765e-14)
(1.90312e-06 4.15957e-05 8.57734e-15)
(8.81072e-06 4.26265e-05 -5.6072e-15)
(1.6269e-05 4.08564e-05 -9.32787e-16)
(2.23554e-05 3.60804e-05 5.34818e-15)
(-2.69021e-06 3.5719e-05 3.09157e-15)
(2.26323e-06 3.76681e-05 -5.72132e-15)
(8.11821e-06 3.79574e-05 -6.92771e-15)
(1.44342e-05 3.62745e-05 -7.2954e-16)
(1.96246e-05 3.22518e-05 1.54368e-15)
(-6.16377e-06 3.09571e-05 -3.78292e-15)
(-1.86128e-06 3.26827e-05 2.57783e-16)
(2.92099e-06 3.38031e-05 1.66663e-15)
(7.58333e-06 3.38425e-05 -3.90778e-15)
(1.2723e-05 3.22681e-05 -2.75812e-15)
(1.72206e-05 2.88849e-05 -1.06555e-15)
(-4.56267e-06 2.83808e-05 -5.49409e-15)
(-7.97813e-07 2.98113e-05 -4.78827e-16)
(2.60988e-06 3.03075e-05 -2.67702e-15)
(6.7498e-06 3.01228e-05 1.37367e-15)
(1.11839e-05 2.86696e-05 7.65638e-15)
(1.50364e-05 2.58087e-05 -1.86013e-16)
(-3.71446e-06 2.57837e-05 -4.31248e-15)
(-7.493e-07 2.6652e-05 -8.37701e-16)
(2.72671e-06 2.70103e-05 -4.3982e-15)
(6.14979e-06 2.67877e-05 6.74971e-15)
(9.75644e-06 2.54874e-05 -9.32124e-16)
(1.31322e-05 2.30944e-05 -2.95271e-15)
(-2.85798e-06 2.30266e-05 3.83207e-15)
(-1.35809e-07 2.38252e-05 3.20934e-15)
(2.34552e-06 2.40888e-05 5.00277e-15)
(5.33944e-06 2.37565e-05 -3.17269e-16)
(8.49936e-06 2.26285e-05 -2.12916e-15)
(1.13915e-05 2.0625e-05 6.37826e-15)
(-2.40316e-06 2.05719e-05 -3.49101e-15)
(-2.22229e-07 2.10656e-05 -2.69834e-15)
(2.2947e-06 2.12943e-05 -2.41893e-15)
(4.78552e-06 2.10349e-05 -2.57369e-15)
(7.36098e-06 2.00948e-05 7.96872e-15)
(9.89123e-06 1.84251e-05 -1.1881e-16)
(-1.89543e-06 1.82716e-05 -1.36026e-15)
(2.10407e-07 1.87237e-05 6.04793e-16)
(1.99352e-06 1.88786e-05 -3.90067e-15)
(4.127e-06 1.85888e-05 1.55228e-15)
(6.37585e-06 1.78029e-05 -1.03101e-15)
(8.50682e-06 1.64345e-05 -5.31541e-15)
(-1.57414e-06 1.64598e-05 2.53368e-15)
(6.08974e-08 1.66006e-05 -1.21748e-15)
(1.8617e-06 1.65984e-05 1.44272e-15)
(3.66868e-06 1.63825e-05 4.04515e-16)
(5.49357e-06 1.57494e-05 -7.24591e-16)
(7.34505e-06 1.46589e-05 2.24735e-15)
(-1.49321e-06 1.4712e-05 5.40614e-15)
(1.35189e-07 1.46879e-05 7.24417e-15)
(1.54523e-06 1.46116e-05 1.71375e-16)
(3.16288e-06 1.43703e-05 -1.12137e-15)
(4.76401e-06 1.3901e-05 -3.94139e-15)
(6.26517e-06 1.30595e-05 -1.80422e-15)
(-1.51801e-06 1.29068e-05 -1.00206e-15)
(-2.29593e-07 1.28638e-05 -1.0394e-15)
(1.36266e-06 1.28168e-05 -2.22141e-16)
(2.84913e-06 1.26688e-05 5.71441e-16)
(4.15762e-06 1.22723e-05 3.77162e-15)
(5.44681e-06 1.16549e-05 3.55409e-15)
(-2.66058e-06 1.128e-05 5.26506e-16)
(-1.5847e-06 1.13149e-05 2.38452e-15)
(-1.41935e-07 1.15451e-05 2.19317e-15)
(1.3247e-06 1.1438e-05 -1.9519e-15)
(2.52101e-06 1.12071e-05 -1.5207e-15)
(3.64749e-06 1.08697e-05 -6.27466e-16)
(4.67022e-06 1.03702e-05 -2.49756e-15)
(-2.33878e-06 9.96443e-06 -1.97567e-15)
(-1.2857e-06 1.03951e-05 -7.87512e-17)
(-1.17722e-07 1.04094e-05 5.91042e-16)
(1.08924e-06 1.02037e-05 -3.25811e-15)
(2.18405e-06 9.96806e-06 -7.85782e-16)
(3.1716e-06 9.59291e-06 1.43118e-15)
(4.06556e-06 9.1865e-06 -6.14606e-16)
(-1.86463e-06 8.97951e-06 5.9829e-17)
(-1.11092e-06 9.21347e-06 1.782e-16)
(-2.78392e-07 9.32104e-06 -4.70593e-15)
(8.98148e-07 9.10484e-06 3.58626e-15)
(1.83928e-06 8.82568e-06 1.30017e-15)
(2.69915e-06 8.45655e-06 -2.44771e-15)
(3.48668e-06 8.10761e-06 3.88544e-15)
(-1.60568e-06 7.87839e-06 3.17928e-15)
(-9.93629e-07 8.11363e-06 1.56856e-15)
(-2.3396e-07 8.24984e-06 6.76201e-16)
(6.13589e-07 8.05641e-06 -1.42894e-15)
(1.44368e-06 7.7961e-06 -5.36098e-15)
(2.28835e-06 7.47881e-06 3.45822e-15)
(3.03658e-06 7.179e-06 -5.07546e-16)
(-1.26042e-06 6.87538e-06 1.04153e-15)
(-8.04847e-07 7.14054e-06 2.15003e-16)
(-3.676e-07 7.27215e-06 -1.23471e-15)
(4.26425e-07 7.12387e-06 -4.72932e-16)
(1.19407e-06 6.97282e-06 -2.6662e-16)
(1.95624e-06 6.71193e-06 2.48604e-16)
(2.60884e-06 6.44367e-06 1.27748e-16)
(-1.03468e-06 6.07959e-06 -1.36053e-16)
(-6.8656e-07 6.24515e-06 1.1142e-15)
(-2.79328e-07 6.42784e-06 1.0616e-15)
(3.36908e-07 6.37633e-06 7.57897e-16)
(9.94398e-07 6.27256e-06 -1.23197e-16)
(1.63917e-06 6.04968e-06 1.49559e-15)
(2.22622e-06 5.84912e-06 6.59423e-16)
(-8.09513e-07 5.31792e-06 -2.19076e-15)
(-5.3204e-07 5.50976e-06 -2.93147e-16)
(-2.34648e-07 5.66184e-06 1.8639e-15)
(2.9052e-07 5.62645e-06 -9.87126e-16)
(7.99618e-07 5.5633e-06 -4.85203e-15)
(1.37558e-06 5.41153e-06 -5.82484e-17)
(1.87397e-06 5.24115e-06 7.55424e-16)
(-8.47118e-07 4.46205e-06 -9.42018e-16)
(-6.29924e-07 4.60694e-06 -8.33241e-16)
(-5.30225e-07 4.84567e-06 -3.75402e-16)
(-1.36824e-07 4.84383e-06 4.39305e-16)
(2.11115e-07 4.87563e-06 -1.89487e-15)
(6.68259e-07 4.836e-06 -6.34756e-16)
(1.11583e-06 4.73419e-06 2.87665e-16)
(1.53632e-06 4.60186e-06 -1.68531e-16)
(-6.82241e-07 3.83537e-06 5.58475e-16)
(-5.38336e-07 3.96383e-06 1.88142e-15)
(-4.28126e-07 4.14535e-06 1.1529e-15)
(-1.10595e-07 4.1365e-06 -2.97251e-15)
(1.9088e-07 4.17859e-06 -1.58564e-15)
(5.30758e-07 4.16787e-06 1.09782e-15)
(9.0947e-07 4.0916e-06 4.98005e-16)
(1.30229e-06 4.03536e-06 -2.80238e-16)
(-5.721e-07 3.27165e-06 1.2232e-15)
(-4.34428e-07 3.39219e-06 3.12104e-16)
(-3.25276e-07 3.54619e-06 -1.59625e-15)
(-6.44003e-08 3.54311e-06 1.13547e-15)
(1.64647e-07 3.58325e-06 1.23027e-15)
(4.47997e-07 3.58108e-06 -1.01586e-15)
(7.69446e-07 3.55097e-06 -1.08834e-15)
(1.08067e-06 3.50548e-06 -1.43831e-16)
(-4.33435e-07 2.7964e-06 -2.14931e-16)
(-3.07213e-07 2.88352e-06 6.00604e-16)
(-2.63998e-07 3.08406e-06 -7.1624e-16)
(-1.54893e-08 3.04125e-06 2.27599e-15)
(1.62469e-07 3.08109e-06 -1.97666e-15)
(3.88827e-07 3.09698e-06 -2.48292e-15)
(6.38419e-07 3.0629e-06 3.28712e-15)
(8.8004e-07 3.02662e-06 3.49244e-16)
(-3.61107e-07 2.44527e-06 -9.87348e-16)
(-2.12958e-07 2.52034e-06 -9.28723e-16)
(-1.42679e-07 2.70036e-06 -1.95346e-16)
(2.58901e-08 2.6405e-06 2.23536e-16)
(1.78055e-07 2.67892e-06 8.72013e-16)
(3.36953e-07 2.67714e-06 7.91886e-16)
(5.06563e-07 2.63837e-06 -3.2511e-16)
(6.92375e-07 2.61724e-06 -7.14591e-16)
(-2.44934e-07 2.19046e-06 1.04477e-15)
(-1.16843e-07 2.27516e-06 -1.16523e-15)
(-1.01235e-07 2.4135e-06 1.08291e-15)
(8.21839e-08 2.34376e-06 1.7215e-15)
(1.72053e-07 2.3455e-06 -1.06537e-15)
(2.469e-07 2.32137e-06 1.44382e-16)
(3.95287e-07 2.29523e-06 1.42403e-15)
(5.39735e-07 2.26131e-06 -1.72766e-16)
(-1.65668e-07 2.04079e-06 -1.0306e-15)
(-7.89357e-08 2.11359e-06 1.05954e-16)
(-3.62709e-08 2.21019e-06 3.59371e-16)
(6.52582e-08 2.11857e-06 -1.86535e-15)
(1.00821e-07 2.08861e-06 7.74838e-16)
(1.9238e-07 2.06811e-06 1.69239e-15)
(2.99105e-07 2.02468e-06 -1.04774e-15)
(4.03009e-07 1.97574e-06 -5.94043e-16)
(-2.20428e-07 1.83461e-06 5.56519e-16)
(-9.14384e-08 1.84593e-06 3.61931e-16)
(-1.54559e-07 2.06305e-06 6.4484e-16)
(-3.29456e-08 1.91163e-06 -1.10245e-15)
(1.42292e-09 1.87393e-06 5.20708e-16)
(6.63081e-08 1.83661e-06 1.1002e-15)
(1.24993e-07 1.8125e-06 -2.15654e-15)
(2.26035e-07 1.77983e-06 -3.79946e-16)
(3.44469e-07 1.79455e-06 1.79401e-15)
(-1.71715e-07 1.63015e-06 1.33326e-16)
(-1.09111e-07 1.68094e-06 -1.08538e-16)
(-1.4997e-07 1.79937e-06 6.60704e-16)
(-6.33672e-08 1.67883e-06 8.97302e-16)
(-2.58343e-08 1.65958e-06 -9.21409e-16)
(2.2711e-08 1.63187e-06 -8.56219e-16)
(9.52975e-08 1.60842e-06 4.83291e-16)
(1.98058e-07 1.59659e-06 1.54896e-15)
(2.73782e-07 1.59593e-06 -2.14005e-15)
(-1.3149e-07 1.40607e-06 -2.57375e-16)
(-8.04313e-08 1.43305e-06 -4.27565e-16)
(-1.47224e-07 1.5656e-06 -1.5164e-15)
(-6.8714e-08 1.4584e-06 -5.20007e-16)
(-4.59256e-08 1.45169e-06 1.58962e-16)
(2.51177e-09 1.427e-06 2.3197e-16)
(6.44991e-08 1.4171e-06 -2.94379e-16)
(1.38374e-07 1.38336e-06 9.66337e-16)
(2.02812e-07 1.37861e-06 2.32825e-15)
(-1.09525e-07 1.19942e-06 8.98994e-16)
(-6.51528e-08 1.21668e-06 -1.228e-15)
(-1.25044e-07 1.34453e-06 9.97347e-17)
(-6.7483e-08 1.24395e-06 2.44981e-15)
(-5.68029e-08 1.24248e-06 -1.2335e-15)
(-2.27274e-08 1.22588e-06 3.07783e-16)
(1.76751e-08 1.20907e-06 -6.31058e-16)
(7.37027e-08 1.18122e-06 1.52895e-16)
(1.20384e-07 1.16952e-06 7.00607e-16)
(-9.23836e-08 1.02084e-06 -4.90289e-17)
(-4.95426e-08 1.02461e-06 7.01136e-16)
(-1.17478e-07 1.14802e-06 4.34093e-16)
(-6.69557e-08 1.04761e-06 -1.78027e-15)
(-6.42954e-08 1.04732e-06 1.29109e-15)
(-4.94064e-08 1.03169e-06 1.91715e-15)
(-2.41108e-08 1.02198e-06 -3.08795e-15)
(1.85263e-08 9.99424e-07 -4.89165e-16)
(4.46374e-08 9.9185e-07 1.14766e-15)
(-9.62086e-08 8.71551e-07 2.36386e-16)
(-4.96718e-08 8.76978e-07 3.93651e-16)
(-1.01225e-07 9.92953e-07 -2.84327e-16)
(-6.8728e-08 9.01549e-07 -7.30789e-16)
(-7.50121e-08 9.02548e-07 6.82147e-16)
(-6.56061e-08 8.89993e-07 1.19006e-15)
(-5.07917e-08 8.85311e-07 -1.70864e-16)
(-2.58472e-08 8.73227e-07 -1.14178e-15)
(-3.12312e-08 8.7853e-07 4.61153e-16)
(-7.10591e-08 7.58654e-07 -5.18651e-16)
(-1.86965e-08 7.69548e-07 -1.91219e-16)
(-1.00262e-07 9.15599e-07 6.00466e-16)
(-5.75998e-08 8.09905e-07 8.63565e-16)
(-7.17922e-08 8.16136e-07 -6.36446e-18)
(-7.14601e-08 8.05755e-07 -3.38264e-17)
(-6.42305e-08 8.04563e-07 -3.78384e-16)
(-4.63957e-08 8.00051e-07 7.0902e-17)
(-6.21031e-08 8.16535e-07 -1.08981e-16)
(-7.37651e-08 7.5998e-07 2.78212e-16)
(1.86273e-08 7.63188e-07 2.64151e-16)
(-5.30511e-08 8.98262e-07 6.16536e-16)
(-5.01847e-08 7.93535e-07 -1.08046e-16)
(-6.92361e-08 8.0097e-07 -5.4149e-16)
(-7.2287e-08 7.93078e-07 1.17602e-16)
(-6.91784e-08 7.96002e-07 -3.56963e-16)
(-6.61578e-08 8.00806e-07 -5.41392e-16)
(-1.09308e-07 8.43061e-07 8.30235e-16)
(-5.74951e-08 7.68136e-07 -1.21447e-15)
(2.69795e-08 7.80877e-07 -6.19573e-16)
(-5.24157e-08 8.75776e-07 2.60058e-16)
(-3.62098e-08 7.69842e-07 4.19368e-16)
(-5.65692e-08 7.76047e-07 1.67542e-15)
(-6.29127e-08 7.71182e-07 -4.30972e-16)
(-6.61447e-08 7.79031e-07 -1.90535e-15)
(-6.96353e-08 7.99162e-07 4.09588e-17)
(-1.26406e-07 8.65119e-07 1.22755e-15)
(-5.24889e-08 7.747e-07 -1.6843e-16)
(-5.73246e-08 8.34265e-07 -3.89374e-16)
(-3.98229e-08 9.6661e-07 1.08122e-16)
(-3.71912e-08 8.22282e-07 -6.00876e-16)
(-4.45005e-08 8.26919e-07 8.88663e-17)
(-5.18926e-08 8.22235e-07 3.67237e-16)
(-5.65145e-08 8.27054e-07 -1.35317e-15)
(-5.94015e-08 8.41689e-07 6.9358e-16)
(-8.03568e-08 8.81199e-07 1.16813e-15)
(-1.6506e-07 9.81462e-07 1.09954e-16)
(-4.33714e-08 7.64437e-07 2.82652e-16)
(-5.56722e-08 8.12599e-07 -1.23912e-16)
(2.04796e-09 9.19356e-07 -6.96386e-17)
(-1.2335e-08 7.90507e-07 1.54059e-16)
(-1.37124e-08 7.962e-07 4.99818e-16)
(-1.41136e-08 7.8922e-07 9.74522e-18)
(-1.64607e-08 7.91983e-07 -7.42975e-17)
(-2.29065e-08 8.05574e-07 3.37757e-16)
(-4.92769e-08 8.5594e-07 6.09362e-17)
(-1.11083e-07 9.7147e-07 -5.4559e-16)
(-7.80006e-08 9.7683e-07 1.43319e-17)
(-1.00167e-07 1.03552e-06 3.06156e-16)
(-1.56398e-09 1.16324e-06 5.72172e-16)
(-3.30694e-08 1.01605e-06 -1.43785e-15)
(-3.49284e-08 1.02665e-06 2.6409e-16)
(-3.70321e-08 1.01263e-06 2.48937e-15)
(-3.77397e-08 1.00422e-06 -2.66415e-15)
(-4.32005e-08 1.00345e-06 -7.81142e-16)
(-6.39637e-08 1.03966e-06 1.89201e-15)
(-1.16658e-07 1.22578e-06 -7.50622e-16)
(-0.0322792 -0.0247727 -5.98675e-14)
(0.0298204 -0.0329725 -1.63584e-14)
(0.0467949 -0.0188507 2.72081e-14)
(0.0334913 -0.0123272 -1.54361e-14)
(0.0255771 -0.00899993 2.45632e-14)
(0.0220141 -0.00681925 -7.79214e-15)
(0.0186514 -0.0050434 -5.7505e-15)
(0.0141547 -0.0036058 -1.74071e-14)
(0.00833317 -0.002668 1.24253e-14)
(0.00696709 -0.00118565 1.77065e-14)
(0.00401111 -0.000177213 -7.49635e-15)
(0.0025114 -0.000203925 -1.68082e-14)
(0.00217089 -9.03938e-05 1.74993e-14)
(0.00188197 2.76115e-05 -1.7166e-14)
(0.00159803 0.00010235 1.55476e-14)
(0.00133138 0.000157281 -3.35748e-15)
(0.00111142 0.000194485 1.46513e-15)
(0.000925399 0.000217744 -5.20728e-15)
(0.000769252 0.000226826 -6.52726e-15)
(0.000636655 0.000227302 1.51619e-15)
(0.000527027 0.000220121 3.74365e-15)
(0.000434875 0.000209175 -3.62525e-16)
(0.00035995 0.00019493 1.15423e-15)
(0.000297201 0.000180265 -1.26739e-15)
(0.000247237 0.000166038 3.45611e-15)
(0.000206168 0.000154309 -3.87002e-15)
(0.000173985 0.000144241 1.64563e-15)
(0.000146596 0.000134629 -3.60102e-15)
(0.000124862 0.000125121 4.44554e-15)
(0.000106189 0.000115716 -7.23748e-15)
(9.14625e-05 0.000106883 1.39575e-14)
(7.85574e-05 9.81323e-05 -6.1397e-15)
(6.83909e-05 9.02461e-05 1.98204e-15)
(5.92858e-05 8.2481e-05 6.70156e-16)
(5.20571e-05 7.55907e-05 4.12646e-15)
(4.54523e-05 6.8901e-05 -2.09362e-15)
(4.01699e-05 6.29769e-05 -6.21589e-15)
(3.52554e-05 5.73318e-05 3.91944e-15)
(3.12401e-05 5.22019e-05 -2.62754e-16)
(2.74581e-05 4.74224e-05 7.41959e-16)
(2.4314e-05 4.29965e-05 3.82646e-15)
(2.13373e-05 3.89553e-05 3.04648e-15)
(1.88364e-05 3.519e-05 -6.07409e-15)
(1.64637e-05 3.18105e-05 5.36771e-15)
(1.44625e-05 2.86695e-05 4.82787e-16)
(1.25519e-05 2.58668e-05 -7.41923e-15)
(1.09465e-05 2.32653e-05 4.18187e-15)
(9.41432e-06 2.09424e-05 -1.28079e-15)
(8.13215e-06 1.87895e-05 9.4356e-16)
(6.91115e-06 1.68649e-05 -1.81596e-15)
(5.88767e-06 1.5101e-05 -3.48366e-15)
(4.91095e-06 1.35121e-05 2.41659e-15)
(4.09972e-06 1.21312e-05 4.72561e-17)
(3.37287e-06 1.0902e-05 2.57524e-15)
(2.77657e-06 9.77159e-06 -3.94596e-15)
(2.28079e-06 8.71798e-06 -2.18954e-15)
(1.90099e-06 7.69976e-06 1.60618e-15)
(1.59595e-06 6.81679e-06 -5.17202e-15)
(1.3364e-06 6.07116e-06 -1.25225e-15)
(1.09456e-06 5.48738e-06 -3.37041e-15)
(8.33535e-07 4.91598e-06 1.70978e-15)
(6.53377e-07 4.34611e-06 -1.62623e-15)
(4.99235e-07 3.80107e-06 3.26226e-15)
(3.71004e-07 3.30219e-06 5.53053e-16)
(2.48257e-07 2.84e-06 1.46337e-15)
(1.39615e-07 2.44671e-06 -1.41036e-15)
(4.28007e-08 2.13414e-06 1.71673e-15)
(-7.24119e-09 1.88296e-06 1.41919e-15)
(-3.05492e-08 1.73043e-06 -2.03758e-15)
(-3.51401e-08 1.52751e-06 1.60392e-15)
(-5.92373e-08 1.30211e-06 -2.49076e-15)
(-9.42524e-08 1.09541e-06 -4.35044e-15)
(-1.38036e-07 9.15888e-07 1.72318e-16)
(-2.05701e-07 8.18988e-07 -6.58518e-16)
(-2.11583e-07 7.57294e-07 -9.67791e-16)
(-2.72502e-07 7.86635e-07 8.71796e-16)
(-2.71737e-07 7.61425e-07 -1.1572e-15)
(-3.30194e-07 8.78125e-07 -3.8274e-16)
(-2.07571e-07 7.80429e-07 -2.52915e-16)
(-2.62892e-07 1.20522e-06 4.68619e-16)
(0.0806203 -0.00856331 1.85695e-14)
(-0.0392915 0.00461292 4.29929e-15)
(-0.00554439 -0.0010325 -5.81915e-15)
(-0.00316195 -0.00239589 2.64652e-15)
(-0.000916677 -0.00297167 -4.28782e-15)
(0.000258493 -0.00315729 1.07079e-15)
(0.00104281 -0.00318558 6.67199e-16)
(0.00182658 -0.00310687 3.0192e-15)
(0.00269395 -0.0027893 -1.79355e-15)
(0.000903097 -0.00258827 -2.38726e-15)
(0.00107573 -0.00251194 1.42387e-15)
(0.00116243 -0.00210887 2.92354e-15)
(0.00111616 -0.00176816 -2.81058e-15)
(0.00113377 -0.00146723 3.1357e-15)
(0.00104063 -0.00119405 -3.00073e-15)
(0.000924447 -0.000965522 8.08237e-16)
(0.000845834 -0.000765715 -3.12449e-16)
(0.000759608 -0.000590875 7.06996e-16)
(0.000680562 -0.000443199 1.09042e-15)
(0.000606246 -0.000320035 -1.60458e-16)
(0.000536938 -0.000219101 -1.63566e-16)
(0.000473043 -0.000137457 -2.63919e-16)
(0.000414665 -7.26109e-05 1.53554e-16)
(0.000362304 -2.14526e-05 -1.58872e-16)
(0.000314173 1.77493e-05 -7.62346e-17)
(0.000269337 4.68526e-05 1.90936e-16)
(0.000228695 6.67346e-05 -1.72544e-16)
(0.000194474 7.96778e-05 6.52169e-16)
(0.00016497 8.6721e-05 -3.25009e-16)
(0.000140394 8.95101e-05 1.44918e-15)
(0.000119223 8.91081e-05 -1.87725e-15)
(0.000101732 8.65054e-05 7.71557e-16)
(8.6663e-05 8.25442e-05 -3.52683e-16)
(7.42049e-05 7.75575e-05 3.26096e-16)
(6.34817e-05 7.22937e-05 -1.40602e-15)
(5.45343e-05 6.67336e-05 1.57094e-16)
(4.6824e-05 6.13117e-05 1.34698e-15)
(4.02657e-05 5.60061e-05 -4.78534e-17)
(3.46213e-05 5.10221e-05 1.88524e-16)
(2.97252e-05 4.63204e-05 -1.1753e-15)
(2.55161e-05 4.19572e-05 -1.72212e-16)
(2.18178e-05 3.79483e-05 7.30205e-16)
(1.86452e-05 3.42404e-05 6.85821e-16)
(1.58369e-05 3.08752e-05 -1.53318e-15)
(1.34365e-05 2.77759e-05 2.46041e-16)
(1.13034e-05 2.49907e-05 1.61504e-15)
(9.49021e-06 2.2428e-05 -1.32353e-15)
(7.88e-06 2.01254e-05 9.19102e-16)
(6.52996e-06 1.80248e-05 -7.35853e-16)
(5.31846e-06 1.61187e-05 -1.78356e-16)
(4.31858e-06 1.43774e-05 1.20734e-15)
(3.39319e-06 1.28173e-05 -2.58734e-15)
(2.66212e-06 1.14555e-05 -2.34135e-16)
(1.9244e-06 1.02904e-05 -5.25139e-16)
(1.38086e-06 9.21643e-06 2.11037e-15)
(8.53815e-07 8.25301e-06 7.3653e-16)
(5.35916e-07 7.31287e-06 -1.5883e-16)
(2.8394e-07 6.45945e-06 1.24679e-15)
(1.45168e-07 5.7106e-06 1.28939e-16)
(1.91639e-08 5.07639e-06 3.66481e-16)
(-1.34517e-07 4.51567e-06 1.84649e-15)
(-2.4095e-07 3.97075e-06 2.80619e-16)
(-3.14473e-07 3.46913e-06 -2.69329e-15)
(-3.48122e-07 2.98896e-06 -5.02219e-16)
(-3.78765e-07 2.55956e-06 2.91818e-15)
(-3.93519e-07 2.19271e-06 -8.10173e-16)
(-3.98333e-07 1.8964e-06 -2.49365e-16)
(-3.78108e-07 1.75855e-06 -2.46509e-16)
(-3.47841e-07 1.56986e-06 2.3123e-16)
(-3.0227e-07 1.35509e-06 2.39667e-15)
(-2.86099e-07 1.13447e-06 1.01818e-15)
(-2.63109e-07 9.32288e-07 3.80045e-16)
(-2.40155e-07 7.56475e-07 -6.66453e-16)
(-2.73058e-07 6.71799e-07 8.45605e-16)
(-2.34418e-07 5.98941e-07 6.2575e-16)
(-2.43408e-07 5.82268e-07 -3.25579e-17)
(-2.21924e-07 5.01734e-07 -1.99362e-16)
(-2.41563e-07 5.5139e-07 -3.09695e-16)
(-1.7248e-07 4.27176e-07 4.28201e-16)
(-0.00178083 -0.000329215 2.67418e-16)
(-0.00468784 -0.000520033 4.7978e-17)
(-0.000861905 -0.000727497 -2.31196e-16)
(-0.000408323 -0.000597015 9.14061e-17)
(-0.000122189 -0.000503133 2.52576e-16)
(-7.42066e-06 -0.000440372 7.8118e-18)
(9.19866e-06 -0.000401406 1.78178e-17)
(-5.71114e-05 -0.000363752 7.57378e-17)
(-0.000284417 -0.000351471 3.72772e-16)
(-0.000170398 -0.000424267 3.44216e-16)
(-0.000124965 -0.000383401 -2.29344e-16)
(-0.000227779 -0.000394004 3.95257e-16)
(-0.000273472 -0.000422084 4.35813e-17)
(-0.000113769 -0.000444776 -2.66836e-18)
(-5.85132e-05 -0.000420909 -3.06269e-16)
(-3.5717e-05 -0.000400536 2.45178e-16)
(7.6178e-05 -0.000390558 3.26765e-16)
(0.000116442 -0.000363497 -1.40847e-16)
(0.000151574 -0.000333091 -4.84452e-16)
(0.000174919 -0.00030044 3.20447e-17)
(0.000189861 -0.000266254 -8.82083e-18)
(0.000197005 -0.000231802 1.69169e-17)
(0.000198468 -0.000197139 -1.44325e-16)
(0.000195021 -0.000163522 3.12978e-16)
(0.000188924 -0.00013133 -1.67375e-16)
(0.000181272 -0.000101245 -8.38865e-17)
(0.000172013 -7.42195e-05 -1.88951e-16)
(0.000160579 -5.08103e-05 4.96077e-17)
(0.000148064 -3.09662e-05 -6.69514e-18)
(0.000134987 -1.45449e-05 -4.74106e-17)
(0.000121991 -1.33578e-06 2.86934e-17)
(0.000109408 8.94086e-06 -9.2734e-17)
(9.74984e-05 1.6697e-05 2.64642e-16)
(8.64611e-05 2.2247e-05 -2.35243e-18)
(7.63267e-05 2.60124e-05 -1.8275e-16)
(6.71696e-05 2.82795e-05 -1.17688e-16)
(5.89238e-05 2.94663e-05 7.08645e-17)
(5.15834e-05 2.97262e-05 1.59873e-16)
(4.50466e-05 2.93538e-05 -2.91954e-17)
(3.92695e-05 2.8503e-05 -3.12301e-16)
(3.41561e-05 2.73388e-05 2.87506e-16)
(2.96533e-05 2.59725e-05 -1.43797e-15)
(2.56783e-05 2.4474e-05 5.86303e-17)
(2.21942e-05 2.294e-05 -5.82166e-16)
(1.91199e-05 2.13771e-05 -1.93709e-17)
(1.64374e-05 1.9846e-05 9.48446e-16)
(1.40718e-05 1.83509e-05 1.00413e-15)
(1.20209e-05 1.69251e-05 1.86099e-16)
(1.02175e-05 1.55434e-05 -2.23614e-16)
(8.65815e-06 1.42368e-05 -8.72683e-17)
(7.29599e-06 1.29809e-05 -4.9166e-16)
(6.11525e-06 1.18107e-05 -2.50404e-17)
(5.07301e-06 1.07461e-05 -5.10697e-16)
(4.14257e-06 9.79776e-06 9.64027e-16)
(3.28003e-06 8.97009e-06 4.67889e-16)
(2.55982e-06 8.19382e-06 1.00892e-15)
(1.93581e-06 7.49064e-06 -2.40978e-16)
(1.49548e-06 6.7999e-06 3.02525e-16)
(1.16426e-06 6.16816e-06 1.00363e-16)
(9.0121e-07 5.56371e-06 1.61417e-16)
(6.61693e-07 4.99774e-06 -2.57146e-15)
(4.49172e-07 4.48196e-06 1.1624e-15)
(2.85247e-07 3.98651e-06 5.65198e-16)
(1.49379e-07 3.51014e-06 1.09683e-15)
(5.41615e-08 3.05762e-06 -1.54283e-15)
(1.42187e-10 2.66565e-06 -2.74728e-17)
(-5.153e-08 2.34992e-06 -2.07295e-16)
(-7.84015e-08 2.13343e-06 -9.75087e-17)
(-8.25644e-08 1.95496e-06 8.46595e-19)
(-1.03634e-07 1.73938e-06 -3.06953e-15)
(-1.04619e-07 1.49852e-06 -2.58206e-15)
(-1.02139e-07 1.28527e-06 2.59789e-16)
(-9.55647e-08 1.07396e-06 1.52522e-15)
(-1.50715e-07 9.82977e-07 -1.81491e-16)
(-1.25385e-07 9.23396e-07 7.56044e-16)
(-1.2071e-07 9.09383e-07 -1.61783e-15)
(-1.10774e-07 8.64605e-07 5.72189e-16)
(-1.33523e-07 9.74217e-07 6.99686e-17)
(0.00212379 -0.000524026 -4.87523e-17)
(-0.00108527 -0.000186758 -4.75483e-18)
(-0.000317822 -0.000310175 1.55656e-16)
(-0.000317085 -0.00029612 1.17033e-16)
(-0.000266635 -0.000293697 -6.21128e-18)
(-0.000268033 -0.000288133 -1.97912e-17)
(-0.00026669 -0.000284244 7.60835e-18)
(-0.000258166 -0.000277689 -1.06442e-17)
(-0.000223285 -0.000258383 -8.31521e-17)
(-0.000192492 -0.000231118 -1.79702e-16)
(-0.00013102 -0.000235882 1.86229e-16)
(1.45925e-05 -0.000211828 -4.40846e-17)
(2.41164e-05 -0.000210709 -2.84231e-16)
(-1.16845e-05 -0.000225862 5.19776e-17)
(-2.13601e-06 -0.000150372 -2.05598e-17)
(-2.3584e-05 -0.000191053 3.56626e-16)
(2.55508e-05 -0.000200753 1.20076e-16)
(4.04656e-05 -0.000195423 -1.57339e-16)
(6.15284e-05 -0.000190203 -1.78576e-16)
(7.75555e-05 -0.000182802 -3.55862e-18)
(9.14113e-05 -0.000173466 -1.53104e-16)
(0.000102593 -0.000162521 2.30579e-16)
(0.000111348 -0.00014927 -1.11883e-17)
(0.000117364 -0.000134747 3.22171e-16)
(0.000120923 -0.000119244 -3.28726e-16)
(0.000121914 -0.000103623 -3.71691e-17)
(0.00012096 -8.79972e-05 7.96219e-17)
(0.000118209 -7.29541e-05 -1.22478e-16)
(0.000114054 -5.86828e-05 4.78993e-17)
(0.000108627 -4.5683e-05 -5.6035e-19)
(0.000102336 -3.38697e-05 4.06974e-17)
(9.53739e-05 -2.34959e-05 -2.36149e-18)
(8.8077e-05 -1.4433e-05 -6.52392e-17)
(8.06138e-05 -6.83735e-06 6.18179e-19)
(7.32267e-05 -4.7032e-07 -8.15724e-17)
(6.60365e-05 4.58877e-06 2.90755e-16)
(5.9185e-05 8.57408e-06 -2.50995e-16)
(5.27323e-05 1.15384e-05 -3.9632e-18)
(4.67481e-05 1.36848e-05 2.02289e-16)
(4.12424e-05 1.51022e-05 7.64937e-16)
(3.62336e-05 1.59507e-05 2.64398e-16)
(3.17047e-05 1.63368e-05 1.63826e-15)
(2.76399e-05 1.63539e-05 -1.05084e-16)
(2.40117e-05 1.61079e-05 -2.21265e-16)
(2.0784e-05 1.56467e-05 -1.33119e-16)
(1.79329e-05 1.50598e-05 -1.75664e-16)
(1.54125e-05 1.43495e-05 -1.31419e-15)
(1.32074e-05 1.3587e-05 2.86947e-16)
(1.12672e-05 1.27715e-05 -2.61562e-16)
(9.58442e-06 1.193e-05 -6.54257e-17)
(8.10785e-06 1.10677e-05 2.77083e-16)
(6.84118e-06 1.01977e-05 2.82145e-16)
(5.71991e-06 9.38549e-06 3.23185e-16)
(4.72905e-06 8.61195e-06 6.33921e-16)
(3.8339e-06 7.94043e-06 1.71189e-16)