/*--------------------------------*- C++ -*----------------------------------*\
| =========                 |                                                 |
| \\      /  F ield         | OpenFOAM: The Open Source CFD Toolbox           |
|  \\    /   O peration     | Version:  2506                                  |
|   \\  /    A nd           | Website:  www.openfoam.com                      |
|    \\/     M anipulation  |                                                 |
\*---------------------------------------------------------------------------*/
FoamFile
{
    version     2.0;
    format      ascii;
    arch        "LSB;label=32;scalar=64";
    class       volScalarField;
    location    "450";
    object      nuTilda;
}
// * * * * * * * * * * * * * * * * * * * * * * * * * * * * * * * * * * * * * //

dimensions      [0 2 -1 0 0 0 0];

internalField   nonuniform List<scalar> 
1340
(
0.0869126
0.0784495
0.0683187
0.0332561
0.153838
0.148528
0.139509
0.13992
0.206325
0.207575
0.201485
0.210278
0.215353
0.231947
0.239148
0.255242
0.175051
0.217178
0.248044
0.278267
0.0932917
0.160405
0.223989
0.278317
0.0217445
0.0782479
0.166212
0.252312
0.00542305
0.0161776
0.0904728
0.200055
0
0.00442206
0.0305861
0.13287
0
9.94733e-06
0.000459395
0.0724194
0
0
0.000803139
0.0333071
7.82995e-06
0
0.000287174
0.0131129
3.14112e-05
1.22588e-06
9.9679e-05
0.00434131
4.61825e-05
1.67546e-06
2.67724e-05
0.00111063
4.52412e-05
3.19914e-05
3.34696e-06
9.7723e-05
4.0661e-05
4.54624e-05
2.00281e-06
2.25089e-05
3.84382e-05
4.89722e-05
3.18234e-06
8.88225e-08
3.85261e-05
4.5469e-05
2.79142e-05
3.69633e-06
3.93836e-05
4.15251e-05
4.13653e-05
1.33322e-05
4.00157e-05
3.96356e-05
4.40472e-05
2.83565e-05
4.02347e-05
3.93635e-05
4.26142e-05
3.70358e-05
4.02178e-05
3.9669e-05
4.09927e-05
4.01592e-05
4.01454e-05
3.99561e-05
4.01917e-05
4.06389e-05
4.00961e-05
4.00856e-05
3.9989e-05
4.04014e-05
4.00777e-05
4.01105e-05
4.00117e-05
4.01804e-05
4.00753e-05
4.01e-05
4.0061e-05
4.0093e-05
4.00771e-05
4.00881e-05
4.00846e-05
4.00802e-05
4.00782e-05
4.00825e-05
4.00885e-05
4.00866e-05
4.00782e-05
4.00809e-05
4.00859e-05
4.0091e-05
4.00778e-05
4.00806e-05
4.00832e-05
4.00912e-05
4.00773e-05
4.00804e-05
4.00818e-05
4.00897e-05
4.00771e-05
4.008e-05
4.00811e-05
4.00883e-05
4.00769e-05
4.00797e-05
4.00807e-05
4.00872e-05
4.00755e-05
4.00769e-05
4.00794e-05
4.00804e-05
4.00863e-05
4.00756e-05
4.00769e-05
4.00793e-05
4.00801e-05
4.00857e-05
4.00758e-05
4.0077e-05
4.00792e-05
4.008e-05
4.00852e-05
4.0076e-05
4.00771e-05
4.00792e-05
4.00799e-05
4.00848e-05
4.00763e-05
4.00773e-05
4.00793e-05
4.00799e-05
4.00844e-05
4.00766e-05
4.00776e-05
4.00794e-05
4.008e-05
4.00842e-05
4.00769e-05
4.00779e-05
4.00796e-05
4.00801e-05
4.00841e-05
4.00773e-05
4.00782e-05
4.00799e-05
4.00804e-05
4.0084e-05
4.00776e-05
4.00785e-05
4.00801e-05
4.00806e-05
4.00841e-05
4.0078e-05
4.00789e-05
4.00804e-05
4.00809e-05
4.00842e-05
4.00784e-05
4.00792e-05
4.00807e-05
4.00812e-05
4.00843e-05
4.00787e-05
4.00796e-05
4.0081e-05
4.00815e-05
4.00845e-05
4.00781e-05
4.0079e-05
4.00799e-05
4.00813e-05
4.00819e-05
4.00847e-05
4.00783e-05
4.00792e-05
4.00801e-05
4.00815e-05
4.00821e-05
4.00848e-05
4.00784e-05
4.00794e-05
4.00803e-05
4.00817e-05
4.00824e-05
4.0085e-05
4.00785e-05
4.00795e-05
4.00805e-05
4.00818e-05
4.00826e-05
4.00851e-05
4.00785e-05
4.00795e-05
4.00805e-05
4.00819e-05
4.00827e-05
4.00852e-05
4.00783e-05
4.00793e-05
4.00804e-05
4.00818e-05
4.00827e-05
4.00852e-05
4.0078e-05
4.00791e-05
4.00802e-05
4.00816e-05
4.00826e-05
4.0085e-05
4.00776e-05
4.00787e-05
4.00798e-05
4.00813e-05
4.00824e-05
4.00847e-05
4.00769e-05
4.00781e-05
4.00793e-05
4.00808e-05
4.0082e-05
4.00843e-05
4.0075e-05
4.00761e-05
4.00773e-05
4.00786e-05
4.00801e-05
4.00814e-05
4.00837e-05
4.00739e-05
4.00751e-05
4.00763e-05
4.00776e-05
4.00792e-05
4.00806e-05
4.00829e-05
4.00726e-05
4.00738e-05
4.00751e-05
4.00765e-05
4.00781e-05
4.00796e-05
4.00819e-05
4.00711e-05
4.00724e-05
4.00737e-05
4.00751e-05
4.00768e-05
4.00783e-05
4.00806e-05
4.00694e-05
4.00707e-05
4.00721e-05
4.00735e-05
4.00752e-05
4.00768e-05
4.00791e-05
4.00674e-05
4.00687e-05
4.00701e-05
4.00717e-05
4.00734e-05
4.00751e-05
4.00774e-05
4.00649e-05
4.00663e-05
4.00678e-05
4.00694e-05
4.00712e-05
4.00731e-05
4.00754e-05
4.00602e-05
4.00617e-05
4.00632e-05
4.00649e-05
4.00666e-05
4.00685e-05
4.00705e-05
4.0073e-05
4.00561e-05
4.00577e-05
4.00593e-05
4.0061e-05
4.00629e-05
4.0065e-05
4.00671e-05
4.00698e-05
4.00515e-05
4.0053e-05
4.00546e-05
4.00564e-05
4.00583e-05
4.00605e-05
4.00628e-05
4.00656e-05
4.00466e-05
4.0048e-05
4.00496e-05
4.00513e-05
4.00532e-05
4.00553e-05
4.00577e-05
4.00606e-05
4.00416e-05
4.0043e-05
4.00445e-05
4.00461e-05
4.00478e-05
4.00499e-05
4.00522e-05
4.0055e-05
4.00367e-05
4.00381e-05
4.00395e-05
4.00411e-05
4.00427e-05
4.00447e-05
4.00468e-05
4.00494e-05
4.00321e-05
4.00335e-05
4.0035e-05
4.00365e-05
4.00383e-05
4.00402e-05
4.00423e-05
4.00447e-05
4.00261e-05
4.00273e-05
4.00287e-05
4.00302e-05
4.00318e-05
4.00335e-05
4.00355e-05
4.00376e-05
4.00401e-05
4.00211e-05
4.00222e-05
4.00235e-05
4.00248e-05
4.00263e-05
4.00279e-05
4.00298e-05
4.00319e-05
4.00344e-05
4.0016e-05
4.0017e-05
4.00181e-05
4.00192e-05
4.00205e-05
4.0022e-05
4.00236e-05
4.00255e-05
4.00278e-05
4.0011e-05
4.00118e-05
4.00127e-05
4.00137e-05
4.00148e-05
4.0016e-05
4.00175e-05
4.00191e-05
4.00212e-05
4.00066e-05
4.0007e-05
4.00075e-05
4.00081e-05
4.00088e-05
4.00097e-05
4.00108e-05
4.00121e-05
4.00137e-05
4.0007e-05
4.00068e-05
4.00066e-05
4.00064e-05
4.00064e-05
4.00065e-05
4.00068e-05
4.00073e-05
4.0008e-05
4.00122e-05
4.00119e-05
4.00116e-05
4.00112e-05
4.00108e-05
4.00104e-05
4.001e-05
4.00097e-05
4.00094e-05
4.00184e-05
4.00181e-05
4.00177e-05
4.00172e-05
4.00167e-05
4.00161e-05
4.00154e-05
4.00146e-05
4.00136e-05
4.00261e-05
4.00262e-05
4.00264e-05
4.00266e-05
4.00267e-05
4.00267e-05
4.00267e-05
4.00267e-05
4.00265e-05
4.00321e-05
4.00321e-05
4.0032e-05
4.00318e-05
4.00314e-05
4.0031e-05
4.00306e-05
4.00301e-05
4.00299e-05
4.00297e-05
4.00425e-05
4.00442e-05
4.0046e-05
4.0048e-05
4.005e-05
4.0052e-05
4.00541e-05
4.00563e-05
4.00589e-05
4.00614e-05
4.00602e-05
4.00605e-05
4.00607e-05
4.00608e-05
4.00608e-05
4.00607e-05
4.00609e-05
4.00614e-05
4.00623e-05
4.0063e-05
0.172351
0.214952
0.255349
0.299982
0.326381
0.32939
0.307326
0.258832
0.186624
0.105688
0.0438967
0.0155135
0.00482319
0.00111843
7.00163e-05
1.58073e-05
0
1.60823e-06
7.61756e-06
2.55308e-05
3.60709e-05
4.00572e-05
4.07632e-05
4.05057e-05
4.02277e-05
4.0108e-05
4.00854e-05
4.00915e-05
4.00972e-05
4.00979e-05
4.0096e-05
4.0094e-05
4.00924e-05
4.00911e-05
4.00901e-05
4.00892e-05
4.00884e-05
4.00877e-05
4.00872e-05
4.00868e-05
4.00864e-05
4.00862e-05
4.0086e-05
4.00859e-05
4.00859e-05
4.00859e-05
4.00859e-05
4.00858e-05
4.00858e-05
4.00858e-05
4.00857e-05
4.00857e-05
4.00855e-05
4.00851e-05
4.00846e-05
4.00839e-05
4.00829e-05
4.00817e-05
4.00803e-05
4.00786e-05
4.00766e-05
4.00742e-05
4.00712e-05
4.00671e-05
4.00621e-05
4.00564e-05
4.00507e-05
4.0046e-05
4.00414e-05
4.00357e-05
4.0029e-05
4.00221e-05
4.00145e-05
4.00084e-05
4.00092e-05
4.00133e-05
4.00263e-05
4.00295e-05
4.0063e-05
4.00634e-05
0.213604
0.258494
0.288522
0.31697
0.345744
0.35773
0.345379
0.30589
0.239448
0.152999
0.0689434
0.0208613
0.00565538
0.0014009
9.24148e-05
2.09844e-05
0
1.12698e-06
5.30442e-06
2.36275e-05
3.53806e-05
3.99263e-05
4.08089e-05
4.0564e-05
4.02575e-05
4.01173e-05
4.00874e-05
4.00927e-05
4.00989e-05
4.00998e-05
4.00977e-05
4.00954e-05
4.00935e-05
4.00922e-05
4.00911e-05
4.00901e-05
4.00893e-05
4.00886e-05
4.00881e-05
4.00876e-05
4.00872e-05
4.0087e-05
4.00868e-05
4.00867e-05
4.00866e-05
4.00866e-05
4.00865e-05
4.00865e-05
4.00865e-05
4.00864e-05
4.00864e-05
4.00864e-05
4.00862e-05
4.00859e-05
4.00854e-05
4.00847e-05
4.00838e-05
4.00826e-05
4.00812e-05
4.00795e-05
4.00776e-05
4.00752e-05
4.00722e-05
4.00681e-05
4.00631e-05
4.00573e-05
4.00516e-05
4.00468e-05
4.00422e-05
4.00365e-05
4.00297e-05
4.00227e-05
4.00151e-05
4.00086e-05
4.00091e-05
4.00132e-05
4.00261e-05
4.00294e-05
4.00641e-05
0.21779
0.26914
0.303782
0.326764
0.347898
0.366373
0.368531
0.346283
0.296144
0.219072
0.124842
0.0439079
0.00721425
0.000803194
4.27566e-06
9.76248e-07
0
3.37999e-07
1.58126e-06
1.98504e-05
3.38023e-05
3.9642e-05
4.08828e-05
4.06524e-05
4.0302e-05
4.01307e-05
4.00881e-05
4.00912e-05
4.00987e-05
4.01006e-05
4.00988e-05
4.00964e-05
4.00945e-05
4.00931e-05
4.00921e-05
4.00911e-05
4.00903e-05
4.00896e-05
4.0089e-05
4.00886e-05
4.00882e-05
4.00879e-05
4.00877e-05
4.00876e-05
4.00875e-05
4.00875e-05
4.00875e-05
4.00874e-05
4.00874e-05
4.00873e-05
4.00873e-05
4.00873e-05
4.00872e-05
4.00869e-05
4.00864e-05
4.00857e-05
4.00848e-05
4.00837e-05
4.00822e-05
4.00806e-05
4.00786e-05
4.00763e-05
4.00732e-05
4.00692e-05
4.00642e-05
4.00584e-05
4.00525e-05
4.00477e-05
4.0043e-05
4.00373e-05
4.00305e-05
4.00234e-05
4.00156e-05
4.00088e-05
4.0009e-05
4.00131e-05
4.00259e-05
4.00293e-05
0.20266
0.258525
0.300407
0.328233
0.34652
0.362704
0.374801
0.371356
0.34426
0.289383
0.207411
0.11058
0.0326095
0.000694902
0.000196746
0
0
0
3.39547e-06
1.56629e-05
3.08594e-05
3.8658e-05
4.08547e-05
4.08158e-05
4.03913e-05
4.01529e-05
4.00883e-05
4.00888e-05
4.00978e-05
4.01013e-05
4.01002e-05
4.00978e-05
4.00958e-05
4.00944e-05
4.00933e-05
4.00924e-05
4.00915e-05
4.00908e-05
4.00902e-05
4.00897e-05
4.00893e-05
4.0089e-05
4.00888e-05
4.00886e-05
4.00886e-05
4.00885e-05
4.00885e-05
4.00885e-05
4.00885e-05
4.00884e-05
4.00884e-05
4.00884e-05
4.00883e-05
4.0088e-05
4.00875e-05
4.00868e-05
4.00859e-05
4.00848e-05
4.00834e-05
4.00817e-05
4.00797e-05
4.00774e-05
4.00744e-05
4.00703e-05
4.00653e-05
4.00594e-05
4.00535e-05
4.00486e-05
4.00439e-05
4.00381e-05
4.00312e-05
4.0024e-05
4.00162e-05
4.00091e-05
4.00089e-05
4.00131e-05
4.00257e-05
0.172715
0.232711
0.281662
0.317718
0.341526
0.356924
0.369869
0.378299
0.372104
0.343197
0.286806
0.20324
0.10613
0.0278158
0.00147359
0.000400619
0
0
0
5.72007e-06
2.44903e-05
3.75071e-05
4.08273e-05
4.09534e-05
4.05348e-05
4.02148e-05
4.00922e-05
4.00824e-05
4.00958e-05
4.01018e-05
4.01016e-05
4.00994e-05
4.00974e-05
4.00958e-05
4.00947e-05
4.00937e-05
4.00929e-05
4.00921e-05
4.00915e-05
4.00909e-05
4.00905e-05
4.00902e-05
4.009e-05
4.00898e-05
4.00897e-05
4.00897e-05
4.00896e-05
4.00896e-05
4.00896e-05
4.00895e-05
4.00895e-05
4.00895e-05
4.00894e-05
4.00891e-05
4.00887e-05
4.0088e-05
4.00871e-05
4.0086e-05
4.00845e-05
4.00829e-05
4.00809e-05
4.00786e-05
4.00756e-05
4.00716e-05
4.00665e-05
4.00605e-05
4.00546e-05
4.00496e-05
4.00448e-05
4.0039e-05
4.00321e-05
4.00247e-05
4.00169e-05
4.00094e-05
4.00088e-05
4.0013e-05
0.130129
0.193671
0.249312
0.294154
0.327074
0.348799
0.362587
0.373397
0.379787
0.372523
0.343477
0.287303
0.204076
0.106421
0.0305251
0.00245608
0.000584965
0
0
0
6.87268e-06
2.8593e-05
4.08217e-05
4.16492e-05
4.07084e-05
4.0276e-05
4.01272e-05
4.00817e-05
4.00888e-05
4.01018e-05
4.01041e-05
4.01014e-05
4.00989e-05
4.00973e-05
4.00962e-05
4.00952e-05
4.00943e-05
4.00935e-05
4.00928e-05
4.00923e-05
4.00918e-05
4.00915e-05
4.00912e-05
4.0091e-05
4.00909e-05
4.00909e-05
4.00908e-05
4.00908e-05
4.00908e-05
4.00907e-05
4.00907e-05
4.00907e-05
4.00906e-05
4.00903e-05
4.00899e-05
4.00893e-05
4.00884e-05
4.00872e-05
4.00858e-05
4.00841e-05
4.00822e-05
4.00798e-05
4.00768e-05
4.00728e-05
4.00678e-05
4.00617e-05
4.00557e-05
4.00506e-05
4.00458e-05
4.00399e-05
4.0033e-05
4.00254e-05
4.00175e-05
4.00097e-05
0.078835
0.142575
0.203876
0.257079
0.299948
0.33157
0.352541
0.365597
0.374965
0.380293
0.373007
0.344887
0.29011
0.207969
0.111179
0.0360006
0.000751011
0.000206964
0
0
0
7.55133e-06
3.11685e-05
4.26362e-05
4.21005e-05
4.04176e-05
4.00564e-05
4.00874e-05
4.00909e-05
4.0092e-05
4.01015e-05
4.01044e-05
4.01017e-05
4.00991e-05
4.00977e-05
4.00967e-05
4.00958e-05
4.0095e-05
4.00943e-05
4.00937e-05
4.00932e-05
4.00928e-05
4.00925e-05
4.00923e-05
4.00922e-05
4.00921e-05
4.00921e-05
4.00921e-05
4.00921e-05
4.0092e-05
4.0092e-05
4.00919e-05
4.00919e-05
4.00916e-05
4.00912e-05
4.00906e-05
4.00897e-05
4.00885e-05
4.00871e-05
4.00854e-05
4.00835e-05
4.00811e-05
4.00782e-05
4.00742e-05
4.00691e-05
4.0063e-05
4.00569e-05
4.00517e-05
4.00469e-05
4.00409e-05
4.00339e-05
4.00262e-05
0.0299702
0.0828534
0.145788
0.206045
0.25848
0.300994
0.332663
0.353873
0.366863
0.375284
0.380189
0.37358
0.347117
0.294501
0.214345
0.119831
0.0403529
0.00135984
0.000410126
0
0
0
7.24452e-06
2.93455e-05
4.32949e-05
4.26365e-05
4.02732e-05
3.9877e-05
4.00825e-05
4.01325e-05
4.01062e-05
4.00991e-05
4.0102e-05
4.01016e-05
4.00997e-05
4.00984e-05
4.00974e-05
4.00966e-05
4.00958e-05
4.00952e-05
4.00946e-05
4.00942e-05
4.00939e-05
4.00937e-05
4.00935e-05
4.00935e-05
4.00934e-05
4.00934e-05
4.00934e-05
4.00933e-05
4.00933e-05
4.00933e-05
4.00932e-05
4.0093e-05
4.00925e-05
4.00919e-05
4.00911e-05
4.00899e-05
4.00885e-05
4.00868e-05
4.00848e-05
4.00825e-05
4.00796e-05
4.00756e-05
4.00705e-05
4.00644e-05
4.00581e-05
4.00528e-05
4.0048e-05
0.00321404
0.0283056
0.079404
0.141504
0.201847
0.254861
0.298269
0.331036
0.353282
0.366759
0.374613
0.379507
0.374049
0.349785
0.299901
0.222897
0.129847
0.0472574
0.00387179
0.0010867
0
0
0
5.92307e-06
2.34128e-05
4.26057e-05
4.34183e-05
4.03291e-05
3.96081e-05
3.99717e-05
4.01483e-05
4.01287e-05
4.01028e-05
4.01004e-05
4.01014e-05
4.01005e-05
4.00992e-05
4.00983e-05
4.00975e-05
4.00968e-05
4.00962e-05
4.00957e-05
4.00954e-05
4.00951e-05
4.00949e-05
4.00948e-05
4.00948e-05
4.00948e-05
4.00948e-05
4.00947e-05
4.00947e-05
4.00946e-05
4.00946e-05
4.00944e-05
4.0094e-05
4.00934e-05
4.00925e-05
4.00914e-05
4.009e-05
4.00883e-05
4.00863e-05
4.0084e-05
4.0081e-05
4.00771e-05
4.0072e-05
4.00658e-05
0.000424464
0.00167973
0.0228208
0.0700111
0.130993
0.192188
0.24685
0.29219
0.326944
0.350946
0.365507
0.37352
0.37849
0.374354
0.352603
0.306013
0.232461
0.140712
0.055765
0.00776952
0.00211295
0
0
0
3.6042e-06
1.34079e-05
4.01409e-05
4.48175e-05
4.12912e-05
3.96789e-05
3.98549e-05
4.01168e-05
4.01383e-05
4.01084e-05
4.01006e-05
4.01015e-05
4.01012e-05
4.01001e-05
4.00992e-05
4.00985e-05
4.00978e-05
4.00973e-05
4.00969e-05
4.00966e-05
4.00964e-05
4.00963e-05
4.00962e-05
4.00962e-05
4.00962e-05
4.00962e-05
4.00961e-05
4.00961e-05
4.0096e-05
4.00958e-05
4.00955e-05
4.00949e-05
4.0094e-05
4.00929e-05
4.00915e-05
4.00898e-05
4.00878e-05
4.00855e-05
0
9.70353e-05
0.000344408
0.0164701
0.0571372
0.115582
0.177706
0.234739
0.282875
0.320436
0.346956
0.363387
0.372521
0.377531
0.374649
0.355506
0.312494
0.242426
0.152325
0.0655129
0.012875
0.00344673
2.27656e-05
0
0
4.36303e-07
2.3596e-08
3.27916e-05
4.39336e-05
4.20305e-05
3.99648e-05
3.98295e-05
4.00851e-05
4.01397e-05
4.01136e-05
4.01026e-05
4.01027e-05
4.01023e-05
4.01011e-05
4.01002e-05
4.00995e-05
4.0099e-05
4.00986e-05
4.00982e-05
4.0098e-05
4.00978e-05
4.00978e-05
4.00977e-05
4.00977e-05
4.00977e-05
4.00976e-05
4.00976e-05
4.00975e-05
4.00974e-05
4.0097e-05
4.00964e-05
4.00956e-05
0
0
3.38682e-06
0.00245409
0.00978098
0.0427869
0.0967959
0.159067
0.218723
0.27032
0.311458
0.341283
0.360392
0.371123
0.37637
0.374783
0.358332
0.318975
0.252521
0.164402
0.0761724
0.0191467
0.000856345
0.000199321
0
0
7.62156e-10
7.33212e-06
2.94662e-05
4.27563e-05
4.23743e-05
4.01933e-05
3.98168e-05
4.00544e-05
4.01354e-05
4.01138e-05
4.01019e-05
4.01033e-05
4.01038e-05
4.01027e-05
4.01016e-05
4.01008e-05
4.01003e-05
4.00999e-05
4.00996e-05
4.00995e-05
4.00994e-05
4.00993e-05
4.00993e-05
4.00993e-05
8.72257e-06
3.11811e-08
0
0
0.00119372
0.00467816
0.0287917
0.0763134
0.137216
0.199173
0.25461
0.299957
0.333772
0.356187
0.368986
0.374742
0.374531
0.360833
0.325207
0.262516
0.176668
0.0878362
0.0264146
0.000133649
7.36327e-05
0
0
0
6.30495e-06
2.51344e-05
4.15214e-05
4.27452e-05
4.0427e-05
3.98034e-05
4.00361e-05
4.01493e-05
4.01242e-05
4.01029e-05
)
;

boundaryField
{
    inlet
    {
        type            freestream;
        freestreamValue uniform 4e-05;
        value           nonuniform List<scalar> 
11
(
4.00602e-05
4.00605e-05
4.00607e-05
4.00608e-05
4.00608e-05
4.00607e-05
4.00609e-05
4.00614e-05
4.00623e-05
4.0063e-05
4.00634e-05
)
;
    }
    outlet
    {
        type            freestream;
        freestreamValue nonuniform List<scalar> 0();
        value           nonuniform List<scalar> 0();
    }
    walls
    {
        type            fixedValue;
        value           uniform 0;
    }
    frontAndBack
    {
        type            empty;
    }
    procBoundary6to2
    {
        type            processor;
        value           nonuniform List<scalar> 
13
(
0.12658
0.149855
0.151237
0.135163
0.104401
0.0649656
0.0258196
0.0029757
0.000805309
0
0
8.05159e-06
3.49709e-05
)
;
    }
    procBoundary6to3
    {
        type            processor;
        value           uniform 3.80324e-05;
    }
    procBoundary6to5
    {
        type            processor;
        value           nonuniform List<scalar> 
86
(
0.0927944
0.159339
0.203441
0.193212
0.124118
0.0380793
0.00167686
0.000387926
0
0
8.67146e-06
3.56421e-05
4.4106e-05
4.10807e-05
3.91795e-05
3.95237e-05
4.02251e-05
4.04473e-05
4.03256e-05
4.01569e-05
4.00676e-05
4.00498e-05
4.00607e-05
4.00728e-05
4.00783e-05
4.00789e-05
4.00778e-05
4.00767e-05
4.0076e-05
4.00757e-05
4.00755e-05
4.00754e-05
4.00754e-05
4.00754e-05
4.00742e-05
4.00744e-05
4.00746e-05
4.00749e-05
4.00752e-05
4.00756e-05
4.0076e-05
4.00764e-05
4.00767e-05
4.00771e-05
4.00775e-05
4.00778e-05
4.00778e-05
4.00773e-05
4.00775e-05
4.00776e-05
4.00776e-05
4.00776e-05
4.00774e-05
4.0077e-05
4.00765e-05
4.00758e-05
4.00758e-05
4.00739e-05
4.00728e-05
4.00715e-05
4.00699e-05
4.00682e-05
4.00661e-05
4.00635e-05
4.00635e-05
4.00589e-05
4.00547e-05
4.005e-05
4.00452e-05
4.00403e-05
4.00354e-05
4.00308e-05
4.00308e-05
4.00249e-05
4.00201e-05
4.00151e-05
4.00103e-05
4.00063e-05
4.00072e-05
4.00125e-05
4.00186e-05
4.00259e-05
4.00259e-05
4.00315e-05
4.00412e-05
4.00596e-05
)
;
    }
    procBoundary6to7
    {
        type            processor;
        value           nonuniform List<scalar> 
91
(
4.00638e-05
4.00638e-05
4.00652e-05
4.00652e-05
4.00292e-05
4.00292e-05
4.00255e-05
4.00087e-05
4.00255e-05
4.00129e-05
4.00182e-05
4.00087e-05
4.00101e-05
4.0042e-05
4.00349e-05
4.00182e-05
4.00271e-05
4.00594e-05
4.00541e-05
4.0042e-05
4.00492e-05
4.00826e-05
4.00787e-05
4.00736e-05
4.00594e-05
4.00673e-05
4.00945e-05
4.00931e-05
4.00914e-05
4.00894e-05
4.00826e-05
4.00871e-05
4.00992e-05
4.00992e-05
4.00991e-05
4.0099e-05
4.00986e-05
4.00981e-05
4.00945e-05
4.00973e-05
4.01022e-05
4.01035e-05
4.01032e-05
4.01027e-05
4.01023e-05
4.01018e-05
4.01014e-05
4.01012e-05
4.01011e-05
4.0101e-05
4.0101e-05
4.00992e-05
4.01009e-05
3.67452e-06
9.85501e-07
0
0
0.000155574
0.00045718
0.016113
0.0551974
0.11267
0.176094
0.235518
0.285626
0.324083
0.350423
0.365821
0.372625
0.373756
0.362759
0.330902
0.272113
0.188981
0.0997089
0.0326463
0.00160745
0.000467012
0
0
0
4.96367e-06
1.94693e-05
4.01911e-05
4.33091e-05
4.07e-05
3.96917e-05
3.9932e-05
4.01358e-05
4.01022e-05
4.01372e-05
)
;
    }
}


// ************************************************************************* //
