/*--------------------------------*- C++ -*----------------------------------*\
| =========                 |                                                 |
| \\      /  F ield         | OpenFOAM: The Open Source CFD Toolbox           |
|  \\    /   O peration     | Version:  2506                                  |
|   \\  /    A nd           | Website:  www.openfoam.com                      |
|    \\/     M anipulation  |                                                 |
\*---------------------------------------------------------------------------*/
FoamFile
{
    version     2.0;
    format      ascii;
    arch        "LSB;label=32;scalar=64";
    class       volScalarField;
    location    "450";
    object      turbulenceProperties:epsilon;
}
// * * * * * * * * * * * * * * * * * * * * * * * * * * * * * * * * * * * * * //

dimensions      [0 2 -3 0 0 0 0];

internalField   nonuniform List<scalar> 
1340
(
334.416
232.368
145.743
16.2699
26.5009
21.7451
17.5736
20.2074
31.9652
23.9921
16.9414
20.4959
32.3897
26.5968
19.7617
21.4744
16.8968
21.0066
19.7613
21.8249
1.65886
7.51664
13.9867
19.8674
0.033717
0.415746
4.90173
14.1057
0.0241499
0.027309
0.465617
6.38581
0
0.00985574
0.0257067
1.52167
0
9.66447e-09
0.000589151
0.19002
0
0
0.000480165
0.0275282
2.91238e-09
0
0.000104209
0.00838505
1.21325e-06
6.52484e-13
3.11355e-05
0.00278697
4.79282e-06
2.42388e-12
5.73418e-07
0.000699995
4.23084e-06
1.09434e-06
4.93506e-11
4.35687e-05
2.75972e-06
3.79098e-06
4.43773e-12
3.56371e-07
2.11921e-06
4.56077e-06
3.28354e-11
4.86344e-18
2.00549e-06
3.35431e-06
4.70764e-07
7.99984e-11
2.03155e-06
2.28225e-06
2.01123e-06
2.18272e-08
2.00282e-06
1.78703e-06
2.30382e-06
5.01429e-07
1.89219e-06
1.60545e-06
1.87759e-06
1.25104e-06
1.74222e-06
1.51413e-06
1.48852e-06
1.45878e-06
1.58846e-06
1.41839e-06
1.25589e-06
1.31565e-06
1.44398e-06
1.30296e-06
1.11222e-06
1.11365e-06
1.30974e-06
1.17961e-06
1.00078e-06
9.44109e-07
1.18337e-06
1.05901e-06
8.98448e-07
8.10077e-07
1.06391e-06
9.4596e-07
8.01056e-07
6.99822e-07
9.51337e-07
8.41212e-07
7.09798e-07
6.05783e-07
8.45779e-07
7.44463e-07
6.25625e-07
5.24142e-07
7.47769e-07
6.5565e-07
5.49047e-07
4.53145e-07
6.57515e-07
5.74594e-07
4.79687e-07
3.91345e-07
5.74871e-07
5.01131e-07
4.17433e-07
3.37536e-07
4.99872e-07
4.34854e-07
3.61732e-07
2.90761e-07
4.86459e-07
4.32297e-07
3.75589e-07
3.12161e-07
2.50033e-07
4.18012e-07
3.71839e-07
3.22907e-07
2.68376e-07
2.14612e-07
3.57172e-07
3.18188e-07
2.76337e-07
2.2987e-07
1.83851e-07
3.03534e-07
2.70887e-07
2.35432e-07
1.96168e-07
1.57157e-07
2.56612e-07
2.29491e-07
1.99728e-07
1.66817e-07
1.34035e-07
2.15854e-07
1.93509e-07
1.68748e-07
1.41388e-07
1.14047e-07
1.80707e-07
1.62437e-07
1.42001e-07
1.19444e-07
9.68074e-08
1.50607e-07
1.35778e-07
1.19047e-07
1.00585e-07
8.19693e-08
1.24995e-07
1.13041e-07
9.94472e-08
8.44489e-08
6.92313e-08
1.03335e-07
9.37603e-08
8.27933e-08
7.06916e-08
5.8327e-08
8.51242e-08
7.75026e-08
6.87092e-08
5.90119e-08
4.9013e-08
6.98928e-08
6.38614e-08
5.68544e-08
4.91293e-08
4.10845e-08
6.12329e-08
5.72195e-08
5.24676e-08
4.69158e-08
4.0796e-08
3.43542e-08
4.9856e-08
4.67225e-08
4.29965e-08
3.86183e-08
3.37947e-08
2.86573e-08
4.05028e-08
3.8063e-08
3.51533e-08
3.17162e-08
2.79322e-08
2.38499e-08
3.28419e-08
3.09476e-08
2.86826e-08
2.59942e-08
2.30375e-08
1.9805e-08
2.65881e-08
2.51198e-08
2.33618e-08
2.12665e-08
1.89636e-08
1.64124e-08
2.14981e-08
2.0362e-08
1.9e-08
1.73708e-08
1.55825e-08
1.35746e-08
1.73652e-08
1.64871e-08
1.54339e-08
1.41699e-08
1.27841e-08
1.12074e-08
1.40172e-08
1.33386e-08
1.25249e-08
1.15458e-08
1.04738e-08
9.23838e-09
1.13098e-08
1.07853e-08
1.0157e-08
9.39925e-09
8.5707e-09
7.60451e-09
9.45352e-09
9.12342e-09
8.71791e-09
8.23267e-09
7.64654e-09
7.00647e-09
6.25196e-09
7.61646e-09
7.35991e-09
7.04594e-09
6.67108e-09
6.21772e-09
5.72317e-09
5.13468e-09
6.13868e-09
5.93891e-09
5.69543e-09
5.40539e-09
5.05448e-09
4.67211e-09
4.2135e-09
4.95074e-09
4.79471e-09
4.60542e-09
4.3806e-09
4.10858e-09
3.81256e-09
3.45542e-09
3.99607e-09
3.8738e-09
3.72619e-09
3.55149e-09
3.34031e-09
3.11065e-09
2.83252e-09
3.22831e-09
3.13228e-09
3.01693e-09
2.88088e-09
2.71659e-09
2.53801e-09
2.32143e-09
2.60935e-09
2.53398e-09
2.44386e-09
2.33788e-09
2.21003e-09
2.07098e-09
1.90244e-09
2.15751e-09
2.10848e-09
2.04953e-09
1.97933e-09
1.89699e-09
1.79767e-09
1.68948e-09
1.55869e-09
1.74113e-09
1.70252e-09
1.65644e-09
1.60184e-09
1.53799e-09
1.46106e-09
1.37708e-09
1.27608e-09
1.40484e-09
1.37413e-09
1.33785e-09
1.29518e-09
1.24555e-09
1.18595e-09
1.12081e-09
1.04306e-09
1.13491e-09
1.11007e-09
1.08108e-09
1.04735e-09
1.00844e-09
9.6198e-10
9.11281e-10
8.51524e-10
9.17853e-10
8.9734e-10
8.73711e-10
8.46593e-10
8.15609e-10
7.78907e-10
7.38993e-10
6.92674e-10
7.49906e-10
7.33039e-10
7.13723e-10
6.91707e-10
6.66711e-10
6.37112e-10
6.05018e-10
5.68108e-10
6.28131e-10
6.13948e-10
5.97872e-10
5.79684e-10
5.59052e-10
5.34531e-10
5.07974e-10
4.7912e-10
5.42712e-10
5.31999e-10
5.18974e-10
5.04631e-10
4.88869e-10
4.71231e-10
4.50546e-10
4.27849e-10
4.04273e-10
4.63128e-10
4.53372e-10
4.4151e-10
4.28516e-10
4.14402e-10
3.98782e-10
3.80836e-10
3.61639e-10
3.43552e-10
3.86497e-10
3.77327e-10
3.66512e-10
3.5481e-10
3.42277e-10
3.28561e-10
3.12818e-10
2.95223e-10
2.77308e-10
3.2972e-10
3.22013e-10
3.12794e-10
3.02629e-10
2.91604e-10
2.79619e-10
2.66351e-10
2.53076e-10
2.43123e-10
2.57725e-10
2.50129e-10
2.41674e-10
2.3277e-10
2.23439e-10
2.13283e-10
2.01374e-10
1.86904e-10
1.71308e-10
2.36577e-10
2.30536e-10
2.23333e-10
2.15308e-10
2.06712e-10
1.97805e-10
1.89084e-10
1.82699e-10
1.82286e-10
1.54789e-10
1.49186e-10
1.43187e-10
1.36865e-10
1.30144e-10
1.22498e-10
1.12612e-10
9.9773e-11
8.53073e-11
2.03877e-10
1.99942e-10
1.94925e-10
1.88853e-10
1.82408e-10
1.76533e-10
1.73869e-10
1.78632e-10
1.91024e-10
1.23618e-10
1.23234e-10
1.21469e-10
1.18332e-10
1.14048e-10
1.08355e-10
1.00808e-10
9.65863e-11
8.909e-11
3.68952e-10
3.52239e-10
3.52563e-10
3.52697e-10
3.51865e-10
3.50848e-10
3.51933e-10
3.65406e-10
3.99314e-10
4.17229e-10
4.24559e-10
4.195e-10
4.24489e-10
4.3066e-10
4.35953e-10
4.40734e-10
4.47539e-10
4.70567e-10
5.10619e-10
5.08362e-10
1.21579e-09
8.67701e-10
8.92593e-10
9.14091e-10
9.26888e-10
9.41767e-10
9.61931e-10
1.00237e-09
1.03843e-09
7.59398e-10
59.575
10.1741
1.6872
12.1356
19.8984
21.7478
18.5383
11.4687
4.19208
0.676272
0.0458899
0.00528491
0.00188968
0.000527605
1.83308e-05
5.99045e-08
0
1.41071e-12
1.31523e-09
2.38733e-07
8.34942e-07
1.06424e-06
9.76289e-07
8.22218e-07
6.91416e-07
5.90448e-07
5.08996e-07
4.40316e-07
3.81009e-07
3.29643e-07
2.85166e-07
2.46655e-07
2.13333e-07
1.8441e-07
1.59277e-07
1.37444e-07
1.18444e-07
1.01913e-07
8.75369e-08
7.50423e-08
6.41895e-08
5.47777e-08
4.66391e-08
3.96037e-08
3.35448e-08
2.83401e-08
2.38802e-08
2.00707e-08
1.68267e-08
1.40733e-08
1.17439e-08
9.7785e-09
8.12606e-09
6.74052e-09
5.58204e-09
4.616e-09
3.81239e-09
3.14542e-09
2.59297e-09
2.13628e-09
1.75931e-09
1.44816e-09
1.19101e-09
9.77768e-10
8.01662e-10
6.54454e-10
5.37797e-10
4.55612e-10
3.83487e-10
3.29962e-10
2.60488e-10
2.38746e-10
1.54319e-10
1.89539e-10
6.72613e-11
2.10678e-10
7.13036e-11
4.16371e-10
4.3884e-10
6.68168e-10
25.2753
18.7642
3.86886
1.09074
6.21499
10.9731
12.0375
9.34195
4.62088
1.05867
0.0620613
0.00108887
0.000252349
0.000132422
8.44831e-06
6.08117e-08
0
9.28546e-14
9.05194e-11
6.47629e-08
3.128e-07
4.5002e-07
4.42011e-07
3.90586e-07
3.42133e-07
3.03341e-07
2.70893e-07
2.42187e-07
2.16164e-07
1.92585e-07
1.71308e-07
1.52168e-07
1.35004e-07
1.19587e-07
1.0574e-07
9.33282e-08
8.2191e-08
7.22171e-08
6.32951e-08
5.53261e-08
4.82193e-08
4.1897e-08
3.62947e-08
3.1334e-08
2.69633e-08
2.31263e-08
1.97679e-08
1.68411e-08
1.4301e-08
1.21054e-08
1.0216e-08
8.59613e-09
7.21332e-09
6.03751e-09
5.04141e-09
4.20064e-09
3.49337e-09
2.90029e-09
2.40437e-09
1.99086e-09
1.64686e-09
1.36092e-09
1.12321e-09
9.25012e-10
7.60556e-10
6.22556e-10
5.12167e-10
4.34022e-10
3.64306e-10
3.15e-10
2.46916e-10
2.29041e-10
1.45016e-10
1.83102e-10
6.17776e-11
2.0294e-10
6.63516e-11
3.9591e-10
4.1377e-10
10.5426
12.4296
7.09203
1.27712
0.683414
4.01651
7.22799
7.82013
5.60828
2.30631
0.354862
0.00849371
9.46646e-05
1.81794e-05
2.16764e-11
2.66716e-14
0
1.42219e-16
1.33801e-13
1.07079e-08
9.56894e-08
1.6735e-07
1.77792e-07
1.64921e-07
1.51013e-07
1.40128e-07
1.3114e-07
1.22835e-07
1.14667e-07
1.06571e-07
9.85958e-08
9.08145e-08
8.33009e-08
7.60744e-08
6.91684e-08
6.26212e-08
5.64427e-08
5.06599e-08
4.5273e-08
4.0287e-08
3.56959e-08
3.14948e-08
2.76754e-08
2.42136e-08
2.10994e-08
1.83126e-08
1.58299e-08
1.36309e-08
1.16933e-08
9.99469e-09
8.51352e-09
7.22756e-09
6.117e-09
5.16194e-09
4.34427e-09
3.64716e-09
3.05507e-09
2.55406e-09
2.13144e-09
1.77609e-09
1.47814e-09
1.2286e-09
1.01973e-09
8.4435e-10
6.97816e-10
5.74128e-10
4.74096e-10
4.03242e-10
3.3848e-10
2.94955e-10
2.3045e-10
2.1625e-10
1.35769e-10
1.73952e-10
5.88752e-11
1.93008e-10
6.56085e-11
3.7922e-10
4.87402
7.10114
6.49715
3.27561
0.479258
0.4587
2.65818
4.83869
5.24456
3.63629
1.3611
0.177953
0.0035666
7.28241e-06
4.36487e-06
0
0
0
3.1122e-12
2.72029e-09
4.6933e-08
1.05248e-07
1.19796e-07
1.1102e-07
9.96464e-08
9.11196e-08
8.47678e-08
7.93802e-08
7.43767e-08
6.95889e-08
6.49588e-08
6.04698e-08
5.61221e-08
5.18985e-08
4.77999e-08
4.38385e-08
4.00256e-08
3.63815e-08
3.29153e-08
2.96416e-08
2.65691e-08
2.37061e-08
2.10565e-08
1.86164e-08
1.63877e-08
1.43634e-08
1.25352e-08
1.08952e-08
9.43156e-09
8.13324e-09
6.98823e-09
5.98295e-09
5.10568e-09
4.34339e-09
3.68424e-09
3.11691e-09
2.6305e-09
2.21519e-09
1.8618e-09
1.56208e-09
1.30872e-09
1.09484e-09
9.14498e-10
7.6194e-10
6.33439e-10
5.24256e-10
4.34902e-10
3.72e-10
3.12793e-10
2.74949e-10
2.14272e-10
2.03489e-10
1.26915e-10
1.65039e-10
5.63167e-11
1.84168e-10
6.45073e-11
2.10799
3.79823
4.61323
3.78963
1.81214
0.244878
0.295042
1.72415
3.21745
3.54558
2.44546
0.892115
0.115728
0.00235478
9.24946e-06
4.699e-06
0
0
0
1.90427e-11
1.18021e-08
6.40398e-08
8.30685e-08
7.89149e-08
7.12416e-08
6.47899e-08
5.99305e-08
5.59589e-08
5.23266e-08
4.88674e-08
4.55634e-08
4.24161e-08
3.94194e-08
3.6557e-08
3.3815e-08
3.11857e-08
2.86664e-08
2.62591e-08
2.39618e-08
2.17782e-08
1.97118e-08
1.7766e-08
1.59436e-08
1.42444e-08
1.26716e-08
1.12229e-08
9.89648e-09
8.69036e-09
7.59895e-09
6.61767e-09
5.74092e-09
4.96138e-09
4.27251e-09
3.6667e-09
3.13688e-09
2.67572e-09
2.27613e-09
1.9314e-09
1.6352e-09
1.38161e-09
1.1653e-09
9.81138e-10
8.24635e-10
6.91252e-10
5.77971e-10
4.81113e-10
4.0083e-10
3.44662e-10
2.90225e-10
2.57137e-10
1.99807e-10
1.91949e-10
1.18758e-10
1.57145e-10
5.35808e-11
1.77203e-10
0.695745
1.75297
2.7686
3.10412
2.45026
1.16852
0.164149
0.173414
1.11948
2.18763
2.48636
1.75045
0.66012
0.0938505
0.00265891
1.18673e-05
3.10379e-06
0
0
0
2.20736e-11
1.16898e-08
4.6003e-08
4.75998e-08
4.1882e-08
3.84632e-08
3.62243e-08
3.43849e-08
3.27329e-08
3.11154e-08
2.94804e-08
2.78448e-08
2.62269e-08
2.46328e-08
2.30626e-08
2.15193e-08
2.00093e-08
1.85387e-08
1.71103e-08
1.57293e-08
1.44015e-08
1.31299e-08
1.19192e-08
1.07723e-08
9.69293e-09
8.68235e-09
7.74227e-09
6.87379e-09
6.07552e-09
5.3468e-09
4.68607e-09
4.09019e-09
3.55627e-09
3.08044e-09
2.65904e-09
2.28772e-09
1.96222e-09
1.67828e-09
1.43171e-09
1.21847e-09
1.03481e-09
8.7703e-10
7.41821e-10
6.25695e-10
5.26225e-10
4.40638e-10
3.68687e-10
3.18613e-10
2.68606e-10
2.39844e-10
1.85817e-10
1.80657e-10
1.10775e-10
1.49487e-10
0.125815
0.585383
1.33283
1.99955
2.18809
1.72848
0.855352
0.139287
0.0883377
0.717391
1.5075
1.79411
1.31915
0.533477
0.0882705
0.00367274
4.00757e-06
5.26626e-07
0
0
0
2.0535e-11
9.93633e-09
3.175e-08
2.90087e-08
2.38134e-08
2.19787e-08
2.1091e-08
2.02189e-08
1.93876e-08
1.85981e-08
1.78074e-08
1.70072e-08
1.6202e-08
1.53881e-08
1.45629e-08
1.37293e-08
1.28921e-08
1.20549e-08
1.12235e-08
1.04035e-08
9.59944e-09
8.81729e-09
8.06114e-09
7.33535e-09
6.64362e-09
5.98889e-09
5.3738e-09
4.79942e-09
4.267e-09
3.77709e-09
3.32895e-09
2.92192e-09
2.55438e-09
2.22475e-09
1.93074e-09
1.67001e-09
1.44002e-09
1.23814e-09
1.06172e-09
9.08266e-10
7.75194e-10
6.60145e-10
5.60541e-10
4.7443e-10
3.99849e-10
3.36151e-10
2.92116e-10
2.46621e-10
2.22111e-10
1.71598e-10
1.69075e-10
0.0058323
0.0980929
0.431979
0.967575
1.45006
1.60392
1.3038
0.689277
0.14038
0.0355234
0.444561
1.03818
1.31524
1.02738
0.453992
0.0892816
0.00483984
9.19454e-06
5.05497e-07
0
0
0
1.15173e-11
5.13297e-09
2.18865e-08
1.97479e-08
1.5255e-08
1.39877e-08
1.36088e-08
1.30893e-08
1.25207e-08
1.2004e-08
1.15152e-08
1.10315e-08
1.05469e-08
1.00581e-08
9.56255e-09
9.0608e-09
8.55276e-09
8.04058e-09
7.52686e-09
7.01442e-09
6.50731e-09
6.00863e-09
5.52189e-09
5.05058e-09
4.59741e-09
4.16523e-09
3.75573e-09
3.37081e-09
3.01172e-09
2.67888e-09
2.37276e-09
2.09283e-09
1.83875e-09
1.60949e-09
1.40387e-09
1.22051e-09
1.05783e-09
9.14203e-10
7.88008e-10
6.77528e-10
5.8113e-10
4.96993e-10
4.23522e-10
3.59472e-10
3.03801e-10
2.6567e-10
2.24694e-10
4.02827e-06
0.00331287
0.0619399
0.289699
0.677915
1.05248
1.20647
1.02832
0.591195
0.153427
0.00949843
0.261524
0.708932
0.973233
0.817554
0.398852
0.0922202
0.00653199
3.51556e-05
6.41708e-07
0
0
0
3.1792e-12
1.31556e-09
1.35288e-08
1.37778e-08
1.00722e-08
8.9868e-09
8.89622e-09
8.68261e-09
8.33585e-09
8.00057e-09
7.69165e-09
7.38798e-09
7.08086e-09
6.7688e-09
6.45213e-09
6.13008e-09
5.80318e-09
5.47246e-09
5.13937e-09
4.80603e-09
4.4744e-09
4.14674e-09
3.82535e-09
3.51234e-09
3.21007e-09
2.91993e-09
2.64375e-09
2.38291e-09
2.1381e-09
1.91029e-09
1.69949e-09
1.50592e-09
1.32933e-09
1.16918e-09
1.02485e-09
8.95462e-10
7.80032e-10
6.77589e-10
5.87027e-10
5.07266e-10
4.37087e-10
3.75153e-10
3.20827e-10
1.85511e-06
1.13705e-06
0.00124848
0.0323082
0.177053
0.45654
0.757579
0.918151
0.832111
0.524897
0.170952
0.00362422
0.142165
0.476298
0.722445
0.659263
0.356061
0.095668
0.00870544
9.71356e-05
7.02176e-07
0
0
0
2.38933e-13
7.66177e-11
7.19654e-09
1.00825e-08
7.21076e-09
5.95958e-09
5.81281e-09
5.73732e-09
5.55081e-09
5.34803e-09
5.16044e-09
4.97609e-09
4.787e-09
4.59245e-09
4.39224e-09
4.18647e-09
3.97561e-09
3.76049e-09
3.54247e-09
3.32295e-09
3.10335e-09
2.88528e-09
2.67033e-09
2.46028e-09
2.25623e-09
2.05967e-09
1.87187e-09
1.69356e-09
1.52572e-09
1.36869e-09
1.22289e-09
1.08844e-09
9.65211e-10
8.52996e-10
7.51362e-10
6.59768e-10
5.77665e-10
5.04365e-10
0
2.61302e-07
6.60067e-07
0.000301
0.0137545
0.0973754
0.292098
0.534569
0.698168
0.680536
0.472986
0.188491
0.0115686
0.0679772
0.311526
0.534267
0.534502
0.319539
0.0988375
0.0112983
0.000218997
8.7258e-07
1.14638e-10
0
0
1.30066e-17
2.18699e-23
2.2547e-09
6.32377e-09
5.16197e-09
4.11365e-09
3.90085e-09
3.85296e-09
3.74699e-09
3.62076e-09
3.50233e-09
3.38638e-09
3.26713e-09
3.14346e-09
3.0152e-09
2.88217e-09
2.74466e-09
2.60336e-09
2.4592e-09
2.31309e-09
2.16616e-09
2.01957e-09
1.8746e-09
1.73216e-09
1.59338e-09
1.4593e-09
1.33064e-09
1.20823e-09
1.0925e-09
9.83934e-10
8.82794e-10
7.89178e-10
0
0
3.93769e-13
7.78595e-06
3.1241e-05
0.00456084
0.0470667
0.17451
0.3649
0.52415
0.555737
0.426529
0.202915
0.027887
0.0256812
0.195498
0.390782
0.432724
0.286367
0.101052
0.0141873
0.000429376
2.65959e-07
2.32163e-08
0
0
3.75219e-30
2.57758e-12
1.0116e-09
3.92838e-09
3.63377e-09
2.87773e-09
2.67096e-09
2.63598e-09
2.57342e-09
2.49193e-09
2.41404e-09
2.3381e-09
2.25971e-09
2.17792e-09
2.09262e-09
2.00377e-09
1.9116e-09
1.81658e-09
1.71925e-09
1.62029e-09
1.52048e-09
1.42074e-09
1.32173e-09
1.22427e-09
1.96837e-12
8.26861e-24
0
0
4.20102e-06
8.5409e-07
0.00106826
0.0193006
0.0952989
0.237355
0.384049
0.448379
0.380978
0.211934
0.0480431
0.00568457
0.115347
0.280642
0.347967
0.255118
0.101886
0.0172872
0.000753461
6.63259e-08
6.84339e-09
0
0
0
9.57651e-13
3.64293e-10
2.43268e-09
2.57953e-09
2.03117e-09
1.84655e-09
1.82357e-09
1.78816e-09
1.73374e-09
1.68059e-09
)
;

boundaryField
{
    inlet
    {
        type            calculated;
        value           nonuniform List<scalar> 
11
(
2.38059e-08
2.13888e-08
2.24276e-08
2.34135e-08
2.43051e-08
2.51114e-08
2.5879e-08
2.66629e-08
2.76061e-08
2.55016e-08
2.83055e-08
)
;
    }
    outlet
    {
        type            calculated;
        value           nonuniform List<scalar> 0();
    }
    walls
    {
        type            calculated;
        value           uniform 0;
    }
    frontAndBack
    {
        type            empty;
    }
    procBoundary6to2
    {
        type            processor;
        value           nonuniform List<scalar> 
13
(
38.7255
11.8471
4.67928
1.9003
0.601884
0.109471
0.00572091
5.34212e-06
3.84463e-06
0
0
1.29831e-12
6.63063e-10
)
;
    }
    procBoundary6to3
    {
        type            processor;
        value           uniform 8.98578e-10;
    }
    procBoundary6to5
    {
        type            processor;
        value           nonuniform List<scalar> 
86
(
416.617
34.2679
44.1671
37.1661
9.07571
0.0463171
0.0125643
0.00113261
0
0
4.75456e-09
2.16952e-06
4.62178e-06
3.44275e-06
2.75438e-06
2.69625e-06
2.71726e-06
2.611e-06
2.42317e-06
2.22966e-06
2.0565e-06
1.89981e-06
1.75082e-06
1.60519e-06
1.46289e-06
1.32525e-06
1.19348e-06
1.06863e-06
9.51306e-07
8.41819e-07
7.40506e-07
6.47533e-07
5.62886e-07
5.62886e-07
5.38393e-07
4.61508e-07
3.93351e-07
3.33406e-07
2.81096e-07
2.35788e-07
1.96832e-07
1.63568e-07
1.35351e-07
1.11564e-07
9.16296e-08
7.50134e-08
7.50134e-08
6.4521e-08
5.24112e-08
4.24848e-08
3.43773e-08
2.77764e-08
2.24169e-08
1.8076e-08
1.45672e-08
1.17355e-08
1.17355e-08
9.71646e-09
7.82173e-09
6.29949e-09
5.0772e-09
4.09592e-09
3.30726e-09
2.67167e-09
2.67167e-09
2.1974e-09
1.77285e-09
1.43038e-09
1.15584e-09
9.35341e-10
7.64082e-10
6.3971e-10
6.3971e-10
5.52142e-10
4.71849e-10
3.94977e-10
3.37074e-10
2.65016e-10
2.43369e-10
1.59284e-10
2.1196e-10
1.19826e-10
1.19826e-10
3.14637e-10
4.20713e-10
7.01642e-10
)
;
    }
    procBoundary6to7
    {
        type            processor;
        value           nonuniform List<scalar> 
91
(
6.71409e-10
6.71409e-10
3.87683e-10
3.87683e-10
3.64613e-10
3.64613e-10
6.3484e-11
5.06885e-11
6.3484e-11
1.70844e-10
1.02682e-10
5.06885e-11
1.41702e-10
2.04283e-10
1.57405e-10
1.02682e-10
1.57397e-10
2.72683e-10
2.40095e-10
2.04283e-10
2.03467e-10
4.39188e-10
3.81387e-10
3.29809e-10
2.72683e-10
2.84314e-10
7.03077e-10
6.24334e-10
5.52665e-10
4.87783e-10
4.39188e-10
4.29303e-10
1.12919e-09
1.03707e-09
9.48576e-10
8.64123e-10
7.84171e-10
7.08989e-10
7.03077e-10
6.38776e-10
1.62965e-09
1.57713e-09
1.5219e-09
1.46397e-09
1.40336e-09
1.34029e-09
1.2751e-09
1.20823e-09
1.14018e-09
1.07154e-09
1.00284e-09
1.12919e-09
9.34634e-10
1.4443e-14
3.12735e-17
0
0
4.3718e-07
6.35344e-07
0.000134378
0.00628712
0.0460455
0.144242
0.270948
0.353832
0.33422
0.21419
0.0683873
0.00075803
0.0619729
0.196277
0.276624
0.22512
0.101176
0.020315
0.00114063
1.63569e-06
7.93823e-08
0
0
0
2.43918e-13
8.59369e-11
1.49344e-09
1.86237e-09
1.44254e-09
1.27065e-09
1.25811e-09
1.24587e-09
1.62965e-09
1.21255e-09
)
;
    }
}


// ************************************************************************* //
