/*--------------------------------*- C++ -*----------------------------------*\
| =========                 |                                                 |
| \\      /  F ield         | OpenFOAM: The Open Source CFD Toolbox           |
|  \\    /   O peration     | Version:  2506                                  |
|   \\  /    A nd           | Website:  www.openfoam.com                      |
|    \\/     M anipulation  |                                                 |
\*---------------------------------------------------------------------------*/
FoamFile
{
    version     2.0;
    format      ascii;
    arch        "LSB;label=32;scalar=64";
    class       volSymmTensorField;
    location    "450";
    object      turbulenceProperties:devReff;
}
// * * * * * * * * * * * * * * * * * * * * * * * * * * * * * * * * * * * * * //

dimensions      [0 2 -2 0 0 0 0];

internalField   nonuniform List<symmTensor> 
1340
(
(-2.43552 -7.22759 1.22005e-15 2.42451 1.14394e-15 0.0110177)
(-2.0742 -5.67387 -1.2241e-16 2.06075 -5.25102e-16 0.013444)
(-1.5867 -4.17192 -1.51869e-15 1.58498 -2.44189e-17 0.00171742)
(-0.472651 -0.926836 -1.88616e-16 0.473441 -1.90331e-15 -0.000789787)
(-0.781582 -2.7435 3.42272e-15 0.802068 -4.99323e-15 -0.0204863)
(-0.730872 -2.43229 -1.50361e-15 0.744245 1.52303e-15 -0.0133726)
(-0.560385 -2.13709 3.24928e-15 0.595677 4.02394e-16 -0.0352919)
(-0.787297 -2.25523 5.36288e-15 0.698341 7.29121e-15 0.0889562)
(-0.878527 -3.52382 -1.43662e-14 0.881506 5.20347e-16 -0.00297877)
(-0.79862 -3.05356 4.95832e-15 0.797698 -1.62565e-15 0.0009215)
(-0.531519 -2.55653 5.13627e-15 0.547602 -1.52196e-15 -0.0160828)
(-0.843967 -2.81471 -1.00221e-14 0.825963 2.90317e-15 0.0180036)
(-0.792829 -3.65036 4.79345e-15 0.790299 4.8948e-15 0.00252996)
(-0.801243 -3.42065 -1.01676e-14 0.796562 -1.30317e-16 0.0046813)
(-0.573911 -3.01946 -1.30266e-14 0.584259 1.88158e-15 -0.0103477)
(-0.814707 -3.21256 9.21233e-15 0.786367 -3.43376e-15 0.0283394)
(-0.400685 -2.39905 -9.96018e-16 0.401395 4.27479e-16 -0.00070992)
(-0.585969 -2.9638 -1.7501e-15 0.582005 3.98551e-15 0.00396353)
(-0.525483 -3.08579 6.73244e-16 0.536115 2.44289e-16 -0.0106321)
(-0.77331 -3.40215 -1.72602e-14 0.73582 4.31266e-15 0.0374902)
(-0.0172981 -0.5561 2.8088e-15 0.0189139 -1.65253e-15 -0.00161581)
(-0.202949 -1.5397 1.02204e-14 0.202155 -1.62756e-15 0.000794101)
(-0.331943 -2.4804 5.21591e-16 0.342268 -9.15639e-17 -0.010325)
(-0.674507 -3.25973 3.62091e-15 0.638199 -3.41169e-15 0.0363083)
(0.0293745 0.0246171 -1.26826e-15 -0.0293335 3.23099e-16 -4.10544e-05)
(0.0319428 -0.25305 -1.31445e-15 -0.0326712 -8.03977e-16 0.000728442)
(-0.0703554 -1.27437 1.17126e-15 0.0780086 -2.67178e-16 -0.0076532)
(-0.474605 -2.62784 3.10454e-15 0.444145 -8.99968e-16 0.0304594)
(0.00843462 0.0138513 3.33048e-16 -0.00842219 8.23646e-18 -1.24261e-05)
(0.0218259 0.020043 -3.92493e-16 -0.0221181 1.32869e-16 0.000292246)
(0.0620963 -0.283874 -1.87204e-15 -0.0589492 3.44403e-16 -0.00314717)
(-0.216822 -1.58492 9.83809e-15 0.193452 -5.71896e-16 0.0233695)
(1.14782e-05 8.02651e-06 -2.22833e-19 -1.1432e-05 -9.5254e-20 -4.62483e-08)
(0.0057232 0.00737222 8.67985e-17 -0.00580011 -7.42026e-18 7.69061e-05)
(0.0399829 0.00325264 1.89001e-15 -0.0390352 -2.29371e-16 -0.000947706)
(-0.0285275 -0.635163 -4.57606e-15 0.0125518 1.49214e-15 0.0159757)
(9.17208e-06 -3.2026e-06 1.0468e-19 -9.11983e-06 5.19385e-20 -5.225e-08)
(9.20381e-06 3.0306e-06 -1.77132e-19 -9.36733e-06 2.6149e-20 1.63522e-07)
(0.000614418 0.000440848 -9.43096e-18 -0.000598009 4.06491e-19 -1.64091e-05)
(0.0321216 -0.161293 -3.49687e-15 -0.0410056 1.50051e-16 0.008884)
(8.92075e-06 -3.75053e-06 7.08045e-20 -8.86727e-06 -1.03571e-20 -5.34843e-08)
(7.49447e-06 -5.22251e-06 2.38808e-19 -7.62797e-06 1.66182e-20 1.33501e-07)
(0.000848093 0.000302994 -5.80185e-18 -0.000820952 1.14446e-18 -2.71409e-05)
(0.0253491 -0.0325305 5.75956e-16 -0.0291859 -2.58729e-16 0.00383673)
(9.05545e-06 -1.52263e-06 8.26402e-20 -9.01171e-06 -8.45627e-20 -4.37407e-08)
(7.63537e-06 -5.63379e-06 1.49056e-19 -7.74613e-06 -4.64341e-20 1.10764e-07)
(0.000243082 -7.52861e-05 1.32484e-18 -0.000234675 -2.33818e-19 -8.40765e-06)
(0.0105463 -0.00949985 6.11134e-16 -0.0118949 -1.80276e-17 0.00134859)
(1.11785e-05 -5.04151e-07 -4.303e-19 -1.11328e-05 1.19768e-19 -4.57617e-08)
(8.02832e-06 -3.65446e-06 -1.00291e-20 -8.13551e-06 -4.39591e-20 1.07186e-07)
(6.21881e-05 -4.03486e-05 -1.61816e-18 -6.0124e-05 1.25726e-19 -2.06403e-06)
(0.00315428 -0.00356788 -2.21955e-16 -0.00354819 2.18906e-17 0.000393919)
(1.7369e-05 -6.56297e-07 9.44679e-19 -1.73019e-05 -7.73049e-20 -6.71716e-08)
(8.06038e-06 -2.41599e-06 -2.50161e-19 -8.16388e-06 3.9716e-20 1.03504e-07)
(8.29122e-06 -5.19031e-06 -8.80731e-20 -8.04694e-06 2.50582e-20 -2.44285e-07)
(0.000717517 -0.000993233 6.46396e-17 -0.000804314 -6.09886e-18 8.67972e-05)
(1.63097e-05 -9.39794e-07 -7.14902e-19 -1.625e-05 -7.43526e-20 -5.96682e-08)
(9.94758e-06 -2.7117e-06 1.60941e-19 -1.00671e-05 1.52777e-20 1.19525e-07)
(7.17559e-06 -3.81981e-06 3.38353e-19 -6.99222e-06 -3.90848e-20 -1.83366e-07)
(4.71213e-05 -6.89629e-05 -5.08775e-18 -5.23817e-05 5.64374e-19 5.26041e-06)
(1.3501e-05 -8.90169e-07 7.14636e-20 -1.34561e-05 9.80093e-20 -4.48997e-08)
(1.47441e-05 -4.28107e-06 -2.96721e-20 -1.49058e-05 -2.65555e-20 1.61703e-07)
(6.93633e-06 -3.41747e-06 -3.50431e-19 -6.78142e-06 1.95612e-20 -1.5491e-07)
(5.86013e-06 -8.32574e-06 1.81185e-19 -6.44478e-06 -3.70584e-20 5.84647e-07)
(1.21817e-05 -7.66506e-07 1.09855e-19 -1.21452e-05 -8.39216e-21 -3.64513e-08)
(1.62134e-05 -4.9259e-06 -9.70791e-20 -1.63746e-05 3.29214e-21 1.6123e-07)
(6.62894e-06 -3.31766e-06 2.04761e-20 -6.50014e-06 1.60997e-20 -1.28797e-07)
(5.17944e-06 -7.02535e-06 -1.22338e-19 -5.63584e-06 9.22189e-21 4.56392e-07)
(1.18363e-05 -6.68736e-07 3.53399e-20 -1.18049e-05 -5.0311e-20 -3.13438e-08)
(1.38316e-05 -4.20327e-06 -7.28625e-20 -1.39552e-05 2.86114e-20 1.23595e-07)
(7.32659e-06 -3.82557e-06 3.13618e-19 -7.20248e-06 -1.60054e-20 -1.24117e-07)
(4.88799e-06 -6.4147e-06 1.5899e-19 -5.26663e-06 -1.87307e-20 3.78643e-07)
(1.17663e-05 -5.88847e-07 -2.89728e-19 -1.17391e-05 1.74897e-20 -2.72069e-08)
(1.16383e-05 -3.45394e-06 1.62419e-19 -1.1731e-05 -8.85277e-21 9.27136e-08)
(1.01408e-05 -5.45993e-06 2.80475e-19 -9.99335e-06 -3.22112e-20 -1.47407e-07)
(4.64233e-06 -5.96977e-06 4.14725e-19 -4.95729e-06 -1.83589e-20 3.14963e-07)
(1.15909e-05 -5.05238e-07 3.08267e-20 -1.1568e-05 3.06138e-20 -2.29306e-08)
(1.05355e-05 -3.03346e-06 -3.69819e-20 -1.06102e-05 -1.8613e-20 7.46991e-08)
(1.06396e-05 -5.80737e-06 -9.62413e-20 -1.05101e-05 -1.8605e-20 -1.29484e-07)
(5.06791e-06 -6.40674e-06 -3.64859e-20 -5.36647e-06 1.176e-20 2.98568e-07)
(1.12392e-05 -4.08807e-07 -9.70784e-21 -1.12202e-05 -1.91165e-20 -1.89688e-08)
(1.00499e-05 -2.8021e-06 -1.33284e-19 -1.01124e-05 2.06657e-20 6.24643e-08)
(9.65845e-06 -5.28004e-06 -4.57364e-19 -9.56137e-06 3.2021e-20 -9.70765e-08)
(5.96633e-06 -7.38948e-06 -2.593e-19 -6.26912e-06 1.14643e-20 3.02792e-07)
(1.07879e-05 -3.03119e-07 -1.48607e-19 -1.07729e-05 3.59527e-20 -1.49781e-08)
(9.74849e-06 -2.62373e-06 1.39843e-19 -9.80088e-06 -7.49259e-21 5.23928e-08)
(8.71465e-06 -4.73656e-06 1.16695e-19 -8.64327e-06 4.06418e-21 -7.13818e-08)
(6.23697e-06 -7.53381e-06 -1.55036e-19 -6.50628e-06 4.25141e-21 2.69304e-07)
(1.03104e-05 -1.92747e-07 2.94756e-19 -1.02989e-05 -2.09722e-21 -1.14949e-08)
(9.42981e-06 -2.43658e-06 -1.41919e-19 -9.47354e-06 2.89827e-21 4.37282e-08)
(8.08896e-06 -4.3448e-06 -9.65706e-20 -8.03677e-06 4.43761e-21 -5.21879e-08)
(6.005e-06 -7.03798e-06 3.40116e-19 -6.2241e-06 -1.23042e-20 2.19103e-07)
(9.83624e-06 -8.02837e-08 -4.20842e-20 -9.82744e-06 -2.98368e-20 -8.80498e-09)
(9.05257e-06 -2.23094e-06 7.48181e-20 -9.08828e-06 -6.578e-21 3.57081e-08)
(7.65548e-06 -4.04092e-06 1.33495e-19 -7.61774e-06 -9.92494e-21 -3.77459e-08)
(5.65394e-06 -6.40506e-06 -2.19329e-19 -5.82657e-06 9.1593e-21 1.72629e-07)
(9.36903e-06 3.26283e-08 -4.69519e-20 -9.3629e-06 -1.6376e-21 -6.12851e-09)
(8.63954e-06 -2.01387e-06 -1.92409e-19 -8.66812e-06 8.07047e-21 2.85836e-08)
(7.29336e-06 -3.75923e-06 -2.21744e-19 -7.26694e-06 1.39093e-20 -2.64208e-08)
(5.33568e-06 -5.81796e-06 2.46955e-19 -5.47048e-06 -6.62777e-21 1.34793e-07)
(8.90387e-06 1.44677e-07 -8.93971e-20 -8.89976e-06 1.27891e-20 -4.11061e-09)
(8.21506e-06 -1.79484e-06 1.00559e-19 -8.23731e-06 2.32863e-20 2.22482e-08)
(6.94656e-06 -3.47382e-06 3.35782e-19 -6.92876e-06 -1.44321e-22 -1.78073e-08)
(5.06434e-06 -5.29503e-06 -2.41297e-19 -5.1681e-06 5.33769e-21 1.0376e-07)
(8.4389e-06 2.55586e-07 9.37261e-20 -8.43631e-06 9.18022e-21 -2.58222e-09)
(7.79217e-06 -1.57763e-06 2.83592e-19 -7.80946e-06 -1.98168e-20 1.72872e-08)
(6.60304e-06 -3.18062e-06 2.07807e-20 -6.59199e-06 -8.2172e-21 -1.10465e-08)
(4.82432e-06 -4.81655e-06 1.30241e-19 -4.9032e-06 -3.0199e-21 7.88829e-08)
(7.97455e-06 3.62184e-07 7.71852e-20 -7.97361e-06 -1.59266e-20 -9.43213e-10)
(7.37366e-06 -1.36601e-06 -1.64204e-19 -7.38701e-06 -1.73245e-20 1.33499e-08)
(6.26377e-06 -2.88592e-06 4.00861e-20 -6.25814e-06 -7.73574e-21 -5.62946e-09)
(4.60283e-06 -4.36984e-06 -2.46609e-19 -4.66251e-06 2.85724e-21 5.96758e-08)
(7.51215e-06 4.64819e-07 -1.37878e-19 -7.51198e-06 6.26744e-21 -1.66093e-10)
(6.96032e-06 -1.15928e-06 -1.10204e-19 -6.97009e-06 1.52812e-20 9.77149e-09)
(5.93129e-06 -2.59355e-06 -2.1423e-19 -5.92925e-06 4.37117e-21 -2.03867e-09)
(4.39307e-06 -3.94905e-06 1.59637e-19 -4.43759e-06 -3.95872e-21 4.45188e-08)
(7.05444e-06 5.61532e-07 1.53926e-19 -7.05486e-06 -2.72746e-21 4.21376e-10)
(6.55291e-06 -9.60947e-07 1.22139e-19 -6.56e-06 -3.78572e-21 7.09416e-09)
(5.60687e-06 -2.30816e-06 1.04061e-19 -5.60762e-06 -1.94651e-21 7.56519e-10)
(4.19286e-06 -3.55222e-06 -3.57009e-19 -4.22616e-06 5.94071e-21 3.33048e-08)
(6.6036e-06 6.50751e-07 -1.82947e-19 -6.60479e-06 -4.68095e-21 1.18665e-09)
(6.15284e-06 -7.70772e-07 -1.8426e-19 -6.15782e-06 -7.12194e-22 4.981e-09)
(5.29013e-06 -2.03173e-06 -2.69745e-19 -5.29232e-06 3.41854e-22 2.19015e-09)
(3.99967e-06 -3.17912e-06 5.68441e-19 -4.02419e-06 4.95573e-21 2.45189e-08)
(6.16112e-06 7.31799e-07 9.07376e-20 -6.16257e-06 1.34543e-20 1.45052e-09)
(5.76123e-06 -5.91416e-07 1.24949e-19 -5.76486e-06 1.52533e-21 3.63278e-09)
(4.98176e-06 -1.76665e-06 1.57922e-19 -4.98521e-06 1.18746e-20 3.45367e-09)
(3.81244e-06 -2.82818e-06 -2.28047e-19 -3.83016e-06 -8.8103e-21 1.77182e-08)
(5.72929e-06 8.03965e-07 4.7705e-20 -5.73094e-06 -7.38023e-21 1.64642e-09)
(5.37891e-06 -4.23271e-07 -1.69485e-19 -5.38115e-06 -5.44148e-21 2.24468e-09)
(4.68092e-06 -1.51524e-06 6.24172e-20 -4.68499e-06 -1.2284e-20 4.0603e-09)
(3.62969e-06 -2.49971e-06 9.54925e-20 -3.64247e-06 4.26634e-21 1.27774e-08)
(5.35103e-06 1.98544e-06 -1.85805e-19 -5.3525e-06 9.37518e-21 1.47644e-09)
(5.30985e-06 8.66257e-07 -7.58433e-20 -5.31167e-06 -8.66212e-21 1.8208e-09)
(5.00765e-06 -2.67299e-07 5.43729e-20 -5.00901e-06 1.57223e-20 1.36063e-09)
(4.38798e-06 -1.27828e-06 -2.58339e-19 -4.39208e-06 -1.21453e-21 4.09902e-09)
(3.45011e-06 -2.19304e-06 -6.55551e-20 -3.45888e-06 4.89967e-22 8.77193e-09)
(4.91959e-06 1.94658e-06 2.08257e-19 -4.92102e-06 1.39505e-20 1.42742e-09)
(4.90441e-06 9.18452e-07 -8.38591e-20 -4.90612e-06 5.18831e-21 1.71849e-09)
(4.64834e-06 -1.24735e-07 2.18028e-19 -4.64919e-06 6.25586e-22 8.54585e-10)
(4.10354e-06 -1.05736e-06 1.73111e-19 -4.10767e-06 1.156e-20 4.13201e-09)
(3.27317e-06 -1.90763e-06 1.97792e-19 -3.27887e-06 5.88803e-21 5.70336e-09)
(4.50656e-06 1.89962e-06 -5.18682e-20 -4.50785e-06 -1.06709e-20 1.28239e-09)
(4.51466e-06 9.60086e-07 9.76569e-20 -4.51638e-06 6.07066e-21 1.72709e-09)
(4.30183e-06 4.17253e-09 -5.88284e-20 -4.30226e-06 -1.36979e-20 4.31992e-10)
(3.82772e-06 -8.53382e-07 -4.82134e-21 -3.83176e-06 -7.48561e-21 4.03639e-09)
(3.09843e-06 -1.64345e-06 -7.95082e-20 -3.1018e-06 -9.78612e-21 3.36462e-09)
(4.11354e-06 1.8452e-06 3.0235e-20 -4.11467e-06 -4.32149e-22 1.13163e-09)
(4.14174e-06 9.91227e-07 -1.35822e-20 -4.14342e-06 -3.19897e-21 1.68601e-09)
(3.96906e-06 1.19055e-07 -1.44683e-19 -3.96916e-06 1.92694e-21 1.03731e-10)
(3.56089e-06 -6.66766e-07 -9.22519e-20 -3.5647e-06 -6.44597e-21 3.81014e-09)
(2.92565e-06 -1.40018e-06 -2.10201e-19 -2.9271e-06 -4.79035e-21 1.45153e-09)
(3.74169e-06 1.78421e-06 -9.68199e-20 -3.74277e-06 -7.74486e-22 1.08133e-09)
(3.78684e-06 1.01227e-06 1.96859e-20 -3.7884e-06 -8.2446e-22 1.56879e-09)
(3.65086e-06 2.19865e-07 1.43681e-19 -3.65075e-06 6.29637e-21 -1.03414e-10)
(3.30348e-06 -4.97733e-07 -1.20753e-19 -3.307e-06 -3.2183e-21 3.52721e-09)
(2.75497e-06 -1.17734e-06 7.36792e-20 -2.75492e-06 5.91303e-21 -4.46944e-11)
(3.39179e-06 1.71756e-06 1.43795e-19 -3.3928e-06 1.37682e-20 1.00369e-09)
(3.45086e-06 1.02334e-06 -3.62087e-20 -3.45234e-06 1.66957e-21 1.4804e-09)
(3.34789e-06 3.06635e-07 -1.41423e-19 -3.34771e-06 -7.73592e-21 -1.83141e-10)
(3.05603e-06 -3.4624e-07 -2.82139e-20 -3.05932e-06 7.25021e-21 3.29617e-09)
(2.58664e-06 -9.74668e-07 -1.87831e-20 -2.58537e-06 -8.28701e-22 -1.27851e-09)
(3.06437e-06 1.64631e-06 7.11163e-20 -3.06526e-06 -3.21588e-21 8.8716e-10)
(3.13436e-06 1.02519e-06 9.74608e-20 -3.13572e-06 6.56855e-21 1.36629e-09)
(3.06056e-06 3.79747e-07 1.12836e-19 -3.06028e-06 7.87206e-21 -2.80389e-10)
(2.81884e-06 -2.12067e-07 2.65094e-19 -2.82192e-06 1.07011e-20 3.08026e-09)
(2.42115e-06 -7.91424e-07 9.02712e-20 -2.41891e-06 6.42157e-21 -2.24421e-09)
(2.75969e-06 1.57139e-06 -5.7361e-20 -2.76048e-06 -7.83729e-21 7.90509e-10)
(2.83777e-06 1.01849e-06 5.59957e-21 -2.83906e-06 -6.30083e-21 1.28489e-09)
(2.78935e-06 4.39863e-07 -5.73626e-20 -2.78901e-06 -6.18861e-21 -3.45313e-10)
(2.59232e-06 -9.46536e-08 -1.08047e-19 -2.59517e-06 -1.38638e-20 2.85013e-09)
(2.2589e-06 -6.27285e-07 6.29769e-20 -2.25585e-06 1.61867e-21 -3.04745e-09)
(2.47761e-06 1.49383e-06 -7.69542e-20 -2.47832e-06 -2.33532e-21 7.12733e-10)
(2.56122e-06 1.00405e-06 -1.43838e-19 -2.56241e-06 -7.32148e-21 1.19066e-09)
(2.53447e-06 4.87522e-07 -2.14858e-20 -2.53412e-06 2.12839e-21 -3.5049e-10)
(2.37683e-06 6.70379e-09 -8.85082e-20 -2.37951e-06 -2.89994e-21 2.6774e-09)
(2.1006e-06 -4.81026e-07 -2.67408e-21 -2.09693e-06 -4.14499e-21 -3.66992e-09)
(2.21775e-06 1.41465e-06 8.87179e-21 -2.21839e-06 5.67962e-21 6.41029e-10)
(2.30464e-06 9.82744e-07 7.09514e-20 -2.30572e-06 7.02118e-21 1.07951e-09)
(2.29596e-06 5.23757e-07 9.18439e-20 -2.29559e-06 4.80509e-21 -3.73341e-10)
(2.17263e-06 9.28651e-08 -1.11373e-20 -2.17512e-06 3.17041e-21 2.48357e-09)
(1.94677e-06 -3.5226e-07 -1.54185e-19 -1.94263e-06 -6.6827e-21 -4.1328e-09)
(1.97955e-06 1.33475e-06 1.25103e-19 -1.98011e-06 9.51244e-21 5.63432e-10)
(2.06773e-06 9.55615e-07 -5.36623e-20 -2.0687e-06 -6.94476e-21 9.68838e-10)
(2.07377e-06 5.49417e-07 -7.48022e-20 -2.0734e-06 -7.76938e-21 -3.76652e-10)
(1.97997e-06 1.6479e-07 7.47592e-20 -1.98232e-06 3.06335e-21 2.34941e-09)
(1.79802e-06 -2.39702e-07 1.55471e-19 -1.79349e-06 1.24958e-20 -4.53106e-09)
(1.7622e-06 1.25494e-06 -2.33748e-21 -1.76269e-06 -2.65548e-21 4.89507e-10)
(1.85e-06 9.23512e-07 -9.04855e-20 -1.85091e-06 -4.92115e-21 9.12254e-10)
(1.86775e-06 5.65579e-07 -2.06743e-20 -1.86737e-06 -2.01602e-21 -3.8309e-10)
(1.79895e-06 2.23626e-07 -6.55992e-20 -1.80118e-06 -4.51945e-21 2.22929e-09)
(1.65496e-06 -1.42455e-07 -7.18161e-21 -1.65016e-06 -5.48256e-21 -4.79965e-09)
(1.42799e-06 1.43571e-06 -5.67802e-22 -1.42852e-06 -6.16371e-22 5.29125e-10)
(1.56477e-06 1.17607e-06 1.84778e-20 -1.56519e-06 1.07404e-21 4.18178e-10)
(1.65075e-06 8.87495e-07 2.70452e-20 -1.65156e-06 3.83142e-21 8.13762e-10)
(1.6775e-06 5.73303e-07 -1.04824e-19 -1.67711e-06 -5.09135e-21 -3.91622e-10)
(1.62958e-06 2.70501e-07 9.04235e-20 -1.63168e-06 7.39655e-21 2.09604e-09)
(1.51807e-06 -5.94222e-08 -1.51168e-19 -1.51309e-06 -8.47477e-21 -4.97079e-09)
(1.26044e-06 1.32283e-06 -1.78908e-20 -1.2609e-06 -1.45943e-21 4.61078e-10)
(1.38617e-06 1.09875e-06 -2.56183e-20 -1.38653e-06 -3.37092e-21 3.60515e-10)
(1.46925e-06 8.48454e-07 -2.84295e-20 -1.46997e-06 -3.46305e-21 7.22965e-10)
(1.50257e-06 5.73735e-07 1.35407e-19 -1.50218e-06 1.32955e-20 -3.86798e-10)
(1.47184e-06 3.06601e-07 -1.03125e-20 -1.47382e-06 -3.85765e-21 1.97634e-09)
(1.38777e-06 1.0528e-08 1.30312e-19 -1.38271e-06 1.11497e-20 -5.0661e-09)
(1.11031e-06 1.21635e-06 1.78592e-20 -1.1107e-06 3.16559e-21 3.90556e-10)
(1.22524e-06 1.02356e-06 -4.62279e-20 -1.22554e-06 -3.06102e-21 2.99264e-10)
(1.30456e-06 8.07193e-07 1.36425e-21 -1.30523e-06 1.44107e-21 6.7392e-10)
(1.34242e-06 5.67874e-07 5.97721e-20 -1.34204e-06 1.42024e-21 -3.86531e-10)
(1.32557e-06 3.33131e-07 -9.48257e-20 -1.32745e-06 -5.04188e-21 1.87793e-09)
(1.26444e-06 6.85888e-08 -5.59701e-20 -1.25934e-06 -5.52498e-21 -5.09604e-09)
(9.76227e-07 1.11636e-06 6.33979e-20 -9.76565e-07 4.28215e-21 3.38611e-10)
(1.08076e-06 9.50988e-07 3.29302e-20 -1.08101e-06 3.46041e-21 2.46523e-10)
(1.1557e-06 7.64603e-07 7.20888e-20 -1.1563e-06 5.27977e-21 5.9898e-10)
(1.19637e-06 5.56792e-07 -7.96795e-20 -1.19598e-06 -6.15638e-21 -3.95025e-10)
(1.1905e-06 3.5126e-07 1.37009e-19 -1.19228e-06 1.21517e-20 1.78084e-09)
(1.1483e-06 1.15889e-07 6.06821e-20 -1.14322e-06 5.51372e-21 -5.0805e-09)
(8.56856e-07 1.0229e-06 -7.36215e-20 -8.57144e-07 -7.5908e-21 2.88208e-10)
(9.51488e-07 8.81395e-07 -1.2348e-20 -9.51696e-07 -2.10127e-21 2.07743e-10)
(1.02167e-06 7.21279e-07 -8.50434e-20 -1.02221e-06 -9.2285e-21 5.45263e-10)
(1.0637e-06 5.41461e-07 9.75272e-20 -1.06331e-06 9.34601e-21 -3.88425e-10)
(1.06631e-06 3.62158e-07 9.02978e-21 -1.06799e-06 -1.35205e-21 1.67331e-09)
(1.03952e-06 1.53581e-07 -3.41247e-20 -1.03453e-06 -4.80038e-21 -4.99837e-09)
(7.50891e-07 9.35865e-07 2.96814e-20 -7.51133e-07 3.99491e-21 2.42155e-10)
(8.36192e-07 8.151e-07 -3.07503e-20 -8.36349e-07 -2.41036e-21 1.57743e-10)
(9.01362e-07 6.77935e-07 -1.583e-20 -9.01844e-07 2.43692e-22 4.81986e-10)
(9.43617e-07 5.22769e-07 -1.04906e-20 -9.43226e-07 -2.31335e-21 -3.90653e-10)
(9.52606e-07 3.66846e-07 -3.63021e-20 -9.54188e-07 -2.69927e-21 1.58161e-09)
(9.38155e-07 1.82773e-07 -1.07883e-19 -9.33283e-07 -7.99437e-21 -4.87257e-09)
(6.57056e-07 8.55104e-07 -6.93581e-21 -6.57265e-07 8.55352e-22 2.08578e-10)
(7.33661e-07 7.52238e-07 8.24189e-21 -7.33797e-07 1.17152e-21 1.35482e-10)
(7.93756e-07 6.35027e-07 2.88046e-20 -7.94198e-07 2.92831e-21 4.41488e-10)
(8.3533e-07 5.01519e-07 -8.08335e-21 -8.34943e-07 -1.18056e-21 -3.86819e-10)
(8.48904e-07 3.6638e-07 2.41112e-20 -8.50395e-07 1.31181e-21 1.49116e-09)
(8.44157e-07 2.04559e-07 8.7043e-20 -8.39431e-07 8.87262e-21 -4.72576e-09)
(5.74152e-07 7.80441e-07 1.4096e-19 -5.74326e-07 1.3865e-20 1.73742e-10)
(6.42701e-07 6.9299e-07 8.24027e-21 -6.428e-07 1.25671e-21 9.86649e-11)
(6.97769e-07 5.93036e-07 5.53075e-21 -6.98153e-07 1.26528e-23 3.84004e-10)
(7.37977e-07 4.78441e-07 -5.15777e-20 -7.37598e-07 -3.39638e-21 -3.7935e-10)
(7.54696e-07 3.61662e-07 -8.71777e-20 -7.56094e-07 -7.74774e-21 1.39789e-09)
(7.57417e-07 2.19934e-07 -1.54164e-20 -7.52869e-07 -1.87837e-21 -4.5482e-09)
(5.01071e-07 7.11594e-07 -4.438e-20 -5.01216e-07 -5.83016e-21 1.45088e-10)
(5.62228e-07 6.37351e-07 1.8935e-20 -5.62305e-07 1.56176e-21 7.67159e-11)
(6.12395e-07 5.52284e-07 -2.12444e-20 -6.12749e-07 -2.8144e-21 3.53737e-10)
(6.50743e-07 4.54165e-07 1.01671e-19 -6.50368e-07 9.533e-21 -3.74945e-10)
(6.69416e-07 3.53527e-07 7.15102e-20 -6.7073e-07 7.60521e-21 1.31356e-09)
(6.77741e-07 2.29819e-07 7.64928e-20 -6.73392e-07 6.26922e-21 -4.34853e-09)
(3.76037e-07 7.01267e-07 3.50497e-20 -3.76122e-07 3.32841e-21 8.43748e-11)
(4.36761e-07 6.48281e-07 5.4357e-20 -4.36887e-07 6.6671e-21 1.25421e-10)
(4.91176e-07 5.85344e-07 -1.71858e-20 -4.91226e-07 -2.1981e-21 4.97379e-11)
(5.36628e-07 5.1308e-07 -3.94795e-20 -5.36942e-07 -3.64635e-21 3.13558e-10)
(5.72796e-07 4.29219e-07 -6.75611e-20 -5.72428e-07 -7.4273e-21 -3.67995e-10)
(5.9249e-07 3.42717e-07 -2.11456e-20 -5.9372e-07 -2.24256e-21 1.23006e-09)
(6.04867e-07 2.35107e-07 -1.30356e-19 -6.00729e-07 -1.3414e-20 -4.13736e-09)
(3.26914e-07 6.35044e-07 -5.20375e-20 -3.2698e-07 -5.7568e-21 6.59598e-11)
(3.80262e-07 5.90202e-07 3.91875e-20 -3.80365e-07 2.9229e-21 1.02651e-10)
(4.2855e-07 5.36899e-07 -4.65428e-20 -4.28588e-07 -4.6753e-21 3.82482e-11)
(4.69569e-07 4.75587e-07 -1.05124e-20 -4.69851e-07 -2.06333e-23 2.81928e-10)
(5.03332e-07 4.0406e-07 2.2706e-20 -5.02979e-07 1.93809e-21 -3.52836e-10)
(5.2333e-07 3.29873e-07 4.71438e-20 -5.24479e-07 5.28747e-21 1.14912e-09)
(5.38491e-07 2.36561e-07 -1.78968e-20 -5.34577e-07 5.19438e-23 -3.91386e-09)
(2.83888e-07 5.74972e-07 3.84372e-20 -2.83944e-07 5.35192e-21 5.53547e-11)
(3.30709e-07 5.37039e-07 -7.39635e-20 -3.30795e-07 -8.1798e-21 8.68436e-11)
(3.73451e-07 4.91946e-07 -6.34822e-21 -3.73478e-07 -5.5994e-22 2.72489e-11)
(4.10324e-07 4.39979e-07 9.74385e-20 -4.1057e-07 9.57586e-21 2.45868e-10)
(4.41574e-07 3.7907e-07 -9.67371e-20 -4.41233e-07 -9.88876e-21 -3.41004e-10)
(4.61331e-07 3.15578e-07 4.61223e-20 -4.62397e-07 4.57832e-21 1.0662e-09)
(4.78264e-07 2.34892e-07 5.72349e-20 -4.74575e-07 4.77936e-21 -3.68919e-09)
(2.46241e-07 5.2057e-07 6.23624e-20 -2.46285e-07 6.78369e-21 4.36077e-11)
(2.87282e-07 4.88493e-07 5.72746e-22 -2.87353e-07 6.91307e-22 7.08004e-11)
(3.25049e-07 4.50361e-07 7.47894e-21 -3.25065e-07 1.06066e-21 1.62164e-11)
(3.5807e-07 4.06357e-07 -1.14542e-19 -3.58286e-07 -1.25556e-20 2.16633e-10)
(3.86794e-07 3.54547e-07 -3.42863e-21 -3.86467e-07 -3.8575e-22 -3.26659e-10)
(4.05914e-07 3.00295e-07 8.05977e-20 -4.06911e-07 8.65974e-21 9.96663e-10)
(4.23821e-07 2.30716e-07 -1.59527e-19 -4.20363e-07 -1.66949e-20 -3.45854e-09)
(2.13324e-07 4.71363e-07 1.55402e-20 -2.13359e-07 1.37777e-21 3.50372e-11)
(2.4926e-07 4.44244e-07 -2.10353e-20 -2.49323e-07 -1.95473e-21 6.27312e-11)
(2.82585e-07 4.12003e-07 -1.1794e-20 -2.82592e-07 -1.5093e-21 7.51699e-12)
(3.12054e-07 3.7477e-07 3.17794e-20 -3.12252e-07 4.55539e-21 1.98764e-10)
(3.38303e-07 3.30748e-07 -5.70848e-20 -3.37992e-07 -6.1093e-21 -3.11535e-10)
(3.565e-07 2.8447e-07 6.29346e-20 -3.57424e-07 6.30525e-21 9.2392e-10)
(3.74761e-07 2.24605e-07 -2.78222e-20 -3.71527e-07 -2.06509e-21 -3.23402e-09)
(1.84559e-07 4.26859e-07 8.47465e-21 -1.84585e-07 5.13882e-22 2.55695e-11)
(2.15995e-07 4.03943e-07 4.54365e-20 -2.16047e-07 5.23694e-21 5.1973e-11)
(2.45353e-07 3.76701e-07 -4.1328e-21 -2.4535e-07 -2.55388e-22 -2.95297e-12)
(2.71575e-07 3.45224e-07 2.68461e-20 -2.7175e-07 1.92209e-21 1.7505e-10)
(2.95438e-07 3.07852e-07 -7.74009e-21 -2.95138e-07 -9.95388e-22 -3.00113e-10)
(3.12535e-07 2.68424e-07 6.27371e-20 -3.13393e-07 6.58904e-21 8.58158e-10)
(3.30688e-07 2.17032e-07 -6.83832e-20 -3.27675e-07 -6.87367e-21 -3.01282e-09)
(1.59461e-07 3.86508e-07 -2.97056e-20 -1.59482e-07 -3.76018e-21 2.14611e-11)
(1.86939e-07 3.67165e-07 1.68979e-20 -1.86983e-07 1.62925e-21 4.47339e-11)
(2.12751e-07 3.44178e-07 2.15698e-20 -2.12748e-07 2.40444e-21 -3.64947e-12)
(2.36032e-07 3.17596e-07 -1.07559e-19 -2.36189e-07 -1.17015e-20 1.57738e-10)
(2.57611e-07 2.85923e-07 -7.55417e-20 -2.57332e-07 -8.43536e-21 -2.79526e-10)
(2.73503e-07 2.52391e-07 5.07849e-20 -2.74297e-07 4.92379e-21 7.94017e-10)
(2.91199e-07 2.08386e-07 -6.42422e-21 -2.88403e-07 -5.55078e-22 -2.79602e-09)
(1.12351e-07 3.63233e-07 3.16437e-21 -1.1237e-07 6.54686e-22 1.92176e-11)
(1.37601e-07 3.49767e-07 -3.57488e-20 -1.37616e-07 -3.63891e-21 1.45422e-11)
(1.61598e-07 3.33465e-07 2.47764e-20 -1.61632e-07 2.39423e-21 3.38796e-11)
(1.8426e-07 3.14102e-07 -3.81527e-20 -1.8425e-07 -4.65415e-21 -1.0613e-11)
(2.04867e-07 2.91701e-07 2.6748e-21 -2.05004e-07 7.64194e-22 1.37743e-10)
(2.24297e-07 2.64913e-07 -1.46844e-20 -2.2403e-07 -8.44856e-22 -2.67798e-10)
(2.38926e-07 2.36461e-07 9.63157e-21 -2.39658e-07 5.39505e-22 7.32108e-10)
(2.55914e-07 1.989e-07 -3.22666e-20 -2.53327e-07 -2.96299e-21 -2.58668e-09)
(9.66466e-08 3.27616e-07 2.18006e-20 -9.6669e-08 2.54544e-21 2.2379e-11)
(1.18632e-07 3.16241e-07 5.87654e-20 -1.18649e-07 6.96067e-21 1.76021e-11)
(1.39571e-07 3.02501e-07 -5.06045e-20 -1.39607e-07 -5.7202e-21 3.57257e-11)
(1.59441e-07 2.86197e-07 -5.45605e-20 -1.59434e-07 -5.62505e-21 -7.21038e-12)
(1.77632e-07 2.67339e-07 -1.93059e-20 -1.77761e-07 -2.5393e-21 1.28737e-10)
(1.95052e-07 2.44723e-07 5.75204e-20 -1.94807e-07 6.47041e-21 -2.4557e-10)
(2.08404e-07 2.20639e-07 -4.38666e-20 -2.09081e-07 -5.02306e-21 6.77298e-10)
(2.2449e-07 1.88701e-07 7.80547e-20 -2.22111e-07 8.57316e-21 -2.37883e-09)
(8.29667e-08 2.95409e-07 1.93663e-20 -8.2974e-08 2.38728e-21 7.3426e-12)
(1.02118e-07 2.85764e-07 -2.69751e-20 -1.02121e-07 -3.4717e-21 2.74161e-12)
(1.20391e-07 2.7415e-07 -3.21206e-21 -1.2041e-07 -2.46449e-22 1.9131e-11)
(1.37802e-07 2.60393e-07 6.67251e-20 -1.37782e-07 8.08799e-21 -1.99194e-11)
(1.53845e-07 2.44494e-07 -3.95468e-20 -1.53949e-07 -4.89706e-21 1.04339e-10)
(1.6941e-07 2.25397e-07 -1.35718e-20 -1.69175e-07 -1.28562e-21 -2.3515e-10)
(1.81532e-07 2.05011e-07 -4.19515e-20 -1.82142e-07 -4.19235e-21 6.09487e-10)
(1.96582e-07 1.77915e-07 8.68174e-21 -1.94399e-07 5.67757e-22 -2.18358e-09)
(7.10427e-08 2.66496e-07 3.63481e-20 -7.10707e-08 3.97647e-21 2.80415e-11)
(8.77322e-08 2.58269e-07 -1.84094e-20 -8.77536e-08 -1.96997e-21 2.14135e-11)
(1.0369e-07 2.48396e-07 9.90682e-21 -1.03722e-07 9.69407e-22 3.20079e-11)
(1.18945e-07 2.36737e-07 4.7438e-20 -1.18944e-07 5.51624e-21 -1.38218e-12)
(1.33082e-07 2.23285e-07 -1.53008e-19 -1.3319e-07 -1.71073e-20 1.08572e-10)
(1.46966e-07 2.07112e-07 1.0879e-19 -1.46762e-07 1.18202e-20 -2.03853e-10)
(1.57927e-07 1.89822e-07 4.35821e-20 -1.58494e-07 5.05401e-21 5.67307e-10)
(1.71878e-07 1.66858e-07 1.00787e-20 -1.69913e-07 8.6954e-22 -1.96576e-09)
(6.04815e-08 2.40564e-07 -4.09926e-20 -6.04601e-08 -5.09691e-21 -2.14361e-11)
(7.50107e-08 2.33506e-07 3.26129e-21 -7.49972e-08 4.53645e-22 -1.35132e-11)
(8.89479e-08 2.25062e-07 -1.79832e-20 -8.89462e-08 -1.94406e-21 -1.74745e-12)
(1.02331e-07 2.1512e-07 4.14916e-20 -1.02295e-07 4.49097e-21 -3.60146e-11)
(1.14777e-07 2.03675e-07 2.77702e-20 -1.14849e-07 3.73333e-21 7.205e-11)
(1.27149e-07 1.89904e-07 -1.81354e-20 -1.26934e-07 -2.03023e-21 -2.1531e-10)
(1.37042e-07 1.75153e-07 -1.99828e-20 -1.37522e-07 -2.49204e-21 4.79947e-10)
(1.49884e-07 1.55616e-07 -3.2681e-20 -1.48071e-07 -3.47497e-21 -1.81279e-09)
(5.13393e-08 2.18263e-07 -2.5642e-20 -5.13562e-08 -2.93186e-21 1.69392e-11)
(6.40141e-08 2.12236e-07 2.95509e-21 -6.40309e-08 4.5878e-22 1.67588e-11)
(7.62004e-08 2.05032e-07 6.23712e-20 -7.62227e-08 6.96675e-21 2.22985e-11)
(8.79661e-08 1.96552e-07 -3.33617e-22 -8.79427e-08 3.1715e-23 -2.33753e-11)
(9.89605e-08 1.86794e-07 -4.77447e-20 -9.90222e-08 -5.59566e-21 6.16709e-11)
(1.09969e-07 1.75024e-07 9.78847e-20 -1.09773e-07 1.11583e-20 -1.96198e-10)
(1.1891e-07 1.62368e-07 -1.85827e-20 -1.19318e-07 -2.26535e-21 4.08003e-10)
(1.30683e-07 1.45622e-07 6.12567e-20 -1.29038e-07 7.05858e-21 -1.64565e-09)
(4.4842e-08 2.00252e-07 -4.94784e-20 -4.49346e-08 -5.66605e-21 9.26734e-11)
(5.60564e-08 1.94973e-07 5.32391e-20 -5.61751e-08 6.20887e-21 1.18672e-10)
(6.6859e-08 1.88692e-07 -8.76462e-20 -6.70014e-08 -1.04816e-20 1.4239e-10)
(7.72889e-08 1.81328e-07 2.25596e-20 -7.74158e-08 2.63285e-21 1.26907e-10)
(8.70649e-08 1.72854e-07 2.84567e-20 -8.72899e-08 3.34527e-21 2.2502e-10)
(9.69222e-08 1.62597e-07 2.50581e-20 -9.69378e-08 2.18159e-21 1.5557e-11)
(1.0495e-07 1.51559e-07 -7.89226e-20 -1.05574e-07 -8.36428e-21 6.23739e-10)
(1.15907e-07 1.37172e-07 4.14097e-20 -1.14706e-07 4.0463e-21 -1.20118e-09)
(2.90588e-08 1.88564e-07 1.01175e-20 -2.88031e-08 1.25083e-21 -2.55693e-10)
(3.92875e-08 1.84759e-07 2.79662e-20 -3.91544e-08 3.52736e-21 -1.33102e-10)
(4.93154e-08 1.79927e-07 -1.10508e-20 -4.91924e-08 -1.25861e-21 -1.23064e-10)
(5.90075e-08 1.74251e-07 -1.72571e-20 -5.8861e-08 -1.84385e-21 -1.46475e-10)
(6.83594e-08 1.67689e-07 4.62841e-20 -6.81515e-08 5.22117e-21 -2.07933e-10)
(7.70987e-08 1.60195e-07 -2.82487e-20 -7.69444e-08 -3.2489e-21 -1.54262e-10)
(8.59529e-08 1.51167e-07 -9.34905e-20 -8.55648e-08 -1.06924e-20 -3.88146e-10)
(9.31566e-08 1.41404e-07 1.08635e-19 -9.32636e-08 1.25953e-20 1.06992e-10)
(1.03222e-07 1.28888e-07 -5.95544e-20 -1.01548e-07 -6.96204e-21 -1.67356e-09)
(2.53183e-08 1.74414e-07 2.84437e-21 -2.52944e-08 2.98676e-22 -2.39625e-11)
(3.4457e-08 1.70909e-07 -8.46959e-21 -3.46977e-08 -1.37803e-21 2.40726e-10)
(4.3496e-08 1.66437e-07 6.16746e-20 -4.38532e-08 7.19946e-21 3.57287e-10)
(5.23416e-08 1.61175e-07 -3.40363e-20 -5.27145e-08 -3.78682e-21 3.72866e-10)
(6.0871e-08 1.5512e-07 -2.39316e-20 -6.12207e-08 -3.02903e-21 3.49693e-10)
(6.88041e-08 1.48243e-07 -1.11704e-20 -6.92445e-08 -1.18318e-21 4.40404e-10)
(7.6783e-08 1.40063e-07 7.94028e-20 -7.70809e-08 9.30971e-21 2.97881e-10)
(8.32145e-08 1.31334e-07 -2.72369e-20 -8.40884e-08 -2.691e-21 8.73953e-10)
(9.22991e-08 1.20672e-07 -5.31353e-20 -9.17805e-08 -6.44307e-21 -5.18646e-10)
(2.07668e-08 1.59717e-07 -7.57962e-22 -1.98736e-08 -7.85726e-23 -8.93203e-10)
(2.85587e-08 1.56561e-07 -5.61205e-20 -2.78781e-08 -6.78309e-21 -6.80569e-10)
(3.63517e-08 1.52588e-07 -4.81689e-20 -3.57224e-08 -5.65352e-21 -6.29225e-10)
(4.41039e-08 1.47926e-07 1.71117e-20 -4.33915e-08 2.13483e-21 -7.1241e-10)
(5.16171e-08 1.4259e-07 -1.31331e-20 -5.08018e-08 -1.65806e-21 -8.15326e-10)
(5.86424e-08 1.36532e-07 3.22367e-20 -5.78502e-08 4.0748e-21 -7.92215e-10)
(6.58414e-08 1.29258e-07 -6.44775e-20 -6.48273e-08 -8.36814e-21 -1.01413e-09)
(7.18387e-08 1.21195e-07 2.0051e-19 -7.11042e-08 2.36028e-20 -7.34537e-10)
(8.01821e-08 1.11084e-07 -9.98923e-20 -7.7848e-08 -1.15156e-20 -2.33413e-09)
(1.88179e-08 1.47471e-07 -1.13502e-21 -1.96227e-08 -2.58035e-23 8.04797e-10)
(2.58956e-08 1.44546e-07 -5.22704e-20 -2.7166e-08 -6.07937e-21 1.2704e-09)
(3.30324e-08 1.40838e-07 1.10166e-19 -3.45483e-08 1.30267e-20 1.51585e-09)
(4.01869e-08 1.36441e-07 6.71206e-21 -4.17461e-08 8.14096e-22 1.55919e-09)
(4.70575e-08 1.314e-07 -6.3175e-20 -4.86193e-08 -7.05401e-21 1.56171e-09)
(5.33795e-08 1.25734e-07 7.35976e-20 -5.50635e-08 8.31138e-21 1.68399e-09)
(5.95926e-08 1.19178e-07 -1.40689e-19 -6.13155e-08 -1.63989e-20 1.72292e-09)
(6.45386e-08 1.12401e-07 1.29208e-19 -6.70085e-08 1.43805e-20 2.46989e-09)
(7.17828e-08 1.0496e-07 -1.52421e-19 -7.35693e-08 -1.69641e-20 1.78648e-09)