/*--------------------------------*- C++ -*----------------------------------*\
| =========                 |                                                 |
| \\      /  F ield         | OpenFOAM: The Open Source CFD Toolbox           |
|  \\    /   O peration     | Version:  2506                                  |
|   \\  /    A nd           | Website:  www.openfoam.com                      |
|    \\/     M anipulation  |                                                 |
\*---------------------------------------------------------------------------*/
FoamFile
{
    version     2.0;
    format      ascii;
    arch        "LSB;label=32;scalar=64";
    class       volVectorField;
    location    "450";
    object      U;
}
// * * * * * * * * * * * * * * * * * * * * * * * * * * * * * * * * * * * * * //

dimensions      [0 1 -1 0 0 0 0];

internalField   nonuniform List<vector> 
1340
(
(13.5776 -2.20864 -5.02579e-16)
(11.7316 -2.06547 8.64007e-16)
(9.73195 -1.8144 2.14921e-15)
(3.628 -1.08798 1.55596e-14)
(17.1191 -2.77948 -4.99521e-15)
(15.1492 -2.63254 1.57994e-15)
(13.064 -2.36442 -6.59108e-16)
(7.02283 -1.47009 4.25099e-15)
(20.4315 -3.21343 1.06794e-14)
(18.0248 -3.02194 -2.38981e-15)
(15.5366 -2.65273 -3.71901e-16)
(9.73841 -1.88337 -6.167e-15)
(24.0051 -3.63036 -2.50228e-15)
(21.0744 -3.39192 3.31692e-15)
(18.0878 -2.9098 6.55525e-16)
(12.3188 -2.20184 3.03088e-15)
(27.5891 -3.97637 3.56963e-16)
(24.2472 -3.73113 4.74794e-16)
(20.7883 -3.16231 -4.46901e-17)
(14.9249 -2.46991 -3.72799e-15)
(30.0274 -4.13074 -3.40937e-15)
(27.086 -3.96961 -4.23936e-15)
(23.5157 -3.38271 -3.57868e-17)
(17.5857 -2.7157 1.01822e-15)
(30.2509 -4.01991 6.92514e-15)
(28.613 -4.00915 1.10067e-15)
(25.8273 -3.51153 -6.55106e-17)
(20.1991 -2.92695 6.54097e-16)
(29.3623 -3.79838 -7.5216e-15)
(28.5108 -3.85061 1.75479e-15)
(27.1014 -3.48947 2.31912e-16)
(22.459 -3.06422 1.83656e-15)
(28.8601 -3.62187 2.76288e-15)
(27.8177 -3.641 -1.48789e-15)
(27.2402 -3.33319 -7.51546e-16)
(23.9939 -3.08621 -1.38168e-15)
(28.8609 -3.48973 -1.28681e-15)
(27.4791 -3.48138 1.41202e-15)
(26.8403 -3.13436 2.42278e-16)
(24.709 -2.992 -1.67374e-15)
(28.9713 -3.36171 -7.59559e-16)
(27.5273 -3.35901 -1.86293e-15)
(26.5194 -2.96205 1.02435e-16)
(24.8893 -2.82152 7.48811e-16)
(29.0094 -3.22283 -1.18255e-15)
(27.6674 -3.23544 -1.22087e-15)
(26.4492 -2.82409 -8.70961e-17)
(24.907 -2.62531 1.6019e-15)
(28.9894 -3.07593 4.22724e-15)
(27.746 -3.09611 6.38655e-17)
(26.5163 -2.69897 3.63672e-16)
(24.961 -2.43406 -1.62393e-15)
(28.9582 -2.92474 -5.53496e-15)
(27.7653 -2.94554 1.86567e-15)
(26.5981 -2.57062 1.81655e-16)
(25.0775 -2.25656 1.69923e-15)
(28.934 -2.77 4.1346e-15)
(27.7667 -2.7901 -8.90246e-16)
(26.6525 -2.43482 -7.48574e-16)
(25.2189 -2.08943 -1.64647e-15)
(28.9148 -2.61121 -3.14462e-16)
(27.7729 -2.63214 8.03294e-17)
(26.6879 -2.29398 8.36924e-16)
(25.3553 -1.928 4.9066e-16)
(28.896 -2.44838 -8.07301e-16)
(27.786 -2.47147 3.38387e-16)
(26.7203 -2.15032 1.3393e-17)
(25.4788 -1.77028 -1.47959e-16)
(28.8755 -2.28175 -3.23112e-16)
(27.8018 -2.30763 3.15937e-16)
(26.7572 -2.0048 -7.34995e-16)
(25.593 -1.61606 3.39981e-16)
(28.8534 -2.11171 2.01757e-15)
(27.8174 -2.14076 -7.06209e-16)
(26.7988 -1.85758 -5.47957e-16)
(25.7023 -1.46549 5.06963e-16)
(28.83 -1.93855 -1.9917e-16)
(27.8318 -1.97114 1.42622e-16)
(26.8431 -1.7084 9.94854e-17)
(25.8086 -1.31844 -1.27259e-16)
(28.8051 -1.76264 6.20039e-17)
(27.8449 -1.79924 6.43254e-16)
(26.8884 -1.55739 8.86925e-16)
(25.9122 -1.17478 -1.62984e-16)
(28.7785 -1.58435 1.0221e-15)
(27.8568 -1.62548 -6.68998e-16)
(26.9339 -1.40475 -2.63756e-16)
(26.0123 -1.03389 -3.76581e-17)
(28.7502 -1.40408 -1.99419e-15)
(27.8673 -1.45028 6.47488e-16)
(26.9792 -1.25078 2.45656e-16)
(26.1087 -0.895582 -3.17503e-17)
(28.7198 -1.22235 2.97592e-16)
(27.876 -1.27398 -3.31982e-16)
(27.0237 -1.09563 -3.31198e-16)
(26.201 -0.759257 3.7936e-17)
(28.6873 -1.03965 3.0609e-16)
(27.8827 -1.09708 9.30479e-16)
(27.0669 -0.939722 6.25484e-16)
(26.2891 -0.624736 -1.72928e-16)
(28.6524 -0.856471 5.68396e-16)
(27.8872 -0.919952 -4.54424e-16)
(27.1085 -0.783223 -9.68471e-16)
(26.3729 -0.491684 1.39726e-16)
(28.615 -0.673469 -5.65392e-16)
(27.8891 -0.743174 -1.41813e-15)
(27.1479 -0.62664 -1.06785e-16)
(26.4521 -0.360009 -1.61771e-16)
(28.5751 -0.491138 -5.02659e-16)
(27.8882 -0.567042 7.78655e-16)
(27.1846 -0.470106 -1.58692e-16)
(26.5267 -0.229403 2.9276e-16)
(28.5324 -0.310087 8.5263e-16)
(27.8842 -0.392179 5.57992e-16)
(27.2182 -0.314131 6.74459e-16)
(26.5964 -0.0997409 -2.46921e-16)
(28.487 -0.130964 -9.64291e-16)
(27.8771 -0.218951 -6.26489e-16)
(27.2482 -0.158954 -3.75618e-16)
(26.6611 0.0291029 5.95178e-16)
(28.4388 0.0457089 1.16281e-15)
(27.8666 -0.0479128 9.49353e-16)
(27.2744 -0.00504436 9.79146e-16)
(26.7207 0.157203 -1.05327e-15)
(28.3878 0.219334 -5.53368e-16)
(27.8525 0.120564 -6.29188e-16)
(27.2965 0.147263 -5.94165e-16)
(26.775 0.284452 4.32651e-16)
(28.3341 0.389325 -3.04767e-16)
(27.8349 0.285965 8.67915e-16)
(27.3142 0.297629 -2.47876e-16)
(26.8239 0.410832 -2.41171e-16)
(28.7025 0.741965 1.27925e-15)
(28.2776 0.555209 4.86244e-16)
(27.8136 0.447847 -2.7404e-16)
(27.3273 0.445607 1.01234e-15)
(26.8672 0.536184 1.56326e-16)
(28.611 0.899485 -1.41664e-15)
(28.2186 0.716448 5.04917e-16)
(27.7886 0.605825 -1.11875e-15)
(27.3357 0.590875 -7.01021e-16)
(26.9048 0.66031 -5.38325e-16)
(28.5182 1.05135 3.45629e-16)
(28.1572 0.872621 -5.87428e-16)
(27.7599 0.759486 2.76938e-16)
(27.3394 0.733075 -1.004e-17)
(26.9368 0.783002 1.89397e-16)
(28.4245 1.1972 -2.03796e-16)
(28.0935 1.02334 5.62293e-17)
(27.7277 0.908472 7.50899e-16)
(27.3384 0.871876 3.90838e-16)
(26.9631 0.904011 6.44118e-16)
(28.3302 1.33676 6.24662e-16)
(28.0277 1.16826 -9.80428e-17)
(27.6921 1.05244 -7.63704e-16)
(27.3326 1.00694 5.04535e-16)
(26.9837 1.02305 -2.4133e-16)
(28.2357 1.46981 -8.99633e-16)
(27.9602 1.30711 2.12465e-16)
(27.6532 1.19112 7.49977e-16)
(27.3222 1.13798 1.26482e-16)
(26.9987 1.13983 5.45048e-17)
(28.1412 1.59619 -4.14144e-16)
(27.8912 1.43965 -5.36138e-16)
(27.6112 1.32426 -5.61558e-16)
(27.3074 1.26474 -1.17329e-15)
(27.0083 1.25406 -3.07871e-16)
(28.0471 1.71581 3.65227e-16)
(27.8209 1.56575 -3.35843e-17)
(27.5663 1.45165 2.86813e-16)
(27.2883 1.38695 4.84442e-16)
(27.0125 1.36547 -2.30366e-16)
(27.9537 1.82865 4.47602e-16)
(27.7496 1.6853 8.18518e-16)
(27.5189 1.57316 1.08467e-16)
(27.2652 1.50442 3.84979e-16)
(27.0117 1.47375 -1.30054e-17)
(27.8612 1.93475 -4.92096e-17)
(27.6777 1.79827 -3.83461e-16)
(27.4692 1.68867 -4.71994e-16)
(27.2383 1.61696 4.57723e-17)
(27.0061 1.57866 5.83294e-16)
(27.7699 2.0342 -7.28664e-16)
(27.6053 1.90467 2.83254e-16)
(27.4175 1.79812 3.79876e-16)
(27.208 1.72446 -3.59321e-16)
(26.9958 1.67996 -5.84882e-16)
(27.6801 2.12713 2.61135e-17)
(27.5329 2.00458 4.90151e-16)
(27.3641 1.90152 1.00743e-16)
(27.1745 1.8268 3.01761e-16)
(26.9813 1.77743 2.50424e-17)
(27.7027 2.34157 4.43933e-18)
(27.592 2.21373 -9.87431e-17)
(27.4606 2.09811 -1.56784e-16)
(27.3094 1.99888 5.1536e-16)
(27.1383 1.92393 -4.14013e-16)
(26.9629 1.8709 5.89141e-16)
(27.6039 2.41312 1.14496e-16)
(27.5056 2.29419 1.33872e-16)
(27.3887 2.18542 1.4925e-16)
(27.2536 2.09031 -6.72578e-16)
(27.0996 2.01582 4.26053e-17)
(26.9408 1.96023 -5.04213e-16)
(27.5084 2.47922 -8.72209e-17)
(27.4213 2.36878 2.40999e-16)
(27.3175 2.2667 3.4269e-18)
(27.197 2.1759 -2.86795e-16)
(27.0588 2.10249 4.11779e-16)
(26.9155 2.0453 2.04492e-16)
(27.4161 2.54013 -3.13151e-16)
(27.3391 2.43774 -1.66343e-16)
(27.2471 2.34216 -3.67942e-16)
(27.14 2.25582 3.93217e-16)
(27.0162 2.184 -6.13291e-16)
(26.8872 2.12605 -2.24839e-16)
(27.3271 2.59616 3.70065e-16)
(27.2592 2.50135 6.23768e-17)
(27.1778 2.41206 4.2134e-16)
(27.0827 2.33023 -4.52955e-16)
(26.9721 2.26043 -3.04177e-17)
(26.8564 2.20244 1.51967e-16)
(27.2413 2.64758 -1.48934e-16)
(27.1815 2.5599 1.37353e-16)
(27.1097 2.47664 6.53811e-17)
(27.0255 2.39934 4.6924e-17)
(26.9269 2.3319 1.59124e-16)
(26.8234 2.27447 4.18689e-16)
(27.1588 2.69469 2.48891e-17)
(27.1062 2.61369 -3.4369e-17)
(27.0429 2.53618 -1.32891e-16)
(26.9685 2.46336 3.98216e-17)
(26.8808 2.39854 -1.17624e-16)
(26.7885 2.34218 -3.46224e-16)
(27.0795 2.73776 -6.47973e-16)
(27.0333 2.663 -3.66211e-17)
(26.9776 2.59095 -2.1552e-17)
(26.9119 2.52254 2.40858e-16)
(26.8342 2.46051 3.86744e-16)
(26.752 2.40564 6.23066e-17)
(27.0033 2.77708 1.98472e-16)
(26.9628 2.70811 -7.76996e-17)
(26.9139 2.64124 1.00299e-16)
(26.8561 2.57711 -4.35194e-16)
(26.7872 2.518 -3.12359e-16)
(26.7142 2.46492 -2.96435e-16)
(26.959 2.8775 -1.44954e-16)
(26.9301 2.8129 -2.29272e-16)
(26.8947 2.74932 7.31751e-17)
(26.8518 2.68731 1.62325e-16)
(26.8009 2.62731 2.85834e-16)
(26.7401 2.57119 8.14289e-17)
(26.6755 2.52015 4.90816e-16)
(26.8851 2.90486 2.20646e-16)
(26.8599 2.84549 -1.53295e-16)
(26.8289 2.78689 1.98189e-16)
(26.7914 2.72944 5.33463e-17)
(26.7468 2.67341 -8.49426e-17)
(26.693 2.62029 -2.00627e-16)
(26.636 2.57145 6.271e-17)
(26.8145 2.92965 -1.60806e-16)
(26.7925 2.87508 3.00755e-16)
(26.7655 2.82108 2.58436e-17)
(26.7327 2.76789 -3.93713e-16)
(26.6936 2.71565 3.8669e-16)
(26.6463 2.6655 -1.9307e-16)
(26.5961 2.61898 -2.09745e-16)
(26.7471 2.95208 -2.47136e-16)
(26.7279 2.9019 -5.77384e-18)
(26.7043 2.85213 -3.48271e-17)
(26.6757 2.80292 4.49616e-16)
(26.6415 2.75426 9.73657e-18)
(26.6 2.70703 -3.22705e-16)
(26.5558 2.66289 5.66646e-16)
(26.6826 2.97232 -5.55058e-17)
(26.6659 2.92615 7.50583e-17)
(26.6454 2.88029 4.5855e-17)
(26.6205 2.83477 -1.22823e-16)
(26.5907 2.7895 2.1326e-16)
(26.5542 2.74511 -2.47826e-16)
(26.5155 2.70335 9.37572e-17)
(26.6209 2.99055 -2.45253e-17)
(26.6064 2.94804 -1.63242e-16)
(26.5886 2.90576 1.94988e-17)
(26.567 2.86366 -9.24875e-17)
(26.541 2.82157 3.51378e-17)
(26.5091 2.77992 -2.38237e-16)
(26.4753 2.74054 2.29209e-16)
(26.5619 3.00691 1.08626e-16)
(26.5494 2.96775 -5.72761e-17)
(26.534 2.92875 -7.49096e-17)
(26.5152 2.88981 3.82362e-16)
(26.4927 2.8507 2.74636e-16)
(26.4648 2.81168 -1.86244e-16)
(26.4353 2.77462 2.01553e-17)
(26.5141 3.05787 -1.37957e-17)
(26.5055 3.02157 1.27188e-16)
(26.4947 2.98545 -8.56755e-17)
(26.4814 2.94945 1.32614e-16)
(26.4652 2.91343 -1.3216e-17)
(26.4456 2.8771 5.07044e-17)
(26.4213 2.84057 -3.27451e-17)
(26.3957 2.80578 9.8722e-17)
(26.4591 3.06818 -7.37553e-17)
(26.4518 3.03464 -1.93361e-16)
(26.4425 3.0013 1.60702e-16)
(26.431 2.96805 1.75552e-16)
(26.4169 2.9347 5.53545e-17)
(26.4 2.90096 -2.05364e-16)
(26.3788 2.86679 1.51426e-16)
(26.3566 2.83417 -2.44528e-16)
(26.4069 3.07731 -5.96665e-17)
(26.4006 3.0463 8.63473e-17)
(26.3926 3.01547 9.31233e-18)
(26.3827 2.98472 -2.15521e-16)
(26.3705 2.95383 1.27615e-16)
(26.3559 2.92248 3.9602e-17)
(26.3375 2.89054 1.28833e-16)
(26.3182 2.85999 -3.12389e-17)
(26.3573 3.08533 -1.08055e-16)
(26.3519 3.0566 5.74064e-17)
(26.345 3.02807 -3.1837e-17)
(26.3365 2.9996 -1.48884e-16)
(26.326 2.97097 4.75763e-16)
(26.3134 2.94183 -3.36776e-16)
(26.2974 2.91197 -1.44338e-16)
(26.2808 2.88339 -3.66844e-17)
(26.3101 3.09238 1.25273e-16)
(26.3056 3.06572 -8.17523e-18)
(26.2998 3.03926 5.15396e-17)
(26.2925 3.01287 -1.24441e-16)
(26.2835 2.98631 -8.87392e-17)
(26.2726 2.95921 5.54784e-17)
(26.2588 2.93129 6.96746e-17)
(26.2444 2.90457 9.32356e-17)
(26.2654 3.09834 7.2527e-17)
(26.2616 3.07356 -9.45798e-18)
(26.2567 3.049 -1.74474e-16)
(26.2505 3.02451 -2.43065e-18)
(26.2429 2.99985 1.39691e-16)
(26.2336 2.97463 -2.85225e-16)
(26.2217 2.94854 6.18967e-17)
(26.2093 2.92357 -1.69258e-16)
(26.2288 3.10275 1.30988e-16)
(26.2255 3.07941 -1.40553e-16)
(26.2212 3.05633 2.27039e-16)
(26.2157 3.03334 -5.96808e-17)
(26.209 3.01019 -7.30495e-17)
(26.2007 2.98651 -6.32728e-17)
(26.1902 2.96194 2.26793e-16)
(26.1792 2.93847 -9.74786e-17)
(26.2014 3.12864 -2.7271e-17)
(26.1992 3.10614 -7.36105e-17)
(26.1962 3.08397 2.62259e-17)
(26.1921 3.06209 4.2409e-17)
(26.1871 3.04031 -1.1833e-16)
(26.1808 3.0184 7.29941e-17)
(26.1732 2.996 2.47738e-16)
(26.1635 2.97271 -3.01858e-16)
(26.1534 2.95055 1.39286e-16)
(26.1713 3.1304 -7.30262e-18)
(26.1694 3.10897 2.22173e-17)
(26.1666 3.08791 -1.55191e-16)
(26.1629 3.06715 8.46321e-17)
(26.1583 3.04653 5.72521e-17)
(26.1525 3.0258 2.7834e-17)
(26.1455 3.00461 -2.09661e-16)
(26.1366 2.98255 7.90414e-17)
(26.1274 2.9616 1.23878e-16)
(26.1408 3.13234 1.75443e-18)
(26.139 3.11209 1.38017e-16)
(26.1366 3.09223 1.15774e-16)
(26.1333 3.07269 -4.28994e-17)
(26.1291 3.05331 3.00818e-17)
(26.1239 3.03383 -7.96379e-17)
(26.1176 3.01392 1.64319e-16)
(26.1094 2.99317 -5.40589e-16)
(26.1009 2.97358 2.37093e-16)
(26.1108 3.13249 1.41432e-19)
(26.1092 3.11308 1.24633e-16)
(26.107 3.09408 -2.60354e-16)
(26.1041 3.07544 -1.6394e-17)
(26.1003 3.057 1.48196e-16)
(26.0956 3.03853 -1.78184e-16)
(26.0898 3.01968 3.49182e-16)
(26.0825 2.99998 -3.434e-16)
(26.0751 2.98132 3.48869e-16)
(26.0798 3.13577 -3.31352e-17)
(26.0785 3.11778 -8.72389e-17)
(26.0766 3.1002 1.19648e-16)
(26.0741 3.08295 7.40995e-17)
(26.0708 3.06589 -3.54535e-16)
(26.0667 3.04876 2.37368e-16)
(26.0616 3.03126 2.12923e-16)
(26.0549 3.01306 -9.0096e-17)
(26.0476 2.99615 -1.19957e-16)
(26.0523 3.12985 -1.72006e-17)
(26.0512 3.11195 -2.9571e-17)
(26.0497 3.09453 7.37096e-17)
(26.0474 3.07757 -5.53085e-18)
(26.0443 3.06091 -9.93724e-17)
(26.0405 3.04432 -1.40668e-16)
(26.0359 3.02745 2.12439e-16)
(26.0303 3.00963 -2.66313e-17)
(26.0251 2.99273 4.1817e-17)
(26.0191 3.14335 3.11061e-17)
(26.0183 3.12792 -2.60825e-17)
(26.0172 3.11285 -1.13355e-16)
(26.0156 3.09807 -2.43833e-17)
(26.0134 3.08344 1.76596e-17)
(26.0106 3.06874 2.0821e-17)
(26.0068 3.05373 3.38242e-17)
(26.0009 3.03839 -4.45634e-17)
(25.9938 3.02461 7.9334e-17)
(26.0015 3.1117 -1.84234e-17)
(26.001 3.09419 -5.82128e-17)
(25.9999 3.07738 -2.76726e-17)
(25.9981 3.06121 6.1412e-17)
(25.9957 3.04556 2.01815e-17)
(25.9927 3.03013 -9.5516e-18)
(25.9893 3.01452 1.22953e-16)
(25.9864 2.99754 -6.09352e-17)
(25.985 2.98133 -9.30253e-17)
(25.9556 3.17327 1.58574e-16)
(25.9558 3.16142 -5.82178e-17)
(25.9559 3.14966 1.79835e-17)
(25.9558 3.13797 -1.97259e-16)
(25.9553 3.1263 -5.47939e-17)
(25.9541 3.11453 2.07998e-16)
(25.9517 3.10257 1.4463e-16)
(25.9455 3.09129 -1.77714e-16)
(25.9363 3.08171 2.37131e-17)
(25.9683 3.0624 4.86726e-17)
(25.9693 3.04191 1.29114e-17)
(25.969 3.02279 7.52107e-18)
(25.9682 3.00481 1.12446e-16)
(25.9668 2.9878 -1.34724e-16)
(25.9649 2.97163 1.68656e-16)
(25.9628 2.95586 -1.8283e-17)
(25.9613 2.94003 -1.87673e-16)
(25.964 2.92166 -7.5821e-17)
(25.9702 2.90484 1.79289e-17)
(25.8756 3.29032 7.52155e-18)
(25.8766 3.28482 4.92827e-18)
(25.8781 3.27767 -6.2248e-18)
(25.88 3.27038 -5.64991e-17)
(25.8818 3.26316 -4.24994e-17)
(25.8834 3.25581 2.341e-17)
(25.884 3.2484 -2.6858e-17)
(25.8827 3.24095 -2.63692e-17)
(25.8735 3.23637 4.3654e-17)
(25.8589 3.23123 6.31548e-17)
(26.0056 2.85597 -3.70117e-18)
(26.0054 2.8316 -8.30258e-17)
(26.007 2.80852 3.7563e-17)
(26.0106 2.78651 2.1632e-16)
(26.0135 2.76563 -3.95218e-16)
(26.0152 2.74572 1.15767e-16)
(26.0173 2.72615 4.10104e-16)
(26.0219 2.70634 -3.92785e-16)
(26.0358 2.68457 6.58579e-17)
(26.058 2.66617 -1.17016e-17)
(12.6985 0.749054 2.55049e-17)
(9.66014 0.435282 -1.11708e-18)
(9.40641 0.191135 -4.12164e-17)
(10.787 0.0239613 -1.70671e-18)
(12.8959 -0.0706847 6.18724e-18)
(15.3179 -0.119222 -9.13455e-18)
(17.8458 -0.136959 -9.01609e-19)
(20.2651 -0.141657 1.28309e-18)
(22.2501 -0.150109 2.53026e-18)
(23.4677 -0.173864 8.79032e-18)
(23.8985 -0.211372 -2.91751e-18)
(23.9696 -0.257028 1.08721e-17)
(24.0486 -0.301918 -2.19014e-18)
(24.2007 -0.337153 2.45455e-18)
(24.3853 -0.358492 -1.05496e-17)
(24.5655 -0.366027 9.08545e-18)
(24.7298 -0.361502 1.35801e-17)
(24.8815 -0.346161 -5.48814e-18)
(25.0258 -0.32096 -1.44962e-17)
(25.1651 -0.286813 4.57391e-18)
(25.2998 -0.244731 1.15414e-18)
(25.4293 -0.195068 2.34365e-17)
(25.5532 -0.139221 -3.10102e-17)
(25.6714 -0.0772506 1.24838e-17)
(25.7837 -0.0102828 -1.7094e-17)
(25.8901 0.0615768 1.04448e-17)
(25.9908 0.137624 -1.6918e-17)
(26.0857 0.217558 1.31548e-19)
(26.1748 0.300858 -1.97407e-17)
(26.2581 0.387031 -2.63474e-17)
(26.3357 0.475763 -9.46195e-18)
(26.4075 0.566601 1.72517e-19)
(26.4735 0.65926 3.86272e-18)
(26.5337 0.753432 6.79958e-19)
(26.588 0.848749 2.54416e-17)
(26.6365 0.944896 8.15673e-19)
(26.6792 1.04155 1.72796e-18)
(26.7161 1.13832 -1.91997e-17)
(26.7471 1.23487 -2.63195e-18)
(26.7726 1.33082 2.45602e-18)
(26.7924 1.42583 -3.16495e-17)
(26.8069 1.51951 -2.07129e-16)
(26.8161 1.61154 1.24942e-17)
(26.8202 1.70157 2.46777e-17)
(26.8196 1.7893 -1.48989e-17)
(26.8145 1.87444 -4.60891e-18)
(26.8051 1.95675 1.42897e-16)
(26.7919 2.03599 -2.67332e-17)
(26.775 2.11199 2.433e-17)
(26.7548 2.18461 1.87723e-17)
(26.7318 2.25373 -6.94714e-17)
(26.7061 2.31928 1.5673e-16)
(26.6782 2.38123 7.79009e-18)
(26.6483 2.43956 -2.28683e-17)
(26.6168 2.49431 -1.32981e-16)
(26.5838 2.54553 1.01324e-16)
(26.5498 2.5933 7.80236e-19)
(26.515 2.6377 -1.51409e-16)
(26.4796 2.67885 -1.40045e-17)
(26.4437 2.71688 4.55097e-17)
(26.4076 2.7519 -2.70037e-16)
(26.3715 2.78407 6.65528e-17)
(26.3355 2.81353 -2.06503e-19)
(26.2998 2.84042 3.61802e-18)
(26.2647 2.86489 -2.06246e-16)
(26.2305 2.88715 1.04571e-16)
(26.1973 2.90717 -4.27936e-20)
(26.1686 2.92294 6.06864e-18)
(26.1438 2.93582 6.42998e-19)
(26.1188 2.94753 -3.04553e-16)
(26.0931 2.96059 -7.58276e-17)
(26.0685 2.96855 3.04591e-17)
(26.0412 2.98526 8.10856e-17)
(26.0207 2.98064 -2.42077e-19)
(25.988 3.01663 -1.162e-19)
(25.9835 2.96876 5.82445e-19)
(25.9302 3.07799 6.05595e-17)
(25.9726 2.8907 5.04234e-18)
(25.8524 3.23196 -3.19038e-17)
(26.068 2.65489 1.82383e-19)
(18.4329 1.08643 -2.55948e-17)
(15.8076 0.845998 4.48586e-18)
(14.3116 0.604075 2.18645e-17)
(14.1913 0.410716 7.98905e-18)
(15.1409 0.290473 -5.14301e-18)
(16.7318 0.233142 2.40634e-17)
(18.6501 0.226523 6.73115e-18)
(20.6603 0.260975 -1.9174e-18)
(22.5039 0.321006 -4.84666e-17)
(23.8584 0.381933 -6.0714e-17)
(24.4803 0.420027 1.98359e-17)
(24.5488 0.431506 -2.63033e-17)
(24.5248 0.431675 -1.0293e-17)
(24.584 0.431967 -4.59616e-18)
(24.6911 0.432143 1.70889e-17)
(24.8028 0.431111 -1.2604e-17)
(24.905 0.429466 -1.59233e-17)
(25.0001 0.428408 5.34794e-18)
(25.0931 0.429164 1.14831e-17)
(25.187 0.432816 -1.88079e-17)
(25.2819 0.439933 -1.45009e-17)
(25.377 0.451494 -5.6616e-18)
(25.4713 0.467513 1.60872e-17)
(25.5644 0.488842 -4.52518e-19)
(25.6556 0.515228 -8.62669e-20)
(25.7448 0.547058 -2.81286e-18)
(25.8315 0.583992 8.89811e-18)
(25.9153 0.626083 -1.27924e-17)
(25.9959 0.673161 7.57987e-18)
(26.073 0.724952 -5.32138e-18)
(26.1464 0.78125 -4.25705e-18)
(26.2157 0.841646 8.53704e-18)
(26.2809 0.905808 -2.51285e-17)
(26.3417 0.97338 4.04434e-19)
(26.3979 1.04392 1.89975e-17)
(26.4495 1.11705 2.00346e-17)
(26.4962 1.19237 -1.78788e-17)
(26.538 1.26941 -2.71162e-17)
(26.5749 1.34782 -2.01288e-18)
(26.6068 1.42712 6.6519e-17)
(26.6337 1.50695 -6.05819e-18)
(26.6556 1.58685 1.85856e-16)
(26.6727 1.66646 1.07868e-17)
(26.6849 1.74538 4.10545e-17)
(26.6926 1.82324 -1.34852e-17)
(26.6957 1.89969 -7.76651e-17)
(26.6946 1.97441 -1.29494e-16)
(26.6895 2.04712 -2.56968e-17)
(26.6805 2.11754 1.96812e-17)
(26.6681 2.18546 3.04491e-17)
(26.6524 2.25069 3.78294e-17)
(26.6338 2.31308 4.00798e-17)
(26.6125 2.3725 3.79478e-17)
(26.5889 2.42888 -8.74325e-18)
(26.5632 2.48217 -2.69498e-18)
(26.5357 2.53236 -2.10632e-16)
(26.5067 2.57945 8.56965e-19)
(26.4764 2.62348 1.24811e-16)
(26.4452 2.66451 5.57035e-18)
(26.4132 2.70262 -4.85146e-17)
(26.3806 2.7379 1.6534e-16)
(26.3476 2.77044 -1.28166e-16)
(26.3144 2.80036 2.53828e-16)
(26.2812 2.82779 4.29629e-18)
(26.2485 2.85283 -5.76919e-17)
(26.2162 2.87569 2.64775e-18)
(26.1848 2.89634 -5.24513e-20)
(26.1576 2.91262 7.49188e-18)
(26.1339 2.92602 7.92665e-19)
(26.11 2.93811 1.85149e-16)
(26.0852 2.95194 7.39609e-17)
(26.0617 2.95993 -3.08175e-17)
(26.0353 2.97805 -8.23713e-17)
(26.0157 2.9725 -8.03528e-17)
(25.984 3.01136 -6.12934e-17)
(25.9795 2.96059 5.28932e-17)
(25.929 3.07515 -6.1804e-17)
(25.9677 2.88265 -3.45067e-18)
(25.8567 3.23079 8.07337e-19)
(21.1402 1.27162 -4.96186e-18)
(19.3321 1.13332 9.20575e-19)
(17.7554 0.963681 -8.90685e-19)
(16.8624 0.797881 -1.60248e-18)
(16.8447 0.670341 -1.55967e-17)
(17.613 0.595017 4.6133e-19)
(18.9295 0.569004 -4.64182e-18)
(20.5485 0.583912 -4.33067e-18)
(22.2341 0.62913 6.44614e-18)
(23.7177 0.687263 1.99976e-17)
(24.6976 0.733208 -7.39576e-18)
(25.0317 0.748171 -9.46904e-18)
(25.0099 0.741073 1.52847e-17)
(24.9995 0.735653 -2.15543e-18)
(25.0641 0.737277 1.61664e-17)
(25.1442 0.742035 -2.68025e-17)
(25.2122 0.748218 -1.01303e-17)
(25.2704 0.755659 1.55838e-17)
(25.3256 0.764553 4.00056e-17)
(25.3816 0.775176 1.21525e-17)
(25.4395 0.787383 2.10097e-17)
(25.499 0.801438 5.05517e-19)
(25.5596 0.81728 -7.04159e-18)
(25.6209 0.835371 -4.11427e-17)
(25.6826 0.855701 3.28827e-17)
(25.7446 0.878723 8.06206e-18)
(25.8067 0.904485 5.36369e-18)
(25.8686 0.933313 1.22636e-17)
(25.9298 0.965393 -1.4978e-17)
(25.9902 1.00083 6.22969e-18)
(26.0494 1.03979 -1.92979e-18)
(26.1069 1.08223 1.5547e-18)
(26.1625 1.12813 5.09319e-19)
(26.2159 1.17742 2.53753e-19)
(26.2666 1.22989 7.95976e-18)
(26.3144 1.28537 -1.88101e-17)
(26.359 1.3436 2.39386e-17)
(26.4002 1.40427 2.20725e-18)
(26.4377 1.46708 -1.55964e-18)
(26.4714 1.53165 -6.22095e-17)
(26.501 1.59767 -3.59758e-17)
(26.5266 1.66471 -1.40835e-16)
(26.5481 1.73244 9.09264e-18)
(26.5654 1.80046 2.92207e-17)
(26.5785 1.8684 1.03088e-17)
(26.5875 1.93591 -1.12944e-17)
(26.5925 2.00264 1.05846e-16)
(26.5936 2.06825 -2.31813e-17)
(26.5911 2.13247 2.58234e-17)
(26.5849 2.195 -2.11005e-17)
(26.5755 2.25561 -1.47452e-17)
(26.5629 2.31409 -1.2053e-17)
(26.5475 2.37026 4.77691e-18)
(26.5296 2.42399 -1.2279e-16)
(26.5092 2.47515 -7.17993e-17)
(26.4868 2.52367 1.82798e-16)
(26.4625 2.56951 8.31975e-19)
(26.4367 2.61264 -2.46547e-16)
(26.4096 2.65307 -1.31298e-17)
(26.3813 2.69083 5.09855e-17)
(26.3522 2.72597 4.4644e-19)
(26.3223 2.75855 6.04538e-17)
(26.292 2.78864 -4.26033e-16)
(26.2614 2.81635 -8.70582e-17)
(26.231 2.84175 2.38738e-16)
(26.2008 2.86503 3.96755e-17)
(26.1713 2.88615 1.51048e-17)
(26.1455 2.90283 7.53491e-18)
(26.1231 2.91666 7.99021e-19)
(26.1004 2.92905 1.02691e-16)
(26.0767 2.94356 2.13318e-16)
(26.0543 2.95153 -2.40427e-19)
(26.0289 2.97093 -8.12321e-17)
(26.01 2.96456 1.40211e-16)
(25.98 3.00596 6.09677e-17)
(25.9743 2.95278 1.94999e-16)
(25.9287 3.0718 1.80247e-17)
(25.9608 2.87539 -1.60658e-16)
(22.6116 1.42461 2.62472e-18)
(21.3088 1.3453 2.42994e-19)
(19.965 1.23963 -9.41356e-18)
(18.8585 1.12165 3.2855e-18)
(18.2483 1.01437 3.43793e-18)
(18.2788 0.938299 1.08338e-19)
(18.9265 0.904419 3.36525e-18)
(20.0437 0.912718 -2.56875e-19)
(21.4366 0.956288 1.11123e-18)
(22.8878 1.02269 -1.64512e-17)
(24.1382 1.09169 5.63337e-18)
(24.9178 1.13699 -1.08029e-18)
(25.1627 1.14371 1.28355e-17)
(25.1516 1.1273 -1.48691e-17)
(25.1611 1.11135 -5.50593e-18)
(25.2257 1.1016 -1.38507e-17)
(25.2945 1.09497 -1.1915e-18)
(25.3489 1.08983 -2.31457e-18)
(25.3956 1.08653 -2.73097e-17)
(25.4416 1.0858 -1.17085e-17)
(25.489 1.08776 -9.12715e-18)
(25.5373 1.09249 -2.42934e-17)
(25.5862 1.09985 2.40217e-17)
(25.6353 1.10994 1.0337e-18)
(25.6846 1.12262 -8.84187e-20)
(25.7339 1.13801 -8.46977e-18)
(25.7834 1.15602 -1.56983e-17)
(25.8329 1.17672 2.23118e-18)
(25.8823 1.20014 1.8061e-17)
(25.9315 1.22627 -1.78171e-17)
(25.9803 1.25519 3.07399e-18)
(26.0284 1.2869 5.45573e-20)
(26.0757 1.32141 7.41638e-19)
(26.1218 1.35875 -1.50482e-20)
(26.1666 1.39886 8.21264e-18)
(26.2096 1.44168 -1.10386e-17)
(26.2507 1.48711 -6.72673e-19)
(26.2894 1.535 -1.49522e-17)
(26.3257 1.5852 -2.03272e-17)
(26.3591 1.63746 1.1771e-18)
(26.3895 1.69155 1.14299e-17)
(26.4167 1.74719 2.34573e-17)
(26.4405 1.80411 7.66317e-18)
(26.4609 1.86196 1.0656e-17)
(26.4776 1.92043 -1.37996e-17)
(26.4908 1.97921 2.74038e-17)
(26.5003 2.03795 -9.69294e-18)
(26.5063 2.09634 -2.06585e-17)
(26.5087 2.15408 1.95311e-17)
(26.5078 2.21087 5.11711e-17)
(26.5035 2.26644 -3.31755e-17)
(26.4962 2.32055 -1.11271e-17)
(26.4859 2.37298 -4.38014e-17)
(26.4729 2.42354 1.06369e-16)
(26.4573 2.47208 6.66028e-17)
(26.4395 2.51847 -1.77992e-16)
(26.4196 2.5626 7.93879e-19)
(26.3979 2.60441 2.19483e-16)
(26.3746 2.64386 -5.71454e-17)
(26.3499 2.68092 -5.40611e-17)
(26.3241 2.71561 -1.37128e-16)
(26.2973 2.74795 5.59561e-17)
(26.2697 2.77796 3.99372e-16)
(26.2417 2.80574 1.4867e-16)
(26.2135 2.83132 -1.81323e-16)
(26.1854 2.85486 8.79308e-17)
(26.1577 2.87632 -6.55709e-17)
(26.1335 2.89331 7.42846e-18)
(26.1122 2.90752 7.89927e-19)
(26.0906 2.92013 -5.6068e-18)
(26.0681 2.93528 -2.14699e-16)
(26.0467 2.94321 -2.40133e-19)
(26.0225 2.96381 2.03199e-17)
(26.0041 2.95667 -1.36584e-16)
(25.9759 3.00044 2.68329e-16)
(25.9693 2.94509 -4.26317e-18)
(25.9278 3.06826 -8.09916e-19)
(23.7137 1.58127 -1.22487e-18)
(22.7518 1.52808 3.96538e-19)
(21.6638 1.45515 1.50121e-19)
(20.6007 1.36623 6.34903e-19)
(19.7467 1.2738 -3.89177e-18)
(19.2804 1.19335 4.55894e-18)
(19.3171 1.13994 -1.8252e-18)
(19.8605 1.12305 -4.68455e-19)
(20.8131 1.14396 3.89225e-18)
(22.0199 1.19719 -9.71586e-18)
(23.2862 1.27085 -1.61354e-18)
(24.3709 1.34484 -1.67595e-17)
(25.0434 1.39445 -1.04244e-17)
(25.2703 1.40801 -2.35897e-18)
(25.2778 1.39981 1.98735e-18)
(25.2875 1.39022 1.28899e-17)
(25.3375 1.38466 2.17623e-18)
(25.3908 1.38064 -6.66619e-18)
(25.4326 1.37654 1.63134e-18)
(25.4693 1.37285 3.22953e-19)
(25.5068 1.3703 7.56933e-18)
(25.5464 1.36929 3.35331e-17)
(25.5871 1.36991 -8.23249e-18)
(25.6283 1.37237 3.79173e-19)
(25.6698 1.37679 -8.31045e-18)
(25.7117 1.38342 1.11805e-19)
(25.7538 1.39234 -5.98534e-19)
(25.7961 1.40369 1.82173e-19)
(25.8385 1.41757 7.64032e-18)
(25.8809 1.43404 -2.69068e-18)
(25.9231 1.45316 4.92337e-18)
(25.965 1.47493 4.23129e-18)
(26.0065 1.49938 -3.60309e-18)
(26.0473 1.52649 3.86527e-19)
(26.0872 1.55624 6.14317e-18)
(26.1261 1.58858 6.59222e-18)
(26.1636 1.62345 1.06434e-18)
(26.1996 1.66074 -4.39866e-18)
(26.2338 1.70037 2.49152e-17)
(26.266 1.74217 -3.8209e-18)
(26.2959 1.786 -6.22346e-18)
(26.3233 1.83163 1.0276e-17)
(26.348 1.87887 1.85117e-17)
(26.3699 1.92746 2.98862e-17)
(26.3888 1.97715 -4.17848e-17)
(26.4046 2.02767 5.23412e-18)
(26.4173 2.07871 -8.56609e-18)
(26.4268 2.13 -1.84851e-17)
(26.433 2.18124 1.76848e-17)
(26.4361 2.23215 -2.60718e-18)
(26.4361 2.28247 -4.16198e-17)
(26.433 2.33192 -1.04053e-17)
(26.4271 2.38027 9.28435e-18)
(26.4183 2.42731 -7.43228e-18)
(26.407 2.47284 -2.34232e-18)
(26.3933 2.5167 1.52389e-16)
(26.3774 2.55874 7.75188e-19)
(26.3595 2.59886 -1.15016e-16)
(26.3398 2.63697 2.70683e-19)
(26.3185 2.67302 -1.57002e-18)
(26.2958 2.70695 9.12512e-18)
(26.272 2.73878 -3.73231e-18)
(26.2471 2.76848 -2.2739e-16)
(26.2216 2.79611 -8.0487e-17)
(26.1957 2.82168 1.63902e-16)
(26.1696 2.84532 -8.56008e-17)
(26.1438 2.86699 5.02238e-17)
(26.1211 2.88418 1.12117e-16)
(26.101 2.89869 -1.44531e-16)
(26.0806 2.91146 -2.64958e-16)
(26.0592 2.92716 -9.83037e-19)
(26.0388 2.93503 -2.50578e-19)
(26.0157 2.95675 -7.44799e-17)
(25.998 2.94888 7.5134e-17)
(25.9714 2.99487 -7.18996e-18)
(25.9642 2.9375 -4.36769e-18)
(24.5527 1.72515 -6.37441e-20)
(23.8718 1.68835 2.9897e-19)
(23.0209 1.63578 1.50148e-18)
(22.0918 1.56757 5.25863e-19)
(21.2019 1.49029 3.25483e-18)
(20.4893 1.41302 -2.97481e-18)
(20.0924 1.34749 6.85474e-19)
(20.11 1.30589 -3.9181e-19)
(20.5609 1.29656 1.089e-17)
(21.3786 1.32128 1.73463e-17)
(22.4369 1.37559 -1.49047e-18)
(23.5613 1.44835 1.00857e-18)
(24.5333 1.52076 4.41932e-18)
(25.1555 1.57093 1.20606e-17)
(25.3935 1.58891 2.27013e-18)
(25.4206 1.58612 -2.13198e-18)
(25.426 1.58016 -1.93456e-18)
(25.4603 1.57741 1.10267e-18)
(25.5004 1.57629 2.74158e-18)
(25.5326 1.57528 8.45862e-18)
(25.5607 1.57443 2.04597e-18)
(25.5898 1.57429 -2.42559e-18)
(25.6208 1.57508 -1.06566e-17)
(25.6527 1.57689 2.83983e-17)
(25.6851 1.57977 -1.56824e-17)
(25.718 1.58388 -5.02748e-19)
(25.7514 1.58938 8.63193e-19)
(25.7853 1.59643 -9.51804e-20)
(25.8196 1.60519 -6.41987e-18)
(25.8543 1.61581 -4.7198e-19)
(25.8893 1.62843 -1.07571e-17)
(25.9245 1.64315 8.88439e-19)
(25.9597 1.66009 4.16846e-18)
(25.9947 1.6793 2.29514e-19)
(26.0293 1.70085 3.92989e-18)
(26.0635 1.72475 2.62616e-18)
(26.0969 1.751 -7.55866e-18)
(26.1293 1.77956 -1.03779e-17)
(26.1606 1.81039 -1.4822e-17)
(26.1905 1.84339 8.60525e-18)
(26.2187 1.87847 6.66833e-18)
(26.2451 1.91548 1.52279e-17)
(26.2695 1.95427 -6.73258e-18)
(26.2916 1.99465 -2.04055e-17)
(26.3113 2.03643 -4.70069e-18)
(26.3285 2.07937 1.52544e-17)
(26.343 2.12325 -7.49304e-18)
(26.3548 2.1678 -1.6394e-17)
(26.3637 2.21278 1.58907e-17)
(26.3697 2.25792 2.7656e-17)
(26.3729 2.30296 3.70139e-17)
(26.3733 2.34765 -9.68726e-18)
(26.3709 2.39175 4.67961e-17)
(26.3658 2.43503 -7.06443e-18)
(26.3581 2.47728 -2.24785e-18)
(26.3481 2.51832 -1.47869e-16)
(26.3357 2.55796 7.57206e-19)
(26.3213 2.59608 8.93955e-17)
(26.3049 2.63255 5.27693e-17)
(26.2868 2.66727 -1.56942e-18)
(26.2671 2.70018 2.01163e-16)
(26.2461 2.73123 -3.78059e-18)
(26.2239 2.76038 -2.43925e-19)
(26.2008 2.78764 -4.13004e-17)
(26.1771 2.81302 -8.85348e-18)
(26.1531 2.83658 -3.08094e-17)
(26.1292 2.85831 -5.56753e-20)
(26.108 2.87558 -9.61022e-17)
(26.0891 2.89031 1.45763e-16)
(26.0699 2.90315 4.14768e-18)
(26.0497 2.91933 -1.41107e-16)
(26.0303 2.92709 4.83787e-17)
(26.0085 2.94982 1.31518e-16)
(25.9915 2.94126 -3.90913e-19)
(25.111 1.85169 -4.90651e-19)
(24.6912 1.82886 2.38917e-19)
(24.0744 1.79265 3.30255e-19)
(23.3196 1.74181 3.52327e-19)
(22.5041 1.6799 1.55937e-19)
(21.724 1.61179 -4.62112e-20)
(21.0918 1.54478 4.33892e-19)
(20.7229 1.48884 -2.47719e-19)
(20.7068 1.45439 -4.15755e-19)
(21.0726 1.44905 -1.20441e-18)
(21.7757 1.47498 3.47511e-19)
(22.7116 1.52847 -8.89851e-19)
(23.7246 1.59921 1.67842e-18)
(24.6199 1.66992 -2.92041e-19)
(25.2218 1.72105 1.35077e-18)
(25.4833 1.74279 4.35113e-19)
(25.5318 1.74324 -2.546e-18)
(25.5341 1.73815 7.52582e-19)
(25.5553 1.73523 1.93306e-18)
(25.5861 1.73428 -5.88683e-19)
(25.6131 1.73385 -1.25411e-18)
(25.6368 1.73367 -1.94621e-18)
(25.6608 1.73412 1.60799e-18)
(25.686 1.73543 -1.24203e-18)
(25.7119 1.73765 1.52893e-18)
(25.738 1.74079 -5.5797e-19)
(25.7644 1.74497 4.92373e-18)
(25.7913 1.75028 -3.95862e-18)