/*--------------------------------*- C++ -*----------------------------------*\
| =========                 |                                                 |
| \\      /  F ield         | OpenFOAM: The Open Source CFD Toolbox           |
|  \\    /   O peration     | Version:  2506                                  |
|   \\  /    A nd           | Website:  www.openfoam.com                      |
|    \\/     M anipulation  |                                                 |
\*---------------------------------------------------------------------------*/
FoamFile
{
    version     2.0;
    format      ascii;
    arch        "LSB;label=32;scalar=64";
    class       volVectorField;
    location    "50";
    object      momentError;
}
// * * * * * * * * * * * * * * * * * * * * * * * * * * * * * * * * * * * * * //

dimensions      [0 1 -2 0 0 0 0];

internalField   nonuniform List<vector> 
1340
(
(1.62849 -10.1087 -6.61424e-15)
(1.53703 -10.1622 -6.49664e-15)
(1.06543 -8.7487 -1.67891e-15)
(0.46015 -8.5817 2.57934e-14)
(-0.517615 -7.95563 3.50766e-16)
(-1.48356 -7.18448 -2.43633e-14)
(-2.27191 -6.45994 3.58484e-14)
(-2.75764 -5.75232 -5.69131e-14)
(-3.06225 -5.16467 -1.03139e-13)
(-3.28473 -4.6447 1.63839e-13)
(-3.41618 -4.11038 6.39277e-14)
(-3.49826 -3.61863 -1.26986e-13)
(-3.50119 -3.07325 -1.92011e-13)
(-3.72373 -2.85157 -3.56712e-14)
(-3.98662 -2.67196 -8.80149e-14)
(-4.32523 -2.58989 -1.99061e-13)
(-4.71749 -2.5619 -9.72337e-14)
(-5.12336 -2.49145 5.46357e-13)
(-5.5301 -2.38426 2.86095e-13)
(-6.06789 -2.3137 -3.97823e-13)
(-6.97021 -2.36692 6.96927e-14)
(-8.13742 -2.37549 9.65796e-14)
(-7.86756 -2.14181 -4.07341e-14)
(-5.38847 -1.40316 -7.01721e-14)
(-2.60915 -0.421543 9.6211e-15)
(-0.74851 0.243829 3.70697e-15)
(-1.58616 0.10203 1.57308e-15)
(-0.38411 0.0887019 7.18174e-15)
(-0.67802 0.0229882 2.46989e-14)
(-0.742249 -0.00705924 3.66627e-14)
(-0.192247 -0.146175 -2.81044e-14)
(0.268313 -0.119284 -6.33393e-15)
(-0.901575 0.19234 -9.71041e-14)
(-2.65592 0.527334 -1.58722e-13)
(-2.40883 0.363196 5.31098e-14)
(1.83238 -9.43652 -2.03059e-14)
(2.22271 -7.55952 5.18229e-14)
(2.46362 -5.25167 -2.56717e-16)
(2.1287 -2.80736 4.01335e-14)
(0.919413 -0.456115 -4.8061e-14)
(0.220388 0.236617 -3.44252e-14)
(0.710489 -0.738282 -1.88006e-14)
(-0.0706152 -7.37815 -2.15262e-14)
(-0.593085 -7.40126 -5.67116e-15)
(-1.16576 -6.58138 -1.37344e-14)
(-2.03423 -6.73276 2.12376e-14)
(-2.9006 -6.5078 1.34723e-15)
(-3.6313 -6.07709 -7.05774e-15)
(-4.23316 -5.56777 3.52858e-14)
(-4.57012 -5.00315 2.64294e-14)
(-4.7483 -4.44841 3.04751e-15)
(-4.90785 -3.91208 8.17102e-14)
(-5.00349 -3.3978 -1.1079e-13)
(-5.02421 -2.89768 -5.44698e-14)
(-5.02694 -2.52384 2.49018e-13)
(-4.83836 -1.9233 7.5491e-14)
(-4.66891 -1.49204 -7.22462e-14)
(-4.70473 -1.01921 -7.63359e-15)
(-4.85574 -0.601688 2.16639e-13)
(-5.08742 -0.11329 -1.09193e-13)
(-5.43049 0.403095 -3.18025e-13)
(-6.05765 0.866317 1.25061e-13)
(-7.67477 1.06741 1.50563e-13)
(-11.1763 0.668566 3.45834e-14)
(-16.8583 -0.540434 -1.11603e-13)
(-20.5189 -1.62457 1.23207e-13)
(-17.4839 -1.64275 -4.11311e-14)
(-11.6703 -0.868983 7.0469e-15)
(-5.78484 -0.146778 -1.68109e-14)
(-3.58353 0.134018 1.18136e-14)
(-3.4003 0.129782 2.89238e-14)
(-3.16269 -0.0102065 6.092e-14)
(-1.29427 -0.337835 -5.68929e-14)
(1.08621 -0.372873 -3.57257e-14)
(-2.24714 0.64753 -1.10935e-13)
(-7.00442 1.344 -3.12559e-13)
(-2.32537 -0.116676 8.26517e-14)
(0.384286 -6.9498 -5.52646e-16)
(0.977222 -5.73535 1.84912e-13)
(1.42474 -4.15369 -1.87333e-14)
(1.54059 -2.62216 -1.61141e-13)
(1.09689 -1.14165 2.60096e-14)
(0.877202 -0.752284 5.05598e-14)
(0.453891 -6.3792 -1.29922e-14)
(0.21801 -6.45644 1.46217e-14)
(-0.140109 -5.79188 1.68031e-14)
(-0.82076 -5.97612 -1.81629e-14)
(-1.53274 -5.84333 -1.10719e-15)
(-2.15138 -5.5661 1.65343e-14)
(-2.64869 -5.3002 -2.36169e-14)
(-2.95699 -4.93698 -2.27278e-14)
(-3.16061 -4.51417 -5.32844e-14)
(-3.34515 -4.09994 8.32404e-15)
(-3.48458 -3.68282 1.16031e-13)
(-3.59898 -3.28285 4.40155e-14)
(-3.68239 -2.91762 -6.16394e-14)
(-3.73207 -2.61678 -1.38618e-13)
(-3.80531 -2.34155 6.83829e-14)
(-3.79257 -2.13725 8.98567e-14)
(-3.78329 -1.94555 -6.06535e-14)
(-3.75489 -1.56587 -1.18789e-13)
(-3.58171 -1.06775 2.04154e-13)
(-3.11541 -0.50318 -6.00354e-14)
(-2.33915 0.201806 -7.42563e-14)
(-1.64268 1.25282 1.07499e-13)
(-2.78824 2.19585 6.53538e-14)
(-7.59523 1.93485 -4.89631e-15)
(-13.4233 0.582562 -2.38417e-14)
(-17.2069 -0.789139 -2.84766e-14)
(-16.3317 -0.9835 -1.46425e-14)
(-11.2264 -0.466713 2.6729e-15)
(-6.68691 0.0227893 -3.32476e-14)
(-4.68061 -0.00852208 -3.27561e-14)
(-2.7628 -0.328614 4.16372e-14)
(-1.14875 -0.00908493 2.2142e-14)
(-5.29735 1.45343 -1.2542e-13)
(-8.29649 1.27578 1.76419e-13)
(-2.23751 -0.879765 -5.46688e-14)
(0.652894 -5.90817 4.4994e-14)
(0.880391 -4.88931 -3.89115e-14)
(1.08711 -3.62725 -1.41347e-13)
(1.19304 -2.51759 4.46701e-14)
(1.04704 -1.43749 -5.70057e-14)
(1.00687 -1.21948 -4.09065e-14)
(0.102735 -5.43142 1.16025e-14)
(-0.249102 -5.51079 -6.39044e-15)
(-0.613793 -5.02115 9.55899e-15)
(-1.25663 -5.19234 -7.28245e-15)
(-1.82758 -5.04791 -2.48697e-14)
(-2.27897 -4.80264 -9.53517e-15)
(-2.66733 -4.57185 1.42076e-14)
(-2.93437 -4.23317 2.10767e-14)
(-3.13367 -3.84433 -4.73946e-14)
(-3.31357 -3.48208 -5.00201e-14)
(-3.43697 -3.13363 5.5093e-14)
(-3.5376 -2.81505 1.30557e-13)
(-3.61124 -2.52538 7.85302e-14)
(-3.6632 -2.25728 -2.64852e-13)
(-3.71388 -1.97688 -9.7079e-14)
(-3.73186 -1.70484 2.30116e-13)
(-4.01274 -1.1988 5.71546e-14)
(-4.30216 -0.725587 -8.00159e-14)
(-4.53703 -0.23196 -1.47571e-13)
(-4.66336 0.245564 1.25679e-13)
(-4.55547 0.744972 3.02157e-14)
(-3.73563 1.5071 -1.3802e-13)
(-1.66317 2.70142 1.00339e-13)
(0.121423 3.56334 -7.73079e-14)
(-1.14733 3.30762 -1.13367e-14)
(-6.0531 1.83613 1.13331e-14)
(-12.1321 -0.0646522 -2.36335e-14)
(-14.0036 -0.902674 8.76585e-15)
(-11.2749 -0.604563 -4.01101e-15)
(-7.22832 -0.310557 -2.99978e-15)
(-4.53087 -0.333122 1.44411e-14)
(-4.06606 0.555821 1.41193e-14)
(-7.81554 2.16213 1.14417e-13)
(-8.59775 0.859444 -6.3497e-14)
(-1.52202 -2.05057 3.41038e-14)
(0.413885 -4.99331 2.33773e-14)
(0.699257 -4.18703 -3.6234e-14)
(0.934119 -3.18293 -2.0366e-14)
(1.0653 -2.32942 -8.60599e-15)
(1.04319 -1.62145 4.99102e-14)
(0.0300271 -4.69413 -4.83041e-15)
(-0.298325 -4.7681 1.28755e-14)
(-0.617248 -4.39447 -9.24104e-15)
(-1.20617 -4.55735 1.44037e-14)
(-1.68622 -4.42563 2.2877e-14)
(-2.03839 -4.21871 -4.6094e-15)
(-2.3614 -4.05116 -1.77697e-14)
(-2.59024 -3.78188 -3.7534e-15)
(-2.76898 -3.48023 -2.15261e-14)
(-2.92582 -3.20306 -4.74282e-14)
(-3.03174 -2.92957 1.0497e-14)
(-3.12248 -2.67086 -7.22379e-14)
(-3.20477 -2.41718 6.808e-15)
(-3.27729 -2.1536 1.91912e-13)
(-3.34122 -1.87621 -1.30835e-13)
(-3.40684 -1.56667 -1.02172e-13)
(-3.44393 -1.30584 5.86516e-14)
(-3.5909 -1.08652 -8.16068e-14)
(-3.72459 -0.812117 5.4801e-14)
(-3.85257 -0.523336 -9.07992e-14)
(-3.99572 -0.22848 -1.07287e-13)
(-4.08258 0.173389 1.19857e-13)
(-3.53914 0.93251 -2.47775e-14)
(-1.63826 2.00926 5.34921e-14)
(0.892056 2.95699 3.57373e-14)
(1.74357 2.97529 7.44445e-15)
(-0.721395 1.61735 6.22153e-14)
(-5.76926 -0.0716147 -1.00988e-14)
(-9.61754 -0.730604 1.46715e-14)
(-9.67264 -0.678241 -3.84231e-14)
(-7.40137 -0.391952 -7.19404e-14)
(-7.47389 1.07527 3.30851e-14)
(-9.64288 2.63988 7.82103e-14)
(-7.55298 0.115854 -9.04861e-14)
(-0.0602408 -3.40763 -2.43204e-14)
(0.334275 -4.30425 2.36003e-14)
(0.589394 -3.65013 2.25892e-14)
(0.805576 -2.83763 -2.77323e-14)
(0.939351 -2.16671 6.6727e-14)
(0.985799 -1.68757 1.67094e-13)
(-0.0859304 -4.09376 7.03628e-16)
(-0.399526 -4.16777 3.65038e-15)
(-0.681425 -3.86488 3.54146e-15)
(-1.21164 -3.99254 2.07282e-16)
(-1.61802 -3.87495 8.71955e-16)
(-1.89416 -3.69648 -1.71081e-14)
(-2.16499 -3.56352 -1.27971e-15)
(-2.36575 -3.34613 9.08728e-15)
(-2.52652 -3.10624 1.31945e-14)
(-2.66836 -2.88695 -9.45895e-15)
(-2.76045 -2.66387 -4.8893e-15)
(-2.83482 -2.45282 3.70396e-14)
(-2.90523 -2.24819 -6.88417e-14)
(-2.96273 -2.03605 -1.49701e-13)
(-3.01746 -1.81599 9.87571e-14)
(-3.06591 -1.58361 1.5346e-13)
(-3.08955 -1.36989 -2.09978e-13)
(-3.32115 -1.03853 3.74142e-14)
(-3.55412 -0.669439 7.12934e-14)
(-3.74438 -0.252375 -7.33386e-14)
(-3.88193 0.179649 5.64736e-14)
(-3.95313 0.613381 -5.86927e-14)
(-3.91756 1.05736 -1.02381e-13)
(-3.38122 1.5361 -2.87534e-14)
(-1.74556 2.11935 -7.14073e-14)
(0.701758 2.48776 4.71351e-14)
(1.81526 1.9556 -9.41645e-15)
(0.584408 0.771346 -8.34517e-15)
(-2.81194 -0.124891 1.86178e-14)
(-7.02307 -0.562633 -1.79857e-15)
(-9.25771 -0.360251 1.93008e-15)
(-11.2037 1.38336 -2.76212e-14)
(-11.4327 2.74028 -4.97825e-14)
(-6.03743 -0.790726 -1.22834e-13)
(1.6405 -4.67004 6.75593e-14)
(0.21539 -3.75096 1.12894e-14)
(0.466158 -3.21124 -2.84566e-14)
(0.679912 -2.54565 1.41034e-14)
(0.826211 -2.00186 -5.0023e-14)
(-0.179807 -3.58193 4.06242e-15)
(-0.479629 -3.65307 1.10678e-15)
(-0.733002 -3.40899 -7.6586e-15)
(-1.21192 -3.5077 -5.21699e-15)
(-1.56805 -3.39676 1.63665e-14)
(-1.80619 -3.25209 9.29477e-15)
(-2.0502 -3.14867 -2.30455e-15)
(-2.22933 -2.95676 2.13928e-15)
(-2.36938 -2.74754 -4.0616e-15)
(-2.49541 -2.55913 1.54389e-14)
(-2.57534 -2.36963 -3.10312e-14)
(-2.63576 -2.19594 -6.69649e-14)
(-2.69022 -2.03165 4.7016e-14)
(-2.73249 -1.86096 1.99184e-13)
(-2.77376 -1.68311 -1.86405e-14)
(-2.80966 -1.48984 -2.27066e-13)
(-2.84406 -1.26263 1.93534e-13)
(-2.93605 -1.08778 1.42393e-13)
(-3.13432 -0.848077 8.00721e-14)
(-3.29965 -0.51 3.77768e-14)
(-3.43411 -0.0803084 -1.68707e-14)
(-3.47292 0.451078 9.79121e-14)
(-3.39646 1.03157 6.76115e-14)
(-3.24028 1.48811 -9.17387e-15)
(-2.78669 1.78648 1.29449e-13)
(-1.5864 1.92034 -4.40347e-14)
(-0.0674257 1.59489 -4.88229e-15)
(0.601968 0.866394 2.50181e-15)
(0.133655 0.279449 -7.7426e-15)
(-1.82766 -0.0644043 -4.59991e-15)
(-6.05423 0.013675 -4.66521e-15)
(-12.3119 1.50671 6.40624e-15)
(-13.0303 2.40637 -5.79368e-14)
(-4.67028 -1.80838 -6.54834e-14)
(3.37374 -5.7757 1.05271e-14)
(0.115219 -3.28775 -1.01744e-14)
(0.35803 -2.84323 1.15209e-14)
(0.570542 -2.28961 -1.79559e-14)
(0.726684 -1.84033 -5.39695e-15)
(-0.24906 -3.14709 2.60404e-15)
(-0.540154 -3.21334 5.65665e-15)
(-0.762355 -3.01069 2.6778e-15)
(-1.18075 -3.08946 -7.72707e-15)
(-1.50923 -2.98729 6.97914e-15)
(-1.71918 -2.8578 -1.14514e-14)
(-1.94355 -2.77272 -6.06148e-15)
(-2.11036 -2.61413 -6.20877e-15)
(-2.23586 -2.43893 5.14403e-15)
(-2.34809 -2.27558 3.18137e-14)
(-2.42009 -2.10965 2.30577e-14)
(-2.47567 -1.96125 1.94315e-14)
(-2.5235 -1.82264 -9.20085e-14)
(-2.55664 -1.67867 -2.23484e-13)
(-2.58768 -1.52766 -1.63343e-13)
(-2.61395 -1.35731 6.69786e-14)
(-2.6274 -1.16927 -4.38073e-14)
(-2.69164 -0.936134 -2.3082e-13)
(-2.90881 -0.671757 -1.25186e-13)
(-3.07726 -0.305507 1.02141e-13)
(-3.21134 0.129986 1.01929e-13)
(-3.23864 0.623035 -5.17677e-14)
(-3.09521 1.14054 -2.66979e-14)
(-2.83087 1.53666 1.47003e-14)
(-2.56965 1.70665 -3.65574e-14)
(-2.18182 1.65154 3.88194e-14)
(-1.53781 1.27932 5.07299e-15)
(-0.951855 0.689216 2.4107e-15)
(-0.67216 0.252831 -6.9092e-15)
(-0.320747 0.164079 3.55381e-14)
(-0.599468 0.543653 1.51255e-14)
(-7.38225 1.59051 3.46751e-14)
(-12.1024 1.76769 4.98831e-14)
(-3.7028 -2.8378 3.23175e-14)
(4.78704 -6.68218 -6.72707e-14)
(0.0323462 -2.89713 8.22572e-15)
(0.262801 -2.52916 -1.20347e-14)
(0.47339 -2.0664 -6.19888e-15)
(0.63051 -1.68591 8.04252e-14)
(-0.297287 -2.77594 3.72788e-15)
(-0.60339 -2.90759 8.1167e-15)
(-0.78546 -2.66355 -1.40408e-15)
(-1.1532 -2.72674 -1.44322e-14)
(-1.46086 -2.68672 -8.87055e-15)
(-1.62175 -2.52357 1.00039e-14)
(-1.85078 -2.44987 2.07794e-15)
(-2.00191 -2.31871 -2.52548e-15)
(-2.10511 -2.17243 1.66104e-16)
(-2.20593 -2.03663 2.93268e-16)
(-2.27295 -1.88757 -1.00038e-14)
(-2.32701 -1.75291 6.45153e-14)
(-2.37455 -1.62645 6.58547e-14)
(-2.40474 -1.49515 2.24483e-14)
(-2.42951 -1.35922 1.49745e-13)
(-2.44449 -1.20964 -3.35811e-14)
(-2.44832 -1.03461 1.13427e-15)
(-2.45381 -0.849735 1.30629e-13)
(-2.62596 -0.650374 6.38107e-14)
(-2.77475 -0.346549 -1.78952e-14)
(-2.89827 0.0506257 -7.80331e-14)
(-2.93951 0.51269 -1.07366e-14)
(-2.83821 0.988556 -5.90005e-14)
(-2.57872 1.35628 -5.68606e-14)
(-2.26689 1.51515 3.39845e-14)
(-1.99753 1.44538 -2.05445e-14)
(-1.79298 1.09804 -3.5055e-14)
(-1.64165 0.605072 6.18525e-15)
(-1.61492 0.218659 -1.53614e-15)
(-1.52667 0.138157 1.36839e-14)
(0.80457 0.765908 5.2598e-14)
(0.449083 1.88451 -1.93601e-14)
(-6.81478 1.15201 4.51159e-14)
(-2.64536 -3.65751 1.31733e-13)
(5.37753 -7.25238 1.13581e-14)
(-0.0359637 -2.56373 -1.63072e-14)
(0.184619 -2.25834 -4.37795e-14)
(0.389588 -1.8669 6.21372e-14)
(-1.34086 -2.32849 -1.66301e-14)
(-1.55515 -2.29418 -4.52598e-15)
(-1.76176 -2.20079 -4.83135e-15)
(-1.88444 -2.05854 -5.56068e-15)
(-1.99658 -1.93629 5.7695e-15)
(-2.09439 -1.82508 -2.42615e-15)
(-2.14871 -1.69109 9.67718e-15)
(-2.19691 -1.56384 -1.88746e-14)
(-2.24267 -1.44183 -5.91582e-14)
(-2.27277 -1.31593 1.83128e-14)
(-2.29479 -1.18882 8.99462e-15)
(-2.30207 -1.05248 2.89781e-14)
(-2.29445 -0.899187 -4.52527e-16)
(-2.27758 -0.735585 -5.55088e-14)
(-2.39417 -0.552623 -8.62508e-14)
(-2.53793 -0.289904 -7.69705e-14)
(-2.64736 0.0588612 -4.42857e-14)
(-2.68775 0.458527 -3.64794e-14)
(-2.61702 0.854865 9.53805e-15)
(-2.41435 1.1548 4.39504e-14)
(-2.12467 1.28849 -2.38861e-14)
(-1.83421 1.24843 -1.13382e-14)
(-1.67216 0.989933 2.68247e-14)
(-1.68379 0.633317 1.96251e-15)
(-1.76031 0.356889 1.46955e-14)
(-2.28758 0.203176 -2.88708e-14)
(-0.991336 0.758514 -5.38694e-14)
(2.86738 1.98801 -6.67904e-14)
(-0.324635 0.81332 4.70823e-14)
(-1.1399 -4.02921 3.88239e-14)
(4.65216 -7.27065 -2.55518e-14)
(-1.60032 -1.923 6.90732e-15)
(-1.81807 -1.87579 -4.47427e-16)
(-1.88499 -1.73444 -1.31164e-14)
(-1.98853 -1.62921 7.62538e-15)
(-2.05434 -1.51288 1.95907e-15)
(-2.08446 -1.39401 9.85274e-15)
(-2.12119 -1.2779 3.11041e-14)
(-2.14937 -1.15656 -9.47214e-16)
(-2.17002 -1.03317 1.81879e-14)
(-2.17385 -0.903019 -2.73149e-14)
(-2.15939 -0.762682 -3.2379e-14)
(-2.12984 -0.614833 3.81915e-14)
(-2.18204 -0.464605 7.77887e-14)
(-2.31499 -0.254562 4.06635e-14)
(-2.41063 0.0410095 2.80367e-14)
(-2.45288 0.38833 2.16705e-14)
(-2.40843 0.735059 4.21072e-14)
(-2.26086 1.00135 -2.38932e-14)
(-2.03362 1.12789 -3.73656e-14)
(-1.77631 1.12258 5.64092e-15)
(-1.59141 0.958726 -1.14457e-14)
(-1.60304 0.723564 -4.99511e-15)
(-1.62092 0.586331 -2.51759e-14)
(-2.07238 0.440121 1.07156e-14)
(-2.34898 0.786247 2.50264e-14)
(1.44585 1.84978 1.0507e-13)
(2.929 0.739488 -2.57783e-14)
(-0.0247012 -3.86145 -7.26801e-14)
(2.20673 -6.66251 1.72534e-14)
(-1.72685 -1.51576 -1.63895e-14)
(-1.93844 -1.48843 -1.86087e-14)
(-1.96486 -1.33013 -2.33086e-15)
(-1.99449 -1.23051 -1.24301e-14)
(-2.01258 -1.12299 3.35596e-14)
(-2.0337 -1.01014 -1.71652e-14)
(-2.05018 -0.891077 -7.59499e-14)
(-2.05363 -0.764688 5.29763e-14)
(-2.03713 -0.632241 6.18085e-14)
(-2.00017 -0.497013 -2.16004e-15)
(-2.00085 -0.360388 -9.61802e-14)
(-2.12374 -0.185324 -8.08139e-14)
(-2.20619 0.0665741 4.42421e-14)
(-2.2489 0.362916 6.83189e-14)
(-2.22379 0.661263 -2.48225e-14)
(-2.11607 0.900842 -1.3274e-14)
(-1.9396 1.02969 -6.16505e-15)
(-1.73506 1.05584 -2.83047e-15)
(-1.56055 0.96976 -7.08579e-15)
(-1.54795 0.818887 1.08784e-15)
(-1.54784 0.774262 2.42041e-16)
(-1.64078 0.710261 -7.10675e-15)
(-2.32759 0.896346 -3.55251e-15)
(-0.522384 1.69324 -9.35544e-15)
(2.58764 0.705072 -1.44184e-13)
(-0.00649471 -3.35905 -8.99006e-15)
(-1.59893 -5.62926 3.97569e-14)
(-1.71724 -1.24926 -3.01739e-14)
(-1.90227 -1.20176 1.34897e-14)
(-1.917 -1.06685 4.59348e-14)
(-1.92493 -0.975616 -3.56611e-14)
(-1.92005 -0.874663 -2.92879e-14)
(-1.93102 -0.76438 4.6141e-14)
(-1.93496 -0.644624 -8.35698e-14)
(-1.9196 -0.520472 7.63864e-15)
(-1.88112 -0.39398 1.23858e-13)
(-1.84025 -0.273294 5.23612e-14)
(-1.94944 -0.130992 9.24469e-14)
(-2.02024 0.0813139 -1.96474e-14)
(-2.06228 0.334531 -6.32621e-14)
(-2.05263 0.592039 1.46966e-14)
(-1.97736 0.808047 3.34487e-14)
(-1.83919 0.938989 2.56854e-14)
(-1.67751 0.986925 2.72053e-15)
(-1.53158 0.953907 1.41272e-14)
(-1.49962 0.861138 -1.06302e-15)
(-1.5309 0.851619 9.76362e-15)
(-1.43641 0.865294 7.27673e-17)
(-1.7704 0.974946 -2.3715e-15)
(-1.26856 1.49316 -7.51005e-14)
(1.29426 0.593015 6.80824e-15)
(0.0208174 -2.86786 1.36478e-13)
(-4.02342 -4.626 1.07571e-13)
(-1.70946 -1.00671 1.72792e-15)
(-1.86138 -0.942997 -1.3558e-15)
(-1.84761 -0.834854 2.30533e-14)
(-1.8137 -0.746517 -1.41297e-14)
(-1.80932 -0.646828 3.35457e-14)
(-1.81691 -0.537434 1.27595e-13)
(-1.80277 -0.422841 -4.14718e-14)
(-1.76641 -0.304699 -3.54919e-14)
(-1.71051 -0.196922 1.53333e-14)
(-1.79053 -0.0771799 -2.23833e-14)
(-1.85747 0.100271 9.00955e-15)
(-1.89731 0.314715 9.18694e-15)
(-1.89787 0.532863 -1.71349e-14)
(-1.84767 0.720005 -7.21653e-15)
(-1.74013 0.842278 -1.78903e-14)
(-1.60894 0.896463 3.84917e-15)
(-1.49167 0.889358 2.28487e-15)
(-1.44814 0.833723 9.21328e-16)
(-1.49356 0.828207 1.1378e-15)
(-1.40932 0.867326 -1.04342e-14)
(-1.38372 0.940293 5.69048e-15)
(-1.19085 1.22847 5.15969e-14)
(0.357945 0.384463 6.90576e-14)
(0.067707 -2.50787 -1.39937e-13)
(-3.92588 -3.93122 -2.18832e-13)
(-1.61986 -0.862347 1.68348e-14)
(-1.74597 -0.804083 8.98442e-15)
(-1.73347 -0.705691 -6.59688e-15)
(-1.72488 -0.630095 1.16101e-14)
(-1.71413 -0.538942 1.32022e-15)
(-1.71122 -0.44238 -2.20906e-14)
(-1.69208 -0.339423 3.56361e-14)
(-1.6564 -0.230222 -9.27883e-14)
(-1.60157 -0.131381 -1.32897e-13)
(-1.64411 -0.0296782 -5.67226e-14)
(-1.712 0.118578 1.06451e-14)
(-1.75041 0.30171 5.54092e-15)
(-1.75859 0.487818 1.69578e-14)
(-1.72804 0.648257 2.71151e-14)
(-1.64703 0.756388 -1.54248e-14)
(-1.54012 0.807056 -1.30928e-14)
(-1.4459 0.806892 6.52751e-16)
(-1.40078 0.769323 -5.04654e-15)
(-1.43184 0.757049 3.9399e-15)
(-1.40561 0.777389 3.66939e-14)
(-1.26565 0.811285 3.51502e-14)
(-0.9859 0.928416 -3.83425e-15)
(-0.107795 0.114647 -1.54476e-14)
(-0.188254 -2.27902 4.02516e-14)
(-3.14559 -3.47715 1.7239e-13)
(-1.55069 -0.660374 1.32934e-15)
(-1.67372 -0.604765 -4.27349e-15)
(-1.65687 -0.517406 1.59363e-14)
(-1.63765 -0.441922 -2.7974e-15)
(-1.61117 -0.357084 -8.85257e-14)
(-1.58637 -0.265829 -2.81401e-14)
(-1.55123 -0.167094 1.11231e-13)
(-1.49952 -0.0764353 3.67289e-15)
(-1.51244 0.0110546 3.45997e-14)
(-1.58208 0.136252 8.38065e-15)
(-1.61975 0.295164 5.15444e-14)
(-1.6333 0.456622 1.19082e-14)
(-1.61726 0.595792 -7.23312e-15)
(-1.55844 0.690611 6.4451e-18)
(-1.4735 0.736498 1.48312e-14)
(-1.39759 0.738007 -5.25012e-15)
(-1.35866 0.708339 4.13681e-15)
(-1.37161 0.688577 -1.27781e-16)
(-1.37077 0.679096 -4.52956e-15)
(-1.26004 0.667322 -3.41332e-14)
(-0.925016 0.659267 -3.21817e-14)
(-0.341184 -0.134525 3.89283e-15)
(-0.59473 -2.12057 6.95621e-14)
(-2.83065 -3.13457 -5.50208e-14)
(-1.50014 -0.485534 5.09793e-16)
(-1.59899 -0.426064 8.63031e-15)
(-1.56934 -0.349819 -1.37319e-14)
(-1.51995 -0.278202 2.92067e-15)
(-1.48028 -0.198909 -2.13079e-14)
(-1.44889 -0.111981 -6.39361e-14)
(-1.40149 -0.0291915 5.12706e-14)
(-1.39086 0.045764 -1.9418e-14)
(-1.46339 0.152078 -3.74618e-14)
(-1.50268 0.292138 -5.94772e-14)
(-1.52153 0.435131 -2.111e-14)
(-1.51658 0.558171 -2.25058e-14)
(-1.47502 0.642002 2.75612e-14)
(-1.40926 0.683335 6.13685e-15)
(-1.34875 0.686855 -1.28834e-14)
(-1.31835 0.66279 4.83137e-15)
(-1.32391 0.640176 1.2721e-14)
(-1.32201 0.613146 -2.72767e-14)
(-1.25901 0.566012 -2.88621e-14)
(-0.973411 0.468461 1.27229e-14)
(-0.527124 -0.295865 1.04141e-14)
(-0.94252 -1.94153 -3.73547e-14)
(-2.87992 -2.77918 -5.45554e-14)
(-1.41905 -0.398269 -1.01765e-14)
(-1.50587 -0.334088 -1.55465e-14)
(-1.47055 -0.26698 2.87351e-14)
(-1.4332 -0.206734 1.71857e-14)
(-1.39332 -0.136782 1.30081e-14)
(-1.35761 -0.0623417 5.45972e-14)
(-1.31161 0.0114925 -3.26095e-14)
(-1.28135 0.0750694 5.36877e-14)
(-1.35596 0.166282 3.32379e-15)
(-1.3969 0.291658 8.60983e-15)
(-1.42094 0.420875 6.86925e-14)
(-1.42522 0.531961 1.49333e-14)
(-1.39748 0.607001 -2.7973e-14)
(-1.34773 0.643452 -2.02156e-14)
(-1.30071 0.648035 2.295e-15)
(-1.27792 0.62848 -2.0926e-15)
(-1.28417 0.606488 -2.0034e-15)
(-1.27836 0.576713 7.20092e-15)
(-1.24369 0.514402 3.08735e-14)
(-1.04864 0.361792 1.65389e-14)
(-0.715259 -0.347818 3.11444e-14)
(-1.18684 -1.69014 4.74937e-15)
(-2.95964 -2.36386 4.90474e-15)
(-1.34262 -0.254557 -1.94975e-14)
(-1.41838 -0.196715 -1.66457e-14)
(-1.37871 -0.140174 3.01912e-15)
(-1.31805 -0.0822911 -3.69639e-14)
(-1.26683 -0.0188338 -5.23933e-14)
(-1.22556 0.0471466 1.06134e-14)
(-1.18426 0.101029 -1.16424e-14)
(-1.25264 0.179308 3.68744e-14)
(-1.29828 0.292279 -3.50406e-14)
(-1.32824 0.411241 -5.72722e-14)
(-1.34117 0.513894 -1.10622e-14)
(-1.32518 0.58227 1.54686e-14)
(-1.28907 0.614182 1.15553e-14)
(-1.25437 0.618104 8.64015e-15)
(-1.23825 0.601045 -6.71324e-16)
(-1.24725 0.579281 -1.52157e-15)
(-1.24401 0.551465 2.30383e-15)
(-1.22696 0.487527 -9.5596e-15)
(-1.11192 0.313757 -8.80282e-15)
(-0.889755 -0.309587 -4.30681e-16)
(-1.36755 -1.37444 3.83635e-15)
(-2.95946 -1.92343 3.71727e-14)
(-1.2685 -0.193731 -5.02561e-14)
(-1.33166 -0.132001 -2.45184e-14)
(-1.28843 -0.0825093 8.23916e-15)
(-1.24081 -0.0348956 -9.657e-15)
(-1.19257 0.0213869 2.89389e-14)
(-1.15025 0.0786017 5.04578e-14)
(-1.10651 0.12364 -9.74173e-15)
(-1.15857 0.189371 -2.98862e-14)
(-1.20936 0.291068 2.96949e-14)
(-1.24347 0.402472 -2.54584e-14)
(-1.26358 0.499981 2.8652e-14)
(-1.25742 0.564333 -5.01492e-16)
(-1.23286 0.593141 2.32073e-15)
(-1.20949 0.596365 -2.7462e-15)
(-1.20011 0.580664 -1.83902e-16)
(-1.21181 0.557925 1.4458e-15)
(-1.21533 0.529651 3.65348e-16)
(-1.21534 0.467886 2.66211e-15)
(-1.15923 0.297182 7.17064e-15)
(-1.03537 -0.22139 -2.95509e-14)
(-1.51399 -1.04328 -2.83201e-14)
(-2.90841 -1.52032 3.16378e-14)
(-1.18592 -0.0816477 -3.5415e-14)
(-1.23588 -0.0300372 3.07258e-14)
(-1.19335 0.0113276 2.57817e-14)
(-1.13082 0.0569205 -1.00955e-14)
(-1.07614 0.105148 -3.12472e-15)
(-1.03532 0.143634 -5.84099e-15)
(-1.06989 0.198051 -4.64815e-14)
(-1.12609 0.288909 8.22399e-15)
(-1.16483 0.393912 6.39698e-14)
(-1.19146 0.488552 -2.1624e-14)
(-1.19352 0.55131 -8.34543e-15)
(-1.17848 0.578579 -2.05385e-14)
(-1.16526 0.581629 4.09122e-15)
(-1.16306 0.56713 -2.32917e-15)
(-1.17824 0.543554 -7.90226e-15)
(-1.18989 0.513007 -1.24995e-14)
(-1.20742 0.452666 -1.99007e-15)
(-1.1939 0.296046 1.15326e-14)
(-1.14947 -0.120924 3.55207e-14)
(-1.63514 -0.747312 2.36635e-14)
(-2.85198 -1.1928 -3.35222e-14)
(-1.12038 -0.0424454 4.99345e-14)
(-1.15902 0.0143654 2.24905e-14)
(-1.1116 0.0508189 -2.8516e-14)
(-1.06266 0.0884653 -1.33678e-15)
(-1.01442 0.130756 2.21162e-14)
(-0.973564 0.162686 -1.6625e-14)
(-0.991064 0.205449 4.77992e-14)
(-1.05028 0.285898 4.83525e-14)
(-1.09313 0.385111 -1.61334e-14)
(-1.12551 0.478161 7.68608e-15)
(-1.13445 0.541124 1.1046e-14)
(-1.12693 0.568511 1.78479e-14)
(-1.12205 0.572079 2.14944e-16)
(-1.12686 0.559128 -4.32414e-15)
(-1.14642 0.535971 4.75788e-15)
(-1.16621 0.504852 1.0125e-14)
(-1.19948 0.446792 -1.06296e-14)
(-1.21924 0.305919 -1.42483e-14)
(-1.23995 -0.0284366 -3.63195e-14)
(-1.73452 -0.510668 -4.42792e-14)
(-2.79914 -0.938612 4.46319e-15)
(-1.03582 0.0416788 1.49072e-14)
(-1.06451 0.0896852 3.1277e-14)
(-1.0235 0.121743 7.85789e-15)
(-0.966126 0.154221 5.27213e-15)
(-0.912723 0.179957 -1.83649e-14)
(-0.916504 0.21302 -3.29157e-14)
(-0.977263 0.284284 -1.99685e-14)
(-1.02411 0.378157 -1.80595e-14)
(-1.06231 0.470229 -2.15271e-14)
(-1.07787 0.534474 -1.56171e-14)
(-1.07702 0.562959 -1.15666e-14)
(-1.07925 0.567344 -3.91656e-16)
(-1.09081 0.555904 7.31897e-15)
(-1.11523 0.534234 -1.56519e-15)
(-1.14311 0.505163 -8.637e-16)
(-1.18974 0.451422 8.6811e-15)
(-1.23746 0.324948 -1.05655e-14)
(-1.3134 0.0534858 -5.83238e-14)
(-1.81169 -0.323916 -3.28626e-14)
(-2.74483 -0.723089 -3.69853e-16)
(-0.978467 0.0694589 3.51162e-15)
(-1.0109 0.120483 -8.78654e-15)
(-0.963745 0.147949 1.37315e-15)
(-0.901595 0.17469 -8.80709e-15)
(-0.852369 0.197101 2.97131e-14)
(-0.846477 0.221737 1.74403e-14)
(-0.90846 0.284626 -2.32178e-14)
(-0.959185 0.373303 3.50633e-15)
(-1.00353 0.464524 1.48306e-14)
(-1.02551 0.5306 -1.8657e-15)
(-1.03039 0.561046 6.31432e-15)
(-1.03814 0.567085 2.02208e-15)
(-1.0551 0.557549 -3.015e-15)
(-1.08394 0.538214 -1.85731e-15)
(-1.11916 0.512764 -2.16465e-15)
(-1.17745 0.465112 -6.93936e-15)
(-1.24954 0.352665 -4.52618e-15)
(-1.37256 0.132432 3.2804e-14)
(-1.86346 -0.162047 4.86911e-14)
(-2.68045 -0.507438 7.28328e-15)
(-0.917408 0.0930175 4.54607e-15)
(-0.940556 0.145118 -7.90812e-15)
(-0.897448 0.171229 -8.04725e-15)
(-0.850825 0.19367 -1.74616e-14)
(-0.807284 0.214437 4.94392e-15)
(-0.789194 0.231783 -1.78973e-14)
(-0.848143 0.287429 2.12256e-14)
(-0.899887 0.371155 1.56981e-14)
(-0.949251 0.460841 -6.61356e-15)
(-0.977659 0.528307 2.78035e-15)
(-0.987865 0.561084 -2.44678e-15)
(-1.00019 0.569846 -2.59365e-15)
(-1.02104 0.563447 2.87996e-16)
(-1.05312 0.547688 3.39887e-15)
(-1.09459 0.526902 5.1563e-15)
(-1.1626 0.486085 1.1932e-14)
(-1.25541 0.389278 2.70578e-15)
(-1.41558 0.21739 2.48199e-14)
(-1.88434 -0.00207739 3.386e-15)
(-2.60281 -0.272848 -3.2573e-14)
(-0.838905 0.159381 -5.60803e-14)
(-0.853118 0.19833 -1.84338e-14)
(-0.820786 0.213154 -9.73183e-15)
(-0.774203 0.229823 1.71525e-15)
(-0.736351 0.241236 1.99453e-14)
(-0.791044 0.291331 -9.03565e-15)
(-0.842565 0.370685 -2.32572e-14)
(-0.895728 0.458752 -2.00917e-15)
(-0.93008 0.527232 1.09684e-14)
(-0.945901 0.562446 4.28295e-15)
(-0.962621 0.574537 6.25585e-17)
(-0.987039 0.572483 -2.41504e-15)
(-1.02197 0.561604 5.10021e-17)
(-1.06905 0.546571 -5.20697e-15)
(-1.14469 0.513591 -3.21652e-15)
(-1.25377 0.435587 3.22654e-14)
(-1.43954 0.312497 9.66376e-15)
(-1.87339 0.16316 -8.91154e-15)
(-2.51177 -0.0264655 2.69005e-14)
(-0.790044 0.175777 2.23226e-14)
(-0.810433 0.21633 1.58653e-14)
(-0.775032 0.227846 -1.1724e-14)
(-0.72487 0.242982 -1.2259e-14)
(-0.685268 0.252556 1.19929e-14)
(-0.732707 0.296908 -1.16708e-15)
(-0.786315 0.370725 1.16287e-14)
(-0.844012 0.456536 4.50467e-15)
(-0.884117 0.525967 -5.22476e-15)
(-0.904676 0.564172 -5.072e-15)
(-0.924859 0.58081 1.36544e-15)
(-0.951648 0.584287 1.80852e-15)
(-0.988865 0.57965 1.24197e-17)
(-1.04061 0.57141 -1.91708e-15)
(-1.12184 0.547859 -3.29517e-15)
(-1.24233 0.491211 -2.37452e-14)
(-1.4423 0.416209 -1.81785e-14)
(-1.83207 0.329566 1.82841e-14)
(-2.41234 0.213279 1.46237e-14)
(-0.739449 0.187712 1.57344e-14)
(-0.753642 0.228396 2.69491e-14)
(-0.72045 0.239712 3.70744e-14)
(-0.681471 0.254282 8.0976e-15)
(-0.646783 0.265019 -1.0497e-15)
(-0.683251 0.303143 -3.45231e-14)
(-0.736676 0.370711 -1.31365e-14)
(-0.796846 0.453411 1.28707e-14)
(-0.84175 0.523493 -1.7182e-15)
(-0.866298 0.565039 -5.54368e-16)
(-0.88893 0.587158 4.90961e-15)
(-0.916775 0.597297 -2.8394e-15)
(-0.954865 0.600149 -1.80708e-15)
(-1.00944 0.600107 8.15651e-15)
(-1.09332 0.587934 -7.75535e-15)
(-1.21973 0.554068 3.11009e-15)
(-1.42448 0.522702 2.89898e-14)
(-1.7667 0.488619 8.37042e-15)
(-2.30848 0.429704 -2.52083e-14)
(-0.671753 0.229418 1.83612e-14)
(-0.678623 0.258397 -8.86317e-15)
(-0.654352 0.267164 -2.19819e-14)
(-0.620306 0.275457 6.93507e-15)
(-0.639681 0.307563 3.10285e-14)
(-0.691634 0.369893 -4.10184e-15)
(-0.751909 0.450214 -1.16958e-14)
(-0.799538 0.521568 6.76617e-15)
(-0.827145 0.566975 1.56962e-15)
(-0.851651 0.5946 -1.29523e-15)
(-0.880497 0.611742 -3.75213e-16)
(-0.918995 0.622293 2.96955e-15)
(-0.975103 0.631453 1.17275e-17)
(-1.05872 0.631954 3.6115e-15)
(-1.18634 0.620582 7.95129e-15)
(-1.38802 0.626355 4.78626e-15)
(-1.68314 0.635708 -5.55148e-16)
(-2.20127 0.620309 -8.28509e-16)
(-0.630244 0.236928 1.60454e-14)
(-0.642685 0.269744 -2.48916e-16)
(-0.617416 0.277753 1.47867e-14)
(-0.580055 0.284098 -2.0048e-14)
(-0.592353 0.311443 -9.84547e-15)
(-0.644487 0.369461 -1.37632e-15)
(-0.706349 0.447732 -2.45066e-15)
(-0.756657 0.520945 3.2377e-15)
(-0.786432 0.570715 -2.28551e-15)
(-0.812202 0.604227 8.81447e-16)
(-0.841385 0.628217 -3.46065e-16)
(-0.87966 0.646062 3.0836e-15)
(-0.936116 0.664305 -3.53717e-15)
(-1.01726 0.677768 -3.36361e-15)
(-1.14289 0.687017 8.3022e-15)
(-1.33567 0.723679 -1.45843e-14)
(-1.5864 0.769137 -2.10319e-14)
(-2.08868 0.790008 2.23727e-14)
(-0.58883 0.24316 2.38684e-15)
(-0.59641 0.277305 1.64235e-15)
(-0.572042 0.285705 -4.36585e-15)
(-0.542574 0.29151 1.01144e-14)
(-0.55179 0.316305 4.00318e-15)
(-0.602146 0.371206 6.99486e-15)
(-0.663559 0.447461 1.10174e-14)
(-0.715457 0.522138 -8.98974e-15)
(-0.746854 0.575741 6.24558e-15)
(-0.773375 0.615025 9.59118e-16)
(-0.801866 0.64578 7.46052e-16)
(-0.838516 0.670855 -1.47629e-15)
(-0.893292 0.69797 -6.01934e-17)
(-0.969481 0.724324 5.94701e-15)
(-1.09001 0.751546 3.0964e-15)
(-1.2697 0.81425 -2.35529e-14)
(-1.47765 0.889934 -1.64924e-15)
(-1.96509 0.947623 -9.05936e-15)
(-0.530447 0.274294 4.17091e-16)
(-0.532315 0.299862 1.47534e-14)
(-0.518108 0.300583 -4.93792e-15)
(-0.524826 0.321292 -2.57679e-14)
(-0.566027 0.37373 4.34704e-15)
(-0.623817 0.448862 1.85548e-15)
(-0.674303 0.52485 1.61785e-15)
(-0.706156 0.581742 7.63924e-16)
(-0.733106 0.625938 -1.7949e-15)
(-0.761113 0.663016 2.25331e-17)
(-0.795613 0.695039 -4.85124e-16)
(-0.847298 0.730592 4.30541e-15)
(-0.916425 0.769502 3.27219e-15)
(-1.02884 0.812638 -1.59034e-14)
(-1.19288 0.897981 4.75474e-15)
(-1.357 1.00045 1.50282e-14)
(-1.82422 1.09248 -2.99082e-15)
(-0.493745 0.277039 -2.42681e-15)
(-0.501229 0.305594 -7.24818e-15)
(-0.487881 0.307722 -4.15811e-15)
(-0.487248 0.325751 1.16775e-14)
(-0.525174 0.377338 -9.98188e-15)
(-0.580318 0.451784 -1.46566e-14)
(-0.629992 0.528415 -5.10202e-15)
(-0.662276 0.587718 -9.94378e-16)
(-0.689522 0.636203 1.89383e-15)
(-0.716946 0.679236 -8.13478e-16)
(-0.748964 0.71802 3.38489e-16)
(-0.796607 0.761474 -3.52262e-16)
(-0.85783 0.812331 -8.9965e-15)
(-0.95908 0.86964 5.36989e-16)
(-1.10653 0.974534 5.06073e-15)
(-1.22616 1.10202 -1.23548e-14)
(-1.65994 1.22075 8.00591e-15)
(-0.458209 0.278174 5.39851e-14)
(-0.463292 0.307273 3.54201e-14)
(-0.450085 0.311864 -1.56897e-14)
(-0.449075 0.329224 1.6943e-15)
(-0.48567 0.382104 6.29017e-15)
(-0.537633 0.456094 -3.44923e-15)
(-0.585767 0.532263 5.52889e-15)
(-0.618116 0.592549 -4.93827e-16)
(-0.645373 0.644248 7.52886e-16)
(-0.671528 0.692542 -2.22755e-16)
(-0.700121 0.738144 -9.85842e-16)