/*--------------------------------*- C++ -*----------------------------------*\
| =========                 |                                                 |
| \\      /  F ield         | OpenFOAM: The Open Source CFD Toolbox           |
|  \\    /   O peration     | Version:  2506                                  |
|   \\  /    A nd           | Website:  www.openfoam.com                      |
|    \\/     M anipulation  |                                                 |
\*---------------------------------------------------------------------------*/
FoamFile
{
    version     2.0;
    format      ascii;
    arch        "LSB;label=32;scalar=64";
    class       volScalarField;
    location    "50";
    object      p;
}
// * * * * * * * * * * * * * * * * * * * * * * * * * * * * * * * * * * * * * //

dimensions      [0 2 -2 0 0 0 0];

internalField   nonuniform List<scalar> 
1340
(
170.018
121.142
61.718
-1.22259
-64.4788
-131.26
-194.475
-251.784
-304.405
-349.357
-387.281
-418.598
-443.329
-461.631
-474.026
-480.373
-481.136
-474.938
-462.188
-442.027
-416.858
-391.519
-374.914
-365.959
-354.352
-335.303
-310.378
-281.206
-250.266
-222.212
-197.135
-173.2
-155.735
-152.109
-151.54
214.863
254.074
291.006
319.976
336.148
340.595
335.457
200.596
163.897
120.761
72.588
20.8844
-34.019
-89.5152
-143.7
-195.59
-243.502
-286.698
-324.659
-356.994
-383.624
-404.394
-418.853
-426.749
-427.768
-422.304
-410.235
-393.608
-376.758
-366.935
-362.672
-353.315
-334.527
-309.814
-280.86
-250.038
-222.077
-197.096
-173.136
-155.482
-151.77
-151.415
232.206
260.863
287.364
309.373
323.273
328.384
198.131
165.579
127.121
83.1821
35.6208
-15.2226
-67.9081
-120.391
-171.246
-219.245
-263.088
-302.095
-335.762
-363.682
-385.309
-400.557
-409.585
-412.211
-408.594
-398.964
-384.873
-369.613
-358.797
-353.351
-345.441
-329.377
-306.765
-279.155
-249.201
-221.626
-196.852
-172.944
-155.108
-151.347
-151.329
226.107
251.443
274.606
293.7
306.102
311.516
194.636
167.127
134.439
97.1691
56.6322
12.69
-33.3678
-80.1036
-126.409
-171.119
-213.113
-251.592
-285.868
-315.384
-339.589
-358.219
-371.309
-378.487
-379.711
-375.252
-366.339
-355.528
-346.743
-341.17
-333.862
-320.228
-300.436
-275.289
-247.135
-220.519
-196.164
-172.449
-154.694
-151.113
-151.409
218.29
239.687
259.53
276.207
287.54
186.346
162.045
133.054
99.8963
63.8072
24.3322
-17.4659
-60.3675
-103.552
-145.947
-186.511
-224.422
-258.894
-289.251
-314.88
-335.37
-350.3
-359.496
-362.8
-360.585
-353.927
-344.998
-336.961
-331.009
-323.546
-310.723
-292.535
-269.631
-243.645
-218.457
-194.886
-171.628
-154.244
-151.079
-151.633
207.275
226.123
243.74
258.711
269.253
177.088
155.534
129.764
100.329
68.3786
33.2558
-4.09349
-42.686
-81.938
-120.922
-158.766
-194.729
-228.032
-257.967
-283.909
-305.323
-321.768
-333.112
-339.241
-340.383
-337.343
-331.751
-325.913
-320.816
-313.823
-301.762
-284.644
-263.383
-239.314
-215.589
-193.011
-170.521
-153.757
-151.105
-151.835
195.702
212.448
228.27
241.906
167.2
147.79
124.555
98.0339
69.3469
37.7073
3.94333
-31.0993
-67.0347
-103.063
-138.459
-172.583
-204.691
-234.094
-260.16
-282.302
-300.045
-313.035
-321.089
-324.336
-323.477
-319.868
-315.314
-310.703
-304.167
-293.052
-277.132
-257.303
-234.836
-212.387
-190.798
-169.266
-153.255
-151.028
-151.795
184.006
199.113
213.522
226.091
157.355
139.726
118.621
94.5725
68.6701
40.0548
9.48191
-22.3098
-55.0737
-88.1397
-120.897
-152.823
-183.257
-211.557
-237.106
-259.317
-277.652
-291.747
-301.437
-306.768
-308.237
-306.841
-303.89
-300.113
-294.265
-284.255
-269.712
-251.387
-230.441
-209.17
-188.502
-167.977
-152.716
-150.635
-151.241
172.659
186.421
199.661
211.348
147.766
131.626
112.303
90.3261
66.7645
40.7164
12.8707
-16.1081
-46.0776
-76.4616
-106.761
-136.563
-165.287
-192.36
-217.21
-239.256
-257.957
-272.896
-283.84
-290.726
-293.904
-294.155
-292.479
-289.479
-284.325
-275.379
-262.205
-245.417
-226.008
-205.943
-186.215
-166.633
-151.997
-149.665
-149.834
161.819
174.462
186.722
64.1615
40.3379
14.8784
-11.6174
-39.0761
-66.9985
-94.9683
-122.664
-149.588
-175.254
-199.141
-220.696
-239.395
-254.791
-266.634
-274.811
-279.513
-281.299
-280.894
-278.771
-274.386
-266.482
-254.619
-239.306
-221.398
-202.544
-183.826
-165.161
-150.928
-147.917
-147.287
15.856
-8.45018
-33.6683
-59.3695
-85.2096
-110.921
-136.086
-160.296
-183.101
-203.996
-222.478
-238.104
-250.567
-259.721
-265.619
-268.653
-269.354
-268.082
-264.479
-257.584
-246.97
-233.04
-216.551
-198.874
-181.157
-163.465
-149.478
-145.415
-143.597
-29.4638
-53.1361
-77.0202
-100.883
-124.349
-147.092
-168.729
-188.812
-206.875
-222.488
-235.31
-245.183
-252.045
-256.144
-257.843
-257.401
-254.582
-248.654
-239.222
-226.588
-211.432
-194.906
-178.131
-161.41
-147.711
-142.407
-139.11
-48.0463
-70.1102
-92.2639
-114.134
-135.444
-155.885
-175.068
-192.573
-207.994
-220.969
-231.326
-238.922
-243.882
-246.44
-246.77
-244.705
-239.688
-231.364
-219.953
-206.054
-190.657
-174.787
-158.97
-145.663
-139.199
-134.298
-64.2629
-84.8033
-105.185
-125.127
-144.377
-162.608
-179.449
-194.527
-207.478
-218.113
-226.245
-231.894
-235.186
-236.221
-234.872
-230.711
-223.426
-213.17
-200.463
-186.159
-171.191
-156.214
-143.339
-135.94
-129.529
-59.288
-78.3211
-97.2964
-115.954
-134.048
-151.307
-167.415
-182.036
-194.823
-205.565
-214.056
-220.233
-224.135
-225.801
-225.122
-221.764
-215.454
-206.294
-194.722
-181.475
-167.414
-153.246
-140.776
-132.624
-124.934
-72.6777
-90.3076
-107.75
-124.743
-141.039
-156.374
-170.456
-182.964
-193.668
-202.366
-208.926
-213.322
-215.54
-215.477
-212.866
-207.47
-199.347
-188.859
-176.64
-163.486
-150.106
-138.016
-129.24
-120.496
-84.1105
-100.376
-116.325
-131.688
-146.238
-159.726
-171.865
-182.415
-191.188
-198.002
-202.78
-205.468
-205.96
-204.037
-199.491
-192.345
-182.891
-171.673
-159.415
-146.798
-135.082
-125.804
-116.175
-78.5946
-93.7401
-108.682
-123.147
-136.918
-149.78
-161.483
-171.788
-180.523
-187.477
-192.534
-195.608
-196.591
-195.294
-191.529
-185.294
-176.821
-166.568
-155.178
-143.296
-131.967
-122.307
-111.921
-87.7528
-101.713
-115.319
-128.33
-140.554
-151.775
-161.768
-170.37
-177.365
-182.607
-185.988
-187.393
-186.655
-183.605
-178.215
-170.662
-161.326
-150.77
-139.592
-128.653
-118.7
-107.652
-82.3312
-95.3482
-108.12
-120.397
-131.986
-142.698
-152.327
-160.722
-167.672
-173.015
-176.624
-178.383
-178.14
-175.735
-171.122
-164.427
-155.955
-146.193
-135.683
-125.116
-114.928
-103.316
-89.5313
-101.48
-113.049
-124.016
-134.205
-143.438
-151.567
-158.402
-163.772
-167.538
-169.584
-169.769
-167.941
-164.036
-158.133
-150.472
-141.463
-131.58
-121.351
-110.97
-98.918
-84.2008
-95.3532
-106.226
-116.587
-126.253
-135.067
-142.889
-149.553
-154.885
-158.741
-161.01
-161.559
-160.239
-156.972
-151.796
-144.891
-136.592
-127.289
-117.368
-106.858
-94.5305
-89.6936
-99.8785
-109.65
-118.801
-127.185
-134.671
-141.119
-146.359
-150.248
-152.678
-153.526
-152.647
-149.95
-145.437
-139.231
-131.594
-122.829
-113.204
-102.65
-90.2203
-84.4504
-93.9713
-103.161
-111.805
-119.756
-126.889
-133.088
-138.191
-142.061
-144.595
-145.684
-145.183
-142.988
-139.073
-133.507
-126.482
-118.219
-108.903
-98.4092
-86.0303
-79.5718
-88.4585
-97.0817
-105.23
-112.753
-119.525
-125.451
-130.378
-134.183
-136.772
-138.045
-137.862
-136.106
-132.724
-127.74
-121.279
-113.494
-104.509
-94.1656
-81.9368
-83.3099
-91.3725
-99.0409
-106.144
-112.554
-118.189
-122.914
-126.616
-129.215
-130.621
-130.698
-129.32
-126.408
-121.947
-116.008
-108.682
-100.05
-89.9239
-77.9047
-78.4898
-86.0121
-93.2088
-99.9009
-105.951
-111.286
-115.786
-119.356
-121.928
-123.423
-123.709
-122.65
-120.147
-116.155
-110.697
-103.814
-95.547
-85.6763
-73.8966
-73.964
-80.9725
-87.7092
-93.9988
-99.6949
-104.725
-108.988
-112.402
-114.916
-116.46
-116.906
-116.111
-113.961
-110.386
-105.368
-98.9072
-91.01
-81.4212
-69.9117
-76.2328
-82.5135
-88.4113
-93.763
-98.4899
-102.509
-105.753
-108.183
-109.741
-110.302
-109.721
-107.872
-104.664
-100.049
-93.989
-86.4587
-77.176
-65.9771
-71.7673
-77.6089
-83.1197
-88.1356
-92.5655
-96.3394
-99.4019
-101.727
-103.267
-103.905
-103.492
-101.896
-99.01
-94.7605
-89.0793
-81.9145
-72.9648
-62.1336
-67.5493
-72.9719
-78.1072
-82.796
-86.9378
-90.4693
-93.3436
-95.5458
-97.0413
-97.7206
-97.4368
-96.0517
-93.447
-89.53
-84.2077
-77.41
-68.8228
-58.4116
-68.5905
-73.3526
-77.7243
-81.5908
-84.8867
-87.5698
-89.6362
-91.0641
-91.7547
-91.5648
-90.3533
-87.9942
-84.3795
-79.3985
-72.9687
-64.773
-54.8334
-64.4462
-68.8493
-72.911
-76.5105
-79.577
-82.0691
-83.991
-85.3343
-86.0119
-85.8869
-84.8177
-82.673
-79.3346
-74.6791
-68.6184
-60.84
-51.3881
-60.5186
-64.5854
-68.346
-71.6843
-74.5272
-76.8309
-78.6046
-79.8516
-80.4973
-80.413
-79.4587
-77.5009
-74.4145
-70.0693
-64.3742
-57.0294
-60.5511
-64.0147
-67.0982
-69.7256
-71.8474
-73.473
-74.6165
-75.2169
-75.154
-74.2914
-72.4957
-69.6398
-65.5903
-60.2546
-53.3567
-56.7308
-59.9122
-62.7477
-65.1654
-67.1099
-68.5901
-69.628
-70.1741
-70.1172
-69.3266
-67.6717
-65.0265
-61.2578
-56.2722
-49.8209
-53.1074
-56.0266
-58.6262
-60.8403
-62.6121
-63.951
-64.884
-65.3704
-65.3081
-64.5736
-63.0419
-60.5901
-57.0891
-52.4433
-46.4396
-49.6772
-52.3494
-54.7224
-56.7402
-58.3467
-59.551
-60.3826
-60.8068
-60.7306
-60.0396
-58.6162
-56.3433
-53.0974
-48.7826
-43.2146
-46.4292
-48.8677
-51.0282
-52.858
-54.3091
-55.3883
-56.1224
-56.4826
-56.3865
-55.7297
-54.4035
-52.2975
-49.2965
-45.3034
-40.1679
-45.5819
-47.5363
-49.1874
-50.4946
-51.4582
-52.0993
-52.3955
-52.276
-51.6477
-50.4108
-48.4623
-45.696
-42.018
-37.2987
-42.4776
-44.2431
-45.7281
-46.9001
-47.7538
-48.3061
-48.5403
-48.3972
-47.7949
-46.6421
-44.8444
-42.3042
-38.9315
-34.6248
-39.5496
-41.1417
-42.4745
-43.5195
-44.2689
-44.7374
-44.9144
-44.7501
-44.1728
-43.1009
-41.4478
-39.1249
-36.0511
-32.1369
-36.796
-38.227
-39.418
-40.3448
-40.997
-41.3899
-41.5166
-41.3344
-40.7819
-39.7875
-38.2735
-36.1606
-33.3742
-29.8418
-34.2069
-35.4937
-36.5535
-37.3675
-37.9328
-38.262
-38.3458
-38.1492
-37.6209
-36.7006
-35.3203
-33.4088
-30.8975
-27.73
-32.9382
-33.8771
-34.5842
-35.0719
-35.3473
-35.3973
-35.1899
-34.6857
-33.8366
-32.5842
-30.8647
-28.6199
-25.7992
-30.5522
-31.3805
-31.9936
-32.4111
-32.6402
-32.662
-32.4486
-31.9707
-31.1913
-30.0617
-28.5265
-26.5312
-28.3243
-29.0582
-29.5908
-29.9469
-30.1331
-30.1313
-29.9176
-29.4699
-28.7599
-27.7475
-26.3847
-24.6277
-26.2542
-26.9035
-27.366
-27.6678
-27.8166
-27.7978
-27.5905
-27.1768
-26.5351
-25.6336
-24.4332
-22.8939
-24.3323
-24.9105
-25.3111
-25.5631
-25.6817
-25.6546
-25.4598
-25.0823
-24.5063
-23.7087
-22.6562
-21.3197
-23.0709
-23.4214
-23.6272
-23.7216
-23.6926
-23.5158
-23.1743
-22.6611
-21.959
-21.0441
-19.8899
-21.3768
-21.6821
-21.8537
-21.9293
-21.9027
-21.7437
-21.4395
-20.9856
-20.3729
-19.5824
-18.5966
-19.8144
-20.0866
-20.2335
-20.2969
-20.2721
-20.1324
-19.8646
-19.4683
-18.9386
-18.2639
-17.429
-18.3795
-18.6255
-18.7547
-18.8096
-18.7892
-18.6695
-18.4391
-18.0984
-17.6467
-17.0763
-16.3773
-17.0607
-17.2874
-17.4049
-17.4561
-17.443
-17.3452
-17.1518
-16.8646
-16.4845
-16.0081
-15.4285
-15.8508
-16.0617
-16.1725
-16.2244
-16.2228
-16.1477
-15.991
-15.7528
-15.4379
-15.0442
-14.7387
-14.941
-15.0469
-15.1021
-15.1129
-15.0638
-14.9413
-14.7491
-14.4918
-14.1693
-13.9143
-14.0221
-14.0775
-14.1013
-14.0773
-13.9896
-13.8392
-13.6324
-13.3735
-12.9736
-13.0817
-13.1414
-13.1781
-13.1775
-13.1217
-13.0096
-12.8496
-12.6462
-12.1089
-12.2189
-12.285
-12.3337
-12.3532
-12.3256
-12.2494
-12.1313
-11.9789
-11.3149
-11.4267
-11.4989
-11.5581
-11.5948
-11.5921
-11.5473
-11.4686
-11.3606
-10.5838
-10.698
-10.7755
-10.8434
-10.8941
-10.9122
-10.8963
-10.8508
-10.7844
-9.90975
-10.0263
-10.1083
-10.1828
-10.2442
-10.2797
-10.2871
-10.2721
-9.28634
-9.40549
-9.49188
-9.571
-9.64012
-9.68774
-9.7133
-9.72121
-8.70771
-8.83132
-8.92005
-9.00269
-9.07602
-9.13295
-9.17103
-9.19521
-8.29753
-8.39102
-8.47223
-8.54771
-8.61016
-8.65594
-8.68974
-7.79933
-7.8975
-7.98015
-8.05604
-8.11924
-8.16724
-8.20335
-7.33405
-7.43768
-7.52197
-7.5954
-7.65404
-7.69622
-7.72734
-6.96704
-7.07807
-7.16505
-7.23507
-7.28558
-7.31747
-7.33799
-6.66083
-6.77986
-6.87012
-6.93662
-6.97857
-7.00053
-6.33676
-6.46492
-6.55899
-6.62204
-6.65492
-6.66591
-5.99163
-6.12963
-6.22882
-6.28999
-6.31557
-6.31699
-5.62195
-5.77027
-5.87652
-5.93956
-5.96285
-5.95951
-5.2219
-5.37594
-5.48691
-5.55107
-5.57234
-5.5644
-4.80196
-4.96448
-5.08495
-5.15946
-5.19012
-5.18984
-4.46812
-4.58131
-4.65145
-4.67936
-4.67518
-4.05456
-4.18627
-4.27959
-4.33701
-4.36496
-3.30971
-3.40452
-3.47001
-3.50317
-3.51051
-3.15798
-3.30212
-3.42737
-3.5428
-1.60195
-1.63043
-1.64627
-1.64071
-2.8535
-3.03892
-3.20831
-3.43644
)
;

boundaryField
{
    inlet
    {
        type            freestreamPressure;
        freestreamValue uniform 0;
        value           nonuniform List<scalar> 4(-1.22713 -1.32852 -1.3645 -1.42335);
    }
    outlet
    {
        type            freestreamPressure;
        freestreamValue nonuniform List<scalar> 0();
        value           nonuniform List<scalar> 0();
    }
    walls
    {
        type            zeroGradient;
    }
    frontAndBack
    {
        type            empty;
    }
    procBoundary5to0
    {
        type            processor;
        value           nonuniform List<scalar> 4(138.585 151.569 163.26 174.675);
    }
    procBoundary5to1
    {
        type            processor;
        value           nonuniform List<scalar> 
13
(
318.226
324.288
324.288
309.274
293.216
293.216
275.118
251.823
251.823
235.487
220.285
197.655
197.655
)
;
    }
    procBoundary5to4
    {
        type            processor;
        value           nonuniform List<scalar> 
95
(
123.717
105.92
85.7182
85.7182
61.1252
39.2291
39.2291
16.1096
-6.25614
-6.25614
-26.2057
-26.2057
-43.8663
-43.8663
-40.3894
-55.0186
-55.0186
-67.7326
-67.7326
-63.353
-73.6505
-73.6505
-69.1816
-77.3944
-77.3944
-72.8677
-79.2857
-79.2857
-74.7286
-70.4951
-75.0218
-75.0218
-70.7553
-66.7515
-69.7104
-69.7104
-65.6929
-61.8991
-63.5635
-63.5635
-59.7833
-56.2027
-56.8018
-56.8018
-53.2731
-49.9276
-46.7545
-43.7509
-43.3582
-43.3582
-40.4556
-37.7147
-35.131
-32.7026
-31.7824
-31.7824
-29.5118
-27.3918
-25.4151
-23.5784
-22.5528
-22.5528
-20.9084
-19.3912
-17.9917
-16.7033
-15.5168
-14.4264
-13.7187
-13.7187
-12.7817
-11.9219
-11.1306
-10.4022
-9.72895
-9.10576
-8.52702
-8.16988
-8.16988
-7.66605
-7.19314
-6.81571
-6.49809
-6.16253
-5.80516
-5.42487
-5.01911
-4.59576
-4.31779
-4.31779
-3.89174
-3.19565
-2.99662
-1.57792
-2.67256
)
;
    }
    procBoundary5to6
    {
        type            processor;
        value           nonuniform List<scalar> 
86
(
-129.359
-129.476
-129.71
-130.031
-130.408
-130.724
-130.809
-130.468
-129.45
-127.457
-124.336
-120.289
-115.771
-111.171
-106.703
-102.373
-98.1233
-93.8784
-89.5963
-85.2883
-81.0329
-76.9247
-73.004
-69.2417
-65.568
-61.9234
-58.2927
-54.7058
-51.2289
-47.9176
-44.815
-41.917
-39.2106
-48.0885
-48.0885
-44.9191
-41.9003
-39.0258
-36.3255
-33.7941
-31.4557
-29.2913
-27.3145
-25.5029
-23.8619
-22.3732
-24.0411
-24.0411
-22.4441
-20.9946
-19.6788
-18.4849
-17.4043
-16.4275
-15.5452
-14.741
-14.5662
-14.5662
-13.7814
-13.0619
-12.4032
-11.7948
-11.2301
-10.6957
-10.2381
-10.2381
-9.71455
-9.2084
-8.71557
-8.23446
-7.75539
-7.35629
-7.0087
-7.0087
-6.65974
-6.29684
-5.92983
-5.52477
-5.15186
-4.62915
-4.34488
-3.47463
-3.64883
-3.64883
-1.64009
-3.73307
)
;
    }
}


// ************************************************************************* //
