/*--------------------------------*- C++ -*----------------------------------*\
| =========                 |                                                 |
| \\      /  F ield         | OpenFOAM: The Open Source CFD Toolbox           |
|  \\    /   O peration     | Version:  2506                                  |
|   \\  /    A nd           | Website:  www.openfoam.com                      |
|    \\/     M anipulation  |                                                 |
\*---------------------------------------------------------------------------*/
FoamFile
{
    version     2.0;
    format      ascii;
    arch        "LSB;label=32;scalar=64";
    class       volScalarField;
    location    "50";
    object      turbulenceProperties:nuEff;
}
// * * * * * * * * * * * * * * * * * * * * * * * * * * * * * * * * * * * * * //

dimensions      [0 2 -1 0 0 0 0];

internalField   nonuniform List<scalar> 
1340
(
2.61976e-05
2.86889e-05
3.20283e-05
3.63938e-05
4.21771e-05
4.98614e-05
6.01593e-05
7.35444e-05
9.08874e-05
0.000112931
0.000140709
0.000176385
0.000223151
0.000287358
0.000377361
0.000508078
0.000707861
0.00101993
0.00156615
0.00243694
0.00450407
0.0076968
0.0198479
0.0495245
0.0524291
0.0458379
0.0432682
0.0377096
0.0425096
0.0439745
0.042847
0.0392083
0.0337931
0.0331063
0.0392275
2.40873e-05
2.22755e-05
2.05582e-05
1.89919e-05
1.76216e-05
1.67256e-05
1.80931e-05
1.54992e-05
1.53987e-05
1.53009e-05
1.52069e-05
1.50975e-05
1.4986e-05
1.48814e-05
1.47732e-05
1.46778e-05
1.45952e-05
1.45253e-05
1.44859e-05
1.45098e-05
1.45252e-05
1.56881e-05
1.99306e-05
3.73048e-05
8.77256e-05
0.000198295
0.000386536
0.000934964
0.00215648
0.00547717
0.0214355
0.0476761
0.085489
0.134152
0.176923
0.203994
0.215244
0.213851
0.197374
0.169227
0.166002
0.188669
1.55814e-05
1.56864e-05
1.57783e-05
1.58879e-05
1.59876e-05
1.60808e-05
1.62208e-05
1.62366e-05
1.62511e-05
1.62671e-05
1.62867e-05
1.63082e-05
1.63319e-05
1.6359e-05
1.63899e-05
1.64252e-05
1.64664e-05
1.65147e-05
1.65712e-05
1.66429e-05
1.67087e-05
1.6914e-05
1.61771e-05
1.49811e-05
1.22975e-05
6.22167e-05
3.13004e-05
0.000196102
9.49625e-05
0.00222505
0.0122877
0.0368388
0.0904509
0.168675
0.238654
0.287151
0.314288
0.317303
0.314346
0.344414
0.387976
1.62039e-05
1.61864e-05
1.61739e-05
1.61597e-05
1.61542e-05
1.61466e-05
1.61126e-05
1.61112e-05
1.61105e-05
1.61092e-05
1.61074e-05
1.61064e-05
1.61069e-05
1.61086e-05
1.61128e-05
1.61195e-05
1.61294e-05
1.61434e-05
1.61624e-05
1.61879e-05
1.62196e-05
1.62699e-05
1.62931e-05
1.63441e-05
1.5365e-05
1.3001e-05
1.00202e-05
1.82934e-05
1.06232e-05
0.000463646
1.00949e-05
0.00403263
0.0233127
0.0812074
0.179869
0.278431
0.347735
0.381883
0.411815
0.476661
0.538874
1.611e-05
1.6108e-05
1.61096e-05
1.61095e-05
1.61162e-05
1.61252e-05
1.61258e-05
1.61259e-05
1.61259e-05
1.61264e-05
1.61267e-05
1.61271e-05
1.61281e-05
1.61299e-05
1.61329e-05
1.61374e-05
1.61436e-05
1.61518e-05
1.61626e-05
1.61764e-05
1.61952e-05
1.62176e-05
1.62384e-05
1.62379e-05
1.65301e-05
1.42843e-05
1.10156e-05
1.00069e-05
1e-05
1.00002e-05
0.000856976
0.0054408
0.0112776
0.0691073
0.185258
0.306321
0.388932
0.462381
0.565419
0.649611
1.61229e-05
1.61181e-05
1.61164e-05
1.61129e-05
1.61163e-05
1.61191e-05
1.61192e-05
1.61188e-05
1.61182e-05
1.61176e-05
1.61169e-05
1.61165e-05
1.61164e-05
1.61171e-05
1.61188e-05
1.61214e-05
1.61252e-05
1.61302e-05
1.61366e-05
1.61449e-05
1.61555e-05
1.61702e-05
1.61841e-05
1.62162e-05
1.62468e-05
1.66077e-05
1.6539e-05
1.20028e-05
1.00081e-05
1e-05
1e-05
1e-05
0.00264136
0.00534365
0.0642239
0.192633
0.328599
0.459328
0.608021
0.719934
1.6118e-05
1.61136e-05
1.61114e-05
1.61078e-05
1.61167e-05
1.61171e-05
1.61164e-05
1.61161e-05
1.61157e-05
1.61148e-05
1.61138e-05
1.61132e-05
1.61133e-05
1.6114e-05
1.61153e-05
1.61171e-05
1.61194e-05
1.6122e-05
1.6125e-05
1.61286e-05
1.61331e-05
1.61376e-05
1.61438e-05
1.61346e-05
1.61902e-05
1.64679e-05
1.75736e-05
1.20266e-05
1.00114e-05
1e-05
1e-05
1e-05
0.00124339
0.00208384
0.0659193
0.207761
0.394289
0.597783
0.745886
1.61157e-05
1.61113e-05
1.61086e-05
1.61049e-05
1.61137e-05
1.61142e-05
1.61135e-05
1.6113e-05
1.61123e-05
1.61113e-05
1.61104e-05
1.61101e-05
1.61107e-05
1.6112e-05
1.6114e-05
1.61165e-05
1.61195e-05
1.61231e-05
1.61272e-05
1.61319e-05
1.61377e-05
1.61443e-05
1.61518e-05
1.61524e-05
1.61728e-05
1.60945e-05
1.67217e-05
1.72829e-05
1.30336e-05
1.0017e-05
1e-05
1e-05
1e-05
0.000462592
1.29032e-05
0.0766009
0.27279
0.527338
0.720772
1.61125e-05
1.61083e-05
1.61053e-05
1.61017e-05
1.61106e-05
1.61113e-05
1.61107e-05
1.611e-05
1.61094e-05
1.61085e-05
1.61077e-05
1.61075e-05
1.6108e-05
1.61091e-05
1.61106e-05
1.61125e-05
1.61147e-05
1.61172e-05
1.61201e-05
1.61232e-05
1.61267e-05
1.61303e-05
1.61357e-05
1.61402e-05
1.61534e-05
1.61513e-05
1.60842e-05
1.67316e-05
1.75504e-05
1.43379e-05
1.00001e-05
1e-05
1e-05
1e-05
1.00074e-05
0.0211605
0.130455
0.398173
0.637036
1.61093e-05
1.61053e-05
1.61021e-05
1.61065e-05
1.61055e-05
1.61052e-05
1.61051e-05
1.61056e-05
1.61066e-05
1.6108e-05
1.61097e-05
1.61118e-05
1.61143e-05
1.61171e-05
1.61204e-05
1.61243e-05
1.61288e-05
1.61339e-05
1.61398e-05
1.61436e-05
1.61663e-05
1.61246e-05
1.61003e-05
1.67632e-05
1.78196e-05
1.48466e-05
1e-05
1e-05
1e-05
1e-05
0.000982073
0.0296524
0.237263
0.493592
1.61027e-05
1.61026e-05
1.61032e-05
1.61041e-05
1.61052e-05
1.61067e-05
1.61086e-05
1.61107e-05
1.61132e-05
1.61161e-05
1.61194e-05
1.61232e-05
1.61277e-05
1.61335e-05
1.61388e-05
1.61489e-05
1.61663e-05
1.61106e-05
1.61288e-05
1.67214e-05
1.83297e-05
1.48243e-05
1e-05
1e-05
1e-05
1e-05
0.00970543
0.098004
0.3093
1.61007e-05
1.61015e-05
1.61025e-05
1.61039e-05
1.61055e-05
1.61075e-05
1.61099e-05
1.61127e-05
1.61159e-05
1.61196e-05
1.61239e-05
1.61291e-05
1.61352e-05
1.6141e-05
1.61556e-05
1.61615e-05
1.61175e-05
1.61239e-05
1.6754e-05
1.85311e-05
1.41017e-05
1e-05
1e-05
1e-05
0.000568751
0.0169303
0.13526
1.60988e-05
1.60997e-05
1.61009e-05
1.61024e-05
1.61043e-05
1.61066e-05
1.61092e-05
1.61121e-05
1.61156e-05
1.61196e-05
1.61245e-05
1.61303e-05
1.61367e-05
1.61449e-05
1.61592e-05
1.6163e-05
1.61271e-05
1.61088e-05
1.68137e-05
1.86648e-05
1.36264e-05
1.00074e-05
1e-05
1e-05
0.0048714
0.0345464
1.60972e-05
1.60982e-05
1.60995e-05
1.61012e-05
1.61032e-05
1.61056e-05
1.61083e-05
1.61114e-05
1.61152e-05
1.61197e-05
1.6125e-05
1.61315e-05
1.61386e-05
1.61485e-05
1.61631e-05
1.61654e-05
1.61397e-05
1.60926e-05
1.68332e-05
1.94493e-05
1.16052e-05
1e-05
1e-05
2.73766e-05
0.00165506
1.60948e-05
1.60957e-05
1.60968e-05
1.60982e-05
1.60999e-05
1.61018e-05
1.61042e-05
1.6107e-05
1.61103e-05
1.61144e-05
1.61193e-05
1.61252e-05
1.61323e-05
1.61402e-05
1.6153e-05
1.61612e-05
1.61806e-05
1.61691e-05
1.58447e-05
1.79595e-05
1.86399e-05
1.00154e-05
1e-05
1e-05
0.000372269
1.60935e-05
1.60944e-05
1.60955e-05
1.60969e-05
1.60986e-05
1.61007e-05
1.61032e-05
1.61062e-05
1.61099e-05
1.61144e-05
1.61196e-05
1.61262e-05
1.61334e-05
1.61436e-05
1.61547e-05
1.61601e-05
1.62368e-05
1.60085e-05
1.5949e-05
2.00154e-05
1.29905e-05
1e-05
1e-05
1e-05
1.60926e-05
1.60935e-05
1.60946e-05
1.6096e-05
1.60978e-05
1.61e-05
1.61027e-05
1.61059e-05
1.61099e-05
1.61146e-05
1.61205e-05
1.61274e-05
1.61355e-05
1.61488e-05
1.61485e-05
1.61882e-05
1.62669e-05
1.5643e-05
1.72503e-05
2.07205e-05
1.00001e-05
1e-05
1e-05
1.60913e-05
1.6092e-05
1.60929e-05
1.6094e-05
1.60954e-05
1.60972e-05
1.60994e-05
1.61021e-05
1.61056e-05
1.61097e-05
1.61149e-05
1.61214e-05
1.61284e-05
1.61398e-05
1.61485e-05
1.61456e-05
1.62747e-05
1.6015e-05
1.58256e-05
1.96763e-05
1.29624e-05
1.00053e-05
1e-05
1.6091e-05
1.60916e-05
1.60925e-05
1.60936e-05
1.60951e-05
1.60969e-05
1.60992e-05
1.61021e-05
1.61056e-05
1.61099e-05
1.61156e-05
1.61222e-05
1.61306e-05
1.61443e-05
1.6139e-05
1.61917e-05
1.62484e-05
1.5781e-05
1.69157e-05
1.8539e-05
1.11212e-05
1.00039e-05
1.60904e-05
1.60908e-05
1.60915e-05
1.60924e-05
1.60935e-05
1.60949e-05
1.60968e-05
1.60992e-05
1.61021e-05
1.61057e-05
1.61103e-05
1.61163e-05
1.61231e-05
1.61351e-05
1.61416e-05
1.61451e-05
1.62461e-05
1.60795e-05
1.59585e-05
1.77576e-05
1.64691e-05
1.09987e-05
1.60904e-05
1.60908e-05
1.60914e-05
1.60923e-05
1.60935e-05
1.6095e-05
1.6097e-05
1.60994e-05
1.61022e-05
1.6106e-05
1.6111e-05
1.6117e-05
1.6126e-05
1.61379e-05
1.61355e-05
1.61842e-05
1.62203e-05
1.59643e-05
1.64313e-05
1.76229e-05
1.53652e-05
1.60901e-05
1.60903e-05
1.60909e-05
1.60916e-05
1.60924e-05
1.60936e-05
1.60951e-05
1.6097e-05
1.60993e-05
1.61023e-05
1.61063e-05
1.61116e-05
1.61187e-05
1.61298e-05
1.61338e-05
1.61502e-05
1.62146e-05
1.61073e-05
1.61027e-05
1.68209e-05
1.64032e-05
1.60903e-05
1.60905e-05
1.60909e-05
1.60915e-05
1.60924e-05
1.60938e-05
1.60954e-05
1.60972e-05
1.60995e-05
1.61026e-05
1.61069e-05
1.6113e-05
1.61218e-05
1.61287e-05
1.61399e-05
1.61798e-05
1.61451e-05
1.61801e-05
1.63889e-05
1.57202e-05
1.60903e-05
1.60903e-05
1.60907e-05
1.60913e-05
1.60922e-05
1.60934e-05
1.60947e-05
1.60961e-05
1.60978e-05
1.61001e-05
1.61033e-05
1.61085e-05
1.61155e-05
1.61218e-05
1.61349e-05
1.61602e-05
1.61218e-05
1.6261e-05
1.63091e-05
1.52711e-05
1.60906e-05
1.60906e-05
1.60909e-05
1.60914e-05
1.60919e-05
1.60927e-05
1.60937e-05
1.60947e-05
1.60959e-05
1.60976e-05
1.61e-05
1.61043e-05
1.611e-05
1.6115e-05
1.6129e-05
1.61504e-05
1.60959e-05
1.6281e-05
1.63123e-05
1.51409e-05
1.60909e-05
1.60909e-05
1.60911e-05
1.60915e-05
1.60922e-05
1.6093e-05
1.60938e-05
1.60945e-05
1.60956e-05
1.60972e-05
1.61005e-05
1.61052e-05
1.61086e-05
1.61231e-05
1.61399e-05
1.60836e-05
1.6276e-05
1.6297e-05
1.51065e-05
1.60912e-05
1.6091e-05
1.60912e-05
1.60916e-05
1.60924e-05
1.60932e-05
1.60938e-05
1.60943e-05
1.60948e-05
1.60957e-05
1.6098e-05
1.61015e-05
1.61034e-05
1.6118e-05
1.61289e-05
1.60779e-05
1.62674e-05
1.62681e-05
1.50837e-05
1.60916e-05
1.60915e-05
1.60917e-05
1.6092e-05
1.60925e-05
1.60931e-05
1.60935e-05
1.60938e-05
1.6094e-05
1.60943e-05
1.60959e-05
1.60984e-05
1.60991e-05
1.61131e-05
1.61199e-05
1.60708e-05
1.62623e-05
1.62449e-05
1.50591e-05
1.6092e-05
1.60919e-05
1.6092e-05
1.60923e-05
1.60927e-05
1.60931e-05
1.60932e-05
1.60932e-05
1.60932e-05
1.60941e-05
1.60959e-05
1.60955e-05
1.61081e-05
1.6113e-05
1.60631e-05
1.62573e-05
1.62281e-05
1.50355e-05
1.60924e-05
1.60922e-05
1.60923e-05
1.60926e-05
1.6093e-05
1.60934e-05
1.60935e-05
1.60933e-05
1.60929e-05
1.60932e-05
1.60943e-05
1.6093e-05
1.61034e-05
1.61089e-05
1.60563e-05
1.62466e-05
1.62155e-05
1.50237e-05
1.60931e-05
1.60929e-05
1.6093e-05
1.60932e-05
1.60935e-05
1.60936e-05
1.60935e-05
1.60933e-05
1.60929e-05
1.60928e-05
1.60937e-05
1.60915e-05
1.60993e-05
1.61079e-05
1.60489e-05
1.62326e-05
1.62042e-05
1.50381e-05
1.60936e-05
1.60935e-05
1.60935e-05
1.60936e-05
1.60936e-05
1.60933e-05
1.60931e-05
1.60927e-05
1.60926e-05
1.60934e-05
1.6091e-05
1.60962e-05
1.61081e-05
1.60439e-05
1.62113e-05
1.62141e-05
1.50616e-05
1.60944e-05
1.60941e-05
1.6094e-05
1.60941e-05
1.6094e-05
1.60937e-05
1.60933e-05
1.6093e-05
1.60927e-05
1.60935e-05
1.60912e-05
1.60943e-05
1.6108e-05
1.60454e-05
1.61773e-05
1.62662e-05
1.50451e-05
1.60954e-05
1.60951e-05
1.6095e-05
1.6095e-05
1.60947e-05
1.60942e-05
1.60938e-05
1.60935e-05
1.60932e-05
1.60939e-05
1.60921e-05
1.60932e-05
1.61081e-05
1.60509e-05
1.6145e-05
1.63187e-05
1.60962e-05
1.60959e-05
1.60956e-05
1.60952e-05
1.60947e-05
1.60943e-05
1.60942e-05
1.6094e-05
1.60946e-05
1.60935e-05
1.60926e-05
1.61086e-05
1.60579e-05
1.61212e-05
1.63398e-05
1.60973e-05
1.60969e-05
1.60966e-05
1.60961e-05
1.60956e-05
1.60953e-05
1.60953e-05
1.60951e-05
1.60955e-05
1.60952e-05
1.60926e-05
1.61086e-05
1.60675e-05
1.60977e-05
1.63519e-05
1.60985e-05
1.60981e-05
1.60977e-05
1.60972e-05
1.60968e-05
1.60967e-05
1.60967e-05
1.60967e-05
1.60968e-05
1.60971e-05
1.60936e-05
1.6107e-05
1.6081e-05
1.60712e-05
1.63661e-05
1.60998e-05
1.60994e-05
1.6099e-05
1.60985e-05
1.60982e-05
1.60982e-05
1.60983e-05
1.60984e-05
1.60984e-05
1.60992e-05
1.60957e-05
1.61044e-05
1.60961e-05
1.60483e-05
1.63657e-05
1.6101e-05
1.61008e-05
1.61004e-05
1.61e-05
1.60997e-05
1.60998e-05
1.61e-05
1.61003e-05
1.61004e-05
1.61013e-05
1.6099e-05
1.61023e-05
1.61088e-05
1.60368e-05
1.63435e-05
1.6102e-05
1.61017e-05
1.61015e-05
1.61014e-05
1.61016e-05
1.61019e-05
1.61023e-05
1.61026e-05
1.61033e-05
1.61027e-05
1.61017e-05
1.61163e-05
1.60441e-05
1.62817e-05
1.6103e-05
1.61029e-05
1.61029e-05
1.61031e-05
1.61034e-05
1.61038e-05
1.61043e-05
1.61047e-05
1.61052e-05
1.61057e-05
1.6103e-05
1.61178e-05
1.60668e-05
1.61908e-05
1.61038e-05
1.6104e-05
1.61041e-05
1.61044e-05
1.61049e-05
1.61055e-05
1.61061e-05
1.61066e-05
1.6107e-05
1.6108e-05
1.61057e-05
1.61149e-05
1.60937e-05
1.61116e-05
1.61045e-05
1.61048e-05
1.61051e-05
1.61056e-05
1.61063e-05
1.6107e-05
1.61077e-05
1.61084e-05
1.6109e-05
1.61098e-05
1.6109e-05
1.61118e-05
1.61134e-05
1.60726e-05
1.61051e-05
1.61055e-05
1.6106e-05
1.61066e-05
1.61074e-05
1.61083e-05
1.61092e-05
1.61102e-05
1.61109e-05
1.61117e-05
1.6112e-05
1.61115e-05
1.61212e-05
1.60745e-05
1.6106e-05
1.61066e-05
1.61074e-05
1.61084e-05
1.61095e-05
1.61106e-05
1.61117e-05
1.61127e-05
1.61136e-05
1.61145e-05
1.61136e-05
1.61213e-05
1.60958e-05
1.61065e-05
1.61072e-05
1.61081e-05
1.61092e-05
1.61104e-05
1.61117e-05
1.6113e-05
1.61142e-05
1.61152e-05
1.61163e-05
1.61163e-05
1.61199e-05
1.61069e-05
1.61076e-05
1.61086e-05
1.61098e-05
1.61112e-05
1.61126e-05
1.6114e-05
1.61153e-05
1.61164e-05
1.61176e-05
1.61183e-05
1.61197e-05
1.61073e-05
1.61081e-05
1.61091e-05
1.61103e-05
1.61117e-05
1.61132e-05
1.61147e-05
1.61161e-05
1.61174e-05
1.61186e-05
1.61197e-05
1.61204e-05
1.61077e-05
1.61085e-05
1.61095e-05
1.61108e-05
1.61122e-05
1.61137e-05
1.61153e-05
1.61168e-05
1.61183e-05
1.61196e-05
1.61207e-05
1.61216e-05
1.61089e-05
1.61099e-05
1.61112e-05
1.61125e-05
1.61141e-05
1.61157e-05
1.61174e-05
1.61189e-05
1.61204e-05
1.61217e-05
1.61228e-05
1.61093e-05
1.61103e-05
1.61115e-05
1.61128e-05
1.61143e-05
1.61159e-05
1.61175e-05
1.61192e-05
1.61208e-05
1.61223e-05
1.61236e-05
1.61095e-05
1.61106e-05
1.61117e-05
1.6113e-05
1.61145e-05
1.6116e-05
1.61175e-05
1.61191e-05
1.61207e-05
1.61223e-05
1.61238e-05
1.61095e-05
1.61107e-05
1.61119e-05
1.61131e-05
1.61145e-05
1.6116e-05
1.61175e-05
1.6119e-05
1.61205e-05
1.6122e-05
1.61235e-05
1.61093e-05
1.61105e-05
1.61118e-05
1.61131e-05
1.61144e-05
1.61158e-05
1.61173e-05
1.61187e-05
1.61202e-05
1.61217e-05
1.61231e-05
1.61088e-05
1.61101e-05
1.61114e-05
1.61128e-05
1.61142e-05
1.61156e-05
1.61169e-05
1.61184e-05
1.61198e-05
1.61212e-05
1.6108e-05
1.61094e-05
1.61108e-05
1.61122e-05
1.61137e-05
1.61151e-05
1.61165e-05
1.61178e-05
1.61192e-05
1.61205e-05
1.61085e-05
1.61099e-05
1.61114e-05
1.61129e-05
1.61144e-05
1.61158e-05
1.61172e-05
1.61185e-05
1.61198e-05
1.61075e-05
1.61089e-05
1.61103e-05
1.61118e-05
1.61133e-05
1.61148e-05
1.61162e-05
1.61176e-05
1.61189e-05
1.61064e-05
1.61078e-05
1.61092e-05
1.61106e-05
1.61121e-05
1.61135e-05
1.6115e-05
1.61164e-05
1.61177e-05
1.61054e-05
1.61066e-05
1.61079e-05
1.61093e-05
1.61107e-05
1.61121e-05
1.61135e-05
1.61149e-05
1.61162e-05
1.61043e-05
1.61055e-05
1.61066e-05
1.61079e-05
1.61092e-05
1.61106e-05
1.6112e-05
1.61133e-05
1.61146e-05
1.61033e-05
1.61043e-05
1.61054e-05
1.61065e-05
1.61077e-05
1.6109e-05
1.61103e-05
1.61116e-05
1.61021e-05
1.61031e-05
1.61041e-05
1.61052e-05
1.61063e-05
1.61074e-05
1.61086e-05
1.61098e-05
1.61008e-05
1.61018e-05
1.61027e-05
1.61037e-05
1.61047e-05
1.61058e-05
1.61069e-05
1.6108e-05
1.60999e-05
1.6101e-05
1.6102e-05
1.6103e-05
1.6104e-05
1.6105e-05
1.61061e-05
1.60976e-05
1.60987e-05
1.60998e-05
1.61009e-05
1.61018e-05
1.61028e-05
1.61038e-05
1.60946e-05
1.6096e-05
1.60972e-05
1.60983e-05
1.60993e-05
1.61002e-05
1.61012e-05
1.60919e-05
1.60935e-05
1.60949e-05
1.60961e-05
1.60971e-05
1.6098e-05
1.60988e-05
1.60891e-05
1.60908e-05
1.60924e-05
1.60938e-05
1.6095e-05
1.6096e-05
1.60859e-05
1.60875e-05
1.6089e-05
1.60906e-05
1.6092e-05
1.60932e-05
1.60829e-05
1.60842e-05
1.60856e-05
1.6087e-05
1.60883e-05
1.60896e-05
1.60802e-05
1.60812e-05
1.60823e-05
1.60834e-05
1.60847e-05
1.60858e-05
1.60778e-05
1.60784e-05
1.60792e-05
1.60801e-05
1.60811e-05
1.60821e-05
1.60757e-05
1.6076e-05
1.60765e-05
1.60771e-05
1.60778e-05
1.60785e-05
1.60739e-05
1.60741e-05
1.60744e-05
1.60748e-05
1.60752e-05
1.6072e-05
1.60719e-05
1.6072e-05
1.60721e-05
1.60723e-05
1.60705e-05
1.60705e-05
1.60705e-05
1.60706e-05
1.60707e-05
1.60695e-05
1.60697e-05
1.60699e-05
1.607e-05
1.60699e-05
1.60706e-05
1.60714e-05
1.60722e-05
1.60737e-05
1.60743e-05
1.60751e-05
1.60758e-05
)
;

boundaryField
{
    inlet
    {
        type            calculated;
        value           nonuniform List<scalar> 4(1.60737e-05 1.60743e-05 1.60751e-05 1.60758e-05);
    }
    outlet
    {
        type            calculated;
        value           nonuniform List<scalar> 0();
    }
    walls
    {
        type            calculated;
        value           nonuniform List<scalar> 
42
(
0.00227296
0.00252025
0.00277777
0.00299984
0.00321267
0.00340711
0.00357112
0.00370877
0.00382129
0.00390695
0.00397096
0.0040156
0.00404
0.00404853
0.00402951
0.00397917
0.00389046
0.0037557
0.00355866
0.00327909
0.00287989
0.0023224
0.00160564
0.000902006
0.000422741
0.000263067
5.97584e-05
1.24299e-05
3.16832e-05
2.04776e-05
3.87357e-05
0.000149024
0.000247617
0.000288902
0.00073801
0.00201577
0.00172846
0.00140737
0.00103403
0.000682502
0.000514084
0.000718006
)
;
    }
    frontAndBack
    {
        type            empty;
    }
    procBoundary5to0
    {
        type            processor;
        value           nonuniform List<scalar> 4(1.61073e-05 1.6106e-05 1.61025e-05 1.60992e-05);
    }
    procBoundary5to1
    {
        type            processor;
        value           nonuniform List<scalar> 
13
(
2.04799e-05
1.60009e-05
1.60009e-05
1.61552e-05
1.61206e-05
1.61206e-05
1.61181e-05
1.61109e-05
1.61109e-05
1.61074e-05
1.6104e-05
1.60988e-05
1.60988e-05
)
;
    }
    procBoundary5to4
    {
        type            processor;
        value           nonuniform List<scalar> 
95
(
1.61084e-05
1.61077e-05
1.6107e-05
1.6107e-05
1.61034e-05
1.61027e-05
1.61027e-05
1.61001e-05
1.61001e-05
1.61001e-05
1.60981e-05
1.60981e-05
1.60961e-05
1.60961e-05
1.60942e-05
1.60928e-05
1.60928e-05
1.60918e-05
1.60918e-05
1.6091e-05
1.60906e-05
1.60906e-05
1.60903e-05
1.60902e-05
1.60902e-05
1.60903e-05
1.60903e-05
1.60903e-05
1.60906e-05
1.60909e-05
1.60911e-05
1.60911e-05
1.60915e-05
1.6092e-05
1.60923e-05
1.60923e-05
1.60929e-05
1.60936e-05
1.60941e-05
1.60941e-05
1.6095e-05
1.6096e-05
1.60968e-05
1.60968e-05
1.60979e-05
1.60991e-05
1.61002e-05
1.61012e-05
1.61022e-05
1.61022e-05
1.6103e-05
1.61037e-05
1.61042e-05
1.61047e-05
1.61056e-05
1.61056e-05
1.61059e-05
1.61063e-05
1.61067e-05
1.61071e-05
1.61081e-05
1.61081e-05
1.61084e-05
1.61086e-05
1.61085e-05
1.61081e-05
1.61075e-05
1.61067e-05
1.61071e-05
1.61071e-05
1.61061e-05
1.61052e-05
1.61042e-05
1.61033e-05
1.61022e-05
1.61011e-05
1.60996e-05
1.60987e-05
1.60987e-05
1.60962e-05
1.60931e-05
1.60902e-05
1.60874e-05
1.60844e-05
1.60817e-05
1.60793e-05
1.60772e-05
1.60754e-05
1.60737e-05
1.60737e-05
1.6072e-05
1.60705e-05
1.60693e-05
1.60693e-05
1.6073e-05
)
;
    }
    procBoundary5to6
    {
        type            processor;
        value           nonuniform List<scalar> 
86
(
0.0435256
0.203278
0.39025
0.535567
0.64633
0.724027
0.766687
0.769512
0.725126
0.625327
0.468176
0.270831
0.0986886
0.0163102
0.00373129
1e-05
1e-05
1e-05
1e-05
1.00056e-05
1.23927e-05
1.68208e-05
1.73574e-05
1.78861e-05
1.8677e-05
1.89857e-05
1.90701e-05
1.90894e-05
1.90832e-05
1.90758e-05
1.90621e-05
1.8994e-05
1.88708e-05
1.50105e-05
1.50105e-05
1.50257e-05
1.50876e-05
1.52261e-05
1.53712e-05
1.55589e-05
1.58057e-05
1.60826e-05
1.62725e-05
1.63099e-05
1.62395e-05
1.61543e-05
1.61139e-05
1.61139e-05
1.61217e-05
1.61233e-05
1.61234e-05
1.6124e-05
1.61248e-05
1.61251e-05
1.61249e-05
1.61245e-05
1.61225e-05
1.61225e-05
1.61218e-05
1.61211e-05
1.61201e-05
1.61189e-05
1.61175e-05
1.61158e-05
1.61129e-05
1.61129e-05
1.6111e-05
1.61091e-05
1.61071e-05
1.61049e-05
1.61022e-05
1.60997e-05
1.60971e-05
1.60971e-05
1.60945e-05
1.60909e-05
1.6087e-05
1.60831e-05
1.60793e-05
1.60757e-05
1.60724e-05
1.60707e-05
1.60703e-05
1.60703e-05
1.6073e-05
1.60765e-05
)
;
    }
}


// ************************************************************************* //
