/*--------------------------------*- C++ -*----------------------------------*\
| =========                 |                                                 |
| \\      /  F ield         | OpenFOAM: The Open Source CFD Toolbox           |
|  \\    /   O peration     | Version:  2506                                  |
|   \\  /    A nd           | Website:  www.openfoam.com                      |
|    \\/     M anipulation  |                                                 |
\*---------------------------------------------------------------------------*/
FoamFile
{
    version     2.0;
    format      ascii;
    arch        "LSB;label=32;scalar=64";
    class       volScalarField;
    location    "400";
    object      magR;
}
// * * * * * * * * * * * * * * * * * * * * * * * * * * * * * * * * * * * * * //

dimensions      [0 2 -2 0 0 0 0];

internalField   nonuniform List<scalar> 
1340
(
8.17021e-07
1.6082e-06
1.82045e-07
7.48068e-07
8.1449e-07
1.61055e-06
2.0132e-07
3.23696e-07
1.78384e-07
7.50886e-07
8.14759e-07
1.61128e-06
3.72364e-07
3.27806e-07
3.07547e-07
2.11161e-07
3.31195e-07
1.76226e-07
7.53927e-07
8.16983e-07
1.61116e-06
5.3237e-07
4.93405e-07
4.61526e-07
4.31854e-07
4.00928e-07
3.71791e-07
3.29418e-07
3.11116e-07
2.21716e-07
3.38415e-07
1.75367e-07
7.57086e-07
8.20516e-07
1.61068e-06
7.47078e-07
7.004e-07
6.53797e-07
6.08376e-07
5.63835e-07
5.21951e-07
4.85617e-07
4.5593e-07
4.28105e-07
3.98962e-07
3.71399e-07
3.31409e-07
3.15116e-07
2.32828e-07
3.45187e-07
1.75693e-07
7.60091e-07
8.24827e-07
1.60995e-06
1.01673e-06
9.7315e-07
9.29747e-07
8.86817e-07
8.4446e-07
8.02527e-07
7.60604e-07
7.18332e-07
6.7568e-07
6.33008e-07
5.91345e-07
5.5025e-07
5.11445e-07
4.77816e-07
4.50337e-07
4.24382e-07
3.97086e-07
3.71127e-07
3.33731e-07
3.1948e-07
2.44383e-07
3.51395e-07
1.77106e-07
7.62886e-07
8.29493e-07
1.60866e-06
1.37062e-06
1.3392e-06
1.30692e-06
1.27387e-06
1.2402e-06
1.20596e-06
1.17125e-06
1.13613e-06
1.10066e-06
1.06473e-06
1.0283e-06
9.91301e-07
9.5379e-07
9.1591e-07
8.7794e-07
8.40139e-07
8.02588e-07
7.6517e-07
7.27533e-07
6.89409e-07
6.50805e-07
6.12089e-07
5.74205e-07
5.36581e-07
5.00918e-07
4.70037e-07
4.44762e-07
4.20686e-07
3.95285e-07
3.70966e-07
3.36367e-07
3.24172e-07
2.5629e-07
3.56918e-07
1.79529e-07
7.65365e-07
8.33905e-07
1.60721e-06
1.36454e-06
1.38279e-06
1.23411e-06
1.27013e-06
1.26945e-06
1.32695e-06
1.35802e-06
1.38862e-06
1.41522e-06
1.44031e-06
1.46338e-06
1.48433e-06
1.5026e-06
1.51828e-06
1.53194e-06
1.54281e-06
1.55127e-06
1.5574e-06
1.5613e-06
1.56313e-06
1.56291e-06
1.56078e-06
1.55699e-06
1.55163e-06
1.54482e-06
1.53666e-06
1.52733e-06
1.51695e-06
1.5055e-06
1.49316e-06
1.47992e-06
1.46584e-06
1.45099e-06
1.43533e-06
1.41892e-06
1.40175e-06
1.38377e-06
1.36507e-06
1.34549e-06
1.32508e-06
1.30387e-06
1.28174e-06
1.25872e-06
1.23476e-06
1.20996e-06
1.18425e-06
1.15773e-06
1.13051e-06
1.10261e-06
1.07415e-06
1.04522e-06
1.01578e-06
9.858e-07
9.55217e-07
9.2394e-07
8.92015e-07
8.59546e-07
8.26758e-07
7.93872e-07
7.60966e-07
7.27946e-07
6.94526e-07
6.60511e-07
6.25941e-07
5.91175e-07
5.57051e-07
5.229e-07
4.90419e-07
4.62303e-07
4.39205e-07
4.17012e-07
3.93538e-07
3.70895e-07
3.39299e-07
3.29167e-07
2.68471e-07
3.6169e-07
1.82862e-07
7.67263e-07
8.37825e-07
1.60582e-06
1.3888e-06
1.10027e-06
1.00812e-06
1.10182e-06
1.12209e-06
1.1583e-06
1.18048e-06
1.20493e-06
1.22674e-06
1.24741e-06
1.26626e-06
1.28322e-06
1.2982e-06
1.31119e-06
1.32241e-06
1.33143e-06
1.33858e-06
1.34402e-06
1.34762e-06
1.34956e-06
1.34998e-06
1.34893e-06
1.34655e-06
1.343e-06
1.3383e-06
1.3326e-06
1.32607e-06
1.31864e-06
1.31046e-06
1.3016e-06
1.29204e-06
1.28188e-06
1.27109e-06
1.25972e-06
1.24776e-06
1.23516e-06
1.22196e-06
1.20813e-06
1.19359e-06
1.17833e-06
1.16233e-06
1.14557e-06
1.12794e-06
1.10945e-06
1.09016e-06
1.06997e-06
1.04901e-06
1.02732e-06
1.00494e-06
9.82e-07
9.58542e-07
9.34544e-07
9.0996e-07
8.84735e-07
8.58744e-07
8.32008e-07
8.04585e-07
7.76667e-07
7.48433e-07
7.19951e-07
6.91167e-07
6.61852e-07
6.31867e-07
6.01272e-07
5.70403e-07
5.39996e-07
5.09282e-07
4.79995e-07
4.5463e-07
4.33662e-07
4.13348e-07
3.91826e-07
3.7091e-07
3.42505e-07
3.3444e-07
2.80822e-07
3.65666e-07
1.86877e-07
7.68919e-07
8.40797e-07
1.60507e-06
1.05355e-06
9.281e-07
8.9578e-07
9.79229e-07
9.88638e-07
1.01389e-06
1.03194e-06
1.05128e-06
1.06883e-06
1.08522e-06
1.09992e-06
1.11345e-06
1.12532e-06
1.13562e-06
1.14443e-06
1.15171e-06
1.15746e-06
1.16196e-06
1.16503e-06
1.16672e-06
1.16737e-06
1.16691e-06
1.16546e-06
1.163e-06
1.15982e-06
1.1559e-06
1.15127e-06
1.14604e-06
1.14026e-06
1.13397e-06
1.12719e-06
1.11999e-06
1.11231e-06
1.1042e-06
1.09568e-06
1.08668e-06
1.0772e-06
1.06722e-06
1.05669e-06
1.04554e-06
1.03378e-06
1.02134e-06
1.00812e-06
9.94176e-07
9.79442e-07
9.63884e-07
9.47634e-07
9.30669e-07
9.13086e-07
8.94964e-07
8.76334e-07
8.57191e-07
8.37486e-07
8.17115e-07
7.95945e-07
7.73979e-07
7.51232e-07
7.27832e-07
7.03953e-07
6.79672e-07
6.54942e-07
6.29597e-07
6.03532e-07
5.76844e-07
5.49803e-07
5.23026e-07
4.9572e-07
4.69635e-07
4.46981e-07
4.2808e-07
4.09659e-07
3.90109e-07
3.70985e-07
3.45981e-07
3.39991e-07
2.93251e-07
3.68873e-07
1.91555e-07
7.69297e-07
8.43504e-07
1.60548e-06
8.98671e-07
8.31034e-07
8.06103e-07
8.66685e-07
8.71545e-07
8.91442e-07
9.05742e-07
9.20731e-07
9.34226e-07
9.46844e-07
9.58199e-07
9.68579e-07
9.77722e-07
9.85668e-07
9.92483e-07
9.98188e-07
1.00269e-06
1.00627e-06
1.00877e-06
1.01027e-06
1.011e-06
1.01091e-06
1.01003e-06
1.00847e-06
1.00645e-06
1.00376e-06
1.00061e-06
9.97099e-07
9.93122e-07
9.88819e-07
9.84159e-07
9.79235e-07
9.7393e-07
9.68375e-07
9.62497e-07
9.56262e-07
9.49689e-07
9.42724e-07
9.35302e-07
9.27415e-07
9.18993e-07
9.09978e-07
9.00326e-07
8.9002e-07
8.78982e-07
8.67268e-07
8.54907e-07
8.41913e-07
8.28397e-07
8.14397e-07
7.99959e-07
7.85058e-07
7.69654e-07
7.53563e-07
7.36707e-07
7.19033e-07
7.00459e-07
6.81183e-07
6.61313e-07
6.40897e-07
6.19975e-07
5.98405e-07
5.76074e-07
5.53127e-07
5.29763e-07
5.06472e-07
4.82476e-07
4.59516e-07
4.39493e-07
4.22578e-07
4.06021e-07
3.88431e-07
3.71177e-07
3.49724e-07
3.45814e-07
3.05475e-07
3.71409e-07
1.95971e-07
7.6893e-07
8.44655e-07
1.60936e-06
7.95973e-07
7.36989e-07
7.12372e-07
7.58772e-07
7.62318e-07
7.77754e-07
7.88563e-07
7.99883e-07
8.09873e-07
8.19461e-07
8.28031e-07
8.35787e-07
8.42769e-07
8.48722e-07
8.53936e-07
8.58402e-07
8.61911e-07
8.64682e-07
8.66796e-07
8.68175e-07
8.68984e-07
8.69181e-07
8.68841e-07
8.68099e-07
8.66913e-07
8.65305e-07
8.63516e-07
8.61364e-07
8.58877e-07
8.56171e-07
8.53403e-07
8.50322e-07
8.47094e-07
8.43554e-07
8.3987e-07
8.36153e-07
8.31885e-07
8.27425e-07
8.22677e-07
8.17565e-07
8.11912e-07
8.0587e-07
7.99252e-07
7.91986e-07
7.84251e-07
7.75809e-07
7.66843e-07
7.57398e-07
7.47429e-07
7.37154e-07
7.26475e-07
7.15392e-07
7.03923e-07
6.91759e-07
6.78824e-07
6.65132e-07
6.5046e-07
6.34995e-07
6.18948e-07
6.02216e-07
5.84949e-07
5.6709e-07
5.48437e-07
5.29177e-07
5.0946e-07
4.89661e-07
4.68965e-07
4.49164e-07
4.31773e-07
4.16864e-07
4.02198e-07
3.86644e-07
3.71455e-07
3.53782e-07
3.52095e-07
3.17864e-07
3.73244e-07
2.04245e-07
7.64157e-07
8.49073e-07
1.61362e-06
6.81339e-07
6.30709e-07
6.08457e-07
6.44135e-07
6.45543e-07
6.56884e-07
6.64047e-07
6.71227e-07
6.7881e-07
6.84888e-07
6.90629e-07
6.96491e-07
7.01063e-07
7.04999e-07
7.08981e-07
7.12398e-07
7.14515e-07
7.16976e-07
7.18692e-07
7.19946e-07
7.21015e-07
7.2132e-07
7.21742e-07
7.21871e-07
7.21454e-07
7.21061e-07
7.20533e-07
7.19781e-07
7.18911e-07
7.1772e-07
7.16833e-07
7.15755e-07
7.14441e-07
7.12848e-07
7.11621e-07
7.10156e-07
7.08229e-07
7.06218e-07
7.04112e-07
7.01698e-07
6.98746e-07
6.95708e-07
6.91868e-07
6.87723e-07
6.83267e-07
6.77961e-07
6.72451e-07
6.66607e-07
6.60175e-07
6.53735e-07
6.46926e-07
6.39728e-07
6.32388e-07
6.24276e-07
6.154e-07
6.05834e-07
5.9532e-07
5.83854e-07
5.7186e-07
5.59179e-07
5.45929e-07
5.32148e-07
5.17588e-07
5.0246e-07
4.86804e-07
4.70856e-07
4.53864e-07
4.37631e-07
4.23125e-07
4.10404e-07
3.97897e-07
3.84706e-07
3.71973e-07
3.58858e-07
3.59178e-07
3.32435e-07
3.71742e-07
2.20322e-07
7.49681e-07
8.4123e-07
1.55937e-06
5.59346e-07
5.23686e-07
5.07188e-07
5.31354e-07
5.31475e-07
5.38885e-07
5.42595e-07
5.46958e-07
5.51772e-07
5.55042e-07
5.58725e-07
5.62483e-07
5.65068e-07
5.67479e-07
5.70417e-07
5.72599e-07
5.73889e-07
5.76043e-07
5.7713e-07
5.78508e-07
5.79755e-07
5.8005e-07
5.81094e-07
5.82026e-07
5.82196e-07
5.82819e-07
5.83174e-07
5.83593e-07
5.84153e-07
5.84349e-07
5.84743e-07
5.85339e-07
5.85547e-07
5.85747e-07
5.86444e-07
5.86619e-07
5.86752e-07
5.86842e-07
5.86862e-07
5.86553e-07
5.86053e-07
5.85281e-07
5.83959e-07
5.82656e-07
5.80729e-07
5.78431e-07
5.76078e-07
5.73406e-07
5.70437e-07
5.6752e-07
5.64468e-07
5.61066e-07
5.57595e-07
5.53453e-07
5.48607e-07
5.43039e-07
5.36588e-07
5.29252e-07
5.21395e-07
5.12936e-07
5.03964e-07
4.94483e-07
4.84332e-07
4.73609e-07
4.62248e-07
4.50419e-07
4.37465e-07
4.25051e-07
4.13602e-07
4.03254e-07
3.9315e-07
3.82664e-07
3.72956e-07
3.64998e-07
3.67525e-07
3.47986e-07
3.69116e-07
2.37891e-07
7.49025e-07
8.34316e-07
1.55713e-06
4.56702e-07
4.30426e-07
4.17012e-07
4.34105e-07
4.33751e-07
4.37669e-07
4.40001e-07
4.43236e-07
4.44894e-07
4.47377e-07
4.49996e-07
4.51755e-07
4.53409e-07
4.55206e-07
4.57266e-07
4.5832e-07
4.59841e-07
4.61319e-07
4.6209e-07
4.63656e-07
4.64909e-07
4.65462e-07
4.66778e-07
4.67962e-07
4.68622e-07
4.70073e-07
4.70985e-07
4.72014e-07
4.7344e-07
4.74607e-07
4.75772e-07
4.774e-07
4.78621e-07
4.80002e-07
4.81761e-07
4.83078e-07
4.84502e-07
4.85991e-07
4.8731e-07
4.884e-07
4.89518e-07
4.90234e-07
4.90842e-07
4.91345e-07
4.91302e-07
4.91322e-07
4.91287e-07
4.91053e-07
4.9084e-07
4.90662e-07
4.90592e-07
4.90276e-07
4.8979e-07
4.88933e-07
4.8732e-07
4.8506e-07
4.82045e-07
4.78242e-07
4.74053e-07
4.69352e-07
4.64221e-07
4.58706e-07
4.52596e-07
4.45878e-07
4.38527e-07
4.30557e-07
4.21446e-07
4.12663e-07
4.04121e-07
3.96124e-07
3.88506e-07
3.80853e-07
3.7456e-07
3.71801e-07
3.76802e-07
3.62812e-07
3.68051e-07
2.55415e-07
7.55996e-07
8.12756e-07
1.55665e-06
3.72291e-07
3.32956e-07
3.50418e-07
3.37472e-07
3.52288e-07
3.50471e-07
3.52848e-07
3.54834e-07
3.56662e-07
3.57571e-07
3.59206e-07
3.61023e-07
3.6228e-07
3.63327e-07
3.64855e-07
3.66458e-07
3.6713e-07
3.68747e-07
3.69974e-07
3.7097e-07
3.72573e-07
3.73658e-07
3.74964e-07
3.76307e-07
3.77723e-07
3.79118e-07
3.80804e-07
3.8235e-07
3.83875e-07
3.85892e-07
3.87716e-07
3.89492e-07
3.91836e-07
3.9374e-07
3.9594e-07
3.98429e-07
4.00471e-07
4.0282e-07
4.05184e-07
4.07323e-07
4.09492e-07
4.11564e-07
4.13455e-07
4.1533e-07
4.16982e-07
4.18568e-07
4.20163e-07
4.21791e-07
4.23481e-07
4.25278e-07
4.27168e-07
4.29248e-07
4.31189e-07
4.32925e-07
4.34431e-07
4.35202e-07
4.35444e-07
4.35091e-07
4.34075e-07
4.32818e-07
4.31214e-07
4.29264e-07
4.27047e-07
4.24306e-07
4.20979e-07
4.17054e-07
4.12434e-07
4.06712e-07
4.01127e-07
3.95185e-07
3.89399e-07
3.84241e-07
3.7947e-07
3.76841e-07
3.79124e-07
3.86511e-07
3.76317e-07
3.68216e-07
2.76865e-07
7.66875e-07
7.85114e-07
1.55578e-06
3.01254e-07
2.68571e-07
2.81935e-07
2.70577e-07
2.83238e-07
2.81142e-07
2.83261e-07
2.84056e-07
2.85509e-07
2.86582e-07
2.87287e-07
2.88726e-07
2.89795e-07
2.90986e-07
2.92129e-07
2.933e-07
2.94302e-07
2.95802e-07
2.97145e-07
2.98292e-07
2.99716e-07
3.01043e-07
3.02901e-07
3.04251e-07
3.06005e-07
3.07768e-07
3.0959e-07
3.11779e-07
3.1363e-07
3.15979e-07
3.18215e-07
3.20627e-07
3.23286e-07
3.25723e-07
3.28476e-07
3.3139e-07
3.34112e-07
3.3692e-07
3.39932e-07
3.42751e-07
3.45617e-07
3.48492e-07
3.51195e-07
3.5401e-07
3.56738e-07
3.59539e-07
3.62389e-07
3.65335e-07
3.68549e-07
3.71912e-07
3.75342e-07
3.79008e-07
3.82611e-07
3.85967e-07
3.89201e-07
3.91775e-07
3.93908e-07
3.95637e-07
3.96885e-07
3.98001e-07
3.98906e-07
3.99583e-07
4.00045e-07
4.00099e-07
3.99601e-07
3.98535e-07
3.96792e-07
3.94022e-07
3.91214e-07
3.87586e-07
3.83892e-07
3.81104e-07
3.79207e-07
3.80353e-07
3.87359e-07
3.96753e-07
3.88867e-07
3.70537e-07
3.05747e-07
7.81791e-07
7.52778e-07
1.55608e-06
2.40516e-07
2.14171e-07
2.23854e-07
2.1449e-07
2.24909e-07
2.23465e-07
2.25081e-07
2.25855e-07
2.27324e-07
2.27805e-07
2.28834e-07
2.30299e-07
2.31143e-07
2.3246e-07
2.33691e-07
2.3471e-07
2.36194e-07
2.37637e-07
2.39155e-07
2.40408e-07
2.42068e-07
2.4389e-07
2.45548e-07
2.47367e-07
2.49458e-07
2.51245e-07
2.53562e-07
2.55983e-07
2.58025e-07
2.60693e-07
2.63185e-07
2.65967e-07
2.68817e-07
2.71495e-07
2.74584e-07
2.77824e-07
2.80729e-07
2.83924e-07
2.87291e-07
2.9045e-07
2.93715e-07
2.97178e-07
3.00378e-07
3.03779e-07
3.07385e-07
3.10905e-07
3.14698e-07
3.18596e-07
3.22832e-07
3.27205e-07
3.3167e-07
3.36426e-07
3.41054e-07
3.45525e-07
3.49943e-07
3.53828e-07
3.57402e-07
3.60768e-07
3.63847e-07
3.66891e-07
3.69803e-07
3.72632e-07
3.75316e-07
3.77631e-07
3.79506e-07
3.80854e-07
3.81558e-07
3.81335e-07
3.80872e-07
3.7929e-07
3.77638e-07
3.7725e-07
3.78311e-07
3.83336e-07
3.94558e-07
4.05034e-07
3.97673e-07
3.72594e-07
3.39134e-07
8.00354e-07
7.13007e-07
1.56066e-06
2.01706e-07
1.80751e-07
1.88892e-07
1.80757e-07
1.89704e-07
1.88393e-07
1.89201e-07
1.90388e-07
1.9128e-07
1.91601e-07
1.92682e-07
1.93799e-07
1.9456e-07
1.95487e-07
1.96742e-07
1.97641e-07
1.9906e-07
2.00377e-07
2.01499e-07
2.02833e-07
2.04518e-07
2.06218e-07
2.07583e-07
2.09305e-07
2.11564e-07
2.1316e-07
2.15336e-07
2.17663e-07
2.19781e-07
2.22248e-07
2.24797e-07
2.2748e-07
2.30286e-07
2.33047e-07
2.36172e-07
2.39373e-07
2.42403e-07
2.45834e-07
2.49302e-07
2.52815e-07
2.56313e-07
2.60215e-07
2.63944e-07
2.67909e-07
2.72147e-07
2.76268e-07
2.80868e-07
2.85456e-07
2.90343e-07
2.95399e-07
3.00563e-07
3.05932e-07
3.112e-07
3.16496e-07
3.21676e-07
3.26565e-07
3.31318e-07
3.35957e-07
3.40467e-07
3.45018e-07
3.49476e-07
3.53945e-07
3.58325e-07
3.62367e-07
3.66146e-07
3.69448e-07
3.7215e-07
3.74085e-07
3.75696e-07
3.76029e-07
3.7619e-07
3.77791e-07
3.81298e-07
3.89581e-07
4.03926e-07
4.14694e-07
4.07919e-07
3.83188e-07
3.8841e-07
8.29052e-07
6.75994e-07
1.58199e-06
1.64377e-07
1.46579e-07
1.53184e-07
1.45998e-07
1.55209e-07
1.53904e-07
1.55293e-07
1.56498e-07
1.56919e-07
1.57623e-07
1.59126e-07
1.60317e-07
1.61305e-07
1.62204e-07
1.63549e-07
1.64986e-07
1.66437e-07
1.67693e-07
1.68867e-07
1.70871e-07
1.72422e-07
1.74102e-07
1.75772e-07
1.77477e-07
1.79853e-07
1.81656e-07
1.83728e-07
1.85959e-07
1.883e-07
1.90702e-07
1.93067e-07
1.95846e-07
1.9839e-07
2.01171e-07
2.04205e-07
2.07138e-07
2.10189e-07
2.13337e-07
2.16835e-07
2.20253e-07
2.23651e-07
2.27531e-07
2.31335e-07
2.35316e-07
2.39485e-07
2.4381e-07
2.48348e-07
2.52963e-07
2.57799e-07
2.62764e-07
2.67936e-07
2.7316e-07
2.78504e-07
2.8393e-07
2.89291e-07
2.94617e-07
2.9998e-07
3.05351e-07
3.10702e-07
3.1621e-07
3.21692e-07
3.27283e-07
3.3284e-07
3.38173e-07
3.43361e-07
3.48101e-07
3.52312e-07
3.55815e-07
3.58617e-07
3.60112e-07
3.62108e-07
3.66141e-07
3.72889e-07
3.85203e-07
4.02124e-07
4.1056e-07
4.00165e-07
3.77227e-07
4.20665e-07
8.46834e-07
6.13266e-07
1.61908e-06
1.73422e-07
1.61135e-07
1.6578e-07
1.6055e-07
1.65092e-07
1.64113e-07
1.65209e-07
1.65786e-07
1.65627e-07
1.66081e-07
1.67052e-07
1.6785e-07
1.68351e-07
1.68688e-07
1.69585e-07
1.70532e-07
1.71336e-07
1.7211e-07
1.72792e-07
1.74249e-07
1.75272e-07
1.76217e-07
1.77447e-07
1.7873e-07
1.80351e-07
1.81764e-07
1.83402e-07
1.85062e-07
1.87014e-07
1.89049e-07
1.9105e-07
1.93543e-07
1.95844e-07
1.98563e-07
2.01436e-07
2.04427e-07
2.07608e-07
2.10942e-07
2.1475e-07
2.18428e-07
2.22429e-07
2.26664e-07
2.30931e-07
2.3534e-07
2.39896e-07
2.44557e-07
2.49127e-07
2.53897e-07
2.58666e-07
2.63534e-07
2.68664e-07
2.7388e-07
2.79411e-07
2.85071e-07
2.90915e-07
2.96833e-07
3.02807e-07
3.08793e-07
3.14639e-07
3.2055e-07
3.26376e-07
3.32297e-07
3.38235e-07
3.44102e-07
3.49914e-07
3.55404e-07
3.60578e-07
3.65332e-07
3.69932e-07
3.73326e-07
3.76117e-07
3.80192e-07
3.86497e-07
3.97903e-07
4.13269e-07
4.20188e-07
4.15156e-07
4.14285e-07
5.10573e-07
8.95247e-07
6.33996e-07
1.77977e-06
1.32048e-07
1.3355e-07
1.32015e-07
1.34999e-07
1.36353e-07
1.36799e-07
1.37566e-07
1.38116e-07
1.38982e-07
1.39904e-07
1.40466e-07
1.41374e-07
1.4229e-07
1.43252e-07
1.44192e-07
1.45105e-07
1.46228e-07
1.47289e-07
1.48378e-07
1.4961e-07
1.50729e-07
1.52045e-07
1.53278e-07
1.54608e-07
1.56055e-07
1.57541e-07
1.59049e-07
1.60575e-07
1.62303e-07
1.63978e-07
1.65788e-07
1.67693e-07
1.69589e-07
1.71707e-07
1.73808e-07
1.76092e-07
1.78422e-07
1.80856e-07
1.83424e-07
1.85959e-07
1.88673e-07
1.91372e-07
1.94078e-07
1.96785e-07
1.99557e-07
2.02254e-07
2.04964e-07
2.07806e-07
2.10702e-07
2.1385e-07
2.17209e-07
2.20853e-07
2.24823e-07
2.28973e-07
2.33407e-07
2.37973e-07
2.42746e-07
2.4765e-07
2.52671e-07
2.58013e-07
2.63526e-07
2.69325e-07
2.75285e-07
2.81317e-07
2.87354e-07
2.93078e-07
2.98471e-07
3.03273e-07
3.05989e-07
3.07103e-07
3.11103e-07
3.19418e-07
3.32401e-07
3.52135e-07
3.70582e-07
3.68274e-07
3.46869e-07
3.5414e-07
4.99956e-07
7.63735e-07
5.75807e-07
1.79264e-06
)
;

boundaryField
{
    inlet
    {
        type            calculated;
        value           nonuniform List<scalar> 
23
(
6.78294e-06
6.74893e-06
6.71593e-06
6.68389e-06
6.65213e-06
6.6199e-06
6.58628e-06
6.55057e-06
6.51184e-06
6.46928e-06
6.42177e-06
6.36971e-06
6.30991e-06
6.21612e-06
6.13775e-06
6.04255e-06
5.92425e-06
5.78015e-06
5.60691e-06
5.40379e-06
5.16219e-06
4.97832e-06
4.62615e-06
)
;
    }
    outlet
    {
        type            calculated;
        value           nonuniform List<scalar> 
82
(
1.05256e-07
1.05015e-07
1.07306e-07
1.085e-07
1.09978e-07
1.10322e-07
1.11044e-07
1.11507e-07
1.12338e-07
1.1323e-07
1.13687e-07
1.14544e-07
1.15414e-07
1.16323e-07
1.17206e-07
1.18045e-07
1.19127e-07
1.20132e-07
1.21156e-07
1.22352e-07
1.23398e-07
1.24663e-07
1.25831e-07
1.27096e-07
1.2849e-07
1.29911e-07
1.3135e-07
1.32784e-07
1.34443e-07
1.36016e-07
1.37716e-07
1.39508e-07
1.41251e-07
1.43228e-07
1.45141e-07
1.47229e-07
1.49334e-07
1.51516e-07
1.53817e-07
1.56034e-07
1.58435e-07
1.60789e-07
1.63129e-07
1.65463e-07
1.67872e-07
1.70205e-07
1.72563e-07
1.75097e-07
1.777e-07
1.8059e-07
1.83697e-07
1.87079e-07
1.90764e-07
1.94572e-07
1.98629e-07
2.02792e-07
2.0719e-07
2.11796e-07
2.16637e-07
2.21972e-07
2.27615e-07
2.3365e-07
2.39887e-07
2.46184e-07
2.52463e-07
2.58351e-07
2.63747e-07
2.68215e-07
2.69985e-07
2.70197e-07
2.74366e-07
2.84027e-07
2.99817e-07
3.23605e-07
3.45134e-07
3.41095e-07
3.09439e-07
3.03266e-07
4.48031e-07
7.34272e-07
4.68519e-07
1.62421e-06
)
;
    }
    walls
    {
        type            calculated;
        value           nonuniform List<scalar> 0();
    }
    frontAndBack
    {
        type            empty;
    }
    procBoundary3to2
    {
        type            processor;
        value           nonuniform List<scalar> 
88
(
8.22947e-07
1.60519e-06
1.87196e-07
7.4492e-07
7.4492e-07
1.92302e-07
3.1602e-07
3.1602e-07
3.73217e-07
3.26657e-07
3.04512e-07
3.04512e-07
5.42724e-07
5.01212e-07
4.67172e-07
4.3568e-07
4.03038e-07
4.03038e-07
7.75435e-07
7.24784e-07
6.74319e-07
6.25192e-07
5.77256e-07
5.77256e-07
1.08023e-06
1.03075e-06
9.81729e-07
9.33523e-07
8.86249e-07
8.39736e-07
7.93497e-07
7.93497e-07
1.51654e-06
1.47721e-06
1.43718e-06
1.39658e-06
1.35548e-06
1.31403e-06
1.27232e-06
1.2304e-06
1.18831e-06
1.14594e-06
1.10325e-06
1.06016e-06
1.06016e-06
1.02287e-06
1.55073e-06
1.62543e-06
1.4759e-06
1.5231e-06
1.5711e-06
1.6112e-06
1.64474e-06
1.67451e-06
1.70119e-06
1.72613e-06
1.74773e-06
1.76611e-06
1.78173e-06
1.79403e-06
1.80354e-06
1.81001e-06
1.81354e-06
1.81455e-06
1.81298e-06
1.80907e-06
1.80301e-06
1.79484e-06
1.7849e-06
1.77338e-06
1.76018e-06
1.74563e-06
1.72983e-06
1.71283e-06
1.6947e-06
1.67546e-06
1.65532e-06
1.63413e-06
1.61195e-06
1.58894e-06
1.56489e-06
1.53998e-06
1.51412e-06
1.48726e-06
1.45953e-06
1.43084e-06
1.40119e-06
1.40119e-06
)
;
    }
    procBoundary3to6
    {
        type            processor;
        value           uniform 7.29382e-08;
    }
    procBoundary3to7
    {
        type            processor;
        value           nonuniform List<scalar> 
16
(
3.09118e-08
9.56149e-07
9.72454e-07
7.51855e-07
6.57345e-07
5.79121e-07
4.89925e-07
4.06999e-07
4.06999e-07
3.29674e-07
2.66514e-07
2.12294e-07
1.78934e-07
1.46202e-07
1.5807e-07
1.35582e-07
)
;
    }
}


// ************************************************************************* //
