/*--------------------------------*- C++ -*----------------------------------*\
| =========                 |                                                 |
| \\      /  F ield         | OpenFOAM: The Open Source CFD Toolbox           |
|  \\    /   O peration     | Version:  2506                                  |
|   \\  /    A nd           | Website:  www.openfoam.com                      |
|    \\/     M anipulation  |                                                 |
\*---------------------------------------------------------------------------*/
FoamFile
{
    version     2.0;
    format      ascii;
    arch        "LSB;label=32;scalar=64";
    class       volScalarField;
    location    "400";
    object      turbulenceProperties:nut;
}
// * * * * * * * * * * * * * * * * * * * * * * * * * * * * * * * * * * * * * //

dimensions      [0 2 -1 0 0 0 0];

internalField   nonuniform List<scalar> 
1340
(
6.14788e-06
6.12038e-06
6.12291e-06
6.124e-06
6.14982e-06
6.12066e-06
6.12946e-06
6.13101e-06
6.12343e-06
6.12589e-06
6.15186e-06
6.12086e-06
6.10904e-06
6.11372e-06
6.12194e-06
6.13075e-06
6.13171e-06
6.12399e-06
6.12797e-06
6.15398e-06
6.12095e-06
6.09885e-06
6.10256e-06
6.10478e-06
6.10624e-06
6.10756e-06
6.10982e-06
6.11484e-06
6.12341e-06
6.1321e-06
6.13241e-06
6.12459e-06
6.13027e-06
6.15619e-06
6.12093e-06
6.07727e-06
6.08104e-06
6.08548e-06
6.09026e-06
6.09505e-06
6.09971e-06
6.10336e-06
6.10549e-06
6.10689e-06
6.10822e-06
6.11068e-06
6.11606e-06
6.12497e-06
6.13348e-06
6.13312e-06
6.12526e-06
6.13279e-06
6.15847e-06
6.12077e-06
6.07937e-06
6.07668e-06
6.07432e-06
6.07263e-06
6.07198e-06
6.07275e-06
6.07479e-06
6.0778e-06
6.08171e-06
6.08626e-06
6.0911e-06
6.09594e-06
6.10061e-06
6.1042e-06
6.10623e-06
6.10756e-06
6.10893e-06
6.1116e-06
6.1174e-06
6.12664e-06
6.13491e-06
6.13381e-06
6.12598e-06
6.13556e-06
6.16082e-06
6.12045e-06
6.09749e-06
6.09638e-06
6.09529e-06
6.09425e-06
6.09324e-06
6.09223e-06
6.09115e-06
6.08993e-06
6.08845e-06
6.08662e-06
6.0844e-06
6.08183e-06
6.07908e-06
6.07639e-06
6.07408e-06
6.07249e-06
6.07201e-06
6.073e-06
6.07521e-06
6.07839e-06
6.08244e-06
6.0871e-06
6.09201e-06
6.09688e-06
6.10155e-06
6.10508e-06
6.10699e-06
6.10827e-06
6.10969e-06
6.11261e-06
6.11885e-06
6.12842e-06
6.13637e-06
6.1345e-06
6.12679e-06
6.13861e-06
6.16323e-06
6.11994e-06
5.91197e-06
7.57189e-06
6.91769e-06
6.06063e-06
5.99267e-06
6.12566e-06
6.15225e-06
6.15031e-06
6.14466e-06
6.13806e-06
6.13467e-06
6.13187e-06
6.12894e-06
6.12633e-06
6.12403e-06
6.12192e-06
6.12004e-06
6.11837e-06
6.1169e-06
6.11561e-06
6.11449e-06
6.11352e-06
6.11269e-06
6.11198e-06
6.11138e-06
6.11084e-06
6.11037e-06
6.10992e-06
6.10948e-06
6.10904e-06
6.10858e-06
6.10809e-06
6.10756e-06
6.10697e-06
6.10633e-06
6.10562e-06
6.10483e-06
6.10397e-06
6.10304e-06
6.10204e-06
6.10098e-06
6.09988e-06
6.09876e-06
6.09764e-06
6.09653e-06
6.09546e-06
6.09443e-06
6.09342e-06
6.0924e-06
6.0913e-06
6.09002e-06
6.08846e-06
6.08653e-06
6.08421e-06
6.08156e-06
6.07876e-06
6.07607e-06
6.07382e-06
6.07236e-06
6.07208e-06
6.07329e-06
6.07568e-06
6.07903e-06
6.08324e-06
6.088e-06
6.09297e-06
6.09788e-06
6.10255e-06
6.10598e-06
6.10778e-06
6.109e-06
6.1105e-06
6.11372e-06
6.12043e-06
6.13031e-06
6.13786e-06
6.13517e-06
6.12768e-06
6.14194e-06
6.16566e-06
6.11924e-06
7.99305e-06
6.5134e-06
6.06909e-06
6.01427e-06
6.13258e-06
6.15901e-06
6.14915e-06
6.14319e-06
6.13797e-06
6.13446e-06
6.13194e-06
6.12931e-06
6.12684e-06
6.12466e-06
6.12267e-06
6.12086e-06
6.11925e-06
6.11781e-06
6.11654e-06
6.11543e-06
6.11447e-06
6.11363e-06
6.11291e-06
6.11229e-06
6.11174e-06
6.11125e-06
6.1108e-06
6.11036e-06
6.10993e-06
6.10948e-06
6.109e-06
6.1085e-06
6.10794e-06
6.10733e-06
6.10666e-06
6.10591e-06
6.10509e-06
6.1042e-06
6.10324e-06
6.10222e-06
6.10114e-06
6.10003e-06
6.0989e-06
6.09778e-06
6.09669e-06
6.09563e-06
6.09461e-06
6.09361e-06
6.09257e-06
6.09144e-06
6.09009e-06
6.08844e-06
6.08641e-06
6.08398e-06
6.08124e-06
6.07841e-06
6.07574e-06
6.07357e-06
6.07225e-06
6.07219e-06
6.07363e-06
6.07621e-06
6.07974e-06
6.0841e-06
6.08896e-06
6.09399e-06
6.09894e-06
6.10359e-06
6.10692e-06
6.1086e-06
6.10977e-06
6.11138e-06
6.11494e-06
6.12216e-06
6.13231e-06
6.13937e-06
6.13582e-06
6.12869e-06
6.14558e-06
6.16809e-06
6.1183e-06
6.30107e-06
6.03169e-06
6.06358e-06
6.13721e-06
6.16153e-06
6.14769e-06
6.14057e-06
6.13692e-06
6.13385e-06
6.13153e-06
6.12922e-06
6.12698e-06
6.12496e-06
6.12312e-06
6.12144e-06
6.11992e-06
6.11855e-06
6.11734e-06
6.11627e-06
6.11533e-06
6.11451e-06
6.1138e-06
6.11317e-06
6.11263e-06
6.11213e-06
6.11168e-06
6.11124e-06
6.11081e-06
6.11037e-06
6.10991e-06
6.10942e-06
6.10889e-06
6.10831e-06
6.10767e-06
6.10696e-06
6.10618e-06
6.10533e-06
6.10441e-06
6.10342e-06
6.10238e-06
6.10129e-06
6.10017e-06
6.09904e-06
6.09793e-06
6.09684e-06
6.0958e-06
6.09479e-06
6.09379e-06
6.09274e-06
6.09156e-06
6.09014e-06
6.08838e-06
6.08623e-06
6.0837e-06
6.08089e-06
6.07802e-06
6.07539e-06
6.07331e-06
6.07216e-06
6.07236e-06
6.07403e-06
6.07681e-06
6.08052e-06
6.08503e-06
6.08999e-06
6.09508e-06
6.10006e-06
6.10468e-06
6.10788e-06
6.10944e-06
6.11058e-06
6.11233e-06
6.11628e-06
6.12405e-06
6.13442e-06
6.14089e-06
6.13644e-06
6.12983e-06
6.14955e-06
6.17048e-06
6.11711e-06
6.00838e-06
6.10365e-06
6.14397e-06
6.1573e-06
6.14538e-06
6.13766e-06
6.13521e-06
6.13289e-06
6.13079e-06
6.12878e-06
6.1268e-06
6.12499e-06
6.12333e-06
6.1218e-06
6.12041e-06
6.11915e-06
6.11802e-06
6.11702e-06
6.11613e-06
6.11534e-06
6.11465e-06
6.11405e-06
6.11351e-06
6.11302e-06
6.11257e-06
6.11213e-06
6.11171e-06
6.11127e-06
6.11083e-06
6.11035e-06
6.10984e-06
6.10928e-06
6.10867e-06
6.108e-06
6.10725e-06
6.10644e-06
6.10556e-06
6.10461e-06
6.10359e-06
6.10253e-06
6.10142e-06
6.1003e-06
6.09918e-06
6.09808e-06
6.09701e-06
6.09598e-06
6.09498e-06
6.09398e-06
6.0929e-06
6.09165e-06
6.09015e-06
6.08828e-06
6.08601e-06
6.08336e-06
6.08048e-06
6.0776e-06
6.07501e-06
6.07305e-06
6.07211e-06
6.07259e-06
6.0745e-06
6.07748e-06
6.08138e-06
6.08604e-06
6.0911e-06
6.09625e-06
6.10125e-06
6.10582e-06
6.10888e-06
6.11031e-06
6.11144e-06
6.11336e-06
6.11777e-06
6.12611e-06
6.13665e-06
6.14242e-06
6.13702e-06
6.13113e-06
6.15385e-06
6.1728e-06
6.11562e-06
6.12457e-06
6.14834e-06
6.14878e-06
6.14162e-06
6.13501e-06
6.13312e-06
6.13153e-06
6.12972e-06
6.12799e-06
6.12629e-06
6.12471e-06
6.12326e-06
6.12192e-06
6.12068e-06
6.11956e-06
6.11854e-06
6.11762e-06
6.11681e-06
6.11608e-06
6.11543e-06
6.11485e-06
6.11433e-06
6.11386e-06
6.11342e-06
6.11299e-06
6.11257e-06
6.11215e-06
6.11172e-06
6.11126e-06
6.11076e-06
6.11023e-06
6.10964e-06
6.10899e-06
6.10829e-06
6.10751e-06
6.10666e-06
6.10575e-06
6.10477e-06
6.10373e-06
6.10265e-06
6.10154e-06
6.10042e-06
6.0993e-06
6.09822e-06
6.09717e-06
6.09616e-06
6.09517e-06
6.09415e-06
6.09304e-06
6.09173e-06
6.09012e-06
6.08812e-06
6.08572e-06
6.08297e-06
6.08003e-06
6.07715e-06
6.07463e-06
6.07282e-06
6.0721e-06
6.07288e-06
6.07503e-06
6.07822e-06
6.08232e-06
6.08712e-06
6.09228e-06
6.09748e-06
6.1025e-06
6.10701e-06
6.1099e-06
6.11121e-06
6.11235e-06
6.1145e-06
6.11942e-06
6.12834e-06
6.13898e-06
6.14392e-06
6.13756e-06
6.13258e-06
6.15853e-06
6.17498e-06
6.11376e-06
6.14381e-06
6.13846e-06
6.13517e-06
6.13197e-06
6.13037e-06
6.12918e-06
6.12776e-06
6.12638e-06
6.12506e-06
6.1238e-06
6.12264e-06
6.12156e-06
6.12056e-06
6.11965e-06
6.11881e-06
6.11804e-06
6.11735e-06
6.11673e-06
6.11616e-06
6.11565e-06
6.11518e-06
6.11474e-06
6.11432e-06
6.11392e-06
6.11351e-06
6.1131e-06
6.11267e-06
6.11222e-06
6.11174e-06
6.11121e-06
6.11064e-06
6.11001e-06
6.10933e-06
6.10857e-06
6.10775e-06
6.10686e-06
6.10591e-06
6.1049e-06
6.10385e-06
6.10275e-06
6.10164e-06
6.10054e-06
6.09945e-06
6.09839e-06
6.09737e-06
6.09639e-06
6.0954e-06
6.09436e-06
6.09317e-06
6.09175e-06
6.09e-06
6.08784e-06
6.08528e-06
6.0824e-06
6.07941e-06
6.07656e-06
6.07416e-06
6.07256e-06
6.07217e-06
6.07333e-06
6.07578e-06
6.07924e-06
6.08357e-06
6.08854e-06
6.0938e-06
6.09905e-06
6.10407e-06
6.10845e-06
6.11113e-06
6.1123e-06
6.11348e-06
6.11596e-06
6.12154e-06
6.13113e-06
6.14174e-06
6.14557e-06
6.13813e-06
6.13452e-06
6.16399e-06
6.17718e-06
6.11166e-06
6.13099e-06
6.12949e-06
6.12836e-06
6.12736e-06
6.12649e-06
6.12548e-06
6.1245e-06
6.12357e-06
6.12268e-06
6.12185e-06
6.12107e-06
6.12034e-06
6.11967e-06
6.11904e-06
6.11846e-06
6.11793e-06
6.11744e-06
6.11698e-06
6.11655e-06
6.11614e-06
6.11575e-06
6.11537e-06
6.11498e-06
6.11459e-06
6.11419e-06
6.11377e-06
6.11332e-06
6.11284e-06
6.11231e-06
6.11174e-06
6.11112e-06
6.11043e-06
6.10969e-06
6.10888e-06
6.10801e-06
6.10707e-06
6.10608e-06
6.10504e-06
6.10397e-06
6.10288e-06
6.10178e-06
6.1007e-06
6.09964e-06
6.09863e-06
6.09764e-06
6.09667e-06
6.09567e-06
6.09457e-06
6.09327e-06
6.09169e-06
6.08973e-06
6.08735e-06
6.0846e-06
6.08161e-06
6.0786e-06
6.07583e-06
6.07362e-06
6.07234e-06
6.0724e-06
6.07402e-06
6.07683e-06
6.0806e-06
6.0852e-06
6.09035e-06
6.0957e-06
6.10099e-06
6.10598e-06
6.11017e-06
6.11257e-06
6.11359e-06
6.11488e-06
6.11784e-06
6.12425e-06
6.13456e-06
6.14493e-06
6.1473e-06
6.13873e-06
6.13743e-06
6.17034e-06
6.17918e-06
6.1089e-06
6.12629e-06
6.12588e-06
6.12524e-06
6.12457e-06
6.12389e-06
6.12323e-06
6.12261e-06
6.122e-06
6.12143e-06
6.12089e-06
6.12038e-06
6.1199e-06
6.11944e-06
6.11901e-06
6.1186e-06
6.11821e-06
6.11784e-06
6.11748e-06
6.11712e-06
6.11677e-06
6.11641e-06
6.11605e-06
6.11568e-06
6.11528e-06
6.11486e-06
6.11441e-06
6.11392e-06
6.1134e-06
6.11282e-06
6.1122e-06
6.11152e-06
6.11077e-06
6.10997e-06
6.10911e-06
6.10819e-06
6.10722e-06
6.1062e-06
6.10514e-06
6.10407e-06
6.10299e-06
6.10192e-06
6.10087e-06
6.09986e-06
6.09888e-06
6.09793e-06
6.09695e-06
6.09591e-06
6.09471e-06
6.09326e-06
6.09147e-06
6.08929e-06
6.0867e-06
6.08378e-06
6.0807e-06
6.0777e-06
6.07507e-06
6.07311e-06
6.07223e-06
6.07283e-06
6.07489e-06
6.07806e-06
6.08216e-06
6.08701e-06
6.09232e-06
6.09776e-06
6.10307e-06
6.10798e-06
6.11193e-06
6.11403e-06
6.11494e-06
6.11642e-06
6.11998e-06
6.12731e-06
6.13828e-06
6.14819e-06
6.14886e-06
6.13938e-06
6.14129e-06
6.17709e-06
6.18074e-06
6.10565e-06
6.1244e-06
6.1246e-06
6.12396e-06
6.12352e-06
6.12306e-06
6.12263e-06
6.12222e-06
6.12183e-06
6.12144e-06
6.12107e-06
6.12071e-06
6.12036e-06
6.12002e-06
6.11969e-06
6.11937e-06
6.11906e-06
6.11875e-06
6.11843e-06
6.11811e-06
6.11779e-06
6.11745e-06
6.1171e-06
6.11673e-06
6.11634e-06
6.11592e-06
6.11546e-06
6.11497e-06
6.11444e-06
6.11386e-06
6.11323e-06
6.11254e-06
6.1118e-06
6.11101e-06
6.11015e-06
6.10925e-06
6.10829e-06
6.10729e-06
6.10626e-06
6.10521e-06
6.10415e-06
6.10309e-06
6.10206e-06
6.10107e-06
6.1001e-06
6.09916e-06
6.09821e-06
6.0972e-06
6.09608e-06
6.09474e-06
6.0931e-06
6.09108e-06
6.08865e-06
6.08585e-06
6.0828e-06
6.07968e-06
6.07676e-06
6.07431e-06
6.07269e-06
6.0723e-06
6.07347e-06
6.07597e-06
6.07951e-06
6.08392e-06
6.08902e-06
6.09447e-06
6.09997e-06
6.10529e-06
6.11008e-06
6.11373e-06
6.11551e-06
6.11637e-06
6.11816e-06
6.12246e-06
6.13078e-06
6.1423e-06
6.15145e-06
6.15022e-06
6.14018e-06
6.14624e-06
6.18418e-06
6.18168e-06
6.10189e-06
6.12349e-06
6.1238e-06
6.12318e-06
6.1229e-06
6.12262e-06
6.12235e-06
6.12208e-06
6.12181e-06
6.12154e-06
6.12128e-06
6.12102e-06
6.12076e-06
6.12049e-06
6.12023e-06
6.11996e-06
6.11968e-06
6.11939e-06
6.11909e-06
6.11878e-06
6.11845e-06
6.11811e-06
6.11773e-06
6.11734e-06
6.11691e-06
6.11645e-06
6.11594e-06
6.1154e-06
6.11481e-06
6.11418e-06
6.11349e-06
6.11275e-06
6.11196e-06
6.11112e-06
6.11022e-06
6.10928e-06
6.1083e-06
6.1073e-06
6.10627e-06
6.10524e-06
6.10421e-06
6.10321e-06
6.10223e-06
6.10128e-06
6.10035e-06
6.09943e-06
6.09846e-06
6.09738e-06
6.09613e-06
6.0946e-06
6.09273e-06
6.09046e-06
6.08779e-06
6.08481e-06
6.08166e-06
6.07856e-06
6.07578e-06
6.07361e-06
6.07241e-06
6.07262e-06
6.07435e-06
6.07729e-06
6.08119e-06
6.08592e-06
6.09123e-06
6.0968e-06
6.10235e-06
6.10763e-06
6.11224e-06
6.11554e-06
6.11702e-06
6.11792e-06
6.12014e-06
6.12533e-06
6.13469e-06
6.1466e-06
6.15465e-06
6.15134e-06
6.14123e-06
6.15235e-06
6.19149e-06
6.18186e-06
6.09763e-06
6.12343e-06
6.12365e-06
6.12323e-06
6.12305e-06
6.12285e-06
6.12265e-06
6.12245e-06
6.12224e-06
6.12203e-06
6.12182e-06
6.12159e-06
6.12136e-06
6.12112e-06
6.12087e-06
6.12061e-06
6.12033e-06
6.12004e-06
6.11973e-06
6.1194e-06
6.11905e-06
6.11867e-06
6.11826e-06
6.11782e-06
6.11735e-06
6.11683e-06
6.11628e-06
6.11568e-06
6.11504e-06
6.11435e-06
6.11361e-06
6.11283e-06
6.11199e-06
6.11111e-06
6.11019e-06
6.10924e-06
6.10826e-06
6.10727e-06
6.10627e-06
6.10527e-06
6.1043e-06
6.10335e-06
6.10243e-06
6.10152e-06
6.10062e-06
6.09967e-06
6.09864e-06
6.09745e-06
6.09601e-06
6.09425e-06
6.09212e-06
6.08958e-06
6.08669e-06
6.08357e-06
6.08039e-06
6.07739e-06
6.07482e-06
6.07301e-06
6.07235e-06
6.07322e-06
6.0755e-06
6.07886e-06
6.08314e-06
6.08816e-06
6.09366e-06
6.09932e-06
6.10489e-06
6.1101e-06
6.11446e-06
6.11736e-06
6.11858e-06
6.11962e-06
6.12245e-06
6.12867e-06
6.13909e-06
6.15114e-06
6.1577e-06
6.15219e-06
6.14271e-06
6.15974e-06
6.19889e-06
6.18108e-06
6.09262e-06
6.12385e-06
6.12402e-06
6.12369e-06
6.12354e-06
6.12337e-06
6.1232e-06
6.12302e-06
6.12283e-06
6.12263e-06
6.12242e-06
6.1222e-06
6.12197e-06
6.12173e-06
6.12146e-06
6.12119e-06
6.12089e-06
6.12057e-06
6.12023e-06
6.11987e-06
6.11947e-06
6.11905e-06
6.1186e-06
6.11811e-06
6.11758e-06
6.11702e-06
6.11641e-06
6.11577e-06
6.11507e-06
6.11434e-06
6.11356e-06
6.11274e-06
6.11188e-06
6.11098e-06
6.11006e-06
6.10912e-06
6.10816e-06
6.1072e-06
6.10625e-06
6.10532e-06
6.10441e-06
6.10352e-06
6.10264e-06
6.10176e-06
6.10085e-06
6.09985e-06
6.09871e-06
6.09734e-06
6.09567e-06
6.09364e-06
6.09122e-06
6.08843e-06
6.08536e-06
6.08215e-06
6.07901e-06
6.07617e-06
6.07391e-06
6.07257e-06
6.07259e-06
6.07413e-06
6.07692e-06
6.08071e-06
6.08534e-06
6.09063e-06
6.09629e-06
6.10202e-06
6.10759e-06
6.11267e-06
6.11671e-06
6.11918e-06
6.12019e-06
6.1215e-06
6.12511e-06
6.13251e-06
6.14394e-06
6.15584e-06
6.16051e-06
6.15277e-06
6.14469e-06
6.16836e-06
6.20616e-06
6.1791e-06
6.08789e-06
6.12447e-06
6.12463e-06
6.12432e-06
6.12417e-06
6.124e-06
6.12382e-06
6.12364e-06
6.12344e-06
6.12323e-06
6.12301e-06
6.12277e-06
6.12252e-06
6.12225e-06
6.12196e-06
6.12165e-06
6.12132e-06
6.12096e-06
6.12058e-06
6.12017e-06
6.11974e-06
6.11927e-06
6.11877e-06
6.11823e-06
6.11766e-06
6.11705e-06
6.1164e-06
6.11571e-06
6.11498e-06
6.11422e-06
6.11342e-06
6.11259e-06
6.11172e-06
6.11084e-06
6.10994e-06
6.10903e-06
6.10811e-06
6.10721e-06
6.10632e-06
6.10544e-06
6.10459e-06
6.10374e-06
6.10288e-06
6.10198e-06
6.101e-06
6.09987e-06
6.09854e-06
6.09692e-06
6.09497e-06
6.09264e-06
6.08995e-06
6.08696e-06
6.08378e-06
6.08058e-06
6.07758e-06
6.07502e-06
6.07319e-06
6.07249e-06
6.07328e-06
6.07547e-06
6.07877e-06
6.08299e-06
6.08797e-06
6.0935e-06
6.09928e-06
6.10505e-06
6.11055e-06
6.11541e-06
6.11904e-06
6.12108e-06
6.12204e-06
6.12388e-06
6.12852e-06
6.13724e-06
6.1495e-06
6.1607e-06
6.16294e-06
6.15321e-06
6.14772e-06
6.17869e-06
6.21307e-06
6.1763e-06
6.08496e-06
6.12493e-06
6.1251e-06
6.12476e-06
6.1246e-06
6.12441e-06
6.12422e-06
6.12402e-06
6.1238e-06
6.12357e-06
6.12332e-06
6.12305e-06
6.12277e-06
6.12247e-06
6.12215e-06
6.12181e-06
6.12144e-06
6.12104e-06
6.12062e-06
6.12018e-06
6.1197e-06
6.11918e-06
6.11864e-06
6.11806e-06
6.11745e-06
6.1168e-06
6.11612e-06
6.11541e-06
6.11466e-06
6.11388e-06
6.11307e-06
6.11224e-06
6.11139e-06
6.11053e-06
6.10967e-06
6.10881e-06
6.10796e-06
6.10713e-06
6.10631e-06
6.10551e-06
6.10472e-06
6.10391e-06
6.10307e-06
6.10214e-06
6.10107e-06
6.0998e-06
6.09826e-06
6.09639e-06
6.09416e-06
6.09155e-06
6.08862e-06
6.08545e-06
6.08219e-06
6.07903e-06
6.07617e-06
6.0739e-06
6.07256e-06
6.07258e-06
6.07405e-06
6.07677e-06
6.08049e-06
6.08508e-06
6.09035e-06
6.09606e-06
6.10194e-06
6.10774e-06
6.11318e-06
6.11781e-06
6.12102e-06
6.12264e-06
6.12354e-06
6.12588e-06
6.13152e-06
6.14149e-06
6.15453e-06
6.16504e-06
6.16488e-06
6.15312e-06
6.15033e-06
6.1883e-06
6.21911e-06
6.17195e-06
6.08171e-06
6.1254e-06
6.1256e-06
6.1252e-06
6.12499e-06
6.12477e-06
6.12454e-06
6.12429e-06
6.12402e-06
6.12375e-06
6.12345e-06
6.12314e-06
6.12281e-06
6.12245e-06
6.12208e-06
6.12169e-06
6.12127e-06
6.12083e-06
6.12036e-06
6.11986e-06
6.11934e-06
6.1188e-06
6.11822e-06
6.11762e-06
6.11699e-06
6.11634e-06
6.11566e-06
6.11496e-06
6.11424e-06
6.11351e-06
6.11276e-06
6.112e-06
6.11123e-06
6.11047e-06
6.10971e-06
6.10895e-06
6.1082e-06
6.10744e-06
6.10668e-06
6.10589e-06
6.10505e-06
6.10413e-06
6.10309e-06
6.10188e-06
6.10044e-06
6.09873e-06
6.09671e-06
6.09436e-06
6.09168e-06
6.08873e-06
6.08559e-06
6.08241e-06
6.07934e-06
6.07659e-06
6.07439e-06
6.07305e-06
6.07289e-06
6.07413e-06
6.07671e-06
6.0803e-06
6.08476e-06
6.08992e-06
6.0956e-06
6.10152e-06
6.10745e-06
6.11314e-06
6.11821e-06
6.12213e-06
6.12453e-06
6.12582e-06
6.12748e-06
6.1316e-06
6.13959e-06
6.15157e-06
6.16455e-06
6.17169e-06
6.16647e-06
6.15435e-06
6.16279e-06
6.20834e-06
6.22592e-06
6.1664e-06
6.08389e-06
)
;

boundaryField
{
    inlet
    {
        type            freestream;
        freestreamValue uniform 1e-05;
        value           uniform 1e-05;
    }
    outlet
    {
        type            freestream;
        freestreamValue uniform 1e-05;
        value           nonuniform List<scalar> 
82
(
6.1254e-06
6.1252e-06
6.1256e-06
6.12499e-06
6.12477e-06
6.12454e-06
6.12429e-06
6.12402e-06
6.12375e-06
6.12345e-06
6.12314e-06
6.12281e-06
6.12245e-06
6.12208e-06
6.12169e-06
6.12127e-06
6.12083e-06
6.12036e-06
6.11986e-06
6.11934e-06
6.1188e-06
6.11822e-06
6.11762e-06
6.11699e-06
6.11634e-06
6.11566e-06
6.11496e-06
6.11424e-06
6.11351e-06
6.11276e-06
6.112e-06
6.11123e-06
6.11047e-06
6.10971e-06
6.10895e-06
6.1082e-06
6.10744e-06
6.10668e-06
6.10589e-06
6.10505e-06
6.10413e-06
6.10309e-06
6.10188e-06
6.10044e-06
6.09873e-06
6.09671e-06
6.09436e-06
6.09168e-06
6.08873e-06
6.08559e-06
6.08241e-06
6.07934e-06
6.07659e-06
6.07439e-06
6.07305e-06
6.07289e-06
6.07413e-06
6.07671e-06
6.0803e-06
6.08476e-06
6.08992e-06
6.0956e-06
6.10152e-06
6.10745e-06
6.11314e-06
6.11821e-06
6.12213e-06
6.12453e-06
6.12582e-06
6.12748e-06
6.1316e-06
6.13959e-06
6.15157e-06
6.16455e-06
6.17169e-06
6.16647e-06
6.15435e-06
6.16279e-06
6.20834e-06
6.22592e-06
6.1664e-06
6.08389e-06
)
;
    }
    walls
    {
        type            nutUSpaldingWallFunction;
        value           nonuniform List<scalar> 0();
    }
    frontAndBack
    {
        type            empty;
    }
    procBoundary3to2
    {
        type            processor;
        value           nonuniform List<scalar> 
88
(
6.14604e-06
6.12003e-06
6.12242e-06
6.12228e-06
6.12228e-06
6.12821e-06
6.13033e-06
6.13033e-06
6.10831e-06
6.11268e-06
6.12057e-06
6.12057e-06
6.09804e-06
6.10178e-06
6.10409e-06
6.10562e-06
6.10693e-06
6.10693e-06
6.07679e-06
6.08042e-06
6.08475e-06
6.08946e-06
6.09421e-06
6.09421e-06
6.07963e-06
6.07696e-06
6.07456e-06
6.07278e-06
6.07197e-06
6.07254e-06
6.07442e-06
6.07442e-06
6.09734e-06
6.09622e-06
6.09513e-06
6.09408e-06
6.09306e-06
6.09205e-06
6.091e-06
6.08982e-06
6.08841e-06
6.08668e-06
6.08455e-06
6.08207e-06
6.08207e-06
3.34926e-06
8.01906e-06
7.19552e-06
6.0368e-06
6.00628e-06
6.1181e-06
6.14492e-06
6.15159e-06
6.1439e-06
6.13755e-06
6.13439e-06
6.13125e-06
6.1281e-06
6.12544e-06
6.12306e-06
6.1209e-06
6.11899e-06
6.11731e-06
6.11584e-06
6.11456e-06
6.11346e-06
6.11252e-06
6.11172e-06
6.11104e-06
6.11045e-06
6.10995e-06
6.10948e-06
6.10904e-06
6.1086e-06
6.10815e-06
6.10768e-06
6.10717e-06
6.10661e-06
6.10599e-06
6.10531e-06
6.10456e-06
6.10373e-06
6.10282e-06
6.10185e-06
6.10081e-06
6.09973e-06
6.09861e-06
6.09861e-06
)
;
    }
    procBoundary3to6
    {
        type            processor;
        value           uniform 1.45089e-08;
    }
    procBoundary3to7
    {
        type            processor;
        value           nonuniform List<scalar> 
16
(
7.29565e-09
6.44194e-06
8.087e-06
6.25786e-06
6.02127e-06
6.13368e-06
6.13762e-06
6.12711e-06
6.12711e-06
6.12532e-06
6.12395e-06
6.12386e-06
6.1242e-06
6.1248e-06
6.12528e-06
6.12582e-06
)
;
    }
}


// ************************************************************************* //
