/*--------------------------------*- C++ -*----------------------------------*\
| =========                 |                                                 |
| \\      /  F ield         | OpenFOAM: The Open Source CFD Toolbox           |
|  \\    /   O peration     | Version:  2506                                  |
|   \\  /    A nd           | Website:  www.openfoam.com                      |
|    \\/     M anipulation  |                                                 |
\*---------------------------------------------------------------------------*/
FoamFile
{
    version     2.0;
    format      ascii;
    arch        "LSB;label=32;scalar=64";
    class       volScalarField;
    location    "400";
    object      turbulenceProperties:I;
}
// * * * * * * * * * * * * * * * * * * * * * * * * * * * * * * * * * * * * * //

dimensions      [0 0 0 0 0 0 0];

internalField   nonuniform List<scalar> 
1340
(
2.6594e-05
3.7282e-05
1.25945e-05
2.5514e-05
2.65513e-05
3.729e-05
1.32106e-05
1.67605e-05
1.24668e-05
2.55547e-05
2.65532e-05
3.72793e-05
1.79629e-05
1.68513e-05
1.63214e-05
1.35266e-05
1.695e-05
1.23899e-05
2.55986e-05
2.65858e-05
3.72588e-05
2.14904e-05
2.06842e-05
2.00013e-05
1.93443e-05
1.86357e-05
1.79429e-05
1.68873e-05
1.64112e-05
1.38572e-05
1.71299e-05
1.23577e-05
2.56438e-05
2.66383e-05
3.72341e-05
2.54823e-05
2.46651e-05
2.38228e-05
2.29734e-05
2.21103e-05
2.12679e-05
2.05103e-05
1.98706e-05
1.92519e-05
1.85825e-05
1.79268e-05
1.69326e-05
1.65114e-05
1.41966e-05
1.72962e-05
1.23664e-05
2.56858e-05
2.6702e-05
3.72062e-05
2.97545e-05
2.9104e-05
2.84415e-05
2.77707e-05
2.70927e-05
2.64046e-05
2.56986e-05
2.49672e-05
2.42078e-05
2.34246e-05
2.2635e-05
2.18293e-05
2.10411e-05
2.03344e-05
1.97388e-05
1.91594e-05
1.85309e-05
1.79132e-05
1.69857e-05
1.662e-05
1.45405e-05
1.74465e-05
1.24124e-05
2.57236e-05
2.67701e-05
3.71717e-05
3.45196e-05
3.41238e-05
3.37118e-05
3.32841e-05
3.28419e-05
3.23853e-05
3.19152e-05
3.14319e-05
3.09354e-05
3.04238e-05
2.98958e-05
2.93495e-05
2.8785e-05
2.82034e-05
2.76081e-05
2.70024e-05
2.63869e-05
2.5759e-05
2.51119e-05
2.44394e-05
2.37398e-05
2.30178e-05
2.22896e-05
2.15431e-05
2.08115e-05
2.01574e-05
1.96063e-05
1.90667e-05
1.84806e-05
1.79018e-05
1.70461e-05
1.67358e-05
1.4886e-05
1.75782e-05
1.24926e-05
2.57553e-05
2.68326e-05
3.7135e-05
3.42759e-05
3.44776e-05
3.25806e-05
3.30641e-05
3.30563e-05
3.3795e-05
3.41883e-05
3.4572e-05
3.49024e-05
3.52115e-05
3.54938e-05
3.57484e-05
3.59694e-05
3.61587e-05
3.63231e-05
3.64542e-05
3.65567e-05
3.66317e-05
3.66807e-05
3.67053e-05
3.67062e-05
3.66849e-05
3.66441e-05
3.6585e-05
3.65087e-05
3.64164e-05
3.631e-05
3.61909e-05
3.60585e-05
3.59151e-05
3.57601e-05
3.55943e-05
3.54181e-05
3.5231e-05
3.50337e-05
3.48256e-05
3.46059e-05
3.43756e-05
3.41323e-05
3.38764e-05
3.3608e-05
3.33251e-05
3.30277e-05
3.27148e-05
3.23872e-05
3.20436e-05
3.16845e-05
3.13112e-05
3.09232e-05
3.05218e-05
3.01076e-05
2.96798e-05
2.92371e-05
2.87782e-05
2.8301e-05
2.78052e-05
2.72916e-05
2.67628e-05
2.62217e-05
2.56686e-05
2.51014e-05
2.45141e-05
2.39019e-05
2.32638e-05
2.26046e-05
2.19391e-05
2.12531e-05
2.058e-05
1.99797e-05
1.94731e-05
1.89737e-05
1.8431e-05
1.78922e-05
1.71133e-05
1.68581e-05
1.52307e-05
1.769e-05
1.26029e-05
2.57764e-05
2.68857e-05
3.70985e-05
3.45091e-05
3.07323e-05
2.94232e-05
3.07605e-05
3.10408e-05
3.15377e-05
3.18387e-05
3.21675e-05
3.24581e-05
3.27314e-05
3.29789e-05
3.32004e-05
3.33951e-05
3.35634e-05
3.37085e-05
3.38253e-05
3.39183e-05
3.39895e-05
3.40375e-05
3.40647e-05
3.40728e-05
3.40625e-05
3.40356e-05
3.3994e-05
3.39379e-05
3.38691e-05
3.37896e-05
3.36985e-05
3.35976e-05
3.34877e-05
3.33685e-05
3.3241e-05
3.31047e-05
3.29604e-05
3.28075e-05
3.26454e-05
3.24745e-05
3.2294e-05
3.21029e-05
3.19008e-05
3.1687e-05
3.14611e-05
3.12213e-05
3.09673e-05
3.06997e-05
3.04165e-05
3.01192e-05
2.98078e-05
2.94828e-05
2.91451e-05
2.87953e-05
2.84325e-05
2.80556e-05
2.76631e-05
2.72525e-05
2.68234e-05
2.63759e-05
2.59122e-05
2.54345e-05
2.49432e-05
2.44365e-05
2.39094e-05
2.33583e-05
2.27827e-05
2.21874e-05
2.15855e-05
2.09607e-05
2.03475e-05
1.98017e-05
1.93392e-05
1.88803e-05
1.83818e-05
1.78843e-05
1.71865e-05
1.6986e-05
1.55717e-05
1.77812e-05
1.27347e-05
2.57926e-05
2.69222e-05
3.70688e-05
3.00469e-05
2.82028e-05
2.77073e-05
2.89681e-05
2.91069e-05
2.94768e-05
2.97387e-05
3.00167e-05
3.02669e-05
3.0499e-05
3.07057e-05
3.08952e-05
3.10606e-05
3.12039e-05
3.13263e-05
3.14274e-05
3.15075e-05
3.15707e-05
3.16144e-05
3.16396e-05
3.16507e-05
3.1647e-05
3.16298e-05
3.1599e-05
3.15586e-05
3.15082e-05
3.14479e-05
3.13794e-05
3.13034e-05
3.12201e-05
3.113e-05
3.10336e-05
3.09304e-05
3.08209e-05
3.07051e-05
3.05822e-05
3.04519e-05
3.03139e-05
3.01674e-05
3.00112e-05
2.98451e-05
2.96682e-05
2.94785e-05
2.92768e-05
2.90617e-05
2.88324e-05
2.85905e-05
2.83354e-05
2.8068e-05
2.77893e-05
2.74993e-05
2.71978e-05
2.68835e-05
2.65543e-05
2.62077e-05
2.58428e-05
2.54594e-05
2.50586e-05
2.46426e-05
2.42122e-05
2.37656e-05
2.3299e-05
2.28093e-05
2.22972e-05
2.17665e-05
2.12284e-05
2.06657e-05
2.01139e-05
1.96226e-05
1.92032e-05
1.87855e-05
1.83319e-05
1.78773e-05
1.72657e-05
1.71193e-05
1.59068e-05
1.78529e-05
1.28866e-05
2.57864e-05
2.69531e-05
3.70513e-05
2.77291e-05
2.66628e-05
2.62598e-05
2.72285e-05
2.73051e-05
2.76155e-05
2.78366e-05
2.80666e-05
2.82721e-05
2.84632e-05
2.86342e-05
2.87898e-05
2.89264e-05
2.90449e-05
2.91464e-05
2.92314e-05
2.92987e-05
2.93525e-05
2.93907e-05
2.94143e-05
2.94267e-05
2.94274e-05
2.94167e-05
2.93961e-05
2.93689e-05
2.9332e-05
2.92884e-05
2.92394e-05
2.91836e-05
2.91229e-05
2.90569e-05
2.89868e-05
2.8911e-05
2.88313e-05
2.87465e-05
2.86561e-05
2.85604e-05
2.84584e-05
2.8349e-05
2.82321e-05
2.81065e-05
2.79711e-05
2.78251e-05
2.7668e-05
2.74984e-05
2.73169e-05
2.71237e-05
2.69187e-05
2.67033e-05
2.64781e-05
2.62434e-05
2.59987e-05
2.57429e-05
2.54727e-05
2.51863e-05
2.48823e-05
2.45586e-05
2.42179e-05
2.38614e-05
2.34892e-05
2.31013e-05
2.26945e-05
2.22657e-05
2.18165e-05
2.13498e-05
2.08746e-05
2.03737e-05
1.98831e-05
1.94454e-05
1.90681e-05
1.86913e-05
1.82825e-05
1.78727e-05
1.73505e-05
1.72578e-05
1.62286e-05
1.79075e-05
1.3027e-05
2.57664e-05
2.69579e-05
3.70722e-05
2.60748e-05
2.50887e-05
2.46665e-05
2.54572e-05
2.5517e-05
2.57744e-05
2.59533e-05
2.61394e-05
2.63027e-05
2.64586e-05
2.65973e-05
2.67224e-05
2.68346e-05
2.69302e-05
2.70138e-05
2.70854e-05
2.71419e-05
2.71867e-05
2.72213e-05
2.72443e-05
2.72585e-05
2.72632e-05
2.72595e-05
2.72496e-05
2.72327e-05
2.72093e-05
2.71831e-05
2.71512e-05
2.7114e-05
2.70733e-05
2.70317e-05
2.69851e-05
2.69361e-05
2.68821e-05
2.68256e-05
2.67686e-05
2.67026e-05
2.66334e-05
2.65593e-05
2.64791e-05
2.63899e-05
2.6294e-05
2.61882e-05
2.60712e-05
2.59458e-05
2.58079e-05
2.56603e-05
2.55036e-05
2.53368e-05
2.51634e-05
2.49817e-05
2.47914e-05
2.45926e-05
2.43799e-05
2.41514e-05
2.3907e-05
2.36421e-05
2.33595e-05
2.30623e-05
2.27481e-05
2.2419e-05
2.20734e-05
2.17067e-05
2.13217e-05
2.09205e-05
2.051e-05
2.00723e-05
1.96447e-05
1.92616e-05
1.89271e-05
1.85921e-05
1.82301e-05
1.78698e-05
1.74421e-05
1.74059e-05
1.65476e-05
1.79445e-05
1.32912e-05
2.56713e-05
2.70146e-05
3.70953e-05
2.41026e-05
2.31888e-05
2.27765e-05
2.34348e-05
2.34607e-05
2.36662e-05
2.37952e-05
2.39239e-05
2.40592e-05
2.41671e-05
2.42687e-05
2.43721e-05
2.44526e-05
2.45219e-05
2.45918e-05
2.46518e-05
2.46893e-05
2.47327e-05
2.47633e-05
2.47859e-05
2.48054e-05
2.48118e-05
2.48202e-05
2.48237e-05
2.48179e-05
2.48125e-05
2.48048e-05
2.47933e-05
2.47799e-05
2.47609e-05
2.47472e-05
2.47303e-05
2.47093e-05
2.46835e-05
2.46641e-05
2.46405e-05
2.4609e-05
2.4576e-05
2.45413e-05
2.45011e-05
2.44515e-05
2.44003e-05
2.43349e-05
2.42638e-05
2.4187e-05
2.40947e-05
2.39984e-05
2.38955e-05
2.37814e-05
2.36665e-05
2.35442e-05
2.3414e-05
2.32802e-05
2.31314e-05
2.29673e-05
2.27889e-05
2.2591e-05
2.2373e-05
2.21424e-05
2.18958e-05
2.1635e-05
2.13602e-05
2.10661e-05
2.07563e-05
2.0431e-05
2.00944e-05
1.97297e-05
1.93752e-05
1.9053e-05
1.87659e-05
1.84792e-05
1.81719e-05
1.78707e-05
1.75562e-05
1.75704e-05
1.69143e-05
1.78998e-05
1.37946e-05
2.54103e-05
2.68747e-05
3.64434e-05
2.18181e-05
2.11105e-05
2.07756e-05
2.12649e-05
2.12675e-05
2.14155e-05
2.14894e-05
2.15759e-05
2.1671e-05
2.17354e-05
2.18078e-05
2.18814e-05
2.19321e-05
2.19793e-05
2.20367e-05
2.20793e-05
2.21048e-05
2.21468e-05
2.21684e-05
2.21955e-05
2.22202e-05
2.22266e-05
2.22474e-05
2.22661e-05
2.22702e-05
2.2283e-05
2.22908e-05
2.22998e-05
2.23115e-05
2.23164e-05
2.2325e-05
2.23375e-05
2.23427e-05
2.23478e-05
2.23624e-05
2.2367e-05
2.2371e-05
2.23741e-05
2.23759e-05
2.23715e-05
2.23635e-05
2.23503e-05
2.23266e-05
2.23032e-05
2.22678e-05
2.22252e-05
2.21814e-05
2.21312e-05
2.20752e-05
2.20199e-05
2.19618e-05
2.18966e-05
2.18299e-05
2.17498e-05
2.16555e-05
2.15465e-05
2.14192e-05
2.12733e-05
2.11158e-05
2.09446e-05
2.07613e-05
2.05659e-05
2.03546e-05
2.01292e-05
1.98877e-05
1.96333e-05
1.9351e-05
1.90768e-05
1.88204e-05
1.85855e-05
1.83532e-05
1.8109e-05
1.78806e-05
1.76932e-05
1.7762e-05
1.72953e-05
1.78265e-05
1.43231e-05
2.53811e-05
2.67449e-05
3.64004e-05
1.96991e-05
1.91235e-05
1.88234e-05
1.92053e-05
1.91976e-05
1.92843e-05
1.93358e-05
1.9407e-05
1.94435e-05
1.94979e-05
1.95551e-05
1.95936e-05
1.96297e-05
1.96689e-05
1.97137e-05
1.97367e-05
1.97698e-05
1.9802e-05
1.9819e-05
1.98529e-05
1.98802e-05
1.98925e-05
1.99211e-05
1.99469e-05
1.99616e-05
1.9993e-05
2.00131e-05
2.00356e-05
2.00665e-05
2.00919e-05
2.01173e-05
2.01524e-05
2.0179e-05
2.0209e-05
2.02468e-05
2.02754e-05
2.03062e-05
2.03384e-05
2.0367e-05
2.03908e-05
2.04152e-05
2.04313e-05
2.04451e-05
2.04567e-05
2.04569e-05
2.04584e-05
2.04588e-05
2.0455e-05
2.04516e-05
2.04489e-05
2.04485e-05
2.04429e-05
2.04339e-05
2.04171e-05
2.03846e-05
2.03385e-05
2.02764e-05
2.01975e-05
2.011e-05
2.00112e-05
1.99026e-05
1.97853e-05
1.96545e-05
1.95098e-05
1.93504e-05
1.91761e-05
1.89748e-05
1.8779e-05
1.85865e-05
1.84041e-05
1.82288e-05
1.80512e-05
1.79049e-05
1.78442e-05
1.79728e-05
1.76491e-05
1.779e-05
1.48293e-05
2.5479e-05
2.63753e-05
3.63769e-05
1.77729e-05
1.68072e-05
1.72425e-05
1.69211e-05
1.72886e-05
1.72441e-05
1.73026e-05
1.73513e-05
1.73961e-05
1.74183e-05
1.74583e-05
1.75025e-05
1.75331e-05
1.75586e-05
1.75957e-05
1.76345e-05
1.76509e-05
1.76899e-05
1.77196e-05
1.77437e-05
1.77822e-05
1.78084e-05
1.78397e-05
1.7872e-05
1.79059e-05
1.79393e-05
1.79795e-05
1.80163e-05
1.80526e-05
1.81004e-05
1.81436e-05
1.81855e-05
1.82407e-05
1.82854e-05
1.8337e-05
1.83951e-05
1.84428e-05
1.84974e-05
1.85523e-05
1.86019e-05
1.8652e-05
1.86999e-05
1.87436e-05
1.87868e-05
1.8825e-05
1.88615e-05
1.88982e-05
1.89355e-05
1.89742e-05
1.90152e-05
1.90582e-05
1.91054e-05
1.91494e-05
1.91888e-05
1.92232e-05
1.92414e-05
1.9248e-05
1.92414e-05
1.92202e-05
1.91935e-05
1.91592e-05
1.91172e-05
1.90693e-05
1.90098e-05
1.89372e-05
1.88511e-05
1.87492e-05
1.86219e-05
1.84971e-05
1.83628e-05
1.82307e-05
1.81125e-05
1.80029e-05
1.79446e-05
1.80052e-05
1.819e-05
1.79627e-05
1.77822e-05
1.54261e-05
2.56393e-05
2.58996e-05
3.63455e-05
1.59771e-05
1.50852e-05
1.5456e-05
1.51416e-05
1.54918e-05
1.54344e-05
1.54925e-05
1.55143e-05
1.5554e-05
1.55832e-05
1.56025e-05
1.56416e-05
1.56706e-05
1.57028e-05
1.57337e-05
1.57653e-05
1.57923e-05
1.58327e-05
1.58687e-05
1.58994e-05
1.59374e-05
1.59728e-05
1.60221e-05
1.6058e-05
1.61044e-05
1.61509e-05
1.61988e-05
1.62561e-05
1.63045e-05
1.63657e-05
1.64237e-05
1.64861e-05
1.65546e-05
1.66172e-05
1.66875e-05
1.67618e-05
1.68308e-05
1.69017e-05
1.69775e-05
1.70482e-05
1.71197e-05
1.71912e-05
1.72582e-05
1.73278e-05
1.73949e-05
1.74635e-05
1.75331e-05
1.76047e-05
1.76825e-05
1.77635e-05
1.78458e-05
1.79333e-05
1.80191e-05
1.80987e-05
1.81753e-05
1.82363e-05
1.8287e-05
1.83282e-05
1.83582e-05
1.83853e-05
1.84074e-05
1.84245e-05
1.84368e-05
1.844e-05
1.84309e-05
1.8409e-05
1.83718e-05
1.83111e-05
1.82496e-05
1.81683e-05
1.80845e-05
1.8022e-05
1.79807e-05
1.80127e-05
1.81852e-05
1.84158e-05
1.8247e-05
1.78253e-05
1.61959e-05
2.58621e-05
2.53361e-05
3.63248e-05
1.42668e-05
1.34625e-05
1.37635e-05
1.34726e-05
1.37959e-05
1.37515e-05
1.38012e-05
1.38249e-05
1.38698e-05
1.38845e-05
1.39158e-05
1.39603e-05
1.39859e-05
1.40257e-05
1.40628e-05
1.40934e-05
1.41379e-05
1.41811e-05
1.42264e-05
1.42636e-05
1.43128e-05
1.43666e-05
1.44154e-05
1.44687e-05
1.45298e-05
1.45818e-05
1.4649e-05
1.47188e-05
1.47775e-05
1.48537e-05
1.49246e-05
1.50034e-05
1.50837e-05
1.51588e-05
1.52449e-05
1.53347e-05
1.54149e-05
1.55025e-05
1.55943e-05
1.568e-05
1.57681e-05
1.5861e-05
1.59464e-05
1.60367e-05
1.61318e-05
1.62241e-05
1.6323e-05
1.64241e-05
1.65332e-05
1.66451e-05
1.67586e-05
1.68788e-05
1.6995e-05
1.71066e-05
1.72164e-05
1.73125e-05
1.74006e-05
1.74834e-05
1.75589e-05
1.76333e-05
1.77044e-05
1.77734e-05
1.7839e-05
1.78961e-05
1.79429e-05
1.79776e-05
1.79975e-05
1.79959e-05
1.79891e-05
1.79554e-05
1.79194e-05
1.79137e-05
1.79429e-05
1.80671e-05
1.83379e-05
1.85924e-05
1.84384e-05
1.78602e-05
1.704e-05
2.61384e-05
2.4631e-05
3.63498e-05
1.30576e-05
1.23606e-05
1.26358e-05
1.23608e-05
1.26629e-05
1.26191e-05
1.26461e-05
1.26857e-05
1.27153e-05
1.2726e-05
1.27618e-05
1.27987e-05
1.28238e-05
1.28542e-05
1.28954e-05
1.29248e-05
1.29711e-05
1.30139e-05
1.30502e-05
1.30933e-05
1.31476e-05
1.32021e-05
1.32456e-05
1.33004e-05
1.3372e-05
1.34223e-05
1.34906e-05
1.35632e-05
1.36291e-05
1.37053e-05
1.37836e-05
1.38656e-05
1.39508e-05
1.40342e-05
1.4128e-05
1.42234e-05
1.43131e-05
1.44141e-05
1.45154e-05
1.46173e-05
1.47181e-05
1.48297e-05
1.49356e-05
1.50474e-05
1.51659e-05
1.52804e-05
1.54071e-05
1.55324e-05
1.56649e-05
1.58008e-05
1.59384e-05
1.60804e-05
1.62186e-05
1.63564e-05
1.64903e-05
1.66158e-05
1.6737e-05
1.68545e-05
1.69682e-05
1.70822e-05
1.71933e-05
1.73043e-05
1.74128e-05
1.75128e-05
1.76064e-05
1.76885e-05
1.77565e-05
1.78064e-05
1.78489e-05
1.78606e-05
1.78677e-05
1.79093e-05
1.79966e-05
1.8197e-05
1.85383e-05
1.87973e-05
1.86592e-05
1.80964e-05
1.82164e-05
2.65703e-05
2.39547e-05
3.65624e-05
1.17795e-05
1.11234e-05
1.13712e-05
1.11013e-05
1.14461e-05
1.13978e-05
1.14491e-05
1.14934e-05
1.15088e-05
1.15345e-05
1.15893e-05
1.16325e-05
1.16683e-05
1.17007e-05
1.17491e-05
1.18005e-05
1.18522e-05
1.18968e-05
1.19383e-05
1.20088e-05
1.20631e-05
1.21217e-05
1.21796e-05
1.22384e-05
1.232e-05
1.23815e-05
1.24518e-05
1.2527e-05
1.26056e-05
1.26856e-05
1.27639e-05
1.28553e-05
1.29385e-05
1.30287e-05
1.31265e-05
1.32203e-05
1.33172e-05
1.34164e-05
1.35258e-05
1.36319e-05
1.37365e-05
1.3855e-05
1.39702e-05
1.40897e-05
1.42138e-05
1.43415e-05
1.44741e-05
1.46079e-05
1.47467e-05
1.4888e-05
1.50337e-05
1.51797e-05
1.53276e-05
1.54764e-05
1.56222e-05
1.57658e-05
1.59091e-05
1.60515e-05
1.61922e-05
1.63359e-05
1.6478e-05
1.66218e-05
1.6764e-05
1.68998e-05
1.70314e-05
1.71514e-05
1.72582e-05
1.73475e-05
1.74199e-05
1.74599e-05
1.75115e-05
1.76124e-05
1.77786e-05
1.80763e-05
1.84791e-05
1.8686e-05
1.84636e-05
1.7936e-05
1.89326e-05
2.6815e-05
2.27795e-05
3.69373e-05
1.20939e-05
1.16577e-05
1.18244e-05
1.16364e-05
1.17997e-05
1.17646e-05
1.18038e-05
1.18243e-05
1.18186e-05
1.18347e-05
1.18691e-05
1.18973e-05
1.1915e-05
1.19268e-05
1.19584e-05
1.19916e-05
1.20198e-05
1.20468e-05
1.20705e-05
1.21211e-05
1.21565e-05
1.21891e-05
1.22314e-05
1.22754e-05
1.23308e-05
1.23789e-05
1.24344e-05
1.24903e-05
1.25558e-05
1.26238e-05
1.26902e-05
1.27725e-05
1.2848e-05
1.29367e-05
1.30297e-05
1.31258e-05
1.32273e-05
1.33329e-05
1.34524e-05
1.35668e-05
1.36902e-05
1.38196e-05
1.39487e-05
1.40809e-05
1.42162e-05
1.43533e-05
1.44864e-05
1.46241e-05
1.47605e-05
1.48985e-05
1.50427e-05
1.51878e-05
1.53404e-05
1.54951e-05
1.56532e-05
1.58119e-05
1.59705e-05
1.6128e-05
1.62804e-05
1.64333e-05
1.65828e-05
1.67338e-05
1.68842e-05
1.7032e-05
1.71776e-05
1.73147e-05
1.74437e-05
1.75621e-05
1.76765e-05
1.77611e-05
1.78307e-05
1.79308e-05
1.80838e-05
1.83558e-05
1.87176e-05
1.88884e-05
1.87904e-05
1.87787e-05
2.08348e-05
2.75328e-05
2.31251e-05
3.86645e-05
1.05438e-05
1.06037e-05
1.05424e-05
1.06608e-05
1.07141e-05
1.07316e-05
1.07615e-05
1.07829e-05
1.08166e-05
1.08523e-05
1.0874e-05
1.0909e-05
1.09441e-05
1.0981e-05
1.10168e-05
1.10515e-05
1.10941e-05
1.11341e-05
1.11751e-05
1.12212e-05
1.12629e-05
1.13118e-05
1.13574e-05
1.14064e-05
1.14595e-05
1.15137e-05
1.15685e-05
1.16236e-05
1.16858e-05
1.17457e-05
1.181e-05
1.18774e-05
1.19441e-05
1.20182e-05
1.20912e-05
1.217e-05
1.22499e-05
1.23328e-05
1.24197e-05
1.25048e-05
1.25953e-05
1.26846e-05
1.27735e-05
1.28618e-05
1.29516e-05
1.30384e-05
1.3125e-05
1.32152e-05
1.33066e-05
1.34052e-05
1.35098e-05
1.36224e-05
1.3744e-05
1.38702e-05
1.40038e-05
1.41401e-05
1.42813e-05
1.44249e-05
1.45707e-05
1.47244e-05
1.48816e-05
1.50455e-05
1.52124e-05
1.53799e-05
1.55462e-05
1.5703e-05
1.58498e-05
1.59803e-05
1.60553e-05
1.60877e-05
1.61952e-05
1.64139e-05
1.67492e-05
1.72468e-05
1.77039e-05
1.76627e-05
1.71546e-05
1.73361e-05
2.05747e-05
2.53731e-05
2.19778e-05
3.8657e-05
)
;

boundaryField
{
    inlet
    {
        type            calculated;
        value           nonuniform List<scalar> 
23
(
7.59912e-05
7.57839e-05
7.55821e-05
7.53854e-05
7.51896e-05
7.49905e-05
7.47828e-05
7.45625e-05
7.43238e-05
7.40619e-05
7.37697e-05
7.34486e-05
7.30802e-05
7.25161e-05
7.20432e-05
7.14663e-05
7.07439e-05
6.98564e-05
6.87761e-05
6.74867e-05
6.59151e-05
6.46668e-05
6.22235e-05
)
;
    }
    outlet
    {
        type            calculated;
        value           nonuniform List<scalar> 
82
(
9.42059e-06
9.40992e-06
9.51201e-06
9.56471e-06
9.6297e-06
9.64473e-06
9.67625e-06
9.69637e-06
9.73241e-06
9.77094e-06
9.79064e-06
9.82745e-06
9.86465e-06
9.90338e-06
9.94088e-06
9.97636e-06
1.00219e-05
1.0064e-05
1.01068e-05
1.01564e-05
1.01997e-05
1.02517e-05
1.02996e-05
1.03511e-05
1.04076e-05
1.04649e-05
1.05225e-05
1.05797e-05
1.06454e-05
1.07073e-05
1.07738e-05
1.08435e-05
1.09107e-05
1.09866e-05
1.10594e-05
1.11384e-05
1.12175e-05
1.12988e-05
1.13839e-05
1.14653e-05
1.15528e-05
1.16379e-05
1.17219e-05
1.1805e-05
1.18902e-05
1.19721e-05
1.20543e-05
1.21421e-05
1.22316e-05
1.23303e-05
1.24355e-05
1.25491e-05
1.26718e-05
1.27975e-05
1.293e-05
1.30647e-05
1.32055e-05
1.33515e-05
1.35033e-05
1.36688e-05
1.38418e-05
1.40247e-05
1.42116e-05
1.43983e-05
1.45824e-05
1.47537e-05
1.49096e-05
1.50386e-05
1.50916e-05
1.51006e-05
1.52193e-05
1.54878e-05
1.5916e-05
1.6541e-05
1.70918e-05
1.70051e-05
1.62124e-05
1.60559e-05
1.94873e-05
2.48919e-05
1.98202e-05
3.68147e-05
)
;
    }
    walls
    {
        type            calculated;
        value           nonuniform List<scalar> 0();
    }
    frontAndBack
    {
        type            empty;
    }
    procBoundary3to2
    {
        type            processor;
        value           nonuniform List<scalar> 
88
(
2.6691e-05
3.7266e-05
1.27713e-05
2.54673e-05
2.54673e-05
1.29139e-05
1.65637e-05
1.65637e-05
1.79892e-05
1.68266e-05
1.62449e-05
1.62449e-05
2.17092e-05
2.08568e-05
2.0132e-05
1.94376e-05
1.86916e-05
1.86916e-05
2.59817e-05
2.5109e-05
2.421e-05
2.33033e-05
2.23847e-05
2.23847e-05
3.0706e-05
2.99868e-05
2.92572e-05
2.85217e-05
2.77818e-05
2.70344e-05
2.62708e-05
2.62708e-05
3.63696e-05
3.58964e-05
3.54076e-05
3.49041e-05
3.43862e-05
3.38553e-05
3.33118e-05
3.27557e-05
3.21873e-05
3.16043e-05
3.10055e-05
3.03889e-05
3.03889e-05
2.9747e-05
3.65542e-05
3.74361e-05
3.56899e-05
3.62566e-05
3.68222e-05
3.72892e-05
3.76761e-05
3.80168e-05
3.832e-05
3.86015e-05
3.88443e-05
3.90503e-05
3.92252e-05
3.93633e-05
3.94707e-05
3.95448e-05
3.95871e-05
3.9602e-05
3.9589e-05
3.95508e-05
3.94889e-05
3.94042e-05
3.92999e-05
3.91778e-05
3.90369e-05
3.88804e-05
3.87094e-05
3.8524e-05
3.8325e-05
3.81121e-05
3.78876e-05
3.76495e-05
3.73982e-05
3.71353e-05
3.6858e-05
3.6568e-05
3.62641e-05
3.59451e-05
3.56122e-05
3.52639e-05
3.48997e-05
3.48997e-05
)
;
    }
    procBoundary3to6
    {
        type            processor;
        value           uniform 7.95574e-06;
    }
    procBoundary3to7
    {
        type            processor;
        value           nonuniform List<scalar> 
16
(
5.17221e-06
2.865e-05
2.8844e-05
2.5359e-05
2.36953e-05
2.22199e-05
2.04183e-05
1.85955e-05
1.85955e-05
1.67241e-05
1.50272e-05
1.34033e-05
1.22983e-05
1.11091e-05
1.15464e-05
1.06842e-05
)
;
    }
}


// ************************************************************************* //
