/*--------------------------------*- C++ -*----------------------------------*\
| =========                 |                                                 |
| \\      /  F ield         | OpenFOAM: The Open Source CFD Toolbox           |
|  \\    /   O peration     | Version:  2506                                  |
|   \\  /    A nd           | Website:  www.openfoam.com                      |
|    \\/     M anipulation  |                                                 |
\*---------------------------------------------------------------------------*/
FoamFile
{
    version     2.0;
    format      ascii;
    arch        "LSB;label=32;scalar=64";
    class       volScalarField;
    location    "400";
    object      turbulenceProperties:epsilon;
}
// * * * * * * * * * * * * * * * * * * * * * * * * * * * * * * * * * * * * * //

dimensions      [0 2 -3 0 0 0 0];

internalField   nonuniform List<scalar> 
1340
(
3.77901e-10
1.46188e-09
1.88298e-11
3.16277e-10
3.75596e-10
1.46624e-09
2.28787e-11
5.9161e-11
1.80856e-11
3.18668e-10
3.75884e-10
1.46768e-09
7.82567e-11
6.06473e-11
5.33817e-11
2.51692e-11
6.19319e-11
1.76536e-11
3.21257e-10
3.77974e-10
1.46759e-09
1.59969e-10
1.37406e-10
1.20223e-10
1.05261e-10
9.07239e-11
7.80159e-11
6.12448e-11
5.46272e-11
2.77472e-11
6.4659e-11
1.74822e-11
3.23954e-10
3.81278e-10
1.46683e-09
3.15052e-10
2.76908e-10
2.41279e-10
2.08915e-10
1.7944e-10
1.53767e-10
1.33102e-10
1.17325e-10
1.03441e-10
8.98362e-11
7.78509e-11
6.19871e-11
5.60403e-11
3.05971e-11
6.72701e-11
1.75447e-11
3.26528e-10
3.85315e-10
1.46561e-09
5.83525e-10
5.34579e-10
4.87963e-10
4.43944e-10
4.02549e-10
3.63563e-10
3.26568e-10
2.91273e-10
2.57705e-10
2.26178e-10
1.9738e-10
1.70896e-10
1.47639e-10
1.2886e-10
1.14464e-10
1.01649e-10
8.8993e-11
7.77368e-11
6.28584e-11
5.76029e-11
3.37084e-11
6.97088e-11
1.78228e-11
3.28928e-10
3.89703e-10
1.46338e-09
1.06034e-09
1.01228e-09
9.64074e-10
9.15944e-10
8.68164e-10
8.20887e-10
7.74316e-10
7.28593e-10
6.83804e-10
6.39901e-10
5.96868e-10
5.54693e-10
5.13515e-10
4.73542e-10
4.35098e-10
3.98439e-10
3.63619e-10
3.30503e-10
2.98786e-10
2.68289e-10
2.39079e-10
2.11475e-10
1.86103e-10
1.6251e-10
1.41624e-10
1.24698e-10
1.11647e-10
9.98859e-11
8.81872e-11
7.76687e-11
6.38547e-11
5.93065e-11
3.70719e-11
7.19146e-11
1.83064e-11
3.31062e-10
3.93872e-10
1.46085e-09
1.05213e-09
1.06986e-09
8.55873e-10
9.10716e-10
9.10024e-10
9.93718e-10
1.04066e-09
1.08811e-09
1.13021e-09
1.17067e-09
1.20851e-09
1.24337e-09
1.27418e-09
1.30094e-09
1.32445e-09
1.34333e-09
1.35812e-09
1.36889e-09
1.37577e-09
1.37899e-09
1.37861e-09
1.37487e-09
1.3682e-09
1.35881e-09
1.34691e-09
1.33272e-09
1.31659e-09
1.29876e-09
1.27922e-09
1.25835e-09
1.23613e-09
1.21273e-09
1.18828e-09
1.16276e-09
1.13634e-09
1.10901e-09
1.08075e-09
1.05173e-09
1.02179e-09
9.91027e-10
9.5956e-10
9.27268e-10
8.9426e-10
8.60546e-10
8.26324e-10
7.91595e-10
7.5654e-10
7.21387e-10
6.86227e-10
6.51263e-10
6.1665e-10
5.82413e-10
5.48542e-10
5.1504e-10
4.8187e-10
4.49151e-10
4.17053e-10
3.85847e-10
3.55763e-10
3.26882e-10
2.99128e-10
2.72289e-10
2.46267e-10
2.21159e-10
1.9727e-10
1.7515e-10
1.54328e-10
1.35748e-10
1.20627e-10
1.08874e-10
9.81484e-11
8.74093e-11
7.76389e-11
6.49723e-11
6.11474e-11
4.06783e-11
7.38475e-11
1.89827e-11
3.32694e-10
3.97591e-10
1.45842e-09
1.07629e-09
6.81847e-10
5.73736e-10
6.85479e-10
7.10546e-10
7.57057e-10
7.86353e-10
8.1929e-10
8.49238e-10
8.78111e-10
9.04866e-10
9.2928e-10
9.51113e-10
9.70255e-10
9.86934e-10
1.00046e-09
1.01124e-09
1.01949e-09
1.02496e-09
1.02792e-09
1.02856e-09
1.02696e-09
1.02334e-09
1.01796e-09
1.01085e-09
1.00227e-09
9.92461e-10
9.81372e-10
9.69235e-10
9.56176e-10
9.42193e-10
9.27438e-10
9.11887e-10
8.9565e-10
8.78721e-10
8.6107e-10
8.42771e-10
8.23799e-10
8.04096e-10
7.83678e-10
7.62543e-10
7.40709e-10
7.18092e-10
6.94743e-10
6.708e-10
6.46188e-10
6.2112e-10
5.95698e-10
5.70037e-10
5.44309e-10
5.18617e-10
4.92978e-10
4.67388e-10
4.41838e-10
4.16265e-10
3.90754e-10
3.65425e-10
3.40508e-10
3.16203e-10
2.92595e-10
2.69664e-10
2.47272e-10
2.25371e-10
2.0407e-10
1.8365e-10
1.64588e-10
1.46394e-10
1.30038e-10
1.16656e-10
1.06143e-10
9.64309e-11
8.66497e-11
7.76444e-11
6.62053e-11
6.31216e-11
4.4506e-11
7.5477e-11
1.98138e-11
3.34115e-10
4.00416e-10
1.45714e-09
6.26045e-10
4.86331e-10
4.53001e-10
5.41125e-10
5.51508e-10
5.80078e-10
6.00942e-10
6.23691e-10
6.44691e-10
6.64625e-10
6.82752e-10
6.99668e-10
7.14665e-10
7.27818e-10
7.39166e-10
7.48598e-10
7.56094e-10
7.61994e-10
7.66024e-10
7.6826e-10
7.69119e-10
7.68519e-10
7.66607e-10
7.63369e-10
7.59205e-10
7.5409e-10
7.48056e-10
7.41274e-10
7.33823e-10
7.25749e-10
7.17105e-10
7.07968e-10
6.9829e-10
6.88156e-10
6.77574e-10
6.66491e-10
6.54919e-10
6.42837e-10
6.30223e-10
6.17e-10
6.03194e-10
5.88772e-10
5.73625e-10
5.57873e-10
5.41463e-10
5.244e-10
5.0687e-10
4.88886e-10
4.7059e-10
4.52099e-10
4.33475e-10
4.14747e-10
3.95902e-10
3.76881e-10
3.5761e-10
3.38149e-10
3.18568e-10
2.99034e-10
2.79736e-10
2.60771e-10
2.42138e-10
2.23757e-10
2.0561e-10
1.87824e-10
1.70624e-10
1.54405e-10
1.387e-10
1.24485e-10
1.12763e-10
1.03427e-10
9.47169e-11
8.58915e-11
7.76755e-11
6.75555e-11
6.52334e-11
4.85316e-11
7.68036e-11
2.08047e-11
3.34422e-10
4.02984e-10
1.45795e-09
4.56131e-10
3.89795e-10
3.667e-10
4.23848e-10
4.28639e-10
4.4845e-10
4.62958e-10
4.78412e-10
4.92544e-10
5.05944e-10
5.18157e-10
5.29449e-10
5.39496e-10
5.48304e-10
5.55916e-10
5.62329e-10
5.67414e-10
5.71473e-10
5.74324e-10
5.76036e-10
5.76864e-10
5.76763e-10
5.75767e-10
5.73986e-10
5.71695e-10
5.68641e-10
5.65083e-10
5.61123e-10
5.56657e-10
5.51845e-10
5.46657e-10
5.41202e-10
5.35356e-10
5.29268e-10
5.22863e-10
5.16114e-10
5.09045e-10
5.01608e-10
4.93743e-10
4.85453e-10
4.76679e-10
4.67375e-10
4.57515e-10
4.47103e-10
4.36084e-10
4.24541e-10
4.12527e-10
4.00084e-10
3.87343e-10
3.74364e-10
3.61211e-10
3.47882e-10
3.34368e-10
3.20537e-10
3.06361e-10
2.91842e-10
2.76962e-10
2.61931e-10
2.46874e-10
2.31866e-10
2.16973e-10
2.02134e-10
1.87326e-10
1.72696e-10
1.58411e-10
1.44785e-10
1.31387e-10
1.19177e-10
1.09016e-10
1.00785e-10
9.30416e-11
8.51541e-11
7.77553e-11
6.90245e-11
6.74864e-11
5.26608e-11
7.78602e-11
2.17596e-11
3.3407e-10
4.04045e-10
1.46499e-09
3.57642e-10
3.06498e-10
2.86372e-10
3.24895e-10
3.27948e-10
3.41367e-10
3.50924e-10
3.61074e-10
3.70153e-10
3.78972e-10
3.86943e-10
3.94229e-10
4.00845e-10
4.06531e-10
4.11543e-10
4.15861e-10
4.1927e-10
4.21972e-10
4.24039e-10
4.2539e-10
4.26185e-10
4.26379e-10
4.26046e-10
4.2532e-10
4.24159e-10
4.22589e-10
4.20843e-10
4.1875e-10
4.16336e-10
4.13717e-10
4.11048e-10
4.08086e-10
4.04995e-10
4.01619e-10
3.9812e-10
3.94605e-10
3.90589e-10
3.86414e-10
3.81993e-10
3.77262e-10
3.72066e-10
3.66551e-10
3.60557e-10
3.54033e-10
3.47153e-10
3.39721e-10
3.31916e-10
3.23791e-10
3.15325e-10
3.06717e-10
2.97897e-10
2.8888e-10
2.79694e-10
2.70115e-10
2.60112e-10
2.49727e-10
2.38835e-10
2.27615e-10
2.16257e-10
2.04721e-10
1.93148e-10
1.81532e-10
1.69783e-10
1.58064e-10
1.46501e-10
1.35332e-10
1.24131e-10
1.13868e-10
1.05219e-10
9.80777e-11
9.12978e-11
8.43718e-11
7.78713e-11
7.06347e-11
6.99594e-11
5.70175e-11
7.8628e-11
2.36172e-11
3.2991e-10
4.08258e-10
1.47288e-09
2.6202e-10
2.24484e-10
2.08933e-10
2.3415e-10
2.35176e-10
2.43513e-10
2.48854e-10
2.54267e-10
2.60046e-10
2.64725e-10
2.69183e-10
2.73774e-10
2.77381e-10
2.80505e-10
2.83684e-10
2.86427e-10
2.88132e-10
2.90121e-10
2.91513e-10
2.92532e-10
2.93402e-10
2.9365e-10
2.93994e-10
2.941e-10
2.93761e-10
2.93442e-10
2.93013e-10
2.92402e-10
2.91696e-10
2.90731e-10
2.90014e-10
2.89143e-10
2.88084e-10
2.86801e-10
2.85816e-10
2.84641e-10
2.831e-10
2.81496e-10
2.79821e-10
2.77907e-10
2.75575e-10
2.73186e-10
2.70179e-10
2.66953e-10
2.63506e-10
2.5943e-10
2.55232e-10
2.50817e-10
2.46001e-10
2.41226e-10
2.3623e-10
2.31004e-10
2.25736e-10
2.19985e-10
2.13778e-10
2.07185e-10
2.00059e-10
1.92428e-10
1.84603e-10
1.76506e-10
1.68239e-10
1.59849e-10
1.51219e-10
1.42505e-10
1.3376e-10
1.25136e-10
1.16264e-10
1.08095e-10
1.01046e-10
9.50609e-11
8.93548e-11
8.35278e-11
7.80879e-11
7.26751e-11
7.28014e-11
6.23638e-11
7.79933e-11
2.74586e-11
3.17524e-10
4.00826e-10
1.37588e-09
1.76594e-10
1.5477e-10
1.45176e-10
1.59337e-10
1.5941e-10
1.63887e-10
1.66152e-10
1.68835e-10
1.71822e-10
1.73865e-10
1.7618e-10
1.78559e-10
1.80204e-10
1.81746e-10
1.83633e-10
1.85041e-10
1.85877e-10
1.87275e-10
1.87983e-10
1.88882e-10
1.89697e-10
1.89891e-10
1.90575e-10
1.91187e-10
1.91299e-10
1.9171e-10
1.91944e-10
1.9222e-10
1.92589e-10
1.92719e-10
1.9298e-10
1.93374e-10
1.93512e-10
1.93645e-10
1.94107e-10
1.94224e-10
1.94313e-10
1.94373e-10
1.94388e-10
1.94184e-10
1.93854e-10
1.93345e-10
1.92473e-10
1.91616e-10
1.90352e-10
1.88849e-10
1.87316e-10
1.85584e-10
1.83668e-10
1.81796e-10
1.79847e-10
1.77688e-10
1.75499e-10
1.72903e-10
1.69891e-10
1.66462e-10
1.62532e-10
1.58119e-10
1.53459e-10
1.4852e-10
1.43367e-10
1.38022e-10
1.3241e-10
1.26609e-10
1.20604e-10
1.14508e-10
1.08014e-10
1.01969e-10
9.65482e-11
9.1777e-11
8.72351e-11
8.26424e-11
7.85001e-11
7.51821e-11
7.6223e-11
6.83335e-11
7.68928e-11
3.1993e-11
3.16963e-10
3.94407e-10
1.37234e-09
1.17727e-10
1.04556e-10
9.81428e-11
1.06352e-10
1.06178e-10
1.08106e-10
1.09261e-10
1.10874e-10
1.11706e-10
1.12956e-10
1.14283e-10
1.15178e-10
1.16023e-10
1.16945e-10
1.18006e-10
1.18551e-10
1.19339e-10
1.20108e-10
1.2051e-10
1.21328e-10
1.21985e-10
1.22276e-10
1.22968e-10
1.23593e-10
1.23942e-10
1.24711e-10
1.25196e-10
1.25744e-10
1.26505e-10
1.2713e-10
1.27756e-10
1.28631e-10
1.29291e-10
1.30039e-10
1.30994e-10
1.31712e-10
1.3249e-10
1.33306e-10
1.34032e-10
1.34633e-10
1.3525e-10
1.35647e-10
1.35984e-10
1.36264e-10
1.3624e-10
1.36252e-10
1.36233e-10
1.36105e-10
1.35987e-10
1.3589e-10
1.35853e-10
1.35679e-10
1.35412e-10
1.34941e-10
1.34054e-10
1.32815e-10
1.3117e-10
1.29109e-10
1.26857e-10
1.24352e-10
1.21646e-10
1.18771e-10
1.15625e-10
1.12215e-10
1.08543e-10
1.04631e-10
1.00247e-10
9.61108e-11
9.2172e-11
8.85596e-11
8.51856e-11
8.18613e-11
7.91757e-11
7.80093e-11
8.01183e-11
7.42796e-11
7.64471e-11
3.68614e-11
3.22857e-10
3.74385e-10
1.37155e-09
7.82297e-11
6.25653e-11
6.92993e-11
6.42746e-11
7.00414e-11
6.93205e-11
7.02643e-11
7.10575e-11
7.17918e-11
7.21581e-11
7.28198e-11
7.35586e-11
7.40718e-11
7.45004e-11
7.51287e-11
7.57905e-11
7.60686e-11
7.67405e-11
7.72519e-11
7.76687e-11
7.83414e-11
7.87986e-11
7.93504e-11
7.992e-11
8.05228e-11
8.11188e-11
8.1842e-11
8.25082e-11
8.31678e-11
8.40443e-11
8.48411e-11
8.56203e-11
8.66546e-11
8.7499e-11
8.84799e-11
8.95962e-11
9.05173e-11
9.15827e-11
9.26616e-11
9.36426e-11
9.4643e-11
9.56037e-11
9.6485e-11
9.73624e-11
9.8139e-11
9.88874e-11
9.96429e-11
1.00417e-10
1.01224e-10
1.02086e-10
1.02996e-10
1.04003e-10
1.04947e-10
1.05795e-10
1.06534e-10
1.06913e-10
1.07034e-10
1.06861e-10
1.06363e-10
1.05747e-10
1.04964e-10
1.04015e-10
1.02941e-10
1.01622e-10
1.00032e-10
9.81724e-11
9.60068e-11
9.33596e-11
9.08116e-11
8.81402e-11
8.55779e-11
8.33251e-11
8.12667e-11
8.01416e-11
8.1111e-11
8.42989e-11
7.99113e-11
7.6514e-11
4.32942e-11
3.32169e-10
3.49432e-10
1.36993e-09
5.12233e-11
4.0708e-11
4.48596e-11
4.13187e-11
4.52753e-11
4.46078e-11
4.52826e-11
4.55374e-11
4.60046e-11
4.63508e-11
4.65795e-11
4.70471e-11
4.73963e-11
4.77868e-11
4.8163e-11
4.855e-11
4.88824e-11
4.93821e-11
4.98314e-11
5.02168e-11
5.06975e-11
5.11476e-11
5.17809e-11
5.22437e-11
5.28479e-11
5.34587e-11
5.40936e-11
5.48616e-11
5.55152e-11
5.63501e-11
5.71505e-11
5.80202e-11
5.89868e-11
5.98798e-11
6.08964e-11
6.19823e-11
6.3005e-11
6.40688e-11
6.52197e-11
6.63059e-11
6.742e-11
6.85466e-11
6.96143e-11
7.07352e-11
7.18299e-11
7.29625e-11
7.41242e-11
7.53347e-11
7.66664e-11
7.80726e-11
7.95205e-11
8.10824e-11
8.26324e-11
8.40897e-11
8.55059e-11
8.66417e-11
8.75887e-11
8.83598e-11
8.8918e-11
8.94182e-11
8.98237e-11
9.01276e-11
9.03338e-11
9.03561e-11
9.01289e-11
8.96465e-11
8.88619e-11
8.76236e-11
8.63776e-11
8.47825e-11
8.31739e-11
8.19691e-11
8.11533e-11
8.16408e-11
8.46712e-11
8.88245e-11
8.53298e-11
7.74801e-11
5.27805e-11
3.45161e-10
3.21332e-10
1.37031e-09
3.26502e-11
2.58869e-11
2.82806e-11
2.59644e-11
2.85478e-11
2.81824e-11
2.85915e-11
2.87884e-11
2.91642e-11
2.92878e-11
2.95529e-11
2.99326e-11
3.01524e-11
3.0497e-11
3.0821e-11
3.10905e-11
3.14847e-11
3.18707e-11
3.22793e-11
3.26185e-11
3.30706e-11
3.35703e-11
3.40283e-11
3.45343e-11
3.5121e-11
3.56261e-11
3.62863e-11
3.69826e-11
3.7575e-11
3.83561e-11
3.90931e-11
3.99241e-11
4.07844e-11
4.16014e-11
4.25536e-11
4.35641e-11
4.448e-11
4.54983e-11
4.65841e-11
4.76145e-11
4.86911e-11
4.98463e-11
5.09257e-11
5.20858e-11
5.33299e-11
5.45586e-11
5.5898e-11
5.7292e-11
5.88258e-11
6.04311e-11
6.20922e-11
6.38868e-11
6.56574e-11
6.7391e-11
6.91267e-11
7.06709e-11
7.21062e-11
7.3471e-11
7.47302e-11
7.59849e-11
7.71949e-11
7.83788e-11
7.95102e-11
8.0492e-11
8.1291e-11
8.18673e-11
8.21683e-11
8.20706e-11
8.18704e-11
8.11912e-11
8.04851e-11
8.03189e-11
8.07689e-11
8.29245e-11
8.78458e-11
9.25698e-11
8.92378e-11
7.83415e-11
6.49196e-11
3.61695e-10
2.88357e-10
1.37818e-09
2.29622e-11
1.84384e-11
2.01364e-11
1.84398e-11
2.031e-11
2.00303e-11
2.02024e-11
2.04567e-11
2.06489e-11
2.07184e-11
2.09529e-11
2.11965e-11
2.13633e-11
2.15673e-11
2.18452e-11
2.20452e-11
2.23632e-11
2.26599e-11
2.29144e-11
2.3219e-11
2.36065e-11
2.40004e-11
2.43192e-11
2.47245e-11
2.52611e-11
2.56439e-11
2.61701e-11
2.67388e-11
2.7262e-11
2.78775e-11
2.85207e-11
2.92057e-11
2.99307e-11
3.06529e-11
3.14807e-11
3.23399e-11
3.31639e-11
3.41096e-11
3.50788e-11
3.60746e-11
3.708e-11
3.82178e-11
3.93211e-11
4.05115e-11
4.18033e-11
4.30793e-11
4.4526e-11
4.59932e-11
4.75819e-11
4.92539e-11
5.09917e-11
5.28303e-11
5.46662e-11
5.65437e-11
5.84103e-11
6.02e-11
6.19656e-11
6.37128e-11
6.54345e-11
6.71948e-11
6.89413e-11
7.07139e-11
7.24732e-11
7.41154e-11
7.56674e-11
7.70362e-11
7.81656e-11
7.89789e-11
7.96597e-11
7.98006e-11
7.98685e-11
8.05485e-11
8.20479e-11
8.56466e-11
9.20646e-11
9.70365e-11
9.38955e-11
8.28583e-11
8.51427e-11
3.88022e-10
2.59273e-10
1.41555e-09
1.52498e-11
1.21254e-11
1.32429e-11
1.20296e-11
1.35955e-11
1.33677e-11
1.36102e-11
1.38221e-11
1.38966e-11
1.40216e-11
1.42903e-11
1.4505e-11
1.46845e-11
1.48486e-11
1.50959e-11
1.53624e-11
1.56337e-11
1.58706e-11
1.60938e-11
1.6478e-11
1.67785e-11
1.71072e-11
1.7437e-11
1.7777e-11
1.82563e-11
1.86241e-11
1.90514e-11
1.95169e-11
2.00115e-11
2.05255e-11
2.10378e-11
2.16479e-11
2.22141e-11
2.28413e-11
2.35354e-11
2.42166e-11
2.49354e-11
2.56879e-11
2.65372e-11
2.73806e-11
2.82321e-11
2.92204e-11
3.02056e-11
3.12542e-11
3.23717e-11
3.35518e-11
3.48125e-11
3.61187e-11
3.75133e-11
3.89727e-11
4.05224e-11
4.21187e-11
4.37833e-11
4.55067e-11
4.72419e-11
4.89979e-11
5.07981e-11
5.2633e-11
5.44936e-11
5.64419e-11
5.84148e-11
6.04615e-11
6.25303e-11
6.45486e-11
6.65425e-11
6.83904e-11
7.00535e-11
7.14521e-11
7.25813e-11
7.31874e-11
7.40004e-11
7.56564e-11
7.84672e-11
8.37307e-11
9.12435e-11
9.51108e-11
9.03605e-11
8.03003e-11
9.98494e-11
4.04831e-10
2.13327e-10
1.4822e-09
1.69732e-11
1.46534e-11
1.55102e-11
1.45474e-11
1.53818e-11
1.52001e-11
1.54037e-11
1.55115e-11
1.54819e-11
1.5567e-11
1.57495e-11
1.59003e-11
1.59955e-11
1.60597e-11
1.62309e-11
1.64127e-11
1.65679e-11
1.6718e-11
1.68508e-11
1.71362e-11
1.7338e-11
1.75257e-11
1.77712e-11
1.80292e-11
1.83578e-11
1.86467e-11
1.89844e-11
1.93295e-11
1.97397e-11
2.01716e-11
2.0601e-11
2.11422e-11
2.16481e-11
2.22535e-11
2.2902e-11
2.35873e-11
2.43273e-11
2.5115e-11
2.603e-11
2.69291e-11
2.79248e-11
2.89984e-11
3.01007e-11
3.12612e-11
3.24835e-11
3.37581e-11
3.50317e-11
3.63864e-11
3.77667e-11
3.92021e-11
4.07437e-11
4.23415e-11
4.40696e-11
4.58737e-11
4.77743e-11
4.97382e-11
5.17602e-11
5.38265e-11
5.58832e-11
5.80014e-11
6.01276e-11
6.23274e-11
6.45734e-11
6.6831e-11
6.91056e-11
7.12893e-11
7.33784e-11
7.5325e-11
7.72332e-11
7.86565e-11
7.98362e-11
8.15731e-11
8.42972e-11
8.93403e-11
9.63688e-11
9.96228e-11
9.72562e-11
9.68507e-11
1.47096e-10
4.52268e-10
2.27748e-10
1.78923e-09
9.8406e-12
1.00659e-11
9.83584e-12
1.02857e-11
1.04931e-11
1.05619e-11
1.06807e-11
1.07664e-11
1.09019e-11
1.1047e-11
1.1136e-11
1.12806e-11
1.14273e-11
1.15824e-11
1.17351e-11
1.18843e-11
1.2069e-11
1.22449e-11
1.24268e-11
1.26342e-11
1.2824e-11
1.3049e-11
1.32618e-11
1.34931e-11
1.3747e-11
1.40101e-11
1.428e-11
1.45554e-11
1.48706e-11
1.51793e-11
1.55164e-11
1.58753e-11
1.62364e-11
1.66448e-11
1.70547e-11
1.7506e-11
1.79726e-11
1.84665e-11
1.89949e-11
1.95236e-11
2.00979e-11
2.06772e-11
2.12662e-11
2.18639e-11
2.24844e-11
2.30966e-11
2.372e-11
2.43828e-11
2.50677e-11
2.58227e-11
2.66407e-11
2.75424e-11
2.85419e-11
2.96057e-11
3.07635e-11
3.19791e-11
3.32747e-11
3.46323e-11
3.605e-11
3.75898e-11
3.92122e-11
4.0956e-11
4.27872e-11
4.46816e-11
4.66185e-11
4.84932e-11
5.02934e-11
5.19243e-11
5.2858e-11
5.32422e-11
5.46371e-11
5.75944e-11
6.23669e-11
6.99856e-11
7.75058e-11
7.65463e-11
6.79206e-11
7.0794e-11
1.41029e-10
3.29284e-10
1.87276e-10
1.81598e-09
)
;

boundaryField
{
    inlet
    {
        type            calculated;
        value           nonuniform List<scalar> 
23
(
2.36902e-08
2.34544e-08
2.32272e-08
2.30076e-08
2.27907e-08
2.25715e-08
2.23438e-08
2.2103e-08
2.18429e-08
2.15586e-08
2.12429e-08
2.08988e-08
2.05085e-08
1.99068e-08
1.94109e-08
1.8813e-08
1.80819e-08
1.72108e-08
1.61917e-08
1.50339e-08
1.3713e-08
1.27338e-08
1.09906e-08
)
;
    }
    outlet
    {
        type            calculated;
        value           nonuniform List<scalar> 
82
(
6.27086e-12
6.24265e-12
6.51766e-12
6.66387e-12
6.84707e-12
6.89014e-12
6.9809e-12
7.0394e-12
7.14491e-12
7.25904e-12
7.31805e-12
7.42908e-12
7.54255e-12
7.66206e-12
7.77918e-12
7.89126e-12
8.03686e-12
8.17325e-12
8.31353e-12
8.47871e-12
8.62462e-12
8.80263e-12
8.96876e-12
9.15034e-12
9.35243e-12
9.56077e-12
9.77411e-12
9.98897e-12
1.02404e-11
1.04817e-11
1.07456e-11
1.10274e-11
1.13048e-11
1.16238e-11
1.19365e-11
1.22827e-11
1.26366e-11
1.30086e-11
1.3407e-11
1.37963e-11
1.42244e-11
1.46504e-11
1.50803e-11
1.5515e-11
1.59704e-11
1.64176e-11
1.6876e-11
1.73754e-11
1.78958e-11
1.84827e-11
1.91239e-11
1.98342e-11
2.0623e-11
2.1454e-11
2.23574e-11
2.33036e-11
2.43244e-11
2.54166e-11
2.65897e-11
2.7913e-11
2.9347e-11
3.09202e-11
3.25887e-11
3.43179e-11
3.60866e-11
3.7786e-11
3.93779e-11
4.07222e-11
4.12614e-11
4.13262e-11
4.26082e-11
4.56525e-11
5.08505e-11
5.92117e-11
6.73283e-11
6.57671e-11
5.4183e-11
5.2087e-11
1.13493e-10
3.04988e-10
1.23861e-10
1.49354e-09
)
;
    }
    walls
    {
        type            calculated;
        value           nonuniform List<scalar> 0();
    }
    frontAndBack
    {
        type            empty;
    }
    procBoundary3to2
    {
        type            processor;
        value           nonuniform List<scalar> 
88
(
3.83367e-10
1.45639e-09
1.99023e-11
3.13622e-10
3.13622e-10
2.08757e-11
5.639e-11
5.639e-11
7.86159e-11
6.02231e-11
5.23336e-11
5.23336e-11
1.66252e-10
1.4179e-10
1.23183e-10
1.07134e-10
9.16816e-11
9.16816e-11
3.39424e-10
2.96525e-10
2.56665e-10
2.20624e-10
1.88085e-10
1.88085e-10
6.58686e-10
5.99731e-10
5.44051e-10
4.91937e-10
4.43377e-10
3.98057e-10
3.55425e-10
3.55425e-10
1.29812e-09
1.23168e-09
1.16584e-09
1.10091e-09
1.03706e-09
9.74612e-10
9.13728e-10
8.54505e-10
7.97052e-10
7.41232e-10
6.87043e-10
6.34432e-10
6.34432e-10
5.90839e-10
1.34131e-09
1.48202e-09
1.22983e-09
1.30993e-09
1.39308e-09
1.46491e-09
1.52649e-09
1.58231e-09
1.63319e-09
1.68143e-09
1.72381e-09
1.76027e-09
1.79157e-09
1.81643e-09
1.83576e-09
1.84896e-09
1.8562e-09
1.85827e-09
1.85507e-09
1.8471e-09
1.83473e-09
1.81816e-09
1.79809e-09
1.77495e-09
1.74863e-09
1.71984e-09
1.68886e-09
1.65583e-09
1.62097e-09
1.58438e-09
1.54652e-09
1.50718e-09
1.46654e-09
1.42498e-09
1.38218e-09
1.33852e-09
1.29396e-09
1.24846e-09
1.20234e-09
1.15554e-09
1.10815e-09
1.10815e-09
)
;
    }
    procBoundary3to6
    {
        type            processor;
        value           uniform 1.7447e-12;
    }
    procBoundary3to7
    {
        type            processor;
        value           nonuniform List<scalar> 
16
(
2.87841e-13
5.15154e-10
5.27184e-10
3.1883e-10
2.43986e-10
1.89272e-10
1.35455e-10
9.34851e-11
9.34851e-11
6.1338e-11
4.00869e-11
2.54353e-11
1.80695e-11
1.20632e-11
1.41014e-11
1.03747e-11
)
;
    }
}


// ************************************************************************* //
