/*--------------------------------*- C++ -*----------------------------------*\
| =========                 |                                                 |
| \\      /  F ield         | OpenFOAM: The Open Source CFD Toolbox           |
|  \\    /   O peration     | Version:  2506                                  |
|   \\  /    A nd           | Website:  www.openfoam.com                      |
|    \\/     M anipulation  |                                                 |
\*---------------------------------------------------------------------------*/
FoamFile
{
    version     2.0;
    format      ascii;
    arch        "LSB;label=32;scalar=64";
    class       volScalarField;
    location    "400";
    object      div(phi);
}
// * * * * * * * * * * * * * * * * * * * * * * * * * * * * * * * * * * * * * //

dimensions      [0 0 -1 0 0 0 0];

internalField   nonuniform List<scalar> 
1340
(
3.0024e-05
7.78176e-05
-2.21103e-05
6.0161e-05
1.28782e-05
7.01174e-05
5.18494e-05
8.16837e-05
1.93416e-05
2.66535e-05
-4.10168e-05
1.39241e-05
8.68965e-06
4.65826e-05
3.32277e-05
6.23463e-05
1.97162e-05
1.83939e-05
-4.49581e-05
3.90364e-06
9.77312e-06
3.92881e-05
2.23896e-05
4.89929e-05
2.20049e-05
1.71514e-05
-4.87566e-05
2.20149e-06
1.1412e-05
3.61805e-05
1.53125e-05
3.82685e-05
2.10946e-05
1.45275e-05
-5.16287e-05
1.28427e-06
1.119e-05
2.90486e-05
1.0423e-05
2.97387e-05
1.77086e-05
1.25639e-05
-5.02622e-05
2.35724e-06
1.02937e-05
2.17375e-05
6.45719e-06
2.23999e-05
1.42502e-05
1.05414e-05
-4.5548e-05
2.3108e-06
9.20287e-06
1.53222e-05
3.42464e-06
1.64084e-05
1.10665e-05
1.0496e-05
-4.09244e-05
3.00187e-06
7.75011e-06
1.06959e-05
1.3197e-06
1.24021e-05
8.37589e-06
9.82153e-06
-3.54513e-05
3.10355e-06
6.01601e-06
6.64488e-06
3.26789e-08
9.31345e-06
6.17663e-06
9.56863e-06
-3.07877e-05
3.24929e-06
4.30239e-06
3.61414e-06
-9.51905e-07
7.17856e-06
4.59736e-06
9.18623e-06
-2.53048e-05
3.15073e-06
3.02378e-06
1.54674e-06
-1.60382e-06
5.44049e-06
3.69873e-06
7.36018e-06
-2.10077e-05
3.23179e-06
2.07953e-06
3.60495e-07
-1.9672e-06
4.21148e-06
2.53992e-06
4.89007e-06
-1.5699e-05
3.05726e-06
1.61404e-06
2.68142e-08
-1.67964e-06
3.26187e-06
1.78243e-06
2.64375e-06
-1.16529e-05
2.93729e-06
1.24561e-06
1.5894e-07
-1.15786e-06
2.55433e-06
1.22823e-06
7.51775e-07
-7.87094e-06
2.63844e-06
1.59299e-06
3.17995e-07
-3.96321e-07
1.91e-06
5.5101e-08
-1.79899e-07
-4.78049e-06
1.91755e-06
1.42989e-06
4.77827e-07
1.3766e-07
1.40029e-06
-1.76678e-07
-4.40179e-07
-2.68143e-06
1.1959e-06
-2.74441e-06
9.58357e-07
4.66679e-07
4.28614e-07
9.72145e-07
1.66754e-06
-7.89432e-08
-3.87591e-07
-1.42243e-06
6.64327e-07
-1.0137e-06
6.41243e-07
4.17038e-07
4.90949e-07
6.66908e-07
1.32463e-06
-5.69703e-08
-2.93971e-07
-6.47162e-07
2.46921e-07
-9.07167e-07
4.00198e-07
3.3659e-07
4.23291e-07
4.52883e-07
1.12375e-06
-5.73755e-08
-1.56265e-07
-3.17949e-07
7.18825e-08
-8.11995e-07
2.4122e-07
2.4157e-07
3.11756e-07
3.08497e-07
9.40083e-07
-3.94284e-08
-7.90039e-08
-1.66873e-07
6.18409e-09
-4.14968e-07
1.62744e-07
1.57142e-07
2.11314e-07
2.09965e-07
3.71311e-07
-6.60424e-08
-3.41153e-08
-9.12843e-08
-7.56828e-09
-3.04548e-07
9.08802e-08
8.94643e-08
1.44922e-07
1.37663e-07
2.09838e-07
-2.4945e-08
4.72394e-09
-3.78957e-08
-5.57736e-09
-2.74829e-07
-2.28225e-07
7.45486e-08
6.53852e-08
9.53044e-08
1.02156e-07
6.33851e-08
2.34465e-07
1.68202e-08
3.3403e-08
1.96889e-09
-2.74401e-09
-2.75966e-08
-1.34812e-07
7.29851e-08
5.23231e-08
6.85638e-08
7.42496e-08
6.69698e-08
1.91895e-07
3.60624e-08
5.05977e-08
1.66596e-08
9.17401e-09
2.74262e-08
-7.68267e-08
6.56053e-08
3.70653e-08
5.1595e-08
5.36708e-08
-4.10132e-09
1.31883e-07
2.92315e-08
5.11814e-08
2.93032e-08
1.09621e-08
5.35513e-10
-5.18526e-08
4.92629e-08
3.14167e-08
3.82299e-08
4.56589e-08
-9.66762e-09
7.08437e-08
2.13213e-08
4.36717e-08
3.91001e-08
1.29657e-08
2.9884e-08
-3.44579e-08
-3.93155e-09
1.57897e-08
2.21837e-08
4.35207e-08
-2.68081e-08
-5.98716e-08
-4.50169e-08
-1.73876e-10
9.79815e-09
4.78213e-08
2.42094e-08
-2.72301e-08
-4.5878e-08
-1.03279e-08
-3.11895e-08
1.16836e-08
1.49533e-08
5.50711e-08
4.3336e-08
2.99797e-09
-3.99041e-08
6.35568e-09
2.89336e-09
4.10799e-08
2.59294e-08
-4.45584e-09
-1.28597e-08
1.95818e-08
-1.38469e-08
3.5734e-09
-9.48042e-09
4.02326e-08
4.13472e-08
2.12851e-08
-1.61508e-08
-3.90522e-09
-3.0885e-08
1.65174e-08
-5.26215e-09
3.65162e-09
-4.64264e-11
1.15499e-08
-2.71202e-08
1.0855e-08
-2.59605e-08
2.81995e-08
2.08695e-08
2.16565e-08
-1.59795e-09
2.40171e-08
-1.40896e-08
2.56611e-08
9.23376e-09
2.50389e-08
1.73543e-08
1.54237e-08
2.82668e-08
-1.90887e-09
2.80703e-08
7.81205e-09
2.01718e-08
2.44542e-08
1.55361e-08
1.84153e-08
7.79531e-09
2.1846e-08
1.96048e-09
1.94238e-08
2.88096e-09
1.18212e-08
1.11722e-08
1.22156e-08
1.38448e-08
9.63994e-09
1.23172e-08
1.05925e-08
1.72301e-08
2.45442e-08
5.96857e-09
9.04826e-09
1.0887e-08
9.73837e-09
1.07757e-08
1.14665e-08
1.49098e-08
-1.56955e-08
2.0395e-09
3.57615e-09
6.61987e-09
5.37912e-09
1.76987e-08
8.50112e-09
1.19939e-08
6.59333e-09
-1.3783e-09
4.34955e-09
1.93792e-09
2.58541e-08
6.90359e-09
1.64321e-08
1.32662e-08
-1.13333e-08
4.07667e-09
7.43237e-10
2.8013e-08
-8.0936e-10
2.96776e-08
4.48353e-09
8.66202e-09
-5.9176e-09
3.46268e-09
1.57517e-09
1.40555e-08
-1.94887e-09
1.96452e-08
-2.5202e-09
8.31484e-09
-1.42509e-09
1.8445e-09
2.06089e-09
6.14082e-09
1.34075e-09
8.93048e-09
-1.39898e-09
5.60361e-09
1.56096e-09
1.06724e-08
5.15525e-09
4.71527e-09
4.33397e-09
5.74603e-09
4.76016e-09
5.72742e-09
5.26119e-09
7.93296e-09
7.11029e-09
1.65461e-09
1.92002e-09
4.65813e-09
5.88199e-09
5.85645e-09
6.86879e-09
7.02345e-09
7.41307e-09
6.07438e-09
1.03796e-09
1.84827e-09
1.5889e-09
3.38106e-09
4.96507e-09
5.0886e-09
4.45676e-09
5.27533e-09
3.78256e-09
-3.77619e-09
-1.49187e-09
-2.28966e-10
1.09441e-09
6.95139e-10
1.8538e-09
1.89561e-09
1.57847e-09
5.76273e-10
-4.21707e-10
-4.72914e-09
-3.7364e-09
-2.73513e-09
-1.74012e-09
-1.50664e-09
-2.33075e-09
-6.91051e-10
-1.8098e-09
-2.2888e-08
-7.34788e-09
-6.06586e-09
-5.00244e-09
-5.35148e-09
-4.655e-09
-4.16477e-09
-3.49508e-09
-4.18604e-09
-1.25711e-08
-7.19785e-09
-6.17116e-09
-6.43845e-09
-6.08392e-09
-5.46287e-09
-6.02451e-09
-3.84393e-09
-4.04281e-09
-1.14064e-08
-5.96168e-09
-5.67931e-09
-5.98028e-09
-5.94067e-09
-6.72045e-09
-6.87647e-09
-6.2211e-09
-5.41519e-09
-5.93707e-09
-8.43365e-09
-5.79798e-09
-4.9962e-09
-6.00548e-09
-6.11382e-09
-6.28364e-09
-5.9876e-09
-5.11947e-09
-4.09043e-09
-4.65123e-09
-8.3697e-09
-4.10378e-09
-4.00271e-09
-3.80099e-09
-3.69255e-09
-3.31838e-09
-3.01873e-09
-2.31067e-09
-2.27799e-09
-1.74933e-09
0.000144152
-7.59583e-05
3.43041e-05
-4.35981e-05
3.26612e-05
-1.81198e-05
2.41963e-05
-1.86106e-06
1.99908e-05
8.61206e-06
1.46205e-05
1.20628e-05
8.75386e-06
1.12739e-05
4.82517e-06
9.35652e-06
2.29319e-06
7.33026e-06
1.61619e-06
5.14961e-06
9.42691e-07
3.18711e-06
8.92268e-07
1.71912e-06
1.15503e-06
8.40668e-07
1.33111e-06
5.26293e-07
1.39463e-06
5.75241e-07
1.37753e-06
5.94026e-07
1.09391e-06
5.96506e-07
6.88794e-07
5.1613e-07
4.28314e-07
4.04425e-07
2.32702e-07
2.96389e-07
1.31834e-07
2.01435e-07
8.25828e-08
1.36779e-07
5.92584e-08
7.96252e-08
5.34475e-08
5.11676e-08
3.42632e-08
3.87098e-08
2.17325e-08
3.11247e-08
-1.36536e-08
2.93719e-08
9.08437e-10
4.43235e-08
3.8142e-08
4.04485e-08
4.37527e-08
-9.89962e-09
2.94061e-08
1.75472e-08
3.77713e-08
1.65514e-08
1.66159e-08
1.044e-08
-3.68033e-10
6.99628e-09
1.5785e-08
2.67397e-09
1.48259e-08
1.23987e-08
1.05875e-08
1.9014e-09
1.89856e-09
-4.28025e-09
-7.31934e-09
-1.08679e-08
-8.46006e-09
-6.15047e-09
6.33751e-05
-4.64706e-05
1.75783e-05
-3.56117e-05
1.99213e-05
-2.44084e-05
1.6573e-05
-1.45151e-05
1.53435e-05
-7.12132e-06
1.22593e-05
-2.52137e-06
8.99837e-06
-6.78399e-08
5.08407e-06
8.4537e-07
2.69437e-06
1.0315e-06
9.86646e-07
9.68869e-07
2.50722e-07
8.06919e-07
1.15892e-07
5.91775e-07
4.19146e-08
3.9142e-07
2.33523e-07
2.25765e-07
3.86931e-07
7.95849e-08
3.36993e-07
1.08583e-07
2.88058e-07
1.67154e-07
2.68434e-07
2.36368e-07
1.93898e-07
2.61574e-07
1.58932e-07
2.32557e-07
1.20387e-07
1.77614e-07
9.11571e-08
1.13347e-07
7.13669e-08
7.81005e-08
4.94487e-08
4.69399e-08
4.26826e-08
2.51783e-08
2.84979e-08
2.78928e-09
1.59998e-08
-2.10753e-08
1.86236e-08
-7.10809e-09
2.82203e-08
1.72721e-08
3.81496e-09
4.79535e-08
1.26635e-08
2.5776e-08
1.93263e-09
2.65951e-08
2.0017e-08
1.41839e-08
1.6779e-08
6.12087e-09
-3.10567e-09
1.98349e-08
8.27906e-09
7.17277e-09
3.74064e-10
1.19542e-09
-1.63005e-09
-8.1289e-09
-3.93021e-09
-1.14163e-08
-7.12291e-09
1.40293e-05
-3.01086e-05
1.50977e-06
-2.89544e-05
3.57064e-06
-2.5648e-05
4.00376e-06
-2.0906e-05
4.98143e-06
-1.70768e-05
4.93374e-06
-1.37414e-05
5.73429e-06
-9.19928e-06
5.00771e-06
-5.28592e-06
4.21315e-06
-2.55071e-06
3.10358e-06
-1.15671e-06
2.21199e-06
-6.90531e-07
1.20159e-06
-6.73254e-07
7.49153e-07
-7.23728e-07
4.02836e-07
-6.41423e-07
2.1935e-07
-3.51272e-07
2.64254e-07
-1.08319e-07
2.56695e-07
7.87398e-08
1.8394e-07
1.67704e-07
1.6487e-07
1.88971e-07
1.19336e-07
1.75421e-07
9.19659e-08
1.42185e-07
7.07374e-08
1.12767e-07
5.70762e-08
6.98378e-08
5.24687e-08
4.3544e-08
3.67099e-08
2.73887e-08
3.00648e-08
1.8072e-08
-1.53986e-09
1.19015e-08
-2.49168e-08
8.38683e-09
-1.83494e-08
1.29586e-08
2.86283e-08
-7.07679e-09
2.75148e-08
1.34673e-08
3.66537e-08
1.3486e-08
1.36231e-08
7.50638e-09
-5.98583e-09
3.80432e-09
1.69551e-08
6.08094e-09
1.33669e-08
7.47614e-09
1.51111e-08
-1.28027e-08
1.82672e-09
-2.71143e-09
-8.48381e-09
-4.95901e-09
-1.51727e-05
-3.82291e-05
-5.77594e-06
-2.70893e-05
1.31874e-06
-2.05203e-05
4.60215e-06
-1.53246e-05
5.35456e-06
-1.1787e-05
6.14354e-06
-9.55792e-06
6.03713e-06
-7.47886e-06
5.89972e-06
-5.21104e-06
4.68594e-06
-3.454e-06
3.91424e-06
-2.10703e-06
2.73327e-06
-1.13284e-06
2.12959e-06
-4.34041e-07
1.5879e-06
-3.03695e-08
1.15655e-06
1.72528e-07
9.49758e-07
1.5644e-07
5.93458e-07
1.26955e-07
3.34475e-07
1.10471e-07
2.13552e-07
1.32174e-07
1.13583e-07
1.55743e-07
8.92138e-08
1.5464e-07
7.16382e-08
1.33158e-07
6.17697e-08
9.16505e-08
5.10463e-08
6.90235e-08
3.68686e-08
4.39583e-08
3.58325e-08
2.78073e-08
2.80857e-08
1.88136e-08
2.23555e-08
-1.30629e-09
5.70072e-09
-2.20411e-08
5.0927e-09
-1.52421e-08
-1.30538e-08
3.728e-08
1.31365e-08
2.47713e-08
-1.82965e-09
2.15093e-08
1.11563e-08
1.06313e-08
1.70698e-08
4.24171e-09
1.66776e-09
1.16034e-08
6.19863e-09
7.55519e-09
2.12116e-09
-1.57534e-10
-6.29297e-09
-9.57684e-09
2.05016e-09
2.21446e-05
-1.28851e-05
4.26515e-06
-1.19163e-05
4.28139e-06
-1.13447e-05
4.2286e-06
-1.0155e-05
3.83614e-06
-8.66537e-06
3.81962e-06
-7.64421e-06
3.73937e-06
-6.67847e-06
3.9427e-06
-5.15674e-06
3.5286e-06
-3.66063e-06
3.17214e-06
-2.38473e-06
2.55388e-06
-1.50719e-06
2.15352e-06
-9.84511e-07
1.46892e-06
-7.27846e-07
1.10311e-06
-5.43881e-07
6.33684e-07
-3.15334e-07
4.46856e-07
-1.00257e-07
3.52568e-07
6.95745e-08
2.4359e-07
1.44759e-07
1.95105e-07
1.52915e-07
1.2208e-07
1.32819e-07
7.66687e-08
1.05303e-07
4.76251e-08
9.0671e-08
3.68381e-08
6.09217e-08
3.63429e-08
4.17653e-08
2.72306e-08
2.70395e-08
2.79837e-08
2.17146e-08
2.11108e-08
1.59696e-08
1.81801e-09
7.30691e-09
-2.66749e-08
-2.20452e-09
1.95558e-08
-7.99553e-09
1.75144e-08
8.00936e-10
3.23644e-08
4.91049e-09
1.31652e-08
1.92487e-08
-4.20583e-09
9.12815e-09
-1.95151e-09
6.55937e-09
8.2448e-09
1.07205e-08
9.91512e-09
-1.84711e-08
6.38586e-09
3.3551e-09
1.95717e-05
-9.18995e-06
4.97673e-06
-6.94955e-06
4.84967e-06
-6.04478e-06
4.54274e-06
-5.34272e-06
4.14716e-06
-4.5645e-06
3.61567e-06
-4.00329e-06
3.46622e-06
-3.64487e-06
3.17815e-06
-3.24114e-06
2.97075e-06
-2.61316e-06
2.4562e-06
-2.00237e-06
2.22388e-06
-1.37977e-06
1.75652e-06
-7.94113e-07
1.6078e-06
-2.51815e-07
1.37864e-06
9.48361e-08
1.20616e-06
2.12637e-07
9.08783e-07
2.06062e-07
5.83541e-07
1.37324e-07
3.59643e-07
1.01051e-07
1.78059e-07
9.72664e-08
1.04363e-07
1.00553e-07
6.47076e-08
9.66682e-08
4.89642e-08
7.08542e-08
3.5891e-08
5.80247e-08
2.37433e-08
3.99472e-08
2.49535e-08
2.81781e-08
2.14691e-08
1.94534e-08
2.58191e-08
1.79542e-08
1.894e-08
-1.64959e-09
1.1265e-08
-1.13085e-08
-2.16072e-08
1.13318e-08
-4.45048e-09
2.06046e-08
-1.03253e-08
1.65581e-08
7.01463e-09
-5.25745e-09
2.42385e-08
-3.47866e-09
9.34003e-09
-2.71147e-09
2.43281e-09
4.7027e-12
3.16904e-09
9.81321e-09
1.45005e-05
-6.38502e-06
3.55861e-06
-5.10968e-06
3.20916e-06
-4.66505e-06
2.9542e-06
-4.36127e-06
2.71969e-06
-3.96423e-06
2.41647e-06
-3.48794e-06
2.28021e-06
-3.17453e-06
2.19573e-06
-2.88039e-06
2.19663e-06
-2.36722e-06
1.98587e-06
-1.7967e-06
1.81611e-06
-1.24961e-06
1.5467e-06
-8.21526e-07
1.41047e-06
-5.52803e-07
1.0753e-06
-3.95555e-07
8.02887e-07
-2.32332e-07
5.91878e-07
-1.15956e-07
4.35408e-07
-5.72932e-09
2.93983e-07
5.49077e-08
2.23449e-07
7.20023e-08
1.37102e-07
6.75628e-08
8.00176e-08
5.73343e-08
4.0352e-08
6.06617e-08
2.6043e-08
4.75465e-08
2.49257e-08
3.75569e-08
1.82395e-08
2.54394e-08
2.11462e-08
2.22555e-08
2.10656e-08
2.23045e-08
1.71788e-08
1.9041e-08
-1.75242e-08
-1.44814e-08
-8.69571e-09
-2.95593e-08
-6.73542e-09
-2.70848e-08
1.89274e-08
-2.67576e-09
-3.83205e-09
2.21865e-08
-8.36205e-09
1.4312e-08
-1.01172e-08
1.15014e-08
7.86353e-09
1.83281e-08
1.10381e-05
-6.88977e-06
2.17748e-06
-4.33182e-06
2.80614e-06
-3.35365e-06
2.86024e-06
-2.87092e-06
2.74947e-06
-2.52255e-06
2.53838e-06
-2.14826e-06
2.28106e-06
-1.85329e-06
2.18698e-06
-1.66467e-06
2.03281e-06
-1.50419e-06
1.8778e-06
-1.2636e-06
1.55621e-06
-1.02289e-06
1.39121e-06
-7.45069e-07
1.10348e-06
-4.30238e-07
1.02346e-06
-1.37652e-07
9.66455e-07
-1.18949e-08
7.67911e-07
2.32458e-08
5.55007e-07
-1.46727e-08
3.58864e-07
-4.43431e-08
1.74226e-07
-3.47635e-08
9.21689e-08
-1.25609e-09
5.1806e-08
3.13768e-08
4.06118e-08
3.59306e-08
2.90505e-08
4.04297e-08
1.75353e-08
3.3563e-08
1.80164e-08
2.87784e-08
1.68089e-08
2.17014e-08
2.38337e-08
1.52762e-08
2.25276e-08
1.34985e-09
-2.01659e-09
-1.68202e-08
-4.33666e-08
-1.85904e-08
-4.39456e-08
1.16525e-08
-1.58076e-08
6.19062e-09
9.6835e-09
-2.11743e-08
3.74317e-08
-1.78968e-09
1.69644e-08
1.21799e-05
-4.79806e-06
2.73845e-06
-3.5385e-06
2.64841e-06
-2.93316e-06
2.39475e-06
-2.60213e-06
2.1466e-06
-2.37132e-06
1.92351e-06
-2.11368e-06
1.69222e-06
-1.8259e-06
1.54074e-06
-1.62972e-06
1.44554e-06
-1.48357e-06
1.36784e-06
-1.27863e-06
1.20046e-06
-1.04725e-06
1.059e-06
-8.1022e-07
8.91269e-07
-6.30836e-07
8.38572e-07
-5.02385e-07
5.7859e-07
-3.73021e-07
5.13282e-07
-2.62121e-07
3.93548e-07
-1.70579e-07
2.66086e-07
-9.77065e-08
2.06103e-07
-4.9885e-08
1.33732e-07
-2.18424e-08
8.38003e-08
-4.36736e-09
4.31564e-08
2.08063e-08
2.58855e-08
2.77288e-08
2.20415e-08
3.06048e-08
1.51865e-08
2.54936e-08
1.70608e-08
2.44004e-08
1.46964e-08
2.29428e-08
2.01604e-08
1.78356e-09
6.54552e-09
-3.37547e-08
-3.2037e-09
-4.85497e-08
1.59314e-08
-3.10263e-08
3.72629e-08
-3.26944e-09
-1.44746e-08
3.65701e-08
7.42448e-06
-3.20345e-06
2.23967e-06
-2.54308e-06
2.06396e-06
-2.11313e-06
1.89966e-06
-1.78535e-06
1.76926e-06
-1.58633e-06
1.63761e-06
-1.45442e-06
1.4591e-06
-1.32462e-06
1.26232e-06
-1.22851e-06
1.14252e-06
-1.18301e-06
1.01751e-06
-1.13441e-06
9.30343e-07
-1.01838e-06
7.6419e-07
-8.8305e-07
6.87626e-07
-6.84922e-07
5.45685e-07
-4.64998e-07
6.07346e-07
-3.03581e-07
5.21619e-07
-2.25234e-07
4.02362e-07
-1.97729e-07
2.96294e-07
-1.84715e-07
1.56153e-07
-1.52345e-07
8.54609e-08
-9.39096e-08
5.1124e-08
-3.15938e-08
4.4697e-08
-1.81226e-10
3.39419e-08
1.98924e-08
1.97796e-08
2.27626e-08
1.80325e-08
2.5121e-08
1.71196e-08
2.03491e-08
2.39502e-08
2.61841e-08
5.25801e-09
3.14511e-08
-2.18878e-08
3.391e-08
-3.31617e-08
4.27962e-08
-4.58142e-08
4.93989e-08
7.51949e-06
-1.84433e-06
2.41987e-06
-1.71417e-06
2.08586e-06
-1.59723e-06
1.80079e-06
-1.41143e-06
1.56758e-06
-1.30197e-06
1.38558e-06
-1.24038e-06
1.20811e-06
-1.18207e-06
1.03513e-06
-1.1003e-06
8.93894e-07
-1.05192e-06
7.92108e-07
-1.01534e-06
7.14791e-07
-9.2948e-07
6.15226e-07
-8.08248e-07
5.39919e-07
-6.81278e-07
4.65622e-07
-5.66609e-07
4.23292e-07
-4.41091e-07
3.51351e-07
-3.33792e-07
3.41682e-07
-2.40408e-07
2.57931e-07
-1.71035e-07
2.04717e-07
-1.10561e-07
1.51107e-07
-6.23921e-08
1.12525e-07
-3.36903e-08
6.87104e-08
-4.77398e-09
4.01501e-08
7.04598e-09
2.5873e-08
2.01758e-08
1.73067e-08
2.54582e-08
1.28171e-08
2.36267e-08
2.06894e-08
1.50128e-08
3.34264e-08
-1.09303e-08
5.26329e-08
2.7311e-06
-3.40478e-06
1.21409e-07
-2.35549e-06
8.28497e-07
-1.80413e-06
1.01068e-06
-1.42032e-06
1.01587e-06
-1.16355e-06
9.69052e-07
-1.00802e-06
9.08206e-07
-9.02857e-07
8.26394e-07
-8.04689e-07
7.26873e-07
-7.21248e-07
6.57505e-07
-6.63592e-07
5.92896e-07
-6.1488e-07
5.34731e-07
-5.43669e-07
4.5958e-07
-4.71017e-07
3.99891e-07
-3.91145e-07
3.4036e-07
-3.31561e-07
3.27166e-07
-2.91261e-07
2.47456e-07
-2.66905e-07
1.97749e-07
-2.30652e-07
1.38308e-07
-1.668e-07
9.2883e-08
-1.18837e-07
7.27731e-08
-5.32312e-08
6.04458e-08
-1.99292e-08
3.97698e-08
1.74206e-10
2.3805e-08
1.2179e-08
2.05846e-08
3.57154e-09
4.85784e-06
-2.04097e-06
1.51885e-06
-1.51346e-06
1.78452e-06
-1.30036e-06
1.72877e-06
-1.11397e-06
1.54933e-06
-9.22494e-07
1.36974e-06
-7.89662e-07
1.22174e-06
-6.95017e-07
1.10051e-06
-6.19964e-07
9.6454e-07
-5.45672e-07
8.55573e-07
-4.927e-07
7.59497e-07
-4.55162e-07
6.80866e-07
-4.18666e-07
5.7289e-07
-3.75297e-07
4.89357e-07
-3.34299e-07
4.04614e-07
-2.921e-07
3.47742e-07
-2.53171e-07
2.7746e-07
-1.9812e-07
2.32388e-07
-1.56995e-07
2.76858e-07
-3.33017e-07
)
;

boundaryField
{
    inlet
    {
        type            extrapolatedCalculated;
        value           nonuniform List<scalar> 
11
(
-8.3697e-09
-4.10378e-09
-4.00271e-09
-3.80099e-09
-3.69255e-09
-3.31838e-09
-3.01873e-09
-2.31067e-09
-2.27799e-09
-1.74933e-09
-6.15047e-09
)
;
    }
    outlet
    {
        type            extrapolatedCalculated;
        value           nonuniform List<scalar> 0();
    }
    walls
    {
        type            extrapolatedCalculated;
        value           nonuniform List<scalar> 4(3.0024e-05 7.78176e-05 -2.21103e-05 6.0161e-05);
    }
    frontAndBack
    {
        type            empty;
    }
    procBoundary6to2
    {
        type            processor;
        value           nonuniform List<scalar> 
13
(
-0.000128594
-8.39435e-05
-4.72047e-05
-7.75594e-05
-8.28599e-06
-2.29091e-05
-1.45915e-05
-1.25554e-05
-4.5399e-06
-7.12887e-06
-3.53333e-06
-6.57743e-06
-2.27524e-06
)
;
    }
    procBoundary6to3
    {
        type            processor;
        value           uniform -5.79342e-06;
    }
    procBoundary6to5
    {
        type            processor;
        value           nonuniform List<scalar> 
86
(
-6.71704e-06
2.82325e-06
-6.78232e-06
3.12012e-06
-7.56328e-06
3.08032e-06
-8.92462e-06
2.89349e-06
-8.7295e-06
2.62955e-06
-8.07265e-06
2.46376e-06
-7.2975e-06
2.05685e-06
-6.57098e-06
1.75794e-06
-6.93897e-06
1.41747e-06
-6.64479e-06
1.07454e-06
-6.3071e-06
8.25117e-07
-5.45812e-06
9.20756e-07
-3.92998e-06
1.54473e-06
-2.65391e-06
2.22583e-06
-2.26877e-07
2.38926e-09
1.12291e-06
-2.1012e-06
2.62333e-06
2.62333e-06
1.36491e-06
-9.37511e-07
1.06257e-06
-7.88794e-07
9.06713e-07
-6.94867e-07
8.4753e-07
-3.48397e-07
4.328e-07
-1.06625e-07
-1.11001e-07
1.11006e-07
1.11006e-07
2.55739e-07
-1.90009e-07
1.74722e-07
-1.15213e-07
1.1868e-07
-8.29103e-08
2.71508e-08
-4.31173e-08
9.53471e-08
9.53471e-08
1.08585e-07
2.57995e-08
-3.08057e-08
5.97069e-08
-1.81704e-08
2.2861e-08
8.70012e-09
8.70012e-09
1.43482e-08
6.4163e-09
2.4067e-08
-1.36701e-08
1.62829e-08
-1.4858e-08
-2.74192e-09
-2.74192e-09
-2.50772e-09
4.71966e-09
-3.90177e-10
2.78874e-09
-2.96519e-09
3.80244e-09
-1.2401e-08
-5.84048e-09
-1.08249e-08
-1.08249e-08
-7.26929e-09
-5.67296e-09
-5.0057e-09
)
;
    }
    procBoundary6to7
    {
        type            processor;
        value           nonuniform List<scalar> 
91
(
-1.08459e-08
-1.08459e-08
-1.73526e-08
-1.73526e-08
-1.96644e-08
-1.96644e-08
-1.32653e-08
-9.72758e-09
-1.32653e-08
-1.47466e-08
1.17202e-08
-9.72758e-09
-2.18087e-08
-2.0978e-09
9.22137e-09
1.17202e-08
-2.46183e-09
-7.88032e-09
2.17923e-08
-2.0978e-09
-8.42267e-09
-3.601e-08
1.25913e-08
1.45395e-08
-7.88032e-09
-1.98304e-08
-2.49419e-08
5.41835e-08
-5.56951e-08
4.54673e-08
-3.601e-08
-3.30219e-08
2.56395e-08
1.97833e-08
2.57933e-08
3.44502e-08
1.55194e-08
3.52582e-08
-2.49419e-08
1.35308e-08
2.8977e-07
-9.12447e-08
1.2045e-07
-4.93418e-08
9.25807e-08
-3.14514e-08
5.43221e-08
-1.73387e-08
4.63655e-08
1.61858e-09
3.96057e-08
2.56395e-08
1.02102e-08
9.1734e-07
-1.7187e-06
-3.30412e-07
-1.16151e-06
-5.60807e-08
-9.18715e-07
8.21459e-08
-7.3002e-07
1.76045e-07
-5.80828e-07
1.95472e-07
-4.94787e-07
2.10428e-07
-4.40933e-07
2.01084e-07
-4.07506e-07
2.06777e-07
-3.79492e-07
1.96136e-07
-3.70403e-07
2.00915e-07
-3.67682e-07
2.06196e-07
-3.54356e-07
2.03312e-07
-3.24903e-07
2.10456e-07
-2.84129e-07
1.93566e-07
-2.20409e-07
2.13636e-07
-1.52065e-07
2.25028e-07
-1.07242e-07
2.07162e-07
-6.93622e-08
2.8977e-07
1.64459e-07
)
;
    }
}


// ************************************************************************* //
