/*--------------------------------*- C++ -*----------------------------------*\
| =========                 |                                                 |
| \\      /  F ield         | OpenFOAM: The Open Source CFD Toolbox           |
|  \\    /   O peration     | Version:  2506                                  |
|   \\  /    A nd           | Website:  www.openfoam.com                      |
|    \\/     M anipulation  |                                                 |
\*---------------------------------------------------------------------------*/
FoamFile
{
    version     2.0;
    format      ascii;
    arch        "LSB;label=32;scalar=64";
    class       surfaceScalarField;
    location    "400";
    object      phi;
}
// * * * * * * * * * * * * * * * * * * * * * * * * * * * * * * * * * * * * * //

dimensions      [0 3 -1 0 0 0 0];

oriented        oriented;

internalField   nonuniform List<scalar> 
2577
(
0.113957
0.0126222
0.0954305
0.0185284
0.0671535
0.0282764
0.0662089
0.000946386
0.152934
0.0278167
0.133139
0.0383248
0.0993991
0.062018
0.0714114
0.0289367
0.192026
0.0490106
0.16713
0.0632206
0.129584
0.0995634
0.0870779
0.0714431
0.237197
0.0777743
0.205652
0.094767
0.162903
0.142314
0.112308
0.12204
0.28736
0.111699
0.249249
0.132879
0.20061
0.190951
0.144212
0.178438
0.333405
0.138935
0.295015
0.17127
0.242426
0.24354
0.18124
0.239627
0.361791
0.153075
0.33414
0.198921
0.285308
0.292371
0.222086
0.30285
0.374775
0.163334
0.359233
0.214465
0.322941
0.328663
0.263923
0.36187
0.387025
0.177751
0.374558
0.226932
0.351095
0.352124
0.301994
0.41097
0.405668
0.195948
0.38952
0.243081
0.371664
0.369981
0.332318
0.450317
0.428827
0.215104
0.408655
0.263254
0.390185
0.388449
0.355325
0.485177
0.453386
0.234091
0.431404
0.285237
0.410409
0.409444
0.376009
0.519578
0.478305
0.253179
0.455984
0.307558
0.433185
0.432241
0.398459
0.554304
0.503997
0.272832
0.481469
0.330087
0.457923
0.455787
0.42344
0.588789
0.530947
0.293228
0.50798
0.353054
0.484039
0.479726
0.450413
0.622414
0.55945
0.314314
0.535792
0.376713
0.511432
0.504086
0.478838
0.655009
0.589505
0.336068
0.565171
0.401047
0.540272
0.528982
0.508575
0.686706
0.6212
0.358376
0.596222
0.426027
0.57068
0.554523
0.539758
0.717629
0.654549
0.38125
0.629001
0.451576
0.602856
0.580666
0.572573
0.747912
0.689656
0.404659
0.663585
0.477647
0.636873
0.607377
0.607141
0.777645
0.726601
0.428552
0.700063
0.504186
0.672811
0.634627
0.643591
0.806865
0.765461
0.452909
0.738496
0.531152
0.710763
0.66236
0.681976
0.835653
0.80637
0.477636
0.779032
0.55849
0.750813
0.690578
0.722414
0.864052
0.849336
0.502835
0.821717
0.586109
0.7931
0.719194
0.765003
0.89215
0.894703
0.528187
0.866702
0.61411
0.837682
0.748213
0.809864
0.919968
0.942234
0.553942
0.914013
0.642331
0.884749
0.777476
0.857101
0.947617
0.992204
0.579749
0.963963
0.670572
0.934228
0.80721
0.906862
0.974983
1.04488
0.605681
1.01626
0.699191
0.986477
0.836995
0.959274
1.00219
1.10008
0.63181
1.0717
0.727569
1.04151
0.867181
1.01427
1.02942
1.15818
0.657927
1.12956
0.756194
1.09944
0.897302
1.07242
1.05644
1.21931
0.68382
1.19077
0.784735
1.16036
0.92771
1.13342
1.08338
1.28327
0.709849
1.25501
0.812986
1.22465
0.958078
1.19754
1.11049
1.35086
0.735385
1.3224
0.841451
1.29199
0.988483
1.26526
1.13722
1.44705
0.676017
1.4215
0.760936
1.39344
0.869516
1.36304
1.01888
1.33631
1.16396
1.5212
0.698364
1.49583
0.786305
1.46808
0.89727
1.43761
1.04934
1.41104
1.19053
1.59896
0.720647
1.57395
0.811306
1.54628
0.924941
1.51606
1.07957
1.48969
1.21691
1.6807
0.742552
1.65611
0.835903
1.62883
0.952215
1.59862
1.10977
1.57234
1.24319
1.76668
0.764059
1.74225
0.860336
1.71513
0.979333
1.68512
1.13979
1.65925
1.26906
1.85686
0.785294
1.83288
0.88431
1.80623
1.00598
1.7763
1.16972
1.75048
1.29488
1.95175
0.806249
1.92812
0.907944
1.90168
1.03242
1.872
1.19939
1.8464
1.32048
2.05134
0.827066
2.02819
0.931089
2.00212
1.0585
1.97244
1.22907
1.94721
1.34571
2.15641
0.847333
2.13347
0.954026
2.10762
1.08435
2.07825
1.25845
2.05332
1.37064
2.26666
0.867482
2.24392
0.976774
2.21859
1.10967
2.1891
1.28794
2.16461
1.39512
2.38274
0.887402
2.36034
0.999179
2.33522
1.13479
2.30604
1.31713
2.28162
1.41954
2.50477
0.907119
2.4828
1.02115
2.45764
1.15995
2.42862
1.34615
2.40469
1.44346
2.65308
0.828348
2.6334
0.926795
2.61129
1.04325
2.58673
1.18452
2.5576
1.37528
2.53404
1.46702
2.78827
0.846263
2.76874
0.946328
2.74688
1.06512
2.72221
1.20919
2.69307
1.40442
2.66989
1.49021
2.93087
0.864208
2.91116
0.966036
2.88949
1.08678
2.86497
1.23371
2.83581
1.43358
2.81286
1.51316
3.08083
0.882357
3.06132
0.985548
3.03955
1.10854
3.01496
1.2583
2.98591
1.46263
2.96304
1.53603
3.23921
0.900754
3.21929
1.00547
3.19752
1.13032
3.17314
1.28268
3.1436
1.49218
3.1212
1.55842
3.40586
0.919435
3.38591
1.02542
3.36406
1.15217
3.33929
1.30745
3.30975
1.52171
3.28742
1.58075
3.58152
0.938467
3.56137
1.04557
3.53927
1.17428
3.51447
1.33225
3.48436
1.55182
3.46234
1.60278
3.76688
0.957869
3.74633
1.06612
3.7238
1.19681
3.69876
1.35729
3.66846
1.58212
3.64642
1.62481
3.96228
0.977821
3.94112
1.08728
3.91852
1.21941
3.89296
1.38285
3.86211
1.61297
3.84005
1.64688
4.18849
0.901246
4.16806
0.998251
4.14658
1.10877
4.12342
1.24257
4.09752
1.40875
4.06597
1.64452
4.04409
1.66875
4.40637
0.92176
4.38516
1.01945
4.36324
1.1307
4.33938
1.26642
4.31296
1.43518
4.28078
1.6767
4.25866
1.69087
4.63593
0.943065
4.61404
1.04135
4.5914
1.15333
4.56702
1.29081
4.54006
1.46214
4.50704
1.70971
4.48476
1.71315
4.8781
0.965197
4.85547
1.06398
4.83206
1.17675
4.807
1.31586
4.77925
1.48989
4.74536
1.74361
4.72287
1.73564
5.13346
0.988203
5.11004
1.0874
5.08568
1.2011
5.06001
1.34154
5.03134
1.51856
4.9965
1.77844
4.97363
1.75851
5.40276
1.01239
5.37827
1.11189
5.35317
1.2262
5.32646
1.36824
5.29703
1.54799
5.26108
1.8144
5.23777
1.78182
5.68689
1.03741
5.6614
1.13737
5.63539
1.25221
5.60769
1.39594
5.57723
1.57845
5.53982
1.85181
5.51618
1.80547
6.01261
0.970585
5.98634
1.06368
5.9598
1.16391
5.93257
1.27944
5.90398
1.42453
5.87228
1.61015
5.83373
1.89036
5.80942
1.82977
6.32983
0.997663
6.30238
1.09114
6.2746
1.19168
6.24637
1.30767
6.21643
1.45447
6.18371
1.64288
6.14345
1.93061
6.11842
1.8548
6.66434
1.02619
6.63552
1.11996
6.60663
1.22057
6.57706
1.33725
6.54586
1.48566
6.51177
1.67697
6.47
1.97238
6.44432
1.88048
7.01768
1.05595
6.98759
1.15005
6.95659
1.25158
6.9255
1.36833
6.89326
1.5179
6.85748
1.71275
6.81425
2.0156
6.78763
1.9071
7.38914
1.08855
7.3576
1.18159
7.32693
1.28224
7.29418
1.40109
7.26003
1.55205
7.22252
1.75026
7.17725
2.06088
7.14937
1.93498
7.78313
1.12063
7.74958
1.21513
7.71569
1.31614
7.6824
1.43438
7.64645
1.588
7.60847
1.78825
7.56006
2.10929
7.5319
1.96314
5.72268
1.11169
5.7348
1.20301
5.75125
1.29968
5.77304
1.41259
5.79957
1.56147
5.8302
1.75762
5.86967
2.06982
5.90048
1.93233
6.27838
1.01956
6.28726
1.1028
6.30072
1.18955
6.31986
1.28055
6.34302
1.38943
6.37091
1.53358
6.40669
1.72184
6.44843
2.02808
6.48217
1.89859
6.89856
1.01559
6.9073
1.09406
6.92326
1.17358
6.94366
1.26015
6.96939
1.36369
7.00114
1.50184
7.03804
1.68493
7.08583
1.98029
7.12238
1.86204
7.57915
1.01071
7.59018
1.08303
7.60592
1.15785
7.62874
1.23732
7.65696
1.33548
7.69107
1.46772
7.73418
1.64182
7.78387
1.93061
7.82699
1.81892
8.32675
1.00635
8.33863
1.07116
8.35792
1.13856
8.38173
1.21351
8.41222
1.30498
8.45124
1.4287
8.49779
1.59527
8.55456
1.87384
8.59915
1.77433
9.14952
1.00148
9.16205
1.05862
9.18206
1.11855
9.20928
1.18629
9.24326
1.27101
9.28568
1.38628
9.33544
1.54551
9.39869
1.81059
9.44791
1.72511
10.0531
0.994799
10.0675
1.04423
10.0895
1.09658
10.12
1.15577
10.1586
1.23243
10.2042
1.34062
10.2598
1.48994
10.3289
1.74146
10.384
1.67001
11.0441
0.988134
11.06
1.02837
11.0836
1.07302
11.1158
1.12348
11.1575
1.19076
11.2088
1.28934
11.2708
1.42791
11.3448
1.66747
11.4054
1.60944
12.1421
0.981043
12.1584
1.01206
12.1864
1.04508
12.223
1.08684
12.2691
1.14469
12.3248
1.23365
12.3929
1.35974
12.4787
1.58168
12.5475
1.54062
13.3288
0.972445
13.3483
0.992572
13.3771
1.01623
13.4175
1.04645
13.4674
1.0948
13.5291
1.17191
13.6019
1.28697
13.6898
1.49375
13.7606
1.46982
14.6666
0.582854
14.6765
0.962573
14.6983
0.970703
14.7333
0.981224
14.7772
1.00259
14.8332
1.03879
14.9031
1.10206
14.9901
1.19998
15.0987
1.38514
15.1875
1.381
16.0638
0.531458
16.072
0.95434
16.0945
0.948236
16.128
0.947697
16.176
0.954633
16.2374
0.977398
16.3099
1.02955
16.3951
1.11474
16.4934
1.28681
16.5734
1.301
17.7797
17.798
17.8305
17.8776
17.9378
18.0118
18.1032
18.2166
18.3662
18.4859
0.0927572
0.136079
0.0455089
0.118658
0.0149888
0.117599
-0.00365494
0.130951
-0.0141342
0.154692
-0.0188225
0.185927
-0.0194494
0.222713
-0.0184444
0.262918
-0.0193311
0.302882
-0.0245896
0.337577
-0.0328925
0.363629
-0.0408263
0.383943
-0.0467657
0.404399
-0.0506175
0.427292
-0.0525562
0.452352
-0.0527441
0.479026
-0.0513263
0.507158
-0.0484239
0.536856
-0.0441568
0.568306
-0.038655
0.60164
-0.032046
0.636982
-0.0244379
0.674368
-0.0159491
0.713925
-0.00667209
0.755726
0.00330817
0.799884
0.0139521
0.846457
0.0251934
0.895621
0.0369509
0.947517
0.0491543
1.00207
0.0617454
1.05983
0.074669
1.1205
0.0878743
1.18433
0.101317
1.25182
0.11495
1.32267
0.128725
1.39726
0.142594
1.47582
0.15651
1.55843
0.170418
1.64534
0.184268
1.73663
0.198006
1.83266
0.211575
1.93365
0.224945
2.03995
0.238046
2.15151
0.250837
2.26883
0.263278
2.39225
0.275329
2.52199
0.286956
2.65826
0.29813
2.80168
0.308828
2.95234
0.319031
3.111
0.328714
3.27774
0.337904
3.45315
0.346563
3.63776
0.354705
3.8319
0.362335
4.03646
0.369462
4.25153
0.376098
4.47812
0.382258
4.71671
0.387959
4.96793
0.393206
5.23252
0.398058
5.51133
0.402496
5.80498
0.406553
6.11437
0.410253
6.44062
0.413616
6.78427
0.416663
7.14632
0.419416
7.52914
0.421277
5.89862
0.423083
6.48037
0.424785
7.12068
0.426452
7.82532
0.427929
8.59767
0.429378
9.44646
0.430578
10.3828
0.431653
11.4043
0.432703
12.5465
0.432756
13.7606
0.434663
15.1856
0.431417
16.5767
0.147891
0.167144
0.110074
0.156473
0.076906
0.150768
0.0534366
0.154419
0.0398129
0.168316
0.0345701
0.191169
0.0362102
0.221074
0.0430506
0.256077
0.0523971
0.293536
0.0604329
0.329541
0.0644111
0.359651
0.06537
0.382984
0.0656063
0.404163
0.0657194
0.427179
0.0656055
0.452467
0.0653195
0.479312
0.0650405
0.507437
0.0649567
0.53694
0.0652317
0.568031
0.0659958
0.600875
0.067353
0.635625
0.0693932
0.672328
0.0721708
0.711147
0.0757404
0.752156
0.0801136
0.795511
0.0852809
0.84129
0.0912261
0.889676
0.0979419
0.940801
0.105389
0.994625
0.11354
1.05168
0.122343
1.1117
0.131743
1.17493
0.141686
1.24188
0.152112
1.31225
0.162959
1.38641
0.174173
1.4646
0.185672
1.54693
0.197411
1.6336
0.20932
1.72472
0.221345
1.82064
0.23341
1.92158
0.245451
2.02791
0.257426
2.13954
0.269269
2.25698
0.280927
2.38059
0.292349
2.51057
0.303488
2.64712
0.314303
2.79087
0.324757
2.94189
0.33482
3.10094
0.344476
3.26808
0.353671
3.44395
0.362424
3.62901
0.370714
3.82361
0.378536
4.02864
0.385889
4.24418
0.392778
4.47124
0.399209
4.71028
0.405192
4.96195
0.410754
5.22696
0.415881
5.5062
0.42059
5.80027
0.424926
6.11003
0.428894
6.43665
0.432515
6.78065
0.435807
7.14303
0.43879
7.52616
0.440814
5.89659
0.442783
6.4784
0.444677
7.11879
0.446476
7.82352
0.448136
8.59601
0.449709
9.44489
0.451049
10.3815
0.452278
11.4031
0.453444
12.5453
0.453621
13.7604
0.455635
15.1836
0.191721
0.185196
0.166763
0.18143
0.139856
0.177675
0.11662
0.177655
0.100527
0.184409
0.092397
0.199298
0.0914389
0.222032
0.0961557
0.251359
0.104369
0.285323
0.112781
0.321128
0.11767
0.354762
0.118097
0.382557
0.116964
0.405297
0.116621
0.427521
0.117167
0.451921
0.118081
0.478399
0.119189
0.506329
0.120514
0.535615
0.122079
0.566467
0.123904
0.59905
0.125998
0.633531
0.12837
0.669956
0.131062
0.708455
0.134096
0.749123
0.137525
0.792082
0.141371
0.837443
0.145691
0.885357
0.150498
0.935993
0.155839
0.989284
0.161715
1.0458
0.168151
1.10526
0.175139
1.16794
0.182678
1.23434
0.190733
1.30419
0.199282
1.37787
0.208282
1.4556
0.217701
1.53751
0.227484
1.62382
0.237579
1.71462
0.24793
1.81029
0.258477
1.91103
0.269171
2.01721
0.279934
2.12878
0.290706
2.24621
0.301448
2.36985
0.312104
2.49991
0.322601
2.63662
0.3329
2.78057
0.342955
2.93183
0.352715
3.09118
0.362164
3.25863
0.371261
3.43485
0.379982
3.62029
0.388317
3.81528
0.396229
4.02073
0.403718
4.23669
0.410779
4.46417
0.417399
4.70366
0.423606
4.95574
0.429393
5.22117
0.434768
5.50082
0.439757
5.79529
0.444331
6.10546
0.448548
6.43244
0.452412
6.77679
0.455952
7.13949
0.459145
7.52297
0.46133
5.89441
0.46346
6.47627
0.465502
7.11674
0.467471
7.82155
0.469285
8.5942
0.471003
9.44317
0.47255
10.3799
0.473816
11.4018
0.475252
12.5439
0.475419
13.7602
0.231095
0.196405
0.215498
0.197026
0.196794
0.196379
0.177992
0.196455
0.162669
0.199733
0.153429
0.208537
0.151194
0.224268
0.155437
0.247116
0.16459
0.276169
0.175992
0.309726
0.185746
0.345008
0.190142
0.378161
0.18922
0.406219
0.186444
0.430297
0.184267
0.454099
0.182896
0.479769
0.181902
0.507323
0.181181
0.536336
0.180834
0.566814
0.18092
0.598965
0.18147
0.632981
0.182472
0.668954
0.183922
0.707006
0.185815
0.747229
0.188152
0.789745
0.190936
0.834659
0.194153
0.88214
0.197822
0.932324
0.201943
0.985164
0.206527
1.04122
0.21156
1.10023
0.217065
1.16244
0.223039
1.22837
0.229476
1.29775
0.23637
1.37097
0.243707
1.44827
0.251467
1.52975
0.259625
1.61566
0.268146
1.7061
0.276994
1.80144
0.286124
1.9019
0.295491
2.00785
0.305042
2.11923
0.314725
2.23653
0.324485
2.36009
0.334269
2.49013
0.344022
2.62687
0.353693
2.7709
0.36323
2.9223
0.3726
3.08181
0.381724
3.24951
0.3906
3.42598
0.399192
3.6117
0.407436
3.80703
0.415346
4.01282
0.422888
4.22915
0.43005
4.45701
0.436834
4.69688
0.443198
4.94937
0.449178
5.21519
0.454764
5.49524
0.459962
5.79009
0.464792
6.10063
0.469227
6.428
0.47332
6.77269
0.477072
7.13574
0.4805
7.51954
0.482844
5.89207
0.485135
6.47398
0.487343
7.11454
0.489471
7.81942
0.491456
8.59222
0.493334
9.44129
0.495032
10.3783
0.496428
11.4004
0.49806
12.5423
0.272326
0.204491
0.261022
0.20833
0.246796
0.210605
0.230963
0.212288
0.215818
0.214877
0.204056
0.220299
0.197829
0.230495
0.198075
0.246869
0.204461
0.269784
0.215509
0.298678
0.228469
0.332048
0.239422
0.367207
0.24502
0.400621
0.24551
0.429806
0.243955
0.455654
0.242618
0.481106
0.241789
0.508152
0.241074
0.537051
0.240388
0.5675
0.239833
0.599519
0.239513
0.633301
0.239469
0.668998
0.239727
0.706747
0.240317
0.746639
0.241273
0.78879
0.24262
0.833312
0.244383
0.880377
0.246579
0.930128
0.249224
0.982519
0.252327
1.03811
0.255893
1.09666
0.259926
1.1584
0.264427
1.22386
0.26939
1.29279
0.27481
1.36555
0.280678
1.4424
0.286979
1.52345
0.293696
1.60894
0.300816
1.69898
0.308285
1.79397
0.316098
1.89409
0.324212
1.99973
0.332584
2.11085
0.341172
2.22794
0.349928
2.35133
0.358804
2.48125
0.367749
2.61793
0.376712
2.76194
0.385643
2.91337
0.394494
3.07296
0.403218
3.24078
0.411771
3.41743
0.420114
3.60335
0.428211
3.79894
0.43603
4.005
0.443544
4.22163
0.450733
4.44982
0.457577
4.69003
0.464066
4.94289
0.47019
5.20907
0.475945
5.48948
0.481329
5.7847
0.486346
6.09561
0.491003
6.42334
0.495309
6.76839
0.499274
7.13177
0.502928
7.51589
0.505413
5.88958
0.507878
6.47151
0.510236
7.11218
0.512527
7.81713
0.514682
8.59006
0.516703
9.43927
0.518586
10.3764
0.520136
0.313801
0.210229
0.305312
0.21682
0.294137
0.221779
0.280838
0.225587
0.266664
0.229051
0.253505
0.233459
0.243616
0.240383
0.238868
0.251617
0.240199
0.268454
0.247364
0.291513
0.258993
0.320419
0.272355
0.353845
0.283708
0.389269
0.290021
0.423492
0.291445
0.454231
0.290648
0.481902
0.28982
0.508981
0.289461
0.53741
0.289275
0.567686
0.289114
0.59968
0.289014
0.633401
0.289075
0.668938
0.289313
0.706509
0.289749
0.746203
0.29038
0.788159
0.291258
0.832434
0.292404
0.879231
0.293849
0.928683
0.295621
0.980748
0.297745
1.03599
0.300254
1.09415
0.303151
1.15551
0.306452
1.22056
0.310185
1.28906
0.314348
1.36139
0.318942
1.4378
0.323974
1.51842
0.329418
1.6035
0.335261
1.69314
0.341502
1.78773
0.348112
1.88748
0.355064
1.99278
0.362325
2.10359
0.369871
2.2204
0.377643
2.34356
0.385598
2.4733
0.393712
2.60981
0.401928
2.75372
0.410199
2.9051
0.418477
3.06468
0.426726
3.23253
0.434878
3.40927
0.44289
3.59534
0.450744
3.79108
0.458392
3.99735
0.465802
4.21422
0.472944
4.44268
0.479795
4.68318
0.486349
4.93633
0.492562
5.20285
0.498425
5.48362
0.503956
5.77917
0.509139
6.09043
0.513991
6.41849
0.518487
6.76389
0.522634
7.12763
0.526471
7.51205
0.529133
5.88692
0.531723
6.46892
0.534256
7.10965
0.536724
7.81466
0.539048
8.58774
0.541216
0.355096
0.213713
0.349188
0.222728
0.34072
0.230248
0.329914
0.236392
0.317412
0.241554
0.304369
0.246501
0.29248
0.252273
0.283714
0.260382
0.279809
0.272359
0.281708
0.289614
0.289285
0.312842
0.301224
0.341905
0.314897
0.375596
0.326724
0.411666
0.33381
0.447144
0.335987
0.479725
0.335549
0.50942
0.334753
0.538205
0.33437
0.56807
0.334239
0.599811
0.33418
0.63346
0.334203
0.668914
0.334371
0.706341
0.33471
0.745865
0.335225
0.787644
0.335929
0.83173
0.336841
0.878319
0.337982
0.927543
0.33937
0.979359
0.341029
1.03433
0.342977
1.0922
0.345234
1.15325
0.347821
1.21798
0.350755
1.28612
0.354052
1.35809
0.357723
1.43413
0.361777
1.51436
0.366216
1.59906
0.371042
1.68832
0.376247
1.78252
0.381822
1.88191
0.38775
1.98685
0.394012
2.09733
0.400582
2.21383
0.407429
2.33671
0.414521
2.46621
0.421819
2.60251
0.429284
2.74626
0.436872
2.89751
0.444541
3.05701
0.452244
3.22483
0.459938
3.40158
0.467577
3.5877
0.475121
3.78354
0.482529
3.98995
0.489765
4.20699
0.496794
4.43565
0.503587
4.67639
0.510119
4.9298
0.516367
5.19661
0.522315
5.47767
0.52795
5.77354
0.533262
6.08511
0.538248
6.41351
0.542908
6.75923
0.547243
7.12329
0.551261
7.50803
0.554048
5.88413
0.556799
6.46617
0.5595
0.562097
0.396064
0.215302
0.392605
0.226186
0.386759
0.236093
0.378484
0.244668
0.368024
0.252014
0.356068
0.258456
0.343688
0.264653
0.332442
0.271628
0.324154
0.280647
0.320513
0.293254
0.322517
0.310839
0.330149
0.334273
0.342202
0.363543
0.35618
0.397688
0.368683
0.434641
0.376769
0.471639
0.379896
0.506292
0.379954
0.538147
0.379224
0.5688
0.37881
0.600225
0.378717
0.633554
0.378723
0.668908
0.378792
0.706271
0.37896
0.745697
0.379289
0.787316
0.379755
0.831264
0.38041
0.877663
0.381245
0.926708
0.382288
0.978316
0.383548
1.03307
0.385064
1.09069
0.386842
1.15147
0.388909
1.21591
0.391263
1.28377
0.393927
1.35543
0.396916
1.43114
0.400229
1.51105
0.403896
1.59539
0.407911
1.6843
0.412289
1.77814
0.417005
1.87719
0.422066
1.98179
0.427458
2.09194
0.433157
2.20813
0.439164
2.33071
0.445454
2.45992
0.451977
2.59599
0.458711
2.73952
0.46562
2.8906
0.472655
3.04998
0.479797
3.21769
0.486995
3.39438
0.494204
3.58049
0.501396
3.77635
0.508506
3.98284
0.515507
4.19999
0.522362
4.4288
0.529025
4.66972
0.53549
4.92333
0.54172
5.19038
0.547704
5.47169
0.553398
5.76785
0.558785
6.07973
0.563885
6.40841
0.568679
6.75443
0.573178
7.11879
0.577343
0.580256
0.43646
0.215827
0.435
0.227646
0.431739
0.239355
0.426119
0.250287
0.418094
0.260039
0.407945
0.268605
0.396315
0.276284
0.384245
0.283698
0.373199
0.291693
0.364936
0.301517
0.3611
0.314675
0.362819
0.332554
0.37018
0.356182
0.382144
0.385724
0.396341
0.420445
0.409526
0.458453
0.418711
0.497108
0.422865
0.533993
0.423496
0.568169
0.422898
0.600823
0.422485
0.633968
0.422446
0.668946
0.422574
0.706144
0.422756
0.745515
0.423009
0.787063
0.423379
0.830893
0.42386
0.877184
0.424492
0.926076
0.425284
0.977524
0.426265
1.03209
0.427425
1.08953
0.428822
1.15007
0.430433
1.2143
0.432307
1.2819
0.434449
1.35329
0.436873
1.42872
0.439594
1.50833
0.442633
1.59235
0.445977
1.68096
0.449632
1.77449
0.453623
1.8732
0.457939
1.97748
0.462576
2.0873
0.467526
2.20318
0.472777
2.32546
0.478313
2.45438
0.484113
2.59019
0.490152
2.73348
0.496402
2.88435
0.502842
3.04354
0.509403
3.21113
0.516095
3.38769
0.522844
3.57375
0.529608
3.76958
0.536373
3.97607
0.543089
4.19327
0.549716
4.42217
0.556232
4.66321
0.562579
4.91699
0.568725
5.18423
0.574669
5.46574
0.580375
5.76214
0.585837
0.591
0.595897
0.476872
0.216035
0.476472
0.228045
0.475236
0.240591
0.472293
0.253231
0.467062
0.265269
0.459376
0.276291
0.449527
0.286132
0.43812
0.295105
0.426164
0.303649
0.415031
0.312649
0.406466
0.323241
0.402131
0.336889
0.403274
0.35504
0.410139
0.378859
0.421846
0.408738
0.43622
0.444079
0.450075
0.483252
0.46034
0.523729
0.465571
0.562938
0.466812
0.599582
0.466347
0.634432
0.465902
0.669391
0.465866
0.70618
0.466093
0.745287
0.466368
0.786789
0.466699
0.830562
0.467114
0.876768
0.467641
0.925549
0.468294
0.976871
0.469086
1.0313
0.470045
1.08857
0.471156
1.14896
0.472468
1.21299
0.473988
1.28038
0.475733
1.35154
0.477717
1.42673
0.479968
1.50608
0.482466
1.58986
0.485254
1.67817
0.488332
1.77141
0.491708
1.86982
0.495385
1.9738
0.499365
2.08332
0.503658
2.19888
0.508234
2.32088
0.513085
2.44953
0.518219
2.58506
0.523608
2.72809
0.529229
2.87873
0.535058
3.03771
0.541078
3.20511
0.547222
3.38155
0.553491
3.56748
0.559838
3.76324
0.566225
3.96968
0.572614
4.18688
0.578969
4.41581
0.585253
0.591431
0.597484
0.60334
0.518148
0.21627
0.518004
0.228189
0.517747
0.240848
0.516792
0.254186
0.514274
0.267787
0.509541
0.281024
0.502315
0.293359
0.4928
0.30462
0.481564
0.314885
0.469582
0.324631
0.458202
0.334621
0.449108
0.345982
0.444053
0.360095
0.444394
0.378517
0.450585
0.402547
0.461905
0.432759
0.476366
0.468792
0.490905
0.509189
0.502274
0.551569
0.50861
0.593246
0.510529
0.632514
0.510231
0.669688
0.50972
0.706691
0.509644
0.745364
0.509914
0.786518
0.510268
0.830208
0.510651
0.876385
0.511097
0.925103
0.511642
0.976326
0.512303
1.03063
0.51308
1.08779
0.514009
1.14803
0.515107
1.21189
0.516366
1.27912
0.517813
1.35009
0.519463
1.42508
0.52132
1.50422
0.52342
1.58776
0.525763
1.67582
0.528374
1.7688
0.53124
1.86696
0.534379
1.97066
0.537798
2.0799
0.541487
2.1952
0.545469
2.3169
0.549741
2.44526
0.55427
2.58053
0.559059
2.7233
0.564092
2.87369
0.569349
3.03245
0.574797
0.580434
0.586232
0.592134
0.59812
0.604153
0.560766
0.216486
0.560577
0.228377
0.560469
0.240957
0.560332
0.254323
0.559685
0.268434
0.557668
0.283042
0.553529
0.297497
0.54686
0.311289
0.537759
0.323986
0.526719
0.335671
0.514662
0.346677
0.50291
0.357735
0.493142
0.369863
0.487162
0.384497
0.486497
0.403213
0.491834
0.427421
0.502651
0.457975
0.517115
0.494725
0.53227
0.536413
0.544757
0.580759
0.552264
0.625007
0.554938
0.667014
0.554883
0.706746
0.554311
0.745935
0.554163
0.786666
0.554435
0.829936
0.554842
0.875979
0.555267
0.924678
0.555733
0.97586
0.556284
1.03008
0.556953
1.08713
0.557728
1.14726
0.558622
1.21099
0.559671
1.27807
0.560879
1.34889
0.562259
1.4237
0.563838
1.50264
0.565606
1.58599
0.567587
0.569781
0.572223
0.574911
0.577852
0.581065
0.584528
0.588243
0.592231
0.596473
0.600961
0.604811
0.604625
0.604449
0.60438
0.604326
0.603956
0.602474
0.59902
0.593013
0.584403
0.5736
0.561464
0.549283
0.538738
0.531721
0.529878
0.534168
0.544333
0.558705
0.574424
0.588002
0.596734
0.600266
0.600506
0.59989
0.599647
0.599918
0.600364
0.600827
0.601298
0.60185
0.602502
0.603275
0.604156
0.60517
0.60633
0.607638
)
;

boundaryField
{
    inlet
    {
        type            calculated;
        value           nonuniform List<scalar> 
11
(
0.471993
0.936009
0.915764
0.900576
0.894465
0.903396
0.938093
1.00132
1.13728
1.18123
0.435762
)
;
    }
    outlet
    {
        type            calculated;
        value           nonuniform List<scalar> 0();
    }
    walls
    {
        type            calculated;
        value           uniform 0;
    }
    frontAndBack
    {
        type            empty;
    }
    procBoundary6to2
    {
        type            processor;
        value           nonuniform List<scalar> 
13
(
-0.162623
-0.178955
-0.209773
-0.242304
-0.280411
-0.319539
-0.35858
-0.397652
-0.436985
-0.477079
-0.518384
-0.560982
-0.604973
)
;
    }
    procBoundary6to3
    {
        type            processor;
        value           uniform 0.216648;
    }
    procBoundary6to5
    {
        type            processor;
        value           nonuniform List<scalar> 
86
(
-0.126578
-0.168128
-0.213219
-0.265961
-0.321284
-0.360641
-0.37593
-0.385034
-0.401441
-0.423865
-0.447983
-0.472373
-0.497392
-0.523649
-0.551343
-0.580535
-0.611259
-0.643508
-0.677423
-0.713065
-0.750494
-0.789818
-0.831097
-0.874534
-0.920055
-0.967989
-1.01801
-1.07081
-1.12621
-1.1843
-1.2452
-1.30929
-1.3764
-0.653217
-1.46985
-1.54355
-1.62124
-1.70261
-1.78819
-1.87809
-1.97271
-2.07215
-2.17668
-2.28681
-2.40266
-2.52449
-0.810557
-2.67087
-2.80619
-2.94881
-3.09898
-3.25761
-3.42454
-3.60055
-3.78628
-3.98223
-0.881347
-4.20839
-4.42688
-4.65724
-4.90023
-5.15646
-5.42695
-5.7119
-0.944648
-6.03855
-6.35691
-6.69287
-7.04744
-7.42174
-7.81521
-5.71374
-1.02377
-6.27417
-6.89458
-7.57428
-8.3224
-9.14464
-10.0464
-11.0375
-12.135
-13.3202
-0.632362
-14.6171
-16.0124
-17.7202
)
;
    }
    procBoundary6to7
    {
        type            processor;
        value           nonuniform List<scalar> 
91
(
18.4816
0.452745
16.5796
0.477755
15.1812
0.498314
13.76
11.3988
0.521922
12.5405
9.4371
0.543272
10.3743
7.10694
7.81207
0.564589
8.58524
7.50387
5.88122
0.583144
6.46328
6.07426
6.40324
6.74954
0.600504
7.11419
4.65692
4.91081
5.17818
5.45989
0.609014
5.75647
3.19966
3.37591
3.56168
3.75734
3.9637
4.18085
0.6102
4.40977
1.67384
1.76661
1.86452
1.96797
2.07696
2.19198
2.31344
2.44154
2.57654
2.71906
2.86921
0.605682
3.02773
0.228564
0.241132
0.254392
0.268488
0.283411
0.29898
0.314742
0.329994
0.344281
0.35748
0.369871
0.382044
0.395043
0.410229
0.429265
0.453685
0.484559
0.522041
0.56504
0.611429
0.658282
0.703214
0.745695
0.787282
0.830178
0.875708
0.924232
0.975397
1.02961
1.08657
1.14661
1.21022
1.27719
1.34787
1.42254
1.50133
0.609131
1.5845
)
;
    }
}


// ************************************************************************* //
