/*--------------------------------*- C++ -*----------------------------------*\
| =========                 |                                                 |
| \\      /  F ield         | OpenFOAM: The Open Source CFD Toolbox           |
|  \\    /   O peration     | Version:  2506                                  |
|   \\  /    A nd           | Website:  www.openfoam.com                      |
|    \\/     M anipulation  |                                                 |
\*---------------------------------------------------------------------------*/
FoamFile
{
    version     2.0;
    format      ascii;
    arch        "LSB;label=32;scalar=64";
    class       volScalarField;
    location    "400";
    object      turbulenceProperties:k;
}
// * * * * * * * * * * * * * * * * * * * * * * * * * * * * * * * * * * * * * //

dimensions      [0 2 -2 0 0 0 0];

internalField   nonuniform List<scalar> 
1340
(
25.4129
20.1254
14.8739
3.46715
9.51839
8.47209
7.38132
7.92686
12.1068
10.5205
8.70977
9.78671
12.4513
11.7094
10.2485
11.0369
8.10935
10.0702
10.4375
11.6177
1.85553
5.17737
8.34469
11.0856
0.127673
0.850374
4.25532
8.89393
0.053974
0.0990417
0.967729
5.3294
0
0.0311655
0.133919
2.12125
0
0
0.0466321
0.547336
0
0
0.00248529
0.139866
2.63679e-06
0
0.000802093
0.0486402
4.03185e-05
5.71274e-08
0.000259236
0.0161555
8.14551e-05
8.0215e-08
2.68337e-05
0.0040536
7.49735e-05
3.79519e-05
3.65459e-07
0.000271524
6.03858e-05
7.22943e-05
1.5263e-07
1.87595e-05
5.27588e-05
7.89519e-05
3.97457e-07
3.74213e-10
5.13129e-05
6.7076e-05
2.54641e-05
5.11663e-07
5.16577e-05
5.48825e-05
5.15196e-05
6.10993e-06
5.13085e-05
4.8459e-05
5.53531e-05
2.59919e-05
4.98789e-05
4.59178e-05
4.98389e-05
4.04607e-05
4.786e-05
4.45989e-05
4.42737e-05
4.37656e-05
4.56962e-05
4.31742e-05
4.06336e-05
4.15983e-05
4.35665e-05
4.13843e-05
3.8232e-05
3.82677e-05
4.14913e-05
3.93775e-05
3.62666e-05
3.52289e-05
3.94388e-05
3.73099e-05
3.43639e-05
3.26306e-05
3.73952e-05
3.52618e-05
3.24486e-05
3.03287e-05
3.53615e-05
3.32521e-05
3.05446e-05
2.82177e-05
3.3342e-05
3.12814e-05
2.86763e-05
2.62476e-05
3.13507e-05
2.93562e-05
2.68639e-05
2.44053e-05
2.93979e-05
2.74818e-05
2.51098e-05
2.26801e-05
2.74883e-05
2.56649e-05
2.34238e-05
2.10632e-05
2.56326e-05
2.39076e-05
2.1805e-05
1.95493e-05
2.52863e-05
2.38371e-05
2.22188e-05
2.02559e-05
1.81285e-05
2.34399e-05
2.21075e-05
2.06016e-05
1.87817e-05
1.67954e-05
2.16671e-05
2.04505e-05
1.90582e-05
1.73821e-05
1.55452e-05
1.9974e-05
1.88693e-05
1.75912e-05
1.60575e-05
1.43724e-05
1.83654e-05
1.73678e-05
1.62025e-05
1.48075e-05
1.32731e-05
1.68439e-05
1.59483e-05
1.4893e-05
1.36323e-05
1.22435e-05
1.54117e-05
1.46118e-05
1.36618e-05
1.25298e-05
1.12802e-05
1.40697e-05
1.33591e-05
1.2509e-05
1.14982e-05
1.03798e-05
1.28177e-05
1.21894e-05
1.1433e-05
1.05356e-05
9.53926e-06
1.16543e-05
1.11013e-05
1.04318e-05
9.63933e-06
8.75585e-06
1.05777e-05
1.0093e-05
9.50322e-06
8.8071e-06
8.02638e-06
9.58472e-06
9.16184e-06
8.64462e-06
8.03589e-06
7.34858e-06
8.97131e-06
8.67232e-06
8.30442e-06
7.85278e-06
7.32272e-06
6.71977e-06
8.0951e-06
7.83658e-06
7.51762e-06
7.1246e-06
6.66482e-06
6.13737e-06
7.29635e-06
7.07319e-06
6.79746e-06
6.45661e-06
6.05922e-06
5.59897e-06
6.57019e-06
6.37789e-06
6.14007e-06
5.84525e-06
5.50278e-06
5.10215e-06
5.91163e-06
5.74608e-06
5.54137e-06
5.28704e-06
4.99257e-06
4.64463e-06
5.31574e-06
5.17338e-06
4.99736e-06
4.77831e-06
4.52567e-06
4.22405e-06
4.77753e-06
4.65517e-06
4.50404e-06
4.31567e-06
4.09921e-06
3.83812e-06
4.29234e-06
4.18716e-06
4.05743e-06
3.89561e-06
3.71036e-06
3.48468e-06
3.85558e-06
3.76512e-06
3.65382e-06
3.51488e-06
3.35639e-06
3.16156e-06
3.525e-06
3.46291e-06
3.38508e-06
3.28953e-06
3.17027e-06
3.03469e-06
2.86664e-06
3.16401e-06
3.11027e-06
3.04321e-06
2.96116e-06
2.85877e-06
2.74273e-06
2.59789e-06
2.84053e-06
2.79393e-06
2.73606e-06
2.66549e-06
2.57752e-06
2.47811e-06
2.35335e-06
2.55092e-06
2.5104e-06
2.46035e-06
2.39955e-06
2.32385e-06
2.23857e-06
2.13115e-06
2.2918e-06
2.25647e-06
2.21306e-06
2.16056e-06
2.09535e-06
2.02203e-06
1.92952e-06
2.05991e-06
2.02904e-06
1.99133e-06
1.94591e-06
1.88962e-06
1.82646e-06
1.74679e-06
1.85193e-06
1.82499e-06
1.79225e-06
1.75296e-06
1.70435e-06
1.64987e-06
1.58131e-06
1.68396e-06
1.66472e-06
1.64129e-06
1.61294e-06
1.57903e-06
1.53714e-06
1.49017e-06
1.43133e-06
1.51276e-06
1.4959e-06
1.47552e-06
1.451e-06
1.42179e-06
1.38577e-06
1.34536e-06
1.29509e-06
1.35884e-06
1.34391e-06
1.32605e-06
1.30473e-06
1.27949e-06
1.2485e-06
1.21373e-06
1.17088e-06
1.22133e-06
1.20789e-06
1.19202e-06
1.17327e-06
1.15127e-06
1.12444e-06
1.09441e-06
1.05793e-06
1.09834e-06
1.086e-06
1.07161e-06
1.05485e-06
1.03536e-06
1.0118e-06
9.8554e-07
9.54155e-07
9.92778e-07
9.8155e-07
9.68533e-07
9.53479e-07
9.36094e-07
9.1508e-07
8.91736e-07
8.64108e-07
9.08599e-07
8.98283e-07
8.86445e-07
8.72859e-07
8.57186e-07
8.38178e-07
8.17092e-07
7.93548e-07
8.44558e-07
8.36182e-07
8.25883e-07
8.14391e-07
8.01573e-07
7.86981e-07
7.69515e-07
7.49884e-07
7.28931e-07
7.80178e-07
7.71918e-07
7.61753e-07
7.50461e-07
7.37999e-07
7.23958e-07
7.07481e-07
6.89421e-07
6.7196e-07
7.12713e-07
7.04207e-07
6.94043e-07
6.82874e-07
6.70705e-07
6.5713e-07
6.41194e-07
6.22901e-07
6.03707e-07
6.58282e-07
6.50544e-07
6.41164e-07
6.30661e-07
6.19067e-07
6.06212e-07
5.91655e-07
5.76723e-07
5.6527e-07
5.81991e-07
5.7335e-07
5.63576e-07
5.53098e-07
5.41899e-07
5.2944e-07
5.14448e-07
4.9562e-07
4.74492e-07
5.57602e-07
5.50437e-07
5.41769e-07
5.31946e-07
5.2122e-07
5.09867e-07
4.985e-07
4.90011e-07
4.89457e-07
4.51034e-07
4.42795e-07
4.33801e-07
4.24117e-07
4.13572e-07
4.01239e-07
3.84708e-07
3.62113e-07
3.34835e-07
5.17638e-07
5.12619e-07
5.06145e-07
4.98199e-07
4.89625e-07
4.81675e-07
4.78026e-07
4.84529e-07
5.01053e-07
4.03074e-07
4.02449e-07
3.99556e-07
3.94362e-07
3.87157e-07
3.77372e-07
3.63993e-07
3.56289e-07
3.42183e-07
6.96356e-07
6.80401e-07
6.80714e-07
6.80843e-07
6.8004e-07
6.79056e-07
6.80105e-07
6.93001e-07
7.24441e-07
7.40513e-07
7.46998e-07
7.42534e-07
7.46938e-07
7.52348e-07
7.56959e-07
7.61099e-07
7.66955e-07
7.8644e-07
8.19227e-07
8.17416e-07
1.26411e-06
1.06793e-06
1.08314e-06
1.0961e-06
1.10375e-06
1.11257e-06
1.12442e-06
1.14781e-06
1.16827e-06
9.9906e-07
15.1064
6.97233
3.09373
8.99428
12.0138
12.6179
11.2532
8.1235
4.17052
1.26097
0.210445
0.0424287
0.0141294
0.00357478
0.000155476
8.70684e-06
0
8.25411e-08
1.70999e-06
1.82454e-05
3.30838e-05
3.73869e-05
3.58414e-05
3.28856e-05
3.01495e-05
2.78586e-05
2.58653e-05
2.40572e-05
2.23786e-05
2.08155e-05
1.93604e-05
1.80057e-05
1.67453e-05
1.55688e-05
1.4469e-05
1.34408e-05
1.24773e-05
1.15738e-05
1.07265e-05
9.93153e-06
9.18534e-06
8.48527e-06
7.82959e-06
7.21493e-06
6.64013e-06
6.1033e-06
5.60252e-06
5.13625e-06
4.70289e-06
4.30094e-06
3.9289e-06
3.5851e-06
3.26818e-06
2.97654e-06
2.70871e-06
2.46319e-06
2.23853e-06
2.03331e-06
1.84613e-06
1.67569e-06
1.52067e-06
1.37965e-06
1.25118e-06
1.13365e-06
1.02649e-06
9.27459e-07
8.40742e-07
7.73837e-07
7.09946e-07
6.58537e-07
5.85113e-07
5.60159e-07
4.5035e-07
4.99101e-07
2.97318e-07
5.26199e-07
3.06126e-07
7.39751e-07
7.59469e-07
9.37129e-07
10.9539
10.3831
4.98152
2.77151
6.91009
9.34019
9.61282
7.97022
4.96053
1.89879
0.30805
0.0224207
0.00561223
0.00201761
0.000127054
8.95362e-06
0
2.31629e-08
4.91155e-07
9.63232e-06
2.0266e-05
2.43115e-05
2.41183e-05
2.26673e-05
2.1209e-05
1.9968e-05
1.88694e-05
1.78417e-05
1.6856e-05
1.59102e-05
1.50056e-05
1.41424e-05
1.3321e-05
1.25373e-05
1.17891e-05
1.10756e-05
1.03938e-05
9.74276e-06
9.12111e-06
8.52761e-06
7.9611e-06
7.42087e-06
6.90693e-06
6.41759e-06
5.95321e-06
5.51338e-06
5.09736e-06
4.7049e-06
4.33559e-06
3.98892e-06
3.66443e-06
3.36138e-06
3.07917e-06
2.81705e-06
2.5742e-06
2.34976e-06
2.14283e-06
1.95248e-06
1.77773e-06
1.61765e-06
1.47127e-06
1.33745e-06
1.21504e-06
1.10264e-06
9.99824e-07
9.04576e-07
8.20464e-07
7.5528e-07
6.91965e-07
6.43434e-07
5.69667e-07
5.48657e-07
4.36566e-07
4.90553e-07
2.84941e-07
5.16445e-07
2.95304e-07
7.21346e-07
7.37458e-07
7.14347
8.62269
6.92013
3.04612
2.29814
5.71831
7.69417
7.75834
6.07649
3.35175
0.992421
0.0910774
0.00389147
0.000564631
2.50171e-08
1.26932e-09
0
1.1235e-09
2.34315e-08
4.04646e-06
1.12321e-05
1.48226e-05
1.52975e-05
1.47305e-05
1.4091e-05
1.35717e-05
1.31287e-05
1.27063e-05
1.22766e-05
1.18353e-05
1.13839e-05
1.09254e-05
1.04637e-05
9.99952e-06
9.53485e-06
9.07237e-06
8.6132e-06
8.16005e-06
7.71402e-06
7.27686e-06
6.8497e-06
6.43402e-06
6.03129e-06
5.64148e-06
5.26622e-06
4.90613e-06
4.56145e-06
4.2328e-06
3.92043e-06
3.62452e-06
3.34519e-06
3.08221e-06
2.83554e-06
2.60479e-06
2.3896e-06
2.18949e-06
2.0039e-06
1.83223e-06
1.67379e-06
1.52791e-06
1.39387e-06
1.27077e-06
1.15772e-06
1.05347e-06
9.57698e-07
8.68682e-07
7.89383e-07
7.28007e-07
6.66987e-07
6.22626e-07
5.50345e-07
5.33117e-07
4.22417e-07
4.78139e-07
2.78167e-07
5.03649e-07
2.93646e-07
7.05978e-07
4.68534
6.38751
6.58634
4.88867
1.92173
1.92237
4.70513
6.31938
6.33502
4.83679
2.50552
0.661692
0.0509009
0.000335495
0.000138187
0
0
0
1.05275e-07
2.14426e-06
7.91988e-06
1.17487e-05
1.25564e-05
1.20879e-05
1.14472e-05
1.09441e-05
1.05552e-05
1.02142e-05
9.88719e-06
9.56371e-06
9.24008e-06
8.9151e-06
8.58864e-06
8.25914e-06
7.92631e-06
7.59078e-06
7.25317e-06
6.91512e-06
6.57748e-06
6.24183e-06
5.90948e-06
5.58203e-06
5.26085e-06
4.94665e-06
4.64112e-06
4.34503e-06
4.05911e-06
3.78427e-06
3.52093e-06
3.26962e-06
3.03075e-06
2.8043e-06
2.59056e-06
2.38936e-06
2.2006e-06
2.02408e-06
1.85945e-06
1.70636e-06
1.56434e-06
1.4329e-06
1.31156e-06
1.1996e-06
1.09636e-06
1.00074e-06
9.12454e-07
8.30096e-07
7.56049e-07
6.99236e-07
6.41179e-07
6.0114e-07
5.30676e-07
5.17148e-07
4.08412e-07
4.65727e-07
2.72055e-07
4.9198e-07
2.91171e-07
2.8446
4.43217
5.37383
5.17304
3.70901
1.39413
1.55693
3.80702
5.15825
5.20069
3.94875
2.00807
0.522825
0.038207
0.000551968
0.000205038
0
0
0
2.29634e-07
4.09233e-06
9.16227e-06
1.04553e-05
1.01926e-05
9.68028e-06
9.2288e-06
8.87506e-06
8.57592e-06
8.29303e-06
8.01426e-06
7.73859e-06
7.46654e-06
7.19796e-06
6.9317e-06
6.66669e-06
6.40227e-06
6.13824e-06
5.87487e-06
5.61201e-06
5.35021e-06
5.09008e-06
4.83234e-06
4.57778e-06
4.32699e-06
4.08112e-06
3.84075e-06
3.60666e-06
3.37975e-06
3.1604e-06
2.9493e-06
2.74699e-06
2.55369e-06
2.36978e-06
2.19535e-06
2.03056e-06
1.87537e-06
1.72967e-06
1.59332e-06
1.46606e-06
1.34759e-06
1.23761e-06
1.13561e-06
1.0411e-06
9.53189e-07
8.7159e-07
7.95207e-07
7.2583e-07
6.73054e-07
6.17617e-07
5.81342e-07
5.12451e-07
5.0227e-07
3.9507e-07
4.54454e-07
2.65365e-07
4.82587e-07
1.41861
2.74694
3.91672
4.5048
4.22038
3.00986
1.15037
1.19936
3.07371
4.25575
4.35686
3.34374
1.73091
0.471453
0.0425253
0.000806755
0.000201296
0
0
0
2.36353e-07
3.98367e-06
7.77907e-06
7.92262e-06
7.4234e-06
7.111e-06
6.8999e-06
6.72205e-06
6.55868e-06
6.39481e-06
6.22465e-06
6.04954e-06
5.87118e-06
5.68996e-06
5.50565e-06
5.31826e-06
5.12828e-06
4.93626e-06
4.74228e-06
4.5469e-06
4.35076e-06
4.15424e-06
3.9581e-06
3.76286e-06
3.56937e-06
3.37819e-06
3.19007e-06
3.00583e-06
2.82591e-06
2.65102e-06
2.48182e-06
2.31867e-06
2.16204e-06
2.01221e-06
1.86952e-06
1.73408e-06
1.60598e-06
1.48525e-06
1.37181e-06
1.26553e-06
1.16626e-06
1.07367e-06
9.87443e-07
9.06864e-07
8.31659e-07
7.61023e-07
6.9612e-07
6.4712e-07
5.94168e-07
5.61453e-07
4.94185e-07
4.87272e-07
3.8156e-07
4.43242e-07
0.469607
1.36209
2.45758
3.38006
3.81923
3.56895
2.58886
1.06399
0.857837
2.46223
3.53511
3.70856
2.91686
1.57078
0.467299
0.0542657
0.000260873
4.96129e-05
0
0
0
2.2279e-07
3.64013e-06
6.47868e-06
6.18879e-06
5.59568e-06
5.37482e-06
5.26595e-06
5.15565e-06
5.04804e-06
4.94399e-06
4.83774e-06
4.72785e-06
4.6146e-06
4.49723e-06
4.375e-06
4.24795e-06
4.11641e-06
3.98052e-06
3.84082e-06
3.69786e-06
3.5521e-06
3.40432e-06
3.25508e-06
3.1051e-06
2.95507e-06
2.80569e-06
2.65771e-06
2.51166e-06
2.36825e-06
2.22816e-06
2.0918e-06
1.95976e-06
1.83236e-06
1.71005e-06
1.59305e-06
1.48159e-06
1.37579e-06
1.2757e-06
1.18133e-06
1.09263e-06
1.00941e-06
9.31499e-07
8.58351e-07
7.8967e-07
7.24946e-07
6.64695e-07
6.19629e-07
5.69333e-07
5.403e-07
4.74901e-07
4.71394e-07
0.0623608
0.425114
1.18322
2.10508
2.88626
3.27562
3.10477
2.32835
1.06995
0.544223
1.93804
2.93594
3.18555
2.59353
1.47105
0.48788
0.0659442
0.00053029
6.81886e-05
0
0
0
1.68559e-07
2.6322e-06
5.38514e-06
5.11112e-06
4.47672e-06
4.28326e-06
4.22688e-06
4.14744e-06
4.05682e-06
3.97212e-06
3.89031e-06
3.80771e-06
3.72316e-06
3.63588e-06
3.5452e-06
3.45096e-06
3.35283e-06
3.2509e-06
3.14534e-06
3.03639e-06
2.92458e-06
2.81029e-06
2.69407e-06
2.57654e-06
2.45823e-06
2.33984e-06
2.22185e-06
2.10491e-06
1.98964e-06
1.87648e-06
1.76601e-06
1.65857e-06
1.55464e-06
1.45449e-06
1.35841e-06
1.26659e-06
1.17917e-06
1.09619e-06
1.01772e-06
9.43687e-07
8.73977e-07
8.08233e-07
7.46102e-07
6.8737e-07
6.31903e-07
5.90915e-07
5.43435e-07
0.000537318
0.0456822
0.330718
0.954656
1.74402
2.4417
2.82805
2.75058
2.15454
1.11839
0.281155
1.48512
2.42765
2.75077
2.33469
1.40604
0.516129
0.0828983
0.00174411
0.000124723
0
0
0
9.30459e-08
1.37676e-06
4.22773e-06
4.29433e-06
3.65093e-06
3.44008e-06
3.41878e-06
3.37724e-06
3.3097e-06
3.2427e-06
3.1795e-06
3.1161e-06
3.05065e-06
2.98269e-06
2.9121e-06
2.83851e-06
2.7618e-06
2.68196e-06
2.59906e-06
2.51337e-06
2.42511e-06
2.33463e-06
2.24234e-06
2.14865e-06
2.05411e-06
1.95908e-06
1.86413e-06
1.76979e-06
1.67642e-06
1.58459e-06
1.49461e-06
1.40692e-06
1.32185e-06
1.23968e-06
1.16064e-06
1.0849e-06
1.01256e-06
9.43731e-07
8.78403e-07
8.16547e-07
7.5796e-07
7.02206e-07
6.49372e-07
0.000133103
0.000207164
0.0252803
0.224421
0.718124
1.39659
2.03878
2.44184
2.45896
2.02343
1.17851
0.1735
1.09348
1.99067
2.37953
2.11777
1.35666
0.547231
0.103955
0.0041034
0.000181789
0
0
0
2.8738e-08
3.71934e-07
2.97142e-06
3.60325e-06
3.07692e-06
2.79922e-06
2.76431e-06
2.74574e-06
2.70069e-06
2.65107e-06
2.60426e-06
2.55736e-06
2.50831e-06
2.45683e-06
2.40269e-06
2.34574e-06
2.28592e-06
2.22322e-06
2.15782e-06
2.0899e-06
2.01967e-06
1.94742e-06
1.87348e-06
1.79829e-06
1.7221e-06
1.64538e-06
1.56857e-06
1.492e-06
1.41614e-06
1.34129e-06
1.26783e-06
1.1961e-06
1.12636e-06
1.05887e-06
9.93783e-07
9.31241e-07
8.71372e-07
8.14212e-07
0
1.0565e-06
0.000822105
0.0101984
0.132151
0.500248
1.07416
1.67005
2.0951
2.20151
1.90982
1.2339
0.309585
0.755131
1.61054
2.05468
1.92697
1.31245
0.578716
0.128362
0.00792915
0.000258797
3.77782e-07
0
0
8.31307e-10
2.07324e-09
1.80432e-06
2.87099e-06
2.58833e-06
2.32133e-06
2.26318e-06
2.2499e-06
2.21888e-06
2.18129e-06
2.14542e-06
2.10966e-06
2.0722e-06
2.03262e-06
1.99073e-06
1.94633e-06
1.89934e-06
1.84981e-06
1.79787e-06
1.74365e-06
1.68737e-06
1.62927e-06
1.56971e-06
1.5089e-06
1.44719e-06
1.38497e-06
1.32251e-06
1.26021e-06
1.19834e-06
1.13724e-06
1.0772e-06
1.01849e-06
0
0
0
0.000668602
0.00268927
0.0657128
0.318281
0.785525
1.3319
1.77457
1.96137
1.79871
1.27495
0.479712
0.463376
1.27604
1.7642
1.7517
1.26807
0.607916
0.155102
0.013535
6.83277e-05
1.35302e-05
0
0
2.02564e-12
7.88296e-08
1.14735e-06
2.26791e-06
2.18144e-06
1.942e-06
1.87262e-06
1.86099e-06
1.83892e-06
1.80961e-06
1.78116e-06
1.75297e-06
1.72335e-06
1.69189e-06
1.65844e-06
1.62286e-06
1.5851e-06
1.54521e-06
1.50325e-06
1.45935e-06
1.41369e-06
1.36654e-06
1.31807e-06
1.26854e-06
6.31655e-08
2.11172e-12
0
0
0.000335807
0.000298977
0.026156
0.180979
0.539169
1.02509
1.47422
1.72893
1.68114
1.29533
0.627789
0.217484
0.979789
1.50023
1.58606
1.22033
0.632773
0.183722
0.020744
0.00031179
4.03165e-05
0
0
0
5.01745e-08
7.16582e-07
1.80305e-06
1.84775e-06
1.63437e-06
1.55783e-06
1.54815e-06
1.53304e-06
1.50948e-06
1.48615e-06
)
;

boundaryField
{
    inlet
    {
        type            calculated;
        value           nonuniform List<scalar> 
11
(
5.59369e-06
5.30211e-06
5.42935e-06
5.54741e-06
5.65204e-06
5.74502e-06
5.83217e-06
5.91984e-06
6.02365e-06
5.78949e-06
6.09947e-06
)
;
    }
    outlet
    {
        type            calculated;
        value           nonuniform List<scalar> 0();
    }
    walls
    {
        type            calculated;
        value           uniform 0;
    }
    frontAndBack
    {
        type            empty;
    }
    procBoundary6to2
    {
        type            processor;
        value           nonuniform List<scalar> 
13
(
10.4372
6.28124
3.96571
2.38916
1.18177
0.397615
0.0573179
0.00059526
0.000262613
0
0
5.50589e-08
8.83115e-07
)
;
    }
    procBoundary6to3
    {
        type            processor;
        value           uniform 1.17565e-06;
    }
    procBoundary6to5
    {
        type            processor;
        value           nonuniform List<scalar> 
86
(
29.3093
11.0154
14.131
12.6337
5.00529
0.19833
0.0217574
0.00314308
0
0
3.27374e-06
5.33056e-05
7.83321e-05
6.74771e-05
6.01517e-05
5.95385e-05
5.97901e-05
5.86085e-05
5.64502e-05
5.41393e-05
5.19903e-05
4.99698e-05
4.79708e-05
4.59329e-05
4.385e-05
4.17361e-05
3.96069e-05
3.7478e-05
3.53608e-05
3.32638e-05
3.1198e-05
2.91738e-05
2.72002e-05
2.72002e-05
2.66018e-05
2.46292e-05
2.2738e-05
2.09338e-05
1.92216e-05
1.76045e-05
1.60846e-05
1.46626e-05
1.33381e-05
1.21095e-05
1.09744e-05
9.92962e-06
9.92962e-06
9.20902e-06
8.29994e-06
7.47274e-06
6.72201e-06
6.04229e-06
5.42813e-06
4.87431e-06
4.37573e-06
3.92748e-06
3.92748e-06
3.57368e-06
3.20636e-06
2.87749e-06
2.58329e-06
2.32025e-06
2.08494e-06
1.87391e-06
1.87391e-06
1.69946e-06
1.52648e-06
1.37113e-06
1.23254e-06
1.10875e-06
1.00212e-06
9.16934e-07
9.16934e-07
8.51863e-07
7.87489e-07
7.20489e-07
6.65582e-07
5.90166e-07
5.6555e-07
4.57537e-07
5.278e-07
3.96845e-07
3.96845e-07
6.43059e-07
7.43606e-07
9.60314e-07
)
;
    }
    procBoundary6to7
    {
        type            processor;
        value           nonuniform List<scalar> 
91
(
9.394e-07
9.394e-07
7.13833e-07
7.13833e-07
6.92248e-07
6.92248e-07
2.88853e-07
2.58103e-07
2.88853e-07
4.73849e-07
3.67357e-07
2.58103e-07
4.31546e-07
5.18163e-07
4.54838e-07
3.67357e-07
4.54824e-07
5.98667e-07
5.61753e-07
5.18163e-07
5.17129e-07
7.59782e-07
7.0802e-07
6.58403e-07
5.98667e-07
6.11305e-07
9.61322e-07
9.0589e-07
8.5231e-07
8.00718e-07
7.59782e-07
7.51185e-07
1.21829e-06
1.16754e-06
1.11662e-06
1.06575e-06
1.01525e-06
9.65356e-07
9.61322e-07
9.16309e-07
1.46348e-06
1.43972e-06
1.4143e-06
1.38713e-06
1.35813e-06
1.32726e-06
1.29459e-06
1.26019e-06
1.22419e-06
1.18677e-06
1.1481e-06
1.21829e-06
1.10837e-06
2.67702e-08
1.6149e-09
0
0
3.8944e-05
8.02947e-05
0.00694182
0.0878534
0.339621
0.751405
1.19094
1.49873
1.55156
1.29161
0.745755
0.0792636
0.717404
1.25796
1.42647
1.16709
0.65213
0.212712
0.0299153
0.00029566
3.35454e-05
0
0
0
2.82868e-08
3.86516e-07
1.41078e-06
1.57393e-06
1.37889e-06
1.29236e-06
1.28586e-06
1.27966e-06
1.46348e-06
1.26239e-06
)
;
    }
}


// ************************************************************************* //
