/*--------------------------------*- C++ -*----------------------------------*\
| =========                 |                                                 |
| \\      /  F ield         | OpenFOAM: The Open Source CFD Toolbox           |
|  \\    /   O peration     | Version:  2506                                  |
|   \\  /    A nd           | Website:  www.openfoam.com                      |
|    \\/     M anipulation  |                                                 |
\*---------------------------------------------------------------------------*/
FoamFile
{
    version     2.0;
    format      ascii;
    arch        "LSB;label=32;scalar=64";
    class       volScalarField;
    location    "400";
    object      turbulenceProperties:nuEff;
}
// * * * * * * * * * * * * * * * * * * * * * * * * * * * * * * * * * * * * * //

dimensions      [0 2 -1 0 0 0 0];

internalField   nonuniform List<scalar> 
1340
(
0.0869211
0.0784574
0.0683266
0.0332653
0.153853
0.148541
0.13952
0.139933
0.206348
0.207591
0.201498
0.210294
0.215384
0.231967
0.239163
0.25526
0.175091
0.217203
0.24806
0.278285
0.0933298
0.16043
0.224005
0.278335
0.0217662
0.0782605
0.16622
0.25233
0.00543556
0.016178
0.0904858
0.200094
1e-05
0.00443824
0.0310048
0.132963
1e-05
1e-05
0.00872561
0.0716875
1e-05
1e-05
0.000690803
0.0326461
1.00105e-05
1e-05
0.000288199
0.0129145
1.25123e-05
1e-05
8.1281e-05
0.00428741
2.02546e-05
1e-05
1.1236e-05
0.00109286
1.92457e-05
1.26525e-05
1.00003e-05
6.8224e-05
1.64552e-05
1.97228e-05
1.00001e-05
1.04691e-05
1.52689e-05
2.21124e-05
1.00004e-05
1e-05
1.53099e-05
1.94791e-05
1.16076e-05
1.00005e-05
1.57434e-05
1.69292e-05
1.68388e-05
1.00816e-05
1.60767e-05
1.58758e-05
1.8492e-05
1.16772e-05
1.6195e-05
1.57321e-05
1.75775e-05
1.45907e-05
1.61856e-05
1.58915e-05
1.66168e-05
1.61468e-05
1.61462e-05
1.60441e-05
1.61714e-05
1.64151e-05
1.61195e-05
1.61138e-05
1.60617e-05
1.62852e-05
1.61095e-05
1.61273e-05
1.60739e-05
1.61649e-05
1.61082e-05
1.61216e-05
1.61005e-05
1.61177e-05
1.61092e-05
1.61151e-05
1.61132e-05
1.61108e-05
1.61098e-05
1.61121e-05
1.61153e-05
1.61143e-05
1.61098e-05
1.61112e-05
1.61139e-05
1.61167e-05
1.61096e-05
1.61111e-05
1.61125e-05
1.61168e-05
1.61093e-05
1.61109e-05
1.61117e-05
1.6116e-05
1.61092e-05
1.61108e-05
1.61114e-05
1.61152e-05
1.61091e-05
1.61106e-05
1.61111e-05
1.61146e-05
1.61083e-05
1.61091e-05
1.61104e-05
1.6111e-05
1.61142e-05
1.61084e-05
1.61091e-05
1.61104e-05
1.61108e-05
1.61138e-05
1.61085e-05
1.61091e-05
1.61103e-05
1.61107e-05
1.61136e-05
1.61086e-05
1.61092e-05
1.61103e-05
1.61107e-05
1.61133e-05
1.61087e-05
1.61093e-05
1.61104e-05
1.61107e-05
1.61131e-05
1.61089e-05
1.61094e-05
1.61104e-05
1.61107e-05
1.6113e-05
1.61091e-05
1.61096e-05
1.61105e-05
1.61108e-05
1.6113e-05
1.61093e-05
1.61098e-05
1.61107e-05
1.61109e-05
1.61129e-05
1.61095e-05
1.611e-05
1.61108e-05
1.61111e-05
1.6113e-05
1.61097e-05
1.61101e-05
1.6111e-05
1.61112e-05
1.6113e-05
1.61099e-05
1.61103e-05
1.61111e-05
1.61114e-05
1.61131e-05
1.611e-05
1.61105e-05
1.61113e-05
1.61116e-05
1.61132e-05
1.61097e-05
1.61102e-05
1.61107e-05
1.61114e-05
1.61118e-05
1.61133e-05
1.61098e-05
1.61103e-05
1.61108e-05
1.61116e-05
1.61119e-05
1.61134e-05
1.61099e-05
1.61104e-05
1.61109e-05
1.61117e-05
1.6112e-05
1.61135e-05
1.61099e-05
1.61105e-05
1.6111e-05
1.61117e-05
1.61121e-05
1.61135e-05
1.61099e-05
1.61105e-05
1.6111e-05
1.61118e-05
1.61122e-05
1.61136e-05
1.61098e-05
1.61104e-05
1.6111e-05
1.61117e-05
1.61122e-05
1.61135e-05
1.61097e-05
1.61103e-05
1.61108e-05
1.61116e-05
1.61122e-05
1.61135e-05
1.61094e-05
1.611e-05
1.61107e-05
1.61114e-05
1.6112e-05
1.61133e-05
1.61091e-05
1.61097e-05
1.61104e-05
1.61112e-05
1.61118e-05
1.61131e-05
1.6108e-05
1.61086e-05
1.61093e-05
1.611e-05
1.61108e-05
1.61115e-05
1.61127e-05
1.61074e-05
1.61081e-05
1.61088e-05
1.61095e-05
1.61103e-05
1.61111e-05
1.61123e-05
1.61068e-05
1.61074e-05
1.61081e-05
1.61089e-05
1.61097e-05
1.61105e-05
1.61118e-05
1.61059e-05
1.61066e-05
1.61073e-05
1.61081e-05
1.6109e-05
1.61098e-05
1.61111e-05
1.6105e-05
1.61057e-05
1.61065e-05
1.61072e-05
1.61082e-05
1.6109e-05
1.61103e-05
1.61039e-05
1.61047e-05
1.61054e-05
1.61062e-05
1.61072e-05
1.61081e-05
1.61093e-05
1.61026e-05
1.61034e-05
1.61042e-05
1.6105e-05
1.6106e-05
1.6107e-05
1.61083e-05
1.61001e-05
1.61009e-05
1.61017e-05
1.61026e-05
1.61035e-05
1.61045e-05
1.61056e-05
1.61069e-05
1.60979e-05
1.60987e-05
1.60996e-05
1.61005e-05
1.61015e-05
1.61026e-05
1.61038e-05
1.61052e-05
1.60953e-05
1.60962e-05
1.6097e-05
1.6098e-05
1.6099e-05
1.61002e-05
1.61015e-05
1.6103e-05
1.60927e-05
1.60935e-05
1.60943e-05
1.60953e-05
1.60963e-05
1.60974e-05
1.60987e-05
1.61003e-05
1.609e-05
1.60908e-05
1.60916e-05
1.60924e-05
1.60934e-05
1.60945e-05
1.60957e-05
1.60972e-05
1.60874e-05
1.60881e-05
1.60889e-05
1.60897e-05
1.60906e-05
1.60917e-05
1.60928e-05
1.60942e-05
1.60849e-05
1.60857e-05
1.60864e-05
1.60873e-05
1.60882e-05
1.60893e-05
1.60904e-05
1.60917e-05
1.60817e-05
1.60823e-05
1.60831e-05
1.60839e-05
1.60847e-05
1.60857e-05
1.60867e-05
1.60879e-05
1.60892e-05
1.6079e-05
1.60796e-05
1.60803e-05
1.6081e-05
1.60818e-05
1.60827e-05
1.60837e-05
1.60848e-05
1.60862e-05
1.60763e-05
1.60768e-05
1.60774e-05
1.6078e-05
1.60787e-05
1.60794e-05
1.60803e-05
1.60814e-05
1.60826e-05
1.60735e-05
1.6074e-05
1.60745e-05
1.6075e-05
1.60756e-05
1.60762e-05
1.6077e-05
1.60779e-05
1.6079e-05
1.60712e-05
1.60714e-05
1.60717e-05
1.6072e-05
1.60724e-05
1.60728e-05
1.60734e-05
1.60741e-05
1.6075e-05
1.60714e-05
1.60713e-05
1.60712e-05
1.60711e-05
1.60711e-05
1.60711e-05
1.60713e-05
1.60715e-05
1.6072e-05
1.60742e-05
1.6074e-05
1.60739e-05
1.60737e-05
1.60735e-05
1.60732e-05
1.6073e-05
1.60728e-05
1.60727e-05
1.60775e-05
1.60774e-05
1.60772e-05
1.60769e-05
1.60766e-05
1.60763e-05
1.60759e-05
1.60755e-05
1.60749e-05
1.60817e-05
1.60818e-05
1.60818e-05
1.60819e-05
1.6082e-05
1.6082e-05
1.6082e-05
1.6082e-05
1.60819e-05
1.60849e-05
1.60849e-05
1.60849e-05
1.60847e-05
1.60846e-05
1.60843e-05
1.60841e-05
1.60838e-05
1.60837e-05
1.60836e-05
1.60905e-05
1.60914e-05
1.60924e-05
1.60935e-05
1.60945e-05
1.60956e-05
1.60968e-05
1.60979e-05
1.60994e-05
1.61007e-05
1.61e-05
1.61002e-05
1.61003e-05
1.61004e-05
1.61004e-05
1.61004e-05
1.61004e-05
1.61007e-05
1.61012e-05
1.61016e-05
0.172369
0.214974
0.255373
0.300008
0.326411
0.32942
0.307357
0.258867
0.186659
0.105753
0.0436682
0.015428
0.0047985
0.00111382
3.82409e-05
1.01286e-05
1e-05
1e-05
1.00087e-05
1.11255e-05
1.41735e-05
1.60944e-05
1.64857e-05
1.63431e-05
1.61908e-05
1.61259e-05
1.61136e-05
1.6117e-05
1.61201e-05
1.61204e-05
1.61194e-05
1.61183e-05
1.61175e-05
1.61168e-05
1.61162e-05
1.61157e-05
1.61153e-05
1.61149e-05
1.61146e-05
1.61144e-05
1.61142e-05
1.61141e-05
1.6114e-05
1.61139e-05
1.61139e-05
1.61139e-05
1.61139e-05
1.61139e-05
1.61139e-05
1.61139e-05
1.61138e-05
1.61138e-05
1.61137e-05
1.61135e-05
1.61132e-05
1.61128e-05
1.61123e-05
1.61117e-05
1.61109e-05
1.611e-05
1.61089e-05
1.61076e-05
1.6106e-05
1.61038e-05
1.61011e-05
1.6098e-05
1.60949e-05
1.60924e-05
1.60899e-05
1.60868e-05
1.60832e-05
1.60795e-05
1.60755e-05
1.60721e-05
1.60726e-05
1.60748e-05
1.60818e-05
1.60835e-05
1.61016e-05
1.61018e-05
0.213626
0.258521
0.288553
0.317002
0.345779
0.357768
0.34542
0.305937
0.239521
0.153106
0.0688662
0.0208233
0.0056464
0.00140206
6.94889e-05
1.04625e-05
1e-05
1e-05
1.0002e-05
1.08345e-05
1.38902e-05
1.60253e-05
1.65118e-05
1.63756e-05
1.62071e-05
1.61309e-05
1.61147e-05
1.61176e-05
1.6121e-05
1.61214e-05
1.61203e-05
1.61191e-05
1.6118e-05
1.61173e-05
1.61167e-05
1.61162e-05
1.61158e-05
1.61154e-05
1.61151e-05
1.61149e-05
1.61147e-05
1.61145e-05
1.61144e-05
1.61143e-05
1.61143e-05
1.61143e-05
1.61143e-05
1.61143e-05
1.61143e-05
1.61142e-05
1.61142e-05
1.61142e-05
1.61141e-05
1.61139e-05
1.61137e-05
1.61133e-05
1.61128e-05
1.61122e-05
1.61114e-05
1.61105e-05
1.61094e-05
1.61082e-05
1.61065e-05
1.61043e-05
1.61016e-05
1.60985e-05
1.60954e-05
1.60928e-05
1.60903e-05
1.60873e-05
1.60836e-05
1.60799e-05
1.60757e-05
1.60723e-05
1.60725e-05
1.60747e-05
1.60817e-05
1.60834e-05
1.61021e-05
0.217813
0.269167
0.303814
0.326799
0.347934
0.366413
0.368575
0.346332
0.296198
0.219115
0.124843
0.0439086
0.00721575
0.000805784
1e-05
1e-05
1e-05
1e-05
1e-05
1.04215e-05
1.32872e-05
1.58745e-05
1.65536e-05
1.64248e-05
1.62315e-05
1.61382e-05
1.61151e-05
1.61168e-05
1.61209e-05
1.61219e-05
1.61209e-05
1.61196e-05
1.61186e-05
1.61179e-05
1.61173e-05
1.61168e-05
1.61163e-05
1.6116e-05
1.61156e-05
1.61154e-05
1.61152e-05
1.6115e-05
1.61149e-05
1.61148e-05
1.61148e-05
1.61148e-05
1.61148e-05
1.61148e-05
1.61148e-05
1.61147e-05
1.61147e-05
1.61147e-05
1.61146e-05
1.61145e-05
1.61142e-05
1.61138e-05
1.61134e-05
1.61127e-05
1.6112e-05
1.61111e-05
1.611e-05
1.61087e-05
1.61071e-05
1.61049e-05
1.61022e-05
1.60991e-05
1.60959e-05
1.60933e-05
1.60908e-05
1.60877e-05
1.6084e-05
1.60802e-05
1.6076e-05
1.60724e-05
1.60725e-05
1.60747e-05
1.60816e-05
1.60834e-05
0.202682
0.258551
0.300437
0.328268
0.346558
0.362743
0.374844
0.371403
0.344314
0.289441
0.207455
0.110619
0.0326361
0.000704413
0.000198006
1e-05
1e-05
1e-05
1.00004e-05
1.01648e-05
1.23371e-05
1.53701e-05
1.65376e-05
1.65164e-05
1.62805e-05
1.61503e-05
1.61153e-05
1.61155e-05
1.61204e-05
1.61223e-05
1.61217e-05
1.61204e-05
1.61193e-05
1.61185e-05
1.61179e-05
1.61174e-05
1.6117e-05
1.61166e-05
1.61163e-05
1.6116e-05
1.61158e-05
1.61156e-05
1.61155e-05
1.61154e-05
1.61154e-05
1.61154e-05
1.61153e-05
1.61153e-05
1.61153e-05
1.61153e-05
1.61153e-05
1.61153e-05
1.61152e-05
1.61151e-05
1.61148e-05
1.61144e-05
1.6114e-05
1.61133e-05
1.61126e-05
1.61117e-05
1.61106e-05
1.61093e-05
1.61077e-05
1.61055e-05
1.61028e-05
1.60996e-05
1.60965e-05
1.60938e-05
1.60913e-05
1.60881e-05
1.60844e-05
1.60805e-05
1.60764e-05
1.60725e-05
1.60724e-05
1.60747e-05
1.60814e-05
0.172738
0.232738
0.281692
0.317752
0.341564
0.356964
0.36991
0.378344
0.372153
0.34325
0.286861
0.203296
0.106182
0.027848
0.00148761
0.000409514
1e-05
1e-05
1e-05
1.0003e-05
1.09619e-05
1.48156e-05
1.65222e-05
1.65941e-05
1.63597e-05
1.61839e-05
1.61174e-05
1.61122e-05
1.61194e-05
1.61226e-05
1.61224e-05
1.61213e-05
1.61201e-05
1.61193e-05
1.61187e-05
1.61182e-05
1.61177e-05
1.61173e-05
1.6117e-05
1.61167e-05
1.61164e-05
1.61163e-05
1.61161e-05
1.6116e-05
1.6116e-05
1.6116e-05
1.6116e-05
1.6116e-05
1.61159e-05
1.61159e-05
1.61159e-05
1.61159e-05
1.61158e-05
1.61157e-05
1.61154e-05
1.61151e-05
1.61146e-05
1.6114e-05
1.61132e-05
1.61123e-05
1.61112e-05
1.611e-05
1.61084e-05
1.61062e-05
1.61035e-05
1.61002e-05
1.6097e-05
1.60943e-05
1.60918e-05
1.60886e-05
1.60849e-05
1.60809e-05
1.60767e-05
1.60727e-05
1.60724e-05
1.60746e-05
0.130155
0.1937
0.249344
0.294189
0.327112
0.34884
0.36263
0.373441
0.379833
0.372573
0.343531
0.287361
0.204137
0.106475
0.0305594
0.0024715
0.000595347
1e-05
1e-05
1e-05
1.00062e-05
1.17482e-05
1.65171e-05
1.69955e-05
1.64564e-05
1.62174e-05
1.61362e-05
1.61112e-05
1.61151e-05
1.61224e-05
1.61238e-05
1.61223e-05
1.6121e-05
1.61201e-05
1.61195e-05
1.6119e-05
1.61185e-05
1.61181e-05
1.61177e-05
1.61174e-05
1.61171e-05
1.6117e-05
1.61168e-05
1.61167e-05
1.61167e-05
1.61166e-05
1.61166e-05
1.61166e-05
1.61166e-05
1.61166e-05
1.61165e-05
1.61165e-05
1.61165e-05
1.61163e-05
1.61161e-05
1.61157e-05
1.61153e-05
1.61146e-05
1.61139e-05
1.6113e-05
1.61119e-05
1.61106e-05
1.6109e-05
1.61069e-05
1.61041e-05
1.61009e-05
1.60976e-05
1.60949e-05
1.60923e-05
1.60891e-05
1.60854e-05
1.60813e-05
1.60771e-05
1.60729e-05
0.0788604
0.142605
0.20391
0.257115
0.299987
0.331611
0.352585
0.365643
0.375012
0.380342
0.37306
0.344943
0.29017
0.208031
0.111234
0.0360359
0.000766731
0.000210708
1e-05
1e-05
1e-05
1.00091e-05
1.24262e-05
1.75874e-05
1.7264e-05
1.62947e-05
1.60993e-05
1.61175e-05
1.61186e-05
1.61179e-05
1.61224e-05
1.61238e-05
1.61224e-05
1.61211e-05
1.61203e-05
1.61198e-05
1.61193e-05
1.61189e-05
1.61185e-05
1.61181e-05
1.61179e-05
1.61177e-05
1.61175e-05
1.61174e-05
1.61173e-05
1.61173e-05
1.61173e-05
1.61173e-05
1.61173e-05
1.61172e-05
1.61172e-05
1.61172e-05
1.61172e-05
1.6117e-05
1.61168e-05
1.61165e-05
1.6116e-05
1.61154e-05
1.61146e-05
1.61137e-05
1.61126e-05
1.61114e-05
1.61098e-05
1.61076e-05
1.61049e-05
1.61016e-05
1.60982e-05
1.60955e-05
1.60929e-05
1.60897e-05
1.60859e-05
1.60817e-05
0.0299913
0.0828826
0.145822
0.206082
0.25852
0.301037
0.332708
0.35392
0.366912
0.375334
0.380242
0.373635
0.347175
0.294562
0.214408
0.119886
0.0403895
0.00137742
0.000420063
1e-05
1e-05
1e-05
1.00077e-05
1.1931e-05
1.80005e-05
1.75924e-05
1.62122e-05
1.59926e-05
1.61064e-05
1.61386e-05
1.61258e-05
1.61216e-05
1.61228e-05
1.61225e-05
1.61214e-05
1.61207e-05
1.61202e-05
1.61197e-05
1.61193e-05
1.6119e-05
1.61187e-05
1.61184e-05
1.61183e-05
1.61181e-05
1.61181e-05
1.6118e-05
1.6118e-05
1.6118e-05
1.6118e-05
1.61179e-05
1.61179e-05
1.61179e-05
1.61179e-05
1.61177e-05
1.61175e-05
1.61172e-05
1.61167e-05
1.61161e-05
1.61153e-05
1.61144e-05
1.61134e-05
1.61121e-05
1.61105e-05
1.61084e-05
1.61056e-05
1.61023e-05
1.60989e-05
1.60961e-05
1.60935e-05
0.00322792
0.0283283
0.0794347
0.141541
0.201886
0.254903
0.298314
0.331083
0.353331
0.366811
0.374666
0.379561
0.374106
0.349846
0.299965
0.222961
0.129904
0.0472962
0.0038914
0.00109892
1e-05
1e-05
1e-05
1.00034e-05
1.08076e-05
1.75654e-05
1.81536e-05
1.62862e-05
1.5875e-05
1.60522e-05
1.61448e-05
1.61363e-05
1.61233e-05
1.6122e-05
1.61224e-05
1.61219e-05
1.61212e-05
1.61206e-05
1.61202e-05
1.61198e-05
1.61195e-05
1.61192e-05
1.61191e-05
1.61189e-05
1.61188e-05
1.61188e-05
1.61187e-05
1.61187e-05
1.61187e-05
1.61187e-05
1.61187e-05
1.61187e-05
1.61186e-05
1.61185e-05
1.61183e-05
1.6118e-05
1.61175e-05
1.61169e-05
1.61161e-05
1.61152e-05
1.61141e-05
1.61129e-05
1.61113e-05
1.61092e-05
1.61064e-05
1.61031e-05
0.00043515
0.00170072
0.0229304
0.0700812
0.131037
0.192233
0.246894
0.292236
0.326992
0.350997
0.36556
0.373575
0.378547
0.374414
0.352666
0.306078
0.232527
0.140772
0.0558075
0.00779201
0.00212617
1e-05
1e-05
1e-05
1.00005e-05
1.00884e-05
1.57522e-05
1.8714e-05
1.67658e-05
1.59031e-05
1.59941e-05
1.61299e-05
1.6141e-05
1.61257e-05
1.61219e-05
1.61224e-05
1.61222e-05
1.61217e-05
1.61212e-05
1.61208e-05
1.61204e-05
1.61201e-05
1.61199e-05
1.61197e-05
1.61196e-05
1.61196e-05
1.61195e-05
1.61195e-05
1.61195e-05
1.61195e-05
1.61194e-05
1.61194e-05
1.61194e-05
1.61193e-05
1.61191e-05
1.61188e-05
1.61183e-05
1.61177e-05
1.6117e-05
1.6116e-05
1.6115e-05
1.61137e-05
1e-05
1.02069e-05
0.00398044
0.0160013
0.0571384
0.115621
0.17774
0.23478
0.28292
0.320484
0.347007
0.363441
0.372577
0.377589
0.374711
0.355571
0.312563
0.242496
0.152389
0.0655606
0.0129016
0.00346097
1.06201e-05
1e-05
1e-05
1e-05
1e-05
1.31975e-05
1.82646e-05
1.71067e-05
1.60317e-05
1.59742e-05
1.61121e-05
1.61417e-05
1.61282e-05
1.61228e-05
1.6123e-05
1.61228e-05
1.61222e-05
1.61217e-05
1.61213e-05
1.6121e-05
1.61208e-05
1.61206e-05
1.61205e-05
1.61204e-05
1.61204e-05
1.61203e-05
1.61203e-05
1.61203e-05
1.61203e-05
1.61202e-05
1.61202e-05
1.61201e-05
1.61199e-05
1.61196e-05
1.61192e-05
1e-05
1e-05
1e-05
0.00253004
0.0100949
0.0426974
0.0968315
0.159102
0.218764
0.270364
0.311505
0.341334
0.360446
0.37118
0.37643
0.374846
0.358398
0.319046
0.252595
0.164472
0.0762269
0.0191744
0.000831816
0.000268477
1e-05
1e-05
1e-05
1.00079e-05
1.1894e-05
1.75899e-05
1.7367e-05
1.61554e-05
1.5967e-05
1.60961e-05
1.61399e-05
1.61285e-05
1.61224e-05
1.61233e-05
1.61236e-05
1.6123e-05
1.61224e-05
1.6122e-05
1.61217e-05
1.61215e-05
1.61214e-05
1.61213e-05
1.61212e-05
1.61212e-05
1.61212e-05
1.61212e-05
1.00145e-05
1e-05
1e-05
1e-05
0.00121078
0.00470589
0.0288075
0.0763432
0.137253
0.199215
0.254655
0.300005
0.333823
0.356241
0.369044
0.374802
0.374594
0.3609
0.325279
0.262593
0.176738
0.0878348
0.026059
0.00283983
0.000708488
1e-05
1e-05
1e-05
1.00044e-05
1.1066e-05
1.70135e-05
1.76618e-05
1.63015e-05
1.5966e-05
1.60887e-05
1.61485e-05
1.61346e-05
1.6123e-05
)
;

boundaryField
{
    inlet
    {
        type            calculated;
        value           nonuniform List<scalar> 
11
(
1.61e-05
1.61002e-05
1.61003e-05
1.61004e-05
1.61004e-05
1.61004e-05
1.61004e-05
1.61007e-05
1.61012e-05
1.61016e-05
1.61018e-05
)
;
    }
    outlet
    {
        type            calculated;
        value           nonuniform List<scalar> 0();
    }
    walls
    {
        type            calculated;
        value           nonuniform List<scalar> 4(0.00177414 0.00157471 0.00135141 0.000616101);
    }
    frontAndBack
    {
        type            empty;
    }
    procBoundary6to2
    {
        type            processor;
        value           nonuniform List<scalar> 
13
(
0.126592
0.14987
0.151252
0.135178
0.104419
0.0649845
0.0258367
0.00298821
0.000815729
1e-05
1e-05
1.00117e-05
1.33493e-05
)
;
    }
    procBoundary6to3
    {
        type            processor;
        value           uniform 1.5912e-05;
    }
    procBoundary6to5
    {
        type            processor;
        value           nonuniform List<scalar> 
86
(
0.0928036
0.159355
0.203465
0.193246
0.124161
0.0381148
0.00169635
0.000397816
1e-05
1e-05
1.00157e-05
1.39886e-05
1.85148e-05
1.66932e-05
1.56397e-05
1.58208e-05
1.61935e-05
1.63127e-05
1.62448e-05
1.61524e-05
1.6104e-05
1.60944e-05
1.61003e-05
1.61069e-05
1.61098e-05
1.61102e-05
1.61096e-05
1.6109e-05
1.61086e-05
1.61084e-05
1.61083e-05
1.61083e-05
1.61083e-05
1.61083e-05
1.61076e-05
1.61077e-05
1.61078e-05
1.6108e-05
1.61082e-05
1.61084e-05
1.61086e-05
1.61088e-05
1.6109e-05
1.61092e-05
1.61094e-05
1.61096e-05
1.61096e-05
1.61093e-05
1.61094e-05
1.61095e-05
1.61095e-05
1.61094e-05
1.61093e-05
1.61091e-05
1.61089e-05
1.61085e-05
1.61085e-05
1.61075e-05
1.61068e-05
1.61061e-05
1.61053e-05
1.61044e-05
1.61032e-05
1.61019e-05
1.61019e-05
1.60993e-05
1.60971e-05
1.60946e-05
1.6092e-05
1.60893e-05
1.60867e-05
1.60842e-05
1.60842e-05
1.6081e-05
1.60784e-05
1.60758e-05
1.60732e-05
1.6071e-05
1.60715e-05
1.60743e-05
1.60776e-05
1.60816e-05
1.60816e-05
1.60846e-05
1.60898e-05
1.60997e-05
)
;
    }
    procBoundary6to7
    {
        type            processor;
        value           nonuniform List<scalar> 
91
(
1.6102e-05
1.6102e-05
1.61027e-05
1.61027e-05
1.60833e-05
1.60833e-05
1.60813e-05
1.60723e-05
1.60813e-05
1.60746e-05
1.60774e-05
1.60723e-05
1.60731e-05
1.60902e-05
1.60864e-05
1.60774e-05
1.60822e-05
1.60996e-05
1.60967e-05
1.60902e-05
1.60941e-05
1.61121e-05
1.611e-05
1.61073e-05
1.60996e-05
1.61039e-05
1.61186e-05
1.61178e-05
1.61169e-05
1.61158e-05
1.61121e-05
1.61146e-05
1.61211e-05
1.61211e-05
1.61211e-05
1.6121e-05
1.61208e-05
1.61205e-05
1.61186e-05
1.61201e-05
1.61227e-05
1.61235e-05
1.61233e-05
1.6123e-05
1.61228e-05
1.61225e-05
1.61223e-05
1.61222e-05
1.61221e-05
1.61221e-05
1.61221e-05
1.61211e-05
1.61221e-05
1.00073e-05
1e-05
1e-05
1e-05
0.000152285
0.000465479
0.0161281
0.055224
0.112705
0.176135
0.235562
0.285674
0.324134
0.350478
0.365879
0.372687
0.373821
0.362828
0.330978
0.272191
0.189059
0.0999541
0.0339373
0.00197427
0.000553385
1e-05
1e-05
1e-05
1.00019e-05
1.04404e-05
1.62553e-05
1.804e-05
1.6464e-05
1.59088e-05
1.60335e-05
1.61418e-05
1.61227e-05
1.61419e-05
)
;
    }
}


// ************************************************************************* //
