/*--------------------------------*- C++ -*----------------------------------*\
| =========                 |                                                 |
| \\      /  F ield         | OpenFOAM: The Open Source CFD Toolbox           |
|  \\    /   O peration     | Version:  2506                                  |
|   \\  /    A nd           | Website:  www.openfoam.com                      |
|    \\/     M anipulation  |                                                 |
\*---------------------------------------------------------------------------*/
FoamFile
{
    version     2.0;
    format      ascii;
    arch        "LSB;label=32;scalar=64";
    class       volScalarField;
    location    "400";
    object      turbulenceProperties:I;
}
// * * * * * * * * * * * * * * * * * * * * * * * * * * * * * * * * * * * * * //

dimensions      [0 0 0 0 0 0 0];

internalField   nonuniform List<scalar> 
1340
(
0.299229
0.307513
0.318105
0.401452
0.145252
0.154567
0.167095
0.320413
0.137365
0.14491
0.152888
0.257533
0.118675
0.130895
0.142679
0.216768
0.0834173
0.105617
0.12545
0.183971
0.0366946
0.0678658
0.0992789
0.15278
0.00956009
0.0260598
0.0646194
0.119306
0.00640696
0.00893156
0.0293945
0.0831574
0
0.00513785
0.0108875
0.0491568
0
0
0.00652477
0.0242696
0
0
0.00152543
0.0121906
4.54242e-05
0
0.000869348
0.00719002
0.000177842
6.99016e-06
0.000493231
0.00413806
0.000253184
8.28224e-06
0.00015828
0.00206461
0.00024323
0.000180245
1.84429e-05
0.000531674
0.000218542
0.000248853
1.19086e-05
0.000139074
0.000204508
0.000260075
1.92024e-05
6.18426e-07
0.000201923
0.000239703
0.000153554
2.27751e-05
0.000202845
0.000216806
0.000218165
7.83963e-05
0.000202407
0.00020371
0.000225847
0.00016108
0.000199817
0.000198287
0.000214016
0.000200226
0.000195981
0.00019541
0.000201436
0.000207491
0.00019175
0.000192258
0.000192709
0.000201581
0.00018748
0.00018823
0.000186667
0.000192695
0.000183214
0.000183614
0.000181554
0.000184291
0.00017888
0.000178742
0.000176489
0.000176821
0.00017444
0.000173788
0.000171278
0.000169973
0.00016989
0.000168793
0.000165971
0.000163499
0.000165229
0.000163755
0.00016063
0.00015728
0.000160482
0.000158688
0.000155308
0.000151292
0.000155668
0.0001536
0.00015001
0.000145519
0.000150794
0.00014851
0.000144767
0.000139946
0.000145882
0.00014342
0.000139578
0.00013457
0.000142998
0.000140947
0.000138357
0.000134455
0.000129368
0.000138097
0.000136003
0.000133332
0.000129416
0.000124334
0.00013318
0.000131072
0.000128356
0.000124469
0.00011946
0.000128265
0.000126165
0.00012344
0.000119619
0.000114738
0.000123373
0.0001213
0.000118598
0.000114874
0.000110161
0.000118519
0.000116492
0.000113841
0.000110242
0.000105725
0.00011372
0.000111754
0.000109175
0.000105726
0.000101426
0.000108993
0.000107099
0.000104613
0.000101329
9.72588e-05
0.00010435
0.000102539
0.00010016
9.70546e-05
9.3221e-05
9.98053e-05
9.80836e-05
9.58229e-05
9.29039e-05
8.93102e-05
9.53701e-05
9.37434e-05
9.16072e-05
8.88799e-05
8.5522e-05
9.10537e-05
8.95253e-05
8.75184e-05
8.49826e-05
8.18563e-05
8.79659e-05
8.68653e-05
8.54348e-05
8.35591e-05
8.12118e-05
7.83109e-05
8.38381e-05
8.28114e-05
8.14787e-05
7.97329e-05
7.75689e-05
7.48839e-05
7.9852e-05
7.88967e-05
7.76598e-05
7.60414e-05
7.40538e-05
7.15742e-05
7.60119e-05
7.51257e-05
7.39812e-05
7.24856e-05
7.06654e-05
6.83804e-05
7.23209e-05
7.15001e-05
7.04441e-05
6.90664e-05
6.74034e-05
6.5302e-05
6.87807e-05
6.80221e-05
6.70494e-05
6.5783e-05
6.42668e-05
6.23375e-05
6.5391e-05
6.46909e-05
6.3797e-05
6.26351e-05
6.12547e-05
5.94856e-05
6.21517e-05
6.15061e-05
6.06851e-05
5.96208e-05
5.83655e-05
5.67455e-05
5.90607e-05
5.84655e-05
5.77125e-05
5.67384e-05
5.55973e-05
5.41155e-05
5.65419e-05
5.61152e-05
5.55668e-05
5.48762e-05
5.39853e-05
5.29481e-05
5.1594e-05
5.37083e-05
5.33121e-05
5.28065e-05
5.21733e-05
5.13587e-05
5.04156e-05
4.91792e-05
5.10161e-05
5.0648e-05
5.01815e-05
4.96004e-05
4.88554e-05
4.79972e-05
4.68689e-05
4.84615e-05
4.8119e-05
4.76879e-05
4.7154e-05
4.64719e-05
4.569e-05
4.46611e-05
4.60402e-05
4.57208e-05
4.53217e-05
4.48305e-05
4.42055e-05
4.34917e-05
4.25533e-05
4.37454e-05
4.34473e-05
4.30776e-05
4.26251e-05
4.20516e-05
4.13989e-05
4.05433e-05
4.15664e-05
4.12889e-05
4.09469e-05
4.05304e-05
4.00045e-05
3.9407e-05
3.86277e-05
3.96986e-05
3.94898e-05
3.92326e-05
3.89175e-05
3.85354e-05
3.80542e-05
3.75079e-05
3.68003e-05
3.7702e-05
3.75069e-05
3.72688e-05
3.69789e-05
3.66291e-05
3.61902e-05
3.56918e-05
3.50524e-05
3.58007e-05
3.56166e-05
3.53945e-05
3.51265e-05
3.48054e-05
3.44048e-05
3.39502e-05
3.33738e-05
3.40028e-05
3.38263e-05
3.3616e-05
3.33655e-05
3.30682e-05
3.27001e-05
3.22839e-05
3.17648e-05
3.23013e-05
3.21286e-05
3.19256e-05
3.16873e-05
3.14075e-05
3.10643e-05
3.06781e-05
3.02054e-05
3.07607e-05
3.05939e-05
3.03993e-05
3.01723e-05
2.99078e-05
2.95837e-05
2.92202e-05
2.87805e-05
2.94675e-05
2.93065e-05
2.91204e-05
2.89052e-05
2.86547e-05
2.83469e-05
2.80022e-05
2.76099e-05
2.84361e-05
2.82999e-05
2.81311e-05
2.79417e-05
2.77288e-05
2.74844e-05
2.71881e-05
2.68516e-05
2.64864e-05
2.73616e-05
2.7221e-05
2.70465e-05
2.68515e-05
2.66347e-05
2.63882e-05
2.60955e-05
2.57714e-05
2.54541e-05
2.61817e-05
2.60291e-05
2.58452e-05
2.56418e-05
2.54185e-05
2.51671e-05
2.48681e-05
2.45206e-05
2.41497e-05
2.51906e-05
2.50457e-05
2.48687e-05
2.46689e-05
2.44466e-05
2.41978e-05
2.39126e-05
2.36176e-05
2.33903e-05
2.37133e-05
2.35397e-05
2.33417e-05
2.31277e-05
2.28969e-05
2.26374e-05
2.23206e-05
2.19157e-05
2.1451e-05
2.32358e-05
2.30889e-05
2.29096e-05
2.27046e-05
2.24788e-05
2.22375e-05
2.19937e-05
2.18119e-05
2.18055e-05
2.09228e-05
2.07329e-05
2.05236e-05
2.02958e-05
2.00448e-05
1.97472e-05
1.93401e-05
1.87691e-05
1.80543e-05
2.24327e-05
2.23259e-05
2.21871e-05
2.20153e-05
2.18285e-05
2.16546e-05
2.15767e-05
2.17269e-05
2.20971e-05
1.98241e-05
1.98097e-05
1.97393e-05
1.96117e-05
1.94332e-05
1.91879e-05
1.88475e-05
1.86523e-05
1.82865e-05
2.60572e-05
2.57584e-05
2.57667e-05
2.5772e-05
2.576e-05
2.57451e-05
2.57688e-05
2.60153e-05
2.65982e-05
2.68872e-05
2.70546e-05
2.69733e-05
2.70525e-05
2.71494e-05
2.72315e-05
2.73052e-05
2.74104e-05
2.77587e-05
2.8342e-05
2.83271e-05
3.50895e-05
3.22553e-05
3.24854e-05
3.26777e-05
3.27907e-05
3.2922e-05
3.30967e-05
3.3436e-05
3.37178e-05
3.11564e-05
0.249474
0.222959
0.15265
0.227015
0.219459
0.189344
0.153482
0.114835
0.0749393
0.0390683
0.0156724
0.00701611
0.00403543
0.00201701
0.000417455
9.8064e-05
0
9.42692e-06
4.26606e-05
0.000138581
0.000185619
0.00019632
0.00019129
0.000182392
0.00017388
0.000166455
0.000159767
0.000153518
0.000147556
0.000141852
0.000136394
0.000131169
0.000126169
0.000121369
0.000116753
0.000112309
0.000108022
0.000103879
9.9872e-05
9.59923e-05
9.22308e-05
8.85818e-05
8.50444e-05
8.16085e-05
7.82755e-05
7.50428e-05
7.19075e-05
6.8869e-05
6.59266e-05
6.30798e-05
6.03287e-05
5.76717e-05
5.51097e-05
5.26416e-05
5.02668e-05
4.79848e-05
4.57944e-05
4.36945e-05
4.16835e-05
3.97602e-05
3.79225e-05
3.61658e-05
3.44833e-05
3.28641e-05
3.13105e-05
2.97976e-05
2.84035e-05
2.72776e-05
2.61503e-05
2.52083e-05
2.37833e-05
2.32914e-05
2.09042e-05
2.20241e-05
1.70171e-05
2.26473e-05
1.73005e-05
2.68726e-05
2.73112e-05
3.01652e-05
0.14635
0.166199
0.127223
0.0957448
0.141735
0.149128
0.135731
0.111565
0.0808021
0.0471518
0.0185091
0.00497942
0.00249371
0.0014916
0.000372683
9.84886e-05
0
4.96987e-06
2.28005e-05
0.000100595
0.000145366
0.000158617
0.000157399
0.000152034
0.000146536
0.000141688
0.000137269
0.000133042
0.000128908
0.000124863
0.000120914
0.000117066
0.000113325
0.000109677
0.000106117
0.000102644
9.92472e-05
9.59246e-05
9.26719e-05
8.94853e-05
8.63606e-05
8.32961e-05
8.02943e-05
7.73476e-05
7.4461e-05
7.16349e-05
6.88682e-05
6.61631e-05
6.35214e-05
6.09448e-05
5.84357e-05
5.59949e-05
5.36249e-05
5.13272e-05
4.9103e-05
4.69534e-05
4.48793e-05
4.28811e-05
4.09588e-05
3.91124e-05
3.73413e-05
3.56423e-05
3.40104e-05
3.24359e-05
3.09216e-05
2.94449e-05
2.80734e-05
2.6961e-05
2.58278e-05
2.49268e-05
2.34751e-05
2.30578e-05
2.05871e-05
2.18396e-05
1.6662e-05
2.24406e-05
1.6993e-05
2.6542e-05
2.69083e-05
0.103042
0.123808
0.120793
0.0844164
0.0734249
0.110794
0.119594
0.110636
0.0904892
0.0629999
0.0329199
0.00983953
0.00203567
0.000775738
5.15028e-06
1.15641e-06
0
1.08252e-06
4.93283e-06
6.46799e-05
0.000107514
0.000123219
0.000124878
0.000122247
0.000119274
0.00011677
0.000114569
0.000112437
0.000110254
0.000107997
0.000105671
0.000103287
0.000100859
9.83878e-05
9.58807e-05
9.33476e-05
9.07911e-05
8.82226e-05
8.56452e-05
8.30662e-05
8.04895e-05
7.79219e-05
7.53709e-05
7.2835e-05
7.03239e-05
6.78419e-05
6.53911e-05
6.29769e-05
6.06029e-05
5.82732e-05
5.59918e-05
5.3761e-05
5.1585e-05
4.94658e-05
4.74062e-05
4.54082e-05
4.34734e-05
4.16032e-05
3.97982e-05
3.80591e-05
3.63863e-05
3.4777e-05
3.3228e-05
3.17295e-05
3.02845e-05
2.88728e-05
2.75517e-05
2.64828e-05
2.53688e-05
2.45304e-05
2.30818e-05
2.27362e-05
2.02562e-05
2.15669e-05
1.64657e-05
2.21659e-05
1.69457e-05
2.62655e-05
0.0780071
0.0966488
0.104754
0.0955598
0.0619312
0.0618525
0.0934721
0.1023
0.0957743
0.0783798
0.0534883
0.026627
0.00731323
0.00059401
0.000381095
0
0
0
1.04222e-05
4.69517e-05
9.00669e-05
0.00010949
0.000112974
0.000110633
0.000107452
0.000104861
0.00010278
0.00010091
9.90879e-05
9.72645e-05
9.54206e-05
9.3549e-05
9.16481e-05
8.97079e-05
8.77249e-05
8.56999e-05
8.36338e-05
8.15331e-05
7.93996e-05
7.72402e-05
7.50598e-05
7.28659e-05
7.06649e-05
6.84595e-05
6.62594e-05
6.40689e-05
6.18925e-05
5.97369e-05
5.76056e-05
5.5504e-05
5.34371e-05
5.14072e-05
4.94197e-05
4.74768e-05
4.55818e-05
4.37375e-05
4.19457e-05
4.02084e-05
3.85268e-05
3.69018e-05
3.53343e-05
3.38224e-05
3.23639e-05
3.09496e-05
2.95812e-05
2.82419e-05
2.69786e-05
2.59671e-05
2.48843e-05
2.41132e-05
2.26738e-05
2.24003e-05
1.99231e-05
2.12907e-05
1.62868e-05
2.19126e-05
1.6875e-05
0.0579433
0.0753824
0.0871735
0.089948
0.079467
0.0499069
0.0526497
0.0800883
0.0889654
0.0844374
0.069574
0.0474042
0.0235379
0.00630581
0.000757713
0.000461646
0
0
0
1.534e-05
6.4663e-05
9.66055e-05
0.000103034
0.000101568
9.88213e-05
9.63313e-05
9.43113e-05
9.25544e-05
9.08636e-05
8.91745e-05
8.74815e-05
8.57877e-05
8.40923e-05
8.23886e-05
8.06696e-05
7.89306e-05
7.71691e-05
7.53854e-05
7.35769e-05
7.17452e-05
6.98924e-05
6.80212e-05
6.61352e-05
6.42365e-05
6.23316e-05
6.04234e-05
5.85165e-05
5.66169e-05
5.47274e-05
5.28535e-05
5.10004e-05
4.91709e-05
4.73702e-05
4.56011e-05
4.38679e-05
4.21734e-05
4.05201e-05
3.89106e-05
3.73467e-05
3.58297e-05
3.43613e-05
3.29404e-05
3.15658e-05
3.02294e-05
2.89318e-05
2.76596e-05
2.64489e-05
2.54893e-05
2.4434e-05
2.37227e-05
2.22893e-05
2.20832e-05
1.96006e-05
2.1037e-05
1.60884e-05
2.17073e-05
0.0395111
0.0565474
0.0700167
0.0782476
0.0789199
0.0689716
0.0434878
0.0443715
0.0694841
0.0786393
0.0758175
0.0632495
0.0437024
0.0222431
0.00661766
0.000910529
0.000454731
0
0
0
1.55002e-05
6.35633e-05
8.87167e-05
8.94202e-05
8.64477e-05
8.45006e-05
8.31283e-05
8.19411e-05
8.08303e-05
7.97053e-05
7.85295e-05
7.73097e-05
7.60556e-05
7.47687e-05
7.34463e-05
7.2087e-05
7.06929e-05
6.92659e-05
6.78051e-05
6.63125e-05
6.47908e-05
6.32409e-05
6.16663e-05
6.0069e-05
5.84535e-05
5.68224e-05
5.51801e-05
5.35319e-05
5.18804e-05
5.02307e-05
4.85884e-05
4.69565e-05
4.53402e-05
4.37427e-05
4.21691e-05
4.06223e-05
3.91057e-05
3.76222e-05
3.61743e-05
3.4764e-05
3.33931e-05
3.20617e-05
3.07695e-05
2.95098e-05
2.82821e-05
2.70763e-05
2.59171e-05
2.50066e-05
2.39773e-05
2.33236e-05
2.18971e-05
2.17586e-05
1.92684e-05
2.07817e-05
0.0222219
0.0384882
0.0530217
0.0641932
0.0707091
0.0708098
0.0621204
0.0405373
0.0364314
0.0606567
0.0703384
0.0690768
0.0586452
0.0414697
0.0220783
0.00744641
0.000515317
0.000224711
0
0
0
1.49985e-05
6.05692e-05
8.07255e-05
7.88193e-05
7.4871e-05
7.33028e-05
7.24806e-05
7.16408e-05
7.0812e-05
7.00008e-05
6.91667e-05
6.82986e-05
6.7398e-05
6.64584e-05
6.54731e-05
6.44411e-05
6.33632e-05
6.22387e-05
6.10699e-05
5.98592e-05
5.86079e-05
5.73204e-05
5.59991e-05
5.46476e-05
5.32699e-05
5.187e-05
5.04528e-05
4.90212e-05
4.75806e-05
4.6136e-05
4.46911e-05
4.3251e-05
4.18192e-05
4.04008e-05
3.89991e-05
3.76181e-05
3.62607e-05
3.493e-05
3.36281e-05
3.23576e-05
3.11189e-05
2.99126e-05
2.87336e-05
2.75796e-05
2.64446e-05
2.53408e-05
2.44831e-05
2.34827e-05
2.28904e-05
2.14744e-05
2.14091e-05
0.00800086
0.0210421
0.0356373
0.0486108
0.0585447
0.0643625
0.0646604
0.0575179
0.0396626
0.0283672
0.052824
0.0632476
0.0634922
0.0550703
0.0400603
0.0225256
0.0081875
0.000732172
0.000262545
0
0
0
1.30146e-05
5.13886e-05
7.34421e-05
7.14885e-05
6.68477e-05
6.53309e-05
6.48427e-05
6.41731e-05
6.34104e-05
6.26868e-05
6.19795e-05
6.12592e-05
6.05165e-05
5.97445e-05
5.89368e-05
5.80911e-05
5.72034e-05
5.6273e-05
5.52996e-05
5.42836e-05
5.32278e-05
5.21334e-05
5.10033e-05
4.98414e-05
4.86505e-05
4.74353e-05
4.61987e-05
4.49456e-05
4.36808e-05
4.24075e-05
4.11314e-05
3.98553e-05
3.85845e-05
3.73225e-05
3.60731e-05
3.48397e-05
3.36253e-05
3.24321e-05
3.1263e-05
3.0119e-05
2.9001e-05
2.79054e-05
2.68284e-05
2.57679e-05
2.47231e-05
2.39226e-05
2.29542e-05
0.000739196
0.00682301
0.0184699
0.0317894
0.0438193
0.0531608
0.0588523
0.059726
0.0542055
0.0397277
0.0200167
0.045566
0.0569294
0.0586578
0.0521234
0.0391406
0.0231539
0.00916361
0.00132426
0.000354099
0
0
0
9.65135e-06
3.70993e-05
6.49657e-05
6.54285e-05
6.02847e-05
5.84753e-05
5.82508e-05
5.7852e-05
5.72264e-05
5.65996e-05
5.60004e-05
5.5394e-05
5.47637e-05
5.41049e-05
5.34157e-05
5.26919e-05
5.19314e-05
5.11327e-05
5.02951e-05
4.94196e-05
4.85068e-05
4.75583e-05
4.65764e-05
4.55633e-05
4.4523e-05
4.34575e-05
4.23711e-05
4.1268e-05
4.01511e-05
3.90257e-05
3.78944e-05
3.67619e-05
3.56322e-05
3.45085e-05
3.33945e-05
3.2293e-05
3.12063e-05
3.01373e-05
2.90872e-05
2.80575e-05
2.70462e-05
2.60471e-05
2.50629e-05
0.000367173
0.000457766
0.00505948
0.0151446
0.0273837
0.0388432
0.0479861
0.0538792
0.0555205
0.0515885
0.0400654
0.01548
0.0386245
0.051134
0.0543234
0.0495762
0.038452
0.0238411
0.01025
0.00202691
0.000426513
0
0
0
5.35537e-06
1.92542e-05
5.43894e-05
5.98571e-05
5.52789e-05
5.26929e-05
5.23304e-05
5.21208e-05
5.16576e-05
5.11465e-05
5.06583e-05
5.01649e-05
4.96463e-05
4.90987e-05
4.85195e-05
4.79061e-05
4.72569e-05
4.65708e-05
4.58481e-05
4.50895e-05
4.42958e-05
4.34684e-05
4.26093e-05
4.17218e-05
4.08072e-05
3.98691e-05
3.89113e-05
3.79362e-05
3.69485e-05
3.59507e-05
3.49471e-05
3.39414e-05
3.29367e-05
3.19366e-05
3.09437e-05
2.99602e-05
2.8989e-05
2.80314e-05
0
3.26422e-05
0.000909937
0.00320494
0.0115736
0.0227106
0.0337639
0.0429366
0.0492267
0.0517275
0.0493112
0.0403559
0.0203958
0.031761
0.0456828
0.0503156
0.0472611
0.0378458
0.0245301
0.0113834
0.00281308
0.000507922
1.94162e-05
0
0
9.09676e-07
1.43578e-06
4.23344e-05
5.33737e-05
5.06517e-05
4.79428e-05
4.73131e-05
4.71483e-05
4.6796e-05
4.63713e-05
4.59614e-05
4.55494e-05
4.51157e-05
4.4655e-05
4.41648e-05
4.36421e-05
4.30849e-05
4.24929e-05
4.18664e-05
4.12055e-05
4.05114e-05
3.97858e-05
3.90313e-05
3.8249e-05
3.74418e-05
3.66132e-05
3.57653e-05
3.49023e-05
3.40264e-05
3.31416e-05
3.22512e-05
3.13582e-05
0
0
0
0.000819171
0.00164225
0.00813301
0.0180137
0.0286405
0.0379421
0.044735
0.0481364
0.0471499
0.0404387
0.0250748
0.024646
0.0404224
0.0465012
0.0450536
0.0372398
0.025165
0.012512
0.00367114
0.000260573
0.000116027
0
0
4.48575e-08
8.84451e-06
3.37271e-05
4.73971e-05
4.64639e-05
4.38198e-05
4.30101e-05
4.28563e-05
4.2581e-05
4.22194e-05
4.18651e-05
4.15109e-05
4.11371e-05
4.07381e-05
4.03115e-05
3.9855e-05
3.93672e-05
3.88477e-05
3.82963e-05
3.77133e-05
3.71e-05
3.64585e-05
3.57898e-05
3.50962e-05
7.95574e-06
4.60022e-08
0
0
0.000579724
0.000546659
0.00511703
0.0135194
0.0235587
0.0329693
0.0403024
0.0446058
0.044961
0.0402235
0.0283552
0.0167371
0.0352281
0.0427833
0.0428743
0.0365794
0.0257065
0.0136219
0.00454139
0.000555898
0.00020003
0
0
0
7.05037e-06
2.66335e-05
4.22312e-05
4.27351e-05
4.01761e-05
3.92086e-05
3.90708e-05
3.88636e-05
3.85473e-05
3.82317e-05
)
;

boundaryField
{
    inlet
    {
        type            calculated;
        value           nonuniform List<scalar> 
11
(
7.40323e-05
7.20686e-05
7.29302e-05
7.37175e-05
7.4409e-05
7.50199e-05
7.55872e-05
7.61497e-05
7.6796e-05
7.5247e-05
7.72311e-05
)
;
    }
    outlet
    {
        type            calculated;
        value           nonuniform List<scalar> 0();
    }
    walls
    {
        type            calculated;
        value           uniform 0;
    }
    frontAndBack
    {
        type            empty;
    }
    procBoundary6to2
    {
        type            processor;
        value           nonuniform List<scalar> 
13
(
0.141642
0.0971471
0.0714691
0.0531321
0.0362025
0.0205375
0.00770091
0.000780548
0.000517095
0
0
7.43938e-06
2.9747e-05
)
;
    }
    procBoundary6to3
    {
        type            processor;
        value           uniform 3.42759e-05;
    }
    procBoundary6to5
    {
        type            processor;
        value           nonuniform List<scalar> 
86
(
0.296939
0.144815
0.13553
0.107732
0.0593319
0.011303
0.0038505
0.00150619
0
0
4.87504e-05
0.000196956
0.000239229
0.000222473
0.000210445
0.000209764
0.000210616
0.000208944
0.000205486
0.000201667
0.00019806
0.000194615
0.00019113
0.000187478
0.000183633
0.00017961
0.000175428
0.000171106
0.00016666
0.000162097
0.000157433
0.000152685
0.000147867
0.000147867
0.000144743
0.000139832
0.000134894
0.000129949
0.000125014
0.000120109
0.000115252
0.00011046
0.000105748
0.00010113
9.66205e-05
9.22292e-05
9.22292e-05
8.87973e-05
8.46134e-05
8.05738e-05
7.6683e-05
7.29441e-05
6.93586e-05
6.59269e-05
6.26484e-05
5.95209e-05
5.95209e-05
5.68688e-05
5.4014e-05
5.13026e-05
4.87307e-05
4.62936e-05
4.39839e-05
4.17901e-05
4.17901e-05
3.98651e-05
3.78593e-05
3.59511e-05
3.41491e-05
3.24462e-05
3.08985e-05
2.95966e-05
2.95966e-05
2.85544e-05
2.74855e-05
2.63205e-05
2.53267e-05
2.38765e-05
2.33984e-05
2.10712e-05
2.265e-05
1.96694e-05
1.96694e-05
2.5041e-05
2.69933e-05
3.05918e-05
)
;
    }
    procBoundary6to7
    {
        type            processor;
        value           nonuniform List<scalar> 
91
(
3.02094e-05
3.02094e-05
2.64679e-05
2.64679e-05
2.60157e-05
2.60157e-05
1.6809e-05
1.58701e-05
1.6809e-05
2.1515e-05
1.89124e-05
1.58701e-05
2.05117e-05
2.24272e-05
2.10249e-05
1.89124e-05
2.10376e-05
2.40793e-05
2.33382e-05
2.24272e-05
2.24035e-05
2.7089e-05
2.61617e-05
2.52408e-05
2.40793e-05
2.43341e-05
3.04659e-05
2.95769e-05
2.8693e-05
2.78168e-05
2.7089e-05
2.695e-05
3.43807e-05
3.36454e-05
3.28937e-05
3.21277e-05
3.13511e-05
3.05667e-05
3.04659e-05
2.97776e-05
3.7922e-05
3.75958e-05
3.72451e-05
3.68684e-05
3.64637e-05
3.603e-05
3.55671e-05
3.50753e-05
3.45552e-05
3.40083e-05
3.34358e-05
3.43807e-05
3.28395e-05
5.17221e-06
1.2704e-06
0
0
0.000197192
0.000282938
0.00263072
0.00938374
0.0185835
0.0279876
0.0358419
0.0410306
0.0426443
0.0396686
0.0305684
0.01002
0.0299871
0.0390916
0.040667
0.0358232
0.0261351
0.0146666
0.00545132
0.000540749
0.000182256
0
0
0
5.29007e-06
1.95477e-05
3.73336e-05
3.94203e-05
3.68848e-05
3.56966e-05
3.55943e-05
3.54956e-05
3.7922e-05
3.52423e-05
)
;
    }
}


// ************************************************************************* //
