/*--------------------------------*- C++ -*----------------------------------*\
| =========                 |                                                 |
| \\      /  F ield         | OpenFOAM: The Open Source CFD Toolbox           |
|  \\    /   O peration     | Version:  2506                                  |
|   \\  /    A nd           | Website:  www.openfoam.com                      |
|    \\/     M anipulation  |                                                 |
\*---------------------------------------------------------------------------*/
FoamFile
{
    version     2.0;
    format      ascii;
    arch        "LSB;label=32;scalar=64";
    class       volScalarField;
    location    "400";
    object      turbulenceProperties:epsilon;
}
// * * * * * * * * * * * * * * * * * * * * * * * * * * * * * * * * * * * * * //

dimensions      [0 2 -3 0 0 0 0];

internalField   nonuniform List<scalar> 
1340
(
334.384
232.34
145.725
16.2666
26.501
21.7458
17.5741
20.2081
31.9663
23.9937
16.9425
20.4965
32.3927
26.5993
19.7632
21.4753
16.9023
21.0106
19.7635
21.8262
1.66025
7.5192
13.9892
19.8692
0.0337154
0.415859
4.90254
14.1075
0.0241622
0.0273018
0.465788
6.38789
0
0.00987022
0.0260378
1.52298
0
0
0.0112275
0.188078
0
0
0.000407807
0.0269737
2.92191e-09
0
0.000102438
0.00825014
1.218e-06
5.31313e-13
3.04009e-05
0.00274582
4.93016e-06
1.15373e-12
5.15762e-07
0.000682654
4.20677e-06
1.08186e-06
3.54245e-11
3.67286e-05
2.77102e-06
3.89855e-06
5.02891e-12
2.30802e-07
2.12131e-06
4.56556e-06
4.37625e-11
6.48215e-18
2.00654e-06
3.3618e-06
4.73451e-07
7.5184e-11
2.03216e-06
2.28455e-06
2.01396e-06
2.0132e-08
2.00306e-06
1.78773e-06
2.30435e-06
4.94681e-07
1.89231e-06
1.60568e-06
1.87801e-06
1.24746e-06
1.74227e-06
1.5142e-06
1.48866e-06
1.4571e-06
1.58849e-06
1.41842e-06
1.25592e-06
1.31518e-06
1.44399e-06
1.30298e-06
1.11221e-06
1.11351e-06
1.30974e-06
1.17963e-06
1.00077e-06
9.44055e-07
1.18337e-06
1.05902e-06
8.98441e-07
8.10052e-07
1.06391e-06
9.45965e-07
8.01052e-07
6.99807e-07
9.51337e-07
8.41214e-07
7.09794e-07
6.05772e-07
8.45777e-07
7.44463e-07
6.25622e-07
5.24134e-07
7.47768e-07
6.55649e-07
5.49043e-07
4.53138e-07
6.57513e-07
5.74592e-07
4.79683e-07
3.91339e-07
5.74869e-07
5.01129e-07
4.17429e-07
3.37531e-07
4.9987e-07
4.34852e-07
3.61729e-07
2.90756e-07
4.86457e-07
4.32295e-07
3.75587e-07
3.12158e-07
2.50029e-07
4.1801e-07
3.71837e-07
3.22905e-07
2.68373e-07
2.14609e-07
3.5717e-07
3.18186e-07
2.76336e-07
2.29867e-07
1.83849e-07
3.03532e-07
2.70886e-07
2.35431e-07
1.96166e-07
1.57155e-07
2.56611e-07
2.29489e-07
1.99727e-07
1.66816e-07
1.34033e-07
2.15853e-07
1.93508e-07
1.68747e-07
1.41387e-07
1.14046e-07
1.80706e-07
1.62436e-07
1.42e-07
1.19443e-07
9.68061e-08
1.50606e-07
1.35777e-07
1.19046e-07
1.00584e-07
8.19683e-08
1.24995e-07
1.13041e-07
9.94466e-08
8.44481e-08
6.92305e-08
1.03335e-07
9.37599e-08
8.27928e-08
7.0691e-08
5.83263e-08
8.51239e-08
7.75023e-08
6.87088e-08
5.90114e-08
4.90125e-08
6.98925e-08
6.38611e-08
5.68541e-08
4.91289e-08
4.10842e-08
6.12327e-08
5.72193e-08
5.24674e-08
4.69155e-08
4.07957e-08
3.43539e-08
4.98558e-08
4.67224e-08
4.29963e-08
3.86181e-08
3.37945e-08
2.86571e-08
4.05027e-08
3.80629e-08
3.51531e-08
3.1716e-08
2.79321e-08
2.38497e-08
3.28418e-08
3.09475e-08
2.86825e-08
2.59941e-08
2.30374e-08
1.98049e-08
2.6588e-08
2.51197e-08
2.33617e-08
2.12664e-08
1.89635e-08
1.64123e-08
2.14981e-08
2.03619e-08
1.89999e-08
1.73707e-08
1.55824e-08
1.35745e-08
1.73651e-08
1.6487e-08
1.54339e-08
1.41699e-08
1.27841e-08
1.12074e-08
1.40172e-08
1.33386e-08
1.25249e-08
1.15457e-08
1.04737e-08
9.23834e-09
1.13098e-08
1.07852e-08
1.0157e-08
9.39922e-09
8.57067e-09
7.60448e-09
9.45349e-09
9.12339e-09
8.71789e-09
8.23264e-09
7.64651e-09
7.00645e-09
6.25194e-09
7.61644e-09
7.35989e-09
7.04592e-09
6.67106e-09
6.2177e-09
5.72315e-09
5.13466e-09
6.13867e-09
5.9389e-09
5.69541e-09
5.40538e-09
5.05447e-09
4.67209e-09
4.21349e-09
4.95073e-09
4.7947e-09
4.60541e-09
4.38059e-09
4.10856e-09
3.81255e-09
3.45541e-09
3.99606e-09
3.87379e-09
3.72618e-09
3.55148e-09
3.3403e-09
3.11064e-09
2.83251e-09
3.2283e-09
3.13227e-09
3.01692e-09
2.88087e-09
2.71658e-09
2.538e-09
2.32142e-09
2.60934e-09
2.53397e-09
2.44385e-09
2.33788e-09
2.21002e-09
2.07098e-09
1.90243e-09
2.1575e-09
2.10847e-09
2.04952e-09
1.97933e-09
1.89698e-09
1.79766e-09
1.68947e-09
1.55868e-09
1.74112e-09
1.70251e-09
1.65643e-09
1.60184e-09
1.53798e-09
1.46105e-09
1.37708e-09
1.27607e-09
1.40483e-09
1.37413e-09
1.33785e-09
1.29518e-09
1.24555e-09
1.18595e-09
1.1208e-09
1.04306e-09
1.13491e-09
1.11007e-09
1.08107e-09
1.04735e-09
1.00843e-09
9.61976e-10
9.11277e-10
8.5152e-10
9.17849e-10
8.97336e-10
8.73707e-10
8.46589e-10
8.15605e-10
7.78903e-10
7.3899e-10
6.9267e-10
7.49903e-10
7.33036e-10
7.1372e-10
6.91704e-10
6.66708e-10
6.37109e-10
6.05015e-10
5.68105e-10
6.28128e-10
6.13945e-10
5.97869e-10
5.79681e-10
5.5905e-10
5.34528e-10
5.07971e-10
4.79117e-10
5.42709e-10
5.31997e-10
5.18972e-10
5.04628e-10
4.88867e-10
4.71229e-10
4.50543e-10
4.27847e-10
4.0427e-10
4.63126e-10
4.5337e-10
4.41508e-10
4.28514e-10
4.144e-10
3.9878e-10
3.80834e-10
3.61637e-10
3.43549e-10
3.86496e-10
3.77325e-10
3.6651e-10
3.54808e-10
3.42276e-10
3.28559e-10
3.12816e-10
2.95221e-10
2.77306e-10
3.29718e-10
3.22011e-10
3.12792e-10
3.02628e-10
2.91602e-10
2.79617e-10
2.66349e-10
2.53074e-10
2.43122e-10
2.57723e-10
2.50128e-10
2.41672e-10
2.32769e-10
2.23438e-10
2.13282e-10
2.01373e-10
1.86903e-10
1.71307e-10
2.36576e-10
2.30535e-10
2.23332e-10
2.15306e-10
2.06711e-10
1.97804e-10
1.89083e-10
1.82697e-10
1.82284e-10
1.54788e-10
1.49185e-10
1.43186e-10
1.36864e-10
1.30143e-10
1.22497e-10
1.12611e-10
9.9772e-11
8.53064e-11
2.03876e-10
1.99941e-10
1.94924e-10
1.88852e-10
1.82407e-10
1.76532e-10
1.73867e-10
1.7863e-10
1.91022e-10
1.23617e-10
1.23234e-10
1.21468e-10
1.18331e-10
1.14047e-10
1.08355e-10
1.00808e-10
9.65856e-11
8.90893e-11
3.6895e-10
3.52237e-10
3.52561e-10
3.52695e-10
3.51863e-10
3.50846e-10
3.51931e-10
3.65404e-10
3.99311e-10
4.17226e-10
4.24556e-10
4.19497e-10
4.24487e-10
4.30657e-10
4.3595e-10
4.40731e-10
4.47536e-10
4.70564e-10
5.10615e-10
5.08359e-10
1.21578e-09
8.67693e-10
8.92585e-10
9.14083e-10
9.2688e-10
9.41758e-10
9.61922e-10
1.00236e-09
1.03842e-09
7.59391e-10
59.5799
10.1766
1.68663
12.1346
19.8986
21.7494
18.5412
11.472
4.19341
0.676657
0.0456483
0.00525416
0.00187611
0.000520832
1.53748e-05
4.31242e-08
0
1.28652e-12
1.19963e-09
2.36686e-07
8.33222e-07
1.06348e-06
9.76093e-07
8.22161e-07
6.9139e-07
5.9043e-07
5.08982e-07
4.40304e-07
3.80999e-07
3.29635e-07
2.8516e-07
2.46649e-07
2.13328e-07
1.84406e-07
1.59273e-07
1.37441e-07
1.18441e-07
1.0191e-07
8.75353e-08
7.50409e-08
6.41884e-08
5.47769e-08
4.66384e-08
3.96032e-08
3.35444e-08
2.83398e-08
2.38799e-08
2.00705e-08
1.68266e-08
1.40732e-08
1.17438e-08
9.77845e-09
8.12603e-09
6.74049e-09
5.58202e-09
4.61599e-09
3.81238e-09
3.14541e-09
2.59297e-09
2.13628e-09
1.75931e-09
1.44815e-09
1.19101e-09
9.77765e-10
8.01659e-10
6.54451e-10
5.37795e-10
4.5561e-10
3.83485e-10
3.2996e-10
2.60487e-10
2.38745e-10
1.54318e-10
1.89538e-10
6.72607e-11
2.10677e-10
7.13031e-11
4.16368e-10
4.38837e-10
6.68162e-10
25.2767
18.7666
3.87012
1.09043
6.21432
10.9732
12.0387
9.34406
4.6232
1.05974
0.0620174
0.00108685
0.000251467
0.000131575
7.96539e-06
5.25008e-08
0
8.48276e-14
8.26979e-11
6.43059e-08
3.12291e-07
4.49782e-07
4.4195e-07
3.90567e-07
3.42121e-07
3.0333e-07
2.70882e-07
2.42178e-07
2.16156e-07
1.92578e-07
1.71302e-07
1.52163e-07
1.35e-07
1.19583e-07
1.05736e-07
9.33255e-08
8.21887e-08
7.22153e-08
6.32937e-08
5.53249e-08
4.82183e-08
4.18962e-08
3.62941e-08
3.13336e-08
2.6963e-08
2.3126e-08
1.97677e-08
1.6841e-08
1.43009e-08
1.21053e-08
1.0216e-08
8.59609e-09
7.21329e-09
6.03749e-09
5.0414e-09
4.20062e-09
3.49336e-09
2.90029e-09
2.40436e-09
1.99086e-09
1.64686e-09
1.36092e-09
1.12321e-09
9.25009e-10
7.60553e-10
6.22554e-10
5.12165e-10
4.3402e-10
3.64305e-10
3.14999e-10
2.46916e-10
2.2904e-10
1.45016e-10
1.83102e-10
6.17773e-11
2.02939e-10
6.63511e-11
3.95908e-10
4.13767e-10
10.5431
12.4306
7.09328
1.27773
0.683097
4.01596
7.22806
7.82116
5.60984
2.3073
0.355039
0.0085032
9.45716e-05
1.80152e-05
1.08014e-13
1.3287e-16
0
1.06958e-16
1.00625e-13
1.06214e-08
9.55232e-08
1.67263e-07
1.77767e-07
1.64912e-07
1.51005e-07
1.40121e-07
1.31133e-07
1.22828e-07
1.14661e-07
1.06565e-07
9.85909e-08
9.08101e-08
8.32972e-08
7.60711e-08
6.91656e-08
6.26188e-08
5.64407e-08
5.06582e-08
4.52716e-08
4.02859e-08
3.5695e-08
3.14941e-08
2.76749e-08
2.42132e-08
2.10991e-08
1.83123e-08
1.58297e-08
1.36308e-08
1.16932e-08
9.99462e-09
8.51346e-09
7.22752e-09
6.11697e-09
5.16192e-09
4.34426e-09
3.64714e-09
3.05506e-09
2.55405e-09
2.13143e-09
1.77609e-09
1.47814e-09
1.22859e-09
1.01973e-09
8.44348e-10
6.97813e-10
5.74126e-10
4.74095e-10
4.03241e-10
3.38479e-10
2.94954e-10
2.30449e-10
2.1625e-10
1.35768e-10
1.73952e-10
5.88749e-11
1.93007e-10
6.5608e-11
3.79218e-10
4.87417
7.10145
6.49772
3.27626
0.47955
0.458456
2.65777
4.83869
5.24525
3.63733
1.36177
0.178128
0.00357354
7.28627e-06
4.36456e-06
0
0
0
3.06674e-12
2.69132e-09
4.68324e-08
1.05184e-07
1.19775e-07
1.11012e-07
9.96398e-08
9.11126e-08
8.47609e-08
7.93737e-08
7.4371e-08
6.95838e-08
6.49543e-08
6.04659e-08
5.61187e-08
5.18955e-08
4.77973e-08
4.38364e-08
4.00238e-08
3.638e-08
3.29141e-08
2.96407e-08
2.65683e-08
2.37055e-08
2.1056e-08
1.86161e-08
1.63874e-08
1.43632e-08
1.2535e-08
1.08951e-08
9.43147e-09
8.13317e-09
6.98818e-09
5.98291e-09
5.10565e-09
4.34337e-09
3.68423e-09
3.11689e-09
2.63049e-09
2.21518e-09
1.86179e-09
1.56208e-09
1.30872e-09
1.09483e-09
9.14495e-10
7.61938e-10
6.33436e-10
5.24254e-10
4.349e-10
3.71998e-10
3.12792e-10
2.74948e-10
2.14271e-10
2.03489e-10
1.26914e-10
1.65038e-10
5.63164e-11
1.84167e-10
6.45068e-11
2.10811
3.79836
4.6134
3.78991
1.81247
0.245024
0.294896
1.72388
3.21741
3.54597
2.44611
0.892613
0.115855
0.00235973
9.27751e-06
4.70933e-06
0
0
0
1.89478e-11
1.17525e-08
6.39824e-08
8.30499e-08
7.8907e-08
7.12352e-08
6.47833e-08
5.99245e-08
5.59539e-08
5.23222e-08
4.88632e-08
4.55595e-08
4.24127e-08
3.94164e-08
3.65544e-08
3.38128e-08
3.11838e-08
2.86649e-08
2.62578e-08
2.39607e-08
2.17773e-08
1.97112e-08
1.77655e-08
1.59432e-08
1.42441e-08
1.26713e-08
1.12227e-08
9.89634e-09
8.69025e-09
7.59887e-09
6.61762e-09
5.74088e-09
4.96135e-09
4.27248e-09
3.66669e-09
3.13687e-09
2.67571e-09
2.27612e-09
1.93139e-09
1.6352e-09
1.38161e-09
1.16529e-09
9.81134e-10
8.24632e-10
6.91249e-10
5.77969e-10
4.81111e-10
4.00828e-10
3.44661e-10
2.90224e-10
2.57136e-10
1.99806e-10
1.91948e-10
1.18758e-10
1.57145e-10
5.35805e-11
1.77202e-10
0.695842
1.75309
2.7687
3.10422
2.45038
1.16867
0.164224
0.17334
1.11932
2.18759
2.4866
1.75092
0.660482
0.0939469
0.00266382
1.18983e-05
3.10956e-06
0
0
0
2.19932e-11
1.16518e-08
4.59754e-08
4.7593e-08
4.18769e-08
3.84581e-08
3.62179e-08
3.43775e-08
3.27264e-08
3.11107e-08
2.9477e-08
2.7842e-08
2.62245e-08
2.46307e-08
2.30609e-08
2.15178e-08
2.0008e-08
1.85377e-08
1.71095e-08
1.57287e-08
1.4401e-08
1.31295e-08
1.19189e-08
1.07721e-08
9.69274e-09
8.68221e-09
7.74216e-09
6.87371e-09
6.07546e-09
5.34675e-09
4.68603e-09
4.09016e-09
3.55625e-09
3.08043e-09
2.65903e-09
2.28771e-09
1.96221e-09
1.67828e-09
1.43171e-09
1.21847e-09
1.03481e-09
8.77026e-10
7.41817e-10
6.25692e-10
5.26223e-10
4.40636e-10
3.68685e-10
3.18612e-10
2.68604e-10
2.39843e-10
1.85816e-10
1.80656e-10
1.10774e-10
1.49487e-10
0.125857
0.585486
1.33295
1.99963
2.18814
1.72853
0.855419
0.139329
0.0883056
0.717309
1.50748
1.79428
1.31949
0.533744
0.0883497
0.00367831
4.04364e-06
5.30841e-07
0
0
0
2.04765e-11
9.91171e-09
3.17329e-08
2.90046e-08
2.38079e-08
2.19793e-08
2.10968e-08
2.02222e-08
1.93868e-08
1.85956e-08
1.78049e-08
1.70052e-08
1.62004e-08
1.53868e-08
1.45618e-08
1.37283e-08
1.28913e-08
1.20542e-08
1.1223e-08
1.04031e-08
9.59913e-09
8.81704e-09
8.06095e-09
7.3352e-09
6.64351e-09
5.98881e-09
5.37374e-09
4.79937e-09
4.26697e-09
3.77706e-09
3.32892e-09
2.92191e-09
2.55437e-09
2.22473e-09
1.93073e-09
1.67e-09
1.44001e-09
1.23813e-09
1.06172e-09
9.08262e-10
7.7519e-10
6.60141e-10
5.60538e-10
4.74427e-10
3.99847e-10
3.36149e-10
2.92115e-10
2.46619e-10
2.2211e-10
1.71597e-10
1.69074e-10
0.00583694
0.0981325
0.432069
0.967677
1.45013
1.60396
1.30383
0.689314
0.140406
0.0355107
0.444517
1.03817
1.31537
1.02762
0.454199
0.0893521
0.00484625
9.25286e-06
5.07656e-07
0
0
0
1.14828e-11
5.11862e-09
2.18745e-08
1.97496e-08
1.52424e-08
1.39626e-08
1.35931e-08
1.30856e-08
1.25205e-08
1.20033e-08
1.15139e-08
1.10302e-08
1.05458e-08
1.00572e-08
9.56182e-09
9.0602e-09
8.55228e-09
8.04019e-09
7.52656e-09
7.01418e-09
6.50712e-09
6.00848e-09
5.52177e-09
5.05049e-09
4.59735e-09
4.16518e-09
3.75569e-09
3.37077e-09
3.0117e-09
2.67886e-09
2.37274e-09
2.09282e-09
1.83873e-09
1.60948e-09
1.40386e-09
1.2205e-09
1.05783e-09
9.14198e-10
7.88003e-10
6.77524e-10
5.81127e-10
4.9699e-10
4.2352e-10
3.5947e-10
3.03799e-10
2.65669e-10
2.24692e-10
4.03734e-06
0.00331619
0.0619689
0.289771
0.677998
1.05254
1.2065
1.02834
0.591223
0.15345
0.00949448
0.261496
0.70893
0.973326
0.81774
0.399022
0.0922872
0.00653987
3.52672e-05
6.42667e-07
0
0
0
3.16561e-12
1.30987e-09
1.35146e-08
1.38978e-08
1.01353e-08
9.0093e-09
8.89382e-09
8.67661e-09
8.33325e-09
7.99957e-09
7.69085e-09
7.38718e-09
7.08015e-09
6.76819e-09
6.45163e-09
6.12968e-09
5.80286e-09
5.47221e-09
5.13917e-09
4.80587e-09
4.47427e-09
4.14664e-09
3.82527e-09
3.51229e-09
3.21002e-09
2.91989e-09
2.64372e-09
2.38288e-09
2.13808e-09
1.91027e-09
1.69948e-09
1.50591e-09
1.32932e-09
1.16917e-09
1.02484e-09
8.95456e-10
7.80027e-10
6.77584e-10
5.87023e-10
5.07263e-10
4.37084e-10
3.7515e-10
3.20824e-10
1.86661e-06
1.14219e-06
0.00125474
0.0323445
0.177114
0.456611
0.757632
0.918182
0.832134
0.524924
0.170975
0.00362613
0.142143
0.476289
0.722508
0.659407
0.356207
0.0957346
0.0087155
9.73661e-05
7.02715e-07
0
0
0
2.35448e-13
7.53079e-11
6.72368e-09
9.75094e-09
7.18574e-09
5.96482e-09
5.81556e-09
5.7354e-09
5.54855e-09
5.34679e-09
5.15971e-09
4.97552e-09
4.7865e-09
4.59203e-09
4.39189e-09
4.18619e-09
3.97539e-09
3.76032e-09
3.54233e-09
3.32283e-09
3.10326e-09
2.88521e-09
2.67028e-09
2.46023e-09
2.2562e-09
2.05964e-09
1.87185e-09
1.69354e-09
1.5257e-09
1.36868e-09
1.22288e-09
1.08843e-09
9.65203e-10
8.52989e-10
7.51356e-10
6.59763e-10
5.7766e-10
5.04361e-10
0
6.70426e-10
7.65995e-06
0.00029268
0.0137562
0.0974058
0.292138
0.534602
0.69819
0.680554
0.473011
0.188517
0.0115762
0.0679593
0.311509
0.534304
0.534612
0.319665
0.098905
0.0113112
0.000219461
8.73346e-07
9.62241e-11
0
0
8.45506e-17
6.74911e-16
2.46284e-09
6.20771e-09
5.07718e-09
4.10057e-09
3.89833e-09
3.85119e-09
3.7454e-09
3.61972e-09
3.5017e-09
3.38593e-09
3.26677e-09
3.14317e-09
3.01496e-09
2.88198e-09
2.7445e-09
2.60324e-09
2.45909e-09
2.31301e-09
2.1661e-09
2.01951e-09
1.87456e-09
1.73213e-09
1.59335e-09
1.45928e-09
1.33062e-09
1.20821e-09
1.09249e-09
9.83922e-10
8.82784e-10
7.89169e-10
0
0
0
7.98236e-06
3.22708e-05
0.00455211
0.0470827
0.174536
0.364924
0.524164
0.555749
0.426548
0.20294
0.0278998
0.0256689
0.195478
0.390798
0.432805
0.286476
0.10112
0.0142035
0.000430164
2.55477e-07
3.12584e-08
0
0
1.15791e-22
2.52111e-12
9.71407e-10
3.88852e-09
3.60179e-09
2.86885e-09
2.66899e-09
2.63499e-09
2.57252e-09
2.49125e-09
2.41358e-09
2.33777e-09
2.25945e-09
2.17771e-09
2.09244e-09
2.00363e-09
1.91148e-09
1.81648e-09
1.71917e-09
1.62022e-09
1.52042e-09
1.42069e-09
1.3217e-09
1.22424e-09
1.7447e-12
1.65247e-22
0
0
4.22513e-06
8.56581e-07
0.00106905
0.0193088
0.0953178
0.237374
0.38406
0.448385
0.380991
0.211955
0.0480589
0.00567905
0.115326
0.280643
0.348023
0.255211
0.101954
0.0172949
0.000743374
1.54586e-06
1.04608e-07
0
0
0
9.49065e-13
3.63471e-10
2.46481e-09
2.58017e-09
2.03098e-09
1.84709e-09
1.82359e-09
1.78784e-09
1.73337e-09
1.68028e-09
)
;

boundaryField
{
    inlet
    {
        type            calculated;
        value           nonuniform List<scalar> 
11
(
2.38057e-08
2.13886e-08
2.24275e-08
2.34134e-08
2.43049e-08
2.51112e-08
2.58789e-08
2.66627e-08
2.7606e-08
2.55014e-08
2.83053e-08
)
;
    }
    outlet
    {
        type            calculated;
        value           nonuniform List<scalar> 0();
    }
    walls
    {
        type            calculated;
        value           uniform 0;
    }
    frontAndBack
    {
        type            empty;
    }
    procBoundary6to2
    {
        type            processor;
        value           nonuniform List<scalar> 
13
(
38.7263
11.8473
4.67932
1.90032
0.601924
0.109495
0.00572431
5.35383e-06
3.84909e-06
0
0
1.29041e-12
5.90839e-10
)
;
    }
    procBoundary6to3
    {
        type            processor;
        value           uniform 1.05213e-09;
    }
    procBoundary6to5
    {
        type            processor;
        value           nonuniform List<scalar> 
86
(
416.587
34.2668
44.1662
37.1695
9.08075
0.0464525
0.0126313
0.00113943
0
0
4.73242e-09
2.16156e-06
4.61406e-06
3.45687e-06
2.75598e-06
2.69902e-06
2.71906e-06
2.61163e-06
2.42337e-06
2.22967e-06
2.05648e-06
1.89979e-06
1.75081e-06
1.60518e-06
1.46289e-06
1.32524e-06
1.19348e-06
1.06863e-06
9.51302e-07
8.41816e-07
7.40503e-07
6.4753e-07
5.62884e-07
5.62884e-07
5.38391e-07
4.61506e-07
3.93349e-07
3.33405e-07
2.81094e-07
2.35787e-07
1.96831e-07
1.63567e-07
1.35351e-07
1.11564e-07
9.16293e-08
7.50132e-08
7.50132e-08
6.45208e-08
5.2411e-08
4.24847e-08
3.43772e-08
2.77763e-08
2.24168e-08
1.80759e-08
1.45671e-08
1.17355e-08
1.17355e-08
9.71643e-09
7.82171e-09
6.29947e-09
5.07719e-09
4.0959e-09
3.30725e-09
2.67166e-09
2.67166e-09
2.1974e-09
1.77284e-09
1.43037e-09
1.15584e-09
9.35337e-10
7.64079e-10
6.39707e-10
6.39707e-10
5.52139e-10
4.71847e-10
3.94975e-10
3.37072e-10
2.65015e-10
2.43368e-10
1.59283e-10
2.11959e-10
1.19826e-10
1.19826e-10
3.14635e-10
4.2071e-10
7.01636e-10
)
;
    }
    procBoundary6to7
    {
        type            processor;
        value           nonuniform List<scalar> 
91
(
6.71403e-10
6.71403e-10
3.87681e-10
3.87681e-10
3.64611e-10
3.64611e-10
6.34836e-11
5.06881e-11
6.34836e-11
1.70843e-10
1.02681e-10
5.06881e-11
1.41701e-10
2.04282e-10
1.57404e-10
1.02681e-10
1.57396e-10
2.72682e-10
2.40093e-10
2.04282e-10
2.03465e-10
4.39185e-10
3.81384e-10
3.29806e-10
2.72682e-10
2.84312e-10
7.0307e-10
6.24328e-10
5.5266e-10
4.87779e-10
4.39185e-10
4.29299e-10
1.12916e-09
1.03705e-09
9.48559e-10
8.64108e-10
7.84158e-10
7.08979e-10
7.0307e-10
6.38767e-10
1.62941e-09
1.57693e-09
1.52174e-09
1.46383e-09
1.40325e-09
1.3402e-09
1.27502e-09
1.20816e-09
1.14012e-09
1.07149e-09
1.0028e-09
1.12916e-09
9.34602e-10
2.87841e-13
5.33859e-16
0
0
4.37715e-07
6.34591e-07
0.000134538
0.00629043
0.0460572
0.144258
0.270958
0.353836
0.334226
0.214205
0.0684036
0.000758626
0.0619566
0.196271
0.276663
0.225196
0.101229
0.0203724
0.001187
2.00252e-06
9.29845e-08
0
0
0
2.71228e-13
9.73482e-11
1.51353e-09
1.86816e-09
1.44483e-09
1.27141e-09
1.25822e-09
1.24571e-09
1.62941e-09
1.21231e-09
)
;
    }
}


// ************************************************************************* //
