/*--------------------------------*- C++ -*----------------------------------*\
| =========                 |                                                 |
| \\      /  F ield         | OpenFOAM: The Open Source CFD Toolbox           |
|  \\    /   O peration     | Version:  2506                                  |
|   \\  /    A nd           | Website:  www.openfoam.com                      |
|    \\/     M anipulation  |                                                 |
\*---------------------------------------------------------------------------*/
FoamFile
{
    version     2.0;
    format      ascii;
    arch        "LSB;label=32;scalar=64";
    class       volVectorField;
    location    "400";
    object      U;
}
// * * * * * * * * * * * * * * * * * * * * * * * * * * * * * * * * * * * * * //

dimensions      [0 1 -1 0 0 0 0];

internalField   nonuniform List<vector> 
1340
(
(13.5771 -2.20854 -5.02603e-16)
(11.731 -2.06536 8.64057e-16)
(9.73143 -1.81431 2.14949e-15)
(3.62748 -1.08788 1.55592e-14)
(17.1185 -2.77937 -4.99533e-15)
(15.1486 -2.63243 1.58e-15)
(13.0635 -2.36433 -6.59184e-16)
(7.02234 -1.47 4.2508e-15)
(20.4308 -3.2133 1.06795e-14)
(18.0242 -3.02185 -2.38989e-15)
(15.5361 -2.65265 -3.71944e-16)
(9.73793 -1.8833 -6.16666e-15)
(24.0044 -3.63024 -2.50229e-15)
(21.0739 -3.39184 3.31702e-15)
(18.0874 -2.90973 6.55598e-16)
(12.3184 -2.20177 3.03071e-15)
(27.5884 -3.97628 3.56963e-16)
(24.2468 -3.73109 4.74808e-16)
(20.788 -3.16226 -4.46954e-17)
(14.9245 -2.46984 -3.72779e-15)
(30.0272 -4.13073 -3.4094e-15)
(27.0859 -3.96962 -4.23951e-15)
(23.5155 -3.38269 -3.57914e-17)
(17.5853 -2.71564 1.01816e-15)
(30.2511 -4.01995 6.92533e-15)
(28.6131 -4.00921 1.10072e-15)
(25.8274 -3.51153 -6.55157e-17)
(20.1988 -2.92691 6.54064e-16)
(29.3624 -3.79841 -7.52188e-15)
(28.5109 -3.85065 1.75487e-15)
(27.1016 -3.48947 2.31907e-16)
(22.4588 -3.06422 1.83658e-15)
(28.8602 -3.62189 2.76297e-15)
(27.8177 -3.64103 -1.48796e-15)
(27.2407 -3.3335 -7.52182e-16)
(23.994 -3.08632 -1.38205e-15)
(28.8611 -3.48975 -1.28684e-15)
(27.4792 -3.4814 1.41212e-15)
(26.8405 -3.13449 2.42808e-16)
(24.7092 -2.99202 -1.67448e-15)
(28.9715 -3.36172 -7.59574e-16)
(27.5274 -3.35904 -1.863e-15)
(26.5192 -2.96179 1.02587e-16)
(24.8893 -2.82137 7.4893e-16)
(29.0096 -3.22283 -1.18257e-15)
(27.6675 -3.23545 -1.2209e-15)
(26.4491 -2.82398 -8.71176e-17)
(24.9071 -2.62524 1.60178e-15)
(28.9895 -3.07593 4.2273e-15)
(27.7461 -3.09613 6.38703e-17)
(26.5163 -2.69893 3.63692e-16)
(24.961 -2.43402 -1.62382e-15)
(28.9583 -2.92473 -5.53503e-15)
(27.7654 -2.94555 1.8657e-15)
(26.5981 -2.57059 1.81659e-16)
(25.0776 -2.25652 1.69915e-15)
(28.9341 -2.76999 4.13465e-15)
(27.7668 -2.79011 -8.90259e-16)
(26.6526 -2.43481 -7.48598e-16)
(25.219 -2.0894 -1.64639e-15)
(28.9149 -2.61121 -3.14465e-16)
(27.7729 -2.63215 8.03316e-17)
(26.6879 -2.29397 8.36945e-16)
(25.3553 -1.92798 4.90638e-16)
(28.8961 -2.44837 -8.07307e-16)
(27.786 -2.47148 3.38391e-16)
(26.7203 -2.15031 1.33908e-17)
(25.4789 -1.77026 -1.47951e-16)
(28.8756 -2.28174 -3.23113e-16)
(27.8019 -2.30764 3.15941e-16)
(26.7572 -2.00479 -7.35009e-16)
(25.593 -1.61604 3.39966e-16)
(28.8535 -2.1117 2.01758e-15)
(27.8175 -2.14076 -7.06215e-16)
(26.7988 -1.85757 -5.47964e-16)
(25.7023 -1.46547 5.06938e-16)
(28.83 -1.93854 -1.99171e-16)
(27.8319 -1.97114 1.42624e-16)
(26.8431 -1.70839 9.94885e-17)
(25.8087 -1.31842 -1.27255e-16)
(28.8051 -1.76262 6.20036e-17)
(27.845 -1.79923 6.43259e-16)
(26.8884 -1.55738 8.86936e-16)
(25.9122 -1.17476 -1.62974e-16)
(28.7786 -1.58433 1.0221e-15)
(27.8568 -1.62548 -6.69002e-16)
(26.934 -1.40474 -2.63759e-16)
(26.0124 -1.03388 -3.76538e-17)
(28.7502 -1.40407 -1.9942e-15)
(27.8673 -1.45027 6.47492e-16)
(26.9792 -1.25077 2.45658e-16)
(26.1087 -0.895564 -3.17584e-17)
(28.7199 -1.22234 2.97593e-16)
(27.876 -1.27397 -3.31984e-16)
(27.0237 -1.09562 -3.312e-16)
(26.2011 -0.75924 3.79412e-17)
(28.6873 -1.03964 3.06091e-16)
(27.8828 -1.09707 9.30482e-16)
(27.067 -0.939708 6.25488e-16)
(26.2892 -0.624719 -1.72932e-16)
(28.6524 -0.856457 5.68396e-16)
(27.8872 -0.91994 -4.54426e-16)
(27.1085 -0.78321 -9.68477e-16)
(26.3729 -0.491667 1.39731e-16)
(28.6151 -0.673455 -5.65392e-16)
(27.8891 -0.743162 -1.41813e-15)
(27.1479 -0.626627 -1.06785e-16)
(26.4521 -0.359992 -1.61773e-16)
(28.5751 -0.491124 -5.02659e-16)
(27.8882 -0.567029 7.78657e-16)
(27.1846 -0.470093 -1.58692e-16)
(26.5267 -0.229387 2.92764e-16)
(28.5325 -0.310073 8.5263e-16)
(27.8843 -0.392167 5.57993e-16)
(27.2182 -0.314117 6.74462e-16)
(26.5964 -0.0997255 -2.46923e-16)
(28.487 -0.130951 -9.64291e-16)
(27.8771 -0.218938 -6.2649e-16)
(27.2482 -0.158941 -3.75619e-16)
(26.6612 0.0291177 5.95183e-16)
(28.4388 0.0457217 1.16281e-15)
(27.8666 -0.0479004 9.49354e-16)
(27.2745 -0.00503136 9.79149e-16)
(26.7208 0.157218 -1.05328e-15)
(28.3878 0.219346 -5.53368e-16)
(27.8526 0.120576 -6.29189e-16)
(27.2965 0.147276 -5.94166e-16)
(26.7751 0.284466 4.32654e-16)
(28.3341 0.389337 -3.04767e-16)
(27.8349 0.285977 8.67915e-16)
(27.3142 0.297641 -2.47876e-16)
(26.8239 0.410845 -2.41172e-16)
(28.7026 0.741975 1.27925e-15)
(28.2776 0.555221 4.86244e-16)
(27.8136 0.447858 -2.74041e-16)
(27.3273 0.445619 1.01234e-15)
(26.8672 0.536197 1.56327e-16)
(28.611 0.899495 -1.41664e-15)
(28.2186 0.716459 5.04916e-16)
(27.7886 0.605835 -1.11875e-15)
(27.3358 0.590886 -7.01022e-16)
(26.9049 0.660322 -5.38327e-16)
(28.5182 1.05136 3.45629e-16)
(28.1572 0.872631 -5.87427e-16)
(27.76 0.759497 2.76939e-16)
(27.3394 0.733086 -1.00398e-17)
(26.9368 0.783013 1.89398e-16)
(28.4245 1.19721 -2.03796e-16)
(28.0935 1.02335 5.62293e-17)
(27.7277 0.908481 7.50899e-16)
(27.3384 0.871886 3.90838e-16)
(26.9631 0.904021 6.44119e-16)
(28.3302 1.33677 6.24661e-16)
(28.0278 1.16827 -9.80428e-17)
(27.6921 1.05245 -7.63704e-16)
(27.3326 1.00695 5.04535e-16)
(26.9837 1.02306 -2.41331e-16)
(28.2357 1.46982 -8.99632e-16)
(27.9602 1.30711 2.12465e-16)
(27.6532 1.19113 7.49977e-16)
(27.3222 1.13799 1.26482e-16)
(26.9987 1.13984 5.45049e-17)
(28.1412 1.59619 -4.14143e-16)
(27.8912 1.43966 -5.36138e-16)
(27.6112 1.32427 -5.61558e-16)
(27.3074 1.26474 -1.17329e-15)
(27.0083 1.25407 -3.07871e-16)
(28.0471 1.71581 3.65227e-16)
(27.8209 1.56576 -3.35842e-17)
(27.5663 1.45166 2.86813e-16)
(27.2883 1.38695 4.84442e-16)
(27.0126 1.36548 -2.30366e-16)
(27.9537 1.82866 4.47602e-16)
(27.7496 1.68531 8.18517e-16)
(27.5189 1.57317 1.08467e-16)
(27.2652 1.50442 3.84979e-16)
(27.0117 1.47375 -1.30052e-17)
(27.8612 1.93476 -4.92096e-17)
(27.6777 1.79828 -3.83461e-16)
(27.4692 1.68867 -4.71994e-16)
(27.2383 1.61697 4.57722e-17)
(27.0061 1.57867 5.83294e-16)
(27.7699 2.03421 -7.28663e-16)
(27.6053 1.90468 2.83253e-16)
(27.4175 1.79813 3.79876e-16)
(27.208 1.72446 -3.59321e-16)
(26.9958 1.67996 -5.84882e-16)
(27.6801 2.12714 2.61135e-17)
(27.5329 2.00459 4.90151e-16)
(27.3641 1.90152 1.00742e-16)
(27.1746 1.8268 3.01761e-16)
(26.9813 1.77744 2.50424e-17)
(27.7027 2.34158 4.43932e-18)
(27.592 2.21373 -9.8743e-17)
(27.4606 2.09812 -1.56784e-16)
(27.3094 1.99889 5.1536e-16)
(27.1383 1.92393 -4.14013e-16)
(26.9629 1.87091 5.89141e-16)
(27.6039 2.41313 1.14496e-16)
(27.5056 2.2942 1.33872e-16)
(27.3887 2.18542 1.4925e-16)
(27.2536 2.09031 -6.72578e-16)
(27.0996 2.01582 4.26053e-17)
(26.9408 1.96023 -5.04213e-16)
(27.5084 2.47922 -8.72208e-17)
(27.4213 2.36878 2.40999e-16)
(27.3175 2.2667 3.42686e-18)
(27.197 2.17591 -2.86795e-16)
(27.0588 2.1025 4.11779e-16)
(26.9155 2.0453 2.04492e-16)
(27.4161 2.54014 -3.13151e-16)
(27.3391 2.43774 -1.66343e-16)
(27.2471 2.34216 -3.67942e-16)
(27.14 2.25582 3.93216e-16)
(27.0162 2.18401 -6.1329e-16)
(26.8872 2.12605 -2.24839e-16)
(27.3271 2.59616 3.70064e-16)
(27.2592 2.50135 6.23767e-17)
(27.1778 2.41206 4.21339e-16)
(27.0827 2.33023 -4.52954e-16)
(26.9721 2.26044 -3.04176e-17)
(26.8564 2.20244 1.51967e-16)
(27.2413 2.64758 -1.48934e-16)
(27.1815 2.55991 1.37353e-16)
(27.1097 2.47664 6.5381e-17)
(27.0255 2.39934 4.6924e-17)
(26.9269 2.3319 1.59124e-16)
(26.8234 2.27448 4.18689e-16)
(27.1588 2.69469 2.48891e-17)
(27.1062 2.61369 -3.4369e-17)
(27.0429 2.53618 -1.32891e-16)
(26.9685 2.46337 3.98216e-17)
(26.8808 2.39854 -1.17624e-16)
(26.7885 2.34219 -3.46223e-16)
(27.0795 2.73776 -6.47972e-16)
(27.0333 2.663 -3.6621e-17)
(26.9776 2.59095 -2.1552e-17)
(26.9119 2.52254 2.40857e-16)
(26.8342 2.46051 3.86744e-16)
(26.752 2.40564 6.23065e-17)
(27.0033 2.77708 1.98472e-16)
(26.9628 2.70812 -7.76995e-17)
(26.9139 2.64124 1.00299e-16)
(26.8561 2.57711 -4.35193e-16)
(26.7872 2.518 -3.12359e-16)
(26.7142 2.46492 -2.96434e-16)
(26.959 2.87751 -1.44954e-16)
(26.9301 2.8129 -2.29271e-16)
(26.8947 2.74932 7.3175e-17)
(26.8518 2.68731 1.62324e-16)
(26.8009 2.62732 2.85834e-16)
(26.7401 2.57119 8.14288e-17)
(26.6755 2.52015 4.90816e-16)
(26.8851 2.90486 2.20646e-16)
(26.8599 2.84549 -1.53294e-16)
(26.8289 2.78689 1.98189e-16)
(26.7914 2.72944 5.33462e-17)
(26.7468 2.67342 -8.49425e-17)
(26.693 2.62029 -2.00626e-16)
(26.636 2.57145 6.27099e-17)
(26.8145 2.92965 -1.60806e-16)
(26.7925 2.87508 3.00754e-16)
(26.7655 2.82108 2.58436e-17)
(26.7327 2.76789 -3.93712e-16)
(26.6936 2.71565 3.86689e-16)
(26.6463 2.6655 -1.93069e-16)
(26.5961 2.61898 -2.09745e-16)
(26.7471 2.95208 -2.47135e-16)
(26.7279 2.9019 -5.77383e-18)
(26.7043 2.85213 -3.48271e-17)
(26.6757 2.80292 4.49616e-16)
(26.6415 2.75427 9.73655e-18)
(26.6 2.70704 -3.22705e-16)
(26.5558 2.66289 5.66645e-16)
(26.6826 2.97232 -5.55057e-17)
(26.6659 2.92615 7.50581e-17)
(26.6454 2.88029 4.58549e-17)
(26.6205 2.83477 -1.22823e-16)
(26.5907 2.7895 2.1326e-16)
(26.5542 2.74511 -2.47825e-16)
(26.5155 2.70336 9.3757e-17)
(26.6209 2.99055 -2.45252e-17)
(26.6064 2.94805 -1.63241e-16)
(26.5886 2.90576 1.94988e-17)
(26.567 2.86366 -9.24874e-17)
(26.541 2.82157 3.51378e-17)
(26.5091 2.77992 -2.38237e-16)
(26.4753 2.74054 2.29209e-16)
(26.5619 3.00691 1.08626e-16)
(26.5494 2.96775 -5.7276e-17)
(26.534 2.92875 -7.49094e-17)
(26.5152 2.88981 3.82361e-16)
(26.4927 2.85071 2.74635e-16)
(26.4648 2.81168 -1.86243e-16)
(26.4353 2.77462 2.01552e-17)
(26.514 3.05788 -1.37956e-17)
(26.5055 3.02157 1.27188e-16)
(26.4947 2.98545 -8.56753e-17)
(26.4814 2.94946 1.32613e-16)
(26.4652 2.91343 -1.32159e-17)
(26.4456 2.8771 5.07043e-17)
(26.4213 2.84057 -3.2745e-17)
(26.3957 2.80578 9.87217e-17)
(26.4591 3.06818 -7.37552e-17)
(26.4518 3.03464 -1.9336e-16)
(26.4425 3.0013 1.60702e-16)
(26.431 2.96805 1.75551e-16)
(26.4169 2.9347 5.53544e-17)
(26.4 2.90096 -2.05364e-16)
(26.3788 2.86679 1.51426e-16)
(26.3566 2.83417 -2.44527e-16)
(26.4069 3.07732 -5.96664e-17)
(26.4006 3.0463 8.63471e-17)
(26.3926 3.01547 9.3123e-18)
(26.3827 2.98472 -2.15521e-16)
(26.3705 2.95384 1.27614e-16)
(26.3559 2.92248 3.96019e-17)
(26.3375 2.89054 1.28833e-16)
(26.3182 2.85999 -3.12388e-17)
(26.3573 3.08533 -1.08055e-16)
(26.3519 3.0566 5.74063e-17)
(26.345 3.02807 -3.18369e-17)
(26.3365 2.9996 -1.48884e-16)
(26.326 2.97097 4.75762e-16)
(26.3134 2.94183 -3.36775e-16)
(26.2974 2.91197 -1.44338e-16)
(26.2808 2.88339 -3.66844e-17)
(26.3101 3.09238 1.25272e-16)
(26.3056 3.06572 -8.17521e-18)
(26.2998 3.03926 5.15394e-17)
(26.2925 3.01287 -1.24441e-16)
(26.2835 2.98631 -8.8739e-17)
(26.2726 2.95921 5.54783e-17)
(26.2588 2.93129 6.96745e-17)
(26.2444 2.90458 9.32354e-17)
(26.2654 3.09835 7.25268e-17)
(26.2616 3.07356 -9.45797e-18)
(26.2567 3.04901 -1.74473e-16)
(26.2505 3.02452 -2.43064e-18)
(26.2429 2.99985 1.39691e-16)
(26.2336 2.97464 -2.85224e-16)
(26.2217 2.94854 6.18965e-17)
(26.2093 2.92357 -1.69258e-16)
(26.2288 3.10275 1.30988e-16)
(26.2255 3.07941 -1.40553e-16)
(26.2212 3.05633 2.27039e-16)
(26.2157 3.03334 -5.96806e-17)
(26.209 3.01019 -7.30493e-17)
(26.2007 2.98651 -6.32726e-17)
(26.1902 2.96194 2.26792e-16)
(26.1792 2.93847 -9.74783e-17)
(26.2014 3.12865 -2.72709e-17)
(26.1992 3.10614 -7.36103e-17)
(26.1962 3.08397 2.62258e-17)
(26.1921 3.06209 4.24088e-17)
(26.1871 3.04032 -1.18329e-16)
(26.1808 3.01841 7.29939e-17)
(26.1732 2.996 2.47738e-16)
(26.1635 2.97272 -3.01857e-16)
(26.1534 2.95056 1.39286e-16)
(26.1713 3.1304 -7.30261e-18)
(26.1694 3.10898 2.22172e-17)
(26.1666 3.08791 -1.5519e-16)
(26.1629 3.06715 8.46318e-17)
(26.1583 3.04653 5.7252e-17)
(26.1525 3.0258 2.78339e-17)
(26.1455 3.00461 -2.09661e-16)
(26.1366 2.98256 7.90411e-17)
(26.1274 2.9616 1.23878e-16)
(26.1408 3.13234 1.75442e-18)
(26.139 3.11209 1.38017e-16)
(26.1366 3.09223 1.15773e-16)
(26.1333 3.07269 -4.28993e-17)
(26.1291 3.05331 3.00817e-17)
(26.1239 3.03383 -7.96377e-17)
(26.1176 3.01392 1.64319e-16)
(26.1094 2.99317 -5.40588e-16)
(26.1009 2.97358 2.37092e-16)
(26.1108 3.13249 1.41426e-19)
(26.1092 3.11308 1.24633e-16)
(26.107 3.09408 -2.60353e-16)
(26.1041 3.07544 -1.63939e-17)
(26.1003 3.05701 1.48195e-16)
(26.0956 3.03853 -1.78183e-16)
(26.0898 3.01968 3.49181e-16)
(26.0825 2.99998 -3.43399e-16)
(26.0751 2.98133 3.48868e-16)
(26.0798 3.13577 -3.31351e-17)
(26.0785 3.11778 -8.72386e-17)
(26.0766 3.1002 1.19647e-16)
(26.0741 3.08295 7.40993e-17)
(26.0708 3.06589 -3.54534e-16)
(26.0667 3.04876 2.37368e-16)
(26.0616 3.03127 2.12922e-16)
(26.0549 3.01306 -9.00958e-17)
(26.0476 2.99615 -1.19957e-16)
(26.0523 3.12985 -1.72006e-17)
(26.0512 3.11195 -2.95709e-17)
(26.0496 3.09453 7.37094e-17)
(26.0474 3.07757 -5.53083e-18)
(26.0443 3.06091 -9.93722e-17)
(26.0405 3.04432 -1.40668e-16)
(26.0359 3.02745 2.12439e-16)
(26.0303 3.00964 -2.66312e-17)
(26.0251 2.99273 4.18169e-17)
(26.0191 3.14336 3.1106e-17)
(26.0183 3.12793 -2.60824e-17)
(26.0172 3.11285 -1.13354e-16)
(26.0156 3.09807 -2.43833e-17)
(26.0134 3.08344 1.76595e-17)
(26.0106 3.06874 2.0821e-17)
(26.0068 3.05373 3.38241e-17)
(26.0009 3.03839 -4.45632e-17)
(25.9938 3.02462 7.93337e-17)
(26.0015 3.1117 -1.84233e-17)
(26.001 3.09419 -5.82126e-17)
(25.9999 3.07738 -2.76725e-17)
(25.9981 3.06121 6.14118e-17)
(25.9957 3.04556 2.01814e-17)
(25.9927 3.03013 -9.55158e-18)
(25.9893 3.01452 1.22953e-16)
(25.9864 2.99754 -6.0935e-17)
(25.985 2.98133 -9.3025e-17)
(25.9556 3.17328 1.58573e-16)
(25.9558 3.16142 -5.82175e-17)
(25.9559 3.14966 1.79834e-17)
(25.9558 3.13797 -1.97259e-16)
(25.9553 3.1263 -5.47937e-17)
(25.9541 3.11453 2.07997e-16)
(25.9517 3.10257 1.4463e-16)
(25.9455 3.09129 -1.77714e-16)
(25.9363 3.08171 2.3713e-17)
(25.9683 3.06241 4.86724e-17)
(25.9693 3.04191 1.29113e-17)
(25.969 3.02279 7.52105e-18)
(25.9682 3.00481 1.12445e-16)
(25.9668 2.9878 -1.34723e-16)
(25.9649 2.97163 1.68655e-16)
(25.9628 2.95587 -1.82829e-17)
(25.9613 2.94003 -1.87673e-16)
(25.964 2.92166 -7.58208e-17)
(25.9702 2.90484 1.79289e-17)
(25.8756 3.29032 7.52151e-18)
(25.8766 3.28482 4.92825e-18)
(25.8781 3.27767 -6.22477e-18)
(25.88 3.27038 -5.64988e-17)
(25.8818 3.26316 -4.24992e-17)
(25.8834 3.25581 2.34099e-17)
(25.884 3.2484 -2.68579e-17)
(25.8827 3.24096 -2.63691e-17)
(25.8735 3.23637 4.36538e-17)
(25.8589 3.23124 6.31543e-17)
(26.0056 2.85598 -3.70116e-18)
(26.0054 2.83161 -8.30255e-17)
(26.007 2.80852 3.75628e-17)
(26.0106 2.78652 2.16319e-16)
(26.0135 2.76563 -3.95216e-16)
(26.0152 2.74572 1.15767e-16)
(26.0173 2.72615 4.10102e-16)
(26.0219 2.70635 -3.92784e-16)
(26.0358 2.68458 6.58576e-17)
(26.058 2.66617 -1.17015e-17)
(12.6986 0.749108 2.55038e-17)
(9.66003 0.435314 -1.1171e-18)
(9.40611 0.191151 -4.1214e-17)
(10.7865 0.0239662 -1.70675e-18)
(12.8954 -0.0706883 6.18706e-18)
(15.3173 -0.119231 -9.13427e-18)
(17.8453 -0.136973 -9.01605e-19)
(20.2648 -0.141677 1.28304e-18)
(22.25 -0.150138 2.52966e-18)
(23.4676 -0.173862 8.78664e-18)
(23.8985 -0.211287 -2.9167e-18)
(23.9697 -0.256948 1.0871e-17)
(24.0487 -0.301852 -2.19006e-18)
(24.2007 -0.337096 2.45457e-18)
(24.3854 -0.358445 -1.05498e-17)
(24.5656 -0.365987 9.08562e-18)
(24.7299 -0.361468 1.35804e-17)
(24.8816 -0.346131 -5.48824e-18)
(25.0258 -0.320934 -1.44964e-17)
(25.1652 -0.286789 4.57398e-18)
(25.2999 -0.244708 1.15416e-18)
(25.4294 -0.195046 2.34364e-17)
(25.5533 -0.139201 -3.10101e-17)
(25.6714 -0.0772311 1.24839e-17)
(25.7837 -0.0102642 -1.7094e-17)
(25.8902 0.0615946 1.04448e-17)
(25.9908 0.137641 -1.6918e-17)
(26.0857 0.217574 1.31548e-19)
(26.1748 0.300873 -1.97406e-17)
(26.2582 0.387046 -2.63474e-17)
(26.3358 0.475777 -9.46193e-18)
(26.4075 0.566614 1.72375e-19)
(26.4735 0.659272 3.86296e-18)
(26.5337 0.753444 6.79956e-19)
(26.5881 0.84876 2.54415e-17)
(26.6366 0.944907 8.15671e-19)
(26.6792 1.04156 1.72795e-18)
(26.7161 1.13833 -1.91997e-17)
(26.7472 1.23488 -2.63195e-18)
(26.7726 1.33083 2.45602e-18)
(26.7924 1.42584 -3.16495e-17)
(26.8069 1.51951 -2.07129e-16)
(26.8161 1.61155 1.24942e-17)
(26.8202 1.70158 2.46776e-17)
(26.8196 1.7893 -1.48988e-17)
(26.8145 1.87445 -4.60889e-18)
(26.8051 1.95675 1.42897e-16)
(26.7919 2.03599 -2.67331e-17)
(26.775 2.112 2.43299e-17)
(26.7549 2.18461 1.87723e-17)
(26.7318 2.25373 -6.94714e-17)
(26.7061 2.31928 1.5673e-16)
(26.6782 2.38123 7.79007e-18)
(26.6483 2.43957 -2.28683e-17)
(26.6167 2.49432 -1.32981e-16)
(26.5838 2.54554 1.01324e-16)
(26.5498 2.5933 7.80234e-19)
(26.515 2.6377 -1.51409e-16)
(26.4796 2.67885 -1.40045e-17)
(26.4437 2.71688 4.55096e-17)
(26.4076 2.75191 -2.70036e-16)
(26.3715 2.78408 6.65526e-17)
(26.3355 2.81353 -2.06503e-19)
(26.2998 2.84043 3.61801e-18)
(26.2647 2.8649 -2.06245e-16)
(26.2305 2.88715 1.04571e-16)
(26.1973 2.90718 -4.27935e-20)
(26.1686 2.92294 6.06864e-18)
(26.1438 2.93582 6.42998e-19)
(26.1188 2.94754 -3.04552e-16)
(26.0931 2.9606 -7.58273e-17)
(26.0685 2.96855 3.0459e-17)
(26.0412 2.98526 8.10853e-17)
(26.0207 2.98065 -2.42079e-19)
(25.988 3.01663 -1.162e-19)
(25.9835 2.96876 5.82452e-19)
(25.9302 3.07799 6.05593e-17)
(25.9726 2.8907 5.04233e-18)
(25.8524 3.23196 -3.19036e-17)
(26.068 2.65489 1.82381e-19)
(18.4329 1.08648 -2.55936e-17)
(15.8076 0.846049 4.48558e-18)
(14.3115 0.604118 2.18632e-17)
(14.1911 0.410747 7.98854e-18)
(15.1405 0.290491 -5.14268e-18)
(16.7313 0.233149 2.4062e-17)
(18.6496 0.226521 6.73079e-18)
(20.6598 0.260961 -1.91732e-18)
(22.5036 0.320974 -4.8465e-17)
(23.8583 0.381909 -6.07131e-17)
(24.4803 0.420058 1.9835e-17)
(24.5489 0.431543 -2.63014e-17)
(24.525 0.431704 -1.02924e-17)
(24.5841 0.431991 -4.59606e-18)
(24.6912 0.432164 1.70887e-17)
(24.8029 0.43113 -1.26039e-17)
(24.9051 0.429484 -1.59231e-17)
(25.0001 0.428426 5.34788e-18)
(25.0932 0.429182 1.1483e-17)
(25.1871 0.432834 -1.88076e-17)
(25.282 0.439951 -1.45007e-17)
(25.3771 0.451513 -5.66152e-18)
(25.4714 0.467532 1.6087e-17)
(25.5644 0.48886 -4.52489e-19)
(25.6557 0.515246 -8.63097e-20)
(25.7449 0.547075 -2.81278e-18)
(25.8315 0.584008 8.89784e-18)
(25.9153 0.626099 -1.2792e-17)
(25.9959 0.673175 7.57929e-18)
(26.073 0.724966 -5.32182e-18)
(26.1464 0.781263 -4.25705e-18)
(26.2158 0.841659 8.53716e-18)
(26.2809 0.905819 -2.51289e-17)
(26.3417 0.973392 4.04433e-19)
(26.398 1.04393 1.89975e-17)
(26.4495 1.11706 2.00348e-17)
(26.4962 1.19238 -1.7879e-17)
(26.5381 1.26942 -2.71163e-17)
(26.5749 1.34782 -2.01288e-18)
(26.6068 1.42712 6.65193e-17)
(26.6337 1.50696 -6.05817e-18)
(26.6556 1.58685 1.85856e-16)
(26.6727 1.66647 1.07867e-17)
(26.6849 1.74539 4.10545e-17)
(26.6926 1.82324 -1.34852e-17)
(26.6957 1.89969 -7.76652e-17)
(26.6946 1.97442 -1.29494e-16)
(26.6895 2.04712 -2.56968e-17)
(26.6805 2.11755 1.96811e-17)
(26.6681 2.18546 3.04491e-17)
(26.6524 2.25069 3.78294e-17)
(26.6338 2.31308 4.00798e-17)
(26.6125 2.3725 3.79477e-17)
(26.5889 2.42888 -8.74323e-18)
(26.5632 2.48217 -2.69498e-18)
(26.5357 2.53236 -2.10632e-16)
(26.5067 2.57945 8.56963e-19)
(26.4764 2.62348 1.2481e-16)
(26.4452 2.66452 5.57034e-18)
(26.4132 2.70263 -4.85145e-17)
(26.3806 2.7379 1.6534e-16)
(26.3476 2.77044 -1.28166e-16)
(26.3144 2.80036 2.53827e-16)
(26.2812 2.82779 4.29628e-18)
(26.2485 2.85284 -5.76917e-17)
(26.2162 2.8757 2.64775e-18)
(26.1848 2.89635 -5.24512e-20)
(26.1576 2.91263 7.49187e-18)
(26.1339 2.92602 7.92664e-19)
(26.11 2.93812 1.85148e-16)
(26.0852 2.95194 7.39606e-17)
(26.0617 2.95993 -3.08173e-17)
(26.0353 2.97805 -8.2371e-17)
(26.0157 2.9725 -8.03525e-17)
(25.984 3.01136 -6.12931e-17)
(25.9795 2.96059 5.2893e-17)
(25.929 3.07515 -6.18038e-17)
(25.9677 2.88265 -3.45065e-18)
(25.8567 3.23079 8.07333e-19)
(21.1402 1.27167 -4.96165e-18)
(19.3322 1.13337 9.20515e-19)
(17.7554 0.963726 -8.906e-19)
(16.8623 0.79792 -1.60244e-18)
(16.8444 0.670371 -1.55959e-17)
(17.6127 0.595038 4.61292e-19)
(18.929 0.569017 -4.64162e-18)
(20.548 0.583916 -4.33035e-18)
(22.2336 0.629125 6.44543e-18)
(23.7174 0.687262 1.99962e-17)
(24.6975 0.733234 -7.39514e-18)
(25.0318 0.748212 -9.46788e-18)
(25.01 0.741113 1.52837e-17)
(24.9996 0.735686 -2.15531e-18)
(25.0642 0.737303 1.6166e-17)
(25.1443 0.742057 -2.68021e-17)
(25.2123 0.748237 -1.013e-17)
(25.2704 0.755677 1.55836e-17)
(25.3256 0.764571 4.00051e-17)
(25.3817 0.775193 1.21524e-17)
(25.4396 0.7874 2.10094e-17)
(25.4991 0.801455 5.05499e-19)
(25.5597 0.817297 -7.04146e-18)
(25.6209 0.835387 -4.11421e-17)
(25.6827 0.855717 3.28822e-17)
(25.7447 0.878739 8.06187e-18)
(25.8068 0.9045 5.36357e-18)
(25.8686 0.933327 1.22633e-17)
(25.9299 0.965407 -1.49775e-17)
(25.9903 1.00084 6.22932e-18)
(26.0494 1.0398 -1.92977e-18)
(26.107 1.08224 1.55469e-18)
(26.1626 1.12814 5.09297e-19)
(26.2159 1.17743 2.53752e-19)
(26.2666 1.2299 7.95967e-18)
(26.3144 1.28538 -1.88103e-17)
(26.359 1.34361 2.39389e-17)
(26.4002 1.40427 2.20738e-18)
(26.4377 1.46708 -1.55964e-18)
(26.4714 1.53166 -6.22098e-17)
(26.5011 1.59767 -3.5976e-17)
(26.5266 1.66471 -1.40836e-16)
(26.5481 1.73245 9.09262e-18)
(26.5654 1.80047 2.92207e-17)
(26.5785 1.86841 1.03089e-17)
(26.5875 1.93591 -1.12945e-17)
(26.5925 2.00264 1.05846e-16)
(26.5936 2.06826 -2.31812e-17)
(26.5911 2.13247 2.58233e-17)
(26.5849 2.195 -2.11005e-17)
(26.5755 2.25562 -1.47452e-17)
(26.5629 2.3141 -1.20529e-17)
(26.5476 2.37027 4.77691e-18)
(26.5296 2.42399 -1.2279e-16)
(26.5092 2.47515 -7.17992e-17)
(26.4868 2.52367 1.82797e-16)
(26.4625 2.56951 8.31973e-19)
(26.4367 2.61264 -2.46547e-16)
(26.4096 2.65307 -1.31297e-17)
(26.3813 2.69084 5.09854e-17)
(26.3522 2.72597 4.4644e-19)
(26.3223 2.75855 6.04537e-17)
(26.292 2.78864 -4.26032e-16)
(26.2614 2.81635 -8.7058e-17)
(26.231 2.84175 2.38737e-16)
(26.2008 2.86503 3.96754e-17)
(26.1713 2.88615 1.51048e-17)
(26.1455 2.90283 7.5349e-18)
(26.123 2.91667 7.9902e-19)
(26.1004 2.92905 1.02691e-16)
(26.0767 2.94356 2.13318e-16)
(26.0543 2.95153 -2.40427e-19)
(26.0289 2.97094 -8.12318e-17)
(26.01 2.96456 1.4021e-16)
(25.98 3.00596 6.09674e-17)
(25.9743 2.95279 1.94999e-16)
(25.9287 3.0718 1.80246e-17)
(25.9608 2.87539 -1.60657e-16)
(22.6116 1.42465 2.6246e-18)
(21.3088 1.34535 2.42998e-19)
(19.965 1.23968 -9.4131e-18)
(18.8585 1.12169 3.28537e-18)
(18.2483 1.01441 3.43777e-18)
(18.2786 0.93833 1.08341e-19)
(18.9262 0.904439 3.36511e-18)
(20.0432 0.912728 -2.56886e-19)
(21.4362 0.956288 1.11126e-18)
(22.8874 1.02269 -1.64502e-17)
(24.138 1.0917 5.63299e-18)
(24.9178 1.13702 -1.08026e-18)
(25.1628 1.14375 1.28348e-17)
(25.1517 1.12734 -1.48687e-17)
(25.1612 1.11138 -5.50585e-18)
(25.2258 1.10163 -1.38505e-17)
(25.2946 1.09499 -1.1915e-18)
(25.349 1.08985 -2.31455e-18)
(25.3957 1.08655 -2.73094e-17)
(25.4417 1.08582 -1.17084e-17)
(25.489 1.08778 -9.12705e-18)
(25.5374 1.09251 -2.4293e-17)
(25.5863 1.09986 2.40214e-17)
(25.6354 1.10995 1.03373e-18)
(25.6846 1.12263 -8.84405e-20)
(25.734 1.13803 -8.46962e-18)
(25.7835 1.15604 -1.56979e-17)
(25.833 1.17674 2.23111e-18)
(25.8824 1.20015 1.80603e-17)
(25.9315 1.22628 -1.78162e-17)
(25.9803 1.2552 3.0737e-18)
(26.0284 1.28691 5.46935e-20)
(26.0757 1.32142 7.42123e-19)
(26.1219 1.35876 -1.50728e-20)
(26.1666 1.39887 8.21262e-18)
(26.2096 1.44169 -1.1039e-17)
(26.2507 1.48712 -6.72672e-19)
(26.2895 1.53501 -1.49523e-17)
(26.3257 1.5852 -2.03275e-17)
(26.3591 1.63746 1.1771e-18)
(26.3895 1.69156 1.143e-17)
(26.4167 1.7472 2.34573e-17)
(26.4405 1.80411 7.66318e-18)
(26.4609 1.86196 1.0656e-17)
(26.4776 1.92044 -1.37996e-17)
(26.4908 1.97921 2.74039e-17)
(26.5003 2.03796 -9.69294e-18)
(26.5063 2.09635 -2.06585e-17)
(26.5087 2.15409 1.95311e-17)
(26.5078 2.21087 5.11711e-17)
(26.5035 2.26644 -3.31755e-17)
(26.4962 2.32055 -1.11271e-17)
(26.4859 2.37298 -4.38013e-17)
(26.4729 2.42355 1.06369e-16)
(26.4573 2.47208 6.66028e-17)
(26.4395 2.51847 -1.77992e-16)
(26.4196 2.5626 7.93878e-19)
(26.3979 2.60441 2.19483e-16)
(26.3746 2.64386 -5.71453e-17)
(26.3499 2.68093 -5.4061e-17)
(26.3241 2.71561 -1.37127e-16)
(26.2973 2.74795 5.59559e-17)
(26.2697 2.77796 3.99371e-16)
(26.2417 2.80574 1.4867e-16)
(26.2135 2.83132 -1.81323e-16)
(26.1854 2.85486 8.79305e-17)
(26.1577 2.87632 -6.55706e-17)
(26.1335 2.89331 7.42845e-18)
(26.1122 2.90752 7.89926e-19)
(26.0906 2.92013 -5.60679e-18)
(26.0681 2.93528 -2.14699e-16)
(26.0467 2.94322 -2.40133e-19)
(26.0225 2.96382 2.03198e-17)
(26.0041 2.95668 -1.36583e-16)
(25.9759 3.00044 2.68328e-16)
(25.9693 2.94509 -4.26319e-18)
(25.9278 3.06827 -8.09929e-19)
(23.7136 1.58131 -1.22481e-18)
(22.7518 1.52812 3.96519e-19)
(21.6638 1.45519 1.50116e-19)
(20.6007 1.36627 6.34872e-19)
(19.7467 1.27384 -3.89154e-18)
(19.2804 1.19339 4.55868e-18)
(19.317 1.13997 -1.82509e-18)
(19.8603 1.12307 -4.68438e-19)
(20.8127 1.14397 3.89209e-18)
(22.0196 1.19719 -9.71531e-18)
(23.2858 1.27085 -1.61344e-18)
(24.3706 1.34484 -1.67584e-17)
(25.0434 1.39446 -1.04238e-17)
(25.2704 1.40803 -2.35883e-18)
(25.2779 1.39984 1.98735e-18)
(25.2876 1.39024 1.28898e-17)
(25.3376 1.38467 2.17616e-18)
(25.3909 1.38066 -6.66612e-18)
(25.4327 1.37655 1.63136e-18)
(25.4694 1.37287 3.22957e-19)
(25.5069 1.37032 7.56923e-18)
(25.5465 1.36931 3.35326e-17)
(25.5871 1.36992 -8.23237e-18)
(25.6283 1.37238 3.79161e-19)
(25.6699 1.37681 -8.3103e-18)
(25.7118 1.38343 1.11814e-19)
(25.7539 1.39235 -5.98562e-19)
(25.7962 1.4037 1.8218e-19)
(25.8386 1.41759 7.64018e-18)
(25.8809 1.43405 -2.69074e-18)
(25.9231 1.45316 4.92321e-18)
(25.9651 1.47494 4.23104e-18)
(26.0065 1.49939 -3.60315e-18)
(26.0473 1.5265 3.86532e-19)
(26.0873 1.55625 6.14324e-18)
(26.1261 1.58859 6.59234e-18)
(26.1637 1.62345 1.06439e-18)
(26.1996 1.66075 -4.3987e-18)
(26.2338 1.70038 2.49156e-17)
(26.266 1.74218 -3.82095e-18)
(26.2959 1.786 -6.22352e-18)
(26.3233 1.83163 1.0276e-17)
(26.348 1.87888 1.85118e-17)
(26.3699 1.92747 2.98863e-17)
(26.3888 1.97716 -4.17849e-17)
(26.4046 2.02767 5.23414e-18)
(26.4173 2.07871 -8.56612e-18)
(26.4268 2.13 -1.84852e-17)
(26.433 2.18125 1.76848e-17)
(26.4361 2.23216 -2.60716e-18)
(26.4361 2.28247 -4.16198e-17)
(26.433 2.33192 -1.04053e-17)
(26.4271 2.38028 9.28436e-18)
(26.4183 2.42731 -7.43228e-18)
(26.407 2.47284 -2.34232e-18)
(26.3933 2.5167 1.52389e-16)
(26.3774 2.55874 7.75188e-19)
(26.3595 2.59886 -1.15015e-16)
(26.3398 2.63697 2.70683e-19)
(26.3185 2.67302 -1.57002e-18)
(26.2958 2.70696 9.12512e-18)
(26.272 2.73878 -3.73231e-18)
(26.2471 2.76848 -2.27389e-16)
(26.2216 2.79611 -8.04868e-17)
(26.1957 2.82168 1.63902e-16)
(26.1696 2.84532 -8.56005e-17)
(26.1438 2.86699 5.02236e-17)
(26.1211 2.88418 1.12117e-16)
(26.101 2.89869 -1.4453e-16)
(26.0806 2.91146 -2.64957e-16)
(26.0592 2.92717 -9.83036e-19)
(26.0388 2.93504 -2.50577e-19)
(26.0157 2.95675 -7.44796e-17)
(25.998 2.94888 7.51337e-17)
(25.9714 2.99488 -7.18999e-18)
(25.9642 2.9375 -4.36771e-18)
(24.5526 1.72517 -6.37202e-20)
(23.8717 1.68838 2.98945e-19)
(23.0208 1.63581 1.50139e-18)
(22.0918 1.5676 5.2582e-19)
(21.2018 1.49032 3.25464e-18)
(20.4893 1.41305 -2.97464e-18)
(20.0924 1.34752 6.85418e-19)
(20.1099 1.30592 -3.91779e-19)
(20.5607 1.29657 1.08895e-17)
(21.3784 1.32129 1.73454e-17)
(22.4366 1.37558 -1.4904e-18)
(23.561 1.44834 1.00851e-18)
(24.5331 1.52075 4.41906e-18)
(25.1555 1.57093 1.206e-17)
(25.3936 1.58893 2.27001e-18)
(25.4207 1.58613 -2.13195e-18)
(25.4261 1.58017 -1.93448e-18)
(25.4604 1.57742 1.10264e-18)
(25.5005 1.5763 2.74151e-18)
(25.5327 1.5753 8.45854e-18)
(25.5608 1.57444 2.04598e-18)
(25.5899 1.5743 -2.42549e-18)
(25.6209 1.57509 -1.06565e-17)
(25.6528 1.5769 2.8398e-17)
(25.6852 1.57978 -1.56822e-17)
(25.718 1.58389 -5.02701e-19)
(25.7514 1.58939 8.63076e-19)
(25.7853 1.59643 -9.51573e-20)
(25.8197 1.6052 -6.4196e-18)
(25.8544 1.61582 -4.72175e-19)
(25.8894 1.62843 -1.07567e-17)
(25.9245 1.64316 8.88534e-19)
(25.9597 1.66009 4.16809e-18)
(25.9947 1.67931 2.29527e-19)
(26.0294 1.70085 3.93007e-18)
(26.0635 1.72475 2.62624e-18)
(26.0969 1.751 -7.55891e-18)
(26.1294 1.77956 -1.03782e-17)
(26.1606 1.8104 -1.48222e-17)
(26.1905 1.8434 8.60535e-18)
(26.2187 1.87848 6.66839e-18)
(26.2451 1.91548 1.52281e-17)
(26.2695 1.95428 -6.73258e-18)
(26.2916 1.99466 -2.04055e-17)
(26.3113 2.03643 -4.70074e-18)
(26.3285 2.07938 1.52545e-17)
(26.343 2.12325 -7.49309e-18)
(26.3548 2.1678 -1.63941e-17)
(26.3637 2.21278 1.58908e-17)
(26.3697 2.25792 2.76561e-17)
(26.3729 2.30296 3.70138e-17)
(26.3733 2.34765 -9.6873e-18)
(26.3709 2.39176 4.67961e-17)
(26.3658 2.43504 -7.06444e-18)
(26.3581 2.47729 -2.24786e-18)
(26.3481 2.51832 -1.47868e-16)
(26.3357 2.55797 7.57208e-19)
(26.3213 2.59608 8.93953e-17)
(26.3049 2.63255 5.27692e-17)
(26.2868 2.66728 -1.56942e-18)
(26.2671 2.70018 2.01162e-16)
(26.2461 2.73123 -3.7806e-18)
(26.2239 2.76038 -2.43925e-19)
(26.2008 2.78765 -4.13003e-17)
(26.1771 2.81302 -8.85348e-18)
(26.1531 2.83658 -3.08092e-17)
(26.1292 2.85831 -5.56753e-20)
(26.108 2.87558 -9.61018e-17)
(26.0891 2.89031 1.45763e-16)
(26.0699 2.90315 4.14767e-18)
(26.0497 2.91934 -1.41106e-16)
(26.0303 2.92709 4.83785e-17)
(26.0085 2.94983 1.31517e-16)
(25.9915 2.94126 -3.90914e-19)
(25.1109 1.8517 -4.90616e-19)
(24.6911 1.82887 2.38899e-19)
(24.0743 1.79266 3.30229e-19)
(23.3195 1.74183 3.52301e-19)
(22.504 1.67992 1.55925e-19)
(21.724 1.61181 -4.62077e-20)
(21.0918 1.5448 4.33859e-19)
(20.7229 1.48885 -2.47701e-19)
(20.7068 1.4544 -4.15725e-19)
(21.0725 1.44905 -1.20433e-18)
(21.7755 1.47498 3.47488e-19)
(22.7114 1.52846 -8.8981e-19)
(23.7244 1.59919 1.67834e-18)
(24.6197 1.66991 -2.92022e-19)
(25.2218 1.72105 1.35069e-18)
(25.4834 1.7428 4.35092e-19)
(25.532 1.74325 -2.54591e-18)
(25.5342 1.73816 7.52559e-19)
(25.5554 1.73524 1.93299e-18)
(25.5862 1.73429 -5.88661e-19)
(25.6132 1.73386 -1.25406e-18)
(25.6369 1.73368 -1.94612e-18)
(25.6609 1.73413 1.6079e-18)
(25.6861 1.73544 -1.24196e-18)
(25.712 1.73765 1.52882e-18)
(25.7381 1.7408 -5.5792e-19)
(25.7645 1.74498 4.9236e-18)
(25.7913 1.75028 -3.95858e-18)