/*--------------------------------*- C++ -*----------------------------------*\
| =========                 |                                                 |
| \\      /  F ield         | OpenFOAM: The Open Source CFD Toolbox           |
|  \\    /   O peration     | Version:  2506                                  |
|   \\  /    A nd           | Website:  www.openfoam.com                      |
|    \\/     M anipulation  |                                                 |
\*---------------------------------------------------------------------------*/
FoamFile
{
    version     2.0;
    format      ascii;
    arch        "LSB;label=32;scalar=64";
    class       volScalarField;
    location    "150";
    object      magR;
}
// * * * * * * * * * * * * * * * * * * * * * * * * * * * * * * * * * * * * * //

dimensions      [0 2 -2 0 0 0 0];

internalField   nonuniform List<scalar> 
10720
(
0.0215429
0.0251772
0.0298375
0.0361589
0.0436704
0.0532477
0.0655113
0.080726
0.100035
0.12467
0.156252
0.198282
0.254538
0.33174
0.44089
0.601279
0.842242
1.22854
1.84315
2.97532
4.85494
9.18736
17.2088
40.7579
55.4419
56.7066
55.1915
54.6651
54.6807
54.1944
52.7853
50.5159
47.5058
43.8216
39.3844
34.2316
27.5817
20.7355
7.35256
0.018308
0.0156758
0.0127374
0.010217
0.00784918
0.00573235
0.00410052
0.00328534
0.00382617
0.00538637
0.00802297
0.0119972
0.0177958
0.0261376
0.0379298
0.0546071
0.0786352
0.114581
0.170971
0.262833
0.421599
0.700728
1.24297
2.26742
4.5735
9.26535
21.0105
41.6171
57.0554
63.3611
65.0863
65.3255
64.8991
63.9411
62.4981
60.6512
57.964
54.845
45.0177
0.00351637
0.00350029
0.00346187
0.00336505
0.00321485
0.00304009
0.0028326
0.00259857
0.00236577
0.00213476
0.00191958
0.00173086
0.00164575
0.00173154
0.00211178
0.00314115
0.00567514
0.0117362
0.0261339
0.0663069
0.167984
0.513244
1.34011
4.3455
9.49734
15.196
20.762
25.3762
27.7385
27.0585
23.993
20.1577
16.7498
14.0697
12.0349
10.4577
9.37099
8.44605
9.27188
0.0034821
0.00343031
0.00333236
0.00318866
0.00298973
0.00272533
0.00243126
0.00215995
0.0018903
0.00161584
0.00136148
0.00114207
0.000954706
0.000793915
0.000656873
0.000541474
0.000443702
0.000361087
0.000288567
0.000222136
0.000155972
9.08832e-05
3.14276e-05
4.43006e-06
4.98589e-05
0.00235531
0.013836
0.102041
0.318922
0.60163
0.883947
1.12968
1.33433
1.51268
1.67832
1.84904
2.02872
2.44011
3.39809
0.00236867
0.00234546
0.00228843
0.0022031
0.00211354
0.00201464
0.00191384
0.00182256
0.00174364
0.00168103
0.00163373
0.00159847
0.00158458
0.0015855
0.00160576
0.00158132
0.00140576
0.0011926
0.000686299
0.00636349
0.0124259
0.0100654
0.0280066
0.00110141
0.0656315
0.247142
0.703429
1.80243
4.0778
7.71173
11.9922
15.3427
16.5458
15.8017
14.1366
12.2791
10.7553
9.08773
10.3953
0.00238929
0.00238816
0.00238259
0.00234195
0.00226468
0.00212952
0.00195073
0.00176019
0.00157955
0.00138299
0.00117549
0.000977499
0.000800638
0.000647884
0.000522107
0.000421399
0.000343715
0.000285392
0.000243508
0.000213926
0.000193966
0.000181587
0.000175486
0.000173184
0.000174338
0.000174175
0.000183039
0.000103953
0.00102105
0.00587671
0.0158534
0.0337216
0.0766928
0.157907
0.274672
0.414818
0.564501
0.667048
1.14434
0.0019842
0.00198836
0.00197828
0.00196115
0.0019272
0.00187662
0.00181364
0.00173532
0.0016459
0.00154702
0.00144146
0.00133199
0.00121885
0.00110223
0.000984966
0.000861549
0.00073411
0.000621518
0.000494652
0.000342883
3.55201e-05
0.000890535
1.59674e-07
0.00314264
0.0179475
0.0341976
0.061499
0.0421117
0.0283382
0.0459294
0.456257
1.83314
4.50419
7.76512
10.2315
11.1679
11.1066
10.1285
11.1526
0.00196324
0.00193206
0.00188351
0.00182465
0.00174864
0.00164814
0.00153197
0.00141028
0.00127903
0.00113551
0.000990651
0.000856387
0.000737435
0.00063415
0.000546654
0.000473328
0.000412993
0.000363813
0.000324347
0.000292199
0.000266068
0.000244056
0.000224237
0.000203208
0.00018144
0.000163451
0.000149712
0.00014065
0.000124904
0.000118958
6.22216e-05
4.76391e-05
0.000451801
0.000709714
0.0033826
0.0166113
0.0524774
0.128942
0.459197
0.00149733
0.00149405
0.00148177
0.00146013
0.00142741
0.00138314
0.00132964
0.0012677
0.00119931
0.00112845
0.0010576
0.00098939
0.000926451
0.000871063
0.00082429
0.000787185
0.000750891
0.000708112
0.000657757
0.000608326
0.000468126
0.00019012
2.5738e-06
7.63796e-06
1.61419e-07
0
0
0.0119306
0.0171993
0.0396601
0.0349388
0.0612809
0.0677297
0.501198
2.26016
5.1173
7.87311
9.35024
11.1199
0.00149324
0.00148273
0.00146173
0.00142797
0.00137873
0.00131064
0.00123132
0.00114629
0.00105337
0.000951734
0.00084693
0.000744676
0.000648267
0.000559365
0.000479459
0.000409268
0.000349037
0.000298488
0.000257055
0.000223463
0.000196572
0.000174849
0.000156687
0.0001394
0.000121736
0.000105343
9.24933e-05
8.3733e-05
8.0599e-05
7.34733e-05
9.57695e-05
1.20051e-05
0.000169278
0.000764007
0.000254846
0.000725005
0.00183942
0.00455194
0.0903382
0.00122295
0.0012278
0.00122701
0.00122198
0.00120974
0.0011901
0.00116378
0.00112997
0.0010893
0.00104287
0.000991108
0.000935202
0.00087649
0.000816006
0.000755043
0.000693458
0.000626988
0.00055696
0.000489983
0.000429077
0.000381418
0.000331465
0.000256736
9.80696e-05
1.9511e-06
7.56642e-06
4.81426e-06
1.40546e-06
0
0
0.00507313
0.0151551
0.00575306
0.0409212
0.108583
0.440084
2.52255
5.97927
9.63776
0.0012122
0.0011975
0.00117601
0.00114703
0.00110813
0.0010583
0.00100262
0.00094189
0.000874361
0.000800536
0.000723713
0.00064742
0.000574414
0.000506266
0.000444225
0.0003892
0.000341449
0.000300801
0.000266791
0.000238498
0.000214925
0.000194792
0.000176652
0.00015847
0.000139376
0.000121084
0.000105069
9.16463e-05
8.03832e-05
7.0984e-05
6.28715e-05
5.46961e-05
4.56842e-05
2.54404e-05
2.462e-05
9.79058e-05
0.000324283
0.00105023
0.0106294
0.0009903
0.000994435
0.000994903
0.000992021
0.000984058
0.000970358
0.000951172
0.000926017
0.000895048
0.000859113
0.000818807
0.000775152
0.000729457
0.000682887
0.000636747
0.00059214
0.00055137
0.000514316
0.000477645
0.000439451
0.000400998
0.000366748
0.000335517
0.000289178
0.00022646
0.000153245
8.99538e-05
2.23877e-05
5.67827e-06
2.44655e-06
0
0
0.000459709
0.00674413
0.0450434
0.0561229
0.147735
1.94452
6.445
0.000982172
0.000971452
0.000955788
0.00093368
0.000904174
0.000867356
0.000827012
0.000782375
0.000732447
0.000678268
0.000621529
0.000564179
0.000507936
0.000453874
0.000403075
0.000356404
0.000314359
0.000277222
0.000244999
0.000217318
0.000193659
0.000173227
0.000154978
0.000137432
0.000119745
0.000102887
8.8067e-05
7.56246e-05
6.53101e-05
5.69826e-05
5.08375e-05
4.68643e-05
4.40903e-05
4.09948e-05
2.93173e-05
6.68663e-06
1.3701e-06
1.6559e-07
0.000447291
0.000819702
0.000825122
0.000828282
0.000829237
0.000826962
0.000820749
0.000810764
0.000796429
0.000777709
0.000755005
0.000728277
0.000698014
0.000664862
0.000629311
0.000592019
0.000553775
0.000514667
0.000473297
0.000430744
0.000389532
0.000351743
0.000319116
0.000293513
0.000271531
0.000250084
0.000220912
0.000186266
0.000144069
9.8424e-05
4.59941e-05
4.85636e-06
1.66796e-06
0
0
0
0.0102043
0.00626645
0.221894
2.89524
0.000811478
0.000801639
0.000788517
0.00077039
0.00074728
0.000719422
0.000689311
0.000655773
0.000618364
0.00057801
0.000535515
0.000492134
0.000448885
0.000406562
0.000365999
0.000328013
0.000293132
0.000261787
0.000234104
0.000209939
0.000188903
0.000170375
0.000153508
0.000137186
0.000120795
0.000105027
9.0819e-05
7.8465e-05
6.76884e-05
5.82567e-05
5.01248e-05
4.31019e-05
3.70183e-05
3.18536e-05
2.79429e-05
2.31569e-05
1.51633e-05
1.7533e-06
3.94087e-05
0.000683489
0.000688766
0.000692677
0.000694905
0.000694847
0.000691917
0.000686119
0.00067689
0.000664126
0.000647958
0.000628317
0.000605488
0.000579844
0.000551838
0.000522006
0.000490949
0.000459171
0.000427784
0.000397191
0.000367222
0.000338018
0.00031024
0.000284963
0.000261345
0.000238083
0.000214133
0.00018962
0.000168395
0.000147947
0.000123201
8.70958e-05
3.58803e-05
3.91202e-06
4.19304e-07
0
0
0.00121772
0.0199044
0.801571
0.000676215
0.000667898
0.000657233
0.00064241
0.000624115
0.000602837
0.000579802
0.000554085
0.000525673
0.000495253
0.000463139
0.000430102
0.000396739
0.000363548
0.000331078
0.000299943
0.00027068
0.000243643
0.000219104
0.0001971
0.000177452
0.000159789
0.000143518
0.000127886
0.000112454
9.76743e-05
8.43002e-05
7.26196e-05
6.25139e-05
5.37924e-05
4.64282e-05
4.04848e-05
3.59038e-05
3.26552e-05
3.06795e-05
3.07998e-05
3.27137e-05
3.1457e-05
1.06434e-06
0.000575799
0.000580974
0.000585384
0.000588689
0.000590239
0.000589818
0.000587363
0.000582343
0.000574642
0.000564297
0.000551059
0.000535124
0.000516663
0.000495882
0.000473113
0.000448663
0.000423036
0.000396366
0.000368562
0.000340442
0.000313315
0.000288126
0.000265376
0.000244164
0.000222384
0.000199103
0.000175703
0.000155558
0.000140243
0.000128603
0.000119667
0.000101027
6.87096e-05
8.72979e-06
1.2622e-06
0
0
0.00679916
0.187027
0.000569114
0.000561874
0.000552932
0.000540645
0.000525952
0.00050942
0.000491439
0.000471447
0.000449622
0.000426376
0.000401871
0.000376554
0.000350725
0.000324667
0.000298766
0.00027349
0.000249233
0.000226371
0.000205186
0.000185778
0.00016813
0.000151984
0.000136933
0.00012249
0.000108309
9.47009e-05
8.22739e-05
7.12703e-05
6.16152e-05
5.31308e-05
4.57711e-05
3.94763e-05
3.41857e-05
2.99693e-05
2.67782e-05
2.59213e-05
2.50825e-05
4.11343e-05
1.41411e-05
0.000488625
0.000493543
0.00049799
0.000501634
0.000504091
0.000505088
0.000504402
0.000501867
0.000497291
0.000490566
0.000481488
0.000470055
0.000456391
0.000440571
0.000422821
0.000403367
0.000382513
0.000360716
0.000338329
0.000315719
0.000293452
0.000272009
0.000251722
0.000232242
0.000212222
0.00019063
0.000168491
0.000148155
0.000131681
0.000119045
0.00011033
0.000104467
9.94726e-05
7.97331e-05
2.21639e-05
1.45625e-06
0
0.000917972
0.0590201
0.000482617
0.000476285
0.000468797
0.00045856
0.000446629
0.000433552
0.000419283
0.000403562
0.000386638
0.000368667
0.000349803
0.000330242
0.000310178
0.000289714
0.000269075
0.000248608
0.000228564
0.00020928
0.000190997
0.000173876
0.000157951
0.000143109
0.0001291
0.000115598
0.000102417
8.97916e-05
7.81614e-05
6.77997e-05
5.86466e-05
5.06158e-05
4.36779e-05
3.7814e-05
3.3061e-05
2.94408e-05
2.68572e-05
2.63505e-05
2.56406e-05
3.57885e-05
4.16803e-05
0.000417444
0.000422056
0.000426416
0.000430182
0.000433092
0.000434964
0.000435682
0.000434925
0.000432474
0.000428341
0.00042252
0.000414689
0.000404915
0.000393256
0.000379817
0.000364719
0.000348169
0.000330539
0.000311881
0.000292488
0.000273019
0.000254118
0.000236052
0.000218573
0.000200682
0.000181554
0.000161768
0.00014314
0.000127173
0.000114125
0.000103627
9.60175e-05
9.14509e-05
9.23485e-05
8.1578e-05
2.31542e-05
4.14569e-08
0.00026798
0.0189681
0.000412024
0.000406488
0.000400113
0.000391534
0.000381764
0.000371221
0.000359783
0.000347258
0.000334016
0.000320023
0.000305328
0.000290129
0.000274466
0.000258343
0.000241928
0.00022541
0.000208943
0.000192778
0.000177131
0.000162202
0.000148037
0.000134618
0.00012179
0.000109359
9.72538e-05
8.56426e-05
7.48798e-05
6.52015e-05
5.65865e-05
4.89655e-05
4.23052e-05
3.6638e-05
3.18767e-05
2.81285e-05
2.53554e-05
2.44226e-05
2.41262e-05
3.01817e-05
4.67357e-05
0.000358634
0.000362902
0.000367051
0.00037078
0.000373859
0.000376203
0.000377717
0.000378087
0.000377209
0.000374887
0.000371114
0.000365941
0.000358996
0.000350396
0.000340209
0.00032849
0.000315367
0.000301095
0.000285865
0.000269915
0.000253606
0.00023742
0.00022158
0.000205929
0.000189817
0.000172725
0.000155057
0.000138241
0.00012352
0.000111151
0.000100709
9.20821e-05
8.52143e-05
8.24292e-05
8.44555e-05
8.68064e-05
1.06502e-07
2.22849e-05
0.00464721
0.000353822
0.000348914
0.000343441
0.000336217
0.000328153
0.000319551
0.000310263
0.000300198
0.000289694
0.000278769
0.000267197
0.000255289
0.000243003
0.000230311
0.000217238
0.000203897
0.000190405
0.000176939
0.000163655
0.000150692
0.00013816
0.000126083
0.000114387
0.000102987
9.18685e-05
8.11915e-05
7.12301e-05
6.21807e-05
5.4071e-05
4.68726e-05
4.05634e-05
3.51598e-05
3.0667e-05
2.71279e-05
2.452e-05
2.35469e-05
2.33529e-05
2.7686e-05
4.29931e-05
0.000309659
0.00031356
0.000317449
0.000321017
0.000324136
0.000326761
0.000328713
0.000329818
0.000329935
0.000329049
0.000326805
0.000323402
0.000318721
0.00031254
0.000304953
0.000296008
0.000285769
0.000274363
0.000262013
0.000248795
0.00023498
0.000221075
0.000207235
0.000193368
0.000179021
0.000163833
0.000148127
0.000132986
0.000119518
0.00010806
9.82887e-05
8.99861e-05
8.29058e-05
7.78971e-05
7.41036e-05
8.99554e-05
4.94167e-05
2.44308e-07
0.000186258
0.000305345
0.000301013
0.000296278
0.000290154
0.000283459
0.000276359
0.000268717
0.000260572
0.000252173
0.000243461
0.000234394
0.000224976
0.000215318
0.000205267
0.000194853
0.0001841
0.000173091
0.000161899
0.000150661
0.0001395
0.000128506
0.000117732
0.000107154
9.67836e-05
8.66518e-05
7.68799e-05
6.77068e-05
5.93022e-05
5.17201e-05
4.49319e-05
3.89587e-05
3.37902e-05
2.94441e-05
2.59696e-05
2.33708e-05
2.22576e-05
2.19295e-05
2.55671e-05
3.85148e-05
0.000268517
0.000272063
0.000275688
0.000279038
0.000282105
0.00028482
0.000287012
0.000288558
0.000289354
0.000289336
0.000288301
0.000286203
0.000283175
0.000278817
0.000273236
0.000266482
0.000258549
0.000249517
0.000239593
0.000228787
0.000217273
0.000205468
0.000193496
0.000181322
0.000168634
0.000155188
0.000141231
0.000127614
0.000115318
0.000104696
9.55708e-05
8.77943e-05
8.11815e-05
7.61679e-05
7.11369e-05
7.31316e-05
9.27034e-05
7.60743e-07
1.0393e-05
0.000264637
0.000260839
0.000256712
0.00025149
0.000245871
0.000239968
0.000233635
0.00022699
0.00022019
0.000213183
0.000206076
0.00019856
0.000190904
0.000182939
0.000174622
0.000165974
0.000156977
0.000147701
0.000138244
0.000128675
0.000119097
0.000109557
0.000100079
9.06879e-05
8.14636e-05
7.25509e-05
6.41221e-05
5.63332e-05
4.92561e-05
4.28819e-05
3.72152e-05
3.23188e-05
2.81597e-05
2.48216e-05
2.22844e-05
2.11121e-05
2.06651e-05
2.36201e-05
3.46045e-05
0.000233732
0.000236945
0.00024027
0.0002434
0.000246339
0.000249029
0.000251356
0.00025316
0.000254396
0.000254971
0.000254814
0.000253687
0.000251712
0.000248868
0.000244862
0.000239849
0.00023378
0.000226703
0.000218773
0.000209983
0.000200462
0.000190472
0.000180201
0.000169607
0.000158496
0.000146661
0.000134322
0.000122172
0.000111005
0.000101174
9.26559e-05
8.53411e-05
7.91779e-05
7.42874e-05
7.08939e-05
6.44368e-05
9.45783e-05
7.09102e-06
6.29856e-09
0.000230279
0.000226887
0.000223287
0.000218812
0.000214063
0.000209102
0.000203803
0.00019834
0.00019278
0.000187203
0.000181414
0.000175521
0.000169396
0.000163047
0.000156391
0.00014939
0.00014205
0.000134392
0.000126454
0.000118301
0.000110009
0.000101616
9.31645e-05
8.47262e-05
7.63884e-05
6.82823e-05
6.05683e-05
5.33807e-05
4.67828e-05
4.08158e-05
3.54733e-05
3.08128e-05
2.68428e-05
2.36018e-05
2.10952e-05
1.98515e-05
1.93085e-05
2.16705e-05
3.10879e-05
0.000204133
0.000207047
0.000210077
0.000212981
0.000215745
0.000218355
0.0002207
0.000222656
0.000224143
0.000225121
0.000225474
0.00022518
0.000223995
0.000222144
0.000219441
0.000215751
0.000211183
0.000205705
0.000199418
0.000192347
0.000184545
0.000176182
0.000167436
0.000158303
0.000148635
0.000138297
0.000127456
0.000116674
0.000106572
9.75575e-05
8.96375e-05
8.27607e-05
7.69616e-05
7.21564e-05
6.95801e-05
6.31636e-05
7.83489e-05
4.6964e-05
1.22544e-06
0.000201049
0.000198038
0.000194877
0.000191017
0.00018698
0.000182765
0.000178312
0.000173776
0.000169239
0.000164679
0.000159994
0.000155356
0.000150399
0.000145309
0.000139948
0.000134299
0.000128306
0.000121991
0.000115361
0.00010845
0.000101306
9.39669e-05
8.64798e-05
7.89289e-05
7.14202e-05
6.40751e-05
5.70356e-05
5.04201e-05
4.43015e-05
3.87176e-05
3.37004e-05
2.92841e-05
2.5485e-05
2.23513e-05
1.99122e-05
1.85958e-05
1.79727e-05
1.98128e-05
2.78463e-05
0.000178807
0.000181431
0.000184186
0.000186875
0.000189453
0.000191966
0.000194258
0.000196243
0.000197886
0.000199097
0.000199821
0.000200034
0.000199566
0.000198408
0.000196688
0.000194048
0.000190662
0.000186498
0.00018158
0.000175957
0.000169609
0.00016266
0.000155275
0.000147466
0.000139118
0.000130134
0.00012066
0.000111124
0.000102054
9.3828e-05
8.65121e-05
8.00846e-05
7.46155e-05
7.00426e-05
6.7222e-05
6.3528e-05
6.56631e-05
7.11274e-05
1.562e-05
0.000176056
0.000173362
0.000170591
0.000167248
0.000163795
0.000160182
0.000156426
0.000152643
0.000148881
0.000145112
0.000141384
0.000137574
0.000133636
0.000129506
0.00012518
0.000120596
0.000115706
0.000110511
0.000104982
9.91401e-05
9.30206e-05
8.6646e-05
8.00624e-05
7.3332e-05
6.65784e-05
5.99501e-05
5.35573e-05
4.74968e-05
4.18376e-05
3.66435e-05
3.19324e-05
2.7757e-05
2.41323e-05
2.11103e-05
1.87129e-05
1.73321e-05
1.66303e-05
1.80369e-05
2.48584e-05
0.000157032
0.000159396
0.000161905
0.000164347
0.000166775
0.000169142
0.000171339
0.000173308
0.000175018
0.000176363
0.000177342
0.000177858
0.000177938
0.000177326
0.000176237
0.000174516
0.00017206
0.000168928
0.000165129
0.000160695
0.000155595
0.000149876
0.000143711
0.000137097
0.000129947
0.000122188
0.000113946
0.000105566
9.74802e-05
9.0008e-05
8.32861e-05
7.7314e-05
7.21704e-05
6.79027e-05
6.46917e-05
6.27811e-05
5.98321e-05
7.05983e-05
4.26119e-05
0.000154573
0.000152168
0.000149717
0.000146827
0.000143846
0.000140732
0.000137541
0.000134362
0.000131229
0.000128118
0.000125061
0.000121935
0.000118801
0.000115415
0.000111921
0.000108204
0.000104224
9.99352e-05
9.53411e-05
9.04281e-05
8.51927e-05
7.96604e-05
7.38789e-05
6.7919e-05
6.18987e-05
5.59375e-05
5.01426e-05
4.46134e-05
3.94054e-05
3.45781e-05
3.01706e-05
2.62229e-05
2.27805e-05
1.98706e-05
1.75153e-05
1.60767e-05
1.52998e-05
1.63446e-05
2.2097e-05
0.000138232
0.000140353
0.000142643
0.000144871
0.000147119
0.000149326
0.000151421
0.000153337
0.000155025
0.000156468
0.000157584
0.000158339
0.000158714
0.000158614
0.000157978
0.000156933
0.000155207
0.000152904
0.000150019
0.000146562
0.000142509
0.00013786
0.000132743
0.000127194
0.000121119
0.000114473
0.000107356
0.000100028
9.28582e-05
8.61255e-05
7.9976e-05
7.4463e-05
6.96381e-05
6.56549e-05
6.23351e-05
6.08413e-05
5.75307e-05
6.29184e-05
5.73576e-05
0.000136036
0.00013389
0.000131711
0.000129193
0.000126608
0.000123926
0.000121185
0.000118487
0.000115862
0.000113281
0.00011073
0.000108194
0.000105632
0.000102898
0.000100054
9.70419e-05
9.37734e-05
9.02425e-05
8.64182e-05
8.22685e-05
7.78023e-05
7.30426e-05
6.79948e-05
6.2734e-05
5.73857e-05
5.2044e-05
4.68096e-05
4.17711e-05
3.69996e-05
3.25232e-05
2.84156e-05
2.47014e-05
2.14198e-05
1.8619e-05
1.63144e-05
1.48222e-05
1.39833e-05
1.47395e-05
1.95656e-05
0.000121935
0.000123848
0.000125914
0.00012797
0.00013002
0.000132073
0.000134045
0.000135871
0.000137533
0.000138994
0.000140178
0.000141101
0.000141666
0.000141923
0.000141666
0.000141056
0.000139959
0.000138306
0.000136153
0.000133522
0.00013033
0.000126587
0.000122385
0.000117768
0.000112665
0.000107015
0.000100898
9.45285e-05
8.82043e-05
8.21843e-05
7.65968e-05
7.15377e-05
6.70392e-05
6.32964e-05
6.00795e-05
5.83749e-05
5.59633e-05
5.65102e-05
5.90526e-05
0.000119972
0.000118049
0.000116125
0.000113922
0.000111655
0.000109337
0.000106979
0.000104681
0.000102456
0.000100298
9.81638e-05
9.60958e-05
9.39631e-05
9.1785e-05
8.94394e-05
8.69587e-05
8.42784e-05
8.13641e-05
7.81677e-05
7.46771e-05
7.08868e-05
6.6794e-05
6.24048e-05
5.77914e-05
5.30456e-05
4.82769e-05
4.35721e-05
3.89981e-05
3.46226e-05
3.04985e-05
2.66656e-05
2.31821e-05
2.00604e-05
1.73662e-05
1.51103e-05
1.35782e-05
1.26871e-05
1.32124e-05
1.72515e-05
0.000107756
0.000109473
0.000111352
0.000113217
0.000115106
0.000117009
0.000118844
0.000120571
0.000122171
0.000123608
0.000124837
0.000125827
0.000126557
0.000127
0.0001271
0.000126784
0.000126174
0.000125042
0.00012347
0.000121499
0.000119024
0.000116054
0.00011265
0.000108846
0.000104583
9.98191e-05
9.46021e-05
8.91083e-05
8.357e-05
7.82111e-05
7.31658e-05
6.85466e-05
6.4384e-05
6.08529e-05
5.78084e-05
5.58371e-05
5.40564e-05
5.23358e-05
5.54066e-05
0.000106012
0.000104281
0.000102565
0.000100643
9.86575e-05
9.66278e-05
9.45896e-05
9.26243e-05
9.07304e-05
8.89023e-05
8.71211e-05
8.53936e-05
8.3625e-05
8.18772e-05
7.99223e-05
7.78774e-05
7.56788e-05
7.32556e-05
7.05855e-05
6.76539e-05
6.44406e-05
6.09257e-05
5.71234e-05
5.30905e-05
4.88991e-05
4.46547e-05
4.04364e-05
3.63012e-05
3.23033e-05
2.8504e-05
2.49399e-05
2.16622e-05
1.87048e-05
1.61136e-05
1.3912e-05
1.23432e-05
1.14115e-05
1.17661e-05
1.51539e-05
9.53783e-05
9.6931e-05
9.86338e-05
0.000100331
0.000102063
0.000103809
0.000105514
0.00010714
0.000108654
0.000110043
0.000111275
0.000112307
0.000113133
0.000113705
0.00011405
0.00011399
0.000113689
0.000113
0.000111888
0.000110431
0.000108559
0.000106226
0.000103499
0.000100399
9.68763e-05
9.2894e-05
8.84852e-05
8.37763e-05
7.89595e-05
7.42231e-05
6.97033e-05
6.54984e-05
6.16684e-05
5.83452e-05
5.54718e-05
5.33528e-05
5.17451e-05
4.93726e-05
5.09092e-05
9.38266e-05
9.22763e-05
9.07472e-05
8.90551e-05
8.73112e-05
8.55328e-05
8.37646e-05
8.20578e-05
8.04448e-05
7.88882e-05
7.73937e-05
7.59124e-05
7.44888e-05
7.29875e-05
7.14202e-05
6.97267e-05
6.78849e-05
6.58694e-05
6.36431e-05
6.11799e-05
5.84573e-05
5.54497e-05
5.21729e-05
4.86509e-05
4.49584e-05
4.11962e-05
3.74142e-05
3.36793e-05
3.00444e-05
2.65486e-05
2.32439e-05
2.0172e-05
1.73759e-05
1.48866e-05
1.27304e-05
1.11387e-05
1.01696e-05
1.04024e-05
1.32631e-05
8.45552e-05
8.59599e-05
8.75008e-05
8.90415e-05
9.06137e-05
9.22191e-05
9.37936e-05
9.53077e-05
9.67411e-05
9.80667e-05
9.92621e-05
0.000100313
0.000101181
0.000101846
0.000102316
0.000102489
0.000102409
0.000102048
0.000101311
0.000100265
9.8878e-05
9.70886e-05
9.49222e-05
9.24257e-05
8.95536e-05
8.62519e-05
8.25457e-05
7.85404e-05
7.43813e-05
7.02287e-05
6.62067e-05
6.24071e-05
5.88965e-05
5.57933e-05
5.30701e-05
5.09087e-05
4.92352e-05
4.67883e-05
4.68831e-05
8.31713e-05
8.17867e-05
8.04137e-05
7.8921e-05
7.7383e-05
7.58242e-05
7.42701e-05
7.27899e-05
7.13984e-05
7.00717e-05
6.8799e-05
6.75549e-05
6.6346e-05
6.50931e-05
6.38238e-05
6.23737e-05
6.08416e-05
5.91693e-05
5.73157e-05
5.52473e-05
5.29411e-05
5.03749e-05
4.75524e-05
4.44759e-05
4.12323e-05
3.78963e-05
3.45215e-05
3.11596e-05
2.78569e-05
2.46553e-05
2.15991e-05
1.87213e-05
1.60751e-05
1.36869e-05
1.15801e-05
9.97353e-06
8.97559e-06
9.11809e-06
1.15498e-05
7.50639e-05
7.63272e-05
7.77173e-05
7.91161e-05
8.05506e-05
8.2024e-05
8.34668e-05
8.48737e-05
8.62167e-05
8.74767e-05
8.86285e-05
8.96499e-05
9.05349e-05
9.12633e-05
9.18081e-05
9.21416e-05
9.22235e-05
9.21399e-05
9.16983e-05
9.09861e-05
8.99947e-05
8.86519e-05
8.69641e-05
8.49696e-05
8.26537e-05
7.99353e-05
7.68411e-05
7.34529e-05
6.98842e-05
6.62636e-05
6.27013e-05
5.9292e-05
5.6095e-05
5.32122e-05
5.06253e-05
4.84748e-05
4.66829e-05
4.42598e-05
4.3365e-05
7.38225e-05
7.25927e-05
7.13625e-05
7.00359e-05
6.86744e-05
6.73037e-05
6.59353e-05
6.46512e-05
6.34353e-05
6.22945e-05
6.12005e-05
6.01485e-05
5.91097e-05
5.80721e-05
5.69909e-05
5.57883e-05
5.45175e-05
5.3131e-05
5.15758e-05
4.98263e-05
4.78688e-05
4.56782e-05
4.32343e-05
4.05562e-05
3.77191e-05
3.47689e-05
3.17673e-05
2.87481e-05
2.57534e-05
2.28269e-05
2.00017e-05
1.7315e-05
1.48093e-05
1.25212e-05
1.04635e-05
8.84731e-06
7.82006e-06
7.91043e-06
1.00238e-05
6.67158e-05
6.78532e-05
6.91139e-05
7.03816e-05
7.16861e-05
7.30263e-05
7.43543e-05
7.56538e-05
7.6907e-05
7.80866e-05
7.91818e-05
8.01772e-05
8.1054e-05
8.1804e-05
8.23994e-05
8.28612e-05
8.30645e-05
8.31403e-05
8.2949e-05
8.24953e-05
8.18151e-05
8.08388e-05
7.95441e-05
7.79847e-05
7.61332e-05
7.39311e-05
7.13728e-05
6.85282e-05
6.5486e-05
6.23514e-05
5.92173e-05
5.61715e-05
5.32712e-05
5.05965e-05
4.81534e-05
4.60392e-05
4.41532e-05
4.1732e-05
4.02062e-05
6.56038e-05
6.45048e-05
6.34057e-05
6.22336e-05
6.10218e-05
5.97994e-05
5.8612e-05
5.7482e-05
5.64175e-05
5.54253e-05
5.44866e-05
5.35831e-05
5.26865e-05
5.1814e-05
5.0889e-05
4.99196e-05
4.88446e-05
4.76718e-05
4.63482e-05
4.48706e-05
4.32091e-05
4.1329e-05
3.922e-05
3.69062e-05
3.44214e-05
3.18199e-05
2.9152e-05
2.64492e-05
2.37386e-05
2.10617e-05
1.8454e-05
1.59487e-05
1.3586e-05
1.13871e-05
9.38179e-06
7.75635e-06
6.71342e-06
6.78556e-06
8.66148e-06
5.93634e-05
6.03891e-05
6.15273e-05
6.26721e-05
6.38581e-05
6.50791e-05
6.63013e-05
6.74979e-05
6.86511e-05
6.97542e-05
7.07875e-05
7.174e-05
7.25973e-05
7.33461e-05
7.39781e-05
7.44873e-05
7.48129e-05
7.49853e-05
7.49763e-05
7.47238e-05
7.42781e-05
7.35972e-05
7.26321e-05
7.14365e-05
6.99715e-05
6.82049e-05
6.61224e-05
6.37586e-05
6.11876e-05
5.84955e-05
5.5758e-05
5.30532e-05
5.04341e-05
4.79726e-05
4.56737e-05
4.36042e-05
4.16686e-05
3.92335e-05
3.72986e-05
5.8371e-05
5.73846e-05
5.63977e-05
5.53529e-05
5.42825e-05
5.31941e-05
5.21442e-05
5.11521e-05
5.02218e-05
4.93505e-05
4.8536e-05
4.77535e-05
4.69866e-05
4.62439e-05
4.54571e-05
4.46561e-05
4.37232e-05
4.27202e-05
4.16046e-05
4.03616e-05
3.89445e-05
3.734e-05
3.55322e-05
3.3528e-05
3.13546e-05
2.90611e-05
2.66892e-05
2.42667e-05
2.18221e-05
1.93793e-05
1.69761e-05
1.46427e-05
1.24091e-05
1.02986e-05
8.35701e-06
6.72443e-06
5.66534e-06
5.74637e-06
7.459e-06
5.2873e-05
5.37998e-05
5.48259e-05
5.58614e-05
5.69329e-05
5.80478e-05
5.91655e-05
6.02652e-05
6.1326e-05
6.23534e-05
6.33198e-05
6.42172e-05
6.50427e-05
6.5781e-05
6.6426e-05
6.69603e-05
6.7364e-05
6.75989e-05
6.77544e-05
6.76587e-05
6.74039e-05
6.69514e-05
6.62615e-05
6.53559e-05
6.42211e-05
6.28131e-05
6.11233e-05
5.91715e-05
5.70155e-05
5.47177e-05
5.23404e-05
4.99563e-05
4.76001e-05
4.53486e-05
4.31896e-05
4.1184e-05
3.9233e-05
3.68055e-05
3.45965e-05
5.1983e-05
5.11045e-05
5.02176e-05
4.92844e-05
4.83319e-05
4.73696e-05
4.64313e-05
4.55544e-05
4.47391e-05
4.39717e-05
4.32577e-05
4.25801e-05
4.1917e-05
4.12672e-05
4.0606e-05
3.99065e-05
3.91211e-05
3.82753e-05
3.73385e-05
3.62837e-05
3.50729e-05
3.37062e-05
3.21467e-05
3.04037e-05
2.85027e-05
2.64836e-05
2.43811e-05
2.22147e-05
2.0006e-05
1.77851e-05
1.55792e-05
1.34077e-05
1.13034e-05
9.29123e-06
7.39185e-06
5.76021e-06
4.67868e-06
4.78601e-06
6.40651e-06
4.71356e-05
4.79694e-05
4.88895e-05
4.98266e-05
5.08034e-05
5.18177e-05
5.28379e-05
5.38402e-05
5.48204e-05
5.57659e-05
5.66643e-05
5.75119e-05
5.82992e-05
5.90136e-05
5.96487e-05
6.0191e-05
6.06651e-05
6.09558e-05
6.11794e-05
6.12312e-05
6.11202e-05
6.08467e-05
6.03722e-05
5.9706e-05
5.88442e-05
5.77432e-05
5.63798e-05
5.47842e-05
5.29937e-05
5.10435e-05
4.89952e-05
4.68968e-05
4.4794e-05
4.27375e-05
4.07255e-05
3.87888e-05
3.6841e-05
3.44485e-05
3.20783e-05
4.63354e-05
4.55487e-05
4.47546e-05
4.39206e-05
4.30723e-05
4.22166e-05
4.13828e-05
4.06081e-05
3.98808e-05
3.92072e-05
3.85799e-05
3.79823e-05
3.74117e-05
3.68339e-05
3.62737e-05
3.566e-05
3.50236e-05
3.42955e-05
3.34963e-05
3.25923e-05
3.15631e-05
3.03859e-05
2.90388e-05
2.75248e-05
2.58597e-05
2.40836e-05
2.22206e-05
2.029e-05
1.8306e-05
1.62849e-05
1.42603e-05
1.22473e-05
1.02713e-05
8.35426e-06
6.50463e-06
4.86644e-06
3.76043e-06
3.91199e-06
5.47883e-06
4.20497e-05
4.28053e-05
4.36346e-05
4.44804e-05
4.53675e-05
4.629e-05
4.72111e-05
4.81298e-05
4.90315e-05
4.99038e-05
5.07356e-05
5.15251e-05
5.22663e-05
5.29491e-05
5.35729e-05
5.41156e-05
5.45902e-05
5.49513e-05
5.5211e-05
5.53597e-05
5.53612e-05
5.52202e-05
5.492e-05
5.4448e-05
5.3809e-05
5.29582e-05
5.18853e-05
5.05957e-05
4.91194e-05
4.74776e-05
4.57207e-05
4.38934e-05
4.20249e-05
4.01539e-05
3.8283e-05
3.64271e-05
3.45118e-05
3.21761e-05
2.97282e-05
4.13315e-05
4.06379e-05
3.99224e-05
3.91742e-05
3.84131e-05
3.76559e-05
3.69132e-05
3.62233e-05
3.55795e-05
3.49811e-05
3.44263e-05
3.38987e-05
3.34035e-05
3.28987e-05
3.2407e-05
3.18818e-05
3.13533e-05
3.07115e-05
3.00258e-05
2.92511e-05
2.83753e-05
2.73597e-05
2.6195e-05
2.48808e-05
2.34288e-05
2.18659e-05
2.02161e-05
1.8494e-05
1.67122e-05
1.48828e-05
1.3025e-05
1.11651e-05
9.31207e-06
7.48644e-06
5.70314e-06
4.06156e-06
2.91175e-06
3.12879e-06
4.68157e-06
3.75493e-05
3.82261e-05
3.89667e-05
3.97346e-05
4.05382e-05
4.13707e-05
4.22118e-05
4.30502e-05
4.38728e-05
4.46736e-05
4.54447e-05
4.61773e-05
4.6875e-05
4.75177e-05
4.81107e-05
4.86511e-05
4.91221e-05
4.95123e-05
4.97944e-05
5.00328e-05
5.01143e-05
5.00849e-05
4.99155e-05
4.96024e-05
4.91375e-05
4.84962e-05
4.76567e-05
4.6623e-05
4.54044e-05
4.40353e-05
4.25386e-05
4.09532e-05
3.9297e-05
3.76063e-05
3.58768e-05
3.41181e-05
3.22506e-05
2.99903e-05
2.754e-05
3.68944e-05
3.62762e-05
3.5641e-05
3.49697e-05
3.42905e-05
3.36115e-05
3.29536e-05
3.23331e-05
3.1765e-05
3.12292e-05
3.07374e-05
3.02739e-05
2.98293e-05
2.93964e-05
2.89549e-05
2.85185e-05
2.80273e-05
2.75056e-05
2.6911e-05
2.62474e-05
2.54931e-05
2.46165e-05
2.36077e-05
2.24612e-05
2.11929e-05
1.9823e-05
1.83665e-05
1.6833e-05
1.52313e-05
1.35778e-05
1.1882e-05
1.01619e-05
8.43412e-06
6.70326e-06
4.9797e-06
3.34327e-06
2.13182e-06
2.44641e-06
4.01697e-06
3.3547e-05
3.41531e-05
3.48217e-05
3.55149e-05
3.6242e-05
3.69978e-05
3.77604e-05
3.85219e-05
3.92763e-05
4.00084e-05
4.07157e-05
4.1394e-05
4.20416e-05
4.26542e-05
4.32163e-05
4.37367e-05
4.41949e-05
4.46133e-05
4.49139e-05
4.51847e-05
4.53406e-05
4.53907e-05
4.53242e-05
4.51355e-05
4.4812e-05
4.43345e-05
4.36877e-05
4.28654e-05
4.18772e-05
4.07379e-05
3.94694e-05
3.80962e-05
3.66362e-05
3.51154e-05
3.35244e-05
3.18636e-05
3.00633e-05
2.7897e-05
2.54942e-05
3.29621e-05
3.24013e-05
3.18355e-05
3.12331e-05
3.06301e-05
3.00219e-05
2.94336e-05
2.88837e-05
2.83749e-05
2.78981e-05
2.74591e-05
2.70449e-05
2.66489e-05
2.62716e-05
2.58851e-05
2.54933e-05
2.50727e-05
2.46435e-05
2.41122e-05
2.35397e-05
2.28872e-05
2.21307e-05
2.12581e-05
2.02632e-05
1.91585e-05
1.79548e-05
1.66647e-05
1.53011e-05
1.38695e-05
1.23723e-05
1.08304e-05
9.24718e-06
7.63981e-06
6.00923e-06
4.3622e-06
2.73681e-06
1.4291e-06
1.88364e-06
3.48502e-06
2.99831e-05
3.05298e-05
3.11332e-05
3.17601e-05
3.24177e-05
3.31008e-05
3.37939e-05
3.44874e-05
3.51725e-05
3.58407e-05
3.64906e-05
3.71196e-05
3.77129e-05
3.82833e-05
3.88202e-05
3.93167e-05
3.97693e-05
4.01724e-05
4.05061e-05
4.07793e-05
4.09833e-05
4.10832e-05
4.10933e-05
4.09991e-05
4.07928e-05
4.04495e-05