/*--------------------------------*- C++ -*----------------------------------*\
| =========                 |                                                 |
| \\      /  F ield         | OpenFOAM: The Open Source CFD Toolbox           |
|  \\    /   O peration     | Version:  2506                                  |
|   \\  /    A nd           | Website:  www.openfoam.com                      |
|    \\/     M anipulation  |                                                 |
\*---------------------------------------------------------------------------*/
FoamFile
{
    version     2.0;
    format      ascii;
    arch        "LSB;label=32;scalar=64";
    class       volScalarField;
    location    "150";
    object      nuTilda;
}
// * * * * * * * * * * * * * * * * * * * * * * * * * * * * * * * * * * * * * //

dimensions      [0 2 -1 0 0 0 0];

internalField   nonuniform List<scalar> 
10720
(
6.13171e-05
6.43791e-05
6.82967e-05
7.31616e-05
7.92307e-05
8.69004e-05
9.67964e-05
0.00010944
0.000125995
0.000147868
0.000177002
0.000217098
0.000272108
0.000349332
0.000460657
0.000627555
0.000884285
0.00130768
0.00200779
0.00335865
0.00577888
0.0117889
0.0244238
0.0646557
0.096016
0.103203
0.103367
0.104674
0.106933
0.108319
0.107992
0.106169
0.103276
0.0994913
0.0946896
0.0887473
0.0805939
0.070915
0.0463649
5.85543e-05
5.60303e-05
5.33948e-05
5.07987e-05
4.8158e-05
4.55103e-05
4.30128e-05
4.12794e-05
4.39725e-05
4.83833e-05
5.44462e-05
6.26399e-05
7.37705e-05
8.92054e-05
0.000110883
0.000142015
0.000187763
0.000256832
0.000364746
0.000538019
0.000832297
0.00133847
0.00230338
0.00409027
0.00806957
0.0160763
0.0360108
0.0707416
0.0965136
0.106978
0.110006
0.110851
0.110896
0.110351
0.109303
0.107869
0.105681
0.103203
0.0938674
3.82167e-05
3.80045e-05
3.78084e-05
3.76407e-05
3.74457e-05
3.72615e-05
3.71175e-05
3.69838e-05
3.69144e-05
3.69058e-05
3.70055e-05
3.71328e-05
3.83702e-05
4.17678e-05
4.90516e-05
6.35972e-05
9.18834e-05
0.000147786
0.000254766
0.00049539
0.00095887
0.00227735
0.00480189
0.0136171
0.0286777
0.0478955
0.0716025
0.0984608
0.123672
0.141282
0.149505
0.151406
0.150376
0.147711
0.143973
0.139278
0.134739
0.128025
0.129605
3.83815e-05
3.86026e-05
3.879e-05
3.90383e-05
3.92863e-05
3.95315e-05
3.97637e-05
3.99781e-05
3.98098e-05
3.94955e-05
3.90916e-05
3.86109e-05
3.80604e-05
3.74352e-05
3.66982e-05
3.58258e-05
3.47252e-05
3.3329e-05
3.14326e-05
2.88101e-05
2.49416e-05
1.94465e-05
1.15651e-05
4.35098e-06
1.44891e-05
0.000134055
0.00069808
0.00492922
0.0155966
0.0305836
0.0455964
0.0567225
0.0632851
0.0669311
0.0692383
0.0711757
0.0728563
0.0764097
0.0798213
4.03332e-05
4.03644e-05
4.03965e-05
4.04308e-05
4.04723e-05
4.05179e-05
4.0569e-05
4.0628e-05
4.06965e-05
4.07755e-05
4.0869e-05
4.09789e-05
4.11136e-05
4.12716e-05
4.15132e-05
4.11023e-05
3.85617e-05
3.54248e-05
2.68323e-05
0.000102055
0.000200487
0.000205725
0.0010075
0.000412082
0.00198939
0.00417899
0.00865071
0.017978
0.0353823
0.0619554
0.0946334
0.125984
0.149273
0.163465
0.171486
0.175221
0.177323
0.174032
0.182282
4.03095e-05
4.02753e-05
4.02497e-05
4.02135e-05
4.0183e-05
4.01564e-05
4.013e-05
4.01069e-05
4.01239e-05
4.01592e-05
4.02023e-05
4.02472e-05
4.03012e-05
4.03609e-05
4.04278e-05
4.05012e-05
4.05837e-05
4.06777e-05
4.07896e-05
4.0925e-05
4.10974e-05
4.13187e-05
4.16215e-05
4.19545e-05
4.23278e-05
4.18348e-05
4.16862e-05
3.05258e-05
0.000137361
0.000929012
0.00337728
0.00818497
0.0151749
0.0235841
0.0324451
0.0409388
0.0483139
0.0549064
0.0645055
4.00416e-05
4.00414e-05
4.0044e-05
4.00473e-05
4.00508e-05
4.00568e-05
4.00664e-05
4.00792e-05
4.00978e-05
4.01226e-05
4.01551e-05
4.01974e-05
4.02519e-05
4.03214e-05
4.04093e-05
4.05217e-05
4.04488e-05
4.01857e-05
3.78946e-05
3.18036e-05
9.6559e-06
4.58051e-05
5.4227e-07
8.45924e-05
0.000415674
0.000887895
0.00193616
0.00184397
0.00258255
0.00586005
0.0176629
0.0410503
0.0752858
0.113346
0.146251
0.170035
0.187671
0.197633
0.213052
4.00378e-05
4.0041e-05
4.00396e-05
4.00428e-05
4.00457e-05
4.00533e-05
4.00587e-05
4.00649e-05
4.0065e-05
4.00626e-05
4.00585e-05
4.00543e-05
4.00509e-05
4.00474e-05
4.00437e-05
4.00396e-05
4.00342e-05
4.0029e-05
4.00241e-05
4.00193e-05
4.00141e-05
4.00082e-05
4.00006e-05
3.99943e-05
3.99863e-05
4.00029e-05
3.99694e-05
4.021e-05
3.95324e-05
4.13974e-05
3.31795e-05
3.49074e-05
0.000268254
0.00117794
0.00333577
0.00742295
0.0138963
0.0229089
0.0404817
4.00836e-05
4.00851e-05
4.00873e-05
4.00886e-05
4.00904e-05
4.00929e-05
4.00968e-05
4.01023e-05
4.01095e-05
4.0119e-05
4.01314e-05
4.01474e-05
4.01682e-05
4.0195e-05
4.02305e-05
4.02756e-05
4.03328e-05
4.03742e-05
4.04882e-05
4.08812e-05
3.75254e-05
2.44399e-05
2.82045e-06
4.68775e-06
6.5912e-07
0
0
0.000400686
0.000568976
0.00134981
0.00136334
0.00349759
0.0119888
0.035368
0.073631
0.118495
0.160105
0.193496
0.223594
4.00794e-05
4.00773e-05
4.00734e-05
4.00702e-05
4.00663e-05
4.0067e-05
4.0067e-05
4.00685e-05
4.00715e-05
4.0075e-05
4.0079e-05
4.00835e-05
4.00881e-05
4.00925e-05
4.00974e-05
4.01025e-05
4.01082e-05
4.01144e-05
4.01212e-05
4.01284e-05
4.01362e-05
4.01446e-05
4.01537e-05
4.01637e-05
4.01763e-05
4.01864e-05
4.02194e-05
4.0164e-05
4.05213e-05
3.90633e-05
4.57326e-05
1.61593e-05
7.09037e-05
0.000283612
0.000119153
0.000368302
0.00115402
0.0020264
0.014417
4.00711e-05
4.00722e-05
4.00747e-05
4.00772e-05
4.00795e-05
4.00825e-05
4.0086e-05
4.00899e-05
4.00946e-05
4.01002e-05
4.01068e-05
4.0115e-05
4.01254e-05
4.01386e-05
4.01559e-05
4.01788e-05
4.02085e-05
4.02372e-05
4.03114e-05
4.04282e-05
4.09011e-05
4.06624e-05
3.74078e-05
2.3402e-05
3.3429e-06
6.75235e-06
5.52233e-06
2.9922e-06
0
0
0.00030591
0.000801883
0.000296224
0.00250589
0.013979
0.045785
0.097564
0.157879
0.212048
4.0068e-05
4.00683e-05
4.00653e-05
4.00642e-05
4.00598e-05
4.00607e-05
4.00622e-05
4.00655e-05
4.00695e-05
4.0073e-05
4.00762e-05
4.00792e-05
4.00821e-05
4.00848e-05
4.00876e-05
4.00904e-05
4.00934e-05
4.00965e-05
4.00997e-05
4.0103e-05
4.01063e-05
4.01096e-05
4.01128e-05
4.01158e-05
4.01185e-05
4.0121e-05
4.01226e-05
4.01256e-05
4.01249e-05
4.01354e-05
4.01228e-05
4.00793e-05
3.98469e-05
3.25764e-05
3.6088e-05
9.02418e-05
0.000273561
0.00052722
0.00261952
4.0068e-05
4.00687e-05
4.00706e-05
4.00724e-05
4.0074e-05
4.0076e-05
4.00782e-05
4.00803e-05
4.00825e-05
4.00846e-05
4.00863e-05
4.00883e-05
4.0091e-05
4.00946e-05
4.00994e-05
4.0106e-05
4.01148e-05
4.01245e-05
4.01378e-05
4.01432e-05
4.02185e-05
4.05417e-05
4.09686e-05
4.01889e-05
3.7716e-05
3.31619e-05
2.73424e-05
1.45957e-05
7.77768e-06
5.27464e-06
0
0
6.75541e-05
0.000577249
0.00336472
0.00513346
0.0322382
0.0973636
0.176463
4.00656e-05
4.00666e-05
4.00645e-05
4.0064e-05
4.00594e-05
4.00593e-05
4.00614e-05
4.0065e-05
4.00688e-05
4.00721e-05
4.00753e-05
4.00783e-05
4.00812e-05
4.00839e-05
4.00867e-05
4.00896e-05
4.00927e-05
4.0096e-05
4.00997e-05
4.01036e-05
4.0108e-05
4.01126e-05
4.01177e-05
4.01232e-05
4.01295e-05
4.01366e-05
4.01449e-05
4.01544e-05
4.01653e-05
4.01786e-05
4.0192e-05
4.02255e-05
4.01663e-05
3.96048e-05
3.39429e-05
1.61105e-05
7.30784e-06
2.28775e-06
0.000131153
4.00634e-05
4.00642e-05
4.00664e-05
4.00685e-05
4.00708e-05
4.00736e-05
4.00766e-05
4.00797e-05
4.00832e-05
4.00869e-05
4.00909e-05
4.00953e-05
4.01001e-05
4.01054e-05
4.01115e-05
4.01185e-05
4.01272e-05
4.0137e-05
4.01464e-05
4.01542e-05
4.01588e-05
4.01702e-05
4.03095e-05
4.05601e-05
4.10821e-05
4.13346e-05
4.11322e-05
3.92463e-05
3.48622e-05
2.52226e-05
8.57772e-06
5.2031e-06
0
0
0
0.00121323
0.000698393
0.0377819
0.122781
4.00615e-05
4.00631e-05
4.00622e-05
4.00622e-05
4.0058e-05
4.00575e-05
4.006e-05
4.00635e-05
4.00671e-05
4.00702e-05
4.00732e-05
4.00761e-05
4.00788e-05
4.00813e-05
4.00839e-05
4.00865e-05
4.00893e-05
4.00923e-05
4.00955e-05
4.00989e-05
4.01026e-05
4.01065e-05
4.01106e-05
4.0115e-05
4.01197e-05
4.01247e-05
4.01302e-05
4.01361e-05
4.01423e-05
4.01487e-05
4.01564e-05
4.01597e-05
4.01744e-05
4.01724e-05
4.03844e-05
3.80386e-05
3.1123e-05
8.68689e-06
3.12827e-05
4.00596e-05
4.00608e-05
4.00632e-05
4.00654e-05
4.00679e-05
4.00707e-05
4.00735e-05
4.00762e-05
4.00791e-05
4.0082e-05
4.0085e-05
4.00881e-05
4.00912e-05
4.00943e-05
4.00974e-05
4.01004e-05
4.01032e-05
4.01058e-05
4.01094e-05
4.01152e-05
4.01225e-05
4.01276e-05
4.01387e-05
4.0142e-05
4.02573e-05
4.05864e-05
4.10559e-05
4.17777e-05
4.21309e-05
4.10522e-05
3.65044e-05
2.44448e-05
8.34544e-06
2.77814e-06
0
0
0.000226731
0.0030553
0.0674362
4.0058e-05
4.00598e-05
4.00598e-05
4.00604e-05
4.00566e-05
4.00562e-05
4.00585e-05
4.00618e-05
4.00651e-05
4.00681e-05
4.00709e-05
4.00736e-05
4.00763e-05
4.00787e-05
4.00812e-05
4.00838e-05
4.00865e-05
4.00893e-05
4.00923e-05
4.00956e-05
4.00992e-05
4.0103e-05
4.01072e-05
4.01117e-05
4.01167e-05
4.01223e-05
4.01286e-05
4.01357e-05
4.01436e-05
4.01526e-05
4.01627e-05
4.01741e-05
4.01876e-05
4.01926e-05
4.02577e-05
4.04462e-05
4.13722e-05
3.58676e-05
5.16691e-06
4.00562e-05
4.0058e-05
4.00605e-05
4.00629e-05
4.00656e-05
4.00681e-05
4.0071e-05
4.00737e-05
4.00765e-05
4.00794e-05
4.00823e-05
4.00855e-05
4.00889e-05
4.00925e-05
4.00964e-05
4.01007e-05
4.01054e-05
4.01108e-05
4.01163e-05
4.01217e-05
4.0127e-05
4.01332e-05
4.01394e-05
4.01341e-05
4.0113e-05
4.01272e-05
4.02198e-05
4.05182e-05
4.10581e-05
4.17504e-05
4.26471e-05
4.12264e-05
3.53808e-05
1.28478e-05
4.939e-06
0
0
0.00132173
0.0303033
4.00548e-05
4.00565e-05
4.00571e-05
4.00584e-05
4.0055e-05
4.00546e-05
4.00568e-05
4.00599e-05
4.0063e-05
4.00658e-05
4.00685e-05
4.00711e-05
4.00736e-05
4.0076e-05
4.00785e-05
4.00809e-05
4.00835e-05
4.00861e-05
4.0089e-05
4.0092e-05
4.00952e-05
4.00987e-05
4.01025e-05
4.01067e-05
4.01112e-05
4.01162e-05
4.01217e-05
4.01279e-05
4.01347e-05
4.01422e-05
4.01504e-05
4.01598e-05
4.01683e-05
4.01871e-05
4.01628e-05
4.03259e-05
3.97262e-05
4.47682e-05
1.98485e-05
4.00534e-05
4.00553e-05
4.0058e-05
4.00606e-05
4.00629e-05
4.00654e-05
4.00682e-05
4.00706e-05
4.00732e-05
4.00758e-05
4.00785e-05
4.00813e-05
4.00842e-05
4.00874e-05
4.00907e-05
4.00942e-05
4.0098e-05
4.01019e-05
4.01063e-05
4.01115e-05
4.01176e-05
4.01246e-05
4.0133e-05
4.0142e-05
4.01417e-05
4.01289e-05
4.0113e-05
4.01177e-05
4.02152e-05
4.0443e-05
4.10276e-05
4.19419e-05
4.28429e-05
3.95965e-05
2.10698e-05
5.31555e-06
0
0.000243053
0.0116383
4.0052e-05
4.00535e-05
4.00545e-05
4.00562e-05
4.00534e-05
4.00531e-05
4.0055e-05
4.00579e-05
4.00608e-05
4.00634e-05
4.0066e-05
4.00685e-05
4.0071e-05
4.00734e-05
4.00757e-05
4.00781e-05
4.00805e-05
4.0083e-05
4.00856e-05
4.00883e-05
4.00913e-05
4.00945e-05
4.0098e-05
4.01019e-05
4.01061e-05
4.01109e-05
4.01162e-05
4.01223e-05
4.0129e-05
4.01366e-05
4.01449e-05
4.01547e-05
4.01636e-05
4.01826e-05
4.01628e-05
4.03176e-05
3.96967e-05
4.23241e-05
3.60906e-05
4.0051e-05
4.00532e-05
4.0056e-05
4.00585e-05
4.00608e-05
4.00631e-05
4.00653e-05
4.00675e-05
4.007e-05
4.00725e-05
4.0075e-05
4.00777e-05
4.00805e-05
4.00835e-05
4.00867e-05
4.00903e-05
4.00941e-05
4.00983e-05
4.01029e-05
4.01078e-05
4.01133e-05
4.01195e-05
4.01266e-05
4.01354e-05
4.01449e-05
4.01509e-05
4.01505e-05
4.01394e-05
4.0126e-05
4.01215e-05
4.01877e-05
4.05121e-05
4.12409e-05
4.3008e-05
4.1502e-05
2.17401e-05
8.92371e-07
8.16651e-05
0.00372899
4.00495e-05
4.00507e-05
4.00521e-05
4.00541e-05
4.00518e-05
4.00515e-05
4.00532e-05
4.00559e-05
4.00586e-05
4.0061e-05
4.00635e-05
4.0066e-05
4.00684e-05
4.00707e-05
4.00729e-05
4.00751e-05
4.00774e-05
4.00797e-05
4.00821e-05
4.00846e-05
4.00873e-05
4.00902e-05
4.00934e-05
4.0097e-05
4.0101e-05
4.01054e-05
4.01104e-05
4.01161e-05
4.01224e-05
4.01294e-05
4.01372e-05
4.0146e-05
4.01551e-05
4.01684e-05
4.0171e-05
4.02235e-05
4.00978e-05
4.04701e-05
4.03032e-05
4.0049e-05
4.00513e-05
4.00542e-05
4.00566e-05
4.00587e-05
4.00608e-05
4.00628e-05
4.00647e-05
4.00666e-05
4.0069e-05
4.00714e-05
4.00739e-05
4.00765e-05
4.00794e-05
4.00824e-05
4.00857e-05
4.00893e-05
4.00932e-05
4.00974e-05
4.01021e-05
4.01075e-05
4.01135e-05
4.01204e-05
4.01281e-05
4.0137e-05
4.0147e-05
4.01571e-05
4.01652e-05
4.01671e-05
4.01597e-05
4.01342e-05
4.01378e-05
4.01973e-05
4.08985e-05
4.26515e-05
4.37875e-05
1.47718e-06
2.07548e-05
0.000902315
4.00473e-05
4.00483e-05
4.00498e-05
4.0052e-05
4.00501e-05
4.00499e-05
4.00515e-05
4.00539e-05
4.00564e-05
4.00588e-05
4.00612e-05
4.00635e-05
4.00658e-05
4.00679e-05
4.00701e-05
4.00721e-05
4.00742e-05
4.00763e-05
4.00785e-05
4.00809e-05
4.00834e-05
4.00861e-05
4.00892e-05
4.00926e-05
4.00964e-05
4.01007e-05
4.01055e-05
4.0111e-05
4.0117e-05
4.01238e-05
4.01314e-05
4.01398e-05
4.01493e-05
4.01597e-05
4.01722e-05
4.01816e-05
4.022e-05
4.01129e-05
4.05497e-05
4.00473e-05
4.00497e-05
4.00525e-05
4.00547e-05
4.00566e-05
4.00585e-05
4.00603e-05
4.00619e-05
4.00638e-05
4.00656e-05
4.00681e-05
4.00705e-05
4.0073e-05
4.00757e-05
4.00786e-05
4.00818e-05
4.00853e-05
4.0089e-05
4.0093e-05
4.00975e-05
4.01026e-05
4.01082e-05
4.01147e-05
4.01219e-05
4.01299e-05
4.0139e-05
4.01493e-05
4.01613e-05
4.01739e-05
4.01857e-05
4.01874e-05
4.01808e-05
4.01239e-05
4.01838e-05
4.02217e-05
4.52374e-05
3.29352e-05
2.233e-06
5.67275e-05
4.00455e-05
4.00461e-05
4.00477e-05
4.005e-05
4.00485e-05
4.00484e-05
4.00498e-05
4.00519e-05
4.00541e-05
4.00566e-05
4.00588e-05
4.0061e-05
4.00632e-05
4.00652e-05
4.00672e-05
4.00691e-05
4.00711e-05
4.0073e-05
4.00751e-05
4.00774e-05
4.00798e-05
4.00824e-05
4.00854e-05
4.00887e-05
4.00924e-05
4.00965e-05
4.01011e-05
4.01062e-05
4.0112e-05
4.01184e-05
4.01256e-05
4.01336e-05
4.01426e-05
4.01524e-05
4.01651e-05
4.01727e-05
4.02085e-05
4.0156e-05
4.03213e-05
4.00458e-05
4.00483e-05
4.00509e-05
4.00529e-05
4.00546e-05
4.00563e-05
4.00578e-05
4.00594e-05
4.00611e-05
4.00628e-05
4.00649e-05
4.00672e-05
4.00697e-05
4.00722e-05
4.00749e-05
4.00778e-05
4.0081e-05
4.00844e-05
4.00882e-05
4.00923e-05
4.0097e-05
4.01023e-05
4.01084e-05
4.01153e-05
4.01229e-05
4.01313e-05
4.01407e-05
4.01516e-05
4.01645e-05
4.01798e-05
4.01953e-05
4.02135e-05
4.02008e-05
4.02227e-05
3.98635e-05
4.09635e-05
4.68687e-05
4.05385e-06
1.31352e-05
4.00439e-05
4.00443e-05
4.00457e-05
4.00482e-05
4.0047e-05
4.00469e-05
4.00482e-05
4.00501e-05
4.00521e-05
4.00543e-05
4.00565e-05
4.00586e-05
4.00606e-05
4.00625e-05
4.00643e-05
4.00662e-05
4.00681e-05
4.007e-05
4.00721e-05
4.00743e-05
4.00766e-05
4.00792e-05
4.00819e-05
4.0085e-05
4.00884e-05
4.00923e-05
4.00965e-05
4.01013e-05
4.01067e-05
4.01127e-05
4.01194e-05
4.0127e-05
4.01355e-05
4.0145e-05
4.01563e-05
4.01674e-05
4.01865e-05
4.01921e-05
4.02293e-05
4.00444e-05
4.00469e-05
4.00494e-05
4.00512e-05
4.00527e-05
4.00542e-05
4.00556e-05
4.0057e-05
4.00586e-05
4.00602e-05
4.00619e-05
4.00641e-05
4.00665e-05
4.00688e-05
4.00714e-05
4.00741e-05
4.0077e-05
4.00803e-05
4.00838e-05
4.00877e-05
4.00921e-05
4.0097e-05
4.01027e-05
4.0109e-05
4.01161e-05
4.01239e-05
4.01327e-05
4.01426e-05
4.01541e-05
4.01678e-05
4.01838e-05
4.02045e-05
4.02252e-05
4.02309e-05
4.03404e-05
3.88314e-05
4.81366e-05
1.2672e-05
3.37667e-07
4.00425e-05
4.00426e-05
4.0044e-05
4.00464e-05
4.00455e-05
4.00455e-05
4.00466e-05
4.00484e-05
4.00502e-05
4.0052e-05
4.00543e-05
4.00563e-05
4.00581e-05
4.00599e-05
4.00617e-05
4.00635e-05
4.00654e-05
4.00673e-05
4.00693e-05
4.00713e-05
4.00735e-05
4.00759e-05
4.00784e-05
4.00812e-05
4.00843e-05
4.00877e-05
4.00916e-05
4.0096e-05
4.01008e-05
4.01064e-05
4.01126e-05
4.01195e-05
4.01274e-05
4.01364e-05
4.01467e-05
4.01587e-05
4.01724e-05
4.01912e-05
4.02091e-05
4.00433e-05
4.00457e-05
4.00479e-05
4.00495e-05
4.00508e-05
4.00522e-05
4.00535e-05
4.00548e-05
4.00562e-05
4.00578e-05
4.00594e-05
4.00611e-05
4.00635e-05
4.00657e-05
4.00681e-05
4.00707e-05
4.00735e-05
4.00765e-05
4.00799e-05
4.00835e-05
4.00877e-05
4.00923e-05
4.00976e-05
4.01035e-05
4.01101e-05
4.01174e-05
4.01255e-05
4.01347e-05
4.01452e-05
4.01574e-05
4.01721e-05
4.01876e-05
4.022e-05
4.01888e-05
4.05269e-05
3.90289e-05
4.41174e-05
3.37569e-05
4.90945e-06
4.00413e-05
4.00412e-05
4.00425e-05
4.00448e-05
4.00441e-05
4.00441e-05
4.00451e-05
4.00467e-05
4.00484e-05
4.005e-05
4.00522e-05
4.00539e-05
4.00557e-05
4.00574e-05
4.00592e-05
4.0061e-05
4.00628e-05
4.00646e-05
4.00665e-05
4.00684e-05
4.00704e-05
4.00725e-05
4.00747e-05
4.00772e-05
4.008e-05
4.00831e-05
4.00866e-05
4.00906e-05
4.00951e-05
4.01001e-05
4.01058e-05
4.01123e-05
4.01196e-05
4.01279e-05
4.01375e-05
4.01487e-05
4.01614e-05
4.0179e-05
4.02e-05
4.00422e-05
4.00444e-05
4.00465e-05
4.00479e-05
4.00491e-05
4.00504e-05
4.00516e-05
4.00528e-05
4.00541e-05
4.00555e-05
4.0057e-05
4.00586e-05
4.00605e-05
4.00627e-05
4.0065e-05
4.00673e-05
4.007e-05
4.00728e-05
4.00759e-05
4.00793e-05
4.00832e-05
4.00875e-05
4.00925e-05
4.00981e-05
4.01043e-05
4.01111e-05
4.01188e-05
4.01274e-05
4.01373e-05
4.01485e-05
4.01621e-05
4.01749e-05
4.02052e-05
4.01776e-05
4.04121e-05
3.98209e-05
4.08353e-05
4.30047e-05
1.82565e-05
4.00403e-05
4.00399e-05
4.0041e-05
4.00433e-05
4.00428e-05
4.00428e-05
4.00437e-05
4.00452e-05
4.00467e-05
4.00483e-05
4.00499e-05
4.00518e-05
4.00535e-05
4.00552e-05
4.00569e-05
4.00586e-05
4.00602e-05
4.00619e-05
4.00636e-05
4.00653e-05
4.00671e-05
4.0069e-05
4.0071e-05
4.00733e-05
4.00758e-05
4.00787e-05
4.0082e-05
4.00857e-05
4.00899e-05
4.00946e-05
4.00999e-05
4.01059e-05
4.01127e-05
4.01204e-05
4.01293e-05
4.01396e-05
4.01518e-05
4.0167e-05
4.01891e-05
4.00412e-05
4.00433e-05
4.00452e-05
4.00464e-05
4.00475e-05
4.00487e-05
4.00498e-05
4.00509e-05
4.00521e-05
4.00533e-05
4.00547e-05
4.00562e-05
4.00577e-05
4.00599e-05
4.0062e-05
4.00643e-05
4.00667e-05
4.00694e-05
4.00723e-05
4.00755e-05
4.00791e-05
4.00831e-05
4.00877e-05
4.00929e-05
4.00986e-05
4.0105e-05
4.01122e-05
4.01203e-05
4.01296e-05
4.01401e-05
4.01528e-05
4.01655e-05
4.01882e-05
4.01886e-05
4.02615e-05
4.02963e-05
3.96297e-05
4.38383e-05
3.15974e-05
4.00394e-05
4.00388e-05
4.00398e-05
4.00419e-05
4.00416e-05
4.00416e-05
4.00424e-05
4.00437e-05
4.00451e-05
4.00465e-05
4.00479e-05
4.00498e-05
4.00515e-05
4.0053e-05
4.00546e-05
4.00561e-05
4.00576e-05
4.00592e-05
4.00607e-05
4.00623e-05
4.00639e-05
4.00657e-05
4.00676e-05
4.00697e-05
4.00721e-05
4.00749e-05
4.0078e-05
4.00815e-05
4.00854e-05
4.00899e-05
4.00948e-05
4.01005e-05
4.01068e-05
4.0114e-05
4.01223e-05
4.01319e-05
4.01433e-05
4.01571e-05
4.01778e-05
4.00403e-05
4.00422e-05
4.00439e-05
4.0045e-05
4.00461e-05
4.00471e-05
4.00481e-05
4.00491e-05
4.00502e-05
4.00513e-05
4.00526e-05
4.00539e-05
4.00554e-05
4.00572e-05
4.00593e-05
4.00614e-05
4.00637e-05
4.00662e-05
4.00689e-05
4.00719e-05
4.00752e-05
4.0079e-05
4.00832e-05
4.0088e-05
4.00934e-05
4.00993e-05
4.0106e-05
4.01135e-05
4.01222e-05
4.01321e-05
4.01437e-05
4.01568e-05
4.0173e-05
4.01937e-05
4.01871e-05
4.03979e-05
3.96392e-05
4.22087e-05
3.83702e-05
4.00385e-05
4.00378e-05
4.00386e-05
4.00406e-05
4.00404e-05
4.00404e-05
4.00411e-05
4.00423e-05
4.00436e-05
4.00448e-05
4.00462e-05
4.00479e-05
4.00494e-05
4.00508e-05
4.00523e-05
4.00537e-05
4.00551e-05
4.00565e-05
4.0058e-05
4.00595e-05
4.00611e-05
4.00627e-05
4.00645e-05
4.00666e-05
4.00689e-05
4.00715e-05
4.00744e-05
4.00777e-05
4.00814e-05
4.00855e-05
4.00902e-05
4.00954e-05
4.01013e-05
4.01081e-05
4.01158e-05
4.01249e-05
4.01357e-05
4.01487e-05
4.01675e-05
4.00393e-05
4.00411e-05
4.00427e-05
4.00437e-05
4.00447e-05
4.00457e-05
4.00466e-05
4.00474e-05
4.00484e-05
4.00494e-05
4.00506e-05
4.00519e-05
4.00533e-05
4.00547e-05
4.00568e-05
4.00588e-05
4.0061e-05
4.00633e-05
4.00658e-05
4.00686e-05
4.00717e-05
4.00752e-05
4.00791e-05
4.00836e-05
4.00885e-05
4.0094e-05
4.01002e-05
4.01072e-05
4.01153e-05
4.01245e-05
4.01352e-05
4.01479e-05
4.0161e-05
4.01864e-05
4.01712e-05
4.03331e-05
3.99488e-05
4.08778e-05
4.05324e-05
4.00377e-05
4.00369e-05
4.00375e-05
4.00394e-05
4.00393e-05
4.00393e-05
4.00399e-05
4.0041e-05
4.00421e-05
4.00433e-05
4.00445e-05
4.00459e-05
4.00474e-05
4.00488e-05
4.00502e-05
4.00515e-05
4.00528e-05
4.00541e-05
4.00555e-05
4.00569e-05
4.00585e-05
4.00601e-05
4.00618e-05
4.00637e-05
4.00659e-05
4.00683e-05
4.0071e-05
4.0074e-05
4.00774e-05
4.00811e-05
4.00854e-05
4.00902e-05
4.00957e-05
4.0102e-05
4.01092e-05
4.01178e-05
4.0128e-05
4.01404e-05
4.01581e-05
4.00384e-05
4.00401e-05
4.00416e-05
4.00425e-05
4.00434e-05
4.00443e-05
4.00451e-05
4.00459e-05
4.00468e-05
4.00477e-05
4.00488e-05
4.005e-05
4.00513e-05
4.00528e-05
4.00545e-05
4.00564e-05
4.00585e-05
4.00607e-05
4.0063e-05
4.00656e-05
4.00684e-05
4.00716e-05
4.00753e-05
4.00794e-05
4.0084e-05
4.00891e-05
4.00948e-05
4.01013e-05
4.01088e-05
4.01174e-05
4.01272e-05
4.01392e-05
4.01513e-05
4.01731e-05
4.01732e-05
4.02528e-05
4.01618e-05
4.03e-05
4.07533e-05
4.0037e-05
4.00361e-05
4.00366e-05
4.00384e-05
4.00383e-05
4.00383e-05
4.00388e-05
4.00397e-05
4.00407e-05
4.00418e-05
4.0043e-05
4.00441e-05
4.00456e-05
4.00469e-05
4.00481e-05
4.00494e-05
4.00506e-05
4.00519e-05
4.00532e-05
4.00546e-05
4.00561e-05
4.00576e-05
4.00592e-05
4.00609e-05
4.00629e-05
4.0065e-05
4.00675e-05
4.00702e-05
4.00733e-05
4.00767e-05
4.00806e-05
4.0085e-05
4.00901e-05
4.00958e-05
4.01025e-05
4.01105e-05
4.012e-05
4.01317e-05
4.01485e-05
4.00376e-05
4.00392e-05
4.00406e-05
4.00414e-05
4.00422e-05
4.0043e-05
4.00437e-05
4.00444e-05
4.00453e-05
4.00462e-05
4.00472e-05
4.00483e-05
4.00495e-05
4.00509e-05
4.00523e-05
4.00543e-05
4.00562e-05
4.00582e-05
4.00604e-05
4.00628e-05
4.00654e-05
4.00684e-05
4.00718e-05
4.00756e-05
4.00798e-05
4.00845e-05
4.00898e-05
4.00958e-05
4.01027e-05
4.01106e-05
4.01197e-05
4.01307e-05
4.01426e-05
4.01598e-05
4.01723e-05
4.0204e-05
4.02337e-05
4.01704e-05
4.05216e-05
4.00364e-05
4.00356e-05
4.0036e-05
4.00375e-05
4.00375e-05
4.00374e-05
4.00378e-05
4.00386e-05
4.00395e-05
4.00404e-05
4.00415e-05
4.00426e-05
4.00437e-05
4.0045e-05
4.00462e-05
4.00474e-05
4.00486e-05
4.00498e-05
4.00511e-05
4.00524e-05
4.00537e-05
4.00551e-05
4.00565e-05
4.00581e-05
4.00598e-05
4.00618e-05
4.00641e-05
4.00666e-05
4.00694e-05
4.00726e-05
4.00762e-05
4.00803e-05
4.00849e-05
4.00902e-05
4.00964e-05
4.01037e-05
4.01125e-05
4.01233e-05
4.01389e-05
4.0037e-05
4.00384e-05
4.00397e-05
4.00404e-05
4.00411e-05
4.00418e-05
4.00425e-05
4.00432e-05
4.0044e-05
4.00448e-05
4.00458e-05
4.00468e-05
4.0048e-05
4.00492e-05
4.00506e-05
4.00523e-05
4.00541e-05
4.0056e-05
4.00581e-05
4.00604e-05
4.00629e-05
4.00657e-05
4.00689e-05
4.00724e-05
4.00763e-05
4.00806e-05
4.00855e-05
4.0091e-05
4.00974e-05
4.01046e-05
4.0113e-05
4.01229e-05
4.01344e-05
4.01484e-05
4.01654e-05
4.01812e-05
4.02303e-05
4.01864e-05
4.03391e-05
4.0036e-05
4.00354e-05
4.00357e-05
4.0037e-05
4.00368e-05
4.00366e-05
4.00369e-05
4.00376e-05
4.00383e-05
4.00392e-05
4.00401e-05
4.00411e-05
4.0042e-05
4.00433e-05
4.00445e-05
4.00456e-05
4.00467e-05
4.00478e-05
4.0049e-05
4.00501e-05
4.00513e-05
4.00525e-05
4.00539e-05
4.00553e-05
4.0057e-05
4.00589e-05
4.0061e-05
4.00634e-05
4.0066e-05
4.0069e-05
4.00724e-05
4.00762e-05
4.00804e-05
4.00854e-05
4.00911e-05
4.00979e-05
4.0106e-05
4.01159e-05
4.013e-05
4.00368e-05
4.00378e-05
4.0039e-05
4.00397e-05
4.00403e-05
4.00409e-05
4.00415e-05
4.00421e-05
4.00428e-05
4.00436e-05
4.00445e-05
4.00455e-05
4.00465e-05
4.00477e-05
4.0049e-05
4.00505e-05
4.00522e-05
4.0054e-05
4.00559e-05
4.0058e-05
4.00603e-05
4.00628e-05
4.00657e-05
4.0069e-05
4.00726e-05
4.00767e-05
4.00813e-05
4.00865e-05
4.00924e-05
4.00992e-05
4.0107e-05
4.01161e-05
4.01268e-05
4.01391e-05
4.01556e-05
4.01698e-05
4.02068e-05
4.02099e-05
4.02617e-05
4.0036e-05
4.00355e-05
4.00357e-05
4.00367e-05
4.00364e-05
4.00361e-05
4.00362e-05
4.00367e-05
4.00373e-05
4.0038e-05
4.00389e-05
4.00397e-05
4.00406e-05
4.00417e-05
4.00427e-05
4.00438e-05
4.00448e-05
4.00458e-05
4.00469e-05
4.00479e-05
4.00491e-05
4.00502e-05
4.00515e-05
4.00529e-05
4.00545e-05
4.00563e-05
4.00583e-05
4.00605e-05
4.00629e-05
4.00656e-05
4.00687e-05
4.00721e-05
4.0076e-05
4.00806e-05
4.00859e-05
4.00922e-05
4.00998e-05
4.0109e-05
4.0122e-05
4.00368e-05
4.00376e-05
4.00386e-05
4.00392e-05
4.00397e-05
4.00403e-05
4.00408e-05
4.00413e-05
4.0042e-05
4.00426e-05
4.00434e-05
4.00443e-05
4.00453e-05
4.00463e-05
4.00475e-05
4.00487e-05
4.00504e-05
4.00521e-05
4.00538e-05
4.00557e-05
4.00578e-05
4.00602e-05
4.00628e-05
4.00658e-05
4.00691e-05
4.00728e-05
4.0077e-05
4.00819e-05
4.00874e-05
4.00937e-05
4.0101e-05
4.01095e-05
4.01195e-05
4.0131e-05
4.01457e-05
4.01611e-05
4.0186e-05
4.0212e-05
4.02374e-05
4.00363e-05
4.00358e-05
4.00359e-05
4.00366e-05
4.00362e-05
4.00357e-05
4.00356e-05
4.0036e-05
4.00365e-05
4.0037e-05
4.00377e-05
4.00385e-05
4.00393e-05
4.00401e-05
4.00411e-05
4.00421e-05
4.0043e-05
4.0044e-05
4.0045e-05
4.0046e-05
4.00471e-05
4.00482e-05
4.00494e-05
4.00507e-05
4.00521e-05
4.00537e-05
4.00555e-05
4.00574e-05
4.00596e-05
4.0062e-05
4.00648e-05
4.00679e-05
4.00714e-05
4.00755e-05
4.00803e-05
4.00862e-05
4.00932e-05
4.01018e-05
4.0114e-05
4.00371e-05
4.00377e-05
4.00386e-05
4.0039e-05
4.00394e-05
4.00399e-05
4.00403e-05
4.00408e-05
4.00413e-05
4.00419e-05
4.00425e-05
4.00433e-05
4.00441e-05
4.00451e-05
4.00462e-05
4.00473e-05
4.00488e-05
4.00503e-05
4.0052e-05
4.00538e-05
4.00558e-05
4.0058e-05
4.00604e-05
4.00632e-05
4.00662e-05
4.00696e-05
4.00735e-05
4.00779e-05
4.00829e-05
4.00887e-05
4.00954e-05
4.01032e-05
4.01125e-05
4.01233e-05
4.01364e-05
4.01522e-05
4.01712e-05
4.02009e-05
4.02261e-05
4.00367e-05
4.00362e-05
4.00362e-05
4.00366e-05
4.00361e-05
4.00355e-05
4.00353e-05
4.00354e-05
4.00358e-05
4.00362e-05
4.00368e-05
4.00374e-05
4.00381e-05
4.00387e-05
4.00397e-05
4.00405e-05
4.00414e-05
4.00423e-05
4.00433e-05
4.00442e-05
4.00452e-05
4.00462e-05
4.00473e-05
4.00484e-05
4.00497e-05
4.00511e-05
4.00527e-05
4.00544e-05
4.00564e-05
4.00586e-05
4.0061e-05
4.00639e-05
4.00671e-05
4.00708e-05
4.00751e-05
4.00804e-05
4.00868e-05
4.00946e-05
4.01059e-05
4.00375e-05
4.0038e-05
4.00387e-05
4.00391e-05
4.00394e-05
4.00397e-05
4.004e-05
4.00404e-05
4.00408e-05
4.00413e-05
4.00418e-05
4.00425e-05
4.00432e-05
4.00441e-05
4.0045e-05
4.00461e-05
4.00473e-05
4.00488e-05
4.00503e-05
4.0052e-05
4.00538e-05
4.00558e-05
4.00581e-05
4.00606e-05
4.00634e-05
4.00666e-05
4.00702e-05
4.00742e-05
4.00789e-05
4.00842e-05
4.00904e-05
4.00975e-05
4.01059e-05
4.0116e-05
4.01279e-05
4.01429e-05
4.01597e-05
4.01866e-05
4.02138e-05
4.00373e-05
4.00368e-05
4.00366e-05
4.00368e-05
4.00361e-05
4.00354e-05
4.0035e-05
4.00351e-05
4.00353e-05
4.00355e-05
4.0036e-05
4.00365e-05
4.0037e-05
4.00376e-05
4.00384e-05
4.00391e-05
4.004e-05
4.00408e-05
4.00416e-05
4.00424e-05
4.00433e-05
4.00442e-05
4.00451e-05
4.00462e-05
4.00473e-05
4.00486e-05
4.00501e-05
4.00517e-05
4.00535e-05
4.00555e-05
4.00578e-05
4.00604e-05
4.00633e-05
4.00667e-05
4.00706e-05
4.00753e-05
4.00811e-05
4.00882e-05
4.00982e-05
4.0038e-05
4.00384e-05
4.0039e-05
4.00392e-05
4.00395e-05
4.00397e-05
4.00399e-05
4.00402e-05
4.00405e-05
4.00409e-05
4.00413e-05
4.00419e-05
4.00425e-05
4.00433e-05
4.00441e-05
4.00451e-05
4.00461e-05
4.00475e-05
4.00488e-05
4.00503e-05
4.00519e-05
4.00537e-05
4.00558e-05
4.0058e-05
4.00606e-05
4.00635e-05
4.00668e-05
4.00706e-05
4.00749e-05
4.00798e-05
4.00856e-05
4.00922e-05
4.01e-05
4.01092e-05
4.01201e-05
4.01339e-05
4.01496e-05
4.01731e-05
4.01997e-05
4.00378e-05
4.00374e-05
4.00371e-05
4.00369e-05
4.00362e-05
4.00353e-05
4.00349e-05
4.00348e-05
4.00349e-05
4.00351e-05
4.00354e-05
4.00357e-05
4.00362e-05
4.00367e-05
4.00372e-05
4.00379e-05
4.00386e-05
4.00393e-05
4.004e-05
4.00408e-05
4.00416e-05
4.00424e-05
4.00432e-05
4.00442e-05
4.00452e-05
4.00464e-05
4.00478e-05
4.00493e-05
4.0051e-05
4.00528e-05
4.00549e-05
4.00573e-05
4.006e-05
4.0063e-05
4.00666e-05
4.0071e-05
4.00762e-05
4.00826e-05
4.00914e-05
4.00384e-05
4.00388e-05
4.00394e-05
4.00395e-05
4.00396e-05
4.00398e-05
4.00399e-05
4.00401e-05
4.00403e-05
4.00406e-05
4.0041e-05
4.00415e-05
4.00421e-05
4.00427e-05
4.00435e-05
4.00443e-05
4.00452e-05
4.00463e-05
4.00476e-05
4.00489e-05
4.00505e-05
4.00521e-05
4.0054e-05
4.00561e-05
4.00584e-05
4.0061e-05
4.0064e-05
4.00674e-05
4.00713e-05
4.00758e-05
4.0081e-05
4.00871e-05
4.00943e-05
4.01028e-05
4.01128e-05
4.01254e-05
4.014e-05
4.01612e-05
4.01854e-05
4.00384e-05
4.00381e-05
4.00376e-05
4.00372e-05
4.00363e-05
4.00354e-05
4.00349e-05
4.00347e-05
4.00346e-05
4.00347e-05
4.00349e-05
4.00351e-05
4.00355e-05
4.00359e-05
4.00363e-05
4.00368e-05
4.00374e-05
4.0038e-05
4.00386e-05
4.00393e-05
4.004e-05
4.00407e-05
4.00415e-05
4.00424e-05
4.00433e-05
4.00445e-05
4.00457e-05
4.00471e-05
4.00486e-05
4.00503e-05
4.00522e-05
4.00544e-05
4.00568e-05
4.00596e-05
4.00629e-05
4.00669e-05
4.00717e-05
4.00776e-05
4.00855e-05
4.00389e-05
4.00393e-05
4.00397e-05
4.00397e-05
4.00398e-05
4.00399e-05
4.004e-05
4.00401e-05
4.00404e-05
4.00406e-05
4.0041e-05
4.00414e-05
4.00419e-05
4.00424e-05
4.00431e-05
4.00438e-05
4.00446e-05
4.00455e-05
4.00467e-05
4.00479e-05
4.00492e-05
4.00507e-05
4.00524e-05
4.00542e-05
4.00563e-05
4.00587e-05
4.00615e-05
4.00646e-05
4.00682e-05
4.00723e-05
4.0077e-05
4.00826e-05
4.00891e-05
4.00968e-05
4.0106e-05
4.01175e-05
4.01309e-05
4.01504e-05
4.01719e-05
4.00391e-05
4.00389e-05
4.00383e-05
4.00375e-05
4.00365e-05
4.00355e-05
4.00349e-05
4.00346e-05
4.00345e-05
4.00345e-05
4.00345e-05
4.00347e-05
4.00349e-05
4.00352e-05
4.00355e-05
4.00358e-05
4.00363e-05
4.00369e-05
4.00374e-05
4.0038e-05
4.00386e-05
4.00392e-05
4.00399e-05
4.00407e-05
4.00416e-05
4.00426e-05
4.00437e-05
4.0045e-05
4.00463e-05
4.00478e-05
4.00495e-05
4.00515e-05
4.00537e-05
4.00562e-05
4.00592e-05
4.00628e-05
4.00672e-05
4.00726e-05
4.00798e-05
4.00395e-05
4.00398e-05
4.00402e-05
4.004e-05
4.004e-05
4.00401e-05
4.00402e-05
4.00404e-05
4.00406e-05
4.00409e-05
4.00412e-05
4.00415e-05
4.00419e-05
4.00424e-05
4.00429e-05
4.00436e-05
4.00443e-05
4.0045e-05
4.0046e-05
4.0047e-05
4.00482e-05
4.00494e-05
4.00509e-05
4.00525e-05
4.00543e-05
4.00565e-05
4.00589e-05
4.00618e-05
4.00651e-05
4.00689e-05
4.00733e-05
4.00784e-05
4.00843e-05
4.00914e-05
4.00998e-05
4.01103e-05
4.01225e-05
4.01403e-05
4.01595e-05
4.00398e-05
4.00398e-05
4.0039e-05
4.00379e-05
4.00368e-05
4.00357e-05
4.00351e-05
4.00347e-05
4.00345e-05
4.00343e-05
4.00343e-05
4.00343e-05
4.00344e-05
4.00346e-05
4.00348e-05
4.00351e-05
4.00354e-05
4.00358e-05
4.00363e-05
4.00368e-05
4.00373e-05
4.00379e-05
4.00385e-05
4.00392e-05
4.00399e-05
4.00408e-05
4.00418e-05
4.00429e-05
4.00441e-05
4.00454e-05