/*--------------------------------*- C++ -*----------------------------------*\
| =========                 |                                                 |
| \\      /  F ield         | OpenFOAM: The Open Source CFD Toolbox           |
|  \\    /   O peration     | Version:  2506                                  |
|   \\  /    A nd           | Website:  www.openfoam.com                      |
|    \\/     M anipulation  |                                                 |
\*---------------------------------------------------------------------------*/
FoamFile
{
    version     2.0;
    format      ascii;
    arch        "LSB;label=32;scalar=64";
    class       pointScalarField;
    location    "150";
    object      streamFunction;
}
// * * * * * * * * * * * * * * * * * * * * * * * * * * * * * * * * * * * * * //

dimensions      [0 3 -1 0 0 0 0];

internalField   nonuniform List<scalar> 
21812
(
0
0
0
0
0
0
0
0
0
0
0
0
0
0
0
0
0
0
0
0
0
0
0
0
0
0
0
0
0
0
0
0
0
0
0
0
0
0
0
0
0
0
0
0
0
0
0
0
0
0
0
0
0
0
0
0
0
0
0
0
0
0
0
0
0
0
0
0
0
0
0
0
0
0
0
0
0
0
0
0
0
0
0
0
0
0
0
0
0
0
0
0
0
0
0
0
0
0
0
0
0
0
0
0
0
0
0
0
0
0
0
0
0
0
0
0
0
0
0
0
0
0
0
0
0
0
0
0
0
0
0
0
0
0
0
0
0
0
0
0
0
0
0
0
0
0
0
0
0
0
0
0
0
0
0
0
4.41778
4.81238
5.25398
5.63878
5.98474
6.31282
6.57824
6.79002
6.96256
7.07712
7.15282
7.19306
7.19018
7.1442
7.05002
6.90142
6.69736
6.42542
6.07602
5.63178
5.08238
4.41564
3.67158
2.9607
2.46994
2.32118
2.44342
2.66744
2.8838
3.04486
3.13988
3.17056
3.1399
3.05528
2.92232
2.7364
2.4774
2.10492
1.52195
1.47126
3.95744
3.47866
2.89454
2.25696
1.58796
0.901528
0.231118
-0.390486
-0.96059
-1.46114
-1.88899
-2.2505
-2.55276
-2.80372
-3.01792
-3.20142
-3.36376
-3.50942
-3.6445
-3.77126
-3.893
-4.00924
-4.11842
-4.20714
-4.27188
-4.31932
-4.35074
-4.37096
-4.38258
-4.38494
-4.37348
-4.3468
-4.30496
-4.24872
-4.1763
-4.08104
-3.94322
-3.66258
-3.27374
4.41778
4.81238
5.25398
5.63878
5.98474
6.31282
6.57824
6.79002
6.96256
7.07712
7.15282
7.19306
7.19018
7.1442
7.05002
6.90142
6.69736
6.42542
6.07602
5.63178
5.08238
4.41564
3.67158
2.9607
2.46994
2.32118
2.44342
2.66744
2.8838
3.04486
3.13988
3.17056
3.1399
3.05528
2.92232
2.7364
2.4774
2.10492
1.52195
1.47126
3.95744
3.47866
2.89454
2.25696
1.58796
0.901528
0.231118
-0.390486
-0.96059
-1.46114
-1.88899
-2.2505
-2.55276
-2.80372
-3.01792
-3.20142
-3.36376
-3.50942
-3.6445
-3.77126
-3.893
-4.00924
-4.11842
-4.20714
-4.27188
-4.31932
-4.35074
-4.37096
-4.38258
-4.38494
-4.37348
-4.3468
-4.30496
-4.24872
-4.1763
-4.08104
-3.94322
-3.66258
-3.27374
8.4503
9.27248
10.1524
10.9963
11.7718
12.5206
13.1783
13.7459
14.2432
14.6439
14.969
15.2228
15.4051
15.5265
15.5858
15.5735
15.4808
15.2898
14.9869
14.5332
13.9047
13.0524
11.9927
10.8209
9.77324
9.067
8.67402
8.42572
8.21718
8.01332
7.81286
7.60656
7.37318
7.0912
6.7443
6.31208
5.74726
4.98304
3.73509
3.06864
7.55376
6.6079
5.47706
4.26182
2.97976
1.65231
0.340882
-0.889092
-2.00836
-2.99825
-3.85152
-4.5819
-5.2047
-5.73224
-6.18838
-6.58516
-6.93798
-7.2575
-7.55492
-7.83468
-8.10326
-8.3616
-8.60664
-8.81562
-8.97944
-9.1085
-9.20192
-9.26264
-9.2925
-9.29344
-9.2656
-9.211
-9.13
-9.02328
-8.88752
-8.71008
-8.47188
-7.97944
-7.22346
8.4503
9.27248
10.1524
10.9963
11.7718
12.5206
13.1783
13.7459
14.2432
14.6439
14.969
15.2228
15.4051
15.5265
15.5858
15.5735
15.4808
15.2898
14.9869
14.5332
13.9047
13.0524
11.9927
10.8209
9.77324
9.067
8.67402
8.42572
8.21718
8.01332
7.81286
7.60656
7.37318
7.0912
6.7443
6.31208
5.74726
4.98304
3.73509
3.06864
7.55376
6.6079
5.47706
4.26182
2.97976
1.65231
0.340882
-0.889092
-2.00836
-2.99825
-3.85152
-4.5819
-5.2047
-5.73224
-6.18838
-6.58516
-6.93798
-7.2575
-7.55492
-7.83468
-8.10326
-8.3616
-8.60664
-8.81562
-8.97944
-9.1085
-9.20192
-9.26264
-9.2925
-9.29344
-9.2656
-9.211
-9.13
-9.02328
-8.88752
-8.71008
-8.47188
-7.97944
-7.22346
12.3683
13.6241
14.9416
16.2582
17.4666
18.6279
19.6809
20.6006
21.4146
22.0878
22.6458
23.0936
23.4324
23.6692
23.8122
23.8485
23.7889
23.6164
23.3335
22.9075
22.3266
21.5479
20.5696
19.4376
18.3296
17.4584
16.8304
16.2993
15.7547
15.1504
14.4895
13.7923
13.0788
12.3564
11.6064
10.7823
9.79482
8.5407
6.56265
5.00858
11.0357
9.61334
7.91328
6.10675
4.20745
2.24014
0.296468
-1.52246
-3.17888
-4.65436
-5.93486
-7.0383
-7.98748
-8.8001
-9.50632
-10.1251
-10.6772
-11.1787
-11.6447
-12.0832
-12.5042
-12.909
-13.2923
-13.6253
-13.8931
-14.1082
-14.2713
-14.3859
-14.4553
-14.4812
-14.4649
-14.4077
-14.3099
-14.1707
-13.9852
-13.7336
-13.3905
-12.6885
-11.5689
12.3683
13.6241
14.9416
16.2582
17.4666
18.6279
19.6809
20.6006
21.4146
22.0878
22.6458
23.0936
23.4324
23.6692
23.8122
23.8485
23.7889
23.6164
23.3335
22.9075
22.3266
21.5479
20.5696
19.4376
18.3296
17.4584
16.8304
16.2993
15.7547
15.1504
14.4895
13.7923
13.0788
12.3564
11.6064
10.7823
9.79482
8.5407
6.56265
5.00858
11.0357
9.61334
7.91328
6.10675
4.20745
2.24014
0.296468
-1.52246
-3.17888
-4.65436
-5.93486
-7.0383
-7.98748
-8.8001
-9.50632
-10.1251
-10.6772
-11.1787
-11.6447
-12.0832
-12.5042
-12.909
-13.2923
-13.6253
-13.8931
-14.1082
-14.2713
-14.3859
-14.4553
-14.4812
-14.4649
-14.4077
-14.3099
-14.1707
-13.9852
-13.7336
-13.3905
-12.6885
-11.5689
16.148
17.8563
19.6284
21.4452
23.1107
24.7157
26.1949
27.5064
28.6748
29.6688
30.5099
31.2051
31.7555
32.1695
32.4562
32.6098
32.6315
32.5059
32.2297
31.7782
31.1437
30.2994
29.2649
28.0884
26.9245
25.957
25.1981
24.5211
23.8251
23.0528
22.1815
21.2024
20.113
18.9253
17.6537
16.2876
14.7366
12.8657
10.0611
7.48052
14.3685
12.4676
10.1872
7.78539
5.26585
2.65424
0.079896
-2.32115
-4.50806
-6.46325
-8.16622
-9.64054
-10.9176
-12.0201
-12.9845
-13.8344
-14.5965
-15.2905
-15.9363
-16.5443
-17.127
-17.6868
-18.2172
-18.6829
-19.0637
-19.3737
-19.6145
-19.7906
-19.906
-19.9637
-19.9658
-19.9138
-19.808
-19.6472
-19.4237
-19.1104
-18.6705
-17.7698
-16.2754
16.148
17.8563
19.6284
21.4452
23.1107
24.7157
26.1949
27.5064
28.6748
29.6688
30.5099
31.2051
31.7555
32.1695
32.4562
32.6098
32.6315
32.5059
32.2297
31.7782
31.1437
30.2994
29.2649
28.0884
26.9245
25.957
25.1981
24.5211
23.8251
23.0528
22.1815
21.2024
20.113
18.9253
17.6537
16.2876
14.7366
12.8657
10.0611
7.48052
14.3685
12.4676
10.1872
7.78539
5.26585
2.65424
0.079896
-2.32115
-4.50806
-6.46325
-8.16622
-9.64054
-10.9176
-12.0201
-12.9845
-13.8344
-14.5965
-15.2905
-15.9363
-16.5443
-17.127
-17.6868
-18.2172
-18.6829
-19.0637
-19.3737
-19.6145
-19.7906
-19.906
-19.9637
-19.9658
-19.9138
-19.808
-19.6472
-19.4237
-19.1104
-18.6705
-17.7698
-16.2754
19.8584
22.036
24.2806
26.6258
28.7635
30.832
32.7581
34.4779
36.0181
37.3531
38.4914
39.4477
40.2216
40.8266
41.2657
41.5363
41.6397
41.5654
41.3124
40.8531
40.1869
39.2872
38.1786
36.9118
35.6338
34.5219
33.5969
32.7504
31.8937
30.9727
29.9636
28.8475
27.5987
26.1899
24.5896
22.7612
20.62
18.0402
14.3095
10.6047
17.6109
15.2168
12.3308
9.31639
6.16172
2.89267
-0.321414
-3.30678
-6.02242
-8.45446
-10.5765
-12.4195
-14.0249
-15.4195
-16.6464
-17.7346
-18.7143
-19.6087
-20.4419
-21.2272
-21.9787
-22.6995
-23.3827
-23.987
-24.4871
-24.8977
-25.2211
-25.4631
-25.6279
-25.7194
-25.7404
-25.6938
-25.5802
-25.3978
-25.1386
-24.7687
-24.2403
-23.166
-21.3089
19.8584
22.036
24.2806
26.6258
28.7635
30.832
32.7581
34.4779
36.0181
37.3531
38.4914
39.4477
40.2216
40.8266
41.2657
41.5363
41.6397
41.5654
41.3124
40.8531
40.1869
39.2872
38.1786
36.9118
35.6338
34.5219
33.5969
32.7504
31.8937
30.9727
29.9636
28.8475
27.5987
26.1899
24.5896
22.7612
20.62
18.0402
14.3095
10.6047
17.6109
15.2168
12.3308
9.31639
6.16172
2.89267
-0.321414
-3.30678
-6.02242
-8.45446
-10.5765
-12.4195
-14.0249
-15.4195
-16.6464
-17.7346
-18.7143
-19.6087
-20.4419
-21.2272
-21.9787
-22.6995
-23.3827
-23.987
-24.4871
-24.8977
-25.2211
-25.4631
-25.6279
-25.7194
-25.7404
-25.6938
-25.5802
-25.3978
-25.1386
-24.7687
-24.2403
-23.166
-21.3089
23.5131
26.1803
28.9235
31.8244
34.458
37.0099
39.4097
41.5566
43.4936
45.1889
46.6487
47.8923
48.9157
49.7366
50.3579
50.7746
50.9948
51.0003
50.7924
50.3462
49.6597
48.7096
47.5259
46.1568
44.7438
43.4614
42.3403
41.288
40.2265
39.1049
37.9018
36.6025
35.1839
33.6155
31.843
29.7734
27.236
24.0331
19.3599
14.4664
20.7782
17.8744
14.3563
10.7061
6.89595
2.95041
-0.918798
-4.49661
-7.74402
-10.6529
-13.1921
-15.401
-17.3331
-19.0204
-20.5122
-21.8425
-23.0451
-24.1471
-25.1752
-26.1452
-27.0731
-27.9625
-28.8053
-29.5564
-30.184
-30.7023
-31.1157
-31.4298
-31.6497
-31.78
-31.8243
-31.7861
-31.6661
-31.4631
-31.1662
-30.7367
-30.1132
-28.8691
-26.6579
23.5131
26.1803
28.9235
31.8244
34.458
37.0099
39.4097
41.5566
43.4936
45.1889
46.6487
47.8923
48.9157
49.7366
50.3579
50.7746
50.9948
51.0003
50.7924
50.3462
49.6597
48.7096
47.5259
46.1568
44.7438
43.4614
42.3403
41.288
40.2265
39.1049
37.9018
36.6025
35.1839
33.6155
31.843
29.7734
27.236
24.0331
19.3599
14.4664
20.7782
17.8744
14.3563
10.7061
6.89595
2.95041
-0.918798
-4.49661
-7.74402
-10.6529
-13.1921
-15.401
-17.3331
-19.0204
-20.5122
-21.8425
-23.0451
-24.1471
-25.1752
-26.1452
-27.0731
-27.9625
-28.8053
-29.5564
-30.184
-30.7023
-31.1157
-31.4298
-31.6497
-31.78
-31.8243
-31.7861
-31.6661
-31.4631
-31.1662
-30.7367
-30.1132
-28.8691
-26.6579
27.1364
30.3198
33.5826
37.0704
40.2251
43.2852
46.1799
48.7767
51.1269
53.2028
55.002
56.5486
57.8412
58.895
59.7142
60.2952
60.6428
60.742
60.5935
60.1743
59.4834
58.5005
57.2575
55.8038
54.2707
52.8296
51.5182
50.2584
48.9822
47.6413
46.213
44.6844
43.0356
41.2431
39.2594
36.9913
34.2219
30.6216
25.1644
19.1079
23.8899
20.4542
16.2747
11.9622
7.47187
2.82485
-1.71943
-5.90388
-9.69094
-13.0808
-16.0372
-18.6105
-20.8676
-22.8468
-24.6039
-26.1788
-27.6086
-28.9234
-30.1526
-31.3139
-32.4248
-33.4893
-34.4984
-35.4026
-36.1649
-36.7983
-37.3077
-37.6996
-37.9791
-38.1522
-38.2224
-38.1947
-38.0699
-37.846
-37.5112
-37.0203
-36.2977
-34.8838
-32.3291
27.1364
30.3198
33.5826
37.0704
40.2251
43.2852
46.1799
48.7767
51.1269
53.2028
55.002
56.5486
57.8412
58.895
59.7142
60.2952
60.6428
60.742
60.5935
60.1743
59.4834
58.5005
57.2575
55.8038
54.2707
52.8296
51.5182
50.2584
48.9822
47.6413
46.213
44.6844
43.0356
41.2431
39.2594
36.9913
34.2219
30.6216
25.1644
19.1079
23.8899
20.4542
16.2747
11.9622
7.47187
2.82485
-1.71943
-5.90388
-9.69094
-13.0808
-16.0372
-18.6105
-20.8676
-22.8468
-24.6039
-26.1788
-27.6086
-28.9234
-30.1526
-31.3139
-32.4248
-33.4893
-34.4984
-35.4026
-36.1649
-36.7983
-37.3077
-37.6996
-37.9791
-38.1522
-38.2224
-38.1947
-38.0699
-37.846
-37.5112
-37.0203
-36.2977
-34.8838
-32.3291
30.7417
34.468
38.2787
42.3869
46.0866
49.6805
53.0948
56.1617
58.9488
61.4211
63.578
65.4481
67.0268
68.3309
69.3671
70.1306
70.6258
70.8386
70.769
70.3933
69.7118
68.7079
67.4139
65.8803
64.235
62.6439
61.1501
59.6885
58.1999
56.638
54.9798
53.2096
51.3074
49.2492
46.992
44.4526
41.4285
37.5572
31.5576
24.4879
26.9589
22.9678
18.0925
13.0871
7.88773
2.51144
-2.73282
-7.542
-11.8803
-15.758
-19.1342
-22.0714
-24.6523
-26.922
-28.9438
-30.7646
-32.4238
-33.9554
-35.3905
-36.7489
-38.0487
-39.2947
-40.4769
-41.5414
-42.446
-43.2019
-43.8143
-44.2905
-44.6353
-44.8555
-44.9559
-44.9414
-44.8136
-44.5698
-44.196
-43.6417
-42.8161
-41.2298
-38.3422
30.7417
34.468
38.2787
42.3869
46.0866
49.6805
53.0948
56.1617
58.9488
61.4211
63.578
65.4481
67.0268
68.3309
69.3671
70.1306
70.6258
70.8386
70.769
70.3933
69.7118
68.7079
67.4139
65.8803
64.235
62.6439
61.1501
59.6885
58.1999
56.638
54.9798
53.2096
51.3074
49.2492
46.992
44.4526
41.4285
37.5572
31.5576
24.4879
26.9589
22.9678
18.0925
13.0871
7.88773
2.51144
-2.73282
-7.542
-11.8803
-15.758
-19.1342
-22.0714
-24.6523
-26.922
-28.9438
-30.7646
-32.4238
-33.9554
-35.3905
-36.7489
-38.0487
-39.2947
-40.4769
-41.5414
-42.446
-43.2019
-43.8143
-44.2905
-44.6353
-44.8555
-44.9559
-44.9414
-44.8136
-44.5698
-44.196
-43.6417
-42.8161
-41.2298
-38.3422
34.3446
38.6411
43.0287
47.7913
52.0638
56.2206
60.1815
63.7425
66.9842
69.8748
72.4057
74.6131
76.4939
78.0651
79.3339
80.2957
80.9555
81.2972
81.3204
81.0021
80.3434
79.3304
77.9965
76.3922
74.6428
72.9106
71.242
69.5828
67.884
66.1024
64.2138
62.201
60.0424
57.71
55.1572
52.2992
48.9404
44.7649
38.3697
30.4746
29.9958
25.4223
19.8155
14.0856
8.14394
2.00635
-3.96772
-9.42317
-14.3278
-18.7034
-22.5043
-25.807
-28.7112
-31.2701
-33.5556
-35.6218
-37.512
-39.2628
-40.9074
-42.4676
-43.9623
-45.3955
-46.7569
-47.9886
-49.0432
-49.9285
-50.6509
-51.2172
-51.6331
-51.9054
-52.0394
-52.0411
-51.9118
-51.6487
-51.236
-50.6167
-49.6846
-47.9254
-44.717
34.3446
38.6411
43.0287
47.7913
52.0638
56.2206
60.1815
63.7425
66.9842
69.8748
72.4057
74.6131
76.4939
78.0651
79.3339
80.2957
80.9555
81.2972
81.3204
81.0021
80.3434
79.3304
77.9965
76.3922
74.6428
72.9106
71.242
69.5828
67.884
66.1024
64.2138
62.201
60.0424
57.71
55.1572
52.2992
48.9404
44.7649
38.3697
30.4746
29.9958
25.4223
19.8155
14.0856
8.14394
2.00635
-3.96772
-9.42317
-14.3278
-18.7034
-22.5043
-25.807
-28.7112
-31.2701
-33.5556
-35.6218
-37.512
-39.2628
-40.9074
-42.4676
-43.9623
-45.3955
-46.7569
-47.9886
-49.0432
-49.9285
-50.6509
-51.2172
-51.6331
-51.9054
-52.0394
-52.0411
-51.9118
-51.6487
-51.236
-50.6167
-49.6846
-47.9254
-44.717
37.9533
42.8522
47.8477
53.3025
58.1768
62.9224
67.4591
71.5376
75.2563
78.5848
81.507
84.0685
86.2684
88.1207
89.6362
90.8132
91.6518
92.1378
92.2688
92.0239
91.403
90.3917
89.0282
87.3615
85.5156
83.6494
81.8112
79.958
78.0499
76.0465
73.9248
71.6664
69.2478
66.6386
63.7867
60.6003
56.8679
52.3078
45.5288
36.9159
33.0108
27.8256
21.4479
14.9563
8.23841
1.30249
-5.43256
-11.5595
-17.0489
-21.9358
-26.1686
-29.8396
-33.0678
-35.9149
-38.463
-40.774
-42.8952
-44.8664
-46.7236
-48.4894
-50.1829
-51.8089
-53.3557
-54.7614
-55.9729
-56.9954
-57.8344
-58.4976
-58.9903
-59.3196
-59.4919
-59.5125
-59.3841
-59.103
-58.6508
-57.9646
-56.9234
-54.9913
-51.4736
37.9533
42.8522
47.8477
53.3025
58.1768
62.9224
67.4591
71.5376
75.2563
78.5848
81.507
84.0685
86.2684
88.1207
89.6362
90.8132
91.6518
92.1378
92.2688
92.0239
91.403
90.3917
89.0282
87.3615
85.5156
83.6494
81.8112
79.958
78.0499
76.0465
73.9248
71.6664
69.2478
66.6386
63.7867
60.6003
56.8679
52.3078
45.5288
36.9159
33.0108
27.8256
21.4479
14.9563
8.23841
1.30249
-5.43256
-11.5595
-17.0489
-21.9358
-26.1686
-29.8396
-33.0678
-35.9149
-38.463
-40.774
-42.8952
-44.8664
-46.7236
-48.4894
-50.1829
-51.8089
-53.3557
-54.7614
-55.9729
-56.9954
-57.8344
-58.4976
-58.9903
-59.3196
-59.4919
-59.5125
-59.3841
-59.103
-58.6508
-57.9646
-56.9234
-54.9913
-51.4736
41.5793
47.1123
52.7473
58.9328
64.4425
69.8091
74.9511
79.5699
83.79
87.5767
90.9088
93.84
96.3718
98.5207
100.3
101.703
102.736
103.38
103.634
103.475
102.905
101.908
100.524
98.8038
96.8697
94.8778
92.8778
90.8346
88.7174
86.4909
84.1315
81.6216
78.9368
76.0445
72.8884
69.37
65.2597
60.2668
53.058
43.744
36.0099
30.1825
22.9924
15.7002
8.1667
0.394763
-7.13694
-13.9635
-20.0594
-25.4725
-30.1472
-34.1914
-37.7457
-40.8809
-43.6903
-46.2449
-48.5966
-50.7889
-52.86
-54.8341
-56.7308
-58.5545
-60.2919
-61.8782
-63.2537
-64.4203
-65.3834
-66.15
-66.7256
-67.1172
-67.3315
-67.3749
-67.2494
-66.9515
-66.4596
-65.7054
-64.5525
-62.4477
-58.6336
41.5793
47.1123
52.7473
58.9328
64.4425
69.8091
74.9511
79.5699
83.79
87.5767
90.9088
93.84
96.3718
98.5207
100.3
101.703
102.736
103.38
103.634
103.475
102.905
101.908
100.524
98.8038
96.8697
94.8778
92.8778
90.8346
88.7174
86.4909
84.1315
81.6216
78.9368
76.0445
72.8884
69.37
65.2597
60.2668
53.058
43.744
36.0099
30.1825
22.9924
15.7002
8.1667
0.394763
-7.13694
-13.9635
-20.0594
-25.4725
-30.1472
-34.1914
-37.7457
-40.8809
-43.6903
-46.2449
-48.5966
-50.7889
-52.86
-54.8341
-56.7308
-58.5545
-60.2919
-61.8782
-63.2537
-64.4203
-65.3834
-66.15
-66.7256
-67.1172
-67.3315
-67.3749
-67.2494
-66.9515
-66.4596
-65.7054
-64.5525
-62.4477
-58.6336
45.2287
51.4317
57.7414
64.6984
70.8756
76.8953
82.6743
87.8633
92.6075
96.874
100.634
103.952
106.833
109.291
111.345
112.991
114.231
115.047
115.436
115.376
114.869
113.898
112.505
110.74
108.726
106.616
104.462
102.233
99.909
97.4578
94.8574
92.0901
89.1312
85.947
82.4771
78.6181
74.1286
68.6883
61.0083
50.9856
38.9994
32.4953
24.45
16.3151
7.92499
-0.724137
-9.09169
-16.6483
-23.3746
-29.3324
-34.4609
-38.8851
-42.7683
-46.1922
-49.2622
-52.0593
-54.6404
-57.0535
-59.3395
-61.5237
-63.6265
-65.6517
-67.5855
-69.3586
-70.9049
-72.2229
-73.3167
-74.1936
-74.8579
-75.3173
-75.5785
-75.6479
-75.5283
-75.2144
-74.6832
-73.8597
-72.5929
-70.3168
-66.2196
45.2287
51.4317
57.7414
64.6984
70.8756
76.8953
82.6743
87.8633
92.6075
96.874
100.634
103.952
106.833
109.291
111.345
112.991
114.231
115.047
115.436
115.376
114.869
113.898
112.505
110.74
108.726
106.616
104.462
102.233
99.909
97.4578
94.8574
92.0901
89.1312
85.947
82.4771
78.6181
74.1286
68.6883
61.0083
50.9856
38.9994
32.4953
24.45
16.3151
7.92499
-0.724137
-9.09169
-16.6483
-23.3746
-29.3324
-34.4609
-38.8851
-42.7683
-46.1922
-49.2622
-52.0593
-54.6404
-57.0535
-59.3395
-61.5237
-63.6265
-65.6517
-67.5855
-69.3586
-70.9049
-72.2229
-73.3167
-74.1936
-74.8579
-75.3173
-75.5785
-75.6479
-75.5283
-75.2144
-74.6832
-73.8597
-72.5929
-70.3168
-66.2196
48.9109
55.8181
62.8397
70.6114
77.4932
84.2011
90.6498
96.4375
101.732
106.5
110.707
114.43
117.674
120.456
122.8
124.7
126.159
127.159
127.698
127.749
127.315
126.382
124.99
123.189
121.104
118.886
116.584
114.176
111.647
108.971
106.126
103.097
99.8564
96.3707
92.5758
88.3638
83.4859
77.5946
69.4229
58.6922
41.9833
34.7692
25.8212
16.7998
7.50795
-2.06391
-11.3069
-19.628
-27.011
-33.5341
-39.1302
-43.9429
-48.1599
-51.8745
-55.2048
-58.2433
-61.0525
-63.6856
-66.1864
-68.5819
-70.8929
-73.1233
-75.2579
-77.2238
-78.9475
-80.4236
-81.6551
-82.6485
-83.4079
-83.9408
-84.2536
-84.3532
-84.242
-83.914
-83.3434
-82.4502
-81.0678
-78.6213
-74.2549
48.9109
55.8181
62.8397
70.6114
77.4932
84.2011
90.6498
96.4375
101.732
106.5
110.707
114.43
117.674
120.456
122.8
124.7
126.159
127.159
127.698
127.749
127.315
126.382
124.99
123.189
121.104
118.886
116.584
114.176
111.647
108.971
106.126
103.097
99.8564
96.3707
92.5758
88.3638
83.4859
77.5946
69.4229
58.6922
41.9833
34.7692
25.8212
16.7998
7.50795
-2.06391
-11.3069
-19.628
-27.011
-33.5341
-39.1302
-43.9429
-48.1599
-51.8745
-55.2048
-58.2433
-61.0525
-63.6856
-66.1864
-68.5819
-70.8929
-73.1233
-75.2579
-77.2238
-78.9475
-80.4236
-81.6551
-82.6485
-83.4079
-83.9408
-84.2536
-84.3532
-84.242
-83.914
-83.3434
-82.4502
-81.0678
-78.6213
-74.2549
52.6304
60.2808
68.0537
76.686
84.3101
91.742
98.8955
105.313
111.185
116.477
121.152
125.298
128.921
132.043
134.69
136.855
138.546
139.742
140.441
140.616
140.268
139.383
138.001
136.175
134.027
131.709
129.267
126.685
123.955
121.054
117.963
114.667
111.138
107.342
103.212
98.6338
93.3534
87.0027
78.3317
66.906
44.9688
37.0038
27.1054
17.1498
6.90979
-3.6317
-13.7956
-22.917
-30.9865
-38.0974
-44.1772
-49.3882
-53.9452
-57.9529
-61.5439
-64.8233
-67.8595
-70.7111
-73.4261
-76.0335
-78.5543
-80.9925
-83.3323
-85.4962
-87.4032
-89.044
-90.42
-91.5368
-92.3976
-93.0096
-93.3789
-93.5125
-93.4128
-93.0725
-92.4631
-91.4995
-90.0007
-87.3863
-82.7642
52.6304
60.2808
68.0537
76.686
84.3101
91.742
98.8955
105.313
111.185
116.477
121.152
125.298
128.921
132.043
134.69
136.855
138.546
139.742
140.441
140.616
140.268
139.383
138.001
136.175
134.027
131.709
129.267
126.685
123.955
121.054
117.963
114.667
111.138
107.342
103.212
98.6338
93.3534
87.0027
78.3317
66.906
44.9688
37.0038
27.1054
17.1498
6.90979
-3.6317
-13.7956
-22.917
-30.9865
-38.0974
-44.1772
-49.3882
-53.9452
-57.9529
-61.5439
-64.8233
-67.8595
-70.7111
-73.4261
-76.0335
-78.5543
-80.9925
-83.3323
-85.4962
-87.4032
-89.044
-90.42
-91.5368
-92.3976
-93.0096
-93.3789
-93.5125
-93.4128
-93.0725
-92.4631
-91.4995
-90.0007
-87.3863
-82.7642
56.3932
64.8289
73.3935
82.9348
91.3404
99.5348
107.432
114.509
120.987
126.833
131.997
136.584
140.602
144.076
147.039
149.484
151.419
152.824
153.693
154.001
153.749
152.923
151.56
149.717
147.516
145.106
142.534
139.784
136.856
133.732
130.394
126.826
123.004
118.889
114.413
109.456
103.759
96.9365
87.7589
75.6575
47.9575
39.2039
28.3018
17.3622
6.12402
-5.43864
-16.5696
-26.5312
-35.3178
-43.042
-49.6231
-55.2449
-60.1492
-64.454
-68.3071
-71.8268
-75.0887
-78.1578
-81.0859
-83.9048
-86.6362
-89.2848
-91.8333
-94.2
-96.2965
-98.1082
-99.6351
-100.881
-101.85
-102.546
-102.978
-103.15
-103.064
-102.714
-102.067
-101.033
-99.417
-96.6368
-91.7732
56.3932
64.8289
73.3935
82.9348
91.3404
99.5348
107.432
114.509
120.987
126.833
131.997
136.584
140.602
144.076
147.039
149.484
151.419
152.824
153.693
154.001
153.749
152.923
151.56
149.717
147.516
145.106
142.534
139.784
136.856
133.732
130.394
126.826
123.004
118.889
114.413
109.456
103.759
96.9365
87.7589
75.6575
47.9575
39.2039
28.3018
17.3622
6.12402
-5.43864
-16.5696
-26.5312
-35.3178
-43.042
-49.6231
-55.2449
-60.1492
-64.454
-68.3071
-71.8268
-75.0887
-78.1578
-81.0859
-83.9048
-86.6362
-89.2848
-91.8333
-94.2
-96.2965
-98.1082
-99.6351
-100.881
-101.85
-102.546
-102.978
-103.15
-103.064
-102.714
-102.067
-101.033
-99.417
-96.6368
-91.7732
60.2062
69.4705
78.8695
89.3701
98.5985
107.598
116.278
124.05
131.164
137.588
143.264
148.312
152.744
156.587
159.878
162.615
164.804
166.428
167.479
167.933
167.787
167.027
165.694
163.842
161.596
159.103
156.408
153.498
150.377
147.03
143.443
139.602
135.48
131.039
126.207
120.861
114.733
107.424
97.7308
84.9721
50.9531
41.3679
29.408
17.4318
5.14229
-7.49546
-19.6436
-30.4871
-40.0252
-48.3894
-55.4919
-61.5377
-66.7981
-71.4051
-75.5224
-79.2827
-82.7692
-86.0543
-89.1944
-92.2241
-95.1664
-98.0266
-100.787
-103.361
-105.652
-107.641
-109.325
-110.707
-111.789
-112.577
-113.075
-113.289
-113.222
-112.864
-112.18
-111.076
-109.343
-106.4
-101.31
60.2062
69.4705
78.8695
89.3701
98.5985
107.598
116.278
124.05
131.164
137.588
143.264
148.312
152.744
156.587
159.878
162.615
164.804
166.428
167.479
167.933
167.787
167.027
165.694
163.842
161.596
159.103
156.408
153.498
150.377
147.03
143.443
139.602
135.48
131.039
126.207
120.861
114.733
107.424
97.7308
84.9721
50.9531
41.3679
29.408
17.4318
5.14229
-7.49546
-19.6436
-30.4871
-40.0252
-48.3894
-55.4919
-61.5377
-66.7981
-71.4051
-75.5224
-79.2827
-82.7692
-86.0543
-89.1944
-92.2241
-95.1664
-98.0266
-100.787
-103.361
-105.652
-107.641
-109.325
-110.707
-111.789
-112.577
-113.075
-113.289
-113.222
-112.864
-112.18
-111.076
-109.343
-106.4
-101.31
64.0736
74.211
84.4909
96.0044
106.1
115.948
125.452
133.955
141.739
148.769
154.98
160.511
165.374
169.602
173.236
176.276
178.732
180.585
181.829
182.437
182.406
181.723
180.427
178.575
176.292
173.726
170.916
167.852
164.543
160.976
157.141
153.022
148.596
143.821
138.624
132.878
126.307
118.499
108.278
94.8769
53.9586
43.4975
30.4222
17.3526
3.95624
-9.81298
-23.0325
-34.802
-45.1284
-54.1616
-61.8067
-68.2917
-73.9187
-78.834
-83.2184
-87.2205
-90.9312
-94.431
-97.7815
-101.021
-104.174
-107.247
-110.222
-113.007
-115.498
-117.669
-119.515
-121.04
-122.242
-123.126
-123.696
-123.958
-123.913
-123.549
-122.83
-121.656
-119.807
-116.705
-111.402
64.0736
74.211
84.4909
96.0044
106.1
115.948
125.452
133.955
141.739
148.769
154.98
160.511
165.374
169.602
173.236
176.276
178.732
180.585
181.829
182.437
182.406
181.723
180.427
178.575
176.292
173.726
170.916
167.852
164.543
160.976
157.141
153.022
148.596
143.821
138.624
132.878
126.307
118.499
108.278
94.8769
53.9586
43.4975
30.4222
17.3526
3.95624
-9.81298
-23.0325
-34.802
-45.1284
-54.1616
-61.8067
-68.2917
-73.9187
-78.834
-83.2184
-87.2205
-90.9312
-94.431
-97.7815
-101.021
-104.174
-107.247
-110.222
-113.007
-115.498
-117.669
-119.515
-121.04
-122.242
-123.126
-123.696
-123.958
-123.913
-123.549
-122.83
-121.656
-119.807
-116.705
-111.402
68.0016
79.0601
90.2699
102.85
113.863
124.602
134.975
144.246
152.734
160.401
167.174
173.209
178.523
183.15
187.142
190.499
193.233
195.327
196.773
197.544
197.638
197.039
195.79
193.945
191.633
189
186.083
182.874
179.381
175.598
171.514
167.117
162.381
157.266
151.696
145.537
138.512
130.192
119.433
105.402
56.9778
45.5932
31.3407
17.1194
2.55628
-12.4048
-26.7509
-39.4949
-50.648
-60.3823
-68.5935
-75.5344
-81.5395
-86.7702
-91.4259
-95.671
-99.6062
-103.319
-106.879
-110.327
-113.69
-116.976
-120.167
-123.168
-125.862
-128.22
-130.235
-131.908
-133.236
-134.221
-134.869
-135.183
-135.163
-134.797
-134.045
-132.802
-130.839
-127.582
-122.081
68.0016
79.0601
90.2699
102.85
113.863
124.602
134.975
144.246
152.734
160.401
167.174
173.209
178.523
183.15
187.142
190.499
193.233
195.327
196.773
197.544
197.638
197.039
195.79
193.945
191.633
189
186.083
182.874
179.381
175.598
171.514
167.117
162.381
157.266
151.696
145.537
138.512
130.192
119.433
105.402
56.9778
45.5932
31.3407
17.1194
2.55628
-12.4048
-26.7509
-39.4949
-50.648
-60.3823
-68.5935
-75.5344
-81.5395
-86.7702
-91.4259
-95.671
-99.6062
-103.319
-106.879
-110.327
-113.69
-116.976
-120.167
-123.168
-125.862
-128.22
-130.235
-131.908
-133.236
-134.221
-134.869
-135.183
-135.163
-134.797
-134.045
-132.802
-130.839
-127.582
-122.081
71.9947
84.025
96.214
109.922
121.898
133.579
144.866
154.948
164.174
172.509
179.872
186.435
192.219
197.265
201.629
205.316
208.34
210.684
212.341
213.285
213.512
213.006
211.809
209.979
207.646
204.954
201.94
198.591
194.92
190.924
186.593
181.916
176.867
171.405
165.454
158.873
151.382
142.539
131.231
116.582
60.0127
47.6544
32.1605
16.726
0.933071
-15.2838
-30.8167
-44.5851
-56.6065
-67.0752
-75.878
-83.2931
-89.6892
-95.244
-100.176
-104.666
-108.826
-112.752
-116.519
-120.175
-123.747
-127.247
-130.656
-133.875
-136.777
-139.326
-141.515
-143.34
-144.799
-145.893
-146.624
-146.994
-147.004
-146.639
-145.856
-144.545
-142.47
-139.062
-133.377
71.9947
84.025
96.214
109.922
121.898
133.579
144.866
154.948
164.174
172.509
179.872
186.435
192.219
197.265
201.629
205.316
208.34
210.684
212.341
213.285
213.512
213.006
211.809
209.979
207.646
204.954
201.94
198.591
194.92
190.924
186.593
181.916
176.867
171.405
165.454
158.873
151.382
142.539
131.231
116.582
60.0127
47.6544
32.1605
16.726
0.933071
-15.2838
-30.8167
-44.5851
-56.6065
-67.0752
-75.878
-83.2931
-89.6892
-95.244
-100.176
-104.666
-108.826
-112.752
-116.519
-120.175
-123.747
-127.247
-130.656
-133.875
-136.777
-139.326
-141.515
-143.34
-144.799
-145.893
-146.624
-146.994
-147.004
-146.639
-145.856
-144.545
-142.47
-139.062
-133.377
76.0586
89.113
102.335
117.232
130.226
142.897
155.15
166.082
176.085
185.123
193.104
200.22
206.497
211.978
216.731
220.761
224.086
226.691
228.569
229.694
230.061
229.656
228.518
226.709
224.362
221.62
218.514
215.033
211.191
206.986
202.409
197.45
192.086
186.273
179.932
172.92
164.952
155.576
143.709
128.452
63.0655
49.6808
32.8773
16.1636
-0.924379
-18.4645
-35.2472
-50.0935
-63.0275
-74.267
-83.6888
-91.5972
-98.3989
-104.287
-109.501
-114.241
-118.626
-122.765
-126.738
-130.599
-134.38
-138.093
-141.722
-145.161
-148.274
-151.019
-153.386
-155.369
-156.965
-158.172
-158.99
-159.423
-159.466
-159.105
-158.293
-156.918
-154.733
-151.18
-145.325
76.0586
89.113
102.335
117.232
130.226
142.897
155.15
166.082
176.085
185.123
193.104
200.22
206.497
211.978
216.731
220.761
224.086
226.691
228.569
229.694
230.061
229.656
228.518
226.709
224.362
221.62
218.514
215.033
211.191
206.986
202.409
197.45
192.086
186.273
179.932
172.92
164.952
155.576
143.709
128.452
63.0655
49.6808
32.8773
16.1636
-0.924379
-18.4645
-35.2472
-50.0935
-63.0275
-74.267
-83.6888
-91.5972
-98.3989
-104.287
-109.501
-114.241
-118.626
-122.765
-126.738
-130.599
-134.38
-138.093
-141.722
-145.161
-148.274
-151.019
-153.386
-155.369
-156.965
-158.172
-158.99
-159.423
-159.466
-159.105
-158.293
-156.918
-154.733
-151.18
-145.325
80.1965
94.3321
108.644
124.796
138.86
152.577
165.845
177.674
188.495
198.271
206.899
214.594
221.385
227.322
232.481
236.868
240.507
243.383
245.492
246.807
247.322
247.022
245.951
244.17
241.814
239.028
235.839
232.231
228.225
223.814
218.995
213.755
208.072
201.903
195.165
187.714
179.26
169.341
156.905
141.05
66.1383
51.6716
33.4877
15.4251
-3.02824
-21.9626
-40.0624
-56.043
-69.9361
-81.9842
-92.0544
-100.478
-107.701
-113.933
-119.436
-124.428
-129.041
-133.392
-137.572
-141.637
-145.625
-149.551
-153.4
-157.062
-160.389
-163.333
-165.882
-168.029
-169.766
-171.091
-172.002
-172.502
-172.582
-172.229
-171.392
-169.954
-167.664
-163.97
-157.959
80.1965
94.3321
108.644
124.796
138.86
152.577
165.845
177.674
188.495
198.271
206.899
214.594
221.385
227.322
232.481
236.868
240.507
243.383
245.492
246.807
247.322
247.022
245.951
244.17
241.814
239.028
235.839
232.231
228.225
223.814
218.995
213.755
208.072
201.903
195.165
187.714
179.26
169.341
156.905
141.05
66.1383
51.6716
33.4877
15.4251
-3.02824
-21.9626
-40.0624
-56.043
-69.9361
-81.9842
-92.0544
-100.478
-107.701
-113.933
-119.436
-124.428
-129.041
-133.392
-137.572
-141.637
-145.625
-149.551
-153.4
-157.062
-160.389
-163.333
-165.882
-168.029
-169.766
-171.091
-172.002
-172.502
-172.582
-172.229
-171.392
-169.954
-167.664
-163.97
-157.959
84.4154
99.6905
115.151
132.626
147.821
162.638
176.977
189.749
201.431
211.982
221.29
229.592
236.922
243.334
248.914
253.675
257.64
260.799
263.148
264.659
265.329
265.143
264.142
262.395
260.036
257.212
253.946
250.221
246.057
241.445
236.383
230.864
224.862
218.333
211.191
203.292
194.343
183.873
170.86
154.414
69.2334
53.6266
33.9866
14.5023
-5.3909
-25.7947
-45.2813
-62.4563
-77.3582
-90.2565
-101.005
-109.968
-117.628
-124.216
-130.016
-135.266
-140.109
-144.674
-149.058
-153.327
-157.522
-161.659
-165.729
-169.616
-173.159
-176.306
-179.04
-181.354
-183.237
-184.685
-185.695
-186.265
-186.388
-186.046
-185.187
-183.69
-181.298
-177.471
-171.317
84.4154
99.6905
115.151
132.626
147.821
162.638
176.977
189.749
201.431
211.982
221.29
229.592
236.922
243.334
248.914
253.675
257.64
260.799
263.148
264.659
265.329
265.143
264.142
262.395
260.036
257.212
253.946
250.221
246.057
241.445
236.383
230.864
224.862
218.333
211.191
203.292
194.343
183.873
170.86
154.414
69.2334
53.6266
33.9866
14.5023
-5.3909
-25.7947
-45.2813
-62.4563
-77.3582
-90.2565
-101.005
-109.968
-117.628
-124.216
-130.016
-135.266
-140.109
-144.674
-149.058
-153.327
-157.522
-161.659
-165.729
-169.616