# static(p)_coeff  POINT_DATA 156
# x y z  static(p)_coeff
-17.5492 0.306481 0.05 0.56957
-17.5492 0.306481 0 0.56957
-17.5472 0.397851 0 0.433222
-17.5472 0.397851 0.05 0.433222
-17.5391 0.49775 0 0.273884
-17.5391 0.49775 0.05 0.273884
-17.5189 0.60624 0 0.0932754
-17.5189 0.60624 0.05 0.0932754
-17.4861 0.723342 0 -0.0933744
-17.4861 0.723342 0.05 -0.0933744
-17.44 0.848679 0 -0.285295
-17.44 0.848679 0.05 -0.285295
-17.377 0.981445 0 -0.477696
-17.377 0.981445 0.05 -0.477696
-17.2959 1.12134 0 -0.65628
-17.2959 1.12134 0.05 -0.65628
-17.1951 1.26784 0 -0.819107
-17.1951 1.26784 0.05 -0.819107
-17.0722 1.42 0 -0.963871
-17.0722 1.42 0.05 -0.963871
-16.9255 1.57744 0 -1.08688
-16.9255 1.57744 0.05 -1.08688
-16.7528 1.73942 0 -1.18972
-16.7528 1.73942 0.05 -1.18972
-16.5519 1.90501 0 -1.27304
-16.5519 1.90501 0.05 -1.27304
-16.3202 2.07341 0 -1.33711
-16.3202 2.07341 0.05 -1.33711
-16.0549 2.24347 0 -1.38291
-16.0549 2.24347 0.05 -1.38291
-15.753 2.41374 0 -1.41105
-15.753 2.41374 0.05 -1.41105
-15.4112 2.58276 0 -1.42195
-15.4112 2.58276 0.05 -1.42195
-15.0259 2.74838 0 -1.41439
-15.0259 2.74838 0.05 -1.41439
-14.5933 2.90861 0 -1.38683
-14.5933 2.90861 0.05 -1.38683
-14.1092 3.06066 0 -1.33868
-14.1092 3.06066 0.05 -1.33868
-13.5691 3.20201 0 -1.27198
-13.5691 3.20201 0.05 -1.27198
-12.9684 3.32943 0 -1.1973
-12.9684 3.32943 0.05 -1.1973
-12.3022 3.44054 0 -1.13466
-12.3022 3.44054 0.05 -1.13466
-11.5649 3.53289 0 -1.09632
-11.5649 3.53289 0.05 -1.09632
-10.7508 3.60555 0 -1.0661
-10.7508 3.60555 0.05 -1.0661
-9.85332 3.65883 0 -1.02129
-9.85332 3.65883 0.05 -1.02129
-8.86484 3.69086 0 -0.956665
-8.86484 3.69086 0.05 -0.956665
-7.77697 3.69778 0 -0.876959
-7.77697 3.69778 0.05 -0.876959
-6.58048 3.6759 0 -0.788183
-6.58048 3.6759 0.05 -0.788183
-5.26526 3.62108 0 -0.700732
-5.26526 3.62108 0.05 -0.700732
-3.82021 3.52882 0 -0.621947
-3.82021 3.52882 0.05 -0.621947
-2.23308 3.39439 0 -0.549382
-2.23308 3.39439 0.05 -0.549382
-0.490443 3.2127 0 -0.487699
-0.490443 3.2127 0.05 -0.487699
1.42254 2.97825 0 -0.455533
1.42254 2.97825 0.05 -0.455533
3.5222 2.68501 0 -0.449114
3.5222 2.68501 0.05 -0.449114
5.82644 2.32599 0 -0.41699
5.82644 2.32599 0.05 -0.41699
8.3548 1.89256 0 -0.317606
8.3548 1.89256 0.05 -0.317606
11.1283 1.37286 0 -0.177253
11.1283 1.37286 0.05 -0.177253
14.1695 0.751658 0 -0.0544086
14.1695 0.751658 0.05 -0.0544086
17.5 -5.0487e-06 0 0.0691953
17.5 -5.0487e-06 0.05 0.0691953
-17.5422 0.216644 0.05 0.691421
-17.5422 0.216644 0 0.691421
-17.529 0.118651 0.05 0.804001
-17.529 0.118651 0 0.804001
-17.5035 0.0128145 0.05 0.90187
-17.5035 0.0128145 0 0.90187
-17.4639 -0.100298 0.05 0.969382
-17.4639 -0.100298 0 0.969382
-17.4081 -0.21963 0.05 1.00058
-17.4081 -0.21963 0 1.00058
-17.3329 -0.343474 0.05 1.00016
-17.3329 -0.343474 0 1.00016
-17.2353 -0.469453 0.05 0.96787
-17.2353 -0.469453 0 0.96787
-17.1135 -0.595699 0.05 0.904054
-17.1135 -0.595699 0 0.904054
-16.967 -0.721197 0.05 0.820452
-16.967 -0.721197 0 0.820452
-16.7942 -0.84439 0.05 0.73007
-16.7942 -0.84439 0 0.73007
-16.5941 -0.964642 0.05 0.642127
-16.5941 -0.964642 0 0.642127
-16.3659 -1.08228 0.05 0.561326
-16.3659 -1.08228 0 0.561326
-16.1079 -1.19749 0.05 0.489158
-16.1079 -1.19749 0 0.489158
-15.8184 -1.31053 0.05 0.426299
-15.8184 -1.31053 0 0.426299
-15.4954 -1.42239 0.05 0.371154
-15.4954 -1.42239 0 0.371154
-15.1361 -1.53339 0.05 0.321449
-15.1361 -1.53339 0 0.321449
-14.7376 -1.64422 0.05 0.275757
-14.7376 -1.64422 0 0.275757
-14.2963 -1.75519 0.05 0.232394
-14.2963 -1.75519 0 0.232394
-13.8084 -1.86663 0.05 0.189712
-13.8084 -1.86663 0 0.189712
-13.2692 -1.97821 0.05 0.146476
-13.2692 -1.97821 0 0.146476
-12.6739 -2.08937 0.05 0.1021
-12.6739 -2.08937 0 0.1021
-12.0167 -2.19857 0.05 0.0563495
-12.0167 -2.19857 0 0.0563495
-11.2914 -2.30322 0.05 0.0104474
-11.2914 -2.30322 0 0.0104474
-10.491 -2.39854 0.05 -0.0314245
-10.491 -2.39854 0 -0.0314245
-9.60806 -2.48004 0.05 -0.0642342
-9.60806 -2.48004 0 -0.0642342
-8.63486 -2.54503 0.05 -0.0884389
-8.63486 -2.54503 0 -0.0884389
-7.56293 -2.59043 0.05 -0.106947
-7.56293 -2.59043 0 -0.106947
-6.38295 -2.61298 0.05 -0.120367
-6.38295 -2.61298 0 -0.120367
-5.08474 -2.60901 0.05 -0.128748
-5.08474 -2.60901 0 -0.128748
-3.65712 -2.57462 0.05 -0.132166
-3.65712 -2.57462 0 -0.132166
-2.08779 -2.50566 0.05 -0.130616
-2.08779 -2.50566 0 -0.130616
-0.363235 -2.39771 0.05 -0.124008
-0.363235 -2.39771 0 -0.124008
1.53142 -2.24595 0.05 -0.112017
1.53142 -2.24595 0 -0.112017
3.61256 -2.0451 0.05 -0.0944438
3.61256 -2.0451 0 -0.0944438
5.89814 -1.78898 0.05 -0.0705471
5.89814 -1.78898 0 -0.0705471
8.40781 -1.46986 0.05 -0.0383953
8.40781 -1.46986 0 -0.0383953
11.1628 -1.07688 0.05 0.00921714
11.1628 -1.07688 0 0.00921714
14.1859 -0.596043 0.05 0.0877126
14.1859 -0.596043 0 0.0877126
