/*--------------------------------*- C++ -*----------------------------------*\
| =========                 |                                                 |
| \\      /  F ield         | OpenFOAM: The Open Source CFD Toolbox           |
|  \\    /   O peration     | Version:  2506                                  |
|   \\  /    A nd           | Website:  www.openfoam.com                      |
|    \\/     M anipulation  |                                                 |
\*---------------------------------------------------------------------------*/
FoamFile
{
    version     2.0;
    format      ascii;
    arch        "LSB;label=32;scalar=64";
    class       volScalarField;
    location    "150";
    object      magR;
}
// * * * * * * * * * * * * * * * * * * * * * * * * * * * * * * * * * * * * * //

dimensions      [0 2 -2 0 0 0 0];

internalField   nonuniform List<scalar> 
1340
(
7.75144e-07
1.555e-06
1.71359e-07
7.38568e-07
7.72201e-07
1.5567e-06
2.13727e-07
3.29878e-07
1.6975e-07
7.41329e-07
7.72018e-07
1.55687e-06
3.73803e-07
3.31845e-07
3.12547e-07
2.24022e-07
3.37594e-07
1.69433e-07
7.44142e-07
7.73784e-07
1.55622e-06
5.31058e-07
4.92639e-07
4.61171e-07
4.32201e-07
4.02424e-07
3.74117e-07
3.34403e-07
3.16829e-07
2.34418e-07
3.44774e-07
1.71212e-07
7.47038e-07
7.76689e-07
1.55528e-06
7.42716e-07
6.96139e-07
6.502e-07
6.05755e-07
5.62519e-07
5.21867e-07
4.86238e-07
4.56987e-07
4.29768e-07
4.01254e-07
3.73924e-07
3.36786e-07
3.21407e-07
2.45978e-07
3.51729e-07
1.74047e-07
7.496e-07
7.80238e-07
1.5542e-06
1.02556e-06
9.79185e-07
9.33447e-07
8.88602e-07
8.44464e-07
8.00977e-07
7.58368e-07
7.16333e-07
6.73603e-07
6.31485e-07
5.90738e-07
5.50294e-07
5.11796e-07
4.78938e-07
4.52083e-07
4.26716e-07
4.00178e-07
3.74767e-07
3.40069e-07
3.26575e-07
2.57674e-07
3.57977e-07
1.77727e-07
7.51815e-07
7.84083e-07
1.5527e-06
1.47717e-06
1.43135e-06
1.38711e-06
1.34309e-06
1.29944e-06
1.25626e-06
1.21369e-06
1.17167e-06
1.13015e-06
1.08883e-06
1.04723e-06
1.00648e-06
9.67598e-07
9.2709e-07
8.86287e-07
8.46194e-07
8.06648e-07
7.67559e-07
7.2813e-07
6.88522e-07
6.49986e-07
6.11887e-07
5.74871e-07
5.37995e-07
5.02976e-07
4.72743e-07
4.48006e-07
4.24283e-07
3.99466e-07
3.75519e-07
3.43404e-07
3.3177e-07
2.6939e-07
3.63425e-07
1.82344e-07
7.53625e-07
7.87614e-07
1.55113e-06
5.32807e-05
7.99481e-06
1.37502e-07
2.33492e-06
4.74509e-06
3.13542e-06
3.41575e-06
3.42431e-06
3.3063e-06
3.26517e-06
3.2074e-06
3.1472e-06
3.08736e-06
3.02517e-06
2.96195e-06
2.8974e-06
2.83157e-06
2.76472e-06
2.69688e-06
2.62836e-06
2.55957e-06
2.49124e-06
2.42396e-06
2.35816e-06
2.29376e-06
2.23049e-06
2.16817e-06
2.10704e-06
2.04732e-06
1.98954e-06
1.93378e-06
1.88e-06
1.82794e-06
1.77743e-06
1.72864e-06
1.68178e-06
1.63692e-06
1.59386e-06
1.55176e-06
1.51025e-06
1.46928e-06
1.42442e-06
1.38024e-06
1.34861e-06
1.31568e-06
1.27666e-06
1.23844e-06
1.20046e-06
1.16297e-06
1.12608e-06
1.08968e-06
1.05375e-06
1.01825e-06
9.82799e-07
9.46085e-07
9.09081e-07
8.73639e-07
8.38236e-07
8.02928e-07
7.67834e-07
7.32973e-07
6.97802e-07
6.62651e-07
6.27837e-07
5.93356e-07
5.59736e-07
5.26064e-07
4.93986e-07
4.6637e-07
4.43633e-07
4.2152e-07
3.98463e-07
3.76073e-07
3.46821e-07
3.37074e-07
2.81236e-07
3.68077e-07
1.87725e-07
7.5474e-07
7.90544e-07
1.54972e-06
9.4462e-09
5.70474e-08
9.88956e-07
4.63857e-06
3.89633e-06
3.17654e-06
3.42265e-06
3.28391e-06
3.18123e-06
3.11643e-06
3.03862e-06
2.96548e-06
2.89439e-06
2.82403e-06
2.75481e-06
2.68613e-06
2.61777e-06
2.54973e-06
2.48194e-06
2.41458e-06
2.34811e-06
2.28289e-06
2.21919e-06
2.15702e-06
2.09618e-06
2.0365e-06
1.97807e-06
1.92103e-06
1.86572e-06
1.81243e-06
1.76114e-06
1.71179e-06
1.66411e-06
1.61815e-06
1.57414e-06
1.53227e-06
1.49252e-06
1.45434e-06
1.41688e-06
1.37978e-06
1.34376e-06
1.30814e-06
1.27088e-06
1.23544e-06
1.20309e-06
1.1701e-06
1.13746e-06
1.10484e-06
1.07269e-06
1.04104e-06
1.00975e-06
9.78763e-07
9.482e-07
9.17818e-07
8.8651e-07
8.55209e-07
8.24411e-07
7.93375e-07
7.62135e-07
7.30938e-07
6.99825e-07
6.68401e-07
6.36952e-07
6.05684e-07
5.74658e-07
5.44352e-07
5.13861e-07
4.8477e-07
4.59847e-07
4.39094e-07
4.18658e-07
3.97434e-07
3.76725e-07
3.50523e-07
3.42617e-07
2.9317e-07
3.71884e-07
1.93549e-07
7.55477e-07
7.92406e-07
1.54905e-06
0
2.31313e-07
3.6274e-06
4.8431e-06
3.44178e-06
3.44848e-06
3.45411e-06
3.26629e-06
3.16353e-06
3.06393e-06
2.96277e-06
2.87042e-06
2.78218e-06
2.69777e-06
2.61693e-06
2.53882e-06
2.46309e-06
2.38946e-06
2.3179e-06
2.24821e-06
2.18077e-06
2.11548e-06
2.05231e-06
1.99093e-06
1.93125e-06
1.87319e-06
1.81672e-06
1.76214e-06
1.70959e-06
1.65914e-06
1.61074e-06
1.56428e-06
1.51958e-06
1.47678e-06
1.43623e-06
1.398e-06
1.36176e-06
1.32678e-06
1.29223e-06
1.25781e-06
1.22502e-06
1.19503e-06
1.16399e-06
1.13312e-06
1.10427e-06
1.07539e-06
1.04673e-06
1.01829e-06
9.90402e-07
9.62991e-07
9.3591e-07
9.09115e-07
8.82739e-07
8.56636e-07
8.29875e-07
8.02989e-07
7.76206e-07
7.48926e-07
7.21434e-07
6.93954e-07
6.66479e-07
6.38745e-07
6.10934e-07
5.83264e-07
5.55722e-07
5.28762e-07
5.01502e-07
4.75496e-07
4.53278e-07
4.34475e-07
4.1574e-07
3.96355e-07
3.77374e-07
3.54363e-07
3.48237e-07
3.04928e-07
3.74767e-07
1.99604e-07
7.54842e-07
7.93827e-07
1.54963e-06
1.77889e-07
2.87583e-06
5.25177e-06
3.99407e-06
3.58729e-06
3.64436e-06
3.48012e-06
3.31567e-06
3.19523e-06
3.06875e-06
2.94975e-06
2.83896e-06
2.73371e-06
2.63429e-06
2.54005e-06
2.4504e-06
2.36488e-06
2.28325e-06
2.20527e-06
2.13068e-06
2.05946e-06
1.99131e-06
1.92587e-06
1.86288e-06
1.80228e-06
1.74386e-06
1.68767e-06
1.63393e-06
1.58251e-06
1.53343e-06
1.4865e-06
1.4417e-06
1.39889e-06
1.3584e-06
1.32042e-06
1.28479e-06
1.25091e-06
1.21797e-06
1.1854e-06
1.15347e-06
1.124e-06
1.09794e-06
1.07057e-06
1.04243e-06
1.01609e-06
9.89931e-07
9.64258e-07
9.39089e-07
9.14577e-07
8.9059e-07
8.67044e-07
8.43926e-07
8.21345e-07
7.99109e-07
7.76383e-07
7.53347e-07
7.30142e-07
7.064e-07
6.82479e-07
6.58489e-07
6.34493e-07
6.10327e-07
5.8603e-07
5.61831e-07
5.37653e-07
5.13913e-07
4.89751e-07
4.66738e-07
4.47109e-07
4.30145e-07
4.13056e-07
3.95467e-07
3.78253e-07
3.58536e-07
3.54152e-07
3.1657e-07
3.77071e-07
2.05468e-07
7.53488e-07
7.93532e-07
1.55369e-06
2.66012e-06
4.90851e-06
4.31876e-06
3.71541e-06
3.73722e-06
3.63686e-06
3.46463e-06
3.32976e-06
3.19791e-06
3.06447e-06
2.93853e-06
2.81778e-06
2.70234e-06
2.59256e-06
2.48814e-06
2.3891e-06
2.29501e-06
2.20575e-06
2.12115e-06
2.04088e-06
1.96472e-06
1.89227e-06
1.82317e-06
1.75729e-06
1.69437e-06
1.63428e-06
1.57719e-06
1.52292e-06
1.47128e-06
1.42215e-06
1.3755e-06
1.33125e-06
1.28944e-06
1.25037e-06
1.21399e-06
1.18015e-06
1.14747e-06
1.1156e-06
1.0845e-06
1.05516e-06
1.02887e-06
1.00548e-06
9.80296e-07
9.54211e-07
9.30182e-07
9.06503e-07
8.83578e-07
8.61407e-07
8.39894e-07
8.19063e-07
7.98772e-07
7.79071e-07
7.60111e-07
7.41543e-07
7.22557e-07
7.03181e-07
6.83493e-07
6.63214e-07
6.42809e-07
6.22224e-07
6.01643e-07
5.8104e-07
5.60236e-07
5.39487e-07
5.18672e-07
4.98173e-07
4.77109e-07
4.5713e-07
4.4012e-07
4.2504e-07
4.09648e-07
3.93953e-07
3.7874e-07
3.6254e-07
3.60025e-07
3.27874e-07
3.78313e-07
2.14289e-07
7.47705e-07
7.96326e-07
1.55805e-06
3.95106e-06
3.95242e-06
3.6132e-06
3.57041e-06
3.52327e-06
3.41183e-06
3.30135e-06
3.19373e-06
3.07903e-06
2.96345e-06
2.84806e-06
2.73415e-06
2.62211e-06
2.51306e-06
2.40753e-06
2.30635e-06
2.20895e-06
2.11599e-06
2.02772e-06
1.94339e-06
1.8636e-06
1.78743e-06
1.71524e-06
1.64684e-06
1.58184e-06
1.52026e-06
1.46215e-06
1.40708e-06
1.35511e-06
1.30572e-06
1.25931e-06
1.21579e-06
1.17518e-06
1.13741e-06
1.10262e-06
1.0697e-06
1.03762e-06
1.00672e-06
9.77761e-07
9.517e-07
9.28356e-07
9.06399e-07
8.82549e-07
8.59008e-07
8.37592e-07
8.16488e-07
7.96505e-07
7.77413e-07
7.58961e-07
7.41419e-07
7.2457e-07
7.08435e-07
6.93362e-07
6.7855e-07
6.63337e-07
6.47751e-07
6.31804e-07
6.15154e-07
5.98441e-07
5.81583e-07
5.64787e-07
5.48083e-07
5.31176e-07
5.14291e-07
4.97232e-07
4.80305e-07
4.62726e-07
4.46201e-07
4.32054e-07
4.1901e-07
4.05586e-07
3.92135e-07
3.79359e-07
3.6737e-07
3.66527e-07
3.41032e-07
3.76343e-07
2.30514e-07
7.32251e-07
7.88072e-07
1.50612e-06
3.25367e-06
3.22595e-06
3.17589e-06
3.1408e-06
3.0707e-06
3.00228e-06
2.93417e-06
2.86028e-06
2.78136e-06
2.69919e-06
2.61289e-06
2.52452e-06
2.4339e-06
2.3427e-06
2.25154e-06
2.16166e-06
2.07274e-06
1.98633e-06
1.90243e-06
1.82119e-06
1.74344e-06
1.66849e-06
1.59708e-06
1.52934e-06
1.46471e-06
1.40352e-06
1.34575e-06
1.29094e-06
1.23942e-06
1.19063e-06
1.14513e-06
1.10288e-06
1.06371e-06
1.02706e-06
9.9306e-07
9.60195e-07
9.2884e-07
8.99678e-07
8.73665e-07
8.50389e-07
8.28563e-07
8.06661e-07
7.84097e-07
7.63129e-07
7.4372e-07
7.25043e-07
7.07714e-07
6.91279e-07
6.75776e-07
6.61307e-07
6.47874e-07
6.35379e-07
6.23969e-07
6.12747e-07
6.01133e-07
5.8913e-07
5.76768e-07
5.63832e-07
5.50911e-07
5.37982e-07
5.25254e-07
5.12645e-07
4.99928e-07
4.87153e-07
4.74098e-07
4.61039e-07
4.47317e-07
4.34549e-07
4.23426e-07
4.12566e-07
4.01368e-07
3.90511e-07
3.80725e-07
3.73451e-07
3.74394e-07
3.55315e-07
3.737e-07
2.48132e-07
7.29353e-07
7.81046e-07
1.50499e-06
3.12499e-06
3.09056e-06
2.96201e-06
2.84248e-06
2.74084e-06
2.65668e-06
2.58171e-06
2.51268e-06
2.44688e-06
2.38201e-06
2.31697e-06
2.2505e-06
2.18233e-06
2.11259e-06
2.04154e-06
1.96945e-06
1.89655e-06
1.82406e-06
1.75167e-06
1.68054e-06
1.61088e-06
1.54289e-06
1.47708e-06
1.41384e-06
1.35288e-06
1.29478e-06
1.23935e-06
1.18644e-06
1.13658e-06
1.08949e-06
1.04546e-06
1.00452e-06
9.66132e-07
9.2976e-07
8.95587e-07
8.62936e-07
8.3282e-07
8.05782e-07
7.81747e-07
7.59265e-07
7.37172e-07
7.14986e-07
6.93813e-07
6.74572e-07
6.56591e-07
6.39839e-07
6.24447e-07
6.10187e-07
5.9715e-07
5.85353e-07
5.74951e-07
5.65725e-07
5.57335e-07
5.49208e-07
5.40633e-07
5.31767e-07
5.22663e-07
5.13166e-07
5.03875e-07
4.94725e-07
4.85866e-07
4.77217e-07
4.68505e-07
4.59629e-07
4.50496e-07
4.41245e-07
4.31343e-07
4.2223e-07
4.14007e-07
4.05383e-07
3.96587e-07
3.88513e-07
3.82097e-07
3.79549e-07
3.82529e-07
3.68452e-07
3.72308e-07
2.64931e-07
7.33641e-07
7.59693e-07
1.50609e-06
3.65014e-06
3.41251e-06
3.3925e-06
3.14409e-06
2.90061e-06
2.70856e-06
2.54701e-06
2.41344e-06
2.30145e-06
2.20646e-06
2.12377e-06
2.05035e-06
1.98301e-06
1.91977e-06
1.85885e-06
1.79936e-06
1.74027e-06
1.68129e-06
1.62249e-06
1.56359e-06
1.50508e-06
1.44698e-06
1.38962e-06
1.33342e-06
1.27839e-06
1.22498e-06
1.17318e-06
1.12332e-06
1.07543e-06
1.02993e-06
9.86762e-07
9.45924e-07
9.07494e-07
8.70865e-07
8.36016e-07
8.0344e-07
7.73122e-07
7.45827e-07
7.21351e-07
6.98531e-07
6.76288e-07
6.5418e-07
6.32967e-07
6.13621e-07
5.95966e-07
5.79648e-07
5.64644e-07
5.51017e-07
5.38813e-07
5.27992e-07
5.18671e-07
5.10947e-07
5.0442e-07
4.98499e-07
4.92788e-07
4.86674e-07
4.80419e-07
4.74063e-07
4.67528e-07
4.61374e-07
4.55547e-07
4.50068e-07
4.44868e-07
4.39618e-07
4.34183e-07
4.28535e-07
4.22709e-07
4.16256e-07
4.10389e-07
4.04772e-07
3.98311e-07
3.91948e-07
3.86725e-07
3.83899e-07
3.85886e-07
3.90839e-07
3.80297e-07
3.72184e-07
2.85011e-07
7.41628e-07
7.32485e-07
1.50709e-06
4.43081e-06
4.02368e-06
4.097e-06
3.72663e-06
3.35019e-06
3.03992e-06
2.77088e-06
2.5432e-06
2.35055e-06
2.18818e-06
2.05103e-06
1.93479e-06
1.83543e-06
1.74937e-06
1.67374e-06
1.6058e-06
1.54377e-06
1.48588e-06
1.43119e-06
1.37861e-06
1.32768e-06
1.27802e-06
1.22948e-06
1.18195e-06
1.13527e-06
1.08976e-06
1.04523e-06
1.00211e-06
9.60384e-07
9.20256e-07
8.81823e-07
8.44991e-07
8.09934e-07
7.76326e-07
7.44804e-07
7.15654e-07
6.89039e-07
6.64708e-07
6.42026e-07
6.19894e-07
5.98082e-07
5.77123e-07
5.57843e-07
5.40472e-07
5.24645e-07
5.10109e-07
4.96989e-07
4.85322e-07
4.75262e-07
4.668e-07
4.59958e-07
4.54742e-07
4.50574e-07
4.46763e-07
4.43134e-07
4.39208e-07
4.35224e-07
4.31305e-07
4.27439e-07
4.24081e-07
4.21169e-07
4.18669e-07
4.16444e-07
4.14206e-07
4.11777e-07
4.09164e-07
4.06373e-07
4.02974e-07
3.99946e-07
3.96678e-07
3.92324e-07
3.88344e-07
3.85995e-07
3.86846e-07
3.93043e-07
3.99666e-07
3.91469e-07
3.74445e-07
3.11816e-07
7.53365e-07
7.01004e-07
1.50942e-06
5.38059e-06
4.73795e-06
5.01606e-06
4.55704e-06
4.07563e-06
3.65996e-06
3.28719e-06
2.95977e-06
2.67408e-06
2.42634e-06
2.21295e-06
2.03006e-06
1.87372e-06
1.74e-06
1.62566e-06
1.52722e-06
1.4419e-06
1.36722e-06
1.30096e-06
1.2414e-06
1.187e-06
1.13675e-06
1.0896e-06
1.04485e-06
1.00207e-06
9.60882e-07
9.21092e-07
8.82771e-07
8.4567e-07
8.1003e-07
7.75784e-07
7.4301e-07
7.11897e-07
6.82472e-07
6.55182e-07
6.30071e-07
6.06641e-07
5.84396e-07
5.62836e-07
5.41552e-07
5.21194e-07
5.02429e-07
4.85508e-07
4.70202e-07
4.56418e-07
4.43856e-07
4.32847e-07
4.23383e-07
4.15632e-07
4.09622e-07
4.05227e-07
4.02362e-07
4.00218e-07
3.98316e-07
3.966e-07
3.94695e-07
3.92851e-07
3.91224e-07
3.89863e-07
3.89078e-07
3.88791e-07
3.8895e-07
3.89379e-07
3.89744e-07
3.89972e-07
3.90048e-07
3.89932e-07
3.89224e-07
3.88633e-07
3.87493e-07
3.8526e-07
3.83736e-07
3.8435e-07
3.88927e-07
3.98818e-07
4.06333e-07
3.99077e-07
3.76515e-07
3.42244e-07
7.68247e-07
6.62464e-07
1.51628e-06
6.21481e-06
5.2734e-06
5.90753e-06
5.43643e-06
4.90456e-06
4.42899e-06
3.98527e-06
3.58053e-06
3.21476e-06
2.8866e-06
2.59489e-06
2.33757e-06
2.11215e-06
1.91572e-06
1.74538e-06
1.5982e-06
1.47116e-06
1.36154e-06
1.26657e-06
1.18401e-06
1.11172e-06
1.04781e-06
9.90751e-07
9.39034e-07
8.91828e-07
8.48309e-07
8.07728e-07
7.69869e-07
7.34308e-07
7.01013e-07
6.69714e-07
6.4054e-07
6.13336e-07
5.88099e-07
5.64663e-07
5.42722e-07
5.21576e-07
5.01118e-07
4.81205e-07
4.62281e-07
4.44845e-07
4.29279e-07
4.15391e-07
4.02912e-07
3.91896e-07
3.82131e-07
3.7409e-07
3.67574e-07
3.62797e-07
3.59725e-07
3.58111e-07
3.57623e-07
3.57559e-07
3.57736e-07
3.58007e-07
3.58229e-07
3.58636e-07
3.59311e-07
3.60374e-07
3.62019e-07
3.64121e-07
3.66632e-07
3.69349e-07
3.71932e-07
3.7448e-07
3.76889e-07
3.79071e-07
3.8071e-07
3.82324e-07
3.8321e-07
3.82914e-07
3.835e-07
3.86626e-07
3.94355e-07
4.06975e-07
4.14809e-07
4.08822e-07
3.87277e-07
3.87594e-07
7.92621e-07
6.26474e-07
1.53934e-06
6.61638e-06
5.43831e-06
6.42688e-06
6.01684e-06
5.5187e-06
5.05315e-06
4.60078e-06
4.17242e-06
3.77073e-06
3.39794e-06
3.05578e-06
2.7448e-06
2.46431e-06
2.21348e-06
1.99084e-06
1.79459e-06
1.62243e-06
1.4721e-06
1.34114e-06
1.22728e-06
1.12824e-06
1.04171e-06
9.66029e-07
8.9924e-07
8.40137e-07
7.87451e-07
7.40217e-07
6.97765e-07
6.59469e-07
6.2486e-07
5.93413e-07
5.64892e-07
5.38761e-07
5.14566e-07
4.9193e-07
4.70304e-07
4.49493e-07
4.29584e-07
4.10935e-07
3.93894e-07
3.78559e-07
3.65098e-07
3.53085e-07
3.42482e-07
3.33303e-07
3.25657e-07
3.19687e-07
3.15305e-07
3.12646e-07
3.11463e-07
3.11542e-07
3.123e-07
3.13443e-07
3.14827e-07
3.16317e-07
3.17978e-07
3.1994e-07
3.22296e-07
3.25108e-07
3.28546e-07
3.32392e-07
3.36614e-07
3.40962e-07
3.45208e-07
3.49498e-07
3.53649e-07
3.57576e-07
3.6092e-07
3.63832e-07
3.66045e-07
3.67753e-07
3.7081e-07
3.77041e-07
3.88339e-07
4.0286e-07
4.08507e-07
4.00172e-07
3.80767e-07
4.14402e-07
8.05231e-07
5.62767e-07
1.57741e-06
6.77975e-06
5.3111e-06
6.79069e-06
6.52026e-06
6.10975e-06
5.70231e-06
5.27912e-06
4.85838e-06
4.44485e-06
4.04393e-06
3.66284e-06
3.30346e-06
2.96933e-06
2.66087e-06
2.37938e-06
2.12503e-06
1.89633e-06
1.69284e-06
1.51232e-06
1.35336e-06
1.21433e-06
1.09211e-06
9.86012e-07
8.93525e-07
8.13141e-07
7.43161e-07
6.82599e-07
6.30045e-07
5.84388e-07
5.44898e-07
5.10184e-07
4.79828e-07
4.52807e-07
4.28489e-07
4.06383e-07
3.86007e-07
3.67608e-07
3.51032e-07
3.36662e-07
3.24183e-07
3.13675e-07
3.04954e-07
2.97673e-07
2.91893e-07
2.87569e-07
2.84814e-07
2.83339e-07
2.83359e-07
2.84554e-07
2.8673e-07
2.89666e-07
2.92913e-07
2.96491e-07
3.00187e-07
3.04043e-07
3.08054e-07
3.12265e-07
3.16781e-07
3.21519e-07
3.26666e-07
3.32007e-07
3.3756e-07
3.43152e-07
3.48691e-07
3.54259e-07
3.59692e-07
3.64972e-07
3.69848e-07
3.74779e-07
3.78996e-07
3.81611e-07
3.84955e-07
3.91071e-07
4.01836e-07
4.1519e-07
4.20251e-07
4.18266e-07
4.19152e-07
4.99673e-07
8.49137e-07
5.74411e-07
1.73322e-06
4.66596e-06
3.35163e-06
5.03752e-06
5.11425e-06
5.06338e-06
4.96132e-06
4.80709e-06
4.61438e-06
4.39079e-06
4.14482e-06
3.88594e-06
3.61896e-06
3.35121e-06
3.08631e-06
2.82925e-06
2.58298e-06
2.34938e-06
2.13083e-06
1.92761e-06
1.74072e-06
1.57017e-06
1.41476e-06
1.27503e-06
1.14931e-06
1.03709e-06
9.37143e-07
8.48735e-07
7.70613e-07
7.0178e-07
6.41419e-07
5.88092e-07
5.41233e-07
4.99694e-07
4.62858e-07
4.3012e-07
4.01027e-07
3.7543e-07
3.52937e-07
3.33458e-07
3.16455e-07
3.01825e-07
2.89281e-07
2.78676e-07
2.69945e-07
2.62991e-07
2.57702e-07
2.5382e-07
2.5136e-07
2.49859e-07
2.49236e-07
2.49163e-07
2.49548e-07
2.50389e-07
2.51563e-07
2.53199e-07
2.55255e-07
2.57853e-07
2.61001e-07
2.64646e-07
2.68897e-07
2.73481e-07
2.78356e-07
2.83371e-07
2.88539e-07
2.93927e-07
2.9931e-07
3.04515e-07
3.09089e-07
3.12061e-07
3.14288e-07
3.18166e-07
3.25227e-07
3.36955e-07
3.54026e-07
3.68415e-07
3.6438e-07
3.48394e-07
3.55395e-07
4.76417e-07
7.13163e-07
4.99113e-07
1.74422e-06
)
;

boundaryField
{
    inlet
    {
        type            calculated;
        value           nonuniform List<scalar> 
23
(
6.55018e-06
6.5146e-06
6.48013e-06
6.44674e-06
6.41379e-06
6.38054e-06
6.34611e-06
6.30981e-06
6.27075e-06
6.22814e-06
6.18091e-06
6.12945e-06
6.07058e-06
5.97934e-06
5.90272e-06
5.80986e-06
5.6948e-06
5.55498e-06
5.38723e-06
5.19093e-06
4.95778e-06
4.78143e-06
4.4413e-06
)
;
    }
    outlet
    {
        type            calculated;
        value           nonuniform List<scalar> 
82
(
4.7096e-06
5.08067e-06
3.39537e-06
5.15713e-06
5.10595e-06
5.00362e-06
4.8491e-06
4.65611e-06
4.4322e-06
4.18588e-06
3.9266e-06
3.65921e-06
3.39099e-06
3.12557e-06
2.86795e-06
2.62107e-06
2.3868e-06
2.16754e-06
1.96353e-06
1.7758e-06
1.60435e-06
1.44796e-06
1.30719e-06
1.18034e-06
1.06692e-06
9.65691e-07
8.75914e-07
7.96328e-07
7.25937e-07
6.63918e-07
6.0882e-07
5.60073e-07
5.16537e-07
4.77562e-07
4.42575e-07
4.1111e-07
3.83067e-07
3.58051e-07
3.36023e-07
3.16452e-07
2.99249e-07
2.84154e-07
2.71045e-07
2.599e-07
2.50671e-07
2.43287e-07
2.37511e-07
2.33367e-07
2.30362e-07
2.28355e-07
2.26963e-07
2.26051e-07
2.25609e-07
2.25511e-07
2.25909e-07
2.26784e-07
2.28304e-07
2.30519e-07
2.3339e-07
2.3704e-07
2.41153e-07
2.45634e-07
2.50288e-07
2.5511e-07
2.60205e-07
2.65327e-07
2.702e-07
2.74139e-07
2.75944e-07
2.77242e-07
2.81174e-07
2.89132e-07
3.0297e-07
3.23046e-07
3.39354e-07
3.32755e-07
3.07318e-07
3.03308e-07
4.23656e-07
6.81663e-07
3.93734e-07
1.57861e-06
)
;
    }
    walls
    {
        type            calculated;
        value           nonuniform List<scalar> 0();
    }
    frontAndBack
    {
        type            empty;
    }
    procBoundary3to2
    {
        type            processor;
        value           nonuniform List<scalar> 
88
(
7.81454e-07
1.55274e-06
1.74559e-07
7.35253e-07
7.35253e-07
2.03785e-07
3.21833e-07
3.21833e-07
3.73416e-07
3.29542e-07
3.08547e-07
3.08547e-07
5.39683e-07
4.98549e-07
4.65115e-07
4.34615e-07
4.03435e-07
4.03435e-07
7.67848e-07
7.17736e-07
6.68334e-07
6.20524e-07
5.74325e-07
5.74325e-07
1.0812e-06
1.03008e-06
9.79711e-07
9.30325e-07
8.819e-07
8.34473e-07
7.88344e-07
7.88344e-07
1.60061e-06
1.55035e-06
1.50024e-06
1.45042e-06
1.40083e-06
1.3517e-06
1.30318e-06
1.25529e-06
1.20797e-06
1.16092e-06
1.11444e-06
1.06976e-06
1.06976e-06
0.00051968
5.57217e-08
1.02e-06
5.11461e-06
3.41296e-06
3.44235e-06
3.58765e-06
3.48175e-06
3.44835e-06
3.40365e-06
3.35195e-06
3.29961e-06
3.24306e-06
3.18392e-06
3.12204e-06
3.05806e-06
2.99206e-06
2.9243e-06
2.85508e-06
2.78474e-06
2.71393e-06
2.64353e-06
2.57427e-06
2.50644e-06
2.43996e-06
2.37419e-06
2.30923e-06
2.24537e-06
2.18308e-06
2.12269e-06
2.06418e-06
2.0074e-06
1.95206e-06
1.89806e-06
1.84572e-06
1.79507e-06
1.74623e-06
1.69856e-06
1.65116e-06
1.60289e-06
1.55665e-06
1.51743e-06
1.51743e-06
)
;
    }
    procBoundary3to6
    {
        type            processor;
        value           uniform 0.00224835;
    }
    procBoundary3to7
    {
        type            processor;
        value           nonuniform List<scalar> 
16
(
0.00371504
0.000677016
0
0
1.65994e-07
3.29354e-06
3.40477e-06
3.18257e-06
3.18257e-06
3.21193e-06
3.63961e-06
4.16919e-06
4.49384e-06
4.51223e-06
4.19928e-06
2.45835e-06
)
;
    }
}


// ************************************************************************* //
