/*--------------------------------*- C++ -*----------------------------------*\
| =========                 |                                                 |
| \\      /  F ield         | OpenFOAM: The Open Source CFD Toolbox           |
|  \\    /   O peration     | Version:  2506                                  |
|   \\  /    A nd           | Website:  www.openfoam.com                      |
|    \\/     M anipulation  |                                                 |
\*---------------------------------------------------------------------------*/
FoamFile
{
    version     2.0;
    format      ascii;
    arch        "LSB;label=32;scalar=64";
    class       volScalarField;
    location    "150";
    object      turbulenceProperties:nuEff;
}
// * * * * * * * * * * * * * * * * * * * * * * * * * * * * * * * * * * * * * //

dimensions      [0 2 -1 0 0 0 0];

internalField   nonuniform List<scalar> 
1340
(
1.61434e-05
1.61169e-05
1.6121e-05
1.61213e-05
1.6145e-05
1.61171e-05
1.61286e-05
1.61295e-05
1.61214e-05
1.6123e-05
1.61467e-05
1.61171e-05
1.611e-05
1.61142e-05
1.61217e-05
1.61297e-05
1.613e-05
1.61218e-05
1.61248e-05
1.61485e-05
1.61171e-05
1.61026e-05
1.61058e-05
1.61074e-05
1.61082e-05
1.6109e-05
1.61107e-05
1.61152e-05
1.61231e-05
1.61309e-05
1.61305e-05
1.61222e-05
1.61268e-05
1.61503e-05
1.61169e-05
1.60843e-05
1.60874e-05
1.60911e-05
1.60952e-05
1.60994e-05
1.61035e-05
1.61067e-05
1.61081e-05
1.61088e-05
1.61096e-05
1.61115e-05
1.61163e-05
1.61245e-05
1.61321e-05
1.6131e-05
1.61226e-05
1.6129e-05
1.61522e-05
1.61166e-05
1.60773e-05
1.60779e-05
1.60786e-05
1.60792e-05
1.608e-05
1.6081e-05
1.60826e-05
1.60851e-05
1.60883e-05
1.6092e-05
1.60961e-05
1.61003e-05
1.61044e-05
1.61075e-05
1.61088e-05
1.61095e-05
1.61102e-05
1.61124e-05
1.61176e-05
1.6126e-05
1.61333e-05
1.61314e-05
1.61231e-05
1.61315e-05
1.61541e-05
1.61161e-05
1.60932e-05
1.60911e-05
1.60892e-05
1.60872e-05
1.60852e-05
1.60834e-05
1.60817e-05
1.60802e-05
1.60789e-05
1.60779e-05
1.60774e-05
1.60774e-05
1.60779e-05
1.60785e-05
1.60792e-05
1.60798e-05
1.60806e-05
1.60817e-05
1.60834e-05
1.60859e-05
1.60892e-05
1.6093e-05
1.60971e-05
1.61013e-05
1.61054e-05
1.61084e-05
1.61096e-05
1.61101e-05
1.61109e-05
1.61133e-05
1.61189e-05
1.61276e-05
1.61345e-05
1.61319e-05
1.61237e-05
1.61341e-05
1.61561e-05
1.61154e-05
0.000253331
3.31807e-05
1.00097e-05
1.26635e-05
2.07425e-05
1.50922e-05
1.61795e-05
1.64081e-05
1.61901e-05
1.62433e-05
1.62401e-05
1.62323e-05
1.6231e-05
1.62268e-05
1.62227e-05
1.62183e-05
1.62135e-05
1.62084e-05
1.62031e-05
1.61976e-05
1.61919e-05
1.61862e-05
1.61805e-05
1.61749e-05
1.61694e-05
1.61639e-05
1.61585e-05
1.61531e-05
1.61479e-05
1.61428e-05
1.61379e-05
1.61333e-05
1.61288e-05
1.61245e-05
1.61204e-05
1.61167e-05
1.61132e-05
1.611e-05
1.6107e-05
1.61041e-05
1.61013e-05
1.60987e-05
1.60962e-05
1.6094e-05
1.60919e-05
1.60898e-05
1.60877e-05
1.60857e-05
1.60838e-05
1.6082e-05
1.60805e-05
1.60792e-05
1.60783e-05
1.60779e-05
1.6078e-05
1.60785e-05
1.60792e-05
1.60798e-05
1.60805e-05
1.60812e-05
1.60824e-05
1.60841e-05
1.60867e-05
1.60901e-05
1.6094e-05
1.60981e-05
1.61023e-05
1.61064e-05
1.61093e-05
1.61103e-05
1.61108e-05
1.61117e-05
1.61143e-05
1.61203e-05
1.61292e-05
1.61357e-05
1.61323e-05
1.61243e-05
1.6137e-05
1.6158e-05
1.61146e-05
1e-05
1.00015e-05
1.04596e-05
1.96688e-05
1.74654e-05
1.53365e-05
1.6474e-05
1.62896e-05
1.62097e-05
1.62554e-05
1.62417e-05
1.62376e-05
1.62351e-05
1.62304e-05
1.6226e-05
1.62213e-05
1.62163e-05
1.62111e-05
1.62056e-05
1.62e-05
1.61943e-05
1.61885e-05
1.61828e-05
1.61772e-05
1.61716e-05
1.6166e-05
1.61605e-05
1.61551e-05
1.61498e-05
1.61446e-05
1.61397e-05
1.61349e-05
1.61304e-05
1.6126e-05
1.61219e-05
1.61181e-05
1.61146e-05
1.61113e-05
1.61082e-05
1.61052e-05
1.61023e-05
1.60996e-05
1.60971e-05
1.60948e-05
1.60926e-05
1.60904e-05
1.60882e-05
1.60861e-05
1.60842e-05
1.60824e-05
1.60809e-05
1.60796e-05
1.60788e-05
1.60784e-05
1.60786e-05
1.60792e-05
1.60799e-05
1.60805e-05
1.60811e-05
1.60819e-05
1.60831e-05
1.6085e-05
1.60877e-05
1.60911e-05
1.6095e-05
1.60992e-05
1.61034e-05
1.61075e-05
1.61102e-05
1.61111e-05
1.61115e-05
1.61125e-05
1.61154e-05
1.61219e-05
1.6131e-05
1.61369e-05
1.61326e-05
1.6125e-05
1.61402e-05
1.61599e-05
1.61135e-05
1e-05
1.00211e-05
1.52888e-05
1.98126e-05
1.5579e-05
1.60079e-05
1.6465e-05
1.62193e-05
1.62461e-05
1.62604e-05
1.62457e-05
1.62439e-05
1.62397e-05
1.62346e-05
1.62298e-05
1.62247e-05
1.62194e-05
1.62138e-05
1.62082e-05
1.62024e-05
1.61966e-05
1.61909e-05
1.61851e-05
1.61794e-05
1.61737e-05
1.6168e-05
1.61624e-05
1.61569e-05
1.61515e-05
1.61464e-05
1.61414e-05
1.61365e-05
1.61319e-05
1.61275e-05
1.61233e-05
1.61195e-05
1.6116e-05
1.61126e-05
1.61094e-05
1.61063e-05
1.61033e-05
1.61005e-05
1.60979e-05
1.60956e-05
1.60933e-05
1.6091e-05
1.60887e-05
1.60866e-05
1.60846e-05
1.60828e-05
1.60813e-05
1.608e-05
1.60793e-05
1.60791e-05
1.60793e-05
1.60799e-05
1.60806e-05
1.60812e-05
1.60818e-05
1.60826e-05
1.60839e-05
1.60859e-05
1.60887e-05
1.60922e-05
1.60962e-05
1.61003e-05
1.61046e-05
1.61086e-05
1.61111e-05
1.61119e-05
1.61122e-05
1.61133e-05
1.61166e-05
1.61236e-05
1.61328e-05
1.61381e-05
1.61329e-05
1.61259e-05
1.61436e-05
1.61618e-05
1.61122e-05
1.00124e-05
1.29656e-05
2.00846e-05
1.65003e-05
1.57325e-05
1.63823e-05
1.63244e-05
1.62322e-05
1.62705e-05
1.62611e-05
1.62527e-05
1.62502e-05
1.62447e-05
1.62394e-05
1.62341e-05
1.62285e-05
1.62228e-05
1.6217e-05
1.62111e-05
1.62052e-05
1.61992e-05
1.61933e-05
1.61875e-05
1.61816e-05
1.61758e-05
1.617e-05
1.61643e-05
1.61587e-05
1.61533e-05
1.61481e-05
1.6143e-05
1.61381e-05
1.61334e-05
1.61289e-05
1.61248e-05
1.6121e-05
1.61174e-05
1.61139e-05
1.61105e-05
1.61073e-05
1.61043e-05
1.61015e-05
1.60988e-05
1.60964e-05
1.6094e-05
1.60916e-05
1.60893e-05
1.6087e-05
1.6085e-05
1.60832e-05
1.60817e-05
1.60805e-05
1.60799e-05
1.60798e-05
1.60801e-05
1.60807e-05
1.60814e-05
1.6082e-05
1.60826e-05
1.60834e-05
1.60847e-05
1.60868e-05
1.60898e-05
1.60934e-05
1.60973e-05
1.61015e-05
1.61058e-05
1.61097e-05
1.61121e-05
1.61127e-05
1.6113e-05
1.61143e-05
1.6118e-05
1.61254e-05
1.61347e-05
1.61393e-05
1.61332e-05
1.61268e-05
1.61474e-05
1.61635e-05
1.61105e-05
1.28394e-05
1.86842e-05
1.72202e-05
1.57669e-05
1.62444e-05
1.63688e-05
1.62597e-05
1.62672e-05
1.62763e-05
1.62637e-05
1.626e-05
1.62556e-05
1.62497e-05
1.62442e-05
1.62384e-05
1.62325e-05
1.62265e-05
1.62204e-05
1.62143e-05
1.62082e-05
1.62021e-05
1.61961e-05
1.619e-05
1.6184e-05
1.6178e-05
1.61721e-05
1.61663e-05
1.61607e-05
1.61552e-05
1.61499e-05
1.61447e-05
1.61397e-05
1.6135e-05
1.61305e-05
1.61264e-05
1.61225e-05
1.61188e-05
1.61152e-05
1.61117e-05
1.61084e-05
1.61054e-05
1.61025e-05
1.60999e-05
1.60973e-05
1.60948e-05
1.60923e-05
1.60898e-05
1.60875e-05
1.60855e-05
1.60837e-05
1.60822e-05
1.60811e-05
1.60806e-05
1.60806e-05
1.6081e-05
1.60816e-05
1.60822e-05
1.60828e-05
1.60834e-05
1.60842e-05
1.60856e-05
1.60879e-05
1.60909e-05
1.60946e-05
1.60986e-05
1.61028e-05
1.61071e-05
1.61109e-05
1.61131e-05
1.61135e-05
1.61138e-05
1.61153e-05
1.61195e-05
1.61274e-05
1.61367e-05
1.61404e-05
1.61334e-05
1.61279e-05
1.61514e-05
1.6165e-05
1.61085e-05
1.73636e-05
1.69646e-05
1.60685e-05
1.61829e-05
1.63328e-05
1.629e-05
1.62718e-05
1.6281e-05
1.62749e-05
1.6269e-05
1.62655e-05
1.62603e-05
1.62547e-05
1.62491e-05
1.62432e-05
1.62371e-05
1.6231e-05
1.62247e-05
1.62184e-05
1.62121e-05
1.62057e-05
1.61994e-05
1.61931e-05
1.61869e-05
1.61807e-05
1.61747e-05
1.61688e-05
1.6163e-05
1.61574e-05
1.6152e-05
1.61467e-05
1.61417e-05
1.61369e-05
1.61325e-05
1.61283e-05
1.61243e-05
1.61204e-05
1.61167e-05
1.61131e-05
1.61097e-05
1.61067e-05
1.61038e-05
1.6101e-05
1.60982e-05
1.60955e-05
1.60929e-05
1.60904e-05
1.60881e-05
1.6086e-05
1.60842e-05
1.60828e-05
1.60818e-05
1.60815e-05
1.60816e-05
1.60821e-05
1.60827e-05
1.60832e-05
1.60837e-05
1.60843e-05
1.60853e-05
1.60868e-05
1.60892e-05
1.60924e-05
1.60961e-05
1.61002e-05
1.61044e-05
1.61087e-05
1.61123e-05
1.61142e-05
1.61145e-05
1.61148e-05
1.61166e-05
1.61214e-05
1.61299e-05
1.61391e-05
1.61416e-05
1.61336e-05
1.61295e-05
1.61561e-05
1.61666e-05
1.61063e-05
1.64846e-05
1.61796e-05
1.62077e-05
1.6312e-05
1.62889e-05
1.6276e-05
1.62797e-05
1.62773e-05
1.62725e-05
1.62698e-05
1.6266e-05
1.62615e-05
1.62568e-05
1.62516e-05
1.62461e-05
1.62404e-05
1.62344e-05
1.62283e-05
1.6222e-05
1.62157e-05
1.62093e-05
1.62029e-05
1.61965e-05
1.61901e-05
1.61839e-05
1.61777e-05
1.61717e-05
1.61658e-05
1.61601e-05
1.61545e-05
1.61492e-05
1.61442e-05
1.61394e-05
1.61349e-05
1.61306e-05
1.61264e-05
1.61223e-05
1.61184e-05
1.61148e-05
1.61115e-05
1.61083e-05
1.61052e-05
1.61022e-05
1.60993e-05
1.60965e-05
1.60937e-05
1.60911e-05
1.60888e-05
1.60867e-05
1.60849e-05
1.60836e-05
1.60829e-05
1.60827e-05
1.6083e-05
1.60835e-05
1.6084e-05
1.60845e-05
1.60849e-05
1.60856e-05
1.60866e-05
1.60883e-05
1.60909e-05
1.60942e-05
1.6098e-05
1.61021e-05
1.61064e-05
1.61106e-05
1.6114e-05
1.61156e-05
1.61157e-05
1.61161e-05
1.61183e-05
1.61238e-05
1.61329e-05
1.61417e-05
1.61428e-05
1.61338e-05
1.6132e-05
1.61615e-05
1.61678e-05
1.61035e-05
1.62432e-05
1.62592e-05
1.62999e-05
1.62957e-05
1.62826e-05
1.62807e-05
1.62779e-05
1.62734e-05
1.62701e-05
1.6267e-05
1.62632e-05
1.62593e-05
1.62551e-05
1.62505e-05
1.62457e-05
1.62405e-05
1.62351e-05
1.62294e-05
1.62235e-05
1.62174e-05
1.62113e-05
1.6205e-05
1.61988e-05
1.61926e-05
1.61864e-05
1.61803e-05
1.61743e-05
1.61684e-05
1.61626e-05
1.61571e-05
1.61518e-05
1.61467e-05
1.61419e-05
1.61373e-05
1.61328e-05
1.61284e-05
1.61242e-05
1.61203e-05
1.61167e-05
1.61133e-05
1.61099e-05
1.61067e-05
1.61035e-05
1.61004e-05
1.60974e-05
1.60945e-05
1.60919e-05
1.60895e-05
1.60875e-05
1.60859e-05
1.60847e-05
1.60842e-05
1.60842e-05
1.60845e-05
1.6085e-05
1.60855e-05
1.60858e-05
1.60862e-05
1.60869e-05
1.60881e-05
1.609e-05
1.60928e-05
1.60962e-05
1.61001e-05
1.61042e-05
1.61085e-05
1.61126e-05
1.61157e-05
1.61169e-05
1.61169e-05
1.61175e-05
1.61203e-05
1.61266e-05
1.61362e-05
1.61444e-05
1.61439e-05
1.6134e-05
1.61353e-05
1.61672e-05
1.61686e-05
1.61001e-05
1.63332e-05
1.631e-05
1.63298e-05
1.63207e-05
1.63072e-05
1.62989e-05
1.62912e-05
1.62837e-05
1.62774e-05
1.62721e-05
1.6267e-05
1.62621e-05
1.62575e-05
1.62529e-05
1.62483e-05
1.62436e-05
1.62387e-05
1.62336e-05
1.62283e-05
1.62229e-05
1.62173e-05
1.62115e-05
1.62057e-05
1.61998e-05
1.61939e-05
1.6188e-05
1.61821e-05
1.61762e-05
1.61704e-05
1.61648e-05
1.61594e-05
1.61541e-05
1.6149e-05
1.61441e-05
1.61394e-05
1.61347e-05
1.61303e-05
1.61262e-05
1.61223e-05
1.61186e-05
1.6115e-05
1.61115e-05
1.6108e-05
1.61046e-05
1.61014e-05
1.60983e-05
1.60954e-05
1.60928e-05
1.60904e-05
1.60885e-05
1.6087e-05
1.60861e-05
1.60858e-05
1.60859e-05
1.60862e-05
1.60866e-05
1.6087e-05
1.60873e-05
1.60877e-05
1.60884e-05
1.60897e-05
1.60919e-05
1.60948e-05
1.60984e-05
1.61023e-05
1.61065e-05
1.61107e-05
1.61147e-05
1.61175e-05
1.61183e-05
1.61182e-05
1.61191e-05
1.61225e-05
1.61297e-05
1.61397e-05
1.61471e-05
1.61447e-05
1.61344e-05
1.61396e-05
1.61731e-05
1.61688e-05
1.60964e-05
1.63919e-05
1.63968e-05
1.6372e-05
1.63557e-05
1.63408e-05
1.63272e-05
1.63142e-05
1.63027e-05
1.62926e-05
1.62835e-05
1.62752e-05
1.62678e-05
1.6261e-05
1.62548e-05
1.62489e-05
1.62433e-05
1.62378e-05
1.62324e-05
1.62271e-05
1.62217e-05
1.62163e-05
1.62109e-05
1.62054e-05
1.61999e-05
1.61943e-05
1.61887e-05
1.61831e-05
1.61775e-05
1.61719e-05
1.61665e-05
1.61611e-05
1.61559e-05
1.61509e-05
1.6146e-05
1.61412e-05
1.61366e-05
1.61323e-05
1.61282e-05
1.61243e-05
1.61205e-05
1.61167e-05
1.61129e-05
1.61093e-05
1.61058e-05
1.61025e-05
1.60993e-05
1.60964e-05
1.60937e-05
1.60915e-05
1.60896e-05
1.60884e-05
1.60877e-05
1.60876e-05
1.60877e-05
1.60881e-05
1.60884e-05
1.60886e-05
1.60888e-05
1.60892e-05
1.60901e-05
1.60916e-05
1.6094e-05
1.60971e-05
1.61007e-05
1.61047e-05
1.61088e-05
1.61131e-05
1.61168e-05
1.61192e-05
1.61196e-05
1.61196e-05
1.61209e-05
1.61251e-05
1.61332e-05
1.61433e-05
1.61496e-05
1.61452e-05
1.6135e-05
1.61449e-05
1.61792e-05
1.61682e-05
1.6092e-05
1.64369e-05
1.64501e-05
1.64172e-05
1.63994e-05
1.63818e-05
1.63646e-05
1.63484e-05
1.63332e-05
1.63191e-05
1.6306e-05
1.6294e-05
1.62831e-05
1.62732e-05
1.62641e-05
1.62559e-05
1.62483e-05
1.62413e-05
1.62347e-05
1.62284e-05
1.62225e-05
1.62167e-05
1.62111e-05
1.62056e-05
1.62001e-05
1.61947e-05
1.61892e-05
1.61838e-05
1.61783e-05
1.61729e-05
1.61676e-05
1.61624e-05
1.61573e-05
1.61523e-05
1.61475e-05
1.61429e-05
1.61385e-05
1.61343e-05
1.61302e-05
1.61261e-05
1.6122e-05
1.61181e-05
1.61142e-05
1.61105e-05
1.61069e-05
1.61035e-05
1.61003e-05
1.60974e-05
1.60948e-05
1.60927e-05
1.60911e-05
1.60901e-05
1.60896e-05
1.60896e-05
1.60898e-05
1.609e-05
1.60902e-05
1.60903e-05
1.60905e-05
1.60909e-05
1.60919e-05
1.60937e-05
1.60963e-05
1.60995e-05
1.61032e-05
1.61072e-05
1.61114e-05
1.61155e-05
1.6119e-05
1.61209e-05
1.6121e-05
1.61211e-05
1.6123e-05
1.61281e-05
1.6137e-05
1.61472e-05
1.61519e-05
1.61455e-05
1.6136e-05
1.61514e-05
1.61851e-05
1.61666e-05
1.60877e-05
1.64734e-05
1.64844e-05
1.6457e-05
1.64398e-05
1.64223e-05
1.64047e-05
1.63873e-05
1.63703e-05
1.63538e-05
1.63379e-05
1.63228e-05
1.63086e-05
1.62954e-05
1.62832e-05
1.62719e-05
1.62616e-05
1.62522e-05
1.62435e-05
1.62354e-05
1.6228e-05
1.6221e-05
1.62145e-05
1.62082e-05
1.62022e-05
1.61964e-05
1.61906e-05
1.6185e-05
1.61794e-05
1.6174e-05
1.61687e-05
1.61636e-05
1.61587e-05
1.61539e-05
1.61492e-05
1.61448e-05
1.61404e-05
1.61361e-05
1.61318e-05
1.61276e-05
1.61234e-05
1.61193e-05
1.61153e-05
1.61116e-05
1.6108e-05
1.61046e-05
1.61014e-05
1.60986e-05
1.60961e-05
1.60942e-05
1.60929e-05
1.60921e-05
1.60918e-05
1.60918e-05
1.60919e-05
1.6092e-05
1.6092e-05
1.6092e-05
1.60922e-05
1.60928e-05
1.6094e-05
1.6096e-05
1.60988e-05
1.61021e-05
1.61059e-05
1.61099e-05
1.61141e-05
1.61181e-05
1.61212e-05
1.61225e-05
1.61224e-05
1.61228e-05
1.61254e-05
1.61316e-05
1.61413e-05
1.61511e-05
1.61539e-05
1.61455e-05
1.61375e-05
1.61588e-05
1.61908e-05
1.61641e-05
1.60841e-05
1.64859e-05
1.64916e-05
1.64785e-05
1.64658e-05
1.64517e-05
1.64362e-05
1.642e-05
1.64035e-05
1.63868e-05
1.63703e-05
1.63541e-05
1.63383e-05
1.6323e-05
1.63085e-05
1.62948e-05
1.62819e-05
1.627e-05
1.62589e-05
1.62487e-05
1.62393e-05
1.62306e-05
1.62225e-05
1.62149e-05
1.62078e-05
1.6201e-05
1.61945e-05
1.61883e-05
1.61824e-05
1.61767e-05
1.61712e-05
1.61661e-05
1.61611e-05
1.61563e-05
1.61517e-05
1.61471e-05
1.61426e-05
1.6138e-05
1.61335e-05
1.61291e-05
1.61248e-05
1.61206e-05
1.61167e-05
1.61129e-05
1.61092e-05
1.61058e-05
1.61028e-05
1.61001e-05
1.60978e-05
1.60962e-05
1.60951e-05
1.60945e-05
1.60943e-05
1.60943e-05
1.60943e-05
1.60942e-05
1.60941e-05
1.6094e-05
1.60942e-05
1.6095e-05
1.60964e-05
1.60987e-05
1.61016e-05
1.61051e-05
1.61089e-05
1.61129e-05
1.6117e-05
1.61208e-05
1.61234e-05
1.61243e-05
1.61241e-05
1.61249e-05
1.61285e-05
1.61358e-05
1.61461e-05
1.61551e-05
1.61555e-05
1.61453e-05
1.61398e-05
1.61676e-05
1.6196e-05
1.61609e-05
1.60825e-05
1.64651e-05
1.64611e-05
1.64768e-05
1.64774e-05
1.64737e-05
1.64656e-05
1.64542e-05
1.64406e-05
1.64255e-05
1.64094e-05
1.63927e-05
1.63759e-05
1.6359e-05
1.63425e-05
1.63263e-05
1.63108e-05
1.62959e-05
1.6282e-05
1.62689e-05
1.62567e-05
1.62454e-05
1.62349e-05
1.62253e-05
1.62164e-05
1.62081e-05
1.62004e-05
1.61932e-05
1.61864e-05
1.61802e-05
1.61743e-05
1.61688e-05
1.61635e-05
1.61585e-05
1.61536e-05
1.61487e-05
1.61439e-05
1.61392e-05
1.61345e-05
1.61301e-05
1.61257e-05
1.61216e-05
1.61176e-05
1.61137e-05
1.61101e-05
1.61068e-05
1.61038e-05
1.61013e-05
1.60994e-05
1.6098e-05
1.60972e-05
1.60968e-05
1.60966e-05
1.60965e-05
1.60963e-05
1.60961e-05
1.60958e-05
1.60957e-05
1.6096e-05
1.60969e-05
1.60986e-05
1.61011e-05
1.61042e-05
1.61077e-05
1.61115e-05
1.61155e-05
1.61196e-05
1.61231e-05
1.61253e-05
1.61256e-05
1.61254e-05
1.61267e-05
1.61312e-05
1.61396e-05
1.61504e-05
1.61585e-05
1.61567e-05
1.61448e-05
1.61421e-05
1.61759e-05
1.62005e-05
1.61564e-05
1.60803e-05
1.63403e-05
1.63322e-05
1.6366e-05
1.63842e-05
1.63985e-05
1.64084e-05
1.64139e-05
1.64154e-05
1.64135e-05
1.64086e-05
1.64014e-05
1.63922e-05
1.63815e-05
1.63697e-05
1.6357e-05
1.63438e-05
1.63303e-05
1.63167e-05
1.63032e-05
1.62901e-05
1.62774e-05
1.62653e-05
1.62538e-05
1.62428e-05
1.62325e-05
1.62227e-05
1.62134e-05
1.62047e-05
1.61965e-05
1.61888e-05
1.61816e-05
1.61748e-05
1.61683e-05
1.61621e-05
1.61562e-05
1.61504e-05
1.6145e-05
1.61397e-05
1.61348e-05
1.613e-05
1.61255e-05
1.61213e-05
1.61174e-05
1.61138e-05
1.61106e-05
1.61079e-05
1.61057e-05
1.61041e-05
1.6103e-05
1.61022e-05
1.61017e-05
1.61012e-05
1.61008e-05
1.61003e-05
1.60998e-05
1.60995e-05
1.60996e-05
1.61002e-05
1.61015e-05
1.61035e-05
1.61063e-05
1.61095e-05
1.61131e-05
1.61169e-05
1.61208e-05
1.61245e-05
1.61273e-05
1.61285e-05
1.61285e-05
1.6129e-05
1.61319e-05
1.61384e-05
1.61483e-05
1.61587e-05
1.61634e-05
1.6157e-05
1.61452e-05
1.61528e-05
1.61922e-05
1.62045e-05
1.61512e-05
1.60841e-05
)
;

boundaryField
{
    inlet
    {
        type            calculated;
        value           uniform 2e-05;
    }
    outlet
    {
        type            calculated;
        value           nonuniform List<scalar> 
82
(
1.63403e-05
1.6366e-05
1.63322e-05
1.63842e-05
1.63985e-05
1.64084e-05
1.64139e-05
1.64154e-05
1.64135e-05
1.64086e-05
1.64014e-05
1.63922e-05
1.63815e-05
1.63697e-05
1.6357e-05
1.63438e-05
1.63303e-05
1.63167e-05
1.63032e-05
1.62901e-05
1.62774e-05
1.62653e-05
1.62538e-05
1.62428e-05
1.62325e-05
1.62227e-05
1.62134e-05
1.62047e-05
1.61965e-05
1.61888e-05
1.61816e-05
1.61748e-05
1.61683e-05
1.61621e-05
1.61562e-05
1.61504e-05
1.6145e-05
1.61397e-05
1.61348e-05
1.613e-05
1.61255e-05
1.61213e-05
1.61174e-05
1.61138e-05
1.61106e-05
1.61079e-05
1.61057e-05
1.61041e-05
1.6103e-05
1.61022e-05
1.61017e-05
1.61012e-05
1.61008e-05
1.61003e-05
1.60998e-05
1.60995e-05
1.60996e-05
1.61002e-05
1.61015e-05
1.61035e-05
1.61063e-05
1.61095e-05
1.61131e-05
1.61169e-05
1.61208e-05
1.61245e-05
1.61273e-05
1.61285e-05
1.61285e-05
1.6129e-05
1.61319e-05
1.61384e-05
1.61483e-05
1.61587e-05
1.61634e-05
1.6157e-05
1.61452e-05
1.61528e-05
1.61922e-05
1.62045e-05
1.61512e-05
1.60841e-05
)
;
    }
    walls
    {
        type            calculated;
        value           nonuniform List<scalar> 0();
    }
    frontAndBack
    {
        type            empty;
    }
    procBoundary3to2
    {
        type            processor;
        value           nonuniform List<scalar> 
88
(
1.61418e-05
1.61167e-05
1.61207e-05
1.61198e-05
1.61198e-05
1.61275e-05
1.61289e-05
1.61289e-05
1.61093e-05
1.61132e-05
1.61205e-05
1.61205e-05
1.61017e-05
1.6105e-05
1.61067e-05
1.61076e-05
1.61084e-05
1.61084e-05
1.60835e-05
1.60866e-05
1.60903e-05
1.60943e-05
1.60985e-05
1.60985e-05
1.60767e-05
1.60772e-05
1.60779e-05
1.60786e-05
1.60794e-05
1.60804e-05
1.6082e-05
1.6082e-05
1.60923e-05
1.60903e-05
1.60884e-05
1.60866e-05
1.60847e-05
1.60829e-05
1.60813e-05
1.60798e-05
1.60785e-05
1.60775e-05
1.60769e-05
1.60769e-05
1.60769e-05
0.00247391
1.00016e-05
1.05119e-05
2.17541e-05
1.56444e-05
1.58267e-05
1.64233e-05
1.62023e-05
1.62328e-05
1.62377e-05
1.62282e-05
1.62274e-05
1.62235e-05
1.62195e-05
1.62152e-05
1.62106e-05
1.62056e-05
1.62004e-05
1.6195e-05
1.61894e-05
1.61836e-05
1.61779e-05
1.61722e-05
1.61667e-05
1.61613e-05
1.6156e-05
1.61508e-05
1.61456e-05
1.61406e-05
1.61358e-05
1.61312e-05
1.61269e-05
1.61227e-05
1.61187e-05
1.6115e-05
1.61116e-05
1.61085e-05
1.61056e-05
1.61028e-05
1.61001e-05
1.60976e-05
1.60953e-05
1.60953e-05
)
;
    }
    procBoundary3to6
    {
        type            processor;
        value           uniform 0.0101453;
    }
    procBoundary3to7
    {
        type            processor;
        value           nonuniform List<scalar> 
16
(
0.0212402
0.00323281
1e-05
1e-05
1.00133e-05
1.58674e-05
1.76113e-05
1.64137e-05
1.64137e-05
1.63968e-05
1.63963e-05
1.64629e-05
1.64947e-05
1.6492e-05
1.64459e-05
1.63135e-05
)
;
    }
}


// ************************************************************************* //
