/*--------------------------------*- C++ -*----------------------------------*\
| =========                 |                                                 |
| \\      /  F ield         | OpenFOAM: The Open Source CFD Toolbox           |
|  \\    /   O peration     | Version:  2506                                  |
|   \\  /    A nd           | Website:  www.openfoam.com                      |
|    \\/     M anipulation  |                                                 |
\*---------------------------------------------------------------------------*/
FoamFile
{
    version     2.0;
    format      ascii;
    arch        "LSB;label=32;scalar=64";
    class       volVectorField;
    location    "150";
    object      U;
}
// * * * * * * * * * * * * * * * * * * * * * * * * * * * * * * * * * * * * * //

dimensions      [0 1 -1 0 0 0 0];

internalField   nonuniform List<vector> 
1340
(
(25.574 3.33617 -1.23903e-16)
(25.6333 2.91806 1.52993e-16)
(25.5345 3.18112 -3.79651e-16)
(25.5287 3.09939 -6.73061e-17)
(25.5767 3.33471 1.97061e-17)
(25.6465 2.92096 -6.44199e-16)
(25.5653 3.13233 0)
(25.553 3.12994 -1.4824e-16)
(25.5383 3.17831 3.76956e-16)
(25.5367 3.09906 2.22185e-16)
(25.5803 3.333 3.25672e-19)
(25.6598 2.92378 5.59129e-16)
(25.5774 3.08568 -2.14146e-16)
(25.5787 3.0994 4.07652e-18)
(25.5778 3.11151 2.85541e-17)
(25.5715 3.12883 0)
(25.5588 3.12735 1.64529e-18)
(25.5427 3.17547 -3.17062e-18)
(25.5449 3.09909 -1.64766e-18)
(25.5851 3.33109 4.71048e-19)
(25.673 2.92657 -7.08362e-19)
(25.5777 3.01414 1.80107e-17)
(25.5805 3.02905 7.12114e-17)
(25.5822 3.04156 7.10765e-17)
(25.584 3.05457 -2.42013e-16)
(25.5856 3.06781 5.99326e-17)
(25.5871 3.08138 -8.48526e-17)
(25.5876 3.09543 -1.81767e-18)
(25.5857 3.10797 2.05162e-16)
(25.5782 3.1255 0)
(25.565 3.12502 1.32512e-17)
(25.5478 3.17265 -3.62669e-16)
(25.5536 3.0995 -2.10197e-16)
(25.591 3.32901 -7.44273e-18)
(25.6863 2.92945 7.40517e-17)
(25.574 2.91585 1.62901e-16)
(25.5781 2.93543 -1.47445e-16)
(25.5822 2.95462 -3.82677e-17)
(25.5859 2.97337 -2.31022e-16)
(25.5892 2.99169 -5.12159e-17)
(25.5921 3.00944 3.45047e-17)
(25.594 3.02441 1.5379e-17)
(25.5949 3.03702 -1.16476e-18)
(25.5958 3.05018 4.61392e-17)
(25.5966 3.06362 -1.11728e-16)
(25.5973 3.07743 2.0977e-16)
(25.5969 3.09174 -1.29596e-16)
(25.5941 3.1047 -2.05209e-16)
(25.5854 3.12236 0)
(25.5716 3.12297 -9.47872e-18)
(25.5536 3.16987 3.54326e-16)
(25.5627 3.1003 2.05998e-16)
(25.5979 3.32679 8.73163e-18)
(25.6998 2.93249 -7.52976e-17)
(25.5841 2.77548 -2.10823e-17)
(25.5843 2.79512 -1.01888e-16)
(25.5849 2.81483 -1.72297e-16)
(25.586 2.83457 6.2795e-17)
(25.5876 2.85431 -2.01647e-17)
(25.5897 2.87398 7.92862e-17)
(25.5923 2.89355 2.02159e-16)
(25.5952 2.91296 -4.70146e-18)
(25.598 2.93214 1.19341e-16)
(25.6008 2.95101 -1.02575e-17)
(25.6032 2.96953 1.5657e-17)
(25.6053 2.98771 9.86614e-17)
(25.607 3.00538 -3.49972e-17)
(25.6079 3.02034 -1.77571e-17)
(25.608 3.03299 -1.22262e-18)
(25.6081 3.04625 3.31107e-18)
(25.6082 3.05984 8.55001e-19)
(25.6081 3.07387 -1.10261e-16)
(25.6069 3.0884 1.25088e-16)
(25.6031 3.10176 -4.0203e-19)
(25.5932 3.11947 0)
(25.5787 3.12123 1.28801e-17)
(25.5601 3.16718 -3.70085e-16)
(25.5723 3.10151 -2.03186e-18)
(25.606 3.32445 -2.2376e-17)
(25.7133 2.93579 -7.80565e-19)
(25.6631 2.58379 1.64877e-17)
(25.6563 2.59758 -9.49664e-17)
(25.6499 2.61188 -2.63838e-18)
(25.6439 2.62667 9.10337e-17)
(25.6384 2.64196 -9.85158e-17)
(25.6335 2.65772 1.56619e-17)
(25.6291 2.67395 7.1769e-18)
(25.6252 2.69061 -2.00137e-17)
(25.6219 2.70768 1.22603e-16)
(25.6192 2.72514 1.7323e-16)
(25.617 2.74293 1.29809e-17)
(25.6154 2.76101 4.71263e-17)
(25.6142 2.77938 -5.00846e-17)
(25.6132 2.79796 1.47449e-18)
(25.6126 2.81668 2.64955e-16)
(25.6125 2.83552 -1.81598e-18)
(25.6129 2.85444 -1.46983e-16)
(25.6138 2.87339 -3.20086e-17)
(25.615 2.89231 -1.39379e-16)
(25.6166 2.91114 -3.59764e-17)
(25.6182 2.92981 -1.1702e-18)
(25.6197 2.94828 -1.57761e-16)
(25.6209 2.96649 -5.83123e-18)
(25.6219 2.98445 -4.09962e-17)
(25.6224 3.00198 -3.45282e-19)
(25.6224 3.01688 1.38088e-17)
(25.6217 3.02953 -1.22409e-16)
(25.6211 3.04284 1.12282e-16)
(25.6204 3.05653 9.90989e-17)
(25.6195 3.07073 1.81603e-16)
(25.6174 3.08545 -2.02789e-16)
(25.6125 3.09917 -4.28579e-19)
(25.6015 3.11685 0)
(25.5863 3.11983 -8.4966e-18)
(25.5675 3.16462 1.02245e-16)
(25.5825 3.10317 4.33067e-17)
(25.6151 3.32203 -2.62423e-17)
(25.727 2.93945 -8.15445e-19)
(26.0552 2.40204 2.01477e-18)
(26.0487 2.40391 2.02828e-18)
(26.0432 2.4045 -1.3823e-19)
(26.0372 2.40599 4.96741e-19)
(26.0311 2.40728 6.71908e-19)
(26.0248 2.40873 3.1159e-19)
(26.0183 2.41021 1.42274e-20)
(26.0116 2.41179 -2.68712e-18)
(26.0047 2.41344 -1.10332e-18)
(25.9975 2.41518 2.60735e-18)
(25.9902 2.41702 0)
(25.9826 2.41897 -4.54362e-19)
(25.9748 2.42103 5.95308e-18)
(25.9668 2.4232 1.88502e-19)
(25.9586 2.42551 6.7104e-18)
(25.9502 2.42795 7.10094e-19)
(25.9416 2.43055 1.74359e-18)
(25.9329 2.43331 5.49022e-18)
(25.924 2.43623 2.75485e-18)
(25.915 2.43935 7.72948e-18)
(25.9058 2.44266 -7.12594e-18)
(25.8966 2.44617 -1.06149e-17)
(25.8873 2.44991 4.07908e-18)
(25.8779 2.45388 -2.47496e-18)
(25.8685 2.4581 -7.82842e-18)
(25.859 2.46258 -7.60207e-18)
(25.8495 2.46734 1.4925e-17)
(25.84 2.47238 -5.25022e-18)
(25.8305 2.47774 2.03037e-18)
(25.821 2.48341 -7.28904e-18)
(25.8116 2.48943 1.19407e-17)
(25.8022 2.4958 7.61751e-18)
(25.7929 2.50255 9.13464e-18)
(25.7837 2.50968 2.32533e-17)
(25.7746 2.51722 -1.7086e-17)
(25.7656 2.52519 -1.04498e-17)
(25.7568 2.53359 8.78798e-19)
(25.7481 2.54244 -1.24516e-17)
(25.7395 2.55175 -5.03872e-18)
(25.7311 2.56154 -2.27977e-17)
(25.723 2.57181 7.67028e-18)
(25.715 2.58256 1.08497e-17)
(25.7076 2.59383 -2.51829e-17)
(25.7006 2.60562 2.09698e-17)
(25.6934 2.61793 5.75871e-18)
(25.6866 2.63074 -5.94718e-19)
(25.6802 2.64406 -3.71549e-18)
(25.6742 2.65789 2.65639e-17)
(25.6687 2.67221 -8.07283e-17)
(25.6636 2.68702 -2.76205e-19)
(25.6591 2.7023 -2.13717e-18)
(25.655 2.71803 -3.6456e-17)
(25.6515 2.73418 -6.22986e-18)
(25.6484 2.75073 -4.27751e-18)
(25.6457 2.76762 -5.98263e-19)
(25.6434 2.78481 -1.63476e-17)
(25.6414 2.80224 1.44329e-18)
(25.6398 2.81991 -1.1388e-16)
(25.6386 2.83779 -1.79745e-18)
(25.6379 2.85582 1.24521e-16)
(25.6376 2.87398 -5.45112e-19)
(25.6378 2.89218 1.27911e-16)
(25.6382 2.91037 -1.03916e-17)
(25.6386 2.92848 -1.03239e-16)
(25.639 2.94647 9.33801e-18)
(25.6391 2.9643 5.09266e-18)
(25.6389 2.98196 3.41857e-17)
(25.6383 2.99928 2.97546e-17)
(25.6374 3.01407 -2.04207e-18)
(25.6359 3.02668 3.91349e-18)
(25.6346 3.03999 -9.31498e-19)
(25.6332 3.05374 -9.6775e-17)
(25.6314 3.06807 -1.43562e-16)
(25.6285 3.08292 2.05764e-16)
(25.6225 3.09697 9.37e-17)
(25.6104 3.11456 0)
(25.5944 3.11879 -2.75944e-17)
(25.5756 3.16223 2.52055e-16)
(25.5933 3.10529 -2.20448e-16)
(25.6254 3.31955 9.61739e-18)
(25.7409 2.94357 -8.60618e-19)
(26.0834 2.45261 -1.88706e-19)
(26.0771 2.45407 1.54942e-19)
(26.0708 2.45467 -2.64052e-19)
(26.0643 2.45593 -1.28498e-19)
(26.0578 2.45703 -3.26388e-20)
(26.0511 2.45826 -1.51495e-20)
(26.0444 2.45953 -2.2867e-18)
(26.0375 2.46086 1.03897e-18)
(26.0304 2.46225 1.47358e-19)
(26.0232 2.46372 -1.71503e-18)
(26.0159 2.46526 0)
(26.0083 2.46688 -3.5356e-18)
(26.0007 2.4686 -1.75514e-18)
(25.9928 2.47042 -9.23567e-21)
(25.9848 2.47234 -4.20391e-18)
(25.9767 2.47439 3.87943e-18)
(25.9684 2.47655 4.31814e-18)
(25.96 2.47886 -3.56302e-18)
(25.9515 2.48131 -2.92415e-18)
(25.9429 2.48392 -1.85454e-18)
(25.9341 2.48669 -4.84266e-19)
(25.9253 2.48965 8.41864e-18)
(25.9164 2.4928 1.36403e-19)
(25.9074 2.49615 4.07072e-18)
(25.8984 2.49971 5.16413e-18)
(25.8893 2.50351 6.27142e-19)
(25.8802 2.50754 -4.64301e-18)
(25.8711 2.51184 -1.88352e-18)
(25.862 2.51641 -9.82147e-20)
(25.8529 2.52126 1.63619e-18)
(25.8439 2.52641 -5.73548e-19)
(25.8348 2.53189 8.96752e-18)
(25.8259 2.5377 -4.34905e-19)
(25.817 2.54386 -1.10142e-18)
(25.8082 2.5504 1.98512e-17)
(25.7995 2.55731 6.14655e-18)
(25.7909 2.56463 -1.06567e-17)
(25.7823 2.57236 8.1345e-18)
(25.7739 2.58051 4.71535e-19)
(25.7656 2.58911 -8.99031e-18)
(25.7576 2.59818 -8.56614e-18)
(25.7497 2.60771 7.83969e-18)
(25.742 2.61772 1.47729e-17)
(25.7346 2.62817 5.60916e-18)
(25.7273 2.63909 6.15794e-17)
(25.7204 2.65051 -5.47182e-19)
(25.7137 2.66245 -3.43816e-18)
(25.7074 2.6749 -1.91632e-17)
(25.7015 2.68786 5.10781e-17)
(25.6961 2.70131 5.35807e-19)
(25.691 2.71525 -6.05494e-17)
(25.6864 2.72966 -1.3076e-18)
(25.6823 2.74453 -7.59387e-17)
(25.6785 2.75983 3.34604e-18)
(25.675 2.77551 2.26913e-17)
(25.6719 2.79151 -1.08026e-17)
(25.669 2.80783 -3.86932e-17)
(25.6665 2.82445 6.4503e-19)
(25.6644 2.84133 -1.77541e-18)
(25.6627 2.85844 -2.4965e-18)
(25.6615 2.87573 -5.43788e-19)
(25.6606 2.89315 -1.22279e-16)
(25.66 2.91064 3.83224e-17)
(25.6593 2.92814 1.00208e-16)
(25.6585 2.9456 1.50003e-16)
(25.6576 2.96298 5.19174e-18)
(25.6563 2.98028 -8.63066e-17)
(25.6547 2.99732 -3.03231e-17)
(25.6529 3.01194 -5.21936e-17)
(25.6507 3.02447 8.17046e-17)
(25.6487 3.03774 -2.49389e-17)
(25.6465 3.05151 9.21472e-17)
(25.644 3.06592 2.51185e-16)
(25.6401 3.08085 1.06724e-16)
(25.6331 3.09519 -4.30335e-18)
(25.6198 3.11263 0)
(25.6031 3.11815 3.24678e-17)
(25.5845 3.16006 -5.46135e-18)
(25.6047 3.10795 2.11705e-16)
(25.6367 3.31702 7.59085e-17)
(25.7552 2.94827 -9.20332e-19)
(26.1116 2.49734 4.18027e-19)
(26.1045 2.49857 4.476e-19)
(26.0974 2.49915 -1.1599e-20)
(26.0903 2.50024 -4.47154e-19)
(26.0832 2.50123 2.64791e-20)
(26.076 2.50232 1.77235e-19)
(26.0688 2.50345 1.15039e-19)
(26.0615 2.50464 8.21442e-21)
(26.0542 2.50588 3.51945e-20)
(26.0468 2.50719 5.79654e-20)
(26.0392 2.50857 0)
(26.0316 2.51001 1.47401e-19)
(26.0239 2.51154 -1.38734e-19)
(26.0161 2.51314 -7.73211e-21)
(26.0082 2.51483 9.36618e-19)
(26.0002 2.51663 -9.15734e-19)
(25.9921 2.51852 -2.71354e-19)
(25.9839 2.52053 1.11005e-19)
(25.9756 2.52266 1.72393e-19)
(25.9673 2.52493 1.1014e-18)
(25.9588 2.52734 1.10165e-18)
(25.9504 2.52989 -3.70054e-19)
(25.9418 2.53262 1.16416e-19)
(25.9332 2.53551 -7.62346e-20)
(25.9245 2.53859 1.10298e-19)
(25.9158 2.54187 -5.22528e-18)
(25.9071 2.54536 4.63191e-19)
(25.8984 2.54907 4.39702e-19)
(25.8897 2.55301 -1.63606e-19)
(25.881 2.5572 -9.44359e-19)
(25.8723 2.56166 -5.00858e-19)
(25.8637 2.5664 -1.26687e-18)
(25.8551 2.57144 4.54399e-18)
(25.8466 2.57679 -9.7097e-19)
(25.8381 2.58246 -1.40657e-19)
(25.8297 2.58848 -5.0999e-18)
(25.8213 2.59487 1.03561e-17)
(25.8131 2.60162 -6.11588e-18)
(25.8049 2.60876 4.23046e-19)
(25.7968 2.61631 8.66487e-18)
(25.789 2.62429 7.76115e-18)
(25.7812 2.63271 -4.98878e-19)
(25.7736 2.64156 6.86658e-19)
(25.7662 2.65083 -7.72505e-18)
(25.7589 2.66056 -2.73458e-17)
(25.7519 2.67078 -5.05251e-19)
(25.7451 2.68149 -3.18953e-18)
(25.7387 2.69268 3.44274e-18)
(25.7326 2.70437 -1.13553e-17)
(25.7269 2.71656 -1.03021e-18)
(25.7215 2.72923 3.06022e-18)
(25.7165 2.74239 2.42073e-17)
(25.7118 2.75601 -9.68791e-18)
(25.7075 2.77007 -4.19875e-19)
(25.7034 2.78454 -2.35959e-17)
(25.6996 2.79939 3.12789e-17)
(25.696 2.81461 4.11094e-17)
(25.6927 2.83017 1.00225e-16)
(25.6898 2.84604 -1.73801e-18)
(25.6873 2.8622 -9.207e-17)
(25.6852 2.87861 2.33151e-17)
(25.6834 2.89521 2.37139e-18)
(25.6818 2.91196 -5.60599e-17)
(25.6801 2.92879 -1.30986e-16)
(25.6783 2.94566 -1.16588e-16)
(25.6764 2.96254 6.98927e-17)
(25.6741 2.97941 -3.77253e-18)
(25.6715 2.99612 2.63716e-17)
(25.6688 3.01053 -6.64084e-18)
(25.666 3.02292 1.90324e-19)
(25.6632 3.03611 1.97398e-19)
(25.6604 3.04986 -1.06366e-16)
(25.6571 3.0643 -1.03579e-16)
(25.6523 3.07928 -8.01153e-18)
(25.6442 3.09387 -4.54633e-18)
(25.6297 3.1111 0)
(25.6123 3.11793 -2.46652e-17)
(25.5943 3.15816 -5.85123e-18)
(25.617 3.11122 -1.29229e-16)
(25.6489 3.31442 -7.10889e-17)
(25.77 2.9537 -1.00405e-18)
(26.1382 2.53801 -4.81947e-19)
(26.1306 2.53902 -9.91012e-20)
(26.1231 2.53956 1.585e-20)
(26.1156 2.54054 3.98435e-19)
(26.108 2.54145 -7.35546e-20)
(26.1004 2.54245 -1.91472e-19)
(26.0927 2.54349 9.68122e-20)
(26.085 2.54458 6.92193e-21)
(26.0773 2.54572 2.17753e-19)
(26.0696 2.54693 1.23893e-18)
(26.0618 2.54818 0)
(26.054 2.5495 8.28617e-19)
(26.0461 2.55088 -1.18078e-18)
(26.0382 2.55234 -8.99707e-19)
(26.0303 2.55386 1.47297e-18)
(26.0223 2.55547 5.06382e-19)
(26.0142 2.55717 -2.31103e-19)
(26.0061 2.55896 2.53231e-18)
(25.998 2.56085 2.20477e-18)
(25.9898 2.56286 -1.37051e-18)
(25.9815 2.56498 -3.66306e-19)
(25.9733 2.56724 -6.20567e-18)
(25.965 2.56964 9.99832e-20)
(25.9566 2.57219 -1.77623e-18)
(25.9483 2.5749 9.50698e-20)
(25.9399 2.57778 5.00679e-19)
(25.9315 2.58083 -2.64411e-19)
(25.9232 2.58408 3.81499e-19)
(25.9148 2.58754 2.0015e-21)
(25.9064 2.59121 1.24095e-18)
(25.8981 2.5951 -4.38046e-19)
(25.8898 2.59925 -1.11125e-18)
(25.8816 2.60365 -5.14033e-18)
(25.8734 2.60832 -8.56926e-19)
(25.8653 2.61329 -1.24528e-19)
(25.8572 2.61855 1.01645e-18)
(25.8491 2.62414 -8.23134e-18)
(25.8411 2.63005 6.32534e-18)
(25.8332 2.63632 3.79321e-19)
(25.8254 2.64296 -1.54245e-17)
(25.8178 2.64999 6.93728e-18)
(25.8102 2.65741 -6.40707e-18)
(25.8027 2.66524 6.22682e-19)
(25.7953 2.67347 -3.14511e-17)
(25.7881 2.68215 5.49574e-18)
(25.7812 2.69128 -4.62103e-19)
(25.7744 2.70087 -2.92816e-18)
(25.768 2.71093 1.95406e-17)
(25.7618 2.72147 1.09933e-17)
(25.7559 2.73249 4.16416e-19)
(25.7503 2.74398 5.04283e-17)
(25.745 2.75596 -3.82881e-18)
(25.74 2.7684 1.98795e-17)
(25.7353 2.78129 1.55833e-17)
(25.7307 2.79461 7.12748e-18)
(25.7263 2.80833 3.30626e-17)
(25.7221 2.82246 1.98711e-17)
(25.7182 2.83696 -1.12675e-16)
(25.7146 2.85182 7.89122e-17)
(25.7114 2.86702 1.2689e-16)
(25.7086 2.88253 -2.25946e-17)
(25.7059 2.8983 1.16717e-16)
(25.7034 2.91427 -3.11708e-17)
(25.7009 2.93039 -2.74128e-17)
(25.6982 2.94664 2.74752e-16)
(25.6953 2.96296 1.28022e-18)
(25.6922 2.97937 -1.64965e-17)
(25.6887 2.9957 -1.96654e-18)
(25.6852 3.00985 -5.54231e-17)
(25.6817 3.02208 1.96076e-19)
(25.6783 3.03514 -4.44662e-17)
(25.6748 3.04882 9.69625e-17)
(25.6707 3.06326 8.96464e-17)
(25.6651 3.07824 -2.50343e-17)
(25.6558 3.09303 -4.78809e-18)
(25.6403 3.11001 0)
(25.6221 3.1182 2.98672e-16)
(25.6049 3.15653 -1.01537e-16)
(25.6301 3.11522 1.19493e-16)
(25.662 3.31168 2.27181e-18)
(25.7854 2.95988 -4.66825e-16)
(26.162 2.57565 3.04157e-19)
(26.1545 2.57649 -8.41704e-20)
(26.147 2.57702 1.34673e-20)
(26.1394 2.57791 -3.25035e-19)
(26.1317 2.57876 1.96706e-20)
(26.1239 2.57969 1.29362e-19)
(26.1161 2.58066 8.24465e-20)
(26.1082 2.58167 5.89983e-21)
(26.1002 2.58274 6.48698e-21)
(26.0923 2.58385 -7.76847e-20)
(26.0843 2.58501 0)
(26.0763 2.58623 -5.67223e-19)
(26.0683 2.58751 9.18228e-19)
(26.0602 2.58884 1.19604e-18)
(26.0521 2.59024 4.7092e-19)
(26.0441 2.5917 -6.74637e-19)
(26.036 2.59324 -1.99125e-19)
(26.0279 2.59486 -1.67263e-19)
(26.0198 2.59656 -8.32925e-20)
(26.0116 2.59836 8.18416e-19)
(26.0035 2.60026 8.18807e-19)
(25.9953 2.60227 3.29645e-19)
(25.9872 2.6044 2.50682e-18)
(25.979 2.60665 1.59748e-18)
(25.9709 2.60905 8.28507e-20)
(25.9627 2.61159 2.84539e-18)
(25.9546 2.61429 -6.03126e-18)
(25.9465 2.61716 2.11364e-18)
(25.9384 2.62021 2.56146e-18)
(25.9303 2.62345 5.18722e-18)
(25.9223 2.62688 -7.57793e-18)
(25.9143 2.63053 -1.23623e-17)
(25.9064 2.6344 -2.04846e-18)
(25.8985 2.63851 -4.25004e-18)
(25.8906 2.64287 5.82459e-18)
(25.8828 2.64751 7.59825e-18)
(25.875 2.65242 6.04231e-18)
(25.8673 2.65762 -2.61699e-18)
(25.8596 2.66314 1.84966e-18)
(25.8521 2.669 1.49916e-17)
(25.8447 2.67521 -8.02886e-18)
(25.8373 2.68176 9.3602e-18)
(25.8299 2.68869 -2.67312e-18)
(25.8227 2.696 2.90861e-17)
(25.8156 2.70372 2.13026e-17)
(25.8087 2.71186 2.7651e-17)
(25.8021 2.72043 -7.6346e-19)
(25.7956 2.72946 3.021e-17)
(25.7894 2.73893 1.70306e-17)
(25.7835 2.74887 1.59962e-17)
(25.7777 2.75927 -1.31818e-17)
(25.7723 2.77014 -4.18149e-17)
(25.7671 2.78147 4.12423e-17)
(25.762 2.79326 -1.77529e-18)
(25.757 2.80547 -5.30752e-17)
(25.7522 2.81811 -5.2258e-17)
(25.7475 2.83117 -2.71267e-19)
(25.7431 2.84464 -1.06462e-17)
(25.739 2.85851 -1.251e-16)
(25.7352 2.87276 -5.50814e-18)
(25.7317 2.88736 -6.42185e-19)
(25.7284 2.90228 -1.93384e-17)
(25.7251 2.91746 2.73811e-17)
(25.7218 2.93286 9.86047e-18)
(25.7183 2.94845 -9.73718e-18)
(25.7146 2.9642 -2.55024e-18)
(25.7106 2.98011 1.93278e-17)
(25.7062 2.99601 6.79725e-17)
(25.702 3.00988 4.46676e-18)
(25.6979 3.02191 2.01721e-19)
(25.6939 3.03483 4.11936e-17)
(25.6898 3.04841 -3.58445e-18)
(25.685 3.06281 -7.1579e-18)
(25.6785 3.07776 -7.87292e-18)
(25.668 3.09271 -5.04361e-18)
(25.6514 3.10941 0)
(25.6327 3.119 -2.6433e-16)
(25.6162 3.15519 1.07926e-16)
(25.6446 3.12018 -7.19302e-17)
(25.6753 3.30862 -4.46784e-18)
(25.8027 2.96701 3.71034e-16)
(26.1835 2.62279 -4.01633e-20)
(26.1767 2.62344 -1.42275e-19)
(26.1698 2.62379 -8.39563e-20)
(26.1626 2.62443 7.25475e-20)
(26.1553 2.62503 -6.68854e-20)
(26.1479 2.62571 1.04277e-19)
(26.1402 2.62642 7.76562e-19)
(26.1325 2.62718 1.00807e-19)
(26.1247 2.62799 2.90476e-19)
(26.1168 2.62886 -1.17105e-19)
(26.1088 2.62978 0)
(26.1008 2.63076 4.53597e-19)
(26.0928 2.63179 -1.04605e-18)
(26.0847 2.63289 -1.26317e-21)
(26.0767 2.63405 -1.53597e-18)
(26.0686 2.63528 -9.68508e-19)
(26.0605 2.63658 -1.18106e-18)
(26.0524 2.63794 -9.46941e-19)
(26.0444 2.63939 -3.85422e-19)
(26.0363 2.64091 -2.12558e-18)
(26.0283 2.64252 2.9821e-18)
(26.0203 2.64422 1.55046e-18)
(26.0123 2.64602 -3.04235e-19)
(26.0043 2.64793 -2.68605e-19)
(25.9963 2.64995 8.79449e-19)
(25.9884 2.65209 9.21773e-19)
(25.9805 2.65437 2.79081e-18)
(25.9727 2.65679 2.0287e-18)
(25.9649 2.65936 -3.16658e-18)
(25.9571 2.66209 -4.75192e-18)
(25.9494 2.66498 2.17838e-18)
(25.9417 2.66806 1.42878e-18)
(25.9341 2.67133 9.18078e-19)
(25.9265 2.67481 -7.59711e-18)
(25.919 2.67849 -7.02697e-18)
(25.9115 2.68242 -1.35374e-18)
(25.904 2.68658 5.22262e-18)
(25.8967 2.69101 3.12163e-18)
(25.8894 2.6957 -7.78817e-18)
(25.8821 2.70069 -1.10905e-17)
(25.8749 2.70598 9.57794e-19)
(25.8678 2.71158 -1.54928e-17)
(25.8606 2.71751 7.01739e-18)
(25.8537 2.72379 -1.42461e-17)
(25.8468 2.73044 1.33318e-17)
(25.8402 2.73748 -4.31642e-17)
(25.8336 2.7449 3.68147e-20)
(25.8273 2.75275 4.28489e-18)
(25.8211 2.76102 -3.58602e-17)
(25.8152 2.76972 -1.66021e-17)
(25.8094 2.77887 -2.78089e-17)
(25.8038 2.78845 -7.08851e-18)
(25.7983 2.79849 -5.10876e-17)
(25.793 2.80897 -4.07908e-17)
(25.7876 2.81988 4.89939e-17)
(25.7824 2.83124 3.65781e-17)
(25.7773 2.84304 -1.84428e-17)
(25.7723 2.85527 6.56474e-17)
(25.7677 2.86794 9.37665e-17)
(25.7632 2.88103 -1.26883e-17)
(25.759 2.89451 3.13263e-17)
(25.7549 2.90838 -1.05192e-16)
(25.7508 2.92257 -5.39269e-17)
(25.7466 2.93706 1.10144e-16)
(25.7421 2.95183 -2.30863e-16)
(25.7375 2.96684 -3.11348e-17)
(25.7325 2.98209 1.18232e-16)
(25.7271 2.99744 -1.04008e-16)
(25.722 3.01092 4.40078e-17)
(25.7173 3.02269 1.10746e-17)
(25.7126 3.03538 -4.95081e-18)
(25.7077 3.04879 -1.33612e-16)
(25.702 3.06308 -1.5296e-16)
(25.6943 3.07795 -9.74422e-17)
(25.6825 3.09302 -6.76495e-17)
(25.6646 3.10932 0)
(25.6453 3.12064 2.31748e-16)
(25.63 3.15393 -1.51045e-16)
(25.661 3.12679 -1.84525e-16)
(25.6915 3.30502 1.24791e-16)
(25.8194 2.97469 1.35399e-16)
(26.1992 2.67355 -1.30655e-19)
(26.1932 2.67407 -2.34308e-19)
(26.1872 2.67436 2.82969e-19)
(26.1809 2.67486 -1.99767e-20)
(26.1745 2.67532 -4.56193e-20)
(26.1679 2.67585 -2.89946e-19)
(26.1611 2.67639 -2.2163e-19)
(26.1541 2.67697 1.10902e-19)
(26.1469 2.67759 -2.65317e-19)
(26.1396 2.67825 -4.45286e-19)
(26.1322 2.67895 0)
(26.1247 2.6797 2.98912e-19)
(26.1171 2.6805 3.78221e-19)
(26.1094 2.68136 1.36576e-19)
(26.1017 2.68226 1.44961e-19)
(26.0939 2.68323 4.88724e-19)
(26.0861 2.68426 -3.26508e-19)
(26.0783 2.68536 -3.47351e-19)
(26.0705 2.68652 8.12071e-20)
(26.0627 2.68775 9.53676e-19)
(26.0549 2.68907 -2.3867e-18)
(26.0471 2.69045 -7.18372e-19)
(26.0393 2.69192 1.9428e-19)
(26.0316 2.69349 -4.51758e-19)
(26.0239 2.69515 -1.80218e-18)
(26.0163 2.69691 -1.4329e-18)
(26.0087 2.69878 -1.75203e-18)
(26.0012 2.70075 7.8453e-19)
(25.9937 2.70286 -2.06565e-18)
(25.9863 2.7051 1.78225e-18)
(25.9789 2.70747 1.68867e-18)
(25.9716 2.70998 9.80314e-19)
(25.9643 2.71267 -6.08211e-19)
(25.957 2.7155 1.02637e-18)
(25.9499 2.71852 -7.1199e-19)
(25.9427 2.72173 -3.56981e-18)
(25.9356 2.72515 -6.70161e-18)
(25.9286 2.72878 -4.71741e-18)
(25.9217 2.73264 1.03709e-17)
(25.9148 2.73675 1.68889e-17)
(25.9078 2.7411 -9.72818e-18)
(25.901 2.74572 1.0066e-17)
(25.8942 2.75064 1.0417e-18)
(25.8875 2.75586 7.16281e-18)
(25.8809 2.76141 -1.59319e-17)
(25.8745 2.76728 2.38204e-17)
(25.8682 2.77352 -8.18365e-18)
(25.862 2.78012 2.234e-18)
(25.856 2.78712 3.47063e-17)
(25.8501 2.7945 -1.17468e-17)
(25.8443 2.80231 5.51792e-18)
(25.8386 2.81053 2.74107e-17)
(25.833 2.81917 -2.59426e-17)
(25.8273 2.82823 4.4381e-17)
(25.8217 2.83772 -2.86011e-17)
(25.8161 2.84766 1.12202e-17)
(25.8106 2.85806 4.80343e-17)
(25.8052 2.86891 -5.09994e-17)
(25.8 2.88022 -6.71402e-17)
(25.7949 2.89199 -3.56139e-17)
(25.79 2.9042 -9.3492e-17)
(25.7851 2.91684 4.5271e-17)
(25.7801 2.92988 2.22656e-17)
(25.7749 2.9433 -5.55785e-18)
(25.7696 2.95707 1.12965e-16)
(25.7639 2.97119 -9.23293e-18)
(25.7579 2.98565 -1.772e-16)
(25.7514 3.00032 9.26955e-17)
(25.7454 3.0133 6.14645e-17)
(25.7399 3.02471 -3.17282e-18)
(25.7344 3.03709 3.64316e-17)
(25.7286 3.05027 -2.68653e-18)
(25.7219 3.06438 2.83366e-17)
(25.7128 3.0791 -4.25349e-17)
(25.6993 3.09422 -1.4151e-18)
(25.68 3.11011 0)
(25.66 3.12321 -2.12472e-16)
(25.6467 3.15353 1.62496e-16)
(25.6789 3.13467 3.72916e-17)
(25.7126 3.30257 -1.18963e-16)
(25.8318 2.98384 9.01282e-17)
(26.2091 2.71991 5.2275e-20)
(26.2032 2.72022 3.81172e-21)
(26.1975 2.72037 -1.36377e-19)
(26.1917 2.72067 -3.35013e-20)
(26.1859 2.72095 -2.31823e-20)
(26.18 2.72127 -1.7398e-20)
(26.1739 2.7216 -3.8868e-20)
(26.1677 2.72197 -1.58091e-19)
(26.1614 2.72237 1.45317e-19)
(26.1549 2.7228 3.56671e-19)
(26.1483 2.72327 0)
(26.1416 2.72378 -5.48177e-20)
(26.1347 2.72434 2.03617e-19)
(26.1277 2.72493 -1.50947e-19)
(26.1206 2.72558 5.1615e-19)
(26.1134 2.72628 -6.64829e-19)
(26.1061 2.72702 5.5719e-19)
(26.0988 2.72784 -1.0932e-19)
(26.0914 2.72871 5.15713e-20)
(26.0841 2.72964 -2.94634e-19)
(26.0767 2.73065 1.30462e-18)
(26.0693 2.73172 1.24325e-18)
(26.0619 2.73287 8.51859e-20)
(26.0545 2.73411 4.98323e-19)
(26.0472 2.73543 1.73612e-18)
(26.0399 2.73684 1.43632e-18)
(26.0326 2.73836 9.50395e-19)
(26.0254 2.73996 -3.51067e-18)
(26.0182 2.74168 3.51754e-18)
(26.0111 2.74351 1.49945e-18)
(26.004 2.74546 -3.11157e-18)
(25.997 2.74752 1.75439e-19)
(25.99 2.74973 -1.2895e-18)
(25.9831 2.75206 4.25376e-18)
(25.9763 2.75455 2.75474e-18)
(25.9695 2.7572 -4.8062e-19)
(25.9627 2.76003 -6.12952e-19)
(25.9561 2.76304 2.11288e-18)
(25.9494 2.76625 1.64063e-19)
(25.9428 2.76965 -5.99261e-18)
(25.9362 2.77327 3.89995e-18)
(25.9297 2.77712 2.87996e-18)
(25.9232 2.78122 -5.85238e-18)
(25.9169 2.78559 -2.06928e-18)
(25.9107 2.79023 -2.8388e-18)
(25.9045 2.79517 -1.02547e-18)
(25.8985 2.80043 -5.08535e-18)
(25.8926 2.80601 -5.64177e-18)
(25.8867 2.81194 -2.09729e-17)
(25.881 2.81824 1.89813e-17)
(25.8754 2.82491 2.74762e-17)
(25.8698 2.83197 -2.71427e-17)
(25.8641 2.83941 3.16937e-17)
(25.8584 2.84726 -2.14645e-17)
(25.8527 2.85553 2.37642e-17)
(25.8469 2.86422 -3.96672e-17)
(25.8412 2.87338 -3.14791e-17)
(25.8356 2.88299 3.13479e-17)
(25.8301 2.89308 1.12661e-17)
(25.8247 2.90365 -1.394e-17)
(25.8193 2.91469 9.2512e-17)
(25.8139 2.92619 -5.12783e-18)
(25.8083 2.93815 8.1026e-18)
(25.8024 2.95054 2.41266e-17)
(25.7963 2.96336 7.94423e-19)
(25.7898 2.97661 9.43436e-17)
(25.783 2.99027 1.46062e-16)
(25.7756 3.00426 -7.27023e-17)
(25.7689 3.01674 -4.81976e-18)
(25.7628 3.02779 -1.30531e-17)
(25.7567 3.03984 8.05181e-18)
(25.7501 3.05275 7.92498e-18)
(25.7424 3.06664 3.92088e-17)
(25.732 3.08119 4.05395e-17)
(25.7169 3.09628 -2.55173e-17)
(25.6964 3.11186 0)
(25.6758 3.12657 -4.56568e-17)
(25.6651 3.15444 -1.64451e-16)
(25.6979 3.14328 8.90458e-17)
(25.7356 3.30212 1.61955e-16)
(25.8429 2.99527 -8.68735e-17)
(26.2178 2.76208 -6.33387e-20)
(26.2252 2.76161 5.94534e-20)
(26.2112 2.76263 -3.45796e-21)
(26.2048 2.76281 -5.88913e-21)
(26.1987 2.76311 6.67345e-20)
(26.1927 2.76335 5.88009e-20)
(26.1869 2.7636 7.80118e-20)
(26.1811 2.76383 6.82226e-20)
(26.1753 2.76408 -9.97273e-20)
(26.1694 2.76434 -1.05337e-19)
(26.1636 2.76462 -2.7153e-19)
(26.1576 2.76492 0)
(26.1516 2.76524 -7.39906e-21)
(26.1455 2.76559 -2.89339e-19)
(26.1392 2.76597 -4.14907e-19)
(26.1329 2.76638 -4.48669e-19)
(26.1264 2.76683 4.28033e-19)
(26.1199 2.76732 -2.40656e-19)
(26.1133 2.76786 4.67537e-19)
(26.1066 2.76843 1.93658e-20)
(26.0999 2.76906 2.85578e-20)
(26.0931 2.76975 -5.65553e-19)
(26.0863 2.77049 -3.73335e-19)
(26.0794 2.77129 -1.23563e-18)
(26.0726 2.77216 -4.6384e-20)
(26.0657 2.77311 8.62532e-21)
(26.0589 2.77413 9.08139e-19)
(26.0521 2.77524 6.83875e-19)
(26.0453 2.77643 6.93227e-19)
(26.0385 2.77772 -1.61269e-18)
(26.0318 2.77911 -1.82253e-19)
(26.0251 2.7806 2.42393e-18)
(26.0185 2.78219 -1.69716e-18)
(26.0119 2.7839 -3.18837e-19)
(26.0054 2.78573 -5.27774e-19)
(25.9989 2.78769 4.55583e-19)
(25.9924 2.7898 1.77836e-18)
(25.9861 2.79205 7.58483e-19)
(25.9797 2.79447 8.97644e-19)
(25.9734 2.79705 -1.22713e-18)
(25.9671 2.79981 3.10475e-19)
(25.9609 2.80277 1.41386e-18)
(25.9547 2.80593 -4.11872e-18)
(25.9487 2.80932 6.7175e-18)
(25.9427 2.81295 1.33301e-18)
(25.9368 2.81682 3.39063e-18)
(25.931 2.82096 -2.4189e-18)
(25.9253 2.82538 -9.07896e-18)
(25.9197 2.83009 -9.90269e-18)
(25.9142 2.83513 6.47409e-18)
(25.9088 2.84049 -7.65647e-18)
(25.9033 2.8462 -1.63536e-17)
(25.8978 2.85227 7.15935e-18)
(25.8923 2.8587 -6.41816e-18)
(25.8867 2.86551 3.68958e-18)
(25.881 2.87273 -2.13077e-17)
(25.8753 2.88036 3.74694e-17)
(25.8696 2.88844 -8.42452e-18)
(25.8639 2.89699 -1.80353e-17)
(25.8583 2.906 -2.72925e-17)
(25.8528 2.91551 -4.28436e-19)
(25.8471 2.9255 -2.40634e-17)
(25.8414 2.93599 7.80488e-18)
(25.8354 2.94696 -3.36043e-17)
(25.829 2.95841 -2.89606e-17)
(25.8224 2.97036 8.32544e-18)
(25.8154 2.98279 -2.90923e-17)
(25.8079 2.99571 -6.97578e-17)
(25.7999 3.00905 3.64716e-17)
(25.7926 3.02105 -4.11267e-17)
(25.7861 3.03174 8.72656e-18)
(25.7794 3.04347 -4.50859e-17)
(25.7721 3.05612 1.33304e-17)
(25.7635 3.06977 -6.0216e-17)
(25.7519 3.08416 -4.77951e-17)
(25.7353 3.09919 2.32703e-17)
(25.7137 3.1146 0)
(25.693 3.1308 6.12848e-17)
(25.685 3.15676 -4.26293e-17)
(25.7188 3.15293 1.22668e-16)
(25.76 3.30349 -9.00145e-17)
(25.8554 3.00957 -1.07617e-16)
(26.2306 2.79762 -9.68966e-20)
(26.2398 2.79766 -1.12603e-19)
(26.2224 2.79776 1.69492e-20)
(26.2145 2.79789 9.36213e-21)
(26.2072 2.79808 2.60078e-20)
(26.2002 2.79826 2.00373e-20)
(26.1935 2.79844 5.10287e-20)
(26.1872 2.79862 -2.93087e-21)
(26.181 2.7988 9.32777e-20)
(26.175 2.79899 -1.64295e-20)
(26.1691 2.79918 7.92849e-21)
(26.1633 2.79939 0)
(26.1576 2.79961 3.53173e-20)
(26.1519 2.79984 1.94396e-19)
(26.1461 2.80011 1.2264e-19)
(26.1403 2.80039 9.74131e-20)
(26.1345 2.80071 3.17431e-20)
(26.1287 2.80105 -6.97134e-20)
(26.1227 2.80143 -2.64655e-19)
(26.1167 2.80184 -7.47643e-21)
(26.1107 2.8023 1.15692e-19)
(26.1046 2.8028 -1.85924e-19)
(26.0984 2.80334 1.81516e-20)
(26.0922 2.80394 -7.42655e-20)
(26.086 2.80459 -2.81298e-19)
(26.0798 2.80531 -2.8796e-19)
(26.0735 2.80608 -8.06583e-19)
(26.0673 2.80693 -5.4168e-19)
(26.061 2.80786 1.42655e-18)
(26.0548 2.80887 3.84985e-19)
(26.0486 2.80996 -1.30993e-18)
(26.0424 2.81114 -7.48497e-19)
(26.0362 2.81241 1.91513e-18)
(26.0301 2.81378 -5.60742e-19)
(26.024 2.81525 7.95158e-19)
(26.018 2.81684 -7.62641e-19)
(26.012 2.81855 -7.18172e-19)
(26.006 2.82038 2.83596e-18)
(26.0001 2.82234 4.26432e-19)
(25.9942 2.82445 -2.11158e-18)
(25.9883 2.82672 -2.23945e-18)
(25.9825 2.82916 2.14773e-18)
(25.9768 2.83178 1.26153e-18)
(25.9712 2.8346 -3.08845e-18)
(25.9656 2.83762 4.99127e-18)
(25.9602 2.84087 -4.95743e-18)
(25.9548 2.84436 -2.72972e-18)
(25.9495 2.84809 -1.07225e-18)
(25.9443 2.85209 4.47204e-19)
(25.9391 2.85637 -2.51965e-18)
(25.934 2.86096 -9.19877e-18)
(25.9288 2.86586 1.3347e-17)
(25.9236 2.8711 -6.35331e-18)
(25.9182 2.87668 -3.65328e-18)
(25.9128 2.88262 -9.67983e-18)
(25.9073 2.88895 6.42387e-18)
(25.9018 2.89569 -1.70746e-17)
(25.8962 2.90286 5.08834e-18)
(25.8907 2.91049 1.06454e-17)
(25.8851 2.9186 1.96801e-17)
(25.8795 2.92719 -4.35191e-19)
(25.8738 2.93627 -8.31551e-18)
(25.8679 2.94586 -2.86515e-18)
(25.8616 2.95597 2.68571e-17)
(25.8551 2.96659 4.37692e-17)
(25.8481 2.97775 -9.55961e-18)
(25.8407 2.98946 -5.09803e-19)
(25.8328 3.00171 -8.09605e-18)
(25.8243 3.01446 -4.36277e-17)
(25.8166 3.02602 1.74962e-17)
(25.8097 3.0364 -1.18908e-18)
(25.8027 3.04784 3.7621e-18)
(25.7948 3.06025 6.82855e-17)
(25.7853 3.07368 3.08443e-17)
(25.7725 3.08792 2.0117e-17)
(25.7545 3.10289 2.58676e-17)
(25.732 3.11828 0)
(25.7118 3.1359 6.32761e-17)
(25.7069 3.16049 -3.12516e-18)
(25.742 3.16374 -3.14803e-17)
(25.7861 3.30659 -4.13729e-17)
(25.8692 3.02713 -9.17085e-17)
(26.2513 2.82745 -1.79216e-20)
(26.2625 2.827 4.78197e-21)
(26.241 2.82792 -7.41889e-20)
(26.2313 2.82818 2.8291e-20)
(26.2222 2.82849 5.04197e-21)
(26.2135 2.82876 -6.10886e-20)
(26.2054 2.82902 -7.527e-20)
(26.1977 2.82925 -6.36879e-20)
(26.1904 2.82947 -3.98977e-20)
(26.1835 2.82968 2.43457e-20)
(26.1769 2.82987 2.17423e-20)
(26.1705 2.83006 0)
(26.1644 2.83025 -1.15592e-19)
(26.1585 2.83043 -4.29066e-20)
(26.1527 2.83063 1.80811e-19)
(26.147 2.83083 5.58053e-20)
(26.1414 2.83104 1.52823e-19)
(26.1358 2.83126 1.78468e-19)
(26.1302 2.83151 6.27656e-20)
(26.1247 2.83177 -1.97961e-19)
(26.1192 2.83206 -1.03121e-19)
(26.1136 2.83238 2.27389e-19)
(26.108 2.83273 1.44547e-19)
(26.1024 2.83311 2.34357e-19)
(26.0967 2.83353 -6.97108e-21)
(26.0911 2.834 -1.60463e-19)
(26.0854 2.83452 -6.12512e-19)
(26.0797 2.8351 4.45372e-19)
(26.0741 2.83573 -6.25548e-19)
(26.0684 2.83644 2.72107e-19)
(26.0627 2.83721 -7.03403e-21)
(26.0571 2.83806 7.07353e-19)
(26.0514 2.839 -6.81747e-19)
(26.0458 2.84003 1.12856e-18)
(26.0403 2.84114 -2.32737e-19)
(26.0347 2.84236 -4.59886e-19)
(26.0292 2.84368 7.4824e-19)
(26.0236 2.84511 -3.80563e-19)
(26.0181 2.84667 9.78295e-19)
(26.0127 2.84836 1.06428e-18)
(26.0073 2.8502 1.23144e-18)
(26.002 2.85219 -4.23952e-19)