# static(p)_coeff  POINT_DATA 156
# x y z  static(p)_coeff
-17.5492 0.306481 0.05 -0.0651679
-17.5492 0.306481 0 -0.0651679
-17.5472 0.397851 0 -0.271872
-17.5472 0.397851 0.05 -0.271872
-17.5391 0.49775 0 -0.49931
-17.5391 0.49775 0.05 -0.49931
-17.5189 0.60624 0 -0.744526
-17.5189 0.60624 0.05 -0.744526
-17.4861 0.723342 0 -0.979585
-17.4861 0.723342 0.05 -0.979585
-17.44 0.848679 0 -1.20702
-17.44 0.848679 0.05 -1.20702
-17.377 0.981445 0 -1.42456
-17.377 0.981445 0.05 -1.42456
-17.2959 1.12134 0 -1.61326
-17.2959 1.12134 0.05 -1.61326
-17.1951 1.26784 0 -1.77435
-17.1951 1.26784 0.05 -1.77435
-17.0722 1.42 0 -1.9084
-17.0722 1.42 0.05 -1.9084
-16.9255 1.57744 0 -2.01246
-16.9255 1.57744 0.05 -2.01246
-16.7528 1.73942 0 -2.09096
-16.7528 1.73942 0.05 -2.09096
-16.5519 1.90501 0 -2.1476
-16.5519 1.90501 0.05 -2.1476
-16.3202 2.07341 0 -2.18527
-16.3202 2.07341 0.05 -2.18527
-16.0549 2.24347 0 -2.20539
-16.0549 2.24347 0.05 -2.20539
-15.753 2.41374 0 -2.20734
-15.753 2.41374 0.05 -2.20734
-15.4112 2.58276 0 -2.19138
-15.4112 2.58276 0.05 -2.19138
-15.0259 2.74838 0 -2.15741
-15.0259 2.74838 0.05 -2.15741
-14.5933 2.90861 0 -2.10575
-14.5933 2.90861 0.05 -2.10575
-14.1092 3.06066 0 -2.03849
-14.1092 3.06066 0.05 -2.03849
-13.5691 3.20201 0 -1.96003
-13.5691 3.20201 0.05 -1.96003
-12.9684 3.32943 0 -1.87924
-12.9684 3.32943 0.05 -1.87924
-12.3022 3.44054 0 -1.80443
-12.3022 3.44054 0.05 -1.80443
-11.5649 3.53289 0 -1.72961
-11.5649 3.53289 0.05 -1.72961
-10.7508 3.60555 0 -1.63079
-10.7508 3.60555 0.05 -1.63079
-9.85332 3.65883 0 -1.49741
-9.85332 3.65883 0.05 -1.49741
-8.86484 3.69086 0 -1.34621
-8.86484 3.69086 0.05 -1.34621
-7.77697 3.69778 0 -1.20249
-7.77697 3.69778 0.05 -1.20249
-6.58048 3.6759 0 -1.07758
-6.58048 3.6759 0.05 -1.07758
-5.26526 3.62108 0 -0.965515
-5.26526 3.62108 0.05 -0.965515
-3.82021 3.52882 0 -0.857677
-3.82021 3.52882 0.05 -0.857677
-2.23308 3.39439 0 -0.750916
-2.23308 3.39439 0.05 -0.750916
-0.490443 3.2127 0 -0.645088
-0.490443 3.2127 0.05 -0.645088
1.42254 2.97825 0 -0.539766
1.42254 2.97825 0.05 -0.539766
3.5222 2.68501 0 -0.433841
3.5222 2.68501 0.05 -0.433841
5.82644 2.32599 0 -0.325241
5.82644 2.32599 0.05 -0.325241
8.3548 1.89256 0 -0.212958
8.3548 1.89256 0.05 -0.212958
11.1283 1.37286 0 -0.0904121
11.1283 1.37286 0.05 -0.0904121
14.1695 0.751658 0 0.026813
14.1695 0.751658 0.05 0.026813
17.5 -5.0487e-06 0 0.118572
17.5 -5.0487e-06 0.05 0.118572
-17.5422 0.216644 0.05 0.131377
-17.5422 0.216644 0 0.131377
-17.529 0.118651 0.05 0.328221
-17.529 0.118651 0 0.328221
-17.5035 0.0128145 0.05 0.524922
-17.5035 0.0128145 0 0.524922
-17.4639 -0.100298 0.05 0.701159
-17.4639 -0.100298 0 0.701159
-17.4081 -0.21963 0.05 0.843784
-17.4081 -0.21963 0 0.843784
-17.3329 -0.343474 0.05 0.941346
-17.3329 -0.343474 0 0.941346
-17.2353 -0.469453 0.05 0.989439
-17.2353 -0.469453 0 0.989439
-17.1135 -0.595699 0.05 0.997582
-17.1135 -0.595699 0 0.997582
-16.967 -0.721197 0.05 0.974465
-16.967 -0.721197 0 0.974465
-16.7942 -0.84439 0.05 0.923876
-16.7942 -0.84439 0 0.923876
-16.5941 -0.964642 0.05 0.857667
-16.5941 -0.964642 0 0.857667
-16.3659 -1.08228 0.05 0.787787
-16.3659 -1.08228 0 0.787787
-16.1079 -1.19749 0.05 0.719046
-16.1079 -1.19749 0 0.719046
-15.8184 -1.31053 0.05 0.653596
-15.8184 -1.31053 0 0.653596
-15.4954 -1.42239 0.05 0.592208
-15.4954 -1.42239 0 0.592208
-15.1361 -1.53339 0.05 0.534679
-15.1361 -1.53339 0 0.534679
-14.7376 -1.64422 0.05 0.480475
-14.7376 -1.64422 0 0.480475
-14.2963 -1.75519 0.05 0.428531
-14.2963 -1.75519 0 0.428531
-13.8084 -1.86663 0.05 0.377742
-13.8084 -1.86663 0 0.377742
-13.2692 -1.97821 0.05 0.327253
-13.2692 -1.97821 0 0.327253
-12.6739 -2.08937 0.05 0.276561
-12.6739 -2.08937 0 0.276561
-12.0167 -2.19857 0.05 0.225302
-12.0167 -2.19857 0 0.225302
-11.2914 -2.30322 0.05 0.174212
-11.2914 -2.30322 0 0.174212
-10.491 -2.39854 0.05 0.126574
-10.491 -2.39854 0 0.126574
-9.60806 -2.48004 0.05 0.0867572
-9.60806 -2.48004 0 0.0867572
-8.63486 -2.54503 0.05 0.0548759
-8.63486 -2.54503 0 0.0548759
-7.56293 -2.59043 0.05 0.0288732
-7.56293 -2.59043 0 0.0288732
-6.38295 -2.61298 0.05 0.00856245
-6.38295 -2.61298 0 0.00856245
-5.08474 -2.60901 0.05 -0.00582492
-5.08474 -2.60901 0 -0.00582492
-3.65712 -2.57462 0.05 -0.0146993
-3.65712 -2.57462 0 -0.0146993
-2.08779 -2.50566 0.05 -0.0186529
-2.08779 -2.50566 0 -0.0186529
-0.363235 -2.39771 0.05 -0.018027
-0.363235 -2.39771 0 -0.018027
1.53142 -2.24595 0.05 -0.0129562
1.53142 -2.24595 0 -0.0129562
3.61256 -2.0451 0.05 -0.00343504
3.61256 -2.0451 0 -0.00343504
5.89814 -1.78898 0.05 0.0110559
5.89814 -1.78898 0 0.0110559
8.40781 -1.46986 0.05 0.0318905
8.40781 -1.46986 0 0.0318905
11.1628 -1.07688 0.05 0.0645679
11.1628 -1.07688 0 0.0645679
14.1859 -0.596043 0.05 0.119956
14.1859 -0.596043 0 0.119956
