/*--------------------------------*- C++ -*----------------------------------*\
| =========                 |                                                 |
| \\      /  F ield         | OpenFOAM: The Open Source CFD Toolbox           |
|  \\    /   O peration     | Version:  2506                                  |
|   \\  /    A nd           | Website:  www.openfoam.com                      |
|    \\/     M anipulation  |                                                 |
\*---------------------------------------------------------------------------*/
FoamFile
{
    version     2.0;
    format      ascii;
    arch        "LSB;label=32;scalar=64";
    class       volScalarField;
    location    "150";
    object      nuTilda;
}
// * * * * * * * * * * * * * * * * * * * * * * * * * * * * * * * * * * * * * //

dimensions      [0 2 -1 0 0 0 0];

internalField   nonuniform List<scalar> 
1340
(
4.12794e-05
4.39725e-05
4.83833e-05
5.44462e-05
6.26399e-05
7.37705e-05
8.92054e-05
0.000110883
0.000142015
0.000187763
0.000256832
0.000364746
0.000538019
0.000832297
0.00133847
0.00230338
0.00409027
0.00806957
0.0160763
0.0360108
0.0707416
0.0965136
0.106978
0.110006
0.110851
0.110896
0.110351
0.109303
3.97637e-05
3.99781e-05
3.98098e-05
3.94955e-05
3.90916e-05
3.86109e-05
3.80604e-05
3.74352e-05
3.66982e-05
3.58258e-05
3.47252e-05
3.3329e-05
3.14326e-05
2.88101e-05
2.49416e-05
1.94465e-05
1.15651e-05
4.35098e-06
1.44891e-05
0.000134055
0.00069808
0.00492922
0.0155966
0.0305836
0.0455964
0.0567225
0.0632851
0.0669311
0.0692383
4.013e-05
4.01069e-05
4.01239e-05
4.01592e-05
4.02023e-05
4.02472e-05
4.03012e-05
4.03609e-05
4.04278e-05
4.05012e-05
4.05837e-05
4.06777e-05
4.07896e-05
4.0925e-05
4.10974e-05
4.13187e-05
4.16215e-05
4.19545e-05
4.23278e-05
4.18348e-05
4.16862e-05
3.05258e-05
0.000137361
0.000929012
0.00337728
0.00818497
0.0151749
0.0235841
0.0324451
4.00533e-05
4.00587e-05
4.00649e-05
4.0065e-05
4.00626e-05
4.00585e-05
4.00543e-05
4.00509e-05
4.00474e-05
4.00437e-05
4.00396e-05
4.00342e-05
4.0029e-05
4.00241e-05
4.00193e-05
4.00141e-05
4.00082e-05
4.00006e-05
3.99943e-05
3.99863e-05
4.00029e-05
3.99694e-05
4.021e-05
3.95324e-05
4.13974e-05
3.31795e-05
3.49074e-05
0.000268254
0.00117794
0.00333577
4.0067e-05
4.0067e-05
4.00685e-05
4.00715e-05
4.0075e-05
4.0079e-05
4.00835e-05
4.00881e-05
4.00925e-05
4.00974e-05
4.01025e-05
4.01082e-05
4.01144e-05
4.01212e-05
4.01284e-05
4.01362e-05
4.01446e-05
4.01537e-05
4.01637e-05
4.01763e-05
4.01864e-05
4.02194e-05
4.0164e-05
4.05213e-05
3.90633e-05
4.57326e-05
1.61593e-05
7.09037e-05
0.000283612
0.000119153
4.00598e-05
4.00607e-05
4.00622e-05
4.00655e-05
4.00695e-05
4.0073e-05
4.00762e-05
4.00792e-05
4.00821e-05
4.00848e-05
4.00876e-05
4.00904e-05
4.00934e-05
4.00965e-05
4.00997e-05
4.0103e-05
4.01063e-05
4.01096e-05
4.01128e-05
4.01158e-05
4.01185e-05
4.0121e-05
4.01226e-05
4.01256e-05
4.01249e-05
4.01354e-05
4.01228e-05
4.00793e-05
3.98469e-05
3.25764e-05
3.6088e-05
4.00594e-05
4.00593e-05
4.00614e-05
4.0065e-05
4.00688e-05
4.00721e-05
4.00753e-05
4.00783e-05
4.00812e-05
4.00839e-05
4.00867e-05
4.00896e-05
4.00927e-05
4.0096e-05
4.00997e-05
4.01036e-05
4.0108e-05
4.01126e-05
4.01177e-05
4.01232e-05
4.01295e-05
4.01366e-05
4.01449e-05
4.01544e-05
4.01653e-05
4.01786e-05
4.0192e-05
4.02255e-05
4.01663e-05
3.96048e-05
3.39429e-05
4.0058e-05
4.00575e-05
4.006e-05
4.00635e-05
4.00671e-05
4.00702e-05
4.00732e-05
4.00761e-05
4.00788e-05
4.00813e-05
4.00839e-05
4.00865e-05
4.00893e-05
4.00923e-05
4.00955e-05
4.00989e-05
4.01026e-05
4.01065e-05
4.01106e-05
4.0115e-05
4.01197e-05
4.01247e-05
4.01302e-05
4.01361e-05
4.01423e-05
4.01487e-05
4.01564e-05
4.01597e-05
4.01744e-05
4.01724e-05
4.03844e-05
4.00604e-05
4.00566e-05
4.00562e-05
4.00585e-05
4.00618e-05
4.00651e-05
4.00681e-05
4.00709e-05
4.00736e-05
4.00763e-05
4.00787e-05
4.00812e-05
4.00838e-05
4.00865e-05
4.00893e-05
4.00923e-05
4.00956e-05
4.00992e-05
4.0103e-05
4.01072e-05
4.01117e-05
4.01167e-05
4.01223e-05
4.01286e-05
4.01357e-05
4.01436e-05
4.01526e-05
4.01627e-05
4.01741e-05
4.01876e-05
4.01926e-05
4.02577e-05
4.0055e-05
4.00546e-05
4.00568e-05
4.00599e-05
4.0063e-05
4.00658e-05
4.00685e-05
4.00711e-05
4.00736e-05
4.0076e-05
4.00785e-05
4.00809e-05
4.00835e-05
4.00861e-05
4.0089e-05
4.0092e-05
4.00952e-05
4.00987e-05
4.01025e-05
4.01067e-05
4.01112e-05
4.01162e-05
4.01217e-05
4.01279e-05
4.01347e-05
4.01422e-05
4.01504e-05
4.01598e-05
4.01683e-05
4.01871e-05
4.01628e-05
4.00531e-05
4.0055e-05
4.00579e-05
4.00608e-05
4.00634e-05
4.0066e-05
4.00685e-05
4.0071e-05
4.00734e-05
4.00757e-05
4.00781e-05
4.00805e-05
4.0083e-05
4.00856e-05
4.00883e-05
4.00913e-05
4.00945e-05
4.0098e-05
4.01019e-05
4.01061e-05
4.01109e-05
4.01162e-05
4.01223e-05
4.0129e-05
4.01366e-05
4.01449e-05
4.01547e-05
4.01636e-05
4.01826e-05
4.01628e-05
4.00532e-05
4.00559e-05
4.00586e-05
4.0061e-05
4.00635e-05
4.0066e-05
4.00684e-05
4.00707e-05
4.00729e-05
4.00751e-05
4.00774e-05
4.00797e-05
4.00821e-05
4.00846e-05
4.00873e-05
4.00902e-05
4.00934e-05
4.0097e-05
4.0101e-05
4.01054e-05
4.01104e-05
4.01161e-05
4.01224e-05
4.01294e-05
4.01372e-05
4.0146e-05
4.01551e-05
4.01684e-05
4.0171e-05
4.00539e-05
4.00564e-05
4.00588e-05
4.00612e-05
4.00635e-05
4.00658e-05
4.00679e-05
4.00701e-05
4.00721e-05
4.00742e-05
4.00763e-05
4.00785e-05
4.00809e-05
4.00834e-05
4.00861e-05
4.00892e-05
4.00926e-05
4.00964e-05
4.01007e-05
4.01055e-05
4.0111e-05
4.0117e-05
4.01238e-05
4.01314e-05
4.01398e-05
4.01493e-05
4.01597e-05
4.01722e-05
4.00541e-05
4.00566e-05
4.00588e-05
4.0061e-05
4.00632e-05
4.00652e-05
4.00672e-05
4.00691e-05
4.00711e-05
4.0073e-05
4.00751e-05
4.00774e-05
4.00798e-05
4.00824e-05
4.00854e-05
4.00887e-05
4.00924e-05
4.00965e-05
4.01011e-05
4.01062e-05
4.0112e-05
4.01184e-05
4.01256e-05
4.01336e-05
4.01426e-05
4.01524e-05
4.01651e-05
4.00543e-05
4.00565e-05
4.00586e-05
4.00606e-05
4.00625e-05
4.00643e-05
4.00662e-05
4.00681e-05
4.007e-05
4.00721e-05
4.00743e-05
4.00766e-05
4.00792e-05
4.00819e-05
4.0085e-05
4.00884e-05
4.00923e-05
4.00965e-05
4.01013e-05
4.01067e-05
4.01127e-05
4.01194e-05
4.0127e-05
4.01355e-05
4.0145e-05
4.01563e-05
4.0052e-05
4.00543e-05
4.00563e-05
4.00581e-05
4.00599e-05
4.00617e-05
4.00635e-05
4.00654e-05
4.00673e-05
4.00693e-05
4.00713e-05
4.00735e-05
4.00759e-05
4.00784e-05
4.00812e-05
4.00843e-05
4.00877e-05
4.00916e-05
4.0096e-05
4.01008e-05
4.01064e-05
4.01126e-05
4.01195e-05
4.01274e-05
4.01364e-05
4.01467e-05
4.00522e-05
4.00539e-05
4.00557e-05
4.00574e-05
4.00592e-05
4.0061e-05
4.00628e-05
4.00646e-05
4.00665e-05
4.00684e-05
4.00704e-05
4.00725e-05
4.00747e-05
4.00772e-05
4.008e-05
4.00831e-05
4.00866e-05
4.00906e-05
4.00951e-05
4.01001e-05
4.01058e-05
4.01123e-05
4.01196e-05
4.01279e-05
4.01375e-05
4.00499e-05
4.00518e-05
4.00535e-05
4.00552e-05
4.00569e-05
4.00586e-05
4.00602e-05
4.00619e-05
4.00636e-05
4.00653e-05
4.00671e-05
4.0069e-05
4.0071e-05
4.00733e-05
4.00758e-05
4.00787e-05
4.0082e-05
4.00857e-05
4.00899e-05
4.00946e-05
4.00999e-05
4.01059e-05
4.01127e-05
4.01204e-05
4.01293e-05
4.00498e-05
4.00515e-05
4.0053e-05
4.00546e-05
4.00561e-05
4.00576e-05
4.00592e-05
4.00607e-05
4.00623e-05
4.00639e-05
4.00657e-05
4.00676e-05
4.00697e-05
4.00721e-05
4.00749e-05
4.0078e-05
4.00815e-05
4.00854e-05
4.00899e-05
4.00948e-05
4.01005e-05
4.01068e-05
4.0114e-05
4.01223e-05
4.00479e-05
4.00494e-05
4.00508e-05
4.00523e-05
4.00537e-05
4.00551e-05
4.00565e-05
4.0058e-05
4.00595e-05
4.00611e-05
4.00627e-05
4.00645e-05
4.00666e-05
4.00689e-05
4.00715e-05
4.00744e-05
4.00777e-05
4.00814e-05
4.00855e-05
4.00902e-05
4.00954e-05
4.01013e-05
4.01081e-05
4.01158e-05
4.00459e-05
4.00474e-05
4.00488e-05
4.00502e-05
4.00515e-05
4.00528e-05
4.00541e-05
4.00555e-05
4.00569e-05
4.00585e-05
4.00601e-05
4.00618e-05
4.00637e-05
4.00659e-05
4.00683e-05
4.0071e-05
4.0074e-05
4.00774e-05
4.00811e-05
4.00854e-05
4.00902e-05
4.00957e-05
4.0102e-05
4.01092e-05
4.00456e-05
4.00469e-05
4.00481e-05
4.00494e-05
4.00506e-05
4.00519e-05
4.00532e-05
4.00546e-05
4.00561e-05
4.00576e-05
4.00592e-05
4.00609e-05
4.00629e-05
4.0065e-05
4.00675e-05
4.00702e-05
4.00733e-05
4.00767e-05
4.00806e-05
4.0085e-05
4.00901e-05
4.00958e-05
4.01025e-05
4.00437e-05
4.0045e-05
4.00462e-05
4.00474e-05
4.00486e-05
4.00498e-05
4.00511e-05
4.00524e-05
4.00537e-05
4.00551e-05
4.00565e-05
4.00581e-05
4.00598e-05
4.00618e-05
4.00641e-05
4.00666e-05
4.00694e-05
4.00726e-05
4.00762e-05
4.00803e-05
4.00849e-05
4.00902e-05
4.00964e-05
4.00433e-05
4.00445e-05
4.00456e-05
4.00467e-05
4.00478e-05
4.0049e-05
4.00501e-05
4.00513e-05
4.00525e-05
4.00539e-05
4.00553e-05
4.0057e-05
4.00589e-05
4.0061e-05
4.00634e-05
4.0066e-05
4.0069e-05
4.00724e-05
4.00762e-05
4.00804e-05
4.00854e-05
4.00911e-05
4.00417e-05
4.00427e-05
4.00438e-05
4.00448e-05
4.00458e-05
4.00469e-05
4.00479e-05
4.00491e-05
4.00502e-05
4.00515e-05
4.00529e-05
4.00545e-05
4.00563e-05
4.00583e-05
4.00605e-05
4.00629e-05
4.00656e-05
4.00687e-05
4.00721e-05
4.0076e-05
4.00806e-05
4.00859e-05
4.00401e-05
4.00411e-05
4.00421e-05
4.0043e-05
4.0044e-05
4.0045e-05
4.0046e-05
4.00471e-05
4.00482e-05
4.00494e-05
4.00507e-05
4.00521e-05
4.00537e-05
4.00555e-05
4.00574e-05
4.00596e-05
4.0062e-05
4.00648e-05
4.00679e-05
4.00714e-05
4.00755e-05
4.00803e-05
4.00397e-05
4.00405e-05
4.00414e-05
4.00423e-05
4.00433e-05
4.00442e-05
4.00452e-05
4.00462e-05
4.00473e-05
4.00484e-05
4.00497e-05
4.00511e-05
4.00527e-05
4.00544e-05
4.00564e-05
4.00586e-05
4.0061e-05
4.00639e-05
4.00671e-05
4.00708e-05
4.00751e-05
4.00384e-05
4.00391e-05
4.004e-05
4.00408e-05
4.00416e-05
4.00424e-05
4.00433e-05
4.00442e-05
4.00451e-05
4.00462e-05
4.00473e-05
4.00486e-05
4.00501e-05
4.00517e-05
4.00535e-05
4.00555e-05
4.00578e-05
4.00604e-05
4.00633e-05
4.00667e-05
4.00706e-05
4.00372e-05
4.00379e-05
4.00386e-05
4.00393e-05
4.004e-05
4.00408e-05
4.00416e-05
4.00424e-05
4.00432e-05
4.00442e-05
4.00452e-05
4.00464e-05
4.00478e-05
4.00493e-05
4.0051e-05
4.00528e-05
4.00549e-05
4.00573e-05
4.006e-05
4.0063e-05
4.00666e-05
4.00368e-05
4.00374e-05
4.0038e-05
4.00386e-05
4.00393e-05
4.004e-05
4.00407e-05
4.00415e-05
4.00424e-05
4.00433e-05
4.00445e-05
4.00457e-05
4.00471e-05
4.00486e-05
4.00503e-05
4.00522e-05
4.00544e-05
4.00568e-05
4.00596e-05
4.00629e-05
4.00358e-05
4.00363e-05
4.00369e-05
4.00374e-05
4.0038e-05
4.00386e-05
4.00392e-05
4.00399e-05
4.00407e-05
4.00416e-05
4.00426e-05
4.00437e-05
4.0045e-05
4.00463e-05
4.00478e-05
4.00495e-05
4.00515e-05
4.00537e-05
4.00562e-05
4.00592e-05
4.00354e-05
4.00358e-05
4.00363e-05
4.00368e-05
4.00373e-05
4.00379e-05
4.00385e-05
4.00392e-05
4.00399e-05
4.00408e-05
4.00418e-05
4.00429e-05
4.00441e-05
4.00454e-05
4.00469e-05
4.00487e-05
4.00506e-05
4.00529e-05
4.00555e-05
4.00346e-05
4.00349e-05
4.00353e-05
4.00357e-05
4.00362e-05
4.00366e-05
4.00371e-05
4.00377e-05
4.00383e-05
4.00391e-05
4.00399e-05
4.00409e-05
4.0042e-05
4.00432e-05
4.00446e-05
4.00462e-05
4.00479e-05
4.005e-05
4.00523e-05
4.00339e-05
4.00341e-05
4.00344e-05
4.00347e-05
4.0035e-05
4.00354e-05
4.00358e-05
4.00363e-05
4.00369e-05
4.00375e-05
4.00383e-05
4.00392e-05
4.00402e-05
4.00413e-05
4.00425e-05
4.00439e-05
4.00455e-05
4.00473e-05
4.00494e-05
4.00334e-05
4.00335e-05
4.00337e-05
4.0034e-05
4.00343e-05
4.00347e-05
4.00351e-05
4.00356e-05
4.00361e-05
4.00368e-05
4.00375e-05
4.00384e-05
4.00393e-05
4.00404e-05
4.00416e-05
4.0043e-05
4.00446e-05
4.00465e-05
4.00326e-05
4.00327e-05
4.00329e-05
4.00331e-05
4.00333e-05
4.00336e-05
4.00339e-05
4.00343e-05
4.00347e-05
4.00352e-05
4.00359e-05
4.00366e-05
4.00374e-05
4.00384e-05
4.00395e-05
4.00407e-05
4.00421e-05
4.00438e-05
4.0032e-05
4.0032e-05
4.00321e-05
4.00322e-05
4.00324e-05
4.00325e-05
4.00327e-05
4.0033e-05
4.00334e-05
4.00339e-05
4.00344e-05
4.00351e-05
4.00358e-05
4.00366e-05
4.00376e-05
4.00387e-05
4.00399e-05
4.00414e-05
4.00314e-05
4.00313e-05
4.00314e-05
4.00314e-05
4.00315e-05
4.00317e-05
4.00319e-05
4.00322e-05
4.00326e-05
4.00331e-05
4.00336e-05
4.00342e-05
4.00349e-05
4.00357e-05
4.00367e-05
4.00378e-05
4.00391e-05
4.00307e-05
4.00306e-05
4.00306e-05
4.00306e-05
4.00307e-05
4.00307e-05
4.00308e-05
4.0031e-05
4.00313e-05
4.00317e-05
4.00321e-05
4.00326e-05
4.00332e-05
4.00339e-05
4.00347e-05
4.00357e-05
4.00301e-05
4.003e-05
4.00299e-05
4.00298e-05
4.00297e-05
4.00297e-05
4.00298e-05
4.00299e-05
4.00301e-05
4.00304e-05
4.00307e-05
4.00311e-05
4.00316e-05
4.00323e-05
4.0033e-05
4.00338e-05
4.00293e-05
4.00291e-05
4.00289e-05
4.00288e-05
4.00287e-05
4.00287e-05
4.00288e-05
4.00289e-05
4.00291e-05
4.00294e-05
4.00298e-05
4.00302e-05
4.00307e-05
4.00313e-05
4.0032e-05
4.00285e-05
4.00282e-05
4.00281e-05
4.00279e-05
4.00278e-05
4.00277e-05
4.00277e-05
4.00278e-05
4.00279e-05
4.00281e-05
4.00283e-05
4.00287e-05
4.00291e-05
4.00296e-05
4.00302e-05
4.00277e-05
4.00275e-05
4.00272e-05
4.0027e-05
4.00268e-05
4.00266e-05
4.00266e-05
4.00266e-05
4.00266e-05
4.00268e-05
4.0027e-05
4.00272e-05
4.00276e-05
4.0028e-05
4.00285e-05
4.00266e-05
4.00263e-05
4.0026e-05
4.00257e-05
4.00256e-05
4.00255e-05
4.00254e-05
4.00254e-05
4.00255e-05
4.00256e-05
4.00259e-05
4.00261e-05
4.00265e-05
4.0027e-05
4.00256e-05
4.00253e-05
4.0025e-05
4.00247e-05
4.00245e-05
4.00243e-05
4.00242e-05
4.00242e-05
4.00242e-05
4.00243e-05
4.00244e-05
4.00246e-05
4.00249e-05
4.00253e-05
4.00247e-05
4.00243e-05
4.0024e-05
4.00237e-05
4.00234e-05
4.00232e-05
4.0023e-05
4.00229e-05
4.00229e-05
4.00229e-05
4.0023e-05
4.00231e-05
4.00234e-05
4.00236e-05
4.00233e-05
4.00229e-05
4.00225e-05
4.00222e-05
4.0022e-05
4.00218e-05
4.00216e-05
4.00216e-05
4.00216e-05
4.00216e-05
4.00217e-05
4.00219e-05
4.00222e-05
4.00222e-05
4.00218e-05
4.00214e-05
4.00211e-05
4.00208e-05
4.00206e-05
4.00204e-05
4.00203e-05
4.00203e-05
4.00203e-05
4.00203e-05
4.00205e-05
4.00207e-05
4.00212e-05
4.00207e-05
4.00203e-05
4.002e-05
4.00197e-05
4.00194e-05
4.00192e-05
4.00191e-05
4.0019e-05
4.00189e-05
4.00189e-05
4.00189e-05
4.00191e-05
4.00201e-05
4.00197e-05
4.00192e-05
4.00188e-05
4.00185e-05
4.00182e-05
4.00179e-05
4.00177e-05
4.00176e-05
4.00175e-05
4.00174e-05
4.00174e-05
4.00175e-05
4.00186e-05
4.00181e-05
4.00177e-05
4.00173e-05
4.00169e-05
4.00166e-05
4.00164e-05
4.00162e-05
4.00161e-05
4.0016e-05
4.00159e-05
4.00159e-05
4.00175e-05
4.0017e-05
4.00165e-05
4.00161e-05
4.00157e-05
4.00153e-05
4.00151e-05
4.00148e-05
4.00146e-05
4.00145e-05
4.00144e-05
4.00144e-05
4.00163e-05
4.00158e-05
4.00153e-05
4.00148e-05
4.00143e-05
4.00139e-05
4.00136e-05
4.00134e-05
4.00132e-05
4.0013e-05
4.00129e-05
4.00149e-05
4.00143e-05
4.00137e-05
4.00132e-05
4.00128e-05
4.00124e-05
4.00121e-05
4.00118e-05
4.00116e-05
4.00115e-05
4.00114e-05
4.00125e-05
4.0012e-05
4.00115e-05
4.00111e-05
4.00108e-05
4.00106e-05
4.00104e-05
4.00103e-05
4.00103e-05
4.00103e-05
4.00106e-05
4.00102e-05
4.00099e-05
4.00096e-05
4.00095e-05
4.00094e-05
4.00094e-05
4.00094e-05
4.00095e-05
4.00096e-05
4.00091e-05
4.00089e-05
4.00087e-05
4.00087e-05
4.00088e-05
4.00089e-05
4.0009e-05
4.00092e-05
4.00094e-05
4.00096e-05
4.00082e-05
4.00082e-05
4.00083e-05
4.00085e-05
4.00087e-05
4.0009e-05
4.00092e-05
4.00095e-05
4.00098e-05
4.00102e-05
4.00081e-05
4.00083e-05
4.00086e-05
4.00089e-05
4.00093e-05
4.00096e-05
4.001e-05
4.00104e-05
4.00107e-05
4.00111e-05
4.00091e-05
4.00095e-05
4.00099e-05
4.00103e-05
4.00108e-05
4.00112e-05
4.00116e-05
4.00121e-05
4.00125e-05
4.00104e-05
4.00109e-05
4.00114e-05
4.0012e-05
4.00125e-05
4.0013e-05
4.00135e-05
4.0014e-05
4.00145e-05
4.00123e-05
4.0013e-05
4.00137e-05
4.00144e-05
4.0015e-05
4.00156e-05
4.00162e-05
4.00168e-05
4.00153e-05
4.00161e-05
4.0017e-05
4.00178e-05
4.00186e-05
4.00194e-05
4.00201e-05
4.00208e-05
4.00192e-05
4.00203e-05
4.00214e-05
4.00224e-05
4.00234e-05
4.00243e-05
4.00251e-05
4.00259e-05
4.00242e-05
4.00256e-05
4.00268e-05
4.0028e-05
4.00291e-05
4.00302e-05
4.00312e-05
4.00321e-05
4.00315e-05
4.00329e-05
4.00342e-05
4.00354e-05
4.00366e-05
4.00377e-05
4.00387e-05
4.00377e-05
4.00392e-05
4.00406e-05
4.00419e-05
4.00432e-05
4.00443e-05
4.00454e-05
4.00429e-05
4.00444e-05
4.00458e-05
4.00472e-05
4.00485e-05
4.00497e-05
4.00509e-05
4.00465e-05
4.0048e-05
4.00494e-05
4.00508e-05
4.00521e-05
4.00533e-05
4.00545e-05
4.00496e-05
4.0051e-05
4.00523e-05
4.00536e-05
4.00548e-05
4.0056e-05
4.00571e-05
4.0052e-05
4.00533e-05
4.00545e-05
4.00557e-05
4.00569e-05
4.0058e-05
4.00591e-05
4.00537e-05
4.0055e-05
4.00562e-05
4.00574e-05
4.00586e-05
4.00598e-05
4.00559e-05
4.00573e-05
4.00587e-05
4.00601e-05
4.00615e-05
4.00629e-05
4.006e-05
4.00618e-05
4.00637e-05
4.00656e-05
4.00674e-05
4.00692e-05
4.00697e-05
4.00722e-05
4.00746e-05
4.00769e-05
4.00792e-05
4.00781e-05
4.00806e-05
4.0083e-05
4.00854e-05
4.00877e-05
4.00781e-05
4.00797e-05
4.00813e-05
4.00827e-05
4.00841e-05
4.00643e-05
4.00655e-05
4.00669e-05
4.00683e-05
4.00698e-05
4.00583e-05
4.00628e-05
4.00675e-05
4.00724e-05
4.00775e-05
4.00619e-05
4.00652e-05
4.00681e-05
4.00709e-05
4.00735e-05
)
;

boundaryField
{
    inlet
    {
        type            freestream;
        freestreamValue uniform 4e-05;
        value           uniform 4e-05;
    }
    outlet
    {
        type            freestream;
        freestreamValue nonuniform List<scalar> 0();
        value           nonuniform List<scalar> 0();
    }
    walls
    {
        type            fixedValue;
        value           uniform 0;
    }
    frontAndBack
    {
        type            empty;
    }
    procBoundary1to0
    {
        type            processor;
        value           nonuniform List<scalar> 
94
(
4.00584e-05
4.00584e-05
4.00534e-05
4.00534e-05
4.00515e-05
4.00515e-05
4.00515e-05
4.00515e-05
4.00519e-05
4.00519e-05
4.00521e-05
4.00521e-05
4.00502e-05
4.005e-05
4.005e-05
4.00483e-05
4.00479e-05
4.00479e-05
4.00462e-05
4.00445e-05
4.00441e-05
4.00441e-05
4.00426e-05
4.0042e-05
4.0042e-05
4.00406e-05
4.00393e-05
4.00387e-05
4.00387e-05
4.00376e-05
4.00367e-05
4.00363e-05
4.00363e-05
4.00355e-05
4.00351e-05
4.00351e-05
4.00344e-05
4.00338e-05
4.00333e-05
4.00333e-05
4.00327e-05
4.00321e-05
4.00315e-05
4.00315e-05
4.00309e-05
4.00304e-05
4.00296e-05
4.00296e-05
4.00289e-05
4.00281e-05
4.0027e-05
4.0027e-05
4.00261e-05
4.00252e-05
4.00238e-05
4.00238e-05
4.00228e-05
4.00217e-05
4.00207e-05
4.00192e-05
4.00192e-05
4.00181e-05
4.0017e-05
4.00155e-05
4.00132e-05
4.00132e-05
4.00112e-05
4.00094e-05
4.00083e-05
4.00079e-05
4.00086e-05
4.00086e-05
4.00098e-05
4.00116e-05
4.00143e-05
4.00181e-05
4.00229e-05
4.00299e-05
4.00299e-05
4.00361e-05
4.00412e-05
4.00449e-05
4.00481e-05
4.00506e-05
4.00524e-05
4.00544e-05
4.00581e-05
4.00673e-05
4.00673e-05
4.00755e-05
4.00763e-05
4.00631e-05
4.00541e-05
4.00585e-05
)
;
    }
    procBoundary1to2
    {
        type            processor;
        value           nonuniform List<scalar> 
84
(
0.107869
0.0711757
0.0409388
0.00742295
0.000368302
9.02418e-05
1.61105e-05
3.80386e-05
4.04462e-05
4.03259e-05
4.03176e-05
4.02235e-05
4.01816e-05
4.01727e-05
4.01674e-05
4.01587e-05
4.01487e-05
4.01396e-05
4.01319e-05
4.01249e-05
4.01178e-05
4.01105e-05
4.01037e-05
4.00979e-05
4.00922e-05
4.00862e-05
4.00804e-05
4.00753e-05
4.0071e-05
4.00669e-05
4.00628e-05
4.00588e-05
4.00553e-05
4.00521e-05
4.00488e-05
4.00459e-05
4.00433e-05
4.00407e-05
4.00368e-05
4.00368e-05
4.00348e-05
4.00329e-05
4.0031e-05
4.00292e-05
4.00275e-05
4.00257e-05
4.0024e-05
4.00225e-05
4.00209e-05
4.00192e-05
4.00176e-05
4.0016e-05
4.00144e-05
4.00129e-05
4.00129e-05
4.00114e-05
4.00103e-05
4.00098e-05
4.00099e-05
4.00105e-05
4.00115e-05
4.0013e-05
4.0015e-05
4.00174e-05
4.00174e-05
4.00214e-05
4.00267e-05
4.0033e-05
4.00397e-05
4.00465e-05
4.00521e-05
4.00557e-05
4.00583e-05
4.00602e-05
4.00609e-05
4.00609e-05
4.00642e-05
4.0071e-05
4.00815e-05
4.00899e-05
4.00855e-05
4.00714e-05
4.00826e-05
4.00758e-05
)
;
    }
    procBoundary1to5
    {
        type            processor;
        value           nonuniform List<scalar> 
13
(
4.30128e-05
4.30128e-05
3.95315e-05
4.01564e-05
4.01564e-05
4.00457e-05
4.00663e-05
4.00663e-05
4.00642e-05
4.0064e-05
4.00622e-05
4.00622e-05
4.00598e-05
)
;
    }
}


// ************************************************************************* //
