/*--------------------------------*- C++ -*----------------------------------*\
| =========                 |                                                 |
| \\      /  F ield         | OpenFOAM: The Open Source CFD Toolbox           |
|  \\    /   O peration     | Version:  2506                                  |
|   \\  /    A nd           | Website:  www.openfoam.com                      |
|    \\/     M anipulation  |                                                 |
\*---------------------------------------------------------------------------*/
FoamFile
{
    version     2.0;
    format      ascii;
    arch        "LSB;label=32;scalar=64";
    class       surfaceScalarField;
    location    "150";
    object      phi;
}
// * * * * * * * * * * * * * * * * * * * * * * * * * * * * * * * * * * * * * //

dimensions      [0 3 -1 0 0 0 0];

oriented        oriented;

internalField   nonuniform List<scalar> 
2568
(
0.0195243
-0.031081
0.0480295
-0.0285054
0.0730572
-0.0250277
0.0944497
-0.0213925
0.112525
-0.018075
0.127638
-0.0151134
0.140186
-0.0125472
0.150896
-0.0107101
0.160071
-0.00917556
0.168188
-0.00811663
0.175471
-0.00728252
0.182225
-0.00675428
0.188563
-0.00633792
0.19465
-0.00608668
0.200462
-0.00581303
0.205921
-0.00545846
0.210357
-0.0044364
0.213594
-0.003237
0.215966
-0.00237227
0.217537
-0.00157108
0.218548
-0.00101009
0.219129
-0.000581773
0.219247
-0.000116888
0.218674
0.000574047
0.21734
0.00133387
0.215248
0.00209203
0.212436
0.00281112
0.0036169
-0.00548818
-0.0655729
0.0249303
-0.0614995
0.0523884
-0.0559634
0.0768553
-0.0494945
0.0981263
-0.0426635
0.11657
-0.0365188
0.132597
-0.0311405
0.146426
-0.0263761
0.158523
-0.0228063
0.169187
-0.0198395
0.178711
-0.0176404
0.187404
-0.0159753
0.195521
-0.014872
0.203171
-0.0139872
0.210513
-0.0134296
0.217618
-0.0129174
0.224411
-0.0122515
0.230424
-0.0104496
0.235378
-0.00819082
0.239459
-0.00645398
0.242559
-0.0046719
0.244584
-0.00303696
0.245496
-0.00149711
0.245425
-4.62362e-05
0.244606
0.00139126
0.24321
0.00272729
0.241252
0.00404646
0.238728
0.00533182
0.00677949
0.00222068
-0.0971852
0.0316686
-0.0909471
0.0585262
-0.0828207
0.0828054
-0.0737737
0.104167
-0.0640253
0.12282
-0.0551717
0.139139
-0.047459
0.153393
-0.0406301
0.165897
-0.0353101
0.176998
-0.030941
0.186963
-0.0276044
0.196058
-0.0250703
0.204491
-0.0233052
0.212426
-0.0219225
0.220049
-0.0210529
0.227369
-0.0202382
0.234284
-0.0191667
0.240486
-0.0166521
0.245681
-0.0133862
0.249985
-0.0107582
0.253467
-0.00815342
0.256164
-0.00573299
0.25814
-0.00347204
0.259388
-0.0012934
0.259967
0.000814397
0.259833
0.00286144
0.258994
0.00488707
0.257373
0.00695204
0.00926398
-0.0207049
-0.130582
0.0108286
-0.128718
0.0399343
-0.120052
0.0664591
-0.109345
0.0904444
-0.0977588
0.111568
-0.0851486
0.130112
-0.073716
0.146508
-0.0638543
0.160998
-0.05512
0.173907
-0.0482191
0.185462
-0.0424956
0.195965
-0.038107
0.205592
-0.0346974
0.214576
-0.0322895
0.223055
-0.0304015
0.231138
-0.0291362
0.238889
-0.0279902
0.246245
-0.026523
0.252878
-0.0232843
0.258533
-0.019042
0.263276
-0.0155014
0.26716
-0.0120373
0.270234
-0.00880932
0.272533
-0.00577328
0.274127
-0.00288928
0.275045
-0.000106457
0.275308
0.00259558
0.274906
0.00528425
0.273821
0.00803326
0.0111547
-0.0119218
-0.163454
0.0200655
-0.160705
0.0492814
-0.149268
0.0757179
-0.135782
0.0995607
-0.121602
0.120512
-0.1061
0.138946
-0.0921492
0.155361
-0.0802696
0.169972
-0.0697309
0.183099
-0.0613464
0.195011
-0.0544069
0.205886
-0.048982
0.215911
-0.0447226
0.225284
-0.0416626
0.234145
-0.0392617
0.242583
-0.0375746
0.250639
-0.0360465
0.258274
-0.0341583
0.265206
-0.0302175
0.27117
-0.0250063
0.276199
-0.0205308
0.280334
-0.0161722
0.283627
-0.0121012
0.286098
-0.00824312
0.287784
-0.00457453
0.288729
-0.00104914
0.289001
0.00232489
0.288608
0.00567955
0.287531
0.00910999
0.0129375
-0.0367117
-0.190509
-0.0028871
-0.197278
0.0298692
-0.193461
0.0594917
-0.17889
0.0860798
-0.162369
0.109923
-0.145444
0.130783
-0.12696
0.149078
-0.110445
0.165412
-0.0966029
0.180046
-0.0843652
0.193288
-0.0745875
0.205398
-0.0665166
0.216542
-0.060126
0.226921
-0.0551017
0.236662
-0.051404
0.245898
-0.0484977
0.25472
-0.0463972
0.263149
-0.0444761
0.271128
-0.0421384
0.278471
-0.0375608
0.284842
-0.0313765
0.290229
-0.0259181
0.294728
-0.0206712
0.298333
-0.0157077
0.301088
-0.0110002
0.303027
-0.00651496
0.304192
-0.00221736
0.304613
0.00190054
0.304296
0.00599253
0.303265
0.0101373
0.014818
-0.028796
-0.224516
0.00627826
-0.232352
0.0400314
-0.227214
0.0703635
-0.209222
0.0973462
-0.189352
0.121394
-0.169492
0.142254
-0.14782
0.160472
-0.128663
0.176727
-0.112857
0.19132
-0.0989583
0.204587
-0.0878545
0.216812
-0.0787413
0.228173
-0.0714871
0.238814
-0.0657419
0.24887
-0.0614602
0.258437
-0.0580649
0.267589
-0.0555487
0.276337
-0.0532249
0.284659
-0.0504605
0.292306
-0.0452077
0.299047
-0.0381189
0.304803
-0.0316736
0.309599
-0.0254679
0.31349
-0.0195982
0.316472
-0.0139809
0.318611
-0.00865231
0.319909
-0.00351351
0.320431
0.00138064
0.32019
0.00623538
0.319145
0.0111828
0.0167095
-0.020793
-0.25997
0.0156706
-0.268815
0.0506697
-0.262213
0.0819061
-0.240458
0.109469
-0.216914
0.13386
-0.193883
0.15485
-0.16881
0.173048
-0.14686
0.189235
-0.129044
0.203759
-0.113482
0.216994
-0.101089
0.22929
-0.0910373
0.240763
-0.0829595
0.251598
-0.0765768
0.261894
-0.0717568
0.271749
-0.06792
0.281193
-0.0649937
0.290274
-0.0623062
0.298925
-0.0591122
0.306941
-0.0532241
0.314054
-0.0452317
0.320178
-0.0377972
0.32533
-0.0306198
0.329543
-0.0238116
0.332807
-0.0172456
0.335166
-0.0110132
0.336673
-0.00502229
0.337334
0.000716436
0.337185
0.00638026
0.336189
0.0121743
0.0186507
-0.0499229
-0.0128106
-0.297081
0.0252542
-0.306879
0.0617451
-0.298703
0.0940584
-0.272771
0.122374
-0.245229
0.14727
-0.218779
0.168506
-0.190045
0.186778
-0.165133
0.202942
-0.145208
0.217403
-0.127943
0.23059
-0.114276
0.242861
-0.103309
0.254411
-0.0945094
0.265369
-0.087534
0.275847
-0.0822348
0.285938
-0.0780115
0.29568
-0.0747357
0.305037
-0.0716628
0.313996
-0.0680713
0.322361
-0.0615895
0.329859
-0.0527302
0.33633
-0.0442686
0.341831
-0.0361211
0.346336
-0.0283167
0.349891
-0.0207995
0.352493
-0.0136149
0.354177
-0.00670435
0.354983
-8.81389e-05
0.354909
0.00645716
0.353949
0.0131344
0.0206001
-0.00472322
0.035193
-0.346796
0.0732418
-0.336751
0.106815
-0.306343
0.136053
-0.274467
0.161618
-0.244344
0.183213
-0.21164
0.201629
-0.183548
0.21783
-0.161409
0.232244
-0.142356
0.245368
-0.127399
0.257609
-0.11555
0.269159
-0.10606
0.28018
-0.098555
0.290812
-0.0928663
0.30109
-0.0882903
0.311029
-0.0846749
0.320673
-0.0813076
0.329943
-0.0773411
0.33864
-0.0702873
0.346487
-0.0605779
0.353343
-0.0511245
0.359176
-0.0419531
0.364023
-0.0331642
0.36786
-0.0246369
0.370714
-0.0164685
0.372623
-0.00861439
0.373571
-0.00103888
0.373616
0.00640833
0.372712
0.0140344
0.0225665
0.0453865
0.085219
-0.376584
0.120203
-0.341326
0.150527
-0.304791
0.176839
-0.270656
0.19893
-0.233731
0.21759
-0.202208
0.233896
-0.177715
0.248296
-0.156757
0.261365
-0.140468
0.273544
-0.127729
0.28507
-0.117586
0.296128
-0.109613
0.306817
-0.103556
0.317232
-0.0987053
0.327396
-0.094838
0.337276
-0.0911878
0.346808
-0.0868736
0.355839
-0.0793188
0.36404
-0.0687786
0.371249
-0.058334
0.377448
-0.0481528
0.382616
-0.0383318
0.386766
-0.0287866
0.389877
-0.0195796
0.391981
-0.0107176
0.39312
-0.00217565
0.393268
0.00626277
0.392424
0.014879
0.0245502
0.0977374
0.13424
-0.377829
0.16576
-0.33631
0.192995
-0.297892
0.215684
-0.256421
0.234685
-0.221208
0.251129
-0.194159
0.265569
-0.171196
0.278598
-0.153497
0.290723
-0.139853
0.302189
-0.129051
0.313231
-0.120654
0.323978
-0.114303
0.334482
-0.109209
0.344786
-0.105142
0.354863
-0.101265
0.364681
-0.0966926
0.374019
-0.088657
0.382562
-0.0773224
0.390127
-0.0658992
0.396667
-0.0546921
0.402182
-0.0438465
0.406614
-0.0332191
0.410008
-0.0229732
0.412347
-0.0130563
0.413652
-0.00348224
0.413943
0.00596904
0.413149
0.0156687
0.026514
0.148981
0.181819
-0.369148
0.210082
-0.326155
0.233466
-0.279805
0.25289
-0.240633
0.269582
-0.210851
0.284111
-0.185725
0.297127
-0.166513
0.309198
-0.151924
0.320604
-0.140457
0.331604
-0.131654
0.342341
-0.125041
0.352909
-0.119776
0.363319
-0.115553
0.373581
-0.111527
0.383621
-0.106733
0.393261
-0.0982968
0.402126
-0.0861875
0.410034
-0.0738079
0.41692
-0.0615781
0.422744
-0.0496711
0.427501
-0.0379763
0.431172
-0.026644
0.433755
-0.0156387
0.435264
-0.00499059
0.435683
0.00555201
0.434978
0.016375
0.0284807
0.198775
0.228164
-0.355544
0.25235
-0.30399
0.272269
-0.260551
0.289264
-0.227846
0.303922
-0.200383
0.316955
-0.179546
0.328999
-0.163967
0.34035
-0.151808
0.351273
-0.142577
0.361985
-0.135752
0.372578
-0.130369
0.383068
-0.126043
0.39346
-0.121919
0.403718
-0.116992
0.413621
-0.1082
0.422789
-0.0953565
0.431024
-0.0820433
0.438246
-0.0688001
0.444414
-0.0558388
0.449484
-0.0430468
0.453439
-0.0305985
0.456265
-0.0184637
0.457965
-0.006691
0.45854
0.00497492
0.457924
0.0169882
0.0304127
0.247231
-0.386208
0.272295
-0.329054
0.292834
-0.281089
0.310201
-0.245214
0.325057
-0.215238
0.338162
-0.192651
0.350177
-0.175981
0.36146
-0.163092
0.372335
-0.153451
0.382993
-0.14641
0.393565
-0.140941
0.404098
-0.136576
0.414613
-0.132434
0.42505
-0.127429
0.43519
-0.11834
0.444662
-0.104829
0.453206
-0.0905874
0.460752
-0.0763467
0.467232
-0.0623193
0.472616
-0.048431
0.476846
-0.0348293
0.479934
-0.021551
0.481862
-0.00861838
0.48258
0.00425849
0.48208
0.0174889
0.0323029
0.267369
0.293439
-0.355124
0.314639
-0.302289
0.332443
-0.263018
0.347552
-0.230347
0.360762
-0.205861
0.372795
-0.188013
0.384028
-0.174325
0.394827
-0.16425
0.405422
-0.157005
0.415966
-0.151485
0.426508
-0.147118
0.437089
-0.143015
0.447683
-0.138024
0.458069
-0.128727
0.467796
-0.114557
0.476628
-0.0994189
0.484482
-0.0842021
0.491278
-0.0691156
0.496972
-0.054125
0.501506
-0.0393626
0.504852
-0.0248966
0.506979
-0.010745
0.507891
0.00334584
0.507495
0.0178822
0.0341258
0.315743
-0.382254
0.3377
-0.324246
0.356031
-0.281349
0.371444
-0.24576
0.384802
-0.219218
0.396891
-0.200103
0.4081
-0.185534
0.418836
-0.174986
0.429358
-0.167527
0.439841
-0.161967
0.450384
-0.157661
0.461014
-0.153645
0.471735
-0.148745
0.482304
-0.139296
0.492271
-0.124524
0.501391
-0.108538
0.509536
-0.092348
0.516648
-0.0762285
0.522633
-0.0601103
0.527457
-0.0441867
0.531065
-0.0285044
0.533439
-0.0131185
0.534518
0.0022676
0.534243
0.0181577
0.0358691
0.339339
0.362133
-0.34704
0.381039
-0.300256
0.396812
-0.261533
0.410375
-0.232781
0.422525
-0.212253
0.433748
-0.196756
0.444417
-0.185655
0.454866
-0.177976
0.465285
-0.172386
0.475797
-0.168173
0.486456
-0.164303
0.497285
-0.159575
0.508032
-0.150043
0.518225
-0.134718
0.527583
-0.117898
0.535998
-0.100764
0.543386
-0.0836172
0.549678
-0.0664028
0.554777
-0.0492856
0.558662
-0.0323896
0.561252
-0.015708
0.562537
0.00098295
0.562423
0.0182705
0.0375462
0.387936
-0.370753
0.407486
-0.319805
0.423691
-0.277739
0.437498
-0.246588
0.449774
-0.224528
0.461008
-0.20799
0.471647
-0.196294
0.482025
-0.188354
0.492398
-0.182759
0.502852
-0.178627
0.51353
-0.174982
0.524431
-0.170476
0.53533
-0.160942
0.545723
-0.14511
0.555294
-0.127469
0.563979
-0.10945
0.571638
-0.0912763
0.578188
-0.0729526
0.583592
-0.0546904
0.587729
-0.0365267
0.590567
-0.0185452
0.592028
-0.000477183
0.592066
0.0182318
0.0390892
0.415205
-0.395418
0.435483
-0.340083
0.452159
-0.294415
0.46626
-0.260688
0.478705
-0.236973
0.489988
-0.219273
0.500622
-0.206928
0.51095
-0.198682
0.521237
-0.193046
0.531654
-0.189043
0.542303
-0.185631
0.553279
-0.181453
0.564307
-0.171971
0.574856
-0.155659
0.584646
-0.137261
0.593541
-0.118345
0.601449
-0.0991851
0.608291
-0.0797952
0.613931
-0.0603304
0.618331
-0.0409276
0.621419
-0.0216327
0.623107
-0.00216514
0.623309
0.0180291
0.0405225
0.444045
0.465093
-0.361131
0.482301
-0.311623
0.496739
-0.275126
0.509378
-0.249612
0.520757
-0.230653
0.531373
-0.217543
0.541668
-0.208977
0.551899
-0.203277
0.562265
-0.199409
0.572911
-0.196278
0.583914
-0.192456
0.595046
-0.183103
0.605761
-0.166374
0.615708
-0.147209
0.62481
-0.127447
0.632958
-0.107334
0.640038
-0.0868752
0.645951
-0.0662435
0.650608
-0.0455849
0.653936
-0.0249604
0.65582
-0.00404911
0.656205
0.0176441
0.0417912
0.496364
-0.383022
0.514164
-0.329424
0.529012
-0.289974
0.541884
-0.262485
0.55338
-0.242148
0.564065
-0.228228
0.574327
-0.21924
0.584493
-0.213442
0.594805
-0.209722
0.605416
-0.206888
0.616455
-0.203495
0.627695
-0.194343
0.638514
-0.177193
0.648619
-0.157314
0.657914
-0.136743
0.666266
-0.115687
0.673565
-0.0941754
0.679724
-0.0724035
0.684621
-0.050482
0.688175
-0.0285148
0.690302
-0.00617609
0.690868
0.0170775
0.0429096
0.52943
0.547892
-0.347886
0.563145
-0.305227
0.576308
-0.275648
0.587959
-0.253799
0.598688
-0.238957
0.608958
-0.22951
0.619109
-0.223593
0.629356
-0.219969
0.63995
-0.217482
0.651028
-0.214574
0.662303
-0.205618
0.673242
-0.188133
0.683555
-0.167628
0.692874
-0.146061
0.70144
-0.124253
0.709011
-0.101745
0.715353
-0.0787455
0.720476
-0.0556054
0.724343
-0.0323811
0.726677
-0.00851065
0.727414
0.0163398
0.0438437
0.583494
-0.367049
0.599258
-0.320992
0.612741
-0.289131
0.624586
-0.265644
0.635417
-0.249788
0.645695
-0.239788
0.655851
-0.233749
0.666092
-0.23021
0.676597
-0.227987
0.687645
-0.225622
0.699111
-0.217085
0.710097
-0.199119
0.720432
-0.177963
0.730108
-0.155738
0.73872
-0.132867
0.74634
-0.109367
0.753044
-0.08545
0.758408
-0.0609704
0.762269
-0.0362419
0.76484
-0.0110829
0.76596
0.0152188
0.0446226
0.621131
-0.386975
0.637394
-0.337256
0.651317
-0.303054
0.663344
-0.27767
0.67434
-0.260784
0.684664
-0.250113
0.6947
-0.243785
0.704902
-0.240412
0.715503
-0.238588
0.726728
-0.236847
0.738029
-0.228386
0.749225
-0.210316
0.759589
-0.188327
0.769333
-0.165482
0.778182
-0.141716
0.78609
-0.117275
0.792751
-0.0921103
0.798356
-0.0665752
0.802603
-0.0404891
0.805324
-0.0138043
0.806486
0.0140562
0.045036
0.660944
0.677846
-0.354157
0.692008
-0.317215
0.704435
-0.290098
0.715503
-0.271852
0.725942
-0.260551
0.736069
-0.253912
0.746343
-0.250686
0.756928
-0.249173
0.767938
-0.247858
0.779518
-0.239966
0.790687
-0.221485
0.801177
-0.198818
0.810848
-0.175153
0.819789
-0.150657
0.827835
-0.125322
0.834805
-0.0990808
0.840508
-0.0722787
0.845008
-0.0449907
0.848005
-0.0168015
0.84933
0.0127298
0.0452694
0.720392
-0.371717
0.735176
-0.331998
0.747746
-0.302667
0.759085
-0.283191
0.769561
-0.271028
0.779906
-0.264257
0.790041
-0.260821
0.800486
-0.259619
0.811733
-0.259105
0.823243
-0.251477
0.834505
-0.232747
0.845101
-0.209414
0.855039
-0.185091
0.864051
-0.159669
0.872094
-0.133365
0.879103
-0.10609
0.885135
-0.0783109
0.889753
-0.0496088
0.892896
-0.0199446
0.894641
0.0109843
0.0454286
0.765408
-0.389889
0.780642
-0.347232
0.793676
-0.315701
0.805116
-0.294631
0.81585
-0.281762
0.826086
-0.274493
0.836344
-0.271079
0.847002
-0.270278
0.85815
-0.270253
0.869838
-0.263165
0.881166
-0.244075
0.891742
-0.21999
0.901568
-0.194917
0.910749
-0.168852
0.919008
-0.141625
0.926282
-0.113364
0.932131
-0.0841603
0.936978
-0.0544575
0.940512
-0.0234793
0.942308
0.00918698
0.0451263
0.813028
0.828813
-0.363017
0.842131
-0.329019
0.85402
-0.30652
0.864826
-0.292568
0.875218
-0.284886
0.885473
-0.281335
0.896144
-0.280949
0.907426
-0.281536
0.919163
-0.274903
0.930458
-0.25537
0.941233
-0.230766
0.951175
-0.204859
0.960267
-0.177944
0.968476
-0.149833
0.975748
-0.120636
0.982136
-0.0905484
0.986951
-0.0592718
0.99062
-0.0271484
0.992717
0.00708902
0.0447234
0.879536
-0.379296
0.893483
-0.342966
0.905504
-0.31854
0.916506
-0.303571
0.927055
-0.295436
0.937562
-0.291843
0.948254
-0.291641
0.959583
-0.292864
0.971377
-0.286698
0.98285
-0.266843
0.993595
-0.241511
1.00352
-0.214785
1.01275
-0.187171
1.02114
-0.158221
1.02851
-0.128009
1.03468
-0.0967177
1.03982
-0.0644119
1.04349
-0.0308187
1.04589
0.00468679
0.0439617
0.933324
0.947492
-0.357134
0.960002
-0.33105
0.971335
-0.314904
0.981954
-0.306056
0.992521
-0.30241
1.00324
-0.302362
1.01473
-0.304351
1.02671
-0.298681
1.03825
-0.278382
1.04896
-0.252225
1.05911
-0.224928
1.06834
-0.196402
1.07664
-0.166526
1.08398
-0.135342
1.0904
-0.103141
1.09572
-0.0697371
1.09964
-0.034732
1.10209
0.00223652
0.0428358
1.00485
-0.371999
1.01754
-0.343735
1.02913
-0.326493
1.04006
-0.316987
1.05067
-0.313019
1.06168
-0.313371
1.07322
-0.315898
1.08528
-0.310741
1.09705
-0.290153
1.10784
-0.263006
1.11783
-0.234927
1.12706
-0.205626
1.13539
-0.174857
1.14303
-0.142987
1.14945
-0.10956
1.1547
-0.0749855
1.15884
-0.0388751
1.16159
-0.00051053
0.0415909
1.06524
-0.387311
1.07847
-0.356961
1.09031
-0.338333
1.10134
-0.328026
1.11229
-0.323959
1.12337
-0.324459
1.13511
-0.327635
1.14739
-0.323016
1.15911
-0.301875
1.17012
-0.274016
1.18009
-0.244898
1.1893
-0.214841
1.19777
-0.183325
1.20523
-0.150442
1.21174
-0.116077
1.21715
-0.0803902
1.22139
-0.0431133
1.2243
-0.00342132
0.0401053
1.12901
1.14279
-0.370744
1.15491
-0.350452
1.16644
-0.339555
1.17736
-0.334881
1.18864
-0.335745
1.20074
-0.339731
1.21301
-0.335287
1.22496
-0.313825
1.23594
-0.284996
1.24613
-0.255087
1.25545
-0.224166
1.26381
-0.191683
1.27119
-0.157817
1.27779
-0.122683
1.28322
-0.0858152
1.28754
-0.0474343
1.29073
-0.00661504
0.0382539
1.21066
-0.384878
1.22319
-0.362985
1.23488
-0.351248
1.24628
-0.346278
1.2578
-0.347265
1.26987
-0.351798
1.28251
-0.347934
1.29459
-0.325902
1.30568
-0.296084
1.31598
-0.265385
1.32517
-0.233358
1.33353
-0.200047
1.34119
-0.165474
1.34763
-0.129121
1.35318
-0.0913715
1.35758
-0.0518273
1.36079
-0.00983214
0.0361707
1.28229
-0.39949
1.29539
-0.376084
1.30748
-0.363335
1.31901
-0.35781
1.3308
-0.359049
1.34312
-0.364128
1.35615
-0.360956
1.36839
-0.338143
1.3796
-0.307294
1.38977
-0.275556
1.39908
-0.242669
1.40758
-0.208543
1.41502
-0.172918
1.42153
-0.135631
1.42721
-0.0970476
1.43178
-0.0564056
1.43514
-0.013187
0.0338618
1.35818
1.37164
-0.389541
1.3839
-0.375591
1.39598
-0.369893
1.40803
-0.371097
1.42077
-0.376869
1.43386
-0.374045
1.44635
-0.350637
1.45771
-0.318658
1.46814
-0.285979
1.47745
-0.251987
1.48596
-0.217052
1.49332
-0.180274
1.50002
-0.142327
1.50556
-0.102592
1.51006
-0.060911
1.51367
-0.0167909
0.0314645
1.45216
-0.403574
1.46502
-0.388451
1.47728
-0.382153
1.48961
-0.383432
1.50267
-0.389927
1.51606
-0.387437
1.52889
-0.363462
1.54052
-0.330292
1.55085
-0.296307
1.56031
-0.261443
1.56872
-0.22546
1.57623
-0.187789
1.58275
-0.148843
1.5884
-0.108243
1.59307
-0.0655825
1.59679
-0.0205107
1.53714
-0.418003
1.55046
-0.401771
1.56316
-0.394851
1.57582
-0.396097
1.58933
-0.403435
1.60319
-0.401295
1.61622
-0.376496
1.62793
-0.341996
1.63854
-0.306923
1.64803
-0.270936
1.65648
-0.233901
1.66403
-0.195347
1.67049
-0.155303
1.67613
-0.113875
1.68083
-0.0702888
-0.0242118
1.62702
1.64083
-0.415576
1.65389
-0.40791
1.66703
-0.409243
1.68075
-0.417152
1.69512
-0.415663
1.7085
-0.389873
1.72043
-0.353925
1.73123
-0.317731
1.74078
-0.280479
1.74927
-0.24239
1.75675
-0.202835
1.76341
-0.161955
1.7689
-0.119364
1.77363
-0.0750251
-0.0281321
1.73618
-0.429789
1.74974
-0.421468
1.76347
-0.422974
1.77773
-0.431405
1.79224
-0.430172
1.80613
-0.403768
1.81841
-0.3662
1.8293
-0.328625
1.83904
-0.290218
1.84759
-0.250944
1.85515
-0.21039
1.86151
-0.168318
1.86723
-0.125084
1.87199
-0.0797869
-0.0320132
1.83696
-0.444769
1.85115
-0.435666
1.86519
-0.437011
1.87996
-0.446176
1.89514
-0.445353
1.90921
-0.417831
1.92187
-0.378861
1.93301
-0.339766
1.94285
-0.300055
1.95149
-0.259585
1.959
-0.217901
1.96557
-0.174896
1.97116
-0.130669
1.97595
-0.0845744
-0.0359738
1.94348
1.9581
-0.450289
1.97265
-0.451561
1.98797
-0.461497
2.00376
-0.461145
2.01839
-0.432456
2.03135
-0.391823
2.04263
-0.351046
2.05271
-0.31014
2.06146
-0.268329
2.06907
-0.225515
2.07563
-0.181453
2.08121
-0.136249
2.08602
-0.0893892
-0.0398825
2.07112
-0.465607
2.08638
-0.466829
2.10219
-0.477302
2.11845
-0.477404
2.13369
-0.447699
2.14697
-0.405097
2.15866
-0.362743
2.16877
-0.320249
2.17765
-0.277208
2.18538
-0.233248
2.19194
-0.188005
2.19765
-0.14196
2.20237
-0.0941096
-0.0438592
2.19042
-0.481525
2.20627
-0.482678
2.22293
-0.493969
2.23983
-0.494297
2.25546
-0.463331
2.26923
-0.418865
2.28125
-0.374768
2.29166
-0.330662
2.3007
-0.286246
2.30846
-0.241005
2.31515
-0.194696
2.32063
-0.147442
2.32539
-0.0988681
-0.04803
2.31658
2.33305
-0.499152
2.35026
-0.511173
2.36795
-0.511992
2.38412
-0.479503
2.3984
-0.433141
2.41079
-0.38716
2.42154
-0.34141
2.43076
-0.29547
2.43856
-0.248806
2.44517
-0.2013
2.45093
-0.153207
2.45561
-0.103546
-0.0520214
2.46701
-0.516542
2.48488
-0.529037
2.50331
-0.530429
2.5203
-0.49649
2.53501
-0.447846
2.5478
-0.399949
2.55878
-0.352396
2.56822
-0.304913
2.5761
-0.256679
2.58301
-0.208209
2.58857
-0.158776
2.59343
-0.108405
-0.0559615
2.60826
-0.534472
2.62711
-0.547894
2.64628
-0.549599
2.66391
-0.514119
2.67918
-0.463115
2.69252
-0.413286
2.7039
-0.363783
2.71347
-0.314478
2.72169
-0.264902
2.72843
-0.214952
2.7342
-0.16454
2.73888
-0.113085
-0.059982
2.75772
-0.553371
2.7773
-0.567475
2.79726
-0.56956
2.81576
-0.532617
2.83181
-0.479163
2.84536
-0.426835
2.85705
-0.37548
2.86702
-0.324449
2.87538
-0.273254
2.88223
-0.221803
2.88809
-0.170397
2.89285
-0.117851
-0.0639663
2.91521
2.93596
-0.588227
2.95687
-0.590464
2.9761
-0.551847
2.99265
-0.49571
3.00696
-0.441148
3.01913
-0.387645
3.02929
-0.334609
3.0378
-0.28177
3.04504
-0.22904
3.05077
-0.176123
3.05551
-0.122595
-0.067928
3.10339
-0.609789
3.1254
-0.612469
3.14548
-0.571931
3.16288
-0.513109
3.17772
-0.455988
3.19027
-0.400194
3.2009
-0.345244
3.20961
-0.290479
3.21676
-0.236194
3.22263
-0.181989
3.22762
-0.127588
-0.0718781
3.28031
-0.632453
3.30325
-0.635411
3.32434
-0.593015
3.34247
-0.531247
3.35802
-0.471532
3.37099
-0.41316
3.38188
-0.35614
3.39107
-0.299665
3.39842
-0.243542
3.40445
-0.188022
3.40921
-0.132352
3.46702
-0.656135
3.49114
-0.659533
3.51318
-0.615048
3.5322
-0.550274
3.54838
-0.487707
3.56205
-0.426834
3.57337
-0.367457
3.58269
-0.308986
3.59027
-0.251118
3.59637
-0.194126
-0.137287
3.66425
3.6896
-0.684874
3.71276
-0.638214
3.73261
-0.570125
3.74944
-0.504534
3.76374
-0.44113
3.77551
-0.379233
3.78513
-0.318605
3.79297
-0.258953
3.7993
-0.200457
-0.142164
3.89917
-0.71165
3.92346
-0.662509
3.94419
-0.590856
3.96196
-0.522306
3.97667
-0.455835
3.98907
-0.391633
3.99902
-0.328555
4.00715
-0.267084
4.01335
-0.206666
-0.147263
4.12016
-0.739475
4.1458
-0.688154
4.16767
-0.612721
4.18607
-0.540706
4.20173
-0.471492
4.21441
-0.404315
4.22485
-0.339001
4.23318
-0.275413
4.2398
-0.213289
-0.152359
4.35377
-0.769045
4.38038
-0.714765
4.40346
-0.635808
4.42289
-0.560131
4.43904
-0.48764
4.45242
-0.417699
4.46327
-0.34985
4.47183
-0.28398
4.47852
-0.219978
-0.15761
4.60005
-0.800037
4.62834
-0.743055
4.65229
-0.65976
4.67267
-0.580509
4.6896
-0.504573
4.70373
-0.431826
4.7149
-0.361022
4.72387
-0.292947
4.73078
-0.226895
-0.162922
4.86006
4.88968
-0.772668
4.91505
-0.685137
4.93644
-0.601894
4.9542
-0.522339
4.96874
-0.446362
4.98065
-0.372933
4.9898
-0.302103
4.99712
-0.234206
-0.168199
5.16566
-0.803805
5.19227
-0.711746
5.21471
-0.624333
5.23348
-0.541114
5.24872
-0.461605
5.26104
-0.385253
5.27068
-0.311741
5.27804
-0.241569
-0.173861
5.45685
-0.83668
5.48483
-0.739732
5.5085
-0.648006
5.52809
-0.560698
5.54421
-0.477732
5.55698
-0.398022
5.56715
-0.321902
5.57473
-0.24915
5.76419
-0.87117
5.79367
-0.769213
5.8185
-0.67283
5.83904
-0.581246
5.85585
-0.494534
5.86936
-0.411541
5.87984
-0.332377
-0.257244
6.08848
-0.907592
6.11946
-0.800189
6.1455
-0.69887
6.16721
-0.602962
6.18486
-0.512187
6.19893
-0.425601
6.20988
-0.343336
-0.265634
6.43069
-0.945895
6.46322
-0.832719
6.49065
-0.726297
6.51344
-0.625751
6.53198
-0.530735
6.54675
-0.440372
6.55824
-0.35482
-0.27424
6.79097
6.8255
-0.867257
6.85472
-0.755519
6.87866
-0.649682
6.89815
-0.550228
6.91292
-0.455144
6.92561
-0.367511
-0.283228
7.20877
-0.903973
7.23812
-0.784871
7.26384
-0.675401
7.28344
-0.569831
7.30067
-0.472374
7.31297
-0.379809
-0.291882
7.6111
-0.940659
7.64413
-0.817897
7.66971
-0.700982
7.69163
-0.591755
7.70858
-0.489325
7.72053
-0.391758
-0.302668
5.53294
-0.947853
5.54165
-0.826602
5.55451
-0.713843
5.5716
-0.608841
5.5904
-0.508134
5.61352
-0.414875
-0.328889
6.08881
-0.953016
6.09922
-0.837012
6.11368
-0.728301
6.13102
-0.626185
6.15256
-0.52967
6.17833
-0.440646
-0.356425
6.70081
-0.95886
6.7118
-0.847996
6.72803
-0.744535
6.74706
-0.645209
6.77146
-0.554073
6.79874
-0.467931
-0.386672
7.37531
-0.965588
7.38835
-0.861031
7.40396
-0.760141
7.42609
-0.667348
7.45225
-0.580227
7.48247
-0.498151
8.11742
-0.974676
8.13014
-0.873756
8.14916
-0.779154
8.17331
-0.691505
8.20138
-0.608298
-0.530189
8.93228
-0.982526
8.94742
-0.88889
8.96748
-0.799217
8.99383
-0.717861
9.02527
-0.639729
-0.566754
9.83117
9.84645
-0.904169
9.86901
-0.821775
9.89775
-0.746599
9.93144
-0.673419
-0.60673
10.8355
-0.920946
10.8594
-0.845711
10.8907
-0.777855
10.928
-0.710774
-0.650255
11.9211
-0.939342
11.9477
-0.872372
11.9803
-0.81038
12.0213
-0.751779
-0.697268
13.112
-0.959739
13.1405
-0.900883
13.1786
-0.848493
13.2226
-0.79572
-0.749647
14.4193
-0.980517
14.4506
-0.932142
14.4887
-0.886611
14.5376
-0.844623
-0.805635
15.8755
-1.0062
15.9127
-0.969362
15.9591
-0.93303
16.0161
-0.901544
-0.87052
17.4957
17.5313
17.5798
17.6379
)
;

boundaryField
{
    inlet
    {
        type            calculated;
        value           nonuniform List<scalar> 5(-1.03142 -1.00487 -0.981626 -0.959559 -0.939396);
    }
    outlet
    {
        type            calculated;
        value           nonuniform List<scalar> 0();
    }
    walls
    {
        type            calculated;
        value           uniform 0;
    }
    frontAndBack
    {
        type            empty;
    }
    procBoundary1to0
    {
        type            processor;
        value           nonuniform List<scalar> 
94
(
-0.286493
0.0435354
-0.335893
-0.00358558
-0.388595
-0.055945
-0.418374
-0.110762
-0.416046
-0.164454
-0.403469
-0.216567
-0.235367
-0.41821
-0.288613
-0.311036
-0.410557
-0.364223
-0.39054
-0.41828
-0.421183
-0.474473
-0.506593
-0.405858
-0.56433
-0.601205
-0.640174
-0.407745
-0.702833
-0.747234
-0.794102
-0.408815
-0.863256
-0.916322
-0.396298
-0.989989
-1.04993
-1.11318
-0.403142
-1.19652
-1.26768
-1.34283
-0.414844
-1.43813
-1.52271
-1.61193
-0.433094
-1.72197
-1.82198
-1.9279
-0.460347
-2.0558
-2.1745
-2.29993
-0.498175
-2.44962
-2.59033
-2.73882
-2.89546
-0.573123
-3.08183
-3.25765
-3.44334
-3.63925
-0.681141
-3.87239
-4.09233
-4.3242
-4.56906
-4.82759
-0.832506
-5.13452
-5.42397
-5.7297
-6.05206
-6.39239
-6.75163
-0.985231
-7.17205
-7.57441
-5.52575
-6.08365
-6.69497
-7.36859
-8.10833
-8.92443
-9.82181
-0.991886
-10.8187
-11.9027
-13.0916
-14.3985
-15.8498
-17.4705
)
;
    }
    procBoundary1to2
    {
        type            processor;
        value           nonuniform List<scalar> 
84
(
0.208815
0.235561
0.254885
0.271925
0.285745
0.301378
0.317251
0.334242
0.351999
0.370739
0.39044
0.41118
0.433011
0.455986
0.480189
0.505668
0.532499
0.560742
0.590522
0.621873
0.654935
0.689747
0.726478
0.76518
0.806071
0.849095
0.89448
0.942609
0.993118
1.04665
1.10321
1.16283
1.22578
1.29258
1.36288
1.43745
1.51607
1.59939
0.0288617
1.68453
1.77755
1.87587
1.97991
2.08993
2.20634
2.32956
2.4596
2.59737
2.7429
2.89684
3.05947
3.23157
3.41317
-0.0758347
3.60131
3.80417
4.01845
4.2449
4.48377
4.7361
5.00239
5.28371
5.58055
-0.179687
5.88793
6.21828
6.56684
6.9346
7.32162
7.73132
5.63974
6.20587
6.82899
7.51684
-0.421039
8.23342
9.06183
9.97141
10.9715
12.0683
13.275
14.5936
16.0809
17.7067
)
;
    }
    procBoundary1to5
    {
        type            processor;
        value           nonuniform List<scalar> 
13
(
0.0115559
0.0335219
0.0375392
0.0293913
0.0983665
0.0529202
0.0447933
0.157735
0.0694853
0.0628038
0.056247
0.250269
0.0861469
)
;
    }
}


// ************************************************************************* //
