/*--------------------------------*- C++ -*----------------------------------*\
| =========                 |                                                 |
| \\      /  F ield         | OpenFOAM: The Open Source CFD Toolbox           |
|  \\    /   O peration     | Version:  2506                                  |
|   \\  /    A nd           | Website:  www.openfoam.com                      |
|    \\/     M anipulation  |                                                 |
\*---------------------------------------------------------------------------*/
FoamFile
{
    version     2.0;
    format      ascii;
    arch        "LSB;label=32;scalar=64";
    class       volSymmTensorField;
    location    "150";
    object      turbulenceProperties:R;
}
// * * * * * * * * * * * * * * * * * * * * * * * * * * * * * * * * * * * * * //

dimensions      [0 2 -2 0 0 0 0];

internalField   nonuniform List<symmTensor> 
1340
(
(0.00194403 0.000248256 6.09605e-20 0.00184207 -2.67129e-20 0.00187021)
(0.00234557 0.000292582 1.08613e-19 0.0020487 -5.69518e-20 0.00218391)
(0.00340215 0.00042713 -7.24501e-20 0.00275568 1.49619e-20 0.00307893)
(0.00518614 0.000708768 -2.57549e-20 0.00394203 1.10034e-19 0.00457469)
(0.00789614 0.00125545 1.85847e-19 0.00566878 6.40621e-20 0.00680414)
(0.0118592 0.00225648 3.72685e-19 0.00809298 -6.06783e-20 0.0100184)
(0.0175231 0.0039636 -2.36534e-20 0.0114908 -2.12277e-19 0.0145829)
(0.0254174 0.00662608 -4.32746e-20 0.0162867 -1.59925e-19 0.0209658)
(0.0363495 0.0105484 6.07576e-20 0.0232432 -6.19805e-20 0.0299644)
(0.0518154 0.016207 -2.19678e-19 0.0336077 6.29459e-19 0.0429402)
(0.0746032 0.0246005 7.42136e-19 0.0495802 2.46272e-19 0.0624064)
(0.109963 0.0376909 3.35706e-19 0.0751666 -1.162e-18 0.0929956)
(0.166926 0.0590605 -1.39966e-18 0.117579 -3.02887e-19 0.142885)
(0.264363 0.0961873 -4.72848e-18 0.191969 -1.87053e-18 0.229133)
(0.433435 0.16203 -3.44378e-18 0.32499 -8.30169e-19 0.380821)
(0.757346 0.291022 6.74618e-18 0.587902 -7.15255e-19 0.675572)
(1.35717 0.537323 -8.71429e-18 1.09639 1.35472e-18 1.23279)
(2.6839 1.09535 4.53888e-18 2.26437 -6.37094e-18 2.48729)
(5.33006 2.23688 -1.39503e-16 4.6941 4.96148e-18 5.03937)
(11.8489 5.10045 -8.67436e-17 10.8802 1.02819e-17 11.4296)
(23.0101 10.136 7.13365e-17 22.0107 -6.49247e-19 22.64)
(30.9281 13.913 9.08472e-18 30.8048 9.21042e-20 31.0274)
(33.6875 15.4394 6.27696e-17 34.8879 -4.73491e-18 34.4368)
(33.9689 15.8218 -4.50935e-16 36.4927 -1.74672e-18 35.355)
(33.4999 15.8206 1.6007e-16 37.236 2.4836e-17 35.4697)
(32.7329 15.6421 -1.94799e-15 37.5522 -1.75177e-16 35.2271)
(31.7482 15.3248 -3.55058e-15 37.5073 -1.57055e-16 34.699)
(30.5729 14.8849 1.09604e-15 37.1251 1.29344e-16 33.9103)
(0.00148861 0.000150241 1.97615e-20 0.00130186 -8.64161e-20 0.00139824)
(0.00128511 0.000151459 -1.25937e-19 0.00119168 6.33699e-21 0.00124415)
(0.00108911 0.000137614 1.30637e-20 0.00107841 7.46828e-20 0.00108915)
(0.00089935 0.000112796 -2.84991e-21 0.000955433 -4.10754e-20 0.000929396)
(0.000736281 8.42018e-05 -2.64131e-20 0.000829463 -2.57738e-20 0.0007806)
(0.000606031 5.92872e-05 -1.99833e-20 0.000710073 -2.59691e-20 0.000652555)
(0.000501361 4.03227e-05 -3.28235e-21 0.000600944 6.19382e-21 0.000543809)
(0.000415299 2.69838e-05 1.14984e-20 0.000502983 2.97991e-20 0.000450986)
(0.000343922 1.81657e-05 1.95084e-20 0.000417078 6.63341e-21 0.000372264)
(0.000284657 1.25112e-05 -2.70675e-20 0.000343546 -4.55181e-22 0.000306311)
(0.000234785 8.90666e-06 2.29158e-20 0.000280576 1.48781e-21 0.000250722)
(0.000192688 6.53856e-06 -2.72982e-21 0.000227063 -6.14046e-21 0.000203992)
(0.000155604 4.75888e-06 -7.19963e-21 0.000179972 1.00681e-20 0.000163169)
(0.000121298 3.24081e-06 -4.15631e-21 0.000136978 4.00762e-21 0.00012588)
(8.64885e-05 1.81343e-06 -6.11511e-21 9.46947e-05 6.05919e-21 8.873e-05)
(5.1251e-05 6.76091e-07 -3.38798e-21 5.41366e-05 1.59894e-21 5.19776e-05)
(1.8002e-05 8.47019e-08 -6.30239e-22 1.83501e-05 5.91406e-23 1.80801e-05)
(2.55502e-06 1.72066e-09 5.76872e-24 2.56173e-06 3.48688e-25 2.55627e-06)
(2.84866e-05 2.32665e-07 -5.20478e-23 2.92693e-05 5.25344e-23 2.85944e-05)
(0.00103947 0.000262754 6.0086e-19 0.00176168 1.04702e-19 0.00110689)
(0.00607616 0.00186058 3.46314e-18 0.0103694 -2.12006e-19 0.00632947)
(0.0457618 0.0151694 1.23383e-18 0.0752524 -2.22191e-19 0.0468511)
(0.146014 0.0536743 -7.91686e-19 0.229418 8.71325e-21 0.148319)
(0.28138 0.114666 5.41607e-17 0.4179 3.66837e-18 0.28609)
(0.421441 0.185563 4.25897e-16 0.589845 4.21215e-18 0.432368)
(0.545953 0.251453 2.51591e-16 0.7277 1.53137e-17 0.567596)
(0.64889 0.305973 1.83044e-15 0.838894 1.16122e-16 0.684494)
(0.735689 0.351477 2.63108e-15 0.938269 1.00628e-16 0.787125)
(0.812562 0.391658 -5.95223e-16 1.03571 -7.02823e-17 0.881503)
(0.00120667 0.000115283 1.53939e-20 0.00103358 5.84441e-20 0.00112001)
(0.00105904 0.000120537 6.37733e-20 0.00096194 6.03889e-20 0.0010111)
(0.000920698 0.000115856 2.37241e-20 0.0008928 -4.74674e-20 0.000907384)
(0.000779953 0.000101368 3.92243e-20 0.000807831 2.57899e-20 0.000794474)
(0.000643177 8.12614e-05 -3.17437e-20 0.000706003 8.59046e-21 0.000675604)
(0.000521225 6.09324e-05 -3.60584e-21 0.000600044 2.50309e-20 0.000562472)
(0.000417776 4.3182e-05 4.62486e-21 0.000499704 -2.39259e-20 0.000461573)
(0.00033211 2.88836e-05 4.52741e-20 0.000409243 -3.02271e-20 0.000374551)
(0.000263936 1.81756e-05 2.13416e-21 0.000332447 -4.15618e-21 0.00030291)
(0.000210791 1.04606e-05 -4.68932e-21 0.000269492 1.88402e-20 0.000245561)
(0.000170702 5.11579e-06 3.36268e-20 0.00022005 -3.57472e-20 0.000201301)
(0.000141192 1.44111e-06 4.98689e-21 0.000182375 4.1634e-21 0.000168076)
(0.000120395 -1.13345e-06 3.82366e-20 0.000154962 -3.30436e-21 0.000144179)
(0.000106041 -3.09347e-06 4.09042e-20 0.000135242 7.37114e-21 0.000127304)
(9.6724e-05 -4.7263e-06 1.05474e-19 0.000121589 -1.44183e-20 0.00011593)
(9.14713e-05 -6.3241e-06 1.36669e-19 0.000112515 -2.07621e-20 0.000108928)
(8.98523e-05 -8.08272e-06 8.14652e-20 0.000106957 4.93099e-21 0.000105601)
(9.11111e-05 -9.80832e-06 1.88477e-20 0.000102663 -3.4823e-21 0.000104679)
(9.50961e-05 -1.08289e-05 -2.09076e-20 9.93831e-05 8.70822e-21 0.000106)
(9.85373e-05 -1.01929e-05 7.66312e-20 9.55514e-05 -1.0555e-20 0.00010625)
(0.000106518 -9.29785e-06 -2.05117e-20 9.72685e-05 -1.07421e-21 0.000111923)
(6.10204e-05 -2.4835e-06 -5.71803e-21 5.65938e-05 9.49879e-23 6.21801e-05)
(0.000644771 -9.14166e-05 3.64513e-20 0.000379235 -3.85543e-22 0.000682824)
(0.00382602 -0.00027362 -1.70251e-18 0.00195891 -2.63025e-20 0.00398863)
(0.0103916 0.000694148 -9.83949e-18 0.00523191 4.74775e-19 0.0107241)
(0.0209224 0.00571917 -6.03344e-17 0.0130185 -3.36774e-18 0.0215476)
(0.0434343 0.017784 -1.45281e-16 0.0366552 -3.4528e-19 0.0449416)
(0.0844509 0.0383313 -3.56803e-16 0.0842129 -1.75205e-17 0.088133)
(0.142419 0.0667095 -8.98844e-16 0.153896 -9.82116e-17 0.150282)
(0.00104689 6.8064e-05 2.19986e-20 0.000845837 -9.18004e-21 0.000946406)
(0.000953907 8.50439e-05 2.19014e-20 0.000805481 -7.03322e-22 0.000879623)
(0.000856165 9.29854e-05 -5.44509e-20 0.000763304 -3.22561e-20 0.000809913)
(0.000753995 9.2175e-05 -2.78326e-20 0.000714564 2.64572e-21 0.000734736)
(0.000648767 8.36172e-05 5.216e-20 0.000654872 1.92091e-20 0.000652409)
(0.000549334 7.03738e-05 2.24599e-20 0.000588049 -2.12193e-21 0.000569153)
(0.000462531 5.5932e-05 2.79011e-20 0.000520884 -1.67991e-20 0.000491817)
(0.000389706 4.24741e-05 -4.57822e-20 0.000457404 -2.47133e-20 0.000423189)
(0.000329532 3.10213e-05 -5.37517e-20 0.000399328 1.08955e-20 0.000363552)
(0.000280688 2.1987e-05 5.77053e-21 0.00034806 1.29696e-20 0.000312956)
(0.000241121 1.51802e-05 1.62186e-20 0.000303737 -4.79303e-21 0.000270528)
(0.000209404 1.02482e-05 -4.18092e-20 0.000266451 -1.91586e-21 0.000235602)
(0.000184028 6.73306e-06 -9.75495e-22 0.000235576 -6.08315e-21 0.000207134)
(0.00016393 4.19516e-06 -1.56086e-20 0.000210544 -2.50185e-21 0.000184294)
(0.000147693 2.23879e-06 3.37311e-20 0.000189989 -1.79407e-20 0.000165715)
(0.000134597 6.13151e-07 -3.7029e-20 0.000173167 -1.04779e-20 0.00015062)
(0.000123675 -8.94487e-07 -7.51794e-20 0.000158887 -6.60426e-21 0.000137923)
(0.000113992 -2.40762e-06 4.21521e-21 0.000145872 -1.00852e-20 0.00012649)
(0.000103864 -3.82454e-06 1.9777e-20 0.00013188 -9.76028e-21 0.000114381)
(9.34963e-05 -4.70338e-06 5.83971e-20 0.000117359 -4.17424e-21 0.00010179)
(8.50204e-05 -4.96288e-06 -5.5219e-20 0.000105413 -1.71594e-21 9.12352e-05)
(7.86273e-05 -4.87364e-06 -9.24618e-21 9.63082e-05 2.20096e-21 8.31106e-05)
(7.44523e-05 -4.7417e-06 5.78889e-21 9.03833e-05 2.07681e-22 7.76232e-05)
(6.68191e-05 -4.13316e-06 -2.5487e-21 7.98774e-05 -4.70996e-23 6.87179e-05)
(6.36987e-05 -4.31669e-06 -4.33085e-21 7.64429e-05 -2.73713e-22 6.49064e-05)
(3.43608e-05 -1.61188e-06 -3.24628e-21 3.86204e-05 -4.07369e-22 3.45501e-05)
(2.63759e-05 -1.4382e-06 1.2307e-20 2.96425e-05 4.30998e-22 2.62966e-05)
(0.000218802 -5.75529e-05 2.27573e-18 0.000331751 1.99467e-19 0.000198916)
(0.000408775 -1.5558e-05 2.13252e-17 0.0005053 1.76642e-18 0.000284567)
(0.00210879 0.000781579 8.69277e-17 0.00165173 9.78786e-18 0.00174385)
(0.000835215 5.01124e-05 -5.59258e-20 0.000670047 3.15801e-20 0.000752491)
(0.000770766 6.46664e-05 7.65429e-20 0.000643421 3.63129e-20 0.00070691)
(0.000700988 7.28617e-05 -2.57397e-20 0.000615435 -6.73712e-20 0.000658202)
(0.000626763 7.44868e-05 -3.17866e-20 0.000582879 9.10675e-21 0.000604915)
(0.000549838 7.00869e-05 -2.13525e-20 0.000543042 -3.73166e-20 0.000546593)
(0.000475365 6.14954e-05 6.91443e-21 0.000497154 1.18984e-20 0.000486418)
(0.000407102 5.09811e-05 -1.54366e-20 0.000447957 -1.79841e-20 0.000427698)
(0.000346415 4.02975e-05 -3.21591e-20 0.000397913 4.00367e-20 0.000372392)
(0.000293284 3.0508e-05 3.46341e-20 0.000348871 1.68235e-20 0.000321417)
(0.000247608 2.22179e-05 2.80144e-20 0.000302673 -1.25037e-20 0.000275624)
(0.000208893 1.55607e-05 -5.76434e-21 0.000260663 -1.06621e-20 0.000235441)
(0.000176579 1.04243e-05 1.66915e-20 0.000223682 3.09394e-21 0.00020099)
(0.000150016 6.53958e-06 -2.53817e-20 0.000192066 6.40749e-21 0.000172098)
(0.000128588 3.60723e-06 1.79765e-20 0.000165792 -7.79164e-22 0.000148427)
(0.000111449 1.32435e-06 -2.32562e-20 0.000144249 -9.53078e-21 0.00012925)
(9.79207e-05 -5.43095e-07 2.2968e-20 0.000126798 1.24361e-21 0.000113892)
(8.72147e-05 -2.18397e-06 2.99748e-20 0.000112489 5.4397e-21 0.000101494)
(7.85525e-05 -3.70389e-06 -2.61915e-21 0.000100247 2.58223e-21 9.1126e-05)
(7.06292e-05 -5.03645e-06 -5.68582e-20 8.82601e-05 7.44037e-22 8.1284e-05)
(6.27045e-05 -5.8721e-06 -2.0768e-20 7.58047e-05 -7.34683e-21 7.12262e-05)
(5.54156e-05 -6.10936e-06 -6.19644e-21 6.41946e-05 7.76402e-21 6.18833e-05)
(4.98936e-05 -5.98855e-06 2.31034e-20 5.48465e-05 5.02704e-23 5.46285e-05)
(4.64911e-05 -5.6215e-06 7.53338e-22 4.80609e-05 -9.92201e-23 4.97712e-05)
(4.60438e-05 -5.31097e-06 -1.29186e-21 4.46867e-05 4.23876e-23 4.82008e-05)
(4.29979e-05 -4.15929e-06 1.35648e-20 3.97278e-05 2.39182e-22 4.40071e-05)
(5.74082e-05 -6.32667e-06 1.71628e-20 4.93944e-05 6.09926e-22 5.79363e-05)
(6.99075e-06 -1.08541e-07 -1.63089e-21 6.81592e-06 -1.03204e-22 6.98249e-06)
(0.000107814 -1.79612e-05 -7.68654e-19 7.52624e-05 -5.75229e-20 0.000103539)
(0.00051363 -0.0001243 -1.17052e-18 0.000274298 -3.72549e-20 0.000462376)
(0.000173516 -3.72071e-05 2.73717e-19 9.69238e-05 3.45265e-20 0.000150639)
(0.000715011 2.16217e-05 -1.08325e-20 0.000557545 5.67487e-21 0.000636338)
(0.000676104 3.74813e-05 4.92461e-20 0.000539346 3.27494e-20 0.000607575)
(0.000630227 4.99008e-05 -3.11494e-20 0.000521264 -5.05361e-20 0.000575624)
(0.000579426 5.77072e-05 1.24513e-20 0.000502264 2.51867e-20 0.000540837)
(0.000524318 6.04786e-05 -1.83888e-20 0.000479773 -2.58494e-21 0.000502087)
(0.000466903 5.85694e-05 -5.23053e-20 0.000452387 -1.29337e-21 0.000459736)
(0.000410492 5.31224e-05 3.92264e-20 0.000420538 6.76281e-21 0.000415624)
(0.000357755 4.56536e-05 -8.58285e-21 0.00038568 1.04317e-20 0.000371814)
(0.000310084 3.74916e-05 2.24552e-20 0.00034953 1.52937e-20 0.00032988)
(0.000267881 2.95653e-05 7.85398e-21 0.000313499 -1.83939e-20 0.000290714)
(0.000231262 2.2492e-05 -6.25444e-21 0.000278924 -1.30704e-20 0.000255041)
(0.000200049 1.65326e-05 -2.3683e-20 0.000247001 8.96342e-21 0.000223382)
(0.000173848 1.1731e-05 -2.79002e-20 0.000218437 1.25636e-20 0.000195895)
(0.000152126 7.96384e-06 1.18105e-20 0.00019356 -1.03763e-21 0.000172484)
(0.000134314 5.03541e-06 -4.976e-21 0.000172373 -4.76031e-21 0.000152875)
(0.00011975 2.71381e-06 -2.38931e-20 0.000154519 3.40013e-22 0.000136562)
(0.000107802 8.05631e-07 -2.64613e-20 0.000139466 -5.3366e-21 0.000122965)
(9.77631e-05 -8.57511e-07 -2.21943e-20 0.000126437 1.7689e-21 0.000111348)
(8.89083e-05 -2.37556e-06 2.41176e-20 0.000114509 -9.77993e-21 0.000100884)
(8.02189e-05 -3.70918e-06 -6.33715e-21 0.000102351 9.6207e-21 9.04126e-05)
(7.11895e-05 -4.62103e-06 -3.56647e-20 8.94983e-05 7.56594e-21 7.94251e-05)
(6.25237e-05 -5.00533e-06 4.78517e-20 7.72109e-05 -2.71229e-21 6.88527e-05)
(5.49065e-05 -5.03151e-06 3.64287e-21 6.6512e-05 -2.18919e-21 5.95831e-05)
(4.84981e-05 -4.86089e-06 6.91863e-22 5.75933e-05 -2.08482e-22 5.17992e-05)
(4.30827e-05 -4.5564e-06 1.67965e-21 5.0174e-05 2.34102e-23 4.52322e-05)
(3.85176e-05 -4.16571e-06 -1.75516e-20 4.40707e-05 -5.07164e-22 3.97192e-05)
(3.45135e-05 -3.71123e-06 -9.993e-21 3.88883e-05 -4.58859e-22 3.49578e-05)
(3.03772e-05 -3.21997e-06 5.09956e-20 3.36722e-05 2.26959e-21 3.02338e-05)
(2.57332e-05 -2.68057e-06 3.86708e-20 2.79072e-05 6.34262e-22 2.51508e-05)
(1.46355e-05 -1.06771e-06 -1.57677e-20 1.51462e-05 -1.58506e-21 1.41843e-05)
(1.44746e-05 -1.26311e-06 2.36975e-20 1.44199e-05 2.92772e-21 1.36075e-05)
(0.000583946 1.5627e-05 -9.95479e-22 0.000454425 -9.24751e-21 0.000519189)
(0.000555248 2.85649e-05 -1.67864e-20 0.000440914 7.4554e-21 0.000497965)
(0.000521624 3.91212e-05 1.98851e-20 0.000428177 1.63117e-20 0.00047483)
(0.000483678 4.62559e-05 4.30393e-20 0.000414831 1.72407e-20 0.000449238)
(0.0004421 4.95083e-05 2.88631e-20 0.000399041 -1.14065e-21 0.00042057)
(0.000398782 4.9123e-05 -1.00452e-20 0.000380124 7.86986e-21 0.000389485)
(0.00035577 4.58106e-05 -3.88896e-20 0.00035796 -1.37382e-20 0.000356905)
(0.000314792 4.05831e-05 2.85107e-20 0.00033309 1.75843e-20 0.000323983)
(0.000276838 3.4411e-05 1.61493e-21 0.000306436 -2.08571e-20 0.00029169)
(0.00024232 2.80455e-05 1.33375e-21 0.000278875 -9.40204e-21 0.000260658)
(0.000211482 2.20528e-05 -2.28568e-20 0.000251366 8.82863e-21 0.000231489)
(0.000184346 1.674e-05 1.38001e-20 0.000224896 1.24534e-20 0.000204699)
(0.000160777 1.22469e-05 5.69246e-20 0.000200171 3.54675e-21 0.000180574)
(0.000140558 8.56011e-06 -2.1594e-20 0.000177717 1.71931e-22 0.000159267)
(0.000123421 5.57875e-06 -4.35906e-21 0.000157817 -3.85914e-22 0.000140784)
(0.000108984 3.14966e-06 -3.04223e-20 0.000140439 1.81795e-20 0.00012492)
(9.68627e-05 1.127e-06 -2.23699e-20 0.000125365 3.33474e-21 0.000111368)
(8.65937e-05 -6.19502e-07 2.54537e-20 0.00011214 5.53961e-21 9.96646e-05)
(7.76392e-05 -2.16818e-06 -5.9946e-20 0.000100108 6.37903e-21 8.92133e-05)
(6.9253e-05 -3.49674e-06 2.05516e-20 8.82991e-05 -9.13613e-23 7.91709e-05)
(6.09586e-05 -4.43208e-06 3.94619e-20 7.62485e-05 1.11473e-22 6.90614e-05)
(5.31041e-05 -4.8791e-06 -1.64797e-20 6.47318e-05 -3.57504e-21 5.94132e-05)
(4.62104e-05 -4.96319e-06 -1.76898e-20 5.45757e-05 3.50445e-22 5.0927e-05)
(4.04593e-05 -4.82495e-06 -4.21147e-21 4.5996e-05 1.96042e-22 4.38258e-05)
(3.57331e-05 -4.52985e-06 -5.05805e-22 3.88192e-05 2.0051e-23 3.79585e-05)
(3.1967e-05 -4.11754e-06 2.07046e-21 3.29588e-05 2.2327e-22 3.32432e-05)
(2.92884e-05 -3.63636e-06 -2.74651e-20 2.85034e-05 -1.27254e-21 2.97996e-05)
(2.76864e-05 -3.14076e-06 6.33839e-20 2.54821e-05 4.40089e-21 2.75953e-05)
(2.65903e-05 -2.63358e-06 2.51994e-21 2.33611e-05 6.29721e-22 2.60317e-05)
(2.51035e-05 -2.07074e-06 4.06809e-20 2.13454e-05 3.71984e-21 2.42076e-05)
(1.79069e-05 -9.53294e-07 1.221e-20 1.55015e-05 3.30029e-22 1.72223e-05)
(0.000482969 1.13872e-05 -5.67572e-22 0.000375239 2.83772e-21 0.000429064)
(0.000461316 2.20861e-05 -2.98321e-21 0.000364951 -2.24536e-20 0.000413048)
(0.000435988 3.10809e-05 -8.09747e-20 0.00035565 -3.47447e-20 0.000395787)
(0.000407075 3.74687e-05 1.85338e-20 0.000346036 2.62592e-20 0.000376539)
(0.000375319 4.08324e-05 -5.23788e-21 0.000334829 1.89318e-21 0.000355059)
(0.000342188 4.13447e-05 4.30758e-20 0.000321598 1.30211e-20 0.000331908)
(0.000308995 3.94511e-05 -3.96247e-21 0.000305986 1.40084e-20 0.000307513)
(0.000276965 3.58489e-05 1.86104e-20 0.000288188 -6.4506e-21 0.000282598)
(0.00024681 3.12429e-05 -1.70361e-20 0.000268678 5.55007e-21 0.000257776)
(0.000218887 2.62148e-05 -2.89517e-20 0.000247992 8.37271e-21 0.000233474)
(0.00019349 2.12423e-05 8.18785e-21 0.000226803 3.30662e-21 0.000210171)
(0.000170769 1.6633e-05 1.29206e-20 0.000205911 -5.03934e-21 0.000188353)
(0.000150719 1.25666e-05 1.23957e-20 0.000185917 -2.13339e-20 0.000168316)
(0.000133284 9.09852e-06 1.63329e-20 0.000167358 5.24442e-21 0.000150298)
(0.000118314 6.20344e-06 -1.5194e-20 0.000150558 8.155e-21 0.000134389)
(0.000105548 3.78981e-06 5.72231e-20 0.000135595 1.51254e-21 0.000120499)
(9.46687e-05 1.75452e-06 -1.37929e-20 0.000122333 7.43174e-21 0.000108402)
(8.52933e-05 -3.08398e-09 2.70227e-20 0.000110448 -9.76429e-21 9.77457e-05)
(7.69666e-05 -1.54566e-06 4.05082e-20 9.94226e-05 1.848e-21 8.80453e-05)
(6.91089e-05 -2.86247e-06 6.98763e-22 8.85433e-05 -8.10716e-21 7.86619e-05)
(6.13554e-05 -3.82669e-06 -1.11332e-20 7.7471e-05 -6.24825e-21 6.92388e-05)
(5.39537e-05 -4.3533e-06 -1.02143e-20 6.67933e-05 1.3507e-21 6.01666e-05)
(4.72864e-05 -4.5286e-06 2.11476e-21 5.71813e-05 4.97143e-23 5.1984e-05)
(4.14714e-05 -4.47657e-06 4.28567e-21 4.88243e-05 1.39761e-22 4.4863e-05)
(3.63722e-05 -4.26471e-06 1.74841e-21 4.15693e-05 -1.83462e-23 3.86496e-05)
(3.1861e-05 -3.93616e-06 4.96943e-21 3.52856e-05 1.46855e-22 3.32033e-05)
(2.79075e-05 -3.53911e-06 1.9215e-20 2.99414e-05 1.18384e-21 2.84889e-05)
(2.44328e-05 -3.11134e-06 -1.10908e-19 2.53971e-05 -7.04545e-21 2.44093e-05)
(2.13795e-05 -2.68204e-06 -4.38829e-20 2.14961e-05 -2.9002e-21 2.08793e-05)
(1.87933e-05 -2.26384e-06 -2.71455e-21 1.81809e-05 -2.11214e-21 1.79013e-05)
(1.68978e-05 -1.8929e-06 -6.14359e-20 1.558e-05 -6.91582e-21 1.56567e-05)
(0.00041619 -1.15772e-06 -3.27335e-20 0.000321551 -2.35933e-20 0.000368869)
(0.000403611 8.34124e-06 -1.91758e-20 0.000313177 -1.27101e-20 0.000358349)
(0.00038708 1.72769e-05 -4.9613e-21 0.000305257 1.81222e-22 0.000346107)
(0.000367586 2.49758e-05 1.09729e-20 0.000298274 2.949e-20 0.000332922)
(0.000345146 3.06383e-05 2.7376e-20 0.000291174 1.5774e-20 0.00031815)
(0.000320575 3.39179e-05 1.95229e-20 0.000283134 -1.26228e-20 0.000301838)
(0.000294929 3.49424e-05 -2.51651e-20 0.000273813 -1.52893e-20 0.000284375)
(0.000269093 3.39945e-05 5.54292e-20 0.00026278 8.90348e-22 0.000265944)
(0.000243913 3.15615e-05 -7.50043e-21 0.000250014 -2.31517e-20 0.00024697)
(0.000219883 2.81587e-05 4.71342e-20 0.000235733 8.45049e-21 0.000227823)
(0.000197269 2.42286e-05 3.51394e-20 0.000220214 4.2852e-21 0.000208763)
(0.000176317 2.01566e-05 -1.73265e-20 0.000203873 -6.32536e-21 0.000190115)
(0.000157174 1.62152e-05 2.85757e-21 0.000187272 -7.47897e-21 0.000172245)
(0.000139924 1.25956e-05 -4.41548e-20 0.000170907 2.55278e-21 0.000155437)
(0.000124567 9.38881e-06 -6.10005e-21 0.000155221 -4.89576e-21 0.000139916)
(0.000111053 6.61689e-06 3.07446e-20 0.000140553 1.07976e-21 0.000125825)
(9.92534e-05 4.24395e-06 7.0012e-22 0.000127076 -7.88071e-21 0.00011319)
(8.89743e-05 2.20884e-06 2.65599e-20 0.000114792 4.34528e-21 0.000101914)
(7.99515e-05 4.40333e-07 -3.03169e-20 0.000103524 -4.23507e-21 9.17752e-05)
(7.18539e-05 -1.10414e-06 -2.29144e-20 9.29294e-05 -4.33412e-21 8.24392e-05)
(6.42814e-05 -2.41614e-06 -4.55344e-20 8.25388e-05 1.71234e-21 7.34748e-05)
(5.69662e-05 -3.40236e-06 -3.41038e-20 7.21188e-05 4.84709e-21 6.46306e-05)
(5.00378e-05 -3.98804e-06 -3.60362e-21 6.20629e-05 6.88868e-22 5.61515e-05)
(4.37954e-05 -4.23151e-06 -1.30148e-20 5.29342e-05 5.26098e-22 4.84723e-05)
(3.83646e-05 -4.23768e-06 -4.00118e-22 4.49495e-05 -2.3506e-22 4.17809e-05)
(3.36633e-05 -4.07264e-06 -1.65627e-21 3.80247e-05 -1.15497e-22 3.5992e-05)
(2.95944e-05 -3.7785e-06 -5.8847e-22 3.20638e-05 -1.95341e-22 3.10018e-05)
(2.61422e-05 -3.40019e-06 1.36323e-20 2.70384e-05 3.57261e-22 2.67926e-05)
(2.3357e-05 -2.98071e-06 4.16333e-22 2.29658e-05 -6.56752e-22 2.34003e-05)
(2.12359e-05 -2.55004e-06 8.95882e-20 1.98211e-05 7.39579e-21 2.07975e-05)
(1.97768e-05 -2.12647e-06 -1.43257e-19 1.75381e-05 -1.1636e-20 1.89406e-05)
(1.89844e-05 -1.72155e-06 8.4447e-21 1.60538e-05 4.79145e-21 1.78102e-05)
(0.000340278 6.12592e-06 -5.84559e-20 0.000263763 -3.95014e-21 0.000301979)
(0.000327478 1.36546e-05 8.38397e-20 0.000257571 6.21195e-20 0.000292483)
(0.000312188 2.02657e-05 5.18311e-20 0.000252185 5.32661e-21 0.000282189)
(0.00029455 2.52643e-05 3.65466e-20 0.00024687 -7.31505e-21 0.000270702)
(0.000275303 2.83639e-05 -5.93041e-20 0.000241053 -2.3281e-20 0.000258163)
(0.000255213 2.96555e-05 -3.69524e-20 0.000234433 -5.72181e-21 0.000244824)
(0.000234913 2.9328e-05 -7.44352e-20 0.000226601 -2.0994e-20 0.000230757)
(0.000215 2.7731e-05 -7.61462e-20 0.000217435 5.15249e-21 0.000216218)
(0.000195789 2.52436e-05 -3.5984e-20 0.000206987 -1.13158e-20 0.000201397)
(0.000177458 2.21977e-05 1.134e-20 0.000195376 5.67193e-22 0.000186431)
(0.000160226 1.88988e-05 -7.37607e-21 0.000182868 1.87719e-21 0.00017156)
(0.000144224 1.55777e-05 -1.94434e-20 0.000169846 7.67355e-21 0.000157049)
(0.000129543 1.24087e-05 2.1466e-20 0.000156666 3.74999e-21 0.000143116)
(0.000116252 9.50113e-06 -2.644e-20 0.000143715 -6.49053e-21 0.000129991)
(0.000104348 6.90891e-06 -2.44122e-21 0.000131284 -6.10868e-21 0.000117818)
(9.37749e-05 4.62871e-06 8.63061e-21 0.000119578 -5.80865e-21 0.000106672)
(8.44183e-05 2.63582e-06 2.58136e-20 0.000108664 -1.04618e-20 9.65301e-05)
(7.60913e-05 8.89339e-07 -1.11463e-20 9.84531e-05 5.73704e-22 8.72547e-05)
(6.85491e-05 -6.36693e-07 -6.44419e-21 8.87243e-05 1.11104e-20 7.8614e-05)
(6.15084e-05 -1.93548e-06 -6.88207e-21 7.9175e-05 1.01906e-20 7.03167e-05)
(5.4757e-05 -2.9348e-06 2.53225e-20 6.96355e-05 2.85245e-21 6.21734e-05)
(4.8374e-05 -3.57108e-06 -4.00129e-22 6.04018e-05 2.78816e-21 5.4359e-05)
(4.25786e-05 -3.88242e-06 8.66927e-21 5.19298e-05 1.12951e-21 4.72105e-05)
(3.74676e-05 -3.95452e-06 -1.18236e-21 4.44241e-05 1.2244e-22 4.08907e-05)
(3.29718e-05 -3.85078e-06 -9.33e-22 3.78342e-05 1.77268e-23 3.53394e-05)
(2.89957e-05 -3.61341e-06 -3.39183e-21 3.20761e-05 -1.30302e-22 3.04602e-05)
(2.5506e-05 -3.28656e-06 -1.42624e-20 2.71193e-05 -6.99841e-22 2.62205e-05)
(2.24893e-05 -2.91102e-06 -3.80664e-20 2.29271e-05 -2.4516e-21 2.25963e-05)
(1.99233e-05 -2.51461e-06 2.82168e-21 1.94212e-05 3.27743e-22 1.95439e-05)
(1.78983e-05 -2.12028e-06 1.29869e-19 1.6613e-05 1.47127e-20 1.71142e-05)
(1.64079e-05 -1.71701e-06 9.30693e-20 1.44462e-05 4.6244e-21 1.52887e-05)
(0.000278984 1.08838e-05 -7.74522e-20 0.000218936 -4.05072e-20 0.000248935)
(0.000266811 1.65816e-05 -5.84957e-20 0.000214694 -8.80904e-21 0.000240759)
(0.000252788 2.0988e-05 4.43096e-20 0.000210669 3.3786e-20 0.000231723)
(0.000237573 2.38644e-05 7.21241e-20 0.000206454 1.49947e-20 0.000221997)
(0.000221664 2.52742e-05 1.2002e-20 0.00020173 -1.30486e-21 0.000211697)
(0.000205567 2.53467e-05 5.36666e-20 0.000196149 3.42007e-20 0.000200858)
(0.000189701 2.43414e-05 6.87711e-20 0.000189556 2.58389e-20 0.000189625)
(0.00017428 2.25428e-05 -2.54217e-20 0.000181925 -6.85076e-21 0.000178105)
(0.00015942 2.02026e-05 1.55137e-20 0.00017328 -2.14391e-22 0.000166358)
(0.000145264 1.75554e-05 -5.16083e-21 0.000163747 2.38616e-21 0.000154513)
(0.000131912 1.47862e-05 3.83844e-20 0.000153584 1.47499e-21 0.000142758)
(0.000119455 1.205e-05 -1.45988e-20 0.000143028 3.76464e-23 0.000131251)
(0.000107962 9.45303e-06 -3.74466e-20 0.000132364 1.37971e-20 0.000120172)
(9.74785e-05 7.06465e-06 -1.40114e-20 0.000121855 1.37309e-21 0.000109674)
(8.79894e-05 4.90968e-06 -3.28634e-20 0.000111689 5.28066e-21 9.98443e-05)
(7.94308e-05 2.98834e-06 -3.47319e-20 0.000101958 -1.47434e-22 9.06981e-05)
(7.16893e-05 1.28274e-06 -3.72769e-20 9.2652e-05 7.00118e-21 8.21739e-05)
(6.46021e-05 -2.17346e-07 6.17107e-20 8.36519e-05 -6.22644e-21 7.41315e-05)
(5.7976e-05 -1.49935e-06 4.74917e-20 7.47759e-05 -1.66655e-21 6.63846e-05)
(5.16699e-05 -2.50575e-06 8.10382e-21 6.59374e-05 -5.04212e-21 5.88204e-05)
(4.57337e-05 -3.18257e-06 3.15798e-20 5.73659e-05 -3.12729e-21 5.1571e-05)
(4.03226e-05 -3.55094e-06 7.13742e-21 4.94252e-05 -1.53725e-21 4.48934e-05)
(3.55229e-05 -3.67979e-06 2.09302e-21 4.23174e-05 3.14758e-22 3.89412e-05)
(3.12945e-05 -3.62735e-06 -1.61962e-22 3.60371e-05 1.04292e-22 3.36932e-05)
(2.75692e-05 -3.43482e-06 -1.80653e-22 3.05353e-05 1.25932e-22 2.90861e-05)
(2.43255e-05 -3.14379e-06 7.12515e-21 2.57995e-05 5.82084e-22 2.51025e-05)
(2.15776e-05 -2.79468e-06 1.02444e-20 2.18223e-05 9.7492e-22 2.17492e-05)
(1.93376e-05 -2.41711e-06 2.07261e-20 1.85899e-05 1.62617e-21 1.90203e-05)
(1.76693e-05 -2.0341e-06 4.57077e-20 1.61025e-05 8.65838e-22 1.69433e-05)
(1.65282e-05 -1.63636e-06 -1.64856e-19 1.42752e-05 -2.01088e-20 1.54629e-05)
(0.000229296 1.36665e-05 1.85497e-20 0.000183884 9.92434e-21 0.000206596)
(0.000218009 1.75521e-05 2.72477e-20 0.000180787 -1.52025e-20 0.000199395)
(0.00020587 2.01885e-05 -9.25581e-20 0.000177726 -4.51109e-20 0.000191785)
(0.000193168 2.16242e-05 -7.54403e-20 0.000174358 3.8772e-22 0.00018376)
(0.000180272 2.19488e-05 1.52966e-20 0.00017037 -2.04121e-21 0.000175319)
(0.000167553 2.13608e-05 6.5196e-20 0.000165634 -1.13656e-20 0.000166589)
(0.000155127 2.00785e-05 -1.88732e-20 0.000160072 4.53905e-21 0.0001576)
(0.000143041 1.82911e-05 -1.00632e-20 0.000153644 -7.76301e-22 0.000148348)
(0.000131416 1.61812e-05 -2.58715e-21 0.000146419 -4.10048e-21 0.000138921)
(0.000120311 1.38956e-05 -1.31833e-20 0.000138542 -1.76005e-22 0.000129432)
(0.000109787 1.15603e-05 2.95446e-20 0.000130154 3.15292e-21 0.000119977)
(9.99169e-05 9.27271e-06 5.69146e-20 0.000121468 1.29394e-20 0.000110698)
(9.07493e-05 7.10599e-06 8.63486e-21 0.000112674 3.92708e-21 0.000101716)
(8.23107e-05 5.09984e-06 4.06549e-20 0.000103954 4.01711e-21 9.31357e-05)
(7.45841e-05 3.2747e-06 1.73819e-20 9.54187e-05 4.70795e-21 8.50019e-05)
(6.7501e-05 1.63058e-06 2.85094e-20 8.7094e-05 1.64579e-21 7.72947e-05)
(6.09476e-05 1.71482e-07 -4.04729e-20 7.89165e-05 -6.74823e-21 6.99277e-05)
(5.47985e-05 -1.08624e-06 -6.18245e-21 7.07922e-05 -9.28408e-21 6.27921e-05)
(4.89765e-05 -2.09276e-06 -2.43231e-20 6.2709e-05 -5.28821e-23 5.58425e-05)
(4.35078e-05 -2.80005e-06 -3.38603e-20 5.48448e-05 -9.46892e-23 4.91766e-05)
(3.85031e-05 -3.21881e-06 -1.54155e-20 4.74943e-05 -4.18698e-22 4.29941e-05)
(3.40304e-05 -3.40183e-06 3.65736e-21 4.08457e-05 -3.03049e-22 3.74293e-05)
(3.00631e-05 -3.40164e-06 1.77693e-21 3.49212e-05 -5.33392e-23 3.24821e-05)
(2.65448e-05 -3.25784e-06 1.78063e-21 2.96933e-05 3.88331e-22 2.81067e-05)
(2.34506e-05 -3.00981e-06 -2.33064e-22 2.51522e-05 -2.98927e-22 2.42849e-05)
(2.07845e-05 -2.69651e-06 -2.35771e-21 2.12927e-05 7.12962e-22 2.10171e-05)
(1.85442e-05 -2.34666e-06 -2.90278e-21 1.80812e-05 -2.73191e-21 1.82864e-05)
(1.67953e-05 -1.98149e-06 -8.04204e-20 1.55216e-05 -4.73346e-21 1.61263e-05)
(1.55498e-05 -1.59712e-06 8.0672e-21 1.35803e-05 7.8184e-21 1.45365e-05)
(0.000188848 1.47609e-05 -1.03711e-19 0.000155915 -4.21015e-20 0.000172379)
(0.000179028 1.71631e-05 2.19719e-20 0.00015366 3.03934e-20 0.000166336)
(0.00016884 1.85714e-05 5.57594e-20 0.000151297 8.71341e-21 0.000160065)
(0.000158416 1.90451e-05 -6.86898e-20 0.000148434 -2.64024e-20 0.000153423)
(0.000148143 1.87483e-05 -6.71629e-20 0.000145034 -5.94084e-21 0.000146585)
(0.00013808 1.78501e-05 3.91437e-20 0.000140995 8.43868e-21 0.000139536)
(0.000128239 1.6496e-05 1.98759e-20 0.000136248 -5.51866e-22 0.000132246)
(0.000118681 1.48245e-05 -3.47311e-20 0.000130786 -1.42322e-21 0.000124735)
(0.000109446 1.29501e-05 3.0372e-20 0.000124707 9.46422e-22 0.00011708)
(0.00010058 1.09758e-05 -2.10316e-20 0.000118084 -9.4488e-21 0.000109337)
(9.21396e-05 8.9854e-06 5.19345e-20 0.000111057 -1.00213e-20 0.000101603)
(8.41703e-05 7.04671e-06 2.08049e-20 0.000103762 -3.65169e-21 9.39709e-05)
(7.67071e-05 5.2048e-06 -2.38201e-21 9.63442e-05 -7.83259e-21 8.65292e-05)
(6.97609e-05 3.49263e-06 7.99079e-21 8.89067e-05 -3.45484e-21 7.93358e-05)
(6.32991e-05 1.92523e-06 -7.79355e-21 8.14967e-05 -4.69241e-21 7.23982e-05)
(5.72577e-05 5.18375e-07 -2.62363e-21 7.41026e-05 5.01414e-21 6.56801e-05)
(5.15677e-05 -7.06707e-07 -4.92643e-20 6.66986e-05 5.43547e-21 5.91343e-05)
(4.61881e-05 -1.70617e-06 6.19714e-22 5.93104e-05 2.9273e-21 5.27535e-05)
(4.1143e-05 -2.43531e-06 2.33757e-20 5.20939e-05 3.18042e-21 4.66249e-05)
(3.65083e-05 -2.89559e-06 2.40615e-22 4.52865e-05 1.39119e-21 4.09023e-05)
(3.23402e-05 -3.12671e-06 -4.33119e-21 3.90645e-05 -8.67208e-23 3.57061e-05)
(2.8625e-05 -3.17412e-06 -2.37594e-21 3.34736e-05 -8.48463e-23 3.10542e-05)
(2.53209e-05 -3.07489e-06 7.66438e-21 2.85077e-05 3.7698e-23 2.69208e-05)
(2.24098e-05 -2.86571e-06 -5.16362e-21 2.41706e-05 -4.81532e-22 2.32975e-05)
(1.99031e-05 -2.58392e-06 3.81511e-20 2.047e-05 4.23526e-21 2.01953e-05)
(1.78106e-05 -2.25816e-06 -8.88539e-20 1.73948e-05 -7.58247e-21 1.76129e-05)
(1.61882e-05 -1.90901e-06 1.32703e-19 1.49515e-05 1.06238e-20 1.55779e-05)
(1.50477e-05 -1.53552e-06 6.32236e-20 1.311e-05 9.21822e-21 1.40905e-05)
(0.00015622 1.46539e-05 5.7671e-21 0.000133388 3.70998e-21 0.000144797)
(0.000147904 1.59991e-05 -3.62897e-20 0.00013169 -1.4084e-20 0.000139796)
(0.000139482 1.65618e-05 4.52946e-21 0.000129697 2.05982e-20 0.000134584)
(0.000131117 1.6465e-05 3.73552e-20 0.000127258 7.64021e-21 0.000129183)
(0.000122929 1.58509e-05 -4.25285e-20 0.000124338 -1.18376e-20 0.000123632)
(0.000114889 1.4832e-05 8.07824e-21 0.000120841 6.57491e-22 0.000117866)