/*--------------------------------*- C++ -*----------------------------------*\
| =========                 |                                                 |
| \\      /  F ield         | OpenFOAM: The Open Source CFD Toolbox           |
|  \\    /   O peration     | Version:  2506                                  |
|   \\  /    A nd           | Website:  www.openfoam.com                      |
|    \\/     M anipulation  |                                                 |
\*---------------------------------------------------------------------------*/
FoamFile
{
    version     2.0;
    format      ascii;
    arch        "LSB;label=32;scalar=64";
    class       volScalarField;
    location    "150";
    object      turbulenceProperties:L;
}
// * * * * * * * * * * * * * * * * * * * * * * * * * * * * * * * * * * * * * //

dimensions      [0 1 0 0 0 0 0];

internalField   nonuniform List<scalar> 
1340
(
0.00407114
0.00380839
0.00328847
0.00282367
0.00249912
0.00231318
0.00225234
0.00230284
0.00245483
0.00270722
0.00307052
0.00357156
0.00424982
0.00519123
0.00647566
0.00836732
0.0110011
0.0152819
0.0213898
0.0318175
0.044411
0.0517478
0.0544297
0.0552236
0.0555458
0.0557507
0.0558905
0.0559953
0.00471713
0.00500645
0.00535007
0.00578385
0.00629769
0.00687282
0.00751452
0.0082396
0.00906102
0.009989
0.0110577
0.0123089
0.013888
0.0161154
0.0200292
0.0287766
0.0619641
0.267433
0.0442253
0.0111001
0.0238869
0.0621272
0.111289
0.159101
0.195967
0.215866
0.221732
0.220317
0.216405
0.00526958
0.00554721
0.00585602
0.00625876
0.0067893
0.00744578
0.00822809
0.00914792
0.0101915
0.0113456
0.0125643
0.0137904
0.0149319
0.0159352
0.0167403
0.0173106
0.0176222
0.0177549
0.0177146
0.0176931
0.01725
0.0232583
0.0172053
0.0485265
0.107444
0.179432
0.221616
0.24033
0.250712
0.00573211
0.00594553
0.0061968
0.00650698
0.00690596
0.00739356
0.00795203
0.00856945
0.00924081
0.00995276
0.0106959
0.0114504
0.0121997
0.0129203
0.0136122
0.0142648
0.0148936
0.0155374
0.0163213
0.0172717
0.0181971
0.0190108
0.0196201
0.0207945
0.0213885
0.0296622
0.0337187
0.0506026
0.175697
0.232181
0.00642804
0.00663188
0.00687346
0.00717026
0.00754346
0.00799663
0.00852818
0.00914028
0.00983995
0.0106285
0.011504
0.0124571
0.0134708
0.014516
0.015569
0.0166003
0.0176014
0.0185933
0.0197117
0.021094
0.0226763
0.0242006
0.0254284
0.0259338
0.027097
0.0242584
0.0857607
0.0229471
0.0414204
0.0301235
0.00699071
0.00715346
0.00734942
0.00758263
0.00787011
0.00822498
0.00865069
0.00914618
0.00971004
0.010343
0.0110417
0.0117966
0.0125945
0.0134184
0.0142485
0.0150699
0.0158748
0.0166751
0.0175105
0.0184877
0.0197127
0.02115
0.0227047
0.0243097
0.0259568
0.027621
0.0293442
0.0314563
0.0343978
0.0465067
0.0468209
0.00773908
0.00790165
0.00809211
0.00831977
0.00859881
0.00893566
0.00933474
0.00979765
0.010326
0.0109236
0.0115917
0.0123273
0.0131258
0.0139776
0.0148687
0.0157873
0.0167238
0.0176828
0.0186952
0.0198535
0.0212689
0.0229443
0.0248005
0.0267632
0.0287999
0.0308326
0.032642
0.0339957
0.0350453
0.0363119
0.04311
0.00851286
0.008676
0.00886358
0.00908746
0.00935836
0.00967957
0.0100563
0.0104903
0.010984
0.0115417
0.0121646
0.0128497
0.0135927
0.0143839
0.0152105
0.016062
0.0169329
0.01783
0.018784
0.0198704
0.0211765
0.0227103
0.0244215
0.0262751
0.0282903
0.0304942
0.0328761
0.0354541
0.0382593
0.0412385
0.044048
0.00918153
0.00931489
0.00947802
0.00966441
0.00988627
0.0101499
0.0104572
0.0108135
0.0112213
0.0116835
0.0122054
0.0127901
0.0134373
0.0141453
0.0149094
0.0157223
0.016577
0.0174705
0.018411
0.0194268
0.02058
0.0219467
0.0235492
0.0253498
0.0273115
0.0294377
0.0317345
0.0341596
0.0365852
0.0388435
0.040731
0.0420281
0.010147
0.0103104
0.0104974
0.0107177
0.0109748
0.0112701
0.0116086
0.0119926
0.0124263
0.0129156
0.0134638
0.0140722
0.0147413
0.0154675
0.0162468
0.0170743
0.0179485
0.018878
0.0198879
0.0210283
0.0223631
0.0239155
0.0256591
0.0275672
0.0296493
0.0319289
0.0344023
0.0370415
0.0398084
0.0425178
0.0449711
0.0111761
0.0113648
0.0115841
0.011835
0.0121198
0.0124426
0.0128058
0.0132137
0.0136724
0.0141869
0.0147596
0.0153931
0.0160871
0.0168394
0.0176489
0.0185174
0.0194543
0.0204826
0.0216454
0.0229965
0.0245609
0.0263247
0.0282663
0.0303911
0.0327139
0.0352196
0.0378465
0.0404806
0.0428974
0.044911
0.0122685
0.0124879
0.0127331
0.0130084
0.013318
0.0136624
0.0140469
0.0144785
0.0149617
0.0155006
0.0160999
0.0167611
0.0174855
0.0182732
0.0191275
0.0200582
0.0210883
0.0222545
0.0235992
0.0251481
0.0268947
0.0288238
0.0309406
0.0332608
0.03578
0.0384572
0.0412237
0.0438908
0.0462293
0.0134308
0.0136725
0.013938
0.0142366
0.0145648
0.0149283
0.0153345
0.0157894
0.0162976
0.0168649
0.0174951
0.0181918
0.0189579
0.0197987
0.0207256
0.0217598
0.0229328
0.0242808
0.025828
0.0275757
0.0295142
0.0316486
0.0339929
0.036542
0.0392505
0.0420323
0.0446934
0.0469989
0.0146541
0.0149142
0.0152001
0.0155147
0.0158594
0.0162428
0.0166713
0.0171508
0.0176887
0.0182898
0.0189595
0.0197033
0.020529
0.0214484
0.0224818
0.0236557
0.0250011
0.0265419
0.0282832
0.0302212
0.0323618
0.0347187
0.0372902
0.0400371
0.0428891
0.0456699
0.048149
0.0159379
0.0162106
0.0165144
0.0168428
0.0172054
0.0176103
0.0180638
0.0185741
0.0191481
0.0197928
0.0205154
0.0213246
0.0222336
0.0232629
0.0244382
0.0257844
0.0273226
0.0290627
0.0310065
0.0331618
0.035542
0.0381477
0.0409426
0.0438576
0.0467202
0.0493072
0.0170081
0.0172772
0.0175649
0.0178797
0.0182249
0.0186087
0.0190396
0.0195253
0.0200742
0.0206947
0.0213957
0.0221881
0.0230859
0.0241099
0.0252829
0.0266275
0.0281631
0.029903
0.0318533
0.0340242
0.0364298
0.039074
0.0419256
0.0449245
0.0479101
0.0506666
0.0183974
0.0186705
0.0189753
0.0193052
0.0196706
0.0200807
0.0205444
0.0210696
0.0216669
0.0223465
0.0231211
0.0240067
0.0250242
0.0261948
0.0275379
0.0290734
0.0308154
0.0327748
0.0349645
0.0374005
0.0400901
0.0430081
0.0461015
0.0492201
0.0521567
0.0195709
0.0198403
0.0201306
0.0204489
0.0207991
0.0211909
0.021634
0.0221372
0.0227121
0.0233714
0.0241285
0.0250003
0.0260089
0.0271765
0.0285205
0.0300562
0.0318009
0.0337696
0.035979
0.038447
0.0411855
0.0441768
0.0473774
0.0506511
0.053804
0.0210736
0.0213503
0.0216609
0.0219971
0.0223713
0.0227949
0.0232782
0.0238329
0.0244726
0.0252134
0.0260732
0.0270745
0.0282376
0.0295793
0.0311153
0.032864
0.034844
0.0370751
0.0395785
0.0423713
0.0454439
0.0487649
0.0522128
0.0556121
0.0223719
0.0226412
0.0229406
0.0232641
0.0236233
0.0240305
0.0244966
0.0250342
0.0256572
0.0263821
0.027229
0.028222
0.0293808
0.0307209
0.0322586
0.034013
0.036006
0.0382616
0.040805
0.043659
0.0468246
0.0502838
0.0539333
0.0576209
0.0237389
0.0240068
0.0242897
0.024606
0.0249547
0.0253484
0.0257995
0.0263212
0.0269285
0.0276396
0.0284745
0.029458
0.0306118
0.0319523
0.0334934
0.0352553
0.0372644
0.0395491
0.0421396
0.0450655
0.0483408
0.0519604
0.055846
0.0598728
0.0254477
0.0257176
0.0260309
0.0263699
0.0267509
0.0271892
0.0276979
0.0282919
0.0289896
0.0298134
0.030789
0.0319389
0.0332789
0.0348241
0.0365968
0.0386262
0.0409457
0.0435914
0.046601
0.0500029
0.0538091
0.0579734
0.0624046
0.0269625
0.0272381
0.0275353
0.0278691
0.0282431
0.0286719
0.02917
0.0297521
0.0304372
0.0312497
0.0322175
0.0333639
0.0347056
0.0362574
0.0380448
0.0400985
0.0424577
0.0451649
0.0482682
0.0518127
0.0558324
0.060321
0.0652315
0.0288422
0.0291282
0.0294649
0.0298329
0.030252
0.0307386
0.0313084
0.031982
0.0327853
0.0337478
0.0348939
0.0362405
0.0378031
0.0396065
0.0416878
0.0440909
0.0468663
0.050074
0.0537787
0.058041
0.0629049
0.0683844
0.0305364
0.030825
0.0311551
0.0315156
0.0319257
0.0324032
0.0329658
0.0336333
0.034432
0.0353921
0.0365394
0.0378911
0.039466
0.0412887
0.043402
0.0458554
0.0487093
0.0520366
0.055925
0.0604686
0.0657734
0.0719383
0.0323271
0.0326206
0.0329354
0.0332954
0.0337042
0.0341792
0.0347389
0.0354028
0.0361979
0.0371563
0.0383055
0.0396647
0.0412528
0.0430998
0.0452507
0.0477627
0.050707
0.0541711
0.0582705
0.0631433
0.0689712
0.0759732
0.0345161
0.0348216
0.035193
0.0356022
0.0360751
0.0366309
0.0372894
0.0380798
0.0390371
0.0401899
0.04156
0.0431668
0.045043
0.0472382
0.0498173
0.0528619
0.0564792
0.0608153
0.0660621
0.0725002
0.0805213
0.0365169
0.0368347
0.037205
0.0376131
0.0380826
0.0386341
0.0392908
0.0400815
0.0410426
0.0422041
0.043589
0.0452191
0.0471293
0.0493738
0.0520259
0.0551792
0.0589622
0.0635562
0.069217
0.0763509
0.0855958
0.038635
0.0389671
0.0393209
0.0397359
0.040209
0.040762
0.0414208
0.042216
0.0431841
0.0443571
0.0457605
0.0474163
0.0493641
0.0516624
0.0543932
0.0576639
0.0616247
0.0664983
0.0726141
0.0805337
0.0912347
0.0412137
0.041559
0.0419912
0.0424696
0.0430243
0.0436858
0.044487
0.0454651
0.0466527
0.048077
0.0497636
0.0517529
0.0541104
0.0569259
0.0603224
0.0644738
0.069647
0.076258
0.0850517
0.0974665
0.0435755
0.0439545
0.0443697
0.0448557
0.0454181
0.0460877
0.0468999
0.0478926
0.0490993
0.0505472
0.0522661
0.0542997
0.0567197
0.0596255
0.0631544
0.0675068
0.0729949
0.0801325
0.089877
0.104258
0.0464702
0.0468752
0.0473873
0.0479612
0.048641
0.0494645
0.0504703
0.0516944
0.0531671
0.0549198
0.0570016
0.0594886
0.062489
0.0661541
0.0707106
0.076519
0.0841904
0.0949155
0.111417
0.0491176
0.0495508
0.0500682
0.0506497
0.0513374
0.0521687
0.0531882
0.0544337
0.0559362
0.0577293
0.0598639
0.0624205
0.0655154
0.0693149
0.0740685
0.0801813
0.0883549
0.0999978
0.118529
0.0519169
0.0523753
0.0528768
0.053473
0.0541727
0.0550194
0.0560623
0.0573374
0.058874
0.0607075
0.0628927
0.065516
0.0687006
0.0726257
0.0775593
0.0839432
0.0925528
0.104955
0.125088
0.0553353
0.0558277
0.0564594
0.057177
0.0580427
0.0591074
0.0604074
0.0619733
0.0638432
0.0660751
0.0687601
0.072027
0.0760626
0.0811517
0.0877569
0.0966965
0.109605
0.130559
0.0584403
0.0589715
0.0596112
0.0603415
0.0612218
0.0623014
0.0636219
0.0652169
0.0671236
0.0694019
0.0721447
0.0754835
0.0796108
0.0848162
0.0915683
0.100684
0.113743
0.134466
0.0617163
0.0622784
0.0628994
0.0636501
0.0645463
0.0656446
0.0669937
0.0686223
0.0705669
0.0728869
0.0756763
0.0790683
0.0832561
0.0885241
0.0953287
0.104438
0.117251
0.136734
0.0657283
0.0663382
0.0671286
0.0680447
0.0691663
0.0705418
0.0721976
0.0741681
0.0765147
0.0793324
0.0827534
0.0869636
0.0922367
0.0989934
0.107914
0.12013
0.137669
0.0693311
0.0699855
0.0707819
0.0717114
0.0728483
0.0742369
0.0759078
0.0778958
0.0802595
0.0830911
0.0865175
0.0907135
0.0959307
0.102541
0.111098
0.122464
0.0731178
0.0738054
0.0745732
0.0755211
0.0766723
0.0780737
0.079761
0.0817652
0.084138
0.086967
0.090372
0.0945131
0.0996114
0.10598
0.114046
0.124388
0.0777691
0.0785166
0.0795032
0.0806688
0.0820844
0.0837833
0.0857887
0.0881509
0.0909523
0.0943028
0.0983446
0.103266
0.109318
0.116804
0.126072
0.0818885
0.0826821
0.0836633
0.0848331
0.0862523
0.0879414
0.0899282
0.0922621
0.0950147
0.098283
0.10219
0.106889
0.112571
0.119435
0.127657
0.0862045
0.0870244
0.08796
0.08914
0.0905541
0.0922245
0.0941894
0.0964875
0.0991777
0.102343
0.106088
0.110532
0.115813
0.12205
0.129304
0.0915128
0.0924161
0.0936163
0.0950198
0.096675
0.0986107
0.100856
0.103462
0.1065
0.110055
0.114218
0.119085
0.124713
0.131099
0.0961627
0.0970994
0.0982699
0.0996558
0.101283
0.103163
0.105331
0.107831
0.110722
0.114069
0.11794
0.122395
0.127454
0.133077
0.101014
0.101965
0.103066
0.104435
0.10602
0.107833
0.109916
0.112306
0.115043
0.118179
0.12176
0.125824
0.130364
0.135331
0.10698
0.108027
0.109384
0.110917
0.112667
0.114667
0.116941
0.11952
0.122441
0.12574
0.129436
0.13351
0.137915
0.112162
0.113225
0.114524
0.115999
0.117683
0.119589
0.121733
0.124141
0.126846
0.12987
0.133223
0.13688
0.140801
0.117575
0.118604
0.119847
0.121265
0.122866
0.124658
0.126659
0.128895
0.13139
0.134156
0.137194
0.140481
0.143987
0.123183
0.124203
0.125336
0.126698
0.128213
0.129886
0.13175
0.133829
0.136129
0.138656
0.141412
0.144376
0.14753
0.129974
0.131029
0.132341
0.133765
0.135333
0.13708
0.139009
0.141126
0.143435
0.14594
0.148621
0.151477
0.135958
0.137009
0.138229
0.139563
0.141042
0.142672
0.144455
0.146399
0.148509
0.150789
0.153211
0.155812
0.142243
0.14324
0.144384
0.145646
0.147029
0.148533
0.150174
0.151962
0.153893
0.155968
0.158181
0.148817
0.149801
0.150826
0.152026
0.153319
0.154708
0.156226
0.157876
0.159654
0.161553
0.16359
0.15668
0.157632
0.158782
0.159992
0.161293
0.162709
0.164239
0.165882
0.167628
0.169502
0.163951
0.164916
0.165983
0.167115
0.168345
0.169672
0.171093
0.172607
0.174217
0.175951
0.171722
0.17264
0.173649
0.174721
0.175879
0.177119
0.178434
0.179834
0.181324
0.182928
0.179962
0.180842
0.181789
0.182803
0.183883
0.185027
0.186243
0.187539
0.188914
0.190394
0.188639
0.189506
0.190333
0.191299
0.192306
0.193355
0.194474
0.195672
0.196942
0.198311
0.198542
0.199296
0.200214
0.201146
0.202116
0.203157
0.204269
0.205445
0.206726
0.207996
0.208772
0.209611
0.210478
0.211405
0.212386
0.213426
0.214516
0.215729
0.218063
0.218824
0.219639
0.220487
0.22139
0.222337
0.22333
0.224376
0.228935
0.229725
0.230564
0.231428
0.232335
0.23328
0.234254
0.235288
0.240875
0.241741
0.242633
0.243553
0.244493
0.245448
0.246424
0.247443
0.254037
0.255048
0.255954
0.25697
0.257967
0.258944
0.259929
0.260941
0.269593
0.270596
0.271718
0.272776
0.2738
0.274815
0.275838
0.285092
0.286293
0.287488
0.288623
0.289726
0.290796
0.291842
0.300247
0.301597
0.302936
0.304207
0.305427
0.306595
0.307715
0.314051
0.315561
0.317031
0.318433
0.319791
0.321088
0.322329
0.327947
0.329564
0.331143
0.332665
0.334156
0.335576
0.336958
0.343241
0.345038
0.3468
0.348521
0.350209
0.351766
0.353333
0.359603
0.361726
0.363885
0.366057
0.368208
0.37025
0.378161
0.380877
0.38365
0.386515
0.38937
0.392195
0.403236
0.407962
0.412685
0.417658
0.422472
0.426975
0.447342
0.456617
0.467054
0.478284
0.490069
0.507702
0.521481
0.534774
0.546782
0.556269
0.513504
0.52321
0.530878
0.536543
0.540132
0.369505
0.356404
0.34491
0.334979
0.326483
0.240505
0.23861
0.237161
0.236132
0.235453
0.171962
0.17094
0.17021
0.169749
0.1695
)
;

boundaryField
{
    inlet
    {
        type            calculated;
        value           nonuniform List<scalar> 5(0.105463 0.104066 0.102857 0.101818 0.100932);
    }
    outlet
    {
        type            calculated;
        value           nonuniform List<scalar> 0();
    }
    walls
    {
        type            calculated;
        value           uniform 0;
    }
    frontAndBack
    {
        type            empty;
    }
    procBoundary1to0
    {
        type            processor;
        value           nonuniform List<scalar> 
94
(
0.0100084
0.0100084
0.0110114
0.0110114
0.0120779
0.0120779
0.0132113
0.0132113
0.0144159
0.0144159
0.0156821
0.0156821
0.0167602
0.0181342
0.0181342
0.0193178
0.0208087
0.0208087
0.0221139
0.0234875
0.0251828
0.0251828
0.0267083
0.0285681
0.0285681
0.0302669
0.0320595
0.034221
0.034221
0.0362252
0.0383418
0.040878
0.040878
0.0432477
0.0460855
0.0460855
0.0487339
0.0515245
0.0548699
0.0548699
0.0579767
0.0612425
0.065159
0.065159
0.0687674
0.0725467
0.0770807
0.0770807
0.0812157
0.0855325
0.0907007
0.0907007
0.0953815
0.100252
0.106056
0.106056
0.111289
0.116727
0.122378
0.12901
0.12901
0.135069
0.141395
0.148023
0.155747
0.155747
0.163087
0.17088
0.179153
0.187891
0.197736
0.197736
0.207271
0.217342
0.228173
0.240034
0.253106
0.268465
0.268465
0.283861
0.298828
0.312496
0.3263
0.341428
0.357517
0.375567
0.398959
0.438905
0.438905
0.494161
0.502229
0.384623
0.242785
0.173324
)
;
    }
    procBoundary1to2
    {
        type            processor;
        value           nonuniform List<scalar> 
84
(
0.0560958
0.21196
0.257439
0.233244
0.0553551
0.0370916
0.115068
0.0482388
0.0419641
0.0457344
0.0453557
0.0471002
0.0479623
0.0493333
0.0506556
0.0522404
0.0539746
0.055913
0.0580553
0.0604534
0.063162
0.0662392
0.0697272
0.0736878
0.0782445
0.0835539
0.0897522
0.0969853
0.105468
0.115477
0.127257
0.140687
0.154626
0.166514
0.173116
0.173092
0.168636
0.162744
0.137671
0.137671
0.137407
0.137129
0.137026
0.137272
0.137922
0.138964
0.140458
0.142422
0.144797
0.147558
0.150749
0.1544
0.158439
0.160512
0.160512
0.165717
0.17146
0.177763
0.184604
0.191943
0.19975
0.208067
0.216955
0.225491
0.225491
0.23634
0.248453
0.261925
0.276804
0.292802
0.30872
0.323448
0.3382
0.354628
0.372208
0.372208
0.394886
0.431034
0.50212
0.562377
0.542324
0.319378
0.235028
0.169413
)
;
    }
    procBoundary1to5
    {
        type            processor;
        value           nonuniform List<scalar> 
13
(
0.00366451
0.00366451
0.00445378
0.00504375
0.00504375
0.00556486
0.00626735
0.00626735
0.00687123
0.00761586
0.00838424
0.00838424
0.00907738
)
;
    }
}


// ************************************************************************* //
