/*--------------------------------*- C++ -*----------------------------------*\
| =========                 |                                                 |
| \\      /  F ield         | OpenFOAM: The Open Source CFD Toolbox           |
|  \\    /   O peration     | Version:  2506                                  |
|   \\  /    A nd           | Website:  www.openfoam.com                      |
|    \\/     M anipulation  |                                                 |
\*---------------------------------------------------------------------------*/
FoamFile
{
    version     2.0;
    format      ascii;
    arch        "LSB;label=32;scalar=64";
    class       volScalarField;
    location    "500";
    object      div(phi);
}
// * * * * * * * * * * * * * * * * * * * * * * * * * * * * * * * * * * * * * //

dimensions      [0 0 -1 0 0 0 0];

internalField   nonuniform List<scalar> 
1340
(
8.42596e-07
-1.08882e-06
2.4494e-08
-1.84293e-06
1.96192e-06
9.64677e-07
-1.74549e-07
-6.42412e-07
-1.04121e-07
-3.26249e-07
9.71101e-07
2.31294e-07
-2.74832e-07
-2.17515e-07
-1.9282e-07
1.44681e-07
-2.121e-07
4.01865e-07
4.23637e-07
-1.59971e-08
-1.41786e-07
4.88326e-08
-7.3283e-08
1.49628e-07
-8.46145e-08
7.74707e-07
2.87586e-07
3.55978e-08
1.69816e-08
-3.05234e-08
1.49983e-07
-5.2936e-08
1.49462e-07
5.7331e-08
3.98064e-07
2.5449e-07
1.23208e-07
4.89598e-08
8.50521e-08
-4.31466e-08
1.13271e-07
-3.19671e-09
1.21237e-07
-5.91465e-08
-2.68516e-07
2.71044e-07
1.19483e-07
8.70531e-08
2.47471e-08
1.18306e-07
-4.74926e-08
8.78066e-08
2.71256e-08
3.39098e-09
-7.05931e-08
2.1866e-07
1.48696e-07
9.48486e-08
8.80464e-08
-3.01015e-08
7.64129e-08
-2.79149e-08
5.30458e-08
2.82955e-08
-3.90513e-08
-1.28265e-07
2.33848e-07
1.27857e-07
1.00607e-07
3.96201e-08
9.26304e-08
-4.54301e-08
4.36974e-08
-2.24978e-09
4.53256e-08
2.43632e-08
-3.42634e-08
1.85449e-07
1.38477e-07
9.75501e-08
7.76967e-08
-2.42582e-08
5.53634e-08
-4.79466e-08
4.89419e-08
2.34259e-08
5.10595e-08
-5.87209e-08
2.31766e-07
1.99932e-07
1.17531e-07
8.69178e-08
3.85926e-08
7.15074e-08
-5.0291e-08
2.6991e-08
-3.12488e-08
7.59548e-08
1.39172e-08
1.00021e-07
-1.1928e-07
1.5781e-07
1.16546e-07
8.60134e-08
6.26915e-08
-2.52606e-08
3.39034e-08
-6.206e-08
3.45476e-08
5.66003e-09
4.7276e-08
1.00597e-09
2.21186e-07
1.65761e-07
1.02576e-07
7.58571e-08
3.15972e-08
5.23127e-08
-5.38975e-08
1.36245e-08
-5.2265e-08
5.41237e-08
2.46381e-08
7.24181e-08
-9.91166e-08
1.6764e-07
1.41297e-07
9.8851e-08
7.17985e-08
4.93764e-08
-2.56962e-08
2.34361e-08
-7.172e-08
2.0643e-08
-1.9238e-08
5.22796e-08
2.45494e-08
3.57182e-08
-2.44695e-08
1.49178e-07
8.41315e-08
5.91496e-08
2.51156e-08
3.87819e-08
-5.49599e-08
1.90873e-09
-6.98501e-08
4.24579e-08
2.55013e-08
4.59374e-08
-1.54582e-08
-3.05473e-08
1.77355e-08
1.16045e-07
8.40831e-08
5.7152e-08
3.72852e-08
-2.50067e-08
1.13141e-08
-7.57216e-08
5.50448e-09
-3.26157e-08
4.64609e-08
2.75343e-08
3.51189e-08
-5.12818e-09
-4.80795e-09
1.40021e-07
6.12792e-08
5.08653e-08
2.01274e-08
2.82812e-08
-5.29657e-08
-4.33847e-09
-7.88065e-08
3.43029e-08
2.54627e-08
3.44301e-08
-2.87202e-08
9.67484e-10
2.88575e-08
9.08535e-08
8.05087e-08
3.69712e-08
3.00374e-08
-2.1857e-08
7.84963e-09
-7.59232e-08
1.41132e-09
-4.26128e-08
3.6285e-08
1.34727e-08
3.72749e-08
1.69601e-08
-5.58312e-08
2.97588e-07
2.13987e-07
-2.23882e-08
1.91782e-08
1.05625e-08
2.13579e-08
-4.92963e-08
-8.24438e-09
-8.19379e-08
2.33093e-08
9.64044e-09
2.54757e-08
-3.22735e-08
-4.87751e-08
2.06154e-07
-1.4574e-07
-4.23988e-08
4.13673e-08
-2.11066e-08
1.0169e-08
-2.11902e-08
2.78632e-09
-7.25137e-08
-4.60495e-09
-5.19701e-08
2.25962e-08
-3.24566e-09
2.70672e-08
4.29385e-08
-1.1232e-07
4.561e-07
2.32485e-07
-7.92711e-08
-3.36956e-08
-4.71038e-09
1.40612e-08
-4.52239e-08
-8.25815e-09
-8.12146e-08
1.7661e-08
-5.15895e-09
2.24208e-08
-4.44725e-08
-5.66752e-08
1.00015e-07
9.02133e-08
4.86038e-07
-5.45685e-08
-1.8814e-10
-1.09645e-08
7.20889e-09
-1.93584e-08
2.67847e-09
-6.79857e-08
-3.48523e-09
-5.69063e-08
1.47906e-08
-1.17861e-08
1.72611e-08
-1.17922e-08
5.76331e-08
5.94515e-08
4.68002e-07
-3.5706e-08
-5.77632e-09
-3.93962e-10
1.1577e-08
-4.09076e-08
-8.30465e-09
-7.75374e-08
1.03686e-08
-1.0902e-08
1.18549e-08
-5.16255e-08
-5.661e-08
1.01169e-07
1.58106e-07
1.20185e-08
4.03561e-07
-1.22075e-08
3.9584e-09
1.11661e-08
-1.57217e-08
1.04221e-09
-6.21297e-08
-5.5355e-09
-5.62874e-08
6.81127e-09
-1.51146e-08
1.01004e-08
-3.62446e-10
7.28048e-09
1.59685e-07
8.20397e-08
-8.37457e-08
8.09606e-09
5.88195e-09
3.94979e-09
1.07525e-08
-3.65275e-08
-6.25568e-09
-7.21911e-08
9.99936e-09
-1.21757e-08
1.23559e-08
-6.11324e-08
-3.82782e-08
8.05303e-08
1.84506e-07
-1.25899e-07
2.58854e-07
-1.18859e-08
8.48977e-09
1.2729e-08
-1.30846e-08
2.45015e-09
-5.64203e-08
-2.22428e-09
-5.36289e-08
8.29304e-09
-1.91435e-08
1.0687e-08
-1.17334e-08
1.36901e-07
4.28454e-10
1.56422e-07
-2.16143e-07
2.94988e-07
1.08963e-08
1.00826e-08
5.56804e-09
9.99708e-09
-3.24284e-08
-5.13276e-09
-6.60281e-08
8.98036e-09
-1.23367e-08
7.37656e-09
-6.7164e-08
3.44738e-08
6.44961e-08
1.96303e-07
-4.3633e-08
3.25649e-08
-1.43554e-07
-7.41419e-09
1.20986e-08
1.29293e-08
-1.08954e-08
1.93514e-09
-5.03058e-08
-2.07309e-09
-4.94664e-08
6.03011e-09
-2.18306e-08
1.08376e-08
2.70754e-08
1.07486e-07
6.85204e-08
4.14868e-08
-1.7849e-07
2.4504e-07
1.78734e-08
1.16145e-08
6.07606e-09
9.38468e-09
-2.85745e-08
-2.65921e-09
-5.95648e-08
1.09194e-08
-1.19264e-08
3.82927e-09
-5.63657e-08
1.17594e-08
1.14119e-07
6.61515e-08
-3.90247e-08
2.90882e-09
-2.1588e-07
2.99044e-07
-4.06948e-09
1.13567e-08
1.20073e-08
-9.47292e-09
3.44989e-09
-4.46468e-08
1.40733e-09
-4.51186e-08
6.42576e-09
-2.33718e-08
7.6334e-09
2.72813e-08
6.51387e-08
6.05348e-08
-1.27883e-08
-1.06026e-07
4.31856e-09
-7.47244e-08
1.52867e-08
1.10808e-08
5.56561e-09
8.61457e-09
-2.50107e-08
-1.36418e-09
-5.29628e-08
9.92518e-09
-1.17623e-08
6.58166e-10
-5.43095e-08
1.56536e-09
8.37544e-08
4.44817e-08
-6.78003e-08
-9.84344e-09
-2.44798e-07
2.27931e-07
-2.37162e-09
1.13288e-08
1.08058e-08
-8.1677e-09
3.24467e-09
-3.8968e-08
1.74666e-09
-4.06086e-08
4.49136e-09
-2.23973e-08
3.45108e-09
1.37745e-08
3.88598e-08
3.1275e-08
-2.68344e-08
-1.87018e-07
-6.26582e-09
-1.87622e-07
2.23999e-07
1.66588e-08
9.97567e-09
4.92163e-09
8.01295e-09
-2.17481e-08
7.9461e-10
-4.66847e-08
1.11359e-08
-1.08072e-08
6.2279e-10
-5.24204e-08
-7.0696e-09
5.74518e-08
2.12384e-08
-6.91227e-08
-6.14723e-08
-1.7855e-07
3.16269e-08
-1.05936e-07
-1.88875e-09
9.16654e-09
9.37024e-09
-7.22804e-09
4.45864e-09
-3.39566e-08
4.44913e-09
-3.61761e-08
5.06425e-09
-2.05016e-08
2.29023e-09
7.23983e-09
2.84236e-08
2.65725e-08
-1.55878e-08
-1.77621e-07
1.019e-08
-2.38851e-07
2.75861e-07
1.25001e-08
8.40084e-09
4.02674e-09
7.27211e-09
-1.87854e-08
1.73181e-09
-4.07226e-08
1.01542e-08
-9.8736e-09
-5.25022e-11
-4.73634e-08
-6.22538e-09
5.50604e-08
2.74087e-08
-4.35459e-08
-2.79918e-08
-2.28484e-07
5.23158e-08
-1.66727e-07
2.15927e-07
-2.07839e-09
8.2935e-09
8.06586e-09
-6.26386e-09
4.21697e-09
-2.92022e-08
4.49464e-09
-3.18379e-08
4.02759e-09
-1.80734e-08
3.48364e-09
9.40622e-09
3.10581e-08
3.58096e-08
3.54199e-09
-1.34439e-07
-7.33656e-09
-1.43149e-07
4.64122e-08
-6.92587e-08
1.22359e-08
6.98646e-09
3.30606e-09
6.73114e-09
-1.61572e-08
3.22607e-09
-3.53548e-08
1.10405e-08
-8.37681e-09
1.3103e-09
-4.02063e-08
-2.64998e-09
5.54124e-08
3.35543e-08
-2.52224e-08
1.13347e-09
-2.0498e-07
5.21032e-08
-1.70935e-07
3.32557e-08
-2.31695e-09
6.27851e-09
6.81595e-09
-5.54116e-09
5.00709e-09
-2.5156e-08
6.34923e-09
-2.77435e-08
5.05471e-09
-1.49999e-08
5.72856e-09
1.22265e-08
3.18176e-08
3.80519e-08
1.55882e-08
-1.0623e-07
1.6185e-08
-1.78866e-07
-1.67128e-08
-1.13028e-07
6.83918e-08
8.60587e-09
5.57803e-09
2.55423e-09
6.0661e-09
-1.38433e-08
3.64935e-09
-3.04314e-08
1.0221e-08
-6.87529e-09
2.03935e-09
-3.34132e-08
2.74746e-10
5.23465e-08
3.4011e-08
-1.72547e-08
1.23019e-08
-1.68422e-07
2.39309e-08
-1.18296e-07
5.62648e-08
-6.48216e-08
-2.65136e-09
5.49357e-09
5.73676e-09
-4.82851e-09
4.56311e-09
-2.14169e-08
6.02248e-09
-2.38595e-08
4.7638e-09
-1.20293e-08
7.93296e-09
1.36036e-08
2.94926e-08
3.51838e-08
2.06757e-08
-8.89505e-08
1.83319e-08
-1.55679e-07
3.74649e-08
-1.75808e-08
1.83716e-08
8.19434e-09
4.44162e-09
1.97931e-09
5.49686e-09
-1.18204e-08
4.40693e-09
-2.60707e-08
1.08038e-08
-5.14903e-09
3.96142e-09
-2.70992e-08
1.86407e-09
4.72235e-08
3.20807e-08
-1.43032e-08
1.27853e-08
-1.30375e-07
2.67733e-08
3.59822e-08
4.81057e-09
1.11561e-07
-2.81363e-09
3.94934e-09
4.73605e-09
-4.26432e-09
4.87998e-09
-1.82393e-08
7.11419e-09
-2.03107e-08
5.81455e-09
-9.19476e-09
9.60435e-09
1.45455e-08
2.63904e-08
2.87527e-08
2.05484e-08
-7.14979e-08
1.48891e-08
1.91816e-08
3.34759e-08
6.56649e-08
-2.66797e-08
6.39049e-08
5.4354e-09
3.36745e-09
1.43086e-09
4.84017e-09
-1.00138e-08
4.38938e-09
-2.20911e-08
9.96153e-09
-3.81013e-09
4.57604e-09
-2.14518e-08
2.36637e-09
3.90584e-08
2.69667e-08
-1.59699e-08
3.92717e-09
4.02365e-09
2.74824e-08
-2.07579e-08
2.46067e-08
-8.32493e-08
4.00554e-08
-3.01856e-09
3.37301e-09
3.90103e-09
-3.65991e-09
4.26445e-09
-1.52824e-08
6.48871e-09
-1.7107e-08
5.4188e-09
-6.82181e-09
1.03967e-08
1.27923e-08
1.94323e-08
2.11055e-08
7.86868e-09
1.4547e-08
-6.90535e-10
-3.75084e-08
6.45112e-09
-1.17266e-07
1.81558e-08
-7.28965e-08
5.08486e-09
2.56057e-09
1.02475e-09
4.24338e-09
-8.37864e-09
4.61531e-09
-1.85761e-08
1.00201e-08
-2.5723e-09
5.64169e-09
-1.7334e-08
9.99882e-10
3.06929e-08
1.34888e-08
1.10441e-08
-4.62782e-09
-3.73717e-08
6.20272e-09
-1.58494e-07
2.20138e-08
-1.32004e-07
1.13026e-07
-3.03241e-09
2.24037e-09
3.15279e-09
-3.12158e-09
4.28878e-09
-1.27238e-08
6.99242e-09
-1.42806e-08
5.8669e-09
-4.97013e-09
1.0638e-08
9.69375e-09
1.1864e-08
1.09921e-08
7.25759e-09
-1.30563e-08
-2.9209e-10
-9.72042e-08
1.42511e-08
-1.44378e-07
3.56104e-08
-9.02964e-08
1.15791e-07
3.05407e-09
1.81415e-09
6.85757e-10
3.68076e-09
-6.87783e-09
4.40563e-09
-1.53893e-08
9.01382e-09
-1.79204e-09
5.47587e-09
-1.44732e-08
-1.03449e-10
2.20285e-08
6.19516e-09
5.03605e-09
-1.13933e-08
-4.58395e-08
-6.60967e-10
-1.34492e-07
2.59288e-08
-6.70438e-08
2.87457e-08
-1.30634e-08
-3.08429e-09
1.87007e-09
2.57446e-09
-2.53196e-09
3.70734e-09
-1.03437e-08
6.22395e-09
-1.18216e-08
5.10139e-09
-3.85712e-09
9.89874e-09
7.78762e-09
8.16396e-09
8.6919e-09
7.19785e-09
-8.81182e-09
3.37395e-09
-7.95177e-08
2.58948e-08
-1.17101e-07
3.81654e-08
-3.69602e-08
6.59782e-08
2.82276e-09
1.30638e-09
4.79323e-10
3.17085e-09
-5.51184e-09
4.34271e-09
-1.26092e-08
8.66054e-09
-1.23174e-09
5.36132e-09
-1.21713e-08
-1.05082e-10
1.88476e-08
6.41475e-09
7.90137e-09
-4.33158e-09
-3.52439e-08
8.94292e-09
-1.09736e-07
3.46002e-08
-5.55603e-08
3.63186e-08
-3.48216e-08
-2.98356e-09
1.11284e-09
2.06734e-09
-2.00587e-09
3.56952e-09
-8.29304e-09
6.32625e-09
-9.71923e-09
4.98268e-09
-3.15258e-09
8.9793e-09
6.12969e-09
6.01184e-09
5.89404e-09
4.92734e-09
-9.67872e-09
2.79481e-09
-6.83222e-08
2.65305e-08
-9.9564e-08
4.07615e-08
-7.06613e-08
7.97273e-08
1.38239e-09
8.2798e-10
2.86491e-10
2.67252e-09
-4.27741e-09
4.00517e-09
-1.0102e-08
7.60566e-09
-1.00455e-09
4.49228e-09
-1.08526e-08
-1.16645e-09
1.33407e-08
2.04319e-09
1.98713e-09
-9.16392e-09
-3.42057e-08
2.85555e-09
-9.22781e-08
3.3545e-08
-7.98278e-08
3.65533e-08
-5.07153e-08
8.22444e-08
-2.90321e-09
8.64449e-10
1.64404e-09
-1.47948e-09
2.99398e-09
-6.39921e-09
5.47138e-09
-7.88318e-09
4.00131e-09
-2.88554e-09
7.31122e-09
4.22611e-09
3.26918e-09
3.76369e-09
3.46902e-09
-7.92395e-09
3.35108e-09
-5.48855e-08
2.31549e-08
-8.36644e-08
3.54622e-08
-3.35891e-08
2.78166e-08
-4.50883e-09
1.16626e-09
4.70004e-10
1.40209e-10
2.13857e-09
-3.17007e-09
3.64836e-09
-7.87624e-09
7.0061e-09
-8.25237e-10
3.43261e-09
-9.66873e-09
-1.38656e-09
1.14473e-08
2.66903e-09
4.35463e-09
-3.74321e-09
-2.5377e-08
8.12658e-09
-7.57612e-08
3.36013e-08
-6.62839e-08
3.64391e-08
-1.41459e-08
5.11801e-08
-2.77238e-09
3.03741e-10
1.20966e-09
-1.01959e-09
2.57178e-09
-4.77917e-09
5.26607e-09
-6.28208e-09
3.51526e-09
-2.84693e-09
6.13574e-09
3.49079e-09
2.56997e-09
3.15736e-09
3.12394e-09
-6.95468e-09
3.97499e-09
-4.694e-08
2.18036e-08
-7.04572e-08
3.43848e-08
-2.28788e-08
3.29509e-08
4.35797e-10
7.38166e-11
8.59638e-11
-4.88754e-11
1.53482e-09
-2.19881e-09
3.12979e-09
-5.89623e-09
6.10224e-09
-1.26434e-09
2.46124e-09
-8.36868e-09
-1.84019e-09
8.76433e-09
9.71674e-10
1.54654e-09
-5.9594e-09
-2.36631e-08
4.36104e-09
-6.45821e-08
2.84665e-08
-4.9428e-08
3.51771e-08
2.5103e-11
4.24791e-08
-2.65155e-09
1.10792e-10
7.36769e-10
-7.80111e-10
1.91885e-09
-3.64279e-09
4.26508e-09
-5.29576e-09
2.1567e-09
-2.98425e-09
4.89403e-09
3.12456e-09
2.39586e-09
8.0991e-10
3.37527e-09
-5.4586e-09
5.2375e-09
-3.74299e-08
2.00865e-08
-5.07231e-08
3.26292e-08
1.05677e-08
2.80733e-08
2.58697e-08
-4.1084e-10
-4.62082e-10
-3.51406e-10
9.67899e-10
-2.08329e-09
2.52271e-09
-5.10227e-09
4.92762e-09
-8.0309e-10
2.47097e-09
-6.22321e-09
8.35795e-10
2.52585e-09
6.41272e-09
-3.07934e-10
2.02362e-09
-1.90172e-08
1.028e-08
-4.39039e-08
2.79661e-08
7.60183e-09
3.34859e-08
1.941e-08
1.48601e-08
1.55087e-08
-2.32812e-09
-1.55291e-10
1.57196e-10
-1.18223e-09
1.45801e-09
-3.73251e-09
3.95328e-09
-3.92573e-09
1.6896e-09
-2.02869e-09
5.92049e-09
-1.31725e-09
7.98518e-09
-5.55029e-09
1.18461e-08
-1.00447e-08
1.41224e-08
-2.08927e-08
2.59434e-08
8.5077e-09
3.26755e-08
2.71448e-11
2.15607e-08
-1.94802e-08
2.05713e-08
-1.23018e-09
-1.01273e-09
-7.277e-10
6.69004e-10
-2.84044e-09
2.27088e-09
-4.39617e-09
3.46995e-09
-1.73833e-10
2.91807e-09
-5.22888e-09
2.19485e-09
-3.6596e-10
7.52366e-09
1.67826e-09
3.88976e-09
-2.80819e-09
8.15784e-09
6.75492e-09
1.83656e-08
-5.75178e-09
1.87387e-08
-3.61274e-08
1.29976e-08
-1.52743e-08
-2.58381e-09
-5.81964e-10
-2.66365e-10
-1.77918e-09
1.22783e-09
-3.52931e-09
3.31108e-09
-2.16067e-09
1.83226e-09
-1.14634e-09
5.42391e-09
-1.031e-09
3.72903e-09
4.39031e-09
2.62889e-09
2.94996e-09
-1.91909e-09
7.54071e-10
1.74973e-09
-7.69701e-09
1.10023e-08
-3.9297e-08
1.12591e-08
-1.80064e-08
1.73544e-08
-1.12567e-09
-1.09421e-09
-9.13965e-10
4.9045e-10
-2.42274e-09
1.95188e-09
-2.98986e-09
2.90471e-09
8.81912e-11
3.07776e-09
-3.65632e-09
1.20277e-09
5.59885e-09
3.88265e-09
6.34506e-09
-1.4395e-11
1.35417e-09
-1.12722e-09
-1.25705e-09
3.80231e-09
-2.92011e-08
9.08329e-09
-3.04098e-08
9.50056e-09
-1.25328e-08
-2.86262e-09
-9.64597e-10
-3.64626e-10
-1.4711e-09
1.10516e-09
-2.36074e-09
2.90708e-09
-1.30578e-09
2.27027e-09
-6.81494e-10
3.86963e-09
3.30709e-09
1.33835e-09
1.02323e-08
-1.87072e-09
9.23629e-09
-6.23393e-09
7.60086e-09
-5.86557e-09
-1.92339e-08
3.55963e-09
-4.02581e-08
8.81746e-09
-1.37432e-08
1.66105e-08
-1.52217e-09
-1.22143e-09
-9.3576e-10
5.22499e-10
-1.52941e-09
1.91468e-09
-1.8124e-09
2.69967e-09
2.42602e-10
2.57295e-09
-1.88395e-09
1.15669e-09
6.37261e-09
3.46267e-09
4.2772e-09
7.99093e-10
3.77277e-09
2.53032e-10
-9.16142e-09
5.16335e-09
-3.39775e-08
1.05882e-08
-1.98229e-08
9.24316e-09
-7.89404e-09
-2.86034e-09
-1.18781e-09
-1.91738e-10
-9.55191e-10
1.29874e-09
-1.23276e-09
2.61086e-09
-8.07325e-10
2.25324e-09
-5.40327e-10
3.07862e-09
2.56176e-09
3.59129e-09
2.98257e-09
3.74639e-09
1.13793e-09
4.28697e-09
-8.9167e-11
7.70897e-09
-1.80507e-08
1.24561e-08
-2.61423e-08
1.01998e-08
-5.51223e-09
1.37501e-08
-1.73792e-09
-1.07903e-09
-7.62287e-10
8.4543e-10
-7.01381e-10
1.94984e-09
-9.55044e-10
2.31881e-09
1.74625e-10
1.87328e-09
-1.82061e-09
3.61017e-09
3.31476e-09
4.20648e-09
2.44815e-09
2.26699e-09
2.95057e-09
2.0521e-09
-9.2403e-09
7.99108e-09
-2.29657e-08
1.239e-08
-6.25127e-10
8.76e-09
6.22671e-09
-2.93595e-09
-1.29177e-09
3.29805e-10
-6.68642e-10
1.40317e-09
-4.11357e-10
2.18392e-09
-5.13932e-10
1.81683e-09
-8.62073e-10
4.26184e-09
1.02714e-09
6.00844e-09
-7.7735e-11
6.13675e-09
-2.52978e-09
6.88732e-09
-4.63248e-09
1.01372e-08
-1.12865e-08
1.44711e-08
1.46003e-09
1.22903e-08
4.9318e-09
3.93352e-09
3.71751e-09
-1.86723e-09
-4.86546e-10
-7.29832e-10
9.96971e-10
-1.76092e-10
1.45162e-09
-2.61193e-10
1.61148e-09
-3.89247e-11
1.74367e-09
-1.36215e-09
3.94655e-09
2.43004e-09
2.92003e-09
5.6981e-10
2.65314e-09
-1.15632e-09
4.58962e-09
-2.41749e-09
9.9492e-09
4.5731e-09
1.20727e-08
-2.9131e-09
6.75825e-09
-8.64219e-09
8.82135e-09
-7.21937e-10
-2.10976e-09
1.82549e-09
-1.48057e-09
6.93113e-10
3.52114e-10
1.28631e-09
-5.09847e-11
1.38991e-09
-6.12314e-10
3.4433e-09
2.1554e-09
2.32175e-09
2.43295e-09
7.34973e-10
2.81451e-09
-2.68656e-10
3.87699e-09
3.46919e-10
3.65069e-09
3.61989e-09
-4.79827e-09
8.19203e-09
-7.12197e-09
8.12624e-09
-3.44344e-09
-4.19873e-09
1.59209e-09
-1.67882e-09
1.13128e-10
-4.16265e-10
7.84401e-10
6.96069e-10
1.31462e-09
1.27939e-09
2.40123e-09
1.36683e-09
3.13807e-09
2.86595e-09
2.42918e-09
1.67298e-09
2.72366e-09
1.13932e-09
4.20762e-09
1.56456e-09
5.61024e-09
2.14692e-09
1.03488e-08
-6.92244e-09
9.38076e-09
-3.62603e-09
1.36124e-08
1.01683e-09
-9.51301e-10
-3.81183e-10
-7.37995e-10
-4.79024e-11
7.08785e-10
1.21918e-09
9.9684e-10
1.23492e-09
1.08744e-09
2.2895e-09
3.29974e-09
1.52196e-09
3.58061e-09
5.63306e-10
4.71312e-09
9.9719e-10
6.49391e-09
3.18665e-09
6.74536e-09
5.24006e-09
-5.14851e-09
8.50654e-09
8.66467e-10
1.15753e-08
5.12275e-09
-1.07541e-09
-2.0008e-10
-2.0641e-10
-9.23275e-11
1.73257e-10
2.98359e-10
2.47887e-10
2.28729e-10
2.04265e-10
5.29235e-10
9.11734e-10
7.47912e-10
1.31187e-09
5.76378e-10
2.1574e-09
9.50152e-10
3.67488e-09
1.84331e-09
5.43462e-09
4.62819e-09
2.13714e-09
7.64101e-09
4.57075e-09
9.41444e-09
7.85226e-09
1.15587e-08
)
;

boundaryField
{
    inlet
    {
        type            extrapolatedCalculated;
        value           nonuniform List<scalar> 
26
(
-1.07541e-09
-2.0008e-10
-2.0641e-10
-9.23275e-11
1.73257e-10
2.98359e-10
2.47887e-10
2.28729e-10
2.04265e-10
5.29235e-10
9.11734e-10
7.47912e-10
1.31187e-09
5.76378e-10
2.1574e-09
9.50152e-10
3.67488e-09
1.84331e-09
5.43462e-09
4.62819e-09
2.13714e-09
7.64101e-09
4.57075e-09
9.41444e-09
7.85226e-09
1.15587e-08
)
;
    }
    outlet
    {
        type            extrapolatedCalculated;
        value           nonuniform List<scalar> 0();
    }
    walls
    {
        type            extrapolatedCalculated;
        value           nonuniform List<scalar> 0();
    }
    frontAndBack
    {
        type            empty;
    }
    procBoundary0to1
    {
        type            processor;
        value           nonuniform List<scalar> 
94
(
-2.64176e-06
-1.14076e-06
-1.14076e-06
-5.95529e-07
-5.95529e-07
-2.20159e-07
-2.20159e-07
-1.82703e-07
-1.82703e-07
-3.47559e-07
-3.47559e-07
-2.82274e-07
-1.44404e-07
-1.44404e-07
-5.87927e-08
-8.87207e-08
-8.87207e-08
-2.51091e-07
2.95577e-07
-3.25076e-07
-3.25076e-07
-1.77431e-07
-6.06235e-08
-6.06235e-08
-1.38918e-08
2.61196e-08
2.43667e-09
2.43667e-09
1.68574e-09
7.7404e-07
-1.07894e-07
-1.07894e-07
4.09241e-07
-1.868e-07
-1.868e-07
-1.36834e-07
1.78956e-07
-4.12851e-07
-4.12851e-07
-2.51297e-07
1.78378e-07
-3.82252e-07
-3.82252e-07
-1.56944e-07
1.60079e-07
-2.94775e-07
-2.94775e-07
-1.61681e-07
2.06679e-07
-2.56352e-07
-2.56352e-07
-1.0696e-07
-8.20711e-08
-1.61477e-07
-1.61477e-07
-8.61219e-08
1.22131e-08
2.1394e-08
-4.62935e-08
-4.62935e-08
-5.14491e-09
-5.64965e-08
4.6982e-08
-1.3715e-07
-1.3715e-07
-5.067e-08
3.83446e-08
-1.73414e-08
5.03224e-08
-7.12433e-08
-7.12433e-08
-2.6085e-08
3.92941e-08
8.26235e-09
4.18918e-08
2.10883e-08
2.43244e-08
2.43244e-08
1.88288e-08
-1.0646e-08
1.64675e-08
-8.61468e-09
1.24139e-08
-5.76446e-09
1.0032e-08
1.03346e-09
5.15956e-09
5.15956e-09
4.82724e-09
-4.77491e-09
8.6066e-09
2.66675e-09
1.60437e-08
1.67958e-08
)
;
    }
    procBoundary0to4
    {
        type            processor;
        value           nonuniform List<scalar> 
72
(
1.56071e-06
4.35561e-07
8.83237e-07
2.63965e-07
3.10983e-07
2.41496e-07
1.85829e-07
2.00192e-07
1.43447e-07
1.79127e-07
1.11374e-07
1.60483e-07
9.49728e-08
1.42113e-07
8.00848e-08
1.43417e-07
7.84927e-08
1.3458e-07
4.3005e-08
2.4817e-07
2.91521e-08
1.41673e-07
1.38545e-07
1.38545e-07
1.50728e-08
-8.16563e-09
1.51921e-08
-9.63871e-09
1.72561e-08
-1.07728e-08
1.69921e-08
-6.16241e-09
1.70291e-08
-7.19273e-09
1.44962e-08
-5.00669e-09
1.31168e-08
-6.46895e-09
1.03922e-08
-5.09029e-09
9.02933e-09
-6.15231e-09
6.83445e-09
-5.03582e-09
5.73569e-09
-5.68256e-09
4.06956e-09
-4.72046e-09
3.22679e-09
-5.05441e-09
2.03216e-09
-4.21043e-09
1.35431e-09
-4.33033e-09
3.85108e-10
-3.76081e-09
-8.81196e-11
-4.06117e-09
-3.36477e-10
-4.6892e-09
-2.74939e-10
-4.21003e-09
-8.04232e-10
-3.58509e-09
-1.45867e-09
-3.44704e-09
-1.73069e-09
-2.8746e-09
-2.35281e-09
1.2926e-11
-3.33162e-09
-5.07662e-10
)
;
    }
    procBoundary0to5
    {
        type            processor;
        value           nonuniform List<scalar> 4(1.82594e-07 2.03134e-07 -1.66019e-06 1.43912e-06);
    }
}


// ************************************************************************* //
