/*--------------------------------*- C++ -*----------------------------------*\
| =========                 |                                                 |
| \\      /  F ield         | OpenFOAM: The Open Source CFD Toolbox           |
|  \\    /   O peration     | Version:  2506                                  |
|   \\  /    A nd           | Website:  www.openfoam.com                      |
|    \\/     M anipulation  |                                                 |
\*---------------------------------------------------------------------------*/
FoamFile
{
    version     2.0;
    format      ascii;
    arch        "LSB;label=32;scalar=64";
    class       volScalarField;
    location    "500";
    object      turbulenceProperties:L;
}
// * * * * * * * * * * * * * * * * * * * * * * * * * * * * * * * * * * * * * //

dimensions      [0 1 0 0 0 0 0];

internalField   nonuniform List<scalar> 
1340
(
0.00956368
0.00962026
0.00968375
0.00976469
0.00987418
0.0103792
0.010444
0.0105144
0.0106013
0.0107185
0.0108587
0.0112264
0.0112998
0.0113779
0.0114712
0.0115963
0.0117424
0.0119099
0.0121089
0.0121909
0.0122771
0.0123772
0.0125101
0.0126625
0.0128331
0.0130256
0.0130284
0.0131198
0.0132141
0.0133219
0.0134625
0.0136212
0.0137962
0.0139928
0.0142138
0.0139876
0.014089
0.0141917
0.0143075
0.0144565
0.0146218
0.0148021
0.0150034
0.0152261
0.0154653
0.0149893
0.0151007
0.0152128
0.015337
0.0154946
0.0156667
0.0158536
0.0160603
0.0162854
0.0165241
0.0160361
0.0161577
0.0162795
0.016413
0.0165798
0.0167591
0.0169534
0.0171663
0.0173945
0.0176334
0.0178852
0.0171307
0.017263
0.017395
0.0175385
0.0177149
0.017902
0.0181047
0.0183246
0.0185567
0.0187969
0.0190474
0.0182761
0.0184197
0.0185625
0.0187165
0.018903
0.0190989
0.0193106
0.0195384
0.0197752
0.0200179
0.0202681
0.0205282
0.0194755
0.0196309
0.0197852
0.0199503
0.0201472
0.0203534
0.0205748
0.0208111
0.0210539
0.0213
0.0215512
0.0218097
0.0207323
0.0209
0.0210663
0.021243
0.021451
0.0216684
0.0219007
0.0221462
0.0223959
0.0226466
0.0228999
0.0231586
0.0220498
0.02223
0.0224095
0.0225985
0.0228182
0.0230479
0.0232917
0.0235475
0.0238051
0.0240617
0.0243189
0.0245787
0.0248434
0.0234316
0.0236249
0.0238182
0.0240202
0.0242526
0.0244955
0.0247517
0.025019
0.0252857
0.0255493
0.0258116
0.0260746
0.0263402
0.0248814
0.0250889
0.0252959
0.0255121
0.0257579
0.0260149
0.0262847
0.0265645
0.0268418
0.027114
0.0273829
0.0276501
0.027918
0.0281921
0.0264033
0.0266256
0.0268472
0.0270784
0.0273384
0.0276104
0.0278952
0.0281884
0.0284774
0.0287596
0.0290365
0.0293098
0.0295822
0.0298591
0.0280018
0.0282392
0.0284762
0.0287234
0.0289984
0.0292865
0.0295873
0.029895
0.0301973
0.0304909
0.0307775
0.0310584
0.0313368
0.031618
0.0296812
0.0299341
0.0301873
0.0304515
0.0307424
0.0310475
0.0313658
0.0316894
0.0320059
0.0323123
0.0326103
0.032901
0.0331871
0.0334744
0.0337704
0.0314458
0.0317154
0.0319852
0.0322672
0.0325751
0.0328983
0.0332348
0.0335758
0.0339081
0.034229
0.0345401
0.0348421
0.035138
0.0354337
0.035736
0.033301
0.0335881
0.0338751
0.0341755
0.0345019
0.0348441
0.0351998
0.0355595
0.035909
0.036246
0.0365717
0.0368867
0.0371943
0.0375001
0.0378113
0.035252
0.0355573
0.0358622
0.0361817
0.036528
0.0368899
0.0372659
0.0376455
0.0380139
0.0383684
0.0387106
0.0390407
0.0393614
0.0396789
0.0400009
0.040334
0.0373041
0.0376285
0.0379522
0.0382916
0.0386584
0.0390413
0.0394387
0.0398394
0.040228
0.0406017
0.040962
0.0413084
0.0416449
0.0419765
0.0423104
0.0426543
0.0398076
0.0401507
0.040511
0.0408993
0.0413041
0.041724
0.0421469
0.042557
0.0429512
0.0433313
0.0436964
0.0440496
0.0443969
0.0447453
0.0451023
0.0454777
0.0421009
0.0424639
0.0428461
0.0432569
0.0436843
0.0441275
0.044574
0.0450065
0.0454228
0.045824
0.0462092
0.0465812
0.0469462
0.0473107
0.0476822
0.0480712
0.044515
0.0448987
0.0453033
0.0457375
0.0461882
0.0466558
0.0471264
0.0475829
0.0480224
0.0484461
0.0488532
0.0492455
0.0496291
0.0500117
0.0503996
0.0508028
0.0470568
0.0474619
0.0478897
0.0483479
0.0488229
0.0493153
0.049811
0.0502924
0.050756
0.0512035
0.0516335
0.0520476
0.0524523
0.0528537
0.0532591
0.0536786
0.0541245
0.0497339
0.0501611
0.0506126
0.0510955
0.0515951
0.0521129
0.0526346
0.0531412
0.05363
0.0541021
0.0545562
0.0549933
0.0554195
0.0558415
0.0562659
0.056703
0.0571642
0.0525538
0.0530041
0.0534798
0.0539877
0.0545125
0.0550562
0.055604
0.0561366
0.0566507
0.0571484
0.0576271
0.0580881
0.0585376
0.0589805
0.0594242
0.0598795
0.0603574
0.0555251
0.0559993
0.0564999
0.0570328
0.0575829
0.0581526
0.0587266
0.059285
0.0598251
0.0603488
0.0608527
0.0613381
0.0618106
0.0622756
0.0627397
0.0632134
0.0637084
0.0642385
0.0586572
0.0591554
0.0596816
0.0602395
0.0608146
0.0614104
0.0620105
0.0625944
0.0631603
0.0637096
0.0642388
0.0647491
0.065245
0.0657321
0.0662164
0.0667086
0.0672204
0.0677657
0.0619593
0.0624822
0.0630341
0.063617
0.0642169
0.0648381
0.0654633
0.0660724
0.0666633
0.0672375
0.0677922
0.0683268
0.068846
0.0693549
0.0698596
0.0703699
0.0708976
0.0714572
0.0654418
0.0659899
0.0665674
0.067175
0.0677988
0.0684444
0.0690942
0.069727
0.0703418
0.0709406
0.0715194
0.0720776
0.0726196
0.0731497
0.0736734
0.0742008
0.0747439
0.0753173
0.0759391
0.0691156
0.0696897
0.0702924
0.0709238
0.0715706
0.0722396
0.072912
0.0735669
0.0742036
0.0748255
0.0754273
0.0760081
0.0765718
0.0771218
0.0776637
0.0782073
0.0787642
0.0793482
0.0799788
0.0729927
0.073593
0.0742209
0.0748745
0.075543
0.0762336
0.0769264
0.077601
0.0782579
0.0789003
0.0795235
0.080125
0.0807089
0.0812775
0.0818357
0.0823935
0.0829621
0.0835554
0.0841932
0.077086
0.0777125
0.0783651
0.0790392
0.0797275
0.0804375
0.0811478
0.0818391
0.0825127
0.0831736
0.083816
0.0844365
0.0850381
0.0856228
0.086195
0.0867653
0.0873436
0.0879435
0.0885843
0.0892903
0.0814092
0.0820622
0.0827378
0.083431
0.0841366
0.0848628
0.0855867
0.0862905
0.0869782
0.0876546
0.0883128
0.0889496
0.0895666
0.0901652
0.0907491
0.0913285
0.091913
0.0925162
0.0931583
0.0938623
0.0859772
0.0866568
0.0873537
0.0880632
0.088783
0.0895217
0.0902547
0.0909667
0.091664
0.0923519
0.0930233
0.0936731
0.0943025
0.0949117
0.095504
0.0960892
0.0966771
0.0972812
0.0979207
0.0986173
0.0908063
0.0915121
0.0922285
0.0929507
0.0936817
0.0944279
0.095164
0.0958786
0.0965806
0.0972762
0.0979567
0.0986158
0.0992538
0.0998702
0.100468
0.101056
0.101643
0.102244
0.102876
0.103562
0.104332
0.0959139
0.0966458
0.097379
0.0981097
0.0988472
0.0995953
0.100328
0.101039
0.10174
0.102438
0.103123
0.103788
0.10443
0.105049
0.105648
0.106234
0.106817
0.10741
0.108032
0.108704
0.109453
0.10132
0.102076
0.102824
0.103558
0.104296
0.105039
0.105759
0.106459
0.107154
0.107849
0.108534
0.109198
0.10984
0.110457
0.111052
0.111632
0.112207
0.112789
0.113395
0.114048
0.114774
0.107045
0.107825
0.108582
0.109313
0.110047
0.110775
0.111473
0.112154
0.112835
0.113521
0.1142
0.114858
0.115493
0.116103
0.116689
0.117258
0.11782
0.118386
0.118974
0.119604
0.120301
0.113112
0.113914
0.114676
0.115397
0.116118
0.116821
0.117486
0.118137
0.118797
0.119467
0.120132
0.120778
0.1214
0.121996
0.122567
0.123121
0.123665
0.124212
0.124778
0.125382
0.126049
0.126813
0.119547
0.120369
0.121128
0.121832
0.122531
0.123195
0.123812
0.124426
0.125055
0.1257
0.126342
0.126967
0.12757
0.128146
0.128697
0.129231
0.129755
0.130279
0.130819
0.131395
0.132029
0.132755
0.126378
0.127216
0.127966
0.128642
0.129308
0.129917
0.130471
0.131035
0.131623
0.132232
0.132843
0.133439
0.134014
0.134565
0.135093
0.135603
0.136103
0.136603
0.137118
0.137665
0.138267
0.138955
0.133636
0.134488
0.135218
0.135854
0.136473
0.137007
0.137481
0.137982
0.138517
0.139078
0.139647
0.140205
0.140747
0.141269
0.141771
0.142257
0.142734
0.143211
0.143701
0.144222
0.144794
0.145447
0.141356
0.142217
0.142914
0.143499
0.144054
0.144487
0.144862
0.145288
0.145752
0.146252
0.146767
0.14728
0.147787
0.148281
0.148758
0.149224
0.149681
0.150139
0.150609
0.151108
0.151655
0.152279
0.153014
0.149576
0.150442
0.151091
0.151608
0.152078
0.152381
0.152637
0.152971
0.153346
0.153766
0.154219
0.154687
0.15516
0.15563
0.156091
0.156543
0.156987
0.157432
0.157889
0.158372
0.158901
0.159502
0.160209
0.158342
0.159205
0.159787
0.16022
0.160577
0.160713
0.160829
0.161053
0.161312
0.161637
0.162026
0.162452
0.162902
0.16336
0.163815
0.164262
0.164703
0.165143
0.165592
0.166065
0.166581
0.167165
0.167849
0.167701
0.168552
0.169045
0.169375
0.169584
0.169512
0.169468
0.169558
0.169665
0.169883
0.170214
0.170614
0.171056
0.171516
0.171977
0.172429
0.172873
0.173311
0.173756
0.174222
0.174726
0.175292
0.175952
0.17771
0.178538
0.178913
0.179117
0.179133
0.178806
0.178585
0.178506
0.178418
0.178524
0.17882
0.179217
0.179668
0.180144
0.180617
0.181077
0.181522
0.181958
0.182395
0.182848
0.183334
0.183878
0.184508
0.188431
0.189222
0.189448
0.189496
0.189263
0.18863
0.188215
0.18792
0.187585
0.187594
0.187889
0.188305
0.188776
0.189267
0.189748
0.190206
0.190642
0.191065
0.191485
0.191916
0.192377
0.192891
0.193484
0.19417
0.199938
0.200673
0.200711
0.200571
0.200012
0.19902
0.198396
0.197814
0.197176
0.197131
0.197471
0.197913
0.198391
0.19888
0.199349
0.199789
0.200203
0.200601
0.200995
0.2014
0.201833
0.202317
0.202878
0.203527
0.212315
0.21297
0.212775
0.212408
0.211429
0.210028
0.209172
0.208193
0.207191
0.207178
0.207609
0.208053
0.208498
0.208955
0.209393
0.209802
0.210189
0.210565
0.210941
0.21133
0.211749
0.21222
0.212771
0.213413
0.225651
0.226197
0.22572
0.225078
0.223566
0.22172
0.220606
0.219081
0.217637
0.21776
0.218306
0.218695
0.219059
0.219469
0.219884
0.22028
0.220664
0.221045
0.221433
0.22184
0.22228
0.222778
0.22336
0.22404
0.240048
0.240438
0.239621
0.238642
0.236458
0.23415
0.232759
0.230561
0.228587
0.228902
0.229522
0.229781
0.230052
0.230454
0.2309
0.231343
0.231783
0.232226
0.232678
0.233151
0.233658
0.234226
0.234888
0.235654
0.255627
0.255803
0.254568
0.253154
0.250117
0.247326
0.245622
0.242636
0.240092
0.24067
0.24127
0.241336
0.241576
0.242074
0.242639
0.243199
0.243758
0.244318
0.244883
0.245465
0.246079
0.246756
0.247534
0.248419
0.272511
0.272428
0.270704
0.26872
0.264625
0.261315
0.259194
0.254981
0.251743
0.253097
0.253769
0.253562
0.253854
0.254578
0.255343
0.256066
0.256777
0.25748
0.258179
0.258885
0.259622
0.260424
0.261333
0.262358
0.263457
0.290542
0.29018
0.287989
0.285369
0.280133
0.276433
0.273912
0.267752
0.26292
0.26596
0.267191
0.266524
0.266808
0.267815
0.268816
0.269703
0.270563
0.271419
0.272257
0.273092
0.273958
0.274895
0.275946
0.277126
0.278392
0.308001
0.307437
0.305038
0.302064
0.296077
0.292752
0.290514
0.281852
0.27481
0.279632
0.28139
0.279936
0.279872
0.280943
0.282051
0.283004
0.283934
0.284877
0.285812
0.286749
0.287718
0.288769
0.289953
0.291285
0.292714
0.324318
0.323667
0.321347
0.318369
0.312266
0.310202
0.308422
0.298989
0.289548
0.294708
0.296201
0.293891
0.293135
0.293905
0.294928
0.295834
0.296728
0.297654
0.298602
0.299569
0.300577
0.301678
0.302934
0.304365
0.305907
0.341772
0.341033
0.338846
0.335764
0.329679
0.329062
0.327073
0.31835
0.306997
0.311085
0.311847
0.308943
0.307443
0.307725
0.308557
0.309383
0.310212
0.311094
0.312016
0.312972
0.31398
0.315092
0.316378
0.317868
0.319488
0.361866
0.361031
0.359036
0.355647
0.349783
0.350468
0.347652
0.3401
0.326195
0.328428
0.32832
0.325122
0.323042
0.322833
0.323422
0.324117
0.324841
0.32566
0.32656
0.327512
0.328527
0.329659
0.330975
0.332535
0.334268
0.384677
0.383774
0.38204
0.378147
0.372878
0.374436
0.370495
0.364532
0.347161
0.346927
0.345633
0.34217
0.339593
0.338962
0.339361
0.339918
0.340453
0.341087
0.341877
0.342792
0.34382
0.344993
0.346388
0.348069
0.349983
0.410711
0.409865
0.408528
0.404007
0.399872
0.401274
0.396373
0.391925
0.36958
0.366335
0.363689
0.359887
0.356686
0.355528
0.355837
0.356573
0.357255
0.357875
0.358551
0.359363
0.360365
0.361608
0.363201
0.365183
0.367501
0.440295
0.43982
0.439194
0.434284
0.432117
0.431546
0.426697
0.422461
0.392963
0.386114
0.381968
0.378108
0.374618
0.372787
0.372476
0.373119
0.374269
0.375643
0.377042
0.378395
0.37978
0.381381
0.383475
0.38631
0.389909
0.473745
0.474115
0.474739
0.470447
0.471713
0.467024
0.465298
0.456971
0.416778
0.405896
0.399254
0.395417
0.393392
0.3931
0.393266
0.393276
0.393487
0.39453
0.396555
0.399286
0.402448
0.405984
0.410094
0.415064
0.42103
0.428006
0.511671
0.513481
0.516118
0.514436
0.521066
0.510844
0.519577
0.495227
0.439997
0.427273
0.416787
0.411455
0.410835
0.414451
0.42014
0.425135
0.427908
0.428912
0.429649
0.431356
0.434667
0.439816
0.446988
0.456111
0.466859
0.47877
0.55453
0.559296
0.5663
0.570772
0.583749
0.566227
0.594355
0.523868
0.45856
0.44925
0.436542
0.432253
0.430976
0.431742
0.438096
0.450745
0.465776
0.477592
0.482582
0.480887
0.47523
0.46879
0.465038
0.466956
0.474452
0.484539
0.598305
0.610199
0.62991
0.651522
0.674158
0.642779
0.673756
0.521005
0.467608
0.450706
0.421232
0.41451
0.422431
0.436524
0.446575
0.444617
0.434993
0.426589
0.422785
0.422492
0.423735
0.424481
0.421606
0.41177
0.396278
0.379865
0.630567
0.653634
0.699726
0.771967
0.844053
0.790147
0.743391
0.517584
0.495214
0.458233
0.405573
0.372322
0.345854
0.323806
0.306964
0.294873
0.286549
0.280282
0.274579
0.268728
0.262608
0.256414
0.250469
0.245413
0.241767
0.239048
0.647276
0.677253
0.746189
0.897974
1.23042
1.12475
0.786529
0.595541
0.494861
0.33447
0.270708
0.236518
0.217013
0.205592
0.198932
0.194842
0.191889
0.189231
0.186611
0.184065
0.181711
0.179548
0.177475
0.175203
0.172977
0.171162
)
;

boundaryField
{
    inlet
    {
        type            calculated;
        value           nonuniform List<scalar> 
26
(
0.70332
0.735022
0.809644
0.982633
1.44514
1.21021
0.786861
0.758698
0.358423
0.250478
0.199256
0.170471
0.152839
0.141372
0.133714
0.128416
0.124602
0.121719
0.119397
0.117396
0.115559
0.113753
0.111844
0.109763
0.107678
0.105798
)
;
    }
    outlet
    {
        type            calculated;
        value           nonuniform List<scalar> 0();
    }
    walls
    {
        type            calculated;
        value           nonuniform List<scalar> 0();
    }
    frontAndBack
    {
        type            empty;
    }
    procBoundary0to1
    {
        type            processor;
        value           nonuniform List<scalar> 
94
(
0.00906132
0.0100086
0.0100086
0.011024
0.011024
0.0120995
0.0120995
0.0132455
0.0132455
0.0144546
0.0144546
0.0157233
0.0167783
0.0167783
0.0181526
0.0193105
0.0193105
0.0208002
0.0220776
0.0234243
0.0234243
0.0251181
0.0266138
0.0266138
0.0284802
0.0301476
0.0319095
0.0319095
0.0340826
0.036053
0.0381351
0.0381351
0.0406883
0.0430183
0.0430183
0.045883
0.048488
0.0512336
0.0512336
0.0546093
0.0576636
0.0608724
0.0608724
0.0648227
0.0683637
0.072068
0.072068
0.0766334
0.0806805
0.0848993
0.0848993
0.0900927
0.0946578
0.0994015
0.0994015
0.105224
0.110319
0.11561
0.121103
0.121103
0.127718
0.133613
0.139767
0.146217
0.146217
0.153879
0.161039
0.168648
0.17672
0.185237
0.185237
0.194931
0.20425
0.214129
0.224795
0.236493
0.249375
0.249375
0.264578
0.279668
0.294154
0.307464
0.321142
0.336079
0.35205
0.370048
0.39406
0.39406
0.436022
0.491451
0.494417
0.365169
0.236708
0.169764
)
;
    }
    procBoundary0to4
    {
        type            processor;
        value           nonuniform List<scalar> 
72
(
0.00952016
0.0103272
0.0111651
0.0120381
0.012948
0.0138974
0.0148886
0.0159244
0.0170077
0.0181416
0.0193289
0.0205728
0.0218771
0.0232448
0.0246801
0.0261868
0.0277691
0.0294314
0.0311785
0.0330151
0.0349463
0.036978
0.0394633
0.0394633
0.0417358
0.0441282
0.0466475
0.0493009
0.0520967
0.0550434
0.0581499
0.0614256
0.0648812
0.0685277
0.0723772
0.0764423
0.080737
0.0852766
0.0900773
0.0951569
0.100535
0.106233
0.112273
0.118682
0.125489
0.132724
0.140423
0.148626
0.157376
0.166723
0.176725
0.187444
0.198954
0.211342
0.2247
0.239134
0.254763
0.271709
0.289794
0.307254
0.323549
0.340998
0.361088
0.383891
0.409878
0.439325
0.472471
0.509808
0.551451
0.592896
0.622339
0.637518
)
;
    }
    procBoundary0to5
    {
        type            processor;
        value           nonuniform List<scalar> 4(0.00878105 0.00882884 0.00888514 0.00895955);
    }
}


// ************************************************************************* //
