/*--------------------------------*- C++ -*----------------------------------*\
| =========                 |                                                 |
| \\      /  F ield         | OpenFOAM: The Open Source CFD Toolbox           |
|  \\    /   O peration     | Version:  2506                                  |
|   \\  /    A nd           | Website:  www.openfoam.com                      |
|    \\/     M anipulation  |                                                 |
\*---------------------------------------------------------------------------*/
FoamFile
{
    version     2.0;
    format      ascii;
    arch        "LSB;label=32;scalar=64";
    class       volScalarField;
    location    "500";
    object      turbulenceProperties:epsilon;
}
// * * * * * * * * * * * * * * * * * * * * * * * * * * * * * * * * * * * * * //

dimensions      [0 2 -3 0 0 0 0];

internalField   nonuniform List<scalar> 
1340
(
0.000197876
0.00019326
0.00018824
0.000182074
0.00017413
0.000142638
0.000139129
0.000135442
0.000131053
0.000125411
0.000119064
0.000104215
0.000101532
9.87722e-05
9.55981e-05
9.15382e-05
8.70658e-05
8.22715e-05
7.69962e-05
7.49445e-05
7.28625e-05
7.05324e-05
6.75832e-05
6.43885e-05
6.10325e-05
5.75025e-05
5.74539e-05
5.58702e-05
5.42924e-05
5.25556e-05
5.03931e-05
4.80853e-05
4.56924e-05
4.31779e-05
4.05545e-05
4.32426e-05
4.20119e-05
4.08083e-05
3.95021e-05
3.78987e-05
3.62142e-05
3.4481e-05
3.2668e-05
3.07977e-05
2.8936e-05
3.27917e-05
3.18348e-05
3.09067e-05
2.99174e-05
2.87178e-05
2.74766e-05
2.62042e-05
2.48808e-05
2.3533e-05
2.22027e-05
2.50317e-05
2.4287e-05
2.35679e-05
2.28101e-05
2.1906e-05
2.09831e-05
2.00379e-05
1.90618e-05
1.8081e-05
1.71209e-05
1.6177e-05
1.92212e-05
1.86389e-05
1.80795e-05
1.7495e-05
1.68081e-05
1.61166e-05
1.54069e-05
1.46804e-05
1.39594e-05
1.32594e-05
1.25755e-05
1.48371e-05
1.43798e-05
1.39425e-05
1.3489e-05
1.29644e-05
1.24406e-05
1.19039e-05
1.13584e-05
1.08239e-05
1.03085e-05
9.8089e-06
9.32112e-06
1.1506e-05
1.1146e-05
1.08025e-05
1.04492e-05
1.00466e-05
9.64563e-06
9.23709e-06
8.82466e-06
8.42444e-06
8.04175e-06
7.67337e-06
7.31593e-06
8.95969e-06
8.67562e-06
8.40481e-06
8.12854e-06
7.81785e-06
7.50868e-06
7.19524e-06
6.88137e-06
6.5796e-06
6.29306e-06
6.01912e-06
5.75466e-06
7.00266e-06
6.77832e-06
6.56372e-06
6.34687e-06
6.10589e-06
5.86614e-06
5.62431e-06
5.38389e-06
5.15452e-06
4.93817e-06
4.7325e-06
4.53558e-06
4.34531e-06
5.49124e-06
5.3137e-06
5.14335e-06
4.97243e-06
4.78454e-06
4.5976e-06
4.41011e-06
4.22465e-06
4.04921e-06
3.88465e-06
3.72912e-06
3.58095e-06
3.43869e-06
4.31894e-06
4.17785e-06
4.04275e-06
3.90744e-06
3.76037e-06
3.61397e-06
3.46783e-06
3.32402e-06
3.18876e-06
3.06264e-06
2.94408e-06
2.83192e-06
2.72477e-06
2.62034e-06
3.40598e-06
3.29366e-06
3.18627e-06
3.07884e-06
2.96334e-06
2.84827e-06
2.73373e-06
2.62174e-06
2.51693e-06
2.41958e-06
2.32858e-06
2.24293e-06
2.16145e-06
2.08238e-06
2.69234e-06
2.60298e-06
2.51738e-06
2.43182e-06
2.34087e-06
2.25011e-06
2.15998e-06
2.0724e-06
1.99065e-06
1.91509e-06
1.84473e-06
1.77888e-06
1.71651e-06
1.65625e-06
2.13281e-06
2.06164e-06
1.99334e-06
1.92504e-06
1.8532e-06
1.78141e-06
1.71019e-06
1.6414e-06
1.57743e-06
1.51843e-06
1.46367e-06
1.41264e-06
1.36455e-06
1.31829e-06
1.27268e-06
1.69288e-06
1.63605e-06
1.58153e-06
1.52697e-06
1.47004e-06
1.41311e-06
1.35674e-06
1.30245e-06
1.25214e-06
1.20584e-06
1.16297e-06
1.12317e-06
1.08581e-06
1.05002e-06
1.01493e-06
1.346e-06
1.30056e-06
1.25706e-06
1.21343e-06
1.16815e-06
1.12294e-06
1.07823e-06
1.03525e-06
9.95523e-07
9.59009e-07
9.25303e-07
8.94092e-07
8.64881e-07
8.37019e-07
8.09799e-07
1.07186e-06
1.03552e-06
1.00076e-06
9.65863e-07
9.29751e-07
8.93801e-07
8.58266e-07
8.24162e-07
7.92674e-07
7.63779e-07
7.37129e-07
7.1251e-07
6.89576e-07
6.67767e-07
6.46522e-07
6.25429e-07
8.54763e-07
8.25672e-07
7.9786e-07
7.69943e-07
7.41129e-07
7.12477e-07
6.84188e-07
6.57074e-07
6.32047e-07
6.09097e-07
5.87945e-07
5.68469e-07
5.50319e-07
5.33133e-07
5.16504e-07
5.00046e-07
6.59188e-07
6.36941e-07
6.14581e-07
5.91568e-07
5.68715e-07
5.46166e-07
5.24568e-07
5.0464e-07
4.86362e-07
4.69519e-07
4.54023e-07
4.39636e-07
4.26039e-07
4.12923e-07
4.00006e-07
3.86959e-07
5.26873e-07
5.09087e-07
4.91164e-07
4.72766e-07
4.54534e-07
4.36542e-07
4.19312e-07
4.03422e-07
3.88835e-07
3.75396e-07
3.63034e-07
3.51575e-07
3.40767e-07
3.30386e-07
3.20209e-07
3.09969e-07
4.21548e-07
4.07323e-07
3.92963e-07
3.7825e-07
3.63698e-07
3.49336e-07
3.35588e-07
3.22891e-07
3.11232e-07
3.00486e-07
2.90595e-07
2.81445e-07
2.72842e-07
2.6459e-07
2.56537e-07
2.4849e-07
3.37584e-07
3.26205e-07
3.14703e-07
3.0294e-07
2.91321e-07
2.79857e-07
2.68882e-07
2.58732e-07
2.49407e-07
2.40802e-07
2.32881e-07
2.25557e-07
2.18675e-07
2.12107e-07
2.05723e-07
1.99366e-07
1.92877e-07
2.70559e-07
2.61458e-07
2.52251e-07
2.42849e-07
2.33576e-07
2.24431e-07
2.15663e-07
2.07555e-07
2.00091e-07
1.93197e-07
1.86845e-07
1.80974e-07
1.75471e-07
1.70226e-07
1.65148e-07
1.60115e-07
1.55009e-07
2.16997e-07
2.09716e-07
2.02352e-07
1.94844e-07
1.87448e-07
1.80151e-07
1.73156e-07
1.66676e-07
1.60707e-07
1.55181e-07
1.50089e-07
1.4538e-07
1.40966e-07
1.3678e-07
1.3274e-07
1.28748e-07
1.24719e-07
1.74145e-07
1.68321e-07
1.62434e-07
1.56446e-07
1.50553e-07
1.44739e-07
1.39162e-07
1.33991e-07
1.29217e-07
1.2479e-07
1.20707e-07
1.16932e-07
1.13397e-07
1.10048e-07
1.06827e-07
1.03661e-07
1.00477e-07
9.72013e-08
1.39825e-07
1.35173e-07
1.30468e-07
1.25701e-07
1.21012e-07
1.16383e-07
1.11943e-07
1.07824e-07
1.04011e-07
1.0047e-07
9.71992e-08
9.4171e-08
9.13407e-08
8.86627e-08
8.6097e-08
8.35843e-08
8.10675e-08
7.84896e-08
1.12316e-07
1.08603e-07
1.04848e-07
1.01058e-07
9.73336e-08
9.36565e-08
9.01288e-08
8.68508e-08
8.3812e-08
8.0985e-08
7.83671e-08
7.59429e-08
7.36775e-08
7.15386e-08
6.94936e-08
6.74995e-08
6.55125e-08
6.34843e-08
9.02498e-08
8.72881e-08
8.42981e-08
8.12889e-08
7.83375e-08
7.54231e-08
7.26255e-08
7.00245e-08
6.7608e-08
6.53539e-08
6.32638e-08
6.13264e-08
5.9516e-08
5.78092e-08
5.6183e-08
5.46027e-08
5.30326e-08
5.14361e-08
4.97719e-08
7.25373e-08
7.01764e-08
6.77998e-08
6.54174e-08
6.30838e-08
6.07789e-08
5.85675e-08
5.65095e-08
5.45947e-08
5.28021e-08
5.11367e-08
4.95915e-08
4.81472e-08
4.67883e-08
4.5496e-08
4.42441e-08
4.3006e-08
4.17539e-08
4.04525e-08
5.83106e-08
5.64309e-08
5.45452e-08
5.26651e-08
5.08253e-08
4.90082e-08
4.72662e-08
4.56437e-08
4.41301e-08
4.27102e-08
4.1387e-08
4.01581e-08
3.90084e-08
3.79282e-08
3.69038e-08
3.59146e-08
3.494e-08
3.39581e-08
3.29408e-08
4.68773e-08
4.53836e-08
4.38905e-08
4.24119e-08
4.09658e-08
3.95384e-08
3.81718e-08
3.68982e-08
3.57078e-08
3.45863e-08
3.35379e-08
3.25628e-08
3.16511e-08
3.07952e-08
2.99856e-08
2.92049e-08
2.8439e-08
2.76709e-08
2.68789e-08
2.60388e-08
3.76851e-08
3.64997e-08
3.53219e-08
3.41622e-08
3.30304e-08
3.19141e-08
3.08478e-08
2.98535e-08
2.89203e-08
2.80378e-08
2.72112e-08
2.64401e-08
2.5719e-08
2.50428e-08
2.44044e-08
2.37909e-08
2.31915e-08
2.25925e-08
2.19761e-08
2.13241e-08
3.02921e-08
2.93529e-08
2.84272e-08
2.75218e-08
2.66398e-08
2.57713e-08
2.49441e-08
2.41722e-08
2.34449e-08
2.27539e-08
2.21041e-08
2.1497e-08
2.09287e-08
2.03965e-08
1.98952e-08
1.94149e-08
1.89469e-08
1.84806e-08
1.80026e-08
1.74993e-08
2.43443e-08
2.36018e-08
2.28769e-08
2.21739e-08
2.14898e-08
2.08183e-08
2.01815e-08
1.95864e-08
1.90231e-08
1.84846e-08
1.79762e-08
1.75004e-08
1.70547e-08
1.66375e-08
1.62451e-08
1.58704e-08
1.55066e-08
1.51454e-08
1.47766e-08
1.43889e-08
1.3969e-08
1.95584e-08
1.89726e-08
1.84075e-08
1.7865e-08
1.73377e-08
1.68225e-08
1.63366e-08
1.58815e-08
1.5448e-08
1.5031e-08
1.46353e-08
1.42643e-08
1.39165e-08
1.35911e-08
1.32857e-08
1.2995e-08
1.27137e-08
1.24349e-08
1.2151e-08
1.18535e-08
1.15321e-08
1.57066e-08
1.5246e-08
1.48075e-08
1.43921e-08
1.39886e-08
1.35969e-08
1.32303e-08
1.28857e-08
1.25546e-08
1.22339e-08
1.19279e-08
1.16402e-08
1.13706e-08
1.11185e-08
1.08823e-08
1.06579e-08
1.04412e-08
1.02273e-08
1.00102e-08
9.78295e-09
9.5378e-09
1.26065e-08
1.22456e-08
1.19075e-08
1.15921e-08
1.12859e-08
1.09918e-08
1.07191e-08
1.04611e-08
1.02107e-08
9.96589e-09
9.73116e-09
9.50986e-09
9.30235e-09
9.10845e-09
8.92697e-09
8.7549e-09
8.58914e-09
8.42587e-09
8.26061e-09
8.08793e-09
7.90197e-09
1.01116e-08
9.82986e-09
9.5712e-09
9.33406e-09
9.10421e-09
8.88694e-09
8.68758e-09
8.4973e-09
8.31e-09
8.1251e-09
7.94673e-09
7.7781e-09
7.61976e-09
7.47192e-09
7.33363e-09
7.20267e-09
7.07671e-09
6.95284e-09
6.82761e-09
6.69699e-09
6.55632e-09
6.3996e-09
8.10405e-09
7.88497e-09
7.68889e-09
7.51286e-09
7.34277e-09
7.18559e-09
7.04337e-09
6.90541e-09
6.76741e-09
6.62951e-09
6.49562e-09
6.36866e-09
6.24921e-09
6.13754e-09
6.03301e-09
5.93396e-09
5.83877e-09
5.74539e-09
5.65102e-09
5.55255e-09
5.44665e-09
5.32853e-09
6.4889e-09
6.31945e-09
6.17253e-09
6.04389e-09
5.92026e-09
5.81e-09
5.71183e-09
5.61412e-09
5.51437e-09
5.41333e-09
5.31444e-09
5.22018e-09
5.1311e-09
5.04749e-09
4.96911e-09
4.89478e-09
4.82325e-09
4.75301e-09
4.682e-09
4.60801e-09
4.52829e-09
4.43923e-09
5.18993e-09
5.05958e-09
4.95117e-09
4.85905e-09
4.77141e-09
4.69749e-09
4.63297e-09
4.56592e-09
4.49581e-09
4.42358e-09
4.35199e-09
4.2831e-09
4.21746e-09
4.15541e-09
4.09689e-09
4.04115e-09
3.9874e-09
3.93453e-09
3.88113e-09
3.82539e-09
3.76526e-09
3.69813e-09
4.1457e-09
4.04608e-09
3.96769e-09
3.90344e-09
3.84356e-09
3.79766e-09
3.75845e-09
3.71454e-09
3.66735e-09
3.61749e-09
3.56695e-09
3.51742e-09
3.46943e-09
3.42346e-09
3.37967e-09
3.3377e-09
3.29708e-09
3.25706e-09
3.21658e-09
3.17434e-09
3.12874e-09
3.07777e-09
3.01905e-09
3.30669e-09
3.23121e-09
3.17603e-09
3.13287e-09
3.09432e-09
3.06979e-09
3.0492e-09
3.0226e-09
2.99312e-09
2.96049e-09
2.92582e-09
2.89059e-09
2.85547e-09
2.82111e-09
2.78795e-09
2.75591e-09
2.72479e-09
2.69412e-09
2.66308e-09
2.63072e-09
2.59587e-09
2.55695e-09
2.5121e-09
2.63306e-09
2.57642e-09
2.53908e-09
2.51168e-09
2.48942e-09
2.48095e-09
2.47375e-09
2.45997e-09
2.44422e-09
2.42458e-09
2.4014e-09
2.37625e-09
2.35013e-09
2.32388e-09
2.29816e-09
2.27321e-09
2.24895e-09
2.2251e-09
2.20106e-09
2.17606e-09
2.14924e-09
2.11936e-09
2.08502e-09
2.09265e-09
2.05069e-09
2.02689e-09
2.01112e-09
2.00121e-09
2.00458e-09
2.0066e-09
2.00234e-09
1.99726e-09
1.98702e-09
1.97159e-09
1.95313e-09
1.93303e-09
1.91233e-09
1.89193e-09
1.87214e-09
1.853e-09
1.83431e-09
1.81559e-09
1.79625e-09
1.77562e-09
1.75278e-09
1.72661e-09
1.65956e-09
1.62897e-09
1.61533e-09
1.60799e-09
1.60738e-09
1.61914e-09
1.62715e-09
1.63002e-09
1.63321e-09
1.6293e-09
1.61855e-09
1.60425e-09
1.58817e-09
1.57146e-09
1.55505e-09
1.53931e-09
1.52427e-09
1.50971e-09
1.49528e-09
1.48051e-09
1.46487e-09
1.44761e-09
1.42792e-09
1.31289e-09
1.29107e-09
1.2849e-09
1.28358e-09
1.28991e-09
1.30728e-09
1.31882e-09
1.32711e-09
1.3366e-09
1.33633e-09
1.32794e-09
1.31624e-09
1.30314e-09
1.28966e-09
1.27663e-09
1.26437e-09
1.25282e-09
1.24178e-09
1.23092e-09
1.21989e-09
1.20824e-09
1.19542e-09
1.18081e-09
1.16423e-09
1.03574e-09
1.02065e-09
1.01987e-09
1.0227e-09
1.03417e-09
1.05492e-09
1.06824e-09
1.08085e-09
1.09489e-09
1.09587e-09
1.08833e-09
1.07863e-09
1.06827e-09
1.0578e-09
1.04787e-09
1.03868e-09
1.03011e-09
1.02196e-09
1.01396e-09
1.00582e-09
9.97226e-10
9.87725e-10
9.76845e-10
9.64434e-10
8.14533e-10
8.04552e-10
8.07494e-10
8.1309e-10
8.28237e-10
8.50544e-10
8.64541e-10
8.80898e-10
8.98045e-10
8.98268e-10
8.90818e-10
8.83221e-10
8.75697e-10
8.68066e-10
8.60829e-10
8.54131e-10
8.47852e-10
8.41818e-10
8.35837e-10
8.29697e-10
8.23149e-10
8.15857e-10
8.07442e-10
7.97777e-10
6.38375e-10
6.32238e-10
6.37588e-10
6.44888e-10
6.62499e-10
6.84828e-10
6.98758e-10
7.18396e-10
7.37642e-10
7.35974e-10
7.28624e-10
7.23454e-10
7.18654e-10
7.13289e-10
7.07929e-10
7.02848e-10
6.97968e-10
6.93166e-10
6.88321e-10
6.8329e-10
6.77892e-10
6.71863e-10
6.64882e-10
6.56852e-10
4.98462e-10
4.95236e-10
5.02017e-10
5.10295e-10
5.29405e-10
5.50577e-10
5.63853e-10
5.8565e-10
6.06128e-10
6.02789e-10
5.96303e-10
5.93617e-10
5.90827e-10
5.8671e-10
5.82193e-10
5.77751e-10
5.7338e-10
5.69019e-10
5.64604e-10
5.60045e-10
5.55198e-10
5.49833e-10
5.43662e-10
5.36635e-10
3.87609e-10
3.86542e-10
3.9409e-10
4.02964e-10
4.22891e-10
4.42295e-10
4.54688e-10
4.77482e-10
4.9803e-10
4.93259e-10
4.88365e-10
4.87833e-10
4.85898e-10
4.81913e-10
4.77447e-10
4.73065e-10
4.68742e-10
4.64467e-10
4.60193e-10
4.55847e-10
4.51314e-10
4.46386e-10
4.40802e-10
4.34553e-10
3.00111e-10
3.00474e-10
3.08199e-10
3.17398e-10
3.37497e-10
3.54921e-10
3.66671e-10
3.91505e-10
4.12031e-10
4.03283e-10
3.99029e-10
4.00338e-10
3.98504e-10
3.93993e-10
3.89295e-10
3.84916e-10
3.80676e-10
3.76536e-10
3.72475e-10
3.68433e-10
3.64269e-10
3.59804e-10
3.54825e-10
3.49319e-10
3.43527e-10
2.32261e-10
2.3342e-10
2.40602e-10
2.49558e-10
2.68739e-10
2.83415e-10
2.93989e-10
3.21981e-10
3.46308e-10
3.30745e-10
3.24693e-10
3.27959e-10
3.2657e-10
3.21688e-10
3.16929e-10
3.1278e-10
3.08826e-10
3.04953e-10
3.01217e-10
2.97551e-10
2.93807e-10
2.89824e-10
2.85437e-10
2.80605e-10
2.75541e-10
1.83905e-10
1.85258e-10
1.91153e-10
1.98792e-10
2.1536e-10
2.25307e-10
2.32325e-10
2.62224e-10
2.90153e-10
2.70654e-10
2.63955e-10
2.69486e-10
2.69736e-10
2.65651e-10
2.61503e-10
2.58e-10
2.5464e-10
2.51287e-10
2.48017e-10
2.44793e-10
2.41513e-10
2.38016e-10
2.34156e-10
2.29903e-10
2.25449e-10
1.49595e-10
1.50801e-10
1.55201e-10
1.61089e-10
1.74052e-10
1.78727e-10
1.82885e-10
2.07078e-10
2.35437e-10
2.19377e-10
2.14992e-10
2.21834e-10
2.24136e-10
2.21802e-10
2.1874e-10
2.16075e-10
2.13486e-10
2.10843e-10
2.08181e-10
2.05507e-10
2.02765e-10
1.99824e-10
1.9653e-10
1.92861e-10
1.89004e-10
1.21297e-10
1.22351e-10
1.25539e-10
1.3021e-10
1.40091e-10
1.41141e-10
1.44601e-10
1.61115e-10
1.86304e-10
1.76704e-10
1.74987e-10
1.81664e-10
1.8524e-10
1.84564e-10
1.82583e-10
1.80644e-10
1.78721e-10
1.76704e-10
1.74626e-10
1.72504e-10
1.703e-10
1.6791e-10
1.65198e-10
1.62122e-10
1.58859e-10
9.65158e-11
9.74108e-11
9.95933e-11
1.03442e-10
1.10554e-10
1.09688e-10
1.13283e-10
1.23687e-10
1.46167e-10
1.42235e-10
1.42426e-10
1.48116e-10
1.51972e-10
1.52367e-10
1.51263e-10
1.49971e-10
1.48639e-10
1.47151e-10
1.45537e-10
1.43852e-10
1.42083e-10
1.40142e-10
1.37928e-10
1.35359e-10
1.32574e-10
7.55776e-11
7.62913e-11
7.76852e-11
8.09326e-11
8.56034e-11
8.41852e-11
8.78226e-11
9.37135e-11
1.13929e-10
1.1424e-10
1.15964e-10
1.20733e-10
1.24442e-10
1.25373e-10
1.24786e-10
1.23971e-10
1.23195e-10
1.22282e-10
1.21157e-10
1.19869e-10
1.18442e-10
1.16841e-10
1.1497e-10
1.12765e-10
1.1032e-10
5.81599e-11
5.8641e-11
5.9412e-11
6.21157e-11
6.47237e-11
6.38221e-11
6.70369e-11
7.01342e-11
8.87006e-11
9.18887e-11
9.45945e-11
9.86582e-11
1.0225e-10
1.0359e-10
1.03232e-10
1.02382e-10
1.01604e-10
1.00902e-10
1.00143e-10
9.92418e-11
9.81434e-11
9.68015e-11
9.51149e-11
9.30667e-11
9.07421e-11
4.40332e-11
4.42234e-11
4.44755e-11
4.65208e-11
4.746e-11
4.77107e-11
4.99163e-11
5.19506e-11
6.93992e-11
7.4459e-11
7.77469e-11
8.09723e-11
8.40337e-11
8.56977e-11
8.59849e-11
8.53943e-11
8.43503e-11
8.31236e-11
8.1897e-11
8.07323e-11
7.95615e-11
7.82343e-11
7.65405e-11
7.43187e-11
7.16126e-11
3.28515e-11
3.27489e-11
3.25768e-11
3.37816e-11
3.34197e-11
3.47815e-11
3.53004e-11
3.79467e-11
5.48453e-11
6.097e-11
6.51314e-11
6.76983e-11
6.91039e-11
6.93107e-11
6.91943e-11
6.91877e-11
6.90407e-11
6.83139e-11
6.69293e-11
6.51178e-11
6.30952e-11
6.09262e-11
5.85208e-11
5.57681e-11
5.26742e-11
4.93233e-11
2.41406e-11
2.38017e-11
2.33188e-11
2.36249e-11
2.24447e-11
2.42956e-11
2.27028e-11
2.75102e-11
4.41524e-11
4.96534e-11
5.48436e-11
5.77438e-11
5.80946e-11
5.60941e-11
5.31176e-11
5.06656e-11
4.93656e-11
4.89053e-11
4.85711e-11
4.78073e-11
4.63676e-11
4.42345e-11
4.14633e-11
3.82443e-11
3.48422e-11
3.15024e-11
1.74975e-11
1.69085e-11
1.6087e-11
1.55885e-11
1.42472e-11
1.60946e-11
1.32569e-11
2.19689e-11
3.74249e-11
4.06267e-11
4.55696e-11
4.74069e-11
4.79726e-11
4.76341e-11
4.49309e-11
4.00956e-11
3.51653e-11
3.18121e-11
3.05169e-11
3.09498e-11
3.24505e-11
3.42712e-11
3.53911e-11
3.48135e-11
3.2665e-11
3.00286e-11
1.29105e-11
1.19326e-11
1.05071e-11
9.18024e-12
8.00741e-12
9.69001e-12
8.02657e-12
2.24556e-11
3.46106e-11
4.01042e-11
5.25659e-11
5.60613e-11
5.19741e-11
4.55806e-11
4.16139e-11
4.23523e-11
4.6227e-11
4.99797e-11
5.1803e-11
5.19473e-11
5.13405e-11
5.09805e-11
5.23859e-11
5.75744e-11
6.712e-11
7.94955e-11
1.04633e-11
9.06216e-12
6.89915e-12
4.65572e-12
3.25641e-12
4.24141e-12
5.41459e-12
2.3055e-11
2.75136e-11
3.75326e-11
6.11657e-11
8.61236e-11
1.15673e-10
1.50547e-10
1.86407e-10
2.18916e-10
2.45484e-10
2.68191e-10
2.91175e-10
3.17379e-10
3.48014e-10
3.82881e-10
4.20557e-10
4.56302e-10
4.84464e-10
5.06897e-10
9.4235e-12
7.86191e-12
5.33372e-12
2.54104e-12
7.17993e-13
1.02999e-12
4.32007e-12
1.31515e-11
2.75913e-11
1.32231e-10
3.08146e-10
5.28813e-10
7.46142e-10
9.26292e-10
1.05673e-09
1.14833e-09
1.22068e-09
1.29075e-09
1.3648e-09
1.44191e-09
1.51813e-09
1.59263e-09
1.66839e-09
1.75666e-09
1.84887e-09
1.92859e-09
)
;

boundaryField
{
    inlet
    {
        type            calculated;
        value           nonuniform List<scalar> 
26
(
8.64286e-12
7.24485e-12
4.91973e-12
2.26537e-12
4.8109e-13
9.82329e-13
5.51523e-12
6.38152e-12
1.28195e-10
5.37513e-10
1.34221e-09
2.50532e-09
3.87729e-09
5.2969e-09
6.61864e-09
7.78039e-09
8.77749e-09
9.6392e-09
1.04111e-08
1.11395e-08
1.18645e-08
1.26363e-08
1.35213e-08
1.45763e-08
1.57386e-08
1.68875e-08
)
;
    }
    outlet
    {
        type            calculated;
        value           nonuniform List<scalar> 0();
    }
    walls
    {
        type            calculated;
        value           nonuniform List<scalar> 0();
    }
    frontAndBack
    {
        type            empty;
    }
    procBoundary0to1
    {
        type            processor;
        value           nonuniform List<scalar> 
94
(
0.000245536
0.000164965
0.000164965
0.000112079
0.000112079
7.72344e-05
7.72344e-05
5.37783e-05
5.37783e-05
3.79189e-05
3.79189e-05
2.7083e-05
2.0887e-05
2.0887e-05
1.52446e-05
1.19041e-05
1.19041e-05
8.84304e-06
6.96723e-06
5.49793e-06
5.49793e-06
4.15833e-06
3.29942e-06
3.29942e-06
2.51592e-06
2.00381e-06
1.59656e-06
1.59656e-06
1.22669e-06
9.79712e-07
7.82641e-07
7.82641e-07
6.03928e-07
4.83335e-07
4.83335e-07
3.73469e-07
2.9945e-07
2.40236e-07
2.40236e-07
1.86119e-07
1.4971e-07
1.20552e-07
1.20552e-07
9.37442e-08
7.57793e-08
6.13591e-08
6.13591e-08
4.79926e-08
3.90635e-08
3.18586e-08
3.18586e-08
2.51235e-08
2.06162e-08
1.69535e-08
1.69535e-08
1.35012e-08
1.11743e-08
9.26499e-09
7.69476e-09
7.69476e-09
6.22025e-09
5.19303e-09
4.33703e-09
3.62083e-09
3.62083e-09
2.9517e-09
2.46072e-09
2.04578e-09
1.69681e-09
1.40558e-09
1.40558e-09
1.14614e-09
9.50845e-10
7.87154e-10
6.48066e-10
5.29059e-10
4.27932e-10
4.27932e-10
3.37742e-10
2.70545e-10
2.21067e-10
1.85206e-10
1.55613e-10
1.2974e-10
1.07751e-10
8.82695e-11
6.86433e-11
6.86433e-11
4.57955e-11
2.83745e-11
2.76998e-11
9.30873e-11
5.27251e-10
1.99294e-09
)
;
    }
    procBoundary0to4
    {
        type            processor;
        value           nonuniform List<scalar> 
72
(
0.000201518
0.000145535
0.000106523
7.88238e-05
5.88955e-05
4.43768e-05
3.36873e-05
2.57412e-05
1.97834e-05
1.5282e-05
1.1859e-05
9.24062e-06
7.22641e-06
5.66983e-06
4.46158e-06
3.52001e-06
2.78375e-06
2.20613e-06
1.75167e-06
1.39324e-06
1.10986e-06
8.85317e-07
6.82493e-07
6.82493e-07
5.45552e-07
4.36523e-07
3.4959e-07
2.80189e-07
2.24714e-07
1.80322e-07
1.44769e-07
1.16271e-07
9.341e-08
7.50587e-08
6.03197e-08
4.84765e-08
3.8956e-08
3.13e-08
2.5142e-08
2.01883e-08
1.62029e-08
1.29965e-08
1.04173e-08
8.34276e-09
6.6747e-09
5.33399e-09
4.25691e-09
3.39212e-09
2.69831e-09
2.14219e-09
1.69689e-09
1.34078e-09
1.05638e-09
8.29645e-10
6.49254e-10
5.06132e-10
3.92893e-10
3.03668e-10
2.34669e-10
1.85702e-10
1.51023e-10
1.22402e-10
9.73505e-11
7.61988e-11
5.86341e-11
4.44232e-11
3.32074e-11
2.44955e-11
1.78917e-11
1.33883e-11
1.1028e-11
1.0014e-11
)
;
    }
    procBoundary0to5
    {
        type            processor;
        value           nonuniform List<scalar> 4(0.000278424 0.000272443 0.000265599 0.000256885);
    }
}


// ************************************************************************* //
