/*--------------------------------*- C++ -*----------------------------------*\
| =========                 |                                                 |
| \\      /  F ield         | OpenFOAM: The Open Source CFD Toolbox           |
|  \\    /   O peration     | Version:  2506                                  |
|   \\  /    A nd           | Website:  www.openfoam.com                      |
|    \\/     M anipulation  |                                                 |
\*---------------------------------------------------------------------------*/
FoamFile
{
    version     2.0;
    format      ascii;
    arch        "LSB;label=32;scalar=64";
    class       volScalarField;
    location    "200";
    object      turbulenceProperties:epsilon;
}
// * * * * * * * * * * * * * * * * * * * * * * * * * * * * * * * * * * * * * //

dimensions      [0 2 -3 0 0 0 0];

internalField   nonuniform List<scalar> 
1340
(
0.00617124
0.00693146
0.0125683
0.0265819
0.0555598
0.109517
0.201514
0.345944
0.562129
0.882558
1.37085
2.14921
3.44517
5.71896
9.83583
17.878
33.6495
68.6122
142.654
323.558
670.174
951.539
1072.57
1105.39
1106.73
1092.91
1066.91
1029.63
0.0035207
0.00273049
0.00208349
0.00152694
0.00107936
0.000754712
0.000525227
0.000362765
0.000248382
0.000168692
0.000113045
7.45214e-05
4.71989e-05
2.75324e-05
1.316e-05
4.20584e-06
4.00784e-07
6.81462e-09
8.07131e-08
0.00101694
0.00627229
0.0525771
0.173673
0.32404
0.472328
0.622317
0.781849
0.955593
1.14408
0.00224649
0.0018159
0.0014567
0.00112589
0.000818142
0.000567332
0.000381701
0.000251171
0.000163942
0.000107093
7.1188e-05
4.88506e-05
3.52537e-05
2.68647e-05
2.17555e-05
1.87366e-05
1.71822e-05
1.63737e-05
1.63491e-05
1.61836e-05
1.82829e-05
6.3124e-06
0.000174356
0.00100903
0.00211341
0.00371096
0.00982532
0.0271065
0.0609465
0.00160226
0.0013825
0.00116705
0.000961222
0.000760092
0.000577585
0.000429411
0.000316697
0.000233224
0.000172612
0.000128818
9.75842e-05
7.53406e-05
5.95683e-05
4.80941e-05
3.96732e-05
3.32242e-05
2.79276e-05
2.28478e-05
1.81561e-05
1.46679e-05
1.22776e-05
1.07033e-05
8.87017e-06
6.95977e-06
3.60503e-06
1.44824e-06
2.28609e-05
1.49281e-05
7.21925e-05
0.00101268
0.000892359
0.000771787
0.000652607
0.000533263
0.000422021
0.00032581
0.000246739
0.000183782
0.000135169
9.86009e-05
7.17689e-05
5.2494e-05
3.88938e-05
2.93176e-05
2.25779e-05
1.77378e-05
1.41079e-05
1.10333e-05
8.2937e-06
6.10949e-06
4.61457e-06
3.70647e-06
3.34479e-06
2.85412e-06
4.25857e-06
1.85334e-07
8.87713e-06
5.23564e-05
0.000111815
0.000724703
0.000661186
0.000591858
0.000521666
0.000450211
0.000377425
0.000308135
0.000246174
0.00019338
0.0001499
0.000115157
8.81474e-05
6.76019e-05
5.22396e-05
4.0884e-05
3.24865e-05
2.62167e-05
2.13888e-05
1.74656e-05
1.39537e-05
1.07198e-05
8.03445e-06
6.00712e-06
4.53661e-06
3.46213e-06
2.67912e-06
2.08735e-06
1.61427e-06
1.03882e-06
5.04892e-07
6.13695e-11
0.000482674
0.000444253
0.000403079
0.00036041
0.00031613
0.000270973
0.000227283
0.000187021
0.000151351
0.000120681
9.50575e-05
7.42179e-05
5.76436e-05
4.47348e-05
3.48482e-05
2.73282e-05
2.16093e-05
1.71952e-05
1.36687e-05
1.06605e-05
8.02105e-06
5.86463e-06
4.24719e-06
3.08808e-06
2.26412e-06
1.68953e-06
1.31538e-06
1.09741e-06
9.74965e-07
7.95689e-07
4.40826e-07
0.000330063
0.000305787
0.000280357
0.000253575
0.000225476
0.000196888
0.000168817
0.000142369
0.000118255
9.68367e-05
7.83289e-05
6.2778e-05
5.00012e-05
3.97432e-05
3.16544e-05
2.53337e-05
2.03919e-05
1.64761e-05
1.32735e-05
1.05112e-05
8.07558e-06
6.04881e-06
4.47876e-06
3.30639e-06
2.43142e-06
1.77806e-06
1.29778e-06
9.4616e-07
6.88948e-07
5.01134e-07
3.89919e-07
0.000243913
0.000230485
0.000214823
0.000198551
0.00018127
0.000163086
0.000144618
0.000126325
0.000108787
9.24156e-05
7.74598e-05
6.41231e-05
5.25285e-05
4.26737e-05
3.44774e-05
2.77869e-05
2.23931e-05
1.80627e-05
1.45601e-05
1.16651e-05
9.18924e-06
7.04332e-06
5.26268e-06
3.87778e-06
2.84277e-06
2.07631e-06
1.51214e-06
1.1054e-06
8.23018e-07
6.35541e-07
5.18803e-07
4.55981e-07
0.000163836
0.000153526
0.000142787
0.00013136
0.000119396
0.000107255
9.51594e-05
8.34221e-05
7.22535e-05
6.18002e-05
5.22342e-05
4.36788e-05
3.61813e-05
2.97598e-05
2.43586e-05
1.98809e-05
1.61955e-05
1.31515e-05
1.05995e-05
8.41085e-06
6.51533e-06
4.93189e-06
3.68123e-06
2.72925e-06
2.01164e-06
1.47298e-06
1.0746e-06
7.85713e-07
5.78977e-07
4.38451e-07
3.47881e-07
0.000111314
0.000104052
9.63372e-05
8.83408e-05
8.02409e-05
7.21335e-05
6.41946e-05
5.65359e-05
4.92329e-05
4.23891e-05
3.61064e-05
3.04441e-05
2.54461e-05
2.112e-05
1.74306e-05
1.43116e-05
1.16788e-05
9.43938e-06
7.50954e-06
5.84249e-06
4.44659e-06
3.33294e-06
2.47638e-06
1.82694e-06
1.33887e-06
9.78583e-07
7.19589e-07
5.39021e-07
4.20539e-07
3.47715e-07
7.66974e-05
7.13984e-05
6.59725e-05
6.04858e-05
5.49868e-05
4.95717e-05
4.42906e-05
3.91696e-05
3.42816e-05
2.96924e-05
2.54476e-05
2.15997e-05
1.8173e-05
1.51731e-05
1.25767e-05
1.03396e-05
8.4055e-06
6.7245e-06
5.27088e-06
4.0471e-06
3.05968e-06
2.29011e-06
1.70013e-06
1.2525e-06
9.18391e-07
6.74938e-07
5.01442e-07
3.83953e-07
3.098e-07
5.34054e-05
4.96667e-05
4.59079e-05
4.21347e-05
3.84042e-05
3.4738e-05
3.11431e-05
2.76501e-05
2.43047e-05
2.11413e-05
1.82026e-05
1.55176e-05
1.31046e-05
1.09643e-05
9.0799e-06
7.42425e-06
5.97241e-06
4.71137e-06
3.64393e-06
2.77343e-06
2.08688e-06
1.55551e-06
1.14949e-06
8.4474e-07
6.21851e-07
4.63174e-07
3.55981e-07
2.88728e-07
3.76611e-05
3.50486e-05
3.24346e-05
2.98442e-05
2.7285e-05
2.4749e-05
2.22546e-05
1.98224e-05
1.74741e-05
1.52438e-05
1.31581e-05
1.12375e-05
9.49229e-06
7.92349e-06
6.52232e-06
5.28131e-06
4.19656e-06
3.27133e-06
2.5089e-06
1.90013e-06
1.42388e-06
1.05681e-06
7.79035e-07
5.74182e-07
4.26865e-07
3.26001e-07
2.61555e-07
2.69014e-05
2.5075e-05
2.32582e-05
2.14587e-05
1.96643e-05
1.78781e-05
1.61124e-05
1.43772e-05
1.26939e-05
1.10841e-05
9.56768e-06
8.16004e-06
6.8692e-06
5.69637e-06
4.6431e-06
3.71499e-06
2.91788e-06
2.25421e-06
1.71784e-06
1.29369e-06
9.63905e-07
7.12388e-07
5.25587e-07
3.90452e-07
2.97356e-07
2.37269e-07
2.07474e-05
1.94532e-05
1.81742e-05
1.69012e-05
1.56241e-05
1.43433e-05
1.30593e-05
1.17792e-05
1.05146e-05
9.28095e-06
8.0941e-06
6.96855e-06
5.91595e-06
4.94315e-06
4.05871e-06
3.2716e-06
2.58945e-06
2.01523e-06
1.54558e-06
1.17008e-06
8.75376e-07
6.48713e-07
4.79009e-07
3.55237e-07
2.69129e-07
2.12764e-07
1.5144e-05
1.42353e-05
1.33272e-05
1.24147e-05
1.14927e-05
1.05598e-05
9.61626e-06
8.67009e-06
7.72969e-06
6.80744e-06
5.91534e-06
5.06443e-06
4.26457e-06
3.52744e-06
2.86479e-06
2.28454e-06
1.79091e-06
1.38235e-06
1.05198e-06
7.90188e-07
5.87068e-07
4.33712e-07
3.20991e-07
2.41883e-07
1.89441e-07
1.18259e-05
1.11727e-05
1.05227e-05
9.86615e-06
9.20013e-06
8.52066e-06
7.82586e-06
7.11938e-06
6.40593e-06
5.69321e-06
4.99123e-06
4.30999e-06
3.65873e-06
3.04902e-06
2.49407e-06
2.00388e-06
1.5824e-06
1.22934e-06
9.4053e-07
7.09333e-07
5.28295e-07
3.90378e-07
2.88162e-07
2.15733e-07
1.67075e-07
8.78607e-06
8.3177e-06
7.8423e-06
7.35909e-06
6.86346e-06
6.35175e-06
5.82482e-06
5.2852e-06
4.73779e-06
4.1888e-06
3.64642e-06
3.11943e-06
2.61957e-06
2.15924e-06
1.7479e-06
1.39015e-06
1.08688e-06
8.35927e-07
6.32931e-07
4.72453e-07
3.49055e-07
2.56832e-07
1.90844e-07
1.45944e-07
6.92179e-06
6.58106e-06
6.23571e-06
5.8837e-06
5.52074e-06
5.14329e-06
4.75063e-06
4.34316e-06
3.92384e-06
3.49715e-06
3.06872e-06
2.64554e-06
2.23836e-06
1.85883e-06
1.51573e-06
1.21397e-06
9.55158e-07
7.38483e-07
5.61308e-07
4.19855e-07
3.10013e-07
2.27216e-07
1.6737e-07
1.26146e-07
5.46195e-06
5.21179e-06
4.96008e-06
4.702e-06
4.43503e-06
4.15584e-06
3.86312e-06
3.55622e-06
3.23621e-06
2.90563e-06
2.56901e-06
2.23173e-06
1.90238e-06
1.59116e-06
1.30673e-06
1.05384e-06
8.34355e-07
6.48416e-07
4.94668e-07
3.70656e-07
2.73383e-07
1.99419e-07
1.45404e-07
1.07779e-07
4.13151e-06
3.94656e-06
3.75593e-06
3.55896e-06
3.35208e-06
3.13348e-06
2.90223e-06
2.65852e-06
2.40371e-06
2.1404e-06
1.87278e-06
1.60789e-06
1.35456e-06
1.12031e-06
9.0956e-07
7.2449e-07
5.65831e-07
4.33158e-07
3.25023e-07
2.39346e-07
1.73595e-07
1.25085e-07
9.09489e-08
3.27827e-06
3.14046e-06
2.99993e-06
2.85355e-06
2.69946e-06
2.53597e-06
2.36168e-06
2.17627e-06
1.98034e-06
1.77534e-06
1.56412e-06
1.35227e-06
1.14712e-06
9.55247e-07
7.80517e-07
6.25331e-07
4.90734e-07
3.76911e-07
2.83136e-07
2.08058e-07
1.4989e-07
1.06543e-07
7.57595e-08
2.50012e-06
2.39551e-06
2.28599e-06
2.17089e-06
2.04839e-06
1.91702e-06
1.77617e-06
1.62584e-06
1.4667e-06
1.30062e-06
1.13189e-06
9.66487e-07
8.09982e-07
6.66022e-07
5.36606e-07
4.23053e-07
3.25934e-07
2.4504e-07
1.7958e-07
1.2838e-07
8.98448e-08
6.22532e-08
1.99107e-06
1.91244e-06
1.83037e-06
1.74406e-06
1.652e-06
1.55283e-06
1.44565e-06
1.33029e-06
1.20695e-06
1.07683e-06
9.43037e-07
8.10393e-07
6.83378e-07
5.65293e-07
4.57902e-07
3.62598e-07
2.80137e-07
2.10699e-07
1.53915e-07
1.09068e-07
7.49912e-08
5.04129e-08
1.58631e-06
1.52671e-06
1.46521e-06
1.40007e-06
1.33044e-06
1.25529e-06
1.1737e-06
1.08523e-06
9.8979e-07
8.8803e-07
7.82272e-07
6.76261e-07
5.7373e-07
4.77278e-07
3.8861e-07
3.0901e-07
2.39342e-07
1.80041e-07
1.31026e-07
9.19276e-08
6.19568e-08
4.02086e-08
1.21897e-06
1.17247e-06
1.12288e-06
1.07012e-06
1.01302e-06
9.50818e-07
8.83026e-07
8.09318e-07
7.29921e-07
6.46572e-07
5.62108e-07
4.79569e-07
4.01105e-07
3.28179e-07
2.61972e-07
2.03393e-07
1.52975e-07
1.10863e-07
7.69428e-08
5.07208e-08
3.15951e-08
9.73511e-07
9.37856e-07
9.0012e-07
8.59961e-07
8.16501e-07
7.69017e-07
7.16965e-07
6.59997e-07
5.98112e-07
5.32517e-07
4.65405e-07
3.99167e-07
3.35557e-07
2.75826e-07
2.21008e-07
1.71978e-07
1.29315e-07
9.33073e-08
6.40269e-08
4.12058e-08
2.44874e-08
7.77634e-07
7.50127e-07
7.21456e-07
6.90695e-07
6.57438e-07
6.21066e-07
5.81059e-07
5.36994e-07
4.88774e-07
4.37223e-07
3.83985e-07
3.30994e-07
2.79602e-07
2.3086e-07
1.85657e-07
1.44788e-07
1.08852e-07
7.82024e-08
5.30448e-08
3.32852e-08
1.87592e-08
6.00092e-07
5.78132e-07
5.54427e-07
5.28905e-07
5.00978e-07
4.70174e-07
4.36066e-07
3.98494e-07
3.58025e-07
3.15896e-07
2.73572e-07
2.32176e-07
1.92524e-07
1.55387e-07
1.21457e-07
9.13149e-08
6.53476e-08
4.38341e-08
2.68169e-08
1.42692e-08
4.80294e-07
4.63114e-07
4.44977e-07
4.25308e-07
4.03785e-07
3.80001e-07
3.53578e-07
3.24287e-07
2.92513e-07
2.59218e-07
2.25496e-07
1.92236e-07
1.60083e-07
1.29674e-07
1.01616e-07
7.64355e-08
5.45366e-08
3.62263e-08
2.16446e-08
1.08633e-08
3.71132e-07
3.5717e-07
3.41881e-07
3.25251e-07
3.0686e-07
2.86358e-07
2.63528e-07
2.38611e-07
2.12311e-07
1.85493e-07
1.58819e-07
1.32813e-07
1.07994e-07
8.48794e-08
6.39336e-08
4.55425e-08
3.00327e-08
1.76007e-08
8.38387e-09
2.9757e-07
2.86646e-07
2.74809e-07
2.61934e-07
2.47684e-07
2.31774e-07
2.13977e-07
1.94433e-07
1.73674e-07
1.52357e-07
1.31004e-07
1.10026e-07
8.98373e-08
7.08622e-08
5.3511e-08
3.81377e-08
2.50636e-08
1.45186e-08
6.67399e-09
2.38701e-07
2.30133e-07
2.2101e-07
2.11004e-07
1.99949e-07
1.87567e-07
1.73652e-07
1.58304e-07
1.41925e-07
1.25014e-07
1.07965e-07
9.10873e-08
7.47165e-08
5.91976e-08
4.48849e-08
3.20945e-08
2.11266e-08
1.22251e-08
5.57656e-09
1.84929e-07
1.77858e-07
1.70025e-07
1.61416e-07
1.51769e-07
1.40905e-07
1.28867e-07
1.15956e-07
1.02557e-07
8.89674e-08
7.54244e-08
6.21905e-08
4.9549e-08
3.77901e-08
2.71969e-08
1.80406e-08
1.05604e-08
4.94741e-09
1.48753e-07
1.43182e-07
1.3709e-07
1.30391e-07
1.22874e-07
1.14388e-07
1.0495e-07
9.47805e-08
8.4176e-08
7.33615e-08
6.25188e-08
5.18548e-08
4.15925e-08
3.19741e-08
2.32415e-08
1.56358e-08
9.37905e-09
4.65776e-09
1.19766e-07
1.15386e-07
1.10674e-07
1.0544e-07
9.95788e-08
9.29466e-08
8.55394e-08
7.75333e-08
6.91482e-08
6.05593e-08
5.19043e-08
4.33403e-08
3.50432e-08
2.72128e-08
2.00493e-08
1.37631e-08
8.55411e-09
4.59584e-09
9.31277e-08
8.94649e-08
8.53635e-08
8.07876e-08
7.56001e-08
6.97922e-08
6.34948e-08
5.6882e-08
5.00809e-08
4.31934e-08
3.63394e-08
2.96602e-08
2.33123e-08
1.74646e-08
1.22944e-08
7.97687e-09
4.66885e-09
7.52823e-08
7.23984e-08
6.92049e-08
6.56359e-08
6.15839e-08
5.70402e-08
5.20983e-08
4.68906e-08
4.1515e-08
3.60483e-08
3.0582e-08
2.52259e-08
2.01035e-08
1.53528e-08
1.11222e-08
7.55872e-09
6.09484e-08
5.86824e-08
5.62147e-08
5.34293e-08
5.02664e-08
4.67116e-08
4.28358e-08
3.87404e-08
3.45017e-08
3.01766e-08
2.58335e-08
2.15565e-08
1.74434e-08
1.36039e-08
1.01591e-08
7.23176e-09
4.76666e-08
4.57543e-08
4.35733e-08
4.1105e-08
3.83267e-08
3.52924e-08
3.20824e-08
2.87513e-08
2.53418e-08
2.19052e-08
1.85057e-08
1.52187e-08
1.21312e-08
9.34012e-09
6.94596e-09
3.87998e-08
3.72975e-08
3.56048e-08
3.36846e-08
3.15188e-08
2.91512e-08
2.66421e-08
2.4032e-08
2.13533e-08
1.86445e-08
1.59539e-08
1.33391e-08
1.0868e-08
8.61741e-09
6.66748e-09
3.16394e-08
3.04668e-08
2.91652e-08
2.76702e-08
2.59845e-08
2.41414e-08
2.21843e-08
2.01447e-08
1.80469e-08
1.59198e-08
1.37993e-08
1.17292e-08
9.76125e-09
7.95517e-09
6.37398e-09
2.4947e-08
2.39423e-08
2.27792e-08
2.1471e-08
2.00382e-08
1.85157e-08
1.69276e-08
1.52916e-08
1.36288e-08
1.19655e-08
1.03346e-08
8.7751e-09
7.33261e-09
6.05581e-09
2.04723e-08
1.96904e-08
1.87936e-08
1.7781e-08
1.66709e-08
1.54914e-08
1.42602e-08
1.29897e-08
1.1695e-08
1.03959e-08
9.11649e-09
7.88603e-09
6.73874e-09
5.71165e-09
1.68333e-08
1.62268e-08
1.55414e-08
1.4759e-08
1.39021e-08
1.29918e-08
1.204e-08
1.10562e-08
1.00518e-08
9.04092e-09
8.04138e-09
7.07464e-09
6.16606e-09
5.34293e-09
1.34035e-08
1.28793e-08
1.22755e-08
1.16162e-08
1.09152e-08
1.01816e-08
9.42257e-09
8.64644e-09
7.86328e-09
7.08574e-09
6.32947e-09
5.61289e-09
4.95579e-09
1.10945e-08
1.06896e-08
1.0228e-08
9.72261e-09
9.18459e-09
8.62146e-09
8.0384e-09
7.44127e-09
6.83703e-09
6.23464e-09
5.6453e-09
5.08214e-09
4.55944e-09
9.1973e-09
8.88859e-09
8.53668e-09
8.15035e-09
7.73913e-09
7.30898e-09
6.86307e-09
6.40533e-09
5.9407e-09
5.47555e-09
5.01778e-09
4.57668e-09
4.16209e-09
7.63787e-09
7.40159e-09
7.1366e-09
6.84203e-09
6.5289e-09
6.20144e-09
5.86132e-09
5.51127e-09
5.15492e-09
4.79682e-09
4.44232e-09
4.09785e-09
3.77004e-09
6.17326e-09
5.97319e-09
5.74899e-09
5.51122e-09
5.26233e-09
5.00334e-09
4.73634e-09
4.46387e-09
4.18904e-09
3.91536e-09
3.64716e-09
3.38878e-09
5.15429e-09
5.00139e-09
4.83212e-09
4.65213e-09
4.46314e-09
4.26641e-09
4.06336e-09
3.85568e-09
3.64536e-09
3.43464e-09
3.2266e-09
3.02354e-09
4.30398e-09
4.18845e-09
4.06058e-09
3.92414e-09
3.78096e-09
3.632e-09
3.47803e-09
3.32005e-09
3.15942e-09
2.99765e-09
2.83653e-09
3.59293e-09
3.50468e-09
3.40892e-09
3.30537e-09
3.1969e-09
3.08419e-09
2.96749e-09
2.84746e-09
2.72496e-09
2.60104e-09
2.4766e-09
2.92851e-09
2.85605e-09
2.77729e-09
2.69513e-09
2.60972e-09
2.52126e-09
2.43017e-09
2.33699e-09
2.24239e-09
2.14676e-09
2.44149e-09
2.38561e-09
2.32608e-09
2.26393e-09
2.19925e-09
2.13229e-09
2.06337e-09
1.99281e-09
1.92089e-09
1.84771e-09
2.0294e-09
1.98695e-09
1.94187e-09
1.89492e-09
1.84611e-09
1.79568e-09
1.74381e-09
1.6906e-09
1.63614e-09
1.58043e-09
1.68289e-09
1.65079e-09
1.61693e-09
1.58165e-09
1.54509e-09
1.50739e-09
1.46857e-09
1.42863e-09
1.3876e-09
1.34537e-09
1.39387e-09
1.36964e-09
1.34478e-09
1.3184e-09
1.29116e-09
1.26312e-09
1.23418e-09
1.20428e-09
1.17343e-09
1.14151e-09
1.13643e-09
1.11803e-09
1.09836e-09
1.07809e-09
1.05719e-09
1.03553e-09
1.0131e-09
9.89881e-10
9.6571e-10
9.42828e-10
9.28731e-10
9.1399e-10
8.98738e-10
8.82911e-10
8.6652e-10
8.49548e-10
8.32e-10
8.13612e-10
7.80398e-10
7.69379e-10
7.57907e-10
7.46048e-10
7.33784e-10
7.21148e-10
7.08126e-10
6.94693e-10
6.42414e-10
6.33386e-10
6.24067e-10
6.14532e-10
6.04791e-10
5.94862e-10
5.84745e-10
5.74375e-10
5.24364e-10
5.16675e-10
5.08896e-10
5.01047e-10
4.93167e-10
4.85272e-10
4.77342e-10
4.69335e-10
4.24078e-10
4.17395e-10
4.1094e-10
4.04401e-10
3.97975e-10
3.91662e-10
3.85435e-10
3.79261e-10
3.3464e-10
3.29169e-10
3.23711e-10
3.18449e-10
3.1336e-10
3.08444e-10
3.03646e-10
2.67998e-10
2.63268e-10
2.58709e-10
2.54345e-10
2.50191e-10
2.46241e-10
2.42454e-10
2.18759e-10
2.14643e-10
2.10687e-10
2.0692e-10
2.03367e-10
2.00007e-10
1.96854e-10
1.8316e-10
1.79537e-10
1.76049e-10
1.72722e-10
1.69557e-10
1.66574e-10
1.63796e-10
1.53914e-10
1.50774e-10
1.47733e-10
1.44806e-10
1.41991e-10
1.39337e-10
1.36842e-10
1.28304e-10
1.25536e-10
1.22836e-10
1.20206e-10
1.17683e-10
1.15315e-10
1.13074e-10
1.06536e-10
1.03969e-10
1.01395e-10
9.88399e-11
9.63651e-11
9.40183e-11
8.72376e-11
8.47349e-11
8.22132e-11
7.96896e-11
7.72169e-11
7.48245e-11
6.77881e-11
6.47621e-11
6.17855e-11
5.88848e-11
5.61655e-11
5.36849e-11
4.51753e-11
4.16179e-11
3.80491e-11
3.45739e-11
3.12828e-11
2.79017e-11
2.51171e-11
2.26944e-11
2.06834e-11
1.91347e-11
2.70197e-11
2.52084e-11
2.38787e-11
2.29621e-11
2.23948e-11
9.20966e-11
1.06177e-10
1.20831e-10
1.35622e-10
1.50084e-10
5.19965e-10
5.37491e-10
5.51553e-10
5.62101e-10
5.69538e-10
1.97037e-09
2.02015e-09
2.05723e-09
2.08194e-09
2.09649e-09
)
;

boundaryField
{
    inlet
    {
        type            calculated;
        value           nonuniform List<scalar> 5(1.77586e-08 1.87524e-08 1.96706e-08 2.05079e-08 2.12599e-08);
    }
    outlet
    {
        type            calculated;
        value           nonuniform List<scalar> 0();
    }
    walls
    {
        type            calculated;
        value           uniform 0;
    }
    frontAndBack
    {
        type            empty;
    }
    procBoundary1to0
    {
        type            processor;
        value           nonuniform List<scalar> 
94
(
0.000172957
0.000172957
0.000118237
0.000118237
8.17017e-05
8.17017e-05
5.70976e-05
5.70976e-05
4.0271e-05
4.0271e-05
2.87377e-05
2.87377e-05
2.20483e-05
1.60675e-05
1.60675e-05
1.24889e-05
9.25924e-06
9.25924e-06
7.2664e-06
5.71502e-06
4.31645e-06
4.31645e-06
3.41532e-06
2.60329e-06
2.60329e-06
2.06851e-06
1.64497e-06
1.26438e-06
1.26438e-06
1.00816e-06
8.04277e-07
6.21336e-07
6.21336e-07
4.96678e-07
3.84464e-07
3.84464e-07
3.07915e-07
2.46798e-07
1.91613e-07
1.91613e-07
1.53965e-07
1.23856e-07
9.65513e-08
9.65513e-08
7.79504e-08
6.3036e-08
4.94308e-08
4.94308e-08
4.01683e-08
3.27034e-08
2.58559e-08
2.58559e-08
2.11708e-08
1.73704e-08
1.38685e-08
1.38685e-08
1.1448e-08
9.46697e-09
7.84201e-09
6.35175e-09
6.35175e-09
5.28814e-09
4.40497e-09
3.66896e-09
2.99549e-09
2.99549e-09
2.49213e-09
2.06812e-09
1.71227e-09
1.41572e-09
1.1544e-09
1.1544e-09
9.56148e-10
7.90825e-10
6.51044e-10
5.31799e-10
4.30541e-10
3.40371e-10
3.40371e-10
2.72896e-10
2.2307e-10
1.86906e-10
1.57115e-10
1.311e-10
1.09071e-10
8.96768e-11
7.07151e-11
4.8663e-11
4.8663e-11
3.09859e-11
2.93435e-11
7.86403e-11
4.99999e-10
1.90706e-09
)
;
    }
    procBoundary1to2
    {
        type            processor;
        value           nonuniform List<scalar> 
84
(
982.86
1.35836
0.112329
0.000893166
8.0937e-05
7.47445e-06
4.10116e-09
3.21601e-07
4.62987e-07
3.30614e-07
3.38728e-07
2.91399e-07
2.69771e-07
2.40581e-07
2.15769e-07
1.90585e-07
1.67067e-07
1.44769e-07
1.24046e-07
1.04934e-07
8.75213e-08
7.1859e-08
5.79941e-08
4.59209e-08
3.55761e-08
2.68857e-08
1.97578e-08
1.40705e-08
9.67459e-09
6.4099e-09
4.11084e-09
2.61606e-09
1.76857e-09
1.41772e-09
1.42763e-09
1.68063e-09
2.07675e-09
2.53573e-09
4.80485e-09
4.80485e-09
4.94396e-09
5.05036e-09
5.10137e-09
5.08401e-09
4.99653e-09
4.84453e-09
4.63553e-09
4.38059e-09
4.09336e-09
3.78564e-09
3.46702e-09
3.14581e-09
2.83013e-09
2.67807e-09
2.67807e-09
2.35319e-09
2.05107e-09
1.7739e-09
1.52382e-09
1.30217e-09
1.1086e-09
9.40672e-10
7.94665e-10
6.80755e-10
6.80755e-10
5.63775e-10
4.61267e-10
3.73131e-10
2.98983e-10
2.38879e-10
1.9393e-10
1.61218e-10
1.3452e-10
1.11032e-10
9.1813e-11
9.1813e-11
7.25463e-11
5.14837e-11
2.82494e-11
1.80592e-11
2.20584e-11
1.63669e-10
5.74622e-10
2.103e-09
)
;
    }
    procBoundary1to5
    {
        type            processor;
        value           nonuniform List<scalar> 
13
(
0.0108331
0.0108331
0.00444571
0.00266441
0.00266441
0.00180371
0.00111929
0.00111929
0.000775026
0.000513789
0.000350374
0.000350374
0.000255207
)
;
    }
}


// ************************************************************************* //
