/*--------------------------------*- C++ -*----------------------------------*\
| =========                 |                                                 |
| \\      /  F ield         | OpenFOAM: The Open Source CFD Toolbox           |
|  \\    /   O peration     | Version:  2506                                  |
|   \\  /    A nd           | Website:  www.openfoam.com                      |
|    \\/     M anipulation  |                                                 |
\*---------------------------------------------------------------------------*/
FoamFile
{
    version     2.0;
    format      ascii;
    arch        "LSB;label=32;scalar=64";
    class       volSymmTensorField;
    location    "200";
    object      turbulenceProperties:R;
}
// * * * * * * * * * * * * * * * * * * * * * * * * * * * * * * * * * * * * * //

dimensions      [0 2 -2 0 0 0 0];

internalField   nonuniform List<symmTensor> 
1340
(
(0.00192763 0.000255798 5.66241e-20 0.00188999 -2.25171e-20 0.00188606)
(0.00212968 0.000277557 1.01565e-19 0.00192436 -5.15009e-20 0.00201003)
(0.00300015 0.000388296 -7.87996e-20 0.002497 1.94494e-20 0.00274632)
(0.00458152 0.000631345 -2.37933e-20 0.00356328 1.10779e-19 0.00408212)
(0.00703235 0.00111003 1.75091e-19 0.00515502 7.13812e-20 0.00611277)
(0.0106488 0.00199903 3.59449e-19 0.00740722 -5.6249e-20 0.00906403)
(0.0158618 0.00354152 -8.71764e-21 0.0105724 -2.17594e-19 0.0132832)
(0.0231845 0.00598867 -6.83989e-20 0.015039 -1.54914e-19 0.0192132)
(0.0333599 0.00963302 2.87735e-20 0.0215035 -5.45447e-20 0.0275838)
(0.0477259 0.0149005 -1.89604e-19 0.0311042 6.3144e-19 0.0396236)
(0.0688159 0.0226893 7.14951e-19 0.0458633 2.62485e-19 0.0576278)
(0.101368 0.0347648 3.20238e-19 0.069414 -1.18034e-18 0.0857862)
(0.15376 0.054441 -1.30538e-18 0.108434 -3.35449e-19 0.131677)
(0.242691 0.0883586 -4.4181e-18 0.176386 -1.98779e-18 0.210423)
(0.397858 0.148807 -3.33842e-18 0.298513 -8.83141e-19 0.349658)
(0.690274 0.265351 6.25231e-18 0.536114 -5.90246e-19 0.615877)
(1.24113 0.491522 -7.57505e-18 1.00305 1.21981e-18 1.12758)
(2.42459 0.98973 4.11176e-18 2.04623 -7.12776e-18 2.2473)
(4.85559 2.03808 -1.2763e-16 4.27737 2.84888e-18 4.59129)
(10.657 4.58789 -7.91403e-17 9.78767 1.21015e-17 10.2807)
(21.4495 9.44887 6.64886e-17 20.5189 6.79155e-19 21.1056)
(29.6994 13.36 8.73968e-18 29.5787 -1.04014e-19 29.7958)
(32.7597 15.0139 6.28879e-17 33.9234 -6.93265e-20 33.4892)
(33.1638 15.4466 -4.38708e-16 35.6253 -4.6027e-18 34.518)
(32.7451 15.4641 1.57677e-16 36.3952 2.12969e-17 34.6712)
(32.017 15.3 -1.8953e-15 36.7296 -1.5519e-16 34.4571)
(31.0706 14.9977 -3.46867e-15 36.7058 -2.30864e-16 33.9586)
(29.9326 14.5731 1.06224e-15 36.3467 1.0999e-16 33.2002)
(0.00153365 0.000150905 2.55701e-20 0.0013325 -8.3754e-20 0.00143509)
(0.00131164 0.00015299 -1.20218e-19 0.00121056 3.48373e-21 0.00126629)
(0.00111093 0.000139533 1.75303e-20 0.0010912 8.00503e-20 0.00110688)
(0.000919145 0.000115926 4.05099e-23 0.000966859 -4.67239e-20 0.000946256)
(0.000749513 8.725e-05 -2.95187e-20 0.000838292 -2.80776e-20 0.000792947)
(0.000613773 6.15393e-05 -2.08947e-20 0.000716168 -2.9278e-20 0.000660463)
(0.000506023 4.1907e-05 -3.73088e-21 0.000605213 6.30589e-21 0.000549014)
(0.000418456 2.80502e-05 1.21284e-20 0.000506433 3.25007e-20 0.000454907)
(0.0003463 1.87892e-05 1.99987e-20 0.000420149 7.61768e-21 0.000375503)
(0.000286466 1.27943e-05 -2.6891e-20 0.000346179 -1.26149e-21 0.000308937)
(0.000236135 8.96472e-06 2.23075e-20 0.000282726 2.20048e-21 0.000252773)
(0.000193633 6.46567e-06 -2.4088e-21 0.000228713 -6.84317e-21 0.000205504)
(0.000156287 4.63469e-06 -6.9063e-21 0.000181252 1.08243e-20 0.000164285)
(0.000121872 3.12596e-06 -4.03157e-21 0.000138035 4.32798e-21 0.00012676)
(8.72178e-05 1.75121e-06 -6.0336e-21 9.57862e-05 6.69097e-21 8.96459e-05)
(5.23919e-05 6.688e-07 -3.51993e-21 5.55038e-05 1.80688e-21 5.32068e-05)
(1.84744e-05 8.41992e-08 -6.75121e-22 1.88538e-05 5.87553e-23 1.85633e-05)
(3.03131e-06 2.28962e-09 8.20708e-24 3.04113e-06 7.47104e-25 3.03323e-06)
(9.09463e-06 2.24175e-08 -5.16142e-24 9.17702e-06 6.85903e-24 9.10672e-06)
(0.000870717 0.000200222 4.8912e-19 0.00146411 1.23264e-19 0.000931238)
(0.00465855 0.00138064 2.72076e-18 0.00805065 -1.9129e-19 0.00488415)
(0.0380781 0.0122857 1.09626e-18 0.0633875 -4.30554e-19 0.0391621)
(0.129978 0.0467294 -7.58113e-19 0.206858 9.44131e-20 0.132448)
(0.259044 0.104025 5.01017e-17 0.389658 2.17243e-18 0.26391)
(0.394537 0.172384 4.05131e-16 0.558362 9.2207e-18 0.405213)
(0.516576 0.237162 2.40831e-16 0.694302 1.33255e-17 0.537404)
(0.618661 0.29138 1.7701e-15 0.804276 1.20662e-16 0.652859)
(0.705565 0.336948 2.55455e-15 0.902974 1.64082e-16 0.755056)
(0.783056 0.37737 -5.73105e-16 1.00013 -9.53929e-17 0.849559)
(0.00123767 0.000115151 9.63753e-21 0.00105369 5.5186e-20 0.00114549)
(0.00108288 0.000121254 5.98805e-20 0.000976769 6.3264e-20 0.00103026)
(0.000940247 0.000117221 2.06959e-20 0.00090422 -5.03131e-20 0.000923041)
(0.000799867 0.00010382 4.43234e-20 0.000821808 2.6571e-20 0.00081144)
(0.00066125 8.39797e-05 -3.18079e-20 0.000720998 8.22496e-21 0.000691912)
(0.000536471 6.34313e-05 -4.48464e-21 0.000614062 2.67384e-20 0.000576747)
(0.00043063 4.5422e-05 2.32184e-21 0.000512346 -2.42565e-20 0.000473881)
(0.000343168 3.08653e-05 4.37508e-20 0.000420845 -3.06063e-20 0.00038539)
(0.000273348 1.98548e-05 3.16462e-21 0.000342951 -4.75396e-21 0.000312366)
(0.000218525 1.18408e-05 -4.87769e-21 0.000278611 2.01006e-20 0.00025349)
(0.000176788 6.23951e-06 3.17915e-20 0.000227613 -3.70902e-20 0.000207642)
(0.000145752 2.35425e-06 5.1362e-21 0.000188397 4.48636e-21 0.000172905)
(0.000123602 -3.90223e-07 3.69519e-20 0.000159552 -2.65725e-21 0.000147643)
(0.000108047 -2.48282e-06 3.97553e-20 0.000138527 8.70164e-21 0.000129544)
(9.76965e-05 -4.21675e-06 1.02597e-19 0.00012373 -1.36086e-20 0.000117107)
(9.15039e-05 -5.88804e-06 1.34099e-19 0.000113612 -2.02966e-20 0.000109135)
(8.90132e-05 -7.70298e-06 8.08717e-20 0.000107115 6.76697e-21 0.000104923)
(8.92636e-05 -9.46461e-06 1.88967e-20 0.000101775 -3.82328e-21 0.000102977)
(9.25321e-05 -1.0582e-05 -2.07267e-20 9.78123e-05 9.85722e-21 0.000103637)
(9.54781e-05 -1.0037e-05 7.56941e-20 9.34248e-05 -1.20934e-20 0.000103384)
(0.000104531 -9.44151e-06 -2.05139e-20 9.59573e-05 -1.89468e-21 0.000110235)
(6.2316e-05 -2.70903e-06 -6.16509e-21 5.77456e-05 1.24514e-22 6.36241e-05)
(0.000490269 -6.79805e-05 2.57886e-20 0.000303354 -7.55032e-22 0.000519133)
(0.00331594 -0.000271432 -1.44967e-18 0.00171254 -5.15739e-20 0.00346586)
(0.00944808 0.00045542 -8.74613e-18 0.00473799 -3.06222e-20 0.00976826)
(0.0190263 0.00480246 -5.53593e-17 0.0114623 -3.19933e-18 0.019617)
(0.0391716 0.0157122 -1.35448e-16 0.0322595 -4.10573e-18 0.0405403)
(0.0769943 0.0347584 -3.3649e-16 0.0758803 -2.25094e-17 0.0803146)
(0.131658 0.0615427 -8.60051e-16 0.141376 -7.82269e-17 0.138812)
(0.00107232 6.62676e-05 2.10475e-20 0.000862486 -6.35495e-21 0.000967552)
(0.00097717 8.44632e-05 2.25076e-20 0.000820249 -6.19074e-22 0.000898572)
(0.000875937 9.32385e-05 -5.57467e-20 0.000775389 -3.36373e-20 0.000825701)
(0.000772377 9.32762e-05 -3.01791e-20 0.000725986 2.64427e-21 0.000749637)
(0.000665793 8.54508e-05 5.07483e-20 0.000666455 2.23891e-20 0.000666765)
(0.000563203 7.23908e-05 2.34548e-20 0.000598139 -1.95871e-21 0.000581221)
(0.000472831 5.78052e-05 2.79198e-20 0.000528658 -1.71869e-20 0.000501013)
(0.000397152 4.41323e-05 -4.34187e-20 0.000463175 -2.78351e-20 0.000429994)
(0.000334938 3.24555e-05 -5.34586e-20 0.000403695 1.01808e-20 0.000368654)
(0.000284525 2.31725e-05 4.97987e-21 0.000351322 1.39817e-20 0.000316747)
(0.000243689 1.6117e-05 1.64755e-20 0.000306015 -4.89929e-21 0.000273217)
(0.000210978 1.0967e-05 -4.06796e-20 0.00026788 -3.05775e-21 0.00023738)
(0.000184844 7.27179e-06 -1.4884e-21 0.000236303 -6.4093e-21 0.000208185)
(0.000164157 4.59062e-06 -1.55573e-20 0.00021068 -2.98102e-21 0.000184752)
(0.000147466 2.52638e-06 3.27834e-20 0.000189644 -1.87153e-20 0.000165701)
(0.000134018 8.23428e-07 -3.57228e-20 0.00017243 -1.21396e-20 0.000150224)
(0.000122829 -7.35353e-07 -7.40411e-20 0.000157847 -8.48315e-21 0.000137232)
(0.000112954 -2.27809e-06 3.44222e-21 0.000144611 -1.10695e-20 0.000125581)
(0.000102713 -3.71189e-06 1.90137e-20 0.000130496 -1.06538e-20 0.000113342)
(9.2296e-05 -4.60959e-06 5.74172e-20 0.000115931 -4.0173e-21 0.000100697)
(8.37367e-05 -4.88962e-06 -5.3861e-20 0.000103881 -2.95928e-21 9.00509e-05)
(7.73347e-05 -4.83138e-06 -9.23226e-21 9.47827e-05 2.79995e-21 8.19184e-05)
(7.2816e-05 -4.67111e-06 5.60924e-21 8.83512e-05 4.59793e-22 7.60456e-05)
(6.68608e-05 -4.26152e-06 -2.55762e-21 8.01529e-05 -9.7018e-23 6.88973e-05)
(5.96362e-05 -3.85828e-06 -3.77853e-21 7.0862e-05 1.41234e-22 6.07747e-05)
(4.34567e-05 -2.61701e-06 -5.14416e-21 5.02882e-05 -3.07679e-22 4.38019e-05)
(2.79141e-05 -1.60204e-06 1.29489e-20 3.14992e-05 3.81027e-22 2.78555e-05)
(0.000201703 -5.49693e-05 1.96112e-18 0.000305835 1.31475e-19 0.000185294)
(0.000395679 -4.14977e-05 1.89103e-17 0.000504196 1.74305e-18 0.000285771)
(0.00172047 0.000620885 7.92395e-17 0.00134085 1.03274e-17 0.00138082)
(0.000855114 4.85341e-05 -5.40344e-20 0.000683176 2.80733e-20 0.000769132)
(0.000789102 6.3958e-05 7.54379e-20 0.00065502 3.87609e-20 0.000721877)
(0.000717485 7.28393e-05 -2.45135e-20 0.000625458 -7.03476e-20 0.000671412)
(0.000642322 7.51974e-05 -3.3076e-20 0.000592481 9.39905e-21 0.000617501)
(0.000563869 7.13748e-05 -2.25161e-20 0.000552268 -3.91285e-20 0.000558256)
(0.000487332 6.30484e-05 7.82078e-21 0.000505585 1.19792e-20 0.000496629)
(0.000416992 5.25742e-05 -1.49475e-20 0.000455426 -1.92895e-20 0.000436369)
(0.000354612 4.18257e-05 -3.09071e-20 0.000404563 4.11982e-20 0.00037978)
(0.000300202 3.19232e-05 3.28453e-20 0.000354928 1.88589e-20 0.000327839)
(0.0002535 2.34803e-05 2.77471e-20 0.000308237 -1.27165e-20 0.000281263)
(0.000213902 1.66498e-05 -5.70297e-21 0.000265724 -1.13199e-20 0.00024037)
(0.000180814 1.13462e-05 1.65658e-20 0.000228209 3.6166e-21 0.000205246)
(0.00015357 7.3149e-06 -2.46211e-20 0.00019605 6.28225e-21 0.000175727)
(0.000131522 4.25921e-06 1.74356e-20 0.000169222 -4.94247e-22 0.000151459)
(0.000113798 1.87656e-06 -2.29076e-20 0.000147112 -1.05454e-20 0.000131699)
(9.96991e-05 -6.85619e-08 2.21653e-20 0.000129078 1.7751e-21 0.000115762)
(8.8426e-05 -1.76757e-06 2.96274e-20 0.000114176 6.35432e-21 0.000102783)
(7.91887e-05 -3.32955e-06 -2.12707e-21 0.000101334 2.70077e-21 9.18299e-05)
(7.06867e-05 -4.69455e-06 -5.56254e-20 8.87617e-05 1.06361e-22 8.1407e-05)
(6.22264e-05 -5.56209e-06 -2.06637e-20 7.57793e-05 -8.65748e-21 7.08188e-05)
(5.44818e-05 -5.83396e-06 -6.09919e-21 6.37229e-05 9.20663e-21 6.10261e-05)
(4.85129e-05 -5.74153e-06 2.26115e-20 5.39334e-05 2.55531e-22 5.33241e-05)
(4.47306e-05 -5.41171e-06 8.05348e-22 4.67774e-05 -1.75943e-22 4.8092e-05)
(4.37638e-05 -5.08156e-06 -1.29242e-21 4.28954e-05 1.03543e-22 4.59861e-05)
(4.14233e-05 -4.09878e-06 1.3607e-20 3.84809e-05 8.07063e-23 4.25268e-05)
(5.22966e-05 -5.57182e-06 1.56504e-20 4.54604e-05 5.1061e-22 5.28868e-05)
(1.13086e-05 -2.88403e-07 -4.43416e-21 1.08452e-05 -2.4865e-22 1.12916e-05)
(8.70184e-05 -1.28659e-05 -5.68207e-19 6.33387e-05 -4.39326e-20 8.40906e-05)
(0.000446669 -0.000105744 -1.03127e-18 0.000237571 -1.18373e-19 0.000403324)
(0.00114578 -0.000265936 2.05066e-18 0.000579979 3.91772e-20 0.000980507)
(0.000731793 1.95809e-05 -1.09427e-20 0.000569453 3.13448e-21 0.000650702)
(0.000692641 3.60858e-05 4.76678e-20 0.000550394 3.36975e-20 0.000621411)
(0.00064527 4.91636e-05 -2.98911e-20 0.000530809 -5.07228e-20 0.00058791)
(0.000593315 5.75531e-05 1.47006e-20 0.000510759 2.50645e-20 0.000552011)
(0.000537609 6.09423e-05 -1.73624e-20 0.000488024 -3.49768e-21 0.000512854)
(0.000478889 5.95041e-05 -5.23054e-20 0.000460138 -2.06558e-21 0.000469617)
(0.000420863 5.43241e-05 3.76893e-20 0.000427584 8.2121e-21 0.000424341)
(0.000366458 4.69562e-05 -7.30157e-21 0.0003919 1.02847e-20 0.000379287)
(0.000317236 3.87874e-05 2.1532e-20 0.000354905 1.6713e-20 0.000336164)
(0.000273692 3.07913e-05 7.73484e-21 0.000318102 -1.91931e-20 0.000295947)
(0.000235918 2.36047e-05 -5.86847e-21 0.000282822 -1.39404e-20 0.000259352)
(0.00020369 1.7506e-05 -2.2626e-20 0.000250211 8.86775e-21 0.000226853)
(0.0001766 1.25605e-05 -2.74073e-20 0.000220971 1.27548e-20 0.000198593)
(0.000154117 8.66007e-06 1.13074e-20 0.000195456 -8.10071e-22 0.000174493)
(0.00013566 5.61536e-06 -4.6245e-21 0.000173684 -5.1971e-21 0.000154277)
(0.000120545 3.19706e-06 -2.3227e-20 0.000155298 3.82728e-23 0.000137431)
(0.000108126 1.21249e-06 -2.60284e-20 0.000139768 -6.045e-21 0.000123364)
(9.76821e-05 -5.07816e-07 -2.19683e-20 0.000126317 1.6089e-21 0.000111337)
(8.84795e-05 -2.06628e-06 2.34064e-20 0.000114026 -1.02892e-20 0.00010052)
(7.95064e-05 -3.42873e-06 -5.80031e-21 0.000101581 1.05892e-20 8.97642e-05)
(7.02792e-05 -4.36683e-06 -3.50386e-20 8.85373e-05 8.17461e-21 7.85836e-05)
(6.14938e-05 -4.77874e-06 4.67272e-20 7.61347e-05 -2.71744e-21 6.78967e-05)
(5.38016e-05 -4.8306e-06 3.6975e-21 6.53578e-05 -2.71389e-21 5.85541e-05)
(4.73415e-05 -4.68198e-06 6.81003e-22 5.63785e-05 -2.6472e-22 5.0718e-05)
(4.18908e-05 -4.39667e-06 1.6887e-21 4.891e-05 3.65267e-23 4.4114e-05)
(3.7314e-05 -4.02448e-06 -1.72073e-20 4.27824e-05 -6.95624e-22 3.8587e-05)
(3.33227e-05 -3.58099e-06 -9.90851e-21 3.76008e-05 -9.80742e-22 3.38327e-05)
(2.96429e-05 -3.17141e-06 5.08825e-20 3.29359e-05 3.90476e-21 2.95591e-05)
(2.41116e-05 -2.42982e-06 3.56794e-20 2.61284e-05 2.34122e-21 2.36167e-05)
(1.71274e-05 -1.4895e-06 -2.25167e-20 1.78732e-05 -1.64867e-21 1.65095e-05)
(2.83768e-07 -5.4197e-10 1.03578e-23 2.83755e-07 1.30537e-24 2.83395e-07)
(0.000597693 1.38942e-05 -1.29467e-21 0.000464273 -9.57474e-21 0.000531032)
(0.000568844 2.73327e-05 -1.61411e-20 0.000450074 8.19032e-21 0.000509363)
(0.000534274 3.84119e-05 1.84285e-20 0.00043627 1.75795e-20 0.00048519)
(0.000495539 4.60354e-05 4.28157e-20 0.000422153 1.85525e-20 0.000458836)
(0.0004534 4.97922e-05 2.91408e-20 0.000406059 -7.91671e-22 0.000429737)
(0.000409034 4.98011e-05 -8.47213e-21 0.000386656 7.36147e-21 0.000397884)
(0.000364787 4.67452e-05 -3.92717e-20 0.000363932 -1.46516e-20 0.000364404)
(0.000322552 4.16513e-05 2.78033e-20 0.000338476 1.8866e-20 0.000330559)
(0.00028341 3.55197e-05 1.41064e-21 0.00031124 -2.15957e-20 0.000297379)
(0.000247837 2.91319e-05 1.46498e-21 0.000283148 -9.83295e-21 0.000265551)
(0.00021609 2.30729e-05 -2.22429e-20 0.000255162 8.80385e-21 0.000235683)
(0.000188157 1.76649e-05 1.28789e-20 0.000228236 1.34266e-20 0.000208263)
(0.000163889 1.3064e-05 5.60576e-20 0.00020306 4.52092e-21 0.000183557)
(0.000143066 9.27126e-06 -2.05296e-20 0.000180172 -2.80081e-22 0.000161725)
(0.000125406 6.1935e-06 -4.25202e-21 0.000159858 -4.58471e-22 0.000142768)
(0.000110503 3.68135e-06 -2.93247e-20 0.000142078 1.88309e-20 0.000126465)
(9.79551e-05 1.59077e-06 -2.21703e-20 0.000126609 3.37433e-21 0.000112496)
(8.72823e-05 -2.0865e-07 2.51872e-20 0.000112996 6.20726e-21 0.000100393)
(7.79382e-05 -1.79713e-06 -5.85818e-20 0.000100582 6.19717e-21 8.95523e-05)
(6.91826e-05 -3.15643e-06 1.97111e-20 8.84171e-05 1.50842e-22 7.9144e-05)
(6.05675e-05 -4.11975e-06 3.88097e-20 7.60664e-05 5.30241e-22 6.8721e-05)
(5.2457e-05 -4.59507e-06 -1.6e-20 6.43134e-05 -4.33708e-21 5.88241e-05)
(4.5348e-05 -4.70552e-06 -1.73662e-20 5.39565e-05 3.12523e-22 5.01273e-05)
(3.93986e-05 -4.59019e-06 -4.17165e-21 4.51912e-05 2.32707e-22 4.28302e-05)
(3.44859e-05 -4.31584e-06 -5.09957e-22 3.7841e-05 1.85811e-23 3.67782e-05)
(3.05443e-05 -3.92246e-06 2.07543e-21 3.18175e-05 5.13777e-22 3.18881e-05)
(2.76906e-05 -3.4576e-06 -2.70301e-20 2.72022e-05 -9.06196e-22 2.82695e-05)
(2.59646e-05 -2.97e-06 6.20524e-20 2.40553e-05 2.27653e-21 2.59409e-05)
(2.50252e-05 -2.49959e-06 2.61149e-21 2.20461e-05 -4.55031e-22 2.45291e-05)
(2.29214e-05 -1.83528e-06 3.77516e-20 1.95817e-05 3.85456e-21 2.2131e-05)
(1.70737e-05 -8.95364e-07 1.23741e-20 1.47522e-05 -3.31163e-22 1.64141e-05)
(0.000494571 9.91245e-06 -4.86029e-22 0.000383638 2.59716e-21 0.000439096)
(0.000472674 2.10015e-05 -2.52096e-21 0.000372668 -2.29455e-20 0.000422593)
(0.000446788 3.04165e-05 -8.00464e-20 0.00036262 -3.73611e-20 0.00040466)
(0.000417321 3.72245e-05 1.77068e-20 0.000352433 2.74763e-20 0.000384868)
(0.000384994 4.09998e-05 -5.21081e-21 0.000340858 1.88132e-21 0.000362919)
(0.000351051 4.18447e-05 4.23654e-20 0.000327209 1.42811e-20 0.000339149)
(0.000316905 4.01859e-05 -2.94936e-21 0.000311141 1.39919e-20 0.000314047)
(0.000283881 3.6725e-05 1.79642e-20 0.000292872 -6.29779e-21 0.000288401)
(0.000252751 3.21828e-05 -1.57083e-20 0.000272885 5.13076e-21 0.000262853)
(0.000223921 2.71613e-05 -2.84814e-20 0.000251734 8.24087e-21 0.000237865)
(0.000197699 2.21527e-05 7.57866e-21 0.000230098 3.69963e-21 0.000213926)
(0.000174226 1.74776e-05 1.24418e-20 0.000208761 -5.0527e-21 0.000191513)
(0.000153493 1.33283e-05 1.1727e-20 0.000188314 -2.21443e-20 0.000170909)
(0.000135443 9.77274e-06 1.63155e-20 0.000169303 5.66769e-21 0.000152361)
(0.000119925 6.79371e-06 -1.50129e-20 0.000152063 8.41956e-21 0.00013596)
(0.000106667 4.30457e-06 5.59763e-20 0.000136672 2.33221e-21 0.000121612)
(9.53412e-05 2.20509e-06 -1.31971e-20 0.000122997 7.73526e-21 0.000109089)
(8.55593e-05 3.9572e-07 2.60349e-20 0.00011072 -1.01305e-20 9.80362e-05)
(7.68628e-05 -1.18697e-06 3.98595e-20 9.93324e-05 2.45985e-21 8.79719e-05)
(6.86774e-05 -2.53493e-06 7.82931e-22 8.81341e-05 -8.85768e-21 7.82671e-05)
(6.06572e-05 -3.52628e-06 -1.09534e-20 7.68077e-05 -7.05089e-21 6.85856e-05)
(5.30595e-05 -4.07916e-06 -1.00348e-20 6.59445e-05 1.50073e-21 5.93252e-05)
(4.62497e-05 -4.27858e-06 2.03334e-21 5.61947e-05 1.23064e-22 5.10056e-05)
(4.03295e-05 -4.24729e-06 4.20237e-21 4.77332e-05 1.90034e-22 4.37826e-05)
(3.51586e-05 -4.05365e-06 1.71303e-21 4.04042e-05 -2.97384e-23 3.74997e-05)
(3.06038e-05 -3.74091e-06 4.83489e-21 3.40708e-05 1.16143e-22 3.20109e-05)
(2.66301e-05 -3.35743e-06 1.90216e-20 2.86951e-05 1.69386e-21 2.72767e-05)
(2.31659e-05 -2.94099e-06 -1.08458e-19 2.41561e-05 -7.78203e-21 2.32074e-05)
(2.01589e-05 -2.52494e-06 -4.32893e-20 2.03029e-05 -1.85124e-21 1.97232e-05)
(1.75754e-05 -2.10543e-06 -2.40541e-21 1.7e-05 -4.30592e-21 1.67521e-05)
(1.59255e-05 -1.77871e-06 -6.12932e-20 1.46346e-05 -7.12604e-21 1.47323e-05)
(0.000425826 -2.66294e-06 -3.23762e-20 0.000329114 -2.4531e-20 0.000377471)
(0.000413489 7.07969e-06 -1.86515e-20 0.000320395 -1.31841e-20 0.000366917)
(0.00039669 1.63246e-05 -4.74172e-21 0.000311844 -1.05302e-21 0.000354209)
(0.000376843 2.43671e-05 1.1564e-20 0.000304299 2.97908e-20 0.000340556)
(0.000354037 3.03893e-05 2.65559e-20 0.000296784 1.69226e-20 0.000325402)
(0.000328946 3.40078e-05 1.88529e-20 0.000288371 -1.22909e-20 0.000308647)
(0.000302633 3.53126e-05 -2.55198e-20 0.000278669 -1.58378e-20 0.000290659)
(0.000276041 3.45743e-05 5.36947e-20 0.000267253 2.20065e-21 0.000271657)
(0.000250068 3.22798e-05 -7.76951e-21 0.000254104 -2.38806e-20 0.000252094)
(0.000225245 2.89531e-05 4.57878e-20 0.000239438 9.63055e-21 0.000232359)
(0.000201877 2.50496e-05 3.51247e-20 0.000223543 4.80207e-21 0.000212733)
(0.00018023 2.09658e-05 -1.67834e-20 0.000206839 -6.90658e-21 0.000193554)
(0.000160447 1.69847e-05 2.86295e-21 0.000189881 -7.7831e-21 0.000175185)
(0.000142607 1.33063e-05 -4.30491e-20 0.000173153 2.03787e-21 0.0001579)
(0.000126716 1.00321e-05 -6.63191e-21 0.000157104 -5.10647e-21 0.000141929)
(0.00011272 7.19167e-06 3.00999e-20 0.000142077 1.48259e-21 0.000127417)
(0.000100484 4.75432e-06 6.11514e-22 0.000128248 -8.36489e-21 0.000114387)
(8.98051e-05 2.66239e-06 2.62264e-20 0.000115619 4.87494e-21 0.000102737)
(8.04128e-05 8.4637e-07 -2.95123e-20 0.000104017 -4.87148e-21 9.22443e-05)
(7.19706e-05 -7.36377e-07 -2.24784e-20 9.31014e-05 -4.89614e-21 8.25739e-05)
(6.40813e-05 -2.0793e-06 -4.45745e-20 8.24161e-05 1.47923e-21 7.3302e-05)
(5.64923e-05 -3.09265e-06 -3.35354e-20 7.17455e-05 5.11154e-21 6.41935e-05)
(4.93439e-05 -3.70422e-06 -3.59514e-21 6.14907e-05 7.8316e-22 5.55032e-05)
(4.29258e-05 -3.97176e-06 -1.27638e-20 5.2203e-05 5.61442e-22 4.76551e-05)
(3.73479e-05 -3.99913e-06 -4.23682e-22 4.4084e-05 -2.95146e-22 4.0821e-05)
(3.25226e-05 -3.85298e-06 -1.62276e-21 3.70466e-05 -1.4574e-22 3.49112e-05)
(2.83509e-05 -3.57588e-06 -6.05693e-22 3.09919e-05 -2.89394e-22 2.98205e-05)
(2.48142e-05 -3.21253e-06 1.33744e-20 2.58921e-05 -2.53104e-23 2.55281e-05)
(2.19589e-05 -2.80557e-06 2.16273e-22 2.17551e-05 2.41691e-22 2.20665e-05)
(1.98007e-05 -2.38573e-06 8.7891e-20 1.8577e-05 7.89368e-21 1.94274e-05)
(1.83474e-05 -1.97113e-06 -1.40182e-19 1.63017e-05 -9.96037e-21 1.75778e-05)
(1.75995e-05 -1.57173e-06 7.84604e-21 1.48683e-05 6.46452e-21 1.64963e-05)
(0.000348747 5.0375e-06 -5.77618e-20 0.000270001 -5.66351e-21 0.000309344)
(0.000335712 1.28184e-05 8.26839e-20 0.000263262 6.51079e-20 0.000299445)
(0.000320183 1.97171e-05 5.08974e-20 0.000257435 6.98581e-21 0.000288809)
(0.000302256 2.50175e-05 3.65449e-20 0.00025177 -7.10547e-21 0.000277008)
(0.000282579 2.83997e-05 -5.76446e-20 0.000245619 -2.53244e-20 0.000264087)
(0.000261946 2.99305e-05 -3.59344e-20 0.000238667 -6.72044e-21 0.00025031)
(0.000241034 2.9788e-05 -7.26845e-20 0.000230508 -2.30164e-20 0.000235773)
(0.00022048 2.83213e-05 -7.45986e-20 0.000221024 4.0552e-21 0.000220754)
(0.000200623 2.59144e-05 -3.62203e-20 0.00021026 -1.20102e-20 0.000205451)
(0.000181661 2.29074e-05 1.10313e-20 0.000198335 7.25396e-22 0.000190013)
(0.000163833 1.96136e-05 -6.86369e-21 0.000185518 1.77499e-21 0.000174689)
(0.000147272 1.62721e-05 -1.91275e-20 0.000172188 7.747e-21 0.000159745)
(0.000132063 1.30636e-05 2.11146e-20 0.00015869 4.19694e-21 0.000145389)
(0.000118281 1.01052e-05 -2.58141e-20 0.000145413 -7.10248e-21 0.000131856)
(0.000105921 7.45728e-06 -2.73745e-21 0.000132649 -6.42225e-21 0.000119289)
(9.49247e-05 5.12186e-06 8.23529e-21 0.000120609 -5.98826e-21 0.000107765)
(8.51755e-05 3.078e-06 2.52527e-20 0.000109362 -1.08082e-20 9.72612e-05)
(7.64834e-05 1.28708e-06 -1.07427e-20 9.88259e-05 5.23988e-22 8.76412e-05)
(6.86023e-05 -2.7614e-07 -6.21456e-21 8.87855e-05 1.18371e-20 7.8676e-05)
(6.12528e-05 -1.60578e-06 -6.75124e-21 7.89497e-05 1.09945e-20 7.00816e-05)
(5.42336e-05 -2.63204e-06 2.48444e-20 6.91629e-05 3.32154e-21 6.16814e-05)
(4.76344e-05 -3.29341e-06 -3.11406e-22 5.97303e-05 3.09104e-21 5.36603e-05)
(4.16687e-05 -3.62784e-06 8.51054e-21 5.11002e-05 1.33428e-21 4.6349e-05)
(3.64219e-05 -3.72021e-06 -1.13445e-21 4.34663e-05 1.41165e-22 3.98984e-05)
(3.18202e-05 -3.63426e-06 -9.10955e-22 3.67751e-05 3.25751e-23 3.42448e-05)
(2.77674e-05 -3.41259e-06 -3.29993e-21 3.09419e-05 -1.2597e-22 2.92915e-05)
(2.42274e-05 -3.09911e-06 -1.39156e-20 2.59336e-05 -7.72983e-22 2.50032e-05)
(2.11913e-05 -2.73523e-06 -3.73627e-20 2.172e-05 -2.33307e-21 2.13606e-05)
(1.86334e-05 -2.34876e-06 2.56364e-21 1.82216e-05 -4.84378e-22 1.83172e-05)
(1.66413e-05 -1.9627e-06 1.26829e-19 1.54489e-05 1.66061e-20 1.59221e-05)
(1.5227e-05 -1.56783e-06 9.14152e-20 1.3364e-05 2.69266e-21 1.41747e-05)
(0.000286114 1.01498e-05 -7.6366e-20 0.000223905 -4.25495e-20 0.000254982)
(0.000273774 1.60892e-05 -5.81519e-20 0.000219305 -9.97644e-21 0.000246547)
(0.000259492 2.07501e-05 4.33631e-20 0.000214961 3.5368e-20 0.000237224)
(0.000243905 2.38626e-05 7.10023e-20 0.000210438 1.6663e-20 0.000227159)
(0.000227567 2.54778e-05 1.18076e-20 0.000205437 -1.09209e-21 0.000216504)
(0.000210971 2.57128e-05 5.29035e-20 0.000199576 3.59281e-20 0.000205274)
(0.000194583 2.48276e-05 6.8463e-20 0.000192716 2.73236e-20 0.000193647)
(0.000178633 2.31096e-05 -2.47197e-20 0.000184825 -7.45721e-21 0.000181733)
(0.000163249 2.08152e-05 1.4943e-20 0.000175919 3.59222e-23 0.000169593)
(0.000148586 1.81846e-05 -5.105e-21 0.000166127 2.41396e-21 0.000157365)
(0.000134752 1.54093e-05 3.76957e-20 0.000155702 1.97735e-21 0.000145237)
(0.000121833 1.26488e-05 -1.37442e-20 0.000144875 -2.39034e-22 0.000133364)
(0.000109902 1.00154e-05 -3.65033e-20 0.000133933 1.39955e-20 0.000121926)
(9.90065e-05 7.58348e-06 -1.37166e-20 0.000123137 1.28254e-21 0.000111078)
(8.91314e-05 5.38266e-06 -3.20154e-20 0.000112679 5.1924e-21 0.00010091)
(8.02112e-05 3.41687e-06 -3.40889e-20 0.000102655 -4.69917e-22 9.14364e-05)
(7.21319e-05 1.67091e-06 -3.69126e-20 9.30604e-05 7.18177e-21 8.25988e-05)
(6.47299e-05 1.35753e-07 6.01501e-20 8.37815e-05 -6.14271e-21 7.42592e-05)
(5.78146e-05 -1.17625e-06 4.68071e-20 7.46457e-05 -1.49474e-21 6.62373e-05)
(5.12533e-05 -2.20908e-06 7.95834e-21 6.55776e-05 -5.4553e-21 5.843e-05)
(4.51043e-05 -2.91031e-06 3.09799e-20 5.68151e-05 -3.31546e-21 5.09779e-05)
(3.952e-05 -3.30114e-06 7.08075e-21 4.87181e-05 -1.73431e-21 4.4135e-05)
(3.45772e-05 -3.44996e-06 2.07244e-21 4.14799e-05 3.64622e-22 3.80454e-05)
(3.02306e-05 -3.41519e-06 -1.54198e-22 3.50913e-05 1.28642e-22 3.26833e-05)
(2.64111e-05 -3.23843e-06 -1.94587e-22 2.95029e-05 1.76248e-22 2.79849e-05)
(2.30954e-05 -2.96114e-06 6.96456e-21 2.4701e-05 7.27325e-22 2.39313e-05)
(2.02981e-05 -2.62407e-06 9.98669e-21 2.068e-05 1.34772e-21 2.05298e-05)
(1.80327e-05 -2.25662e-06 2.02804e-20 1.74252e-05 1.5402e-21 1.77765e-05)
(1.63691e-05 -1.88189e-06 4.52811e-20 1.49462e-05 -1.32922e-21 1.57061e-05)
(1.52875e-05 -1.49297e-06 -1.61257e-19 1.31813e-05 -2.07224e-20 1.4287e-05)
(0.000235383 1.32277e-05 1.86715e-20 0.000187947 1.01707e-20 0.000211674)
(0.00022388 1.73264e-05 2.67133e-20 0.000184571 -1.4867e-20 0.000204224)
(0.000211409 2.01619e-05 -9.10828e-20 0.000181221 -4.75989e-20 0.000196305)
(0.000198341 2.1773e-05 -7.46332e-20 0.000177602 -6.16278e-22 0.000187971)
(0.000185056 2.2242e-05 1.38888e-20 0.000173391 -1.46337e-21 0.000179222)
(0.000171911 2.17632e-05 6.40311e-20 0.000168432 -1.08242e-20 0.000170167)
(0.000159048 2.05582e-05 -1.78218e-20 0.000162651 4.25619e-21 0.000160851)
(0.000146524 1.88196e-05 -1.0105e-20 0.000156003 -8.62515e-22 0.000151269)
(0.000134467 1.67335e-05 -2.55326e-21 0.000148556 -4.28302e-21 0.000141515)
(0.000122943 1.44516e-05 -1.31708e-20 0.000140454 -3.12469e-22 0.000131705)
(0.000112013 1.21035e-05 2.85808e-20 0.000131831 3.66585e-21 0.000121928)
(0.000101752 9.7911e-06 5.61531e-20 0.000122901 1.401e-20 0.000112332)
(9.22101e-05 7.5914e-06 8.62385e-21 0.000113853 4.15558e-21 0.000103037)
(8.3416e-05 5.54808e-06 3.98885e-20 0.000104874 4.5625e-21 9.41484e-05)
(7.5352e-05 3.68492e-06 1.71962e-20 9.60738e-05 5.1028e-21 8.57139e-05)
(6.79506e-05 2.0047e-06 2.82385e-20 8.74848e-05 1.94974e-21 7.77158e-05)
(6.10982e-05 5.12979e-07 -3.96926e-20 7.90487e-05 -7.50753e-21 7.00702e-05)
(5.46722e-05 -7.73447e-07 -6.23389e-21 7.06793e-05 -1.00163e-20 6.26738e-05)
(4.86025e-05 -1.80549e-06 -2.38024e-20 6.23747e-05 -1.79901e-22 5.54896e-05)
(4.29228e-05 -2.53615e-06 -3.32947e-20 5.43211e-05 -2.68037e-22 4.86235e-05)
(3.77435e-05 -2.97635e-06 -1.52482e-20 4.68123e-05 -5.01667e-22 4.22749e-05)
(3.31258e-05 -3.17851e-06 3.55088e-21 4.00302e-05 -3.49684e-22 3.65713e-05)
(2.9039e-05 -3.1952e-06 1.75082e-21 3.39946e-05 -6.89546e-23 3.1509e-05)
(2.54268e-05 -3.06637e-06 1.75074e-21 2.8678e-05 4.56702e-22 2.70428e-05)
(2.22628e-05 -2.83131e-06 -2.14679e-22 2.40702e-05 -4.13825e-22 2.31536e-05)
(1.95544e-05 -2.52933e-06 -2.33871e-21 2.01697e-05 9.60094e-22 1.98448e-05)
(1.72996e-05 -2.1891e-06 -2.62822e-21 1.69445e-05 -3.76645e-21 1.71009e-05)
(1.55668e-05 -1.83201e-06 -7.89443e-20 1.44038e-05 -3.847e-21 1.49586e-05)
(1.43877e-05 -1.4559e-06 7.64121e-21 1.25331e-05 1.00115e-20 1.34371e-05)
(0.000193998 1.45518e-05 -1.02803e-19 0.000159257 -4.42449e-20 0.000176626)
(0.000183916 1.71205e-05 2.16607e-20 0.000156754 3.12925e-20 0.000170327)
(0.000173382 1.86775e-05 5.54498e-20 0.000154139 9.50393e-21 0.00016376)
(0.000162663 1.92815e-05 -6.73485e-20 0.00015111 -2.80102e-20 0.000156885)
(0.000152041 1.90832e-05 -6.67146e-20 0.000147522 -6.75285e-21 0.000149778)
(0.00014161 1.82569e-05 3.81324e-20 0.000143293 9.23595e-21 0.000142451)
(0.0001314 1.69516e-05 1.99886e-20 0.000138357 -4.49866e-22 0.000134881)
(0.000121475 1.5308e-05 -3.42018e-20 0.000132705 -1.81323e-21 0.000127092)
(0.000111876 1.3444e-05 2.97153e-20 0.00012643 1.28246e-21 0.000119157)
(0.000102654 1.14654e-05 -2.09158e-20 0.000119603 -9.98499e-21 0.000111133)
(9.38671e-05 9.45944e-06 5.06099e-20 0.000112364 -9.95022e-21 0.00010312)
(8.5564e-05 7.49694e-06 2.07059e-20 0.000104851 -3.69359e-21 9.52117e-05)
(7.77792e-05 5.62601e-06 -2.3884e-21 9.72059e-05 -8.25773e-21 8.74958e-05)
(7.05245e-05 3.88236e-06 7.81296e-21 8.9535e-05 -3.56926e-21 8.00315e-05)
(6.37688e-05 2.28361e-06 -7.66294e-21 8.18893e-05 -5.01057e-21 7.28295e-05)
(5.7449e-05 8.47264e-07 -2.37093e-21 7.42615e-05 5.32133e-21 6.58555e-05)
(5.14988e-05 -4.0457e-07 -4.83835e-20 6.66328e-05 5.55663e-21 5.90672e-05)
(4.58827e-05 -1.42818e-06 4.02729e-22 5.90369e-05 3.19796e-21 5.24641e-05)
(4.06318e-05 -2.17947e-06 2.30118e-20 5.16381e-05 3.5666e-21 4.61412e-05)
(3.58232e-05 -2.66013e-06 3.15778e-22 4.46752e-05 1.56212e-21 4.02537e-05)
(3.15083e-05 -2.90961e-06 -4.2526e-21 3.83199e-05 -1.02649e-22 3.49172e-05)
(2.76696e-05 -2.97335e-06 -2.36189e-21 3.26158e-05 -9.42379e-23 3.01467e-05)
(2.42653e-05 -2.88869e-06 7.53932e-21 2.75573e-05 -2.19243e-23 2.59165e-05)
(2.12764e-05 -2.6923e-06 -5.12699e-21 2.31478e-05 -5.26507e-22 2.22179e-05)
(1.87163e-05 -2.42176e-06 3.75764e-20 1.9398e-05 4.68536e-21 1.90639e-05)
(1.65953e-05 -2.10554e-06 -8.73743e-20 1.62972e-05 -7.56452e-21 1.64544e-05)
(1.49763e-05 -1.76458e-06 1.30017e-19 1.38607e-05 1.01866e-20 1.44245e-05)
(1.38902e-05 -1.39901e-06 6.19794e-20 1.20776e-05 9.61044e-21 1.29935e-05)
(0.000160527 1.46031e-05 5.72791e-21 0.000136125 3.83685e-21 0.000148319)
(0.000151949 1.60769e-05 -3.59642e-20 0.000134226 -1.47876e-20 0.000143086)
(0.000143239 1.67514e-05 4.58142e-21 0.000132058 2.11361e-20 0.000137646)
(0.000134604 1.67445e-05 3.70868e-20 0.000129473 8.19597e-21 0.000132033)
(0.000126109 1.61967e-05 -4.18875e-20 0.000126389 -1.26166e-20 0.000126248)
(0.000117751 1.52243e-05 7.7381e-21 0.000122726 7.76036e-22 0.000120239)