/*--------------------------------*- C++ -*----------------------------------*\
| =========                 |                                                 |
| \\      /  F ield         | OpenFOAM: The Open Source CFD Toolbox           |
|  \\    /   O peration     | Version:  2506                                  |
|   \\  /    A nd           | Website:  www.openfoam.com                      |
|    \\/     M anipulation  |                                                 |
\*---------------------------------------------------------------------------*/
FoamFile
{
    version     2.0;
    format      ascii;
    arch        "LSB;label=32;scalar=64";
    class       volSymmTensorField;
    location    "200";
    object      turbulenceProperties:devReff;
}
// * * * * * * * * * * * * * * * * * * * * * * * * * * * * * * * * * * * * * //

dimensions      [0 2 -2 0 0 0 0];

internalField   nonuniform List<symmTensor> 
1340
(
(6.5051e-05 0.00063031 1.39527e-19 -2.76786e-05 -5.54842e-20 -3.73724e-05)
(0.000242465 0.000621264 2.27335e-19 -0.000217114 -1.15276e-19 -2.53517e-05)
(0.000485097 0.000746496 -1.51492e-19 -0.00048221 3.73914e-20 -2.88729e-06)
(0.000830244 0.00103615 -3.90491e-20 -0.000840878 1.81809e-19 1.06338e-05)
(0.0013303 0.0015839 2.49838e-19 -0.00134846 1.01854e-19 1.81535e-05)
(0.0020571 0.00255608 4.59612e-19 -0.00208779 -7.19232e-20 3.06969e-05)
(0.00310033 0.00418652 -1.03053e-20 -0.00315241 -2.57224e-19 5.20836e-05)
(0.00453143 0.00671899 -7.67402e-20 -0.00460731 -1.73806e-19 7.58799e-05)
(0.00637251 0.0104443 3.11967e-20 -0.00648243 -5.91383e-20 0.000109923)
(0.00873119 0.0157862 -2.00874e-19 -0.00887848 6.68973e-19 0.000147293)
(0.0118589 0.0236437 7.45022e-19 -0.0120591 2.73525e-19 0.000200176)
(0.0163094 0.0357825 3.29613e-19 -0.0165804 -1.2149e-18 0.00027105)
(0.022914 0.0555186 -1.33122e-18 -0.0233084 -3.42089e-19 0.000394419)
(0.0332797 0.0894929 -4.47482e-18 -0.0338767 -2.01331e-18 0.000596981)
(0.0495747 0.149996 -3.3651e-18 -0.050564 -8.90199e-19 0.000989308)
(0.0765424 0.266594 6.28158e-18 -0.0783394 -5.9301e-19 0.00179706)
(0.117517 0.492815 -7.59498e-18 -0.121191 1.22302e-18 0.00367395)
(0.185465 0.991067 4.11731e-18 -0.193403 -7.13739e-18 0.00793785)
(0.281028 2.03945 -1.27716e-16 -0.297581 2.8508e-18 0.0165525)
(0.415299 4.58929 -7.91644e-17 -0.454257 1.21052e-17 0.0389586)
(0.424931 9.45029 6.64986e-17 -0.505875 6.79256e-19 0.0809442)
(0.0081362 13.3615 8.74061e-18 -0.112636 -1.04025e-19 0.1045)
(-0.631173 15.0153 6.28939e-17 0.532711 -6.93331e-20 0.0984618)
(-1.27198 15.448 -4.38748e-16 1.18967 -4.60313e-18 0.0823087)
(-1.85892 15.4655 1.57692e-16 1.79153 2.12988e-17 0.0673931)
(-2.38445 15.3014 -1.89548e-15 2.3286 -1.55204e-16 0.0558459)
(-2.8413 14.9991 -3.46899e-15 2.79436 -2.30885e-16 0.046948)
(-3.22751 14.5744 1.06234e-15 3.18715 1.1e-16 0.0403677)
(0.000268648 0.000405801 6.87606e-20 -0.00027227 -2.25223e-19 3.62193e-06)
(0.000129707 0.000406527 -3.19444e-19 -0.000138906 9.25703e-21 9.19963e-06)
(2.12159e-05 0.000373543 4.69302e-20 -3.16009e-05 2.14302e-19 1.03851e-05)
(-6.7835e-05 0.000315282 1.10175e-22 6.19339e-05 -1.27075e-19 5.90109e-06)
(-0.00012251 0.000242541 -8.2057e-20 0.000124281 -7.80511e-20 -1.77064e-06)
(-0.000142018 0.000175867 -5.97126e-20 0.000150605 -8.36706e-20 -8.58746e-06)
(-0.00014003 0.000123819 -1.10233e-20 0.000153038 1.86315e-20 -1.30082e-05)
(-0.000127497 8.62263e-05 3.72826e-20 0.000142944 9.99071e-20 -1.54465e-05)
(-0.000110885 6.06519e-05 6.45564e-20 0.000127501 2.459e-20 -1.66168e-05)
(-9.39995e-05 4.39014e-05 -9.22719e-20 0.000110895 -4.32859e-21 -1.68952e-05)
(-7.84933e-05 3.33873e-05 8.30795e-20 9.50238e-05 8.19522e-21 -1.65305e-05)
(-6.52172e-05 2.6944e-05 -1.0038e-20 8.09669e-05 -2.85172e-20 -1.57496e-05)
(-5.41817e-05 2.28538e-05 -3.40551e-20 6.8922e-05 5.33749e-20 -1.47403e-05)
(-4.51569e-05 2.01164e-05 -2.59442e-20 5.88586e-05 2.78517e-20 -1.37017e-05)
(-3.78919e-05 1.81029e-05 -6.23716e-20 5.06833e-05 6.91669e-20 -1.27913e-05)
(-3.25894e-05 1.66511e-05 -8.76357e-20 4.48881e-05 4.49858e-20 -1.22987e-05)
(-2.91277e-05 1.57121e-05 -1.25982e-19 4.16759e-05 1.09641e-20 -1.25482e-05)
(-2.68221e-05 1.57025e-05 5.62852e-20 4.05158e-05 5.12374e-21 -1.36937e-05)
(-2.45767e-05 1.74907e-05 -4.02709e-21 3.97137e-05 5.35161e-21 -1.5137e-05)
(-0.000240639 0.000221043 5.39985e-19 0.000414463 1.36082e-19 -0.000173825)
(-0.00122766 0.00140556 2.76987e-18 0.00222566 -1.94743e-19 -0.000997993)
(-0.00881861 0.0123148 1.09885e-18 0.0165506 -4.31572e-19 -0.007732)
(-0.0264688 0.0467622 -7.58644e-19 0.0504654 9.44793e-20 -0.0239967)
(-0.0451757 0.104061 5.0119e-17 0.0854837 2.17318e-18 -0.040308)
(-0.0581805 0.172423 4.05223e-16 0.105682 9.2228e-18 -0.0475019)
(-0.0661964 0.237205 2.40874e-16 0.111561 1.33279e-17 -0.0453651)
(-0.073283 0.291427 1.77038e-15 0.112362 1.20682e-16 -0.0390791)
(-0.0823125 0.336999 2.55494e-15 0.115127 1.64107e-16 -0.032814)
(-0.0945398 0.377425 -5.73189e-16 0.122567 -9.54069e-17 -0.0280269)
(0.000242149 0.000302913 2.53523e-20 -0.000241814 1.45171e-19 -3.34475e-07)
(0.000139388 0.000319437 1.57752e-19 -0.000140151 1.66665e-19 7.62411e-07)
(4.67183e-05 0.000308625 5.44895e-20 -4.81348e-05 -1.32467e-19 1.41649e-06)
(-2.93656e-05 0.000272901 1.16509e-19 2.83094e-05 6.98448e-20 1.05625e-06)
(-7.90553e-05 0.000220298 -8.34392e-20 7.76769e-05 2.15759e-20 1.37847e-06)
(-0.000102817 0.000165994 -1.17359e-20 0.000100233 6.99722e-20 2.58388e-06)
(-0.000108694 0.00011852 6.05842e-21 0.000104531 -6.32929e-20 4.16322e-06)
(-0.000103948 8.02778e-05 1.13792e-19 9.80812e-05 -7.96042e-20 5.86707e-06)
(-9.38312e-05 5.14543e-05 8.20122e-21 8.65469e-05 -1.232e-20 7.28427e-06)
(-8.17841e-05 3.05648e-05 -1.25908e-20 7.33137e-05 5.18856e-20 8.47033e-06)
(-6.99666e-05 1.60345e-05 8.16991e-20 6.06443e-05 -9.53158e-20 9.32228e-06)
(-5.94877e-05 6.01961e-06 1.31328e-20 4.95495e-05 1.14712e-20 9.93815e-06)
(-5.08275e-05 -9.9184e-07 9.39216e-20 4.05476e-05 -6.75401e-21 1.02798e-05)
(-4.37234e-05 -6.26575e-06 1.00328e-19 3.31973e-05 2.19599e-20 1.05262e-05)
(-3.78858e-05 -1.05462e-05 2.566e-19 2.72258e-05 -3.40355e-20 1.066e-05)
(-3.27579e-05 -1.45609e-05 3.31621e-19 2.19151e-05 -5.01927e-20 1.08428e-05)
(-2.76049e-05 -1.87558e-05 1.96912e-19 1.64712e-05 1.64767e-20 1.11337e-05)
(-2.09465e-05 -2.26797e-05 4.52816e-20 9.03315e-06 -9.16159e-21 1.19133e-05)
(-1.28217e-05 -2.48428e-05 -4.86588e-20 -4.25794e-07 2.31413e-20 1.32475e-05)
(-4.68364e-06 -2.40987e-05 1.8174e-19 -9.61371e-06 -2.90361e-20 1.42973e-05)
(2.2822e-06 -2.2526e-05 -4.8943e-20 -1.81736e-05 -4.52041e-21 1.58914e-05)
(5.52941e-06 -1.37752e-05 -3.13489e-20 -1.77104e-05 6.3314e-22 1.2181e-05)
(5.87225e-05 -7.5773e-05 2.87446e-20 -0.000149618 -8.4158e-22 9.08952e-05)
(0.000490521 -0.000274809 -1.4677e-18 -0.00113282 -5.22154e-20 0.000642304)
(0.0014681 0.000456911 -8.77477e-18 -0.00325742 -3.07224e-20 0.00178932)
(0.00232748 0.00480877 -5.5432e-17 -0.00524645 -3.20353e-18 0.00291897)
(0.0018491 0.0157232 -1.35542e-16 -0.00506784 -4.10859e-18 0.00321875)
(-0.000735779 0.0347738 -3.36639e-16 -0.00185021 -2.25193e-17 0.00258599)
(-0.00562583 0.0615623 -8.60326e-16 0.00409572 -7.82518e-17 0.0015301)
(0.000276927 0.000174992 5.55799e-20 -0.000277188 -1.67814e-20 2.60719e-07)
(0.000207282 0.00022301 5.94272e-20 -0.000207041 -1.63455e-21 -2.41195e-07)
(0.00013269 0.000246153 -1.47173e-19 -0.000132758 -8.88036e-20 6.71974e-08)
(6.08485e-05 0.000246307 -7.96914e-20 -6.16516e-05 6.9825e-21 8.03135e-07)
(-1.43945e-06 0.000225705 1.34044e-19 3.10414e-07 5.91375e-20 1.12903e-06)
(-4.66399e-05 0.000191278 6.19746e-20 4.56716e-05 -5.17549e-21 9.68241e-07)
(-7.40209e-05 0.000152796 7.38002e-20 7.35466e-05 -4.54299e-20 4.74274e-07)
(-8.71393e-05 0.000116694 -1.14808e-19 8.74374e-05 -7.36014e-20 -2.98128e-07)
(-9.03494e-05 8.58472e-05 -1.41402e-19 9.15181e-05 2.6929e-20 -1.16871e-06)
(-8.73332e-05 6.13129e-05 1.31764e-20 8.94081e-05 3.69947e-20 -2.07486e-06)
(-8.10409e-05 4.26591e-05 4.36081e-20 8.39255e-05 -1.29676e-20 -2.88465e-06)
(-7.35243e-05 2.90384e-05 -1.07712e-19 7.7141e-05 -8.09633e-21 -3.61668e-06)
(-6.60448e-05 1.92621e-05 -3.9426e-21 7.02635e-05 -1.69775e-20 -4.2187e-06)
(-5.92928e-05 1.2166e-05 -4.12298e-20 6.40037e-05 -7.90026e-21 -4.71086e-06)
(-5.33952e-05 6.69863e-06 8.69243e-20 5.84404e-05 -4.96233e-20 -5.04526e-06)
(-4.82989e-05 2.18443e-06 -9.47673e-20 5.36044e-05 -3.22045e-20 -5.30549e-06)
(-4.37258e-05 -1.95187e-06 -1.96529e-19 4.92227e-05 -2.25171e-20 -5.49686e-06)
(-3.92073e-05 -6.05086e-06 9.1429e-21 4.48762e-05 -2.94017e-20 -5.66887e-06)
(-3.40291e-05 -9.86522e-06 5.05334e-20 3.98095e-05 -2.83149e-20 -5.78039e-06)
(-2.84002e-05 -1.22593e-05 1.52702e-19 3.44568e-05 -1.06841e-20 -6.05656e-06)
(-2.34484e-05 -1.29999e-05 -1.43199e-19 3.01095e-05 -7.86777e-21 -6.66112e-06)
(-1.95422e-05 -1.28563e-05 -2.4567e-20 2.68871e-05 7.45068e-21 -7.34496e-06)
(-1.65297e-05 -1.23442e-05 1.48233e-20 2.45246e-05 1.21508e-21 -7.99492e-06)
(-1.36648e-05 -1.13969e-05 -6.84006e-21 2.18833e-05 -2.59463e-22 -8.21854e-06)
(-1.09335e-05 -1.02353e-05 -1.00238e-20 1.88467e-05 3.74668e-22 -7.91319e-06)
(-7.29253e-06 -7.97782e-06 -1.56817e-20 1.35328e-05 -9.37943e-22 -6.24027e-06)
(-4.13777e-06 -5.63931e-06 4.55812e-20 8.48197e-06 1.34124e-21 -4.3442e-06)
(-3.05128e-05 -5.73598e-05 2.0464e-18 7.81478e-05 1.37192e-19 -4.7635e-05)
(4.68238e-07 -4.18895e-05 1.90889e-17 0.00011001 1.7595e-18 -0.000110478)
(0.000240533 0.000622904 7.94972e-17 -0.000140316 1.0361e-17 -0.000100217)
(0.000226831 0.000128051 -1.42563e-19 -0.000226808 7.4068e-20 -2.34594e-08)
(0.000177083 0.000168784 1.99079e-19 -0.000176758 1.02289e-19 -3.25109e-07)
(0.000121507 0.00019226 -6.47035e-20 -0.000121401 -1.85683e-19 -1.05493e-07)
(6.56964e-05 0.000198502 -8.73125e-20 -6.5871e-05 2.48112e-20 1.74612e-07)
(1.51458e-05 0.000188412 -5.94369e-20 -1.54759e-05 -1.0329e-19 3.30136e-07)
(-2.42425e-05 0.000166429 2.06445e-20 2.39417e-05 3.16215e-20 3.00752e-07)
(-5.0865e-05 0.000138775 -3.94557e-20 5.05845e-05 -5.09167e-20 2.80472e-07)
(-6.60898e-05 0.000110395 -8.15766e-20 6.57518e-05 1.08739e-19 3.37993e-07)
(-7.24573e-05 8.42511e-05 8.66847e-20 7.19755e-05 4.97721e-20 4.81747e-07)
(-7.25688e-05 6.19611e-05 7.32208e-20 7.18751e-05 -3.35572e-20 6.93769e-07)
(-6.88546e-05 4.39302e-05 -1.50472e-20 6.78759e-05 -2.98674e-20 9.78735e-07)
(-6.31614e-05 2.99316e-05 4.37009e-20 6.18695e-05 9.54069e-21 1.2919e-06)
(-5.68262e-05 1.92931e-05 -6.49383e-20 5.52137e-05 1.65694e-20 1.61249e-06)
(-5.06611e-05 1.12311e-05 4.59758e-20 4.8751e-05 -1.30328e-21 1.91007e-06)
(-4.50044e-05 4.94703e-06 -6.03893e-20 4.28179e-05 -2.77999e-20 2.18652e-06)
(-3.992e-05 -1.80693e-07 5.8416e-20 3.75073e-05 4.67823e-21 2.41273e-06)
(-3.52233e-05 -4.65692e-06 7.80577e-20 3.26199e-05 1.67414e-20 2.60343e-06)
(-3.05398e-05 -8.76911e-06 -5.60211e-21 2.77861e-05 7.11307e-21 2.75372e-06)
(-2.52698e-05 -1.23593e-05 -1.46445e-19 2.23162e-05 2.80018e-22 2.95357e-06)
(-1.94241e-05 -1.46359e-05 -5.43739e-20 1.62385e-05 -2.2781e-20 3.18562e-06)
(-1.38398e-05 -1.53447e-05 -1.60423e-20 1.04665e-05 2.42156e-20 3.37328e-06)
(-8.95819e-06 -1.50809e-05 5.93922e-20 5.2793e-06 6.71186e-22 3.67889e-06)
(-4.74546e-06 -1.42455e-05 2.11995e-21 6.42401e-07 -4.63143e-22 4.10306e-06)
(-1.17059e-06 -1.3181e-05 -3.35239e-21 -3.42319e-06 2.68577e-22 4.59378e-06)
(1.69299e-06 -1.13202e-05 3.75803e-20 -6.43361e-06 2.22898e-22 4.74062e-06)
(4.44845e-06 -1.19047e-05 3.34385e-20 -1.01578e-05 1.09097e-21 5.70933e-06)
(3.23685e-06 -5.82949e-06 -8.96275e-20 -6.12998e-06 -5.02595e-21 2.89313e-06)
(1.22204e-05 -1.77273e-05 -7.82905e-19 -2.04067e-05 -6.05325e-20 8.18633e-06)
(8.75312e-05 -0.000109996 -1.07273e-18 -0.000129975 -1.23132e-19 4.24434e-05)
(0.000246999 -0.000269549 2.07851e-18 -0.000326484 3.97094e-20 7.94846e-05)
(0.00021414 5.16748e-05 -2.88783e-20 -0.00021428 8.27201e-21 1.39548e-07)
(0.000187794 9.5233e-05 1.25799e-19 -0.000187606 8.89301e-20 -1.88135e-07)
(0.000151173 0.000129767 -7.88974e-20 -0.000150945 -1.33883e-19 -2.27816e-07)
(0.000108991 0.000151931 3.88074e-20 -0.000108945 6.61664e-20 -4.61008e-08)
(6.54201e-05 0.00016089 -4.58375e-20 -6.54858e-05 -9.23403e-21 6.56747e-08)
(2.46619e-05 0.000157098 -1.38093e-19 -2.48437e-05 -5.45339e-21 1.81733e-07)
(-8.97558e-06 0.000143424 9.95056e-20 8.76845e-06 2.16812e-20 2.07137e-07)
(-3.36811e-05 0.000123972 -1.92773e-20 3.34898e-05 2.71531e-20 1.91277e-07)
(-4.98073e-05 0.000102403 5.68471e-20 4.96428e-05 4.41243e-20 1.64489e-07)
(-5.86686e-05 8.12925e-05 2.04208e-20 5.858e-05 -5.06719e-20 8.86007e-08)
(-6.18993e-05 6.23181e-05 -1.54932e-20 6.19304e-05 -3.68037e-20 -3.10869e-08)
(-6.13224e-05 4.62164e-05 -5.97335e-20 6.14939e-05 2.34112e-20 -1.71473e-07)
(-5.83997e-05 3.31594e-05 -7.23548e-20 5.87383e-05 3.36725e-20 -3.38562e-07)
(-5.43071e-05 2.28619e-05 2.98505e-20 5.48235e-05 -2.13852e-21 -5.16373e-07)
(-4.98403e-05 1.48236e-05 -1.22079e-20 5.05355e-05 -1.37195e-20 -6.95229e-07)
(-4.54373e-05 8.43948e-06 -6.13138e-20 4.63014e-05 1.01031e-22 -8.64099e-07)
(-4.12503e-05 3.20061e-06 -6.8707e-20 4.22756e-05 -1.5957e-20 -1.02533e-06)
(-3.72104e-05 -1.34046e-06 -5.79888e-20 3.83772e-05 4.24694e-21 -1.16685e-06)
(-3.30719e-05 -5.45422e-06 6.17844e-20 3.43623e-05 -2.71597e-20 -1.29047e-06)
(-2.84492e-05 -9.05072e-06 -1.53109e-20 2.98214e-05 2.79519e-20 -1.3722e-06)
(-2.33723e-05 -1.15271e-05 -9.24914e-20 2.48236e-05 2.15785e-20 -1.45125e-06)
(-1.85161e-05 -1.26142e-05 1.23343e-19 2.01306e-05 -7.17306e-21 -1.61458e-06)
(-1.43492e-05 -1.27507e-05 9.75977e-21 1.61541e-05 -7.16349e-21 -1.80481e-06)
(-1.09202e-05 -1.23562e-05 1.79724e-21 1.29296e-05 -6.98623e-22 -2.00932e-06)
(-8.13094e-06 -1.1604e-05 4.45693e-21 1.03944e-05 9.64034e-23 -2.26348e-06)
(-5.92536e-06 -1.0612e-05 -4.53734e-20 8.49411e-06 -1.83427e-21 -2.56875e-06)
(-4.21576e-06 -9.45888e-06 -2.61725e-20 7.08442e-06 -2.59054e-21 -2.86866e-06)
(-2.79666e-06 -8.2908e-06 1.33019e-19 5.8122e-06 1.0208e-20 -3.01554e-06)
(-1.41469e-06 -6.7755e-06 9.94912e-20 4.20921e-06 6.52844e-21 -2.79453e-06)
(-1.45752e-07 -5.09038e-06 -7.69512e-20 2.40304e-06 -5.63436e-21 -2.25729e-06)
(6.8816e-07 -2.90416e-06 5.55023e-20 6.21804e-07 6.99483e-21 -1.30996e-06)
(0.000176013 3.66685e-05 -3.41679e-21 -0.000176099 -2.5269e-20 8.57665e-08)
(0.000156809 7.21343e-05 -4.25984e-20 -0.00015664 2.16153e-20 -1.69225e-07)
(0.000129414 0.000101389 4.86422e-20 -0.000129269 4.64013e-20 -1.45154e-07)
(9.68725e-05 0.000121527 1.13027e-19 -9.68543e-05 4.89759e-20 -1.82098e-08)
(6.24844e-05 0.000131451 7.69316e-20 -6.24971e-05 -2.09001e-21 1.26592e-08)
(2.95053e-05 0.000131476 -2.23667e-20 -2.95731e-05 1.94345e-20 6.78033e-08)
(1.08793e-06 0.000123408 -1.03678e-19 -1.16693e-06 -3.86803e-20 7.89967e-08)
(-2.10596e-05 0.000109958 7.33997e-20 2.098e-05 4.98056e-20 7.95819e-08)
(-3.67837e-05 9.37695e-05 3.72401e-21 3.66876e-05 -5.70111e-20 9.60696e-08)
(-4.66602e-05 7.69062e-05 3.86745e-21 4.65579e-05 -2.59583e-20 1.02311e-07)
(-5.16232e-05 6.09104e-05 -5.87192e-20 5.15236e-05 2.32413e-20 9.95198e-08)
(-5.29611e-05 4.66334e-05 3.3999e-20 5.28445e-05 3.54447e-20 1.16651e-07)
(-5.17765e-05 3.44871e-05 1.47984e-19 5.16319e-05 1.19346e-20 1.44594e-07)
(-4.9069e-05 2.44742e-05 -5.41939e-20 4.88822e-05 -7.39357e-22 1.86757e-07)
(-4.55921e-05 1.6349e-05 -1.12241e-20 4.53523e-05 -1.21023e-21 2.39772e-07)
(-4.18253e-05 9.71724e-06 -7.74049e-20 4.15188e-05 4.97057e-20 3.06518e-07)
(-3.80037e-05 4.19873e-06 -5.8517e-20 3.76271e-05 8.90631e-21 3.76626e-07)
(-3.41552e-05 -5.5068e-07 6.64755e-20 3.37092e-05 1.63826e-20 4.4607e-07)
(-3.01359e-05 -4.74271e-06 -1.546e-19 2.96216e-05 1.63547e-20 5.14321e-07)
(-2.56807e-05 -8.32921e-06 5.20139e-20 2.50754e-05 3.98042e-22 6.05348e-07)
(-2.08025e-05 -1.087e-05 1.024e-19 2.00917e-05 1.39905e-21 7.10829e-07)
(-1.60253e-05 -1.21223e-05 -4.22099e-20 1.52534e-05 -1.14417e-20 7.71962e-07)
(-1.17707e-05 -1.24114e-05 -4.58053e-20 1.09354e-05 8.24314e-22 8.35284e-07)
(-8.10799e-06 -1.21043e-05 -1.10006e-20 7.16703e-06 6.13647e-22 9.40964e-07)
(-4.96252e-06 -1.13775e-05 -1.34435e-21 3.88215e-06 4.89837e-23 1.08037e-06)
(-2.29878e-06 -1.03365e-05 5.46922e-21 1.05646e-06 1.35391e-21 1.24232e-06)
(-7.93577e-08 -9.10753e-06 -7.11988e-20 -1.366e-06 -2.38697e-21 1.44536e-06)
(1.69627e-06 -7.81845e-06 1.63352e-19 -3.33008e-06 5.99291e-21 1.63381e-06)
(3.04178e-06 -6.56356e-06 6.85739e-21 -4.78095e-06 -1.19484e-21 1.73917e-06)
(3.8762e-06 -5.16742e-06 1.06294e-19 -5.52704e-06 1.08529e-20 1.65084e-06)
(3.94274e-06 -3.55249e-06 4.9096e-20 -5.26812e-06 -1.31394e-21 1.32538e-06)
(0.000146402 2.61623e-05 -1.28279e-21 -0.000146387 6.85479e-21 -1.53477e-08)
(0.000132041 5.5429e-05 -6.65353e-21 -0.000131903 -6.05598e-20 -1.3732e-07)
(0.000111124 8.02875e-05 -2.11291e-19 -0.000111047 -9.86184e-20 -7.7464e-08)
(8.56562e-05 9.82686e-05 4.67442e-20 -8.56399e-05 7.25345e-20 -1.6347e-08)
(5.8265e-05 0.000108238 -1.37563e-20 -5.82529e-05 4.96661e-21 -1.20977e-08)
(3.14548e-05 0.000110469 1.11843e-19 -3.14889e-05 3.77016e-20 3.4055e-08)
(7.58701e-06 0.000106088 -7.78612e-21 -7.62949e-06 3.69378e-20 4.24769e-08)
(-1.18897e-05 9.69507e-05 4.7424e-20 1.18472e-05 -1.66256e-20 4.24798e-08)
(-2.66063e-05 8.49594e-05 -4.14683e-20 2.65451e-05 1.35447e-20 6.12268e-08)
(-3.67446e-05 7.17032e-05 -7.51881e-20 3.66793e-05 2.17551e-20 6.53431e-08)
(-4.27892e-05 5.84814e-05 2.00071e-20 4.27406e-05 9.76673e-21 4.85234e-08)
(-4.56012e-05 4.614e-05 3.28456e-20 4.5568e-05 -1.33389e-20 3.32535e-08)
(-4.59679e-05 3.51862e-05 3.09587e-20 4.5958e-05 -5.846e-20 9.97539e-09)
(-4.46841e-05 2.57996e-05 4.30721e-20 4.47058e-05 1.49625e-20 -2.16834e-08)
(-4.2391e-05 1.79349e-05 -3.96331e-20 4.24509e-05 2.22271e-20 -5.99569e-08)
(-3.95538e-05 1.13636e-05 1.47771e-19 3.96542e-05 6.15677e-21 -1.00465e-07)
(-3.64335e-05 5.82109e-06 -3.48383e-20 3.65745e-05 2.04199e-20 -1.40942e-07)
(-3.31187e-05 1.04461e-06 6.87263e-20 3.33009e-05 -2.67423e-20 -1.82218e-07)
(-2.95459e-05 -3.13326e-06 1.05218e-19 2.97672e-05 6.49328e-21 -2.21313e-07)
(-2.55573e-05 -6.69131e-06 2.06666e-21 2.58014e-05 -2.33811e-20 -2.44029e-07)
(-2.1186e-05 -9.30789e-06 -2.89124e-20 2.14444e-05 -1.86113e-20 -2.58453e-07)
(-1.68493e-05 -1.07669e-05 -2.64866e-20 1.71604e-05 3.96115e-21 -3.11119e-07)
(-1.29337e-05 -1.12928e-05 5.36674e-21 1.33149e-05 3.24811e-22 -3.81125e-07)
(-9.55123e-06 -1.12096e-05 1.10911e-20 9.98888e-06 5.01546e-22 -4.37648e-07)
(-6.6739e-06 -1.0698e-05 4.52086e-21 7.1696e-06 -7.84829e-23 -4.95694e-07)
(-4.28763e-06 -9.8723e-06 1.27593e-20 4.86186e-06 3.06503e-22 -5.74231e-07)
(-2.38505e-06 -8.85944e-06 5.01933e-20 3.06391e-06 4.46967e-21 -6.78867e-07)
(-9.07648e-07 -7.76255e-06 -2.86269e-19 1.70587e-06 -2.05401e-20 -7.98227e-07)
(2.56258e-07 -6.6568e-06 -1.14129e-19 6.36159e-07 -4.88065e-21 -8.92417e-07)
(1.23348e-06 -5.57004e-06 -6.36366e-21 -2.88831e-07 -1.13916e-20 -9.44645e-07)
(2.13885e-06 -4.59468e-06 -1.58329e-19 -1.19555e-06 -1.84076e-20 -9.43299e-07)
(0.000127653 -7.02983e-06 -8.5469e-20 -0.000127654 -6.47587e-20 1.76209e-09)
(0.000122883 1.86868e-05 -4.92304e-20 -0.000122839 -3.47992e-20 -4.34618e-08)
(0.000112024 4.30873e-05 -1.25154e-20 -0.000111921 -2.77936e-21 -1.02447e-07)
(9.57595e-05 6.43211e-05 3.0525e-20 -9.57333e-05 7.86379e-20 -2.6194e-08)
(7.55788e-05 8.02247e-05 7.01047e-20 -7.55643e-05 4.46738e-20 -1.45015e-08)
(5.35681e-05 8.97781e-05 4.97704e-20 -5.35481e-05 -3.24471e-20 -2.00322e-08)
(3.1625e-05 9.32225e-05 -6.73703e-20 -3.16389e-05 -4.18106e-20 1.38297e-08)
(1.15903e-05 9.12723e-05 1.41748e-19 -1.16074e-05 5.80947e-21 1.70801e-08)
(-5.3348e-06 8.52144e-05 -2.05105e-20 5.32011e-06 -6.30416e-20 1.46892e-08)
(-1.87482e-05 7.64323e-05 1.20873e-19 1.87182e-05 2.54233e-20 3.00474e-08)
(-2.86163e-05 6.61277e-05 9.27248e-20 2.85766e-05 1.26769e-20 3.96917e-08)
(-3.51403e-05 5.53476e-05 -4.43065e-20 3.51049e-05 -1.82327e-20 3.53936e-08)
(-3.88716e-05 4.48381e-05 7.55795e-21 3.88341e-05 -2.05467e-20 3.75238e-08)
(-4.03369e-05 3.51278e-05 -1.13647e-19 4.0302e-05 5.37985e-21 3.48959e-08)
(-4.01286e-05 2.64843e-05 -1.75079e-20 4.00952e-05 -1.34808e-20 3.34082e-08)
(-3.87669e-05 1.89857e-05 7.94623e-20 3.87336e-05 3.91396e-21 3.33298e-08)
(-3.66662e-05 1.25511e-05 1.61436e-21 3.66294e-05 -2.20828e-20 3.68453e-08)
(-3.40949e-05 7.02845e-06 6.92353e-20 3.4052e-05 1.28694e-20 4.29134e-08)
(-3.11817e-05 2.23431e-06 -7.79087e-20 3.11298e-05 -1.28601e-20 5.1888e-08)
(-2.79241e-05 -1.9439e-06 -5.93386e-20 2.78574e-05 -1.29249e-20 6.66957e-08)
(-2.42464e-05 -5.4888e-06 -1.17665e-19 2.41527e-05 3.90478e-21 9.37049e-08)
(-2.01972e-05 -8.1635e-06 -8.85216e-20 2.00659e-05 1.34927e-20 1.31302e-07)
(-1.61065e-05 -9.77734e-06 -9.48941e-21 1.59552e-05 2.06716e-21 1.51246e-07)
(-1.23225e-05 -1.04828e-05 -3.3688e-20 1.21629e-05 1.48183e-21 1.59599e-07)
(-8.98097e-06 -1.0554e-05 -1.11813e-21 8.79623e-06 -7.78915e-22 1.84735e-07)
(-6.08028e-06 -1.01671e-05 -4.2821e-21 5.85749e-06 -3.84574e-22 2.22798e-07)
(-3.61514e-06 -9.43462e-06 -1.59806e-21 3.35296e-06 -7.63538e-22 2.62179e-07)
(-1.5756e-06 -8.47442e-06 3.52807e-20 1.26787e-06 -6.6767e-23 3.07735e-07)
(8.45082e-08 -7.39941e-06 5.70398e-22 -4.52931e-07 6.37436e-22 3.68423e-07)
(1.40365e-06 -6.29028e-06 2.31735e-19 -1.82285e-06 2.08127e-20 4.192e-07)
(2.47507e-06 -5.19884e-06 -3.69728e-19 -2.92039e-06 -2.62704e-20 4.45321e-07)
(3.36466e-06 -4.13746e-06 2.06541e-20 -3.82508e-06 1.70174e-20 4.60423e-07)
(0.000103957 1.32972e-05 -1.5247e-19 -0.000103904 -1.49496e-20 -5.26008e-08)
(9.5654e-05 3.38346e-05 2.18247e-19 -9.55795e-05 1.71855e-19 -7.45089e-08)
(8.28196e-05 5.20481e-05 1.34356e-19 -8.28197e-05 1.84408e-20 5.58799e-11)
(6.6644e-05 6.60436e-05 9.6475e-20 -6.66354e-05 -1.87577e-20 -8.58005e-09)
(4.87961e-05 7.49726e-05 -1.52177e-19 -4.87741e-05 -6.68542e-20 -2.19305e-08)
(3.07235e-05 7.90136e-05 -9.48635e-20 -3.07304e-05 -1.77413e-20 6.82225e-09)
(1.38916e-05 7.86363e-05 -1.91878e-19 -1.38953e-05 -6.07604e-20 3.71707e-09)
(-7.19446e-07 7.47639e-05 -1.96929e-19 7.16049e-07 1.07051e-20 3.39768e-09)
(-1.27289e-05 6.84101e-05 -9.56161e-20 1.27112e-05 -3.17051e-20 1.76166e-08)
(-2.20214e-05 6.04725e-05 2.91212e-20 2.19946e-05 1.91495e-21 2.68665e-08)
(-2.86354e-05 5.17778e-05 -1.81194e-20 2.86124e-05 4.68577e-21 2.30748e-08)
(-3.29022e-05 4.29567e-05 -5.04948e-20 3.28756e-05 2.04513e-20 2.65973e-08)
(-3.5157e-05 3.44866e-05 5.57407e-20 3.51346e-05 1.10795e-20 2.23645e-08)
(-3.58207e-05 2.66768e-05 -6.81469e-20 3.58057e-05 -1.87499e-20 1.50198e-08)
(-3.5284e-05 1.96867e-05 -7.2267e-21 3.52777e-05 -1.69543e-20 6.32966e-09)
(-3.39016e-05 1.35215e-05 2.17408e-20 3.39047e-05 -1.58087e-20 -3.16458e-09)
(-3.19191e-05 8.12579e-06 6.66661e-20 3.19326e-05 -2.85331e-20 -1.3444e-08)
(-2.94799e-05 3.39784e-06 -2.83603e-20 2.95034e-05 1.3833e-21 -2.35521e-08)
(-2.66255e-05 -7.28993e-07 -1.64061e-20 2.6657e-05 3.12493e-20 -3.14845e-08)
(-2.33419e-05 -4.23912e-06 -1.78227e-20 2.33764e-05 2.90246e-20 -3.44782e-08)
(-1.96909e-05 -6.94826e-06 6.55861e-20 1.97206e-05 8.76845e-21 -2.97556e-08)
(-1.59461e-05 -8.69398e-06 -8.22052e-22 1.59849e-05 8.15974e-21 -3.88001e-08)
(-1.2417e-05 -9.57645e-06 2.24654e-20 1.24794e-05 3.52212e-21 -6.24745e-08)
(-9.25695e-06 -9.8198e-06 -2.99448e-21 9.33736e-06 3.72617e-22 -8.04183e-08)
(-6.49259e-06 -9.59234e-06 -2.40439e-21 6.58549e-06 8.59794e-23 -9.28998e-08)
(-4.13361e-06 -9.00657e-06 -8.70925e-21 4.24471e-06 -3.32463e-22 -1.11098e-07)
(-2.1834e-06 -8.17858e-06 -3.67234e-20 2.31934e-06 -2.03991e-21 -1.35932e-07)
(-6.14009e-07 -7.21745e-06 -9.85888e-20 7.81191e-07 -6.15627e-21 -1.67181e-07)
(6.40284e-07 -6.1976e-06 6.76459e-21 -4.46315e-07 -1.27811e-21 -1.9397e-07)
(1.68042e-06 -5.17597e-06 3.3447e-19 -1.46413e-06 4.37931e-20 -2.16295e-07)
(2.56754e-06 -4.14266e-06 2.41546e-19 -2.35485e-06 7.11479e-21 -2.12691e-07)
(8.21287e-05 2.67918e-05 -2.01578e-19 -8.20804e-05 -1.12315e-19 -4.82999e-08)
(7.1887e-05 4.24726e-05 -1.5351e-19 -7.18994e-05 -2.63359e-20 1.24357e-08)
(5.87808e-05 5.47789e-05 1.14475e-19 -5.8777e-05 9.3369e-20 -3.74102e-09)
(4.41861e-05 6.29955e-05 1.87441e-19 -4.41634e-05 4.39892e-20 -2.27021e-08)
(2.92089e-05 6.72591e-05 3.11711e-20 -2.92118e-05 -2.88302e-21 2.88996e-09)
(1.50396e-05 6.78787e-05 1.39659e-19 -1.50408e-05 9.48457e-20 1.1934e-09)
(2.46619e-06 6.55411e-05 1.80732e-19 -2.46278e-06 7.21303e-20 -3.41238e-09)
(-8.17576e-06 6.10058e-05 -6.52562e-20 8.16967e-06 -1.96859e-20 6.09381e-09)
(-1.67314e-05 5.49494e-05 3.94474e-20 1.67164e-05 9.48297e-23 1.50512e-08)
(-2.3159e-05 4.80054e-05 -1.34767e-20 2.31449e-05 6.3726e-21 1.41556e-08)
(-2.7663e-05 4.0679e-05 9.9513e-20 2.76453e-05 5.22e-21 1.77035e-08)
(-3.04236e-05 3.33917e-05 -3.62833e-20 3.04068e-05 -6.31027e-22 1.68096e-08)
(-3.17273e-05 2.64397e-05 -9.63654e-20 3.17114e-05 3.69467e-20 1.58984e-08)
(-3.18568e-05 2.00197e-05 -3.62106e-20 3.18452e-05 3.38579e-21 1.16532e-08)
(-3.10866e-05 1.42099e-05 -8.45185e-20 3.10786e-05 1.37076e-20 7.947e-09)
(-2.96284e-05 9.02039e-06 -8.99932e-20 2.96228e-05 -1.24056e-21 5.6352e-09)
(-2.76277e-05 4.41115e-06 -9.74483e-20 2.76231e-05 1.89597e-20 4.60884e-09)
(-2.51511e-05 3.58386e-07 1.58795e-19 2.51449e-05 -1.62166e-20 6.2219e-09)
(-2.2223e-05 -3.10526e-06 1.23569e-19 2.22105e-05 -3.94608e-21 1.25542e-08)
(-1.89205e-05 -5.83188e-06 2.10097e-20 1.8895e-05 -1.44017e-20 2.5541e-08)
(-1.54737e-05 -7.68294e-06 8.1784e-20 1.54417e-05 -8.7525e-21 3.20446e-08)
(-1.21548e-05 -8.71445e-06 1.8692e-20 1.21267e-05 -4.57828e-21 2.8113e-08)
(-9.12538e-06 -9.10691e-06 5.47065e-21 9.09572e-06 9.62495e-22 2.96563e-08)
(-6.43464e-06 -9.01457e-06 -4.07013e-22 6.39537e-06 3.39558e-22 3.92684e-08)
(-4.1048e-06 -8.54735e-06 -5.13583e-22 4.05565e-06 4.65182e-22 4.91514e-08)
(-2.14779e-06 -7.81479e-06 1.83803e-20 2.08965e-06 1.9195e-21 5.81399e-08)
(-5.3969e-07 -6.92431e-06 2.63526e-20 4.68074e-07 3.55633e-21 7.16155e-08)
(7.59658e-07 -5.9544e-06 5.35127e-20 -8.43276e-07 4.06405e-21 8.36178e-08)
(1.83373e-06 -4.96302e-06 1.19418e-19 -1.91898e-06 -3.5055e-21 8.52592e-08)
(2.73516e-06 -3.94337e-06 -4.25926e-19 -2.82776e-06 -5.47339e-20 9.25946e-08)
(6.26035e-05 3.49193e-05 4.929e-20 -6.26192e-05 2.68491e-20 1.56677e-08)
(5.1889e-05 4.57407e-05 7.05217e-20 -5.18859e-05 -3.92479e-20 -3.0606e-09)
(3.9857e-05 5.32262e-05 -2.40454e-19 -3.98394e-05 -1.25659e-19 -1.75983e-08)
(2.73753e-05 5.74791e-05 -1.97027e-19 -2.73748e-05 -1.62693e-21 -5.23201e-10)
(1.53993e-05 5.87165e-05 3.6665e-20 -1.53962e-05 -3.86315e-21 -3.0838e-09)
(4.59618e-06 5.74521e-05 1.69034e-19 -4.58838e-06 -2.85745e-20 -7.80083e-09)
(-4.75642e-06 5.42709e-05 -4.70472e-20 4.75416e-06 1.12357e-20 2.26418e-09)
(-1.25161e-05 4.96815e-05 -2.66759e-20 1.25062e-05 -2.27694e-21 9.9179e-09)
(-1.85993e-05 4.4175e-05 -6.74037e-21 1.85934e-05 -1.13068e-20 5.87473e-09)
(-2.31187e-05 3.81512e-05 -3.47698e-20 2.31073e-05 -8.24893e-22 1.14015e-08)
(-2.61649e-05 3.19525e-05 7.54514e-20 2.6154e-05 9.6776e-21 1.09743e-08)
(-2.79213e-05 2.58478e-05 1.4824e-19 2.79112e-05 3.69856e-20 1.01029e-08)
(-2.85729e-05 2.00408e-05 2.27664e-20 2.85643e-05 1.09705e-20 8.62e-09)
(-2.8327e-05 1.46466e-05 1.05303e-19 2.8321e-05 1.20448e-20 6.01577e-09)
(-2.73532e-05 9.72804e-06 4.53972e-20 2.73515e-05 1.34712e-20 1.69003e-09)
(-2.57833e-05 5.29235e-06 7.45489e-20 2.57867e-05 5.14727e-21 -3.30401e-09)
(-2.36918e-05 1.35426e-06 -1.04789e-19 2.36975e-05 -1.98199e-20 -5.71072e-09)
(-2.11278e-05 -2.04191e-06 -1.64576e-20 2.11312e-05 -2.64431e-20 -3.42543e-09)
(-1.81804e-05 -4.76653e-06 -6.28389e-20 1.81786e-05 -4.74942e-22 1.81344e-09)
(-1.50472e-05 -6.69545e-06 -8.78981e-20 1.50444e-05 -7.07619e-22 2.80997e-09)
(-1.1968e-05 -7.85745e-06 -4.02545e-20 1.19732e-05 -1.32438e-21 -5.15075e-09)
(-9.10754e-06 -8.39089e-06 9.37389e-21 9.11935e-06 -9.23123e-22 -1.18182e-08)
(-6.53398e-06 -8.43458e-06 4.62177e-21 6.54764e-06 -1.82024e-22 -1.36548e-08)
(-4.2826e-06 -8.09407e-06 4.62131e-21 4.2994e-06 1.20552e-21 -1.67981e-08)
(-2.37385e-06 -7.47309e-06 -5.66634e-22 2.39668e-06 -1.09227e-21 -2.28306e-08)
(-7.96927e-07 -6.67546e-06 -6.17236e-21 8.27203e-07 2.5339e-21 -3.02757e-08)
(4.87188e-07 -5.77708e-06 -6.93592e-21 -4.50012e-07 -9.93972e-21 -3.71762e-08)
(1.55777e-06 -4.83363e-06 -2.08289e-19 -1.5108e-06 -1.015e-20 -4.69686e-08)
(2.46786e-06 -3.84247e-06 2.0167e-20 -2.42682e-06 2.64228e-20 -4.10403e-08)
(4.58594e-05 3.84159e-05 -2.71395e-19 -4.58574e-05 -1.16804e-19 -2.03335e-09)
(3.58604e-05 4.51975e-05 5.71832e-20 -3.58454e-05 8.26109e-20 -1.4945e-08)
(2.53994e-05 4.93076e-05 1.46385e-19 -2.5399e-05 2.50899e-20 -4.19288e-10)
(1.52497e-05 5.09016e-05 -1.77795e-19 -1.52476e-05 -7.39448e-20 -2.09128e-09)
(5.96852e-06 5.03778e-05 -1.7612e-19 -5.96224e-06 -1.78269e-20 -6.27454e-09)
(-2.22064e-06 4.81964e-05 1.00666e-19 2.22151e-06 2.43819e-20 -8.67328e-10)
(-9.18463e-06 4.47506e-05 5.2768e-20 9.18012e-06 -1.1876e-21 4.5108e-09)
(-1.48249e-05 4.04121e-05 -9.02904e-20 1.4822e-05 -4.7868e-21 2.93171e-09)
(-1.9214e-05 3.54916e-05 7.8447e-20 1.92071e-05 3.38563e-21 6.91832e-09)
(-2.23766e-05 3.02684e-05 -5.52169e-20 2.23691e-05 -2.63601e-20 7.47492e-09)
(-2.44203e-05 2.49727e-05 1.33609e-19 2.44122e-05 -2.62683e-20 8.11663e-09)
(-2.54625e-05 1.97918e-05 5.46632e-20 2.54552e-05 -9.751e-21 7.29646e-09)
(-2.56459e-05 1.48525e-05 -6.30532e-21 2.56402e-05 -2.18002e-20 5.74186e-09)
(-2.50951e-05 1.02493e-05 2.06261e-20 2.5092e-05 -9.42279e-21 3.09533e-09)
(-2.39194e-05 6.02871e-06 -2.02301e-20 2.39186e-05 -1.32278e-20 7.89668e-10)
(-2.21928e-05 2.23678e-06 -6.25926e-21 2.21924e-05 1.40483e-20 3.53453e-10)
(-1.99783e-05 -1.06808e-06 -1.27734e-19 1.99759e-05 1.46697e-20 2.42812e-09)
(-1.73677e-05 -3.77049e-06 1.06323e-21 1.73601e-05 8.4428e-21 7.59801e-09)
(-1.45342e-05 -5.75392e-06 6.07525e-20 1.45232e-05 9.41602e-21 1.09844e-08)
(-1.16888e-05 -7.02281e-06 8.33664e-22 1.16808e-05 4.12404e-21 8.00606e-09)
(-8.99403e-06 -7.68129e-06 -1.12268e-20 8.98857e-06 -2.7099e-22 5.45931e-09)
(-6.53224e-06 -7.84929e-06 -6.23511e-21 6.52525e-06 -2.48777e-22 6.98801e-09)
(-4.34963e-06 -7.62546e-06 1.9902e-20 4.34042e-06 -5.78751e-23 9.21147e-09)
(-2.47489e-06 -7.10662e-06 -1.35332e-20 2.46472e-06 -1.38977e-21 1.01682e-08)