/*--------------------------------*- C++ -*----------------------------------*\
| =========                 |                                                 |
| \\      /  F ield         | OpenFOAM: The Open Source CFD Toolbox           |
|  \\    /   O peration     | Version:  2506                                  |
|   \\  /    A nd           | Website:  www.openfoam.com                      |
|    \\/     M anipulation  |                                                 |
\*---------------------------------------------------------------------------*/
FoamFile
{
    version     2.0;
    format      ascii;
    arch        "LSB;label=32;scalar=64";
    class       volScalarField;
    location    "100";
    object      div(phi);
}
// * * * * * * * * * * * * * * * * * * * * * * * * * * * * * * * * * * * * * //

dimensions      [0 0 -1 0 0 0 0];

internalField   nonuniform List<scalar> 
1340
(
0.00185777
-0.00105603
0.000776899
-0.000453283
0.000490755
0.000261771
0.000510373
0.000413677
0.000206309
2.34032e-05
-2.089e-05
-6.74115e-05
-3.54184e-05
-4.7477e-05
-2.27326e-05
-4.3431e-05
-1.94078e-05
-4.89869e-05
3.88471e-08
-4.57831e-05
6.82269e-05
2.74845e-05
0.000314097
0.000344719
0.000378504
0.000287837
0.000340207
0.000284211
0.000352809
0.000325573
0.000288287
0.00115884
0.000319077
-0.000691707
-0.000488967
-0.00114091
0.00159639
2.85906e-06
0.000268666
0.000207151
-0.00143526
-0.000248438
0.000840206
-0.000218994
0.000515667
-0.000288219
0.000523637
0.000285284
0.00052306
0.000286402
0.000123477
-8.22278e-06
-4.50911e-05
-6.75556e-05
-3.70042e-05
-4.70199e-05
-1.95718e-05
-3.8458e-05
-1.33397e-05
-2.9012e-05
1.39097e-05
8.07839e-06
8.85111e-05
0.000114132
0.000288741
0.000352604
0.000397535
0.000404393
0.000452269
0.000525418
0.000622623
0.000697445
0.000736121
0.00160341
0.00123653
0.000674584
0.000560383
0.000151905
0.000698288
-0.000173037
0.000116391
-0.000606606
-0.000157448
-0.00123693
0.0008509
-0.000657355
0.000600529
6.42167e-05
0.000505694
0.000326515
0.000220687
2.74162e-05
-2.73809e-05
-9.16022e-05
-6.41787e-05
-7.71576e-05
-4.746e-05
-5.75459e-05
-4.35193e-05
-5.01611e-05
-4.30991e-05
-3.62642e-05
-3.11506e-05
1.70746e-07
1.83238e-05
0.00010074
0.000125859
8.4204e-05
5.33426e-05
8.26365e-06
5.61243e-06
-3.05856e-05
-1.0991e-05
-7.12483e-05
0.000202031
-0.000246431
-0.000972165
-0.000506557
0.00106806
-0.000581418
8.31772e-05
-0.000547987
-0.000223689
-0.000361038
0.000759851
-0.000422557
0.000309994
-7.59439e-07
0.000380269
0.000352288
0.00025525
6.08532e-05
-4.11626e-06
-7.28686e-05
-9.16811e-05
-7.66801e-05
-7.87638e-05
-5.0152e-05
-6.33841e-05
-3.36828e-05
-4.81131e-05
-1.46036e-05
-1.14865e-05
3.41487e-05
6.79509e-05
0.00013913
0.000234896
0.000315785
0.000338132
0.000362245
0.000361249
0.000439236
0.000489646
0.000624648
0.000683063
0.00123027
0.00107425
0.000598105
0.000594912
-0.000428951
-0.000139548
-0.000442857
-0.000488384
-0.000248609
0.000382464
3.80987e-05
8.53392e-05
0.000238601
0.000289176
0.00025274
0.000104101
3.89162e-05
-3.85109e-05
-9.86285e-05
-8.15298e-05
-9.95709e-05
-6.75392e-05
-8.21417e-05
-5.75806e-05
-6.88049e-05
-5.07233e-05
-5.63407e-05
-3.70913e-05
-3.48553e-05
-6.0803e-06
1.11256e-05
6.20925e-05
7.12225e-05
4.83981e-05
-3.1174e-06
-5.15406e-05
-0.000104707
-0.000129712
-0.000117328
-0.000156862
-8.5419e-05
-0.000459783
-0.00121626
-0.000584266
-0.000344387
-0.000270671
-0.000657896
-0.000141233
-0.000331134
-0.000134084
0.000139803
0.000261502
0.000132526
0.00023208
0.000141652
6.79827e-05
-1.59724e-05
-6.9228e-05
-8.22489e-05
-8.90872e-05
-8.43187e-05
-7.13299e-05
-7.95711e-05
-5.64195e-05
-6.38175e-05
-3.15775e-05
-3.47113e-05
8.84283e-06
2.41321e-05
8.37617e-05
0.000124146
0.000208477
0.000257638
0.000298593
0.000309659
0.000309152
0.000351509
0.000404781
0.000544964
0.000666446
0.00105442
0.000981322
0.000557159
0.00055678
-0.000190965
-0.000497886
-0.000362592
-0.000310268
-0.000321277
0.000324363
9.52634e-05
0.000210139
0.000140888
7.05776e-05
1.22111e-05
-1.92706e-05
-6.53773e-05
-6.97729e-05
-8.31744e-05
-6.45374e-05
-8.3291e-05
-6.57091e-05
-7.98502e-05
-5.8107e-05
-6.33446e-05
-4.41834e-05
-4.17002e-05
-2.1826e-05
-1.14171e-05
1.42867e-05
3.10543e-05
4.34628e-05
1.39264e-05
-2.52007e-05
-0.00010585
-0.000150851
-0.000238451
-0.000191927
-0.000243797
-0.000297698
-0.000630959
-0.00140144
-0.000623264
-0.000121649
-0.000508001
-0.000123047
-0.000232946
0.000321782
0.000196588
0.00018946
0.000144547
6.88576e-05
4.10081e-05
1.25996e-05
-3.59891e-05
-4.96046e-05
-6.77366e-05
-5.3796e-05
-5.58119e-05
-6.72533e-05
-6.20288e-05
-7.07827e-05
-4.53977e-05
-4.58784e-05
-9.69604e-06
-1.77277e-06
4.52476e-05
6.99728e-05
0.000126748
0.000168337
0.000220295
0.000243833
0.000258531
0.000247218
0.000259606
0.000286001
0.00039877
0.000546178
0.000782836
0.000801263
0.000457219
0.000447038
-0.000317139
-6.17454e-05
-0.000294535
0.000444341
9.46421e-05
0.000151602
0.00018621
0.000113854
6.13239e-05
2.18603e-05
1.81101e-06
-1.56017e-05
-4.16354e-05
-3.4189e-05
-3.96548e-05
-5.27789e-05
-4.8499e-05
-7.36885e-05
-5.82218e-05
-6.79469e-05
-4.36854e-05
-4.73531e-05
-2.30116e-05
-2.33888e-05
1.93177e-06
3.87679e-06
2.77478e-05
1.77855e-05
8.94285e-06
-4.51107e-05
-0.000104003
-0.000195012
-0.00025933
-0.000285423
-0.000268308
-0.000367058
-0.000727679
-0.00137584
-0.000663687
5.68434e-05
-0.000311109
0.000317295
8.79648e-05
3.13663e-05
2.7329e-06
-1.10809e-05
-7.50471e-06
-8.37276e-05
3.23384e-06
-2.68366e-05
-4.19111e-05
-5.66049e-05
-4.97606e-05
-5.07376e-05
-2.72361e-05
-1.53518e-05
1.50811e-05
3.79127e-05
7.37246e-05
0.000108528
0.000146682
0.000180992
0.000202727
0.000212312
0.00020135
0.000187199
0.000192745
0.000248214
0.000385408
0.000515954
0.000555155
0.000326784
0.000250332
4.342e-05
2.81602e-05
-0.000104165
3.5098e-05
-2.07794e-05
6.07928e-06
-3.62468e-05
-4.03651e-05
-6.11562e-05
-4.47259e-05
-5.20253e-05
-2.41802e-05
-3.08202e-05
-1.70149e-06
-9.54006e-06
1.81771e-05
7.58532e-06
2.26493e-05
-7.6971e-06
-3.49622e-05
-0.000101181
-0.000184906
-0.000270073
-0.000315013
-0.000307464
-0.000480503
-0.000709687
-0.00132168
-0.000545449
6.99049e-05
-9.33288e-05
3.3395e-05
1.55802e-05
-1.49643e-05
-3.06502e-05
-4.10364e-05
-4.23467e-05
-2.76926e-05
-1.34967e-05
1.43918e-05
3.47991e-05
6.70311e-05
9.28489e-05
0.000125026
0.000149452
0.000167529
0.000176976
0.000165793
0.00014684
0.000127154
0.000145008
0.000230581
0.000288756
0.000321119
0.000156206
8.32911e-05
7.99056e-05
1.47836e-05
6.65674e-06
-6.03047e-06
-3.18538e-05
-3.73282e-05
-5.25796e-05
-3.62849e-05
-3.68815e-05
-1.15657e-05
-1.43005e-05
7.80046e-06
3.575e-06
1.80579e-05
8.43128e-06
3.9556e-07
-3.22256e-05
-8.18369e-05
-0.000152529
-0.000243847
-0.000305656
-0.000323252
-0.000450957
-0.000795596
-0.00114566
-0.000473588
1.71071e-05
1.04518e-05
5.10581e-06
-1.70782e-05
-3.81802e-05
-3.74935e-05
-3.89381e-05
-1.00355e-05
1.09243e-06
3.60973e-05
5.13652e-05
8.38236e-05
0.000101351
0.000126251
0.000137933
0.000148593
0.000144132
0.000123631
0.000105012
8.69186e-05
0.000136188
0.000126173
0.00012697
-1.6527e-05
-9.03592e-05
4.16185e-05
4.98703e-06
1.84131e-06
-1.65629e-05
-3.88866e-05
-4.7767e-05
-4.42618e-05
-2.94788e-05
-1.82351e-05
-4.17384e-06
1.81911e-06
1.21335e-05
1.20895e-05
1.38935e-05
1.08036e-06
-1.99883e-05
-5.62714e-05
-0.000115959
-0.000180392
-0.000262748
-0.000285965
-0.000466856
-0.0006882
-0.00113494
-0.000336158
4.7662e-05
-9.67778e-06
-1.1101e-05
-3.58561e-05
-4.81568e-05
-3.18031e-05
-2.32021e-05
7.55125e-06
2.11653e-05
5.18435e-05
6.57311e-05
8.97813e-05
0.000102293
0.00011643
0.000127371
0.000126076
0.000120371
9.73811e-05
8.38345e-05
7.94899e-05
4.95781e-05
-6.76739e-06
-0.000155983
-0.000225129
2.96355e-05
-1.39986e-05
-4.00105e-05
-4.40433e-05
-4.13267e-05
-2.23514e-05
-1.35507e-05
1.75609e-06
6.06413e-06
1.54585e-05
1.49539e-05
1.72567e-05
7.67658e-06
-5.57744e-06
-3.22753e-05
-7.07111e-05
-0.000119434
-0.000187735
-0.000228435
-0.000377245
-0.00061874
-0.000936183
-0.000256963
2.40425e-06
-2.60953e-05
-3.20028e-05
-3.64948e-05
-3.09863e-05
-8.87801e-06
2.87918e-06
2.65388e-05
4.25403e-05
6.08913e-05
7.39591e-05
8.66757e-05
9.77927e-05
0.000108263
0.000115143
0.000114006
0.000103727
9.07789e-05
7.12489e-05
2.604e-05
-7.19857e-05
-0.000214674
-0.000328819
-7.10535e-06
-2.48031e-05
-3.4549e-05
-1.9383e-05
-1.3996e-05
2.41755e-06
4.4617e-06
1.65324e-05
1.55507e-05
2.20079e-05
1.88864e-05
1.69297e-05
6.28649e-06
-1.13641e-05
-3.11985e-05
-7.2592e-05
-0.000105554
-0.000165868
-0.000253691
-0.00048217
-0.000703077
-0.000229371
-1.88156e-05
-3.01051e-05
-2.05487e-05
-6.25654e-06
9.34878e-07
1.32194e-05
2.4946e-05
4.06652e-05
5.20921e-05
6.29126e-05
7.1505e-05
8.08303e-05
9.07688e-05
0.000100525
0.000105021
0.000101924
9.7566e-05
7.10594e-05
3.38411e-05
-8.71724e-05
-0.000214201
-0.00036986
-1.29079e-05
1.6762e-07
-5.36519e-06
6.6667e-06
6.03545e-06
1.56204e-05
1.51854e-05
2.13955e-05
2.07221e-05
2.30585e-05
2.05658e-05
1.36271e-05
4.87475e-06
-1.21862e-05
-3.10554e-05
-6.19259e-05
-9.24534e-05
-0.000164395
-0.000309747
-0.000487893
-0.000149103
-4.4911e-06
-3.65116e-05
7.41774e-06
1.55359e-05
1.71087e-05
2.33702e-05
3.49276e-05
4.2866e-05
5.07291e-05
5.67872e-05
6.30266e-05
7.22515e-05
8.15744e-05
8.82799e-05
9.04503e-05
8.99658e-05
6.99963e-05
3.99738e-05
-6.97919e-05
-0.000169673
-0.000335469
3.26276e-05
4.60445e-05
2.22525e-05
1.69472e-05
1.38425e-05
1.67949e-05
1.79069e-05
2.02514e-05
2.10768e-05
2.05083e-05
1.63303e-05
8.61257e-06
2.1888e-07
-1.66693e-05
-2.81222e-05
-5.84275e-05
-8.31167e-05
-0.00020467
-0.000276583
-8.65676e-05
-5.33717e-06
4.28405e-05
5.09723e-05
2.57721e-05
2.03743e-05
2.52484e-05
3.28157e-05
3.77024e-05
4.17218e-05
4.55473e-05
5.19931e-05
6.08281e-05
6.56269e-05
7.29469e-05
7.11645e-05
6.46002e-05
3.66628e-05
-3.95975e-05
-0.000115814
-0.000250543
9.61224e-05
5.84719e-05
3.69118e-05
1.75334e-05
1.21764e-05
1.21408e-05
1.40725e-05
1.55112e-05
1.7005e-05
1.6933e-05
1.37739e-05
8.90421e-06
1.01381e-06
-7.1373e-06
-1.83317e-05
-3.13323e-05
-5.10744e-05
-0.000124651
-0.000162435
-3.80895e-05
9.39018e-05
2.9573e-05
1.63474e-05
1.23159e-05
1.69773e-05
2.18469e-05
2.61532e-05
2.77023e-05
2.93615e-05
3.44766e-05
3.94573e-05
4.6029e-05
5.06925e-05
5.39811e-05
5.11228e-05
3.12029e-05
-1.49511e-05
-6.99097e-05
-0.000135707
1.78697e-05
1.81473e-05
8.51765e-06
6.38195e-06
6.95089e-06
8.97583e-06
1.01039e-05
1.16404e-05
1.2315e-05
1.02145e-05
6.73158e-06
1.06244e-06
-4.12196e-06
-1.20645e-05
-1.87304e-05
-3.63511e-05
-7.96542e-05
-0.000101667
4.03597e-06
7.199e-05
-2.21744e-05
-7.48339e-06
4.70275e-06
9.15553e-06
1.43722e-05
1.64989e-05
1.69899e-05
1.7437e-05
1.98832e-05
2.40462e-05
2.83593e-05
3.3772e-05
3.71227e-05
3.78599e-05
2.33182e-05
9.97251e-07
-3.08145e-05
-4.21972e-05
3.87596e-05
2.83283e-05
4.77139e-06
7.29125e-06
6.62314e-06
7.09856e-06
7.68346e-06
8.32411e-06
7.60792e-06
4.4359e-06
1.88071e-06
-2.82959e-06
-6.46218e-06
-1.35922e-05
-2.59915e-05
-5.43218e-05
-5.8364e-05
-4.37416e-05
1.71015e-06
8.03711e-06
3.02234e-05
1.56205e-05
1.33926e-05
1.23343e-05
1.08235e-05
9.72106e-06
1.04136e-05
1.28741e-05
1.62332e-05
2.03305e-05
2.41977e-05
2.47042e-05
1.60103e-05
8.47772e-06
-2.5259e-05
2.14174e-05
6.29213e-05
3.34455e-05
1.92367e-05
1.3684e-05
9.88008e-06
7.20652e-06
6.10146e-06
6.22195e-06
5.01256e-06
3.68354e-06
1.13194e-06
-5.65841e-07
-4.37383e-06
-8.85379e-06
-1.96035e-05
-3.79341e-05
-1.41205e-05
-4.95988e-05
6.12329e-05
1.84301e-05
1.48937e-05
1.39998e-05
1.09289e-05
8.13638e-06
5.26247e-06
4.76376e-06
5.43598e-06
8.01135e-06
1.06564e-05
1.40192e-05
1.36361e-05
9.43697e-06
1.42306e-05
-9.65179e-06
4.55951e-05
-1.74572e-05
1.21398e-05
1.58804e-05
1.27758e-05
8.56512e-06
5.41528e-06
4.26876e-06
3.19316e-06
1.83905e-06
1.05039e-06
-3.71068e-07
-2.37441e-06
-6.90035e-06
-1.22534e-05
-2.02612e-05
8.37426e-06
-3.00626e-05
4.73932e-05
1.80398e-07
1.35354e-05
1.44748e-05
1.06459e-05
6.27243e-06
2.79834e-06
7.61123e-07
1.80962e-06
2.66848e-06
4.98329e-06
6.40557e-06
6.10633e-06
6.16865e-06
1.47212e-05
1.23568e-05
3.29049e-05
1.65282e-05
1.32457e-05
7.38145e-06
3.81212e-06
2.06104e-06
1.84988e-06
1.46323e-06
1.33551e-06
5.09292e-07
-1.34878e-06
-4.30598e-06
-6.12851e-06
-3.71174e-06
7.85296e-07
-1.01176e-07
4.51297e-06
1.05318e-05
7.66536e-06
3.95355e-06
8.22043e-07
9.56737e-07
7.69207e-07
1.9287e-06
2.30914e-06
2.4453e-06
2.38438e-06
5.23906e-06
1.25798e-05
2.78421e-05
3.0222e-05
2.51425e-05
9.31631e-06
5.80139e-06
2.32153e-06
3.04099e-06
2.9916e-06
3.96294e-06
3.14506e-06
2.10751e-06
-4.06228e-08
-1.68909e-06
-1.16371e-06
6.33935e-06
-2.9375e-06
4.49693e-06
1.88199e-06
2.08708e-05
1.05382e-05
5.64794e-06
4.33431e-06
3.69616e-06
4.04088e-06
2.90907e-06
1.86178e-06
8.61551e-07
9.25435e-07
5.52161e-06
8.07854e-06
3.27311e-05
3.26705e-05
4.22265e-05
1.31061e-05
8.47732e-06
6.81097e-06
5.88524e-06
7.61215e-06
5.91344e-06
4.72483e-06
2.41798e-06
4.36171e-07
6.30091e-09
1.16368e-06
1.19327e-05
-9.94627e-06
2.0002e-05
2.16961e-05
1.26835e-05
9.27799e-06
7.95426e-06
6.73402e-06
4.94245e-06
2.62988e-06
5.44418e-07
-7.69086e-07
2.02079e-07
5.25179e-06
1.98217e-06
3.41551e-05
3.42779e-05
1.16335e-05
8.76398e-06
6.36155e-06
8.02858e-06
5.98261e-06
4.49598e-06
2.08934e-06
2.15988e-07
-3.20871e-07
6.52547e-07
6.37129e-07
1.57478e-05
-7.67751e-06
2.44012e-05
5.38629e-06
4.74941e-06
7.8626e-06
3.02621e-06
1.38151e-06
1.04988e-06
-8.79252e-07
-1.85663e-06
-1.87473e-06
-1.27157e-06
5.69459e-06
6.72242e-06
1.99937e-05
-2.63383e-05
-3.46768e-06
3.12554e-06
-4.13175e-06
-4.13946e-06
-5.29301e-07
-3.03769e-06
-2.18892e-06
-2.07996e-06
-1.84442e-06
1.11743e-06
5.12341e-06
1.40395e-06
-5.75037e-06
2.73446e-06
-1.02131e-05
-8.20746e-06
-7.01757e-06
-3.6407e-06
-8.29057e-06
-3.41111e-06
-3.29598e-06
-3.28125e-06
-2.12978e-06
-3.12516e-07
-3.33983e-06
6.10615e-06
6.90328e-07
-4.11975e-06
-9.75153e-06
-7.40839e-06
-1.27688e-05
-4.56573e-06
-3.71117e-06
-4.23384e-06
-3.07709e-06
-2.22845e-06
-1.5356e-06
5.35772e-06
-9.27718e-06
-8.75011e-07
-2.22574e-05
-9.06762e-06
-1.30896e-05
-5.63354e-06
-3.10473e-06
-4.83275e-06
-3.31995e-06
-3.56556e-06
-2.23973e-06
-7.16408e-08
-6.79651e-06
7.06905e-06
-6.00849e-06
-1.17606e-05
-7.36144e-06
-3.92626e-06
-4.61955e-06
-3.45958e-06
-4.75061e-06
-3.61303e-06
-3.0093e-06
-2.58059e-06
4.85688e-06
-5.1902e-06
-2.25877e-05
-8.17293e-06
-4.748e-06
-3.61529e-06
-2.86973e-06
-4.18053e-06
-3.52378e-06
-4.16829e-06
-2.39757e-06
3.23124e-08
-5.50221e-06
5.42816e-06
-1.94017e-06
-6.44979e-06
-4.41517e-06
-3.76857e-06
-2.31698e-06
-3.50263e-06
-3.07438e-06
-3.43011e-06
-2.27897e-06
-2.15298e-06
4.83516e-06
-3.25964e-06
-1.9024e-06
-6.64268e-06
-5.95006e-07
-4.54496e-06
2.88106e-08
-3.44154e-06
-5.63359e-07
7.9982e-07
1.66388e-06
-3.38252e-06
4.07942e-06
-1.39607e-05
-2.16603e-06
-4.78942e-06
7.20883e-07
-2.10538e-06
8.67773e-07
2.23546e-06
4.99375e-07
-4.44205e-07
3.10603e-06
-2.12116e-06
-3.87649e-06
-2.81003e-06
-8.58744e-07
-5.40226e-07
4.918e-07
1.88737e-06
1.11331e-06
1.04919e-06
1.29853e-07
-3.6246e-06
7.47025e-07
-8.11876e-06
-1.93334e-06
-7.47993e-07
1.91069e-08
6.56519e-07
1.09101e-06
6.6126e-07
-7.95096e-07
-2.38267e-06
1.998e-06
1.21393e-06
-1.03897e-06
-1.34385e-06
2.97319e-08
-2.10741e-07
7.62464e-07
1.63557e-07
4.17159e-07
-1.12305e-06
1.95867e-06
4.63222e-07
8.79196e-07
-7.41363e-06
8.00893e-07
-1.80746e-06
1.62752e-06
-1.29838e-06
1.74551e-06
-1.41399e-06
1.55503e-06
8.33309e-07
1.56448e-06
5.44928e-06
-4.51321e-06
1.24517e-06
-2.34703e-06
1.65143e-06
-1.39626e-06
1.00922e-06
1.82734e-06
2.26687e-08
1.80412e-06
2.54525e-06
-1.01377e-06
5.72159e-08
-3.62675e-07
6.64196e-08
1.54872e-06
-8.68561e-08
2.82801e-06
-2.02823e-06
-2.7725e-06
-7.75021e-07
-2.19681e-07
-3.55417e-08
5.51401e-07
1.57901e-07
2.98536e-06
-6.56437e-07
1.61449e-06
4.34408e-07
-3.81554e-07
2.48815e-07
3.49068e-07
4.09841e-07
1.88009e-06
-5.02074e-07
1.86047e-06
-1.59695e-06
-2.50906e-06
-2.37731e-07
5.42799e-09
4.25873e-07
2.64008e-07
-7.4109e-07
1.31329e-06
-1.42423e-06
1.99714e-06
4.87915e-07
-4.17e-07
4.61532e-07
-2.56082e-09
-3.63353e-07
4.52807e-07
-9.16314e-07
1.82198e-06
-1.77072e-06
-1.96416e-06
-1.85065e-07
2.26347e-07
4.2525e-08
1.79178e-07
-4.80811e-08
5.94036e-07
-5.02e-07
-1.00772e-06
2.42439e-08
-3.63391e-07
5.63163e-07
-2.07709e-07
9.56626e-08
8.67478e-07
-3.49243e-07
8.51999e-08
-1.55446e-06
8.64455e-07
-9.90954e-07
6.06636e-07
7.67641e-07
2.67525e-07
4.81387e-07
-1.94108e-07
-4.23173e-07
-1.25094e-07
9.81203e-07
-5.29845e-07
1.32267e-06
-1.1514e-06
8.71382e-07
-2.99859e-07
1.97475e-07
-5.65762e-07
9.64559e-07
-9.26898e-07
5.18325e-07
-6.17908e-07
-2.99964e-07
-1.38573e-07
8.06161e-07
-3.37331e-07
4.91739e-07
-1.13385e-06
1.62739e-07
-2.49623e-07
1.17248e-07
-1.05196e-08
-1.69164e-07
-2.79134e-07
-1.10921e-06
-1.1557e-06
-2.4649e-07
-1.87279e-07
-3.01284e-08
-2.57852e-08
-5.40907e-07
-2.35663e-07
-2.33693e-07
-5.93553e-09
2.77554e-08
-1.40784e-07
-3.79277e-08
-8.87597e-07
-2.08776e-07
-1.37474e-07
-9.26091e-08
1.09446e-07
-2.63538e-07
-4.34316e-07
-2.22933e-07
-6.00697e-08
-5.62889e-08
-6.73372e-08
-7.89165e-08
-4.81231e-07
-1.76425e-07
-1.22073e-07
-2.10996e-07
9.49939e-08
-3.84975e-07
-9.6145e-08
-3.69414e-07
-1.54438e-07
-1.15559e-08
-1.5311e-07
-5.66569e-08
-1.77689e-07
3.37973e-08
-3.26776e-07
9.60154e-08
-5.34458e-07
-2.67047e-07
-2.84223e-07
-2.52161e-07
-3.95191e-07
-4.42063e-07
-3.17985e-07
-1.34053e-07
-8.76487e-08
-2.67581e-07
-1.70651e-07
1.47668e-07
1.89822e-09
-3.67547e-09
-3.5268e-08
6.30653e-08
4.57923e-07
1.53153e-07
4.5151e-07
1.1846e-06
5.48039e-07
2.8943e-07
5.71197e-07
)
;

boundaryField
{
    inlet
    {
        type            extrapolatedCalculated;
        value           nonuniform List<scalar> 4(1.1846e-06 5.48039e-07 2.8943e-07 5.71197e-07);
    }
    outlet
    {
        type            extrapolatedCalculated;
        value           nonuniform List<scalar> 0();
    }
    walls
    {
        type            extrapolatedCalculated;
        value           nonuniform List<scalar> 
42
(
0.00185777
-0.00105603
0.000776899
-0.000453283
0.000490755
0.000261771
0.000510373
0.000413677
0.000206309
2.34032e-05
-2.089e-05
-6.74115e-05
-3.54184e-05
-4.7477e-05
-2.27326e-05
-4.3431e-05
-1.94078e-05
-4.89869e-05
3.88471e-08
-4.57831e-05
6.82269e-05
2.74845e-05
0.000314097
0.000344719
0.000378504
0.000287837
0.000340207
0.000284211
0.000352809
0.000325573
0.000288287
0.00115884
0.000319077
-0.000691707
-0.000488967
-0.00114091
0.00159639
2.85906e-06
0.000268666
0.000207151
-0.00143526
-0.000248438
)
;
    }
    frontAndBack
    {
        type            empty;
    }
    procBoundary5to0
    {
        type            processor;
        value           nonuniform List<scalar> 4(0.000257441 -0.000191788 3.29207e-05 -0.000321674);
    }
    procBoundary5to1
    {
        type            processor;
        value           nonuniform List<scalar> 
13
(
-0.000882472
-0.00116007
-0.00116007
-0.000204656
-0.000349085
-0.000349085
-4.98228e-05
-0.000265639
-0.000265639
9.18787e-05
-0.000147829
-0.000429905
-0.000429905
)
;
    }
    procBoundary5to4
    {
        type            processor;
        value           nonuniform List<scalar> 
95
(
0.000339188
0.000233315
0.000138956
0.000138956
5.94607e-05
1.41322e-05
1.41322e-05
3.71249e-05
-4.53834e-05
-4.53834e-05
-0.000138276
-0.000138276
-6.71892e-05
-6.71892e-05
-5.95497e-06
-2.47143e-05
-2.47143e-05
-8.55829e-06
-8.55829e-06
1.06487e-05
-6.85833e-06
-6.85833e-06
-1.08619e-05
-2.96508e-05
-2.96508e-05
-5.38936e-06
-4.92373e-05
-4.92373e-05
4.07981e-05
-1.21403e-05
2.77439e-05
2.77439e-05
7.49022e-05
-5.15913e-06
-2.46597e-05
-2.46597e-05
4.49698e-05
-1.30563e-05
-1.73152e-06
-1.73152e-06
5.17535e-05
-2.96854e-05
-1.58612e-05
-1.58612e-05
2.24139e-05
-1.45236e-05
3.88324e-05
-8.87641e-06
3.63663e-05
3.63663e-05
1.41298e-05
-4.05531e-06
1.60903e-05
-3.15303e-05
-3.18109e-05
-3.18109e-05
-3.46949e-06
-1.90917e-05
1.22749e-06
-1.37234e-05
-1.60087e-05
-1.60087e-05
-1.09969e-06
-9.39291e-06
-9.97404e-07
-6.37594e-06
2.81525e-06
-6.41483e-06
-7.6717e-06
-7.6717e-06
8.66185e-07
-3.45843e-06
8.91585e-07
-2.88883e-06
4.24326e-07
-1.94327e-06
-1.69179e-06
-1.09432e-06
-1.09432e-06
-1.07096e-06
3.79715e-07
-1.35508e-06
2.27091e-07
-1.08594e-06
-6.68479e-08
-6.89165e-07
-2.14003e-07
-4.10757e-07
-4.77876e-07
-4.77876e-07
-2.67977e-07
-7.92847e-09
-3.08073e-07
8.56833e-07
5.75035e-07
)
;
    }
    procBoundary5to6
    {
        type            processor;
        value           nonuniform List<scalar> 
86
(
0.00538299
0.00200707
0.00311546
0.00123639
0.00262393
0.000935709
0.0025302
0.000725433
0.00229914
0.000430846
0.002024
0.000187245
0.00172487
1.73759e-06
0.00146506
-0.000102432
0.00126304
-0.00016233
0.00105362
-0.000177815
0.000892848
-0.000138442
0.000696113
-9.90691e-05
0.000500847
-4.64213e-05
0.000293388
-1.4675e-05
0.000142945
-2.07775e-05
5.00825e-05
-1.72709e-05
-1.31478e-06
2.43378e-05
2.43378e-05
2.74089e-05
-1.23291e-05
3.79777e-05
-2.07377e-05
3.91683e-05
-2.54867e-05
3.57407e-05
-1.82892e-05
1.62179e-05
-1.58821e-05
8.61732e-06
-3.92835e-06
-3.92835e-06
-6.09617e-08
8.72014e-07
9.1288e-07
1.8445e-06
-8.88124e-07
2.23421e-06
-1.72154e-06
3.54577e-06
2.35637e-06
2.35637e-06
-3.31618e-06
9.68362e-07
-1.09581e-06
1.26673e-06
-1.62284e-06
2.01994e-06
1.34231e-06
1.34231e-06
6.49337e-07
2.62609e-07
8.93249e-07
-1.27041e-06
-2.1772e-07
-6.88928e-07
-6.64105e-07
-6.64105e-07
-2.59496e-07
1.4212e-08
-8.11169e-08
-2.93857e-08
-2.40851e-07
-1.40819e-07
-6.68335e-07
-5.59326e-07
-1.69038e-07
-1.69038e-07
3.37501e-07
8.17953e-07
)
;
    }
}


// ************************************************************************* //
