/*--------------------------------*- C++ -*----------------------------------*\
| =========                 |                                                 |
| \\      /  F ield         | OpenFOAM: The Open Source CFD Toolbox           |
|  \\    /   O peration     | Version:  2506                                  |
|   \\  /    A nd           | Website:  www.openfoam.com                      |
|    \\/     M anipulation  |                                                 |
\*---------------------------------------------------------------------------*/
FoamFile
{
    version     2.0;
    format      ascii;
    arch        "LSB;label=32;scalar=64";
    class       volVectorField;
    location    "100";
    object      momentError;
}
// * * * * * * * * * * * * * * * * * * * * * * * * * * * * * * * * * * * * * //

dimensions      [0 1 -2 0 0 0 0];

internalField   nonuniform List<vector> 
1340
(
(1.22257 -6.64646 -6.7535e-15)
(0.872209 -6.70139 4.74762e-15)
(0.225965 -5.84378 -1.83907e-14)
(-0.242999 -5.68684 2.2856e-14)
(-0.667547 -5.24937 4.18201e-14)
(-1.0303 -4.7765 -8.08252e-14)
(-1.35741 -4.30735 5.74674e-14)
(-1.56721 -3.76664 -7.85153e-14)
(-1.68413 -3.25194 -1.62457e-13)
(-1.73688 -2.77 2.35759e-13)
(-1.72198 -2.32873 8.83436e-14)
(-1.66661 -1.93704 -1.69151e-13)
(-1.59321 -1.62317 -2.53031e-13)
(-1.4331 -1.26008 -4.52012e-14)
(-1.31193 -1.00432 -1.11411e-13)
(-1.20073 -0.786479 -2.51393e-13)
(-1.08965 -0.602778 -1.21949e-13)
(-0.987972 -0.457152 6.92147e-13)
(-0.904428 -0.347395 3.6264e-13)
(-0.853607 -0.270679 -5.16012e-13)
(-0.847707 -0.225967 9.57673e-14)
(-0.892511 -0.205736 1.33026e-13)
(-0.970059 -0.196998 -5.31406e-14)
(-0.991358 -0.185144 -1.43852e-13)
(-0.937007 -0.1466 3.54388e-14)
(-0.904759 -0.0782332 -1.12879e-15)
(-0.84941 -0.0226641 3.50654e-14)
(-0.85453 0.0186801 -1.39763e-14)
(-0.902575 0.0537457 3.67223e-14)
(-0.948043 0.0824053 1.29563e-13)
(-1.20857 0.121961 2.84107e-14)
(-1.39686 0.152879 -1.03483e-13)
(-1.56275 0.185508 -3.62965e-15)
(-1.74922 0.232776 -1.46098e-13)
(-1.9625 0.279215 -1.88736e-13)
(1.34518 -5.95945 -1.6788e-14)
(1.4951 -4.71335 4.26512e-14)
(1.53736 -3.50268 -3.72667e-16)
(1.40087 -2.40082 4.49737e-14)
(1.06087 -1.24276 -4.96392e-14)
(0.281588 -0.0675926 -8.7413e-14)
(-0.0310799 0.158521 3.77904e-14)
(-0.268109 -4.93176 -1.86924e-14)
(-0.678795 -5.00556 -1.83621e-15)
(-1.09172 -4.41725 -5.9409e-15)
(-1.6267 -4.37762 9.18661e-16)
(-2.0414 -4.13159 8.48449e-15)
(-2.3638 -3.83553 2.53549e-14)
(-2.6849 -3.50402 6.15078e-14)
(-2.88224 -3.12141 5.54819e-14)
(-2.97318 -2.73001 -2.91241e-16)
(-3.01156 -2.34592 1.25912e-13)
(-2.96637 -1.98708 -1.51356e-13)
(-2.87644 -1.66843 -7.98815e-14)
(-2.74489 -1.37025 3.32969e-13)
(-2.66312 -1.22993 9.94577e-14)
(-2.55837 -1.04798 -9.25437e-14)
(-2.42792 -0.870298 -1.10902e-14)
(-2.32259 -0.70664 2.74303e-13)
(-2.20985 -0.5585 -1.44115e-13)
(-2.10273 -0.419686 -3.96143e-13)
(-2.00686 -0.280172 1.56882e-13)
(-1.94251 -0.14594 1.95806e-13)
(-1.96117 -0.0164205 3.57334e-14)
(-2.05595 0.0615356 -9.14707e-14)
(-2.24834 0.0653876 1.61182e-13)
(-2.28714 0.0986978 -3.46853e-14)
(-2.11958 0.0796533 -5.8919e-14)
(-2.03867 0.0660202 -2.57985e-14)
(-1.98824 0.0742924 4.61193e-15)
(-1.8899 0.110463 -1.31774e-14)
(-1.77632 0.164278 -1.61221e-14)
(-1.55794 0.221187 -1.90481e-14)
(-1.58691 0.281303 3.02041e-14)
(-1.80619 0.343713 -1.40442e-13)
(-2.17596 0.425544 -1.79815e-13)
(-2.77016 0.528945 1.13244e-13)
(0.0235189 -4.56064 -1.57567e-15)
(0.390997 -3.74285 1.66081e-13)
(0.671535 -2.83093 -1.59624e-14)
(0.788023 -2.03012 -1.55194e-13)
(0.765569 -1.20401 -1.76981e-15)
(0.446313 -0.449358 9.13068e-14)
(0.293154 -4.17788 -1.00962e-14)
(0.0283639 -4.23093 8.68445e-15)
(-0.284466 -3.76916 8.70436e-15)
(-0.653817 -3.84712 -4.90117e-15)
(-0.950763 -3.72413 8.08788e-16)
(-1.23524 -3.52237 -2.15313e-15)
(-1.51859 -3.31709 -5.56121e-14)
(-1.72312 -3.0475 -5.07898e-14)
(-1.86031 -2.73342 -7.74302e-14)
(-1.9549 -2.41843 1.08282e-14)
(-1.98215 -2.10244 1.76173e-13)
(-1.96634 -1.80201 5.62129e-14)
(-1.91699 -1.52896 -7.94483e-14)
(-1.84329 -1.27636 -1.83287e-13)
(-1.75157 -1.04673 8.84262e-14)
(-1.66932 -0.840092 1.14968e-13)
(-1.60457 -0.682614 -7.71904e-14)
(-1.53429 -0.555456 -1.47754e-13)
(-1.46536 -0.44418 2.59567e-13)
(-1.38858 -0.338703 -8.0097e-14)
(-1.30079 -0.23028 -1.08144e-13)
(-1.15866 -0.111569 1.58752e-13)
(-0.995276 0.0454679 4.82816e-14)
(-0.789278 0.190309 -1.10719e-15)
(-0.866075 0.137961 -2.76134e-14)
(-0.93183 0.0935832 3.00612e-15)
(-1.06366 0.0526179 -2.51008e-14)
(-1.29976 0.060968 1.71518e-14)
(-1.62751 0.110204 -2.7852e-14)
(-2.03591 0.175591 -6.08936e-14)
(-2.41841 0.250746 5.73014e-14)
(-2.60813 0.341866 2.26302e-14)
(-2.70375 0.459054 -1.00478e-13)
(-2.9874 0.608836 6.745e-14)
(-3.57781 0.754371 7.06985e-15)
(0.491777 -3.87636 3.9794e-14)
(0.633643 -3.22602 -3.64605e-14)
(0.730403 -2.4657 -1.25685e-13)
(0.74741 -1.83875 4.669e-14)
(0.669582 -1.21143 -1.99933e-14)
(0.493998 -0.700215 -5.73446e-14)
(0.00315893 -3.48302 1.0262e-14)
(-0.263484 -3.51923 -4.84478e-15)
(-0.529721 -3.17088 6.33358e-15)
(-0.880594 -3.25386 -8.07716e-15)
(-1.14905 -3.14365 -1.5614e-14)
(-1.40798 -2.97612 8.8209e-15)
(-1.67228 -2.80969 3.07382e-14)
(-1.86315 -2.57651 3.37769e-14)
(-1.99926 -2.30539 -8.25237e-14)
(-2.09926 -2.03352 -7.47894e-14)
(-2.13277 -1.75646 9.0334e-14)
(-2.1242 -1.49199 1.82487e-13)
(-2.07947 -1.2479 1.04506e-13)
(-2.0064 -1.029 -3.54253e-13)
(-1.91017 -0.841353 -1.26812e-13)
(-1.80605 -0.681956 2.99712e-13)
(-1.71139 -0.548641 7.27871e-14)
(-1.65098 -0.42607 -1.03726e-13)
(-1.58655 -0.315097 -1.91714e-13)
(-1.51998 -0.208215 1.68277e-13)
(-1.45177 -0.103525 3.74131e-14)
(-1.36067 0.0112652 -1.91828e-13)
(-1.21433 0.117475 1.40262e-13)
(-1.02584 0.180243 -9.26869e-14)
(-0.702846 0.228195 -3.15078e-14)
(-0.527929 0.190053 2.8834e-14)
(-0.446211 0.147845 -3.69818e-14)
(-0.432509 0.150938 8.32119e-15)
(-0.495624 0.18851 1.09782e-14)
(-0.639228 0.224646 1.75994e-14)
(-0.983848 0.269285 -5.71077e-15)
(-1.82406 0.383912 1.9444e-14)
(-2.81866 0.525469 1.57952e-13)
(-3.67112 0.733495 3.8069e-14)
(-4.40555 0.962693 -4.82083e-14)
(0.223843 -3.23728 2.2306e-14)
(0.402533 -2.75473 -3.9368e-14)
(0.539039 -2.15513 -1.27735e-14)
(0.609646 -1.67342 -2.22135e-14)
(0.58892 -1.1901 2.13838e-14)
(0.0383286 -3.00187 -4.59631e-15)
(-0.176601 -3.03112 9.73762e-15)
(-0.39082 -2.76302 -5.95199e-15)
(-0.682629 -2.86641 6.95703e-15)
(-0.902089 -2.79051 4.33593e-15)
(-1.11702 -2.66488 1.12152e-14)
(-1.34585 -2.55586 -7.06588e-15)
(-1.51103 -2.37918 -2.83513e-14)
(-1.63947 -2.16827 -3.63041e-14)
(-1.73901 -1.95277 -7.76933e-14)
(-1.78405 -1.72297 1.42483e-14)
(-1.79442 -1.49571 -9.85215e-14)
(-1.77348 -1.28029 7.29148e-15)
(-1.72313 -1.08012 2.59705e-13)
(-1.65403 -0.89904 -1.73421e-13)
(-1.57288 -0.735458 -1.32347e-13)
(-1.48609 -0.586793 7.58524e-14)
(-1.43322 -0.470001 -1.02836e-13)
(-1.38414 -0.371672 7.14465e-14)
(-1.33158 -0.2808 -1.2397e-13)
(-1.28145 -0.193841 -1.31034e-13)
(-1.22658 -0.108918 1.51079e-13)
(-1.15751 -0.0274427 -3.37415e-14)
(-1.04463 0.0384012 7.38302e-14)
(-0.886843 0.0698211 4.70027e-14)
(-0.7426 0.0684823 4.90333e-15)
(-0.648219 0.0637853 8.80665e-14)
(-0.561492 0.0798857 -1.69703e-14)
(-0.438614 0.114009 1.76844e-14)
(-0.300155 0.166599 -4.46389e-14)
(-0.166719 0.219605 -1.22285e-13)
(-0.181837 0.284144 6.45105e-15)
(-0.670702 0.421894 1.0665e-13)
(-2.14869 0.669886 -2.13961e-14)
(-4.23865 1.03382 -7.55132e-14)
(0.215988 -2.78779 2.2911e-14)
(0.353461 -2.40197 1.92555e-14)
(0.460274 -1.90977 -3.09067e-14)
(0.521546 -1.52604 7.67928e-14)
(0.519965 -1.13916 1.73981e-13)
(-0.0200181 -2.59959 1.26214e-15)
(-0.216212 -2.62189 2.29821e-15)
(-0.404212 -2.40523 3.89873e-15)
(-0.666788 -2.50194 -5.83742e-16)
(-0.862658 -2.44339 -6.10749e-16)
(-1.05375 -2.33456 -4.47977e-15)
(-1.26171 -2.24366 2.61585e-15)
(-1.41428 -2.09434 2.16202e-14)
(-1.53759 -1.91663 3.41588e-14)
(-1.63777 -1.7326 -1.85501e-14)
(-1.68932 -1.5314 -6.92392e-15)
(-1.70987 -1.3285 5.35543e-14)
(-1.70295 -1.13362 -9.98855e-14)
(-1.66507 -0.94845 -2.06069e-13)
(-1.60777 -0.778731 1.30306e-13)
(-1.536 -0.626542 2.03446e-13)
(-1.45217 -0.492 -2.71986e-13)
(-1.39559 -0.374469 4.81201e-14)
(-1.36399 -0.275254 9.27677e-14)
(-1.32214 -0.183955 -8.88854e-14)
(-1.27655 -0.0964187 6.79905e-14)
(-1.22079 -0.0128914 -6.94794e-14)
(-1.15261 0.0611926 -1.43467e-13)
(-1.06513 0.114047 -4.08435e-14)
(-0.958733 0.133865 -9.58348e-14)
(-0.863201 0.126338 4.6722e-14)
(-0.805994 0.115216 -1.31633e-14)
(-0.770879 0.123207 -8.81969e-15)
(-0.731477 0.150947 1.75361e-14)
(-0.670671 0.188212 3.16715e-14)
(-0.572972 0.236457 2.38536e-14)
(-0.267867 0.276713 -3.70143e-14)
(0.131245 0.366205 -8.3899e-14)
(0.294297 0.52029 -1.07434e-13)
(-1.49673 0.854691 3.34198e-14)
(0.143996 -2.41746 1.0467e-14)
(0.273984 -2.10738 -2.55129e-14)
(0.377693 -1.70324 1.24753e-14)
(0.441948 -1.38931 -2.87997e-14)
(-0.0404389 -2.27521 3.71601e-15)
(-0.21152 -2.30022 1.05945e-15)
(-0.375702 -2.12731 -5.10723e-15)
(-0.606727 -2.21586 -2.13312e-15)
(-0.774395 -2.1733 6.62575e-15)
(-0.941705 -2.09183 6.79922e-15)
(-1.12835 -2.02352 7.99385e-15)
(-1.26457 -1.89533 -3.72743e-15)
(-1.37653 -1.74483 -1.731e-14)
(-1.47024 -1.59171 2.0659e-14)
(-1.52097 -1.4218 -4.42615e-14)
(-1.54563 -1.24815 -1.02415e-13)
(-1.54678 -1.07826 7.04309e-14)
(-1.51978 -0.912974 2.72475e-13)
(-1.47474 -0.758369 -2.00117e-14)
(-1.41505 -0.617523 -3.00586e-13)
(-1.34296 -0.489527 2.51474e-13)
(-1.27219 -0.378891 1.80857e-13)
(-1.25031 -0.291451 1.04443e-13)
(-1.21734 -0.212766 4.93695e-14)
(-1.18131 -0.135723 -2.50255e-14)
(-1.13612 -0.0595899 1.36506e-13)
(-1.07871 0.0129833 9.57824e-14)
(-1.00357 0.0715853 -9.47739e-15)
(-0.913593 0.102018 1.76544e-13)
(-0.836188 0.106014 -5.4047e-14)
(-0.794687 0.103975 -6.25229e-15)
(-0.78409 0.117394 4.50685e-15)
(-0.786016 0.148555 -1.57316e-14)
(-0.788805 0.187776 -1.57718e-14)
(-0.777507 0.232779 -1.08607e-14)
(-0.732874 0.285582 3.21317e-14)
(-0.564185 0.360957 -2.32322e-14)
(0.18144 0.499051 -9.18547e-14)
(1.02202 0.679429 -1.6247e-14)
(0.103625 -2.11924 -1.03375e-14)
(0.220113 -1.86514 1.21106e-14)
(0.316084 -1.52681 -2.23312e-14)
(0.379769 -1.26316 -5.02123e-15)
(-0.065645 -2.00198 2.09214e-15)
(-0.217978 -2.03583 3.8278e-15)
(-0.362887 -1.89742 1.06529e-15)
(-0.572539 -1.96994 -4.88522e-15)
(-0.723088 -1.93672 2.63862e-15)
(-0.867626 -1.87241 -6.23313e-16)
(-1.03474 -1.82105 5.02996e-16)
(-1.16253 -1.71236 -2.507e-14)
(-1.27083 -1.58002 1.29287e-14)
(-1.36214 -1.44304 6.42768e-14)
(-1.41259 -1.29026 3.28821e-14)
(-1.43964 -1.13478 2.24891e-14)
(-1.44549 -0.981937 -1.34192e-13)
(-1.42584 -0.831579 -3.10841e-13)
(-1.38999 -0.68917 -2.22096e-13)
(-1.3392 -0.55752 8.87854e-14)
(-1.27599 -0.437454 -5.61731e-14)
(-1.2049 -0.330662 -2.96771e-13)
(-1.1848 -0.239419 -1.62877e-13)
(-1.16334 -0.161018 1.30419e-13)
(-1.13525 -0.0877523 1.34181e-13)
(-1.09635 -0.0183512 -8.26304e-14)
(-1.04514 0.0449228 -3.11978e-14)
(-0.976582 0.0949785 1.95995e-16)
(-0.892432 0.122363 -5.03199e-14)
(-0.816374 0.128787 5.17051e-14)
(-0.770429 0.129939 5.87542e-15)
(-0.752399 0.143175 3.42781e-15)
(-0.749015 0.172409 -3.60336e-15)
(-0.754295 0.210672 4.10621e-14)
(-0.779397 0.257071 2.73116e-14)
(-0.810344 0.314838 2.42769e-15)
(-0.893217 0.386842 7.90899e-14)
(-0.869619 0.523857 5.24106e-14)
(0.681061 0.686244 -2.41047e-14)
(0.0649469 -1.86912 8.06752e-15)
(0.172276 -1.65685 -1.22438e-14)
(0.263165 -1.37215 -1.77523e-15)
(0.325945 -1.14977 7.21801e-14)
(-0.0840156 -1.77105 3.15873e-15)
(-0.221927 -1.85706 6.49397e-15)
(-0.347371 -1.69897 -4.77585e-16)
(-0.535348 -1.76175 -8.63593e-15)
(-0.680136 -1.75683 -6.77094e-15)
(-0.80159 -1.66967 3.52476e-15)
(-0.948048 -1.63929 4.16908e-16)
(-1.06077 -1.55468 -2.27213e-14)
(-1.16076 -1.4426 2.68817e-16)
(-1.25266 -1.32552 6.97512e-15)
(-1.30499 -1.18715 -1.48183e-14)
(-1.33414 -1.04617 9.62561e-14)
(-1.34282 -0.908537 1.005e-13)
(-1.32705 -0.77305 2.63832e-14)
(-1.29662 -0.644207 2.04648e-13)
(-1.25267 -0.523934 -4.41315e-14)
(-1.19696 -0.413195 1.31503e-15)
(-1.13351 -0.313111 1.67626e-13)
(-1.09951 -0.23057 8.14723e-14)
(-1.08738 -0.159779 -2.66165e-14)
(-1.0672 -0.0936065 -1.003e-13)
(-1.0368 -0.0293359 -7.53113e-15)
(-0.995796 0.0311946 -7.72256e-14)
(-0.939982 0.0819496 -6.58107e-14)
(-0.868381 0.114208 3.98856e-14)
(-0.799991 0.128327 -2.52714e-14)
(-0.754629 0.136446 -4.58621e-14)
(-0.731476 0.152987 5.37082e-15)
(-0.720621 0.182973 -2.35705e-15)
(-0.714129 0.222541 -1.0106e-15)
(-0.72172 0.269038 6.24751e-14)
(-0.75048 0.332983 -2.00661e-14)
(-0.777032 0.411042 -2.03751e-14)
(-1.13338 0.527058 1.55415e-13)
(-0.769242 0.741048 2.22146e-14)
(0.0352517 -1.65658 -1.51551e-14)
(0.134108 -1.47744 -3.81803e-14)
(0.21929 -1.23697 5.74064e-14)
(-0.623902 -1.53146 -5.06615e-15)
(-0.753541 -1.52381 -3.91488e-15)
(-0.886703 -1.47551 8.96121e-15)
(-0.978899 -1.39072 4.26096e-15)
(-1.06851 -1.30553 5.68085e-15)
(-1.15445 -1.21446 -1.54465e-15)
(-1.20894 -1.09315 9.06875e-15)
(-1.24363 -0.962353 -2.50016e-14)
(-1.25749 -0.834108 -9.15435e-14)
(-1.24613 -0.708922 2.6254e-14)
(-1.22026 -0.590711 1.28556e-14)
(-1.18079 -0.479959 3.86603e-14)
(-1.13079 -0.37729 -1.24234e-15)
(-1.0731 -0.284018 -7.07428e-14)
(-1.02805 -0.202086 -1.10084e-13)
(-1.02548 -0.132789 -9.60225e-14)
(-1.01213 -0.0703703 -5.72902e-14)
(-0.988619 -0.0111167 -4.60843e-14)
(-0.954761 0.043602 1.6645e-14)
(-0.908067 0.0896539 5.50667e-14)
(-0.846408 0.120623 -2.94901e-14)
(-0.785628 0.137013 -1.13791e-14)
(-0.743138 0.148097 3.60644e-14)
(-0.719117 0.165598 1.71927e-15)
(-0.705821 0.194489 1.91957e-14)
(-0.695998 0.233189 -2.51685e-14)
(-0.688195 0.279247 -7.67354e-14)
(-0.709997 0.340561 -4.68353e-14)
(-0.673176 0.433634 3.03991e-14)
(-0.830328 0.527908 -3.52958e-15)
(-1.42564 0.743541 9.29333e-15)
(-0.806403 -1.2918 3.05141e-15)
(-0.91832 -1.27682 -1.06841e-14)
(-0.994881 -1.1771 -2.9013e-14)
(-1.06723 -1.09885 1.66332e-14)
(-1.11542 -1.00579 1.06495e-14)
(-1.15313 -0.89115 1.27784e-14)
(-1.17402 -0.770398 4.52074e-14)
(-1.16934 -0.65312 -4.12492e-16)
(-1.14832 -0.543931 2.5229e-14)
(-1.1126 -0.442195 -3.68355e-14)
(-1.06678 -0.347827 -4.19154e-14)
(-1.01405 -0.261272 4.86819e-14)
(-0.959605 -0.184285 1.00097e-13)
(-0.961351 -0.119692 5.35828e-14)
(-0.954232 -0.0622259 3.87469e-14)
(-0.937637 -0.00708232 2.73031e-14)
(-0.911163 0.044585 5.12191e-14)
(-0.873291 0.0892271 -2.92837e-14)
(-0.821004 0.12131 -4.6492e-14)
(-0.767475 0.141225 3.04011e-15)
(-0.728508 0.156326 -1.60729e-14)
(-0.705354 0.176055 -5.47733e-15)
(-0.691769 0.205192 -3.29262e-14)
(-0.683588 0.243236 1.69858e-14)
(-0.672277 0.290642 4.3566e-14)
(-0.68508 0.347372 9.6065e-14)
(-0.672912 0.446806 5.74555e-15)
(-0.569512 0.545713 -8.27196e-14)
(-1.2155 0.712045 5.81278e-15)
(-0.90759 -1.03631 -4.09771e-14)
(-1.0165 -1.02205 -4.2143e-14)
(-1.03443 -0.907843 -5.83713e-15)
(-1.06883 -0.821863 -2.06711e-14)
(-1.09254 -0.711765 4.90146e-14)
(-1.09563 -0.600611 -2.26703e-14)
(-1.08136 -0.498408 -1.05925e-13)
(-1.05044 -0.404002 7.28139e-14)
(-1.00815 -0.316827 8.11342e-14)
(-0.959541 -0.236884 -3.26952e-15)
(-0.904512 -0.164739 -1.22818e-13)
(-0.900873 -0.102625 -1.05831e-13)
(-0.900135 -0.0478996 5.41839e-14)
(-0.889694 0.00360789 8.82312e-14)
(-0.869793 0.0517558 -3.22753e-14)
(-0.839442 0.0937713 -1.16508e-14)
(-0.795055 0.125353 -8.93877e-15)
(-0.747619 0.147042 5.87324e-16)
(-0.711686 0.164856 -8.32007e-15)
(-0.689262 0.186143 3.32419e-15)
(-0.675378 0.215595 4.94904e-15)
(-0.667698 0.252893 -2.05297e-14)
(-0.65931 0.301186 -1.20287e-14)
(-0.658621 0.357063 -1.96987e-14)
(-0.687655 0.449764 -1.31892e-13)
(-0.525433 0.570468 -6.26726e-15)
(-0.773058 0.688498 3.8037e-14)
(-0.908059 -0.871179 -7.13105e-14)
(-0.990533 -0.844521 2.22776e-14)
(-0.992566 -0.74226 7.47018e-14)
(-1.01279 -0.657255 -5.41221e-14)
(-1.02243 -0.554398 -4.45977e-14)
(-1.01639 -0.457354 6.35287e-14)
(-0.991032 -0.36911 -1.1187e-13)
(-0.952532 -0.288121 1.02615e-14)
(-0.907383 -0.214317 1.6312e-13)
(-0.856385 -0.147492 6.7243e-14)
(-0.841618 -0.0892867 1.1821e-13)
(-0.846816 -0.0372857 -2.70156e-14)
(-0.842017 0.0110953 -8.17246e-14)
(-0.828358 0.0567308 1.81825e-14)
(-0.805042 0.0972311 4.17858e-14)
(-0.767858 0.128858 3.30008e-14)
(-0.726079 0.152197 2.12046e-15)
(-0.693103 0.172416 1.83704e-14)
(-0.671447 0.195282 -3.32364e-15)
(-0.657456 0.225365 1.1678e-14)
(-0.648566 0.262584 1.02307e-14)
(-0.643297 0.310544 -8.99939e-18)
(-0.63305 0.368925 -5.85097e-14)
(-0.667257 0.450284 5.95028e-15)
(-0.582392 0.585463 1.04089e-13)
(-0.491668 0.690017 6.49204e-14)
(-0.894569 -0.727977 3.64472e-15)
(-0.946502 -0.686803 -1.22682e-15)
(-0.940305 -0.595567 3.38152e-14)
(-0.950873 -0.511036 -1.90282e-14)
(-0.950717 -0.419308 4.48662e-14)
(-0.932133 -0.335787 1.7372e-13)
(-0.898841 -0.260188 -5.5578e-14)
(-0.857771 -0.19175 -4.80012e-14)
(-0.810626 -0.129902 1.74641e-14)
(-0.785321 -0.075252 -2.92342e-14)
(-0.795431 -0.0257552 1.46033e-14)
(-0.795405 0.0198432 1.21893e-14)
(-0.78735 0.0630678 -2.24885e-14)
(-0.770438 0.102035 -1.19838e-14)
(-0.739718 0.133352 -2.28984e-14)
(-0.703082 0.157678 2.66671e-15)
(-0.673007 0.179627 2.58637e-15)
(-0.652228 0.203824 1.36022e-15)
(-0.638364 0.234421 -1.19295e-15)
(-0.62813 0.27204 -1.33663e-14)
(-0.623422 0.318951 4.38608e-15)
(-0.611753 0.379783 5.46978e-14)
(-0.623942 0.454141 5.87777e-14)
(-0.620933 0.585544 -1.17011e-13)
(-0.412229 0.708375 -1.56949e-13)
(-0.819136 -0.649642 2.80569e-14)
(-0.88385 -0.616715 1.47433e-14)
(-0.878266 -0.530991 -1.10248e-14)
(-0.884927 -0.465387 1.53518e-14)
(-0.885187 -0.385292 3.9031e-15)
(-0.87336 -0.306488 -3.05978e-14)
(-0.847324 -0.23491 4.73309e-14)
(-0.811369 -0.170889 -1.22193e-13)
(-0.768012 -0.113412 -1.69023e-13)
(-0.733216 -0.0624305 -7.08441e-14)
(-0.747181 -0.0154419 1.22334e-14)
(-0.750843 0.0275898 8.3148e-15)
(-0.74752 0.0688523 2.1423e-14)
(-0.73608 0.106805 3.71819e-14)
(-0.711032 0.138047 -1.83931e-14)
(-0.67892 0.163154 -1.61485e-14)
(-0.651626 0.186452 5.73131e-16)
(-0.631794 0.211738 -5.55633e-15)
(-0.618101 0.242671 4.12378e-15)
(-0.607207 0.280708 4.23521e-14)
(-0.600814 0.32672 3.60836e-14)
(-0.592177 0.387891 -1.19972e-14)
(-0.581425 0.461246 -9.86522e-15)
(-0.609482 0.577181 6.63594e-14)
(-0.432979 0.7261 1.29514e-13)
(-0.792304 -0.524978 5.01903e-15)
(-0.844832 -0.493559 -7.7053e-15)
(-0.825406 -0.417052 2.37208e-14)
(-0.823145 -0.352571 -4.27015e-15)
(-0.81657 -0.279699 -1.18606e-13)
(-0.797886 -0.211563 -3.87313e-14)
(-0.767342 -0.15131 1.47229e-13)
(-0.727921 -0.0975636 4.05619e-15)
(-0.687754 -0.0501389 4.34794e-14)
(-0.701367 -0.00569567 9.23967e-15)
(-0.70834 0.034992 6.59011e-14)
(-0.709194 0.0744363 1.24686e-14)
(-0.702508 0.111519 -9.2163e-15)
(-0.682374 0.142744 5.05729e-16)
(-0.654214 0.168508 1.89562e-14)
(-0.629329 0.192864 -6.47409e-15)
(-0.610383 0.218994 4.99266e-15)
(-0.596686 0.250112 -1.3267e-15)
(-0.585622 0.28828 -1.14301e-14)
(-0.576856 0.333839 -3.4451e-14)
(-0.57058 0.393441 -3.2793e-14)
(-0.54836 0.468481 -4.02409e-15)
(-0.566843 0.568144 2.2513e-14)
(-0.466681 0.73127 -4.59048e-14)
(-0.765645 -0.422425 6.32421e-16)
(-0.791411 -0.384167 1.35579e-14)
(-0.767227 -0.315968 -1.87266e-14)
(-0.761803 -0.254269 2.36169e-15)
(-0.748411 -0.189618 -2.67074e-14)
(-0.723425 -0.132339 -8.43782e-14)
(-0.688576 -0.0820422 6.69423e-14)
(-0.649402 -0.0379847 -2.3632e-14)
(-0.656492 0.00363053 -4.86365e-14)
(-0.666562 0.0424414 -7.63684e-14)
(-0.670955 0.0801121 -2.53921e-14)
(-0.668645 0.116308 -2.87839e-14)
(-0.653048 0.147397 3.2298e-14)
(-0.628601 0.173641 8.42438e-15)
(-0.606022 0.198806 -1.60024e-14)
(-0.588035 0.225574 4.98082e-15)
(-0.574266 0.256752 1.74942e-14)
(-0.563064 0.294702 -2.50957e-14)
(-0.552317 0.340077 -3.12509e-14)
(-0.545722 0.397451 1.79191e-14)
(-0.521795 0.47357 1.43684e-14)
(-0.516431 0.562093 -1.35405e-14)
(-0.477875 0.722457 -3.40101e-14)
(-0.704634 -0.374641 -1.56706e-14)
(-0.740968 -0.341953 -2.24397e-14)
(-0.718631 -0.278682 3.9392e-14)
(-0.710107 -0.226822 2.51145e-14)
(-0.699022 -0.16923 1.57221e-14)
(-0.679726 -0.115275 7.20892e-14)
(-0.650394 -0.0677821 -4.26802e-14)
(-0.615191 -0.0264866 6.91146e-14)
(-0.614129 0.0122146 6.23062e-15)
(-0.626815 0.0495338 1.01826e-14)
(-0.633878 0.0856156 8.83313e-14)
(-0.635147 0.120971 1.91481e-14)
(-0.623481 0.151883 -3.53447e-14)
(-0.602317 0.178446 -2.41636e-14)
(-0.581888 0.204231 2.92134e-15)
(-0.564875 0.23146 -2.90835e-15)
(-0.551014 0.262591 -4.78283e-15)
(-0.539487 0.300089 1.07903e-14)
(-0.527413 0.345205 3.15925e-14)
(-0.518428 0.400468 1.43193e-14)
(-0.496532 0.475808 2.59358e-14)
(-0.469827 0.55851 3.12919e-15)
(-0.46386 0.704425 3.4981e-15)
(-0.672013 -0.289083 -2.82078e-14)
(-0.689325 -0.254634 -2.25988e-14)
(-0.661635 -0.199635 3.16635e-15)
(-0.6521 -0.150358 -4.87906e-14)
(-0.637445 -0.0996478 -6.88245e-14)
(-0.61318 -0.0546048 1.49756e-14)
(-0.581992 -0.0156753 -1.612e-14)
(-0.574162 0.0203748 4.62909e-14)
(-0.588923 0.0563083 -4.61292e-14)
(-0.597972 0.090879 -7.38432e-14)
(-0.602178 0.125405 -1.35455e-14)
(-0.593876 0.156071 2.10557e-14)
(-0.575612 0.182804 1.37699e-14)
(-0.557153 0.209037 1.07371e-14)
(-0.541096 0.236596 -3.23469e-16)
(-0.527199 0.267603 -1.10087e-15)
(-0.515143 0.304498 -1.14634e-15)
(-0.502151 0.349105 -9.98849e-15)
(-0.490058 0.402607 -1.08944e-14)
(-0.469963 0.475559 -1.11995e-15)
(-0.429435 0.555517 5.20334e-15)
(-0.432371 0.68261 2.21565e-14)
(-0.618943 -0.253709 -7.23354e-14)
(-0.645401 -0.223229 -3.54921e-14)
(-0.620413 -0.172234 1.2169e-14)
(-0.608144 -0.130232 -1.32714e-14)
(-0.594927 -0.0849537 3.83867e-14)
(-0.57549 -0.0425894 6.43681e-14)
(-0.549043 -0.00558211 -1.35666e-14)
(-0.536044 0.0280056 -3.64441e-14)
(-0.552661 0.0627798 4.14243e-14)
(-0.563259 0.0959529 -3.16769e-14)
(-0.56992 0.129606 3.53311e-14)
(-0.564438 0.159878 -1.74086e-15)
(-0.5487 0.1866 1.97896e-15)
(-0.532028 0.213118 -3.31858e-15)
(-0.516845 0.240895 -7.70581e-16)
(-0.50295 0.271726 2.04716e-15)
(-0.490241 0.307956 1.63335e-15)
(-0.476468 0.351743 3.54155e-15)
(-0.461443 0.403702 9.74477e-15)
(-0.441626 0.473266 -2.70227e-14)
(-0.393995 0.551477 -2.70387e-14)
(-0.391584 0.660473 2.21846e-14)
(-0.585335 -0.185346 -5.1256e-14)
(-0.595351 -0.154388 4.19202e-14)
(-0.566529 -0.110084 3.4616e-14)
(-0.554438 -0.0708736 -1.3278e-14)
(-0.539132 -0.0312605 -4.33542e-15)
(-0.51703 0.00384295 -6.49698e-15)
(-0.499981 0.0349927 -5.93589e-14)
(-0.518202 0.0688107 9.18579e-15)
(-0.529876 0.100786 8.04968e-14)
(-0.538484 0.133566 -2.72464e-14)
(-0.535325 0.163348 -9.27464e-15)
(-0.521739 0.189878 -2.49599e-14)
(-0.506673 0.21649 5.04638e-15)
(-0.49225 0.244332 -2.29583e-15)
(-0.478403 0.274927 -9.58021e-15)
(-0.464996 0.310426 -1.40671e-14)
(-0.450396 0.353121 -4.18873e-15)
(-0.432938 0.403575 1.12542e-14)
(-0.412109 0.469271 3.64388e-14)
(-0.361844 0.545477 2.24069e-14)
(-0.347513 0.639238 -2.58438e-14)
(-0.539582 -0.159487 7.11952e-14)
(-0.556859 -0.131606 3.03425e-14)
(-0.531651 -0.0906139 -3.80652e-14)
(-0.517299 -0.0563029 -1.89321e-15)
(-0.502877 -0.0206635 2.85626e-14)
(-0.484647 0.0123545 -2.19201e-14)
(-0.465045 0.0412875 6.08343e-14)
(-0.484768 0.0742846 5.93663e-14)
(-0.497416 0.105207 -2.01195e-14)
(-0.507605 0.137103 9.12573e-15)
(-0.506437 0.166362 1.41004e-14)
(-0.494707 0.192557 2.17422e-14)
(-0.481079 0.219099 2.98083e-16)
(-0.46738 0.24689 -4.71017e-15)
(-0.453606 0.277186 6.01005e-15)
(-0.439566 0.31192 1.24328e-14)
(-0.424046 0.353289 -1.03393e-14)
(-0.404635 0.40208 -1.8154e-14)
(-0.382011 0.463751 -3.80445e-14)
(-0.331674 0.537177 -4.18634e-14)
(-0.304223 0.618964 6.0466e-15)
(-0.505529 -0.105084 2.05749e-14)
(-0.509523 -0.0779803 4.23233e-14)
(-0.480869 -0.0420211 9.92217e-15)
(-0.468297 -0.0104957 6.46577e-15)
(-0.454144 0.0203934 -2.27296e-14)
(-0.435348 0.0472834 -4.22913e-14)
(-0.45312 0.0789215 -2.45757e-14)
(-0.466779 0.109041 -2.25251e-14)
(-0.478027 0.140053 -2.67312e-14)
(-0.478338 0.168744 -1.98765e-14)
(-0.468091 0.194503 -1.43607e-14)
(-0.455595 0.220822 -3.82471e-16)
(-0.442549 0.248503 8.16574e-15)
(-0.428761 0.278414 -2.13639e-15)
(-0.414133 0.31235 -2.35485e-15)
(-0.397605 0.352213 1.15273e-14)
(-0.376698 0.399228 -7.91216e-15)
(-0.351977 0.45688 -5.07712e-14)
(-0.302684 0.526563 -2.95456e-14)
(-0.263991 0.59912 -5.82687e-16)
(-0.469193 -0.0871077 6.03337e-15)
(-0.474227 -0.0612557 -1.23931e-14)
(-0.44891 -0.0283093 2.04646e-15)
(-0.437057 1.35941e-05 -1.08467e-14)
(-0.424281 0.0280008 3.73154e-14)
(-0.407921 0.053096 2.22986e-14)
(-0.421452 0.0828026 -2.81759e-14)
(-0.436206 0.112414 4.81561e-15)
(-0.448387 0.142693 1.93384e-14)
(-0.450018 0.170709 -1.63722e-15)
(-0.441181 0.195847 7.86117e-15)
(-0.429785 0.221732 2.30871e-15)
(-0.41745 0.249151 -3.62902e-15)
(-0.403751 0.278584 -1.55686e-15)
(-0.388608 0.311619 -2.34412e-15)
(-0.371233 0.349976 -9.05715e-15)
(-0.349085 0.394912 -3.49622e-15)
(-0.322354 0.448663 3.12076e-14)
(-0.274393 0.513858 4.58506e-14)
(-0.227755 0.579149 5.07967e-15)
(-0.432406 -0.0696082 6.40422e-15)
(-0.442375 -0.0460548 -1.13317e-14)
(-0.419864 -0.0157517 -1.02415e-14)
(-0.406461 0.00971814 -2.26995e-14)
(-0.394343 0.0350527 6.69012e-15)
(-0.380773 0.0584397 -2.22289e-14)
(-0.391032 0.0861935 2.60686e-14)
(-0.406844 0.115335 1.9023e-14)
(-0.419654 0.144964 -8.4568e-15)
(-0.422219 0.172304 3.12495e-15)
(-0.414372 0.196699 -2.99983e-15)
(-0.403862 0.222009 -3.08353e-15)
(-0.392136 0.24897 5.486e-16)
(-0.378594 0.277779 3.44645e-15)
(-0.363116 0.309828 6.35655e-15)
(-0.345002 0.346552 1.33992e-14)
(-0.321903 0.389206 2.52886e-15)
(-0.293508 0.439236 1.97993e-14)
(-0.246665 0.499322 1.4935e-15)
(-0.195377 0.558601 -2.59444e-14)
(-0.400548 -0.0297473 -7.55651e-14)
(-0.401337 -0.00710297 -2.4341e-14)
(-0.376916 0.0190097 -1.27137e-14)
(-0.365885 0.0417021 2.29611e-15)
(-0.355176 0.0632928 2.4685e-14)
(-0.362875 0.0888872 -1.17358e-14)
(-0.379493 0.117429 -2.88152e-14)
(-0.392784 0.146423 -2.68408e-15)
(-0.395982 0.173121 1.34518e-14)
(-0.388821 0.196809 5.33608e-15)
(-0.378764 0.221463 6.85634e-17)
(-0.367357 0.24788 -2.89309e-15)
(-0.353807 0.275964 -2.31716e-16)
(-0.338035 0.30698 -6.32046e-15)
(-0.31924 0.341976 -4.64554e-15)
(-0.295361 0.382176 3.32804e-14)
(-0.265669 0.428519 1.17104e-14)
(-0.21973 0.483407 -7.75556e-15)
(-0.166335 0.53715 2.24403e-14)
(-0.370558 -0.0182539 3.01412e-14)
(-0.372123 0.00306907 2.09152e-14)
(-0.350492 0.0271937 -1.48316e-14)
(-0.340276 0.0479594 -1.52671e-14)
(-0.330584 0.0676115 1.44681e-14)
(-0.33548 0.09099 -1.00513e-15)
(-0.352492 0.118962 1.48406e-14)
(-0.366176 0.147386 5.41538e-15)
(-0.370022 0.173409 -6.55844e-15)
(-0.363515 0.196267 -6.19404e-15)
(-0.353997 0.220166 1.67904e-15)
(-0.342884 0.245866 2.24779e-15)
(-0.329428 0.273144 2.11249e-16)
(-0.313419 0.302983 -1.39722e-15)
(-0.2941 0.336207 -3.85545e-15)
(-0.269644 0.373895 -2.63504e-14)
(-0.239063 0.416597 -1.83098e-14)
(-0.193901 0.466322 1.60941e-14)
(-0.140022 0.514741 1.21554e-14)
(-0.340548 -0.00745463 2.17953e-14)
(-0.345457 0.0120576 3.54044e-14)
(-0.326436 0.0342895 4.77437e-14)
(-0.315249 0.053276 9.62477e-15)
(-0.305965 0.0712605 -8.13451e-16)
(-0.30864 0.0925078 -4.25366e-14)
(-0.326045 0.119961 -1.70108e-14)
(-0.339999 0.147895 1.61082e-14)
(-0.344348 0.173321 -1.73081e-15)
(-0.338367 0.195344 -8.40467e-16)
(-0.329301 0.218362 5.85988e-15)
(-0.318524 0.243169 -3.43457e-15)
(-0.305266 0.269442 -2.07354e-15)
(-0.289203 0.297946 8.77015e-15)
(-0.269617 0.329345 -6.7855e-15)
(-0.244801 0.364428 4.19132e-15)
(-0.213741 0.403589 2.9461e-14)
(-0.169403 0.448259 7.68918e-15)
(-0.115992 0.491457 -2.1634e-14)
(-0.311785 0.020645 2.41566e-14)
(-0.310603 0.0389703 -1.12983e-14)
(-0.291051 0.0580502 -2.79574e-14)
(-0.282212 0.0747389 8.35777e-15)
(-0.283562 0.0937502 3.85518e-14)
(-0.301379 0.120412 -4.78792e-15)
(-0.315483 0.147738 -1.46577e-14)
(-0.32018 0.172546 8.34747e-15)
(-0.314592 0.193786 1.75931e-15)
(-0.305641 0.215843 -1.53547e-15)
(-0.295006 0.239711 -2.70206e-16)
(-0.281811 0.264854 3.16009e-15)
(-0.265726 0.291933 -1.32714e-16)
(-0.245985 0.321412 3.25366e-15)
(-0.221014 0.353869 7.51578e-15)
(-0.189808 0.389545 3.42742e-15)
(-0.146471 0.429426 6.78165e-16)
(-0.0940067 0.467513 -1.08993e-15)
(-0.28718 0.0270325 2.17095e-14)
(-0.286625 0.0441712 -6.98462e-16)
(-0.269286 0.0619916 1.86734e-14)
(-0.260973 0.0776572 -2.48995e-14)
(-0.260345 0.0946644 -1.2235e-14)
(-0.277597 0.120381 -1.28535e-15)
(-0.291585 0.147059 -3.28814e-15)
(-0.296614 0.171209 3.99117e-15)
(-0.291419 0.191536 -2.70293e-15)
(-0.282722 0.212564 1.03537e-15)
(-0.27225 0.235357 -4.37644e-16)
(-0.259147 0.259257 3.38655e-15)
(-0.243105 0.284841 -3.50263e-15)
(-0.223344 0.312392 -4.1361e-15)
(-0.19843 0.342313 9.20764e-15)
(-0.167354 0.374612 -1.38609e-14)
(-0.125227 0.409961 -2.2068e-14)
(-0.074054 0.443215 2.11993e-14)
(-0.262966 0.0328693 3.08169e-15)
(-0.264483 0.0486138 2.2882e-15)
(-0.249336 0.0652109 -5.24942e-15)
(-0.240483 0.0799495 1.22605e-14)
(-0.237753 0.0950777 4.81253e-15)
(-0.254255 0.119804 8.51099e-15)
(-0.26802 0.145871 1.37914e-14)
(-0.273318 0.169413 -1.10861e-14)
(-0.268504 0.188816 7.52031e-15)
(-0.260125 0.208757 1.17415e-15)
(-0.24987 0.230301 8.01819e-16)
(-0.237024 0.252836 -1.66429e-15)
(-0.221211 0.276831 -8.41052e-17)
(-0.201652 0.302437 6.64597e-15)
(-0.177016 0.329835 2.74504e-15)
(-0.146369 0.358922 -2.27449e-14)
(-0.105678 0.390029 -2.61337e-15)
(-0.0561279 0.418797 -8.41338e-15)
(-0.237689 0.0520895 2.00979e-16)
(-0.235645 0.0670243 1.85924e-14)
(-0.220726 0.0816034 -6.12554e-15)
(-0.216205 0.0955837 -3.16915e-14)
(-0.232176 0.119101 4.85433e-15)
(-0.245816 0.144218 2.53438e-15)
(-0.251337 0.166996 1.79936e-15)
(-0.246896 0.18547 9.29287e-16)
(-0.238702 0.204291 -2.18017e-15)
(-0.228566 0.224582 2.3553e-17)
(-0.215867 0.245679 -4.80669e-16)
(-0.200282 0.268023 4.60992e-15)
(-0.18101 0.291644 3.50439e-15)
(-0.156851 0.316617 -1.64563e-14)
(-0.126862 0.34264 3.87107e-15)
(-0.0878073 0.369804 1.63626e-14)
(-0.0402358 0.394373 -2.91073e-15)
(-0.217621 0.0549274 -2.75234e-15)
(-0.21607 0.0687757 -9.17373e-15)
(-0.202789 0.0824754 -5.19022e-15)
(-0.197732 0.0955387 1.45511e-14)
(-0.211779 0.117851 -1.24124e-14)
(-0.224743 0.14202 -1.81999e-14)
(-0.230278 0.163926 -6.21737e-15)