/*--------------------------------*- C++ -*----------------------------------*\
| =========                 |                                                 |
| \\      /  F ield         | OpenFOAM: The Open Source CFD Toolbox           |
|  \\    /   O peration     | Version:  2506                                  |
|   \\  /    A nd           | Website:  www.openfoam.com                      |
|    \\/     M anipulation  |                                                 |
\*---------------------------------------------------------------------------*/
FoamFile
{
    version     2.0;
    format      ascii;
    arch        "LSB;label=32;scalar=64";
    class       volScalarField;
    location    "100";
    object      turbulenceProperties:k;
}
// * * * * * * * * * * * * * * * * * * * * * * * * * * * * * * * * * * * * * //

dimensions      [0 2 -2 0 0 0 0];

internalField   nonuniform List<scalar> 
1340
(
0.0140388
0.016506
0.0196817
0.0239674
0.029085
0.035611
0.0439665
0.0543474
0.0675298
0.0843275
0.105864
0.134253
0.172764
0.225941
0.300856
0.410485
0.573923
0.83472
1.24196
1.99826
3.17435
6.04786
10.4158
25.4863
42.6242
47.3485
45.9255
44.222
43.027
41.6078
39.4192
36.434
32.7244
28.3185
22.9609
0.0118397
0.0100458
0.00809638
0.00642566
0.00489801
0.00369152
0.00311958
0.00281759
0.00281578
0.00279011
0.00272001
0.00260977
0.00247698
0.00231618
0.00213275
0.00194671
0.00175934
0.00157954
0.00142253
0.00128354
0.00120788
0.00129193
0.00164312
0.00267159
0.00530776
0.0114611
0.0290429
0.0729999
0.229762
0.609961
1.96226
5.10411
9.00925
13.1334
16.7982
19.0159
18.967
17.0842
14.6173
12.3987
10.6363
9.26108
0.00278219
0.00273011
0.00264841
0.00252595
0.00235287
0.00214907
0.00193094
0.00190528
0.00185369
0.00177878
0.00169839
0.00160845
0.00151478
0.00142833
0.00135194
0.00129034
0.00124321
0.00120977
0.00118725
0.00117798
0.00118117
0.00120728
0.00117097
0.00109635
0.00058425
8.17069e-06
0.00701366
0.00425163
0.00317799
0.0283333
0.003315
0.0670359
0.314433
0.997254
2.53923
5.24202
8.63223
11.324
12.2684
11.6943
10.5116
0.00195001
0.00195286
0.00194732
0.00190764
0.0018263
0.00170356
0.00157499
0.00157784
0.00157022
0.00155634
0.00152999
0.00149104
0.00144263
0.00138282
0.00131444
0.0012389
0.00115793
0.00107425
0.000989938
0.000904174
0.000817816
0.000730582
0.000636416
0.000540871
0.000444131
0.000322709
0.000158849
2.38476e-06
0.000244148
0
0.00251845
0.0153608
0.0377706
0.000853754
0.0083137
0.0299731
0.399116
1.75193
4.46766
7.55873
9.49196
0.00156049
0.00153963
0.00150701
0.00146162
0.00139933
0.00120388
0.0012001
0.00118985
0.00117196
0.00114547
0.00110999
0.00106694
0.00101684
0.00096133
0.000903309
0.000844797
0.000788158
0.000735387
0.000688073
0.000647092
0.000613863
0.000587639
0.000561673
0.00053054
0.000492338
0.000416963
0.000275033
0.000116244
1.62489e-05
4.5375e-06
0
0
5.11288e-05
0.00386988
0.0276296
0.0814252
0.0369838
0.117755
1.33602
4.41467
0.00120122
0.00119366
0.00117725
0.00114733
0.00110486
0.000975518
0.000978236
0.000977061
0.000972251
0.000962067
0.000946276
0.000925314
0.000898631
0.000866732
0.000830454
0.000790155
0.000746742
0.000701136
0.000654046
0.000606246
0.00055874
0.000510456
0.000458051
0.000404077
0.000353629
0.000307469
0.000272435
0.00022723
0.00016751
5.65491e-05
8.15398e-06
4.28667e-06
1.43825e-06
0
0
0
0.0127895
0.0163543
0.0622971
0.505118
0.000968089
0.000957888
0.00094226
0.000917586
0.000790697
0.000793356
0.000793511
0.000790724
0.000784092
0.000773145
0.000757954
0.000738137
0.000713837
0.000685628
0.000653962
0.000619611
0.000583557
0.000546603
0.000509719
0.000473729
0.000439659
0.000409259
0.000381041
0.000352478
0.000322466
0.000292681
0.000269608
0.000244724
0.000202125
0.000142357
8.59149e-05
2.45658e-05
4.80476e-06
1.26346e-06
0
0
0.00225534
0.0232924
0.023591
0.000784354
0.000776198
0.000764211
0.000745044
0.000652209
0.000656017
0.000658318
0.000658635
0.000656498
0.000651392
0.000643382
0.000632042
0.000617322
0.000599523
0.000578624
0.000555009
0.00052913
0.000501334
0.00047214
0.000441995
0.000411514
0.000380127
0.000347152
0.000314126
0.000282959
0.000254934
0.000232249
0.0002146
0.000199553
0.000179331
0.000154261
0.000118524
8.24055e-05
2.42995e-05
3.97146e-06
9.86038e-08
0
0
0.00695339
0.000645576
0.000637984
0.000627931
0.000612663
0.000542284
0.000546311
0.000549399
0.000550899
0.000550685
0.000548339
0.000543718
0.000536474
0.000526522
0.000513943
0.000498695
0.000480951
0.000460992
0.000439108
0.000415748
0.000391366
0.000366316
0.000341258
0.000316851
0.000293025
0.000269672
0.000246996
0.000225756
0.000206487
0.00018878
0.000171387
0.000154125
0.000138383
0.000123838
9.86805e-05
7.21777e-05
2.0709e-06
5.21509e-07
0
0
0.000536213
0.000529608
0.000521357
0.000466327
0.000465985
0.00046405
0.000460136
0.000454134
0.000446082
0.000435856
0.000423526
0.000409209
0.000393042
0.000375274
0.000356177
0.000336059
0.000315287
0.000293666
0.000271453
0.000249554
0.000228824
0.000209847
0.000192532
0.000175813
0.000158868
0.000142023
0.000127284
0.000116066
0.000108067
0.000101588
7.95602e-05
9.58472e-06
4.97462e-07
0
0.000397301
0.000395389
0.000391899
0.000386757
0.000379786
0.000371034
0.000360533
0.000348315
0.000334536
0.000319408
0.000303136
0.000286055
0.000268421
0.00025053
0.000232686
0.000215292
0.000198707
0.000183011
0.000167594
0.00015175
0.000135671
0.000120709
0.000108127
9.93229e-05
9.28397e-05
9.48968e-05
8.30464e-05
7.46105e-06
6.97565e-09
0.000339628
0.00033659
0.000332151
0.000326188
0.000318749
0.00030983
0.000299472
0.000287789
0.000274938
0.000261167
0.000246643
0.000231426
0.000215895
0.000200639
0.000186002
0.000172036
0.000158289
0.000144192
0.000129827
0.000116134
0.000104093
9.43307e-05
8.64172e-05
8.15903e-05
8.97672e-05
6.91023e-05
2.75553e-06
0.000293485
0.000290747
0.000286831
0.000281611
0.000275115
0.000267355
0.000258367
0.000248247
0.000237148
0.000225301
0.0002128
0.000199867
0.000186932
0.000174242
0.000161864
0.000149537
0.000136898
0.000124034
0.00011168
0.000100712
9.13306e-05
8.37421e-05
7.66289e-05
7.29368e-05
9.03945e-05
3.84297e-05
0.000255055
0.000252581
0.000249048
0.000244431
0.000238737
0.000231954
0.000224112
0.000215308
0.000205755
0.000195473
0.000184624
0.000173587
0.0001626
0.000151732
0.000140804
0.000129565
0.000118102
0.000106998
9.70273e-05
8.84241e-05
8.11889e-05
7.54712e-05
6.67399e-05
7.53121e-05
7.69152e-05
0.000224143
0.000222676
0.000220406
0.000217188
0.000213053
0.000207989
0.000201988
0.000195079
0.000187437
0.000179089
0.000170135
0.000160851
0.000151451
0.000141995
0.000132375
0.000122425
0.000112235
0.000102272
9.31769e-05
8.53223e-05
7.83812e-05
7.34852e-05
6.67322e-05
6.17636e-05
8.69513e-05
0.000196636
0.000195224
0.000193089
0.000190155
0.000186438
0.000181909
0.00017656
0.000170505
0.000163783
0.00015644
0.000148671
0.000140684
0.000132538
0.000124146
0.000115405
0.000106401
9.75192e-05
8.92658e-05
8.20655e-05
7.56192e-05
7.0609e-05
6.65314e-05
5.7502e-05
7.3194e-05
0.000173115
0.000171759
0.000169747
0.000167054
0.000163676
0.000159586
0.000154831
0.000149474
0.000143513
0.000137075
0.000130351
0.000123397
0.000116146
0.000108526
0.00010062
9.2747e-05
8.53155e-05
7.87053e-05
7.28587e-05
6.76922e-05
6.46779e-05
5.73311e-05
5.91206e-05
0.000153706
0.000152891
0.000151585
0.000149677
0.000147199
0.000144115
0.000140429
0.000136203
0.000131408
0.000126115
0.000120498
0.000114609
0.000108395
0.000101803
9.49064e-05
8.7966e-05
8.13253e-05
7.52844e-05
6.99871e-05
6.50141e-05
6.19049e-05
5.74261e-05
5.12435e-05
0.000136184
0.000135395
0.000134111
0.000132327
0.00013004
0.000127225
0.000123929
0.000120104
0.000115791
0.000111139
0.000106195
0.000100915
9.52549e-05
8.92796e-05
8.3198e-05
7.73026e-05
7.18281e-05
6.69926e-05
6.24552e-05
5.89642e-05
5.65098e-05
4.75229e-05
0.000121386
0.000120961
0.000120172
0.00011893
0.000117266
0.000115149
0.000112613
0.000109599
0.000106122
0.000102298
9.81796e-05
9.37284e-05
8.89068e-05
8.37655e-05
7.84709e-05
7.32679e-05
6.83515e-05
6.39239e-05
5.98662e-05
5.61693e-05
5.46673e-05
4.576e-05
0.000108082
0.000107652
0.000106849
0.000105674
0.000104119
0.000102206
9.98648e-05
9.70944e-05
9.39816e-05
9.0579e-05
8.68574e-05
8.2779e-05
7.83844e-05
7.38046e-05
6.92404e-05
6.48621e-05
6.08234e-05
5.71939e-05
5.35451e-05
5.22862e-05
4.4676e-05
9.65898e-05
9.64123e-05
9.59618e-05
9.51738e-05
9.40642e-05
9.26489e-05
9.08654e-05
8.86907e-05
8.61844e-05
8.33987e-05
8.03152e-05
7.68936e-05
7.31621e-05
6.92261e-05
6.5246e-05
6.13731e-05
5.7717e-05
5.44512e-05
5.10185e-05
4.96837e-05
4.36494e-05
8.63454e-05
8.61446e-05
8.56652e-05
8.49062e-05
8.38861e-05
8.25621e-05
8.08849e-05
7.88918e-05
7.66362e-05
7.41053e-05
7.12582e-05
6.81124e-05
6.47528e-05
6.13045e-05
5.79007e-05
5.4619e-05
5.1667e-05
4.85273e-05
4.70158e-05
4.25152e-05
7.73205e-05
7.7302e-05
7.70594e-05
7.65751e-05
7.58667e-05
7.49081e-05
7.36414e-05
7.20796e-05
7.02753e-05
6.82174e-05
6.58686e-05
6.32378e-05
6.03916e-05
5.74254e-05
5.44542e-05
5.15356e-05
4.88673e-05
4.60458e-05
4.43395e-05
4.12084e-05
6.92275e-05
6.9342e-05
6.92902e-05
6.9017e-05
6.8551e-05
6.78844e-05
6.6951e-05
6.57489e-05
6.43238e-05
6.26705e-05
6.07516e-05
5.85685e-05
5.61723e-05
5.36366e-05
5.10561e-05
4.84803e-05
4.60738e-05
4.35696e-05
4.17034e-05
3.96431e-05
6.21949e-05
6.2269e-05
6.2164e-05
6.18882e-05
6.14487e-05
6.07853e-05
5.98803e-05
5.87744e-05
5.74627e-05
5.5911e-05
5.41147e-05
5.21119e-05
4.99592e-05
4.77307e-05
4.54709e-05
4.33068e-05
4.10997e-05
3.91472e-05
3.77504e-05
5.57761e-05
5.59364e-05
5.5955e-05
5.5823e-05
5.5556e-05
5.51038e-05
5.44401e-05
5.35958e-05
5.25694e-05
5.1329e-05
4.98664e-05
4.82079e-05
4.63953e-05
4.44855e-05
4.25177e-05
4.05809e-05
3.86394e-05
3.67043e-05
3.55766e-05
5.00041e-05
5.02236e-05
5.03413e-05
5.03168e-05
5.01812e-05
4.98935e-05
4.94237e-05
4.87921e-05
4.80009e-05
4.70216e-05
4.58406e-05
4.44771e-05
4.29608e-05
4.13336e-05
3.96314e-05
3.79111e-05
3.61953e-05
3.4372e-05
3.32445e-05
4.50843e-05
4.52605e-05
4.53227e-05
4.52868e-05
4.51263e-05
4.48092e-05
4.43524e-05
4.37545e-05
4.29908e-05
4.2047e-05
4.09348e-05
3.96745e-05
3.82952e-05
3.68283e-05
3.5311e-05
3.37868e-05
3.21337e-05
3.08936e-05
4.0458e-05
4.06714e-05
4.07941e-05
4.08313e-05
4.07647e-05
4.05659e-05
4.02461e-05
3.98044e-05
3.92184e-05
3.84733e-05
3.75747e-05
3.65356e-05
3.53755e-05
3.41185e-05
3.27895e-05
3.1429e-05
2.99687e-05
2.86259e-05
3.62884e-05
3.65248e-05
3.66968e-05
3.67868e-05
3.67876e-05
3.6678e-05
3.64652e-05
3.61469e-05
3.57042e-05
3.51219e-05
3.44012e-05
3.35501e-05
3.25807e-05
3.15093e-05
3.03551e-05
2.91395e-05
2.78588e-05
2.6499e-05
3.27891e-05
3.29872e-05
3.31189e-05
3.317e-05
3.31264e-05
3.29962e-05
3.27762e-05
3.2449e-05
3.1999e-05
3.14253e-05
3.07315e-05
2.99242e-05
2.90135e-05
2.80151e-05
2.69344e-05
2.58027e-05
2.45151e-05
2.94246e-05
2.96338e-05
2.97902e-05
2.98764e-05
2.9881e-05
2.98128e-05
2.96694e-05
2.94337e-05
2.90911e-05
2.86387e-05
2.8077e-05
2.74085e-05
2.6638e-05
2.57772e-05
2.48221e-05
2.38126e-05
2.2645e-05
2.63865e-05
2.65994e-05
2.67756e-05
2.68855e-05
2.69229e-05
2.68986e-05
2.68126e-05
2.66488e-05
2.63917e-05
2.60375e-05
2.55853e-05
2.50344e-05
2.43851e-05
2.36453e-05
2.28074e-05
2.19017e-05
2.38648e-05
2.40461e-05
2.41741e-05
2.42346e-05
2.42414e-05
2.41977e-05
2.40888e-05
2.38991e-05
2.36238e-05
2.32607e-05
2.28072e-05
2.22612e-05
2.16259e-05
2.08945e-05
2.0082e-05
2.14015e-05
2.15797e-05
2.17157e-05
2.17917e-05
2.18194e-05
2.1806e-05
2.17389e-05
2.16024e-05
2.13907e-05
2.11005e-05
2.07279e-05
2.02689e-05
1.97239e-05
1.90864e-05
1.83614e-05
1.91789e-05
1.93532e-05
1.94905e-05
1.95734e-05
1.96143e-05
1.96222e-05
1.95859e-05
1.94902e-05
1.93289e-05
1.90979e-05
1.87923e-05
1.84074e-05
1.79406e-05
1.73857e-05
1.67421e-05
1.71778e-05
1.7345e-05
1.74787e-05
1.75635e-05
1.76117e-05
1.76335e-05
1.76191e-05
1.75538e-05
1.74313e-05
1.72475e-05
1.6997e-05
1.66743e-05
1.62751e-05
1.57929e-05
1.52243e-05
1.5377e-05
1.55325e-05
1.56634e-05
1.57481e-05
1.57989e-05
1.58281e-05
1.5828e-05
1.57845e-05
1.56915e-05
1.55448e-05
1.53389e-05
1.50679e-05
1.47266e-05
1.43082e-05
1.38079e-05
1.39036e-05
1.40272e-05
1.41105e-05
1.41607e-05
1.41932e-05
1.4202e-05
1.4174e-05
1.41033e-05
1.39856e-05
1.38154e-05
1.35869e-05
1.32946e-05
1.29316e-05
1.24921e-05
1.24411e-05
1.25542e-05
1.2633e-05
1.2681e-05
1.2714e-05
1.27281e-05
1.27111e-05
1.26572e-05
1.25621e-05
1.24206e-05
1.22272e-05
1.19763e-05
1.16612e-05
1.12758e-05
1.11249e-05
1.12294e-05
1.13016e-05
1.13454e-05
1.13771e-05
1.13939e-05
1.13843e-05
1.13428e-05
1.12654e-05
1.11471e-05
1.09829e-05
1.07671e-05
1.04935e-05
1.0156e-05
9.94378e-06
1.00384e-05
1.01033e-05
1.01421e-05
1.01713e-05
1.01888e-05
1.0184e-05
1.01513e-05
1.00874e-05
9.98792e-06
9.84768e-06
9.66177e-06
9.42432e-06
9.12913e-06
8.88329e-06
8.96699e-06
9.02642e-06
9.06093e-06
9.08668e-06
9.1032e-06
9.1007e-06
9.07415e-06
9.02069e-06
8.93611e-06
8.8159e-06
8.65531e-06
8.44914e-06
8.19129e-06
8.00723e-06
8.06024e-06
8.09063e-06
8.1124e-06
8.12707e-06
8.12548e-06
8.10323e-06
8.05778e-06
7.98525e-06
7.8815e-06
7.74243e-06
7.56317e-06
7.33817e-06
7.14902e-06
7.19438e-06
7.22019e-06
7.23837e-06
7.25068e-06
7.24922e-06
7.23e-06
7.19072e-06
7.12786e-06
7.03787e-06
6.91712e-06
6.76112e-06
6.38063e-06
6.41951e-06
6.44002e-06
6.45437e-06
6.46454e-06
6.46294e-06
6.44587e-06
6.41139e-06
6.35641e-06
6.27795e-06
6.17269e-06
6.03691e-06
5.693e-06
5.72615e-06
5.74211e-06
5.7529e-06
5.76079e-06
5.75867e-06
5.74308e-06
5.71233e-06
5.66382e-06
5.59499e-06
5.50304e-06
5.38464e-06
5.07822e-06
5.10556e-06
5.11833e-06
5.12646e-06
5.13222e-06
5.12923e-06
5.1145e-06
5.08673e-06
5.04356e-06
4.98286e-06
4.90222e-06
4.79886e-06
4.55212e-06
4.56197e-06
4.56757e-06
4.57094e-06
4.56722e-06
4.55327e-06
4.52794e-06
4.48932e-06
4.43554e-06
4.36467e-06
4.27428e-06
4.05959e-06
4.06591e-06
4.06897e-06
4.07047e-06
4.066e-06
4.05265e-06
4.02943e-06
3.99477e-06
3.94711e-06
3.88464e-06
3.80547e-06
3.62085e-06
3.62426e-06
3.62472e-06
3.62445e-06
3.61937e-06
3.60655e-06
3.58524e-06
3.55413e-06
3.51177e-06
3.45672e-06
3.38725e-06
3.22987e-06
3.23104e-06
3.22962e-06
3.22795e-06
3.22225e-06
3.20988e-06
3.1902e-06
3.16211e-06
3.12439e-06
3.07569e-06
3.01469e-06
2.8821e-06
2.88157e-06
2.87872e-06
2.87585e-06
2.86957e-06
2.85753e-06
2.83922e-06
2.81371e-06
2.77991e-06
2.73682e-06
2.68332e-06
2.5729e-06
2.57126e-06
2.56739e-06
2.5635e-06
2.55668e-06
2.54484e-06
2.52766e-06
2.5043e-06
2.47397e-06
2.43587e-06
2.29793e-06
2.29536e-06
2.29094e-06
2.28661e-06
2.27952e-06
2.26788e-06
2.2516e-06
2.23014e-06
2.20287e-06
2.16909e-06
2.0504e-06
2.04581e-06
2.04115e-06
2.03384e-06
2.02263e-06
2.00734e-06
1.98763e-06
1.96301e-06
1.93299e-06
1.83316e-06
1.82831e-06
1.8234e-06
1.81617e-06
1.80552e-06
1.79125e-06
1.77314e-06
1.75085e-06
1.72399e-06
1.64037e-06
1.63536e-06
1.63027e-06
1.62326e-06
1.61327e-06
1.60008e-06
1.58347e-06
1.56325e-06
1.53911e-06
1.46874e-06
1.46382e-06
1.45887e-06
1.45225e-06
1.443e-06
1.43088e-06
1.41573e-06
1.39737e-06
1.37565e-06
1.31572e-06
1.31098e-06
1.30628e-06
1.30015e-06
1.29171e-06
1.2807e-06
1.26697e-06
1.25041e-06
1.23098e-06
1.17901e-06
1.17448e-06
1.17006e-06
1.16443e-06
1.15679e-06
1.14691e-06
1.13457e-06
1.11984e-06
1.05711e-06
1.05281e-06
1.04863e-06
1.04344e-06
1.03653e-06
1.02764e-06
1.01665e-06
1.00359e-06
9.48726e-07
9.44617e-07
9.40722e-07
9.36008e-07
9.29726e-07
9.21682e-07
9.11841e-07
9.00251e-07
8.49132e-07
8.45418e-07
8.40993e-07
8.35202e-07
8.27972e-07
8.19169e-07
8.0887e-07
7.6457e-07
7.61056e-07
7.56802e-07
7.51413e-07
7.44847e-07
7.36949e-07
7.27797e-07
6.90702e-07
6.87454e-07
6.83449e-07
6.7857e-07
6.72614e-07
6.6547e-07
6.57436e-07
6.33771e-07
6.30704e-07
6.26753e-07
6.22196e-07
6.1652e-07
6.09636e-07
6.02323e-07
5.87936e-07
5.85214e-07
5.81495e-07
5.77195e-07
5.71756e-07
5.65044e-07
5.43593e-07
5.4149e-07
5.38377e-07
5.34623e-07
5.29874e-07
5.23833e-07
5.00205e-07
4.98238e-07
4.952e-07
4.91404e-07
4.8682e-07
4.80805e-07
4.59588e-07
4.58382e-07
4.56128e-07
4.52926e-07
4.49073e-07
4.43971e-07
4.17581e-07
4.15585e-07
4.12512e-07
4.08611e-07
4.04323e-07
3.97985e-07
3.87445e-07
3.87497e-07
3.86476e-07
3.83859e-07
3.80974e-07
3.77816e-07
3.35345e-07
3.31736e-07
3.28319e-07
3.24471e-07
3.16024e-07
3.43973e-07
3.45499e-07
3.43255e-07
3.42414e-07
3.46957e-07
2.76158e-07
2.76712e-07
2.80403e-07
2.7942e-07
2.69228e-07
3.89325e-07
3.99602e-07
3.9857e-07
4.03759e-07
4.08043e-07
4.19416e-07
4.33891e-07
4.515e-07
6.0746e-07
6.43258e-07
6.23985e-07
5.94508e-07
)
;

boundaryField
{
    inlet
    {
        type            calculated;
        value           nonuniform List<scalar> 4(2.55002e-06 2.72346e-06 2.76678e-06 2.80703e-06);
    }
    outlet
    {
        type            calculated;
        value           nonuniform List<scalar> 0();
    }
    walls
    {
        type            calculated;
        value           uniform 0;
    }
    frontAndBack
    {
        type            empty;
    }
    procBoundary5to0
    {
        type            processor;
        value           nonuniform List<scalar> 4(0.000455072 0.000449525 0.000443833 0.000437026);
    }
    procBoundary5to1
    {
        type            processor;
        value           nonuniform List<scalar> 
13
(
0.00360808
0.00195892
0.00195892
0.00156914
0.00132092
0.00132092
0.00105109
0.00088593
0.00088593
0.000721399
0.000594667
0.000509234
0.000509234
)
;
    }
    procBoundary5to4
    {
        type            processor;
        value           nonuniform List<scalar> 
95
(
0.000459232
0.000462741
0.000465136
0.000465136
0.000396812
0.000397662
0.000397662
0.00034179
0.000341298
0.000341298
0.000295052
0.000295052
0.000256549
0.000256549
0.000224776
0.000197371
0.000197371
0.000173914
0.000173914
0.00015399
0.000136575
0.000136575
0.00012141
0.000108206
0.000108206
9.64665e-05
8.63161e-05
8.63161e-05
7.71328e-05
6.89378e-05
6.19864e-05
6.19864e-05
5.54938e-05
4.96792e-05
4.48274e-05
4.48274e-05
4.01693e-05
3.59873e-05
3.25402e-05
3.25402e-05
2.91654e-05
2.61308e-05
2.36538e-05
2.36538e-05
2.11926e-05
1.89789e-05
1.69889e-05
1.52014e-05
1.37593e-05
1.37593e-05
1.23061e-05
1.10018e-05
9.83203e-06
8.78371e-06
7.93305e-06
7.93305e-06
7.08278e-06
6.32204e-06
5.64184e-06
5.03416e-06
4.52938e-06
4.52938e-06
4.04072e-06
3.60532e-06
3.2175e-06
2.87228e-06
2.56513e-06
2.29188e-06
2.05341e-06
2.05341e-06
1.83647e-06
1.64375e-06
1.47222e-06
1.31917e-06
1.18242e-06
1.06041e-06
9.5198e-07
8.52975e-07
8.52975e-07
7.68117e-07
6.93766e-07
6.36384e-07
5.90024e-07
5.45045e-07
5.0149e-07
4.60206e-07
4.19025e-07
3.86671e-07
3.38111e-07
3.38111e-07
3.41544e-07
2.74712e-07
3.80203e-07
3.91358e-07
6.04655e-07
)
;
    }
    procBoundary5to6
    {
        type            processor;
        value           nonuniform List<scalar> 
86
(
17.3885
7.94659
9.11503
9.84733
7.76673
3.45309
0.536815
0.0240653
0.0132162
0.000524477
0
0
3.6538e-08
1.22061e-06
1.35227e-05
4.95999e-05
7.42547e-05
7.70858e-05
7.02992e-05
6.12652e-05
5.31187e-05
4.64809e-05
4.13233e-05
3.73619e-05
3.45554e-05
3.2708e-05
3.14281e-05
3.02616e-05
2.89051e-05
2.7271e-05
2.54123e-05
2.34613e-05
2.1557e-05
2.08633e-05
2.08633e-05
1.91599e-05
1.75366e-05
1.6002e-05
1.45614e-05
1.32163e-05
1.19668e-05
1.0811e-05
9.746e-06
8.7684e-06
7.87478e-06
7.06097e-06
6.5648e-06
6.5648e-06
5.86599e-06
5.23585e-06
4.66939e-06
4.16143e-06
3.70716e-06
3.3014e-06
2.93983e-06
2.61807e-06
2.38897e-06
2.38897e-06
2.12801e-06
1.89674e-06
1.69191e-06
1.5106e-06
1.35025e-06
1.20844e-06
1.10261e-06
1.10261e-06
9.88353e-07
8.86772e-07
7.96943e-07
7.17263e-07
6.48161e-07
5.93993e-07
5.58063e-07
5.58063e-07
5.17403e-07
4.74457e-07
4.37949e-07
3.91784e-07
3.71649e-07
3.11327e-07
3.3947e-07
2.73195e-07
4.35389e-07
4.35389e-07
4.51666e-07
7.75185e-07
)
;
    }
}


// ************************************************************************* //
