/*--------------------------------*- C++ -*----------------------------------*\
| =========                 |                                                 |
| \\      /  F ield         | OpenFOAM: The Open Source CFD Toolbox           |
|  \\    /   O peration     | Version:  2506                                  |
|   \\  /    A nd           | Website:  www.openfoam.com                      |
|    \\/     M anipulation  |                                                 |
\*---------------------------------------------------------------------------*/
FoamFile
{
    version     2.0;
    format      ascii;
    arch        "LSB;label=32;scalar=64";
    class       volScalarField;
    location    "100";
    object      turbulenceProperties:L;
}
// * * * * * * * * * * * * * * * * * * * * * * * * * * * * * * * * * * * * * //

dimensions      [0 1 0 0 0 0 0];

internalField   nonuniform List<scalar> 
1340
(
0.00201737
0.00190908
0.00180971
0.00171449
0.00164734
0.00159962
0.00157562
0.00158023
0.00161479
0.00168176
0.00178513
0.00193024
0.00212492
0.00238089
0.00271256
0.00314862
0.00372464
0.00452615
0.00560919
0.0073061
0.00959393
0.014055
0.0200314
0.0346078
0.0488977
0.0547504
0.0561621
0.0570231
0.0581867
0.0593088
0.0600939
0.0606258
0.0611285
0.0617441
0.0627049
0.00214907
0.00228979
0.00250628
0.00277114
0.00313492
0.00357974
0.00387861
0.00406212
0.00406305
0.00408145
0.00413358
0.00421996
0.00433172
0.0044798
0.00466888
0.00488731
0.00514139
0.00542648
0.00571796
0.00601935
0.00620296
0.00602196
0.00554264
0.00511392
0.00535357
0.00618992
0.00764086
0.00919098
0.0124055
0.0158102
0.0237193
0.035448
0.0476612
0.0616795
0.0774073
0.0938256
0.109457
0.123716
0.13697
0.149136
0.159535
0.167986
0.00408825
0.00412766
0.0041915
0.00429291
0.00444914
0.00465657
0.00491639
0.00494969
0.0050184
0.00512331
0.00524357
0.00538864
0.0055533
0.00571952
0.00587964
0.00601924
0.00613336
0.00621884
0.00627911
0.00630583
0.00629939
0.0062361
0.00631861
0.00651442
0.00930587
0.210443
0.00625835
0.00588514
0.0068642
0.0414191
0.0269399
0.0332304
0.0428912
0.055779
0.0723322
0.0917235
0.112405
0.132772
0.15259
0.173184
0.194711
0.00489207
0.00488829
0.00489511
0.00494559
0.00505442
0.00523318
0.00544153
0.00543656
0.00544975
0.00547402
0.00552098
0.00559265
0.00568579
0.00580757
0.00595686
0.00613599
0.00634718
0.00659013
0.00686555
0.00718446
0.00755516
0.00799487
0.00856738
0.00929195
0.0102393
0.0120343
0.0186154
0.42539
0.0147837
0
0.00659649
0.0147493
0.0267466
0.00836234
0.0317316
0.117247
0.107759
0.124447
0.146391
0.169216
0.194074
0.00546682
0.00550388
0.00556324
0.00564907
0.00577354
0.00622453
0.00623425
0.00626103
0.0063086
0.00638113
0.00648231
0.00661183
0.0067728
0.00696569
0.00718605
0.00743091
0.00769349
0.00796502
0.00823468
0.00849189
0.00871929
0.00891254
0.00911731
0.0093836
0.00974472
0.0105659
0.0131128
0.022592
0.0958104
0.252927
0
0
0.0429035
0.0102522
0.0272504
0.0551442
0.0663824
0.196944
0.174718
0.191898
0.00623155
0.00625135
0.00629484
0.00637638
0.0064978
0.00691497
0.00690527
0.00690936
0.00692638
0.00696288
0.0070207
0.00709976
0.00720439
0.0073358
0.00749436
0.00768317
0.00790346
0.00815659
0.0084453
0.00877215
0.00913776
0.00956059
0.0100932
0.0107468
0.0114898
0.0123242
0.0131052
0.0143192
0.0166962
0.033001
0.134785
0.21599
0.490577
0
0
0
0.0265923
0.0313892
0.120726
0.215547
0.00694157
0.00697849
0.00703613
0.00713006
0.00768092
0.00766796
0.00766715
0.00768057
0.00771291
0.00776724
0.00784464
0.0079492
0.00808335
0.00824795
0.00844529
0.00867626
0.00894032
0.00923767
0.00956617
0.00992302
0.0103005
0.0106765
0.011065
0.0115049
0.0120288
0.0126285
0.013174
0.0138416
0.015187
0.0181029
0.0239476
0.0548019
0.178431
0.478908
0
0
0.0192774
0.0471627
0.0687318
0.00771192
0.00775228
0.00781275
0.00791253
0.00845713
0.00843254
0.00841777
0.00841569
0.00842931
0.00846223
0.00851469
0.00859069
0.00869248
0.00882055
0.00897843
0.00916746
0.009389
0.00964582
0.00993964
0.0102731
0.0106469
0.0110779
0.0115923
0.0121867
0.0128406
0.0135279
0.0141756
0.0147554
0.0153224
0.0161767
0.017435
0.0198113
0.0238426
0.0515093
0.191077
3.01852
0
0
0.0342775
0.00850031
0.00855057
0.00861858
0.00872523
0.00927449
0.00924038
0.00921442
0.00920188
0.00920365
0.00922329
0.00926237
0.00932467
0.00941234
0.0095268
0.00967132
0.00984808
0.010059
0.0103066
0.0105922
0.0109172
0.0112843
0.0116913
0.0121333
0.0126171
0.0131522
0.0137428
0.0143748
0.0150311
0.015724
0.0165122
0.0174305
0.018426
0.0195085
0.0217391
0.0254101
0.304363
0.850363
0
0
0.00932655
0.00938428
0.00945805
0.0100014
0.0100051
0.010026
0.0100685
0.0101348
0.0102259
0.0103451
0.0104946
0.0106766
0.010894
0.0111489
0.0114439
0.0117815
0.0121635
0.0126034
0.013109
0.0136722
0.0142782
0.01491
0.015566
0.0162891
0.0171364
0.0181271
0.0191579
0.0200863
0.0208608
0.0215764
0.0241936
0.0958002
0.878192
0
0.0108353
0.0108615
0.0109098
0.0109822
0.0110825
0.0112125
0.0113746
0.0115724
0.0118083
0.0120847
0.0124048
0.0127698
0.0131826
0.0136453
0.0141589
0.0147199
0.0153221
0.0159659
0.0166841
0.0175333
0.0185429
0.0196589
0.0207731
0.0216889
0.0224589
0.0223828
0.0238267
0.114055
17.5785
0.0117191
0.011772
0.0118505
0.0119583
0.0120971
0.01227
0.0124805
0.0127313
0.0130254
0.0133645
0.0137524
0.0141974
0.0146992
0.0152479
0.0158366
0.0164671
0.0171675
0.0179874
0.0189565
0.0200428
0.0211693
0.0222382
0.0232354
0.0239325
0.0231178
0.0259691
0.238043
0.0126065
0.0126659
0.0127522
0.0128699
0.0130211
0.0132087
0.0134366
0.0137078
0.0140249
0.014389
0.0148057
0.0152772
0.015797
0.0163623
0.0169765
0.0176626
0.0184603
0.0193942
0.0204391
0.0215236
0.0226007
0.0236036
0.0246645
0.0253021
0.0233198
0.0357004
0.0135228
0.013589
0.0136852
0.0138139
0.0139778
0.0141808
0.0144269
0.014719
0.0150568
0.0154479
0.0158954
0.016393
0.0169379
0.0175341
0.018202
0.0189753
0.0198751
0.0208814
0.0219287
0.0229707
0.0239728
0.0248672
0.0264031
0.0250983
0.0249801
0.0144248
0.0144724
0.0145469
0.0146544
0.0147961
0.0149752
0.0151962
0.0154631
0.0157753
0.0161389
0.0165583
0.0170295
0.0175502
0.0181252
0.0187725
0.0195206
0.0203879
0.0213582
0.0223768
0.023385
0.0243969
0.0252072
0.0264239
0.0274556
0.0240932
0.0154006
0.0154564
0.0155417
0.0156613
0.0158168
0.0160126
0.0162536
0.0165398
0.016876
0.0172676
0.0177132
0.0182092
0.0187607
0.0193845
0.0201054
0.0209391
0.0218722
0.0228613
0.0238443
0.0248384
0.0257099
0.026492
0.0284337
0.0257273
0.0164136
0.0164783
0.0165758
0.016709
0.0168807
0.0170958
0.0173565
0.0176649
0.0180283
0.018447
0.018917
0.0194429
0.0200409
0.0207327
0.021532
0.0224276
0.0233843
0.0243474
0.0253055
0.0262521
0.026878
0.0284882
0.0281657
0.0174191
0.0174655
0.0175406
0.0176522
0.0178003
0.0179898
0.0182245
0.0185053
0.0188401
0.0192316
0.0196749
0.0201743
0.0207448
0.0214062
0.0221705
0.0230288
0.0239509
0.0248938
0.02582
0.0267855
0.0274671
0.0284925
0.0301309
0.0185059
0.0185598
0.0186484
0.0187738
0.0189382
0.0191467
0.0193998
0.0197065
0.0200703
0.0204863
0.020958
0.0214996
0.0221294
0.0228582
0.0236793
0.024566
0.0254852
0.0263905
0.0273296
0.0281344
0.0287474
0.0312734
0.0196016
0.019636
0.0197004
0.019803
0.0199431
0.0201256
0.0203511
0.0206292
0.0209646
0.021353
0.0217965
0.0223083
0.0229055
0.0235983
0.0243818
0.0252331
0.026125
0.0270159
0.0279157
0.0288194
0.0292398
0.0318701
0.020773
0.0208144
0.0208925
0.0210085
0.0211648
0.0213621
0.0216111
0.0219174
0.0222775
0.0226923
0.0231736
0.0237379
0.0243946
0.0251404
0.0259563
0.0268183
0.0276952
0.0285613
0.029514
0.0298993
0.0322588
0.0219741
0.0219943
0.0220459
0.022137
0.0222672
0.0224367
0.0226559
0.0229321
0.0232633
0.0236488
0.0240987
0.0246293
0.0252499
0.0259582
0.0267386
0.0275698
0.0284301
0.029272
0.030235
0.0306681
0.032646
0.0232411
0.0232682
0.0233332
0.0234373
0.0235795
0.0237679
0.0240131
0.0243147
0.02467
0.0250879
0.0255845
0.0261689
0.0268395
0.0275844
0.0283842
0.0292247
0.0300501
0.0310015
0.0315198
0.0330943
0.0245599
0.0245629
0.0246016
0.0246793
0.0247944
0.0249526
0.0251663
0.0254376
0.0257622
0.0261481
0.0266104
0.0271585
0.0277915
0.0285006
0.0292683
0.0300858
0.0308983
0.0318266
0.0324496
0.0336349
0.0259557
0.0259344
0.0259441
0.0259955
0.0260838
0.0262116
0.0263938
0.0266341
0.0269276
0.0272806
0.0277083
0.0282202
0.0288161
0.0294897
0.0302262
0.031019
0.0318205
0.0327196
0.0334521
0.0343122
0.0273839
0.0273677
0.0273908
0.0274519
0.02755
0.0277
0.0279086
0.0281701
0.0284899
0.0288827
0.0293583
0.0299174
0.0305555
0.0312611
0.0320287
0.0328205
0.0336894
0.0345209
0.0351748
0.0289166
0.0288752
0.0288705
0.0289047
0.0289741
0.0290929
0.0292698
0.0294995
0.0297863
0.0301441
0.0305832
0.031105
0.0317071
0.0323809
0.0331221
0.0339041
0.0347461
0.0356473
0.0362363
0.03054
0.0304732
0.0304376
0.0304451
0.0304863
0.0305741
0.0307192
0.0309175
0.0311714
0.0314944
0.0318977
0.0323831
0.0329499
0.0335926
0.0343068
0.035077
0.0359003
0.0368353
0.0374802
0.0321632
0.0321006
0.0320786
0.0320914
0.0321485
0.0322621
0.0324279
0.0326489
0.0329377
0.0333055
0.0337551
0.0342872
0.0348995
0.0355881
0.036345
0.0371575
0.038097
0.0388705
0.0339524
0.0338633
0.0338123
0.033797
0.0338246
0.0339075
0.034042
0.0342305
0.0344854
0.0348178
0.0352319
0.0357295
0.0363109
0.0369742
0.0377161
0.0385255
0.0394504
0.0403716
0.0358501
0.0357339
0.0356501
0.0356064
0.0356061
0.0356593
0.0357633
0.0359204
0.0361426
0.0364411
0.036821
0.0372852
0.0378361
0.0384743
0.0391991
0.0400095
0.0409183
0.0419548
0.0377147
0.0376012
0.0375264
0.0374975
0.0375222
0.0375962
0.0377223
0.037912
0.0381778
0.0385248
0.0389575
0.0394797
0.0400947
0.0408032
0.0416143
0.042518
0.0436172
0.0398126
0.0396718
0.0395675
0.0395104
0.0395074
0.0395526
0.0396481
0.0398066
0.0400404
0.0403555
0.0407573
0.0412515
0.0418441
0.0425373
0.0433482
0.0442589
0.0453828
0.0420422
0.0418736
0.0417356
0.0416502
0.0416213
0.0416401
0.0417069
0.0418349
0.0420382
0.0423232
0.0426957
0.0431631
0.0437342
0.0444133
0.045222
0.0461487
0.0442078
0.0440408
0.0439241
0.0438692
0.043863
0.0439026
0.0440017
0.0441761
0.0444328
0.0447783
0.0452214
0.0457728
0.0464405
0.0472465
0.0481935
0.0466827
0.0464895
0.0463438
0.0462629
0.0462334
0.0462476
0.0463189
0.0464651
0.0466945
0.0470145
0.0474353
0.0479695
0.0486279
0.0494336
0.0504005
0.0493137
0.0490911
0.0489179
0.0488141
0.0487632
0.0487534
0.0487985
0.0489181
0.0491219
0.049418
0.0498182
0.0503365
0.0509874
0.0517948
0.0527812
0.052107
0.0518552
0.0516565
0.0515316
0.051461
0.0514292
0.0514502
0.0515458
0.0517266
0.0520014
0.0523832
0.0528878
0.0535326
0.0543438
0.0553495
0.0550737
0.0547974
0.0545678
0.0544209
0.0543334
0.0542832
0.0542833
0.0543581
0.0545189
0.0547755
0.0551419
0.0556355
0.0562767
0.0570935
0.058119
0.0579187
0.0576628
0.0574923
0.0573903
0.0573245
0.0573068
0.0573632
0.0575067
0.0577481
0.0581028
0.0585893
0.0592299
0.0600555
0.061103
0.0612286
0.060952
0.0607616
0.0606463
0.0605676
0.060534
0.0605743
0.0607031
0.0609323
0.0612783
0.0617611
0.0624047
0.0632421
0.064314
0.0647493
0.0644475
0.0642411
0.064117
0.0640274
0.0639801
0.0640069
0.0641241
0.0643439
0.0646842
0.065166
0.0658158
0.0666681
0.067767
0.0684872
0.0681634
0.0679441
0.0678142
0.0677168
0.0676584
0.0676742
0.0677831
0.0679971
0.068335
0.0688197
0.0694786
0.0703483
0.0714766
0.0724601
0.0721211
0.0718833
0.0717462
0.0716444
0.0715793
0.0715891
0.0716936
0.0719057
0.072245
0.0727358
0.0734073
0.0742974
0.0754576
0.0763213
0.0760699
0.0759269
0.0758249
0.0757563
0.0757637
0.0758676
0.0760811
0.0764258
0.076927
0.0776146
0.0785288
0.0797235
0.0807727
0.0805177
0.0803736
0.0802726
0.0802044
0.0802124
0.0803189
0.0805379
0.0808921
0.0814075
0.0821148
0.0830565
0.0854983
0.0852389
0.0851031
0.0850084
0.0849415
0.084952
0.0850643
0.0852927
0.0856606
0.0861942
0.0869258
0.0878978
0.0905147
0.0902523
0.0901268
0.0900423
0.0899806
0.0899971
0.0901191
0.0903613
0.0907474
0.0913038
0.0920633
0.0930698
0.0958374
0.0955804
0.0954612
0.0953855
0.0953319
0.0953596
0.0954969
0.0957572
0.096166
0.0967499
0.0975423
0.098587
0.101224
0.101115
0.101053
0.101016
0.101057
0.101212
0.101494
0.10193
0.102546
0.103375
0.104462
0.107189
0.107106
0.107066
0.107046
0.107105
0.107281
0.10759
0.108055
0.108706
0.109576
0.11071
0.113498
0.113444
0.113437
0.113442
0.113521
0.113723
0.11406
0.114558
0.115247
0.116161
0.117346
0.120171
0.12015
0.120176
0.120207
0.120314
0.120545
0.120916
0.121452
0.122183
0.123147
0.124386
0.127215
0.127227
0.12729
0.127354
0.127493
0.127761
0.128173
0.128753
0.129533
0.130549
0.131844
0.134642
0.134685
0.134787
0.134889
0.135069
0.135383
0.135843
0.136475
0.137309
0.138379
0.14247
0.14255
0.142688
0.142823
0.143045
0.143412
0.14393
0.14462
0.145513
0.146642
0.150825
0.150994
0.151167
0.151439
0.151858
0.152435
0.153189
0.154147
0.15534
0.159512
0.159723
0.159938
0.160256
0.160729
0.161368
0.16219
0.163219
0.164486
0.168624
0.168883
0.169146
0.169512
0.170036
0.170736
0.171629
0.172736
0.174085
0.178204
0.178503
0.178806
0.179214
0.179788
0.180548
0.181512
0.182701
0.184138
0.188281
0.188621
0.188961
0.189407
0.190024
0.19084
0.191872
0.193138
0.194657
0.198898
0.19928
0.199657
0.200139
0.2008
0.201663
0.202758
0.204088
0.210052
0.21048
0.2109
0.211424
0.212128
0.213044
0.214193
0.215583
0.221724
0.222206
0.222666
0.223227
0.22398
0.224956
0.226167
0.227619
0.234366
0.23488
0.235498
0.236313
0.237343
0.238616
0.240131
0.246985
0.247555
0.24825
0.249139
0.250236
0.251574
0.253151
0.259855
0.260469
0.261231
0.262169
0.263328
0.264738
0.266352
0.271274
0.271933
0.272789
0.273787
0.275045
0.276594
0.278269
0.281648
0.282303
0.283205
0.284258
0.285607
0.287299
0.292909
0.293477
0.294325
0.295357
0.296678
0.298385
0.305346
0.305949
0.306886
0.30807
0.309517
0.311448
0.318551
0.31897
0.319758
0.320887
0.322261
0.324108
0.334187
0.334989
0.336235
0.337836
0.339624
0.342318
0.346938
0.346915
0.347373
0.348556
0.349873
0.351333
0.372913
0.374936
0.376882
0.37911
0.384144
0.368206
0.367392
0.368591
0.369044
0.36662
0.410935
0.410524
0.407813
0.40853
0.41619
0.346101
0.341621
0.342063
0.339858
0.338071
0.333457
0.327848
0.321392
0.277085
0.269265
0.273391
0.280087
)
;

boundaryField
{
    inlet
    {
        type            calculated;
        value           nonuniform List<scalar> 4(0.135239 0.130862 0.129833 0.128899);
    }
    outlet
    {
        type            calculated;
        value           nonuniform List<scalar> 0();
    }
    walls
    {
        type            calculated;
        value           uniform 0;
    }
    frontAndBack
    {
        type            empty;
    }
    procBoundary5to0
    {
        type            processor;
        value           nonuniform List<scalar> 4(0.0101238 0.0101857 0.0102505 0.0103299);
    }
    procBoundary5to1
    {
        type            processor;
        value           nonuniform List<scalar> 
13
(
0.00363524
0.00487851
0.00487851
0.00545248
0.00594248
0.00594248
0.00666193
0.00725629
0.00725629
0.0080411
0.00885623
0.00956993
0.00956993
)
;
    }
    procBoundary5to4
    {
        type            processor;
        value           nonuniform List<scalar> 
95
(
0.0100782
0.01004
0.0100142
0.0100142
0.0108417
0.0108302
0.0108302
0.0116817
0.0116902
0.0116902
0.0125728
0.0125728
0.0134831
0.0134831
0.0144043
0.0153718
0.0153718
0.0163757
0.0163757
0.017403
0.0184795
0.0184795
0.0195997
0.0207611
0.0207611
0.0219881
0.0232449
0.0232449
0.0245897
0.0260101
0.0274298
0.0274298
0.02899
0.0306397
0.0322553
0.0322553
0.0340742
0.0359998
0.0378587
0.0378587
0.0399892
0.0422475
0.0444045
0.0444045
0.0469122
0.0495728
0.0523959
0.0553911
0.0582215
0.0582215
0.0615634
0.0651107
0.0688753
0.0728698
0.0766774
0.0766774
0.0811496
0.0858935
0.0909242
0.0962559
0.101478
0.101478
0.107439
0.113742
0.120402
0.127432
0.134846
0.142658
0.150714
0.150714
0.159367
0.168451
0.177993
0.188035
0.19861
0.209724
0.221344
0.233837
0.233837
0.246414
0.25928
0.270716
0.281149
0.292518
0.304954
0.318337
0.33361
0.347285
0.371385
0.371385
0.369513
0.412016
0.350228
0.345202
0.277727
)
;
    }
    procBoundary5to6
    {
        type            processor;
        value           nonuniform List<scalar> 
86
(
0.0641747
0.176044
0.217775
0.224653
0.221754
0.220738
0.235368
0.114603
0.0621682
0.0219319
0
0
6.0134
0.43009
0.0714162
0.0306338
0.0256929
0.0256073
0.0266304
0.028157
0.0299231
0.031781
0.0335967
0.0352865
0.0366791
0.0377017
0.0384734
0.039231
0.0401676
0.0413723
0.0428638
0.0446048
0.0465245
0.0472818
0.0472818
0.0493396
0.0515727
0.0539887
0.0565958
0.0594056
0.06243
0.0656821
0.0691777
0.072932
0.076959
0.0812731
0.0842891
0.0842891
0.0891689
0.0943827
0.0999442
0.105869
0.112168
0.118862
0.12596
0.133476
0.13973
0.13973
0.14805
0.156817
0.166039
0.175721
0.185862
0.196464
0.205676
0.205676
0.217238
0.229342
0.241922
0.255004
0.268251
0.280214
0.289092
0.289092
0.300234
0.313525
0.326329
0.345017
0.354237
0.387031
0.370641
0.413157
0.327281
0.327281
0.321333
0.245284
)
;
    }
}


// ************************************************************************* //
