/*--------------------------------*- C++ -*----------------------------------*\
| =========                 |                                                 |
| \\      /  F ield         | OpenFOAM: The Open Source CFD Toolbox           |
|  \\    /   O peration     | Version:  2506                                  |
|   \\  /    A nd           | Website:  www.openfoam.com                      |
|    \\/     M anipulation  |                                                 |
\*---------------------------------------------------------------------------*/
FoamFile
{
    version     2.0;
    format      ascii;
    arch        "LSB;label=32;scalar=64";
    class       volVectorField;
    location    "100";
    object      U;
}
// * * * * * * * * * * * * * * * * * * * * * * * * * * * * * * * * * * * * * //

dimensions      [0 1 -1 0 0 0 0];

internalField   nonuniform List<vector> 
1340
(
(1.14154 21.837 -5.9919e-18)
(2.50482 24.1573 2.62344e-19)
(4.29303 26.4422 5.14593e-17)
(6.41654 28.3392 -1.90918e-16)
(8.82463 29.8997 1.53832e-16)
(11.4598 31.0666 1.27129e-16)
(14.1827 31.739 -2.46706e-16)
(16.9006 31.9359 9.00976e-16)
(19.5327 31.7034 -6.32594e-16)
(21.9957 31.0702 -4.47716e-16)
(24.2491 30.1073 2.43542e-16)
(26.2661 28.8873 1.35758e-15)
(28.0241 27.4635 5.38202e-16)
(29.4865 25.8534 4.95984e-16)
(30.593 24.042 1.19018e-15)
(31.3181 22.0582 1.03185e-15)
(31.6123 19.8959 -2.09223e-15)
(31.4293 17.5827 -7.39276e-15)
(30.6787 15.124 5.43173e-15)
(29.283 12.5709 -2.55905e-16)
(27.1161 9.96766 -1.00236e-15)
(24.1666 7.41655 -1.70934e-15)
(20.5508 5.06135 5.35263e-15)
(17.0451 3.10821 -1.30333e-15)
(14.9867 1.64012 8.67632e-16)
(14.5861 0.584337 -2.09849e-15)
(15.1642 -0.114859 1.37299e-16)
(16.0285 -0.552281 -1.04441e-15)
(16.7857 -0.865059 -4.23501e-15)
(17.2239 -1.13542 -6.01854e-15)
(17.1985 -1.3829 6.03346e-15)
(16.6906 -1.60121 2.07987e-15)
(15.7762 -1.77 8.52822e-16)
(14.5004 -1.8603 2.78169e-14)
(12.734 -1.82372 -3.94223e-15)
(0.135224 19.4139 3.1366e-17)
(-0.58713 16.7369 9.58883e-18)
(-0.947362 13.7586 -1.73092e-16)
(-0.840299 10.3891 2.11177e-16)
(-0.135302 6.9891 -6.77002e-16)
(1.07184 3.84739 1.57567e-15)
(2.58065 1.16572 3.41152e-15)
(6.70505 18.9344 -3.41e-18)
(8.21076 20.6861 4.65018e-17)
(10.1013 22.3355 -2.75196e-17)
(12.3318 23.7784 9.26776e-18)
(14.7943 24.943 -1.31534e-16)
(17.4912 25.7691 -1.17564e-16)
(20.3226 26.2027 -3.737e-16)
(23.1706 26.2488 7.2624e-17)
(25.98 25.9083 -3.42269e-16)
(28.6678 25.2182 -5.99875e-17)
(31.1789 24.2259 9.68511e-16)
(33.4862 22.9758 -1.33989e-15)
(35.5618 21.5085 -7.76104e-16)
(37.4172 19.9104 -8.15554e-18)
(39.0848 18.2509 4.92532e-16)
(40.5696 16.5544 -1.05405e-15)
(41.8372 14.86 -5.43639e-16)
(42.8612 13.2028 3.26918e-15)
(43.6151 11.5983 -5.44819e-16)
(44.0381 10.0714 -1.10997e-15)
(44.039 8.62239 -1.54269e-15)
(43.4725 7.23358 1.3089e-15)
(42.193 5.81647 -1.85451e-15)
(40.1306 4.28791 -1.64792e-16)
(37.556 2.75228 9.10993e-16)
(34.868 1.40884 8.86263e-16)
(32.1749 0.342066 6.67009e-17)
(29.5611 -0.468673 4.53126e-16)
(27.1483 -1.09449 1.07934e-15)
(25.0507 -1.57884 8.73607e-16)
(23.319 -1.93937 -8.5008e-16)
(21.8404 -2.19469 -1.00567e-16)
(20.367 -2.35573 1.12215e-14)
(18.7196 -2.41906 -8.08297e-15)
(16.6656 -2.35409 1.17112e-15)
(5.49361 17.1037 6.70555e-17)
(4.49755 15.1062 -2.0247e-16)
(3.73055 12.7942 -8.33732e-16)
(3.27826 10.2111 8.35253e-16)
(3.32986 7.47698 1.06566e-15)
(3.91995 4.7953 -2.26133e-17)
(8.49912 17.4812 5.19829e-18)
(9.56432 19.0153 -5.44786e-17)
(10.8995 20.542 1.37343e-18)
(12.4724 21.9849 -4.43365e-18)
(14.2482 23.2348 2.76516e-17)
(16.227 24.2699 1.0751e-16)
(18.3446 25.0446 3.60783e-16)
(20.5352 25.5172 1.79991e-17)
(22.746 25.6814 4.39915e-16)
(24.9202 25.5411 -8.72034e-16)
(27.0051 25.1109 -9.46252e-17)
(28.9649 24.417 -2.67608e-16)
(30.7668 23.4895 1.22493e-15)
(32.3895 22.3505 -2.81489e-16)
(33.8139 21.026 -3.6718e-16)
(35.025 19.551 -5.4753e-16)
(36.072 17.9216 1.7286e-15)
(36.9761 16.1692 -1.39505e-15)
(37.7756 14.3258 -8.42033e-16)
(38.4966 12.4542 2.19377e-15)
(39.207 10.6031 -1.75481e-15)
(39.9313 8.8311 -3.36244e-16)
(40.6236 7.12525 -4.18988e-16)
(41.0358 5.42989 5.75518e-16)
(40.8989 3.77853 -3.22877e-16)
(40.214 2.28323 5.15364e-16)
(39.1157 1.01599 -9.86256e-17)
(37.6762 -0.0250769 -7.38612e-17)
(35.852 -0.889233 1.29256e-15)
(33.5839 -1.59923 1.82897e-16)
(30.9342 -2.14733 -2.4943e-15)
(28.1358 -2.52707 2.55439e-15)
(25.4183 -2.74132 -6.09733e-16)
(22.8137 -2.79484 1.16095e-16)
(20.0726 -2.68686 -2.26861e-15)
(7.66723 15.8921 3.39833e-18)
(6.97219 14.1895 -1.43028e-16)
(6.46091 12.212 5.04082e-16)
(6.12634 10.0273 3.48972e-16)
(6.11306 7.73026 -1.00172e-15)
(6.45273 5.42912 -9.03014e-16)
(10.831 16.0557 3.22026e-17)
(11.8138 17.3589 -3.91474e-17)
(13.0296 18.6604 1.53087e-17)
(14.4619 19.8846 7.54682e-17)
(16.0797 20.9443 6.52761e-18)
(17.8908 21.8243 -8.73309e-17)
(19.8481 22.4764 -1.84868e-16)
(21.8998 22.8607 5.55611e-17)
(24.0036 22.9656 4.87942e-16)
(26.1079 22.7854 -3.10417e-16)
(28.1635 22.327 -5.85201e-16)
(30.1316 21.6069 -9.20663e-16)
(31.9771 20.647 1.05676e-15)
(33.6704 19.4731 1.83471e-15)
(35.1852 18.1184 -1.65695e-15)
(36.5103 16.6145 -7.4429e-16)
(37.616 15.0073 9.34428e-17)
(38.4621 13.3588 1.55664e-15)
(39.0323 11.7106 9.11903e-17)
(39.3382 10.0952 -2.28878e-15)
(39.4134 8.54411 3.06956e-15)
(39.3361 7.07998 -1.43937e-15)
(39.218 5.68966 3.08584e-16)
(39.1095 4.32509 1.21557e-15)
(38.9074 2.98245 -7.16647e-16)
(38.5102 1.73676 5.97578e-16)
(37.9525 0.662531 6.61358e-17)
(37.3215 -0.234685 -3.36256e-16)
(36.6345 -1.00318 -2.65813e-16)
(35.7863 -1.67702 -3.72114e-16)
(34.5753 -2.25298 4.08775e-16)
(32.7728 -2.70356 -4.08697e-15)
(30.2692 -2.99192 -4.03993e-15)
(27.2205 -3.08499 1.05375e-15)
(23.8094 -2.96979 3.69972e-15)
(10.0413 14.7111 -8.87354e-17)
(9.36665 13.2793 -2.35066e-17)
(8.83763 11.6078 5.62503e-16)
(8.45996 9.74947 -2.30822e-16)
(8.34878 7.79141 1.35202e-15)
(12.4544 14.9802 -4.66099e-17)
(13.2841 16.131 1.33931e-17)
(14.3133 17.2983 2.02797e-17)
(15.5173 18.4166 -7.56894e-17)
(16.8692 19.4077 1.54899e-17)
(18.3886 20.2703 -8.52654e-17)
(20.0367 20.9612 2.25761e-16)
(21.7739 21.4431 1.24738e-16)
(23.5727 21.7035 3.64112e-16)
(25.3903 21.7307 2.03945e-16)
(27.1879 21.5216 -6.93415e-17)
(28.9315 21.083 7.50774e-16)
(30.5869 20.4277 -1.60875e-15)
(32.1235 19.5728 1.11618e-16)
(33.5158 18.5411 1.74355e-15)
(34.7423 17.3576 -8.66484e-16)
(35.7839 16.0472 9.36241e-16)
(36.6461 14.6084 -1.97653e-16)
(37.3263 13.0553 6.25334e-17)
(37.8142 11.4255 2.30615e-15)
(38.1041 9.75967 -1.58561e-15)
(38.1973 8.10694 6.68422e-17)
(38.1123 6.49672 -3.45735e-16)
(37.8697 4.94418 -1.56902e-15)
(37.4624 3.48302 5.6781e-16)
(36.8837 2.17032 -1.89799e-15)
(36.1864 1.0462 -7.18608e-17)
(35.4592 0.101229 2.36873e-16)
(34.7731 -0.711468 -1.94025e-16)
(34.1497 -1.42451 3.47842e-15)
(33.5644 -2.04333 1.30422e-15)
(32.9136 -2.56236 -5.87309e-16)
(31.9223 -2.9597 -3.17719e-15)
(30.1474 -3.17724 4.67622e-15)
(27.2334 -3.14656 -3.02426e-15)
(11.7796 13.7985 2.39782e-17)
(11.1982 12.5515 -2.27303e-16)
(10.7224 11.0937 8.44659e-17)
(10.3566 9.47343 2.56876e-17)
(10.2005 7.77033 -1.86317e-15)
(13.9032 14.0432 3.24772e-17)
(14.6512 15.061 -6.78427e-17)
(15.5757 16.0995 1.30302e-18)
(16.6527 17.0974 -4.3606e-18)
(17.8558 17.9847 4.10735e-17)
(19.2117 18.7661 -1.92745e-17)
(20.6872 19.4009 -1.35047e-17)
(22.2508 19.8555 -2.40268e-16)
(23.8844 20.1157 -2.87802e-17)
(25.5532 20.1665 1.44854e-16)
(27.2246 19.9999 -2.51573e-16)
(28.8699 19.6159 3.17752e-16)
(30.4561 19.0195 1.13522e-15)
(31.9539 18.2209 6.07079e-16)
(33.3365 17.2353 -2.45748e-15)
(34.579 16.0822 1.66886e-15)
(35.663 14.782 5.47717e-16)
(36.5643 13.3726 -1.18896e-15)
(37.2564 11.906 5.24876e-16)
(37.7319 10.4192 1.2482e-16)
(37.994 8.9443 -4.89271e-16)
(38.059 7.5031 2.58205e-15)
(37.9464 6.09996 1.17764e-16)
(37.662 4.72433 2.08161e-15)
(37.1946 3.39103 -4.42305e-16)
(36.5429 2.15661 1.96273e-16)
(35.7489 1.07588 6.29489e-17)
(34.8834 0.158234 -2.06758e-17)
(34.0019 -0.627561 -1.09147e-15)
(33.1319 -1.31034 -8.74451e-16)
(32.3009 -1.89862 9.39581e-17)
(31.5575 -2.39214 2.94657e-15)
(30.9297 -2.78414 3.49647e-15)
(30.2966 -3.05245 1.63369e-15)
(28.9583 -3.13503 -1.55364e-15)
(13.2879 13.0004 -6.00024e-17)
(12.7539 11.9067 -3.5368e-17)
(12.303 10.6233 1.2887e-16)
(11.9403 9.19416 -3.18002e-16)
(15.1061 13.2481 -1.82254e-17)
(15.7778 14.1598 -2.59848e-18)
(16.6067 15.0965 5.67959e-17)
(17.5672 16.0009 -1.6025e-17)
(18.6323 16.8103 -4.99729e-17)
(19.8329 17.5347 -1.0489e-17)
(21.139 18.1387 -5.26048e-17)
(22.5242 18.5922 8.36734e-17)
(23.9776 18.8833 1.49848e-16)
(25.47 18.9973 -1.50344e-16)
(26.9755 18.9244 6.88171e-16)
(28.4707 18.6613 -3.84822e-16)
(29.9262 18.2089 -1.06416e-15)
(31.3149 17.5725 -1.92316e-15)
(32.611 16.763 2.88397e-15)
(33.7892 15.7957 -1.32303e-15)
(34.8266 14.6912 -1.80232e-15)
(35.7044 13.4714 -1.1682e-15)
(36.4131 12.1469 -8.75677e-16)
(36.9425 10.744 -1.29063e-16)
(37.2884 9.29511 -4.30736e-16)
(37.4533 7.83765 -2.97457e-15)
(37.4451 6.39943 1.19956e-15)
(37.263 4.99557 -3.26883e-15)
(36.8912 3.64993 2.59685e-16)
(36.3253 2.40844 2.77462e-16)
(35.5989 1.31509 -7.037e-17)
(34.7706 0.379397 2.31559e-16)
(33.8832 -0.424047 7.13398e-16)
(32.9477 -1.12028 1.29797e-16)
(31.9667 -1.71572 8.93628e-17)
(30.9668 -2.20858 -2.51012e-15)
(30.0095 -2.59336 3.9055e-15)
(29.2557 -2.85151 1.22508e-15)
(28.7301 -2.96667 1.89379e-15)
(14.5479 12.3154 1.5206e-18)
(14.06 11.3428 1.42989e-16)
(13.6363 10.1987 -1.45811e-16)
(13.2822 8.92302 7.23093e-16)
(16.1494 12.5501 -8.21094e-20)
(16.7634 13.3717 8.45653e-19)
(17.5194 14.2194 -2.17032e-18)
(18.3918 15.039 -2.99142e-17)
(19.3529 15.7738 1.33381e-17)
(20.4358 16.4373 -3.10045e-17)
(21.613 16.9969 -4.94531e-18)
(22.8618 17.4259 1.35886e-16)
(24.1762 17.7141 -3.41251e-16)
(25.5325 17.8468 -2.26092e-16)
(26.9095 17.8133 3.96467e-17)
(28.2889 17.6077 5.70059e-16)
(29.6454 17.2271 1.69133e-15)
(30.9549 16.672 2.48409e-15)
(32.193 15.9481 7.02076e-17)
(33.335 15.0652 -1.49021e-16)
(34.3575 14.0381 2.28398e-15)
(35.241 12.8835 2.0723e-15)
(35.9635 11.6335 -7.01316e-18)
(36.5096 10.3211 -2.10177e-15)
(36.8732 8.97706 7.20056e-16)
(37.0579 7.62781 8.68036e-16)
(37.0726 6.29184 -1.56287e-16)
(36.9217 4.97885 1.26992e-15)
(36.5965 3.70721 -7.01177e-16)
(36.092 2.5171 -3.29605e-16)
(35.4332 1.45164 -1.09609e-17)
(34.6688 0.526608 -3.59082e-16)
(33.8364 -0.274322 -1.13859e-16)
(32.9436 -0.970871 -2.14785e-15)
(31.9806 -1.56734 9.17506e-16)
(30.942 -2.05874 -2.05213e-15)
(29.8317 -2.43839 -4.41239e-15)
(28.7057 -2.68623 2.17773e-16)
(27.8775 -2.77531 -1.12631e-15)
(15.6345 11.7104 -2.34532e-17)
(15.1823 10.8384 -7.99273e-17)
(14.7809 9.8102 1.4005e-16)
(14.4358 8.66197 -5.54867e-16)
(17.0538 11.9335 -2.32892e-17)
(17.6188 12.6785 -5.489e-17)
(18.3131 13.4499 4.13887e-18)
(19.1107 14.1971 1.05553e-16)
(19.9838 14.8673 -2.81833e-17)
(20.9659 15.4771 2.03734e-17)
(22.0316 15.9968 9.13014e-17)
(23.1604 16.4027 1.44057e-16)
(24.3501 16.6871 -1.49052e-16)
(25.5802 16.8364 -3.93067e-17)
(26.8339 16.8401 -8.27403e-17)
(28.0973 16.6919 -1.4526e-15)
(29.3487 16.3869 3.84763e-16)
(30.567 15.9233 -1.59804e-15)
(31.7302 15.3035 -4.37184e-16)
(32.8147 14.534 5.45869e-16)
(33.7976 13.6261 -1.52954e-15)
(34.6575 12.5966 -8.60202e-16)
(35.3765 11.4626 -4.2333e-16)
(35.9399 10.2458 1.38542e-15)
(36.338 8.97232 1.0711e-16)
(36.5679 7.67163 6.36339e-16)
(36.6317 6.36959 1.19918e-15)
(36.5303 5.08616 -2.42325e-16)
(36.2575 3.84342 -7.00605e-18)
(35.811 2.67552 1.02126e-15)
(35.2122 1.61994 1.88077e-16)
(34.5042 0.694162 -3.73377e-17)
(33.7233 -0.112117 2.45206e-16)
(32.8814 -0.814734 -2.15847e-16)
(31.9723 -1.4174 -2.42089e-15)
(30.9858 -1.91435 4.40525e-15)
(29.9123 -2.29612 -4.43072e-15)
(28.7187 -2.54806 -4.27042e-15)
(27.4563 -2.62621 3.45269e-15)
(16.5762 11.1722 1.23804e-17)
(16.1548 10.3843 1.65874e-16)
(15.7738 9.45332 -6.10048e-17)
(20.5503 14.0602 2.93377e-17)
(21.4486 14.6194 8.37759e-18)
(22.4212 15.0992 -1.34039e-16)
(23.4494 15.4785 2.76217e-17)
(24.5333 15.7511 -1.12637e-16)
(25.6553 15.9045 2.7684e-16)
(26.8021 15.9292 -3.11921e-16)
(27.9632 15.8184 9.0842e-16)
(29.1203 15.5662 -7.50395e-17)
(30.2557 15.1685 -5.67987e-17)
(31.35 14.6249 -2.95798e-16)
(32.3811 13.9385 -1.41528e-16)
(33.3272 13.1169 5.32972e-16)
(34.1673 12.1721 1.09686e-15)
(34.8824 11.1206 1.18642e-15)
(35.4545 9.98655 7.85162e-16)
(35.871 8.79542 6.21483e-16)
(36.1271 7.57274 1.26912e-16)
(36.2224 6.34135 -8.07399e-16)
(36.157 5.12038 -1.82668e-17)
(35.9264 3.93053 5.15238e-16)
(35.5287 2.8017 -7.64049e-16)
(34.981 1.76875 -1.63025e-16)
(34.3198 0.851997 -1.29871e-16)
(33.5794 0.0473844 -2.50121e-16)
(32.7741 -0.656664 2.14165e-15)
(31.9039 -1.26245 1.97984e-15)
(30.9637 -1.76448 -1.04566e-15)
(29.9481 -2.15036 1.8043e-15)
(28.849 -2.40785 -6.06845e-16)
(27.4966 -2.50089 -1.81601e-15)
(22.7749 14.2933 4.59461e-17)
(23.7158 14.646 1.0791e-16)
(24.7071 14.9045 1.00364e-16)
(25.7334 15.0577 -3.45993e-16)
(26.7838 15.097 6.96147e-17)
(27.8507 15.0159 -3.06189e-16)
(28.9188 14.808 -8.96437e-17)
(29.9733 14.4684 -2.7483e-16)
(30.9974 13.9948 2.16179e-16)
(31.971 13.3879 3.81859e-16)
(32.874 12.6528 -8.96887e-17)
(33.6855 11.7984 -1.18961e-15)
(34.387 10.8386 -6.86759e-16)
(34.9608 9.79031 -7.65375e-16)
(35.3927 8.67536 -2.86289e-16)
(35.6747 7.51809 -6.00435e-16)
(35.803 6.34256 -1.0418e-16)
(35.7754 5.17089 9.46761e-16)
(35.5881 4.02465 2.19135e-17)
(35.2393 2.93002 4.78799e-16)
(34.7424 1.91829 9.05675e-17)
(34.128 1.01085 4.28457e-16)
(33.4267 0.208561 4.36842e-16)
(32.6542 -0.496181 -2.45397e-15)
(31.8133 -1.1041 -8.14454e-16)
(30.9042 -1.60968 -3.82477e-15)
(29.9206 -2.00036 3.82272e-15)
(28.8956 -2.25915 2.47338e-16)
(27.6669 -2.37064 1.47508e-15)
(24.8737 14.1321 2.59312e-16)
(25.8156 14.2805 1.49704e-16)
(26.7806 14.3279 2.36261e-16)
(27.7627 14.2678 -1.35812e-16)
(28.7492 14.0939 -5.48347e-16)
(29.7283 13.8006 1.21862e-15)
(30.6854 13.3844 -5.09208e-16)
(31.6026 12.8442 -5.46949e-16)
(32.4616 12.1825 -3.68517e-16)
(33.2425 11.4055 1.07069e-15)
(33.9272 10.524 1.33954e-15)
(34.4976 9.5531 3.79814e-16)
(34.9382 8.51301 -1.59258e-15)
(35.2385 7.42569 3.54602e-16)
(35.3929 6.31359 -7.20777e-17)
(35.3978 5.1986 2.91488e-16)
(35.2496 4.10167 -1.34425e-16)
(34.9463 3.04603 9.98086e-17)
(34.498 2.06 3.96309e-17)
(33.9298 1.16592 -2.29461e-16)
(33.2688 0.369113 3.77461e-16)
(32.5303 -0.3342 1.58806e-15)
(31.7185 -0.942967 3.74014e-17)
(30.8366 -1.45059 3.93496e-15)
(29.8765 -1.84609 1.59598e-15)
(28.8748 -2.10628 -1.64317e-15)
(27.7757 -2.22594 -2.04457e-15)
(25.8971 13.5673 2.69378e-16)
(26.7853 13.6184 -6.11195e-16)
(27.6908 13.5735 -5.14889e-17)
(28.6024 13.4265 8.39756e-16)
(29.5105 13.1718 -4.1455e-16)
(30.4031 12.8049 4.67316e-16)
(31.2645 12.3237 8.81581e-16)
(32.0781 11.7285 -1.96932e-15)
(32.8254 11.0235 -6.90594e-16)
(33.4885 10.2173 -1.51471e-15)
(34.0505 9.32146 -4.73105e-16)
(34.4947 8.35313 1.28439e-15)
(34.8092 7.33232 -5.2796e-17)
(34.9862 6.28061 -3.23634e-16)
(35.0209 5.22009 -8.8774e-16)
(34.9091 4.17129 5.70444e-17)
(34.6487 3.15483 -4.85252e-16)
(34.2471 2.19613 -1.39653e-17)
(33.7244 1.31784 -6.89802e-17)
(33.1041 0.528768 -6.78737e-16)
(32.4013 -0.171195 -2.77536e-16)
(31.6208 -0.779483 1.91384e-16)
(30.7673 -1.28809 5.95493e-16)
(29.8348 -1.68711 -2.32546e-15)
(28.8418 -1.95168 -2.86632e-15)
(27.8061 -2.07127 -1.08289e-16)
(26.7958 12.9619 6.98335e-17)
(27.6317 12.9275 -1.43328e-16)
(28.4749 12.8015 -3.19291e-16)
(29.3172 12.5781 4.01531e-16)
(30.1488 12.2527 -1.83234e-15)
(30.9563 11.822 -2.75413e-16)
(31.7245 11.2853 7.51675e-16)
(32.4367 10.6446 -3.5435e-16)
(33.0757 9.90634 3.45579e-16)
(33.6252 9.07981 -2.70328e-18)
(34.0686 8.17986 -3.78906e-16)
(34.3923 7.22444 3.60356e-16)
(34.5874 6.23366 1.97122e-16)
(34.6478 5.22881 4.93063e-16)
(34.569 4.22949 1.03434e-16)
(34.3484 3.25392 2.16976e-17)
(33.9908 2.32507 -7.11468e-17)
(33.5122 1.46548 1.17993e-16)
(32.9325 0.686753 1.75475e-16)
(32.266 -0.0078741 3.18798e-16)
(31.5185 -0.614197 -1.1778e-15)
(30.6946 -1.12301 -1.51508e-15)
(29.7935 -1.5239 8.83899e-16)
(28.8188 -1.79461 8.49597e-15)
(27.8012 -1.91332 1.50194e-15)
(26.8087 12.3534 -2.12236e-16)
(27.5819 12.3263 -9.82982e-17)
(28.3626 12.2167 2.09331e-16)
(29.1442 12.019 -4.74156e-16)
(29.9183 11.7288 4.05853e-16)
(30.6736 11.342 -3.42149e-16)
(31.3969 10.857 8.24525e-16)
(32.073 10.2744 2.19671e-15)
(32.6856 9.59863 1.45424e-15)
(33.2195 8.83704 2.49767e-16)
(33.658 8.00194 -2.88915e-16)
(33.9869 7.10938 -3.05049e-17)
(34.1961 6.17795 -8.42502e-16)
(34.2787 5.22804 1.95275e-17)
(34.2298 4.27816 3.51978e-16)
(34.0459 3.3443 6.09632e-17)
(33.7299 2.44705 1.75817e-17)
(33.2938 1.60855 4.26741e-18)
(32.7543 0.842569 -6.85293e-16)
(32.1245 0.155227 -1.3685e-15)
(31.4109 -0.447547 3.36317e-16)
(30.6179 -0.955711 2.32197e-16)
(29.7482 -1.35726 -2.10699e-15)
(28.8034 -1.63359 -7.90221e-15)
(27.7939 -1.75506 -1.71204e-15)
(27.5393 11.7661 2.51368e-16)
(28.2625 11.669 -2.01905e-16)
(28.9879 11.4925 -6.55305e-17)
(29.7082 11.2319 3.87954e-16)
(30.4139 10.8831 1.68721e-15)
(31.0933 10.4436 -2.135e-15)
(31.7331 9.91287 8.48113e-17)
(32.3179 9.29384 -1.04629e-15)
(32.8335 8.59231 1.69372e-16)
(33.2638 7.81826 -1.0876e-15)
(33.5941 6.986 -2.84976e-16)
(33.8137 6.11254 -5.25498e-17)
(33.9149 5.21699 1.94266e-16)
(33.8924 4.31657 -4.64634e-16)
(33.7422 3.42526 4.66789e-17)
(33.465 2.56137 2.67707e-17)
(33.0698 1.74637 -8.89411e-17)
(32.5697 0.995558 6.61699e-16)
(31.9767 0.317523 6.75002e-16)
(31.2976 -0.280028 1.20192e-15)
(30.5368 -0.786442 7.36697e-16)
(29.6981 -1.18802 1.44462e-15)
(28.7881 -1.46829 2.95702e-15)
(27.7945 -1.59631 1.90149e-15)
(28.1723 11.1563 -1.10701e-16)
(28.8455 10.9971 3.27325e-17)
(29.5159 10.7616 6.1709e-16)
(30.1745 10.4456 -5.00851e-16)
(30.8115 10.0461 1.84513e-15)
(31.4152 9.56188 -9.18409e-16)
(31.9714 8.99445 3.97209e-16)
(32.4668 8.34835 2.92746e-16)
(32.886 7.63153 1.5435e-15)
(33.2146 6.85666 3.57291e-16)
(33.4411 6.03918 7.33866e-16)
(33.5575 5.19688 -1.95371e-16)
(33.5579 4.34553 -4.36861e-16)
(33.4382 3.49714 2.96759e-16)
(33.1972 2.66795 1.98425e-17)
(32.8407 1.87851 -2.67066e-16)
(32.3793 1.14515 -4.52074e-16)
(31.8231 0.478445 1.33193e-15)
(31.1788 -0.11221 -8.43594e-16)
(30.4513 -0.615507 -4.55532e-16)
(29.6439 -1.01661 -1.63537e-15)
(28.7691 -1.29925 3.05915e-16)
(27.8016 -1.43565 3.14269e-16)
(28.0897 10.6758 1.35524e-16)
(28.7152 10.5309 8.56207e-17)
(29.3389 10.3167 -9.91722e-16)
(29.9533 10.029 4.59089e-16)
(30.5497 9.6648 -1.67669e-15)
(31.1178 9.2221 6.50217e-16)
(31.6451 8.70148 -7.2691e-16)
(32.1187 8.10635 -7.27293e-16)
(32.5247 7.44295 2.49206e-16)
(32.8487 6.72245 -1.40137e-15)
(33.0791 5.95878 -8.21911e-16)
(33.2073 5.16832 3.96608e-16)
(33.2276 4.3654 6.08331e-16)
(33.1351 3.56011 7.09237e-17)
(32.9273 2.76668 8.40935e-18)
(32.6076 2.00462 2.11271e-16)
(32.1836 1.29082 -9.08007e-17)
(31.6638 0.637439 -9.81494e-16)
(31.0546 0.0553391 -1.80387e-16)
(30.3612 -0.443429 -6.59126e-16)
(29.5861 -0.843392 -3.69978e-17)
(28.7454 -1.12734 -2.47447e-16)
(27.8112 -1.27218 -1.95824e-16)
(28.5949 10.0926 1.8581e-16)
(29.175 9.89632 3.00353e-16)
(29.7478 9.63325 -1.59346e-16)
(30.3055 9.30006 1.68671e-15)
(30.8391 8.89446 -4.08905e-16)
(31.3374 8.41621 6.67708e-16)
(31.7885 7.8677 -7.55078e-16)
(32.1796 7.25396 3.58861e-16)
(32.4967 6.5847 1.32074e-15)
(32.7281 5.87239 7.42105e-16)
(32.8652 5.13208 -4.34224e-16)
(32.9022 4.37663 -2.19179e-16)
(32.8338 3.61431 -3.90146e-16)
(32.6565 2.85744 1.15868e-17)
(32.3712 2.12435 -1.31849e-16)
(31.9832 1.43207 3.14117e-16)
(31.4994 0.793944 2.27888e-16)
(30.9253 0.222053 4.53414e-16)
(30.2664 -0.270742 3.89754e-16)
(29.5247 -0.668688 -3.14093e-16)
(28.7177 -0.953221 -4.58302e-17)
(27.8205 -1.1056 -1.47027e-15)
(28.4827 9.68012 9.35804e-16)
(29.0225 9.49941 -2.29098e-16)
(29.5564 9.2577 4.57951e-16)
(30.0775 8.95182 -5.09118e-16)
(30.5779 8.57928 -5.88827e-16)
(31.0476 8.13933 -8.87732e-16)
(31.4757 7.63351 1.43328e-15)
(31.8505 7.0658 -1.30032e-15)
(32.1587 6.44461 7.64015e-16)
(32.3887 5.78107 -6.49013e-16)
(32.5321 5.08902 1.60615e-17)
(32.5827 4.37988 -2.02398e-17)
(32.5355 3.66013 8.16663e-17)
(32.3857 2.9403 2.63693e-17)
(32.1325 2.23745 3.06184e-17)
(31.779 1.56844 -2.57399e-16)
(31.3303 0.947378 1.55855e-18)
(30.7912 0.387335 -5.14941e-16)
(30.167 -0.0980562 1.14037e-16)
(29.4597 -0.492947 1.65418e-15)
(28.6863 -0.77756 -8.0276e-18)
(27.8278 -0.936208 -2.80275e-16)
(28.8802 9.12487 -6.45841e-17)
(29.3774 8.90169 -9.03233e-16)
(29.864 8.61993 1.4252e-16)
(30.3324 8.27696 9.20856e-17)
(30.7742 7.87166 1.41066e-16)
(31.1791 7.40481 4.59453e-16)
(31.5368 6.87964 9.96715e-16)
(31.8346 6.30337 -1.91822e-15)
(32.0612 5.68597 4.34619e-16)
(32.2082 5.04008 -6.50239e-17)
(32.2699 4.37579 6.34379e-16)
(32.2409 3.69797 2.56591e-17)
(32.1158 3.01539 -1.50636e-17)
(31.8924 2.34378 2.34388e-16)
(31.5717 1.69956 3.73015e-16)
(31.1572 1.09725 3.53605e-16)
(30.6527 0.550638 -1.9899e-17)
(30.0632 0.0740364 -1.02455e-15)
(29.3909 -0.31665 -1.83166e-15)
(28.6515 -0.600796 5.44266e-16)
(27.8322 -0.764452 1.01476e-15)
(28.7464 8.77152 -6.13439e-16)
(29.2095 8.56475 1.60916e-16)
(29.6635 8.30431 6.15761e-16)
(30.1016 7.98771 -7.63978e-16)
(30.5162 7.61362 2.62927e-16)
(30.8982 7.18229 -4.99933e-16)
(31.2382 6.69638 -1.55094e-15)
(31.5243 6.16197 1.98433e-16)
(31.7457 5.58806 -1.6034e-16)
(31.8943 4.98617 -2.00144e-16)
(31.9645 4.36513 -5.46636e-16)
(31.951 3.72832 -1.73156e-16)
(31.848 3.0829 5.93581e-17)
(31.6518 2.44325 -9.95901e-17)
(31.362 1.82508 -3.5782e-16)
(30.9805 1.24304 -1.57014e-16)
(30.5101 0.711377 1.0241e-15)
(29.9554 0.244935 1.13199e-15)
(29.3184 -0.140373 2.87551e-15)
(28.6135 -0.423486 -3.63132e-16)
(27.8335 -0.591045 -1.00108e-16)
(29.0516 8.24604 -6.97244e-16)
(29.4747 8.00447 -2.84606e-16)
(29.884 7.71148 -1.27023e-16)
(30.2726 7.36559 2.11098e-16)
(30.632 6.96663 8.13565e-16)
(30.9539 6.51682 6.17241e-16)
(31.2275 6.02134 4.57566e-16)
(31.4423 5.48826 6.16506e-16)
(31.5906 4.92812 4.99617e-16)
(31.6669 4.34855 4.77766e-16)
(31.6664 3.75168 1.02992e-16)
(31.5828 3.14312 -5.53069e-17)
(31.4116 2.53585 -1.47472e-16)
(31.1508 1.94476 3.7548e-16)
(30.801 1.38433 -4.24858e-16)
(30.364 0.869044 -3.93585e-16)
(29.8436 0.414065 5.23253e-16)
(29.2422 0.0353258 1.06581e-15)
(28.5723 -0.246046 1.07294e-15)
(27.8311 -0.416565 -9.19012e-16)
(28.9024 7.94479 5.66695e-16)
(29.2966 7.72015 -3.19018e-16)
(29.6788 7.44836 3.08361e-16)
(30.0423 7.12795 -3.76253e-16)
(30.3797 6.75853 -7.59243e-16)
(30.6835 6.3419 3.27028e-16)
(30.9439 5.8825 2.02216e-16)
(31.151 5.3876 -5.65173e-16)
(31.2973 4.86682 -3.99592e-17)
(31.3779 4.32686 -2.12464e-16)
(31.388 3.76863 -8.30163e-17)
(31.3214 3.19634 1.06303e-17)
(31.1727 2.62159 1.48743e-16)
(30.939 2.05835 -1.6796e-16)
(30.6194 1.52069 5.5586e-16)
(30.2148 1.02308 -6.92744e-17)
(29.7283 0.580771 -2.96871e-16)
(29.1623 0.209782 -2.49903e-15)
(28.5279 -0.0690784 -9.6056e-16)
(27.8252 -0.241733 8.88923e-16)
(28.7611 7.66034 1.93985e-16)
(29.1283 7.45082 -2.74007e-16)
(29.4847 7.19807 7.69659e-16)
(29.8244 6.90069 -3.29712e-16)
(30.1406 6.55821 5.14628e-16)
(30.4265 6.17204 -2.31347e-16)
(30.6733 5.74603 -6.00655e-16)
(30.8718 5.28681 1.51942e-16)
(31.0149 4.80316 -2.93242e-17)
(31.0979 4.30089 4.24882e-17)
(31.1166 3.77987 9.69044e-17)
(31.0646 3.24305 -8.1145e-18)
(30.9362 2.70071 -8.18659e-17)
(30.7274 2.1658 -1.34581e-16)
(30.4364 1.65184 -5.26108e-16)
(30.0631 1.173 -2.18678e-16)
(29.61 0.744576 7.37378e-17)
(29.079 0.382424 8.2222e-17)
(28.4802 0.106952 5.9959e-16)
(27.8157 -0.0671761 6.23782e-16)
(28.969 7.19607 8.49355e-16)
(29.3009 6.96046 1.41376e-16)
(29.6179 6.68399 2.73729e-16)
(29.9138 6.36605 -4.86208e-16)
(30.1821 6.00783 -1.38918e-17)
(30.4151 5.61269 5.75134e-16)
(30.6044 5.18669 2.93421e-16)
(30.7431 4.73787 -2.33442e-16)
(30.8271 4.27127 -2.03601e-16)
(30.8524 3.78591 -3.86536e-17)
(30.813 3.28358 3.46374e-17)
(30.7026 2.77334 1.36794e-16)
(30.5168 2.26704 1.29479e-17)
(30.2527 1.77744 5.32926e-16)
(29.9096 1.31839 -6.18992e-16)
(29.4889 0.904865 -1.30036e-15)
(28.9926 0.552606 1.64793e-16)
(28.4294 0.281441 -7.53531e-16)
(27.8027 0.106461 -1.16701e-15)
(28.8176 6.95515 -2.50524e-16)
(29.1266 6.73515 -7.17749e-17)
(29.4222 6.47767 6.53573e-16)
(29.6985 6.18214 -3.94733e-16)
(29.9497 5.84959 6.80688e-17)
(30.169 5.48302 -3.13993e-16)
(30.3486 5.08792 -1.97606e-16)
(30.4822 4.67169 6.17699e-17)
(30.5658 4.23879 2.14266e-16)
(30.5961 3.78743 -1.10862e-17)
(30.5672 3.31846 -4.36348e-17)
(30.4728 2.83974 -9.27226e-17)
(30.3079 2.36206 6.98531e-17)
(30.0691 1.89732 -7.344e-17)
(29.7548 1.45882 9.71664e-16)
(29.3657 1.06116 1.10382e-15)
(28.9033 0.719793 -5.18698e-17)
(28.3755 0.453774 -3.1587e-16)
(27.7864 0.278615 2.68553e-16)
(28.6737 6.72775 -2.82386e-16)
(28.9612 6.52192 -1.32785e-15)
(29.2364 6.28173 -2.75595e-16)
(29.4942 6.00669 -2.44684e-16)
(29.7289 5.6977 7.35824e-16)
(29.9347 5.35749 7.94011e-16)
(30.1044 4.99107 -2.45935e-16)
(30.232 4.60534 -1.29842e-16)
(30.3143 4.20413 1.13013e-16)
(30.3481 3.78509 -1.7355e-16)
(30.328 3.34819 3.01671e-17)
(30.2476 2.90024 1.04439e-16)
(30.1017 2.45093 -1.33897e-16)
(29.8863 2.01131 -2.67657e-16)
(29.5993 1.59397 -4.51685e-17)
(29.2406 1.21294 -1.17216e-15)
(28.8115 0.883333 -6.70379e-16)
(28.3187 0.623398 2.65551e-16)
(27.7666 0.448681 8.92588e-16)
(28.8041 6.32032 5.18552e-17)
(29.0599 6.09589 4.74287e-16)
(29.3 5.83963 2.5647e-16)
(29.519 5.5523 -8.87817e-16)
(29.7115 5.2364 -3.02119e-16)
(29.8711 4.89662 4.63774e-16)
(29.9925 4.5393 -1.20001e-16)
(30.0725 4.16783 -9.13651e-17)
(30.1085 3.7794 4.6514e-17)
(30.0957 3.37324 -2.67807e-17)
(30.0276 2.95514 -1.06773e-20)
(29.8988 2.53381 -1.02564e-16)
(29.7052 2.11934 2.03517e-16)
(29.4439 1.72356 -3.14253e-16)
(29.1144 1.35985 5.05832e-16)
(28.7175 1.04273 -4.26915e-16)
(28.2589 0.789701 1.78945e-16)
(27.7435 0.616123 -7.01427e-16)
(28.6544 6.12998 2.78307e-16)
(28.8921 5.92005 -6.19626e-16)
(29.1155 5.68099 3.755e-16)
(29.3194 5.41357 5.24624e-16)
(29.499 5.12013 -2.63182e-17)
(29.6486 4.80502 2.03914e-16)
(29.7633 4.47416 -1.29826e-16)
(29.8404 4.13055 7.3058e-17)
(29.8777 3.77097 -2.91677e-17)
(29.8706 3.39409 1.22815e-17)
(29.8132 3.0048 -2.23036e-17)
(29.6998 2.61082 -8.28852e-17)
(29.5262 2.22135 2.19807e-16)
(29.2891 1.84735 -3.50464e-17)
(28.9875 1.50144 -4.77009e-16)
(28.6217 1.19751 1.8164e-15)
(28.1966 0.952112 -6.8973e-16)
(27.717 0.780415 -4.41744e-17)
(28.5118 5.95049 -1.81738e-16)
(28.7326 5.75389 2.16137e-16)
(28.94 5.53066 -1.84941e-16)
(29.1296 5.28157 -3.59099e-16)
(29.2969 5.00888 6.38824e-17)
(29.4366 4.71665 -6.47549e-16)
(29.5445 4.41037 3.0586e-16)
(29.6182 4.09277 -1.46311e-16)
(29.6558 3.76036 -8.69636e-17)
(29.6534 3.41125 3.44815e-18)
(29.605 3.04959 -4.10712e-17)
(29.5054 2.68222 1.16481e-16)
(29.3501 2.31739 -2.68215e-16)
(29.1356 1.96519 -1.41777e-17)
(28.8604 1.6374 2.15435e-16)
(28.5244 1.34718 4.38182e-16)
(28.1318 1.11014 2.89372e-16)
(27.6873 0.940986 5.65934e-16)
(28.5808 5.59719 -3.07772e-16)
(28.7731 5.38851 -3.39958e-16)
(28.9491 5.15631 9.40328e-16)
(29.1045 4.90275 1.11282e-16)
(29.2347 4.63169 -1.00007e-16)
(29.3357 4.34829 -3.10199e-18)
(29.4055 4.05494 -7.477e-17)
(29.4429 3.74799 8.08754e-17)
(29.444 3.42516 -1.0123e-17)
(29.4035 3.08991 3.01361e-17)
(29.3162 2.74823 -8.10218e-17)
(29.1775 2.40752 -5.2796e-17)
(28.9839 2.07696 2.40621e-17)
(28.7336 1.76748 7.14879e-16)
(28.4262 1.49137 -1.23079e-15)
(28.0649 1.26328 -1.84374e-17)
(27.6543 1.09733 -4.45995e-16)
(28.4361 5.4495 7.70044e-17)
(28.6143 5.2543 4.29667e-16)
(28.7774 5.0377 -3.82639e-16)
(28.9216 4.80184 1.10216e-16)
(29.0425 4.55038 5.47609e-16)
(29.1366 4.2882 2.55456e-16)
(29.2024 4.01745 1.18486e-16)
(29.2389 3.73433 -6.31525e-17)
(29.2427 3.43626 5.76721e-18)
(29.2088 3.12611 2.74847e-17)
(29.1323 2.80913 1.85644e-17)
(29.0088 2.49186 1.27638e-16)
(28.8347 2.18264 3.73369e-16)
(28.6078 1.89145 -5.82245e-16)
(28.3275 1.62975 1.14595e-15)
(27.9962 1.4111 -3.09832e-16)
(27.6183 1.249 3.65127e-16)
(28.2983 5.31058 -1.92966e-15)
(28.4632 5.12787 1.57421e-16)
(28.6142 4.92571 2.33426e-16)
(28.7476 4.70623 -4.42842e-16)
(28.8596 4.47293 1.99732e-16)
(28.947 4.23044 -2.44083e-16)
(29.0086 3.98068 6.53663e-18)
(29.0438 3.71979 -3.12928e-17)
(29.0496 3.44497 -2.71354e-18)
(29.0213 3.15859 2.32164e-17)
(28.9544 2.8652 7.16826e-17)
(28.8446 2.57058 1.6306e-16)
(28.6883 2.2822 -3.56882e-16)
(28.4833 2.00917 6.59098e-17)
(28.2285 1.762 6.59952e-17)
(27.926 1.55322 1.04273e-16)
(28.3195 5.00896 -2.83534e-16)
(28.4589 4.82019 -5.64316e-16)
(28.5822 4.61587 5.51574e-17)
(28.6857 4.39938 -3.32807e-16)
(28.7666 4.17512 2.93295e-16)
(28.8241 3.94486 -1.42453e-16)
(28.8576 3.70468 3.75402e-17)
(28.8647 3.45165 -3.4971e-19)
(28.8412 3.18768 -5.1185e-17)
(28.7827 2.91672 -8.74789e-17)
(28.6852 2.64386 3.66929e-18)
(28.5453 2.37573 -2.62022e-16)
(28.3606 2.12054 1.96112e-16)
(28.1299 1.88793 -8.87641e-16)
(27.8545 1.68929 2.64087e-16)
(28.1826 4.89726 3.56772e-16)
(28.3113 4.72096 6.01128e-16)
(28.425 4.53071 -4.71276e-16)
(28.5205 4.32976 2.76059e-16)
(28.5951 4.1224 -2.70637e-16)
(28.6484 3.91021 2.25417e-17)
(28.6801 3.68929 -1.50612e-17)
(28.688 3.45662 -1.76555e-17)
(28.6685 3.21371 2.08062e-17)
(28.6174 2.96399 -2.61981e-17)
(28.531 2.71188 5.39734e-17)
(28.4061 2.46328 3.75674e-16)
(28.2401 2.22554 -4.69857e-17)
(28.0319 2.00735 2.26555e-16)
(27.7822 1.81908 -3.44818e-16)
(28.0523 4.79253 4.44927e-16)
(28.1709 4.6278 -3.65322e-16)
(28.2757 4.45062 6.39491e-16)
(28.3635 4.26412 -5.6386e-16)
(28.4322 4.07242 -1.29474e-16)
(28.4814 3.87696 -4.16276e-18)
(28.5111 3.67392 -1.22864e-16)
(28.5195 3.46019 -2.19733e-18)
(28.5033 3.23699 4.65033e-17)
(28.4587 3.00728 -2.5079e-17)
(28.3822 2.77489 -9.34334e-17)
(28.2709 2.54502 -3.01648e-16)
(28.1222 2.32418 -3.51782e-16)
(27.9349 2.12019 4.72109e-16)
(27.7093 1.94238 1.8824e-16)
(27.9283 4.69452 -1.13436e-15)
(28.0375 4.54052 -8.96979e-17)
(28.1338 4.37548 -3.60171e-16)
(28.2145 4.2024 3.57687e-16)
(28.2776 4.0252 9.58425e-17)
(28.3228 3.84524 1.95704e-16)
(28.3505 3.65875 1.15448e-16)
(28.3591 3.46262 -2.12956e-17)
(28.3455 3.25781 -1.32228e-17)
(28.3066 3.04688 6.95936e-17)
(28.2391 2.83312 -2.73895e-16)