/*--------------------------------*- C++ -*----------------------------------*\
| =========                 |                                                 |
| \\      /  F ield         | OpenFOAM: The Open Source CFD Toolbox           |
|  \\    /   O peration     | Version:  2506                                  |
|   \\  /    A nd           | Website:  www.openfoam.com                      |
|    \\/     M anipulation  |                                                 |
\*---------------------------------------------------------------------------*/
FoamFile
{
    version     2.0;
    format      ascii;
    arch        "LSB;label=32;scalar=64";
    class       volScalarField;
    location    "150";
    object      magR;
}
// * * * * * * * * * * * * * * * * * * * * * * * * * * * * * * * * * * * * * //

dimensions      [0 2 -2 0 0 0 0];

internalField   nonuniform List<scalar> 
1340
(
0.0005758
0.000569114
0.000561864
0.00055294
0.000540635
0.000488623
0.000482607
0.000476296
0.000468804
0.000458555
0.00044662
0.000417439
0.00041204
0.000406484
0.000400109
0.000391537
0.000381759
0.000371223
0.000358637
0.00035382
0.000348916
0.000343445
0.000336224
0.000328152
0.000319559
0.000310264
0.000309653
0.000305341
0.00030102
0.000296279
0.000290163
0.000283453
0.000276362
0.000268721
0.000260577
0.000268524
0.000264652
0.000260839
0.000256714
0.000251494
0.000245875
0.000239963
0.000233632
0.000226983
0.000220199
0.000233735
0.000230275
0.000226889
0.000223291
0.00021881
0.000214071
0.000209093
0.000203802
0.00019834
0.00019278
0.000204131
0.000201047
0.000198031
0.000194878
0.000191018
0.000186985
0.000182761
0.000178314
0.000173783
0.000169235
0.000164673
0.000178804
0.000176054
0.000173362
0.000170586
0.000167248
0.000163794
0.000160184
0.000156425
0.000152639
0.000148885
0.00014511
0.000157033
0.000154574
0.00015217
0.000149717
0.000146823
0.000143842
0.00014074
0.000137541
0.000134359
0.000131229
0.000128121
0.000125061
0.000138231
0.000136037
0.000133886
0.000131712
0.000129195
0.000126605
0.000123926
0.000121188
0.000118491
0.000115862
0.000113284
0.000110734
0.000121932
0.000119974
0.000118049
0.000116119
0.000113922
0.00011166
0.000109333
0.000106977
0.000104679
0.000102457
0.000100299
9.81604e-05
0.000107752
0.000106009
0.000104283
0.000102565
0.000100639
9.86572e-05
9.66281e-05
9.45897e-05
9.26183e-05
9.07279e-05
8.89023e-05
8.7122e-05
8.53887e-05
9.53809e-05
9.38271e-05
9.22809e-05
9.07488e-05
8.90539e-05
8.73101e-05
8.55345e-05
8.37606e-05
8.20605e-05
8.04416e-05
7.88879e-05
7.73927e-05
7.59125e-05
8.45569e-05
8.31691e-05
8.17884e-05
8.04179e-05
7.89216e-05
7.73829e-05
7.58226e-05
7.42724e-05
7.27962e-05
7.13997e-05
7.00698e-05
6.87981e-05
6.75556e-05
6.63503e-05
7.50632e-05
7.38223e-05
7.25893e-05
7.13618e-05
7.00375e-05
6.86757e-05
6.72987e-05
6.59396e-05
6.46521e-05
6.34399e-05
6.22935e-05
6.12024e-05
6.01497e-05
5.91109e-05
6.67156e-05
6.56069e-05
6.45054e-05
6.34047e-05
6.22293e-05
6.10213e-05
5.98026e-05
5.86068e-05
5.74774e-05
5.64198e-05
5.54245e-05
5.44832e-05
5.35824e-05
5.26851e-05
5.9363e-05
5.83693e-05
5.73862e-05
5.63989e-05
5.53521e-05
5.42789e-05
5.31975e-05
5.21415e-05
5.1148e-05
5.02204e-05
4.93506e-05
4.85329e-05
4.7754e-05
4.6988e-05
4.62396e-05
5.28746e-05
5.19809e-05
5.11036e-05
5.02184e-05
4.92844e-05
4.83295e-05
4.7369e-05
4.64327e-05
4.55551e-05
4.47376e-05
4.39733e-05
4.32585e-05
4.25791e-05
4.19207e-05
4.12646e-05
4.71368e-05
4.6333e-05
4.55503e-05
4.47571e-05
4.39218e-05
4.30708e-05
4.22164e-05
4.13843e-05
4.06065e-05
3.9883e-05
3.92085e-05
3.858e-05
3.79842e-05
3.74117e-05
3.68342e-05
4.20546e-05
4.13327e-05
4.06336e-05
3.99234e-05
3.91751e-05
3.84162e-05
3.76549e-05
3.69142e-05
3.62225e-05
3.55802e-05
3.4982e-05
3.44259e-05
3.39024e-05
3.33996e-05
3.29002e-05
3.24054e-05
3.75472e-05
3.68991e-05
3.62741e-05
3.56383e-05
3.49685e-05
3.42906e-05
3.36114e-05
3.29513e-05
3.23348e-05
3.17627e-05
3.12303e-05
3.0737e-05
3.02733e-05
2.98282e-05
2.93975e-05
2.89514e-05
3.29625e-05
3.24039e-05
3.18348e-05
3.1235e-05
3.06294e-05
3.00231e-05
2.94338e-05
2.88837e-05
2.83729e-05
2.78976e-05
2.74578e-05
2.70457e-05
2.66526e-05
2.6271e-05
2.58842e-05
2.54956e-05
2.94627e-05
2.89641e-05
2.84546e-05
2.79177e-05
2.73769e-05
2.68352e-05
2.63087e-05
2.58174e-05
2.53606e-05
2.49355e-05
2.45423e-05
2.41745e-05
2.38251e-05
2.3486e-05
2.31492e-05
2.27998e-05
2.63484e-05
2.59032e-05
2.54475e-05
2.49671e-05
2.44842e-05
2.40004e-05
2.35302e-05
2.30905e-05
2.26815e-05
2.23007e-05
2.19481e-05
2.16192e-05
2.13079e-05
2.10058e-05
2.07082e-05
2.03969e-05
2.35742e-05
2.31767e-05
2.27694e-05
2.23401e-05
2.1909e-05
2.14771e-05
2.1057e-05
2.06636e-05
2.02974e-05
1.99558e-05
1.96396e-05
1.93449e-05
1.90658e-05
1.87972e-05
1.8533e-05
1.82614e-05
1.79856e-05
2.11008e-05
2.0746e-05
2.03824e-05
1.9999e-05
1.96146e-05
1.92294e-05
1.8854e-05
1.85024e-05
1.81743e-05
1.7868e-05
1.7584e-05
1.73196e-05
1.70698e-05
1.68303e-05
1.65945e-05
1.63575e-05
1.61096e-05
1.88939e-05
1.85773e-05
1.82529e-05
1.79111e-05
1.75685e-05
1.72251e-05
1.68903e-05
1.65761e-05
1.62826e-05
1.6008e-05
1.57532e-05
1.55158e-05
1.52917e-05
1.5078e-05
1.4868e-05
1.46586e-05
1.44372e-05
1.69233e-05
1.66407e-05
1.63515e-05
1.60473e-05
1.57425e-05
1.54369e-05
1.51387e-05
1.48585e-05
1.45961e-05
1.435e-05
1.41215e-05
1.39087e-05
1.3708e-05
1.35168e-05
1.33304e-05
1.31447e-05
1.2952e-05
1.27538e-05
1.51621e-05
1.49103e-05
1.46528e-05
1.43825e-05
1.41118e-05
1.38402e-05
1.35751e-05
1.33257e-05
1.30915e-05
1.28715e-05
1.2667e-05
1.24761e-05
1.22966e-05
1.21258e-05
1.19604e-05
1.17955e-05
1.16283e-05
1.14505e-05
1.35873e-05
1.33632e-05
1.31341e-05
1.28944e-05
1.26545e-05
1.24136e-05
1.21786e-05
1.1957e-05
1.17486e-05
1.15524e-05
1.13695e-05
1.11988e-05
1.10383e-05
1.08861e-05
1.07391e-05
1.05931e-05
1.04463e-05
1.02885e-05
1.21783e-05
1.19789e-05
1.17756e-05
1.15634e-05
1.13513e-05
1.11383e-05
1.09303e-05
1.07342e-05
1.05492e-05
1.03746e-05
1.02116e-05
1.00593e-05
9.91613e-06
9.78069e-06
9.65043e-06
9.52194e-06
9.39267e-06
9.25633e-06
9.11369e-06
1.0917e-05
1.07396e-05
1.05596e-05
1.03723e-05
1.01853e-05
9.99741e-06
9.81404e-06
9.64093e-06
9.47747e-06
9.32255e-06
9.1776e-06
9.04213e-06
8.91477e-06
8.79463e-06
8.67938e-06
8.56647e-06
8.45289e-06
8.33587e-06
8.20927e-06
9.78723e-06
9.62971e-06
9.47049e-06
9.30585e-06
9.14143e-06
8.97625e-06
8.8152e-06
8.66303e-06
8.51897e-06
8.38215e-06
8.25377e-06
8.13369e-06
8.02072e-06
7.91442e-06
7.81281e-06
7.71373e-06
7.61434e-06
7.51269e-06
7.40152e-06
8.77476e-06
8.63517e-06
8.49468e-06
8.3504e-06
8.20634e-06
8.06169e-06
7.92086e-06
7.78774e-06
7.66146e-06
7.54104e-06
7.4277e-06
7.32159e-06
7.22189e-06
7.12821e-06
7.03905e-06
6.95228e-06
6.8659e-06
6.77774e-06
6.68301e-06
6.58203e-06
7.86706e-06
7.74351e-06
7.62003e-06
7.49397e-06
7.36828e-06
7.24219e-06
7.11976e-06
7.00396e-06
6.89368e-06
6.78813e-06
6.68862e-06
6.59525e-06
6.50757e-06
6.42533e-06
6.34734e-06
6.27175e-06
6.19716e-06
6.1209e-06
6.04058e-06
5.95185e-06
7.05299e-06
6.94382e-06
6.83566e-06
6.72601e-06
6.61687e-06
6.50755e-06
6.40173e-06
6.30159e-06
6.20586e-06
6.11385e-06
6.02679e-06
5.94504e-06
5.86827e-06
5.79645e-06
5.72857e-06
5.66308e-06
5.59871e-06
5.53303e-06
5.46422e-06
5.38755e-06
6.32259e-06
6.22633e-06
6.13194e-06
6.03709e-06
5.94275e-06
5.84859e-06
5.75785e-06
5.67186e-06
5.58929e-06
5.50948e-06
5.43373e-06
5.36253e-06
5.29568e-06
5.23328e-06
5.17448e-06
5.11804e-06
5.06284e-06
5.00686e-06
4.94827e-06
4.88404e-06
4.81396e-06
5.66703e-06
5.58237e-06
5.50031e-06
5.4188e-06
5.33778e-06
5.25728e-06
5.18015e-06
5.10692e-06
5.03617e-06
4.96739e-06
4.90185e-06
4.84019e-06
4.78234e-06
4.72845e-06
4.67786e-06
4.62959e-06
4.58256e-06
4.53516e-06
4.48558e-06
4.43213e-06
4.37193e-06
5.07844e-06
5.00419e-06
4.93321e-06
4.86369e-06
4.79461e-06
4.72642e-06
4.6616e-06
4.59982e-06
4.53966e-06
4.48081e-06
4.42449e-06
4.37144e-06
4.32174e-06
4.27556e-06
4.23237e-06
4.19129e-06
4.15147e-06
4.11151e-06
4.06983e-06
4.0248e-06
3.97406e-06
4.54982e-06
4.48493e-06
4.42393e-06
4.36513e-06
4.3067e-06
4.24966e-06
4.19593e-06
4.14439e-06
4.09371e-06
4.04373e-06
3.99574e-06
3.95048e-06
3.90814e-06
3.86891e-06
3.83233e-06
3.79771e-06
3.76422e-06
3.73085e-06
3.69597e-06
3.65844e-06
3.61546e-06
4.07495e-06
4.01843e-06
3.96643e-06
3.91717e-06
3.86829e-06
3.82133e-06
3.77754e-06
3.73515e-06
3.69291e-06
3.6509e-06
3.61041e-06
3.57219e-06
3.53646e-06
3.50346e-06
3.47281e-06
3.44387e-06
3.41612e-06
3.38847e-06
3.35952e-06
3.32834e-06
3.29296e-06
3.25328e-06
3.64825e-06
3.59924e-06
3.55532e-06
3.51456e-06
3.47424e-06
3.43638e-06
3.4015e-06
3.36719e-06
3.33249e-06
3.29762e-06
3.26387e-06
3.232e-06
3.20222e-06
3.17477e-06
3.14931e-06
3.1254e-06
3.10252e-06
3.07969e-06
3.05593e-06
3.03014e-06
3.00142e-06
2.96796e-06
3.26475e-06
3.22245e-06
3.18579e-06
3.15259e-06
3.11992e-06
3.0903e-06
3.06338e-06
3.0362e-06
3.0082e-06
2.97975e-06
2.95207e-06
2.92587e-06
2.90135e-06
2.87872e-06
2.8578e-06
2.83819e-06
2.81938e-06
2.80065e-06
2.7811e-06
2.75987e-06
2.73613e-06
2.7083e-06
2.92002e-06
2.88369e-06
2.85359e-06
2.82708e-06
2.80125e-06
2.77909e-06
2.75923e-06
2.73831e-06
2.71629e-06
2.69362e-06
2.67137e-06
2.65016e-06
2.63022e-06
2.61174e-06
2.59462e-06
2.57851e-06
2.56309e-06
2.54771e-06
2.5317e-06
2.51419e-06
2.49465e-06
2.47119e-06
2.61007e-06
2.57907e-06
2.55486e-06
2.53425e-06
2.51457e-06
2.49917e-06
2.48552e-06
2.47008e-06
2.45344e-06
2.43596e-06
2.41849e-06
2.4016e-06
2.38549e-06
2.37042e-06
2.35635e-06
2.34308e-06
2.33036e-06
2.31769e-06
2.30448e-06
2.29004e-06
2.27381e-06
2.2544e-06
2.23213e-06
2.33135e-06
2.30512e-06
2.2862e-06
2.27075e-06
2.25663e-06
2.24736e-06
2.23909e-06
2.22844e-06
2.21668e-06
2.20385e-06
2.19048e-06
2.17714e-06
2.16408e-06
2.15166e-06
2.13994e-06
2.12882e-06
2.11817e-06
2.10759e-06
2.09655e-06
2.08452e-06
2.07089e-06
2.05492e-06
2.03573e-06
2.08067e-06
2.0587e-06
2.04452e-06
2.03359e-06
2.02451e-06
2.02078e-06
2.01712e-06
2.01065e-06
2.0034e-06
1.99464e-06
1.98463e-06
1.97401e-06
1.96322e-06
1.95269e-06
1.94264e-06
1.93311e-06
1.924e-06
1.91499e-06
1.90566e-06
1.89549e-06
1.88398e-06
1.87045e-06
1.85425e-06
1.85521e-06
1.83702e-06
1.82709e-06
1.82009e-06
1.81562e-06
1.81687e-06
1.81705e-06
1.81432e-06
1.81127e-06
1.80594e-06
1.79842e-06
1.78969e-06
1.78042e-06
1.77119e-06
1.76234e-06
1.75397e-06
1.74605e-06
1.73832e-06
1.73036e-06
1.72175e-06
1.71204e-06
1.70063e-06
1.68695e-06
1.65242e-06
1.6376e-06
1.63147e-06
1.62787e-06
1.62763e-06
1.6333e-06
1.63658e-06
1.6373e-06
1.63821e-06
1.63555e-06
1.62958e-06
1.62199e-06
1.6137e-06
1.60538e-06
1.59746e-06
1.5901e-06
1.58325e-06
1.57667e-06
1.56998e-06
1.56282e-06
1.55471e-06
1.54525e-06
1.53369e-06
1.47002e-06
1.45823e-06
1.45544e-06
1.45478e-06
1.45851e-06
1.46799e-06
1.47371e-06
1.4777e-06
1.48231e-06
1.48142e-06
1.47611e-06
1.46913e-06
1.4616e-06
1.45413e-06
1.44717e-06
1.44085e-06
1.4351e-06
1.42967e-06
1.42422e-06
1.41841e-06
1.41184e-06
1.40415e-06
1.39478e-06
1.38477e-06
1.30595e-06
1.29688e-06
1.29704e-06
1.29893e-06
1.30638e-06
1.31907e-06
1.32665e-06
1.33391e-06
1.34188e-06
1.34167e-06
1.33632e-06
1.32985e-06
1.32321e-06
1.31679e-06
1.31095e-06
1.30578e-06
1.30115e-06
1.29682e-06
1.29248e-06
1.28784e-06
1.2826e-06
1.27632e-06
1.26882e-06
1.2603e-06
1.1584e-06
1.15175e-06
1.15448e-06
1.15855e-06
1.16953e-06
1.18475e-06
1.19377e-06
1.20457e-06
1.21552e-06
1.21476e-06
1.20895e-06
1.20329e-06
1.19794e-06
1.1928e-06
1.18815e-06
1.18404e-06
1.18037e-06
1.1769e-06
1.17338e-06
1.16957e-06
1.1652e-06
1.15992e-06
1.15352e-06
1.14623e-06
1.02576e-06
1.02127e-06
1.02617e-06
1.03211e-06
1.04638e-06
1.06337e-06
1.07353e-06
1.08815e-06
1.1018e-06
1.09957e-06
1.09332e-06
1.08901e-06
1.08523e-06
1.08126e-06
1.07748e-06
1.07407e-06
1.07092e-06
1.06787e-06
1.06471e-06
1.06125e-06
1.05727e-06
1.05247e-06
1.04664e-06
1.04e-06
9.06617e-07
9.0414e-07
9.1086e-07
9.18421e-07
9.35772e-07
9.53718e-07
9.6466e-07
9.82797e-07
9.98869e-07
9.95093e-07
9.89074e-07
9.86508e-07
9.84051e-07
9.80677e-07
9.77129e-07
9.73774e-07
9.70577e-07
9.67409e-07
9.64126e-07
9.60582e-07
9.56588e-07
9.51852e-07
9.46178e-07
9.39766e-07
7.9968e-07
7.9904e-07
8.0731e-07
8.1645e-07
8.36729e-07
8.55049e-07
8.66626e-07
8.87721e-07
9.05486e-07
9.00118e-07
8.95114e-07
8.94359e-07
8.92431e-07
8.88764e-07
8.84797e-07
8.81025e-07
8.77393e-07
8.73814e-07
8.70174e-07
8.66329e-07
8.62137e-07
8.57292e-07
8.51633e-07
8.45219e-07
7.03834e-07
7.04725e-07
7.14192e-07
7.24905e-07
7.47851e-07
7.66195e-07
7.78665e-07
8.04112e-07
8.23682e-07
8.13908e-07
8.09138e-07
8.10192e-07
8.08113e-07
8.03439e-07
7.98717e-07
7.94438e-07
7.90372e-07
7.8642e-07
7.82479e-07
7.78441e-07
7.74113e-07
7.69205e-07
7.63592e-07
7.57359e-07
7.51294e-07
6.19325e-07
6.21341e-07
6.31242e-07
6.43058e-07
6.67633e-07
6.84891e-07
6.97642e-07
7.29368e-07
7.55361e-07
7.3727e-07
7.29977e-07
7.33266e-07
7.31362e-07
7.25659e-07
7.2025e-07
7.15657e-07
7.11362e-07
7.07163e-07
7.0306e-07
6.98923e-07
6.94522e-07
6.89629e-07
6.84087e-07
6.78091e-07
6.72017e-07
5.50756e-07
5.53272e-07
5.62411e-07
5.73869e-07
5.97664e-07
6.10785e-07
6.2055e-07
6.58507e-07
6.91928e-07
6.67226e-07
6.58219e-07
6.64515e-07
6.64273e-07
6.58819e-07
6.53471e-07
6.49082e-07
6.44966e-07
6.40886e-07
6.36861e-07
6.3278e-07
6.28473e-07
6.23681e-07
6.18257e-07
6.12368e-07
6.06396e-07
4.96657e-07
4.99151e-07
5.06788e-07
5.1676e-07
5.37491e-07
5.44341e-07
5.51001e-07
5.85682e-07
6.23744e-07
6.00835e-07
5.94034e-07
6.02791e-07
6.05284e-07
6.01643e-07
5.97217e-07
5.93496e-07
5.89993e-07
5.86467e-07
5.8289e-07
5.79202e-07
5.7527e-07
5.70861e-07
5.65801e-07
5.60226e-07
5.54519e-07
4.47604e-07
4.5002e-07
4.56208e-07
4.65071e-07
4.826e-07
4.84178e-07
4.9032e-07
5.17016e-07
5.55138e-07
5.39309e-07
5.35983e-07
5.45554e-07
5.50297e-07
5.48824e-07
5.4562e-07
5.42637e-07
5.39787e-07
5.36863e-07
5.33851e-07
5.30706e-07
5.27303e-07
5.23437e-07
5.18925e-07
5.13847e-07
5.086e-07
3.99493e-07
4.01791e-07
4.06594e-07
4.14848e-07
4.28973e-07
4.27221e-07
4.34306e-07
4.53397e-07
4.92035e-07
4.8397e-07
4.836e-07
4.92629e-07
4.98394e-07
4.98546e-07
4.96461e-07
4.94233e-07
4.92049e-07
4.89674e-07
4.87112e-07
4.84396e-07
4.81441e-07
4.78044e-07
4.74047e-07
4.69427e-07
4.64531e-07
3.53707e-07
3.55788e-07
3.59311e-07
3.67213e-07
3.77676e-07
3.74642e-07
3.82659e-07
3.95009e-07
4.3471e-07
4.33878e-07
4.36422e-07
4.44807e-07
4.51011e-07
4.52177e-07
4.50789e-07
4.49161e-07
4.47729e-07
4.46136e-07
4.44196e-07
4.41945e-07
4.39362e-07
4.36335e-07
4.32684e-07
4.28367e-07
4.23662e-07
3.10433e-07
3.12075e-07
3.14367e-07
3.21894e-07
3.2854e-07
3.26548e-07
3.3453e-07
3.42068e-07
3.83916e-07
3.89336e-07
3.94247e-07
4.02145e-07
4.08892e-07
4.11078e-07
4.09998e-07
4.08052e-07
4.06349e-07
4.04907e-07
4.0344e-07
4.01721e-07
3.99569e-07
3.96826e-07
3.93257e-07
3.88874e-07
3.83919e-07
2.70232e-07
2.71104e-07
2.72085e-07
2.78698e-07
2.8144e-07
2.8269e-07
2.88836e-07
2.94792e-07
3.40011e-07
3.50802e-07
3.57589e-07
3.64392e-07
3.70712e-07
3.73921e-07
3.74233e-07
3.72686e-07
3.70143e-07
3.67219e-07
3.64362e-07
3.61715e-07
3.59081e-07
3.56049e-07
3.52075e-07
3.46786e-07
3.40221e-07
2.33489e-07
2.33332e-07
2.32891e-07
2.37538e-07
2.36232e-07
2.41684e-07
2.42986e-07
2.524e-07
3.02804e-07
3.17899e-07
3.27632e-07
3.33385e-07
3.36152e-07
3.36015e-07
3.35311e-07
3.35053e-07
3.34496e-07
3.32499e-07
3.28862e-07
3.24161e-07
3.18909e-07
3.13221e-07
3.06791e-07
2.99287e-07
2.90607e-07
2.81116e-07
2.00153e-07
1.98853e-07
1.96941e-07
1.98532e-07
1.93539e-07
2.02174e-07
1.94808e-07
2.15494e-07
2.72355e-07
2.87371e-07
3.01047e-07
3.08235e-07
3.08367e-07
3.02079e-07
2.93105e-07
2.85592e-07
2.81412e-07
2.79723e-07
2.78435e-07
2.75917e-07
2.71405e-07
2.64755e-07
2.55948e-07
2.45355e-07
2.33675e-07
2.21764e-07
1.70347e-07
1.6743e-07
1.63334e-07
1.61001e-07
1.54056e-07
1.64645e-07
1.4885e-07
1.93479e-07
2.51568e-07
2.60378e-07
2.74628e-07
2.79337e-07
2.80299e-07
2.78592e-07
2.69739e-07
2.5383e-07
2.3669e-07
2.2424e-07
2.19005e-07
2.20192e-07
2.25285e-07
2.3141e-07
2.34988e-07
2.32655e-07
2.24666e-07
2.14624e-07
1.46241e-07
1.4039e-07
1.31623e-07
1.23181e-07
1.15431e-07
1.28054e-07
1.1645e-07
1.96713e-07
2.42903e-07
2.5965e-07
2.96368e-07
3.05272e-07
2.9295e-07
2.73155e-07
2.59935e-07
2.61818e-07
2.73794e-07
2.85217e-07
2.90951e-07
2.92004e-07
2.91026e-07
2.90786e-07
2.95448e-07
3.10197e-07
3.35302e-07
3.65418e-07
1.3154e-07
1.22017e-07
1.06099e-07
8.70686e-08
7.35166e-08
8.548e-08
9.71122e-08
2.00148e-07
2.17454e-07
2.52163e-07
3.21091e-07
3.80895e-07
4.41736e-07
5.04206e-07
5.60999e-07
6.07596e-07
6.42834e-07
6.71187e-07
6.98589e-07
7.28613e-07
7.62324e-07
7.99078e-07
8.37057e-07
8.71492e-07
8.97417e-07
9.17243e-07
1.24824e-07
1.13507e-07
9.28829e-08
6.34137e-08
3.3734e-08
4.36906e-08
8.78899e-08
1.5159e-07
2.19083e-07
4.78378e-07
7.28657e-07
9.52772e-07
1.12999e-06
1.25751e-06
1.34196e-06
1.39806e-06
1.44078e-06
1.48099e-06
1.52227e-06
1.56394e-06
1.60384e-06
1.64157e-06
1.6787e-06
1.72088e-06
1.76396e-06
1.80034e-06
)
;

boundaryField
{
    inlet
    {
        type            calculated;
        value           nonuniform List<scalar> 
26
(
1.25775e-07
1.14645e-07
9.38427e-08
6.28724e-08
2.86402e-08
4.5079e-08
1.04121e-07
1.1047e-07
4.94635e-07
1.01122e-06
1.59531e-06
2.17595e-06
2.70292e-06
3.15535e-06
3.52378e-06
3.81772e-06
4.05256e-06
4.24465e-06
4.40919e-06
4.5585e-06
4.7019e-06
4.84934e-06
5.0125e-06
5.20006e-06
5.39917e-06
5.58893e-06
)
;
    }
    outlet
    {
        type            calculated;
        value           nonuniform List<scalar> 0();
    }
    walls
    {
        type            calculated;
        value           nonuniform List<scalar> 0();
    }
    frontAndBack
    {
        type            empty;
    }
    procBoundary0to1
    {
        type            processor;
        value           nonuniform List<scalar> 
94
(
0.000642399
0.000525953
0.000525953
0.000433556
0.000433556
0.000359786
0.000359786
0.000300205
0.000300205
0.000252176
0.000252176
0.000213187
0.000187202
0.000187202
0.000159996
0.000141382
0.000141382
0.000121938
0.000108195
9.60928e-05
9.60928e-05
8.36208e-05
7.44881e-05
7.44881e-05
6.50955e-05
5.80724e-05
5.18166e-05
5.18166e-05
4.54525e-05
4.06079e-05
3.62774e-05
3.62774e-05
3.18796e-05
2.85175e-05
2.85175e-05
2.50753e-05
2.2445e-05
2.00897e-05
2.00897e-05
1.76843e-05
1.5855e-05
1.42164e-05
1.42164e-05
1.25338e-05
1.1265e-05
1.01284e-05
1.01284e-05
8.95306e-06
8.07492e-06
7.28656e-06
7.28656e-06
6.46573e-06
5.85553e-06
5.30654e-06
5.30654e-06
4.73116e-06
4.30414e-06
3.91691e-06
3.56835e-06
3.56835e-06
3.2052e-06
2.92928e-06
2.6761e-06
2.44487e-06
2.44487e-06
2.20563e-06
2.01432e-06
1.83613e-06
1.67182e-06
1.52155e-06
1.52155e-06
1.37356e-06
1.25154e-06
1.13866e-06
1.03309e-06
9.33219e-07
8.39035e-07
8.39035e-07
7.45022e-07
6.6623e-07
6.00681e-07
5.49046e-07
5.03504e-07
4.59637e-07
4.18762e-07
3.78671e-07
3.33044e-07
3.33044e-07
2.70613e-07
2.10092e-07
2.05271e-07
3.95956e-07
9.34689e-07
1.82903e-06
)
;
    }
    procBoundary0to4
    {
        type            processor;
        value           nonuniform List<scalar> 
72
(
0.000580973
0.00049354
0.000422052
0.000362901
0.000313557
0.000272067
0.000236947
0.00020704
0.000181431
0.000159394
0.000140355
0.000123844
0.000109474
9.6933e-05
8.59557e-05
7.6324e-05
6.78549e-05
6.03903e-05
5.3799e-05
4.79702e-05
4.28054e-05
3.82238e-05
3.35426e-05
3.35426e-05
2.9983e-05
2.68148e-05
2.39923e-05
2.14756e-05
1.92297e-05
1.72235e-05
1.54306e-05
1.38271e-05
1.23922e-05
1.11074e-05
9.95655e-06
8.92508e-06
8.00033e-06
7.17085e-06
6.42661e-06
5.75859e-06
5.15889e-06
4.62034e-06
4.1366e-06
3.70198e-06
3.31144e-06
2.96044e-06
2.64494e-06
2.36128e-06
2.10625e-06
1.87694e-06
1.67075e-06
1.48535e-06
1.31868e-06
1.16884e-06
1.03418e-06
9.13265e-07
8.04793e-07
7.0766e-07
6.22191e-07
5.53118e-07
4.98705e-07
4.49319e-07
4.00899e-07
3.54854e-07
3.11417e-07
2.71192e-07
2.3458e-07
2.01541e-07
1.72305e-07
1.49154e-07
1.35474e-07
1.29205e-07
)
;
    }
    procBoundary0to5
    {
        type            processor;
        value           nonuniform List<scalar> 4(0.000683479 0.000676213 0.000667897 0.000657223);
    }
}


// ************************************************************************* //
