/*--------------------------------*- C++ -*----------------------------------*\
| =========                 |                                                 |
| \\      /  F ield         | OpenFOAM: The Open Source CFD Toolbox           |
|  \\    /   O peration     | Version:  2506                                  |
|   \\  /    A nd           | Website:  www.openfoam.com                      |
|    \\/     M anipulation  |                                                 |
\*---------------------------------------------------------------------------*/
FoamFile
{
    version     2.0;
    format      ascii;
    arch        "LSB;label=32;scalar=64";
    class       volScalarField;
    location    "150";
    object      nut;
}
// * * * * * * * * * * * * * * * * * * * * * * * * * * * * * * * * * * * * * //

dimensions      [0 2 -1 0 0 0 0];

internalField   nonuniform List<scalar> 
1340
(
6.09792e-06
6.09715e-06
6.09804e-06
6.0984e-06
6.09906e-06
6.09639e-06
6.09562e-06
6.09642e-06
6.097e-06
6.09791e-06
6.0964e-06
6.09509e-06
6.09427e-06
6.09495e-06
6.09567e-06
6.09676e-06
6.09552e-06
6.09537e-06
6.094e-06
6.0931e-06
6.09364e-06
6.09443e-06
6.09564e-06
6.09463e-06
6.09452e-06
6.09534e-06
6.09308e-06
6.09211e-06
6.09248e-06
6.0933e-06
6.09457e-06
6.09376e-06
6.09369e-06
6.09444e-06
6.09558e-06
6.09227e-06
6.09126e-06
6.09145e-06
6.09226e-06
6.09356e-06
6.09293e-06
6.09289e-06
6.09357e-06
6.09462e-06
6.09567e-06
6.09156e-06
6.09052e-06
6.09057e-06
6.09133e-06
6.09262e-06
6.09214e-06
6.09212e-06
6.09273e-06
6.09367e-06
6.09468e-06
6.09093e-06
6.08988e-06
6.08979e-06
6.09048e-06
6.09176e-06
6.0914e-06
6.09138e-06
6.09192e-06
6.09279e-06
6.09369e-06
6.09457e-06
6.09036e-06
6.08932e-06
6.08911e-06
6.08972e-06
6.09096e-06
6.0907e-06
6.09068e-06
6.09116e-06
6.09194e-06
6.09277e-06
6.09362e-06
6.08982e-06
6.08883e-06
6.08852e-06
6.08903e-06
6.09021e-06
6.09003e-06
6.09001e-06
6.09044e-06
6.09114e-06
6.0919e-06
6.09267e-06
6.0934e-06
6.08931e-06
6.08837e-06
6.08797e-06
6.0884e-06
6.0895e-06
6.08939e-06
6.08938e-06
6.08975e-06
6.09039e-06
6.09108e-06
6.09177e-06
6.0925e-06
6.08881e-06
6.08793e-06
6.08748e-06
6.08783e-06
6.08885e-06
6.08879e-06
6.08878e-06
6.08911e-06
6.08968e-06
6.0903e-06
6.09093e-06
6.09161e-06
6.08833e-06
6.08752e-06
6.08707e-06
6.08736e-06
6.08828e-06
6.08825e-06
6.08822e-06
6.0885e-06
6.08901e-06
6.08957e-06
6.09014e-06
6.09076e-06
6.09136e-06
6.08789e-06
6.0872e-06
6.08678e-06
6.08703e-06
6.08783e-06
6.08779e-06
6.08774e-06
6.08796e-06
6.0884e-06
6.08889e-06
6.0894e-06
6.08996e-06
6.09056e-06
6.08757e-06
6.08702e-06
6.08666e-06
6.08687e-06
6.08752e-06
6.08744e-06
6.08734e-06
6.08749e-06
6.08785e-06
6.08827e-06
6.08872e-06
6.08922e-06
6.08976e-06
6.09023e-06
6.08742e-06
6.08701e-06
6.08672e-06
6.08687e-06
6.08737e-06
6.08722e-06
6.08704e-06
6.0871e-06
6.08738e-06
6.08773e-06
6.08811e-06
6.08855e-06
6.08901e-06
6.08947e-06
6.08744e-06
6.08716e-06
6.08689e-06
6.08698e-06
6.08732e-06
6.0871e-06
6.08684e-06
6.08681e-06
6.087e-06
6.08726e-06
6.08757e-06
6.08794e-06
6.08834e-06
6.08877e-06
6.0876e-06
6.08741e-06
6.08714e-06
6.08714e-06
6.08735e-06
6.08705e-06
6.08672e-06
6.08661e-06
6.08671e-06
6.08689e-06
6.08712e-06
6.08742e-06
6.08776e-06
6.08813e-06
6.08847e-06
6.08783e-06
6.08768e-06
6.08742e-06
6.08734e-06
6.08742e-06
6.08706e-06
6.08666e-06
6.08648e-06
6.0865e-06
6.0866e-06
6.08676e-06
6.087e-06
6.08727e-06
6.08757e-06
6.08788e-06
6.08807e-06
6.08798e-06
6.08774e-06
6.08758e-06
6.08752e-06
6.08709e-06
6.08665e-06
6.08641e-06
6.08636e-06
6.0864e-06
6.0865e-06
6.08666e-06
6.08687e-06
6.0871e-06
6.08737e-06
6.08832e-06
6.0883e-06
6.08812e-06
6.08787e-06
6.08766e-06
6.08716e-06
6.08668e-06
6.08639e-06
6.08629e-06
6.08628e-06
6.08631e-06
6.08641e-06
6.08655e-06
6.08672e-06
6.08693e-06
6.08715e-06
6.0886e-06
6.08866e-06
6.08858e-06
6.08823e-06
6.08783e-06
6.08727e-06
6.08675e-06
6.08643e-06
6.08628e-06
6.0862e-06
6.08618e-06
6.08622e-06
6.0863e-06
6.08641e-06
6.08656e-06
6.08674e-06
6.08905e-06
6.08907e-06
6.08864e-06
6.08805e-06
6.08742e-06
6.08687e-06
6.08651e-06
6.08631e-06
6.08618e-06
6.08609e-06
6.08607e-06
6.08609e-06
6.08615e-06
6.08624e-06
6.08637e-06
6.08651e-06
6.08945e-06
6.08951e-06
6.08906e-06
6.0883e-06
6.08762e-06
6.08704e-06
6.08663e-06
6.08637e-06
6.08618e-06
6.08603e-06
6.08595e-06
6.08592e-06
6.08592e-06
6.08597e-06
6.08604e-06
6.08615e-06
6.08984e-06
6.08988e-06
6.08943e-06
6.08857e-06
6.08787e-06
6.08726e-06
6.08679e-06
6.08646e-06
6.0862e-06
6.08599e-06
6.08585e-06
6.08576e-06
6.08572e-06
6.08572e-06
6.08574e-06
6.08581e-06
6.09022e-06
6.09022e-06
6.08975e-06
6.08886e-06
6.08815e-06
6.08751e-06
6.08698e-06
6.08657e-06
6.08624e-06
6.08596e-06
6.08576e-06
6.08563e-06
6.08553e-06
6.08548e-06
6.08547e-06
6.08549e-06
6.08553e-06
6.09055e-06
6.09053e-06
6.09004e-06
6.08916e-06
6.08844e-06
6.08779e-06
6.08717e-06
6.08668e-06
6.08628e-06
6.08595e-06
6.0857e-06
6.08551e-06
6.08537e-06
6.08527e-06
6.08522e-06
6.08519e-06
6.08521e-06
6.09086e-06
6.09082e-06
6.09031e-06
6.08943e-06
6.08868e-06
6.08803e-06
6.08736e-06
6.08681e-06
6.08634e-06
6.08596e-06
6.08565e-06
6.08541e-06
6.08523e-06
6.08509e-06
6.08499e-06
6.08493e-06
6.0849e-06
6.09114e-06
6.09107e-06
6.09054e-06
6.08965e-06
6.08889e-06
6.08823e-06
6.08756e-06
6.08694e-06
6.08642e-06
6.08598e-06
6.08562e-06
6.08534e-06
6.08511e-06
6.08493e-06
6.08479e-06
6.08469e-06
6.08462e-06
6.08458e-06
6.09139e-06
6.09129e-06
6.09074e-06
6.08984e-06
6.08906e-06
6.08839e-06
6.08773e-06
6.08709e-06
6.08652e-06
6.08603e-06
6.08562e-06
6.08528e-06
6.085e-06
6.08478e-06
6.0846e-06
6.08446e-06
6.08435e-06
6.08428e-06
6.0916e-06
6.09148e-06
6.09091e-06
6.09e-06
6.0892e-06
6.08852e-06
6.08786e-06
6.08722e-06
6.08663e-06
6.08609e-06
6.08562e-06
6.08523e-06
6.0849e-06
6.08463e-06
6.08441e-06
6.08423e-06
6.08408e-06
6.08397e-06
6.09178e-06
6.09163e-06
6.09105e-06
6.09011e-06
6.08931e-06
6.08861e-06
6.08794e-06
6.0873e-06
6.08671e-06
6.08615e-06
6.08562e-06
6.08517e-06
6.08479e-06
6.08447e-06
6.08421e-06
6.08399e-06
6.08381e-06
6.08365e-06
6.08353e-06
6.09193e-06
6.09175e-06
6.09114e-06
6.0902e-06
6.08937e-06
6.08867e-06
6.08799e-06
6.08734e-06
6.08673e-06
6.08616e-06
6.0856e-06
6.08509e-06
6.08466e-06
6.08429e-06
6.08398e-06
6.08372e-06
6.0835e-06
6.08332e-06
6.08317e-06
6.09204e-06
6.09183e-06
6.09121e-06
6.09024e-06
6.0894e-06
6.08869e-06
6.088e-06
6.08733e-06
6.08669e-06
6.08609e-06
6.08551e-06
6.08498e-06
6.08449e-06
6.08407e-06
6.08372e-06
6.08343e-06
6.08317e-06
6.08296e-06
6.08278e-06
6.09213e-06
6.09189e-06
6.09124e-06
6.09025e-06
6.0894e-06
6.08867e-06
6.08797e-06
6.08727e-06
6.08659e-06
6.08595e-06
6.08534e-06
6.08479e-06
6.08428e-06
6.08382e-06
6.08342e-06
6.08309e-06
6.08281e-06
6.08256e-06
6.08235e-06
6.08217e-06
6.09219e-06
6.09192e-06
6.09125e-06
6.09024e-06
6.08937e-06
6.08863e-06
6.0879e-06
6.08716e-06
6.08644e-06
6.08575e-06
6.0851e-06
6.08451e-06
6.08399e-06
6.08351e-06
6.08308e-06
6.08272e-06
6.0824e-06
6.08213e-06
6.08189e-06
6.0817e-06
6.09222e-06
6.09193e-06
6.09123e-06
6.09019e-06
6.08931e-06
6.08855e-06
6.08778e-06
6.08699e-06
6.08621e-06
6.08547e-06
6.08477e-06
6.08416e-06
6.08362e-06
6.08313e-06
6.08268e-06
6.08229e-06
6.08196e-06
6.08167e-06
6.08141e-06
6.08119e-06
6.09223e-06
6.09191e-06
6.09118e-06
6.09012e-06
6.08922e-06
6.08843e-06
6.08763e-06
6.08677e-06
6.08593e-06
6.08512e-06
6.08438e-06
6.08373e-06
6.08317e-06
6.08268e-06
6.08223e-06
6.08183e-06
6.08147e-06
6.08117e-06
6.0809e-06
6.08065e-06
6.08044e-06
6.09222e-06
6.09186e-06
6.0911e-06
6.09001e-06
6.0891e-06
6.08828e-06
6.08742e-06
6.08649e-06
6.08557e-06
6.0847e-06
6.08391e-06
6.08323e-06
6.08265e-06
6.08216e-06
6.08172e-06
6.08133e-06
6.08096e-06
6.08064e-06
6.08036e-06
6.0801e-06
6.07988e-06
6.09216e-06
6.09177e-06
6.09098e-06
6.08987e-06
6.08894e-06
6.0881e-06
6.08717e-06
6.08615e-06
6.08514e-06
6.0842e-06
6.08337e-06
6.08267e-06
6.08209e-06
6.08159e-06
6.08117e-06
6.08079e-06
6.08043e-06
6.08011e-06
6.07982e-06
6.07955e-06
6.07932e-06
6.09207e-06
6.09165e-06
6.09083e-06
6.0897e-06
6.08875e-06
6.08786e-06
6.08685e-06
6.08574e-06
6.08465e-06
6.08365e-06
6.08278e-06
6.08206e-06
6.08148e-06
6.08099e-06
6.08058e-06
6.08021e-06
6.07988e-06
6.07957e-06
6.07927e-06
6.079e-06
6.07876e-06
6.09194e-06
6.09149e-06
6.09064e-06
6.08948e-06
6.08852e-06
6.08759e-06
6.08648e-06
6.08527e-06
6.08409e-06
6.08303e-06
6.08214e-06
6.08142e-06
6.08084e-06
6.08037e-06
6.07997e-06
6.07962e-06
6.07931e-06
6.07901e-06
6.07873e-06
6.07846e-06
6.07819e-06
6.07796e-06
6.09178e-06
6.0913e-06
6.09042e-06
6.08923e-06
6.08825e-06
6.08726e-06
6.08605e-06
6.08473e-06
6.08347e-06
6.08237e-06
6.08146e-06
6.08075e-06
6.08018e-06
6.07972e-06
6.07934e-06
6.079e-06
6.0787e-06
6.07843e-06
6.07816e-06
6.07789e-06
6.07763e-06
6.07739e-06
6.09159e-06
6.09108e-06
6.09016e-06
6.08896e-06
6.08796e-06
6.08689e-06
6.08556e-06
6.08413e-06
6.0828e-06
6.08167e-06
6.08077e-06
6.08006e-06
6.07951e-06
6.07906e-06
6.07868e-06
6.07835e-06
6.07806e-06
6.07778e-06
6.07752e-06
6.07726e-06
6.077e-06
6.07675e-06
6.09137e-06
6.09083e-06
6.08988e-06
6.08865e-06
6.08762e-06
6.08647e-06
6.08502e-06
6.08347e-06
6.08209e-06
6.08095e-06
6.08005e-06
6.07936e-06
6.07881e-06
6.07836e-06
6.07797e-06
6.07764e-06
6.07733e-06
6.07705e-06
6.07678e-06
6.07652e-06
6.07624e-06
6.07597e-06
6.09111e-06
6.09054e-06
6.08955e-06
6.0883e-06
6.08725e-06
6.086e-06
6.08441e-06
6.08277e-06
6.08135e-06
6.08021e-06
6.07932e-06
6.07862e-06
6.07806e-06
6.07759e-06
6.07718e-06
6.07683e-06
6.0765e-06
6.07619e-06
6.0759e-06
6.07561e-06
6.07532e-06
6.07502e-06
6.07472e-06
6.0908e-06
6.0902e-06
6.08918e-06
6.08791e-06
6.08683e-06
6.08547e-06
6.08374e-06
6.08203e-06
6.08059e-06
6.07945e-06
6.07855e-06
6.07783e-06
6.07724e-06
6.07672e-06
6.07628e-06
6.07588e-06
6.07552e-06
6.07519e-06
6.07487e-06
6.07455e-06
6.07424e-06
6.07394e-06
6.07366e-06
6.09044e-06
6.08981e-06
6.08877e-06
6.08748e-06
6.08636e-06
6.08488e-06
6.08302e-06
6.08125e-06
6.07981e-06
6.07867e-06
6.07773e-06
6.07696e-06
6.07631e-06
6.07574e-06
6.07524e-06
6.07481e-06
6.07441e-06
6.07406e-06
6.07372e-06
6.07342e-06
6.07314e-06
6.07289e-06
6.07269e-06
6.09005e-06
6.0894e-06
6.08832e-06
6.08701e-06
6.08584e-06
6.08423e-06
6.08226e-06
6.08045e-06
6.07901e-06
6.07783e-06
6.07684e-06
6.07599e-06
6.07527e-06
6.07464e-06
6.07411e-06
6.07365e-06
6.07326e-06
6.07293e-06
6.07265e-06
6.07243e-06
6.07227e-06
6.07215e-06
6.07208e-06
6.08962e-06
6.08895e-06
6.08785e-06
6.08652e-06
6.08529e-06
6.08353e-06
6.08146e-06
6.07963e-06
6.07817e-06
6.07694e-06
6.07586e-06
6.07493e-06
6.07414e-06
6.0735e-06
6.07298e-06
6.07257e-06
6.07226e-06
6.07205e-06
6.07192e-06
6.07185e-06
6.07183e-06
6.07184e-06
6.07189e-06
6.08917e-06
6.08848e-06
6.08734e-06
6.08599e-06
6.08469e-06
6.08278e-06
6.08063e-06
6.0788e-06
6.0773e-06
6.07597e-06
6.07479e-06
6.0738e-06
6.07303e-06
6.07245e-06
6.07205e-06
6.07181e-06
6.07169e-06
6.07166e-06
6.07168e-06
6.07175e-06
6.07184e-06
6.07196e-06
6.07211e-06
6.07228e-06
6.08868e-06
6.08796e-06
6.0868e-06
6.08542e-06
6.08405e-06
6.08199e-06
6.07979e-06
6.07794e-06
6.07636e-06
6.07493e-06
6.07369e-06
6.07274e-06
6.07209e-06
6.07171e-06
6.07156e-06
6.07155e-06
6.07163e-06
6.07174e-06
6.07189e-06
6.07205e-06
6.07223e-06
6.07243e-06
6.07266e-06
6.07291e-06
6.08813e-06
6.08739e-06
6.08621e-06
6.08481e-06
6.08336e-06
6.08115e-06
6.07892e-06
6.07704e-06
6.07536e-06
6.07385e-06
6.07265e-06
6.07189e-06
6.07152e-06
6.07147e-06
6.07158e-06
6.07177e-06
6.07199e-06
6.07222e-06
6.07246e-06
6.07271e-06
6.07297e-06
6.07325e-06
6.07356e-06
6.07389e-06
6.08752e-06
6.08677e-06
6.08557e-06
6.08415e-06
6.08261e-06
6.08027e-06
6.07804e-06
6.0761e-06
6.07431e-06
6.07282e-06
6.07184e-06
6.07143e-06
6.07146e-06
6.0717e-06
6.07203e-06
6.07238e-06
6.07273e-06
6.07308e-06
6.07342e-06
6.07377e-06
6.07412e-06
6.07449e-06
6.0749e-06
6.07534e-06
6.08686e-06
6.08609e-06
6.08488e-06
6.08345e-06
6.0818e-06
6.07936e-06
6.07713e-06
6.0751e-06
6.07327e-06
6.07196e-06
6.0714e-06
6.07146e-06
6.07184e-06
6.07235e-06
6.07288e-06
6.07341e-06
6.07391e-06
6.07439e-06
6.07486e-06
6.07532e-06
6.07578e-06
6.07627e-06
6.07679e-06
6.07736e-06
6.08614e-06
6.08537e-06
6.08415e-06
6.0827e-06
6.08096e-06
6.07842e-06
6.07619e-06
6.07407e-06
6.07233e-06
6.07143e-06
6.07142e-06
6.07192e-06
6.07263e-06
6.07342e-06
6.07419e-06
6.07492e-06
6.0756e-06
6.07623e-06
6.07683e-06
6.07742e-06
6.078e-06
6.0786e-06
6.07924e-06
6.07994e-06
6.08537e-06
6.0846e-06
6.08337e-06
6.08191e-06
6.08007e-06
6.07748e-06
6.07523e-06
6.07305e-06
6.07161e-06
6.07131e-06
6.07183e-06
6.07276e-06
6.07385e-06
6.07495e-06
6.07599e-06
6.07693e-06
6.0778e-06
6.07858e-06
6.07931e-06
6.08e-06
6.08069e-06
6.08139e-06
6.08213e-06
6.08293e-06
6.08375e-06
6.08454e-06
6.08377e-06
6.08255e-06
6.08107e-06
6.07914e-06
6.07652e-06
6.07423e-06
6.07215e-06
6.07125e-06
6.07156e-06
6.07261e-06
6.07402e-06
6.07551e-06
6.07694e-06
6.07824e-06
6.07939e-06
6.0804e-06
6.08131e-06
6.08215e-06
6.08293e-06
6.0837e-06
6.08447e-06
6.08528e-06
6.08616e-06
6.08704e-06
6.08379e-06
6.08302e-06
6.08179e-06
6.08028e-06
6.07825e-06
6.07558e-06
6.07318e-06
6.07142e-06
6.07123e-06
6.07215e-06
6.07374e-06
6.07557e-06
6.07739e-06
6.07906e-06
6.08052e-06
6.08179e-06
6.0829e-06
6.08387e-06
6.08475e-06
6.08558e-06
6.08637e-06
6.08717e-06
6.08801e-06
6.08891e-06
6.08981e-06
6.08314e-06
6.08236e-06
6.08113e-06
6.07958e-06
6.07745e-06
6.07471e-06
6.07214e-06
6.07103e-06
6.07157e-06
6.07314e-06
6.0752e-06
6.07734e-06
6.07935e-06
6.08113e-06
6.08266e-06
6.08396e-06
6.08507e-06
6.08605e-06
6.08692e-06
6.08773e-06
6.0885e-06
6.08928e-06
6.09009e-06
6.09096e-06
6.09183e-06
6.08242e-06
6.08165e-06
6.08042e-06
6.07882e-06
6.0766e-06
6.0738e-06
6.07114e-06
6.071e-06
6.07229e-06
6.0745e-06
6.07697e-06
6.07935e-06
6.08148e-06
6.08331e-06
6.08484e-06
6.08612e-06
6.0872e-06
6.08814e-06
6.08897e-06
6.08973e-06
6.09045e-06
6.09118e-06
6.09193e-06
6.09273e-06
6.09355e-06
6.08161e-06
6.08085e-06
6.07962e-06
6.07799e-06
6.0757e-06
6.07286e-06
6.07023e-06
6.07125e-06
6.07334e-06
6.07616e-06
6.07897e-06
6.0815e-06
6.08367e-06
6.08546e-06
6.08693e-06
6.08813e-06
6.08913e-06
6.08999e-06
6.09074e-06
6.09143e-06
6.09209e-06
6.09274e-06
6.09342e-06
6.09415e-06
6.09489e-06
6.08071e-06
6.07997e-06
6.07875e-06
6.0771e-06
6.07477e-06
6.07192e-06
6.0695e-06
6.07181e-06
6.0747e-06
6.07805e-06
6.08106e-06
6.0836e-06
6.08568e-06
6.08734e-06
6.08867e-06
6.08975e-06
6.09064e-06
6.0914e-06
6.09207e-06
6.09269e-06
6.09328e-06
6.09387e-06
6.09449e-06
6.09517e-06
6.09587e-06
6.07972e-06
6.07899e-06
6.0778e-06
6.07614e-06
6.0738e-06
6.07099e-06
6.06903e-06
6.07263e-06
6.07623e-06
6.07994e-06
6.08297e-06
6.08537e-06
6.08724e-06
6.08873e-06
6.0899e-06
6.09087e-06
6.09168e-06
6.09238e-06
6.09301e-06
6.09361e-06
6.09419e-06
6.09479e-06
6.09544e-06
6.09616e-06
6.09693e-06
6.0786e-06
6.07792e-06
6.07676e-06
6.07512e-06
6.0728e-06
6.07012e-06
6.06891e-06
6.07358e-06
6.07769e-06
6.08151e-06
6.08438e-06
6.08654e-06
6.08823e-06
6.0896e-06
6.09073e-06
6.0917e-06
6.09256e-06
6.09333e-06
6.09405e-06
6.09475e-06
6.09545e-06
6.09618e-06
6.09699e-06
6.09791e-06
6.09891e-06
6.07737e-06
6.07672e-06
6.07563e-06
6.07405e-06
6.07181e-06
6.06935e-06
6.06919e-06
6.07441e-06
6.07873e-06
6.08244e-06
6.08509e-06
6.08715e-06
6.08888e-06
6.0904e-06
6.09174e-06
6.09296e-06
6.09407e-06
6.09508e-06
6.09604e-06
6.09697e-06
6.09791e-06
6.09889e-06
6.09998e-06
6.10121e-06
6.10254e-06
6.10388e-06
6.07599e-06
6.07541e-06
6.0744e-06
6.07292e-06
6.07083e-06
6.06877e-06
6.06971e-06
6.07483e-06
6.07903e-06
6.08261e-06
6.08535e-06
6.08773e-06
6.08991e-06
6.09193e-06
6.09374e-06
6.09536e-06
6.09681e-06
6.09811e-06
6.09931e-06
6.10046e-06
6.10158e-06
6.10275e-06
6.10401e-06
6.1054e-06
6.10686e-06
6.10831e-06
6.07445e-06
6.07395e-06
6.07308e-06
6.07176e-06
6.06991e-06
6.06841e-06
6.07012e-06
6.07455e-06
6.07851e-06
6.08241e-06
6.08582e-06
6.08895e-06
6.09176e-06
6.09419e-06
6.09623e-06
6.09794e-06
6.09939e-06
6.10064e-06
6.10174e-06
6.10275e-06
6.10371e-06
6.10466e-06
6.10565e-06
6.10669e-06
6.10775e-06
6.10876e-06
6.07275e-06
6.07236e-06
6.07165e-06
6.07058e-06
6.06907e-06
6.06827e-06
6.07021e-06
6.07344e-06
6.07751e-06
6.08235e-06
6.0865e-06
6.0898e-06
6.09227e-06
6.09409e-06
6.09542e-06
6.09642e-06
6.09719e-06
6.09781e-06
6.09833e-06
6.09878e-06
6.09919e-06
6.09958e-06
6.1e-06
6.10048e-06
6.10102e-06
6.10162e-06
6.07085e-06
6.07059e-06
6.07012e-06
6.06939e-06
6.06837e-06
6.06818e-06
6.06974e-06
6.07149e-06
6.07619e-06
6.08118e-06
6.08383e-06
6.0851e-06
6.08581e-06
6.08636e-06
6.08686e-06
6.08736e-06
6.08786e-06
6.08834e-06
6.0888e-06
6.08924e-06
6.08972e-06
6.09041e-06
6.09142e-06
6.09284e-06
6.09465e-06
6.09674e-06
6.06874e-06
6.06865e-06
6.06847e-06
6.0682e-06
6.06783e-06
6.06788e-06
6.06853e-06
6.06894e-06
6.07261e-06
6.07395e-06
6.07217e-06
6.07185e-06
6.07296e-06
6.07491e-06
6.07721e-06
6.07958e-06
6.08187e-06
6.084e-06
6.08598e-06
6.08784e-06
6.08963e-06
6.0914e-06
6.09324e-06
6.09519e-06
6.0972e-06
6.09915e-06
)
;

boundaryField
{
    inlet
    {
        type            freestream;
        freestreamValue uniform 1e-05;
        value           uniform 1e-05;
    }
    outlet
    {
        type            freestream;
        freestreamValue nonuniform List<scalar> 0();
        value           nonuniform List<scalar> 0();
    }
    walls
    {
        type            nutUSpaldingWallFunction;
        value           nonuniform List<scalar> 0();
    }
    frontAndBack
    {
        type            empty;
    }
    procBoundary0to1
    {
        type            processor;
        value           nonuniform List<scalar> 
94
(
6.10016e-06
6.09727e-06
6.09727e-06
6.09621e-06
6.09621e-06
6.0963e-06
6.0963e-06
6.09665e-06
6.09665e-06
6.09679e-06
6.09679e-06
6.0969e-06
6.09566e-06
6.09566e-06
6.09572e-06
6.09449e-06
6.09449e-06
6.09447e-06
6.0934e-06
6.09232e-06
6.09232e-06
6.09219e-06
6.09116e-06
6.09116e-06
6.09095e-06
6.09008e-06
6.08923e-06
6.08923e-06
6.089e-06
6.08829e-06
6.08766e-06
6.08766e-06
6.08744e-06
6.08692e-06
6.08692e-06
6.0867e-06
6.08625e-06
6.08586e-06
6.08586e-06
6.08558e-06
6.08519e-06
6.08485e-06
6.08485e-06
6.08451e-06
6.08415e-06
6.08383e-06
6.08383e-06
6.08337e-06
6.08296e-06
6.08256e-06
6.08256e-06
6.08194e-06
6.08143e-06
6.08093e-06
6.08093e-06
6.08017e-06
6.07959e-06
6.07902e-06
6.07847e-06
6.07847e-06
6.07765e-06
6.07707e-06
6.07642e-06
6.07565e-06
6.07565e-06
6.07437e-06
6.07336e-06
6.07251e-06
6.07204e-06
6.07198e-06
6.07198e-06
6.07251e-06
6.07321e-06
6.07427e-06
6.07583e-06
6.07798e-06
6.08067e-06
6.08067e-06
6.08456e-06
6.08791e-06
6.0907e-06
6.09269e-06
6.09434e-06
6.09562e-06
6.09658e-06
6.09771e-06
6.09992e-06
6.09992e-06
6.10521e-06
6.10971e-06
6.1097e-06
6.10225e-06
6.09901e-06
6.10099e-06
)
;
    }
    procBoundary0to4
    {
        type            processor;
        value           nonuniform List<scalar> 
72
(
6.09886e-06
6.09744e-06
6.09627e-06
6.09527e-06
6.0944e-06
6.09362e-06
6.0929e-06
6.09221e-06
6.09156e-06
6.09094e-06
6.09035e-06
6.08978e-06
6.08923e-06
6.08872e-06
6.08829e-06
6.08799e-06
6.08787e-06
6.08791e-06
6.08807e-06
6.08828e-06
6.08851e-06
6.08878e-06
6.08891e-06
6.08891e-06
6.08927e-06
6.08966e-06
6.09006e-06
6.09045e-06
6.0908e-06
6.09111e-06
6.09139e-06
6.09164e-06
6.09186e-06
6.09205e-06
6.09221e-06
6.09233e-06
6.09242e-06
6.09249e-06
6.09253e-06
6.09254e-06
6.09253e-06
6.09247e-06
6.09238e-06
6.09225e-06
6.09209e-06
6.09189e-06
6.09166e-06
6.09138e-06
6.09104e-06
6.09067e-06
6.09025e-06
6.0898e-06
6.08932e-06
6.08879e-06
6.0882e-06
6.08754e-06
6.08682e-06
6.08604e-06
6.0852e-06
6.08443e-06
6.08376e-06
6.08302e-06
6.08219e-06
6.08126e-06
6.08023e-06
6.07907e-06
6.07778e-06
6.07634e-06
6.07474e-06
6.07296e-06
6.07098e-06
6.06878e-06
)
;
    }
    procBoundary0to5
    {
        type            processor;
        value           nonuniform List<scalar> 4(6.09973e-06 6.09889e-06 6.09982e-06 6.09982e-06);
    }
}


// ************************************************************************* //
