/*--------------------------------*- C++ -*----------------------------------*\
| =========                 |                                                 |
| \\      /  F ield         | OpenFOAM: The Open Source CFD Toolbox           |
|  \\    /   O peration     | Version:  2506                                  |
|   \\  /    A nd           | Website:  www.openfoam.com                      |
|    \\/     M anipulation  |                                                 |
\*---------------------------------------------------------------------------*/
FoamFile
{
    version     2.0;
    format      ascii;
    arch        "LSB;label=32;scalar=64";
    class       surfaceScalarField;
    location    "150";
    object      phi;
}
// * * * * * * * * * * * * * * * * * * * * * * * * * * * * * * * * * * * * * //

dimensions      [0 3 -1 0 0 0 0];

oriented        oriented;

internalField   nonuniform List<scalar> 
2582
(
-0.180434
-0.244946
-0.150754
-0.247123
-0.120163
-0.259264
-0.0816231
-0.318884
-0.324579
-0.181303
-0.276643
-0.149951
-0.278475
-0.117846
-0.291368
-0.0772252
-0.359504
-0.0371952
-0.364608
-0.376673
-0.182471
-0.310139
-0.149475
-0.31147
-0.115642
-0.325201
-0.0728774
-0.402267
-0.0307475
-0.406738
0.0120852
-0.419504
-0.432455
-0.184108
-0.345352
-0.149198
-0.34638
-0.113693
-0.360705
-0.0685605
-0.4474
-0.0242318
-0.451065
0.0208521
-0.464588
0.0669887
-0.47859
-0.462147
-0.185975
-0.382513
-0.149275
-0.383079
-0.111732
-0.398248
-0.0642099
-0.494921
-0.0175031
-0.497772
0.0299078
-0.511997
0.0783894
-0.527072
0.124435
-0.508191
-0.456065
-0.188138
-0.421779
-0.149434
-0.421783
-0.110002
-0.437679
-0.0598185
-0.545104
-0.0106199
-0.546969
0.0392888
-0.561907
0.0903471
-0.578129
0.138697
-0.556542
0.180708
-0.498075
-0.439329
-0.190652
-0.463207
-0.149782
-0.462652
-0.108203
-0.479258
-0.0553096
-0.597997
-0.00347645
-0.598803
0.0490865
-0.614468
0.102841
-0.631884
0.1537
-0.6074
0.197796
-0.542171
-0.476899
-0.19337
-0.506859
-0.150275
-0.505747
-0.10648
-0.523052
-0.0507121
-0.653765
0.00395861
-0.653473
0.0593025
-0.669813
0.115876
-0.688457
0.169449
-0.660973
0.215744
-0.588465
0.25516
-0.516315
-0.451663
-0.1964
-0.552915
-0.15096
-0.551187
-0.104782
-0.569231
-0.0459268
-0.712619
0.0116572
-0.711057
0.0699978
-0.728152
0.129592
-0.748052
0.185919
-0.717299
0.234647
-0.637194
0.275982
-0.55765
-0.486717
-0.199656
-0.601501
-0.151745
-0.599099
-0.10306
-0.617915
-0.0409856
-0.774694
0.0196746
-0.771717
0.0811606
-0.789639
0.143951
-0.810842
0.203291
-0.776639
0.254506
-0.688409
0.297924
-0.601067
0.334645
-0.523438
-0.440134
-0.203195
-0.652709
-0.152637
-0.649656
-0.10132
-0.669232
-0.0358439
-0.84017
0.0281176
-0.835679
0.0928725
-0.854393
0.159031
-0.877
0.221523
-0.839131
0.27542
-0.742306
0.321052
-0.646699
0.35959
-0.561976
-0.471084
-0.206895
-0.706768
-0.15364
-0.702912
-0.0995423
-0.723329
-0.0305205
-0.909192
0.036926
-0.903124
0.105193
-0.922661
0.174907
-0.946713
0.240758
-0.904983
0.297476
-0.799024
0.345428
-0.694651
0.385859
-0.602406
-0.503505
-0.210942
-0.763742
-0.154756
-0.759097
-0.0977478
-0.780338
-0.0249423
-0.981997
0.0461389
-0.974206
0.118133
-0.994655
0.191606
-1.02019
0.260948
-0.974324
0.320667
-0.858743
0.371108
-0.745091
0.413613
-0.644911
0.447551
-0.537444
-0.448105
-0.215214
-0.823792
-0.155909
-0.818403
-0.0958226
-0.840424
-0.0190984
-1.05872
0.0558935
-1.0492
0.13175
-1.07051
0.209185
-1.09762
0.282262
-1.0474
0.345103
-0.921584
0.398196
-0.798183
0.44283
-0.689545
0.478451
-0.573065
-0.476247
-0.219724
-0.887129
-0.157256
-0.880871
-0.0938553
-0.903825
-0.0128937
-1.13968
0.0661328
-1.12822
0.146071
-1.15045
0.227671
-1.17922
0.304652
-1.12438
0.370898
-0.98783
0.426742
-0.854028
0.473694
-0.736497
0.511069
-0.61044
0.540535
-0.505713
-0.429653
-0.224483
-0.953963
-0.158567
-0.946787
-0.0918063
-0.970585
-0.00645741
-1.22503
0.0768618
-1.21154
0.161133
-1.23472
0.247176
-1.26527
0.328328
-1.20553
0.398069
-1.05757
0.456852
-0.91281
0.506207
-0.785852
0.545471
-0.649704
0.576339
-0.536581
-0.454519
-0.229537
-1.0244
-0.160068
-1.01626
-0.0896404
-1.04101
0.00034337
-1.31502
0.0881841
-1.29938
0.177036
-1.32357
0.267698
-1.35593
0.353218
-1.29105
0.426716
-1.13107
0.48861
-0.974704
0.540536
-0.837778
0.581759
-0.690926
0.61415
-0.568973
-0.480543
-0.234855
-1.09865
-0.161606
-1.0895
-0.0873776
-1.11524
0.00754197
-1.40994
0.100126
-1.39197
0.193797
-1.41724
0.289373
-1.4515
0.379498
-1.38118
0.456915
-1.20849
0.522102
-1.03989
0.576724
-0.8924
0.620071
-0.734273
0.654013
-0.602914
0.681248
-0.507778
-0.42933
-0.240482
-1.17694
-0.163218
-1.16677
-0.0849493
-1.19351
0.0150989
-1.50998
0.112723
-1.48959
0.211468
-1.51599
0.312223
-1.55226
0.40722
-1.47618
0.488774
-1.29004
0.557404
-1.10852
0.614902
-0.949898
0.660529
-0.7799
0.696111
-0.638497
0.724618
-0.536284
-0.451946
-0.246352
-1.2595
-0.16493
-1.24819
-0.0824405
-1.276
0.0230532
-1.61548
0.125998
-1.59254
0.230083
-1.62008
0.336311
-1.65849
0.436421
-1.57629
0.522358
-1.37598
0.594693
-1.18086
0.655236
-1.01044
0.703064
-0.827728
0.740604
-0.676036
0.770426
-0.566107
-0.475622
-0.252577
-1.34652
-0.166745
-1.33402
-0.0797353
-1.36301
0.0315065
-1.72672
0.14003
-1.70106
0.249752
-1.7298
0.361742
-1.77048
0.467238
-1.68178
0.557824
-1.46656
0.633945
-1.25698
0.697669
-1.07416
0.748222
-0.878281
0.787504
-0.715319
0.818748
-0.597351
0.843437
-0.500311
-0.428633
-0.259091
-0.168575
-1.42454
-0.0769074
-1.45468
0.0404046
-1.84403
0.1548
-1.81546
0.270498
-1.8455
0.38851
-1.88849
0.499785
-1.79306
0.595239
-1.56202
0.675406
-1.33714
0.742581
-1.14134
0.795508
-0.931209
0.836848
-0.756659
0.869885
-0.630388
0.895692
-0.526117
-0.449262
-0.170527
-1.51998
-0.0738492
-1.55135
0.0497791
-1.96766
0.170424
-1.9361
0.292383
-1.96745
0.416829
-2.01294
0.534054
-1.91028
0.634703
-1.66267
0.719253
-1.42169
0.789954
-1.21204
0.845782
-0.987038
0.889187
-0.800064
0.923606
-0.664806
0.950787
-0.553299
0.972255
-0.47073
-0.414031
-0.172569
-1.62058
-0.0706649
-1.65326
0.0597304
-2.09806
0.186907
-2.06328
0.315501
-2.09605
0.446701
-2.14414
0.57037
-2.03395
0.67632
-1.76862
0.765339
-1.51071
0.839806
-1.28651
0.898566
-1.0458
0.944278
-0.845775
0.980584
-0.701113
1.00895
-0.581669
1.03148
-0.493259
-0.432476
-0.174665
-1.72666
-0.0672338
-1.76069
0.0702411
-2.23553
0.204329
-2.19737
0.339894
-2.23161
0.478203
-2.28245
0.608454
-2.1642
0.720264
-1.88043
0.814137
-1.60459
0.89254
-1.36491
0.954419
-1.10768
1.00252
-0.893878
1.04047
-0.739064
1.07029
-0.611488
1.09384
-0.51681
-0.451808
-0.176899
-1.8385
-0.0636202
-1.87397
0.0813228
-2.38047
0.222688
-2.33873
0.365623
-2.37455
0.511514
-2.42834
0.648805
-2.30149
0.766603
-1.99823
0.865501
-1.70348
0.948047
-1.44745
1.01327
-1.1729
1.06379
-0.9444
1.10393
-0.779209
1.13511
-0.642662
1.15989
-0.541591
1.17981
-0.471733
-0.419852
-0.179175
-1.95639
-0.0597635
-1.99338
0.0930915
-2.53333
0.242144
-2.48778
0.392861
-2.52526
0.546533
-2.58201
0.691448
-2.44641
0.815504
-2.12228
0.91976
-1.80774
1.00681
-1.53451
1.07536
-1.24145
1.12868
-0.997717
1.17065
-0.821184
1.20356
-0.675569
1.22942
-0.567445
1.25043
-0.492748
-0.437103
-0.181556
-2.0807
-0.0556493
-2.11929
0.10548
-2.69446
0.262649
-2.64495
0.42151
-2.68413
0.583665
-2.74416
0.73631
-2.59905
0.867251
-2.25322
0.977133
-1.91762
1.06876
-1.62613
1.14102
-1.31371
1.19695
-1.05364
1.2413
-0.865543
1.27574
-0.709999
1.30277
-0.594479
1.3249
-0.514879
-0.455033
-0.18404
-2.21179
-0.0513397
-2.25199
0.118599
-2.8644
0.284299
-2.81065
0.451876
-2.8517
0.622766
-2.91505
0.783775
-2.76006
0.921725
-2.39117
1.03742
-2.03332
1.13413
-1.72284
1.21027
-1.38984
1.26918
-1.11255
1.31571
-0.912074
1.35195
-0.746232
1.38044
-0.622972
1.40335
-0.537793
1.42235
-0.474028
-0.43062
-0.186667
-2.34995
-0.0466947
-2.39196
0.132441
-3.04353
0.307187
-2.9854
0.483856
-3.02837
0.663977
-3.09517
0.833747
-2.92983
0.97924
-2.53667
1.10127
-2.15535
1.20319
-1.82477
1.28325
-1.4699
1.34545
-1.17475
1.3944
-0.961021
1.43248
-0.784309
1.46233
-0.65283
1.4864
-0.561856
1.50602
-0.493651
-0.447312
-0.189319
-2.49565
-0.041777
-2.5395
0.147152
-3.23246
0.331383
-3.16963
0.517608
-3.2146
0.70771
-3.28528
0.88661
-3.10873
1.03994
-2.69
1.16863
-2.28404
1.27587
-1.93201
1.3604
-1.55443
1.4257
-1.24005
1.47726
-1.01258
1.51731
-0.824356
1.54869
-0.684214
1.57408
-0.587246
1.59468
-0.514252
-0.464564
-0.192138
-2.64927
-0.0365387
-2.6951
0.162626
-3.43163
0.356933
-3.36394
0.553313
-3.41098
0.753604
-3.48557
0.942439
-3.29757
1.10402
-2.85158
1.23971
-2.41972
1.35284
-2.04514
1.44177
-1.64336
1.51068
-1.30897
1.56487
-1.06677
1.60696
-0.866452
1.64
-0.71725
1.66648
-0.613729
1.68798
-0.53575
1.70609
-0.482677
-0.448972
-0.195059
-2.81123
-0.0310364
-2.85912
0.179047
-3.64171
0.383836
-3.56873
0.590971
-3.61811
0.802287
-3.69688
1.00122
-3.4965
1.17178
-3.02215
1.31459
-2.56253
1.43383
-2.16438
1.52767
-1.73721
1.60017
-1.38147
1.6574
-1.12399
1.70165
-0.910703
1.73628
-0.751878
1.76412
-0.64157
1.7868
-0.558429
1.80564
-0.501521
-0.465305
-0.198102
-2.98203
-0.0251329
-3.03209
0.196351
-3.86319
0.412424
-3.7848
0.630827
-3.83652
0.853695
-3.91975
1.0634
-3.70621
1.243
-3.20175
1.39393
-2.71345
1.51955
-2.29
1.61841
-1.83607
1.69472
-1.45778
1.75493
-1.18421
1.80154
-0.95731
1.83802
-0.788361
1.86726
-0.67081
1.89089
-0.582054
1.91073
-0.521362
-0.482479
-0.201281
-3.1621
-0.0188821
-3.21449
0.214662
-4.09674
0.442465
-4.0126
0.672789
-4.06684
0.907659
-4.15462
1.12891
-3.92746
1.3186
-3.39144
1.47744
-2.87229
1.60989
-2.42245
1.71406
-1.94024
1.79465
-1.53836
1.85787
-1.24743
1.9071
-1.00654
1.94521
-0.82648
1.97602
-0.701611
2.00097
-0.607012
2.02175
-0.542136
2.03967
-0.500398
-0.47648
-0.204598
-3.35198
-0.0122721
-3.40682
0.234028
-4.34304
0.47425
-4.25282
0.717171
-4.30976
0.964962
-4.40241
1.19828
-4.16077
1.39804
-3.5912
1.56561
-3.03986
1.70536
-2.5622
1.815
-2.04988
1.89992
-1.62329
1.96668
-1.31419
2.01833
-1.05819
2.05863
-0.86678
2.09089
-0.733874
2.1171
-0.633222
2.13882
-0.563851
2.15761
-0.519191
-0.493368
-0.208066
-3.55221
-0.00527733
-3.60961
0.254488
-4.60281
0.507864
-4.5062
0.763938
-4.56583
1.02517
-4.66365
1.27127
-4.40687
1.48203
-3.80197
1.65869
-3.21652
1.80601
-2.70952
1.92175
-2.16562
2.01114
-1.71268
2.08141
-1.38446
2.13589
-1.11266
2.17827
-0.909163
2.21225
-0.76785
2.23963
-0.660604
2.26242
-0.586635
2.28216
-0.538934
-0.511139
-0.211673
-3.76334
0.0021887
-3.82347
0.276145
-4.87676
0.543231
-4.77329
0.81343
-4.83603
1.08896
-4.93918
1.34845
-4.66636
1.57072
-4.02423
1.757
-3.40281
1.91227
-2.86479
2.03436
-2.2877
2.12847
-1.80679
2.20263
-1.45862
2.25988
-1.16991
2.30461
-0.953897
2.34025
-0.803491
2.36919
-0.689546
2.3931
-0.610545
2.41375
-0.559582
2.4322
-0.529591
-0.515595
-0.215467
-3.98596
0.0100448
-4.04898
0.298928
-5.16565
0.580654
-5.05501
0.865616
-5.121
1.15626
-5.22982
1.42995
-4.94005
1.66438
-4.25867
1.86079
-3.59922
2.02448
-3.02848
2.15314
-2.41636
2.25248
-1.90614
2.33049
-1.53662
2.39078
-1.2302
2.43782
-1.00094
2.4755
-0.841171
2.50578
-0.719829
2.53097
-0.635729
2.55261
-0.581227
2.57211
-0.549084
-0.533816
-0.219419
-4.22077
0.0184144
-4.28681
0.322998
-5.47023
0.62032
-5.35233
0.92069
-5.42137
1.22735
-5.53648
1.51597
-5.22867
1.76309
-4.50579
1.97033
-3.80646
2.14296
-3.20111
2.27853
-2.55193
2.3832
-2.0108
2.46547
-1.6189
2.52911
-1.29383
2.57862
-1.05045
2.61815
-0.880704
2.65004
-0.751719
2.67652
-0.66221
2.69917
-0.603876
2.71962
-0.569535
-0.553017
-0.223542
-4.46837
0.0272672
-4.53762
0.348537
-5.7915
0.661977
-5.66578
0.978791
-5.73818
1.30217
-5.85986
1.60662
-5.53312
1.86738
-4.76655
2.08581
-4.02489
2.26788
-3.38318
2.41081
-2.69486
2.52136
-2.12135
2.60795
-1.7055
2.67501
-1.36088
2.72711
-1.10255
2.76893
-0.922517
2.80236
-0.785152
2.8303
-0.690152
2.85421
-0.627783
2.87555
-0.590878
-0.572926
-0.227921
-4.72944
0.0365791
-4.80212
0.375463
-6.13038
0.706041
-5.99635
1.04038
-6.07252
1.38125
-6.20074
1.70247
-5.85434
1.97737
-5.04144
2.20795
-4.25547
2.39993
-3.57516
2.55068
-2.8456
2.66694
-2.23762
2.75845
-1.797
2.82908
-1.43152
2.88401
-1.15748
2.92784
-0.966351
2.96321
-0.820522
2.99239
-0.719331
3.01751
-0.652898
3.03998
-0.613352
3.06115
-0.594095
-0.593801
-0.232426
-5.00484
0.0465182
-5.08107
0.403919
-6.48778
0.752467
-6.3449
1.10506
-6.42512
1.46491
-6.56058
1.8035
-6.19293
2.09365
-5.3316
2.33661
-4.49843
2.53912
-3.77767
2.69816
-3.00463
2.82084
-2.3603
2.9172
-1.89336
2.99158
-1.5059
3.04947
-1.21537
3.09578
-1.01266
3.13302
-0.857764
3.16374
-0.750052
3.19016
-0.679318
3.21384
-0.637031
3.23581
-0.61607
-0.615633
-0.237232
-5.29521
0.0569734
-5.37527
0.433986
-6.8648
0.801698
-6.71261
1.17362
-6.79704
1.55303
-6.93999
1.9103
-6.5502
2.21618
-5.63748
2.47253
-4.75478
2.68606
-3.99121
2.85372
-3.17229
2.98316
-2.48974
3.08467
-1.99487
3.16326
-1.58449
3.2243
-1.27641
3.27288
-1.06124
3.31214
-0.897026
3.34464
-0.782554
3.37235
-0.707027
3.39723
-0.661905
3.42039
-0.639231
-0.638584
-0.24225
-5.60145
0.0680558
-5.68558
0.465686
-7.26243
0.853524
-7.10045
1.24581
-7.18932
1.64601
-7.34019
2.02295
-6.92714
2.34569
-5.96023
2.61608
-5.02516
2.84132
-4.21645
3.0181
-3.34908
3.15451
-2.62615
3.26175
-2.10211
3.34439
-1.66713
3.40874
-1.34076
3.46014
-1.11264
3.50132
-0.938204
3.53544
-0.816677
3.56479
-0.736371
3.5908
-0.687922
3.61533
-0.663759
-0.662502
-0.247474
-5.92447
0.0797837
-6.01284
0.499122
-7.68177
0.908325
-7.50965
1.32213
-7.60313
1.7443
-7.76236
2.14178
-7.32462
2.48217
-6.30062
2.76754
-5.31053
3.00506
-4.45397
3.19155
-3.53557
3.3355
-2.7701
3.44834
-2.21495
3.53566
-1.75445
3.60344
-1.40854
3.65756
-1.16676
3.70112
-0.981765
3.73699
-0.85255
3.76777
-0.767154
3.79531
-0.71546
3.82096
-0.689408
3.84632
-0.687866
-0.707206
-0.253051
-6.2651
0.0920968
-6.35799
0.534465
-8.12414
0.966081
-7.94127
1.40256
-8.03961
1.84794
-8.20773
2.26736
-7.74404
2.62639
-6.65964
2.92718
-5.61132
3.17783
-4.70463
3.37468
-3.73242
3.52629
-2.92171
3.64552
-2.33418
3.73753
-1.84645
3.80897
-1.47998
3.866
-1.22379
3.91183
-1.0276
3.94975
-0.890461
3.98215
-0.799555
4.0111
-0.744415
4.03808
-0.716391
4.06462
-0.714397
-0.734924
-0.25884
-6.62439
0.105255
-6.72208
0.571717
-8.5906
1.02701
-8.39656
1.48742
-8.50003
1.95741
-8.67772
2.39977
-8.1864
2.77863
-7.03851
3.09598
-5.92867
3.36039
-4.96903
3.56783
-3.93986
3.72795
-3.08183
3.85355
-2.45979
3.95051
-1.94341
4.02599
-1.55546
4.08598
-1.28379
4.13437
-1.07599
4.17426
-0.930354
4.20842
-0.833718
4.23886
-0.774856
4.26727
-0.744801
4.29529
-0.742415
-0.763828
-0.264991
-7.00332
0.118951
-7.10602
0.611259
-9.08291
1.09142
-8.87673
1.57723
-8.98583
2.07283
-9.17333
2.5395
-8.65306
2.93918
-7.43819
3.274
-6.26349
3.55284
-5.24787
3.77173
-4.15876
3.9406
-3.25069
4.07314
-2.59233
4.17543
-2.04569
4.25483
-1.63486
4.31822
-1.34718
4.36911
-1.12688
4.41124
-0.972479
4.44707
-0.869552
4.47927
-0.807052
4.50917
-0.774709
4.53859
-0.771831
-0.794298
-0.271417
-7.40299
0.1337
-7.51114
0.652671
-9.60188
1.15936
-9.38341
1.67172
-9.4982
2.1946
-9.69621
2.68704
-9.1455
3.10867
-7.85981
3.46199
-6.61681
3.75616
-5.54203
3.987
-4.3896
4.1651
-3.42878
4.30483
-2.73206
4.41272
-2.15359
4.4965
-1.71864
4.56333
-1.41401
4.61687
-1.18041
4.66117
-1.01678
4.69909
-0.907469
4.73295
-0.840913
4.76439
-0.806149
4.79535
-0.802789
-0.826545
-0.278247
-7.82455
0.148928
-7.93832
0.696638
-10.1496
1.23107
-9.91784
1.77175
-10.0389
2.32335
-10.2478
2.84282
-9.66497
3.28751
-8.30451
3.66015
-6.98945
3.97052
-5.8524
4.21409
-4.63318
4.40201
-3.6167
4.54937
-2.87942
4.66298
-2.2672
4.75132
-1.80698
4.82177
-1.48447
4.87841
-1.23705
4.92506
-1.06344
4.9651
-0.947505
5.00055
-0.876367
5.03381
-0.839411
5.06638
-0.835362
5.10016
-0.860324
-0.866864
-0.285415
-8.26917
0.165257
-8.38899
0.74297
-10.7273
1.30664
-10.4815
1.87704
-10.6093
2.45915
-10.8299
3.00704
-10.2129
3.47643
-8.7739
3.86956
-7.38259
4.19695
-6.17979
4.45387
-4.89009
4.65195
-3.81478
4.80729
-3.03477
4.92732
-2.38722
5.02045
-1.90011
5.09471
-1.55872
5.15424
-1.29658
5.20351
-1.1127
5.24548
-0.989481
5.28318
-0.914066
5.31793
-0.874155
5.3524
-0.86984
5.38793
-0.895851
-0.902905
-0.292979
-8.73809
0.182312
-8.86428
0.791653
-11.3366
1.38658
-11.0764
1.98825
-11.2109
2.60227
-11.4439
3.18045
-10.791
3.6756
-9.26904
4.09042
-7.79741
4.43583
-6.5252
4.70674
-5.161
4.91564
-4.02367
5.07958
-3.19871
5.20598
-2.51362
5.30419
-1.99832
5.3825
-1.63704
5.44545
-1.35953
5.49731
-1.16456
5.54165
-1.03381
5.58114
-0.953559
5.61792
-0.910941
5.65408
-0.905992
5.69166
-0.933431
-0.940948
-0.300893
-9.23286
0.200571
-9.36574
0.843354
-11.9794
1.47078
-11.7039
2.10562
-11.8458
2.75329
-12.0916
3.36336
-11.4011
3.8859
-9.79158
4.32355
-8.23507
4.68779
-6.88944
4.97368
-5.4469
5.1939
-4.24389
5.3668
-3.37161
5.5002
-2.64702
5.60374
-2.10186
5.68622
-1.71952
5.75249
-1.4258
5.80721
-1.21928
5.85392
-1.08052
5.89564
-0.995278
5.93452
-0.949818
5.97266
-0.944137
6.01206
-0.972828
-0.980949
-0.309368
-9.75462
0.219469
-9.89458
0.897755
-12.6577
1.55972
-12.3658
2.2294
-12.5155
2.91286
-12.7751
3.5564
-12.0447
4.10769
-10.3429
4.56953
-8.69691
4.95372
-7.27363
5.25505
-5.74823
5.48761
-4.47645
5.66985
-3.55385
5.81047
-2.78763
5.91968
-2.21107
6.00683
-1.80667
6.07664
-1.49562
6.13429
-1.27693
6.1836
-1.12983
6.22745
-1.03912
6.2683
-0.990673
6.30848
-0.984319
6.35015
-1.0145
-1.02319
-0.318357
-10.3049
0.239755
-10.4527
0.955036
-13.373
1.65336
-13.0642
2.3599
-13.222
3.08116
-13.4963
3.76019
-12.7237
4.34198
-10.9247
4.82887
-9.1838
5.23425
-7.679
5.55218
-6.06616
5.79724
-4.72152
5.98961
-3.74622
6.13805
-2.93607
6.25309
-2.32611
6.34486
-1.89844
6.41856
-1.56932
6.47943
-1.3378
6.5312
-1.1816
6.57799
-1.08591
6.62088
-1.03356
6.66275
-1.0262
6.70621
-1.05795
-1.0686
-0.327777
-10.8854
0.260661
-11.0411
1.01546
-14.1278
1.75235
-13.801
2.498
-13.9677
3.25859
-14.2569
3.9752
-13.4403
4.58909
-11.5385
5.10279
-9.69749
5.53017
-8.10639
5.86556
-6.40154
6.12418
-4.98013
6.327
-3.94904
6.48373
-3.09281
6.60545
-2.44783
6.70124
-1.99423
6.77952
-1.6476
6.84276
-1.40104
6.89807
-1.23691
6.94658
-1.13442
6.9923
-1.07928
7.0364
-1.0703
7.08285
-1.10439
7.12922
-1.11497
-1.02807
-0.337616
-11.4978
0.283248
-11.662
1.07942
-14.924
1.85675
-14.5784
2.64326
-14.7542
3.4461
-15.0598
4.2019
-14.1961
4.84975
-12.1864
5.39148
-10.2392
5.84237
-8.55728
6.19624
-6.75541
6.46917
-5.25306
6.68218
-4.16205
6.84676
-3.2574
6.97464
-2.5757
7.07829
-2.09789
7.1598
-1.72911
7.22787
-1.46911
7.28489
-1.29392
7.33562
-1.18515
7.3836
-1.12727
7.43128
-1.11797
7.48013
-1.15324
7.52903
-1.16388
-1.07345
-0.242845
-11.9377
0.214132
-12.119
0.843463
-15.5533
1.54258
-15.2775
2.38893
-15.6005
3.48063
-16.1515
4.84911
-15.5646
6.2246
-13.5619
6.12292
-10.1375
5.99235
-8.42671
5.88437
-6.64743
5.79981
-5.1685
5.73439
-4.09663
5.68566
-3.20867
5.64773
-2.53777
5.61899
-2.06915
5.59609
-1.70621
5.57945
-1.45248
5.56526
-1.27972
5.55332
-1.17322
5.54198
-1.11593
5.53357
-1.10956
5.5279
-1.14758
5.52503
-1.16101
-1.07416
-0.262775
-12.4219
0.240194
-12.6219
0.932764
-16.2459
1.70219
-16.0469
2.6341
-16.5324
3.83658
-17.3539
5.34479
-17.0728
6.86045
-15.0776
6.74586
-10.0229
6.60068
-8.28153
6.4809
-6.52765
6.38578
-5.07339
6.31345
-4.0243
6.25772
-3.15294
6.21821
-2.49827
6.18597
-2.03691
6.1616
-1.68184
6.14056
-1.43143
6.12431
-1.26347
6.11145
-1.16036
6.10041
-1.10489
6.09103
-1.10018
6.08455
-1.1411
6.08104
-1.15749
-1.07677
-0.284559
-12.9542
0.268748
-13.1753
1.03113
-17.0082
1.87855
-16.8943
2.90465
-17.5586
4.22921
-18.6785
5.89057
-18.7341
7.56019
-16.7472
7.4298
-9.89256
7.2696
-8.12132
7.13434
-6.3924
7.03095
-4.96999
6.95094
-3.94429
6.88993
-3.09193
6.84408
-2.45242
6.8086
-2.00142
6.7817
-1.65494
6.76031
-1.41004
6.74214
-1.2453
6.72723
-1.14545
6.71536
-1.09302
6.70391
-1.08872
6.69556
-1.13275
6.69283
-1.15477
-1.07891
-0.307596
-13.54
0.301162
-13.784
1.14018
-17.8473
2.07273
-17.8269
3.20269
-18.6885
4.66146
-20.1373
6.49159
-20.5643
8.33182
-18.5874
8.18582
-9.74656
8.00561
-7.94111
7.85727
-6.24405
7.74129
-4.85401
7.65169
-3.85469
7.58457
-3.02481
7.53277
-2.40062
7.49434
-1.96299
7.4639
-1.6245
7.44107
-1.38722
7.42122
-1.22544
7.40442
-1.12866
7.38931
-1.07791
7.3798
-1.07921
7.37096
-1.12392
7.36672
-1.15053
-1.08078
-0.33269
-14.1842
0.337267
-14.454
1.26039
-18.7704
2.28735
-18.8539
3.53115
-19.9323
5.13762
-21.7437
7.15281
-22.5795
9.17811
-20.6127
9.0152
-9.58365
8.81582
-7.74173
8.65169
-6.07992
8.52403
-4.72636
8.42299
-3.75365
8.34904
-2.95086
8.29294
-2.34452
8.25063
-1.92067
8.21693
-1.5908
8.18911
-1.3594
8.1677
-1.20404
8.14925
-1.11021
8.13366
-1.06232
8.12115
-1.0667
8.11083
-1.11359
8.10782
-1.14753
-1.08128
-0.359317
-14.893
0.377344
-15.1906
1.39357
-19.7866
2.5236
-19.9839
3.89299
-21.3017
5.6619
-23.5126
7.88198
-24.7995
10.1121
-22.8428
9.92895
-9.40051
9.70697
-7.51975
9.52476
-5.89771
9.38261
-4.58421
9.27343
-3.64446
9.19066
-2.8681
9.12822
-2.28208
9.07987
-1.87232
9.04322
-1.55415
9.01444
-1.33063
8.99055
-1.18014
8.9693
-1.08896
8.95344
-1.04645
8.93689
-1.05015
8.9278
-1.10451
8.92244
-1.14217
-1.08327
-0.38851
-15.6726
0.422391
-16.0015
1.54052
-20.9047
2.78415
-21.2275
4.29153
-22.8091
6.23865
-25.4598
8.6824
-27.2433
11.1364
-25.2969
10.9335
-9.19754
10.6887
-7.27494
10.4861
-5.69518
10.3294
-4.42745
10.2078
-3.5229
10.1156
-2.77592
10.0485
-2.215
9.99455
-1.81833
9.95398
-1.51358
9.92078
-1.29742
9.89327
-1.15264
9.8721
-1.06778
9.85231
-1.02667
9.83702
-1.03486
9.82561
-1.0931
9.81941
-1.13597
-1.08567
-0.419565
-16.53
0.472332
-16.8934
1.70255
-22.135
3.07111
-22.5961
4.7299
-24.4679
6.87365
-27.6035
9.56272
-29.9324
12.2625
-27.9966
12.039
-8.9741
11.7678
-7.0037
11.5441
-5.47151
11.3702
-4.25351
11.236
-3.38867
11.1364
-2.67633
11.0589
-2.13751
11.0022
-1.76163
10.9554
-1.46685
10.9193
-1.26123
10.8909
-1.12433
10.8649
-1.04169
10.8439
-1.00575
10.8263
-1.01718
10.8127
-1.07954
10.8072
-1.13044
10.8089
-1.0874
-1.00166
-0.453142
-17.4732
0.527843
-17.8744
1.88129
-23.4884
3.38717
-24.1019
5.21253
-26.2932
7.5719
-29.9629
10.5288
-32.8893
13.5021
-30.9699
13.2551
-8.72706
12.9555
-6.70419
12.7099
-5.22591
12.5161
-4.05962
12.3685
-3.24116
12.2557
-2.5635
12.1722
-2.05397
12.1069
-1.69639
12.0583
-1.41824
12.0182
-1.22112
11.9842
-1.09028
11.9559
-1.01341
11.9326
-0.9825
11.9127
-0.997218
11.8984
-1.06525
11.8898
-1.12189
11.8923
-1.08992
-1.012
-0.48918
-18.5106
0.589917
-18.9535
2.07869
-24.9772
3.73505
-25.7583
5.7431
-28.3013
8.33728
-32.5571
11.5916
-36.1436
14.8605
-34.2388
14.5926
-8.4592
14.262
-6.37356
13.9906
-4.9545
13.7779
-3.84693
13.6124
-3.07571
13.4876
-2.43869
13.394
-1.96037
13.3227
-1.62507
13.266
-1.36152
13.221
-1.17616
13.1855
-1.0548
13.1542
-0.982072
13.1277
-0.955979
13.107
-0.976522
13.0896
-1.04788
13.0808
-1.11307
13.0817
-1.09087
-1.02189
-0.528167
-19.6516
0.658874
-20.1405
2.29619
-26.6145
4.11783
-27.58
6.32603
-30.5095
9.17852
-35.4096
12.756
-39.7211
16.3539
-37.8366
16.0625
-8.16781
15.7006
-6.01165
15.3994
-4.65335
15.1642
-3.61175
14.98
-2.89149
14.842
-2.30071
14.7378
-1.85611
14.6564
-1.54376
14.5936
-1.29867
14.5445
-1.12708
14.5022
-1.01247
14.4692
-0.949075
14.4399
-0.926751
14.4143
-0.950851
14.3959
-1.02954
14.3873
-1.1044
14.3867
-1.0903
-1.03373
-0.569621
-20.9061
0.735269
-21.4454
2.5356
-28.4148
4.53811
-29.5825
6.96614
-32.9375
10.1026
-38.546
14.0343
-43.6529
17.9956
-41.7978
17.6802
-7.8524
17.2854
-5.6169
16.9503
-4.3183
16.6864
-3.34777
16.4813
-2.68644
16.33
-2.14939
16.2156
-1.74172
16.1286
-1.45673
16.0623
-1.23238
16.0066
-1.07145
15.9625
-0.968353
15.9227
-0.909257
15.8897
-0.893777
15.8616
-0.922766
15.841
-1.0089
15.8311
-1.09453
15.8356
-1.09472
-1.048
-0.613553
0.821054
2.79914
4.99942
7.66554
11.11
15.4348
19.7868
19.4569
19.0312
18.669
18.3811
18.154
17.9797
17.85
17.7513
17.6764
17.6209
17.576
17.5418
17.5123
17.4897
17.4704
17.4582
17.4577
)
;

boundaryField
{
    inlet
    {
        type            calculated;
        value           nonuniform List<scalar> 
26
(
-22.2858
-22.88
-30.3929
-31.7828
-35.6036
-41.9905
-47.9776
-46.1499
-7.52252
-5.19113
-3.95611
-3.05984
-2.45942
-1.97502
-1.61204
-1.35799
-1.15758
-1.01589
-0.923499
-0.874992
-0.864321
-0.900187
-0.989593
-1.08237
-1.09422
-1.06079
)
;
    }
    outlet
    {
        type            calculated;
        value           nonuniform List<scalar> 0();
    }
    walls
    {
        type            calculated;
        value           nonuniform List<scalar> 0();
    }
    frontAndBack
    {
        type            empty;
    }
    procBoundary0to1
    {
        type            processor;
        value           nonuniform List<scalar> 
94
(
0.286493
-0.0435354
0.335893
0.00358558
0.388595
0.055945
0.418374
0.110762
0.416046
0.164454
0.403469
0.216567
0.235367
0.41821
0.288613
0.311036
0.410557
0.364223
0.39054
0.41828
0.421183
0.474473
0.506593
0.405858
0.56433
0.601205
0.640174
0.407745
0.702833
0.747234
0.794102
0.408815
0.863256
0.916322
0.396298
0.989989
1.04993
1.11318
0.403142
1.19652
1.26768
1.34283
0.414844
1.43813
1.52271
1.61193
0.433094
1.72197
1.82198
1.9279
0.460347
2.0558
2.1745
2.29993
0.498175
2.44962
2.59033
2.73882
2.89546
0.573123
3.08183
3.25765
3.44334
3.63925
0.681141
3.87239
4.09233
4.3242
4.56906
4.82759
0.832506
5.13452
5.42397
5.7297
6.05206
6.39239
6.75163
0.985231
7.17205
7.57441
5.52575
6.08365
6.69497
7.36859
8.10833
8.92443
9.82181
0.991886
10.8187
11.9027
13.0916
14.3985
15.8498
17.4705
)
;
    }
    procBoundary0to4
    {
        type            processor;
        value           nonuniform List<scalar> 
72
(
0.210557
0.213003
0.215968
0.219323
0.223136
0.227405
0.23208
0.237022
0.242456
0.248243
0.254403
0.260955
0.267917
0.275265
0.283061
0.291317
0.299978
0.309099
0.318775
0.328907
0.339601
0.350847
-1.43828
0.265965
0.273172
0.280741
0.288738
0.297072
0.305861
0.315133
0.324827
0.335025
0.345751
0.357025
0.368896
0.381355
0.394475
0.408295
0.422805
0.438093
0.454221
0.471151
0.48899
0.50782
0.527605
0.548489
0.570495
0.593684
0.618131
0.643916
0.671089
0.699805
0.730034
0.761901
0.79566
0.831137
0.868647
0.908288
0.950029
0.68272
0.746947
0.816917
0.893355
0.976884
1.06813
1.16806
1.27701
1.39637
1.52659
1.66911
1.82416
1.99322
)
;
    }
    procBoundary0to5
    {
        type            processor;
        value           nonuniform List<scalar> 4(0.214824 0.217442 0.228674 0.280343);
    }
}


// ************************************************************************* //
