/*--------------------------------*- C++ -*----------------------------------*\
| =========                 |                                                 |
| \\      /  F ield         | OpenFOAM: The Open Source CFD Toolbox           |
|  \\    /   O peration     | Version:  2506                                  |
|   \\  /    A nd           | Website:  www.openfoam.com                      |
|    \\/     M anipulation  |                                                 |
\*---------------------------------------------------------------------------*/
FoamFile
{
    version     2.0;
    format      ascii;
    arch        "LSB;label=32;scalar=64";
    class       volSymmTensorField;
    location    "150";
    object      turbulenceProperties:devReff;
}
// * * * * * * * * * * * * * * * * * * * * * * * * * * * * * * * * * * * * * //

dimensions      [0 2 -2 0 0 0 0];

internalField   nonuniform List<symmTensor> 
1340
(
(8.38903e-05 -7.42123e-05 -2.89385e-21 -8.38305e-05 -9.10254e-22 -5.97861e-08)
(9.32769e-05 -5.95161e-05 2.27308e-20 -9.33645e-05 2.20879e-20 8.76343e-08)
(0.000100029 -4.40192e-05 4.93071e-20 -9.99976e-05 2.55455e-20 -3.10588e-08)
(0.000104445 -2.52693e-05 -7.91612e-20 -0.000104602 -8.59242e-20 1.57287e-07)
(0.000105048 -4.7079e-06 -1.1115e-19 -0.000105022 -8.91427e-20 -2.55656e-08)
(7.05106e-05 -6.37344e-05 1.03804e-20 -7.04706e-05 8.95871e-21 -3.9989e-08)
(7.8448e-05 -5.14906e-05 2.95744e-20 -7.85108e-05 1.43836e-20 6.27311e-08)
(8.42434e-05 -3.85485e-05 -7.02467e-20 -8.42209e-05 -4.72792e-20 -2.24989e-08)
(8.81835e-05 -2.29208e-05 1.06632e-20 -8.83112e-05 1.8969e-20 1.27645e-07)
(8.90178e-05 -5.70044e-06 1.07057e-19 -8.89783e-05 3.88308e-20 -3.94329e-08)
(8.60808e-05 1.18514e-05 -7.8268e-20 -8.60193e-05 -8.88694e-20 -6.15295e-08)
(5.96265e-05 -5.51216e-05 -5.34376e-21 -5.95938e-05 -4.91918e-21 -3.27579e-08)
(6.64058e-05 -4.48355e-05 -2.2385e-20 -6.64457e-05 -1.42314e-20 3.98981e-08)
(7.14163e-05 -3.39322e-05 -2.76929e-21 -7.13976e-05 1.08505e-21 -1.87775e-08)
(7.49398e-05 -2.07861e-05 4.113e-20 -7.50408e-05 2.57727e-20 1.01028e-07)
(7.59159e-05 -6.24392e-06 -2.57546e-20 -7.58688e-05 -2.06251e-21 -4.71358e-08)
(7.37706e-05 8.63133e-06 9.22777e-20 -7.3721e-05 6.7978e-20 -4.96258e-08)
(6.843e-05 2.30651e-05 1.53526e-19 -6.84039e-05 6.31807e-20 -2.61131e-08)
(5.06733e-05 -4.79495e-05 7.01174e-21 -5.06492e-05 4.82848e-21 -2.41321e-08)
(5.65185e-05 -3.9246e-05 9.90593e-21 -5.65454e-05 6.72552e-21 2.68031e-08)
(6.08822e-05 -3.00004e-05 2.62219e-20 -6.08648e-05 7.99842e-21 -1.74528e-08)
(6.40407e-05 -1.88566e-05 -7.15296e-20 -6.41239e-05 -4.68272e-20 8.31742e-08)
(6.50935e-05 -6.49318e-06 -3.52575e-20 -6.50457e-05 -2.45312e-20 -4.78253e-08)
(6.35415e-05 6.20821e-06 -8.95423e-20 -6.35022e-05 -5.26094e-20 -3.92839e-08)
(5.93036e-05 1.86257e-05 -1.09805e-19 -5.92901e-05 -2.70163e-20 -1.35034e-08)
(5.23944e-05 2.99297e-05 9.25696e-20 -5.24036e-05 1.54811e-20 9.21577e-09)
(4.32533e-05 -4.19237e-05 7.53053e-21 -4.32318e-05 3.68e-21 -2.15026e-08)
(4.83297e-05 -3.45048e-05 1.54523e-21 -4.83505e-05 -4.1853e-23 2.08242e-08)
(5.21561e-05 -2.66236e-05 -2.1482e-20 -5.21387e-05 -5.57178e-21 -1.74592e-08)
(5.49939e-05 -1.71127e-05 6.6171e-20 -5.50615e-05 4.29206e-20 6.75552e-08)
(5.60791e-05 -6.53485e-06 1.22964e-19 -5.60332e-05 5.28805e-20 -4.58321e-08)
(5.49733e-05 4.37593e-06 2.97497e-21 -5.49423e-05 1.31397e-20 -3.10604e-08)
(5.15879e-05 1.5108e-05 2.33524e-19 -5.15839e-05 9.18607e-20 -3.9539e-09)
(4.59136e-05 2.49633e-05 -6.85825e-20 -4.59236e-05 -6.36406e-20 9.93517e-09)
(3.85139e-05 3.29465e-05 -1.1593e-19 -3.85059e-05 -3.26331e-20 -7.96475e-09)
(3.70617e-05 -3.68111e-05 7.10008e-21 -3.70439e-05 3.17844e-21 -1.77912e-08)
(4.14939e-05 -3.04582e-05 -1.28063e-20 -4.15072e-05 -7.3108e-21 1.32358e-08)
(4.48693e-05 -2.36958e-05 -4.84068e-21 -4.48564e-05 -3.24503e-21 -1.28255e-08)
(4.74246e-05 -1.55427e-05 -9.58536e-21 -4.748e-05 3.82031e-21 5.54091e-08)
(4.85108e-05 -6.43766e-06 9.22095e-20 -4.84701e-05 3.27748e-20 -4.06239e-08)
(4.77434e-05 2.97909e-06 -1.01201e-19 -4.77184e-05 -4.83837e-20 -2.50209e-08)
(4.50227e-05 1.23025e-05 1.09083e-20 -4.5024e-05 7.39737e-21 1.31943e-09)
(4.03354e-05 2.09195e-05 4.03987e-20 -4.03451e-05 -4.76917e-21 9.72248e-09)
(3.41465e-05 2.79852e-05 -2.94882e-19 -3.41419e-05 -7.59418e-20 -4.63121e-09)
(2.71128e-05 3.31571e-05 7.14157e-20 -2.70998e-05 3.79162e-20 -1.30502e-08)
(3.18623e-05 -3.24376e-05 -1.03851e-20 -3.18489e-05 -3.62074e-21 -1.3446e-08)
(3.57521e-05 -2.6979e-05 8.65913e-21 -3.57596e-05 7.40212e-21 7.49317e-09)
(3.87421e-05 -2.11488e-05 5.80493e-20 -3.87303e-05 2.85538e-20 -1.17989e-08)
(4.1051e-05 -1.41189e-05 1.63238e-20 -4.10969e-05 -1.82593e-22 4.58758e-08)
(4.2117e-05 -6.24748e-06 -7.0503e-20 -4.20807e-05 -2.71297e-20 -3.63613e-08)
(4.16042e-05 1.9157e-06 6.55026e-20 -4.15848e-05 3.22833e-20 -1.94499e-08)
(3.94081e-05 1.00456e-05 -1.74253e-20 -3.94123e-05 -4.71067e-21 4.25252e-09)
(3.55133e-05 1.76044e-05 1.63857e-19 -3.55211e-05 5.75676e-20 7.81498e-09)
(3.03111e-05 2.38652e-05 5.30343e-20 -3.03077e-05 2.38701e-20 -3.41485e-09)
(2.43489e-05 2.85186e-05 -3.22845e-20 -2.43365e-05 -1.16187e-20 -1.24088e-08)
(2.74705e-05 -2.86747e-05 1.10679e-21 -2.74607e-05 -2.53241e-22 -9.84131e-09)
(3.09021e-05 -2.3965e-05 -2.60235e-21 -3.09067e-05 -3.6062e-21 4.58031e-09)
(3.35594e-05 -1.89211e-05 -4.96575e-20 -3.35481e-05 -2.74062e-20 -1.13216e-08)
(3.56499e-05 -1.28332e-05 -8.11718e-20 -3.56871e-05 -3.99292e-20 3.71993e-08)
(3.66831e-05 -5.9969e-06 -9.98708e-20 -3.66526e-05 -2.58047e-20 -3.05236e-08)
(3.63619e-05 1.10578e-06 1.44817e-19 -3.6346e-05 5.05029e-20 -1.59682e-08)
(3.45831e-05 8.21896e-06 -1.33822e-19 -3.45889e-05 -5.31816e-20 5.74477e-09)
(3.13319e-05 1.4868e-05 3.23518e-20 -3.13388e-05 2.52058e-20 6.94048e-09)
(2.69362e-05 2.0423e-05 8.07076e-20 -2.69326e-05 2.34086e-20 -3.53203e-09)
(2.18596e-05 2.46133e-05 5.57672e-20 -2.18517e-05 2.01965e-20 -7.9767e-09)
(1.64595e-05 2.74765e-05 5.32952e-20 -1.64561e-05 1.37422e-20 -3.37326e-09)
(2.37423e-05 -2.54199e-05 1.32307e-20 -2.37343e-05 7.20123e-21 -8.00547e-09)
(2.67829e-05 -2.13401e-05 2.05702e-20 -2.67861e-05 1.08951e-20 3.13738e-09)
(2.91522e-05 -1.69616e-05 5.697e-20 -2.91414e-05 2.22507e-20 -1.0889e-08)
(3.10475e-05 -1.16706e-05 -1.27332e-20 -3.10772e-05 -5.92589e-21 2.972e-08)
(3.20396e-05 -5.71043e-06 4.85415e-20 -3.20145e-05 9.81297e-21 -2.50966e-08)
(3.18631e-05 4.91419e-07 -1.58342e-19 -3.18502e-05 -5.2723e-20 -1.28604e-08)
(3.04195e-05 6.73348e-06 1.36698e-19 -3.04246e-05 7.10332e-20 5.04295e-09)
(2.76934e-05 1.25967e-05 1.85544e-19 -2.76999e-05 4.32604e-20 6.49471e-09)
(2.39625e-05 1.75315e-05 -1.11355e-20 -2.39594e-05 -1.68162e-20 -3.0861e-09)
(1.96233e-05 2.12999e-05 7.91961e-20 -1.96164e-05 -1.91452e-21 -6.92067e-09)
(1.49792e-05 2.39225e-05 5.5716e-20 -1.49751e-05 1.16106e-20 -4.08903e-09)
(2.05647e-05 -2.25892e-05 -1.58722e-20 -2.05586e-05 -6.41544e-21 -6.12988e-09)
(2.32675e-05 -1.90447e-05 1.8836e-20 -2.3269e-05 6.40517e-21 1.4049e-09)
(2.53869e-05 -1.52311e-05 -5.05314e-20 -2.53766e-05 -2.3818e-20 -1.02662e-08)
(2.71064e-05 -1.06186e-05 -4.11736e-20 -2.71307e-05 -1.48242e-20 2.43161e-08)
(2.80535e-05 -5.40712e-06 -1.10841e-20 -2.80327e-05 5.87037e-21 -2.07748e-08)
(2.79843e-05 2.76726e-08 1.64369e-19 -2.79754e-05 5.66879e-20 -8.94621e-09)
(2.68125e-05 5.51736e-06 -1.94104e-20 -2.68172e-05 -2.32513e-20 4.62955e-09)
(2.45181e-05 1.07009e-05 -1.3143e-19 -2.45233e-05 -5.74367e-20 5.18814e-09)
(2.13379e-05 1.50918e-05 -1.0998e-19 -2.13355e-05 -4.00761e-20 -2.35856e-09)
(1.7615e-05 1.84757e-05 -3.7393e-19 -1.76092e-05 -8.03118e-20 -5.75133e-09)
(1.36076e-05 2.08777e-05 5.21443e-20 -1.36055e-05 2.90162e-20 -2.07766e-09)
(9.60449e-06 2.23491e-05 2.05821e-19 -9.60092e-06 2.93755e-20 -3.56521e-09)
(1.78462e-05 -2.0115e-05 9.96705e-21 -1.78415e-05 4.24411e-21 -4.72965e-09)
(2.02556e-05 -1.70288e-05 3.52153e-21 -2.02561e-05 3.22384e-21 5.36805e-10)
(2.21562e-05 -1.3698e-05 6.02158e-20 -2.21467e-05 2.62036e-20 -9.54912e-09)
(2.37182e-05 -9.66571e-06 9.40785e-20 -2.37383e-05 3.1906e-20 2.00597e-08)
(2.4618e-05 -5.09598e-06 -3.45134e-20 -2.46002e-05 -2.21983e-20 -1.78773e-08)
(2.46285e-05 -3.19246e-07 -1.37674e-19 -2.4622e-05 -4.70928e-20 -6.5909e-09)
(2.36764e-05 4.51977e-06 2.23112e-20 -2.36811e-05 3.49836e-21 4.6997e-09)
(2.17397e-05 9.10986e-06 -1.55953e-19 -2.17445e-05 -3.86365e-20 4.79179e-09)
(1.90189e-05 1.30212e-05 7.42881e-20 -1.90172e-05 4.26054e-20 -1.73936e-09)
(1.58124e-05 1.60609e-05 1.61884e-19 -1.58076e-05 5.47709e-20 -4.7646e-09)
(1.23459e-05 1.8252e-05 -9.77823e-20 -1.23441e-05 -2.9656e-20 -1.83595e-09)
(8.86935e-06 1.96286e-05 -1.44145e-19 -8.86512e-06 -4.04971e-20 -4.23658e-09)
(1.5512e-05 -1.79447e-05 -1.14502e-20 -1.55084e-05 -2.8878e-21 -3.56866e-09)
(1.76654e-05 -1.52517e-05 3.62274e-20 -1.76652e-05 1.37881e-20 -2.36816e-10)
(1.93741e-05 -1.23355e-05 -1.90948e-20 -1.93655e-05 -8.53888e-21 -8.6641e-09)
(2.07946e-05 -8.80203e-06 -1.48266e-20 -2.08113e-05 -6.06048e-21 1.66571e-08)
(2.16452e-05 -4.78499e-06 -3.26349e-20 -2.16303e-05 -1.50972e-20 -1.48743e-08)
(2.17155e-05 -5.77224e-07 -9.98826e-20 -2.17102e-05 -3.0935e-20 -5.25407e-09)
(2.09417e-05 3.69863e-06 -5.99836e-20 -2.0946e-05 -2.08399e-20 4.29982e-09)
(1.93019e-05 7.77119e-06 -5.99095e-21 -1.93058e-05 1.057e-20 3.85471e-09)
(1.69669e-05 1.12595e-05 6.87584e-20 -1.69647e-05 3.3996e-20 -2.16274e-09)
(1.41966e-05 1.39897e-05 7.23396e-20 -1.41922e-05 1.71172e-20 -4.42637e-09)
(1.11906e-05 1.59813e-05 1.60767e-19 -1.11896e-05 1.95723e-20 -9.29654e-10)
(8.16482e-06 1.72604e-05 -3.37298e-20 -8.16072e-06 -1.70107e-20 -4.10193e-09)
(1.35014e-05 -1.60341e-05 -8.63604e-21 -1.34992e-05 -4.52166e-21 -2.21597e-09)
(1.54313e-05 -1.36806e-05 -5.31121e-20 -1.54302e-05 -1.97556e-20 -1.14626e-09)
(1.69699e-05 -1.11215e-05 -3.31473e-20 -1.69624e-05 -1.19656e-20 -7.50583e-09)
(1.82629e-05 -8.01843e-06 -2.85111e-20 -1.8277e-05 -9.80353e-21 1.41132e-08)
(1.9064e-05 -4.47926e-06 -2.17936e-20 -1.90514e-05 -3.99758e-21 -1.25888e-08)
(1.9178e-05 -7.65121e-07 6.27957e-20 -1.91744e-05 1.10954e-20 -3.59564e-09)
(1.85506e-05 3.01984e-06 -2.81443e-19 -1.85546e-05 -8.16086e-20 3.96479e-09)
(1.71589e-05 6.6389e-06 1.95004e-20 -1.71625e-05 3.7011e-20 3.67106e-09)
(1.51493e-05 9.75248e-06 3.73576e-19 -1.51479e-05 8.92535e-20 -1.38609e-09)
(1.27496e-05 1.22051e-05 1.10475e-19 -1.27458e-05 1.7045e-21 -3.73626e-09)
(1.01348e-05 1.40125e-05 -2.81785e-19 -1.01334e-05 -7.93021e-20 -1.42685e-09)
(7.49264e-06 1.52009e-05 -2.11358e-19 -7.48986e-06 -2.81847e-20 -2.7848e-09)
(4.97772e-06 1.58465e-05 4.13375e-20 -4.97281e-06 2.30992e-20 -4.91681e-09)
(1.17654e-05 -1.43477e-05 9.53996e-21 -1.17639e-05 3.00463e-21 -1.48444e-09)
(1.34987e-05 -1.22863e-05 -1.51918e-20 -1.34974e-05 -3.86861e-21 -1.29816e-09)
(1.48867e-05 -1.00378e-05 5.74353e-20 -1.48795e-05 1.5502e-20 -7.2002e-09)
(1.60647e-05 -7.30639e-06 -1.44712e-19 -1.60766e-05 -5.32866e-20 1.19787e-08)
(1.68165e-05 -4.18221e-06 -1.09897e-19 -1.68058e-05 -3.14472e-20 -1.07307e-08)
(1.6962e-05 -8.97687e-07 -5.8086e-20 -1.69593e-05 -9.29042e-21 -2.70486e-09)
(1.64545e-05 2.45845e-06 1.32872e-19 -1.64581e-05 5.5938e-20 3.59536e-09)
(1.52706e-05 5.67924e-06 1.7341e-19 -1.52734e-05 2.78053e-20 2.84068e-09)
(1.35368e-05 8.46117e-06 -1.8345e-19 -1.35353e-05 -5.79057e-20 -1.49402e-09)
(1.14526e-05 1.06642e-05 1.49821e-19 -1.14497e-05 3.41322e-20 -2.94287e-09)
(9.17317e-06 1.23021e-05 1.40726e-20 -9.17224e-06 1.61904e-20 -9.34192e-10)
(6.86619e-06 1.33979e-05 -5.31256e-20 -6.8641e-06 9.01454e-21 -2.0984e-09)
(4.66128e-06 1.40119e-05 1.7989e-19 -4.65666e-06 3.9405e-20 -4.61898e-09)
(1.0263e-05 -1.28549e-05 -9.77356e-21 -1.02617e-05 -4.03563e-21 -1.38611e-09)
(1.18223e-05 -1.10459e-05 -2.10406e-20 -1.18211e-05 -5.9004e-21 -1.12817e-09)
(1.30767e-05 -9.06827e-06 3.93607e-20 -1.30703e-05 1.60319e-20 -6.40272e-09)
(1.41507e-05 -6.6596e-06 7.2608e-20 -1.41607e-05 2.58164e-20 9.94607e-09)
(1.48546e-05 -3.89638e-06 1.15726e-19 -1.48454e-05 3.81443e-20 -9.17104e-09)
(1.50219e-05 -9.87845e-07 7.75875e-20 -1.50199e-05 2.81384e-20 -2.05231e-09)
(1.46129e-05 1.99309e-06 2.29516e-19 -1.46163e-05 4.75621e-20 3.36366e-09)
(1.36042e-05 4.86197e-06 -3.4454e-19 -1.3607e-05 -9.28221e-20 2.80713e-09)
(1.21049e-05 7.34974e-06 3.03877e-20 -1.21037e-05 1.51565e-20 -1.25002e-09)
(1.02902e-05 9.32991e-06 -6.49938e-20 -1.02876e-05 -9.59223e-21 -2.65433e-09)
(8.29901e-06 1.0813e-05 1.33199e-19 -8.29787e-06 2.75563e-20 -1.13262e-09)
(6.27984e-06 1.18185e-05 4.92528e-20 -6.27748e-06 6.08134e-21 -2.36333e-09)
(4.34375e-06 1.24028e-05 1.0037e-19 -4.34044e-06 -5.30205e-22 -3.30278e-09)
(2.53186e-06 1.26558e-05 4.58896e-20 -2.52894e-06 -5.40637e-22 -2.91303e-09)
(8.96058e-06 -1.15299e-05 9.67596e-21 -8.95965e-06 3.93574e-21 -9.33243e-10)
(1.03648e-05 -9.94084e-06 3.33132e-20 -1.03634e-05 8.95734e-21 -1.39701e-09)
(1.15005e-05 -8.19819e-06 -7.63873e-20 -1.14948e-05 -2.38727e-20 -5.70267e-09)
(1.24798e-05 -6.07133e-06 2.92068e-20 -1.24886e-05 1.35034e-20 8.75826e-09)
(1.31374e-05 -3.62439e-06 9.45588e-20 -1.31297e-05 2.57478e-20 -7.647e-09)
(1.33195e-05 -1.04507e-06 -2.35562e-20 -1.33179e-05 -1.36029e-20 -1.55581e-09)
(1.29913e-05 1.60666e-06 -1.24029e-19 -1.29944e-05 -2.74603e-20 3.18112e-09)
(1.21311e-05 4.16593e-06 2.71928e-19 -1.2133e-05 7.04797e-20 1.9573e-09)
(1.08317e-05 6.39249e-06 -2.28848e-19 -1.08305e-05 -5.76973e-20 -1.15312e-09)
(9.24915e-06 8.17145e-06 1.87028e-19 -9.24688e-06 4.79998e-20 -2.27156e-09)
(7.50665e-06 9.51299e-06 -7.07531e-20 -7.50591e-06 -3.15015e-20 -7.48889e-10)
(5.73589e-06 1.04331e-05 -7.87288e-20 -5.73388e-06 -1.40383e-20 -2.01194e-09)
(4.03603e-06 1.09829e-05 -1.71904e-19 -4.03338e-06 -2.8011e-20 -2.65115e-09)
(2.44327e-06 1.1236e-05 1.8092e-20 -2.44052e-06 5.34424e-21 -2.74965e-09)
(7.82902e-06 -1.0351e-05 -6.68599e-23 -7.82866e-06 -4.14215e-23 -3.57331e-10)
(9.09519e-06 -8.95407e-06 8.57416e-21 -9.0938e-06 1.75996e-21 -1.38793e-09)
(1.01246e-05 -7.41681e-06 -4.59058e-20 -1.01193e-05 -1.25121e-20 -5.31405e-09)
(1.10185e-05 -5.53572e-06 8.38813e-20 -1.1026e-05 2.3616e-20 7.5077e-09)
(1.16313e-05 -3.3662e-06 -1.08928e-19 -1.1625e-05 -2.99813e-20 -6.2672e-09)
(1.18225e-05 -1.0757e-06 1.37427e-19 -1.18211e-05 4.31731e-20 -1.37269e-09)
(1.15609e-05 1.2855e-06 1.27457e-19 -1.15639e-05 2.67128e-20 3.02518e-09)
(1.08265e-05 3.57032e-06 -1.22052e-19 -1.08286e-05 -3.80002e-20 2.05267e-09)
(9.69888e-06 5.56438e-06 -1.57806e-20 -9.69783e-06 7.67359e-21 -1.05342e-09)
(8.31611e-06 7.16373e-06 1.76663e-20 -8.31413e-06 -1.37614e-20 -1.98086e-09)
(6.78854e-06 8.37659e-06 -9.08607e-20 -6.78773e-06 -1.41546e-20 -8.17183e-10)
(5.23339e-06 9.21686e-06 1.17303e-19 -5.23143e-06 2.5521e-20 -1.95912e-09)
(3.73982e-06 9.72959e-06 7.37132e-20 -3.73764e-06 2.53756e-20 -2.18355e-09)
(2.33996e-06 9.97822e-06 1.03456e-20 -2.33665e-06 -1.15647e-20 -3.31091e-09)
(6.84459e-06 -9.30085e-06 -1.69386e-21 -6.84447e-06 -7.02223e-22 -1.25047e-10)
(7.98755e-06 -8.07088e-06 7.3549e-21 -7.98598e-06 2.07916e-21 -1.56677e-09)
(8.92153e-06 -6.71362e-06 -2.6592e-21 -8.91666e-06 -2.2383e-21 -4.86719e-09)
(9.73777e-06 -5.04813e-06 -4.84753e-20 -9.7443e-06 -1.70616e-20 6.53274e-09)
(1.03077e-05 -3.12222e-06 -1.15242e-19 -1.03025e-05 -3.27559e-20 -5.25505e-09)
(1.05036e-05 -1.08585e-06 -8.02865e-20 -1.05024e-05 -2.29542e-20 -1.21003e-09)
(1.02972e-05 1.01876e-06 -1.37057e-19 -1.02997e-05 -3.65329e-20 2.57768e-09)
(9.66957e-06 3.061e-06 5.44674e-20 -9.6713e-06 1.68594e-20 1.73343e-09)
(8.6898e-06 4.84756e-06 2.65515e-20 -8.68883e-06 2.4442e-21 -9.67797e-10)
(7.47987e-06 6.28558e-06 -2.81181e-19 -7.47816e-06 -5.19859e-20 -1.70596e-09)
(6.13893e-06 7.38129e-06 -5.36677e-20 -6.13819e-06 2.63151e-21 -7.41974e-10)
(4.77128e-06 8.14728e-06 -1.15093e-19 -4.76962e-06 -2.09819e-20 -1.66005e-09)
(3.458e-06 8.62237e-06 2.02697e-19 -3.45593e-06 2.65947e-20 -2.06421e-09)
(2.22403e-06 8.86597e-06 -2.10341e-19 -2.22232e-06 -3.1035e-20 -1.71098e-09)
(1.08341e-06 8.92942e-06 -8.51888e-20 -1.0817e-06 -8.15409e-21 -1.70527e-09)
(5.98716e-06 -8.36351e-06 1.01099e-20 -5.98717e-06 3.7824e-21 1.23578e-11)
(7.01933e-06 -7.27938e-06 3.49864e-20 -7.01772e-06 1.11577e-20 -1.61747e-09)
(7.86744e-06 -6.08003e-06 6.29002e-20 -7.86294e-06 1.89553e-20 -4.50603e-09)
(8.61327e-06 -4.60399e-06 6.26339e-20 -8.61899e-06 1.86209e-20 5.71796e-09)
(9.14277e-06 -2.89257e-06 9.71027e-20 -9.13835e-06 2.71337e-20 -4.42082e-09)
(9.33993e-06 -1.08012e-06 9.48423e-20 -9.33889e-06 1.77202e-20 -1.03735e-09)
(9.17921e-06 7.97225e-07 -2.41665e-19 -9.18148e-06 -6.0971e-20 2.27267e-09)
(8.64254e-06 2.62383e-06 -1.2001e-19 -8.64409e-06 -1.76071e-20 1.54853e-09)
(7.79016e-06 4.22576e-06 1.66994e-19 -7.78923e-06 3.96526e-20 -9.30982e-10)
(6.73011e-06 5.51889e-06 3.28304e-19 -6.72865e-06 7.78216e-20 -1.45622e-09)
(5.55147e-06 6.50853e-06 1.59682e-19 -5.5508e-06 2.36223e-20 -6.72997e-10)
(4.34766e-06 7.2056e-06 -2.9111e-20 -4.34604e-06 -6.66383e-21 -1.61881e-09)
(3.19057e-06 7.64423e-06 -6.56486e-20 -3.18864e-06 -1.57452e-20 -1.93521e-09)
(2.10433e-06 7.87888e-06 2.50303e-19 -2.1027e-06 4.35217e-20 -1.62283e-09)
(1.09888e-06 7.95168e-06 -4.43484e-20 -1.09741e-06 -9.37905e-21 -1.47331e-09)
(5.23912e-06 -7.52519e-06 8.21508e-21 -5.23937e-06 2.09994e-21 2.43257e-10)
(6.17185e-06 -6.56919e-06 -6.93014e-21 -6.17017e-06 -2.80302e-21 -1.6779e-09)
(6.94251e-06 -5.5086e-06 -2.45697e-20 -6.93845e-06 -7.362e-21 -4.0581e-09)
(7.62434e-06 -4.19957e-06 -2.38873e-20 -7.62932e-06 -1.12723e-20 4.97728e-09)
(8.11567e-06 -2.67703e-06 -2.60553e-19 -8.11216e-06 -6.8828e-20 -3.50886e-09)
(8.31142e-06 -1.06281e-06 -4.85693e-20 -8.31055e-06 -4.29807e-21 -8.71831e-10)
(8.18859e-06 6.1358e-07 1.29339e-19 -8.1906e-06 3.67115e-20 2.0095e-09)
(7.72971e-06 2.24833e-06 1.13015e-19 -7.73111e-06 2.23339e-20 1.40162e-09)
(6.98746e-06 3.68536e-06 -2.69709e-19 -6.98665e-06 -5.66678e-20 -8.06597e-10)
(6.05772e-06 4.84857e-06 4.26584e-20 -6.05643e-06 -5.55974e-22 -1.28752e-09)
(5.02065e-06 5.74233e-06 -2.58478e-20 -5.01998e-06 -4.76322e-21 -6.75199e-10)
(3.96011e-06 6.37576e-06 5.68068e-21 -3.95871e-06 5.60297e-21 -1.40172e-09)
(2.94019e-06 6.7794e-06 -7.82384e-20 -2.93855e-06 -7.45429e-21 -1.63488e-09)
(1.98321e-06 7.00256e-06 -1.45551e-19 -1.9819e-06 -3.18017e-20 -1.31552e-09)
(1.09777e-06 7.08095e-06 1.24025e-21 -1.09593e-06 7.92893e-22 -1.8401e-09)
(4.5856e-06 -6.77455e-06 -2.30582e-21 -4.58604e-06 -4.7168e-22 4.41391e-10)
(5.42925e-06 -5.93122e-06 2.37245e-20 -5.4275e-06 6.60612e-21 -1.745e-09)
(6.12985e-06 -4.99255e-06 2.26446e-20 -6.12628e-06 5.8066e-21 -3.57071e-09)
(6.75358e-06 -3.83079e-06 7.97489e-21 -6.75783e-06 1.85343e-21 4.25098e-09)
(7.20905e-06 -2.47508e-06 3.28408e-20 -7.20614e-06 1.43498e-20 -2.91707e-09)
(7.40141e-06 -1.03628e-06 2.12893e-19 -7.40057e-06 4.9152e-20 -8.33339e-10)
(7.30969e-06 4.61707e-07 -1.23794e-19 -7.31152e-06 -3.2854e-20 1.82754e-09)
(6.9176e-06 1.92554e-06 8.47796e-20 -6.91872e-06 3.06463e-20 1.1193e-09)
(6.27062e-06 3.21531e-06 2.97179e-19 -6.26993e-06 5.54512e-20 -6.89166e-10)
(5.45454e-06 4.26181e-06 -2.22274e-19 -5.45343e-06 -4.42322e-20 -1.10781e-09)
(4.5413e-06 5.06859e-06 1.80323e-19 -4.54079e-06 3.52081e-20 -5.11872e-10)
(3.60588e-06 5.64387e-06 1.26384e-19 -3.6045e-06 1.41716e-20 -1.38182e-09)
(2.70636e-06 6.01471e-06 2.17579e-19 -2.70474e-06 3.15306e-20 -1.61814e-09)
(1.86321e-06 6.22465e-06 -2.24363e-20 -1.86206e-06 -3.54904e-21 -1.15427e-09)
(1.08127e-06 6.30824e-06 -9.12172e-20 -1.08054e-06 -1.05425e-20 -7.32666e-10)
(3.70703e-07 6.29304e-06 -1.07839e-19 -3.68985e-07 -9.39524e-21 -1.71767e-09)
(4.0142e-06 -6.10166e-06 2.61371e-21 -4.01485e-06 -5.29584e-23 6.45043e-10)
(4.77785e-06 -5.35735e-06 -5.96199e-20 -4.77613e-06 -1.51233e-20 -1.71858e-09)
(5.41491e-06 -4.52613e-06 7.29598e-20 -5.4118e-06 1.96513e-20 -3.11495e-09)
(5.98562e-06 -3.49439e-06 -2.31864e-20 -5.98941e-06 -4.18562e-21 3.79226e-09)
(6.40776e-06 -2.28664e-06 1.93834e-19 -6.40532e-06 4.66705e-20 -2.43797e-09)
(6.5951e-06 -1.00316e-06 -1.28876e-19 -6.59439e-06 -3.45663e-20 -7.08132e-10)
(6.52908e-06 3.36144e-07 2.03713e-20 -6.53075e-06 1.20735e-20 1.66738e-09)
(6.19429e-06 1.6478e-06 3.13456e-19 -6.19527e-06 5.4896e-20 9.77597e-10)
(5.63012e-06 2.80595e-06 -3.58527e-19 -5.62943e-06 -7.65634e-20 -6.87098e-10)
(4.91317e-06 3.74777e-06 1.47238e-19 -4.91216e-06 3.70975e-20 -1.00773e-09)
(4.10841e-06 4.47596e-06 -2.25102e-19 -4.10783e-06 -5.32242e-20 -5.76805e-10)
(3.28292e-06 4.99801e-06 -2.82168e-19 -3.28182e-06 -4.90475e-20 -1.1068e-09)
(2.48924e-06 5.33762e-06 -1.4556e-19 -2.48791e-06 -2.54867e-20 -1.33301e-09)
(1.74505e-06 5.53422e-06 5.30551e-20 -1.74393e-06 1.53503e-20 -1.11966e-09)
(1.0566e-06 5.62044e-06 1.46503e-19 -1.05606e-06 2.05681e-20 -5.44811e-10)
(4.3e-07 5.61565e-06 6.54493e-20 -4.28537e-07 1.30563e-20 -1.46237e-09)
(4.2059e-06 -4.84049e-06 -2.10322e-20 -4.20433e-06 -5.9258e-21 -1.56865e-09)
(4.78545e-06 -4.1042e-06 -2.38369e-20 -4.78265e-06 -6.04454e-21 -2.80456e-09)
(5.30775e-06 -3.18733e-06 -9.1462e-21 -5.31108e-06 -4.30807e-21 3.33207e-09)
(5.69866e-06 -2.11082e-06 -1.4136e-19 -5.69665e-06 -3.10953e-20 -2.00411e-09)
(5.87998e-06 -9.65232e-07 2.28358e-19 -5.87936e-06 5.39149e-20 -6.1242e-10)
(5.83513e-06 2.32872e-07 -9.41939e-20 -5.83656e-06 -3.07763e-20 1.42564e-09)
(5.54942e-06 1.40881e-06 -4.04969e-19 -5.55037e-06 -8.43518e-20 9.51936e-10)
(5.05749e-06 2.44892e-06 3.5284e-19 -5.05688e-06 8.59413e-20 -6.07979e-10)
(4.42725e-06 3.29677e-06 5.04843e-20 -4.42645e-06 7.65757e-22 -8.03165e-10)
(3.7177e-06 3.95402e-06 1.09275e-19 -3.71719e-06 3.46362e-20 -5.14882e-10)
(2.98852e-06 4.42766e-06 1.28823e-19 -2.98746e-06 2.75153e-20 -1.0626e-09)
(2.28764e-06 4.73836e-06 -1.26149e-20 -2.28631e-06 7.0813e-21 -1.32508e-09)
(1.63106e-06 4.92184e-06 2.85787e-20 -1.63005e-06 -1.5709e-21 -1.00848e-09)
(1.02473e-06 5.00694e-06 -1.51267e-19 -1.02412e-06 -2.38214e-20 -6.06808e-10)
(4.70611e-07 5.0134e-06 8.25612e-20 -4.6988e-07 8.45262e-21 -7.31222e-10)
(-3.69342e-08 4.95965e-06 -1.55605e-19 3.80767e-08 -2.19687e-20 -1.14253e-09)
(3.70331e-06 -4.37454e-06 -1.51533e-20 -3.70186e-06 -3.33725e-21 -1.44807e-09)
(4.2307e-06 -3.72223e-06 3.87757e-20 -4.22824e-06 8.34948e-21 -2.45522e-09)
(4.70874e-06 -2.90711e-06 -1.15903e-19 -4.71162e-06 -2.84881e-20 2.88205e-09)
(5.07054e-06 -1.94699e-06 3.03661e-20 -5.06891e-06 5.98741e-21 -1.62645e-09)
(5.24512e-06 -9.24034e-07 -2.18153e-19 -5.24457e-06 -5.10858e-20 -5.47867e-10)
(5.21757e-06 1.48337e-07 5.00727e-20 -5.21886e-06 1.36324e-20 1.28647e-09)
(4.97417e-06 1.20305e-06 1.44716e-20 -4.97494e-06 8.87104e-21 7.64904e-10)
(4.54505e-06 2.13769e-06 -1.81737e-20 -4.54446e-06 -1.21142e-20 -5.92086e-10)
(3.99085e-06 2.90108e-06 -5.18727e-20 -3.99007e-06 -5.16311e-21 -7.77768e-10)
(3.36486e-06 3.49435e-06 2.83428e-19 -3.36436e-06 4.59864e-20 -5.06861e-10)
(2.72067e-06 3.92372e-06 -3.33196e-20 -2.71969e-06 -1.15474e-20 -9.80571e-10)
(2.1015e-06 4.20749e-06 2.53394e-19 -2.10039e-06 3.44051e-20 -1.10675e-09)
(1.52183e-06 4.37807e-06 -8.06166e-20 -1.52096e-06 -1.42984e-20 -8.67691e-10)
(9.87084e-07 4.46109e-06 8.94016e-20 -9.86425e-07 1.86227e-20 -6.58984e-10)
(4.98942e-07 4.47569e-06 -7.13795e-20 -4.98446e-07 -1.32364e-20 -4.96656e-10)
(5.20618e-08 4.43511e-06 1.18164e-19 -5.11142e-08 2.24484e-20 -9.47585e-10)
(3.26138e-06 -3.95427e-06 -7.44297e-20 -3.26001e-06 -1.83817e-20 -1.36904e-09)
(3.74148e-06 -3.37604e-06 -9.29824e-21 -3.73931e-06 5.34858e-22 -2.17084e-09)
(4.17899e-06 -2.6512e-06 1.88207e-19 -4.18151e-06 4.51074e-20 2.5164e-09)
(4.5137e-06 -1.79461e-06 1.62259e-21 -4.51231e-06 -4.07352e-22 -1.39087e-09)
(4.68101e-06 -8.8062e-07 1.36478e-19 -4.68052e-06 3.01033e-20 -4.90322e-10)
(4.66758e-06 7.95601e-08 -1.591e-19 -4.66873e-06 -3.71073e-20 1.14732e-09)
(4.46066e-06 1.02579e-06 2.1832e-20 -4.46133e-06 7.80997e-21 6.65505e-10)
(4.08624e-06 1.86597e-06 -6.50484e-20 -4.08577e-06 -8.82247e-21 -4.7495e-10)
(3.59883e-06 2.55338e-06 5.61632e-20 -3.5982e-06 7.30286e-21 -6.32348e-10)
(3.04641e-06 3.08898e-06 -1.50425e-19 -3.04598e-06 -4.03746e-20 -4.30094e-10)
(2.477e-06 3.47813e-06 -8.01068e-20 -2.47615e-06 -6.55581e-21 -8.49312e-10)
(1.92979e-06 3.73718e-06 -2.83051e-19 -1.92869e-06 -4.63098e-20 -1.09526e-09)
(1.41785e-06 3.89532e-06 8.12868e-20 -1.41714e-06 1.88192e-20 -7.15169e-10)
(9.46331e-07 3.97543e-06 3.90159e-20 -9.45788e-07 2.49386e-21 -5.43542e-10)
(5.1646e-07 3.99533e-06 -2.97813e-20 -5.16052e-07 -4.76805e-22 -4.0851e-10)
(1.23414e-07 3.96608e-06 -3.61469e-20 -1.22331e-07 -4.71116e-21 -1.0827e-09)
(2.87254e-06 -3.5749e-06 5.3546e-20 -2.87127e-06 1.38677e-20 -1.27028e-09)
(3.3096e-06 -3.06224e-06 8.84349e-20 -3.30771e-06 1.98952e-20 -1.89657e-09)
(3.71008e-06 -2.41746e-06 -7.954e-20 -3.71229e-06 -2.22529e-20 2.21246e-09)
(4.01955e-06 -1.65309e-06 -2.11048e-19 -4.01843e-06 -4.58449e-20 -1.12212e-09)
(4.17927e-06 -8.3617e-07 1.89053e-20 -4.17889e-06 4.08683e-21 -3.79074e-10)
(4.17738e-06 2.39394e-08 -4.33227e-20 -4.17839e-06 -6.25154e-21 1.01263e-09)
(4.00181e-06 8.73308e-07 1.3293e-19 -4.00241e-06 2.98391e-20 6.01365e-10)
(3.67528e-06 1.62877e-06 1.83673e-19 -3.67477e-06 3.1779e-20 -5.08439e-10)
(3.24651e-06 2.24796e-06 -1.17833e-19 -3.24592e-06 -2.20531e-20 -5.91976e-10)
(2.75877e-06 2.73158e-06 -1.76814e-19 -2.75837e-06 -2.19878e-20 -3.97434e-10)
(2.25546e-06 3.08418e-06 3.45361e-19 -2.25464e-06 5.83324e-20 -8.24534e-10)
(1.77169e-06 3.32045e-06 1.76069e-19 -1.77082e-06 3.17705e-20 -8.77553e-10)
(1.31948e-06 3.46656e-06 -5.16425e-20 -1.31876e-06 -1.59604e-20 -7.12396e-10)
(9.03222e-07 3.54359e-06 2.09748e-20 -9.02663e-07 2.18118e-21 -5.58739e-10)
(5.25387e-07 3.56696e-06 1.50745e-19 -5.24803e-07 2.31541e-20 -5.83436e-10)
(1.78027e-07 3.54813e-06 1.32858e-19 -1.77733e-07 1.84813e-20 -2.93729e-10)
(-1.40265e-07 3.49607e-06 2.049e-20 1.41227e-07 1.80083e-21 -9.61974e-10)
(2.53026e-06 -3.2322e-06 -1.28571e-20 -2.5291e-06 -3.71264e-21 -1.16318e-09)
(2.92822e-06 -2.77761e-06 -9.98213e-20 -2.92657e-06 -2.3017e-20 -1.64913e-09)
(3.29479e-06 -2.20391e-06 1.48084e-20 -3.29671e-06 7.50684e-21 1.91552e-09)
(3.58084e-06 -1.52157e-06 3.21409e-19 -3.57987e-06 6.84964e-20 -9.7528e-10)
(3.73281e-06 -7.91127e-07 -2.43642e-19 -3.73244e-06 -5.45547e-20 -3.67866e-10)
(3.74016e-06 -2.0493e-08 2.17871e-20 -3.74106e-06 6.85214e-21 9.00144e-10)
(3.59159e-06 7.42064e-07 -1.10776e-20 -3.59212e-06 -2.99825e-21 5.35248e-10)
(3.30693e-06 1.42154e-06 -1.20922e-19 -3.30654e-06 -1.89381e-20 -3.91644e-10)
(2.9298e-06 1.97938e-06 3.35121e-19 -2.92929e-06 5.74708e-20 -5.11851e-10)
(2.49905e-06 2.41623e-06 1.98276e-20 -2.49872e-06 -6.72899e-21 -3.37057e-10)
(2.05412e-06 2.73568e-06 -3.33823e-19 -2.05334e-06 -6.12157e-20 -7.82952e-10)
(1.62618e-06 2.95117e-06 8.6422e-20 -1.62537e-06 1.18602e-20 -8.04269e-10)
(1.2267e-06 3.08601e-06 -1.5804e-19 -1.22608e-06 -2.47502e-20 -6.14317e-10)
(8.59465e-07 3.15942e-06 -1.45762e-19 -8.59086e-07 -2.31693e-20 -3.78819e-10)
(5.26591e-07 3.18512e-06 -6.75362e-20 -5.26058e-07 -1.13301e-20 -5.32772e-10)
(2.2079e-07 3.17454e-06 2.46484e-20 -2.20626e-07 1.47435e-21 -1.64073e-10)
(-5.9191e-08 3.13341e-06 1.8667e-20 5.99779e-08 1.50299e-21 -7.86898e-10)
(2.22885e-06 -2.92255e-06 -3.54752e-20 -2.22774e-06 -7.50343e-21 -1.10364e-09)
(2.59122e-06 -2.51934e-06 6.41797e-20 -2.58979e-06 1.52509e-20 -1.43123e-09)
(2.92676e-06 -2.00879e-06 4.46472e-20 -2.92843e-06 5.78923e-21 1.6737e-09)
(3.191e-06 -1.39962e-06 -3.49634e-19 -3.19019e-06 -7.42536e-20 -8.04264e-10)
(3.33515e-06 -7.46397e-07 2.53325e-19 -3.33487e-06 5.72761e-20 -2.84122e-10)
(3.3499e-06 -5.56337e-08 -9.08741e-20 -3.35071e-06 -1.655e-20 8.13947e-10)
(3.22465e-06 6.29313e-07 2.85522e-19 -3.22508e-06 5.63876e-20 4.29196e-10)
(2.97658e-06 1.24063e-06 2.01657e-19 -2.97621e-06 2.9457e-20 -3.73089e-10)
(2.64486e-06 1.74337e-06 -5.03275e-19 -2.64439e-06 -9.52788e-20 -4.7074e-10)
(2.2645e-06 2.13792e-06 -2.31137e-19 -2.26419e-06 -3.32021e-20 -3.06692e-10)
(1.87107e-06 2.4274e-06 9.66004e-20 -1.87037e-06 2.42693e-20 -6.98455e-10)
(1.49255e-06 2.62382e-06 -3.67659e-20 -1.49184e-06 -8.05574e-21 -7.16496e-10)
(1.13945e-06 2.74812e-06 1.1468e-19 -1.13887e-06 2.38356e-20 -5.88054e-10)
(8.15372e-07 2.81775e-06 -9.0678e-20 -8.14937e-07 -1.09194e-20 -4.35475e-10)
(5.21982e-07 2.84501e-06 -3.06249e-20 -5.21495e-07 -4.17417e-21 -4.8708e-10)
(2.53263e-07 2.84047e-06 -2.03288e-20 -2.53113e-07 -5.73247e-22 -1.5074e-10)
(6.99314e-09 2.80865e-06 -1.98943e-20 -6.21628e-09 -3.84859e-21 -7.76863e-10)
(1.96335e-06 -2.64256e-06 3.08259e-21 -1.96235e-06 1.35437e-21 -1.00248e-09)
(2.29328e-06 -2.28493e-06 7.48152e-20 -2.29203e-06 1.60482e-20 -1.25074e-09)
(2.60038e-06 -1.83048e-06 -8.27176e-20 -2.60185e-06 -1.70254e-20 1.47414e-09)
(2.84442e-06 -1.28655e-06 1.88867e-19 -2.84372e-06 4.10094e-20 -6.9107e-10)
(2.98085e-06 -7.02155e-07 -9.74714e-20 -2.98058e-06 -2.17395e-20 -2.73996e-10)
(3.0014e-06 -8.28614e-08 1.48377e-19 -3.0021e-06 2.82345e-20 7.01398e-10)
(2.8962e-06 5.3246e-07 -2.69953e-19 -2.89661e-06 -5.8889e-20 4.04258e-10)
(2.68026e-06 1.08258e-06 -2.92549e-20 -2.67988e-06 -4.67777e-21 -3.75353e-10)
(2.38844e-06 1.53585e-06 4.18933e-19 -2.38804e-06 8.5731e-20 -4.06466e-10)
(2.0526e-06 1.89222e-06 -2.32307e-20 -2.05232e-06 -1.93213e-23 -2.81573e-10)
(1.70464e-06 2.15461e-06 -6.15346e-20 -1.70402e-06 -9.65094e-21 -6.22703e-10)
(1.36978e-06 2.33365e-06 -1.74077e-20 -1.36917e-06 9.36335e-22 -6.14879e-10)
(1.05774e-06 2.44815e-06 1.51547e-19 -1.05724e-06 2.36277e-20 -5.02228e-10)
(7.71692e-07 2.51388e-06 9.00921e-20 -7.71311e-07 1.38543e-20 -3.81169e-10)
(5.12978e-07 2.54213e-06 -9.50612e-20 -5.12583e-07 -1.50946e-20 -3.94193e-10)
(2.77108e-07 2.54217e-06 1.44083e-19 -2.76802e-07 2.19412e-20 -3.05225e-10)
(5.94175e-08 2.51904e-06 2.46893e-20 -5.9192e-08 2.95625e-21 -2.25572e-10)
(-1.41412e-07 2.47713e-06 -1.22114e-19 1.42048e-07 -1.49831e-20 -6.36325e-10)
(1.72939e-06 -2.38928e-06 -9.01559e-21 -1.72848e-06 -2.84374e-21 -9.0738e-10)
(2.02981e-06 -2.07209e-06 -1.14971e-19 -2.0287e-06 -2.4667e-20 -1.10288e-09)
(2.31083e-06 -1.66753e-06 2.67585e-20 -2.31213e-06 6.80947e-21 1.30339e-09)
(2.53609e-06 -1.18182e-06 1.89113e-20 -2.53552e-06 1.99588e-21 -5.67845e-10)