/*--------------------------------*- C++ -*----------------------------------*\
| =========                 |                                                 |
| \\      /  F ield         | OpenFOAM: The Open Source CFD Toolbox           |
|  \\    /   O peration     | Version:  2506                                  |
|   \\  /    A nd           | Website:  www.openfoam.com                      |
|    \\/     M anipulation  |                                                 |
\*---------------------------------------------------------------------------*/
FoamFile
{
    version     2.0;
    format      ascii;
    arch        "LSB;label=32;scalar=64";
    class       volScalarField;
    location    "150";
    object      turbulenceProperties:L;
}
// * * * * * * * * * * * * * * * * * * * * * * * * * * * * * * * * * * * * * //

dimensions      [0 1 0 0 0 0 0];

internalField   nonuniform List<scalar> 
1340
(
0.00969791
0.00975469
0.00981745
0.00989637
0.0100084
0.0105275
0.0105929
0.0106629
0.0107477
0.0108672
0.0110114
0.0113897
0.0114641
0.0115422
0.0116338
0.0117605
0.0119101
0.0120779
0.012288
0.0123713
0.012458
0.0125568
0.012691
0.0128461
0.0130177
0.0132113
0.0132242
0.0133172
0.0134124
0.0135194
0.0136612
0.0138219
0.0139981
0.0141958
0.0144159
0.0142009
0.0143043
0.0144085
0.0145238
0.0146739
0.0148405
0.0150222
0.0152244
0.0154459
0.0156821
0.015221
0.0153348
0.0154489
0.0155729
0.0157316
0.0159047
0.016093
0.0163005
0.0165235
0.0167602
0.0162873
0.0164117
0.0165362
0.0166695
0.0168371
0.0170177
0.0172133
0.0174266
0.0176524
0.0178881
0.0181342
0.0174026
0.017538
0.0176736
0.0178168
0.0179938
0.0181825
0.0183863
0.0186059
0.0188353
0.0190713
0.0193178
0.0185698
0.0187168
0.0188641
0.019018
0.0192046
0.0194026
0.0196152
0.0198421
0.0200757
0.0203138
0.0205588
0.0208087
0.0197924
0.0199513
0.0201109
0.0202763
0.0204729
0.0206813
0.0209036
0.0211384
0.0213776
0.0216189
0.0218636
0.0221139
0.0210738
0.021245
0.0214174
0.0215947
0.0218021
0.0220218
0.0222549
0.0224987
0.0227443
0.0229896
0.0232357
0.0234875
0.0224175
0.022601
0.0227872
0.0229773
0.0231962
0.023428
0.0236727
0.0239264
0.0241798
0.0244304
0.02468
0.024931
0.0251828
0.023827
0.0240234
0.0242238
0.0244274
0.0246588
0.0249039
0.025161
0.0254261
0.0256882
0.0259454
0.0261997
0.0264516
0.0267083
0.0253061
0.0255163
0.0257307
0.025949
0.0261939
0.0264531
0.0267239
0.0270013
0.0272738
0.0275392
0.0277994
0.0280552
0.0283121
0.0285681
0.0268587
0.0270835
0.0273125
0.0275464
0.0278057
0.02808
0.0283658
0.0286566
0.0289406
0.0292158
0.0294834
0.0297451
0.0300043
0.0302669
0.0284895
0.0287292
0.0289734
0.0292238
0.0294986
0.0297891
0.0300911
0.0303965
0.0306937
0.0309801
0.031257
0.0315259
0.0317899
0.0320595
0.0302024
0.0304584
0.0307181
0.0309858
0.0312775
0.0315851
0.0319045
0.032226
0.0325374
0.0328366
0.0331247
0.0334026
0.033674
0.0339474
0.034221
0.0320019
0.0322758
0.0325516
0.0328373
0.033147
0.0334728
0.0338104
0.0341496
0.0344769
0.0347905
0.0350916
0.0353803
0.0356615
0.0359405
0.0362252
0.0338938
0.0341865
0.0344789
0.0347831
0.0351122
0.0354574
0.0358143
0.0361726
0.0365174
0.0368471
0.0371627
0.0374642
0.0377569
0.0380447
0.0383418
0.0358834
0.0361954
0.0365054
0.0368286
0.0371787
0.037544
0.0379216
0.0383001
0.0386641
0.0390115
0.0393436
0.0396602
0.0399652
0.040265
0.0405694
0.040878
0.0379762
0.0383083
0.0386369
0.0389799
0.0393514
0.0397384
0.0401379
0.0405379
0.0409225
0.0412894
0.0416398
0.0419726
0.0422929
0.0426072
0.0429183
0.0432477
0.0405314
0.0408792
0.0412429
0.0416369
0.0420464
0.0424688
0.0428918
0.0432983
0.0436862
0.0440568
0.0444083
0.0447453
0.0450741
0.0454003
0.0457383
0.0460855
0.0428712
0.0432386
0.0436239
0.0440413
0.0444741
0.0449206
0.0453678
0.0457974
0.046208
0.0466002
0.046972
0.0473279
0.0476738
0.0480167
0.0483647
0.0487339
0.0453341
0.045722
0.0461295
0.0465711
0.047028
0.0474995
0.0479717
0.0484262
0.0488609
0.0492762
0.0496704
0.0500468
0.050411
0.0507722
0.0511358
0.0515245
0.0479274
0.0483367
0.048767
0.0492332
0.0497151
0.0502124
0.0507107
0.0511911
0.0516508
0.0520908
0.0525086
0.052907
0.0532927
0.0536721
0.0540534
0.0544538
0.0548699
0.0506587
0.05109
0.0515436
0.0520352
0.0525425
0.0530661
0.0535916
0.0540983
0.0545844
0.0550501
0.0554928
0.0559148
0.0563225
0.0567217
0.0571234
0.0575357
0.0579767
0.0535357
0.0539899
0.0544675
0.0549846
0.0555179
0.0560685
0.0566212
0.0571553
0.057668
0.0581606
0.0586289
0.0590756
0.0595069
0.0599272
0.0603488
0.0607783
0.0612425
0.0565669
0.057045
0.0575471
0.0580899
0.0586494
0.059227
0.0598073
0.0603686
0.0609087
0.0614287
0.0619234
0.0623953
0.0628504
0.0632932
0.0637344
0.064183
0.0646586
0.065159
0.0597619
0.0602644
0.0607916
0.0613599
0.0619454
0.0625503
0.0631579
0.0637461
0.0643136
0.0648608
0.0653822
0.0658803
0.0663595
0.0668252
0.0672856
0.0677542
0.0682396
0.0687674
0.0631302
0.0636575
0.0642102
0.064804
0.0654152
0.0660467
0.0666809
0.0672957
0.0678898
0.0684637
0.0690122
0.0695359
0.0700396
0.0705276
0.0710086
0.0714961
0.0719968
0.0725467
0.0666824
0.0672351
0.067813
0.068432
0.0690682
0.0697253
0.0703854
0.0710255
0.0716452
0.0722455
0.0728199
0.0733688
0.0738964
0.0744063
0.0749067
0.0754103
0.0759275
0.0764845
0.0770807
0.0704293
0.0710085
0.0716113
0.0722544
0.0729146
0.0735964
0.0742806
0.0749444
0.0755878
0.076213
0.0768124
0.0773855
0.0779363
0.0784667
0.0789859
0.0795046
0.0800369
0.0805967
0.0812157
0.0743833
0.0749892
0.0756167
0.0762825
0.0769652
0.07767
0.0783761
0.0790612
0.0797268
0.0803746
0.0809971
0.0815927
0.0821651
0.082715
0.083251
0.0837839
0.0843289
0.0848974
0.0855325
0.0785575
0.0791899
0.0798419
0.0805284
0.0812319
0.0819573
0.0826824
0.0833859
0.0840701
0.0847385
0.0853824
0.0859987
0.0865901
0.0871571
0.0877073
0.0882528
0.0888062
0.0893818
0.090013
0.0907007
0.0829659
0.083625
0.0842997
0.0850055
0.0857272
0.08647
0.0872101
0.0879278
0.0886282
0.0893143
0.089976
0.0906105
0.0912188
0.0918005
0.0923627
0.0929175
0.0934748
0.0940553
0.0946784
0.0953815
0.0876232
0.0883092
0.0890049
0.0897272
0.0904639
0.0912203
0.0919709
0.0926985
0.0934105
0.0941106
0.0947876
0.0954369
0.096059
0.0966521
0.0972229
0.0977833
0.0983437
0.0989256
0.0995465
0.100252
0.0925461
0.0932587
0.0939735
0.0947085
0.095457
0.096222
0.096977
0.0977091
0.0984278
0.099138
0.0998263
0.100487
0.101119
0.10172
0.102296
0.102858
0.103417
0.103994
0.104607
0.105293
0.106056
0.0977525
0.0984908
0.0992226
0.0999657
0.100721
0.101489
0.102242
0.102972
0.103692
0.104407
0.105103
0.10577
0.106407
0.107012
0.107589
0.108148
0.108701
0.109268
0.10987
0.11053
0.111289
0.103262
0.104025
0.104771
0.105516
0.106273
0.107037
0.107778
0.108499
0.109215
0.10993
0.110627
0.111296
0.111934
0.112536
0.113109
0.113662
0.114206
0.114759
0.115345
0.115988
0.116727
0.109096
0.109882
0.110637
0.111379
0.112132
0.112881
0.113601
0.114305
0.11501
0.115718
0.116411
0.117075
0.117708
0.118303
0.118866
0.119406
0.119936
0.120471
0.121038
0.121657
0.122378
0.115277
0.116085
0.116843
0.117575
0.118315
0.11904
0.119727
0.120404
0.12109
0.121785
0.122465
0.123118
0.123738
0.12432
0.124867
0.12539
0.125898
0.126411
0.126954
0.127547
0.128231
0.12901
0.121832
0.122659
0.123414
0.124127
0.124845
0.12553
0.126172
0.126812
0.12747
0.128142
0.128802
0.129435
0.130036
0.130596
0.131123
0.131624
0.132108
0.132596
0.133111
0.133676
0.134314
0.135069
0.128789
0.129632
0.130375
0.131059
0.131743
0.132372
0.132952
0.133545
0.134165
0.134803
0.135433
0.136038
0.136611
0.137147
0.137648
0.138123
0.138582
0.139045
0.139532
0.140068
0.140674
0.141395
0.136179
0.137034
0.137755
0.138399
0.139035
0.139587
0.140088
0.140621
0.14119
0.141782
0.142371
0.142939
0.14348
0.143986
0.14446
0.14491
0.145345
0.145783
0.146244
0.146752
0.147325
0.148023
0.144038
0.144901
0.145585
0.146176
0.146746
0.147197
0.1476
0.148059
0.14856
0.149091
0.149629
0.150154
0.150659
0.151137
0.151588
0.152016
0.15243
0.152846
0.153283
0.153766
0.154313
0.154976
0.155747
0.152405
0.15327
0.153902
0.154424
0.154906
0.155224
0.15551
0.15588
0.156292
0.156746
0.157223
0.157703
0.158178
0.158634
0.159068
0.159482
0.159882
0.160283
0.160704
0.161167
0.161697
0.162324
0.163087
0.161325
0.162183
0.162744
0.16318
0.163545
0.163695
0.163842
0.164105
0.164401
0.16476
0.165175
0.165618
0.166072
0.166519
0.166949
0.16736
0.167756
0.168149
0.168561
0.169012
0.169527
0.170139
0.17088
0.170846
0.17169
0.172155
0.172485
0.172697
0.172636
0.172627
0.172755
0.1729
0.173154
0.173515
0.173937
0.174389
0.174843
0.175281
0.175698
0.176096
0.176487
0.176892
0.177334
0.177836
0.178432
0.179153
0.181026
0.181843
0.182184
0.182384
0.182397
0.182079
0.181895
0.181854
0.181803
0.181949
0.182282
0.182708
0.183176
0.183649
0.184103
0.184529
0.184927
0.185313
0.185707
0.186132
0.186617
0.187187
0.187891
0.191929
0.192702
0.192886
0.192929
0.192682
0.192057
0.191683
0.191423
0.191124
0.19118
0.191523
0.191976
0.19247
0.192963
0.193427
0.19385
0.194238
0.194606
0.194978
0.195377
0.195831
0.196367
0.197025
0.197736
0.203628
0.204338
0.204324
0.204175
0.203591
0.202608
0.202027
0.201475
0.200875
0.20089
0.20129
0.201779
0.202284
0.202776
0.203227
0.203629
0.203991
0.204332
0.204674
0.205043
0.205462
0.205966
0.206574
0.207271
0.216207
0.21683
0.216573
0.216191
0.215173
0.213784
0.212973
0.212015
0.211057
0.211122
0.211628
0.212124
0.212597
0.213055
0.213471
0.213841
0.214174
0.21449
0.214811
0.215161
0.215564
0.216055
0.216653
0.217342
0.229761
0.230264
0.229712
0.22905
0.227481
0.225655
0.224583
0.223068
0.22168
0.221904
0.222536
0.222976
0.223364
0.223774
0.224166
0.224523
0.224852
0.225174
0.225508
0.225876
0.226301
0.226817
0.227448
0.228173
0.244391
0.244725
0.243819
0.242812
0.240549
0.238274
0.236917
0.234719
0.232821
0.233262
0.23397
0.234274
0.234567
0.23497
0.235397
0.235802
0.236191
0.236578
0.23698
0.237418
0.237913
0.238505
0.239219
0.240034
0.260218
0.260322
0.258984
0.257529
0.254387
0.251645
0.249957
0.246968
0.244531
0.245259
0.245943
0.246048
0.246314
0.246822
0.247375
0.247905
0.248418
0.248927
0.249447
0.250001
0.250608
0.251316
0.25215
0.253106
0.27737
0.277194
0.275349
0.273306
0.269079
0.265836
0.263696
0.259489
0.256386
0.257921
0.25868
0.258513
0.258846
0.259599
0.260366
0.261067
0.261738
0.262396
0.263057
0.263739
0.264475
0.265318
0.266293
0.267387
0.268465
0.295688
0.295207
0.292881
0.290177
0.284784
0.281171
0.278587
0.272459
0.26773
0.270995
0.272346
0.271736
0.272091
0.273159
0.274184
0.275064
0.275893
0.276712
0.277519
0.27834
0.279221
0.280211
0.281344
0.282586
0.283861
0.313553
0.312839
0.310285
0.307171
0.300992
0.297739
0.295384
0.286743
0.279732
0.284864
0.286808
0.285448
0.285502
0.286683
0.287855
0.288828
0.289749
0.290671
0.291589
0.292528
0.293529
0.294656
0.295946
0.297367
0.298828
0.330188
0.329361
0.326868
0.323698
0.317392
0.315386
0.313471
0.304048
0.294625
0.300191
0.301907
0.299708
0.299092
0.299998
0.301109
0.302053
0.302949
0.303859
0.304791
0.305761
0.306805
0.307988
0.309363
0.310899
0.312496
0.347809
0.346873
0.344511
0.341211
0.334955
0.334405
0.332301
0.323608
0.312299
0.316852
0.317837
0.31504
0.313682
0.314104
0.315027
0.315893
0.316726
0.317589
0.318485
0.319428
0.320457
0.321639
0.323035
0.324628
0.3263
0.368155
0.3671
0.364924
0.361273
0.355273
0.355997
0.353079
0.345566
0.33172
0.334478
0.33461
0.331533
0.329612
0.329564
0.330257
0.331002
0.331737
0.332541
0.333416
0.33435
0.335375
0.336565
0.337982
0.339642
0.341428
0.391256
0.390109
0.38819
0.383989
0.37863
0.380156
0.37615
0.370225
0.352913
0.353259
0.352234
0.348902
0.346496
0.346051
0.346585
0.347214
0.34777
0.348391
0.349152
0.350041
0.351069
0.352285
0.353769
0.355548
0.357517
0.417633
0.416532
0.41501
0.410127
0.405954
0.407187
0.402297
0.397844
0.375533
0.37292
0.370597
0.366944
0.363906
0.362939
0.363418
0.364285
0.365048
0.365699
0.366364
0.367148
0.368135
0.369406
0.37108
0.373166
0.375567
0.447617
0.446896
0.446088
0.440762
0.438606
0.437631
0.432948
0.428558
0.399041
0.392869
0.38913
0.385484
0.382187
0.380545
0.380388
0.381178
0.382486
0.384007
0.38551
0.386919
0.388336
0.389987
0.392183
0.395163
0.398959
0.481545
0.481706
0.48216
0.477418
0.478731
0.473298
0.472028
0.463149
0.422844
0.412699
0.406531
0.403012
0.401352
0.401436
0.401859
0.402016
0.402352
0.403559
0.405786
0.408719
0.412071
0.415797
0.420133
0.425369
0.431676
0.438905
0.520093
0.52179
0.524314
0.522207
0.528895
0.517474
0.527166
0.501239
0.44585
0.434063
0.424097
0.419131
0.419045
0.423386
0.429819
0.435436
0.438659
0.439985
0.441004
0.443014
0.446684
0.45226
0.459976
0.469802
0.481401
0.494161
0.563749
0.568636
0.575718
0.579871
0.59279
0.57341
0.603059
0.528983
0.463892
0.456008
0.444026
0.440276
0.439517
0.440854
0.44803
0.461868
0.47831
0.491413
0.497248
0.4959
0.490259
0.483724
0.480023
0.482416
0.490902
0.502229
0.608424
0.620967
0.641306
0.662905
0.684781
0.65017
0.68172
0.524612
0.47209
0.456652
0.427429
0.421134
0.429908
0.445235
0.456416
0.454727
0.44461
0.435566
0.431218
0.430415
0.431113
0.431256
0.427795
0.417463
0.401519
0.384623
0.641507
0.666056
0.714245
0.788386
0.857898
0.79567
0.74637
0.520089
0.498979
0.46334
0.41065
0.377008
0.350025
0.327563
0.31049
0.298317
0.290018
0.283837
0.278232
0.272456
0.266374
0.260177
0.254194
0.249102
0.245461
0.242785
0.658524
0.690553
0.763322
0.92358
1.26486
1.11217
0.784696
0.597545
0.496629
0.33605
0.272323
0.238164
0.218697
0.20732
0.200703
0.196653
0.193735
0.191107
0.188514
0.185996
0.183673
0.181547
0.179517
0.177289
0.175102
0.173324
)
;

boundaryField
{
    inlet
    {
        type            calculated;
        value           nonuniform List<scalar> 
26
(
0.715293
0.749177
0.827974
1.01124
1.49559
1.19317
0.78586
0.76149
0.359711
0.251603
0.200358
0.171574
0.153952
0.142497
0.134853
0.129568
0.125769
0.122899
0.12059
0.118601
0.116777
0.114982
0.113084
0.111015
0.108943
0.107077
)
;
    }
    outlet
    {
        type            calculated;
        value           nonuniform List<scalar> 0();
    }
    walls
    {
        type            calculated;
        value           nonuniform List<scalar> 0();
    }
    frontAndBack
    {
        type            empty;
    }
    procBoundary0to1
    {
        type            processor;
        value           nonuniform List<scalar> 
94
(
0.00918153
0.010147
0.010147
0.0111761
0.0111761
0.0122685
0.0122685
0.0134308
0.0134308
0.0146541
0.0146541
0.0159379
0.0170081
0.0170081
0.0183974
0.0195709
0.0195709
0.0210736
0.0223719
0.0237389
0.0237389
0.0254477
0.0269625
0.0269625
0.0288422
0.0305364
0.0323271
0.0323271
0.0345161
0.0365169
0.038635
0.038635
0.0412137
0.0435755
0.0435755
0.0464702
0.0491176
0.0519169
0.0519169
0.0553353
0.0584403
0.0617163
0.0617163
0.0657283
0.0693311
0.0731178
0.0731178
0.0777691
0.0818885
0.0862045
0.0862045
0.0915128
0.0961627
0.101014
0.101014
0.10698
0.112162
0.117575
0.123183
0.123183
0.129974
0.135958
0.142243
0.148817
0.148817
0.15668
0.163951
0.171722
0.179962
0.188639
0.188639
0.198542
0.207996
0.218063
0.228935
0.240875
0.254037
0.254037
0.269593
0.285092
0.300247
0.314051
0.327947
0.343241
0.359603
0.378161
0.403236
0.403236
0.447342
0.507702
0.513504
0.369505
0.240505
0.171962
)
;
    }
    procBoundary0to4
    {
        type            processor;
        value           nonuniform List<scalar> 
72
(
0.00965467
0.010475
0.0113274
0.0122156
0.0131417
0.0141081
0.0151175
0.0161726
0.0172762
0.0184318
0.0196422
0.0209105
0.0222405
0.0236355
0.0250994
0.026636
0.0282494
0.0299444
0.0317258
0.033598
0.0355673
0.0376386
0.0401793
0.0401793
0.0424976
0.0449381
0.0475079
0.0502146
0.0530661
0.0560716
0.0592398
0.0625806
0.0661044
0.069823
0.0737482
0.0778933
0.082272
0.0869002
0.0917942
0.0969723
0.102454
0.10826
0.114415
0.120945
0.127878
0.135247
0.143086
0.151437
0.160342
0.169855
0.180031
0.190936
0.202643
0.21524
0.228823
0.2435
0.259391
0.27662
0.295006
0.312884
0.32951
0.347145
0.367509
0.390624
0.416974
0.446825
0.480425
0.5183
0.560538
0.602456
0.632128
0.647271
)
;
    }
    procBoundary0to5
    {
        type            processor;
        value           nonuniform List<scalar> 4(0.00890131 0.00894898 0.00900455 0.00907738);
    }
}


// ************************************************************************* //
