/*--------------------------------*- C++ -*----------------------------------*\
| =========                 |                                                 |
| \\      /  F ield         | OpenFOAM: The Open Source CFD Toolbox           |
|  \\    /   O peration     | Version:  2506                                  |
|   \\  /    A nd           | Website:  www.openfoam.com                      |
|    \\/     M anipulation  |                                                 |
\*---------------------------------------------------------------------------*/
FoamFile
{
    version     2.0;
    format      ascii;
    arch        "LSB;label=32;scalar=64";
    class       volScalarField;
    location    "150";
    object      div(phi);
}
// * * * * * * * * * * * * * * * * * * * * * * * * * * * * * * * * * * * * * //

dimensions      [0 0 -1 0 0 0 0];

internalField   nonuniform List<scalar> 
10720
(
0.00230475
-0.00126692
0.000954636
-0.000878933
-8.03959e-05
0.00014675
-0.000201529
0.000485131
5.60956e-05
0.000579022
8.88078e-05
0.000116397
-7.77438e-06
6.01962e-05
-8.70801e-05
0.000117452
8.02011e-05
0.000121651
4.42968e-05
0.000100754
0.000128364
0.000250316
-9.10994e-05
-1.38169e-05
-0.000110614
-0.0001086
4.1581e-05
-4.72643e-05
4.64172e-05
7.73767e-05
0.000679375
-0.000535026
-2.8788e-05
3.20487e-06
0.000229703
0.000158943
0.000132458
-0.000193403
0.000280046
-0.00222194
0.00257189
-0.000674084
0.0016749
0
-0.000293481
-0.000939532
-0.000492425
-0.000112844
0
-1.64046e-15
0.000129739
-0.000157932
0.000288212
-3.28455e-05
-0.00016755
0.000100801
0.000118995
-6.31623e-05
1.64126e-05
5.97063e-05
-0.00017471
8.32711e-05
-5.60753e-05
2.26678e-15
-3.12999e-05
-8.43322e-06
8.72276e-05
-6.73758e-05
8.81308e-05
7.5448e-05
-8.51774e-06
1.7872e-06
-4.76632e-05
-0.000201894
-9.84923e-06
7.85517e-05
-6.28985e-05
-6.39239e-05
0.000190524
8.80477e-05
0.000157939
-0.000447286
0.000274863
0.000126322
0.000351935
5.41381e-06
1.21139e-14
0.000308041
8.86885e-05
9.9593e-05
1.77623e-05
9.10156e-05
0.000336444
2.98569e-05
6.94081e-05
0.000113077
-8.25249e-05
0.000131702
-8.57724e-05
1.08538e-15
-0.000199632
-0.000312072
-0.000191918
-0.000156352
0.000117745
0.000196408
0.000370363
0.000362772
0.000849504
-0.000251847
0.000188464
8.2917e-05
0.000154936
0.000188111
4.56072e-05
5.52761e-05
0.000555071
-0.000290206
0.00125326
0.000315831
0.000365871
-0.000403518
-0.000492205
1.137e-05
-1.06066e-05
4.93947e-05
4.57973e-05
-2.95011e-15
-3.93438e-05
-3.6245e-05
3.33138e-05
0.000244357
1.67658e-05
5.87043e-05
5.12266e-05
-0.000152781
0.000139108
-0.000161757
0.000100739
-5.81452e-06
-2.64227e-05
2.16355e-05
-7.76584e-05
-8.16081e-05
-0.000169319
-0.00027487
-2.60899e-05
-0.000121792
-0.000159928
-0.000201256
-0.00016918
-0.000205589
-0.000193291
4.50899e-05
-4.90462e-05
4.46208e-05
-0.00198888
0.000961868
-0.00125249
0.000571752
-0.000117971
0.000545714
-0.000153901
0.000668709
-0.000310537
0.000165064
0.000228938
2.46512e-05
-0.000107063
0.000110325
0.000185555
-0.000120385
0.000135482
6.3027e-05
0.000153627
0.000105312
0.000112258
0.000219804
8.03283e-05
-1.6976e-15
8.93039e-05
-2.03393e-05
-7.40762e-05
-1.686e-05
-0.000107428
-6.28522e-05
0.000139812
-0.000341159
-8.9431e-05
-2.39269e-05
9.57531e-05
8.31172e-05
5.39826e-05
-0.000160287
3.27559e-05
0.00169737
-0.000226079
-6.54909e-05
-0.00024533
-0.00011336
0.000103995
-0.000155111
0.000146811
0.000129912
0
-7.64379e-05
3.5767e-05
0.000166238
-4.27301e-15
5.67839e-05
-0.000130444
0.000239025
3.79185e-15
-3.99037e-05
-5.45652e-05
-4.9686e-05
-0.000120538
-2.73902e-05
-6.22429e-05
-4.30519e-05
-2.26979e-05
4.50891e-05
8.29457e-05
8.32759e-05
5.92248e-05
0.000137726
8.79574e-06
8.58876e-05
-3.78495e-05
-0.000154909
9.95287e-05
4.74356e-05
-5.63863e-05
-8.45394e-05
0.000804245
-0.00037609
-0.000166682
0.000163449
-5.08614e-05
0.000236558
0.000494705
-8.43986e-05
-3.94844e-05
7.40537e-05
3.44506e-05
0.000191906
2.96166e-05
0.000103898
4.28175e-05
5.78856e-05
0.00014243
0.000156002
8.93571e-05
-3.27322e-05
8.99159e-05
0.000123492
-0.000113059
-0.000207063
-0.000157721
-0.00014382
-8.7361e-06
0.00018305
0.000275434
0.0003102
0.000558817
-7.11016e-05
0.000219003
8.60478e-05
0.000131838
0.000164869
4.42931e-05
4.02591e-05
0.000375181
-0.000340694
-0.000447443
0.000219483
-0.000310872
-9.61863e-05
-8.84887e-05
0.000290762
0.000318568
0.000190226
7.21791e-05
0.000103098
-9.75235e-05
0.000213301
2.84321e-05
-3.65987e-15
9.73283e-05
8.95043e-05
-2.05137e-05
-5.62701e-05
4.15661e-15
-4.67932e-05
-0.000141963
-3.86993e-05
9.38026e-05
-8.54186e-05
-1.94603e-05
1.06374e-05
-0.000188127
-0.0001647
-0.000125857
-0.000173927
-0.000158633
-0.000243291
-0.000173596
-0.000220581
-0.000201376
4.14598e-05
-7.22247e-05
5.43418e-05
5.6828e-05
0.000213641
0
-0.0002814
0.000440247
-0.00016454
0
0.000373253
-0.000211015
-6.64421e-05
0.000155506
-2.90378e-05
-5.62583e-15
-1.5637e-14
4.40023e-05
0.000177297
-3.93452e-06
1.80885e-05
4.98439e-05
0.000183007
6.9969e-05
0.000102743
0.000200295
0
0.000118821
-6.27125e-16
-2.47216e-05
-0.000105168
-8.8991e-05
-0.000118491
-0.000107922
-0.000186204
-0.000103594
-3e-05
9.35921e-05
1.4189e-05
5.48377e-05
-0.000146587
0
-0.000231235
0.000109074
-0.000926594
0
-0.000123106
-0.000189155
0.000107224
-3.46548e-05
-0.000167389
-0.0001283
-3.08915e-05
0.000236308
-8.37399e-05
2.62334e-05
-7.3462e-05
0.000158795
5.81016e-15
-3.8478e-05
-1.76259e-05
0.000128814
-5.8736e-05
-4.01079e-05
-3.64436e-05
-0.000132484
-3.01786e-05
-3.66962e-05
8.36361e-06
8.53713e-05
8.056e-05
4.74463e-05
0.000133494
6.87215e-05
0.000109833
-1.17346e-05
-0.000126542
0.000154667
3.59797e-05
-4.75644e-05
-0.000119214
0
0.000457552
0.000402015
0.000405272
0
0.00017934
-3.47505e-05
-9.91468e-05
6.26876e-05
0
-0.000168427
0.000210737
4.92953e-05
-4.58538e-05
0.000191517
5.71035e-05
0.000123098
-1.67669e-05
0.000169808
0.000142025
0.000130604
8.40957e-05
-4.41829e-05
-4.06501e-05
-9.32102e-05
-0.000144778
-9.32506e-05
0.000120511
0.000155133
0.000282821
0.000343625
0.000102713
0.000155904
0.000145995
0.000188235
0.000134313
3.05384e-05
2.7754e-05
0.000303745
0
-0.000467518
-0.000393611
-0.000112988
-0.000140816
0.00019515
9.26808e-05
0.000151214
0.000324524
0.000342367
7.70607e-15
-0.000214575
0.000178874
-7.25638e-05
0.000204412
6.34136e-05
2.71623e-15
-1.80369e-05
-6.62194e-05
-3.15257e-15
-8.29242e-05
-7.55187e-05
-0.000125792
-3.11798e-05
7.57877e-05
-2.59418e-05
0
-0.000107919
-0.000136423
-8.54772e-05
-0.000175367
-0.000166185
-0.000181604
-0.000151756
-0.000243281
-0.000170246
1.23859e-05
-3.65831e-05
4.61956e-05
-0.00041575
0.000393666
-0.000344852
0.000351469
0.000665336
-8.69961e-15
0
8.78655e-05
2.79478e-05
-0.000133822
2.53331e-05
0.000143362
-2.2461e-05
0.000125866
-1.35583e-15
5.44237e-05
-7.84614e-05
0.000170834
-1.43353e-05
6.6092e-05
6.09067e-05
0.000123545
0.00010352
9.54581e-06
0.000131582
-4.81386e-05
-1.4653e-05
-2.6754e-05
-0.000103743
-0.000116878
-0.000177598
-0.000143359
-0.000130606
-6.52289e-05
3.49307e-05
-8.82161e-16
5.78144e-05
-0.000183881
-1.3308e-15
0.000423203
-0.000805414
0.000134575
-6.46952e-05
0.000242515
7.29434e-05
3.7492e-05
2.64413e-05
-7.80817e-05
-5.0778e-05
-6.92747e-15
6.75629e-15
0.000210377
-2.22881e-05
0
5.90477e-05
-1.82913e-05
0.000135217
-3.10841e-05
-2.84722e-05
6.50191e-05
-9.47661e-05
-1.07618e-05
9.78015e-06
-0.000124884
4.07428e-05
-5.20769e-05
3.3946e-05
8.05078e-05
9.31761e-05
9.52312e-05
9.85075e-05
7.90519e-05
1.94564e-05
-8.85539e-05
0.00017403
6.15532e-05
-5.59345e-05
-9.7233e-05
0.000716333
0
0.000593942
-0.000305673
1.61208e-14
0
0.000270132
-0.000259832
-6.919e-15
7.20933e-05
0.000114286
0.000173294
2.04578e-05
1.9181e-05
0.000161385
0.000116893
-4.65325e-06
0.000207005
5.32074e-05
0.0001967
0.000124921
2.09873e-05
4.84827e-05
1.79252e-05
-2.4758e-05
-3.77803e-05
-0.00013811
-6.30878e-06
5.76002e-05
0.00016295
0.000263718
8.74388e-05
0.000167356
0.000134312
0.000165273
0.000150408
8.20872e-05
2.48642e-05
0.000249784
-0.000729299
-9.66206e-15
-0.000173356
0.000446536
0
0.00014579
2.32924e-05
9.2696e-05
0.000207001
6.27432e-15
0
0.000220833
0
6.15722e-05
9.75139e-05
-2.5417e-15
0.000102509
1.58315e-05
-8.75183e-05
-1.33782e-05
-0.000122308
-3.34365e-05
-7.08716e-05
-3.67987e-05
1.67927e-05
3.07063e-05
7.01398e-06
-2.56205e-05
-4.09229e-05
-0.000100812
-8.65908e-05
-0.000142093
-0.00016651
-0.000165666
-0.000194419
-0.000137269
-1.38727e-05
-4.03369e-05
4.60499e-05
8.59288e-15
0.000294783
7.12702e-15
0.0005332
0
-0.000240817
-6.62001e-15
0.000230619
0
-5.98547e-15
8.24692e-05
-3.92648e-05
-7.75371e-15
0.00012269
-1.6443e-05
0.000138249
5.72329e-05
1.86152e-05
-2.46666e-05
0.00014853
-5.13938e-15
3.91982e-05
5.44623e-05
0.000100947
7.76108e-06
-1.42275e-05
6.50682e-06
-2.97471e-05
-7.60987e-05
-0.000109196
-0.000190266
-0.000115712
-0.00011304
-6.86777e-05
3.12769e-05
-2.84685e-05
5.17946e-05
-0.000211772
2.15053e-05
0.000315294
-0.000302013
0.000274135
0
0.000295615
0.000168834
0.000182785
6.10427e-05
0.000122065
0
0.000201667
-0.000200247
0
0
-5.01022e-15
-0.000119222
1.59509e-05
0.000118554
0
-6.28386e-05
-4.78754e-15
4.19282e-05
-9.52179e-06
-3.46049e-05
-3.95002e-05
-2.8918e-05
-1.98328e-05
-6.04153e-06
6.06968e-05
1.51117e-05
8.91712e-05
5.97447e-05
0.000110838
3.48275e-06
-1.9031e-05
0.000190527
3.15118e-05
-5.72635e-05
-6.54198e-05
0.000268573
0.000512532
0.000668085
0
0.00022274
-5.87737e-15
5.85621e-15
5.68746e-15
-0.000198558
-5.37388e-15
0
0.000160074
-1.6944e-05
0.00016006
4.52088e-05
0.000169456
6.596e-05
9.46409e-05
0.000114292
0.00013796
0.000108354
0.000137201
0.000127393
3.15693e-05
2.18867e-05
-2.6782e-05
-4.29082e-05
-8.97451e-05
-2.56417e-05
7.49751e-05
0.000128377
0.000117171
0.000142514
0.000162406
0.000147961
0.00010776
7.35283e-05
2.22683e-05
0.00016295
-0.000273547
0.000262658
-0.000237231
0.000356718
3.56156e-05
-0.000143383
0.000142
0.000214737
0
0
-5.03209e-15
0.000181519
0
0.000173667
0.000166983
-2.19653e-15
-8.92918e-05
0
6.41451e-05
-9.43999e-05
-2.16151e-05
-7.88417e-05
1.79037e-05
-6.50567e-05
-5.20169e-05
6.80656e-06
6.22947e-05
-2.8486e-05
-2.08275e-05
1.90253e-05
-4.51612e-05
-0.000108617
-0.000138418
-0.000131773
-0.000198068
-0.000109276
-2.98235e-05
-3.83833e-05
4.13055e-05
0.000700823
0.000223427
-0.000193805
0.000204097
0.000195558
0
0.000186771
0.000182199
-0.000177321
0.000173795
-4.65273e-15
0.000161094
0.000169519
5.84298e-05
5.52024e-05
2.5945e-05
0
9.6491e-05
-5.29128e-06
6.89535e-05
5.49826e-05
-5.97223e-05
6.35395e-05
1.48021e-05
5.48485e-05
1.25992e-05
-2.30892e-05
-2.64339e-05
-6.71307e-16
-0.000132688
-0.000161667
-0.000110724
-6.73653e-05
-9.2158e-05
7.77046e-16
-5.09834e-05
4.63887e-05
-0.000189635
3.85778e-05
0
0.000229084
0.000149779
0.000182719
0.000134639
0.000308184
-7.7727e-05
0.000157606
8.86332e-15
0
0
0
-4.51532e-15
-0.000159573
4.28385e-15
-4.07981e-15
-3.85101e-15
1.79954e-15
-8.41663e-05
0
9.13782e-05
-1.85241e-05
-4.20583e-05
-3.82079e-05
2.09614e-05
-3.20314e-05
-4.10772e-05
2.14837e-05
1.47363e-05
-4.48986e-06
3.2403e-05
8.35066e-05
8.33703e-05
1.86943e-05
-8.51737e-06
0.000168021
3.52771e-05
-4.70023e-05
-5.86784e-05
0.00020377
0.000195204
0.000338034
-9.9437e-15
0
0.000328719
0.000165485
-0.000162074
0.000633674
-8.66204e-15
4.19445e-15
-8.09398e-15
3.88695e-15
0.000159901
8.84123e-05
5.95404e-05
8.94895e-05
0.000115262
9.40083e-05
0.0001462
9.37281e-05
0.000111342
8.16549e-05
0.000110983
3.86413e-05
1.77755e-05
3.01672e-15
-4.98169e-05
-4.5617e-05
-4.17395e-05
7.63297e-05
6.97431e-05
9.5518e-05
0.000116196
0.000132412
7.23547e-05
8.77898e-05
1.99365e-05
0.000109603
0.000207644
-1.1119e-14
0.000260871
-1.59539e-05
0.000256606
-2.80958e-05
0.000327369
-5.56074e-05
0.000141612
-0.000142829
-0.00014646
0.000149003
0
0.000146519
3.95748e-15
0.000136421
0.000129285
0.000121193
-1.56306e-15
3.11736e-05
-1.32332e-15
-1.7404e-05
-7.90101e-05
-1.43557e-05
-5.25392e-05
-1.20549e-05
3.86834e-05
1.51863e-05
-2.31655e-05
1.69509e-05
1.16207e-05
-5.62603e-05
-8.81801e-05
-0.000126701
-0.000139662
-9.29406e-05
-3.56078e-05
-4.0429e-05
3.70442e-05
0.000356274
0.00017097
-0.000147789
0.000157471
0
0
0
0.000288524
-0.00014155
0.000280202
0.000136224
0
0.000127234
-5.05685e-15
5.77559e-05
9.83152e-05
6.17433e-05
9.66396e-06
2.89723e-05
2.54087e-05
1.58354e-05
7.40949e-06
6.93473e-06
-8.11665e-15
-2.51763e-15
-5.57083e-05
3.54888e-15
-1.30252e-15
-3.58114e-15
-7.87631e-05
-0.000144127
-9.88239e-05
-9.02776e-05
-8.24028e-05
-2.50488e-05
-6.84527e-05
4.15308e-05
-0.000169747
3.45954e-05
0
0.000175479
-7.11483e-05
0.000237274
-1.32235e-05
0.000197134
3.59729e-05
0.000245538
6.97896e-15
0
0
-0.000134897
-3.75385e-15
0
-3.65244e-15
0
3.34164e-15
0
-0.000105446
9.74394e-05
-8.95137e-05
-1.13404e-15
-2.96758e-05
1.34785e-05
-6.17032e-06
-3.96836e-05
1.44398e-15
-2.86188e-05
-8.7379e-06
7.99767e-06
2.19449e-05
2.17282e-05
6.01432e-05
3.62196e-05
-7.62114e-06
0.000180478
4.4217e-05
-3.82486e-05
-3.50798e-05
0
0.000150014
0.000258953
7.69625e-15
0
0.000128233
0.000130293
-7.13331e-15
0.000126542
0.000125803
-3.40776e-15
0.000119391
0.000115551
3.07168e-15
0.000158372
3.00472e-05
5.67623e-05
8.01666e-05
0.000142229
2.35341e-05
0.000132334
5.51856e-05
0.000129475
0.000121696
5.67566e-05
5.23571e-05
0
-8.83852e-05
-4.05353e-05
-3.71465e-05
1.88799e-15
3.11131e-05
2.84377e-05
7.79058e-05
0.000118447
8.63357e-05
5.89377e-05
1.78421e-05
6.55172e-05
0.000159058
0
0.000136971
-2.4478e-05
0.000220561
-4.32883e-05
0.000168911
0
-6.20021e-15
-6.31897e-15
0.000118297
0.000122121
6.83964e-15
0
-6.73775e-15
0.000117255
0
0
9.86802e-05
0
2.33109e-15
-4.25792e-15
-6.96342e-05
-1.265e-05
-5.79506e-05
-2.13209e-05
1.35901e-15
1.3479e-05
-2.05932e-05
1.88624e-05
3.45275e-05
-1.29461e-05
-6.03021e-05
-7.37573e-05
-0.000144158
-4.81544e-05
-4.3825e-05
-3.61815e-05
1.66078e-05
0.000137002
0.000131842
-0.000113647
0.000122249
0.000236212
0
-6.42484e-15
0.000229035
0
0
0.000221242
-0.000107966
-5.82185e-15
0.000100792
-9.3681e-15
2.75249e-05
0.00011297
-5.74215e-05
2.85814e-05
4.35701e-05
1.36455e-05
-6.41849e-06
-2.41628e-05
1.58063e-15
-3.69492e-15
0
-1.25605e-15
0
2.12029e-15
-3.50301e-05
-6.41932e-05
-5.8762e-05
-8.06073e-05
-7.36415e-05
-2.24013e-05
-6.12468e-05
3.71686e-05
-0.000151885
3.10174e-05
-7.75244e-15
0.0001354
5.45669e-05
0.000171981
-0.000132681
0.000123795
-0.000102384
9.60851e-05
-9.93018e-05
0
-5.90134e-15
0.000110484
-0.000112174
0.00011297
6.20986e-15
0.000108606
-0.000104185
9.863e-05
-5.12349e-15
2.375e-15
-2.1863e-15
0
-1.81318e-15
3.29349e-15
-2.72024e-05
-5.00947e-06
-2.76388e-05
-2.11547e-05
-7.7634e-06
-2.84656e-05
2.28122e-05
1.84885e-05
4.2803e-05
1.74312e-05
-1.81762e-05
0.000165624
3.95724e-05
-1.71115e-05
-4.71771e-05
6.68548e-15
0
0.000199847
-0.000107939
-0.000104441
0.000100491
0.000102877
-0.000102092
0.000202402
0.000101404
-9.96735e-05
0.000292884
2.64084e-15
0
-7.3307e-15
2.51999e-05
3.98902e-05
2.61952e-15
7.12686e-05
7.45487e-05
6.95963e-05
6.56454e-05
0.000101389
0.000106536
9.98679e-05
4.61939e-05
0
0
-3.59803e-05
-3.30267e-05
-8.40546e-16
2.77397e-05
-7.04522e-16
2.32014e-05
8.47246e-05
3.86154e-05
5.27345e-05
1.59612e-05
2.93664e-05
0.000122799
0
3.83431e-05
-8.03853e-05
0.00017528
-4.19573e-05
8.21794e-05
0
8.835e-05
0
0
0
0
5.74256e-15
0
0.000100509
-2.68779e-15
0
2.39474e-15
2.22392e-15
-2.04949e-15
0
-6.12631e-05
-5.56311e-05
-5.10497e-05
2.35315e-05
-6.06526e-05
-1.1949e-05
1.2689e-15
2.34864e-05
1.23005e-05
1.06998e-05
-1.67421e-05
-6.35495e-05
-8.80798e-05
-5.09079e-05
-3.92129e-05
-3.23674e-05
2.97767e-05
0
0.000102331
-8.80056e-05
0
0.000184921
-8.90931e-05
0
0.000182127
5.02594e-15
-9.10592e-05
0.000179579
-8.82311e-05
0.000172587
8.34336e-05
6.68825e-15
7.68549e-05
2.92749e-05
2.77763e-05
-3.94274e-05
6.20779e-06
4.69011e-05
-1.10908e-05
-3.67457e-05
-6.91129e-16
-4.68024e-05
-3.61066e-15
0
0
9.40474e-16
-3.11298e-05
-2.8567e-05
-7.85561e-05
-7.19258e-05
-6.57769e-05
-4.00484e-05
-5.4774e-05
1.66249e-05
-0.000120745
2.78019e-05
0
0.000105169
-8.43273e-06
5.91653e-05
-8.80017e-05
3.70216e-05
0
7.54982e-05
8.73138e-15
4.50734e-15
0
0
-5.15438e-15
0
9.48412e-05
-9.29476e-05
2.49643e-15
-2.37842e-15
2.23727e-15
7.49929e-05
3.84052e-15
-1.75631e-15
1.59372e-15
1.44716e-15
1.32908e-15
3.97783e-05
-3.66569e-05
-3.37346e-05
-1.03349e-05
-3.16299e-06
5.80228e-06
1.32908e-05
1.84905e-05
1.11219e-05
-1.42172e-05
0.000138869
3.87718e-05
-1.53045e-05
-2.81919e-05
-1.03847e-14
9.03114e-05
8.61568e-15
0
-8.19231e-05
0
8.14592e-05
-8.12687e-05
8.10134e-05
8.176e-05
-4.48954e-15
7.97333e-05
0
4.21147e-15
7.32468e-05
-7.02707e-05
-6.70957e-06
8.29684e-05
2.42171e-05
2.86683e-05
9.77123e-05
5.66422e-05
4.88871e-05
9.3064e-05
4.38472e-05
8.13745e-05
7.51229e-05
3.46461e-05
6.37981e-05
8.14137e-16
2.694e-05
-2.47124e-05
-1.25684e-15
0
3.78562e-05
3.45267e-05
6.28844e-05
1.42713e-05
3.94808e-05
0
-9.28524e-05
8.91545e-05
0
0.000112018
-5.23388e-05
6.42699e-05
-6.70072e-05
0
-4.02989e-15
0
-4.53514e-15
-8.44116e-05
0
0
0
8.34752e-05
-2.2152e-15
2.08905e-15
-1.94708e-15
1.7985e-15
5.92928e-05
-5.37939e-05
1.3555e-15
-4.4895e-05
-8.29771e-05
-3.82775e-05
-2.46842e-05
-1.62201e-05
2.98104e-06
-5.47279e-06
1.25448e-05
8.04237e-06
-2.5222e-05
-7.48767e-05
-1.75073e-05
-4.46353e-05
-2.89416e-05
0
8.25923e-05
0
-6.85237e-05
0
7.26634e-05
-7.02006e-05
-7.25449e-05
0.000145082
-4.02537e-15
-7.34273e-05
7.28356e-05
0
-3.93503e-15
-1.91338e-15
1.85276e-15
6.42053e-05
6.14687e-05
-4.06718e-15
1.67233e-05
-2.16985e-05
1.00465e-05
1.4335e-05
9.1004e-06
6.03055e-16
0
0
-3.52707e-05
-1.8081e-15
2.4998e-15
-2.76323e-05
-2.54002e-05
-4.66356e-05
-4.27558e-05
-7.82863e-05
-1.78896e-05
-4.89622e-05
1.48651e-05
-0.000107941
1.38306e-15
-8.42263e-05
8.20827e-05
-3.93291e-05
1.299e-05
-6.18879e-05
2.31456e-05
0
0
6.24216e-05
7.20743e-15
6.93642e-05
0
7.66994e-05
-7.91306e-05
0
7.93374e-05
-4.29749e-15
2.0618e-15
-1.94966e-15
0
-1.68342e-15
-5.55294e-05
-1.39814e-15
1.26924e-15
4.20692e-05
0
-3.59583e-05
-3.31618e-06
6.10752e-06
-2.24697e-05
-2.58029e-06
1.89405e-05
1.88115e-05
-1.39004e-05
-1.81462e-05
0.000110895
4.67264e-05
-1.36808e-05
-1.26311e-05
0
0
0.000121172
0
-6.44969e-05
6.23843e-05
6.46448e-05
-0.00012957
6.49183e-05
6.59363e-05
0
-6.50431e-05
-3.56431e-15
0
-6.07972e-05
0
0
2.68972e-05
5.1288e-05
6.83343e-05
4.18047e-05
4.43096e-05
5.07857e-05
8.11169e-05
7.68499e-05
7.15448e-05
3.31069e-05
6.12207e-05
2.82435e-05
5.20438e-05
1.32904e-15
2.19965e-05
-2.01804e-05
-2.05237e-15
9.38426e-16
0
4.2161e-05
0
3.53737e-05
7.44599e-05
0
5.79014e-06
-2.87242e-05
4.92955e-05
2.56146e-05
0
0
0
0
0
0
0
0
7.3633e-05
0
0
0
1.81824e-15
-3.40204e-15
5.6746e-05
0
-4.71429e-05
-4.27949e-05
0
-7.30204e-05
-9.37188e-16
-2.49403e-05
-1.72422e-05
1.83574e-16
-2.18931e-05
1.11685e-05
8.80795e-07
-1.31301e-05
-4.63006e-05
-3.12916e-06
-4.27511e-05
-3.87974e-05
-1.1956e-05
6.46228e-05
0
-5.36112e-05
-6.53257e-15
5.7293e-05
-5.54785e-05
0
0.000115751
-5.81282e-05
-5.92174e-05
5.90615e-05
-3.26041e-15
0
5.68539e-05
-1.53612e-15
2.97068e-15
5.14868e-05
-6.84694e-16
4.24379e-05
3.14903e-05
-1.28757e-05
3.28492e-05
3.93359e-06
5.2501e-16
0
-3.35191e-05
-3.10635e-05
-2.39453e-15
2.65627e-05
-2.44983e-05
-4.51218e-05
-4.14903e-05
-3.80924e-05
-3.4916e-05
-1.77332e-15
-4.37424e-05
-7.3744e-16
-8.43843e-05
0
-6.59097e-05
4.50448e-05
-1.02403e-05
7.62867e-05
-4.8526e-05
4.54064e-05
-4.47845e-05
0
0
5.19603e-05
0
3.34498e-15
0
0
0
0
-6.64596e-05
6.4228e-05
5.08379e-15
-1.58855e-15
-2.94537e-15
-4.86333e-05
3.67198e-15
-3.33286e-15
1.02384e-15
-3.42272e-05
-8.79692e-16
-2.63669e-05
-1.87583e-15
-2.49117e-06
-6.87776e-06
6.32052e-06
5.80018e-07
1.04485e-15
-2.10635e-05
7.39374e-05
5.38835e-05
1.22229e-05
1.25633e-15
5.72417e-05
0
4.74963e-05
-5.22507e-05
-5.09293e-05
4.9366e-05
5.14013e-05
-5.17199e-05
5.20544e-05
5.31748e-05
-5.31666e-05
0
-5.26334e-05
0
5.03591e-05
0
-4.70768e-05
1.25516e-15
6.93132e-05
2.0717e-05
5.70672e-05
4.94297e-05
5.11598e-05
4.894e-16
3.36064e-05
9.41806e-05
5.82611e-05
5.40046e-05
4.99416e-05
4.61117e-05
4.25084e-05
1.95594e-05
-1.79706e-05
1.83e-15
-1.50891e-05
1.37788e-05
1.25561e-05
1.26479e-15
3.1685e-05
5.83847e-05
-4.56418e-05
2.2662e-05
-3.60534e-05
4.30243e-06
-0.000161111
3.97683e-05
0
4.43003e-05
0
-5.03425e-05
0
3.18549e-15
-6.01921e-05
3.44087e-15
-6.22201e-05
6.15127e-05
3.31172e-15
-5.68673e-05
5.3422e-05
-4.95829e-05
4.54772e-05
-1.14432e-15
2.07705e-15
1.91595e-15
-1.78031e-15
-2.97364e-05
-2.75194e-05
-3.05062e-05
-2.34505e-05
-2.16011e-06
-7.94707e-06
3.64903e-07
-1.00366e-05
-3.97984e-05
6.98714e-06
-2.54644e-05
-3.4653e-05
-1.07094e-05
5.07556e-05
4.92034e-05
-4.21123e-05
4.64404e-05
0
-4.3952e-05
-4.58648e-05
9.24754e-05
-9.32633e-05
0
2.65677e-15
-5.31173e-15
4.76299e-05
2.59778e-15
-4.57976e-05
1.23504e-15
0.000129054
0
3.18201e-05
1.52525e-05
-1.20528e-15
1.05541e-05
2.71382e-05
9.11835e-16
0
0
-2.27362e-15
-2.53466e-05
-1.95421e-15
-2.16922e-05
-2.00158e-05
-1.84379e-05
-3.39112e-05
-3.11236e-05
-1.42524e-05
-2.60378e-05
1.31735e-15
-6.45857e-05
-1.10969e-15
-5.17754e-05
2.02553e-05
4.8198e-05
-8.39466e-05
5.72776e-05
0.000178793
3.53442e-05
0
3.95444e-05
4.62123e-15
0
-2.72674e-15
5.20484e-05
6.09391e-15
-3.15395e-15
3.18073e-15
0
-1.53696e-15
0
2.76619e-15
-1.28542e-15
-2.35921e-15
-3.85228e-05
-2.9109e-15
-3.22793e-05
-3.00355e-05
2.78872e-05
-1.43452e-15
3.34568e-05
6.125e-16
-8.13897e-06
1.3111e-05
-9.63907e-06
-1.10541e-05
-2.74703e-05
6.73382e-05
3.60964e-05
1.09139e-05
1.01342e-05
0
-4.36929e-05
0.000224245
-4.12961e-05
-4.03265e-05
7.83115e-05
4.09433e-05
-4.13418e-05
4.17758e-05
0
-4.30839e-05
0
2.39169e-15
-4.24326e-05
8.32484e-05
2.25048e-15
3.92861e-05
7.58207e-05
2.9193e-05
3.85743e-05
2.42783e-05
3.25309e-05
2.20247e-05
3.0583e-05
5.86414e-05
2.74939e-05
2.5584e-05
7.13448e-05
2.20489e-05
4.08033e-05
3.769e-05
3.47512e-05
-1.59903e-05
1.46871e-05
0
0
-1.24478e-15
0
2.83718e-05
0
-1.34899e-05
5.7004e-05
0.000230698
-6.10503e-05
0
3.14277e-05
0
-3.53176e-05
0
4.51369e-15
0
0
5.0016e-05
-5.20413e-05
0
0
0
0
-3.86802e-15
1.19988e-15
0
-1.99709e-15
-3.26418e-05
-1.67464e-15
-7.80432e-16
-2.61395e-05
-4.85036e-05
-4.49148e-05
-1.03799e-05
-1.91587e-05
3.5308e-06
-2.02989e-05
-1.49065e-05
-1.50191e-05
-1.24736e-06
-1.13687e-05
-3.09316e-05
-1.91792e-05
-4.44107e-15
3.88232e-05
-0.00026554
3.6747e-05
0
-3.48967e-05
0
3.69764e-05
-3.74303e-05
-3.85203e-05
3.87731e-05
0
2.16278e-15
3.84638e-05
0
7.38309e-05
7.17065e-05
-0.000138733
0.000230878
-4.51231e-05
-3.13802e-05
1.80375e-05
-5.54196e-05
-1.97465e-15
2.73675e-05
5.14163e-05
7.18705e-05
-0.000200708
0.00010351
-0.000115082
8.86816e-05
-1.63692e-05
-1.50792e-05
-1.38589e-05
-1.27066e-05
-3.48477e-05
0
-5.76301e-05
8.94815e-06
-4.53121e-15
2.79787e-05
-3.51008e-05
-2.49052e-05
3.61702e-05
-0.000197698
5.59373e-05
2.96216e-05
3.15521e-05
0
4.05605e-15
0
-2.37406e-15
0
-4.76353e-05
2.69157e-15
4.8567e-05
0
-4.57831e-05
-3.6038e-15
3.35876e-15
-1.02861e-15
9.31924e-16
-8.45424e-16
-2.81813e-05
-2.19043e-15
3.39892e-15
1.26301e-15
-2.04891e-15
1.36643e-05
3.60719e-06
-3.32655e-06
-6.12455e-06
-8.4402e-06
-2.06275e-05
4.9482e-05
3.22202e-05
9.7387e-06
2.72196e-05
0.000142211
-0.000103579
-5.90085e-05
6.54476e-05
-3.20017e-05
3.11205e-05
-3.62606e-15
-3.30813e-05
6.70897e-05
-3.84098e-15
0
-3.51272e-05
3.52187e-05
-3.48458e-05
6.86819e-05
0.00016797
-0.000130812
0.000253638
-2.1272e-15
4.14394e-05
-2.43143e-05
5.2741e-05
-0.000164815
0.000132287
-2.55269e-05
-7.20799e-05
8.9698e-05
8.36146e-05
7.77213e-05
-3.60493e-05
1.66891e-05
4.62546e-05
-4.264e-05
6.53732e-05
1.19952e-05
1.09691e-05
-1.1107e-15
-9.07071e-06
2.53958e-05
-0.000145087
9.2415e-05
-0.000175003
2.04587e-05
5.09365e-05
5.02495e-05
0
-5.28331e-05
0
0
3.28304e-05
-3.60955e-05
2.15073e-15
-2.30193e-15
4.35757e-05
4.45522e-05
-4.48219e-05
0
4.25387e-05
0
-2.08734e-15
2.8781e-15
-3.13184e-05
0
1.46046e-15
-2.45963e-05
0
-1.77678e-15
-1.98059e-05
-9.17529e-06
-8.48636e-06
-2.50689e-05
-2.88696e-06
-1.85798e-05
-1.94733e-05
-5.56322e-06
-1.0145e-05
-9.19741e-06
-1.71668e-05
-0.000189726
0.000184325
0.000157424
-0.000116603
2.85261e-05
-0.000111043
0
5.92036e-05
-6.01307e-05
3.10694e-05
0
-3.51693e-15
1.76693e-15
6.31241e-05
-0.000155861
0.000305575
2.98113e-05
-0.000115856
-0.000140346
0.000271657
-7.36931e-05
1.51072e-15
-7.00336e-05
0.000122924
-9.5182e-05
-0.00013465
0.000167828
-9.79343e-05
-1.82309e-05
1.87991e-15
-3.13881e-05
-1.45162e-05
-5.3584e-05
1.23312e-05
3.39638e-05
-3.10744e-05
-9.44791e-06
-4.28239e-05
8.00829e-06
0.000290346
-5.06101e-05
-1.07385e-05
-0.000148851
2.38583e-05
0.000134206
-0.000110913
-7.07081e-05
2.52053e-05
2.9732e-15
3.27545e-15
3.25591e-05
3.8953e-15
4.18847e-15
-3.9841e-05
4.09128e-05
4.13365e-05
-2.26653e-15
-3.94967e-05
-2.081e-15
-1.94509e-15
-3.2231e-05
1.62083e-15
-2.64809e-05
6.8145e-16
-2.55233e-15
0
1.11011e-15
1.03181e-15
-3.44897e-06
-3.19349e-06
-1.47543e-06
-1.36062e-06
-6.25909e-06
-2.06763e-05
3.46691e-05
2.87402e-05
8.68396e-06
8.11981e-06
8.44116e-05
2.73519e-05
-0.000116751
5.19663e-05
5.08881e-05
0.000148655
2.60879e-05
-2.64978e-05
5.39045e-05
0
3.13726e-15
0
2.87615e-05
0.000114305
-5.65632e-05
-8.33555e-05
2.71623e-05
0.000105796
7.70569e-05
-0.000169427
1.452e-05
4.25085e-05
0.000120306
-2.28287e-05
-3.69159e-15
4.18974e-05
-0.000137294
0.000128387
5.1292e-05
-2.64807e-15
-2.95137e-05
0.000109305
-1.26215e-05
-1.1629e-05
3.20468e-05
0
1.98082e-15
1.61718e-05
1.51489e-05
-0.000172261
-3.66183e-05
0.000182168
9.09972e-05
-0.00010623
-9.96122e-05
-5.93142e-05
8.41533e-05
0
-2.66392e-15
0
-2.93651e-05
3.17669e-05
-1.90439e-15
7.27954e-05
0
4.22941e-15
0
-6.10275e-15
0
1.81149e-15
-3.00328e-05
-4.52971e-15
0
1.27077e-15
5.95965e-16
0
-3.74753e-05
-1.74371e-05
2.2476e-16
-6.00599e-06
-2.36147e-05
-8.9743e-06
-1.5582e-05
-1.40902e-05
-6.94123e-06
-9.04575e-06
-1.63967e-05
-1.53601e-05
-0.000125284
-7.30958e-05
-4.61674e-15
2.31708e-05
0
-4.42455e-05
-4.66508e-05
2.37216e-05
0
0
2.54202e-05
2.85829e-15
-5.19574e-05
0.000155166
-7.69477e-05
5.04987e-05
-0.000197885
0.000217218
-0.000140926
0.000116449
5.78066e-05
-0.000143615
-3.63574e-05
4.23707e-05
2.06402e-05
-1.95466e-05
3.66612e-05
-6.86712e-05
-3.20534e-05
0.000134342
-1.38701e-05
-1.28565e-05
-3.56617e-05
2.19243e-05
-5.03871e-05
4.61377e-05
-4.21052e-05
-5.34159e-05
7.16382e-06
5.11329e-05
-1.25466e-05
-0.000124562
-0.000102781
-9.46379e-05
-3.55067e-05
0
-5.63572e-05
-0.000100786
2.15003e-05
0
2.64766e-05
-2.8748e-05
-1.73101e-15
0
1.9111e-15
-1.9474e-15
0
1.88585e-15
-3.23902e-05
-3.03657e-05
3.10502e-15
-2.53241e-05
-2.29607e-05
2.36854e-15
-2.00447e-05
0
0
1.63516e-05
-4.22136e-16
-1.4115e-06
9.14981e-06
-1.20772e-06
-1.06842e-05
-1.9429e-05
1.96569e-05
2.56191e-05
7.73758e-06
2.17902e-05
8.92919e-05
-4.34321e-05
7.40979e-05
-0.000144702
-0.000141857
3.95146e-05
0.000125167
2.12393e-05
2.16632e-05
6.75476e-05
-0.000114358
-2.32039e-05
0.000211138
-0.000233993
4.65011e-05
-4.5866e-05
0.00018008
-0.000110035
4.2929e-05
4.8106e-05
5.91941e-05
-2.00364e-05
2.96322e-05
3.92842e-05
-5.76077e-05
-7.28957e-05
8.55898e-05
8.03029e-05
-2.50054e-15
-5.60116e-05
1.30285e-05
6.04594e-05
-5.59685e-05
9.29828e-05
-6.65268e-05
3.48275e-05
2.38459e-05
0
-1.50412e-15
4.55537e-05
-6.70993e-06
3.16982e-05
6.16508e-05
3.37454e-05
0
9.43762e-05
0.000100682
1.80339e-05
7.7079e-05
2.3765e-15
-2.38678e-05
2.88721e-15
0
3.03284e-05
3.15531e-05
3.58456e-15
3.22465e-05
-3.14788e-05
-3.00788e-05
-2.82404e-05
1.44465e-15
2.35615e-05
-2.13613e-05
-1.1029e-15
5.19042e-16
-1.75464e-05
4.92601e-05
3.06479e-05
-4.28138e-05
9.28433e-06
-1.22973e-06
-3.41212e-06
-2.33943e-05
-1.63961e-05
-6.18249e-05
-8.05987e-06
-2.92042e-05
2.06048e-05
-7.95937e-05
0
3.30251e-05
7.37996e-05
1.8098e-05
-3.91974e-15
-7.46532e-05
-3.80453e-05
-5.82807e-05
-2.02232e-05
4.11493e-05
0.000125463
-2.11802e-05
-0.000126977
4.21364e-05
-2.08209e-05
4.09553e-05
8.02383e-05
-4.35298e-15
1.85967e-15
8.42816e-05
-6.19397e-05
-1.45873e-05
1.82031e-05
-1.78561e-05
-4.71303e-16
0.000111854
-0.000135148
8.43679e-05
-5.25358e-05
8.56596e-05
-6.82223e-05
-2.10726e-05
-1.9469e-05
5.37711e-05
-3.28555e-05
-7.49977e-06
6.79357e-06
0
-8.12201e-05
-4.78726e-05
3.13829e-05
-7.2237e-05
-3.00945e-05
2.8236e-05
-7.01907e-05
-8.99693e-05
0.000112974
-8.63652e-05
-1.9235e-05
2.38897e-15
0
2.57217e-05
2.7657e-05
1.60391e-15
-1.64829e-15
1.6524e-15
-1.61778e-15
-2.79104e-05
1.457e-15
-4.84126e-05
6.57284e-05
-5.95807e-05
1.84933e-05
-6.97471e-05
0.000114714
-1.53587e-05
-7.17776e-05
9.37256e-05
-4.1116e-05
-6.01348e-05
7.17328e-05
-2.66882e-06
-5.36562e-05
3.41593e-05
-3.04223e-05
1.37762e-05
6.49469e-05
1.7745e-05
-5.18253e-05
-5.89027e-05
3.29471e-05
8.08364e-05
-3.1555e-05
-6.68037e-05
-3.78379e-15
-1.74228e-05
7.26617e-05
-0.000111055
0.000188407
-0.00015296
3.82725e-05
0.000133596
-3.77898e-05
5.58515e-05
1.01437e-15
1.78966e-05
-8.75569e-05
8.41461e-05
-9.10257e-05
0.000116053
-8.42684e-05
-3.31843e-05
9.48752e-05
2.98098e-05
-5.6128e-05
2.63217e-05
6.15531e-05
2.55037e-15
-5.34341e-05
5.94891e-05
4.58438e-05
-4.22377e-05
2.32414e-05
-2.83031e-05
3.84431e-05
0
-3.62162e-05
0.000138815
-2.3781e-05
6.86302e-05
0.000120823
-5.03941e-05
6.26699e-05
-1.34024e-05
0
1.54832e-05
-1.72835e-05
-2.15279e-15
2.12664e-05
-2.33484e-05
0
2.64469e-05
-0.000109134
0.000137279
2.69646e-05
-2.58838e-05
2.43779e-05
2.24967e-05
-0.000142495
-1.02424e-15
-1.72006e-05
0.00014622
-0.000137664
8.6161e-05
-1.34426e-05
-6.27718e-05
1.1697e-05
1.73942e-05
-3.12366e-05
2.74671e-05
-4.20081e-05
2.51467e-05
-5.02251e-05
1.94885e-05
-3.06968e-05
4.74952e-05
3.08344e-05
0
1.47137e-05
-2.88932e-05
-8.46289e-05
0
3.38941e-15
0
1.63167e-05
-8.32431e-05
3.39474e-05
-0.000103525
0.000190268
-0.000190099
8.56983e-05
-8.45977e-05
0.000116455
-1.63244e-05
9.60471e-05
-0.000105423
3.64401e-05
-5.58096e-05
0.000140365
-6.16307e-05
5.88666e-05
-8.3377e-05
1.31049e-05
2.46234e-05
-1.15347e-05
3.23335e-05
-5.02049e-05
9.32628e-06
-9.5853e-16
3.18451e-05
0
-2.00205e-05
-2.41689e-05
5.72403e-05
4.8468e-05
-9.37142e-05
-5.8643e-05
-4.24939e-05
-7.18937e-05
0
-1.11944e-05
0
-1.29326e-05
-4.16508e-05
-3.10644e-05
1.74739e-05
-1.92202e-05
-8.47278e-05
2.29638e-05
0.000120937
-5.01128e-05
0.000101225
-5.53498e-15