/*--------------------------------*- C++ -*----------------------------------*\
| =========                 |                                                 |
| \\      /  F ield         | OpenFOAM: The Open Source CFD Toolbox           |
|  \\    /   O peration     | Version:  2506                                  |
|   \\  /    A nd           | Website:  www.openfoam.com                      |
|    \\/     M anipulation  |                                                 |
\*---------------------------------------------------------------------------*/
FoamFile
{
    version     2.0;
    format      ascii;
    arch        "LSB;label=32;scalar=64";
    class       volVectorField;
    location    "150";
    object      momentError;
}
// * * * * * * * * * * * * * * * * * * * * * * * * * * * * * * * * * * * * * //

dimensions      [0 1 -2 0 0 0 0];

internalField   nonuniform List<vector> 
10720
(
(2.26182 -8.64349 -6.93161e-15)
(1.6025 -8.46935 1.93315e-14)
(0.155358 -7.13451 -4.00503e-14)
(-0.459652 -6.812 1.88552e-14)
(-0.898709 -6.14911 9.3793e-14)
(-1.19716 -5.44095 -1.52194e-13)
(-1.4307 -4.75478 8.2376e-14)
(-1.51318 -4.00236 -1.03111e-13)
(-1.49236 -3.31649 -2.33324e-13)
(-1.40672 -2.69501 3.18755e-13)
(-1.26925 -2.25275 1.16228e-13)
(-0.852231 -1.33883 -2.15411e-13)
(-0.555705 -0.842984 -3.1734e-13)
(-0.298272 -0.498077 -5.44104e-14)
(-0.00585084 -0.144627 -1.3367e-13)
(0.29766 0.197081 -2.98593e-13)
(0.627285 0.481389 -1.42142e-13)
(0.976545 0.694447 8.07938e-13)
(1.35489 0.844364 4.1566e-13)
(1.74155 0.920833 -5.88349e-13)
(2.06616 0.919811 1.06986e-13)
(2.1806 0.790442 1.51782e-13)
(1.83176 0.542497 -6.42128e-14)
(1.0025 0.352583 -1.59174e-13)
(0.577303 0.249871 3.88936e-14)
(0.360916 0.0922708 -1.74812e-15)
(0.322346 -0.0111042 4.05448e-14)
(0.292689 -0.049933 -1.62262e-14)
(0.281311 -0.0499777 4.37328e-14)
(0.300796 -0.0423686 1.55387e-13)
(0.315692 -0.0368019 3.1959e-14)
(0.266976 -0.0287239 -1.29384e-13)
(0.223824 -0.0236495 -1.83517e-15)
(0.191007 -0.0220634 -2.16836e-13)
(0.166833 -0.0220313 -2.88166e-13)
(0.160085 -0.0221052 1.16984e-13)
(0.163393 -0.0235908 -1.11151e-14)
(0.105041 -0.0179225 1.42553e-15)
(0.134642 -0.0299079 -7.14123e-14)
(2.53118 -8.07632 -1.22806e-14)
(2.71808 -6.42457 3.0785e-14)
(2.62746 -4.74782 5.92136e-16)
(2.14803 -3.4183 3.82764e-14)
(1.81699 -2.40127 -3.14564e-14)
(1.33274 -1.26882 -1.09232e-13)
(0.386809 -0.140546 -4.97132e-14)
(0.0318751 0.0912016 1.93825e-14)
(0.340829 -0.319613 -1.05555e-13)
(0.675358 -0.580805 1.00078e-13)
(0.748573 -0.492526 -5.69402e-14)
(0.649376 -0.358681 -1.41927e-13)
(0.590702 -0.300546 -1.58974e-13)
(0.555133 -0.256695 1.24732e-14)
(0.501519 -0.209579 1.27298e-13)
(0.44265 -0.17195 3.77401e-14)
(0.392384 -0.143133 -4.76452e-14)
(0.348292 -0.120518 -3.34167e-14)
(0.309784 -0.101925 -2.0642e-14)
(0.276081 -0.0867286 3.65755e-14)
(0.247104 -0.0735805 1.58976e-14)
(0.221556 -0.0625029 2.29381e-14)
(0.199474 -0.0524848 -3.04647e-14)
(0.179288 -0.044111 -2.18469e-14)
(0.159082 -0.0349137 1.5725e-14)
(0.13806 -0.0322017 9.58977e-15)
(0.122091 -0.0252825 5.10027e-15)
(0.111245 -0.00517539 -9.87963e-16)
(0.100085 0.00693419 -1.71196e-16)
(0.0915226 0.00706632 5.59979e-16)
(0.0745709 0.00622016 -7.90995e-16)
(0.0629647 0.00608464 -3.05722e-15)
(0.0540707 0.0062332 -7.38674e-16)
(0.0469388 0.00606857 -8.96657e-15)
(0.0407321 0.0055812 -9.5535e-15)
(0.0390568 0.00500207 2.62238e-15)
(0.0456327 0.00440655 -9.62551e-16)
(0.0237372 0.00307828 -9.77478e-15)
(0.00857785 0.00490029 -2.05599e-14)
(-0.576515 -6.1758 -1.459e-14)
(-1.23713 -6.14317 3.97466e-15)
(-1.73675 -5.20381 4.50343e-15)
(-2.39501 -5.0338 -2.55266e-14)
(-2.81683 -4.65603 1.79141e-14)
(-3.08676 -4.21311 6.73323e-14)
(-3.35577 -3.73608 9.40584e-14)
(-3.46855 -3.23634 9.04783e-14)
(-3.45777 -2.76068 -3.7205e-15)
(-3.39851 -2.31864 1.76368e-13)
(-3.21092 -1.85098 -1.95934e-13)
(-3.19072 -1.98929 -1.10342e-13)
(-3.07563 -1.89165 4.23716e-13)
(-2.97919 -1.68258 1.22682e-13)
(-2.72261 -1.58356 -1.13181e-13)
(-2.51841 -1.46843 -1.65533e-14)
(-2.28735 -1.39737 3.28087e-13)
(-2.00844 -1.33817 -1.56836e-13)
(-1.64176 -1.28278 -4.70281e-13)
(-1.14207 -1.20633 1.82513e-13)
(-0.449424 -1.06429 2.27947e-13)
(0.42479 -0.802756 4.28807e-14)
(1.35248 -0.400827 -1.12673e-13)
(1.95288 0.0397099 1.86947e-13)
(1.63586 0.120285 -4.01326e-14)
(1.36887 0.0591311 -6.96588e-14)
(1.31285 0.0215099 -2.97765e-14)
(1.14967 -0.0106643 5.24011e-15)
(0.85556 -0.0234193 -1.63309e-14)
(0.578301 -0.0311641 -2.00125e-14)
(0.381534 -0.0383082 -2.03192e-14)
(0.302887 -0.043892 4.17352e-14)
(0.273809 -0.0453348 -1.88968e-13)
(0.258401 -0.043907 -2.19293e-13)
(0.244179 -0.0418794 1.65515e-13)
(0.265119 -0.041721 -3.67371e-14)
(0.261949 -0.0445935 3.53867e-14)
(0.22937 -0.0464091 -1.43026e-14)
(0.220161 -0.0458585 -4.60661e-14)
(-0.130184 -5.79459 -3.77035e-15)
(0.414108 -4.81429 1.35588e-13)
(0.815706 -3.72312 -1.04665e-14)
(0.949205 -2.8749 -1.37003e-13)
(0.980288 -2.07394 -2.45047e-14)
(0.893638 -1.217 1.31925e-13)
(0.522879 -0.460067 7.36377e-14)
(0.382284 -0.321962 7.58141e-14)
(0.583524 -0.52622 -5.26589e-14)
(0.74677 -0.556984 -2.53748e-14)
(0.820459 -0.405155 9.97639e-14)
(0.782298 -0.290686 -5.74119e-15)
(0.72881 -0.230819 1.31167e-14)
(0.67866 -0.174834 -2.28197e-14)
(0.618877 -0.124267 -3.13328e-14)
(0.554295 -0.0907663 1.30656e-14)
(0.496213 -0.0677779 1.67915e-14)
(0.444536 -0.0521019 -5.52639e-14)
(0.399061 -0.0404325 2.56423e-14)
(0.358969 -0.0318897 1.69219e-14)
(0.324086 -0.0243787 1.40141e-14)
(0.29315 -0.0181427 2.9886e-14)
(0.26569 -0.0120943 3.79264e-14)
(0.239906 -0.00538658 1.59844e-14)
(0.214634 0.00299752 -1.35079e-14)
(0.189654 0.0108256 8.97614e-16)
(0.165518 0.0146736 -4.05193e-15)
(0.145099 0.0153174 -1.33766e-15)
(0.128406 0.0125434 1.94737e-16)
(0.111483 0.0100871 -1.48876e-16)
(0.104379 0.00748551 9.34246e-16)
(0.0941705 0.00716619 1.234e-15)
(0.0832348 0.00715292 2.79257e-15)
(0.0725691 0.0067852 5.76266e-15)
(0.0635148 0.00632162 2.90831e-15)
(0.0626172 0.00592006 -2.59635e-15)
(0.0609245 0.00556208 -6.67656e-16)
(0.0459835 0.00526077 2.90472e-15)
(0.0251592 0.00624262 8.25757e-15)
(0.460674 -5.0229 -6.30743e-15)
(0.10187 -4.98208 1.39415e-15)
(-0.347981 -4.26321 -2.33942e-15)
(-0.747815 -4.28232 1.08988e-14)
(-1.01397 -4.09392 3.22465e-15)
(-1.24332 -3.79236 -2.62797e-14)
(-1.46147 -3.50095 -9.54426e-14)
(-1.58957 -3.16797 -8.52658e-14)
(-1.64536 -2.80413 -1.03844e-13)
(-1.66008 -2.45375 1.12929e-14)
(-1.61899 -2.11481 2.44652e-13)
(-1.53799 -1.78657 6.76216e-14)
(-1.43714 -1.46487 -9.51968e-14)
(-1.29874 -1.18274 -2.28989e-13)
(-1.28813 -0.879842 1.05922e-13)
(-1.32698 -0.638069 1.3954e-13)
(-1.35132 -0.511159 -9.08286e-14)
(-1.41611 -0.419258 -1.79515e-13)
(-1.55083 -0.382232 3.05856e-13)
(-1.7703 -0.405334 -9.27831e-14)
(-2.06351 -0.498966 -1.2165e-13)
(-2.31675 -0.582709 1.80338e-13)
(-2.28317 -0.479455 6.15613e-14)
(-1.89494 -0.26757 -1.91011e-15)
(-1.03739 0.0705704 -3.18435e-14)
(-0.399915 0.1954 4.33796e-15)
(-0.134906 0.136431 -2.97598e-14)
(0.0492344 0.0536022 2.09522e-14)
(0.232575 0.0202397 -3.21294e-14)
(0.411515 0.0101847 -7.30645e-14)
(0.486302 -0.00105949 7.01771e-14)
(0.437473 -0.0155757 2.89537e-14)
(0.339179 -0.0266354 -1.21545e-13)
(0.255022 -0.0338527 7.40462e-14)
(0.219171 -0.0386417 2.45151e-14)
(0.233242 -0.0423377 -3.83917e-14)
(0.25389 -0.046906 -1.07862e-13)
(0.242095 -0.050658 3.06008e-14)
(0.289671 -0.0572088 1.37173e-14)
(0.729042 -4.74055 3.2043e-14)
(0.899182 -3.99571 -3.03476e-14)
(0.999193 -3.10648 -1.05284e-13)
(1.02979 -2.47539 4.61767e-14)
(0.965271 -1.83878 1.38795e-14)
(0.809759 -1.188 -6.64695e-14)
(0.575853 -0.661881 1.92707e-14)
(0.531631 -0.563226 -1.17547e-13)
(0.723261 -0.653362 -8.83598e-14)
(0.814161 -0.607126 -8.32231e-14)
(0.837718 -0.506684 9.9266e-14)
(0.8042 -0.424928 1.66129e-14)
(0.745847 -0.357353 -1.5512e-14)
(0.683403 -0.292843 -8.02442e-14)
(0.618298 -0.237144 -5.65171e-14)
(0.552011 -0.194437 3.67838e-14)
(0.491297 -0.161474 -2.08874e-14)
(0.437757 -0.135518 -4.2061e-14)
(0.390888 -0.114549 -3.73913e-15)
(0.349892 -0.0972387 -3.78634e-14)
(0.314487 -0.0820878 -4.03136e-14)
(0.283394 -0.0687071 -7.83279e-14)
(0.25558 -0.0560605 -5.84312e-14)
(0.229276 -0.043483 -1.59393e-14)
(0.2037 -0.0306811 3.29787e-15)
(0.178735 -0.0203084 -5.94464e-16)
(0.155387 -0.0139808 -8.4954e-15)
(0.135262 -0.00886229 3.24015e-15)
(0.118072 -0.0036754 3.37857e-16)
(0.102898 -2.07947e-05 -1.10707e-16)
(0.0908143 0.00506386 -2.70221e-16)
(0.0804163 0.00685476 -1.12482e-15)
(0.071166 0.00714047 -1.82832e-15)
(0.0627587 0.00682956 -2.2555e-15)
(0.0554623 0.00643456 -8.2352e-16)
(0.0520549 0.0059089 -1.53523e-15)
(0.0502483 0.00553117 1.37826e-14)
(0.0409531 0.00517414 8.29701e-15)
(0.0284362 0.00649924 -9.95922e-14)
(-0.0997502 -4.00962 8.51634e-15)
(-0.440982 -3.97042 -2.92644e-15)
(-0.746474 -3.44063 1.58744e-15)
(-1.12118 -3.46536 -7.58262e-15)
(-1.37026 -3.29191 -2.30637e-15)
(-1.59248 -3.04265 2.98786e-14)
(-1.81263 -2.80426 5.20949e-14)
(-1.94691 -2.51889 4.99288e-14)
(-2.0187 -2.20745 -1.22379e-13)
(-2.05169 -1.90498 -1.03527e-13)
(-2.02159 -1.60921 1.3059e-13)
(-1.95199 -1.32808 2.40655e-13)
(-1.84458 -1.08074 1.29772e-13)
(-1.7081 -0.890257 -4.47719e-13)
(-1.58696 -0.737206 -1.5544e-13)
(-1.40489 -0.670115 3.683e-13)
(-1.21974 -0.637908 8.28925e-14)
(-1.06153 -0.592461 -1.21029e-13)
(-0.936539 -0.557376 -2.23047e-13)
(-0.853879 -0.546258 1.94314e-13)
(-0.867798 -0.554633 4.31202e-14)
(-1.03549 -0.554386 -2.20196e-13)
(-1.3606 -0.500086 1.62566e-13)
(-1.47746 -0.271164 -1.08934e-13)
(-1.40826 -0.0811157 -3.70622e-14)
(-1.15227 0.0189553 3.45681e-14)
(-0.918124 0.0114146 -4.40387e-14)
(-0.792227 -0.00683186 9.67475e-15)
(-0.61146 -0.0100931 1.36212e-14)
(-0.572309 0.0237847 2.10387e-14)
(-0.37784 0.0345401 -1.11315e-14)
(-0.0757049 0.011322 2.47221e-14)
(0.119641 0.00131666 2.08535e-13)
(0.235596 -0.0166925 6.60078e-14)
(0.24729 -0.0287048 -8.67752e-14)
(0.23476 -0.0382111 -1.16063e-13)
(0.220397 -0.0469338 2.0598e-14)
(0.236371 -0.0532882 -3.23132e-14)
(0.301802 -0.0602712 4.79712e-14)
(0.190843 -3.79506 1.98546e-14)
(0.433295 -3.28382 -3.83087e-14)
(0.618926 -2.62451 -5.70806e-15)
(0.733468 -2.1541 -3.18488e-14)
(0.772433 -1.65443 -1.33925e-14)
(0.709496 -1.14782 7.30544e-14)
(0.614445 -0.805874 -1.85493e-13)
(0.630409 -0.727645 1.65961e-13)
(0.767783 -0.731498 1.35816e-15)
(0.834494 -0.656681 -1.1817e-13)
(0.846329 -0.554341 -7.38805e-14)
(0.820707 -0.453318 -2.00073e-14)
(0.770539 -0.363181 5.4929e-14)
(0.710734 -0.285579 1.27977e-13)
(0.647473 -0.221471 2.13996e-14)
(0.582553 -0.1709 -4.59223e-14)
(0.521777 -0.132278 2.12255e-14)
(0.466769 -0.102819 4.77783e-14)
(0.417819 -0.0802803 -3.58022e-15)
(0.374348 -0.0627911 -7.32803e-15)
(0.336401 -0.048667 -2.02564e-14)
(0.302686 -0.0369087 4.91434e-14)
(0.272 -0.0264863 2.84627e-14)
(0.242786 -0.0165769 -1.01089e-14)
(0.214818 -0.00662308 -1.47498e-14)
(0.188366 0.00164475 -6.23213e-15)
(0.163804 0.00688036 1.03189e-14)
(0.142084 0.010477 -6.97831e-16)
(0.123076 0.0126049 -3.22079e-16)
(0.106486 0.0131438 8.84811e-17)
(0.0923354 0.0114154 -2.95551e-16)
(0.0811103 0.00925339 -1.7011e-16)
(0.0714782 0.00739732 8.10208e-16)
(0.0629738 0.00656538 1.82644e-15)
(0.0547671 0.00326742 2.2432e-18)
(0.0497859 0.00300162 7.63916e-15)
(0.045307 0.00444534 -1.28682e-14)
(0.039855 0.00519765 -2.61532e-14)
(0.0292616 0.00630053 -1.31179e-15)
(0.041091 -3.35513 -4.20687e-15)
(-0.200712 -3.32193 5.91012e-15)
(-0.430033 -2.91908 -1.37597e-15)
(-0.713452 -2.9865 -1.73358e-15)
(-0.900562 -2.87537 -2.10154e-14)
(-1.07318 -2.70079 2.95513e-14)
(-1.25362 -2.55406 8.04455e-15)
(-1.36445 -2.35435 -6.05677e-14)
(-1.43543 -2.12704 -5.34873e-14)
(-1.47512 -1.90326 -1.121e-13)
(-1.46452 -1.67274 1.70535e-14)
(-1.42152 -1.4499 -1.25366e-13)
(-1.3495 -1.24761 7.74568e-15)
(-1.25549 -1.07149 3.34505e-13)
(-1.16119 -0.910285 -2.21276e-13)
(-1.04855 -0.771408 -1.60753e-13)
(-1.02179 -0.570463 9.64724e-14)
(-0.971027 -0.451606 -1.26128e-13)
(-0.918797 -0.366294 8.29703e-14)
(-0.867353 -0.307177 -1.4206e-13)
(-0.823037 -0.271182 -1.55272e-13)
(-0.80397 -0.24035 1.77088e-13)
(-0.827377 -0.182349 -3.92888e-14)
(-0.867027 -0.0784068 8.67231e-14)
(-0.839724 0.0304633 5.48372e-14)
(-0.715788 0.0742795 5.85683e-15)
(-0.611347 0.0563198 1.04748e-13)
(-0.557813 0.0286343 -2.03494e-14)
(-0.619598 0.0405783 2.19564e-14)
(-0.550767 0.0352393 -5.38499e-14)
(-0.524043 0.0424191 -1.51399e-13)
(-0.480267 0.0463376 -1.15773e-15)
(-0.429513 0.0430462 1.38273e-13)
(-0.210127 0.0242029 -3.02342e-14)
(-0.0075302 0.00252718 -1.09998e-13)
(0.13904 -0.0225341 1.21979e-13)
(0.188416 -0.0409989 -4.47009e-14)
(0.223804 -0.0543211 -1.91495e-14)
(0.288876 -0.0587439 4.2647e-16)
(0.247727 -3.1751 2.1123e-14)
(0.409227 -2.77953 1.54669e-14)
(0.538211 -2.24976 -3.20734e-14)
(0.628357 -1.8806 7.93747e-14)
(0.660367 -1.48578 1.85811e-13)
(0.628234 -1.08015 -5.38646e-14)
(0.609503 -0.856816 -7.5726e-14)
(0.67122 -0.807703 1.31012e-13)
(0.774713 -0.772926 1.34157e-13)
(0.826893 -0.685605 3.06826e-14)
(0.835882 -0.584652 -4.85734e-14)
(0.813204 -0.487491 5.66658e-14)
(0.767017 -0.399948 4.64113e-14)
(0.709942 -0.324687 -2.28241e-15)
(0.648962 -0.26212 -9.21551e-14)
(0.585443 -0.210932 3.00181e-15)
(0.525419 -0.170649 3.4295e-15)
(0.470083 -0.13904 1.83719e-16)
(0.420489 -0.114114 1.46015e-14)
(0.376033 -0.0940569 -5.54534e-15)
(0.336997 -0.0774359 1.16177e-14)
(0.302268 -0.0631441 -2.50258e-14)
(0.270569 -0.05024 -1.40701e-14)
(0.240384 -0.0379934 1.39614e-14)
(0.211862 -0.0263557 1.85559e-14)
(0.185381 -0.0166803 9.45798e-16)
(0.160957 -0.0100014 -9.06409e-16)
(0.139282 -0.00539926 -2.54751e-15)
(0.120335 -0.00229352 4.50602e-16)
(0.103751 -0.000325548 -3.22866e-18)
(0.0889058 0.000522093 1.9972e-16)
(0.0774364 0.0029578 1.05912e-16)
(0.0678456 0.00410089 -2.28021e-15)
(0.0592444 0.00414694 -2.53273e-15)
(0.0524471 0.00813918 -5.55778e-16)
(0.0471177 0.00759705 -4.79949e-16)
(0.0429746 0.00511612 9.21921e-15)
(0.0390167 0.00392164 -1.11144e-14)
(0.0310807 0.00703254 6.4814e-15)
(-0.047941 -2.8138 1.82336e-15)
(-0.259723 -2.78399 8.63751e-16)
(-0.446022 -2.46903 3.47173e-15)
(-0.69735 -2.53336 -1.99578e-15)
(-0.865222 -2.44569 -1.19459e-15)
(-1.02247 -2.30075 1.16841e-14)
(-1.19197 -2.17922 6.62891e-15)
(-1.30081 -2.00944 3.64049e-14)
(-1.37722 -1.81499 6.04928e-14)
(-1.42839 -1.61976 -2.92607e-14)
(-1.43356 -1.41527 -7.75844e-15)
(-1.40916 -1.21429 7.08574e-14)
(-1.35948 -1.02713 -1.35812e-13)
(-1.28611 -0.856769 -2.71872e-13)
(-1.20006 -0.704705 1.65689e-13)
(-1.11226 -0.564534 2.55704e-13)
(-1.00987 -0.478121 -3.39352e-13)
(-0.931451 -0.440801 5.77208e-14)
(-0.859903 -0.418137 1.09037e-13)
(-0.804026 -0.398785 -1.07515e-13)
(-0.768959 -0.380651 8.13618e-14)
(-0.753085 -0.346505 -8.27197e-14)
(-0.74431 -0.267358 -1.66129e-13)
(-0.709035 -0.136851 -4.83385e-14)
(-0.617558 -0.0121627 -1.12568e-13)
(-0.492907 0.0441723 5.43026e-14)
(-0.39191 0.037198 -1.55989e-14)
(-0.350002 0.0182805 -1.0599e-14)
(-0.328491 0.0151068 2.06793e-14)
(-0.310438 0.0208666 4.08886e-14)
(-0.305479 0.0227914 3.20418e-14)
(-0.359937 0.0299729 -4.36529e-14)
(-0.334094 0.0292668 -1.14303e-13)
(-0.363845 0.0342504 -1.44895e-13)
(-0.302728 0.02546 2.92931e-14)
(-0.185833 0.0165696 7.77135e-14)
(0.0244832 -0.0160359 9.11197e-14)
(0.168699 -0.0451105 4.51649e-14)
(0.264388 -0.054141 3.20603e-14)
(0.138717 -2.66929 9.10193e-15)
(0.291514 -2.36655 -2.18929e-14)
(0.41976 -1.94562 1.09935e-14)
(0.5134 -1.65159 -1.01083e-14)
(0.557242 -1.33057 8.45767e-15)
(0.552407 -0.996411 -8.273e-14)
(0.5693 -0.856247 -2.84645e-14)
(0.668267 -0.838672 -2.72973e-14)
(0.752571 -0.784048 2.91004e-14)
(0.79713 -0.695044 1.33663e-13)
(0.807551 -0.598077 -2.91865e-14)
(0.790422 -0.504081 -5.91229e-14)
(0.751216 -0.416466 4.53485e-15)
(0.700975 -0.339174 -5.11945e-14)
(0.645799 -0.273521 1.56783e-14)
(0.587022 -0.218287 2.49435e-14)
(0.530176 -0.173543 3.87543e-14)
(0.476778 -0.137776 1.43531e-14)
(0.428021 -0.109363 -1.71523e-14)
(0.383687 -0.0866677 2.12891e-14)
(0.344137 -0.0683067 2.36753e-14)
(0.308521 -0.0530502 1.70742e-14)
(0.275678 -0.039913 3.39551e-15)
(0.244292 -0.0280772 -1.31842e-14)
(0.214761 -0.0172073 1.05707e-14)
(0.187754 -0.00813593 3.04888e-15)
(0.162996 -0.00172895 -9.74677e-15)
(0.140965 0.00271219 1.02002e-15)
(0.121681 0.005758 -5.12627e-19)
(0.104779 0.00767998 6.28965e-17)
(0.0898436 0.00910184 -1.10176e-16)
(0.077905 0.00835643 8.87346e-17)
(0.0683495 0.00762134 1.29074e-15)
(0.0597604 0.00687842 6.39589e-16)
(0.0528893 0.00476457 5.535e-16)
(0.0473048 0.00412031 -9.41962e-15)
(0.0426685 0.00468977 3.55976e-15)
(0.0380559 0.00434798 3.98452e-14)
(0.0331005 0.00553289 2.97735e-14)
(-0.042384 -2.40002 3.25071e-15)
(-0.212683 -2.38102 7.28675e-16)
(-0.363071 -2.13709 -2.00319e-15)
(-0.571602 -2.20552 2.64106e-15)
(-0.705392 -2.14068 -5.31767e-15)
(-0.840987 -2.03373 1.04079e-15)
(-0.98844 -1.95069 2.02804e-14)
(-1.08416 -1.81646 -9.64214e-15)
(-1.15313 -1.66105 -3.46401e-14)
(-1.20164 -1.50672 2.54167e-14)
(-1.21059 -1.34156 -5.7546e-14)
(-1.19546 -1.1773 -1.4116e-13)
(-1.15934 -1.02227 9.88334e-14)
(-1.10064 -0.877868 3.55583e-13)
(-1.03015 -0.747257 -1.55133e-14)
(-0.952201 -0.633053 -3.81254e-13)
(-0.86497 -0.541167 3.16086e-13)
(-0.826391 -0.443189 2.23429e-13)
(-0.791028 -0.379938 1.21489e-13)
(-0.761121 -0.332714 5.72987e-14)
(-0.745246 -0.297166 -2.86764e-14)
(-0.741693 -0.261888 1.58643e-13)
(-0.74031 -0.203864 1.10546e-13)
(-0.706128 -0.109613 -1.04389e-14)
(-0.612327 -0.0122074 2.0755e-13)
(-0.484784 0.0378173 -6.34532e-14)
(-0.375404 0.0349078 -7.35732e-15)
(-0.309669 0.0169037 5.49597e-15)
(-0.273987 0.0133426 -1.94314e-14)
(-0.242544 0.0186991 -2.00044e-14)
(-0.216746 0.0218161 -1.48908e-14)
(-0.194174 0.0199394 4.64746e-14)
(-0.181091 0.0146074 -2.23958e-14)
(-0.222414 0.0234358 -1.24242e-13)
(-0.269028 0.0236217 -1.94363e-14)
(-0.302865 0.0253688 -1.0399e-13)
(-0.232851 0.0184259 -6.35791e-14)
(-0.0255306 -0.0168151 6.77784e-15)
(0.189081 -0.0399904 -2.82435e-14)
(0.111074 -2.27916 -9.94531e-15)
(0.238609 -2.03821 1.23251e-14)
(0.348888 -1.69556 -2.56718e-14)
(0.435166 -1.45498 -4.17454e-15)
(0.481569 -1.18749 6.24163e-15)
(0.498697 -0.949727 1.40326e-14)
(0.546504 -0.845969 7.60481e-14)
(0.640933 -0.830028 -1.02176e-13)
(0.714326 -0.77148 -3.40916e-14)
(0.75542 -0.687142 -2.88759e-14)
(0.76908 -0.597461 1.15308e-13)
(0.757703 -0.509658 -4.4112e-14)
(0.725431 -0.426668 -6.97374e-15)
(0.682284 -0.352636 1.733e-14)
(0.633154 -0.288862 1.76556e-14)
(0.579297 -0.234152 1.26114e-14)
(0.526277 -0.189005 -7.3746e-14)
(0.475418 -0.152343 -2.74148e-14)
(0.428031 -0.122869 3.4403e-14)
(0.384283 -0.0991113 1.6492e-15)
(0.344762 -0.0798414 3.44782e-14)
(0.308703 -0.0637768 -9.42301e-15)
(0.275232 -0.0498782 1.2279e-15)
(0.243232 -0.0373544 2.25066e-14)
(0.21336 -0.0260504 -1.84261e-14)
(0.186322 -0.0166077 -6.27495e-15)
(0.161667 -0.0096146 5.60933e-15)
(0.139682 -0.00460144 1.76555e-15)
(0.12041 -0.00107217 -2.87841e-17)
(0.103558 0.00136791 -8.59725e-17)
(0.0886772 0.00257425 8.93239e-17)
(0.0765651 0.00365648 1.63222e-16)
(0.0672568 0.00415181 1.75641e-16)
(0.0590098 0.00433646 1.79571e-16)
(0.0519691 0.0044619 -1.9296e-15)
(0.046634 0.00441261 6.11265e-15)
(0.0426547 0.00434251 -2.08764e-15)
(0.037668 0.0040386 -5.20765e-16)
(0.0333249 0.00608282 -4.16687e-14)
(-0.0594753 -2.06132 1.54778e-15)
(-0.206901 -2.05636 1.9685e-15)
(-0.331726 -1.86116 -5.63617e-16)
(-0.512971 -1.92162 -2.42663e-15)
(-0.646078 -1.87163 -2.46029e-15)
(-0.747008 -1.78118 1.27948e-14)
(-0.872671 -1.71474 1.07268e-14)
(-0.964934 -1.60589 -4.64062e-14)
(-1.03467 -1.4768 2.01267e-14)
(-1.08744 -1.3453 1.01634e-13)
(-1.10293 -1.20097 4.36273e-14)
(-1.09727 -1.0559 2.20465e-14)
(-1.07313 -0.917002 -1.77488e-13)
(-1.02841 -0.78457 -4.06124e-13)
(-0.97173 -0.662848 -2.87676e-13)
(-0.904806 -0.554344 1.13689e-13)
(-0.834208 -0.455238 -6.99464e-14)
(-0.772935 -0.390364 -3.62062e-13)
(-0.739936 -0.349831 -1.9061e-13)
(-0.710302 -0.322948 1.55384e-13)
(-0.693341 -0.296387 1.5701e-13)
(-0.688042 -0.262281 -9.35937e-14)
(-0.687716 -0.206279 -3.67716e-14)
(-0.665863 -0.121777 8.18075e-16)
(-0.594607 -0.0342024 -5.9123e-14)
(-0.488761 0.016342 6.11731e-14)
(-0.391586 0.0219811 6.97306e-15)
(-0.327878 0.0112551 4.17277e-15)
(-0.287873 0.00978579 -4.34709e-15)
(-0.25037 0.0154884 5.0597e-14)
(-0.210952 0.017216 3.37914e-14)
(-0.177807 0.0156622 -3.16011e-15)
(-0.150741 0.0139042 1.10273e-13)
(-0.134477 0.0120728 7.62753e-14)
(-0.145756 0.0150278 -4.0514e-14)
(-0.179321 0.0101823 7.02834e-14)
(-0.268261 0.019658 5.96113e-14)
(-0.234397 0.00884951 -3.69961e-14)
(0.0297726 -0.0117815 -3.23933e-14)
(0.0745239 -1.95968 7.61374e-15)
(0.187857 -1.76461 -1.2202e-14)
(0.287821 -1.48377 2.34402e-15)
(0.369043 -1.2857 6.36478e-14)
(0.416427 -1.06321 4.19189e-15)
(0.450596 -0.899026 1.00137e-13)
(0.518346 -0.838316 1.35982e-13)
(0.608541 -0.798258 -4.77094e-14)
(0.668233 -0.742759 -7.23394e-14)
(0.705955 -0.666524 -5.39212e-14)
(0.723013 -0.585996 -9.90082e-14)
(0.717914 -0.506003 -4.16401e-15)
(0.692864 -0.428763 -4.15194e-14)
(0.657155 -0.358776 5.7783e-14)
(0.614579 -0.297217 1.90625e-14)
(0.566478 -0.243102 -3.0064e-14)
(0.518206 -0.197311 -4.16548e-15)
(0.470864 -0.159148 -2.44139e-14)
(0.425883 -0.127758 2.87387e-15)
(0.383608 -0.102047 -1.66552e-14)
(0.344818 -0.0810557 -3.18317e-14)
(0.308922 -0.0636221 1.39976e-14)
(0.275242 -0.0487619 -2.58993e-14)
(0.242893 -0.0357018 -9.42476e-15)
(0.212862 -0.0242333 5.64128e-15)
(0.185809 -0.0147096 3.48093e-15)
(0.161212 -0.00748889 1.31966e-15)
(0.13924 -0.00222124 -8.63732e-16)
(0.119931 0.0015428 -3.41605e-16)
(0.103045 0.00412726 -8.40519e-17)
(0.0881571 0.00584265 -2.00676e-16)
(0.075697 0.00632001 -9.0718e-17)
(0.06658 0.00648119 3.68745e-16)
(0.0585821 0.00611305 -1.10552e-16)
(0.0517387 0.00566132 1.73072e-15)
(0.046544 0.00504521 -3.27389e-15)
(0.0429578 0.00472113 -4.79668e-15)
(0.037782 0.00416658 2.9729e-15)
(0.0336807 0.00549287 -2.18942e-14)
(-0.0631155 -1.78321 2.57446e-15)
(-0.190071 -1.84364 4.5669e-15)
(-0.295459 -1.63567 -1.28505e-16)
(-0.450084 -1.68528 -1.83235e-15)
(-0.582566 -1.67583 -3.5596e-15)
(-0.672539 -1.57227 -4.48771e-15)
(-0.790249 -1.52148 -3.5107e-15)
(-0.843839 -1.43365 -4.62851e-14)
(-0.898959 -1.32798 -6.00934e-16)
(-0.952343 -1.22426 1.65402e-14)
(-0.973565 -1.10419 -2.14667e-14)
(-0.974236 -0.981283 1.32159e-13)
(-0.957848 -0.862582 1.39394e-13)
(-0.922573 -0.747498 2.7038e-14)
(-0.875935 -0.640612 2.62916e-13)
(-0.820163 -0.543542 -5.49992e-14)
(-0.757477 -0.459802 -3.27339e-16)
(-0.69886 -0.387321 2.06383e-13)
(-0.676627 -0.338692 9.72437e-14)
(-0.657961 -0.302629 -2.95605e-14)
(-0.647432 -0.268663 -1.18235e-13)
(-0.643345 -0.231859 -1.00027e-14)
(-0.639934 -0.181753 -9.08244e-14)
(-0.619207 -0.112282 -7.7844e-14)
(-0.560128 -0.0396093 4.71223e-14)
(-0.472035 0.00618014 -2.99152e-14)
(-0.388184 0.0157896 -5.457e-14)
(-0.330232 0.00929796 6.24076e-15)
(-0.292901 0.00835577 -3.01776e-15)
(-0.259441 0.0133459 -3.61315e-15)
(-0.224828 0.0154239 7.97889e-14)
(-0.192498 0.0141722 -2.87501e-14)
(-0.16231 0.0121775 -3.79834e-14)
(-0.134888 0.00974683 2.2206e-13)
(-0.111137 0.00663207 3.6676e-14)
(-0.103053 0.00348909 -8.17758e-14)
(-0.151518 0.00402606 -1.61825e-14)
(-0.275104 0.0093191 2.62773e-14)
(-0.128592 0.016718 -4.78157e-15)
(0.0527765 -1.69661 -1.36667e-14)
(0.152089 -1.53674 -3.25778e-14)
(0.241189 -1.30439 5.23131e-14)
(0.314373 -1.13908 1.0045e-13)
(0.3607 -0.95199 6.5148e-14)
(0.407632 -0.83989 -1.66455e-13)
(0.472936 -0.803555 -1.0915e-13)
(0.56583 -0.772257 -3.83518e-14)
(0.625243 -0.706107 6.55967e-14)
(0.655073 -0.636351 7.00424e-14)
(0.673407 -0.56554 2.48181e-14)
(0.673727 -0.494472 2.01162e-14)
(0.65583 -0.424321 -2.55567e-14)
(0.627564 -0.359702 -8.59708e-14)
(0.591441 -0.301711 1.25166e-14)
(0.549167 -0.249795 2.61213e-14)
(0.50582 -0.205009 1.78703e-14)
(0.462154 -0.166805 4.94105e-14)
(0.42001 -0.134779 -2.73263e-14)
(0.379702 -0.108163 -2.04828e-14)
(0.342069 -0.0862632 -1.42083e-14)
(0.30669 -0.0680654 -3.16985e-15)
(0.273143 -0.0526497 2.31045e-14)
(0.240801 -0.0392552 1.52063e-14)
(0.210887 -0.0276992 1.75337e-14)
(0.184047 -0.0181691 5.81435e-15)
(0.159696 -0.0108103 -5.56442e-17)
(0.137911 -0.00534647 1.89754e-15)
(0.118724 -0.00140642 -2.74636e-16)
(0.101941 0.00140134 1.90326e-16)
(0.0871733 0.00313642 -2.40925e-16)
(0.0744948 0.0040555 -3.22232e-17)
(0.0656203 0.00459485 -4.22724e-16)
(0.0579059 0.00458884 6.68817e-16)
(0.0513054 0.00453761 2.10829e-15)
(0.0463371 0.00429775 -5.31931e-16)
(0.0430565 0.00426383 7.92258e-16)
(0.037957 0.00390094 -7.53671e-15)
(0.0348741 0.00457116 7.8109e-15)
(-0.0660425 -1.55074 -3.15569e-15)
(-0.176847 -1.60346 1.02729e-16)
(-0.26785 -1.48326 -2.39127e-15)
(-0.400536 -1.47753 -1.48494e-15)
(-0.493551 -1.43604 6.39085e-15)
(-0.618923 -1.42696 -3.16468e-15)
(-0.721619 -1.36328 2.50976e-14)
(-0.777683 -1.27577 1.69839e-14)
(-0.832765 -1.18768 5.33686e-15)
(-0.850008 -1.10322 -1.51209e-15)
(-0.870684 -1.00238 7.59932e-15)
(-0.878433 -0.896111 -3.02617e-14)
(-0.869902 -0.791604 -1.28233e-13)
(-0.843188 -0.688746 3.44586e-14)
(-0.806237 -0.591941 1.76329e-14)
(-0.759979 -0.502826 4.98075e-14)
(-0.706964 -0.423262 -6.6165e-16)
(-0.652159 -0.352773 -8.97156e-14)
(-0.627007 -0.308535 -1.33923e-13)
(-0.611849 -0.278049 -1.1512e-13)
(-0.603067 -0.249359 -6.76304e-14)
(-0.599163 -0.215812 -5.45389e-14)
(-0.594471 -0.170341 1.89888e-14)
(-0.57527 -0.109753 6.49507e-14)
(-0.524782 -0.0462968 -3.48693e-14)
(-0.449728 -0.00327982 -1.3271e-14)
(-0.37595 0.00988319 4.29817e-14)
(-0.322097 0.00725327 2.03927e-15)
(-0.286291 0.0070798 2.37912e-14)
(-0.255663 0.0115347 -2.96802e-14)
(-0.225215 0.0138107 -9.80848e-14)
(-0.197391 0.0131586 -5.37969e-14)
(-0.172555 0.0118089 3.40069e-14)
(-0.149202 0.00979217 -1.48891e-14)
(-0.126033 0.00710195 2.01741e-14)
(-0.103102 0.0031646 3.03092e-14)
(-0.0864218 -0.00243753 5.5087e-15)
(-0.198166 -0.0021764 -1.66066e-14)
(-0.190265 0.0293351 4.70165e-14)
(0.0350644 -1.47607 -2.49164e-14)
(0.122885 -1.344 1.57352e-14)
(0.202812 -1.15072 4.44784e-14)
(0.269387 -1.01079 1.14373e-14)
(0.314237 -0.851549 1.08194e-13)
(0.365951 -0.776699 1.89356e-14)
(0.44718 -0.759263 -8.67983e-15)
(0.505316 -0.727119 -9.31441e-14)
(0.574293 -0.676739 -3.64723e-14)
(0.607751 -0.604507 5.86188e-14)
(0.624807 -0.539932 6.41625e-14)
(0.628167 -0.477196 1.05089e-13)
(0.615976 -0.414485 9.81643e-14)
(0.594565 -0.355816 -2.02818e-14)
(0.565033 -0.302116 -8.2617e-15)
(0.528481 -0.252992 1.60432e-14)
(0.490068 -0.209844 3.33675e-15)
(0.450355 -0.172169 1.01203e-14)
(0.411313 -0.13985 2.97439e-14)
(0.373386 -0.112442 -3.85403e-16)
(0.337409 -0.0895553 -1.22827e-14)
(0.303034 -0.0704027 -5.71546e-15)
(0.270052 -0.0542215 2.84207e-15)
(0.238043 -0.0403305 1.21941e-15)
(0.208515 -0.0285463 -3.5122e-15)
(0.182032 -0.0189049 -8.07308e-15)
(0.158012 -0.0113637 5.87265e-16)
(0.136478 -0.00567234 -1.20796e-15)
(0.117465 -0.00149691 3.85679e-16)
(0.100808 0.00151645 7.26853e-17)
(0.0861678 0.00350264 1.4305e-16)
(0.0734232 0.00459098 1.05897e-15)
(0.0646194 0.00507812 1.46015e-15)
(0.0571393 0.00498768 -9.50277e-16)
(0.0507741 0.00481755 -3.76775e-15)
(0.0460179 0.00443907 1.75625e-16)
(0.0430501 0.00427084 -2.07974e-14)
(0.0379664 0.00372737 1.74231e-15)
(0.0355259 0.00400248 1.54854e-14)
(-0.066004 -1.3541 -6.20578e-15)
(-0.162719 -1.40118 -2.83649e-15)
(-0.241894 -1.29799 9.07902e-16)
(-0.356652 -1.29903 1.0472e-15)
(-0.438272 -1.26561 3.06366e-15)
(-0.516925 -1.21266 4.13679e-15)
(-0.606056 -1.18272 -2.09898e-15)
(-0.732931 -1.17266 -2.2281e-14)
(-0.760254 -1.07413 -4.63025e-14)
(-0.807341 -0.998978 2.6307e-14)
(-0.788822 -0.913327 2.23295e-14)
(-0.792326 -0.822526 1.46214e-14)
(-0.787208 -0.731885 5.90554e-14)
(-0.766256 -0.641491 3.00178e-15)
(-0.735919 -0.555744 3.19797e-14)
(-0.697021 -0.475781 -4.81939e-14)
(-0.652 -0.402938 -5.24884e-14)
(-0.604057 -0.33921 6.11272e-14)
(-0.575304 -0.290976 1.22129e-13)
(-0.565414 -0.259063 6.26835e-14)
(-0.55952 -0.230895 4.47308e-14)
(-0.556879 -0.198206 3.2294e-14)
(-0.552332 -0.156714 6.08209e-14)
(-0.535383 -0.104395 -3.4742e-14)
(-0.492465 -0.0497723 -5.49356e-14)
(-0.428307 -0.0103815 3.4147e-15)
(-0.363119 0.00489628 -1.91598e-14)
(-0.312658 0.00539236 -6.53708e-15)
(-0.277332 0.00601644 -4.05929e-14)
(-0.247615 0.00999574 2.16419e-14)
(-0.21905 0.0122822 5.50298e-14)
(-0.19343 0.011971 1.22179e-13)
(-0.171558 0.0108763 1.18768e-14)
(-0.152703 0.00932138 -1.13093e-13)
(-0.135436 0.00707927 1.96943e-15)
(-0.121768 0.00399909 -2.01512e-14)
(-0.0903388 -0.00102712 2.0528e-14)
(-0.131172 -0.00938628 1.49623e-14)
(-0.176471 0.0277542 8.61578e-15)
(0.0222957 -1.28982 9.92408e-15)
(0.0997958 -1.17981 2.46721e-14)
(0.171722 -1.01746 -3.87082e-14)
(0.232893 -0.897308 -3.02652e-14)
(0.27677 -0.770578 -2.06229e-14)
(0.329979 -0.718354 1.23872e-14)
(0.417415 -0.716417 7.60973e-14)
(0.48078 -0.678837 -9.02873e-14)
(0.509098 -0.633641 -2.2697e-15)
(0.556643 -0.574242 2.22621e-14)
(0.577403 -0.513998 -1.04981e-13)
(0.583445 -0.45738 -1.5938e-13)
(0.575581 -0.401258 2.05557e-14)
(0.559877 -0.348419 2.43268e-14)
(0.536285 -0.299224 -1.68649e-14)
(0.50532 -0.253384 -1.59359e-14)
(0.471693 -0.212435 -3.64713e-14)
(0.435964 -0.176017 3.3095e-14)
(0.400159 -0.144146 2.84848e-14)
(0.36479 -0.116555 8.89147e-15)
(0.330751 -0.0931252 2.93694e-14)
(0.297755 -0.0733316 2.7238e-14)
(0.265615 -0.0565827 1.09905e-15)
(0.234298 -0.0423205 -3.98126e-14)
(0.205393 -0.030396 -8.46772e-15)
(0.179438 -0.0207311 -2.20108e-15)
(0.155858 -0.0131249 -6.86008e-15)
(0.134677 -0.00731353 1.22987e-17)
(0.115917 -0.00300939 -7.25987e-17)
(0.099455 0.000137416 1.74999e-16)
(0.0849973 0.00224739 -1.98307e-16)
(0.0723989 0.00342285 -2.7117e-18)
(0.0635296 0.00415194 2.47315e-16)
(0.0562655 0.00425541 -3.14178e-15)
(0.0501393 0.00423517 2.09645e-15)
(0.0455977 0.00401737 5.89838e-16)
(0.0429221 0.00396705 1.91734e-14)
(0.03783 0.00345949 6.31465e-15)
(0.0360552 0.0034629 -6.83383e-14)
(-0.0653751 -1.1866 2.69968e-15)
(-0.150227 -1.22777 1.14283e-15)
(-0.219345 -1.13924 5.1878e-15)
(-0.319745 -1.14501 3.88232e-15)