/*--------------------------------*- C++ -*----------------------------------*\
| =========                 |                                                 |
| \\      /  F ield         | OpenFOAM: The Open Source CFD Toolbox           |
|  \\    /   O peration     | Version:  2506                                  |
|   \\  /    A nd           | Website:  www.openfoam.com                      |
|    \\/     M anipulation  |                                                 |
\*---------------------------------------------------------------------------*/
FoamFile
{
    version     2.0;
    format      ascii;
    arch        "LSB;label=32;scalar=64";
    class       volScalarField;
    location    "150";
    object      p;
}
// * * * * * * * * * * * * * * * * * * * * * * * * * * * * * * * * * * * * * //

dimensions      [0 2 -2 0 0 0 0];

internalField   nonuniform List<scalar> 
10720
(
-23.7301
-92.2722
-172.971
-253.326
-328.583
-405.555
-474.632
-533.497
-585.201
-626.472
-658.865
-683.309
-700.752
-712.399
-718.381
-718.106
-712.323
-699.954
-682.227
-658.679
-631.737
-603.136
-576.476
-548.026
-510.094
-463.343
-415.392
-372.33
-334.56
-299.196
-264.324
-229.64
-195.147
-160.563
-125.513
-89.0437
-51.2087
-7.40431
29.4436
44.0797
105.688
170.148
229.535
279.467
315.64
334.24
338.699
333.07
316.683
293.917
269.544
245.395
222.334
201.043
181.177
162.693
145.12
128.181
111.352
94.5833
77.5535
60.3636
43.4418
28.7209
17.2495
7.91979
0.456311
-4.97791
-8.44696
-10.2002
-10.3756
-9.05404
-6.2421
-1.92649
4.26279
12.9141
27.3797
51.8447
67.5605
15.5142
-43.0414
-105.586
-170.214
-236.689
-301.608
-362.901
-419.821
-470.639
-514.925
-552.662
-583.93
-608.67
-626.774
-637.715
-642.143
-639.925
-631.913
-618.245
-600.707
-580.871
-560.796
-536.981
-502.973
-459.164
-412.972
-370.712
-333.263
-298.086
-263.355
-228.776
-194.379
-159.906
-124.982
-88.6303
-50.8945
-7.09618
29.1131
114.221
158.45
202.166
243.806
279.904
307.692
324.014
329.358
324.919
311.699
293.038
271.947
250.035
228.278
207.397
187.517
168.68
150.67
133.271
116.128
99.1336
82.0717
65.0287
48.4453
33.8414
22.1604
12.6699
4.92913
-1.0894
-5.27807
-7.65701
-8.32868
-7.39831
-4.89795
-0.823736
5.18528
13.701
28.0896
51.5836
79.0936
32.3882
-20.439
-78.9085
-139.897
-202.8
-266.011
-326.972
-384.13
-436.435
-482.624
-522.301
-555
-580.576
-599.359
-611.635
-617.563
-617.096
-610.689
-598.711
-582.403
-563.172
-542.626
-518.925
-487.407
-447.522
-404.882
-365.009
-329.03
-294.919
-261.056
-227.159
-193.255
-159.107
-124.392
-88.1886
-50.5706
-6.87209
29.1753
121.045
161.419
201.184
238.438
270.095
294.409
309.504
315.58
313.139
303.069
287.605
268.967
248.767
228.121
207.831
188.263
169.538
151.576
134.209
117.171
100.311
83.4802
66.7437
50.4958
35.9346
23.9793
14.2253
6.29801
0.189339
-4.01568
-6.39601
-7.11317
-6.28355
-3.91745
0.0218079
5.91284
14.337
28.5861
51.1748
96.7526
57.4936
12.5155
-37.1097
-89.4466
-144.467
-200.534
-255.927
-309.367
-359.691
-405.78
-446.916
-482.523
-512.344
-536.233
-554.39
-566.449
-572.209
-571.813
-565.595
-554.402
-539.343
-521.566
-500.057
-471.583
-435.535
-396.27
-358.64
-324.016
-290.91
-257.931
-224.795
-191.52
-157.886
-123.573
-87.6693
-50.2642
-6.79231
29.2622
131.8
165.226
198.471
230.186
257.487
278.992
293.218
299.906
299.204
291.858
279.46
263.718
245.992
227.315
208.457
189.864
171.745
154.144
136.981
120.088
103.349
86.6808
70.1542
54.1377
39.6172
27.4574
17.4672
9.3019
2.91715
-1.62642
-4.39655
-5.49444
-4.9957
-2.8938
0.850397
6.60368
14.9274
28.9979
50.7191
100.532
65.6033
25.3919
-19.2566
-66.4636
-116.657
-168.474
-220.368
-271.366
-320.316
-366.087
-407.874
-444.967
-476.825
-503.093
-523.575
-537.864
-545.931
-547.827
-543.949
-534.98
-521.889
-505.586
-485.456
-459.077
-425.782
-388.988
-352.985
-319.328
-286.965
-254.689
-222.205
-189.513
-156.392
-122.525
-87.0189
-49.9473
-6.83658
29.1592
131.776
161.415
190.992
219.238
243.598
263.115
276.672
283.814
284.532
279.45
269.704
256.59
241.2
224.443
207.051
189.504
172.093
154.958
138.109
121.469
104.963
88.5526
72.3188
56.5992
42.2044
29.9204
19.7227
11.3347
4.71611
-0.0650405
-3.04245
-4.306
-3.93664
-1.94511
1.70148
7.36423
15.5914
29.4444
50.2534
101.985
71.019
35.2011
-4.54177
-46.5546
-91.5373
-138.237
-185.418
-232.369
-278.049
-321.5
-361.961
-398.681
-431.03
-458.543
-480.853
-497.731
-508.986
-514.532
-514.533
-509.407
-499.834
-486.426
-468.773
-445.105
-414.855
-380.791
-346.728
-314.329
-282.9
-251.41
-219.588
-187.461
-154.84
-121.425
-86.3379
-49.6609
-7.03561
28.8324
129.7
155.906
182.259
207.613
229.609
247.549
260.535
267.977
269.786
266.507
258.981
248.213
235.067
220.305
204.581
188.355
171.947
155.555
139.257
123.048
106.904
90.8294
74.9217
59.4997
45.2512
32.89
22.5178
13.9376
7.11272
2.1069
-1.10097
-2.60042
-2.46651
-0.700981
2.74299
8.23103
16.2976
29.8726
49.7445
100.234
72.282
39.8664
3.87641
-34.0861
-74.9401
-117.57
-160.9
-204.457
-247.32
-288.664
-327.809
-364.003
-396.582
-425.006
-448.806
-467.581
-480.984
-488.797
-491.102
-488.244
-480.779
-469.195
-453.276
-431.784
-404.219
-372.713
-340.547
-309.404
-278.899
-248.187
-217.022
-185.441
-153.288
-120.305
-85.6573
-49.445
-7.41367
28.2528
125.279
148.894
172.774
195.857
215.966
232.648
245.122
252.723
255.37
253.514
247.816
239.066
227.945
215.072
201.007
186.161
170.851
155.308
139.663
123.97
108.257
92.5696
77.0239
61.9227
47.8595
35.4814
24.978
16.2305
9.21132
3.98311
0.54027
-1.18734
-1.26282
0.320066
3.61195
8.97129
16.9088
30.2011
49.1587
97.1398
71.7462
42.2431
9.51904
-24.8985
-62.0446
-100.895
-140.509
-180.583
-220.331
-259.044
-296.156
-330.975
-362.859
-391.235
-415.579
-435.4
-450.389
-460.295
-465.052
-464.82
-459.933
-450.687
-436.938
-417.824
-392.96
-364.018
-333.818
-304.031
-274.544
-244.696
-214.268
-183.305
-151.672
-119.146
-84.9493
-49.261
-7.92541
27.3935
119.925
141.372
163.185
184.382
202.929
218.56
230.553
238.21
241.483
240.743
236.528
229.485
220.153
209.029
196.58
183.151
169.035
154.472
139.618
124.57
109.399
94.1835
79.0592
64.3155
50.4817
38.1465
27.56
18.6778
11.4897
6.06019
2.40074
0.456277
0.170972
1.55585
4.66725
9.85855
17.6194
30.5582
48.572
93.1027
69.8387
42.7754
12.7914
-18.6387
-52.6148
-88.2069
-124.566
-161.522
-198.392
-234.587
-269.652
-302.964
-333.925
-361.977
-386.569
-407.182
-423.412
-434.931
-441.531
-443.253
-440.326
-432.956
-421.061
-404.054
-381.636
-355.098
-326.824
-298.419
-269.984
-241.028
-211.367
-181.053
-149.976
-117.942
-84.2171
-49.0714
-8.49889
26.2884
114.007
133.66
153.753
173.361
190.59
205.319
216.859
224.502
228.228
228.359
225.345
219.727
211.944
202.396
191.46
179.418
166.526
153.006
139.022
124.7
110.143
95.4592
80.7979
66.4423
52.8731
40.6309
30.0046
21.017
13.6802
8.06312
4.19251
2.03087
1.53339
2.72012
5.65331
10.679
18.2604
30.8283
47.9221
88.5942
67.1576
42.2028
14.5851
-14.2527
-45.448
-78.1411
-111.562
-145.634
-179.76
-213.451
-246.348
-277.902
-307.594
-334.89
-359.24
-380.121
-397.079
-409.774
-417.933
-421.458
-420.447
-414.985
-404.999
-390.088
-370.029
-345.83
-319.493
-292.524
-265.194
-237.171
-208.313
-178.68
-148.191
-116.68
-83.4634
-48.8682
-9.11873
25.0166
107.891
126.015
144.638
162.886
178.981
192.912
204.022
211.601
215.646
216.452
214.406
209.969
203.513
195.359
185.814
175.098
163.422
150.981
137.933
124.413
110.545
96.4578
82.3132
68.3874
55.1268
43.0331
32.4186
23.3635
15.9068
10.1245
6.05854
3.69017
2.98538
3.97162
6.71742
11.5595
18.9338
31.081
47.2421
83.8526
63.9932
40.8648
15.3093
-11.2836
-40.0516
-70.1831
-100.99
-132.454
-164.054
-195.392
-226.178
-255.94
-284.231
-310.57
-334.433
-355.3
-372.707
-386.252
-395.626
-400.599
-401.18
-397.382
-389.133
-376.158
-358.291
-336.311
-311.875
-286.367
-260.181
-233.126
-205.104
-176.187
-146.317
-115.364
-82.6922
-48.6642
-9.80265
23.6196
101.76
118.568
135.919
152.981
168.089
181.306
191.998
199.477
203.745
205.07
203.798
200.34
195.011
188.076
179.786
170.309
159.809
148.448
136.368
123.7
110.577
97.1395
83.5559
70.0958
57.1825
45.286
34.7305
25.6438
18.0938
12.166
7.91765
5.3487
4.43869
5.22355
7.77869
12.4297
19.5827
31.2827
46.5249
79.047
60.5718
39.0519
15.3067
-9.31383
-35.938
-63.8046
-92.2686
-121.356
-150.62
-179.745
-208.491
-236.446
-263.242
-288.452
-311.59
-332.16
-349.695
-363.766
-374.052
-380.229
-382.213
-379.948
-373.348
-362.209
-346.408
-326.542
-303.973
-279.949
-254.944
-228.893
-201.742
-173.574
-144.358
-113.995
-81.907
-48.478
-10.5599
22.1037
95.7415
111.399
127.633
143.645
157.887
170.454
180.742
188.091
192.502
194.231
193.581
190.926
186.548
180.67
173.499
165.159
155.775
145.472
134.368
122.584
110.25
97.509
84.5293
71.5742
59.0488
47.3983
36.9514
27.8733
20.2614
14.2129
9.80018
7.04238
5.93329
6.51653
8.87502
13.3214
20.2309
31.4488
45.7767
74.2874
57.0337
36.9382
14.8
-8.07627
-32.8002
-58.6456
-85.0093
-111.964
-139.088
-166.136
-192.956
-219.157
-244.433
-268.425
-290.695
-310.777
-328.215
-342.565
-353.496
-360.625
-363.782
-362.861
-357.758
-348.317
-334.437
-316.566
-295.813
-273.28
-249.487
-224.472
-198.225
-170.841
-142.313
-112.574
-81.1075
-48.3186
-11.3894
20.4777
89.9043
104.552
119.79
134.869
148.335
160.307
170.206
177.402
181.89
183.928
183.78
181.786
178.208
173.242
167.057
159.747
151.402
142.116
131.979
121.09
109.572
97.5609
85.2212
72.807
60.7074
49.3477
39.0563
30.0269
22.3844
16.2402
11.6814
8.74613
7.4438
7.82598
9.98383
14.2157
20.8642
31.5737
44.9996
69.641
53.4761
34.6571
13.9523
-7.36792
-30.3919
-54.4291
-78.9075
-103.925
-129.111
-154.232
-179.217
-203.74
-227.511
-250.237
-271.538
-290.976
-308.123
-322.533
-333.868
-341.726
-345.858
-346.115
-342.376
-334.503
-322.406
-306.415
-287.418
-266.373
-243.815
-219.863
-194.551
-167.984
-140.179
-111.099
-80.292
-48.1859
-12.2889
18.7518
84.2962
98.0407
112.389
126.627
139.391
150.812
160.338
167.368
171.886
174.15
174.408
172.959
170.052
165.865
160.545
154.16
146.772
138.447
129.247
119.249
108.559
97.3019
85.6319
73.7908
62.1527
51.1266
41.0365
32.097
24.4577
18.2453
13.5614
10.4629
8.97547
9.15853
11.1117
15.1175
21.4859
31.662
44.1982
65.152
49.9667
32.2941
12.8826
-7.04214
-28.5413
-50.9485
-73.7257
-96.9911
-120.4
-143.756
-167.017
-189.935
-212.254
-233.709
-253.976
-272.666
-289.377
-303.677
-315.216
-323.603
-328.518
-329.782
-327.257
-320.814
-310.36
-296.126
-278.815
-259.243
-237.935
-215.07
-190.721
-165.004
-137.955
-109.57
-79.4608
-48.0764
-13.2554
16.9331
78.9408
91.8733
105.417
118.892
131.014
141.923
151.091
157.942
162.459
164.883
165.461
164.465
162.122
158.601
154.035
148.473
141.956
134.526
126.221
117.095
107.232
96.7422
85.7638
74.5221
63.377
52.7233
42.8778
34.0686
26.4669
20.2148
15.4282
12.1818
10.5186
10.5055
12.2509
16.0207
22.0915
31.7139
43.3762
60.8445
46.5485
29.9169
11.6745
-6.99093
-27.1087
-48.0418
-69.2814
-90.9509
-112.737
-134.48
-156.137
-177.52
-198.445
-218.653
-237.859
-255.727
-271.89
-285.939
-297.514
-306.25
-311.778
-313.89
-312.434
-307.282
-298.333
-285.736
-270.034
-251.908
-231.857
-210.098
-186.736
-161.899
-135.641
-107.987
-78.6136
-47.9891
-14.2812
15.0279
73.8501
86.0469
98.8575
111.635
123.168
133.595
142.421
149.086
153.573
156.112
156.937
156.314
154.447
151.495
147.582
142.747
137.017
130.412
122.951
114.665
105.617
95.8957
85.6215
75.0007
64.3772
54.1308
44.5701
35.9309
28.4018
22.1396
17.2741
13.8974
12.0691
11.8641
13.3993
16.9235
22.6801
31.7322
42.5379
56.7366
43.2503
27.5652
10.3918
-7.13124
-25.9949
-45.5897
-65.4279
-85.6463
-105.952
-126.202
-146.387
-166.324
-185.901
-204.904
-223.051
-240.055
-255.593
-269.279
-280.755
-289.682
-295.668
-298.477
-297.946
-293.947
-286.367
-275.283
-261.106
-244.391
-225.593
-204.953
-182.601
-158.671
-133.237
-106.35
-77.7508
-47.9228
-15.3591
13.0446
69.0255
80.553
92.6896
104.826
115.814
125.79
134.284
140.761
145.195
147.814
148.829
148.507
147.045
144.579
141.23
137.037
132.011
126.161
119.486
112
103.743
94.7821
85.2164
75.2308
65.151
55.3426
46.1034
37.6721
30.2503
24.0083
19.0892
15.6008
13.6198
13.2285
14.5523
17.8223
23.2495
31.719
41.6875
52.8341
40.0889
25.2763
9.07685
-7.40092
-25.1203
-43.4928
-62.0564
-80.9455
-99.8932
-118.774
-137.593
-156.192
-174.483
-192.316
-209.423
-225.547
-240.403
-253.64
-264.91
-273.893
-280.199
-283.566
-283.824
-280.843
-274.498
-264.806
-252.064
-236.715
-219.159
-199.644
-178.318
-155.322
-130.743
-104.658
-76.8703
-47.8767
-16.4804
10.9952
64.4655
75.3781
86.8936
98.4376
108.919
118.467
126.645
132.929
137.295
139.963
141.128
141.048
139.925
137.876
135.016
131.384
126.986
121.82
115.872
109.139
101.64
93.4227
84.5618
75.2188
65.6999
56.355
47.47
39.2822
32.0018
25.8108
20.8639
17.2841
15.1639
14.5934
15.7054
18.7137
23.7981
31.6771
40.8303
49.1394
37.0773
23.0654
7.76671
-7.75489
-24.4249
-41.678
-59.0706
-76.7465
-94.4475
-112.066
-129.621
-146.98
-164.057
-180.757
-196.858
-212.103
-226.244
-238.97
-249.95
-258.877
-265.381
-269.18
-270.097
-268.002
-262.762
-254.343
-242.943
-228.906
-212.571
-194.183
-173.896
-151.855
-128.161
-102.912
-75.9721
-47.8487
-17.6373
8.89118
60.1632
70.5088
81.4496
92.4445
102.449
111.596
119.467
125.558
129.843
132.534
133.817
133.933
133.091
131.402
128.965
125.823
121.983
117.433
112.15
106.119
99.3403
91.8407
83.6727
74.9737
66.0278
57.1669
48.6641
40.7522
33.6461
27.5362
22.5883
18.9383
16.6938
15.9524
16.8536
19.5944
24.3247
31.6093
39.9708
45.65
34.2206
20.9509
6.48172
-8.1577
-23.8614
-40.0843
-56.405
-72.9626
-89.5178
-105.973
-122.359
-138.559
-154.506
-170.122
-185.244
-199.627
-213.041
-225.213
-235.837
-244.618
-251.215
-255.331
-256.787
-255.455
-251.194
-243.929
-233.777
-220.991
-205.85
-188.581
-169.341
-148.275
-125.492
-101.111
-75.0539
-47.8355
-18.821
6.74521
56.1109
65.9313
76.3381
86.8196
96.3777
105.141
112.719
118.618
122.812
125.507
126.881
127.157
126.548
125.166
123.096
120.383
117.035
113.037
108.36
102.977
96.8752
90.0622
82.569
74.5086
66.1406
57.7786
49.6816
42.0746
35.1734
29.1745
24.2523
20.5542
18.2013
17.2991
17.9915
20.4604
24.8275
31.5183
39.1139
42.3623
31.5207
18.9396
5.24197
-8.58277
-23.3944
-38.6672
-53.9977
-69.5276
-85.026
-100.408
-115.711
-130.835
-145.73
-160.319
-174.489
-188.035
-200.723
-212.312
-222.532
-231.094
-237.696
-242.028
-243.913
-243.228
-239.827
-233.602
-224.602
-213
-199.017
-182.854
-164.663
-144.586
-122.739
-99.256
-74.1145
-47.8331
-20.0222
4.57076
52.2995
61.6309
71.5391
81.5402
90.6768
99.0777
106.372
112.083
116.179
118.862
120.303
120.71
120.292
119.172
117.422
115.084
112.17
108.666
104.536
99.7476
94.2761
88.1138
81.2716
73.8374
66.0466
58.1932
50.5204
43.2436
36.5756
30.7161
25.8461
22.1225
19.6782
18.6265
19.1138
21.3084
25.3056
31.4075
38.2643
39.2702
28.9765
17.0381
4.05744
-9.01067
-22.9945
-37.3876
-51.8053
-66.3818
-80.9053
-95.2962
-109.597
-123.72
-137.629
-151.262
-164.517
-177.245
-189.219
-200.215
-209.993
-218.282
-224.813
-229.274
-231.489
-231.343
-228.689
-223.394
-215.45
-204.962
-192.096
-177.019
-159.873
-140.795
-119.905
-97.3479
-73.1514
-47.8366
-21.2303
2.38202
48.7187
57.5932
67.034
76.5828
85.3225
93.3784
100.4
105.923
109.918
112.578
114.066
114.583
114.323
113.421
111.953
109.944
107.411
104.345
100.709
96.462
91.5736
86.0222
79.8014
72.9759
65.7565
58.416
51.1809
44.2549
37.8453
32.152
27.36
23.6338
21.1159
19.9271
20.2144
22.134
25.7576
31.2793
37.4269
36.3675
26.5856
15.2475
2.93829
-9.42745
-22.6413
-36.2179
-49.7872
-63.4845
-77.1036
-90.5759
-103.948
-117.141
-130.129
-142.867
-155.255
-167.185
-178.466
-188.868
-198.181
-206.156
-212.553
-217.068
-219.527
-219.821
-217.808
-213.338
-206.356
-196.91
-185.111
-171.094
-154.985
-136.912
-116.994
-95.3875
-72.1627
-47.8407
-22.4363
0.192144
45.3568
53.8047
62.8062
71.9285
80.2921
88.0202
94.7787
100.118
104.006
106.634
108.154
108.76
108.636
107.918
106.691
104.972
102.775
100.097
96.9024
93.1481
88.7955
83.8135
78.1812
71.9424
65.2831
58.4542
51.6652
45.1061
38.9768
33.4743
28.7851
25.0788
22.5057
21.1933
21.2875
22.9338
26.183
31.1368
36.6059
33.6459
24.344
13.5699
1.88803
-9.8213
-22.3167
-35.1332
-47.9163
-60.7946
-73.577
-86.1984
-98.7073
-111.035
-123.163
-135.059
-146.635
-157.802
-168.402
-178.215
-187.052
-194.684
-200.896
-205.402
-208.029
-208.675
-207.207
-203.462
-197.352
-188.872
-178.087
-165.099
-150.012
-132.944
-114.011
-93.3758
-71.1459
-47.8388
-23.6287
-1.98405
42.2045
50.2509
58.8391
67.5585
75.566
82.9799
89.4853
94.6446
98.4263
101.014
102.554
103.23
103.223
102.66
101.638
100.175
98.2754
95.9401
93.1405
89.8307
85.9676
81.5129
76.4338
70.7554
64.6401
58.3165
51.9767
45.7968
39.9658
34.6757
30.1126
26.4484
23.8388
22.4171
22.3267
23.7035
26.5804
30.9823
35.8056
31.0975
22.2477
12.0026
0.910826
-10.1839
-22.0091
-34.1154
-46.1643
-58.2833
-70.2875
-82.1175
-93.825
-105.347
-116.675
-127.783
-138.594
-149.031
-158.972
-168.211
-176.567
-183.837
-189.826
-194.271
-197
-197.918
-196.906
-193.795
-188.467
-180.878
-171.052
-159.055
-144.971
-128.903
-110.963
-91.3148
-70.0979
-47.8247
-24.7972
-4.13266
39.2505
46.9195
55.117
63.4549
71.1232
78.2377
84.4992
89.4836
93.1575
95.6993
97.2488
97.9811
98.0737
97.646
96.7989
95.5587
93.9207
91.8897
89.4413
86.5312
83.1132
79.1434
74.5804
69.4337
63.8423
58.0138
52.1219
46.3281
40.8096
35.7511
31.335
27.734
25.1068
23.5908
23.3259
24.4394
26.9493
30.8185
35.0297
28.7144
20.2905
10.5448
0.00667966
-10.5113
-21.7073
-33.1499
-44.5148
-55.9242
-67.2038
-78.2994
-89.2604
-100.033
-110.614
-120.983
-131.079
-140.823
-150.125
-158.808
-166.688
-173.584
-179.32
-183.661
-186.436
-187.56
-186.923
-184.359
-179.728
-172.957
-164.03
-152.984
-139.878
-124.799
-107.855
-89.205
-69.0168
-47.7901
-25.9302
-6.23867
36.4852
43.7972
51.6253
59.6005
66.9469
73.7748
79.8015
84.6155
88.1821
90.6741
92.2249
93.0021
93.1789
92.8687
92.1706
91.1224
89.7179
87.9565
85.8201
83.2679
80.253
76.7267
72.6421
67.9953
62.9052
57.5572
52.1077
46.7027
41.5069
36.6955
32.4455
28.9276
26.3015
24.7066
24.2787
25.1374
27.2884
30.6471
34.2812
26.4892
18.4669
9.19223
-0.823031
-10.7989
-21.4049
-32.2252
-42.949
-53.6973
-64.3007
-74.711
-84.9781
-95.0533
-104.937
-114.616
-124.037
-133.131
-141.821
-149.962
-157.375
-163.893
-169.356
-173.559
-176.334
-177.603
-177.272
-175.176
-171.164
-165.136
-157.048
-146.908
-134.751
-120.647
-104.694
-87.0507
-67.8992
-47.7283
-27.0188
-8.2879
33.8976
40.8721
48.35
55.9817
63.0201
69.5749
75.3749
80.0231
83.4832
85.9227
87.4684
88.2807
88.5274
88.3215
87.7515
86.8683
85.6716
84.1492
82.2888
80.0563
77.4045
74.2827
70.639
66.46
61.8451
56.9597
51.9427
46.9254
42.0584
37.5063
33.4385
30.0221
27.4149
25.7571
25.1792
25.7938
27.5973
30.4698
33.563
24.4127
16.7709
7.94217
-1.57982
-11.0453
-21.0954
-31.3314
-41.4566
-51.5843
-61.5569
-71.3288
-80.9489
-90.373
-99.6068
-108.639
-117.428
-125.91
-134.017
-141.634
-148.593
-154.734
-159.911
-163.95
-166.685
-168.049
-167.961
-166.263
-162.796
-157.441
-150.132
-140.849
-129.606
-116.458
-101.489
-84.8526
-66.7431
-47.6323
-28.0511
-10.2676
31.4784
38.1331
45.2793
52.5832
59.3284
65.6214
71.2034
75.6903
79.0454
81.4303
82.9659
83.8054
84.1117
83.9945
83.5389
82.7992
81.7826
80.4714
78.8568
76.9093
74.5836
71.8289
68.5898
64.845
60.6776
56.2339
51.6364
47.0014
42.4656
38.1816
34.3098
31.0109
28.4397
26.7351
26.0213
26.4046
27.8745
30.2878
32.8767
22.4776
15.1967
6.78981
-2.26465
-11.2491
-20.7765
-30.4624
-40.0242
-49.5723
-58.9546
-68.1287
-77.1455
-85.9631
-94.5888
-103.019
-111.213
-119.125
-126.677
-133.785
-140.307
-146.076
-150.962
-154.815
-157.482
-158.899
-159
-157.635
-154.644
-149.897
-143.306
-134.83
-124.465
-112.246
-98.2492
-82.6151
-65.5459
-47.493
-29.0185
-12.1654
29.2182
35.5696
42.4002
49.3921
55.8568
61.8993
67.2714
71.602
74.8537
77.1829
78.7045
79.5645
79.9211
79.8821
79.5259
78.9094
78.0491
76.9279
75.5319
73.8371
71.8037
69.3804
66.5106
63.1668
59.418
55.3932
51.1993
46.9381
42.7322
38.7215
35.056
31.8891
29.3697
27.6341
26.7996
26.9663
28.1195
30.102
32.2238
20.6764
13.7378
5.73227
-2.88076
-11.4104
-20.4434
-29.6117
-38.6448
-47.6476
-56.477
-65.0935
-73.5457
-81.7968
-89.8559
-97.7208
-105.36
-112.73
-119.765
-126.39
-132.485
-137.891
-142.484
-146.139
-148.712
-150.148
-150.391
-149.305
-146.728
-142.523
-136.592
-128.873
-119.345
-108.027
-94.9819
-80.3414
-64.3054
-47.3046
-29.9104
-13.9693
27.1081
33.1712
39.7017
46.3958
52.5928
58.3947
63.5652
67.7439
70.8946
73.1672
74.6716
75.5469
75.9459
75.9737
75.7088
75.1974
74.4704
73.5202
72.3188
70.8482
69.075
66.9503
64.4164
61.4412
58.0816
54.4511
50.6424
46.7432
42.8624
39.127
35.6757
32.6523
30.1993
28.448
27.5087
27.4752
28.3308
29.9125
31.6043
19.0018
12.3882
4.76327
-3.42975
-11.5296
-20.0962
-28.7759
-37.3106
-45.8022
-54.1132
-62.2065
-70.1314
-77.8532
-85.382
-92.7203
-99.8383
-106.702
-113.249
-119.413
-125.096
-130.152
-134.456
-137.904
-140.364
-141.791
-142.137
-141.279
-139.06
-135.341
-130.011
-122.998
-114.264
-103.814
-91.6984
-78.0351
-63.0207
-47.0601
-30.7194
-15.6693
25.1397
30.9287
37.173
43.5831
49.5234
55.095
60.0707
64.1034
67.1552
69.3712
70.8556
71.7414
72.1765
72.2624
72.076
71.6608
71.0502
70.2455
69.2187
67.9482
66.4068
64.5499
62.3203
59.6823
56.6827
53.4209
49.9767
46.4254
42.8622
39.4008
36.1681
33.2979
30.9241
29.1719
28.1442
27.9285
28.5075
29.7193
31.0182
17.447
11.142
3.87908
-3.91575
-11.6082
-19.7331
-27.9516
-36.0177
-44.0276
-51.8517
-59.4558
-66.8863
-74.1129
-81.1466
-87.991
-94.6234
-101.01
-107.103
-112.828
-118.114
-122.833
-126.855
-130.091
-132.425
-133.82
-134.238
-133.565
-131.653
-128.364
-123.582
-117.224
-109.241
-99.6222
-88.4071
-75.7012
-61.6909
-46.7533
-31.4371
-17.2561
23.3049
28.8332
34.8043
40.9422
46.6375
51.9878
56.7764
60.6676
63.6228
65.7825
67.2452
68.1381
68.6035
68.7397
68.6214
68.2948
67.7837
67.1037
66.234
65.1419
63.8059
62.1883
60.2335
57.9029
55.2343
52.3152
49.2139
45.9939
42.7379
39.5464
36.5343
33.8243
31.5407
29.8015
28.7018
28.3228
28.6479
29.5216
30.4642
16.005
9.99384
3.07453
-4.34108
-11.6474
-19.3543
-27.1366
-34.7595
-42.3169
-49.6832
-56.8278
-63.7961
-70.5595
-77.1302
-83.514
-89.6896
-95.6312
-101.293
-106.61
-111.517
-115.91
-119.658
-122.682
-124.883
-126.228
-126.69
-126.166
-124.516
-121.608
-117.322
-111.57
-104.291
-95.4652
-85.119
-73.344
-60.3152
-46.3798
-32.0573
-18.7213
21.5959
26.8756
32.5859
38.4638
43.924
49.0622
53.6707
57.4247
60.2863
62.3901
63.8297
64.7261
65.2167
65.3972
65.3387
65.0881
64.6685
64.0984
63.3639
62.4298
61.2774
59.8734
58.1655
56.1141
53.7487
51.146
48.365
45.4584
42.497
39.5688
36.7765
34.2311
32.047
30.3335
29.1785
28.6557
28.751
29.3186
29.9408
14.6689
8.93781
2.34613
-4.70961
-11.649
-18.9595
-26.3291
-33.5346
-40.664
-47.6001
-54.3138
-60.8481
-67.1778
-73.3159
-79.2681
-85.0187
-90.5417
-95.8007
-100.733
-105.282
-109.359
-112.844
-115.66
-117.721
-119.004
-119.488
-119.082
-117.657
-115.083
-111.246
-106.05
-99.4306
-91.3562
-81.8431
-70.9699
-58.8947
-45.9345
-32.5736
-20.0583
20.0055
25.048
30.5091
36.138
41.373
46.3074
50.7423
54.3641
57.1345
59.1829
60.5983
61.4957
62.0073
62.226
62.2207
62.0378
61.699
61.2239
60.6061
59.8143
58.8256
57.6113
56.1244
54.3254
52.2367
49.925
47.441
44.8286
42.1474
39.4737
36.8977
34.5194
32.4421
30.7659
29.5714
28.9249
28.8152
29.1086
29.4451
13.433
7.96861
1.68859
-5.02391
-11.6151
-18.55
-25.5288
-32.3388
-39.0659
-45.5967
-51.9048
-58.0328
-63.9564
-69.689
-75.2388
-80.5898
-85.7232
-90.6025
-95.1782
-99.3858
-103.159
-106.395
-109.008
-110.927
-112.138
-112.627
-112.314
-111.079
-108.8
-105.365
-100.68
-94.6741
-87.3087
-78.5904
-68.5831
-57.4305
-45.4157
-32.9828
-21.2619
18.5262
23.3424
28.5652
33.9557
38.9746
43.7134
47.9812
51.4753
54.157
56.1507
57.5414
58.4372
58.9666
59.2186
59.2601
59.1358
58.8712
58.4774
57.96
57.2961
56.4528
55.4066
54.1169
52.5453
50.7079
48.6625
46.4525
44.1143
41.6976
39.2674
36.9026
34.6913
32.7262
31.0976
29.879
29.1289
28.8392
28.89
28.9745
12.2904
7.08078
1.09838
-5.28795
-11.5479
-18.1257
-24.7342
-31.1712
-37.5177
-43.6667
-49.5943
-55.3403
-60.8833
-66.2372
-71.4094
-76.3888
-81.1556
-85.6812
-89.9183
-93.8099
-97.2969
-100.29
-102.707
-104.485
-105.618
-106.1
-105.858
-104.784
-102.763
-99.6899
-95.4715
-90.0341
-83.3342
-75.3692
-66.1913
-55.9243
-44.8214
-33.2811
-22.3283
17.1517
21.7517
26.7464
31.9084
36.7203
41.2709
45.3777
48.7482
51.3441
53.2842
54.6493
55.542
56.0856
56.3663
56.4487
56.3765
56.1754
55.8565
55.4283
54.8735
54.1585
53.2621
52.1486
50.7812
49.171
47.3681
45.4095
43.3251
41.1561
38.9572
36.7962
34.7501
32.9008
31.3288
30.1001
29.2661
28.8215
28.6606
28.5253
11.236
6.26947
0.570444
-5.50447
-11.4496
-17.6888
-23.9461
-30.0294
-36.0171
-41.8063
-47.3751
-52.7631
-57.9492
-62.9479
-67.7684
-72.3987
-76.8248
-81.018
-84.9389
-88.5341
-91.7516
-94.5123
-96.74
-98.3816
-99.4341
-99.8977
-99.71
-98.7712
-96.9771
-94.2281
-90.4343
-85.5218
-79.4435
-72.1897
-63.799
-54.3795
-44.1509
-33.4673
-23.2552
15.8756
20.2687
25.0452
29.9882
34.6012
38.971
42.9227
46.1741
48.6863
50.5737
51.9129
52.8007
53.356
53.6616
53.7798
53.7536
53.6088
53.3561
53.0045
52.5439
51.9441
51.1813
50.2237
49.0388
47.6334
46.0503
44.3212
42.4704
40.5317
38.5507
36.5847
34.7002
32.9686
31.4606
30.235
29.336
28.7614
28.4184
28.0939
10.2639
5.52961
0.101457
-5.67712
-11.3227
-17.2396
-23.1641
-28.9131
-34.5607
-40.0109
-45.2429
-50.294
-55.1457
-59.8124
-64.3027
-68.6083
-72.7145
-76.5987
-80.2228
-83.5407
-86.5049
-89.0454
-91.0933
-92.6024
-93.5727
-94.0111
-93.8635
-93.0396
-91.4439
-88.9847
-85.5765
-81.1468
-75.6464
-69.0592
-61.414
-52.7994
-43.4053
-33.5405
-24.0415
14.6916
18.8872
23.4543
28.1872
32.6095
36.8054
40.6076
43.7438
46.175
48.0108
49.3235
50.205
50.7694
51.0964
51.2459
51.2603
51.1645
50.9722
50.6859
50.3056
49.8097
49.1651
48.3454
47.3228
46.1015
44.717
43.1962
41.5591
39.8331
38.0557
36.2748
34.5469
32.9332
31.4951
30.2841
29.3385
28.6576
28.1608
27.6761
9.36923
4.85656
-0.31323
-5.8086
-11.1693
-16.7801
-22.3886
-27.8204
-33.1477
-38.2779
-43.1922
-47.9271
-52.4652
-56.8208
-61.0035
-65.0042
-68.8134
-72.4078
-75.7561
-78.8144
-81.5392
-83.8727
-85.7517
-87.1334
-88.0219
-88.4302
-88.3117
-87.585
-86.1633
-83.9629
-80.9038
-76.9168
-71.9514
-65.9869
-59.0414
-51.1883
-42.5868
-33.5024
-24.6881
13.5939
17.6004
21.9672
26.4985
30.7376
34.7663
38.4243
41.4492
43.8018
45.5869
46.873
47.747
48.3181
48.6634
48.8401
48.8897
48.8372
48.6961
48.4701
48.1614
47.7531
47.2127
46.5157
45.6376
44.5808
43.3749
42.0424
40.5997
39.069
37.4805
35.8738
34.296
32.7991
31.4356
30.2493
29.2742
28.5098
27.8858
27.2681
8.54659
4.24588
-0.676853
-5.90261
-10.9919
-16.3113
-21.6198
-26.7519
-31.7754
-36.6037
-41.2193
-45.6569
-49.9009
-53.9655
-57.8595
-61.5773
-65.1078
-68.4336
-71.5232
-74.3416
-76.8415
-78.9778
-80.6998
-81.9613
-82.7698
-83.1448
-83.0468
-82.4024
-81.1334
-79.164
-76.4206
-72.8376
-68.3652
-62.9788
-56.6887
-49.5509
-41.6985
-33.3551
-25.1965
12.5773
16.403
20.5776
24.9154
28.9785
32.8463
36.3654
39.2825
41.5587
43.2941
44.5534
45.4186
45.9945
46.3552
46.5555
46.6361
46.6213
46.5257
46.3525
46.1048
45.7718
45.3245
44.7367
43.9863
43.0758
42.03
40.8671
39.6003
38.2476
36.8332
35.3893
33.9544
32.5719
31.286
30.1336
29.1441
28.3164
27.5909
26.8654
7.79156
3.69338
-0.993656
-5.96164
-10.7927
-15.8353
-20.8588
-25.7063
-30.4431
-34.9865
-39.3205
-43.4789
-47.4469
-51.2387
-54.8639
-58.316
-61.5882
-64.6622
-67.5122
-70.105
-72.3976
-74.3517
-75.924
-77.0711
-77.8035
-78.144
-78.0599
-77.4852
-76.3505
-74.5872
-72.1288
-68.9138
-64.8938
-60.0422
-54.3607
-47.8928
-40.7449
-33.1025
-25.5701
11.6366
15.2889
19.2796
23.4316
27.3255
31.0383
34.4233
37.2363
39.4384
41.125
42.3573
43.2127
43.7915
44.165
44.3856
44.4928
44.5113
44.4549
44.3297
44.1336
43.8642
43.5004
43.009
42.3713
41.5905
40.6875
39.6766
38.5683
37.377
36.1221
34.829
33.5291
32.2576
31.0511
29.9403
28.9495
28.0778
27.2745
26.4645
7.09929
3.19491
-1.26657
-5.98907
-10.5739
-15.353
-20.1058
-24.6842
-29.1494
-33.4238
-37.4929
-41.3886
-45.0979
-48.6344
-52.0076
-55.2133
-58.2432
-61.0841
-63.7103
-66.0936
-68.1942
-69.9787
-71.4098
-72.4499
-73.1107
-73.4169
-73.3416
-72.8263
-71.8096
-70.2306
-68.0288
-65.1479
-61.5417
-57.1817
-52.0644
-46.2195
-39.731
-32.7492
-25.8134
10.7668
14.2532
18.0672
22.0408
25.7721
29.3357
32.5914
35.3037
37.4336
39.0723
40.2775
41.1221
41.7023
42.086
42.3239
42.4543
42.5013
42.479
42.3941
42.2454
42.0325
41.7387
41.3318
40.7938
40.1282
39.3519
38.4767
37.5106
36.465
35.3551
34.2011
33.0275
31.8627
30.7362
29.673
28.6927
27.7944
26.9346
26.0613
6.46589
2.74666
-1.49945
-5.98726
-10.3375
-14.8662
-19.3622
-23.6849
-27.8935
-31.9139
-35.7331
-39.3822
-42.8487
-46.1462
-49.2846
-52.2592
-55.0652
-57.688
-60.1073
-62.2955
-64.2185
-65.8453
-67.145
-68.0857
-68.6793
-68.9517
-68.8817
-68.4176
-67.5051
-66.0904
-64.1196
-61.5414
-58.312
-54.4027
-49.8045
-44.5369
-38.6629
-32.3014
-25.9319
9.96314
13.2906
16.9352
20.7377
24.3125
27.7324
30.8633
33.4778
35.5376
37.1293
38.3074
39.1402
39.72
40.1119
40.3644
40.5145
40.5863
40.5935
40.544
40.4364
40.2714
40.0371
39.7052
39.2561
38.6913
38.0271
37.2727
36.4336
35.5187
34.5401
33.5133
32.4573
31.3941
30.3472
29.3362
28.3767
27.467
26.5699
25.6524
5.88698
2.34495
-1.69504
-5.95923
-10.086
-14.3761
-18.628
-22.7088
-26.6742
-30.4551
-34.0393
-37.4562
-40.6951
-43.7692
-46.6875
-49.4477
-52.0439
-54.4655
-56.6918
-58.7002
-60.4581
-61.9387
-63.1169
-63.9663
-64.4974
-64.7372
-64.6697
-64.2502
-63.4302
-62.1622
-60.3989
-58.094
-55.2066
-51.7085
-47.5867
-42.851
-37.547
-31.7656
-25.9317
9.22142
12.3966
15.8787
19.5164
22.9409
26.2223
29.2326
31.7527
33.7441
35.2896
36.4403
37.2606
37.8385
38.2366
38.5011
38.6682
38.7609
38.7939
38.7742
38.7039
38.5786
38.3942
38.1298
37.7584
37.282
36.7165
36.0691
35.343
34.545
33.6846
32.7735
31.8261
30.859
29.8903
28.9349
28.0044
27.0967
26.1792
25.2346
5.35897
1.98641
-1.85689
-5.90714
-9.82112
-13.8843
-17.9044
-21.7555
-25.4914
-29.046
-32.4084
-35.6074
-38.6329
-41.4976
-44.2114
-46.7707
-49.1731
-51.4065
-53.4552
-55.2962
-56.9042
-58.2479
-59.312
-60.0791
-60.5531
-60.762
-60.6957
-60.3151
-59.5771
-58.44
-56.8629
-54.8042
-52.2268
-49.1022
-45.4153
-41.168
-36.3905
-31.1494
-25.8203
8.53734
11.5666
14.8928
18.3723
21.652
24.8001
27.6938