/*--------------------------------*- C++ -*----------------------------------*\
| =========                 |                                                 |
| \\      /  F ield         | OpenFOAM: The Open Source CFD Toolbox           |
|  \\    /   O peration     | Version:  2506                                  |
|   \\  /    A nd           | Website:  www.openfoam.com                      |
|    \\/     M anipulation  |                                                 |
\*---------------------------------------------------------------------------*/
FoamFile
{
    version     2.0;
    format      ascii;
    arch        "LSB;label=32;scalar=64";
    class       surfaceScalarField;
    location    "150";
    object      phi;
}
// * * * * * * * * * * * * * * * * * * * * * * * * * * * * * * * * * * * * * //

dimensions      [0 3 -1 0 0 0 0];

oriented        oriented;

internalField   nonuniform List<scalar> 
21254
(
-0.220889
0.240619
-0.019728
0.262699
-0.0220812
0.281939
-0.019239
0.299237
-0.017299
0.315641
-0.0164041
0.328912
-0.0132708
0.339501
-0.0105893
0.348128
-0.00862621
0.353856
-0.0057279
0.357641
-0.00378387
0.359653
-0.00201181
0.359509
0.000144273
0.35721
0.00229898
0.352501
0.00470917
0.345071
0.00742973
0.334868
0.0102034
0.321271
0.0135973
0.303801
0.0174705
0.281589
0.0222122
0.254119
0.0274705
0.220782
0.0333377
0.183579
0.0372045
0.148035
0.0355434
0.123497
0.0245379
0.116059
0.00743712
0.122171
-0.00611295
0.133372
-0.0112006
0.14419
-0.0108185
0.152243
-0.00805246
0.156994
-0.00475001
0.158528
-0.00152444
0.156995
0.00152472
0.152764
0.00423051
0.146116
0.00664806
0.13682
0.00930073
0.12387
0.0129536
0.105246
0.0186273
0.0760977
0.029143
0.073563
0.00254314
-0.197872
-0.0230189
-0.173933
-0.0239366
-0.144727
-0.0292067
-0.112848
-0.0318771
-0.0793978
-0.0334502
-0.0450764
-0.0343218
-0.0115559
-0.0335219
0.0195243
-0.031081
0.0480295
-0.0285054
0.0730572
-0.0250277
0.0944497
-0.0213925
0.112525
-0.018075
0.127638
-0.0151134
0.140186
-0.0125472
0.150896
-0.0107101
0.160071
-0.00917556
0.168188
-0.00811663
0.175471
-0.00728252
0.182225
-0.00675428
0.188563
-0.00633792
0.19465
-0.00608668
0.200462
-0.00581303
0.205921
-0.00545846
0.210357
-0.0044364
0.213594
-0.003237
0.215966
-0.00237227
0.217537
-0.00157108
0.218548
-0.00101009
0.219129
-0.000581773
0.219247
-0.000116888
0.218674
0.000574047
0.21734
0.00133387
0.215248
0.00209203
0.212436
0.00281112
0.208815
0.0036169
0.204052
0.00476278
0.197161
0.00689293
0.183129
0.0140303
0.163687
0.0194401
-0.201626
0.223005
-0.0411068
0.244921
-0.0439971
0.267875
-0.0421928
0.289355
-0.0387796
0.310387
-0.0374357
0.330005
-0.0328886
0.347795
-0.0283787
0.364031
-0.0248622
0.37834
-0.0200369
0.390807
-0.0162502
0.401489
-0.0126936
0.410745
-0.00911147
0.419113
-0.00606897
0.426788
-0.00296555
0.433604
0.000614862
0.43917
0.00463751
0.443221
0.00954658
0.445542
0.01515
0.445072
0.0226818
0.441116
0.0314272
0.431836
0.0426172
0.416056
0.0529845
0.393009
0.058589
0.365165
0.0523795
0.337291
0.0353095
0.31153
0.0196466
0.287914
0.0124166
0.266669
0.0104287
0.248423
0.0101981
0.233649
0.0100289
0.2218
0.0103372
0.211664
0.0116566
0.201796
0.0141019
0.191099
0.0173467
0.178784
0.0216191
0.163493
0.0282491
0.143906
0.0382155
0.110657
0.0623936
0.0798688
0.033349
-0.179816
-0.0448292
-0.156462
-0.0472892
-0.129126
-0.0565423
-0.100243
-0.0607596
-0.06959
-0.0641038
-0.0375392
-0.0663734
-0.00548818
-0.0655729
0.0249303
-0.0614995
0.0523884
-0.0559634
0.0768553
-0.0494945
0.0981263
-0.0426635
0.11657
-0.0365188
0.132597
-0.0311405
0.146426
-0.0263761
0.158523
-0.0228063
0.169187
-0.0198395
0.178711
-0.0176404
0.187404
-0.0159753
0.195521
-0.014872
0.203171
-0.0139872
0.210513
-0.0134296
0.217618
-0.0129174
0.224411
-0.0122515
0.230424
-0.0104496
0.235378
-0.00819082
0.239459
-0.00645398
0.242559
-0.0046719
0.244584
-0.00303696
0.245496
-0.00149711
0.245425
-4.62362e-05
0.244606
0.00139126
0.24321
0.00272729
0.241252
0.00404646
0.238728
0.00533182
0.235561
0.00677949
0.231452
0.00886722
0.226433
0.0119131
0.215843
0.0246189
0.197486
0.0377985
-0.1959
0.217582
-0.0627913
0.239459
-0.0658728
0.263094
-0.0658297
0.284739
-0.0604237
0.305366
-0.0580629
0.325128
-0.0526496
0.342734
-0.045985
0.358571
-0.0406978
0.372192
-0.0336586
0.383844
-0.0279018
0.393539
-0.022388
0.401364
-0.0169364
0.407138
-0.0118433
0.411321
-0.00714818
0.413749
-0.00181246
0.415405
0.00298103
0.416326
0.00862617
0.417332
0.0141443
0.418715
0.0212996
0.421097
0.0290458
0.424775
0.0389399
0.428845
0.048916
0.430834
0.0566006
0.427819
0.0553945
0.419572
0.0435573
0.40782
0.0313984
0.393677
0.0265588
0.376876
0.0272295
0.356855
0.0302177
0.333833
0.03305
0.309287
0.0348854
0.285282
0.0356557
0.263258
0.0361242
0.243104
0.0375002
0.223509
0.0412163
0.202378
0.0493822
0.177883
0.062712
0.141378
0.0988937
0.0969974
0.0777307
-0.174095
-0.0666321
-0.150272
-0.0711125
-0.121811
-0.0850034
-0.0922466
-0.0903244
-0.0613846
-0.094966
-0.0293913
-0.0983665
0.00222068
-0.0971852
0.0316686
-0.0909471
0.0585262
-0.0828207
0.0828054
-0.0737737
0.104167
-0.0640253
0.12282
-0.0551717
0.139139
-0.047459
0.153393
-0.0406301
0.165897
-0.0353101
0.176998
-0.030941
0.186963
-0.0276044
0.196058
-0.0250703
0.204491
-0.0233052
0.212426
-0.0219225
0.220049
-0.0210529
0.227369
-0.0202382
0.234284
-0.0191667
0.240486
-0.0166521
0.245681
-0.0133862
0.249985
-0.0107582
0.253467
-0.00815342
0.256164
-0.00573299
0.25814
-0.00347204
0.259388
-0.0012934
0.259967
0.000814397
0.259833
0.00286144
0.258994
0.00488707
0.257373
0.00695204
0.254885
0.00926398
0.251177
0.0125777
0.245932
0.0171594
0.235451
0.0350982
0.217274
0.0559727
-0.188986
0.211608
-0.0854121
0.234339
-0.0886044
0.259352
-0.090843
0.282204
-0.0832754
0.304392
-0.080251
0.325699
-0.0739561
0.345291
-0.0655759
0.363009
-0.058416
0.379052
-0.0497017
0.393201
-0.0420506
0.405573
-0.0347599
0.416159
-0.0275218
0.425013
-0.0206972
0.4322
-0.0143348
0.438065
-0.00767729
0.442133
-0.00108672
0.444476
0.00628384
0.444811
0.0138101
0.443534
0.0225771
0.440851
0.0317286
0.437578
0.0422135
0.434765
0.0517299
0.432543
0.0588217
0.429743
0.0581927
0.424927
0.0483718
0.418383
0.0379409
0.411093
0.0338487
0.403519
0.0348058
0.395117
0.0386235
0.384599
0.0435727
0.370504
0.0489897
0.351709
0.0544494
0.328448
0.0593896
0.302364
0.0635861
0.275267
0.0683165
0.247091
0.0775626
0.216249
0.0935553
0.174922
0.140222
0.123597
0.129069
-0.16664
-0.0889786
-0.142713
-0.0950402
-0.113696
-0.11402
-0.083932
-0.120089
-0.0529202
-0.125978
-0.0207049
-0.130582
0.0108286
-0.128718
0.0399343
-0.120052
0.0664591
-0.109345
0.0904444
-0.0977588
0.111568
-0.0851486
0.130112
-0.073716
0.146508
-0.0638543
0.160998
-0.05512
0.173907
-0.0482191
0.185462
-0.0424956
0.195965
-0.038107
0.205592
-0.0346974
0.214576
-0.0322895
0.223055
-0.0304015
0.231138
-0.0291362
0.238889
-0.0279902
0.246245
-0.026523
0.252878
-0.0232843
0.258533
-0.019042
0.263276
-0.0155014
0.26716
-0.0120373
0.270234
-0.00880932
0.272533
-0.00577328
0.274127
-0.00288928
0.275045
-0.000106457
0.275308
0.00259558
0.274906
0.00528425
0.273821
0.00803326
0.271925
0.0111547
0.268841
0.0156564
0.263998
0.0220036
0.254066
0.0450279
0.235323
0.0747176
-0.18552
0.208987
-0.108879
0.232613
-0.11223
0.259031
-0.117261
0.282641
-0.106886
0.305813
-0.103422
0.328162
-0.0963055
0.348574
-0.0859879
0.367167
-0.077008
0.384215
-0.0667503
0.399078
-0.0569138
0.412132
-0.0478134
0.423304
-0.0386939
0.432858
-0.0302512
0.440476
-0.0219528
0.446328
-0.0135291
0.450411
-0.00516889
0.452977
0.00371782
0.454136
0.0126512
0.453743
0.0229704
0.452163
0.0333098
0.449387
0.04499
0.445684
0.0554337
0.441168
0.0633394
0.435467
0.0638937
0.428245
0.055595
0.419942
0.0462439
0.411464
0.0423264
0.403431
0.0428374
0.395997
0.0460562
0.389105
0.0504628
0.382254
0.0558388
0.374283
0.0624168
0.36323
0.0704404
0.346796
0.0800194
0.323681
0.0914339
0.294166
0.107078
0.258726
0.128997
0.21242
0.186523
0.156209
0.18528
-0.162121
-0.112378
-0.137461
-0.1197
-0.107182
-0.144301
-0.07655
-0.150721
-0.0447933
-0.157735
-0.0119218
-0.163454
0.0200655
-0.160705
0.0492814
-0.149268
0.0757179
-0.135782
0.0995607
-0.121602
0.120512
-0.1061
0.138946
-0.0921492
0.155361
-0.0802696
0.169972
-0.0697309
0.183099
-0.0613464
0.195011
-0.0544069
0.205886
-0.048982
0.215911
-0.0447226
0.225284
-0.0416626
0.234145
-0.0392617
0.242583
-0.0375746
0.250639
-0.0360465
0.258274
-0.0341583
0.265206
-0.0302175
0.27117
-0.0250063
0.276199
-0.0205308
0.280334
-0.0161722
0.283627
-0.0121012
0.286098
-0.00824312
0.287784
-0.00457453
0.288729
-0.00104914
0.289001
0.00232489
0.288608
0.00567955
0.287531
0.00910999
0.285745
0.0129375
0.282912
0.0184937
0.278492
0.0264247
0.269809
0.0537093
0.251674
0.0928482
-0.182733
0.207216
-0.133362
0.232145
-0.137158
0.25993
-0.145045
0.284723
-0.131678
0.308897
-0.127596
0.33258
-0.119988
0.353936
-0.107344
0.373773
-0.0968453
0.39179
-0.0847671
0.407866
-0.0729898
0.422231
-0.062179
0.434704
-0.0511661
0.4455
-0.041047
0.454611
-0.031064
0.461914
-0.0208312
0.467751
-0.0110056
0.471742
-0.000272503
0.473996
0.0103971
0.474656
0.0223115
0.47364
0.0343268
0.471122
0.047509
0.467364
0.0591924
0.462251
0.068452
0.455501
0.0706433
0.446974
0.064121
0.437168
0.0560482
0.42688
0.0526132
0.416638
0.0530811
0.40661
0.0560866
0.396909
0.0601686
0.387754
0.0650002
0.37926
0.0709129
0.371279
0.0784249
0.362669
0.088633
0.350611
0.103497
0.330802
0.126891
0.299643
0.160157
0.252521
0.233646
0.193085
0.244728
-0.158364
-0.136747
-0.132877
-0.145188
-0.101273
-0.175906
-0.0694853
-0.182509
-0.0367117
-0.190509
-0.0028871
-0.197278
0.0298692
-0.193461
0.0594917
-0.17889
0.0860798
-0.162369
0.109923
-0.145444
0.130783
-0.12696
0.149078
-0.110445
0.165412
-0.0966029
0.180046
-0.0843652
0.193288
-0.0745875
0.205398
-0.0665166
0.216542
-0.060126
0.226921
-0.0551017
0.236662
-0.051404
0.245898
-0.0484977
0.25472
-0.0463972
0.263149
-0.0444761
0.271128
-0.0421384
0.278471
-0.0375608
0.284842
-0.0313765
0.290229
-0.0259181
0.294728
-0.0206712
0.298333
-0.0157077
0.301088
-0.0110002
0.303027
-0.00651496
0.304192
-0.00221736
0.304613
0.00190054
0.304296
0.00599253
0.303265
0.0101373
0.301378
0.014818
0.298399
0.0214677
0.293645
0.0311791
0.285156
0.062197
0.267449
0.110557
-0.181168
0.206975
-0.15917
0.232953
-0.163135
0.262299
-0.174392
0.288354
-0.157732
0.313765
-0.153005
0.338509
-0.144732
0.361005
-0.12984
0.381668
-0.117508
0.400693
-0.103792
0.417664
-0.0899613
0.432814
-0.0773289
0.446275
-0.0646265
0.457918
-0.0526901
0.467813
-0.0409584
0.476027
-0.0290452
0.482401
-0.0173793
0.487086
-0.00495797
0.490056
0.0074282
0.491406
0.0209614
0.491183
0.0345503
0.489545
0.0491475
0.486581
0.0621575
0.482348
0.072686
0.476342
0.0766494
0.46841
0.0720545
0.458894
0.0655636
0.448522
0.062985
0.437786
0.0638167
0.426819
0.0670519
0.415563
0.0714225
0.404092
0.0764677
0.392588
0.0824138
0.381381
0.0896288
0.370821
0.0991913
0.360891
0.113428
0.349297
0.138485
0.329429
0.180027
0.290222
0.272846
0.232073
0.302877
-0.155587
-0.162327
-0.12899
-0.171787
-0.0959186
-0.208977
-0.0628038
-0.215624
-0.028796
-0.224516
0.00627826
-0.232352
0.0400314
-0.227214
0.0703635
-0.209222
0.0973462
-0.189352
0.121394
-0.169492
0.142254
-0.14782
0.160472
-0.128663
0.176727
-0.112857
0.19132
-0.0989583
0.204587
-0.0878545
0.216812
-0.0787413
0.228173
-0.0714871
0.238814
-0.0657419
0.24887
-0.0614602
0.258437
-0.0580649
0.267589
-0.0555487
0.276337
-0.0532249
0.284659
-0.0504605
0.292306
-0.0452077
0.299047
-0.0381189
0.304803
-0.0316736
0.309599
-0.0254679
0.31349
-0.0195982
0.316472
-0.0139809
0.318611
-0.00865231
0.319909
-0.00351351
0.320431
0.00138064
0.32019
0.00623538
0.319145
0.0111828
0.317251
0.0167095
0.314182
0.0245421
0.309226
0.0361372
0.300735
0.0706859
0.283564
0.127724
-0.180263
0.207406
-0.186311
0.234805
-0.190534
0.265826
-0.205411
0.293077
-0.184984
0.319765
-0.179693
0.345747
-0.170714
0.369248
-0.15334
0.391094
-0.139355
0.410919
-0.123617
0.428801
-0.107843
0.444974
-0.0935014
0.459281
-0.0789327
0.471797
-0.065206
0.482646
-0.0518073
0.491774
-0.0381723
0.499151
-0.0247556
0.50483
-0.010637
0.508777
0.00348264
0.510948
0.0187908
0.511422
0.0340779
0.510369
0.0502016
0.50782
0.0647067
0.503829
0.0766775
0.498216
0.0822626
0.490718
0.0795522
0.481599
0.0746821
0.471504
0.073078
0.460884
0.0744366
0.449836
0.0781009
0.438337
0.0829246
0.426259
0.0885512
0.413591
0.0950838
0.400303
0.102921
0.386631
0.112867
0.373065
0.126999
0.36033
0.151225
0.346779
0.193581
0.319664
0.299962
0.269004
0.353548
-0.153449
-0.189143
-0.125684
-0.199552
-0.0908936
-0.243768
-0.056247
-0.250269
-0.020793
-0.25997
0.0156706
-0.268815
0.0506697
-0.262213
0.0819061
-0.240458
0.109469
-0.216914
0.13386
-0.193883
0.15485
-0.16881
0.173048
-0.14686
0.189235
-0.129044
0.203759
-0.113482
0.216994
-0.101089
0.22929
-0.0910373
0.240763
-0.0829595
0.251598
-0.0765768
0.261894
-0.0717568
0.271749
-0.06792
0.281193
-0.0649937
0.290274
-0.0623062
0.298925
-0.0591122
0.306941
-0.0532241
0.314054
-0.0452317
0.320178
-0.0377972
0.32533
-0.0306198
0.329543
-0.0238116
0.332807
-0.0172456
0.335166
-0.0110132
0.336673
-0.00502229
0.337334
0.000716436
0.337185
0.00638026
0.336189
0.0121743
0.334242
0.0186507
0.331068
0.0277116
0.325918
0.0412867
0.3173
0.0793023
0.300653
0.144373
-0.180144
0.208657
-0.214824
0.237502
-0.219378
0.27022
-0.238129
0.298858
-0.21362
0.327004
-0.207839
0.354333
-0.198044
0.37904
-0.178047
0.401767
-0.162081
0.422684
-0.144534
0.441384
-0.126543
0.45825
-0.110367
0.473352
-0.0940349
0.486708
-0.078562
0.498338
-0.0634366
0.508251
-0.0480854
0.516486
-0.0329897
0.52293
-0.0170806
0.527568
-0.00115522
0.530443
0.0159156
0.53158
0.0329422
0.531125
0.0506566
0.52913
0.0667021
0.525593
0.0802151
0.520388
0.0874688
0.513334
0.0866063
0.504595
0.0834209
0.494716
0.0829571
0.484206
0.0849461
0.473222
0.0890835
0.461699
0.0944454
0.449574
0.100672
0.436747
0.107908
0.423042
0.116623
0.408259
0.127648
0.392334
0.142925
0.375593
0.167965
0.360382
0.208794
0.340601
0.319734
0.299335
0.394815
-0.151844
-0.217442
-0.122723
-0.228674
-0.0861469
-0.280343
-0.0499229
-0.286493
-0.0128106
-0.297081
0.0252542
-0.306879
0.0617451
-0.298703
0.0940584
-0.272771
0.122374
-0.245229
0.14727
-0.218779
0.168506
-0.190045
0.186778
-0.165133
0.202942
-0.145208
0.217403
-0.127943
0.23059
-0.114276
0.242861
-0.103309
0.254411
-0.0945094
0.265369
-0.087534
0.275847
-0.0822348
0.285938
-0.0780115
0.29568
-0.0747357
0.305037
-0.0716628
0.313996
-0.0680713
0.322361
-0.0615895
0.329859
-0.0527302
0.33633
-0.0442686
0.341831
-0.0361211
0.346336
-0.0283167
0.349891
-0.0207995
0.352493
-0.0136149
0.354177
-0.00670435
0.354983
-8.81389e-05
0.354909
0.00645716
0.353949
0.0131344
0.351999
0.0206001
0.34875
0.0309672
0.343423
0.0466149
0.334783
0.0879399
0.318741
0.160412
-0.180434
0.210557
-0.244946
0.24095
-0.249769
0.275557
-0.272733
0.305652
-0.243715
0.33509
-0.237276
0.363882
-0.226836
0.389754
-0.203919
0.413607
-0.185934
0.435497
-0.166425
0.455062
-0.146108
0.472768
-0.128073
0.488729
-0.109995
0.502779
-0.0926121
0.515116
-0.0757726
0.525879
-0.0588481
0.534813
-0.0419225
0.54203
-0.0242971
0.547419
-0.00654345
0.551087
0.0122486
0.55298
0.0310505
0.553064
0.0505737
0.551588
0.0681796
0.548465
0.0833396
0.54364
0.0922942
0.53694
0.0933066
0.528457
0.0919035
0.518757
0.0926564
0.508297
0.0954045
0.497201
0.100179
0.485551
0.106097
0.473267
0.112959
0.460269
0.120909
0.446427
0.130469
0.431478
0.142602
0.415052
0.159356
0.396374
0.186647
0.377149
0.228022
0.357959
0.338925
0.322062
0.43072
-0.150754
-0.247123
-0.120163
-0.259264
-0.0816231
-0.318884
-0.0435354
-0.324579
-0.00472322
-0.335893
0.035193
-0.346796
0.0732418
-0.336751
0.106815
-0.306343
0.136053
-0.274467
0.161618
-0.244344
0.183213
-0.21164
0.201629
-0.183548
0.21783
-0.161409
0.232244
-0.142356
0.245368
-0.127399
0.257609
-0.11555
0.269159
-0.10606
0.28018
-0.098555
0.290812
-0.0928663
0.30109
-0.0882903
0.311029
-0.0846749
0.320673
-0.0813076
0.329943
-0.0773411
0.33864
-0.0702873
0.346487
-0.0605779
0.353343
-0.0511245
0.359176
-0.0419531
0.364023
-0.0331642
0.36786
-0.0246369
0.370714
-0.0164685
0.372623
-0.00861439
0.373571
-0.00103888
0.373616
0.00640833
0.372712
0.0140344
0.370739
0.0225665
0.367395
0.0343072
0.361943
0.0520657
0.353293
0.0965882
0.337829
0.175878
-0.181303
0.213003
-0.276643
0.244979
-0.281744
0.281516
-0.309271
0.313285
-0.275483
0.344334
-0.268324
0.374599
-0.257101
0.401615
-0.230934
0.426683
-0.211001
0.449599
-0.189342
0.470094
-0.166602
0.488579
-0.146558
0.505167
-0.126582
0.520002
-0.107446
0.533166
-0.0889362
0.544509
-0.0701907
0.554202
-0.0516153
0.562122
-0.0322171
0.568278
-0.0126986
0.572572
0.00795455
0.575083
0.0285402
0.575806
0.0498513
0.574791
0.0691939
0.572114
0.0860174
0.567708
0.0967004
0.561421
0.0995944
0.553333
0.0999917
0.543832
0.102157
0.533373
0.105863
0.522223
0.111329
0.510336
0.117981
0.497761
0.12553
0.484453
0.134214
0.470295
0.144625
0.455083
0.157811
0.438486
0.175953
0.41959
0.205541
0.397949
0.249665
0.376457
0.360408
0.341406
0.465773
-0.149951
-0.278475
-0.117846
-0.291368
-0.0772252
-0.359504
-0.0371952
-0.364608
0.00358558
-0.376673
0.0453865
-0.388595
0.085219
-0.376584
0.120203
-0.341326
0.150527
-0.304791
0.176839
-0.270656
0.19893
-0.233731
0.21759
-0.202208
0.233896
-0.177715
0.248296
-0.156757
0.261365
-0.140468
0.273544
-0.127729
0.28507
-0.117586
0.296128
-0.109613
0.306817
-0.103556
0.317232
-0.0987053
0.327396
-0.094838
0.337276
-0.0911878
0.346808
-0.0868736
0.355839
-0.0793188
0.36404
-0.0687786
0.371249
-0.058334
0.377448
-0.0481528
0.382616
-0.0383318
0.386766
-0.0287866
0.389877
-0.0195796
0.391981
-0.0107176
0.39312
-0.00217565
0.393268
0.00626277
0.392424
0.014879
0.39044
0.0245502
0.387042
0.0377117
0.381454
0.0576552
0.372818
0.105222
0.358002
0.190691
-0.182471
0.215968
-0.310139
0.249703
-0.315478
0.288279
-0.347845
0.321654
-0.308858
0.354313
-0.300983
0.386159
-0.288945
0.414674
-0.259448
0.440879
-0.237207
0.464861
-0.21332
0.486249
-0.18799
0.505621
-0.16593
0.52306
-0.144021
0.538505
-0.122891
0.552283
-0.102713
0.564385
-0.082292
0.574752
-0.0619818
0.583317
-0.0407813
0.590089
-0.0194695
0.595037
0.00300751
0.598193
0.0253858
0.599517
0.0485284
0.599056
0.0696563
0.596832
0.0882425
0.592829
0.100705
0.586928
0.105496
0.579193
0.107727
0.569927
0.111423
0.559582
0.116207
0.548346
0.122564
0.536295
0.130031
0.523425
0.138402
0.509717
0.147924
0.495126
0.159219
0.479434
0.173507
0.462405
0.192987
0.443445
0.224504
0.421075
0.272039
0.397515
0.383969
0.362079
0.501215
-0.149475
-0.31147
-0.115642
-0.325201
-0.0728774
-0.402267
-0.0307475
-0.406738
0.0120852
-0.419504
0.055945
-0.432455
0.0977374
-0.418374
0.13424
-0.377829
0.16576
-0.33631
0.192995
-0.297892
0.215684
-0.256421
0.234685
-0.221208
0.251129
-0.194159
0.265569
-0.171196
0.278598
-0.153497
0.290723
-0.139853
0.302189
-0.129051
0.313231
-0.120654
0.323978
-0.114303
0.334482
-0.109209
0.344786
-0.105142
0.354863
-0.101265
0.364681
-0.0966926
0.374019
-0.088657
0.382562
-0.0773224
0.390127
-0.0658992
0.396667
-0.0546921
0.402182
-0.0438465
0.406614
-0.0332191
0.410008
-0.0229732
0.412347
-0.0130563
0.413652
-0.00348224
0.413943
0.00596904
0.413149
0.0156687
0.41118
0.026514
0.407716
0.0411719
0.402019
0.0633506
0.393458
0.113781
0.379298
0.204853
-0.184108
0.219323
-0.345352
0.254919
-0.351073
0.295653
-0.38858
0.33088
-0.344084
0.36529
-0.335393
0.398775
-0.32243
0.428707
-0.28938
0.456242
-0.26474
0.481287
-0.238366
0.503659
-0.21036
0.52386
-0.18613
0.542029
-0.16219
0.558281
-0.139142
0.572754
-0.117186
0.585463
-0.0950005
0.596415
-0.0729329
0.605635
-0.0500007
0.613074
-0.0269084
0.618647
-0.00256517
0.622325
0.0217081
0.624203
0.0466506
0.624221
0.0696384
0.622445
0.0900186
0.618902
0.104248
0.613485
0.110913
0.606116
0.115095
0.597136
0.120403
0.586894
0.126449
0.575633
0.133825
0.563445
0.142217
0.550331
0.151512
0.536264
0.161988
0.521186
0.174294
0.504938
0.189752
0.487284
0.21064
0.467864
0.243921
0.445315
0.29459
0.420733
0.408542
0.385331
0.536619
-0.149198
-0.34638
-0.113693
-0.360705
-0.0685605
-0.4474
-0.0242318
-0.451065
0.0208521
-0.464588
0.0669887
-0.47859
0.110762
-0.462147
0.148981
-0.416046
0.181819
-0.369148
0.210082
-0.326155
0.233466
-0.279805
0.25289
-0.240633
0.269582
-0.210851
0.284111
-0.185725
0.297127
-0.166513
0.309198
-0.151924
0.320604
-0.140457
0.331604
-0.131654
0.342341
-0.125041
0.352909
-0.119776
0.363319
-0.115553
0.373581
-0.111527
0.383621
-0.106733
0.393261
-0.0982968
0.402126
-0.0861875
0.410034
-0.0738079
0.41692
-0.0615781
0.422744
-0.0496711
0.427501
-0.0379763
0.431172
-0.026644
0.433755
-0.0156387
0.435264
-0.00499059
0.435683
0.00555201
0.434978
0.016375
0.433011
0.0284807
0.429523
0.0446677
0.423747
0.0691287
0.415225
0.122301
0.401765
0.218311
-0.185975
0.223136
-0.382513
0.260697
-0.388633
0.303731
-0.431612
0.340847
-0.3812
0.377041
-0.371587
0.412284
-0.357672
0.443761
-0.320856
0.47261
-0.293589
0.498884
-0.264639
0.522252
-0.233727
0.543416
-0.207294
0.562362
-0.181135
0.57932
-0.156099
0.594463
-0.132329
0.607711
-0.108247
0.619331
-0.0845526
0.629156
-0.0598251
0.637166
-0.0349175
0.643356
-0.00875347
0.647648
0.0174164
0.650037
0.0442634
0.65057
0.0691062
0.649262
0.0913286
0.646141
0.107371
0.641127
0.115928
0.634141
0.122082
0.625471
0.129073
0.6154
0.136518
0.604151
0.145073
0.591845
0.154522
0.578491
0.164866
0.5641
0.17638
0.548567
0.189828
0.531801
0.206521
0.513502
0.228944
0.493377
0.26405
0.470404
0.317566
0.44544
0.433507
0.410691
0.571372
-0.149275
-0.383079
-0.111732
-0.398248
-0.0642099
-0.494921
-0.0175031
-0.497772
0.0299078
-0.511997
0.0783894
-0.527072
0.124435
-0.508191
0.164454
-0.456065
0.198775
-0.403469
0.228164
-0.355544
0.25235
-0.30399
0.272269
-0.260551
0.289264
-0.227846
0.303922
-0.200383
0.316955
-0.179546
0.328999
-0.163967
0.34035
-0.151808
0.351273
-0.142577
0.361985
-0.135752
0.372578
-0.130369
0.383068
-0.126043
0.39346
-0.121919
0.403718
-0.116992
0.413621
-0.1082
0.422789
-0.0953565
0.431024
-0.0820433
0.438246
-0.0688001
0.444414
-0.0558388
0.449484
-0.0430468
0.453439
-0.0305985
0.456265
-0.0184637
0.457965
-0.006691
0.45854
0.00497492
0.457924
0.0169882
0.455986
0.0304127
0.452467
0.0481845
0.446644
0.0749495
0.438251
0.130692
0.425464
0.231099
-0.188138
0.227405
-0.421779
0.266992
-0.428219
0.312439
-0.47706
0.351513
-0.420273
0.38964
-0.409712
0.426833
-0.394865
0.459839
-0.353862
0.490132
-0.32388
0.51776
-0.292267
0.542229
-0.258196
0.56428
-0.229343
0.584078
-0.200934
0.601667
-0.173688
0.61748
-0.148141
0.631469
-0.122236
0.643645
-0.0967283
0.654056
-0.0702348
0.662612
-0.0434742
0.669259
-0.0154001
0.674073
0.012603
0.677006
0.0413306
0.677973
0.0681391
0.677122
0.0921792
0.674447
0.110046
0.669882
0.120493
0.663346
0.128618
0.654955
0.137464
0.645072
0.146401
0.633905
0.15624
0.621516
0.16691
0.607971
0.178409
0.593254
0.191095
0.577343
0.205736
0.560057
0.223804
0.541131
0.247869
0.520275
0.284903
0.49669
0.341153
0.471358
0.45883
0.437573
0.605159
-0.149434
-0.421783
-0.110002
-0.437679
-0.0598185
-0.545104
-0.0106199
-0.546969
0.0392888
-0.561907
0.0903471
-0.578129
0.138697
-0.556542
0.180708
-0.498075
0.216567
-0.439329
0.247231
-0.386208
0.272295
-0.329054
0.292834
-0.281089
0.310201
-0.245214
0.325057
-0.215238
0.338162
-0.192651
0.350177
-0.175981
0.36146
-0.163092
0.372335
-0.153451
0.382993
-0.14641
0.393565
-0.140941
0.404098
-0.136576
0.414613
-0.132434
0.42505
-0.127429
0.43519
-0.11834
0.444662
-0.104829
0.453206
-0.0905874
0.460752
-0.0763467
0.467232
-0.0623193
0.472616
-0.048431
0.476846
-0.0348293
0.479934
-0.021551
0.481862
-0.00861838
0.48258
0.00425849
0.48208
0.0174889
0.480189
0.0323029
0.476657
0.0517245
0.470815
0.0807936
0.462522
0.138984
0.450452
0.243166
-0.190652
0.23208
-0.463207
0.273799
-0.469938
0.321763
-0.525022
0.362906
-0.461417
0.403148
-0.449955
0.442297
-0.434013
0.477009
-0.388573
0.508858
-0.35573
0.537784
-0.321191
0.56335
-0.283761
0.586398
-0.252392
0.607073
-0.221606
0.625525
-0.19214
0.641962
-0.164578
0.65653
-0.136804
0.669278
-0.109476
0.680222
-0.0811783
0.689311
-0.0525632
0.696571
-0.0226591
0.701857
0.00731811
0.70522
0.0379687
0.70669
0.0666702
0.706249
0.092622
0.703999
0.112298
0.699849
0.124645
0.693719
0.134749
0.685697
0.145486
0.676033
0.156065
0.664933
0.167339
0.652497
0.179345
0.638795
0.192111
0.623813
0.206078
0.607489
0.22206
0.589711
0.241583
0.570223
0.267361
0.548716
0.306412
0.524397
0.365475
0.498596
0.484632
0.465732
0.638025
-0.149782
-0.462652
-0.108203
-0.479258
-0.0553096
-0.597997
-0.00347645
-0.598803
0.0490865
-0.614468
0.102841
-0.631884
0.1537
-0.6074
0.197796
-0.542171
0.235367
-0.476899
0.267369
-0.41821
0.293439
-0.355124
0.314639
-0.302289
0.332443
-0.263018
0.347552
-0.230347
0.360762
-0.205861
0.372795
-0.188013
0.384028
-0.174325
0.394827
-0.16425
0.405422
-0.157005
0.415966
-0.151485
0.426508
-0.147118
0.437089
-0.143015
0.447683
-0.138024
0.458069
-0.128727
0.467796
-0.114557
0.476628
-0.0994189
0.484482
-0.0842021
0.491278
-0.0691156
0.496972
-0.054125
0.501506
-0.0393626
0.504852
-0.0248966
0.506979
-0.010745
0.507891
0.00334584
0.507495
0.0178822
0.505668
0.0341258
0.502145
0.0552449
0.4963
0.0866364
0.488169
0.147113
0.476837
0.2545
-0.19337
0.237022
-0.506859
0.281072
-0.513987
0.331716
-0.575667
0.375094
-0.504795
0.417498
-0.492357
0.458683
-0.475199
0.49525
-0.42514
0.52871
-0.389188
0.559019
-0.3515
0.585816
-0.310559
0.609995
-0.276569
0.631526
-0.243138
0.650746
-0.211358
0.667901
-0.181732
0.68306
-0.151963
0.696398
-0.122813
0.707867
-0.0926469
0.717497
-0.0621928
0.725191
-0.0303537
0.730987
0.00152221
0.734794
0.0341625
0.736656
0.064808
0.736662
0.0926153
0.73482
0.11414
0.731121
0.128343
0.725385
0.140485
0.717706
0.153165
0.708286
0.165485
0.697288
0.178337
0.684858
0.191774
0.671018
0.20595
0.655787
0.221306
0.639109
0.238735
0.620863
0.259826
0.600837
0.287385
0.578677
0.328569
0.553705
0.390448
0.527361
0.510968
0.495239
0.670149
-0.150275
-0.505747
-0.10648
-0.523052
-0.0507121
-0.653765
0.00395861
-0.653473
0.0593025
-0.669813
0.115876
-0.688457
0.169449
-0.660973
0.215744
-0.588465
0.25516
-0.516315
0.288613
-0.451663
0.315743
-0.382254
0.3377
-0.324246
0.356031
-0.281349
0.371444
-0.24576
0.384802
-0.219218
0.396891
-0.200103
0.4081
-0.185534
0.418836
-0.174986
0.429358
-0.167527
0.439841
-0.161967
0.450384
-0.157661
0.461014
-0.153645
0.471735
-0.148745
0.482304
-0.139296
0.492271
-0.124524
0.501391
-0.108538
0.509536
-0.092348
0.516648
-0.0762285
0.522633
-0.0601103
0.527457
-0.0441867
0.531065
-0.0285044
0.533439
-0.0131185
0.534518
0.0022676
0.534243
0.0181577
0.532499
0.0358691
0.528998
0.0587534
0.52321
0.0924267
0.515235
0.155087
0.504607
0.265126
-0.1964
0.242456
-0.552915
0.288946
-0.560476
0.342283
-0.629004
0.388123
-0.550635
0.4327
-0.536935
0.476153
-0.518652
0.514571
-0.463557
0.549747
-0.424365
0.581596
-0.383348
0.609701
-0.338663
0.634867
-0.301735
0.657431
-0.265701
0.677411
-0.231338
0.695285
-0.199606
0.711168
-0.167845
0.725033
-0.136679
0.737061
-0.104675
0.74717
-0.0723005
0.755382
-0.0385653
0.761585
-0.00468029
0.765806
0.0299433
0.768119
0.0624961
0.768467
0.0922683
0.767025
0.115584
0.76371
0.131659
0.758372
0.145825
0.751061
0.160478
0.741907
0.17464
0.731092
0.189154
0.718669
0.204197
0.704726
0.219894
0.689265
0.236766
0.67225
0.25575
0.653579
0.278497
0.632983
0.307983
0.610264
0.35129
0.584674
0.416042
0.557739
0.537904
0.526273
0.701618
-0.15096
-0.551187
-0.104782
-0.569231
-0.0459268
-0.712619
0.0116572
-0.711057
0.0699978
-0.728152
0.129592
-0.748052
0.185919
-0.717299
0.234647
-0.637194
0.275982
-0.55765
0.311036
-0.486717
0.339339
-0.410557
0.362133
-0.34704
0.381039
-0.300256
0.396812
-0.261533
0.410375
-0.232781
0.422525
-0.212253
0.433748
-0.196756
0.444417
-0.185655
0.454866
-0.177976
0.465285
-0.172386
0.475797
-0.168173
0.486456
-0.164303
0.497285
-0.159575
0.508032
-0.150043
0.518225
-0.134718
0.527583
-0.117898
0.535998
-0.100764
0.543386
-0.0836172
0.549678
-0.0664028
0.554777
-0.0492856
0.558662
-0.0323896
0.561252
-0.015708
0.562537
0.00098295
0.562423
0.0182705
0.560742
0.0375462
0.557327
0.0621674
0.551587
0.0981639
0.543845
0.162827
0.533929
0.275042
-0.199656
0.248243
-0.601501
0.297208
-0.609441
0.353608
-0.685405
0.401766
-0.598793
0.448861
-0.584029
0.494583
-0.564375
0.535105
-0.50408
0.572015
-0.461273
0.605447
-0.41678
0.634885
-0.368102
0.661325
-0.328174
0.684818
-0.289194
0.705738
-0.252258
0.724364
-0.218232
0.740862
-0.184343
0.755334
-0.15115
0.767865
-0.117205
0.778434
-0.0828695
0.787047
-0.047178
0.79369
-0.0113237
0.798349
0.0252845
0.80097
0.0598754
0.801698
0.0915405
0.800649
0.116633
0.797721
0.134587
0.792813
0.150733
0.785857
0.167433
0.776968
0.183529
0.766297
0.199825
0.75395
0.216543
0.739941
0.233902
0.724288
0.252417
0.706969
0.273067
0.687878
0.297584
0.666799
0.329061
0.643507
0.374579
0.617362
0.442188
0.589896
0.565362
0.558993
0.732521
-0.151745
-0.599099
-0.10306
-0.617915
-0.0409856
-0.774694
0.0196746
-0.771717
0.0811606
-0.789639
0.143951
-0.810842
0.203291
-0.776639
0.254506
-0.688409
0.297924
-0.601067
0.334645
-0.523438
0.364223
-0.440134
0.387936
-0.370753
0.407486
-0.319805
0.423691
-0.277739
0.437498
-0.246588
0.449774
-0.224528
0.461008
-0.20799
0.471647
-0.196294
0.482025
-0.188354
0.492398
-0.182759
0.502852
-0.178627
0.51353
-0.174982
0.524431
-0.170476
0.53533
-0.160942
0.545723
-0.14511
0.555294
-0.127469
0.563979
-0.10945
0.571638
-0.0912763
0.578188
-0.0729526
0.583592
-0.0546904
0.587729
-0.0365267
0.590567
-0.0185452
0.592028
-0.000477183
0.592066
0.0182318
0.590522
0.0390892
0.587168
0.0655281
0.581555
0.10378
0.574022
0.170359
0.564828
0.284235
-0.203195
0.254403
-0.652709
0.306042
-0.66108
0.365497
-0.744858
0.416374
-0.64967
0.465915
-0.633571
0.514165
-0.612624
0.556709
-0.546623
0.595569
-0.500135
0.630697
-0.451907
0.661617
-0.399021
0.689234
-0.355791
0.713874
-0.313835
0.735672
-0.274056
0.755085
-0.237645
0.772227
-0.201486
0.787327
-0.16625
0.80035
-0.130228
0.811382
-0.093901
0.820468
-0.056263
0.827481
-0.0183353
0.832474
0.0202924
0.835462
0.0568884
0.836527
0.0904767
0.835823
0.117339
0.83328