/*--------------------------------*- C++ -*----------------------------------*\
| =========                 |                                                 |
| \\      /  F ield         | OpenFOAM: The Open Source CFD Toolbox           |
|  \\    /   O peration     | Version:  2506                                  |
|   \\  /    A nd           | Website:  www.openfoam.com                      |
|    \\/     M anipulation  |                                                 |
\*---------------------------------------------------------------------------*/
FoamFile
{
    version     2.0;
    format      ascii;
    arch        "LSB;label=32;scalar=64";
    class       volScalarField;
    location    "150";
    object      static(p)_coeff;
}
// * * * * * * * * * * * * * * * * * * * * * * * * * * * * * * * * * * * * * //

dimensions      [0 0 0 0 0 0 0];

internalField   nonuniform List<scalar> 
10720
(
-0.0701901
-0.272927
-0.511622
-0.7493
-0.971899
-1.19957
-1.40389
-1.578
-1.73094
-1.85301
-1.94882
-2.02113
-2.07272
-2.10717
-2.12486
-2.12405
-2.10694
-2.07036
-2.01792
-1.94827
-1.86858
-1.78399
-1.70513
-1.62098
-1.50878
-1.3705
-1.22867
-1.1013
-0.989578
-0.884977
-0.781831
-0.679241
-0.577215
-0.474921
-0.371249
-0.263378
-0.151468
-0.0219008
0.0870897
0.130381
0.312609
0.503272
0.67893
0.826621
0.933616
0.988632
1.00182
0.985171
0.936701
0.869362
0.797271
0.725842
0.657631
0.594655
0.535894
0.481221
0.429243
0.37914
0.329362
0.279763
0.229392
0.178546
0.128494
0.0849521
0.0510214
0.0234255
0.0013497
-0.0147239
-0.0249848
-0.0301707
-0.0306895
-0.0267805
-0.0184632
-0.00569827
0.0126087
0.038198
0.080985
0.153349
0.199834
0.0458887
-0.12731
-0.312308
-0.503467
-0.70009
-0.892111
-1.07341
-1.24177
-1.39208
-1.52307
-1.63469
-1.72718
-1.80035
-1.8539
-1.88627
-1.89936
-1.8928
-1.8691
-1.82868
-1.7768
-1.71813
-1.65875
-1.58831
-1.48772
-1.35814
-1.22151
-1.09651
-0.985742
-0.881694
-0.778964
-0.676685
-0.574944
-0.472978
-0.369678
-0.262155
-0.150538
-0.0209894
0.0861122
0.337849
0.468671
0.597977
0.721141
0.827914
0.910107
0.958385
0.974191
0.961062
0.921959
0.866762
0.804378
0.739566
0.675212
0.613449
0.554647
0.49893
0.445659
0.394196
0.343489
0.293222
0.242756
0.192345
0.143294
0.100098
0.0655471
0.0374757
0.0145796
-0.00322228
-0.0156117
-0.0226483
-0.024635
-0.0218831
-0.0144874
-0.00243649
0.0153373
0.0405255
0.0830848
0.152577
0.233947
0.0957994
-0.0604555
-0.233399
-0.413794
-0.599852
-0.786821
-0.967134
-1.1362
-1.29091
-1.42753
-1.54489
-1.64161
-1.71726
-1.77281
-1.80912
-1.82666
-1.82528
-1.80633
-1.7709
-1.72266
-1.66578
-1.60501
-1.5349
-1.44168
-1.3237
-1.19758
-1.07964
-0.973221
-0.872326
-0.772164
-0.671902
-0.571619
-0.470615
-0.367933
-0.260849
-0.14958
-0.0203266
0.0862961
0.358033
0.477453
0.595072
0.705264
0.7989
0.870818
0.915466
0.933438
0.926218
0.896433
0.850692
0.795564
0.735815
0.674748
0.614733
0.556854
0.501468
0.448339
0.39697
0.346574
0.296705
0.246922
0.197418
0.149359
0.106289
0.0709272
0.0420763
0.0186286
0.000560036
-0.0118778
-0.0189184
-0.0210397
-0.0185858
-0.0115872
6.45045e-05
0.0174893
0.0424067
0.0845534
0.151367
0.28618
0.170057
0.037019
-0.109765
-0.26457
-0.427312
-0.593149
-0.756994
-0.915061
-1.06391
-1.20024
-1.32191
-1.42723
-1.51544
-1.5861
-1.6398
-1.67547
-1.69251
-1.69134
-1.67294
-1.63984
-1.5953
-1.54271
-1.47909
-1.39487
-1.28825
-1.17211
-1.0608
-0.958391
-0.860468
-0.762921
-0.66491
-0.566487
-0.467003
-0.36551
-0.259313
-0.148674
-0.0200906
0.0865532
0.389845
0.488714
0.587047
0.680856
0.761608
0.825216
0.867295
0.887077
0.885
0.863272
0.826601
0.780038
0.727607
0.672364
0.616584
0.561589
0.507996
0.455935
0.405169
0.355202
0.305691
0.256389
0.207506
0.160131
0.117182
0.0812149
0.0516654
0.0275136
0.00862849
-0.00481071
-0.0130043
-0.0162517
-0.0147765
-0.00855943
0.00251535
0.0195327
0.044153
0.0857714
0.150019
0.297359
0.194045
0.0751054
-0.0569581
-0.196589
-0.345054
-0.498321
-0.651815
-0.80266
-0.947447
-1.08283
-1.20643
-1.31615
-1.41038
-1.48807
-1.54866
-1.59092
-1.61478
-1.62039
-1.60892
-1.58239
-1.54367
-1.49545
-1.43591
-1.35788
-1.2594
-1.15057
-1.04408
-0.944524
-0.848799
-0.753332
-0.657249
-0.560551
-0.462584
-0.362411
-0.257389
-0.147737
-0.0202216
0.0862485
0.389774
0.477441
0.564926
0.648473
0.720526
0.778255
0.818354
0.839479
0.841603
0.826571
0.797744
0.758955
0.713433
0.663869
0.612426
0.560524
0.509025
0.458342
0.408506
0.359287
0.310465
0.261925
0.213908
0.167412
0.124834
0.0885
0.0583368
0.0335263
0.0139495
-0.00019238
-0.00899911
-0.0127365
-0.011644
-0.00575334
0.00503272
0.0217823
0.046117
0.0870921
0.148642
0.301656
0.210064
0.10412
-0.0134339
-0.137702
-0.270754
-0.408884
-0.548439
-0.687313
-0.822427
-0.950949
-1.07063
-1.17924
-1.27492
-1.3563
-1.42229
-1.47221
-1.5055
-1.52191
-1.52191
-1.50675
-1.47843
-1.43877
-1.38656
-1.31655
-1.22708
-1.12632
-1.02557
-0.929738
-0.836776
-0.743633
-0.649508
-0.554481
-0.457993
-0.359157
-0.255375
-0.146889
-0.0208103
0.0852819
0.383633
0.461147
0.539095
0.614088
0.679149
0.732213
0.770623
0.792636
0.797986
0.788288
0.766027
0.734177
0.695293
0.651629
0.60512
0.557126
0.508593
0.460108
0.411901
0.363957
0.316206
0.26866
0.221607
0.175991
0.133846
0.0972837
0.0666043
0.0412253
0.0210384
0.00623189
-0.0032565
-0.00769165
-0.00729557
-0.0020734
0.00811335
0.0243461
0.0482058
0.0883587
0.147137
0.296477
0.213799
0.117919
0.0114658
-0.100822
-0.221662
-0.347754
-0.475918
-0.604753
-0.731535
-0.853825
-0.96961
-1.07667
-1.17303
-1.2571
-1.3275
-1.38303
-1.42268
-1.44579
-1.45261
-1.44415
-1.42207
-1.38781
-1.34072
-1.27715
-1.19562
-1.10243
-1.00729
-0.915171
-0.824941
-0.7341
-0.641918
-0.548507
-0.453403
-0.355844
-0.253361
-0.146251
-0.0219285
0.0835675
0.370556
0.440406
0.51104
0.579316
0.638795
0.688138
0.725034
0.747517
0.755346
0.749856
0.733002
0.707121
0.674227
0.636151
0.594548
0.550636
0.505352
0.459378
0.413102
0.366685
0.320208
0.273807
0.227825
0.183158
0.141561
0.104949
0.0738812
0.0480074
0.0272457
0.0117814
0.00159804
-0.00351197
-0.00373523
0.000946707
0.0106836
0.0265357
0.0500137
0.0893303
0.145404
0.287325
0.212214
0.124949
0.0281559
-0.073646
-0.183519
-0.298432
-0.415604
-0.534137
-0.651706
-0.766213
-0.875985
-0.978974
-1.07328
-1.15721
-1.22922
-1.28785
-1.33218
-1.36148
-1.37555
-1.37487
-1.36041
-1.33306
-1.2924
-1.23586
-1.16232
-1.07671
-0.987383
-0.899278
-0.81206
-0.723774
-0.633773
-0.542189
-0.448623
-0.352416
-0.251267
-0.145707
-0.0234422
0.0810259
0.35472
0.418157
0.482677
0.545374
0.600233
0.646468
0.681941
0.704589
0.71427
0.712082
0.699614
0.678782
0.651179
0.618276
0.581454
0.541733
0.49998
0.456905
0.412969
0.368459
0.323586
0.278581
0.233845
0.190236
0.149317
0.112832
0.0815183
0.0552461
0.0339848
0.0179251
0.00710103
0.0013496
0.000505709
0.00460197
0.013805
0.0291601
0.0521155
0.0903866
0.143669
0.275384
0.206572
0.126523
0.037835
-0.0551305
-0.155627
-0.260903
-0.368447
-0.477758
-0.586814
-0.693873
-0.79759
-0.896122
-0.9877
-1.07067
-1.14341
-1.20438
-1.25239
-1.28646
-1.30598
-1.31108
-1.30242
-1.28062
-1.24544
-1.19513
-1.12882
-1.05033
-0.966696
-0.882679
-0.798572
-0.712925
-0.625192
-0.535528
-0.443606
-0.348855
-0.249102
-0.145146
-0.0251384
0.0777571
0.337216
0.395346
0.454778
0.512776
0.563737
0.607303
0.641436
0.664043
0.675064
0.675452
0.666537
0.649919
0.626898
0.598657
0.56631
0.530691
0.492559
0.452569
0.411206
0.368844
0.325786
0.282354
0.238988
0.196526
0.156391
0.12018
0.0887491
0.0621651
0.040464
0.0238495
0.0124008
0.00600701
0.00453554
0.00804571
0.0167216
0.0315869
0.0540115
0.0911855
0.141746
0.262048
0.198642
0.12483
0.0431405
-0.0421573
-0.134428
-0.23113
-0.329984
-0.430763
-0.531703
-0.631356
-0.72866
-0.821992
-0.909817
-0.990554
-1.06258
-1.12434
-1.1745
-1.21205
-1.23618
-1.24661
-1.24362
-1.22746
-1.19793
-1.15382
-1.09449
-1.02291
-0.945012
-0.865242
-0.784404
-0.701516
-0.616159
-0.528509
-0.438327
-0.345122
-0.246872
-0.144545
-0.0269718
0.0739953
0.319125
0.372733
0.427817
0.481792
0.529399
0.570605
0.603466
0.625884
0.637848
0.640232
0.634181
0.621057
0.601961
0.577843
0.54961
0.517914
0.483378
0.446579
0.407985
0.367995
0.326975
0.285308
0.24347
0.20228
0.163057
0.127285
0.0958893
0.0691057
0.0470499
0.0299467
0.0179203
0.010915
0.00883031
0.0117475
0.0198691
0.0341913
0.0560033
0.0919329
0.139735
0.248023
0.189282
0.120872
0.0452826
-0.0333752
-0.118467
-0.207591
-0.298713
-0.391779
-0.485247
-0.57794
-0.669001
-0.757032
-0.840713
-0.918619
-0.989203
-1.05092
-1.10241
-1.14248
-1.1702
-1.18491
-1.18663
-1.1754
-1.151
-1.11262
-1.05977
-0.994757
-0.922479
-0.847031
-0.769576
-0.689552
-0.606667
-0.521135
-0.432784
-0.341229
-0.244591
-0.143941
-0.0289948
0.0698632
0.300991
0.350706
0.402028
0.452495
0.497182
0.536276
0.567901
0.590023
0.602647
0.606566
0.602804
0.592576
0.576813
0.556301
0.53178
0.503748
0.472691
0.439087
0.403356
0.365886
0.32707
0.287324
0.247146
0.207333
0.169137
0.133949
0.102728
0.0758505
0.0535187
0.0359852
0.0234192
0.0158207
0.013129
0.0154505
0.0230082
0.0367652
0.0579227
0.0925295
0.137614
0.233809
0.179162
0.11551
0.0452749
-0.0275489
-0.106299
-0.188724
-0.272917
-0.358953
-0.445511
-0.531659
-0.616685
-0.699372
-0.77863
-0.853198
-0.921636
-0.982479
-1.03435
-1.07597
-1.10639
-1.12466
-1.13053
-1.12383
-1.10431
-1.07136
-1.02462
-0.965862
-0.899106
-0.828047
-0.754086
-0.677031
-0.596722
-0.513406
-0.426989
-0.33718
-0.242269
-0.143391
-0.0312346
0.0653794
0.283189
0.329501
0.377519
0.42488
0.467006
0.504177
0.534608
0.556345
0.569392
0.574506
0.572583
0.56473
0.551781
0.534395
0.513184
0.488515
0.460759
0.430284
0.39744
0.362585
0.326103
0.288417
0.250025
0.211706
0.174657
0.140197
0.109297
0.082445
0.0599302
0.0420396
0.0289875
0.0208303
0.0175498
0.0192749
0.026251
0.0394027
0.05984
0.0930208
0.135401
0.219731
0.168697
0.109258
0.0437762
-0.0238884
-0.0970181
-0.173465
-0.251445
-0.331173
-0.411401
-0.491405
-0.570735
-0.648233
-0.722996
-0.793961
-0.859832
-0.919232
-0.970811
-1.01326
-1.04559
-1.06667
-1.07601
-1.07329
-1.05819
-1.03027
-0.989214
-0.936355
-0.87497
-0.808321
-0.737945
-0.663954
-0.58632
-0.505322
-0.42094
-0.332977
-0.239904
-0.142919
-0.0336881
0.06057
0.265923
0.309249
0.354321
0.398922
0.438753
0.474164
0.503444
0.524728
0.538003
0.544031
0.543594
0.537696
0.527112
0.512424
0.494129
0.472508
0.447824
0.420358
0.390374
0.358166
0.324097
0.28857
0.252071
0.215352
0.179563
0.145963
0.115523
0.0888151
0.0662097
0.0480361
0.0345518
0.0258697
0.0220176
0.0231481
0.0295307
0.0420479
0.0617132
0.0933903
0.133102
0.205988
0.158174
0.10251
0.0412688
-0.0217932
-0.0898947
-0.160993
-0.233397
-0.307395
-0.381891
-0.456195
-0.530097
-0.602632
-0.672943
-0.740163
-0.803169
-0.860663
-0.911381
-0.954004
-0.987531
-1.01077
-1.023
-1.02376
-1.0127
-0.98941
-0.953628
-0.906329
-0.850139
-0.787891
-0.721168
-0.650322
-0.575453
-0.496871
-0.414628
-0.328614
-0.237492
-0.142527
-0.0363487
0.055465
0.249335
0.28999
0.33243
0.374544
0.412298
0.446079
0.474256
0.495049
0.508413
0.51511
0.515873
0.511587
0.502988
0.490604
0.474868
0.455982
0.43413
0.409505
0.382293
0.352721
0.321101
0.287804
0.253286
0.218262
0.183838
0.151225
0.12138
0.0949381
0.0723422
0.0539669
0.0401126
0.0309477
0.0265481
0.0270896
0.0328667
0.0447153
0.0635521
0.0936514
0.130732
0.19271
0.147794
0.0955211
0.0381048
-0.0208296
-0.0844209
-0.150698
-0.21807
-0.286885
-0.356125
-0.425209
-0.494011
-0.561799
-0.627815
-0.691276
-0.751223
-0.806505
-0.855934
-0.898231
-0.932362
-0.957169
-0.971707
-0.975446
-0.967977
-0.94892
-0.917998
-0.875896
-0.824693
-0.766802
-0.703776
-0.636145
-0.564124
-0.488057
-0.40805
-0.324092
-0.235033
-0.142203
-0.0392075
0.0500856
0.233495
0.271747
0.311808
0.351665
0.38752
0.419787
0.446904
0.467169
0.480529
0.487699
0.489409
0.486463
0.479532
0.469118
0.455612
0.439161
0.419884
0.397908
0.373343
0.346349
0.317176
0.286149
0.253676
0.220425
0.18746
0.155948
0.126826
0.10077
0.0782851
0.0597923
0.0456343
0.0360319
0.0311124
0.0310737
0.0362363
0.0473868
0.0653433
0.0938049
0.1283
0.179969
0.137683
0.0884897
0.0345314
-0.0206781
-0.0801835
-0.1421
-0.204924
-0.269019
-0.333459
-0.397772
-0.46183
-0.525077
-0.58697
-0.646743
-0.703551
-0.756402
-0.80421
-0.845765
-0.880002
-0.905841
-0.922192
-0.928439
-0.924133
-0.908894
-0.882424
-0.845164
-0.79872
-0.745106
-0.685798
-0.621438
-0.552337
-0.478873
-0.401206
-0.319409
-0.232527
-0.141945
-0.0422416
0.0444503
0.218437
0.254514
0.292406
0.3302
0.364312
0.395154
0.42126
0.440974
0.454246
0.461756
0.464196
0.462353
0.456831
0.448099
0.436525
0.422224
0.405276
0.385739
0.363671
0.339162
0.312399
0.283645
0.253256
0.221841
0.190418
0.160111
0.131832
0.106278
0.0840083
0.0654856
0.0510942
0.0411064
0.0356986
0.0350922
0.0396331
0.0500572
0.0670843
0.0938591
0.125821
0.167818
0.127928
0.0815337
0.0307374
-0.0210931
-0.076889
-0.134847
-0.193526
-0.253329
-0.31339
-0.373287
-0.432991
-0.491961
-0.549867
-0.606075
-0.659751
-0.710047
-0.756006
-0.796487
-0.830431
-0.856836
-0.874541
-0.88285
-0.881279
-0.869451
-0.847031
-0.814246
-0.772312
-0.722872
-0.66727
-0.60622
-0.540106
-0.469325
-0.394095
-0.314567
-0.229975
-0.141748
-0.0454299
0.038584
0.204167
0.238264
0.274162
0.31006
0.34256
0.372068
0.397192
0.41635
0.429465
0.437212
0.440214
0.439261
0.434937
0.427643
0.417737
0.405335
0.390469
0.373165
0.353422
0.331279
0.306856
0.280351
0.252057
0.222521
0.192707
0.163695
0.136367
0.111428
0.0894758
0.0710129
0.056463
0.0461448
0.0402853
0.0391279
0.0430435
0.0527157
0.0687685
0.09382
0.123305
0.156275
0.118577
0.0747635
0.026848
-0.0218908
-0.0743021
-0.128645
-0.183553
-0.239425
-0.295469
-0.351316
-0.406979
-0.461992
-0.516094
-0.568842
-0.619442
-0.667134
-0.711076
-0.750229
-0.783564
-0.810134
-0.828787
-0.838746
-0.839509
-0.830691
-0.811924
-0.783256
-0.745567
-0.700167
-0.648239
-0.590517
-0.527438
-0.459419
-0.386718
-0.309563
-0.227371
-0.141612
-0.0487465
0.0325221
0.190679
0.222957
0.257018
0.291164
0.322166
0.350408
0.374597
0.393184
0.406098
0.41399
0.417435
0.417199
0.413877
0.407816
0.399357
0.388614
0.375605
0.360325
0.342732
0.322817
0.300636
0.27633
0.250121
0.222486
0.19433
0.16669
0.140409
0.116191
0.0946565
0.0763445
0.0617123
0.0511238
0.0448525
0.0431651
0.0464542
0.0553523
0.0703912
0.0936961
0.12077
0.145347
0.109669
0.068224
0.0229728
-0.0229378
-0.0722452
-0.123277
-0.174722
-0.227005
-0.279362
-0.331474
-0.383399
-0.434745
-0.485256
-0.534652
-0.582276
-0.627369
-0.669196
-0.706837
-0.739315
-0.765719
-0.784957
-0.796194
-0.798906
-0.79271
-0.77721
-0.752308
-0.718589
-0.67707
-0.628753
-0.574364
-0.514358
-0.449164
-0.379081
-0.304398
-0.224714
-0.141529
-0.0521685
0.0262988
0.177954
0.208554
0.240916
0.273437
0.303029
0.330084
0.353365
0.371382
0.384056
0.392016
0.395811
0.396154
0.393663
0.388667
0.381459
0.372166
0.360807
0.347349
0.331723
0.313884
0.293834
0.271651
0.247491
0.221761
0.1953
0.169091
0.143941
0.120539
0.0995201
0.0814479
0.0668128
0.0560166
0.0493777
0.0471848
0.0498504
0.0579573
0.0719488
0.0934956
0.118228
0.135026
0.101219
0.0619696
0.019172
-0.0241292
-0.0705784
-0.118563
-0.166838
-0.215812
-0.26478
-0.313452
-0.36192
-0.409837
-0.457006
-0.503195
-0.547924
-0.590467
-0.630143
-0.666146
-0.69757
-0.723543
-0.743056
-0.755231
-0.759537
-0.755597
-0.742994
-0.721505
-0.691477
-0.653658
-0.608873
-0.557794
-0.500885
-0.438575
-0.371186
-0.299071
-0.221998
-0.14149
-0.0556697
0.0199513
0.165968
0.195015
0.225797
0.256799
0.285071
0.310991
0.333406
0.350854
0.363259
0.371231
0.375295
0.376111
0.37431
0.370222
0.364099
0.356075
0.346172
0.334346
0.320513
0.30459
0.286542
0.26639
0.244227
0.220385
0.195634
0.1709
0.146951
0.12445
0.104038
0.0862938
0.0717347
0.0607962
0.0538367
0.0511681
0.0532162
0.0605188
0.073436
0.0932264
0.115693
0.125301
0.0932335
0.0560205
0.015505
-0.0253865
-0.0691971
-0.114372
-0.159717
-0.205652
-0.251494
-0.296992
-0.342256
-0.38699
-0.431047
-0.474199
-0.516112
-0.556179
-0.593708
-0.627987
-0.658216
-0.683541
-0.703069
-0.715882
-0.721458
-0.719432
-0.709372
-0.69096
-0.664339
-0.630022
-0.588662
-0.540855
-0.487048
-0.427664
-0.363044
-0.293584
-0.21922
-0.141483
-0.0592227
0.0135196
0.154694
0.182295
0.211602
0.241184
0.268208
0.293057
0.314632
0.331525
0.34364
0.351576
0.355838
0.357042
0.355806
0.352493
0.347317
0.340401
0.331782
0.321418
0.309202
0.295038
0.278855
0.260627
0.240389
0.2184
0.195356
0.172127
0.149432
0.127908
0.108185
0.0908536
0.0764489
0.065435
0.0582052
0.0550944
0.0565357
0.063027
0.0748502
0.0928987
0.11318
0.116155
0.0857081
0.0503961
0.0120013
-0.0266522
-0.0680143
-0.110587
-0.153232
-0.196347
-0.239306
-0.281872
-0.324171
-0.365945
-0.407086
-0.44741
-0.486617
-0.524264
-0.559681
-0.592206
-0.621128
-0.645645
-0.664963
-0.678158
-0.68471
-0.684278
-0.676428
-0.660766
-0.637269
-0.606247
-0.568191
-0.523596
-0.47288
-0.41645
-0.354661
-0.28794
-0.216371
-0.141493
-0.062796
0.00704566
0.144103
0.170352
0.198276
0.22652
0.252371
0.276199
0.296968
0.313304
0.325121
0.332989
0.33739
0.338919
0.33815
0.335482
0.33114
0.325198
0.317706
0.308637
0.297882
0.28532
0.270861
0.254441
0.236041
0.215852
0.194498
0.172786
0.151385
0.130899
0.111941
0.0951008
0.0809268
0.0699052
0.0624577
0.0589414
0.0597912
0.065469
0.0761871
0.0925195
0.110703
0.10757
0.0786362
0.0450998
0.00869102
-0.027885
-0.0669696
-0.107127
-0.147263
-0.187778
-0.228061
-0.26791
-0.307463
-0.346485
-0.384902
-0.422579
-0.459221
-0.494508
-0.527876
-0.558643
-0.58619
-0.609778
-0.6287
-0.642054
-0.649328
-0.650197
-0.644243
-0.631022
-0.61037
-0.58243
-0.54753
-0.50607
-0.458422
-0.404965
-0.346051
-0.282142
-0.213446
-0.141506
-0.0663632
0.000568333
0.134159
0.159146
0.185771
0.212754
0.237492
0.260351
0.280341
0.296134
0.307634
0.315407
0.319903
0.321696
0.321329
0.319205
0.315576
0.310491
0.303993
0.296072
0.286623
0.275518
0.262644
0.247908
0.231248
0.212795
0.193098
0.172899
0.152818
0.133417
0.115288
0.0990119
0.085142
0.0741793
0.0665685
0.0626866
0.0629652
0.0678347
0.0774454
0.092098
0.108275
0.0995195
0.0720059
0.0401377
0.00558451
-0.0290499
-0.0660094
-0.103919
-0.141729
-0.179821
-0.21763
-0.254962
-0.291961
-0.328425
-0.364298
-0.399484
-0.433724
-0.466755
-0.498108
-0.527133
-0.553272
-0.575846
-0.59422
-0.607548
-0.615318
-0.617229
-0.612887
-0.60181
-0.583738
-0.558655
-0.526755
-0.488338
-0.443713
-0.393228
-0.337227
-0.276192
-0.210439
-0.1415
-0.0698901
-0.00586852
0.124835
0.148635
0.174037
0.199828
0.223513
0.245442
0.264684
0.279944
0.29113
0.298784
0.303339
0.305339
0.305318
0.303653
0.30063
0.296303
0.290684
0.283776
0.275496
0.265706
0.254279
0.241103
0.22608
0.209284
0.191196
0.172491
0.153739
0.13546
0.118213
0.102566
0.0890685
0.0782304
0.0705116
0.0663064
0.066039
0.0701114
0.0786208
0.091641
0.105908
0.0919817
0.0658054
0.0355019
0.00269409
-0.0301224
-0.0650996
-0.100908
-0.136547
-0.172393
-0.2079
-0.242891
-0.27752
-0.311601
-0.345107
-0.377963
-0.40994
-0.440811
-0.470215
-0.497543
-0.522259
-0.543762
-0.561477
-0.574624
-0.582696
-0.585412
-0.582418
-0.573216
-0.557457
-0.53501
-0.505946
-0.470461
-0.428802
-0.381276
-0.328212
-0.270095
-0.207339
-0.141458
-0.0733464
-0.0122238
0.116097
0.138781
0.163028
0.18769
0.210372
0.231415
0.249936
0.264679
0.275546
0.283064
0.287647
0.289813
0.290087
0.288822
0.286317
0.282648
0.277803
0.271796
0.264554
0.255946
0.245836
0.234094
0.220598
0.205374
0.188836
0.171596
0.154169
0.137032
0.120709
0.105746
0.0926842
0.082033
0.0742621
0.069778
0.0689945
0.0722881
0.079712
0.0911565
0.103613
0.0849329
0.0600162
0.0311899
1.97574e-05
-0.0310908
-0.0642069
-0.0980524
-0.131668
-0.165415
-0.198779
-0.231598
-0.264019
-0.295883
-0.32718
-0.35785
-0.387712
-0.416533
-0.444047
-0.46973
-0.493038
-0.513435
-0.530402
-0.543242
-0.55145
-0.554774
-0.55289
-0.545306
-0.531608
-0.511581
-0.485176
-0.452504
-0.413738
-0.369137
-0.319019
-0.263855
-0.204141
-0.141356
-0.0766976
-0.018453
0.107918
0.129546
0.1527
0.176289
0.198019
0.218215
0.236041
0.25028
0.260829
0.2682
0.272787
0.275086
0.275609
0.274692
0.272627
0.269526
0.265372
0.260162
0.253843
0.246294
0.237376
0.226946
0.214864
0.20112
0.186064
0.170246
0.154127
0.13814
0.122771
0.10854
0.0959689
0.0855635
0.0777959
0.0730784
0.0718127
0.0743526
0.080715
0.0906495
0.101399
0.0783511
0.0546223
0.0271892
-0.0024344
-0.0319415
-0.0633125
-0.0953173
-0.127037
-0.158829
-0.190192
-0.220984
-0.251352
-0.281153
-0.310388
-0.339017
-0.366883
-0.393781
-0.419485
-0.443565
-0.465492
-0.484771
-0.50093
-0.513361
-0.521569
-0.525323
-0.524344
-0.518144
-0.506277
-0.488447
-0.464524
-0.434532
-0.398573
-0.356856
-0.309669
-0.257483
-0.200836
-0.141173
-0.0799175
-0.0245144
0.100264
0.120894
0.143012
0.165585
0.186404
0.205792
0.222948
0.236696
0.246931
0.254146
0.258718
0.261121
0.261851
0.261242
0.259556
0.256943
0.253404
0.248901
0.243398
0.236794
0.228951
0.219717
0.20894
0.196579
0.182929
0.168478
0.153639
0.138798
0.124402
0.110938
0.0989061
0.0888009
0.0810892
0.0761856
0.0744763
0.0762942
0.0816287
0.0901251
0.0992743
0.0722091
0.0496058
0.0234917
-0.00467287
-0.0326703
-0.062397
-0.0926736
-0.122622
-0.152579
-0.182076
-0.21098
-0.239435
-0.26731
-0.294622
-0.321338
-0.347334
-0.372423
-0.396402
-0.418932
-0.439516
-0.45768
-0.472993
-0.484939
-0.493029
-0.497064
-0.496803
-0.491781
-0.481526
-0.465687
-0.444068
-0.41661
-0.383355
-0.344465
-0.300189
-0.250981
-0.197416
-0.140889
-0.0829709
-0.03037
0.0931084
0.112792
0.133929
0.155533
0.175484
0.194098
0.210609
0.223881
0.233804
0.240859
0.245401
0.247884
0.24879
0.248443
0.247096
0.244908
0.241901
0.238022
0.233247
0.227486
0.220607
0.212459
0.202878
0.191802
0.179475
0.166331
0.152733
0.139023
0.125607
0.112935
0.101483
0.0917256
0.0841204
0.0790784
0.0769671
0.0781008
0.0824486
0.0895868
0.0972443
0.0664854
0.0449496
0.0200832
-0.00669849
-0.0332731
-0.0614538
-0.0901032
-0.118386
-0.146627
-0.174379
-0.201514
-0.228185
-0.254266
-0.279779
-0.304715
-0.328951
-0.352354
-0.374692
-0.395716
-0.415007
-0.432071
-0.446523
-0.457919
-0.465808
-0.469999
-0.470298
-0.466261
-0.457414
-0.443373
-0.423878
-0.398807
-0.368149
-0.332007
-0.290606
-0.244363
-0.193875
-0.140477
-0.0858324
-0.0359834
0.086423
0.10521
0.125413
0.146094
0.165216
0.183089
0.198979
0.211788
0.221406
0.228295
0.232796
0.23534
0.236395
0.236279
0.235226
0.233402
0.230857
0.227541
0.223412
0.218399
0.212385
0.205217
0.196728
0.186838
0.17575
0.163845
0.15144
0.138836
0.126395
0.114532
0.10369
0.0943232
0.0868712
0.0817375
0.0792692
0.0797623
0.0831733
0.0890372
0.0953132
0.0611577
0.0406343
0.0169552
-0.00852085
-0.0337502
-0.0604685
-0.087587
-0.114306
-0.140934
-0.16705
-0.192537
-0.217537
-0.241943
-0.26578
-0.289043
-0.311639
-0.333438
-0.354247
-0.373843
-0.391871
-0.407861
-0.421446
-0.432257
-0.439868
-0.444115
-0.444834
-0.441622
-0.433999
-0.421562
-0.404019
-0.381187
-0.353005
-0.319528
-0.280942
-0.237638
-0.190206
-0.13992
-0.0884705
-0.0413191
0.0801817
0.0981154
0.117432
0.137232
0.155562
0.172723
0.188016
0.200376
0.209696
0.216418
0.220867
0.223456
0.224637
0.224719
0.223935
0.222423
0.220272
0.217462
0.213908
0.209558
0.204313
0.198029
0.190534
0.181734
0.171797
0.161058
0.149793
0.138259
0.126781
0.115732
0.105523
0.0965806
0.089325
0.0841449
0.0813666
0.0812675
0.0837982
0.0884767
0.0934808
0.0562045
0.0366424
0.014089
-0.0101447
-0.0341028
-0.0594415
-0.0851148
-0.110359
-0.135476
-0.160059
-0.183997
-0.207438
-0.230278
-0.252547
-0.274253
-0.295307
-0.315608
-0.334974
-0.353206
-0.370015
-0.38497
-0.397701
-0.407899
-0.415176
-0.419396
-0.42042
-0.417882
-0.411319
-0.400318
-0.384553
-0.36381
-0.337976
-0.307066
-0.27123
-0.230816
-0.186406
-0.139197
-0.0908634
-0.0463474
0.0743595
0.0914824
0.109952
0.128912
0.146483
0.162963
0.17768
0.189608
0.198635
0.20519
0.20958
0.2122
0.213487
0.213741
0.21319
0.211962
0.210156
0.207776
0.204739
0.200981
0.196421
0.190929
0.184334
0.176531
0.167659
0.158011
0.147824
0.137319
0.12678
0.116542
0.10698
0.0984902
0.0914688
0.0862861
0.0832463
0.0826083
0.0843209
0.0879052
0.0917472
0.0516056
0.0329564
0.0114737
-0.0115822
-0.0343353
-0.0583675
-0.0826766
-0.106535
-0.130227
-0.15337
-0.175861
-0.19784
-0.219215
-0.240019
-0.260264
-0.279882
-0.298772
-0.316795
-0.333728
-0.349363
-0.363322
-0.375218
-0.38479
-0.391693
-0.395819
-0.397056
-0.395065
-0.38941
-0.379681
-0.365537
-0.346731
-0.323118
-0.294667
-0.261495
-0.223913
-0.182472
-0.138289
-0.0929862
-0.0510409
0.0689324
0.0852843
0.102946
0.121101
0.137947
0.153772
0.167936
0.179446
0.188187
0.194575
0.198901
0.201542
0.202919
0.203322
0.202972
0.202006
0.200494
0.198483
0.19591
0.19268
0.188728
0.183944
0.178162
0.171268
0.163375
0.15474
0.145567
0.136043
0.126412
0.116972
0.108063
0.100047
0.0932926
0.0881484
0.0848956
0.0837746
0.0847362
0.0873205
0.0901085
0.0473404
0.0295603
0.009094
-0.0128403
-0.0344513
-0.0572471
-0.080266
-0.102813
-0.125167
-0.146955
-0.168088
-0.188699
-0.208704
-0.22814
-0.247022
-0.265288
-0.282863
-0.299609
-0.315336
-0.329851
-0.342844
-0.35393
-0.362875
-0.369385
-0.373363
-0.37473
-0.37318
-0.3683
-0.359698
-0.347021
-0.330007
-0.308477
-0.282372
-0.251769
-0.216941
-0.178403
-0.137184
-0.0948207
-0.0553748
0.0638774
0.079494
0.0963842
0.11377
0.129921
0.145119
0.15875
0.169854
0.178318
0.184541
0.188799
0.19145
0.192901
0.193435
0.193262
0.192521
0.19128
0.189593
0.187421
0.184658
0.181249
0.177097
0.172045
0.165977
0.158981
0.151282
0.143056
0.134459
0.1257
0.117039
0.108779
0.10125
0.0947902
0.0897219
0.0863056
0.0847593
0.0850411
0.08672
0.0885604
0.0433884
0.0264367
0.0069395
-0.0139303
-0.034456
-0.0560793
-0.0778775
-0.0991903
-0.120278
-0.140794
-0.160652
-0.17998
-0.198702
-0.216857
-0.234463
-0.251473
-0.267809
-0.283364
-0.297953
-0.311408
-0.323467
-0.333776
-0.342105
-0.348201
-0.351996
-0.353428
-0.352227
-0.348012
-0.340398
-0.329049
-0.31368
-0.294101
-0.270218
-0.24208
-0.209918
-0.174202
-0.135867
-0.0963478
-0.0593294
0.0591733
0.0740882
0.0902413
0.106891
0.122375
0.13697
0.150088
0.160801
0.168995
0.175054
0.179241
0.181895
0.183408
0.184055
0.184039
0.183498
0.182496
0.181091
0.179264
0.176922
0.173997
0.170406
0.166008
0.160686
0.154508
0.147671
0.140323
0.132596
0.124666
0.116757
0.109138
0.102103
0.0959589
0.0910009
0.0874678
0.0855555
0.085231
0.0860989
0.0870942
0.0397328
0.0235699
0.0049946
-0.01486
-0.0343557
-0.0548681
-0.0755104
-0.0956533
-0.115551
-0.134868
-0.153527
-0.171652
-0.189173
-0.20613
-0.222545
-0.238373
-0.253556
-0.267989
-0.281523
-0.293968
-0.305129
-0.3147
-0.322429
-0.328105
-0.331687
-0.333134
-0.332208
-0.328555
-0.321814
-0.311654
-0.297796
-0.280032
-0.258246
-0.232459
-0.202858
-0.169871
-0.134333
-0.0975582
-0.0628895
0.0547977
0.0690433
0.0844916
0.100436
0.115281
0.129298
0.141921
0.152256
0.160188
0.166085
0.170199
0.172848
0.174414
0.17516
0.175282
0.174915
0.174132
0.172967
0.171437
0.169473
0.166979
0.163884
0.16007
0.155421
0.149986
0.143936
0.1374
0.130483
0.123335
0.116147
0.109152
0.102612
0.0967992
0.091982
0.0883776
0.0861589
0.085302
0.0854523
0.0857022
0.0363532
0.0209439
0.00324884
-0.015641
-0.034157
-0.0536131
-0.07316
-0.0921997
-0.110972
-0.12916
-0.146692
-0.163688
-0.180084
-0.19592
-0.211218
-0.225947
-0.240046
-0.253432
-0.265965
-0.277476
-0.28779
-0.296643
-0.303792
-0.309051
-0.312402
-0.313828
-0.313112
-0.309935
-0.303957
-0.294868
-0.28239
-0.266307
-0.24649
-0.222931
-0.195784
-0.165416
-0.132575
-0.0984405
-0.0660438
0.0507321
0.0643383
0.0791118
0.0943802
0.108613
0.122073
0.13422
0.14419
0.151868
0.157607
0.161644
0.164285
0.165893
0.166723
0.166967
0.166753
0.166158
0.165215
0.163949
0.162308
0.160193
0.157541
0.154248
0.150203
0.14544
0.140108
0.134314
0.128149
0.121734
0.11523
0.108838
0.102786
0.0973156
0.0926659
0.0890316
0.0865647
0.0852497
0.0847737
0.0843735
0.0332344
0.0185441
0.00168729
-0.0162814
-0.0338662
-0.0523208
-0.070829
-0.0888224
-0.106533
-0.123657
-0.140128
-0.156065
-0.171405
-0.18619
-0.200449
-0.214144
-0.227236
-0.239639
-0.251236
-0.261871
-0.271387
-0.279553
-0.286142
-0.290998
-0.294111
-0.295482
-0.294927
-0.29215
-0.286844
-0.278713
-0.267491
-0.252961
-0.234982
-0.213526
-0.188708
-0.160846
-0.130592
-0.0989912
-0.0687854
0.0469576
0.0599518
0.0740799
0.0887006
0.102345
0.11527
0.126959
0.136576
0.144007
0.149589
0.153551
0.156177
0.157819
0.158723
0.159073
0.158995
0.158567
0.157819
0.156779
0.155417
0.153643
0.151387
0.148554
0.145049
0.140892
0.13621
0.131095
0.125621
0.119887
0.114027
0.108212
0.102638
0.0975162
0.0930557
0.0894306
0.0867715
0.0850719
0.0840574
0.0830975
0.0303591
0.0163558
0.000300095
-0.0167921
-0.0334908
-0.0509921
-0.0685159
-0.0855206
-0.102225
-0.118346
-0.133822
-0.148762
-0.163113
-0.176916
-0.190198
-0.202933
-0.215079
-0.226567
-0.237287
-0.247101
-0.255868
-0.263383
-0.26944
-0.273904
-0.276774
-0.278071
-0.277634
-0.275197
-0.270477
-0.263203
-0.253122
-0.24002
-0.223751
-0.204267
-0.181653
-0.156173
-0.128386
-0.0992078
-0.0711111
0.0434555
0.0558655
0.0693743
0.0833735
0.096454
0.108865
0.120111
0.129388
0.136579
0.142009
0.145891
0.148499
0.150168
0.151135
0.151578
0.15162
0.151337
0.150768
0.149921
0.148796
0.14733
0.145423
0.142998
0.139974
0.136361
0.132266
0.127768
0.122926
0.11782
0.112563
0.107295
0.102185
0.0974115
0.0931578
0.0895758
0.0867789
0.0847649
0.0832954
0.0818617
0.0277128
0.014365
-0.000926487
-0.017181
-0.0330371
-0.049633
-0.0662221
-0.0822886
-0.0980459
-0.11322
-0.127756
-0.141761
-0.155184
-0.168067
-0.180439
-0.192273
-0.20354
-0.214171
-0.224075
-0.233121
-0.241181
-0.248083
-0.253641
-0.257727
-0.260356
-0.261563
-0.261213
-0.259063
-0.254858
-0.24835
-0.239301
-0.227508
-0.212821
-0.195179
-0.174636
-0.151407
-0.125965
-0.0990951
-0.0730237
0.0402087
0.0520593
0.0649757
0.0783786
0.0909172
0.102833
0.113653
0.1226
0.129559
0.134839
0.138643
0.141228
0.142918
0.143939
0.144462
0.144608
0.144453
0.144036
0.143367
0.142454
0.141246
0.139648
0.137586
0.134989
0.131863
0.128296
0.124355
0.120088
0.11556
0.110862
0.106109
0.101442
0.0970148
0.0929818
0.0894729
0.0865887
0.0843277
0.082482
0.0806549
0.0252795
0.0125587
-0.00200203
-0.017459
-0.0325124
-0.0482464
-0.0639481
-0.0791281
-0.0939869
-0.108268
-0.12192
-0.135046
-0.147599