/*--------------------------------*- C++ -*----------------------------------*\
| =========                 |                                                 |
| \\      /  F ield         | OpenFOAM: The Open Source CFD Toolbox           |
|  \\    /   O peration     | Version:  2506                                  |
|   \\  /    A nd           | Website:  www.openfoam.com                      |
|    \\/     M anipulation  |                                                 |
\*---------------------------------------------------------------------------*/
FoamFile
{
    version     2.0;
    format      ascii;
    arch        "LSB;label=32;scalar=64";
    class       volScalarField;
    location    "150";
    object      turbulenceProperties:L;
}
// * * * * * * * * * * * * * * * * * * * * * * * * * * * * * * * * * * * * * //

dimensions      [0 1 0 0 0 0 0];

internalField   nonuniform List<scalar> 
10720
(
0.0018398
0.00175678
0.00168284
0.00161197
0.00156729
0.00154056
0.00153601
0.00155831
0.00160921
0.00169174
0.00181
0.00197214
0.00218285
0.00245552
0.00280928
0.00327744
0.00390221
0.00477804
0.00598941
0.0078858
0.0106219
0.0157517
0.0238445
0.0410159
0.0522248
0.0555045
0.0563506
0.0573372
0.0585663
0.0595909
0.0601989
0.0604974
0.0606847
0.0608687
0.0611073
0.061432
0.0621505
0.0630716
0.0692505
0.00194162
0.00204889
0.00222086
0.00242877
0.00272015
0.00313425
0.0036645
0.00407114
0.00380839
0.00328847
0.00282367
0.00249912
0.00231318
0.00225235
0.00230284
0.00245483
0.00270722
0.00307052
0.00357156
0.00424982
0.00519122
0.00647565
0.00836731
0.0110011
0.0152819
0.0213898
0.0318175
0.044411
0.0517478
0.0544296
0.0552235
0.0555458
0.0557506
0.0558906
0.0559953
0.0560957
0.0562174
0.0564387
0.0566599
0.00391579
0.00392441
0.00394587
0.0040021
0.00409448
0.00421057
0.00436213
0.00455443
0.00477323
0.00502463
0.00529818
0.00557886
0.00572159
0.00561147
0.00526859
0.00492062
0.00494974
0.00549231
0.00636515
0.00778363
0.00947155
0.0128728
0.016799
0.0264555
0.0376874
0.0497603
0.0636422
0.0791593
0.0951003
0.109999
0.123614
0.136576
0.148808
0.159486
0.168078
0.174428
0.17826
0.178409
0.172371
0.00393539
0.00396561
0.00402413
0.00411486
0.00425084
0.00445378
0.00471713
0.00500644
0.00535008
0.00578384
0.00629769
0.00687283
0.00751454
0.00823963
0.00906099
0.00998899
0.0110577
0.0123089
0.0138881
0.0161153
0.0200291
0.0287769
0.0619643
0.267432
0.0442254
0.0111001
0.0238868
0.0621271
0.111289
0.159101
0.195966
0.215869
0.221736
0.220318
0.216405
0.211958
0.207141
0.198087
0.175368
0.00478399
0.00480787
0.00486769
0.00496135
0.00506574
0.00518899
0.0053243
0.00545652
0.00557929
0.00568304
0.00576581
0.00583044
0.00585789
0.00585867
0.00582557
0.0058642
0.00619372
0.00673495
0.00934006
0.00518255
0.0072702
0.00829121
0.0243789
0.0501944
0.0314466
0.0340434
0.0417722
0.0542329
0.0709619
0.0903558
0.110675
0.130262
0.148625
0.166543
0.184718
0.202515
0.218981
0.233805
0.22897
0.00476307
0.0047639
0.00476923
0.0048101
0.00489118
0.00504376
0.00526957
0.00554722
0.00585602
0.00625876
0.0067893
0.00744584
0.00822808
0.00914781
0.0101915
0.0113456
0.0125642
0.0137904
0.0149321
0.0159349
0.0167405
0.0173103
0.0176222
0.0177547
0.0177142
0.0176931
0.0172505
0.0232577
0.0172051
0.0485262
0.107443
0.179424
0.221622
0.240319
0.250718
0.25743
0.260431
0.272268
0.244205
0.00522407
0.0052186
0.00523189
0.00525472
0.00530082
0.00537181
0.00546435
0.00558639
0.00573626
0.00591694
0.00613002
0.00637728
0.0066672
0.00701174
0.00741835
0.0079334
0.00859272
0.00933346
0.0104365
0.0127154
0.0636161
0.00796363
3.98687
0.00618854
0.0125628
0.0194437
0.0316179
0.0363895
0.0621238
0.110727
0.105903
0.122792
0.143667
0.164735
0.185175
0.206066
0.228066
0.251501
0.258374
0.00525185
0.00529409
0.00536189
0.0054477
0.00556488
0.00573211
0.00594553
0.0061968
0.00650699
0.00690595
0.0073936
0.00795202
0.00856934
0.00924082
0.00995284
0.0106959
0.0114504
0.0121996
0.0129203
0.0136122
0.0142647
0.0148937
0.0155376
0.0163212
0.0172717
0.0181967
0.0190105
0.0196202
0.0207946
0.0213886
0.0296615
0.0337206
0.0506026
0.175713
0.232161
0.233247
0.245657
0.258377
0.241921
0.00601419
0.0060208
0.00604571
0.00609037
0.00615979
0.00625761
0.00638229
0.00653641
0.00672026
0.00692811
0.00715652
0.00739923
0.00764662
0.00788625
0.0081073
0.00829676
0.00849582
0.00874944
0.0090804
0.00945064
0.01073
0.0182627
0.435668
0.196236
3.59683
0
0
0.0148534
0.0175694
0.0274503
0.0295394
0.0572215
0.186567
0.202329
0.198356
0.212145
0.231092
0.256279
0.271556
0.00602237
0.00604366
0.00608686
0.00615837
0.00626734
0.00642809
0.00663188
0.00687347
0.00717028
0.00754347
0.00799666
0.0085281
0.00914034
0.00984002
0.0106285
0.011504
0.0124572
0.0134709
0.0145161
0.0155691
0.0166
0.0176012
0.0185934
0.0197127
0.0210943
0.0226757
0.0241995
0.0254287
0.0259343
0.027097
0.0242587
0.0857583
0.0229468
0.0414211
0.0301253
0.0553526
0.108952
0.121637
0.194226
0.00665459
0.00664146
0.00664363
0.00665731
0.00669092
0.00674595
0.00682184
0.00692321
0.0070513
0.00720663
0.00739251
0.00761037
0.00786124
0.00814753
0.00847027
0.00883865
0.00929577
0.00986328
0.0105173
0.0112417
0.0119361
0.0127971
0.0144896
0.0258067
0.45965
0.164418
0.227794
0.572407
0
0
0.0173861
0.0263798
0.0158089
0.0501695
0.17181
0.279517
0.248784
0.261489
0.276628
0.00668401
0.00672491
0.00678603
0.00687121
0.00699073
0.00715342
0.00734937
0.00758266
0.00787009
0.00822503
0.00865062
0.00914617
0.00971007
0.010343
0.0110418
0.0117965
0.0125945
0.0134186
0.0142483
0.0150699
0.0158749
0.0166751
0.0175104
0.0184877
0.0197135
0.0211502
0.0227046
0.0243101
0.0259563
0.0276202
0.0293447
0.0314557
0.0344015
0.0465044
0.0468144
0.0370818
0.0613445
0.065831
0.102877
0.00739504
0.00737965
0.00737794
0.00738867
0.00741853
0.00747075
0.00754574
0.00764758
0.00777879
0.00793983
0.00813293
0.00835883
0.0086167
0.00890571
0.00922279
0.00956393
0.00991133
0.0102623
0.0106492
0.0111025
0.0116243
0.0121632
0.0127293
0.0136879
0.0154281
0.0189077
0.0256652
0.0657769
0.176964
0.32693
0
0
0.0134494
0.0284657
0.0642076
0.0877593
0.339687
0.282775
0.281509
0.00742554
0.00746641
0.00752731
0.0076159
0.0077391
0.00790165
0.00809212
0.00831982
0.00859876
0.00893565
0.00933467
0.00979768
0.0103259
0.0109237
0.0115917
0.0123273
0.0131259
0.0139776
0.0148685
0.0157872
0.0167238
0.0176828
0.0186951
0.0198529
0.0212687
0.0229454
0.0248013
0.0267642
0.0288003
0.030833
0.0326428
0.0339989
0.0350469
0.036311
0.0431084
0.115066
0.371536
1.90664
0.0250337
0.00812815
0.00810143
0.00808599
0.00808137
0.0080925
0.00812312
0.00817303
0.00824631
0.00834502
0.00846962
0.0086237
0.00880873
0.00902575
0.00927728
0.00956511
0.00989001
0.010259
0.0106982
0.0112143
0.0117928
0.0124103
0.0130296
0.0135897
0.0141366
0.0147484
0.0157024
0.0170914
0.0193635
0.0234724
0.0367541
0.182335
0.398652
0
0
0
0.048641
0.0357292
0.32483
0.292235
0.00816921
0.00821922
0.00828731
0.00838424
0.00851283
0.00867608
0.00886359
0.00908747
0.00935838
0.00967961
0.0100564
0.0104903
0.0109841
0.0115417
0.0121646
0.0128497
0.0135928
0.0143836
0.0152104
0.0160621
0.0169329
0.01783
0.0187842
0.0198704
0.0211758
0.02271
0.0244222
0.0262748
0.0282894
0.0304937
0.0328744
0.0354511
0.0382533
0.0412364
0.0440447
0.0482445
0.0606942
0.301575
0.0376152
0.00890125
0.00886711
0.00884207
0.00882793
0.00882834
0.00884705
0.0088844
0.00894481
0.0090304
0.00914243
0.00928427
0.00945773
0.00966465
0.00990692
0.0101861
0.0105034
0.0108609
0.0112523
0.0116777
0.012145
0.0126589
0.0132136
0.0137875
0.0143971
0.0150874
0.0159198
0.0169363
0.0180078
0.0192331
0.0210111
0.0248889
0.0420364
0.205918
1.08754
0
0
0.026286
0.0877052
0.305026
0.00894897
0.00900454
0.00907731
0.00918145
0.00931498
0.00947794
0.00966442
0.00988622
0.0101499
0.0104571
0.0108136
0.0112213
0.0116836
0.0122054
0.01279
0.0134374
0.0141452
0.0149095
0.0157224
0.0165769
0.0174706
0.018411
0.0194268
0.0205801
0.021947
0.0235493
0.0253488
0.0273118
0.0294372
0.0317344
0.0341591
0.0365813
0.0388458
0.0407323
0.0420285
0.0419628
0.0408078
0.0414435
0.500789
0.00969792
0.00965466
0.00961827
0.00959127
0.00957872
0.00958219
0.00960224
0.00964358
0.00970804
0.00979667
0.00991371
0.0100603
0.0102385
0.0104509
0.0106995
0.0109873
0.0113153
0.0116899
0.0121229
0.0126138
0.0131486
0.0137115
0.0142873
0.0148949
0.0156066
0.0164942
0.0175614
0.0186753
0.0196935
0.0206046
0.0214226
0.0232131
0.0280636
0.111814
0.470323
0
0
0.0649164
0.283698
0.00975469
0.00981736
0.00989644
0.0100083
0.0101471
0.0103104
0.0104973
0.0107177
0.0109748
0.01127
0.0116086
0.0119926
0.0124264
0.0129155
0.0134638
0.0140722
0.0147412
0.0154678
0.0162467
0.0170744
0.0179483
0.0188777
0.0198883
0.0210283
0.0223628
0.0239158
0.0256588
0.0275688
0.0296506
0.0319308
0.0344028
0.0370449
0.039809
0.0425186
0.0449787
0.0457305
0.0464388
0.036863
0.0723474
0.0105275
0.0104749
0.0104281
0.0103902
0.0103649
0.0103547
0.0103618
0.010388
0.0104357
0.0105071
0.0106057
0.010734
0.0108935
0.0110874
0.0113178
0.0115876
0.0118994
0.0122537
0.0126528
0.0130981
0.0135861
0.0141116
0.0146695
0.0152726
0.0159768
0.0168569
0.0179296
0.0191208
0.0202853
0.0213447
0.0222016
0.0228746
0.0235133
0.0260412
0.0564342
0.422126
0
0.0324593
0.193949
0.0105928
0.010663
0.0107478
0.0108672
0.0110113
0.0111761
0.0113648
0.011584
0.0118349
0.01212
0.0124426
0.0128058
0.0132136
0.0136723
0.0141871
0.0147596
0.0153932
0.0160869
0.0168393
0.017649
0.0185174
0.0194541
0.0204826
0.0216459
0.0229968
0.0245607
0.0263249
0.0282653
0.0303915
0.0327141
0.0352172
0.0378502
0.0404803
0.0428985
0.0449128
0.0453564
0.0459284
0.0391295
0.0359928
0.0113897
0.0113273
0.0112693
0.0112199
0.0111822
0.0111582
0.011149
0.0111588
0.0111904
0.0112443
0.0113215
0.011428
0.0115652
0.0117354
0.0119413
0.012186
0.0124724
0.0128008
0.0131782
0.0136082
0.0140852
0.0145998
0.0151484
0.0157427
0.0164298
0.0172738
0.0182997
0.0194537
0.0206382
0.021786
0.0228657
0.0237703
0.0243991
0.0244183
0.0258518
0.0545556
6.06914
0.0205408
0.109625
0.0114643
0.0115421
0.0116337
0.0117606
0.01191
0.012078
0.0122685
0.0124879
0.012733
0.0130085
0.0133179
0.0136624
0.0140469
0.0144786
0.0149618
0.0155004
0.0160997
0.0167612
0.0174859
0.0182729
0.0191273
0.0200581
0.0210881
0.0222545
0.0235992
0.0251483
0.0268952
0.0288226
0.0309393
0.0332604
0.0357835
0.0384522
0.0412248
0.0438866
0.0462245
0.0471038
0.0473809
0.0423933
0.0340553
0.012288
0.0122156
0.0121464
0.0120853
0.0120354
0.0119979
0.0119739
0.0119681
0.0119821
0.0120192
0.0120802
0.0121653
0.0122825
0.0124323
0.0126172
0.0128404
0.0131049
0.013412
0.0137647
0.0141657
0.0146142
0.0151043
0.0156351
0.0162186
0.0168932
0.0177097
0.0186918
0.0197963
0.0209428
0.0220771
0.0231923
0.0242545
0.0252158
0.0256774
0.0255007
0.0252642
2.95728
0.0566129
0.0535943
0.0123713
0.012458
0.0125569
0.0126912
0.0128461
0.0130178
0.0132113
0.013431
0.0136724
0.0139378
0.0142365
0.0145648
0.0149285
0.0153344
0.0157891
0.0162975
0.0168651
0.0174952
0.0181914
0.0189578
0.0197991
0.0207257
0.0217597
0.0229325
0.0242808
0.0258282
0.0275754
0.0295141
0.0316505
0.0339945
0.0365433
0.0392517
0.0420295
0.0446879
0.0470055
0.0479678
0.0481702
0.0442312
0.035525
0.0132241
0.0131416
0.0130609
0.0129882
0.0129256
0.0128736
0.0128354
0.0128139
0.0128117
0.012829
0.012873
0.0129406
0.0130353
0.0131637
0.0133265
0.0135264
0.0137667
0.01405
0.0143775
0.0147546
0.0151822
0.0156526
0.016167
0.0167369
0.0173949
0.0181836
0.0191238
0.0201835
0.0212908
0.0223917
0.0234785
0.0245374
0.0255609
0.0263729
0.0270415
0.0249852
0.0333257
1.58901
0.0189173
0.0133171
0.0134126
0.0135194
0.0136614
0.0138218
0.0139982
0.0141958
0.0144161
0.0146543
0.0149142
0.0152
0.0155149
0.0158591
0.0162428
0.0166713
0.0171513
0.0176884
0.0182897
0.0189596
0.0197035
0.0205292
0.0214481
0.0224819
0.0236559
0.0250008
0.0265424
0.0282835
0.0302217
0.0323616
0.0347206
0.0372879
0.0400388
0.0428929
0.045673
0.0481466
0.0493366
0.0497078
0.0460313
0.0375157
0.014201
0.0141082
0.0140153
0.0139309
0.013855
0.0137889
0.0137362
0.0136994
0.0136805
0.013681
0.0137056
0.0137558
0.0138292
0.0139369
0.0140786
0.014256
0.0144731
0.0147328
0.015035
0.0153861
0.0157886
0.016236
0.0167309
0.0172837
0.0179224
0.018683
0.0195847
0.0206036
0.0216747
0.0227483
0.0238103
0.0248433
0.0258347
0.0266726
0.0275815
0.0272652
0.0248318
0.668539
0.101411
0.0143047
0.0144085
0.0145239
0.014674
0.0148407
0.0150221
0.0152243
0.0154457
0.0156824
0.0159381
0.0162107
0.0165147
0.0168426
0.0172054
0.0176105
0.0180635
0.018574
0.0191485
0.0197927
0.0205154
0.0213246
0.0222337
0.0232629
0.0244378
0.0257845
0.0273226
0.0290632
0.0310076
0.0331608
0.0355404
0.0381509
0.0409396
0.0438595
0.0467165
0.0493054
0.0506569
0.0512037
0.0478943
0.0395715
0.0152211
0.0151176
0.0150127
0.0149159
0.0148267
0.0147465
0.0146781
0.0146257
0.0145902
0.0145738
0.0145783
0.0146107
0.014668
0.0147516
0.0148719
0.0150266
0.0152204
0.0154563
0.015734
0.01606
0.0164372
0.0168629
0.017337
0.0178704
0.0184864
0.0192181
0.0200818
0.0210571
0.0220914
0.0231404
0.0241814
0.0251975
0.0261608
0.0270085
0.0276534
0.0289402
0.024777
0.124876
18.3829
0.0153347
0.0154489
0.015573
0.0157315
0.0159051
0.0160926
0.0163005
0.0165235
0.0167602
0.0170081
0.0172773
0.017565
0.0178798
0.0182247
0.0186086
0.0190397
0.0195254
0.0200741
0.0206946
0.021396
0.0221878
0.023086
0.0241105
0.0252828
0.026627
0.0281634
0.0299033
0.0318532
0.0340257
0.0364284
0.0390758
0.0419276
0.0449219
0.0479078
0.0506753
0.0522397
0.0529705
0.0500023
0.0417482
0.0162872
0.0161723
0.0160553
0.0159455
0.0158431
0.0157481
0.0156643
0.0155954
0.0155436
0.0155098
0.0154978
0.0155079
0.0155489
0.0156136
0.0157096
0.0158434
0.016014
0.0162259
0.0164798
0.0167801
0.0171312
0.0175333
0.0179855
0.0184973
0.0190896
0.0197905
0.0206153
0.0215472
0.0225457
0.0235649
0.0245846
0.0255864
0.0265345
0.0274022
0.0279242
0.0292364
0.0266308
0.0340833
0.478755
0.0164116
0.0165359
0.0166695
0.0168371
0.0170179
0.0172131
0.0174267
0.0176527
0.0178878
0.0181339
0.0183975
0.0186702
0.0189754
0.019305
0.0196713
0.0200809
0.0205445
0.0210697
0.0216667
0.0223465
0.0231211
0.0240071
0.0250249
0.0261947
0.0275374
0.0290731
0.0308152
0.0327748
0.0349652
0.0374021
0.0400901
0.0430074
0.0461024
0.049229
0.0521579
0.0539737
0.0549025
0.0522927
0.0441105
0.0174025
0.0172763
0.0171466
0.0170228
0.0169066
0.0167957
0.0166963
0.0166117
0.0165426
0.0164923
0.0164624
0.0164537
0.0164731
0.0165211
0.0165933
0.0167058
0.0168536
0.0170408
0.0172702
0.0175441
0.0178694
0.0182473
0.0186763
0.0191647
0.0197316
0.0204015
0.0211876
0.0220784
0.023039
0.0240283
0.0250243
0.0260098
0.0269477
0.027812
0.0284028
0.0291845
0.0287651
0.0278232
0.0712748
0.0175378
0.0176736
0.0178165
0.0179938
0.0181825
0.0183864
0.0186059
0.018835
0.0190716
0.0193177
0.0195708
0.01984
0.0201303
0.0204489
0.0207992
0.0211909
0.0216341
0.0221368
0.0227123
0.023372
0.0241287
0.0250006
0.0260083
0.0271757
0.0285209
0.0300564
0.0317999
0.033768
0.0359797
0.0384456
0.0411845
0.0441741
0.0473762
0.0506546
0.0538025
0.0559057
0.0570743
0.0548054
0.0466853
0.0185699
0.0184317
0.0182884
0.018152
0.0180194
0.017893
0.0177779
0.0176766
0.0175902
0.017523
0.0174746
0.0174493
0.0174454
0.0174755
0.0175295
0.0176158
0.0177412
0.017905
0.0181098
0.0183581
0.0186567
0.0190095
0.019413
0.019876
0.0204158
0.0210543
0.0218026
0.0226519
0.023573
0.0245325
0.0255039
0.0264712
0.0273995
0.0282474
0.0289441
0.0293833
0.0300631
0.0280206
0.0361119
0.0187169
0.0188642
0.019018
0.0192044
0.0194023
0.0196158
0.0198421
0.0200754
0.0203138
0.020559
0.0208088
0.0210739
0.0213501
0.0216611
0.0219966
0.0223714
0.0227946
0.0232786
0.0238329
0.0244719
0.0252127
0.0260736
0.0270746
0.0282377
0.0295792
0.0311156
0.0328646
0.0348419
0.0370731
0.0395768
0.0423695
0.0454474
0.0487611
0.0522101
0.0556107
0.0580466
0.0595034
0.0575718
0.0495156
0.0197923
0.0196423
0.019484
0.0193337
0.0191854
0.0190432
0.018911
0.0187925
0.0186899
0.0186036
0.0185377
0.0184935
0.0184717
0.0184776
0.0185148
0.0185764
0.0186795
0.0188197
0.0189999
0.0192227
0.0194943
0.0198204
0.020199
0.0206351
0.0211464
0.0217519
0.0224616
0.0232702
0.0241522
0.025079
0.0260259
0.0269728
0.0278924
0.0287272
0.0294818
0.0298542
0.030659
0.0295
0.030663
0.0199514
0.0201106
0.0202763
0.020473
0.020681
0.0209035
0.0211387
0.021378
0.0216188
0.0218638
0.0221143
0.022372
0.0226418
0.0229406
0.0232645
0.0236229
0.0240311
0.0244968
0.025033
0.0256566
0.0263828
0.027229
0.0282217
0.0293813
0.0307201
0.0322583
0.0340143
0.0360075
0.0382592
0.0408076
0.0436579
0.0468258
0.0502855
0.0539359
0.0576204
0.0604524
0.0622405
0.0606245
0.0526204
0.0210735
0.0209102
0.020738
0.0205708
0.0204079
0.0202488
0.0200993
0.0199638
0.0198429
0.0197383
0.0196548
0.0195905
0.0195514
0.0195338
0.0195516
0.0195939
0.0196706
0.0197879
0.0199438
0.0201395
0.0203847
0.020684
0.0210363
0.0214448
0.0219253
0.0224968
0.0231691
0.0239372
0.0247809
0.0256729
0.0265933
0.0275183
0.0284273
0.0292571
0.0300293
0.0304743
0.0311013
0.0310104
0.0303115
0.0212451
0.0214174
0.0215942
0.0218021
0.0220222
0.0222544
0.0224984
0.0227441
0.0229898
0.0232358
0.0234871
0.0237385
0.0240065
0.0242897
0.0246062
0.0249548
0.0253486
0.0257986
0.0263208
0.0269291
0.0276397
0.028474
0.0294584
0.0306118
0.0319519
0.033493
0.0352551
0.0372655
0.0395504
0.04214
0.0450673
0.0483354
0.0519608
0.0558468
0.0598716
0.0631601
0.0653418
0.0640311
0.0560377
0.0224171
0.0222407
0.0220522
0.02187
0.0216898
0.0215127
0.021346
0.0211926
0.0210534
0.0209307
0.0208275
0.0207454
0.0206856
0.0206495
0.0206415
0.0206672
0.0207172
0.0208108
0.020943
0.0211123
0.0213308
0.0216021
0.0219262
0.0223063
0.0227565
0.0232934
0.0239273
0.0246542
0.0254584
0.0263166
0.0272093
0.0281118
0.029007
0.0298379
0.0306136
0.0311541
0.0316575
0.0321824
0.0313084
0.0226007
0.0227875
0.0229773
0.0231957
0.023428
0.0236727
0.0239265
0.024179
0.0244301
0.0246801
0.0249311
0.0251821
0.0254471
0.0257173
0.02603
0.0263695
0.0267499
0.0271888
0.0276984
0.0282922
0.0289891
0.0298136
0.03079
0.0319381
0.0332789
0.0348247
0.0365963
0.0386246
0.0409453
0.0435891
0.0466001
0.0500019
0.0538102
0.0579762
0.062396
0.0662436
0.0688961
0.0678515
0.0597894
0.0238273
0.0236357
0.0234309
0.0232319
0.023034
0.0228395
0.0226542
0.0224817
0.0223245
0.0221833
0.0220601
0.0219585
0.0218783
0.0218233
0.0217903
0.0217961
0.021825
0.0218915
0.0220001
0.0221449
0.0223351
0.0225792
0.0228749
0.0232255
0.0236442
0.0241459
0.0247403
0.0254264
0.0261908
0.027014
0.0278765
0.028758
0.0296383
0.0304716
0.0312516
0.0318681
0.0323613
0.0331256
0.0326452
0.0240234
0.0242244
0.0244276
0.0246587
0.0249037
0.0251613
0.0254255
0.0256886
0.0259449
0.0261997
0.0264515
0.0267083
0.0269624
0.0272384
0.0275357
0.0278681
0.0282437
0.0286726
0.0291698
0.0297513
0.0304364
0.031251
0.0322175
0.0333634
0.0347066
0.0362569
0.0380454
0.0400997
0.0424564
0.0451655
0.0482698
0.0518155
0.0558294
0.0603176
0.0652267
0.0697326
0.0729806
0.0721607
0.0639083
0.0253063
0.0250987
0.0248768
0.0246607
0.0244459
0.0242322
0.0240279
0.0238363
0.0236591
0.0234987
0.0233568
0.0232343
0.0231343
0.0230588
0.0230058
0.0229865
0.0229955
0.0230362
0.0231199
0.0232403
0.0234029
0.0236177
0.0238858
0.0242064
0.0245917
0.0250582
0.0256148
0.0262601
0.0269845
0.0277713
0.0286028
0.0294612
0.0303272
0.03116
0.0319505
0.0326227
0.0331757
0.0340292
0.034005
0.0255159
0.025731
0.0259497
0.026194
0.0264531
0.0267236
0.0270017
0.0272749
0.0275395
0.027799
0.028055
0.0283122
0.028569
0.0288427
0.0291282
0.0294649
0.0298336
0.0302524
0.0307377
0.0313079
0.0319826
0.0327872
0.0337463
0.034894
0.0362407
0.0378022
0.0396071
0.0416892
0.0440916
0.0468672
0.0500736
0.0537851
0.058044
0.0629051
0.068389
0.0736924
0.0776824
0.0770744
0.0684834
0.0268586
0.0266354
0.0263962
0.0261618
0.0259279
0.025694
0.025471
0.025259
0.0250616
0.0248804
0.0247183
0.0245771
0.0244567
0.024359
0.0242867
0.0242427
0.024232
0.0242431
0.0243015
0.0243965
0.0245306
0.0247159
0.0249547
0.025246
0.0255974
0.0260292
0.0265483
0.027154
0.027839
0.0285898
0.0293912
0.0302249
0.0310748
0.0319062
0.0327123
0.0334309
0.034069
0.0349893
0.035352
0.0270834
0.0273118
0.0275463
0.027806
0.0280802
0.0283647
0.0286575
0.0289408
0.0292169
0.0294832
0.0297456
0.0300047
0.0302672
0.0305365
0.0308248
0.0311554
0.0315164
0.0319251
0.0324029
0.0329669
0.0336342
0.0344314
0.0353913
0.0365412
0.0378907
0.0394656
0.0412881
0.0434023
0.0458567
0.0487077
0.0520343
0.0559262
0.0604732
0.0657675
0.0719448
0.0782415
0.0832231
0.0827478
0.0735106
0.0284895
0.0282497
0.0279909
0.0277377
0.0274842
0.0272309
0.0269866
0.0267539
0.026535
0.0263339
0.0261512
0.0259884
0.0258475
0.0257288
0.0256357
0.0255642
0.025533
0.0255214
0.0255509
0.0256212
0.0257276
0.0258826
0.0260925
0.0263522
0.0266709
0.0270654
0.0275464
0.0281125
0.0287584
0.0294728
0.0302431
0.0310527
0.0318874
0.0327201
0.0335408
0.0343033
0.0350299
0.0360336
0.0367127
0.0287299
0.0289735
0.0292236
0.0294975
0.029789
0.0300919
0.0303952
0.0306925
0.0309807
0.0312568
0.031525
0.0317897
0.0320591
0.0323279
0.0326205
0.0329357
0.0332962
0.0337034
0.0341813
0.0347396
0.0354013
0.0361977
0.0371582
0.0383054
0.039664
0.0412537
0.0431002
0.045249
0.0477627
0.0507075
0.0541721
0.058272
0.0631364
0.0689642
0.0759785
0.0835621
0.0898197
0.0893425
0.0790795
0.0302023
0.0299447
0.0296665
0.0293943
0.0291201
0.0288457
0.0285786
0.0283241
0.0280853
0.0278623
0.0276583
0.0274741
0.0273114
0.0271717
0.0270554
0.0269629
0.0269042
0.0268733
0.026875
0.0269205
0.0270012
0.0271259
0.0273057
0.0275334
0.0278203
0.0281785
0.0286189
0.0291449
0.0297512
0.0304284
0.0311668
0.0319519
0.0327716
0.0336025
0.0344387
0.0352475
0.0360581
0.0371624
0.038116
0.0304579
0.0307185
0.0309862
0.0312773
0.0315841
0.0319055
0.0322251
0.0325361
0.0328361
0.0331247
0.0334015
0.0336741
0.0339479
0.0342194
0.0345144
0.0348226
0.0351922
0.035603
0.0360772
0.0366286
0.0372891
0.038082
0.0390388
0.0401887
0.0415584
0.0431672
0.0450446
0.0472397
0.0498157
0.0528623
0.0564806
0.0608148
0.0660622
0.0725164
0.0805015
0.089744
0.0977745
0.0970841
0.0852144
0.0320024
0.0317255
0.0314273
0.0311347
0.0308403
0.0305427
0.0302529
0.0299756
0.0297153
0.0294695
0.0292438
0.0290387
0.0288539
0.0286916
0.028552
0.0284379
0.0283526
0.0283034
0.028271
0.028291
0.0283446
0.0284403
0.0285881
0.0287856
0.029039
0.0293628
0.0297661
0.0302533
0.0308202
0.031461
0.0321679
0.032927
0.0337327
0.0345605
0.0354146
0.0362677
0.0371597
0.0383675
0.0395756
0.0322751
0.0325513
0.0328375
0.033147
0.0334719
0.0338102
0.0341501
0.0344772
0.0347899
0.0350922
0.0353807
0.0356611
0.0359422
0.0362241
0.0365178
0.0368365
0.0372045
0.0376134
0.0380824
0.038632
0.0392933
0.040082
0.0410428
0.042203
0.0435877
0.0452189
0.0471283
0.0493731
0.0520274
0.0551805
0.058958
0.0635535
0.0692173
0.0763459
0.0855951
0.096964
0.10759
0.106378
0.0919468
0.0338942
0.0335983
0.0332807
0.0329663
0.0326478
0.0323267
0.0320132
0.0317138
0.031429
0.0311614
0.0309134
0.0306848
0.030477
0.030292
0.0301303
0.0299943
0.029877
0.0298057
0.0297513
0.0297388
0.0297659
0.0298328
0.0299499
0.0301167
0.0303365
0.0306245
0.0309928
0.0314411
0.0319681
0.0325734
0.0332476
0.0339838
0.0347728
0.0356002
0.0364697
0.03737
0.0383464
0.0396574
0.0410985
0.0341856
0.0344795
0.034784
0.0351128
0.0354567
0.0358143
0.0361732
0.0365166
0.0368481
0.0371633
0.0374642
0.0377579
0.0380447
0.038342
0.038637
0.0389681
0.0393206
0.0397358
0.0402071
0.0407609
0.0414202
0.042215
0.0431832
0.044355
0.0457608
0.0474182
0.0493662
0.0516616
0.0543893
0.0576658
0.0616238
0.0664959
0.0726113
0.0805129
0.0912455
0.105492
0.120008
0.117662
0.0994256
0.0358855
0.0355673
0.0352278
0.0348912
0.0345485
0.0342025
0.0338672
0.0335424
0.0332326
0.0329409
0.0326697
0.0324185
0.0321879
0.0319797
0.031793
0.0316332
0.0314955
0.0313919
0.031318
0.031276
0.0312757
0.0313157
0.0314013
0.0315372
0.031724
0.031978
0.0323071
0.0327164
0.0332047
0.0337742
0.0344174
0.0351269
0.0358997
0.0367272
0.0376146
0.0385618
0.0396185
0.041033
0.0426909
0.0361959
0.0365034
0.0368291
0.0371791
0.0375455
0.0379211
0.0383007
0.0386637
0.0390119
0.0393441
0.03966
0.0399674
0.0402626
0.0405703
0.040877
0.0412123
0.0415583
0.0419903
0.0424671
0.0430258
0.0436848
0.0444883
0.0454667
0.046652
0.0480761
0.0497646
0.0517556
0.0541117
0.0569234
0.0603208
0.0644795
0.0696437
0.0762591
0.0850509
0.0974457
0.115472
0.13638
0.131566
0.107558
0.0379752
0.0376375
0.0372782
0.0369162
0.0365484
0.0361788
0.0358166
0.0354661
0.035132
0.0348158
0.0345192
0.0342443
0.0339885
0.0337579
0.0335492
0.0333625
0.0332022
0.0330711
0.0329774
0.0328988
0.0328721
0.0328819
0.0329377
0.0330416
0.0331977
0.0334166
0.0337098
0.0340816
0.0345362
0.0350692
0.0356812
0.0363657
0.0371245
0.0379504
0.0388551
0.0398447
0.0409832
0.0425011
0.0443534
0.0383107
0.0386358
0.0389785
0.0393508
0.0397385
0.0401378
0.0405365
0.0409235
0.0412879
0.0416405
0.0419723
0.0422925
0.0426065
0.0429191
0.0432451
0.0435747
0.043955
0.0443698
0.0448574
0.045421
0.0460881
0.0469015
0.0478933
0.0491004
0.0505484
0.0522659
0.0542989
0.0567185
0.0596262
0.0631528
0.0675094
0.073
0.0801294
0.0898816
0.104283
0.127272
0.159385
0.148786
0.116114
0.0401767
0.0398186
0.0394345
0.0390478
0.0386541
0.0382572
0.0378689
0.0374928
0.037131
0.0367897
0.0364687
0.0361688
0.0358891
0.0356305
0.0353981
0.0351869
0.0350041
0.0348396
0.0347229
0.0346187
0.0345592
0.0345402
0.0345656
0.0346379
0.0347629
0.0349497
0.0352076
0.0355439
0.035961
0.0364607
0.0370423
0.0377043
0.0384487
0.039273
0.0401947
0.0412297
0.0424472
0.044066
0.0460975
0.0405316
0.0408808
0.0412425
0.0416382
0.042046
0.0424697
0.0428919
0.0432983
0.0436847
0.0440564
0.0444072
0.044746
0.0450772
0.0453998
0.0457374
0.0460876
0.0464726
0.0468756
0.0473892
0.0479621
0.0486411
0.0494654
0.0504706
0.0516947
0.0531644
0.0549176
0.0570038
0.0594897
0.0624847
0.0661576
0.0707108
0.076525
0.0841916
0.0949297
0.111419
0.140667
0.194665
0.16956
0.12466
0.0424975
0.0421153
0.0417052
0.0412915
0.0408705
0.0404467
0.0400297
0.0396252
0.0392374
0.0388699
0.0385223
0.0381945
0.0378929
0.0376096
0.0373486
0.0371121
0.0369004
0.0367148
0.0365633
0.0364407
0.0363499
0.0363058
0.0363014
0.0363432
0.0364351
0.0365895
0.0368141
0.0371135
0.0374927
0.0379592
0.038511
0.0391496
0.0398792
0.0407031
0.0416443
0.0427212
0.0440161
0.0457338
0.0479277
0.0428701
0.043241
0.0436244
0.0440412
0.0444738
0.0449202
0.0453704
0.0457988
0.0462064
0.0466015
0.046975
0.0473276
0.0476711
0.0480164
0.0483678
0.0487342
0.0491162
0.0495515
0.0500708
0.0506479
0.0513368
0.0521672
0.0531869
0.0544298
0.0559353
0.0577322
0.0598653
0.0624177
0.0655158
0.0693146
0.0740669
0.0801851
0.088354
0.100014
0.118533
0.154646
0.257323
0.191921
0.132958
0.0449411
0.0445313
0.0440943
0.0436525
0.0432058
0.0427521
0.0423052
0.0418737
0.0414585
0.0410604
0.0406847
0.0403319
0.0400023
0.0396955
0.0394074
0.0391464
0.0389074
0.0386946
0.0385135
0.0383735
0.0382431
0.0381712
0.0381392
0.0381506
0.038214
0.0383336
0.0385276
0.0387926
0.0391388
0.0395709
0.0400952
0.0407098
0.0414257
0.0422511
0.0432086
0.0443274
0.0456991
0.0475096
0.0498496
0.0453331
0.0457218
0.0461294
0.046571
0.0470279
0.0474997
0.0479721
0.0484271
0.0488611
0.0492746
0.0496714
0.0500431
0.0504096
0.0507701
0.0511364
0.0515238
0.0519149
0.052375
0.0528743
0.053471
0.0541704
0.0550175
0.0560636
0.0573393
0.0588777
0.0607061
0.0628897
0.0655186
0.068698
0.0726215
0.0775584
0.0839489
0.092558
0.104928
0.125102
0.166587
0.369296
0.208639
0.140237
0.0475059
0.0470746
0.0466115
0.0461424
0.0456674
0.0451803
0.0447034
0.0442435
0.0437953
0.0433689
0.042966
0.0425866
0.0422292
0.0418922
0.0415816
0.0412922
0.0410265
0.0407893
0.0405707
0.0404052
0.0402531
0.0401448
0.0400832
0.0400659
0.0400981
0.0401902
0.0403509
0.0405855
0.0409013
0.0413038
0.0417975
0.0423921
0.0430976
0.043922
0.0448961
0.0460575
0.0475006
0.0494023
0.0518695
0.0479287
0.0483371
0.0487657
0.0492326
0.0497169
0.0502116
0.0507093
0.0511895
0.0516505
0.0520915
0.0525088
0.0529041
0.0532942
0.0536679
0.0540505
0.0544564
0.0548689
0.0553331
0.0558267
0.056455
0.0571776
0.0580465
0.059109
0.0604054
0.0619709
0.0638449
0.0660711
0.0687577
0.0720264
0.0760676
0.0811577
0.0877548
0.0967007
0.109601
0.130533
0.173039
0.325115
0.210083
0.145768
0.0502147
0.0497569
0.0492614
0.0487673
0.0482574
0.0477389
0.0472327
0.0467384
0.0462606
0.0458041
0.0453705
0.0449604
0.0445786
0.0442134
0.0438717
0.043558
0.0432649
0.0429978
0.0427567
0.0425524
0.0423806
0.0422422
0.0421507
0.0421067
0.0421088
0.0421725
0.0422997
0.0425042
0.04279
0.0431638
0.0436301
0.0442069
0.0448986
0.0457252
0.0467162
0.0479176
0.0494284
0.051416
0.0539987
0.0506569
0.0510894
0.0515442
0.0520353
0.0525418
0.0530635
0.0535905
0.054098
0.0545856
0.0550482
0.055492
0.0559153
0.0563206
0.0567244
0.0571224
0.0575355
0.0579778
0.0584392
0.0589732
0.059612
0.0603461
0.0612208
0.0622956
0.0636208
0.0652178
0.0671215
0.0694027
0.0721476
0.0754813
0.0796108
0.0848144
0.0915691
0.100693
0.113755
0.134452
0.173119
0.247904
0.199939
0.149399
0.0530656
0.0525783
0.0520586
0.0515293
0.0509884
0.0504404
0.0498975
0.049369
0.0488605
0.0483727
0.0479074
0.0474675
0.0470549
0.046665
0.0462934
0.0459498
0.04563
0.0453356
0.0450657
0.0448359
0.0446325
0.0444647
0.0443462
0.044274
0.0442514
0.0442859
0.0443852
0.0445598
0.0448137
0.0451574
0.0456035
0.0461575
0.0468394
0.0476665
0.0486763
0.0499151
0.0514895
0.0535578
0.0562451
0.0535374
0.0539891
0.0544648
0.0549834
0.0555167
0.0560715
0.0566211
0.0571551
0.0576717
0.0581601
0.0586274
0.0590799
0.0595106
0.0599289
0.0603507
0.0607743
0.0612403
0.0617203
0.06228
0.0629019
0.0636506
0.0645491
0.065644
0.0669967
0.0686207
0.0705719
0.0728907
0.0756689
0.0790624
0.0832647
0.08853
0.0953186
0.10443
0.117265
0.136752
0.168618
0.209065
0.187601
0.151186
0.0560699
0.0555583
0.0550069
0.0544445
0.053868
0.0532851
0.0527092
0.0521445
0.0515992
0.0510806
0.0505852
0.0501128
0.0496678
0.0492474
0.048849
0.0484769
0.0481291
0.0478054
0.0475091
0.0472519
0.0470207
0.0468218
0.046681
0.0465813
0.0465292
0.0465371
0.0466111
0.0467563
0.0469804
0.0472994
0.0477232
0.0482584
0.048932
0.0497598
0.0507858
0.0520596
0.0536952
0.055839
0.0586184
0.056566
0.0570481
0.0575471
0.0580895
0.0586513
0.0592296
0.059806
0.0603715
0.0609072
0.0614343