/*--------------------------------*- C++ -*----------------------------------*\
| =========                 |                                                 |
| \\      /  F ield         | OpenFOAM: The Open Source CFD Toolbox           |
|  \\    /   O peration     | Version:  2506                                  |
|   \\  /    A nd           | Website:  www.openfoam.com                      |
|    \\/     M anipulation  |                                                 |
\*---------------------------------------------------------------------------*/
FoamFile
{
    version     2.0;
    format      ascii;
    arch        "LSB;label=32;scalar=64";
    class       volScalarField;
    location    "150";
    object      turbulenceProperties:epsilon;
}
// * * * * * * * * * * * * * * * * * * * * * * * * * * * * * * * * * * * * * //

dimensions      [0 2 -3 0 0 0 0];

internalField   nonuniform List<scalar> 
10720
(
0.221213
0.291698
0.391177
0.541961
0.735285
1.00013
1.3584
1.8175
2.41051
3.17085
4.13946
5.41369
7.10016
9.38084
12.5558
17.136
23.8575
34.3238
50.3162
78.3793
121.288
212.911
360.559
764.014
951.95
926.516
876.275
848.905
831.446
806.274
767.206
714.72
649.788
573.945
487.107
392.624
280.684
180.289
34.671
0.164715
0.124009
0.0840292
0.0553434
0.0333585
0.0181114
0.00939144
0.00607045
0.00813869
0.0156827
0.0330019
0.0675781
0.130308
0.234791
0.395786
0.634259
0.986903
1.52496
2.38583
3.81945
6.35105
10.9089
19.9454
37.3762
77.0778
158.789
364.522
728.035
1002.97
1115.92
1145.1
1144.74
1129.38
1101.7
1062.63
1014.05
945.361
866.682
641.993
0.00700326
0.00694103
0.006791
0.00641763
0.00585851
0.00523974
0.00454959
0.00382947
0.00317458
0.0025854
0.00209098
0.00170049
0.00153666
0.00168818
0.00241092
0.00462804
0.0109087
0.0284949
0.0806037
0.264974
0.876364
3.44107
11.1223
41.2365
93.5271
143.364
179.016
194.479
185.002
154.099
114.497
79.8028
55.4779
39.8513
29.9147
23.3493
19.3802
16.5695
19.7288
0.0068659
0.00666115
0.00628432
0.00575154
0.00505387
0.00419737
0.00333871
0.00263383
0.00201807
0.0014756
0.00104844
0.000738338
0.00051632
0.000357238
0.000244603
0.000166148
0.000111402
7.35235e-05
4.65918e-05
2.71437e-05
1.28622e-05
3.98516e-06
3.7651e-07
4.61719e-09
1.05404e-06
0.00127867
0.00835938
0.0643133
0.197863
0.357159
0.514234
0.672356
0.838783
1.01806
1.21076
1.42918
1.68045
2.31801
4.30174
0.00316461
0.0031027
0.0029535
0.00273724
0.00251908
0.00228874
0.00206541
0.00187302
0.00171424
0.00159323
0.00150459
0.00144002
0.00141452
0.00141535
0.00145041
0.00140832
0.00111932
0.000805693
0.000254444
0.0121644
0.0230926
0.0147483
0.0231616
8.81907e-05
0.0644103
0.434683
1.70096
5.37358
13.9749
28.5432
45.1886
55.5609
54.5346
45.4217
34.6528
25.5871
19.3979
14.1111
17.6283
0.00322014
0.00321734
0.00320254
0.00309449
0.0028939
0.00255895
0.00214744
0.00174852
0.00140799
0.00107927
0.000779617
0.000539049
0.000361585
0.000236742
0.000153726
0.000100132
6.66125e-05
4.59232e-05
3.34317e-05
2.58004e-05
2.12056e-05
1.85775e-05
1.73369e-05
1.68717e-05
1.70831e-05
1.70904e-05
1.889e-05
6.02238e-06
0.000238109
0.00115678
0.00231245
0.00423268
0.0115882
0.0314628
0.0691501
0.124985
0.196126
0.240975
0.603757
0.00222227
0.00223161
0.00220905
0.00217095
0.00209644
0.00198785
0.00185666
0.00169976
0.00152911
0.00135088
0.00117282
0.00100145
0.000838528
0.000685726
0.000547557
0.00041889
0.000304252
0.000218259
0.000138766
6.59072e-05
4.40664e-07
0.000436465
2.11831e-12
0.00357737
0.0230677
0.0391798
0.058101
0.0286052
0.00925135
0.0107096
0.350464
2.43419
8.01307
15.8186
21.2841
21.8113
19.5452
15.435
17.36
0.00217559
0.00210702
0.00200245
0.00187925
0.00172592
0.0015332
0.00132467
0.00112257
0.000923343
0.000727755
0.00055392
0.000413953
0.000306947
0.000226988
0.000168675
0.000126462
9.628e-05
7.47182e-05
5.93896e-05
4.82029e-05
3.99693e-05
3.36318e-05
2.83935e-05
2.332e-05
1.85945e-05
1.50934e-05
1.2668e-05
1.11786e-05
8.83264e-06
7.97504e-06
2.18415e-06
1.28642e-06
2.35555e-05
1.37166e-05
0.000102217
0.00110548
0.00589482
0.0215817
0.154943
0.00126536
0.00125982
0.0012392
0.00120326
0.00114993
0.00107971
0.0009978
0.000906993
0.000811774
0.000718687
0.000631273
0.000552475
0.000484425
0.000428236
0.000383477
0.000349713
0.000318168
0.000282914
0.000244024
0.000208473
0.000124212
1.89838e-05
1.25511e-09
1.42451e-08
2.38676e-12
0
0
0.0105731
0.0154649
0.0346516
0.0266256
0.0319272
0.0113782
0.211198
2.06298
6.57142
11.5124
13.4355
16.4449
0.00125847
0.00124082
0.00120594
0.00115089
0.00107289
0.00096953
0.000855739
0.000741627
0.000626257
0.000511233
0.000404836
0.000312978
0.000237182
0.000176587
0.000129738
9.45311e-05
6.8754e-05
5.0281e-05
3.72909e-05
2.81813e-05
2.18072e-05
1.72539e-05
1.3856e-05
1.09677e-05
8.365e-06
6.2647e-06
4.83049e-06
3.96092e-06
3.66809e-06
3.05877e-06
5.0635e-06
6.42174e-08
1.22851e-05
6.20035e-05
1.66598e-05
4.25753e-05
8.72532e-05
0.000304092
0.0168456
0.000844135
0.000850832
0.000849731
0.000842779
0.000825981
0.000799369
0.000764401
0.000720618
0.000669683
0.000613803
0.000554376
0.000493592
0.000433558
0.000375782
0.000321729
0.000271384
0.000221847
0.000175054
0.000135461
0.000103844
8.194e-05
6.19236e-05
3.73571e-05
4.97801e-06
7.85178e-10
1.67633e-08
6.14085e-09
3.85477e-10
0
0
0.00250659
0.00851797
0.00332951
0.0198708
0.0250799
0.125785
1.9394
6.73367
13.0259
0.000829359
0.000809366
0.000780589
0.000742588
0.00069308
0.000632147
0.000567382
0.000500724
0.000431495
0.000361702
0.00029561
0.000236568
0.000186222
0.000144655
0.000111373
8.54905e-05
6.57989e-05
5.10651e-05
4.01704e-05
3.21017e-05
2.60694e-05
2.14141e-05
1.76115e-05
1.41728e-05
1.09634e-05
8.27461e-06
6.23096e-06
4.74099e-06
3.64786e-06
2.8453e-06
2.23299e-06
1.6909e-06
1.18069e-06
3.64239e-07
3.43997e-07
3.29719e-06
1.15664e-05
6.24229e-05
0.00128374
0.000553515
0.000558146
0.000558669
0.000555435
0.000546551
0.000531436
0.000510626
0.000483973
0.00045214
0.000416562
0.000378391
0.000339118
0.000300313
0.000263192
0.000228827
0.00019789
0.000171578
0.000149291
0.000128757
0.000108987
9.07285e-05
7.58226e-05
6.33755e-05
4.71846e-05
2.90577e-05
1.32308e-05
4.39305e-06
2.13226e-07
1.01253e-08
1.55007e-09
0
0
9.36761e-05
0.00234366
0.0179305
0.0182452
0.0201319
1.15482
6.99979
0.00054447
0.000532647
0.000515612
0.000492035
0.000461434
0.000424619
0.000386035
0.000345485
0.000302794
0.000259653
0.000218027
0.000179646
0.000145613
0.000116265
9.16951e-05
7.169e-05
5.57726e-05
4.33731e-05
3.38758e-05
2.66531e-05
2.11655e-05
1.69348e-05
1.35545e-05
1.06589e-05
8.09196e-06
5.97384e-06
4.37682e-06
3.22746e-06
2.40719e-06
1.83259e-06
1.45884e-06
1.23986e-06
1.09775e-06
9.50301e-07
4.85561e-07
1.98944e-08
5.71611e-10
4.67912e-12
4.63289e-05
0.000379239
0.000384269
0.000387217
0.000388108
0.000385979
0.000380199
0.000371002
0.000357995
0.000341361
0.000321717
0.000299339
0.000274976
0.000249474
0.000223505
0.000197798
0.000173066
0.000149483
0.000126415
0.000104704
8.5625e-05
6.98167e-05
5.7463e-05
4.85938e-05
4.15583e-05
3.5196e-05
2.74405e-05
1.95217e-05
1.17363e-05
5.48123e-06
1.12219e-06
7.77257e-09
7.15583e-10
0
0
0
0.00255218
0.00167224
0.0387539
2.03027
0.000371669
0.000362709
0.000350933
0.000334984
0.000315191
0.000292129
0.000268185
0.000242722
0.000215817
0.000188566
0.000161858
0.000136696
0.000113725
9.32897e-05
7.5603e-05
6.07235e-05
4.84952e-05
3.86782e-05
3.09303e-05
2.4874e-05
2.01389e-05
1.6382e-05
1.32987e-05
1.06209e-05
8.23456e-06
6.22499e-06
4.65463e-06
3.4744e-06
2.58556e-06
1.91523e-06
1.4179e-06
1.04849e-06
7.73467e-07
5.72786e-07
4.40582e-07
3.03903e-07
1.28414e-07
1.01943e-09
8.68027e-07
0.000263675
0.000267761
0.000270809
0.000272552
0.000272505
0.00027021
0.000265698
0.000258597
0.000248934
0.00023696
0.00022281
0.000206912
0.000189755
0.000171866
0.000153786
0.00013603
0.000118989
0.000103278
8.90335e-05
7.61034e-05
6.44792e-05
5.43158e-05
4.58243e-05
3.85428e-05
3.19772e-05
2.58436e-05
2.02359e-05
1.59193e-05
1.22711e-05
8.54263e-06
4.29917e-06
6.76162e-07
4.97596e-09
3.30608e-11
0
0
0.000195376
0.00385611
0.283416
0.000258093
0.000251782
0.000243806
0.000232932
0.000219856
0.00020512
0.000189743
0.000173283
0.000155966
0.000138436
0.000121064
0.000104408
8.88376e-05
7.45946e-05
6.18646e-05
5.07758e-05
4.13513e-05
3.35027e-05
2.70938e-05
2.1925e-05
1.77714e-05
1.44097e-05
1.16242e-05
9.22977e-06
7.13666e-06
5.3839e-06
4.01039e-06
2.97598e-06
2.2053e-06
1.63286e-06
1.21637e-06
9.24872e-07
7.27401e-07
6.01734e-07
5.31044e-07
5.34922e-07
6.01737e-07
5.60623e-07
2.90365e-10
0.000187133
0.000190511
0.000193413
0.000195602
0.000196632
0.00019635
0.000194718
0.000191403
0.000186372
0.000179721
0.000171386
0.000161616
0.000150656
0.000138779
0.000126326
0.000113606
0.000100997
8.86627e-05
7.66593e-05
6.5407e-05
5.53978e-05
4.68476e-05
3.97412e-05
3.36424e-05
2.79095e-05
2.23711e-05
1.74175e-05
1.36413e-05
1.10692e-05
9.28549e-06
8.01105e-06
5.74101e-06
2.6733e-06
3.05452e-08
3.99277e-10
0
0
0.00104016
0.0343663
0.000182814
0.000178191
0.000172564
0.00016498
0.000156136
0.000146475
0.000136316
0.00012545
0.000114103
0.000102609
9.11526e-05
8.00288e-05
6.94262e-05
5.94926e-05
5.03785e-05
4.22148e-05
3.50582e-05
2.89212e-05
2.37612e-05
1.94786e-05
1.59535e-05
1.30363e-05
1.05821e-05
8.46742e-06
6.62033e-06
5.06117e-06
3.81997e-06
2.86647e-06
2.14239e-06
1.59297e-06
1.1822e-06
8.79369e-07
6.59447e-07
5.06792e-07
4.04639e-07
3.78998e-07
3.55384e-07
9.36678e-07
9.72796e-08
0.000134761
0.000137486
0.000139974
0.000142029
0.000143423
0.00014399
0.000143598
0.000142158
0.000139576
0.000135826
0.000130844
0.000124703
0.000117558
0.000109548
0.000100899
9.18263e-05
8.25764e-05
7.34328e-05
6.45998e-05
5.62535e-05
4.85975e-05
4.17542e-05
3.57575e-05
3.04364e-05
2.54152e-05
2.05073e-05
1.60214e-05
1.23871e-05
9.78318e-06
7.99066e-06
6.85143e-06
6.12275e-06
5.53066e-06
3.59216e-06
2.44666e-07
5.513e-10
0
0.0001035
0.00891278
0.000131467
0.00012804
0.000124045
0.000118686
0.000112591
0.000106095
9.92256e-05
9.19238e-05
8.4375e-05
7.67132e-05
6.9063e-05
6.15546e-05
5.4302e-05
4.73728e-05
4.08634e-05
3.48831e-05
2.94847e-05
2.47191e-05
2.05887e-05
1.70629e-05
1.40805e-05
1.15585e-05
9.40627e-06
7.54147e-06
5.91973e-06
4.55009e-06
3.44768e-06
2.59413e-06
1.94095e-06
1.44575e-06
1.07655e-06
8.06873e-07
6.16769e-07
4.89067e-07
4.07018e-07
3.91642e-07
3.71402e-07
7.17499e-07
9.84474e-07
9.83584e-05
0.000100543
0.000102631
0.000104451
0.000105868
0.000106785
0.000107137
0.000106764
0.000105564
0.000103555
0.000100759
9.70577e-05
9.25358e-05
8.72829e-05
8.14187e-05
7.50736e-05
6.84143e-05
6.16605e-05
5.48954e-05
4.82799e-05
4.20661e-05
3.64426e-05
3.14447e-05
2.69597e-05
2.27263e-05
1.86001e-05
1.4767e-05
1.15621e-05
9.1269e-06
7.35012e-06
6.05908e-06
5.19729e-06
4.70398e-06
4.7633e-06
3.73977e-06
2.70217e-07
1.83182e-13
2.69058e-05
0.00287221
9.58212e-05
9.32632e-05
9.03606e-05
8.65265e-05
8.22629e-05
7.77819e-05
7.30625e-05
6.80635e-05
6.2971e-05
5.78052e-05
5.2618e-05
4.75095e-05
4.25178e-05
3.76692e-05
3.3034e-05
2.86772e-05
2.46399e-05
2.09748e-05
1.77081e-05
1.48488e-05
1.23685e-05
1.02277e-05
8.37126e-06
6.74958e-06
5.33793e-06
4.13937e-06
3.16431e-06
2.39915e-06
1.80701e-06
1.35303e-06
1.00997e-06
7.57483e-07
5.73383e-07
4.46454e-07
3.62761e-07
3.36516e-07
3.28504e-07
5.13594e-07
1.23217e-06
7.25971e-05
7.43351e-05
7.60439e-05
7.75963e-05
7.88898e-05
7.98817e-05
8.05256e-05
8.06832e-05
8.03086e-05
7.93222e-05
7.7733e-05
7.55809e-05
7.27386e-05
6.9295e-05
6.5324e-05
6.09003e-05
5.61314e-05
5.11653e-05
4.61197e-05
4.11161e-05
3.62971e-05
3.18112e-05
2.77077e-05
2.39311e-05
2.03323e-05
1.68352e-05
1.35668e-05
1.07836e-05
8.60915e-06
6.97138e-06
5.72346e-06
4.78485e-06
4.0971e-06
3.82592e-06
3.99015e-06
4.19306e-06
1.5554e-12
2.45905e-07
0.000712343
7.06623e-05
6.87155e-05
6.65763e-05
6.38047e-05
6.0781e-05
5.76364e-05
5.43343e-05
5.08659e-05
4.73684e-05
4.38628e-05
4.02963e-05
3.67845e-05
3.33291e-05
2.99383e-05
2.66358e-05
2.34645e-05
2.04619e-05
1.76699e-05
1.51163e-05
1.28162e-05
1.07731e-05
8.97198e-06
7.38458e-06
5.986e-06
4.76319e-06
3.72032e-06
2.86339e-06
2.18202e-06
1.64995e-06
1.23986e-06
9.28528e-07
6.97603e-07
5.30698e-07
4.15265e-07
3.3925e-07
3.1285e-07
3.07686e-07
4.32584e-07
1.042e-06
5.41236e-05
5.54955e-05
5.68802e-05
5.81657e-05
5.93011e-05
6.02653e-05
6.09872e-05
6.13975e-05
6.14408e-05
6.11109e-05
6.028e-05
5.90308e-05
5.7334e-05
5.51314e-05
5.24868e-05
4.94526e-05
4.60899e-05
4.2484e-05
3.87448e-05
3.49337e-05
3.11615e-05
2.75822e-05
2.42365e-05
2.11011e-05
1.80857e-05
1.51468e-05
1.23814e-05
9.97937e-06
8.06021e-06
6.5886e-06
5.45091e-06
4.569e-06
3.87885e-06
3.4238e-06
3.09814e-06
4.46732e-06
1.37474e-06
1.00627e-11
1.73845e-05
5.26264e-05
5.11433e-05
4.95471e-05
4.75195e-05
4.5352e-05
4.31087e-05
4.07574e-05
3.83238e-05
3.58927e-05
3.34554e-05
3.10097e-05
2.85678e-05
2.61674e-05
2.37814e-05
2.14294e-05
1.91294e-05
1.691e-05
1.47937e-05
1.28112e-05
1.09834e-05
9.32024e-06
7.82292e-06
6.4803e-06
5.2866e-06
4.23765e-06
3.33572e-06
2.58717e-06
1.9847e-06
1.50961e-06
1.13933e-06
8.56527e-07
6.44323e-07
4.89225e-07
3.80567e-07
3.08202e-07
2.79536e-07
2.71329e-07
3.68863e-07
8.36755e-07
4.06971e-05
4.17788e-05
4.28993e-05
4.3948e-05
4.49192e-05
4.57877e-05
4.64952e-05
4.6997e-05
4.72565e-05
4.72505e-05
4.69129e-05
4.62321e-05
4.52589e-05
4.38763e-05
4.2137e-05
4.00793e-05
3.77283e-05
3.51381e-05
3.23983e-05
2.95414e-05
2.66426e-05
2.38257e-05
2.11298e-05
1.85543e-05
1.60481e-05
1.35907e-05
1.12558e-05
9.18965e-06
7.50384e-06
6.18491e-06
5.15352e-06
4.34875e-06
3.71845e-06
3.27315e-06
2.85762e-06
3.01089e-06
4.69577e-06
1.31433e-10
4.37475e-08
3.95297e-05
3.84032e-05
3.71974e-05
3.56992e-05
3.41219e-05
3.25031e-05
3.08101e-05
2.90822e-05
2.73659e-05
2.56517e-05
2.39697e-05
2.22531e-05
2.057e-05
1.88893e-05
1.72106e-05
1.55481e-05
1.39082e-05
1.23129e-05
1.07865e-05
9.34499e-06
8.00551e-06
6.77427e-06
5.65283e-06
4.64169e-06
3.74542e-06
2.97068e-06
2.32049e-06
1.79097e-06
1.36922e-06
1.03775e-06
7.81591e-07
5.89441e-07
4.47484e-07
3.47674e-07
2.80221e-07
2.51506e-07
2.40958e-07
3.14791e-07
6.75636e-07
3.08359e-05
3.16894e-05
3.25848e-05
3.34392e-05
3.42514e-05
3.50033e-05
3.56606e-05
3.61743e-05
3.65282e-05
3.66933e-05
3.66479e-05
3.63243e-05
3.57607e-05
3.4957e-05
3.38404e-05
3.24686e-05
3.08462e-05
2.90067e-05
2.70126e-05
2.48854e-05
2.26795e-05
2.0475e-05
1.83262e-05
1.62344e-05
1.41769e-05
1.21385e-05
1.01817e-05
8.42285e-06
6.95321e-06
5.77589e-06
4.84409e-06
4.10922e-06
3.53693e-06
3.11346e-06
2.83467e-06
2.34951e-06
4.84406e-06
2.00225e-08
2.60101e-15
2.99318e-05
2.90565e-05
2.81417e-05
2.70248e-05
2.58644e-05
2.46796e-05
2.34444e-05
2.22044e-05
2.09768e-05
1.97805e-05
1.85761e-05
1.73888e-05
1.61962e-05
1.50048e-05
1.38047e-05
1.25963e-05
1.13889e-05
1.0194e-05
9.02528e-06
7.89895e-06
6.83042e-06
5.82794e-06
4.89875e-06
4.05151e-06
3.29332e-06
2.63142e-06
2.07043e-06
1.60818e-06
1.23518e-06
9.4018e-07
7.10151e-07
5.35796e-07
4.06618e-07
3.14348e-07
2.51116e-07
2.22372e-07
2.10367e-07
2.6497e-07
5.45315e-07
2.35207e-05
2.41968e-05
2.49101e-05
2.56034e-05
2.62723e-05
2.69116e-05
2.74927e-05
2.79819e-05
2.8357e-05
2.86049e-05
2.86944e-05
2.86197e-05
2.8319e-05
2.78528e-05
2.71788e-05
2.62725e-05
2.51714e-05
2.38824e-05
2.24446e-05
2.08809e-05
1.92212e-05
1.75183e-05
1.5822e-05
1.41428e-05
1.24679e-05
1.07936e-05
9.16751e-06
7.68186e-06
6.40913e-06
5.37054e-06
4.53377e-06
3.86465e-06
3.34174e-06
2.93772e-06
2.72915e-06
2.25683e-06
3.41004e-06
1.24488e-06
3.75232e-10
2.28154e-05
2.21372e-05
2.1436e-05
2.05953e-05
1.97339e-05
1.88541e-05
1.79467e-05
1.70451e-05
1.61666e-05
1.5307e-05
1.44485e-05
1.36229e-05
1.27673e-05
1.19176e-05
1.10544e-05
1.018e-05
9.29166e-06
8.39948e-06
7.51134e-06
6.63828e-06
5.79243e-06
4.98358e-06
4.22102e-06
3.51608e-06
2.87889e-06
2.31717e-06
1.83598e-06
1.43475e-06
1.10765e-06
8.46012e-07
6.40951e-07
4.8396e-07
3.66528e-07
2.81925e-07
2.23748e-07
1.95135e-07
1.82273e-07
2.21496e-07
4.37528e-07
1.80465e-05
1.85799e-05
1.91485e-05
1.97116e-05
2.02591e-05
2.08001e-05
2.12996e-05
2.17371e-05
2.21026e-05
2.23738e-05
2.25367e-05
2.25846e-05
2.24791e-05
2.22187e-05
2.1835e-05
2.12528e-05
2.05174e-05
1.96308e-05
1.8609e-05
1.74741e-05
1.62359e-05
1.49326e-05
1.36074e-05
1.2273e-05
1.09225e-05
9.55718e-06
8.21613e-06
6.96866e-06
5.87736e-06
4.96789e-06
4.22322e-06
3.61888e-06
3.14123e-06
2.7682e-06
2.54813e-06
2.27924e-06
2.4283e-06
2.82572e-06
1.1465e-07
1.74956e-05
1.69642e-05
1.64263e-05
1.57886e-05
1.51434e-05
1.44828e-05
1.38114e-05
1.31516e-05
1.25112e-05
1.18856e-05
1.12828e-05
1.06828e-05
1.008e-05
9.46644e-06
8.84465e-06
8.20871e-06
7.55643e-06
6.89313e-06
6.22063e-06
5.54751e-06
4.88377e-06
4.23733e-06
3.61784e-06
3.03513e-06
2.50181e-06
2.02845e-06
1.61889e-06
1.27322e-06
9.87885e-07
7.5781e-07
5.7547e-07
4.34808e-07
3.28659e-07
2.51493e-07
1.9761e-07
1.6952e-07
1.56065e-07
1.83574e-07
3.48681e-07
1.39187e-05
1.4341e-05
1.47959e-05
1.52456e-05
1.56994e-05
1.6148e-05
1.65702e-05
1.69533e-05
1.72893e-05
1.75561e-05
1.77514e-05
1.78547e-05
1.78708e-05
1.7748e-05
1.75307e-05
1.71899e-05
1.67093e-05
1.61064e-05
1.539e-05
1.45745e-05
1.36639e-05
1.26777e-05
1.16562e-05
1.06078e-05
9.52997e-06
8.42576e-06
7.32736e-06
6.28907e-06
5.36241e-06
4.5717e-06
3.91423e-06
3.3729e-06
2.93886e-06
2.60157e-06
2.36088e-06
2.22328e-06
2.02263e-06
2.77272e-06
1.01646e-06
1.34863e-05
1.30699e-05
1.26522e-05
1.21685e-05
1.16793e-05
1.11792e-05
1.06779e-05
1.01901e-05
9.7203e-06
9.26483e-06
8.82799e-06
8.39211e-06
7.9662e-06
7.51857e-06
7.07029e-06
6.60838e-06
6.13117e-06
5.63694e-06
5.13056e-06
4.6154e-06
4.09642e-06
3.58166e-06
3.08062e-06
2.60361e-06
2.16249e-06
1.76602e-06
1.41906e-06
1.12334e-06
8.76373e-07
6.74798e-07
5.13728e-07
3.88079e-07
2.92873e-07
2.22827e-07
1.7313e-07
1.45854e-07
1.32094e-07
1.50745e-07
2.75522e-07
1.07856e-05
1.1119e-05
1.14848e-05
1.18464e-05
1.22168e-05
1.25861e-05
1.29417e-05
1.32712e-05
1.35651e-05
1.38186e-05
1.40164e-05
1.4151e-05
1.4218e-05
1.42e-05
1.40863e-05
1.39006e-05
1.35963e-05
1.31959e-05
1.27024e-05
1.21237e-05
1.14623e-05
1.07266e-05
9.94498e-06
9.13072e-06
8.27934e-06
7.39545e-06
6.5044e-06
5.64662e-06
4.86605e-06
4.1859e-06
3.60936e-06
3.1288e-06
2.73636e-06
2.43214e-06
2.19244e-06
2.08743e-06
1.86999e-06
2.21866e-06
1.86287e-06
1.04456e-05
1.01187e-05
9.79196e-06
9.42116e-06
9.04791e-06
8.6687e-06
8.28939e-06
7.92445e-06
7.5772e-06
7.2433e-06
6.92074e-06
6.60732e-06
6.29802e-06
5.97629e-06
5.6504e-06
5.31533e-06
4.96329e-06
4.59653e-06
4.2152e-06
3.82008e-06
3.41656e-06
3.0113e-06
2.60946e-06
2.22128e-06
1.85867e-06
1.52874e-06
1.23669e-06
9.84776e-07
7.72638e-07
5.96986e-07
4.55707e-07
3.44357e-07
2.58934e-07
1.95643e-07
1.50206e-07
1.23982e-07
1.10342e-07
1.22595e-07
2.16017e-07
8.39241e-06
8.65771e-06
8.94889e-06
9.2435e-06
9.5421e-06
9.84574e-06
1.01419e-05
1.04201e-05
1.06766e-05
1.09046e-05
1.10911e-05
1.12375e-05
1.13278e-05
1.13688e-05
1.13277e-05
1.12302e-05
1.10563e-05
1.07965e-05
1.04629e-05
1.00623e-05
9.58694e-06
9.04412e-06
8.45352e-06
7.82773e-06
7.1639e-06
6.46337e-06
5.74546e-06
5.04287e-06
4.39059e-06
3.81163e-06
3.31088e-06
2.88786e-06
2.536e-06
2.26059e-06
2.03673e-06
1.92196e-06
1.7682e-06
1.79827e-06
1.96578e-06
8.12435e-06
7.86603e-06
7.6117e-06
7.32554e-06
7.03695e-06
6.74781e-06
6.45989e-06
6.18528e-06
5.92514e-06
5.67818e-06
5.43907e-06
5.2123e-06
4.98349e-06
4.75511e-06
4.51516e-06
4.26816e-06
4.00908e-06
3.7366e-06
3.44877e-06
3.14762e-06
2.83621e-06
2.51814e-06
2.19805e-06
1.88507e-06
1.58817e-06
1.31545e-06
1.07154e-06
8.58373e-07
6.76558e-07
5.24976e-07
4.01311e-07
3.03303e-07
2.27114e-07
1.70204e-07
1.28853e-07
1.04046e-07
9.0835e-08
9.85099e-08
1.67943e-07
6.55406e-06
6.76458e-06
6.9988e-06
7.23509e-06
7.47852e-06
7.72791e-06
7.97222e-06
8.20545e-06
8.42468e-06
8.62412e-06
8.79637e-06
8.93648e-06
9.04037e-06
9.10369e-06
9.11799e-06
9.0727e-06
8.98554e-06
8.82501e-06
8.60443e-06
8.33186e-06
7.99589e-06
7.60171e-06
7.16233e-06
6.68661e-06
6.1731e-06
5.62342e-06
5.0509e-06
4.48121e-06
3.94141e-06
3.45206e-06
3.02097e-06
2.65149e-06
2.33916e-06
2.0895e-06
1.88564e-06
1.75887e-06
1.64887e-06
1.54501e-06
1.7294e-06
6.34363e-06
6.13817e-06
5.93784e-06
5.71739e-06
5.494e-06
5.27027e-06
5.05028e-06
4.84258e-06
4.64655e-06
4.46119e-06
4.28421e-06
4.11598e-06
3.94723e-06
3.78395e-06
3.6054e-06
3.42326e-06
3.23269e-06
3.02898e-06
2.81218e-06
2.58342e-06
2.34384e-06
2.09512e-06
1.84177e-06
1.59088e-06
1.3496e-06
1.12547e-06
9.2287e-07
7.43766e-07
5.88957e-07
4.58562e-07
3.51051e-07
2.64838e-07
1.97459e-07
1.46538e-07
1.09229e-07
8.59813e-08
7.34888e-08
7.81245e-08
1.29589e-07
5.13486e-06
5.30338e-06
5.49133e-06
5.68194e-06
5.87978e-06
6.08262e-06
6.2841e-06
6.47928e-06
6.66364e-06
6.83505e-06
6.98898e-06
7.11926e-06
7.22431e-06
7.29751e-06
7.3418e-06
7.3341e-06
7.29532e-06
7.20715e-06
7.06601e-06
6.88309e-06
6.65166e-06
6.36879e-06
6.04595e-06
5.68911e-06
5.29685e-06
4.87028e-06
4.41889e-06
3.96102e-06
3.51858e-06
3.10904e-06
2.74186e-06
2.42096e-06
2.14604e-06
1.9209e-06
1.7363e-06
1.60605e-06
1.51059e-06
1.37548e-06
1.46103e-06
4.96916e-06
4.80631e-06
4.64833e-06
4.47658e-06
4.30298e-06
4.12948e-06
3.9605e-06
3.80074e-06
3.65278e-06
3.51277e-06
3.38093e-06
3.25274e-06
3.13187e-06
3.00689e-06
2.87913e-06
2.7442e-06
2.60114e-06
2.44897e-06
2.28622e-06
2.11267e-06
1.92881e-06
1.73544e-06
1.53638e-06
1.33594e-06
1.14084e-06
9.57892e-07
7.90083e-07
6.40211e-07
5.09474e-07
3.97808e-07
3.04934e-07
2.29656e-07
1.70401e-07
1.25072e-07
9.14637e-08
7.002e-08
5.83653e-08
6.10668e-08
9.92687e-08
4.03562e-06
4.17081e-06
4.32166e-06
4.47518e-06
4.63461e-06
4.80028e-06
4.96558e-06
5.12719e-06
5.28256e-06
5.42831e-06
5.56145e-06
5.67977e-06
5.77855e-06
5.85466e-06
5.90887e-06
5.92881e-06
5.91953e-06
5.8779e-06
5.79326e-06
5.67419e-06
5.51825e-06
5.32029e-06
5.08547e-06
4.82144e-06
4.5264e-06
4.19875e-06
3.84561e-06
3.48142e-06
3.12242e-06
2.78346e-06
2.47372e-06
2.19787e-06
1.9575e-06
1.75659e-06
1.58923e-06
1.46235e-06
1.36761e-06
1.2352e-06
1.23971e-06
3.90461e-06
3.7757e-06
3.64999e-06
3.51572e-06
3.38004e-06
3.24523e-06
3.11357e-06
2.99069e-06
2.87743e-06
2.77148e-06
2.67172e-06
2.57596e-06
2.48459e-06
2.39163e-06
2.29926e-06
2.19596e-06
2.0894e-06
1.97611e-06
1.85423e-06
1.72281e-06
1.58198e-06
1.43233e-06
1.27631e-06
1.1165e-06
9.59583e-07
8.10588e-07
6.72641e-07
5.48007e-07
4.37989e-07
3.43096e-07
2.63307e-07
1.97815e-07
1.45844e-07
1.05727e-07
7.56822e-08
5.61386e-08
4.54654e-08
4.69192e-08
7.52805e-08
3.18048e-06
3.28842e-06
3.40929e-06
3.53311e-06
3.66239e-06
3.79759e-06
3.93236e-06
4.06603e-06
4.19572e-06
4.31924e-06
4.43373e-06
4.5365e-06
4.62649e-06
4.70122e-06
4.7575e-06
4.79211e-06
4.80061e-06
4.79189e-06
4.74604e-06
4.67258e-06
4.57129e-06
4.43585e-06
4.26853e-06
4.07495e-06
3.85581e-06
3.60631e-06
3.33249e-06
3.04504e-06
2.7563e-06
2.47806e-06
2.21874e-06
1.98397e-06
1.77574e-06
1.59786e-06
1.44622e-06
1.32591e-06
1.22958e-06
1.10524e-06
1.06086e-06
3.07616e-06
2.97452e-06
2.87455e-06
2.76868e-06
2.66208e-06
2.55687e-06
2.45396e-06
2.3593e-06
2.27139e-06
2.19042e-06
2.11416e-06
2.0421e-06
1.97217e-06
1.90353e-06
1.8333e-06
1.75674e-06
1.67762e-06
1.59337e-06
1.50145e-06
1.40131e-06
1.29337e-06
1.1777e-06
1.05504e-06
9.28384e-07
8.03033e-07
6.82322e-07
5.69597e-07
4.6647e-07
3.74343e-07
2.94099e-07
2.25804e-07
1.69214e-07
1.23781e-07
8.84853e-08
6.17916e-08
4.41766e-08
3.4513e-08
3.53143e-08
5.67029e-08
2.51239e-06
2.59879e-06
2.69624e-06
2.79605e-06
2.90066e-06
3.01013e-06
3.1206e-06
3.23062e-06
3.33854e-06
3.44173e-06
3.53895e-06
3.62847e-06
3.70826e-06
3.77719e-06
3.83236e-06
3.87542e-06
3.89445e-06
3.90154e-06
3.88359e-06
3.8412e-06
3.77811e-06
3.68845e-06
3.57123e-06
3.43255e-06
3.27147e-06
3.08492e-06
2.87509e-06
2.65045e-06
2.42031e-06
2.19412e-06
1.97905e-06
1.78066e-06
1.60149e-06
1.44467e-06
1.30847e-06
1.19604e-06
1.09999e-06
9.82592e-07
9.11994e-07
2.42934e-06
2.34864e-06
2.26927e-06
2.18615e-06
2.10185e-06
2.01848e-06
1.93912e-06
1.86507e-06
1.79663e-06
1.73399e-06
1.67575e-06
1.62063e-06
1.56684e-06
1.51538e-06
1.46175e-06
1.40659e-06
1.34666e-06
1.28276e-06
1.21252e-06
1.13643e-06
1.05383e-06
9.6411e-07
8.68224e-07
7.68802e-07
6.6876e-07
5.7149e-07
4.79673e-07
3.94851e-07
3.18066e-07
2.50374e-07
1.92212e-07
1.43565e-07
1.04179e-07
7.3183e-08
4.96768e-08
3.3954e-08
2.54365e-08
2.59854e-08
4.23382e-08
1.98915e-06
2.05848e-06
2.1368e-06
2.21705e-06
2.30175e-06
2.39061e-06
2.48125e-06
2.57162e-06
2.66023e-06
2.74641e-06
2.82837e-06
2.905e-06
2.97483e-06
3.03651e-06
3.08906e-06
3.13172e-06
3.15915e-06
3.17371e-06
3.17294e-06
3.15158e-06
3.11409e-06
3.05724e-06
2.97757e-06
2.88033e-06
2.76338e-06
2.62558e-06
2.46767e-06
2.29437e-06
2.11303e-06
1.93116e-06
1.75461e-06
1.58847e-06
1.43547e-06
1.29874e-06
1.1772e-06
1.0729e-06
9.79711e-07
8.68484e-07
7.84881e-07
1.9232e-06
1.85875e-06
1.79537e-06
1.72946e-06
1.66322e-06
1.5972e-06
1.53477e-06
1.47693e-06
1.42369e-06
1.37472e-06
1.32971e-06
1.28718e-06
1.24617e-06
1.20708e-06
1.16635e-06
1.12561e-06
1.07907e-06
1.03013e-06
9.77026e-07
9.19513e-07
8.56077e-07
7.86988e-07
7.12628e-07
6.34501e-07
5.54904e-07
4.76694e-07
4.02055e-07
3.32379e-07
2.68782e-07
2.11975e-07
1.62659e-07
1.21016e-07
8.69113e-08
5.98618e-08
3.94176e-08
2.55207e-08
1.81145e-08
1.86361e-08
3.13992e-08
1.57797e-06
1.63377e-06
1.69667e-06
1.76137e-06
1.82959e-06
1.90195e-06
1.97589e-06
2.05003e-06
2.12283e-06
2.19455e-06
2.2631e-06
2.3277e-06
2.38792e-06
2.44244e-06
2.49056e-06
2.53078e-06
2.56138e-06
2.57927e-06
2.59113e-06
2.58381e-06
2.56438e-06
2.53005e-06
2.47816e-06
2.41087e-06
2.32786e-06
2.22689e-06
2.10866e-06
1.97612e-06
1.83472e-06
1.68979e-06
1.54613e-06
1.40846e-06
1.2787e-06
1.16057e-06
1.05266e-06
9.57128e-07
8.68554e-07
7.64345e-07
6.75299e-07
1.52529e-06
1.47417e-06
1.42345e-06
1.37104e-06
1.31856e-06
1.26658e-06
1.2169e-06
1.17137e-06
1.12981e-06
1.09139e-06
1.05623e-06
1.0234e-06
9.91767e-07
9.61255e-07
9.30698e-07
8.98908e-07
8.63873e-07
8.26919e-07
7.86934e-07
7.431e-07
6.9433e-07
6.4127e-07
5.83302e-07
5.21762e-07
4.58556e-07
3.95886e-07
3.35524e-07
2.78543e-07
2.25908e-07
1.78534e-07
1.36993e-07
1.01465e-07
7.21144e-08
4.87241e-08
3.08389e-08
1.87268e-08
1.23546e-08
1.29277e-08
2.31637e-08
1.25408e-06
1.29884e-06
1.34915e-06
1.40136e-06
1.45684e-06
1.5156e-06
1.57586e-06
1.63622e-06
1.69633e-06
1.75535e-06
1.81236e-06
1.86698e-06
1.91844e-06
1.96574e-06
2.00828e-06
2.04496e-06
2.07729e-06
2.09724e-06
2.11265e-06
2.11622e-06
2.10855e-06
2.08971e-06
2.05723e-06
2.01207e-06
1.95439e-06
1.88193e-06
1.79409e-06
1.69397e-06
1.58503e-06
1.47049e-06
1.35483e-06
1.24124e-06
1.1324e-06
1.03079e-06
9.3599e-07
8.49056e-07
7.65893e-07
6.69605e-07
5.80593e-07
1.21186e-06
1.17107e-06
1.13059e-06
1.08884e-06
1.0472e-06
1.006e-06
9.66654e-07
9.30802e-07
8.9776e-07
8.67689e-07
8.40145e-07
8.14317e-07
7.90034e-07
7.65819e-07
7.42699e-07
7.17782e-07
6.92388e-07
6.63898e-07
6.33314e-07
5.99593e-07
5.62322e-07
5.21158e-07
4.75971e-07
4.27632e-07
3.77457e-07
3.27388e-07
2.78694e-07
2.32369e-07
1.89147e-07
1.49687e-07
1.14781e-07
8.46619e-08
5.95465e-08
3.93928e-08
2.38804e-08
1.33664e-08
7.9811e-09
8.63722e-09
1.69413e-08
9.98056e-07
1.03424e-06
1.07471e-06
1.11677e-06
1.16176e-06
1.20949e-06
1.2581e-06
1.30754e-06
1.35699e-06
1.4057e-06
1.45295e-06
1.49852e-06
1.54194e-06
1.58249e-06
1.61999e-06
1.65297e-06
1.68209e-06
1.70441e-06
1.72056e-06
1.72983e-06
1.72992e-06
1.72111e-06
1.70244e-06
1.6733e-06
1.63424e-06
1.58296e-06
1.51946e-06
1.44485e-06
1.36175e-06
1.27223e-06
1.17979e-06
1.08736e-06
9.96738e-07
9.09942e-07
8.27101e-07
7.48827e-07
6.72127e-07
5.84196e-07
4.98659e-07
9.64251e-07
9.32163e-07
8.99627e-07
8.66225e-07
8.32894e-07
8.00381e-07
7.69121e-07
7.40641e-07
7.14548e-07
6.90717e-07
6.68978e-07
6.48633e-07
6.29818e-07
6.10926e-07
5.928e-07
5.7374e-07
5.54876e-07
5.32391e-07
5.08884e-07
4.82961e-07
4.54473e-07
4.22521e-07
3.87312e-07
3.49425e-07
3.09829e-07
2.69871e-07
2.30682e-07
1.93055e-07
1.57647e-07
1.25022e-07
9.57568e-08
7.03613e-08
4.89441e-08
3.16341e-08
1.83582e-08
9.31073e-09
4.78521e-09
5.52509e-09
1.23698e-08
7.95848e-07
8.24799e-07
8.57064e-07
8.91176e-07
9.27591e-07
9.66079e-07
1.00576e-06
1.04611e-06
1.08647e-06
1.12649e-06
1.16572e-06
1.2036e-06
1.24025e-06
1.27449e-06
1.30649e-06
1.336e-06
1.36199e-06
1.38371e-06
1.39952e-06
1.41295e-06
1.41755e-06
1.41589e-06
1.40632e-06
1.38873e-06
1.36281e-06
1.32746e-06
1.28189e-06
1.22687e-06
1.16357e-06
1.09444e-06
1.0213e-06
9.46575e-07
8.71548e-07
7.98152e-07
7.26409e-07
6.56918e-07
5.86949e-07
5.07535e-07
4.27964e-07
7.68333e-07
7.42797e-07
7.17014e-07
6.90261e-07
6.63709e-07
6.37686e-07
6.12967e-07
5.90103e-07
5.69546e-07
5.50497e-07
5.33296e-07
5.1733e-07
5.02249e-07
4.87775e-07
4.73232e-07
4.59076e-07
4.43397e-07
4.27045e-07
4.08779e-07
3.88867e-07
3.66837e-07
3.42044e-07
3.14582e-07
2.84769e-07
2.53516e-07
2.21801e-07
1.90404e-07
1.59935e-07
1.30947e-07
1.04058e-07
7.96884e-08
5.8286e-08
4.01506e-08
2.53619e-08
1.39963e-08
6.30879e-09
2.56506e-09
3.37791e-09
9.10709e-09
6.35237e-07
6.58397e-07
6.84426e-07
7.11946e-07
7.41395e-07
7.72641e-07
8.04823e-07
8.3761e-07
8.70738e-07
9.035e-07
9.35728e-07
9.67164e-07
9.97662e-07
1.02695e-06
1.05419e-06
1.07973e-06
1.10247e-06
1.12344e-06
1.13863e-06
1.15239e-06
1.16036e-06
1.16292e-06
1.15951e-06
1.14987e-06
1.13344e-06
1.10941e-06
1.07727e-06
1.03709e-06
9.89817e-07
9.36683e-07
8.79247e-07
8.19119e-07
7.57529e-07
6.95928e-07
6.34281e-07
5.72979e-07
5.10045e-07
4.39167e-07
3.66756e-07
6.13277e-07
5.92588e-07
5.72072e-07
5.50629e-07
5.29574e-07
5.08753e-07
4.89012e-07
4.7091e-07
4.54465e-07
4.39322e-07
4.25603e-07
4.1286e-07
4.00858e-07
3.89587e-07
3.7821e-07
3.66846e-07
3.54841e-07
3.42797e-07
3.28174e-07
3.12774e-07
2.95674e-07
2.76453e-07
2.5508e-07
2.31763e-07
2.07181e-07
1.81964e-07
1.56755e-07
1.32151e-07
1.08578e-07
8.64019e-08
6.6207e-08
4.82654e-08
3.29442e-08
2.03822e-08
1.07404e-08
4.22762e-09
1.15273e-09
2.00259e-09
6.85487e-09
5.07434e-07
5.26107e-07
5.47107e-07
5.69365e-07
5.93185e-07
6.18447e-07
6.44619e-07
6.71345e-07
6.98283e-07
7.25069e-07
7.516e-07
7.77735e-07
8.02793e-07
8.27259e-07
8.50627e-07
8.72523e-07
8.92724e-07
9.10916e-07
9.26108e-07
9.3864e-07
9.48053e-07