/*--------------------------------*- C++ -*----------------------------------*\
| =========                 |                                                 |
| \\      /  F ield         | OpenFOAM: The Open Source CFD Toolbox           |
|  \\    /   O peration     | Version:  2506                                  |
|   \\  /    A nd           | Website:  www.openfoam.com                      |
|    \\/     M anipulation  |                                                 |
\*---------------------------------------------------------------------------*/
FoamFile
{
    version     2.0;
    format      ascii;
    arch        "LSB;label=32;scalar=64";
    class       volScalarField;
    location    "150";
    object      turbulenceProperties:k;
}
// * * * * * * * * * * * * * * * * * * * * * * * * * * * * * * * * * * * * * //

dimensions      [0 2 -2 0 0 0 0];

internalField   nonuniform List<scalar> 
10720
(
0.0183063
0.0213458
0.0252245
0.0304623
0.0366395
0.0444668
0.0544286
0.0667263
0.0822924
0.102145
0.127632
0.161622
0.207208
0.269858
0.358514
0.488848
0.684702
0.998716
1.49833
2.41867
3.94662
7.46843
13.9891
33.132
45.0684
46.0963
44.8647
44.4368
44.4495
44.0542
42.9087
41.0639
38.6171
35.6222
32.0153
27.8266
22.4209
16.8557
5.97684
0.0155887
0.0133719
0.0108855
0.00874676
0.00673098
0.00492345
0.00352677
0.00282816
0.00328909
0.00461837
0.00685142
0.0101845
0.0149853
0.0217983
0.0313349
0.0447786
0.0641816
0.0932952
0.139063
0.213695
0.342733
0.569625
1.01041
1.84318
3.71778
7.53177
17.0794
33.8304
46.3801
51.5059
52.9082
53.1026
52.756
51.9773
50.8042
49.3029
47.1185
44.583
36.5945
0.00303127
0.00301771
0.0029849
0.00290171
0.00277249
0.00262208
0.00244339
0.00224178
0.00204117
0.00184205
0.00165652
0.0014938
0.00141995
0.00149237
0.00181466
0.00267808
0.00476193
0.00968041
0.0213626
0.0540094
0.136652
0.417307
1.08942
3.53246
7.72031
12.3527
16.8773
20.6282
22.5485
21.9957
19.5037
16.3861
13.6158
11.4373
9.78311
8.50105
7.61763
6.86587
7.53799
0.00300148
0.00295655
0.00287188
0.00274771
0.00257599
0.00234792
0.00209435
0.00186047
0.00162833
0.00139209
0.00117317
0.000984327
0.000823051
0.000684629
0.000566636
0.000467258
0.000383046
0.000311871
0.000249371
0.000192081
0.000134957
7.86813e-05
2.7216e-05
3.83654e-06
4.3175e-05
0.00195405
0.0113876
0.0839331
0.261873
0.492685
0.721838
0.9206
1.0861
1.23054
1.36488
1.5035
1.64946
1.98392
2.76233
0.00203995
0.00201995
0.00197084
0.00189738
0.00182027
0.00173513
0.00164838
0.00156983
0.00150192
0.00144805
0.00140734
0.00137697
0.00136493
0.00136559
0.00138282
0.00136192
0.00121195
0.00102932
0.000593618
0.00528002
0.0101444
0.00821207
0.022772
0.000898665
0.0533619
0.200917
0.57183
1.4652
3.31482
6.26881
9.74833
12.472
13.4499
12.8451
11.4915
9.98154
8.74287
7.38735
8.45028
0.00205772
0.00205676
0.00205198
0.00201701
0.00195049
0.0018341
0.00168013
0.00151604
0.00136044
0.00119113
0.00101239
0.00084186
0.000689527
0.000557966
0.000449645
0.000362922
0.000296032
0.00024582
0.000209764
0.000184301
0.000167119
0.000156461
0.000151205
0.000149231
0.000150247
0.00015017
0.000157846
8.99019e-05
0.000853429
0.00488686
0.0131739
0.0277466
0.0625121
0.128411
0.223288
0.337202
0.458878
0.54224
0.9303
0.00170903
0.00171262
0.00170394
0.00168919
0.00165995
0.0016164
0.00156216
0.00149471
0.00141772
0.00133257
0.00124167
0.00114742
0.00104999
0.000949575
0.000848601
0.000742309
0.000632588
0.00053566
0.000426683
0.000296293
3.07606e-05
0.000764867
1.38281e-07
0.00262813
0.0145973
0.0278039
0.0499984
0.0342368
0.023042
0.0373449
0.370891
1.49015
3.66142
6.3122
8.31708
9.07829
9.02844
8.23335
9.0659
0.00169098
0.00166412
0.0016223
0.0015716
0.00150613
0.00141957
0.00131951
0.00121469
0.00110164
0.000978027
0.000853259
0.000737617
0.000635164
0.000546204
0.000470845
0.000407691
0.000355727
0.000313372
0.000279383
0.000251698
0.000229195
0.00021024
0.000193173
0.000175065
0.000156324
0.000140842
0.000129027
0.000121228
0.000107706
0.000102523
5.37685e-05
4.11527e-05
0.000374733
0.00059921
0.00275266
0.0135039
0.0426657
0.104819
0.373344
0.00128965
0.00128683
0.00127626
0.00125761
0.00122943
0.00119131
0.00114523
0.00109188
0.00103298
0.00097196
0.000910943
0.000852207
0.000798012
0.000750322
0.00071005
0.000678098
0.000646825
0.000609961
0.000566548
0.000523865
0.000403695
0.000164504
2.22897e-06
6.61466e-06
1.39793e-07
0
0
0.00970282
0.0139834
0.0322398
0.0284018
0.0498148
0.0550578
0.407421
1.83726
4.15981
6.39999
7.60074
9.0394
0.00128613
0.00127708
0.001259
0.00122992
0.00118751
0.00112886
0.00106055
0.000987309
0.000907273
0.000819733
0.000729464
0.000641391
0.000558352
0.00048178
0.000412956
0.000352501
0.000300624
0.000257086
0.000221402
0.00019247
0.000169311
0.000150602
0.000134961
0.000120075
0.000104865
9.07514e-05
7.96913e-05
7.21593e-05
6.94632e-05
6.33663e-05
8.23678e-05
1.03952e-05
0.000143311
0.000625131
0.000210513
0.000590304
0.00149586
0.00370049
0.0734641
0.00105334
0.00105751
0.00105683
0.0010525
0.00104196
0.00102504
0.00100237
0.000973242
0.000938219
0.000898227
0.000853643
0.000805492
0.000754926
0.000702835
0.000650334
0.0005973
0.000540055
0.000479742
0.000422043
0.000369563
0.000328437
0.000285445
0.000221394
8.48666e-05
1.6897e-06
6.55268e-06
4.16926e-06
1.21716e-06
0
0
0.00412797
0.0123202
0.00468165
0.0332646
0.0882662
0.357741
2.05056
4.86051
7.83456
0.00104407
0.00103141
0.00101291
0.000987945
0.000954442
0.000911522
0.000863567
0.000811258
0.000753093
0.000689506
0.000623337
0.000557625
0.000494744
0.000436047
0.000382611
0.000335218
0.000294089
0.000259079
0.000229787
0.000205417
0.000185114
0.000167774
0.000152151
0.000136491
0.000120047
0.000104293
9.05018e-05
7.89433e-05
6.92468e-05
6.11573e-05
5.41781e-05
4.71436e-05
3.93872e-05
2.19853e-05
2.1257e-05
8.21136e-05
0.000265172
0.000855188
0.00864458
0.000852953
0.000856515
0.000856917
0.000854434
0.000847575
0.000835774
0.000819248
0.000797582
0.000770907
0.000739956
0.000705241
0.000667641
0.000628284
0.000588174
0.000548436
0.000510019
0.000474906
0.000442993
0.000411407
0.000378507
0.000345372
0.000315822
0.000288866
0.00024906
0.000195252
0.000132341
7.77952e-05
1.9386e-05
4.91748e-06
2.11877e-06
0
0
0.000388837
0.00548305
0.0366155
0.0456219
0.120094
1.5807
5.23918
0.000845953
0.000836719
0.000823229
0.000804187
0.000778775
0.000747063
0.000712314
0.000673867
0.000630862
0.000584196
0.000535326
0.000485929
0.000437486
0.000390922
0.000347168
0.000306971
0.000270757
0.00023877
0.000211016
0.000187174
0.000166797
0.000149199
0.000133481
0.000118369
0.000103136
8.86159e-05
7.5852e-05
6.51361e-05
5.62537e-05
4.90832e-05
4.37935e-05
4.03742e-05
3.79881e-05
3.53301e-05
2.53172e-05
5.78982e-06
1.18653e-06
1.43405e-07
0.000367957
0.000706017
0.000710685
0.000713407
0.000714228
0.000712268
0.000706916
0.000698315
0.000685967
0.000669842
0.000650286
0.000627264
0.000601198
0.000572643
0.000542022
0.000509902
0.000476962
0.000443279
0.000407647
0.000370996
0.000335499
0.000302951
0.000274847
0.000252778
0.000233819
0.000215297
0.00019016
0.000160352
0.000124134
8.49511e-05
3.97917e-05
4.20567e-06
1.44449e-06
0
0
0
0.0082951
0.0050944
0.180382
2.35362
0.000698934
0.000690459
0.000679157
0.000663545
0.000643641
0.000619646
0.000593711
0.000564824
0.000532602
0.000497844
0.000461242
0.000423878
0.000386627
0.000350172
0.000315236
0.000282518
0.000252474
0.000225477
0.000201633
0.000180819
0.000162701
0.000146743
0.000132215
0.000118157
0.00010404
9.04586e-05
7.82213e-05
6.7581e-05
5.82994e-05
5.01765e-05
4.31733e-05
3.71258e-05
3.18874e-05
2.74406e-05
2.40709e-05
1.9968e-05
1.31035e-05
1.51838e-06
3.4052e-05
0.000588697
0.000593241
0.00059661
0.000598528
0.000598477
0.000595953
0.000590958
0.000583008
0.000572014
0.000558088
0.00054117
0.000521507
0.000499419
0.000475297
0.000449602
0.000422853
0.000395482
0.000368449
0.000342099
0.000316285
0.000291132
0.000267205
0.000245433
0.000225091
0.000205045
0.00018439
0.000163245
0.000144922
0.000127301
0.000106065
7.51288e-05
3.10453e-05
3.38787e-06
3.63128e-07
0
0
0.000992223
0.0161806
0.651707
0.000582432
0.000575268
0.000566082
0.000553315
0.000537558
0.000519231
0.00049939
0.000477239
0.000452767
0.000426565
0.000398905
0.00037045
0.000341713
0.000313125
0.000285158
0.000258342
0.000233137
0.000209849
0.000188714
0.000169762
0.000152838
0.000137626
0.000123611
0.000110147
9.68557e-05
8.41256e-05
7.26065e-05
6.2546e-05
5.3842e-05
4.63303e-05
3.99877e-05
3.4869e-05
3.09236e-05
2.8126e-05
2.64238e-05
2.65246e-05
2.81608e-05
2.71413e-05
9.21748e-07
0.000495943
0.0005004
0.000504198
0.000507044
0.000508378
0.000508015
0.0005059
0.000501575
0.000494941
0.000486031
0.000474628
0.000460902
0.000445002
0.000427102
0.00040749
0.000386431
0.000364358
0.000341386
0.000317439
0.000293218
0.000269853
0.000248157
0.000228563
0.000210294
0.000191537
0.000171484
0.000151324
0.000133956
0.000120736
0.000110677
0.000102941
8.6968e-05
5.92934e-05
7.55968e-06
1.0931e-06
0
0
0.00552734
0.152127
0.000490185
0.000483949
0.000476247
0.000465664
0.000453009
0.00043877
0.000423282
0.000406062
0.000387263
0.000367241
0.000346135
0.000324328
0.000302082
0.000279637
0.000257328
0.000235558
0.000214665
0.000194973
0.000176727
0.00016001
0.00014481
0.000130903
0.000117939
0.000105499
9.32858e-05
8.15648e-05
7.08614e-05
6.1384e-05
5.30681e-05
4.57604e-05
3.94216e-05
3.4e-05
2.94433e-05
2.58118e-05
2.30637e-05
2.23241e-05
2.16072e-05
3.53454e-05
1.22417e-05
0.00042086
0.000425095
0.000428924
0.000432062
0.000434178
0.000435037
0.000434445
0.000432261
0.000428319
0.000422527
0.000414707
0.000404859
0.000393091
0.000379464
0.000364176
0.000347419
0.000329457
0.000310683
0.0002914
0.000271926
0.000252746
0.000234278
0.000216804
0.000200025
0.000182782
0.000164186
0.00014512
0.000127604
0.000113411
0.000102516
9.49851e-05
8.9897e-05
8.55603e-05
6.86894e-05
1.91848e-05
1.26115e-06
0
0.000747704
0.0480115
0.000415684
0.000410231
0.000403781
0.000394964
0.000384687
0.000373424
0.000361133
0.000347593
0.000333016
0.000317537
0.000301288
0.00028444
0.000267159
0.000249532
0.000231756
0.000214127
0.000196863
0.000180253
0.000164506
0.00014976
0.000136043
0.00012326
0.000111194
9.95636e-05
8.82114e-05
7.73367e-05
6.73196e-05
5.8395e-05
5.05114e-05
4.35945e-05
3.76188e-05
3.25682e-05
2.84745e-05
2.53563e-05
2.31313e-05
2.26933e-05
2.20883e-05
3.07914e-05
3.59605e-05
0.000359551
0.000363523
0.000367278
0.000370521
0.000373027
0.000374639
0.000375257
0.000374605
0.000372493
0.000368933
0.000363919
0.000357173
0.000348754
0.000338712
0.000327137
0.000314132
0.000299877
0.000284691
0.000268621
0.000251917
0.000235149
0.000218868
0.000203308
0.000188253
0.000172843
0.000156368
0.000139327
0.000123283
0.000109532
9.82939e-05
8.92497e-05
8.26836e-05
7.87237e-05
7.94257e-05
7.02159e-05
2.00407e-05
3.59028e-08
0.000224485
0.0154276
0.000354883
0.000350114
0.000344623
0.000337233
0.000328819
0.000319738
0.000309886
0.000299098
0.000287692
0.000275639
0.000262982
0.000249891
0.000236399
0.000222513
0.000208374
0.000194147
0.000179963
0.00016604
0.000152564
0.000139705
0.000127505
0.000115947
0.000104897
9.41909e-05
8.37642e-05
7.37633e-05
6.44933e-05
5.61573e-05
4.87372e-05
4.21732e-05
3.64366e-05
3.15555e-05
2.74545e-05
2.42262e-05
2.18377e-05
2.10339e-05
2.07798e-05
2.5991e-05
4.02515e-05
0.000308897
0.000312573
0.000316146
0.000319357
0.000322009
0.000324027
0.000325331
0.00032565
0.000324894
0.000322893
0.000319642
0.000315187
0.000309205
0.000301797
0.000293023
0.000282928
0.000271626
0.000259333
0.000246215
0.000232476
0.000218429
0.000204487
0.000190844
0.000177363
0.000163485
0.000148764
0.000133546
0.000119063
0.000106384
9.5731e-05
8.67388e-05
7.93084e-05
7.33914e-05
7.09693e-05
7.26507e-05
7.46283e-05
9.22335e-08
1.92901e-05
0.00377935
0.000304752
0.000300525
0.000295811
0.000289588
0.000282643
0.000275234
0.000267234
0.000258564
0.000249517
0.000240107
0.000230139
0.000219883
0.000209301
0.000198369
0.000187109
0.000175617
0.000163997
0.000152399
0.000140957
0.000129791
0.000118997
0.000108595
9.85214e-05
8.87028e-05
7.9126e-05
6.99298e-05
6.135e-05
5.35557e-05
4.65707e-05
4.03707e-05
3.49366e-05
3.02824e-05
2.64127e-05
2.33645e-05
2.11182e-05
2.02801e-05
2.01127e-05
2.38458e-05
3.70238e-05
0.000266714
0.000270074
0.000273423
0.000276496
0.000279182
0.000281443
0.000283124
0.000284076
0.000284176
0.000283412
0.00028148
0.000278548
0.000274516
0.000269192
0.000262657
0.000254953
0.000246133
0.000236309
0.000225671
0.000214286
0.000202387
0.00019041
0.000178489
0.000166545
0.000154188
0.000141106
0.000127578
0.000114537
0.000102937
9.30678e-05
8.46521e-05
7.75017e-05
7.14055e-05
6.70898e-05
6.38214e-05
7.72737e-05
4.26788e-05
2.11577e-07
0.000158815
0.000262999
0.000259267
0.000255189
0.000249914
0.000244147
0.000238032
0.00023145
0.000224434
0.0002172
0.000209696
0.000201886
0.000193774
0.000185455
0.000176798
0.000167828
0.000158566
0.000149085
0.000139444
0.000129765
0.000120152
0.000110682
0.000101403
9.2292e-05
8.33597e-05
7.46331e-05
6.62164e-05
5.83155e-05
5.10765e-05
4.4546e-05
3.86993e-05
3.35545e-05
2.91028e-05
2.53595e-05
2.23669e-05
2.01286e-05
1.91698e-05
1.88869e-05
2.20204e-05
3.31706e-05
0.000231278
0.000234332
0.000237454
0.000240339
0.000242981
0.000245319
0.000247207
0.000248538
0.000249223
0.000249208
0.000248316
0.000246509
0.000243901
0.000240147
0.000235339
0.000229522
0.000222689
0.000214909
0.000206361
0.000197054
0.000187137
0.000176968
0.000166657
0.000156171
0.000145242
0.000133661
0.000121639
0.000109911
9.932e-05
9.01711e-05
8.23111e-05
7.56128e-05
6.9918e-05
6.55994e-05
6.12765e-05
6.29624e-05
7.95589e-05
6.58822e-07
8.9999e-06
0.000227936
0.000224665
0.00022111
0.000216612
0.000211773
0.000206688
0.000201233
0.00019551
0.000189653
0.000183617
0.000177496
0.000171022
0.000164427
0.000157567
0.000150403
0.000142955
0.000135206
0.000127216
0.00011907
0.000110829
0.000102579
9.43617e-05
8.61982e-05
7.81096e-05
7.01646e-05
6.2488e-05
5.52282e-05
4.85195e-05
4.24239e-05
3.69337e-05
3.2053e-05
2.78357e-05
2.42534e-05
2.13783e-05
1.9193e-05
1.81832e-05
1.77981e-05
2.0343e-05
2.9804e-05
0.000201317
0.000204085
0.000206948
0.000209644
0.000212175
0.000214492
0.000216496
0.00021805
0.000219114
0.00021961
0.000219474
0.000218503
0.000216802
0.000214352
0.000210901
0.000206583
0.000201356
0.00019526
0.00018843
0.000180859
0.000172657
0.000164052
0.000155206
0.000146081
0.000136511
0.000126317
0.000115689
0.000105224
9.56057e-05
8.71376e-05
7.9801e-05
7.35003e-05
6.81916e-05
6.39796e-05
6.10538e-05
5.55306e-05
8.11057e-05
6.14058e-06
5.45471e-09
0.000198344
0.000195422
0.000192321
0.000188466
0.000184376
0.000180103
0.000175538
0.000170834
0.000166044
0.00016124
0.000156255
0.000151179
0.000145903
0.000140434
0.000134701
0.000128671
0.000122349
0.000115753
0.000108916
0.000101893
9.47515e-05
8.75227e-05
8.02429e-05
7.29749e-05
6.57935e-05
5.88115e-05
5.21674e-05
4.59766e-05
4.02938e-05
3.51544e-05
3.05528e-05
2.65386e-05
2.31193e-05
2.03278e-05
1.81688e-05
1.70975e-05
1.66298e-05
1.86639e-05
2.67753e-05
0.000175823
0.000178333
0.000180943
0.000183444
0.000185825
0.000188072
0.000190092
0.000191776
0.000193057
0.0001939
0.000194203
0.00019395
0.000192929
0.000191335
0.000189006
0.000185828
0.000181893
0.000177175
0.000171759
0.000165669
0.000158949
0.000151745
0.000144212
0.000136345
0.000128018
0.000119113
0.000109776
0.000100489
9.17883e-05
8.40236e-05
7.72018e-05
7.12785e-05
6.6283e-05
6.21454e-05
5.99171e-05
5.44286e-05
6.73453e-05
4.05501e-05
1.06126e-06
0.000173167
0.000170574
0.000167851
0.000164527
0.000161049
0.000157418
0.000153584
0.000149676
0.000145768
0.00014184
0.000137806
0.00013381
0.000129541
0.000125156
0.000120538
0.000115673
0.000110511
0.000105072
9.93616e-05
9.34089e-05
8.72552e-05
8.09343e-05
7.44855e-05
6.79818e-05
6.15144e-05
5.5188e-05
4.91248e-05
4.34267e-05
3.81567e-05
3.33473e-05
2.90259e-05
2.52221e-05
2.19499e-05
1.92508e-05
1.715e-05
1.60161e-05
1.54794e-05
1.70641e-05
2.39834e-05
0.00015401
0.000156269
0.000158643
0.000160958
0.000163179
0.000165343
0.000167317
0.000169027
0.000170442
0.000171485
0.000172108
0.000172291
0.000171889
0.00017089
0.000169409
0.000167135
0.000164218
0.000160632
0.000156396
0.000151552
0.000146085
0.000140099
0.000133738
0.000127012
0.000119821
0.000112083
0.000103923
9.57097e-05
8.78974e-05
8.08118e-05
7.45103e-05
6.89741e-05
6.42629e-05
6.03252e-05
5.78896e-05
5.47234e-05
5.65359e-05
6.11743e-05
1.35234e-05
0.000151641
0.00014932
0.000146934
0.000144054
0.000141079
0.000137968
0.000134732
0.000131474
0.000128234
0.000124987
0.000121776
0.000118494
0.000115103
0.000111545
0.000107819
0.000103871
9.96589e-05
9.51846e-05
9.04224e-05
8.53903e-05
8.01194e-05
7.46289e-05
6.89582e-05
6.31613e-05
5.73443e-05
5.16353e-05
4.6129e-05
4.0909e-05
3.60347e-05
3.15609e-05
2.75032e-05
2.39069e-05
2.07849e-05
1.8182e-05
1.61171e-05
1.49278e-05
1.43233e-05
1.55346e-05
2.14101e-05
0.000135254
0.000137291
0.000139451
0.000141555
0.000143646
0.000145684
0.000147577
0.000149273
0.000150745
0.000151904
0.000152747
0.000153191
0.00015326
0.000152733
0.000151795
0.000150313
0.000148197
0.000145499
0.000142227
0.000138407
0.000134014
0.000129088
0.000123779
0.000118082
0.000111922
0.000105239
9.81409e-05
9.09227e-05
8.3958e-05
7.7522e-05
7.17321e-05
6.65882e-05
6.21575e-05
5.84819e-05
5.57145e-05
5.40681e-05
5.15442e-05
6.06925e-05
3.68162e-05
0.000133136
0.000131065
0.000128954
0.000126465
0.000123897
0.000121215
0.000118466
0.000115729
0.00011303
0.00011035
0.000107717
0.000105024
0.000102325
9.94083e-05
9.63994e-05
9.31974e-05
8.97695e-05
8.60754e-05
8.21183e-05
7.78866e-05
7.33773e-05
6.86122e-05
6.36325e-05
5.84991e-05
5.33137e-05
4.81793e-05
4.31881e-05
3.84256e-05
3.39399e-05
2.97821e-05
2.59858e-05
2.25856e-05
1.96207e-05
1.71144e-05
1.50857e-05
1.38466e-05
1.31774e-05
1.40771e-05
1.90317e-05
0.000119062
0.000120888
0.000122861
0.00012478
0.000126716
0.000128617
0.000130422
0.000132072
0.000133526
0.000134768
0.000135729
0.000136379
0.000136702
0.000136616
0.000136068
0.000135168
0.000133681
0.000131698
0.000129212
0.000126235
0.000122744
0.00011874
0.000114332
0.000109552
0.00010432
9.85947e-05
9.2465e-05
8.61531e-05
7.99775e-05
7.41784e-05
6.88815e-05
6.41329e-05
5.99769e-05
5.65458e-05
5.36867e-05
5.23951e-05
4.95613e-05
5.41361e-05
4.94399e-05
0.00011717
0.000115322
0.000113445
0.000111276
0.00010905
0.00010674
0.000104379
0.000102055
9.97944e-05
9.75709e-05
9.53738e-05
9.31893e-05
9.09821e-05
8.86279e-05
8.61776e-05
8.35835e-05
8.07683e-05
7.77269e-05
7.4433e-05
7.08588e-05
6.70119e-05
6.29123e-05
5.85645e-05
5.40333e-05
4.94267e-05
4.48259e-05
4.03174e-05
3.59776e-05
3.18679e-05
2.80123e-05
2.44743e-05
2.12752e-05
1.84487e-05
1.60364e-05
1.40514e-05
1.27661e-05
1.20436e-05
1.26948e-05
1.68515e-05
0.000105025
0.000106673
0.000108452
0.000110222
0.000111989
0.000113757
0.000115455
0.000117028
0.000118459
0.000119718
0.000120737
0.000121532
0.000122019
0.00012224
0.000122019
0.000121493
0.000120549
0.000119124
0.000117269
0.000115003
0.000112254
0.00010903
0.00010541
0.000101434
9.70381e-05
9.2172e-05
8.69029e-05
8.14166e-05
7.59694e-05
7.07842e-05
6.59714e-05
6.16137e-05
5.77389e-05
5.45147e-05
5.17445e-05
5.02726e-05
4.82043e-05
4.86542e-05
5.08518e-05
0.000103334
0.000101678
0.000100021
9.81229e-05
9.61707e-05
9.41742e-05
9.21432e-05
9.01635e-05
8.82471e-05
8.63886e-05
8.45502e-05
8.27689e-05
8.09319e-05
7.90558e-05
7.70355e-05
7.48988e-05
7.25901e-05
7.008e-05
6.73268e-05
6.43203e-05
6.10557e-05
5.75304e-05
5.37499e-05
4.97762e-05
4.56886e-05
4.15812e-05
3.75289e-05
3.35893e-05
2.98206e-05
2.62685e-05
2.29671e-05
1.99667e-05
1.7278e-05
1.49574e-05
1.30143e-05
1.16947e-05
1.09272e-05
1.13796e-05
1.48584e-05
9.28122e-05
9.42912e-05
9.59098e-05
9.75155e-05
9.91425e-05
0.000100782
0.000102363
0.000103849
0.000105228
0.000106466
0.000107524
0.000108377
0.000109005
0.000109387
0.000109473
0.000109201
0.000108675
0.0001077
0.000106346
0.000104648
0.000102517
9.9958e-05
9.70264e-05
9.37491e-05
9.00778e-05
8.59741e-05
8.14806e-05
7.67485e-05
7.19782e-05
6.73623e-05
6.30165e-05
5.90378e-05
5.54523e-05
5.24106e-05
4.97884e-05
4.80888e-05
4.65572e-05
4.50724e-05
4.77071e-05
9.131e-05
8.98191e-05
8.83413e-05
8.6686e-05
8.49756e-05
8.32274e-05
8.14719e-05
7.97791e-05
7.81477e-05
7.65732e-05
7.5039e-05
7.3551e-05
7.20276e-05
7.05222e-05
6.88383e-05
6.7077e-05
6.51833e-05
6.30961e-05
6.07962e-05
5.82712e-05
5.55035e-05
5.24761e-05
4.92011e-05
4.57274e-05
4.21173e-05
3.84615e-05
3.48282e-05
3.12665e-05
2.7823e-05
2.45506e-05
2.14808e-05
1.86576e-05
1.61104e-05
1.38786e-05
1.19823e-05
1.06311e-05
9.82855e-06
1.01339e-05
1.30519e-05
8.21512e-05
8.34885e-05
8.49551e-05
8.6417e-05
8.79087e-05
8.94122e-05
9.08811e-05
9.22817e-05
9.35854e-05
9.47815e-05
9.58429e-05
9.67322e-05
9.74433e-05
9.79359e-05
9.82327e-05
9.81814e-05
9.79216e-05
9.73282e-05
9.63706e-05
9.51153e-05
9.35028e-05
9.14932e-05
8.91444e-05
8.6474e-05
8.34398e-05
8.00097e-05
7.62122e-05
7.21562e-05
6.80074e-05
6.39277e-05
6.00346e-05
5.64127e-05
5.31136e-05
5.02511e-05
4.7776e-05
4.59503e-05
4.4565e-05
4.2523e-05
4.38394e-05
8.08148e-05
7.94795e-05
7.81624e-05
7.67049e-05
7.52029e-05
7.36711e-05
7.21481e-05
7.0678e-05
6.92887e-05
6.79478e-05
6.66606e-05
6.53847e-05
6.41585e-05
6.28653e-05
6.15154e-05
6.00567e-05
5.84703e-05
5.67343e-05
5.48167e-05
5.26951e-05
5.03501e-05
4.77595e-05
4.49372e-05
4.19036e-05
3.87231e-05
3.54827e-05
3.22252e-05
2.90082e-05
2.58775e-05
2.28665e-05
2.00201e-05
1.73742e-05
1.49659e-05
1.28218e-05
1.09646e-05
9.59366e-06
8.75898e-06
8.95948e-06
1.14233e-05
7.28291e-05
7.40389e-05
7.53661e-05
7.66931e-05
7.80473e-05
7.943e-05
8.07861e-05
8.20902e-05
8.33248e-05
8.44665e-05
8.54961e-05
8.64009e-05
8.71491e-05
8.77213e-05
8.81265e-05
8.82752e-05
8.82062e-05
8.78956e-05
8.72607e-05
8.63594e-05
8.51646e-05
8.36233e-05
8.17572e-05
7.96068e-05
7.71329e-05
7.4289e-05
7.10967e-05
6.76467e-05
6.40643e-05
6.04875e-05
5.70232e-05
5.37504e-05
5.07265e-05
4.80534e-05
4.57076e-05
4.38457e-05
4.24035e-05
4.02969e-05
4.03758e-05
7.16371e-05
7.04446e-05
6.9262e-05
6.79762e-05
6.66516e-05
6.53089e-05
6.39704e-05
6.26954e-05
6.14968e-05
6.03541e-05
5.92579e-05
5.81863e-05
5.71451e-05
5.60659e-05
5.49725e-05
5.37235e-05
5.24039e-05
5.09634e-05
4.93669e-05
4.75853e-05
4.55989e-05
4.33886e-05
4.09576e-05
3.83077e-05
3.55139e-05
3.26405e-05
2.97338e-05
2.68381e-05
2.39934e-05
2.12358e-05
1.86034e-05
1.61248e-05
1.38455e-05
1.17885e-05
9.97391e-06
8.59016e-06
7.73062e-06
7.85331e-06
9.94772e-06
6.4654e-05
6.57421e-05
6.69394e-05
6.81442e-05
6.93798e-05
7.06488e-05
7.18915e-05
7.31033e-05
7.426e-05
7.53452e-05
7.63373e-05
7.7217e-05
7.79792e-05
7.86065e-05
7.90757e-05
7.93629e-05
7.94334e-05
7.93613e-05
7.89809e-05
7.83674e-05
7.75134e-05
7.63567e-05
7.49029e-05
7.3185e-05
7.11902e-05
6.88486e-05
6.61834e-05
6.3265e-05
6.01911e-05
5.70726e-05
5.40041e-05
5.10675e-05
4.83138e-05
4.58306e-05
4.36022e-05
4.17498e-05
4.02058e-05
3.81188e-05
3.73474e-05
6.35849e-05
6.25256e-05
6.14659e-05
6.03234e-05
5.91507e-05
5.79701e-05
5.67914e-05
5.56854e-05
5.46381e-05
5.36554e-05
5.27132e-05
5.1807e-05
5.09123e-05
5.00186e-05
4.90873e-05
4.80514e-05
4.69568e-05
4.57626e-05
4.44231e-05
4.29162e-05
4.12302e-05
3.93433e-05
3.72383e-05
3.49317e-05
3.2488e-05
2.99468e-05
2.73616e-05
2.47611e-05
2.21816e-05
1.9661e-05
1.72276e-05
1.49135e-05
1.27553e-05
1.07845e-05
9.01221e-06
7.62017e-06
6.73539e-06
6.81319e-06
8.63341e-06
5.74637e-05
5.84433e-05
5.95292e-05
6.0621e-05
6.17446e-05
6.28989e-05
6.40427e-05
6.5162e-05
6.62414e-05
6.72574e-05
6.82007e-05
6.9058e-05
6.98132e-05
7.04591e-05
7.09719e-05
7.13696e-05
7.15447e-05
7.16099e-05
7.14451e-05
7.10542e-05
7.04683e-05
6.96273e-05
6.85121e-05
6.71689e-05
6.55741e-05
6.36773e-05
6.14737e-05
5.90235e-05
5.64031e-05
5.37031e-05
5.10035e-05
4.838e-05
4.58818e-05
4.35779e-05
4.14734e-05
3.96522e-05
3.80274e-05
3.59417e-05
3.46272e-05
5.65059e-05
5.55593e-05
5.46126e-05
5.36031e-05
5.25593e-05
5.15065e-05
5.04837e-05
4.95104e-05
4.85935e-05
4.77389e-05
4.69304e-05
4.61522e-05
4.53799e-05
4.46284e-05
4.38317e-05
4.29966e-05
4.20707e-05
4.10606e-05
3.99205e-05
3.86478e-05
3.72167e-05
3.55973e-05
3.37808e-05
3.17879e-05
2.96476e-05
2.74069e-05
2.5109e-05
2.2781e-05
2.04464e-05
1.81407e-05
1.58946e-05
1.37368e-05
1.17018e-05
9.80772e-06
8.08056e-06
6.68055e-06
5.78226e-06
5.84436e-06
7.46007e-06
5.11309e-05
5.20143e-05
5.29946e-05
5.39807e-05
5.50022e-05
5.60538e-05
5.71065e-05
5.81372e-05
5.91304e-05
6.00806e-05
6.09705e-05
6.17909e-05
6.25293e-05
6.31742e-05
6.37185e-05
6.41571e-05
6.44375e-05
6.4586e-05
6.45781e-05
6.43606e-05
6.39767e-05
6.33902e-05
6.25588e-05
6.15289e-05
6.02671e-05
5.87454e-05
5.69516e-05
5.49156e-05
5.2701e-05
5.03821e-05
4.80242e-05
4.56944e-05
4.34384e-05
4.13181e-05
3.93379e-05
3.75552e-05
3.58878e-05
3.37901e-05
3.21233e-05
5.02761e-05
4.94266e-05
4.85765e-05
4.76765e-05
4.67546e-05
4.58172e-05
4.49129e-05
4.40584e-05
4.32571e-05
4.25066e-05
4.1805e-05
4.1131e-05
4.04705e-05
3.98308e-05
3.9153e-05
3.84631e-05
3.76596e-05
3.67957e-05
3.58348e-05
3.47641e-05
3.35435e-05
3.21615e-05
3.06044e-05
2.88782e-05
2.70062e-05
2.50308e-05
2.29878e-05
2.09012e-05
1.87956e-05
1.66916e-05
1.46217e-05
1.26119e-05
1.0688e-05
8.87026e-06
7.19793e-06
5.79177e-06
4.87956e-06
4.94933e-06
6.4244e-06
4.55406e-05
4.63388e-05
4.72226e-05
4.81145e-05
4.90374e-05
4.99977e-05
5.09603e-05
5.19076e-05
5.28212e-05
5.37061e-05
5.45385e-05
5.53114e-05
5.60224e-05
5.66583e-05
5.72139e-05
5.7674e-05
5.80217e-05
5.8224e-05
5.83578e-05
5.82754e-05
5.80559e-05
5.76661e-05
5.70718e-05
5.62918e-05
5.53142e-05
5.41015e-05
5.26459e-05
5.09647e-05
4.91077e-05
4.71284e-05
4.50808e-05
4.30272e-05
4.09976e-05
3.90583e-05
3.71986e-05
3.54709e-05
3.37903e-05
3.16991e-05
2.97962e-05
4.4774e-05
4.40174e-05
4.32534e-05
4.24496e-05
4.16293e-05
4.08004e-05
3.99923e-05
3.9237e-05
3.85347e-05
3.78738e-05
3.72588e-05
3.66751e-05
3.61039e-05
3.55442e-05
3.49747e-05
3.43723e-05
3.36958e-05
3.29672e-05
3.21603e-05
3.12518e-05
3.02089e-05
2.90317e-05
2.76885e-05
2.61872e-05
2.45499e-05
2.28107e-05
2.09998e-05
1.91338e-05
1.72314e-05
1.53185e-05
1.34186e-05
1.15482e-05
9.73576e-06
8.00261e-06
6.36665e-06
4.9613e-06
4.02976e-06
4.12219e-06
5.51791e-06
4.05988e-05
4.1317e-05
4.21095e-05
4.29166e-05
4.37579e-05
4.46316e-05
4.55103e-05
4.63736e-05
4.72178e-05
4.80322e-05
4.8806e-05
4.95361e-05
5.02142e-05
5.08294e-05
5.13765e-05
5.18435e-05
5.22518e-05
5.25022e-05
5.26948e-05
5.27394e-05
5.26437e-05
5.24081e-05
5.19993e-05
5.14255e-05
5.06831e-05
4.97348e-05
4.85604e-05
4.7186e-05
4.56438e-05
4.39639e-05
4.21996e-05
4.03921e-05
3.85808e-05
3.68094e-05
3.50764e-05
3.34081e-05
3.17302e-05
2.96693e-05
2.76276e-05
3.99096e-05
3.9232e-05
3.8548e-05
3.78297e-05
3.70991e-05
3.63621e-05
3.56438e-05
3.49766e-05
3.43502e-05
3.377e-05
3.32297e-05
3.27149e-05
3.22235e-05
3.17258e-05
3.12432e-05
3.07147e-05
3.01665e-05
2.95394e-05
2.8851e-05
2.80724e-05
2.71859e-05
2.6172e-05
2.50116e-05
2.37076e-05
2.22734e-05
2.07436e-05
1.91389e-05
1.7476e-05
1.57672e-05
1.40264e-05
1.22826e-05
1.05487e-05
8.84679e-06
7.19561e-06
5.60249e-06
4.1915e-06
3.23888e-06
3.3694e-06
4.71892e-06
3.62183e-05
3.6869e-05
3.75833e-05
3.83119e-05
3.90759e-05
3.98704e-05
4.06638e-05
4.14551e-05
4.22317e-05
4.29831e-05
4.36995e-05
4.43795e-05
4.50179e-05
4.5606e-05
4.61432e-05
4.66107e-05
4.70194e-05
4.73304e-05
4.75541e-05
4.76821e-05
4.76834e-05
4.75619e-05
4.73033e-05
4.68967e-05
4.63463e-05
4.56135e-05
4.46893e-05
4.35785e-05
4.23068e-05
4.08927e-05
3.93793e-05
3.78054e-05
3.6196e-05
3.45844e-05
3.29728e-05
3.13741e-05
2.97243e-05
2.77123e-05
2.56038e-05
3.55996e-05
3.50022e-05
3.4386e-05
3.37416e-05
3.3086e-05
3.24338e-05
3.17941e-05
3.11999e-05
3.06453e-05
3.013e-05
2.96521e-05
2.91977e-05
2.87711e-05
2.83363e-05
2.79128e-05
2.74604e-05
2.70052e-05
2.64524e-05
2.58618e-05
2.51946e-05
2.44402e-05
2.35654e-05
2.25622e-05
2.14303e-05
2.01796e-05
1.88335e-05
1.74124e-05
1.59292e-05
1.43945e-05
1.28188e-05
1.12186e-05
9.61662e-06
8.0206e-06
6.44816e-06
4.91217e-06
3.49826e-06
2.50791e-06
2.69484e-06
4.03225e-06
3.23419e-05
3.29249e-05
3.35627e-05
3.42241e-05
3.49163e-05
3.56334e-05
3.63578e-05
3.708e-05
3.77885e-05
3.84782e-05
3.91424e-05
3.97733e-05
4.03743e-05
4.09279e-05
4.14386e-05
4.1904e-05
4.23097e-05
4.26458e-05
4.28887e-05
4.3094e-05
4.31642e-05
4.31389e-05
4.29929e-05
4.27232e-05
4.23227e-05
4.17703e-05
4.10472e-05
4.01568e-05
3.91071e-05
3.79279e-05
3.66387e-05
3.5273e-05
3.38465e-05
3.23902e-05
3.09004e-05
2.93855e-05
2.77769e-05
2.58299e-05
2.37193e-05
3.17779e-05
3.12454e-05
3.06983e-05
3.01201e-05
2.95351e-05
2.89503e-05
2.83836e-05
2.78492e-05
2.73598e-05
2.68984e-05
2.64748e-05
2.60755e-05
2.56926e-05
2.53197e-05
2.49394e-05
2.45636e-05
2.41405e-05
2.36912e-05
2.3179e-05
2.26074e-05
2.19577e-05
2.12027e-05
2.03338e-05
1.93463e-05
1.82538e-05
1.70739e-05
1.58194e-05
1.44985e-05
1.3119e-05
1.16948e-05
1.02341e-05
8.75259e-06
7.26442e-06
5.77361e-06
4.28907e-06
2.8796e-06
1.83615e-06
2.1071e-06
3.45983e-06
2.88947e-05
2.94167e-05
2.99926e-05
3.05896e-05
3.12159e-05
3.18669e-05
3.25238e-05
3.31796e-05
3.38294e-05
3.446e-05
3.50692e-05
3.56534e-05
3.62112e-05
3.67388e-05
3.7223e-05
3.76711e-05
3.80658e-05
3.84262e-05
3.86851e-05
3.89183e-05
3.90526e-05
3.90957e-05
3.90384e-05
3.88759e-05
3.85972e-05
3.81859e-05
3.76287e-05
3.69204e-05
3.60692e-05
3.50879e-05
3.39952e-05
3.28124e-05
3.15548e-05
3.02448e-05
2.88744e-05
2.74438e-05
2.58931e-05
2.40271e-05
2.19574e-05
2.83909e-05
2.79079e-05
2.74205e-05
2.69017e-05
2.63823e-05
2.58585e-05
2.53518e-05
2.48781e-05
2.44399e-05
2.40292e-05
2.36511e-05
2.32943e-05
2.29532e-05
2.26283e-05
2.22954e-05
2.19579e-05
2.15956e-05
2.1226e-05
2.07683e-05
2.02752e-05
1.97132e-05
1.90616e-05
1.831e-05
1.74531e-05
1.65016e-05
1.54648e-05
1.43536e-05
1.31791e-05
1.1946e-05
1.06565e-05
9.32836e-06
7.96473e-06
6.58028e-06
5.17583e-06
3.75722e-06
2.35725e-06
1.2309e-06
1.62239e-06
3.00167e-06
2.5825e-05
2.62959e-05
2.68156e-05
2.73556e-05
2.7922e-05
2.85103e-05
2.91073e-05
2.97046e-05
3.02947e-05
3.08703e-05
3.143e-05
3.19718e-05
3.24828e-05
3.29741e-05
3.34365e-05
3.38642e-05
3.42539e-05
3.46012e-05