/*--------------------------------*- C++ -*----------------------------------*\
| =========                 |                                                 |
| \\      /  F ield         | OpenFOAM: The Open Source CFD Toolbox           |
|  \\    /   O peration     | Version:  2506                                  |
|   \\  /    A nd           | Website:  www.openfoam.com                      |
|    \\/     M anipulation  |                                                 |
\*---------------------------------------------------------------------------*/
FoamFile
{
    version     2.0;
    format      ascii;
    arch        "LSB;label=32;scalar=64";
    class       volSymmTensorField;
    location    "150";
    object      turbulenceProperties:devReff;
}
// * * * * * * * * * * * * * * * * * * * * * * * * * * * * * * * * * * * * * //

dimensions      [0 2 -2 0 0 0 0];

internalField   nonuniform List<symmTensor> 
10720
(
(0.00155343 0.00383416 -1.45364e-21 -0.00167645 -2.07291e-20 0.000123026)
(0.00223443 0.00439538 3.96312e-21 -0.0023226 1.29988e-19 8.81718e-05)
(0.00334305 0.00491964 -3.2741e-20 -0.00352162 -3.95208e-19 0.000178563)
(0.00483063 0.00560353 1.15833e-19 -0.00505394 7.94192e-19 0.000223312)
(0.0068208 0.00620657 -2.05459e-19 -0.00706564 -7.49486e-19 0.000244833)
(0.00955405 0.00656942 -1.63263e-19 -0.00991184 -4.17248e-19 0.000357785)
(0.0131494 0.00668593 3.12794e-19 -0.0135955 1.14588e-18 0.0004461)
(0.0176894 0.00622886 -7.80802e-19 -0.0182261 -2.07221e-18 0.000536673)
(0.0233325 0.00484972 -1.90571e-19 -0.0240232 5.39853e-19 0.000690689)
(0.0301881 0.00231561 5.81171e-19 -0.0310227 1.16753e-18 0.000834628)
(0.03835 -0.00188728 1.47168e-18 -0.0393678 5.47907e-19 0.00101774)
(0.0482925 -0.00830232 -3.31425e-18 -0.0495322 -3.05604e-18 0.00123963)
(0.0604225 -0.0177524 6.22507e-19 -0.0619201 8.09509e-19 0.00149766)
(0.0755525 -0.0317061 2.51772e-18 -0.0773935 1.19844e-18 0.00184104)
(0.094977 -0.0525785 -3.83396e-18 -0.097295 -5.90863e-18 0.00231801)
(0.120964 -0.0845049 -4.13655e-18 -0.123948 -2.36195e-18 0.00298389)
(0.156076 -0.134519 1.74794e-17 -0.160102 1.61187e-17 0.00402529)
(0.207 -0.216914 1.75152e-17 -0.212555 3.04125e-17 0.00555478)
(0.277967 -0.352727 -3.18336e-17 -0.285931 -4.75772e-17 0.00796407)
(0.395344 -0.606871 -2.62314e-18 -0.407208 1.3203e-17 0.0118636)
(0.556799 -1.04214 -2.4415e-17 -0.574437 4.14078e-17 0.0176378)
(0.887108 -2.05296 5.23855e-18 -0.915197 3.17288e-17 0.0280884)
(1.32842 -3.9745 -1.24568e-16 -1.37384 -3.7067e-16 0.0454199)
(2.26263 -9.66785 2.47312e-16 -2.3583 3.84185e-16 0.0956658)
(1.84164 -13.3895 2.74522e-17 -1.92547 -6.03423e-16 0.0838314)
(0.784467 -13.8073 4.26987e-16 -0.806667 4.88876e-16 0.0221996)
(-0.0641429 -13.4605 -6.50195e-17 0.07473 -7.36185e-17 -0.0105871)
(-0.70954 -13.313 2.69956e-16 0.7237 2.09824e-16 -0.0141597)
(-1.26763 -13.2753 7.81664e-16 1.27633 1.11672e-15 -0.00869949)
(-1.76528 -13.0989 5.19827e-16 1.76818 1.86108e-15 -0.00289818)
(-2.18521 -12.6873 -1.49168e-15 2.18141 -1.80534e-15 0.00380453)
(-2.51052 -12.063 -5.49674e-16 2.49973 -6.76754e-16 0.0107947)
(-2.73297 -11.2612 1.29644e-16 2.71701 -4.40135e-15 0.0159635)
(-2.84362 -10.3049 -2.67776e-15 2.82624 -6.86221e-15 0.0173836)
(-2.82637 -9.18283 9.74537e-16 2.8101 8.75052e-16 0.0162709)
(-2.67099 -7.91228 1.33709e-15 2.65811 1.16101e-15 0.0128829)
(-2.31748 -6.31779 -1.25271e-16 2.30385 -5.39238e-16 0.013632)
(-1.81387 -4.7216 -1.72584e-15 1.81054 1.18228e-18 0.00332243)
(-0.800525 -1.60407 -2.81419e-16 0.803686 -3.07432e-15 -0.00316045)
(0.000949668 0.00334797 3.99493e-21 -0.000996362 5.03504e-20 4.66941e-05)
(0.000572149 0.00288366 -4.60334e-21 -0.000652353 -4.05655e-21 8.02048e-05)
(0.000238539 0.0023585 -3.00979e-20 -0.000280002 -1.207e-19 4.14631e-05)
(1.87599e-05 0.00189121 1.77574e-20 -4.93048e-05 8.04434e-20 3.0545e-05)
(-7.84181e-05 0.00145001 4.81411e-22 6.27028e-05 -6.78168e-21 1.57154e-05)
(-6.74065e-05 0.00106427 -4.87487e-20 7.37001e-05 1.43709e-19 -6.29364e-06)
(1.75616e-05 0.000772233 -1.98208e-19 1.52203e-05 1.61115e-19 -3.27819e-05)
(0.00014502 0.00061441 1.47423e-19 -0.000107332 -7.42542e-20 -3.76886e-05)
(0.000333917 0.000639209 2.37288e-19 -0.000314656 -1.24424e-19 -1.92607e-05)
(0.000601146 0.000794376 -1.34743e-19 -0.000601168 2.78265e-20 2.26583e-08)
(0.00098404 0.00112762 -4.09749e-20 -0.000995288 1.75059e-19 1.12484e-05)
(0.00154031 0.00174773 2.58721e-19 -0.00156043 8.91816e-20 2.01242e-05)
(0.00234825 0.00283506 4.68244e-19 -0.00238368 -7.62367e-20 3.54276e-05)
(0.00349519 0.00463193 -2.76415e-20 -0.00355434 -2.48071e-19 5.91466e-05)
(0.00504296 0.00738052 -4.82021e-20 -0.00512741 -1.78134e-19 8.44437e-05)
(0.00701183 0.011384 6.5571e-20 -0.0071327 -6.68903e-20 0.000120866)
(0.00953438 0.0171168 -2.32009e-19 -0.0096954 6.64794e-19 0.000161026)
(0.0128999 0.0255786 7.71643e-19 -0.013118 2.56064e-19 0.000218134)
(0.0177309 0.0387319 3.44978e-19 -0.0180261 -1.19409e-18 0.000295238)
(0.0249183 0.0601608 -1.42573e-18 -0.025348 -3.0853e-19 0.000429659)
(0.0363062 0.0973437 -4.78533e-18 -0.0369583 -1.89302e-18 0.000652188)
(0.054088 0.163242 -3.46952e-18 -0.0551681 -8.36377e-19 0.00108011)
(0.0841029 0.292284 6.77545e-18 -0.0860766 -7.18362e-19 0.00197367)
(0.128704 0.538637 -8.7356e-18 -0.132722 1.35804e-18 0.00401827)
(0.205638 1.09671 4.54451e-18 -0.214421 -6.37883e-18 0.0087831)
(0.309077 2.23827 -1.3959e-16 -0.32728 4.96458e-18 0.0182033)
(0.462752 5.10187 -8.67678e-17 -0.506166 1.02848e-17 0.0434143)
(0.456604 10.1374 7.13466e-17 -0.542979 -6.49345e-19 0.0863743)
(0.00802609 13.9144 9.08567e-18 -0.11533 9.21135e-20 0.107304)
(-0.649942 15.4408 6.27752e-17 0.550556 -4.73533e-18 0.0993859)
(-1.30342 15.8232 -4.50976e-16 1.22063 -1.74681e-18 0.0827865)
(-1.90213 15.822 1.60084e-16 1.83426 2.48382e-17 0.0678676)
(-2.43804 15.6435 -1.94816e-15 2.38169 -1.75192e-16 0.0563504)
(-2.90354 15.3262 -3.5509e-15 2.85608 -1.5707e-16 0.0474564)
(-3.29683 14.8862 1.09614e-15 3.25595 1.29355e-16 0.0408826)
(-3.62258 14.3462 1.03876e-15 3.58677 1.51636e-16 0.0358085)
(-3.86504 13.6028 1.48838e-15 3.83241 2.61363e-16 0.0326327)
(-4.01157 12.7652 -2.97593e-16 3.98087 -3.95093e-17 0.0307067)
(-3.7394 10.3243 -4.67457e-15 3.73306 -8.05343e-16 0.00634144)
(0.00057275 -0.000436232 1.81592e-22 -0.000517888 3.6281e-21 -5.48621e-05)
(0.000489831 -0.000523941 2.75141e-20 -0.000427258 6.78249e-20 -6.25723e-05)
(0.000372988 -0.000600865 -2.48238e-20 -0.000297544 -4.44404e-20 -7.5444e-05)
(0.000254901 -0.000632936 -1.92992e-20 -0.000168012 -5.12322e-20 -8.68896e-05)
(0.000139325 -0.000629415 1.19027e-19 -4.37355e-05 2.28433e-19 -9.55892e-05)
(3.02334e-05 -0.00059825 4.64936e-20 7.41272e-05 7.22967e-20 -0.000104361)
(-5.35107e-05 -0.000542318 2.19012e-19 0.000165541 2.02391e-19 -0.00011203)
(-0.000110983 -0.000472565 -1.11122e-19 0.000228115 -2.21575e-20 -0.000117132)
(-0.000145213 -0.000400105 1.59363e-19 0.000266038 1.11641e-19 -0.000120825)
(-0.000155881 -0.000332351 -5.17843e-21 0.000278719 2.49151e-22 -0.000122838)
(-0.000150294 -0.000274156 -2.18e-19 0.00027368 -1.86072e-19 -0.000123385)
(-0.000134332 -0.000230383 2.77928e-19 0.000256561 3.43445e-19 -0.000122229)
(-0.000113402 -0.000208724 1.65567e-19 0.000236055 8.31742e-20 -0.000122652)
(-9.19488e-05 -0.000214207 -3.35534e-20 0.000223098 1.70797e-20 -0.000131149)
(-6.62308e-05 -0.000271005 -1.84527e-19 0.000227233 3.08191e-20 -0.000161002)
(-8.96709e-06 -0.000471785 3.69031e-19 0.00025978 4.17853e-19 -0.000250813)
(0.00020174 -0.00107691 6.30348e-19 0.000266086 -7.18077e-19 -0.000467826)
(0.000859102 -0.00258155 -3.64354e-18 -1.04285e-05 -4.57235e-18 -0.000848674)
(0.00246128 -0.00597737 5.02651e-19 -0.00107434 5.7522e-18 -0.00138694)
(0.00662719 -0.0151693 6.18118e-18 -0.00428865 -1.7801e-18 -0.00233854)
(0.0162803 -0.038419 1.11009e-17 -0.0126247 4.68581e-18 -0.00365551)
(0.0455577 -0.117995 -1.98735e-17 -0.0392452 -1.62347e-17 -0.00631251)
(0.102906 -0.31202 5.41059e-17 -0.0945516 1.08296e-16 -0.00835481)
(0.270938 -1.02668 2.1388e-19 -0.259446 -8.61893e-17 -0.0114921)
(0.455828 -2.27185 -1.97708e-16 -0.453483 9.65232e-17 -0.00234536)
(0.524602 -3.6677 -9.61138e-17 -0.544694 -4.20634e-16 0.0200923)
(0.440085 -5.04256 -2.50123e-18 -0.480922 5.27139e-17 0.0408372)
(0.20055 -6.18453 -2.41346e-16 -0.250581 -3.11393e-16 0.0500311)
(-0.15105 -6.76352 -4.4752e-16 0.104201 -2.15719e-15 0.0468496)
(-0.50163 -6.5811 -1.79022e-16 0.469461 -2.80189e-15 0.0321689)
(-0.738873 -5.80531 4.80387e-16 0.728639 4.07881e-15 0.010234)
(-0.840564 -4.84272 -8.47268e-16 0.852046 -1.24065e-16 -0.0114824)
(-0.850882 -3.99243 -6.89267e-15 0.876877 1.23329e-15 -0.0259955)
(-0.814377 -3.32931 8.10642e-15 0.844734 1.34881e-14 -0.0303574)
(-0.762365 -2.83049 -1.37139e-15 0.789048 -6.1974e-16 -0.0266835)
(-0.698614 -2.44955 3.24086e-15 0.720743 -4.73579e-15 -0.0221288)
(-0.658292 -2.18626 -1.45452e-15 0.673022 1.43828e-15 -0.0147304)
(-0.532465 -1.98514 3.22823e-15 0.563583 3.68432e-16 -0.0311183)
(-0.729236 -2.15102 5.7167e-15 0.644016 7.87607e-15 0.0852196)
(0.00063474 -0.000321011 9.30406e-21 -0.000588966 2.0151e-20 -4.57732e-05)
(0.00066908 -0.000201331 -1.27481e-20 -0.000626997 -9.75842e-20 -4.2083e-05)
(0.00067204 -5.54894e-05 -1.95086e-20 -0.000639868 -9.61312e-20 -3.21716e-05)
(0.000630539 0.000103419 -7.8277e-21 -0.000608968 1.66424e-19 -2.15712e-05)
(0.000537401 0.000247574 5.48274e-21 -0.000528278 3.41351e-20 -9.12337e-06)
(0.000399282 0.000354238 4.46281e-20 -0.000399445 -1.70628e-19 1.62926e-07)
(0.000247844 0.000403114 6.29671e-20 -0.000253214 -2.06876e-19 5.37038e-06)
(0.000118771 0.000401563 -3.33895e-19 -0.000128932 1.6801e-20 1.01616e-05)
(9.52036e-06 0.000368281 3.49607e-20 -1.9133e-05 1.99865e-19 9.61265e-06)
(-7.82074e-05 0.000307269 -7.7635e-21 7.45671e-05 -1.11893e-19 3.64028e-06)
(-0.000127804 0.000234793 -7.36515e-20 0.000132029 -7.1869e-20 -4.22522e-06)
(-0.000144012 0.000170118 -5.734e-20 0.000154527 -7.45156e-20 -1.05149e-05)
(-0.000140535 0.000119689 -9.7434e-21 0.000155067 1.83855e-20 -1.45325e-05)
(-0.000127051 8.33697e-05 3.55251e-20 0.000143848 9.20665e-20 -1.67971e-05)
(-0.000109813 5.89645e-05 6.33202e-20 0.000127635 2.15307e-20 -1.78222e-05)
(-9.26758e-05 4.31843e-05 -9.34309e-20 0.000110602 -1.5712e-21 -1.79259e-05)
(-7.7148e-05 3.33981e-05 8.59219e-20 9.45422e-05 5.57848e-21 -1.73942e-05)
(-6.3961e-05 2.74659e-05 -1.1467e-20 8.04363e-05 -2.57938e-20 -1.64753e-05)
(-5.3057e-05 2.372e-05 -3.58875e-20 6.84051e-05 5.01859e-20 -1.53481e-05)
(-4.41879e-05 2.12035e-05 -2.71915e-20 5.83966e-05 2.62187e-20 -1.42087e-05)
(-3.70879e-05 1.93131e-05 -6.51235e-20 5.03047e-05 6.45277e-20 -1.32169e-05)
(-3.19563e-05 1.79428e-05 -8.99206e-20 4.46302e-05 4.24374e-20 -1.26739e-05)
(-2.86813e-05 1.71034e-05 -1.27265e-19 4.15978e-05 1.19424e-20 -1.29165e-05)
(-2.64897e-05 1.71907e-05 5.763e-20 4.05508e-05 3.4834e-21 -1.40611e-05)
(-2.46047e-05 1.92876e-05 -4.31474e-21 4.02783e-05 4.35508e-21 -1.56736e-05)
(-0.00028575 0.000285291 6.52341e-19 0.00049832 1.13673e-19 -0.000212569)
(-0.00153728 0.0018873 3.5128e-18 0.00281759 -2.15046e-19 -0.00128031)
(-0.010214 0.0152003 1.23633e-18 0.0193365 -2.22641e-19 -0.00912249)
(-0.0285874 0.0537076 -7.92195e-19 0.0548691 8.71884e-21 -0.0262817)
(-0.0470919 0.114704 5.41783e-17 0.0894728 3.66957e-18 -0.0423809)
(-0.0597902 0.185608 4.25991e-16 0.108651 4.21305e-18 -0.048861)
(-0.0678079 0.25149 2.51635e-16 0.113969 1.53163e-17 -0.0461613)
(-0.075213 0.306009 1.83073e-15 0.114818 1.16141e-16 -0.039605)
(-0.0846834 0.351529 2.63147e-15 0.117924 1.00644e-16 -0.033241)
(-0.0973794 0.391712 -5.9531e-16 0.125807 -7.02924e-17 -0.0284281)
(-0.112162 0.431748 -5.10816e-16 0.13779 -7.71907e-17 -0.0256283)
(-0.133052 0.472003 -1.26895e-15 0.156287 -4.72902e-16 -0.0232345)
(-0.151661 0.570271 -2.58833e-15 0.179362 -3.5013e-17 -0.0277005)
(-0.213761 0.802102 -2.08312e-15 0.202132 1.32444e-15 0.011629)
(0.000338752 -0.000294316 1.95245e-21 -0.000362262 3.06451e-21 2.35095e-05)
(0.000266941 -0.000354219 -2.78796e-20 -0.000295653 -6.29585e-20 2.87123e-05)
(0.000173158 -0.000397127 -5.56423e-21 -0.000206914 -4.16078e-21 3.37559e-05)
(6.78373e-05 -0.00041262 2.37108e-20 -0.000108949 4.76328e-20 4.11119e-05)
(-3.6036e-05 -0.000402615 -7.08094e-20 -1.0959e-05 -1.39467e-19 4.6995e-05)
(-0.000134625 -0.000365769 -7.97093e-20 8.172e-05 -1.29346e-19 5.29047e-05)
(-0.000217939 -0.0003057 -1.62812e-19 0.000158529 -2.37506e-19 5.94102e-05)
(-0.000279064 -0.000231601 -1.23648e-20 0.000214326 -2.35531e-21 6.47385e-05)
(-0.000317642 -0.000149559 -7.40272e-20 0.000248268 -1.6804e-19 6.93743e-05)
(-0.000333931 -6.79984e-05 2.98544e-19 0.000260405 3.36004e-19 7.35254e-05)
(-0.000331247 7.34644e-06 -4.75823e-20 0.000254845 6.58567e-20 7.64022e-05)
(-0.000313761 7.35164e-05 3.51217e-20 0.000235467 2.04139e-20 7.82943e-05)
(-0.000289292 0.000127867 -2.27941e-19 0.000211165 -2.87865e-19 7.81269e-05)
(-0.000261713 0.000171591 1.45606e-19 0.000185723 -1.32962e-20 7.59901e-05)
(-0.000235429 0.000206973 4.23314e-20 0.000162591 1.32147e-19 7.28389e-05)
(-0.000206858 0.000228453 5.32149e-20 0.000140119 2.47852e-20 6.67389e-05)
(-0.000168871 0.00022644 -2.4503e-19 0.000113113 -1.42276e-19 5.57571e-05)
(-0.000135964 0.000215581 2.04097e-19 9.11591e-05 1.53457e-19 4.48052e-05)
(-9.78781e-05 0.000179893 5.31247e-20 6.6643e-05 -3.56085e-22 3.12352e-05)
(-0.00064438 0.00134025 -1.65818e-18 0.000453484 -2.3966e-19 0.000190896)
(-0.00124049 0.00287656 3.9232e-18 0.000914417 -1.59784e-18 0.000326072)
(-0.000913347 0.00236588 8.49194e-20 0.000713288 1.66959e-18 0.000200058)
(-0.00208778 0.00660633 3.75972e-18 0.00174389 -5.82667e-18 0.000343889)
(0.000210525 -0.000188574 -1.75686e-18 -0.00015734 -1.89691e-18 -5.31848e-05)
(0.00450904 -0.0155076 3.46406e-18 -0.00375802 1.00077e-17 -0.000751022)
(0.0118415 -0.0593597 -1.54989e-17 -0.00999792 3.14034e-18 -0.00184354)
(0.0216448 -0.170507 8.13043e-18 -0.0183697 4.39088e-19 -0.00327516)
(0.0299865 -0.43888 -6.47747e-18 -0.025099 4.21917e-17 -0.00488751)
(0.0193768 -0.994553 -2.73021e-16 -0.0135045 1.43897e-16 -0.00587221)
(-0.0465141 -1.8803 1.20603e-16 0.0513133 2.26499e-16 -0.0047992)
(-0.199961 -2.91795 1.16136e-15 0.200447 -4.14056e-16 -0.000485851)
(-0.420682 -3.71852 -2.12614e-15 0.414366 1.69989e-15 0.00631549)
(-0.624713 -3.98746 5.21052e-16 0.613291 7.49283e-15 0.011422)
(-0.739365 -3.78314 -7.40587e-17 0.729168 -5.27489e-15 0.0101976)
(-0.762761 -3.36278 2.67663e-15 0.757713 -2.10143e-15 0.00504746)
(-0.71526 -2.90789 -1.27668e-14 0.715814 5.84515e-16 -0.000554014)
(-0.658938 -2.53899 4.47035e-15 0.65816 -1.54163e-15 0.000778422)
(-0.456054 -2.16764 4.71804e-15 0.467357 -1.4532e-15 -0.0113027)
(-0.709108 -2.43608 -9.95781e-15 0.694262 2.91106e-15 0.0148463)
(0.000396574 -0.000218418 -4.00994e-21 -0.000417819 -7.59143e-21 2.12448e-05)
(0.000433433 -0.000136814 -1.35714e-20 -0.000450116 -1.43132e-20 1.66832e-05)
(0.000453976 -3.73244e-05 6.1067e-20 -0.000466656 1.17098e-19 1.26801e-05)
(0.00044542 6.79447e-05 1.0508e-20 -0.000453151 -2.26295e-20 7.73064e-06)
(0.000403092 0.000170744 7.32559e-21 -0.000407238 -8.7225e-20 4.14571e-06)
(0.000326151 0.000253715 -2.77861e-20 -0.00032716 7.44544e-20 1.00902e-06)
(0.000227651 0.000303107 9.65231e-20 -0.000227448 2.30747e-19 -2.03009e-07)
(0.000127274 0.000317322 1.67888e-19 -0.000128345 1.58978e-19 1.07138e-06)
(3.61308e-05 0.000304717 6.23976e-20 -3.72454e-05 -1.24845e-19 1.1146e-06)
(-3.71006e-05 0.000266098 1.02966e-19 3.6082e-05 6.77e-20 1.01863e-06)
(-8.31534e-05 0.000212816 -8.31336e-20 8.13822e-05 2.24975e-20 1.77118e-06)
(-0.000104557 0.000159185 -9.42035e-21 0.000101356 6.53935e-20 3.20036e-06)
(-0.000109167 0.000112485 1.20471e-20 0.000104248 -6.23247e-20 4.91948e-06)
(-0.000103492 7.50008e-05 1.17555e-19 9.67849e-05 -7.84852e-20 6.7075e-06)
(-9.26925e-05 4.70267e-05 5.52169e-21 8.45552e-05 -1.07529e-20 8.13729e-06)
(-8.02939e-05 2.69578e-05 -1.20848e-20 7.09829e-05 4.85525e-20 9.31095e-06)
(-6.83768e-05 1.31265e-05 8.62788e-20 5.82413e-05 -9.17193e-20 1.01355e-05)
(-5.79263e-05 3.67569e-06 1.27317e-20 4.72177e-05 1.06294e-20 1.07086e-05)
(-4.93652e-05 -2.8749e-06 9.70482e-20 3.83667e-05 -8.38682e-21 1.09985e-05)
(-4.23949e-05 -7.79924e-06 1.03089e-19 3.11997e-05 1.85772e-20 1.11952e-05)
(-3.66953e-05 -1.18064e-05 2.6347e-19 2.54159e-05 -3.60164e-20 1.12794e-05)
(-3.16989e-05 -1.5622e-05 3.37572e-19 2.02785e-05 -5.12823e-20 1.14204e-05)
(-2.66433e-05 -1.96633e-05 1.98195e-19 1.49716e-05 1.19966e-20 1.16717e-05)
(-2.00416e-05 -2.34782e-05 4.5113e-20 7.6075e-06 -8.33508e-21 1.24341e-05)
(-1.19062e-05 -2.54633e-05 -4.9159e-20 -1.82606e-06 2.04752e-20 1.37323e-05)
(-3.79435e-06 -2.45394e-05 1.84492e-19 -1.09818e-05 -2.54115e-20 1.47761e-05)
(3.10942e-06 -2.25458e-05 -4.97437e-20 -1.93242e-05 -2.6051e-21 1.62148e-05)
(5.93431e-06 -1.35367e-05 -3.11608e-20 -1.81885e-05 5.17644e-22 1.22542e-05)
(8.21082e-05 -9.90031e-05 3.94715e-20 -0.000205426 -4.17487e-22 0.000123317)
(0.000574287 -0.000276617 -1.72084e-18 -0.00131294 -2.65859e-20 0.000738656)
(0.00161386 0.0006962 -9.86863e-18 -0.00356117 4.7618e-19 0.00194732)
(0.00242934 0.00572715 -6.0408e-17 -0.00548446 -3.37185e-18 0.00305512)
(0.00175854 0.0177946 -1.45377e-16 -0.00502523 -3.45487e-19 0.00326669)
(-0.00114906 0.0383513 -3.56954e-16 -0.0013866 -1.7528e-17 0.00253566)
(-0.00644837 0.0667268 -8.9912e-16 0.00503143 -9.82418e-17 0.00141693)
(-0.0126669 0.10041 2.2478e-16 0.0123144 -5.50837e-18 0.000352515)
(-0.0208429 0.136099 -1.20978e-15 0.0209209 1.5984e-16 -7.8011e-05)
(-0.0106042 0.16232 3.05848e-15 0.0115112 5.45837e-16 -0.000907024)
(-0.0407278 0.276446 4.78458e-15 0.0325181 9.74837e-16 0.00820972)
(0.000303873 -0.000242717 9.25534e-21 -0.000295833 1.52336e-20 -8.03963e-06)
(0.000259081 -0.000290854 -1.25984e-20 -0.000250104 -2.25562e-20 -8.9769e-06)
(0.000198201 -0.00033281 -5.80401e-21 -0.000186526 -4.50475e-21 -1.16752e-05)
(0.000129478 -0.000360661 6.90905e-20 -0.000115314 1.00207e-19 -1.41631e-05)
(5.79977e-05 -0.000370679 4.50591e-20 -4.10055e-05 7.94942e-20 -1.69922e-05)
(-1.37506e-05 -0.000362913 5.81758e-20 3.40679e-05 1.06413e-19 -2.03173e-05)
(-7.84107e-05 -0.000339074 8.69021e-20 0.00010214 9.94438e-20 -2.3729e-05)
(-0.000131118 -0.000302063 -4.8911e-20 0.000158282 -7.50729e-20 -2.71637e-05)
(-0.000170314 -0.000256357 -1.7752e-19 0.000201186 -1.74452e-19 -3.08724e-05)
(-0.000194567 -0.000207218 2.27953e-19 0.000228792 1.28771e-19 -3.42257e-05)
(-0.00020512 -0.000158582 1.93369e-19 0.00024257 1.63066e-19 -3.74495e-05)
(-0.00020417 -0.000113644 2.50758e-19 0.000244469 1.20383e-19 -4.02985e-05)
(-0.000193977 -7.45198e-05 -4.10658e-19 0.000236469 -1.32244e-19 -4.24922e-05)
(-0.000177354 -4.18503e-05 -3.51855e-19 0.000220906 -2.35084e-19 -4.35521e-05)
(-0.000156399 -1.63626e-05 4.64059e-19 0.000200262 1.45744e-19 -4.38633e-05)
(-0.000132764 4.69465e-06 9.4445e-20 0.000175181 5.74836e-20 -4.24171e-05)
(-0.000107827 2.24434e-05 -7.028e-20 0.000147056 7.37262e-21 -3.92289e-05)
(-8.4663e-05 3.72219e-05 -2.29359e-19 0.000119673 -1.50288e-19 -3.50104e-05)
(-6.18315e-05 4.85192e-05 5.45353e-20 9.00152e-05 -2.08834e-20 -2.81837e-05)
(-4.2318e-05 5.43599e-05 2.19972e-19 6.21571e-05 6.80242e-20 -1.98391e-05)
(-2.98167e-05 5.7559e-05 -2.62805e-19 4.23726e-05 -7.55716e-20 -1.25559e-05)
(-5.68734e-05 0.000148997 2.76268e-19 7.58136e-05 3.75038e-20 -1.89402e-05)
(-2.68417e-05 9.48197e-05 -4.26742e-20 3.40217e-05 -9.33973e-21 -7.17998e-06)
(-0.000121336 0.000671219 -5.54869e-19 0.000155592 2.8272e-19 -3.42558e-05)
(-0.000327238 0.00444161 2.37131e-18 0.000513818 -7.78541e-19 -0.00018658)
(0.000226217 0.00841751 -4.06966e-18 0.000103904 5.55439e-18 -0.000330122)
(0.00174464 0.0149815 1.15863e-19 -0.00117989 -1.89942e-19 -0.000564745)
(0.00222282 0.0101083 4.12446e-18 -0.00183238 -1.49594e-18 -0.000390438)
(0.0032611 0.00619629 4.65781e-18 -0.00288346 1.09227e-17 -0.000377633)
(0.00625262 -0.0094698 9.76052e-18 -0.00566039 -5.38123e-17 -0.000592226)
(0.00994092 -0.110923 -3.48235e-17 -0.00875477 -1.96299e-16 -0.00118615)
(-0.0101444 -0.447012 1.19001e-15 0.0118086 3.13735e-16 -0.00166415)
(-0.0947306 -1.09442 1.96334e-15 0.0960628 4.54179e-16 -0.00133219)
(-0.256382 -1.87643 -1.26798e-15 0.255891 -1.67093e-15 0.000491336)
(-0.439661 -2.45654 -5.66065e-15 0.436379 1.17393e-15 0.00328258)
(-0.557072 -2.66636 4.03078e-15 0.554241 4.04556e-15 0.00283072)
(-0.606514 -2.64038 -8.59041e-15 0.602252 -1.3173e-16 0.00426218)
(-0.465386 -2.4252 -1.13835e-14 0.472386 1.6599e-15 -0.00699967)
(-0.653294 -2.64301 8.4828e-15 0.628884 -3.32782e-15 0.0244108)
(0.000337565 -0.00018323 -1.45902e-20 -0.000332419 -2.84835e-20 -5.14526e-06)
(0.000358028 -0.000120752 -5.76897e-21 -0.000353646 2.29425e-20 -4.38179e-06)
(0.000364583 -4.41452e-05 4.79863e-20 -0.000362833 8.54812e-20 -1.75001e-06)
(0.000353346 3.62573e-05 -2.31695e-20 -0.000352783 1.60089e-21 -5.62951e-07)
(0.000320208 0.000114099 1.73943e-20 -0.000320623 1.1005e-19 4.14802e-07)
(0.000265394 0.000179711 -6.77062e-21 -0.000265464 -1.11092e-19 6.93082e-08)
(0.000195951 0.000224478 5.78097e-20 -0.000195826 -1.85644e-21 -1.24247e-07)
(0.000122356 0.000245356 -1.43677e-19 -0.00012267 -8.51126e-20 3.14106e-07)
(5.16194e-05 0.000243215 -7.34402e-20 -5.24225e-05 6.98119e-21 8.03065e-07)
(-8.57258e-06 0.000220665 1.37649e-19 7.53621e-06 5.06924e-20 1.03637e-06)
(-5.14997e-05 0.000185755 5.92846e-20 5.06881e-05 -5.601e-21 8.11577e-07)
(-7.71293e-05 0.000147671 7.36639e-20 7.69357e-05 -4.43528e-20 1.93602e-07)
(-8.90627e-05 0.000112164 -1.20896e-19 8.97065e-05 -6.52599e-20 -6.43844e-07)
(-9.13984e-05 8.19322e-05 -1.41969e-19 9.29447e-05 2.8777e-20 -1.54629e-06)
(-8.77393e-05 5.80814e-05 1.52442e-20 9.02379e-05 3.42622e-20 -2.49862e-06)
(-8.10501e-05 4.01135e-05 4.28548e-20 8.43994e-05 -1.26647e-20 -3.34932e-06)
(-7.33412e-05 2.70865e-05 -1.10506e-19 7.74396e-05 -5.06382e-21 -4.09841e-06)
(-6.57929e-05 1.78007e-05 -2.57908e-21 7.04949e-05 -1.6083e-20 -4.70199e-06)
(-5.90419e-05 1.10949e-05 -4.1278e-20 6.42318e-05 -6.61631e-21 -5.18988e-06)
(-5.31868e-05 5.91942e-06 8.92276e-20 5.86984e-05 -4.7458e-20 -5.51159e-06)
(-4.81517e-05 1.62155e-06 -9.79799e-20 5.39059e-05 -2.77249e-20 -5.75418e-06)
(-4.36383e-05 -2.36619e-06 -1.98991e-19 4.95642e-05 -1.74805e-20 -5.92589e-06)
(-3.91703e-05 -6.3738e-06 1.11619e-20 4.5246e-05 -2.67056e-20 -6.07563e-06)
(-3.40223e-05 -1.01322e-05 5.23877e-20 4.01881e-05 -2.58543e-20 -6.16586e-06)
(-2.84068e-05 -1.24647e-05 1.54758e-19 3.48332e-05 -1.10622e-20 -6.42639e-06)
(-2.34834e-05 -1.31426e-05 -1.46202e-19 3.05111e-05 -4.54321e-21 -7.02774e-06)
(-1.9597e-05 -1.29299e-05 -2.45261e-20 2.73023e-05 5.8382e-21 -7.70534e-06)
(-1.66675e-05 -1.24128e-05 1.51542e-20 2.50354e-05 5.43667e-22 -8.36796e-06)
(-1.35531e-05 -1.12349e-05 -6.92831e-21 2.19444e-05 -1.28034e-22 -8.3913e-06)
(-1.14418e-05 -1.06196e-05 -1.06549e-20 1.99121e-05 -6.73394e-22 -8.47029e-06)
(-6.3094e-06 -6.8598e-06 -1.38117e-20 1.18135e-05 -1.7332e-21 -5.50409e-06)
(-3.92819e-06 -5.31414e-06 4.54984e-20 8.14923e-06 1.59338e-21 -4.22104e-06)
(-3.21975e-05 -5.97418e-05 2.36213e-18 8.50357e-05 2.0704e-19 -5.28383e-05)
(9.29244e-06 -1.54629e-05 2.15064e-17 0.000106654 1.78142e-18 -0.000115946)
(0.000274792 0.000784085 8.71882e-17 -0.000183596 9.81719e-18 -9.11956e-05)
(0.000958205 0.00392694 -1.8868e-16 -0.00105564 -2.73652e-17 9.74345e-05)
(0.0016188 0.0126398 7.97621e-16 -0.00217686 1.166e-16 0.000558053)
(0.00701933 0.0305886 -5.19709e-16 -0.00758318 -1.70374e-16 0.000563845)
(-0.00364047 0.111773 -3.54208e-16 -0.00136635 -1.41168e-15 0.00500682)
(0.000223714 -0.000184715 -1.35572e-20 -0.000226196 -1.90937e-20 2.48201e-06)
(0.000187133 -0.00022049 2.51306e-21 -0.000190849 3.5506e-21 3.71557e-06)
(0.000139427 -0.000250836 1.62448e-20 -0.000143572 1.78905e-20 4.14457e-06)
(8.4806e-05 -0.000269917 -9.82929e-20 -9.01354e-05 -1.33981e-19 5.3294e-06)
(2.72936e-05 -0.000275608 -7.20213e-20 -3.39327e-05 -8.3734e-20 6.6391e-06)
(-3.09144e-05 -0.000267251 1.66722e-19 2.3073e-05 1.95492e-19 7.84139e-06)
(-8.4599e-05 -0.000245396 -1.76084e-19 7.51401e-05 -2.14231e-19 9.45889e-06)
(-0.000129879 -0.000212098 -7.87016e-20 0.00011867 -5.33771e-20 1.12096e-05)
(-0.000164498 -0.000170241 -1.88856e-19 0.00015154 -1.40642e-19 1.29582e-05)
(-0.000187027 -0.000123888 -3.58785e-20 0.000172069 -6.36369e-20 1.49573e-05)
(-0.000197514 -7.64528e-05 2.38376e-20 0.000180567 -8.18663e-21 1.69472e-05)
(-0.000197031 -3.09865e-05 -1.30955e-19 0.000178058 -1.70464e-19 1.89732e-05)
(-0.000187371 1.00567e-05 4.21869e-19 0.000166376 2.87228e-19 2.09949e-05)
(-0.000170799 4.50212e-05 -1.38147e-19 0.000147985 -2.38283e-20 2.28141e-05)
(-0.000149538 7.34272e-05 -3.40435e-19 0.000125167 -1.48504e-19 2.43703e-05)
(-0.000126038 9.49693e-05 2.2536e-19 0.000100717 4.30072e-21 2.53213e-05)
(-0.000102027 0.000108489 -1.63929e-19 7.72699e-05 -9.42174e-20 2.47569e-05)
(-7.83412e-05 0.000114706 1.94989e-21 5.51876e-05 1.20636e-19 2.31536e-05)
(-5.58597e-05 0.000114693 -3.95908e-20 3.5079e-05 -3.10172e-20 2.07806e-05)
(-3.60382e-05 0.00011072 -2.83128e-19 1.79688e-05 -1.96198e-19 1.80694e-05)
(-1.73465e-05 9.20716e-05 1.94628e-19 4.11824e-06 1.90937e-19 1.32283e-05)
(-5.15211e-06 6.41107e-05 3.94321e-21 -2.49702e-06 -1.12023e-19 7.64914e-06)
(-1.5794e-07 5.90725e-05 3.80599e-20 -5.26601e-06 1.17292e-20 5.42395e-06)
(4.0168e-06 6.34857e-05 1.0822e-19 -8.41539e-06 -5.07797e-21 4.39859e-06)
(8.79561e-06 6.74939e-05 -3.65519e-20 -1.24225e-05 -1.20525e-20 3.62691e-06)
(1.28237e-05 6.90249e-05 1.22976e-19 -1.56453e-05 2.01588e-20 2.82153e-06)
(1.50059e-05 6.96726e-05 -6.99411e-21 -1.7026e-05 1.88951e-22 2.02011e-06)
(0.000650284 0.00289355 -5.53953e-19 -0.000704395 -3.59024e-19 5.41115e-05)
(0.000965455 0.004147 -3.4543e-20 -0.0010089 1.24957e-18 4.34446e-05)
(0.00239285 0.00943917 -2.84452e-17 -0.0024317 2.34313e-18 3.88561e-05)
(0.00245646 0.00822374 -8.60291e-18 -0.00245275 1.508e-18 -3.71292e-06)
(0.00576257 0.0138463 1.14895e-17 -0.00570674 -7.24104e-17 -5.5831e-05)
(0.0145056 0.00812244 2.23127e-16 -0.0142827 -2.94148e-16 -0.000222961)
(0.0161799 -0.121229 -1.46475e-15 -0.0154546 7.16787e-17 -0.000725372)
(-0.0387249 -0.549842 2.90738e-15 0.0400226 1.1698e-15 -0.00129769)
(-0.174659 -1.23565 -6.15512e-16 0.176197 3.26434e-16 -0.00153756)
(-0.346714 -1.88872 -1.17275e-15 0.344871 3.22386e-15 0.00184361)
(-0.373668 -2.24884 6.43903e-16 0.381361 2.27059e-16 -0.00769297)
(-0.586401 -2.65081 -1.49345e-14 0.554825 3.92978e-15 0.0315758)
(0.000252164 -0.000141471 8.80643e-21 -0.000254811 2.51881e-21 2.6474e-06)
(0.000271305 -9.54783e-05 -3.17315e-20 -0.000272705 -4.22162e-20 1.39922e-06)
(0.000280773 -3.93473e-05 2.77868e-21 -0.00028217 1.99229e-20 1.39704e-06)
(0.000276514 2.08258e-05 1.88074e-20 -0.000277245 -6.08387e-20 7.30513e-07)
(0.000255574 8.02979e-05 -1.44447e-19 -0.000256012 -1.94396e-19 4.3764e-07)
(0.000218005 0.000132212 -1.28093e-19 -0.000217759 1.03527e-19 -2.45236e-07)
(0.000168153 0.000170612 2.01946e-19 -0.000167829 9.58055e-20 -3.23868e-07)
(0.000112859 0.000192217 -6.79048e-20 -0.000112842 -1.77734e-19 -1.71203e-08)
(5.7792e-05 0.000196473 -8.38433e-20 -5.79577e-05 2.40208e-20 1.65703e-07)
(8.82501e-06 0.000184831 -5.63105e-20 -9.09562e-06 -9.84109e-20 2.70606e-07)
(-2.88639e-05 0.000162138 1.82306e-20 2.85846e-05 3.13714e-20 2.79288e-07)
(-5.3993e-05 0.000134387 -4.06903e-20 5.36975e-05 -4.74054e-20 2.95517e-07)
(-6.8056e-05 0.000106194 -8.47487e-20 6.7656e-05 1.05508e-19 3.99975e-07)
(-7.35241e-05 8.03766e-05 9.12489e-20 7.29275e-05 4.43241e-20 5.96549e-07)
(-7.29462e-05 5.85194e-05 7.37885e-20 7.20959e-05 -3.29341e-20 8.50282e-07)
(-6.8743e-05 4.09737e-05 -1.51787e-20 6.75782e-05 -2.80755e-20 1.16477e-06)
(-6.27492e-05 2.74423e-05 4.39385e-20 6.12424e-05 8.14442e-21 1.50679e-06)
(-5.62525e-05 1.72088e-05 -6.67919e-20 5.43986e-05 1.68613e-20 1.85391e-06)
(-5.00182e-05 9.48629e-06 4.72876e-20 4.78494e-05 -2.04961e-21 2.16882e-06)
(-4.43501e-05 3.48521e-06 -6.11514e-20 4.18952e-05 -2.5061e-20 2.45494e-06)
(-3.92947e-05 -1.42888e-06 6.03681e-20 3.66081e-05 3.26864e-21 2.6866e-06)
(-3.46388e-05 -5.73703e-06 7.87486e-20 3.17622e-05 1.4291e-20 2.87666e-06)
(-2.99936e-05 -9.7257e-06 -6.87749e-21 2.69711e-05 6.7805e-21 3.0225e-06)
(-2.4743e-05 -1.32146e-05 -1.49219e-19 2.15255e-05 1.95266e-21 3.21753e-06)
(-1.89013e-05 -1.54003e-05 -5.44663e-20 1.54543e-05 -1.92679e-20 3.44697e-06)
(-1.33217e-05 -1.60148e-05 -1.62419e-20 9.69009e-06 2.03508e-20 3.63157e-06)
(-8.44934e-06 -1.56706e-05 6.04493e-20 4.5099e-06 1.31528e-22 3.93945e-06)
(-4.24331e-06 -1.47521e-05 1.97704e-21 -1.22584e-07 -2.60391e-22 4.36589e-06)
(-6.86743e-07 -1.36713e-05 -3.32565e-21 -4.17984e-06 1.09119e-22 4.86659e-06)
(2.10544e-06 -1.16173e-05 3.78877e-20 -7.02892e-06 6.68056e-22 4.92348e-06)
(5.08211e-06 -1.28862e-05 3.49587e-20 -1.12404e-05 1.24235e-21 6.15831e-06)
(3.30236e-06 -5.87387e-06 -8.82472e-20 -6.15766e-06 -5.58435e-21 2.8553e-06)
(1.57451e-05 -2.30391e-05 -9.8591e-19 -2.6007e-05 -7.37814e-20 1.02619e-05)
(0.000100324 -0.000128743 -1.21244e-18 -0.00014757 -3.85889e-20 4.72454e-05)
(3.65264e-05 -4.09805e-05 3.0155e-19 -4.78512e-05 3.80372e-20 1.13247e-05)
(0.000130957 -0.000109895 -1.99663e-18 -0.000150699 5.32655e-19 1.97415e-05)
(0.000409528 -0.000150391 -2.03272e-17 -0.000439455 -1.46713e-17 2.99268e-05)
(0.00109858 0.000261123 6.58032e-17 -0.00106878 5.03861e-18 -2.98045e-05)
(0.00399462 0.0214298 -3.09328e-16 -0.00545873 5.10161e-17 0.00146411)
(0.000183828 -0.000151383 1.19814e-20 -0.000182931 1.32568e-20 -8.97735e-07)
(0.000156914 -0.000180258 -2.97329e-20 -0.000156132 -3.40283e-20 -7.82392e-07)
(0.000121148 -0.0002059 -2.18328e-21 -0.000119833 -5.15083e-21 -1.3158e-06)
(7.99575e-05 -0.000224 -1.16275e-20 -7.83594e-05 -7.21864e-21 -1.59803e-06)
(3.6081e-05 -0.000232546 9.68848e-20 -3.41615e-05 1.08947e-19 -1.91957e-06)
(-9.45904e-06 -0.000231091 7.37924e-20 1.20182e-05 6.1241e-20 -2.55917e-06)
(-5.27169e-05 -0.000219585 1.78538e-21 5.58651e-05 2.86486e-20 -3.14823e-06)
(-9.07743e-05 -0.000199056 1.84481e-19 9.46343e-05 1.76151e-19 -3.86006e-06)
(-0.000121891 -0.000171284 -2.22367e-20 0.000126673 -2.53274e-21 -4.78251e-06)