/*--------------------------------*- C++ -*----------------------------------*\
| =========                 |                                                 |
| \\      /  F ield         | OpenFOAM: The Open Source CFD Toolbox           |
|  \\    /   O peration     | Version:  2506                                  |
|   \\  /    A nd           | Website:  www.openfoam.com                      |
|    \\/     M anipulation  |                                                 |
\*---------------------------------------------------------------------------*/
FoamFile
{
    version     2.0;
    format      ascii;
    arch        "LSB;label=32;scalar=64";
    class       pointScalarField;
    location    "3";
    object      streamFunction;
}
// * * * * * * * * * * * * * * * * * * * * * * * * * * * * * * * * * * * * * //

dimensions      [0 3 -1 0 0 0 0];

internalField   nonuniform List<scalar> 
882
(
0
0
0
0
0
0
0
0
0
0
0
0
0
0
0
0
0
0
0
0
0
0
-2.03687e-05
-6.982e-05
-0.000129316
-0.000189987
-0.000249408
-0.000306242
-0.000359609
-0.000407789
-0.000449166
-0.000481437
-0.00050183
-0.000507572
-0.000495562
-0.000463236
-0.000409123
-0.000333486
-0.000239614
-0.000136517
-4.40769e-05
0
0
-7.25977e-05
-0.000220075
-0.00039231
-0.000567002
-0.000736478
-0.000896677
-0.00104435
-0.00117516
-0.0012844
-0.00136622
-0.0014139
-0.00142088
-0.00137925
-0.00128348
-0.00113039
-0.000921395
-0.000665702
-0.000386517
-0.000133138
0
0
-0.000138803
-0.000405616
-0.000712968
-0.00102335
-0.00132318
-0.00160526
-0.00186365
-0.00209107
-0.00227947
-0.00241914
-0.00249901
-0.00250787
-0.00243262
-0.00226361
-0.00199504
-0.0016289
-0.00118077
-0.00069039
-0.000242209
0
0
-0.000210343
-0.000606414
-0.00105962
-0.00151621
-0.00195666
-0.00237075
-0.00274997
-0.00308422
-0.00336213
-0.00356999
-0.00369195
-0.00371139
-0.00360856
-0.00336767
-0.00297792
-0.00243978
-0.00177456
-0.00104116
-0.000367044
0
0
-0.000285032
-0.000817234
-0.00142424
-0.00203529
-0.002625
-0.00318047
-0.00369099
-0.00414396
-0.00452492
-0.00481615
-0.00499654
-0.00504289
-0.00492697
-0.00462331
-0.00411195
-0.00338763
-0.00247526
-0.00145621
-0.000513311
0
0
-0.000362925
-0.00103834
-0.00180753
-0.00258191
-0.00333046
-0.00403805
-0.00469234
-0.00527883
-0.00578048
-0.00617579
-0.00643813
-0.00653638
-0.00643184
-0.00608416
-0.00545766
-0.00453361
-0.00333502
-0.0019688
-0.000692108
0
0
-0.00044464
-0.00127152
-0.00221251
-0.00316033
-0.00407853
-0.00495044
-0.0057629
-0.00650045
-0.00714442
-0.00767032
-0.00804628
-0.00823239
-0.00817783
-0.00782044
-0.00709932
-0.0059687
-0.00443685
-0.00263518
-0.000922843
0
0
-0.000530916
-0.00151887
-0.00264257
-0.00377494
-0.00487444
-0.00592369
-0.00690983
-0.00781787
-0.00862911
-0.00931776
-0.00984811
-0.0101715
-0.010226
-0.00991862
-0.0091519
-0.00783041
-0.00591995
-0.00356047
-0.00124602
0
0
-0.000622617
-0.00178271
-0.00310115
-0.00442975
-0.00572224
-0.00696159
-0.00813674
-0.00923508
-0.0102403
-0.0111285
-0.0118634
-0.0123915
-0.0126361
-0.0124811
-0.0117726
-0.010334
-0.00803293
-0.00495938
-0.00175872
0
0
-0.000720943
-0.00206595
-0.00359219
-0.00512865
-0.00662488
-0.00806541
-0.0094428
-0.0107493
-0.0119743
-0.0131002
-0.0140964
-0.0149118
-0.0154623
-0.015621
-0.0151703
-0.0138131
-0.0112148
-0.00725756
-0.00268379
0
0
-0.000827837
-0.00237289
-0.00412097
-0.00587628
-0.00758478
-0.00923414
-0.0108225
-0.0123496
-0.0138147
-0.0152126
-0.0165276
-0.017725
-0.018735
-0.0194278
-0.0195819
-0.0187085
-0.0160962
-0.0111047
-0.0044093
0
0
-0.000946701
-0.00271047
-0.00469564
-0.00667937
-0.00860515
-0.0104655
-0.0122662
-0.014017
-0.0157311
-0.0174223
-0.0191016
-0.020771
-0.0224087
-0.0239373
-0.0251205
-0.0253191
-0.0230969
-0.016946
-0.00732076
0
0
-0.00108361
-0.00309045
-0.00532949
-0.00754889
-0.00969178
-0.0117578
-0.013762
-0.0157261
-0.0176794
-0.0196601
-0.0217171
-0.0239105
-0.0263031
-0.0289162
-0.0315263
-0.033149
-0.0315541
-0.0242393
-0.0114154
0
0
-0.00124961
-0.00353284
-0.00604419
-0.0085026
-0.0108554
-0.0131125
-0.0152992
-0.0174488
-0.0196066
-0.021835
-0.0242242
-0.0269021
-0.0300285
-0.0337143
-0.0376968
-0.0406217
-0.039527
-0.031421
-0.0159716
0
0
-0.00146415
-0.00407201
-0.00687651
-0.00956968
-0.0121148
-0.0145371
-0.0168725
-0.0191626
-0.0214621
-0.0238496
-0.0264437
-0.0294224
-0.0330132
-0.03736
-0.0421111
-0.045715
-0.0450576
-0.0368995
-0.0199062
0
0
-0.00176465
-0.00476422
-0.00787293
-0.0107845
-0.0134936
-0.0160456
-0.0184853
-0.020856
-0.023211
-0.0256257
-0.028218
-0.0311686
-0.0347112
-0.0389911
-0.0436628
-0.0472768
-0.0470281
-0.0394693
-0.0223847
0
0
-0.00222991
-0.00576021
-0.00916194
-0.0122209
-0.0150308
-0.0176585
-0.0201439
-0.0225189
-0.024823
-0.0271084
-0.0294622
-0.0320146
-0.034938
-0.0383804
-0.0421777
-0.0452339
-0.0453176
-0.0391229
-0.022726
0
0
-0.0026792
-0.00685878
-0.0106608
-0.0139233
-0.0167898
-0.0193739
-0.0217363
-0.0239109
-0.0259429
-0.0278615
-0.0297268
-0.0315966
-0.0336089
-0.0358334
-0.0382307
-0.0402344
-0.040187
-0.0352403
-0.0209707
0
0
-0.00659005
-0.0106252
-0.0133295
-0.0155371
-0.0174366
-0.0190847
-0.0205366
-0.0218201
-0.0229877
-0.0240491
-0.0250578
-0.026031
-0.027054
-0.0281475
-0.0291999
-0.0299325
-0.0295209
-0.025439
-0.015409
0
0
0
0
0
0
0
0
0
0
0
0
0
0
0
0
0
0
0
0
0
0
0
0
0
0
0
0
0
0
0
0
0
0
0
0
0
0
0
0
0
0
0
0
-2.03687e-05
-6.982e-05
-0.000129316
-0.000189987
-0.000249408
-0.000306242
-0.000359609
-0.000407789
-0.000449166
-0.000481437
-0.00050183
-0.000507572
-0.000495562
-0.000463236
-0.000409123
-0.000333486
-0.000239614
-0.000136517
-4.40769e-05
0
0
-7.25977e-05
-0.000220075
-0.00039231
-0.000567002
-0.000736478
-0.000896677
-0.00104435
-0.00117516
-0.0012844
-0.00136622
-0.0014139
-0.00142088
-0.00137925
-0.00128348
-0.00113039
-0.000921395
-0.000665702
-0.000386517
-0.000133138
0
0
-0.000138803
-0.000405616
-0.000712968
-0.00102335
-0.00132318
-0.00160526
-0.00186365
-0.00209107
-0.00227947
-0.00241914
-0.00249901
-0.00250787
-0.00243262
-0.00226361
-0.00199504
-0.0016289
-0.00118077
-0.00069039
-0.000242209
0
0
-0.000210343
-0.000606414
-0.00105962
-0.00151621
-0.00195666
-0.00237075
-0.00274997
-0.00308422
-0.00336213
-0.00356999
-0.00369195
-0.00371139
-0.00360856
-0.00336767
-0.00297792
-0.00243978
-0.00177456
-0.00104116
-0.000367044
0
0
-0.000285032
-0.000817234
-0.00142424
-0.00203529
-0.002625
-0.00318047
-0.00369099
-0.00414396
-0.00452492
-0.00481615
-0.00499654
-0.00504289
-0.00492697
-0.00462331
-0.00411195
-0.00338763
-0.00247526
-0.00145621
-0.000513311
0
0
-0.000362925
-0.00103834
-0.00180753
-0.00258191
-0.00333046
-0.00403805
-0.00469234
-0.00527883
-0.00578048
-0.00617579
-0.00643813
-0.00653638
-0.00643184
-0.00608416
-0.00545766
-0.00453361
-0.00333502
-0.0019688
-0.000692108
0
0
-0.00044464
-0.00127152
-0.00221251
-0.00316033
-0.00407853
-0.00495044
-0.0057629
-0.00650045
-0.00714442
-0.00767032
-0.00804628
-0.00823239
-0.00817783
-0.00782044
-0.00709932
-0.0059687
-0.00443685
-0.00263518
-0.000922843
0
0
-0.000530916
-0.00151887
-0.00264257
-0.00377494
-0.00487444
-0.00592369
-0.00690983
-0.00781787
-0.00862911
-0.00931776
-0.00984811
-0.0101715
-0.010226
-0.00991862
-0.0091519
-0.00783041
-0.00591995
-0.00356047
-0.00124602
0
0
-0.000622617
-0.00178271
-0.00310115
-0.00442975
-0.00572224
-0.00696159
-0.00813674
-0.00923508
-0.0102403
-0.0111285
-0.0118634
-0.0123915
-0.0126361
-0.0124811
-0.0117726
-0.010334
-0.00803293
-0.00495938
-0.00175872
0
0
-0.000720943
-0.00206595
-0.00359219
-0.00512865
-0.00662488
-0.00806541
-0.0094428
-0.0107493
-0.0119743
-0.0131002
-0.0140964
-0.0149118
-0.0154623
-0.015621
-0.0151703
-0.0138131
-0.0112148
-0.00725756
-0.00268379
0
0
-0.000827837
-0.00237289
-0.00412097
-0.00587628
-0.00758478
-0.00923414
-0.0108225
-0.0123496
-0.0138147
-0.0152126
-0.0165276
-0.017725
-0.018735
-0.0194278
-0.0195819
-0.0187085
-0.0160962
-0.0111047
-0.0044093
0
0
-0.000946701
-0.00271047
-0.00469564
-0.00667937
-0.00860515
-0.0104655
-0.0122662
-0.014017
-0.0157311
-0.0174223
-0.0191016
-0.020771
-0.0224087
-0.0239373
-0.0251205
-0.0253191
-0.0230969
-0.016946
-0.00732076
0
0
-0.00108361
-0.00309045
-0.00532949
-0.00754889
-0.00969178
-0.0117578
-0.013762
-0.0157261
-0.0176794
-0.0196601
-0.0217171
-0.0239105
-0.0263031
-0.0289162
-0.0315263
-0.033149
-0.0315541
-0.0242393
-0.0114154
0
0
-0.00124961
-0.00353284
-0.00604419
-0.0085026
-0.0108554
-0.0131125
-0.0152992
-0.0174488
-0.0196066
-0.021835
-0.0242242
-0.0269021
-0.0300285
-0.0337143
-0.0376968
-0.0406217
-0.039527
-0.031421
-0.0159716
0
0
-0.00146415
-0.00407201
-0.00687651
-0.00956968
-0.0121148
-0.0145371
-0.0168725
-0.0191626
-0.0214621
-0.0238496
-0.0264437
-0.0294224
-0.0330132
-0.03736
-0.0421111
-0.045715
-0.0450576
-0.0368995
-0.0199062
0
0
-0.00176465
-0.00476422
-0.00787293
-0.0107845
-0.0134936
-0.0160456
-0.0184853
-0.020856
-0.023211
-0.0256257
-0.028218
-0.0311686
-0.0347112
-0.0389911
-0.0436628
-0.0472768
-0.0470281
-0.0394693
-0.0223847
0
0
-0.00222991
-0.00576021
-0.00916194
-0.0122209
-0.0150308
-0.0176585
-0.0201439
-0.0225189
-0.024823
-0.0271084
-0.0294622
-0.0320146
-0.034938
-0.0383804
-0.0421777
-0.0452339
-0.0453176
-0.0391229
-0.022726
0
0
-0.0026792
-0.00685878
-0.0106608
-0.0139233
-0.0167898
-0.0193739
-0.0217363
-0.0239109
-0.0259429
-0.0278615
-0.0297268
-0.0315966
-0.0336089
-0.0358334
-0.0382307
-0.0402344
-0.040187
-0.0352403
-0.0209707
0
0
-0.00659005
-0.0106252
-0.0133295
-0.0155371
-0.0174366
-0.0190847
-0.0205366
-0.0218201
-0.0229877
-0.0240491
-0.0250578
-0.026031
-0.027054
-0.0281475
-0.0291999
-0.0299325
-0.0295209
-0.025439
-0.015409
0
0
0
0
0
0
0
0
0
0
0
0
0
0
0
0
0
0
0
0
0
0
)
;

boundaryField
{
    movingWall
    {
        type            calculated;
    }
    fixedWalls
    {
        type            calculated;
    }
    frontAndBack
    {
        type            empty;
    }
}


// ************************************************************************* //
