/*--------------------------------*- C++ -*----------------------------------*\
| =========                 |                                                 |
| \\      /  F ield         | OpenFOAM: The Open Source CFD Toolbox           |
|  \\    /   O peration     | Version:  2506                                  |
|   \\  /    A nd           | Website:  www.openfoam.com                      |
|    \\/     M anipulation  |                                                 |
\*---------------------------------------------------------------------------*/
FoamFile
{
    version     2.0;
    format      ascii;
    arch        "LSB;label=32;scalar=64";
    class       volScalarField;
    location    "450";
    object      magR;
}
// * * * * * * * * * * * * * * * * * * * * * * * * * * * * * * * * * * * * * //

dimensions      [0 2 -2 0 0 0 0];

internalField   nonuniform List<scalar> 
1340
(
31.2641
24.7596
18.2989
4.26569
11.709
10.4219
9.07994
9.74993
14.8928
12.9414
10.7141
12.039
15.3158
14.4035
12.6068
13.5767
9.97347
12.3864
12.839
14.291
2.28132
6.36769
10.2643
13.6363
0.157022
1.04595
5.23439
10.9401
0.0663652
0.12189
1.19023
6.55444
0
0.0382838
0.162602
2.60741
0
5.22226e-06
0.00301594
0.680106
0
0
0.00360074
0.175472
3.0403e-06
0
0.00100193
0.0607636
4.65762e-05
7.22714e-08
0.000318385
0.02016
9.34455e-05
1.2883e-07
3.25916e-05
0.00511093
8.75431e-05
4.41737e-05
4.89001e-07
0.000372757
6.99823e-05
8.29219e-05
1.66713e-07
2.64208e-05
6.11798e-05
9.20616e-05
4.0393e-07
3.80306e-10
5.95192e-05
7.80016e-05
2.93688e-05
6.07345e-07
5.99482e-05
6.37309e-05
5.98105e-05
7.31545e-06
5.95655e-05
5.62399e-05
6.43869e-05
3.0252e-05
5.79134e-05
5.32908e-05
5.79293e-05
4.69818e-05
5.55696e-05
5.17698e-05
5.14228e-05
5.08446e-05
5.30559e-05
5.01232e-05
4.71788e-05
4.8318e-05
5.05822e-05
4.80482e-05
4.43868e-05
4.44394e-05
4.81725e-05
4.57188e-05
4.21056e-05
4.09049e-05
4.57896e-05
4.33182e-05
3.98974e-05
3.7886e-05
4.34169e-05
4.09402e-05
3.76741e-05
3.52129e-05
4.10558e-05
3.86067e-05
3.54634e-05
3.2762e-05
3.87111e-05
3.63187e-05
3.32942e-05
3.04747e-05
3.63992e-05
3.40836e-05
3.119e-05
2.83356e-05
3.41319e-05
3.19072e-05
2.91534e-05
2.63326e-05
3.19148e-05
2.97978e-05
2.71958e-05
2.44553e-05
2.97602e-05
2.77575e-05
2.53164e-05
2.26976e-05
2.93582e-05
2.76757e-05
2.57967e-05
2.35179e-05
2.1048e-05
2.72145e-05
2.56675e-05
2.39192e-05
2.18062e-05
1.95002e-05
2.51562e-05
2.37437e-05
2.21273e-05
2.01813e-05
1.80487e-05
2.31905e-05
2.19079e-05
2.0424e-05
1.86433e-05
1.6687e-05
2.13228e-05
2.01646e-05
1.88117e-05
1.71921e-05
1.54106e-05
1.95563e-05
1.85165e-05
1.72913e-05
1.58276e-05
1.42152e-05
1.78934e-05
1.69648e-05
1.58618e-05
1.45476e-05
1.30968e-05
1.63354e-05
1.55104e-05
1.45234e-05
1.33498e-05
1.20514e-05
1.48818e-05
1.41523e-05
1.32741e-05
1.22322e-05
1.10755e-05
1.35311e-05
1.2889e-05
1.21117e-05
1.11916e-05
1.01659e-05
1.2281e-05
1.17183e-05
1.10336e-05
1.02254e-05
9.31894e-06
1.11282e-05
1.06372e-05
1.00367e-05
9.32996e-06
8.53199e-06
1.0416e-05
1.00689e-05
9.64172e-06
9.11736e-06
8.50195e-06
7.80191e-06
9.39867e-06
9.09853e-06
8.72821e-06
8.27192e-06
7.7381e-06
7.12572e-06
8.47131e-06
8.2122e-06
7.89208e-06
7.49635e-06
7.03498e-06
6.50062e-06
7.6282e-06
7.40494e-06
7.12883e-06
6.78653e-06
6.38892e-06
5.92379e-06
6.86359e-06
6.67139e-06
6.43372e-06
6.13844e-06
5.79656e-06
5.39259e-06
6.17175e-06
6.00646e-06
5.8021e-06
5.54778e-06
5.25446e-06
4.90428e-06
5.54686e-06
5.4048e-06
5.22934e-06
5.01064e-06
4.75932e-06
4.45619e-06
4.98355e-06
4.86143e-06
4.71081e-06
4.52294e-06
4.30786e-06
4.04584e-06
4.47645e-06
4.37143e-06
4.2422e-06
4.0809e-06
3.89689e-06
3.67068e-06
4.09263e-06
4.02055e-06
3.93019e-06
3.81925e-06
3.68079e-06
3.52338e-06
3.32827e-06
3.67352e-06
3.61112e-06
3.53326e-06
3.438e-06
3.31913e-06
3.1844e-06
3.01625e-06
3.29794e-06
3.24383e-06
3.17665e-06
3.09471e-06
2.99258e-06
2.87717e-06
2.73232e-06
2.96169e-06
2.91465e-06
2.85654e-06
2.78595e-06
2.69807e-06
2.59906e-06
2.47434e-06
2.66084e-06
2.61982e-06
2.56943e-06
2.50848e-06
2.43276e-06
2.34764e-06
2.24024e-06
2.39161e-06
2.35577e-06
2.31199e-06
2.25926e-06
2.1939e-06
2.12057e-06
2.02808e-06
2.15014e-06
2.11886e-06
2.08085e-06
2.03523e-06
1.9788e-06
1.91555e-06
1.83595e-06
1.95512e-06
1.93278e-06
1.90558e-06
1.87266e-06
1.8333e-06
1.78467e-06
1.73013e-06
1.66182e-06
1.75635e-06
1.73677e-06
1.71311e-06
1.68464e-06
1.65073e-06
1.60892e-06
1.562e-06
1.50363e-06
1.57763e-06
1.5603e-06
1.53957e-06
1.51482e-06
1.48552e-06
1.44954e-06
1.40917e-06
1.35942e-06
1.41798e-06
1.40238e-06
1.38395e-06
1.36219e-06
1.33665e-06
1.3055e-06
1.27064e-06
1.22828e-06
1.27519e-06
1.26086e-06
1.24415e-06
1.22469e-06
1.20208e-06
1.17472e-06
1.14423e-06
1.10779e-06
1.15263e-06
1.13959e-06
1.12448e-06
1.107e-06
1.08682e-06
1.06242e-06
1.03532e-06
1.00325e-06
1.05489e-06
1.04292e-06
1.02917e-06
1.0134e-06
9.95204e-07
9.73136e-07
9.48656e-07
9.21321e-07
9.80536e-07
9.70812e-07
9.58856e-07
9.45515e-07
9.30633e-07
9.13693e-07
8.93416e-07
8.70624e-07
8.46299e-07
9.05789e-07
8.96199e-07
8.84399e-07
8.71289e-07
8.56821e-07
8.4052e-07
8.21392e-07
8.00424e-07
7.80153e-07
8.2746e-07
8.17585e-07
8.05784e-07
7.92818e-07
7.78691e-07
7.6293e-07
7.44429e-07
7.23192e-07
7.00907e-07
7.64264e-07
7.55279e-07
7.4439e-07
7.32196e-07
7.18736e-07
7.03812e-07
6.86911e-07
6.69576e-07
6.5628e-07
6.75686e-07
6.65655e-07
6.54308e-07
6.42142e-07
6.29139e-07
6.14675e-07
5.97268e-07
5.75409e-07
5.50873e-07
6.47367e-07
6.39045e-07
6.28981e-07
6.17576e-07
6.05122e-07
5.9194e-07
5.7874e-07
5.68875e-07
5.68229e-07
5.23609e-07
5.14043e-07
5.03599e-07
4.92353e-07
4.80106e-07
4.65781e-07
4.46571e-07
4.20305e-07
3.88584e-07
6.00878e-07
5.95039e-07
5.87514e-07
5.78284e-07
5.68322e-07
5.59079e-07
5.54805e-07
5.62281e-07
5.81439e-07
4.6754e-07
4.66812e-07
4.63446e-07
4.57398e-07
4.49005e-07
4.37589e-07
4.21898e-07
4.12681e-07
3.96138e-07
8.07735e-07
7.89273e-07
7.89628e-07
7.89758e-07
7.88809e-07
7.8764e-07
7.88796e-07
8.03594e-07
8.39823e-07
8.58481e-07
8.65736e-07
8.60623e-07
8.65758e-07
8.72041e-07
8.77375e-07
8.82128e-07
8.88814e-07
9.11107e-07
9.48737e-07
9.46706e-07
1.4653e-06
1.23817e-06
1.25567e-06
1.27063e-06
1.27952e-06
1.28975e-06
1.30338e-06
1.33017e-06
1.35337e-06
1.15709e-06
18.5821
8.57578
3.80465
11.0638
14.7779
15.5205
13.8412
9.99063
5.12855
1.54975
0.259792
0.0522263
0.017434
0.0044428
0.000206202
1.16527e-05
0
9.92949e-08
2.05705e-06
2.11744e-05
3.83851e-05
4.34209e-05
4.16292e-05
3.81892e-05
3.50069e-05
3.23451e-05
3.00306e-05
2.79314e-05
2.59826e-05
2.41679e-05
2.24784e-05
2.09055e-05
1.94421e-05
1.80762e-05
1.67992e-05
1.56054e-05
1.44867e-05
1.34377e-05
1.2454e-05
1.1531e-05
1.06646e-05
9.85177e-06
9.09049e-06
8.37683e-06
7.70947e-06
7.08618e-06
6.50475e-06
5.96338e-06
5.46024e-06
4.99355e-06
4.56159e-06
4.16243e-06
3.79447e-06
3.45587e-06
3.1449e-06
2.85985e-06
2.59901e-06
2.36074e-06
2.14342e-06
1.94552e-06
1.76554e-06
1.60181e-06
1.45265e-06
1.31619e-06
1.19177e-06
1.07679e-06
9.76112e-07
8.98432e-07
8.24255e-07
7.64563e-07
6.7932e-07
6.50336e-07
5.22852e-07
5.79405e-07
3.45048e-07
6.10658e-07
3.54489e-07
8.57984e-07
8.80277e-07
1.0862e-06
13.4745
12.7716
6.12648
3.40904
8.50038
11.4892
11.824
9.8028
6.09973
2.33368
0.379049
0.0273769
0.00688297
0.00249324
0.000159508
1.10584e-05
0
2.7843e-08
5.90391e-07
1.11675e-05
2.35032e-05
2.8232e-05
2.80136e-05
2.6324e-05
2.46267e-05
2.31843e-05
2.19084e-05
2.07153e-05
1.95709e-05
1.84727e-05
1.74224e-05
1.64202e-05
1.54664e-05
1.45565e-05
1.36878e-05
1.28594e-05
1.20677e-05
1.13118e-05
1.05901e-05
9.90097e-06
9.24322e-06
8.61597e-06
8.01926e-06
7.4511e-06
6.91193e-06
6.40126e-06
5.91825e-06
5.46258e-06
5.03379e-06
4.63129e-06
4.25454e-06
3.90269e-06
3.57503e-06
3.2707e-06
2.98874e-06
2.72815e-06
2.4879e-06
2.26689e-06
2.064e-06
1.87814e-06
1.70819e-06
1.55282e-06
1.4107e-06
1.28019e-06
1.16082e-06
1.05023e-06
9.52573e-07
8.76892e-07
8.03379e-07
7.47034e-07
6.61385e-07
6.36991e-07
5.06837e-07
5.69506e-07
3.30682e-07
5.99439e-07
3.42236e-07
8.37005e-07
8.5541e-07
8.78729
10.6067
8.51192
3.74623
2.82767
7.03473
9.4647
9.54297
7.47355
4.12205
1.22059
0.111963
0.00476846
0.000698492
3.04864e-07
1.54677e-08
0
1.47245e-09
3.07096e-08
4.69154e-06
1.30191e-05
1.72093e-05
1.77677e-05
1.71068e-05
1.63617e-05
1.57576e-05
1.52432e-05
1.47527e-05
1.4254e-05
1.37416e-05
1.32174e-05
1.26851e-05
1.2149e-05
1.16101e-05
1.10705e-05
1.05336e-05
1.00004e-05
9.47427e-06
8.95639e-06
8.44881e-06
7.95284e-06
7.47021e-06
7.00261e-06
6.55002e-06
6.11431e-06
5.69623e-06
5.29604e-06
4.91446e-06
4.55178e-06
4.20821e-06
3.88389e-06
3.57856e-06
3.29217e-06
3.02426e-06
2.77441e-06
2.54208e-06
2.3266e-06
2.12729e-06
1.94333e-06
1.77395e-06
1.61833e-06
1.47541e-06
1.34415e-06
1.22311e-06
1.11191e-06
1.00856e-06
9.16488e-07
8.45228e-07
7.74381e-07
7.22875e-07
6.38952e-07
6.18949e-07
4.90411e-07
5.55093e-07
3.22825e-07
5.8459e-07
3.40359e-07
8.19184e-07
5.76353
7.85735
8.10172
6.01309
2.36324
2.36537
5.78834
7.77355
7.79217
5.94876
3.0812
0.81348
0.0625301
0.000411846
0.000169268
0
0
0
1.22359e-07
2.48831e-06
9.1743e-06
1.36362e-05
1.4585e-05
1.40397e-05
1.32929e-05
1.27073e-05
1.22554e-05
1.18596e-05
1.14799e-05
1.11043e-05
1.07285e-05
1.03511e-05
9.97205e-06
9.58945e-06
9.203e-06
8.8134e-06
8.42139e-06
8.02888e-06
7.63683e-06
7.24711e-06
6.86123e-06
6.48102e-06
6.10811e-06
5.7433e-06
5.38855e-06
5.04478e-06
4.7128e-06
4.3937e-06
4.08794e-06
3.79616e-06
3.51882e-06
3.2559e-06
3.00774e-06
2.77413e-06
2.55498e-06
2.35004e-06
2.15889e-06
1.98115e-06
1.81625e-06
1.66365e-06
1.52276e-06
1.39278e-06
1.27291e-06
1.16189e-06
1.05938e-06
9.6376e-07
8.77788e-07
8.11825e-07
7.44419e-07
6.9793e-07
6.16118e-07
6.00407e-07
4.74153e-07
5.40676e-07
3.15724e-07
5.71016e-07
3.37421e-07
3.49913
5.45205
6.6104
6.36327
4.56215
1.71445
1.9157
4.68345
6.34526
6.397
4.85663
2.46931
0.642686
0.0469332
0.000676931
0.000251475
0
0
0
2.65752e-07
4.73891e-06
1.06305e-05
1.21445e-05
1.18393e-05
1.12419e-05
1.07161e-05
1.03048e-05
9.95734e-06
9.62893e-06
9.30529e-06
8.98521e-06
8.66932e-06
8.35744e-06
8.04827e-06
7.74054e-06
7.43351e-06
7.12693e-06
6.82111e-06
6.5159e-06
6.21191e-06
5.90987e-06
5.6106e-06
5.31504e-06
5.02385e-06
4.73837e-06
4.45929e-06
4.1875e-06
3.92403e-06
3.66936e-06
3.42426e-06
3.18937e-06
2.96493e-06
2.75141e-06
2.54889e-06
2.35756e-06
2.17738e-06
2.00822e-06
1.8499e-06
1.70215e-06
1.5646e-06
1.4369e-06
1.31848e-06
1.20875e-06
1.10668e-06
1.01194e-06
9.23254e-07
8.42703e-07
7.81427e-07
7.17063e-07
6.74945e-07
5.94959e-07
5.83133e-07
4.58662e-07
5.27584e-07
3.07945e-07
5.60095e-07
1.74491
3.37894
4.81795
5.54138
5.19146
3.70225
1.41477
1.47567
3.78128
5.23509
5.35911
4.1125
2.12847
0.579553
0.0522443
0.00098996
0.000247046
0
0
0
2.73366e-07
4.61454e-06
9.03763e-06
9.20595e-06
8.62185e-06
8.25738e-06
8.01189e-06
7.80537e-06
7.61563e-06
7.42521e-06
7.2275e-06
7.02413e-06
6.81699e-06
6.60655e-06
6.39252e-06
6.17491e-06
5.95432e-06
5.73134e-06
5.5061e-06
5.27923e-06
5.05148e-06
4.82331e-06
4.59556e-06
4.36888e-06
4.14421e-06
3.92223e-06
3.70381e-06
3.4899e-06
3.281e-06
3.07795e-06
2.8815e-06
2.69207e-06
2.51022e-06
2.33626e-06
2.17058e-06
2.01333e-06
1.86461e-06
1.72443e-06
1.59272e-06
1.46933e-06
1.35407e-06
1.24657e-06
1.14645e-06
1.0529e-06
9.65579e-07
8.83567e-07
8.0821e-07
7.51319e-07
6.89838e-07
6.51854e-07
5.73752e-07
5.65721e-07
4.42975e-07
5.14566e-07
0.577545
1.67534
3.02295
4.15776
4.69804
4.39016
3.18448
1.30863
1.05543
3.02899
4.34858
4.56166
3.58748
1.93161
0.574487
0.0666824
0.000318122
6.03622e-05
0
0
0
2.57589e-07
4.21772e-06
7.53338e-06
7.19286e-06
6.49851e-06
6.24017e-06
6.1131e-06
5.9854e-06
5.86108e-06
5.74057e-06
5.61722e-06
5.48955e-06
5.358e-06
5.22169e-06
5.07975e-06
4.9322e-06
4.77946e-06
4.62166e-06
4.45944e-06
4.29344e-06
4.12419e-06
3.9526e-06
3.77932e-06
3.60517e-06
3.43098e-06
3.25753e-06
3.08572e-06
2.91615e-06
2.74965e-06
2.58698e-06
2.42867e-06
2.27536e-06
2.12744e-06
1.98543e-06
1.84959e-06
1.72018e-06
1.59734e-06
1.48114e-06
1.37157e-06
1.26858e-06
1.17196e-06
1.0815e-06
9.96573e-07
9.1683e-07
8.41681e-07
7.71726e-07
7.19401e-07
6.61006e-07
6.27295e-07
5.51363e-07
5.47286e-07
0.0766688
0.522799
1.4553
2.58931
3.55032
4.02932
3.81916
2.86406
1.31603
0.669573
2.38411
3.61151
3.91833
3.18984
1.80901
0.599828
0.0810427
0.000648432
8.34642e-05
0
0
0
1.94901e-07
3.04892e-06
6.26401e-06
5.94128e-06
5.20025e-06
4.97706e-06
4.91043e-06
4.8161e-06
4.71019e-06
4.61192e-06
4.51706e-06
4.42117e-06
4.32297e-06
4.22159e-06
4.11628e-06
4.00683e-06
3.89288e-06
3.77451e-06
3.65194e-06
3.52543e-06
3.3956e-06
3.2629e-06
3.12795e-06
2.99148e-06
2.85412e-06
2.71666e-06
2.57967e-06
2.4439e-06
2.31006e-06
2.17868e-06
2.05042e-06
1.92567e-06
1.805e-06
1.68872e-06
1.57717e-06
1.47056e-06
1.36906e-06
1.27272e-06
1.18162e-06
1.09565e-06
1.01472e-06
9.38385e-07
8.66247e-07
7.98055e-07
7.33654e-07
6.86065e-07
6.30937e-07
0.000658788
0.0561563
0.406694
1.17414
2.14516
3.00345
3.47875
3.38347
2.65025
1.37563
0.345922
1.82695
2.98626
3.38353
2.8715
1.7291
0.634585
0.101887
0.00213951
0.000153135
0
0
0
1.07648e-07
1.59415e-06
4.91723e-06
4.97145e-06
4.22584e-06
3.98812e-06
3.96965e-06
3.92258e-06
3.84336e-06
3.76515e-06
3.69173e-06
3.61812e-06
3.54212e-06
3.46318e-06
3.38119e-06
3.29573e-06
3.20665e-06
3.11393e-06
3.01767e-06
2.91817e-06
2.81569e-06
2.71063e-06
2.60347e-06
2.49468e-06
2.38492e-06
2.27459e-06
2.16435e-06
2.0548e-06
1.9464e-06
1.83978e-06
1.73531e-06
1.63349e-06
1.53473e-06
1.43932e-06
1.34755e-06
1.25961e-06
1.17563e-06
1.09571e-06
1.01986e-06
9.48041e-07
8.80017e-07
8.15283e-07
7.53939e-07
0.000162621
0.000253349
0.030954
0.275804
0.883153
1.71777
2.50779
3.00366
3.02474
2.48896
1.44959
0.213366
1.34519
2.44874
2.92689
2.60471
1.66839
0.672837
0.127772
0.00503788
0.000223371
0
0
0
3.34019e-08
4.32843e-07
3.57112e-06
4.26839e-06
3.58082e-06
3.24794e-06
3.20835e-06
3.18848e-06
3.13631e-06
3.07837e-06
3.02387e-06
2.96937e-06
2.91241e-06
2.85261e-06
2.78973e-06
2.7236e-06
2.65412e-06
2.58131e-06
2.50537e-06
2.4265e-06
2.34495e-06
2.26106e-06
2.17521e-06
2.0879e-06
1.99945e-06
1.91037e-06
1.82119e-06
1.73228e-06
1.6442e-06
1.55729e-06
1.47201e-06
1.38873e-06
1.30776e-06
1.22939e-06
1.15382e-06
1.08121e-06
1.0117e-06
9.45332e-07
0
2.87695e-05
8.73729e-05
0.0129119
0.162571
0.61522
1.32122
2.05426
2.57714
2.70806
2.34921
1.51772
0.380694
0.929007
1.98116
2.52734
2.37005
1.61403
0.711553
0.157772
0.00973764
0.000318029
4.72908e-07
0
0
4.17761e-10
1.12333e-12
2.0018e-06
3.37237e-06
3.0338e-06
2.69935e-06
2.62818e-06
2.61281e-06
2.57681e-06
2.53295e-06
2.49115e-06
2.44956e-06
2.40605e-06
2.36007e-06
2.31141e-06
2.25985e-06
2.20528e-06
2.14776e-06
2.08745e-06
2.02449e-06
1.95913e-06
1.89168e-06
1.82252e-06
1.75192e-06
1.68027e-06
1.60802e-06
1.5355e-06
1.46316e-06
1.39133e-06
1.32039e-06
1.25068e-06
1.18251e-06
0
0
4.35512e-08
0.000801607
0.00320564
0.08101
0.391423
0.966188
1.63831
2.18287
2.41265
2.21255
1.56822
0.589957
0.570133
1.56972
2.17006
2.15449
1.55945
0.747459
0.190638
0.0166275
8.75131e-05
1.24338e-05
0
0
1.09755e-15
9.19289e-08
1.35294e-06
2.65057e-06
2.54717e-06
2.25838e-06
2.17472e-06
2.16105e-06
2.13548e-06
2.10133e-06
2.0682e-06
2.03542e-06
2.00101e-06
1.96446e-06
1.9256e-06
1.88428e-06
1.84043e-06
1.7941e-06
1.74538e-06
1.6944e-06
1.64138e-06
1.58663e-06
1.53035e-06
1.47285e-06
7.6965e-08
6.44222e-13
0
0
0.00041066
0.000366564
0.0321612
0.22256
0.663143
1.26089
1.8134
2.12674
2.06793
1.59331
0.772114
0.267655
1.20533
1.8454
1.95079
1.50075
0.778033
0.225975
0.025871
1.71112e-05
4.07483e-06
0
0
0
5.81708e-08
8.29145e-07
2.0807e-06
2.14779e-06
1.89794e-06
1.80818e-06
1.79741e-06
1.78012e-06
1.75277e-06
1.72565e-06
)
;

boundaryField
{
    inlet
    {
        type            calculated;
        value           nonuniform List<scalar> 
11
(
6.48308e-06
6.14552e-06
6.29282e-06
6.42957e-06
6.55088e-06
6.65865e-06
6.75954e-06
6.8608e-06
6.98059e-06
6.70932e-06
7.06959e-06
)
;
    }
    outlet
    {
        type            calculated;
        value           nonuniform List<scalar> 0();
    }
    walls
    {
        type            calculated;
        value           nonuniform List<scalar> 4(0.388673 0.298557 0.212659 0.0372765);
    }
    frontAndBack
    {
        type            empty;
    }
    procBoundary6to2
    {
        type            processor;
        value           nonuniform List<scalar> 
13
(
12.8379
7.72683
4.87843
2.93901
1.45368
0.489048
0.0704804
0.000731148
0.00032266
0
0
6.37514e-08
1.08243e-06
)
;
    }
    procBoundary6to3
    {
        type            processor;
        value           uniform 1.25935e-06;
    }
    procBoundary6to5
    {
        type            processor;
        value           nonuniform List<scalar> 
86
(
36.0571
13.5508
17.3832
15.54
6.15486
0.243543
0.026618
0.00384208
0
0
3.78811e-06
6.18885e-05
9.12105e-05
7.82154e-05
6.97893e-05
6.90727e-05
6.93994e-05
6.80496e-05
6.55453e-05
6.28594e-05
6.03624e-05
5.80159e-05
5.56953e-05
5.33295e-05
5.09113e-05
4.8457e-05
4.59849e-05
4.35132e-05
4.1055e-05
3.86203e-05
3.62218e-05
3.38717e-05
3.15803e-05
3.15803e-05
3.08855e-05
2.85953e-05
2.63995e-05
2.43048e-05
2.23169e-05
2.04394e-05
1.86747e-05
1.70238e-05
1.5486e-05
1.40595e-05
1.27416e-05
1.15286e-05
1.15286e-05
1.0692e-05
9.6365e-06
8.67609e-06
7.80446e-06
7.01529e-06
6.30224e-06
5.65923e-06
5.08036e-06
4.55992e-06
4.55992e-06
4.14915e-06
3.72268e-06
3.34085e-06
2.99927e-06
2.69388e-06
2.42067e-06
2.17566e-06
2.17566e-06
1.97311e-06
1.77227e-06
1.59191e-06
1.431e-06
1.28728e-06
1.16347e-06
1.06457e-06
1.06457e-06
9.89017e-07
9.14276e-07
8.36487e-07
7.72738e-07
6.85179e-07
6.56591e-07
5.31172e-07
6.12663e-07
4.6034e-07
4.6034e-07
7.45985e-07
8.61944e-07
1.113e-06
)
;
    }
    procBoundary6to7
    {
        type            processor;
        value           nonuniform List<scalar> 
91
(
1.08983e-06
1.08983e-06
8.27986e-07
8.27986e-07
8.03156e-07
8.03156e-07
3.3468e-07
2.99503e-07
3.3468e-07
5.49944e-07
4.26484e-07
2.99503e-07
5.00984e-07
6.01594e-07
5.2807e-07
4.26484e-07
5.28048e-07
6.95067e-07
6.52207e-07
6.01594e-07
6.00396e-07
8.82135e-07
8.22036e-07
7.64427e-07
6.95067e-07
7.09743e-07
1.11614e-06
1.05178e-06
9.89569e-07
9.29667e-07
8.82135e-07
8.72156e-07
1.4145e-06
1.35558e-06
1.29645e-06
1.23739e-06
1.17876e-06
1.12083e-06
1.11614e-06
1.06388e-06
1.69929e-06
1.67169e-06
1.64216e-06
1.6106e-06
1.57691e-06
1.54106e-06
1.50312e-06
1.46317e-06
1.42137e-06
1.37792e-06
1.33302e-06
1.4145e-06
1.28689e-06
8.1727e-09
5.28405e-10
0
0
4.75246e-05
9.88055e-05
0.00853324
0.108031
0.417694
0.924229
1.46493
1.84357
1.90856
1.58875
0.91724
0.0974632
0.882584
1.54741
1.75451
1.4353
0.80188
0.260998
0.0353876
0.000297357
3.52993e-05
0
0
0
3.11584e-08
4.21953e-07
1.62691e-06
1.82731e-06
1.60009e-06
1.49975e-06
1.49275e-06
1.48585e-06
1.69929e-06
1.46585e-06
)
;
    }
}


// ************************************************************************* //
