/*--------------------------------*- C++ -*----------------------------------*\
| =========                 |                                                 |
| \\      /  F ield         | OpenFOAM: The Open Source CFD Toolbox           |
|  \\    /   O peration     | Version:  2506                                  |
|   \\  /    A nd           | Website:  www.openfoam.com                      |
|    \\/     M anipulation  |                                                 |
\*---------------------------------------------------------------------------*/
FoamFile
{
    version     2.0;
    format      ascii;
    arch        "LSB;label=32;scalar=64";
    class       volScalarField;
    location    "450";
    object      turbulenceProperties:I;
}
// * * * * * * * * * * * * * * * * * * * * * * * * * * * * * * * * * * * * * //

dimensions      [0 0 0 0 0 0 0];

internalField   nonuniform List<scalar> 
1340
(
0.299225
0.307508
0.3181
0.40142
0.145245
0.154559
0.167087
0.320386
0.137358
0.144901
0.152881
0.257516
0.118666
0.130887
0.142672
0.216756
0.083405
0.105609
0.125444
0.183961
0.0366839
0.0678581
0.099273
0.152772
0.00955896
0.026058
0.0646172
0.1193
0.00640542
0.00893349
0.0293917
0.0831471
0
0.00513416
0.010817
0.0491388
0
6.26878e-05
0.00149633
0.0243948
0
0
0.00165554
0.0123153
4.53914e-05
0
0.000876584
0.00724822
0.000177677
7.3167e-06
0.000497911
0.00416891
0.000251271
9.76778e-06
0.000162229
0.00209065
0.0002436
0.000180742
1.98533e-05
0.000567749
0.000218315
0.000247003
1.15822e-05
0.000153544
0.000204457
0.00026
1.80148e-05
5.80178e-07
0.000201896
0.000239561
0.00015335
2.30915e-05
0.00020283
0.00021675
0.000218089
7.98263e-05
0.000202401
0.00020369
0.000225834
0.000161593
0.000199814
0.000198279
0.000214004
0.000200369
0.00019598
0.000195408
0.000201432
0.000207552
0.00019175
0.000192257
0.000192708
0.0002016
0.00018748
0.000188229
0.000186667
0.000192701
0.000183214
0.000183614
0.000181555
0.000184294
0.00017888
0.000178741
0.00017649
0.000176823
0.000174441
0.000173787
0.000171278
0.000169974
0.00016989
0.000168793
0.000165972
0.0001635
0.000165229
0.000163755
0.000160631
0.000157281
0.000160482
0.000158688
0.000155308
0.000151293
0.000155668
0.0001536
0.00015001
0.00014552
0.000150794
0.00014851
0.000144767
0.000139947
0.000145882
0.00014342
0.000139579
0.00013457
0.000142999
0.000140947
0.000138357
0.000134455
0.000129369
0.000138098
0.000136003
0.000133333
0.000129417
0.000124334
0.00013318
0.000131072
0.000128356
0.000124469
0.000119461
0.000128266
0.000126165
0.00012344
0.000119619
0.000114738
0.000123374
0.0001213
0.000118598
0.000114874
0.000110161
0.00011852
0.000116492
0.000113841
0.000110242
0.000105725
0.000113721
0.000111754
0.000109176
0.000105726
0.000101426
0.000108993
0.000107099
0.000104613
0.000101329
9.72592e-05
0.00010435
0.000102539
0.00010016
9.70548e-05
9.32213e-05
9.98054e-05
9.80837e-05
9.58231e-05
9.29041e-05
8.93105e-05
9.53702e-05
9.37435e-05
9.16074e-05
8.88801e-05
8.55222e-05
9.10538e-05
8.95254e-05
8.75185e-05
8.49827e-05
8.18566e-05
8.7966e-05
8.68653e-05
8.54349e-05
8.35592e-05
8.1212e-05
7.83111e-05
8.38382e-05
8.28115e-05
8.14788e-05
7.9733e-05
7.7569e-05
7.4884e-05
7.98521e-05
7.88968e-05
7.76599e-05
7.60415e-05
7.40539e-05
7.15743e-05
7.6012e-05
7.51257e-05
7.39813e-05
7.24856e-05
7.06655e-05
6.83805e-05
7.2321e-05
7.15002e-05
7.04441e-05
6.90665e-05
6.74035e-05
6.53021e-05
6.87807e-05
6.80222e-05
6.70495e-05
6.5783e-05
6.42669e-05
6.23376e-05
6.5391e-05
6.4691e-05
6.3797e-05
6.26352e-05
6.12548e-05
5.94857e-05
6.21517e-05
6.15061e-05
6.06852e-05
5.96208e-05
5.83656e-05
5.67455e-05
5.90607e-05
5.84655e-05
5.77125e-05
5.67385e-05
5.55973e-05
5.41155e-05
5.6542e-05
5.61153e-05
5.55669e-05
5.48762e-05
5.39854e-05
5.29482e-05
5.1594e-05
5.37083e-05
5.33122e-05
5.28065e-05
5.21733e-05
5.13588e-05
5.04157e-05
4.91792e-05
5.10161e-05
5.0648e-05
5.01815e-05
4.96004e-05
4.88554e-05
4.79972e-05
4.68689e-05
4.84616e-05
4.8119e-05
4.76879e-05
4.71541e-05
4.6472e-05
4.56901e-05
4.46611e-05
4.60402e-05
4.57208e-05
4.53218e-05
4.48305e-05
4.42055e-05
4.34917e-05
4.25533e-05
4.37454e-05
4.34473e-05
4.30776e-05
4.26251e-05
4.20517e-05
4.13989e-05
4.05433e-05
4.15664e-05
4.12889e-05
4.09469e-05
4.05304e-05
4.00045e-05
3.9407e-05
3.86278e-05
3.96987e-05
3.94898e-05
3.92327e-05
3.89175e-05
3.85354e-05
3.80542e-05
3.75079e-05
3.68003e-05
3.7702e-05
3.75069e-05
3.72688e-05
3.69789e-05
3.66291e-05
3.61902e-05
3.56919e-05
3.50524e-05
3.58007e-05
3.56167e-05
3.53945e-05
3.51265e-05
3.48055e-05
3.44048e-05
3.39502e-05
3.33738e-05
3.40028e-05
3.38263e-05
3.36161e-05
3.33655e-05
3.30682e-05
3.27001e-05
3.22839e-05
3.17648e-05
3.23014e-05
3.21286e-05
3.19257e-05
3.16873e-05
3.14075e-05
3.10644e-05
3.06781e-05
3.02054e-05
3.07607e-05
3.0594e-05
3.03993e-05
3.01723e-05
2.99078e-05
2.95837e-05
2.92203e-05
2.87805e-05
2.94676e-05
2.93065e-05
2.91205e-05
2.89053e-05
2.86548e-05
2.83469e-05
2.80022e-05
2.761e-05
2.84361e-05
2.83e-05
2.81312e-05
2.79417e-05
2.77288e-05
2.74844e-05
2.71881e-05
2.68517e-05
2.64864e-05
2.73616e-05
2.7221e-05
2.70465e-05
2.68515e-05
2.66347e-05
2.63882e-05
2.60955e-05
2.57715e-05
2.54542e-05
2.61817e-05
2.60291e-05
2.58453e-05
2.56419e-05
2.54186e-05
2.51671e-05
2.48682e-05
2.45207e-05
2.41498e-05
2.51906e-05
2.50457e-05
2.48687e-05
2.4669e-05
2.44467e-05
2.41978e-05
2.39127e-05
2.36176e-05
2.33904e-05
2.37133e-05
2.35397e-05
2.33417e-05
2.31277e-05
2.28969e-05
2.26374e-05
2.23206e-05
2.19157e-05
2.1451e-05
2.32359e-05
2.30889e-05
2.29096e-05
2.27046e-05
2.24788e-05
2.22375e-05
2.19937e-05
2.1812e-05
2.18056e-05
2.09229e-05
2.0733e-05
2.05236e-05
2.02958e-05
2.00449e-05
1.97472e-05
1.93402e-05
1.87691e-05
1.80543e-05
2.24327e-05
2.23259e-05
2.21871e-05
2.20153e-05
2.18286e-05
2.16546e-05
2.15767e-05
2.17269e-05
2.20971e-05
1.98242e-05
1.98097e-05
1.97394e-05
1.96118e-05
1.94332e-05
1.9188e-05
1.88475e-05
1.86523e-05
1.82865e-05
2.60572e-05
2.57584e-05
2.57667e-05
2.5772e-05
2.57601e-05
2.57452e-05
2.57688e-05
2.60153e-05
2.65982e-05
2.68873e-05
2.70546e-05
2.69733e-05
2.70526e-05
2.71494e-05
2.72316e-05
2.73053e-05
2.74104e-05
2.77588e-05
2.8342e-05
2.83271e-05
3.50896e-05
3.22554e-05
3.24855e-05
3.26778e-05
3.27907e-05
3.29221e-05
3.30968e-05
3.34361e-05
3.37178e-05
3.11565e-05
0.249467
0.222939
0.152656
0.227007
0.219446
0.189331
0.153469
0.114822
0.0749306
0.0390576
0.0157145
0.00703723
0.00405002
0.00203007
0.00044193
0.000105566
0
9.62199e-06
4.35429e-05
0.000138858
0.000185714
0.000196356
0.000191301
0.000182396
0.000173882
0.000166457
0.000159768
0.000153519
0.000147558
0.000141853
0.000136395
0.00013117
0.00012617
0.00012137
0.000116753
0.00011231
0.000108022
0.000103879
9.98725e-05
9.59928e-05
9.22312e-05
8.85822e-05
8.50448e-05
8.16088e-05
7.82757e-05
7.5043e-05
7.19076e-05
6.88692e-05
6.59267e-05
6.30799e-05
6.03288e-05
5.76718e-05
5.51097e-05
5.26416e-05
5.02669e-05
4.79848e-05
4.57944e-05
4.36945e-05
4.16835e-05
3.97602e-05
3.79225e-05
3.61658e-05
3.44833e-05
3.28642e-05
3.13105e-05
2.97976e-05
2.84035e-05
2.72776e-05
2.61504e-05
2.52083e-05
2.37833e-05
2.32915e-05
2.09042e-05
2.20241e-05
1.70171e-05
2.26473e-05
1.73006e-05
2.68726e-05
2.73113e-05
3.01653e-05
0.146346
0.166192
0.127209
0.0957483
0.141732
0.14912
0.13572
0.111553
0.0807854
0.0471322
0.0185182
0.00498462
0.00249801
0.00149632
0.000381117
0.000101834
0
5.07076e-06
2.32633e-05
0.000100759
0.000145424
0.000158639
0.000157405
0.000152036
0.000146537
0.00014169
0.00013727
0.000133044
0.00012891
0.000124864
0.000120915
0.000117067
0.000113326
0.000109678
0.000106118
0.000102645
9.92479e-05
9.59253e-05
9.26725e-05
8.94858e-05
8.63611e-05
8.32965e-05
8.02946e-05
7.7348e-05
7.44612e-05
7.16351e-05
6.88684e-05
6.61633e-05
6.35216e-05
6.09449e-05
5.84358e-05
5.5995e-05
5.3625e-05
5.13273e-05
4.9103e-05
4.69535e-05
4.48793e-05
4.28811e-05
4.09588e-05
3.91124e-05
3.73414e-05
3.56423e-05
3.40104e-05
3.24359e-05
3.09216e-05
2.94449e-05
2.80734e-05
2.6961e-05
2.58278e-05
2.49269e-05
2.34751e-05
2.30578e-05
2.05871e-05
2.18396e-05
1.66621e-05
2.24406e-05
1.6993e-05
2.6542e-05
2.69083e-05
0.10304
0.123804
0.120786
0.0844042
0.0734309
0.110793
0.119588
0.110626
0.0904777
0.06299
0.0329162
0.00983734
0.00203678
0.000779169
1.67314e-05
3.7567e-06
0
1.15328e-06
5.25533e-06
6.47993e-05
0.00010756
0.000123235
0.000124883
0.000122249
0.000119275
0.000116772
0.00011457
0.000112438
0.000110255
0.000107999
0.000105672
0.000103288
0.00010086
9.8389e-05
9.58818e-05
9.33486e-05
9.0792e-05
8.82234e-05
8.56459e-05
8.30668e-05
8.049e-05
7.79224e-05
7.53713e-05
7.28353e-05
7.03242e-05
6.78422e-05
6.53913e-05
6.2977e-05
6.06031e-05
5.82733e-05
5.59919e-05
5.37611e-05
5.15851e-05
4.94659e-05
4.74062e-05
4.54082e-05
4.34734e-05
4.16032e-05
3.97982e-05
3.80592e-05
3.63863e-05
3.4777e-05
3.3228e-05
3.17295e-05
3.02845e-05
2.88728e-05
2.75517e-05
2.64828e-05
2.53688e-05
2.45304e-05
2.30818e-05
2.27362e-05
2.02562e-05
2.1567e-05
1.64657e-05
2.21659e-05
1.69457e-05
2.62655e-05
0.0780054
0.0966464
0.10475
0.0955533
0.0619202
0.0618588
0.0934721
0.102295
0.0957661
0.0783696
0.0534789
0.0266186
0.00730878
0.000593882
0.000381063
0
0
0
1.04564e-05
4.70649e-05
9.01134e-05
0.000109508
0.000112979
0.000110635
0.000107454
0.000104863
0.000102783
0.000100912
9.909e-05
9.72664e-05
9.54223e-05
9.35507e-05
9.16496e-05
8.97093e-05
8.77261e-05
8.5701e-05
8.36348e-05
8.15339e-05
7.94004e-05
7.72409e-05
7.50604e-05
7.28664e-05
7.06653e-05
6.84599e-05
6.62597e-05
6.40692e-05
6.18927e-05
5.97371e-05
5.76058e-05
5.55042e-05
5.34372e-05
5.14073e-05
4.94198e-05
4.74769e-05
4.55818e-05
4.37375e-05
4.19457e-05
4.02085e-05
3.85268e-05
3.69018e-05
3.53343e-05
3.38224e-05
3.23639e-05
3.09496e-05
2.95812e-05
2.82419e-05
2.69787e-05
2.59671e-05
2.48843e-05
2.41132e-05
2.26738e-05
2.24004e-05
1.99231e-05
2.12907e-05
1.62868e-05
2.19126e-05
1.6875e-05
0.0579414
0.0753803
0.0871711
0.0899447
0.0794618
0.0498983
0.0526547
0.0800886
0.088962
0.084431
0.0695656
0.0473945
0.0235291
0.00630127
0.000756608
0.000461078
0
0
0
1.53572e-05
6.47262e-05
9.66274e-05
0.00010304
0.00010157
9.88237e-05
9.6334e-05
9.43138e-05
9.25567e-05
9.08657e-05
8.91766e-05
8.74835e-05
8.57896e-05
8.4094e-05
8.23901e-05
8.0671e-05
7.89318e-05
7.71702e-05
7.53864e-05
7.35778e-05
7.17459e-05
6.9893e-05
6.80217e-05
6.61357e-05
6.42369e-05
6.23319e-05
6.04237e-05
5.85167e-05
5.66171e-05
5.47276e-05
5.28536e-05
5.10005e-05
4.9171e-05
4.73702e-05
4.56012e-05
4.38679e-05
4.21734e-05
4.05201e-05
3.89106e-05
3.73467e-05
3.58298e-05
3.43613e-05
3.29404e-05
3.15658e-05
3.02294e-05
2.89319e-05
2.76596e-05
2.64489e-05
2.54893e-05
2.44341e-05
2.37227e-05
2.22894e-05
2.20832e-05
1.96006e-05
2.1037e-05
1.60884e-05
2.17073e-05
0.0395084
0.0565448
0.0700143
0.0782452
0.0789172
0.0689678
0.0434818
0.044375
0.0694842
0.0786366
0.0758123
0.063242
0.0436934
0.0222351
0.00661332
0.000909433
0.000454247
0
0
0
1.5513e-05
6.36124e-05
8.87304e-05
8.94236e-05
8.64505e-05
8.45036e-05
8.31321e-05
8.19458e-05
8.08345e-05
7.97085e-05
7.85318e-05
7.73118e-05
7.60574e-05
7.47703e-05
7.34477e-05
7.20883e-05
7.0694e-05
6.92669e-05
6.78059e-05
6.63132e-05
6.47914e-05
6.32414e-05
6.16667e-05
6.00693e-05
5.84538e-05
5.68226e-05
5.51803e-05
5.35321e-05
5.18805e-05
5.02308e-05
4.85885e-05
4.69566e-05
4.53402e-05
4.37428e-05
4.21692e-05
4.06224e-05
3.91058e-05
3.76223e-05
3.61744e-05
3.4764e-05
3.33931e-05
3.20617e-05
3.07695e-05
2.95099e-05
2.82821e-05
2.70764e-05
2.59172e-05
2.50067e-05
2.39773e-05
2.33236e-05
2.18971e-05
2.17587e-05
1.92684e-05
2.07817e-05
0.0222189
0.038485
0.0530188
0.0641906
0.0707067
0.0708074
0.0621176
0.0405333
0.0364337
0.0606566
0.0703361
0.0690722
0.0586385
0.0414618
0.0220712
0.00744231
0.000513087
0.000223819
0
0
0
1.50082e-05
6.06055e-05
8.07368e-05
7.88222e-05
7.48755e-05
7.33025e-05
7.24756e-05
7.1638e-05
7.08129e-05
7.00033e-05
6.91692e-05
6.83007e-05
6.73998e-05
6.64599e-05
6.54745e-05
6.44422e-05
6.33642e-05
6.22395e-05
6.10706e-05
5.98598e-05
5.86084e-05
5.73208e-05
5.59994e-05
5.46479e-05
5.32702e-05
5.18702e-05
5.04529e-05
4.90214e-05
4.75807e-05
4.61361e-05
4.46912e-05
4.3251e-05
4.18192e-05
4.04008e-05
3.89992e-05
3.76181e-05
3.62608e-05
3.493e-05
3.36282e-05
3.23576e-05
3.1119e-05
2.99127e-05
2.87336e-05
2.75797e-05
2.64447e-05
2.53408e-05
2.44832e-05
2.34827e-05
2.28905e-05
2.14745e-05
2.14092e-05
0.00799851
0.0210387
0.0356338
0.0486077
0.058542
0.0643602
0.0646582
0.0575156
0.0396597
0.028369
0.0528237
0.0632454
0.063488
0.0550642
0.0400532
0.022519
0.00818347
0.000729978
0.000261942
0
0
0
1.30235e-05
5.14229e-05
7.34525e-05
7.14869e-05
6.68619e-05
6.53607e-05
6.48618e-05
6.41777e-05
6.34107e-05
6.26878e-05
6.19812e-05
6.1261e-05
6.05181e-05
5.97459e-05
5.8938e-05
5.80921e-05
5.72042e-05
5.62737e-05
5.53002e-05
5.42841e-05
5.32282e-05
5.21337e-05
5.10036e-05
4.98416e-05
4.86507e-05
4.74355e-05
4.61989e-05
4.49457e-05
4.36808e-05
4.24076e-05
4.11314e-05
3.98554e-05
3.85846e-05
3.73226e-05
3.60732e-05
3.48398e-05
3.36253e-05
3.24322e-05
3.1263e-05
3.0119e-05
2.9001e-05
2.79055e-05
2.68284e-05
2.57679e-05
2.47231e-05
2.39227e-05
2.29542e-05
0.000738555
0.00682052
0.0184665
0.0317858
0.0438161
0.0531581
0.05885
0.0597239
0.0542034
0.0397251
0.0200182
0.0455658
0.0569274
0.0586539
0.0521178
0.039134
0.0231476
0.00915949
0.00132239
0.000353763
0
0
0
9.66068e-06
3.71366e-05
6.49835e-05
6.52801e-05
6.01888e-05
5.84383e-05
5.82548e-05
5.78623e-05
5.7231e-05
5.66015e-05
5.60019e-05
5.53955e-05
5.47652e-05
5.41061e-05
5.34168e-05
5.26928e-05
5.19321e-05
5.11333e-05
5.02956e-05
4.942e-05
4.85072e-05
4.75586e-05
4.65766e-05
4.55635e-05
4.45232e-05
4.34577e-05
4.23712e-05
4.12681e-05
4.01512e-05
3.90258e-05
3.78944e-05
3.6762e-05
3.56323e-05
3.45086e-05
3.33946e-05
3.22931e-05
3.12064e-05
3.01373e-05
2.90873e-05
2.80575e-05
2.70462e-05
2.60471e-05
2.50629e-05
0.000366038
0.000456497
0.00504765
0.015137
0.0273794
0.0388398
0.0479834
0.053877
0.0555184
0.0515864
0.0400628
0.0154775
0.0386248
0.0511323
0.0543199
0.0495709
0.0384455
0.0238348
0.0102456
0.0020249
0.000426267
0
0
0
5.37296e-06
1.93288e-05
5.53359e-05
6.03886e-05
5.53283e-05
5.26812e-05
5.23241e-05
5.21253e-05
5.1663e-05
5.11496e-05
5.06601e-05
5.01664e-05
4.96476e-05
4.90999e-05
4.85204e-05
4.7907e-05
4.72576e-05
4.65713e-05
4.58486e-05
4.50899e-05
4.42961e-05
4.34686e-05
4.26095e-05
4.1722e-05
4.08074e-05
3.98693e-05
3.89114e-05
3.79363e-05
3.69486e-05
3.59508e-05
3.49472e-05
3.39415e-05
3.29368e-05
3.19367e-05
3.09438e-05
2.99603e-05
2.89891e-05
2.80315e-05
0
0.000155251
0.000267553
0.00325136
0.0115736
0.0227073
0.0337615
0.0429344
0.0492247
0.0517256
0.0493091
0.0403534
0.0203918
0.031762
0.0456816
0.0503125
0.0472562
0.0378396
0.0245237
0.0113785
0.00281069
0.000507655
2.02092e-05
0
0
6.00117e-07
3.11015e-08
4.14406e-05
5.36338e-05
5.08689e-05
4.79816e-05
4.73209e-05
4.71538e-05
4.6801e-05
4.63747e-05
4.59635e-05
4.55509e-05
4.51169e-05
4.46561e-05
4.41657e-05
4.36428e-05
4.30856e-05
4.24935e-05
4.18668e-05
4.12059e-05
4.05118e-05
3.97861e-05
3.90315e-05
3.82492e-05
3.7442e-05
3.66133e-05
3.57654e-05
3.49024e-05
3.40265e-05
3.31417e-05
3.22513e-05
3.13583e-05
0
0
6.15651e-06
0.000808701
0.00161657
0.00814162
0.0180109
0.0286382
0.03794
0.0447332
0.0481346
0.0471479
0.0404362
0.0250711
0.0246481
0.0404219
0.0464986
0.045049
0.0372337
0.0251585
0.0125066
0.00366863
0.000265886
0.000100455
0
0
9.71699e-10
8.88832e-06
3.40518e-05
4.75229e-05
4.65704e-05
4.38543e-05
4.30182e-05
4.28604e-05
4.25848e-05
4.22223e-05
4.18671e-05
4.15124e-05
4.11383e-05
4.07391e-05
4.03123e-05
3.98558e-05
3.93679e-05
3.88482e-05
3.82967e-05
3.77137e-05
3.71003e-05
3.64588e-05
3.57901e-05
3.50965e-05
8.17238e-06
2.36452e-08
0
0
0.000578012
0.000545744
0.0051158
0.013517
0.0235563
0.0329672
0.0403006
0.0446041
0.0449592
0.0402213
0.028352
0.0167406
0.0352283
0.0427813
0.0428702
0.0365736
0.0257
0.0136208
0.00457264
0.000118015
5.83586e-05
0
0
0
7.06461e-06
2.66477e-05
4.20885e-05
4.27322e-05
4.01771e-05
3.92056e-05
3.90707e-05
3.88653e-05
3.85494e-05
3.82335e-05
)
;

boundaryField
{
    inlet
    {
        type            calculated;
        value           nonuniform List<scalar> 
11
(
7.40324e-05
7.20687e-05
7.29303e-05
7.37176e-05
7.44092e-05
7.502e-05
7.55873e-05
7.61499e-05
7.67962e-05
7.52471e-05
7.72312e-05
)
;
    }
    outlet
    {
        type            calculated;
        value           nonuniform List<scalar> 0();
    }
    walls
    {
        type            calculated;
        value           uniform 0;
    }
    frontAndBack
    {
        type            empty;
    }
    procBoundary6to2
    {
        type            processor;
        value           nonuniform List<scalar> 
13
(
0.141641
0.0971461
0.0714685
0.0531314
0.0362012
0.0205355
0.00769921
0.000779951
0.000516788
0
0
7.44956e-06
3.05956e-05
)
;
    }
    procBoundary6to3
    {
        type            processor;
        value           uniform 3.29397e-05;
    }
    procBoundary6to5
    {
        type            processor;
        value           nonuniform List<scalar> 
86
(
0.296935
0.14481
0.135524
0.107723
0.0593181
0.0112928
0.00383993
0.0015018
0
0
4.88014e-05
0.000197135
0.000239335
0.00022224
0.000210415
0.00020971
0.000210581
0.000208931
0.000205482
0.000201667
0.000198061
0.000194616
0.000191131
0.000187479
0.000183634
0.00017961
0.000175428
0.000171107
0.000166661
0.000162098
0.000157434
0.000152685
0.000147867
0.000147867
0.000144743
0.000139832
0.000134894
0.000129949
0.000125014
0.000120109
0.000115252
0.00011046
0.000105748
0.000101131
9.66206e-05
9.22293e-05
9.22293e-05
8.87974e-05
8.46135e-05
8.05739e-05
7.66831e-05
7.29442e-05
6.93586e-05
6.5927e-05
6.26484e-05
5.9521e-05
5.9521e-05
5.68689e-05
5.40141e-05
5.13026e-05
4.87307e-05
4.62936e-05
4.39839e-05
4.17901e-05
4.17901e-05
3.98652e-05
3.78593e-05
3.59512e-05
3.41492e-05
3.24463e-05
3.08985e-05
2.95966e-05
2.95966e-05
2.85545e-05
2.74855e-05
2.63206e-05
2.53267e-05
2.38765e-05
2.33985e-05
2.10713e-05
2.265e-05
1.96695e-05
1.96695e-05
2.5041e-05
2.69934e-05
3.05919e-05
)
;
    }
    procBoundary6to7
    {
        type            processor;
        value           nonuniform List<scalar> 
91
(
3.02095e-05
3.02095e-05
2.64679e-05
2.64679e-05
2.60157e-05
2.60157e-05
1.6809e-05
1.58701e-05
1.6809e-05
2.1515e-05
1.89125e-05
1.58701e-05
2.05118e-05
2.24272e-05
2.10249e-05
1.89125e-05
2.10376e-05
2.40793e-05
2.33383e-05
2.24272e-05
2.24036e-05
2.7089e-05
2.61617e-05
2.52408e-05
2.40793e-05
2.43341e-05
3.0466e-05
2.95769e-05
2.86931e-05
2.78169e-05
2.7089e-05
2.69501e-05
3.43809e-05
3.36456e-05
3.28938e-05
3.21278e-05
3.13512e-05
3.05668e-05
3.0466e-05
2.97777e-05
3.79234e-05
3.7597e-05
3.72462e-05
3.68693e-05
3.64644e-05
3.60307e-05
3.55677e-05
3.50758e-05
3.45556e-05
3.40087e-05
3.34361e-05
3.43809e-05
3.28398e-05
2.65948e-06
6.76261e-07
0
0
0.000197072
0.000283021
0.00262973
0.00938177
0.0185812
0.0279855
0.0358401
0.041029
0.0426428
0.0396666
0.0305656
0.0100177
0.0299879
0.0390901
0.0406633
0.0358178
0.0261292
0.0146476
0.00534563
0.000488943
0.000168588
0
0
0
5.16682e-06
1.90033e-05
3.72066e-05
3.93882e-05
3.68698e-05
3.56912e-05
3.55934e-05
3.54968e-05
3.79234e-05
3.52441e-05
)
;
    }
}


// ************************************************************************* //
