/*--------------------------------*- C++ -*----------------------------------*\
| =========                 |                                                 |
| \\      /  F ield         | OpenFOAM: The Open Source CFD Toolbox           |
|  \\    /   O peration     | Version:  2506                                  |
|   \\  /    A nd           | Website:  www.openfoam.com                      |
|    \\/     M anipulation  |                                                 |
\*---------------------------------------------------------------------------*/
FoamFile
{
    version     2.0;
    format      ascii;
    arch        "LSB;label=32;scalar=64";
    class       volSymmTensorField;
    location    "450";
    object      turbulenceProperties:R;
}
// * * * * * * * * * * * * * * * * * * * * * * * * * * * * * * * * * * * * * //

dimensions      [0 2 -2 0 0 0 0];

internalField   nonuniform List<symmTensor> 
1340
(
(14.5076 -7.22675 1.21991e-15 19.3671 1.14381e-15 16.9539)
(11.344 -5.67314 -1.22394e-16 15.4784 -5.25035e-16 13.4314)
(8.33022 -4.17131 -1.51847e-15 11.5014 -2.44153e-17 9.9184)
(1.83919 -0.926558 -1.8856e-16 2.785 -1.90274e-15 2.31091)
(5.56395 -2.74333 3.4225e-15 7.1475 -4.9929e-15 6.32499)
(4.91709 -2.43212 -1.50351e-15 6.39211 1.52293e-15 5.63454)
(4.36044 -2.13693 3.24905e-15 5.51642 4.02365e-16 4.88549)
(4.49718 -2.25507 5.3625e-15 5.98271 7.29069e-15 5.37337)
(7.19233 -3.52365 -1.43655e-14 8.95228 5.20321e-16 8.06784)
(6.21474 -3.05341 4.95808e-15 7.81098 -1.62557e-15 7.01424)
(5.27478 -2.5564 5.13602e-15 6.35385 -1.52188e-15 5.79019)
(5.68035 -2.81457 -1.00216e-14 7.3502 2.90303e-15 6.54228)
(7.50726 -3.65019 4.79323e-15 9.09031 4.89458e-15 8.30258)
(7.00447 -3.4205 -1.01672e-14 8.60221 -1.30311e-16 7.81036)
(6.25811 -3.01933 -1.3026e-14 7.41623 1.88151e-15 6.82165)
(6.54298 -3.21244 9.21196e-15 8.14399 -3.43363e-15 7.38599)
(5.00424 -2.39892 -9.95961e-16 5.80627 4.27454e-16 5.40419)
(6.12662 -2.96366 -1.75002e-15 7.29454 3.98533e-15 6.71653)
(6.43237 -3.08567 6.73217e-16 7.49392 2.44279e-16 6.9472)
(6.9715 -3.40203 -1.72596e-14 8.48058 4.31251e-15 7.78227)
(1.21902 -0.556041 2.8085e-15 1.25522 -1.65236e-15 1.2347)
(3.24789 -1.53961 1.02197e-14 3.65297 -1.62746e-15 3.45162)
(5.23061 -2.48029 5.21568e-16 5.90479 -9.15598e-17 5.55221)
(6.71548 -3.25962 3.62078e-15 8.02814 -3.41157e-15 7.42627)
(0.114455 0.0246058 -1.26768e-15 0.0557744 3.2295e-16 0.0850534)
(0.598769 -0.253017 -1.31429e-15 0.534163 -8.03874e-16 0.567558)
(2.76632 -1.27429 1.17119e-15 2.91467 -2.67162e-16 2.82902)
(5.45424 -2.62773 3.10442e-15 6.37295 -8.99933e-16 5.95928)
(0.0443843 0.0138259 3.32435e-16 0.0275585 8.2213e-18 0.0359528)
(0.0878684 0.0200306 -3.92251e-16 0.0439516 1.32787e-16 0.0663481)
(0.707114 -0.283843 -1.87184e-15 0.586081 3.44365e-16 0.641877)
(3.33529 -1.58484 9.8376e-15 3.74554 -5.71867e-16 3.57547)
(0 0 -0 0 -0 0)
(0.0264575 0.00735559 8.66027e-17 0.0149602 -7.40352e-18 0.0208239)
(0.128093 0.00325158 1.88939e-15 0.0491003 -2.29296e-16 0.0871754)
(1.38458 -0.635115 -4.57571e-15 1.42566 1.49203e-15 1.42908)
(0 -0 0 0 0 0)
(3.04004e-06 8.24525e-09 -4.81917e-22 2.98951e-06 7.11425e-23 3.01544e-06)
(0.00223625 0.000431422 -9.22932e-18 0.00104974 3.978e-19 0.00161891)
(0.40078 -0.161271 -3.49639e-15 0.327663 1.5003e-16 0.377546)
(0 -0 0 0 -0 0)
(0 -0 0 0 0 0)
(0.00278927 0.000299265 -5.73045e-18 0.00114076 1.13038e-18 0.0019248)
(0.120503 -0.0325208 5.75783e-16 0.0659842 -2.58651e-16 0.0989968)
(1.76479e-06 -1.59521e-09 8.65794e-23 1.74586e-06 -8.85935e-23 1.75525e-06)
(0 -0 0 0 -0 0)
(0.000778452 -7.27157e-05 1.27961e-18 0.000317007 -2.25835e-19 0.000535549)
(0.043492 -0.00949261 6.10669e-16 0.021068 -1.80139e-17 0.0343013)
(2.90668e-05 -1.00933e-07 -8.6148e-20 2.45999e-05 2.39781e-20 2.68196e-05)
(4.1731e-08 -2.30588e-12 -6.32814e-27 4.17208e-08 -2.77371e-26 4.1726e-08)
(0.000230834 -3.55002e-05 -1.42371e-18 0.000123219 1.10618e-19 0.000174303)
(0.0140785 -0.00355968 -2.21445e-16 0.00739145 2.18403e-17 0.0113245)
(6.21555e-05 -3.27602e-07 4.71553e-19 4.4849e-05 -3.85881e-20 5.3452e-05)
(7.43979e-08 -5.31925e-12 -5.50776e-25 7.43622e-08 8.74423e-26 7.43804e-08)
(1.9787e-05 -6.22325e-07 -1.05601e-20 1.7828e-05 3.00451e-21 1.87636e-05)
(0.0034821 -0.000984367 6.40626e-17 0.00197385 -6.04443e-18 0.00285701)
(5.79928e-05 -4.52826e-07 -3.44465e-19 4.23044e-05 -3.58257e-20 5.01055e-05)
(2.75441e-05 -5.73354e-07 3.40289e-20 2.33122e-05 3.23026e-21 2.54661e-05)
(2.82576e-07 -1.33908e-10 1.18614e-23 2.8208e-07 -1.37017e-24 2.82318e-07)
(0.00024769 -6.04102e-05 -4.45678e-18 0.000160527 4.94382e-19 0.000211021)
(4.54566e-05 -3.4836e-07 2.79667e-20 3.49072e-05 3.83551e-20 4.01555e-05)
(5.46468e-05 -2.0804e-06 -1.44193e-20 4.02383e-05 -1.29048e-20 4.75604e-05)
(9.6283e-08 -1.53631e-11 -1.57535e-24 9.62214e-08 8.79368e-26 9.62511e-08)
(1.5625e-05 -5.41075e-07 1.17749e-20 1.48253e-05 -2.40836e-21 1.52822e-05)
(3.93561e-05 -2.64339e-07 3.78848e-20 3.09666e-05 -2.89414e-21 3.51425e-05)
(6.14812e-05 -2.69696e-06 -5.31514e-20 4.3639e-05 1.80247e-21 5.26925e-05)
(2.33399e-07 -9.50585e-11 5.86686e-25 2.33023e-07 4.61293e-25 2.33205e-07)
(2.1957e-10 -1.22176e-16 -2.12754e-30 2.1957e-10 1.60375e-31 2.1957e-10)
(3.83034e-05 -2.31862e-07 1.22529e-20 3.01066e-05 -1.74437e-20 3.41887e-05)
(5.13874e-05 -2.0431e-06 -3.54166e-20 3.7881e-05 1.39073e-20 4.47243e-05)
(1.7941e-05 -5.27438e-07 4.3239e-20 1.59379e-05 -2.20669e-21 1.69138e-05)
(3.50906e-07 -3.34505e-10 8.29081e-24 3.50376e-07 -9.76743e-25 3.50671e-07)
(3.8725e-05 -2.14782e-07 -1.05678e-19 3.01514e-05 6.37936e-21 3.44233e-05)
(4.13302e-05 -1.41291e-06 6.64411e-20 3.17705e-05 -3.62141e-21 3.66072e-05)
(3.84377e-05 -2.21571e-06 1.1382e-19 3.0267e-05 -1.30717e-20 3.42626e-05)
(4.26358e-06 -5.18964e-08 3.60529e-21 4.18013e-06 -1.59597e-22 4.22596e-06)
(3.85845e-05 -1.90958e-07 1.16512e-20 2.98314e-05 1.15707e-20 3.4195e-05)
(3.6198e-05 -1.12246e-06 -1.36843e-20 2.83735e-05 -6.88728e-21 3.23272e-05)
(4.17829e-05 -2.66656e-06 -4.41909e-20 3.20717e-05 -8.54281e-21 3.68381e-05)
(1.81742e-05 -9.30099e-07 -5.29684e-21 1.66594e-05 1.70726e-21 1.74818e-05)
(3.75507e-05 -1.56374e-07 -3.71337e-21 2.89597e-05 -7.31232e-21 3.32443e-05)
(3.42711e-05 -1.02088e-06 -4.85591e-20 2.69254e-05 7.52908e-21 3.06323e-05)
(3.73853e-05 -2.27589e-06 -1.97141e-19 2.91008e-05 1.38023e-20 3.31803e-05)
(2.8893e-05 -2.32934e-06 -8.17379e-20 2.50361e-05 3.61382e-21 2.71077e-05)
(3.60289e-05 -1.15841e-07 -5.67918e-20 2.77891e-05 1.37397e-20 3.19004e-05)
(3.33459e-05 -9.72678e-07 5.18431e-20 2.60985e-05 -2.77768e-21 2.97513e-05)
(3.29844e-05 -1.88599e-06 4.64651e-20 2.60729e-05 1.61826e-21 2.9486e-05)
(3.15701e-05 -2.86996e-06 -5.90602e-20 2.67157e-05 1.61955e-21 2.92968e-05)
(3.43886e-05 -7.33706e-08 1.12201e-19 2.65435e-05 -7.98322e-22 3.04595e-05)
(3.23348e-05 -9.17897e-07 -5.3463e-20 2.52137e-05 1.09182e-21 2.8799e-05)
(3.01757e-05 -1.65806e-06 -3.68533e-20 2.40218e-05 1.69348e-21 2.70689e-05)
(3.00845e-05 -2.75105e-06 1.32947e-19 2.53043e-05 -4.80953e-21 2.78229e-05)
(3.27784e-05 -3.04783e-08 -1.59765e-20 2.53134e-05 -1.1327e-20 2.90409e-05)
(3.1024e-05 -8.46446e-07 2.83869e-20 2.41411e-05 -2.49577e-21 2.76029e-05)
(2.83772e-05 -1.52505e-06 5.03814e-20 2.26131e-05 -3.7457e-21 2.54738e-05)
(2.76957e-05 -2.47217e-06 -8.46548e-20 2.32646e-05 3.53523e-21 2.55801e-05)
(3.1214e-05 1.23742e-08 -1.78064e-20 2.41099e-05 -6.21056e-22 2.76585e-05)
(2.95339e-05 -7.65132e-07 -7.3102e-20 2.29582e-05 3.06623e-21 2.62623e-05)
(2.69339e-05 -1.42052e-06 -8.37915e-20 2.14319e-05 5.25599e-21 2.41679e-05)
(2.55216e-05 -2.21887e-06 9.41844e-20 2.14003e-05 -2.52772e-21 2.3538e-05)
(2.96689e-05 5.48614e-08 -3.38993e-20 2.29177e-05 4.84963e-21 2.6291e-05)
(2.79925e-05 -6.81522e-07 3.81833e-20 2.17454e-05 8.84208e-21 2.48816e-05)
(2.55414e-05 -1.31623e-06 1.27228e-19 2.02841e-05 -5.46833e-23 2.29026e-05)
(2.36764e-05 -2.00981e-06 -9.15882e-20 1.97925e-05 2.02601e-21 2.17935e-05)
(2.81304e-05 9.69272e-08 3.55443e-20 2.17308e-05 3.48147e-21 2.49291e-05)
(2.64647e-05 -5.98656e-07 1.07613e-19 2.05444e-05 -7.51978e-21 2.35144e-05)
(2.41376e-05 -1.2067e-06 7.88401e-21 1.91315e-05 -3.11754e-21 2.16283e-05)
(2.20492e-05 -1.82692e-06 4.94007e-20 1.83596e-05 -1.14545e-21 2.02493e-05)
(2.65988e-05 1.37361e-07 2.92732e-20 2.05503e-05 -6.04032e-21 2.3574e-05)
(2.49652e-05 -5.18191e-07 -6.22905e-20 1.93658e-05 -6.572e-21 2.21731e-05)
(2.274e-05 -1.09513e-06 1.52116e-20 1.79883e-05 -2.9355e-21 2.0361e-05)
(2.05584e-05 -1.65807e-06 -9.3572e-20 1.70429e-05 1.08413e-21 1.88346e-05)
(2.50771e-05 1.76287e-07 -5.22915e-20 1.9379e-05 2.37699e-21 2.2228e-05)
(2.34944e-05 -4.39733e-07 -4.18018e-20 1.82104e-05 5.79636e-21 2.0858e-05)
(2.1368e-05 -9.84038e-07 -8.12826e-20 1.68679e-05 1.6585e-21 1.91168e-05)
(1.91658e-05 -1.49876e-06 6.05863e-20 1.58144e-05 -1.50243e-21 1.75154e-05)
(2.35759e-05 2.12961e-07 5.83763e-20 1.82249e-05 -1.03439e-21 2.09006e-05)
(2.20564e-05 -3.64495e-07 4.63285e-20 1.70826e-05 -1.43595e-21 1.95735e-05)
(2.00364e-05 -8.75633e-07 3.94771e-20 1.5782e-05 -7.38435e-22 1.79096e-05)
(1.78616e-05 -1.34817e-06 -1.35495e-19 1.46664e-05 2.25467e-21 1.62829e-05)
(2.2103e-05 2.46791e-07 -6.93811e-20 1.70938e-05 -1.77521e-21 1.95991e-05)
(2.0655e-05 -2.92357e-07 -6.98903e-20 1.59855e-05 -2.70138e-22 1.83231e-05)
(1.87466e-05 -7.70704e-07 -1.02323e-19 1.47323e-05 1.29677e-22 1.67407e-05)
(1.6638e-05 -1.20647e-06 2.15723e-19 1.3593e-05 1.88069e-21 1.51295e-05)
(2.06621e-05 2.77524e-07 3.44108e-20 1.59885e-05 5.10233e-21 1.83261e-05)
(1.92952e-05 -2.24322e-07 4.73928e-20 1.49234e-05 5.78553e-22 1.71113e-05)
(1.75056e-05 -6.70125e-07 5.99031e-20 1.37249e-05 4.50429e-21 1.56172e-05)
(1.54889e-05 -1.0732e-06 -8.65365e-20 1.25888e-05 -3.34323e-21 1.4049e-05)
(1.92611e-05 3.04889e-07 1.80913e-20 1.49151e-05 -2.79882e-21 1.7089e-05)
(1.79786e-05 -1.60542e-07 -6.42839e-20 1.38974e-05 -2.0639e-21 1.59393e-05)
(1.63123e-05 -5.74748e-07 2.36755e-20 1.27597e-05 -4.65944e-21 1.45383e-05)
(1.44103e-05 -9.48502e-07 3.62341e-20 1.16509e-05 1.61884e-21 1.30378e-05)
(1.88867e-05 7.52881e-07 -7.04575e-20 1.48279e-05 3.55509e-21 1.68581e-05)
(1.79051e-05 3.28511e-07 -2.87621e-20 1.38771e-05 -3.28494e-21 1.58921e-05)
(1.67119e-05 -1.01382e-07 2.06228e-20 1.29127e-05 5.96322e-21 1.48131e-05)
(1.51684e-05 -4.84855e-07 -9.79892e-20 1.18381e-05 -4.60677e-22 1.35056e-05)
(1.33948e-05 -8.321e-07 -2.48735e-20 1.07734e-05 1.85907e-22 1.20891e-05)
(1.74922e-05 7.38153e-07 7.89719e-20 1.37606e-05 5.29009e-21 1.56272e-05)
(1.65983e-05 3.48306e-07 -3.1802e-20 1.28778e-05 1.96757e-21 1.4739e-05)
(1.54975e-05 -4.73098e-08 8.26939e-20 1.19711e-05 2.37273e-22 1.37348e-05)
(1.40776e-05 -4.01055e-07 6.56607e-20 1.09631e-05 4.38471e-21 1.25227e-05)
(1.24389e-05 -7.23785e-07 7.50451e-20 9.95298e-06 2.23401e-21 1.11992e-05)
(1.61537e-05 7.20351e-07 -1.96688e-20 1.27354e-05 -4.0465e-21 1.44453e-05)
(1.53458e-05 3.64096e-07 3.70347e-20 1.1921e-05 2.3022e-21 1.36344e-05)
(1.43371e-05 1.58256e-09 -2.23124e-20 1.10738e-05 -5.19533e-21 1.27057e-05)
(1.304e-05 -3.23684e-07 -1.82871e-21 1.01348e-05 -2.83926e-21 1.15897e-05)
(1.15391e-05 -6.23533e-07 -3.01657e-20 9.18672e-06 -3.71289e-21 1.03648e-05)
(1.4876e-05 6.99725e-07 1.14655e-20 1.17557e-05 -1.63877e-22 1.33165e-05)
(1.41503e-05 3.75909e-07 -5.15085e-21 1.10083e-05 -1.21316e-21 1.25802e-05)
(1.32329e-05 4.51551e-08 -5.48755e-20 1.02221e-05 7.30849e-22 1.17276e-05)
(1.20557e-05 -2.529e-07 -3.49906e-20 9.35296e-06 -2.44492e-21 1.07065e-05)
(1.06917e-05 -5.31222e-07 -7.97492e-20 8.47116e-06 -1.81744e-21 9.58224e-06)
(1.36626e-05 6.76606e-07 -3.67159e-20 1.08243e-05 -2.93699e-22 1.2244e-05)
(1.30147e-05 3.83895e-07 7.4657e-21 1.01419e-05 -3.12669e-22 1.15792e-05)
(1.21864e-05 8.33907e-08 5.44955e-20 9.41705e-06 2.3881e-21 1.08017e-05)
(1.11247e-05 -1.88787e-07 -4.58011e-20 8.61742e-06 -1.22068e-21 9.87309e-06)
(9.894e-06 -4.46671e-07 2.7953e-20 7.80361e-06 2.24333e-21 8.84878e-06)
(1.25155e-05 6.51342e-07 5.45308e-20 9.94266e-06 5.22123e-21 1.12297e-05)
(1.19409e-05 3.88098e-07 -1.3732e-20 9.32293e-06 6.33178e-22 1.06328e-05)
(1.11985e-05 1.16302e-07 -5.36395e-20 8.65896e-06 -2.93411e-21 9.92862e-06)
(1.02474e-05 -1.31328e-07 -1.07014e-20 7.92786e-06 2.74997e-21 9.0895e-06)
(9.14372e-06 -3.69773e-07 -7.126e-21 7.18155e-06 -3.14396e-22 8.16191e-06)
(1.14366e-05 6.24334e-07 2.69696e-20 9.11202e-06 -1.21957e-21 1.02748e-05)
(1.093e-05 3.88806e-07 3.69622e-20 8.55202e-06 2.49113e-21 9.74177e-06)
(1.02687e-05 1.44034e-07 4.27975e-20 7.94718e-06 2.98578e-21 9.1078e-06)
(9.42243e-06 -8.04368e-08 1.0055e-19 7.28289e-06 4.05892e-21 8.35441e-06)
(8.43874e-06 -3.00251e-07 3.42472e-20 6.60251e-06 2.43622e-21 7.51934e-06)
(1.04264e-05 5.95932e-07 -2.17535e-20 8.33294e-06 -2.97221e-21 9.38012e-06)
(9.98234e-06 3.8627e-07 2.12368e-21 7.82936e-06 -2.38964e-21 8.90658e-06)
(9.39732e-06 1.66837e-07 -2.17573e-20 7.28149e-06 -2.3473e-21 8.33921e-06)
(8.64876e-06 -3.59025e-08 -4.09826e-20 6.68113e-06 -5.25858e-21 7.66657e-06)
(7.77689e-06 -2.3798e-07 2.38922e-20 6.06408e-06 6.1409e-22 6.91875e-06)
(9.48477e-06 5.66531e-07 -2.91847e-20 7.60525e-06 -8.85663e-22 8.54541e-06)
(9.09765e-06 3.808e-07 -5.4553e-20 7.15443e-06 -2.77679e-21 8.12672e-06)
(8.58333e-06 1.84916e-07 -8.14954e-21 6.66083e-06 8.07297e-22 7.62188e-06)
(7.92533e-06 2.54281e-09 -3.35719e-20 6.1212e-06 -1.09997e-21 7.02479e-06)
(7.15647e-06 -1.82492e-07 -1.01449e-21 5.56401e-06 -1.57253e-21 6.35815e-06)
(8.61066e-06 5.36511e-07 3.36467e-21 6.92824e-06 2.15402e-21 7.76982e-06)
(8.27495e-06 3.72728e-07 2.69099e-20 6.52637e-06 2.66294e-21 7.40128e-06)
(7.82545e-06 1.98664e-07 3.48368e-20 6.08385e-06 1.82259e-21 6.95444e-06)
(7.25036e-06 3.52251e-08 -4.22454e-21 5.60119e-06 1.20258e-21 6.42719e-06)
(6.57584e-06 -1.33641e-07 -5.84951e-20 5.10026e-06 -2.5353e-21 5.8357e-06)
(7.80256e-06 5.0622e-07 4.74467e-20 6.30081e-06 3.60771e-21 7.052e-06)
(7.51295e-06 3.62446e-07 -2.03531e-20 5.94408e-06 -2.63401e-21 6.72907e-06)
(7.12211e-06 2.084e-07 -2.83733e-20 5.54904e-06 -2.94701e-21 6.33536e-06)
(6.62247e-06 6.25083e-08 2.83578e-20 5.11949e-06 1.16199e-21 5.87232e-06)
(6.03309e-06 -9.09397e-08 5.89834e-20 4.67052e-06 4.74073e-21 5.34923e-06)
(7.05818e-06 4.75961e-07 -8.86535e-22 5.72129e-06 -1.00714e-21 6.39001e-06)
(6.80959e-06 3.50277e-07 -3.432e-20 5.40588e-06 -1.86653e-21 6.10825e-06)
(6.47156e-06 2.14534e-07 -7.84212e-21 5.05477e-06 -7.6471e-22 5.76295e-06)
(6.03967e-06 8.48278e-08 -2.48837e-20 4.67404e-06 -1.71435e-21 5.35812e-06)
(5.52695e-06 -5.40459e-08 -2.72463e-21 4.27302e-06 -2.08003e-21 4.89726e-06)
(6.52245e-06 5.44503e-07 -2.15342e-22 5.43911e-06 -2.33763e-22 5.98108e-06)
(6.37504e-06 4.46052e-07 7.00819e-21 5.18792e-06 4.07357e-22 5.78172e-06)
(6.16241e-06 3.36621e-07 1.02581e-20 4.90987e-06 1.45323e-21 5.5366e-06)
(5.87152e-06 2.17467e-07 -3.97623e-20 4.59904e-06 -1.93127e-21 5.23505e-06)
(5.49999e-06 1.02611e-07 3.43008e-20 4.26288e-06 2.80577e-21 4.88263e-06)
(5.05581e-06 -2.25444e-08 -5.73523e-20 3.90581e-06 -3.21527e-21 4.47798e-06)
(5.87478e-06 5.01697e-07 -6.78528e-21 4.91853e-06 -5.53506e-22 5.39692e-06)
(5.75015e-06 4.16735e-07 -9.71652e-21 4.69851e-06 -1.27852e-21 5.22453e-06)
(5.56904e-06 3.21818e-07 -1.07833e-20 4.4542e-06 -1.31353e-21 5.01203e-06)
(5.31971e-06 2.17634e-07 5.13637e-20 4.17993e-06 5.04337e-21 4.7496e-06)
(5.00156e-06 1.16306e-07 -3.91196e-21 3.88415e-06 -1.46336e-21 4.44398e-06)
(4.61811e-06 3.9943e-09 4.94402e-20 3.567e-06 4.23017e-21 4.08967e-06)
(5.28534e-06 4.61317e-07 6.77333e-21 4.443e-06 1.20059e-21 4.86439e-06)
(5.18018e-06 3.88218e-07 -1.75335e-20 4.25064e-06 -1.16099e-21 4.71558e-06)
(5.02647e-06 3.06171e-07 5.17464e-22 4.03657e-06 5.46601e-22 4.5319e-06)
(4.81364e-06 2.15413e-07 2.26735e-20 3.79534e-06 5.3874e-22 4.30427e-06)
(4.54234e-06 1.26372e-07 -3.59718e-20 3.53593e-06 -1.91262e-21 4.04021e-06)
(4.21239e-06 2.60226e-08 -2.12351e-20 3.25487e-06 -2.09618e-21 3.73073e-06)
(4.75038e-06 4.23398e-07 2.40446e-20 4.00975e-06 1.62407e-21 4.38026e-06)
(4.66185e-06 3.60696e-07 1.24899e-20 3.84192e-06 1.31248e-21 4.25203e-06)
(4.53175e-06 2.90018e-07 2.73437e-20 3.6548e-06 2.00265e-21 4.09361e-06)
(4.35066e-06 2.1121e-07 -3.02252e-20 3.44316e-06 -2.33533e-21 3.89669e-06)
(4.12014e-06 1.33251e-07 5.19745e-20 3.21623e-06 4.60975e-21 3.6692e-06)
(3.83711e-06 4.39685e-08 2.3023e-20 2.9677e-06 2.09192e-21 3.39951e-06)
(4.26607e-06 3.87948e-07 -2.7922e-20 3.61601e-06 -2.87892e-21 3.9412e-06)
(4.19161e-06 3.343e-07 -4.68341e-21 3.46976e-06 -7.9698e-22 3.83081e-06)
(4.08178e-06 2.73586e-07 -3.22575e-20 3.30652e-06 -3.50043e-21 3.69446e-06)
(3.9282e-06 2.05395e-07 3.69955e-20 3.12135e-06 3.54527e-21 3.52455e-06)
(3.7329e-06 1.37386e-07 3.42547e-21 2.92325e-06 -5.12903e-22 3.32903e-06)
(3.49083e-06 5.82693e-08 -1.29471e-20 2.70393e-06 -1.82128e-21 3.09453e-06)
(3.82862e-06 3.54937e-07 1.1257e-20 3.25896e-06 1.51511e-21 3.54392e-06)
(3.76608e-06 3.09153e-07 -1.1663e-20 3.13171e-06 -9.14208e-22 3.44898e-06)
(3.67347e-06 2.57144e-07 -6.00437e-21 2.98951e-06 9.24336e-23 3.33176e-06)
(3.54349e-06 1.98304e-07 -3.97943e-21 2.82775e-06 -8.77532e-22 3.18539e-06)
(3.37849e-06 1.39164e-07 -1.37713e-20 2.65515e-06 -1.02398e-21 3.01772e-06)
(3.17198e-06 6.93449e-08 -4.09312e-20 2.46195e-06 -3.0331e-21 2.81419e-06)
(3.43421e-06 3.24302e-07 -2.63044e-21 2.93575e-06 3.24396e-22 3.1851e-06)
(3.38171e-06 2.85307e-07 3.12596e-21 2.82514e-06 4.4433e-22 3.1035e-06)
(3.30377e-06 2.40866e-07 1.09256e-20 2.70146e-06 1.11071e-21 3.00286e-06)
(3.19399e-06 1.90241e-07 -3.06626e-21 2.5604e-06 -4.47822e-22 2.87697e-06)
(3.05484e-06 1.38987e-07 9.14661e-21 2.41021e-06 4.97636e-22 2.73338e-06)
(2.87902e-06 7.76099e-08 3.30242e-20 2.24027e-06 3.36628e-21 2.55696e-06)
(3.07931e-06 2.95978e-07 5.34582e-20 2.64376e-06 5.25822e-21 2.86163e-06)
(3.0352e-06 2.62829e-07 3.12528e-21 2.54765e-06 4.76631e-22 2.79148e-06)
(2.96962e-06 2.24934e-07 2.09777e-21 2.44015e-06 4.79912e-24 2.7051e-06)
(2.87701e-06 1.81484e-07 -1.95646e-20 2.31729e-06 -1.28833e-21 2.59693e-06)
(2.75987e-06 1.37195e-07 -3.30705e-20 2.18676e-06 -2.93907e-21 2.47411e-06)
(2.61049e-06 8.34416e-08 -5.84888e-21 2.03749e-06 -7.12645e-22 2.3214e-06)
(2.76042e-06 2.6986e-07 -1.68303e-20 2.38032e-06 -2.21098e-21 2.57045e-06)
(2.72331e-06 2.4172e-07 7.18122e-21 2.29683e-06 5.92306e-22 2.51011e-06)
(2.66815e-06 2.09471e-07 -8.05762e-21 2.20348e-06 -1.06745e-21 2.43602e-06)
(2.59009e-06 1.72271e-07 3.85653e-20 2.09657e-06 3.61599e-21 2.34312e-06)
(2.49153e-06 1.34106e-07 2.71265e-20 1.98317e-06 2.88494e-21 2.2381e-06)
(2.36483e-06 8.71902e-08 2.90203e-20 1.85223e-06 2.37845e-21 2.10606e-06)
(2.49259e-06 2.65914e-07 1.32906e-20 2.20738e-06 1.26211e-21 2.35003e-06)
(2.47424e-06 2.45838e-07 2.0613e-20 2.14294e-06 2.52827e-21 2.30866e-06)
(2.443e-06 2.21986e-07 -6.51754e-21 2.07043e-06 -8.33608e-22 2.25674e-06)
(2.39655e-06 1.94594e-07 -1.49732e-20 1.98938e-06 -1.38294e-21 2.19314e-06)
(2.33078e-06 1.62802e-07 -2.56259e-20 1.8964e-06 -2.81717e-21 2.11338e-06)
(2.24788e-06 1.30001e-07 -8.02108e-21 1.79792e-06 -8.5066e-22 2.0236e-06)
(2.14057e-06 8.91934e-08 -4.94536e-20 1.6832e-06 -5.0889e-21 1.90953e-06)
(2.2333e-06 2.40789e-07 -1.9731e-20 1.98537e-06 -2.1828e-21 2.10937e-06)
(2.21771e-06 2.23801e-07 1.48596e-20 1.92929e-06 1.10835e-21 2.07356e-06)
(2.19133e-06 2.03603e-07 -1.765e-20 1.86628e-06 -1.77297e-21 2.02883e-06)
(2.15219e-06 1.80365e-07 -3.98678e-21 1.79592e-06 -7.82514e-24 1.97421e-06)
(2.09675e-06 1.53252e-07 8.61194e-21 1.71508e-06 7.35078e-22 1.90572e-06)
(2.02699e-06 1.25124e-07 1.78821e-20 1.62955e-06 2.00558e-21 1.82892e-06)
(1.93621e-06 8.97411e-08 -6.78928e-21 1.52914e-06 1.97052e-23 1.73045e-06)
(2.00132e-06 2.17996e-07 1.45732e-20 1.78603e-06 2.02914e-21 1.89371e-06)
(1.98802e-06 2.03628e-07 -2.80446e-20 1.73719e-06 -3.10152e-21 1.86265e-06)
(1.96565e-06 1.86543e-07 -2.40721e-21 1.68242e-06 -2.12326e-22 1.82405e-06)
(1.9326e-06 1.6685e-07 3.69509e-20 1.6213e-06 3.63139e-21 1.77709e-06)
(1.88582e-06 1.43765e-07 -3.66882e-20 1.55101e-06 -3.75038e-21 1.71822e-06)
(1.82705e-06 1.19695e-07 1.74936e-20 1.47669e-06 1.7365e-21 1.65248e-06)
(1.75032e-06 8.9103e-08 2.17112e-20 1.38888e-06 1.81298e-21 1.5675e-06)
(1.79397e-06 1.97354e-07 2.36423e-20 1.60724e-06 2.57177e-21 1.70063e-06)
(1.78252e-06 1.85206e-07 2.17149e-22 1.56466e-06 2.621e-22 1.67363e-06)
(1.76348e-06 1.70761e-07 2.83575e-21 1.51698e-06 4.02165e-22 1.64024e-06)
(1.73548e-06 1.54088e-07 -4.34335e-20 1.46384e-06 -4.761e-21 1.59978e-06)
(1.69592e-06 1.34454e-07 -1.30024e-21 1.40268e-06 -1.46287e-22 1.54911e-06)
(1.64633e-06 1.1389e-07 3.05676e-20 1.33806e-06 3.28431e-21 1.49276e-06)
(1.58153e-06 8.75127e-08 -6.05102e-20 1.26132e-06 -6.33252e-21 1.41946e-06)
(1.60874e-06 1.78682e-07 5.89091e-21 1.44699e-06 5.2228e-22 1.52788e-06)
(1.59881e-06 1.68414e-07 -7.97452e-21 1.40979e-06 -7.41041e-22 1.50434e-06)
(1.58251e-06 1.56203e-07 -4.47145e-21 1.36824e-06 -5.7222e-22 1.47538e-06)
(1.5587e-06 1.42098e-07 1.20495e-20 1.32198e-06 1.72723e-21 1.44045e-06)
(1.52518e-06 1.25418e-07 -2.16464e-20 1.26873e-06 -2.31662e-21 1.39678e-06)
(1.48322e-06 1.07879e-07 2.38667e-20 1.21248e-06 2.39114e-21 1.34837e-06)
(1.42849e-06 8.51877e-08 -1.05524e-20 1.14544e-06 -7.83245e-22 1.28512e-06)
(1.44323e-06 1.61794e-07 3.21218e-21 1.30331e-06 1.94779e-22 1.37328e-06)
(1.43457e-06 1.53119e-07 1.72232e-20 1.2708e-06 1.98512e-21 1.35271e-06)
(1.42057e-06 1.42804e-07 -1.56671e-21 1.23454e-06 -9.68155e-23 1.32755e-06)
(1.40024e-06 1.30882e-07 1.0178e-20 1.19425e-06 7.28707e-22 1.29734e-06)
(1.37176e-06 1.16725e-07 -2.93472e-21 1.14784e-06 -3.7741e-22 1.25963e-06)
(1.33615e-06 1.01785e-07 2.37896e-20 1.0988e-06 2.49852e-21 1.21796e-06)
(1.28994e-06 8.23078e-08 -2.59338e-20 1.04026e-06 -2.60679e-21 1.16339e-06)
(1.29506e-06 1.4648e-07 -1.12579e-20 1.17418e-06 -1.42504e-21 1.23463e-06)
(1.28751e-06 1.3916e-07 6.4045e-21 1.14579e-06 6.17506e-22 1.21668e-06)
(1.27547e-06 1.30458e-07 8.17589e-21 1.11419e-06 9.11387e-22 1.19483e-06)
(1.25811e-06 1.20393e-07 -4.07731e-20 1.07911e-06 -4.43574e-21 1.1687e-06)
(1.2339e-06 1.08398e-07 -2.86389e-20 1.03868e-06 -3.19796e-21 1.13613e-06)
(1.20361e-06 9.56945e-08 1.92552e-20 9.95916e-07 1.86686e-21 1.10022e-06)
(1.16463e-06 7.902e-08 -2.43607e-21 9.44847e-07 -2.10486e-22 1.05315e-06)
(1.16521e-06 1.37624e-07 1.19893e-21 1.08007e-06 2.48051e-22 1.12265e-06)
(1.16196e-06 1.32532e-07 -1.35458e-20 1.05767e-06 -1.37884e-21 1.10982e-06)
(1.15543e-06 1.26366e-07 9.38894e-21 1.03294e-06 9.07287e-22 1.09421e-06)
(1.14513e-06 1.19039e-07 -1.44592e-20 1.00547e-06 -1.76383e-21 1.07529e-06)
(1.13034e-06 1.1056e-07 1.01379e-21 9.74991e-07 2.89642e-22 1.05274e-06)
(1.10979e-06 1.00417e-07 -5.56622e-21 9.39844e-07 -3.20249e-22 1.02466e-06)
(1.08403e-06 8.96418e-08 3.65131e-21 9.02596e-07 2.04526e-22 9.93728e-07)
(1.05125e-06 7.54129e-08 -1.22339e-20 8.58175e-07 -1.12342e-21 9.53243e-07)
(1.04512e-06 1.24101e-07 8.25806e-21 9.71893e-07 9.64213e-22 1.00852e-06)
(1.04221e-06 1.19802e-07 2.22622e-20 9.52319e-07 2.63692e-21 9.97274e-07)
(1.03656e-06 1.14607e-07 -1.91723e-20 9.30788e-07 -2.16718e-21 9.83693e-07)
(1.02775e-06 1.0844e-07 -2.0673e-20 9.06925e-07 -2.13134e-21 9.67331e-07)
(1.01517e-06 1.01305e-07 -7.31578e-21 8.80498e-07 -9.62243e-22 9.47908e-07)
(9.97772e-07 9.27458e-08 2.17993e-20 8.50022e-07 2.45218e-21 9.23758e-07)
(9.75901e-07 8.36286e-08 -1.66267e-20 8.17663e-07 -1.90388e-21 8.97167e-07)
(9.48493e-07 7.15336e-08 2.95892e-20 7.79194e-07 3.24994e-21 8.62491e-07)
(9.37312e-07 1.11872e-07 7.33404e-21 8.74469e-07 9.04068e-22 9.05895e-07)
(9.34614e-07 1.08228e-07 -1.02164e-20 8.57262e-07 -1.31485e-21 8.9594e-07)
(9.29633e-07 1.03839e-07 -1.21662e-21 8.38426e-07 -9.3347e-23 8.8404e-07)
(9.22023e-07 9.86381e-08 2.52758e-20 8.1763e-07 3.06376e-21 8.69815e-07)
(9.11279e-07 9.26253e-08 -1.49821e-20 7.94673e-07 -1.85522e-21 8.53035e-07)
(8.96526e-07 8.54006e-08 -5.14221e-21 7.68239e-07 -4.87109e-22 8.32249e-07)
(8.77947e-07 7.76863e-08 -1.5897e-20 7.40137e-07 -1.58864e-21 8.09388e-07)
(8.55094e-07 6.74294e-08 3.29035e-21 7.06914e-07 2.15178e-22 7.79762e-07)
(8.41118e-07 1.00895e-07 1.37614e-20 7.87314e-07 1.50549e-21 8.14232e-07)
(8.3848e-07 9.77884e-08 -6.97036e-21 7.72036e-07 -7.4589e-22 8.0527e-07)
(8.33942e-07 9.40585e-08 3.75135e-21 7.55402e-07 3.67079e-22 7.9469e-07)
(8.27229e-07 8.96521e-08 1.79647e-20 7.37141e-07 2.08899e-21 7.82184e-07)
(8.17921e-07 8.45664e-08 -5.795e-20 7.17073e-07 -6.47919e-21 7.67559e-07)
(8.05299e-07 7.84507e-08 4.12078e-20 6.9404e-07 4.4773e-21 7.49554e-07)
(7.89439e-07 7.19107e-08 1.65103e-20 6.69569e-07 1.91462e-21 7.29826e-07)
(7.70409e-07 6.32213e-08 3.81872e-21 6.40907e-07 3.29462e-22 7.04541e-07)
(7.5512e-07 9.10526e-08 -1.55156e-20 7.09344e-07 -1.92917e-21 7.3222e-07)
(7.52394e-07 8.8388e-08 1.23448e-21 6.95612e-07 1.71716e-22 7.23995e-07)
(7.48077e-07 8.51988e-08 -6.80764e-21 6.80734e-07 -7.35937e-22 7.14405e-07)
(7.41974e-07 8.14424e-08 1.57083e-20 6.64504e-07 1.70024e-21 7.03219e-07)
(7.33702e-07 7.7117e-08 1.05146e-20 6.4676e-07 1.41354e-21 6.90272e-07)
(7.22684e-07 7.19109e-08 -6.86734e-21 6.26471e-07 -7.68786e-22 6.74455e-07)
(7.08928e-07 6.63335e-08 -7.56781e-21 6.04946e-07 -9.43777e-22 6.5721e-07)
(6.92877e-07 5.89436e-08 -1.23787e-20 5.80019e-07 -1.31623e-21 6.35418e-07)
(6.8128e-07 8.25896e-08 -9.70282e-21 6.4242e-07 -1.1094e-21 6.6186e-07)
(6.78593e-07 8.03149e-08 1.11828e-21 6.30137e-07 1.73613e-22 6.54375e-07)
(6.74528e-07 7.7595e-08 2.36046e-20 6.16843e-07 2.63659e-21 6.45698e-07)
(6.68948e-07 7.43922e-08 -1.26269e-22 6.02369e-07 1.20037e-23 6.35645e-07)
(6.61523e-07 7.07054e-08 -1.80724e-20 5.86582e-07 -2.11807e-21 6.24087e-07)
(6.51685e-07 6.62574e-08 3.70553e-20 5.68499e-07 4.22408e-21 6.09981e-07)
(6.39512e-07 6.14735e-08 -7.03552e-21 5.49318e-07 -8.57675e-22 5.94646e-07)
(6.25558e-07 5.51412e-08 2.31954e-20 5.27213e-07 2.6728e-21 5.75451e-07)
(6.22697e-07 7.57551e-08 -1.87176e-20 5.88735e-07 -2.14346e-21 6.05769e-07)
(6.20064e-07 7.37637e-08 2.01419e-20 5.77604e-07 2.34899e-21 5.98902e-07)
(6.16262e-07 7.13931e-08 -3.31617e-20 5.65614e-07 -3.9658e-21 5.91019e-07)
(6.11153e-07 6.86131e-08 8.53638e-21 5.52614e-07 9.96249e-22 5.81955e-07)
(6.04407e-07 6.54128e-08 1.07688e-20 5.38426e-07 1.26594e-21 5.71544e-07)
(5.95469e-07 6.15376e-08 9.48367e-21 5.22099e-07 8.2566e-22 5.58793e-07)
(5.84454e-07 5.73667e-08 -2.9873e-20 5.04769e-07 -3.16597e-21 5.44966e-07)
(5.72911e-07 5.19281e-08 1.56761e-20 4.8561e-07 1.53178e-21 5.28579e-07)
(5.74029e-07 7.13101e-08 3.82617e-21 5.52147e-07 4.73033e-22 5.62943e-07)
(5.72314e-07 6.98759e-08 1.05768e-20 5.42648e-07 1.33405e-21 5.57405e-07)
(5.69243e-07 6.80535e-08 -4.17973e-21 5.31984e-07 -4.76042e-22 5.50544e-07)
(5.65249e-07 6.59121e-08 -6.52767e-21 5.20664e-07 -6.97453e-22 5.42873e-07)
(5.60243e-07 6.34356e-08 1.75089e-20 5.08602e-07 1.97513e-21 5.34305e-07)
(5.53824e-07 6.06063e-08 -1.06873e-20 4.95545e-07 -1.22915e-21 5.24597e-07)
(5.45534e-07 5.7197e-08 -3.53739e-20 4.80637e-07 -4.04566e-21 5.12865e-07)
(5.35176e-07 5.35093e-08 4.11091e-20 4.64632e-07 4.76624e-21 4.99964e-07)
(5.25022e-07 4.87797e-08 -2.25393e-20 4.47523e-07 -2.6349e-21 4.85322e-07)
(5.29692e-07 6.59406e-08 1.07537e-21 5.10557e-07 1.12921e-22 5.20111e-07)
(5.27641e-07 6.46195e-08 -3.2023e-21 5.01494e-07 -5.21023e-22 5.14704e-07)
(5.24283e-07 6.29331e-08 2.33204e-20 4.91255e-07 2.72226e-21 5.07972e-07)
(5.20101e-07 6.09477e-08 -1.28707e-20 4.80375e-07 -1.43198e-21 5.00449e-07)
(5.15021e-07 5.86632e-08 -9.05042e-21 4.68848e-07 -1.14551e-21 4.92133e-07)
(5.08662e-07 5.60673e-08 -4.22479e-21 4.56451e-07 -4.47493e-22 4.82806e-07)
(5.00699e-07 5.29789e-08 3.00342e-20 4.425e-07 3.52142e-21 4.71768e-07)
(4.91095e-07 4.96829e-08 -1.03036e-20 4.27805e-07 -1.01799e-21 4.59946e-07)
(4.82896e-07 4.5656e-08 -2.01036e-20 4.1325e-07 -2.43772e-21 4.47778e-07)
(4.82992e-07 6.03675e-08 -2.86483e-22 4.67632e-07 -2.96977e-23 4.74805e-07)
(4.80267e-07 5.91776e-08 -2.12127e-20 4.58935e-07 -2.56391e-21 4.69215e-07)
(4.76437e-07 5.76793e-08 -1.82082e-20 4.49193e-07 -2.13707e-21 4.62458e-07)
(4.71923e-07 5.59207e-08 6.46874e-21 4.38847e-07 8.07032e-22 4.54981e-07)
(4.66653e-07 5.39073e-08 -4.96508e-21 4.27932e-07 -6.26844e-22 4.4683e-07)
(4.6026e-07 5.16213e-08 1.21883e-20 4.16215e-07 1.54063e-21 4.37788e-07)
(4.5236e-07 4.88754e-08 -2.43804e-20 4.02951e-07 -3.16418e-21 4.27081e-07)
(4.42435e-07 4.58314e-08 7.58253e-20 3.8838e-07 8.9257e-21 4.14991e-07)
(4.32798e-07 4.2013e-08 -3.77803e-20 3.7303e-07 -4.35531e-21 4.0159e-07)
(4.45966e-07 5.57234e-08 -4.28877e-22 4.31441e-07 -9.75009e-24 4.3916e-07)
(4.43482e-07 5.46207e-08 -1.97518e-20 4.23431e-07 -2.29725e-21 4.34177e-07)
(4.39927e-07 5.3222e-08 4.16312e-20 4.14388e-07 4.92274e-21 4.28017e-07)
(4.35629e-07 5.15634e-08 2.53659e-21 4.04665e-07 3.07659e-22 4.21031e-07)
(4.30497e-07 4.96611e-08 -2.38763e-20 3.94337e-07 -2.66598e-21 4.13303e-07)
(4.24318e-07 4.75231e-08 2.78173e-20 3.8333e-07 3.14141e-21 4.04779e-07)
(4.16964e-07 4.50488e-08 -5.31798e-20 3.71261e-07 -6.19871e-21 3.95089e-07)
(4.08881e-07 4.24908e-08 4.88442e-20 3.59152e-07 5.43624e-21 3.85417e-07)
(4.03987e-07 3.96822e-08 -5.76261e-20 3.49034e-07 -6.41363e-21 3.77523e-07)
(3.92434e-07 4.94941e-08 5.01736e-21 3.84683e-07 6.02826e-22 3.86868e-07)
(3.88734e-07 4.85463e-08 1.39956e-20 3.76793e-07 1.7659e-21 3.81176e-07)
(3.8435e-07 4.73907e-08 -1.99681e-20 3.68144e-07 -2.49402e-21 3.74662e-07)
(3.79574e-07 4.60479e-08 -1.21367e-20 3.59015e-07 -1.51675e-21 3.67611e-07)
(3.74273e-07 4.45248e-08 5.92948e-20 3.49449e-07 7.10945e-21 3.60079e-07)
(3.68019e-07 4.27844e-08 -3.90635e-20 3.39123e-07 -4.50932e-21 3.51742e-07)
(3.60253e-07 4.06084e-08 -3.36153e-20 3.27064e-07 -3.90266e-21 3.41583e-07)
(3.4972e-07 3.7964e-08 1.25074e-20 3.12634e-07 1.27154e-21 3.28891e-07)
(3.38262e-07 3.45881e-08 2.04859e-20 2.96601e-07 2.53716e-21 3.14125e-07)
(3.77667e-07 4.70384e-08 2.78347e-21 3.64101e-07 3.11634e-22 3.73439e-07)
(3.75051e-07 4.60016e-08 4.68383e-21 3.56897e-07 5.47374e-22 3.68928e-07)
(3.7147e-07 4.47124e-08 -1.29555e-20 3.48764e-07 -1.45046e-21 3.63308e-07)
(3.67161e-07 4.31902e-08 9.03354e-22 3.3993e-07 1.17848e-22 3.56804e-07)