/*--------------------------------*- C++ -*----------------------------------*\
| =========                 |                                                 |
| \\      /  F ield         | OpenFOAM: The Open Source CFD Toolbox           |
|  \\    /   O peration     | Version:  2506                                  |
|   \\  /    A nd           | Website:  www.openfoam.com                      |
|    \\/     M anipulation  |                                                 |
\*---------------------------------------------------------------------------*/
FoamFile
{
    version     2.0;
    format      ascii;
    arch        "LSB;label=32;scalar=64";
    class       volScalarField;
    location    "50";
    object      magR;
}
// * * * * * * * * * * * * * * * * * * * * * * * * * * * * * * * * * * * * * //

dimensions      [0 2 -2 0 0 0 0];

internalField   nonuniform List<scalar> 
1340
(
0.00561595
0.0078212
0.0111199
0.0158705
0.0225606
0.031847
0.0446259
0.0621494
0.0867269
0.122364
0.176118
0.261284
0.40023
0.639081
1.06443
1.89713
3.41082
6.91047
13.9979
31.3035
54.1731
68.0992
73.0398
74.228
74.2421
73.6029
72.4098
70.6962
0.00217831
0.0019491
0.00171865
0.00150108
0.0012959
0.00110612
0.000934239
0.000782013
0.000651102
0.000541984
0.000450336
0.000373936
0.000306573
0.00024393
0.000179912
0.000112209
6.06635e-05
3.15078e-05
0.000810733
0.00543547
0.0360626
0.184011
0.465436
0.794544
1.10483
1.3582
1.55724
1.72681
1.88403
0.00174175
0.00158369
0.00139607
0.00119525
0.000995963
0.000812806
0.000653678
0.000521288
0.000418982
0.000343581
0.000290572
0.000254505
0.000231177
0.000216994
0.000209345
0.000207473
0.0002104
0.000217853
0.000224565
0.000227867
0.000216959
0.000213159
0.00262815
0.0105635
0.0239535
0.046665
0.103233
0.205276
0.344311
0.00145179
0.00135982
0.00124817
0.00112568
0.00100195
0.000883028
0.000773605
0.00067539
0.000588929
0.000515185
0.000452854
0.000401244
0.000358976
0.000325343
0.000298188
0.000276174
0.000257109
0.000238824
0.000217851
0.000195305
0.00017682
0.000163013
0.000155092
0.00013312
0.000123739
7.30999e-06
6.31565e-05
0.0006675
0.00080506
0.00452538
0.00115175
0.0010883
0.00101173
0.000926439
0.000836143
0.000743545
0.000652116
0.000564686
0.000483419
0.000410503
0.00034706
0.000293654
0.000250115
0.000216003
0.00019001
0.000170822
0.00015678
0.000146194
0.000136419
0.0001257
0.00011511
0.000107307
0.000102769
0.000101701
9.90187e-05
0.000103982
2.06607e-05
0.000356669
4.75513e-05
0.00289101
0.000965362
0.000927935
0.000882352
0.000827801
0.000767203
0.000702842
0.000636588
0.000570936
0.000508016
0.000449346
0.000396235
0.000349552
0.000309557
0.000276012
0.000248431
0.000225915
0.00020738
0.00019147
0.000176735
0.00016119
0.000144049
0.000127366
0.0001131
0.000101652
9.23775e-05
8.4406e-05
7.61171e-05
6.53088e-05
4.71967e-05
2.90397e-05
1.65085e-06
0.000785947
0.00075854
0.000725077
0.000685668
0.000642007
0.000595201
0.000546251
0.000496545
0.000447416
0.000399936
0.000355167
0.000314051
0.000277173
0.00024484
0.000217146
0.000193846
0.000174488
0.000158322
0.000144282
0.000130747
0.000116547
0.00010245
8.98404e-05
7.93484e-05
7.08899e-05
6.45249e-05
6.05987e-05
5.92456e-05
5.79292e-05
5.28957e-05
4.68723e-05
0.000647845
0.000627377
0.000602381
0.000573295
0.000541247
0.000506823
0.000470518
0.000433281
0.000396002
0.000359439
0.000324401
0.000291734
0.000261992
0.000235558
0.000212589
0.000192948
0.000176243
0.000161795
0.000148634
0.000135459
0.000121449
0.000107289
9.41404e-05
8.24853e-05
7.21609e-05
6.29554e-05
5.47989e-05
4.75156e-05
4.10453e-05
3.54621e-05
3.13579e-05
0.00055261
0.000539701
0.00052407
0.000505176
0.000483466
0.000459594
0.000433967
0.000406831
0.000378707
0.000350139
0.000321591
0.000293595
0.000266779
0.000241672
0.000218645
0.000197957
0.00017966
0.000163608
0.000149377
0.000136305
0.000123488
0.000110333
9.72137e-05
8.50539e-05
7.43704e-05
6.51566e-05
5.72716e-05
5.07201e-05
4.56037e-05
4.16741e-05
3.87531e-05
3.65009e-05
0.000453556
0.000441483
0.00042703
0.000410639
0.000392697
0.000373384
0.000352916
0.000331618
0.00030976
0.000287593
0.000265498
0.000243947
0.00022336
0.000204113
0.000186444
0.000170485
0.000156172
0.000143226
0.000131146
0.000119303
0.000107234
9.51996e-05
8.38994e-05
7.37609e-05
6.47743e-05
5.67811e-05
4.96921e-05
4.35001e-05
3.80864e-05
3.35721e-05
2.96985e-05
0.000374583
0.000363454
0.000350931
0.000337323
0.000322716
0.000307148
0.000290912
0.000274147
0.000256953
0.000239531
0.000222211
0.000205306
0.00018911
0.000173879
0.000159752
0.00014674
0.000134701
0.000123315
0.000112167
0.000100947
8.983e-05
7.93239e-05
6.98122e-05
6.13406e-05
5.38184e-05
4.72011e-05
4.15843e-05
3.69076e-05
3.32633e-05
3.04146e-05
0.000311113
0.000301529
0.000291124
0.000279986
0.000268091
0.000255649
0.000242761
0.000229423
0.00021575
0.000201931
0.000188173
0.000174717
0.000161769
0.000149495
0.000137961
0.000127086
0.000116658
0.000106397
9.6133e-05
8.59692e-05
7.6288e-05
6.74079e-05
5.94045e-05
5.22153e-05
4.57922e-05
4.01791e-05
3.53203e-05
3.13553e-05
2.81001e-05
0.000260212
0.000252282
0.000243756
0.000234629
0.000225036
0.000215086
0.00020476
0.00019404
0.000183042
0.000171892
0.000160767
0.000149829
0.000139227
0.000129038
0.000119236
0.000109693
0.000100255
9.08299e-05
8.15078e-05
7.257e-05
6.42906e-05
5.67688e-05
4.99793e-05
4.38915e-05
3.85549e-05
3.39635e-05
3.02351e-05
2.71603e-05
0.000219334
0.000212848
0.00020581
0.000198405
0.000190705
0.000182684
0.000174306
0.00016559
0.000156594
0.000147453
0.000138291
0.000129228
0.000120327
0.000111602
0.000102985
9.44078e-05
8.58343e-05
7.73401e-05
6.91452e-05
6.14765e-05
5.44414e-05
4.80387e-05
4.22446e-05
3.70873e-05
3.2582e-05
2.88348e-05
2.56442e-05
0.000186274
0.000180946
0.000175189
0.000169204
0.000162961
0.000156408
0.000149521
0.000142306
0.000134833
0.000127204
0.000119505
0.000111801
0.000104108
9.63945e-05
8.86278e-05
8.08413e-05
7.31103e-05
6.56072e-05
5.85158e-05
5.19509e-05
4.59291e-05
4.04423e-05
3.55197e-05
3.12001e-05
2.75738e-05
2.44499e-05
0.000163402
0.000159315
0.000154901
0.000150244
0.000145364
0.000140232
0.00013479
0.000129021
0.000122949
0.000116644
0.000110162
0.000103548
9.68195e-05
8.99656e-05
8.29991e-05
7.59798e-05
6.89853e-05
6.21489e-05
5.56283e-05
4.95335e-05
4.3895e-05
3.87154e-05
3.40253e-05
2.98599e-05
2.62963e-05
2.3161e-05
0.000140478
0.00013714
0.000133479
0.00012966
0.000125635
0.000121351
0.000116753
0.000111853
0.000106672
0.000101252
9.56116e-05
8.97673e-05
8.37215e-05
7.75155e-05
7.1225e-05
6.49242e-05
5.87239e-05
5.27572e-05
4.71225e-05
4.18642e-05
3.6992e-05
3.25414e-05
2.85472e-05
2.50711e-05
2.19544e-05
0.00012405
0.000121488
0.000118665
0.000115658
0.000112491
0.000109117
0.000105472
0.000101534
9.72998e-05
9.27836e-05
8.80032e-05
8.29713e-05
7.76895e-05
7.21982e-05
6.65867e-05
6.09416e-05
5.53487e-05
4.99147e-05
4.47318e-05
3.98476e-05
3.52831e-05
3.1072e-05
2.72488e-05
2.38567e-05
2.07527e-05
0.000107691
0.000105549
0.000103158
0.000100668
9.80205e-05
9.51433e-05
9.19858e-05
8.85344e-05
8.47912e-05
8.07619e-05
7.64508e-05
7.18628e-05
6.70413e-05
6.2076e-05
5.70414e-05
5.20151e-05
4.70831e-05
4.23326e-05
3.78103e-05
3.35469e-05
2.95732e-05
2.59247e-05
2.26265e-05
1.95532e-05
9.55269e-05
9.38753e-05
9.20271e-05
9.00745e-05
8.79872e-05
8.57085e-05
8.31824e-05
8.03757e-05
7.72853e-05
7.39119e-05
7.02501e-05
6.62943e-05
6.20876e-05
5.7713e-05
5.32399e-05
4.8737e-05
4.42788e-05
3.99395e-05
3.57684e-05
3.17978e-05
2.80583e-05
2.4582e-05
2.13823e-05
1.83478e-05
8.47863e-05
8.35151e-05
8.21107e-05
8.05725e-05
7.89112e-05
7.71004e-05
7.50875e-05
7.28209e-05
7.0286e-05
6.74758e-05
6.4388e-05
6.10045e-05
5.73561e-05
5.35154e-05
4.95576e-05
4.55414e-05
4.15298e-05
3.75833e-05
3.37517e-05
3.00664e-05
2.65568e-05
2.32507e-05
2.01551e-05
1.71668e-05
7.43146e-05
7.32737e-05
7.20311e-05
7.07114e-05
6.9279e-05
6.76767e-05
6.58527e-05
6.37859e-05
6.14669e-05
5.88776e-05
5.59967e-05
5.28461e-05
4.94968e-05
4.60134e-05
4.24481e-05
3.88543e-05
3.52826e-05
3.17777e-05
2.83709e-05
2.50871e-05
2.19492e-05
1.89635e-05
1.60285e-05
6.61508e-05
6.53288e-05
6.43851e-05
6.33327e-05
6.21854e-05
6.09074e-05
5.94499e-05
5.77795e-05
5.58763e-05
5.37144e-05
5.12709e-05
4.85649e-05
4.56588e-05
4.26097e-05
3.94586e-05
3.62535e-05
3.30352e-05
2.98424e-05
2.67049e-05
2.36423e-05
2.06728e-05
1.78054e-05
1.49342e-05
5.82469e-05
5.7542e-05
5.66713e-05
5.57522e-05
5.47467e-05
5.35965e-05
5.2254e-05
5.06913e-05
4.88882e-05
4.68244e-05
4.45138e-05
4.20063e-05
3.93481e-05
3.65764e-05
3.37272e-05
3.08363e-05
2.79374e-05
2.50562e-05
2.22097e-05
1.94121e-05
1.6667e-05
1.38716e-05
5.19302e-05
5.13689e-05
5.06831e-05
4.99603e-05
4.91691e-05
4.82557e-05
4.71684e-05
4.58857e-05
4.43912e-05
4.26641e-05
4.07055e-05
3.85547e-05
3.62452e-05
3.38136e-05
3.12881e-05
2.87003e-05
2.60782e-05
2.34437e-05
2.08103e-05
1.81888e-05
1.55725e-05
1.28628e-05
4.62858e-05
4.58436e-05
4.53328e-05
4.47513e-05
4.41042e-05
4.33691e-05
4.24988e-05
4.14631e-05
4.02388e-05
3.88e-05
3.71435e-05
3.53011e-05
3.3303e-05
3.11771e-05
2.89501e-05
2.66459e-05
2.42871e-05
2.18923e-05
1.94701e-05
1.70259e-05
1.45469e-05
1.19374e-05
4.09083e-05
4.05395e-05
4.00332e-05
3.95004e-05
3.89197e-05
3.82416e-05
3.74188e-05
3.64209e-05
3.52204e-05
3.38197e-05
3.22452e-05
3.05232e-05
2.86746e-05
2.67201e-05
2.46782e-05
2.25675e-05
2.04012e-05
1.81853e-05
1.59197e-05
1.35873e-05
1.10968e-05
3.64996e-05
3.61898e-05
3.57804e-05
3.53578e-05
3.49051e-05
3.43774e-05
3.37209e-05
3.29044e-05
3.19021e-05
3.07188e-05
2.93791e-05
2.7902e-05
2.63017e-05
2.45935e-05
2.27908e-05
2.09087e-05
1.8956e-05
1.69371e-05
1.48465e-05
1.26655e-05
1.03117e-05
3.25382e-05
3.22763e-05
3.19828e-05
3.1647e-05
3.12807e-05
3.08592e-05
3.03373e-05
2.96722e-05
2.88373e-05
2.78402e-05
2.67038e-05
2.54431e-05
2.40634e-05
2.25764e-05
2.0991e-05
1.93183e-05
1.75651e-05
1.57333e-05
1.38137e-05
1.17896e-05
9.58768e-06
2.87851e-05
2.85817e-05
2.82904e-05
2.799e-05
2.76607e-05
2.72546e-05
2.67154e-05
2.60207e-05
2.51834e-05
2.42247e-05
2.31522e-05
2.19677e-05
2.06776e-05
1.92886e-05
1.78087e-05
1.62422e-05
1.45893e-05
1.28372e-05
1.09735e-05
8.93697e-06
2.56719e-05
2.54751e-05
2.5267e-05
2.5036e-05
2.47771e-05
2.44535e-05
2.40171e-05
2.34452e-05
2.27476e-05
2.19425e-05
2.10319e-05
2.00172e-05
1.89017e-05
1.76904e-05
1.63887e-05
1.49986e-05
1.35189e-05
1.19333e-05
1.02361e-05
8.37767e-06
2.27121e-05
2.2575e-05
2.23694e-05
2.2153e-05
2.19006e-05
2.15638e-05
2.11051e-05
2.05271e-05
1.98479e-05
1.90736e-05
1.82053e-05
1.72452e-05
1.61954e-05
1.50585e-05
1.38335e-05
1.25179e-05
1.10954e-05
9.56719e-06
7.89594e-06
2.02548e-05
2.01258e-05
1.99539e-05
1.97885e-05
1.96038e-05
1.93478e-05
1.89773e-05
1.84947e-05
1.79207e-05
1.72644e-05
1.65263e-05
1.5706e-05
1.4802e-05
1.38139e-05
1.27403e-05
1.15783e-05
1.03134e-05
8.95339e-06
7.47037e-06
1.80409e-05
1.79209e-05
1.78083e-05
1.76833e-05
1.75342e-05
1.7329e-05
1.70309e-05
1.66338e-05
1.61559e-05
1.56057e-05
1.49825e-05
1.42843e-05
1.35087e-05
1.26538e-05
1.17187e-05
1.06998e-05
9.58682e-06
8.39057e-06
7.08989e-06
1.59635e-05
1.58983e-05
1.57782e-05
1.56471e-05
1.54903e-05
1.52636e-05
1.4947e-05
1.45531e-05
1.40908e-05
1.35636e-05
1.29708e-05
1.23096e-05
1.1577e-05
1.07702e-05
9.88679e-06
8.92032e-06
7.88148e-06
6.75857e-06
1.42248e-05
1.41549e-05
1.40515e-05
1.39527e-05
1.38405e-05
1.36719e-05
1.34203e-05
1.30916e-05
1.27006e-05
1.22553e-05
1.1756e-05
1.11978e-05
1.0575e-05
9.8848e-06
9.12565e-06
8.29438e-06
7.40186e-06
6.4446e-06
1.2653e-05
1.25815e-05
1.25186e-05
1.24464e-05
1.23592e-05
1.2228e-05
1.2026e-05
1.1755e-05
1.14287e-05
1.1057e-05
1.06402e-05
1.01717e-05
9.64532e-06
9.0593e-06
8.41264e-06
7.70521e-06
6.94669e-06
6.14085e-06
1.11881e-05
1.11575e-05
1.10883e-05
1.10089e-05
1.09102e-05
1.07592e-05
1.05436e-05
1.02755e-05
9.96634e-06
9.61834e-06
9.22618e-06
8.78506e-06
8.29279e-06
7.74908e-06
7.15609e-06
6.52e-06
5.85978e-06
9.95514e-06
9.91618e-06
9.85152e-06
9.79538e-06
9.73173e-06
9.62027e-06
9.4477e-06
9.22615e-06
8.96792e-06
8.67736e-06
8.35175e-06
7.98704e-06
7.57958e-06
7.12971e-06
6.6401e-06
6.11467e-06
8.83794e-06
8.79185e-06
8.75988e-06
8.72637e-06
8.67503e-06
8.58535e-06
8.44882e-06
8.26905e-06
8.05548e-06
7.81518e-06
7.54797e-06
7.24995e-06
6.91669e-06
6.54814e-06
6.14771e-06
5.72009e-06
7.80353e-06
7.79658e-06
7.7617e-06
7.71149e-06
7.64425e-06
7.54437e-06
7.40385e-06
7.23001e-06
7.03233e-06
6.81399e-06
6.5726e-06
6.30326e-06
6.00589e-06
5.68369e-06
5.34063e-06
6.93334e-06
6.91704e-06
6.88265e-06
6.84793e-06
6.80354e-06
6.73185e-06
6.6233e-06
6.48088e-06
6.31744e-06
6.14005e-06
5.94699e-06
5.73323e-06
5.49772e-06
5.24329e-06
4.97427e-06
6.14157e-06
6.11835e-06
6.10563e-06
6.08478e-06
6.05062e-06
5.99663e-06
5.91175e-06
5.79702e-06
5.66497e-06
5.52319e-06
5.37097e-06
5.20379e-06
5.01969e-06
4.8218e-06
4.61432e-06
5.41504e-06
5.41674e-06
5.3995e-06
5.36865e-06
5.32704e-06
5.2662e-06
5.17977e-06
5.0756e-06
4.96265e-06
4.84275e-06
4.71259e-06
4.57075e-06
4.41884e-06
4.26142e-06
4.79477e-06
4.79358e-06
4.77912e-06
4.75647e-06
4.72918e-06
4.6876e-06
4.62268e-06
4.53941e-06
4.44755e-06
4.35247e-06
4.25271e-06
4.14616e-06
4.033e-06
3.91794e-06
4.23807e-06
4.23161e-06
4.22953e-06
4.21622e-06
4.19309e-06
4.16095e-06
4.11184e-06
4.04533e-06
3.9715e-06
3.89786e-06
3.82308e-06
3.7447e-06
3.66248e-06
3.57979e-06
3.73632e-06
3.74435e-06
3.72968e-06
3.70335e-06
3.6789e-06
3.646e-06
3.5972e-06
3.54056e-06
3.48383e-06
3.42784e-06
3.37016e-06
3.31064e-06
3.25166e-06
3.30237e-06
3.30566e-06
3.28785e-06
3.26475e-06
3.25046e-06
3.23107e-06
3.19578e-06
3.152e-06
3.10839e-06
3.06535e-06
3.02287e-06
2.98044e-06
2.93951e-06
2.90805e-06
2.91126e-06
2.89826e-06
2.88192e-06
2.87179e-06
2.85738e-06
2.83199e-06
2.79895e-06
2.76364e-06
2.72995e-06
2.69969e-06
2.67105e-06
2.64453e-06
2.5552e-06
2.55627e-06
2.55452e-06
2.54272e-06
2.52991e-06
2.51865e-06
2.50132e-06
2.47511e-06
2.44635e-06
2.42067e-06
2.39976e-06
2.3812e-06
2.36468e-06
2.2457e-06
2.25108e-06
2.23743e-06
2.22049e-06
2.21121e-06
2.20041e-06
2.18171e-06
2.15956e-06
2.13975e-06
2.12482e-06
2.11201e-06
2.10184e-06
1.97594e-06
1.97677e-06
1.96052e-06
1.94408e-06
1.93814e-06
1.93288e-06
1.92006e-06
1.90261e-06
1.88627e-06
1.87412e-06
1.8652e-06
1.85902e-06
1.73012e-06
1.73112e-06
1.71698e-06
1.70267e-06
1.69716e-06
1.69336e-06
1.68381e-06
1.6691e-06
1.65495e-06
1.64322e-06
1.63601e-06
1.51118e-06
1.50948e-06
1.50128e-06
1.48933e-06
1.48098e-06
1.47552e-06
1.46761e-06
1.45501e-06
1.44197e-06
1.43163e-06
1.426e-06
1.31394e-06
1.3096e-06
1.29641e-06
1.28271e-06
1.2756e-06
1.27032e-06
1.26082e-06
1.24913e-06
1.23908e-06
1.23312e-06
1.14294e-06
1.13659e-06
1.11988e-06
1.10427e-06
1.0983e-06
1.09549e-06
1.0876e-06
1.07718e-06
1.06779e-06
1.06182e-06
9.88994e-07
9.81539e-07
9.64688e-07
9.49541e-07
9.43487e-07
9.40637e-07
9.34808e-07
9.2592e-07
9.16045e-07
9.08721e-07
8.52411e-07
8.45089e-07
8.30297e-07
8.1596e-07
8.08627e-07
8.05928e-07
8.00639e-07
7.92239e-07
7.82826e-07
7.7524e-07
7.33274e-07
7.24128e-07
7.1299e-07
7.0031e-07
6.90965e-07
6.85716e-07
6.81264e-07
6.74653e-07
6.65131e-07
6.56163e-07
6.19237e-07
6.10844e-07
5.97109e-07
5.82931e-07
5.76789e-07
5.74229e-07
5.69542e-07
5.61169e-07
5.52482e-07
5.29148e-07
5.18558e-07
5.01892e-07
4.8717e-07
4.81757e-07
4.8121e-07
4.79008e-07
4.71966e-07
4.63576e-07
4.48371e-07
4.35879e-07
4.18896e-07
4.03998e-07
3.98938e-07
3.99779e-07
3.98047e-07
3.92371e-07
3.76647e-07
3.63691e-07
3.46535e-07
3.32158e-07
3.26893e-07
3.27836e-07
3.28083e-07
3.25358e-07
3.13695e-07
2.99688e-07
2.84278e-07
2.71267e-07
2.65811e-07
2.66762e-07
2.68377e-07
2.67987e-07
2.56682e-07
2.42665e-07
2.29978e-07
2.18547e-07
2.11169e-07
2.10194e-07
2.13526e-07
2.17731e-07
1.93521e-07
1.82749e-07
1.70158e-07
1.59706e-07
1.57122e-07
1.61748e-07
1.69803e-07
1.58048e-07
1.4672e-07
1.33688e-07
1.22097e-07
1.16974e-07
1.19533e-07
1.28013e-07
1.3233e-07
1.21843e-07
1.10185e-07
9.95709e-08
9.25546e-08
9.00945e-08
9.35325e-08
1.10067e-07
1.00292e-07
9.05225e-08
8.23976e-08
7.67211e-08
7.35153e-08
7.42293e-08
8.83627e-08
7.95302e-08
7.08566e-08
6.43744e-08
6.05214e-08
5.82958e-08
5.87518e-08
6.92846e-08
6.1035e-08
5.23166e-08
4.51973e-08
4.09516e-08
3.8976e-08
3.99992e-08
5.45015e-08
4.87161e-08
4.09255e-08
3.21912e-08
2.4618e-08
2.04559e-08
4.18598e-08
4.03799e-08
3.67611e-08
2.98685e-08
2.03429e-08
1.1753e-08
2.83935e-08
2.86815e-08
2.94341e-08
2.84039e-08
2.49761e-08
2.23096e-08
3.50647e-08
3.93741e-08
4.48591e-08
5.07555e-08
5.68917e-08
6.48581e-08
6.74567e-08
7.15002e-08
7.60645e-08
7.93662e-08
1.81652e-07
1.93296e-07
2.039e-07
2.13083e-07
2.20473e-07
1.6416e-07
1.73276e-07
1.84054e-07
1.95318e-07
2.05346e-07
5.38911e-07
5.44921e-07
5.4966e-07
5.53482e-07
5.56614e-07
1.01954e-06
1.02717e-06
1.03101e-06
1.03174e-06
1.03054e-06
)
;

boundaryField
{
    inlet
    {
        type            calculated;
        value           nonuniform List<scalar> 5(3.30781e-06 3.37462e-06 3.43225e-06 3.48149e-06 3.52329e-06);
    }
    outlet
    {
        type            calculated;
        value           nonuniform List<scalar> 0();
    }
    walls
    {
        type            calculated;
        value           nonuniform List<scalar> 
28
(
0.131534
0.229587
0.340604
0.451101
0.553564
0.64482
0.723813
0.791897
0.851501
0.904706
0.9534
0.999588
1.0445
1.08923
1.13417
1.17879
1.21948
1.24976
1.26862
1.27983
1.28667
1.29057
1.2917
1.28767
1.27699
1.25884
1.23347
1.20026
)
;
    }
    frontAndBack
    {
        type            empty;
    }
    procBoundary1to0
    {
        type            processor;
        value           nonuniform List<scalar> 
94
(
0.00046361
0.00046361
0.000384026
0.000384026
0.000319776
0.000319776
0.000267657
0.000267657
0.000225455
0.000225455
0.000191262
0.000191262
0.000167266
0.000143612
0.000143612
0.000126457
0.000109657
0.000109657
9.70422e-05
8.59533e-05
7.52804e-05
7.52804e-05
6.68783e-05
5.88742e-05
5.88742e-05
5.24055e-05
4.6649e-05
4.12403e-05
4.12403e-05
3.67427e-05
3.27249e-05
2.89836e-05
2.89836e-05
2.58156e-05
2.28652e-05
2.28652e-05
2.03625e-05
1.81256e-05
1.60527e-05
1.60527e-05
1.428e-05
1.26973e-05
1.12411e-05
1.12411e-05
9.98335e-06
8.86061e-06
7.8343e-06
7.8343e-06
6.94353e-06
6.14994e-06
5.43016e-06
5.43016e-06
4.79828e-06
4.23642e-06
3.73929e-06
3.73929e-06
3.29568e-06
2.90021e-06
2.54701e-06
2.24071e-06
2.24071e-06
1.9642e-06
1.71817e-06
1.50027e-06
1.31405e-06
1.31405e-06
1.13984e-06
9.86568e-07
8.50685e-07
7.33227e-07
6.28014e-07
6.28014e-07
5.36885e-07
4.57729e-07
3.86864e-07
3.24517e-07
2.68344e-07
2.05849e-07
2.05849e-07
1.68468e-07
1.41985e-07
1.18747e-07
9.56819e-08
7.4397e-08
5.63482e-08
4.0621e-08
2.70204e-08
3.19187e-08
3.19187e-08
6.29794e-08
1.69339e-07
1.55495e-07
5.31533e-07
1.00773e-06
)
;
    }
    procBoundary1to2
    {
        type            processor;
        value           nonuniform List<scalar> 
84
(
68.5929
2.05462
0.502883
0.0204192
0.00036115
2.46092e-05
8.18494e-06
2.3386e-05
3.5791e-05
2.82821e-05
2.97736e-05
2.69271e-05
2.5914e-05
2.41033e-05
2.27821e-05
2.12944e-05
1.99198e-05
1.85491e-05
1.7208e-05
1.58813e-05
1.45971e-05
1.33705e-05
1.22085e-05
1.11054e-05
1.00783e-05
9.16529e-06
8.37467e-06
7.68453e-06
7.09263e-06
6.61294e-06
6.25509e-06
6.00027e-06
5.81224e-06
5.66884e-06
5.56414e-06
5.4585e-06
5.34004e-06
5.21841e-06
5.58108e-06
5.58108e-06
5.28659e-06
5.00187e-06
4.71601e-06
4.41953e-06
4.11629e-06
3.81357e-06
3.50703e-06
3.20118e-06
2.90562e-06
2.62392e-06
2.35333e-06
2.09546e-06
1.85432e-06
1.63395e-06
1.63395e-06
1.42565e-06
1.23333e-06
1.06093e-06
9.07001e-07
7.71977e-07
6.51752e-07
5.46868e-07
4.56574e-07
3.87038e-07
3.87038e-07
3.22264e-07
2.68052e-07
2.22661e-07
1.80055e-07
1.4089e-07
1.04031e-07
8.17202e-08
6.44897e-08
4.39641e-08
2.1858e-08
2.1858e-08
1.1831e-08
2.47969e-08
6.46274e-08
8.22268e-08
2.26466e-07
2.13346e-07
5.59405e-07
1.02787e-06
)
;
    }
    procBoundary1to5
    {
        type            processor;
        value           nonuniform List<scalar> 
13
(
0.00428224
0.00428224
0.00237555
0.00186921
0.00186921
0.00152746
0.00120462
0.00120462
0.000997114
0.000808906
0.000664832
0.000664832
0.000565132
)
;
    }
}


// ************************************************************************* //
