/*--------------------------------*- C++ -*----------------------------------*\
| =========                 |                                                 |
| \\      /  F ield         | OpenFOAM: The Open Source CFD Toolbox           |
|  \\    /   O peration     | Version:  2506                                  |
|   \\  /    A nd           | Website:  www.openfoam.com                      |
|    \\/     M anipulation  |                                                 |
\*---------------------------------------------------------------------------*/
FoamFile
{
    version     2.0;
    format      ascii;
    arch        "LSB;label=32;scalar=64";
    class       volScalarField;
    location    "50";
    object      turbulenceProperties:L;
}
// * * * * * * * * * * * * * * * * * * * * * * * * * * * * * * * * * * * * * //

dimensions      [0 1 0 0 0 0 0];

internalField   nonuniform List<scalar> 
1340
(
0.00319063
0.00279039
0.00246751
0.00224332
0.00212016
0.0020914
0.00215148
0.00229512
0.00252324
0.00284534
0.00328083
0.00386809
0.00465248
0.00572786
0.00721326
0.00941029
0.0123605
0.0173045
0.0243391
0.0361096
0.0472761
0.0528827
0.0547642
0.0553383
0.0556134
0.0557916
0.0559049
0.0559874
0.00498441
0.00526709
0.00560645
0.00599632
0.00645122
0.00698099
0.00759538
0.00830284
0.00910348
0.00998751
0.0109779
0.012091
0.0134522
0.0153114
0.0184423
0.0252652
0.039144
0.063572
0.00919083
0.0139209
0.0335431
0.0745904
0.122864
0.168018
0.201192
0.218306
0.222927
0.22125
0.217518
0.00557709
0.00584909
0.00623013
0.00673367
0.00737721
0.0081669
0.00910765
0.0101996
0.0113776
0.0125648
0.0136636
0.0146008
0.015322
0.0158186
0.016111
0.0161923
0.0160904
0.0158277
0.0155936
0.0154592
0.0157761
0.0159151
0.0221626
0.0572979
0.121312
0.194108
0.229123
0.242438
0.249773
0.00610795
0.00631112
0.00658728
0.00693634
0.00735206
0.00783144
0.0083669
0.00895454
0.00958927
0.0102525
0.0109353
0.0116172
0.0122819
0.012901
0.0134755
0.0140022
0.0145119
0.0150572
0.0157652
0.01665
0.0174985
0.0182215
0.0186951
0.0201323
0.0209451
0.13148
0.0292823
0.0636921
0.223237
0.24996
0.00685748
0.00705457
0.00731664
0.00764605
0.00804833
0.0085348
0.0091135
0.00979366
0.010585
0.0114867
0.0124927
0.0135814
0.0147161
0.0158357
0.0168842
0.0178072
0.0185877
0.019249
0.0199269
0.0207591
0.021693
0.0224686
0.0229576
0.0230878
0.0233878
0.0229497
0.0607802
0.022144
0.0339747
0.0734876
0.00749011
0.00763973
0.00783459
0.00808862
0.008402
0.00877827
0.00922379
0.00973969
0.0103253
0.0109787
0.0116914
0.0124477
0.0132274
0.0140082
0.0147654
0.0154838
0.0161611
0.0168192
0.0175064
0.0183313
0.0193914
0.0206222
0.0218838
0.0230825
0.0242123
0.025328
0.026672
0.0287814
0.0337807
0.0434286
0.306056
0.00830102
0.00844971
0.00864252
0.00888743
0.00918468
0.00953899
0.00995724
0.0104438
0.0110023
0.011637
0.0123488
0.0131323
0.0139787
0.0148732
0.0157933
0.0167157
0.0176187
0.0184966
0.0193759
0.0203544
0.0215591
0.0229951
0.0245564
0.0261302
0.0276457
0.0289776
0.0299007
0.0302502
0.0305812
0.0319303
0.0339092
0.00914298
0.00929098
0.00948183
0.00971941
0.010003
0.0103372
0.0107286
0.0111802
0.0116946
0.012275
0.012921
0.0136253
0.0143779
0.0151633
0.0159614
0.0167543
0.0175304
0.0182965
0.0190896
0.0199966
0.0211187
0.0224694
0.0239876
0.0256267
0.027399
0.0293343
0.031442
0.0337663
0.0363322
0.0390865
0.0416018
0.00989934
0.0100171
0.0101654
0.0103538
0.0105838
0.0108552
0.0111712
0.0115377
0.0119585
0.0124369
0.0129772
0.0135819
0.0142482
0.0149701
0.0157387
0.0165407
0.0173626
0.0181946
0.0190417
0.019934
0.0209431
0.0221568
0.0236049
0.0252363
0.0269887
0.0288345
0.0307562
0.0326832
0.0344688
0.0360585
0.0373949
0.0385399
0.0109269
0.0110754
0.0112613
0.0114839
0.0117434
0.0120433
0.0123877
0.0127793
0.0132226
0.0137227
0.0142824
0.0149
0.0155716
0.0162893
0.0170437
0.0178237
0.0186225
0.0194461
0.020322
0.0213069
0.0224742
0.0238527
0.0254087
0.0270991
0.0289183
0.0308874
0.0330179
0.0352906
0.0377166
0.0401742
0.042714
0.0120237
0.0122065
0.0124224
0.0126705
0.0129542
0.0132785
0.013644
0.0140551
0.0145178
0.0150365
0.0156116
0.0162417
0.016923
0.0176487
0.0184126
0.0192116
0.0200518
0.0209572
0.0219741
0.0231632
0.0245549
0.0261308
0.0278544
0.0297162
0.0317256
0.0338774
0.0360938
0.0383136
0.0403594
0.0422083
0.0131933
0.0134013
0.0136388
0.0139075
0.0142127
0.0145545
0.014936
0.015364
0.0158435
0.0163767
0.0169649
0.0176061
0.0182972
0.0190336
0.0198134
0.0206437
0.0215467
0.0225619
0.0237359
0.0250999
0.0266452
0.0283463
0.0301959
0.0322081
0.0343935
0.0367183
0.0391635
0.0415674
0.0439107
0.014426
0.014651
0.0149051
0.0151923
0.0155128
0.0158677
0.0162629
0.0167062
0.0172008
0.01775
0.018354
0.0190122
0.0197229
0.0204869
0.0213124
0.0222201
0.0232426
0.0244188
0.0257775
0.0273189
0.029025
0.0308884
0.0329201
0.0351296
0.0374828
0.039937
0.0423291
0.0446624
0.0157128
0.0159506
0.0162211
0.016521
0.0168513
0.0172174
0.0176264
0.0180845
0.0185967
0.0191646
0.0197893
0.0204716
0.0212153
0.0220291
0.0229322
0.0239514
0.0251192
0.0264627
0.0279871
0.0296815
0.0315413
0.0335779
0.0358071
0.0382163
0.0407738
0.0433434
0.045962
0.0170503
0.0172996
0.0175816
0.0178899
0.0182294
0.0186075
0.0190313
0.0195079
0.0200413
0.0206336
0.021288
0.0220093
0.022808
0.0237032
0.02472
0.0258832
0.0272173
0.0287316
0.0304229
0.0322881
0.0343399
0.0365957
0.0390498
0.0416661
0.0443222
0.0470697
0.0182044
0.0184365
0.0186974
0.018985
0.0193012
0.0196513
0.0200441
0.0204875
0.0209874
0.0215473
0.0221722
0.0228694
0.0236509
0.0245354
0.0255444
0.0266983
0.0280191
0.02952
0.0312023
0.0330664
0.0351262
0.0374024
0.0398975
0.04259
0.045385
0.0483605
0.0196336
0.0198712
0.020142
0.0204365
0.0207615
0.0211248
0.0215368
0.0220037
0.0225317
0.0231271
0.0237996
0.0245622
0.0254337
0.0264323
0.0275749
0.028882
0.0303685
0.0320399
0.0339015
0.0359678
0.0382634
0.0407965
0.0435577
0.04648
0.0496707
0.0208933
0.0211124
0.0213622
0.0216382
0.0219407
0.0222774
0.0226592
0.0230946
0.0235918
0.0241593
0.0248069
0.0255482
0.0264025
0.0273882
0.028519
0.0298107
0.0312806
0.0329393
0.0347954
0.0368664
0.0391788
0.0417496
0.0445828
0.0476477
0.0510877
0.0224241
0.0226506
0.0229116
0.0231934
0.0235046
0.0238574
0.0242635
0.024732
0.0252721
0.025895
0.0266152
0.0274518
0.0284219
0.0295368
0.0308128
0.0322673
0.0339152
0.0357676
0.0378463
0.0401795
0.0427941
0.0457067
0.0489252
0.0526306
0.023809
0.0240176
0.0242576
0.0245192
0.0248084
0.0251361
0.025515
0.0259568
0.0264708
0.0270683
0.0277649
0.0285813
0.0295338
0.0306328
0.0318938
0.0333346
0.0349726
0.0368234
0.0389114
0.0412695
0.0439338
0.0469379
0.050328
0.0543312
0.0252721
0.0254637
0.0256806
0.0259247
0.0261962
0.0265022
0.0268551
0.02727
0.0277574
0.0283297
0.0290011
0.0297946
0.0307277
0.0318114
0.0330573
0.0344842
0.0361114
0.03796
0.0400568
0.0424409
0.0451585
0.0482628
0.0518371
0.0561685
0.026994
0.0271851
0.0274186
0.0276734
0.0279581
0.0282872
0.0286764
0.0291373
0.029682
0.0303278
0.0310982
0.032012
0.0330774
0.0343067
0.0357184
0.0373338
0.039178
0.041282
0.0436904
0.0464622
0.0496727
0.0534405
0.0581283
0.0286112
0.0287907
0.029001
0.029241
0.0295096
0.0298177
0.0301811
0.0306143
0.0311314
0.0317518
0.0324998
0.033393
0.0344394
0.0356504
0.0370466
0.0386496
0.0404885
0.0425994
0.0450324
0.0478606
0.0511829
0.0551507
0.0602197
0.0304908
0.030677
0.0309118
0.0311656
0.0314506
0.0317864
0.0321922
0.0326847
0.0332821
0.0340077
0.0348793
0.0359053
0.0370984
0.0384784
0.0400708
0.0419071
0.0440277
0.0464903
0.0493797
0.0528185
0.0570028
0.0624832
0.032292
0.032468
0.0326869
0.0329226
0.0331865
0.0334992
0.0338832
0.0343536
0.0349271
0.0356272
0.0364743
0.037478
0.0386536
0.0400194
0.0416033
0.0434384
0.0455699
0.0480623
0.0510129
0.0545655
0.0589716
0.0648869
0.0342043
0.0343689
0.0345621
0.034786
0.0350403
0.035336
0.0356961
0.0361393
0.036685
0.037359
0.0381831
0.0391669
0.0403248
0.041677
0.0432504
0.0450817
0.0472202
0.0497359
0.0527391
0.0563979
0.0610147
0.0673548
0.0363831
0.0365483
0.0367787
0.037026
0.0373012
0.0376306
0.0380421
0.0385598
0.0392115
0.0400154
0.0409807
0.042121
0.0434575
0.0450188
0.0468443
0.0489859
0.0515212
0.05457
0.0583242
0.0631323
0.0698589
0.0385179
0.0386824
0.0389031
0.0391349
0.039388
0.0396892
0.0400737
0.0405679
0.0412004
0.0419864
0.0429331
0.0440549
0.0453753
0.0469246
0.0487451
0.0508919
0.0534489
0.056545
0.0603953
0.0653891
0.0724693
0.0407952
0.0409605
0.041148
0.0413658
0.0416073
0.0418906
0.0422494
0.0427203
0.0433344
0.0441036
0.0450323
0.0461344
0.0474385
0.048976
0.0507918
0.0529451
0.0555246
0.058668
0.0626119
0.0677744
0.0751554
0.0433733
0.0435275
0.043751
0.0439852
0.0442463
0.0445748
0.0450224
0.0456194
0.0463716
0.0472803
0.048363
0.0496497
0.0511752
0.0529857
0.0551434
0.0577413
0.0609246
0.0649496
0.0702492
0.0778431
0.045928
0.0461052
0.0462946
0.0465077
0.0467502
0.0470585
0.0474842
0.0480598
0.0487911
0.0496782
0.0507422
0.0520124
0.0535251
0.0553273
0.0574824
0.0600874
0.0632906
0.0673644
0.0727353
0.0803992
0.048829
0.0489771
0.0492017
0.0494416
0.0497257
0.0501125
0.0506541
0.0513623
0.0522338
0.0532834
0.0545392
0.0560367
0.0578244
0.0599675
0.0625663
0.065772
0.0698613
0.0752346
0.0828152
0.0517062
0.0518717
0.0520947
0.052312
0.0525579
0.0529045
0.0534185
0.0541109
0.0549707
0.0560056
0.0572426
0.0587183
0.0604846
0.0626104
0.0651952
0.0683887
0.0724612
0.0777705
0.0851411
0.0547869
0.0549701
0.0551437
0.0553384
0.0555731
0.0559012
0.0563883
0.0570575
0.0578951
0.0589068
0.0601193
0.0615709
0.0633138
0.0654174
0.0679776
0.0711405
0.0751569
0.0803363
0.0873955
0.0582427
0.058362
0.0585839
0.0588288
0.0591259
0.0595633
0.0601908
0.0609999
0.0619924
0.0631855
0.0646132
0.0663257
0.0683921
0.0709074
0.0740076
0.0779138
0.08289
0.0895118
0.0616996
0.0618518
0.062079
0.0622985
0.0625506
0.0629351
0.0635222
0.0643146
0.0652971
0.0664726
0.0678695
0.0695404
0.0715587
0.0740148
0.0770319
0.0808
0.0855331
0.091666
0.0654195
0.0656054
0.0657698
0.0659604
0.0661929
0.066547
0.0671035
0.0678724
0.0688344
0.0699816
0.0713391
0.0729634
0.0749279
0.0773133
0.0802298
0.0838321
0.0882906
0.0939055
0.0695708
0.0696659
0.0698831
0.0701349
0.0704514
0.0709439
0.0716656
0.0725943
0.0737115
0.0750329
0.0766108
0.0785106
0.0808072
0.0835941
0.0869888
0.0911336
0.096131
0.0737531
0.0738979
0.07414
0.0743522
0.0745949
0.0750257
0.0757077
0.0766112
0.0777062
0.0789963
0.0805214
0.0823392
0.0845233
0.0871492
0.0903052
0.0941053
0.0782759
0.0784808
0.0786239
0.0787747
0.0790074
0.0794189
0.0800579
0.0809233
0.0819888
0.0832396
0.0847
0.0864233
0.0884807
0.0909367
0.0938516
0.0972967
0.0833025
0.0833396
0.0835266
0.083798
0.0841656
0.0847208
0.0855208
0.0865426
0.0877503
0.089145
0.0907671
0.092686
0.0949529
0.0976072
0.100694
0.0883756
0.0884796
0.0887003
0.0889247
0.0892142
0.0896878
0.0904196
0.0914074
0.0925821
0.0939097
0.0954217
0.0971842
0.099244
0.101624
0.104335
0.0938995
0.0940775
0.0941753
0.0943364
0.0946021
0.0950268
0.0957063
0.0966485
0.0977682
0.0990149
0.100408
0.102008
0.103862
0.105972
0.108328
0.1
0.0999845
0.100144
0.100431
0.100822
0.101403
0.102245
0.103289
0.104457
0.105742
0.107192
0.108843
0.110698
0.112724
0.106271
0.106285
0.106445
0.106698
0.107005
0.107479
0.10823
0.109218
0.11034
0.111539
0.112839
0.11428
0.115872
0.117561
0.113036
0.113122
0.113149
0.113328
0.11364
0.114077
0.114756
0.115696
0.116766
0.117863
0.11901
0.120249
0.121591
0.122988
0.120386
0.120256
0.120493
0.12092
0.121321
0.121867
0.12269
0.123667
0.12467
0.125684
0.126755
0.127889
0.129044
0.128051
0.127987
0.128333
0.128786
0.129069
0.129455
0.130168
0.131068
0.131984
0.132907
0.133838
0.134787
0.135723
0.136456
0.13638
0.136686
0.137073
0.137314
0.13766
0.138275
0.139088
0.139974
0.140835
0.141622
0.142379
0.143092
0.145572
0.145542
0.145591
0.145929
0.146297
0.146624
0.147131
0.147908
0.148774
0.149561
0.150211
0.150796
0.151321
0.155279
0.155093
0.155566
0.156157
0.156485
0.156868
0.157539
0.158344
0.159076
0.159633
0.160117
0.160504
0.165539
0.165504
0.166189
0.166889
0.167145
0.167372
0.16793
0.168698
0.169427
0.169975
0.170381
0.170664
0.176909
0.176857
0.177584
0.178328
0.178617
0.178817
0.179323
0.180112
0.18088
0.181525
0.181924
0.18929
0.189397
0.189913
0.190673
0.191209
0.191562
0.192078
0.192907
0.193778
0.194476
0.19486
0.203001
0.203336
0.204368
0.205455
0.206027
0.206455
0.207231
0.208198
0.209041
0.209545
0.217657
0.218264
0.219886
0.221434
0.222035
0.222319
0.223124
0.224201
0.225184
0.225816
0.233984
0.234871
0.236913
0.238795
0.239559
0.239922
0.240669
0.241821
0.243121
0.244099
0.252033
0.253122
0.255367
0.257601
0.258766
0.259199
0.260053
0.261428
0.262996
0.26428
0.271736
0.273446
0.275574
0.278058
0.279932
0.281001
0.281918
0.283296
0.285317
0.287261
0.295699
0.297723
0.301128
0.304769
0.306387
0.30707
0.308331
0.310623
0.313057
0.319881
0.32313
0.328452
0.333379
0.335247
0.335437
0.336208
0.338708
0.34176
0.347503
0.352447
0.359521
0.366091
0.368405
0.368017
0.368817
0.371476
0.37915
0.385845
0.395281
0.403745
0.406983
0.406397
0.406244
0.407942
0.415457
0.425056
0.436425
0.446769
0.451331
0.450525
0.449165
0.449492
0.459285
0.472364
0.485218
0.497745
0.506367
0.507541
0.503562
0.498674
0.528945
0.544311
0.564087
0.58225
0.587023
0.578569
0.564674
0.585281
0.607451
0.636353
0.665855
0.680295
0.672997
0.65033
0.639601
0.666545
0.700876
0.737237
0.764679
0.775097
0.760757
0.701262
0.734616
0.773171
0.810307
0.839735
0.857907
0.853851
0.782545
0.824797
0.873681
0.916452
0.945139
0.963081
0.959481
0.883572
0.941241
1.01634
1.09307
1.14812
1.17689
1.16204
0.995945
1.05315
1.14844
1.29377
1.47746
1.61904
1.13595
1.15628
1.21128
1.34255
1.6225
2.11581
1.37788
1.37078
1.35302
1.37697
1.46748
1.55198
1.24085
1.17129
1.09764
1.03216
0.975117
0.913371
0.895584
0.869837
0.843273
0.825519
0.545838
0.529144
0.51521
0.503996
0.495479
0.573418
0.558172
0.541614
0.525794
0.512831
0.316742
0.314989
0.313628
0.312546
0.31167
0.230317
0.229464
0.22904
0.228961
0.229098
)
;

boundaryField
{
    inlet
    {
        type            calculated;
        value           nonuniform List<scalar> 5(0.139186 0.137803 0.136641 0.135672 0.134865);
    }
    outlet
    {
        type            calculated;
        value           nonuniform List<scalar> 0();
    }
    walls
    {
        type            calculated;
        value           uniform 0;
    }
    frontAndBack
    {
        type            empty;
    }
    procBoundary1to0
    {
        type            processor;
        value           nonuniform List<scalar> 
94
(
0.0108077
0.0108077
0.0118749
0.0118749
0.0130132
0.0130132
0.0142239
0.0142239
0.015498
0.015498
0.0168264
0.0168264
0.0179929
0.0194182
0.0194182
0.0206934
0.0222221
0.0222221
0.0236223
0.0250999
0.0268202
0.0268202
0.0284552
0.0303279
0.0303279
0.0321452
0.0340709
0.0362364
0.0362364
0.0383902
0.0406787
0.0432246
0.0432246
0.0457999
0.0486653
0.0486653
0.0515691
0.0546586
0.0580807
0.0580807
0.06158
0.0653053
0.0694063
0.0694063
0.0736488
0.0781757
0.0831388
0.0831388
0.0883107
0.0938356
0.099861
0.099861
0.106233
0.113057
0.120338
0.120338
0.128181
0.13664
0.145806
0.155452
0.155452
0.166034
0.177523
0.189978
0.202993
0.202993
0.217953
0.234272
0.252289
0.271744
0.293625
0.293625
0.317568
0.343932
0.37411
0.40847
0.449192
0.512859
0.512859
0.56689
0.61747
0.675154
0.752053
0.852755
0.979627
1.15324
1.41226
1.30022
1.30022
0.926888
0.56534
0.589138
0.318936
0.231657
)
;
    }
    procBoundary1to2
    {
        type            processor;
        value           nonuniform List<scalar> 
84
(
0.0560684
0.213224
0.255141
0.244441
0.031093
0.0467925
0.106252
0.0480379
0.0389263
0.0437882
0.0426683
0.0448599
0.0457257
0.0474102
0.0487639
0.050437
0.052147
0.0540384
0.0561036
0.0583992
0.0609129
0.063645
0.0666047
0.0698337
0.0733055
0.0768694
0.0804156
0.0839485
0.0873808
0.0904942
0.0930464
0.0950012
0.0965253
0.0977382
0.0986532
0.0996028
0.100701
0.101868
0.0985016
0.0985016
0.101208
0.104048
0.107155
0.11069
0.114694
0.119159
0.124257
0.130058
0.136512
0.143652
0.151686
0.160748
0.170881
0.182039
0.182039
0.194883
0.209527
0.225911
0.244331
0.264838
0.288232
0.31466
0.344371
0.374028
0.374028
0.409897
0.449438
0.493121
0.548359
0.619893
0.721361
0.813834
0.915983
1.1088
1.5679
1.5679
2.11193
1.47351
0.915045
0.811063
0.488873
0.503167
0.310895
0.229399
)
;
    }
    procBoundary1to5
    {
        type            processor;
        value           nonuniform List<scalar> 
13
(
0.00359184
0.00359184
0.00477425
0.00538342
0.00538342
0.00595466
0.00670527
0.00670527
0.00736981
0.0081823
0.00902534
0.00902534
0.00978915
)
;
    }
}


// ************************************************************************* //
