/*--------------------------------*- C++ -*----------------------------------*\
| =========                 |                                                 |
| \\      /  F ield         | OpenFOAM: The Open Source CFD Toolbox           |
|  \\    /   O peration     | Version:  2506                                  |
|   \\  /    A nd           | Website:  www.openfoam.com                      |
|    \\/     M anipulation  |                                                 |
\*---------------------------------------------------------------------------*/
FoamFile
{
    version     2.0;
    format      ascii;
    arch        "LSB;label=32;scalar=64";
    class       volScalarField;
    location    "50";
    object      turbulenceProperties:nuEff;
}
// * * * * * * * * * * * * * * * * * * * * * * * * * * * * * * * * * * * * * //

dimensions      [0 2 -1 0 0 0 0];

internalField   nonuniform List<scalar> 
1340
(
2.04799e-05
2.42037e-05
3.00017e-05
3.90141e-05
5.27069e-05
7.25031e-05
9.97644e-05
0.000135807
0.000183784
0.000250194
0.000347016
0.000496766
0.000736103
0.00114035
0.00184744
0.00321033
0.00564656
0.0112421
0.0224946
0.0498948
0.0859276
0.107764
0.115574
0.117732
0.118328
0.118195
0.117472
0.116245
1.60009e-05
1.58599e-05
1.56834e-05
1.54852e-05
1.52734e-05
1.50493e-05
1.48125e-05
1.45622e-05
1.42818e-05
1.39706e-05
1.35953e-05
1.31532e-05
1.25988e-05
1.19378e-05
1.11893e-05
1.04985e-05
1.01502e-05
1.00398e-05
3.07991e-05
0.000259759
0.00159214
0.00795328
0.0207955
0.0370967
0.0523148
0.0628886
0.0687363
0.0718226
0.0737471
1.61552e-05
1.61701e-05
1.61882e-05
1.62078e-05
1.62295e-05
1.62553e-05
1.62846e-05
1.63164e-05
1.63522e-05
1.63917e-05
1.64365e-05
1.64876e-05
1.65481e-05
1.66208e-05
1.67111e-05
1.683e-05
1.6971e-05
1.71613e-05
1.7224e-05
1.69639e-05
1.58864e-05
1.58809e-05
0.000289069
0.00147954
0.00469458
0.0104173
0.0182026
0.0271332
0.0361983
1.61206e-05
1.61199e-05
1.61173e-05
1.61137e-05
1.61106e-05
1.61077e-05
1.61051e-05
1.61032e-05
1.61023e-05
1.61023e-05
1.61032e-05
1.61049e-05
1.61073e-05
1.61103e-05
1.61137e-05
1.61174e-05
1.61212e-05
1.61251e-05
1.61297e-05
1.61363e-05
1.61563e-05
1.61366e-05
1.63693e-05
1.56529e-05
1.65858e-05
1.00411e-05
1.63086e-05
0.00041826
0.00160522
0.00416207
1.61181e-05
1.61186e-05
1.61188e-05
1.61189e-05
1.61193e-05
1.612e-05
1.61205e-05
1.61214e-05
1.61232e-05
1.6126e-05
1.61296e-05
1.61341e-05
1.61394e-05
1.61456e-05
1.61526e-05
1.61604e-05
1.61691e-05
1.61789e-05
1.61902e-05
1.62043e-05
1.62195e-05
1.62456e-05
1.6243e-05
1.63725e-05
1.62551e-05
1.74443e-05
1.03662e-05
8.81968e-05
1.29767e-05
0.000986652
1.61109e-05
1.6113e-05
1.61137e-05
1.61138e-05
1.61137e-05
1.61139e-05
1.61142e-05
1.61147e-05
1.61152e-05
1.61159e-05
1.61168e-05
1.6118e-05
1.61194e-05
1.61213e-05
1.61236e-05
1.61262e-05
1.61291e-05
1.61323e-05
1.61358e-05
1.61399e-05
1.61444e-05
1.61493e-05
1.61544e-05
1.61606e-05
1.61669e-05
1.61726e-05
1.62048e-05
1.60948e-05
1.47795e-05
1.30532e-05
1.0018e-05
1.61074e-05
1.61095e-05
1.61104e-05
1.61109e-05
1.61112e-05
1.61116e-05
1.61122e-05
1.61128e-05
1.61135e-05
1.61143e-05
1.61151e-05
1.6116e-05
1.61173e-05
1.61191e-05
1.61215e-05
1.61244e-05
1.61278e-05
1.61318e-05
1.61363e-05
1.61416e-05
1.61478e-05
1.61552e-05
1.61639e-05
1.61743e-05
1.61864e-05
1.62025e-05
1.62111e-05
1.63187e-05
1.62394e-05
1.54157e-05
1.45592e-05
1.6104e-05
1.6106e-05
1.61071e-05
1.61079e-05
1.61084e-05
1.6109e-05
1.61098e-05
1.61105e-05
1.61113e-05
1.61123e-05
1.61132e-05
1.61141e-05
1.6115e-05
1.61161e-05
1.61173e-05
1.61188e-05
1.61209e-05
1.61233e-05
1.61262e-05
1.61295e-05
1.61331e-05
1.61373e-05
1.61421e-05
1.61474e-05
1.61535e-05
1.61602e-05
1.61677e-05
1.61764e-05
1.61948e-05
1.61909e-05
1.64246e-05
1.60988e-05
1.61007e-05
1.61027e-05
1.61041e-05
1.61051e-05
1.61058e-05
1.61066e-05
1.61075e-05
1.61084e-05
1.61094e-05
1.61104e-05
1.61114e-05
1.61124e-05
1.61134e-05
1.61144e-05
1.61154e-05
1.61165e-05
1.6118e-05
1.61199e-05
1.61223e-05
1.61252e-05
1.61287e-05
1.6133e-05
1.6138e-05
1.6144e-05
1.61511e-05
1.61595e-05
1.61694e-05
1.61807e-05
1.61948e-05
1.62134e-05
1.6275e-05
1.60977e-05
1.60997e-05
1.61011e-05
1.61023e-05
1.61032e-05
1.61042e-05
1.61052e-05
1.61062e-05
1.61073e-05
1.61085e-05
1.61096e-05
1.61108e-05
1.61119e-05
1.6113e-05
1.6114e-05
1.6115e-05
1.61159e-05
1.6117e-05
1.61184e-05
1.61203e-05
1.61228e-05
1.61258e-05
1.61295e-05
1.6134e-05
1.61392e-05
1.61453e-05
1.61522e-05
1.61605e-05
1.61702e-05
1.61842e-05
1.61857e-05
1.60969e-05
1.60984e-05
1.60996e-05
1.61007e-05
1.61018e-05
1.61029e-05
1.6104e-05
1.61052e-05
1.61065e-05
1.61078e-05
1.61091e-05
1.61103e-05
1.61115e-05
1.61126e-05
1.61136e-05
1.61145e-05
1.61153e-05
1.61161e-05
1.61173e-05
1.61191e-05
1.61216e-05
1.61247e-05
1.61286e-05
1.61333e-05
1.61389e-05
1.61456e-05
1.61534e-05
1.61626e-05
1.61738e-05
1.61827e-05
1.60959e-05
1.60971e-05
1.60982e-05
1.60994e-05
1.61007e-05
1.61019e-05
1.61032e-05
1.61045e-05
1.61058e-05
1.61072e-05
1.61085e-05
1.61099e-05
1.61111e-05
1.61121e-05
1.6113e-05
1.61138e-05
1.61144e-05
1.6115e-05
1.61161e-05
1.61179e-05
1.61203e-05
1.61233e-05
1.61271e-05
1.61317e-05
1.61371e-05
1.61436e-05
1.61512e-05
1.61605e-05
1.61712e-05
1.60949e-05
1.6096e-05
1.60972e-05
1.60985e-05
1.60999e-05
1.61011e-05
1.61025e-05
1.61038e-05
1.61052e-05
1.61066e-05
1.61079e-05
1.61092e-05
1.61104e-05
1.61114e-05
1.61122e-05
1.61128e-05
1.61133e-05
1.61139e-05
1.61151e-05
1.61169e-05
1.61194e-05
1.61225e-05
1.61264e-05
1.61311e-05
1.61367e-05
1.61434e-05
1.61515e-05
1.61612e-05
1.6094e-05
1.60952e-05
1.60965e-05
1.60978e-05
1.60991e-05
1.61005e-05
1.61019e-05
1.61032e-05
1.61046e-05
1.61059e-05
1.61073e-05
1.61085e-05
1.61097e-05
1.61107e-05
1.61114e-05
1.6112e-05
1.61124e-05
1.6113e-05
1.61142e-05
1.6116e-05
1.61183e-05
1.61214e-05
1.61252e-05
1.61299e-05
1.61355e-05
1.61425e-05
1.61509e-05
1.60936e-05
1.60946e-05
1.60959e-05
1.60973e-05
1.60987e-05
1.61e-05
1.61013e-05
1.61027e-05
1.6104e-05
1.61054e-05
1.61068e-05
1.61081e-05
1.61093e-05
1.61103e-05
1.6111e-05
1.61115e-05
1.61117e-05
1.61122e-05
1.61134e-05
1.61151e-05
1.61174e-05
1.61204e-05
1.61242e-05
1.61289e-05
1.61349e-05
1.61422e-05
1.60921e-05
1.60931e-05
1.60943e-05
1.60956e-05
1.6097e-05
1.60983e-05
1.60996e-05
1.61009e-05
1.61023e-05
1.61037e-05
1.61052e-05
1.61066e-05
1.61079e-05
1.61091e-05
1.611e-05
1.61105e-05
1.61108e-05
1.61108e-05
1.61114e-05
1.61125e-05
1.61143e-05
1.61167e-05
1.61197e-05
1.61236e-05
1.61287e-05
1.61349e-05
1.6092e-05
1.60929e-05
1.60941e-05
1.60955e-05
1.60968e-05
1.6098e-05
1.60993e-05
1.61007e-05
1.61021e-05
1.61036e-05
1.6105e-05
1.61064e-05
1.61075e-05
1.61085e-05
1.61091e-05
1.61094e-05
1.61094e-05
1.61096e-05
1.61104e-05
1.61118e-05
1.61138e-05
1.61163e-05
1.61197e-05
1.6124e-05
1.61293e-05
1.60911e-05
1.60919e-05
1.6093e-05
1.60942e-05
1.60954e-05
1.60966e-05
1.60978e-05
1.60991e-05
1.61005e-05
1.61019e-05
1.61033e-05
1.61046e-05
1.61057e-05
1.61067e-05
1.61074e-05
1.61078e-05
1.61078e-05
1.61079e-05
1.61085e-05
1.61096e-05
1.61113e-05
1.61135e-05
1.61164e-05
1.61202e-05
1.61247e-05
1.60912e-05
1.60921e-05
1.60932e-05
1.60942e-05
1.60954e-05
1.60965e-05
1.60978e-05
1.6099e-05
1.61004e-05
1.61016e-05
1.61028e-05
1.61039e-05
1.61049e-05
1.61057e-05
1.61062e-05
1.61064e-05
1.61065e-05
1.61069e-05
1.61077e-05
1.61091e-05
1.61109e-05
1.61134e-05
1.61166e-05
1.61206e-05
1.60909e-05
1.60915e-05
1.60923e-05
1.60933e-05
1.60944e-05
1.60955e-05
1.60966e-05
1.60978e-05
1.60989e-05
1.61001e-05
1.61013e-05
1.61024e-05
1.61034e-05
1.61043e-05
1.6105e-05
1.61054e-05
1.61055e-05
1.61056e-05
1.61062e-05
1.61072e-05
1.61086e-05
1.61107e-05
1.61133e-05
1.61167e-05
1.60907e-05
1.60911e-05
1.60918e-05
1.60927e-05
1.60937e-05
1.60947e-05
1.60957e-05
1.60967e-05
1.60977e-05
1.60988e-05
1.60999e-05
1.61011e-05
1.61021e-05
1.6103e-05
1.61038e-05
1.61043e-05
1.61045e-05
1.61046e-05
1.6105e-05
1.61057e-05
1.61068e-05
1.61085e-05
1.61107e-05
1.61135e-05
1.6091e-05
1.60915e-05
1.60923e-05
1.60932e-05
1.60941e-05
1.60949e-05
1.60958e-05
1.60967e-05
1.60978e-05
1.60988e-05
1.60999e-05
1.61009e-05
1.61018e-05
1.61025e-05
1.6103e-05
1.61033e-05
1.61034e-05
1.61036e-05
1.61042e-05
1.61052e-05
1.61066e-05
1.61086e-05
1.6111e-05
1.60911e-05
1.60915e-05
1.6092e-05
1.60927e-05
1.60936e-05
1.60943e-05
1.60951e-05
1.6096e-05
1.60969e-05
1.60979e-05
1.60988e-05
1.60997e-05
1.61004e-05
1.61011e-05
1.61015e-05
1.61018e-05
1.61019e-05
1.61022e-05
1.61027e-05
1.61036e-05
1.61049e-05
1.61066e-05
1.61089e-05
1.60914e-05
1.60918e-05
1.60925e-05
1.60932e-05
1.60939e-05
1.60946e-05
1.60954e-05
1.60962e-05
1.60969e-05
1.60977e-05
1.60985e-05
1.60992e-05
1.60998e-05
1.61003e-05
1.61007e-05
1.61008e-05
1.61011e-05
1.61015e-05
1.61023e-05
1.61034e-05
1.6105e-05
1.6107e-05
1.60916e-05
1.60919e-05
1.60924e-05
1.6093e-05
1.60937e-05
1.60943e-05
1.60949e-05
1.60955e-05
1.60962e-05
1.60969e-05
1.60976e-05
1.60983e-05
1.60989e-05
1.60994e-05
1.60998e-05
1.61e-05
1.61002e-05
1.61006e-05
1.61012e-05
1.61022e-05
1.61036e-05
1.61054e-05
1.60919e-05
1.60921e-05
1.60924e-05
1.60929e-05
1.60935e-05
1.6094e-05
1.60945e-05
1.60951e-05
1.60956e-05
1.60963e-05
1.6097e-05
1.60976e-05
1.60981e-05
1.60985e-05
1.60988e-05
1.60989e-05
1.6099e-05
1.60993e-05
1.60999e-05
1.61008e-05
1.61022e-05
1.61039e-05
1.60922e-05
1.60925e-05
1.60929e-05
1.60934e-05
1.60939e-05
1.60943e-05
1.60948e-05
1.60953e-05
1.60958e-05
1.60963e-05
1.60968e-05
1.60971e-05
1.60973e-05
1.60974e-05
1.60975e-05
1.60975e-05
1.60978e-05
1.60985e-05
1.60994e-05
1.61007e-05
1.61024e-05
1.60924e-05
1.60926e-05
1.6093e-05
1.60934e-05
1.60938e-05
1.60943e-05
1.60947e-05
1.60951e-05
1.60954e-05
1.60957e-05
1.6096e-05
1.60961e-05
1.60962e-05
1.60962e-05
1.60962e-05
1.60962e-05
1.60966e-05
1.60972e-05
1.60981e-05
1.60994e-05
1.6101e-05
1.60927e-05
1.60929e-05
1.60931e-05
1.60935e-05
1.60939e-05
1.60943e-05
1.60946e-05
1.60949e-05
1.6095e-05
1.60952e-05
1.60953e-05
1.60953e-05
1.60953e-05
1.60953e-05
1.60952e-05
1.60953e-05
1.60956e-05
1.60961e-05
1.6097e-05
1.60983e-05
1.60998e-05
1.6093e-05
1.60932e-05
1.60935e-05
1.60939e-05
1.60942e-05
1.60945e-05
1.60947e-05
1.60948e-05
1.60948e-05
1.60948e-05
1.60947e-05
1.60946e-05
1.60946e-05
1.60945e-05
1.60945e-05
1.60948e-05
1.60953e-05
1.60961e-05
1.60973e-05
1.60987e-05
1.60929e-05
1.60932e-05
1.60935e-05
1.60939e-05
1.60942e-05
1.60944e-05
1.60945e-05
1.60945e-05
1.60945e-05
1.60944e-05
1.60943e-05
1.60941e-05
1.6094e-05
1.60938e-05
1.60937e-05
1.60939e-05
1.60944e-05
1.60952e-05
1.60963e-05
1.60976e-05
1.60931e-05
1.60934e-05
1.60937e-05
1.6094e-05
1.60943e-05
1.60944e-05
1.60944e-05
1.60943e-05
1.60942e-05
1.60939e-05
1.60936e-05
1.60933e-05
1.60929e-05
1.60928e-05
1.60929e-05
1.60934e-05
1.60941e-05
1.60952e-05
1.60965e-05
1.60927e-05
1.60931e-05
1.60935e-05
1.60938e-05
1.60941e-05
1.60943e-05
1.60943e-05
1.60941e-05
1.60938e-05
1.60934e-05
1.6093e-05
1.60926e-05
1.60922e-05
1.6092e-05
1.60921e-05
1.60925e-05
1.60932e-05
1.60942e-05
1.60955e-05
1.60922e-05
1.60927e-05
1.60931e-05
1.60935e-05
1.60938e-05
1.6094e-05
1.60939e-05
1.60937e-05
1.60934e-05
1.6093e-05
1.60925e-05
1.60921e-05
1.60917e-05
1.60915e-05
1.60915e-05
1.60919e-05
1.60925e-05
1.60934e-05
1.60946e-05
1.60922e-05
1.60927e-05
1.6093e-05
1.60933e-05
1.60935e-05
1.60935e-05
1.60933e-05
1.6093e-05
1.60926e-05
1.60921e-05
1.60916e-05
1.60911e-05
1.60908e-05
1.60908e-05
1.60911e-05
1.60916e-05
1.60925e-05
1.60937e-05
1.60917e-05
1.60921e-05
1.60925e-05
1.60928e-05
1.6093e-05
1.6093e-05
1.60929e-05
1.60926e-05
1.60921e-05
1.60915e-05
1.60909e-05
1.60904e-05
1.60901e-05
1.609e-05
1.60903e-05
1.60908e-05
1.60916e-05
1.60927e-05
1.60913e-05
1.60916e-05
1.6092e-05
1.60923e-05
1.60924e-05
1.60924e-05
1.60923e-05
1.60919e-05
1.60914e-05
1.60908e-05
1.60902e-05
1.60897e-05
1.60894e-05
1.60894e-05
1.60896e-05
1.60901e-05
1.60908e-05
1.60919e-05
1.60912e-05
1.60915e-05
1.60917e-05
1.60918e-05
1.60918e-05
1.60916e-05
1.60912e-05
1.60908e-05
1.60902e-05
1.60896e-05
1.60891e-05
1.60888e-05
1.60887e-05
1.60888e-05
1.60893e-05
1.609e-05
1.6091e-05
1.6091e-05
1.60911e-05
1.60913e-05
1.60913e-05
1.60912e-05
1.6091e-05
1.60906e-05
1.60901e-05
1.60895e-05
1.60888e-05
1.60883e-05
1.60879e-05
1.60878e-05
1.60879e-05
1.60883e-05
1.6089e-05
1.60909e-05
1.6091e-05
1.6091e-05
1.60909e-05
1.60907e-05
1.60904e-05
1.609e-05
1.60894e-05
1.60887e-05
1.6088e-05
1.60874e-05
1.60871e-05
1.60869e-05
1.60871e-05
1.60874e-05
1.60881e-05
1.60908e-05
1.60907e-05
1.60905e-05
1.60903e-05
1.60899e-05
1.60893e-05
1.60887e-05
1.60881e-05
1.60874e-05
1.60868e-05
1.60864e-05
1.60862e-05
1.60863e-05
1.60866e-05
1.60872e-05
1.60907e-05
1.60905e-05
1.60903e-05
1.60899e-05
1.60894e-05
1.60889e-05
1.60882e-05
1.60875e-05
1.60867e-05
1.60861e-05
1.60856e-05
1.60853e-05
1.60853e-05
1.60856e-05
1.60861e-05
1.60904e-05
1.60902e-05
1.609e-05
1.60895e-05
1.6089e-05
1.60884e-05
1.60876e-05
1.60868e-05
1.6086e-05
1.60853e-05
1.60848e-05
1.60845e-05
1.60845e-05
1.60847e-05
1.60852e-05
1.60897e-05
1.60895e-05
1.6089e-05
1.60884e-05
1.60878e-05
1.6087e-05
1.60862e-05
1.60854e-05
1.60847e-05
1.60842e-05
1.60839e-05
1.60838e-05
1.60839e-05
1.60844e-05
1.60889e-05
1.60887e-05
1.60883e-05
1.60878e-05
1.60871e-05
1.60864e-05
1.60857e-05
1.60849e-05
1.60841e-05
1.60836e-05
1.60832e-05
1.6083e-05
1.60831e-05
1.60834e-05
1.60877e-05
1.60877e-05
1.60874e-05
1.60869e-05
1.60863e-05
1.60856e-05
1.60849e-05
1.60841e-05
1.60833e-05
1.60827e-05
1.60823e-05
1.60821e-05
1.60822e-05
1.60824e-05
1.60863e-05
1.60862e-05
1.60858e-05
1.60852e-05
1.60846e-05
1.60839e-05
1.60832e-05
1.60825e-05
1.6082e-05
1.60816e-05
1.60815e-05
1.60815e-05
1.60818e-05
1.60848e-05
1.60848e-05
1.60845e-05
1.6084e-05
1.60835e-05
1.60829e-05
1.60823e-05
1.60818e-05
1.60813e-05
1.60811e-05
1.60809e-05
1.6081e-05
1.60812e-05
1.60834e-05
1.60833e-05
1.60831e-05
1.60827e-05
1.60823e-05
1.60818e-05
1.60814e-05
1.60809e-05
1.60805e-05
1.60803e-05
1.60802e-05
1.60802e-05
1.60804e-05
1.60822e-05
1.6082e-05
1.60818e-05
1.60814e-05
1.6081e-05
1.60806e-05
1.60802e-05
1.60798e-05
1.60794e-05
1.60792e-05
1.60792e-05
1.60792e-05
1.60794e-05
1.6081e-05
1.60807e-05
1.60803e-05
1.60798e-05
1.60794e-05
1.6079e-05
1.60786e-05
1.60784e-05
1.60782e-05
1.60782e-05
1.60783e-05
1.60786e-05
1.60804e-05
1.60799e-05
1.60794e-05
1.60789e-05
1.60784e-05
1.6078e-05
1.60777e-05
1.60775e-05
1.60774e-05
1.60774e-05
1.60776e-05
1.60779e-05
1.60801e-05
1.60794e-05
1.60788e-05
1.60782e-05
1.60777e-05
1.60773e-05
1.6077e-05
1.60767e-05
1.60767e-05
1.60767e-05
1.60768e-05
1.608e-05
1.60793e-05
1.60785e-05
1.60778e-05
1.60772e-05
1.60767e-05
1.60763e-05
1.6076e-05
1.60759e-05
1.60759e-05
1.6076e-05
1.60791e-05
1.60783e-05
1.60776e-05
1.60769e-05
1.60763e-05
1.60759e-05
1.60756e-05
1.60755e-05
1.60755e-05
1.60756e-05
1.60786e-05
1.6078e-05
1.60773e-05
1.60767e-05
1.60762e-05
1.60759e-05
1.60756e-05
1.60755e-05
1.60756e-05
1.60757e-05
1.60778e-05
1.60774e-05
1.6077e-05
1.60766e-05
1.60763e-05
1.6076e-05
1.60759e-05
1.60759e-05
1.6076e-05
1.60762e-05
1.60768e-05
1.60766e-05
1.60764e-05
1.60763e-05
1.60762e-05
1.60762e-05
1.60762e-05
1.60764e-05
1.60766e-05
1.60768e-05
1.60756e-05
1.60756e-05
1.60757e-05
1.60758e-05
1.60759e-05
1.60761e-05
1.60763e-05
1.60766e-05
1.60769e-05
1.60773e-05
1.60748e-05
1.6075e-05
1.60753e-05
1.60756e-05
1.60759e-05
1.60763e-05
1.60767e-05
1.60772e-05
1.60776e-05
1.60747e-05
1.60749e-05
1.60752e-05
1.60757e-05
1.60761e-05
1.60766e-05
1.60772e-05
1.60777e-05
1.60782e-05
1.60754e-05
1.60757e-05
1.60762e-05
1.60768e-05
1.60774e-05
1.6078e-05
1.60785e-05
1.60791e-05
1.60774e-05
1.60779e-05
1.60786e-05
1.60793e-05
1.608e-05
1.60806e-05
1.60812e-05
1.60817e-05
1.60803e-05
1.60811e-05
1.60819e-05
1.60827e-05
1.60835e-05
1.60842e-05
1.60849e-05
1.60854e-05
1.60832e-05
1.60844e-05
1.60854e-05
1.60864e-05
1.60873e-05
1.60882e-05
1.6089e-05
1.60896e-05
1.60872e-05
1.60885e-05
1.60897e-05
1.60908e-05
1.60918e-05
1.60927e-05
1.60935e-05
1.60896e-05
1.6091e-05
1.60924e-05
1.60936e-05
1.60948e-05
1.60958e-05
1.60966e-05
1.60914e-05
1.60929e-05
1.60943e-05
1.60956e-05
1.60968e-05
1.60978e-05
1.60986e-05
1.60926e-05
1.60941e-05
1.60955e-05
1.60969e-05
1.60981e-05
1.60991e-05
1.61001e-05
1.60937e-05
1.60952e-05
1.60965e-05
1.60979e-05
1.60991e-05
1.61002e-05
1.61012e-05
1.60946e-05
1.60959e-05
1.60971e-05
1.60984e-05
1.60996e-05
1.61007e-05
1.61017e-05
1.60953e-05
1.60965e-05
1.60977e-05
1.60989e-05
1.61001e-05
1.61011e-05
1.60963e-05
1.60976e-05
1.60988e-05
1.61e-05
1.61012e-05
1.61024e-05
1.60982e-05
1.60997e-05
1.61012e-05
1.61026e-05
1.6104e-05
1.61054e-05
1.61033e-05
1.61051e-05
1.61068e-05
1.61085e-05
1.61101e-05
1.61068e-05
1.61086e-05
1.61103e-05
1.6112e-05
1.61135e-05
1.61057e-05
1.6107e-05
1.61082e-05
1.61093e-05
1.61103e-05
1.60971e-05
1.60979e-05
1.60987e-05
1.60995e-05
1.61002e-05
1.60893e-05
1.60911e-05
1.60931e-05
1.60953e-05
1.60975e-05
1.60891e-05
1.60905e-05
1.60919e-05
1.60932e-05
1.60945e-05
)
;

boundaryField
{
    inlet
    {
        type            calculated;
        value           uniform 2e-05;
    }
    outlet
    {
        type            calculated;
        value           nonuniform List<scalar> 0();
    }
    walls
    {
        type            calculated;
        value           nonuniform List<scalar> 
28
(
0.00107052
0.00140715
0.00169188
0.00192179
0.00210542
0.0022519
0.00236898
0.00246387
0.00254314
0.0026116
0.00267256
0.00272906
0.00278294
0.00283593
0.00288817
0.0029391
0.00298452
0.00301727
0.00303726
0.00304901
0.00305631
0.00306043
0.00306144
0.0030568
0.00304484
0.00302467
0.00299648
0.00295925
)
;
    }
    frontAndBack
    {
        type            empty;
    }
    procBoundary1to0
    {
        type            processor;
        value           nonuniform List<scalar> 
94
(
1.6096e-05
1.6096e-05
1.60949e-05
1.60949e-05
1.60943e-05
1.60943e-05
1.60936e-05
1.60936e-05
1.60929e-05
1.60929e-05
1.60923e-05
1.60923e-05
1.60912e-05
1.60911e-05
1.60911e-05
1.60905e-05
1.60906e-05
1.60906e-05
1.60904e-05
1.60903e-05
1.60907e-05
1.60907e-05
1.60908e-05
1.60913e-05
1.60913e-05
1.60915e-05
1.60917e-05
1.60923e-05
1.60923e-05
1.60924e-05
1.60924e-05
1.60928e-05
1.60928e-05
1.60925e-05
1.60927e-05
1.60927e-05
1.60922e-05
1.60917e-05
1.60917e-05
1.60917e-05
1.60913e-05
1.60909e-05
1.60911e-05
1.60911e-05
1.6091e-05
1.60909e-05
1.60911e-05
1.60911e-05
1.60908e-05
1.60904e-05
1.60898e-05
1.60898e-05
1.60887e-05
1.60874e-05
1.60862e-05
1.60862e-05
1.60846e-05
1.60833e-05
1.60822e-05
1.60815e-05
1.60815e-05
1.60811e-05
1.60809e-05
1.60807e-05
1.60799e-05
1.60799e-05
1.60792e-05
1.60781e-05
1.60768e-05
1.60756e-05
1.60748e-05
1.60748e-05
1.60747e-05
1.60754e-05
1.6077e-05
1.60794e-05
1.60819e-05
1.60856e-05
1.60856e-05
1.60878e-05
1.60895e-05
1.60909e-05
1.60922e-05
1.60932e-05
1.6094e-05
1.6095e-05
1.60967e-05
1.61013e-05
1.61013e-05
1.61046e-05
1.6104e-05
1.60962e-05
1.60877e-05
1.60876e-05
)
;
    }
    procBoundary1to2
    {
        type            processor;
        value           nonuniform List<scalar> 
84
(
0.114668
0.0754879
0.0446851
0.00863572
0.000141365
1.49856e-05
1.01542e-05
1.4259e-05
1.63096e-05
1.62977e-05
1.6234e-05
1.61894e-05
1.61729e-05
1.61615e-05
1.61516e-05
1.61431e-05
1.61364e-05
1.6131e-05
1.61261e-05
1.61215e-05
1.61176e-05
1.61146e-05
1.61122e-05
1.61099e-05
1.6108e-05
1.61064e-05
1.61048e-05
1.61033e-05
1.61019e-05
1.61006e-05
1.60995e-05
1.60983e-05
1.60972e-05
1.60962e-05
1.60952e-05
1.60941e-05
1.60932e-05
1.60923e-05
1.60899e-05
1.60899e-05
1.60889e-05
1.6088e-05
1.60869e-05
1.60858e-05
1.60849e-05
1.60839e-05
1.60829e-05
1.60822e-05
1.60816e-05
1.60808e-05
1.60798e-05
1.6079e-05
1.60784e-05
1.60771e-05
1.60771e-05
1.60763e-05
1.60758e-05
1.60759e-05
1.60765e-05
1.60772e-05
1.60777e-05
1.60782e-05
1.60789e-05
1.60797e-05
1.60797e-05
1.60822e-05
1.6086e-05
1.60903e-05
1.60943e-05
1.60975e-05
1.60996e-05
1.61011e-05
1.61024e-05
1.61029e-05
1.61024e-05
1.61024e-05
1.61037e-05
1.61069e-05
1.61119e-05
1.61153e-05
1.61115e-05
1.61012e-05
1.61e-05
1.60957e-05
)
;
    }
    procBoundary1to5
    {
        type            processor;
        value           nonuniform List<scalar> 
13
(
1.80931e-05
1.80931e-05
1.60808e-05
1.61466e-05
1.61466e-05
1.61162e-05
1.61163e-05
1.61163e-05
1.61078e-05
1.61049e-05
1.61017e-05
1.61017e-05
1.61021e-05
)
;
    }
}


// ************************************************************************* //
