/*--------------------------------*- C++ -*----------------------------------*\
| =========                 |                                                 |
| \\      /  F ield         | OpenFOAM: The Open Source CFD Toolbox           |
|  \\    /   O peration     | Version:  2506                                  |
|   \\  /    A nd           | Website:  www.openfoam.com                      |
|    \\/     M anipulation  |                                                 |
\*---------------------------------------------------------------------------*/
FoamFile
{
    version     2.0;
    format      ascii;
    arch        "LSB;label=32;scalar=64";
    class       volScalarField;
    location    "500";
    object      turbulenceProperties:I;
}
// * * * * * * * * * * * * * * * * * * * * * * * * * * * * * * * * * * * * * //

dimensions      [0 0 0 0 0 0 0];

internalField   nonuniform List<scalar> 
1340
(
0.000809574
0.000837916
0.000867273
0.000900731
0.000936857
0.000740438
0.000763335
0.000786831
0.000813429
0.000841639
0.000868259
0.000679322
0.000697923
0.000716832
0.000738182
0.000760474
0.000781251
0.000800049
0.000625001
0.000640202
0.000655521
0.000672786
0.000690597
0.000707024
0.000721881
0.000733342
0.00057655
0.000589008
0.000601496
0.000615539
0.000629898
0.000643034
0.000654884
0.000663923
0.000668295
0.000533143
0.000543377
0.000553606
0.000565094
0.000576745
0.000587343
0.000596858
0.000604052
0.00060752
0.000606867
0.000494091
0.000502528
0.000510917
0.000520364
0.000529869
0.000538483
0.000546161
0.000551914
0.000554677
0.000554155
0.000458819
0.000465796
0.000472695
0.000480476
0.000488265
0.000495303
0.000501518
0.000506134
0.000508339
0.000507897
0.000504857
0.000426851
0.000432623
0.000438304
0.000444725
0.000451125
0.000456899
0.000461934
0.000465642
0.000467392
0.000466993
0.000464494
0.000397776
0.000402548
0.000407226
0.000412528
0.000417801
0.000422537
0.000426621
0.000429594
0.000430974
0.000430588
0.000428501
0.000424825
0.000371245
0.000375185
0.00037903
0.000383412
0.000387763
0.000391632
0.000394943
0.000397322
0.000398387
0.000398
0.000396223
0.000393152
0.000346962
0.000350209
0.000353361
0.000356979
0.000360567
0.00036372
0.00036639
0.000368283
0.000369087
0.000368689
0.000367148
0.000364541
0.000324676
0.000327346
0.000329912
0.000332894
0.000335848
0.000338405
0.000340547
0.000342037
0.00034262
0.000342202
0.000340836
0.000338599
0.000335594
0.00030417
0.000306356
0.000308434
0.00031088
0.0003133
0.00031536
0.000317066
0.000318216
0.000318613
0.000318171
0.000316941
0.00031499
0.000312407
0.000285259
0.000287032
0.000288707
0.0002907
0.000292673
0.000294317
0.000295655
0.000296523
0.000296757
0.000296288
0.000295162
0.000293441
0.000291197
0.000288491
0.00026778
0.000269203
0.000270539
0.000272149
0.000273746
0.000275041
0.000276069
0.000276702
0.0002768
0.000276303
0.000275258
0.000273717
0.000271741
0.000269383
0.000251588
0.00025272
0.000253768
0.000255052
0.000256333
0.000257336
0.000258103
0.000258539
0.000258518
0.000257995
0.000257012
0.000255617
0.00025386
0.000251785
0.000236562
0.00023745
0.000238256
0.000239264
0.000240276
0.000241033
0.00024158
0.000241848
0.00024173
0.000241184
0.000240248
0.000238969
0.000237389
0.000235547
0.000233454
0.000222597
0.000223275
0.000223878
0.000224654
0.000225438
0.000225988
0.000226352
0.000226478
0.000226277
0.000225709
0.000224812
0.000223626
0.000222191
0.000220537
0.000218679
0.000209594
0.000210093
0.000210528
0.000211109
0.000211696
0.000212074
0.000212286
0.000212293
0.00021202
0.000211434
0.000210569
0.000209463
0.000208146
0.000206649
0.000204982
0.000197468
0.000197818
0.000198111
0.000198529
0.000198948
0.000199182
0.000199267
0.000199175
0.000198843
0.000198243
0.000197404
0.000196362
0.000195147
0.000193782
0.000192275
0.000190626
0.000186147
0.00018637
0.000186543
0.000186824
0.000187104
0.000187216
0.000187197
0.000187023
0.000186643
0.000186032
0.000185216
0.000184232
0.000183098
0.000181843
0.000180473
0.000178985
0.000175679
0.000175753
0.000175919
0.000176081
0.000176093
0.000175987
0.000175747
0.000175329
0.000174711
0.000173917
0.00017298
0.000171921
0.000170759
0.000169503
0.00016815
0.000166682
0.000165682
0.000165675
0.000165744
0.000165807
0.000165738
0.000165562
0.000165269
0.000164821
0.0001642
0.000163428
0.000162534
0.000161538
0.000160458
0.0001593
0.000158064
0.000156731
0.000156323
0.00015625
0.000156239
0.000156221
0.000156085
0.000155853
0.000155519
0.000155049
0.000154429
0.000153679
0.000152824
0.000151885
0.000150877
0.000149805
0.000148669
0.000147455
0.000147553
0.000147425
0.000147348
0.000147264
0.000147075
0.0001468
0.000146434
0.00014595
0.000145335
0.000144607
0.00014379
0.000142902
0.000141957
0.000140962
0.000139915
0.000138803
0.000137605
0.000139326
0.000139153
0.000139024
0.000138886
0.000138656
0.000138348
0.00013796
0.000137469
0.000136862
0.000136158
0.000135377
0.000134537
0.00013365
0.000132723
0.000131754
0.000130733
0.000129641
0.000131601
0.000131393
0.000131221
0.000131042
0.00013078
0.000130449
0.000130046
0.000129554
0.00012896
0.000128281
0.000127536
0.000126741
0.000125907
0.000125043
0.000124146
0.000123205
0.000122206
0.000124341
0.000124105
0.000123901
0.00012369
0.000123405
0.000123059
0.000122649
0.000122161
0.000121584
0.00012093
0.000120221
0.00011947
0.000118687
0.00011788
0.000117048
0.000116181
0.000115265
0.000114281
0.000117513
0.000117255
0.000117026
0.000116792
0.000116493
0.000116138
0.000115728
0.000115249
0.000114691
0.000114066
0.000113393
0.000112683
0.000111949
0.000111195
0.000110424
0.000109625
0.000108786
0.000107888
0.000111084
0.000110813
0.000110564
0.000110315
0.000110009
0.000109651
0.000109246
0.000108781
0.000108246
0.000107651
0.000107013
0.000106345
0.000105658
0.000104956
0.00010424
0.000103503
0.000102735
0.000101917
0.000105029
0.000104747
0.000104487
0.000104228
0.00010392
0.000103567
0.000103171
0.000102724
0.000102213
0.00010165
0.000101049
0.000100423
9.97796e-05
9.91265e-05
9.84645e-05
9.77869e-05
9.70829e-05
9.63374e-05
9.55306e-05
9.93207e-05
9.90332e-05
9.87666e-05
9.85041e-05
9.8199e-05
9.78537e-05
9.74725e-05
9.7046e-05
9.65638e-05
9.60331e-05
9.54694e-05
9.48834e-05
9.42842e-05
9.36784e-05
9.30669e-05
9.2444e-05
9.18006e-05
9.11239e-05
9.03944e-05
9.39359e-05
9.36462e-05
9.33775e-05
9.31166e-05
9.2819e-05
9.24859e-05
9.21227e-05
9.17201e-05
9.12675e-05
9.07714e-05
9.0245e-05
8.96997e-05
8.91431e-05
8.85827e-05
8.80196e-05
8.74488e-05
8.68623e-05
8.62485e-05
8.55895e-05
8.88529e-05
8.85645e-05
8.82973e-05
8.80423e-05
8.77556e-05
8.74383e-05
8.70964e-05
8.67205e-05
8.62998e-05
8.58386e-05
8.53496e-05
8.48439e-05
8.43297e-05
8.38135e-05
8.32971e-05
8.27752e-05
8.22417e-05
8.16867e-05
8.10944e-05
8.04448e-05
8.40519e-05
8.37672e-05
8.35056e-05
8.32595e-05
8.29871e-05
8.26886e-05
8.23712e-05
8.20243e-05
8.1636e-05
8.12101e-05
8.07593e-05
8.02929e-05
7.98197e-05
7.9346e-05
7.88741e-05
7.83992e-05
7.79165e-05
7.74167e-05
7.68849e-05
7.6304e-05
7.95145e-05
7.92358e-05
7.89828e-05
7.87488e-05
7.84934e-05
7.82164e-05
7.79256e-05
7.76093e-05
7.72547e-05
7.68648e-05
7.64512e-05
7.60237e-05
7.55905e-05
7.51582e-05
7.4729e-05
7.42991e-05
7.38639e-05
7.3415e-05
7.29397e-05
7.24236e-05
7.52238e-05
7.49529e-05
7.47111e-05
7.4492e-05
7.42553e-05
7.40022e-05
7.37404e-05
7.34561e-05
7.31359e-05
7.27817e-05
7.24051e-05
7.20158e-05
7.16217e-05
7.12293e-05
7.08407e-05
7.04534e-05
7.00631e-05
6.96623e-05
6.92402e-05
6.8783e-05
6.82728e-05
7.1164e-05
7.09026e-05
7.0674e-05
7.04723e-05
7.02562e-05
7.00289e-05
6.97978e-05
6.95465e-05
6.92607e-05
6.89422e-05
6.86019e-05
6.825e-05
6.7894e-05
6.75401e-05
6.71908e-05
6.68442e-05
6.64963e-05
6.61403e-05
6.57666e-05
6.53637e-05
6.49157e-05
6.73206e-05
6.70701e-05
6.68564e-05
6.66741e-05
6.64803e-05
6.62803e-05
6.60816e-05
6.58637e-05
6.56122e-05
6.5329e-05
6.50245e-05
6.47089e-05
6.43899e-05
6.40736e-05
6.3762e-05
6.34538e-05
6.31454e-05
6.28313e-05
6.25032e-05
6.215e-05
6.17585e-05
6.36799e-05
6.34417e-05
6.32446e-05
6.30832e-05
6.29125e-05
6.27417e-05
6.25766e-05
6.23926e-05
6.2175e-05
6.19263e-05
6.1657e-05
6.1377e-05
6.1094e-05
6.08137e-05
6.05383e-05
6.02664e-05
5.99953e-05
5.972e-05
5.94334e-05
5.91259e-05
5.87859e-05
6.02293e-05
6.00045e-05
5.98254e-05
5.96859e-05
5.95396e-05
5.93998e-05
5.9269e-05
5.91188e-05
5.89346e-05
5.87199e-05
5.84851e-05
5.82399e-05
5.79917e-05
5.7746e-05
5.75049e-05
5.72673e-05
5.70309e-05
5.67914e-05
5.65426e-05
5.62763e-05
5.59823e-05
5.56462e-05
5.69574e-05
5.67465e-05
5.65868e-05
5.64703e-05
5.63493e-05
5.62418e-05
5.61461e-05
5.60291e-05
5.58779e-05
5.56965e-05
5.54955e-05
5.52844e-05
5.50698e-05
5.48571e-05
5.46482e-05
5.44422e-05
5.42375e-05
5.40308e-05
5.38162e-05
5.35867e-05
5.33338e-05
5.30448e-05
5.3853e-05
5.36568e-05
5.35177e-05
5.34247e-05
5.33299e-05
5.32562e-05
5.31961e-05
5.31116e-05
5.29928e-05
5.28443e-05
5.26765e-05
5.24982e-05
5.23157e-05
5.21337e-05
5.19544e-05
5.17776e-05
5.16016e-05
5.14237e-05
5.12391e-05
5.1042e-05
5.08247e-05
5.05762e-05
5.0906e-05
5.07249e-05
5.06075e-05
5.05387e-05
5.04708e-05
5.04323e-05
5.04079e-05
5.03551e-05
5.02682e-05
5.01523e-05
5.00168e-05
4.98698e-05
4.9717e-05
4.95631e-05
4.94103e-05
4.92587e-05
4.91076e-05
4.89545e-05
4.87958e-05
4.86263e-05
4.84391e-05
4.82255e-05
4.81068e-05
4.79413e-05
4.78468e-05
4.7802e-05
4.77622e-05
4.77606e-05
4.77715e-05
4.77492e-05
4.76942e-05
4.76106e-05
4.7506e-05
4.73879e-05
4.72617e-05
4.71319e-05
4.70015e-05
4.68711e-05
4.67404e-05
4.6608e-05
4.64705e-05
4.63236e-05
4.61616e-05
4.59764e-05
4.57583e-05
4.54466e-05
4.52969e-05
4.52263e-05
4.52057e-05
4.5195e-05
4.5232e-05
4.5277e-05
4.52843e-05
4.52617e-05
4.52099e-05
4.51339e-05
4.5041e-05
4.49368e-05
4.48265e-05
4.47136e-05
4.45996e-05
4.44851e-05
4.43688e-05
4.42481e-05
4.41194e-05
4.39778e-05
4.38162e-05
4.36259e-05
4.29168e-05
4.27834e-05
4.27375e-05
4.2741e-05
4.2761e-05
4.28379e-05
4.29156e-05
4.29517e-05
4.29626e-05
4.29414e-05
4.28902e-05
4.28172e-05
4.27296e-05
4.26332e-05
4.25328e-05
4.24309e-05
4.23284e-05
4.22246e-05
4.21175e-05
4.20035e-05
4.18786e-05
4.17366e-05
4.15699e-05
4.05098e-05
4.03929e-05
4.03726e-05
4.03998e-05
4.04523e-05
4.05705e-05
4.06785e-05
4.07434e-05
4.07897e-05
4.07965e-05
4.07642e-05
4.07048e-05
4.06276e-05
4.05401e-05
4.04483e-05
4.03552e-05
4.02621e-05
4.01686e-05
4.00727e-05
3.99715e-05
3.98612e-05
3.97367e-05
3.95912e-05
3.82182e-05
3.81182e-05
3.81242e-05
3.81748e-05
3.8262e-05
3.8422e-05
3.85573e-05
3.86522e-05
3.87362e-05
3.87666e-05
3.87454e-05
3.86928e-05
3.86212e-05
3.85393e-05
3.84538e-05
3.83684e-05
3.82841e-05
3.82004e-05
3.81154e-05
3.80266e-05
3.79306e-05
3.78227e-05
3.76971e-05
3.60351e-05
3.59525e-05
3.59853e-05
3.60591e-05
3.6184e-05
3.63855e-05
3.65444e-05
3.66717e-05
3.67957e-05
3.68424e-05
3.68236e-05
3.67727e-05
3.67048e-05
3.6628e-05
3.65497e-05
3.64731e-05
3.63988e-05
3.63258e-05
3.62524e-05
3.61763e-05
3.60943e-05
3.60023e-05
3.58955e-05
3.5772e-05
3.39538e-05
3.38892e-05
3.39493e-05
3.40461e-05
3.42122e-05
3.4454e-05
3.4633e-05
3.47975e-05
3.49628e-05
3.50147e-05
3.49902e-05
3.494e-05
3.48779e-05
3.48094e-05
3.4741e-05
3.46753e-05
3.46122e-05
3.45506e-05
3.44886e-05
3.44243e-05
3.4355e-05
3.42769e-05
3.41858e-05
3.40798e-05
3.19684e-05
3.19221e-05
3.20095e-05
3.21292e-05
3.23404e-05
3.26195e-05
3.28163e-05
3.30265e-05
3.32336e-05
3.32758e-05
3.32396e-05
3.31946e-05
3.31441e-05
3.30878e-05
3.30312e-05
3.29767e-05
3.2924e-05
3.28718e-05
3.28188e-05
3.27632e-05
3.27026e-05
3.26338e-05
3.25528e-05
3.24581e-05
3.00739e-05
3.00466e-05
3.01607e-05
3.03031e-05
3.05628e-05
3.08735e-05
3.10861e-05
3.13521e-05
3.16029e-05
3.16219e-05
3.15732e-05
3.15412e-05
3.15077e-05
3.14637e-05
3.1416e-05
3.13688e-05
3.13217e-05
3.12738e-05
3.12242e-05
3.11715e-05
3.11137e-05
3.1048e-05
3.09704e-05
3.08795e-05
2.82659e-05
2.82591e-05
2.83994e-05
2.8565e-05
2.88768e-05
2.92113e-05
2.94364e-05
2.97611e-05
3.00568e-05
3.00495e-05
2.99967e-05
2.99851e-05
2.99674e-05
2.99288e-05
2.98818e-05
2.98333e-05
2.97837e-05
2.97326e-05
2.96796e-05
2.96238e-05
2.95633e-05
2.94951e-05
2.94153e-05
2.93228e-05
2.65396e-05
2.65549e-05
2.67216e-05
2.69135e-05
2.72821e-05
2.76342e-05
2.78709e-05
2.82528e-05
2.85875e-05
2.85506e-05
2.85058e-05
2.85185e-05
2.85063e-05
2.84605e-05
2.84044e-05
2.8347e-05
2.82886e-05
2.82293e-05
2.81687e-05
2.8106e-05
2.80396e-05
2.79661e-05
2.78815e-05
2.77851e-05
2.48923e-05
2.49285e-05
2.51197e-05
2.5342e-05
2.57703e-05
2.6136e-05
2.63897e-05
2.68599e-05
2.72384e-05
2.71223e-05
2.70746e-05
2.71157e-05
2.70995e-05
2.70344e-05
2.69629e-05
2.68944e-05
2.68262e-05
2.67582e-05
2.66901e-05
2.66213e-05
2.65493e-05
2.64708e-05
2.6382e-05
2.6282e-05
2.6175e-05
2.3345e-05
2.33983e-05
2.36039e-05
2.38522e-05
2.43292e-05
2.46895e-05
2.49519e-05
2.55559e-05
2.60571e-05
2.5787e-05
2.56903e-05
2.5772e-05
2.57587e-05
2.56732e-05
2.55867e-05
2.55098e-05
2.54347e-05
2.53595e-05
2.52858e-05
2.52122e-05
2.51359e-05
2.50535e-05
2.49613e-05
2.4858e-05
2.47477e-05
2.20199e-05
2.20811e-05
2.22785e-05
2.2525e-05
2.30072e-05
2.32987e-05
2.35077e-05
2.42548e-05
2.49056e-05
2.45041e-05
2.43728e-05
2.45163e-05
2.45358e-05
2.44536e-05
2.43665e-05
2.42917e-05
2.42181e-05
2.41429e-05
2.40682e-05
2.39933e-05
2.39159e-05
2.3832e-05
2.37379e-05
2.36324e-05
2.35198e-05
2.09108e-05
2.09709e-05
2.11429e-05
2.13641e-05
2.18044e-05
2.19751e-05
2.21255e-05
2.28424e-05
2.36139e-05
2.32298e-05
2.31354e-05
2.33343e-05
2.34086e-05
2.3359e-05
2.32871e-05
2.32231e-05
2.31592e-05
2.30922e-05
2.30231e-05
2.29526e-05
2.28791e-05
2.27989e-05
2.27075e-05
2.26038e-05
2.24927e-05
1.98418e-05
1.99002e-05
2.00464e-05
2.02502e-05
2.06431e-05
2.07034e-05
2.08477e-05
2.14335e-05
2.22501e-05
2.1988e-05
2.19576e-05
2.21813e-05
2.23037e-05
2.22949e-05
2.22441e-05
2.21922e-05
2.21388e-05
2.20811e-05
2.20201e-05
2.19567e-05
2.18896e-05
2.18156e-05
2.17302e-05
2.16314e-05
2.15246e-05
1.87389e-05
1.87953e-05
1.89147e-05
1.91114e-05
1.94477e-05
1.94275e-05
1.95987e-05
2.00454e-05
2.09214e-05
2.08098e-05
2.08406e-05
2.10628e-05
2.12126e-05
2.1238e-05
2.12086e-05
2.11705e-05
2.11293e-05
2.10811e-05
2.10273e-05
2.09699e-05
2.09085e-05
2.08399e-05
2.07603e-05
2.0666e-05
2.05617e-05
1.76268e-05
1.76791e-05
1.77716e-05
1.7968e-05
1.82348e-05
1.81734e-05
1.83767e-05
1.86868e-05
1.96414e-05
1.96851e-05
1.9783e-05
2.00005e-05
2.01661e-05
2.02151e-05
2.02005e-05
2.01747e-05
2.01489e-05
2.01163e-05
2.00739e-05
2.0024e-05
1.99675e-05
1.99028e-05
1.98258e-05
1.97331e-05
1.9628e-05
1.65087e-05
1.65514e-05
1.66154e-05
1.68121e-05
1.69962e-05
1.69483e-05
1.71647e-05
1.7368e-05
1.84359e-05
1.86291e-05
1.87888e-05
1.90043e-05
1.91884e-05
1.92622e-05
1.92544e-05
1.92217e-05
1.91907e-05
1.91622e-05
1.913e-05
1.90904e-05
1.90405e-05
1.89782e-05
1.8898e-05
1.87985e-05
1.86827e-05
1.53988e-05
1.54222e-05
1.54518e-05
1.56348e-05
1.57211e-05
1.57506e-05
1.59341e-05
1.61021e-05
1.7327e-05
1.76635e-05
1.78791e-05
1.80783e-05
1.82597e-05
1.83603e-05
1.83843e-05
1.83596e-05
1.83087e-05
1.82463e-05
1.81825e-05
1.81209e-05
1.80579e-05
1.79851e-05
1.78899e-05
1.77616e-05
1.76004e-05
1.4311e-05
1.43049e-05
1.42918e-05
1.44282e-05
1.43954e-05
1.45462e-05
1.4603e-05
1.48774e-05
1.63268e-05
1.67926e-05
1.70955e-05
1.72778e-05
1.73792e-05
1.74024e-05
1.74033e-05
1.74095e-05
1.74057e-05
1.73642e-05
1.72794e-05
1.71647e-05
1.70329e-05
1.68876e-05
1.67213e-05
1.65241e-05
1.62928e-05
1.60297e-05
1.32499e-05
1.32067e-05
1.31432e-05
1.31904e-05
1.30267e-05
1.32916e-05
1.30703e-05
1.37212e-05
1.54564e-05
1.59431e-05
1.63672e-05
1.65959e-05
1.66336e-05
1.64988e-05
1.62833e-05
1.60981e-05
1.59987e-05
1.59654e-05
1.59417e-05
1.5882e-05
1.57643e-05
1.55828e-05
1.53359e-05
1.50322e-05
1.46891e-05
1.43263e-05
1.22255e-05
1.21236e-05
1.19761e-05
1.1885e-05
1.16235e-05
1.19861e-05
1.14206e-05
1.29653e-05
1.48224e-05
1.51541e-05
1.56175e-05
1.57889e-05
1.5849e-05
1.58324e-05
1.56121e-05
1.5181e-05
1.46964e-05
1.43368e-05
1.41919e-05
1.42449e-05
1.44174e-05
1.46185e-05
1.47397e-05
1.46826e-05
1.44539e-05
1.41559e-05
1.1331e-05
1.11113e-05
1.07648e-05
1.04092e-05
1.00611e-05
1.05542e-05
1.00706e-05
1.30303e-05
1.45275e-05
1.50977e-05
1.61785e-05
1.64587e-05
1.61634e-05
1.56526e-05
1.53097e-05
1.53856e-05
1.57336e-05
1.60504e-05
1.62006e-05
1.62166e-05
1.61731e-05
1.61483e-05
1.6262e-05
1.66547e-05
1.73105e-05
1.80634e-05
1.07515e-05
1.03726e-05
9.68964e-06
8.78292e-06
8.03267e-06
8.58185e-06
9.12294e-06
1.31081e-05
1.37088e-05
1.48435e-05
1.68019e-05
1.83284e-05
1.97512e-05
2.11106e-05
2.22777e-05
2.31961e-05
2.3873e-05
2.44099e-05
2.49209e-05
2.54688e-05
2.60686e-05
2.67056e-05
2.73473e-05
2.79172e-05
2.83425e-05
2.86676e-05
1.04746e-05
1.0011e-05
9.08579e-06
7.5486e-06
5.50356e-06
6.02298e-06
8.61892e-06
1.13848e-05
1.37073e-05
2.03147e-05
2.51448e-05
2.88285e-05
3.14685e-05
3.3262e-05
3.44124e-05
3.5161e-05
3.57176e-05
3.62258e-05
3.67339e-05
3.72367e-05
3.77114e-05
3.81571e-05
3.85964e-05
3.9097e-05
3.9607e-05
4.00353e-05
)
;

boundaryField
{
    inlet
    {
        type            calculated;
        value           nonuniform List<scalar> 
26
(
1.04629e-05
1.00114e-05
9.08813e-06
7.48642e-06
5.08213e-06
6.0751e-06
9.35148e-06
9.69885e-06
2.05365e-05
2.94081e-05
3.69968e-05
4.32757e-05
4.83007e-05
5.22497e-05
5.52677e-05
5.75664e-05
5.93395e-05
6.075e-05
6.1931e-05
6.29832e-05
6.39783e-05
6.49881e-05
6.60928e-05
6.73461e-05
6.86557e-05
6.98821e-05
)
;
    }
    outlet
    {
        type            calculated;
        value           nonuniform List<scalar> 0();
    }
    walls
    {
        type            calculated;
        value           nonuniform List<scalar> 0();
    }
    frontAndBack
    {
        type            empty;
    }
    procBoundary0to1
    {
        type            processor;
        value           nonuniform List<scalar> 
94
(
0.00104972
0.000971484
0.000971484
0.000892351
0.000892351
0.000814708
0.000814708
0.000738893
0.000738893
0.000667427
0.000667427
0.000602112
0.000550387
0.000550387
0.000499378
0.000460036
0.000460036
0.000419751
0.00038894
0.000361001
0.000361001
0.000331909
0.000309263
0.000309263
0.000285339
0.000266661
0.000249408
0.000249408
0.000231108
0.00021661
0.000203143
0.000203143
0.000188811
0.000177357
0.000177357
0.000165071
0.000155279
0.000146138
0.000146138
0.000136296
0.000128453
0.000121125
0.000121125
0.000113199
0.000106907
0.000101026
0.000101026
9.46356e-05
8.95875e-05
8.48639e-05
8.48639e-05
7.97128e-05
7.56525e-05
7.18461e-05
7.18461e-05
6.76863e-05
6.44019e-05
6.13103e-05
5.83968e-05
5.83968e-05
5.5251e-05
5.27046e-05
5.02839e-05
4.79737e-05
4.79737e-05
4.55021e-05
4.3403e-05
4.13753e-05
3.9422e-05
3.75518e-05
3.75518e-05
3.56343e-05
3.39614e-05
3.23519e-05
3.07782e-05
2.92213e-05
2.76813e-05
2.76813e-05
2.60662e-05
2.46369e-05
2.34069e-05
2.23811e-05
2.14161e-05
2.04533e-05
1.95151e-05
1.85565e-05
1.74174e-05
1.74174e-05
1.57371e-05
1.39588e-05
1.38756e-05
1.87951e-05
2.89529e-05
4.03707e-05
)
;
    }
    procBoundary0to4
    {
        type            processor;
        value           nonuniform List<scalar> 
72
(
0.000780602
0.000716762
0.000659913
0.000609023
0.000563343
0.000522188
0.000484991
0.000451255
0.000420556
0.000392532
0.000366881
0.000343341
0.000321679
0.000301702
0.000283238
0.000266136
0.000250269
0.000235519
0.000221786
0.000208982
0.000197027
0.00018585
0.000175562
0.000175562
0.000165655
0.000156371
0.000147662
0.000139486
0.000131802
0.000124573
0.000117769
0.000111359
0.000105316
9.96158e-05
9.42347e-05
8.91522e-05
8.43487e-05
7.98063e-05
7.55084e-05
7.14397e-05
6.7586e-05
6.39339e-05
6.04713e-05
5.71865e-05
5.40688e-05
5.11081e-05
4.82951e-05
4.56209e-05
4.30772e-05
4.06564e-05
3.83512e-05
3.61546e-05
3.40603e-05
3.20621e-05
3.01547e-05
2.8334e-05
2.65953e-05
2.49366e-05
2.33808e-05
2.20525e-05
2.09422e-05
1.98711e-05
1.87661e-05
1.7652e-05
1.65335e-05
1.5426e-05
1.43446e-05
1.32948e-05
1.22916e-05
1.14332e-05
1.08931e-05
1.06347e-05
)
;
    }
    procBoundary0to5
    {
        type            processor;
        value           nonuniform List<scalar> 4(0.00088776 0.000923122 0.000960164 0.0010028);
    }
}


// ************************************************************************* //
