/*--------------------------------*- C++ -*----------------------------------*\
| =========                 |                                                 |
| \\      /  F ield         | OpenFOAM: The Open Source CFD Toolbox           |
|  \\    /   O peration     | Version:  2506                                  |
|   \\  /    A nd           | Website:  www.openfoam.com                      |
|    \\/     M anipulation  |                                                 |
\*---------------------------------------------------------------------------*/
FoamFile
{
    version     2.0;
    format      ascii;
    arch        "LSB;label=32;scalar=64";
    class       volScalarField;
    location    "450";
    object      div(phi);
}
// * * * * * * * * * * * * * * * * * * * * * * * * * * * * * * * * * * * * * //

dimensions      [0 0 -1 0 0 0 0];

internalField   nonuniform List<scalar> 
1340
(
-7.00482e-06
-1.42341e-06
-1.58119e-07
-8.5749e-08
4.46112e-07
2.90111e-07
6.01325e-07
3.3369e-07
5.12866e-07
2.70389e-07
5.59047e-07
2.26025e-07
6.45841e-07
3.40069e-08
3.62891e-07
-1.03798e-06
-1.63179e-06
-1.80049e-06
-1.7558e-06
-1.24178e-06
-1.18945e-06
1.57558e-06
-2.81452e-06
-1.08238e-06
-1.46506e-06
-1.54449e-06
-2.56979e-06
-2.55612e-06
-5.25837e-06
-1.26505e-06
-4.19575e-07
-2.0724e-07
8.36432e-08
2.46305e-07
4.06969e-07
6.21519e-07
5.31882e-07
6.37223e-07
4.52142e-07
5.99445e-07
3.86016e-07
5.69013e-07
1.88917e-07
2.68123e-07
-6.95815e-07
-1.09109e-06
-1.5295e-06
-1.47674e-06
-1.46545e-06
-1.09317e-06
1.07837e-06
-2.1864e-06
-9.28999e-07
-1.41893e-06
-1.41625e-06
-2.63528e-06
-2.47584e-06
-1.30046e-06
-1.20918e-07
1.39067e-08
-6.57917e-08
9.00757e-08
9.27591e-08
4.51002e-07
3.95158e-07
5.57736e-07
3.75561e-07
4.44667e-07
3.72656e-07
3.78059e-07
4.07215e-07
2.28375e-07
1.67354e-07
-6.39953e-07
-1.19947e-06
-1.59033e-06
-1.46231e-06
-1.47152e-06
-9.87414e-07
1.07244e-06
-2.29033e-06
-9.59268e-07
-1.43503e-06
-1.34324e-06
-2.28156e-06
-2.04021e-06
-1.64168e-06
1.42463e-07
2.52881e-07
6.03225e-08
6.79307e-08
-5.33632e-08
1.4661e-07
3.89028e-07
5.30504e-07
6.6893e-07
5.46962e-07
5.85879e-07
4.43896e-07
5.31407e-07
3.69047e-07
3.60851e-07
9.90756e-08
-2.79156e-07
-8.09848e-07
-1.08346e-06
-1.3899e-06
-1.42287e-06
-1.20475e-06
5.84804e-07
-1.74591e-06
-9.79436e-07
-1.41426e-06
-1.45146e-06
-2.64513e-06
-2.46668e-06
-3.7144e-07
2.14394e-07
4.04062e-07
2.88455e-07
4.21991e-09
-6.44477e-08
1.58393e-07
3.0022e-07
6.25582e-07
5.201e-07
6.22555e-07
3.96567e-07
4.94965e-07
3.43286e-07
4.36918e-07
2.29091e-07
2.20479e-07
-3.7292e-07
-6.88843e-07
-1.28996e-06
-1.32538e-06
-1.55171e-06
-1.01863e-06
3.80703e-07
-1.42675e-06
-9.45788e-07
-1.16287e-06
-1.25443e-06
-1.84283e-06
-1.67441e-06
-1.74564e-06
-1.40485e-07
4.82304e-07
3.97769e-07
2.20898e-07
-6.39033e-08
-7.4999e-08
5.65012e-08
3.78263e-07
5.80535e-07
6.83849e-07
6.23762e-07
5.13955e-07
5.2534e-07
4.43121e-07
4.21685e-07
3.0284e-07
1.63164e-07
-9.55992e-08
-4.73185e-07
-7.5085e-07
-1.19482e-06
-1.29759e-06
-1.3322e-06
2.19854e-07
-1.42258e-06
-1.08018e-06
-1.33288e-06
-1.3715e-06
-2.34597e-06
-2.18493e-06
2.93699e-07
-1.83316e-07
1.29587e-07
4.32177e-07
1.28416e-07
-6.11312e-08
-1.33152e-07
3.76627e-08
3.91822e-07
5.54275e-07
7.17419e-07
5.44721e-07
5.58625e-07
4.08729e-07
4.96414e-07
3.05343e-07
4.0303e-07
8.68864e-08
7.03051e-08
-5.69411e-07
-6.15361e-07
-1.37957e-06
-1.16347e-06
-1.42571e-06
3.93589e-07
-1.27304e-06
-7.09395e-07
-1.08168e-06
-9.36729e-07
-1.53905e-06
-1.11428e-06
-1.21206e-06
-1.28844e-07
1.87708e-07
2.94583e-07
4.27286e-08
-1.56951e-07
-1.90801e-07
5.61857e-08
3.22646e-07
6.38274e-07
6.42651e-07
6.03411e-07
5.00489e-07
5.11354e-07
4.37536e-07
4.18068e-07
2.75883e-07
2.19071e-07
6.59296e-09
-2.06767e-07
-4.89624e-07
-8.79291e-07
-1.1131e-06
-1.21533e-06
-5.82665e-08
-1.23104e-06
-1.3004e-06
-1.37994e-06
-1.35855e-06
-2.07186e-06
-1.94043e-06
-2.77171e-06
9.60935e-07
-1.42109e-07
-1.57036e-08
1.18587e-08
3.68007e-08
-2.0606e-07
-1.94612e-07
2.37099e-08
3.42655e-07
5.95967e-07
6.18555e-07
5.81559e-07
4.71633e-07
5.19428e-07
3.99071e-07
4.48337e-07
2.55677e-07
3.06241e-07
1.16522e-08
-6.88511e-08
-5.2377e-07
-7.24623e-07
-1.17679e-06
-1.00891e-06
1.73744e-08
-7.84229e-07
-1.0049e-06
-7.89694e-07
-8.7756e-07
-1.07302e-06
-8.48295e-07
-1.2043e-06
6.18446e-08
-1.20251e-07
6.26652e-07
-2.1719e-07
-2.69736e-07
-2.04235e-07
3.28327e-09
3.74122e-07
5.27748e-07
6.02111e-07
4.78823e-07
5.16896e-07
4.39174e-07
4.96901e-07
3.32892e-07
3.43065e-07
1.68844e-07
1.56637e-07
-1.06862e-07
-1.92165e-07
-6.31452e-07
-7.3403e-07
-1.00674e-06
-1.43322e-07
-1.1568e-06
-1.42124e-06
-1.55571e-06
-1.45346e-06
-1.88101e-06
-1.81726e-06
-6.49576e-07
6.94539e-07
-4.244e-08
-1.89663e-07
-3.56336e-07
-2.49224e-07
3.86711e-08
3.07551e-07
5.15947e-07
5.01187e-07
4.81783e-07
4.6312e-07
4.69677e-07
4.6312e-07
3.76284e-07
3.43506e-07
2.36344e-07
2.17425e-07
-1.67823e-08
-8.56383e-08
-5.29964e-07
-5.61116e-07
-8.55733e-07
1.31149e-07
-7.35596e-07
-8.32418e-07
-1.01898e-06
-6.18799e-07
-9.08163e-07
-5.09757e-07
-2.80554e-07
4.44946e-07
-3.67245e-07
-4.74474e-07
-2.60457e-07
4.56477e-08
2.88718e-07
4.50499e-07
4.15192e-07
4.47562e-07
4.02307e-07
5.11194e-07
3.89533e-07
4.12106e-07
2.44339e-07
2.80562e-07
1.15433e-07
1.00829e-07
-1.08709e-07
-2.63231e-07
-4.89866e-07
-5.80932e-07
-2.59405e-07
-9.34744e-07
-1.4816e-06
-1.63686e-06
-1.66546e-06
-1.82346e-06
-1.75205e-06
-2.48112e-07
-3.12834e-07
-3.72425e-07
-1.832e-07
2.87484e-08
2.91758e-07
3.38423e-07
4.01764e-07
3.56425e-07
4.51248e-07
4.36383e-07
4.57813e-07
3.57266e-07
3.36003e-07
2.72649e-07
2.45247e-07
1.50207e-07
6.30572e-08
-1.48691e-07
-2.37613e-07
-3.7625e-07
1.10314e-07
-4.51573e-07
-8.6287e-07
-8.27241e-07
-8.27185e-07
-5.61648e-07
-4.0672e-07
-4.00489e-07
-2.73813e-07
-1.61075e-07
6.97701e-08
2.33461e-07
2.8874e-07
3.25439e-07
3.24917e-07
4.43964e-07
4.11816e-07
4.39251e-07
3.08415e-07
3.24313e-07
2.07193e-07
2.29858e-07
9.78752e-08
8.56208e-08
-1.24153e-07
-1.61844e-07
-3.38978e-07
-1.68188e-07
-8.12087e-07
-1.24355e-06
-1.69364e-06
-1.73227e-06
-1.9484e-06
-1.7531e-06
-3.17035e-07
-1.09924e-07
8.1685e-08
1.65772e-07
2.72042e-07
2.39315e-07
3.6783e-07
3.6315e-07
4.62598e-07
3.57114e-07
3.76105e-07
2.80594e-07
3.0854e-07
2.42217e-07
2.48067e-07
1.62181e-07
1.00109e-07
1.12662e-09
-3.61346e-09
1.13778e-07
-2.1509e-07
-6.08691e-07
-7.89818e-07
-7.00182e-07
-5.79824e-07
-1.98189e-07
-1.7682e-07
-4.08162e-08
6.22697e-08
1.29607e-07
1.89773e-07
2.30442e-07
3.35436e-07
3.75478e-07
4.12888e-07
3.36767e-07
3.37855e-07
2.4363e-07
2.70114e-07
1.72736e-07
2.04828e-07
7.30249e-08
7.38163e-08
-8.00626e-08
-7.11528e-08
-2.06423e-07
-5.28345e-07
-1.05855e-06
-1.45702e-06
-1.78158e-06
-1.96995e-06
-1.84034e-06
-8.78429e-08
-3.08857e-08
1.31193e-07
1.21236e-07
2.62113e-07
2.70868e-07
4.03538e-07
3.20346e-07
3.65075e-07
2.62934e-07
3.00649e-07
2.35217e-07
2.75549e-07
2.28255e-07
2.49782e-07
1.57747e-07
1.90627e-07
1.01191e-07
2.17346e-07
-1.12457e-07
-2.50927e-07
-6.44221e-07
-5.2395e-07
-5.39616e-07
4.5417e-08
-1.12873e-07
2.23182e-07
-4.9497e-08
9.51198e-08
2.14564e-07
2.96e-07
3.38172e-07
3.1153e-07
3.09125e-07
2.43031e-07
2.59109e-07
1.88405e-07
2.19601e-07
1.34729e-07
1.29465e-07
6.13105e-08
2.16027e-08
-3.65286e-08
-1.43686e-07
-3.91213e-07
-7.99467e-07
-1.19123e-06
-1.65373e-06
-1.87408e-06
-1.96447e-06
-2.71851e-07
-1.49642e-08
4.96265e-08
1.41376e-07
3.04748e-07
2.46409e-07
3.12435e-07
2.14717e-07
2.62076e-07
1.86202e-07
2.36531e-07
1.87642e-07
2.35833e-07
1.60762e-07
2.26546e-07
1.28364e-07
2.3001e-07
9.90089e-08
1.2615e-07
-2.10278e-07
-2.118e-07
-5.26641e-07
-2.18282e-07
5.81993e-10
2.69005e-07
-2.02075e-07
-2.95176e-08
1.46067e-07
2.16016e-07
2.4194e-07
2.34654e-07
2.06631e-07
2.09199e-07
1.67345e-07
1.87298e-07
1.35452e-07
9.64463e-08
6.63652e-08
4.16471e-08
2.81625e-12
-3.37098e-08
-1.53419e-07
-2.87897e-07
-6.48124e-07
-9.07027e-07
-1.46696e-06
-1.64888e-06
-2.01052e-06
-3.52171e-07
-2.14733e-08
-2.66667e-08
1.5918e-07
1.43544e-07
2.23737e-07
1.45266e-07
1.99353e-07
1.21117e-07
1.72583e-07
1.17531e-07
1.46633e-07
8.2019e-08
1.33935e-07
9.47867e-08
1.41726e-07
1.07276e-07
1.34905e-07
5.60128e-08
-2.55065e-08
-1.37799e-07
-2.41805e-07
-1.33587e-07
1.32764e-07
-1.94678e-07
4.01174e-08
8.3934e-08
1.49038e-07
1.43206e-07
1.42479e-07
1.26078e-07
1.14922e-07
1.23066e-07
9.8223e-08
4.2892e-08
4.8405e-09
-1.63005e-08
-1.69594e-08
-4.59473e-08
-7.86352e-08
-1.73516e-07
-2.69254e-07
-5.43776e-07
-7.22764e-07
-1.23764e-06
-1.38614e-06
-1.83715e-06
-9.96221e-08
6.7909e-08
6.55565e-08
1.46102e-07
7.18701e-08
1.30269e-07
5.67215e-08
1.04476e-07
5.14295e-08
5.24717e-08
-1.58063e-08
-6.08219e-09
-6.5297e-09
3.44824e-08
3.28707e-08
6.27803e-08
2.73356e-08
5.48862e-08
-6.31896e-08
-2.41782e-09
-1.83376e-07
7.16788e-08
2.29107e-07
-4.90462e-08
7.3489e-08
3.42875e-08
1.67272e-07
3.58957e-08
6.44988e-08
5.03043e-08
3.96901e-08
-1.30386e-08
-5.97218e-08
-1.04925e-07
-8.17614e-08
-8.08854e-08
-8.46203e-08
-1.3316e-07
-1.9393e-07
-2.85757e-07
-4.72275e-07
-6.11588e-07
-1.02347e-06
-1.12436e-06
-1.61193e-06
1.54476e-08
2.14934e-08
2.24373e-07
7.52688e-08
4.64125e-08
1.35813e-08
-2.2512e-10
-1.27074e-08
-8.37916e-08
-1.22942e-07
-1.25991e-07
-8.41457e-08
-4.2955e-08
-2.52622e-08
-2.12841e-08
-2.89127e-08
-1.77923e-08
-6.64992e-08
-7.32552e-09
-1.14445e-07
1.41629e-07
1.99869e-07
-3.14246e-08
2.65563e-07
1.42041e-07
1.48171e-07
-2.15761e-08
1.42144e-08
-5.39685e-08
-7.67388e-08
-1.11575e-07
-1.68092e-07
-1.59075e-07
-1.29293e-07
-1.05316e-07
-1.14491e-07
-1.59789e-07
-2.05736e-07
-2.91608e-07
-4.10028e-07
-5.40482e-07
-8.17111e-07
-9.47049e-07
-1.27321e-06
-2.6624e-08
3.65811e-07
-3.22769e-08
1.62314e-07
-1.80003e-07
-8.36911e-08
-1.56137e-07
-1.91313e-07
-1.99924e-07
-1.78944e-07
-1.16054e-07
-7.96281e-08
-6.60428e-08
-7.13792e-08
-6.97466e-08
-6.97206e-08
-7.69325e-08
-3.90446e-08
-6.99128e-08
1.1303e-07
2.50054e-07
7.47004e-07
-3.31296e-08
3.49523e-07
-2.47158e-07
-9.20146e-08
-2.38183e-07
-2.39681e-07
-2.28934e-07
-2.08793e-07
-1.74212e-07
-1.23011e-07
-1.05532e-07
-1.18459e-07
-1.57057e-07
-1.96686e-07
-2.69984e-07
-3.47199e-07
-4.64288e-07
-6.46751e-07
-7.58028e-07
-9.99172e-07
-1.36214e-07
3.91689e-07
-1.54789e-08
-1.24832e-07
-2.01657e-07
-3.64945e-07
-2.85336e-07
-2.33879e-07
-2.21469e-07
-1.61448e-07
-1.12028e-07
-8.28484e-08
-8.23811e-08
-8.88343e-08
-9.26968e-08
-9.11679e-08
-8.63176e-08
-5.95954e-08
-5.50371e-08
8.37895e-08
2.06912e-07
3.74598e-07
-1.67695e-07
5.88675e-09
-4.38047e-07
-3.09048e-07
-2.30041e-07
-2.45558e-07
-2.0355e-07
-1.34862e-07
-9.7856e-08
-8.47368e-08
-9.98995e-08
-1.35913e-07
-1.65664e-07
-2.2789e-07
-2.74958e-07
-3.82135e-07
-4.85596e-07
-6.13231e-07
-7.54784e-07
-1.92041e-07
1.92338e-07
-2.76834e-07
-2.57582e-07
-1.89086e-07
-2.59772e-07
-2.56567e-07
-2.02708e-07
-1.40174e-07
-8.41459e-08
-7.13299e-08
-7.62601e-08
-8.9582e-08
-9.13789e-08
-9.71911e-08
-8.21723e-08
-7.48372e-08
-4.95602e-08
4.89851e-08
1.52371e-07
-1.42486e-07
-1.00728e-07
-1.80557e-07
-1.55343e-07
-3.02217e-07
-1.81689e-07
-2.35945e-07
-1.3505e-07
-7.51063e-08
-5.3322e-08
-8.20849e-08
-9.23858e-08
-1.36138e-07
-1.60748e-07
-2.15633e-07
-2.81483e-07
-3.61128e-07
-4.53391e-07
-5.81919e-07
1.63869e-07
-2.34315e-07
7.40938e-08
-3.16917e-07
-4.89319e-08
-3.11649e-07
-2.28217e-07
-1.4449e-07
-7.66307e-08
-6.20653e-08
-6.05936e-08
-7.88157e-08
-7.94377e-08
-8.71506e-08
-7.74299e-08
-7.64739e-08
-4.72221e-08
1.58115e-08
7.71655e-08
-4.16194e-07
2.26257e-07
-2.00292e-07
4.05335e-08
-2.35501e-07
-2.36217e-07
-1.90968e-07
-1.68684e-07
-7.59904e-08
-5.20532e-08
-4.87807e-08
-7.02974e-08
-8.69546e-08
-1.14821e-07
-1.47927e-07
-1.99146e-07
-2.45692e-07
-3.66379e-07
-4.02352e-07
-2.56589e-07
3.30826e-08
-1.13302e-07
-1.02194e-07
-2.00789e-07
-2.64472e-07
-1.67618e-07
-9.21428e-08
-4.65954e-08
-5.77313e-08
-5.51342e-08
-7.09497e-08
-6.68799e-08
-7.49552e-08
-6.63007e-08
-7.05039e-08
-3.08903e-08
4.66778e-08
1.68546e-07
-1.33528e-07
8.56155e-08
-1.9294e-07
-2.52511e-07
-2.32271e-07
-1.66379e-07
-7.75513e-08
-4.3803e-08
-3.62837e-08
-4.47069e-08
-5.73461e-08
-7.50399e-08
-1.0055e-07
-1.33116e-07
-1.98913e-07
-2.30961e-07
-3.43024e-07
-3.84478e-07
2.13941e-07
-1.00865e-07
-1.37915e-07
-1.92139e-07
-2.52539e-07
-1.28755e-07
-5.65388e-08
-4.24336e-08
-3.55728e-08
-4.96896e-08
-5.46826e-08
-6.61717e-08
-6.64837e-08
-8.36072e-08
-7.66713e-08
-8.32916e-08
1.16335e-07
-1.6649e-07
-1.21347e-08
-1.02621e-07
-2.69569e-07
-1.43949e-07
-4.36216e-08
-2.77506e-08
-2.39451e-08
-2.38658e-08
-3.44226e-08
-4.74657e-08
-5.90991e-08
-7.7301e-08
-1.07678e-07
-1.36902e-07
-1.34118e-07
-5.01061e-07
1.47838e-07
-7.26382e-08
-1.78974e-07
-1.32806e-07
-9.68725e-09
-1.24675e-08
-3.43744e-08
-1.99842e-08
-3.99997e-08
-5.15292e-08
-6.61679e-08
-7.12753e-08
-8.29463e-08
-8.22783e-08
-9.16554e-08
-1.2563e-07
-3.06716e-07
-4.91849e-09
-8.69268e-08
2.13636e-08
-1.01446e-08
-3.72587e-08
-1.04744e-08
-7.36561e-08
-5.66317e-08
-5.81024e-08
-6.23755e-08
-6.95532e-08
-7.36291e-08
-8.54121e-08
-1.0039e-07
-1.66462e-07
-1.70799e-07
6.02093e-08
-2.71806e-08
-3.05659e-08
8.7857e-10
-1.65666e-07
-7.40732e-08
-6.39499e-08
-7.43168e-08
-8.18763e-08
-8.60985e-08
-8.30916e-08
-9.4035e-08
-7.94644e-08
-7.48431e-08
1.92433e-07
-5.55645e-08
-4.24204e-08
-1.27771e-08
-2.61853e-07
-6.39253e-08
-4.99906e-08
-5.56051e-08
-6.98511e-08
-7.61372e-08
-7.2293e-08
-7.13409e-08
-7.22188e-08
-6.99382e-08
-9.68955e-08
-2.66052e-07
6.87515e-09
-3.95547e-09
-2.81828e-07
-2.30305e-08
-1.34816e-08
-1.00607e-08
-4.95283e-08
-6.34986e-08
-7.39299e-08
-7.31383e-08
-7.66024e-08
-6.83269e-08
-7.79838e-08
-4.29066e-08
-1.15789e-07
-2.35006e-07
-7.34082e-09
5.1186e-09
2.52526e-08
-2.89193e-08
-3.31713e-08
-5.84316e-08
-4.73757e-08
-5.7841e-08
-4.91761e-08
-4.8965e-08
-4.85529e-08
-5.50657e-08
-9.34662e-08
-1.75086e-08
-1.67166e-09
3.16987e-08
-1.39694e-08
1.13171e-09
-4.00456e-08
-9.82608e-09
-5.95743e-08
-3.69223e-08
-4.25425e-08
-5.48137e-08
-4.35258e-08
-4.26521e-08
-1.67816e-07
3.73574e-09
2.18811e-08
-1.59141e-08
8.8337e-09
-3.87466e-08
9.43499e-09
-7.62465e-08
-7.05696e-09
-6.6388e-08
-4.35924e-08
-3.20075e-08
-2.97668e-08
-3.80852e-08
-8.84067e-08
-3.46962e-08
-6.68909e-09
-4.6391e-08
6.95662e-09
-8.40482e-08
2.12333e-08
-1.44466e-07
-4.22953e-08
-3.48674e-08
-2.47328e-08
-3.82089e-08
-2.03845e-08
3.26627e-09
-9.08414e-09
-5.4919e-08
-2.83003e-09
-7.64586e-08
2.27945e-08
-2.27099e-07
-2.94054e-08
-3.23157e-08
-5.47255e-09
-1.77759e-08
-1.30963e-08
-2.10701e-08
1.71906e-08
-5.19908e-08
5.54423e-09
-4.85501e-08
2.18171e-08
-2.37253e-07
7.53368e-09
-2.42765e-08
3.13098e-08
-1.90697e-09
4.18152e-10
-3.50004e-09
-9.06804e-09
-4.45259e-08
3.7282e-08
-1.29807e-08
2.08025e-08
-1.81083e-07
2.73307e-08
-2.80888e-08
5.58736e-08
-1.16969e-08
2.35081e-08
-4.82776e-09
1.00157e-08
4.83568e-09
-4.88488e-09
1.25925e-08
-1.03192e-07
1.81011e-08
-3.20973e-08
5.65288e-08
-2.70573e-08
4.51862e-08
-2.11981e-08
4.12691e-08
3.32462e-09
2.46085e-08
-6.07356e-08
-3.96224e-08
-2.66513e-09
-1.95735e-08
3.25112e-08
-3.82536e-08
3.988e-08
-4.66868e-08
4.86916e-08
-2.74845e-08
3.92197e-08
-3.63155e-08
4.34162e-08
-2.48579e-08
9.23585e-09
-6.33366e-09
-5.00054e-08
1.66774e-08
-5.941e-08
3.72055e-08
-6.05977e-08
4.35329e-08
-7.1387e-08
-1.40782e-07
5.2595e-08
-1.28411e-08
-4.99263e-08
-3.53272e-10
-5.5952e-08
2.26327e-08
-7.53278e-08
3.47335e-08
-1.16081e-07
6.14029e-08
-5.44523e-08
-2.39569e-08
-4.01293e-10
-3.41041e-08
1.19244e-08
-6.66154e-08
2.86612e-08
-1.65538e-07
3.01811e-08
-7.23681e-08
3.64915e-08
6.336e-09
-5.92683e-09
9.01413e-10
-4.72055e-08
2.43784e-08
-1.68248e-07
3.03427e-08
-8.24809e-08
7.30084e-08
-2.03203e-08
2.8803e-09
-5.42274e-09
-2.3393e-08
1.80259e-08
-1.28836e-07
4.38038e-08
-1.18552e-07
4.15966e-08
-6.61793e-08
4.89802e-08
-9.56059e-09
3.17082e-09
7.79435e-10
-8.17013e-08
3.68867e-08
-1.31213e-07
4.66828e-08
-5.43659e-08
6.04244e-08
-7.35053e-08
3.70673e-08
-4.79228e-09
-4.34414e-08
2.22735e-08
-1.19258e-07
5.14562e-08
-7.7423e-08
3.4652e-08
-3.82225e-08
-2.79305e-08
-8.90647e-09
2.34696e-08
-8.5824e-08
5.06481e-08
-9.07823e-08
4.41077e-08
-2.18176e-08
4.43227e-08
3.94053e-08
2.40439e-08
-3.90155e-08
4.70544e-08
-8.35369e-08
5.33558e-08
-2.54864e-08
4.38947e-08
-1.93457e-08
7.23374e-09
-3.49699e-09
3.51675e-08
-6.33273e-08
5.44282e-08
-4.8071e-08
4.76254e-08
-3.55798e-08
4.25514e-08
2.46515e-08
-3.08594e-08
4.68662e-08
-6.13247e-08
4.24564e-08
-2.13399e-08
4.45041e-08
2.05218e-08
-5.80574e-09
3.23098e-08
-4.5044e-08
5.13907e-08
-3.14669e-08
3.32366e-08
-2.2313e-08
2.57506e-08
2.55304e-08
-1.35081e-08
4.54296e-08
-3.43334e-08
4.19969e-08
-1.45694e-08
3.72757e-08
1.97767e-08
2.24994e-08
-1.90227e-08
4.44578e-08
-1.88568e-08
3.22016e-08
-1.249e-08
-1.11038e-08
-6.63465e-09
2.40282e-08
-3.15743e-08
3.94578e-08
-1.06213e-08
3.59689e-08
1.67781e-08
8.69358e-09
-2.14165e-08
3.61523e-08
-2.79859e-08
2.93313e-08
-1.16954e-08
-9.4205e-09
-6.78675e-09
1.62636e-08
-3.18536e-08
2.58461e-08
-5.45044e-09
2.45451e-08
1.25778e-08
7.60969e-09
-2.04363e-08
2.00976e-08
-1.14401e-08
1.58394e-08
-6.09262e-10
-6.40586e-09
-6.98186e-09
1.33577e-08
-1.95736e-08
1.38417e-08
-6.25535e-09
1.83093e-08
1.02295e-08
8.34266e-09
-1.74492e-08
1.18662e-08
-1.73264e-08
1.89921e-08
7.0822e-10
-7.34787e-09
1.1572e-08
-1.38366e-08
9.0648e-09
-1.44254e-08
5.63489e-09
1.03334e-08
-6.86854e-09
1.28575e-08
-6.05801e-09
1.25791e-08
5.2068e-09
1.09817e-08
-1.48829e-10
1.0516e-08
-2.58561e-09
-4.95148e-09
-3.03524e-09
7.77868e-09
-3.14861e-09
1.07776e-08
9.01308e-09
9.71363e-09
1.77847e-09
1.18538e-08
2.40484e-09
2.75422e-09
-4.03846e-10
8.13581e-09
-8.82525e-10
1.12734e-08
1.66063e-08
1.33339e-08
8.78841e-09
1.49427e-08
8.05088e-09
1.73356e-08
7.29263e-09
8.38918e-09
5.84721e-09
8.55017e-09
)
;

boundaryField
{
    inlet
    {
        type            extrapolatedCalculated;
        value           nonuniform List<scalar> 5(1.73356e-08 7.29263e-09 8.38918e-09 5.84721e-09 8.55017e-09);
    }
    outlet
    {
        type            extrapolatedCalculated;
        value           nonuniform List<scalar> 0();
    }
    walls
    {
        type            extrapolatedCalculated;
        value           nonuniform List<scalar> 
28
(
-7.00482e-06
-1.42341e-06
-1.58119e-07
-8.5749e-08
4.46112e-07
2.90111e-07
6.01325e-07
3.3369e-07
5.12866e-07
2.70389e-07
5.59047e-07
2.26025e-07
6.45841e-07
3.40069e-08
3.62891e-07
-1.03798e-06
-1.63179e-06
-1.80049e-06
-1.7558e-06
-1.24178e-06
-1.18945e-06
1.57558e-06
-2.81452e-06
-1.08238e-06
-1.46506e-06
-1.54449e-06
-2.56979e-06
-2.55612e-06
)
;
    }
    frontAndBack
    {
        type            empty;
    }
    procBoundary1to0
    {
        type            processor;
        value           nonuniform List<scalar> 
94
(
1.92206e-06
1.92206e-06
9.23758e-07
9.23758e-07
3.48236e-07
3.48236e-07
7.21813e-07
7.21813e-07
3.57748e-07
3.57748e-07
-3.00595e-07
-3.00595e-07
-9.68869e-08
-1.54316e-07
-1.54316e-07
-5.57896e-08
2.07152e-07
2.07152e-07
-1.47112e-07
2.07054e-07
1.33829e-07
1.33829e-07
-3.73144e-08
1.16443e-08
1.16443e-08
-3.12893e-08
2.66118e-08
2.86043e-07
2.86043e-07
-1.6681e-07
4.4239e-07
4.69245e-07
4.69245e-07
4.44143e-07
3.79994e-07
3.79994e-07
-8.99294e-08
2.47229e-07
2.82523e-07
2.82523e-07
-1.46783e-07
2.35249e-07
2.87195e-07
2.87195e-07
-8.53098e-08
2.1752e-07
2.11679e-07
2.11679e-07
-1.14901e-07
2.66808e-07
2.05877e-07
2.05877e-07
-7.76843e-08
2.52687e-08
5.71162e-08
5.71162e-08
-6.69138e-08
1.72704e-08
1.05649e-07
5.7789e-08
5.7789e-08
3.88645e-08
-7.76016e-08
1.09613e-07
1.12932e-07
1.12932e-07
-1.6534e-08
6.53254e-08
-3.77524e-08
7.89072e-08
8.19913e-08
8.19913e-08
-6.22936e-09
5.1836e-08
-7.78787e-10
4.34827e-08
2.51118e-08
1.46077e-08
1.46077e-08
2.08916e-08
-1.61884e-08
1.77227e-08
-1.33795e-08
1.70104e-08
-8.56103e-09
1.4207e-08
6.00477e-09
3.44157e-09
3.44157e-09
9.11081e-09
-3.73813e-09
1.40756e-08
5.19877e-09
1.18614e-08
)
;
    }
    procBoundary1to2
    {
        type            processor;
        value           nonuniform List<scalar> 
84
(
-5.00855e-07
2.24967e-07
-1.04464e-06
-5.66267e-07
-1.72747e-06
-1.38994e-06
-1.78698e-06
-1.99063e-06
-1.86492e-06
-2.52167e-06
-1.59877e-06
-2.81454e-06
-1.33276e-06
-3.02251e-06
-9.90399e-07
-2.97922e-06
-5.67684e-07
-2.78386e-06
-3.03831e-07
-2.36612e-06
2.32442e-07
-1.90226e-06
3.21323e-07
-1.47042e-06
4.41978e-07
-1.11137e-06
3.51731e-07
-8.51169e-07
1.81873e-07
-6.67728e-07
8.67426e-08
-4.87922e-07
-2.53766e-08
-3.73233e-07
-5.21395e-08
-2.20532e-07
-8.69913e-08
-2.41862e-07
-1.52394e-07
-1.52394e-07
-1.36403e-07
-1.27072e-07
-5.28895e-08
-1.10954e-07
-3.51017e-08
-6.78694e-08
-2.52398e-08
-6.25079e-08
-1.45598e-08
-1.28637e-08
2.2503e-09
3.40368e-09
1.53013e-08
8.55604e-08
8.55604e-08
-7.42912e-08
8.54239e-08
-7.14448e-08
6.49532e-08
-3.05018e-08
4.31692e-08
-1.18269e-08
2.79421e-08
6.09189e-08
6.09189e-08
-1.14342e-08
3.10365e-08
-6.1485e-09
3.27436e-08
2.45113e-10
3.16506e-08
2.12703e-09
1.85081e-08
1.96734e-09
-1.46678e-08
-1.46678e-08
3.38104e-09
-6.86677e-09
1.16125e-08
6.32101e-10
1.80878e-08
3.9938e-09
2.36747e-08
1.37681e-08
)
;
    }
    procBoundary1to5
    {
        type            processor;
        value           nonuniform List<scalar> 
13
(
-2.02602e-06
-2.02602e-06
-7.3334e-07
-1.7211e-06
-1.7211e-06
-1.27904e-06
-1.10365e-06
-1.10365e-06
-1.02465e-06
-1.58348e-06
1.99533e-06
1.99533e-06
1.41463e-06
)
;
    }
}


// ************************************************************************* //
