/*--------------------------------*- C++ -*----------------------------------*\
| =========                 |                                                 |
| \\      /  F ield         | OpenFOAM: The Open Source CFD Toolbox           |
|  \\    /   O peration     | Version:  2506                                  |
|   \\  /    A nd           | Website:  www.openfoam.com                      |
|    \\/     M anipulation  |                                                 |
\*---------------------------------------------------------------------------*/
FoamFile
{
    version     2.0;
    format      ascii;
    arch        "LSB;label=32;scalar=64";
    class       volScalarField;
    location    "450";
    object      turbulenceProperties:epsilon;
}
// * * * * * * * * * * * * * * * * * * * * * * * * * * * * * * * * * * * * * //

dimensions      [0 2 -3 0 0 0 0];

internalField   nonuniform List<scalar> 
1340
(
0.00631142
0.00685257
0.0122584
0.0258981
0.0542434
0.107194
0.197731
0.340207
0.553774
0.870459
1.35304
2.12201
3.40242
5.64714
9.7147
17.6458
33.2324
67.6701
140.858
318.996
663.28
945.051
1066.93
1100.19
1101.75
1088.14
1062.38
1025.39
0.00354115
0.00273952
0.002091
0.00153415
0.00108411
0.00075735
0.000526721
0.000363723
0.000249043
0.000169131
0.00011332
7.46795e-05
4.72824e-05
2.7571e-05
1.31807e-05
4.21845e-06
4.013e-07
6.84171e-09
5.5948e-08
0.000986785
0.00606627
0.0512888
0.170777
0.319801
0.466712
0.615418
0.773901
0.946815
1.1346
0.00226319
0.00182811
0.00146527
0.00113382
0.000824578
0.000571969
0.000384965
0.000253508
0.000165598
0.000108228
7.19472e-05
4.93524e-05
3.55845e-05
2.70797e-05
2.18919e-05
1.88162e-05
1.72177e-05
1.63646e-05
1.63056e-05
1.61195e-05
1.82309e-05
6.37652e-06
0.000167584
0.000992373
0.00208857
0.00364295
0.0095926
0.0265269
0.0598482
0.00161311
0.00139175
0.00117414
0.000967212
0.000765316
0.000581454
0.000431985
0.00031837
0.000234335
0.000173349
0.000129291
9.78789e-05
7.55207e-05
5.96704e-05
4.81438e-05
3.96878e-05
3.3216e-05
2.79053e-05
2.28189e-05
1.81257e-05
1.4635e-05
1.22458e-05
1.06583e-05
8.88551e-06
6.83642e-06
3.86213e-06
1.53706e-06
2.28686e-05
1.51619e-05
6.81357e-05
0.00101935
0.000898222
0.000776693
0.000656842
0.000536839
0.000424835
0.000327908
0.000248292
0.000184947
0.000136048
9.92584e-05
7.22563e-05
5.28538e-05
3.91578e-05
2.95088e-05
2.27133e-05
1.78296e-05
1.41648e-05
1.10619e-05
8.30118e-06
6.10312e-06
4.59806e-06
3.68303e-06
3.31212e-06
2.83273e-06
4.17117e-06
2.07527e-07
8.54825e-06
5.18242e-05
1.07837e-05
0.000729506
0.00066561
0.000595698
0.000524996
0.000453184
0.000379941
0.00031015
0.000247712
0.000194527
0.00015075
0.00011578
8.85947e-05
6.7915e-05
5.24538e-05
4.10264e-05
3.25765e-05
2.62687e-05
2.1413e-05
1.74699e-05
1.39443e-05
1.07035e-05
8.0157e-06
5.98798e-06
4.51792e-06
3.44446e-06
2.66253e-06
2.07183e-06
1.59715e-06
1.01394e-06
5.10438e-07
1.5479e-07
0.000485864
0.000447216
0.000405698
0.000362746
0.000318225
0.000272754
0.000228739
0.00018818
0.000152256
0.000121385
9.5599e-05
7.46305e-05
5.79539e-05
4.49659e-05
3.50183e-05
2.74511e-05
2.16954e-05
1.72522e-05
1.37026e-05
1.06764e-05
8.02404e-06
5.85967e-06
4.23747e-06
3.07547e-06
2.24987e-06
1.67435e-06
1.29948e-06
1.08202e-06
9.67269e-07
8.21484e-07
4.25044e-07
0.000332264
0.000307828
0.0002822
0.00025524
0.000226966
0.000198169
0.000169886
0.000143243
0.000118957
9.73945e-05
7.87667e-05
6.31164e-05
5.02562e-05
3.99306e-05
3.17885e-05
2.54258e-05
2.04513e-05
1.651e-05
1.32879e-05
1.05113e-05
8.06641e-06
6.03469e-06
4.4625e-06
3.28965e-06
2.41531e-06
1.76318e-06
1.28436e-06
9.34607e-07
6.79208e-07
4.9215e-07
3.75347e-07
0.000245536
0.000232043
0.000216263
0.000199876
0.000182479
0.000164164
0.000145555
0.000127122
0.000109452
9.29633e-05
7.79056e-05
6.44818e-05
5.28127e-05
4.28948e-05
3.46459e-05
2.7912e-05
2.24828e-05
1.81242e-05
1.45991e-05
1.16863e-05
9.19675e-06
7.04119e-06
5.25463e-06
3.86647e-06
2.82985e-06
2.0629e-06
1.49894e-06
1.0928e-06
8.11173e-07
6.24602e-07
5.09041e-07
4.47791e-07
0.000164965
0.000154567
0.000143757
0.000132247
0.00012019
0.000107952
9.57606e-05
8.39325e-05
7.26816e-05
6.21556e-05
5.25254e-05
4.39135e-05
3.63665e-05
2.99025e-05
2.44659e-05
1.99587e-05
1.62487e-05
1.31847e-05
1.06165e-05
8.41542e-06
6.51119e-06
4.92237e-06
3.66882e-06
2.71557e-06
1.9978e-06
1.45972e-06
1.06233e-06
7.74742e-07
5.69411e-07
4.30194e-07
3.40774e-07
0.000112079
0.000104771
9.69955e-05
8.8931e-05
8.07651e-05
7.25909e-05
6.45886e-05
5.68717e-05
4.95164e-05
4.26255e-05
3.63003e-05
3.05998e-05
2.55683e-05
2.12133e-05
1.74994e-05
1.436e-05
1.17102e-05
9.4569e-06
7.51614e-06
5.84107e-06
4.43992e-06
3.32318e-06
2.46504e-06
1.81506e-06
1.32715e-06
9.67463e-07
7.09338e-07
5.2973e-07
4.12179e-07
3.40301e-07
7.72343e-05
7.18928e-05
6.64161e-05
6.08817e-05
5.53376e-05
4.98781e-05
4.45551e-05
3.9396e-05
3.44732e-05
2.98517e-05
2.55774e-05
2.1703e-05
1.82529e-05
1.52328e-05
1.26191e-05
1.03675e-05
8.42145e-06
6.73087e-06
5.27007e-06
4.04135e-06
3.05088e-06
2.27965e-06
1.68902e-06
1.24147e-06
9.079e-07
6.65304e-07
4.92825e-07
3.76358e-07
3.0322e-07
5.37783e-05
5.00047e-05
4.62086e-05
4.24056e-05
3.86436e-05
3.49469e-05
3.13239e-05
2.78049e-05
2.44351e-05
2.1249e-05
1.82896e-05
1.5586e-05
1.31565e-05
1.10018e-05
9.10515e-06
7.43921e-06
5.97904e-06
4.71161e-06
3.63962e-06
2.76616e-06
2.07787e-06
1.54571e-06
1.13958e-06
8.35177e-07
6.12951e-07
4.55097e-07
3.48773e-07
2.82408e-07
3.79189e-05
3.52815e-05
3.26434e-05
3.00317e-05
2.74503e-05
2.48933e-05
2.23792e-05
1.99288e-05
1.75632e-05
1.53168e-05
1.32164e-05
1.12825e-05
9.52541e-06
7.94623e-06
6.53616e-06
5.28782e-06
4.19736e-06
3.26795e-06
2.50272e-06
1.89224e-06
1.41511e-06
1.04782e-06
7.70276e-07
5.65978e-07
4.19404e-07
3.19366e-07
2.55791e-07
2.70829e-05
2.52358e-05
2.34051e-05
2.15896e-05
1.97793e-05
1.79784e-05
1.6199e-05
1.44507e-05
1.27551e-05
1.11338e-05
9.60673e-06
8.18932e-06
6.88973e-06
5.70926e-06
4.64957e-06
3.71634e-06
2.91546e-06
2.24919e-06
1.71118e-06
1.28612e-06
9.5602e-07
7.04614e-07
5.18233e-07
3.83708e-07
2.91327e-07
2.32024e-07
2.0887e-05
1.95803e-05
1.82885e-05
1.70044e-05
1.57158e-05
1.4424e-05
1.313e-05
1.184e-05
1.05661e-05
9.32339e-06
8.12794e-06
6.99433e-06
5.93438e-06
4.95504e-06
4.06503e-06
3.27341e-06
2.58787e-06
2.01126e-06
1.54006e-06
1.16366e-06
8.68584e-07
6.41931e-07
4.72531e-07
3.4926e-07
2.63777e-07
2.08123e-07
1.52446e-05
1.43242e-05
1.34089e-05
1.24882e-05
1.1558e-05
1.06176e-05
9.6667e-06
8.71328e-06
7.76574e-06
6.83655e-06
5.93783e-06
5.08078e-06
4.2754e-06
3.5335e-06
2.86693e-06
2.28367e-06
1.78788e-06
1.37787e-06
1.04663e-06
7.84413e-07
5.81225e-07
4.28069e-07
3.15747e-07
2.37171e-07
1.85361e-07
1.19041e-05
1.12437e-05
1.05873e-05
9.92505e-06
9.25314e-06
8.568e-06
7.86755e-06
7.15537e-06
6.43622e-06
5.71792e-06
5.01058e-06
4.32431e-06
3.66849e-06
3.05475e-06
2.49643e-06
2.00358e-06
1.58014e-06
1.22572e-06
9.36064e-07
7.04419e-07
5.23255e-07
3.85457e-07
2.83558e-07
2.11586e-07
1.63495e-07
8.84303e-06
8.36884e-06
7.88992e-06
7.4022e-06
6.90202e-06
6.38582e-06
5.85442e-06
5.31034e-06
4.75855e-06
4.20532e-06
3.6589e-06
3.12816e-06
2.62494e-06
2.16172e-06
1.74804e-06
1.38851e-06
1.08399e-06
8.32212e-07
6.2875e-07
4.68103e-07
3.4476e-07
2.52791e-07
1.87191e-07
1.42799e-07
6.96722e-06
6.62201e-06
6.27378e-06
5.91828e-06
5.55176e-06
5.17086e-06
4.77483e-06
4.36398e-06
3.94128e-06
3.51127e-06
3.07961e-06
2.65337e-06
2.24337e-06
1.86137e-06
1.51622e-06
1.21286e-06
9.52878e-07
7.35419e-07
5.57779e-07
4.16127e-07
3.06296e-07
2.23696e-07
1.64175e-07
1.23402e-07
5.49792e-06
5.24498e-06
4.99003e-06
4.72966e-06
4.46014e-06
4.17831e-06
3.88301e-06
3.57353e-06
3.25091e-06
2.91772e-06
2.57851e-06
2.23873e-06
1.90702e-06
1.59368e-06
1.30747e-06
1.05316e-06
8.32611e-07
6.45936e-07
4.91739e-07
3.67512e-07
2.70217e-07
1.96397e-07
1.42651e-07
1.05419e-07
4.15833e-06
3.97027e-06
3.77826e-06
3.57936e-06
3.37039e-06
3.14982e-06
2.91663e-06
2.67092e-06
2.41407e-06
2.14868e-06
1.879e-06
1.61212e-06
1.35701e-06
1.12122e-06
9.09226e-07
7.23205e-07
5.63868e-07
4.30765e-07
3.22409e-07
2.36683e-07
1.71034e-07
1.22744e-07
8.8949e-08
3.29942e-06
3.15991e-06
3.01769e-06
2.86998e-06
2.71442e-06
2.54948e-06
2.37372e-06
2.18674e-06
1.98916e-06
1.78246e-06
1.56954e-06
1.35606e-06
1.14941e-06
9.56247e-07
7.8045e-07
6.24423e-07
4.89208e-07
3.74974e-07
2.80976e-07
2.05829e-07
1.47728e-07
1.0456e-07
7.40711e-08
2.51591e-06
2.40964e-06
2.29947e-06
2.18327e-06
2.05958e-06
1.92699e-06
1.78486e-06
1.6332e-06
1.47271e-06
1.30529e-06
1.13525e-06
9.68623e-07
8.11037e-07
6.66161e-07
5.36003e-07
4.21888e-07
3.24382e-07
2.43263e-07
1.77719e-07
1.2656e-07
8.81702e-08
6.08321e-08
2.00381e-06
1.92405e-06
1.84133e-06
1.75409e-06
1.66104e-06
1.5609e-06
1.45275e-06
1.3364e-06
1.21204e-06
1.08088e-06
9.46042e-07
8.12387e-07
6.84456e-07
5.65583e-07
4.57541e-07
3.61734e-07
2.78917e-07
2.09263e-07
1.52387e-07
1.07561e-07
7.35997e-08
4.92356e-08
1.59656e-06
1.53624e-06
1.47387e-06
1.40807e-06
1.33774e-06
1.2619e-06
1.17962e-06
1.09042e-06
9.94174e-07
8.91567e-07
7.84939e-07
6.78081e-07
5.7478e-07
4.77659e-07
3.88433e-07
3.08394e-07
2.38409e-07
1.78908e-07
1.298e-07
9.07058e-08
6.08255e-08
3.92552e-08
1.22669e-06
1.17932e-06
1.12944e-06
1.0762e-06
1.01856e-06
9.55798e-07
8.87391e-07
8.1302e-07
7.32928e-07
6.4887e-07
5.63718e-07
4.8055e-07
4.01533e-07
3.2814e-07
2.61557e-07
2.02699e-07
1.52097e-07
1.09892e-07
7.59649e-08
4.98122e-08
3.08331e-08
9.79711e-07
9.43521e-07
9.05514e-07
8.64942e-07
8.2103e-07
7.73075e-07
7.20533e-07
6.63051e-07
6.00629e-07
5.3448e-07
4.66822e-07
4.00078e-07
3.36014e-07
2.75891e-07
2.20751e-07
1.71476e-07
1.28646e-07
9.25466e-08
6.32492e-08
4.0479e-08
2.38808e-08
7.8264e-07
7.54838e-07
7.25716e-07
6.94687e-07
6.61104e-07
6.2437e-07
5.83992e-07
5.39536e-07
4.90902e-07
4.38915e-07
3.85241e-07
3.31839e-07
2.80075e-07
2.31003e-07
1.85525e-07
1.4444e-07
1.08353e-07
7.7615e-08
5.24336e-08
3.27096e-08
1.82806e-08
6.03928e-07
5.81503e-07
5.57687e-07
5.31922e-07
5.037e-07
4.72596e-07
4.38186e-07
4.00294e-07
3.59484e-07
3.1701e-07
2.74355e-07
2.32652e-07
1.92725e-07
1.55352e-07
1.21234e-07
9.09563e-08
6.49064e-08
4.33647e-08
2.63707e-08
1.38991e-08
4.83334e-07
4.65971e-07
4.47588e-07
4.27741e-07
4.06002e-07
3.81996e-07
3.55353e-07
3.25823e-07
2.93783e-07
2.6021e-07
2.26216e-07
1.92702e-07
1.60318e-07
1.2971e-07
1.01491e-07
7.61917e-08
5.42174e-08
3.58771e-08
2.13093e-08
1.05859e-08
3.73468e-07
3.59228e-07
3.4388e-07
3.27098e-07
3.0854e-07
2.87866e-07
2.64842e-07
2.39706e-07
2.13176e-07
1.86136e-07
1.59256e-07
1.33062e-07
1.08078e-07
8.48287e-08
6.37805e-08
4.5322e-08
2.97818e-08
1.73566e-08
8.18242e-09
2.99449e-07
2.88376e-07
2.76471e-07
2.63468e-07
2.49076e-07
2.3302e-07
2.15066e-07
1.95351e-07
1.74414e-07
1.52924e-07
1.31408e-07
1.10279e-07
8.99559e-08
7.08674e-08
5.34281e-08
3.79943e-08
2.48901e-08
1.43457e-08
6.53159e-09
2.40236e-07
2.3159e-07
2.22336e-07
2.1224e-07
2.01078e-07
1.88586e-07
1.74559e-07
1.59086e-07
1.42571e-07
1.25525e-07
1.08344e-07
9.13419e-08
7.48587e-08
5.92439e-08
4.48552e-08
3.20111e-08
2.10143e-08
1.21086e-08
5.48075e-09
1.86119e-07
1.78903e-07
1.71043e-07
1.62359e-07
1.52631e-07
1.41682e-07
1.29544e-07
1.16521e-07
1.0301e-07
8.93128e-08
7.56679e-08
6.23419e-08
4.96211e-08
3.77983e-08
2.71588e-08
1.79758e-08
1.04884e-08
4.88859e-09
1.4971e-07
1.44066e-07
1.37942e-07
1.31181e-07
1.23597e-07
1.15037e-07
1.05516e-07
9.52582e-08
8.45661e-08
7.36675e-08
6.2745e-08
5.20075e-08
4.16807e-08
3.20093e-08
2.32369e-08
1.56067e-08
9.3408e-09
4.6269e-09
1.20551e-07
1.16137e-07
1.11359e-07
1.06083e-07
1.0017e-07
9.34806e-08
8.60127e-08
7.79414e-08
6.94902e-08
6.08357e-08
5.21167e-08
4.34929e-08
3.51425e-08
2.72671e-08
2.00689e-08
1.37602e-08
8.54069e-09
4.58566e-09
9.3744e-08
9.00078e-08
8.5895e-08
8.1283e-08
7.60535e-08
7.01997e-08
6.38509e-08
5.71843e-08
5.03292e-08
4.33892e-08
3.6486e-08
2.97627e-08
2.33774e-08
1.75001e-08
1.23097e-08
7.98128e-09
4.67332e-09
7.57792e-08
7.28607e-08
6.96523e-08
6.60535e-08
6.19673e-08
5.73846e-08
5.24e-08
4.71489e-08
4.17306e-08
3.62224e-08
3.07173e-08
2.53261e-08
2.01732e-08
1.5398e-08
1.11493e-08
7.57583e-09
6.1359e-08
5.90782e-08
5.65762e-08
5.37709e-08
5.05827e-08
4.69972e-08
4.30893e-08
3.89618e-08
3.46906e-08
3.03333e-08
2.59594e-08
2.1654e-08
1.75158e-08
1.36553e-08
1.01944e-08
7.25748e-09
4.79925e-08
4.60425e-08
4.38569e-08
4.13709e-08
3.85702e-08
3.55118e-08
3.22765e-08
2.89191e-08
2.54833e-08
2.20214e-08
1.85984e-08
1.52904e-08
1.21851e-08
9.37997e-09
6.97682e-09
3.90634e-08
3.75443e-08
3.58443e-08
3.39101e-08
3.17267e-08
2.93383e-08
2.68077e-08
2.41763e-08
2.14767e-08
1.87477e-08
1.60384e-08
1.34067e-08
1.0921e-08
8.65843e-09
6.70043e-09
3.18585e-08
3.06795e-08
2.93604e-08
2.78568e-08
2.61576e-08
2.42973e-08
2.23238e-08
2.02686e-08
1.81548e-08
1.60121e-08
1.38767e-08
1.17929e-08
9.81291e-09
7.99652e-09
6.408e-09
2.51235e-08
2.41001e-08
2.29349e-08
2.16168e-08
2.01715e-08
1.86369e-08
1.70366e-08
1.53877e-08
1.37121e-08
1.20366e-08
1.03943e-08
8.82458e-09
7.37316e-09
6.08977e-09
2.06162e-08
1.98262e-08
1.89254e-08
1.79051e-08
1.67855e-08
1.55957e-08
1.4354e-08
1.30728e-08
1.17678e-08
1.04587e-08
9.17005e-09
7.93123e-09
6.77648e-09
5.7437e-09
1.69535e-08
1.63442e-08
1.56494e-08
1.48622e-08
1.3998e-08
1.3079e-08
1.2119e-08
1.11271e-08
1.01147e-08
9.09617e-09
8.08931e-09
7.11584e-09
6.20107e-09
5.37307e-09
1.35012e-08
1.29675e-08
1.23618e-08
1.16968e-08
1.09893e-08
1.02498e-08
9.48473e-09
8.70246e-09
7.91315e-09
7.12964e-09
6.36781e-09
5.64598e-09
4.98462e-09
1.11742e-08
1.07655e-08
1.03013e-08
9.7914e-09
9.24878e-09
8.68109e-09
8.0932e-09
7.49095e-09
6.88157e-09
6.27424e-09
5.68027e-09
5.11268e-09
4.5863e-09
9.26497e-09
8.95327e-09
8.59896e-09
8.20924e-09
7.79438e-09
7.36024e-09
6.91006e-09
6.448e-09
5.97924e-09
5.51014e-09
5.04859e-09
4.60384e-09
4.18619e-09
7.69475e-09
7.45775e-09
7.18818e-09
6.89146e-09
6.57556e-09
6.2446e-09
5.90097e-09
5.54768e-09
5.18819e-09
4.82698e-09
4.46948e-09
4.12204e-09
3.79172e-09
6.22024e-09
6.01595e-09
5.79074e-09
5.55067e-09
5.29908e-09
5.03761e-09
4.76821e-09
4.4933e-09
4.21599e-09
3.93987e-09
3.66921e-09
3.4088e-09
5.19302e-09
5.03836e-09
4.86776e-09
4.68587e-09
4.49507e-09
4.2965e-09
4.0915e-09
3.88181e-09
3.66943e-09
3.45672e-09
3.24647e-09
3.04184e-09
4.33703e-09
4.22012e-09
4.09097e-09
3.95323e-09
3.80865e-09
3.65805e-09
3.50236e-09
3.34271e-09
3.1804e-09
3.01695e-09
2.85414e-09
3.62082e-09
3.53223e-09
3.43435e-09
3.33e-09
3.22045e-09
3.10628e-09
2.98819e-09
2.86683e-09
2.74304e-09
2.61777e-09
2.49211e-09
2.95169e-09
2.87736e-09
2.79817e-09
2.71509e-09
2.62857e-09
2.53907e-09
2.44699e-09
2.35283e-09
2.25715e-09
2.16052e-09
2.46071e-09
2.40408e-09
2.34392e-09
2.28096e-09
2.21549e-09
2.1478e-09
2.07811e-09
2.00673e-09
1.93391e-09
1.85993e-09
2.04578e-09
2.00269e-09
1.95708e-09
1.90951e-09
1.86014e-09
1.80913e-09
1.75662e-09
1.70272e-09
1.64755e-09
1.59119e-09
1.69681e-09
1.66424e-09
1.6299e-09
1.59419e-09
1.55718e-09
1.51895e-09
1.47958e-09
1.43909e-09
1.39746e-09
1.35471e-09
1.40558e-09
1.38123e-09
1.35561e-09
1.329e-09
1.30142e-09
1.27292e-09
1.2435e-09
1.21315e-09
1.18184e-09
1.14949e-09
1.14614e-09
1.12709e-09
1.10729e-09
1.08674e-09
1.06546e-09
1.04344e-09
1.02066e-09
9.97061e-10
9.72567e-10
9.50843e-10
9.36502e-10
9.21552e-10
9.06023e-10
8.89929e-10
8.73268e-10
8.5602e-10
8.38133e-10
8.19527e-10
7.87152e-10
7.75933e-10
7.64266e-10
7.52186e-10
7.3972e-10
7.26874e-10
7.1363e-10
6.99947e-10
6.48065e-10
6.38864e-10
6.29387e-10
6.19677e-10
6.09774e-10
5.99682e-10
5.89384e-10
5.78848e-10
5.29057e-10
5.2123e-10
5.133e-10
5.05321e-10
4.97314e-10
4.89276e-10
4.81193e-10
4.7305e-10
4.27931e-10
4.21196e-10
4.14503e-10
4.07884e-10
4.01362e-10
3.94919e-10
3.88557e-10
3.82267e-10
3.37741e-10
3.32078e-10
3.26555e-10
3.21198e-10
3.15993e-10
3.10965e-10
3.06071e-10
2.70544e-10
2.65715e-10
2.61067e-10
2.56602e-10
2.52353e-10
2.48314e-10
2.44444e-10
2.21067e-10
2.16863e-10
2.12827e-10
2.08975e-10
2.05342e-10
2.01904e-10
1.98676e-10
1.85205e-10
1.81521e-10
1.77959e-10
1.74557e-10
1.7132e-10
1.68266e-10
1.65422e-10
1.55612e-10
1.52417e-10
1.49308e-10
1.46311e-10
1.43429e-10
1.40707e-10
1.38154e-10
1.2974e-10
1.26925e-10
1.24164e-10
1.21472e-10
1.18891e-10
1.16453e-10
1.14163e-10
1.07751e-10
1.0514e-10
1.02515e-10
9.99071e-11
9.73798e-11
9.49714e-11
8.82692e-11
8.57295e-11
8.31589e-11
8.05917e-11
7.80711e-11
7.56258e-11
6.8643e-11
6.55865e-11
6.25478e-11
5.96088e-11
5.68469e-11
5.4315e-11
4.57953e-11
4.21745e-11
3.85531e-11
3.50229e-11
3.16703e-11
2.83743e-11
2.5543e-11
2.30702e-11
2.1013e-11
1.94155e-11
2.76997e-11
2.58869e-11
2.45582e-11
2.36516e-11
2.30948e-11
9.3087e-11
1.07301e-10
1.2209e-10
1.37028e-10
1.51631e-10
5.2725e-10
5.45138e-10
5.59514e-10
5.70338e-10
5.78017e-10
1.99294e-09
2.04365e-09
2.08151e-09
2.10686e-09
2.12196e-09
)
;

boundaryField
{
    inlet
    {
        type            calculated;
        value           nonuniform List<scalar> 5(1.7969e-08 1.89776e-08 1.99101e-08 2.07609e-08 2.15258e-08);
    }
    outlet
    {
        type            calculated;
        value           nonuniform List<scalar> 0();
    }
    walls
    {
        type            calculated;
        value           uniform 0;
    }
    frontAndBack
    {
        type            empty;
    }
    procBoundary1to0
    {
        type            processor;
        value           nonuniform List<scalar> 
94
(
0.00017413
0.00017413
0.000119063
0.000119063
8.22714e-05
8.22714e-05
5.75024e-05
5.75024e-05
4.05544e-05
4.05544e-05
2.89359e-05
2.89359e-05
2.22027e-05
1.61769e-05
1.61769e-05
1.25755e-05
9.3211e-06
9.3211e-06
7.31592e-06
5.75465e-06
4.3453e-06
4.3453e-06
3.43869e-06
2.62034e-06
2.62034e-06
2.08238e-06
1.65624e-06
1.27268e-06
1.27268e-06
1.01493e-06
8.09798e-07
6.25428e-07
6.25428e-07
5.00046e-07
3.86959e-07
3.86959e-07
3.09969e-07
2.48489e-07
1.92877e-07
1.92877e-07
1.55009e-07
1.24719e-07
9.72012e-08
9.72012e-08
7.84895e-08
6.34842e-08
4.97719e-08
4.97719e-08
4.04524e-08
3.29407e-08
2.60388e-08
2.60388e-08
2.1324e-08
1.74993e-08
1.3969e-08
1.3969e-08
1.15321e-08
9.53779e-09
7.90195e-09
6.39959e-09
6.39959e-09
5.32852e-09
4.43923e-09
3.69812e-09
3.01904e-09
3.01904e-09
2.51209e-09
2.08502e-09
1.72661e-09
1.42792e-09
1.16423e-09
1.16423e-09
9.64432e-10
7.97775e-10
6.5685e-10
5.36634e-10
4.34552e-10
3.43526e-10
3.43526e-10
2.7554e-10
2.25448e-10
1.89003e-10
1.58859e-10
1.32574e-10
1.10319e-10
9.07417e-11
7.16123e-11
4.93231e-11
4.93231e-11
3.15022e-11
3.00285e-11
7.94953e-11
5.06896e-10
1.92859e-09
)
;
    }
    procBoundary1to2
    {
        type            processor;
        value           nonuniform List<scalar> 
84
(
978.923
1.34803
0.110647
0.000864869
3.45514e-05
2.29521e-06
3.18701e-08
2.6251e-07
4.56557e-07
3.23665e-07
3.31724e-07
2.85483e-07
2.6416e-07
2.35569e-07
2.1125e-07
1.86641e-07
1.63645e-07
1.41812e-07
1.21487e-07
1.02734e-07
8.56553e-08
7.03e-08
5.66988e-08
4.48484e-08
3.47017e-08
2.61893e-08
1.92115e-08
1.36446e-08
9.34581e-09
6.16156e-09
3.92986e-09
2.48931e-09
1.68315e-09
1.36407e-09
1.39861e-09
1.66982e-09
2.0792e-09
2.54681e-09
4.81733e-09
4.81733e-09
4.96361e-09
5.07473e-09
5.12781e-09
5.11161e-09
5.02434e-09
4.87096e-09
4.6606e-09
4.40482e-09
4.11615e-09
3.80626e-09
3.4858e-09
3.16338e-09
2.84574e-09
2.6939e-09
2.6939e-09
2.36713e-09
2.06353e-09
1.78507e-09
1.53372e-09
1.31079e-09
1.11602e-09
9.47066e-10
8.00093e-10
6.85755e-10
6.85755e-10
5.68013e-10
4.64786e-10
3.75977e-10
3.01275e-10
2.40758e-10
1.95654e-10
1.62758e-10
1.35753e-10
1.12027e-10
9.27125e-11
9.27125e-11
7.3285e-11
5.20562e-11
2.85729e-11
1.8291e-11
2.27703e-11
1.65349e-10
5.83321e-10
2.12892e-09
)
;
    }
    procBoundary1to5
    {
        type            processor;
        value           nonuniform List<scalar> 
13
(
0.0111769
0.0111769
0.00447577
0.00268225
0.00268225
0.0018157
0.00112645
0.00112645
0.000780078
0.000517097
0.000352666
0.000352666
0.000256885
)
;
    }
}


// ************************************************************************* //
