/*--------------------------------*- C++ -*----------------------------------*\
| =========                 |                                                 |
| \\      /  F ield         | OpenFOAM: The Open Source CFD Toolbox           |
|  \\    /   O peration     | Version:  2506                                  |
|   \\  /    A nd           | Website:  www.openfoam.com                      |
|    \\/     M anipulation  |                                                 |
\*---------------------------------------------------------------------------*/
FoamFile
{
    version     2.0;
    format      ascii;
    arch        "LSB;label=32;scalar=64";
    class       volSymmTensorField;
    location    "450";
    object      turbulenceProperties:devReff;
}
// * * * * * * * * * * * * * * * * * * * * * * * * * * * * * * * * * * * * * //

dimensions      [0 2 -2 0 0 0 0];

internalField   nonuniform List<symmTensor> 
1340
(
(5.47839e-05 0.000636923 1.39725e-19 -1.70857e-05 -5.5181e-20 -3.76982e-05)
(0.000231362 0.000621222 2.26704e-19 -0.000204968 -1.14671e-19 -2.6394e-05)
(0.000471318 0.000742216 -1.54451e-19 -0.000468028 3.90397e-20 -3.29045e-06)
(0.00081238 0.00102678 -3.88388e-20 -0.000823024 1.83172e-19 1.06436e-05)
(0.00130644 0.0015664 2.49336e-19 -0.00132442 1.03713e-19 1.79829e-05)
(0.00202429 0.00252565 4.59462e-19 -0.00205446 -7.15379e-20 3.01702e-05)
(0.00305565 0.00413713 -8.14036e-21 -0.00310696 -2.58799e-19 5.13005e-05)
(0.0044731 0.00664462 -8.04482e-20 -0.00454804 -1.73497e-19 7.49415e-05)
(0.00629923 0.0103377 2.69057e-20 -0.00640794 -5.82064e-20 0.000108705)
(0.00863914 0.015635 -1.97155e-19 -0.0087849 6.70123e-19 0.000145755)
(0.0117402 0.0234246 7.42381e-19 -0.0119383 2.75951e-19 0.000198175)
(0.0161482 0.0354501 3.28026e-19 -0.0164166 -1.21849e-18 0.000268373)
(0.0226884 0.0549989 -1.32086e-18 -0.023079 -3.4644e-19 0.000390542)
(0.0329407 0.0886169 -4.44085e-18 -0.0335317 -2.02925e-18 0.000590927)
(0.0490728 0.148528 -3.35499e-18 -0.0500522 -8.9724e-19 0.000979407)
(0.0757042 0.263753 6.22757e-18 -0.077482 -5.7885e-19 0.00177782)
(0.116282 0.487769 -7.46698e-18 -0.119918 1.2081e-18 0.00363662)
(0.183243 0.979451 4.06954e-18 -0.191089 -7.22399e-18 0.00784627)
(0.277943 2.01763 -1.26415e-16 -0.294318 2.61658e-18 0.0163751)
(0.410054 4.53273 -7.83243e-17 -0.448529 1.22989e-17 0.038475)
(0.421168 9.36904 6.59254e-17 -0.501476 8.24807e-19 0.080308)
(0.0081232 13.292 8.69845e-18 -0.112266 -1.25653e-19 0.104143)
(-0.628749 14.9598 6.2859e-17 0.530418 4.3616e-19 0.0983314)
(-1.26785 15.3986 -4.37185e-16 1.18561 -4.89507e-18 0.0822437)
(-1.85323 15.4185 1.57309e-16 1.78589 2.09288e-17 0.0673381)
(-2.3774 15.2563 -1.88903e-15 2.3216 -1.53197e-16 0.0557947)
(-2.83317 14.9562 -3.45856e-15 2.78627 -2.37e-16 0.0469017)
(-3.21856 14.534 1.05846e-15 3.17823 1.0838e-16 0.0403269)
(0.000271226 0.00040598 7.02568e-20 -0.000274639 -2.2467e-19 3.41367e-06)
(0.000131121 0.000406958 -3.17857e-19 -0.000140194 8.39357e-21 9.07273e-06)
(2.28717e-05 0.000374118 4.88569e-20 -3.33811e-05 2.16475e-19 1.05095e-05)
(-6.63163e-05 0.000316361 1.2444e-21 6.00913e-05 -1.29263e-19 6.22503e-06)
(-0.000121767 0.000243629 -8.32674e-20 0.000123188 -7.89498e-20 -1.42017e-06)
(-0.000141757 0.000176672 -6.00705e-20 0.00015008 -8.49749e-20 -8.32289e-06)
(-0.000139971 0.000124397 -1.12035e-20 0.000152778 1.86594e-20 -1.28069e-05)
(-0.00012757 8.66286e-05 3.75293e-20 0.000142839 1.0099e-19 -1.52692e-05)
(-0.000111044 6.08897e-05 6.4734e-20 0.000127502 2.50096e-20 -1.64583e-05)
(-9.41908e-05 4.40024e-05 -9.21267e-20 0.000110951 -4.6991e-21 -1.67605e-05)
(-7.86826e-05 3.33875e-05 8.27056e-20 9.51006e-05 8.54263e-21 -1.6418e-05)
(-6.53908e-05 2.68724e-05 -9.84912e-21 8.10452e-05 -2.88779e-20 -1.56544e-05)
(-5.43343e-05 2.27332e-05 -3.38117e-20 6.89938e-05 5.3789e-20 -1.46595e-05)
(-4.52857e-05 1.99641e-05 -2.57776e-20 5.8919e-05 2.80595e-20 -1.36333e-05)
(-3.79975e-05 1.79326e-05 -6.20006e-20 5.07309e-05 6.97504e-20 -1.27334e-05)
(-3.26724e-05 1.64692e-05 -8.73211e-20 4.49201e-05 4.53008e-20 -1.22477e-05)
(-2.91895e-05 1.55186e-05 -1.25798e-19 4.16893e-05 1.08382e-20 -1.24997e-05)
(-2.68697e-05 1.54958e-05 5.6107e-20 4.05156e-05 5.32841e-21 -1.36459e-05)
(-2.46032e-05 1.7263e-05 -3.99457e-21 3.96875e-05 5.47748e-21 -1.50844e-05)
(-0.000235313 0.000213507 5.26711e-19 0.000404618 1.37781e-19 -0.000169306)
(-0.00119751 0.0013569 2.69671e-18 0.00216781 -1.92567e-19 -0.000970305)
(-0.00866898 0.0119941 1.08355e-18 0.0162508 -4.5151e-19 -0.00758182)
(-0.026227 0.0459315 -7.54141e-19 0.0499596 1.03219e-19 -0.0237326)
(-0.0449443 0.102717 4.96453e-17 0.0849992 2.01604e-18 -0.0400549)
(-0.0579723 0.170679 4.02654e-16 0.105298 9.72213e-18 -0.0473253)
(-0.0659771 0.235243 2.39535e-16 0.111231 1.31173e-17 -0.0452536)
(-0.0730169 0.289383 1.76247e-15 0.112019 1.20944e-16 -0.0390026)
(-0.0819869 0.33494 2.54475e-15 0.11474 1.6929e-16 -0.032753)
(-0.0941528 0.375377 -5.70582e-16 0.122124 -9.71778e-17 -0.0279713)
(0.000244197 0.00030301 2.37584e-20 -0.00024389 1.44099e-19 -3.0688e-07)
(0.00014106 0.000319908 1.56358e-19 -0.000141807 1.67851e-19 7.46268e-07)
(4.81366e-05 0.000309273 5.31701e-20 -4.95976e-05 -1.33522e-19 1.46091e-06)
(-2.83437e-05 0.000273934 1.18441e-19 2.72883e-05 7.01952e-20 1.05542e-06)
(-7.85705e-05 0.000221402 -8.35355e-20 7.72412e-05 2.14691e-20 1.32924e-06)
(-0.00010266 0.000166968 -1.20562e-20 0.000100154 7.0629e-20 2.50593e-06)
(-0.000108698 0.000119366 5.2599e-21 0.000104634 -6.34549e-20 4.06424e-06)
(-0.000104073 8.10064e-05 1.1335e-19 9.83161e-05 -7.97961e-20 5.75729e-06)
(-9.40452e-05 5.20542e-05 8.56315e-21 8.68706e-05 -1.25373e-20 7.17462e-06)
(-8.20395e-05 3.10428e-05 -1.26635e-20 7.36757e-05 5.2356e-20 8.36378e-06)
(-7.02286e-05 1.64114e-05 8.11349e-20 6.10086e-05 -9.58406e-20 9.22008e-06)
(-5.97403e-05 6.31472e-06 1.31939e-20 4.98981e-05 1.15876e-20 9.84217e-06)
(-5.10626e-05 -7.62406e-07 9.35632e-20 4.08714e-05 -6.54344e-21 1.01913e-05)
(-4.39373e-05 -6.08774e-06 1.00026e-19 3.34927e-05 2.24108e-20 1.04446e-05)
(-3.80777e-05 -1.0408e-05 2.55856e-19 2.74927e-05 -3.37974e-20 1.0585e-05)
(-3.29294e-05 -1.44532e-05 3.31048e-19 2.21557e-05 -5.00794e-20 1.07737e-05)
(-2.77599e-05 -1.86722e-05 1.96865e-19 1.66897e-05 1.70542e-20 1.10702e-05)
(-2.10892e-05 -2.26159e-05 4.53302e-20 9.23585e-06 -9.27058e-21 1.18533e-05)
(-1.29581e-05 -2.48038e-05 -4.86227e-20 -2.34572e-07 2.34842e-20 1.31927e-05)
(-4.80904e-06 -2.40848e-05 1.81522e-19 -9.43755e-06 -2.94971e-20 1.42466e-05)
(2.16951e-06 -2.25522e-05 -4.88549e-20 -1.80224e-05 -4.75405e-21 1.58529e-05)
(5.47537e-06 -1.38325e-05 -3.13945e-20 -1.76537e-05 6.4723e-22 1.21783e-05)
(5.62368e-05 -7.33797e-05 2.76159e-20 -0.000143675 -8.68597e-22 8.74386e-05)
(0.000481015 -0.000275628 -1.44017e-18 -0.00111255 -5.45003e-20 0.000631535)
(0.00145033 0.000425602 -8.65022e-18 -0.00322073 -7.88822e-20 0.0017704)
(0.00231358 0.00468906 -5.48356e-17 -0.00521489 -3.18048e-18 0.00290131)
(0.00185825 0.0154475 -1.34331e-16 -0.00506972 -4.43498e-18 0.00321147)
(-0.000686807 0.0342915 -3.34079e-16 -0.00190449 -2.2875e-17 0.0025913)
(-0.00552563 0.0608593 -8.55064e-16 0.0039799 -7.6541e-17 0.00154573)
(0.000278549 0.000174405 5.52694e-20 -0.000278829 -1.58031e-20 2.79873e-07)
(0.000208874 0.000222873 5.9761e-20 -0.000208618 -1.55036e-21 -2.56147e-07)
(0.000134091 0.000246333 -1.47488e-19 -0.000134121 -8.91343e-20 2.99286e-08)
(6.20829e-05 0.000246781 -8.05826e-20 -6.28876e-05 6.96675e-21 8.0468e-07)
(-4.81525e-07 0.000226456 1.33622e-19 -6.61561e-07 6.03011e-20 1.14309e-06)
(-4.60144e-05 0.000192083 6.23689e-20 4.50226e-05 -5.11786e-21 9.91789e-07)
(-7.36466e-05 0.000153527 7.38463e-20 7.31322e-05 -4.55936e-20 5.14409e-07)
(-8.69238e-05 0.000117332 -1.14039e-19 8.71757e-05 -7.47461e-20 -2.51859e-07)
(-9.02497e-05 8.63931e-05 -1.41383e-19 9.13693e-05 2.6689e-20 -1.1196e-06)
(-8.73193e-05 6.17587e-05 1.29049e-20 8.93386e-05 3.73724e-20 -2.01938e-06)
(-8.10776e-05 4.30063e-05 4.37229e-20 8.39014e-05 -1.3012e-20 -2.82387e-06)
(-7.35833e-05 2.93006e-05 -1.07379e-19 7.71376e-05 -8.50146e-21 -3.55422e-06)
(-6.6111e-05 1.94554e-05 -4.12437e-21 7.02675e-05 -1.70996e-20 -4.15645e-06)
(-5.93561e-05 1.23042e-05 -4.12364e-20 6.40056e-05 -8.0716e-21 -4.64949e-06)
(-5.34503e-05 6.79484e-06 8.66504e-20 5.8436e-05 -4.99184e-20 -4.98569e-06)
(-4.83435e-05 2.2499e-06 -9.43813e-20 5.35919e-05 -3.27927e-20 -5.24841e-06)
(-4.37598e-05 -1.90785e-06 -1.96269e-19 4.92024e-05 -2.31686e-20 -5.44263e-06)
(-3.92321e-05 -6.02088e-06 8.88875e-21 4.48497e-05 -2.97498e-20 -5.6176e-06)
(-3.40472e-05 -9.84475e-06 5.03136e-20 3.97791e-05 -2.86282e-20 -5.73185e-06)
(-2.84136e-05 -1.2248e-05 1.5248e-19 3.44236e-05 -1.06384e-20 -6.00997e-06)
(-2.34555e-05 -1.29978e-05 -1.4286e-19 3.00706e-05 -8.27412e-21 -6.61512e-06)
(-1.95444e-05 -1.28635e-05 -2.45767e-20 2.68443e-05 7.64423e-21 -7.2999e-06)
(-1.65195e-05 -1.23522e-05 1.47862e-20 2.44677e-05 1.29342e-21 -7.94825e-06)
(-1.3684e-05 -1.14346e-05 -6.83163e-21 2.18799e-05 -2.74682e-22 -8.19589e-06)
(-1.08695e-05 -1.02009e-05 -9.9461e-21 1.87106e-05 4.83543e-22 -7.84111e-06)
(-7.46435e-06 -8.18713e-06 -1.60142e-20 1.3834e-05 -8.45792e-22 -6.36962e-06)
(-4.21532e-06 -5.76359e-06 4.61571e-20 8.62658e-06 1.33179e-21 -4.41126e-06)
(-3.03771e-05 -5.74158e-05 2.01497e-18 7.74869e-05 1.3109e-19 -4.71098e-05)
(-5.85385e-07 -4.59778e-05 1.88314e-17 0.000110424 1.75147e-18 -0.000109839)
(0.000235619 0.000599879 7.8495e-17 -0.000134608 1.03406e-17 -0.000101012)
(0.000228057 0.000127523 -1.41948e-19 -0.000228065 7.28584e-20 8.48342e-09)
(0.00017833 0.000168591 1.98759e-19 -0.000178004 1.03191e-19 -3.25335e-07)
(0.000122699 0.000192328 -6.43112e-20 -0.00012258 -1.86802e-19 -1.19072e-07)
(6.67712e-05 0.00019883 -8.78174e-20 -6.6951e-05 2.49287e-20 1.79777e-07)
(1.59934e-05 0.000188953 -5.98843e-20 -1.6333e-05 -1.03992e-19 3.39578e-07)
(-2.36405e-05 0.000167061 2.09743e-20 2.33371e-05 3.16661e-20 3.03436e-07)
(-5.04749e-05 0.000139406 -3.93064e-20 5.01956e-05 -5.14048e-20 2.79222e-07)
(-6.58569e-05 0.000110987 -8.11803e-20 6.55264e-05 1.0921e-19 3.30486e-07)
(-7.23438e-05 8.47906e-05 8.6106e-20 7.18771e-05 5.0516e-20 4.66761e-07)
(-7.25481e-05 6.24352e-05 7.31689e-20 7.18744e-05 -3.36506e-20 6.7372e-07)
(-6.88982e-05 4.43326e-05 -1.50338e-20 6.79432e-05 -3.01136e-20 9.54974e-07)
(-6.32425e-05 3.0267e-05 4.36826e-20 6.19784e-05 9.72949e-21 1.26412e-06)
(-5.69267e-05 1.95705e-05 -6.47136e-20 5.53454e-05 1.65351e-20 1.58136e-06)
(-5.07691e-05 1.14598e-05 4.58168e-20 4.88921e-05 -1.20504e-21 1.87695e-06)
(-4.5112e-05 5.13604e-06 -6.03069e-20 4.29596e-05 -2.81632e-20 2.15232e-06)
(-4.00221e-05 -2.29947e-08 5.81809e-20 3.7644e-05 4.86281e-21 2.37814e-06)
(-3.53181e-05 -4.52336e-06 7.79909e-20 3.27491e-05 1.70604e-20 2.56901e-06)
(-3.06274e-05 -8.65394e-06 -5.44308e-21 2.79075e-05 7.15666e-21 2.71989e-06)
(-2.53523e-05 -1.22589e-05 -1.46136e-19 2.2432e-05 6.98596e-23 2.92031e-06)
(-1.95036e-05 -1.45491e-05 -5.43769e-20 1.63509e-05 -2.322e-20 3.15276e-06)
(-1.39163e-05 -1.52711e-05 -1.60215e-20 1.05755e-05 2.46902e-20 3.34087e-06)
(-9.03127e-06 -1.50183e-05 5.92788e-20 5.38497e-06 7.36104e-22 3.6463e-06)
(-4.81579e-06 -1.41933e-05 2.13744e-21 7.45434e-07 -4.86903e-22 4.07036e-06)
(-1.23692e-06 -1.3132e-05 -3.35563e-21 -3.32323e-06 2.86656e-22 4.56015e-06)
(1.63629e-06 -1.12933e-05 3.75534e-20 -6.35333e-06 1.73945e-22 4.71704e-06)
(4.36912e-06 -1.18022e-05 3.32643e-20 -1.00253e-05 1.07545e-21 5.65618e-06)
(3.23019e-06 -5.8378e-06 -8.99581e-20 -6.13156e-06 -4.97827e-21 2.90137e-06)
(1.18721e-05 -1.72344e-05 -7.63515e-19 -1.98572e-05 -5.92205e-20 7.98514e-06)
(8.68866e-05 -0.000109112 -1.06772e-18 -0.000129202 -1.30402e-19 4.2315e-05)
(2.45026e-05 -2.67106e-05 2.06807e-19 -3.24316e-05 2.22203e-21 7.92898e-06)
(0.000215033 5.09687e-05 -2.8915e-20 -0.000215173 7.40055e-21 1.40365e-07)
(0.000188789 9.47594e-05 1.25271e-19 -0.000188613 8.92934e-20 -1.7565e-07)
(0.000152186 0.00012954 -7.85879e-20 -0.000151958 -1.3409e-19 -2.27211e-07)
(0.000109982 0.000151927 3.96257e-20 -0.000109929 6.61537e-20 -5.29298e-08)
(6.63324e-05 0.000161115 -4.54964e-20 -6.63965e-05 -9.55939e-21 6.41249e-08)
(2.54146e-05 0.000157496 -1.38157e-19 -2.56002e-05 -5.72701e-21 1.85609e-07)
(-8.39878e-06 0.000143915 9.90115e-20 8.18907e-06 2.22031e-20 2.09713e-07)
(-3.32668e-05 0.000124487 -1.88349e-20 3.30719e-05 2.71139e-20 1.94899e-07)
(-4.95259e-05 0.000102905 5.65507e-20 4.9356e-05 4.46449e-20 1.69897e-07)
(-5.84929e-05 8.17608e-05 2.03888e-20 5.8398e-05 -5.09777e-20 9.4899e-08)
(-6.18067e-05 6.27385e-05 -1.53666e-20 6.18299e-05 -3.71261e-20 -2.31702e-08)
(-6.12904e-05 4.658e-05 -5.93968e-20 6.14513e-05 2.33885e-20 -1.60895e-07)
(-5.84059e-05 3.34659e-05 -7.22225e-20 5.87316e-05 3.37544e-20 -3.25683e-07)
(-5.4335e-05 2.31163e-05 2.96928e-20 5.48365e-05 -2.05969e-21 -5.01518e-07)
(-4.98785e-05 1.50325e-05 -1.20945e-20 5.0557e-05 -1.38773e-20 -6.78489e-07)
(-4.54782e-05 8.6102e-06 -6.11225e-20 4.6324e-05 -1.66997e-24 -8.45777e-07)
(-4.1289e-05 3.34082e-06 -6.86019e-20 4.22949e-05 -1.62069e-20 -1.00594e-06)
(-3.72447e-05 -1.22374e-06 -5.79481e-20 3.83916e-05 4.1947e-21 -1.14686e-06)
(-3.31017e-05 -5.35501e-06 6.15858e-20 3.43719e-05 -2.73441e-20 -1.27025e-06)
(-2.84754e-05 -8.96462e-06 -1.51441e-20 2.98273e-05 2.8287e-20 -1.35196e-06)
(-2.33963e-05 -1.14526e-05 -9.23457e-20 2.48273e-05 2.17879e-20 -1.43094e-06)
(-1.85375e-05 -1.25505e-05 1.23061e-19 2.01314e-05 -7.17762e-21 -1.59386e-06)
(-1.43671e-05 -1.26963e-05 9.78363e-21 1.61506e-05 -7.33219e-21 -1.7835e-06)
(-1.0934e-05 -1.23093e-05 1.79501e-21 1.29212e-05 -7.16245e-22 -1.98714e-06)
(-8.14048e-06 -1.15633e-05 4.46166e-21 1.03807e-05 1.00407e-22 -2.24019e-06)
(-5.9306e-06 -1.05763e-05 -4.52937e-20 8.47506e-06 -1.88994e-21 -2.54447e-06)
(-4.21757e-06 -9.42627e-06 -2.61581e-20 7.062e-06 -2.73663e-21 -2.84443e-06)
(-2.7968e-06 -8.25262e-06 1.32591e-19 5.78841e-06 1.06168e-20 -2.9916e-06)
(-1.41308e-06 -6.71192e-06 9.87372e-20 4.17664e-06 6.94817e-21 -2.76357e-06)
(-1.56758e-07 -5.09695e-06 -7.72244e-20 2.41679e-06 -5.46836e-21 -2.26003e-06)
(8.21876e-07 -3.50325e-06 6.70773e-20 7.60044e-07 8.46774e-21 -1.58192e-06)
(0.000176721 3.60668e-05 -3.51071e-21 -0.000176813 -2.54029e-20 9.247e-08)
(0.000157611 7.17122e-05 -4.23222e-20 -0.000157449 2.17709e-20 -1.62006e-07)
(0.000130246 0.000101162 4.81239e-20 -0.0001301 4.68565e-20 -1.46246e-07)
(9.77023e-05 0.000121486 1.12912e-19 -9.76821e-05 4.95471e-20 -2.01826e-08)
(6.32623e-05 0.000131596 7.70601e-20 -6.32757e-05 -1.96718e-21 1.3382e-08)
(3.01694e-05 0.000131766 -2.18214e-20 -3.02401e-05 1.92635e-20 7.06324e-08)
(1.62118e-06 0.000123786 -1.03854e-19 -1.70182e-06 -3.90181e-20 8.0637e-08)
(-2.06545e-05 0.000110378 7.31814e-20 2.05738e-05 5.02767e-20 8.06241e-08)
(-3.64923e-05 9.4198e-05 3.65423e-21 3.63955e-05 -5.72938e-20 9.67622e-08)
(-4.64655e-05 7.73221e-05 3.91481e-21 4.63637e-05 -2.61201e-20 1.01827e-07)
(-5.15075e-05 6.12969e-05 -5.85317e-20 5.14098e-05 2.32422e-20 9.77535e-08)
(-5.29076e-05 4.69806e-05 3.3696e-20 5.27934e-05 3.58009e-20 1.14135e-07)
(-5.1767e-05 3.4791e-05 1.47758e-19 5.1626e-05 1.22801e-20 1.40997e-07)
(-4.90888e-05 2.47362e-05 -5.38555e-20 4.8907e-05 -8.97465e-22 1.81814e-07)
(-4.56298e-05 1.65727e-05 -1.11945e-20 4.53963e-05 -1.23538e-21 2.335e-07)
(-4.18727e-05 9.90757e-06 -7.70758e-20 4.15736e-05 4.99536e-20 2.9908e-07)
(-3.80549e-05 4.36139e-06 -5.8484e-20 3.76868e-05 8.92417e-21 3.68083e-07)
(-3.42068e-05 -4.10157e-07 6.64252e-20 3.37703e-05 1.6617e-20 4.36553e-07)
(-3.01865e-05 -4.61954e-06 -1.54243e-19 2.96825e-05 1.63012e-20 5.03989e-07)
(-2.57306e-05 -8.21993e-06 5.17711e-20 2.51363e-05 4.78717e-22 5.94275e-07)
(-2.08522e-05 -1.07729e-05 1.02255e-19 2.01532e-05 1.53724e-21 6.99035e-07)
(-1.60746e-05 -1.20367e-05 -4.20844e-20 1.5315e-05 -1.16922e-20 7.59607e-07)
(-1.18188e-05 -1.23357e-05 -4.57346e-20 1.09964e-05 8.12584e-22 8.22406e-07)
(-8.15482e-06 -1.20369e-05 -1.0996e-20 7.2274e-06 6.2509e-22 9.27425e-07)
(-5.00825e-06 -1.13172e-05 -1.34648e-21 3.94224e-06 4.8532e-23 1.06601e-06)
(-2.34342e-06 -1.02824e-05 5.47336e-21 1.11646e-06 1.4382e-21 1.22696e-06)
(-1.23674e-07 -9.05826e-06 -7.11192e-20 -1.30477e-06 -2.2879e-21 1.42844e-06)
(1.65453e-06 -7.77458e-06 1.63157e-19 -3.27255e-06 5.44057e-21 1.61802e-06)
(3.01138e-06 -6.54016e-06 6.90187e-21 -4.74136e-06 -1.46977e-21 1.72998e-06)
(3.9058e-06 -5.21487e-06 1.07914e-19 -5.57295e-06 1.11217e-20 1.66715e-06)
(3.8939e-06 -3.50337e-06 4.88401e-20 -5.20468e-06 -1.51055e-21 1.31078e-06)
(0.000146978 2.56468e-05 -1.2555e-21 -0.00014697 6.77501e-21 -8.61736e-09)
(0.000132698 5.50541e-05 -6.47948e-21 -0.000132563 -6.07373e-20 -1.34772e-07)
(0.000111819 8.00697e-05 -2.10902e-19 -0.00011174 -9.94763e-20 -7.93764e-08)
(8.63549e-05 9.82067e-05 4.64663e-20 -8.63401e-05 7.29861e-20 -1.47384e-08)
(5.89259e-05 0.000108328 -1.37508e-20 -5.89156e-05 4.96324e-21 -1.03319e-08)
(3.20368e-05 0.00011068 1.1163e-19 -3.20722e-05 3.81586e-20 3.54144e-08)
(8.07267e-06 0.000106382 -7.43296e-21 -8.11602e-06 3.69426e-20 4.33463e-08)
(-1.15034e-05 9.72925e-05 4.72129e-20 1.14602e-05 -1.65769e-20 4.32622e-08)
(-2.63135e-05 8.5321e-05 -4.1019e-20 2.62513e-05 1.34005e-20 6.22242e-08)
(-3.65348e-05 7.20645e-05 -7.50528e-20 3.64685e-05 2.17157e-20 6.63159e-08)
(-4.26502e-05 5.8827e-05 1.98035e-20 4.26007e-05 9.90895e-21 4.95029e-08)
(-4.55201e-05 4.64588e-05 3.26946e-20 4.54853e-05 -1.33487e-20 3.47578e-08)
(-4.59299e-05 3.54718e-05 3.07433e-20 4.59179e-05 -5.87668e-20 1.19905e-08)
(-4.46759e-05 2.60504e-05 4.30882e-20 4.46951e-05 1.51165e-20 -1.91944e-08)
(-4.24022e-05 1.81523e-05 -3.95915e-20 4.24591e-05 2.23279e-20 -5.69295e-08)
(-3.95764e-05 1.15506e-05 1.47428e-19 3.96731e-05 6.44218e-21 -9.67925e-08)
(-3.64615e-05 5.98197e-06 -3.4656e-20 3.65982e-05 2.05323e-20 -1.36654e-07)
(-3.31484e-05 1.1839e-06 6.84367e-20 3.33258e-05 -2.68786e-20 -1.77386e-07)
(-2.95756e-05 -3.01131e-06 1.05067e-19 2.97916e-05 6.70216e-21 -2.1604e-07)
(-2.55866e-05 -6.58326e-06 2.09595e-21 2.5825e-05 -2.3641e-20 -2.3839e-07)
(-2.12149e-05 -9.21176e-06 -2.88728e-20 2.14673e-05 -1.88825e-20 -2.52478e-07)
(-1.68774e-05 -1.06815e-05 -2.64465e-20 1.71821e-05 4.01133e-21 -3.04684e-07)
(-1.29601e-05 -1.12167e-05 5.3447e-21 1.33342e-05 3.48356e-22 -3.74096e-07)
(-9.57552e-06 -1.11412e-05 1.10728e-20 1.00055e-05 5.17364e-22 -4.29987e-07)
(-6.69587e-06 -1.06361e-05 4.51339e-21 7.18314e-06 -8.18422e-23 -4.87273e-07)
(-4.30693e-06 -9.8156e-06 1.27289e-20 4.87183e-06 2.98032e-22 -5.64897e-07)
(-2.40143e-06 -8.80666e-06 5.01658e-20 3.06972e-06 4.6137e-21 -6.68288e-07)
(-9.22408e-07 -7.71323e-06 -2.85784e-19 1.70965e-06 -2.07503e-20 -7.8724e-07)
(2.41995e-07 -6.61038e-06 -1.14031e-19 6.39745e-07 -4.62304e-21 -8.81741e-07)
(1.21756e-06 -5.52245e-06 -6.29585e-21 -2.83281e-07 -1.18941e-20 -9.34281e-07)
(2.10527e-06 -4.51867e-06 -1.56929e-19 -1.17748e-06 -1.8293e-20 -9.27792e-07)
(0.000128036 -7.55634e-06 -8.53641e-20 -0.000128038 -6.5104e-20 1.92082e-09)
(0.000123359 1.82453e-05 -4.90587e-20 -0.000123321 -3.49709e-20 -3.80931e-08)
(0.000112568 4.27565e-05 -1.2439e-20 -0.000112467 -3.21322e-21 -1.01233e-07)
(9.63454e-05 6.4118e-05 3.07419e-20 -9.63175e-05 7.87622e-20 -2.78242e-08)
(7.61728e-05 8.01534e-05 6.98336e-20 -7.61593e-05 4.50901e-20 -1.34748e-08)
(5.4133e-05 8.98316e-05 4.9548e-20 -5.41145e-05 -3.23384e-20 -1.8473e-08)
(3.21339e-05 9.33775e-05 -6.75121e-20 -3.21489e-05 -4.20149e-20 1.50448e-08)
(1.20278e-05 9.15019e-05 1.41178e-19 -1.20457e-05 6.27435e-21 1.78552e-08)
(-4.97453e-06 8.54925e-05 -2.06092e-20 4.95929e-06 -6.33142e-20 1.52463e-08)
(-1.84642e-05 7.67364e-05 1.2044e-19 1.84336e-05 2.58466e-20 3.05298e-08)
(-2.84029e-05 6.64403e-05 9.27502e-20 2.83629e-05 1.28626e-20 3.99783e-08)
(-3.49895e-05 5.56545e-05 -4.41337e-20 3.4954e-05 -1.84425e-20 3.54492e-08)
(-3.8774e-05 4.51287e-05 7.5622e-21 3.87365e-05 -2.06598e-20 3.75599e-08)
(-4.02818e-05 3.5395e-05 -1.13316e-19 4.0247e-05 5.20101e-21 3.48173e-08)
(-4.01053e-05 2.67248e-05 -1.76985e-20 4.00722e-05 -1.35588e-20 3.31191e-08)
(-3.87661e-05 1.91987e-05 7.92823e-20 3.87334e-05 4.05567e-21 3.27261e-08)
(-3.66801e-05 1.27381e-05 1.5857e-21 3.66442e-05 -2.2259e-20 3.594e-08)
(-3.41179e-05 7.19209e-06 6.916e-20 3.40762e-05 1.3056e-20 4.16713e-08)
(-3.12099e-05 2.37797e-06 -7.76839e-20 3.11596e-05 -1.30817e-20 5.02806e-08)
(-2.7955e-05 -1.81686e-06 -5.92304e-20 2.78903e-05 -1.31195e-20 6.46918e-08)
(-2.42792e-05 -5.37557e-06 -1.17423e-19 2.41879e-05 3.82877e-21 9.12804e-08)
(-2.02314e-05 -8.06223e-06 -8.83941e-20 2.0103e-05 1.35844e-20 1.28378e-07)
(-1.61415e-05 -9.68684e-06 -9.49346e-21 1.59936e-05 2.09831e-21 1.47867e-07)
(-1.23575e-05 -1.04017e-05 -3.36314e-20 1.22017e-05 1.49298e-21 1.55822e-07)
(-9.01556e-06 -1.04809e-05 -1.12625e-21 8.83503e-06 -7.97771e-22 1.80529e-07)
(-6.11427e-06 -1.01009e-05 -4.2749e-21 5.89614e-06 -3.93835e-22 2.18135e-07)
(-3.64823e-06 -9.37419e-06 -1.60371e-21 3.39112e-06 -7.90983e-22 2.57114e-07)
(-1.60816e-06 -8.41861e-06 3.52303e-20 1.30622e-06 -1.71832e-22 3.01941e-07)
(5.24594e-08 -7.34731e-06 5.1975e-22 -4.14676e-07 8.76362e-22 3.62217e-07)
(1.37204e-06 -6.24145e-06 2.31429e-19 -1.7849e-06 2.095e-20 4.12859e-07)
(2.44409e-06 -5.15383e-06 -3.69269e-19 -2.88335e-06 -2.59099e-20 4.39265e-07)
(3.33551e-06 -4.09762e-06 2.05544e-20 -3.79061e-06 1.7382e-20 4.55095e-07)
(0.000104357 1.29174e-05 -1.5222e-19 -0.000104307 -1.5536e-20 -4.97311e-08)
(9.61105e-05 3.35437e-05 2.1791e-19 -9.60361e-05 1.7296e-19 -7.4402e-08)
(8.3316e-05 5.18631e-05 1.34053e-19 -8.33151e-05 1.90281e-20 -8.79739e-10)
(6.71502e-05 6.59688e-05 9.6496e-20 -6.71424e-05 -1.86881e-20 -7.78685e-09)
(4.9283e-05 7.50009e-05 -1.51627e-19 -4.9262e-05 -6.75896e-20 -2.10177e-08)
(3.11696e-05 7.91281e-05 -9.45278e-20 -3.11773e-05 -1.80969e-20 7.67454e-09)
(1.42837e-05 7.88172e-05 -1.91309e-19 -1.4288e-05 -6.1487e-20 4.32631e-09)
(-3.87784e-07 7.49907e-05 -1.96434e-19 3.83944e-07 1.03189e-20 3.84032e-09)
(-1.24587e-05 6.86654e-05 -9.57222e-20 1.24407e-05 -3.1956e-20 1.79699e-08)
(-2.18103e-05 6.07416e-05 2.90219e-20 2.17832e-05 1.97137e-21 2.71171e-08)
(-2.84784e-05 5.20482e-05 -1.79475e-20 2.84551e-05 4.65091e-21 2.32498e-08)
(-3.27926e-05 4.32186e-05 -5.04031e-20 3.27657e-05 2.04819e-20 2.69181e-08)
(-3.50868e-05 3.47326e-05 5.56406e-20 3.5064e-05 1.12398e-20 2.27656e-08)
(-3.57816e-05 2.69026e-05 -6.79603e-20 3.57661e-05 -1.8969e-20 1.55162e-08)
(-3.52684e-05 1.98906e-05 -7.33081e-21 3.52615e-05 -1.70683e-20 6.8902e-09)
(-3.39026e-05 1.37032e-05 2.16181e-20 3.39051e-05 -1.5876e-20 -2.48788e-09)
(-3.19312e-05 8.28667e-06 6.65121e-20 3.19438e-05 -2.86623e-20 -1.26329e-08)
(-2.94988e-05 3.54007e-06 -2.8241e-20 2.95213e-05 1.36742e-21 -2.25756e-08)
(-2.66483e-05 -6.02872e-07 -1.63402e-20 2.66787e-05 3.15057e-20 -3.03589e-08)
(-2.33672e-05 -4.12668e-06 -1.77904e-20 2.34004e-05 2.93031e-20 -3.32279e-08)
(-1.97179e-05 -6.84768e-06 6.54715e-20 1.97464e-05 8.92628e-21 -2.84338e-08)
(-1.5974e-05 -8.60395e-06 -7.93934e-22 1.60114e-05 8.26009e-21 -3.73786e-08)
(-1.24449e-05 -9.49564e-06 2.24299e-20 1.25057e-05 3.5883e-21 -6.08526e-08)
(-9.28414e-06 -9.74674e-06 -2.98166e-21 9.3627e-06 3.78508e-22 -7.85584e-08)
(-6.51872e-06 -9.52586e-06 -2.39946e-21 6.60944e-06 9.03891e-23 -9.07221e-08)
(-4.15827e-06 -8.94561e-06 -8.68855e-21 4.26675e-06 -3.31557e-22 -1.08474e-07)
(-2.20651e-06 -8.12187e-06 -3.66501e-20 2.33931e-06 -2.06191e-21 -1.32798e-07)
(-6.35813e-07 -7.1643e-06 -9.84584e-20 7.99353e-07 -6.13043e-21 -1.6354e-07)
(6.19203e-07 -6.14744e-06 6.70752e-21 -4.29163e-07 -1.48051e-21 -1.9004e-07)
(1.65917e-06 -5.12839e-06 3.33913e-19 -1.44681e-06 4.42515e-20 -2.12359e-07)
(2.54496e-06 -4.09766e-06 2.41272e-19 -2.3359e-06 6.7255e-21 -2.09052e-07)
(8.25152e-05 2.6536e-05 -2.01204e-19 -8.24664e-05 -1.13063e-19 -4.87178e-08)
(7.23108e-05 4.2305e-05 -1.53395e-19 -7.23229e-05 -2.67811e-20 1.20626e-08)
(5.92147e-05 5.4704e-05 1.14163e-19 -5.92118e-05 9.39445e-20 -2.85958e-09)
(4.46063e-05 6.30062e-05 1.87081e-19 -4.45849e-05 4.45855e-20 -2.13815e-08)
(2.96006e-05 6.73439e-05 3.11093e-20 -2.96039e-05 -2.80851e-21 3.33514e-09)
(1.53901e-05 6.80217e-05 1.39418e-19 -1.53917e-05 9.54706e-20 1.59814e-09)
(2.769e-06 6.57269e-05 1.80659e-19 -2.76598e-06 7.26656e-20 -3.02298e-09)
(-7.92265e-06 6.12203e-05 -6.50248e-20 7.91629e-06 -1.99033e-20 6.35872e-09)
(-1.65273e-05 5.51806e-05 3.92586e-20 1.65121e-05 1.83709e-22 1.51792e-08)
(-2.3001e-05 4.82427e-05 -1.34603e-20 2.29868e-05 6.38328e-21 1.42216e-08)
(-2.75468e-05 4.09134e-05 9.93047e-20 2.7529e-05 5.39851e-21 1.78368e-08)
(-3.03436e-05 3.36164e-05 -3.60022e-20 3.03266e-05 -7.28862e-22 1.69345e-08)
(-3.16771e-05 2.66497e-05 -9.60781e-20 3.1661e-05 3.70237e-20 1.60244e-08)
(-3.18301e-05 2.02125e-05 -3.61248e-20 3.18184e-05 3.35501e-21 1.17183e-08)
(-3.10777e-05 1.43844e-05 -8.42687e-20 3.10697e-05 1.36798e-20 7.96923e-09)
(-2.96324e-05 9.17694e-06 -8.98205e-20 2.96268e-05 -1.35262e-21 5.59599e-09)
(-2.76406e-05 4.55092e-06 -9.73758e-20 2.76361e-05 1.90261e-20 4.51109e-09)
(-2.51701e-05 4.83103e-07 1.58366e-19 2.5164e-05 -1.61922e-20 6.03906e-09)
(-2.22461e-05 -2.99376e-06 1.23417e-19 2.22339e-05 -3.88921e-21 1.22616e-08)
(-1.89464e-05 -5.732e-06 2.09762e-20 1.89214e-05 -1.45423e-20 2.50603e-08)
(-1.55015e-05 -7.5934e-06 8.16434e-20 1.54701e-05 -8.81465e-21 3.13389e-08)
(-1.21834e-05 -8.63397e-06 1.86862e-20 1.21562e-05 -4.64164e-21 2.72286e-08)
(-9.15411e-06 -9.03415e-06 5.46783e-21 9.12553e-06 9.78339e-22 2.8578e-08)
(-6.46312e-06 -8.94845e-06 -4.04942e-22 6.42512e-06 3.46913e-22 3.79999e-08)
(-4.13266e-06 -8.48686e-06 -5.17821e-22 4.08491e-06 4.79821e-22 4.7745e-08)
(-2.17495e-06 -7.75883e-06 1.83468e-20 2.11838e-06 1.96102e-21 5.65674e-08)
(-5.66459e-07 -6.87216e-06 2.62983e-20 4.9669e-07 3.65606e-21 6.97692e-08)
(7.33221e-07 -5.90538e-06 5.34306e-20 -8.14986e-07 4.0462e-21 8.17647e-08)
(1.80709e-06 -4.91666e-06 1.19364e-19 -1.89053e-06 -4.00808e-21 8.34355e-08)
(2.70774e-06 -3.89999e-06 -4.25299e-19 -2.79855e-06 -5.4886e-20 9.0807e-08)
(6.29661e-05 3.47688e-05 4.93412e-20 -6.29823e-05 2.69395e-20 1.61443e-08)
(5.22638e-05 4.56677e-05 7.03426e-20 -5.2261e-05 -3.9137e-20 -2.79766e-09)
(4.0222e-05 5.3225e-05 -2.39971e-19 -4.02054e-05 -1.26555e-19 -1.65582e-08)
(2.77184e-05 5.75409e-05 -1.96774e-19 -2.77187e-05 -1.98241e-21 3.91683e-10)
(1.5712e-05 5.88303e-05 3.61792e-20 -1.57091e-05 -3.6584e-21 -2.90651e-09)
(4.87116e-06 5.76051e-05 1.68655e-19 -4.86358e-06 -2.83843e-20 -7.57891e-09)
(-4.52173e-06 5.44514e-05 -4.669e-20 4.51924e-06 1.11357e-20 2.49043e-09)
(-1.23218e-05 4.988e-05 -2.66957e-20 1.23118e-05 -2.30789e-21 1.0014e-08)
(-1.84439e-05 4.43824e-05 -6.72986e-21 1.8438e-05 -1.13722e-20 5.89784e-09)
(-2.29997e-05 3.83597e-05 -3.47738e-20 2.29882e-05 -8.73592e-22 1.15159e-08)
(-2.60783e-05 3.21558e-05 7.51427e-20 2.60672e-05 9.86001e-21 1.1087e-08)
(-2.78624e-05 2.60412e-05 1.48027e-19 2.78522e-05 3.73669e-20 1.02392e-08)
(-2.85369e-05 2.0221e-05 2.27716e-20 2.85282e-05 1.1052e-20 8.76241e-09)
(-2.83092e-05 1.48121e-05 1.05085e-19 2.8303e-05 1.22374e-20 6.1825e-09)
(-2.73491e-05 9.87822e-06 4.5354e-20 2.73472e-05 1.36102e-20 1.87279e-09)
(-2.57894e-05 5.42775e-06 7.44917e-20 2.57925e-05 5.25284e-21 -3.08339e-09)
(-2.37051e-05 1.4759e-06 -1.04582e-19 2.37106e-05 -2.00827e-20 -5.44678e-09)
(-2.11463e-05 -1.93274e-06 -1.64833e-20 2.11494e-05 -2.66942e-20 -3.11342e-09)
(-1.82026e-05 -4.66855e-06 -6.27073e-20 1.82005e-05 -5.17951e-22 2.11948e-09)
(-1.50717e-05 -6.60745e-06 -8.77705e-20 1.50686e-05 -7.65557e-22 3.08291e-09)
(-1.19936e-05 -7.7782e-06 -4.02267e-20 1.19985e-05 -1.35182e-21 -4.86997e-09)
(-9.13348e-06 -8.31913e-06 9.347e-21 9.145e-06 -9.37508e-22 -1.15204e-08)
(-6.55973e-06 -8.36924e-06 4.61691e-21 6.57304e-06 -1.86601e-22 -1.33164e-08)
(-4.3077e-06 -8.03419e-06 4.61543e-21 4.32402e-06 1.22577e-21 -1.63272e-08)
(-2.3981e-06 -7.41762e-06 -5.61821e-22 2.42029e-06 -1.12448e-21 -2.21882e-08)
(-8.20422e-07 -6.62367e-06 -6.17206e-21 8.49824e-07 2.59911e-21 -2.94024e-08)
(4.64212e-07 -5.72841e-06 -6.87218e-21 -4.28176e-07 -1.02026e-20 -3.60359e-08)
(1.5347e-06 -4.78769e-06 -2.08032e-19 -1.48898e-06 -9.95401e-21 -4.57148e-08)
(2.44393e-06 -3.79955e-06 2.00767e-20 -2.40405e-06 2.68809e-20 -3.9875e-08)
(4.61826e-05 3.83469e-05 -2.71106e-19 -4.6181e-05 -1.17575e-19 -1.55891e-09)
(3.61803e-05 4.51883e-05 5.70801e-20 -3.61655e-05 8.29385e-20 -1.48168e-08)
(2.5701e-05 4.93517e-05 1.46293e-19 -2.57016e-05 2.53725e-20 6.31117e-10)
(1.55278e-05 5.09929e-05 -1.77349e-19 -1.5526e-05 -7.45206e-20 -1.7617e-09)
(6.2173e-06 5.05043e-05 -1.75986e-19 -6.21112e-06 -1.81166e-20 -6.18808e-09)
(-2.00453e-06 4.83487e-05 1.00329e-19 2.00522e-06 2.46667e-20 -6.87017e-10)
(-9.00183e-06 4.49208e-05 5.28147e-20 8.99721e-06 -1.15161e-21 4.62433e-09)
(-1.46748e-05 4.05927e-05 -9.01239e-20 1.46719e-05 -4.92577e-21 2.95037e-09)
(-1.90952e-05 3.56761e-05 7.8238e-20 1.90882e-05 3.50574e-21 6.96997e-09)
(-2.22864e-05 3.0451e-05 -5.51893e-20 2.22789e-05 -2.65514e-20 7.50413e-09)
(-2.43557e-05 2.51491e-05 1.33194e-19 2.43475e-05 -2.62442e-20 8.16456e-09)
(-2.54196e-05 1.99587e-05 5.46465e-20 2.54122e-05 -9.766e-21 7.34809e-09)
(-2.56209e-05 1.5008e-05 -6.30882e-21 2.56151e-05 -2.19502e-20 5.80596e-09)
(-2.50844e-05 1.03923e-05 2.05736e-20 2.50812e-05 -9.46333e-21 3.14557e-09)
(-2.39196e-05 6.15896e-06 -2.01948e-20 2.39187e-05 -1.3339e-20 8.42848e-10)
(-2.22013e-05 2.3548e-06 -6.17994e-21 2.22009e-05 1.41548e-20 4.04529e-10)
(-1.9993e-05 -9.61502e-07 -1.27509e-19 1.99906e-05 1.47107e-20 2.48595e-09)
(-1.7387e-05 -3.67443e-06 9.93974e-22 1.73794e-05 8.53387e-21 7.61218e-09)
(-1.45565e-05 -5.66739e-06 6.06708e-20 1.45456e-05 9.54456e-21 1.091e-08)
(-1.17129e-05 -6.94474e-06 8.57449e-22 1.1705e-05 4.17901e-21 7.85662e-09)
(-9.01898e-06 -7.61052e-06 -1.12094e-20 9.01376e-06 -2.76338e-22 5.21233e-09)
(-6.55746e-06 -7.78483e-06 -6.23445e-21 6.55083e-06 -2.51838e-22 6.63054e-09)
(-4.37465e-06 -7.5664e-06 1.98774e-20 4.36586e-06 -7.4286e-23 8.78937e-09)
(-2.49948e-06 -7.05204e-06 -1.35294e-20 2.48978e-06 -1.40302e-21 9.69846e-09)
(-9.29909e-07 -6.34123e-06 9.90768e-20 9.18525e-07 1.2492e-20 1.13837e-08)