/*--------------------------------*- C++ -*----------------------------------*\
| =========                 |                                                 |
| \\      /  F ield         | OpenFOAM: The Open Source CFD Toolbox           |
|  \\    /   O peration     | Version:  2506                                  |
|   \\  /    A nd           | Website:  www.openfoam.com                      |
|    \\/     M anipulation  |                                                 |
\*---------------------------------------------------------------------------*/
FoamFile
{
    version     2.0;
    format      ascii;
    arch        "LSB;label=32;scalar=64";
    class       volVectorField;
    location    "300";
    object      momentError;
}
// * * * * * * * * * * * * * * * * * * * * * * * * * * * * * * * * * * * * * //

dimensions      [0 1 -2 0 0 0 0];

internalField   nonuniform List<vector> 
10720
(
(-0.00545266 0.0181173 -6.95758e-15)
(-0.00396128 0.0179385 2.41344e-14)
(-0.000805276 0.0148877 -4.7264e-14)
(0.000385011 0.0137552 1.77748e-14)
(0.00129304 0.0122337 1.10311e-13)
(0.00188075 0.0106398 -1.752e-13)
(0.00228378 0.00905529 9.00319e-14)
(0.00239284 0.00741376 -1.11103e-13)
(0.00228395 0.00595749 -2.54726e-13)
(0.00204801 0.00462909 3.44229e-13)
(0.00175619 0.00376093 1.24185e-13)
(0.000899437 0.00204444 -2.2887e-13)
(0.00036505 0.00110346 -3.34604e-13)
(1.13001e-05 0.000416937 -5.72157e-14)
(-0.000318873 -0.000132324 -1.39796e-13)
(-0.000557941 -0.000530377 -3.1045e-13)
(-0.000748826 -0.000762881 -1.4678e-13)
(-0.000874306 -0.000848633 8.32828e-13)
(-0.000624401 -0.000715652 4.2335e-13)
(-0.000698061 -0.00065865 -5.95137e-13)
(-0.00108723 -0.000587356 1.05315e-13)
(-0.000733077 -0.000556454 1.53285e-13)
(-0.00130299 -0.0008056 -6.74881e-14)
(-0.0113359 -0.00159373 -1.51569e-13)
(-0.023797 -0.00391773 3.57066e-14)
(-0.0173894 -0.00494163 -2.3519e-15)
(-0.00226599 -0.00343701 4.15546e-14)
(0.00608422 -0.000824052 -1.64641e-14)
(0.00691122 0.000773409 4.39674e-14)
(0.00470857 0.000880777 1.54509e-13)
(0.00133288 0.000397699 3.03028e-14)
(0.000373485 3.77875e-05 -1.28639e-13)
(0.00119163 -0.000172424 -7.93068e-15)
(0.00138166 -0.000198253 -2.15746e-13)
(0.00117564 -6.44412e-05 -2.8237e-13)
(0.000943811 0.00110052 1.15523e-13)
(0.00241094 0.0113829 -1.13965e-14)
(0.05362 0.0723041 -4.65985e-16)
(1.09291 -0.120313 -6.74887e-14)
(-0.00607692 0.0170108 -1.07594e-14)
(-0.00621915 0.0137317 2.65401e-14)
(-0.00595255 0.0102223 1.73698e-15)
(-0.00507637 0.00752577 3.61572e-14)
(-0.00406179 0.00529604 -3.28902e-14)
(-0.00295165 0.00294591 -9.39628e-14)
(-0.00119753 0.000816734 -1.07582e-13)
(-0.000101532 -0.000132048 2.99826e-14)
(-0.000408757 0.000389376 -7.50788e-14)
(-0.0013095 0.0012443 9.57779e-14)
(-0.00153149 0.00112225 -6.00533e-14)
(-0.00133462 0.000817641 -1.46143e-13)
(-0.00117513 0.00064925 -1.64699e-13)
(-0.00107976 0.000543577 1.32127e-14)
(-0.000974991 0.000444993 1.3306e-13)
(-0.000855642 0.000362267 3.995e-14)
(-0.000748662 0.000297989 -5.03188e-14)
(-0.000657861 0.000248664 -3.54844e-14)
(-0.000580704 0.000207859 -2.18232e-14)
(-0.000512421 0.000174518 3.90512e-14)
(-0.000453414 0.000145368 1.73027e-14)
(-0.000401031 0.000121138 2.50613e-14)
(-0.00035548 9.85494e-05 -3.38537e-14)
(-0.000310763 7.86488e-05 -2.46684e-14)
(-0.000264308 6.03319e-05 1.81957e-14)
(-0.000218412 4.85949e-05 1.2421e-14)
(-0.000179347 3.93359e-05 6.93912e-15)
(-0.000151567 2.12241e-05 -1.46479e-15)
(-0.000133336 7.65617e-06 -2.85077e-16)
(-0.000126908 -3.39381e-06 2.28852e-16)
(-0.000102246 -4.28863e-06 -4.49566e-16)
(-8.06998e-05 -7.35575e-06 -1.8613e-15)
(-6.8193e-05 -8.92248e-06 -1.26377e-15)
(-6.6971e-05 -1.15519e-05 -3.80962e-15)
(-2.85672e-05 -1.0076e-05 -2.86635e-15)
(-6.54679e-05 -1.439e-05 1.25338e-15)
(-4.15042e-05 -2.6259e-05 -2.17266e-15)
(0.000102966 -0.000166644 -1.10678e-14)
(0.00178822 -0.00133058 -2.15044e-14)
(0.000345652 0.0136808 -1.31359e-14)
(0.00170809 0.01373 5.89328e-15)
(0.00296462 0.0114977 7.82885e-15)
(0.00429899 0.0108549 -3.3699e-14)
(0.00519801 0.00990414 2.10463e-14)
(0.00578342 0.00882203 8.04554e-14)
(0.00627763 0.00765815 1.03939e-13)
(0.00646534 0.00646789 1.00685e-13)
(0.00637305 0.00534116 -3.99045e-15)
(0.00619393 0.00437967 1.90746e-13)
(0.00576488 0.00336935 -2.08917e-13)
(0.00567325 0.00365876 -1.19571e-13)
(0.00542101 0.00343452 4.48731e-13)
(0.00518367 0.00293005 1.28285e-13)
(0.00453839 0.00260071 -1.19215e-13)
(0.00402747 0.00218473 -1.78074e-14)
(0.00348928 0.00177926 3.42124e-13)
(0.00284918 0.00133515 -1.53329e-13)
(0.00311702 0.000583811 -4.92042e-13)
(0.00924774 -0.00138261 1.88466e-13)
(0.0145772 -0.00381302 2.35474e-13)
(0.00206418 7.58077e-05 4.67897e-14)
(-0.0540771 -0.0217651 -1.30964e-13)
(-0.0213842 -0.00226749 1.92568e-13)
(0.0202664 -0.00161502 -4.20021e-14)
(0.0631771 0.00203058 -7.04712e-14)
(0.0550214 0.00402681 -3.01976e-14)
(0.0180558 0.00308667 5.59891e-15)
(0.00497666 0.00255686 -1.50045e-14)
(0.00689577 0.00199116 -1.58811e-14)
(0.00357812 0.000508921 -2.03964e-14)
(0.00288511 -0.000477003 3.52715e-14)
(0.00268592 -0.000604542 -1.88247e-13)
(0.00235531 -0.000482114 -2.24071e-13)
(0.00203013 -0.000344294 1.6233e-13)
(0.0017504 3.20601e-05 -3.95083e-14)
(0.00116619 0.00192597 3.30635e-14)
(-0.0294762 0.0142225 -1.41321e-14)
(-0.890323 0.108669 -3.85201e-14)
(-0.000510866 0.0128368 -4.64275e-15)
(-0.00145337 0.0107463 1.24048e-13)
(-0.00214031 0.00840312 -7.97373e-15)
(-0.00240048 0.00654646 -1.2904e-13)
(-0.00244326 0.00472868 -2.56894e-14)
(-0.0021619 0.00291101 1.27326e-13)
(-0.00135434 0.00138323 1.11579e-13)
(-0.00082619 0.000722016 5.95263e-14)
(-0.000958562 0.000897373 -8.27172e-14)
(-0.00139702 0.00114979 -1.05817e-14)
(-0.00160033 0.00092019 1.01905e-13)
(-0.00153759 0.000651747 -5.20706e-15)
(-0.00140702 0.000484769 1.22863e-14)
(-0.00128788 0.000361127 -2.48011e-14)
(-0.00116436 0.000255949 -3.25936e-14)
(-0.00103037 0.000181883 1.41578e-14)
(-0.000906693 0.000132341 1.70879e-14)
(-0.000799977 9.9381e-05 -5.80561e-14)
(-0.000708729 7.42377e-05 2.69356e-14)
(-0.000628701 5.51034e-05 1.78494e-14)
(-0.000558759 3.90305e-05 1.4682e-14)
(-0.000496965 2.56476e-05 3.19188e-14)
(-0.000441551 1.33235e-05 4.18003e-14)
(-0.000387624 -5.18906e-07 1.76573e-14)
(-0.000333963 -1.5167e-05 -1.51732e-14)
(-0.000282675 -2.70318e-05 8.15661e-16)
(-0.000236062 -3.14632e-05 -5.69003e-15)
(-0.000198229 -3.27865e-05 -2.08956e-15)
(-0.000173133 -3.09664e-05 3.94329e-16)
(-0.000152632 -2.60761e-05 -3.79922e-17)
(-0.000128352 -2.4736e-05 2.79462e-16)
(-0.000107089 -1.84594e-05 6.10928e-16)
(-8.42454e-05 -1.55905e-05 1.84441e-15)
(-5.5149e-05 -1.30017e-05 2.33494e-15)
(-5.49293e-05 -1.42354e-05 7.53007e-16)
(-2.15444e-05 -1.9536e-05 -1.54502e-15)
(3.83982e-05 -2.16065e-05 -6.27514e-17)
(0.000216946 -1.77774e-05 3.78606e-15)
(0.00135444 0.000195421 9.21102e-15)
(-0.001433 0.0112023 -5.0682e-15)
(-0.00063533 0.0111932 -8.30101e-16)
(0.000445724 0.0094718 -5.85292e-15)
(0.00131634 0.00930695 1.55723e-14)
(0.00192296 0.00879406 3.91636e-15)
(0.00242515 0.00804205 -3.3771e-14)
(0.00286968 0.00728895 -1.07664e-13)
(0.00310972 0.00645404 -9.54638e-14)
(0.00318984 0.00559725 -1.11355e-13)
(0.0031794 0.00480939 1.10083e-14)
(0.00305778 0.004078 2.64141e-13)
(0.00286823 0.00335396 7.06344e-14)
(0.00266714 0.00267041 -9.93291e-14)
(0.00240943 0.00212853 -2.41109e-13)
(0.00245055 0.00156827 1.10265e-13)
(0.00253775 0.00112521 1.45952e-13)
(0.00251135 0.000830409 -9.42584e-14)
(0.00249672 0.000728138 -1.89419e-13)
(0.00156171 0.00234289 3.17212e-13)
(-0.00539589 0.00762685 -9.48813e-14)
(-0.0061399 0.00925875 -1.19588e-13)
(0.00144831 -0.000799049 1.78561e-13)
(0.0963798 0.0512542 7.39565e-14)
(0.00121772 0.000149078 -3.35689e-15)
(0.0195362 0.000436157 -3.3087e-14)
(0.0335319 0.00127512 3.5674e-15)
(-0.0202648 -0.00310343 -3.06245e-14)
(-0.00523735 -0.00265314 2.10727e-14)
(-0.000119449 0.000681803 -3.31804e-14)
(0.00348502 0.0013782 -7.21096e-14)
(0.00589075 -0.000390923 6.96215e-14)
(0.0111487 -0.00111705 3.08517e-14)
(0.00669985 -0.0010516 -1.21852e-13)
(0.00357428 -0.000781752 7.82282e-14)
(0.00225805 -0.000519533 1.65117e-14)
(0.00193256 -0.000246629 -3.61768e-14)
(0.000566474 0.000692856 -9.98394e-14)
(-0.0128995 0.00157376 2.77989e-14)
(-0.108637 0.00923956 9.92233e-15)
(-0.00194911 0.0105568 2.92054e-14)
(-0.0022329 0.00894191 -2.76748e-14)
(-0.00237665 0.0069869 -9.83124e-14)
(-0.00240076 0.00557154 4.48459e-14)
(-0.00223407 0.00417188 2.06232e-14)
(-0.00189399 0.00279248 -6.45599e-14)
(-0.00138018 0.00158769 1.35207e-14)
(-0.00113688 0.00116426 -1.17658e-13)
(-0.00130449 0.00125049 -7.91495e-14)
(-0.00154041 0.00126021 -8.81447e-14)
(-0.00163515 0.00108338 9.75327e-14)
(-0.0015705 0.000885354 1.45233e-14)
(-0.00143805 0.000726424 -1.3646e-14)
(-0.00129924 0.000590569 -8.09024e-14)
(-0.00116217 0.000473458 -5.80951e-14)
(-0.00102329 0.000381505 3.78613e-14)
(-0.000894384 0.000312351 -2.13764e-14)
(-0.000782862 0.000259033 -4.3981e-14)
(-0.000688106 0.000215301 -4.00491e-15)
(-0.000606327 0.000178941 -4.02505e-14)
(-0.000535839 0.000147312 -4.3013e-14)
(-0.000474262 0.000119567 -8.43538e-14)
(-0.00041892 9.31889e-05 -6.39697e-14)
(-0.000365095 6.76343e-05 -1.80085e-14)
(-0.000311755 4.50753e-05 3.95352e-15)
(-0.000261115 2.86231e-05 -1.15026e-15)
(-0.000214847 1.93815e-05 -1.05385e-14)
(-0.000175148 1.28813e-05 4.48001e-15)
(-0.00014799 8.7452e-06 5.82986e-16)
(-0.000130032 8.61498e-08 -1.8169e-16)
(-0.000106991 -6.13049e-06 -8.10996e-18)
(-8.65762e-05 -8.62307e-06 -5.30993e-16)
(-7.07677e-05 -1.0974e-05 -9.78484e-16)
(-5.75314e-05 -6.685e-06 -1.46035e-15)
(-2.54323e-05 -2.13045e-05 1.88453e-15)
(-3.40643e-06 -8.81722e-05 4.74816e-17)
(0.000105084 -6.06741e-05 1.44844e-14)
(0.000102901 -5.08356e-05 8.75436e-15)
(0.000999954 0.000211479 -1.03426e-13)
(-0.000410155 0.00916652 7.9241e-15)
(0.000314295 0.00912554 -2.34122e-15)
(0.00108367 0.00783547 5.94833e-17)
(0.00188453 0.00778743 -7.12783e-15)
(0.00244539 0.00735242 2.01562e-15)
(0.00293356 0.00673278 3.58412e-14)
(0.00339901 0.00612112 5.84952e-14)
(0.0036701 0.00542167 5.46535e-14)
(0.00380606 0.00468678 -1.33439e-13)
(0.00385706 0.00399636 -1.1168e-13)
(0.00378584 0.00333068 1.41569e-13)
(0.00363411 0.00271314 2.56656e-13)
(0.00340537 0.00220053 1.35731e-13)
(0.00314277 0.00179533 -4.72263e-13)
(0.00293149 0.00141499 -1.62194e-13)
(0.00249847 0.0012937 3.85996e-13)
(0.00225422 0.0010634 8.3932e-14)
(0.00201006 0.000882847 -1.24286e-13)
(0.00179628 0.000426785 -2.28449e-13)
(0.00138587 -0.00236802 1.97929e-13)
(-0.00288471 -0.00642821 4.36179e-14)
(0.00141378 0.00116368 -2.22465e-13)
(-0.0472556 -0.0245413 1.65613e-13)
(0.00249529 0.000940462 -1.14184e-13)
(0.00129118 -0.000637801 -3.71963e-14)
(0.0208224 -0.00476552 3.56729e-14)
(0.104797 -0.0168904 -4.56134e-14)
(-0.038519 -0.000139854 1.01007e-14)
(-0.0750892 0.00653348 1.36646e-14)
(-0.0869465 0.0075922 2.11238e-14)
(-0.00122977 -0.00373345 -9.04539e-15)
(0.00208583 -0.000621104 2.55707e-14)
(0.0069851 -0.00134839 2.07271e-13)
(0.00482718 -0.000798673 5.34702e-14)
(0.00231332 -0.000590303 -7.58653e-14)
(0.00204264 -0.000461996 -1.16616e-13)
(0.00211419 -0.000169026 1.66379e-14)
(-0.00241427 -0.000973128 -2.83194e-14)
(-0.0281902 0.00830512 4.56553e-14)
(-0.000958173 0.00863278 1.88116e-14)
(-0.00136735 0.007465 -3.68671e-14)
(-0.00165648 0.00594656 -4.03326e-15)
(-0.00183108 0.00486898 -3.37317e-14)
(-0.00182279 0.00375533 -2.08509e-14)
(-0.00163709 0.00264901 7.34794e-14)
(-0.001312 0.00170012 -1.84165e-13)
(-0.00122197 0.00142897 1.69139e-13)
(-0.00146094 0.00150102 2.01713e-15)
(-0.00159112 0.00139279 -1.20426e-13)
(-0.00163903 0.00118844 -7.02306e-14)
(-0.00158994 0.000970454 -1.98376e-14)
(-0.0014776 0.000773811 5.96073e-14)
(-0.00134647 0.000605497 1.29287e-13)
(-0.00121282 0.000465483 2.11127e-14)
(-0.00107722 0.000353762 -4.73442e-14)
(-0.000949268 0.000269274 2.22029e-14)
(-0.000834756 0.000205862 5.00197e-14)
(-0.000735426 0.000157089 -3.67825e-15)
(-0.000648666 0.000119257 -7.78512e-15)
(-0.000573293 8.88145e-05 -2.1443e-14)
(-0.000506672 6.38947e-05 5.28244e-14)
(-0.000446024 4.17094e-05 3.09471e-14)
(-0.000387198 2.13573e-05 -1.07698e-14)
(-0.000329999 3.85672e-06 -1.69228e-14)
(-0.000276688 -8.88012e-06 -6.96764e-15)
(-0.000228114 -1.57709e-05 1.26369e-14)
(-0.000185893 -1.96662e-05 -8.92332e-16)
(-0.000155444 -1.99547e-05 -5.14457e-16)
(-0.000133671 -2.25242e-05 2.02237e-16)
(-0.000107638 -2.42905e-05 -3.84308e-17)
(-8.30554e-05 -1.24055e-05 -3.59456e-17)
(-6.20682e-05 6.42622e-06 2.71372e-16)
(-8.63278e-05 -0.000133811 5.0394e-16)
(-0.000736798 -0.00230272 -3.25473e-15)
(-0.000513193 -0.00182982 7.59353e-15)
(-0.000114142 -0.000276561 -1.28938e-14)
(0.00023862 0.000656397 -2.99426e-14)
(0.000896994 0.000157456 -1.06726e-16)
(-0.000501507 0.00776126 -4.04031e-15)
(3.17664e-05 0.00771861 4.7746e-15)
(0.000610703 0.00671155 6.32004e-17)
(0.00124649 0.00678175 -4.18747e-15)
(0.00168504 0.00647545 -2.8868e-14)
(0.00208126 0.0060162 3.46591e-14)
(0.00247822 0.00561122 1.26557e-14)
(0.00271571 0.00509813 -7.01971e-14)
(0.00286275 0.00454099 -5.82531e-14)
(0.00294101 0.00400789 -1.21424e-13)
(0.00291473 0.0034741 1.74637e-14)
(0.00282224 0.0029669 -1.32387e-13)
(0.00267437 0.00251115 8.04728e-15)
(0.00249996 0.00210157 3.54447e-13)
(0.00230579 0.0017415 -2.34268e-13)
(0.0021741 0.00133072 -1.67698e-13)
(0.00208586 0.000975204 1.01603e-13)
(0.00195935 0.000721672 -1.31994e-13)
(0.00180833 0.000533971 8.49026e-14)
(0.00163141 0.000364405 -1.43983e-13)
(0.00123787 4.94599e-05 -1.61848e-13)
(0.00118885 0.000233826 1.83298e-13)
(0.00213444 0.000742616 -4.05415e-14)
(0.00156619 -0.00020903 8.97019e-14)
(-0.00775264 -0.00145102 5.67709e-14)
(-0.0356549 0.00354631 6.28513e-15)
(-0.0818728 0.0151798 1.08877e-13)
(0.0234612 0.00191586 -2.11621e-14)
(0.0279449 -0.00683354 2.25013e-14)
(0.0103894 -0.0030437 -5.58373e-14)
(0.00541536 0.00239133 -1.55464e-13)
(-0.0069391 -0.00248636 1.2904e-15)
(0.00442102 -0.000335549 1.40191e-13)
(0.0031097 -0.000339465 -3.31539e-14)
(0.00222135 -0.000422255 -1.04867e-13)
(0.00155408 -0.000555234 1.18055e-13)
(0.00275473 -0.000619467 -3.96519e-14)
(0.000967795 -0.00169293 -1.66389e-14)
(-0.0142712 0.00845715 -5.3073e-16)
(-0.000914772 0.00730191 2.02787e-14)
(-0.00119701 0.00637816 1.43586e-14)
(-0.00140138 0.00513093 -3.19916e-14)
(-0.0015425 0.00427506 7.88713e-14)
(-0.00156112 0.00337986 1.86887e-13)
(-0.00143914 0.00248894 -6.88166e-14)
(-0.00129245 0.00186233 -7.24346e-14)
(-0.00131441 0.00165593 1.50521e-13)
(-0.00150108 0.0016184 1.26904e-13)
(-0.00159535 0.00146917 3.56698e-14)
(-0.00161977 0.00126602 -5.19525e-14)
(-0.00157536 0.00105347 5.9192e-14)
(-0.00147517 0.000856595 4.54236e-14)
(-0.00135176 0.000687775 -3.98981e-15)
(-0.00122296 0.000547935 -9.37279e-14)
(-0.0010904 0.00043348 3.96833e-15)
(-0.000964434 0.000344194 3.73138e-15)
(-0.000849106 0.00027548 2.07072e-16)
(-0.000747754 0.000221611 1.51407e-14)
(-0.000658509 0.000178408 -5.42996e-15)
(-0.000580679 0.000142583 1.23042e-14)
(-0.000511816 0.000112196 -2.67325e-14)
(-0.000449087 8.44495e-05 -1.53713e-14)
(-0.000388583 5.89859e-05 1.55093e-14)
(-0.000330547 3.70915e-05 2.09648e-14)
(-0.000276987 2.09233e-05 1.25678e-15)
(-0.000228223 1.08173e-05 -1.23862e-15)
(-0.000185721 4.88265e-06 -3.26358e-15)
(-0.000154618 2.56771e-06 6.55338e-16)
(-0.000132301 -3.63825e-06 -1.05121e-16)
(-0.000106081 -8.52305e-06 -5.34545e-16)
(-8.29602e-05 -1.64627e-05 -2.89426e-17)
(-6.9301e-05 -3.68603e-05 9.13871e-17)
(-6.99186e-05 0.000227739 -5.56086e-17)
(0.000187225 0.00338388 -9.30275e-16)
(7.35757e-05 0.0026072 -6.89491e-16)
(0.0001097 0.000263243 1.03287e-14)
(0.00026002 -0.000768293 -1.08689e-14)
(0.000744773 0.000257409 5.4817e-15)
(-0.000296802 0.00661657 1.93882e-15)
(0.000171783 0.00656973 5.0514e-16)
(0.000639822 0.00577016 3.16097e-15)
(0.00119389 0.00587176 -2.46105e-15)
(0.00157639 0.00563098 -1.08385e-15)
(0.0019304 0.00525418 1.63602e-14)
(0.00230055 0.00493893 7.60976e-15)
(0.00253607 0.00452086 4.04965e-14)
(0.00269999 0.00405437 6.80007e-14)
(0.00280915 0.00359668 -3.20568e-14)
(0.0028224 0.00312255 -7.79468e-15)
(0.00277526 0.00265865 7.50291e-14)
(0.00267887 0.00222831 -1.45553e-13)
(0.00253785 0.00183391 -2.89469e-13)
(0.00237622 0.00147574 1.75275e-13)
(0.00220914 0.00114017 2.68417e-13)
(0.0019966 0.000954973 -3.55929e-13)
(0.00186303 0.000768023 6.0682e-14)
(0.00173887 0.000571797 1.11914e-13)
(0.00157309 0.000324822 -1.1299e-13)
(0.00130271 0.000133878 8.56405e-14)
(0.00107611 0.000311087 -8.73554e-14)
(0.00151382 0.000668194 -1.69272e-13)
(0.00204063 -0.000225758 -5.03255e-14)
(0.00106205 -0.00222817 -1.16223e-13)
(0.000381481 -0.00266601 5.63384e-14)
(-3.33345e-06 0.000670395 -1.62156e-14)
(0.00897663 0.00291631 -1.09036e-14)
(0.0164361 0.00122441 2.13927e-14)
(0.0367696 -0.00483363 4.25854e-14)
(-0.0183147 0.000430095 3.28631e-14)
(0.00044707 -0.00164678 -4.52735e-14)
(-0.00322378 -2.37302e-05 -1.16459e-13)
(0.000535379 1.85474e-05 -1.4869e-13)
(0.000625552 -0.000236134 3.37759e-14)
(0.000978552 -0.000998233 7.32926e-14)
(0.00261008 -0.000614581 8.46592e-14)
(0.00158645 -0.00179693 3.85122e-14)
(-0.0107923 0.00886721 2.85599e-14)
(-0.000667411 0.00622885 8.59253e-15)
(-0.000936769 0.0054959 -2.06875e-14)
(-0.00113794 0.00447867 1.04886e-14)
(-0.00128712 0.00378439 -5.81631e-15)
(-0.00132789 0.00305233 4.66611e-15)
(-0.00126172 0.00231952 -7.81612e-14)
(-0.0012257 0.00191035 -2.94201e-14)
(-0.00132731 0.00177909 -3.5089e-14)
(-0.00148154 0.00168405 2.74101e-14)
(-0.00155601 0.0015133 1.35744e-13)
(-0.00157268 0.00131243 -3.03643e-14)
(-0.00153623 0.00110651 -5.88478e-14)
(-0.00145149 0.000910399 2.49237e-15)
(-0.00134251 0.0007376 -5.12989e-14)
(-0.00122478 0.000591405 1.70091e-14)
(-0.00110105 0.000468558 2.54133e-14)
(-0.000981133 0.000369415 3.93208e-14)
(-0.000869068 0.000290896 1.50522e-14)
(-0.000768474 0.000228597 -1.77056e-14)
(-0.00067871 0.000178515 2.27324e-14)
(-0.000599379 0.000137636 2.51899e-14)
(-0.000528472 0.000103547 1.82651e-14)
(-0.000463305 7.37906e-05 3.81766e-15)
(-0.000400625 4.75042e-05 -1.44158e-14)
(-0.000340828 2.54971e-05 1.18078e-14)
(-0.000286141 9.04366e-06 3.28143e-15)
(-0.000236327 -1.23161e-06 -1.13791e-14)
(-0.000192788 -7.25268e-06 1.22443e-15)
(-0.000160261 -9.25998e-06 -1.19073e-16)
(-0.000136583 -1.4304e-05 2.06363e-16)
(-0.000110186 -1.81493e-05 6.71514e-16)
(-8.61999e-05 -1.41159e-05 -1.61955e-16)
(-6.83373e-05 -1.11611e-05 -2.60059e-16)
(-2.36281e-05 -8.19587e-05 5.63285e-16)
(0.000354386 -0.00113706 1.40029e-15)
(0.000308184 -0.000904064 -1.19309e-14)
(3.08047e-05 -1.26918e-05 3.46466e-15)
(5.11567e-05 0.000130403 4.4213e-14)
(0.0011018 -0.00051474 3.107e-14)
(-0.000234961 0.00572143 3.09027e-15)
(0.000160236 0.0056817 5.81711e-16)
(0.000544833 0.00503809 -1.12227e-15)
(0.00100881 0.00516735 4.17695e-15)
(0.00131614 0.00499199 -8.70606e-15)
(0.00162593 0.00469484 -1.10454e-15)
(0.00195662 0.00446119 2.36154e-14)
(0.00217222 0.00412639 -1.11536e-14)
(0.00232962 0.00375245 -3.96379e-14)
(0.00244413 0.00338391 2.65437e-14)
(0.00247484 0.00298874 -6.0794e-14)
(0.00245346 0.00259373 -1.50908e-13)
(0.00238809 0.0022192 1.06641e-13)
(0.00227702 0.00186681 3.77271e-13)
(0.00214236 0.0015424 -1.38837e-14)
(0.00198625 0.00125305 -4.01468e-13)
(0.00183804 0.000971498 3.32614e-13)
(0.00174748 0.000744483 2.33417e-13)
(0.00164516 0.000554819 1.24586e-13)
(0.00151341 0.000367048 5.87441e-14)
(0.00130714 0.00022007 -2.88441e-14)
(0.00112428 0.000339474 1.61955e-13)
(0.00141249 0.00065307 1.11978e-13)
(0.00187467 7.98192e-05 -1.01889e-14)
(0.00104193 -0.00147129 2.14293e-13)
(-0.00164519 -0.00185806 -6.5717e-14)
(-0.002441 -4.25056e-05 -7.65471e-15)
(-0.00108139 0.0021181 5.6783e-15)
(0.00177171 0.0020374 -2.01465e-14)
(0.00125164 0.000614637 -2.08213e-14)
(7.87982e-05 -0.000629892 -1.52601e-14)
(-0.00168689 -0.000971319 4.77873e-14)
(-0.00244876 -0.000240103 -2.27646e-14)
(-0.00042477 1.42714e-05 -1.28012e-13)
(0.00203994 -0.000484063 -2.076e-14)
(0.0225171 -0.00783608 -1.01866e-13)
(-0.00642784 0.00213403 -5.78245e-14)
(0.000769841 -0.00222619 6.50993e-15)
(-0.00699915 0.0080608 -2.58405e-14)
(-0.0005441 0.00538534 -9.66358e-15)
(-0.000775484 0.00479082 1.21933e-14)
(-0.000952285 0.00394586 -2.6136e-14)
(-0.00109062 0.00337345 -3.94384e-15)
(-0.00114025 0.00276324 7.38593e-15)
(-0.00110742 0.00213805 1.10782e-14)
(-0.00113697 0.00184808 8.06554e-14)
(-0.00128486 0.00181644 -1.01457e-13)
(-0.00142162 0.00170256 -3.27956e-14)
(-0.00149197 0.00152491 -3.11577e-14)
(-0.00150973 0.00133138 1.17316e-13)
(-0.00148137 0.00113652 -4.64564e-14)
(-0.00141088 0.000948433 -4.55632e-15)
(-0.00131742 0.000779685 1.85445e-14)
(-0.00121225 0.000634536 1.77858e-14)
(-0.00109835 0.000510063 1.20854e-14)
(-0.000985962 0.000407481 -7.684e-14)
(-0.000878559 0.000324566 -2.81451e-14)
(-0.000779912 0.000258075 3.58236e-14)
(-0.000690498 0.000204183 1.42775e-15)
(-0.00061057 0.000160214 3.63953e-14)
(-0.000538257 0.000123263 -1.0395e-14)
(-0.000471435 9.11721e-05 1.50806e-15)
(-0.000407307 6.27467e-05 2.42438e-14)
(-0.000346697 3.89723e-05 -2.03725e-14)
(-0.000291509 2.08991e-05 -6.9934e-15)
(-0.000241355 9.01158e-06 6.58709e-15)
(-0.000197273 2.01633e-06 2.20017e-15)
(-0.00016385 -8.49501e-07 -1.00723e-18)
(-0.000139153 -6.47872e-06 -2.58066e-16)
(-0.000112478 -1.0551e-05 6.40771e-16)
(-8.69943e-05 -9.78536e-06 7.44055e-17)
(-6.80918e-05 -1.12999e-05 -1.08778e-15)
(-4.93059e-05 -7.34466e-06 5.34477e-17)
(-2.2842e-05 1.61588e-05 -3.17096e-15)
(1.32667e-05 8.87599e-05 7.25205e-15)
(-1.74051e-05 -2.11289e-05 -1.54004e-15)
(9.34157e-05 -8.05581e-05 -2.48606e-15)
(0.000507594 0.000375146 -4.2307e-14)
(-0.000158107 0.00498123 1.40045e-15)
(0.00018253 0.00498852 1.50842e-15)
(0.000510175 0.00445604 -9.51365e-16)
(0.000916902 0.00455695 -1.91653e-15)
(0.00120676 0.0044608 -3.80932e-15)
(0.00143999 0.00423083 1.65232e-14)
(0.00172927 0.00402566 1.38904e-14)
(0.00193946 0.00373305 -5.19379e-14)
(0.00209809 0.00341345 2.17387e-14)
(0.00222154 0.00310228 1.11332e-13)
(0.00226816 0.0027611 4.63307e-14)
(0.00227089 0.00241236 2.13099e-14)
(0.00223317 0.00207506 -1.87932e-13)
(0.00215064 0.00174984 -4.29972e-13)
(0.0020409 0.00144562 -3.04117e-13)
(0.00190841 0.00116502 1.20099e-13)
(0.0017597 0.000907036 -7.38709e-14)
(0.00164218 0.000724178 -3.77191e-13)
(0.00155067 0.000557625 -1.94607e-13)
(0.00143801 0.000396677 1.60916e-13)
(0.00127896 0.000266582 1.60992e-13)
(0.00115239 0.000318502 -9.3349e-14)
(0.00134769 0.000471134 -3.83206e-14)
(0.0016096 -2.85815e-05 2.4035e-15)
(0.000898613 -0.00122715 -6.09752e-14)
(-0.000728628 -0.00155771 6.33033e-14)
(-0.0017952 -0.000118993 7.22103e-15)
(-0.0010806 0.00152071 4.32165e-15)
(0.00100356 0.00159766 -4.41541e-15)
(0.00256897 0.000298345 5.2191e-14)
(0.00140654 -0.000728496 3.49699e-14)
(7.17115e-05 -0.000838591 -3.45189e-15)
(-0.00102733 -0.000353467 1.13137e-13)
(-0.000563954 0.000163162 7.80907e-14)
(0.000248397 0.00205437 -4.04636e-14)
(-0.0144354 0.00188401 6.9446e-14)
(-0.00498434 -0.00190647 5.85614e-14)
(-0.00101673 -0.000538423 -3.50685e-14)
(-0.00278434 0.00721143 -2.77353e-14)
(-0.00042844 0.00469814 7.39016e-15)
(-0.000633935 0.00420723 -1.20433e-14)
(-0.000795666 0.00350431 3.27318e-15)
(-0.000926284 0.00302418 6.10814e-14)
(-0.000986068 0.00250159 3.14005e-15)
(-0.000996632 0.00203955 1.01657e-13)
(-0.00107641 0.0018448 1.36656e-13)
(-0.00123461 0.00177481 -5.30228e-14)
(-0.0013418 0.00167533 -7.25305e-14)
(-0.00140951 0.00151098 -5.54178e-14)
(-0.00143367 0.00132989 -1.02178e-13)
(-0.0014154 0.00114813 -5.53499e-15)
(-0.00135863 0.000970741 -4.30568e-14)
(-0.00128053 0.000809242 5.78124e-14)
(-0.00118896 0.000667209 1.93981e-14)
(-0.00108655 0.000542494 -3.07544e-14)
(-0.00098334 0.000437175 -3.25892e-15)
(-0.000882351 0.000349959 -2.54454e-14)
(-0.000787557 0.000278585 2.79055e-15)
(-0.000699994 0.000220003 -1.77735e-14)
(-0.000620624 0.000171745 -3.33873e-14)
(-0.000547872 0.000131177 1.47996e-14)
(-0.00048011 9.61918e-05 -2.76341e-14)
(-0.000414957 6.57062e-05 -1.00696e-14)
(-0.000353854 4.03181e-05 6.28894e-15)
(-0.000298283 2.09719e-05 3.97366e-15)
(-0.000247813 7.72146e-06 1.56447e-15)
(-0.000203217 -9.23368e-08 -1.03595e-15)
(-0.000168805 -3.72985e-06 -4.35621e-16)
(-0.000142951 -9.14231e-06 -7.72197e-17)
(-0.000115993 -1.38408e-05 -1.0351e-15)
(-8.96382e-05 -1.31476e-05 5.57195e-16)
(-7.06446e-05 -1.41922e-05 3.07953e-15)
(-5.34809e-05 -1.2017e-05 5.21667e-17)
(-3.29584e-05 -1.85092e-05 2.50324e-15)
(-2.25948e-05 -2.10625e-05 -3.42481e-15)
(1.87623e-05 -4.77877e-05 -6.47877e-15)
(0.00011084 1.69285e-05 3.7921e-15)
(0.000121602 0.000538078 -2.26019e-14)
(-9.83185e-05 0.00436479 2.41657e-15)
(0.000178087 0.0045469 4.02175e-15)
(0.000468732 0.00399761 -1.76399e-16)
(0.000828635 0.0040646 9.02931e-18)
(0.00111577 0.0040478 -2.53529e-15)
(0.00132025 0.00382569 -6.74488e-15)
(0.00159038 0.00370547 -4.94542e-15)
(0.00172907 0.00344723 -5.23977e-14)
(0.00186266 0.00314688 -1.00906e-15)
(0.00198784 0.00286859 1.92937e-14)
(0.00204406 0.00256864 -2.33005e-14)
(0.00206067 0.00226537 1.41291e-13)
(0.00204323 0.00196929 1.49119e-13)
(0.00198231 0.00167943 2.6948e-14)
(0.00189365 0.00140443 2.76941e-13)
(0.00178063 0.00114778 -5.76236e-14)
(0.00164734 0.000913912 -7.31758e-16)
(0.0015319 0.000704558 2.14509e-13)
(0.00146027 0.000542688 9.99396e-14)
(0.00136779 0.000402708 -2.94234e-14)
(0.00124674 0.000290491 -1.2193e-13)
(0.0011546 0.000288606 -1.15926e-14)
(0.00126411 0.000330958 -9.36746e-14)
(0.00138359 -7.50731e-05 -8.10534e-14)
(0.000812111 -0.000955064 4.88842e-14)
(-0.000428201 -0.00117994 -3.10979e-14)
(-0.00111139 -9.35858e-05 -5.64996e-14)
(-0.000414153 0.00114985 6.4521e-15)
(0.000925799 0.00121111 -3.11589e-15)
(0.00157231 0.00024978 -3.83511e-15)
(0.00117473 -0.000633817 8.20756e-14)
(0.000294281 -0.000739671 -2.93373e-14)
(-0.00049393 -0.000375033 -3.90556e-14)
(-0.000653941 -8.68325e-07 2.27107e-13)
(-0.000701363 0.000346746 3.70841e-14)
(-0.0085883 0.00511392 -8.23849e-14)
(0.00487531 -0.00301011 -1.57967e-14)
(-0.0156664 0.00917137 2.61827e-14)
(-0.00139177 0.00619576 -4.94934e-15)
(-0.000335142 0.004128 -1.31419e-14)
(-0.00052036 0.00371996 -3.10105e-14)
(-0.000667912 0.00312625 5.06812e-14)
(-0.000797079 0.00271457 9.71493e-14)
(-0.000858054 0.00227217 6.43158e-14)
(-0.000903227 0.00194613 -1.65784e-13)
(-0.000992953 0.00181918 -1.14079e-13)
(-0.00116356 0.00174515 -3.87794e-14)
(-0.001268 0.00161027 7.08802e-14)
(-0.00132024 0.001469 7.32168e-14)
(-0.0013496 0.00130871 2.73053e-14)
(-0.00134179 0.00114301 2.5062e-14)
(-0.00129852 0.000979087 -2.6746e-14)
(-0.0012353 0.000827709 -8.73435e-14)
(-0.00115707 0.000691372 1.34189e-14)
(-0.00106664 0.000569056 2.70985e-14)
(-0.000973433 0.000463606 1.84405e-14)
(-0.000879565 0.000374296 5.10937e-14)
(-0.000789763 0.000299921 -2.84862e-14)
(-0.000705139 0.000238209 -2.1265e-14)
(-0.000627108 0.000186899 -1.53235e-14)
(-0.000554572 0.000143688 -3.15574e-15)
(-0.000486397 0.000106534 2.46457e-14)
(-0.000420792 7.43752e-05 1.64612e-14)
(-0.000359516 4.76275e-05 1.90952e-14)
(-0.000303941 2.70193e-05 6.47335e-15)
(-0.000253382 1.25045e-05 2.86974e-17)
(-0.000208596 3.55959e-06 2.21476e-15)
(-0.000173369 -6.67527e-07 -3.08631e-16)
(-0.000146563 -6.29802e-06 3.02727e-16)
(-0.000119324 -1.1127e-05 -3.80586e-16)
(-9.24094e-05 -1.11208e-05 3.23429e-17)
(-7.28375e-05 -1.27697e-05 -1.76799e-15)
(-5.5481e-05 -1.21463e-05 4.22931e-16)
(-3.68662e-05 -1.28386e-05 4.64582e-15)
(-2.18897e-05 -6.99391e-06 -1.10333e-15)
(1.74256e-05 -1.95252e-05 8.89909e-16)
(0.00012989 -9.97853e-06 -8.14871e-15)
(0.000475842 0.00012881 7.93618e-15)
(-4.74662e-05 0.00385211 -2.94534e-15)
(0.000195117 0.00400013 1.79209e-16)
(0.000429462 0.00369357 -1.65046e-15)
(0.000755528 0.00364182 -1.5232e-15)
(0.000974907 0.00349415 9.0145e-15)
(0.00124301 0.00350635 -2.93797e-15)
(0.0014833 0.00337254 2.92946e-14)
(0.001622 0.00315966 2.04958e-14)
(0.00175993 0.00293391 5.15934e-15)
(0.00180889 0.00268374 -1.70773e-15)
(0.00185798 0.00239289 7.11768e-15)
(0.00188304 0.00210977 -3.14209e-14)
(0.00187851 0.00184252 -1.3713e-13)
(0.00183599 0.00158159 3.64222e-14)
(0.00176686 0.00133211 1.882e-14)
(0.00167209 0.00109619 5.25407e-14)
(0.00155701 0.000876189 -4.52663e-16)
(0.00143132 0.000683042 -9.40851e-14)
(0.00136723 0.000534994 -1.39023e-13)
(0.0012936 0.00040907 -1.1971e-13)
(0.00120163 0.000303292 -6.97079e-14)
(0.00113135 0.00026357 -5.64343e-14)
(0.0011859 0.000229697 1.91342e-14)
(0.00122171 -0.000125916 6.72357e-14)
(0.000751746 -0.000787625 -3.61917e-14)
(-0.000201614 -0.000935154 -1.37686e-14)
(-0.000721786 -7.96688e-05 4.44669e-14)
(-0.000175687 0.000905254 2.10543e-15)
(0.000830684 0.000950834 2.45353e-14)
(0.00124036 0.00014643 -3.05803e-14)
(0.000816486 -0.000588825 -1.01163e-13)
(0.000145549 -0.000677475 -5.51646e-14)
(-0.000351088 -0.000372325 3.49564e-14)
(-0.00051587 -7.03715e-05 -1.5029e-14)
(-0.000181871 3.13061e-05 2.0381e-14)
(0.00135412 -0.000878556 3.04432e-14)
(-0.00124134 -0.0011347 5.40865e-15)
(-0.0047346 0.00031215 -1.68841e-14)
(0.000553932 0.00342628 4.25625e-14)
(-0.00025974 0.00364666 -2.40471e-14)
(-0.000427419 0.00330149 1.50588e-14)
(-0.000566452 0.00279656 4.4273e-14)
(-0.000685267 0.00244558 1.45097e-14)
(-0.000751276 0.00206537 1.02103e-13)
(-0.000819764 0.00183656 1.87033e-14)
(-0.000948105 0.00176831 -2.7671e-15)
(-0.00105202 0.00169532 -9.34353e-14)
(-0.00117946 0.001567 -3.88267e-14)
(-0.00123608 0.00141017 5.64826e-14)
(-0.00126435 0.00126982 6.41652e-14)
(-0.00126459 0.00112305 1.04449e-13)
(-0.00123299 0.000974342 9.98197e-14)
(-0.00118351 0.000835094 -2.10623e-14)
(-0.00111866 0.000706922 -8.11343e-15)
(-0.00104002 0.000588854 1.57298e-14)
(-0.00095707 0.000485043 3.48549e-15)
(-0.000871222 0.000395057 1.13563e-14)
(-0.000787172 0.000318703 3.09302e-14)
(-0.0007064 0.000254313 8.49879e-17)
(-0.000630576 0.000200276 -1.26221e-14)
(-0.000559009 0.000154393 -5.76328e-15)
(-0.000491076 0.000115021 2.63197e-15)
(-0.000425467 8.10163e-05 1.12598e-15)
(-0.000364429 5.28207e-05 -3.97268e-15)
(-0.000309099 3.08146e-05 -8.91996e-15)
(-0.000258672 1.49744e-05 5.53994e-16)