/*--------------------------------*- C++ -*----------------------------------*\
| =========                 |                                                 |
| \\      /  F ield         | OpenFOAM: The Open Source CFD Toolbox           |
|  \\    /   O peration     | Version:  2506                                  |
|   \\  /    A nd           | Website:  www.openfoam.com                      |
|    \\/     M anipulation  |                                                 |
\*---------------------------------------------------------------------------*/
FoamFile
{
    version     2.0;
    format      ascii;
    arch        "LSB;label=32;scalar=64";
    class       volScalarField;
    location    "300";
    object      nuTilda;
}
// * * * * * * * * * * * * * * * * * * * * * * * * * * * * * * * * * * * * * //

dimensions      [0 2 -1 0 0 0 0];

internalField   nonuniform List<scalar> 
10720
(
6.29169e-05
6.6122e-05
7.02243e-05
7.53277e-05
8.16977e-05
8.97588e-05
0.000100176
0.000113501
0.000130994
0.000154107
0.000185154
0.000227501
0.000285688
0.000367595
0.000486676
0.000664814
0.000946515
0.00139578
0.00221824
0.00359028
0.0069057
0.0127146
0.0339499
0.0760761
0.093728
0.0946455
0.0956864
0.0992218
0.102741
0.10448
0.10446
0.103213
0.100847
0.0974174
0.0927994
0.0869194
0.0784587
0.0683298
0.0332635
6.00077e-05
5.73673e-05
5.46117e-05
5.19128e-05
4.9164e-05
4.63818e-05
4.36783e-05
4.15985e-05
4.34426e-05
4.72932e-05
5.28985e-05
6.05867e-05
7.10514e-05
8.55525e-05
0.000105891
0.00013505
0.000177786
0.000242178
0.000342336
0.000503107
0.000773666
0.00124189
0.00211709
0.00376895
0.00732595
0.014719
0.0324678
0.0663087
0.0934599
0.105019
0.108428
0.10937
0.109466
0.10897
0.107969
0.106572
0.104427
0.101991
0.0924563
3.80703e-05
3.78501e-05
3.76489e-05
3.74802e-05
3.72845e-05
3.71026e-05
3.69666e-05
3.68466e-05
3.67947e-05
3.68406e-05
3.69022e-05
3.75078e-05
3.96511e-05
4.43035e-05
5.39276e-05
7.20748e-05
0.000107905
0.000173928
0.000319107
0.000589943
0.00132349
0.00283281
0.00712231
0.0205297
0.0395714
0.0633608
0.0925865
0.123724
0.148751
0.162699
0.167994
0.16882
0.167234
0.16388
0.159364
0.153858
0.148544
0.139523
0.139917
3.82433e-05
3.84748e-05
3.86696e-05
3.89304e-05
3.91938e-05
3.94562e-05
3.97057e-05
3.99134e-05
3.97966e-05
3.9529e-05
3.91566e-05
3.86935e-05
3.81514e-05
3.75299e-05
3.67955e-05
3.59243e-05
3.48276e-05
3.34378e-05
3.15607e-05
2.8973e-05
2.51729e-05
1.98026e-05
1.18091e-05
4.7871e-06
7.5781e-06
0.000115431
0.000540759
0.00415473
0.0141115
0.0287144
0.0437217
0.0550574
0.0618206
0.0656029
0.0680011
0.0699917
0.0717236
0.0752963
0.0784574
4.03657e-05
4.03973e-05
4.04299e-05
4.0465e-05
4.05079e-05
4.05558e-05
4.06104e-05
4.06741e-05
4.0749e-05
4.08363e-05
4.09395e-05
4.10656e-05
4.12049e-05
4.1451e-05
4.14615e-05
4.07937e-05
3.71978e-05
3.54252e-05
2.03644e-05
0.000118602
0.00026042
3.90094e-05
0.00147601
0.000528035
0.00290511
0.0074281
0.0155623
0.0310007
0.0573251
0.0937531
0.132813
0.164536
0.184954
0.196794
0.203484
0.206359
0.207599
0.201503
0.210271
4.03415e-05
4.03067e-05
4.02801e-05
4.02406e-05
4.02065e-05
4.01698e-05
4.01371e-05
4.01113e-05
4.012e-05
4.01476e-05
4.01837e-05
4.02278e-05
4.02816e-05
4.03416e-05
4.04091e-05
4.04834e-05
4.05674e-05
4.06632e-05
4.07771e-05
4.09147e-05
4.10899e-05
4.13123e-05
4.16239e-05
4.19508e-05
4.23863e-05
4.19229e-05
4.20751e-05
3.13499e-05
0.0001076
0.000790558
0.0030165
0.00754015
0.0142501
0.0224327
0.0311535
0.0395968
0.0469961
0.0536692
0.063161
4.00344e-05
4.003e-05
4.00288e-05
4.00295e-05
4.00312e-05
4.00362e-05
4.00453e-05
4.00578e-05
4.00764e-05
4.01015e-05
4.01347e-05
4.01781e-05
4.02344e-05
4.03051e-05
4.03988e-05
4.05087e-05
4.02512e-05
3.9832e-05
3.61364e-05
2.60153e-05
8.60861e-06
1.31857e-05
0
0.000108396
0.000607009
0.00157822
0.00336626
0.00021466
0.0034482
0.0133267
0.0355817
0.0727787
0.118863
0.161375
0.193262
0.215391
0.231972
0.239163
0.255229
4.00357e-05
4.004e-05
4.00458e-05
4.00499e-05
4.00569e-05
4.00607e-05
4.00631e-05
4.00648e-05
4.00609e-05
4.00559e-05
4.00494e-05
4.00425e-05
4.00361e-05
4.00297e-05
4.00235e-05
4.00171e-05
4.00102e-05
4.00028e-05
3.99934e-05
3.99839e-05
3.99739e-05
3.99632e-05
3.99505e-05
3.99388e-05
3.99261e-05
3.99305e-05
3.9917e-05
4.00272e-05
3.9873e-05
3.97782e-05
3.83493e-05
3.60828e-05
0.000233001
0.00104648
0.00303984
0.00689293
0.0131017
0.0218461
0.0392261
4.00809e-05
4.0082e-05
4.00825e-05
4.00841e-05
4.0087e-05
4.00906e-05
4.00955e-05
4.01022e-05
4.01108e-05
4.01223e-05
4.01372e-05
4.01567e-05
4.01823e-05
4.02151e-05
4.02594e-05
4.03104e-05
4.03966e-05
4.03925e-05
4.07971e-05
4.05445e-05
3.76095e-05
2.90617e-05
8.98293e-06
4.52366e-06
0
0
0
4.66446e-05
0.000772671
0.000387227
0.00158702
0.00801477
0.0296187
0.0707519
0.124159
0.175084
0.217196
0.248049
0.278245
4.0081e-05
4.00785e-05
4.00798e-05
4.00778e-05
4.00794e-05
4.00772e-05
4.00733e-05
4.00698e-05
4.00678e-05
4.00673e-05
4.00673e-05
4.00671e-05
4.00678e-05
4.00688e-05
4.00705e-05
4.00728e-05
4.00757e-05
4.00791e-05
4.00831e-05
4.00877e-05
4.00928e-05
4.00985e-05
4.01048e-05
4.01118e-05
4.01209e-05
4.01289e-05
4.01533e-05
4.01158e-05
4.03773e-05
3.92941e-05
4.43723e-05
2.15222e-05
6.27261e-05
0.000253255
9.28937e-05
0.000313604
0.001043
0.00174531
0.0137057
4.00696e-05
4.00692e-05
4.00697e-05
4.00702e-05
4.00703e-05
4.00711e-05
4.00722e-05
4.00736e-05
4.00759e-05
4.0079e-05
4.00833e-05
4.00892e-05
4.00973e-05
4.01082e-05
4.01232e-05
4.01433e-05
4.01716e-05
4.01921e-05
4.03104e-05
4.04446e-05
4.09558e-05
4.05631e-05
3.84115e-05
2.33346e-05
8.2648e-06
5.94965e-06
3.97581e-06
9.46372e-07
0
8.58285e-05
0.0003561
0.0018299
0.000400656
0.00876542
0.0380969
0.0933065
0.160407
0.223977
0.27828
4.00687e-05
4.00674e-05
4.00691e-05
4.00687e-05
4.00719e-05
4.00714e-05
4.00688e-05
4.00666e-05
4.00648e-05
4.00637e-05
4.00628e-05
4.00619e-05
4.00615e-05
4.00612e-05
4.00611e-05
4.00612e-05
4.00614e-05
4.00618e-05
4.00622e-05
4.00627e-05
4.00631e-05
4.00634e-05
4.00635e-05
4.00628e-05
4.00627e-05
4.00633e-05
4.0064e-05
4.00674e-05
4.00666e-05
4.00832e-05
4.00469e-05
4.02002e-05
3.89101e-05
3.61333e-05
3.00215e-05
7.78773e-05
0.000247243
0.000456257
0.00238678
4.007e-05
4.00704e-05
4.00707e-05
4.00708e-05
4.0071e-05
4.00712e-05
4.00715e-05
4.00721e-05
4.0073e-05
4.00743e-05
4.00762e-05
4.0079e-05
4.00828e-05
4.00881e-05
4.00954e-05
4.01058e-05
4.01195e-05
4.01347e-05
4.01502e-05
4.01716e-05
4.02904e-05
4.05046e-05
4.15227e-05
4.0889e-05
3.61068e-05
2.99349e-05
1.96852e-05
4.61632e-06
6.26019e-06
1.81986e-06
0
0
9.13698e-05
0.00206006
0.00168187
0.0217482
0.078234
0.166177
0.252255
4.00691e-05
4.00672e-05
4.00679e-05
4.00673e-05
4.00704e-05
4.00703e-05
4.0068e-05
4.00659e-05
4.00642e-05
4.00633e-05
4.00626e-05
4.00622e-05
4.0062e-05
4.00621e-05
4.0062e-05
4.00621e-05
4.00624e-05
4.00628e-05
4.00634e-05
4.00642e-05
4.00651e-05
4.00662e-05
4.00675e-05
4.00689e-05
4.00707e-05
4.00731e-05
4.00762e-05
4.00801e-05
4.00849e-05
4.0091e-05
4.0099e-05
4.01174e-05
4.02456e-05
3.944e-05
3.38352e-05
1.83677e-05
7.68686e-06
1.59829e-06
9.16275e-05
4.00692e-05
4.00695e-05
4.007e-05
4.00699e-05
4.00696e-05
4.00694e-05
4.00691e-05
4.00688e-05
4.00687e-05
4.00687e-05
4.00688e-05
4.00693e-05
4.007e-05
4.0071e-05
4.00727e-05
4.00752e-05
4.0079e-05
4.00835e-05
4.00875e-05
4.00961e-05
4.00937e-05
4.00952e-05
4.02623e-05
4.10123e-05
4.16122e-05
4.13238e-05
3.94536e-05
3.53861e-05
2.94432e-05
8.70232e-06
7.072e-06
1.37895e-06
0
0
0.000389086
0.00542371
0.0161678
0.0904238
0.199976
4.00681e-05
4.0066e-05
4.0066e-05
4.00652e-05
4.00682e-05
4.00685e-05
4.00668e-05
4.00649e-05
4.00634e-05
4.00626e-05
4.0062e-05
4.00617e-05
4.00615e-05
4.00617e-05
4.00618e-05
4.00621e-05
4.00622e-05
4.00622e-05
4.00623e-05
4.00625e-05
4.00628e-05
4.0063e-05
4.00633e-05
4.00636e-05
4.00638e-05
4.00641e-05
4.00646e-05
4.0065e-05
4.00655e-05
4.00657e-05
4.00667e-05
4.00622e-05
4.00828e-05
3.99988e-05
4.02332e-05
3.7963e-05
3.26045e-05
8.9776e-06
2.1855e-05
4.00691e-05
4.00693e-05
4.00696e-05
4.00692e-05
4.00689e-05
4.00684e-05
4.0068e-05
4.00677e-05
4.00675e-05
4.00674e-05
4.00674e-05
4.00676e-05
4.00681e-05
4.00688e-05
4.007e-05
4.00717e-05
4.00744e-05
4.00779e-05
4.00812e-05
4.00852e-05
4.00873e-05
4.0084e-05
4.00379e-05
4.0123e-05
4.05096e-05
4.10639e-05
4.17405e-05
4.19283e-05
4.15769e-05
3.75805e-05
3.21482e-05
6.47849e-06
5.68534e-06
0
0
0
0.00441897
0.0305473
0.13278
4.0068e-05
4.00657e-05
4.00651e-05
4.0064e-05
4.00668e-05
4.00673e-05
4.0066e-05
4.00642e-05
4.00629e-05
4.00621e-05
4.00616e-05
4.00614e-05
4.00613e-05
4.00614e-05
4.00616e-05
4.00619e-05
4.00621e-05
4.00624e-05
4.00625e-05
4.00625e-05
4.00627e-05
4.00629e-05
4.00632e-05
4.00635e-05
4.00639e-05
4.00646e-05
4.00655e-05
4.00667e-05
4.00683e-05
4.00703e-05
4.00728e-05
4.00756e-05
4.0081e-05
4.0081e-05
4.01347e-05
4.02743e-05
4.10424e-05
3.70286e-05
5.54474e-06
4.00689e-05
4.00689e-05
4.0069e-05
4.00684e-05
4.00679e-05
4.00673e-05
4.00668e-05
4.00664e-05
4.0066e-05
4.00656e-05
4.00653e-05
4.00651e-05
4.0065e-05
4.00649e-05
4.00648e-05
4.00648e-05
4.00649e-05
4.00651e-05
4.00654e-05
4.00665e-05
4.00694e-05
4.00747e-05
4.00654e-05
4.00322e-05
4.00453e-05
4.01659e-05
4.04683e-05
4.09215e-05
4.15073e-05
4.21008e-05
4.24104e-05
3.80004e-05
2.56138e-05
7.86773e-06
0
0
9.64842e-06
0.00044559
0.0723435
4.0068e-05
4.00657e-05
4.00645e-05
4.0063e-05
4.00656e-05
4.00663e-05
4.00652e-05
4.00636e-05
4.00625e-05
4.00617e-05
4.00615e-05
4.00612e-05
4.0061e-05
4.00611e-05
4.00612e-05
4.00615e-05
4.00618e-05
4.00622e-05
4.00625e-05
4.00627e-05
4.00629e-05
4.00631e-05
4.00631e-05
4.00631e-05
4.00632e-05
4.00634e-05
4.00637e-05
4.00642e-05
4.00648e-05
4.00656e-05
4.00664e-05
4.00677e-05
4.00671e-05
4.0077e-05
4.00392e-05
4.02015e-05
3.95122e-05
4.44749e-05
2.14255e-05
4.00687e-05
4.00685e-05
4.00682e-05
4.00676e-05
4.00669e-05
4.00663e-05
4.00658e-05
4.00654e-05
4.0065e-05
4.00648e-05
4.00646e-05
4.00645e-05
4.00645e-05
4.00645e-05
4.00647e-05
4.00651e-05
4.00657e-05
4.00667e-05
4.00677e-05
4.00687e-05
4.00697e-05
4.00718e-05
4.00745e-05
4.00671e-05
4.00476e-05
4.00335e-05
4.00468e-05
4.01315e-05
4.0303e-05
4.07318e-05
4.14131e-05
4.266e-05
4.18944e-05
3.29504e-05
8.6707e-06
0
0
0.000798899
0.0332589
4.0068e-05
4.00657e-05
4.00641e-05
4.00624e-05
4.00647e-05
4.00654e-05
4.00646e-05
4.00631e-05
4.00621e-05
4.00615e-05
4.00612e-05
4.00609e-05
4.00607e-05
4.00607e-05
4.00608e-05
4.00611e-05
4.00614e-05
4.00618e-05
4.00621e-05
4.00624e-05
4.00627e-05
4.0063e-05
4.00632e-05
4.00634e-05
4.00635e-05
4.00636e-05
4.00639e-05
4.00643e-05
4.00649e-05
4.00657e-05
4.00666e-05
4.00682e-05
4.00682e-05
4.00766e-05
4.00481e-05
4.01789e-05
3.96015e-05
4.19189e-05
3.65072e-05
4.00684e-05
4.00678e-05
4.00674e-05
4.00667e-05
4.0066e-05
4.00654e-05
4.00648e-05
4.00645e-05
4.00641e-05
4.00639e-05
4.00637e-05
4.00635e-05
4.00634e-05
4.00634e-05
4.00634e-05
4.00634e-05
4.00636e-05
4.00638e-05
4.00643e-05
4.0065e-05
4.00661e-05
4.00676e-05
4.00702e-05
4.00724e-05
4.00703e-05
4.00633e-05
4.00509e-05
4.00398e-05
4.00276e-05
4.00714e-05
4.01814e-05
4.07833e-05
4.19944e-05
4.29179e-05
3.56408e-05
7.83634e-06
0
0.000286613
0.0130873
4.0068e-05
4.00659e-05
4.0064e-05
4.00619e-05
4.0064e-05
4.00647e-05
4.0064e-05
4.00626e-05
4.00617e-05
4.00612e-05
4.00609e-05
4.00606e-05
4.00604e-05
4.00604e-05
4.00604e-05
4.00606e-05
4.00609e-05
4.00612e-05
4.00616e-05
4.0062e-05
4.00624e-05
4.00628e-05
4.00631e-05
4.00634e-05
4.00637e-05
4.00638e-05
4.00639e-05
4.0064e-05
4.00643e-05
4.00648e-05
4.00653e-05
4.00661e-05
4.00666e-05
4.00695e-05
4.0063e-05
4.00954e-05
3.99845e-05
4.02536e-05
4.01779e-05
4.00679e-05
4.00672e-05
4.00666e-05
4.00659e-05
4.00652e-05
4.00645e-05
4.0064e-05
4.00637e-05
4.00634e-05
4.00632e-05
4.00631e-05
4.0063e-05
4.0063e-05
4.0063e-05
4.0063e-05
4.00632e-05
4.00634e-05
4.00637e-05
4.00642e-05
4.00648e-05
4.00655e-05
4.00664e-05
4.00677e-05
4.00697e-05
4.00717e-05
4.00731e-05
4.00732e-05
4.00707e-05
4.00592e-05
4.00384e-05
3.99982e-05
4.00027e-05
4.03257e-05
4.12958e-05
4.41009e-05
3.14408e-05
1.24298e-06
9.94166e-05
0.00432989
4.00679e-05
4.00659e-05
4.00639e-05
4.00617e-05
4.00634e-05
4.00641e-05
4.00634e-05
4.00622e-05
4.00614e-05
4.00609e-05
4.00606e-05
4.00603e-05
4.00601e-05
4.006e-05
4.006e-05
4.00601e-05
4.00604e-05
4.00607e-05
4.00611e-05
4.00615e-05
4.0062e-05
4.00624e-05
4.00628e-05
4.00632e-05
4.00636e-05
4.00638e-05
4.0064e-05
4.0064e-05
4.00642e-05
4.00645e-05
4.00649e-05
4.00655e-05
4.00662e-05
4.00669e-05
4.00689e-05
4.00653e-05
4.00914e-05
3.9972e-05
4.03499e-05
4.00674e-05
4.00665e-05
4.00658e-05
4.00651e-05
4.00644e-05
4.00638e-05
4.00633e-05
4.00631e-05
4.00629e-05
4.00628e-05
4.00627e-05
4.00627e-05
4.00627e-05
4.00627e-05
4.00627e-05
4.00628e-05
4.00629e-05
4.00631e-05
4.00634e-05
4.00638e-05
4.00644e-05
4.00652e-05
4.00662e-05
4.00676e-05
4.00693e-05
4.00713e-05
4.0074e-05
4.00775e-05
4.00806e-05
4.00778e-05
4.0063e-05
4.00073e-05
3.99666e-05
4.00209e-05
4.10713e-05
4.61859e-05
1.75019e-06
2.66713e-05
0.00110635
4.00676e-05
4.0066e-05
4.00639e-05
4.00615e-05
4.0063e-05
4.00636e-05
4.0063e-05
4.00618e-05
4.00611e-05
4.00606e-05
4.00603e-05
4.006e-05
4.00597e-05
4.00596e-05
4.00595e-05
4.00597e-05
4.00599e-05
4.00602e-05
4.00606e-05
4.00611e-05
4.00615e-05
4.0062e-05
4.00625e-05
4.00629e-05
4.00633e-05
4.00637e-05
4.00639e-05
4.0064e-05
4.00641e-05
4.00642e-05
4.00644e-05
4.00648e-05
4.00654e-05
4.00658e-05
4.00677e-05
4.0064e-05
4.00834e-05
4.00254e-05
4.0146e-05
4.00668e-05
4.00658e-05
4.00651e-05
4.00644e-05
4.00637e-05
4.00631e-05
4.00628e-05
4.00626e-05
4.00625e-05
4.00625e-05
4.00625e-05
4.00625e-05
4.00626e-05
4.00626e-05
4.00627e-05
4.00628e-05
4.00629e-05
4.00631e-05
4.00633e-05
4.00637e-05
4.00641e-05
4.00647e-05
4.00654e-05
4.00664e-05
4.00677e-05
4.00694e-05
4.00715e-05
4.00744e-05
4.00788e-05
4.00838e-05
4.00882e-05
4.0082e-05
4.00234e-05
4.00708e-05
3.91745e-05
4.52198e-05
3.20469e-05
3.31788e-06
9.65089e-05
4.00673e-05
4.00659e-05
4.00638e-05
4.00613e-05
4.00626e-05
4.00631e-05
4.00625e-05
4.00615e-05
4.00608e-05
4.00602e-05
4.00599e-05
4.00597e-05
4.00594e-05
4.00592e-05
4.00592e-05
4.00593e-05
4.00594e-05
4.00597e-05
4.00601e-05
4.00605e-05
4.0061e-05
4.00615e-05
4.0062e-05
4.00625e-05
4.0063e-05
4.00634e-05
4.00638e-05
4.0064e-05
4.00641e-05
4.00641e-05
4.00642e-05
4.00645e-05
4.00649e-05
4.00653e-05
4.00662e-05
4.00659e-05
4.00704e-05
4.00639e-05
4.00736e-05
4.00662e-05
4.00652e-05
4.00644e-05
4.00637e-05
4.00631e-05
4.00626e-05
4.00624e-05
4.00623e-05
4.00623e-05
4.00623e-05
4.00624e-05
4.00625e-05
4.00626e-05
4.00627e-05
4.00628e-05
4.00629e-05
4.0063e-05
4.00631e-05
4.00633e-05
4.00635e-05
4.00639e-05
4.00644e-05
4.0065e-05
4.00657e-05
4.00668e-05
4.00682e-05
4.00699e-05
4.0072e-05
4.00748e-05
4.00791e-05
4.00839e-05
4.00971e-05
4.00658e-05
4.01822e-05
3.95254e-05
4.06446e-05
4.54854e-05
2.03749e-06
2.22292e-05
4.00669e-05
4.00658e-05
4.00638e-05
4.00613e-05
4.00622e-05
4.00626e-05
4.00621e-05
4.00612e-05
4.00604e-05
4.00599e-05
4.00596e-05
4.00593e-05
4.0059e-05
4.00589e-05
4.00588e-05
4.00589e-05
4.0059e-05
4.00593e-05
4.00597e-05
4.00601e-05
4.00605e-05
4.00611e-05
4.00616e-05
4.00621e-05
4.00627e-05
4.00631e-05
4.00635e-05
4.00638e-05
4.00641e-05
4.00642e-05
4.00642e-05
4.00643e-05
4.00645e-05
4.00648e-05
4.00653e-05
4.0066e-05
4.00664e-05
4.00707e-05
4.00651e-05
4.00656e-05
4.00646e-05
4.00638e-05
4.00632e-05
4.00626e-05
4.00622e-05
4.00621e-05
4.00621e-05
4.00622e-05
4.00623e-05
4.00625e-05
4.00626e-05
4.00627e-05
4.00628e-05
4.00629e-05
4.0063e-05
4.00631e-05
4.00632e-05
4.00634e-05
4.00636e-05
4.00639e-05
4.00643e-05
4.00648e-05
4.00654e-05
4.00662e-05
4.00674e-05
4.00689e-05
4.00707e-05
4.00727e-05
4.00757e-05
4.00785e-05
4.00879e-05
4.00845e-05
4.01066e-05
4.02275e-05
3.8436e-05
4.89453e-05
3.33935e-06
9.32049e-08
4.00664e-05
4.00656e-05
4.00637e-05
4.00612e-05
4.00619e-05
4.00622e-05
4.00617e-05
4.00608e-05
4.00601e-05
4.00596e-05
4.00593e-05
4.0059e-05
4.00587e-05
4.00585e-05
4.00585e-05
4.00585e-05
4.00587e-05
4.00589e-05
4.00592e-05
4.00596e-05
4.00601e-05
4.00606e-05
4.00612e-05
4.00617e-05
4.00623e-05
4.00628e-05
4.00632e-05
4.00636e-05
4.00639e-05
4.00641e-05
4.00642e-05
4.00642e-05
4.00643e-05
4.00645e-05
4.00648e-05
4.00654e-05
4.00656e-05
4.00692e-05
4.00668e-05
4.0065e-05
4.0064e-05
4.00632e-05
4.00627e-05
4.00622e-05
4.00619e-05
4.00619e-05
4.0062e-05
4.00622e-05
4.00623e-05
4.00625e-05
4.00627e-05
4.00628e-05
4.0063e-05
4.00631e-05
4.00632e-05
4.00633e-05
4.00634e-05
4.00636e-05
4.00637e-05
4.0064e-05
4.00643e-05
4.00647e-05
4.00652e-05
4.00659e-05
4.00669e-05
4.00681e-05
4.00697e-05
4.00716e-05
4.00738e-05
4.00765e-05
4.00788e-05
4.00952e-05
4.00303e-05
4.04474e-05
3.85328e-05
4.54347e-05
2.80091e-05
3.71779e-06
4.00659e-05
4.00653e-05
4.00636e-05
4.00611e-05
4.00616e-05
4.00619e-05
4.00614e-05
4.00605e-05
4.00598e-05
4.00593e-05
4.00589e-05
4.00587e-05
4.00584e-05
4.00582e-05
4.00581e-05
4.00582e-05
4.00583e-05
4.00586e-05
4.00589e-05
4.00592e-05
4.00597e-05
4.00602e-05
4.00607e-05
4.00613e-05
4.00619e-05
4.00624e-05
4.00629e-05
4.00633e-05
4.00637e-05
4.00639e-05
4.00641e-05
4.00642e-05
4.00643e-05
4.00643e-05
4.00646e-05
4.00649e-05
4.00653e-05
4.00676e-05
4.00672e-05
4.00645e-05
4.00635e-05
4.00627e-05
4.00622e-05
4.00619e-05
4.00617e-05
4.00618e-05
4.0062e-05
4.00622e-05
4.00624e-05
4.00626e-05
4.00628e-05
4.0063e-05
4.00631e-05
4.00632e-05
4.00634e-05
4.00635e-05
4.00636e-05
4.00637e-05
4.00639e-05
4.00641e-05
4.00643e-05
4.00647e-05
4.00651e-05
4.00657e-05
4.00665e-05
4.00676e-05
4.0069e-05
4.00707e-05
4.00726e-05
4.00756e-05
4.00748e-05
4.0095e-05
4.00261e-05
4.03246e-05
3.93903e-05
4.1507e-05
4.13858e-05
1.34187e-05
4.00654e-05
4.0065e-05
4.00634e-05
4.0061e-05
4.00613e-05
4.00615e-05
4.0061e-05
4.00602e-05
4.00595e-05
4.0059e-05
4.00586e-05
4.00583e-05
4.00581e-05
4.00579e-05
4.00579e-05
4.00579e-05
4.0058e-05
4.00582e-05
4.00585e-05
4.00589e-05
4.00593e-05
4.00598e-05
4.00603e-05
4.00609e-05
4.00615e-05
4.0062e-05
4.00625e-05
4.0063e-05
4.00634e-05
4.00637e-05
4.0064e-05
4.00642e-05
4.00643e-05
4.00643e-05
4.00644e-05
4.00646e-05
4.0065e-05
4.00668e-05
4.00667e-05
4.0064e-05
4.00631e-05
4.00622e-05
4.00619e-05
4.00617e-05
4.00616e-05
4.00618e-05
4.0062e-05
4.00623e-05
4.00625e-05
4.00627e-05
4.00629e-05
4.00631e-05
4.00633e-05
4.00634e-05
4.00636e-05
4.00637e-05
4.00638e-05
4.00639e-05
4.00641e-05
4.00643e-05
4.00645e-05
4.00648e-05
4.00651e-05
4.00656e-05
4.00663e-05
4.00672e-05
4.00684e-05
4.00699e-05
4.00716e-05
4.00743e-05
4.00741e-05
4.00873e-05
4.00558e-05
4.01562e-05
4.00187e-05
3.96329e-05
4.40353e-05
2.84139e-05
4.00649e-05
4.00647e-05
4.00632e-05
4.00609e-05
4.00611e-05
4.00612e-05
4.00607e-05
4.00599e-05
4.00592e-05
4.00587e-05
4.00583e-05
4.0058e-05
4.00578e-05
4.00577e-05
4.00576e-05
4.00576e-05
4.00578e-05
4.00579e-05
4.00582e-05
4.00585e-05
4.00589e-05
4.00594e-05
4.00599e-05
4.00605e-05
4.00611e-05
4.00616e-05
4.00621e-05
4.00626e-05
4.0063e-05
4.00634e-05
4.00638e-05
4.0064e-05
4.00642e-05
4.00643e-05
4.00643e-05
4.00645e-05
4.00647e-05
4.00663e-05
4.00662e-05
4.00636e-05
4.00626e-05
4.00619e-05
4.00616e-05
4.00615e-05
4.00616e-05
4.00618e-05
4.00621e-05
4.00623e-05
4.00626e-05
4.00628e-05
4.00631e-05
4.00633e-05
4.00635e-05
4.00636e-05
4.00638e-05
4.00639e-05
4.0064e-05
4.00642e-05
4.00643e-05
4.00645e-05
4.00647e-05
4.00649e-05
4.00652e-05
4.00657e-05
4.00662e-05
4.0067e-05
4.0068e-05
4.00693e-05
4.00708e-05
4.0073e-05
4.00743e-05
4.00796e-05
4.0079e-05
4.00676e-05
4.0235e-05
3.93668e-05
4.26003e-05
3.70569e-05
4.00644e-05
4.00643e-05
4.0063e-05
4.00608e-05
4.00608e-05
4.00608e-05
4.00603e-05
4.00596e-05
4.00589e-05
4.00584e-05
4.0058e-05
4.00577e-05
4.00575e-05
4.00574e-05
4.00574e-05
4.00574e-05
4.00575e-05
4.00577e-05
4.00579e-05
4.00582e-05
4.00586e-05
4.0059e-05
4.00595e-05
4.00601e-05
4.00606e-05
4.00612e-05
4.00617e-05
4.00622e-05
4.00626e-05
4.00631e-05
4.00635e-05
4.00638e-05
4.0064e-05
4.00642e-05
4.00642e-05
4.00643e-05
4.00645e-05
4.00658e-05
4.00658e-05
4.00631e-05
4.00623e-05
4.00615e-05
4.00614e-05
4.00614e-05
4.00615e-05
4.00618e-05
4.00621e-05
4.00624e-05
4.00627e-05
4.00629e-05
4.00632e-05
4.00634e-05
4.00636e-05
4.00638e-05
4.0064e-05
4.00641e-05
4.00643e-05
4.00644e-05
4.00646e-05
4.00647e-05
4.00649e-05
4.00651e-05
4.00654e-05
4.00658e-05
4.00663e-05
4.00669e-05
4.00678e-05
4.0069e-05
4.00703e-05
4.0072e-05
4.00741e-05
4.00753e-05
4.0086e-05
4.00501e-05
4.02173e-05
3.96723e-05
4.0986e-05
4.01614e-05
4.00639e-05
4.0064e-05
4.00627e-05
4.00607e-05
4.00606e-05
4.00605e-05
4.006e-05
4.00593e-05
4.00586e-05
4.00581e-05
4.00578e-05
4.00575e-05
4.00573e-05
4.00572e-05
4.00571e-05
4.00572e-05
4.00573e-05
4.00574e-05
4.00576e-05
4.00579e-05
4.00582e-05
4.00586e-05
4.00591e-05
4.00596e-05
4.00602e-05
4.00607e-05
4.00612e-05
4.00618e-05
4.00623e-05
4.00627e-05
4.00632e-05
4.00635e-05
4.00638e-05
4.00641e-05
4.00642e-05
4.00643e-05
4.00644e-05
4.00655e-05
4.00654e-05
4.00627e-05
4.0062e-05
4.00613e-05
4.00613e-05
4.00614e-05
4.00615e-05
4.00618e-05
4.00621e-05
4.00624e-05
4.00628e-05
4.00631e-05
4.00633e-05
4.00636e-05
4.00638e-05
4.0064e-05
4.00642e-05
4.00643e-05
4.00645e-05
4.00647e-05
4.00648e-05
4.0065e-05
4.00652e-05
4.00654e-05
4.00656e-05
4.00659e-05
4.00664e-05
4.0067e-05
4.00677e-05
4.00687e-05
4.00699e-05
4.00713e-05
4.00735e-05
4.00739e-05
4.00837e-05
4.00611e-05
4.01451e-05
3.99577e-05
4.01906e-05
4.06362e-05
4.00635e-05
4.00636e-05
4.00625e-05
4.00605e-05
4.00603e-05
4.00602e-05
4.00596e-05
4.00589e-05
4.00583e-05
4.00579e-05
4.00575e-05
4.00572e-05
4.0057e-05
4.00569e-05
4.00569e-05
4.00569e-05
4.0057e-05
4.00571e-05
4.00573e-05
4.00576e-05
4.00579e-05
4.00583e-05
4.00587e-05
4.00592e-05
4.00598e-05
4.00603e-05
4.00608e-05
4.00613e-05
4.00618e-05
4.00623e-05
4.00628e-05
4.00632e-05
4.00636e-05
4.00639e-05
4.00641e-05
4.00642e-05
4.00642e-05
4.00652e-05
4.00652e-05
4.00624e-05
4.00617e-05
4.00611e-05
4.00612e-05
4.00613e-05
4.00615e-05
4.00618e-05
4.00622e-05
4.00625e-05
4.00629e-05
4.00632e-05
4.00635e-05
4.00637e-05
4.0064e-05
4.00642e-05
4.00644e-05
4.00646e-05
4.00647e-05
4.00649e-05
4.00651e-05
4.00652e-05
4.00654e-05
4.00656e-05
4.00659e-05
4.00662e-05
4.00665e-05
4.00671e-05
4.00677e-05
4.00686e-05
4.00697e-05
4.00709e-05
4.00728e-05
4.00738e-05
4.00794e-05
4.00731e-05
4.00962e-05
4.0086e-05
3.99899e-05
4.03996e-05
4.0063e-05
4.00632e-05
4.00622e-05
4.00603e-05
4.006e-05
4.00598e-05
4.00593e-05
4.00586e-05
4.0058e-05
4.00575e-05
4.00572e-05
4.00569e-05
4.00567e-05
4.00567e-05
4.00566e-05
4.00567e-05
4.00567e-05
4.00568e-05
4.0057e-05
4.00572e-05
4.00575e-05
4.00579e-05
4.00583e-05
4.00588e-05
4.00593e-05
4.00598e-05
4.00603e-05
4.00609e-05
4.00614e-05
4.00619e-05
4.00624e-05
4.00628e-05
4.00633e-05
4.00636e-05
4.00639e-05
4.00641e-05
4.00641e-05
4.00649e-05
4.00649e-05
4.0062e-05
4.00614e-05
4.00609e-05
4.00611e-05
4.00613e-05
4.00615e-05
4.00619e-05
4.00622e-05
4.00626e-05
4.00629e-05
4.00633e-05
4.00636e-05
4.00639e-05
4.00641e-05
4.00644e-05
4.00646e-05
4.00648e-05
4.0065e-05
4.00652e-05
4.00653e-05
4.00655e-05
4.00657e-05
4.00659e-05
4.00661e-05
4.00664e-05
4.00668e-05
4.00672e-05
4.00678e-05
4.00686e-05
4.00695e-05
4.00707e-05
4.00722e-05
4.00737e-05
4.00765e-05
4.00785e-05
4.00779e-05
4.01106e-05
4.00126e-05
4.018e-05
4.00626e-05
4.00628e-05
4.00619e-05
4.00601e-05
4.00597e-05
4.00595e-05
4.00589e-05
4.00582e-05
4.00577e-05
4.00572e-05
4.00569e-05
4.00566e-05
4.00565e-05
4.00564e-05
4.00563e-05
4.00564e-05
4.00564e-05
4.00565e-05
4.00567e-05
4.00569e-05
4.00572e-05
4.00575e-05
4.00579e-05
4.00584e-05
4.00589e-05
4.00594e-05
4.00599e-05
4.00604e-05
4.00609e-05
4.00614e-05
4.0062e-05
4.00625e-05
4.00629e-05
4.00633e-05
4.00637e-05
4.00639e-05
4.00639e-05
4.00645e-05
4.00647e-05
4.00617e-05
4.00612e-05
4.00608e-05
4.0061e-05
4.00612e-05
4.00615e-05
4.00619e-05
4.00623e-05
4.00627e-05
4.0063e-05
4.00634e-05
4.00637e-05
4.0064e-05
4.00643e-05
4.00645e-05
4.00648e-05
4.0065e-05
4.00652e-05
4.00654e-05
4.00656e-05
4.00658e-05
4.0066e-05
4.00662e-05
4.00664e-05
4.00667e-05
4.0067e-05
4.00674e-05
4.00679e-05
4.00686e-05
4.00695e-05
4.00705e-05
4.00719e-05
4.00735e-05
4.00751e-05
4.00791e-05
4.00756e-05
4.01e-05
4.00615e-05
4.00933e-05
4.00622e-05
4.00625e-05
4.00616e-05
4.00599e-05
4.00595e-05
4.00591e-05
4.00586e-05
4.00579e-05
4.00573e-05
4.00569e-05
4.00566e-05
4.00563e-05
4.00562e-05
4.00561e-05
4.00561e-05
4.00561e-05
4.00561e-05
4.00563e-05
4.00564e-05
4.00566e-05
4.00569e-05
4.00572e-05
4.00576e-05
4.0058e-05
4.00585e-05
4.00589e-05
4.00594e-05
4.00599e-05
4.00604e-05
4.0061e-05
4.00615e-05
4.0062e-05
4.00625e-05
4.0063e-05
4.00634e-05
4.00637e-05
4.00637e-05
4.00642e-05
4.00644e-05
4.00614e-05
4.0061e-05
4.00607e-05
4.00609e-05
4.00612e-05
4.00615e-05
4.00619e-05
4.00623e-05
4.00627e-05
4.00631e-05
4.00635e-05
4.00638e-05
4.00642e-05
4.00645e-05
4.00647e-05
4.0065e-05
4.00652e-05
4.00655e-05
4.00657e-05
4.00659e-05
4.00661e-05
4.00663e-05
4.00665e-05
4.00668e-05
4.0067e-05
4.00673e-05
4.00677e-05
4.00682e-05
4.00688e-05
4.00695e-05
4.00705e-05
4.00716e-05
4.00732e-05
4.00746e-05
4.0078e-05
4.00773e-05
4.00883e-05
4.00849e-05
4.00806e-05
4.00619e-05
4.00621e-05
4.00613e-05
4.00597e-05
4.00592e-05
4.00588e-05
4.00582e-05
4.00575e-05
4.0057e-05
4.00565e-05
4.00562e-05
4.0056e-05
4.00559e-05
4.00558e-05
4.00558e-05
4.00558e-05
4.00558e-05
4.00559e-05
4.00561e-05
4.00563e-05
4.00565e-05
4.00568e-05
4.00572e-05
4.00576e-05
4.0058e-05
4.00585e-05
4.00589e-05
4.00594e-05
4.006e-05
4.00605e-05
4.0061e-05
4.00616e-05
4.00621e-05
4.00626e-05
4.0063e-05
4.00634e-05
4.00636e-05
4.00639e-05
4.00642e-05
4.00612e-05
4.00607e-05
4.00605e-05
4.00608e-05
4.00611e-05
4.00615e-05
4.00619e-05
4.00624e-05
4.00628e-05
4.00632e-05
4.00636e-05
4.0064e-05
4.00643e-05
4.00646e-05
4.00649e-05
4.00652e-05
4.00654e-05
4.00657e-05
4.00659e-05
4.00662e-05
4.00664e-05
4.00666e-05
4.00668e-05
4.00671e-05
4.00673e-05
4.00676e-05
4.0068e-05
4.00684e-05
4.0069e-05
4.00696e-05
4.00705e-05
4.00716e-05
4.00729e-05
4.00744e-05
4.00769e-05
4.00784e-05
4.00827e-05
4.00887e-05
4.0087e-05
4.00615e-05
4.00617e-05
4.0061e-05
4.00594e-05
4.00588e-05
4.00584e-05
4.00578e-05
4.00571e-05
4.00566e-05
4.00562e-05
4.00559e-05
4.00557e-05
4.00555e-05
4.00555e-05
4.00554e-05
4.00555e-05
4.00555e-05
4.00556e-05
4.00557e-05
4.00559e-05
4.00561e-05
4.00564e-05
4.00568e-05
4.00571e-05
4.00576e-05
4.0058e-05
4.00585e-05
4.00589e-05
4.00594e-05
4.006e-05
4.00605e-05
4.00611e-05
4.00616e-05
4.00622e-05
4.00626e-05
4.00631e-05
4.00634e-05
4.00635e-05
4.00639e-05
4.00609e-05
4.00605e-05
4.00604e-05
4.00607e-05
4.00611e-05
4.00615e-05
4.00619e-05
4.00624e-05
4.00629e-05
4.00633e-05
4.00637e-05
4.00641e-05
4.00645e-05
4.00648e-05
4.00651e-05
4.00654e-05
4.00657e-05
4.00659e-05
4.00662e-05
4.00664e-05
4.00667e-05
4.00669e-05
4.00672e-05
4.00674e-05
4.00677e-05
4.00679e-05
4.00683e-05
4.00687e-05
4.00692e-05
4.00698e-05
4.00706e-05
4.00716e-05
4.00728e-05
4.00742e-05
4.00762e-05
4.00784e-05
4.00811e-05
4.00861e-05
4.00913e-05
4.00612e-05
4.00613e-05
4.00606e-05
4.00592e-05
4.00585e-05
4.0058e-05
4.00574e-05
4.00567e-05
4.00562e-05
4.00558e-05
4.00555e-05
4.00553e-05
4.00552e-05
4.00551e-05
4.00551e-05
4.00551e-05
4.00552e-05
4.00553e-05
4.00554e-05
4.00556e-05
4.00558e-05
4.0056e-05
4.00563e-05
4.00567e-05
4.00571e-05
4.00575e-05
4.0058e-05
4.00584e-05
4.00589e-05
4.00595e-05
4.006e-05
4.00606e-05
4.00611e-05
4.00617e-05
4.00622e-05
4.00627e-05
4.00631e-05
4.00632e-05
4.00636e-05
4.00606e-05
4.00603e-05
4.00602e-05
4.00606e-05
4.0061e-05
4.00614e-05
4.0062e-05
4.00624e-05
4.00629e-05
4.00634e-05
4.00638e-05
4.00642e-05
4.00646e-05
4.00649e-05
4.00653e-05
4.00656e-05
4.00659e-05
4.00662e-05
4.00664e-05
4.00667e-05
4.0067e-05
4.00672e-05
4.00675e-05
4.00677e-05
4.0068e-05
4.00683e-05
4.00686e-05
4.0069e-05
4.00694e-05
4.007e-05
4.00707e-05
4.00716e-05
4.00728e-05
4.00741e-05
4.00758e-05
4.0078e-05
4.00808e-05
4.00834e-05
4.00914e-05
4.00608e-05
4.0061e-05
4.00603e-05
4.00589e-05
4.00582e-05
4.00576e-05
4.0057e-05
4.00563e-05
4.00558e-05
4.00554e-05
4.00551e-05
4.00549e-05
4.00548e-05
4.00548e-05
4.00547e-05
4.00548e-05
4.00548e-05
4.00549e-05
4.0055e-05
4.00552e-05
4.00554e-05
4.00556e-05
4.00559e-05
4.00563e-05
4.00566e-05
4.0057e-05
4.00574e-05
4.00579e-05
4.00584e-05
4.00589e-05
4.00595e-05
4.006e-05
4.00606e-05
4.00612e-05
4.00617e-05
4.00622e-05
4.00627e-05
4.00628e-05
4.00634e-05
4.00603e-05
4.00601e-05
4.00601e-05
4.00605e-05
4.0061e-05
4.00614e-05
4.0062e-05
4.00625e-05
4.0063e-05
4.00635e-05
4.00639e-05
4.00643e-05
4.00647e-05
4.00651e-05
4.00654e-05
4.00658e-05
4.00661e-05
4.00664e-05
4.00667e-05
4.0067e-05
4.00672e-05
4.00675e-05
4.00678e-05
4.00681e-05
4.00683e-05
4.00686e-05
4.00689e-05
4.00693e-05
4.00697e-05
4.00703e-05
4.0071e-05
4.00718e-05
4.00728e-05
4.00741e-05
4.00757e-05
4.00775e-05
4.00806e-05
4.0082e-05
4.009e-05
4.00605e-05
4.00606e-05
4.00599e-05
4.00586e-05
4.00578e-05
4.00572e-05
4.00566e-05
4.00559e-05
4.00554e-05
4.0055e-05
4.00547e-05
4.00545e-05
4.00544e-05
4.00544e-05
4.00544e-05
4.00544e-05
4.00544e-05
4.00545e-05
4.00546e-05
4.00548e-05
4.00549e-05
4.00552e-05
4.00554e-05
4.00558e-05
4.00561e-05
4.00565e-05
4.00569e-05
4.00573e-05
4.00578e-05
4.00583e-05
4.00589e-05
4.00594e-05
4.006e-05
4.00606e-05
4.00612e-05
4.00617e-05
4.00623e-05
4.00625e-05
4.00632e-05
4.00601e-05
4.00599e-05
4.006e-05
4.00605e-05
4.00609e-05
4.00614e-05
4.0062e-05
4.00625e-05
4.0063e-05
4.00635e-05
4.0064e-05
4.00644e-05
4.00648e-05
4.00652e-05
4.00656e-05
4.0066e-05
4.00663e-05
4.00666e-05
4.00669e-05
4.00672e-05
4.00675e-05
4.00678e-05
4.00681e-05
4.00684e-05
4.00687e-05
4.0069e-05
4.00693e-05
4.00696e-05
4.00701e-05
4.00706e-05
4.00712e-05
4.0072e-05
4.00729e-05
4.00741e-05
4.00756e-05
4.00772e-05
4.00802e-05
4.00814e-05
4.00885e-05
4.00602e-05
4.00602e-05
4.00596e-05
4.00582e-05
4.00574e-05
4.00568e-05
4.00561e-05
4.00554e-05
4.00549e-05
4.00546e-05
4.00543e-05
4.00541e-05
4.0054e-05
4.0054e-05
4.0054e-05
4.0054e-05
4.0054e-05
4.00541e-05
4.00542e-05
4.00543e-05
4.00545e-05
4.00547e-05
4.0055e-05
4.00553e-05
4.00556e-05
4.00559e-05
4.00563e-05
4.00567e-05
4.00572e-05
4.00577e-05
4.00582e-05
4.00588e-05