/*--------------------------------*- C++ -*----------------------------------*\
| =========                 |                                                 |
| \\      /  F ield         | OpenFOAM: The Open Source CFD Toolbox           |
|  \\    /   O peration     | Version:  2506                                  |
|   \\  /    A nd           | Website:  www.openfoam.com                      |
|    \\/     M anipulation  |                                                 |
\*---------------------------------------------------------------------------*/
FoamFile
{
    version     2.0;
    format      ascii;
    arch        "LSB;label=32;scalar=64";
    class       volSymmTensorField;
    location    "300";
    object      turbulenceProperties:R;
}
// * * * * * * * * * * * * * * * * * * * * * * * * * * * * * * * * * * * * * //

dimensions      [0 2 -2 0 0 0 0];

internalField   nonuniform List<symmTensor> 
10720
(
(0.0145041 0.00307044 -6.83162e-22 0.012045 -1.61429e-20 0.0134223)
(0.0172929 0.00364763 -1.07072e-22 0.0136497 1.04907e-19 0.0155811)
(0.0210863 0.00423636 -2.14207e-20 0.015331 -3.3745e-19 0.0184382)
(0.0262597 0.00499844 9.57338e-20 0.0176244 7.068e-19 0.0222388)
(0.0326329 0.00571723 -1.8791e-19 0.0200584 -6.93916e-19 0.0266808)
(0.0409676 0.00622771 -1.47746e-19 0.0227884 -3.86428e-19 0.0323816)
(0.0517501 0.006498 2.87168e-19 0.0261246 1.10358e-18 0.03958)
(0.0652121 0.00618363 -7.49338e-19 0.0300929 -2.03857e-18 0.0484403)
(0.0822153 0.00491848 -1.89781e-19 0.0351403 5.55554e-19 0.0597069)
(0.1036 0.00243413 5.73069e-19 0.0419432 1.17608e-18 0.0740331)
(0.130653 -0.0017955 1.49493e-18 0.0513752 5.46599e-19 0.0925633)
(0.165515 -0.00835713 -3.3994e-18 0.0648091 -3.15728e-18 0.117054)
(0.211148 -0.0181799 6.49904e-19 0.0841174 8.38841e-19 0.149941)
(0.272428 -0.0328568 2.61534e-18 0.112321 1.23942e-18 0.195229)
(0.357651 -0.0550478 -3.99597e-18 0.154577 -6.24267e-18 0.259739)
(0.479635 -0.089085 -4.30128e-18 0.219248 -2.54747e-18 0.354134)
(0.663478 -0.143581 1.90185e-17 0.322903 1.76108e-17 0.499585)
(0.940449 -0.230832 1.7732e-17 0.489105 3.35642e-17 0.723537)
(1.41792 -0.387272 -3.52422e-17 0.790026 -5.46379e-17 1.11684)
(2.14127 -0.640104 -1.36795e-18 1.27837 1.45202e-17 1.72804)
(3.75286 -1.21307 -2.71933e-17 2.401 5.20163e-17 3.10599)
(6.10137 -2.11301 -1.2502e-17 4.18534 4.18891e-17 5.18249)
(13.8479 -5.13182 -1.43167e-16 10.2623 -6.42888e-16 12.1333)
(25.9922 -10.3113 3.31697e-16 21.0521 5.59433e-16 23.6472)
(27.6258 -11.6416 4.24404e-17 24.5299 -7.1264e-16 26.1393)
(25.4916 -11.2225 3.65636e-16 24.4513 5.81492e-16 24.954)
(24.3887 -11.0394 -8.18994e-17 24.711 -7.84528e-17 24.5049)
(24.3221 -11.2237 2.74512e-16 25.6771 2.30605e-16 24.9623)
(24.41 -11.4387 7.28926e-16 26.6989 1.20867e-15 25.5297)
(24.1176 -11.4522 4.00331e-16 27.269 1.99789e-15 25.6807)
(23.393 -11.2387 -1.41142e-15 27.3066 -1.93178e-15 25.3524)
(22.3217 -10.8329 -4.74807e-16 26.8581 -7.26258e-16 24.6056)
(20.8799 -10.22 -3.2569e-17 25.8521 -4.36857e-15 23.3884)
(19.0962 -9.41381 -2.5833e-15 24.2912 -7.30103e-15 21.7168)
(16.9523 -8.40603 1.00647e-15 22.1169 9.23375e-16 19.5559)
(14.5096 -7.22774 1.22283e-15 19.3699 1.14377e-15 16.9563)
(11.3468 -5.67455 -1.22496e-16 15.4824 -5.25256e-16 13.4347)
(8.33327 -4.17284 -1.51909e-15 11.5057 -2.49412e-17 9.9221)
(1.84076 -0.92736 -1.88403e-16 2.78716 -1.90298e-15 2.31282)
(0.0120346 0.00257491 1.65454e-21 0.0106565 3.85548e-20 0.0113995)
(0.0101348 0.00212566 -2.3706e-21 0.00934445 2.85731e-23 0.00982942)
(0.00808635 0.00164764 -1.23129e-20 0.00783079 -8.655e-20 0.00800313)
(0.00638852 0.00124043 2.92381e-21 0.00644831 5.55712e-20 0.00644881)
(0.00486582 0.00087975 2.16525e-21 0.00505366 -1.00771e-20 0.00497487)
(0.00355426 0.000587111 -1.69991e-20 0.00372848 5.5672e-20 0.0036411)
(0.00253129 0.000377741 -9.14445e-20 0.00261852 7.36007e-20 0.00255858)
(0.00194632 0.000261589 5.68822e-20 0.00191712 -2.71296e-20 0.0019085)
(0.00211282 0.000277936 1.01418e-19 0.00191797 -5.12958e-20 0.00199766)
(0.00295627 0.0003851 -8.02096e-20 0.00246931 2.02915e-20 0.00271021)
(0.00451196 0.000623535 -2.35893e-20 0.00351928 1.11302e-19 0.00402531)
(0.00693174 0.00109442 1.74263e-19 0.00509408 7.25393e-20 0.00603175)
(0.010507 0.00197047 3.58617e-19 0.00732534 -5.58259e-20 0.00895148)
(0.0156661 0.00349357 -6.81032e-21 0.0104626 -2.18684e-19 0.0131293)
(0.0229203 0.00591496 -7.17647e-20 0.0148904 -1.54499e-19 0.0190054)
(0.0330062 0.00952608 2.46574e-20 0.0212973 -5.36246e-20 0.027302)
(0.0472436 0.0147474 -1.859e-19 0.0308093 6.32347e-19 0.0392326)
(0.068137 0.0224658 7.12154e-19 0.0454282 2.64839e-19 0.0570677)
(0.100366 0.0344242 3.18587e-19 0.0687445 -1.18379e-18 0.0849462)
(0.152234 0.0539066 -1.2947e-18 0.107377 -3.39852e-19 0.13038)
(0.240192 0.0874565 -4.38309e-18 0.174591 -2.00408e-18 0.208266)
(0.393784 0.147294 -3.32803e-18 0.295484 -8.9041e-19 0.346091)
(0.68262 0.262424 6.19672e-18 0.530208 -5.75594e-19 0.609067)
(1.22794 0.486318 -7.44266e-18 0.992445 1.20439e-18 1.11563)
(2.39521 0.977766 4.06264e-18 2.02152 -7.21895e-18 2.22011)
(4.80193 2.0156 -1.2629e-16 4.23025 2.60475e-18 4.54062)
(10.5216 4.52968 -7.82777e-17 9.66359 1.23064e-17 10.1503)
(21.2597 9.36529 6.5899e-17 20.3374 8.31814e-19 20.919)
(29.5404 13.2885 8.6962e-18 29.4201 -1.26741e-19 29.6364)
(32.6351 14.9567 6.28575e-17 33.794 4.63304e-19 33.3621)
(33.0547 15.3958 -4.37093e-16 35.5077 -4.91193e-18 34.4045)
(32.6427 15.4157 1.57289e-16 36.2811 2.09064e-17 34.5629)
(31.92 15.2536 -1.88862e-15 36.6181 -1.53064e-16 34.3527)
(30.9791 14.9536 -3.4579e-15 36.5976 -2.37472e-16 33.8587)
(29.8471 14.5315 1.0582e-15 36.2427 1.08246e-16 33.1054)
(28.5605 14.0084 1.00927e-15 35.5992 1.62776e-16 32.1328)
(26.9076 13.2855 1.45026e-15 34.4248 2.66721e-16 30.7143)
(25.1147 12.4681 -2.90343e-16 32.9222 -3.67112e-17 29.0634)
(20.1407 10.0644 -4.55369e-15 27.4129 -7.83991e-16 23.7867)
(0.00226725 -0.000155272 4.13327e-23 0.00189661 1.34998e-21 0.00205189)
(0.00222424 -0.000181994 9.65382e-21 0.00191902 2.33919e-20 0.00203815)
(0.00215879 -0.000204471 -8.83765e-21 0.00194138 -1.55801e-20 0.00201054)
(0.00205946 -0.000211734 -5.88556e-21 0.00192668 -1.67691e-20 0.0019483)
(0.00192985 -0.000206763 3.91894e-20 0.00187676 7.60645e-20 0.00185494)
(0.00178993 -0.000193316 1.50784e-20 0.00180991 2.33924e-20 0.00174799)
(0.00164025 -0.000173018 7.08592e-20 0.00171478 6.50959e-20 0.00162248)
(0.00148403 -0.000149085 -3.63291e-20 0.00159456 -6.99006e-21 0.00148241)
(0.0013366 -0.000125538 5.11465e-20 0.00146807 3.54393e-20 0.00134405)
(0.00119898 -0.000104534 -1.82349e-21 0.00133689 7.75864e-23 0.00120854)
(0.00107272 -8.69478e-05 -6.96733e-20 0.00120616 -5.95257e-20 0.00107997)
(0.000987152 -7.80456e-05 9.34027e-20 0.00111448 1.16281e-19 0.000989234)
(0.0009765 -8.37723e-05 6.5423e-20 0.00110673 3.2875e-20 0.000969451)
(0.00107634 -0.000114137 -1.71065e-20 0.00122363 9.28024e-21 0.0010491)
(0.00141355 -0.000214447 -1.41157e-19 0.00159379 2.32376e-20 0.00132363)
(0.00229772 -0.000518692 3.75842e-19 0.00245132 4.30119e-19 0.0019957)
(0.00462877 -0.0013857 7.6524e-19 0.00434712 -8.36697e-19 0.00368635)
(0.0101401 -0.0033476 -4.1659e-18 0.00824965 -5.40048e-18 0.0077767)
(0.0250377 -0.00842486 4.90599e-19 0.018485 7.24626e-18 0.0193337)
(0.0615728 -0.0208316 7.25582e-18 0.0434584 -2.03783e-18 0.0487024)
(0.181183 -0.0623083 1.54238e-17 0.126798 6.11111e-18 0.147407)
(0.492712 -0.174364 -2.35049e-17 0.351004 -2.25216e-17 0.412564)
(1.48276 -0.546455 7.43303e-17 1.09936 1.87766e-16 1.27937)
(4.63384 -1.78783 1.53857e-19 3.62503 -1.55085e-16 4.12534)
(8.8267 -3.55325 -2.73747e-16 7.3019 1.70058e-16 8.10004)
(12.9331 -5.40176 -9.72039e-17 11.2968 -6.61241e-16 12.1967)
(16.5665 -7.15384 1.19857e-18 15.2868 7.57572e-17 16.0347)
(18.8741 -8.39719 -2.94575e-16 18.39 -4.45053e-16 18.7455)
(18.9106 -8.63838 -4.93643e-16 19.4364 -2.83405e-15 19.2727)
(16.9127 -7.89905 -1.66947e-16 18.2865 -3.54798e-15 17.6615)
(14.0843 -6.69319 5.23042e-16 15.9391 4.89835e-15 15.0243)
(11.3818 -5.47925 -9.55497e-16 13.3973 -3.74809e-17 12.3623)
(9.25803 -4.49932 -7.19027e-15 11.2573 1.34237e-15 10.213)
(7.67299 -3.75426 8.77397e-15 9.56488 1.59569e-14 8.57448)
(6.48114 -3.18693 -1.48892e-15 8.23327 -8.64065e-16 7.32119)
(5.56493 -2.74383 3.41081e-15 7.14897 -4.99271e-15 6.32623)
(4.91776 -2.43247 -1.50377e-15 6.3932 1.52355e-15 5.63542)
(4.36127 -2.13736 3.25043e-15 5.5177 4.04193e-16 4.88655)
(4.49751 -2.25523 5.36359e-15 5.98315 7.28967e-15 5.37368)
(0.0022731 -0.000117593 3.19284e-21 0.00185018 7.90192e-21 0.00203595)
(0.00226178 -7.76649e-05 -4.39086e-21 0.00180486 -3.31888e-20 0.00200897)
(0.00221022 -2.6745e-05 -6.51906e-21 0.0017393 -3.89192e-20 0.00195533)
(0.00211634 3.07688e-05 -2.5298e-21 0.00166091 5.87221e-20 0.00187445)
(0.00197243 8.48712e-05 6.89766e-22 0.00156974 1.56909e-20 0.00176343)
(0.00177372 0.000127786 1.38451e-20 0.00146053 -5.31759e-20 0.00161511)
(0.0015388 0.00015082 2.90561e-20 0.00133596 -7.28209e-20 0.00143928)
(0.00131425 0.000152951 -1.19438e-19 0.00121225 3.14338e-21 0.00126836)
(0.0011136 0.000139699 1.82686e-20 0.00109256 8.08585e-20 0.00110897)
(0.00092201 0.000116369 4.72641e-22 0.000968458 -4.75709e-20 0.000948674)
(0.000751563 8.77171e-05 -2.99906e-20 0.000839718 -2.84324e-20 0.000794881)
(0.000615016 6.18891e-05 -2.10439e-20 0.000717218 -2.97786e-20 0.000661749)
(0.0005068 4.21536e-05 -3.79801e-21 0.000605979 6.32218e-21 0.000549884)
(0.000419006 2.82172e-05 1.22251e-20 0.000507069 3.29024e-20 0.000455582)
(0.000346724 1.88887e-05 2.00791e-20 0.000420708 7.76138e-21 0.000376062)
(0.000286789 1.28405e-05 -2.68788e-20 0.000346646 -1.37512e-21 0.000309385)
(0.000236371 8.97548e-06 2.22301e-20 0.000283092 2.30001e-21 0.000253113)
(0.00019379 6.45689e-06 -2.36467e-21 0.000228974 -6.94163e-21 0.000205741)
(0.00015638 4.61603e-06 -6.86458e-21 0.000181426 1.09267e-20 0.000164438)
(0.000121921 3.1073e-06 -4.01144e-21 0.000138141 4.36889e-21 0.000126848)
(8.72571e-05 1.73901e-06 -6.01193e-21 9.58631e-05 6.76724e-21 8.9708e-05)
(5.24464e-05 6.64437e-07 -3.52342e-21 5.55779e-05 1.82867e-21 5.32709e-05)
(1.84775e-05 8.34551e-08 -6.7672e-22 1.88588e-05 5.82784e-23 1.85673e-05)
(3.0333e-06 2.27188e-09 8.22787e-24 3.04318e-06 7.8276e-25 3.03524e-06)
(7.68333e-06 1.58665e-08 -3.67176e-24 7.74244e-06 5.04156e-24 7.69208e-06)
(0.000850596 0.000192706 4.75494e-19 0.00142832 1.24588e-19 0.000910208)
(0.00451439 0.00133092 2.64549e-18 0.00781586 -1.89044e-19 0.00473741)
(0.0372159 0.0119567 1.08063e-18 0.0620633 -4.51541e-19 0.0383006)
(0.128044 0.0458793 -7.53603e-19 0.204155 1.03612e-19 0.130537)
(0.25618 0.102645 4.96135e-17 0.386058 2.00735e-18 0.261069)
(0.390902 0.170594 4.02488e-16 0.554118 9.7501e-18 0.401547)
(0.512468 0.235161 2.39448e-16 0.689629 1.31038e-17 0.533187)
(0.614295 0.289272 1.76194e-15 0.799284 1.20962e-16 0.648298)
(0.701213 0.33485 2.54406e-15 0.897894 1.69687e-16 0.750435)
(0.778707 0.375267 -5.70394e-16 0.994929 -9.73396e-17 0.84487)
(0.856826 0.41546 -4.94265e-16 1.09883 -8.6633e-17 0.9401)
(0.934254 0.456084 -1.22483e-15 1.21454 -5.15397e-16 1.04022)
(1.13395 0.55224 -2.52472e-15 1.45537 -3.22801e-18 1.2544)
(1.57421 0.775675 -2.03889e-15 1.97924 1.35888e-15 1.79203)
(0.00151795 -0.000120532 6.64448e-22 0.00125071 9.18633e-22 0.00139958)
(0.00147814 -0.000143686 -1.05321e-20 0.00126647 -2.55974e-20 0.00139076)
(0.00140956 -0.000159893 -2.32815e-21 0.00127088 -1.17057e-21 0.00136176)
(0.00132002 -0.000165148 8.82396e-21 0.00126236 1.90664e-20 0.00131727)
(0.00122904 -0.000160364 -2.79884e-20 0.0012516 -5.69349e-20 0.00126995)
(0.00113532 -0.000144958 -3.19441e-20 0.00123371 -5.23569e-20 0.00121773)
(0.0010471 -0.000120404 -6.49573e-20 0.0012089 -9.60184e-20 0.00116519)
(0.000973253 -9.036e-05 -5.25137e-21 0.00118131 -7.7963e-22 0.00111774)
(0.000915276 -5.71658e-05 -2.87252e-20 0.00115204 -6.84247e-20 0.00107699)
(0.000875562 -2.41223e-05 1.20785e-19 0.00112381 1.37453e-19 0.00104562)
(0.000850904 6.60354e-06 -1.98896e-20 0.00109602 2.705e-20 0.0010212)
(0.000842212 3.3556e-05 1.36398e-20 0.00107476 8.3946e-21 0.00100707)
(0.000847024 5.6089e-05 -9.40139e-20 0.00106237 -1.19662e-19 0.00100289)
(0.000864316 7.53608e-05 6.12951e-20 0.00106225 -5.69154e-21 0.00101049)
(0.000877971 8.91977e-05 1.77925e-20 0.00105561 5.52178e-20 0.00101111)
(0.000866491 9.37248e-05 2.10628e-20 0.00101749 1.01097e-20 0.00098039)
(0.000746101 7.23067e-05 -7.66287e-20 0.00084387 -4.46315e-20 0.000819698)
(0.000682307 6.29179e-05 5.86804e-20 0.000756269 4.37418e-20 0.000737202)
(0.00023547 7.57777e-06 2.27387e-21 0.000243468 2.98089e-23 0.000241244)
(0.00344989 0.00149703 -1.92098e-18 0.0049236 -2.89044e-19 0.0044688)
(0.00663363 0.00333129 5.05722e-18 0.00979012 -1.986e-18 0.00869594)
(0.00040297 4.71221e-05 2.62766e-21 0.000447581 4.50519e-20 0.000429939)
(0.0031998 0.00149843 5.9156e-18 0.00594551 -8.73659e-18 0.00443505)
(0.0118842 -0.0046326 -2.25118e-18 0.00963761 -2.40566e-18 0.0103998)
(0.131671 -0.0526859 4.3489e-18 0.109636 1.53691e-17 0.117978)
(0.460278 -0.190472 -2.8096e-17 0.400985 7.68452e-18 0.424491)
(1.14974 -0.490813 1.47275e-17 1.04939 1.14438e-18 1.09055)
(2.54046 -1.11283 -1.42911e-17 2.42014 7.62684e-17 2.46948)
(4.91673 -2.20104 -4.40266e-16 4.87305 2.46227e-16 4.8847)
(7.95847 -3.6333 2.17082e-16 8.20177 3.53296e-16 8.07534)
(10.5723 -4.91691 1.56414e-15 11.3423 -5.87004e-16 10.9651)
(11.6827 -5.5264 -2.76564e-15 13.0528 2.16312e-15 12.3894)
(11.1912 -5.36909 5.13986e-16 12.9876 9.33074e-15 12.113)
(9.87827 -4.78869 -4.87144e-17 11.837 -6.36983e-15 10.8702)
(8.45822 -4.12942 3.05813e-15 10.3873 -2.30149e-15 9.42497)
(7.19425 -3.52462 -1.43362e-14 8.95501 5.15357e-16 8.07015)
(6.2161 -3.05411 4.95927e-15 7.81304 -1.62625e-15 7.01595)
(5.27589 -2.55699 5.13712e-15 6.3556 -1.52365e-15 5.79162)
(5.68091 -2.81486 -1.00255e-14 7.35111 2.9034e-15 6.54299)
(0.00155233 -9.11347e-05 -1.36215e-21 0.0012389 -2.59308e-21 0.00140952)
(0.0015658 -5.93008e-05 -5.15624e-21 0.00122381 -7.3036e-21 0.00140597)
(0.00157123 -2.04562e-05 2.13453e-20 0.00121267 4.60447e-20 0.00140054)
(0.00154402 2.0787e-05 4.38074e-21 0.00119235 -5.17324e-21 0.00137361)
(0.00148473 6.12719e-05 3.01672e-21 0.00116507 -3.39777e-20 0.00132803)
(0.00138242 9.45402e-05 -9.39135e-21 0.0011208 2.42731e-20 0.00125275)
(0.00124296 0.000115292 2.83358e-20 0.0010572 8.79176e-20 0.0011499)
(0.00108717 0.000121554 5.93887e-20 0.000979651 6.37898e-20 0.00103383)
(0.000943622 0.000117572 2.01933e-20 0.000906433 -5.07696e-20 0.000925862)
(0.00080321 0.0001043 4.51167e-20 0.000824361 2.6728e-20 0.000814388)
(0.000664236 8.44695e-05 -3.18659e-20 0.000723656 8.18786e-21 0.000694705)
(0.000538936 6.38559e-05 -4.6143e-21 0.000616482 2.70152e-20 0.000579145)
(0.000432689 4.57874e-05 2.00608e-21 0.000514498 -2.43362e-20 0.000475929)
(0.00034494 3.11772e-05 4.36028e-20 0.00042281 -3.07026e-20 0.000387195)
(0.000274859 2.0109e-05 3.31157e-21 0.000344723 -4.84404e-21 0.000313944)
(0.000219769 1.20417e-05 -4.91031e-21 0.000280142 2.03035e-20 0.000254816)
(0.000177789 6.3961e-06 3.15863e-20 0.000228902 -3.73286e-20 0.000208729)
(0.000146532 2.4771e-06 5.1648e-21 0.000189451 4.537e-21 0.000173767)
(0.000124187 -2.96742e-07 3.6834e-20 0.000160392 -2.57325e-21 0.000148306)
(0.000108465 -2.4109e-06 3.96628e-20 0.000139179 8.89446e-21 0.000130033)
(9.79642e-05 -4.16116e-06 1.02375e-19 0.000124209 -1.3521e-20 0.000117438)
(9.16512e-05 -5.84782e-06 1.33975e-19 0.000113952 -2.02667e-20 0.00010934)
(8.90417e-05 -7.67363e-06 8.09272e-20 0.00010732 7.02044e-21 0.000105005)
(8.91665e-05 -9.44576e-06 1.89359e-20 0.000101839 -3.87437e-21 0.000102928)
(9.23324e-05 -1.05774e-05 -2.0736e-20 9.77645e-05 1.00219e-20 0.000103487)
(9.52123e-05 -1.00447e-05 7.57177e-20 9.32863e-05 -1.23132e-20 0.000103162)
(0.000104332 -9.47611e-06 -2.0528e-20 9.58509e-05 -2.00227e-21 0.000110083)
(6.26088e-05 -2.75345e-06 -6.24855e-21 5.80066e-05 1.28948e-22 6.39433e-05)
(0.000473572 -6.54612e-05 2.46351e-20 0.000295255 -7.77566e-22 0.000501418)
(0.00325754 -0.000272108 -1.4214e-18 0.00168478 -5.39623e-20 0.00340617)
(0.00933167 0.000423215 -8.61804e-18 0.00467775 -8.13557e-20 0.00965074)
(0.0187774 0.0046801 -5.47462e-17 0.0112602 -3.17596e-18 0.0193641)
(0.0385868 0.0154283 -1.34201e-16 0.0316634 -4.45515e-18 0.0399385)
(0.0759586 0.0342649 -3.33856e-16 0.0747394 -2.28997e-17 0.0792351)
(0.130146 0.0608207 -8.54658e-16 0.139642 -7.63965e-17 0.137212)
(0.196642 0.0929218 2.1579e-16 0.218773 -1.74776e-17 0.208461)
(0.267511 0.127543 -1.17261e-15 0.305573 2.11225e-16 0.286616)
(0.333437 0.154049 2.94639e-15 0.353532 5.32811e-16 0.342239)
(0.548157 0.261111 4.63591e-15 0.615043 9.50511e-16 0.593574)
(0.00128865 -9.77213e-05 3.60064e-21 0.00106044 6.16056e-21 0.0011692)
(0.00127326 -0.000115799 -5.01453e-21 0.00108103 -9.03987e-21 0.00117125)
(0.00124339 -0.000131424 -2.28027e-21 0.00110022 -1.25437e-21 0.00116428)
(0.00120683 -0.000141563 2.7089e-20 0.00111827 3.96458e-20 0.00115354)
(0.00115904 -0.000144762 1.72151e-20 0.00112704 3.1208e-20 0.00113233)
(0.0011015 -0.000141131 2.18396e-20 0.00112611 4.19494e-20 0.0011011)
(0.00103946 -0.000131408 3.33754e-20 0.00111493 3.86153e-20 0.00106247)
(0.000972881 -0.000116722 -1.91649e-20 0.00108979 -2.9764e-20 0.00101459)
(0.000904884 -9.8815e-05 -6.8613e-20 0.00105285 -6.79822e-20 0.000959937)
(0.000837002 -7.97162e-05 8.92223e-20 0.00100438 5.02461e-20 0.000899786)
(0.000770016 -6.08863e-05 7.5168e-20 0.000946201 6.36625e-20 0.000835328)
(0.000703966 -4.35111e-05 9.75171e-20 0.000879822 4.67144e-20 0.000767563)
(0.000638558 -2.83855e-05 -1.60997e-19 0.00080676 -5.15586e-20 0.000697269)
(0.000573942 -1.58317e-05 -1.37498e-19 0.000729283 -9.23675e-20 0.000625795)
(0.000509973 -5.80624e-06 1.82869e-19 0.000648887 5.75178e-20 0.000553684)
(0.000443654 2.90565e-06 3.71791e-20 0.00056338 2.28968e-20 0.000478962)
(0.000377263 1.01895e-05 -2.71515e-20 0.000474154 2.80218e-21 0.000403828)
(0.000324736 1.61581e-05 -8.6392e-20 0.000400786 -5.66015e-20 0.000344154)
(0.000256392 1.61662e-05 1.53107e-20 0.000300438 -5.87426e-21 0.000267322)
(0.000146472 6.37361e-06 2.1776e-20 0.000157571 6.71865e-21 0.000149413)
(1.9595e-05 1.08543e-07 -4.11279e-22 1.97284e-05 -1.183e-22 1.96366e-05)
(5.60456e-05 7.81988e-07 1.19825e-21 5.67866e-05 1.71177e-22 5.63136e-05)
(0 0 -0 0 -0 0)
(0.00244974 0.000987174 -7.66443e-19 0.00292573 3.75888e-19 0.00262486)
(0.0135264 0.00628945 3.49258e-18 0.014962 -1.11484e-18 0.0138432)
(0.028933 0.0127602 -7.41694e-18 0.0285113 9.84645e-18 0.0278421)
(0.043155 0.0175987 1.52261e-19 0.0373399 -3.47707e-19 0.0388077)
(0.0012253 0.000350543 4.71845e-19 0.000756353 -1.67605e-19 0.000928544)
(0.0268255 -0.00957818 5.85012e-18 0.0194039 1.48082e-17 0.0224108)
(0.249217 -0.107288 2.65276e-17 0.230699 -1.20104e-16 0.238105)
(1.06166 -0.477892 -6.63651e-17 1.06457 -3.95686e-16 1.05981)
(2.81624 -1.29955 2.07709e-15 2.97276 5.51602e-16 2.89043)
(5.15753 -2.42525 2.97128e-15 5.686 6.72789e-16 5.42045)
(7.00657 -3.3454 -1.64379e-15 8.03213 -2.23506e-15 7.52447)
(7.70918 -3.72363 -7.33472e-15 9.13495 1.42247e-15 8.431)
(7.50926 -3.65121 4.84877e-15 9.0931 4.88881e-15 8.30498)
(7.00588 -3.42124 -1.01696e-14 8.60436 -1.30626e-16 7.81214)
(6.25914 -3.01989 -1.30293e-14 7.41794 1.88171e-15 6.82301)
(6.54344 -3.21271 9.2148e-15 8.14504 -3.43395e-15 7.38673)
(0.0012897 -7.51314e-05 -5.52713e-21 0.0010331 -1.12558e-20 0.00115781)
(0.00127917 -5.12394e-05 -1.9001e-21 0.00100517 7.68023e-21 0.00113905)
(0.00125256 -2.16924e-05 1.8305e-20 0.000970891 3.49114e-20 0.0011102)
(0.001213 9.50807e-06 -7.83261e-21 0.000937849 -4.44265e-22 0.00107467)
(0.00115593 3.99688e-05 6.8288e-21 0.000904008 4.32754e-20 0.00103002)
(0.0010764 6.60736e-05 -2.37436e-21 0.00086517 -4.20764e-20 0.000970944)
(0.000980938 8.44551e-05 2.26503e-20 0.000822692 -5.86618e-22 0.000901669)
(0.0008791 9.33576e-05 -5.58988e-20 0.000777418 -3.37843e-20 0.000828275)
(0.000775284 9.35108e-05 -3.05443e-20 0.000727902 2.63948e-21 0.00075205)
(0.00066853 8.57893e-05 5.06092e-20 0.000668438 2.28573e-20 0.000669135)
(0.000565444 7.27441e-05 2.36217e-20 0.000599898 -1.93707e-21 0.000583235)
(0.000474517 5.81226e-05 2.79526e-20 0.000530064 -1.72601e-20 0.000502583)
(0.000398406 4.44061e-05 -4.31397e-20 0.000464276 -2.82981e-20 0.000431199)
(0.000335872 3.26856e-05 -5.34776e-20 0.000404566 1.00917e-20 0.000369585)
(0.000285213 2.33581e-05 4.87589e-21 0.00035201 1.41365e-20 0.000317467)
(0.000244182 1.626e-05 1.65283e-20 0.000306542 -4.91897e-21 0.000273762)
(0.000211318 1.1075e-05 -4.05679e-20 0.000268268 -3.21792e-21 0.00023778)
(0.000185066 7.34976e-06 -1.56033e-21 0.000236576 -6.46012e-21 0.000208468)
(0.000164288 4.64665e-06 -1.55666e-20 0.000210857 -3.04945e-21 0.000184941)
(0.000147527 2.56541e-06 3.26891e-20 0.000189743 -1.88385e-20 0.000165815)
(0.000134024 8.49221e-07 -3.55846e-20 0.000172464 -1.23746e-20 0.000150277)
(0.000122793 -7.17768e-07 -7.39636e-20 0.000157827 -8.74132e-21 0.000137234)
(0.000112886 -2.26664e-06 3.34367e-21 0.000144551 -1.12093e-20 0.000125546)
(0.000102627 -3.70503e-06 1.89326e-20 0.000130412 -1.07795e-20 0.000113285)
(9.22e-05 -4.60588e-06 5.73436e-20 0.000115833 -4.00036e-21 0.000100627)
(8.36271e-05 -4.88968e-06 -5.37367e-20 0.000103763 -3.11943e-21 8.99632e-05)
(7.72177e-05 -4.83543e-06 -9.2387e-21 9.46544e-05 2.8769e-21 8.18208e-05)
(7.26502e-05 -4.67162e-06 5.5916e-21 8.81506e-05 4.9061e-22 7.58924e-05)
(6.69086e-05 -4.28909e-06 -2.56161e-21 8.0245e-05 -1.03292e-22 6.89674e-05)
(5.9107e-05 -3.80498e-06 -3.70884e-21 7.01372e-05 1.8255e-22 6.02364e-05)
(4.49613e-05 -2.81188e-06 -5.49746e-21 5.22726e-05 -2.88151e-22 4.53373e-05)
(2.8758e-05 -1.70269e-06 1.36319e-20 3.25513e-05 3.92844e-22 2.87003e-05)
(0.000200283 -5.49639e-05 1.92904e-18 0.000303575 1.25241e-19 0.000184275)
(0.000395354 -4.57308e-05 1.86457e-17 0.000505296 1.73536e-18 0.000287171)
(0.00166343 0.00059694 7.82129e-17 0.00129441 1.0313e-17 0.00132775)
(0.00854971 0.00332813 -1.72801e-16 0.00673158 -2.64106e-17 0.00772607)
(0.0268315 0.0112005 7.41699e-16 0.0232166 1.09721e-16 0.0257377)
(0.0706571 0.0279066 -4.86128e-16 0.0567288 -1.68316e-16 0.0644262)
(0.229877 0.104469 -3.29463e-16 0.230746 -1.41045e-15 0.23748)
(0.000964271 -7.44115e-05 -5.13386e-21 0.00079423 -7.64898e-21 0.00088097)
(0.000948116 -8.78802e-05 1.00873e-21 0.000806762 1.60799e-21 0.000879921)
(0.000922404 -9.91197e-05 6.11132e-21 0.000818583 6.63691e-21 0.000873246)
(0.000888763 -0.000105933 -3.75468e-20 0.000827263 -5.33769e-20 0.000861522)
(0.000847427 -0.000107514 -2.74905e-20 0.000830221 -3.21524e-20 0.000843123)
(0.000799254 -0.000103645 6.42584e-20 0.000826626 7.69272e-20 0.000817969)
(0.000747576 -9.45926e-05 -6.82442e-20 0.000815596 -8.47494e-20 0.000787605)
(0.000694393 -8.11896e-05 -3.08642e-20 0.000796302 -2.05305e-20 0.000752422)
(0.000641701 -6.45652e-05 -7.34056e-20 0.000769089 -5.49324e-20 0.000713526)
(0.000592441 -4.63092e-05 -1.36854e-20 0.000735793 -2.49065e-20 0.000673449)
(0.000547866 -2.77199e-05 9.1991e-21 0.000697838 -3.32031e-21 0.000633386)
(0.000509201 -9.99544e-06 -5.03849e-20 0.000657334 -6.68313e-20 0.000595008)
(0.00047744 5.89886e-06 1.64271e-19 0.000616838 1.12511e-19 0.00056003)
(0.000452742 1.93968e-05 -5.41705e-20 0.000578367 -9.47381e-21 0.000529428)
(0.000434984 3.04335e-05 -1.33069e-19 0.000543558 -5.81898e-20 0.000503963)
(0.000422169 3.85897e-05 8.84752e-20 0.000512475 1.76984e-21 0.000482267)
(0.00040848 4.3665e-05 -6.45905e-20 0.000480829 -3.72552e-20 0.000459018)
(0.000388213 4.55319e-05 8.81747e-22 0.000442552 4.71418e-20 0.000428501)
(0.000368237 4.65216e-05 -1.5879e-20 0.000407345 -1.24752e-20 0.000399654)
(0.000334943 4.318e-05 -1.10956e-19 0.000359052 -7.66635e-20 0.00035667)
(0.000271372 3.10903e-05 6.50577e-20 0.000282051 6.3158e-20 0.000282544)
(0.000164946 1.18436e-05 6.19349e-22 0.000167462 -1.90978e-20 0.000167893)
(1.77252e-05 1.26714e-07 6.96497e-23 1.77414e-05 2.13117e-23 1.77459e-05)
(5.12869e-06 9.34433e-09 1.30596e-23 5.12885e-06 -5.84937e-25 5.12942e-06)
(0 0 -0 0 -0 0)
(0 0 0 0 0 0)
(0 0 -0 0 0 0)
(0.00057677 9.11345e-05 -1.44758e-20 0.000546372 -8.96571e-21 0.000562471)
(0.0160527 0.00655513 2.15786e-20 0.0135934 1.68964e-18 0.0148401)
(0.00718694 0.00285696 -8.32509e-18 0.00589191 6.87352e-19 0.00653086)
(0.0217766 0.00822476 -1.04346e-17 0.0165953 1.74489e-18 0.0191205)
(0.0459209 0.0119805 2.77303e-17 0.0250038 -1.61847e-16 0.0351215)
(0.241803 -0.0986899 5.76555e-16 0.205172 -7.07494e-16 0.222244)
(1.27511 -0.584754 -2.98436e-15 1.32853 1.59063e-16 1.29884)
(3.15501 -1.49058 4.83618e-15 3.52148 1.81723e-15 3.33553)
(5.00562 -2.39961 -9.60641e-16 5.80809 4.22811e-16 5.40579)
(6.12729 -2.96403 -1.7501e-15 7.29565 3.98725e-15 6.71741)
(6.43278 -3.08592 6.7358e-16 7.49485 2.45179e-16 6.94785)
(6.97157 -3.40213 -1.72635e-14 8.48127 4.31314e-15 7.78263)
(0.000973561 -5.80146e-05 3.27606e-21 0.000780338 1.34087e-21 0.000878747)
(0.00097532 -4.04346e-05 -1.18507e-20 0.000766663 -1.70457e-20 0.000872)
(0.000967365 -1.88529e-05 1.51531e-21 0.000749988 7.71232e-21 0.000859598)
(0.000946701 4.44964e-06 6.46032e-21 0.000731358 -2.15573e-20 0.000839498)
(0.000911604 2.77125e-05 -5.25505e-20 0.000710736 -7.55869e-20 0.000811498)
(0.000858261 4.83551e-05 -4.66909e-20 0.000685251 3.595e-20 0.000771762)
(0.000792088 6.39205e-05 7.53555e-20 0.000656949 3.91374e-20 0.000724333)
(0.000720189 7.29095e-05 -2.43738e-20 0.000627177 -7.08283e-20 0.000673615)
(0.000644827 7.53688e-05 -3.32931e-20 0.000594113 9.45056e-21 0.000619572)
(0.00056613 7.16255e-05 -2.2704e-20 0.000553856 -3.94254e-20 0.000560187)
(0.000489277 6.33301e-05 7.95438e-21 0.000507069 1.2003e-20 0.000498346)
(0.000418595 5.2848e-05 -1.48962e-20 0.000456742 -1.94905e-20 0.000437828)
(0.000355927 4.20765e-05 -3.07653e-20 0.000405719 4.14014e-20 0.00038101)
(0.000301306 3.21473e-05 3.26316e-20 0.000355973 1.9159e-20 0.000328905)
(0.000254442 2.36753e-05 2.77375e-20 0.000309193 -1.27582e-20 0.000282201)
(0.000214703 1.68142e-05 -5.69987e-21 0.000266587 -1.1421e-20 0.000241188)
(0.000181492 1.14814e-05 1.65646e-20 0.00022898 3.69214e-21 0.000205954)
(0.000154146 7.42675e-06 -2.45413e-20 0.000196732 6.27094e-21 0.000176338)
(0.000132007 4.35102e-06 1.7379e-20 0.000169819 -4.5576e-22 0.000151981)
(0.000114192 1.952e-06 -2.28829e-20 0.000147615 -1.06921e-20 0.000132128)
(0.000100011 -6.57295e-09 2.20801e-20 0.000129494 1.84847e-21 0.000116106)
(8.86581e-05 -1.71498e-06 2.9611e-20 0.000114505 6.4824e-21 0.000103044)
(7.93399e-05 -3.28551e-06 -2.06489e-21 0.000101575 2.7189e-21 9.20062e-05)
(7.07569e-05 -4.65597e-06 -5.55214e-20 8.89156e-05 2.32061e-23 8.14999e-05)
(6.22234e-05 -5.52891e-06 -2.06717e-20 7.58566e-05 -8.83441e-21 7.08371e-05)
(5.44269e-05 -5.80815e-06 -6.09294e-21 6.37443e-05 9.39825e-21 6.09909e-05)
(4.83882e-05 -5.71863e-06 2.25731e-20 5.38807e-05 2.81466e-22 5.32166e-05)
(4.45454e-05 -5.39273e-06 8.12642e-22 4.66611e-05 -1.85483e-22 4.79229e-05)
(4.35165e-05 -5.06183e-06 -1.29361e-21 4.27146e-05 1.10855e-22 4.57515e-05)
(4.12519e-05 -4.09878e-06 1.36267e-20 3.83545e-05 6.21585e-23 4.23702e-05)
(5.1695e-05 -5.49101e-06 1.54798e-20 4.49995e-05 5.00196e-22 5.22949e-05)
(1.19292e-05 -3.21798e-07 -4.95797e-21 1.14134e-05 -2.74145e-22 1.19111e-05)
(8.48874e-05 -1.23841e-05 -5.48724e-19 6.2087e-05 -4.25695e-20 8.20947e-05)
(0.0004435 -0.000104869 -1.02593e-18 0.00023587 -1.25866e-19 0.000400669)
(0.000121446 -2.30903e-05 1.78779e-19 7.22301e-05 1.79004e-21 0.00010712)
(0.00043325 -8.64159e-05 -1.64891e-18 0.000203554 6.81068e-19 0.000344121)
(0.00125622 -0.000129984 -1.77671e-17 0.000500836 -1.47985e-17 0.000922435)
(0.00303426 0.000211753 5.57198e-17 0.00119158 3.97613e-18 0.00208055)
(0.0490032 0.0197079 -2.90491e-16 0.0399567 5.23004e-17 0.0465396)
(0.000790975 -6.1051e-05 4.49933e-21 0.000651793 5.22771e-21 0.000720751)
(0.000783335 -7.19327e-05 -1.1315e-20 0.000665542 -1.36031e-20 0.000723865)
(0.00076892 -8.14956e-05 -9.1409e-22 0.000679599 -1.89036e-21 0.000723346)
(0.000750204 -8.81092e-05 -4.71738e-21 0.000693244 -2.45809e-21 0.000720648)
(0.000726037 -9.09841e-05 3.73954e-20 0.000703383 4.30418e-20 0.00071342)
(0.000696931 -8.99787e-05 2.86773e-20 0.000709796 2.36605e-20 0.00070167)
(0.000664913 -8.51269e-05 3.63138e-22 0.000711303 1.15663e-20 0.000686049)
(0.000630477 -7.68372e-05 7.1148e-20 0.000706246 6.89427e-20 0.000665864)
(0.000594708 -6.58187e-05 -8.88777e-21 0.00069445 -1.18764e-21 0.000641514)
(0.000558828 -5.31311e-05 -2.45755e-20 0.000675864 -1.15389e-20 0.000613691)
(0.00052321 -3.97204e-05 4.82757e-20 0.000650627 1.80148e-20 0.000582592)
(0.00048841 -2.64967e-05 -6.49947e-20 0.000619686 -2.51895e-20 0.000548979)
(0.000454786 -1.42762e-05 -1.14728e-19 0.000584191 -8.96865e-20 0.000513652)
(0.000422381 -3.55421e-06 -4.79339e-20 0.000545318 1.23594e-20 0.000477206)
(0.000391197 5.37166e-06 2.06915e-19 0.000504298 9.34501e-20 0.000440312)
(0.000359932 1.2285e-05 -1.49598e-19 0.000460672 -6.81874e-20 0.000402142)
(0.000326245 1.76165e-05 -3.59859e-20 0.00041235 3.1209e-20 0.000360985)
(0.000291789 2.13196e-05 6.72759e-20 0.000362014 4.38528e-20 0.000318953)
(0.000260335 2.37614e-05 -4.27272e-20 0.000315205 -3.47032e-22 0.000280551)
(0.000232183 2.49024e-05 -1.40436e-20 0.000272545 3.51602e-20 0.00024619)
(0.000211872 2.58479e-05 2.02436e-20 0.00024002 -1.3004e-20 0.00022085)
(0.0001908 2.43859e-05 -1.44841e-19 0.000206532 1.40192e-20 0.000195044)
(0.000167536 1.99719e-05 1.15513e-21 0.000172303 -1.93887e-20 0.00016793)
(6.58677e-05 3.10313e-06 -1.24151e-20 6.54488e-05 1.24884e-21 6.54805e-05)
(8.54484e-06 5.06926e-08 5.48361e-23 8.52215e-06 1.60647e-23 8.53176e-06)
(4.42539e-06 1.32417e-08 -4.61745e-24 4.41656e-06 -1.94713e-23 4.42058e-06)
(1.97317e-06 2.60096e-09 -1.93271e-25 1.9712e-06 -1.8119e-26 1.97211e-06)
(1.16643e-07 8.74321e-12 1.46197e-27 1.16636e-07 3.58121e-29 1.16639e-07)
(0 0 0 0 -0 0)
(0.000939919 0.000270578 2.91066e-19 0.000765584 4.68966e-19 0.000850342)
(0.00519434 0.00195676 -5.71253e-19 0.0039745 1.18026e-18 0.00456778)
(0.0280622 0.0105644 -3.52521e-17 0.0212972 1.14541e-17 0.0245971)