/*--------------------------------*- C++ -*----------------------------------*\
| =========                 |                                                 |
| \\      /  F ield         | OpenFOAM: The Open Source CFD Toolbox           |
|  \\    /   O peration     | Version:  2506                                  |
|   \\  /    A nd           | Website:  www.openfoam.com                      |
|    \\/     M anipulation  |                                                 |
\*---------------------------------------------------------------------------*/
FoamFile
{
    version     2.0;
    format      ascii;
    arch        "LSB;label=32;scalar=64";
    class       volScalarField;
    location    "200";
    object      turbulenceProperties:nuEff;
}
// * * * * * * * * * * * * * * * * * * * * * * * * * * * * * * * * * * * * * //

dimensions      [0 2 -1 0 0 0 0];

internalField   nonuniform List<scalar> 
1340
(
1.61015e-05
1.61021e-05
1.61018e-05
1.60829e-05
1.61027e-05
1.61022e-05
1.60809e-05
1.60828e-05
1.61034e-05
1.61027e-05
1.60723e-05
1.60743e-05
1.60808e-05
1.60827e-05
1.61041e-05
1.61033e-05
1.60775e-05
1.60732e-05
1.60722e-05
1.60742e-05
1.60807e-05
1.60826e-05
1.61048e-05
1.6104e-05
1.609e-05
1.60863e-05
1.60822e-05
1.60779e-05
1.60734e-05
1.60722e-05
1.60741e-05
1.60805e-05
1.60824e-05
1.61055e-05
1.61048e-05
1.60991e-05
1.60963e-05
1.60938e-05
1.60906e-05
1.60868e-05
1.60826e-05
1.60783e-05
1.60737e-05
1.60722e-05
1.6074e-05
1.60804e-05
1.60822e-05
1.61063e-05
1.61057e-05
1.61109e-05
1.61089e-05
1.61064e-05
1.61031e-05
1.60998e-05
1.6097e-05
1.60944e-05
1.60913e-05
1.60874e-05
1.60832e-05
1.60788e-05
1.6074e-05
1.60722e-05
1.60739e-05
1.60802e-05
1.60819e-05
1.6107e-05
1.61067e-05
1.6116e-05
1.61155e-05
1.61149e-05
1.6114e-05
1.6113e-05
1.61117e-05
1.61098e-05
1.61072e-05
1.6104e-05
1.61006e-05
1.60977e-05
1.60951e-05
1.60919e-05
1.60881e-05
1.60837e-05
1.60793e-05
1.60744e-05
1.60723e-05
1.60738e-05
1.60801e-05
1.60817e-05
1.61078e-05
1.61078e-05
1.61154e-05
1.61159e-05
1.61163e-05
1.61166e-05
1.61169e-05
1.6117e-05
1.6117e-05
1.61168e-05
1.61163e-05
1.61157e-05
1.61148e-05
1.61138e-05
1.61125e-05
1.61106e-05
1.61081e-05
1.61048e-05
1.61014e-05
1.60984e-05
1.60958e-05
1.60926e-05
1.60888e-05
1.60843e-05
1.60798e-05
1.60748e-05
1.60724e-05
1.60737e-05
1.608e-05
1.60814e-05
1.61086e-05
1.61089e-05
1.61077e-05
1.6107e-05
1.61065e-05
1.61067e-05
1.61076e-05
1.61089e-05
1.61101e-05
1.61113e-05
1.61124e-05
1.61134e-05
1.61143e-05
1.61151e-05
1.61158e-05
1.61164e-05
1.61168e-05
1.61172e-05
1.61175e-05
1.61177e-05
1.61177e-05
1.61175e-05
1.61171e-05
1.61165e-05
1.61157e-05
1.61147e-05
1.61134e-05
1.61115e-05
1.6109e-05
1.61058e-05
1.61022e-05
1.60992e-05
1.60966e-05
1.60934e-05
1.60895e-05
1.6085e-05
1.60804e-05
1.60752e-05
1.60725e-05
1.60736e-05
1.60798e-05
1.60811e-05
1.61094e-05
1.61102e-05
1.0072e-05
1.00003e-05
1e-05
1e-05
1.0103e-05
0.0024854
0.00979769
0.0388883
0.0885835
0.148163
0.206315
0.256009
0.293934
0.319254
0.333093
0.337995
0.336958
0.323803
0.290109
0.231143
0.152001
0.0728326
0.0201317
0.00166142
0.000420799
1e-05
1e-05
1e-05
1.00054e-05
1.1328e-05
1.698e-05
1.75125e-05
1.62895e-05
1.59711e-05
1.60666e-05
1.61229e-05
1.61192e-05
1.61122e-05
1.611e-05
1.61077e-05
1.61061e-05
1.61066e-05
1.61082e-05
1.61098e-05
1.61112e-05
1.61124e-05
1.61135e-05
1.61144e-05
1.61153e-05
1.61161e-05
1.61168e-05
1.61174e-05
1.61178e-05
1.61182e-05
1.61184e-05
1.61185e-05
1.61183e-05
1.61179e-05
1.61173e-05
1.61165e-05
1.61156e-05
1.61143e-05
1.61125e-05
1.611e-05
1.61067e-05
1.61032e-05
1.61001e-05
1.60974e-05
1.60942e-05
1.60902e-05
1.60857e-05
1.6081e-05
1.60757e-05
1.60726e-05
1.60735e-05
1.60797e-05
1.60807e-05
1.61102e-05
1.61116e-05
1.68292e-05
1.01608e-05
1.00007e-05
1e-05
1e-05
1e-05
0.000955169
0.003607
0.0234346
0.0652541
0.122339
0.182844
0.237335
0.280652
0.310815
0.328201
0.335444
0.335363
0.324444
0.294266
0.239026
0.162271
0.0823987
0.0266807
0.00133764
0.000373416
1e-05
1e-05
1e-05
1.0003e-05
1.07371e-05
1.64264e-05
1.77766e-05
1.64528e-05
1.59916e-05
1.60621e-05
1.61176e-05
1.61071e-05
1.61014e-05
1.61069e-05
1.61093e-05
1.61079e-05
1.61074e-05
1.61088e-05
1.61107e-05
1.61122e-05
1.61135e-05
1.61146e-05
1.61156e-05
1.61165e-05
1.61173e-05
1.61179e-05
1.61184e-05
1.61188e-05
1.61191e-05
1.61192e-05
1.61191e-05
1.61188e-05
1.61182e-05
1.61175e-05
1.61165e-05
1.61152e-05
1.61135e-05
1.61111e-05
1.61078e-05
1.61041e-05
1.6101e-05
1.60983e-05
1.6095e-05
1.60911e-05
1.60864e-05
1.60816e-05
1.60762e-05
1.60728e-05
1.60734e-05
1.60795e-05
1.60804e-05
1.6111e-05
1.6113e-05
1.7739e-05
1.6584e-05
1.05877e-05
1.00027e-05
1e-05
1e-05
1e-05
0.000239992
0.000852908
0.0126651
0.0443797
0.096115
0.157013
0.215698
0.264648
0.300329
0.32226
0.332464
0.333534
0.324745
0.297946
0.246451
0.172372
0.0927392
0.0316074
0.00234022
0.000653046
1e-05
1e-05
1e-05
1.00011e-05
1.02639e-05
1.56218e-05
1.80497e-05
1.65684e-05
1.59482e-05
1.60711e-05
1.61793e-05
1.61449e-05
1.61011e-05
1.60955e-05
1.61042e-05
1.61089e-05
1.61096e-05
1.61102e-05
1.61117e-05
1.61133e-05
1.61147e-05
1.61158e-05
1.61168e-05
1.61177e-05
1.61184e-05
1.6119e-05
1.61195e-05
1.61198e-05
1.612e-05
1.612e-05
1.61197e-05
1.61191e-05
1.61184e-05
1.61175e-05
1.61163e-05
1.61145e-05
1.61121e-05
1.61089e-05
1.61052e-05
1.6102e-05
1.60992e-05
1.60959e-05
1.60919e-05
1.60872e-05
1.60823e-05
1.60767e-05
1.6073e-05
1.60733e-05
1.60793e-05
1.608e-05
1.61117e-05
1.61146e-05
1.61737e-05
1.7348e-05
1.65085e-05
1.17891e-05
1.00085e-05
1e-05
1e-05
1e-05
1.00218e-05
0.00135707
0.00517361
0.0273817
0.0712526
0.130016
0.191711
0.24628
0.288024
0.315131
0.3287
0.331027
0.324134
0.300546
0.252813
0.181795
0.102105
0.0370546
0.00414674
0.00110193
1e-05
1e-05
1e-05
1.00002e-05
1.00393e-05
1.45858e-05
1.86344e-05
1.69489e-05
1.57097e-05
1.57564e-05
1.60812e-05
1.61876e-05
1.61457e-05
1.6104e-05
1.60974e-05
1.61048e-05
1.61103e-05
1.61123e-05
1.61133e-05
1.61145e-05
1.61158e-05
1.6117e-05
1.61181e-05
1.61189e-05
1.61196e-05
1.61201e-05
1.61205e-05
1.61208e-05
1.61208e-05
1.61206e-05
1.61201e-05
1.61194e-05
1.61185e-05
1.61173e-05
1.61156e-05
1.61133e-05
1.61101e-05
1.61063e-05
1.6103e-05
1.61002e-05
1.60969e-05
1.60929e-05
1.6088e-05
1.6083e-05
1.60773e-05
1.60732e-05
1.60731e-05
1.60791e-05
1.60797e-05
1.61124e-05
1.61162e-05
1.60079e-05
1.61784e-05
1.69708e-05
1.67596e-05
1.40355e-05
1.00001e-05
1e-05
1e-05
1e-05
1e-05
0.000111232
0.000265914
0.0137656
0.0478084
0.100933
0.163345
0.223389
0.272554
0.306673
0.325211
0.330441
0.325058
0.304159
0.260221
0.192462
0.11268
0.0438054
0.00547921
0.00180494
1.10634e-05
1e-05
1e-05
1e-05
1.00103e-05
1.23611e-05
1.92969e-05
1.9248e-05
1.6838e-05
1.57935e-05
1.58124e-05
1.60548e-05
1.61526e-05
1.61365e-05
1.61089e-05
1.61033e-05
1.61085e-05
1.6113e-05
1.6115e-05
1.61161e-05
1.61172e-05
1.61183e-05
1.61193e-05
1.61201e-05
1.61208e-05
1.61213e-05
1.61216e-05
1.61217e-05
1.61215e-05
1.61211e-05
1.61204e-05
1.61195e-05
1.61184e-05
1.61168e-05
1.61145e-05
1.61113e-05
1.61075e-05
1.61041e-05
1.61012e-05
1.60979e-05
1.60939e-05
1.6089e-05
1.60838e-05
1.6078e-05
1.60736e-05
1.6073e-05
1.60789e-05
1.60793e-05
1.61131e-05
1.61179e-05
1.61307e-05
1.60789e-05
1.61785e-05
1.64314e-05
1.71657e-05
1.48501e-05
1.07015e-05
1.00033e-05
1e-05
1e-05
1e-05
1.00001e-05
0.00128458
0.00484814
0.0228266
0.0592523
0.111641
0.171484
0.228597
0.274997
0.306436
0.322373
0.323089
0.309456
0.275931
0.219542
0.146856
0.0749167
0.0257138
0.00113073
0.000612172
1e-05
1e-05
1e-05
1e-05
1.00073e-05
1.12581e-05
1.66635e-05
1.86268e-05
1.71434e-05
1.60233e-05
1.58464e-05
1.60181e-05
1.61276e-05
1.6132e-05
1.61127e-05
1.61078e-05
1.6112e-05
1.6116e-05
1.61178e-05
1.61189e-05
1.61198e-05
1.61207e-05
1.61215e-05
1.61222e-05
1.61226e-05
1.61228e-05
1.61227e-05
1.61224e-05
1.61217e-05
1.61209e-05
1.61198e-05
1.61182e-05
1.6116e-05
1.61128e-05
1.61089e-05
1.61054e-05
1.61025e-05
1.60991e-05
1.6095e-05
1.60901e-05
1.60848e-05
1.60788e-05
1.6074e-05
1.60729e-05
1.60787e-05
1.60789e-05
1.61137e-05
1.61198e-05
1.61485e-05
1.61449e-05
1.61202e-05
1.61148e-05
1.62675e-05
1.71624e-05
1.66828e-05
1.41423e-05
1.01373e-05
1.00007e-05
1e-05
1e-05
1e-05
1.55545e-05
0.00108481
0.00375627
0.0200703
0.0538926
0.103702
0.162192
0.219455
0.266955
0.299522
0.315536
0.314389
0.295632
0.255074
0.193342
0.12198
0.0585718
0.0174677
0.00492956
0.000188306
1e-05
1e-05
1e-05
1e-05
1.00061e-05
1.12763e-05
1.69759e-05
1.85518e-05
1.69416e-05
1.59654e-05
1.58954e-05
1.60682e-05
1.61414e-05
1.61297e-05
1.61129e-05
1.61117e-05
1.61161e-05
1.61193e-05
1.61208e-05
1.61218e-05
1.61225e-05
1.61232e-05
1.61237e-05
1.61241e-05
1.61241e-05
1.61239e-05
1.61233e-05
1.61225e-05
1.61214e-05
1.61199e-05
1.61177e-05
1.61146e-05
1.61107e-05
1.61071e-05
1.6104e-05
1.61006e-05
1.60965e-05
1.60914e-05
1.60859e-05
1.60798e-05
1.60745e-05
1.60729e-05
1.60785e-05
1.60786e-05
1.61143e-05
1.61217e-05
1.61469e-05
1.61532e-05
1.6152e-05
1.61477e-05
1.61013e-05
1.62656e-05
1.66788e-05
1.73372e-05
1.59395e-05
1.27896e-05
1.00017e-05
1e-05
1e-05
1e-05
1e-05
1.26563e-05
0.000821274
0.00270134
0.018316
0.0513714
0.100589
0.158929
0.216467
0.264253
0.296413
0.310063
0.304428
0.278042
0.229165
0.163711
0.0950126
0.0408579
0.00920855
0.00268428
3.58839e-05
1e-05
1e-05
1e-05
1.00002e-05
1.00211e-05
1.28812e-05
1.80513e-05
1.78162e-05
1.63107e-05
1.58348e-05
1.59668e-05
1.61171e-05
1.61424e-05
1.61234e-05
1.61143e-05
1.61159e-05
1.61194e-05
1.6122e-05
1.61236e-05
1.61245e-05
1.6125e-05
1.61254e-05
1.61256e-05
1.61254e-05
1.61249e-05
1.61241e-05
1.61231e-05
1.61217e-05
1.61196e-05
1.61165e-05
1.61126e-05
1.61088e-05
1.61056e-05
1.61021e-05
1.6098e-05
1.60928e-05
1.60872e-05
1.60808e-05
1.60751e-05
1.60728e-05
1.60782e-05
1.60782e-05
1.61148e-05
1.61237e-05
1.61527e-05
1.61566e-05
1.61617e-05
1.61555e-05
1.61352e-05
1.6167e-05
1.64034e-05
1.69023e-05
1.73119e-05
1.5139e-05
1.10223e-05
1.00048e-05
1e-05
1e-05
1e-05
1e-05
1.0923e-05
0.000799371
0.00264164
0.0184436
0.0518985
0.101675
0.16059
0.218322
0.265154
0.294621
0.302957
0.29011
0.254946
0.198861
0.131623
0.0683009
0.0249275
0.00293184
0.000931396
1e-05
1e-05
1e-05
1e-05
1.00037e-05
1.08266e-05
1.6399e-05
1.85775e-05
1.69803e-05
1.59548e-05
1.58835e-05
1.60615e-05
1.61401e-05
1.61368e-05
1.61244e-05
1.61208e-05
1.61213e-05
1.61229e-05
1.61247e-05
1.61261e-05
1.61268e-05
1.61271e-05
1.6127e-05
1.61266e-05
1.61259e-05
1.61249e-05
1.61235e-05
1.61215e-05
1.61186e-05
1.61146e-05
1.61107e-05
1.61073e-05
1.61038e-05
1.60996e-05
1.60943e-05
1.60885e-05
1.6082e-05
1.60759e-05
1.60729e-05
1.60779e-05
1.60779e-05
1.61152e-05
1.61257e-05
1.61523e-05
1.61559e-05
1.61595e-05
1.61649e-05
1.61628e-05
1.61506e-05
1.61343e-05
1.62359e-05
1.6523e-05
1.73187e-05
1.68803e-05
1.41839e-05
1.00075e-05
1e-05
1e-05
1e-05
1e-05
1e-05
1.10452e-05
0.00098384
0.00338863
0.02035
0.0554868
0.10701
0.166952
0.224142
0.268088
0.292184
0.292747
0.270932
0.22641
0.164388
0.098159
0.0435146
0.011014
0.00307919
2.05018e-05
1e-05
1e-05
1e-05
1.00003e-05
1.00522e-05
1.34805e-05
1.83596e-05
1.77117e-05
1.62479e-05
1.5865e-05
1.59912e-05
1.61043e-05
1.61264e-05
1.6125e-05
1.61261e-05
1.61269e-05
1.61264e-05
1.61267e-05
1.61276e-05
1.61284e-05
1.61286e-05
1.61283e-05
1.61276e-05
1.61267e-05
1.61254e-05
1.61235e-05
1.61207e-05
1.61168e-05
1.61128e-05
1.61092e-05
1.61055e-05
1.61013e-05
1.60959e-05
1.609e-05
1.60832e-05
1.60768e-05
1.60729e-05
1.60777e-05
1.60775e-05
1.61154e-05
1.61276e-05
1.61507e-05
1.61542e-05
1.61574e-05
1.61612e-05
1.61654e-05
1.61687e-05
1.61595e-05
1.61488e-05
1.61364e-05
1.63429e-05
1.67854e-05
1.75835e-05
1.56053e-05
1.09081e-05
1.00043e-05
1e-05
1e-05
1e-05
1e-05
1e-05
1.33252e-05
0.00140383
0.00506559
0.0243714
0.0625799
0.116783
0.177595
0.232784
0.271427
0.287346
0.278694
0.246256
0.192461
0.127124
0.0654129
0.0227952
0.00206523
0.000673006
1e-05
1e-05
1e-05
1e-05
1.00057e-05
1.13068e-05
1.71139e-05
1.8269e-05
1.66774e-05
1.59678e-05
1.6003e-05
1.61166e-05
1.61296e-05
1.61166e-05
1.6119e-05
1.61264e-05
1.61293e-05
1.61296e-05
1.61297e-05
1.613e-05
1.613e-05
1.61295e-05
1.61286e-05
1.61274e-05
1.61256e-05
1.61229e-05
1.6119e-05
1.6115e-05
1.61112e-05
1.61074e-05
1.61031e-05
1.60977e-05
1.60916e-05
1.60846e-05
1.60778e-05
1.60731e-05
1.60773e-05
1.6077e-05
1.61155e-05
1.61295e-05
1.61488e-05
1.61524e-05
1.61559e-05
1.61594e-05
1.61631e-05
1.61677e-05
1.61717e-05
1.61721e-05
1.61586e-05
1.61391e-05
1.61929e-05
1.64554e-05
1.73475e-05
1.68063e-05
1.38123e-05
1.01328e-05
1.00007e-05
1e-05
1e-05
1e-05
1e-05
1e-05
2.61292e-05
0.00214946
0.00803723
0.0313471
0.0739661
0.131231
0.19188
0.242656
0.273363
0.278406
0.258405
0.214748
0.153609
0.0892809
0.0375383
0.00810437
0.00229459
3.4264e-05
1e-05
1e-05
1e-05
1.00011e-05
1.02218e-05
1.51492e-05
1.85756e-05
1.70315e-05
1.59062e-05
1.58792e-05
1.61018e-05
1.61715e-05
1.61453e-05
1.61251e-05
1.61253e-05
1.61297e-05
1.61315e-05
1.61318e-05
1.61317e-05
1.61313e-05
1.61305e-05
1.61294e-05
1.61277e-05
1.61251e-05
1.61214e-05
1.61173e-05
1.61134e-05
1.61094e-05
1.6105e-05
1.60995e-05
1.60933e-05
1.60861e-05
1.60789e-05
1.60734e-05
1.60771e-05
1.60766e-05
1.61155e-05
1.61313e-05
1.61486e-05
1.61524e-05
1.6156e-05
1.61597e-05
1.61634e-05
1.61674e-05
1.61719e-05
1.61766e-05
1.6181e-05
1.61735e-05
1.61615e-05
1.61302e-05
1.63237e-05
1.68152e-05
1.74459e-05
1.56979e-05
1.23621e-05
1.00055e-05
1e-05
1e-05
1e-05
1e-05
1e-05
1e-05
7.0369e-05
0.00309735
0.0117209
0.0413642
0.0897204
0.149744
0.20821
0.251305
0.270256
0.262045
0.22858
0.17411
0.110291
0.0531157
0.0174573
0.00255083
0.00059658
1e-05
1e-05
1e-05
1e-05
1.00014e-05
1.25199e-05
1.92811e-05
1.86096e-05
1.63999e-05
1.57576e-05
1.59148e-05
1.61026e-05
1.6148e-05
1.61377e-05
1.61308e-05
1.61315e-05
1.61332e-05
1.61337e-05
1.61334e-05
1.61327e-05
1.61316e-05
1.613e-05
1.61276e-05
1.6124e-05
1.612e-05
1.61159e-05
1.61117e-05
1.61072e-05
1.61017e-05
1.60953e-05
1.60878e-05
1.60803e-05
1.6074e-05
1.60767e-05
1.60761e-05
1.61149e-05
1.61332e-05
1.61509e-05
1.61548e-05
1.61585e-05
1.61622e-05
1.61659e-05
1.61697e-05
1.61737e-05
1.61779e-05
1.6183e-05
1.61874e-05
1.619e-05
1.61765e-05
1.6151e-05
1.62015e-05
1.65313e-05
1.71087e-05
1.7355e-05
1.46375e-05
1.10816e-05
1e-05
1e-05
1e-05
1e-05
1e-05
1e-05
1e-05
0.000698242
0.00238168
0.0191064
0.0559546
0.11112
0.17415
0.229682
0.263922
0.268951
0.245015
0.195732
0.130553
0.0667721
0.019361
0.00599985
0.000750789
0.000308851
7.85031e-05
1.02138e-05
1e-05
1.00005e-05
1.00588e-05
1.47711e-05
1.9001e-05
1.76905e-05
1.63565e-05
1.60192e-05
1.60659e-05
1.61233e-05
1.61358e-05
1.61345e-05
1.61342e-05
1.61348e-05
1.61349e-05
1.61343e-05
1.61333e-05
1.61318e-05
1.61296e-05
1.61261e-05
1.61221e-05
1.61179e-05
1.61135e-05
1.61089e-05
1.61034e-05
1.60968e-05
1.60892e-05
1.60813e-05
1.60744e-05
1.60767e-05
1.60758e-05
1.61155e-05
1.61346e-05
1.61504e-05
1.61539e-05
1.61572e-05
1.61605e-05
1.61639e-05
1.61674e-05
1.61711e-05
1.61748e-05
1.61788e-05
1.61833e-05
1.61883e-05
1.61942e-05
1.61905e-05
1.61718e-05
1.61563e-05
1.62803e-05
1.66611e-05
1.73643e-05
1.72133e-05
1.46642e-05
1.09279e-05
1.00037e-05
1e-05
1e-05
1e-05
1e-05
1e-05
1.16787e-05
0.000853964
0.00262418
0.0188793
0.0526677
0.101555
0.156367
0.204104
0.233511
0.237003
0.21423
0.169782
0.113982
0.0641459
0.030287
0.0117593
0.00355644
0.000594329
0.000125123
1e-05
1e-05
1.00002e-05
1.11137e-05
1.4994e-05
1.65441e-05
1.63998e-05
1.61717e-05
1.6118e-05
1.61263e-05
1.61345e-05
1.61368e-05
1.61376e-05
1.61381e-05
1.61379e-05
1.61371e-05
1.61358e-05
1.61338e-05
1.61307e-05
1.61269e-05
1.61226e-05
1.61178e-05
1.61129e-05
1.61072e-05
1.61006e-05
1.60925e-05
1.60843e-05
1.60758e-05
1.60767e-05
1.60751e-05
1.61128e-05
1.6138e-05
)
;

boundaryField
{
    inlet
    {
        type            calculated;
        value           nonuniform List<scalar> 
27
(
1.61015e-05
1.61018e-05
1.61022e-05
1.61027e-05
1.61033e-05
1.6104e-05
1.61048e-05
1.61057e-05
1.61067e-05
1.61078e-05
1.61089e-05
1.61102e-05
1.61116e-05
1.6113e-05
1.61146e-05
1.61162e-05
1.61179e-05
1.61198e-05
1.61217e-05
1.61237e-05
1.61257e-05
1.61276e-05
1.61295e-05
1.61313e-05
1.61332e-05
1.61346e-05
1.6138e-05
)
;
    }
    outlet
    {
        type            calculated;
        value           nonuniform List<scalar> 
78
(
1.61504e-05
1.61539e-05
1.61572e-05
1.61605e-05
1.61639e-05
1.61674e-05
1.61711e-05
1.61748e-05
1.61788e-05
1.61833e-05
1.61883e-05
1.61942e-05
1.61905e-05
1.61718e-05
1.61563e-05
1.62803e-05
1.66611e-05
1.73643e-05
1.72133e-05
1.46642e-05
1.09279e-05
1.00037e-05
1e-05
1e-05
1e-05
1e-05
1e-05
1.16787e-05
0.000853964
0.00262418
0.0188793
0.0526677
0.101555
0.156367
0.204104
0.233511
0.237003
0.21423
0.169782
0.113982
0.0641459
0.030287
0.0117593
0.00355644
0.000594329
0.000125123
1e-05
1e-05
1.00002e-05
1.11137e-05
1.4994e-05
1.65441e-05
1.63998e-05
1.61717e-05
1.6118e-05
1.61263e-05
1.61345e-05
1.61368e-05
1.61376e-05
1.61381e-05
1.61379e-05
1.61371e-05
1.61358e-05
1.61338e-05
1.61307e-05
1.61269e-05
1.61226e-05
1.61178e-05
1.61129e-05
1.61072e-05
1.61006e-05
1.60925e-05
1.60843e-05
1.60758e-05
1.60767e-05
1.60751e-05
1.61128e-05
1.6138e-05
)
;
    }
    walls
    {
        type            calculated;
        value           nonuniform List<scalar> 0();
    }
    frontAndBack
    {
        type            empty;
    }
    procBoundary7to3
    {
        type            processor;
        value           nonuniform List<scalar> 
16
(
1.63867e-05
1.81322e-05
1.62372e-05
1.597e-05
1.61098e-05
1.61414e-05
1.61388e-05
1.61417e-05
1.6148e-05
1.6148e-05
1.61484e-05
1.61467e-05
1.61446e-05
1.6144e-05
1.61462e-05
1.61461e-05
)
;
    }
    procBoundary7to6
    {
        type            processor;
        value           nonuniform List<scalar> 
91
(
1.61012e-05
1.61016e-05
1.61016e-05
1.6083e-05
1.6083e-05
1.6081e-05
1.6081e-05
1.60723e-05
1.60743e-05
1.60743e-05
1.60771e-05
1.6073e-05
1.6073e-05
1.60895e-05
1.60857e-05
1.60817e-05
1.60817e-05
1.60984e-05
1.60957e-05
1.60932e-05
1.60932e-05
1.61101e-05
1.61082e-05
1.61056e-05
1.61024e-05
1.61024e-05
1.61153e-05
1.61148e-05
1.61141e-05
1.61133e-05
1.61122e-05
1.61122e-05
1.6115e-05
1.61154e-05
1.61158e-05
1.61161e-05
1.61163e-05
1.61164e-05
1.61163e-05
1.61163e-05
1.61081e-05
1.61072e-05
1.61066e-05
1.6107e-05
1.61081e-05
1.61093e-05
1.61104e-05
1.61114e-05
1.61124e-05
1.61132e-05
1.6114e-05
1.61147e-05
1.61147e-05
1.00001e-05
1e-05
1e-05
0.000374379
0.00133858
0.0178654
0.056895
0.112412
0.172185
0.22693
0.271821
0.304861
0.326041
0.337209
0.341033
0.338871
0.323117
0.285635
0.222882
0.141625
0.0632534
0.0148348
0.000322622
0.000105015
1e-05
1e-05
1e-05
1.00093e-05
1.22159e-05
1.76512e-05
1.73222e-05
1.6169e-05
1.59773e-05
1.60891e-05
1.61299e-05
1.61187e-05
1.61097e-05
1.61097e-05
)
;
    }
}


// ************************************************************************* //
