/*--------------------------------*- C++ -*----------------------------------*\
| =========                 |                                                 |
| \\      /  F ield         | OpenFOAM: The Open Source CFD Toolbox           |
|  \\    /   O peration     | Version:  2506                                  |
|   \\  /    A nd           | Website:  www.openfoam.com                      |
|    \\/     M anipulation  |                                                 |
\*---------------------------------------------------------------------------*/
FoamFile
{
    version     2.0;
    format      ascii;
    arch        "LSB;label=32;scalar=64";
    class       volScalarField;
    location    "200";
    object      turbulenceProperties:epsilon;
}
// * * * * * * * * * * * * * * * * * * * * * * * * * * * * * * * * * * * * * //

dimensions      [0 2 -3 0 0 0 0];

internalField   nonuniform List<scalar> 
1340
(
6.66106e-10
3.82667e-10
6.85657e-10
3.5997e-10
3.59064e-10
6.85147e-10
6.2467e-11
3.5083e-10
3.4382e-10
6.90754e-10
5.02221e-11
1.68717e-10
6.12858e-11
3.43633e-10
3.31099e-10
7.00115e-10
1.01854e-10
1.40182e-10
4.72541e-11
1.62604e-10
6.00759e-11
3.372e-10
3.20972e-10
7.09677e-10
2.02814e-10
1.56294e-10
1.55988e-10
9.38961e-11
1.32516e-10
4.42356e-11
1.56741e-10
5.89125e-11
3.31722e-10
3.13774e-10
7.18676e-10
2.71445e-10
2.38803e-10
2.02336e-10
1.85606e-10
1.4268e-10
1.44662e-10
8.61478e-11
1.2499e-10
4.12248e-11
1.51248e-10
5.77877e-11
3.27305e-10
3.09253e-10
7.26933e-10
4.39587e-10
3.81192e-10
3.29256e-10
2.83491e-10
2.42218e-10
2.14626e-10
1.82237e-10
1.68938e-10
1.2957e-10
1.33601e-10
7.86724e-11
1.17646e-10
3.82509e-11
1.46063e-10
5.67061e-11
3.23688e-10
3.06752e-10
7.35665e-10
7.1225e-10
6.30975e-10
5.57305e-10
4.90854e-10
4.31153e-10
3.77745e-10
3.30155e-10
2.87369e-10
2.49495e-10
2.14549e-10
1.91578e-10
1.63043e-10
1.52845e-10
1.16981e-10
1.22824e-10
7.14755e-11
1.10462e-10
3.53286e-11
1.41076e-10
5.56861e-11
3.20595e-10
3.05826e-10
7.4344e-10
1.18166e-09
1.07961e-09
9.82851e-10
8.9152e-10
8.05797e-10
7.25793e-10
6.5164e-10
5.83318e-10
5.20674e-10
4.63435e-10
4.11348e-10
3.64153e-10
3.21549e-10
2.83343e-10
2.48607e-10
2.17754e-10
1.88559e-10
1.69773e-10
1.44847e-10
1.37413e-10
1.0497e-10
1.12378e-10
6.45945e-11
1.03448e-10
3.24826e-11
1.36236e-10
5.4721e-11
3.17905e-10
3.06925e-10
7.51147e-10
2.00834e-09
1.90273e-09
1.80103e-09
1.70237e-09
1.60663e-09
1.51364e-09
1.42272e-09
1.33326e-09
1.24535e-09
1.15961e-09
1.07636e-09
9.95651e-10
9.1771e-10
8.42932e-10
7.71732e-10
7.0422e-10
6.40508e-10
5.80695e-10
5.24916e-10
4.73213e-10
4.25508e-10
3.81618e-10
3.41366e-10
3.04603e-10
2.71128e-10
2.40936e-10
2.13169e-10
1.88464e-10
1.6442e-10
1.49365e-10
1.27783e-10
1.22763e-10
9.36237e-11
1.02336e-10
5.80718e-11
9.66319e-11
2.9744e-11
1.31553e-10
5.37876e-11
3.15556e-10
3.09107e-10
7.5877e-10
9.59424e-12
1.28687e-14
0
0
3.02045e-10
8.56639e-06
1.75805e-05
0.00290787
0.0312789
0.120901
0.257066
0.361507
0.357284
0.236157
0.0784062
0.000928073
0.0582838
0.185375
0.248583
0.184832
0.0722584
0.0118022
0.000495558
1.36441e-06
1.4512e-08
0
0
0
1.59202e-12
5.80903e-10
2.92102e-09
2.86323e-09
2.19619e-09
1.92489e-09
1.82248e-09
1.72493e-09
1.62293e-09
1.53004e-09
1.44551e-09
1.3658e-09
1.2897e-09
1.21696e-09
1.14723e-09
1.07981e-09
1.0139e-09
9.49292e-10
8.8634e-10
8.25346e-10
7.66274e-10
7.09145e-10
6.54234e-10
6.01848e-10
5.52068e-10
5.04946e-10
4.60536e-10
4.18938e-10
3.80217e-10
3.4433e-10
3.11133e-10
2.80482e-10
2.52297e-10
2.26415e-10
2.02966e-10
1.81142e-10
1.61735e-10
1.4224e-10
1.3046e-10
1.11944e-10
1.08988e-10
8.29997e-11
9.27517e-11
5.1951e-11
9.00176e-11
2.71337e-11
1.2693e-10
5.29151e-11
3.13401e-10
3.12548e-10
7.66337e-10
1.61952e-09
1.92302e-11
2.65326e-14
0
0
0
3.8601e-06
1.50148e-06
0.000495057
0.0111496
0.0618941
0.164696
0.270564
0.303956
0.231578
0.0996808
0.00767258
0.0252453
0.124007
0.195735
0.163863
0.0725487
0.0140143
0.000808319
1.80022e-06
8.29484e-09
0
0
0
6.55757e-13
2.36839e-10
2.03232e-09
2.21983e-09
1.67597e-09
1.4264e-09
1.33752e-09
1.26044e-09
1.18007e-09
1.10858e-09
1.04494e-09
9.84822e-10
9.27353e-10
8.73026e-10
8.21508e-10
7.71862e-10
7.235e-10
6.7654e-10
6.3123e-10
5.87527e-10
5.4536e-10
5.04854e-10
4.66226e-10
4.29539e-10
3.94802e-10
3.62012e-10
3.31238e-10
3.0253e-10
2.75858e-10
2.51107e-10
2.28136e-10
2.06894e-10
1.87233e-10
1.6937e-10
1.5253e-10
1.37619e-10
1.22083e-10
1.13132e-10
9.73923e-11
9.61615e-11
7.31538e-11
8.36854e-11
4.62513e-11
8.36304e-11
2.46548e-11
1.22419e-10
5.20208e-11
3.11324e-10
3.1609e-10
7.74403e-10
1.73063e-09
1.24144e-09
6.81319e-11
9.919e-14
0
0
0
7.92933e-07
1.9495e-06
3.72944e-05
0.00306988
0.0275343
0.0969493
0.191955
0.248743
0.217893
0.115628
0.0201667
0.00743992
0.0781585
0.150308
0.142652
0.0712949
0.0161794
0.00113843
5.03356e-06
9.78377e-09
0
0
0
1.74555e-13
5.81283e-11
1.33428e-09
1.73217e-09
1.28322e-09
1.05531e-09
9.89599e-10
9.35089e-10
8.68254e-10
8.07165e-10
7.56118e-10
7.10445e-10
6.67415e-10
6.26694e-10
5.88059e-10
5.50993e-10
5.15301e-10
4.811e-10
4.48347e-10
4.16939e-10
3.86874e-10
3.58296e-10
3.31256e-10
3.05727e-10
2.81661e-10
2.59094e-10
2.38048e-10
2.18512e-10
2.00357e-10
1.83471e-10
1.67793e-10
1.53168e-10
1.39884e-10
1.27182e-10
1.16021e-10
1.03908e-10
9.73601e-11
8.41281e-11
8.42938e-11
6.40958e-11
7.51323e-11
4.09877e-11
7.74935e-11
2.23246e-11
1.17807e-10
5.10813e-11
3.09809e-10
3.19813e-10
7.82953e-10
1.25063e-09
1.28428e-09
9.62594e-10
2.03153e-10
3.28349e-13
4.3133e-25
0
0
3.59203e-11
4.56643e-06
5.96329e-07
0.000578777
0.0102779
0.0515775
0.128178
0.195635
0.197662
0.125313
0.0345661
0.000737479
0.0461286
0.11323
0.122588
0.0687975
0.0178576
0.00150125
1.19129e-05
1.84364e-08
0
0
0
2.15699e-14
5.52224e-12
8.07585e-10
1.38258e-09
1.02474e-09
7.6446e-10
7.01709e-10
6.82056e-10
6.43667e-10
5.95302e-10
5.51448e-10
5.14367e-10
4.81424e-10
4.50691e-10
4.21392e-10
3.93429e-10
3.66922e-10
3.41821e-10
3.18005e-10
2.95368e-10
2.73993e-10
2.53906e-10
2.35064e-10
2.17411e-10
2.0092e-10
1.85609e-10
1.71445e-10
1.58333e-10
1.46144e-10
1.34805e-10
1.24168e-10
1.14527e-10
1.05183e-10
9.70745e-11
8.78225e-11
8.32861e-11
7.22484e-11
7.35284e-11
5.58649e-11
6.72414e-11
3.61309e-11
7.17086e-11
1.99912e-11
1.13579e-10
4.97948e-11
3.08249e-10
3.24171e-10
7.94823e-10
1.11468e-09
9.74178e-10
9.25202e-10
8.33081e-10
4.28675e-10
1.10837e-15
3.60689e-18
0
0
0
3.25957e-07
3.90484e-07
4.59799e-05
0.00279219
0.0225881
0.0754479
0.142301
0.171258
0.131328
0.0519788
0.0019671
0.0220651
0.0804124
0.103832
0.0672351
0.0205034
0.0021702
2.53613e-05
1.80823e-09
5.87486e-11
0
0
2.03695e-18
1.12353e-12
3.23088e-10
1.1029e-09
9.98679e-10
6.78197e-10
5.21995e-10
4.77513e-10
4.57113e-10
4.29217e-10
3.96816e-10
3.66944e-10
3.41131e-10
3.17864e-10
2.96062e-10
2.755e-10
2.56241e-10
2.38251e-10
2.21322e-10
2.05487e-10
1.90758e-10
1.77077e-10
1.64383e-10
1.52608e-10
1.41767e-10
1.31797e-10
1.22651e-10
1.14187e-10
1.06314e-10
9.89125e-11
9.2229e-11
8.56423e-11
8.00824e-11
7.32716e-11
7.04179e-11
6.14098e-11
6.3505e-11
4.83356e-11
5.96607e-11
3.17951e-11
6.58379e-11
1.8086e-11
1.08745e-10
4.88669e-11
3.0571e-10
3.28169e-10
8.02263e-10
1.01393e-09
8.60345e-10
7.13999e-10
6.84237e-10
7.24737e-10
4.50652e-10
4.54414e-11
7.10436e-14
3.72101e-22
0
0
4.70466e-14
2.19712e-06
2.71373e-07
0.000228802
0.00423053
0.0234333
0.0649311
0.108307
0.115532
0.0741233
0.019098
0.000991743
0.0308231
0.0658305
0.0615901
0.0290992
0.0062257
0.000460427
1.34837e-06
3.92807e-09
0
0
0
7.01445e-17
4.8488e-13
1.07774e-10
5.12452e-10
5.95197e-10
4.50889e-10
3.45425e-10
3.0449e-10
2.86227e-10
2.67723e-10
2.47211e-10
2.27912e-10
2.10839e-10
1.95423e-10
1.81277e-10
1.68254e-10
1.56167e-10
1.45029e-10
1.34824e-10
1.25512e-10
1.16988e-10
1.09194e-10
1.02125e-10
9.57201e-11
8.99484e-11
8.46665e-11
7.98065e-11
7.52304e-11
7.11575e-11
6.70455e-11
6.37292e-11
5.92569e-11
5.78218e-11
5.09649e-11
5.34835e-11
4.12292e-11
5.16784e-11
2.80719e-11
5.86334e-11
1.6727e-11
9.89048e-11
4.43831e-11
2.78952e-10
2.96157e-10
6.92452e-10
8.65074e-10
7.45235e-10
6.04746e-10
5.56602e-10
5.41925e-10
6.00935e-10
5.45311e-10
3.0331e-10
5.40421e-12
7.53017e-15
2.20305e-24
0
0
9.45668e-09
1.78762e-06
4.72167e-07
0.000141242
0.00277069
0.0158779
0.0451824
0.0762956
0.0803199
0.0485944
0.0100379
0.00188109
0.0256815
0.0455018
0.0363968
0.0146871
0.00269199
0.000157527
2.58227e-06
1.07762e-09
0
0
0
1.16495e-17
2.50133e-13
6.80253e-11
3.31929e-10
3.63716e-10
2.6804e-10
2.06938e-10
1.83696e-10
1.71104e-10
1.57872e-10
1.44269e-10
1.32002e-10
1.21335e-10
1.1189e-10
1.0338e-10
9.57268e-11
8.88539e-11
8.27691e-11
7.7375e-11
7.26008e-11
6.84153e-11
6.47628e-11
6.1628e-11
5.88672e-11
5.64291e-11
5.41618e-11
5.22398e-11
5.02157e-11
4.87772e-11
4.63174e-11
4.61241e-11
4.12065e-11
4.41203e-11
3.44182e-11
4.4339e-11
2.42502e-11
5.27255e-11
1.53083e-11
9.38006e-11
4.46168e-11
2.76599e-10
3.09945e-10
7.03907e-10
7.27771e-10
6.30927e-10
5.09427e-10
4.71295e-10
4.468e-10
4.42738e-10
4.61095e-10
5.00378e-10
3.88375e-10
1.49175e-10
2.4477e-14
4.42179e-17
0
0
0
5.4575e-09
1.52235e-06
4.3723e-07
0.000103157
0.0021708
0.0125584
0.0353751
0.0579721
0.0573731
0.0303993
0.00383435
0.0038065
0.0227678
0.031499
0.0206316
0.00670603
0.000945492
3.3235e-05
2.82295e-07
4.3632e-10
0
0
0
3.66223e-15
5.86129e-13
9.59679e-11
2.30611e-10
1.99978e-10
1.43897e-10
1.17395e-10
1.0642e-10
9.76442e-11
8.83781e-11
7.97588e-11
7.23754e-11
6.60988e-11
6.06822e-11
5.5981e-11
5.1991e-11
4.86256e-11
4.58191e-11
4.35235e-11
4.16942e-11
4.03001e-11
3.92323e-11
3.84391e-11
3.77678e-11
3.73422e-11
3.67953e-11
3.66888e-11
3.56892e-11
3.64037e-11
3.30252e-11
3.61998e-11
2.85547e-11
3.80319e-11
2.07977e-11
4.77253e-11
1.37246e-11
8.99113e-11
4.40153e-11
2.77519e-10
3.20247e-10
7.13973e-10
4.91065e-10
4.71431e-10
4.01284e-10
3.76261e-10
3.60948e-10
3.51882e-10
3.56834e-10
3.80347e-10
3.99208e-10
2.60567e-10
3.66186e-11
5.58373e-14
1.15378e-23
0
0
0
1.8938e-09
1.42335e-06
2.7468e-07
0.000103047
0.00201257
0.0110583
0.0295062
0.0450119
0.039884
0.0169291
0.000651844
0.00604785
0.0195425
0.0207644
0.0107277
0.0026283
0.00025052
3.00365e-06
1.15303e-09
0
0
0
7.21056e-20
7.10202e-14
1.9179e-11
1.24956e-10
1.42944e-10
1.02533e-10
7.60022e-11
6.50558e-11
5.85838e-11
5.23837e-11
4.65545e-11
4.16145e-11
3.75529e-11
3.42135e-11
3.15404e-11
2.94428e-11
2.78505e-11
2.67111e-11
2.59812e-11
2.56287e-11
2.55675e-11
2.57564e-11
2.60519e-11
2.65386e-11
2.69076e-11
2.76177e-11
2.75651e-11
2.88278e-11
2.66004e-11
2.98489e-11
2.38431e-11
3.27996e-11
1.79696e-11
4.34809e-11
1.23793e-11
8.68083e-11
4.31848e-11
2.79864e-10
3.25819e-10
7.23196e-10
3.70595e-10
3.63569e-10
3.14596e-10
2.99116e-10
2.90215e-10
2.82739e-10
2.75565e-10
2.74665e-10
2.84567e-10
3.20691e-10
2.98674e-10
1.61897e-10
1.08309e-13
1.81686e-16
0
0
0
0
2.19094e-09
1.52038e-06
1.34416e-07
0.000131662
0.00213544
0.0105634
0.0256057
0.0348782
0.0261589
0.00774278
9.39892e-05
0.0079434
0.0157774
0.0125525
0.0048174
0.000801007
3.74005e-05
4.46731e-07
1.52193e-10
0
0
0
3.62119e-15
7.37284e-13
4.79529e-11
9.09753e-11
7.1209e-11
4.89286e-11
3.85677e-11
3.335e-11
2.91702e-11
2.54588e-11
2.23986e-11
1.99919e-11
1.81778e-11
1.68859e-11
1.60568e-11
1.56363e-11
1.55713e-11
1.58343e-11
1.63565e-11
1.71035e-11
1.79572e-11
1.89687e-11
1.98774e-11
2.10501e-11
2.15786e-11
2.31235e-11
2.17429e-11
2.49323e-11
2.02254e-11
2.86026e-11
1.5819e-11
3.99708e-11
1.14275e-11
8.43089e-11
4.23539e-11
2.83403e-10
3.26585e-10
7.33959e-10
2.74928e-10
2.68823e-10
2.3324e-10
2.24428e-10
2.20806e-10
2.18113e-10
2.15139e-10
2.12233e-10
2.09564e-10
2.15799e-10
2.33049e-10
2.65049e-10
1.90892e-10
2.33677e-11
3.88197e-14
2.53939e-22
0
0
0
0
7.43104e-09
1.68578e-06
4.70409e-07
0.000203705
0.00253131
0.0107174
0.0225929
0.0262055
0.0154108
0.00232073
0.00131939
0.00890373
0.011514
0.0065717
0.00170557
0.000162336
1.52547e-06
1.90815e-10
0
0
0
1.16875e-19
4.83079e-14
1.19226e-11
4.9282e-11
4.63826e-11
3.07903e-11
2.20344e-11
1.77517e-11
1.48186e-11
1.24917e-11
1.07563e-11
9.56832e-12
8.84558e-12
8.52353e-12
8.55241e-12
8.88999e-12
9.50532e-12
1.03484e-11
1.13855e-11
1.25283e-11
1.38061e-11
1.49975e-11
1.63882e-11
1.72328e-11
1.88573e-11
1.80605e-11
2.10994e-11
1.74034e-11
2.51731e-11
1.41016e-11
3.69568e-11
1.06535e-11
8.21883e-11
4.13106e-11
2.87243e-10
3.20843e-10
7.47724e-10
2.067e-10
2.033e-10
1.77161e-10
1.70302e-10
1.68062e-10
1.67229e-10
1.66429e-10
1.65487e-10
1.64064e-10
1.62407e-10
1.63139e-10
1.7091e-10
1.98637e-10
1.8693e-10
9.77154e-11
1.95234e-12
2.92257e-15
5.49545e-24
0
0
0
0
3.41576e-08
1.62782e-06
3.95961e-06
0.000360735
0.00324776
0.0112235
0.0196578
0.0183142
0.00742785
0.000142873
0.00326538
0.00838205
0.00713573
0.00273367
0.000425298
1.58679e-05
1.46893e-07
2.91446e-10
0
0
0
5.83751e-15
1.09746e-12
1.8381e-11
2.33121e-11
1.5855e-11
1.04336e-11
7.80767e-12
6.18895e-12
5.04223e-12
4.33634e-12
4.04491e-12
4.10881e-12
4.4706e-12
5.08692e-12
5.92976e-12
6.95816e-12
8.14858e-12
9.43297e-12
1.08371e-11
1.21686e-11
1.36402e-11
1.46457e-11
1.6247e-11
1.58435e-11
1.86972e-11
1.57826e-11
2.29728e-11
1.32934e-11
3.49993e-11
1.05169e-11
8.10525e-11
4.00829e-11
2.9207e-10
3.03379e-10
7.77142e-10
1.76542e-10
1.74988e-10
1.51664e-10
1.44306e-10
1.41246e-10
1.39983e-10
1.38851e-10
1.3731e-10
1.35656e-10
1.33686e-10
1.31656e-10
1.29578e-10
1.3317e-10
1.45028e-10
1.6264e-10
1.24936e-10
4.50554e-11
3.79821e-14
6.08022e-17
1.09786e-28
0
0
0
0
9.85173e-08
9.22578e-07
1.86642e-05
0.000663397
0.00428282
0.0116336
0.016092
0.0109885
0.00221004
0.000462325
0.00484014
0.00640818
0.00342917
0.000767647
5.71749e-05
4.72422e-07
9.23325e-09
0
0
0
6.32759e-17
4.52052e-15
7.11622e-12
1.36077e-11
8.65308e-12
4.65227e-12
2.87226e-12
2.07327e-12
1.7437e-12
1.76744e-12
2.08362e-12
2.64505e-12
3.40787e-12
4.34146e-12
5.40275e-12
6.57469e-12
7.80733e-12
9.12726e-12
1.03798e-11
1.17172e-11
1.26351e-11
1.39893e-11
1.36959e-11
1.62078e-11
1.37895e-11
2.02939e-11
1.16778e-11
3.20907e-11
9.22747e-12
7.80699e-11
3.69917e-11
2.91224e-10
2.72515e-10
8.26852e-10
1.65924e-10
1.62047e-10
1.33165e-10
1.22983e-10
1.1769e-10
1.13784e-10
1.10282e-10
1.06915e-10
1.03762e-10
1.00791e-10
9.78908e-11
9.50405e-11
9.23456e-11
9.1086e-11
9.50769e-11
1.04837e-10
1.11332e-10
6.82606e-11
1.20063e-11
4.69534e-19
1.42864e-20
0
0
0
0
0
7.50539e-07
3.64866e-08
7.284e-05
0.0012383
0.0058087
0.0123491
0.0132147
0.00610386
0.000266833
0.00203089
0.00540442
0.00426265
0.00136727
0.000131748
5.37852e-06
1.6717e-08
1.89201e-08
1.5527e-09
6.66024e-15
4.24043e-22
6.40551e-16
5.60104e-14
2.0227e-12
1.34488e-12
5.9373e-13
4.6599e-13
7.25543e-13
1.28332e-12
2.05434e-12
2.97392e-12
4.01376e-12
5.16034e-12
6.38449e-12
7.66891e-12
8.98477e-12
1.03595e-11
1.16687e-11
1.30138e-11
1.39518e-11
1.52343e-11
1.50813e-11
1.74366e-11
1.53629e-11
2.1527e-11
1.33996e-11
3.35258e-11
1.04176e-11
8.10984e-11
3.31769e-11
3.0227e-10
2.24471e-10
1.01281e-09
1.37518e-10
1.29756e-10
9.75979e-11
8.64569e-11
8.04452e-11
7.60544e-11
7.24315e-11
6.93251e-11
6.65279e-11
6.40123e-11
6.1781e-11
5.98835e-11
5.82521e-11
5.66446e-11
5.52595e-11
5.54625e-11
5.8829e-11
6.67223e-11
6.76058e-11
4.21367e-11
5.92523e-12
6.41646e-15
0
0
0
0
0
1.76919e-09
5.78061e-07
1.40142e-07
5.93898e-05
0.000803774
0.00333118
0.0064635
0.00634689
0.00259799
4.66793e-05
0.00104699
0.0023501
0.00169753
0.000567195
9.21555e-05
6.60369e-06
1.52324e-07
3.97204e-10
2.47573e-11
0
8.94721e-19
4.85831e-17
2.39841e-13
3.50815e-13
5.64621e-13
1.09988e-12
1.8158e-12
2.67593e-12
3.60993e-12
4.55567e-12
5.48857e-12
6.39459e-12
7.26252e-12
8.07891e-12
8.87975e-12
9.59883e-12
1.03275e-11
1.06822e-11
1.11827e-11
1.0649e-11
1.21303e-11
1.02103e-11
1.49022e-11
7.92662e-12
2.44678e-11
4.52954e-12
6.45872e-11
2.25075e-11
2.5023e-10
2.23348e-10
9.86006e-10
)
;

boundaryField
{
    inlet
    {
        type            calculated;
        value           nonuniform List<scalar> 
27
(
2.8018e-08
2.80871e-08
2.82182e-08
2.83946e-08
2.85833e-08
2.87797e-08
2.89896e-08
2.92114e-08
2.94442e-08
2.96793e-08
2.99158e-08
3.0149e-08
3.03739e-08
3.05852e-08
3.07767e-08
3.0942e-08
3.1083e-08
3.0783e-08
3.08168e-08
3.07955e-08
3.06887e-08
3.04868e-08
3.01645e-08
2.97106e-08
2.90663e-08
2.84328e-08
2.71705e-08
)
;
    }
    outlet
    {
        type            calculated;
        value           nonuniform List<scalar> 
78
(
1.36166e-10
1.28366e-10
9.6025e-11
8.48387e-11
7.88145e-11
7.4426e-11
7.08094e-11
6.77252e-11
6.49629e-11
6.2495e-11
6.03231e-11
5.8501e-11
5.69574e-11
5.54559e-11
5.41957e-11
5.45288e-11
5.80391e-11
6.61263e-11
6.73004e-11
4.20142e-11
5.86734e-12
6.09055e-15
0
0
0
0
0
1.78482e-09
5.81769e-07
7.73175e-08
5.77325e-05
0.000795943
0.00331824
0.00646392
0.00637647
0.00263466
4.97563e-05
0.00101432
0.00231671
0.00168348
0.000564865
9.2231e-05
6.67466e-06
1.59491e-07
5.49335e-10
4.12112e-11
0
1.08293e-18
6.24664e-17
3.53566e-13
4.80053e-13
3.43561e-13
5.85105e-13
1.06299e-12
1.68653e-12
2.37691e-12
3.07216e-12
3.74464e-12
4.3777e-12
4.96302e-12
5.4883e-12
5.99536e-12
6.41886e-12
6.87667e-12
6.98546e-12
7.33633e-12
6.65924e-12
8.10813e-12
5.98951e-12
1.08605e-11
3.61808e-12
2.06201e-11
2.77214e-13
5.98034e-11
1.80573e-11
2.33573e-10
2.24171e-10
8.83524e-10
)
;
    }
    walls
    {
        type            calculated;
        value           nonuniform List<scalar> 0();
    }
    frontAndBack
    {
        type            empty;
    }
    procBoundary7to3
    {
        type            processor;
        value           nonuniform List<scalar> 
16
(
2.20173e-09
2.45925e-09
1.62605e-09
1.37767e-09
1.25737e-09
1.08394e-09
8.95903e-10
7.36865e-10
5.47957e-10
5.47957e-10
4.23335e-10
3.15171e-10
2.32899e-10
1.96391e-10
1.93006e-10
1.72399e-10
)
;
    }
    procBoundary7to6
    {
        type            processor;
        value           nonuniform List<scalar> 
91
(
6.62589e-10
4.08509e-10
4.08509e-10
3.74363e-10
3.74363e-10
6.34902e-11
6.34902e-11
5.30792e-11
1.74952e-10
1.74952e-10
1.09838e-10
1.47838e-10
1.47838e-10
2.20412e-10
1.70299e-10
1.67494e-10
1.67494e-10
3.02205e-10
2.64081e-10
2.23313e-10
2.23313e-10
5.07029e-10
4.36345e-10
3.74133e-10
3.19608e-10
3.19608e-10
8.61374e-10
7.57222e-10
6.63664e-10
5.80045e-10
5.0559e-10
5.0559e-10
1.5136e-09
1.37428e-09
1.24308e-09
1.12006e-09
1.00541e-09
8.99243e-10
8.01566e-10
8.01566e-10
2.66783e-09
2.52925e-09
2.39372e-09
2.26088e-09
2.13084e-09
2.00345e-09
1.87804e-09
1.75427e-09
1.63273e-09
1.51438e-09
1.39957e-09
1.2885e-09
1.2885e-09
2.34345e-15
0
0
1.65523e-06
1.95647e-06
0.000306992
0.0109531
0.0722588
0.211556
0.376021
0.463954
0.40744
0.231647
0.0543018
0.00468735
0.111887
0.265925
0.310139
0.205701
0.0706825
0.00956304
0.000286956
1.63302e-07
6.98164e-09
0
0
1.39872e-19
3.64005e-12
1.32815e-09
4.31552e-09
3.78097e-09
2.9285e-09
2.6324e-09
2.51019e-09
2.37886e-09
2.24307e-09
2.12021e-09
2.12021e-09
)
;
    }
}


// ************************************************************************* //
