/*--------------------------------*- C++ -*----------------------------------*\
| =========                 |                                                 |
| \\      /  F ield         | OpenFOAM: The Open Source CFD Toolbox           |
|  \\    /   O peration     | Version:  2506                                  |
|   \\  /    A nd           | Website:  www.openfoam.com                      |
|    \\/     M anipulation  |                                                 |
\*---------------------------------------------------------------------------*/
FoamFile
{
    version     2.0;
    format      ascii;
    arch        "LSB;label=32;scalar=64";
    class       volSymmTensorField;
    location    "200";
    object      turbulenceProperties:R;
}
// * * * * * * * * * * * * * * * * * * * * * * * * * * * * * * * * * * * * * //

dimensions      [0 2 -2 0 0 0 0];

internalField   nonuniform List<symmTensor> 
1340
(
(6.81044e-07 1.47234e-08 -2.47238e-20 5.41979e-07 -2.54091e-21 6.4835e-07)
(4.32503e-07 -1.16779e-08 -2.43767e-20 5.33912e-07 -3.07142e-21 4.51988e-07)
(6.91647e-07 1.6256e-08 1.28579e-20 5.49952e-07 1.28118e-21 6.57039e-07)
(4.97011e-07 2.43472e-08 1.30621e-19 4.03054e-07 1.45104e-20 4.75591e-07)
(4.23135e-07 -1.25974e-08 3.25462e-23 5.15557e-07 -1.12969e-22 4.35272e-07)
(6.86755e-07 1.93547e-08 -2.86281e-22 5.515e-07 6.76092e-23 6.59679e-07)
(1.84996e-07 1.07426e-08 -6.64046e-20 2.0927e-07 -7.87693e-21 1.78795e-07)
(4.90174e-07 2.27585e-08 2.13571e-21 3.97545e-07 4.45499e-22 4.70359e-07)
(4.16559e-07 -1.30392e-08 2.91293e-20 5.03376e-07 3.60384e-21 4.24548e-07)
(6.87343e-07 2.08984e-08 -5.84243e-20 5.54725e-07 -6.01962e-21 6.63618e-07)
(1.8261e-07 1.84176e-08 -1.58391e-19 1.6544e-07 -1.83587e-20 1.65777e-07)
(3.40771e-07 2.22541e-08 -8.67139e-20 2.78706e-07 -9.61862e-21 3.22305e-07)
(1.83918e-07 1.06206e-08 2.93093e-20 2.06848e-07 3.4546e-21 1.76851e-07)
(4.85503e-07 2.08748e-08 -4.32577e-20 3.92775e-07 -4.81603e-21 4.65799e-07)
(4.09914e-07 -1.29786e-08 -1.22746e-19 4.93461e-07 -1.51931e-20 4.16003e-07)
(6.91656e-07 2.15764e-08 5.60879e-20 5.5869e-07 5.65106e-21 6.6821e-07)
(2.66404e-07 2.255e-08 2.3424e-20 2.23686e-07 2.69859e-21 2.4166e-07)
(3.1223e-07 2.31825e-08 -6.2607e-21 2.565e-07 -7.44352e-22 2.89723e-07)
(1.77699e-07 1.74778e-08 6.09263e-22 1.6016e-07 -1.11861e-22 1.60555e-07)
(3.35298e-07 2.04003e-08 2.89796e-22 2.72644e-07 -4.37693e-23 3.16621e-07)
(1.82695e-07 1.04833e-08 2.06203e-20 2.04405e-07 2.48167e-21 1.74886e-07)
(4.81255e-07 1.90405e-08 -2.18634e-21 3.8848e-07 -3.39827e-22 4.61701e-07)
(4.04738e-07 -1.2913e-08 7.44829e-23 4.85324e-07 -6.61099e-24 4.08984e-07)
(6.95937e-07 2.21831e-08 -2.11882e-22 5.62729e-07 5.03497e-23 6.72949e-07)
(3.80192e-07 2.51748e-08 -5.27776e-20 3.07711e-07 -6.13727e-21 3.44692e-07)
(3.3314e-07 2.37563e-08 -6.72744e-20 2.72015e-07 -7.65769e-21 3.01307e-07)
(3.31816e-07 2.34928e-08 -8.42296e-20 2.70502e-07 -9.40527e-21 3.03252e-07)
(2.56579e-07 2.09065e-08 -3.42223e-20 2.14105e-07 -3.72152e-21 2.31898e-07)
(3.04395e-07 2.13444e-08 3.80147e-21 2.484e-07 5.59252e-22 2.81855e-07)
(1.72472e-07 1.65105e-08 6.4422e-20 1.5466e-07 7.42433e-21 1.55099e-07)
(3.29811e-07 1.86054e-08 1.3362e-20 2.66826e-07 1.40609e-21 3.11104e-07)
(1.81559e-07 1.0253e-08 -4.62297e-20 2.02016e-07 -5.41145e-21 1.72942e-07)
(4.77408e-07 1.73791e-08 4.14967e-20 3.84861e-07 4.57863e-21 4.58309e-07)
(4.01521e-07 -1.29778e-08 6.92549e-23 4.79188e-07 -4.29631e-23 4.0369e-07)
(6.99513e-07 2.27441e-08 1.0485e-22 5.6665e-07 -2.33472e-23 6.77663e-07)
(4.441e-07 2.25126e-08 -1.24831e-20 3.52367e-07 -1.19615e-21 3.98148e-07)
(4.15422e-07 2.3009e-08 6.20103e-20 3.31372e-07 6.83887e-21 3.73689e-07)
(3.81677e-07 2.28313e-08 7.20728e-21 3.06238e-07 7.15759e-22 3.43468e-07)
(3.64621e-07 2.26687e-08 4.15213e-20 2.934e-07 4.57836e-21 3.29799e-07)
(3.19176e-07 2.15603e-08 1.68548e-22 2.59076e-07 -1.27566e-22 2.87833e-07)
(3.20391e-07 2.13919e-08 3.64839e-22 2.59553e-07 -2.39713e-23 2.9213e-07)
(2.46524e-07 1.92625e-08 2.86788e-20 2.04453e-07 3.22224e-21 2.21993e-07)
(2.96377e-07 1.95222e-08 -3.62159e-21 2.40329e-07 -4.4799e-22 2.73897e-07)
(1.67038e-07 1.55057e-08 -2.99489e-22 1.49019e-07 7.70623e-23 1.49475e-07)
(3.24508e-07 1.68651e-08 -6.11224e-23 2.61342e-07 2.04914e-23 3.05843e-07)
(1.80442e-07 9.93645e-09 1.32793e-22 1.99705e-07 -2.5995e-23 1.71032e-07)
(4.74212e-07 1.58363e-08 -2.2486e-22 3.81923e-07 5.99083e-23 4.5562e-07)
(3.99903e-07 -1.31128e-08 1.06005e-19 4.75058e-07 1.32389e-20 4.0015e-07)
(7.02698e-07 2.30868e-08 2.84619e-20 5.70221e-07 2.90013e-21 6.82044e-07)
(5.70704e-07 1.20825e-08 -3.43694e-20 4.42804e-07 -3.54984e-21 5.06749e-07)
(5.30639e-07 1.48582e-08 2.54335e-20 4.13148e-07 2.8325e-21 4.71893e-07)
(4.92276e-07 1.69177e-08 1.28381e-20 3.8487e-07 1.27716e-21 4.3856e-07)
(4.55853e-07 1.83187e-08 -4.76627e-21 3.58025e-07 -5.65325e-22 4.06963e-07)
(4.20398e-07 1.93748e-08 6.90851e-23 3.31982e-07 -8.15679e-24 3.76093e-07)
(3.94713e-07 2.01094e-08 -2.34649e-22 3.13253e-07 4.4138e-23 3.54282e-07)
(3.63096e-07 2.01911e-08 -2.64288e-23 2.89791e-07 -1.07329e-22 3.25933e-07)
(3.48697e-07 2.0228e-08 -4.52552e-20 2.79044e-07 -5.01419e-21 3.14682e-07)
(3.04972e-07 1.94094e-08 -2.16114e-20 2.4614e-07 -2.26103e-21 2.74226e-07)
(3.08682e-07 1.93213e-08 2.70595e-20 2.48567e-07 3.05022e-21 2.80824e-07)
(2.36312e-07 1.76245e-08 -2.72998e-20 1.94795e-07 -3.12947e-21 2.12003e-07)
(2.88229e-07 1.77207e-08 1.09524e-23 2.3232e-07 -2.80337e-23 2.6588e-07)
(1.61425e-07 1.44725e-08 -5.82621e-20 1.43281e-07 -6.72811e-21 1.4372e-07)
(3.19364e-07 1.51701e-08 -1.20728e-20 2.56139e-07 -1.27745e-21 3.00774e-07)
(1.79305e-07 9.55713e-09 2.39204e-20 1.97508e-07 2.8042e-21 1.69183e-07)
(4.7157e-07 1.43596e-08 -3.76268e-20 3.79487e-07 -4.1614e-21 4.53429e-07)
(3.99399e-07 -1.32697e-08 -8.9476e-20 4.72535e-07 -1.11285e-20 3.98013e-07)
(7.06248e-07 2.31785e-08 -3.63776e-20 5.73852e-07 -3.62483e-21 6.86572e-07)
(7.26415e-07 -1.5775e-08 -3.20432e-20 5.63693e-07 -3.25125e-21 6.4504e-07)
(6.84526e-07 -9.74699e-09 -4.8323e-21 5.29746e-07 -3.67373e-22 6.07122e-07)
(6.43768e-07 -4.31939e-09 -5.01186e-21 4.97418e-07 -5.06936e-22 5.70578e-07)
(6.04282e-07 5.12505e-10 -7.78024e-21 4.66708e-07 -7.54609e-22 5.35481e-07)
(5.66164e-07 4.74546e-09 -1.52553e-21 4.37584e-07 -5.53734e-23 5.01861e-07)
(5.29515e-07 8.34628e-09 2.17431e-20 4.10008e-07 2.33149e-21 4.69747e-07)
(4.94428e-07 1.12853e-08 2.50218e-20 3.83915e-07 2.61711e-21 4.39164e-07)
(4.60563e-07 1.35469e-08 -5.19528e-23 3.58901e-07 -3.40687e-23 4.09708e-07)
(4.28357e-07 1.51721e-08 1.08089e-20 3.35166e-07 1.19135e-21 3.81782e-07)
(3.96409e-07 1.64435e-08 6.9565e-21 3.1171e-07 7.25868e-22 3.53948e-07)
(3.73678e-07 1.73688e-08 -1.61339e-23 2.95185e-07 -2.47702e-23 3.34734e-07)
(3.44206e-07 1.7677e-08 -1.73808e-24 2.73374e-07 8.50746e-24 3.08259e-07)
(3.32407e-07 1.78838e-08 2.6694e-22 2.6465e-07 -2.25176e-24 2.99355e-07)
(2.90511e-07 1.73297e-08 2.0752e-20 2.33209e-07 2.23074e-21 2.60498e-07)
(2.96672e-07 1.7305e-08 -2.57819e-20 2.37549e-07 -2.88707e-21 2.6934e-07)
(2.25922e-07 1.60117e-08 2.59872e-20 1.85134e-07 2.96744e-21 2.01933e-07)
(2.79909e-07 1.59551e-08 8.6555e-25 2.24351e-07 3.07692e-23 2.5778e-07)
(1.55631e-07 1.34254e-08 5.56658e-20 1.3747e-07 6.37177e-21 1.37855e-07)
(3.14263e-07 1.35241e-08 1.16373e-20 2.51124e-07 1.19175e-21 2.95799e-07)
(1.78166e-07 9.12824e-09 -2.27589e-20 1.95467e-07 -2.70171e-21 1.67431e-07)
(4.69279e-07 1.29395e-08 9.30217e-23 3.77396e-07 2.55067e-23 4.51562e-07)
(3.99767e-07 -1.34494e-08 1.52221e-19 4.71284e-07 1.88755e-20 3.9698e-07)
(7.09442e-07 2.30336e-08 1.55854e-22 5.77003e-07 -6.50287e-23 6.90595e-07)
(9.12953e-07 -6.82076e-08 -7.0404e-21 7.48738e-07 -6.92382e-22 8.30861e-07)
(8.76454e-07 -6.03187e-08 -1.60765e-20 7.11865e-07 -1.48146e-21 7.94169e-07)
(8.39678e-07 -5.25779e-08 7.44458e-21 6.75801e-07 7.23094e-22 7.57744e-07)
(8.02727e-07 -4.50429e-08 -1.4032e-20 6.40626e-07 -1.4183e-21 7.21677e-07)
(7.6576e-07 -3.77723e-08 -4.69039e-21 6.0645e-07 -3.40347e-22 6.86103e-07)
(7.28938e-07 -3.08252e-08 1.72203e-20 5.73374e-07 1.73417e-21 6.51151e-07)
(6.92472e-07 -2.42607e-08 1.79378e-21 5.41523e-07 1.22619e-22 6.1699e-07)
(6.56538e-07 -1.81312e-08 1.7317e-22 5.10976e-07 -6.90199e-23 5.83748e-07)
(6.21276e-07 -1.2472e-08 -5.30782e-21 4.81767e-07 -5.65815e-22 5.51511e-07)
(5.86773e-07 -7.3018e-09 -3.89801e-21 4.53875e-07 -3.84678e-22 5.20313e-07)
(5.53134e-07 -2.62997e-09 4.47494e-23 4.27291e-07 4.39622e-24 4.902e-07)
(5.20462e-07 1.53365e-09 5.46963e-24 4.02005e-07 -6.03086e-24 4.61222e-07)
(4.88845e-07 5.14339e-09 -1.27082e-22 3.77983e-07 1.13147e-23 4.334e-07)
(4.58456e-07 8.15814e-09 -4.02092e-21 3.55238e-07 -3.82212e-22 4.06842e-07)
(4.28883e-07 1.05437e-08 3.47927e-23 3.33317e-07 -2.04055e-23 3.81074e-07)
(4.00744e-07 1.23233e-08 -1.0366e-20 3.12556e-07 -1.11299e-21 3.56675e-07)
(3.72238e-07 1.37498e-08 -6.65011e-21 2.91615e-07 -6.97034e-22 3.31809e-07)
(3.52405e-07 1.48177e-08 -1.53796e-23 2.77228e-07 1.51976e-23 3.15126e-07)
(3.25084e-07 1.53167e-08 -1.66437e-24 2.57043e-07 1.09829e-22 2.90521e-07)
(3.15813e-07 1.56636e-08 4.0858e-20 2.50265e-07 4.55679e-21 2.83881e-07)
(2.75841e-07 1.53452e-08 1.06954e-20 2.20327e-07 1.22664e-21 2.46701e-07)
(2.84391e-07 1.53653e-08 4.20751e-20 2.26528e-07 4.63604e-21 2.57713e-07)
(2.15393e-07 1.44424e-08 -2.47779e-20 1.75514e-07 -2.85205e-21 1.91829e-07)
(2.71417e-07 1.4241e-08 1.44836e-23 2.16429e-07 -8.71227e-24 2.49605e-07)
(1.49686e-07 1.23767e-08 -3.79452e-20 1.31629e-07 -4.27175e-21 1.31919e-07)
(3.09154e-07 1.19337e-08 3.19998e-20 2.46256e-07 3.65676e-21 2.90875e-07)
(1.77019e-07 8.65735e-09 5.53383e-20 1.93567e-07 6.44619e-21 1.65768e-07)
(4.67243e-07 1.15738e-08 -3.30621e-24 3.75584e-07 -4.15712e-23 4.49951e-07)
(4.01322e-07 -1.36644e-08 -9.95362e-23 4.71653e-07 2.26457e-23 3.97334e-07)
(7.12657e-07 2.26924e-08 8.18409e-21 5.80047e-07 8.34683e-22 6.94561e-07)
(1.11801e-06 -1.34632e-07 5.95252e-21 1.04827e-06 5.38808e-22 1.08318e-06)
(1.09301e-06 -1.29697e-07 2.25358e-22 1.01553e-06 2.20335e-23 1.05432e-06)
(1.06828e-06 -1.24616e-07 3.69582e-22 9.83137e-07 4.69025e-23 1.02576e-06)
(1.04354e-06 -1.19358e-07 1.7691e-20 9.50899e-07 1.63319e-21 9.97268e-07)
(1.01872e-06 -1.1392e-07 7.95575e-21 9.18825e-07 7.42593e-22 9.68821e-07)
(9.9373e-07 -1.08293e-07 1.25329e-20 8.86911e-07 1.15321e-21 9.40365e-07)
(9.68301e-07 -1.02456e-07 3.91984e-21 8.54993e-07 3.59709e-22 9.11686e-07)
(9.42159e-07 -9.63889e-08 7.14671e-21 8.22884e-07 6.47192e-22 8.8256e-07)
(9.15237e-07 -9.01131e-08 -4.12175e-21 7.90626e-07 -4.79259e-22 8.52964e-07)
(8.87683e-07 -8.3667e-08 -2.47322e-20 7.58414e-07 -2.30141e-21 8.23078e-07)
(8.59542e-07 -7.70916e-08 4.74727e-21 7.26371e-07 4.79229e-22 7.92982e-07)
(8.30779e-07 -7.04162e-08 -6.51819e-21 6.94523e-07 -6.46015e-22 7.62671e-07)
(8.01433e-07 -6.36812e-08 3.19355e-23 6.62955e-07 1.17697e-23 7.3221e-07)
(7.71635e-07 -5.69439e-08 4.45223e-23 6.31828e-07 -2.36403e-23 7.01744e-07)
(7.41558e-07 -5.0267e-08 -9.13358e-24 6.01326e-07 3.68631e-24 6.71451e-07)
(7.11277e-07 -4.37026e-08 4.46436e-23 5.71528e-07 -1.03948e-23 6.41408e-07)
(6.80889e-07 -3.72983e-08 1.56348e-23 5.42513e-07 -1.25523e-23 6.11704e-07)
(6.50512e-07 -3.11078e-08 -5.87415e-23 5.1437e-07 -1.86824e-23 5.82441e-07)
(6.20312e-07 -2.51891e-08 -8.98869e-21 4.87213e-07 -8.35225e-22 5.5376e-07)
(5.90441e-07 -1.95926e-08 1.81795e-20 4.61127e-07 1.88565e-21 5.2578e-07)
(5.61009e-07 -1.43624e-08 -1.50908e-21 4.36146e-07 -2.19074e-22 4.98572e-07)
(5.32078e-07 -9.52066e-09 3.75616e-21 4.1225e-07 3.91979e-22 4.72158e-07)
(5.03717e-07 -5.08537e-09 1.57323e-23 3.89422e-07 -1.81965e-23 4.46562e-07)
(4.76019e-07 -1.07197e-09 -2.40387e-22 3.67656e-07 -8.10524e-23 4.21831e-07)
(4.49047e-07 2.46677e-09 -1.95493e-20 3.46922e-07 -2.1271e-21 3.97974e-07)
(4.23039e-07 5.4805e-09 -1.90815e-20 3.27295e-07 -1.94436e-21 3.75167e-07)
(3.97512e-07 7.91949e-09 1.38245e-20 3.08278e-07 1.51285e-21 3.52869e-07)
(3.73252e-07 9.78836e-09 -1.09588e-20 2.90339e-07 -1.21313e-21 3.31827e-07)
(3.48089e-07 1.13132e-08 6.32649e-21 2.71825e-07 7.04298e-22 3.09837e-07)
(3.31068e-07 1.24768e-08 -4.83188e-23 2.59493e-07 -1.2135e-23 2.95597e-07)
(3.05887e-07 1.31304e-08 -2.34303e-23 2.40903e-07 -2.82035e-23 2.72847e-07)
(2.99038e-07 1.35866e-08 -1.47361e-20 2.35974e-07 -1.65366e-21 2.6836e-07)
(2.61073e-07 1.34741e-08 -2.89839e-20 2.07574e-07 -3.26732e-21 2.32928e-07)
(2.71917e-07 1.35199e-08 -4.01402e-20 2.1556e-07 -4.37152e-21 2.4601e-07)
(2.04791e-07 1.2931e-08 1.07683e-20 1.65991e-07 1.26822e-21 1.8175e-07)
(2.62787e-07 1.25911e-08 5.87888e-21 2.08574e-07 6.9801e-22 2.4138e-07)
(1.4365e-07 1.1338e-08 2.89946e-20 1.2581e-07 3.29967e-21 1.25971e-07)
(3.04058e-07 1.04021e-08 1.99521e-20 2.41539e-07 2.22856e-21 2.86015e-07)
(1.75832e-07 8.15184e-09 -7.21337e-23 1.91769e-07 -9.08995e-24 1.6416e-07)
(4.65432e-07 1.02506e-08 -3.22703e-24 3.74008e-07 -2.03185e-24 4.48554e-07)
(4.03444e-07 -1.38991e-08 -3.94441e-23 4.72917e-07 -1.02717e-23 3.98458e-07)
(7.15904e-07 2.21602e-08 -7.81713e-21 5.82976e-07 -7.83138e-22 6.98448e-07)
(8.88761e-08 -1.08137e-09 -8.43564e-24 9.0244e-08 -3.59026e-25 8.96436e-08)
(4.5805e-09 -2.97075e-12 5.81493e-27 4.58692e-09 -1.16983e-27 4.58405e-09)
(0 -0 0 0 0 0)
(0 -0 -0 0 -0 0)
(4.91721e-07 -8.41469e-09 -8.14017e-24 4.92512e-07 -1.40869e-24 4.92112e-07)
(0.000442948 -0.000205416 4.90758e-19 0.000472245 3.35609e-20 0.000457745)
(0.00104788 0.00052811 1.16202e-18 0.00155874 1.73698e-19 0.00130431)
(0.0306181 0.0147743 -4.72912e-18 0.036213 -3.5926e-19 0.0334144)
(0.153173 0.073423 3.03766e-18 0.177669 -2.05532e-19 0.165408)
(0.389587 0.186712 2.62115e-17 0.451622 2.38215e-18 0.4206)
(0.668425 0.320951 6.30075e-18 0.779034 9.38159e-19 0.723749)
(0.87894 0.423257 2.24809e-17 1.03314 2.62379e-18 0.956063)
(0.93034 0.449746 -3.60892e-17 1.10649 -1.4286e-18 1.01843)
(0.78043 0.379449 -1.15355e-16 0.945377 -1.17033e-17 0.862916)
(0.448665 0.22074 3.68995e-17 0.567078 -1.79009e-18 0.507871)
(0.0329321 0.0105224 2.3616e-16 0.078391 2.17112e-17 0.0556566)
(0.458491 -0.197358 3.21868e-17 0.422324 6.79586e-18 0.440417)
(0.821556 -0.342612 -4.65063e-17 0.718343 -4.13698e-18 0.769949)
(0.909424 -0.374086 6.88474e-18 0.778472 -9.35823e-19 0.843921)
(0.704353 -0.287125 6.40377e-17 0.594796 6.35013e-18 0.649544)
(0.358742 -0.145263 -2.30882e-17 0.299961 -2.52883e-18 0.329342)
(0.100628 -0.0405806 3.88394e-17 0.0836391 4.06951e-18 0.0921333)
(0.0108039 -0.0043782 -1.61555e-17 0.00904396 -1.53286e-18 0.00992386)
(0.00015272 -6.7035e-05 1.42997e-18 0.000145612 1.06275e-19 0.000149219)
(4.41988e-06 -1.11683e-06 2.22132e-19 1.09483e-05 2.34371e-20 7.71018e-06)
(0 -0 0 0 0 0)
(0 -0 0 0 0 0)
(0 -0 0 0 0 0)
(4.27496e-08 -1.68109e-10 -4.28128e-25 4.27281e-08 -1.09568e-27 4.27389e-08)
(6.00819e-07 -3.64733e-08 5.00276e-22 5.96622e-07 5.1081e-23 5.98725e-07)
(1.31992e-06 -1.78686e-07 -5.85594e-21 1.29697e-06 -4.81871e-22 1.30847e-06)
(1.31167e-06 -1.8324e-07 -9.10095e-21 1.28258e-06 -8.72283e-22 1.29714e-06)
(1.14738e-06 -1.46827e-07 7.14387e-22 1.11863e-06 4.22354e-23 1.13302e-06)
(1.07612e-06 -1.33716e-07 -3.14513e-21 1.04427e-06 -3.04365e-22 1.06022e-06)
(1.05049e-06 -1.3071e-07 6.74889e-21 1.01301e-06 6.17378e-22 1.03177e-06)
(1.02556e-06 -1.27203e-07 -2.11305e-21 9.82114e-07 -1.66912e-22 1.00386e-06)
(9.9836e-07 -1.22679e-07 -5.90248e-21 9.49039e-07 -5.46542e-22 9.73728e-07)
(9.73095e-07 -1.18235e-07 -5.28317e-21 9.17731e-07 -5.04305e-22 9.45444e-07)
(9.49704e-07 -1.13923e-07 4.87716e-21 8.88136e-07 4.5166e-22 9.18954e-07)
(9.27125e-07 -1.09564e-07 1.87227e-25 8.59323e-07 -2.31659e-24 8.93257e-07)
(9.0498e-07 -1.05111e-07 -1.03369e-23 8.30977e-07 1.2924e-23 8.68011e-07)
(8.83205e-07 -1.00565e-07 -6.30436e-24 8.03092e-07 9.16056e-24 8.43178e-07)
(8.61672e-07 -9.59038e-08 -8.63947e-24 7.75606e-07 6.33266e-24 8.18669e-07)
(8.401e-07 -9.10911e-08 -4.62418e-24 7.48339e-07 2.54997e-24 7.94247e-07)
(8.18163e-07 -8.60915e-08 -2.43023e-22 7.21043e-07 -2.80977e-23 7.69632e-07)
(7.95704e-07 -8.0904e-08 -6.66844e-21 6.93655e-07 -6.37347e-22 7.44705e-07)
(7.72812e-07 -7.55548e-08 4.35257e-23 6.66319e-07 4.25209e-23 7.1959e-07)
(7.49563e-07 -7.0075e-08 1.88153e-20 6.39171e-07 1.81597e-21 6.94389e-07)
(7.25897e-07 -6.44822e-08 2.39136e-23 6.1222e-07 -3.92553e-23 6.69078e-07)
(7.01785e-07 -5.87994e-08 4.77098e-21 5.85488e-07 4.58012e-22 6.43653e-07)
(6.77322e-07 -5.30697e-08 -1.21653e-21 5.59112e-07 -1.21674e-22 6.1823e-07)
(6.52646e-07 -4.73443e-08 8.14547e-21 5.33255e-07 8.17862e-22 5.92962e-07)
(6.27811e-07 -4.16654e-08 6.01961e-24 5.0799e-07 -2.70752e-23 5.67909e-07)
(6.02871e-07 -3.60731e-08 2.03115e-24 4.83377e-07 -8.66659e-24 5.4313e-07)
(5.779e-07 -3.06115e-08 6.62844e-24 4.59482e-07 3.3155e-23 5.18695e-07)
(5.5302e-07 -2.53332e-08 8.59789e-21 4.36405e-07 7.98955e-22 4.94714e-07)
(5.28361e-07 -2.02872e-08 -1.90684e-20 4.14233e-07 -1.9468e-21 4.71296e-07)
(5.04008e-07 -1.55171e-08 4.81932e-21 3.93e-07 5.57986e-22 4.48502e-07)
(4.79991e-07 -1.10504e-08 -2.72074e-23 3.72681e-07 -5.13553e-24 4.26333e-07)
(4.56341e-07 -6.90653e-09 7.04668e-23 3.53243e-07 -4.97034e-23 4.04787e-07)
(4.33139e-07 -3.10542e-09 -1.07711e-20 3.34688e-07 -1.13962e-21 3.8391e-07)
(4.1041e-07 2.97736e-10 1.16306e-22 3.16971e-07 1.60178e-23 3.63682e-07)
(3.88447e-07 3.24624e-09 3.60191e-21 3.00229e-07 3.38056e-22 3.44341e-07)
(3.66695e-07 5.6763e-09 -9.02617e-23 2.8392e-07 1.20247e-23 3.25281e-07)
(3.46094e-07 7.57686e-09 9.41559e-23 2.68636e-07 -2.90286e-23 3.07402e-07)
(3.24147e-07 9.14719e-09 -6.05228e-21 2.52448e-07 -6.87439e-22 2.88175e-07)
(3.09827e-07 1.03623e-08 -1.38857e-20 2.42081e-07 -1.52035e-21 2.76275e-07)
(2.86759e-07 1.11335e-08 -9.05923e-21 2.25049e-07 -9.46902e-22 2.55352e-07)
(2.82206e-07 1.16698e-08 4.5221e-21 2.2186e-07 5.60697e-22 2.52895e-07)
(2.463e-07 1.17316e-08 2.15394e-20 1.95016e-07 2.38592e-21 2.19255e-07)
(2.5932e-07 1.17845e-08 1.93318e-20 2.04692e-07 2.06362e-21 2.34284e-07)
(1.94199e-07 1.14922e-08 -2.73028e-23 1.56631e-07 -6.92396e-23 1.71772e-07)
(2.54027e-07 1.10163e-08 -2.56463e-20 2.00786e-07 -2.87216e-21 2.33104e-07)
(1.37563e-07 1.03222e-08 -5.52681e-23 1.20064e-07 2.60587e-23 1.20053e-07)
(2.98877e-07 8.92926e-09 -1.92718e-20 2.36881e-07 -2.09086e-21 2.81112e-07)
(1.74641e-07 7.62546e-09 1.47128e-20 1.90131e-07 1.74653e-21 1.62658e-07)
(4.63756e-07 8.94964e-09 -7.85941e-23 3.72573e-07 -8.14281e-24 4.47259e-07)
(4.06229e-07 -1.41376e-08 -6.07668e-20 4.75214e-07 -7.52801e-21 4.00453e-07)
(7.19232e-07 2.14413e-08 7.44747e-21 5.8579e-07 7.61299e-22 7.02245e-07)
(9.20729e-07 -1.21473e-07 -1.06746e-24 1.02261e-06 -3.38608e-23 9.78534e-07)
(1.19701e-07 -2.25793e-09 2.94337e-23 1.2221e-07 2.49078e-24 1.211e-07)
(6.24249e-09 -6.03291e-12 5.06715e-26 6.25602e-09 8.40419e-27 6.24917e-09)
(0 -0 -0 0 -0 0)
(0 -0 -0 0 -0 0)
(0 -0 0 0 -0 0)
(0.000188319 -8.54018e-05 8.87835e-23 0.000191423 -2.52869e-21 0.000189858)
(0.000185645 -9.35651e-05 4.56722e-19 0.000276135 4.82799e-20 0.000231094)
(0.00963393 0.00469608 -2.13255e-18 0.0117693 -2.24553e-19 0.0107029)
(0.0781622 0.0375673 1.43374e-17 0.0913665 1.31133e-18 0.084758)
(0.252916 0.121329 -8.22633e-18 0.294009 -3.54891e-19 0.27345)
(0.503459 0.241805 2.0451e-19 0.587229 -6.93855e-19 0.54535)
(0.732335 0.352597 4.96027e-17 0.860372 4.58911e-18 0.796373)
(0.83944 0.40553 -1.91539e-18 0.996301 1.21761e-18 0.917887)
(0.764808 0.371238 -5.72469e-17 0.921449 -5.16826e-18 0.843139)
(0.50731 0.248383 -8.20925e-19 0.629536 1.64359e-19 0.568423)
(0.129644 0.0652674 -6.51572e-17 0.189225 -7.33651e-18 0.159429)
(0.297132 -0.12988 7.21636e-17 0.281193 5.26406e-18 0.289168)
(0.671843 -0.280613 4.73571e-17 0.588879 4.96602e-18 0.630362)
(0.812898 -0.334291 3.12714e-17 0.695561 2.32277e-18 0.754207)
(0.674806 -0.274844 8.51548e-17 0.569117 1.00104e-17 0.621933)
(0.371743 -0.150324 -1.12642e-16 0.310218 -1.10735e-17 0.34097)
(0.116818 -0.0469962 5.54542e-17 0.0967583 5.23537e-18 0.106787)
(0.0159562 -0.00642309 -2.04999e-17 0.0132279 -1.74357e-18 0.0145916)
(0.000162645 -6.85478e-05 9.22669e-22 0.000144642 -9.50577e-21 0.000153669)
(3.01829e-06 -6.64995e-08 6.27565e-23 7.92119e-06 8.74067e-22 5.48948e-06)
(0 -0 -0 0 -0 0)
(0 -0 -0 0 -0 0)
(0 -0 0 0 0 0)
(2.84703e-08 -8.30306e-11 -3.6631e-25 2.84565e-08 -3.45545e-26 2.84634e-08)
(3.9325e-07 -1.78213e-08 3.79854e-23 3.90577e-07 3.62574e-25 3.91916e-07)
(1.10166e-06 -1.42959e-07 4.15946e-21 1.07868e-06 3.92857e-22 1.09019e-06)
(1.15857e-06 -1.63897e-07 1.24611e-24 1.12729e-06 -5.34478e-25 1.14295e-06)
(1.00474e-06 -1.29671e-07 5.68791e-21 9.75335e-07 5.53752e-22 9.90063e-07)
(9.28024e-07 -1.15095e-07 -4.89094e-21 8.97323e-07 -4.4642e-22 9.12702e-07)
(9.01354e-07 -1.11721e-07 1.30128e-21 8.66381e-07 1.09071e-22 8.83903e-07)
(8.77948e-07 -1.0846e-07 -1.05574e-24 8.38234e-07 -1.0307e-23 8.58129e-07)
(8.5245e-07 -1.04267e-07 6.50211e-21 8.08084e-07 6.18276e-22 8.30304e-07)
(8.29334e-07 -1.00298e-07 -1.78182e-21 7.80105e-07 -1.58256e-22 8.04758e-07)
(8.08427e-07 -9.65676e-08 2.30556e-21 7.54143e-07 2.16595e-22 7.81319e-07)
(7.88171e-07 -9.27647e-08 1.20937e-21 7.28793e-07 1.28373e-22 7.58514e-07)
(7.68231e-07 -8.88448e-08 -1.86676e-24 7.03805e-07 1.17679e-23 7.36046e-07)
(7.48845e-07 -8.48673e-08 6.57133e-21 6.79423e-07 6.40786e-22 7.14159e-07)
(7.29903e-07 -8.08221e-08 -1.35055e-24 6.55587e-07 -1.9232e-24 6.92768e-07)
(7.10999e-07 -7.66543e-08 2.20261e-22 6.31978e-07 3.81823e-23 6.7151e-07)
(6.91839e-07 -7.23307e-08 4.78541e-21 6.08388e-07 4.61936e-22 6.50133e-07)
(6.72436e-07 -6.78627e-08 8.02369e-24 5.84889e-07 -3.086e-23 6.2868e-07)
(6.52877e-07 -6.32753e-08 -3.19066e-23 5.61619e-07 3.86317e-23 6.07263e-07)
(6.33115e-07 -5.85785e-08 1.00383e-20 5.38587e-07 9.86785e-22 5.85864e-07)
(6.13087e-07 -5.37843e-08 -4.53065e-21 5.15789e-07 -4.75192e-22 5.64448e-07)
(5.92835e-07 -4.89204e-08 9.88341e-24 4.93312e-07 -2.71067e-23 5.43081e-07)
(5.72471e-07 -4.40269e-08 -7.78898e-21 4.71299e-07 -7.65786e-22 5.21891e-07)
(5.52039e-07 -3.91386e-08 5.1247e-24 4.49825e-07 2.25655e-23 5.00935e-07)
(5.31566e-07 -3.42869e-08 1.74042e-24 4.28935e-07 1.65901e-23 4.80253e-07)
(5.11081e-07 -2.95065e-08 7.96271e-21 4.08669e-07 8.21246e-22 4.59876e-07)
(4.90677e-07 -2.48414e-08 1.04205e-21 3.89114e-07 1.05298e-22 4.39894e-07)
(4.70453e-07 -2.03389e-08 1.66734e-21 3.7035e-07 1.36129e-22 4.20398e-07)
(4.50474e-07 -1.60385e-08 -3.18477e-21 3.5241e-07 -3.66476e-22 4.01438e-07)
(4.30749e-07 -1.19704e-08 -8.61354e-21 3.3527e-07 -8.10197e-22 3.83005e-07)
(4.11266e-07 -8.15242e-09 2.56501e-20 3.18875e-07 2.76232e-21 3.65064e-07)
(3.92089e-07 -4.60849e-09 1.04939e-20 3.03228e-07 1.07687e-21 3.47654e-07)
(3.73196e-07 -1.38945e-09 1.77441e-20 2.88263e-07 1.89517e-21 3.30718e-07)
(3.54932e-07 1.44165e-09 2.05423e-20 2.74172e-07 2.12322e-21 3.14556e-07)
(3.36661e-07 3.81002e-09 -1.59107e-20 2.60367e-07 -1.71009e-21 2.98485e-07)
(3.19482e-07 5.69305e-09 2.20088e-20 2.47567e-07 2.41068e-21 2.83564e-07)
(3.00595e-07 7.26174e-09 -5.69921e-21 2.33594e-07 -6.82644e-22 2.66969e-07)
(2.88846e-07 8.48708e-09 -1.17953e-23 2.25089e-07 2.82565e-23 2.57289e-07)
(2.67844e-07 9.33923e-09 4.7646e-21 2.09568e-07 5.02954e-22 2.38152e-07)
(2.65442e-07 9.92898e-09 -3.98739e-21 2.08e-07 -4.14436e-22 2.37583e-07)
(2.31639e-07 1.01339e-08 1.69196e-20 1.82732e-07 1.9264e-21 2.05784e-07)
(2.46694e-07 1.01725e-08 1.28707e-20 1.93985e-07 1.42227e-21 2.22612e-07)
(1.83676e-07 1.01409e-08 -2.15804e-24 1.47479e-07 1.96381e-24 1.61948e-07)
(2.45177e-07 9.52424e-09 1.64982e-20 1.93083e-07 1.83688e-21 2.24803e-07)
(1.31432e-07 9.34816e-09 3.70971e-24 1.14397e-07 -8.63047e-23 1.14187e-07)
(2.93689e-07 7.50923e-09 -5.5776e-20 2.32318e-07 -6.28327e-21 2.76214e-07)
(1.73291e-07 7.09945e-09 -1.40591e-20 1.88517e-07 -1.61819e-21 1.61146e-07)
(4.62174e-07 7.65292e-09 -3.6012e-20 3.71192e-07 -3.9146e-21 4.4596e-07)
(4.08891e-07 -1.43383e-08 6.1222e-20 4.77675e-07 7.59234e-21 4.02573e-07)
(7.22959e-07 2.05489e-08 -7.10926e-21 5.88683e-07 -7.16976e-22 7.06165e-07)
(9.60191e-07 -1.37125e-07 -3.17341e-25 1.05377e-06 1.13821e-23 1.01324e-06)
(8.10066e-07 -1.05797e-07 1.44015e-24 8.91302e-07 9.39742e-24 8.55533e-07)
(2.08274e-07 -7.56055e-09 -3.85441e-23 2.16717e-07 -5.06391e-24 2.12438e-07)
(1.11177e-08 -2.30539e-11 2.59805e-25 1.11593e-08 2.01973e-26 1.1138e-08)
(0 -0 0 0 0 0)
(0 -0 -0 0 -0 0)
(0 -0 0 0 0 0)
(4.30787e-05 -1.90138e-05 8.27516e-23 4.29566e-05 1.6223e-22 4.30079e-05)
(0.00012413 -5.72273e-05 -8.01412e-23 0.000130728 2.32112e-22 0.000127443)
(0.00183561 0.000916265 9.44804e-21 0.00248179 4.04138e-21 0.00215967)
(0.0335923 0.016214 -2.04982e-20 0.0397648 -8.53498e-20 0.0366771)
(0.149199 0.0716722 1.13202e-17 0.174136 1.10983e-18 0.161656)
(0.357712 0.171877 1.89417e-19 0.417749 2.08538e-19 0.387726)
(0.58812 0.283142 -1.20807e-18 0.690796 -5.6166e-19 0.639472)
(0.738047 0.356362 3.63738e-17 0.87457 3.66438e-18 0.806324)
(0.730857 0.354311 2.92057e-18 0.876984 6.10218e-19 0.80393)
(0.544946 0.265925 2.78514e-17 0.668332 1.95368e-18 0.60664)
(0.22181 0.110216 5.24755e-17 0.292846 5.41067e-18 0.257325)
(0.155524 -0.0704396 3.6481e-20 0.157571 1.04939e-18 0.156553)
(0.532591 -0.223031 -3.41388e-17 0.468752 -2.6729e-18 0.50068)
(0.716748 -0.294774 -3.85119e-17 0.613359 -5.76291e-18 0.665046)
(0.639527 -0.260352 1.4796e-16 0.538979 1.51803e-17 0.589237)
(0.379989 -0.153551 -1.08247e-16 0.316774 -9.39916e-18 0.348375)
(0.133252 -0.0535519 3.33559e-19 0.110204 -3.58511e-19 0.121729)
(0.0206476 -0.00828898 -5.5398e-18 0.0170499 -5.13766e-19 0.0188486)
(0.000365688 -0.000151052 -4.41294e-22 0.000315022 -2.0008e-21 0.000340385)
(4.36751e-06 -4.8736e-07 -4.65645e-20 1.13929e-05 -4.504e-21 7.90359e-06)
(0 -0 -0 0 0 0)
(0 -0 -0 0 -0 0)
(0 -0 -0 0 -0 0)
(1.56045e-08 -2.79374e-11 1.66645e-28 1.55984e-08 -5.71657e-28 1.56014e-08)
(2.05126e-07 -5.57599e-09 -3.47758e-24 2.04104e-07 -2.16187e-25 2.04615e-07)
(8.92272e-07 -1.08423e-07 -7.27757e-22 8.72409e-07 -4.73846e-23 8.82337e-07)
(1.02613e-06 -1.47108e-07 -9.22865e-21 9.94673e-07 -9.09743e-22 1.01039e-06)
(8.80954e-07 -1.14278e-07 5.10215e-21 8.52037e-07 4.71597e-22 8.66498e-07)
(7.9943e-07 -9.84664e-08 -1.21577e-21 7.70534e-07 -1.0427e-22 7.84999e-07)
(7.76486e-07 -9.59784e-08 7.60877e-25 7.44068e-07 -5.48639e-24 7.60306e-07)
(7.5737e-07 -9.36843e-08 -1.42379e-21 7.20949e-07 -1.31049e-22 7.39197e-07)
(7.3221e-07 -8.95073e-08 -2.73653e-21 6.92219e-07 -2.66796e-22 7.12256e-07)
(7.08486e-07 -8.53733e-08 -3.58498e-25 6.64826e-07 -3.07748e-24 6.86698e-07)
(6.88422e-07 -8.18495e-08 -3.45714e-24 6.40744e-07 1.15742e-23 6.64625e-07)
(6.7014e-07 -7.85209e-08 4.04662e-21 6.18272e-07 3.99217e-22 6.44248e-07)
(6.52421e-07 -7.51228e-08 -5.14228e-21 5.96373e-07 -4.9308e-22 6.24437e-07)
(6.35135e-07 -7.16388e-08 -1.25722e-21 5.74965e-07 -1.18111e-22 6.05089e-07)
(6.18206e-07 -6.8081e-08 -1.87386e-24 5.54001e-07 6.57988e-24 5.86142e-07)
(6.01378e-07 -6.44253e-08 -3.39195e-24 5.33287e-07 3.85377e-24 5.67369e-07)
(5.84536e-07 -6.06574e-08 6.57469e-24 5.12766e-07 -1.84768e-23 5.48685e-07)
(5.67728e-07 -5.67894e-08 -7.46625e-24 4.92539e-07 -1.49207e-23 5.30165e-07)
(5.50922e-07 -5.28258e-08 -9.57668e-21 4.72619e-07 -9.10973e-22 5.118e-07)
(5.34048e-07 -4.87727e-08 1.17844e-20 4.52995e-07 1.20088e-21 4.93547e-07)
(5.17095e-07 -4.46425e-08 1.11494e-21 4.33698e-07 7.44702e-23 4.75419e-07)
(5.00151e-07 -4.04661e-08 6.96096e-24 4.14852e-07 -2.75734e-24 4.57523e-07)
(4.83262e-07 -3.62727e-08 6.91563e-24 3.9654e-07 -2.81061e-24 4.39919e-07)
(4.66434e-07 -3.20842e-08 1.48218e-24 3.78788e-07 -3.12057e-23 4.22627e-07)
(4.49658e-07 -2.79269e-08 -7.64266e-21 3.61616e-07 -7.65364e-22 4.05651e-07)
(4.33002e-07 -2.38371e-08 -1.0063e-21 3.45095e-07 -7.31183e-23 3.8906e-07)
(4.16535e-07 -1.98545e-08 4.84569e-22 3.29292e-07 7.45801e-23 3.72922e-07)
(4.00317e-07 -1.60188e-08 8.71313e-21 3.14252e-07 9.17031e-22 3.57292e-07)
(3.84316e-07 -1.23555e-08 3.26052e-21 2.99926e-07 2.04834e-22 3.42126e-07)
(3.68509e-07 -8.88359e-09 -3.48452e-20 2.86265e-07 -3.67262e-21 3.27389e-07)
(3.5292e-07 -5.62618e-09 -6.14389e-21 2.73251e-07 -5.44164e-22 3.1309e-07)
(3.37476e-07 -2.62648e-09 6.98825e-21 2.60789e-07 6.82305e-22 2.99127e-07)
(3.22584e-07 4.44709e-11 -3.36778e-20 2.49136e-07 -3.57261e-21 2.85872e-07)
(3.07518e-07 2.31134e-09 1.19603e-20 2.37651e-07 1.34533e-21 2.72559e-07)
(2.93498e-07 4.13108e-09 -6.08992e-21 2.27151e-07 -6.49895e-22 2.6037e-07)
(2.7753e-07 5.66102e-09 6.48189e-21 2.15298e-07 6.68484e-22 2.46292e-07)
(2.68203e-07 6.85578e-09 -2.01644e-20 2.08548e-07 -2.20685e-21 2.387e-07)
(2.49228e-07 7.7588e-09 7.43504e-21 1.94507e-07 8.78761e-22 2.21319e-07)
(2.48809e-07 8.37064e-09 3.8061e-21 1.94423e-07 4.03158e-22 2.22475e-07)
(2.1716e-07 8.69455e-09 3.33559e-21 1.70763e-07 3.60762e-22 1.9257e-07)
(2.34051e-07 8.69232e-09 -1.44113e-20 1.83433e-07 -1.59768e-21 2.10998e-07)
(1.73283e-07 8.89537e-09 -2.07275e-24 1.3858e-07 1.00952e-24 1.52335e-07)
(2.36283e-07 8.11245e-09 -1.57067e-20 1.85482e-07 -1.73882e-21 2.16506e-07)
(1.25306e-07 8.44e-09 -8.70207e-24 1.08848e-07 1.06653e-22 1.08425e-07)
(2.88257e-07 6.12477e-09 7.0621e-20 2.27639e-07 7.84832e-21 2.71069e-07)
(1.71736e-07 6.61701e-09 -1.91478e-23 1.86879e-07 -3.89532e-23 1.59595e-07)
(4.61061e-07 6.32756e-09 3.44279e-20 3.70148e-07 3.69978e-21 4.45e-07)
(4.11462e-07 -1.44554e-08 -7.43212e-20 4.80382e-07 -9.19962e-21 4.04867e-07)
(7.27072e-07 1.94903e-08 5.9129e-23 5.91653e-07 4.23289e-24 7.10196e-07)
(8.22934e-07 -1.05943e-07 -2.08097e-25 8.839e-07 -9.02145e-24 8.57653e-07)
(8.30047e-07 -1.15995e-07 4.44765e-25 9.0356e-07 -2.16079e-23 8.71489e-07)
(7.13216e-07 -9.2048e-08 1.09623e-21 7.87819e-07 1.20189e-22 7.5014e-07)
(3.3987e-07 -2.23664e-08 -2.34108e-22 3.61129e-07 -1.7745e-23 3.50252e-07)
(1.88316e-08 -7.71354e-11 -3.14177e-28 1.89351e-08 -3.01682e-26 1.88835e-08)
(9.59498e-14 -2.0557e-21 2.81704e-35 9.59498e-14 4.01772e-36 9.59498e-14)
(0 -0 -0 0 -0 0)
(0 -0 0 0 -0 0)
(1.86372e-07 -1.46827e-09 5.70476e-29 1.86345e-07 4.75242e-27 1.86358e-07)
(0.00024759 -0.000110909 -2.8461e-23 0.000245403 3.7148e-22 0.000246509)
(0.000115087 -5.15573e-05 -3.43429e-22 0.000233409 6.96878e-21 0.000174675)