/*--------------------------------*- C++ -*----------------------------------*\
| =========                 |                                                 |
| \\      /  F ield         | OpenFOAM: The Open Source CFD Toolbox           |
|  \\    /   O peration     | Version:  2506                                  |
|   \\  /    A nd           | Website:  www.openfoam.com                      |
|    \\/     M anipulation  |                                                 |
\*---------------------------------------------------------------------------*/
FoamFile
{
    version     2.0;
    format      ascii;
    arch        "LSB;label=32;scalar=64";
    class       volVectorField;
    location    "200";
    object      U;
}
// * * * * * * * * * * * * * * * * * * * * * * * * * * * * * * * * * * * * * //

dimensions      [0 1 -1 0 0 0 0];

internalField   nonuniform List<vector> 
1340
(
(26.059 2.657 1.03884e-16)
(25.8623 3.23027 1.53544e-17)
(26.0491 2.65432 -5.64122e-17)
(25.9533 2.87235 -4.37882e-16)
(25.8663 3.2284 2.56408e-19)
(26.041 2.65076 -4.75073e-19)
(25.9254 3.06701 1.5338e-16)
(25.9477 2.86537 -4.41068e-18)
(25.8688 3.22657 -2.19594e-17)
(26.0343 2.64663 2.62691e-16)
(25.9655 2.99213 5.22216e-16)
(25.9577 2.93367 3.00571e-16)
(25.9234 3.06327 -7.07192e-17)
(25.9419 2.85862 1.55684e-16)
(25.8709 3.22454 9.78795e-17)
(26.0274 2.6423 -2.63302e-16)
(25.9996 2.94609 -9.03094e-17)
(25.9834 2.93718 2.41239e-17)
(25.9602 2.98663 -7.98523e-18)
(25.9519 2.9266 -3.62534e-18)
(25.9211 3.05936 -5.07397e-17)
(25.9358 2.85219 1.03179e-17)
(25.8725 3.22225 3.88748e-19)
(26.0202 2.6378 -5.13493e-19)
(26.0454 2.89098 2.46856e-16)
(26.0278 2.90782 3.02463e-16)
(26.0108 2.91534 3.60843e-16)
(25.9916 2.93962 1.38691e-16)
(25.9761 2.93012 -1.49128e-17)
(25.9546 2.98116 -2.23613e-16)
(25.9458 2.9198 -5.09005e-17)
(25.9185 3.05529 1.14035e-16)
(25.9295 2.84604 -1.48537e-16)
(25.8735 3.21975 -3.98958e-19)
(26.0129 2.6331 -5.19045e-19)
(26.0803 2.83979 6.64136e-17)
(26.0638 2.85668 -3.02862e-16)
(26.0489 2.87151 -3.42939e-17)
(26.0334 2.88415 -1.92169e-16)
(26.017 2.90118 -4.41715e-18)
(26.0011 2.90848 -7.76232e-18)
(25.9832 2.93338 -1.13761e-16)
(25.9684 2.92336 1.40094e-17)
(25.9486 2.97576 -8.98248e-19)
(25.9395 2.9133 -2.37433e-18)
(25.9154 3.05111 -2.78805e-18)
(25.9231 2.84019 6.1462e-18)
(25.8739 3.21707 -9.73041e-17)
(26.0057 2.62823 -1.41417e-16)
(26.1256 2.74521 1.85227e-16)
(26.1116 2.76919 -1.43423e-16)
(26.0965 2.79205 -6.86363e-17)
(26.0806 2.81374 2.31466e-17)
(26.0641 2.83429 -5.82542e-20)
(26.0491 2.85081 8.48235e-18)
(26.0354 2.86549 9.20595e-19)
(26.0211 2.87789 2.06233e-16)
(26.0059 2.895 8.90467e-17)
(25.991 2.90203 -1.21473e-16)
(25.9744 2.92743 1.1148e-16)
(25.9603 2.91694 -4.58858e-19)
(25.9423 2.97047 1.97352e-16)
(25.9328 2.90712 4.11525e-17)
(25.9119 3.04684 -6.37219e-17)
(25.9165 2.83463 1.46684e-16)
(25.8737 3.21421 8.34071e-17)
(25.9986 2.62324 1.85688e-16)
(26.1398 2.6203 1.66242e-16)
(26.1358 2.64602 2.72724e-17)
(26.1299 2.67142 2.64753e-17)
(26.1224 2.69634 3.31687e-17)
(26.1132 2.72067 8.16122e-18)
(26.1024 2.74426 -1.22423e-16)
(26.0903 2.76703 -1.27671e-16)
(26.0769 2.78889 2.38823e-18)
(26.0627 2.80974 -5.61146e-17)
(26.0479 2.82967 -3.37029e-17)
(26.0342 2.84572 8.49908e-18)
(26.0217 2.86015 9.2655e-19)
(26.0085 2.87224 -6.76224e-18)
(25.9944 2.88934 -9.7829e-17)
(25.9806 2.89606 1.05029e-16)
(25.9653 2.92181 -1.02944e-16)
(25.9519 2.91089 -4.73644e-19)
(25.9356 2.9653 -1.98785e-16)
(25.9258 2.90129 -4.61198e-17)
(25.9079 3.04251 5.73516e-17)
(25.9098 2.82939 1.72401e-18)
(25.8729 3.21119 -1.45665e-16)
(25.9913 2.61822 -1.81866e-18)
(26.0836 2.4737 2.0192e-17)
(26.0917 2.49439 5.86657e-17)
(26.0986 2.51582 -2.9016e-17)
(26.1039 2.53789 5.79059e-17)
(26.1078 2.56049 2.05093e-17)
(26.1101 2.58349 -7.78807e-17)
(26.1107 2.60677 -8.50909e-18)
(26.1096 2.63018 -7.97461e-18)
(26.1069 2.6536 2.54816e-17)
(26.1025 2.67689 1.74759e-17)
(26.0965 2.69991 -9.31826e-18)
(26.0889 2.72253 -3.47459e-19)
(26.0798 2.74463 -2.4158e-18)
(26.0692 2.76609 2.88866e-17)
(26.0575 2.78685 2.33767e-18)
(26.0448 2.80675 5.03875e-17)
(26.0315 2.82593 3.34733e-17)
(26.0192 2.84143 8.46208e-18)
(26.0078 2.85554 9.26915e-19)
(25.9957 2.86723 -1.843e-16)
(25.9828 2.88422 -5.02363e-17)
(25.9699 2.8906 -1.81525e-16)
(25.9559 2.91656 1.00563e-16)
(25.9432 2.90526 -4.86686e-19)
(25.9286 2.96031 1.2784e-16)
(25.9185 2.89584 -1.18929e-16)
(25.9036 3.03814 -1.45725e-16)
(25.9028 2.82449 1.78907e-18)
(25.8715 3.20803 2.917e-18)
(25.9841 2.61323 -4.46634e-17)
(25.9045 2.35897 1.71787e-18)
(25.9185 2.36628 -2.67952e-19)
(25.9325 2.37436 -3.42135e-19)
(25.9463 2.38324 -8.08416e-18)
(25.96 2.39297 -5.71432e-18)
(25.9734 2.40357 -1.36527e-17)
(25.9864 2.41508 -5.01687e-18)
(25.9991 2.42752 -1.11938e-17)
(26.0112 2.4409 7.99686e-18)
(26.0228 2.45521 5.29927e-17)
(26.0336 2.47046 -1.60943e-17)
(26.0435 2.4866 1.77156e-17)
(26.0526 2.50362 -4.83801e-18)
(26.0606 2.52146 -4.03143e-18)
(26.0674 2.54005 1.90774e-18)
(26.073 2.55932 -3.6492e-18)
(26.0772 2.57919 -1.23886e-18)
(26.0801 2.59955 4.50968e-18)
(26.0815 2.6203 3.69755e-17)
(26.0813 2.64132 -8.41071e-17)
(26.0797 2.66249 4.62617e-18)
(26.0765 2.68369 -1.9782e-17)
(26.0718 2.7048 -8.79798e-18)
(26.0655 2.72568 6.57322e-19)
(26.0578 2.74623 8.87755e-17)
(26.0487 2.76631 9.72748e-17)
(26.0384 2.78588 -6.21543e-17)
(26.0272 2.80475 4.81342e-17)
(26.0153 2.82309 -2.88832e-17)
(26.0041 2.83795 8.37464e-18)
(25.9938 2.85165 9.21948e-19)
(25.9827 2.8629 6.67591e-17)
(25.9709 2.87966 1.18222e-16)
(25.959 2.88568 1.64321e-16)
(25.9462 2.91169 -4.22707e-17)
(25.9343 2.90008 -2.31336e-17)
(25.9212 2.95551 -1.05307e-16)
(25.911 2.8908 -7.01762e-17)
(25.8988 3.03375 2.701e-18)
(25.8958 2.81996 1.85385e-18)
(25.8697 3.20474 3.39268e-18)
(25.9768 2.60833 4.08296e-17)
(25.7808 2.39874 -1.1151e-18)
(25.7814 2.39852 2.80813e-19)
(25.7809 2.39789 8.19985e-19)
(25.7827 2.39725 -7.4164e-19)
(25.7936 2.39711 -8.43784e-19)
(25.8154 2.39741 2.19663e-18)
(25.8282 2.39678 1.2954e-18)
(25.7828 2.39202 -1.21129e-18)
(25.622 2.37904 2.91037e-19)
(25.3172 2.35502 1.89288e-18)
(24.8806 2.31951 2.97257e-19)
(24.3555 2.27447 8.69929e-19)
(23.8052 2.2241 -1.10163e-18)
(23.3076 2.17461 -3.84463e-18)
(22.9481 2.13384 1.24394e-18)
(22.8047 2.11005 8.19425e-18)
(22.9243 2.10985 1.1467e-18)
(23.2998 2.13546 -1.5548e-18)
(23.865 2.18312 3.70653e-19)
(24.5058 2.24317 3.49475e-18)
(25.0861 2.30173 -1.9461e-18)
(25.491 2.34523 6.99521e-18)
(25.6846 2.36734 -1.06133e-17)
(25.7287 2.37265 1.13598e-17)
(25.7207 2.37139 7.09234e-18)
(25.7193 2.37072 1.26586e-18)
(25.7336 2.37228 1.79637e-18)
(25.7533 2.37495 1.41603e-17)
(25.7712 2.37769 -9.77614e-19)
(25.7864 2.38031 3.97941e-18)
(25.8004 2.38302 -8.21017e-18)
(25.814 2.38597 -1.09074e-17)
(25.8273 2.38924 9.25818e-19)
(25.8403 2.39284 -3.79873e-18)
(25.8532 2.39684 6.91661e-18)
(25.8659 2.40128 -1.76931e-18)
(25.8786 2.40621 -3.8289e-18)
(25.8912 2.41167 -2.42381e-18)
(25.9037 2.41772 1.28037e-18)
(25.9162 2.42439 -1.79552e-19)
(25.9285 2.43173 1.60354e-18)
(25.9407 2.43978 9.0444e-19)
(25.9527 2.44857 6.81177e-19)
(25.9645 2.45815 5.66462e-19)
(25.9759 2.46853 1.39273e-18)
(25.9869 2.47974 8.5729e-18)
(25.9975 2.49178 -4.62323e-18)
(26.0074 2.50466 -3.80483e-17)
(26.0167 2.51838 -1.37882e-18)
(26.0252 2.53291 -1.54959e-17)
(26.0328 2.54822 -2.98923e-19)
(26.0394 2.56428 -2.17073e-17)
(26.045 2.58102 -3.23139e-18)
(26.0494 2.5984 -1.10638e-18)
(26.0526 2.61632 4.06151e-18)
(26.0545 2.6347 -3.58418e-17)
(26.0551 2.65345 7.61319e-17)
(26.0542 2.67246 -2.21112e-17)
(26.0519 2.69163 -1.07979e-18)
(26.0483 2.71084 -8.25113e-18)
(26.0431 2.72999 4.66141e-17)
(26.0366 2.74895 -1.0728e-17)
(26.0288 2.76762 -1.57515e-17)
(26.0198 2.78593 7.6861e-18)
(26.0098 2.8037 -6.74826e-18)
(25.9991 2.82112 2.86612e-17)
(25.9892 2.83528 6.68285e-17)
(25.9798 2.8485 3.88579e-17)
(25.9697 2.85925 -1.82693e-17)
(25.9589 2.8757 -9.63617e-17)
(25.9479 2.88131 -8.47428e-17)
(25.9363 2.90725 1.40223e-18)
(25.925 2.89538 9.7444e-17)
(25.9135 2.95095 -2.38923e-18)
(25.9032 2.8862 7.54336e-17)
(25.8937 3.02939 -3.49869e-17)
(25.8885 2.81583 1.92198e-18)
(25.8673 3.20134 6.09593e-17)
(25.9693 2.60362 -4.19127e-17)
(25.8068 2.45075 5.03048e-20)
(25.8085 2.45064 1.59733e-18)
(25.8092 2.45018 7.08457e-19)
(25.8087 2.44956 -4.64235e-19)
(25.8092 2.44904 -4.86093e-19)
(25.8167 2.4489 -6.32091e-20)
(25.8361 2.44928 -5.9408e-20)
(25.8577 2.44947 1.36012e-18)
(25.8448 2.447 -9.37756e-19)
(25.7406 2.43792 2.0529e-18)
(25.5018 2.4186 -6.15459e-19)
(25.1238 2.38757 -4.08288e-20)
(24.6385 2.34596 2.02341e-18)
(24.1036 2.29736 1.91075e-19)
(23.594 2.24757 -1.78607e-18)
(23.1946 2.20422 -4.68312e-19)
(22.9877 2.17576 -2.05157e-18)
(23.0313 2.16953 2.58443e-18)
(23.3338 2.189 1.65639e-18)
(23.8433 2.23183 1.06438e-18)
(24.4557 2.28943 4.07325e-18)
(25.0372 2.34845 -8.15456e-18)
(25.465 2.39476 8.1526e-18)
(25.6859 2.42026 -9.36139e-18)
(25.7459 2.42775 -1.52692e-19)
(25.7399 2.427 -6.65429e-20)
(25.7344 2.42602 -3.41057e-18)
(25.7454 2.42728 -5.66983e-18)
(25.7639 2.42987 5.47157e-19)
(25.7813 2.43262 -1.27754e-18)
(25.7959 2.4352 6.84321e-19)
(25.8089 2.43782 5.84415e-18)
(25.8214 2.44066 -1.4134e-20)
(25.8336 2.44377 6.4404e-18)
(25.8455 2.44719 -5.27539e-18)
(25.8571 2.45093 1.175e-18)
(25.8686 2.45506 -1.48715e-19)
(25.88 2.45962 3.63852e-18)
(25.8913 2.46465 -3.91365e-19)
(25.9025 2.4702 4.0338e-19)
(25.9136 2.47629 1.28361e-18)
(25.9245 2.48298 7.11826e-19)
(25.9353 2.4903 -2.00081e-18)
(25.9458 2.49827 4.58347e-19)
(25.9561 2.50694 6.80713e-19)
(25.9661 2.51633 -7.50618e-18)
(25.9756 2.52645 -3.86156e-18)
(25.9847 2.53732 4.11925e-18)
(25.9932 2.54894 -1.93324e-17)
(26.0011 2.56131 7.62806e-18)
(26.0082 2.57441 -3.54868e-18)
(26.0145 2.58822 2.46403e-17)
(26.0199 2.6027 -2.84491e-18)
(26.0243 2.61782 -9.82192e-19)
(26.0277 2.6335 -2.17807e-17)
(26.0298 2.64969 -3.20963e-18)
(26.0308 2.66631 -1.26461e-17)
(26.0305 2.68327 1.16762e-17)
(26.029 2.70049 3.23012e-17)
(26.0261 2.71787 -1.10099e-16)
(26.0219 2.7353 -4.79567e-17)
(26.0164 2.75269 -8.38373e-17)
(26.0096 2.76991 -8.56024e-17)
(26.0017 2.78694 7.4917e-17)
(25.9928 2.80355 -9.99824e-17)
(25.9833 2.82 2.41482e-17)
(25.9743 2.8334 3.44678e-18)
(25.9658 2.84607 -2.10772e-17)
(25.9566 2.85628 1.76467e-17)
(25.9468 2.87233 -7.02589e-17)
(25.9367 2.87753 -5.34774e-17)
(25.9262 2.90325 1.41326e-18)
(25.9156 2.89117 -6.60737e-17)
(25.9056 2.94663 -2.44041e-18)
(25.8951 2.88206 2.02633e-16)
(25.8881 3.02506 4.0673e-17)
(25.881 2.81215 1.39943e-16)
(25.8645 3.19785 -5.60812e-17)
(25.9617 2.59918 3.78288e-17)
(25.8289 2.49834 4.21793e-20)
(25.8309 2.49827 -7.78874e-20)
(25.8324 2.49795 -4.59464e-19)
(25.8333 2.4975 8.33818e-19)
(25.8331 2.49702 2.2602e-19)
(25.8329 2.49658 -7.16006e-19)
(25.8374 2.49638 3.85131e-19)
(25.8528 2.49671 -2.9258e-21)
(25.8773 2.49735 2.70746e-20)
(25.8862 2.49657 -1.80774e-19)
(25.8295 2.49088 4.716e-20)
(25.6547 2.47618 9.64608e-19)
(25.3388 2.44993 -4.03548e-20)
(24.8997 2.41222 1.67991e-19)
(24.3871 2.36589 1.30639e-18)
(23.8723 2.31629 -2.95397e-19)
(23.4395 2.27081 9.61808e-19)
(23.1746 2.23802 1.55424e-18)
(23.1451 2.2259 -8.10505e-20)
(23.3746 2.23915 -1.2771e-18)
(23.8262 2.27679 -1.56112e-18)
(24.4065 2.33143 6.61499e-18)
(24.9848 2.39026 -6.87403e-18)
(25.4321 2.43872 3.2558e-19)
(25.68 2.46726 -2.00148e-18)
(25.7579 2.47687 -5.97768e-20)
(25.7562 2.47673 -6.9525e-19)
(25.748 2.47555 -6.60418e-20)
(25.7561 2.47662 -2.8053e-18)
(25.7733 2.47927 -3.59948e-21)
(25.7901 2.48212 1.71404e-19)
(25.8038 2.48467 -1.47617e-19)
(25.8159 2.48716 -1.03773e-18)
(25.8274 2.48982 -8.44865e-18)
(25.8386 2.49276 5.12965e-18)
(25.8495 2.49598 -1.18576e-18)
(25.8601 2.49948 -8.61468e-20)
(25.8705 2.50332 -7.61321e-19)
(25.8808 2.50753 -1.28319e-18)
(25.8909 2.51216 1.35028e-19)
(25.9009 2.51725 1.10269e-18)
(25.9108 2.52282 4.95963e-19)
(25.9205 2.52892 2.70145e-18)
(25.9299 2.53557 8.89561e-19)
(25.9392 2.54281 7.58374e-19)
(25.9482 2.55067 -6.92119e-19)
(25.9568 2.55917 -3.20949e-18)
(25.965 2.56832 3.45609e-18)
(25.9728 2.57815 1.69657e-17)
(25.98 2.58864 -2.37575e-17)
(25.9865 2.59981 -5.25855e-18)
(25.9924 2.61164 1.26995e-18)
(25.9975 2.62412 -2.49125e-18)
(26.0017 2.6372 -8.67141e-19)
(26.005 2.65086 2.84549e-17)
(26.0073 2.66504 3.91769e-18)
(26.0085 2.67968 -7.09934e-18)
(26.0086 2.69472 -3.13597e-17)
(26.0075 2.71009 -1.6266e-17)
(26.0053 2.7257 1.3281e-16)
(26.0018 2.74147 2.31834e-17)
(25.9971 2.75731 -2.93568e-17)
(25.9912 2.7731 1.43129e-16)
(25.9842 2.78882 -4.72068e-17)
(25.9763 2.80425 2.65314e-17)
(25.9678 2.81967 -2.82789e-17)
(25.9597 2.83227 8.18711e-17)
(25.952 2.84436 -2.92631e-17)
(25.9437 2.85399 -1.42304e-17)
(25.9347 2.86956 -1.14853e-17)
(25.9254 2.87434 5.45178e-17)
(25.916 2.89969 1.41723e-18)
(25.9059 2.88748 5.55045e-17)
(25.8973 2.94258 -2.47741e-18)
(25.8868 2.87843 -2.57165e-16)
(25.8823 3.02078 3.0168e-18)
(25.8733 2.80896 -1.35531e-16)
(25.8614 3.19426 7.13913e-17)
(25.9537 2.59508 -2.17691e-18)
(25.8477 2.54192 3.51809e-20)
(25.8497 2.54189 -6.50013e-20)
(25.8514 2.54166 1.25696e-18)
(25.853 2.54133 -9.4725e-19)
(25.8542 2.54101 5.41984e-20)
(25.8544 2.54064 5.87194e-19)
(25.8539 2.54024 -1.5792e-18)
(25.8561 2.53998 -4.46195e-21)
(25.8672 2.54021 2.28702e-20)
(25.8903 2.54099 -1.55601e-19)
(25.9116 2.54132 4.19602e-20)
(25.8917 2.53838 -1.08055e-18)
(25.7753 2.52802 5.96091e-20)
(25.5232 2.5067 1.36001e-18)
(25.1358 2.47326 2.09981e-18)
(24.6521 2.42954 -2.5332e-19)
(24.1387 2.38026 8.47669e-19)
(23.679 2.33259 -1.82433e-18)
(23.3621 2.29531 7.85295e-19)
(23.2644 2.27711 -1.13477e-19)
(23.4235 2.28401 -1.98155e-18)
(23.8179 2.31656 2.66883e-19)
(24.3647 2.36854 3.31917e-19)
(24.9369 2.42765 6.86814e-18)
(25.4003 2.47879 3.44785e-18)
(25.6724 2.51077 1.20859e-18)
(25.767 2.52261 7.73302e-19)
(25.7687 2.52267 -5.79825e-20)
(25.7572 2.52051 2.0066e-18)
(25.7627 2.52073 9.99133e-19)
(25.7799 2.52318 1.65094e-19)
(25.7973 2.52624 -4.63786e-18)
(25.8109 2.529 9.79952e-19)
(25.8219 2.53148 7.99305e-18)
(25.8323 2.534 1.32848e-18)
(25.8426 2.53675 1.16156e-18)
(25.8527 2.53977 -3.69114e-20)
(25.8624 2.54305 1.03743e-18)
(25.8719 2.54663 -1.02152e-18)
(25.8812 2.55052 9.70058e-20)
(25.8903 2.55479 8.22758e-19)
(25.8992 2.55945 4.84076e-19)
(25.9079 2.56454 2.69389e-19)
(25.9165 2.5701 -2.20123e-19)
(25.9248 2.57615 6.99669e-19)
(25.9329 2.58273 2.2048e-18)
(25.9406 2.58986 -2.64638e-18)
(25.948 2.59756 4.15258e-18)
(25.955 2.60585 2.60546e-18)
(25.9616 2.61473 1.17481e-17)
(25.9676 2.62423 -5.21798e-18)
(25.9729 2.63433 6.96439e-18)
(25.9776 2.64502 -7.3335e-18)
(25.9816 2.6563 -7.60695e-19)
(25.9847 2.66813 4.47146e-17)
(25.987 2.68049 -1.99997e-17)
(25.9882 2.69333 8.51095e-19)
(25.9885 2.70659 4.82457e-17)
(25.9878 2.72023 -2.46203e-17)
(25.9859 2.73417 -2.5249e-17)
(25.983 2.74834 -8.86336e-17)
(25.9789 2.76267 1.12054e-18)
(25.9737 2.77705 -8.97581e-18)
(25.9675 2.79148 1.5295e-17)
(25.9604 2.80572 1.11582e-17)
(25.9527 2.82009 2.39218e-17)
(25.9454 2.83187 -7.4815e-17)
(25.9385 2.84332 -5.05283e-18)
(25.9308 2.85236 -1.31358e-17)
(25.9227 2.86737 7.04413e-17)
(25.9141 2.87174 -1.09984e-17)
(25.9056 2.89659 1.41318e-18)
(25.8961 2.88434 -5.27818e-18)
(25.8889 2.93879 2.23665e-17)
(25.8782 2.87534 1.6094e-16)
(25.8762 3.01653 7.21483e-17)
(25.8652 2.80637 2.2333e-18)
(25.8581 3.1905 3.77856e-17)
(25.9452 2.59149 -7.25837e-17)
(25.8641 2.58202 2.99876e-20)
(25.8662 2.58201 -5.54693e-20)
(25.868 2.58182 -3.43119e-20)
(25.8696 2.58157 1.11706e-18)
(25.8713 2.58133 4.6423e-20)
(25.8728 2.58109 -5.32469e-19)
(25.8734 2.58078 1.35978e-18)
(25.8731 2.58042 -3.83932e-21)
(25.8737 2.58013 1.97263e-20)
(25.8808 2.58019 -1.34777e-19)
(25.8997 2.58085 3.68203e-20)
(25.9257 2.58163 8.30311e-19)
(25.9315 2.58063 -1.33965e-19)
(25.867 2.57435 -8.48524e-19)
(25.6825 2.55897 -1.90096e-18)
(25.3582 2.53217 -2.31588e-19)
(24.916 2.49425 -7.58368e-19)
(24.4132 2.44844 1.59521e-18)
(23.9307 2.40081 -8.81881e-19)
(23.5603 2.35963 -9.21794e-20)
(23.3877 2.33393 -9.10282e-19)
(23.4668 2.33102 -1.58426e-18)
(23.7948 2.35362 2.98661e-18)
(24.3033 2.39791 -4.97059e-18)
(24.8704 2.45348 -4.49561e-18)
(25.3567 2.50599 -1.036e-18)
(25.6639 2.54313 -5.50973e-19)
(25.7849 2.56098 -5.36861e-20)
(25.7931 2.56493 -3.53062e-18)
(25.7739 2.56365 -1.26895e-18)
(25.7701 2.56285 2.40915e-18)
(25.7832 2.56408 8.14537e-18)
(25.801 2.56656 -2.67393e-20)
(25.8158 2.56928 -5.67526e-18)
(25.8271 2.57185 -8.24655e-18)
(25.8367 2.57432 -1.11645e-18)
(25.8459 2.57688 1.29706e-18)
(25.8551 2.57965 -2.01403e-18)
(25.8641 2.58267 2.05354e-18)
(25.8727 2.58595 -5.18e-19)
(25.8811 2.58952 6.02549e-19)
(25.8892 2.59342 -1.0197e-18)
(25.8972 2.59766 5.53708e-19)
(25.9049 2.60229 -3.45322e-19)
(25.9124 2.60733 1.90692e-18)
(25.9197 2.61282 -3.70622e-18)
(25.9266 2.61877 -1.23983e-17)
(25.9333 2.62521 2.87807e-18)
(25.9396 2.63216 -4.12127e-18)
(25.9454 2.63965 -1.03121e-18)
(25.9508 2.64767 3.54181e-18)
(25.9557 2.65624 -4.86803e-18)
(25.9599 2.66536 -9.46083e-18)
(25.9635 2.67502 -6.65432e-19)
(25.9664 2.68521 -1.70633e-19)
(25.9685 2.69591 3.14399e-18)
(25.9697 2.70708 -5.03765e-18)
(25.9701 2.7187 -4.01707e-17)
(25.9695 2.73072 -3.32994e-18)
(25.9679 2.74308 4.09484e-18)
(25.9654 2.75574 8.44073e-17)
(25.9617 2.76862 1.04249e-18)
(25.9571 2.78163 -3.84967e-18)
(25.9515 2.79479 6.63291e-17)
(25.9451 2.80785 -3.10762e-17)
(25.9381 2.82116 -1.99372e-18)
(25.9315 2.83211 3.13077e-18)
(25.9252 2.8429 9.15157e-18)
(25.9181 2.85134 1.62739e-17)
(25.9107 2.86573 -3.44761e-18)
(25.9027 2.86971 -3.22739e-18)
(25.8953 2.89391 -2.37976e-17)
(25.886 2.88175 -1.4786e-16)
(25.8805 2.93525 -5.01846e-17)
(25.8691 2.87286 -4.15493e-18)
(25.8702 3.0123 -3.67653e-17)
(25.8564 2.80441 2.42809e-18)
(25.8551 3.1867 -9.73983e-17)
(25.9355 2.58812 1.04877e-18)
(25.8819 2.62785 3.06636e-19)
(25.884 2.62786 -2.95235e-19)
(25.8858 2.62773 -2.70057e-19)
(25.8875 2.62754 -1.30459e-19)
(25.8892 2.62736 8.09383e-19)
(25.8909 2.62719 5.7839e-19)
(25.8926 2.627 -5.05167e-19)
(25.8939 2.62676 -2.78943e-19)
(25.8943 2.62649 1.18048e-18)
(25.8947 2.6262 -3.58078e-19)
(25.8978 2.6261 9.62472e-20)
(25.9086 2.62643 -7.57325e-19)
(25.9284 2.62719 1.22257e-19)
(25.9457 2.62749 7.45671e-19)
(25.9296 2.62509 -4.63486e-19)
(25.8353 2.61666 -2.73108e-18)
(25.6248 2.59896 -7.52279e-19)
(25.2884 2.57036 3.03133e-19)
(24.854 2.53184 -6.77728e-19)
(24.3831 2.48732 -4.03322e-19)
(23.9593 2.4435 5.00276e-19)
(23.6723 2.40894 -9.53048e-19)
(23.5959 2.39199 -1.80291e-18)
(23.7619 2.39823 -1.0179e-18)
(24.1412 2.42778 1.43072e-18)
(24.6433 2.47409 -1.64387e-18)
(25.1417 2.52536 1.26281e-18)
(25.5226 2.56884 -1.63942e-18)
(25.7349 2.59655 3.11187e-18)
(25.8056 2.60855 -3.31187e-19)
(25.8043 2.61078 3.70365e-18)
(25.7908 2.60987 -4.7508e-18)
(25.7902 2.60964 1.34918e-18)
(25.8015 2.611 3.51819e-18)
(25.8162 2.6133 6.09625e-18)
(25.8289 2.6158 -2.30629e-18)
(25.839 2.61818 -9.97584e-19)
(25.8476 2.6205 5.35634e-20)
(25.8558 2.6229 -5.08135e-19)
(25.8637 2.62551 -2.08323e-18)
(25.8714 2.62835 -3.26939e-18)
(25.8789 2.63144 1.37058e-18)
(25.8861 2.6348 -1.30317e-20)
(25.893 2.63845 9.66132e-19)
(25.8996 2.64243 -5.78674e-19)
(25.906 2.64676 -7.69247e-19)
(25.9122 2.65148 3.3448e-18)
(25.918 2.6566 2.55461e-18)
(25.9235 2.66214 -2.34277e-18)
(25.9286 2.66814 -5.65648e-18)
(25.9333 2.67459 -1.76184e-17)
(25.9375 2.68153 1.50507e-18)
(25.9413 2.68895 9.75671e-18)
(25.9444 2.69686 -1.34781e-17)
(25.9469 2.70526 -1.85339e-17)
(25.9488 2.71415 1.26894e-17)
(25.9499 2.72349 -5.40082e-18)
(25.9502 2.73329 6.80676e-18)
(25.9498 2.7435 -8.24379e-18)
(25.9484 2.7541 -7.0189e-17)
(25.9462 2.76503 1.04352e-17)
(25.943 2.77627 4.32244e-17)
(25.9389 2.78772 -1.61255e-17)
(25.934 2.79942 -3.79121e-18)
(25.9282 2.81111 2.15004e-17)
(25.922 2.82318 -2.15215e-17)
(25.916 2.83317 -4.27273e-18)
(25.9105 2.84316 5.0753e-17)
(25.9041 2.85094 3.14392e-18)
(25.8975 2.8645 -1.22006e-17)
(25.8901 2.86818 1.1958e-17)
(25.8838 2.89138 5.2053e-17)
(25.875 2.87969 3.82416e-17)
(25.8711 2.93154 4.0495e-17)
(25.8592 2.87109 -8.31215e-17)
(25.8633 3.00756 -3.82712e-17)
(25.8474 2.80355 3.19833e-18)
(25.8511 3.18182 6.03271e-17)
(25.9266 2.58628 -1.68138e-17)
(25.8998 2.67595 9.76679e-20)
(25.9019 2.67593 1.58486e-20)
(25.9036 2.67582 1.47165e-19)
(25.9053 2.67566 -2.01328e-19)
(25.907 2.67552 -8.24299e-19)
(25.9088 2.67537 -6.35014e-19)
(25.9106 2.67522 -8.68656e-20)
(25.9125 2.67504 1.89744e-19)
(25.9142 2.67485 -1.34099e-18)
(25.9154 2.67462 1.40065e-19)
(25.9157 2.67437 8.14912e-20)
(25.9162 2.67417 -2.10681e-19)
(25.9206 2.67416 -7.31694e-19)
(25.9336 2.67453 -1.32973e-19)
(25.9558 2.67504 1.56915e-19)
(25.9749 2.67465 9.54019e-19)
(25.9615 2.67117 2.23864e-19)
(25.8737 2.66159 -1.33005e-18)
(25.675 2.64311 9.40072e-19)
(25.3545 2.61445 2.21916e-19)
(24.9389 2.57693 4.31179e-19)
(24.4902 2.53487 1.34903e-18)
(24.0939 2.49521 3.10743e-18)
(23.8395 2.4663 2.50889e-18)
(23.7953 2.45563 -1.0955e-19)
(23.9828 2.46715 -6.62661e-19)
(24.3604 2.49905 4.1317e-19)
(24.8306 2.54353 5.50873e-19)
(25.2732 2.58919 2.26579e-18)
(25.5946 2.6256 3.6746e-18)
(25.765 2.64761 -6.05122e-18)
(25.8181 2.65661 7.82522e-19)
(25.815 2.658 8.53461e-19)
(25.804 2.65714 -2.35566e-18)
(25.8042 2.65707 -3.88375e-18)
(25.8145 2.65839 3.45224e-18)
(25.8275 2.66051 2.5655e-19)
(25.8387 2.66274 4.30912e-20)
(25.8475 2.66483 -1.79357e-19)
(25.8549 2.66686 2.22533e-18)
(25.8619 2.66898 -2.29961e-19)
(25.8687 2.67129 -1.17277e-18)
(25.8752 2.6738 -3.27186e-19)
(25.8814 2.67653 -6.18971e-19)
(25.8873 2.67949 -4.79737e-19)
(25.8929 2.68272 2.48041e-19)
(25.8981 2.68624 2.72369e-19)
(25.9031 2.69007 2.95929e-18)
(25.9078 2.69424 1.60508e-18)
(25.9122 2.69877 -1.76881e-18)
(25.9161 2.70368 2.96196e-18)
(25.9197 2.70899 -2.87988e-18)
(25.9228 2.71472 -8.58459e-19)
(25.9254 2.72087 1.1058e-17)
(25.9275 2.72746 1.03464e-19)
(25.929 2.73449 8.95451e-18)
(25.9299 2.74196 -3.91794e-17)
(25.9301 2.74987 -1.96064e-17)
(25.9296 2.75819 1.16933e-17)
(25.9284 2.76692 1.34777e-17)
(25.9264 2.77603 -2.56846e-17)
(25.9236 2.7855 2.03462e-18)
(25.92 2.79525 -4.7914e-17)
(25.9155 2.80535 -6.36335e-18)
(25.9104 2.81555 2.82166e-17)
(25.9049 2.82623 1.52244e-17)
(25.8996 2.83516 3.54154e-17)
(25.8947 2.84422 -2.60421e-17)
(25.889 2.85129 3.59669e-17)
(25.8832 2.86389 -1.03716e-17)
(25.8766 2.86724 -6.23175e-17)
(25.8712 2.88926 -3.26493e-17)
(25.8631 2.87811 6.46941e-17)
(25.8604 2.92809 -5.12447e-17)
(25.8492 2.86978 7.35588e-17)
(25.8547 3.00299 1.18851e-16)
(25.839 2.80325 8.37377e-17)
(25.8451 3.17727 -4.70897e-17)
(25.9198 2.5851 1.4209e-16)
(25.9148 2.71682 -2.3758e-19)
(25.9168 2.7168 -6.10916e-20)
(25.9184 2.71669 9.85805e-20)
(25.9201 2.71655 2.45186e-19)
(25.9218 2.71642 4.66575e-19)
(25.9235 2.71628 2.88801e-19)
(25.9253 2.71615 3.29682e-19)
(25.9271 2.71599 1.3233e-19)
(25.929 2.71583 4.70938e-19)
(25.931 2.71566 -8.54266e-19)
(25.9326 2.71546 3.90724e-20)
(25.9335 2.71523 -1.55237e-19)
(25.9338 2.71497 6.76563e-19)
(25.9355 2.7148 2.8329e-19)
(25.9428 2.7149 -2.59964e-19)
(25.9605 2.7154 4.28397e-19)
(25.9875 2.71605 1.30241e-18)
(26.01 2.71572 -2.87348e-19)
(25.9977 2.71222 -2.9929e-19)
(25.909 2.7025 -1.05181e-18)
(25.7081 2.68377 -5.34954e-20)
(25.3864 2.65487 -6.01113e-19)
(24.9747 2.61747 -5.61509e-19)
(24.541 2.57642 -6.3463e-19)
(24.1751 2.53919 -1.42388e-18)
(23.9653 2.51425 2.51829e-18)
(23.9705 2.50848 -1.213e-19)
(24.1952 2.52442 -6.26025e-20)
(24.5811 2.55857 -4.06788e-18)
(25.0237 2.60203 -2.84743e-18)
(25.4122 2.6437 6.35827e-19)
(25.6741 2.67467 7.2236e-19)
(25.7996 2.69172 -3.38889e-18)
(25.83 2.69749 -1.27345e-18)
(25.8216 2.69749 4.27515e-19)
(25.8127 2.69646 2.87526e-19)
(25.8155 2.69664 1.46204e-18)
(25.8263 2.69811 4.9347e-19)
(25.838 2.70011 1.54895e-19)
(25.8475 2.70203 -7.84118e-19)
(25.8547 2.70379 -2.02492e-19)
(25.861 2.70552 1.26368e-18)
(25.8669 2.70737 -5.1212e-19)
(25.8726 2.70939 -8.22648e-20)
(25.878 2.71159 1.83187e-19)
(25.883 2.71397 -1.60266e-19)
(25.8876 2.71657 -6.17315e-20)
(25.8919 2.7194 3.58618e-20)
(25.8959 2.7225 -8.56574e-19)
(25.8995 2.72588 6.07433e-18)
(25.9028 2.72956 6.16815e-18)
(25.9057 2.73358 5.9713e-18)
(25.9082 2.73794 -5.17193e-18)
(25.9102 2.74266 5.01434e-18)
(25.9118 2.74777 -4.22399e-18)
(25.9128 2.75327 4.89037e-18)
(25.9133 2.75917 2.3884e-17)
(25.9133 2.76548 3.94092e-17)
(25.9126 2.77219 8.60421e-19)
(25.9112 2.77931 -8.25298e-18)
(25.9092 2.78682 1.66068e-18)
(25.9065 2.79472 -4.98419e-17)
(25.9031 2.80296 3.09507e-17)
(25.899 2.81159 -1.69037e-18)
(25.8942 2.82041 -2.095e-17)
(25.8891 2.82979 -1.01638e-17)
(25.8843 2.83771 1.68598e-17)
(25.8798 2.84589 -9.74465e-18)
(25.8747 2.85225 -1.19698e-17)
(25.8695 2.8639 -6.70918e-19)
(25.8634 2.86692 -5.64697e-18)
(25.8587 2.88775 8.54134e-18)
(25.8514 2.8771 -1.73651e-17)
(25.8495 2.92522 2.93605e-18)
(25.8391 2.86898 5.08298e-18)
(25.8455 2.99897 -6.51457e-17)
(25.8309 2.80343 -1.39705e-16)
(25.838 3.17354 3.78817e-17)
(25.9134 2.58491 -8.14714e-17)
(25.9299 2.75151 -4.09304e-20)
(25.9317 2.75141 -1.98333e-19)
(25.9333 2.75127 2.51328e-20)
(25.9349 2.75114 -8.23933e-20)
(25.9366 2.75101 2.27853e-20)
(25.9383 2.75088 -3.7698e-19)
(25.9401 2.75074 1.01473e-20)
(25.9419 2.75059 7.19108e-20)
(25.9438 2.75044 3.44848e-19)
(25.9458 2.75027 3.49051e-20)
(25.9478 2.75009 4.38729e-19)
(25.9493 2.74987 -5.74476e-19)
(25.9501 2.74962 -1.96338e-19)
(25.9509 2.74938 2.20915e-19)
(25.9541 2.74929 -2.49764e-19)
(25.9646 2.74959 -5.15611e-19)
(25.9864 2.75038 8.55963e-19)
(26.017 2.75135 -8.54936e-19)
(26.0408 2.75122 6.75872e-19)
(26.0254 2.7476 1.46933e-19)
(25.9286 2.73727 1.67121e-19)
(25.7164 2.71745 -7.28619e-19)
(25.3854 2.68729 2.26715e-19)
(24.9744 2.64914 1.70412e-18)
(24.5595 2.60873 -4.28272e-19)
(24.2339 2.57424 -1.31991e-18)
(24.081 2.55413 5.56291e-19)
(24.1447 2.55431 2.7097e-19)
(24.4097 2.5755 -1.06543e-18)
(24.8016 2.61225 1.65676e-18)
(25.2129 2.65459 -1.39316e-18)
(25.545 2.69181 1.80924e-18)
(25.7468 2.71678 1.40618e-18)
(25.8279 2.72851 -7.49752e-19)
(25.8372 2.73107 -9.67944e-19)
(25.8254 2.73 -5.62529e-19)
(25.8203 2.72916 -1.64144e-18)
(25.8264 2.72978 -6.20686e-19)
(25.8374 2.73137 -4.10606e-19)
(25.8475 2.73314 5.99498e-19)
(25.855 2.73472 -8.66223e-19)
(25.8608 2.73615 3.18748e-19)
(25.8659 2.7376 9.32751e-19)
(25.8709 2.73918 4.31679e-19)
(25.8755 2.74092 7.66102e-19)
(25.8796 2.7428 -1.24142e-19)
(25.8834 2.74486 4.40447e-20)
(25.8868 2.7471 -2.49687e-19)
(25.8899 2.74958 -2.91755e-18)
(25.8925 2.75229 -9.93528e-20)
(25.8948 2.75527 -1.62007e-18)
(25.8967 2.75854 -5.0385e-19)
(25.8981 2.7621 -3.21404e-18)
(25.8992 2.766 2.94577e-18)
(25.8997 2.77024 -8.18823e-18)
(25.8997 2.77484 -9.16496e-18)
(25.8993 2.77981 -5.3282e-18)
(25.8982 2.78517 -8.00375e-18)
(25.8966 2.79091 -1.05096e-17)
(25.8945 2.79705 -1.11596e-17)
(25.8917 2.80359 2.47882e-17)
(25.8882 2.81049 -7.61776e-18)
(25.8842 2.81783 -3.72629e-18)
(25.8795 2.8254 3.38233e-18)
(25.8746 2.83361 -1.00002e-18)
(25.87 2.84058 -1.71429e-17)
(25.8659 2.84794 -1.07252e-17)
(25.8611 2.85365 -2.52834e-17)
(25.8563 2.86437 -2.9763e-17)
(25.8506 2.86709 2.45915e-17)
(25.8464 2.88674 6.22578e-17)
(25.8398 2.87659 -1.98852e-17)
(25.8385 2.92285 2.49056e-19)
(25.8289 2.86868 -6.36707e-17)
(25.836 2.9955 4.55059e-19)
(25.8224 2.8042 3.0942e-17)
(25.8304 3.17048 2.96306e-18)
(25.9058 2.58606 -2.2693e-16)
(25.9421 2.78078 6.20184e-20)
(25.9437 2.7807 1.06899e-19)
(25.9452 2.78056 -1.17265e-19)
(25.9467 2.78042 -1.58379e-19)
(25.9482 2.78028 -1.04688e-19)
(25.9498 2.78014 9.64661e-20)
(25.9514 2.78 6.21901e-20)
(25.9531 2.77987 -1.78138e-19)
(25.9549 2.77972 -2.99004e-19)
(25.9568 2.77955 1.43275e-19)
(25.9588 2.77938 -1.40731e-19)
(25.9609 2.77919 3.71978e-19)
(25.9628 2.77899 -1.23627e-19)
(25.9642 2.77876 6.87088e-21)
(25.965 2.7785 -1.08746e-19)
(25.9662 2.77829 1.16525e-19)
(25.971 2.77831 -2.43635e-19)
(25.9844 2.77882 2.43035e-19)
(26.0099 2.77992 -1.33952e-19)
(26.0434 2.78114 -2.99717e-19)
(26.0665 2.78101 1.07383e-19)
(26.0439 2.77684 4.6106e-20)
(25.9322 2.76526 2.34036e-19)
(25.7012 2.74356 -6.4974e-19)
(25.356 2.71153 -1.44532e-19)
(24.9465 2.67252 1.20563e-18)
(24.5574 2.63332 6.81614e-19)
(24.2831 2.60272 4.82688e-19)
(24.1973 2.5888 9.85732e-19)
(24.3251 2.59595 1.02852e-20)
(24.6296 2.62267 1.67213e-18)
(25.0218 2.66148 -6.36289e-19)
(25.3939 2.70157 1.35643e-18)
(25.6633 2.73314 6.54714e-19)
(25.8039 2.75146 1.09607e-18)
(25.8448 2.758 6.36805e-19)
(25.839 2.75798 1.84495e-18)
(25.8281 2.75649 2.49217e-19)
(25.8282 2.75614 1.73747e-18)
(25.8369 2.75713 1.24109e-18)
(25.8472 2.75867 -3.56603e-19)
(25.8552 2.76011 2.20689e-19)
(25.8609 2.76135 -1.30648e-18)
(25.8655 2.76252 -1.16887e-20)
(25.8697 2.76377 -4.78466e-19)
(25.8736 2.76513 9.47601e-20)
(25.877 2.76662 -3.42723e-20)
(25.8799 2.76823 -6.48285e-19)
(25.8825 2.77 4.74389e-19)
(25.8846 2.77195 -1.50043e-18)
(25.8863 2.77412 1.58812e-18)
(25.8876 2.77651 1.16324e-19)
(25.8885 2.77916 -4.08951e-18)
(25.889 2.78208 -1.66939e-18)
(25.889 2.78529 -4.27651e-18)
(25.8885 2.78883 3.63023e-18)
(25.8876 2.7927 -1.70109e-17)
(25.8861 2.79692 -2.90221e-18)
(25.8842 2.80151 -3.0778e-18)
(25.8817 2.80648 8.39292e-18)
(25.8786 2.81186 -1.88295e-17)
(25.875 2.8176 1.36658e-17)
(25.8708 2.82381 -9.5156e-18)
(25.8662 2.83029 -2.42617e-17)
(25.8612 2.83744 -1.41653e-17)
(25.8567 2.84358 1.2473e-17)
(25.8527 2.85017 1.45837e-17)
(25.8481 2.8553 2.5128e-18)
(25.8436 2.86516 3.55207e-17)
(25.8382 2.86761 -1.07508e-18)
(25.8343 2.88613 -4.47907e-17)
(25.8281 2.8765 -2.32459e-17)
(25.8273 2.92093 -1.77085e-17)
(25.8184 2.86885 4.29417e-17)
(25.8259 2.99252 -1.57412e-18)
(25.8133 2.80559 9.07188e-17)
(25.8221 3.16795 -7.90712e-19)
(25.897 2.58877 2.18256e-16)
(25.9544 2.80496 -2.80599e-20)
(25.9558 2.80489 -1.16894e-19)
(25.9571 2.80476 -1.14045e-22)
(25.9584 2.80461 9.05218e-20)
(25.9597 2.80445 -4.30502e-20)
(25.9611 2.80429 7.72704e-20)
(25.9626 2.80414 -1.43301e-19)
(25.9642 2.804 -1.10378e-19)
(25.9658 2.80386 2.59099e-19)
(25.9676 2.80372 -2.57928e-19)
(25.9694 2.80355 -5.89283e-20)
(25.9713 2.80337 -4.54216e-20)
(25.9734 2.80318 3.4449e-19)
(25.9754 2.80298 1.00924e-19)