/*--------------------------------*- C++ -*----------------------------------*\
| =========                 |                                                 |
| \\      /  F ield         | OpenFOAM: The Open Source CFD Toolbox           |
|  \\    /   O peration     | Version:  2506                                  |
|   \\  /    A nd           | Website:  www.openfoam.com                      |
|    \\/     M anipulation  |                                                 |
\*---------------------------------------------------------------------------*/
FoamFile
{
    version     2.0;
    format      ascii;
    arch        "LSB;label=32;scalar=64";
    class       volScalarField;
    location    "250";
    object      magR;
}
// * * * * * * * * * * * * * * * * * * * * * * * * * * * * * * * * * * * * * //

dimensions      [0 2 -2 0 0 0 0];

internalField   nonuniform List<scalar> 
1340
(
1.09109e-06
8.28912e-07
1.10706e-06
8.04009e-07
8.02888e-07
1.10652e-06
3.35123e-07
7.93636e-07
7.85673e-07
1.11097e-06
2.99811e-07
5.50488e-07
3.3196e-07
7.85372e-07
7.71056e-07
1.11847e-06
4.26849e-07
5.01435e-07
2.90788e-07
5.40346e-07
3.28692e-07
7.77905e-07
7.59216e-07
1.12608e-06
6.02082e-07
5.28506e-07
5.28495e-07
4.09751e-07
4.87457e-07
2.81321e-07
5.3044e-07
3.25511e-07
7.71483e-07
7.50682e-07
1.13317e-06
6.95616e-07
6.52731e-07
6.00891e-07
5.75842e-07
5.04834e-07
5.08844e-07
3.92392e-07
4.73337e-07
2.71547e-07
5.20994e-07
3.22402e-07
7.66263e-07
7.45273e-07
1.13964e-06
8.82883e-07
8.22722e-07
7.6506e-07
7.10329e-07
6.56859e-07
6.18617e-07
5.70097e-07
5.4924e-07
4.80945e-07
4.88897e-07
3.74885e-07
4.59143e-07
2.61537e-07
5.11925e-07
3.19385e-07
7.61963e-07
7.4227e-07
1.14646e-06
1.11746e-06
1.05295e-06
9.90603e-07
9.30588e-07
8.72984e-07
8.17823e-07
7.65186e-07
7.14351e-07
6.66067e-07
6.17948e-07
5.84255e-07
5.39057e-07
5.22277e-07
4.56836e-07
4.68648e-07
3.57223e-07
4.44824e-07
2.51316e-07
5.03053e-07
3.16516e-07
7.58271e-07
7.41164e-07
1.1525e-06
1.41826e-06
1.35882e-06
1.29925e-06
1.23981e-06
1.18085e-06
1.12263e-06
1.06544e-06
1.00951e-06
9.55024e-07
9.02114e-07
8.50894e-07
8.01479e-07
7.53891e-07
7.08346e-07
6.64009e-07
6.21922e-07
5.79033e-07
5.4978e-07
5.07895e-07
4.95055e-07
4.32595e-07
4.48157e-07
3.39484e-07
4.30387e-07
2.40949e-07
4.94297e-07
3.13779e-07
7.55051e-07
7.42506e-07
1.15847e-06
1.7211e-06
1.69071e-06
1.65874e-06
1.62502e-06
1.58943e-06
1.55196e-06
1.51261e-06
1.47142e-06
1.4285e-06
1.38409e-06
1.33836e-06
1.2915e-06
1.24379e-06
1.19546e-06
1.14683e-06
1.0981e-06
1.04955e-06
1.00142e-06
9.53952e-07
9.07344e-07
8.61758e-07
8.17301e-07
7.74057e-07
7.32143e-07
6.91556e-07
6.52628e-07
6.14411e-07
5.78225e-07
5.40404e-07
5.15443e-07
4.76837e-07
4.67757e-07
4.08387e-07
4.27539e-07
3.21773e-07
4.15881e-07
2.30538e-07
4.85681e-07
3.11113e-07
7.52236e-07
7.45152e-07
1.16435e-06
5.52183e-08
3.19645e-09
0
0
5.1899e-05
0.000128143
0.00732401
0.0989017
0.396066
0.895286
1.43591
1.8172
1.88329
1.56239
0.890518
0.0923097
0.890578
1.53198
1.7101
1.37122
0.744319
0.231269
0.0296013
0.00017946
2.10185e-05
0
0
0
4.15202e-08
5.7462e-07
1.73707e-06
1.86789e-06
1.64237e-06
1.54619e-06
1.5322e-06
1.51738e-06
1.49267e-06
1.46745e-06
1.4431e-06
1.41791e-06
1.39129e-06
1.36326e-06
1.33373e-06
1.30261e-06
1.2699e-06
1.23566e-06
1.20007e-06
1.16331e-06
1.12552e-06
1.08688e-06
1.04763e-06
1.008e-06
9.68187e-07
9.2841e-07
8.88869e-07
8.49758e-07
8.11255e-07
7.73497e-07
7.36554e-07
7.00475e-07
6.65375e-07
6.31204e-07
5.98396e-07
5.65894e-07
5.35273e-07
5.0232e-07
4.81472e-07
4.46094e-07
4.40563e-07
3.84352e-07
4.06896e-07
3.04223e-07
4.0131e-07
2.20164e-07
4.77031e-07
3.08607e-07
7.49653e-07
7.49299e-07
1.17018e-06
1.07369e-06
7.94698e-08
4.79719e-09
0
0
1.10299e-07
0.000591595
0.00075802
0.0384869
0.221353
0.611461
1.11269
1.53641
1.70904
1.52999
1.00028
0.237878
0.608882
1.2643
1.52801
1.30539
0.761713
0.264422
0.0395623
0.000558622
4.75192e-05
0
0
0
1.94222e-08
2.51875e-07
1.3496e-06
1.61862e-06
1.41165e-06
1.29768e-06
1.28064e-06
1.27207e-06
1.25255e-06
1.2314e-06
1.21147e-06
1.19081e-06
1.1685e-06
1.14484e-06
1.11999e-06
1.09386e-06
1.06641e-06
1.03777e-06
1.0081e-06
9.77523e-07
9.46195e-07
9.14311e-07
8.82071e-07
8.49631e-07
8.17187e-07
7.84897e-07
7.52926e-07
7.21418e-07
6.90484e-07
6.60172e-07
6.30481e-07
6.0152e-07
5.73179e-07
5.45989e-07
5.18769e-07
4.93355e-07
4.65038e-07
4.48095e-07
4.15868e-07
4.13652e-07
3.60667e-07
3.86367e-07
2.86929e-07
3.86725e-07
2.09848e-07
4.68442e-07
3.06023e-07
7.47166e-07
7.53545e-07
1.17638e-06
1.0969e-06
9.40826e-07
1.22609e-07
6.885e-09
0
0
0
0.000154048
0.000286012
0.0104667
0.10662
0.384086
0.820129
1.25904
1.51702
1.46554
1.07185
0.414105
0.362371
1.01765
1.35006
1.23165
0.770944
0.293717
0.0509048
0.00142868
7.75598e-05
0
0
0
4.47936e-09
4.76008e-08
9.47699e-07
1.37161e-06
1.22678e-06
1.0982e-06
1.07487e-06
1.07161e-06
1.05562e-06
1.03507e-06
1.01676e-06
9.99379e-07
9.80846e-07
9.60819e-07
9.39626e-07
9.17403e-07
8.94208e-07
8.70148e-07
8.45318e-07
8.19868e-07
7.93952e-07
7.67753e-07
7.41413e-07
7.15091e-07
6.88914e-07
6.63028e-07
6.37542e-07
6.12557e-07
5.88065e-07
5.64065e-07
5.40622e-07
5.17555e-07
4.9551e-07
4.73168e-07
4.52567e-07
4.28681e-07
4.15413e-07
3.8628e-07
3.87102e-07
3.37427e-07
3.65952e-07
2.69985e-07
3.72175e-07
1.99674e-07
4.59499e-07
3.03292e-07
7.45359e-07
7.57985e-07
1.18294e-06
8.68155e-07
9.38419e-07
8.42126e-07
2.36888e-07
1.25622e-08
0
0
0
1.37368e-06
0.000662061
0.0014981
0.0429138
0.218547
0.570165
0.996543
1.31686
1.37639
1.1081
0.555899
0.157813
0.79789
1.1822
1.15373
0.771045
0.318103
0.0623714
0.00263627
0.000116389
0
0
0
6.1506e-11
4.26703e-08
5.81302e-07
1.11697e-06
1.05854e-06
9.2129e-07
8.84498e-07
8.91677e-07
8.89458e-07
8.73935e-07
8.55872e-07
8.39401e-07
8.23302e-07
8.06262e-07
7.88042e-07
7.6892e-07
7.4913e-07
7.28752e-07
7.07909e-07
6.86715e-07
6.65353e-07
6.43941e-07
6.22615e-07
6.01507e-07
5.80709e-07
5.60329e-07
5.40417e-07
5.20985e-07
5.01971e-07
4.83402e-07
4.65063e-07
4.47633e-07
4.29739e-07
4.13535e-07
3.93757e-07
3.83941e-07
3.57743e-07
3.61366e-07
3.14859e-07
3.46078e-07
2.53378e-07
3.57936e-07
1.88965e-07
4.51161e-07
2.99522e-07
7.43516e-07
7.63169e-07
1.192e-06
7.76604e-07
7.55424e-07
8.13862e-07
7.51723e-07
3.72062e-07
1.96052e-08
4.06723e-12
0
0
0
0.000234615
0.000329986
0.012187
0.104268
0.353997
0.734146
1.09572
1.2635
1.12846
0.692317
0.0872101
0.57726
1.01145
1.076
0.776498
0.351711
0.0797195
0.00444821
0.000123748
7.86022e-06
0
0
0
2.82682e-08
3.53367e-07
8.78269e-07
9.82587e-07
8.50794e-07
7.53297e-07
7.2985e-07
7.31386e-07
7.26713e-07
7.13534e-07
6.98137e-07
6.83345e-07
6.68628e-07
6.53284e-07
6.37219e-07
6.20667e-07
6.03843e-07
5.86765e-07
5.69625e-07
5.52541e-07
5.35616e-07
5.18985e-07
5.02703e-07
4.86885e-07
4.71508e-07
4.56639e-07
4.42156e-07
4.28039e-07
4.1408e-07
4.00913e-07
3.87147e-07
3.75108e-07
3.59248e-07
3.52693e-07
3.29526e-07
3.35585e-07
2.92655e-07
3.25788e-07
2.37533e-07
3.42825e-07
1.79722e-07
4.41395e-07
2.96773e-07
7.40455e-07
7.67856e-07
1.19766e-06
7.0326e-07
6.68467e-07
6.5584e-07
6.6768e-07
6.47213e-07
4.98866e-07
9.1053e-08
4.94489e-09
4.32959e-13
0
0
1.97274e-05
6.29903e-05
0.00098612
0.0247782
0.129998
0.363903
0.684343
0.956804
1.03265
0.832938
0.390208
0.179163
0.659332
0.88838
0.781657
0.458981
0.162111
0.0285354
0.000768425
8.87289e-05
6.66084e-07
0
0
3.62019e-10
1.89667e-08
1.97624e-07
5.78735e-07
7.27293e-07
6.71055e-07
5.99978e-07
5.74152e-07
5.71637e-07
5.67936e-07
5.57973e-07
5.45611e-07
5.33372e-07
5.21178e-07
5.08694e-07
4.95946e-07
4.82992e-07
4.70085e-07
4.57337e-07
4.44853e-07
4.32686e-07
4.20931e-07
4.09689e-07
3.98921e-07
3.88687e-07
3.7882e-07
3.69317e-07
3.59896e-07
3.51184e-07
3.41778e-07
3.34013e-07
3.2256e-07
3.19155e-07
2.99827e-07
3.07639e-07
2.70009e-07
3.02935e-07
2.22985e-07
3.23294e-07
1.72726e-07
4.20788e-07
2.82779e-07
7.07169e-07
7.29404e-07
1.11246e-06
6.16075e-07
5.90738e-07
5.69118e-07
5.55673e-07
5.49799e-07
5.74996e-07
5.17623e-07
3.42821e-07
1.15535e-08
6.75113e-10
0
0
1.07565e-08
1.05699e-05
0.00036259
0.000690875
0.0185656
0.100537
0.289381
0.556718
0.787971
0.846521
0.659686
0.262348
0.219932
0.5977
0.723951
0.574218
0.301291
0.0945266
0.0140508
0.000137964
3.50413e-05
0
0
0
1.48151e-10
1.33724e-08
1.54973e-07
4.54743e-07
5.59374e-07
5.04117e-07
4.50612e-07
4.34312e-07
4.32214e-07
4.27232e-07
4.18155e-07
4.0824e-07
3.98755e-07
3.8942e-07
3.80049e-07
3.70823e-07
3.61833e-07
3.53279e-07
3.45193e-07
3.37658e-07
3.30758e-07
3.24444e-07
3.18788e-07
3.13546e-07
3.08732e-07
3.03972e-07
2.99849e-07
2.94995e-07
2.9162e-07
2.84703e-07
2.84657e-07
2.6928e-07
2.79152e-07
2.4648e-07
2.80404e-07
2.07084e-07
3.06434e-07
1.65184e-07
4.09723e-07
2.83505e-07
7.0416e-07
7.46213e-07
1.12165e-06
5.32876e-07
5.11636e-07
4.93214e-07
4.8155e-07
4.68078e-07
4.63672e-07
4.74909e-07
4.89619e-07
4.03366e-07
1.51298e-07
7.44688e-09
1.57697e-12
0
0
0
9.84939e-06
0.000332125
0.000450836
0.0154051
0.0865685
0.252246
0.485547
0.67896
0.706217
0.508168
0.135295
0.277917
0.551794
0.580866
0.404383
0.183001
0.0469365
0.00435203
7.63793e-05
6.88088e-06
0
0
0
4.05257e-10
1.28719e-09
1.81127e-07
3.74693e-07
3.99028e-07
3.51556e-07
3.24695e-07
3.19469e-07
3.17101e-07
3.11109e-07
3.03433e-07
2.95971e-07
2.89061e-07
2.82537e-07
2.76398e-07
2.70903e-07
2.66088e-07
2.62042e-07
2.58819e-07
2.56389e-07
2.54748e-07
2.53656e-07
2.53085e-07
2.52574e-07
2.52623e-07
2.5189e-07
2.52477e-07
2.49578e-07
2.52614e-07
2.40851e-07
2.52677e-07
2.24359e-07
2.59561e-07
1.91657e-07
2.91444e-07
1.56382e-07
4.01107e-07
2.81619e-07
7.05355e-07
7.58577e-07
1.12976e-06
4.31128e-07
4.30371e-07
4.14251e-07
4.0342e-07
3.93952e-07
3.88427e-07
3.90525e-07
4.11284e-07
3.95443e-07
2.84799e-07
4.11456e-08
2.20561e-09
0
0
0
0
8.38752e-06
0.000316102
0.000460626
0.0150257
0.0823902
0.235125
0.441452
0.594972
0.581147
0.362638
0.0244016
0.323628
0.493388
0.445578
0.265695
0.0976187
0.0187927
0.000805368
5.79358e-05
0
0
0
1.02735e-12
4.68824e-09
5.0021e-08
2.23217e-07
2.97386e-07
2.72345e-07
2.4092e-07
2.29955e-07
2.27179e-07
2.23294e-07
2.17796e-07
2.1246e-07
2.07841e-07
2.03919e-07
2.00882e-07
1.98761e-07
1.97641e-07
1.97556e-07
1.98452e-07
2.00264e-07
2.02712e-07
2.05747e-07
2.08827e-07
2.12373e-07
2.15044e-07
2.18841e-07
2.19192e-07
2.24666e-07
2.16059e-07
2.29351e-07
2.04951e-07
2.40964e-07
1.78083e-07
2.7811e-07
1.48516e-07
3.94105e-07
2.78987e-07
7.08371e-07
7.65206e-07
1.13721e-06
3.5831e-07
3.59963e-07
3.47518e-07
3.40238e-07
3.34474e-07
3.28698e-07
3.23015e-07
3.22107e-07
3.30234e-07
3.46099e-07
3.08018e-07
1.50421e-07
7.75702e-09
1.55865e-12
0
0
0
0
8.95263e-06
0.000319238
0.00070957
0.016826
0.0854104
0.231437
0.413021
0.522371
0.461334
0.223132
0.0978313
0.347579
0.420937
0.318991
0.155365
0.0433455
0.00493015
0.000123995
5.40099e-06
0
0
0
8.5705e-11
7.60863e-11
8.8889e-08
1.83572e-07
1.90996e-07
1.6869e-07
1.56076e-07
1.52349e-07
1.49733e-07
1.46448e-07
1.43536e-07
1.41632e-07
1.40911e-07
1.41364e-07
1.43049e-07
1.45984e-07
1.50015e-07
1.55026e-07
1.60662e-07
1.66829e-07
1.7297e-07
1.79417e-07
1.84851e-07
1.91142e-07
1.9402e-07
2.01254e-07
1.95374e-07
2.09611e-07
1.88782e-07
2.24985e-07
1.67069e-07
2.66594e-07
1.4269e-07
3.88375e-07
2.76305e-07
7.12889e-07
7.66146e-07
1.14586e-06
2.9651e-07
2.9729e-07
2.85822e-07
2.80011e-07
2.76017e-07
2.72277e-07
2.68884e-07
2.64427e-07
2.61076e-07
2.63057e-07
2.77212e-07
2.787e-07
2.15532e-07
3.53982e-08
1.97242e-09
1.3538e-13
0
0
0
0
1.16941e-05
0.000325742
0.00136139
0.0212554
0.0955535
0.238025
0.392332
0.451008
0.341245
0.092063
0.182287
0.344058
0.332968
0.204613
0.0760094
0.0141333
0.000512794
5.12803e-05
0
0
0
6.6625e-14
3.53102e-09
3.58941e-08
1.00271e-07
1.18993e-07
1.06457e-07
9.48858e-08
9.04819e-08
8.87839e-08
8.77493e-08
8.78033e-08
8.95537e-08
9.3014e-08
9.79585e-08
1.04169e-07
1.11403e-07
1.19428e-07
1.27893e-07
1.36638e-07
1.45187e-07
1.53813e-07
1.61266e-07
1.6925e-07
1.73862e-07
1.82071e-07
1.78329e-07
1.92985e-07
1.75273e-07
2.11114e-07
1.57806e-07
2.56327e-07
1.37801e-07
3.83454e-07
2.72894e-07
7.17757e-07
7.59402e-07
1.15682e-06
2.47062e-07
2.47457e-07
2.38038e-07
2.33088e-07
2.29563e-07
2.26906e-07
2.24666e-07
2.21854e-07
2.18754e-07
2.15172e-07
2.14825e-07
2.19703e-07
2.35579e-07
2.09475e-07
1.27552e-07
2.21331e-09
1.98896e-10
0
0
0
0
0
6.13372e-05
8.21625e-05
0.00272216
0.0290824
0.112627
0.250849
0.370896
0.372491
0.218067
0.0307516
0.237355
0.307973
0.234749
0.110844
0.0284937
0.00266312
9.89225e-06
1.84312e-06
0
0
0
8.88262e-10
5.21547e-09
2.24621e-08
3.73129e-08
4.09573e-08
3.73787e-08
3.60169e-08
3.83217e-08
4.3208e-08
4.97657e-08
5.77196e-08
6.68074e-08
7.66504e-08
8.69066e-08
9.73937e-08
1.07854e-07
1.18252e-07
1.28232e-07
1.38111e-07
1.46732e-07
1.55541e-07
1.61148e-07
1.69612e-07
1.67503e-07
1.81973e-07
1.67192e-07
2.01805e-07
1.53365e-07
2.49465e-07
1.36945e-07
3.80803e-07
2.68801e-07
7.23849e-07
7.38444e-07
1.17981e-06
2.02054e-07
2.02825e-07
1.94117e-07
1.89611e-07
1.8644e-07
1.84708e-07
1.83287e-07
1.80487e-07
1.78832e-07
1.76955e-07
1.74171e-07
1.72089e-07
1.74784e-07
1.82927e-07
1.9052e-07
1.4895e-07
5.69118e-08
3.68664e-09
2.74287e-12
0
0
0
0
2.31211e-07
8.07808e-05
4.14146e-05
0.00540835
0.0420019
0.13623
0.263962
0.33819
0.278097
0.0907575
0.127103
0.254703
0.240138
0.137087
0.0443186
0.00623331
7.50059e-05
3.06025e-05
0
0
0
1.84297e-11
2.80697e-09
3.77777e-09
2.01731e-08
1.5563e-08
1.49998e-08
2.19996e-08
3.18249e-08
4.24023e-08
5.26267e-08
6.25501e-08
7.25195e-08
8.25244e-08
9.25109e-08
1.02269e-07
1.11855e-07
1.21034e-07
1.30117e-07
1.3812e-07
1.4614e-07
1.51208e-07
1.58526e-07
1.56651e-07
1.70043e-07
1.56814e-07
1.89959e-07
1.44042e-07
2.38956e-07
1.28462e-07
3.73742e-07
2.58371e-07
7.2285e-07
6.99922e-07
1.21746e-06
1.79362e-07
1.79494e-07
1.73561e-07
1.69964e-07
1.67288e-07
1.6532e-07
1.63775e-07
1.61405e-07
1.5957e-07
1.57606e-07
1.54871e-07
1.52278e-07
1.50058e-07
1.48885e-07
1.51251e-07
1.59379e-07
1.51164e-07
1.07096e-07
2.96419e-08
2.72278e-09
3.51063e-12
0
0
0
0
6.01428e-07
0.000177019
0.000319394
0.0114629
0.0629587
0.169893
0.283896
0.30948
0.193516
0.0285746
0.195517
0.244904
0.171146
0.0682863
0.0111198
7.0407e-05
5.84975e-05
3.06829e-05
5.7748e-06
1.20465e-07
0
5.13311e-11
9.69722e-11
4.34031e-08
8.51746e-08
8.02139e-08
7.236e-08
7.35135e-08
7.96205e-08
8.69178e-08
9.43763e-08
1.02039e-07
1.09952e-07
1.17941e-07
1.25931e-07
1.33767e-07
1.41644e-07
1.48789e-07
1.55847e-07
1.60361e-07
1.66617e-07
1.65367e-07
1.77149e-07
1.66221e-07
1.96132e-07
1.54853e-07
2.44455e-07
1.36904e-07
3.80975e-07
2.45175e-07
7.36666e-07
6.35523e-07
1.34866e-06
1.23771e-07
1.23135e-07
1.20499e-07
1.19963e-07
1.19729e-07
1.19643e-07
1.19973e-07
1.20549e-07
1.20979e-07
1.2112e-07
1.21249e-07
1.21716e-07
1.22219e-07
1.22624e-07
1.22948e-07
1.25486e-07
1.30717e-07
1.36407e-07
1.27937e-07
9.66443e-08
2.86436e-08
2.58814e-09
0
0
0
0
0
5.50426e-06
0.000153406
0.00044897
0.0098573
0.0480476
0.120666
0.191357
0.19815
0.11215
0.027952
0.134845
0.154488
0.102726
0.0427998
0.0109304
0.00145742
2.41681e-05
1.93815e-05
3.18755e-06
0
2.32091e-13
1.81527e-09
3.03871e-08
8.48251e-08
1.08072e-07
1.10142e-07
1.1007e-07
1.12211e-07
1.15462e-07
1.18902e-07
1.2235e-07
1.25784e-07
1.29175e-07
1.32468e-07
1.35865e-07
1.38897e-07
1.42056e-07
1.43e-07
1.44957e-07
1.4089e-07
1.49078e-07
1.36759e-07
1.63744e-07
1.20025e-07
2.08858e-07
9.16332e-08
3.39825e-07
2.03039e-07
6.70127e-07
6.34346e-07
1.33106e-06
)
;

boundaryField
{
    inlet
    {
        type            calculated;
        value           nonuniform List<scalar> 
27
(
7.08448e-06
7.09386e-06
7.11079e-06
7.13348e-06
7.15773e-06
7.18283e-06
7.2095e-06
7.23754e-06
7.26684e-06
7.2963e-06
7.32581e-06
7.3548e-06
7.38269e-06
7.40883e-06
7.4325e-06
7.45299e-06
7.47046e-06
7.43476e-06
7.43937e-06
7.43745e-06
7.42526e-06
7.40157e-06
7.36321e-06
7.30865e-06
7.2301e-06
7.15274e-06
6.99346e-06
)
;
    }
    outlet
    {
        type            calculated;
        value           nonuniform List<scalar> 
78
(
9.93144e-08
9.8546e-08
9.49003e-08
9.42259e-08
9.40368e-08
9.40758e-08
9.46629e-08
9.55835e-08
9.63384e-08
9.67523e-08
9.71692e-08
9.80212e-08
9.89954e-08
9.98772e-08
1.00666e-07
1.03288e-07
1.08229e-07
1.13623e-07
1.07187e-07
8.11688e-08
2.46249e-08
2.37322e-09
0
0
0
0
0
5.52978e-06
0.000153248
0.000416788
0.00975662
0.0478471
0.120466
0.191423
0.198755
0.113286
0.0258025
0.133369
0.153615
0.102409
0.0427658
0.010959
0.001475
1.99388e-05
1.83498e-05
3.00309e-06
0
1.92505e-13
1.51861e-09
2.63181e-08
7.46764e-08
9.56479e-08
9.75698e-08
9.73785e-08
9.89408e-08
1.01274e-07
1.03583e-07
1.05742e-07
1.07755e-07
1.09645e-07
1.11373e-07
1.13248e-07
1.14719e-07
1.166e-07
1.15989e-07
1.17383e-07
1.11278e-07
1.21368e-07
1.04246e-07
1.39074e-07
8.03753e-08
1.91223e-07
2.43749e-08
3.26767e-07
1.8188e-07
6.47039e-07
6.35629e-07
1.25852e-06
)
;
    }
    walls
    {
        type            calculated;
        value           nonuniform List<scalar> 0();
    }
    frontAndBack
    {
        type            empty;
    }
    procBoundary7to3
    {
        type            processor;
        value           nonuniform List<scalar> 
16
(
1.45329e-06
1.49135e-06
1.15051e-06
9.9896e-07
9.0268e-07
7.91239e-07
6.73001e-07
5.71321e-07
4.45473e-07
4.45473e-07
3.71752e-07
3.09257e-07
2.58387e-07
2.11787e-07
1.88375e-07
1.26392e-07
)
;
    }
    procBoundary7to6
    {
        type            processor;
        value           nonuniform List<scalar> 
91
(
1.08745e-06
8.56364e-07
8.56364e-07
8.2005e-07
8.2005e-07
3.37869e-07
3.37869e-07
3.08256e-07
5.60645e-07
5.60645e-07
4.43346e-07
5.15023e-07
5.15023e-07
6.27789e-07
5.51805e-07
5.47739e-07
5.47739e-07
7.34209e-07
6.86595e-07
6.31439e-07
6.31439e-07
9.4879e-07
8.80705e-07
8.15919e-07
7.54529e-07
7.54529e-07
1.23068e-06
1.15497e-06
1.08223e-06
1.01261e-06
9.46153e-07
9.46153e-07
1.61159e-06
1.53858e-06
1.46584e-06
1.39364e-06
1.32239e-06
1.25242e-06
1.18402e-06
1.18402e-06
2.02103e-06
1.98201e-06
1.94094e-06
1.89764e-06
1.85208e-06
1.80427e-06
1.75426e-06
1.70213e-06
1.64808e-06
1.59244e-06
1.53539e-06
1.47721e-06
1.47721e-06
2.7583e-10
0
0
0.000358332
0.000357887
0.0280466
0.207221
0.636609
1.23033
1.78431
2.09952
2.04014
1.56338
0.742395
0.287311
1.21102
1.82384
1.89814
1.43033
0.719486
0.19946
0.0207633
0.000727005
6.71801e-07
0
0
0
6.90572e-08
9.88995e-07
2.186e-06
2.19047e-06
1.93992e-06
1.85131e-06
1.83447e-06
1.81169e-06
1.78077e-06
1.75052e-06
1.75052e-06
)
;
    }
}


// ************************************************************************* //
