/*--------------------------------*- C++ -*----------------------------------*\
| =========                 |                                                 |
| \\      /  F ield         | OpenFOAM: The Open Source CFD Toolbox           |
|  \\    /   O peration     | Version:  2506                                  |
|   \\  /    A nd           | Website:  www.openfoam.com                      |
|    \\/     M anipulation  |                                                 |
\*---------------------------------------------------------------------------*/
FoamFile
{
    version     2.0;
    format      ascii;
    arch        "LSB;label=32;scalar=64";
    class       volScalarField;
    location    "250";
    object      nuTilda;
}
// * * * * * * * * * * * * * * * * * * * * * * * * * * * * * * * * * * * * * //

dimensions      [0 2 -1 0 0 0 0];

internalField   nonuniform List<scalar> 
1340
(
4.00639e-05
4.00653e-05
4.00645e-05
4.00292e-05
4.00664e-05
4.00653e-05
4.00255e-05
4.00291e-05
4.00677e-05
4.00662e-05
4.00087e-05
4.00129e-05
4.00253e-05
4.00289e-05
4.0069e-05
4.00674e-05
4.00182e-05
4.00101e-05
4.00086e-05
4.00128e-05
4.00251e-05
4.00286e-05
4.00704e-05
4.00687e-05
4.00419e-05
4.00348e-05
4.0027e-05
4.00189e-05
4.00106e-05
4.00086e-05
4.00127e-05
4.00249e-05
4.00283e-05
4.00718e-05
4.00702e-05
4.00593e-05
4.0054e-05
4.00491e-05
4.0043e-05
4.00359e-05
4.00279e-05
4.00197e-05
4.00111e-05
4.00086e-05
4.00125e-05
4.00247e-05
4.0028e-05
4.00733e-05
4.00718e-05
4.00824e-05
4.00785e-05
4.00734e-05
4.00672e-05
4.00607e-05
4.00553e-05
4.00503e-05
4.00442e-05
4.0037e-05
4.00289e-05
4.00206e-05
4.00116e-05
4.00086e-05
4.00123e-05
4.00244e-05
4.00276e-05
4.00748e-05
4.00737e-05
4.00941e-05
4.00927e-05
4.00911e-05
4.00891e-05
4.00868e-05
4.0084e-05
4.00801e-05
4.00751e-05
4.00688e-05
4.00622e-05
4.00566e-05
4.00516e-05
4.00455e-05
4.00382e-05
4.003e-05
4.00215e-05
4.00123e-05
4.00086e-05
4.00121e-05
4.00242e-05
4.00272e-05
4.00763e-05
4.00757e-05
4.00981e-05
4.00981e-05
4.00982e-05
4.00981e-05
4.00979e-05
4.00974e-05
4.00967e-05
4.00957e-05
4.00944e-05
4.00927e-05
4.00908e-05
4.00885e-05
4.00857e-05
4.00819e-05
4.00768e-05
4.00705e-05
4.00638e-05
4.00581e-05
4.0053e-05
4.00469e-05
4.00395e-05
4.00311e-05
4.00225e-05
4.0013e-05
4.00087e-05
4.00119e-05
4.0024e-05
4.00267e-05
4.00779e-05
4.00779e-05
4.00974e-05
4.00989e-05
4.0099e-05
4.0099e-05
4.00989e-05
4.00988e-05
4.00987e-05
4.00988e-05
4.0099e-05
4.00992e-05
4.00993e-05
4.00995e-05
4.00996e-05
4.00997e-05
4.00998e-05
4.00997e-05
4.00995e-05
4.00991e-05
4.00984e-05
4.00974e-05
4.00961e-05
4.00945e-05
4.00925e-05
4.00902e-05
4.00874e-05
4.00837e-05
4.00787e-05
4.00723e-05
4.00654e-05
4.00596e-05
4.00545e-05
4.00483e-05
4.00408e-05
4.00323e-05
4.00235e-05
4.00138e-05
4.00088e-05
4.00116e-05
4.00237e-05
4.00261e-05
4.00794e-05
4.00803e-05
9.19557e-06
2.37848e-06
0
0
0.000165848
0.000535011
0.0151897
0.0519569
0.107637
0.170078
0.228936
0.278619
0.316657
0.342574
0.357598
0.36405
0.364853
0.353318
0.320793
0.261611
0.179119
0.0919669
0.0292031
0.00108737
0.00031692
0
0
0
5.62825e-06
2.23146e-05
4.0775e-05
4.3014e-05
4.06075e-05
3.97685e-05
3.99785e-05
4.01314e-05
4.01236e-05
4.01038e-05
4.01023e-05
4.01021e-05
4.01003e-05
4.00998e-05
4.01002e-05
4.01004e-05
4.01005e-05
4.01005e-05
4.01007e-05
4.01009e-05
4.01011e-05
4.01012e-05
4.01013e-05
4.01014e-05
4.01014e-05
4.01013e-05
4.01009e-05
4.01002e-05
4.00992e-05
4.00979e-05
4.00963e-05
4.00944e-05
4.00921e-05
4.00893e-05
4.00856e-05
4.00806e-05
4.00742e-05
4.00672e-05
4.00613e-05
4.00561e-05
4.00498e-05
4.00423e-05
4.00336e-05
4.00247e-05
4.00146e-05
4.00091e-05
4.00114e-05
4.00234e-05
4.00255e-05
4.0081e-05
4.00829e-05
4.09352e-05
1.17974e-05
3.05192e-06
0
0
5.61476e-06
0.00189426
0.00741556
0.0340935
0.0830125
0.144451
0.20646
0.261058
0.304278
0.334753
0.353062
0.361815
0.363753
0.354608
0.325687
0.270398
0.190716
0.103913
0.0356726
0.00254853
0.000719502
0
0
0
4.12369e-06
1.59374e-05
3.90634e-05
4.37743e-05
4.11382e-05
3.97796e-05
3.98989e-05
4.01062e-05
4.01115e-05
4.00893e-05
4.00965e-05
4.01052e-05
4.01045e-05
4.01018e-05
4.01012e-05
4.01018e-05
4.01022e-05
4.01024e-05
4.01026e-05
4.01028e-05
4.01029e-05
4.0103e-05
4.01031e-05
4.01032e-05
4.01031e-05
4.01027e-05
4.01021e-05
4.01012e-05
4.00999e-05
4.00983e-05
4.00963e-05
4.0094e-05
4.00913e-05
4.00876e-05
4.00827e-05
4.00763e-05
4.00691e-05
4.0063e-05
4.00577e-05
4.00515e-05
4.00438e-05
4.0035e-05
4.00259e-05
4.00156e-05
4.00093e-05
4.00112e-05
4.00231e-05
4.00248e-05
4.00825e-05
4.00857e-05
4.33168e-05
4.09349e-05
1.51767e-05
3.94999e-06
0
0
0
0.000493866
0.00176817
0.0190896
0.0591924
0.117145
0.180993
0.24033
0.289141
0.324868
0.347472
0.359113
0.362351
0.355498
0.330071
0.278742
0.202221
0.115215
0.0426703
0.00509776
0.00138248
0
0
0
2.13626e-06
7.5399e-06
3.56557e-05
4.40232e-05
4.18494e-05
3.99102e-05
3.989e-05
4.01846e-05
4.01907e-05
4.01067e-05
4.00831e-05
4.00972e-05
4.01068e-05
4.01062e-05
4.01039e-05
4.01034e-05
4.01039e-05
4.01043e-05
4.01045e-05
4.01047e-05
4.01048e-05
4.01049e-05
4.0105e-05
4.01049e-05
4.01046e-05
4.01041e-05
4.01032e-05
4.01019e-05
4.01003e-05
4.00984e-05
4.00961e-05
4.00933e-05
4.00897e-05
4.00848e-05
4.00784e-05
4.00712e-05
4.00649e-05
4.00595e-05
4.00532e-05
4.00455e-05
4.00365e-05
4.00272e-05
4.00166e-05
4.00097e-05
4.00109e-05
4.00228e-05
4.00242e-05
4.00839e-05
4.00886e-05
4.03076e-05
4.2823e-05
4.0654e-05
2.22788e-05
5.77333e-06
0
0
0
1.97111e-05
0.00248674
0.00974655
0.0390359
0.0902977
0.153701
0.217023
0.271634
0.313193
0.340679
0.355562
0.360195
0.355488
0.333469
0.286168
0.212899
0.125856
0.049851
0.00808715
0.00213782
0
0
0
2.60474e-07
7.66997e-06
3.05352e-05
4.36534e-05
4.24625e-05
3.97368e-05
3.93343e-05
3.99168e-05
4.02188e-05
4.01865e-05
4.01064e-05
4.00866e-05
4.00981e-05
4.01065e-05
4.01071e-05
4.0106e-05
4.01058e-05
4.01062e-05
4.01066e-05
4.01067e-05
4.01068e-05
4.01069e-05
4.01069e-05
4.01066e-05
4.01061e-05
4.01052e-05
4.0104e-05
4.01024e-05
4.01005e-05
4.00982e-05
4.00955e-05
4.00919e-05
4.00871e-05
4.00807e-05
4.00733e-05
4.00669e-05
4.00614e-05
4.0055e-05
4.00473e-05
4.00381e-05
4.00286e-05
4.00177e-05
4.00101e-05
4.00107e-05
4.00225e-05
4.00235e-05
4.00853e-05
4.00917e-05
3.98944e-05
4.02698e-05
4.22084e-05
4.09298e-05
2.97588e-05
7.61406e-06
1.18634e-07
0
0
0
0.000827967
0.00307218
0.022268
0.0639032
0.123295
0.188968
0.249824
0.298797
0.332928
0.352426
0.359423
0.356539
0.337657
0.294562
0.224749
0.138123
0.0586024
0.0107859
0.00322426
9.46245e-05
0
0
0
6.41028e-06
2.53888e-05
4.26414e-05
4.54889e-05
4.21084e-05
3.97551e-05
3.95025e-05
3.99462e-05
4.01857e-05
4.0176e-05
4.01175e-05
4.00978e-05
4.01029e-05
4.01082e-05
4.01088e-05
4.01083e-05
4.01083e-05
4.01086e-05
4.01088e-05
4.01089e-05
4.01089e-05
4.01087e-05
4.01082e-05
4.01074e-05
4.01063e-05
4.01047e-05
4.01028e-05
4.01005e-05
4.00978e-05
4.00943e-05
4.00895e-05
4.00831e-05
4.00757e-05
4.0069e-05
4.00634e-05
4.0057e-05
4.00492e-05
4.00398e-05
4.00301e-05
4.0019e-05
4.00107e-05
4.00104e-05
4.00221e-05
4.00229e-05
4.00867e-05
4.0095e-05
4.00984e-05
3.99839e-05
4.01998e-05
4.11339e-05
4.11442e-05
3.69406e-05
1.68267e-05
4.4139e-06
4.27361e-08
0
0
0.000111336
0.00035065
0.008813
0.0324721
0.0758149
0.133897
0.197067
0.25546
0.302203
0.33406
0.351133
0.354183
0.34286
0.310647
0.253146
0.175386
0.0945434
0.0358988
0.00422478
0.00150118
2.81154e-05
0
0
7.64353e-07
6.00327e-06
2.13262e-05
3.87802e-05
4.41873e-05
4.23319e-05
4.00987e-05
3.95498e-05
3.98679e-05
4.01313e-05
4.01615e-05
4.01192e-05
4.0102e-05
4.01063e-05
4.0111e-05
4.01116e-05
4.01112e-05
4.01112e-05
4.01114e-05
4.01115e-05
4.01114e-05
4.0111e-05
4.01102e-05
4.01091e-05
4.01076e-05
4.01056e-05
4.01034e-05
4.01007e-05
4.00972e-05
4.00925e-05
4.00862e-05
4.00786e-05
4.00717e-05
4.00658e-05
4.00593e-05
4.00514e-05
4.0042e-05
4.00319e-05
4.00205e-05
4.00115e-05
4.00102e-05
4.00217e-05
4.00222e-05
4.00879e-05
4.00985e-05
4.01029e-05
4.00986e-05
4.0007e-05
4.00706e-05
4.05159e-05
4.19393e-05
4.00745e-05
3.37485e-05
6.90304e-06
1.88493e-06
0
0
2.6847e-06
7.10759e-05
0.00204065
0.00750242
0.02899
0.0692473
0.124883
0.187266
0.246451
0.294761
0.328202
0.345628
0.347024
0.330507
0.290459
0.225974
0.147988
0.0751795
0.0259423
0.00137975
0.000601334
0
0
0
5.61529e-07
5.82212e-06
2.18934e-05
3.98214e-05
4.46968e-05
4.22091e-05
4.00042e-05
3.96507e-05
3.99918e-05
4.01748e-05
4.01569e-05
4.01141e-05
4.01059e-05
4.01118e-05
4.0115e-05
4.01151e-05
4.01147e-05
4.01147e-05
4.01146e-05
4.01143e-05
4.01136e-05
4.01126e-05
4.01111e-05
4.01091e-05
4.01068e-05
4.01041e-05
4.01007e-05
4.00961e-05
4.00898e-05
4.00821e-05
4.00749e-05
4.00688e-05
4.00621e-05
4.00542e-05
4.00445e-05
4.00341e-05
4.00224e-05
4.00124e-05
4.00099e-05
4.00213e-05
4.00216e-05
4.00891e-05
4.01022e-05
4.00821e-05
4.00905e-05
4.0083e-05
4.00452e-05
4.00114e-05
4.03441e-05
4.11897e-05
4.20782e-05
3.88212e-05
2.54342e-05
6.5886e-06
9.96264e-08
0
0
0
6.39068e-05
0.00175157
0.00635339
0.0269064
0.0661919
0.121266
0.183765
0.24362
0.292643
0.326114
0.341585
0.338732
0.314167
0.264499
0.194428
0.118216
0.0537219
0.0135437
0.0038792
0.000117498
0
0
0
1.07352e-06
2.14842e-06
2.82031e-05
4.24047e-05
4.37258e-05
4.08848e-05
3.95859e-05
3.97612e-05
4.0102e-05
4.01773e-05
4.01361e-05
4.01119e-05
4.01126e-05
4.01165e-05
4.01178e-05
4.01181e-05
4.01182e-05
4.01179e-05
4.01172e-05
4.01162e-05
4.01147e-05
4.01128e-05
4.01105e-05
4.01078e-05
4.01044e-05
4.00999e-05
4.00936e-05
4.00858e-05
4.00783e-05
4.00719e-05
4.00651e-05
4.00571e-05
4.00472e-05
4.00364e-05
4.00243e-05
4.00136e-05
4.00098e-05
4.00208e-05
4.00209e-05
4.00901e-05
4.01059e-05
4.0077e-05
4.00807e-05
4.00799e-05
4.0061e-05
4.00083e-05
4.01371e-05
4.05754e-05
4.19099e-05
4.13465e-05
3.62377e-05
1.52088e-05
3.99202e-06
0
0
0
0
5.71475e-05
0.00173325
0.00631052
0.0269829
0.0665973
0.122239
0.185453
0.245761
0.294193
0.325418
0.33589
0.325742
0.291426
0.233047
0.159628
0.0865641
0.0338369
0.00545153
0.00163164
0
0
0
5.98253e-08
4.38289e-06
1.6518e-05
3.82559e-05
4.4889e-05
4.25355e-05
4.00816e-05
3.96512e-05
3.99818e-05
4.01597e-05
4.01539e-05
4.01266e-05
4.01214e-05
4.01221e-05
4.01213e-05
4.01209e-05
4.01211e-05
4.01209e-05
4.012e-05
4.01186e-05
4.01167e-05
4.01143e-05
4.01116e-05
4.01082e-05
4.01038e-05
4.00977e-05
4.00898e-05
4.00821e-05
4.00754e-05
4.00683e-05
4.00601e-05
4.00501e-05
4.0039e-05
4.00265e-05
4.0015e-05
4.00098e-05
4.00202e-05
4.00203e-05
4.00909e-05
4.01096e-05
4.00742e-05
4.00743e-05
4.00756e-05
4.00789e-05
4.00617e-05
4.00367e-05
3.99963e-05
4.02865e-05
4.10219e-05
4.21208e-05
4.00509e-05
2.93365e-05
7.57407e-06
1.12765e-07
0
0
0
0
5.99395e-05
0.00196028
0.00723107
0.0291522
0.0704697
0.127821
0.192068
0.251978
0.297818
0.324013
0.327634
0.307883
0.262902
0.196294
0.121611
0.0569837
0.0164498
0.0045306
0.000103204
0
0
0
6.36868e-07
7.03905e-07
2.80313e-05
4.28361e-05
4.35404e-05
4.0814e-05
3.97337e-05
3.98944e-05
4.0112e-05
4.01344e-05
4.01148e-05
4.01193e-05
4.01279e-05
4.01283e-05
4.01257e-05
4.01243e-05
4.01237e-05
4.01226e-05
4.01208e-05
4.01184e-05
4.01156e-05
4.01123e-05
4.0108e-05
4.0102e-05
4.00941e-05
4.00861e-05
4.0079e-05
4.00717e-05
4.00634e-05
4.00532e-05
4.00418e-05
4.00289e-05
4.00166e-05
4.00098e-05
4.00197e-05
4.00195e-05
4.00915e-05
4.01133e-05
4.00737e-05
4.00732e-05
4.00728e-05
4.00738e-05
4.00748e-05
4.00708e-05
4.00457e-05
3.99997e-05
4.00612e-05
4.04627e-05
4.16052e-05
4.17171e-05
3.73146e-05
1.62604e-05
4.27751e-06
3.32131e-08
0
0
0
0
7.25384e-05
0.00246517
0.00924934
0.0338483
0.0784339
0.138353
0.203332
0.261242
0.302324
0.320727
0.315062
0.283668
0.227146
0.154834
0.0833391
0.0314086
0.00452168
0.00134275
0
0
0
2.07687e-08
5.39659e-06
2.11888e-05
3.98306e-05
4.39198e-05
4.14649e-05
3.99005e-05
3.99379e-05
4.02054e-05
4.02071e-05
4.0128e-05
4.01061e-05
4.012e-05
4.01299e-05
4.01304e-05
4.01284e-05
4.01267e-05
4.01249e-05
4.01227e-05
4.01199e-05
4.01166e-05
4.01123e-05
4.01065e-05
4.00986e-05
4.00905e-05
4.00831e-05
4.00755e-05
4.0067e-05
4.00566e-05
4.00448e-05
4.00315e-05
4.00185e-05
4.00101e-05
4.0019e-05
4.00187e-05
4.00917e-05
4.0117e-05
4.00739e-05
4.00734e-05
4.0073e-05
4.00726e-05
4.00729e-05
4.00734e-05
4.00744e-05
4.0059e-05
4.0027e-05
3.99763e-05
4.01915e-05
4.07911e-05
4.22297e-05
3.97502e-05
3.18859e-05
4.5297e-06
1.30317e-06
0
0
0
0
0
0.000317791
0.000942317
0.0122932
0.0412554
0.0906817
0.153707
0.218541
0.272282
0.30578
0.31376
0.295953
0.251244
0.184618
0.111151
0.0492758
0.0126736
0.00345519
5.4086e-05
0
0
0
3.29874e-06
1.23572e-05
3.58803e-05
4.41151e-05
4.19726e-05
3.94828e-05
3.93713e-05
4.00098e-05
4.02694e-05
4.02146e-05
4.0139e-05
4.01222e-05
4.01287e-05
4.01324e-05
4.01316e-05
4.01295e-05
4.01271e-05
4.01243e-05
4.0121e-05
4.01168e-05
4.01111e-05
4.01034e-05
4.00951e-05
4.00873e-05
4.00793e-05
4.00707e-05
4.00601e-05
4.00481e-05
4.00343e-05
4.00205e-05
4.00106e-05
4.00184e-05
4.0018e-05
4.00918e-05
4.01205e-05
4.00745e-05
4.0074e-05
4.00736e-05
4.00732e-05
4.00729e-05
4.00725e-05
4.00734e-05
4.00742e-05
4.00715e-05
4.00442e-05
4.00026e-05
3.99984e-05
4.044e-05
4.14174e-05
4.21318e-05
3.72139e-05
2.3832e-05
6.19015e-06
1.41789e-07
0
0
0
0
1.00277e-05
0.000473814
0.00144464
0.0169022
0.052557
0.107693
0.173451
0.23614
0.282619
0.304666
0.299567
0.266429
0.207724
0.135128
0.067235
0.0220192
0.0022333
0.000531269
0
0
0
3.87074e-07
7.28897e-06
2.88355e-05
4.61252e-05
4.59909e-05
4.13734e-05
3.93522e-05
3.95404e-05
4.00314e-05
4.01885e-05
4.01675e-05
4.01394e-05
4.0134e-05
4.0135e-05
4.01344e-05
4.01322e-05
4.01293e-05
4.0126e-05
4.01219e-05
4.01164e-05
4.01088e-05
4.01005e-05
4.00924e-05
4.0084e-05
4.00751e-05
4.00643e-05
4.0052e-05
4.00377e-05
4.00233e-05
4.00115e-05
4.00176e-05
4.0017e-05
4.00908e-05
4.01241e-05
4.00755e-05
4.0075e-05
4.00746e-05
4.00742e-05
4.00738e-05
4.00734e-05
4.0073e-05
4.00732e-05
4.00744e-05
4.0075e-05
4.00631e-05
4.00265e-05
3.99702e-05
4.01656e-05
4.0832e-05
4.21607e-05
4.10658e-05
3.47349e-05
1.82227e-05
4.79797e-06
1.40814e-07
0
0
0
0
1.6265e-05
0.00131693
0.00481365
0.0260617
0.0694703
0.131514
0.200388
0.260546
0.299098
0.307968
0.286353
0.234781
0.161683
0.0860616
0.0264649
0.00060738
0.00110555
0.000403223
0.000132944
2.49647e-05
0
1.36252e-06
1.92515e-06
3.2386e-05
4.46155e-05
4.37177e-05
4.09478e-05
3.99391e-05
3.99711e-05
4.01144e-05
4.01519e-05
4.01454e-05
4.01395e-05
4.01376e-05
4.01359e-05
4.01332e-05
4.01299e-05
4.01258e-05
4.01205e-05
4.0113e-05
4.01047e-05
4.00963e-05
4.00875e-05
4.00783e-05
4.00675e-05
4.00549e-05
4.00403e-05
4.00251e-05
4.00123e-05
4.00175e-05
4.00164e-05
4.00919e-05
4.01267e-05
4.00755e-05
4.00751e-05
4.00749e-05
4.00746e-05
4.00744e-05
4.00742e-05
4.00739e-05
4.00737e-05
4.00735e-05
4.00745e-05
4.00756e-05
4.00763e-05
4.0051e-05
4.00112e-05
3.99782e-05
4.03566e-05
4.12355e-05
4.22402e-05
4.069e-05
3.44222e-05
1.70942e-05
4.24041e-06
0
0
0
0
0
5.73777e-05
0.00151118
0.00511869
0.0253909
0.0646448
0.119179
0.179119
0.231664
0.265897
0.273681
0.252828
0.205562
0.142185
0.0820707
0.0394126
0.0156508
0.00490539
0.000875856
0.000198611
0
6.42005e-08
5.7781e-06
2.21391e-05
3.62075e-05
4.07045e-05
4.07795e-05
4.02837e-05
4.01235e-05
4.01308e-05
4.01473e-05
4.01492e-05
4.0147e-05
4.01448e-05
4.01422e-05
4.01389e-05
4.01348e-05
4.01297e-05
4.01226e-05
4.01145e-05
4.01059e-05
4.00962e-05
4.00864e-05
4.00751e-05
4.00622e-05
4.00466e-05
4.00308e-05
4.00148e-05
4.00174e-05
4.0015e-05
4.00869e-05
4.01332e-05
)
;

boundaryField
{
    inlet
    {
        type            freestream;
        freestreamValue uniform 4e-05;
        value           nonuniform List<scalar> 
27
(
4.00639e-05
4.00645e-05
4.00653e-05
4.00662e-05
4.00674e-05
4.00687e-05
4.00702e-05
4.00718e-05
4.00737e-05
4.00757e-05
4.00779e-05
4.00803e-05
4.00829e-05
4.00857e-05
4.00886e-05
4.00917e-05
4.0095e-05
4.00985e-05
4.01022e-05
4.01059e-05
4.01096e-05
4.01133e-05
4.0117e-05
4.01205e-05
4.01241e-05
4.01267e-05
4.01332e-05
)
;
    }
    outlet
    {
        type            freestream;
        freestreamValue uniform 4e-05;
        value           nonuniform List<scalar> 
78
(
4.00755e-05
4.00751e-05
4.00749e-05
4.00746e-05
4.00744e-05
4.00742e-05
4.00739e-05
4.00737e-05
4.00735e-05
4.00745e-05
4.00756e-05
4.00763e-05
4.0051e-05
4.00112e-05
3.99782e-05
4.03566e-05
4.12355e-05
4.22402e-05
4.069e-05
3.44222e-05
1.70942e-05
4.24041e-06
0
0
0
0
0
5.73777e-05
0.00151118
0.00511869
0.0253909
0.0646448
0.119179
0.179119
0.231664
0.265897
0.273681
0.252828
0.205562
0.142185
0.0820707
0.0394126
0.0156508
0.00490539
0.000875856
0.000198611
0
6.42005e-08
5.7781e-06
2.21391e-05
3.62075e-05
4.07045e-05
4.07795e-05
4.02837e-05
4.01235e-05
4.01308e-05
4.01473e-05
4.01492e-05
4.0147e-05
4.01448e-05
4.01422e-05
4.01389e-05
4.01348e-05
4.01297e-05
4.01226e-05
4.01145e-05
4.01059e-05
4.00962e-05
4.00864e-05
4.00751e-05
4.00622e-05
4.00466e-05
4.00308e-05
4.00148e-05
4.00174e-05
4.0015e-05
4.00869e-05
4.01332e-05
)
;
    }
    walls
    {
        type            fixedValue;
        value           nonuniform List<scalar> 0();
    }
    frontAndBack
    {
        type            empty;
    }
    procBoundary7to3
    {
        type            processor;
        value           nonuniform List<scalar> 
16
(
3.98811e-05
4.32758e-05
4.04133e-05
3.9865e-05
4.00864e-05
4.01184e-05
4.00924e-05
4.00821e-05
4.00769e-05
4.00769e-05
4.0075e-05
4.00742e-05
4.00745e-05
4.00752e-05
4.00761e-05
4.0076e-05
)
;
    }
    procBoundary7to6
    {
        type            processor;
        value           nonuniform List<scalar> 
91
(
4.00634e-05
4.00641e-05
4.00641e-05
4.00293e-05
4.00293e-05
4.00257e-05
4.00257e-05
4.00088e-05
4.0013e-05
4.0013e-05
4.00175e-05
4.00097e-05
4.00097e-05
4.00409e-05
4.00338e-05
4.00262e-05
4.00262e-05
4.0058e-05
4.00528e-05
4.00479e-05
4.00479e-05
4.00808e-05
4.00769e-05
4.00719e-05
4.00657e-05
4.00657e-05
4.00925e-05
4.00911e-05
4.00895e-05
4.00875e-05
4.00852e-05
4.00852e-05
4.00966e-05
4.00966e-05
4.00967e-05
4.00966e-05
4.00963e-05
4.00958e-05
4.00951e-05
4.00951e-05
4.00989e-05
4.00983e-05
4.00978e-05
4.00975e-05
4.00973e-05
4.00972e-05
4.00973e-05
4.00974e-05
4.00975e-05
4.00977e-05
4.00978e-05
4.0098e-05
4.0098e-05
6.33889e-07
0
0
0.00100981
0.00392289
0.0264142
0.0722532
0.13204
0.193354
0.248358
0.293298
0.326678
0.348661
0.361112
0.366645
0.366076
0.351791
0.315465
0.252409
0.167339
0.0810238
0.022784
0.00598201
2.91534e-05
0
0
0
6.76123e-06
2.70253e-05
4.18921e-05
4.25239e-05
4.03404e-05
3.98126e-05
4.003e-05
4.01305e-05
4.01123e-05
4.0097e-05
4.0097e-05
)
;
    }
}


// ************************************************************************* //
