/*--------------------------------*- C++ -*----------------------------------*\
| =========                 |                                                 |
| \\      /  F ield         | OpenFOAM: The Open Source CFD Toolbox           |
|  \\    /   O peration     | Version:  2506                                  |
|   \\  /    A nd           | Website:  www.openfoam.com                      |
|    \\/     M anipulation  |                                                 |
\*---------------------------------------------------------------------------*/
FoamFile
{
    version     2.0;
    format      ascii;
    arch        "LSB;label=32;scalar=64";
    class       surfaceScalarField;
    location    "13";
    object      phi;
}
// * * * * * * * * * * * * * * * * * * * * * * * * * * * * * * * * * * * * * //

dimensions      [0 3 -1 0 0 0 0];

oriented        oriented;

internalField   nonuniform List<scalar> 
760
(
2.27501e-06
-2.27505e-06
-8.29305e-07
3.10431e-06
-7.93998e-06
7.11067e-06
-1.9226e-05
1.1286e-05
-3.68695e-05
1.76435e-05
-6.35293e-05
2.66598e-05
-0.000100894
3.73648e-05
-0.000147888
4.69935e-05
-0.000198801
5.09138e-05
-0.000243141
4.43393e-05
-0.000268647
2.55067e-05
-0.000267136
-1.51153e-06
-0.000229289
-3.78474e-05
-0.000161271
-6.80175e-05
-7.74786e-05
-8.37926e-05
-6.61422e-07
-7.68172e-05
4.8404e-05
-4.90655e-05
5.22765e-05
-3.87246e-06
2.49119e-05
2.73646e-05
2.49119e-05
-7.97863e-06
5.70357e-06
-2.89673e-05
2.4093e-05
-5.9534e-05
3.76773e-05
-0.00010084
5.25917e-05
-0.000156644
7.34474e-05
-0.000229447
9.94628e-05
-0.000317131
0.00012505
-0.000410902
0.000140764
-0.000496084
0.000136095
-0.000556407
0.000104662
-0.000579978
4.90779e-05
-0.000559532
-2.19575e-05
-0.00049358
-0.0001038
-0.000385939
-0.000175658
-0.00024943
-0.000220302
-0.000107698
-0.000218549
1.06092e-06
-0.000157824
4.90457e-05
-5.18572e-05
3.18785e-05
4.45317e-05
5.67905e-05
-2.17226e-05
2.74261e-05
-6.44397e-05
6.68102e-05
-0.000120333
9.35704e-05
-0.000191034
0.000123293
-0.000280286
0.000162699
-0.000388354
0.000207531
-0.000508732
0.000245428
-0.000627948
0.000259979
-0.000729316
0.000237464
-0.000798683
0.000174029
-0.000827115
7.75108e-05
-0.000809476
-3.95974e-05
-0.00074667
-0.000166605
-0.000637341
-0.000284987
-0.000484237
-0.000373407
-0.000300663
-0.000402123
-0.000120411
-0.000338076
-1.09488e-06
-0.000171174
2.36475e-05
1.97893e-05
8.0438e-05
-3.52807e-05
6.27069e-05
-9.81688e-05
0.000129698
-0.000176564
0.000171966
-0.000272109
0.000218838
-0.0003881
0.000278689
-0.000522714
0.000342145
-0.000666122
0.000388836
-0.000801919
0.000395776
-0.000913565
0.00034911
-0.000990736
0.0002512
-0.00102806
0.000114836
-0.00102158
-4.6079e-05
-0.000976389
-0.000211797
-0.000886336
-0.00037504
-0.000744018
-0.000515724
-0.000545581
-0.000600559
-0.00030682
-0.000576837
-8.6275e-05
-0.000391719
1.3472e-05
-7.99577e-05
9.39099e-05
-4.59938e-05
0.000108701
-0.000124562
0.000208267
-0.000220184
0.000267588
-0.000334241
0.000332895
-0.000469012
0.00041346
-0.000619717
0.00049285
-0.000772331
0.000541451
-0.000908134
0.000531579
-0.0010129
0.000453875
-0.00108251
0.000320814
-0.00111818
0.000150507
-0.00111965
-4.46148e-05
-0.00109579
-0.000235658
-0.00103955
-0.000431281
-0.000937767
-0.000617504
-0.000771562
-0.000766764
-0.000525281
-0.000823118
-0.000226507
-0.000690493
-1.33128e-05
-0.000293152
8.05972e-05
-5.18687e-05
0.000160569
-0.000139528
0.000295926
-0.000244933
0.000372993
-0.00036801
0.000455973
-0.000508333
0.000553782
-0.000656974
0.000641492
-0.000796856
0.000681332
-0.000910838
0.000645562
-0.000990638
0.000533674
-0.00103836
0.000368535
-0.00106125
0.000173404
-0.00106756
-3.83128e-05
-0.00105998
-0.00024324
-0.00103878
-0.000452477
-0.000992992
-0.00066329
-0.000895069
-0.000864687
-0.000706369
-0.00101182
-0.000406141
-0.000990721
-7.92878e-05
-0.000620005
1.30941e-06
-5.14089e-05
0.000211978
-0.000139777
0.000384294
-0.000245141
0.000478357
-0.000364441
0.000575272
-0.000493928
0.000683269
-0.000622337
0.000769901
-0.000733785
0.00079278
-0.000816246
0.000728023
-0.000867196
0.000584624
-0.000892125
0.000393465
-0.000900129
0.000181407
-0.000902918
-3.55235e-05
-0.000900537
-0.000245622
-0.000900606
-0.000452407
-0.000900997
-0.000662899
-0.000878594
-0.000887091
-0.000783753
-0.00110666
-0.000555077
-0.0012194
-0.000184086
-0.000990996
-0.000182776
-4.41258e-05
0.000256104
-0.000124171
0.000464339
-0.000219234
0.000573421
-0.000322736
0.000678774
-0.000428906
0.000789438
-0.000527602
0.000868597
-0.000607587
0.000872765
-0.000662642
0.000783078
-0.000693963
0.000615945
-0.000707507
0.000407009
-0.000710278
0.000184178
-0.000708653
-3.71484e-05
-0.000705475
-0.0002488
-0.000709127
-0.000448755
-0.000727415
-0.000644611
-0.000752953
-0.000861552
-0.000740083
-0.00111953
-0.000607264
-0.00135222
-0.000292905
-0.00130536
-0.000475681
-3.10672e-05
0.000287171
-9.47451e-05
0.000528017
-0.000171215
0.00064989
-0.000250785
0.000758344
-0.000327292
0.000865945
-0.000394309
0.000935614
-0.000446522
0.000924978
-0.000482747
0.000819303
-0.00050562
0.000638818
-0.000519079
0.000420468
-0.000526264
0.000191362
-0.000527553
-3.5859e-05
-0.000525521
-0.000250831
-0.000526485
-0.000447792
-0.00054353
-0.000627566
-0.000584485
-0.000820597
-0.000621763
-0.00108225
-0.000572468
-0.00140151
-0.000351313
-0.00152651
-0.000826994
-1.43904e-05
0.000301562
-5.59877e-05
0.000569615
-0.000108631
0.000702534
-0.000160129
0.000809842
-0.000204829
0.000910645
-0.000241059
0.000971844
-0.000269114
0.000953034
-0.000291275
0.000841463
-0.000309947
0.00065749
-0.000326334
0.000436855
-0.000340086
0.000205115
-0.000349131
-2.68149e-05
-0.000353459
-0.000246503
-0.000356651
-0.000444601
-0.000371051
-0.000613166
-0.000414501
-0.000777147
-0.000479254
-0.0010175
-0.00049092
-0.00138984
-0.000335865
-0.00168157
-0.00116286
3.59964e-06
0.000297962
-1.36453e-05
0.00058686
-4.03246e-05
0.000729213
-6.27224e-05
0.00083224
-7.59297e-05
0.000923852
-8.26045e-05
0.000978519
-8.77625e-05
0.000958192
-9.48874e-05
0.000848588
-0.000106236
0.000668839
-0.000121625
0.000452244
-0.000138949
0.00022244
-0.000157067
-8.69749e-06
-0.000172794
-0.000230775
-0.000188374
-0.000429021
-0.000209851
-0.000591689
-0.000256489
-0.000730509
-0.000336984
-0.000937004
-0.000391853
-0.00133498
-0.000293065
-0.00178035
-0.00145592
1.788e-05
0.000280082
2.44563e-05
0.000580283
2.40324e-05
0.000729637
2.98895e-05
0.000826383
4.70112e-05
0.000906731
7.11728e-05
0.000954357
9.30634e-05
0.000936301
0.000105322
0.00083633
0.000105256
0.000668905
9.48427e-05
0.000462657
7.70251e-05
0.000240257
5.2173e-05
1.61547e-05
2.41739e-05
-0.000202776
-8.76617e-06
-0.000396081
-5.2748e-05
-0.000547707
-0.000113343
-0.000669913
-0.000208228
-0.000842119
-0.000294852
-0.00124835
-0.000246274
-0.00182893
-0.0017022
2.72931e-05
0.000252789
5.36523e-05
0.000553924
7.57277e-05
0.000707561
0.000106082
0.000796028
0.00015134
0.000861473
0.000206162
0.000899535
0.000257601
0.000884862
0.000294068
0.000799862
0.00031105
0.000651923
0.000310029
0.000463679
0.000293633
0.000256653
0.000262673
4.71141e-05
0.000218464
-0.000158566
0.000162289
-0.000339906
9.65209e-05
-0.000481939
1.33032e-05
-0.000586696
-9.44945e-05
-0.000734321
-0.000206563
-0.00113628
-0.000200364
-0.00183513
-0.00190256
2.99914e-05
0.000222797
6.97291e-05
0.000514186
0.000110511
0.000666779
0.000161388
0.000745152
0.000228848
0.000794013
0.00030863
0.000819753
0.000387191
0.000806301
0.000449889
0.000737165
0.000488526
0.000613287
0.000501785
0.000450419
0.000491176
0.000267262
0.00045786
8.04294e-05
0.000400928
-0.000101634
0.000324911
-0.00026389
0.000234112
-0.00039114
0.000132031
-0.000484614
5.44271e-06
-0.000607733
-0.00012653
-0.00100431
-0.000157484
-0.00180418
-0.00206005
2.46985e-05
0.000198099
6.76399e-05
0.000471245
0.000120515
0.000613904
0.000187234
0.000678433
0.000271694
0.000709552
0.000370329
0.000721119
0.000470873
0.000705756
0.000557469
0.000650569
0.000618405
0.00055235
0.000648556
0.000420269
0.000647218
0.000268599
0.000615562
0.000112086
0.000551343
-3.74151e-05
0.000460992
-0.000173539
0.000350245
-0.000280392
0.000228329
-0.000362699
9.10289e-05
-0.000470433
-5.20861e-05
-0.000861194
-0.000115248
-0.00174102
-0.00217529
1.24526e-05
0.000185646
4.94156e-05
0.000434282
0.000109702
0.000553618
0.000187773
0.000600361
0.000283794
0.000613531
0.000394006
0.000610907
0.000508187
0.000591576
0.000611653
0.000547104
0.000690932
0.000473071
0.000737661
0.00037354
0.000747781
0.000258479
0.000721021
0.000138847
0.000658424
2.51817e-05
0.000561534
-7.66493e-05
0.00043986
-0.000158718
0.000306458
-0.000229297
0.000166921
-0.000330896
1.4546e-05
-0.00070882
-5.86042e-05
-0.00166787
-0.0022339
-1.55023e-05
0.000201148
-4.26854e-07
0.000419207
5.88365e-05
0.000494355
0.000150818
0.00050838
0.0002617
0.000502649
0.000383548
0.000489059
0.000507654
0.00046747
0.000622413
0.000432344
0.000714792
0.000380692
0.000775386
0.000312946
0.000797696
0.000236169
0.000780346
0.000156197
0.000723555
8.19721e-05
0.00063123
1.5676e-05
0.000511751
-3.92395e-05
0.000382086
-9.96315e-05
0.000257711
-0.000206521
0.000138289
-0.000589397
2.76564e-05
-0.00155723
-0.00220624
-3.78443e-05
0.000238993
-3.76684e-05
0.000419031
1.75914e-05
0.000439095
0.000111092
0.00041488
0.000226763
0.000386978
0.000352561
0.000363261
0.000479154
0.000340877
0.000597812
0.000313686
0.000696946
0.000281558
0.00076852
0.000241371
0.000805656
0.000199034
0.000807535
0.000154318
0.00077423
0.000115277
0.000711055
7.88512e-05
0.000625321
4.6494e-05
0.000535467
-9.77766e-06
0.000451922
-0.000122975
0.000347923
-0.000485398
0.000165492
-0.0013748
-0.00204075
-0.00039816
0.000637153
-0.000362688
0.000383558
-0.000196838
0.000273245
-1.70904e-05
0.000235132
0.00015749
0.000212398
0.000327878
0.000192872
0.000492077
0.000176679
0.000646122
0.000159641
0.000783285
0.000144396
0.000899043
0.000125612
0.000988683
0.000109394
0.00105235
9.0651e-05
0.00108916
7.84692e-05
0.00110477
6.3242e-05
0.00110103
5.02336e-05
0.00107392
1.73301e-05
0.00103479
-8.38434e-05
0.000933761
-0.000384372
0.000532524
-0.000973565
-0.00150823
0.000637153
0.00102071
0.00129396
0.00152909
0.00174149
0.00193436
0.00211104
0.00227068
0.00241507
0.00254069
0.00265008
0.00274073
0.0028192
0.00288244
0.00293268
0.00295001
0.00286616
0.00248179
0.00150823
)
;

boundaryField
{
    movingWall
    {
        type            calculated;
        value           uniform 0;
    }
    fixedWalls
    {
        type            calculated;
        value           uniform 0;
    }
    frontAndBack
    {
        type            empty;
    }
}


// ************************************************************************* //
