/*--------------------------------*- C++ -*----------------------------------*\
| =========                 |                                                 |
| \\      /  F ield         | OpenFOAM: The Open Source CFD Toolbox           |
|  \\    /   O peration     | Version:  2506                                  |
|   \\  /    A nd           | Website:  www.openfoam.com                      |
|    \\/     M anipulation  |                                                 |
\*---------------------------------------------------------------------------*/
FoamFile
{
    version     2.0;
    format      ascii;
    arch        "LSB;label=32;scalar=64";
    class       volVectorField;
    location    "13";
    object      U;
}
// * * * * * * * * * * * * * * * * * * * * * * * * * * * * * * * * * * * * * //

dimensions      [0 1 -1 0 0 0 0];

internalField   nonuniform List<vector> 
400
(
(0.000390533 -0.000519486 0)
(0.000399495 -0.000238426 0)
(-0.00070357 1.06098e-05 0)
(-0.00250994 0.00024567 0)
(-0.00531599 0.000654876 0)
(-0.00967836 0.00133329 0)
(-0.016101 0.00230339 0)
(-0.0247201 0.0034576 0)
(-0.0348852 0.00443446 0)
(-0.0448747 0.0046337 0)
(-0.0522266 0.00353511 0)
(-0.0546162 0.00116866 0)
(-0.0505067 -0.0017294 0)
(-0.0395653 -0.00457267 0)
(-0.024096 -0.00620045 0)
(-0.007018 -0.00567466 0)
(0.00645451 -0.00323304 0)
(0.0117006 0.000808158 0)
(0.00842313 0.00311613 0)
(0.00248318 0.00244968 0)
(-0.000419382 -0.000239604 0)
(-0.00305289 0.00170831 0)
(-0.00835366 0.00323015 0)
(-0.0154642 0.00486964 0)
(-0.0250084 0.00730893 0)
(-0.0378561 0.0106663 0)
(-0.0542484 0.014482 0)
(-0.0731393 0.0176251 0)
(-0.0919285 0.0184377 0)
(-0.107115 0.0154778 0)
(-0.115571 0.0084826 0)
(-0.115433 -0.0012831 0)
(-0.106481 -0.0118344 0)
(-0.0887264 -0.0213063 0)
(-0.0643045 -0.0267968 0)
(-0.0359984 -0.0256273 0)
(-0.00879725 -0.0168991 0)
(0.00884778 -0.00275914 0)
(0.0103316 0.00819633 0)
(0.00356731 0.00826465 0)
(-0.00160035 0.00280399 0)
(-0.00763608 0.0082959 0)
(-0.0177194 0.0122213 0)
(-0.0302815 0.016584 0)
(-0.0461296 0.0225539 0)
(-0.0660427 0.0297348 0)
(-0.0895801 0.0364147 0)
(-0.114622 0.0400035 0)
(-0.137699 0.0379037 0)
(-0.155217 0.0287696 0)
(-0.16467 0.0134442 0)
(-0.165128 -0.0055927 0)
(-0.156793 -0.0257602 0)
(-0.13941 -0.044059 0)
(-0.113503 -0.0563218 0)
(-0.0800593 -0.0577452 0)
(-0.0422091 -0.0441865 0)
(-0.0078115 -0.0171073 0)
(0.00707338 0.00873847 0)
(0.00349295 0.0142457 0)
(-0.00277472 0.00865034 0)
(-0.0120727 0.0190855 0)
(-0.0265105 0.0259357 0)
(-0.0437683 0.0335543 0)
(-0.0647929 0.0434954 0)
(-0.0902359 0.0545063 0)
(-0.119076 0.0633691 0)
(-0.148397 0.0659782 0)
(-0.17424 0.0591724 0)
(-0.193293 0.0426523 0)
(-0.20399 0.0188571 0)
(-0.206345 -0.0092623 0)
(-0.200899 -0.0391022 0)
(-0.187271 -0.0672499 0)
(-0.164436 -0.089163 0)
(-0.131155 -0.0983522 0)
(-0.0873425 -0.0868112 0)
(-0.037234 -0.0494223 0)
(0.00054972 -0.0010287 0)
(0.00412794 0.018372 0)
(-0.00367477 0.0169199 0)
(-0.0155392 0.0334275 0)
(-0.0333279 0.0435467 0)
(-0.0540819 0.0547544 0)
(-0.0788645 0.0688628 0)
(-0.108117 0.0833331 0)
(-0.14004 0.0930374 0)
(-0.170647 0.0925958 0)
(-0.195591 0.0794924 0)
(-0.212615 0.0555107 0)
(-0.221926 0.0242954 0)
(-0.224783 -0.0114955 0)
(-0.222301 -0.0495357 0)
(-0.214128 -0.086764 0)
(-0.198754 -0.119671 0)
(-0.172833 -0.141463 0)
(-0.132744 -0.141068 0)
(-0.0767418 -0.104015 0)
(-0.0135474 -0.0286999 0)
(0.0057976 0.0189175 0)
(-0.00409286 0.0268278 0)
(-0.0174328 0.0502102 0)
(-0.0371531 0.0638279 0)
(-0.0597361 0.078702 0)
(-0.0861291 0.096633 0)
(-0.116248 0.113376 0)
(-0.14727 0.121996 0)
(-0.174432 0.116877 0)
(-0.194018 0.0972417 0)
(-0.2057 0.0669278 0)
(-0.211453 0.030265 0)
(-0.213347 -0.0101667 0)
(-0.212805 -0.0523387 0)
(-0.20978 -0.0948325 0)
(-0.203688 -0.136413 0)
(-0.190043 -0.172352 0)
(-0.162435 -0.191057 0)
(-0.114108 -0.170513 0)
(-0.0438682 -0.0865285 0)
(0.00460697 0.0110453 0)
(-0.00388115 0.0372795 0)
(-0.0173052 0.0679703 0)
(-0.0371653 0.0850782 0)
(-0.0593903 0.103151 0)
(-0.0845498 0.123801 0)
(-0.112059 0.141128 0)
(-0.138534 0.147038 0)
(-0.159332 0.136514 0)
(-0.172086 0.110697 0)
(-0.178138 0.0751064 0)
(-0.180174 0.0347517 0)
(-0.18018 -0.00744582 0)
(-0.179627 -0.04974 0)
(-0.179373 -0.0925062 0)
(-0.180232 -0.13681 0)
(-0.178698 -0.182225 0)
(-0.16711 -0.220811 0)
(-0.135892 -0.228751 0)
(-0.0794913 -0.163931 0)
(-0.00454776 -0.0110124 0)
(-0.00300492 0.0469878 0)
(-0.0150111 0.085019 0)
(-0.0331224 0.10534 0)
(-0.0528098 0.125672 0)
(-0.074227 0.147594 0)
(-0.0966833 0.164037 0)
(-0.116995 0.166422 0)
(-0.13137 0.150642 0)
(-0.138868 0.119446 0)
(-0.141681 0.0795747 0)
(-0.142163 0.0364894 0)
(-0.14144 -0.00674097 0)
(-0.140372 -0.0484949 0)
(-0.140282 -0.0891515 0)
(-0.143235 -0.130724 0)
(-0.148566 -0.177338 0)
(-0.14977 -0.228443 0)
(-0.135866 -0.264746 0)
(-0.0991361 -0.233325 0)
(-0.0230442 -0.0565738 0)
(-0.00158926 0.0546758 0)
(-0.0108405 0.0996372 0)
(-0.025597 0.122734 0)
(-0.0411113 0.144207 0)
(-0.057197 0.16609 0)
(-0.0734437 0.180857 0)
(-0.0874691 0.179914 0)
(-0.0967246 0.160017 0)
(-0.101332 0.124982 0)
(-0.103474 0.0821277 0)
(-0.104629 0.0369477 0)
(-0.104874 -0.00768747 0)
(-0.1043 -0.0500941 0)
(-0.103766 -0.0893022 0)
(-0.105987 -0.126631 0)
(-0.113122 -0.16861 0)
(-0.121767 -0.223292 0)
(-0.120257 -0.281559 0)
(-0.0991988 -0.288868 0)
(-0.0332047 -0.129674 0)
(7.82008e-05 0.0593881 0)
(-0.00546059 0.110482 0)
(-0.0157524 0.135962 0)
(-0.0261488 0.157636 0)
(-0.0361262 0.178586 0)
(-0.0457568 0.191621 0)
(-0.0537903 0.188432 0)
(-0.0589478 0.166291 0)
(-0.0619205 0.12937 0)
(-0.0643213 0.0850534 0)
(-0.0666892 0.038687 0)
(-0.0684197 -0.00716869 0)
(-0.0692766 -0.0508375 0)
(-0.0694715 -0.0899495 0)
(-0.0712537 -0.124127 0)
(-0.0781653 -0.159506 0)
(-0.0909046 -0.210998 0)
(-0.0979924 -0.283073 0)
(-0.0905363 -0.327704 0)
(-0.0299573 -0.205355 0)
(0.00160901 0.0605269 0)
(0.000205558 0.116565 0)
(-0.00503156 0.144106 0)
(-0.0100126 0.165219 0)
(-0.0137298 0.18462 0)
(-0.0166645 0.196249 0)
(-0.0187324 0.192163 0)
(-0.0198757 0.169701 0)
(-0.0210848 0.13288 0)
(-0.0231929 0.0887029 0)
(-0.0260459 0.0421889 0)
(-0.0290593 -0.00426 0)
(-0.0319173 -0.0488133 0)
(-0.0346051 -0.0884335 0)
(-0.0381031 -0.121014 0)
(-0.0453927 -0.150659 0)
(-0.0608907 -0.195565 0)
(-0.073834 -0.274614 0)
(-0.0787998 -0.351102 0)
(-0.0228969 -0.26738 0)
(0.00273595 0.0583417 0)
(0.00528359 0.117773 0)
(0.00509482 0.147093 0)
(0.00534175 0.167212 0)
(0.00762484 0.184642 0)
(0.0112424 0.195117 0)
(0.0151999 0.191324 0)
(0.0186347 0.170202 0)
(0.0202793 0.135135 0)
(0.0196756 0.0924035 0)
(0.0173356 0.0467265 0)
(0.0135856 0.000589361 0)
(0.00871766 -0.0435686 0)
(0.0025035 -0.0828082 0)
(-0.00506403 -0.11409 0)
(-0.0148742 -0.139789 0)
(-0.033705 -0.177631 0)
(-0.0509335 -0.259143 0)
(-0.0677182 -0.363294 0)
(-0.0153445 -0.319427 0)
(0.0031901 0.0536375 0)
(0.00886156 0.114369 0)
(0.0131913 0.144811 0)
(0.0181126 0.163424 0)
(0.0256639 0.178298 0)
(0.0352986 0.187372 0)
(0.0452337 0.184572 0)
(0.0538464 0.16628 0)
(0.0595355 0.134627 0)
(0.0616785 0.0948091 0)
(0.0606619 0.0512997 0)
(0.056722 0.00685867 0)
(0.0500615 -0.035613 0)
(0.0404559 -0.0732805 0)
(0.0277635 -0.102853 0)
(0.0133781 -0.125257 0)
(-0.00971726 -0.156928 0)
(-0.0291919 -0.237916 0)
(-0.0576361 -0.365545 0)
(-0.0075954 -0.361549 0)
(0.00286907 0.0476507 0)
(0.0103147 0.107517 0)
(0.0182396 0.138617 0)
(0.0270497 0.155595 0)
(0.0387975 0.167325 0)
(0.0533663 0.174176 0)
(0.0687366 0.171969 0)
(0.0826293 0.157019 0)
(0.0929992 0.129965 0)
(0.0987437 0.0945841 0)
(0.0997951 0.0549315 0)
(0.096326 0.0141227 0)
(0.0882255 -0.0249228 0)
(0.0755423 -0.0593393 0)
(0.0582397 -0.0865897 0)
(0.0387034 -0.106488 0)
(0.0105468 -0.133094 0)
(-0.00841134 -0.21274 0)
(-0.048693 -0.362381 0)
(0.000639992 -0.398046 0)
(0.00176751 0.0418889 0)
(0.00908572 0.0986731 0)
(0.0189262 0.12828 0)
(0.0305732 0.142791 0)
(0.0455255 0.151101 0)
(0.0637788 0.155253 0)
(0.0834799 0.152955 0)
(0.102049 0.141144 0)
(0.116986 0.119365 0)
(0.126649 0.0899376 0)
(0.130265 0.0561058 0)
(0.12797 0.0209869 0)
(0.119189 -0.0128808 0)
(0.104517 -0.0426035 0)
(0.0835925 -0.0662703 0)
(0.0599769 -0.084028 0)
(0.027525 -0.106815 0)
(0.0120028 -0.185254 0)
(-0.040329 -0.357185 0)
(0.0104005 -0.431143 0)
(-8.58537e-05 0.0375882 0)
(0.00545869 0.0905018 0)
(0.0159249 0.118054 0)
(0.0294937 0.129688 0)
(0.0466902 0.134121 0)
(0.0672583 0.134908 0)
(0.0896397 0.131449 0)
(0.111394 0.121671 0)
(0.129856 0.104678 0)
(0.142988 0.0816171 0)
(0.149359 0.0547886 0)
(0.148751 0.0267594 0)
(0.14039 -0.000257827 0)
(0.125386 -0.0239826 0)
(0.102532 -0.0430963 0)
(0.0768145 -0.0587298 0)
(0.0421082 -0.0799315 0)
(0.0311864 -0.159173 0)
(-0.0315618 -0.353642 0)
(0.0239502 -0.460487 0)
(-0.0030678 0.0401359 0)
(-0.00400079 0.0838592 0)
(0.00440258 0.10224 0)
(0.0205143 0.109377 0)
(0.0407716 0.110932 0)
(0.0640037 0.10964 0)
(0.0885985 0.10565 0)
(0.11256 0.0978416 0)
(0.133459 0.0855016 0)
(0.149256 0.0690375 0)
(0.158112 0.0500359 0)
(0.159632 0.0301489 0)
(0.152556 0.0113311 0)
(0.138833 -0.005439 0)
(0.116057 -0.019246 0)
(0.0917273 -0.0329523 0)
(0.057863 -0.0550312 0)
(0.0502201 -0.135969 0)
(-0.0162225 -0.345718 0)
(0.0462873 -0.475867 0)
(-0.00577251 0.0316113 0)
(-0.00813653 0.0867286 0)
(-0.00381141 0.100119 0)
(0.0115538 0.0980035 0)
(0.0329933 0.0933177 0)
(0.057306 0.0885464 0)
(0.0826972 0.0833636 0)
(0.107267 0.0766152 0)
(0.129189 0.0679338 0)
(0.146742 0.0570287 0)
(0.157805 0.0451426 0)
(0.162952 0.0328262 0)
(0.159284 0.0217676 0)
(0.151676 0.0117506 0)
(0.133277 0.00313239 0)
(0.118525 -0.00921662 0)
(0.0875559 -0.0352653 0)
(0.0813254 -0.120851 0)
(0.0239157 -0.318627 0)
(0.0872578 -0.450129 0)
(-0.100043 0.0919065 0)
(-0.0741843 0.0745391 0)
(-0.0557568 0.0630104 0)
(-0.0209766 0.0585851 0)
(0.0135611 0.0549301 0)
(0.0483319 0.0514157 0)
(0.0814282 0.048035 0)
(0.113868 0.044064 0)
(0.141873 0.0398465 0)
(0.168907 0.0346574 0)
(0.187571 0.0295488 0)
(0.206423 0.0241825 0)
(0.212595 0.0199099 0)
(0.223082 0.0159439 0)
(0.214745 0.0121171 0)
(0.21883 0.003467 0)
(0.189434 -0.0208535 0)
(0.192554 -0.0862185 0)
(0.140734 -0.22812 0)
(0.168594 -0.340532 0)
(0.133696 0.107155 0)
(0.166612 0.0829404 0)
(0.22461 0.0612457 0)
(0.281057 0.0478273 0)
(0.326904 0.0396628 0)
(0.369291 0.0337529 0)
(0.403564 0.0296033 0)
(0.439622 0.0258583 0)
(0.466225 0.0232424 0)
(0.497755 0.0202792 0)
(0.515929 0.018435 0)
(0.542848 0.0157542 0)
(0.551092 0.0146881 0)
(0.573662 0.01224 0)
(0.569435 0.0118925 0)
(0.5848 0.00787381 0)
(0.555194 0.00329376 0)
(0.543138 -0.0156816 0)
(0.438482 -0.048691 0)
(0.339209 -0.100429 0)
)
;

boundaryField
{
    movingWall
    {
        type            fixedValue;
        value           uniform (1 0 0);
    }
    fixedWalls
    {
        type            noSlip;
    }
    frontAndBack
    {
        type            empty;
    }
}


// ************************************************************************* //
