/*--------------------------------*- C++ -*----------------------------------*\
| =========                 |                                                 |
| \\      /  F ield         | OpenFOAM: The Open Source CFD Toolbox           |
|  \\    /   O peration     | Version:  2506                                  |
|   \\  /    A nd           | Website:  www.openfoam.com                      |
|    \\/     M anipulation  |                                                 |
\*---------------------------------------------------------------------------*/
FoamFile
{
    version     2.0;
    format      ascii;
    arch        "LSB;label=32;scalar=64";
    class       surfaceScalarField;
    location    "199.976811410189782";
    object      phi_0;
}
// * * * * * * * * * * * * * * * * * * * * * * * * * * * * * * * * * * * * * //

dimensions      [0 3 -1 0 0 0 0];

oriented        oriented;

internalField   nonuniform List<scalar> 
19160
(
-0.000568785
-0.233833
-0.00113706
-0.23383
-0.000572507
-0.23326
-0.00169866
-0.233856
-0.00114501
-0.233258
-0.000577184
-0.232683
-0.00225513
-0.233871
-0.00171495
-0.233286
-0.00115523
-0.23268
-0.000582018
-0.232101
-0.00279692
-0.233921
-0.00228274
-0.233303
-0.00173372
-0.232708
-0.00116651
-0.232095
-0.000586133
-0.231515
-0.0033214
-0.23398
-0.00284374
-0.23336
-0.00231314
-0.232724
-0.00175417
-0.23212
-0.00117638
-0.231505
-0.000588404
-0.230927
-0.00381492
-0.234054
-0.0033956
-0.233428
-0.00289239
-0.232781
-0.00234746
-0.23213
-0.00177244
-0.231524
-0.00118242
-0.230911
-0.000586806
-0.23034
-0.00426574
-0.234186
-0.00393015
-0.233519
-0.00347032
-0.23285
-0.00294766
-0.232181
-0.00237888
-0.231524
-0.0017846
-0.230922
-0.00118035
-0.230317
-0.000581274
-0.229758
-0.00465065
-0.234348
-0.00443868
-0.233678
-0.00404355
-0.232946
-0.00355676
-0.232241
-0.00299929
-0.231561
-0.00240147
-0.230907
-0.00178386
-0.230318
-0.0011699
-0.229729
-0.000571146
-0.229187
-0.00494109
-0.234601
-0.00490464
-0.233882
-0.00460734
-0.233114
-0.00417587
-0.232327
-0.00363897
-0.231601
-0.00303871
-0.230923
-0.0024054
-0.230286
-0.00176959
-0.229719
-0.00114968
-0.22915
-0.000555267
-0.228632
-0.00509349
-0.23494
-0.00530508
-0.234201
-0.00515269
-0.233336
-0.00480626
-0.232483
-0.00430369
-0.231662
-0.00370472
-0.230935
-0.00305228
-0.230277
-0.00238927
-0.229666
-0.0017395
-0.229129
-0.00111733
-0.228588
-0.000534683
-0.228097
-0.00505879
-0.235359
-0.00560572
-0.234639
-0.00566462
-0.233689
-0.00544768
-0.232695
-0.00500114
-0.231786
-0.00440953
-0.230958
-0.00373534
-0.230252
-0.00303729
-0.229628
-0.00234964
-0.229056
-0.00168997
-0.228556
-0.00107501
-0.228048
-0.000509667
-0.227588
-0.00476587
-0.235912
-0.00577505
-0.235189
-0.00612294
-0.234181
-0.00609736
-0.233039
-0.00574051
-0.231956
-0.00516688
-0.231029
-0.00446801
-0.230225
-0.00372598
-0.229564
-0.00298881
-0.228989
-0.00228154
-0.228464
-0.0016243
-0.228007
-0.00102334
-0.227534
-0.000481403
-0.227106
-0.00401733
-0.236769
-0.00576129
-0.235926
-0.00651798
-0.234794
-0.00675232
-0.233526
-0.00653284
-0.232247
-0.00599492
-0.231128
-0.00526884
-0.230228
-0.00447094
-0.22948
-0.00366969
-0.228883
-0.00290033
-0.228371
-0.00218953
-0.227899
-0.0015436
-0.227487
-0.000964834
-0.227051
-0.000450392
-0.226656
-0.00236725
-0.238431
-0.00531292
-0.237218
-0.00681943
-0.235624
-0.0074275
-0.234119
-0.00739393
-0.232665
-0.00691803
-0.231324
-0.00616307
-0.230233
-0.00529366
-0.229405
-0.00440857
-0.228741
-0.00355817
-0.228225
-0.00277784
-0.227782
-0.00207541
-0.227367
-0.00145188
-0.227
-0.000900643
-0.2266
-0.000418832
-0.226237
0.000640596
-0.240787
-0.00382617
-0.239918
-0.00678516
-0.237252
-0.00812949
-0.234922
-0.00836171
-0.233151
-0.00796917
-0.231613
-0.00718604
-0.230301
-0.00622377
-0.229303
-0.00522771
-0.228586
-0.00427055
-0.228029
-0.00339916
-0.227604
-0.00262418
-0.227233
-0.00194508
-0.226874
-0.00135119
-0.226549
-0.000835339
-0.226184
-0.000388186
-0.225849
0.00497154
-0.242784
-0.000656384
-0.243957
-0.00583438
-0.240869
-0.00867641
-0.236705
-0.00949007
-0.233794
-0.00920263
-0.231918
-0.00838373
-0.230416
-0.00730341
-0.229221
-0.00615802
-0.228373
-0.0050583
-0.227798
-0.0040668
-0.227361
-0.00319705
-0.227031
-0.00244762
-0.226731
-0.00180189
-0.226423
-0.00124874
-0.226136
-0.000772011
-0.2258
-0.000359345
-0.22549
0.0100415
-0.241589
0.00411657
-0.247557
-0.00336383
-0.246427
-0.00856598
-0.240979
-0.0107203
-0.235475
-0.0107175
-0.232279
-0.00981737
-0.230484
-0.00858647
-0.229133
-0.00724349
-0.228136
-0.00595043
-0.227481
-0.00479821
-0.227067
-0.00380402
-0.226754
-0.00296326
-0.226515
-0.00225345
-0.226279
-0.0016562
-0.226016
-0.00114952
-0.225758
-0.000712612
-0.225447
-0.000334251
-0.225155
0.0151101
-0.235372
0.0100274
-0.2475
0.000620528
-0.251542
-0.00722209
-0.247771
-0.0117125
-0.239987
-0.0126136
-0.233579
-0.0116139
-0.230482
-0.0101326
-0.228938
-0.00854066
-0.227836
-0.00698784
-0.227098
-0.00561795
-0.226661
-0.00445765
-0.226413
-0.00349788
-0.226219
-0.0027059
-0.226063
-0.00205584
-0.22588
-0.00151537
-0.22565
-0.00105682
-0.225414
-0.000661155
-0.22512
-0.000313913
-0.224841
0.0195329
-0.224604
0.0166897
-0.242035
0.00589903
-0.252779
-0.00439675
-0.254367
-0.0119218
-0.247562
-0.0147936
-0.237807
-0.0140261
-0.231166
-0.0120681
-0.228547
-0.0101026
-0.227376
-0.00822436
-0.226599
-0.00655962
-0.226157
-0.00517616
-0.225942
-0.0040582
-0.225853
-0.00316055
-0.225765
-0.00244397
-0.225675
-0.00186519
-0.22553
-0.0013845
-0.225322
-0.000976956
-0.225098
-0.000619763
-0.224814
-0.000298543
-0.224543
0.0224596
-0.209475
0.0236703
-0.231584
0.012378
-0.248514
-0.000125169
-0.25705
-0.0107906
-0.255498
-0.0168134
-0.245542
-0.0172435
-0.23459
-0.0147471
-0.228487
-0.0120289
-0.226621
-0.00970526
-0.225895
-0.00766944
-0.225489
-0.00598301
-0.22535
-0.00465488
-0.225346
-0.00361782
-0.225396
-0.00281719
-0.225392
-0.00219184
-0.225348
-0.00168911
-0.225225
-0.0012726
-0.225027
-0.000913347
-0.224805
-0.000588954
-0.224524
-0.000288897
-0.224254
0.0231707
-0.191231
0.030242
-0.216047
0.0196633
-0.238869
0.00578016
-0.254419
-0.00815614
-0.259685
-0.0178614
-0.25445
-0.021
-0.241786
-0.0186376
-0.230699
-0.0146944
-0.225822
-0.0114897
-0.224836
-0.00898442
-0.22458
-0.00691271
-0.22456
-0.00529989
-0.224705
-0.00408026
-0.224883
-0.00316966
-0.225043
-0.00248735
-0.225096
-0.00196055
-0.225076
-0.00153984
-0.224958
-0.00118471
-0.224755
-0.000866955
-0.224527
-0.000570256
-0.224242
-0.000284604
-0.223969
0.0205239
-0.171001
0.0356602
-0.196649
0.0272462
-0.22363
0.0129726
-0.246062
-0.00368301
-0.258892
-0.017144
-0.260402
-0.0244509
-0.250999
-0.0237351
-0.236688
-0.0187867
-0.226607
-0.013888
-0.223424
-0.010527
-0.223294
-0.00799236
-0.223501
-0.00601365
-0.223846
-0.00454815
-0.224237
-0.00349573
-0.224557
-0.00274015
-0.22479
-0.00218678
-0.22487
-0.00176636
-0.22485
-0.00142453
-0.224718
-0.00112249
-0.2245
-0.000840105
-0.224257
-0.000562909
-0.223964
-0.00028515
-0.223684
0.0138467
-0.151221
0.0395624
-0.174903
0.0346115
-0.204015
0.0210364
-0.231694
0.00247152
-0.252216
-0.0146967
-0.26134
-0.0262892
-0.258564
-0.0292946
-0.24544
-0.0246717
-0.230803
-0.0176823
-0.222812
-0.0124872
-0.221464
-0.00922237
-0.222064
-0.00680999
-0.222704
-0.00502716
-0.223367
-0.0037847
-0.223948
-0.00293659
-0.224361
-0.00235135
-0.224626
-0.00193686
-0.224699
-0.00161918
-0.224655
-0.00134594
-0.224495
-0.00108911
-0.224251
-0.000831605
-0.223988
-0.000565805
-0.223683
-0.000289021
-0.223395
0.00475848
-0.134791
0.0414938
-0.153152
0.0411846
-0.181476
0.029457
-0.212435
0.00996748
-0.23919
-0.0103916
-0.256521
-0.026148
-0.261481
-0.0340704
-0.253788
-0.0318511
-0.23826
-0.023644
-0.224841
-0.0155705
-0.219729
-0.0106679
-0.220018
-0.00768133
-0.221192
-0.00551454
-0.222217
-0.00402795
-0.223123
-0.00305619
-0.223828
-0.00243325
-0.224279
-0.00203106
-0.224532
-0.00175116
-0.224567
-0.0015234
-0.224478
-0.00130817
-0.224276
-0.00108289
-0.223999
-0.000839602
-0.223714
-0.000575779
-0.223397
-0.000295272
-0.2231
-0.00100401
-0.0826954
0.0402857
-0.133583
0.0464476
-0.158415
0.0377142
-0.189733
0.0183867
-0.220854
-0.0044305
-0.245151
-0.0244483
-0.258221
-0.0370304
-0.258521
-0.0391763
-0.246463
-0.0317129
-0.230191
-0.020815
-0.219597
-0.0128192
-0.217578
-0.00860566
-0.219094
-0.00599961
-0.220707
-0.00420506
-0.22204
-0.00307678
-0.223103
-0.00240377
-0.223858
-0.00202175
-0.224288
-0.00179776
-0.224485
-0.00163659
-0.224454
-0.00148428
-0.224302
-0.00130901
-0.22405
-0.00110098
-0.223738
-0.000859056
-0.223431
-0.000590728
-0.223101
-0.000302336
-0.222798
-0.0051435
-0.0781173
0.0371002
-0.0795099
0.0498844
-0.13702
0.0453757
-0.166077
0.0273374
-0.198684
0.00294192
-0.228227
-0.0208469
-0.248752
-0.0382193
-0.257032
-0.0455368
-0.25216
-0.0408975
-0.237278
-0.0287083
-0.222298
-0.0167115
-0.215705
-0.00982317
-0.21636
-0.00642054
-0.218673
-0.00429795
-0.220614
-0.00296171
-0.222155
-0.00222788
-0.223279
-0.00187366
-0.224006
-0.00172721
-0.224359
-0.00166199
-0.22446
-0.00159988
-0.224339
-0.00149898
-0.224112
-0.00134429
-0.223806
-0.00113608
-0.223461
-0.000886402
-0.223135
-0.000607282
-0.222796
-0.000308118
-0.222489
-0.00738797
-0.0739683
0.0335296
-0.0745467
0.0506115
-0.0802371
0.0517882
-0.143432
0.0363045
-0.175044
0.0114271
-0.207169
-0.0155001
-0.233574
-0.037478
-0.249494
-0.0498716
-0.252697
-0.0498593
-0.243198
-0.0386712
-0.227315
-0.0233014
-0.215708
-0.012108
-0.21342
-0.00683086
-0.21595
-0.00423488
-0.218736
-0.00267794
-0.220898
-0.00185569
-0.222527
-0.00153996
-0.223613
-0.00149963
-0.224234
-0.00156563
-0.224455
-0.0016325
-0.224427
-0.00163766
-0.2242
-0.00156162
-0.223894
-0.00140389
-0.223538
-0.00118259
-0.223165
-0.000916129
-0.222826
-0.000621005
-0.222483
-0.000311576
-0.222178
-0.00772111
-0.0705124
0.0307199
-0.0711585
0.0506181
-0.0745532
0.0548278
-0.0832767
0.0444949
-0.151623
0.020347
-0.183964
-0.00870187
-0.213967
-0.0348634
-0.236188
-0.0522718
-0.247093
-0.0573818
-0.245175
-0.0494058
-0.232464
-0.0326675
-0.217949
-0.0165938
-0.211222
-0.00762908
-0.212622
-0.00397739
-0.216207
-0.00215152
-0.219262
-0.00123332
-0.22152
-0.000960257
-0.223107
-0.00105838
-0.224054
-0.00130538
-0.224494
-0.00154879
-0.224539
-0.00170558
-0.224359
-0.00174177
-0.22402
-0.00165851
-0.22364
-0.00147934
-0.223242
-0.00123222
-0.222849
-0.000941094
-0.222506
-0.000629596
-0.222165
-0.000311311
-0.221867
-0.00613734
-0.0684002
0.0294451
-0.0692376
0.0503106
-0.0708511
0.0571677
-0.0768931
0.0492068
-0.0879886
0.0289439
-0.16022
-0.000996855
-0.191669
-0.0305853
-0.218245
-0.0528056
-0.235655
-0.0629718
-0.241503
-0.0594986
-0.235082
-0.0439062
-0.221225
-0.0239784
-0.210565
-0.00976551
-0.209086
-0.00361263
-0.212986
-0.00131181
-0.217047
-0.000280753
-0.220215
-5.76944e-05
-0.222423
-0.000334721
-0.223831
-0.000818409
-0.224541
-0.00130732
-0.224735
-0.00167325
-0.224571
-0.00187029
-0.224231
-0.00189393
-0.223784
-0.00177712
-0.223342
-0.00155866
-0.222915
-0.00127444
-0.222515
-0.000957422
-0.222178
-0.000630088
-0.221846
-0.000306616
-0.22156
-0.00290779
-0.0679045
0.0301617
-0.0691168
0.0501081
-0.0690352
0.0588889
-0.0725723
0.0533432
-0.0810295
0.0344653
-0.09351
0.0069038
-0.16812
-0.0251246
-0.19713
-0.0516367
-0.219414
-0.0666675
-0.231959
-0.0679557
-0.233046
-0.0555569
-0.223431
-0.0340331
-0.21117
-0.0142257
-0.206105
-0.0037001
-0.208998
-8.65689e-05
-0.214212
0.00109342
-0.218421
0.00126055
-0.221533
0.000769699
-0.223527
-2.99837e-05
-0.224619
-0.000844093
-0.225004
-0.0015035
-0.224905
-0.00192473
-0.224517
-0.0021025
-0.224022
-0.00207588
-0.223486
-0.00190042
-0.223
-0.00162693
-0.222563
-0.00130319
-0.22217
-0.000960312
-0.221848
-0.000620977
-0.221532
-0.000296617
-0.221263
0.00204847
-0.0693767
0.0326271
-0.0703699
0.0505925
-0.0696011
0.0601758
-0.070322
0.056831
-0.0760601
0.0396167
-0.0861808
0.0126626
-0.0992688
-0.0187592
-0.174486
-0.0489894
-0.199777
-0.0686397
-0.217442
-0.0744203
-0.225494
-0.0662174
-0.222386
-0.0456947
-0.21177
-0.0214636
-0.203933
-0.00509708
-0.204708
0.00133762
-0.210423
0.00300054
-0.216119
0.00311613
-0.220277
0.00236656
-0.22313
0.00117497
-0.224732
-8.21259e-05
-0.225381
-0.00113747
-0.22537
-0.00187624
-0.224953
-0.00227164
-0.224348
-0.00237596
-0.223722
-0.00226355
-0.223122
-0.00200756
-0.22262
-0.00167501
-0.222191
-0.00131138
-0.221819
-0.00094731
-0.221522
-0.000600482
-0.221228
-0.00028189
-0.220981
0.00817593
-0.0734724
0.0368159
-0.0735656
0.0520422
-0.0718196
0.0612535
-0.0706789
0.0597732
-0.0732642
0.0442822
-0.0807256
0.0181861
-0.0917044
-0.0132655
-0.104763
-0.044729
-0.178746
-0.0689254
-0.199491
-0.0789736
-0.212889
-0.0750289
-0.216683
-0.0574577
-0.210623
-0.0311567
-0.202077
-0.00860274
-0.200427
0.00246755
-0.205837
0.0054854
-0.212907
0.00562443
-0.218627
0.00461286
-0.222523
0.00292791
-0.224883
0.00110256
-0.225917
-0.000501944
-0.226016
-0.00167796
-0.225568
-0.00238488
-0.22484
-0.00267653
-0.224047
-0.00265674
-0.223329
-0.00242799
-0.222702
-0.00208501
-0.22221
-0.00169278
-0.22181
-0.00129531
-0.221471
-0.00091567
-0.221207
-0.000569824
-0.22094
-0.00026297
-0.220718
0.0155039
-0.0799381
0.0418988
-0.0785553
0.0543249
-0.0758483
0.0624128
-0.0729788
0.0619093
-0.072815
0.0483573
-0.0773394
0.0231478
-0.0856873
-0.00792882
-0.097041
-0.040221
-0.10927
-0.0675146
-0.180157
-0.0818288
-0.196636
-0.0816654
-0.206252
-0.0680287
-0.206112
-0.0422039
-0.199576
-0.014578
-0.196101
0.00259026
-0.20055
0.00840063
-0.208753
0.00893583
-0.216219
0.00765147
-0.221666
0.00541848
-0.225014
0.00285339
-0.226634
0.000523764
-0.226943
-0.00126839
-0.226426
-0.0024139
-0.225539
-0.0029766
-0.22454
-0.00309147
-0.223612
-0.00290454
-0.222852
-0.00254923
-0.222238
-0.00211855
-0.221784
-0.00167494
-0.22143
-0.0012512
-0.221135
-0.000867355
-0.220909
-0.000530203
-0.220673
-0.00024042
-0.220478
0.0235301
-0.0882561
0.0474159
-0.0854552
0.057235
-0.0814654
0.063683
-0.0771185
0.063513
-0.0745826
0.0517231
-0.0761808
0.0274141
-0.0816057
-0.00315442
-0.0904617
-0.0357246
-0.101537
-0.0648489
-0.111936
-0.0833354
-0.17865
-0.0861692
-0.192132
-0.0766067
-0.197674
-0.0532199
-0.195096
-0.022718
-0.191436
0.00108114
-0.194592
0.0113488
-0.203498
0.0131193
-0.212936
0.0116977
-0.220265
0.00885225
-0.2251
0.00538689
-0.227547
0.00207792
-0.228188
-0.000546582
-0.227664
-0.00231859
-0.226521
-0.00327132
-0.225244
-0.00358356
-0.224048
-0.00345999
-0.223057
-0.00309002
-0.222311
-0.00260741
-0.221749
-0.00210064
-0.221358
-0.0016165
-0.221065
-0.00118195
-0.22082
-0.000804406
-0.220635
-0.000482922
-0.220431
-0.000215921
-0.220262
0.0354214
-0.151691
0.0530184
-0.0938586
0.0602892
-0.0885093
0.0649991
-0.0827815
0.0647325
-0.078338
0.0542466
-0.077106
0.0308364
-0.079603
0.000876769
-0.0856369
-0.0315678
-0.0946186
-0.0617974
-0.104589
-0.0827972
-0.112474
-0.0888856
-0.175934
-0.0830786
-0.18566
-0.0629081
-0.187986
-0.0320184
-0.185795
-0.00248584
-0.187869
0.0138119
-0.197055
0.0180431
-0.208421
0.0169384
-0.218177
0.0135355
-0.224948
0.00899585
-0.228708
0.00439546
-0.229865
0.000599761
-0.229334
-0.00203639
-0.227947
-0.00355096
-0.226242
-0.00415365
-0.224674
-0.00412594
-0.223382
-0.00373895
-0.222408
-0.00318525
-0.221734
-0.00259189
-0.221258
-0.00202494
-0.22095
-0.00152161
-0.220725
-0.00109079
-0.220534
-0.000729118
-0.220389
-0.000431571
-0.220215
-0.000190777
-0.220071
0.0458018
-0.17725
0.0596532
-0.158325
0.0630645
-0.0966339
0.066178
-0.0896882
0.0656616
-0.0837106
0.0558488
-0.0799402
0.0333017
-0.0795714
0.0039824
-0.0827087
-0.0280674
-0.0891372
-0.0587287
-0.0976873
-0.0816151
-0.105771
-0.0895713
-0.111789
-0.0875037
-0.171509
-0.0708553
-0.177713
-0.0410346
-0.17897
-0.0077722
-0.180509
0.0151357
-0.189192
0.0233584
-0.202371
0.0233413
-0.214824
0.0197254
-0.224367
0.0141139
-0.230066
0.00786258
-0.232176
0.00240288
-0.231668
-0.00150434
-0.229866
-0.00380662
-0.227691
-0.0048276
-0.225568
-0.00494685
-0.223853
-0.00454003
-0.222581
-0.00388892
-0.221704
-0.00317527
-0.22115
-0.00249476
-0.220788
-0.00189733
-0.220574
-0.00139521
-0.220421
-0.000981485
-0.220282
-0.000647305
-0.220173
-0.000378979
-0.220027
-0.00016656
-0.219905
0.0535348
-0.201644
0.0637573
-0.181354
0.0658369
-0.161098
0.0670704
-0.0975263
0.0662273
-0.0902539
0.0563701
-0.0842319
0.0345775
-0.081216
0.00595889
-0.0815479
-0.02554
-0.0852361
-0.0560549
-0.091811
-0.0800492
-0.0992532
-0.0897712
-0.105571
-0.0893588
-0.109934
-0.0768132
-0.165551
-0.0488566
-0.169891
-0.0139915
-0.17275
0.0150581
-0.180431
0.0285657
-0.1944
0.0305979
-0.209627
0.0273499
-0.222449
0.0210134
-0.231266
0.0130338
-0.235238
0.00532731
-0.2351
-0.000525011
-0.232647
-0.00404788
-0.229625
-0.00565512
-0.226864
-0.00598334
-0.224531
-0.00555649
-0.222837
-0.00476955
-0.2217
-0.00388875
-0.220991
-0.0030503
-0.220595
-0.00232434
-0.220361
-0.00172527
-0.220244
-0.00124325
-0.220159
-0.000862678
-0.220066
-0.00056364
-0.219988
-0.000328497
-0.219865
-0.00014443
-0.21976
0.0573093
-0.222846
0.0653423
-0.203229
0.0669226
-0.18244
0.0675092
-0.161537
0.0660591
-0.0973581
0.0556858
-0.0895697
0.0345066
-0.0841609
0.00663766
-0.0818948
-0.024164
-0.0829239
-0.0541398
-0.0871512
-0.078453
-0.0934072
-0.0895611
-0.0994633
-0.0903314
-0.104599
-0.0802413
-0.106505
-0.0548923
-0.159515
-0.0199394
-0.163943
0.0133767
-0.171069
0.0331265
-0.184992
0.038297
-0.202099
0.0359851
-0.218262
0.0294826
-0.230918
0.0200935
-0.238326
0.00997575
-0.239886
0.00139281
-0.237018
-0.00415123
-0.232544
-0.00672765
-0.228552
-0.00733559
-0.225511
-0.00687684
-0.223211
-0.00590131
-0.221705
-0.0047844
-0.220805
-0.00372662
-0.220314
-0.00282235
-0.220097
-0.00209187
-0.219994
-0.00151795
-0.219969
-0.00107804
-0.219943
-0.000741475
-0.219889
-0.000483558
-0.219833
-0.000282619
-0.219727
-0.000125869
-0.219634
0.0566823
-0.238416
0.0639407
-0.221444
0.06568
-0.201986
0.0661627
-0.181094
0.0638283
-0.159306
0.0535249
-0.0951972
0.0328948
-0.0879579
0.00587745
-0.0834007
-0.0240596
-0.0819992
-0.0531203
-0.0839434
-0.0769903
-0.0886139
-0.088963
-0.0940052
-0.0906065
-0.0991882
-0.0822895
-0.10255
-0.0591526
-0.102245
-0.0249647
-0.15449
0.0110908
-0.161657
0.0364161
-0.174359
0.045949
-0.192644
0.0451688
-0.211283
0.0389329
-0.227713
0.0286452
-0.23947
0.0163455
-0.244696
0.00477614
-0.243269
-0.0036923
-0.237477
-0.00804723
-0.231224
-0.00916784
-0.22672
-0.00863489
-0.223753
-0.00738897
-0.221723
-0.00593806
-0.220552
-0.00457054
-0.219961
-0.00342006
-0.219717
-0.00250829
-0.21968
-0.00181134
-0.219701
-0.00129267
-0.219755
-0.000909961
-0.219775
-0.00062595
-0.219746
-0.000411187
-0.219705
-0.000244412
-0.219608
-0.000111753
-0.219523
0.0517072
-0.246395
0.0584788
-0.232954
0.060602
-0.216366
0.0612372
-0.197061
0.0582349
-0.1755
0.0482124
-0.153993
0.0296124
-0.0919147
0.00357653
-0.085657
-0.0251886
-0.0822717
-0.0529882
-0.0821312
-0.0758314
-0.0851023
-0.0880075
-0.0895693
-0.0902402
-0.0943716
-0.0830186
-0.0984591
-0.0617102
-0.0999928
-0.0298066
-0.0974032
0.00864984
-0.152049
0.0386305
-0.163872
0.053043
-0.181453
0.0544933
-0.201969
0.0488929
-0.221243
0.038053
-0.237121
0.023881
-0.247005
0.00949756
-0.249417
-0.00236792
-0.244594
-0.00938329
-0.236141
-0.0116421
-0.22875
-0.0110437
-0.224311
-0.0093795
-0.221763
-0.00745652
-0.220205
-0.00565048
-0.219472
-0.00415417
-0.219227
-0.0029945
-0.219231
-0.00212925
-0.219362
-0.00150682
-0.219487
-0.0010643
-0.2196
-0.000750516
-0.21965
-0.000522368
-0.219635
-0.000351406
-0.219598
-0.000215685
-0.219504
-0.000102444
-0.21942
0.0432126
-0.246132
0.0487718
-0.236688
0.0514937
-0.223845
0.0524233
-0.207552
0.0492315
-0.188057
0.0402867
-0.167574
0.0236039
-0.147985
-9.58611e-05
-0.0882424
-0.0273737
-0.0834719
-0.0534817
-0.0817783
-0.0747404
-0.0832222
-0.0866029
-0.0865069
-0.0891756
-0.0906339
-0.0824451
-0.0949451
-0.0627792
-0.0973901
-0.0329494
-0.0968501
0.00411818
-0.0928715
0.0401559
-0.153574
0.0591963
-0.170025
0.0636022
-0.190561
0.0589955
-0.212071
0.0479781
-0.231168
0.0321508
-0.24539
0.014883
-0.252391
-0.000215598
-0.251569
-0.0106088
-0.243368
-0.0147768
-0.233006
-0.0144276
-0.225366
-0.0120978
-0.221593
-0.00948071
-0.219738
-0.00706117
-0.218794
-0.00507874
-0.218547
-0.00357387
-0.218647
-0.00248167
-0.218878
-0.00171877
-0.21915
-0.00119938
-0.219352
-0.000848887
-0.219502
-0.000608829
-0.219564
-0.000437781
-0.219549
-0.000307129
-0.219506
-0.0001972
-0.219409
-9.8227e-05
-0.219322
0.0335153
-0.240713
0.0372812
-0.234641
0.0403043
-0.225498
0.0413269
-0.212749
0.0383449
-0.196666
0.030517
-0.178288
0.0160695
-0.16004
-0.00481392
-0.143267
-0.0300827
-0.0855334
-0.0541517
-0.0828019
-0.07355
-0.0829686
-0.0847222
-0.0851029
-0.0872726
-0.0884099
-0.0807361
-0.0923429
-0.0625008
-0.0952235
-0.0344871
-0.0958524
0.000693988
-0.0934259
0.037534
-0.0902496
0.064479
-0.158857
0.0720869
-0.17851
0.0688488
-0.200415
0.058095
-0.222188
0.0410627
-0.24008
0.0209751
-0.251482
0.00245482
-0.255061
-0.0116527
-0.250525
-0.0184935
-0.239652
-0.0190756
-0.228358
-0.0159802
-0.221484
-0.0122053
-0.218869
-0.0089229
-0.217877
-0.00626527
-0.217608
-0.0042821
-0.217839
-0.00287729
-0.218252
-0.00192821
-0.218669
-0.00130646
-0.219043
-0.000911121
-0.219289
-0.000659411
-0.219451
-0.000494652
-0.219507
-0.000376451
-0.219479
-0.000279619
-0.219424
-0.000189502
-0.219318
-9.87138e-05
-0.219223
0.0250297
-0.234121
0.0269424
-0.230375
0.0296219
-0.223959
0.0303248
-0.214496
0.0276146
-0.202019
0.0207225
-0.186871
0.00851396
-0.170732
-0.00942705
-0.155427
-0.0314247
-0.141925
-0.0545152
-0.0851699
-0.0719499
-0.084402
-0.0822321
-0.0854587
-0.0845652
-0.0878102
-0.0780529
-0.0910932
-0.0610132
-0.0938305
-0.0346555
-0.0950551
-0.0012008
-0.0939576
0.0349927
-0.0908846
0.0646793
-0.0904499
0.0796834
-0.166454
0.078216
-0.187877
0.0679465
-0.210266
0.0502683
-0.231394
0.0278843
-0.246989
0.00576036
-0.254788
-0.0119261
-0.254788
-0.0225555
-0.246463
-0.0249243
-0.233803
-0.0215853
-0.222753
-0.0160766
-0.217612
-0.0113705
-0.216421
-0.0078048
-0.216337
-0.00516091
-0.216729
-0.00333219
-0.217384
-0.00212961
-0.21805
-0.00137544
-0.2186
-0.0009225
-0.219032
-0.000660244
-0.219289
-0.000509021
-0.219437
-0.000413961
-0.21947
-0.000340294
-0.219419
-0.000269646
-0.219344
-0.000191781
-0.219225
-0.00010324
-0.21912
0.0190017
-0.22991
0.0196461
-0.226825
0.0213527
-0.222105
0.0214404
-0.215074
0.0189249
-0.205807
0.0130258
-0.194322
0.00260159
-0.180959
-0.0125895
-0.16757
-0.0315781
-0.155274
-0.0517109
-0.144729
-0.0698404
-0.0872794
-0.0791377
-0.0874964
-0.081101
-0.0889229
-0.074581
-0.0912822
-0.0584597
-0.0936466
-0.0335161
-0.0949699
-0.00172576
-0.0945302
0.0332145
-0.0921793
0.0644125
-0.0906179
0.0822503
-0.0930167
0.0866399
-0.174877
0.0774317
-0.197362
0.059417
-0.219415
0.0351216
-0.238631
0.00975918
-0.250988
-0.0115887
-0.255125
-0.0262342
-0.251109
-0.0315365
-0.239851
-0.0290035
-0.226385
-0.021851
-0.216979
-0.0147476
-0.214235
-0.00976615
-0.21446
-0.00626758
-0.215231
-0.00385695
-0.216204
-0.00232017
-0.217193
-0.0013883
-0.218037
-0.000864281
-0.218658
-0.000592046
-0.2191
-0.000464248
-0.219333
-0.00040589
-0.219445
-0.000369557
-0.21944
-0.000330239
-0.219358
-0.000275865
-0.21926
-0.000202621
-0.219126
-0.0001106
-0.21901
0.0152357
-0.228892
0.0153619
-0.225625
0.016108
-0.22158
0.0155458
-0.216211
0.0132028
-0.209352
0.00821228
-0.200993
-0.00045408
-0.191266
-0.0132754
-0.180273
-0.0297141
-0.169434
-0.0475288
-0.159456
-0.0638861
-0.150683
-0.0755147
-0.0909023
-0.0770153
-0.0915821
-0.0703902
-0.0931137
-0.0548964
-0.0948455
-0.0311937
-0.0959691
-0.000908416
-0.0957872
0.03264
-0.0939557
0.0639431
-0.0917099
0.0843781
-0.0927457
0.0904794
-0.0968562
0.0858836
-0.183329
0.0684505
-0.206395
0.0427048
-0.226998
0.0140962
-0.242968
-0.0112293
-0.251347
-0.0294046
-0.251955
-0.0384562
-0.24419
-0.0376901
-0.231165
-0.0299033
-0.218332
-0.0198526
-0.211874
-0.0123266
-0.211675
-0.00761573
-0.213111
-0.00447387
-0.214614
-0.00248255
-0.216042
-0.00132507
-0.217257
-0.000708388
-0.218193
-0.000429059
-0.218821
-0.000338087
-0.219226
-0.000334181
-0.219405
-0.000354013
-0.219461
-0.000362455
-0.219408
-0.000344234
-0.21929
-0.000295901
-0.219166
-0.000219479
-0.219017
-0.000119689
-0.21889
0.0128098
-0.229759
0.0129321
-0.226462
0.0131917
-0.222709
0.0122929
-0.218327
0.0101454
-0.213153
0.00600424
-0.207144
-0.00109937
-0.200348
-0.0117797
-0.192762
-0.0258628
-0.184124
-0.041804
-0.175158
-0.056863
-0.166479
-0.0680082
-0.15819
-0.0724256
-0.095492
-0.0656012
-0.0963712
-0.050416
-0.0975941
-0.0276892
-0.09835
0.00117901
-0.0980565
0.0332844
-0.0964316
0.0639602
-0.0939729
0.086065
-0.0933968
0.0938511
-0.0961174
0.0905552
-0.101528
0.0763638
-0.191243
0.0502925
-0.213983
0.0191448
-0.232047
-0.0103357
-0.243862
-0.0325102
-0.248241
-0.0451701
-0.245241
-0.0469735
-0.234906
-0.0397578
-0.22131
-0.0273876
-0.210797
-0.0161292
-0.208071
-0.00922794
-0.210063
-0.00515476
-0.212431
-0.00260581
-0.21449
-0.00114639
-0.21622
-0.000419856
-0.217545
-0.000135961
-0.218486
-9.97875e-05
-0.219059
-0.000175342
-0.219385
-0.000275685
-0.219483
-0.00035437
-0.219469
-0.00038967
-0.219363
-0.000378618
-0.219207
-0.000325611
-0.21906
-0.000239935
-0.218897
-0.000129147
-0.218761
0.0109682
-0.23111
0.0113019
-0.228128
0.0114826
-0.224753
0.0106719
-0.221088
0.00882184
-0.217003
0.0054418
-0.212591
-0.00022022
-0.208023
-0.00896062
-0.203167
-0.0209995
-0.197625
-0.0350821
-0.190846
-0.0489627
-0.183059
-0.0595571
-0.17493
-0.0642384
-0.166377
-0.0602862
-0.100807
-0.0451772
-0.10161
-0.0231114
-0.102172
0.00443027
-0.101601
0.0350693
-0.0998414
0.0647513
-0.0972226
0.0874563
-0.0953642
0.0966908
-0.0962365
0.0946201
-0.100182
0.0817616
-0.106926
0.0568028
-0.197753
0.0240098
-0.218848
-0.00871323
-0.233669
-0.0349567
-0.241415
-0.0512342
-0.242177
-0.0562504
-0.235964
-0.0505654
-0.224099
-0.0372037
-0.211494
-0.0220925
-0.204834
-0.0114417
-0.205857
-0.00583219
-0.209385
-0.00262885
-0.212408
-0.000811793
-0.214825
5.60493e-05
-0.216696
0.000334497
-0.218016
0.000290512
-0.218877
0.000104015
-0.219339
-0.00011167
-0.219549
-0.0002896
-0.219548
-0.000402727
-0.219456
-0.000445794
-0.219295
-0.000427211
-0.219105
-0.000360952
-0.218939
-0.000261043
-0.218765
-0.000137406
-0.218623
0.00941257
-0.232112
0.00990925
-0.229717
0.0102252
-0.226871
0.0096971
-0.223778
0.00828077
-0.220547
0.00560659
-0.217168
0.00121111
-0.214022
-0.00568215
-0.211302
-0.0156535
-0.208513
-0.0280415
-0.204666
-0.0406113
-0.199197
-0.0505945
-0.192021
-0.0551003
-0.184068
-0.0521835
-0.17448
-0.0393925
-0.106592
-0.0176542
-0.107067
0.00867656
-0.106418
0.037848
-0.10438
0.0662983
-0.101388
0.0887552
-0.0985216
0.0988581
-0.0975315
0.0980169
-0.0996334
0.0865002
-0.104921
0.0628953
-0.113018
0.0283902
-0.202133
-0.00752865
-0.220033
-0.0370449
-0.231581
-0.0568156
-0.235834
-0.0649477
-0.23348
-0.0615757
-0.224954
-0.0485097
-0.212793
-0.0305533
-0.203033
-0.0151354
-0.20114
-0.00651929
-0.20517
-0.00245434
-0.20956
-0.000234722
-0.212985
0.000784933
-0.215554
0.00104681
-0.217408
0.000889052
-0.218614
0.000545682
-0.219318
0.000171407
-0.219622
-0.000147628
-0.219691
-0.000370055
-0.219581
-0.000491279
-0.21941
-0.00052198
-0.219201
-0.000483777
-0.218982
-0.000397088
-0.218803
-0.000279436
-0.218623
-0.000143434
-0.21848
0.0080735
-0.232766
0.00864541
-0.230848
0.00907879
-0.228571
0.0088621
-0.226036
0.00789239
-0.22339
0.00590342
-0.220844
0.00257137
-0.218528
-0.00262543
-0.217079
-0.0104905
-0.216465
-0.0209303
-0.215624
-0.0321899
-0.213087
-0.0413583
-0.208434
-0.0457511
-0.201371
-0.0430917
-0.19316
-0.0322395
-0.181633
-0.0116437
-0.112602
0.0136306
-0.112021
0.041302
-0.109872
0.068438
-0.10652
0.0901817
-0.102815
0.100397
-0.10006
0.100583
-0.100098
0.0905213
-0.103654
0.0683059
-0.110332
0.0350518
-0.11968
-0.00500157
-0.20466
-0.038566
-0.218512
-0.0620093
-0.226387
-0.0731294
-0.227652
-0.0722114
-0.222844
-0.0603974
-0.213066
-0.0410335
-0.202312
-0.021046
-0.197122
-0.00780201
-0.199858
-0.00188594
-0.205739
0.000693546
-0.210488
0.00186978
-0.214069
0.00208667
-0.216594
0.00176627
-0.218286
0.00121101
-0.21928
0.00061448
-0.219762
0.000102179
-0.219871
-0.000275245
-0.219786
-0.000505996
-0.219566
-0.000607636
-0.219324
-0.000608985
-0.219075
-0.000541013
-0.218839
-0.000428547
-0.218654
-0.000292867
-0.218473
-0.000146183
-0.218334
0.00691968
-0.233193
0.00751703
-0.231637
0.00801552
-0.229785
0.00802903
-0.227738
0.00745448
-0.225598
0.00605867
-0.223545
0.00361707
-0.22189
-0.000193719
-0.22096
-0.00597125
-0.221598
-0.0142632
-0.223132
-0.0239379
-0.223876
-0.0322497
-0.222196
-0.0363723
-0.217812
-0.0341258
-0.210336
-0.024375
-0.201024
-0.006028
-0.187248
0.0190549
-0.118027
0.0451054
-0.115825
0.0707644
-0.112199
0.0914399
-0.107778
0.101285
-0.103704
0.102243
-0.10172
0.0936856
-0.103262
0.0727025
-0.108051
0.0410528
-0.116333
0.0016299
-0.126311
-0.0384005
-0.204826
-0.0660051
-0.214516
-0.0806377
-0.218879
-0.0822028
-0.217661
-0.072093
-0.211149
-0.0526385
-0.201461
-0.0292132
-0.194145
-0.0104812
-0.194443
-0.0011267
-0.200617
0.00222054
-0.207266
0.00343803
-0.212056
0.0035661
-0.215549
0.0030226
-0.21785
0.00217348
-0.219248
0.00127956
-0.219945
0.000496947
-0.220156
-9.31281e-05
-0.220054
-0.000479125
-0.219813
-0.000680268
-0.219493
-0.000738377
-0.219195
-0.00069619
-0.21892
-0.000590754
-0.218676
-0.000451614
-0.218495
-0.000299121
-0.21832
-0.000145081
-0.218189
0.005909
-0.233487
0.00651827
-0.232194
0.00705042
-0.230672
0.00722476
-0.22898
0.00694569
-0.227229
0.00604049
-0.22558
0.00431577
-0.224244
0.00157662
-0.22366
-0.00248897
-0.224442
-0.00845372
-0.227408
-0.0162728
-0.230797
-0.0235791
-0.232547
-0.0273964
-0.231172
-0.0255497
-0.226389
-0.0167438
-0.217968
-0.000682916
-0.20637
0.0229758
-0.191169
0.0488993
-0.12182
0.0730122
-0.118072
0.0923664
-0.113125
0.10161
-0.108103
0.102942
-0.104402
0.0959296
-0.103964
0.075975
-0.106534
0.0458414
-0.11284
0.00742567
-0.122128
-0.0333954
-0.131316
-0.0688751
-0.201956
-0.087036
-0.208117
-0.0912748
-0.209807
-0.0831094
-0.206644
-0.0644299
-0.199357
-0.0390659
-0.191608
-0.0150908
-0.189536
-0.000699713
-0.19487
0.00445055
-0.202847
0.00569661
-0.209524
0.00563496