/*--------------------------------*- C++ -*----------------------------------*\
| =========                 |                                                 |
| \\      /  F ield         | OpenFOAM: The Open Source CFD Toolbox           |
|  \\    /   O peration     | Version:  2506                                  |
|   \\  /    A nd           | Website:  www.openfoam.com                      |
|    \\/     M anipulation  |                                                 |
\*---------------------------------------------------------------------------*/
FoamFile
{
    version     2.0;
    format      ascii;
    arch        "LSB;label=32;scalar=64";
    class       volVectorField;
    location    "199.976811410189782";
    object      U;
}
// * * * * * * * * * * * * * * * * * * * * * * * * * * * * * * * * * * * * * //

dimensions      [0 1 -1 0 0 0 0];

internalField   nonuniform List<vector> 
9700
(
(1.10687 0.00138784 5.15256e-22)
(1.10691 0.00451231 -2.20188e-24)
(1.10257 0.00139448 2.9821e-28)
(1.10696 0.0073036 -6.70178e-22)
(1.10261 0.0045481 -1.24538e-24)
(1.10046 0.00140311 -5.16085e-22)
(1.10707 0.0103335 -1.90875e-24)
(1.1027 0.00737211 -5.10638e-35)
(1.1005 0.00459103 -5.16254e-22)
(1.09751 0.00141044 0)
(1.10722 0.0131094 5.18526e-22)
(1.10284 0.010459 3.39391e-24)
(1.10058 0.00744967 -3.82503e-21)
(1.09754 0.00463337 -2.21563e-23)
(1.09481 0.00141508 4.98923e-22)
(1.10744 0.0159667 5.18686e-22)
(1.10308 0.0133195 -1.47461e-27)
(1.10071 0.0105914 -5.27976e-22)
(1.09762 0.0075275 1.18841e-34)
(1.09482 0.00466743 5.04147e-22)
(1.092 0.00141387 7.65581e-28)
(1.10775 0.0186007 -2.9847e-23)
(1.10342 0.0163078 1.87321e-27)
(1.10094 0.0135302 -5.2863e-22)
(1.09774 0.0107284 5.1116e-23)
(1.09487 0.00759132 3.68309e-21)
(1.09199 0.00468207 -5.34875e-24)
(1.08922 0.0014045 -4.80174e-22)
(1.1082 0.0211348 7.46911e-22)
(1.10392 0.0191326 5.41631e-23)
(1.10127 0.0166344 -5.20358e-22)
(1.09794 0.0137546 0)
(1.09494 0.0108447 4.91141e-22)
(1.092 0.00762197 -1.75156e-35)
(1.08918 0.00466837 -4.7573e-22)
(1.08646 0.00138501 -3.9743e-21)
(1.10881 0.0233641 6.32286e-23)
(1.10465 0.0219452 -1.04786e-21)
(1.10178 0.0196281 -4.92458e-22)
(1.09825 0.0169907 0)
(1.09509 0.0139509 4.95658e-22)
(1.09201 0.0109107 1.20762e-23)
(1.08915 0.00760395 -3.27571e-25)
(1.08638 0.00461893 -4.59898e-21)
(1.08373 0.00135422 -9.05914e-25)
(1.10967 0.0252346 -6.52247e-22)
(1.1057 0.0245665 -7.08381e-23)
(1.10252 0.0226858 -5.80486e-21)
(1.09875 0.0201796 -9.00237e-38)
(1.09532 0.0173103 5.22732e-22)
(1.09207 0.0140773 -5.21508e-27)
(1.08907 0.0109019 -5.09612e-22)
(1.08629 0.00752449 -6.21624e-22)
(1.08362 0.00452912 5.49542e-22)
(1.08108 0.00131183 3.82019e-21)
(1.11083 0.0265339 4.90958e-22)
(1.1072 0.0269844 7.09911e-24)
(1.10362 0.0256571 1.36979e-21)
(1.09948 0.0235234 1.70496e-23)
(1.09571 0.0206851 5.99355e-22)
(1.09217 0.0175345 5.9893e-27)
(1.08902 0.0140971 -5.12454e-22)
(1.08613 0.0107982 -4.65497e-21)
(1.08348 0.00737571 6.10129e-22)
(1.08093 0.00439754 3.97119e-21)
(1.07851 0.00125852 0)
(1.11221 0.0270175 -2.20546e-23)
(1.10931 0.0290227 8.22227e-24)
(1.10521 0.0285767 4.3789e-21)
(1.10058 0.0269079 2.0288e-23)
(1.0963 0.0243055 5.70186e-21)
(1.09239 0.0210631 1.617e-22)
(1.08896 0.0176102 -4.78904e-22)
(1.08594 0.0139812 -4.21547e-21)
(1.08322 0.0105871 2.83608e-22)
(1.08074 0.00715538 -3.09395e-25)
(1.07833 0.00422626 -2.86556e-36)
(1.07606 0.00119585 4.37648e-22)
(1.11383 0.0264661 2.30669e-21)
(1.11204 0.0305165 6.55579e-23)
(1.10748 0.0313144 -5.08537e-22)
(1.10223 0.0304251 1.15593e-23)
(1.09724 0.0280943 -1.39476e-21)
(1.09277 0.0249178 -1.48828e-23)
(1.08895 0.0212371 -3.44378e-22)
(1.08569 0.0174955 -4.27382e-21)
(1.08289 0.0137116 1.68626e-27)
(1.08038 0.0102653 3.97339e-21)
(1.0781 0.00686724 7.49796e-36)
(1.07586 0.00402057 4.52541e-22)
(1.07373 0.00112615 1.635e-27)
(1.11629 0.0243922 3.87258e-23)
(1.11557 0.0313919 1.88349e-34)
(1.11037 0.0338139 -5.14018e-22)
(1.1046 0.034018 1.36496e-22)
(1.09868 0.0322043 -4.43704e-21)
(1.0934 0.0290554 -1.08954e-22)
(1.08902 0.0252508 -5.6961e-21)
(1.08542 0.0211479 -4.85469e-21)
(1.08244 0.0171647 -2.05164e-27)
(1.07992 0.0132834 4.02002e-21)
(1.07766 0.00983844 -2.83945e-36)
(1.07559 0.00652065 2.94019e-25)
(1.07352 0.00378863 -1.46696e-23)
(1.07156 0.00105245 -4.04379e-22)
(1.12125 0.019038 1.10771e-21)
(1.12168 0.0312353 -2.12535e-22)
(1.11414 0.0361149 -6.50737e-21)
(1.10757 0.0377401 2.56842e-22)
(1.10079 0.0366596 5.38002e-22)
(1.09444 0.0336848 6.9236e-25)
(1.08923 0.0296337 -4.69522e-21)
(1.08512 0.0252207 -4.04475e-21)
(1.0819 0.0207595 8.24355e-22)
(1.07928 0.0166111 4.15346e-21)
(1.07708 0.0127054 0)
(1.07509 0.00932128 3.97747e-22)
(1.07323 0.00612979 -2.01035e-35)
(1.07134 0.00354094 -3.8981e-22)
(1.06953 0.000978145 -5.14975e-22)
(1.12792 0.00718435 7.62323e-22)
(1.13339 0.0276308 -4.36057e-23)
(1.12155 0.0379232 -3.18506e-22)
(1.11149 0.0417706 2.52595e-34)
(1.10333 0.0416235 4.84405e-22)
(1.09602 0.0389055 -1.61173e-23)
(1.08969 0.0346382 4.54225e-21)
(1.08484 0.0297104 -5.5367e-21)
(1.08122 0.0247772 3.63039e-21)
(1.07847 0.020063 4.53594e-21)
(1.07628 0.0158474 0)
(1.07442 0.011999 4.01972e-22)
(1.0727 0.00873588 3.46935e-23)
(1.07105 0.00571283 -3.02483e-21)
(1.06932 0.0032894 -1.03154e-21)
(1.06764 0.00090668 -2.91922e-28)
(1.1332 -0.0126851 -1.61656e-21)
(1.15052 0.0168822 0)
(1.13764 0.0370038 9.21574e-22)
(1.1201 0.0460711 -8.57064e-22)
(1.10661 0.047387 7.49654e-21)
(1.09777 0.044974 -2.63816e-22)
(1.09048 0.0404222 -5.57484e-22)
(1.08461 0.0348951 -4.97908e-22)
(1.0804 0.0292159 4.52952e-21)
(1.07742 0.0239091 -5.49412e-23)
(1.07524 0.0190772 -2.00992e-35)
(1.07349 0.0149043 5.01466e-22)
(1.07198 0.0111962 -1.65299e-26)
(1.0705 0.00811044 -4.60162e-22)
(1.06904 0.00529023 -5.18227e-22)
(1.06746 0.00304617 4.06652e-22)
(1.0659 0.000841393 4.86781e-22)
(1.12534 -0.0385157 -2.50143e-21)
(1.16773 -0.003946 -2.72327e-21)
(1.16221 0.0296732 -3.15398e-22)
(1.13998 0.048961 0)
(1.11508 0.0542891 6.54453e-22)
(1.09986 0.0522295 1.27909e-34)
(1.09117 0.047307 -6.11025e-22)
(1.08446 0.0409635 -5.01646e-21)
(1.07943 0.0343595 -3.74542e-21)
(1.0761 0.0281367 8.29727e-22)
(1.07387 0.0226438 -5.54322e-22)
(1.07227 0.0178457 9.16944e-22)
(1.07097 0.0138271 2.09703e-26)
(1.06976 0.0103375 -4.62521e-22)
(1.06851 0.00747671 -6.38195e-22)
(1.0672 0.00488286 3.32696e-21)
(1.06574 0.00282311 5.0265e-22)
(1.06428 0.00078516 -4.65951e-22)
(1.09731 -0.0665808 -1.41143e-24)
(1.16606 -0.0316914 6.9197e-21)
(1.18414 0.0137832 -5.10451e-21)
(1.17105 0.0473227 -7.16911e-35)
(1.13673 0.0617003 3.04504e-21)
(1.10688 0.0614049 1.00283e-21)
(1.09159 0.0556094 -4.24761e-21)
(1.08392 0.0482758 -5.76769e-21)
(1.07828 0.0403955 -2.96341e-22)
(1.07442 0.0330172 4.48187e-21)
(1.0721 0.0265141 6.06664e-22)
(1.07065 0.0210432 5.05583e-21)
(1.06963 0.0164323 6.88702e-22)
(1.06873 0.0126731 -3.57052e-22)
(1.0678 0.00946849 -5.19079e-22)
(1.06672 0.00686699 3.35837e-22)
(1.06552 0.00451093 -2.73005e-21)
(1.06415 0.00263059 -9.43095e-22)
(1.06277 0.000740099 -2.77318e-28)
(1.0455 -0.0937186 2.85065e-21)
(1.13835 -0.0644076 5.08406e-21)
(1.18765 -0.00910648 6.20467e-21)
(1.20059 0.0383364 -3.94685e-37)
(1.17227 0.067271 -1.12781e-21)
(1.12791 0.0731781 7.46136e-22)
(1.0959 0.0663218 -4.75765e-22)
(1.08249 0.0570719 -8.26402e-22)
(1.07648 0.0477015 7.66458e-22)
(1.07229 0.0387054 4.87564e-21)
(1.0698 0.0309318 6.99437e-22)
(1.06854 0.0244368 3.65811e-21)
(1.06787 0.0191961 -8.33814e-23)
(1.06737 0.0149162 1.21901e-22)
(1.06681 0.0115057 -5.21331e-22)
(1.06608 0.00863507 3.07767e-27)
(1.06512 0.00631261 4.30712e-22)
(1.06399 0.0041921 -4.66602e-22)
(1.06268 0.00247648 2.02455e-23)
(1.06133 0.000707456 4.35227e-22)
(0.978534 -0.116247 -2.80643e-20)
(1.08722 -0.101141 -1.49171e-20)
(1.16544 -0.038889 -1.65972e-20)
(1.21117 0.0219644 -3.07753e-35)
(1.20838 0.0679034 -9.46257e-21)
(1.16516 0.0864822 -3.14247e-25)
(1.11372 0.0813732 1.87041e-21)
(1.0833 0.0683537 -6.58485e-21)
(1.07326 0.056424 6.57268e-22)
(1.0693 0.0455753 5.29019e-21)
(1.06683 0.0359936 -7.28288e-22)
(1.06578 0.0282312 -4.20147e-21)
(1.06555 0.0220289 -1.08034e-21)
(1.06556 0.017211 -4.79038e-21)
(1.06549 0.0133846 -9.30255e-22)
(1.06518 0.0103893 -3.92612e-27)
(1.06457 0.00788172 4.29735e-22)
(1.06367 0.0058409 -5.44894e-22)
(1.06257 0.00393971 9.40568e-35)
(1.06128 0.00236576 6.59725e-22)
(1.05994 0.000687433 4.22695e-24)
(0.899129 -0.128881 2.2156e-21)
(1.01202 -0.138448 -3.88767e-22)
(1.1181 -0.075232 5.74974e-21)
(1.19598 -0.00280951 0)
(1.22629 0.0608387 1.71765e-21)
(1.20671 0.0984018 -9.94309e-21)
(1.14935 0.101425 3.10579e-22)
(1.09574 0.0849212 -6.46604e-21)
(1.07043 0.0673372 1.25396e-21)
(1.06456 0.0536939 1.96787e-22)
(1.06281 0.0420461 -4.61119e-36)
(1.06216 0.03245 4.95462e-22)
(1.0625 0.0250891 1.16082e-22)
(1.06317 0.0194399 4.85376e-22)
(1.06375 0.0152069 -2.74654e-21)
(1.06399 0.0119256 4.8866e-22)
(1.06382 0.00938603 5.41896e-22)
(1.06326 0.00724723 -4.61205e-22)
(1.06235 0.00547261 -4.72488e-23)
(1.06123 0.00376212 4.34985e-22)
(1.05993 0.00229984 1.88058e-23)
(1.05859 0.000679141 -3.84357e-21)
(0.813342 -0.129707 -1.57421e-21)
(0.919245 -0.172974 1.1586e-21)
(1.04509 -0.114648 3.6038e-20)
(1.154 -0.0363532 -2.44331e-35)
(1.22037 0.0443347 6.87603e-21)
(1.23148 0.102947 2.54546e-20)
(1.19353 0.124052 -1.0011e-20)
(1.12649 0.109378 -1.10252e-21)
(1.07615 0.0834806 -1.03517e-26)
(1.05857 0.0634949 6.34222e-21)
(1.0569 0.0490964 -2.44352e-35)
(1.05736 0.0373901 6.91933e-22)
(1.05848 0.0283231 1.35358e-22)
(1.06004 0.0217087 3.752e-21)
(1.06145 0.016831 9.4957e-22)
(1.06242 0.0133027 2.95473e-21)
(1.06283 0.0106235 1.04663e-21)
(1.06269 0.00855023 -4.5798e-22)
(1.06209 0.00676107 2.87948e-27)
(1.06112 0.00522073 1.02048e-21)
(1.05994 0.00366156 1.02092e-21)
(1.0586 0.00227629 -4.29798e-21)
(1.05723 0.000680725 -1.11626e-24)
(0.730112 -0.111797 -2.55732e-22)
(0.815337 -0.199521 -1.28812e-22)
(0.952195 -0.155347 -6.10006e-22)
(1.08386 -0.0757524 -5.96433e-35)
(1.18522 0.0185218 1.85295e-20)
(1.23403 0.0966458 2.05847e-20)
(1.22815 0.142209 -5.07018e-21)
(1.16952 0.140179 -1.01945e-20)
(1.09904 0.109297 -7.02662e-21)
(1.05736 0.0775293 7.81463e-21)
(1.04866 0.0572908 -3.16846e-35)
(1.05065 0.0429992 4.35131e-21)
(1.05319 0.0319618 9.49565e-22)
(1.0559 0.0238931 -5.09075e-22)
(1.05844 0.0183051 -8.95338e-22)
(1.06035 0.0143618 -1.0016e-21)
(1.06153 0.0116129 -9.6398e-23)
(1.06195 0.00955234 -8.04056e-22)
(1.06173 0.00792341 -3.61985e-27)
(1.06101 0.00644171 4.27644e-22)
(1.05993 0.00508871 -4.31057e-23)
(1.05866 0.00363363 -4.06065e-22)
(1.05727 0.00228904 1.65029e-22)
(1.05586 0.000689524 3.59278e-21)
(0.658402 -0.0684107 0)
(0.711748 -0.217152 -3.68703e-23)
(0.846324 -0.193638 5.80588e-21)
(0.991061 -0.119647 -1.29209e-34)
(1.12101 -0.015566 -2.36465e-20)
(1.20895 0.0816663 -6.9778e-20)
(1.23739 0.149585 1.42342e-20)
(1.20911 0.171163 -1.66792e-21)
(1.13713 0.145207 -5.15876e-21)
(1.07014 0.101355 8.42651e-21)
(1.04157 0.0681629 0)
(1.04117 0.0492984 5.45859e-22)
(1.04605 0.035872 1.64462e-34)
(1.05047 0.0261486 -3.04622e-22)
(1.05444 0.019448 -1.91876e-21)
(1.05766 0.0150898 -2.90313e-21)
(1.05982 0.0121851 2.48795e-22)
(1.06101 0.0102381 -2.29198e-21)
(1.06129 0.00876874 9.25233e-23)
(1.06087 0.00753181 4.22644e-22)
(1.05997 0.00629408 -4.2338e-23)
(1.05874 0.0050697 -4.0727e-21)
(1.05736 0.00366775 3.39861e-21)
(1.05592 0.00232877 3.76474e-21)
(1.05446 0.000702311 3.67397e-22)
(0.612035 -0.0275352 4.38201e-21)
(0.621716 -0.224503 3.01438e-21)
(0.73868 -0.227357 -5.73601e-20)
(0.882455 -0.16374 -6.14805e-21)
(1.03208 -0.0569696 -1.82556e-20)
(1.15216 0.0576876 -6.66068e-21)
(1.22088 0.147781 2.48892e-20)
(1.23139 0.195732 -1.85214e-20)
(1.17708 0.186365 7.04439e-21)
(1.09919 0.138224 7.07976e-21)
(1.04364 0.0871234 2.12404e-35)
(1.03013 0.0567094 -3.24627e-22)
(1.03616 0.0401024 -1.21484e-21)
(1.04323 0.0282372 -7.44201e-21)
(1.04923 0.020332 -2.44548e-21)
(1.05406 0.0152656 -2.17073e-22)
(1.05762 0.0122649 2.96422e-21)
(1.05976 0.0104353 9.05806e-22)
(1.06074 0.00925678 1.10668e-22)
(1.06073 0.00830901 7.3681e-22)
(1.06004 0.0073827 5.21511e-23)
(1.05891 0.00630837 -3.86441e-21)
(1.05752 0.00514706 -3.79972e-22)
(1.05603 0.00374771 2.0625e-21)
(1.05452 0.00238373 4.58311e-22)
(1.05303 0.00071559 2.32849e-28)
(0.57292 -0.000398126 4.07189e-21)
(0.563832 -0.216961 4.97644e-21)
(0.639189 -0.252581 -1.08892e-22)
(0.770159 -0.20757 -5.35308e-26)
(0.925309 -0.101541 -2.49258e-21)
(1.06928 0.024171 2.7262e-20)
(1.17306 0.137289 -9.03056e-21)
(1.21951 0.210182 -2.40992e-20)
(1.20314 0.226577 2.24253e-20)
(1.13531 0.185529 1.44066e-21)
(1.06042 0.119758 -5.33398e-35)
(1.02305 0.0693467 -1.09816e-21)
(1.02329 0.044252 -4.98784e-22)
(1.03353 0.0302882 -8.06113e-22)
(1.04228 0.0206144 -5.91721e-22)
(1.04941 0.014868 5.88212e-22)
(1.05466 0.0116097 4.01881e-22)
(1.05818 0.010011 -7.58077e-22)
(1.06003 0.00921831 -7.5773e-36)
(1.0606 0.00872034 2.496e-21)
(1.0602 0.00818376 4.48584e-22)
(1.05916 0.00746248 -3.82019e-21)
(1.05777 0.00646056 9.28784e-27)
(1.05622 0.00529527 3.44767e-21)
(1.05463 0.00385315 -5.17497e-21)
(1.05308 0.00244083 -1.61332e-22)
(1.05157 0.000725881 -3.41756e-22)
(0.533998 0.0174667 5.88439e-22)
(0.531993 -0.200574 1.10449e-20)
(0.568642 -0.265475 -1.39079e-20)
(0.664099 -0.245839 7.70928e-21)
(0.81222 -0.150244 5.43885e-20)
(0.967003 -0.0156905 1.65454e-21)
(1.09825 0.116186 -2.51011e-20)
(1.18098 0.214427 -2.66531e-20)
(1.20388 0.258354 2.14962e-20)
(1.16408 0.236521 3.07803e-20)
(1.08797 0.166826 -2.96142e-38)
(1.02652 0.0934097 1.51802e-21)
(1.01015 0.0507404 1.07891e-25)
(1.02044 0.0314868 -2.97804e-21)
(1.0332 0.0204503 9.46655e-22)
(1.04314 0.0134789 3.23257e-21)
(1.05086 0.0100919 6.32988e-22)
(1.05606 0.00871665 -1.68335e-21)
(1.05918 0.00847393 -1.52628e-22)
(1.06048 0.00860522 7.52587e-22)
(1.06047 0.00864554 -3.84594e-21)
(1.05958 0.008375 -4.76136e-21)
(1.05817 0.00773715 -1.11848e-26)
(1.05653 0.00671372 3.63904e-21)
(1.05483 0.00548215 1.63346e-22)
(1.05318 0.00396143 1.78194e-34)
(1.05159 0.00248689 -2.50622e-22)
(1.05008 0.000730032 0)
(0.499043 0.0257808 2.474e-21)
(0.509136 -0.184395 -1.32021e-20)
(0.525939 -0.270463 5.58036e-20)
(0.588196 -0.272608 1.8576e-20)
(0.701752 -0.194904 -3.32694e-20)
(0.855933 -0.061496 6.27014e-22)
(1.00274 0.0861424 5.68592e-21)
(1.11505 0.208537 -2.09724e-20)
(1.17422 0.278988 -3.28358e-20)
(1.17201 0.283291 5.18542e-20)
(1.11478 0.223083 0)
(1.04134 0.13335 1.04351e-20)
(1.00203 0.0643588 1.90146e-21)
(1.00472 0.0329521 1.23057e-21)
(1.02087 0.018913 -6.60056e-22)
(1.03508 0.0111716 1.00535e-22)
(1.04566 0.0072628 -2.27195e-21)
(1.05337 0.00631178 -2.00848e-21)
(1.05804 0.00678105 -1.77627e-22)
(1.0604 0.00775641 1.00711e-22)
(1.06091 0.00862196 -1.22996e-21)
(1.0602 0.0090097 -2.14826e-21)
(1.05878 0.00883625 6.51288e-22)
(1.05701 0.00815389 3.61622e-21)
(1.05515 0.00702099 3.6564e-22)
(1.05335 0.00567197 3.59898e-22)
(1.05166 0.00404977 1.85861e-21)
(1.05008 0.00250996 1.995e-22)
(1.04859 0.000725531 -2.97781e-21)
(0.473182 0.0235237 4.52645e-21)
(0.493777 -0.17319 -2.75052e-21)
(0.498346 -0.272067 1.04511e-20)
(0.540777 -0.28974 -2.89127e-20)
(0.620763 -0.230104 3.56109e-20)
(0.7428 -0.106421 -6.45388e-21)
(0.896979 0.0518037 -2.42535e-21)
(1.02723 0.193157 -4.16417e-20)
(1.11715 0.289723 -4.528e-20)
(1.15213 0.320774 7.92569e-20)
(1.12725 0.280701 -4.24058e-36)
(1.06061 0.187233 -2.51792e-20)
(1.00252 0.0919043 -2.72883e-21)
(0.988942 0.0369038 2.1137e-21)
(1.00523 0.0164744 7.98536e-21)
(1.02408 0.00705433 2.85212e-21)
(1.03904 0.00301223 1.10387e-22)
(1.04961 0.00235473 -3.43652e-22)
(1.05665 0.00379476 1.59027e-22)
(1.06033 0.00594607 -6.34129e-22)
(1.0616 0.00790236 -2.0056e-21)
(1.06115 0.00924159 -1.13907e-21)
(1.05968 0.00974999 3.51978e-21)
(1.05773 0.00949417 3.52126e-21)
(1.05564 0.0086454 3.64677e-22)
(1.05363 0.00733026 -2.18213e-27)
(1.05178 0.00582872 -5.47116e-22)
(1.05011 0.00409756 -1.46252e-21)
(1.04856 0.00250055 -3.03535e-21)
(1.04712 0.000710733 -1.1208e-24)
(0.460695 0.0115216 -4.87698e-21)
(0.489579 -0.170834 -4.78094e-21)
(0.485259 -0.27186 -4.23416e-21)
(0.50864 -0.302527 6.00425e-20)
(0.568086 -0.256317 4.01201e-21)
(0.658416 -0.143615 -3.29847e-20)
(0.783512 0.00882313 -6.8476e-23)
(0.924218 0.171735 1.24815e-20)
(1.03731 0.290904 -4.08224e-20)
(1.10391 0.347826 1.82284e-20)
(1.11575 0.332361 9.20719e-34)
(1.07295 0.248905 1.79188e-21)
(1.00962 0.134923 -8.46723e-22)
(0.977018 0.0501664 -7.13149e-21)
(0.986317 0.0130667 -1.41964e-21)
(1.01005 0.00131474 -2.92042e-21)
(1.02987 -0.00346477 -2.40525e-21)
(1.04484 -0.00350597 1.34838e-21)
(1.05463 -0.000900152 1.71045e-35)
(1.06036 0.00275247 -4.30912e-22)
(1.06261 0.00628208 -2.78041e-23)
(1.06253 0.00888398 -3.46455e-22)
(1.06102 0.0103817 -3.13077e-21)
(1.0588 0.0107647 2.86449e-21)
(1.05639 0.0102542 9.44664e-22)
(1.05407 0.00913651 2.60146e-27)
(1.05198 0.0075889 -3.4348e-22)
(1.05014 0.00591993 3.79229e-22)
(1.04853 0.0040885 1.02196e-21)
(1.04705 0.00245245 -6.77381e-23)
(1.04569 0.000685026 2.72835e-21)
(0.463442 -0.00883683 -3.72592e-21)
(0.494925 -0.178308 1.05609e-23)
(0.487259 -0.272645 2.53952e-21)
(0.490164 -0.311715 -1.67988e-20)
(0.530293 -0.278702 6.91097e-20)
(0.602785 -0.174562 -1.36662e-21)
(0.696122 -0.0242734 -2.34086e-20)
(0.814697 0.138442 0)
(0.941368 0.283334 -6.07543e-20)
(1.03209 0.364839 2.60299e-20)
(1.07703 0.373893 1.61752e-34)
(1.06763 0.309867 4.56571e-20)
(1.01587 0.191213 -3.06072e-21)
(0.970195 0.076173 1.46749e-20)
(0.966658 0.0136838 4.14749e-21)
(0.991519 -0.00719316 4.07185e-22)
(1.0182 -0.0122787 -1.31324e-21)
(1.03804 -0.0119924 -2.20328e-22)
(1.0521 -0.00790214 -2.09222e-22)
(1.06029 -0.00220744 2.36062e-22)
(1.06407 0.00330814 9.83275e-23)
(1.06452 0.00776616 -3.14467e-21)
(1.06295 0.0105951 2.68964e-21)
(1.06038 0.0119042 2.68843e-21)
(1.05749 0.0119209 3.49138e-22)
(1.05474 0.0110101 -6.16847e-23)
(1.0523 0.00955127 -3.44941e-22)
(1.05023 0.00774953 0)
(1.04847 0.00592007 -3.10375e-21)
(1.04697 0.00401204 -1.28135e-21)
(1.04558 0.00236341 2.73403e-21)
(1.04433 0.000648859 -2.60129e-21)
(0.489676 -0.0386627 -2.56591e-21)
(0.513753 -0.194561 7.524e-22)
(0.50004 -0.276971 2.63211e-21)
(0.492042 -0.318274 2.06798e-20)
(0.508564 -0.297391 -4.57814e-20)
(0.561264 -0.201273 -7.32265e-20)
(0.638841 -0.05742 -1.51471e-20)
(0.730682 0.111356 -2.46538e-21)
(0.838354 0.269356 1.6677e-21)
(0.944434 0.373328 2.27837e-20)
(1.01398 0.404353 -2.73008e-20)
(1.03844 0.363177 -8.67523e-21)
(1.01203 0.253494 -1.11706e-21)
(0.96521 0.117467 -2.22846e-22)
(0.94824 0.0213554 9.97308e-22)
(0.969354 -0.0159244 1.70667e-21)
(1.00208 -0.0245703 3.82936e-21)
(1.02926 -0.0236211 1.38934e-21)
(1.04823 -0.0178865 1.94723e-21)
(1.0603 -0.00974139 1.37999e-21)
(1.06603 -0.00136706 1.20942e-21)
(1.06732 0.00546114 -2.89285e-21)
(1.06572 0.0102681 -6.76063e-22)
(1.06263 0.0128482 3.87938e-21)
(1.05912 0.0136244 3.12307e-21)
(1.05573 0.0130677 -6.63533e-23)
(1.0528 0.0116539 2.52264e-22)
(1.05037 0.00982147 0)
(1.04842 0.00777515 -3.11744e-21)
(1.0468 0.00581289 -6.23755e-22)
(1.04544 0.00386453 1.57289e-21)
(1.04419 0.0022352 -2.56282e-21)
(1.04305 0.000603629 -1.10419e-24)
(0.534177 -0.0725293 -1.0424e-20)
(0.546306 -0.217919 -1.39379e-21)
(0.525583 -0.285456 -6.10891e-22)
(0.507219 -0.323688 7.0952e-21)
(0.503818 -0.312179 -6.94485e-20)
(0.535212 -0.225021 1.23782e-22)
(0.594273 -0.084661 3.15128e-20)
(0.672677 0.0802242 3.75361e-21)
(0.758266 0.246353 -8.67244e-21)
(0.850402 0.37422 7.6926e-21)
(0.934097 0.424753 4.2695e-25)
(0.98573 0.405413 1.15048e-20)
(0.990096 0.313705 1.00607e-20)
(0.956558 0.169965 -2.41472e-20)
(0.9305 0.0417778 -8.57797e-22)
(0.944565 -0.0234225 -3.649e-21)
(0.981317 -0.0398384 -1.37131e-21)
(1.01667 -0.0392175 8.66054e-24)
(1.04297 -0.0317896 -1.13871e-25)
(1.05984 -0.0204909 2.27066e-23)
(1.06874 -0.00868491 -8.58199e-23)
(1.07121 0.0016661 4.90908e-23)
(1.06963 0.00905945 5.38296e-22)
(1.0659 0.0135405 2.75966e-21)
(1.06145 0.0153851 -3.36236e-21)
(1.05721 0.0153298 4.75398e-36)
(1.05355 0.0140515 2.54177e-22)
(1.05063 0.0120887 3.12369e-22)
(1.04835 0.00989426 -3.05509e-21)
(1.0466 0.00764266 9.67621e-27)
(1.04518 0.00559309 2.92816e-21)
(1.044 0.0036493 8.89536e-22)
(1.04288 0.00207328 1.66308e-22)
(1.04187 0.00055156 2.35297e-21)
(0.592478 -0.113337 8.98685e-22)
(0.594205 -0.243938 -3.28143e-22)
(0.56273 -0.297428 1.13135e-20)
(0.535484 -0.329151 2.39805e-20)
(0.515396 -0.322394 4.66341e-23)
(0.525543 -0.245101 3.35932e-20)
(0.564374 -0.109058 7.12775e-21)
(0.624882 0.0551041 -5.02104e-20)
(0.700192 0.222744 -1.54152e-20)
(0.773211 0.364438 9.91093e-21)
(0.846533 0.437921 1.28237e-20)
(0.915304 0.436275 -7.06344e-20)
(0.947673 0.365551 1.36343e-21)
(0.936844 0.228005 -5.69707e-21)
(0.911745 0.0736797 2.13627e-20)
(0.91732 -0.0238146 6.29661e-21)
(0.955592 -0.0578739 -2.13232e-23)
(0.999597 -0.0595268 -8.4974e-22)
(1.03482 -0.0503906 7.97945e-35)
(1.05885 -0.0357856 1.69788e-21)
(1.07198 -0.0191986 -4.70733e-22)
(1.07654 -0.00456666 -1.34193e-21)
(1.07514 0.00673339 -1.37897e-21)
(1.07054 0.0137771 2.92713e-21)
(1.06486 0.0172271 -7.30606e-23)
(1.05935 0.017903 6.17977e-23)
(1.0547 0.0168013 3.01985e-21)
(1.05104 0.0147342 -6.70666e-22)
(1.04832 0.01224 -2.74074e-21)
(1.04631 0.0097373 -1.19517e-26)
(1.04483 0.00734516 2.80425e-21)
(1.04365 0.00526654 -2.88077e-21)
(1.04266 0.00337604 4.63433e-35)
(1.04169 0.00188635 2.49462e-21)
(1.04081 0.000495467 0)
(0.687517 -0.168302 0)
(0.653947 -0.271153 -3.42957e-20)
(0.612595 -0.3108 -2.47663e-20)
(0.575523 -0.334593 4.13772e-21)
(0.541478 -0.329757 4.57638e-20)
(0.531611 -0.260697 -5.25572e-20)
(0.550155 -0.129177 -1.6836e-20)
(0.591121 0.0321829 -4.86443e-20)
(0.650511 0.201885 -8.75708e-20)
(0.7176 0.350942 4.98982e-20)
(0.773948 0.441626 1.76206e-20)
(0.835193 0.455514 -2.06763e-21)
(0.887797 0.406723 2.05966e-21)
(0.902046 0.282731 -1.83564e-21)
(0.887538 0.117729 -3.09273e-21)
(0.887445 -0.0176562 -2.45951e-21)
(0.924592 -0.0749462 -2.98159e-21)
(0.976751 -0.0849792 -4.41781e-22)
(1.02296 -0.0751995 5.20567e-22)
(1.05625 -0.0567178 -7.27968e-22)
(1.07595 -0.0346588 -1.36973e-21)
(1.08349 -0.0136181 -2.03057e-22)
(1.08268 0.00250999 6.07079e-22)
(1.07714 0.0134317 -6.46793e-23)
(1.06972 0.0191175 3.60642e-22)
(1.06248 0.0208978 4.73648e-23)
(1.05637 0.0200876 2.97704e-22)
(1.0517 0.0178423 7.99746e-23)
(1.04831 0.0150108 -3.16998e-22)
(1.04596 0.0120634 4.80804e-22)
(1.04433 0.00934208 2.81793e-21)
(1.04317 0.00689228 -2.6581e-21)
(1.04224 0.00484911 -3.95826e-22)
(1.04145 0.00305991 -8.00927e-22)
(1.04063 0.00168532 -5.35073e-23)
(1.03986 0.000438498 -2.24662e-22)
(0.804041 -0.228402 -9.37157e-21)
(0.741753 -0.302767 6.72981e-21)
(0.671433 -0.323798 -2.61857e-21)
(0.625349 -0.339512 -5.06924e-20)
(0.57957 -0.334598 6.93061e-20)
(0.552199 -0.271001 8.6026e-21)
(0.550711 -0.144246 -2.25878e-21)
(0.572071 0.0140114 5.28511e-21)
(0.61346 0.182647 4.67976e-20)
(0.668584 0.337264 3.32806e-21)
(0.722809 0.439936 -3.43511e-21)
(0.76707 0.464363 -1.49774e-20)
(0.817202 0.435457 1.70788e-20)
(0.851221 0.330105 4.36283e-20)
(0.856199 0.16344 6.70531e-21)
(0.85405 0.00289439 0)
(0.887877 -0.0913368 3.12992e-21)
(0.946843 -0.113887 6.08004e-22)
(1.00519 -0.106914 -6.25966e-22)
(1.05108 -0.0855646 3.6911e-21)
(1.08019 -0.0566378 -1.0728e-21)
(1.09291 -0.0276857 -2.29213e-21)
(1.09299 -0.00381611 -2.72317e-21)
(1.08616 0.0120564 1.71368e-21)
(1.07666 0.02109 -3.42265e-22)
(1.06701 0.0244608 -1.34419e-22)
(1.05886 0.0240988 -9.30133e-22)
(1.05269 0.0216563 -3.7553e-21)
(1.04839 0.0183039 -5.21583e-21)
(1.04552 0.01482 -1.19885e-21)
(1.04368 0.0115489 2.90373e-21)
(1.04249 0.00872403 -2.66169e-21)
(1.04167 0.00630818 9.991e-27)
(1.04099 0.00436523 2.1621e-21)
(1.04038 0.00271986 3.87298e-35)
(1.0397 0.00148219 -1.38022e-22)
(1.03904 0.000383926 -1.99111e-28)
(0.924045 -0.272732 7.09232e-21)
(0.854791 -0.328089 1.42277e-20)
(0.754957 -0.337411 1.28982e-20)
(0.682403 -0.343657 -1.27899e-23)
(0.627395 -0.337309 -2.88281e-20)
(0.584835 -0.275624 5.48306e-20)
(0.564532 -0.15353 5.42417e-20)
(0.566763 0.00131245 -8.31905e-20)
(0.589527 0.167817 1.2089e-19)
(0.629739 0.323792 -2.18224e-20)
(0.67683 0.435933 -3.45741e-20)
(0.719529 0.468403 -3.72771e-21)
(0.755422 0.454367 -3.3176e-20)
(0.79056 0.363774 -1.48492e-21)
(0.812336 0.20885 -1.0439e-20)
(0.820433 0.026942 3.48208e-21)
(0.847722 -0.0973037 -2.20101e-21)
(0.908408 -0.145202 -2.00114e-20)
(0.979037 -0.144361 -1.11443e-21)
(1.03983 -0.122823 1.34876e-21)
(1.08322 -0.0883128 3.50377e-22)
(1.10511 -0.0487635 8.67614e-21)
(1.10792 -0.0146071 6.25922e-22)
(1.09897 0.00966312 1.52989e-21)
(1.08608 0.023123 4.40254e-22)
(1.07344 0.0288155 9.85886e-35)
(1.06249 0.0291451 -3.77207e-22)
(1.05422 0.0264205 -5.82585e-23)
(1.04855 0.0223969 -2.74146e-22)
(1.04497 0.0181016 2.7446e-21)
(1.04281 0.014151 4.73641e-22)
(1.04158 0.0107211 -2.75304e-21)
(1.04085 0.00791949 -1.25762e-26)
(1.04036 0.00562928 2.36388e-21)
(1.03991 0.00384509 1.24691e-22)
(1.03946 0.00237661 7.18819e-22)
(1.03889 0.00128902 1.47739e-23)
(1.03832 0.000334915 2.03173e-22)
(1.0382 -0.300774 5.61357e-21)
(0.963582 -0.340032 -3.79422e-22)
(0.858552 -0.345255 3.07783e-20)
(0.762871 -0.346612 2.09174e-20)
(0.681624 -0.336532 -1.98828e-21)
(0.626742 -0.273911 2.98457e-20)
(0.589036 -0.155601 4.45169e-20)
(0.573382 -0.00508735 5.71076e-20)
(0.578183 0.158234 1.34603e-20)
(0.602016 0.313016 2.32434e-20)
(0.638975 0.429879 1.08602e-20)
(0.676738 0.47044 2.48171e-20)
(0.712147 0.464688 -1.37701e-20)
(0.738251 0.390416 3.08427e-21)
(0.761277 0.239075 4.83588e-20)
(0.779685 0.0604641 1.42685e-20)
(0.805177 -0.101185 1.21397e-20)
(0.863772 -0.17375 3.29768e-21)
(0.942362 -0.185523 5.00052e-22)
(1.01841 -0.166832 -1.60832e-21)
(1.07942 -0.129138 -3.36502e-35)
(1.11718 -0.0807726 -9.3055e-21)
(1.12857 -0.0322675 -3.23925e-21)
(1.11882 0.00410219 -7.82104e-22)
(1.10005 0.0255662 2.07107e-21)
(1.08203 0.0343595 -1.00511e-21)
(1.0676 0.035631 5.71991e-21)
(1.05648 0.0325712 7.04986e-22)
(1.04891 0.0275569 -3.66144e-21)
(1.04426 0.022193 -5.09666e-22)
(1.04167 0.0172249 -9.1936e-22)
(1.04035 0.0130422 -1.03932e-21)
(1.03974 0.00963403 7.7818e-22)
(1.03946 0.00698193 2.34228e-21)
(1.03927 0.0049 0)
(1.03902 0.00332146 -4.18811e-22)
(1.03868 0.00205097 -1.82817e-21)
(1.0382 0.00111697 1.57835e-22)
(1.0377 0.000294213 1.93682e-22)
(1.12777 -0.305989 5.66678e-22)
(1.05409 -0.338866 -2.92185e-21)
(0.955175 -0.345995 -4.12059e-20)
(0.859167 -0.346761 3.78974e-25)
(0.756202 -0.329898 2.16306e-20)
(0.673461 -0.264747 1.79143e-20)
(0.621535 -0.150715 -2.56831e-20)
(0.589626 -0.00376677 1.1287e-19)
(0.577818 0.154938 -5.46183e-20)
(0.585744 0.306023 1.64679e-20)
(0.610621 0.42343 8.13739e-22)
(0.641691 0.470403 1.29032e-20)
(0.672986 0.470119 2.63157e-20)
(0.702203 0.407355 -5.56921e-20)
(0.720353 0.268848 -7.67102e-21)
(0.734867 0.0788802 -2.27492e-20)
(0.762033 -0.0893704 -2.13972e-20)
(0.814084 -0.200725 -3.04853e-20)
(0.897127 -0.227632 1.2186e-21)
(0.98443 -0.21459 4.51238e-20)
(1.06279 -0.176921 -9.11272e-21)
(1.12065 -0.121136 -1.12001e-20)
(1.14925 -0.0607445 -9.61642e-21)
(1.14712 -0.00724462 5.93371e-21)
(1.12328 0.0268467 -2.2543e-22)
(1.09538 0.0418462 2.98996e-22)
(1.07416 0.0442709 -4.11288e-22)
(1.05962 0.0406474 6.90838e-35)
(1.04951 0.0342931 -3.87994e-21)
(1.04337 0.0273453 -1.12946e-21)
(1.04013 0.0210369 1.97046e-21)
(1.03869 0.0157348 -2.83199e-21)
(1.03824 0.0115738 3.8564e-22)
(1.03825 0.00836531 2.23843e-21)
(1.03836 0.00597569 0)
(1.03841 0.00416806 -2.16365e-22)
(1.0383 0.00282695 -3.41796e-23)
(1.03804 0.00176216 1.0901e-21)
(1.03762 0.000975296 2.60857e-22)
(1.03715 0.000263818 1.57058e-28)
(1.18248 -0.288693 -7.59739e-21)
(1.11241 -0.32206 -3.51024e-22)
(1.03037 -0.329161 2.00546e-21)
(0.941284 -0.328894 -1.31973e-20)
(0.838963 -0.307969 -5.46456e-20)
(0.735748 -0.244593 -1.32837e-20)
(0.657402 -0.136118 -1.26448e-20)
(0.612752 0.00371123 -1.93157e-20)
(0.586859 0.157876 2.28083e-21)
(0.58056 0.303091 -1.04923e-19)
(0.593319 0.4172 1.38438e-20)
(0.616194 0.468035 -1.24012e-20)
(0.64205 0.471629 5.78945e-21)
(0.669972 0.416089 -1.44328e-20)
(0.693084 0.289402 3.77973e-20)
(0.703903 0.107857 1.68578e-21)
(0.717593 -0.0891293 -4.64277e-20)
(0.765806 -0.216038 1.27247e-20)
(0.844113 -0.269513 7.70603e-21)
(0.939924 -0.263998 -6.75467e-21)
(1.0312 -0.227656 -1.05247e-24)
(1.10831 -0.167831 2.18848e-21)
(1.15879 -0.0950386 2.15321e-20)
(1.17488 -0.0271977 5.12588e-21)
(1.15668 0.0247758 -8.12141e-21)
(1.11942 0.0507145 -6.07638e-26)
(1.08495 0.0561931 8.48045e-22)
(1.06323 0.0515349 6.42734e-22)
(1.05029 0.0432037 -4.5963e-22)
(1.04222 0.0340818 1.5351e-21)
(1.03807 0.025787 3.10617e-21)
(1.03646 0.0190249 8.92931e-22)
(1.03622 0.0137507 1.99087e-35)
(1.0366 0.00985754 -3.11564e-21)
(1.03712 0.00700661 -7.37774e-22)
(1.03755 0.0049692 -2.11727e-22)
(1.03776 0.00348059 2.07523e-27)
(1.03773 0.00239155 2.98595e-22)
(1.0375 0.00152616 -1.03647e-21)
(1.03711 0.000870502 -1.1103e-22)
(1.03666 0.000244793 -1.77092e-22)
(1.19175 -0.248359 2.52091e-22)
(1.13225 -0.276476 3.30918e-23)
(1.07217 -0.28685 -4.43523e-21)
(0.996196 -0.287509 1.28172e-34)
(0.902926 -0.26621 3.81859e-20)
(0.803119 -0.209852 1.22112e-20)
(0.706493 -0.111065 2.89172e-22)
(0.639205 0.0212987 7.39451e-21)
(0.603013 0.165111 5.84467e-20)
(0.585937 0.302846 -8.62098e-20)
(0.588051 0.4105 3.06736e-20)
(0.602584 0.462882 -2.64876e-20)
(0.621917 0.468613 9.97222e-21)
(0.64613 0.417979 3.69935e-20)
(0.669095 0.2996 -1.21344e-19)
(0.685233 0.131915 5.7312e-21)
(0.690063 -0.070706 8.94327e-20)
(0.718218 -0.23478 3.60418e-20)
(0.790658 -0.305809 2.02634e-20)
(0.885888 -0.313373 1.60102e-20)
(0.987309 -0.280591 -1.42899e-20)
(1.07914 -0.216779 2.92701e-20)
(1.14994 -0.134574 4.47035e-20)
(1.18899 -0.0500677 -1.83016e-20)
(1.18904 0.0186096 4.66647e-22)
(1.15431 0.0598863 -5.24349e-21)
(1.10671 0.0721973 1.78896e-24)
(1.06972 0.0666081 0)
(1.05044 0.0552052 -5.13112e-21)
(1.04055 0.0429695 2.45366e-21)
(1.03527 0.0319574 4.38966e-21)
(1.03342 0.0230349 -4.28488e-21)
(1.03348 0.0163345 -5.31746e-22)
(1.03436 0.0114343 2.49927e-21)