/*--------------------------------*- C++ -*----------------------------------*\
| =========                 |                                                 |
| \\      /  F ield         | OpenFOAM: The Open Source CFD Toolbox           |
|  \\    /   O peration     | Version:  2506                                  |
|   \\  /    A nd           | Website:  www.openfoam.com                      |
|    \\/     M anipulation  |                                                 |
\*---------------------------------------------------------------------------*/
FoamFile
{
    version     2.0;
    format      ascii;
    arch        "LSB;label=32;scalar=64";
    class       volVectorField;
    location    "199.976811410189782";
    object      U_0;
}
// * * * * * * * * * * * * * * * * * * * * * * * * * * * * * * * * * * * * * //

dimensions      [0 1 -1 0 0 0 0];

internalField   nonuniform List<vector> 
9700
(
(1.10692 0.00138552 5.13061e-22)
(1.10696 0.00450598 -2.26728e-24)
(1.10263 0.00138994 2.89862e-28)
(1.107 0.00729079 -6.67018e-22)
(1.10267 0.00453317 -1.13474e-24)
(1.10052 0.00139807 -5.14051e-22)
(1.1071 0.0103124 -1.72843e-24)
(1.10275 0.0073444 -5.08034e-35)
(1.10056 0.00457393 -5.14362e-22)
(1.09759 0.00140527 0)
(1.10723 0.0130761 5.15717e-22)
(1.10289 0.0104146 3.14797e-24)
(1.10065 0.00741832 -3.80784e-21)
(1.09763 0.00461538 -1.99152e-23)
(1.0949 0.00141055 4.97214e-22)
(1.10743 0.0159157 5.15071e-22)
(1.10311 0.013252 -1.35434e-27)
(1.10078 0.0105412 -5.24726e-22)
(1.0977 0.00749474 1.18446e-34)
(1.09491 0.00465132 5.01966e-22)
(1.0921 0.00141062 7.27819e-28)
(1.1077 0.0185249 -3.22955e-23)
(1.10344 0.0162076 1.72706e-27)
(1.101 0.0134543 -5.24997e-22)
(1.09782 0.010676 4.58264e-23)
(1.09497 0.00756197 3.66984e-21)
(1.09209 0.00467019 -4.9079e-24)
(1.08933 0.0014031 -4.79302e-22)
(1.10809 0.0210239 7.40791e-22)
(1.10392 0.0189869 4.9584e-23)
(1.10133 0.0165222 -5.17778e-22)
(1.09804 0.0136754 0)
(1.09505 0.0107975 4.90335e-22)
(1.09211 0.00760012 -1.74707e-35)
(1.08929 0.0046628 -4.75342e-22)
(1.08656 0.00138585 -3.96895e-21)
(1.10863 0.0232052 6.59542e-23)
(1.10461 0.0217348 -1.03813e-21)
(1.10183 0.0194652 -4.96055e-22)
(1.09836 0.0168735 0)
(1.09521 0.0138795 4.94646e-22)
(1.09214 0.0108753 1.10148e-23)
(1.08927 0.00759319 -3.26853e-25)
(1.08649 0.00462116 -4.59274e-21)
(1.08383 0.00135751 -8.73111e-25)
(1.10937 0.0250101 -6.44691e-22)
(1.10562 0.0242661 -6.47553e-23)
(1.10256 0.0224506 -5.75043e-21)
(1.09886 0.0200093 -7.28351e-38)
(1.09546 0.0172042 5.18533e-22)
(1.09222 0.014023 -4.6841e-27)
(1.08921 0.0108838 -5.06941e-22)
(1.08642 0.0075274 -6.2076e-22)
(1.08373 0.00453995 5.45063e-22)
(1.08117 0.00131756 3.82036e-21)
(1.11038 0.0262221 4.84593e-22)
(1.10703 0.0265573 6.56972e-24)
(1.10364 0.0253207 1.36319e-21)
(1.0996 0.0232772 1.21825e-23)
(1.09588 0.0205303 5.81599e-22)
(1.09235 0.0174529 5.29918e-27)
(1.08918 0.0140681 -5.09576e-22)
(1.08627 0.0108015 -4.64825e-21)
(1.0836 0.00739362 6.09786e-22)
(1.08103 0.00441697 3.97115e-21)
(1.07859 0.00126645 0)
(1.11154 0.0265876 -2.20493e-23)
(1.10904 0.0284228 7.8197e-24)
(1.10519 0.0280964 4.32017e-21)
(1.10072 0.0265546 1.76242e-24)
(1.09651 0.0240805 5.66376e-21)
(1.09261 0.0209427 1.37996e-22)
(1.08916 0.0175648 -4.79534e-22)
(1.08611 0.0139833 -4.20903e-21)
(1.08335 0.0106138 2.93999e-22)
(1.08085 0.00718821 -3.09474e-25)
(1.07842 0.00425348 -2.86552e-36)
(1.07612 0.00120553 4.38147e-22)
(1.11288 0.0258718 2.25718e-21)
(1.11163 0.0296688 6.40468e-23)
(1.10741 0.0306329 -4.99647e-22)
(1.10238 0.0299183 1.81543e-23)
(1.0975 0.0277699 -1.36507e-21)
(1.09304 0.0247412 -1.1915e-23)
(1.08921 0.0211679 -3.62223e-22)
(1.0859 0.0174945 -4.26674e-21)
(1.08306 0.0137476 1.58291e-27)
(1.08051 0.0103152 3.97666e-21)
(1.07819 0.00691355 7.48954e-36)
(1.07592 0.00405407 4.52701e-22)
(1.07377 0.00113699 1.61088e-27)
(1.11483 0.0235797 3.59147e-23)
(1.11496 0.0301868 1.85292e-34)
(1.11026 0.0328437 -5.052e-22)
(1.10478 0.0332931 1.59825e-22)
(1.099 0.0317365 -4.39045e-21)
(1.09376 0.0287987 -6.90329e-23)
(1.08935 0.025146 -5.67015e-21)
(1.0857 0.0211411 -4.84566e-21)
(1.08265 0.017212 -1.91518e-27)
(1.08007 0.013353 4.02437e-21)
(1.07777 0.0099093 -2.83702e-36)
(1.07566 0.00657775 2.9453e-25)
(1.07356 0.00382629 -1.43684e-23)
(1.07157 0.00106371 -4.05356e-22)
(1.11866 0.0181604 9.48613e-22)
(1.12054 0.0295388 -2.09128e-22)
(1.11396 0.0347307 -6.33673e-21)
(1.1078 0.0367024 2.77894e-22)
(1.1012 0.0359859 5.32236e-22)
(1.09491 0.0333117 -3.71996e-24)
(1.08967 0.029478 -4.64793e-21)
(1.08548 0.0252036 -4.00543e-21)
(1.08217 0.0208205 7.9927e-22)
(1.07947 0.016706 4.1553e-21)
(1.07721 0.0128052 0)
(1.07517 0.00940885 3.99892e-22)
(1.07328 0.00619399 -2.01554e-35)
(1.07136 0.00358022 -3.91105e-22)
(1.06952 0.000989037 -5.16297e-22)
(1.12391 0.00641169 9.04812e-22)
(1.13106 0.0254169 -4.68654e-23)
(1.12097 0.0359623 -3.06117e-22)
(1.11179 0.0402901 2.4614e-34)
(1.1039 0.0406554 4.71043e-22)
(1.09665 0.0383643 -2.13847e-23)
(1.09027 0.0344076 4.51519e-21)
(1.08531 0.0296777 -5.55945e-21)
(1.08157 0.0248548 3.63798e-21)
(1.07872 0.0201904 4.52094e-21)
(1.07644 0.0159849 0)
(1.07452 0.0121226 4.04453e-22)
(1.07274 0.0088344 3.39513e-23)
(1.07106 0.00577974 -3.03339e-21)
(1.06931 0.00332756 -1.03316e-21)
(1.06761 0.000916425 -2.9179e-28)
(1.1275 -0.0129421 -1.44818e-21)
(1.14632 0.014099 0)
(1.13594 0.0342854 8.71631e-22)
(1.12021 0.0439539 -8.64071e-22)
(1.10742 0.0460144 7.33279e-21)
(1.09865 0.0441946 -3.01469e-22)
(1.09127 0.0400829 -5.51423e-22)
(1.08524 0.0348377 -5.44667e-22)
(1.08088 0.0293153 4.52822e-21)
(1.07775 0.0240789 -5.13279e-23)
(1.07544 0.0192635 -2.01722e-35)
(1.0736 0.0150754 5.01283e-22)
(1.07203 0.0113354 -1.61511e-26)
(1.07051 0.0082131 -4.60876e-22)
(1.06902 0.00535514 -5.19866e-22)
(1.06742 0.0030805 4.07737e-22)
(1.06585 0.00084928 4.88109e-22)
(1.11889 -0.0383035 -1.8161e-21)
(1.16162 -0.00709877 -2.44543e-21)
(1.15879 0.0259826 -3.07118e-22)
(1.13925 0.0458587 0)
(1.11598 0.0523135 6.44152e-22)
(1.10109 0.0511387 1.26273e-34)
(1.09225 0.0468156 -6.13018e-22)
(1.08533 0.0408697 -4.93609e-21)
(1.08007 0.0344868 -3.7573e-21)
(1.07653 0.0283639 8.60141e-22)
(1.07413 0.0228949 -5.25364e-22)
(1.07241 0.0180782 9.02435e-22)
(1.07102 0.0140199 2.04651e-26)
(1.06977 0.0104825 -4.63527e-22)
(1.06848 0.00757618 -6.43862e-22)
(1.06715 0.00494108 3.33803e-21)
(1.06568 0.00285109 5.04127e-22)
(1.06422 0.000790614 -4.67148e-22)
(1.0904 -0.0655546 0)
(1.159 -0.0354381 6.24534e-21)
(1.17912 0.00888734 -4.71806e-21)
(1.16887 0.0427614 -6.16632e-35)
(1.13725 0.0586609 3.04666e-21)
(1.10851 0.0598442 1.05169e-21)
(1.09311 0.0549378 -4.19413e-21)
(1.0851 0.0481313 -5.73388e-21)
(1.07915 0.0405618 -2.30989e-22)
(1.07499 0.0333214 4.49287e-21)
(1.07245 0.0268527 5.7052e-22)
(1.07084 0.0213575 5.08667e-21)
(1.0697 0.0166943 6.70717e-22)
(1.06873 0.0128738 -3.60239e-22)
(1.06776 0.0096087 -5.21502e-22)
(1.06666 0.00695605 3.37452e-22)
(1.06545 0.00455819 -2.7391e-21)
(1.06408 0.00265016 -9.46358e-22)
(1.06269 0.000742732 -2.80403e-28)
(1.04013 -0.0910737 2.03766e-21)
(1.1307 -0.0682652 4.59791e-21)
(1.18142 -0.0152045 6.09281e-21)
(1.19682 0.031947 -1.95585e-36)
(1.17184 0.0625029 -1.08021e-21)
(1.12975 0.0706826 7.68457e-22)
(1.09807 0.0653963 -4.54703e-22)
(1.08411 0.0568891 -8.19737e-22)
(1.07764 0.0479205 6.85418e-22)
(1.07308 0.039118 4.89105e-21)
(1.07027 0.0313883 6.51003e-22)
(1.06878 0.0248608 3.70936e-21)
(1.06796 0.0195503 -8.10194e-23)
(1.06736 0.0151885 1.09626e-22)
(1.06675 0.0116996 -5.24388e-22)
(1.066 0.00876024 3.07225e-27)
(1.06503 0.00638463 4.32398e-22)
(1.0639 0.00422488 -4.68057e-22)
(1.0626 0.00248618 2.05087e-23)
(1.06125 0.000707107 4.36033e-22)
(0.974546 -0.111416 -1.93532e-20)
(1.07953 -0.104405 -1.31424e-20)
(1.15814 -0.045726 -1.63968e-20)
(1.206 0.0138309 -3.42322e-35)
(1.20651 0.0607868 -9.46161e-21)
(1.16671 0.0822688 -3.19243e-25)
(1.11666 0.079849 1.99633e-21)
(1.08571 0.0681587 -6.5095e-21)
(1.07482 0.0567377 6.55272e-22)
(1.07034 0.0461347 5.29448e-21)
(1.06746 0.0366145 -6.67459e-22)
(1.0661 0.0288028 -4.23626e-21)
(1.06566 0.0225061 -1.04652e-21)
(1.06555 0.017579 -4.82856e-21)
(1.06541 0.0136472 -9.37193e-22)
(1.06507 0.0105621 -3.91977e-27)
(1.06446 0.0079825 4.31836e-22)
(1.06356 0.00589045 -5.45265e-22)
(1.06247 0.00395554 9.4313e-35)
(1.0612 0.0023649 6.59355e-22)
(1.05987 0.000684186 4.29524e-24)
(0.896838 -0.121248 3.31012e-21)
(1.00492 -0.140537 -1.80585e-22)
(1.11027 -0.0822177 4.94799e-21)
(1.18923 -0.0123876 0)
(1.22307 0.0515509 7.82609e-22)
(1.20716 0.0916511 -1.01314e-20)
(1.15274 0.0985558 2.6537e-22)
(1.09935 0.0845738 -6.36083e-21)
(1.07275 0.0678489 1.38323e-21)
(1.06591 0.0544625 1.97249e-22)
(1.06365 0.0428898 -4.5595e-36)
(1.06259 0.0332249 5.02651e-22)
(1.06265 0.0257311 1.12029e-22)
(1.06315 0.0199345 5.10968e-22)
(1.06364 0.0155615 -2.77747e-21)
(1.06384 0.012159 4.91531e-22)
(1.06367 0.00952467 5.45136e-22)
(1.06312 0.0073159 -4.63295e-22)
(1.06224 0.00549586 -4.79404e-23)
(1.06113 0.00375983 4.3595e-22)
(1.05985 0.00228857 1.91856e-23)
(1.05853 0.00067332 -3.84622e-21)
(0.813128 -0.119644 -1.64611e-21)
(0.91332 -0.173047 4.12359e-22)
(1.03737 -0.121296 3.51668e-20)
(1.14636 -0.0470165 -2.5025e-35)
(1.21501 0.0331181 9.13205e-21)
(1.23006 0.0934976 2.57694e-20)
(1.19649 0.118996 -1.00854e-20)
(1.13125 0.108304 -1.07592e-21)
(1.07989 0.0842819 -1.17617e-26)
(1.06053 0.0646102 6.36847e-21)
(1.05796 0.05024 -2.45536e-35)
(1.05792 0.0384392 6.89959e-22)
(1.05868 0.0291887 1.29997e-22)
(1.06001 0.0223728 3.80281e-21)
(1.06129 0.0173064 9.39288e-22)
(1.06222 0.0136175 2.98312e-21)
(1.06262 0.0108099 1.0536e-21)
(1.0625 0.00864387 -4.60585e-22)
(1.06193 0.0067922 2.92535e-27)
(1.061 0.00521586 1.02733e-21)
(1.05984 0.00364143 1.02252e-21)
(1.05854 0.0022556 -4.30231e-21)
(1.05719 0.000672864 -1.13633e-24)
(0.731267 -0.0956988 6.96266e-22)
(0.810946 -0.196725 -1.32751e-22)
(0.945239 -0.161072 2.13085e-22)
(1.0758 -0.0869541 -6.46441e-35)
(1.17873 0.00535366 1.80435e-20)
(1.23159 0.0848155 2.01178e-20)
(1.22922 0.134215 -4.77223e-21)
(1.17465 0.137553 -9.80466e-21)
(1.10455 0.110106 -6.93563e-21)
(1.06069 0.079273 8.02095e-21)
(1.05009 0.0588649 -3.18462e-35)
(1.05134 0.0444115 4.41021e-21)
(1.05345 0.0331273 9.06201e-22)
(1.05586 0.0247839 -5.15783e-22)
(1.05823 0.0189429 -8.99516e-22)
(1.06007 0.0147829 -1.01473e-21)
(1.06125 0.011864 -9.70204e-23)
(1.0617 0.00967711 -8.09917e-22)
(1.06153 0.00796438 -3.68311e-27)
(1.06085 0.0064327 4.28982e-22)
(1.05982 0.00505615 -4.40813e-23)
(1.05858 0.00359744 -4.06398e-22)
(1.05722 0.00226075 1.68969e-22)
(1.05583 0.000680319 3.59017e-21)
(0.662477 -0.0481272 0)
(0.709681 -0.213193 -9.49512e-23)
(0.840706 -0.197865 5.48943e-21)
(0.983227 -0.130819 -1.31876e-34)
(1.1137 -0.0301943 -2.58249e-20)
(1.20439 0.0674183 -6.71207e-20)
(1.23619 0.138363 1.38114e-20)
(1.21343 0.165967 -1.55637e-21)
(1.14387 0.145219 -5.70764e-21)
(1.07563 0.103849 8.38309e-21)
(1.04404 0.0705282 0)
(1.04201 0.0511791 5.71881e-22)
(1.04634 0.0374344 1.68195e-34)
(1.0504 0.0273419 -3.20104e-22)
(1.05416 0.0203002 -1.91124e-21)
(1.05728 0.0156551 -2.94921e-21)
(1.05944 0.0125202 2.56349e-22)
(1.06066 0.0104055 -2.31255e-21)
(1.06101 0.0088214 9.43287e-23)
(1.06067 0.00751638 4.24274e-22)
(1.05982 0.00624553 -4.3388e-23)
(1.05865 0.00501221 -4.07322e-21)
(1.05731 0.00361862 3.3987e-21)
(1.05589 0.00229537 3.76416e-21)
(1.05445 0.000692562 3.66852e-22)
(0.616112 -0.00750254 1.13647e-20)
(0.622797 -0.216583 4.51899e-21)
(0.73449 -0.229457 -5.50901e-20)
(0.875389 -0.174344 -5.12157e-21)
(1.02451 -0.0725995 -1.74216e-20)
(1.14644 0.0410961 -6.44674e-21)
(1.21886 0.133653 2.45325e-20)
(1.23376 0.186913 -1.68177e-20)
(1.18392 0.184465 7.36172e-21)
(1.10678 0.140965 6.54958e-21)
(1.04824 0.0907731 1.99644e-35)
(1.03156 0.0593774 -1.2987e-22)
(1.03644 0.0421484 -1.13463e-21)
(1.04312 0.0298306 -7.63283e-21)
(1.04885 0.0214707 -2.44848e-21)
(1.05356 0.0160194 -2.16524e-22)
(1.0571 0.0127159 3.01632e-21)
(1.0593 0.0106576 9.20269e-22)
(1.06036 0.00932585 1.13104e-22)
(1.06045 0.00828431 7.4038e-22)
(1.05985 0.00731162 5.35773e-23)
(1.05878 0.00622419 -3.86849e-21)
(1.05745 0.00506955 -3.90034e-22)
(1.056 0.00368995 2.06089e-21)
(1.05451 0.00234817 4.59924e-22)
(1.05304 0.000706136 2.36584e-28)
(0.575799 0.0180681 5.82052e-21)
(0.567427 -0.203842 4.58613e-21)
(0.636465 -0.252182 -1.00346e-22)
(0.764285 -0.216819 -6.18531e-26)
(0.917857 -0.117534 -2.97887e-21)
(1.0628 0.00559256 2.6173e-20)
(1.16961 0.12039 -5.53891e-21)
(1.22006 0.197866 -2.1782e-20)
(1.2091 0.221757 2.34738e-20)
(1.1439 0.187443 1.54516e-21)
(1.06769 0.124789 -5.40681e-35)
(1.0261 0.0734563 -1.15233e-21)
(1.02373 0.0469997 -4.56491e-22)
(1.03329 0.0323675 -8.13348e-22)
(1.04176 0.0221288 -6.1072e-22)
(1.04874 0.0158768 5.98892e-22)
(1.05397 0.0122109 4.12131e-22)
(1.05756 0.0103117 -7.71212e-22)
(1.05953 0.00930817 -7.61818e-36)
(1.06022 0.00868343 2.51616e-21)
(1.05994 0.00808252 4.62521e-22)
(1.059 0.00734119 -3.82466e-21)
(1.05769 0.00634782 9.55694e-27)
(1.05618 0.00520449 3.43895e-21)
(1.05463 0.00379186 -5.16682e-21)
(1.05309 0.00240626 -1.65063e-22)
(1.0516 0.000717526 -3.40702e-22)
(0.535835 0.0346044 5.69886e-22)
(0.536547 -0.1846 1.24219e-20)
(0.567426 -0.26316 -1.26902e-20)
(0.659763 -0.253629 7.54209e-21)
(0.805532 -0.165953 5.60765e-20)
(0.96013 -0.0354464 1.52498e-21)
(1.09367 0.0966361 -2.42173e-20)
(1.18015 0.199097 -2.33289e-20)
(1.20783 0.250108 2.19422e-20)
(1.1722 0.236558 3.08427e-20)
(1.09729 0.172522 -3.01716e-38)
(1.03225 0.0996553 1.13169e-21)
(1.01148 0.0547548 9.56023e-26)
(1.02008 0.0341837 -2.88326e-21)
(1.03247 0.0224363 8.57364e-22)
(1.04225 0.0148174 3.35759e-21)
(1.04994 0.0109024 6.48759e-22)
(1.05523 0.00911851 -1.71827e-21)
(1.0585 0.00859668 -1.57003e-22)
(1.05997 0.0085517 7.78186e-22)
(1.06012 0.00850321 -3.86282e-21)
(1.05936 0.0082045 -4.79092e-21)
(1.05805 0.00757565 -1.15406e-26)
(1.05649 0.00658218 3.63515e-21)
(1.05483 0.00538614 1.57513e-22)
(1.0532 0.00390205 1.7772e-34)
(1.05163 0.00245635 -2.47522e-22)
(1.05013 0.000723478 0)
(0.499803 0.041653 2.10352e-21)
(0.51322 -0.167441 -8.71097e-21)
(0.526238 -0.265843 5.35176e-20)
(0.585234 -0.278781 1.9874e-20)
(0.696366 -0.210154 -3.32273e-20)
(0.849172 -0.082654 4.65032e-22)
(0.997436 0.0644899 5.93607e-21)
(1.11294 0.190208 -1.75712e-20)
(1.17629 0.267402 -3.15683e-20)
(1.17877 0.280506 5.23504e-20)
(1.12479 0.228213 0)
(1.0499 0.141672 1.08372e-20)
(1.00545 0.0706463 1.59126e-21)
(1.00454 0.0366186 1.24982e-21)
(1.01986 0.0214604 -6.92929e-22)
(1.0339 0.0129455 1.22253e-22)
(1.04445 0.00834043 -2.37365e-21)
(1.05226 0.00686259 -2.06011e-21)
(1.05712 0.00694646 -1.83448e-22)
(1.05971 0.00768476 9.39835e-23)
(1.06044 0.00842487 -1.25387e-21)
(1.05992 0.00877147 -2.15087e-21)
(1.05863 0.00861017 6.75024e-22)
(1.05695 0.00796611 3.61102e-21)
(1.05516 0.00688232 3.64919e-22)
(1.05338 0.00557929 3.68588e-22)
(1.05171 0.00399754 1.8528e-21)
(1.05014 0.0024861 1.9729e-22)
(1.04866 0.000721309 -2.96297e-21)
(0.472805 0.0385846 5.08129e-21)
(0.49666 -0.156028 -3.23635e-21)
(0.499757 -0.265496 5.95028e-21)
(0.539042 -0.294348 -2.62195e-20)
(0.616486 -0.244579 3.70648e-20)
(0.73709 -0.127615 -6.48766e-21)
(0.891046 0.0269685 -6.83977e-21)
(1.02428 0.171962 -3.89023e-20)
(1.1179 0.27499 -4.64129e-20)
(1.15713 0.314783 7.76021e-20)
(1.13651 0.284006 -4.66348e-36)
(1.07103 0.196771 -2.61075e-20)
(1.00886 0.101146 -1.9529e-21)
(0.989911 0.042457 1.85711e-21)
(1.00395 0.0197682 8.47032e-21)
(1.02252 0.00934175 2.82659e-21)
(1.03745 0.00446422 1.32816e-22)
(1.04814 0.00309519 -3.60599e-22)
(1.05542 0.00403375 1.65063e-22)
(1.0594 0.00585101 -6.75145e-22)
(1.06096 0.00763386 -2.01758e-21)
(1.06076 0.00891286 -1.09476e-21)
(1.05948 0.00943445 3.5286e-21)
(1.05766 0.00923182 3.51149e-21)
(1.05565 0.00844804 3.63788e-22)
(1.05368 0.00719691 -2.23701e-27)
(1.05184 0.00574763 -5.5065e-22)
(1.05018 0.00405704 -1.45678e-21)
(1.04863 0.00248536 -3.02005e-21)
(1.04719 0.000709154 -1.13982e-24)
(0.459394 0.026152 -4.82365e-21)
(0.490806 -0.154262 -4.90095e-21)
(0.487337 -0.263924 -4.01659e-21)
(0.508056 -0.305751 5.44193e-20)
(0.564822 -0.269798 2.14812e-21)
(0.653693 -0.16504 -3.61122e-20)
(0.777973 -0.0153437 -1.67434e-22)
(0.921306 0.148088 7.48508e-21)
(1.03704 0.273173 -4.14418e-20)
(1.1074 0.338841 1.6158e-20)
(1.1234 0.333108 9.29078e-34)
(1.08373 0.258263 2.73701e-21)
(1.01869 0.147099 -1.17724e-22)
(0.980224 0.0587206 -7.49269e-21)
(0.985275 0.0176734 -1.52153e-21)
(1.00801 0.00425191 -3.18102e-21)
(1.0278 -0.00156184 -2.39625e-21)
(1.04291 -0.00247826 1.35914e-21)
(1.05298 -0.000565432 1.79157e-35)
(1.05909 0.00264206 -4.74448e-22)
(1.06173 0.00592005 -2.96016e-23)
(1.06199 0.00843279 -3.46643e-22)
(1.06074 0.00994589 -3.1231e-21)
(1.0587 0.0103986 2.82877e-21)
(1.0564 0.00997903 9.62002e-22)
(1.05414 0.00894747 2.66815e-27)
(1.05207 0.00747289 -3.42322e-22)
(1.05023 0.00585756 3.80911e-22)
(1.04862 0.00406308 1.01705e-21)
(1.04713 0.0024471 -6.25009e-23)
(1.04576 0.000686156 2.70802e-21)
(0.461236 0.00588358 -5.10394e-21)
(0.494624 -0.162678 2.44067e-21)
(0.488896 -0.263903 3.50045e-21)
(0.490433 -0.313847 -1.40416e-20)
(0.528091 -0.290869 6.5788e-20)
(0.598744 -0.195421 -2.55787e-21)
(0.691569 -0.0500192 -2.39574e-20)
(0.812068 0.112679 0)
(0.940064 0.262796 -5.50221e-20)
(1.03444 0.353185 2.56065e-20)
(1.0829 0.372047 1.62061e-34)
(1.07737 0.317807 4.70672e-20)
(1.02659 0.205305 -6.06565e-21)
(0.976226 0.0886023 1.5756e-20)
(0.96674 0.0206799 4.50143e-21)
(0.989101 -0.00337928 4.54871e-22)
(1.01554 -0.00976802 -1.55655e-21)
(1.03552 -0.0106015 -2.51372e-22)
(1.04992 -0.00739529 -2.20056e-22)
(1.05857 -0.00233398 2.45413e-22)
(1.06287 0.00283239 1.06764e-22)
(1.06377 0.00715254 -3.14934e-21)
(1.06256 0.00999341 2.65425e-21)
(1.06024 0.0113978 2.71597e-21)
(1.05751 0.0115372 3.46942e-22)
(1.05484 0.0107473 -6.33498e-23)
(1.05242 0.00938783 -3.43668e-22)
(1.05035 0.0076612 0)
(1.04858 0.0058817 -3.09028e-21)
(1.04706 0.00400369 -1.27387e-21)
(1.04566 0.00236812 2.71225e-21)
(1.04439 0.000652522 -2.57772e-21)
(0.486952 -0.0240528 -2.7657e-21)
(0.512505 -0.179943 -3.6801e-22)
(0.501439 -0.268456 1.71833e-21)
(0.49327 -0.319826 1.92375e-20)
(0.507251 -0.308065 -4.04771e-20)
(0.557972 -0.221764 -7.12709e-20)
(0.634751 -0.082975 -1.44551e-20)
(0.726777 0.0846753 -1.71252e-21)
(0.835801 0.246105 -3.98939e-22)
(0.945735 0.358808 2.21408e-20)
(1.01834 0.400094 -2.75578e-20)
(1.04643 0.369039 -9.60492e-21)
(1.02284 0.268067 -1.44573e-21)
(0.973831 0.133655 5.4399e-22)
(0.950372 0.0320404 1.10425e-21)
(0.967031 -0.010472 1.75199e-21)
(0.998746 -0.0213767 3.9228e-21)
(1.02604 -0.0216972 1.85964e-21)
(1.04535 -0.0171422 2.06769e-21)
(1.058 -0.0098408 1.50531e-21)
(1.06437 -0.00198617 1.23312e-21)
(1.06629 0.00463362 -2.8872e-21)
(1.06518 0.00944335 -7.46858e-22)
(1.06245 0.0121459 3.89229e-21)
(1.05914 0.0130933 3.10223e-21)
(1.05586 0.0127023 -6.82541e-23)
(1.05297 0.011428 2.67052e-22)
(1.05054 0.00969842 0)
(1.04856 0.00772212 -3.10431e-21)
(1.04692 0.00580149 -6.31077e-22)
(1.04553 0.00387357 1.56175e-21)
(1.04426 0.00224927 -2.53658e-21)
(1.0431 0.000609437 -1.13132e-24)
(0.531211 -0.0577346 -1.10598e-20)
(0.54442 -0.204587 -6.41992e-21)
(0.526267 -0.277824 -2.45498e-22)
(0.50863 -0.325079 5.97827e-21)
(0.503463 -0.321479 -6.25435e-20)
(0.532771 -0.245081 4.02747e-22)
(0.590938 -0.110358 3.0926e-20)
(0.66912 0.0527703 2.47186e-21)
(0.755889 0.221599 -6.1251e-21)
(0.85076 0.357464 6.48919e-21)
(0.937295 0.419056 4.2961e-25)
(0.991798 0.409122 1.17148e-20)
(0.999774 0.327385 1.16318e-20)
(0.966635 0.189078 -2.64905e-20)
(0.935203 0.0569698 -9.80396e-22)
(0.943102 -0.0152271 -3.62217e-21)
(0.977413 -0.0355067 -1.81952e-21)
(1.01259 -0.0366609 -9.54701e-23)
(1.03925 -0.0306547 -1.22661e-25)
(1.05674 -0.0205346 4.10804e-23)
(1.06648 -0.00945274 -1.01955e-22)
(1.06976 0.00056158 4.87804e-23)
(1.06887 0.00792973 6.44834e-22)
(1.06564 0.0125712 2.66019e-21)
(1.06149 0.0146466 -3.32784e-21)
(1.0574 0.0148245 4.71022e-36)
(1.05379 0.013739 2.52438e-22)
(1.05086 0.0119206 3.12212e-22)
(1.04855 0.00982236 -3.04069e-21)
(1.04675 0.00762904 9.88262e-27)
(1.04529 0.00560904 2.91262e-21)
(1.04408 0.00367445 8.81878e-22)
(1.04294 0.0020952 1.71389e-22)
(1.04191 0.000558954 2.32179e-21)
(0.588906 -0.0989718 2.27714e-21)
(0.59209 -0.231935 4.20239e-22)
(0.562806 -0.291169 1.17479e-20)
(0.537043 -0.330684 2.05135e-20)
(0.515864 -0.33048 -1.08012e-22)
(0.523928 -0.264763 3.12365e-20)
(0.56183 -0.134736 6.99421e-21)
(0.622 0.0271075 -5.06359e-20)
(0.697878 0.196399 -1.65959e-20)
(0.773171 0.345016 9.73968e-21)
(0.849004 0.430654 1.24194e-20)
(0.919735 0.438155 -7.03133e-20)
(0.955595 0.377629 1.48592e-21)
(0.947007 0.248352 -6.90053e-21)
(0.918814 0.0937591 2.49357e-20)
(0.917457 -0.0116016 6.35967e-21)
(0.951522 -0.0517281 -1.27115e-22)
(0.994584 -0.056026 -4.75048e-22)
(1.03005 -0.0486875 6.86242e-35)
(1.05475 -0.0356545 1.39922e-21)
(1.06889 -0.0201565 -6.61149e-22)
(1.07453 -0.00602188 -1.3267e-21)
(1.07406 0.00519901 -1.34059e-21)
(1.07016 0.0124345 2.81594e-21)
(1.0649 0.0162029 -1.18254e-22)
(1.05961 0.0172003 6.40996e-23)
(1.05504 0.0163712 2.99973e-21)
(1.05136 0.0145044 -6.54294e-22)
(1.04859 0.0121448 -2.72077e-21)
(1.04652 0.00972219 -1.21834e-26)
(1.04497 0.00737128 2.78697e-21)
(1.04375 0.00530767 -2.86513e-21)
(1.04272 0.00341462 4.589e-35)
(1.04173 0.00191391 2.46644e-21)
(1.04083 0.000503766 0)
(0.685266 -0.153513 0)
(0.651729 -0.260923 -2.94839e-20)
(0.612851 -0.306145 -2.40954e-20)
(0.577182 -0.336551 4.06279e-21)
(0.542586 -0.336999 4.09079e-20)
(0.530848 -0.280001 -4.94037e-20)
(0.548435 -0.154907 -1.6242e-20)
(0.588967 0.00385299 -4.67808e-20)
(0.648492 0.174601 -9.43722e-20)
(0.71709 0.329625 5.1997e-20)
(0.775985 0.432869 1.77562e-20)
(0.838461 0.456274 -1.99863e-21)
(0.894048 0.416903 2.17523e-21)
(0.911092 0.303214 -1.99516e-21)
(0.896118 0.141494 -3.65122e-21)
(0.889709 -0.00021513 -3.65535e-21)
(0.92091 -0.0658341 -3.14319e-21)
(0.970942 -0.0801152 -3.33511e-22)
(1.01695 -0.0725935 6.11459e-22)
(1.05083 -0.0561918 -6.54811e-22)
(1.07171 -0.0357319 -1.2523e-21)
(1.08068 -0.0155552 -8.44847e-23)
(1.08117 0.000417345 3.96086e-22)
(1.07658 0.0115806 -6.22696e-23)
(1.06977 0.0176884 3.56472e-22)
(1.06285 0.0199216 4.98074e-23)
(1.05684 0.0194917 2.95487e-22)
(1.05215 0.0175295 7.9533e-23)
(1.04868 0.0148845 -3.16816e-22)
(1.04624 0.0120485 4.942e-22)
(1.04453 0.0093838 2.80266e-21)
(1.0433 0.0069547 -2.63832e-21)
(1.04232 0.00491104 -4.07657e-22)
(1.04149 0.00310809 -7.90697e-22)
(1.04065 0.0017159 -5.55828e-23)
(1.03987 0.00044695 -2.20403e-22)
(0.804493 -0.215893 -8.03086e-21)
(0.740223 -0.295487 6.30883e-21)
(0.672073 -0.320949 -1.97431e-21)
(0.627104 -0.341994 -4.85969e-20)
(0.581205 -0.34142 6.06835e-20)
(0.55235 -0.290082 1.047e-20)
(0.549894 -0.170107 -2.55449e-21)
(0.570794 -0.0146849 5.13578e-21)
(0.612007 0.154624 4.65271e-20)
(0.667921 0.314523 5.25191e-21)
(0.724341 0.428885 -5.5695e-21)
(0.769841 0.464111 -1.52146e-20)
(0.821993 0.443812 1.67424e-20)
(0.858886 0.349893 4.77408e-20)
(0.864605 0.18996 8.99521e-21)
(0.858382 0.025665 0)
(0.885207 -0.078206 2.54984e-21)
(0.940596 -0.106971 4.97797e-22)
(0.998022 -0.103052 -9.54609e-22)
(1.0441 -0.0842313 3.37795e-21)
(1.07432 -0.057634 -6.60062e-22)
(1.08885 -0.0300985 -2.31847e-21)
(1.09078 -0.00666174 -2.27966e-21)
(1.08536 0.00947109 1.63403e-21)
(1.07672 0.0190966 -3.29898e-22)
(1.06751 0.0230942 -1.53528e-22)
(1.05951 0.0232729 -9.33802e-22)
(1.05332 0.0212273 -3.73949e-21)
(1.0489 0.0181377 -5.20036e-21)
(1.0459 0.0148073 -1.18868e-21)
(1.04395 0.0116139 2.89226e-21)
(1.04266 0.00881726 -2.64445e-21)
(1.04177 0.00640029 1.0284e-26)
(1.04104 0.00444183 2.12554e-21)
(1.0404 0.00277308 3.82724e-35)
(1.0397 0.00151296 -1.30058e-22)
(1.03902 0.000391762 -2.07177e-28)
(0.923428 -0.261995 -2.63896e-21)
(0.854956 -0.323843 1.60024e-20)
(0.756212 -0.336645 1.28944e-20)
(0.684285 -0.346363 -1.24527e-23)
(0.62949 -0.34426 -2.69213e-20)
(0.586 -0.294845 5.35143e-20)
(0.564766 -0.179603 5.19979e-20)
(0.566485 -0.0277565 -8.32095e-20)
(0.588931 0.139207 1.24442e-19)
(0.629326 0.299878 -2.80739e-20)
(0.677921 0.42294 -3.8832e-20)
(0.721993 0.467815 -4.52094e-21)
(0.759128 0.460524 -3.09198e-20)
(0.796659 0.383297 -1.4343e-21)
(0.819806 0.236391 -1.25423e-20)
(0.826021 0.0546951 3.9763e-21)
(0.84679 -0.0788145 -1.18469e-21)
(0.902364 -0.135763 -1.74041e-20)
(0.971083 -0.138931 -4.68015e-22)
(1.03143 -0.120411 1.24086e-21)
(1.07548 -0.0888252 2.7621e-22)
(1.09918 -0.0515665 8.14859e-21)
(1.10447 -0.0183712 7.46418e-22)
(1.09771 0.0060589 1.29378e-21)
(1.08617 0.0202997 4.15237e-22)
(1.07415 0.0268971 9.56759e-35)
(1.0634 0.0279903 -3.70362e-22)
(1.05509 0.025832 -5.80863e-23)
(1.04927 0.0221763 -2.73028e-22)
(1.0455 0.0180955 2.73756e-21)
(1.04317 0.0142502 4.87002e-22)
(1.04181 0.0108577 -2.74103e-21)
(1.04098 0.00805434 -1.29266e-26)
(1.04042 0.00574197 2.3368e-21)
(1.03993 0.00392911 1.29533e-22)
(1.03945 0.00243001 7.05385e-22)
(1.03887 0.00131722 1.54976e-23)
(1.03829 0.000341413 1.97851e-22)
(1.03872 -0.293413 6.32991e-21)
(0.965498 -0.338402 -1.93058e-22)
(0.860732 -0.346399 2.99604e-20)
(0.765116 -0.349633 1.94406e-20)
(0.684299 -0.344565 -1.44391e-21)
(0.629092 -0.293515 2.95978e-20)
(0.590507 -0.182079 4.39227e-20)
(0.574266 -0.0346194 5.7662e-20)
(0.578638 0.129127 1.35607e-20)
(0.602178 0.288362 2.55354e-20)
(0.639822 0.415461 1.44822e-20)
(0.678902 0.469504 2.55947e-20)
(0.715161 0.469375 -1.20311e-20)
(0.742672 0.409165 3.23408e-21)
(0.767308 0.267825 4.77203e-20)
(0.785325 0.0913519 1.00309e-20)
(0.806266 -0.0774203 9.52568e-21)
(0.858564 -0.160535 2.92657e-21)
(0.934132 -0.178417 4.21425e-22)
(1.00917 -0.163241 -1.48591e-21)
(1.07017 -0.129158 -3.2364e-35)
(1.1093 -0.0837461 -9.13968e-21)
(1.1232 -0.0370095 -2.91801e-21)
(1.11647 -0.00083528 -3.17059e-22)
(1.10001 0.0215704 1.98424e-21)
(1.08306 0.0316335 -9.88905e-22)
(1.06889 0.0340089 5.58862e-21)
(1.05771 0.0317553 6.91155e-22)
(1.04991 0.0272651 -3.64592e-21)
(1.045 0.0221985 -5.11247e-22)
(1.04217 0.0173752 -9.18028e-22)
(1.04065 0.0132408 -1.05479e-21)
(1.03991 0.00982769 7.98744e-22)
(1.03954 0.0071451 2.31809e-21)
(1.03929 0.00502265 0)
(1.03901 0.00340523 -4.23581e-22)
(1.03865 0.00209976 -1.78735e-21)
(1.03817 0.00114012 1.50115e-22)
(1.03766 0.000298764 1.87813e-22)
(1.13043 -0.300662 5.12179e-22)
(1.0579 -0.337923 -2.96192e-21)
(0.95866 -0.347508 -3.87073e-20)
(0.862744 -0.350232 3.68512e-25)
(0.760132 -0.340154 2.18857e-20)
(0.677293 -0.285205 1.94904e-20)
(0.624468 -0.177612 -2.61702e-20)
(0.591766 -0.0337573 1.12188e-19)
(0.579386 0.12545 -5.54774e-20)
(0.586641 0.281042 1.75093e-20)
(0.611352 0.408139 6.97702e-22)
(0.643529 0.468859 1.37127e-20)
(0.675394 0.473911 2.65142e-20)
(0.705379 0.425438 -5.44609e-20)
(0.724449 0.297247 -7.35412e-21)
(0.74004 0.112534 -2.26552e-20)
(0.764169 -0.0604821 -1.67674e-20)
(0.810307 -0.18354 -2.83226e-20)
(0.889152 -0.218502 1.12795e-21)
(0.97494 -0.209994 4.18976e-20)
(1.05279 -0.176548 -9.23543e-21)
(1.11149 -0.124695 -1.01997e-20)
(1.14217 -0.066631 -8.04824e-21)
(1.14317 -0.0138312 4.76879e-21)
(1.12257 0.0212033 -1.9097e-22)
(1.09668 0.0379734 2.96566e-22)
(1.07603 0.0419798 -3.93631e-22)
(1.06136 0.0395106 6.79064e-35)
(1.05092 0.0339022 -3.86414e-21)
(1.0444 0.0273741 -1.12467e-21)
(1.04081 0.0212613 1.96494e-21)
(1.03911 0.0160222 -2.80869e-21)
(1.03847 0.0118504 3.95044e-22)
(1.03834 0.00859684 2.21578e-21)
(1.03838 0.00615188 0)
(1.03839 0.00428954 -2.12494e-22)
(1.03825 0.00290302 -3.58962e-23)
(1.03799 0.00180209 1.06134e-21)
(1.03756 0.000991409 2.59078e-22)
(1.0371 0.000266001 1.65237e-28)
(1.18708 -0.286924 -7.05616e-21)
(1.11895 -0.324242 -4.24096e-22)
(1.03631 -0.333749 2.5091e-21)
(0.947394 -0.336655 -1.45e-20)
(0.845339 -0.32189 -5.82987e-20)
(0.741765 -0.266256 -1.34061e-20)
(0.662041 -0.16373 -1.47887e-20)
(0.616288 -0.0265343 -2.01048e-20)
(0.589445 0.128456 1.21581e-21)
(0.582046 0.278403 -1.10372e-19)
(0.59387 0.401941 1.63749e-20)
(0.617466 0.465919 -1.71602e-20)
(0.643697 0.475313 4.02439e-21)
(0.671885 0.433981 -1.60312e-20)
(0.69577 0.317268 3.64236e-20)
(0.707817 0.142343 4.16495e-21)
(0.720304 -0.0567299 -4.74467e-20)
(0.763561 -0.193645 1.15124e-20)
(0.836895 -0.258169 7.50651e-21)
(0.930651 -0.258349 -6.30003e-21)
(1.02109 -0.227112 -9.63008e-25)
(1.0986 -0.172233 2.13687e-21)
(1.15079 -0.102826 1.9915e-20)
(1.16965 -0.0361494 6.12965e-21)
(1.15505 0.0168352 -8.0369e-21)
(1.12069 0.0451081 -6.01557e-26)
(1.08753 0.0529567 9.00097e-22)
(1.06573 0.0499573 6.84076e-22)
(1.05228 0.0426793 -4.57475e-22)
(1.04365 0.0341478 1.50419e-21)
(1.03902 0.0261224 3.11745e-21)
(1.03703 0.0194383 9.06957e-22)
(1.03652 0.0141435 1.95311e-35)
(1.03672 0.0101847 -3.12576e-21)
(1.03714 0.00725432 -7.65582e-22)
(1.03751 0.00514253 -2.08094e-22)
(1.0377 0.00359019 2.18169e-27)
(1.03766 0.00245331 2.99096e-22)
(1.03744 0.00155379 -1.00458e-21)
(1.03705 0.00087822 -1.18235e-22)
(1.0366 0.000244427 -1.70149e-22)
(1.19967 -0.249595 -1.48615e-23)
(1.1417 -0.282144 8.91617e-24)
(1.08101 -0.294867 -4.45565e-21)
(1.00523 -0.298831 1.32393e-34)
(0.912167 -0.282364 4.1717e-20)
(0.811353 -0.232448 1.30512e-20)
(0.713005 -0.138958 2.95176e-22)
(0.643945 -0.00908006 8.30154e-21)
(0.606317 0.136159 5.93143e-20)
(0.587612 0.279198 -9.02516e-20)
(0.588255 0.396265 3.09638e-20)
(0.602975 0.460332 -3.91705e-20)
(0.622548 0.473085 7.1649e-21)
(0.646761 0.435884 3.60471e-20)
(0.670567 0.327306 -1.17286e-19)
(0.687856 0.165967 3.88361e-21)
(0.69308 -0.0352146 9.19867e-20)
(0.717038 -0.208926 3.67996e-20)
(0.784732 -0.291235 2.02983e-20)
(0.877161 -0.306828 1.43279e-20)
(0.97749 -0.279764 -1.34541e-20)
(1.06926 -0.222133 2.78005e-20)
(1.14156 -0.144531 4.30537e-20)
(1.18333 -0.0619422 -1.7e-20)
(1.18677 0.00720393 -5.84887e-22)
(1.1555 0.0516777 -5.16433e-21)
(1.10996 0.0674207 1.68392e-24)
(1.07329 0.0644287 0)
(1.05327 0.0545194 -5.09973e-21)
(1.04256 0.0431011 2.46356e-21)
(1.03658 0.0324549 4.40832e-21)
(1.0342 0.0236307 -4.31514e-21)
(1.03388 0.0168905 -5.42031e-22)
(1.03452 0.0118932 2.52856e-21)