/*--------------------------------*- C++ -*----------------------------------*\
| =========                 |                                                 |
| \\      /  F ield         | OpenFOAM: The Open Source CFD Toolbox           |
|  \\    /   O peration     | Version:  2506                                  |
|   \\  /    A nd           | Website:  www.openfoam.com                      |
|    \\/     M anipulation  |                                                 |
\*---------------------------------------------------------------------------*/
FoamFile
{
    version     2.0;
    format      ascii;
    arch        "LSB;label=32;scalar=64";
    class       volScalarField;
    location    "350";
    object      turbulenceProperties:k;
}
// * * * * * * * * * * * * * * * * * * * * * * * * * * * * * * * * * * * * * //

dimensions      [0 2 -2 0 0 0 0];

internalField   nonuniform List<scalar> 
1340
(
7.04852e-07
1.38625e-06
1.57333e-07
6.44789e-07
7.02702e-07
1.38832e-06
1.73411e-07
2.78865e-07
1.54192e-07
6.47224e-07
7.02974e-07
1.389e-06
3.20722e-07
2.82341e-07
2.64891e-07
1.81884e-07
2.85321e-07
1.52338e-07
6.4985e-07
7.04928e-07
1.38896e-06
4.58542e-07
4.24979e-07
3.9752e-07
3.71962e-07
3.45324e-07
3.20228e-07
2.83728e-07
2.67964e-07
1.90973e-07
2.91536e-07
1.51596e-07
6.52575e-07
7.08004e-07
1.3886e-06
6.43485e-07
6.03278e-07
5.63136e-07
5.24011e-07
4.85644e-07
4.49566e-07
4.1827e-07
3.92699e-07
3.68732e-07
3.43631e-07
3.19889e-07
2.85443e-07
2.71408e-07
2.00542e-07
2.97365e-07
1.51866e-07
6.55165e-07
7.11745e-07
1.38802e-06
8.75734e-07
8.382e-07
8.00819e-07
7.63845e-07
7.27363e-07
6.91246e-07
6.55135e-07
6.18723e-07
5.81984e-07
5.45228e-07
5.0934e-07
4.73942e-07
4.40517e-07
4.1155e-07
3.87881e-07
3.65525e-07
3.42014e-07
3.19654e-07
2.87442e-07
2.75166e-07
2.10492e-07
3.02707e-07
1.53064e-07
6.57572e-07
7.1579e-07
1.38696e-06
1.18046e-06
1.1534e-06
1.12561e-06
1.09716e-06
1.06816e-06
1.03867e-06
1.00878e-06
9.7855e-07
9.47998e-07
9.17061e-07
8.85689e-07
8.53823e-07
8.21518e-07
7.88896e-07
7.56194e-07
7.23638e-07
6.91296e-07
6.59067e-07
6.26649e-07
5.93811e-07
5.60558e-07
5.27209e-07
4.94575e-07
4.62167e-07
4.31448e-07
4.04849e-07
3.83078e-07
3.62341e-07
3.40462e-07
3.19514e-07
2.89711e-07
2.79206e-07
2.20745e-07
3.0746e-07
1.55126e-07
6.59704e-07
7.19611e-07
1.38576e-06
1.10945e-06
1.20043e-06
1.06106e-06
1.09156e-06
1.09238e-06
1.14165e-06
1.16833e-06
1.19463e-06
1.21759e-06
1.23926e-06
1.25919e-06
1.27728e-06
1.29306e-06
1.30663e-06
1.31845e-06
1.32787e-06
1.33522e-06
1.34056e-06
1.34398e-06
1.3456e-06
1.34546e-06
1.34368e-06
1.34046e-06
1.33589e-06
1.33006e-06
1.32307e-06
1.31507e-06
1.30617e-06
1.29633e-06
1.28574e-06
1.27436e-06
1.26226e-06
1.24949e-06
1.23602e-06
1.22192e-06
1.20715e-06
1.19168e-06
1.17559e-06
1.15874e-06
1.14118e-06
1.12292e-06
1.10388e-06
1.08406e-06
1.06343e-06
1.04208e-06
1.01995e-06
9.97117e-07
9.73681e-07
9.49661e-07
9.25155e-07
9.00239e-07
8.74893e-07
8.49072e-07
8.22736e-07
7.95802e-07
7.68309e-07
7.40347e-07
7.12109e-07
6.83785e-07
6.55444e-07
6.27004e-07
5.98217e-07
5.68918e-07
5.39141e-07
5.09193e-07
4.79799e-07
4.50382e-07
4.22404e-07
3.98186e-07
3.78291e-07
3.59175e-07
3.38957e-07
3.19453e-07
2.92236e-07
2.83507e-07
2.31234e-07
3.11565e-07
1.57965e-07
6.61333e-07
7.23004e-07
1.38461e-06
1.20097e-06
9.49406e-07
8.67121e-07
9.47572e-07
9.6534e-07
9.96462e-07
1.01555e-06
1.03659e-06
1.0554e-06
1.07323e-06
1.0895e-06
1.10414e-06
1.11708e-06
1.12831e-06
1.13802e-06
1.14584e-06
1.15205e-06
1.15678e-06
1.15993e-06
1.16165e-06
1.16206e-06
1.1612e-06
1.15919e-06
1.15617e-06
1.15217e-06
1.1473e-06
1.14171e-06
1.13534e-06
1.12833e-06
1.12073e-06
1.11253e-06
1.1038e-06
1.09453e-06
1.08476e-06
1.07448e-06
1.06365e-06
1.0523e-06
1.0404e-06
1.0279e-06
1.01478e-06
1.00101e-06
9.86584e-07
9.71414e-07
9.555e-07
9.38897e-07
9.21518e-07
9.03473e-07
8.84795e-07
8.65533e-07
8.45779e-07
8.25581e-07
8.04917e-07
7.83749e-07
7.62027e-07
7.39645e-07
7.16622e-07
6.93006e-07
6.68962e-07
6.44645e-07
6.20115e-07
5.95323e-07
5.70073e-07
5.44245e-07
5.17891e-07
4.91301e-07
4.65108e-07
4.38652e-07
4.13425e-07
3.91577e-07
3.73516e-07
3.56019e-07
3.37481e-07
3.19465e-07
2.94996e-07
2.88048e-07
2.4187e-07
3.14984e-07
1.61385e-07
6.62748e-07
7.25571e-07
1.384e-06
9.07884e-07
7.98963e-07
7.70208e-07
8.42333e-07
8.50431e-07
8.72208e-07
8.87758e-07
9.04412e-07
9.19541e-07
9.33679e-07
9.46354e-07
9.58035e-07
9.68282e-07
9.77187e-07
9.84813e-07
9.91115e-07
9.96105e-07
1.00002e-06
1.0027e-06
1.00421e-06
1.00481e-06
1.00445e-06
1.00324e-06
1.00115e-06
9.98451e-07
9.95114e-07
9.91156e-07
9.86682e-07
9.81738e-07
9.76349e-07
9.70541e-07
9.64361e-07
9.57769e-07
9.50813e-07
9.43493e-07
9.35762e-07
9.27617e-07
9.19035e-07
9.09987e-07
9.00402e-07
8.90282e-07
8.79584e-07
8.68205e-07
8.5621e-07
8.4353e-07
8.3014e-07
8.16153e-07
8.01549e-07
7.86412e-07
7.70811e-07
7.54772e-07
7.38289e-07
7.21323e-07
7.03782e-07
6.85553e-07
6.66638e-07
6.47049e-07
6.26897e-07
6.06333e-07
5.85419e-07
5.64119e-07
5.42289e-07
5.19838e-07
4.96849e-07
4.73556e-07
4.50491e-07
4.2697e-07
4.04501e-07
3.84987e-07
3.68707e-07
3.52841e-07
3.36001e-07
3.19529e-07
2.9799e-07
2.92827e-07
2.52573e-07
3.17741e-07
1.65372e-07
6.63057e-07
7.27897e-07
1.38438e-06
7.73721e-07
7.14671e-07
6.93017e-07
7.45377e-07
7.49605e-07
7.66807e-07
7.79138e-07
7.92071e-07
8.0372e-07
8.14612e-07
8.24413e-07
8.33375e-07
8.41274e-07
8.48142e-07
8.54039e-07
8.58982e-07
8.62888e-07
8.66e-07
8.68188e-07
8.69512e-07
8.70169e-07
8.70123e-07
8.69402e-07
8.68088e-07
8.66383e-07
8.64095e-07
8.61415e-07
8.58419e-07
8.55021e-07
8.51342e-07
8.47353e-07
8.43137e-07
8.38591e-07
8.33829e-07
8.28786e-07
8.23435e-07
8.17791e-07
8.1181e-07
8.05434e-07
7.98656e-07
7.91416e-07
7.83664e-07
7.75362e-07
7.66497e-07
7.57001e-07
7.46922e-07
7.36284e-07
7.25101e-07
7.13467e-07
7.01416e-07
6.88987e-07
6.76158e-07
6.62896e-07
6.49042e-07
6.34529e-07
6.1931e-07
6.03316e-07
5.86716e-07
5.69604e-07
5.52021e-07
5.34001e-07
5.15421e-07
4.96186e-07
4.7642e-07
4.56294e-07
4.36232e-07
4.15561e-07
3.95784e-07
3.78537e-07
3.63968e-07
3.49706e-07
3.34556e-07
3.19693e-07
3.01213e-07
2.97842e-07
2.631e-07
3.1992e-07
1.69124e-07
6.62714e-07
7.28858e-07
1.38772e-06
6.84416e-07
6.33306e-07
6.12167e-07
6.52296e-07
6.55453e-07
6.68838e-07
6.78203e-07
6.88009e-07
6.96662e-07
7.04961e-07
7.12378e-07
7.1909e-07
7.25132e-07
7.30288e-07
7.34805e-07
7.38677e-07
7.41725e-07
7.44137e-07
7.45983e-07
7.47196e-07
7.4792e-07
7.48116e-07
7.4785e-07
7.47239e-07
7.46244e-07
7.44886e-07
7.4337e-07
7.41542e-07
7.39424e-07
7.37116e-07
7.34755e-07
7.32124e-07
7.29365e-07
7.26335e-07
7.2318e-07
7.19996e-07
7.16336e-07
7.12511e-07
7.08437e-07
7.04048e-07
6.99192e-07
6.93999e-07
6.8831e-07
6.82063e-07
6.75411e-07
6.68149e-07
6.60435e-07
6.52308e-07
6.43729e-07
6.34886e-07
6.25694e-07
6.16154e-07
6.06281e-07
5.95809e-07
5.84673e-07
5.72883e-07
5.6025e-07
5.46933e-07
5.33113e-07
5.18702e-07
5.0383e-07
4.88448e-07
4.72381e-07
4.5579e-07
4.38806e-07
4.21751e-07
4.03923e-07
3.86867e-07
3.71887e-07
3.59045e-07
3.46414e-07
3.33016e-07
3.19932e-07
3.04707e-07
3.03252e-07
2.73769e-07
3.21494e-07
1.76196e-07
6.5858e-07
7.32652e-07
1.39144e-06
5.85287e-07
5.41411e-07
5.22368e-07
5.53314e-07
5.54659e-07
5.64556e-07
5.70831e-07
5.77112e-07
5.83728e-07
5.89033e-07
5.94041e-07
5.99143e-07
6.03127e-07
6.06556e-07
6.10022e-07
6.12997e-07
6.14848e-07
6.16994e-07
6.18498e-07
6.19602e-07
6.20547e-07
6.20832e-07
6.21219e-07
6.21353e-07
6.21015e-07
6.20699e-07
6.20265e-07
6.19639e-07
6.1891e-07
6.17904e-07
6.17159e-07
6.16249e-07
6.15135e-07
6.13779e-07
6.12738e-07
6.11491e-07
6.09846e-07
6.08128e-07
6.06328e-07
6.04261e-07
6.0173e-07
5.99123e-07
5.95825e-07
5.92266e-07
5.88436e-07
5.83874e-07
5.79137e-07
5.74111e-07
5.68577e-07
5.63037e-07
5.57178e-07
5.50984e-07
5.44666e-07
5.37684e-07
5.30044e-07
5.21808e-07
5.12755e-07
5.02882e-07
4.92553e-07
4.81632e-07
4.7022e-07
4.5835e-07
4.45808e-07
4.32777e-07
4.19291e-07
4.05552e-07
3.90915e-07
3.76933e-07
3.64438e-07
3.53481e-07
3.42708e-07
3.31347e-07
3.20378e-07
3.09078e-07
3.09352e-07
2.86318e-07
3.20195e-07
1.89986e-07
6.46105e-07
7.25955e-07
1.34484e-06
4.79966e-07
4.48981e-07
4.349e-07
4.55933e-07
4.56173e-07
4.62702e-07
4.66026e-07
4.69905e-07
4.74164e-07
4.77078e-07
4.80339e-07
4.83654e-07
4.85948e-07
4.88085e-07
4.90669e-07
4.92594e-07
4.93746e-07
4.95638e-07
4.96607e-07
4.97823e-07
4.98924e-07
4.99203e-07
5.00125e-07
5.0095e-07
5.01117e-07
5.01673e-07
5.01998e-07
5.02377e-07
5.02877e-07
5.03063e-07
5.03419e-07
5.03948e-07
5.04142e-07
5.04328e-07
5.04942e-07
5.05106e-07
5.05233e-07
5.05323e-07
5.05351e-07
5.05096e-07
5.04674e-07
5.04018e-07
5.02889e-07
5.01775e-07
5.00124e-07
4.98152e-07
4.96132e-07
4.93838e-07
4.91286e-07
4.8878e-07
4.86156e-07
4.83231e-07
4.80246e-07
4.76682e-07
4.72512e-07
4.6772e-07
4.62167e-07
4.55851e-07
4.49085e-07
4.41801e-07
4.34073e-07
4.25907e-07
4.17162e-07
4.07925e-07
3.98138e-07
3.87948e-07
3.7679e-07
3.66096e-07
3.56235e-07
3.47322e-07
3.3862e-07
3.29587e-07
3.21224e-07
3.14366e-07
3.1654e-07
2.99711e-07
3.17929e-07
2.05075e-07
6.45541e-07
7.20122e-07
1.3431e-06
3.91644e-07
3.68734e-07
3.5725e-07
3.72137e-07
3.71933e-07
3.75426e-07
3.77549e-07
3.8045e-07
3.81984e-07
3.84227e-07
3.8658e-07
3.88183e-07
3.89688e-07
3.9131e-07
3.93152e-07
3.94118e-07
3.95483e-07
3.96803e-07
3.9751e-07
3.98896e-07
4.0001e-07
4.00516e-07
4.01677e-07
4.02722e-07
4.03313e-07
4.04585e-07
4.0539e-07
4.06295e-07
4.07541e-07
4.08562e-07
4.09581e-07
4.10996e-07
4.12062e-07
4.13264e-07
4.14792e-07
4.15938e-07
4.17176e-07
4.18469e-07
4.19615e-07
4.20563e-07
4.21535e-07
4.2216e-07
4.22692e-07
4.23133e-07
4.23103e-07
4.23128e-07
4.23104e-07
4.22909e-07
4.22731e-07
4.22583e-07
4.22528e-07
4.2226e-07
4.21845e-07
4.21111e-07
4.19725e-07
4.17782e-07
4.15188e-07
4.11915e-07
4.08308e-07
4.0426e-07
3.99841e-07
3.9509e-07
3.89826e-07
3.84039e-07
3.77706e-07
3.7084e-07
3.62992e-07
3.55426e-07
3.48068e-07
3.4118e-07
3.34619e-07
3.28027e-07
3.22605e-07
3.20224e-07
3.24529e-07
3.12481e-07
3.17007e-07
2.20127e-07
6.51523e-07
7.01607e-07
1.34271e-06
3.19209e-07
2.85365e-07
3.00141e-07
2.88995e-07
3.01869e-07
3.00349e-07
3.02472e-07
3.0426e-07
3.05917e-07
3.06779e-07
3.08272e-07
3.0992e-07
3.11082e-07
3.12058e-07
3.13448e-07
3.14897e-07
3.15537e-07
3.16989e-07
3.18097e-07
3.19003e-07
3.20428e-07
3.21401e-07
3.22562e-07
3.2375e-07
3.24999e-07
3.26226e-07
3.27703e-07
3.29056e-07
3.30389e-07
3.32144e-07
3.33732e-07
3.35277e-07
3.37311e-07
3.38964e-07
3.40871e-07
3.43028e-07
3.44798e-07
3.46831e-07
3.48878e-07
3.50728e-07
3.52605e-07
3.54398e-07
3.56036e-07
3.57658e-07
3.59089e-07
3.60462e-07
3.61842e-07
3.6325e-07
3.64711e-07
3.66265e-07
3.67897e-07
3.69693e-07
3.71369e-07
3.72868e-07
3.74168e-07
3.74835e-07
3.75048e-07
3.74746e-07
3.73873e-07
3.72791e-07
3.71411e-07
3.69731e-07
3.67821e-07
3.6546e-07
3.62593e-07
3.59211e-07
3.5523e-07
3.50301e-07
3.4549e-07
3.40372e-07
3.35389e-07
3.30946e-07
3.26835e-07
3.24569e-07
3.26531e-07
3.32891e-07
3.24112e-07
3.17146e-07
2.38565e-07
6.60862e-07
6.77825e-07
1.34191e-06
2.58389e-07
2.30251e-07
2.41542e-07
2.31748e-07
2.42728e-07
2.40938e-07
2.42804e-07
2.43529e-07
2.44829e-07
2.45802e-07
2.46462e-07
2.47758e-07
2.48736e-07
2.4982e-07
2.5086e-07
2.51925e-07
2.5284e-07
2.54184e-07
2.55387e-07
2.56419e-07
2.57687e-07
2.58868e-07
2.60504e-07
2.61699e-07
2.63239e-07
2.64784e-07
2.66378e-07
2.68286e-07
2.699e-07
2.71941e-07
2.73884e-07
2.75976e-07
2.78281e-07
2.80393e-07
2.82777e-07
2.85299e-07
2.87654e-07
2.90082e-07
2.92685e-07
2.95121e-07
2.97599e-07
3.00083e-07
3.02418e-07
3.04851e-07
3.07207e-07
3.09626e-07
3.12086e-07
3.14629e-07
3.17402e-07
3.20303e-07
3.23262e-07
3.26423e-07
3.2953e-07
3.32424e-07
3.35212e-07
3.37433e-07
3.39273e-07
3.40764e-07
3.41841e-07
3.42803e-07
3.43583e-07
3.44166e-07
3.44563e-07
3.44609e-07
3.44179e-07
3.4326e-07
3.41758e-07
3.39371e-07
3.36951e-07
3.33827e-07
3.30646e-07
3.28244e-07
3.26609e-07
3.27593e-07
3.33623e-07
3.41713e-07
3.34922e-07
3.19144e-07
2.63412e-07
6.73671e-07
6.50001e-07
1.34209e-06
2.06308e-07
1.83596e-07
1.9181e-07
1.83752e-07
1.92789e-07
1.91562e-07
1.9298e-07
1.93673e-07
1.94968e-07
1.95411e-07
1.96329e-07
1.97627e-07
1.98389e-07
1.99561e-07
2.00659e-07
2.01575e-07
2.02891e-07
2.04172e-07
2.05516e-07
2.06629e-07
2.08093e-07
2.09693e-07
2.11151e-07
2.12744e-07
2.14572e-07
2.16134e-07
2.18151e-07
2.20256e-07
2.22033e-07
2.24347e-07
2.26509e-07
2.28919e-07
2.31387e-07
2.33706e-07
2.36378e-07
2.39179e-07
2.4169e-07
2.4445e-07
2.47359e-07
2.50088e-07
2.52907e-07
2.55898e-07
2.5866e-07
2.61597e-07
2.64708e-07
2.67746e-07
2.71017e-07
2.7438e-07
2.78032e-07
2.81802e-07
2.85651e-07
2.89751e-07
2.9374e-07
2.97593e-07
3.01402e-07
3.04751e-07
3.07831e-07
3.10732e-07
3.13386e-07
3.16008e-07
3.18517e-07
3.20953e-07
3.23264e-07
3.25257e-07
3.26871e-07
3.28031e-07
3.28636e-07
3.28443e-07
3.28044e-07
3.26682e-07
3.25259e-07
3.24925e-07
3.25837e-07
3.30161e-07
3.39823e-07
3.48845e-07
3.42508e-07
3.20914e-07
2.92142e-07
6.89627e-07
6.15747e-07
1.34592e-06
1.73182e-07
1.5511e-07
1.62041e-07
1.55052e-07
1.62809e-07
1.61697e-07
1.62414e-07
1.63458e-07
1.64245e-07
1.6454e-07
1.6549e-07
1.66472e-07
1.67146e-07
1.67963e-07
1.69065e-07
1.69859e-07
1.71103e-07
1.72257e-07
1.73243e-07
1.74413e-07
1.75884e-07
1.77367e-07
1.7856e-07
1.8006e-07
1.82023e-07
1.83412e-07
1.85301e-07
1.87318e-07
1.89155e-07
1.91291e-07
1.93498e-07
1.95818e-07
1.98244e-07
2.00631e-07
2.03331e-07
2.06095e-07
2.08711e-07
2.11673e-07
2.14666e-07
2.17698e-07
2.20717e-07
2.24083e-07
2.273e-07
2.3072e-07
2.34374e-07
2.37927e-07
2.41893e-07
2.45848e-07
2.5006e-07
2.54417e-07
2.58867e-07
2.63493e-07
2.68033e-07
2.72597e-07
2.7706e-07
2.81273e-07
2.85369e-07
2.89365e-07
2.93251e-07
2.97171e-07
3.01011e-07
3.04859e-07
3.08631e-07
3.12111e-07
3.15365e-07
3.18207e-07
3.20534e-07
3.222e-07
3.23587e-07
3.23874e-07
3.24013e-07
3.25391e-07
3.2841e-07
3.3554e-07
3.47891e-07
3.57165e-07
3.51334e-07
3.30038e-07
3.3457e-07
7.14294e-07
5.83869e-07
1.36404e-06
1.41279e-07
1.25931e-07
1.31561e-07
1.25393e-07
1.33358e-07
1.32243e-07
1.33455e-07
1.34506e-07
1.34879e-07
1.35496e-07
1.36803e-07
1.37839e-07
1.38701e-07
1.39484e-07
1.40653e-07
1.419e-07
1.43159e-07
1.4425e-07
1.45272e-07
1.47008e-07
1.48352e-07
1.4981e-07
1.51256e-07
1.52734e-07
1.5479e-07
1.5635e-07
1.58143e-07
1.60071e-07
1.62095e-07
1.64171e-07
1.66215e-07
1.68614e-07
1.70811e-07
1.73212e-07
1.7583e-07
1.78362e-07
1.80995e-07
1.8371e-07
1.86728e-07
1.89676e-07
1.92607e-07
1.95953e-07
1.99232e-07
2.02664e-07
2.06258e-07
2.09986e-07
2.13897e-07
2.17873e-07
2.2204e-07
2.26318e-07
2.30773e-07
2.35274e-07
2.39878e-07
2.44553e-07
2.49172e-07
2.53761e-07
2.58381e-07
2.63007e-07
2.67617e-07
2.72361e-07
2.77082e-07
2.81897e-07
2.86681e-07
2.91274e-07
2.95741e-07
2.99822e-07
3.03448e-07
3.06464e-07
3.08878e-07
3.10165e-07
3.11885e-07
3.15358e-07
3.21166e-07
3.31769e-07
3.4634e-07
3.53606e-07
3.44659e-07
3.24906e-07
3.62323e-07
7.29612e-07
5.29615e-07
1.39577e-06
1.49579e-07
1.38972e-07
1.42964e-07
1.3847e-07
1.42366e-07
1.41515e-07
1.42453e-07
1.4294e-07
1.42796e-07
1.43181e-07
1.44009e-07
1.44689e-07
1.45113e-07
1.45397e-07
1.46163e-07
1.46972e-07
1.47658e-07
1.48318e-07
1.489e-07
1.5015e-07
1.51024e-07
1.51835e-07
1.52889e-07
1.5399e-07
1.55382e-07
1.56595e-07
1.58003e-07
1.59429e-07
1.61109e-07
1.62858e-07
1.6458e-07
1.66726e-07
1.68707e-07
1.71048e-07
1.73521e-07
1.76096e-07
1.78836e-07
1.81707e-07
1.84987e-07
1.88154e-07
1.916e-07
1.95248e-07
1.98923e-07
2.0272e-07
2.06644e-07
2.10658e-07
2.14593e-07
2.18701e-07
2.22808e-07
2.27e-07
2.31418e-07
2.35909e-07
2.40673e-07
2.45548e-07
2.50582e-07
2.5568e-07
2.60825e-07
2.6598e-07
2.71015e-07
2.76104e-07
2.81121e-07
2.86219e-07
2.91332e-07
2.96383e-07
3.01387e-07
3.06114e-07
3.10569e-07
3.14663e-07
3.18625e-07
3.21548e-07
3.23952e-07
3.2746e-07
3.32887e-07
3.42706e-07
3.55937e-07
3.61898e-07
3.57568e-07
3.56823e-07
4.39776e-07
7.71184e-07
5.47224e-07
1.53353e-06
1.14325e-07
1.15525e-07
1.14281e-07
1.16843e-07
1.17983e-07
1.1835e-07
1.18992e-07
1.19444e-07
1.20169e-07
1.20943e-07
1.21405e-07
1.22168e-07
1.22935e-07
1.23744e-07
1.24535e-07
1.25302e-07
1.2625e-07
1.27145e-07
1.28067e-07
1.29111e-07
1.30058e-07
1.31176e-07
1.32224e-07
1.33356e-07
1.34589e-07
1.35856e-07
1.37144e-07
1.38448e-07
1.39928e-07
1.41362e-07
1.42913e-07
1.44547e-07
1.46173e-07
1.47993e-07
1.49797e-07
1.51759e-07
1.53762e-07
1.55856e-07
1.58065e-07
1.60245e-07
1.6258e-07
1.64903e-07
1.6723e-07
1.6956e-07
1.71945e-07
1.74266e-07
1.76598e-07
1.79043e-07
1.81536e-07
1.84245e-07
1.87137e-07
1.90274e-07
1.93693e-07
1.97267e-07
2.01086e-07
2.05019e-07
2.09129e-07
2.13353e-07
2.17676e-07
2.22276e-07
2.27023e-07
2.32017e-07
2.37149e-07
2.42343e-07
2.47542e-07
2.52472e-07
2.57117e-07
2.61254e-07
2.63592e-07
2.6455e-07
2.67995e-07
2.75155e-07
2.86333e-07
3.03325e-07
3.1921e-07
3.17228e-07
2.98816e-07
3.05078e-07
4.3063e-07
6.58041e-07
4.96231e-07
1.54496e-06
)
;

boundaryField
{
    inlet
    {
        type            calculated;
        value           nonuniform List<scalar> 
23
(
5.81331e-06
5.7843e-06
5.75622e-06
5.72895e-06
5.70189e-06
5.67441e-06
5.64571e-06
5.6152e-06
5.58208e-06
5.54562e-06
5.50488e-06
5.46012e-06
5.40888e-06
5.32896e-06
5.26216e-06
5.18049e-06
5.07883e-06
4.95498e-06
4.80605e-06
4.63103e-06
4.42291e-06
4.26207e-06
3.95961e-06
)
;
    }
    outlet
    {
        type            calculated;
        value           nonuniform List<scalar> 
82
(
9.14552e-08
9.12301e-08
9.31082e-08
9.42222e-08
9.54666e-08
9.57436e-08
9.63459e-08
9.67207e-08
9.74141e-08
9.81609e-08
9.85316e-08
9.92491e-08
9.99757e-08
1.00738e-07
1.01479e-07
1.02182e-07
1.03095e-07
1.03942e-07
1.04807e-07
1.0582e-07
1.06705e-07
1.07781e-07
1.08773e-07
1.0985e-07
1.1104e-07
1.12253e-07
1.13484e-07
1.14711e-07
1.16133e-07
1.17481e-07
1.18941e-07
1.20481e-07
1.21978e-07
1.23679e-07
1.25325e-07
1.27123e-07
1.28936e-07
1.30815e-07
1.32798e-07
1.34708e-07
1.36778e-07
1.38807e-07
1.40825e-07
1.42836e-07
1.44913e-07
1.46924e-07
1.48957e-07
1.51141e-07
1.53383e-07
1.55874e-07
1.58551e-07
1.61465e-07
1.64642e-07
1.67924e-07
1.71422e-07
1.75011e-07
1.78802e-07
1.82772e-07
1.86942e-07
1.91538e-07
1.96397e-07
2.01594e-07
2.06963e-07
2.12384e-07
2.1779e-07
2.22861e-07
2.27509e-07
2.31361e-07
2.32888e-07
2.33072e-07
2.36661e-07
2.44973e-07
2.58548e-07
2.79002e-07
2.97516e-07
2.94046e-07
2.66893e-07
2.61684e-07
3.86309e-07
6.33301e-07
4.03567e-07
1.40111e-06
)
;
    }
    walls
    {
        type            calculated;
        value           nonuniform List<scalar> 0();
    }
    frontAndBack
    {
        type            empty;
    }
    procBoundary3to2
    {
        type            processor;
        value           nonuniform List<scalar> 
88
(
7.09929e-07
1.38364e-06
1.61752e-07
6.42075e-07
6.42075e-07
1.65646e-07
2.72256e-07
2.72256e-07
3.21457e-07
2.81352e-07
2.62278e-07
2.62278e-07
4.67461e-07
4.31705e-07
4.02384e-07
3.75259e-07
3.47143e-07
3.47143e-07
6.67912e-07
6.24283e-07
5.80813e-07
5.38496e-07
4.97205e-07
4.97205e-07
9.3043e-07
8.87814e-07
8.45596e-07
8.04077e-07
7.6336e-07
7.23297e-07
6.8347e-07
6.8347e-07
1.30615e-06
1.27229e-06
1.23782e-06
1.20286e-06
1.16746e-06
1.13177e-06
1.09585e-06
1.05974e-06
1.0235e-06
9.8701e-07
9.50247e-07
9.13138e-07
9.13138e-07
9.34546e-07
1.33148e-06
1.39621e-06
1.27009e-06
1.31072e-06
1.35181e-06
1.38624e-06
1.41521e-06
1.44097e-06
1.46401e-06
1.48554e-06
1.50422e-06
1.52011e-06
1.53363e-06
1.54429e-06
1.55255e-06
1.55817e-06
1.56128e-06
1.56219e-06
1.56089e-06
1.55758e-06
1.5524e-06
1.54541e-06
1.53689e-06
1.527e-06
1.51566e-06
1.50316e-06
1.48958e-06
1.47497e-06
1.45938e-06
1.44283e-06
1.42551e-06
1.40728e-06
1.38819e-06
1.36839e-06
1.3477e-06
1.32625e-06
1.304e-06
1.28088e-06
1.25701e-06
1.2323e-06
1.20678e-06
1.20678e-06
)
;
    }
    procBoundary3to6
    {
        type            processor;
        value           uniform 6.68054e-08;
    }
    procBoundary3to7
    {
        type            processor;
        value           nonuniform List<scalar> 
16
(
7.93077e-09
7.9984e-07
8.27985e-07
6.45385e-07
5.64415e-07
4.96815e-07
4.19878e-07
3.48657e-07
3.48657e-07
2.8273e-07
2.2861e-07
1.82072e-07
1.53609e-07
1.25656e-07
1.36332e-07
1.17235e-07
)
;
    }
}


// ************************************************************************* //
