/*--------------------------------*- C++ -*----------------------------------*\
| =========                 |                                                 |
| \\      /  F ield         | OpenFOAM: The Open Source CFD Toolbox           |
|  \\    /   O peration     | Version:  2506                                  |
|   \\  /    A nd           | Website:  www.openfoam.com                      |
|    \\/     M anipulation  |                                                 |
\*---------------------------------------------------------------------------*/
FoamFile
{
    version     2.0;
    format      ascii;
    arch        "LSB;label=32;scalar=64";
    class       volSymmTensorField;
    location    "350";
    object      turbulenceProperties:R;
}
// * * * * * * * * * * * * * * * * * * * * * * * * * * * * * * * * * * * * * //

dimensions      [0 2 -2 0 0 0 0];

internalField   nonuniform List<symmTensor> 
1340
(
(4.90383e-07 2.98332e-08 -4.14968e-20 4.22561e-07 -5.37226e-21 4.9676e-07)
(8.43541e-07 3.63891e-08 2.09292e-20 1.04133e-06 2.4275e-21 8.87629e-07)
(1.03796e-07 -1.79752e-09 -8.12916e-20 9.73365e-08 -1.017e-20 1.13533e-07)
(3.89657e-07 9.89268e-09 -1.2723e-20 4.86529e-07 -1.43852e-21 4.13393e-07)
(4.8662e-07 3.12179e-08 6.13776e-21 4.23151e-07 6.62741e-22 4.95632e-07)
(8.4544e-07 3.60393e-08 -8.40781e-20 1.04283e-06 -9.51336e-21 8.88359e-07)
(1.00137e-07 -1.43801e-09 -0 1.29188e-07 -5.0079e-23 1.17497e-07)
(1.65585e-07 -5.42527e-09 -2.7507e-20 2.10432e-07 -3.24772e-21 1.81713e-07)
(1.00373e-07 -1.41805e-09 7.72586e-20 9.65504e-08 9.6912e-21 1.1146e-07)
(3.91144e-07 9.36173e-09 3.89288e-20 4.88459e-07 4.60027e-21 4.14845e-07)
(4.84411e-07 3.24197e-08 1.31112e-23 4.25242e-07 7.71945e-23 4.96294e-07)
(8.46891e-07 3.54856e-08 6.9266e-20 1.04323e-06 7.77841e-21 8.87882e-07)
(1.87318e-07 7.01908e-09 -3.50242e-20 2.40404e-07 -4.20692e-21 2.13721e-07)
(1.64466e-07 5.15272e-09 7.24598e-22 2.11706e-07 1.78233e-22 1.88509e-07)
(1.54366e-07 1.6254e-09 4.78725e-21 1.9959e-07 5.70932e-22 1.75826e-07)
(1.05194e-07 -2.54893e-09 -0 1.35457e-07 -1.00739e-23 1.23118e-07)
(1.69585e-07 -6.62478e-09 -1.25612e-22 2.15008e-07 -2.1999e-23 1.86049e-07)
(9.78017e-08 -1.08333e-09 5.53559e-22 9.66501e-08 9.52282e-23 1.10225e-07)
(3.92773e-07 9.01713e-09 3.25577e-22 4.90496e-07 6.01972e-23 4.1643e-07)
(4.83522e-07 3.34924e-08 2.87566e-24 4.28242e-07 2.49863e-24 4.98091e-07)
(8.47811e-07 3.45411e-08 3.73883e-22 1.04317e-06 6.88171e-23 8.86928e-07)
(2.67614e-07 9.37379e-09 2.48267e-21 3.43787e-07 3.90362e-22 3.05683e-07)
(2.47943e-07 8.38504e-09 1.05397e-20 3.18708e-07 1.27598e-21 2.83307e-07)
(2.31857e-07 7.64421e-09 1.07127e-20 2.98155e-07 1.08348e-21 2.65029e-07)
(2.16952e-07 7.11769e-09 -3.72825e-20 2.79011e-07 -4.46658e-21 2.47962e-07)
(2.01368e-07 6.49589e-09 9.73394e-21 2.5904e-07 1.26044e-21 2.3024e-07)
(1.86673e-07 5.50389e-09 -1.48567e-20 2.40386e-07 -1.83118e-21 2.13396e-07)
(1.65006e-07 3.72062e-09 9.62198e-23 2.13026e-07 1.37097e-22 1.89424e-07)
(1.56077e-07 1.59951e-10 3.53847e-20 2.01952e-07 4.30205e-21 1.77898e-07)
(1.10688e-07 -3.70692e-09 -0 1.42122e-07 -7.1949e-23 1.29137e-07)
(1.73455e-07 -7.76199e-09 2.05019e-21 2.19366e-07 1.40973e-22 1.90251e-07)
(9.59979e-08 -7.76375e-10 -7.06307e-20 9.74977e-08 -8.83594e-21 1.09696e-07)
(3.94431e-07 8.80942e-09 -3.55524e-20 4.92595e-07 -4.20696e-21 4.18124e-07)
(4.83653e-07 3.44845e-08 -2.32402e-21 4.31767e-07 -2.29514e-22 5.00587e-07)
(8.48326e-07 3.31856e-08 9.14178e-21 1.04302e-06 1.03815e-21 8.85846e-07)
(3.74734e-07 8.70863e-09 2.05443e-20 4.83244e-07 2.13862e-21 4.28992e-07)
(3.51412e-07 8.81012e-09 -1.89822e-20 4.52957e-07 -2.31721e-21 4.02187e-07)
(3.28076e-07 8.59469e-09 -4.94679e-21 4.22767e-07 -6.17592e-22 3.75428e-07)
(3.05304e-07 8.17697e-09 -3.07325e-20 3.93384e-07 -3.58039e-21 3.49333e-07)
(2.82938e-07 7.66599e-09 -7.11217e-21 3.64569e-07 -6.88862e-22 3.23781e-07)
(2.61915e-07 7.08175e-09 4.9884e-21 3.37515e-07 6.22034e-22 2.99701e-07)
(2.43615e-07 6.2772e-09 2.54687e-21 3.14087e-07 2.80446e-22 2.78837e-07)
(2.28672e-07 5.71327e-09 5.23955e-23 2.9491e-07 2.56989e-23 2.61817e-07)
(2.14723e-07 5.34744e-09 6.23736e-21 2.76931e-07 6.77151e-22 2.45811e-07)
(2.00066e-07 4.86751e-09 -1.70831e-20 2.58085e-07 -1.96535e-21 2.29111e-07)
(1.86203e-07 3.9777e-09 3.24528e-20 2.40398e-07 3.90456e-21 2.13177e-07)
(1.65824e-07 2.25862e-09 -2.10642e-20 2.14507e-07 -2.727e-21 1.90554e-07)
(1.58094e-07 -1.32286e-09 -3.34103e-20 2.04496e-07 -3.99081e-21 1.80226e-07)
(1.1654e-07 -4.90556e-09 -0 1.49084e-07 7.32748e-23 1.3546e-07)
(1.77101e-07 -8.83308e-09 -1.95123e-21 2.23407e-07 -1.27664e-22 1.94221e-07)
(9.49039e-08 -4.85133e-10 6.70483e-20 9.90209e-08 8.36447e-21 1.09807e-07)
(3.95978e-07 8.71605e-09 3.36014e-20 4.94582e-07 3.95524e-21 4.1977e-07)
(4.84444e-07 3.53938e-08 2.21173e-21 4.35559e-07 2.19281e-22 5.03488e-07)
(8.48575e-07 3.14544e-08 -8.60168e-21 1.0428e-06 -9.69627e-22 8.84659e-07)
(5.09157e-07 -4.43943e-09 -2.22217e-21 6.58482e-07 -3.73744e-22 5.83829e-07)
(4.87267e-07 -2.4927e-09 -1.20159e-20 6.30327e-07 -1.45892e-21 5.58806e-07)
(4.65512e-07 -6.91062e-10 -2.14404e-20 6.02242e-07 -2.22485e-21 5.33885e-07)
(4.44032e-07 9.95378e-10 7.58385e-21 5.74424e-07 9.78234e-22 5.09234e-07)
(4.22873e-07 2.5459e-09 -1.95653e-21 5.4694e-07 -2.09488e-22 4.84913e-07)
(4.0195e-07 3.88147e-09 9.79566e-21 5.19708e-07 1.27272e-21 4.60834e-07)
(3.81037e-07 4.90638e-09 2.53081e-20 4.92473e-07 2.81524e-21 4.3676e-07)
(3.59936e-07 5.55118e-09 1.39774e-22 4.65026e-07 -4.18517e-23 4.12485e-07)
(3.38615e-07 5.8203e-09 1.49606e-20 4.37362e-07 1.7066e-21 3.87992e-07)
(3.17252e-07 5.78809e-09 -1.37182e-21 4.09714e-07 -2.19886e-22 3.6349e-07)
(2.96379e-07 5.56687e-09 1.31478e-21 3.82748e-07 2.09319e-22 3.39553e-07)
(2.75762e-07 5.25224e-09 1.35273e-20 3.56141e-07 1.54915e-21 3.15981e-07)
(2.56309e-07 4.8446e-09 -4.69357e-21 3.31056e-07 -6.11662e-22 2.93669e-07)
(2.39406e-07 4.21262e-09 -2.3613e-21 3.09336e-07 -2.57915e-22 2.74359e-07)
(2.25601e-07 3.81584e-09 7.83656e-23 2.91557e-07 2.68294e-23 2.58605e-07)
(2.12608e-07 3.59994e-09 -4.67738e-23 2.74768e-07 -3.80156e-24 2.43673e-07)
(1.98901e-07 3.25019e-09 -1.3699e-22 2.57096e-07 -8.06584e-23 2.28031e-07)
(1.8588e-07 2.45071e-09 -1.76965e-20 2.404e-07 -2.06357e-21 2.13028e-07)
(1.66899e-07 7.74874e-10 2.00359e-20 2.16115e-07 2.46747e-21 1.91869e-07)
(1.60383e-07 -2.8168e-09 -1.33719e-22 2.07179e-07 -7.62941e-23 1.8277e-07)
(1.22691e-07 -6.13758e-09 -0 1.56271e-07 4.51327e-24 1.42022e-07)
(1.80459e-07 -9.83253e-09 1.85265e-21 2.27064e-07 1.13296e-22 1.97892e-07)
(9.4462e-08 -2.03179e-10 -6.83459e-20 1.01168e-07 -8.4493e-21 1.10498e-07)
(3.9739e-07 8.72689e-09 1.12647e-22 4.96422e-07 1.18063e-22 4.21332e-07)
(4.85612e-07 3.62106e-08 -6.29188e-21 4.39408e-07 -8.12084e-22 5.06559e-07)
(8.48436e-07 2.93604e-08 -4.70447e-23 1.04229e-06 -3.43469e-24 8.83192e-07)
(6.96643e-07 -4.51084e-08 2.13662e-21 8.77297e-07 2.06031e-23 7.8698e-07)
(6.79483e-07 -4.15792e-08 -1.34535e-20 8.58383e-07 -1.40931e-21 7.68942e-07)
(6.61986e-07 -3.80494e-08 -2.69165e-22 8.38819e-07 3.0057e-22 7.50414e-07)
(6.44202e-07 -3.4524e-08 1.22133e-20 8.18665e-07 1.10396e-21 7.31447e-07)
(6.26206e-07 -3.10245e-08 -1.30381e-20 7.98002e-07 -1.47836e-21 7.12116e-07)
(6.08035e-07 -2.75758e-08 2.37923e-21 7.76856e-07 4.17352e-22 6.92458e-07)
(5.89748e-07 -2.42072e-08 9.21337e-22 7.55289e-07 4.62384e-23 6.72531e-07)
(5.71387e-07 -2.09648e-08 -2.21037e-21 7.33338e-07 -8.59394e-23 6.52374e-07)
(5.52972e-07 -1.78948e-08 1.54403e-20 7.11018e-07 1.88065e-21 6.32005e-07)
(5.34459e-07 -1.50409e-08 2.17023e-20 6.88282e-07 2.18901e-21 6.11381e-07)
(5.1581e-07 -1.2434e-08 1.61404e-21 6.65102e-07 2.35025e-23 5.90466e-07)
(4.96974e-07 -1.00748e-08 5.70297e-21 6.4145e-07 5.51464e-22 5.69221e-07)
(4.77964e-07 -7.93423e-09 -6.14785e-21 6.17388e-07 -7.17398e-22 5.47684e-07)
(4.58831e-07 -5.96038e-09 -6.81936e-23 5.93026e-07 2.8585e-22 5.25935e-07)
(4.397e-07 -4.09873e-09 3.23236e-20 5.68555e-07 3.55827e-21 5.04134e-07)
(4.20697e-07 -2.32954e-09 4.43274e-23 5.4415e-07 -3.51097e-22 4.82429e-07)
(4.01858e-07 -6.86905e-10 -1.83947e-20 5.19866e-07 -2.08359e-21 4.60867e-07)
(3.8312e-07 7.44999e-10 -3.75858e-21 4.95632e-07 -4.07312e-22 4.39381e-07)
(3.64294e-07 1.86907e-09 -1.72935e-20 4.71235e-07 -1.95396e-21 4.17768e-07)
(3.45229e-07 2.62495e-09 -4.06773e-21 4.46517e-07 -3.65506e-22 3.95876e-07)
(3.25912e-07 3.02162e-09 1.38766e-22 4.21496e-07 -5.23587e-23 3.73707e-07)
(3.06525e-07 3.13876e-09 -2.13453e-20 3.96416e-07 -2.45837e-21 3.51476e-07)
(2.87551e-07 3.08375e-09 -1.40627e-21 3.7189e-07 -8.73696e-23 3.2971e-07)
(2.68684e-07 2.93747e-09 -5.19756e-21 3.4752e-07 -6.01119e-22 3.08131e-07)
(2.50822e-07 2.68374e-09 -3.89723e-23 3.24453e-07 2.33899e-23 2.87622e-07)
(2.35326e-07 2.21071e-09 2.24845e-21 3.04479e-07 1.81002e-22 2.69891e-07)
(2.22647e-07 1.96954e-09 -1.82414e-20 2.88106e-07 -2.10048e-21 2.55402e-07)
(2.10606e-07 1.89035e-09 1.6585e-20 2.72524e-07 2.0997e-21 2.41551e-07)
(1.97865e-07 1.65681e-09 1.52571e-20 2.56065e-07 1.8523e-21 2.26993e-07)
(1.85699e-07 9.32266e-10 2.77654e-20 2.40387e-07 3.18998e-21 2.12943e-07)
(1.68223e-07 -7.23242e-10 -3.23154e-20 2.17838e-07 -3.97383e-21 1.93361e-07)
(1.62925e-07 -4.31618e-09 -5.52966e-23 2.09979e-07 7.25362e-23 1.85508e-07)
(1.29093e-07 -7.39522e-09 -0 1.63626e-07 -2.71554e-24 1.48771e-07)
(1.83458e-07 -1.07542e-08 -1.74773e-21 2.30267e-07 -1.78699e-22 2.01195e-07)
(9.46304e-08 7.78843e-11 1.74564e-20 1.03894e-07 2.15258e-21 1.11727e-07)
(3.98602e-07 8.82821e-09 7.50495e-21 4.9805e-07 8.80322e-22 4.22756e-07)
(4.86792e-07 3.69367e-08 -7.37612e-21 4.42999e-07 -9.64416e-22 5.09431e-07)
(8.48091e-07 2.68962e-08 1.8907e-24 1.04175e-06 6.51466e-24 8.81686e-07)
(6.73307e-07 -4.81253e-08 1.3001e-21 8.17912e-07 1.72096e-22 7.27687e-07)
(7.22413e-07 -8.48629e-08 1.82823e-21 8.77325e-07 1.15519e-22 8.01131e-07)
(6.42959e-07 -7.37441e-08 -9.0663e-23 7.65923e-07 -4.24456e-23 7.13238e-07)
(6.6521e-07 -6.82631e-08 3.35547e-22 7.91476e-07 4.59621e-23 7.26433e-07)
(6.68274e-07 -7.08524e-08 4.21894e-22 7.87747e-07 3.65122e-23 7.28737e-07)
(6.9929e-07 -7.58029e-08 1.90941e-22 8.23101e-07 7.52088e-24 7.60913e-07)
(7.17153e-07 -7.91463e-08 1.00716e-22 8.40568e-07 -3.38113e-23 7.78934e-07)
(7.34658e-07 -8.19055e-08 -1.50699e-21 8.58229e-07 -1.59106e-22 7.96367e-07)
(7.50052e-07 -8.43915e-08 -5.93184e-22 8.73392e-07 1.60483e-23 8.11726e-07)
(7.64457e-07 -8.65785e-08 1.34051e-21 8.87917e-07 1.42257e-22 8.26153e-07)
(7.77634e-07 -8.8564e-08 -0 9.01297e-07 -3.77901e-23 8.39446e-07)
(7.89491e-07 -9.02758e-08 -7.11879e-23 9.13577e-07 6.22254e-23 8.5149e-07)
(7.99775e-07 -9.17248e-08 2.70775e-21 9.24328e-07 2.65153e-22 8.62026e-07)
(8.08512e-07 -9.28973e-08 8.12572e-23 9.3367e-07 1.18077e-23 8.71083e-07)
(8.15979e-07 -9.38083e-08 2.77711e-21 9.41986e-07 2.69984e-22 8.78937e-07)
(8.2182e-07 -9.44671e-08 1.68594e-22 9.48694e-07 -3.39747e-23 8.85229e-07)
(8.26206e-07 -9.48607e-08 5.43139e-22 9.54105e-07 9.09937e-23 8.90126e-07)
(8.29199e-07 -9.50125e-08 2.00099e-21 9.58229e-07 1.99156e-22 8.9369e-07)
(8.30851e-07 -9.49223e-08 9.67035e-22 9.61135e-07 1.07609e-22 8.95965e-07)
(8.31258e-07 -9.461e-08 2.59405e-21 9.62895e-07 1.76357e-22 8.97047e-07)
(8.30446e-07 -9.40774e-08 -2.29592e-21 9.63525e-07 -3.48642e-22 8.96954e-07)
(8.28506e-07 -9.33441e-08 -3.29995e-21 9.63084e-07 -2.43378e-22 8.95774e-07)
(8.25559e-07 -9.24109e-08 1.10376e-21 9.61735e-07 1.58588e-22 8.9362e-07)
(8.21691e-07 -9.1302e-08 -7.89399e-22 9.59511e-07 -1.47479e-22 8.90574e-07)
(8.16965e-07 -9.00232e-08 -2.25152e-21 9.56469e-07 -2.45834e-22 8.8669e-07)
(8.11453e-07 -8.85867e-08 -1.92052e-21 9.52661e-07 -6.46991e-23 8.82035e-07)
(8.05252e-07 -8.69985e-08 3.82363e-21 9.48193e-07 3.84625e-22 8.76698e-07)
(7.98454e-07 -8.528e-08 -1.29132e-21 9.43121e-07 -1.88935e-22 8.70762e-07)
(7.91044e-07 -8.34283e-08 4.82974e-22 9.37414e-07 3.94006e-23 8.64206e-07)
(7.83143e-07 -8.14575e-08 -1.67382e-21 9.31194e-07 -1.22632e-22 8.57144e-07)
(7.74743e-07 -7.93717e-08 2.6467e-21 9.2442e-07 3.18918e-22 8.49557e-07)
(7.65897e-07 -7.71794e-08 1.61756e-21 9.17136e-07 1.44313e-22 8.41491e-07)
(7.56647e-07 -7.48904e-08 1.8999e-21 9.09361e-07 2.40737e-22 8.32979e-07)
(7.4698e-07 -7.25033e-08 4.66558e-21 9.0107e-07 3.70816e-22 8.23999e-07)
(7.36948e-07 -7.00329e-08 -3.55919e-21 8.92291e-07 -4.65377e-22 8.14595e-07)
(7.26542e-07 -6.74775e-08 -1.96855e-21 8.83006e-07 -1.38678e-22 8.04748e-07)
(7.1575e-07 -6.48471e-08 1.6659e-22 8.73171e-07 1.30962e-23 7.94438e-07)
(7.04626e-07 -6.21451e-08 -2.28358e-21 8.62842e-07 -2.44353e-22 7.83709e-07)
(6.93098e-07 -5.93782e-08 -9.08639e-22 8.51905e-07 -1.15286e-22 7.72483e-07)
(6.81191e-07 -5.65464e-08 -3.62033e-21 8.40388e-07 -3.31769e-22 7.60774e-07)
(6.68934e-07 -5.36601e-08 1.2537e-21 8.28307e-07 2.05863e-22 7.48606e-07)
(6.56266e-07 -5.07181e-08 1.59538e-21 8.15578e-07 8.92316e-23 7.3591e-07)
(6.43208e-07 -4.77288e-08 -4.06136e-21 8.02211e-07 -3.95287e-22 7.22702e-07)
(6.29736e-07 -4.46888e-08 3.21571e-21 7.88177e-07 3.91322e-22 7.08953e-07)
(6.15907e-07 -4.1608e-08 -1.06578e-22 7.73532e-07 -6.50285e-23 6.94717e-07)
(6.01698e-07 -3.84923e-08 -3.16832e-27 7.58236e-07 -1.61902e-23 6.79968e-07)
(5.87156e-07 -3.53519e-08 6.54403e-23 7.42332e-07 5.82231e-23 6.64747e-07)
(5.72349e-07 -3.2205e-08 3.24308e-21 7.2589e-07 2.13764e-22 6.49123e-07)
(5.57299e-07 -2.90754e-08 -1.12107e-20 7.08912e-07 -1.21701e-21 6.33111e-07)
(5.42074e-07 -2.59982e-08 4.62496e-24 6.91462e-07 1.15731e-22 6.16775e-07)
(5.26728e-07 -2.30163e-08 2.73779e-23 6.73586e-07 -4.15514e-23 6.00163e-07)
(5.11258e-07 -2.01791e-08 -4.28496e-21 6.55262e-07 -4.5408e-22 5.83266e-07)
(4.95636e-07 -1.75238e-08 1.61339e-22 6.36456e-07 7.01521e-23 5.66053e-07)
(4.7983e-07 -1.50796e-08 -5.04364e-22 6.17147e-07 -4.72043e-23 5.48494e-07)
(4.63777e-07 -1.28429e-08 1.65623e-23 5.97287e-07 -9.38532e-24 5.30539e-07)
(4.4748e-07 -1.07812e-08 -2.38652e-21 5.76929e-07 -2.59863e-22 5.1221e-07)
(4.30969e-07 -8.84297e-09 2.01835e-23 5.56156e-07 -8.67292e-23 4.93568e-07)
(4.14347e-07 -6.98257e-09 -1.38033e-20 5.35128e-07 -1.51358e-21 4.74743e-07)
(3.97719e-07 -5.19124e-09 3.4671e-24 5.13992e-07 2.05846e-22 4.5586e-07)
(3.81124e-07 -3.51426e-09 1.54722e-20 4.92798e-07 1.72176e-21 4.36965e-07)
(3.64515e-07 -2.04105e-09 -1.77623e-23 4.71487e-07 -6.18994e-24 4.18005e-07)
(3.47741e-07 -8.67203e-10 1.65262e-20 4.49881e-07 1.85812e-21 3.98814e-07)
(3.30689e-07 -4.57187e-11 -1.00732e-21 4.27867e-07 -2.79293e-22 3.7928e-07)
(3.13368e-07 4.39688e-10 -1.37466e-20 4.05485e-07 -1.56126e-21 3.59429e-07)
(2.95947e-07 6.71246e-10 -1.97182e-22 3.82974e-07 3.88864e-23 3.39466e-07)
(2.78855e-07 7.50813e-10 -1.60395e-23 3.60885e-07 1.41441e-23 3.19859e-07)
(2.6173e-07 7.4275e-10 5.02733e-21 3.3876e-07 5.98188e-22 3.00274e-07)
(2.45471e-07 6.19511e-10 4.30558e-21 3.17745e-07 4.81529e-22 2.81592e-07)
(2.31383e-07 2.89619e-10 4.17776e-23 2.99538e-07 -8.95059e-24 2.6545e-07)
(2.19805e-07 1.91075e-10 -1.26709e-22 2.84566e-07 -1.9497e-23 2.5221e-07)
(2.08708e-07 2.33577e-10 8.27565e-23 2.70201e-07 -4.05345e-23 2.39441e-07)
(1.96943e-07 9.94065e-11 -1.44739e-20 2.54984e-07 -1.79541e-21 2.25986e-07)
(1.85646e-07 -5.68766e-10 -2.23923e-20 2.40349e-07 -2.54026e-21 2.12911e-07)
(1.69786e-07 -2.2286e-09 3.19074e-20 2.19663e-07 3.92815e-21 1.95021e-07)
(1.65705e-07 -5.81574e-09 1.53808e-20 2.12882e-07 1.77149e-21 1.88426e-07)
(1.357e-07 -8.66941e-09 -0 1.71102e-07 -4.4284e-23 1.55665e-07)
(1.86058e-07 -1.15927e-08 -5.0799e-21 2.32981e-07 -5.40686e-22 2.04091e-07)
(9.53522e-08 3.7309e-10 4.52569e-20 1.07143e-07 5.53557e-21 1.13434e-07)
(3.99458e-07 8.9978e-09 -3.48665e-20 4.99299e-07 -4.28894e-21 4.23909e-07)
(4.87853e-07 3.75983e-08 1.842e-21 4.46207e-07 2.95019e-22 5.11948e-07)
(8.47628e-07 2.40633e-08 1.85224e-24 1.04129e-06 -1.64728e-24 8.80297e-07)
(7.18096e-07 -7.19418e-08 -1.3567e-22 8.98289e-07 -8.95621e-24 7.85555e-07)
(5.79085e-07 -6.48512e-08 1.92891e-22 6.86045e-07 1.78081e-23 6.33682e-07)
(5.31889e-07 -5.90778e-08 -2.11573e-22 6.20136e-07 -2.59202e-23 5.82216e-07)
(5.81086e-07 -6.21503e-08 -7.69071e-23 6.83322e-07 -2.78169e-24 6.30735e-07)
(5.93436e-07 -6.60466e-08 5.90137e-25 6.93299e-07 2.4398e-24 6.43944e-07)
(6.1355e-07 -6.89243e-08 1.69809e-25 7.1521e-07 -3.56853e-23 6.64164e-07)
(6.2661e-07 -7.11739e-08 -1.52343e-21 7.27417e-07 -1.31452e-22 6.77083e-07)
(6.40616e-07 -7.32862e-08 6.14638e-22 7.41527e-07 9.50814e-23 6.91029e-07)
(6.53181e-07 -7.52198e-08 5.91232e-23 7.54017e-07 -3.2441e-23 7.03597e-07)
(6.6499e-07 -7.69702e-08 -9.73382e-22 7.65996e-07 -9.57251e-23 7.15476e-07)
(6.75705e-07 -7.85296e-08 -0 7.76968e-07 -2.06426e-23 7.26325e-07)
(6.85276e-07 -7.98744e-08 -1.85293e-21 7.86922e-07 -1.98987e-22 7.36083e-07)
(6.9366e-07 -8.10128e-08 -7.53634e-22 7.9579e-07 -3.08743e-23 7.44712e-07)
(7.0085e-07 -8.19447e-08 1.56378e-25 8.03572e-07 -2.38415e-23 7.52204e-07)
(7.06948e-07 -8.26704e-08 -1.89578e-21 8.1043e-07 -1.45704e-22 7.58661e-07)
(7.11758e-07 -8.31954e-08 1.72636e-21 8.16036e-07 2.47433e-22 7.63884e-07)
(7.15432e-07 -8.35172e-08 1.86042e-21 8.20638e-07 1.15412e-22 7.68025e-07)
(7.18063e-07 -8.36483e-08 -1.41461e-21 8.24331e-07 -1.97876e-22 7.71175e-07)
(7.196e-07 -8.35989e-08 -1.14947e-21 8.26989e-07 -9.71e-23 7.73279e-07)
(7.20131e-07 -8.33667e-08 -5.78741e-22 8.28748e-07 -3.58084e-23 7.74423e-07)
(7.19747e-07 -8.29678e-08 -3.22671e-22 8.29677e-07 3.75079e-23 7.74693e-07)
(7.18478e-07 -8.24071e-08 2.87037e-21 8.29796e-07 2.83898e-22 7.74118e-07)
(7.16416e-07 -8.16988e-08 1.97955e-24 8.2918e-07 -2.99976e-23 7.72784e-07)
(7.13643e-07 -8.08442e-08 1.24521e-21 8.27934e-07 1.50373e-22 7.70769e-07)
(7.10194e-07 -7.98602e-08 1.44517e-21 8.26041e-07 1.19536e-22 7.68102e-07)
(7.06145e-07 -7.87476e-08 1.83794e-22 8.23598e-07 -3.44964e-23 7.64857e-07)
(7.01598e-07 -7.75226e-08 -1.15885e-21 8.20689e-07 -1.24183e-22 7.61126e-07)
(6.9653e-07 -7.61849e-08 -6.18428e-22 8.17267e-07 -4.00148e-23 7.56885e-07)
(6.91026e-07 -7.47433e-08 1.56611e-24 8.13418e-07 1.65865e-23 7.5221e-07)
(6.85132e-07 -7.32031e-08 3.37633e-22 8.09178e-07 3.03773e-23 7.47142e-07)
(6.78849e-07 -7.15679e-08 8.8562e-24 8.04526e-07 3.17166e-23 7.41677e-07)
(6.72233e-07 -6.98443e-08 2.31765e-21 7.99512e-07 2.33285e-22 7.35861e-07)
(6.65276e-07 -6.80369e-08 3.89223e-24 7.94103e-07 -3.57584e-23 7.29683e-07)
(6.58015e-07 -6.61447e-08 1.70019e-23 7.8834e-07 7.30668e-23 7.2317e-07)
(6.50451e-07 -6.41767e-08 3.993e-21 7.82194e-07 4.19309e-22 7.16316e-07)
(6.42567e-07 -6.21306e-08 1.2153e-21 7.75637e-07 2.6457e-23 7.09097e-07)
(6.3439e-07 -6.00133e-08 -2.21985e-21 7.68682e-07 -2.19861e-22 7.01532e-07)
(6.25906e-07 -5.78244e-08 1.43716e-21 7.61302e-07 1.74896e-22 6.93599e-07)
(6.17087e-07 -5.55656e-08 -4.2643e-24 7.53448e-07 -4.60266e-23 6.85263e-07)
(6.07932e-07 -5.32418e-08 -1.70925e-21 7.45103e-07 -1.97028e-22 6.76516e-07)
(5.9843e-07 -5.08493e-08 -1.51448e-21 7.3625e-07 -1.14798e-22 6.67338e-07)
(5.88576e-07 -4.83926e-08 1.3655e-21 7.2687e-07 1.91199e-22 6.5772e-07)
(5.78325e-07 -4.58724e-08 2.19285e-21 7.16894e-07 2.16348e-22 6.47609e-07)
(5.67678e-07 -4.3284e-08 1.16751e-21 7.06321e-07 2.11297e-22 6.37001e-07)
(5.56676e-07 -4.06392e-08 9.31947e-21 6.95186e-07 9.4951e-22 6.25932e-07)
(5.4527e-07 -3.79349e-08 1.06634e-24 6.83418e-07 -1.17184e-22 6.14348e-07)
(5.33536e-07 -3.51864e-08 6.65405e-24 6.71092e-07 -2.66574e-23 6.02318e-07)
(5.21502e-07 -3.24085e-08 -3.20878e-21 6.58222e-07 -2.52713e-22 5.89867e-07)
(5.09209e-07 -2.96253e-08 7.02715e-21 6.44831e-07 7.64621e-22 5.77027e-07)
(4.96726e-07 -2.68739e-08 1.18947e-22 6.30975e-07 -1.45274e-22 5.63858e-07)
(4.84092e-07 -2.41949e-08 -8.52999e-21 6.16678e-07 -9.08523e-22 5.50392e-07)
(4.71304e-07 -2.16339e-08 3.15327e-23 6.01914e-07 -1.29399e-23 5.36617e-07)
(4.5834e-07 -1.92276e-08 -9.88068e-21 5.86652e-07 -1.05298e-21 5.22505e-07)
(4.45167e-07 -1.69971e-08 4.85462e-22 5.70864e-07 1.66263e-22 5.08023e-07)
(4.31704e-07 -1.49334e-08 3.22531e-21 5.54485e-07 3.35971e-22 4.93102e-07)
(4.17942e-07 -1.3001e-08 -1.89623e-21 5.37549e-07 -2.71493e-22 4.77753e-07)
(4.0389e-07 -1.11507e-08 -5.46643e-21 5.20112e-07 -5.89963e-22 4.62009e-07)
(3.89634e-07 -9.34349e-09 -1.20962e-22 5.02311e-07 1.30688e-23 4.45979e-07)
(3.7526e-07 -7.58302e-09 3.24076e-24 4.84263e-07 -2.25843e-24 4.29768e-07)
(3.60808e-07 -5.92417e-09 1.25706e-22 4.66008e-07 2.323e-23 4.13414e-07)
(3.46254e-07 -4.46015e-09 -1.19732e-23 4.47506e-07 -9.23873e-23 3.96885e-07)
(3.31481e-07 -3.28358e-09 -1.5691e-20 4.28612e-07 -1.73839e-21 3.80052e-07)
(3.16409e-07 -2.43947e-09 5.58729e-21 4.09249e-07 7.90026e-22 3.62833e-07)
(3.01052e-07 -1.90292e-09 1.30556e-20 3.89466e-07 1.56175e-21 3.45263e-07)
(2.8557e-07 -1.59187e-09 1.94353e-20 3.69494e-07 2.17647e-21 3.27538e-07)
(2.70331e-07 -1.4097e-09 -4.42994e-23 3.4982e-07 -1.46247e-22 3.10065e-07)
(2.54926e-07 -1.31012e-09 -1.16962e-20 3.29924e-07 -1.37676e-21 2.92454e-07)
(2.4027e-07 -1.32741e-09 -4.08114e-21 3.10974e-07 -4.58566e-22 2.75607e-07)
(2.27573e-07 -1.53122e-09 -7.55502e-21 2.94535e-07 -8.09877e-22 2.61046e-07)
(2.17063e-07 -1.5015e-09 1.17895e-20 2.80942e-07 1.41219e-21 2.49027e-07)
(2.069e-07 -1.3542e-09 -3.67182e-21 2.67799e-07 -4.34185e-22 2.37338e-07)
(1.96119e-07 -1.40931e-09 1.41297e-20 2.53842e-07 1.81874e-21 2.25e-07)
(1.85716e-07 -2.04211e-09 3.86861e-20 2.40285e-07 4.62386e-21 2.12928e-07)
(1.71576e-07 -3.73328e-09 1.76458e-20 2.21578e-07 2.00866e-21 1.96837e-07)
(1.68708e-07 -7.30838e-09 6.2587e-23 2.15878e-07 -3.4875e-23 1.9151e-07)
(1.42453e-07 -9.94742e-09 -0 1.78642e-07 1.26064e-23 1.62644e-07)
(1.88226e-07 -1.23447e-08 4.80755e-21 2.35184e-07 5.83488e-22 2.06558e-07)
(9.64966e-08 7.04099e-10 1.5537e-22 1.10801e-07 7.32836e-23 1.15473e-07)
(4.00105e-07 9.20087e-09 3.30962e-20 5.00399e-07 4.01966e-21 4.24993e-07)
(4.8857e-07 3.82327e-08 1.8855e-20 4.48775e-07 2.38603e-21 5.13796e-07)
(8.47267e-07 2.08515e-08 1.84222e-24 1.04132e-06 -1.67581e-23 8.79416e-07)
(5.52061e-07 -5.13583e-08 4.81363e-22 6.68355e-07 5.63164e-23 5.95352e-07)
(4.92037e-07 -5.48233e-08 4.97658e-22 5.7257e-07 4.08661e-23 5.3332e-07)
(4.75577e-07 -5.45559e-08 -2.59037e-23 5.48032e-07 -2.00501e-23 5.16807e-07)
(5.19124e-07 -5.81915e-08 -3.91772e-22 6.04795e-07 -3.78153e-23 5.60748e-07)
(5.25555e-07 -6.03506e-08 4.65731e-23 6.08056e-07 1.59723e-23 5.6725e-07)
(5.39801e-07 -6.21892e-08 1.56951e-22 6.23268e-07 1.68866e-23 5.81347e-07)
(5.50369e-07 -6.39153e-08 -2.02518e-24 6.33297e-07 -4.21637e-24 5.91849e-07)
(5.61434e-07 -6.55484e-08 5.7486e-25 6.44477e-07 -1.12075e-24 6.02913e-07)
(5.71471e-07 -6.70282e-08 -2.06337e-25 6.54612e-07 2.79219e-25 6.12999e-07)
(5.80802e-07 -6.83771e-08 -2.00033e-24 6.6413e-07 -1.27902e-24 6.22426e-07)
(5.89122e-07 -6.95565e-08 -0 6.72695e-07 9.71721e-25 6.30889e-07)
(5.96704e-07 -7.05781e-08 -3.1865e-24 6.80707e-07 -3.14248e-24 6.3866e-07)
(6.03302e-07 -7.14471e-08 2.0161e-25 6.87767e-07 -6.45331e-25 6.45495e-07)
(6.08955e-07 -7.21521e-08 5.40395e-25 6.93987e-07 1.10751e-23 6.51432e-07)
(6.13708e-07 -7.27027e-08 4.40751e-22 6.99402e-07 3.40049e-23 6.56516e-07)
(6.17528e-07 -7.30922e-08 -3.67129e-22 7.03987e-07 -4.63568e-23 6.60715e-07)
(6.20442e-07 -7.33375e-08 3.60475e-24 7.07715e-07 1.13771e-23 6.64052e-07)
(6.22571e-07 -7.34244e-08 -3.89346e-24 7.10829e-07 2.23485e-24 6.66648e-07)
(6.23857e-07 -7.33837e-08 -3.51699e-24 7.13109e-07 6.25729e-24 6.68443e-07)
(6.24312e-07 -7.31935e-08 5.5691e-22 7.14653e-07 6.29464e-23 6.69448e-07)
(6.24122e-07 -7.28803e-08 3.0055e-22 7.15643e-07 1.75144e-23 6.69845e-07)
(6.23258e-07 -7.24392e-08 9.47743e-24 7.16039e-07 -3.47114e-24 6.69604e-07)
(6.21795e-07 -7.18877e-08 -3.17124e-25 7.15882e-07 1.30863e-24 6.68796e-07)
(6.19727e-07 -7.12224e-08 3.56085e-24 7.15163e-07 8.6612e-25 6.67412e-07)
(6.17212e-07 -7.04522e-08 2.61604e-24 7.14082e-07 -2.84906e-23 6.65606e-07)
(6.14257e-07 -6.95911e-08 -1.7714e-21 7.12588e-07 -1.75328e-22 6.63383e-07)
(6.1087e-07 -6.86342e-08 2.23505e-22 7.10697e-07 5.25258e-23 6.60745e-07)
(6.07125e-07 -6.75921e-08 -2.43186e-24 7.08475e-07 -4.91088e-24 6.57763e-07)
(6.03055e-07 -6.64669e-08 -2.3595e-23 7.05953e-07 -8.30107e-24 6.54468e-07)
(5.98683e-07 -6.52629e-08 -3.26585e-22 7.03139e-07 -3.46677e-23 6.50875e-07)
(5.94033e-07 -6.39835e-08 1.13808e-24 7.00045e-07 7.06179e-25 6.47004e-07)
(5.89137e-07 -6.26324e-08 8.75024e-24 6.96702e-07 2.37099e-23 6.42884e-07)
(5.8398e-07 -6.1212e-08 1.28712e-21 6.93066e-07 1.32588e-22 6.38492e-07)
(5.78592e-07 -5.9721e-08 2.09297e-24 6.89179e-07 -1.41932e-23 6.33855e-07)
(5.72983e-07 -5.8164e-08 1.16205e-23 6.85028e-07 -1.06733e-23 6.28975e-07)
(5.67129e-07 -5.65423e-08 -1.15975e-21 6.80572e-07 -8.60394e-23 6.23823e-07)
(5.61032e-07 -5.48544e-08 2.10775e-21 6.75808e-07 2.10714e-22 6.18394e-07)
(5.54684e-07 -5.31009e-08 -1.37538e-21 6.70713e-07 -1.69078e-22 6.12674e-07)
(5.4807e-07 -5.12814e-08 -8.47636e-25 6.65261e-07 3.76501e-23 6.06642e-07)
(5.41154e-07 -4.9396e-08 1.61411e-21 6.59395e-07 1.82345e-22 6.00254e-07)
(5.33939e-07 -4.74413e-08 1.43536e-21 6.53117e-07 1.24515e-22 5.93508e-07)
(5.26403e-07 -4.54187e-08 8.84901e-24 6.46388e-07 -1.40084e-23 5.86377e-07)
(5.18487e-07 -4.33216e-08 6.50922e-24 6.3913e-07 -1.42153e-23 5.78793e-07)
(5.10234e-07 -4.11521e-08 -1.07176e-21 6.3139e-07 -1.61862e-22 5.70796e-07)
(5.0161e-07 -3.89129e-08 -4.73445e-21 6.23107e-07 -4.76951e-22 5.62344e-07)
(4.92601e-07 -3.66016e-08 9.37867e-25 6.1426e-07 4.51764e-23 5.53419e-07)
(4.83289e-07 -3.42343e-08 5.87493e-24 6.04922e-07 9.92776e-24 5.44094e-07)
(4.73669e-07 -3.18224e-08 -2.76221e-23 5.9507e-07 -1.98933e-23 5.34359e-07)
(4.63807e-07 -2.93935e-08 -1.78028e-21 5.84749e-07 -1.9337e-22 5.24269e-07)
(4.53757e-07 -2.69805e-08 -1.11859e-22 5.73996e-07 9.09364e-24 5.13869e-07)
(4.4355e-07 -2.46251e-08 -6.57106e-23 5.62817e-07 1.98281e-23 5.03177e-07)
(4.33191e-07 -2.23665e-08 3.91728e-21 5.51198e-07 4.05079e-22 4.92189e-07)
(4.22661e-07 -2.02394e-08 -1.49678e-21 5.39106e-07 -1.9552e-22 4.80879e-07)
(4.11899e-07 -1.82564e-08 -5.55902e-24 5.2648e-07 -1.56304e-23 4.69185e-07)
(4.00821e-07 -1.63999e-08 -3.04883e-21 5.13251e-07 -2.96865e-22 4.57034e-07)
(3.8941e-07 -1.46349e-08 3.89183e-21 4.99443e-07 4.88035e-22 4.44424e-07)
(3.77651e-07 -1.29123e-08 5.14874e-21 4.85082e-07 6.25422e-22 4.31365e-07)
(3.65601e-07 -1.12009e-08 1.4008e-20 4.70263e-07 1.51033e-21 4.17931e-07)
(3.53349e-07 -9.51612e-09 -3.88391e-23 4.55096e-07 -1.73596e-22 4.04221e-07)
(3.4094e-07 -7.92154e-09 -1.2494e-20 4.39619e-07 -1.37845e-21 3.90279e-07)
(3.28362e-07 -6.51153e-09 3.31637e-21 4.23797e-07 4.47936e-22 3.76079e-07)
(3.15533e-07 -5.37496e-09 -1.30882e-22 4.07519e-07 -8.06929e-23 3.61526e-07)
(3.0239e-07 -4.54801e-09 -7.01528e-21 3.90727e-07 -8.84045e-22 3.46559e-07)
(2.88968e-07 -3.99425e-09 -1.8068e-20 3.73498e-07 -2.09271e-21 3.31233e-07)
(2.75388e-07 -3.63891e-09 -1.66404e-20 3.56018e-07 -1.78514e-21 3.15706e-07)
(2.61957e-07 -3.38362e-09 9.17744e-21 3.38705e-07 1.12837e-21 3.0032e-07)
(2.48253e-07 -3.20821e-09 -7.46592e-22 3.21022e-07 -1.14532e-22 2.84665e-07)
(2.352e-07 -3.14338e-09 3.88131e-21 3.04146e-07 4.47113e-22 2.69656e-07)
(2.23866e-07 -3.23748e-09 -1.08915e-21 2.89456e-07 -1.42511e-22 2.56653e-07)
(2.14384e-07 -3.0959e-09 4.37532e-23 2.77209e-07 1.26735e-23 2.45821e-07)
(2.05158e-07 -2.86283e-09 9.08146e-24 2.65304e-07 -5.62847e-23 2.35219e-07)
(1.95367e-07 -2.86051e-09 -1.60704e-20 2.52625e-07 -1.96164e-21 2.2401e-07)
(1.85892e-07 -3.48174e-09 -1.52378e-20 2.40186e-07 -1.76594e-21 2.1298e-07)
(1.73588e-07 -5.23159e-09 8.34773e-23 2.23583e-07 5.57944e-23 1.98808e-07)
(1.7193e-07 -8.79085e-09 7.08843e-24 2.18968e-07 2.27422e-24 1.94757e-07)
(1.49295e-07 -1.12158e-08 -0 1.86195e-07 -6.65944e-24 1.69657e-07)
(1.89971e-07 -1.30162e-08 -4.72759e-21 2.36894e-07 -5.83856e-22 2.08617e-07)
(9.80519e-08 1.11582e-09 5.92993e-23 1.14868e-07 -2.19734e-23 1.17823e-07)
(3.99969e-07 9.37823e-09 -1.98919e-20 5.00686e-07 -2.41949e-21 4.2546e-07)
(4.89403e-07 3.89224e-08 -1.79008e-20 4.51036e-07 -2.27268e-21 5.15356e-07)
(8.47345e-07 1.73386e-08 2.41737e-22 1.04211e-06 6.11554e-23 8.79309e-07)
(4.73812e-07 -4.55214e-08 -4.35735e-22 5.65716e-07 -4.42517e-23 5.07914e-07)
(4.42655e-07 -5.121e-08 9.59764e-25 5.0951e-07 1.16667e-23 4.77177e-07)
(4.30193e-07 -5.09427e-08 -1.14196e-25 4.91034e-07 9.17948e-24 4.64807e-07)
(4.61681e-07 -5.32768e-08 3.74142e-22 5.32764e-07 3.55631e-23 4.96309e-07)
(4.65502e-07 -5.45803e-08 -4.39347e-23 5.33686e-07 -1.4484e-23 5.00021e-07)
(4.76685e-07 -5.5993e-08 -1.48984e-22 5.45778e-07 -1.1961e-23 5.1115e-07)
(4.85007e-07 -5.7309e-08 -4.79212e-25 5.53792e-07 2.09629e-24 5.19477e-07)
(4.93555e-07 -5.85317e-08 -3.2633e-26 5.62519e-07 1.68104e-24 5.28067e-07)
(5.01253e-07 -5.9639e-08 1.50004e-22 5.70344e-07 3.15652e-23 5.35843e-07)
(5.08393e-07 -6.0633e-08 9.06153e-22 5.77731e-07 8.76085e-23 5.43099e-07)
(5.14785e-07 -6.15088e-08 -0 5.84398e-07 -5.98203e-24 5.49642e-07)
(5.2056e-07 -6.22643e-08 4.88234e-22 5.90581e-07 3.45472e-23 5.55609e-07)
(5.25597e-07 -6.29018e-08 -7.04574e-22 5.96075e-07 -8.92766e-23 5.60876e-07)
(5.2991e-07 -6.34182e-08 -5.65925e-22 6.00917e-07 -2.88852e-23 5.65458e-07)
(5.33531e-07 -6.38141e-08 8.78926e-22 6.0516e-07 1.02639e-22 5.69387e-07)
(5.36476e-07 -6.40937e-08 3.52682e-22 6.08809e-07 1.97769e-23 5.72678e-07)
(5.38704e-07 -6.42604e-08 7.49046e-25 6.1178e-07 1.8803e-23 5.75291e-07)
(5.40348e-07 -6.43114e-08 1.28862e-21 6.14296e-07 1.49294e-22 5.77356e-07)
(5.41351e-07 -6.42588e-08 1.04055e-21 6.16209e-07 7.26355e-23 5.78817e-07)
(5.41745e-07 -6.40994e-08 -5.2955e-22 6.17576e-07 -7.19635e-23 5.79704e-07)
(5.41654e-07 -6.38434e-08 -2.88263e-22 6.18546e-07 -6.35428e-23 5.80137e-07)
(5.41065e-07 -6.34938e-08 -2.61459e-21 6.19077e-07 -2.59337e-22 5.80104e-07)
(5.40001e-07 -6.30558e-08 -1.57139e-24 6.19178e-07 2.9154e-23 5.79626e-07)
(5.38515e-07 -6.25328e-08 -6.98617e-22 6.18908e-07 -7.05312e-23 5.78752e-07)
(5.36734e-07 -6.19324e-08 -2.42172e-25 6.18426e-07 1.27046e-23 5.77607e-07)
(5.34556e-07 -6.12601e-08 -5.72526e-24 6.17546e-07 -4.65469e-24 5.76088e-07)
(5.3209e-07 -6.05104e-08 4.15426e-24 6.16442e-07 9.57061e-25 5.74299e-07)