/*--------------------------------*- C++ -*----------------------------------*\
| =========                 |                                                 |
| \\      /  F ield         | OpenFOAM: The Open Source CFD Toolbox           |
|  \\    /   O peration     | Version:  2506                                  |
|   \\  /    A nd           | Website:  www.openfoam.com                      |
|    \\/     M anipulation  |                                                 |
\*---------------------------------------------------------------------------*/
FoamFile
{
    version     2.0;
    format      ascii;
    arch        "LSB;label=32;scalar=64";
    class       volVectorField;
    location    "300";
    object      momentError;
}
// * * * * * * * * * * * * * * * * * * * * * * * * * * * * * * * * * * * * * //

dimensions      [0 1 -2 0 0 0 0];

internalField   nonuniform List<vector> 
1340
(
(0.000943811 0.00110052 1.15523e-13)
(0.00241094 0.0113829 -1.13965e-14)
(0.05362 0.0723041 -4.65985e-16)
(1.09291 -0.120313 -6.74887e-14)
(0.0017504 3.20601e-05 -3.95083e-14)
(0.00116619 0.00192597 3.30635e-14)
(-0.0294762 0.0142225 -1.41321e-14)
(-0.890323 0.108669 -3.85201e-14)
(0.00193256 -0.000246629 -3.61768e-14)
(0.000566474 0.000692856 -9.98394e-14)
(-0.0128995 0.00157376 2.77989e-14)
(-0.108637 0.00923956 9.92233e-15)
(0.00204264 -0.000461996 -1.16616e-13)
(0.00211419 -0.000169026 1.66379e-14)
(-0.00241427 -0.000973128 -2.83194e-14)
(-0.0281902 0.00830512 4.56553e-14)
(0.00155408 -0.000555234 1.18055e-13)
(0.00275473 -0.000619467 -3.96519e-14)
(0.000967795 -0.00169293 -1.66389e-14)
(-0.0142712 0.00845715 -5.3073e-16)
(0.000978552 -0.000998233 7.32926e-14)
(0.00261008 -0.000614581 8.46592e-14)
(0.00158645 -0.00179693 3.85122e-14)
(-0.0107923 0.00886721 2.85599e-14)
(0.0225171 -0.00783608 -1.01866e-13)
(-0.00642784 0.00213403 -5.78245e-14)
(0.000769841 -0.00222619 6.50993e-15)
(-0.00699915 0.0080608 -2.58405e-14)
(-0.0144354 0.00188401 6.9446e-14)
(-0.00498434 -0.00190647 5.85614e-14)
(-0.00101673 -0.000538423 -3.50685e-14)
(-0.00278434 0.00721143 -2.77353e-14)
(-0.0085883 0.00511392 -8.23849e-14)
(0.00487531 -0.00301011 -1.57967e-14)
(-0.0156664 0.00917137 2.61827e-14)
(-0.00139177 0.00619576 -4.94934e-15)
(0.00135412 -0.000878556 3.04432e-14)
(-0.00124134 -0.0011347 5.40865e-15)
(-0.0047346 0.00031215 -1.68841e-14)
(0.000553932 0.00342628 4.25625e-14)
(-0.000257385 9.25879e-06 -2.02419e-14)
(0.000289814 -0.000573534 2.06827e-14)
(0.00531509 -0.00822041 1.50922e-14)
(0.00137984 0.00240569 7.59673e-15)
(-0.000146875 -0.000266555 5.97855e-14)
(0.000149828 -0.000617255 3.47171e-14)
(-0.00190626 -0.00127628 1.50455e-14)
(-7.41487e-05 0.004065 -3.55826e-14)
(-0.000195976 -0.000266975 -5.60689e-14)
(-0.000470347 -0.000344319 -4.43525e-14)
(-0.00160132 -0.000110313 3.17853e-15)
(0.000227939 0.00304586 1.54104e-15)
(-0.000125318 -0.000282295 4.07127e-14)
(-0.000557731 -0.000328302 5.33983e-14)
(-0.00110505 -0.000332203 -3.67291e-14)
(0.000439491 0.00245036 1.99768e-15)
(-8.48534e-05 -0.000270413 3.92674e-15)
(-0.000534347 -0.000277571 -6.60211e-14)
(-0.00111919 -3.05459e-05 2.43008e-14)
(0.000453378 0.00215741 1.07199e-15)
(-7.71615e-05 -0.000250103 -6.65247e-14)
(-0.000465392 -0.00023483 2.33834e-14)
(-0.00094529 5.88352e-05 -1.72279e-15)
(0.00043293 0.00183511 9.68803e-15)
(-7.68698e-05 -0.000230007 1.19857e-14)
(-0.00040954 -0.000191948 6.27044e-15)
(-0.000760291 0.000136475 -1.69736e-14)
(0.000394268 0.00156118 -6.57314e-15)
(-7.46921e-05 -0.000211016 1.63954e-14)
(-0.000366877 -0.000151422 -5.48207e-15)
(-0.00058942 0.000185122 4.64145e-15)
(0.000365388 0.00131321 7.86573e-15)
(-6.60971e-05 -0.00019181 9.12264e-15)
(-0.000326354 -0.000116597 -2.65084e-14)
(-0.000448515 0.000212864 2.60884e-14)
(0.000344605 0.00109051 -6.29589e-15)
(-5.65205e-05 -0.000171827 -7.04837e-15)
(-0.000283134 -8.69838e-05 7.42181e-15)
(-0.00033128 0.000225977 2.22147e-15)
(0.000324451 0.000894026 -4.58056e-15)
(-4.38353e-05 -0.000150846 -1.26058e-14)
(-0.000238432 -6.14267e-05 -4.93516e-15)
(-0.000236381 0.000226496 -1.86734e-14)
(0.00030411 0.000722925 -2.97037e-15)
(-3.21438e-05 -0.000129899 -1.59452e-14)
(-0.000194701 -4.0193e-05 -1.05217e-14)
(-0.000155276 0.000219054 4.47138e-15)
(0.000284046 0.000577792 3.08031e-15)
(-1.80279e-05 -0.000109846 3.96943e-14)
(-0.0001527 -2.20354e-05 2.06312e-14)
(-8.99701e-05 0.000207149 -1.04264e-14)
(0.000265298 0.000455801 -6.5982e-16)
(-5.36471e-06 -9.0948e-05 -9.3855e-15)
(-0.000113907 -7.72553e-06 -2.36072e-15)
(-3.46732e-05 0.000192214 6.01865e-15)
(0.000248239 0.000356191 2.0314e-15)
(8.98283e-06 -7.39975e-05 -1.5838e-14)
(-7.75546e-05 4.38117e-06 -6.53562e-15)
(7.84283e-06 0.000175588 -1.41067e-14)
(0.00023271 0.00027423 -2.54238e-15)
(2.15072e-05 -5.86908e-05 1.09368e-14)
(-4.52945e-05 1.27387e-05 -1.87236e-14)
(4.26892e-05 0.000156598 9.64115e-15)
(0.000219359 0.000210681 8.40078e-15)
(3.4951e-05 -4.58543e-05 -8.56976e-15)
(-1.5882e-05 1.89975e-05 2.79226e-14)
(6.83831e-05 0.000138574 2.35318e-14)
(0.000207526 0.000159826 -1.29535e-15)
(4.63012e-05 -3.51806e-05 -3.36004e-15)
(9.40989e-06 2.23835e-05 1.21405e-14)
(8.91322e-05 0.000119884 -6.79611e-15)
(0.000196444 0.000120708 1.43698e-15)
(5.76407e-05 -2.8222e-05 8.39683e-15)
(3.20132e-05 2.49221e-05 -2.55997e-14)
(0.000103427 0.00010293 -1.03742e-14)
(0.000186087 8.82762e-05 -4.82425e-15)
(6.81626e-05 -2.08561e-05 1.5645e-15)
(5.09498e-05 2.41138e-05 1.49078e-14)
(0.000114197 8.6275e-05 5.03309e-15)
(0.000176213 6.35084e-05 -2.62902e-15)
(7.73351e-05 -1.68486e-05 -1.22374e-14)
(6.68656e-05 2.37178e-05 -1.42164e-14)
(0.000120654 7.09461e-05 -1.53691e-14)
(0.000167069 4.29944e-05 -2.14842e-15)
(8.62103e-05 -1.11052e-05 2.87633e-15)
(7.99179e-05 2.06812e-05 3.186e-15)
(0.000124398 5.65223e-05 3.17493e-15)
(0.000158338 2.75872e-05 9.71288e-15)
(9.21931e-05 -9.47183e-06 2.95612e-15)
(8.91281e-05 1.78425e-05 1.41178e-15)
(0.00012578 4.35952e-05 -4.31868e-16)
(0.00015023 1.45881e-05 1.2927e-15)
(0.000108622 -1.92126e-05 -1.97141e-14)
(9.82707e-05 -7.08226e-06 -1.93941e-14)
(9.71846e-05 1.41077e-05 -6.15481e-15)
(0.000125151 3.19778e-05 -4.92956e-15)
(0.000142533 5.01634e-06 -9.70233e-15)
(0.00011147 -1.50781e-05 5.0653e-16)
(0.000101816 -4.89265e-06 7.1739e-15)
(0.000100981 9.68814e-06 3.05187e-15)
(0.000123398 2.19382e-05 9.99805e-15)
(0.000135382 -3.14309e-06 8.03079e-15)
(0.000111072 -1.30272e-05 1.21943e-14)
(0.000103849 -5.77463e-06 -1.76883e-15)
(0.000104323 5.76426e-06 1.26604e-14)
(0.000120501 1.32287e-05 3.10635e-15)
(0.000128591 -9.10604e-06 4.04473e-15)
(0.000111441 -1.26038e-05 -2.57753e-15)
(0.000104723 -6.36188e-06 8.36386e-15)
(0.000104773 1.8109e-06 -1.09747e-14)
(0.000116971 5.84471e-06 -9.65757e-15)
(0.000122263 -1.4186e-05 -1.02573e-14)
(0.000109531 -1.20025e-05 -6.77111e-15)
(0.000104736 -7.59246e-06 -9.62022e-15)
(0.00010506 -1.87979e-06 6.83037e-15)
(0.000112817 -2.75397e-07 3.87853e-16)
(0.000116299 -1.77529e-05 -8.13767e-15)
(0.000108491 -1.20187e-05 5.88392e-15)
(0.000103627 -8.83809e-06 1.06261e-14)
(0.000103063 -5.30745e-06 -5.77876e-15)
(0.000108501 -5.35652e-06 -1.18734e-14)
(0.000110665 -2.07689e-05 1.84241e-15)
(0.000105283 -1.22619e-05 4.73151e-15)
(0.000101851 -1.03848e-05 8.08683e-15)
(0.000101366 -8.38832e-06 2.4995e-15)
(0.000103847 -9.36186e-06 1.35871e-14)
(0.000105312 -2.28665e-05 1.12772e-14)
(0.000102989 -1.3309e-05 -2.57416e-15)
(9.93811e-05 -1.167e-05 3.51179e-16)
(9.7892e-05 -1.11175e-05 3.74516e-15)
(9.9301e-05 -1.26399e-05 2.60978e-16)
(0.000100155 -2.46144e-05 -9.84894e-17)
(9.92509e-05 -1.4197e-05 -2.10091e-15)
(9.64882e-05 -1.37728e-05 -1.30034e-14)
(9.50647e-05 -1.3269e-05 -1.04414e-14)
(9.4598e-05 -1.51257e-05 -6.33994e-15)
(9.52239e-05 -2.5767e-05 -1.92064e-15)
(9.62384e-05 -1.54235e-05 -5.32739e-15)
(9.33987e-05 -1.45875e-05 -6.09549e-16)
(9.1192e-05 -1.51715e-05 7.86604e-15)
(9.00458e-05 -1.70719e-05 2.50936e-15)
(9.04376e-05 -2.66793e-05 -6.71108e-15)
(9.24968e-05 -1.54101e-05 1.45795e-14)
(9.01441e-05 -1.586e-05 8.57917e-15)
(8.75904e-05 -1.65582e-05 -5.60856e-15)
(8.54438e-05 -1.85022e-05 -9.33085e-16)
(8.58204e-05 -2.72096e-05 5.34963e-15)
(8.8993e-05 -1.61412e-05 3.09215e-15)
(8.61988e-05 -1.64779e-05 -5.72248e-15)
(8.34317e-05 -1.77691e-05 -6.92923e-15)
(8.09275e-05 -1.96265e-05 -7.2977e-16)
(8.12984e-05 -2.75927e-05 1.54398e-15)
(8.67531e-05 -1.52351e-05 -3.7837e-15)
(8.53635e-05 -1.63262e-05 2.57852e-16)
(8.23277e-05 -1.72827e-05 1.66707e-15)
(7.94086e-05 -1.86942e-05 -3.90866e-15)
(7.64415e-05 -2.04258e-05 -2.75869e-15)
(7.69209e-05 -2.77403e-05 -1.06579e-15)
(8.29143e-05 -1.54766e-05 -5.49524e-15)
(8.13312e-05 -1.65922e-05 -4.78941e-16)
(7.78073e-05 -1.79741e-05 -2.67767e-15)
(7.50847e-05 -1.94734e-05 1.37403e-15)
(7.2073e-05 -2.10533e-05 7.65811e-15)
(7.26287e-05 -2.78173e-05 -1.85959e-16)
(7.83106e-05 -1.59402e-05 -4.31337e-15)
(7.65775e-05 -1.73725e-05 -8.37851e-16)
(7.37813e-05 -1.87029e-05 -4.39914e-15)
(7.10041e-05 -2.01033e-05 6.75115e-15)
(6.77748e-05 -2.14872e-05 -9.32302e-16)
(6.85111e-05 -2.77442e-05 -2.95352e-15)
(7.39398e-05 -1.67558e-05 3.83285e-15)
(7.25228e-05 -1.80316e-05 3.21006e-15)
(6.93393e-05 -1.92793e-05 5.00387e-15)
(6.67347e-05 -2.06547e-05 -3.17362e-16)
(6.36237e-05 -2.18118e-05 -2.12963e-15)
(6.44794e-05 -2.76314e-05 6.37986e-15)
(6.93644e-05 -1.74481e-05 -3.49177e-15)
(6.80161e-05 -1.88196e-05 -2.69895e-15)
(6.5323e-05 -1.99399e-05 -2.41951e-15)
(6.27587e-05 -2.11029e-05 -2.57424e-15)
(5.9585e-05 -2.2014e-05 7.97052e-15)
(6.06216e-05 -2.74424e-05 -1.18845e-16)
(6.50782e-05 -1.81525e-05 -1.36051e-15)
(6.41586e-05 -1.93734e-05 6.04938e-16)
(6.11577e-05 -2.04125e-05 -3.90148e-15)
(5.87303e-05 -2.14708e-05 1.55257e-15)
(5.57096e-05 -2.21598e-05 -1.03123e-15)
(5.68358e-05 -2.72255e-05 -5.31667e-15)
(6.08144e-05 -1.85142e-05 2.53422e-15)
(5.98291e-05 -1.98743e-05 -1.21774e-15)
(5.72715e-05 -2.09198e-05 1.44304e-15)
(5.49701e-05 -2.17756e-05 4.04617e-16)
(5.19646e-05 -2.22375e-05 -7.24768e-16)
(5.3249e-05 -2.69642e-05 2.24792e-15)
(5.65123e-05 -1.89399e-05 5.40731e-15)
(5.58705e-05 -2.03085e-05 7.24577e-15)
(5.33308e-05 -2.12889e-05 1.71411e-16)
(5.12394e-05 -2.20477e-05 -1.12159e-15)
(4.84152e-05 -2.2268e-05 -3.94231e-15)
(4.9738e-05 -2.66844e-05 -1.80469e-15)
(5.23154e-05 -1.95234e-05 -1.00233e-15)
(5.16386e-05 -2.07842e-05 -1.03963e-15)
(4.96529e-05 -2.16109e-05 -2.22194e-16)
(4.77931e-05 -2.21574e-05 5.71579e-16)
(4.50442e-05 -2.22244e-05 3.77253e-15)
(4.64924e-05 -2.63598e-05 3.55495e-15)
(4.87113e-05 -1.86683e-05 5.26624e-16)
(4.93428e-05 -2.00147e-05 2.38508e-15)
(4.74703e-05 -2.09376e-05 2.19367e-15)
(4.62589e-05 -2.161e-05 -1.95233e-15)
(4.44357e-05 -2.21655e-05 -1.52109e-15)
(4.18369e-05 -2.2092e-05 -6.27642e-16)
(4.33102e-05 -2.60526e-05 -2.4982e-15)
(4.52745e-05 -1.91022e-05 -1.97612e-15)
(4.55538e-05 -1.99618e-05 -7.8796e-17)
(4.39997e-05 -2.09353e-05 5.91196e-16)
(4.28157e-05 -2.16084e-05 -3.25884e-15)
(4.11833e-05 -2.20706e-05 -7.85941e-16)
(3.87487e-05 -2.19564e-05 1.43154e-15)
(4.03368e-05 -2.57712e-05 -6.14697e-16)
(4.19414e-05 -1.92641e-05 5.98605e-17)
(4.2341e-05 -2.02114e-05 1.78242e-16)
(4.05178e-05 -2.10151e-05 -4.707e-15)
(3.95643e-05 -2.15744e-05 3.58708e-15)
(3.80438e-05 -2.19871e-05 1.30047e-15)
(3.57567e-05 -2.17925e-05 -2.44832e-15)
(3.74405e-05 -2.55043e-05 3.88637e-15)
(3.86842e-05 -1.95962e-05 3.17999e-15)
(3.91601e-05 -2.04672e-05 1.56895e-15)
(3.74113e-05 -2.1151e-05 6.76358e-16)
(3.63624e-05 -2.15794e-05 -1.42929e-15)
(3.49716e-05 -2.18883e-05 -5.36223e-15)
(3.29235e-05 -2.157e-05 3.45904e-15)
(3.47337e-05 -2.51965e-05 -5.07677e-16)
(3.57082e-05 -1.98806e-05 1.04176e-15)
(3.61462e-05 -2.06483e-05 2.15053e-16)
(3.42933e-05 -2.12497e-05 -1.23501e-15)
(3.33985e-05 -2.15457e-05 -4.73003e-16)
(3.21673e-05 -2.16677e-05 -2.66691e-16)
(3.02712e-05 -2.12265e-05 2.48639e-16)
(3.21171e-05 -2.47947e-05 1.27827e-16)
(3.27947e-05 -1.99981e-05 -1.36084e-16)
(3.32187e-05 -2.07931e-05 1.11446e-15)
(3.15674e-05 -2.12655e-05 1.06185e-15)
(3.06797e-05 -2.13942e-05 7.58058e-16)
(2.95349e-05 -2.14002e-05 -1.23213e-16)
(2.77374e-05 -2.08581e-05 1.49594e-15)
(2.96209e-05 -2.43402e-05 6.59591e-16)
(3.00697e-05 -2.00804e-05 -2.19128e-15)
(3.051e-05 -2.08185e-05 -2.9323e-16)
(2.89586e-05 -2.12616e-05 1.86435e-15)
(2.8139e-05 -2.13065e-05 -9.87356e-16)
(2.70256e-05 -2.12086e-05 -4.85321e-15)
(2.53628e-05 -2.05383e-05 -5.82812e-17)
(2.72333e-05 -2.39794e-05 7.55625e-16)
(2.73467e-05 -1.92971e-05 -9.42241e-16)
(2.8979e-05 -2.02362e-05 -8.33434e-16)
(2.69627e-05 -2.09586e-05 -3.75499e-16)
(2.65526e-05 -2.12475e-05 4.39409e-16)
(2.57051e-05 -2.12638e-05 -1.89531e-15)
(2.47027e-05 -2.11043e-05 -6.34894e-16)
(2.30976e-05 -2.03229e-05 2.87726e-16)
(2.49432e-05 -2.37221e-05 -1.6857e-16)
(2.51048e-05 -1.93647e-05 5.58608e-16)
(2.6085e-05 -2.03301e-05 1.88189e-15)
(2.45841e-05 -2.09701e-05 1.15318e-15)
(2.42253e-05 -2.12329e-05 -2.97323e-15)
(2.34757e-05 -2.12138e-05 -1.58604e-15)
(2.2499e-05 -2.09866e-05 1.09808e-15)
(2.09953e-05 -2.01296e-05 4.98129e-16)
(2.28435e-05 -2.34579e-05 -2.80309e-16)
(2.2719e-05 -1.93648e-05 1.22351e-15)
(2.36853e-05 -2.02811e-05 3.12174e-16)
(2.23743e-05 -2.09294e-05 -1.59664e-15)
(2.20757e-05 -2.11544e-05 1.13576e-15)
(2.13765e-05 -2.1103e-05 1.23059e-15)
(2.04728e-05 -2.08335e-05 -1.01612e-15)
(1.90697e-05 -1.98891e-05 -1.08861e-15)
(2.0845e-05 -2.3219e-05 -1.43895e-16)
(2.05608e-05 -1.92397e-05 -2.14991e-16)
(2.18117e-05 -2.02115e-05 6.00769e-16)
(2.02928e-05 -2.08302e-05 -7.16427e-16)
(2.00734e-05 -2.10089e-05 2.27656e-15)
(1.94316e-05 -2.09233e-05 -1.97715e-15)
(1.85906e-05 -2.0611e-05 -2.48356e-15)
(1.72635e-05 -1.96348e-05 3.28798e-15)
(1.89613e-05 -2.29773e-05 3.49334e-16)
(1.85586e-05 -1.90307e-05 -9.87609e-16)
(1.9868e-05 -2.0025e-05 -9.28961e-16)
(1.84137e-05 -2.06531e-05 -1.95396e-16)
(1.81938e-05 -2.07919e-05 2.23584e-16)
(1.76292e-05 -2.06793e-05 8.72261e-16)
(1.68329e-05 -2.03634e-05 7.92075e-16)
(1.55636e-05 -1.93608e-05 -3.25201e-16)
(1.71865e-05 -2.27178e-05 -7.14777e-16)
(1.6717e-05 -1.87465e-05 1.04506e-15)
(1.79647e-05 -1.97149e-05 -1.16553e-15)
(1.65994e-05 -2.03436e-05 1.08319e-15)
(1.64598e-05 -2.04662e-05 1.72195e-15)
(1.5926e-05 -2.03703e-05 -1.06566e-15)
(1.51485e-05 -2.00541e-05 1.44423e-16)
(1.39912e-05 -1.90133e-05 1.42441e-15)
(1.55401e-05 -2.24133e-05 -1.72808e-16)
(1.60099e-05 -1.94248e-05 -1.03088e-15)
(1.70429e-05 -2.05236e-05 1.05975e-16)
(1.59677e-05 -2.12153e-05 3.59464e-16)
(1.57837e-05 -2.1421e-05 -1.86586e-15)
(1.52723e-05 -2.14097e-05 7.75056e-16)
(1.45939e-05 -2.1126e-05 1.69283e-15)
(1.34794e-05 -2.01227e-05 -1.04801e-15)
(1.49577e-05 -2.36131e-05 -5.94226e-16)
(1.41144e-05 -1.79014e-05 5.56675e-16)
(1.63138e-05 -1.91209e-05 3.62035e-16)
(1.45346e-05 -2.00947e-05 6.4501e-16)
(1.45903e-05 -2.04886e-05 -1.10274e-15)
(1.43508e-05 -2.07537e-05 5.20842e-16)
(1.39029e-05 -2.07468e-05 1.1005e-15)
(1.32351e-05 -2.03841e-05 -2.15713e-15)
(1.21769e-05 -1.92942e-05 -3.80044e-16)
(1.36181e-05 -2.27378e-05 1.79451e-15)
(1.30249e-05 -1.75635e-05 1.33362e-16)
(1.44357e-05 -1.87803e-05 -1.08574e-16)
(1.30811e-05 -1.96388e-05 6.60888e-16)
(1.31336e-05 -1.99589e-05 8.97556e-16)
(1.29446e-05 -2.0202e-05 -9.21673e-16)
(1.25083e-05 -2.01487e-05 -8.56453e-16)
(1.18922e-05 -1.97253e-05 4.83437e-16)
(1.08997e-05 -1.85414e-05 1.54939e-15)
(1.22449e-05 -2.20143e-05 -2.14065e-15)
(1.16708e-05 -1.71824e-05 -2.5745e-16)
(1.29902e-05 -1.83377e-05 -4.27683e-16)
(1.16814e-05 -1.9151e-05 -1.51684e-15)
(1.17618e-05 -1.93986e-05 -5.20153e-16)
(1.15976e-05 -1.9581e-05 1.59011e-16)
(1.12016e-05 -1.94894e-05 2.32037e-16)
(1.06247e-05 -1.90056e-05 -2.9448e-16)
(9.67551e-06 -1.77867e-05 9.66617e-16)
(1.09376e-05 -2.12555e-05 2.32894e-15)
(1.04487e-05 -1.6891e-05 8.99257e-16)
(1.16691e-05 -1.80294e-05 -1.22835e-15)
(1.04488e-05 -1.88229e-05 9.97634e-17)
(1.05188e-05 -1.90298e-05 2.45052e-15)
(1.03664e-05 -1.9177e-05 -1.23386e-15)
(9.99312e-06 -1.90487e-05 3.07863e-16)
(9.43813e-06 -1.85328e-05 -6.31229e-16)
(8.54478e-06 -1.72587e-05 1.52907e-16)
(9.75612e-06 -2.07809e-05 7.00839e-16)
(9.22846e-06 -1.631e-05 -4.90445e-17)
(1.03537e-05 -1.73902e-05 7.01345e-16)
(9.21937e-06 -1.81285e-05 4.34211e-16)
(9.29541e-06 -1.82712e-05 -1.7808e-15)
(9.16619e-06 -1.83616e-05 1.29148e-15)
(8.82508e-06 -1.81938e-05 1.91772e-15)
(8.32016e-06 -1.76432e-05 -3.08886e-15)
(7.48791e-06 -1.63344e-05 -4.89325e-16)
(8.54548e-06 -1.97873e-05 1.14802e-15)
(8.27519e-06 -1.63082e-05 2.36457e-16)
(9.31186e-06 -1.73962e-05 3.93767e-16)
(8.29835e-06 -1.81667e-05 -2.84406e-16)
(8.35673e-06 -1.83116e-05 -7.31012e-16)
(8.21478e-06 -1.8391e-05 6.82338e-16)
(7.88151e-06 -1.81975e-05 1.19044e-15)
(7.39194e-06 -1.76012e-05 -1.70908e-16)
(6.62154e-06 -1.62251e-05 -1.14214e-15)
(7.72845e-06 -1.98482e-05 4.61288e-16)
(7.03756e-06 -1.49727e-05 -5.18812e-16)
(8.3024e-06 -1.60715e-05 -1.91278e-16)
(7.086e-06 -1.67142e-05 6.00651e-16)
(7.1852e-06 -1.66882e-05 8.63829e-16)
(7.08097e-06 -1.66695e-05 -6.36572e-18)
(6.80489e-06 -1.64545e-05 -3.38421e-17)
(6.39124e-06 -1.58553e-05 -3.78495e-16)
(5.66855e-06 -1.44907e-05 7.09239e-17)
(6.41283e-06 -1.77848e-05 -1.09016e-16)
(6.76781e-06 -1.61017e-05 2.78305e-16)
(8.05928e-06 -1.73543e-05 2.64239e-16)
(6.80498e-06 -1.81545e-05 6.16737e-16)
(6.8236e-06 -1.8144e-05 -1.08084e-16)
(6.67531e-06 -1.81477e-05 -5.4167e-16)
(6.3647e-06 -1.79197e-05 1.17645e-16)
(5.92255e-06 -1.72376e-05 -3.57083e-16)
(5.28945e-06 -1.57462e-05 -5.41582e-16)
(6.50174e-06 -1.96544e-05 8.30526e-16)
(5.00266e-06 -1.23525e-05 -1.21486e-15)
(6.23975e-06 -1.33574e-05 -6.19774e-16)
(5.19889e-06 -1.39907e-05 2.60142e-16)
(5.22868e-06 -1.38046e-05 4.195e-16)
(5.18601e-06 -1.3708e-05 1.67596e-15)
(5.01044e-06 -1.34832e-05 -4.31108e-16)
(4.70282e-06 -1.2903e-05 -1.90595e-15)
(4.04794e-06 -1.15697e-05 4.09667e-17)
(4.23932e-06 -1.43477e-05 1.22795e-15)
(5.64652e-06 -1.59515e-05 -1.6849e-16)
(7.76624e-06 -1.81077e-05 -3.89516e-16)
(6.14258e-06 -1.94311e-05 1.0816e-16)
(6.16769e-06 -1.94313e-05 -6.01108e-16)
(6.09944e-06 -1.96171e-05 8.88882e-17)
(5.9492e-06 -1.98358e-05 3.67375e-16)
(5.6637e-06 -1.94814e-05 -1.3537e-15)
(5.25686e-06 -1.86407e-05 6.93857e-16)
(4.7807e-06 -1.69018e-05 1.16859e-15)
(6.54476e-06 -2.15445e-05 1.1001e-16)
(2.59904e-06 -7.09472e-06 2.82744e-16)
(3.4643e-06 -7.7076e-06 -1.23954e-16)
(2.78362e-06 -8.46729e-06 -6.96587e-17)
(2.9214e-06 -8.22477e-06 1.54106e-16)
(3.01784e-06 -8.15929e-06 4.99967e-16)
(3.04427e-06 -8.20293e-06 9.74795e-18)
(2.96248e-06 -7.97161e-06 -7.43177e-17)
(2.79196e-06 -7.54016e-06 3.37852e-16)
(2.19097e-06 -6.44111e-06 6.09349e-17)
(1.45804e-06 -7.97663e-06 -5.45703e-16)
(7.39422e-06 -2.04423e-05 1.43393e-17)
(9.377e-06 -2.34049e-05 3.06288e-16)
(7.45905e-06 -2.50643e-05 5.72424e-16)
(7.86076e-06 -2.50345e-05 -1.43849e-15)
(8.15673e-06 -2.53667e-05 2.64201e-16)
(8.06917e-06 -2.57252e-05 2.49049e-15)
(7.76429e-06 -2.53036e-05 -2.66535e-15)
(7.36166e-06 -2.42518e-05 -7.81507e-16)
(6.89223e-06 -2.18959e-05 1.89288e-15)
(1.03174e-05 -2.8335e-05 -7.50961e-16)
(-0.03497 -0.0260122 -5.98579e-14)
(0.0303117 -0.0345801 -1.63616e-14)
(0.0498179 -0.0193805 2.72162e-14)
(0.0379659 -0.012653 -1.54409e-14)
(0.0307906 -0.00913099 2.45729e-14)
(0.0274467 -0.00682372 -7.79557e-15)
(0.0238344 -0.00504346 -5.7531e-15)
(0.0186802 -0.00371684 -1.74119e-14)
(0.011501 -0.0028749 1.2426e-14)
(0.00820211 -0.00136764 1.77107e-14)
(0.00385079 -0.000262348 -7.49714e-15)
(0.0020664 -0.000254183 -1.68092e-14)
(0.00182673 -0.000152031 1.75e-14)
(0.00165976 -4.40196e-05 -1.71646e-14)
(0.00143771 3.25943e-05 1.55439e-14)
(0.00118447 9.35504e-05 -3.35533e-15)
(0.000965995 0.000135481 1.46413e-15)
(0.000787044 0.000161025 -5.20778e-15)
(0.000644114 0.000170412 -6.52498e-15)
(0.000527124 0.000169828 1.51638e-15)
(0.000432834 0.000160835 3.74336e-15)
(0.000354898 0.000147706 -3.6376e-16)
(0.000293165 0.000131371 1.15681e-15)
(0.000242808 0.000114657 -1.26938e-15)
(0.000204394 9.81801e-05 3.45885e-15)
(0.000173979 8.35676e-05 -3.87301e-15)
(0.000151865 7.03792e-05 1.64679e-15)
(0.000133803 5.82335e-05 -3.6034e-15)
(0.000120693 4.70017e-05 4.44777e-15)
(0.000109972 3.6607e-05 -7.24134e-15)
(0.000102513 2.73899e-05 1.39641e-14)
(9.62035e-05 1.87475e-05 -6.14246e-15)
(9.19595e-05 1.14145e-05 1.98281e-15)
(8.81276e-05 4.57168e-06 6.70185e-16)
(8.55347e-05 -1.09019e-06 4.12811e-15)
(8.29621e-05 -6.30688e-06 -2.09443e-15)
(8.11255e-05 -1.05618e-05 -6.21805e-15)
(7.91119e-05 -1.43966e-05 3.92065e-15)
(7.74761e-05 -1.76038e-05 -2.62864e-16)
(7.5588e-05 -2.03899e-05 7.423e-16)
(7.38788e-05 -2.27699e-05 3.82755e-15)
(7.19264e-05 -2.47478e-05 3.04733e-15)
(7.00814e-05 -2.64468e-05 -6.07584e-15)
(6.80362e-05 -2.77894e-05 5.36926e-15)
(6.60557e-05 -2.89353e-05 4.82898e-16)
(6.38913e-05 -2.98041e-05 -7.42121e-15)
(6.17895e-05 -3.05426e-05 4.18296e-15)
(5.95544e-05 -3.10855e-05 -1.28114e-15)
(5.73828e-05 -3.15469e-05 9.43828e-16)
(5.51036e-05 -3.18735e-05 -1.81639e-15)
(5.28701e-05 -3.21331e-05 -3.48455e-15)
(5.05511e-05 -3.231e-05 2.41719e-15)
(4.82823e-05 -3.23723e-05 4.72909e-17)
(4.59991e-05 -3.2377e-05 2.57588e-15)
(4.37642e-05 -3.23736e-05 -3.94695e-15)
(4.1563e-05 -3.23846e-05 -2.1901e-15)
(3.94307e-05 -3.24508e-05 1.6066e-15)
(3.734e-05 -3.24706e-05 -5.17332e-15)
(3.52771e-05 -3.24374e-05 -1.25258e-15)
(3.3229e-05 -3.23212e-05 -3.37126e-15)
(3.11667e-05 -3.22653e-05 1.71021e-15)
(2.92005e-05 -3.22768e-05 -1.62667e-15)
(2.72847e-05 -3.23281e-05 3.26311e-15)
(2.54287e-05 -3.24001e-05 5.53198e-16)
(2.36224e-05 -3.24838e-05 1.46374e-15)
(2.18839e-05 -3.2557e-05 -1.41074e-15)
(2.02113e-05 -3.25601e-05 1.7172e-15)
(1.91504e-05 -3.30809e-05 1.41958e-15)
(1.79136e-05 -3.29004e-05 -2.03815e-15)
(1.67065e-05 -3.28997e-05 1.60436e-15)
(1.5426e-05 -3.273e-05 -2.4915e-15)
(1.43518e-05 -3.30441e-05 -4.35173e-15)
(1.2882e-05 -3.23289e-05 1.7238e-16)
(1.23707e-05 -3.36609e-05 -6.58721e-16)
(1.01656e-05 -3.08946e-05 -9.68097e-16)
(1.15413e-05 -3.58119e-05 8.72109e-16)
(6.75384e-06 -2.67917e-05 -1.15754e-15)
(1.30061e-05 -4.21654e-05 -3.82884e-16)
(1.80125e-06 -1.67468e-05 -2.52931e-16)
(2.19291e-05 -5.70625e-05 4.68834e-16)
(0.07922 -0.00941714 1.85654e-14)
(-0.0402422 0.00400322 4.29909e-15)
(-0.00471617 -0.00136876 -5.82017e-15)
(-0.00035136 -0.00262418 2.64755e-15)
(0.00321611 -0.00296354 -4.28955e-15)
(0.00493195 -0.00291916 1.07141e-15)
(0.00562552 -0.00273075 6.67649e-16)
(0.00586978 -0.0025275 3.02031e-15)
(0.00577484 -0.00228181 -1.7945e-15)
(0.00250035 -0.00234487 -2.38808e-15)
(0.0010819 -0.00253562 1.42393e-15)
(0.000653602 -0.0022396 2.9237e-15)
(0.000818036 -0.0018845 -2.81055e-15)
(0.000984776 -0.00155222 3.13549e-15)
(0.000935906 -0.00126524 -3.00037e-15)
(0.000830572 -0.00103445 8.0818e-16)
(0.000754975 -0.000834951 -3.1232e-16)
(0.000675221 -0.000659617 7.06834e-16)
(0.000607085 -0.000510405 1.0899e-15)
(0.000544621 -0.000385547 -1.60442e-16)
(0.000485752 -0.000283252 -1.63325e-16)
(0.000430653 -0.000200699 -2.63699e-16)
(0.000379883 -0.000135191 1.53073e-16)
(0.00033434 -8.37802e-05 -1.5859e-16)
(0.000292552 -4.50187e-05 -7.65551e-17)
(0.00025387 -1.69248e-05 1.91224e-16)
(0.000219245 1.57515e-06 -1.72667e-16)
(0.000190919 1.32407e-05 6.52511e-16)
(0.000167132 1.93077e-05 -3.2512e-16)
(0.000148035 2.13334e-05 1.44998e-15)
(0.000132063 2.0409e-05 -1.87821e-15)
(0.000119456 1.7537e-05 7.7196e-16)
(0.000108923 1.35965e-05 -3.52836e-16)
(0.000100631 8.89674e-06 3.26232e-16)
(9.36859e-05 4.1812e-06 -1.4065e-15)
(8.81203e-05 -6.00675e-07 1.57145e-16)
(8.33892e-05 -5.033e-06 1.34747e-15)
(7.94144e-05 -9.18047e-06 -4.78878e-17)
(7.5959e-05 -1.28501e-05 1.88568e-16)
(7.28665e-05 -1.61222e-05 -1.1757e-15)
(7.00854e-05 -1.89547e-05 -1.72265e-16)
(6.74694e-05 -2.13702e-05 7.30441e-16)
(6.50601e-05 -2.34331e-05 6.86064e-16)
(6.27204e-05 -2.51324e-05 -1.53358e-15)
(6.05075e-05 -2.6564e-05 2.46108e-16)
(5.8305e-05 -2.77009e-05 1.61547e-15)
(5.61913e-05 -2.86493e-05 -1.3239e-15)
(5.40809e-05 -2.93857e-05 9.19298e-16)
(5.20474e-05 -2.99788e-05 -7.36023e-16)
(4.99848e-05 -3.04444e-05 -1.78385e-16)
(4.79786e-05 -3.0815e-05 1.20764e-15)
(4.59127e-05 -3.10777e-05 -2.588e-15)
(4.39227e-05 -3.12168e-05 -2.34184e-16)
(4.18225e-05 -3.12338e-05 -5.25276e-16)
(3.98245e-05 -3.12356e-05 2.1109e-15)
(3.77687e-05 -3.12049e-05 7.36706e-16)
(3.5863e-05 -3.12293e-05 -1.58892e-16)
(3.39799e-05 -3.12452e-05 1.2471e-15)
(3.21819e-05 -3.12306e-05 1.28982e-16)
(3.03822e-05 -3.1172e-05 3.66566e-16)
(2.85515e-05 -3.11079e-05 1.84696e-15)
(2.67779e-05 -3.10934e-05 2.80697e-16)
(2.50552e-05 -3.10947e-05 -2.69399e-15)
(2.34013e-05 -3.11358e-05 -5.02328e-16)
(2.17905e-05 -3.11713e-05 2.91894e-15)
(2.02444e-05 -3.12012e-05 -8.10392e-16)
(1.87574e-05 -3.11755e-05 -2.49432e-16)
(1.78172e-05 -3.16265e-05 -2.46578e-16)
(1.67176e-05 -3.14477e-05 2.31293e-16)
(1.56427e-05 -3.14301e-05 2.39736e-15)
(1.44795e-05 -3.1214e-05 1.01848e-15)
(1.35162e-05 -3.15002e-05 3.8016e-16)
(1.2227e-05 -3.07647e-05 -6.66654e-16)
(1.16665e-05 -3.19915e-05 8.45867e-16)
(9.87978e-06 -2.94104e-05 6.25938e-16)
(1.06658e-05 -3.38719e-05 -3.25724e-17)
(7.2327e-06 -2.58659e-05 -1.99419e-16)
(1.12215e-05 -3.94659e-05 -3.09833e-16)
(3.67688e-06 -1.70895e-05 4.28242e-16)
(-0.00274811 -0.000810341 2.67507e-16)
(-0.00579248 -0.000993143 4.79554e-17)
(-0.00126715 -0.00108264 -2.31269e-16)
(0.000694374 -0.000939134 9.13844e-17)
(0.00281774 -0.000754959 2.5261e-16)
(0.00427462 -0.00059453 7.68264e-18)
(0.00487319 -0.000472089 1.77779e-17)
(0.00469745 -0.000355025 7.5762e-17)
(0.00382037 -0.000271963 3.73108e-16)
(0.00275545 -0.000313247 3.44598e-16)
(0.00102876 -0.000309618 -2.29421e-16)
(-0.000571418 -0.000370873 3.95376e-16)
(-0.000762043 -0.000395383 4.35985e-17)
(-0.000258747 -0.000407226 -2.65073e-18)
(-9.05104e-05 -0.000400759 -3.06302e-16)
(-8.52503e-05 -0.000403549 2.45214e-16)
(1.19933e-05 -0.000410091 3.26746e-16)
(5.43508e-05 -0.000395155 -1.40865e-16)
(9.70043e-05 -0.000374943 -4.84435e-16)
(0.000129299 -0.000351054 3.20967e-17)
(0.000152923 -0.000323976 -8.80101e-18)
(0.000167657 -0.000295043 1.69187e-17)
(0.000175735 -0.000264508 -1.44289e-16)
(0.00017833 -0.000233889 3.12908e-16)
(0.000177883 -0.000203355 -1.6736e-16)
(0.000175524 -0.000173392 -8.38449e-17)
(0.000171192 -0.000145812 -1.88878e-16)
(0.000164356 -0.000121794 4.95928e-17)
(0.000156114 -0.000101313 -6.60879e-18)
(0.000147022 -8.42635e-05 -4.72153e-17)
(0.00013775 -7.0382e-05 2.87231e-17)
(0.000128648 -5.93744e-05 -9.28124e-17)
(0.000119977 -5.07999e-05 2.64883e-16)
(0.000111939 -4.43539e-05 -2.35458e-18)
(0.000104561 -3.96055e-05 -1.82816e-16)
(9.79146e-05 -3.62732e-05 -1.17763e-16)
(9.19293e-05 -3.39367e-05 7.09004e-17)
(8.65944e-05 -3.24561e-05 1.59927e-16)
(8.18045e-05 -3.15348e-05 -2.92144e-17)
(7.75076e-05 -3.10369e-05 -3.12431e-16)
(7.36084e-05 -3.07977e-05 2.876e-16)
(7.00624e-05 -3.07248e-05 -1.43845e-15)
(6.68051e-05 -3.07527e-05 5.86296e-17)
(6.38077e-05 -3.08048e-05 -5.82323e-16)
(6.09933e-05 -3.08825e-05 -1.93824e-17)
(5.83514e-05 -3.09391e-05 9.4873e-16)
(5.58285e-05 -3.09834e-05 1.00442e-15)
(5.34436e-05 -3.09943e-05 1.86148e-16)
(5.11424e-05 -3.10057e-05 -2.23666e-16)
(4.89312e-05 -3.09946e-05 -8.72712e-17)
(4.67727e-05 -3.09892e-05 -4.91804e-16)
(4.46671e-05 -3.0955e-05 -2.50611e-17)
(4.25868e-05 -3.08744e-05 -5.10827e-16)
(4.05146e-05 -3.0738e-05 9.64275e-16)
(3.84173e-05 -3.05439e-05 4.67991e-16)
(3.6382e-05 -3.03647e-05 1.00917e-15)
(3.4376e-05 -3.01803e-05 -2.41014e-16)
(3.25003e-05 -3.00514e-05 3.02592e-16)
(3.06944e-05 -2.9929e-05 1.00362e-16)
(2.89288e-05 -2.98426e-05 1.61462e-16)
(2.71733e-05 -2.97799e-05 -2.57212e-15)
(2.54417e-05 -2.97265e-05 1.16271e-15)
(2.3768e-05 -2.97091e-05 5.65338e-16)
(2.21432e-05 -2.97321e-05 1.09708e-15)
(2.05934e-05 -2.97731e-05 -1.54323e-15)
(1.91273e-05 -2.98103e-05 -2.74627e-17)
(1.77114e-05 -2.97858e-05 -2.07351e-16)
(1.68224e-05 -3.03178e-05 -9.75371e-17)
(1.57792e-05 -3.011e-05 8.45504e-19)
(1.4723e-05 -3.00863e-05 -3.0704e-15)
(1.36379e-05 -2.98545e-05 -2.58278e-15)
(1.27029e-05 -3.01601e-05 2.59878e-16)
(1.15533e-05 -2.94143e-05 1.52566e-15)
(1.08755e-05 -3.06544e-05 -1.81549e-16)
(9.4928e-06 -2.80344e-05 7.56277e-16)
(9.73017e-06 -3.23907e-05 -1.6184e-15)
(7.46587e-06 -2.45546e-05 5.72357e-16)
(9.6966e-06 -3.75041e-05 6.99916e-17)
(0.00144967 -0.00096575 -4.87665e-17)
(-0.00201968 -0.00058655 -4.7407e-18)
(-0.00121601 -0.000650039 1.5569e-16)
(-0.000631786 -0.000620571 1.17038e-16)
(0.000698117 -0.000548631 -6.15819e-18)
(0.00229245 -0.000434407 -1.97667e-17)
(0.00357358 -0.000319506 7.63471e-18)
(0.00424239 -0.000238188 -1.06115e-17)
(0.0043057 -0.000189027 -8.32949e-17)
(0.00378637 -0.00017806 -1.79868e-16)
(0.002612 -0.000258651 1.86252e-16)
(0.000866491 -0.000361851 -4.40107e-17)
(-0.000461262 -0.000450828 -2.84309e-16)
(-0.000494138 -0.000448801 5.19987e-17)
(-0.000106599 -0.000319856 -2.05863e-17)
(-2.28158e-05 -0.000331794 3.56658e-16)
(-1.44763e-05 -0.000329918 1.2007e-16)
(-2.35843e-05 -0.000315537 -1.57348e-16)
(2.64254e-06 -0.000300934 -1.78608e-16)
(2.90341e-05 -0.000285232 -3.59688e-18)
(5.09621e-05 -0.00026911 -1.53115e-16)
(6.89062e-05 -0.000252566 2.30557e-16)
(8.39007e-05 -0.000234712 -1.11974e-17)
(9.58285e-05 -0.000216497 3.22178e-16)
(0.000105114 -0.000198278 -3.2869e-16)
(0.000111587 -0.000180715 -3.71685e-17)
(0.000115742 -0.000163601 7.95878e-17)
(0.000117726 -0.000147173 -1.22417e-16)
(0.000117956 -0.000131497 4.78363e-17)
(0.000116585 -0.000117105 -5.82079e-19)
(0.000114058 -0.0001039 4.06966e-17)
(0.000110573 -9.21352e-05 -2.35973e-18)
(0.000106483 -8.16699e-05 -6.53453e-17)
(0.000101958 -7.26736e-05 6.05814e-19)
(9.72545e-05 -6.49013e-05 -8.15876e-17)
(9.24933e-05 -5.84375e-05 2.90953e-16)
(8.78278e-05 -5.30463e-05 -2.51124e-16)
(8.33163e-05 -4.86806e-05 -3.98168e-18)
(7.9036e-05 -4.51309e-05 2.02384e-16)
(7.49899e-05 -4.23163e-05 7.65241e-16)
(7.12007e-05 -4.00701e-05 2.645e-16)
(6.76576e-05 -3.82934e-05 1.63888e-15)
(6.43643e-05 -3.68872e-05 -1.051e-16)
(6.12996e-05 -3.57538e-05 -2.21319e-16)
(5.84303e-05 -3.48449e-05 -1.3318e-16)
(5.57359e-05 -3.40802e-05 -1.75709e-16)
(5.31879e-05 -3.34628e-05 -1.31458e-15)
(5.07886e-05 -3.2929e-05 2.87004e-16)
(4.85005e-05 -3.24856e-05 -2.61625e-16)