/*--------------------------------*- C++ -*----------------------------------*\
| =========                 |                                                 |
| \\      /  F ield         | OpenFOAM: The Open Source CFD Toolbox           |
|  \\    /   O peration     | Version:  2506                                  |
|   \\  /    A nd           | Website:  www.openfoam.com                      |
|    \\/     M anipulation  |                                                 |
\*---------------------------------------------------------------------------*/
FoamFile
{
    version     2.0;
    format      ascii;
    arch        "LSB;label=32;scalar=64";
    class       volScalarField;
    location    "300";
    object      p;
}
// * * * * * * * * * * * * * * * * * * * * * * * * * * * * * * * * * * * * * //

dimensions      [0 2 -2 0 0 0 0];

internalField   nonuniform List<scalar> 
1340
(
-90.0814
-51.5762
-6.93587
26.0041
-89.7136
-51.2873
-6.63146
25.6948
-89.2881
-50.9671
-6.3819
25.8169
-88.8077
-50.668
-6.28257
26.0225
-88.2083
-50.3768
-6.32459
26.0858
-87.556
-50.1148
-6.53787
25.9709
-86.9257
-49.9453
-6.95977
25.6514
-86.2781
-49.8498
-7.5742
25.0758
-85.596
-49.766
-8.28651
24.2249
-84.8835
-49.6654
-9.03888
23.1485
-84.1492
-49.5437
-9.84058
21.9124
-83.4016
-49.4194
-10.7075
20.5428
-82.6401
-49.3136
-11.6402
19.0455
-81.8615
-49.2336
-12.6358
17.4351
-81.0643
-49.1747
-13.6917
15.7242
-80.2481
-49.1338
-14.8012
13.9189
-79.4127
-49.1085
-15.9562
12.0257
-78.5563
-49.0981
-17.1479
10.0556
-77.678
-49.1007
-18.3675
8.02065
-76.7759
-49.1134
-19.6063
5.93383
-75.8478
-49.1318
-20.8548
3.80948
-74.8916
-49.1515
-22.1029
1.66249
-73.9048
-49.1669
-23.3415
-0.493039
-72.8851
-49.1718
-24.5598
-2.64157
-71.8291
-49.1598
-25.7473
-4.76817
-70.7353
-49.123
-26.8936
-6.8576
-69.6002
-49.0548
-27.9898
-8.89461
-68.4221
-48.9486
-29.0248
-10.8654
-67.1985
-48.795
-29.9902
-12.7566
-65.9276
-48.589
-30.8763
-14.5557
-64.6086
-48.3235
-31.6757
-16.252
-63.2411
-47.9928
-32.3811
-17.8357
-61.8244
-47.5925
-32.9859
-19.2978
-72.7074
-60.3604
-47.118
-33.4848
-20.6317
-70.2573
-58.8499
-46.5677
-33.8744
-21.8314
-67.8001
-57.2957
-45.9401
-34.1515
-22.8932
-65.3419
-55.701
-45.2345
-34.3149
-23.8145
-62.8898
-54.0698
-44.4525
-34.3642
-24.5941
-60.4506
-52.4066
-43.5964
-34.3011
-25.2328
-58.0308
-50.7168
-42.6697
-34.128
-25.7322
-55.6369
-49.0059
-41.677
-33.8488
-26.0956
-53.2752
-47.2802
-40.6238
-33.4684
-26.3275
-50.9517
-45.5455
-39.5162
-32.993
-26.4334
-48.6716
-43.8085
-38.3611
-32.4294
-26.4198
-46.4399
-42.0753
-37.1656
-31.7851
-26.2939
-47.649
-44.2609
-40.352
-35.9368
-31.0683
-26.0639
-45.1604
-42.1384
-38.6444
-34.6825
-30.2872
-25.7382
-42.7669
-40.0755
-36.9579
-33.4098
-29.4504
-25.3258
-40.4686
-38.0747
-35.2975
-32.1257
-28.5663
-24.8355
-38.2648
-36.1381
-33.6675
-30.8368
-27.6433
-24.2765
-36.1544
-34.2669
-32.0718
-29.5494
-26.6893
-23.6579
-34.1358
-32.462
-30.5138
-28.2692
-25.712
-22.9882
-32.2069
-30.7237
-28.9963
-27.0013
-24.7185
-22.276
-30.3653
-29.0517
-27.5214
-25.7503
-23.7152
-21.529
-29.597
-28.6084
-27.4457
-26.0909
-24.5199
-22.7082
-20.7547
-27.8092
-26.9333
-25.9045
-24.7058
-23.3137
-21.7026
-19.96
-26.1128
-25.3369
-24.4269
-23.367
-22.1343
-20.7031
-19.151
-24.5033
-23.8161
-23.0114
-22.0746
-20.9839
-19.7139
-18.3333
-22.976
-22.3675
-21.6562
-20.8287
-19.8643
-18.7384
-17.512
-21.5265
-20.9878
-20.3594
-19.6287
-18.7765
-17.7793
-16.6914
-20.1504
-19.6738
-19.1187
-18.474
-17.7215
-16.8391
-15.8752
-19.2034
-18.8434
-18.4219
-17.932
-17.3635
-16.6996
-15.9196
-15.0667
-17.9203
-17.6015
-17.2291
-16.797
-16.2961
-15.711
-15.0222
-14.2686
-16.7023
-16.4203
-16.0917
-15.7112
-15.2704
-14.7553
-14.1479
-13.4829
-15.5452
-15.2963
-15.0069
-14.6723
-14.285
-13.8323
-13.2974
-12.7119
-14.4442
-14.2252
-13.971
-13.6774
-13.338
-12.9409
-12.4709
-11.9562
-13.3963
-13.2044
-12.9818
-12.725
-12.4282
-12.0809
-11.6691
-11.2182
-12.5527
-12.3795
-12.179
-11.9477
-11.6806
-11.368
-10.9974
-10.5918
-11.9895
-11.8514
-11.6912
-11.5058
-11.2921
-11.0456
-10.7576
-10.4159
-10.0421
-11.2641
-11.1367
-10.9905
-10.8209
-10.625
-10.3993
-10.1358
-9.82309
-9.48351
-10.5194
-10.4018
-10.2685
-10.1138
-9.9351
-9.72957
-9.48993
-9.20458
-8.89239
-9.77744
-9.67265
-9.55463
-9.41674
-9.25636
-9.07138
-8.85581
-8.60033
-8.32935
-8.98547
-8.88872
-8.7818
-8.65744
-8.51334
-8.3478
-8.15416
-7.91987
-7.65546
-8.28051
-8.20265
-8.11572
-8.0114
-7.88737
-7.74317
-7.57626
-7.38331
-7.19854
-7.34218
-7.26503
-7.18342
-7.08903
-6.97949
-6.85328
-6.7015
-6.50445
-6.24926
-6.89638
-6.85446
-6.8051
-6.73901
-6.65476
-6.55497
-6.44609
-6.34094
-6.30471
-5.37983
-5.3186
-5.25974
-5.195
-5.12116
-5.03351
-4.91237
-4.7162
-4.37688
-5.99357
-6.02063
-6.02317
-6.01913
-6.00227
-5.96904
-5.92729
-5.90602
-5.95698
-6.21551
-2.5165
-2.44906
-2.39063
-2.34848
-2.31002
-2.26842
-2.21519
-2.10529
-1.85744
-1.2902
-6.76874
-6.64989
-6.67113
-6.79725
-6.89018
-6.93484
-6.97796
-7.09425
-7.38988
-8.06764
106.942
106.206
105.256
104.02
102.289
99.8708
96.5476
92.1393
86.6732
80.5024
74.1456
67.9768
62.1148
56.5385
51.2083
46.1079
41.2371
36.5978
32.1881
28.0014
24.0282
20.2594
16.6859
13.2993
10.0918
7.05631
4.18568
1.47321
-1.0856
-3.49432
-5.75481
-7.86764
-9.83333
-11.6511
-13.3202
-14.8402
-16.2104
-17.4312
-18.5033
-19.4282
-20.2082
-20.8468
-21.3481
-21.7171
-21.9599
-22.0834
-22.0946
-22.0017
-21.8129
-21.5368
-21.1822
-20.7578
-20.2722
-19.7338
-19.1506
-18.5301
-17.8795
-17.2052
-16.5132
-15.809
-15.0972
-14.3821
-13.6673
-12.9559
-12.2508
-11.5537
-10.8681
-10.2814
-9.75814
-9.23004
-8.65776
-8.13494
-7.45427
-7.07927
-6.04686
-6.30351
-4.11325
-6.40535
-0.929309
-8.54292
47.0067
46.4911
46.0046
45.555
45.1161
44.7269
44.4152
44.1528
43.8445
43.3604
42.6173
41.6099
40.3447
38.8204
37.0545
35.0794
32.9299
30.6378
28.2325
25.7422
23.193
20.61
18.0153
15.4288
12.8684
10.3493
7.88679
5.49399
3.18256
0.961415
-1.16214
-3.18187
-5.09322
-6.89173
-8.57361
-10.1359
-11.5757
-12.8912
-14.0806
-15.143
-16.0782
-16.8869
-17.5707
-18.1316
-18.573
-18.8992
-19.1149
-19.2257
-19.2378
-19.1581
-18.9936
-18.7519
-18.4404
-18.0667
-17.6384
-17.1627
-16.6465
-16.0965
-15.5188
-14.9192
-14.3029
-13.6744
-13.0383
-12.3979
-11.7569
-11.1175
-10.4833
-9.93722
-9.44755
-8.95401
-8.41145
-7.92199
-7.2655
-6.92234
-5.91397
-6.18477
-4.05683
-6.27533
-1.02573
29.2682
28.9723
28.6476
28.3138
27.9342
27.4878
26.9712
26.384
25.7277
25.0074
24.2367
23.4475
22.6684
21.8987
21.1228
20.3203
19.4729
18.5665
17.5899
16.535
15.3973
14.1756
12.8721
11.4922
10.0441
8.53807
6.98551
5.39837
3.78997
2.17385
0.563514
-1.02752
-2.58697
-4.10308
-5.56499
-6.96314
-8.28889
-9.53469
-10.694
-11.7612
-12.732
-13.6032
-14.3723
-15.0381
-15.6004
-16.0601
-16.4191
-16.68
-16.8464
-16.9228
-16.9143
-16.8263
-16.6648
-16.4361
-16.1467
-15.803
-15.4114
-14.9782
-14.5093
-14.0105
-13.4872
-12.9441
-12.386
-11.8167
-11.2403
-10.6595
-10.0779
-9.57389
-9.11919
-8.66063
-8.15043
-7.69264
-7.06851
-6.74555
-5.78668
-6.03276
-4.03171
-6.08659
27.8535
27.664
27.4577
27.2429
27.0058
26.728
26.3916
25.9784
25.4669
24.8366
24.0771
23.2029
22.2562
21.272
20.2631
19.233
18.1845
17.1208
16.0447
14.9567
13.8562
12.7411
11.6092
10.4582
9.28619
8.09185
6.8749
5.63581
4.37695
3.10176
1.81522
0.523823
-0.765247
-2.04382
-3.30305
-4.53402
-5.72774
-6.87553
-7.96911
-9.00082
-9.96389
-10.8525
-11.6617
-12.3873
-13.0267
-13.578
-14.0403
-14.4139
-14.7001
-14.9011
-15.0197
-15.0597
-15.0254
-14.9216
-14.7535
-14.5268
-14.2468
-13.9194
-13.5502
-13.1445
-12.7077
-12.2446
-11.7601
-11.2584
-10.7436
-10.2189
-9.68804
-9.22439
-8.80248
-8.37643
-7.8966
-7.46881
-6.87447
-6.57356
-5.65449
-5.89407
-3.97951
23.6049
23.3992
23.1887
22.9868
22.7859
22.5796
22.3594
22.1173
21.8452
21.5317
21.1618
20.7204
20.204
19.6225
18.9835
18.2891
17.5403
16.7383
15.8856
14.9857
14.0426
13.0604
12.0432
10.9953
9.92105
8.82425
7.70877
6.57805
5.43569
4.285
3.12939
1.97278
0.819103
-0.327141
-1.46084
-2.57654
-3.66826
-4.72977
-5.75452
-6.73602
-7.66799
-8.54448
-9.35992
-10.1093
-10.7886
-11.3943
-11.9239
-12.3759
-12.7496
-13.0452
-13.2639
-13.4076
-13.4789
-13.4812
-13.4184
-13.2948
-13.1151
-12.884
-12.6067
-12.288
-11.9329
-11.5463
-11.1328
-10.6966
-10.2421
-9.77275
-9.29215
-8.86854
-8.47925
-8.08557
-7.63618
-7.23873
-6.67341
-6.39743
-5.51221
-5.75842
18.9557
18.7776
18.5921
18.4128
18.2325
18.0485
17.8581
17.6555
17.4347
17.1905
16.917
16.6063
16.2518
15.8546
15.4216
14.9569
14.461
13.9336
13.3722
12.7741
12.1381
11.463
10.7482
9.99407
9.20144
8.37204
7.50836
6.61341
5.69089
4.74486
3.77965
2.80009
1.81096
0.817278
-0.175708
-1.16273
-2.13834
-3.09702
-4.03303
-4.94071
-5.81434
-6.64838
-7.4374
-8.17626
-8.86035
-9.48549
-10.0481
-10.5454
-10.9753
-11.3365
-11.6286
-11.8519
-12.0074
-12.0971
-12.1233
-12.0891
-11.998
-11.8538
-11.6608
-11.4232
-11.1455
-10.8321
-10.4873
-10.1154
-9.72057
-9.30648
-8.87651
-8.49352
-8.13778
-7.77748
-7.35994
-6.99386
-6.45923
-6.20893
15.8235
15.6768
15.5211
15.368
15.212
15.052
14.8885
14.7187
14.5375
14.3397
14.1204
13.8738
13.5931
13.2736
12.9176
12.5317
12.1205
11.6862
11.2305
10.7527
10.2515
9.72603
9.17545
8.5989
7.99562
7.36506
6.70696
6.02144
5.30917
4.57128
3.80948
3.0262
2.2243
1.40725
0.579067
-0.255869
-1.09276
-1.9266
-2.75207
-3.56375
-4.35619
-5.12394
-5.86163
-6.56397
-7.22609
-7.84337
-8.41157
-8.92706
-9.38672
-9.78813
-10.1296
-10.4101
-10.6293
-10.7877
-10.8863
-10.927
-10.912
-10.8441
-10.7265
-10.5628
-10.3566
-10.1118
-9.83245
-9.52234
-9.18548
-8.82565
-8.44589
-8.10358
-7.78173
-7.45517
-7.0703
-6.73598
13.6194
13.4954
13.362
13.2288
13.0924
12.9522
12.8096
12.6646
12.515
12.3569
12.1863
11.9991
11.7904
11.5539
11.2852
10.9846
10.6564
10.3041
9.92941
9.53418
9.11844
8.68124
8.22212
7.74106
7.23803
6.71308
6.16628
5.59786
5.00822
4.39788
3.76759
3.11848
2.45188
1.76952
1.07366
0.366905
-0.347637
-1.06646
-1.78561
-2.50079
-3.20748
-3.90095
-4.57634
-5.22869
-5.85323
-6.44528
-7.0004
-7.5145
-7.98388
-8.4054
-8.77642
-9.09492
-9.35955
-9.56955
-9.72489
-9.82613
-9.87446
-9.87159
-9.81973
-9.72148
-9.57985
-9.39801
-9.17941
-8.92751
-8.6459
-8.33832
-8.00738
-7.70501
-7.41663
11.8047
11.6995
11.5858
11.4709
11.3517
11.2279
11.1014
10.973
10.8425
10.7085
10.5681
10.4181
10.2552
10.0755
9.87425
9.64719
9.39392
9.11729
8.81975
8.50282
8.16802
7.81532
7.44351
7.05178
6.63982
6.20748
5.75469
5.28154
4.78836
4.2756
3.74395
3.19436
2.6279
2.04591
1.45006
0.842218
0.224586
-0.400314
-1.02963
-1.66017
-2.28849
-2.91084
-3.52325
-4.12152
-4.70142
-5.25865
-5.789
-6.2884
-6.75297
-7.17923
-7.56407
-7.90476
-8.19923
-8.44583
-8.64361
-8.79214
-8.8916
-8.94275
-8.94682
-8.90556
-8.82114
-8.69604
-8.53306
-8.33519
-8.10553
-7.84765
10.2888
10.1994
10.1032
10.0055
9.903
9.79459
9.68233
9.56764
9.45099
9.33231
9.21069
9.0839
8.94922
8.80405
8.64521
8.46859
8.27052
8.05018
7.80969
7.5512
7.27618
6.98622
6.68155
6.36106
6.02383
5.66942
5.29754
4.90795
4.50051
4.07523
3.6323
3.17218
2.69546
2.20299
1.69593
1.17565
0.643811
0.102346
-0.446518
-1.00028
-1.55617
-2.11119
-2.66208
-3.20535
-3.73737
-4.25441
-4.75262
-5.22824
-5.67751
-6.09692
-6.48317
-6.83321
-7.1445
-7.4148
-7.64245
-7.82627
-7.96561
-8.06035
-8.11091
-8.11819
-8.08358
-8.00881
9.04629
8.96992
8.88779
8.80436
8.71702
8.62383
8.5255
8.42355
8.31903
8.21246
8.104
7.99304
7.87791
7.75635
7.62615
7.48461
7.32816
7.15342
6.95922
6.747
6.5187
6.27575
6.01969
5.75108
5.46903
5.17269
4.86163
4.53564
4.19455
3.83821
3.46654
3.07968
2.67784
2.26139
1.83098
1.38741
0.931741
0.465285
-0.0103523
-0.493318
-0.981496
-1.47252
-1.96375
-2.45231
-2.93515
-3.40903
-3.8706
-4.31643
-4.74306
-5.14711
-5.52532
-5.87457
-6.19203
-6.47516
-6.72182
-6.93027
-7.09923
8.01442
7.94887
7.87841
7.80659
7.73142
7.65164
7.56722
7.47819
7.38526
7.28956
7.19184
7.09235
6.99075
6.88581
6.77571
6.65851
6.53192
6.39288
6.23824
6.06653
5.87863
5.67619
5.46054
5.23311
4.99467
4.74457
4.4819
4.20624
3.91744
3.61536
3.2999
2.97107
2.6289
2.2736
1.90552
1.52515
1.13315
0.730387
0.317953
-0.102844
-0.530472
-0.963161
-1.39888
-1.83534
-2.27007
-2.70039
-3.12342
-3.53619
-3.93559
-4.31851
7.13952
7.08303
7.02235
6.96041
6.89547
6.82647
6.75375
6.6773
6.59653
6.51166
6.42381
6.33389
6.24228
6.14884
6.05273
5.95244
5.84629
5.73236
5.60801
5.47036
5.31773
5.15052
4.97011
4.77774
4.57476
4.36211
4.13931
3.90547
3.66012
3.4031
3.1343
2.85365
2.56109
2.25668
1.94059
1.61311
1.27468
0.925861
)
;

boundaryField
{
    inlet
    {
        type            freestreamPressure;
        freestreamValue uniform 0;
        value           nonuniform List<scalar> 
11
(
-3.17604
-2.91995
-2.9309
-2.9879
-3.03027
-3.05136
-3.07178
-3.12447
-3.25647
-3.41645
-3.76755
)
;
    }
    outlet
    {
        type            freestreamPressure;
        freestreamValue nonuniform List<scalar> 0();
        value           nonuniform List<scalar> 0();
    }
    walls
    {
        type            zeroGradient;
    }
    frontAndBack
    {
        type            empty;
    }
    procBoundary6to2
    {
        type            processor;
        value           nonuniform List<scalar> 
13
(
106.583
47.3283
29.4238
27.9832
23.7527
19.0784
15.9292
13.7127
11.8855
10.3587
9.1072
8.06756
7.18587
)
;
    }
    procBoundary6to3
    {
        type            processor;
        value           uniform 6.38877;
    }
    procBoundary6to5
    {
        type            processor;
        value           nonuniform List<scalar> 
86
(
-127.696
-127.231
-126.673
-125.92
-124.899
-123.797
-122.68
-121.522
-120.322
-119.064
-117.749
-116.381
-114.959
-113.483
-111.951
-110.362
-108.717
-107.015
-105.255
-103.438
-101.563
-99.6325
-97.6455
-95.6037
-93.5089
-91.3616
-89.1662
-86.9235
-84.6376
-82.3125
-79.9518
-77.5605
-75.1438
-75.1438
-83.846
-80.5093
-77.2043
-73.9405
-70.7269
-67.5718
-64.4828
-61.4665
-58.5288
-55.6746
-52.908
-50.232
-50.232
-50.5212
-47.7204
-45.0459
-42.4953
-40.0655
-37.7532
-35.5544
-33.465
-31.4807
-31.4807
-30.4257
-28.5454
-26.7667
-25.0839
-23.4916
-21.9841
-20.5564
-20.5564
-19.5062
-18.1894
-16.9409
-15.7563
-14.6304
-13.5599
-12.7008
-12.7008
-12.1071
-11.3743
-10.6228
-9.87071
-9.07371
-8.35091
-7.41645
-6.93115
-5.44595
-5.44595
-5.9028
-2.55637
-6.35717
)
;
    }
    procBoundary6to7
    {
        type            processor;
        value           nonuniform List<scalar> 
91
(
-8.35621
-8.35621
-1.17363
-1.17363
-5.94387
-5.94387
-3.90598
-5.35969
-3.90598
-5.6122
-6.23356
-5.35969
-6.00868
-7.12341
-6.77127
-6.23356
-6.4685
-7.56363
-7.29996
-7.12341
-7.04431
-7.89602
-7.74766
-7.56626
-7.56363
-7.35514
-7.22789
-7.31594
-7.36353
-7.37131
-7.89602
-7.34033
-4.68188
-5.02264
-5.33792
-5.62503
-5.88159
-6.10548
-7.22789
-6.29496
0.567423
0.200301
-0.174385
-0.555322
-0.940963
-1.32953
-1.71907
-2.10742
-2.49218
-2.87084
-3.24072
-4.68188
-3.59905
6.33994
6.28752
6.23394
6.1778
6.11808
6.05493
5.98866
5.91916
5.84575
5.76821
5.68741
5.60441
5.51975
5.43347
5.34501
5.25317
5.15644
5.05324
4.94132
4.81804
4.68156
4.53186
4.3701
4.19745
4.01519
3.82436
3.6247
3.41537
3.19585
2.96596
2.72565
2.47483
2.21342
1.9415
1.65917
1.36667
0.567423
1.06438
)
;
    }
}


// ************************************************************************* //
