/*--------------------------------*- C++ -*----------------------------------*\
| =========                 |                                                 |
| \\      /  F ield         | OpenFOAM: The Open Source CFD Toolbox           |
|  \\    /   O peration     | Version:  2506                                  |
|   \\  /    A nd           | Website:  www.openfoam.com                      |
|    \\/     M anipulation  |                                                 |
\*---------------------------------------------------------------------------*/
FoamFile
{
    version     2.0;
    format      ascii;
    arch        "LSB;label=32;scalar=64";
    class       volScalarField;
    location    "450";
    object      turbulenceProperties:k;
}
// * * * * * * * * * * * * * * * * * * * * * * * * * * * * * * * * * * * * * //

dimensions      [0 2 -2 0 0 0 0];

internalField   nonuniform List<scalar> 
1340
(
0.00288488
0.00301492
0.00406984
0.00603132
0.0090331
0.0133979
0.0196371
0.0284189
0.0408173
0.0586627
0.0853447
0.12707
0.195059
0.311628
0.517849
0.91126
1.66856
3.31962
6.78862
15.1733
31.2658
44.3054
49.9011
51.4883
51.748
51.4499
50.7221
49.6017
0.00215683
0.00189734
0.00165748
0.00141947
0.001193
0.000996944
0.000831307
0.000690806
0.000571731
0.000471398
0.00038628
0.000314249
0.000251124
0.000193457
0.000136416
8.06513e-05
2.79568e-05
4.55978e-06
1.16256e-05
0.00159576
0.00854132
0.0688312
0.231451
0.451777
0.673434
0.867776
1.03115
1.1749
1.30944
0.00172483
0.00155016
0.00138783
0.00122084
0.00104116
0.00086717
0.000711458
0.000577374
0.000466676
0.000377302
0.000307653
0.000254829
0.00021641
0.000188813
0.0001698
0.000157462
0.000150685
0.000146971
0.000146801
0.00014586
0.000155152
9.22758e-05
0.000635768
0.00417638
0.0118343
0.0247096
0.0551206
0.115004
0.203564
0.0014561
0.0013525
0.00124228
0.00112751
0.00100294
0.000874201
0.000753504
0.000646868
0.000554966
0.000477315
0.000412218
0.000358662
0.000315044
0.000280036
0.000251537
0.000228379
0.000208929
0.000191498
0.000173166
0.000154333
0.000138679
0.000126853
0.000118356
0.000108053
9.47723e-05
7.11862e-05
4.49345e-05
0.000344179
0.000593893
0.00214568
0.00115751
0.00108656
0.00101038
0.000929161
0.000840005
0.000747257
0.000656502
0.00057127
0.000493042
0.00042287
0.000361198
0.000308178
0.000263574
0.000226869
0.000196944
0.000172786
0.000153088
0.000136452
0.000120584
0.00010446
8.95691e-05
7.77461e-05
6.95793e-05
6.59977e-05
6.09869e-05
7.45235e-05
1.75993e-05
0.000114604
0.00054016
0.000150509
0.000979211
0.000935344
0.000884859
0.000830688
0.000771786
0.00070667
0.000638476
0.0005706
0.000505647
0.000445129
0.000390098
0.000341241
0.000298773
0.000262571
0.000232215
0.000206924
0.000185814
0.000167764
0.000151532
0.000135381
0.00011861
0.000102643
8.87155e-05
7.70601e-05
6.72853e-05
5.9158e-05
5.21831e-05
4.58228e-05
3.64806e-05
2.5893e-05
1.44371e-05
0.000799132
0.00076669
0.000730234
0.000690496
0.000646735
0.000598749
0.000548313
0.00049733
0.000447348
0.000399431
0.000354475
0.000313196
0.000275994
0.000243108
0.000214539
0.00018995
0.000168866
0.000150585
0.000134203
0.00011846
0.000102697
8.77605e-05
7.46306e-05
6.358e-05
5.43808e-05
4.69128e-05
4.13291e-05
3.77135e-05
3.56614e-05
3.2845e-05
2.36913e-05
0.000660849
0.000636084
0.00060903
0.000579207
0.000546184
0.00051036
0.000472538
0.000433905
0.000395415
0.000357788
0.000321758
0.000288024
0.000257012
0.000229093
0.000204406
0.000182808
0.000163953
0.00014731
0.000132156
0.000117541
0.000102967
8.90608e-05
7.65858e-05
6.57558e-05
5.63438e-05
4.81403e-05
4.1087e-05
3.50488e-05
2.98791e-05
2.54323e-05
2.22145e-05
0.000568089
0.000552261
0.000533152
0.000512555
0.00048974
0.000464513
0.000437392
0.000408759
0.000379289
0.000349554
0.000319994
0.000291123
0.000263468
0.000237444
0.000213395
0.000191537
0.000171903
0.000154343
0.000138523
0.000123936
0.000109945
9.62016e-05
8.31056e-05
7.12881e-05
6.09876e-05
5.20715e-05
4.43867e-05
3.78995e-05
3.26528e-05
2.86528e-05
2.58667e-05
2.42617e-05
0.000465645
0.000450732
0.000434684
0.000416919
0.00039746
0.000376681
0.000354774
0.000332141
0.00030908
0.000285824
0.00026275
0.000240246
0.00021863
0.00019825
0.000179324
0.000161966
0.00014614
0.000131642
0.000118127
0.000105171
9.251e-05
8.04352e-05
6.94419e-05
5.97433e-05
5.12431e-05
4.3802e-05
3.7367e-05
3.19109e-05
2.73573e-05
2.37791e-05
2.11633e-05
0.000383814
0.00037109
0.000357054
0.000341889
0.000325814
0.000308887
0.000291364
0.000273405
0.000255113
0.000236697
0.00021843
0.000200548
0.00018332
0.000166979
0.00015166
0.000137384
0.000124063
0.000111489
9.93931e-05
8.76204e-05
7.63917e-05
6.609e-05
5.69209e-05
4.88433e-05
4.17657e-05
3.56597e-05
3.05342e-05
2.63869e-05
2.32759e-05
2.11488e-05
0.000318613
0.000307398
0.000295457
0.000282879
0.000269692
0.000256043
0.000241995
0.000227554
0.000212862
0.000198081
0.000183352
0.000168895
0.00015489
0.000141497
0.000128787
0.000116734
0.000105209
9.40577e-05
8.32275e-05
7.28823e-05
6.33244e-05
5.47385e-05
4.71169e-05
4.03949e-05
3.45445e-05
2.95713e-05
2.54511e-05
2.22414e-05
1.99635e-05
0.000265865
0.000256368
0.000246445
0.000236086
0.00022537
0.00021432
0.000202906
0.000191169
0.000179211
0.00016712
0.000155046
0.000143128
0.000131501
0.000120252
0.000109396
9.8883e-05
8.86492e-05
7.86943e-05
6.91651e-05
6.02972e-05
5.22599e-05
4.50737e-05
3.87018e-05
3.31321e-05
2.83839e-05
2.44575e-05
2.14107e-05
1.92663e-05
0.000223247
0.000215343
0.000207136
0.000198677
0.000189946
0.000180883
0.000171506
0.000161844
0.000151935
0.000141887
0.000131799
0.000121776
0.000111892
0.000102197
9.26872e-05
8.33675e-05
7.42758e-05
6.55385e-05
5.73542e-05
4.98709e-05
4.31275e-05
3.7111e-05
3.18187e-05
2.72746e-05
2.34788e-05
2.04882e-05
1.83359e-05
0.000188671
0.000182123
0.000175393
0.000168453
0.000161236
0.000153721
0.000145915
0.000137817
0.000129479
0.000120971
0.000112369
0.000103748
9.51611e-05
8.6626e-05
7.81745e-05
6.98903e-05
6.19031e-05
5.43716e-05
4.74249e-05
4.1115e-05
3.54481e-05
3.04323e-05
2.60989e-05
2.24574e-05
1.95682e-05
1.74633e-05
0.00016569
0.000160423
0.000155041
0.000149499
0.000143723
0.000137689
0.000131368
0.000124748
0.000117846
0.000110699
0.000103359
9.58806e-05
8.83172e-05
8.07016e-05
7.30954e-05
6.55932e-05
5.83217e-05
5.14154e-05
4.49912e-05
3.91086e-05
3.37882e-05
2.90471e-05
2.49215e-05
2.14256e-05
1.86199e-05
1.65394e-05
0.000141552
0.000137212
0.000132756
0.000128117
0.000123253
0.000118133
0.000112719
0.000107016
0.00010103
9.47929e-05
8.83428e-05
8.1719e-05
7.49629e-05
6.81492e-05
6.13857e-05
5.47867e-05
4.84761e-05
4.25563e-05
3.70898e-05
3.21093e-05
2.76396e-05
2.37201e-05
2.03718e-05
1.76559e-05
1.56088e-05
0.000125085
0.000121566
0.000117964
0.000114215
0.000110281
0.00010612
0.00010169
9.6978e-05
9.19756e-05
8.66914e-05
8.11524e-05
7.53904e-05
6.94386e-05
6.33645e-05
5.72819e-05
5.1317e-05
4.55728e-05
4.01379e-05
3.50761e-05
3.04281e-05
2.6225e-05
2.25085e-05
1.93055e-05
1.66764e-05
1.46592e-05
0.00010781
0.000104879
0.000101834
9.86364e-05
9.52456e-05
9.16147e-05
8.772e-05
8.35445e-05
7.90851e-05
7.43459e-05
6.93478e-05
6.41213e-05
5.87378e-05
5.33038e-05
4.79329e-05
4.27202e-05
3.7746e-05
3.30732e-05
2.87473e-05
2.48045e-05
2.12872e-05
1.8228e-05
1.56856e-05
1.37e-05
9.56944e-05
9.32936e-05
9.08074e-05
8.81971e-05
8.54224e-05
8.24401e-05
7.92201e-05
7.57353e-05
7.1974e-05
6.79343e-05
6.36217e-05
5.9055e-05
5.4301e-05
4.94622e-05
4.46415e-05
3.99268e-05
3.53897e-05
3.10904e-05
2.70763e-05
2.33869e-05
2.00646e-05
1.7147e-05
1.46897e-05
1.27356e-05
8.50073e-05
8.30287e-05
8.09857e-05
7.88445e-05
7.65651e-05
7.41066e-05
7.14399e-05
6.85339e-05
6.53672e-05
6.19269e-05
5.82159e-05
5.42449e-05
5.00652e-05
4.57677e-05
4.14547e-05
3.72054e-05
3.30811e-05
2.91376e-05
2.54229e-05
2.19783e-05
1.88458e-05
1.60667e-05
1.36929e-05
1.17712e-05
7.39292e-05
7.22382e-05
7.04697e-05
6.85898e-05
6.65575e-05
6.43428e-05
6.19152e-05
5.92499e-05
5.63289e-05
5.31426e-05
4.96959e-05
4.60317e-05
4.22327e-05
3.83886e-05
3.45696e-05
3.08311e-05
2.72237e-05
2.37946e-05
2.05855e-05
1.76377e-05
1.49934e-05
1.27016e-05
1.08126e-05
6.58529e-05
6.44457e-05
6.29787e-05
6.1418e-05
5.97303e-05
5.78872e-05
5.58562e-05
5.36112e-05
5.11318e-05
4.84024e-05
4.54196e-05
4.2218e-05
3.88683e-05
3.54522e-05
3.2028e-05
2.86482e-05
2.53574e-05
2.22003e-05
1.92173e-05
1.64479e-05
1.39345e-05
1.17231e-05
9.86696e-06
5.75048e-05
5.62772e-05
5.49756e-05
5.35686e-05
5.20291e-05
5.03265e-05
4.84349e-05
4.63314e-05
4.39962e-05
4.142e-05
3.8628e-05
3.56808e-05
3.26496e-05
2.95902e-05
2.65425e-05
2.35481e-05
2.06484e-05
1.78812e-05
1.52836e-05
1.28976e-05
1.07651e-05
8.94181e-06
5.13197e-05
5.0288e-05
4.91952e-05
4.80156e-05
4.67246e-05
4.52943e-05
4.3697e-05
4.19106e-05
3.99132e-05
3.76918e-05
3.52624e-05
3.26767e-05
2.99937e-05
2.7265e-05
2.4523e-05
2.18048e-05
1.91468e-05
1.65846e-05
1.41525e-05
1.18901e-05
9.8355e-06
8.04449e-06
4.58088e-05
4.49351e-05
4.40134e-05
4.30198e-05
4.19317e-05
4.07258e-05
3.93757e-05
3.78576e-05
3.61483e-05
3.42321e-05
3.21199e-05
2.98537e-05
2.74858e-05
2.50563e-05
2.25952e-05
2.01331e-05
1.77019e-05
1.53346e-05
1.30616e-05
1.09188e-05
8.94132e-06
7.18302e-06
4.01535e-05
3.93706e-05
3.85291e-05
3.76099e-05
3.6589e-05
3.54437e-05
3.41518e-05
3.26894e-05
3.10375e-05
2.92036e-05
2.722e-05
2.5132e-05
2.2973e-05
2.07676e-05
1.85413e-05
1.63224e-05
1.4139e-05
1.20183e-05
9.99228e-06
8.09145e-06
6.36601e-06
3.58843e-05
3.52153e-05
3.44988e-05
3.37171e-05
3.285e-05
3.18762e-05
3.07739e-05
2.95209e-05
2.8097e-05
2.65047e-05
2.47704e-05
2.29313e-05
2.10153e-05
1.90426e-05
1.70337e-05
1.50127e-05
1.30034e-05
1.10291e-05
9.11771e-06
7.29413e-06
5.60252e-06
3.20728e-05
3.1498e-05
3.08844e-05
3.02169e-05
2.94775e-05
2.86469e-05
2.77051e-05
2.66297e-05
2.54012e-05
2.40186e-05
2.25021e-05
2.08843e-05
1.91864e-05
1.74247e-05
1.56156e-05
1.37785e-05
1.19338e-05
1.01002e-05
8.30162e-06
6.55685e-06
4.90178e-06
2.8174e-05
2.7646e-05
2.70739e-05
2.64411e-05
2.57301e-05
2.4923e-05
2.39986e-05
2.29375e-05
2.17368e-05
2.04123e-05
1.89895e-05
1.74868e-05
1.59157e-05
1.42894e-05
1.26232e-05
1.09339e-05
9.23637e-06
7.54963e-06
5.88734e-06
4.27417e-06
2.52046e-05
2.47477e-05
2.42546e-05
2.37108e-05
2.31004e-05
2.24071e-05
2.16115e-05
2.06941e-05
1.96503e-05
1.84934e-05
1.72432e-05
1.59148e-05
1.4516e-05
1.3057e-05
1.15497e-05
1.00072e-05
8.44164e-06
6.86699e-06
5.29228e-06
3.73012e-06
2.21555e-05
2.17291e-05
2.12598e-05
2.07345e-05
2.01378e-05
1.94514e-05
1.86573e-05
1.77499e-05
1.67388e-05
1.56413e-05
1.44679e-05
1.32246e-05
1.19186e-05
1.05591e-05
9.1559e-06
7.71812e-06
6.25652e-06
4.77628e-06
3.27943e-06
1.98389e-05
1.94686e-05
1.90625e-05
1.86088e-05
1.80935e-05
1.75006e-05
1.68128e-05
1.60237e-05
1.51407e-05
1.41773e-05
1.31422e-05
1.20393e-05
1.08735e-05
9.65117e-06
8.37995e-06
7.0667e-06
5.71966e-06
4.34229e-06
2.93e-06
1.77695e-05
1.74468e-05
1.70946e-05
1.6702e-05
1.62569e-05
1.57438e-05
1.5147e-05
1.44601e-05
1.3689e-05
1.28446e-05
1.19332e-05
1.0957e-05
9.91922e-06
8.82426e-06
7.67826e-06
6.48645e-06
5.2555e-06
3.98936e-06
2.68397e-06
1.56405e-05
1.53343e-05
1.49937e-05
1.46081e-05
1.41637e-05
1.36462e-05
1.30486e-05
1.23753e-05
1.16358e-05
1.08346e-05
9.97268e-06
9.05203e-06
8.07587e-06
7.04843e-06
5.97464e-06
4.86073e-06
3.71289e-06
2.53483e-06
1.40275e-05
1.37605e-05
1.34649e-05
1.31308e-05
1.27455e-05
1.22963e-05
1.17765e-05
1.11894e-05
1.05427e-05
9.83996e-06
9.08123e-06
8.26777e-06
7.40156e-06
6.48625e-06
5.52643e-06
4.5291e-06
3.50387e-06
2.46605e-06
1.25875e-05
1.23549e-05
1.20981e-05
1.1808e-05
1.14742e-05
1.10845e-05
1.06325e-05
1.01214e-05
9.55689e-06
8.94199e-06
8.27644e-06
7.56074e-06
6.79628e-06
5.98653e-06
5.13591e-06
4.25273e-06
3.35045e-06
2.45503e-06
1.11001e-05
1.08766e-05
1.06252e-05
1.0336e-05
9.99802e-06
9.60555e-06
9.1609e-06
8.66948e-06
8.13326e-06
7.55171e-06
6.92497e-06
6.25448e-06
5.54311e-06
4.79596e-06
4.02235e-06
3.23886e-06
2.47839e-06
9.97996e-06
9.7859e-06
9.56802e-06
9.31756e-06
9.02475e-06
8.68464e-06
8.29888e-06
7.87209e-06
7.40597e-06
6.89991e-06
6.35398e-06
5.7695e-06
5.14923e-06
4.49869e-06
3.82806e-06
3.15552e-06
8.98034e-06
8.81185e-06
8.62324e-06
8.40674e-06
8.1537e-06
7.8594e-06
7.52555e-06
7.15605e-06
6.75243e-06
6.31413e-06
5.8412e-06
5.33487e-06
4.7981e-06
4.23648e-06
3.66046e-06
3.0885e-06
7.94219e-06
7.77916e-06
7.59228e-06
7.37396e-06
7.11999e-06
6.83188e-06
6.51323e-06
6.16518e-06
5.78737e-06
5.37993e-06
4.94415e-06
4.48295e-06
4.00193e-06
3.51119e-06
3.02819e-06
7.16536e-06
7.02465e-06
6.86378e-06
6.67602e-06
6.45752e-06
6.2097e-06
5.93585e-06
5.637e-06
5.31296e-06
4.96395e-06
4.59127e-06
4.19773e-06
3.78866e-06
3.37344e-06
2.9676e-06
6.47091e-06
6.35004e-06
6.21203e-06
6.05087e-06
5.86342e-06
5.65108e-06
5.41672e-06
5.16136e-06
4.88482e-06
4.5875e-06
4.27066e-06
3.93698e-06
3.5913e-06
3.24193e-06
2.90211e-06
5.74635e-06
5.62809e-06
5.49035e-06
5.33025e-06
5.14898e-06
4.94924e-06
4.73198e-06
4.49717e-06
4.24526e-06
3.97745e-06
3.69615e-06
3.40564e-06
3.113e-06
2.82913e-06
5.20542e-06
5.10471e-06
4.98739e-06
4.85109e-06
4.69697e-06
4.52745e-06
4.34347e-06
4.14511e-06
3.93278e-06
3.70758e-06
3.47166e-06
3.22866e-06
2.98438e-06
2.74756e-06
4.72041e-06
4.63482e-06
4.53524e-06
4.4197e-06
4.28927e-06
4.14608e-06
3.99102e-06
3.82421e-06
3.6461e-06
3.45764e-06
3.26067e-06
3.05819e-06
2.85486e-06
2.65743e-06
4.21246e-06
4.12837e-06
4.0308e-06
3.92088e-06
3.80046e-06
3.67035e-06
3.53072e-06
3.38198e-06
3.22497e-06
3.06115e-06
2.89298e-06
2.72408e-06
2.55957e-06
3.83229e-06
3.76155e-06
3.67957e-06
3.58733e-06
3.48652e-06
3.37782e-06
3.26144e-06
3.13775e-06
3.00742e-06
2.87164e-06
2.73234e-06
2.59223e-06
2.45517e-06
3.48956e-06
3.43036e-06
3.3618e-06
3.28474e-06
3.20066e-06
3.11025e-06
3.01363e-06
2.91113e-06
2.80332e-06
2.6911e-06
2.57593e-06
2.45986e-06
2.34563e-06
3.18014e-06
3.13078e-06
3.07367e-06
3.00957e-06
2.93978e-06
2.86484e-06
2.7849e-06
2.70025e-06
2.6113e-06
2.51876e-06
2.42369e-06
2.32758e-06
2.23238e-06
2.85925e-06
2.8119e-06
2.75876e-06
2.70098e-06
2.63905e-06
2.57312e-06
2.50337e-06
2.43014e-06
2.35395e-06
2.27556e-06
2.19601e-06
2.11665e-06
2.61251e-06
2.57331e-06
2.52937e-06
2.48166e-06
2.43061e-06
2.37632e-06
2.31893e-06
2.25873e-06
2.19607e-06
2.13147e-06
2.06563e-06
1.99948e-06
2.38749e-06
2.3551e-06
2.31878e-06
2.27941e-06
2.23734e-06
2.19266e-06
2.14549e-06
2.09602e-06
2.0445e-06
1.99127e-06
1.9368e-06
2.18147e-06
2.15462e-06
2.12455e-06
2.09203e-06
2.05733e-06
2.02053e-06
1.98175e-06
1.94109e-06
1.89872e-06
1.85486e-06
1.8098e-06
1.96961e-06
1.94465e-06
1.9177e-06
1.88902e-06
1.85868e-06
1.82676e-06
1.79333e-06
1.75849e-06
1.72236e-06
1.68509e-06
1.79835e-06
1.77753e-06
1.75515e-06
1.73142e-06
1.70639e-06
1.68012e-06
1.65264e-06
1.624e-06
1.59427e-06
1.56348e-06
1.63973e-06
1.62237e-06
1.60379e-06
1.58418e-06
1.56356e-06
1.54197e-06
1.51943e-06
1.49594e-06
1.4715e-06
1.44612e-06
1.49334e-06
1.47893e-06
1.4636e-06
1.44748e-06
1.43057e-06
1.41291e-06
1.39447e-06
1.37526e-06
1.35522e-06
1.33433e-06
1.35915e-06
1.34733e-06
1.33477e-06
1.32161e-06
1.30782e-06
1.29342e-06
1.27839e-06
1.26269e-06
1.24629e-06
1.22912e-06
1.22732e-06
1.21708e-06
1.20634e-06
1.1951e-06
1.18334e-06
1.17104e-06
1.15819e-06
1.14472e-06
1.13057e-06
1.11788e-06
1.10941e-06
1.10052e-06
1.09121e-06
1.08148e-06
1.07131e-06
1.06067e-06
1.04953e-06
1.03782e-06
1.01711e-06
1.00984e-06
1.00222e-06
9.94267e-07
9.85993e-07
9.77395e-07
9.6845e-07
9.59121e-07
9.2289e-07
9.16316e-07
9.09494e-07
9.02452e-07
8.95212e-07
8.87774e-07
8.80119e-07
8.72216e-07
8.33861e-07
8.2767e-07
8.2135e-07
8.14942e-07
8.0846e-07
8.019e-07
7.9525e-07
7.88493e-07
7.49948e-07
7.44023e-07
7.38088e-07
7.32172e-07
7.26296e-07
7.20443e-07
7.14617e-07
7.0881e-07
6.66252e-07
6.60643e-07
6.55127e-07
6.49731e-07
6.44446e-07
6.39299e-07
6.34249e-07
5.96304e-07
5.90959e-07
5.85768e-07
5.80738e-07
5.7591e-07
5.71283e-07
5.66814e-07
5.39029e-07
5.33881e-07
5.2889e-07
5.24082e-07
5.19507e-07
5.15141e-07
5.11006e-07
4.93377e-07
4.88446e-07
4.83629e-07
4.78986e-07
4.74524e-07
4.70275e-07
4.66285e-07
4.52247e-07
4.4758e-07
4.42992e-07
4.38523e-07
4.34184e-07
4.30045e-07
4.26126e-07
4.12944e-07
4.0844e-07
4.03974e-07
3.99571e-07
3.95304e-07
3.9123e-07
3.87363e-07
3.76327e-07
3.7174e-07
3.6707e-07
3.62372e-07
3.57759e-07
3.53308e-07
3.40612e-07
3.35677e-07
3.30606e-07
3.25464e-07
3.20334e-07
3.15278e-07
3.00369e-07
2.93606e-07
2.86725e-07
2.79907e-07
2.73346e-07
2.6719e-07
2.45342e-07
2.35444e-07
2.25109e-07
2.14555e-07
2.04028e-07
1.9312e-07
1.83232e-07
1.74137e-07
1.66192e-07
1.5975e-07
1.9081e-07
1.84461e-07
1.79665e-07
1.76318e-07
1.7423e-07
3.49787e-07
3.75545e-07
4.0059e-07
4.24391e-07
4.46432e-07
8.32465e-07
8.46472e-07
8.57563e-07
8.65822e-07
8.71636e-07
1.61847e-06
1.63894e-06
1.65406e-06
1.6641e-06
1.67006e-06
)
;

boundaryField
{
    inlet
    {
        type            calculated;
        value           nonuniform List<scalar> 5(5.06274e-06 5.20289e-06 5.32918e-06 5.44186e-06 5.5412e-06);
    }
    outlet
    {
        type            calculated;
        value           nonuniform List<scalar> 0();
    }
    walls
    {
        type            calculated;
        value           uniform 0;
    }
    frontAndBack
    {
        type            empty;
    }
    procBoundary1to0
    {
        type            processor;
        value           nonuniform List<scalar> 
94
(
0.000478405
0.000478405
0.000395593
0.000395593
0.000328839
0.000328839
0.000274917
0.000274917
0.000230875
0.000230875
0.000195019
0.000195019
0.000170829
0.000145816
0.000145816
0.000128564
0.000110686
0.000110686
9.80599e-05
8.69694e-05
7.5573e-05
7.5573e-05
6.72284e-05
5.86861e-05
5.86861e-05
5.23162e-05
4.66572e-05
4.08993e-05
4.08993e-05
3.65237e-05
3.26245e-05
2.86711e-05
2.86711e-05
2.56366e-05
2.25521e-05
2.25521e-05
2.01843e-05
1.80721e-05
1.59219e-05
1.59219e-05
1.42736e-05
1.28033e-05
1.13029e-05
1.13029e-05
1.01569e-05
9.13453e-06
8.08808e-06
8.08808e-06
7.29164e-06
6.5799e-06
5.85009e-06
5.85009e-06
5.29403e-06
4.7958e-06
4.28482e-06
4.28482e-06
3.89318e-06
3.54057e-06
3.22267e-06
2.90017e-06
2.90017e-06
2.64637e-06
2.41546e-06
2.20463e-06
1.99195e-06
1.99195e-06
1.81703e-06
1.65538e-06
1.50639e-06
1.36991e-06
1.23697e-06
1.23697e-06
1.12584e-06
1.02395e-06
9.29124e-07
8.3981e-07
7.55726e-07
6.71933e-07
6.71933e-07
6.01784e-07
5.44344e-07
4.98409e-07
4.56939e-07
4.17429e-07
3.80786e-07
3.4535e-07
3.06797e-07
2.54616e-07
2.54616e-07
2.03486e-07
1.98669e-07
3.23243e-07
8.16235e-07
1.59213e-06
)
;
    }
    procBoundary1to2
    {
        type            processor;
        value           nonuniform List<scalar> 
84
(
48.1503
1.44803
0.312044
0.0115111
0.000490821
6.42849e-05
7.12146e-06
1.85583e-05
2.4501e-05
2.0628e-05
2.08828e-05
1.93714e-05
1.86335e-05
1.75962e-05
1.66632e-05
1.56626e-05
1.4666e-05
1.36526e-05
1.26364e-05
1.16203e-05
1.06105e-05
9.61251e-06
8.63268e-06
7.67773e-06
6.75358e-06
5.86706e-06
5.02503e-06
4.23486e-06
3.50483e-06
2.8458e-06
2.27272e-06
1.80883e-06
1.48737e-06
1.33899e-06
1.35583e-06
1.48146e-06
1.65312e-06
1.82959e-06
2.51628e-06
2.51628e-06
2.55419e-06
2.58262e-06
2.59609e-06
2.59198e-06
2.56976e-06
2.53023e-06
2.47498e-06
2.40611e-06
2.32592e-06
2.23665e-06
2.14043e-06
2.03903e-06
1.93395e-06
1.88164e-06
1.88164e-06
1.76383e-06
1.64684e-06
1.53169e-06
1.41976e-06
1.31253e-06
1.21109e-06
1.11565e-06
1.02544e-06
9.49347e-07
9.49347e-07
8.64015e-07
7.81575e-07
7.02954e-07
6.2926e-07
5.62525e-07
5.07104e-07
4.62515e-07
4.22407e-07
3.83724e-07
3.49081e-07
3.49081e-07
3.1036e-07
2.61576e-07
1.93795e-07
1.55056e-07
1.73002e-07
4.6619e-07
8.75629e-07
1.6728e-06
)
;
    }
    procBoundary1to5
    {
        type            processor;
        value           nonuniform List<scalar> 
13
(
0.00385212
0.00385212
0.00242442
0.00187779
0.00187779
0.00154482
0.0012168
0.0012168
0.00101258
0.000824415
0.000680834
0.000680834
0.00058107
)
;
    }
}


// ************************************************************************* //
