/*--------------------------------*- C++ -*----------------------------------*\
| =========                 |                                                 |
| \\      /  F ield         | OpenFOAM: The Open Source CFD Toolbox           |
|  \\    /   O peration     | Version:  2506                                  |
|   \\  /    A nd           | Website:  www.openfoam.com                      |
|    \\/     M anipulation  |                                                 |
\*---------------------------------------------------------------------------*/
FoamFile
{
    version     2.0;
    format      ascii;
    arch        "LSB;label=32;scalar=64";
    class       volScalarField;
    location    "450";
    object      turbulenceProperties:L;
}
// * * * * * * * * * * * * * * * * * * * * * * * * * * * * * * * * * * * * * //

dimensions      [0 1 0 0 0 0 0];

internalField   nonuniform List<scalar> 
1340
(
0.00403409
0.00396956
0.00348028
0.00297188
0.0026007
0.0023772
0.00228677
0.00231393
0.0024469
0.00268211
0.00302787
0.00350751
0.00416049
0.00506185
0.00630315
0.00810034
0.0106569
0.0146865
0.0206335
0.030445
0.0433102
0.0512757
0.0542886
0.0551795
0.0555188
0.0557283
0.0558724
0.0559807
0.00464795
0.00495708
0.00530274
0.00572803
0.00624553
0.00682954
0.00747728
0.0082025
0.00901978
0.00994351
0.0110085
0.0122572
0.0138297
0.0160363
0.0198628
0.0282128
0.0605263
0.233848
0.116418
0.0106148
0.021382
0.0578545
0.107137
0.156023
0.19457
0.215836
0.222319
0.221015
0.217005
0.00520091
0.00548586
0.0057979
0.006182
0.00669463
0.00733612
0.00809999
0.00899243
0.0100035
0.0111269
0.0123242
0.013544
0.0147006
0.015743
0.0166075
0.017255
0.0176527
0.0178905
0.0179241
0.017957
0.0174186
0.0228418
0.0157179
0.0446897
0.101285
0.175196
0.221675
0.241581
0.252163
0.00565982
0.00587259
0.00612761
0.00643189
0.00681955
0.00730439
0.0078676
0.00849127
0.00916733
0.00988483
0.0106366
0.011403
0.0121667
0.0129046
0.0136158
0.0142893
0.0149394
0.0156042
0.016409
0.0173811
0.018336
0.0191712
0.0198509
0.0207708
0.0221756
0.0255534
0.0322003
0.0458796
0.156853
0.239693
0.00634814
0.00655208
0.00679455
0.00708528
0.0074518
0.00790073
0.00842915
0.00903612
0.0097266
0.0105027
0.0113641
0.0123029
0.0133033
0.0143392
0.0153902
0.0164311
0.0174563
0.0184901
0.0196693
0.0211332
0.0228227
0.0244976
0.0258938
0.0265993
0.0276269
0.0253433
0.0584589
0.0235833
0.0398046
0.0281357
0.00690188
0.00706186
0.0072605
0.00749346
0.00777413
0.0081244
0.00854726
0.00904133
0.00960449
0.0102366
0.0109348
0.0116914
0.0124948
0.0133283
0.0141727
0.0150139
0.0158438
0.0166744
0.0175448
0.0185618
0.0198307
0.0213174
0.0229298
0.024603
0.0263294
0.0280806
0.0298967
0.0319122
0.0357078
0.0424144
0.0582318
0.00764003
0.0078
0.0079923
0.00821903
0.00849253
0.00882627
0.00922327
0.00968447
0.0102112
0.0108063
0.0114711
0.0122037
0.0130002
0.0138516
0.0147451
0.0156704
0.0166199
0.0175999
0.0186432
0.0198434
0.0213121
0.0230546
0.0250006
0.0270864
0.0292881
0.0315336
0.0335967
0.0351714
0.036177
0.0376519
0.0445792
0.0084014
0.00856339
0.0087515
0.00897395
0.00924123
0.00956006
0.00993528
0.0103681
0.010861
0.0114179
0.0120402
0.0127258
0.0134717
0.014269
0.0151061
0.0159735
0.0168671
0.0177944
0.0187869
0.0199207
0.0212838
0.0228853
0.0246789
0.0266338
0.0287725
0.0311277
0.0336938
0.0364806
0.0395121
0.0428215
0.0458358
0.00906132
0.0091903
0.00935355
0.00953962
0.00975927
0.0100207
0.0103267
0.0106823
0.0110895
0.0115516
0.0120733
0.0126578
0.0133056
0.0140158
0.0147845
0.0156053
0.0164724
0.0173842
0.0183501
0.0193999
0.0205974
0.0220196
0.0236911
0.0255795
0.0276555
0.0299297
0.0324174
0.0350824
0.0377962
0.0403486
0.042466
0.043852
0.0100086
0.0101728
0.0103589
0.0105773
0.0108331
0.0111279
0.0114663
0.0118505
0.0122846
0.0127746
0.0133238
0.0139338
0.0146064
0.0153388
0.0161279
0.0169702
0.0178655
0.0188236
0.0198712
0.0210596
0.0224546
0.0240811
0.0259172
0.0279419
0.0301705
0.0326328
0.0353311
0.0382325
0.041292
0.0442906
0.0469452
0.011024
0.0112114
0.0114296
0.0116804
0.011965
0.0122885
0.0126526
0.0130615
0.0135217
0.0140379
0.0146131
0.0152507
0.0159512
0.0167135
0.0175373
0.018426
0.01939
0.0204542
0.0216631
0.0230726
0.0247102
0.0265663
0.0286262
0.0309028
0.0334188
0.0361671
0.0390849
0.0420445
0.0447668
0.046962
0.0120995
0.0123182
0.0125647
0.0128409
0.0131511
0.0134971
0.0138833
0.0143171
0.0148029
0.0153453
0.0159498
0.0166184
0.0173535
0.0181562
0.019031
0.0199895
0.0210559
0.0222691
0.0236737
0.0252981
0.0271403
0.0291913
0.0314638
0.0339811
0.0367461
0.0397161
0.0428103
0.0457955
0.0483371
0.0132455
0.0134886
0.0137575
0.014056
0.0143863
0.0147525
0.0151617
0.0156203
0.016133
0.0167064
0.0173447
0.0180524
0.0188336
0.0196949
0.0206489
0.0217189
0.0229383
0.024346
0.0259691
0.0278132
0.0298755
0.0321691
0.0347164
0.0375212
0.0405382
0.0436712
0.0466752
0.0492044
0.0144546
0.0147174
0.0150062
0.0153223
0.0156704
0.0160582
0.0164914
0.0169765
0.0175213
0.0181312
0.0188122
0.0195712
0.0204173
0.0213638
0.0224331
0.0236538
0.0250597
0.0266779
0.0285179
0.0305827
0.0328869
0.0354526
0.0382877
0.0413543
0.0445721
0.0477144
0.0504372
0.0157233
0.0160035
0.0163076
0.0166401
0.0170085
0.0174193
0.0178791
0.0183969
0.01898
0.0196362
0.0203739
0.0212035
0.0221395
0.0232046
0.0244268
0.025834
0.0274501
0.0292896
0.0313615
0.0336821
0.0362747
0.0391501
0.0422756
0.0455743
0.0488231
0.0516819
0.0167784
0.0170515
0.017345
0.0176635
0.018015
0.0184054
0.0188431
0.0193366
0.0198948
0.020527
0.0212434
0.0220563
0.0229813
0.0240413
0.0252612
0.0266667
0.0282803
0.0301198
0.0321985
0.0345353
0.037155
0.0400727
0.0432626
0.0466588
0.0500509
0.0531057
0.0181526
0.0184374
0.0187443
0.0190806
0.0194535
0.0198706
0.0203422
0.0208772
0.0214868
0.0221824
0.022978
0.0238911
0.0249445
0.0261618
0.0275654
0.0291784
0.0310195
0.0331068
0.0354627
0.038114
0.0410804
0.0443447
0.0478504
0.0513991
0.0546658
0.0193105
0.019588
0.0198848
0.0202085
0.0205658
0.0209651
0.0214169
0.0219311
0.0225196
0.0231957
0.0239743
0.0248736
0.0259177
0.0271316
0.0285358
0.0301487
0.0319923
0.0340896
0.0364665
0.0391528
0.0421737
0.0455225
0.0491541
0.052887
0.0564085
0.0208002
0.0210888
0.0214017
0.0217459
0.0221296
0.0225638
0.0230593
0.0236285
0.0242856
0.0250477
0.0259347
0.0269709
0.0281799
0.0295814
0.0311947
0.0330432
0.0351531
0.0375545
0.040281
0.0433646
0.0468103
0.050586
0.0545317
0.0583498
0.0220776
0.0223599
0.0226639
0.0229968
0.0233673
0.0237863
0.0242649
0.0248168
0.0254571
0.026203
0.0270766
0.028104
0.0293085
0.0307087
0.0323243
0.0341796
0.0363045
0.0387334
0.0415054
0.0446595
0.0482153
0.0521562
0.05635
0.0605188
0.0234243
0.0237018
0.0239989
0.0243226
0.024682
0.025088
0.025552
0.0260881
0.0267126
0.0274446
0.0283058
0.0293236
0.0305231
0.0319241
0.0335437
0.0354075
0.0375499
0.0400103
0.0428338
0.0460683
0.0497499
0.0538811
0.0583649
0.0629492
0.0251181
0.0254104
0.0257273
0.0260775
0.0264726
0.0269244
0.0274471
0.0280577
0.028776
0.0296261
0.0306363
0.0318323
0.0332333
0.0348575
0.0367325
0.0388959
0.0413928
0.0442751
0.0476012
0.0514255
0.0557763
0.0605996
0.0656803
0.0266138
0.0269028
0.0272143
0.027558
0.0279446
0.028386
0.0288975
0.0294963
0.030203
0.0310429
0.0320461
0.033239
0.0346417
0.0362724
0.0381621
0.0403505
0.042889
0.0458373
0.0492666
0.0532529
0.0578568
0.0630782
0.0687556
0.0284802
0.0287891
0.0291279
0.029508
0.0299414
0.0304436
0.0310324
0.0317291
0.0325603
0.0335576
0.0347492
0.0361559
0.0377971
0.039703
0.0419205
0.0445061
0.0475286
0.0510741
0.0552441
0.0601375
0.0658248
0.0722249
0.0301476
0.0304553
0.0307917
0.0311676
0.0315952
0.0320902
0.0326715
0.0333605
0.0341851
0.0351781
0.0363697
0.0377813
0.039435
0.0413613
0.0436125
0.046251
0.0493572
0.053033
0.0574093
0.0626335
0.0688654
0.0761466
0.0319095
0.0322182
0.0325538
0.0329276
0.0333521
0.0338423
0.0344176
0.0351009
0.0359212
0.0369129
0.0381073
0.0395273
0.0411948
0.0431458
0.0454349
0.0481329
0.051332
0.055152
0.0597586
0.0653598
0.0722268
0.0805834
0.0340826
0.0344198
0.0347936
0.0352163
0.0357042
0.0362765
0.0369562
0.0377738
0.038766
0.0399648
0.0413954
0.0430807
0.0450596
0.0473918
0.0501564
0.0534571
0.0574365
0.0622984
0.0683229
0.0759252
0.0855984
0.036053
0.0363938
0.0367699
0.0371937
0.0376813
0.0382526
0.0389316
0.0397493
0.0407441
0.0419502
0.0433939
0.0451005
0.0471116
0.0494918
0.052329
0.0557401
0.0598921
0.0650322
0.0715246
0.0799672
0.0912446
0.0381351
0.0384815
0.0388619
0.0392888
0.0397785
0.0403511
0.0410312
0.0418515
0.0428517
0.0440678
0.0455285
0.0472591
0.0493059
0.0517384
0.0546534
0.058183
0.0625185
0.0679567
0.0749577
0.0843433
0.0975488
0.0406883
0.041075
0.0415067
0.0420004
0.0425768
0.0432607
0.0440861
0.0450943
0.046323
0.0478022
0.0495608
0.0516464
0.0541356
0.0571332
0.0607871
0.0653145
0.0710635
0.0786022
0.0890099
0.104465
0.0430183
0.0434136
0.0438526
0.0443527
0.0449349
0.0456248
0.046457
0.0474756
0.0487202
0.050221
0.0520098
0.0541371
0.0566854
0.0597687
0.0635492
0.0682717
0.0743333
0.0824165
0.0938806
0.111824
0.045883
0.0463311
0.0468396
0.0474292
0.0481268
0.0489686
0.0499999
0.0512621
0.0527875
0.0546083
0.0567796
0.0593886
0.0625579
0.0664632
0.0713749
0.0777392
0.0863436
0.0988216
0.119261
0.048488
0.0489469
0.0494655
0.0500649
0.0507729
0.0516258
0.0526711
0.0539525
0.0555035
0.0573584
0.0595745
0.0622434
0.0654951
0.0695192
0.0746061
0.0812433
0.0903048
0.103642
0.126172
0.0512336
0.0517052
0.0522351
0.0528455
0.0535641
0.0544299
0.0554919
0.0567946
0.0583724
0.0602606
0.0625193
0.0652452
0.0685734
0.0727035
0.0779405
0.0847992
0.0942082
0.10813
0.131828
0.0546093
0.0551518
0.0557748
0.0565061
0.0573857
0.0584637
0.0597876
0.0613923
0.0633134
0.0656125
0.0683892
0.0717828
0.0759975
0.0813482
0.0883565
0.097959
0.112083
0.13565
0.0576636
0.0582202
0.0588559
0.0596001
0.060494
0.0615892
0.0629339
0.0645638
0.0665144
0.0688487
0.0716672
0.0751102
0.0793838
0.0848002
0.0918695
0.101482
0.115377
0.137529
0.0608724
0.0614428
0.0620916
0.0628496
0.0637572
0.0648685
0.0662328
0.0678847
0.0698608
0.0722229
0.0750707
0.0785435
0.0828432
0.0882684
0.0952982
0.104727
0.117989
0.137837
0.0648227
0.0654852
0.0662554
0.0671759
0.068302
0.0696835
0.0713546
0.0733491
0.0757284
0.0785903
0.0820697
0.0863567
0.0917309
0.0986176
0.107684
0.120004
0.137186
0.0683637
0.0690382
0.0698199
0.070752
0.0718906
0.0732848
0.0749688
0.0769742
0.0793596
0.0822184
0.0856777
0.0899129
0.0951744
0.101824
0.110383
0.121579
0.0720681
0.0727538
0.0735451
0.0744861
0.0756331
0.0770361
0.0787264
0.0807333
0.0831112
0.0859474
0.0893592
0.0935036
0.0985953
0.104927
0.112882
0.12289
0.0766335
0.0774323
0.0783795
0.0795313
0.0809373
0.0826264
0.0846234
0.0869793
0.0897735
0.093111
0.0971277
0.102002
0.107958
0.115256
0.124108
0.0806805
0.0814845
0.0824339
0.0835851
0.0849875
0.0866667
0.0886434
0.0909628
0.0936957
0.0969336
0.100791
0.10541
0.110955
0.117585
0.125368
0.0848993
0.0857035
0.0866502
0.0877966
0.0891889
0.0908492
0.0927937
0.0950615
0.0977153
0.100832
0.104506
0.108844
0.113962
0.119946
0.126774
0.0900927
0.0910343
0.0921692
0.0935431
0.0951755
0.097077
0.0992805
0.101839
0.104817
0.108289
0.112334
0.117027
0.122404
0.128399
0.0946579
0.0955871
0.0967047
0.0980539
0.0996496
0.101498
0.103625
0.106076
0.108902
0.11216
0.115909
0.120192
0.125014
0.13029
0.0994016
0.100315
0.101411
0.102728
0.104278
0.106063
0.108104
0.110436
0.113102
0.116143
0.1196
0.123496
0.127818
0.132481
0.105224
0.10629
0.107569
0.109066
0.110781
0.112727
0.114935
0.117435
0.12026
0.123436
0.126973
0.13085
0.134989
0.110319
0.111352
0.112586
0.114024
0.11566
0.117507
0.119585
0.121919
0.124533
0.127443
0.130651
0.134136
0.137829
0.11561
0.116603
0.117786
0.11916
0.120715
0.122457
0.124404
0.126575
0.128986
0.131648
0.134559
0.137697
0.14101
0.121103
0.122054
0.123183
0.124488
0.125957
0.127593
0.129412
0.131425
0.133644
0.136077
0.13872
0.141556
0.144543
0.127718
0.128789
0.130023
0.131407
0.132939
0.134632
0.136494
0.138536
0.14076
0.143164
0.145734
0.148441
0.133613
0.134626
0.135791
0.13709
0.138522
0.140095
0.141818
0.143696
0.145731
0.147923
0.150262
0.152728
0.139767
0.140725
0.141822
0.143042
0.144381
0.145844
0.147439
0.149168
0.151036
0.153042
0.155179
0.146217
0.147126
0.148163
0.14931
0.150564
0.151929
0.153408
0.155006
0.156726
0.158569
0.160531
0.15388
0.154864
0.155948
0.157128
0.158405
0.159783
0.161265
0.162855
0.164554
0.166364
0.161039
0.161979
0.163009
0.164122
0.165321
0.166609
0.167988
0.169463
0.171036
0.172712
0.168648
0.169548
0.170527
0.171579
0.172706
0.173911
0.175196
0.176567
0.178027
0.179582
0.17672
0.177578
0.178506
0.179497
0.180554
0.18168
0.182877
0.18415
0.185506
0.186952
0.185237
0.186048
0.186921
0.18785
0.188837
0.189885
0.190998
0.192182
0.193443
0.194789
0.194931
0.19575
0.196619
0.197542
0.198521
0.19956
0.200665
0.201841
0.2031
0.204251
0.205028
0.205855
0.206731
0.20766
0.208643
0.209686
0.210796
0.211983
0.214129
0.214899
0.215715
0.216576
0.217483
0.218437
0.219444
0.220509
0.224796
0.225601
0.226445
0.227328
0.228245
0.229199
0.230194
0.231235
0.236493
0.237376
0.238288
0.239223
0.240181
0.241161
0.242168
0.243204
0.249375
0.250367
0.251372
0.252385
0.253405
0.254432
0.255468
0.256512
0.264578
0.2657
0.266816
0.267922
0.269019
0.2701
0.271174
0.279669
0.280931
0.282174
0.283394
0.28458
0.28573
0.286855
0.294154
0.29557
0.296962
0.298321
0.299632
0.3009
0.302115
0.307464
0.309013
0.310548
0.312051
0.313515
0.314928
0.316274
0.321143
0.322813
0.324481
0.326131
0.327757
0.329331
0.330843
0.336079
0.337928
0.339791
0.341659
0.343498
0.345283
0.347002
0.352051
0.354216
0.356463
0.358767
0.361073
0.363341
0.370048
0.37276
0.375608
0.378565
0.381584
0.384633
0.39406
0.398574
0.403329
0.408212
0.413083
0.417816
0.436022
0.445094
0.455197
0.466258
0.478136
0.491452
0.504538
0.517546
0.529772
0.540348
0.494417
0.502854
0.509522
0.514336
0.517409
0.365169
0.352425
0.341231
0.331526
0.32324
0.236708
0.234743
0.233222
0.232109
0.231336
0.169764
0.168702
0.16793
0.167423
0.167125
)
;

boundaryField
{
    inlet
    {
        type            calculated;
        value           nonuniform List<scalar> 5(0.104169 0.102756 0.101531 0.100475 0.0995699);
    }
    outlet
    {
        type            calculated;
        value           nonuniform List<scalar> 0();
    }
    walls
    {
        type            calculated;
        value           uniform 0;
    }
    frontAndBack
    {
        type            empty;
    }
    procBoundary1to0
    {
        type            processor;
        value           nonuniform List<scalar> 
94
(
0.00987419
0.00987419
0.0108587
0.0108587
0.0119099
0.0119099
0.0130256
0.0130256
0.0142138
0.0142138
0.0154653
0.0154653
0.0165241
0.0178852
0.0178852
0.0190474
0.0205282
0.0205282
0.0218097
0.0231586
0.0248435
0.0248435
0.0263402
0.0281921
0.0281921
0.0298591
0.0316181
0.0337704
0.0337704
0.0357361
0.0378113
0.040334
0.040334
0.0426543
0.0454777
0.0454777
0.0480713
0.0508028
0.0541246
0.0541246
0.0571643
0.0603574
0.0642385
0.0642385
0.0677657
0.0714572
0.0759392
0.0759392
0.0799788
0.0841932
0.0892903
0.0892903
0.0938624
0.0986173
0.104332
0.104332
0.109453
0.114774
0.120301
0.126814
0.126814
0.132755
0.138955
0.145447
0.153014
0.153014
0.16021
0.167849
0.175952
0.184509
0.19417
0.19417
0.203527
0.213413
0.22404
0.235654
0.24842
0.263457
0.263457
0.278392
0.292714
0.305907
0.319489
0.334268
0.349983
0.367501
0.38991
0.428007
0.428007
0.478771
0.484539
0.379865
0.239048
0.171162
)
;
    }
    procBoundary1to2
    {
        type            processor;
        value           nonuniform List<scalar> 
84
(
0.0560831
0.212398
0.25886
0.234642
0.051713
0.0368998
0.0979834
0.0500428
0.0436478
0.0475632
0.0472703
0.0490729
0.0500327
0.0514862
0.0529081
0.054572
0.0563956
0.0584511
0.0607559
0.0633566
0.0663028
0.0696597
0.0735067
0.0779442
0.083106
0.089164
0.0963451
0.104949
0.115363
0.128026
0.14326
0.160583
0.177087
0.186642
0.185478
0.177439
0.167974
0.159668
0.136149
0.136149
0.135134
0.134388
0.134039
0.134144
0.134723
0.135771
0.137277
0.139228
0.141607
0.144405
0.147615
0.15124
0.155294
0.157437
0.157437
0.162609
0.168285
0.174495
0.181242
0.188499
0.196234
0.204454
0.213258
0.221641
0.221641
0.23233
0.244278
0.257579
0.272247
0.287947
0.303276
0.31756
0.332296
0.348644
0.365535
0.365535
0.387668
0.422277
0.490598
0.548468
0.519243
0.316317
0.23081
0.166989
)
;
    }
    procBoundary1to5
    {
        type            processor;
        value           nonuniform List<scalar> 
13
(
0.00351488
0.00351488
0.00438255
0.00498485
0.00498485
0.00549485
0.00619157
0.00619157
0.00678716
0.00752193
0.00827714
0.00827714
0.00895955
)
;
    }
}


// ************************************************************************* //
