/*--------------------------------*- C++ -*----------------------------------*\
| =========                 |                                                 |
| \\      /  F ield         | OpenFOAM: The Open Source CFD Toolbox           |
|  \\    /   O peration     | Version:  2506                                  |
|   \\  /    A nd           | Website:  www.openfoam.com                      |
|    \\/     M anipulation  |                                                 |
\*---------------------------------------------------------------------------*/
FoamFile
{
    version     2.0;
    format      ascii;
    arch        "LSB;label=32;scalar=64";
    class       volVectorField;
    location    "400";
    object      momentError;
}
// * * * * * * * * * * * * * * * * * * * * * * * * * * * * * * * * * * * * * //

dimensions      [0 1 -2 0 0 0 0];

internalField   nonuniform List<vector> 
1340
(
(-2.5899e-07 6.30439e-07 6.04181e-16)
(-2.41912e-07 5.51859e-07 -1.95205e-15)
(-3.52705e-07 7.42621e-07 5.94284e-15)
(-3.20156e-07 6.823e-07 7.89905e-16)
(-2.67633e-07 5.93609e-07 1.19895e-15)
(-3.14106e-07 5.30423e-07 2.79419e-15)
(-4.29368e-07 7.60421e-07 9.75805e-17)
(-4.19045e-07 6.97343e-07 6.32716e-16)
(-3.99004e-07 6.8733e-07 7.02412e-16)
(-3.52205e-07 6.60352e-07 -3.92522e-16)
(-2.48355e-07 7.10637e-07 -5.39264e-16)
(-3.19874e-07 5.33089e-07 3.05654e-15)
(-5.80633e-07 1.18711e-06 -1.32703e-15)
(-5.17053e-07 1.02706e-06 2.7691e-15)
(-4.60756e-07 8.87749e-07 8.46663e-18)
(-4.40471e-07 7.22254e-07 1.68363e-18)
(-4.60188e-07 6.78446e-07 1.20546e-15)
(-4.01636e-07 7.66108e-07 -4.17101e-15)
(-3.52168e-07 6.99517e-07 -2.20928e-15)
(-2.78292e-07 6.62844e-07 1.56423e-17)
(-2.67863e-07 5.27443e-07 -5.43761e-15)
(-1.03697e-06 1.77619e-06 2.16822e-16)
(-9.35226e-07 1.59946e-06 -2.65777e-16)
(-8.37991e-07 1.50223e-06 1.83284e-16)
(-7.46004e-07 1.4207e-06 1.12157e-15)
(-6.62437e-07 1.29525e-06 -4.12135e-16)
(-6.05162e-07 1.09741e-06 2.70049e-15)
(-5.40307e-07 9.53341e-07 -8.21317e-16)
(-4.83173e-07 8.53932e-07 -1.39446e-15)
(-4.33948e-07 8.07423e-07 -1.75779e-17)
(-4.59627e-07 7.2714e-07 -1.83124e-16)
(-3.98389e-07 7.08887e-07 2.71576e-15)
(-3.52845e-07 6.57418e-07 1.51726e-15)
(-2.84142e-07 6.58555e-07 3.03899e-18)
(-2.44518e-07 5.17204e-07 4.39401e-16)
(-2.22773e-06 1.83418e-06 -9.60081e-16)
(-1.95795e-06 1.88128e-06 2.21607e-16)
(-1.67935e-06 1.87551e-06 3.4736e-16)
(-1.46412e-06 1.87095e-06 1.11303e-15)
(-1.26915e-06 1.79169e-06 1.0263e-15)
(-1.13162e-06 1.61444e-06 -3.98604e-16)
(-1.01178e-06 1.46266e-06 -6.26367e-16)
(-8.97227e-07 1.37069e-06 -5.66749e-16)
(-7.92684e-07 1.28043e-06 1.68757e-15)
(-6.94962e-07 1.22541e-06 -1.11344e-16)
(-6.18398e-07 1.19251e-06 -6.81557e-16)
(-5.54967e-07 1.03494e-06 8.58168e-16)
(-4.95293e-07 8.84807e-07 -6.31149e-16)
(-4.5472e-07 7.54514e-07 1.51702e-17)
(-4.37094e-07 6.96776e-07 -1.63045e-16)
(-4.02385e-07 6.94387e-07 6.20624e-16)
(-3.55765e-07 6.38067e-07 7.21122e-16)
(-2.88095e-07 6.39693e-07 2.62397e-17)
(-2.19065e-07 5.04303e-07 -2.31074e-16)
(-4.48589e-06 1.23902e-06 4.63417e-16)
(-4.14285e-06 1.34776e-06 8.07182e-16)
(-3.82337e-06 1.37633e-06 9.94097e-16)
(-3.52213e-06 1.36913e-06 -2.56764e-16)
(-3.22609e-06 1.32405e-06 7.71639e-16)
(-2.96162e-06 1.36065e-06 -7.49332e-16)
(-2.67816e-06 1.41431e-06 -2.28976e-15)
(-2.44685e-06 1.38952e-06 -1.15916e-15)
(-2.12305e-06 1.53803e-06 6.27338e-16)
(-1.85662e-06 1.57152e-06 1.01968e-16)
(-1.60664e-06 1.57667e-06 1.45317e-15)
(-1.39775e-06 1.61788e-06 -2.24412e-16)
(-1.22046e-06 1.6759e-06 -5.2148e-17)
(-1.07565e-06 1.56592e-06 8.04814e-17)
(-9.53705e-07 1.47975e-06 -5.61828e-17)
(-8.36741e-07 1.39365e-06 -5.39957e-16)
(-7.3216e-07 1.25909e-06 1.07563e-15)
(-6.35629e-07 1.07811e-06 -9.69789e-16)
(-5.66037e-07 9.45437e-07 1.23372e-16)
(-5.07409e-07 8.26274e-07 1.72684e-15)
(-4.66449e-07 7.427e-07 -3.73566e-17)
(-4.37974e-07 6.82835e-07 1.70589e-16)
(-4.0171e-07 6.66469e-07 -1.40743e-15)
(-3.55709e-07 6.13301e-07 -1.67633e-15)
(-2.85009e-07 6.22373e-07 -2.11109e-17)
(-1.99348e-07 4.89191e-07 6.30172e-16)
(-6.69917e-06 -1.81603e-06 -2.39419e-16)
(-6.64081e-06 -1.52072e-06 2.68119e-16)
(-6.57131e-06 -1.30599e-06 -1.10565e-16)
(-6.45438e-06 -1.08562e-06 -2.15848e-16)
(-6.31622e-06 -8.68359e-07 7.03283e-16)
(-6.13827e-06 -6.43824e-07 -5.63936e-16)
(-5.93974e-06 -4.18504e-07 9.91853e-17)
(-5.70775e-06 -1.88255e-07 6.16039e-16)
(-5.45869e-06 3.2428e-08 -6.14697e-16)
(-5.17692e-06 2.45938e-07 -1.85817e-15)
(-4.93952e-06 4.7544e-07 3.37782e-17)
(-4.74739e-06 7.18925e-07 -3.54436e-16)
(-4.37215e-06 7.10947e-07 3.28152e-16)
(-4.04843e-06 8.40276e-07 3.45011e-16)
(-3.7184e-06 9.37146e-07 -1.00428e-16)
(-3.4589e-06 9.34167e-07 -2.23437e-16)
(-3.17688e-06 9.70238e-07 7.12598e-16)
(-2.9526e-06 9.59018e-07 -2.74351e-16)
(-2.73018e-06 1.11241e-06 -4.00481e-16)
(-2.59703e-06 1.48018e-06 3.30272e-16)
(-2.2957e-06 1.53582e-06 -1.00444e-15)
(-2.01656e-06 1.60654e-06 6.39808e-16)
(-1.75933e-06 1.63693e-06 -3.79392e-16)
(-1.51197e-06 1.57029e-06 -5.21317e-16)
(-1.26054e-06 1.40002e-06 2.87804e-16)
(-1.11984e-06 1.3179e-06 2.01573e-16)
(-9.87087e-07 1.26638e-06 4.20736e-16)
(-8.7366e-07 1.2044e-06 -4.56525e-16)
(-7.63071e-07 1.12785e-06 -7.81191e-16)
(-6.72186e-07 1.02455e-06 2.68941e-16)
(-5.91457e-07 9.04046e-07 4.30358e-17)
(-5.24087e-07 7.93486e-07 -1.72227e-16)
(-4.75372e-07 7.11293e-07 1.24172e-17)
(-4.36531e-07 6.59356e-07 -1.38835e-16)
(-3.99138e-07 6.42307e-07 2.83386e-15)
(-3.5177e-07 5.89219e-07 -1.33358e-16)
(-2.78752e-07 6.01752e-07 2.68174e-16)
(-1.81872e-07 4.73204e-07 -9.54524e-17)
(-6.66384e-05 2.41124e-05 -7.5891e-17)
(-6.19343e-05 1.97562e-05 -2.39072e-17)
(-5.59474e-05 1.80247e-05 -2.76971e-18)
(-5.04106e-05 1.64086e-05 -2.61461e-17)
(-4.51918e-05 1.46768e-05 -1.1764e-17)
(-4.03033e-05 1.30338e-05 -8.89279e-18)
(-3.58137e-05 1.14231e-05 2.48389e-17)
(-3.17035e-05 9.93471e-06 6.72015e-17)
(-2.80046e-05 8.53733e-06 -2.89415e-17)
(-2.46708e-05 7.23486e-06 -5.41069e-17)
(-2.17286e-05 5.9928e-06 2.53293e-17)
(-1.91159e-05 4.8357e-06 -5.02827e-17)
(-1.68567e-05 3.7566e-06 -6.09815e-17)
(-1.48813e-05 2.781e-06 -5.36795e-17)
(-1.32098e-05 1.89248e-06 -1.08103e-16)
(-1.17691e-05 1.08614e-06 -1.02434e-17)
(-1.05811e-05 3.64859e-07 -8.98252e-17)
(-9.57029e-06 -2.69534e-07 -5.33871e-17)
(-8.76302e-06 -8.13815e-07 -1.20519e-16)
(-8.08381e-06 -1.28956e-06 -1.00081e-17)
(-7.56419e-06 -1.6933e-06 1.40508e-16)
(-7.12753e-06 -2.02474e-06 1.41576e-16)
(-6.81107e-06 -2.27753e-06 -8.45754e-17)
(-6.54102e-06 -2.48258e-06 5.85509e-17)
(-6.36179e-06 -2.64162e-06 1.2619e-16)
(-6.20056e-06 -2.74962e-06 1.14903e-17)
(-6.10734e-06 -2.80437e-06 -1.07147e-16)
(-6.01361e-06 -2.8301e-06 -7.39808e-18)
(-5.97402e-06 -2.8442e-06 2.56457e-17)
(-5.92433e-06 -2.83892e-06 -1.19015e-17)
(-5.91706e-06 -2.80385e-06 -9.52169e-17)
(-5.89896e-06 -2.76331e-06 8.13019e-17)
(-5.91955e-06 -2.72502e-06 -2.40964e-16)
(-5.92627e-06 -2.64941e-06 -9.33862e-17)
(-5.9682e-06 -2.58935e-06 1.70039e-16)
(-6.00157e-06 -2.5172e-06 3.13e-17)
(-6.05626e-06 -2.44866e-06 2.10385e-17)
(-6.10298e-06 -2.36449e-06 -3.25533e-17)
(-6.15094e-06 -2.2878e-06 4.52537e-17)
(-6.20436e-06 -2.22712e-06 2.55546e-16)
(-6.18224e-06 -2.1445e-06 -9.47062e-17)
(-6.41335e-06 -2.1697e-06 2.14533e-18)
(-6.89504e-06 -1.97258e-06 1.81468e-17)
(-6.45046e-06 -1.77484e-06 -1.51003e-16)
(-6.23326e-06 -1.56423e-06 7.08111e-16)
(-6.10445e-06 -1.41419e-06 1.44945e-17)
(-5.94598e-06 -1.25709e-06 -6.57218e-16)
(-5.80109e-06 -1.09032e-06 5.98755e-16)
(-5.62071e-06 -9.13011e-07 3.82706e-16)
(-5.45439e-06 -7.34211e-07 -7.98525e-17)
(-5.2459e-06 -5.44238e-07 9.9126e-18)
(-5.05196e-06 -3.551e-07 -6.37479e-16)
(-4.82123e-06 -1.70198e-07 -1.00413e-15)
(-4.55967e-06 -1.47038e-09 -6.10061e-17)
(-4.44552e-06 2.3088e-07 -2.14379e-16)
(-4.54028e-06 7.01433e-07 3.17214e-16)
(-4.23847e-06 8.31441e-07 -7.38489e-17)
(-3.93422e-06 9.34046e-07 -1.4382e-15)
(-3.62758e-06 1.00649e-06 -4.97848e-17)
(-3.37789e-06 1.02071e-06 4.51495e-16)
(-3.08997e-06 1.07042e-06 2.13333e-16)
(-2.84169e-06 1.06599e-06 5.01256e-16)
(-2.52438e-06 1.03209e-06 4.15967e-16)
(-2.29995e-06 1.11538e-06 6.61493e-16)
(-2.05417e-06 1.199e-06 1.12119e-15)
(-1.80572e-06 1.25854e-06 2.59629e-17)
(-1.5623e-06 1.26184e-06 1.34369e-16)
(-1.34276e-06 1.23423e-06 -1.80606e-16)
(-1.18922e-06 1.1733e-06 -1.64917e-16)
(-1.05769e-06 1.14169e-06 8.42924e-16)
(-9.36634e-07 1.10921e-06 -6.83914e-16)
(-8.14885e-07 1.03737e-06 -4.30277e-17)
(-7.05024e-07 9.42193e-07 -5.80658e-16)
(-6.12129e-07 8.41707e-07 7.62736e-16)
(-5.37448e-07 7.4899e-07 -3.18063e-16)
(-4.81272e-07 6.8213e-07 4.23996e-17)
(-4.33885e-07 6.3198e-07 8.82592e-17)
(-3.94443e-07 6.12889e-07 -1.91255e-15)
(-3.44561e-07 5.66314e-07 7.61455e-16)
(-2.69471e-07 5.82133e-07 1.79981e-16)
(-1.66703e-07 4.56026e-07 6.72517e-18)
(-6.67974e-05 2.88583e-05 -1.36775e-17)
(-6.5413e-05 2.68758e-05 -9.7197e-18)
(-6.10258e-05 2.51399e-05 8.61476e-18)
(-5.6606e-05 2.34509e-05 -1.06453e-18)
(-5.21801e-05 2.1727e-05 -1.191e-17)
(-4.78188e-05 2.00713e-05 3.79004e-17)
(-4.36095e-05 1.84696e-05 1.29755e-17)
(-3.95792e-05 1.69264e-05 -1.01017e-17)
(-3.57805e-05 1.54607e-05 3.17887e-17)
(-3.22218e-05 1.40424e-05 -4.03395e-18)
(-2.89382e-05 1.26952e-05 3.44902e-17)
(-2.59173e-05 1.13884e-05 5.52041e-17)
(-2.31821e-05 1.01584e-05 -3.68523e-17)
(-2.07092e-05 8.97574e-06 4.6372e-17)
(-1.85098e-05 7.87938e-06 -2.80636e-17)
(-1.65535e-05 6.82181e-06 -9.07755e-17)
(-1.48457e-05 5.84415e-06 -6.60381e-18)
(-1.3351e-05 4.91363e-06 2.18899e-17)
(-1.20725e-05 4.07579e-06 1.85423e-17)
(-1.09698e-05 3.28279e-06 -2.34404e-17)
(-1.00479e-05 2.5682e-06 -1.04075e-17)
(-9.26404e-06 1.8976e-06 -3.38845e-18)
(-8.62337e-06 1.31878e-06 -2.54937e-17)
(-8.08288e-06 7.85625e-07 -4.1743e-17)
(-7.65315e-06 3.22088e-07 1.26984e-17)
(-7.29292e-06 -1.0271e-07 5.61233e-17)
(-7.01329e-06 -4.41825e-07 -4.90664e-17)
(-6.77361e-06 -7.39995e-07 4.72303e-17)
(-6.59079e-06 -9.79422e-07 -2.22814e-17)
(-6.42962e-06 -1.19398e-06 4.61966e-17)
(-6.30731e-06 -1.33235e-06 -1.09872e-16)
(-6.1882e-06 -1.45006e-06 -1.16784e-16)
(-6.09842e-06 -1.53038e-06 -8.7148e-18)
(-6.00743e-06 -1.59495e-06 -1.98048e-16)
(-5.93165e-06 -1.59188e-06 -2.37226e-17)
(-5.85502e-06 -1.60345e-06 8.08327e-17)
(-5.78664e-06 -1.58143e-06 3.98059e-17)
(-5.71512e-06 -1.58192e-06 3.12106e-17)
(-5.64866e-06 -1.55801e-06 6.15702e-17)
(-5.58443e-06 -1.54985e-06 1.89229e-16)
(-5.51958e-06 -1.53779e-06 -1.58078e-17)
(-5.32693e-06 -1.5284e-06 -1.31155e-16)
(-5.51311e-06 -1.70391e-06 1.1785e-16)
(-6.43662e-06 -1.69394e-06 -2.65779e-16)
(-6.35815e-06 -1.55745e-06 -4.51914e-16)
(-6.22399e-06 -1.36951e-06 2.55274e-17)
(-6.07842e-06 -1.18455e-06 1.98761e-16)
(-5.92807e-06 -1.00515e-06 -2.89528e-16)
(-5.76106e-06 -8.19641e-07 2.64904e-16)
(-5.59027e-06 -6.37168e-07 1.16692e-16)
(-5.39835e-06 -4.55261e-07 2.15975e-16)
(-5.20408e-06 -2.76944e-07 4.97936e-16)
(-4.9852e-06 -1.04432e-07 5.40872e-16)
(-4.74864e-06 5.09696e-08 -2.2937e-17)
(-4.39738e-06 1.56819e-07 -4.91996e-17)
(-3.99535e-06 1.71112e-07 1.66454e-16)
(-3.77575e-06 3.03347e-07 1.84743e-16)
(-3.57482e-06 4.16474e-07 1.12641e-15)
(-3.34491e-06 5.02267e-07 1.56588e-17)
(-3.14655e-06 5.76035e-07 -1.0577e-15)
(-2.94039e-06 6.28985e-07 1.09741e-16)
(-2.73798e-06 7.11937e-07 -5.13548e-16)
(-2.55173e-06 8.00597e-07 -2.63684e-16)
(-2.33186e-06 8.7548e-07 9.39811e-19)
(-2.10457e-06 9.51433e-07 -9.20649e-16)
(-1.87472e-06 1.02312e-06 1.03941e-16)
(-1.63002e-06 1.04832e-06 5.71399e-17)
(-1.41751e-06 1.01636e-06 -1.02326e-17)
(-1.2552e-06 1.00564e-06 1.32814e-16)
(-1.13032e-06 9.99521e-07 -4.40653e-16)
(-9.92345e-07 9.70547e-07 2.13089e-16)
(-8.62661e-07 9.20312e-07 1.08502e-16)
(-7.38354e-07 8.50926e-07 4.22958e-17)
(-6.31296e-07 7.74006e-07 -1.82661e-15)
(-5.48877e-07 6.99236e-07 -5.39298e-16)
(-4.84247e-07 6.40789e-07 -1.5045e-17)
(-4.30626e-07 6.01645e-07 3.64597e-17)
(-3.87765e-07 5.87004e-07 -1.43927e-15)
(-3.35764e-07 5.42821e-07 4.97134e-16)
(-2.58788e-07 5.60249e-07 -4.05484e-16)
(-1.53298e-07 4.38646e-07 1.07391e-17)
(-6.15408e-05 2.69562e-05 -1.2492e-17)
(-6.26656e-05 2.68199e-05 -5.10691e-18)
(-6.0483e-05 2.59686e-05 1.23591e-17)
(-5.78937e-05 2.49689e-05 8.18487e-18)
(-5.49966e-05 2.38384e-05 -3.79435e-18)
(-5.18923e-05 2.26648e-05 -3.65694e-18)
(-4.86542e-05 2.14593e-05 1.39251e-17)
(-4.53663e-05 2.02311e-05 -1.00191e-17)
(-4.20749e-05 1.89863e-05 -3.13369e-18)
(-3.88487e-05 1.7741e-05 1.54861e-17)
(-3.57164e-05 1.6515e-05 -1.89757e-18)
(-3.27221e-05 1.53016e-05 2.28285e-17)
(-2.98814e-05 1.41176e-05 2.065e-17)
(-2.72248e-05 1.2961e-05 -1.27981e-17)
(-2.47499e-05 1.18477e-05 3.6611e-17)
(-2.24782e-05 1.07663e-05 -1.04073e-17)
(-2.03959e-05 9.73111e-06 -2.52496e-17)
(-1.85181e-05 8.73072e-06 3.12044e-17)
(-1.68224e-05 7.78073e-06 1.58715e-17)
(-1.5317e-05 6.86868e-06 2.34977e-18)
(-1.3976e-05 6.00935e-06 -9.73923e-18)
(-1.28052e-05 5.18366e-06 -6.92477e-17)
(-1.17753e-05 4.40782e-06 3.68136e-18)
(-1.0891e-05 3.66996e-06 -3.64924e-17)
(-1.01223e-05 2.98932e-06 -1.08962e-17)
(-9.47469e-06 2.33971e-06 1.8524e-17)
(-8.91796e-06 1.73921e-06 3.52102e-17)
(-8.45536e-06 1.1802e-06 3.40919e-18)
(-8.0586e-06 6.89603e-07 8.41996e-18)
(-7.73374e-06 2.34809e-07 -1.09543e-17)
(-7.45487e-06 -1.71315e-07 2.80944e-17)
(-7.22492e-06 -5.26527e-07 -5.90517e-17)
(-7.02246e-06 -8.0754e-07 -1.4099e-17)
(-6.8552e-06 -1.06675e-06 3.87787e-17)
(-6.70273e-06 -1.25442e-06 -1.15766e-16)
(-6.56195e-06 -1.40276e-06 -6.01329e-17)
(-6.4283e-06 -1.50137e-06 2.07938e-17)
(-6.29689e-06 -1.57212e-06 -1.70301e-17)
(-6.17231e-06 -1.58658e-06 -3.33281e-17)
(-6.04929e-06 -1.58704e-06 -5.14331e-17)
(-5.92581e-06 -1.55039e-06 3.91587e-17)
(-5.73534e-06 -1.50261e-06 -4.0124e-17)
(-5.42061e-06 -1.47076e-06 -1.14845e-16)
(-4.89803e-06 -1.42358e-06 4.64866e-17)
(-4.8482e-06 -1.34762e-06 -2.38349e-16)
(-4.78921e-06 -1.25927e-06 3.18013e-19)
(-4.73316e-06 -1.16263e-06 1.47449e-17)
(-4.66209e-06 -1.05964e-06 1.70968e-16)
(-4.59298e-06 -9.47749e-07 -3.33621e-16)
(-4.50356e-06 -8.3103e-07 1.43787e-19)
(-4.41413e-06 -7.09881e-07 3.58335e-16)
(-4.30137e-06 -5.81011e-07 -1.18639e-16)
(-4.18896e-06 -4.495e-07 4.96327e-16)
(-4.03355e-06 -3.1272e-07 2.98454e-17)
(-3.88905e-06 -1.79381e-07 -6.52469e-17)
(-3.75938e-06 -2.92183e-08 -6.43353e-17)
(-3.59839e-06 8.07274e-08 -4.20704e-18)
(-3.41307e-06 1.88305e-07 -6.34351e-16)
(-3.23597e-06 2.79851e-07 2.19451e-16)
(-3.04881e-06 3.62827e-07 6.07071e-16)
(-2.86936e-06 4.32471e-07 -1.3439e-16)
(-2.68071e-06 4.98748e-07 1.00792e-15)
(-2.49296e-06 5.64088e-07 1.4885e-17)
(-2.30311e-06 6.26844e-07 -1.8477e-16)
(-2.10794e-06 7.12782e-07 -2.21801e-16)
(-1.89648e-06 7.74423e-07 -2.70735e-16)
(-1.6793e-06 8.08672e-07 5.21075e-16)
(-1.46604e-06 8.29795e-07 1.23189e-16)
(-1.32429e-06 8.26999e-07 2.6286e-16)
(-1.17588e-06 8.39558e-07 -4.81893e-16)
(-1.04137e-06 8.26909e-07 1.51515e-16)
(-8.9616e-07 7.94847e-07 -1.12312e-16)
(-7.6147e-07 7.42447e-07 -1.17102e-15)
(-6.51244e-07 6.92609e-07 -3.83448e-16)
(-5.59804e-07 6.42366e-07 1.39205e-16)
(-4.8776e-07 6.00444e-07 9.83195e-18)
(-4.25721e-07 5.66926e-07 1.81976e-16)
(-3.8034e-07 5.55209e-07 2.68098e-16)
(-3.27251e-07 5.20075e-07 -8.99738e-16)
(-2.48266e-07 5.39354e-07 -2.02939e-16)
(-1.41099e-07 4.20416e-07 -5.13722e-16)
(-4.95041e-05 1.97163e-05 6.81355e-18)
(-5.24461e-05 1.94585e-05 -2.02387e-18)
(-5.25297e-05 1.90722e-05 -9.00868e-18)
(-5.20459e-05 1.86648e-05 -2.63986e-18)
(-5.10963e-05 1.8224e-05 5.94462e-18)
(-4.97308e-05 1.77218e-05 -2.58447e-19)
(-4.80201e-05 1.71697e-05 -4.50331e-18)
(-4.60342e-05 1.65453e-05 1.8589e-18)
(-4.3837e-05 1.58505e-05 -2.01583e-17)
(-4.14939e-05 1.5102e-05 -1.31694e-17)
(-3.9062e-05 1.43223e-05 -1.01651e-17)
(-3.65875e-05 1.35155e-05 -1.96626e-18)
(-3.41167e-05 1.26904e-05 2.68127e-17)
(-3.16864e-05 1.18579e-05 -7.72922e-18)
(-2.93246e-05 1.1032e-05 -3.10196e-17)
(-2.70567e-05 1.02146e-05 1.47802e-17)
(-2.48975e-05 9.41407e-06 -1.00221e-17)
(-2.28633e-05 8.62957e-06 -4.74054e-17)
(-2.09591e-05 7.87047e-06 -6.82357e-18)
(-1.91921e-05 7.13173e-06 -5.62908e-19)
(-1.75607e-05 6.42321e-06 4.05256e-17)
(-1.6067e-05 5.73593e-06 5.2613e-17)
(-1.47043e-05 5.08083e-06 5.02299e-18)
(-1.34725e-05 4.44642e-06 1.9014e-17)
(-1.23606e-05 3.8472e-06 -3.24979e-19)
(-1.1366e-05 3.27086e-06 3.36091e-17)
(-1.04765e-05 2.72977e-06 -1.49562e-17)
(-9.68886e-06 2.20983e-06 -3.48646e-18)
(-8.98931e-06 1.73357e-06 -2.17755e-18)
(-8.37336e-06 1.2844e-06 7.36826e-18)
(-7.83004e-06 8.79089e-07 -2.85159e-18)
(-7.35634e-06 4.91549e-07 2.88847e-17)
(-6.93838e-06 1.58021e-07 -3.88488e-19)
(-6.57251e-06 -1.39795e-07 8.23332e-19)
(-6.25242e-06 -4.12921e-07 2.12038e-17)
(-5.97001e-06 -6.58722e-07 7.08669e-17)
(-5.72005e-06 -8.45876e-07 -4.42148e-17)
(-5.4983e-06 -1.00657e-06 -2.93846e-18)
(-5.30476e-06 -1.12305e-06 4.89776e-17)
(-5.13454e-06 -1.20206e-06 4.60796e-18)
(-4.98388e-06 -1.22658e-06 -8.50599e-17)
(-4.79941e-06 -1.2183e-06 3.69084e-17)
(-4.66481e-06 -1.21415e-06 7.77307e-17)
(-4.65289e-06 -1.19748e-06 2.01306e-16)
(-4.58273e-06 -1.15633e-06 2.11846e-16)
(-4.50671e-06 -1.10939e-06 4.92801e-17)
(-4.43505e-06 -1.04761e-06 -7.55799e-18)
(-4.36094e-06 -9.79814e-07 -1.04037e-16)
(-4.28715e-06 -9.00385e-07 1.19915e-16)
(-4.20644e-06 -8.17259e-07 -5.44714e-17)
(-4.12198e-06 -7.2774e-07 -2.77368e-16)
(-4.02832e-06 -6.34258e-07 -1.76938e-16)
(-3.92714e-06 -5.34751e-07 -7.99215e-17)
(-3.80093e-06 -4.30874e-07 -4.79431e-17)
(-3.65471e-06 -3.29295e-07 4.23723e-17)
(-3.51347e-06 -2.27962e-07 -4.06194e-16)
(-3.37097e-06 -1.28269e-07 -1.92453e-16)
(-3.22234e-06 -3.07836e-08 -2.25977e-16)
(-3.06565e-06 5.84102e-08 -5.52803e-16)
(-2.90784e-06 1.44187e-07 1.25392e-16)
(-2.74473e-06 2.19276e-07 -1.4062e-16)
(-2.578e-06 2.91799e-07 -5.43836e-16)
(-2.41387e-06 3.57544e-07 5.71114e-16)
(-2.24403e-06 4.30377e-07 7.1454e-16)
(-2.07281e-06 4.90552e-07 -1.12854e-16)
(-1.87691e-06 5.57857e-07 -3.32991e-16)
(-1.68738e-06 5.98949e-07 -7.97779e-18)
(-1.48711e-06 6.29441e-07 -6.46365e-17)
(-1.34071e-06 6.56053e-07 1.59068e-16)
(-1.20328e-06 6.73207e-07 1.27657e-16)
(-1.05844e-06 6.74411e-07 1.04694e-16)
(-9.15366e-07 6.49676e-07 3.01824e-16)
(-7.86193e-07 6.32552e-07 5.75309e-16)
(-6.75764e-07 6.07903e-07 2.44255e-16)
(-5.76177e-07 5.74479e-07 5.51221e-17)
(-4.92176e-07 5.44256e-07 -1.3937e-16)
(-4.26414e-07 5.26657e-07 -9.72119e-16)
(-3.76693e-07 5.26811e-07 4.26284e-16)
(-3.19669e-07 4.95092e-07 4.6012e-16)
(-2.38357e-07 5.14163e-07 6.12584e-16)
(-1.29357e-07 4.01367e-07 1.88946e-15)
(-3.26882e-05 7.69766e-06 4.92424e-19)
(-3.60496e-05 7.67579e-06 1.8226e-18)
(-3.76156e-05 8.05792e-06 6.03171e-18)
(-3.87489e-05 8.24195e-06 1.81881e-18)
(-3.94854e-05 8.41359e-06 -3.24242e-18)
(-3.98104e-05 8.49477e-06 -1.44198e-18)
(-3.97398e-05 8.51415e-06 -2.46273e-19)
(-3.93066e-05 8.4611e-06 -6.659e-20)
(-3.85457e-05 8.34654e-06 3.0415e-20)
(-3.75041e-05 8.1627e-06 -8.0375e-18)
(-3.62297e-05 7.92398e-06 9.6843e-18)
(-3.47665e-05 7.63895e-06 -7.07699e-18)
(-3.31616e-05 7.31869e-06 -1.72597e-17)
(-3.14588e-05 6.95859e-06 -1.03236e-17)
(-2.96933e-05 6.56952e-06 -3.77207e-18)
(-2.79029e-05 6.1611e-06 3.2743e-18)
(-2.61125e-05 5.74396e-06 1.41376e-18)
(-2.43514e-05 5.3171e-06 -1.2192e-17)
(-2.26352e-05 4.88892e-06 -1.80755e-17)
(-2.09841e-05 4.46345e-06 -4.89526e-18)
(-1.94071e-05 4.04686e-06 3.11621e-18)
(-1.79173e-05 3.63829e-06 1.95867e-17)
(-1.65162e-05 3.24391e-06 -2.7335e-17)
(-1.52128e-05 2.86096e-06 6.02824e-18)
(-1.4003e-05 2.49128e-06 -2.23573e-17)
(-1.28918e-05 2.13083e-06 1.23663e-17)
(-1.1872e-05 1.78682e-06 3.37538e-17)
(-1.09456e-05 1.45212e-06 -2.59939e-17)
(-1.01029e-05 1.13085e-06 -4.72194e-17)
(-9.34488e-06 8.19459e-07 -1.33378e-17)
(-8.66248e-06 5.26573e-07 9.9208e-17)
(-8.05514e-06 2.487e-07 6.59211e-17)
(-7.51242e-06 -1.26936e-08 5.49415e-17)
(-7.03148e-06 -2.56636e-07 -4.93176e-19)
(-6.60376e-06 -4.54624e-07 -5.80123e-17)
(-6.22789e-06 -6.34758e-07 -6.42563e-17)
(-5.89437e-06 -7.77137e-07 4.87767e-17)
(-5.59964e-06 -8.93062e-07 -2.02063e-17)
(-5.3442e-06 -9.72991e-07 -6.40223e-17)
(-5.12514e-06 -1.03774e-06 4.9787e-17)
(-4.92689e-06 -1.0546e-06 -1.32367e-17)
(-4.71167e-06 -1.03996e-06 2.98758e-19)
(-4.51607e-06 -1.03008e-06 -3.83462e-17)
(-4.36718e-06 -1.01261e-06 3.23627e-18)
(-4.24936e-06 -9.84881e-07 -1.72671e-16)
(-4.14083e-06 -9.57676e-07 -1.14769e-16)
(-4.04334e-06 -9.17803e-07 -2.42464e-17)
(-3.9501e-06 -8.75711e-07 -2.30162e-16)
(-3.86173e-06 -8.23393e-07 -1.81436e-16)
(-3.77133e-06 -7.70907e-07 -5.94159e-17)
(-3.68114e-06 -7.11051e-07 -1.63987e-16)
(-3.58575e-06 -6.49589e-07 1.18349e-16)
(-3.4882e-06 -5.81069e-07 -3.2009e-16)
(-3.37361e-06 -5.07949e-07 -4.52497e-17)
(-3.24903e-06 -4.29769e-07 2.14044e-16)
(-3.12895e-06 -3.46199e-07 4.19965e-17)
(-3.00222e-06 -2.65091e-07 -1.03338e-16)
(-2.87025e-06 -1.80201e-07 9.20916e-16)
(-2.73452e-06 -9.92275e-08 5.36304e-17)
(-2.59738e-06 -1.87995e-08 -7.88581e-16)
(-2.45616e-06 5.52316e-08 1.93111e-16)
(-2.31156e-06 1.25933e-07 -6.6264e-16)
(-2.16797e-06 1.92238e-07 -3.64864e-17)
(-2.02533e-06 2.50641e-07 8.00445e-17)
(-1.87158e-06 3.13495e-07 -1.72255e-15)
(-1.72028e-06 3.60962e-07 4.28754e-17)
(-1.5453e-06 4.05272e-07 7.87282e-17)
(-1.38819e-06 4.45931e-07 -2.46906e-16)
(-1.25864e-06 4.8387e-07 3.22973e-16)
(-1.12939e-06 5.05412e-07 -2.28353e-17)
(-1.00317e-06 5.08888e-07 1.06676e-16)
(-8.7819e-07 5.15791e-07 -7.12157e-16)
(-7.68834e-07 5.09668e-07 -6.83226e-16)
(-6.58643e-07 5.02062e-07 6.1321e-17)
(-5.65411e-07 4.84513e-07 -5.0311e-17)
(-4.82012e-07 4.75854e-07 1.24007e-16)
(-4.20748e-07 4.70022e-07 -6.68409e-16)
(-3.67223e-07 4.7661e-07 8.53183e-17)
(-3.04849e-07 4.58483e-07 -6.87667e-16)
(-2.22725e-07 4.79481e-07 -8.15956e-17)
(-1.13353e-07 3.73289e-07 1.4542e-15)
(-1.56085e-05 -3.5108e-06 2.7133e-18)
(-1.74456e-05 -3.64953e-06 4.04515e-18)
(-1.87905e-05 -3.14231e-06 -1.01343e-18)
(-2.01236e-05 -2.74384e-06 1.98566e-18)
(-2.13875e-05 -2.3517e-06 1.75269e-18)
(-2.25007e-05 -1.99727e-06 -1.57961e-17)
(-2.34132e-05 -1.6704e-06 -9.37356e-18)
(-2.40883e-05 -1.36402e-06 -3.43143e-18)
(-2.451e-05 -1.08526e-06 -1.05412e-18)
(-2.46821e-05 -8.28989e-07 4.02979e-18)
(-2.46076e-05 -6.07144e-07 -9.11004e-18)
(-2.43093e-05 -4.10586e-07 1.24145e-17)
(-2.38107e-05 -2.43238e-07 2.13751e-18)
(-2.31381e-05 -9.8901e-08 7.63871e-18)
(-2.23212e-05 1.39952e-08 1.90278e-17)
(-2.13921e-05 1.0301e-07 1.7157e-17)
(-2.03762e-05 1.67994e-07 1.4934e-17)
(-1.92998e-05 2.12034e-07 5.83709e-18)
(-1.81916e-05 2.34031e-07 2.60894e-17)
(-1.70674e-05 2.37949e-07 -1.2957e-17)
(-1.59504e-05 2.25818e-07 -3.83758e-17)
(-1.48529e-05 2.00675e-07 -8.38645e-18)
(-1.37885e-05 1.64046e-07 -2.42053e-18)
(-1.27682e-05 1.16418e-07 -1.11157e-17)
(-1.17977e-05 6.27404e-08 -8.53575e-18)
(-1.08822e-05 1.23645e-09 -2.84742e-17)
(-1.00254e-05 -6.46828e-08 -5.44069e-18)
(-9.23005e-06 -1.38358e-07 -1.47114e-18)
(-8.49575e-06 -2.1421e-07 3.0488e-17)
(-7.8231e-06 -2.94915e-07 -9.3401e-18)
(-7.20953e-06 -3.76766e-07 1.04557e-17)
(-6.6563e-06 -4.65339e-07 3.18293e-17)
(-6.15687e-06 -5.51612e-07 2.61895e-17)
(-5.71197e-06 -6.39118e-07 6.9679e-17)
(-5.31575e-06 -7.24683e-07 5.22302e-18)
(-4.9651e-06 -8.10182e-07 -4.58974e-17)
(-4.65632e-06 -8.90466e-07 -6.54532e-17)
(-4.38679e-06 -9.61924e-07 2.13004e-17)
(-4.15263e-06 -1.00933e-06 5.94653e-17)
(-3.94923e-06 -1.04575e-06 -3.57487e-17)
(-3.76417e-06 -1.06163e-06 6.22379e-17)
(-3.57942e-06 -1.05768e-06 -1.07361e-17)
(-3.41674e-06 -1.03461e-06 2.29816e-17)
(-3.29004e-06 -1.00959e-06 -1.29023e-16)
(-3.17236e-06 -9.76047e-07 -3.72193e-17)
(-3.06371e-06 -9.44388e-07 3.37699e-17)
(-2.96446e-06 -9.05789e-07 -4.37024e-17)
(-2.87136e-06 -8.70639e-07 -4.89919e-17)
(-2.7847e-06 -8.29359e-07 7.65303e-17)
(-2.70079e-06 -7.89206e-07 3.90748e-18)
(-2.62196e-06 -7.45757e-07 1.4305e-16)
(-2.5444e-06 -6.9804e-07 2.39308e-16)
(-2.47019e-06 -6.43861e-07 2.83639e-17)
(-2.38985e-06 -5.84147e-07 7.12413e-17)
(-2.30719e-06 -5.17222e-07 1.27025e-17)
(-2.22867e-06 -4.44196e-07 1.92181e-16)
(-2.14857e-06 -3.69327e-07 4.33558e-17)
(-2.06698e-06 -2.91123e-07 -3.20732e-16)
(-1.98165e-06 -2.12876e-07 3.08785e-16)
(-1.89536e-06 -1.36359e-07 8.12534e-17)
(-1.80303e-06 -6.35485e-08 -5.96118e-17)
(-1.70968e-06 5.32078e-09 4.76704e-16)
(-1.61197e-06 6.88871e-08 -1.44167e-16)
(-1.51527e-06 1.2777e-07 -1.21554e-16)
(-1.41375e-06 1.77203e-07 8.46028e-16)
(-1.30583e-06 2.21615e-07 -6.35418e-17)
(-1.19728e-06 2.626e-07 -3.78671e-16)
(-1.07994e-06 3.09049e-07 -3.62424e-18)
(-1.00114e-06 3.47143e-07 -1.35287e-16)
(-9.09226e-07 3.74942e-07 -3.55644e-17)
(-8.20858e-07 3.95016e-07 -8.64132e-17)
(-7.33597e-07 4.04085e-07 4.53655e-16)
(-6.47069e-07 4.15188e-07 4.7413e-16)
(-5.67721e-07 4.17745e-07 2.05259e-16)
(-4.90669e-07 4.16238e-07 1.70746e-16)
(-4.26978e-07 4.16206e-07 -1.19522e-16)
(-3.72475e-07 4.26092e-07 7.25564e-16)
(-3.25716e-07 4.36918e-07 1.00231e-17)
(-2.65828e-07 4.32497e-07 8.06746e-16)
(-1.90572e-07 4.42589e-07 -4.1017e-16)
(-9.39974e-08 3.58517e-07 -2.34434e-15)
(-1.0739e-05 -1.39883e-05 9.35524e-18)
(-9.773e-06 -1.40739e-05 -3.35638e-18)
(-9.0216e-06 -1.30542e-05 -4.58601e-18)
(-8.77618e-06 -1.21402e-05 7.12264e-19)
(-8.91675e-06 -1.12686e-05 5.52543e-18)
(-9.34076e-06 -1.04479e-05 7.54812e-18)
(-9.95031e-06 -9.67372e-06 -4.12609e-18)
(-1.06581e-05 -8.93731e-06 4.1182e-19)
(-1.13924e-05 -8.24341e-06 9.21823e-18)
(-1.2097e-05 -7.587e-06 5.18919e-18)
(-1.27263e-05 -6.96806e-06 -4.46888e-18)
(-1.32501e-05 -6.38675e-06 -9.47282e-18)
(-1.36482e-05 -5.84238e-06 5.92734e-19)
(-1.39119e-05 -5.33766e-06 5.09862e-20)
(-1.40373e-05 -4.87151e-06 -8.32128e-19)
(-1.40324e-05 -4.44599e-06 1.69121e-18)
(-1.39023e-05 -4.05357e-06 1.15567e-17)
(-1.36626e-05 -3.70041e-06 5.93171e-18)
(-1.33271e-05 -3.38259e-06 -1.2716e-17)
(-1.29101e-05 -3.09858e-06 2.07715e-17)
(-1.24299e-05 -2.84384e-06 1.41291e-17)
(-1.19004e-05 -2.61888e-06 -5.88093e-18)
(-1.13335e-05 -2.41936e-06 1.40576e-18)
(-1.07463e-05 -2.24633e-06 1.58443e-17)
(-1.01473e-05 -2.09168e-06 1.45156e-17)
(-9.54755e-06 -1.9571e-06 1.71256e-17)
(-8.95526e-06 -1.83803e-06 -1.37105e-17)
(-8.37773e-06 -1.73481e-06 -3.20815e-19)
(-7.81984e-06 -1.64432e-06 1.86101e-17)
(-7.28766e-06 -1.56577e-06 4.01041e-18)
(-6.78269e-06 -1.49468e-06 -2.61522e-17)
(-6.30928e-06 -1.43592e-06 -1.37063e-17)
(-5.86655e-06 -1.38491e-06 -6.89186e-18)
(-5.45649e-06 -1.34177e-06 2.14536e-17)
(-5.079e-06 -1.30181e-06 4.21322e-17)
(-4.73624e-06 -1.27255e-06 4.2889e-17)
(-4.42661e-06 -1.24891e-06 3.06008e-17)
(-4.15227e-06 -1.23555e-06 -2.08065e-17)
(-3.90791e-06 -1.22432e-06 -6.53475e-17)
(-3.68906e-06 -1.22045e-06 2.87864e-17)
(-3.48677e-06 -1.21353e-06 7.8079e-18)
(-3.29705e-06 -1.20501e-06 2.60396e-17)
(-3.13661e-06 -1.19244e-06 -5.20103e-17)
(-2.9985e-06 -1.17845e-06 9.48867e-17)
(-2.87299e-06 -1.15756e-06 -3.50682e-17)
(-2.75879e-06 -1.13046e-06 1.09241e-16)
(-2.65696e-06 -1.08938e-06 3.56587e-17)
(-2.56308e-06 -1.04701e-06 -7.13721e-17)
(-2.47946e-06 -9.96496e-07 5.11612e-17)
(-2.40119e-06 -9.42608e-07 1.23667e-16)
(-2.33213e-06 -8.82742e-07 3.3902e-17)
(-2.26761e-06 -8.21772e-07 -4.319e-17)
(-2.20921e-06 -7.53239e-07 2.29653e-16)
(-2.14769e-06 -6.86103e-07 4.77548e-17)
(-2.08994e-06 -6.12032e-07 -1.14434e-16)
(-2.03335e-06 -5.37497e-07 -2.9383e-16)
(-1.97593e-06 -4.59243e-07 -2.58172e-17)
(-1.91576e-06 -3.81199e-07 -1.99267e-17)
(-1.85235e-06 -3.00495e-07 -2.52887e-16)
(-1.78577e-06 -2.22076e-07 1.96144e-16)
(-1.71272e-06 -1.44618e-07 1.18708e-16)
(-1.63728e-06 -6.91458e-08 2.08464e-16)
(-1.55591e-06 1.83347e-09 1.96502e-16)
(-1.47386e-06 6.75146e-08 -4.36187e-16)
(-1.38472e-06 1.23766e-07 5.38548e-16)
(-1.29645e-06 1.71555e-07 3.46222e-16)
(-1.20219e-06 2.20136e-07 2.22448e-17)
(-1.10587e-06 2.68624e-07 1.15356e-16)
(-1.0192e-06 3.1379e-07 -2.76983e-16)
(-9.42181e-07 3.53411e-07 -5.95475e-17)
(-8.61788e-07 3.77686e-07 -1.97483e-17)
(-7.82426e-07 4.01926e-07 4.83142e-16)
(-7.02807e-07 4.16607e-07 5.50315e-16)
(-6.24106e-07 4.27886e-07 4.84938e-16)
(-5.4854e-07 4.30754e-07 2.12764e-16)
(-4.82622e-07 4.42981e-07 1.0504e-16)
(-4.23485e-07 4.55537e-07 -7.47753e-16)
(-3.65248e-07 4.68416e-07 1.65538e-16)
(-2.91786e-07 4.65071e-07 7.20188e-16)
(-2.0766e-07 4.75386e-07 -1.44847e-16)
(-1.02502e-07 3.83524e-07 -5.445e-16)
(-1.93759e-05 -1.25727e-05 -2.26203e-18)
(-1.66329e-05 -1.274e-05 3.94662e-18)
(-1.36515e-05 -1.1937e-05 1.72953e-18)
(-1.13024e-05 -1.12412e-05 4.83009e-19)
(-9.48992e-06 -1.06151e-05 5.45049e-19)
(-8.1737e-06 -1.00288e-05 1.37325e-18)
(-7.28422e-06 -9.47188e-06 5.0412e-18)
(-6.75166e-06 -8.93589e-06 -2.62811e-20)
(-6.50505e-06 -8.41781e-06 -7.03599e-18)
(-6.47633e-06 -7.91379e-06 -2.25884e-18)
(-6.60366e-06 -7.42703e-06 2.44809e-18)
(-6.83108e-06 -6.95627e-06 -3.44041e-18)
(-7.11174e-06 -6.50293e-06 -9.51565e-19)
(-7.40724e-06 -6.06675e-06 -7.06171e-18)
(-7.68761e-06 -5.65018e-06 2.71537e-18)
(-7.93097e-06 -5.25484e-06 -1.72919e-18)
(-8.11994e-06 -4.87978e-06 -4.24224e-18)
(-8.24828e-06 -4.52664e-06 1.7586e-18)
(-8.30954e-06 -4.19572e-06 3.98922e-18)
(-8.3039e-06 -3.88795e-06 -1.17703e-17)
(-8.23474e-06 -3.60417e-06 -9.83203e-18)
(-8.10695e-06 -3.34195e-06 -2.55382e-18)
(-7.9255e-06 -3.09989e-06 -1.63218e-18)
(-7.70031e-06 -2.88074e-06 -1.16403e-17)
(-7.43774e-06 -2.68083e-06 -1.07097e-17)
(-7.14609e-06 -2.49848e-06 -9.5865e-18)
(-6.83351e-06 -2.33249e-06 3.01329e-17)
(-6.50613e-06 -2.18067e-06 -5.75277e-19)
(-6.17055e-06 -2.04206e-06 -2.83142e-17)
(-5.83286e-06 -1.91587e-06 3.98381e-18)
(-5.49729e-06 -1.79863e-06 1.08296e-17)
(-5.16837e-06 -1.69135e-06 2.50454e-18)
(-4.84836e-06 -1.59193e-06 -7.97749e-18)
(-4.54054e-06 -1.50003e-06 -3.7451e-17)
(-4.24787e-06 -1.41468e-06 -7.49458e-18)
(-3.97244e-06 -1.3361e-06 1.94053e-17)
(-3.71633e-06 -1.26227e-06 2.0146e-17)
(-3.47948e-06 -1.19733e-06 5.49645e-18)
(-3.2593e-06 -1.13926e-06 -1.71867e-17)
(-3.05347e-06 -1.08892e-06 -4.93836e-17)
(-2.86031e-06 -1.041e-06 5.4558e-18)
(-2.683e-06 -9.98568e-07 -3.666e-17)
(-2.52752e-06 -9.63855e-07 2.83337e-17)
(-2.39249e-06 -9.33241e-07 -2.08906e-17)
(-2.27111e-06 -9.00367e-07 6.71951e-17)
(-2.16466e-06 -8.7006e-07 -9.34393e-17)
(-2.06983e-06 -8.36982e-07 3.53355e-17)
(-1.98594e-06 -8.05814e-07 4.73173e-17)
(-1.91113e-06 -7.71752e-07 -9.73645e-17)