/*--------------------------------*- C++ -*----------------------------------*\
| =========                 |                                                 |
| \\      /  F ield         | OpenFOAM: The Open Source CFD Toolbox           |
|  \\    /   O peration     | Version:  2506                                  |
|   \\  /    A nd           | Website:  www.openfoam.com                      |
|    \\/     M anipulation  |                                                 |
\*---------------------------------------------------------------------------*/
FoamFile
{
    version     2.0;
    format      ascii;
    arch        "LSB;label=32;scalar=64";
    class       volSymmTensorField;
    location    "100";
    object      turbulenceProperties:devReff;
}
// * * * * * * * * * * * * * * * * * * * * * * * * * * * * * * * * * * * * * //

dimensions      [0 2 -2 0 0 0 0];

internalField   nonuniform List<symmTensor> 
1340
(
(-1.59112 -4.97027 8.00054e-16 1.58128 5.02897e-16 0.00984155)
(-1.08206 -3.15148 5.75345e-17 1.0699 -1.76754e-16 0.0121609)
(-0.658086 -1.88147 -5.04844e-16 0.66243 1.02045e-15 -0.0043445)
(-0.147597 -0.103767 -2.99145e-16 0.159165 -1.33197e-15 -0.0115675)
(-0.512278 -2.3264 2.77692e-15 0.529621 -2.4841e-15 -0.0173435)
(-0.441211 -1.93537 -1.07e-15 0.451942 5.55961e-16 -0.0107309)
(-0.273008 -1.35345 8.94111e-16 0.306078 -3.18656e-15 -0.0330699)
(-0.872882 -1.8946 3.40988e-15 0.718855 6.90072e-15 0.154027)
(-0.443622 -2.69833 -1.04506e-14 0.444892 6.09602e-16 -0.00126953)
(-0.378211 -2.3357 3.20391e-15 0.379563 -6.49898e-16 -0.00135168)
(-0.205301 -1.70452 3.38529e-15 0.229347 1.35609e-15 -0.0240457)
(-0.909385 -2.12923 -4.77437e-15 0.904329 2.1334e-15 0.00505617)
(-0.385522 -2.92938 3.35403e-15 0.381065 2.19906e-15 0.00445732)
(-0.365213 -2.8097 -6.95783e-15 0.359899 3.89615e-16 0.00531432)
(-0.191081 -2.17974 -7.75433e-15 0.206024 1.72126e-15 -0.0149425)
(-0.729035 -2.56352 5.42151e-15 0.726793 -2.87713e-15 0.00224181)
(-0.207904 -2.32094 -8.35208e-16 0.206273 1.62671e-16 0.00163102)
(-0.291899 -2.90872 -1.88928e-15 0.287024 1.2665e-15 0.00487483)
(-0.167438 -2.56621 4.30673e-17 0.181234 -1.318e-15 -0.0137961)
(-0.484276 -3.02357 -1.21355e-14 0.462916 4.06228e-15 0.0213599)
(-0.0137024 -1.03593 3.03417e-15 0.0131653 -9.88363e-16 0.000537074)
(-0.145292 -2.36135 1.00989e-14 0.141845 -1.15732e-15 0.00344706)
(-0.108505 -2.70525 3.31186e-16 0.121916 -9.4012e-17 -0.0134112)
(-0.248098 -3.44141 2.3912e-15 0.214382 -3.93433e-15 0.0337167)
(0.040546 -0.155798 -2.54637e-15 -0.0412404 3.93805e-16 0.000694444)
(-0.000670164 -1.32152 -1.82982e-15 -0.00305491 -2.83339e-16 0.00372508)
(-0.0162311 -2.42925 1.107e-15 0.0267244 1.05483e-16 -0.0104933)
(-0.0456479 -3.70833 2.73728e-15 0.0075621 -1.16024e-15 0.0380858)
(0.00621463 0.00366151 2.74719e-16 -0.0062633 -7.16091e-18 4.86698e-05)
(0.0545022 -0.428985 -1.85067e-15 -0.0576551 2.74718e-16 0.00315291)
(0.071332 -1.74602 -3.54285e-15 -0.0651781 -8.30576e-17 -0.00615393)
(0.11442 -3.6807 1.27932e-14 -0.151715 -2.71942e-16 0.0372952)
(0.0022851 0.00326532 -3.99386e-17 -0.00228345 -6.53247e-18 -1.6454e-06)
(0.0356906 -0.0598131 6.37462e-16 -0.037047 -4.88974e-17 0.00135639)
(0.107296 -0.944399 7.24005e-15 -0.104602 -5.62952e-16 -0.00269337)
(0.220391 -3.27418 -8.18858e-15 -0.254559 2.97919e-15 0.0341681)
(0.000116939 0.000103817 1.23421e-18 -0.000116706 2.68907e-19 -2.32686e-07)
(0.00580454 0.00115145 -9.58086e-17 -0.00598463 8.52949e-18 0.000180089)
(0.0828201 -0.349534 -1.30031e-15 -0.0816642 2.77412e-16 -0.0011559)
(0.26067 -2.55039 -1.21018e-14 -0.289933 -4.5149e-17 0.0292634)
(7.43231e-06 -1.64497e-06 6.1069e-20 -7.40145e-06 -5.32196e-21 -3.08645e-08)
(0.00165529 0.00125553 4.33754e-17 -0.00171087 -6.46913e-19 5.55726e-05)
(0.0313606 -0.0658438 -1.79935e-16 -0.0308358 -9.64657e-18 -0.000524775)
(0.235876 -1.70438 2.82867e-15 -0.258775 -1.49396e-15 0.022899)
(7.26954e-06 -5.91808e-06 8.191e-20 -7.18391e-06 -4.30957e-20 -8.5629e-08)
(6.47029e-06 3.49462e-06 1.39949e-19 -6.74981e-06 -1.64471e-20 2.79518e-07)
(0.0114089 -0.0108008 4.86306e-17 -0.0111236 1.12268e-18 -0.000285304)
(0.1689 -0.955382 7.14145e-15 -0.184689 2.16799e-16 0.0157891)
(7.66708e-06 -6.0951e-06 -3.19262e-19 -7.54272e-06 5.39681e-20 -1.24367e-07)
(5.23813e-06 -7.15916e-07 -7.3185e-21 -5.50011e-06 -1.36241e-20 2.61977e-07)
(0.00245479 -0.000748496 -4.77444e-17 -0.00237417 2.55274e-18 -8.06231e-05)
(0.09455 -0.434478 -5.09725e-15 -0.103543 1.49459e-16 0.00899316)
(7.9821e-06 -4.85368e-06 4.36505e-19 -7.86165e-06 -2.62385e-20 -1.20454e-07)
(4.77376e-06 -3.70401e-06 -2.25502e-19 -4.98151e-06 1.84088e-20 2.07744e-07)
(0.00104726 -1.61414e-06 -1.06446e-17 -0.00100883 -1.01225e-18 -3.84375e-05)
(0.0392459 -0.1502 2.90565e-15 -0.0432677 -6.9586e-17 0.00402178)
(8.2455e-06 -3.79001e-06 -3.46408e-19 -8.15019e-06 -1.58092e-20 -9.53078e-08)
(4.81806e-06 -5.15403e-06 1.08956e-19 -4.96203e-06 1.94112e-21 1.43974e-07)
(0.000271686 1.01133e-05 1.37371e-17 -0.000261831 -3.15893e-19 -9.85457e-06)
(0.00929224 -0.0300113 -9.7487e-16 -0.010421 4.69935e-17 0.00112876)
(1.11798e-05 -4.20695e-06 4.90008e-20 -1.10858e-05 4.33826e-20 -9.39701e-08)
(5.07433e-06 -5.55639e-06 -1.00076e-20 -5.17361e-06 -4.918e-21 9.92831e-08)
(5.32222e-06 -7.00448e-07 -3.26813e-19 -5.13067e-06 1.31519e-20 -1.9155e-07)
(0.00295607 -0.00806597 1.08451e-16 -0.00340768 -1.66912e-17 0.000451612)
(1.52428e-05 -5.13406e-06 1.36836e-19 -1.51408e-05 -6.01385e-21 -1.01914e-07)
(5.33461e-06 -5.4035e-06 -3.96155e-20 -5.41475e-06 9.93693e-22 8.01474e-08)
(4.62858e-06 -1.96244e-06 1.47182e-20 -4.44742e-06 -7.45117e-21 -1.81156e-07)
(9.82128e-05 -0.000226559 -3.4677e-18 -0.00011634 3.63687e-20 1.81271e-05)
(1.58876e-05 -5.0865e-06 5.41902e-20 -1.57893e-05 -3.9361e-20 -9.82976e-08)
(5.50744e-06 -5.01376e-06 -3.70779e-20 -5.58426e-06 6.43888e-21 7.68244e-08)
(4.23618e-06 -3.08776e-06 2.51576e-19 -4.0529e-06 -3.99143e-21 -1.83281e-07)
(2.80546e-06 -5.64758e-06 1.51016e-19 -3.34119e-06 -1.50828e-20 5.3573e-07)
(1.45085e-05 -4.55131e-06 -3.67794e-19 -1.44196e-05 1.20643e-20 -8.88644e-08)
(6.27667e-06 -5.13341e-06 9.89926e-20 -6.36526e-06 -2.41814e-21 8.85832e-08)
(4.03282e-06 -3.87006e-06 1.58366e-19 -3.85475e-06 1.57265e-21 -1.78076e-07)
(2.65415e-06 -5.04081e-06 3.91012e-19 -3.09925e-06 7.10628e-21 4.45095e-07)
(1.26915e-05 -3.94922e-06 3.3293e-20 -1.26156e-05 2.02964e-20 -7.58959e-08)
(7.99913e-06 -5.9472e-06 -2.92646e-20 -8.1132e-06 -7.28114e-21 1.14071e-07)
(3.91615e-06 -4.27109e-06 -4.57409e-20 -3.75591e-06 1.36084e-21 -1.6024e-07)
(2.6255e-06 -5.05442e-06 -2.83319e-20 -2.99739e-06 1.46055e-20 3.71887e-07)
(1.11216e-05 -3.43438e-06 -9.64965e-21 -1.10594e-05 -1.26452e-20 -6.21526e-08)
(9.6139e-06 -6.6121e-06 -1.43861e-19 -9.74806e-06 9.4573e-21 1.34155e-07)
(3.81918e-06 -4.35224e-06 -2.45398e-19 -3.68273e-06 7.81048e-22 -1.36445e-07)
(2.5658e-06 -5.16962e-06 -1.69172e-19 -2.89029e-06 -9.23009e-22 3.24489e-07)
(9.89464e-06 -3.01116e-06 -1.49156e-19 -9.84457e-06 1.96458e-20 -5.00747e-08)
(1.03988e-05 -6.73863e-06 1.68239e-19 -1.05348e-05 -3.02213e-21 1.35985e-07)
(3.70963e-06 -4.21423e-06 6.55565e-20 -3.59594e-06 -5.5195e-22 -1.13691e-07)
(2.44385e-06 -5.16406e-06 -9.18825e-20 -2.72416e-06 -7.67695e-21 2.80312e-07)
(8.96452e-06 -2.65623e-06 2.77626e-19 -8.92441e-06 2.55171e-21 -4.0109e-08)
(1.0394e-05 -6.4445e-06 -1.7594e-19 -1.0518e-05 -2.96622e-22 1.24012e-07)
(3.71696e-06 -4.10584e-06 -5.97302e-20 -3.61925e-06 -1.09274e-22 -9.77034e-08)
(2.29787e-06 -4.9999e-06 1.96842e-19 -2.52782e-06 4.18793e-21 2.29951e-07)
(8.24911e-06 -2.34726e-06 -3.78778e-20 -8.21651e-06 -1.71859e-20 -3.25952e-08)
(9.6234e-06 -5.76348e-06 9.13685e-20 -9.7244e-06 -2.89463e-21 1.01001e-07)
(4.21512e-06 -4.48096e-06 9.78113e-20 -4.11993e-06 -4.70104e-22 -9.51966e-08)
(2.15712e-06 -4.71129e-06 -1.27521e-19 -2.33825e-06 -1.03892e-21 1.81133e-07)
(7.71738e-06 -2.07965e-06 -4.16068e-20 -7.69118e-06 -1.89849e-21 -2.61994e-08)
(8.55076e-06 -4.95988e-06 -2.21725e-19 -8.62757e-06 3.61213e-22 7.68069e-08)
(5.14645e-06 -5.25643e-06 -2.08541e-19 -5.04712e-06 -4.78091e-22 -9.9332e-08)
(2.03206e-06 -4.34712e-06 1.45391e-19 -2.17384e-06 3.79641e-21 1.41783e-07)
(7.32801e-06 -1.84777e-06 -8.02073e-20 -7.30667e-06 5.66457e-21 -2.13342e-08)
(7.4459e-06 -4.17186e-06 1.01874e-19 -7.50139e-06 1.55904e-20 5.54892e-08)
(5.94897e-06 -5.85056e-06 3.78961e-19 -5.85148e-06 9.91973e-21 -9.74981e-08)
(1.9274e-06 -3.96759e-06 -1.42288e-19 -2.03917e-06 -3.36986e-21 1.1177e-07)
(7.02252e-06 -1.63686e-06 8.308e-20 -7.00529e-06 7.29458e-21 -1.72287e-08)
(6.51969e-06 -3.50682e-06 2.814e-19 -6.55973e-06 -3.20166e-21 4.00409e-08)
(6.07957e-06 -5.76642e-06 2.88019e-20 -5.99634e-06 -1.00019e-21 -8.32348e-08)
(1.97066e-06 -3.85814e-06 8.37123e-20 -2.0652e-06 2.19432e-21 9.45443e-08)
(6.73469e-06 -1.43516e-06 7.28072e-20 -6.72126e-06 -7.77664e-21 -1.34335e-08)
(5.8454e-06 -2.99678e-06 -1.51758e-19 -5.87471e-06 -1.30568e-20 2.93084e-08)
(5.66778e-06 -5.18054e-06 4.93144e-20 -5.60452e-06 -1.9854e-21 -6.32689e-08)
(2.34281e-06 -4.3336e-06 -1.97279e-19 -2.43523e-06 -7.39048e-21 9.24189e-08)
(6.41814e-06 -1.23304e-06 -1.29693e-19 -6.40763e-06 5.431e-22 -1.05058e-08)
(5.38791e-06 -2.61281e-06 -1.02103e-19 -5.4094e-06 4.69286e-21 2.14935e-08)
(5.01725e-06 -4.40329e-06 -2.40601e-19 -4.97217e-06 -6.39758e-21 -4.50763e-08)
(2.72001e-06 -4.73585e-06 1.54223e-19 -2.80748e-06 4.75288e-21 8.74672e-08)
(6.05714e-06 -1.03132e-06 1.47448e-19 -6.04919e-06 2.45892e-21 -7.94491e-09)
(5.06982e-06 -2.30973e-06 1.13051e-19 -5.08576e-06 1.46464e-21 1.59411e-08)
(4.3979e-06 -3.6857e-06 1.09742e-19 -4.36693e-06 2.70062e-21 -3.09755e-08)
(2.84157e-06 -4.64408e-06 -3.78557e-19 -2.91602e-06 -1.57421e-20 7.44525e-08)
(5.6589e-06 -8.33935e-07 -1.75916e-19 -5.65331e-06 -8.29926e-21 -5.58778e-09)
(4.81255e-06 -2.04503e-06 -1.72082e-19 -4.82421e-06 -6.29559e-21 1.16614e-08)
(3.92827e-06 -3.12381e-06 -2.66688e-19 -3.90654e-06 -1.02462e-20 -2.17357e-08)
(2.73496e-06 -4.18355e-06 6.00877e-19 -2.79281e-06 2.95464e-20 5.78431e-08)
(5.24493e-06 -6.47132e-07 8.66352e-20 -5.24109e-06 1.14053e-20 -3.84249e-09)
(4.56144e-06 -1.79458e-06 1.18318e-19 -4.57008e-06 4.91535e-21 8.64207e-09)
(3.6072e-06 -2.70368e-06 1.50588e-19 -3.59205e-06 1.16829e-20 -1.51451e-08)
(2.5388e-06 -3.62115e-06 -2.31519e-19 -2.58184e-06 -1.32601e-20 4.3044e-08)
(4.8385e-06 -4.74791e-07 4.68299e-20 -4.83606e-06 -3.16838e-21 -2.43391e-09)
(4.28913e-06 -1.54857e-06 -1.62742e-19 -4.29509e-06 -9.19626e-21 5.95536e-09)
(3.37933e-06 -2.37245e-06 5.94358e-20 -3.36861e-06 -3.6904e-21 -1.0716e-08)
(2.35316e-06 -3.11638e-06 9.44348e-20 -2.38514e-06 6.06699e-21 3.19888e-08)
(4.65828e-06 6.97064e-07 -1.78629e-19 -4.66113e-06 6.42742e-22 2.84718e-09)
(4.45227e-06 -3.19145e-07 -7.39135e-20 -4.45101e-06 -8.33508e-21 -1.26106e-09)
(3.99624e-06 -1.3093e-06 5.19857e-20 -4.00032e-06 1.13216e-20 4.07335e-09)
(3.19121e-06 -2.08454e-06 -2.46728e-19 -3.18353e-06 -1.12729e-20 -7.67952e-09)
(2.2114e-06 -2.70807e-06 -6.47547e-20 -2.23541e-06 -2.94239e-21 2.40175e-08)
(4.25978e-06 7.48983e-07 1.99958e-19 -4.26236e-06 1.61648e-20 2.57862e-09)
(4.08838e-06 -1.79642e-07 -8.11276e-20 -4.08783e-06 4.59404e-22 -5.44904e-10)
(3.69707e-06 -1.08425e-06 2.10033e-19 -3.69976e-06 8.66676e-21 2.69538e-09)
(3.00958e-06 -1.81631e-06 1.66379e-19 -3.00419e-06 1.3565e-20 -5.38809e-09)
(2.10473e-06 -2.37299e-06 1.91847e-19 -2.12313e-06 1.26476e-20 1.83956e-08)
(3.87955e-06 7.88007e-07 -4.96949e-20 -3.8817e-06 -8.99569e-21 2.15561e-09)
(3.7447e-06 -5.62951e-08 9.38523e-20 -3.74469e-06 7.39197e-21 -1.30873e-11)
(3.40554e-06 -8.7837e-07 -5.54319e-20 -3.40725e-06 -1.05305e-20 1.71231e-09)
(2.82184e-06 -1.56138e-06 -4.03144e-21 -2.81816e-06 -4.35223e-21 -3.67746e-09)
(2.0133e-06 -2.08147e-06 -7.59311e-20 -2.02763e-06 -8.50216e-21 1.43254e-08)
(3.51945e-06 8.15022e-07 2.90511e-20 -3.52131e-06 6.83759e-22 1.85364e-09)
(3.41879e-06 5.16345e-08 -1.21046e-20 -3.41921e-06 -2.48687e-21 4.20499e-10)
(3.12818e-06 -6.93281e-07 -1.40061e-19 -3.12924e-06 -4.56176e-21 1.06641e-09)
(2.63014e-06 -1.32243e-06 -8.92878e-20 -2.62768e-06 -7.92476e-21 -2.45524e-09)
(1.92309e-06 -1.81533e-06 -2.04855e-19 -1.93425e-06 -1.30692e-20 1.11609e-08)
(3.18087e-06 8.30915e-07 -9.36693e-20 -3.18254e-06 -3.97171e-21 1.67067e-09)
(3.11003e-06 1.44661e-07 1.79321e-20 -3.11071e-06 1.74533e-23 6.81958e-10)
(2.86605e-06 -5.28275e-07 1.39592e-19 -2.86677e-06 9.75569e-21 7.24349e-10)
(2.44014e-06 -1.10308e-06 -1.17285e-19 -2.43854e-06 -7.41765e-21 -1.60233e-09)
(1.82861e-06 -1.56883e-06 7.07973e-20 -1.83733e-06 6.48117e-21 8.71711e-09)
(2.86446e-06 8.36375e-07 1.38955e-19 -2.86601e-06 1.47307e-20 1.54023e-09)
(2.81873e-06 2.22871e-07 -3.37873e-20 -2.81963e-06 -6.14033e-23 9.02065e-10)
(2.61827e-06 -3.82598e-07 -1.37036e-19 -2.61883e-06 -1.07148e-20 5.5865e-10)
(2.25608e-06 -9.05024e-07 -2.89261e-20 -2.25508e-06 2.77771e-21 -9.95156e-10)
(1.73015e-06 -1.34188e-06 -1.85246e-20 -1.73684e-06 -1.44128e-21 6.68622e-09)
(2.57054e-06 8.32621e-07 6.8528e-20 -2.57195e-06 3.88346e-22 1.40473e-09)
(2.54568e-06 2.87013e-07 9.43361e-20 -2.54669e-06 8.3003e-21 1.0034e-09)
(2.38419e-06 -2.55379e-07 1.08806e-19 -2.38462e-06 9.74957e-21 4.22936e-10)
(2.07928e-06 -7.28344e-07 2.58212e-19 -2.07869e-06 1.85979e-20 -5.84743e-10)
(1.62955e-06 -1.13542e-06 8.89276e-20 -1.63461e-06 8.30212e-21 5.06422e-09)
(2.29886e-06 8.21096e-07 -5.53136e-20 -2.30019e-06 -7.52929e-21 1.33513e-09)
(2.29115e-06 3.38255e-07 5.85841e-21 -2.29228e-06 -3.95017e-21 1.12581e-09)
(2.16388e-06 -1.45548e-07 -5.50768e-20 -2.16423e-06 -6.33139e-21 3.50751e-10)
(1.91022e-06 -5.72181e-07 -1.04964e-19 -1.90988e-06 -1.33737e-20 -3.36529e-10)
(1.52833e-06 -9.49739e-07 6.13017e-20 -1.53198e-06 4.10649e-21 3.65561e-09)
(2.04889e-06 8.03081e-07 -7.40361e-20 -2.05011e-06 -4.4743e-21 1.21845e-09)
(2.0551e-06 3.77898e-07 -1.40108e-19 -2.05624e-06 -1.08072e-20 1.14003e-09)
(1.95737e-06 -5.18903e-08 -2.14817e-20 -1.9577e-06 3.48365e-22 3.35022e-10)
(1.74898e-06 -4.35243e-07 -8.66091e-20 -1.74885e-06 -6.00052e-21 -1.29621e-10)
(1.42751e-06 -7.83813e-07 -2.76165e-21 -1.43003e-06 -2.65664e-21 2.51972e-09)
(1.82e-06 7.79632e-07 7.91188e-21 -1.82107e-06 4.19174e-21 1.06859e-09)
(1.8371e-06 4.06982e-07 6.85654e-20 -1.83819e-06 7.60005e-21 1.08872e-09)
(1.76462e-06 2.69076e-08 8.98837e-20 -1.76492e-06 7.19206e-21 2.98936e-10)
(1.59574e-06 -3.16219e-07 -1.03611e-20 -1.59574e-06 1.5413e-21 -1.61658e-13)
(1.32771e-06 -6.36755e-07 -1.5109e-19 -1.32928e-06 -1.16891e-20 1.57752e-09)
(1.61159e-06 7.51529e-07 1.22447e-19 -1.61249e-06 1.16778e-20 9.03604e-10)
(1.63692e-06 4.26532e-07 -5.12133e-20 -1.63792e-06 -6.79379e-21 1.00093e-09)
(1.58557e-06 9.19237e-08 -7.32613e-20 -1.58585e-06 -8.43237e-21 2.75875e-10)
(1.45075e-06 -2.1387e-07 7.2305e-20 -1.45089e-06 5.27463e-21 1.43544e-10)
(1.22951e-06 -5.07113e-07 1.52282e-19 -1.2303e-06 1.53206e-20 7.83998e-10)
(1.42271e-06 7.19817e-07 -1.73742e-21 -1.42349e-06 -1.84723e-21 7.80503e-10)
(1.45396e-06 4.37574e-07 -8.8316e-20 -1.45492e-06 -7.15579e-21 9.60082e-10)
(1.42009e-06 1.44337e-07 -2.03006e-20 -1.42035e-06 -2.29933e-21 2.54667e-10)
(1.31426e-06 -1.26937e-07 -6.42564e-20 -1.31452e-06 -5.97653e-21 2.61783e-10)
(1.13365e-06 -3.93808e-07 -6.84429e-21 -1.1338e-06 -3.72785e-21 1.50276e-10)
(1.16938e-06 9.11006e-07 -7.7873e-22 -1.17011e-06 -5.02946e-22 7.34029e-10)
(1.25234e-06 6.85554e-07 1.79452e-20 -1.25299e-06 1.50307e-21 6.53221e-10)
(1.28753e-06 4.41452e-07 2.6777e-20 -1.28839e-06 3.80696e-21 8.59859e-10)
(1.26784e-06 1.85503e-07 -1.02918e-19 -1.26805e-06 -8.10667e-21 2.1166e-10)
(1.1864e-06 -5.41033e-08 8.84915e-20 -1.18673e-06 8.97046e-21 3.3227e-10)
(1.04072e-06 -2.95692e-07 -1.48166e-19 -1.04035e-06 -1.27172e-20 -3.64021e-10)
(1.02181e-06 8.42775e-07 -1.77011e-20 -1.02245e-06 -1.77813e-21 6.32927e-10)
(1.09923e-06 6.49652e-07 -2.4951e-20 -1.09981e-06 -3.40238e-21 5.78356e-10)
(1.13677e-06 4.39351e-07 -2.84051e-20 -1.13755e-06 -3.68115e-21 7.77233e-10)
(1.12839e-06 2.16824e-07 1.3221e-19 -1.12855e-06 1.48704e-20 1.63853e-10)
(1.06727e-06 6.01341e-09 -9.81479e-21 -1.06765e-06 -2.93403e-21 3.74798e-10)
(9.51325e-07 -2.11557e-07 1.27911e-19 -9.50531e-07 1.3446e-20 -7.93858e-10)
(8.90488e-07 7.77592e-07 1.73668e-20 -8.91036e-07 2.94497e-21 5.48725e-10)
(9.6221e-07 6.12753e-07 -4.52402e-20 -9.62699e-07 -4.06785e-21 4.89192e-10)
(1.00079e-06 4.3227e-07 8.33431e-22 -1.0015e-06 9.71651e-22 7.11037e-10)
(1.0012e-06 2.39569e-07 5.91448e-20 -1.00132e-06 3.72582e-21 1.18437e-10)
(9.5681e-07 5.48459e-08 -9.29182e-20 -9.57224e-07 -7.74926e-21 4.1379e-10)
(8.65936e-07 -1.40106e-07 -5.52353e-20 -8.64797e-07 -6.31679e-21 -1.13862e-09)
(7.74108e-07 7.15733e-07 6.21171e-20 -7.74569e-07 5.65e-21 4.60905e-10)
(8.40018e-07 5.75514e-07 3.21895e-20 -8.40432e-07 3.79382e-21 4.13989e-10)
(8.78568e-07 4.21197e-07 7.11558e-20 -8.79208e-07 6.83114e-21 6.39883e-10)
(8.85663e-07 2.54928e-07 -7.83119e-20 -8.85735e-07 -7.73055e-21 7.21661e-11)
(8.54853e-07 9.37124e-08 1.33998e-19 -8.55292e-07 1.43374e-20 4.39385e-10)
(7.84945e-07 -8.01033e-08 6.01521e-20 -7.83525e-07 6.59329e-21 -1.41986e-09)
(6.71273e-07 6.57409e-07 -7.21993e-20 -6.71672e-07 -8.40676e-21 3.98654e-10)
(7.31474e-07 5.3846e-07 -1.20266e-20 -7.31817e-07 -1.97358e-21 3.43158e-10)
(7.69182e-07 4.06944e-07 -8.37365e-20 -7.69753e-07 -1.00935e-20 5.70864e-10)
(7.81132e-07 2.64049e-07 9.53916e-20 -7.81169e-07 1.06643e-20 3.66415e-11)
(7.61175e-07 1.2392e-07 9.49673e-21 -7.61622e-07 -3.4988e-22 4.4702e-10)
(7.08616e-07 -3.03151e-08 -3.33445e-20 -7.06993e-07 -4.7139e-21 -1.6231e-09)
(5.80745e-07 6.02732e-07 2.91302e-20 -5.81088e-07 4.05011e-21 3.42652e-10)
(6.35366e-07 5.02113e-07 -3.00627e-20 -6.3565e-07 -2.98751e-21 2.83083e-10)
(6.71595e-07 3.90365e-07 -1.57388e-20 -6.72099e-07 -5.73924e-22 5.04184e-10)
(6.86919e-07 2.6795e-07 -1.01486e-20 -6.86913e-07 -2.01506e-21 -6.05577e-12)
(6.755e-07 1.46601e-07 -3.54891e-20 -6.75951e-07 -3.46247e-21 4.50411e-10)
(6.37142e-07 1.04129e-08 -1.06604e-19 -6.35367e-07 -1.05131e-20 -1.77409e-09)
(5.01226e-07 5.51659e-07 -6.7362e-21 -5.01549e-07 3.02526e-22 3.23319e-10)
(5.50564e-07 4.66746e-07 7.95972e-21 -5.50819e-07 1.14815e-21 2.55729e-10)
(5.84893e-07 3.72083e-07 2.83626e-20 -5.85352e-07 3.2909e-21 4.59365e-10)
(6.02362e-07 2.6757e-07 -7.8845e-21 -6.02324e-07 -1.15879e-21 -3.8065e-11)
(5.97499e-07 1.62885e-07 2.34959e-20 -5.97945e-07 1.96194e-21 4.4527e-10)
(5.70606e-07 4.31896e-08 8.59369e-20 -5.68722e-07 1.00487e-20 -1.88419e-09)
(4.31602e-07 5.04201e-07 1.387e-19 -4.31922e-07 1.5761e-20 3.20321e-10)
(4.75935e-07 4.32714e-07 8.59722e-21 -4.76172e-07 1.3119e-21 2.37297e-10)
(5.0808e-07 3.5272e-07 5.68786e-21 -5.08498e-07 2.9852e-22 4.18279e-10)
(5.26739e-07 2.6375e-07 -5.05741e-20 -5.2668e-07 -4.62951e-21 -5.95585e-11)
(5.26809e-07 1.73753e-07 -8.60913e-20 -5.27243e-07 -9.30999e-21 4.33991e-10)
(5.0906e-07 6.90319e-08 -1.54524e-20 -5.07108e-07 -2.01542e-21 -1.95235e-09)
(3.70772e-07 4.60276e-07 -4.37936e-20 -3.71099e-07 -6.00686e-21 3.26756e-10)
(4.10462e-07 4.00227e-07 1.86036e-20 -4.10697e-07 1.91476e-21 2.35272e-10)
(4.4027e-07 3.32794e-07 -2.11492e-20 -4.40671e-07 -2.90768e-21 4.01665e-10)
(4.59363e-07 2.57272e-07 9.99886e-20 -4.59289e-07 1.1115e-20 -7.37797e-11)
(4.63025e-07 1.80139e-07 7.05743e-20 -4.63448e-07 8.4716e-21 4.23516e-10)
(4.52449e-07 8.88861e-08 7.58229e-20 -4.50472e-07 7.88953e-21 -1.97635e-09)
(2.76543e-07 4.63031e-07 3.44095e-20 -2.76836e-07 3.83045e-21 2.9289e-10)
(3.17777e-07 4.19766e-07 5.37354e-20 -3.18071e-07 7.04017e-21 2.94048e-10)
(3.53157e-07 3.69437e-07 -1.66085e-20 -3.53369e-07 -2.22934e-21 2.12122e-10)
(3.80528e-07 3.12729e-07 -3.88076e-20 -3.80913e-07 -4.2733e-21 3.84758e-10)
(3.9951e-07 2.48775e-07 -6.66606e-20 -3.99439e-07 -8.16181e-21 -7.10115e-11)
(4.05694e-07 1.82863e-07 -2.07505e-20 -4.06119e-07 -2.48875e-21 4.2407e-10)
(4.00664e-07 1.03659e-07 -1.28955e-19 -3.98703e-07 -1.5214e-20 -1.9608e-09)
(2.3567e-07 4.1865e-07 -5.14708e-20 -2.3588e-07 -6.3056e-21 2.10101e-10)
(2.71714e-07 3.82508e-07 3.87295e-20 -2.71954e-07 3.78045e-21 2.39331e-10)
(3.03097e-07 3.40386e-07 -4.57732e-20 -3.03298e-07 -5.27917e-21 2.01755e-10)
(3.28062e-07 2.92801e-07 -1.06347e-20 -3.28441e-07 -5.35035e-22 3.7966e-10)
(3.46518e-07 2.38796e-07 2.22952e-20 -3.46467e-07 2.35325e-21 -5.09891e-11)
(3.54383e-07 1.82635e-07 4.66255e-20 -3.54811e-07 5.78462e-21 4.28629e-10)
(3.5354e-07 1.14154e-07 -1.76358e-20 -3.51631e-07 -8.30794e-22 -1.90893e-09)
(2.00312e-07 3.78485e-07 3.80592e-20 -2.00445e-07 5.42261e-21 1.32677e-10)
(2.31749e-07 3.48323e-07 -7.28759e-20 -2.31946e-07 -8.92679e-21 1.96878e-10)
(2.59493e-07 3.13157e-07 -6.82161e-21 -2.59682e-07 -7.55539e-22 1.88737e-10)
(2.82116e-07 2.73315e-07 9.65882e-20 -2.82488e-07 1.1055e-20 3.71739e-10)
(2.99744e-07 2.2784e-07 -9.5463e-20 -2.99714e-07 -1.11828e-20 -3.01743e-11)
(3.08619e-07 1.80126e-07 4.52125e-20 -3.09051e-07 5.19668e-21 4.32012e-10)
(3.10872e-07 1.21111e-07 5.68717e-20 -3.09035e-07 5.98394e-21 -1.83714e-09)
(1.69805e-07 3.42173e-07 6.17295e-20 -1.69873e-07 7.4847e-21 6.76508e-11)
(1.97169e-07 3.17039e-07 7.04574e-22 -1.97309e-07 5.21638e-22 1.40217e-10)
(2.21606e-07 2.87731e-07 7.71844e-21 -2.21766e-07 1.11184e-21 1.60139e-10)
(2.41967e-07 2.54465e-07 -1.132e-19 -2.42314e-07 -1.38298e-20 3.47212e-10)
(2.58573e-07 2.16284e-07 -3.94052e-21 -2.58544e-07 -5.06361e-22 -2.91643e-11)
(2.67944e-07 1.75855e-07 8.01209e-20 -2.68369e-07 9.69613e-21 4.25069e-10)
(2.72406e-07 1.25173e-07 -1.57933e-19 -2.70656e-07 -1.88227e-20 -1.74966e-09)
(1.43535e-07 3.09393e-07 1.5472e-20 -1.43545e-07 1.66222e-21 1.04847e-11)
(1.67306e-07 2.88462e-07 -2.0758e-20 -1.67396e-07 -2.29345e-21 8.95519e-11)
(1.88785e-07 2.64071e-07 -1.18083e-20 -1.88896e-07 -1.59264e-21 1.11088e-10)
(2.07006e-07 2.36365e-07 3.14976e-20 -2.07302e-07 4.57203e-21 2.96588e-10)
(2.22456e-07 2.04395e-07 -5.65976e-20 -2.22405e-07 -6.82601e-21 -5.07141e-11)
(2.31906e-07 1.70239e-07 6.22753e-20 -2.3231e-07 7.22192e-21 4.03437e-10)
(2.37871e-07 1.26855e-07 -2.75087e-20 -2.36212e-07 -2.71599e-21 -1.65815e-09)
(1.20927e-07 2.79863e-07 8.29248e-21 -1.20896e-07 7.28858e-22 -3.12752e-11)
(1.41573e-07 2.62433e-07 4.50109e-20 -1.41599e-07 5.66928e-21 2.60661e-11)
(1.60412e-07 2.42158e-07 -4.03992e-21 -1.60453e-07 -3.54463e-22 4.08708e-11)
(1.76634e-07 2.19111e-07 2.66686e-20 -1.76864e-07 2.57789e-21 2.29964e-10)
(1.90862e-07 1.92391e-07 -7.73092e-21 -1.90783e-07 -1.04287e-21 -7.90572e-11)
(2.0011e-07 1.63606e-07 6.23202e-20 -2.00493e-07 7.4373e-21 3.83207e-10)
(2.07015e-07 1.26602e-07 -6.76873e-20 -2.05462e-07 -7.87386e-21 -1.55318e-09)
(1.01523e-07 2.5327e-07 -2.95491e-20 -1.01476e-07 -3.9457e-21 -4.67021e-11)
(1.1944e-07 2.38758e-07 1.66154e-20 -1.19428e-07 1.87301e-21 -1.19103e-11)
(1.35932e-07 2.21892e-07 2.17034e-20 -1.35925e-07 2.68843e-21 -7.49034e-12)
(1.50317e-07 2.02733e-07 -1.06366e-19 -1.50487e-07 -1.29281e-20 1.70204e-10)
(1.63307e-07 1.80458e-07 -7.52529e-20 -1.632e-07 -9.31586e-21 -1.06132e-10)
(1.72152e-07 1.5626e-07 5.02523e-20 -1.72508e-07 5.71727e-21 3.56132e-10)
(1.79565e-07 1.24815e-07 -6.49658e-21 -1.7812e-07 -6.97972e-22 -1.4454e-09)
(6.83475e-08 2.39399e-07 3.12579e-21 -6.83375e-08 5.92166e-22 -1.002e-11)
(8.4933e-08 2.29213e-07 -3.55042e-20 -8.48915e-08 -4.14005e-21 -4.15201e-11)
(1.00451e-07 2.17142e-07 2.45803e-20 -1.00428e-07 2.78477e-21 -2.38271e-11)
(1.14846e-07 2.03146e-07 -3.77534e-20 -1.14814e-07 -4.92098e-21 -3.2774e-11)
(1.27555e-07 1.87257e-07 2.54872e-21 -1.27672e-07 6.27923e-22 1.16918e-10)
(1.39331e-07 1.68717e-07 -1.4635e-20 -1.39187e-07 -1.27872e-21 -1.43347e-10)
(1.47642e-07 1.48427e-07 9.63649e-21 -1.47953e-07 8.36737e-22 3.10808e-10)
(1.55244e-07 1.21811e-07 -3.20284e-20 -1.53887e-07 -3.54272e-21 -1.35673e-09)
(5.65316e-08 2.1589e-07 2.15126e-20 -5.65543e-08 2.7218e-21 2.2678e-11)
(7.08134e-08 2.07415e-07 5.84772e-20 -7.08036e-08 7.48332e-21 -9.74032e-12)
(8.42091e-08 1.97386e-07 -4.99463e-20 -8.42007e-08 -6.20122e-21 -8.43255e-12)
(9.67464e-08 1.85788e-07 -5.42605e-20 -9.67005e-08 -6.38913e-21 -4.59209e-11)
(1.07934e-07 1.72621e-07 -1.94271e-20 -1.08007e-07 -2.66485e-21 7.31093e-11)
(1.18545e-07 1.57223e-07 5.71311e-20 -1.18362e-07 7.08893e-21 -1.82419e-10)
(1.26244e-07 1.40252e-07 -4.35789e-20 -1.26492e-07 -5.47164e-21 2.48265e-10)
(1.33783e-07 1.17819e-07 7.74736e-20 -1.32499e-07 9.49074e-21 -1.28414e-09)
(4.648e-08 1.94768e-07 1.9339e-20 -4.65156e-08 2.53481e-21 3.56022e-11)
(5.8774e-08 1.87718e-07 -2.67109e-20 -5.87816e-08 -3.59967e-21 7.59887e-12)
(7.03397e-08 1.79391e-07 -3.4236e-21 -7.03367e-08 -3.5174e-22 -3.07415e-12)
(8.12463e-08 1.69764e-07 6.63034e-20 -8.11872e-08 8.60988e-21 -5.91637e-11)
(9.10691e-08 1.58839e-07 -3.90654e-20 -9.10983e-08 -5.13872e-21 2.92574e-11)
(1.00575e-07 1.46052e-07 -1.35096e-20 -1.00349e-07 -1.52276e-21 -2.25795e-10)
(1.07629e-07 1.31859e-07 -4.17972e-20 -1.07801e-07 -4.84615e-21 1.71074e-10)
(1.1492e-07 1.1302e-07 8.57478e-21 -1.13691e-07 7.95329e-22 -1.22946e-09)
(3.79863e-08 1.75901e-07 3.60881e-20 -3.80679e-08 4.39024e-21 8.16284e-11)
(4.85563e-08 1.7003e-07 -1.82344e-20 -4.86207e-08 -2.18853e-21 6.4377e-11)
(5.85403e-08 1.63089e-07 9.69459e-21 -5.85949e-08 1.10115e-21 5.46393e-11)
(6.80168e-08 1.55068e-07 4.74779e-20 -6.8013e-08 6.0121e-21 -3.77233e-12)
(7.66264e-08 1.4597e-07 -1.52186e-19 -7.66815e-08 -1.87998e-20 5.51228e-11)
(8.51206e-08 1.35313e-07 1.07765e-19 -8.49126e-08 1.30825e-20 -2.08032e-10)
(9.15323e-08 1.23414e-07 4.35041e-20 -9.16749e-08 5.50372e-21 1.42648e-10)
(9.84498e-08 1.07632e-07 9.95294e-21 -9.73128e-08 1.06004e-21 -1.13699e-09)
(3.06681e-08 1.59047e-07 -4.07662e-20 -3.06735e-08 -5.36845e-21 5.39871e-12)
(3.97279e-08 1.54171e-07 3.18825e-21 -3.97456e-08 4.50491e-22 1.76547e-11)
(4.83159e-08 1.4839e-07 -1.79697e-20 -4.83444e-08 -2.17618e-21 2.84346e-11)
(5.65448e-08 1.41712e-07 4.1162e-20 -5.65177e-08 4.97975e-21 -2.7171e-11)
(6.40787e-08 1.34129e-07 2.76887e-20 -6.40965e-08 3.83831e-21 1.77528e-11)
(7.16641e-08 1.25221e-07 -1.79351e-20 -7.14087e-08 -2.21714e-21 -2.55405e-10)
(7.74853e-08 1.15204e-07 -1.98274e-20 -7.75212e-08 -2.61945e-21 3.58907e-11)
(8.39903e-08 1.01975e-07 -3.25088e-20 -8.28483e-08 -3.89984e-21 -1.14207e-09)
(2.47009e-08 1.44273e-07 -2.53802e-20 -2.47777e-08 -3.16881e-21 7.68811e-11)
(3.2456e-08 1.40186e-07 2.75456e-21 -3.25687e-08 4.18416e-22 1.1265e-10)
(3.98244e-08 1.35349e-07 6.20606e-20 -3.99692e-08 7.65037e-21 1.44723e-10)
(4.69438e-08 1.2976e-07 -1.25547e-22 -4.70414e-08 3.56274e-23 9.75858e-11)
(5.35125e-08 1.2341e-07 -4.76703e-20 -5.36412e-08 -6.05835e-21 1.2869e-10)
(6.02297e-08 1.1592e-07 9.73458e-20 -6.00878e-08 1.21603e-20 -1.41882e-10)
(6.54862e-08 1.07409e-07 -1.84069e-20 -6.5566e-08 -2.39453e-21 7.97167e-11)
(7.1519e-08 9.62576e-08 6.09561e-20 -7.05362e-08 7.67119e-21 -9.82853e-10)
(2.03367e-08 1.3259e-07 -4.93462e-20 -2.0473e-08 -6.17214e-21 1.36219e-10)
(2.7105e-08 1.29036e-07 5.30387e-20 -2.73195e-08 6.70958e-21 2.14491e-10)
(3.35405e-08 1.24838e-07 -8.71454e-20 -3.38211e-08 -1.11939e-20 2.80609e-10)
(3.97658e-08 1.20021e-07 2.22386e-20 -4.00279e-08 2.81135e-21 2.62138e-10)
(4.55399e-08 1.14558e-07 2.83217e-20 -4.58373e-08 3.60264e-21 2.97407e-10)
(5.15221e-08 1.08081e-07 2.51777e-20 -5.15707e-08 2.70585e-21 4.86282e-11)
(5.62315e-08 1.00671e-07 -7.86451e-20 -5.64844e-08 -9.4125e-21 2.52913e-10)
(6.19183e-08 9.11908e-08 4.11896e-20 -6.12066e-08 4.70852e-21 -7.11669e-10)
(1.05169e-08 1.25614e-07 1.00651e-20 -1.02731e-08 1.31836e-21 -2.43763e-10)
(1.66595e-08 1.23153e-07 2.78637e-20 -1.65567e-08 3.69837e-21 -1.02836e-10)
(2.26096e-08 1.19991e-07 -1.09247e-20 -2.26015e-08 -1.36012e-21 -8.17853e-12)
(2.83078e-08 1.16303e-07 -1.7291e-20 -2.83547e-08 -2.0769e-21 4.68636e-11)
(3.38604e-08 1.12097e-07 4.61058e-20 -3.3861e-08 5.71703e-21 6.02292e-13)
(3.90067e-08 1.07311e-07 -2.78926e-20 -3.90133e-08 -3.49473e-21 6.53473e-12)
(4.4394e-08 1.01635e-07 -9.33214e-20 -4.41317e-08 -1.16774e-20 -2.62266e-10)
(4.86258e-08 9.5066e-08 1.0815e-19 -4.84963e-08 1.36402e-20 -1.29508e-10)
(5.38559e-08 8.68645e-08 -5.91838e-20 -5.2783e-08 -7.49838e-21 -1.07297e-09)
(8.42875e-09 1.16567e-07 2.83689e-21 -8.27908e-09 3.36714e-22 -1.49675e-10)
(1.37761e-08 1.14432e-07 -8.52244e-21 -1.38662e-08 -1.33464e-21 9.00928e-11)
(1.89786e-08 1.1168e-07 6.1459e-20 -1.92376e-08 7.77436e-21 2.59062e-10)
(2.40565e-08 1.08468e-07 -3.37595e-20 -2.43974e-08 -4.1457e-21 3.40919e-10)
(2.90374e-08 1.04775e-07 -2.38677e-20 -2.93646e-08 -3.17459e-21 3.27267e-10)
(3.36464e-08 1.00535e-07 -1.13007e-20 -3.40126e-08 -1.35548e-21 3.66242e-10)
(3.84914e-08 9.5502e-08 7.91128e-20 -3.86426e-08 1.00418e-20 1.51141e-10)
(4.228e-08 8.96571e-08 -2.69698e-20 -4.25967e-08 -3.09465e-21 3.16712e-10)
(4.70446e-08 8.26531e-08 -5.32527e-20 -4.6577e-08 -6.90352e-21 -4.67584e-10)
(6.13854e-09 1.07009e-07 -6.97091e-22 -5.52656e-09 -8.01057e-23 -6.11976e-10)
(1.06277e-08 1.05158e-07 -5.5822e-20 -1.02298e-08 -7.20569e-21 -3.97874e-10)
(1.50194e-08 1.02835e-07 -4.81095e-20 -1.47569e-08 -6.10631e-21 -2.62448e-10)
(1.93695e-08 1.00142e-07 1.69819e-20 -1.91435e-08 2.23556e-21 -2.25979e-10)
(2.36488e-08 9.70493e-08 -1.31066e-20 -2.33895e-08 -1.73878e-21 -2.59254e-10)
(2.76137e-08 9.34814e-08 3.21878e-20 -2.73842e-08 4.27518e-21 -2.2951e-10)
(3.18945e-08 8.91811e-08 -6.44621e-20 -3.14344e-08 -8.70559e-21 -4.60118e-10)
(3.53535e-08 8.39739e-08 1.99914e-19 -3.49161e-08 2.54232e-20 -4.3742e-10)
(3.97249e-08 7.76203e-08 -9.93877e-20 -3.83799e-08 -1.24799e-20 -1.34501e-09)
(5.19494e-09 9.8787e-08 -9.99668e-22 -5.45129e-09 -5.3665e-23 2.56352e-10)
(9.23041e-09 9.71046e-08 -5.22608e-20 -9.83469e-09 -6.59267e-21 6.04278e-10)
(1.32065e-08 9.4995e-08 1.09688e-19 -1.40539e-08 1.39718e-20 8.47423e-10)
(1.71661e-08 9.25391e-08 6.95497e-21 -1.81341e-08 9.04522e-22 9.67963e-10)
(2.10076e-08 8.97253e-08 -6.30806e-20 -2.20291e-08 -7.76945e-21 1.0215e-09)
(2.44949e-08 8.65176e-08 7.34847e-20 -2.56294e-08 9.11305e-21 1.1345e-09)
(2.81423e-08 8.27792e-08 -1.40332e-19 -2.92093e-08 -1.7732e-20 1.06701e-09)
(3.09859e-08 7.84883e-08 1.28886e-19 -3.23237e-08 1.58457e-20 1.33772e-09)
(3.47705e-08 7.38827e-08 -1.51907e-19 -3.56961e-08 -1.86764e-20 9.25607e-10)