/*--------------------------------*- C++ -*----------------------------------*\
| =========                 |                                                 |
| \\      /  F ield         | OpenFOAM: The Open Source CFD Toolbox           |
|  \\    /   O peration     | Version:  2506                                  |
|   \\  /    A nd           | Website:  www.openfoam.com                      |
|    \\/     M anipulation  |                                                 |
\*---------------------------------------------------------------------------*/
FoamFile
{
    version     2.0;
    format      ascii;
    arch        "LSB;label=32;scalar=64";
    class       volScalarField;
    location    "100";
    object      turbulenceProperties:L;
}
// * * * * * * * * * * * * * * * * * * * * * * * * * * * * * * * * * * * * * //

dimensions      [0 1 0 0 0 0 0];

internalField   nonuniform List<scalar> 
1340
(
0.0641747
0.0694421
0.074278
0.123735
0.176044
0.186623
0.200042
0.204567
0.217775
0.243125
0.273252
0.319932
0.224653
0.260997
0.304106
0.397891
0.221754
0.263428
0.314439
0.441355
0.220738
0.260605
0.313384
0.458628
0.235368
0.259121
0.30719
0.458781
0.114603
0.262324
0.299074
0.450152
0.0621682
0.277305
0.287983
0.437617
0.0219319
0.150127
0.265503
0.422597
0
0.0862636
0.203373
0.402964
0
0
0.167259
0.375315
6.0134
0
0.102503
0.335718
0.43009
0
0.0828326
0.278728
0.0714162
13.5913
0.0514945
0.185881
0.0306338
4.71785
0
0.148614
0.0256929
0.836237
0
0.0372099
0.0256073
0.190839
12.745
0
0.0266304
0.0467177
7.98471
0
0.028157
0.0330854
4.52854
0
0.0299231
0.0297792
1.83626
0
0.031781
0.0291968
0.945199
1.5909
0.0335967
0.0296115
0.0840121
10.8513
0.0352865
0.0307952
0.0476024
5.47411
0.0366791
0.0325381
0.0380687
1.04577
0.0377017
0.0348466
0.0354508
0.239263
0.0384734
0.0375129
0.0356347
0.0748952
0.039231
0.0400897
0.0371279
0.0490626
0.0401676
0.0421738
0.0395644
0.0437591
0.0413723
0.0437217
0.0426135
0.0436059
0.0428638
0.045024
0.0457376
0.0455211
0.0446048
0.0463953
0.0484316
0.0484551
0.0465245
0.048039
0.050644
0.0517202
0.0472818
0.0485701
0.0500054
0.0526605
0.0548073
0.0493396
0.0507332
0.0522499
0.0547775
0.0576025
0.0515727
0.0530331
0.0547028
0.0571542
0.0602833
0.0539887
0.0555011
0.0573243
0.0598103
0.0630654
0.0565958
0.0581611
0.0601129
0.0627122
0.0660641
0.0594056
0.0610294
0.0630888
0.0658258
0.0693053
0.06243
0.0641162
0.0662754
0.0691459
0.072778
0.0656821
0.0674326
0.0696884
0.0726813
0.0764724
0.0691777
0.0709921
0.0733431
0.0764497
0.0803943
0.072932
0.0748116
0.0772549
0.0804686
0.0845573
0.076959
0.0789027
0.0814373
0.0847527
0.0889834
0.0812731
0.0832808
0.0859029
0.0893159
0.0936864
0.0842891
0.0858878
0.0879602
0.0906673
0.0941736
0.0986827
0.0891689
0.0908186
0.0929554
0.0957449
0.0993392
0.103988
0.0943827
0.0960829
0.0982822
0.101151
0.104828
0.10962
0.0999442
0.101697
0.103959
0.106905
0.11066
0.115596
0.105869
0.107677
0.110002
0.113021
0.116852
0.121935
0.112168
0.114035
0.116426
0.119519
0.123422
0.128656
0.118862
0.120789
0.123244
0.126412
0.130388
0.13578
0.12596
0.12795
0.130473
0.133715
0.137766
0.14332
0.133476
0.135529
0.138121
0.141438
0.145567
0.151291
0.13973
0.141422
0.14354
0.146204
0.149596
0.153807
0.159706
0.14805
0.149809
0.151998
0.154734
0.158199
0.162492
0.168572
0.156817
0.158647
0.160907
0.163713
0.167249
0.171629
0.177894
0.166039
0.167944
0.170276
0.173151
0.176753
0.181221
0.187673
0.175721
0.177705
0.18011
0.183051
0.186715
0.191275
0.197913
0.185862
0.18793
0.190407
0.193415
0.19714
0.201791
0.208604
0.196464
0.198617
0.201175
0.204253
0.208031
0.212769
0.219739
0.205676
0.207571
0.209809
0.21244
0.215579
0.219406
0.224225
0.231322
0.217238
0.219212
0.221533
0.224233
0.22743
0.231299
0.236187
0.243375
0.229342
0.231393
0.233791
0.236566
0.23983
0.243742
0.248704
0.25595
0.241922
0.24405
0.246535
0.249398
0.252743
0.256718
0.261768
0.269043
0.255004
0.257209
0.259787
0.262741
0.266179
0.270242
0.275413
0.282721
0.268251
0.270543
0.273212
0.276261
0.279797
0.283981
0.289326
0.296705
0.280214
0.282621
0.285415
0.288581
0.292235
0.29658
0.302142
0.309387
0.289092
0.291148
0.293717
0.296641
0.29992
0.303725
0.308245
0.314112
0.321441
0.300234
0.302312
0.304913
0.307861
0.311198
0.315122
0.319796
0.325862
0.33299
0.313525
0.315735
0.318407
0.321404
0.324792
0.328792
0.333625
0.340168
0.348126
0.326329
0.328586
0.33131
0.334383
0.33787
0.341953
0.346737
0.352753
0.358708
0.345017
0.34773
0.350852
0.354248
0.357977
0.362333
0.367772
0.375837
0.385852
0.354237
0.356822
0.359955
0.363534
0.367512
0.371908
0.376437
0.380921
0.382847
0.387031
0.390263
0.39385
0.397775
0.40214
0.407527
0.415441
0.428677
0.446095
0.370641
0.372942
0.375836
0.379296
0.382991
0.386446
0.387913
0.385769
0.379605
0.413157
0.412912
0.413641
0.41537
0.418072
0.42237
0.430178
0.438586
0.45028
0.327281
0.331483
0.331601
0.331752
0.332139
0.332498
0.332186
0.328479
0.320546
0.315916
0.321333
0.320817
0.31919
0.317586
0.316198
0.314964
0.313517
0.309956
0.304014
0.304313
0.245284
0.266075
0.263872
0.262044
0.260975
0.25976
0.258109
0.254993
0.252231
0.271809
0.256864
0.368029
0.522899
0.763985
1.28404
1.40545
1.0096
0.852325
0.768269
0.713724
0.671618
0.633021
0.592668
0.545401
0.48268
0.383651
0.149595
0.169975
0.0286525
0
0
0
0
0
0
2.36191
0.296714
0.0850439
0.0547586
0.0482494
0.0482545
0.0507625
0.0543302
0.0580282
0.061364
0.0643588
0.0672913
0.0703817
0.073717
0.0772955
0.081102
0.0851314
0.0893933
0.0939134
0.0987076
0.103792
0.109184
0.114902
0.120962
0.127387
0.134195
0.14141
0.149043
0.157112
0.165629
0.174604
0.184038
0.193935
0.20429
0.215092
0.226323
0.23798
0.250075
0.262664
0.27572
0.289395
0.303341
0.315806
0.328195
0.338997
0.355845
0.36278
0.397171
0.381468
0.468663
0.372223
0.468958
0.316383
0.314485
0.28227
0.397925
0.44742
0.523106
0.621624
0.754311
0.95771
1.34642
2.04963
1.51526
1.18749
1.03297
0.940429
0.87382
0.818035
0.764618
0.706378
0.632662
0.523
0.105661
0.278327
0
0
0
0
0
14.5149
2.42712
0.215259
0.0857557
0.0607333
0.0556877
0.0566138
0.0599333
0.0639708
0.0677164
0.0709333
0.0739062
0.0769564
0.0802442
0.083787
0.0875646
0.0915577
0.0957724
0.100232
0.104954
0.109955
0.115254
0.120868
0.126817
0.133124
0.139807
0.146893
0.154398
0.16234
0.170736
0.179599
0.188934
0.198744
0.209031
0.219781
0.23098
0.242622
0.254715
0.267313
0.280389
0.294109
0.308205
0.320921
0.333673
0.344309
0.361908
0.368094
0.404152
0.38683
0.474946
0.378575
0.467258
0.322661
0.317334
0.483776
0.518457
0.560078
0.614443
0.684519
0.777732
0.911644
1.13214
1.59956
2.70737
1.71016
1.31275
1.13753
1.03609
0.96488
0.906131
0.85049
0.790454
0.714469
0.606931
0.743055
0.158827
0
0
0
0
13.2671
1.90662
0.187358
0.0868322
0.067221
0.064006
0.0660119
0.070043
0.0742659
0.0778273
0.0808786
0.0838725
0.0870904
0.0905986
0.0943777
0.098395
0.102647
0.107154
0.111934
0.117002
0.122376
0.12807
0.134102
0.140492
0.147257
0.154422
0.162001
0.170012
0.178469
0.18738
0.196753
0.206581
0.216863
0.227582
0.238719
0.250266
0.262217
0.274634
0.287491
0.300967
0.314899
0.327426
0.340147
0.350163
0.368019
0.373396
0.409901
0.392137
0.477542
0.384395
0.464987
0.326856
0.530126
0.568763
0.597472
0.629914
0.671515
0.725627
0.797254
0.896586
1.04661
1.30911
1.91866
2.73618
1.71035
1.35986
1.19506
1.09624
1.02512
0.965533
0.909376
0.850253
0.769921
0.592911
0.569602
0.0807226
0
0
0
0.871459
0.856588
0.17607
0.08594
0.0718577
0.0710786
0.0745091
0.0792745
0.0836215
0.0871311
0.0902969
0.0935892
0.0971836
0.101079
0.105236
0.109639
0.114302
0.119244
0.124483
0.130036
0.135911
0.142127
0.148697
0.155635
0.162967
0.170701
0.178853
0.187434
0.19645
0.205903
0.215782
0.226076
0.236768
0.247832
0.259253
0.271014
0.283178
0.295737
0.30887
0.322513
0.33462
0.347116
0.356373
0.374388
0.378885
0.415657
0.397276
0.480673
0.389318
0.465912
0.542904
0.598251
0.630414
0.654691
0.681861
0.716639
0.762068
0.821917
0.903112
1.02016
1.20739
1.56629
2.5328
2.35364
1.6325
1.36199
1.2216
1.13185
1.06428
1.0066
0.952807
0.895313
0.836761
0.588993
0.22749
0
0
0
7.62949e-05
1.35168
0.174047
0.0869907
0.0772902
0.0789559
0.0838169
0.0890732
0.0933957
0.0969699
0.100452
0.104206
0.108286
0.112648
0.117257
0.122117
0.127249
0.132673
0.138403
0.144448
0.150822
0.157537
0.164607
0.172053
0.179885
0.188118
0.196759
0.205812
0.21528
0.225147
0.235397
0.246012
0.256963
0.268226
0.279779
0.291688
0.303954
0.316745
0.330113
0.34183
0.354157
0.362743
0.380965
0.384611
0.421801
0.402421
0.485025
0.39373
0.436589
0.646887
0.656905
0.683189
0.70519
0.729407
0.760158
0.800389
0.853244
0.924059
1.02349
1.17491
1.43941
2.03738
3.2041
1.97979
1.54221
1.34509
1.23089
1.15207
1.09016
1.03776
0.992606
0.966811
0.85367
0.33422
0
0
0
0
1.37481
0.180108
0.0913693
0.0849511
0.0889779
0.095142
0.100591
0.104806
0.108531
0.112421
0.116667
0.121234
0.126059
0.131129
0.136458
0.142071
0.147979
0.154185
0.160703
0.167543
0.174717
0.182246
0.19014
0.198413
0.20707
0.216115
0.225548
0.235352
0.245511
0.255997
0.266789
0.27785
0.289158
0.30078
0.312727
0.325155
0.338248
0.349604
0.361804
0.369725
0.388158
0.390884
0.428588
0.407923
0.200884
0.356103
0.910528
0.719102
0.737443
0.757085
0.77811
0.805348
0.841619
0.889731
0.954023
1.04308
1.17501
1.39402
1.83925
3.15266
2.42718
1.73709
1.46843
1.32548
1.23345
1.16589
1.11331
1.07128
1.02961
1.02407
0.538616
0
0
0
0
1.45901
0.194442
0.0982572
0.0942234
0.100469
0.10771
0.113253
0.117544
0.121661
0.126103
0.130913
0.136006
0.141341
0.146927
0.152783
0.15892
0.165341
0.172052
0.179062
0.18638
0.19403
0.202017
0.210354
0.219042
0.228087
0.237479
0.247206
0.25724
0.267564
0.278141
0.288936
0.299928
0.311181
0.322731
0.334712
0.347475
0.358407
0.370432
0.377576
0.396175
0.397828
0
0
0.195282
0.352731
0.867452
0.80295
0.813258
0.829079
0.852061
0.884618
0.928976
0.988845
1.07145
1.19213
1.38664
1.75897
2.78093
2.98293
1.9394
1.58843
1.41498
1.30933
1.23583
1.18175
1.14073
1.10265
1.14596
0.75615
0.166414
0
0
0
1.53746
0.205516
0.106766
0.104976
0.113092
0.120941
0.126571
0.131252
0.136038
0.141207
0.146694
0.152427
0.158394
0.164612
0.171091
0.17783
0.184831
0.192099
0.199643
0.207482
0.21562
0.22407
0.232826
0.241888
0.251247
0.260876
0.270759
0.280871
0.291172
0.301624
0.312213
0.323
0.334051
0.345482
0.357837
0.36825
0.380037
3.15002
0
0
0.310432
0.437074
1.46831
0.882005
0.87198
0.880611
0.898854
0.927833
0.969138
1.02585
1.10435
1.21827
1.39892
1.73275
2.58178
3.61799
2.13824
1.7006
1.49771
1.37935
1.30029
1.24432
1.20363
1.17085
1.23673
0.234334
0.165655
0
0
0
1.55701
0.208276
0.11687
0.117609
0.12726
0.135334
0.141113
0.146408
0.152029
0.158025
0.164294
0.170788
0.177512
0.184472
0.191662
0.199074
0.206706
0.214565
0.222671
0.231023
0.239623
0.248477
0.257566
0.266876
0.276376
0.286058
0.295886
0.30583
0.315839
0.32592
0.336118
0.346568
0.357325
0.228811
1.85795
0
0
0
0.203306
0.399013
0.996589
0.934291
0.931553
0.944357
0.969896
1.00864
1.063
1.1388
1.24866
1.42134
1.7342
2.492
4.24554
2.32322
1.80167
1.57253
1.44323
1.35948
1.30209
1.2622
1.23421
1.28995
0.441241
0.267094
0
0
0
1.53767
0.207976
0.128877
0.13243
0.14343
0.151591
0.157681
0.163757
0.170298
0.177198
0.184345
0.191713
0.199296
0.207077
0.215031
0.223144
0.23142
0.239877
0.248498
0.257303
0.266275
0.2754
0.284626
0.293954
0.303341
0.312805
0.322259
0.331708
0.0990504
0.162542
1.2977
0
0
0
0.298651
0.69402
1.22268
0.998999
0.981032
0.987965
1.01002
1.04642
1.09898
1.17304
1.28062
1.44915
1.75118
2.46287
4.76733
2.48563
1.88978
1.63904
1.50112
1.41395
1.35598
1.3168
1.28755
1.32895
0.572749
0.316989
0
0
0
1.50584
0.207746
0.142355
0.14909
0.161438
0.1699
0.176644
0.183707
0.191309
0.199253
0.207431
0.215804
0.224338
0.23299
0.241724
0.250536
0.25945
0.268447
0.277519
0.286654
0.295803
0.304919
0.106924
0.120489
0.163295
1.12831
0.000855458
0
0
0
0.541466
2.24716
1.07
1.0285
1.02863
1.04725
1.08165
1.13292
1.206
1.31252
1.4793
1.7769
2.46862
5.1664
2.61918
1.96385
1.69693
1.55289
1.4637
1.40558
1.36599
1.33177
1.34832
0.608785
0.3104
0
0
0
1.49197
0.211234
0.157525
0.167441
0.181012
0.190288
0.198179
0.206564
0.215472
0.224679
0.234066
0.243567
0.253118
0.262659
0.123297
0.138206
0.152089
0.179435
3.44866
7.9144
0
0
0
0.394586
1.1259
1.14706
1.0716
1.06488
1.08074
1.11388
1.16465
1.2376
1.34422
1.51126
1.80916
2.49881
5.51429
2.72415
2.02631
1.7484
1.6007
1.51088
1.45327
1.41264
1.37263
1.36142
0.539487
0.256423
0
0
0
1.52567
)
;

boundaryField
{
    inlet
    {
        type            calculated;
        value           nonuniform List<scalar> 
11
(
0.118797
0.121929
0.120333
0.11889
0.117636
0.116534
0.115512
0.11449
0.113311
0.115429
0.1123
)
;
    }
    outlet
    {
        type            calculated;
        value           nonuniform List<scalar> 0();
    }
    walls
    {
        type            calculated;
        value           uniform 0;
    }
    frontAndBack
    {
        type            empty;
    }
    procBoundary6to2
    {
        type            processor;
        value           nonuniform List<scalar> 
13
(
0.212209
0.35672
0.439688
0.474112
0.62335
0.194354
0
9.14743
0.396059
0.089864
0.0920237
0.104353
0.119569
)
;
    }
    procBoundary6to3
    {
        type            processor;
        value           uniform 0.149147;
    }
    procBoundary6to5
    {
        type            processor;
        value           nonuniform List<scalar> 
86
(
0.0627049
0.167986
0.194711
0.194074
0.191898
0.215547
0.0687318
0.0342775
0
0
17.5785
0.238043
0.0357004
0.0249801
0.0240932
0.0257273
0.0281657
0.0301309
0.0312734
0.0318701
0.0322588
0.032646
0.0330943
0.0336349
0.0343122
0.0351748
0.0362363
0.0374802
0.0388705
0.0403716
0.0419548
0.0436172
0.0453828
0.0453828
0.0461487
0.0481935
0.0504005
0.0527812
0.0553495
0.058119
0.061103
0.064314
0.067767
0.0714766
0.0754576
0.0797235
0.0797235
0.0830565
0.0878978
0.0930698
0.098587
0.104462
0.11071
0.117346
0.124386
0.131844
0.131844
0.138379
0.146642
0.15534
0.164486
0.174085
0.184138
0.194657
0.194657
0.204088
0.215583
0.227619
0.240131
0.253151
0.266352
0.278269
0.278269
0.287299
0.298385
0.311448
0.324108
0.342318
0.351333
0.384144
0.36662
0.41619
0.41619
0.339858
0.321392
0.280087
)
;
    }
    procBoundary6to7
    {
        type            processor;
        value           nonuniform List<scalar> 
91
(
0.283959
0.283959
0.322069
0.322069
0.330102
0.330102
0.467051
0.490059
0.467051
0.398314
0.436082
0.490059
0.41386
0.386296
0.405042
0.436082
0.405486
0.369188
0.378992
0.386296
0.390504
0.341135
0.350602
0.360301
0.369188
0.370246
0.314001
0.323017
0.331956
0.340777
0.341135
0.349477
0.272194
0.281748
0.29126
0.300706
0.310077
0.319254
0.314001
0.328241
0.221643
0.176694
0.188158
0.202923
0.213415
0.222966
0.23304
0.243515
0.254169
0.264891
0.275591
0.272194
0.28622
0.164206
0.183357
0.191098
0.20847
0.631367
4.44138
0
0
0
0.178015
0.309149
1.22771
1.1087
1.09634
1.10954
1.14114
1.19099
1.26343
1.36991
1.53749
1.83751
2.53455
5.85617
2.79017
2.06922
1.78548
1.63574
1.54545
1.48776
1.44431
1.39266
1.3538
0.425971
0.18849
0
0
0.221643
0
)
;
    }
}


// ************************************************************************* //
