/*--------------------------------*- C++ -*----------------------------------*\
| =========                 |                                                 |
| \\      /  F ield         | OpenFOAM: The Open Source CFD Toolbox           |
|  \\    /   O peration     | Version:  2506                                  |
|   \\  /    A nd           | Website:  www.openfoam.com                      |
|    \\/     M anipulation  |                                                 |
\*---------------------------------------------------------------------------*/
FoamFile
{
    version     2.0;
    format      ascii;
    arch        "LSB;label=32;scalar=64";
    class       volVectorField;
    location    "100";
    object      U;
}
// * * * * * * * * * * * * * * * * * * * * * * * * * * * * * * * * * * * * * //

dimensions      [0 1 -1 0 0 0 0];

internalField   nonuniform List<vector> 
1340
(
(10.6723 -1.68164 -2.96479e-16)
(7.62471 -1.28543 3.53816e-16)
(5.41887 -0.962289 -8.00563e-15)
(-0.665216 -0.427354 1.43438e-14)
(14.2807 -2.16575 -2.74664e-15)
(10.7809 -1.71621 5.57341e-16)
(7.89692 -1.32837 2.10954e-15)
(2.39735 -0.706945 3.26128e-15)
(17.1304 -2.42817 5.65516e-15)
(13.1691 -1.93601 -7.75951e-16)
(9.71848 -1.49211 1.17838e-15)
(4.29446 -1.13412 -4.58848e-15)
(20.1961 -2.64869 -1.27138e-15)
(15.6898 -2.10997 1.01098e-15)
(11.6048 -1.60017 -1.9694e-15)
(5.94494 -1.41947 2.3043e-15)
(23.403 -2.82534 1.76132e-16)
(18.4359 -2.26143 1.34971e-16)
(13.6834 -1.68996 1.33596e-16)
(7.57788 -1.57874 -2.92099e-15)
(26.1091 -2.90143 -1.55166e-15)
(21.2599 -2.3712 -1.1275e-15)
(15.9807 -1.76251 1.28162e-16)
(9.29876 -1.64835 7.31855e-16)
(27.5027 -2.83627 3.00695e-15)
(23.738 -2.40416 2.67026e-16)
(18.4142 -1.8017 1.67318e-16)
(11.1663 -1.65217 4.74209e-16)
(27.5309 -2.67054 -3.22472e-15)
(25.3933 -2.34083 4.17047e-16)
(20.7637 -1.7877 -3.82084e-16)
(13.1831 -1.60344 1.44795e-15)
(26.9527 -2.49154 1.21213e-15)
(26.0803 -2.20324 -3.61314e-16)
(22.7484 -1.70937 1.14614e-15)
(15.2831 -1.50775 -1.04526e-15)
(26.4979 -2.34506 -5.89648e-16)
(26.0688 -2.0378 3.65528e-16)
(24.1728 -1.57313 -3.94393e-16)
(17.3462 -1.36987 -1.35542e-15)
(26.3776 -2.2249 -3.66202e-16)
(25.7778 -1.88134 -5.11651e-16)
(25.0086 -1.40079 -1.26472e-16)
(19.2375 -1.19779 5.45882e-16)
(26.4708 -2.11005 -5.86828e-16)
(25.5135 -1.74884 -3.75612e-16)
(25.3692 -1.21963 8.43262e-17)
(20.851 -1.00418 1.38468e-15)
(26.6159 -1.98563 2.10374e-15)
(25.3884 -1.63591 -9.53647e-18)
(25.4264 -1.0491 -3.03668e-16)
(22.1266 -0.804523 -1.54036e-15)
(26.7327 -1.84757 -2.80331e-15)
(25.3908 -1.53189 6.08993e-16)
(25.3368 -0.897911 -8.87369e-17)
(23.0544 -0.614641 1.73669e-15)
(26.8086 -1.69854 2.10813e-15)
(25.4709 -1.42715 -3.24386e-16)
(25.21 -0.765657 4.12079e-16)
(23.669 -0.443789 -1.85788e-15)
(26.8569 -1.54307 -1.63435e-16)
(25.5855 -1.3151 2.09263e-17)
(25.1066 -0.6483 -3.50291e-16)
(24.0331 -0.29375 5.40275e-16)
(26.8915 -1.3848 -4.27933e-16)
(25.7088 -1.19271 1.3112e-16)
(25.0534 -0.541276 6.85769e-17)
(24.2232 -0.161878 -2.74493e-16)
(26.9208 -1.22581 -1.79033e-16)
(25.8274 -1.05982 1.27889e-16)
(25.0556 -0.439775 1.7901e-16)
(24.3174 -0.0421126 4.54201e-16)
(26.9486 -1.06678 1.10107e-15)
(25.9353 -0.918371 -2.98543e-16)
(25.1056 -0.339347 2.1694e-17)
(24.3812 0.0717558 9.53396e-16)
(26.9768 -0.907571 -1.06804e-16)
(26.0309 -0.770837 5.03832e-17)
(25.1896 -0.236669 -7.19866e-17)
(24.4548 0.184156 -1.36176e-16)
(27.0057 -0.747734 4.04936e-17)
(26.1154 -0.619778 2.79843e-16)
(25.2931 -0.130232 8.44645e-18)
(24.5522 0.296539 -3.91773e-16)
(27.0354 -0.586933 5.88538e-16)
(26.1911 -0.467043 -3.09329e-16)
(25.404 -0.0200028 -2.41667e-17)
(24.672 0.407784 -1.74459e-16)
(27.0649 -0.425033 -1.14883e-15)
(26.2608 -0.314007 3.01454e-16)
(25.5142 0.0932463 4.58379e-17)
(24.8065 0.515683 3.00079e-16)
(27.0934 -0.262196 1.76401e-16)
(26.3268 -0.161153 -1.54295e-16)
(25.6194 0.208679 -5.83831e-17)
(24.9474 0.619567 -1.87402e-16)
(27.1198 -0.0988018 1.82504e-16)
(26.3901 -0.00902084 4.66236e-16)
(25.7183 0.325455 1.73191e-16)
(25.0878 0.719755 1.11799e-16)
(27.1434 0.064697 3.45383e-16)
(26.4512 0.142448 -2.28224e-16)
(25.8115 0.443082 -2.96166e-16)
(25.2228 0.817035 -1.32805e-16)
(27.1636 0.22759 -3.43687e-16)
(26.5095 0.292828 -7.49505e-16)
(25.8999 0.561071 -5.85532e-17)
(25.3501 0.911979 7.62663e-18)
(27.1802 0.389383 -3.13303e-16)
(26.5646 0.442192 4.08944e-16)
(25.9844 0.679347 -8.48261e-17)
(25.4694 1.00516 -2.02723e-17)
(27.193 0.549432 5.29362e-16)
(26.6155 0.58993 3.05479e-16)
(26.0652 0.797613 2.59043e-16)
(25.5811 1.09702 -2.95676e-17)
(27.202 0.707184 -6.0863e-16)
(26.6619 0.735852 -3.51875e-16)
(26.1418 0.915705 -1.71452e-16)
(25.686 1.18791 1.16853e-16)
(27.2071 0.86214 7.41178e-16)
(26.7033 0.879373 5.49319e-16)
(26.2139 1.03328 4.57331e-16)
(25.7844 1.27809 -2.71564e-16)
(27.2084 1.01381 -3.53401e-16)
(26.7397 1.02025 -3.63208e-16)
(26.2809 1.14998 -2.90329e-16)
(25.8765 1.36759 1.19403e-16)
(27.2057 1.1617 -1.97304e-16)
(26.771 1.15801 5.19387e-16)
(26.3422 1.26552 -1.32339e-16)
(25.9621 1.45653 -1.00574e-16)
(27.5795 1.39551 8.82643e-16)
(27.1991 1.30542 3.17026e-16)
(26.7972 1.29233 -1.6036e-16)
(26.3977 1.37943 5.37825e-16)
(26.0411 1.54489 5.79541e-17)
(27.5379 1.53654 -9.78992e-16)
(27.1886 1.4445 3.34308e-16)
(26.8181 1.42291 -6.86885e-16)
(26.4472 1.49141 -3.81424e-16)
(26.1134 1.6326 -2.50251e-16)
(27.494 1.67173 2.40203e-16)
(27.1744 1.5786 -3.8692e-16)
(26.834 1.54942 1.66086e-16)
(26.4906 1.60111 -1.23141e-17)
(26.1788 1.71957 7.72342e-17)
(27.4478 1.8008 -1.42624e-16)
(27.1565 1.70741 3.61741e-17)
(26.8448 1.67161 4.70993e-16)
(26.5279 1.70822 2.26267e-16)
(26.2375 1.80566 3.28923e-16)
(27.3998 1.92357 4.35748e-16)
(27.1352 1.83066 -6.63971e-17)
(26.8507 1.78922 -4.86893e-16)
(26.5593 1.81243 3.00963e-16)
(26.2895 1.89065 -1.2754e-16)
(27.3501 2.03989 -6.25103e-16)
(27.1107 1.94813 1.45993e-16)
(26.852 1.90205 4.8342e-16)
(26.5847 1.91346 8.09811e-17)
(26.3349 1.97431 3.05068e-17)
(27.2992 2.14968 -2.88991e-16)
(27.0832 2.05967 -3.60216e-16)
(26.8487 2.00991 -3.61498e-16)
(26.6044 2.01107 -7.1312e-16)
(26.3738 2.05639 -1.71719e-16)
(27.2472 2.25293 2.55616e-16)
(27.0532 2.16519 -2.55421e-17)
(26.8412 2.11266 1.85904e-16)
(26.6187 2.10503 2.97916e-16)
(26.4065 2.13664 -1.37436e-16)
(27.1945 2.34967 3.12495e-16)
(27.0207 2.26465 5.5625e-16)
(26.8299 2.21021 7.04332e-17)
(26.6277 2.19514 2.39489e-16)
(26.4332 2.21478 -1.41479e-17)
(27.1413 2.43999 -3.48453e-17)
(26.9862 2.35806 -2.61144e-16)
(26.8149 2.30249 -3.1147e-16)
(26.6319 2.28127 3.13097e-17)
(26.4541 2.29059 3.53656e-16)
(27.0879 2.52399 -5.09522e-16)
(26.9499 2.44544 1.94649e-16)
(26.7967 2.38947 2.5057e-16)
(26.6315 2.36327 -2.32e-16)
(26.4697 2.36383 -3.57016e-16)
(27.0346 2.60187 2.0243e-17)
(26.9122 2.52692 3.36845e-16)
(26.7755 2.47118 6.63888e-17)
(26.627 2.44108 1.95688e-16)
(26.4801 2.43431 1.48056e-17)
(27.0749 2.75765 3.0225e-18)
(26.9815 2.67383 -6.94061e-17)
(26.8733 2.60264 -1.07696e-16)
(26.7518 2.54765 3.45219e-16)
(26.6186 2.51462 -2.6739e-16)
(26.4858 2.50184 3.71572e-16)
(27.0109 2.81801 8.18724e-17)
(26.9289 2.74012 9.31161e-17)
(26.8335 2.67276 1.01986e-16)
(26.7258 2.61899 -4.51468e-16)
(26.6068 2.58388 2.84461e-17)
(26.4872 2.56628 -3.19149e-16)
(26.9488 2.87319 -6.14564e-17)
(26.877 2.80098 1.68734e-16)
(26.7931 2.7375 3.36357e-18)
(26.6979 2.68531 -1.93135e-16)
(26.5919 2.64887 2.7009e-16)
(26.4846 2.62752 1.28341e-16)
(26.8886 2.92349 -2.19376e-16)
(26.8258 2.85669 -1.1535e-16)
(26.7523 2.79707 -2.52877e-16)
(26.6685 2.74676 2.64933e-16)
(26.5743 2.70964 -4.03219e-16)
(26.4784 2.68547 -1.43655e-16)
(26.8303 2.96922 2.59644e-16)
(26.7756 2.90753 4.35323e-17)
(26.7113 2.85171 2.88659e-16)
(26.6377 2.8035 -3.06004e-16)
(26.5544 2.76626 -1.88772e-17)
(26.4689 2.74007 1.00135e-16)
(26.774 3.01067 -1.04391e-16)
(26.7265 2.9538 9.44364e-17)
(26.6704 2.90168 4.37635e-17)
(26.606 2.85574 3.12674e-17)
(26.5324 2.81881 1.05642e-16)
(26.4566 2.79131 2.72916e-16)
(26.7197 3.04813 1.6931e-17)
(26.6785 2.99578 -2.35211e-17)
(26.6298 2.94725 -9.05142e-17)
(26.5735 2.90366 2.67375e-17)
(26.5088 2.86743 -7.91048e-17)
(26.4417 2.83921 -2.26773e-16)
(26.6673 3.08189 -4.50724e-16)
(26.6317 3.03376 -2.45163e-17)
(26.5895 2.98867 -1.40969e-17)
(26.5405 2.94749 1.63867e-16)
(26.4837 2.91224 2.58436e-16)
(26.4246 2.88379 4.14187e-17)
(26.6168 3.11224 1.37558e-16)
(26.5862 3.06802 -5.31847e-17)
(26.5497 3.0262 6.87749e-17)
(26.5072 2.98745 -2.94026e-16)
(26.4575 2.9534 -2.08294e-16)
(26.4057 2.92512 -1.95626e-16)
(26.5899 3.18139 -1.0043e-16)
(26.5682 3.13942 -1.57904e-16)
(26.5419 3.09884 5.0481e-17)
(26.5105 3.06012 1.10079e-16)
(26.4738 3.02376 1.92171e-16)
(26.4305 2.99108 5.40822e-17)
(26.3852 2.96328 3.23664e-16)
(26.54 3.202 1.52717e-16)
(26.5215 3.16368 -1.04979e-16)
(26.499 3.12646 1.36185e-16)
(26.472 3.09067 3.6732e-17)
(26.4404 3.05665 -5.69131e-17)
(26.4028 3.02545 -1.33718e-16)
(26.3633 2.99839 4.13781e-17)
(26.4923 3.22024 -1.10887e-16)
(26.4765 3.18526 2.06495e-16)
(26.4574 3.15113 1.72307e-17)
(26.4343 3.11809 -2.67046e-16)
(26.4071 3.08634 2.59931e-16)
(26.3746 3.05668 -1.29464e-16)
(26.3404 3.03054 -1.38927e-16)
(26.4466 3.23632 -1.69698e-16)
(26.4333 3.20438 -4.04778e-18)
(26.417 3.1731 -2.3803e-17)
(26.3974 3.14262 3.04003e-16)
(26.3742 3.11304 5.93845e-18)
(26.3461 3.08497 -2.1496e-16)
(26.3166 3.05988 3.75028e-16)
(26.4029 3.25043 -3.77931e-17)
(26.3917 3.22124 5.09565e-17)
(26.378 3.19256 3.1079e-17)
(26.3613 3.16447 -8.2871e-17)
(26.3416 3.13697 1.42725e-16)
(26.3175 3.11047 -1.65238e-16)
(26.2922 3.08654 6.20498e-17)
(26.3611 3.26273 -1.639e-17)
(26.3517 3.23604 -1.10462e-16)
(26.3402 3.20974 1.35376e-17)
(26.3261 3.18385 -6.18004e-17)
(26.3094 3.15831 2.37433e-17)
(26.2889 3.13338 -1.5833e-16)
(26.2672 3.11066 1.51735e-16)
(26.3211 3.27339 7.37481e-17)
(26.3133 3.24895 -3.8657e-17)
(26.3037 3.22483 -5.01659e-17)
(26.2919 3.20097 2.56618e-16)
(26.2778 3.17727 1.83152e-16)
(26.2603 3.15387 -1.23661e-16)
(26.242 3.13237 1.32621e-17)
(26.2876 3.30528 -9.3898e-18)
(26.2827 3.28257 8.60935e-17)
(26.2763 3.26016 -5.7678e-17)
(26.2684 3.23801 8.92024e-17)
(26.2585 3.21601 -8.94593e-18)
(26.2467 3.19404 3.3804e-17)
(26.232 3.17211 -2.16713e-17)
(26.2165 3.15184 6.50311e-17)
(26.25 3.31127 -4.98272e-17)
(26.2461 3.29041 -1.2998e-16)
(26.2409 3.26982 1.07762e-16)
(26.2343 3.24945 1.17259e-16)
(26.2261 3.22916 3.63961e-17)
(26.2163 3.20878 -1.3694e-16)
(26.2039 3.18825 9.99651e-17)
(26.1909 3.1692 -1.613e-16)
(26.2141 3.31626 -3.99155e-17)
(26.211 3.29705 5.79094e-17)
(26.2068 3.2781 6.12288e-18)
(26.2015 3.25932 -1.43835e-16)
(26.1948 3.24058 8.49324e-17)
(26.1867 3.22167 2.5995e-17)
(26.1763 3.20247 8.44889e-17)
(26.1655 3.18459 -2.06942e-17)
(26.1799 3.32032 -7.20786e-17)
(26.1775 3.30259 3.83775e-17)
(26.1742 3.2851 -2.13233e-17)
(26.17 3.26776 -9.89585e-17)
(26.1645 3.25042 3.15536e-16)
(26.1579 3.23286 -2.22477e-16)
(26.1492 3.2149 -9.49523e-17)
(26.1403 3.19815 -2.44457e-17)
(26.1473 3.3236 8.35014e-17)
(26.1455 3.30719 -5.41158e-18)
(26.143 3.29101 3.41412e-17)
(26.1396 3.27497 -8.25874e-17)
(26.1353 3.25889 -5.88474e-17)
(26.1299 3.24257 3.65846e-17)
(26.1228 3.22576 4.59557e-17)
(26.1154 3.21006 6.13491e-17)
(26.1162 3.32597 4.80809e-17)
(26.115 3.31075 -6.36975e-18)
(26.1131 3.29575 -1.15394e-16)
(26.1105 3.28087 -1.63836e-18)
(26.1071 3.26594 9.21316e-17)
(26.1028 3.25074 -1.87486e-16)
(26.0971 3.235 4.07215e-17)
(26.0911 3.2203 -1.10894e-16)
(26.0909 3.32762 8.63629e-17)
(26.09 3.31329 -9.26611e-17)
(26.0886 3.29919 1.49486e-16)
(26.0865 3.2852 -3.93266e-17)
(26.0838 3.27116 -4.78941e-17)
(26.0802 3.25685 -4.12584e-17)
(26.0754 3.24199 1.48194e-16)
(26.0704 3.22813 -6.33078e-17)
(26.0705 3.34246 -1.79644e-17)
(26.0702 3.32858 -4.84277e-17)
(26.0695 3.31498 1.71769e-17)
(26.0683 3.3016 2.77601e-17)
(26.0666 3.28833 -7.75947e-17)
(26.0642 3.275 4.78448e-17)
(26.0611 3.26141 1.61807e-16)
(26.0569 3.24727 -1.96685e-16)
(26.0525 3.23414 9.06269e-17)
(26.0492 3.34236 -4.78785e-18)
(26.0491 3.32914 1.45586e-17)
(26.0486 3.3162 -1.01644e-16)
(26.0476 3.30348 5.54066e-17)
(26.0461 3.29088 3.73469e-17)
(26.0441 3.27823 1.81214e-17)
(26.0415 3.26532 -1.36722e-16)
(26.0378 3.25186 5.15483e-17)
(26.034 3.23939 8.02777e-17)
(26.0276 3.34224 1.16199e-18)
(26.0276 3.32971 9.0156e-17)
(26.0272 3.31746 7.54928e-17)
(26.0264 3.30544 -2.80424e-17)
(26.0252 3.29353 1.95527e-17)
(26.0235 3.28158 -5.18452e-17)
(26.0213 3.26937 1.06824e-16)
(26.0181 3.25662 -3.50803e-16)
(26.0148 3.24487 1.54021e-16)
(26.0062 3.34115 5.25183e-20)
(26.0063 3.32911 8.10481e-17)
(26.006 3.31736 -1.69335e-16)
(26.0054 3.30584 -1.06475e-17)
(26.0043 3.29446 9.62083e-17)
(26.0029 3.28305 -1.15651e-16)
(26.001 3.27141 2.26381e-16)
(25.9982 3.25921 -2.22227e-16)
(25.9955 3.24793 2.25998e-16)
(25.9844 3.34154 -2.15884e-17)
(25.9845 3.3303 -5.66346e-17)
(25.9843 3.31934 7.75729e-17)
(25.9839 3.3086 4.80183e-17)
(25.9831 3.29797 -2.29626e-16)
(25.9819 3.2873 1.53602e-16)
(25.9804 3.27638 1.37745e-16)
(25.9779 3.26496 -5.82737e-17)
(25.9752 3.25458 -7.76045e-17)
(25.9643 3.33701 -1.11384e-17)
(25.9645 3.32581 -1.91027e-17)
(25.9645 3.31492 4.74983e-17)
(25.9641 3.30432 -3.57496e-18)
(25.9634 3.29389 -6.40207e-17)
(25.9624 3.28347 -9.06448e-17)
(25.961 3.27284 1.36719e-16)
(25.9591 3.26157 -1.71249e-17)
(25.9575 3.25108 2.69453e-17)
(25.9411 3.34284 2.00532e-17)
(25.9415 3.33305 -1.68183e-17)
(25.9417 3.3235 -7.30476e-17)
(25.9417 3.31413 -1.5694e-17)
(25.9414 3.30484 1.14051e-17)
(25.9408 3.29548 1.34067e-17)
(25.9398 3.28589 2.18125e-17)
(25.9377 3.27599 -2.88132e-17)
(25.9349 3.26727 5.10611e-17)
(25.9265 3.32377 -1.1737e-17)
(25.927 3.3127 -3.70601e-17)
(25.9272 3.30205 -1.76938e-17)
(25.927 3.29179 3.90777e-17)
(25.9266 3.28181 1.29102e-17)
(25.9258 3.27191 -6.04826e-18)
(25.925 3.26184 7.83456e-17)
(25.9245 3.25083 -3.88734e-17)
(25.925 3.24042 -5.91856e-17)
(25.8958 3.35673 1.01539e-16)
(25.8967 3.34901 -3.73123e-17)
(25.8975 3.34136 1.14734e-17)
(25.8982 3.33377 -1.26305e-16)
(25.8988 3.32618 -3.51026e-17)
(25.899 3.31849 1.33137e-16)
(25.8986 3.31064 9.27189e-17)
(25.896 3.30307 -1.13893e-16)
(25.8917 3.29676 1.53653e-17)
(25.8982 3.29338 3.0353e-17)
(25.8995 3.28031 7.98168e-18)
(25.9001 3.26804 4.71258e-18)
(25.9004 3.25643 7.01244e-17)
(25.9004 3.24539 -8.40216e-17)
(25.9 3.23481 1.05224e-16)
(25.8996 3.22442 -1.13561e-17)
(25.8997 3.21389 -1.17193e-16)
(25.9025 3.20167 -4.73725e-17)
(25.9073 3.19044 1.13337e-17)
(25.8391 3.4228 4.71481e-18)
(25.8402 3.41896 3.11117e-18)
(25.8416 3.41417 -3.98926e-18)
(25.8433 3.4093 -3.61975e-17)
(25.8449 3.40446 -2.71456e-17)
(25.8464 3.39954 1.50431e-17)
(25.8474 3.39455 -1.71561e-17)
(25.8474 3.38951 -1.69522e-17)
(25.8425 3.38612 2.76721e-17)
(25.8344 3.38267 4.12141e-17)
(25.9143 3.16841 -2.18187e-18)
(25.915 3.15252 -5.05559e-17)
(25.9169 3.13738 2.29115e-17)
(25.92 3.12285 1.32446e-16)
(25.9226 3.10895 -2.42149e-16)
(25.9245 3.09558 7.095e-17)
(25.9268 3.08234 2.52408e-16)
(25.9306 3.06882 -2.41896e-16)
(25.9403 3.05388 4.06944e-17)
(25.9552 3.04099 -7.22328e-18)
(14.8396 1.49848 7.52365e-18)
(11.1026 0.960331 -2.36083e-20)
(8.7567 0.499012 -1.17755e-17)
(7.40209 0.149428 -1.52154e-20)
(6.81122 -0.0970422 1.45154e-18)
(6.85833 -0.244974 -2.19287e-18)
(7.46313 -0.29763 4.90459e-20)
(8.55528 -0.262626 -8.47332e-20)
(10.0628 -0.149274 -1.72287e-19)
(11.8937 0.031906 -5.40068e-19)
(13.9347 0.265786 1.46455e-19)
(16.0674 0.532665 -3.96386e-19)
(18.16 0.807523 3.96594e-20)
(20.0739 1.0627 2.00484e-20)
(21.6813 1.27139 -4.67754e-19)
(22.887 1.41387 8.24197e-19)
(23.6555 1.48225 1.9438e-18)
(24.0282 1.48567 -1.06415e-18)
(24.1436 1.45101 -3.46879e-18)
(24.1737 1.40793 1.27796e-18)
(24.2284 1.37385 3.63074e-19)
(24.33 1.35579 2.58776e-17)
(24.4614 1.35241 -3.16045e-17)
(24.6072 1.36103 4.92449e-18)
(24.7584 1.37918 -7.07193e-18)
(24.9079 1.40541 4.5438e-18)
(25.0506 1.43804 -7.74377e-18)
(25.1841 1.47594 6.30083e-20)
(25.3083 1.51832 -9.85125e-18)
(25.4244 1.56466 -1.3654e-17)
(25.5331 1.61452 -5.07736e-18)
(25.6351 1.66744 5.0751e-18)
(25.7303 1.72295 -5.75828e-18)
(25.8189 1.78074 3.99451e-19)
(25.9007 1.84038 1.53382e-17)
(25.9759 1.9016 5.03635e-19)
(26.0444 1.96403 1.0906e-18)
(26.1063 2.02736 -1.2363e-17)
(26.1618 2.09124 -1.72593e-18)
(26.2109 2.15534 1.63723e-18)
(26.2537 2.21934 -1.84022e-17)
(26.2905 2.28288 -1.14216e-16)
(26.3216 2.34568 8.66421e-18)
(26.347 2.40742 1.7287e-17)
(26.3671 2.4678 -1.05289e-17)
(26.3822 2.52655 -3.28159e-18)
(26.3926 2.58345 8.7867e-17)
(26.3986 2.63827 -1.92563e-17)
(26.4006 2.69082 1.76009e-17)
(26.3988 2.74096 1.36268e-17)
(26.3937 2.78857 -4.56837e-17)
(26.3856 2.83355 1.01177e-16)
(26.3747 2.87586 5.68844e-18)
(26.3615 2.91546 -1.56014e-17)
(26.3462 2.95237 -8.75087e-17)
(26.3291 2.98661 6.57503e-17)
(26.3105 3.01824 5.69668e-19)
(26.2907 3.04732 -1.00193e-16)
(26.2697 3.07393 -9.47639e-18)
(26.2479 3.09818 2.97879e-17)
(26.2254 3.12016 -1.77662e-16)
(26.2023 3.13998 4.36721e-17)
(26.1789 3.15777 -1.49259e-19)
(26.1553 3.17363 2.61308e-18)
(26.1318 3.18769 -1.35446e-16)
(26.1084 3.20011 6.86973e-17)
(26.0853 3.21085 -3.10863e-20)
(26.0655 3.21909 4.41848e-18)
(26.0482 3.22549 4.68766e-19)
(26.0303 3.23107 -1.97711e-16)
(26.0116 3.23709 -4.91494e-17)
(25.993 3.24022 1.96416e-17)
(25.9729 3.24784 5.22857e-17)
(25.9562 3.24356 -1.8576e-19)
(25.9327 3.26204 -8.48321e-20)
(25.9252 3.23232 4.81727e-19)
(25.889 3.29398 3.89322e-17)
(25.9097 3.181 3.20495e-18)
(25.831 3.38267 -2.09142e-17)
(25.9622 3.03271 1.21316e-19)
(21.1885 2.15639 -8.72966e-18)
(18.6442 1.85385 1.46732e-18)
(16.1511 1.50723 5.35679e-18)
(13.9819 1.14846 2.30047e-18)
(12.243 0.805161 -1.7822e-18)
(10.9912 0.503676 6.51297e-18)
(10.2627 0.263168 1.94019e-18)
(10.0754 0.0981303 -9.32295e-19)
(10.4202 0.0188596 -1.22121e-17)
(11.2541 0.0290864 -1.63423e-17)
(12.5089 0.125155 5.11786e-18)
(14.1026 0.298487 -8.92589e-18)
(15.9388 0.534982 -1.77523e-18)
(17.9019 0.814583 -2.01521e-18)
(19.8541 1.11082 8.90792e-18)
(21.6386 1.39249 -7.92817e-18)
(23.0954 1.62691 -1.2184e-17)
(24.0921 1.78634 4.95148e-18)
(24.584 1.85956 1.24844e-17)
(24.6744 1.86224 -1.46951e-17)
(24.6052 1.83391 -1.11666e-17)
(24.568 1.80739 -6.4978e-18)
(24.6103 1.7937 1.80371e-17)
(24.7021 1.79099 -4.18291e-18)
(24.8135 1.79443 5.19903e-18)
(24.9313 1.80177 -6.45127e-18)
(25.0488 1.8124 1.70366e-17)
(25.1619 1.82635 -1.83795e-17)
(25.2689 1.84374 2.6978e-17)
(25.3701 1.8648 1.60581e-17)
(25.4663 1.88965 -9.33587e-19)
(25.5579 1.9183 -8.51629e-19)
(25.645 1.95053 1.14434e-18)
(25.7274 1.98623 1.70221e-19)
(25.8048 2.02505 7.84747e-18)
(25.877 2.06673 5.04596e-18)
(25.9439 2.11089 -5.5542e-18)
(26.0054 2.15719 -1.28024e-17)
(26.0615 2.20526 -1.15962e-18)
(26.1121 2.25475 3.11729e-17)
(26.1574 2.30529 -3.71262e-18)
(26.1972 2.35651 9.92531e-17)
(26.2319 2.40809 6.91765e-18)
(26.2614 2.45967 2.49661e-17)
(26.286 2.51093 -8.94517e-18)
(26.3058 2.56157 -4.58167e-17)
(26.3211 2.61128 -7.82553e-17)
(26.3321 2.65981 -1.76488e-17)
(26.339 2.70691 1.39532e-17)
(26.3422 2.75236 2.03445e-17)
(26.3419 2.79599 2.29971e-17)
(26.3384 2.83764 2.48249e-17)
(26.332 2.8772 2.47642e-17)
(26.323 2.91457 -6.21069e-18)
(26.3117 2.94969 -1.91942e-18)
(26.2983 2.98254 -1.37195e-16)
(26.2831 3.0131 6.12506e-19)
(26.2664 3.04141 8.08932e-17)
(26.2483 3.06749 3.38395e-18)
(26.2291 3.09139 -3.19287e-17)
(26.2089 3.1132 1.08521e-16)
(26.188 3.13298 -8.39022e-17)
(26.1665 3.15082 1.65597e-16)
(26.1446 3.16682 3.07942e-18)
(26.1225 3.18106 -3.75777e-17)
(26.1004 3.19371 1.90725e-18)
(26.0785 3.20471 -3.79499e-20)
(26.0596 3.21316 5.43493e-18)
(26.043 3.21979 5.77767e-19)
(26.0258 3.22556 1.19724e-16)
(26.0077 3.23195 4.77667e-17)
(25.9897 3.23506 -1.99088e-17)
(25.97 3.2434 -5.32489e-17)
(25.9539 3.23851 -5.13297e-17)
(25.9309 3.25859 -3.92734e-17)
(25.9234 3.22703 3.3575e-17)
(25.8887 3.29187 -3.9933e-17)
(25.9072 3.17551 -2.06694e-18)
(25.834 3.38158 4.21796e-19)
(24.0375 2.46636 -1.62164e-18)
(22.5793 2.32318 2.65632e-19)
(20.7873 2.12461 -2.14066e-19)
(18.8491 1.88315 -4.30748e-19)
(16.9262 1.61312 -3.70177e-18)
(15.1527 1.33345 9.53398e-20)
(13.6425 1.06378 -1.21826e-18)
(12.4935 0.823608 -1.01023e-18)
(11.7861 0.631541 1.22808e-18)
(11.5755 0.503388 5.30972e-18)
(11.88 0.450273 -1.85698e-18)
(12.6739 0.476446 -1.49972e-18)
(13.8959 0.579713 3.32583e-18)
(15.4628 0.752931 -3.82887e-19)
(17.2727 0.983538 4.07604e-18)
(19.2016 1.25236 -8.74452e-18)
(21.0978 1.53286 -2.94628e-18)
(22.7821 1.79155 7.22553e-18)
(24.0673 1.99244 2.2376e-17)
(24.8104 2.10642 8.24606e-18)
(25.0281 2.13045 1.59473e-17)
(24.9517 2.10003 5.84222e-19)
(24.8617 2.06406 -6.12943e-18)
(24.8642 2.04404 -3.74455e-17)
(24.9333 2.03894 3.21367e-17)
(25.0255 2.04159 7.7519e-18)
(25.1211 2.04778 6.32621e-18)
(25.214 2.05631 1.7684e-17)
(25.3024 2.06708 -2.39738e-17)
(25.3861 2.08017 1.28095e-17)
(25.466 2.09571 -1.48033e-20)
(25.5429 2.11391 2.68091e-19)
(25.617 2.13479 4.81648e-19)
(25.6883 2.15845 8.95091e-20)
(25.7565 2.1848 4.0406e-18)
(25.8211 2.21381 -4.51183e-18)
(25.882 2.24528 7.59606e-18)
(25.939 2.27907 -6.38017e-19)
(25.9918 2.31495 -8.53017e-19)
(26.0404 2.35268 -2.86462e-17)
(26.0846 2.392 -1.73825e-17)
(26.1245 2.43262 -7.08258e-17)
(26.1599 2.47425 5.63893e-18)
(26.191 2.5166 1.71952e-17)
(26.2177 2.55934 4.68981e-18)
(26.2401 2.60219 -5.82225e-18)
(26.2584 2.64486 6.21725e-17)
(26.2727 2.68705 -1.55523e-17)
(26.2832 2.72852 1.72291e-17)
(26.2901 2.76902 -1.17712e-17)
(26.2935 2.80834 -1.01469e-17)
(26.2938 2.84627 -8.34484e-18)
(26.2911 2.88267 3.32434e-18)
(26.2857 2.91738 -7.84114e-17)
(26.2778 2.9503 -4.59631e-17)
(26.2677 2.98135 1.173e-16)
(26.2557 3.01048 5.86699e-19)
(26.2418 3.03766 -1.59945e-16)
(26.2265 3.06288 -8.75802e-18)
(26.2098 3.08615 3.29389e-17)
(26.1919 3.10752 3.16267e-19)
(26.1731 3.12702 3.94024e-17)
(26.1534 3.14471 -2.77238e-16)
(26.1332 3.16067 -5.62061e-17)
(26.1126 3.17495 1.5484e-16)
(26.0919 3.18771 2.58441e-17)
(26.0711 3.19887 9.75542e-18)
(26.0531 3.20747 5.38233e-18)
(26.0373 3.21428 5.73173e-19)
(26.0208 3.22018 6.57388e-17)
(26.0033 3.22689 1.36675e-16)
(25.986 3.22996 -1.77227e-19)
(25.9669 3.23896 -5.19902e-17)
(25.9511 3.23353 8.92444e-17)
(25.9291 3.255 3.90201e-17)
(25.9208 3.22193 1.2266e-16)
(25.889 3.28938 1.132e-17)
(25.9033 3.17048 -9.97158e-17)
(25.4058 2.76961 9.3524e-19)
(24.6922 2.71195 1.78785e-19)
(23.6299 2.61305 -2.93948e-18)
(22.2749 2.47211 1.13287e-18)
(20.7151 2.2907 1.00329e-18)
(19.0545 2.07648 7.21263e-20)
(17.4029 1.84088 1.03908e-18)
(15.87 1.59772 -2.00369e-19)
(14.5623 1.36294 9.57563e-19)
(13.5801 1.15393 -4.96677e-18)
(13.0093 0.988182 1.65898e-18)
(12.9096 0.881106 -1.14306e-18)
(13.3008 0.843791 3.25276e-18)
(14.1555 0.880643 -3.87288e-18)
(15.4113 0.989752 -8.64926e-19)
(16.9827 1.16413 -4.0267e-18)
(18.7628 1.39084 -1.59394e-18)
(20.6167 1.64943 -9.88565e-19)
(22.374 1.91045 -1.26206e-17)
(23.831 2.13604 -6.65081e-18)
(24.7908 2.28746 -6.36145e-18)
(25.1726 2.34283 -1.82053e-17)
(25.1488 2.32456 2.0144e-17)
(25.0385 2.28627 2.14189e-18)
(25.0138 2.26097 -8.00241e-19)
(25.0693 2.25149 -9.20278e-18)
(25.1537 2.25009 -1.60349e-17)
(25.2394 2.25178 2.42491e-18)
(25.3199 2.25533 2.43712e-17)
(25.3951 2.26087 -2.7871e-17)
(25.466 2.26865 7.99245e-18)
(25.5338 2.27885 -3.01892e-18)
(25.5993 2.29153 -8.96617e-18)
(25.6626 2.30674 4.12335e-19)
(25.7236 2.32439 3.66574e-18)
(25.7819 2.34443 8.75483e-19)
(25.8374 2.36674 -3.39442e-19)
(25.8898 2.39122 -6.05835e-18)
(25.9391 2.41773 -6.94123e-18)
(25.9849 2.44616 6.6883e-19)
(26.0273 2.47631 5.35695e-18)
(26.066 2.50801 1.34029e-17)
(26.1011 2.54105 4.70016e-18)
(26.1324 2.57519 6.66369e-18)
(26.1601 2.6102 -8.77738e-18)
(26.184 2.64582 1.60465e-17)
(26.2042 2.68179 -6.33995e-18)
(26.2207 2.71784 -1.36672e-17)
(26.2338 2.75373 1.30502e-17)
(26.2434 2.78922 3.21361e-17)
(26.2498 2.82408 -2.11532e-17)
(26.253 2.8581 -7.6032e-18)
(26.2534 2.89108 -2.6957e-17)
(26.251 2.92287 6.68879e-17)
(26.2461 2.95331 4.22749e-17)
(26.2389 2.98228 -1.13783e-16)
(26.2296 3.00969 5.53523e-19)
(26.2184 3.03547 1.4076e-16)
(26.2055 3.05958 -3.69069e-17)
(26.1911 3.082 -3.50747e-17)
(26.1754 3.10272 -8.8371e-17)
(26.1585 3.12176 3.60829e-17)
(26.1407 3.13914 2.58271e-16)
(26.1221 3.15492 9.64282e-17)
(26.103 3.16913 -1.17419e-16)
(26.0835 3.18189 5.67127e-17)
(26.0639 3.19312 -4.22258e-17)
(26.0468 3.20182 5.20965e-18)
(26.0317 3.20878 5.55287e-19)
(26.0159 3.21477 -3.96102e-18)
(25.9991 3.22178 -1.37646e-16)
(25.9824 3.2248 -1.72267e-19)
(25.9639 3.23441 1.306e-17)
(25.9483 3.2285 -8.65505e-17)
(25.9273 3.25125 1.70055e-16)
(25.9184 3.21683 -3.13536e-18)
(25.889 3.2867 -6.89547e-19)
(25.8209 2.96641 -5.57259e-19)
(25.6133 2.95694 1.60176e-19)
(25.143 2.92187 3.3297e-20)
(24.3783 2.85503 2.00322e-19)
(23.3405 2.75197 -1.18887e-18)
(22.0799 2.61274 1.2869e-18)
(20.667 2.44117 -4.94201e-19)
(19.1868 2.24397 -1.31564e-19)
(17.7333 2.03053 1.10379e-18)
(16.4054 1.81293 -2.65147e-18)
(15.3036 1.6057 -4.4563e-19)
(14.5239 1.42506 -4.68113e-18)
(14.148 1.28735 -2.82681e-18)
(14.2276 1.20666 -4.56987e-19)
(14.7705 1.1921 8.55041e-19)
(15.739 1.24636 3.99161e-18)
(17.0642 1.36656 7.82113e-20)
(18.6537 1.54454 -2.23497e-18)
(20.3891 1.76541 1.43437e-18)
(22.1156 2.00529 3.57928e-19)
(23.6352 2.23009 3.76071e-18)
(24.7259 2.39844 2.07117e-17)
(25.2431 2.47829 -6.01032e-18)
(25.2895 2.47763 1.96965e-18)
(25.1813 2.44627 -7.62948e-18)
(25.1385 2.42343 -5.7527e-19)
(25.1814 2.41564 1.11966e-18)
(25.2579 2.4153 -1.59459e-19)
(25.335 2.41682 6.29651e-18)
(25.4053 2.41884 3.12081e-19)
(25.4699 2.42179 5.60819e-18)
(25.531 2.42625 6.98059e-18)
(25.5898 2.43258 -8.99314e-19)
(25.6468 2.44096 1.3331e-19)
(25.7019 2.45147 2.43882e-18)
(25.755 2.46412 1.83595e-18)
(25.8058 2.47886 -3.73297e-19)
(25.8541 2.49565 -2.20341e-18)
(25.8998 2.51442 7.39272e-18)
(25.9427 2.53507 -1.05338e-18)
(25.9827 2.5575 -2.36164e-18)
(26.0197 2.58157 6.54154e-18)
(26.0537 2.60716 9.46426e-18)
(26.0844 2.63408 1.58158e-17)
(26.112 2.66215 -2.28577e-17)
(26.1364 2.69117 3.29634e-18)
(26.1575 2.7209 -5.47373e-18)
(26.1753 2.75114 -1.1964e-17)
(26.19 2.78166 1.15749e-17)
(26.2016 2.81223 -6.19234e-19)
(26.2101 2.84263 -2.56438e-17)
(26.2157 2.87265 -6.98664e-18)
(26.2184 2.9021 6.27354e-18)
(26.2185 2.93079 -5.04961e-18)
(26.2161 2.95854 -1.59898e-18)
(26.2114 2.98522 9.59656e-17)
(26.2046 3.01069 5.33244e-19)
(26.1957 3.03486 -7.37572e-17)
(26.1851 3.05765 1.87202e-19)
(26.1728 3.079 -1.08772e-18)
(26.1591 3.09889 6.32954e-18)
(26.1441 3.1173 -2.59053e-18)
(26.128 3.13421 -1.46658e-16)
(26.111 3.14967 -5.16093e-17)
(26.0933 3.16368 1.05218e-16)
(26.0751 3.17634 -5.50621e-17)
(26.0566 3.18757 3.2291e-17)
(26.0405 3.19629 7.19928e-17)
(26.0261 3.20335 -9.21516e-17)
(26.011 3.20939 -1.69051e-16)
(25.9948 3.21666 -6.85274e-19)
(25.9786 3.21962 -1.75852e-19)
(25.9608 3.2298 -4.71193e-17)
(25.9456 3.22344 4.74561e-17)
(25.9254 3.2474 -5.27629e-18)
(25.916 3.21174 -3.14158e-18)
(25.7785 3.05738 7.76041e-20)
(25.7713 3.06256 1.0379e-19)
(25.6788 3.0601 6.9792e-19)
(25.3927 3.04097 1.63619e-19)
(24.8537 2.99616 1.24538e-18)
(24.0593 2.92134 -1.02527e-18)
(23.0387 2.81523 1.61171e-19)
(21.8422 2.67918 -8.99846e-20)
(20.5359 2.51705 3.28462e-18)
(19.1989 2.33519 5.27545e-18)
(17.9189 2.14259 -4.7676e-19)
(16.7899 1.95088 2.93382e-19)
(15.9076 1.77406 1.32291e-18)
(15.3622 1.62747 3.50422e-18)
(15.2241 1.52579 5.67729e-19)
(15.5274 1.48067 -6.58981e-19)
(16.2587 1.49811 -4.86702e-19)
(17.366 1.57826 3.44605e-19)
(18.77 1.71621 9.58557e-19)
(20.3656 1.90111 3.45739e-18)
(22.0131 2.11395 9.29513e-19)
(23.5254 2.32497 -1.3393e-18)
(24.6751 2.4942 -6.36296e-18)
(25.2836 2.58534 1.98331e-17)
(25.3959 2.59631 -1.19415e-17)
(25.3043 2.57027 -6.51041e-19)
(25.2552 2.5492 1.46605e-18)
(25.2895 2.54234 -2.54578e-19)
(25.3588 2.54285 -7.45372e-18)
(25.4279 2.54472 1.45255e-18)
(25.489 2.54646 -1.30536e-17)
(25.5443 2.54854 -3.03572e-19)
(25.5966 2.55162 9.44071e-18)
(25.6471 2.55608 2.55796e-20)
(25.6962 2.56209 8.85654e-19)
(25.7437 2.56975 1.6999e-18)
(25.7894 2.5791 2.48597e-18)
(25.8331 2.59017 -1.06551e-18)
(25.8747 2.60296 -3.15443e-18)
(25.914 2.61746 2.75193e-18)
(25.951 2.63363 2.60879e-18)
(25.9855 2.65142 7.79079e-18)
(26.0174 2.67075 -2.64816e-18)
(26.0467 2.6915 -9.31629e-18)
(26.0733 2.71354 -2.77484e-18)
(26.0972 2.73672 8.33725e-18)
(26.1183 2.76086 -4.60908e-18)
(26.1365 2.78577 -1.02532e-17)
(26.152 2.81128 1.0083e-17)
(26.1646 2.83719 1.69388e-17)
(26.1745 2.86329 2.15703e-17)
(26.1816 2.8894 -6.35186e-18)
(26.1862 2.91531 2.88814e-17)
(26.1882 2.94084 -4.70317e-18)
(26.1878 2.9658 -1.50581e-18)
(26.1852 2.99005 -9.27681e-17)
(26.1804 3.01342 5.12426e-19)
(26.1736 3.03581 5.61393e-17)
(26.165 3.0571 3.34093e-17)
(26.1547 3.07722 -1.07323e-18)
(26.1428 3.09611 1.28499e-16)
(26.1296 3.11372 -2.59562e-18)
(26.1151 3.13002 -1.67653e-19)
(26.0996 3.14503 -2.60865e-17)
(26.0833 3.15872 -6.08796e-18)
(26.0664 3.17117 -1.96215e-17)
(26.0491 3.1823 -3.82713e-20)
(26.0338 3.19098 -6.09314e-17)
(26.0202 3.19809 9.29644e-17)
(26.0057 3.20413 2.8475e-18)
(25.9903 3.21161 -8.94708e-17)
(25.9747 3.21449 3.05392e-17)
(25.9575 3.22518 8.32423e-17)
(25.9426 3.21842 -2.74547e-19)
(25.6721 3.09702 -1.72415e-19)
(25.6737 3.10227 9.71815e-20)
(25.685 3.10694 1.46583e-19)
(25.6581 3.10897 1.54985e-19)
(25.5004 3.0999 6.25094e-20)
(25.1318 3.07092 -1.64659e-20)
(24.5265 3.01707 1.40171e-19)
(23.6981 2.93621 -7.5208e-20)
(22.6832 2.8282 -1.23041e-19)
(21.535 2.69513 -3.58126e-19)
(20.3203 2.54139 1.05776e-19)
(19.1164 2.3738 -3.09482e-19)
(18.0097 2.20174 5.77806e-19)
(17.0915 2.03704 -9.52426e-20)
(16.4534 1.89342 4.39693e-19)
(16.1748 1.7851 1.42188e-19)
(16.3067 1.72452 -8.5813e-19)
(16.8554 1.71965 2.68303e-19)
(17.7844 1.7729 7.36403e-19)
(19.0261 1.88163 -2.41083e-19)
(20.4864 2.03777 -5.57464e-19)
(22.0372 2.2259 -9.52585e-19)
(23.5028 2.42012 8.85732e-19)
(24.6607 2.58336 -7.90886e-19)
(25.3157 2.6779 1.14528e-18)
(25.475 2.69564 -4.88707e-19)
(25.4055 2.67412 4.25268e-18)
(25.3582 2.65444 -3.43644e-18)
(25.3875 2.64757 -8.31531e-19)
(25.4505 2.64756 1.62506e-17)
(25.5125 2.64862 4.30423e-19)
(25.5658 2.64931 -4.51783e-19)