/*--------------------------------*- C++ -*----------------------------------*\
| =========                 |                                                 |
| \\      /  F ield         | OpenFOAM: The Open Source CFD Toolbox           |
|  \\    /   O peration     | Version:  2506                                  |
|   \\  /    A nd           | Website:  www.openfoam.com                      |
|    \\/     M anipulation  |                                                 |
\*---------------------------------------------------------------------------*/
FoamFile
{
    version     2.0;
    format      ascii;
    arch        "LSB;label=32;scalar=64";
    class       volScalarField;
    location    "150";
    object      turbulenceProperties:epsilon;
}
// * * * * * * * * * * * * * * * * * * * * * * * * * * * * * * * * * * * * * //

dimensions      [0 2 -3 0 0 0 0];

internalField   nonuniform List<scalar> 
1340
(
0.221212
0.291697
0.391178
0.541961
0.735285
1.00013
1.3584
1.81749
2.41051
3.17088
4.13946
5.41366
7.10015
9.38084
12.5558
17.1359
23.8574
34.3237
50.3161
78.3796
121.288
212.911
360.559
764.014
951.95
926.516
876.271
848.904
831.447
806.276
767.206
714.718
649.787
573.943
487.105
0.164715
0.124009
0.0840294
0.0553437
0.0333585
0.0181114
0.0093914
0.00700322
0.00694103
0.00679097
0.00641762
0.00585856
0.0052397
0.00454963
0.0038295
0.00317457
0.00258539
0.002091
0.00170052
0.00153664
0.00168822
0.00241095
0.00462802
0.0109088
0.0284954
0.0806041
0.264974
0.876364
3.44105
11.1223
41.2365
93.5274
143.364
179.017
194.479
185.003
154.099
114.495
79.8025
55.4777
39.851
29.9146
0.00686586
0.00666114
0.00628432
0.00575154
0.00505386
0.00419737
0.00316461
0.00310267
0.00295351
0.00273729
0.0025191
0.00228873
0.00206539
0.00187308
0.00171422
0.00159322
0.00150463
0.00144
0.0014145
0.00141539
0.00145037
0.00140835
0.00111933
0.000805697
0.000254441
0.0121644
0.0230926
0.0147485
0.0231628
8.8222e-05
0.0644096
0.43469
1.70097
5.37356
13.9749
28.543
45.1884
55.5613
54.534
45.422
34.6529
0.00322021
0.00321736
0.00320248
0.00309449
0.0028939
0.00255898
0.00222228
0.00223154
0.00220909
0.00217101
0.0020964
0.00198787
0.00185666
0.00169976
0.0015291
0.0013509
0.00117282
0.00100145
0.000838529
0.000685716
0.000547548
0.000418902
0.000304241
0.000218247
0.000138761
6.59091e-05
4.40647e-07
0.000436476
2.11831e-12
0.00357735
0.0230676
0.0391782
0.058101
0.0286041
0.00925121
0.0107091
0.350456
2.43413
8.01307
15.8188
21.2841
0.00217559
0.00210696
0.00200244
0.00187924
0.00172594
0.00126533
0.00125981
0.00123919
0.00120324
0.00114993
0.00107976
0.000997808
0.000906992
0.000811763
0.000718684
0.000631288
0.000552489
0.00048442
0.000428229
0.00038349
0.000349718
0.000318165
0.00028291
0.000244018
0.000208484
0.000124212
1.89844e-05
1.25508e-09
1.42453e-08
2.38684e-12
0
0
0.0105731
0.0154644
0.0346515
0.0266246
0.0319288
0.0113777
0.211184
2.06304
0.00125849
0.00124083
0.00120593
0.00115088
0.00107288
0.000844156
0.000850878
0.000849695
0.000842773
0.000825996
0.000799355
0.000764408
0.000720627
0.000669678
0.000613793
0.00055438
0.000493601
0.000433558
0.00037579
0.000321727
0.00027138
0.000221852
0.000175063
0.000135468
0.000103843
8.19409e-05
6.19223e-05
3.73576e-05
4.97848e-06
7.85229e-10
1.67636e-08
6.14064e-09
3.85477e-10
0
0
0.00250644
0.00851744
0.00332965
0.0198698
0.0250792
0.000829353
0.000809378
0.000780591
0.000742583
0.000553524
0.000558144
0.000558672
0.000555443
0.000546562
0.000531429
0.000510619
0.000483957
0.000452137
0.000416558
0.000378387
0.000339114
0.000300308
0.000263194
0.000228824
0.000197884
0.000171579
0.000149293
0.000128756
0.000108986
9.07291e-05
7.58182e-05
6.3374e-05
4.71847e-05
2.90564e-05
1.32295e-05
4.39317e-06
2.13249e-07
1.0126e-08
1.55016e-09
0
0
9.36768e-05
0.00234358
0.0179309
0.0005445
0.000532646
0.0005156
0.000492047
0.000379242
0.000384259
0.000387199
0.00038812
0.000385979
0.000380195
0.000371003
0.000358005
0.000341372
0.000321717
0.000299333
0.000274984
0.000249472
0.000223498
0.000197801
0.000173062
0.000149482
0.000126413
0.000104701
8.56264e-05
6.9821e-05
5.74633e-05
4.85914e-05
4.15555e-05
3.51977e-05
2.74417e-05
1.95235e-05
1.17371e-05
5.48115e-06
1.12224e-06
7.7723e-09
7.15622e-10
0
0
0
0.000371657
0.000362726
0.000350932
0.000334983
0.000263667
0.00026776
0.000270814
0.000272549
0.000272501
0.000270213
0.000265698
0.000258607
0.000248941
0.000236958
0.000222811
0.000206911
0.000189763
0.000171859
0.00015379
0.000136026
0.000118985
0.000103276
8.90349e-05
7.61011e-05
6.44754e-05
5.43164e-05
4.58241e-05
3.85421e-05
3.19794e-05
2.58443e-05
2.02367e-05
1.5917e-05
1.22715e-05
8.54234e-06
4.29921e-06
6.76185e-07
4.97603e-09
3.30623e-11
0
0.000258092
0.000251782
0.000243798
0.00019663
0.000196348
0.000194718
0.000191397
0.000186373
0.000179715
0.000171386
0.000161614
0.000150658
0.000138781
0.000126324
0.000113608
0.000101002
8.86651e-05
7.66542e-05
6.54051e-05
5.53954e-05
4.68481e-05
3.97398e-05
3.3643e-05
2.7909e-05
2.23717e-05
1.74167e-05
1.36422e-05
1.10691e-05
9.28489e-06
8.01117e-06
5.74096e-06
2.67344e-06
3.0545e-08
3.99268e-10
0.0001436
0.000142161
0.00013957
0.000135819
0.000130841
0.000124703
0.00011756
0.000109552
0.000100894
9.1828e-05
8.25797e-05
7.34303e-05
6.45968e-05
5.6254e-05
4.86014e-05
4.17558e-05
3.57576e-05
3.04383e-05
2.54124e-05
2.05081e-05
1.60201e-05
1.23876e-05
9.7828e-06
7.98996e-06
6.85167e-06
6.12261e-06
5.53059e-06
3.59213e-06
2.44659e-07
0.000105556
0.000103555
0.000100764
9.70592e-05
9.2535e-05
8.72859e-05
8.14176e-05
7.50725e-05
6.84151e-05
6.16594e-05
5.48959e-05
4.82802e-05
4.20672e-05
3.64423e-05
3.14467e-05
2.69607e-05
2.27248e-05
1.85985e-05
1.4768e-05
1.15609e-05
9.12732e-06
7.34942e-06
6.05928e-06
5.19774e-06
4.70389e-06
4.76329e-06
3.73977e-06
7.9325e-05
7.77348e-05
7.55794e-05
7.27364e-05
6.92954e-05
6.53248e-05
6.09018e-05
5.61316e-05
5.11667e-05
4.61234e-05
4.11155e-05
3.62953e-05
3.18122e-05
2.77092e-05
2.39318e-05
2.03345e-05
1.68357e-05
1.35683e-05
1.07833e-05
8.60825e-06
6.97221e-06
5.72379e-06
4.78497e-06
4.09705e-06
3.82586e-06
3.99002e-06
6.0277e-05
5.90296e-05
5.73352e-05
5.51293e-05
5.24878e-05
4.94548e-05
4.60869e-05
4.24855e-05
3.87461e-05
3.49336e-05
3.11628e-05
2.75808e-05
2.42348e-05
2.10997e-05
1.80871e-05
1.51477e-05
1.23804e-05
9.97899e-06
8.06067e-06
6.58885e-06
5.45091e-06
4.56881e-06
3.87903e-06
3.42359e-06
3.09813e-06
4.69146e-05
4.62323e-05
4.52552e-05
4.38757e-05
4.21373e-05
4.00797e-05
3.77303e-05
3.51402e-05
3.23959e-05
2.95407e-05
2.66437e-05
2.3824e-05
2.11288e-05
1.85521e-05
1.60475e-05
1.35899e-05
1.12542e-05
9.19068e-06
7.50423e-06
6.1845e-06
5.1536e-06
4.34879e-06
3.71839e-06
3.27316e-06
2.85766e-06
3.63276e-05
3.57598e-05
3.49547e-05
3.38406e-05
3.24655e-05
3.08469e-05
2.9007e-05
2.70117e-05
2.48868e-05
2.2679e-05
2.04762e-05
1.83264e-05
1.62348e-05
1.41752e-05
1.21381e-05
1.01824e-05
8.4237e-06
6.95268e-06
5.77649e-06
4.8446e-06
4.10942e-06
3.53673e-06
3.11353e-06
2.83465e-06
2.83217e-05
2.78514e-05
2.71772e-05
2.62728e-05
2.51707e-05
2.38814e-05
2.24447e-05
2.0882e-05
1.92205e-05
1.75189e-05
1.58231e-05
1.41441e-05
1.24682e-05
1.07936e-05
9.16834e-06
7.6814e-06
6.40949e-06
5.37024e-06
4.53357e-06
3.86429e-06
3.34185e-06
2.93778e-06
2.72919e-06
2.24806e-05
2.22182e-05
2.18332e-05
2.12544e-05
2.0518e-05
1.96294e-05
1.86085e-05
1.74728e-05
1.62355e-05
1.49327e-05
1.36082e-05
1.22739e-05
1.09225e-05
9.55703e-06
8.21586e-06
6.96818e-06
5.87781e-06
4.96773e-06
4.22278e-06
3.61846e-06
3.1413e-06
2.76811e-06
2.54802e-06
1.77475e-05
1.75315e-05
1.719e-05
1.67086e-05
1.61062e-05
1.53902e-05
1.45748e-05
1.36637e-05
1.26781e-05
1.16558e-05
1.06078e-05
9.52973e-06
8.42599e-06
7.32769e-06
6.28884e-06
5.36192e-06
4.57184e-06
3.91387e-06
3.37308e-06
2.93863e-06
2.60156e-06
2.36093e-06
1.41997e-05
1.40854e-05
1.39015e-05
1.35972e-05
1.31961e-05
1.27018e-05
1.21245e-05
1.14623e-05
1.07259e-05
9.9449e-06
9.13048e-06
8.2795e-06
7.39597e-06
6.50435e-06
5.64665e-06
4.86558e-06
4.18575e-06
3.60934e-06
3.12913e-06
2.73645e-06
2.43237e-06
2.19245e-06
1.13268e-05
1.12304e-05
1.10565e-05
1.07968e-05
1.04627e-05
1.00616e-05
9.58688e-06
9.04356e-06
8.45381e-06
7.82793e-06
7.16347e-06
6.4629e-06
5.74535e-06
5.04326e-06
4.39111e-06
3.81162e-06
3.31117e-06
2.88801e-06
2.53623e-06
2.26057e-06
2.03672e-06
9.11789e-06
9.07226e-06
8.98566e-06
8.82523e-06
8.6052e-06
8.33146e-06
7.99667e-06
7.60181e-06
7.16193e-06
6.68618e-06
6.17314e-06
5.6233e-06
5.05091e-06
4.48116e-06
3.94148e-06
3.45197e-06
3.02139e-06
2.6514e-06
2.33914e-06
2.08932e-06
1.88561e-06
7.33401e-06
7.29502e-06
7.20669e-06
7.06641e-06
6.8831e-06
6.65154e-06
6.36945e-06
6.04575e-06
5.68882e-06
5.29751e-06
4.87074e-06
4.41871e-06
3.96078e-06
3.51843e-06
3.10896e-06
2.74183e-06
2.42092e-06
2.14592e-06
1.92088e-06
1.73628e-06
5.92874e-06
5.91942e-06
5.87778e-06
5.79318e-06
5.67422e-06
5.51801e-06
5.32055e-06
5.08584e-06
4.82168e-06
4.52665e-06
4.19903e-06
3.84579e-06
3.48146e-06
3.12254e-06
2.78357e-06
2.47368e-06
2.19798e-06
1.95767e-06
1.75668e-06
1.58925e-06
4.79226e-06
4.80034e-06
4.79189e-06
4.74609e-06
4.67245e-06
4.57106e-06
4.43595e-06
4.26841e-06
4.07514e-06
3.85528e-06
3.60628e-06
3.33267e-06
3.04515e-06
2.75634e-06
2.47806e-06
2.2188e-06
1.98397e-06
1.77561e-06
1.5977e-06
1.4462e-06
3.89464e-06
3.90135e-06
3.88364e-06
3.84123e-06
3.77769e-06
3.68808e-06
3.57123e-06
3.4326e-06
3.27126e-06
3.08451e-06
2.87499e-06
2.65043e-06
2.42038e-06
2.19406e-06
1.97898e-06
1.7805e-06
1.60124e-06
1.44467e-06
1.30853e-06
3.1593e-06
3.17384e-06
3.17323e-06
3.15188e-06
3.11427e-06
3.05697e-06
2.9777e-06
2.8801e-06
2.76362e-06
2.6256e-06
2.46736e-06
2.29419e-06
2.11307e-06
1.93115e-06
1.75462e-06
1.5884e-06
1.43544e-06
1.29879e-06
1.1771e-06
2.56128e-06
2.57942e-06
2.59108e-06
2.58407e-06
2.56456e-06
2.53017e-06
2.47821e-06
2.41076e-06
2.32776e-06
2.22689e-06
2.10843e-06
1.97605e-06
1.83469e-06
1.68974e-06
1.54626e-06
1.40841e-06
1.27884e-06
1.16064e-06
1.05272e-06
2.09715e-06
2.11252e-06
2.11599e-06
2.10847e-06
2.0897e-06
2.05722e-06
2.01224e-06
1.95439e-06
1.88179e-06
1.79429e-06
1.6942e-06
1.58494e-06
1.47044e-06
1.35471e-06
1.24127e-06
1.13247e-06
1.03078e-06
9.35933e-07
1.70432e-06
1.72057e-06
1.72977e-06
1.72974e-06
1.72115e-06
1.70228e-06
1.67345e-06
1.63425e-06
1.5831e-06
1.51958e-06
1.445e-06
1.36162e-06
1.27224e-06
1.17986e-06
1.08729e-06
9.96625e-07
9.0991e-07
8.27068e-07
1.38379e-06
1.39956e-06
1.41294e-06
1.41765e-06
1.41576e-06
1.40624e-06
1.38876e-06
1.36286e-06
1.32734e-06
1.28174e-06
1.22669e-06
1.16364e-06
1.09449e-06
1.0214e-06
9.46571e-07
8.71605e-07
7.98226e-07
7.26436e-07
1.1388e-06
1.15238e-06
1.16045e-06
1.16285e-06
1.15943e-06
1.14983e-06
1.13349e-06
1.10945e-06
1.07721e-06
1.03707e-06
9.89809e-07
9.36691e-07
8.79262e-07
8.19142e-07
7.57616e-07
6.95945e-07
6.3425e-07
9.26237e-07
9.38687e-07
9.48095e-07
9.52811e-07
9.53145e-07
9.48821e-07
9.39248e-07
9.23541e-07
9.0129e-07
8.72528e-07
8.37622e-07
7.97306e-07
7.52616e-07
7.04707e-07
6.54545e-07
6.031e-07
5.50471e-07
7.52258e-07
7.63343e-07
7.73756e-07
7.79714e-07
7.82271e-07
7.81336e-07
7.76319e-07
7.6644e-07
7.5132e-07
7.30918e-07
7.05366e-07
6.75035e-07
6.4054e-07
6.02667e-07
5.62079e-07
5.19478e-07
6.20966e-07
6.30458e-07
6.37241e-07
6.41124e-07
6.42264e-07
6.40236e-07
6.34374e-07
6.24333e-07
6.1003e-07
5.91455e-07
5.68759e-07
5.42274e-07
5.12488e-07
4.79849e-07
4.44814e-07
5.04867e-07
5.13106e-07
5.19877e-07
5.24325e-07
5.26565e-07
5.26407e-07
5.23303e-07
5.16916e-07
5.07107e-07
4.93783e-07
4.76949e-07
4.56746e-07
4.33455e-07
4.07341e-07
3.78701e-07
4.09593e-07
4.17077e-07
4.23501e-07
4.2799e-07
4.30749e-07
4.31704e-07
4.30385e-07
4.26493e-07
4.19889e-07
4.10442e-07
3.9806e-07
3.82764e-07
3.64669e-07
3.43905e-07
3.20642e-07
3.32035e-07
3.38596e-07
3.44403e-07
3.48629e-07
3.5155e-07
3.53115e-07
3.52917e-07
3.50696e-07
3.46338e-07
3.39706e-07
3.30666e-07
3.19153e-07
3.05177e-07
2.88774e-07
2.70013e-07
2.69045e-07
2.74397e-07
2.79759e-07
2.83602e-07
2.86433e-07
2.88253e-07
2.88702e-07
2.87559e-07
2.84739e-07
2.80108e-07
2.73521e-07
2.64873e-07
2.54114e-07
2.41218e-07
2.2619e-07
2.22442e-07
2.26938e-07
2.30462e-07
2.331e-07
2.34934e-07
2.35708e-07
2.35246e-07
2.33468e-07
2.30246e-07
2.2544e-07
2.18936e-07
2.10659e-07
2.00543e-07
1.88556e-07
1.80259e-07
1.83888e-07
1.86984e-07
1.89347e-07
1.91058e-07
1.9197e-07
1.91936e-07
1.90867e-07
1.8865e-07
1.85158e-07
1.80278e-07
1.7392e-07
1.66006e-07
1.56485e-07
1.45745e-07
1.48827e-07
1.51501e-07
1.53549e-07
1.55077e-07
1.56002e-07
1.56199e-07
1.55587e-07
1.54072e-07
1.51544e-07
1.47893e-07
1.43024e-07
1.36857e-07
1.2933e-07
1.17768e-07
1.20322e-07
1.22566e-07
1.24292e-07
1.2562e-07
1.26496e-07
1.26806e-07
1.26478e-07
1.25444e-07
1.23614e-07
1.20884e-07
1.17168e-07
1.12383e-07
1.06463e-07
9.51155e-08
9.71106e-08
9.90586e-08
1.00491e-07
1.0161e-07
1.02395e-07
1.02738e-07
1.02578e-07
1.01868e-07
1.00534e-07
9.84888e-08
9.56507e-08
9.19468e-08
8.73126e-08
7.84149e-08
7.99798e-08
8.11914e-08
8.21275e-08
8.2797e-08
8.31231e-08
8.30591e-08
8.2565e-08
8.15812e-08
8.00344e-08
7.7859e-08
7.499e-08
7.13702e-08
6.33203e-08
6.45282e-08
6.55345e-08
6.63091e-08
6.68616e-08
6.71523e-08
6.71442e-08
6.67993e-08
6.60675e-08
6.48928e-08
6.32221e-08
6.09987e-08
5.10389e-08
5.20188e-08
5.2843e-08
5.34718e-08
5.39207e-08
5.41695e-08
5.41888e-08
5.39448e-08
5.33976e-08
5.25044e-08
5.12203e-08
4.95009e-08
4.11254e-08
4.19105e-08
4.25699e-08
4.30697e-08
4.34316e-08
4.36405e-08
4.36696e-08
4.34913e-08
4.30777e-08
4.23965e-08
4.14107e-08
4.00826e-08
3.31306e-08
3.37248e-08
3.4275e-08
3.46648e-08
3.49488e-08
3.51194e-08
3.51483e-08
3.50139e-08
3.46975e-08
3.4175e-08
3.34166e-08
3.2392e-08
2.7159e-08
2.75859e-08
2.78971e-08
2.81187e-08
2.82517e-08
2.8274e-08
2.8169e-08
2.79229e-08
2.75173e-08
2.69302e-08
2.61375e-08
2.18857e-08
2.2201e-08
2.24483e-08
2.26226e-08
2.27229e-08
2.27374e-08
2.2654e-08
2.24609e-08
2.2144e-08
2.1686e-08
2.10702e-08
1.7617e-08
1.78632e-08
1.80576e-08
1.81919e-08
1.82665e-08
1.82751e-08
1.82087e-08
1.80571e-08
1.78088e-08
1.74521e-08
1.69735e-08
1.41859e-08
1.43758e-08
1.45249e-08
1.46266e-08
1.46812e-08
1.46847e-08
1.46301e-08
1.45096e-08
1.43147e-08
1.40362e-08
1.36646e-08
1.14266e-08
1.15724e-08
1.16863e-08
1.17628e-08
1.18017e-08
1.18005e-08
1.17542e-08
1.16571e-08
1.15028e-08
1.1285e-08
1.09959e-08
9.20917e-09
9.32142e-09
9.40731e-09
9.46301e-09
9.48969e-09
9.48535e-09
9.44576e-09
9.36663e-09
9.24401e-09
9.07303e-09
7.42717e-09
7.50846e-09
7.57665e-09
7.61562e-09
7.63242e-09
7.62614e-09
7.59226e-09
7.52763e-09
7.42966e-09
7.29498e-09
6.05695e-09
6.10685e-09
6.13493e-09
6.14489e-09
6.1367e-09
6.10705e-09
6.05358e-09
5.97463e-09
5.86782e-09
4.89495e-09
4.92877e-09
4.94918e-09
4.95479e-09
4.94524e-09
4.91892e-09
4.87432e-09
4.8101e-09
4.7245e-09
3.95747e-09
3.98218e-09
3.99665e-09
3.99901e-09
3.98912e-09
3.9662e-09
3.92921e-09
3.87694e-09
3.80809e-09
3.20254e-09
3.22016e-09
3.2298e-09
3.22989e-09
3.22032e-09
3.20063e-09
3.16994e-09
3.12739e-09
3.07204e-09
2.59191e-09
2.6043e-09
2.61052e-09
2.60927e-09
2.60041e-09
2.5836e-09
2.55821e-09
2.52383e-09
2.47935e-09
2.09663e-09
2.10515e-09
2.10892e-09
2.10684e-09
2.09874e-09
2.08447e-09
2.0636e-09
2.03584e-09
1.696e-09
1.70166e-09
1.7035e-09
1.70069e-09
1.69327e-09
1.68107e-09
1.66379e-09
1.64116e-09
1.37371e-09
1.37684e-09
1.37763e-09
1.37414e-09
1.36708e-09
1.35645e-09
1.34186e-09
1.32321e-09
1.11764e-09
1.11717e-09
1.11339e-09
1.10665e-09
1.09711e-09
1.08447e-09
1.06873e-09
9.10121e-10
9.08509e-10
9.04601e-10
8.98227e-10
8.89451e-10
8.78201e-10
8.64612e-10
7.44992e-10
7.43524e-10
7.40219e-10
7.351e-10
7.27763e-10
7.18279e-10
7.07329e-10
6.2556e-10
6.23914e-10
6.20692e-10
6.16412e-10
6.09957e-10
6.01544e-10
5.92615e-10
5.36748e-10
5.34627e-10
5.30899e-10
5.26281e-10
5.19595e-10
5.10894e-10
4.60005e-10
4.5826e-10
4.5494e-10
4.50702e-10
4.44629e-10
4.36469e-10
3.90352e-10
3.88353e-10
3.84828e-10
3.80427e-10
3.74601e-10
3.66603e-10
3.30343e-10
3.29206e-10
3.26746e-10
3.23339e-10
3.18874e-10
3.12805e-10
2.71862e-10
2.69157e-10
2.65208e-10
2.60679e-10
2.55579e-10
2.47943e-10
2.35655e-10
2.35643e-10
2.34457e-10
2.31746e-10
2.28712e-10
2.25796e-10
1.72333e-10
1.67923e-10
1.64175e-10
1.59921e-10
1.50932e-10
1.89072e-10
1.90934e-10
1.88545e-10
1.87706e-10
1.94118e-10
1.18257e-10
1.18496e-10
1.21679e-10
1.20188e-10
1.1063e-10
2.63169e-10
2.77718e-10
2.76176e-10
2.82399e-10
3.09325e-10
3.2484e-10
3.44347e-10
3.71761e-10
6.7855e-10
7.59783e-10
7.07237e-10
6.38193e-10
)
;

boundaryField
{
    inlet
    {
        type            calculated;
        value           nonuniform List<scalar> 4(1.2867e-08 1.45634e-08 1.49316e-08 1.52744e-08);
    }
    outlet
    {
        type            calculated;
        value           nonuniform List<scalar> 0();
    }
    walls
    {
        type            calculated;
        value           uniform 0;
    }
    frontAndBack
    {
        type            empty;
    }
    procBoundary5to0
    {
        type            processor;
        value           nonuniform List<scalar> 4(0.000187134 0.000182814 0.000178185 0.00017257);
    }
    procBoundary5to1
    {
        type            processor;
        value           nonuniform List<scalar> 
13
(
0.00607045
0.00333871
0.00333871
0.00214743
0.00153321
0.00153321
0.000969556
0.000693088
0.000693088
0.000461439
0.000315186
0.000232924
0.000232924
)
;
    }
    procBoundary5to4
    {
        type            processor;
        value           nonuniform List<scalar> 
95
(
0.00019051
0.000193417
0.0001956
0.0001956
0.000143412
0.000143982
0.000143982
0.000107139
0.000106762
0.000106762
8.03124e-05
8.03124e-05
6.11127e-05
6.11127e-05
4.72505e-05
3.66475e-05
3.66475e-05
2.86207e-05
2.86207e-05
2.2583e-05
1.78705e-05
1.78705e-05
1.42182e-05
1.13696e-05
1.13696e-05
9.10428e-06
7.34175e-06
7.34175e-06
5.90864e-06
4.75771e-06
3.87566e-06
3.87566e-06
3.13162e-06
2.53062e-06
2.07705e-06
2.07705e-06
1.68211e-06
1.36203e-06
1.12355e-06
1.12355e-06
9.10904e-07
7.38166e-07
6.10887e-07
6.10887e-07
4.95255e-07
4.01267e-07
3.24882e-07
2.62839e-07
2.17925e-07
2.17925e-07
1.76228e-07
1.42421e-07
1.15024e-07
9.28318e-08
7.68051e-08
7.68051e-08
6.1941e-08
4.99348e-08
4.02408e-08
3.24147e-08
2.66954e-08
2.66954e-08
2.14988e-08
1.7316e-08
1.3951e-08
1.1244e-08
9.06707e-09
7.31534e-09
5.99676e-09
5.99676e-09
4.84637e-09
3.92133e-09
3.17571e-09
2.57207e-09
2.08219e-09
1.68556e-09
1.36624e-09
1.11629e-09
1.11629e-09
9.09672e-10
7.44801e-10
6.25679e-10
5.37278e-10
4.60264e-10
3.90929e-10
3.3028e-10
2.73568e-10
2.34436e-10
1.75962e-10
1.75962e-10
1.86321e-10
1.17074e-10
2.50573e-10
2.86589e-10
6.75226e-10
)
;
    }
    procBoundary5to6
    {
        type            processor;
        value           nonuniform List<scalar> 
86
(
392.624
23.3496
25.5875
21.8112
6.57125
0.125781
0.0182441
0.00255224
0
0
5.51299e-10
2.70205e-07
4.19319e-06
4.46732e-06
3.01079e-06
2.34954e-06
2.25679e-06
2.27917e-06
2.22329e-06
2.08741e-06
1.92201e-06
1.75889e-06
1.60611e-06
1.46235e-06
1.32596e-06
1.19602e-06
1.07292e-06
9.57192e-07
8.49026e-07
7.48906e-07
6.56953e-07
5.72999e-07
4.97038e-07
4.74939e-07
4.74939e-07
4.07428e-07
3.47545e-07
2.94854e-07
2.48847e-07
2.08945e-07
1.74602e-07
1.45259e-07
1.20349e-07
9.93219e-08
8.16696e-08
6.69329e-08
5.81767e-08
5.81767e-08
4.73071e-08
3.8381e-08
3.10758e-08
2.51188e-08
2.02813e-08
1.63615e-08
1.31909e-08
1.06301e-08
8.84807e-09
8.84807e-09
7.1197e-09
5.73005e-09
4.61544e-09
3.7214e-09
3.00303e-09
2.42501e-09
2.00057e-09
2.00057e-09
1.61308e-09
1.30043e-09
1.04991e-09
8.48688e-10
6.94364e-10
5.82394e-10
5.02243e-10
5.02243e-10
4.28265e-10
3.58589e-10
3.05852e-10
2.41113e-10
2.19457e-10
1.46622e-10
1.86677e-10
1.13804e-10
3.3009e-10
3.3009e-10
3.72672e-10
1.10135e-09
)
;
    }
}


// ************************************************************************* //
