/*--------------------------------*- C++ -*----------------------------------*\
| =========                 |                                                 |
| \\      /  F ield         | OpenFOAM: The Open Source CFD Toolbox           |
|  \\    /   O peration     | Version:  2506                                  |
|   \\  /    A nd           | Website:  www.openfoam.com                      |
|    \\/     M anipulation  |                                                 |
\*---------------------------------------------------------------------------*/
FoamFile
{
    version     2.0;
    format      ascii;
    arch        "LSB;label=32;scalar=64";
    class       volScalarField;
    location    "150";
    object      turbulenceProperties:L;
}
// * * * * * * * * * * * * * * * * * * * * * * * * * * * * * * * * * * * * * //

dimensions      [0 1 0 0 0 0 0];

internalField   nonuniform List<scalar> 
1340
(
0.00183981
0.00175678
0.00168284
0.00161197
0.00156729
0.00154056
0.00153601
0.00155831
0.00160921
0.00169174
0.00181
0.00197215
0.00218285
0.00245552
0.00280928
0.00327744
0.00390221
0.00477803
0.00598941
0.0078858
0.0106219
0.0157517
0.0238445
0.0410159
0.0522248
0.0555046
0.0563506
0.0573372
0.0585664
0.0595909
0.0601988
0.0604973
0.0606846
0.0608687
0.0611074
0.00194162
0.00204889
0.00222086
0.00242877
0.00272015
0.00313425
0.00366451
0.00391579
0.0039244
0.00394588
0.0040021
0.00409448
0.00421058
0.00436212
0.00455442
0.00477324
0.00502464
0.00529817
0.00557884
0.00572161
0.00561144
0.00526857
0.00492062
0.00494973
0.00549228
0.00636515
0.00778363
0.00947155
0.0128728
0.016799
0.0264555
0.0376874
0.0497603
0.0636422
0.0791592
0.0951004
0.109999
0.123614
0.136576
0.148808
0.159486
0.168078
0.0039354
0.00396562
0.00402413
0.00411486
0.00425084
0.00445378
0.00478399
0.00480789
0.00486769
0.00496132
0.00506573
0.00518899
0.00532431
0.00545648
0.00557931
0.00568305
0.00576577
0.00583045
0.00585791
0.00585863
0.00582562
0.00586418
0.00619371
0.00673495
0.0093401
0.00518256
0.0072702
0.00829118
0.0243786
0.0501899
0.0314467
0.0340433
0.0417722
0.054233
0.0709619
0.090356
0.110675
0.130261
0.148625
0.166542
0.184718
0.00476305
0.00476389
0.00476925
0.0048101
0.00489118
0.00504375
0.00522407
0.00521864
0.00523186
0.00525468
0.00530084
0.00537179
0.00546435
0.0055864
0.00573627
0.00591692
0.00613001
0.00637728
0.0066672
0.00701176
0.00741839
0.00793334
0.00859279
0.00933359
0.0104366
0.0127153
0.0636167
0.00796358
3.98687
0.00618854
0.0125628
0.0194439
0.0316179
0.0363899
0.062124
0.110729
0.105904
0.122793
0.143667
0.164735
0.185175
0.00525185
0.00529412
0.00536189
0.0054477
0.00556486
0.00601423
0.00602082
0.00604572
0.0060904
0.0061598
0.00625755
0.00638228
0.00653642
0.00672028
0.00692812
0.00715648
0.00739919
0.00764664
0.00788628
0.00810723
0.00829673
0.00849585
0.00874947
0.00908046
0.00945051
0.01073
0.0182625
0.435671
0.196235
3.5968
0
0
0.0148534
0.0175695
0.0274503
0.0295396
0.0572207
0.186569
0.202332
0.198354
0.00602236
0.00604365
0.00608688
0.00615838
0.00626735
0.00665455
0.00664137
0.0066437
0.00665732
0.00669089
0.00674598
0.00682183
0.00692319
0.00705131
0.00720666
0.0073925
0.00761033
0.00786124
0.00814749
0.00847028
0.00883868
0.00929572
0.00986316
0.0105172
0.0112417
0.0119361
0.0127971
0.0144896
0.025806
0.459643
0.164418
0.227796
0.572407
0
0
0.0173864
0.0263802
0.0158087
0.0501701
0.171811
0.00668402
0.00672488
0.00678602
0.00687123
0.007395
0.00737966
0.00737793
0.00738865
0.00741849
0.00747077
0.00754577
0.00764764
0.0077788
0.00793985
0.00813295
0.00835886
0.00861674
0.00890569
0.00922282
0.00956401
0.00991131
0.0102622
0.0106492
0.0111025
0.0116243
0.0121634
0.0127294
0.0136879
0.0154283
0.0189082
0.025665
0.0657751
0.176962
0.326926
0
0
0.0134494
0.0284659
0.0642072
0.00742543
0.00746641
0.00752736
0.00761586
0.00812813
0.00810148
0.00808608
0.0080813
0.0080925
0.00812314
0.00817302
0.00824625
0.00834495
0.00846962
0.00862374
0.00880866
0.00902576
0.00927735
0.00956508
0.00989007
0.010259
0.0106982
0.0112144
0.0117928
0.0124101
0.0130296
0.0135899
0.0141368
0.0147483
0.0157023
0.017091
0.0193632
0.0234725
0.0367537
0.182336
0.398647
0
0
0
0.00816928
0.00821912
0.00828731
0.00838424
0.00890131
0.00886712
0.00884204
0.00882795
0.00882836
0.00884703
0.0088844
0.00894472
0.00903034
0.00914244
0.00928426
0.00945773
0.00966455
0.00990703
0.010186
0.0105035
0.0108609
0.0112523
0.0116776
0.0121451
0.0126591
0.0132136
0.0137875
0.0143972
0.0150872
0.0159197
0.0169362
0.0180084
0.0192329
0.0210113
0.0248889
0.042036
0.205918
1.08753
0
0.00894898
0.00900455
0.00907738
0.00957875
0.00958221
0.00960224
0.00964366
0.00970803
0.00979676
0.0099137
0.0100603
0.0102385
0.0104509
0.0106996
0.0109872
0.0113151
0.0116898
0.0121231
0.0126139
0.0131488
0.0137115
0.0142874
0.0148948
0.0156067
0.0164941
0.0175616
0.018675
0.0196935
0.020605
0.0214225
0.0232131
0.0280632
0.111814
0.470325
0.0103618
0.0103879
0.0104358
0.0105072
0.0106058
0.010734
0.0108935
0.0110874
0.011318
0.0115876
0.0118993
0.0122538
0.0126529
0.0130981
0.0135858
0.0141115
0.0146695
0.0152724
0.0159772
0.0168567
0.01793
0.0191206
0.0202855
0.0213452
0.0222014
0.0228747
0.0235134
0.0260412
0.0564347
0.0111906
0.0112443
0.0113214
0.011428
0.0115652
0.0117353
0.0119413
0.0121861
0.0124723
0.0128008
0.0131782
0.0136082
0.0140851
0.0145999
0.0151482
0.0157426
0.01643
0.0172742
0.0182994
0.0194542
0.020638
0.0217865
0.0228656
0.0237697
0.0243993
0.0244183
0.0258518
0.0120191
0.0120801
0.0121654
0.0122826
0.0124323
0.0126171
0.0128403
0.0131048
0.0134119
0.0137644
0.0141657
0.0146144
0.0151042
0.0156349
0.0162185
0.0168928
0.0177095
0.0186913
0.0197964
0.0209434
0.0220764
0.0231919
0.0242544
0.0252159
0.0256775
0.0255009
0.0128731
0.0129407
0.0130353
0.0131638
0.0133264
0.0135263
0.0137669
0.0140499
0.0143773
0.0147546
0.0151821
0.0156528
0.0161673
0.0167372
0.0173946
0.0181833
0.0191242
0.0201837
0.0212905
0.0223915
0.0234785
0.0245376
0.0255606
0.0263733
0.0270415
0.0137055
0.0137558
0.0138295
0.013937
0.0140786
0.014256
0.0144729
0.0147326
0.0150352
0.0153862
0.0157884
0.0162363
0.0167311
0.0172842
0.0179225
0.0186833
0.0195854
0.020603
0.0216744
0.0227487
0.0238102
0.0248433
0.0258348
0.0266726
0.0275814
0.0146104
0.0146681
0.0147519
0.0148718
0.0150269
0.0152203
0.0154562
0.0157341
0.0160598
0.0164372
0.0168626
0.0173369
0.0178703
0.018487
0.0192183
0.0200814
0.0210565
0.0220918
0.0231398
0.0241808
0.0251971
0.0261612
0.0270083
0.0276535
0.0155486
0.0156138
0.0157098
0.0158434
0.0160141
0.016226
0.0164797
0.0167798
0.0171313
0.0175331
0.0179852
0.0184968
0.0190895
0.0197905
0.0206149
0.0215476
0.0225454
0.0235652
0.0245849
0.025587
0.0265343
0.027402
0.0279241
0.0164728
0.0165212
0.0165936
0.0167055
0.0168535
0.0170411
0.0172703
0.0175444
0.0178696
0.0182473
0.0186761
0.0191643
0.0197316
0.0204016
0.0211878
0.0220787
0.0230386
0.0240285
0.025025
0.0260105
0.0269476
0.0278122
0.0284031
0.0174757
0.0175293
0.0176158
0.0177413
0.017905
0.0181098
0.018358
0.0186568
0.0190093
0.0194132
0.019876
0.0204159
0.0210541
0.0218024
0.0226521
0.0235736
0.0245323
0.0255045
0.0264709
0.0274
0.0282475
0.0289439
0.0184777
0.0185151
0.0185761
0.0186792
0.0188196
0.0190001
0.0192224
0.0194943
0.0198207
0.020199
0.0206352
0.0211463
0.0217516
0.0224616
0.0232701
0.0241528
0.0250792
0.0260259
0.0269721
0.0278922
0.0287265
0.0294818
0.0195519
0.0195938
0.0196705
0.0197878
0.0199439
0.0201398
0.0203847
0.0206843
0.0210361
0.0214446
0.0219257
0.0224973
0.0231692
0.0239368
0.0247802
0.0256729
0.0265927
0.0275179
0.0284266
0.0292571
0.0300293
0.0206415
0.0206675
0.0207171
0.0208107
0.0209426
0.0211126
0.0213302
0.0216021
0.0219265
0.0223066
0.0227564
0.0232936
0.0239273
0.0246543
0.0254583
0.0263167
0.0272084
0.028112
0.029007
0.0298385
0.0306137
0.0217962
0.0218253
0.0218919
0.0219998
0.0221449
0.0223352
0.0225786
0.022875
0.0232258
0.0236434
0.0241453
0.0247406
0.0254268
0.0261911
0.0270142
0.0278766
0.0287581
0.0296387
0.0304717
0.0312517
0.0229865
0.0229956
0.0230363
0.02312
0.0232403
0.0234031
0.0236174
0.0238854
0.0242061
0.0245914
0.0250577
0.0256145
0.02626
0.0269843
0.027771
0.0286029
0.0294609
0.0303266
0.0311596
0.0319505
0.0242426
0.0242324
0.0242431
0.0243014
0.0243967
0.0245309
0.0247157
0.0249548
0.0252457
0.0255983
0.0260293
0.026548
0.0271538
0.0278389
0.0285898
0.0293909
0.0302249
0.0310754
0.031907
0.0327124
0.0255327
0.0255217
0.0255508
0.0256211
0.0257283
0.0258832
0.0260925
0.0263521
0.0266713
0.0270663
0.0275466
0.0281126
0.0287582
0.029473
0.0302433
0.0310534
0.0318886
0.0327201
0.0335404
0.0269039
0.026873
0.0268744
0.0269199
0.0270008
0.0271265
0.0273054
0.0275339
0.0278197
0.0281784
0.0286198
0.0291454
0.029751
0.0304284
0.0311667
0.0319522
0.0327718
0.0336021
0.0344394
0.0283529
0.028303
0.0282711
0.0282903
0.028344
0.0284399
0.0285879
0.0287859
0.0290393
0.0293628
0.0297669
0.0302536
0.0308204
0.0314613
0.0321672
0.0329273
0.0337318
0.03456
0.0354141
0.0298061
0.0297517
0.0297396
0.0297661
0.0298328
0.0299499
0.030116
0.0303365
0.0306251
0.030992
0.03144
0.0319686
0.0325737
0.0332484
0.0339835
0.0347723
0.0356002
0.0364703
0.0313923
0.031318
0.0312763
0.0312765
0.0313155
0.031402
0.0315365
0.031724
0.0319773
0.0323065
0.0327156
0.0332055
0.0337742
0.0344169
0.0351274
0.0359007
0.0367275
0.037615
0.0330707
0.0329772
0.0328989
0.0328716
0.0328826
0.0329382
0.0330414
0.0331974
0.0334174
0.0337108
0.0340829
0.0345357
0.0350689
0.0356802
0.0363657
0.0371239
0.0379495
0.0388547
0.0347215
0.0346188
0.0345585
0.0345408
0.0345663
0.0346383
0.0347625
0.0349494
0.0352081
0.0355441
0.0359611
0.0364606
0.0370421
0.0377041
0.0384476
0.0392727
0.0401952
0.036562
0.0364402
0.0363495
0.0363045
0.0363014
0.0363427
0.0364351
0.0365891
0.0368129
0.0371128
0.0374936
0.037959
0.0385106
0.0391493
0.039879
0.0407038
0.041644
0.038514
0.0383735
0.0382437
0.0381705
0.0381393
0.0381508
0.0382124
0.038335
0.0385265
0.0387927
0.0391395
0.039572
0.0400945
0.0407103
0.0414264
0.0422511
0.0404058
0.0402529
0.0401454
0.0400845
0.0400668
0.0400985
0.0401909
0.0403516
0.0405862
0.0409013
0.0413035
0.041799
0.0423937
0.0430971
0.0439221
0.0425517
0.0423798
0.0422412
0.0421514
0.0421065
0.0421097
0.0421721
0.0423018
0.042505
0.042789
0.0431618
0.0436315
0.0442064
0.0448986
0.0457247
0.0448356
0.0446331
0.0444629
0.0443459
0.0442747
0.0442503
0.0442842
0.0443849
0.0445585
0.0448128
0.0451574
0.0456021
0.0461577
0.0468394
0.047667
0.0472514
0.0470209
0.0468214
0.0466789
0.0465817
0.04653
0.0465366
0.0466102
0.0467561
0.0469828
0.0473008
0.0477218
0.0482592
0.0489305
0.0497594
0.0498029
0.0495583
0.0493191
0.0491512
0.0490293
0.0489518
0.0489328
0.0489814
0.0491023
0.0493041
0.0495983
0.0499984
0.0505196
0.0511818
0.0520118
0.0522285
0.0519679
0.0517681
0.051621
0.05152
0.0514777
0.0515029
0.0516008
0.0517804
0.0520543
0.0524368
0.0529445
0.0536001
0.0544326
0.0550475
0.0547739
0.0545457
0.0543747
0.0542526
0.0541881
0.0541906
0.0542663
0.0544251
0.05468
0.0550464
0.0555428
0.0561935
0.0570295
0.0580515
0.0577486
0.0574921
0.0572995
0.0571578
0.0570729
0.0570549
0.057111
0.0572508
0.0574882
0.0578398
0.058326
0.0589724
0.0598125
0.0612288
0.0609012
0.0606206
0.060409
0.0602487
0.0601441
0.0601073
0.0601463
0.0602699
0.0604918
0.0608305
0.0613072
0.0619498
0.0627936
0.0645878
0.0642534
0.0639352
0.0637061
0.0635299
0.0634078
0.0633548
0.0633795
0.0634897
0.0636993
0.0640275
0.0644973
0.0651374
0.0659851
0.0677819
0.0674479
0.0671948
0.0670025
0.0668666
0.0668009
0.0668138
0.0669135
0.0671144
0.0674363
0.0679026
0.068543
0.0693961
0.0715037
0.0711667
0.0708918
0.0706839
0.0705373
0.0704608
0.070463
0.0705537
0.0707483
0.0710663
0.0715313
0.0721744
0.0754639
0.075106
0.0748114
0.0745904
0.0744346
0.074349
0.0743423
0.0744262
0.0746161
0.0749314
0.0753967
0.0760431
0.0796503
0.0792747
0.0789659
0.0787358
0.0785712
0.0784769
0.0784638
0.078544
0.0787318
0.0790461
0.0795124
0.080163
0.0840734
0.0837006
0.0833626
0.0831272
0.0829578
0.0828568
0.0828397
0.082919
0.0831073
0.0834231
0.0838924
0.0845481
0.0883563
0.0880125
0.087766
0.0875925
0.0874892
0.0874719
0.0875532
0.0877454
0.0880669
0.088543
0.0892067
0.0932559
0.092923
0.092666
0.092487
0.0923847
0.09237
0.0924548
0.0926528
0.0929825
0.0934694
0.094145
0.0984541
0.0981131
0.0978479
0.0976669
0.097567
0.0975554
0.0976442
0.0978485
0.0981876
0.0986855
0.0993739
0.103933
0.103588
0.103321
0.103141
0.103045
0.103039
0.103135
0.103348
0.103698
0.104209
0.10491
0.109708
0.109361
0.109093
0.108915
0.108825
0.108828
0.108935
0.109162
0.109526
0.11005
0.110767
0.115788
0.115437
0.115173
0.115003
0.114922
0.114935
0.115056
0.115298
0.115678
0.116219
0.122183
0.121851
0.121576
0.12142
0.121353
0.121378
0.121513
0.121773
0.122173
0.122733
0.128574
0.128311
0.128164
0.128112
0.128154
0.12831
0.128592
0.129015
0.129598
0.135606
0.135373
0.135233
0.135195
0.13526
0.135441
0.13575
0.1362
0.136813
0.143008
0.142786
0.142657
0.142636
0.142724
0.14293
0.143265
0.143746
0.144391
0.150779
0.150572
0.15046
0.150459
0.150571
0.150802
0.151166
0.151677
0.152356
0.158968
0.158778
0.158684
0.158703
0.158838
0.159096
0.159489
0.16003
0.160743
0.167622
0.167453
0.167378
0.167419
0.167581
0.167867
0.16829
0.168861
0.176748
0.176601
0.176553
0.176626
0.176819
0.17714
0.177598
0.178207
0.186309
0.186203
0.186177
0.186295
0.186535
0.1869
0.187406
0.188063
0.196169
0.19619
0.196357
0.196655
0.197081
0.197653
0.198377
0.206504
0.206596
0.206819
0.207185
0.207695
0.208357
0.209171
0.217102
0.217209
0.217452
0.217829
0.218377
0.219094
0.219938
0.226794
0.226944
0.227238
0.227632
0.228232
0.229026
0.229884
0.235643
0.235877
0.23629
0.236807
0.237565
0.238571
0.244909
0.245142
0.245588
0.246164
0.247
0.248147
0.255169
0.255498
0.256081
0.256818
0.257811
0.259206
0.266042
0.266271
0.266771
0.267471
0.268403
0.269696
0.27932
0.280019
0.281055
0.282269
0.283666
0.285826
0.289481
0.289484
0.28985
0.290694
0.291653
0.29259
0.313038
0.315074
0.316857
0.318943
0.323589
0.305869
0.305121
0.306083
0.306424
0.303862
0.343944
0.34377
0.3415
0.342554
0.349724
0.281605
0.277842
0.278229
0.276683
0.270457
0.267168
0.263302
0.258308
0.222237
0.216043
0.219949
0.225671
)
;

boundaryField
{
    inlet
    {
        type            calculated;
        value           nonuniform List<scalar> 4(0.106499 0.103252 0.102609 0.102029);
    }
    outlet
    {
        type            calculated;
        value           nonuniform List<scalar> 0();
    }
    walls
    {
        type            calculated;
        value           uniform 0;
    }
    frontAndBack
    {
        type            empty;
    }
    procBoundary5to0
    {
        type            processor;
        value           nonuniform List<scalar> 4(0.00969791 0.00975469 0.00981745 0.00989637);
    }
    procBoundary5to1
    {
        type            processor;
        value           nonuniform List<scalar> 
13
(
0.00407114
0.00471713
0.00471713
0.00526958
0.00573211
0.00573211
0.00642804
0.00699071
0.00699071
0.00773908
0.00851286
0.00918153
0.00918153
)
;
    }
    procBoundary5to4
    {
        type            processor;
        value           nonuniform List<scalar> 
95
(
0.00965467
0.00961823
0.0095913
0.0095913
0.0103651
0.0103549
0.0103549
0.011149
0.0111588
0.0111588
0.0119819
0.0119819
0.0128289
0.0128289
0.013681
0.0145783
0.0145783
0.0155077
0.0155077
0.016454
0.0174455
0.0174455
0.0184716
0.0195334
0.0195334
0.0206492
0.0217904
0.0217904
0.023006
0.0242864
0.0255638
0.0255638
0.0269631
0.0284383
0.0298778
0.0298778
0.0314954
0.033202
0.0348387
0.0348387
0.0367149
0.0386965
0.0405714
0.0405714
0.0427566
0.0450664
0.0475094
0.0500943
0.0524971
0.0524971
0.0553596
0.0583874
0.0615908
0.0649814
0.0681344
0.0681344
0.0718985
0.0758777
0.0800846
0.0845338
0.0887375
0.0887375
0.0936727
0.0988792
0.104368
0.110151
0.116238
0.122647
0.128895
0.128895
0.135944
0.143336
0.151096
0.159273
0.167912
0.177021
0.186563
0.196228
0.196228
0.20653
0.217116
0.226784
0.235585
0.244874
0.255075
0.266054
0.278883
0.289856
0.311412
0.311412
0.306992
0.344809
0.285079
0.275668
0.22251
)
;
    }
    procBoundary5to6
    {
        type            processor;
        value           nonuniform List<scalar> 
86
(
0.061432
0.174427
0.202514
0.206066
0.212146
0.279519
0.0877607
0.0486408
0
0
0.422126
0.0545562
0.025264
0.0249852
0.0272654
0.0289402
0.0292365
0.0291847
0.0293832
0.0298542
0.0304741
0.031154
0.0318678
0.0326227
0.0334307
0.0343034
0.0352473
0.0362671
0.0373704
0.0385608
0.0398442
0.0412293
0.0427213
0.043209
0.043209
0.0448971
0.0467171
0.048677
0.0507856
0.0530535
0.0554892
0.058101
0.0608987
0.0638933
0.0670966
0.0705189
0.0730343
0.0730343
0.0769098
0.0810372
0.0854294
0.0900977
0.0950473
0.10029
0.105839
0.111707
0.116951
0.116951
0.123481
0.13037
0.137614
0.145225
0.153224
0.161636
0.1696
0.1696
0.178978
0.188882
0.199261
0.210146
0.220957
0.230887
0.239592
0.239592
0.249327
0.260643
0.271216
0.287829
0.29468
0.325941
0.306845
0.34726
0.266098
0.266098
0.25815
0.196894
)
;
    }
}


// ************************************************************************* //
