/*--------------------------------*- C++ -*----------------------------------*\
| =========                 |                                                 |
| \\      /  F ield         | OpenFOAM: The Open Source CFD Toolbox           |
|  \\    /   O peration     | Version:  2506                                  |
|   \\  /    A nd           | Website:  www.openfoam.com                      |
|    \\/     M anipulation  |                                                 |
\*---------------------------------------------------------------------------*/
FoamFile
{
    version     2.0;
    format      ascii;
    arch        "LSB;label=32;scalar=64";
    class       volScalarField;
    location    "150";
    object      turbulenceProperties:nuEff;
}
// * * * * * * * * * * * * * * * * * * * * * * * * * * * * * * * * * * * * * //

dimensions      [0 2 -1 0 0 0 0];

internalField   nonuniform List<scalar> 
1340
(
3.40224e-05
3.74966e-05
4.21622e-05
4.82253e-05
5.60749e-05
6.62319e-05
7.94062e-05
9.59664e-05
0.000116871
0.000143131
0.00017627
0.00021976
0.000277358
0.000356423
0.000468976
0.000636647
0.000893827
0.00131747
0.0020177
0.00336862
0.00578887
0.0117989
0.0244338
0.0646657
0.096026
0.103213
0.103377
0.104684
0.106943
0.108329
0.108002
0.106179
0.103286
0.0995013
0.0946996
3.10416e-05
2.8463e-05
2.59334e-05
2.36177e-05
2.14537e-05
1.94872e-05
1.78239e-05
1.51558e-05
1.50536e-05
1.49602e-05
1.48813e-05
1.47905e-05
1.47058e-05
1.46403e-05
1.45799e-05
1.45488e-05
1.4545e-05
1.45897e-05
1.46472e-05
1.52306e-05
1.7065e-05
2.21637e-05
3.65938e-05
7.28742e-05
0.000143034
0.000259369
0.000503936
0.00096848
0.00228728
0.00481187
0.0136271
0.0286877
0.0479055
0.0716125
0.0984708
0.123682
0.141292
0.149515
0.151416
0.150386
0.147721
0.143983
1.52362e-05
1.53452e-05
1.54387e-05
1.55642e-05
1.56914e-05
1.5819e-05
1.62485e-05
1.62655e-05
1.62832e-05
1.63021e-05
1.6325e-05
1.63501e-05
1.63785e-05
1.64112e-05
1.64494e-05
1.64936e-05
1.65462e-05
1.66083e-05
1.6685e-05
1.67756e-05
1.69156e-05
1.66785e-05
1.53249e-05
1.39139e-05
1.13741e-05
8.63477e-05
0.000201962
0.000207602
0.00101715
0.000419985
0.0019993
0.00418897
0.0086607
0.017988
0.0353923
0.0619654
0.0946434
0.125994
0.149283
0.163475
0.171496
1.62355e-05
1.62168e-05
1.62028e-05
1.61831e-05
1.61665e-05
1.61521e-05
1.609e-05
1.60899e-05
1.60913e-05
1.60931e-05
1.6095e-05
1.60982e-05
1.61034e-05
1.61103e-05
1.61203e-05
1.61338e-05
1.61514e-05
1.61744e-05
1.6204e-05
1.6242e-05
1.62902e-05
1.63522e-05
1.6312e-05
1.6168e-05
1.50011e-05
1.26227e-05
1.00242e-05
1.96958e-05
1e-05
6.31606e-05
0.000423613
0.000897441
0.00194607
0.00185386
0.0025925
0.00587004
0.0176729
0.0410603
0.0752958
0.113356
0.146261
1.6088e-05
1.60897e-05
1.6089e-05
1.60907e-05
1.60923e-05
1.61127e-05
1.61135e-05
1.61147e-05
1.61154e-05
1.61164e-05
1.61177e-05
1.61198e-05
1.61228e-05
1.61267e-05
1.61318e-05
1.61385e-05
1.61472e-05
1.61585e-05
1.6173e-05
1.61924e-05
1.6217e-05
1.62482e-05
1.62709e-05
1.63337e-05
1.65531e-05
1.48275e-05
1.09578e-05
1.00002e-05
1.00013e-05
1e-05
1e-05
1e-05
0.000408469
0.000577872
0.00135962
0.00137315
0.00350756
0.0119988
0.035378
0.073641
1.61104e-05
1.61093e-05
1.61072e-05
1.61055e-05
1.61034e-05
1.6106e-05
1.61066e-05
1.61079e-05
1.61093e-05
1.61105e-05
1.61121e-05
1.6114e-05
1.61161e-05
1.61186e-05
1.61216e-05
1.61252e-05
1.61297e-05
1.61353e-05
1.61424e-05
1.61518e-05
1.61642e-05
1.61804e-05
1.6196e-05
1.62365e-05
1.63007e-05
1.65643e-05
1.64304e-05
1.4773e-05
1.0809e-05
1.00003e-05
1.00058e-05
1.00026e-05
1.00002e-05
1e-05
1e-05
0.000312133
0.000811327
0.000302201
0.00251583
0.013989
1.61042e-05
1.61044e-05
1.61028e-05
1.61022e-05
1.61043e-05
1.61047e-05
1.61057e-05
1.61066e-05
1.61075e-05
1.61086e-05
1.61098e-05
1.61109e-05
1.61121e-05
1.61132e-05
1.61141e-05
1.61153e-05
1.61167e-05
1.61187e-05
1.61212e-05
1.61248e-05
1.61296e-05
1.61348e-05
1.6142e-05
1.6145e-05
1.61858e-05
1.63633e-05
1.66025e-05
1.61697e-05
1.49166e-05
1.30665e-05
1.14772e-05
1.01257e-05
1.00102e-05
1.00022e-05
1e-05
1e-05
4.12611e-05
0.000586177
0.00337469
1.6103e-05
1.61035e-05
1.61024e-05
1.61021e-05
1.61018e-05
1.61022e-05
1.61034e-05
1.61046e-05
1.61058e-05
1.61073e-05
1.61089e-05
1.61106e-05
1.61125e-05
1.61145e-05
1.61166e-05
1.6119e-05
1.61216e-05
1.61245e-05
1.61278e-05
1.61316e-05
1.61363e-05
1.61416e-05
1.61467e-05
1.61509e-05
1.61534e-05
1.61596e-05
1.62355e-05
1.63735e-05
1.6667e-05
1.68119e-05
1.66956e-05
1.56708e-05
1.36902e-05
1.10823e-05
1.00151e-05
1.0002e-05
1e-05
1e-05
1e-05
1.61008e-05
1.61016e-05
1.61011e-05
1.61011e-05
1.60997e-05
1.61004e-05
1.61017e-05
1.61029e-05
1.61042e-05
1.61057e-05
1.61072e-05
1.61087e-05
1.61103e-05
1.61118e-05
1.61134e-05
1.61151e-05
1.61168e-05
1.61185e-05
1.61201e-05
1.61218e-05
1.61233e-05
1.61247e-05
1.61267e-05
1.61298e-05
1.61337e-05
1.61365e-05
1.61425e-05
1.61443e-05
1.6207e-05
1.63881e-05
1.66521e-05
1.70709e-05
1.72815e-05
1.665e-05
1.43678e-05
1.09585e-05
1.00135e-05
1.00002e-05
1e-05
1.60989e-05
1.60998e-05
1.60998e-05
1.61029e-05
1.61043e-05
1.61059e-05
1.61073e-05
1.61088e-05
1.61104e-05
1.6112e-05
1.61137e-05
1.61155e-05
1.61175e-05
1.61196e-05
1.61219e-05
1.61245e-05
1.61274e-05
1.61304e-05
1.61333e-05
1.61362e-05
1.61395e-05
1.61429e-05
1.614e-05
1.61286e-05
1.61362e-05
1.61865e-05
1.63503e-05
1.66534e-05
1.70547e-05
1.75961e-05
1.67496e-05
1.38961e-05
1.00757e-05
1.00017e-05
1.61044e-05
1.61056e-05
1.61071e-05
1.61085e-05
1.61099e-05
1.61114e-05
1.6113e-05
1.61147e-05
1.61165e-05
1.61184e-05
1.61205e-05
1.61226e-05
1.6125e-05
1.61278e-05
1.61311e-05
1.61349e-05
1.61394e-05
1.61443e-05
1.61441e-05
1.61372e-05
1.61286e-05
1.61311e-05
1.6184e-05
1.63088e-05
1.6636e-05
1.71683e-05
1.77176e-05
1.58531e-05
1.05366e-05
1.61053e-05
1.61067e-05
1.61081e-05
1.61095e-05
1.6111e-05
1.61126e-05
1.61144e-05
1.61163e-05
1.61184e-05
1.61206e-05
1.61231e-05
1.61258e-05
1.61288e-05
1.61321e-05
1.6136e-05
1.61407e-05
1.61458e-05
1.61491e-05
1.61489e-05
1.61429e-05
1.61356e-05
1.61332e-05
1.61691e-05
1.63469e-05
1.67579e-05
1.78209e-05
1.69091e-05
1.61048e-05
1.61061e-05
1.61075e-05
1.61089e-05
1.61104e-05
1.61121e-05
1.61138e-05
1.61158e-05
1.61179e-05
1.61202e-05
1.61227e-05
1.61256e-05
1.61289e-05
1.61326e-05
1.61367e-05
1.61416e-05
1.6147e-05
1.61525e-05
1.61569e-05
1.61579e-05
1.61539e-05
1.61401e-05
1.6142e-05
1.61743e-05
1.65629e-05
1.75989e-05
1.61043e-05
1.61056e-05
1.6107e-05
1.61084e-05
1.611e-05
1.61117e-05
1.61136e-05
1.61156e-05
1.61178e-05
1.61202e-05
1.61229e-05
1.6126e-05
1.61295e-05
1.61334e-05
1.61378e-05
1.61427e-05
1.61483e-05
1.61548e-05
1.61616e-05
1.6168e-05
1.61689e-05
1.61653e-05
1.61345e-05
1.6167e-05
1.61876e-05
1.61026e-05
1.61039e-05
1.61052e-05
1.61065e-05
1.6108e-05
1.61096e-05
1.61113e-05
1.61131e-05
1.61152e-05
1.61174e-05
1.61199e-05
1.61228e-05
1.61261e-05
1.61298e-05
1.61339e-05
1.61385e-05
1.61436e-05
1.61495e-05
1.61565e-05
1.61648e-05
1.61732e-05
1.61831e-05
1.61762e-05
1.61881e-05
1.59945e-05
1.61022e-05
1.61034e-05
1.61047e-05
1.61061e-05
1.61075e-05
1.61091e-05
1.61109e-05
1.61128e-05
1.61149e-05
1.61173e-05
1.612e-05
1.6123e-05
1.61264e-05
1.61302e-05
1.61345e-05
1.61392e-05
1.61446e-05
1.61508e-05
1.61583e-05
1.6167e-05
1.61782e-05
1.61895e-05
1.61926e-05
1.62524e-05
1.61018e-05
1.6103e-05
1.61043e-05
1.61057e-05
1.61072e-05
1.61089e-05
1.61107e-05
1.61126e-05
1.61149e-05
1.61174e-05
1.61203e-05
1.61235e-05
1.6127e-05
1.6131e-05
1.61354e-05
1.61403e-05
1.6146e-05
1.61526e-05
1.61606e-05
1.61691e-05
1.61866e-05
1.61697e-05
1.63551e-05
1.61002e-05
1.61014e-05
1.61026e-05
1.61039e-05
1.61053e-05
1.61069e-05
1.61085e-05
1.61104e-05
1.61125e-05
1.61148e-05
1.61175e-05
1.61205e-05
1.61239e-05
1.61276e-05
1.61317e-05
1.61364e-05
1.61417e-05
1.61478e-05
1.61552e-05
1.61621e-05
1.61786e-05
1.61636e-05
1.62918e-05
1.60999e-05
1.6101e-05
1.61023e-05
1.61036e-05
1.6105e-05
1.61066e-05
1.61083e-05
1.61102e-05
1.61124e-05
1.61149e-05
1.61177e-05
1.61208e-05
1.61243e-05
1.61282e-05
1.61325e-05
1.61376e-05
1.61433e-05
1.61502e-05
1.6157e-05
1.61694e-05
1.61696e-05
1.62093e-05
1.60985e-05
1.60996e-05
1.61007e-05
1.6102e-05
1.61033e-05
1.61048e-05
1.61064e-05
1.61082e-05
1.61102e-05
1.61125e-05
1.61151e-05
1.6118e-05
1.61212e-05
1.61248e-05
1.61289e-05
1.61336e-05
1.61389e-05
1.61452e-05
1.61523e-05
1.61611e-05
1.61723e-05
1.61687e-05
1.60982e-05
1.60993e-05
1.61005e-05
1.61017e-05
1.61031e-05
1.61046e-05
1.61063e-05
1.61081e-05
1.61103e-05
1.61127e-05
1.61153e-05
1.61183e-05
1.61217e-05
1.61255e-05
1.61298e-05
1.61348e-05
1.61406e-05
1.61475e-05
1.61546e-05
1.61684e-05
1.61601e-05
1.6097e-05
1.6098e-05
1.60991e-05
1.61003e-05
1.61016e-05
1.6103e-05
1.61045e-05
1.61062e-05
1.61082e-05
1.61104e-05
1.61129e-05
1.61156e-05
1.61187e-05
1.61223e-05
1.61263e-05
1.61309e-05
1.61363e-05
1.61428e-05
1.61493e-05
1.61612e-05
1.61612e-05
1.60969e-05
1.60979e-05
1.6099e-05
1.61002e-05
1.61015e-05
1.61029e-05
1.61045e-05
1.61063e-05
1.61084e-05
1.61106e-05
1.61132e-05
1.6116e-05
1.61193e-05
1.6123e-05
1.61273e-05
1.61322e-05
1.61381e-05
1.61446e-05
1.61539e-05
1.61607e-05
1.60958e-05
1.60968e-05
1.60978e-05
1.60989e-05
1.61002e-05
1.61015e-05
1.6103e-05
1.61047e-05
1.61066e-05
1.61087e-05
1.61111e-05
1.61137e-05
1.61167e-05
1.61201e-05
1.61241e-05
1.61286e-05
1.61339e-05
1.61402e-05
1.61478e-05
1.6157e-05
1.60948e-05
1.60957e-05
1.60967e-05
1.60978e-05
1.60989e-05
1.61001e-05
1.61015e-05
1.6103e-05
1.61048e-05
1.61068e-05
1.6109e-05
1.61114e-05
1.61143e-05
1.61175e-05
1.61211e-05
1.61253e-05
1.61302e-05
1.6136e-05
1.61427e-05
1.61517e-05
1.60948e-05
1.60957e-05
1.60966e-05
1.60977e-05
1.60988e-05
1.61e-05
1.61015e-05
1.61031e-05
1.61049e-05
1.61069e-05
1.61091e-05
1.61118e-05
1.61147e-05
1.61182e-05
1.61221e-05
1.61267e-05
1.61321e-05
1.61383e-05
1.61463e-05
1.60939e-05
1.60947e-05
1.60956e-05
1.60966e-05
1.60977e-05
1.60989e-05
1.61002e-05
1.61017e-05
1.61033e-05
1.61052e-05
1.61072e-05
1.61096e-05
1.61123e-05
1.61154e-05
1.61191e-05
1.61233e-05
1.61283e-05
1.61342e-05
1.61413e-05
1.60931e-05
1.60939e-05
1.60947e-05
1.60956e-05
1.60966e-05
1.60977e-05
1.60989e-05
1.61003e-05
1.61018e-05
1.61035e-05
1.61054e-05
1.61076e-05
1.61101e-05
1.6113e-05
1.61163e-05
1.61202e-05
1.61248e-05
1.61302e-05
1.61366e-05
1.60932e-05
1.60939e-05
1.60947e-05
1.60956e-05
1.60966e-05
1.60977e-05
1.60989e-05
1.61003e-05
1.61018e-05
1.61036e-05
1.61056e-05
1.6108e-05
1.61107e-05
1.61138e-05
1.61173e-05
1.61215e-05
1.61265e-05
1.61324e-05
1.60926e-05
1.60932e-05
1.6094e-05
1.60948e-05
1.60957e-05
1.60967e-05
1.60978e-05
1.60991e-05
1.61005e-05
1.61021e-05
1.61039e-05
1.6106e-05
1.61085e-05
1.61113e-05
1.61146e-05
1.61185e-05
1.61231e-05
1.61285e-05
1.60921e-05
1.60928e-05
1.60934e-05
1.60941e-05
1.60949e-05
1.60958e-05
1.60968e-05
1.6098e-05
1.60993e-05
1.61007e-05
1.61024e-05
1.61044e-05
1.61066e-05
1.61091e-05
1.61121e-05
1.61157e-05
1.61198e-05
1.61248e-05
1.60924e-05
1.60929e-05
1.60936e-05
1.60942e-05
1.6095e-05
1.60959e-05
1.60969e-05
1.6098e-05
1.60994e-05
1.61009e-05
1.61027e-05
1.61047e-05
1.61071e-05
1.61099e-05
1.61131e-05
1.61169e-05
1.61215e-05
1.60921e-05
1.60926e-05
1.60931e-05
1.60937e-05
1.60944e-05
1.60952e-05
1.60961e-05
1.60971e-05
1.60983e-05
1.60996e-05
1.61012e-05
1.6103e-05
1.61052e-05
1.61077e-05
1.61106e-05
1.61142e-05
1.61183e-05
1.6092e-05
1.60924e-05
1.60929e-05
1.60934e-05
1.6094e-05
1.60947e-05
1.60954e-05
1.60963e-05
1.60974e-05
1.60986e-05
1.61e-05
1.61016e-05
1.61035e-05
1.61058e-05
1.61084e-05
1.61116e-05
1.60923e-05
1.60927e-05
1.60931e-05
1.60936e-05
1.60941e-05
1.60948e-05
1.60956e-05
1.60965e-05
1.60975e-05
1.60988e-05
1.61003e-05
1.6102e-05
1.6104e-05
1.61064e-05
1.61093e-05
1.60922e-05
1.60925e-05
1.60929e-05
1.60933e-05
1.60937e-05
1.60943e-05
1.60949e-05
1.60957e-05
1.60966e-05
1.60977e-05
1.6099e-05
1.61006e-05
1.61024e-05
1.61046e-05
1.61072e-05
1.60923e-05
1.60925e-05
1.60928e-05
1.60931e-05
1.60935e-05
1.60939e-05
1.60945e-05
1.60951e-05
1.60959e-05
1.60968e-05
1.60979e-05
1.60993e-05
1.61009e-05
1.61028e-05
1.61052e-05
1.60924e-05
1.60926e-05
1.60928e-05
1.60931e-05
1.60934e-05
1.60937e-05
1.60942e-05
1.60947e-05
1.60954e-05
1.60962e-05
1.60971e-05
1.60982e-05
1.60996e-05
1.61013e-05
1.61033e-05
1.60926e-05
1.60928e-05
1.60929e-05
1.60931e-05
1.60933e-05
1.60936e-05
1.6094e-05
1.60944e-05
1.6095e-05
1.60956e-05
1.60965e-05
1.60974e-05
1.60986e-05
1.61001e-05
1.61018e-05
1.6093e-05
1.60931e-05
1.60932e-05
1.60933e-05
1.60935e-05
1.60938e-05
1.60942e-05
1.60946e-05
1.60952e-05
1.60959e-05
1.60967e-05
1.60978e-05
1.6099e-05
1.61006e-05
1.60932e-05
1.60933e-05
1.60933e-05
1.60934e-05
1.60935e-05
1.60937e-05
1.6094e-05
1.60943e-05
1.60947e-05
1.60953e-05
1.6096e-05
1.60969e-05
1.6098e-05
1.60994e-05
1.60936e-05
1.60935e-05
1.60935e-05
1.60935e-05
1.60936e-05
1.60937e-05
1.60939e-05
1.60941e-05
1.60944e-05
1.60949e-05
1.60954e-05
1.60962e-05
1.60971e-05
1.60983e-05
1.6094e-05
1.60939e-05
1.60938e-05
1.60938e-05
1.60938e-05
1.60938e-05
1.60939e-05
1.60941e-05
1.60943e-05
1.60946e-05
1.6095e-05
1.60956e-05
1.60963e-05
1.60973e-05
1.60945e-05
1.60944e-05
1.60943e-05
1.60942e-05
1.60941e-05
1.60941e-05
1.60941e-05
1.60941e-05
1.60943e-05
1.60945e-05
1.60948e-05
1.60952e-05
1.60958e-05
1.60965e-05
1.6095e-05
1.60948e-05
1.60946e-05
1.60945e-05
1.60944e-05
1.60943e-05
1.60943e-05
1.60943e-05
1.60944e-05
1.60946e-05
1.60949e-05
1.60954e-05
1.6096e-05
1.60957e-05
1.60955e-05
1.60952e-05
1.6095e-05
1.60948e-05
1.60946e-05
1.60945e-05
1.60944e-05
1.60944e-05
1.60945e-05
1.60947e-05
1.6095e-05
1.60964e-05
1.60962e-05
1.6096e-05
1.60957e-05
1.60954e-05
1.60951e-05
1.60949e-05
1.60947e-05
1.60946e-05
1.60945e-05
1.60946e-05
1.60948e-05
1.60969e-05
1.60968e-05
1.60967e-05
1.60964e-05
1.60961e-05
1.60958e-05
1.60955e-05
1.60952e-05
1.60949e-05
1.60947e-05
1.60947e-05
1.60947e-05
1.60974e-05
1.60973e-05
1.60972e-05
1.60971e-05
1.60968e-05
1.60966e-05
1.60962e-05
1.60958e-05
1.60955e-05
1.60951e-05
1.60949e-05
1.60948e-05
1.60978e-05
1.60977e-05
1.60976e-05
1.60974e-05
1.60972e-05
1.6097e-05
1.60966e-05
1.60962e-05
1.60958e-05
1.60954e-05
1.60951e-05
1.60981e-05
1.60981e-05
1.60981e-05
1.60979e-05
1.60978e-05
1.60976e-05
1.60973e-05
1.6097e-05
1.60966e-05
1.60961e-05
1.60957e-05
1.60984e-05
1.60984e-05
1.60984e-05
1.60983e-05
1.60982e-05
1.60981e-05
1.60979e-05
1.60977e-05
1.60974e-05
1.6097e-05
1.60965e-05
1.60985e-05
1.60986e-05
1.60986e-05
1.60986e-05
1.60986e-05
1.60985e-05
1.60984e-05
1.60982e-05
1.6098e-05
1.60977e-05
1.60973e-05
1.60986e-05
1.60987e-05
1.60987e-05
1.60988e-05
1.60988e-05
1.60987e-05
1.60987e-05
1.60986e-05
1.60985e-05
1.60983e-05
1.6098e-05
1.60985e-05
1.60986e-05
1.60987e-05
1.60988e-05
1.60989e-05
1.60989e-05
1.60989e-05
1.60989e-05
1.60988e-05
1.60987e-05
1.60982e-05
1.60984e-05
1.60986e-05
1.60987e-05
1.60988e-05
1.60989e-05
1.60989e-05
1.6099e-05
1.6099e-05
1.60989e-05
1.60981e-05
1.60983e-05
1.60985e-05
1.60986e-05
1.60987e-05
1.60988e-05
1.60989e-05
1.6099e-05
1.6099e-05
1.60977e-05
1.60979e-05
1.60981e-05
1.60983e-05
1.60985e-05
1.60986e-05
1.60988e-05
1.60989e-05
1.6099e-05
1.60971e-05
1.60973e-05
1.60976e-05
1.60978e-05
1.60981e-05
1.60983e-05
1.60985e-05
1.60987e-05
1.60988e-05
1.60962e-05
1.60965e-05
1.60968e-05
1.60971e-05
1.60974e-05
1.60977e-05
1.6098e-05
1.60982e-05
1.60984e-05
1.60951e-05
1.60954e-05
1.60958e-05
1.60961e-05
1.60964e-05
1.60968e-05
1.60971e-05
1.60974e-05
1.60978e-05
1.60936e-05
1.60939e-05
1.60943e-05
1.60947e-05
1.60951e-05
1.60954e-05
1.60959e-05
1.60963e-05
1.60917e-05
1.60921e-05
1.60925e-05
1.60929e-05
1.60933e-05
1.60937e-05
1.60942e-05
1.60946e-05
1.60898e-05
1.60901e-05
1.60905e-05
1.60909e-05
1.60913e-05
1.60918e-05
1.60922e-05
1.60927e-05
1.60881e-05
1.60885e-05
1.60889e-05
1.60893e-05
1.60897e-05
1.60902e-05
1.60907e-05
1.6086e-05
1.60864e-05
1.60868e-05
1.60872e-05
1.60877e-05
1.60881e-05
1.60886e-05
1.60837e-05
1.60841e-05
1.60845e-05
1.6085e-05
1.60855e-05
1.6086e-05
1.60865e-05
1.60814e-05
1.60818e-05
1.60822e-05
1.60827e-05
1.60833e-05
1.60838e-05
1.60844e-05
1.60793e-05
1.60796e-05
1.608e-05
1.60805e-05
1.6081e-05
1.60815e-05
1.60771e-05
1.60774e-05
1.60778e-05
1.60782e-05
1.60787e-05
1.60792e-05
1.60748e-05
1.60751e-05
1.60755e-05
1.60759e-05
1.60763e-05
1.60768e-05
1.60726e-05
1.60728e-05
1.60731e-05
1.60735e-05
1.60739e-05
1.60742e-05
1.60707e-05
1.60708e-05
1.6071e-05
1.60712e-05
1.60715e-05
1.60717e-05
1.60709e-05
1.60709e-05
1.60708e-05
1.60707e-05
1.60707e-05
1.60707e-05
1.6073e-05
1.60729e-05
1.60727e-05
1.60725e-05
1.60724e-05
1.60757e-05
1.60756e-05
1.60755e-05
1.60753e-05
1.60751e-05
1.60786e-05
1.60787e-05
1.60787e-05
1.60787e-05
1.60786e-05
1.60818e-05
1.60819e-05
1.60818e-05
1.60816e-05
1.60841e-05
1.60847e-05
1.60855e-05
1.60863e-05
1.60947e-05
1.6095e-05
1.60954e-05
1.60954e-05
)
;

boundaryField
{
    inlet
    {
        type            calculated;
        value           nonuniform List<scalar> 4(1.60947e-05 1.6095e-05 1.60954e-05 1.60954e-05);
    }
    outlet
    {
        type            calculated;
        value           nonuniform List<scalar> 0();
    }
    walls
    {
        type            calculated;
        value           nonuniform List<scalar> 
42
(
0.00309144
0.00332055
0.00355976
0.00375235
0.00393362
0.00409419
0.0042213
0.00432094
0.00439527
0.00444297
0.00446965
0.00447949
0.00446432
0.00442571
0.00436005
0.00426583
0.00413773
0.00397129
0.00375603
0.00348485
0.00314383
0.00273414
0.00227645
0.00189185
0.00171094
0.00173516
0.00185409
0.00198952
0.00210406
0.0021799
0.00221594
0.00221428
0.0021782
0.00211386
0.00201976
0.00284909
0.0025756
0.00227453
0.00190401
0.00149978
0.00106588
0.000652196
)
;
    }
    frontAndBack
    {
        type            empty;
    }
    procBoundary5to0
    {
        type            processor;
        value           nonuniform List<scalar> 4(1.60979e-05 1.60972e-05 1.6098e-05 1.60984e-05);
    }
    procBoundary5to1
    {
        type            processor;
        value           nonuniform List<scalar> 
13
(
1.67801e-05
1.59414e-05
1.59414e-05
1.61378e-05
1.60963e-05
1.60963e-05
1.61037e-05
1.60999e-05
1.60999e-05
1.60996e-05
1.60989e-05
1.61002e-05
1.61002e-05
)
;
    }
    procBoundary5to4
    {
        type            processor;
        value           nonuniform List<scalar> 
95
(
1.60989e-05
1.61002e-05
1.61015e-05
1.61015e-05
1.61015e-05
1.61029e-05
1.61029e-05
1.61028e-05
1.6104e-05
1.6104e-05
1.61035e-05
1.61035e-05
1.61029e-05
1.61029e-05
1.61015e-05
1.6101e-05
1.6101e-05
1.61005e-05
1.61005e-05
1.60992e-05
1.60987e-05
1.60987e-05
1.60975e-05
1.60971e-05
1.60971e-05
1.6096e-05
1.60958e-05
1.60958e-05
1.60949e-05
1.6094e-05
1.60939e-05
1.60939e-05
1.60931e-05
1.60925e-05
1.60925e-05
1.60925e-05
1.6092e-05
1.60917e-05
1.60919e-05
1.60919e-05
1.60917e-05
1.60917e-05
1.6092e-05
1.6092e-05
1.6092e-05
1.60921e-05
1.60923e-05
1.60926e-05
1.6093e-05
1.6093e-05
1.60933e-05
1.60937e-05
1.60942e-05
1.60948e-05
1.60953e-05
1.60953e-05
1.6096e-05
1.60965e-05
1.60971e-05
1.60975e-05
1.60979e-05
1.60979e-05
1.60982e-05
1.60984e-05
1.60985e-05
1.60985e-05
1.60983e-05
1.60981e-05
1.60979e-05
1.60979e-05
1.60974e-05
1.60968e-05
1.60959e-05
1.60948e-05
1.60932e-05
1.60914e-05
1.60894e-05
1.60878e-05
1.60878e-05
1.60857e-05
1.60833e-05
1.6081e-05
1.60789e-05
1.60768e-05
1.60745e-05
1.60723e-05
1.60706e-05
1.6071e-05
1.60731e-05
1.60731e-05
1.60758e-05
1.60786e-05
1.60817e-05
1.60834e-05
1.60942e-05
)
;
    }
    procBoundary5to6
    {
        type            processor;
        value           nonuniform List<scalar> 
86
(
0.0887573
0.139288
0.175231
0.170045
0.118505
0.045795
0.00514345
0.00122299
1e-05
1e-05
1.00022e-05
1.06067e-05
1.83197e-05
1.92963e-05
1.65996e-05
1.54595e-05
1.55595e-05
1.59718e-05
1.62283e-05
1.62839e-05
1.62484e-05
1.62045e-05
1.61779e-05
1.61656e-05
1.61593e-05
1.61546e-05
1.61498e-05
1.61448e-05
1.61399e-05
1.61353e-05
1.6131e-05
1.61271e-05
1.61235e-05
1.61154e-05
1.61154e-05
1.61127e-05
1.61103e-05
1.61079e-05
1.61058e-05
1.6104e-05
1.61024e-05
1.6101e-05
1.60997e-05
1.60985e-05
1.60975e-05
1.60968e-05
1.60955e-05
1.60955e-05
1.60951e-05
1.60948e-05
1.60948e-05
1.60949e-05
1.60953e-05
1.60959e-05
1.60968e-05
1.60976e-05
1.60985e-05
1.60985e-05
1.60988e-05
1.6099e-05
1.6099e-05
1.60989e-05
1.60987e-05
1.60981e-05
1.60967e-05
1.60967e-05
1.60951e-05
1.60932e-05
1.60912e-05
1.60891e-05
1.60871e-05
1.6085e-05
1.60821e-05
1.60821e-05
1.60797e-05
1.60772e-05
1.60747e-05
1.6072e-05
1.60707e-05
1.60722e-05
1.60749e-05
1.60786e-05
1.60817e-05
1.60817e-05
1.60868e-05
1.60955e-05
)
;
    }
}


// ************************************************************************* //
