/*--------------------------------*- C++ -*----------------------------------*\
| =========                 |                                                 |
| \\      /  F ield         | OpenFOAM: The Open Source CFD Toolbox           |
|  \\    /   O peration     | Version:  2506                                  |
|   \\  /    A nd           | Website:  www.openfoam.com                      |
|    \\/     M anipulation  |                                                 |
\*---------------------------------------------------------------------------*/
FoamFile
{
    version     2.0;
    format      ascii;
    arch        "LSB;label=32;scalar=64";
    class       pointScalarField;
    location    "0";
    object      streamFunction;
}
// * * * * * * * * * * * * * * * * * * * * * * * * * * * * * * * * * * * * * //

dimensions      [0 3 -1 0 0 0 0];

internalField   nonuniform List<scalar> 
21812
(
0
0
0
0
0
0
0
0
0
0
0
0
0
0
0
0
0
0
0
0
0
0
0
0
0
0
0
0
0
0
0
0
0
0
0
0
0
0
0
0
0
0
0
0
0
0
0
0
0
0
0
0
0
0
0
0
0
0
0
0
0
0
0
0
0
0
0
0
0
0
0
0
0
0
0
0
0
0
0
0
0
0
0
0
0
0
0
0
0
0
0
0
0
0
0
0
0
0
0
0
0
0
0
0
0
0
0
0
0
0
0
0
0
0
0
0
0
0
0
0
0
0
0
0
0
0
0
0
0
0
0
0
0
0
0
0
0
0
0
0
0
0
0
0
0
0
0
0
0
0
0
0
0
0
0
0
0.510436
0.871656
1.23476
1.65225
2.00631
2.34924
2.68104
2.96987
3.2304
3.46182
3.66069
3.83474
3.98489
4.11299
4.22334
4.31642
4.39406
4.45764
4.50721
4.54437
4.5699
4.58466
4.58955
4.58718
4.57994
4.56927
4.55648
4.54107
4.52367
4.50481
4.48517
4.4647
4.44379
4.42317
4.40285
4.38196
4.36071
4.33744
4.30945
4.29259
0.153836
-0.207651
-0.671287
-1.12398
-1.58186
-2.04966
-2.4908
-2.86856
-3.18578
-3.45054
-3.65851
-3.82
-3.94635
-4.04415
-4.12057
-4.18111
-4.22984
-4.27033
-4.30509
-4.33594
-4.36473
-4.39321
-4.42237
-4.45267
-4.47981
-4.50336
-4.52319
-4.53973
-4.55301
-4.56402
-4.57243
-4.57875
-4.58333
-4.58666
-4.58856
-4.58933
-4.58935
-4.58783
-4.58608
0.510436
0.871656
1.23476
1.65225
2.00631
2.34924
2.68104
2.96987
3.2304
3.46182
3.66069
3.83474
3.98489
4.11299
4.22334
4.31642
4.39406
4.45764
4.50721
4.54437
4.5699
4.58466
4.58955
4.58718
4.57994
4.56927
4.55648
4.54107
4.52367
4.50481
4.48517
4.4647
4.44379
4.42317
4.40285
4.38196
4.36071
4.33744
4.30945
4.29259
0.153836
-0.207651
-0.671287
-1.12398
-1.58186
-2.04966
-2.4908
-2.86856
-3.18578
-3.45054
-3.65851
-3.82
-3.94635
-4.04415
-4.12057
-4.18111
-4.22984
-4.27033
-4.30509
-4.33594
-4.36473
-4.39321
-4.42237
-4.45267
-4.47981
-4.50336
-4.52319
-4.53973
-4.55301
-4.56402
-4.57243
-4.57875
-4.58333
-4.58666
-4.58856
-4.58933
-4.58935
-4.58783
-4.58608
1.04929
1.79086
2.53698
3.39518
4.12247
4.82789
5.50937
6.10297
6.63828
7.1141
7.52301
7.88036
8.18874
8.45242
8.67901
8.87069
9.02982
9.15996
9.26239
9.3384
9.39109
9.42113
9.43162
9.42683
9.41141
9.39016
9.36369
9.33171
9.29631
9.25751
9.21702
9.17485
9.13235
9.08979
9.04772
9.00523
8.9614
8.9134
8.85542
8.8214
0.315954
-0.426882
-1.37953
-2.30937
-3.2506
-4.212
-5.11805
-5.89513
-6.54701
-7.09099
-7.51903
-7.84985
-8.10967
-8.31058
-8.46733
-8.59207
-8.69279
-8.77577
-8.84696
-8.91015
-8.96958
-9.02804
-9.08811
-9.1501
-9.2061
-9.25435
-9.29508
-9.32899
-9.35656
-9.37901
-9.39622
-9.40953
-9.41899
-9.42575
-9.42952
-9.43134
-9.43108
-9.42791
-9.42469
1.04929
1.79086
2.53698
3.39518
4.12247
4.82789
5.50937
6.10297
6.63828
7.1141
7.52301
7.88036
8.18874
8.45242
8.67901
8.87069
9.02982
9.15996
9.26239
9.3384
9.39109
9.42113
9.43162
9.42683
9.41141
9.39016
9.36369
9.33171
9.29631
9.25751
9.21702
9.17485
9.13235
9.08979
9.04772
9.00523
8.9614
8.9134
8.85542
8.8214
0.315954
-0.426882
-1.37953
-2.30937
-3.2506
-4.212
-5.11805
-5.89513
-6.54701
-7.09099
-7.51903
-7.84985
-8.10967
-8.31058
-8.46733
-8.59207
-8.69279
-8.77577
-8.84696
-8.91015
-8.96958
-9.02804
-9.08811
-9.1501
-9.2061
-9.25435
-9.29508
-9.32899
-9.35656
-9.37901
-9.39622
-9.40953
-9.41899
-9.42575
-9.42952
-9.43134
-9.43108
-9.42791
-9.42469
1.61766
2.76092
3.91137
5.23444
6.35559
7.44281
8.49321
9.40841
10.2338
10.967
11.5973
12.1483
12.6242
13.0307
13.3801
13.6748
13.9206
14.1209
14.2793
14.3967
14.4775
14.5239
14.5396
14.5322
14.5086
14.4759
14.435
14.3861
14.3313
14.2717
14.209
14.1441
14.0786
14.0129
13.948
13.8826
13.8148
13.7413
13.6515
13.5995
0.487419
-0.658045
-2.12646
-3.56028
-5.01118
-6.49308
-7.89031
-9.08778
-10.0929
-10.9316
-11.591
-12.1013
-12.5019
-12.8118
-13.0534
-13.2458
-13.4006
-13.5286
-13.6386
-13.7363
-13.828
-13.9176
-14.0108
-14.1057
-14.1926
-14.2667
-14.3295
-14.3816
-14.4245
-14.4589
-14.4857
-14.5058
-14.5205
-14.5308
-14.5368
-14.5397
-14.5393
-14.5343
-14.5294
1.61766
2.76092
3.91137
5.23444
6.35559
7.44281
8.49321
9.40841
10.2338
10.967
11.5973
12.1483
12.6242
13.0307
13.3801
13.6748
13.9206
14.1209
14.2793
14.3967
14.4775
14.5239
14.5396
14.5322
14.5086
14.4759
14.435
14.3861
14.3313
14.2717
14.209
14.1441
14.0786
14.0129
13.948
13.8826
13.8148
13.7413
13.6515
13.5995
0.487419
-0.658045
-2.12646
-3.56028
-5.01118
-6.49308
-7.89031
-9.08778
-10.0929
-10.9316
-11.591
-12.1013
-12.5019
-12.8118
-13.0534
-13.2458
-13.4006
-13.5286
-13.6386
-13.7363
-13.828
-13.9176
-14.0108
-14.1057
-14.1926
-14.2667
-14.3295
-14.3816
-14.4245
-14.4589
-14.4857
-14.5058
-14.5205
-14.5308
-14.5368
-14.5397
-14.5393
-14.5343
-14.5294
2.2169
3.78437
5.36093
7.17441
8.71122
10.2015
11.641
12.896
14.0271
15.032
15.8959
16.6511
17.3035
17.8607
18.3391
18.7434
19.0803
19.3552
19.5714
19.7327
19.8434
19.907
19.929
19.9185
19.8866
19.8416
19.7855
19.7183
19.6432
19.5616
19.4755
19.3866
19.2968
19.207
19.118
19.0283
18.9354
18.8341
18.7117
18.6403
0.668134
-0.901994
-2.9147
-4.88003
-6.86872
-8.89998
-10.8149
-12.4564
-13.8341
-14.9836
-15.8876
-16.5866
-17.1357
-17.5607
-17.8913
-18.1556
-18.368
-18.5434
-18.6936
-18.828
-18.9532
-19.0761
-19.2038
-19.3345
-19.453
-19.5548
-19.6408
-19.7123
-19.7709
-19.818
-19.8548
-19.8825
-19.9026
-19.9167
-19.925
-19.9288
-19.9281
-19.9216
-19.9148
2.2169
3.78437
5.36093
7.17441
8.71122
10.2015
11.641
12.896
14.0271
15.032
15.8959
16.6511
17.3035
17.8607
18.3391
18.7434
19.0803
19.3552
19.5714
19.7327
19.8434
19.907
19.929
19.9185
19.8866
19.8416
19.7855
19.7183
19.6432
19.5616
19.4755
19.3866
19.2968
19.207
19.118
19.0283
18.9354
18.8341
18.7117
18.6403
0.668134
-0.901994
-2.9147
-4.88003
-6.86872
-8.89998
-10.8149
-12.4564
-13.8341
-14.9836
-15.8876
-16.5866
-17.1357
-17.5607
-17.8913
-18.1556
-18.368
-18.5434
-18.6936
-18.828
-18.9532
-19.0761
-19.2038
-19.3345
-19.453
-19.5548
-19.6408
-19.7123
-19.7709
-19.818
-19.8548
-19.8825
-19.9026
-19.9167
-19.925
-19.9288
-19.9281
-19.9216
-19.9148
2.84951
4.86415
6.89023
9.22143
11.1963
13.1118
14.9618
16.5751
18.0286
19.3207
20.4312
21.4017
22.2398
22.9566
23.5714
24.0909
24.5235
24.8768
25.1551
25.3622
25.5047
25.5865
25.6147
25.6012
25.56
25.5022
25.43
25.3438
25.2474
25.1424
25.0319
24.9176
24.802
24.6867
24.5722
24.4568
24.3375
24.2075
24.0498
23.958
0.858649
-1.15937
-3.74642
-6.27218
-8.82824
-11.4389
-13.9
-16.0099
-17.7809
-19.2585
-20.4204
-21.3186
-22.0245
-22.5708
-22.9957
-23.335
-23.6081
-23.8338
-24.0268
-24.199
-24.3604
-24.5186
-24.6829
-24.8503
-25.0028
-25.1337
-25.2442
-25.3361
-25.4116
-25.4721
-25.5192
-25.5549
-25.5809
-25.5986
-25.6095
-25.6143
-25.6136
-25.6049
-25.5963
2.84951
4.86415
6.89023
9.22143
11.1963
13.1118
14.9618
16.5751
18.0286
19.3207
20.4312
21.4017
22.2398
22.9566
23.5714
24.0909
24.5235
24.8768
25.1551
25.3622
25.5047
25.5865
25.6147
25.6012
25.56
25.5022
25.43
25.3438
25.2474
25.1424
25.0319
24.9176
24.802
24.6867
24.5722
24.4568
24.3375
24.2075
24.0498
23.958
0.858649
-1.15937
-3.74642
-6.27218
-8.82824
-11.4389
-13.9
-16.0099
-17.7809
-19.2585
-20.4204
-21.3186
-22.0245
-22.5708
-22.9957
-23.335
-23.6081
-23.8338
-24.0268
-24.199
-24.3604
-24.5186
-24.6829
-24.8503
-25.0028
-25.1337
-25.2442
-25.3361
-25.4116
-25.4721
-25.5192
-25.5549
-25.5809
-25.5986
-25.6095
-25.6143
-25.6136
-25.6049
-25.5963
3.51683
6.0029
8.50394
11.381
13.8181
16.1822
18.4655
20.4564
22.2504
23.8452
25.2156
26.4135
27.4477
28.3327
29.0915
29.7321
30.2668
30.7025
31.0456
31.3017
31.4773
31.578
31.6132
31.5965
31.5457
31.4743
31.3852
31.2788
31.1598
31.0302
30.8936
30.7529
30.6101
30.4678
30.3264
30.1843
30.0366
29.8764
29.682
29.5689
1.05982
-1.43062
-4.62365
-7.74102
-10.8959
-14.1177
-17.1554
-19.7594
-21.945
-23.7682
-25.2025
-26.3109
-27.1822
-27.8564
-28.381
-28.7994
-29.1368
-29.4153
-29.6537
-29.8662
-30.0649
-30.2601
-30.463
-30.6696
-30.858
-31.0192
-31.1557
-31.2692
-31.3624
-31.4372
-31.4953
-31.5394
-31.5711
-31.5933
-31.6065
-31.6127
-31.6117
-31.6009
-31.5903
3.51683
6.0029
8.50394
11.381
13.8181
16.1822
18.4655
20.4564
22.2504
23.8452
25.2156
26.4135
27.4477
28.3327
29.0915
29.7321
30.2668
30.7025
31.0456
31.3017
31.4773
31.578
31.6132
31.5965
31.5457
31.4743
31.3852
31.2788
31.1598
31.0302
30.8936
30.7529
30.6101
30.4678
30.3264
30.1843
30.0366
29.8764
29.682
29.5689
1.05982
-1.43062
-4.62365
-7.74102
-10.8959
-14.1177
-17.1554
-19.7594
-21.945
-23.7682
-25.2025
-26.3109
-27.1822
-27.8564
-28.381
-28.7994
-29.1368
-29.4153
-29.6537
-29.8662
-30.0649
-30.2601
-30.463
-30.6696
-30.858
-31.0192
-31.1557
-31.2692
-31.3624
-31.4372
-31.4953
-31.5394
-31.5711
-31.5933
-31.6065
-31.6127
-31.6117
-31.6009
-31.5903
4.22091
7.20479
10.2061
13.6591
16.5844
19.4215
22.1619
24.5517
26.7045
28.6185
30.2633
31.7008
32.9422
34.0041
34.9149
35.6839
36.3252
36.8483
37.2602
37.5677
37.7785
37.8993
37.9411
37.9216
37.8604
37.7748
37.6678
37.5401
37.3971
37.2418
37.0779
36.909
36.7377
36.5669
36.3969
36.2264
36.0492
35.8569
35.6233
35.4876
1.27198
-1.71705
-5.54903
-9.29047
-13.0768
-16.9438
-20.5891
-23.7147
-26.3378
-28.5262
-30.2474
-31.5779
-32.6237
-33.4327
-34.062
-34.5646
-34.9692
-35.3034
-35.5895
-35.8449
-36.0833
-36.3177
-36.5611
-36.8093
-37.0352
-37.2287
-37.3924
-37.5287
-37.6404
-37.7303
-37.8
-37.8529
-37.8912
-37.9175
-37.9336
-37.9411
-37.9398
-37.9269
-37.914
4.22091
7.20479
10.2061
13.6591
16.5844
19.4215
22.1619
24.5517
26.7045
28.6185
30.2633
31.7008
32.9422
34.0041
34.9149
35.6839
36.3252
36.8483
37.2602
37.5677
37.7785
37.8993
37.9411
37.9216
37.8604
37.7748
37.6678
37.5401
37.3971
37.2418
37.0779
36.909
36.7377
36.5669
36.3969
36.2264
36.0492
35.8569
35.6233
35.4876
1.27198
-1.71705
-5.54903
-9.29047
-13.0768
-16.9438
-20.5891
-23.7147
-26.3378
-28.5262
-30.2474
-31.5779
-32.6237
-33.4327
-34.062
-34.5646
-34.9692
-35.3034
-35.5895
-35.8449
-36.0833
-36.3177
-36.5611
-36.8093
-37.0352
-37.2287
-37.3924
-37.5287
-37.6404
-37.7303
-37.8
-37.8529
-37.8912
-37.9175
-37.9336
-37.9411
-37.9398
-37.9269
-37.914
4.96339
8.47253
12.002
16.0627
19.5027
22.8392
26.0615
28.8715
31.4034
33.654
35.5883
37.2791
38.739
39.9878
41.0587
41.963
42.7171
43.3321
43.8168
44.1783
44.4261
44.5683
44.6174
44.5943
44.5225
44.4217
44.2958
44.1458
43.9777
43.7949
43.6023
43.4035
43.2023
43.0013
42.8016
42.6009
42.3926
42.1667
41.892
41.7324
1.49578
-2.01907
-6.52545
-10.9255
-15.3782
-19.9256
-24.2121
-27.8875
-30.9722
-33.5458
-35.5699
-37.1344
-38.3641
-39.3152
-40.0555
-40.6469
-41.1225
-41.5156
-41.852
-42.1523
-42.4325
-42.7081
-42.9948
-43.2863
-43.5519
-43.7796
-43.972
-44.1325
-44.2638
-44.3693
-44.4515
-44.5137
-44.5587
-44.5897
-44.6084
-44.6172
-44.6159
-44.6006
-44.5853
4.96339
8.47253
12.002
16.0627
19.5027
22.8392
26.0615
28.8715
31.4034
33.654
35.5883
37.2791
38.739
39.9878
41.0587
41.963
42.7171
43.3321
43.8168
44.1783
44.4261
44.5683
44.6174
44.5943
44.5225
44.4217
44.2958
44.1458
43.9777
43.7949
43.6023
43.4035
43.2023
43.0013
42.8016
42.6009
42.3926
42.1667
41.892
41.7324
1.49578
-2.01907
-6.52545
-10.9255
-15.3782
-19.9256
-24.2121
-27.8875
-30.9722
-33.5458
-35.5699
-37.1344
-38.3641
-39.3152
-40.0555
-40.6469
-41.1225
-41.5156
-41.852
-42.1523
-42.4325
-42.7081
-42.9948
-43.2863
-43.5519
-43.7796
-43.972
-44.1325
-44.2638
-44.3693
-44.4515
-44.5137
-44.5587
-44.5897
-44.6084
-44.6172
-44.6159
-44.6006
-44.5853
5.74706
9.80997
13.8968
18.5984
22.5811
26.4449
30.1756
33.4296
36.361
38.9671
41.2066
43.164
44.8546
46.3005
47.5402
48.5874
49.4607
50.1729
50.734
51.1527
51.4392
51.6039
51.661
51.634
51.5508
51.4343
51.2887
51.1149
50.9201
50.7086
50.4856
50.2553
50.0224
49.7898
49.5585
49.326
49.085
48.8229
48.5047
48.3202
1.73174
-2.33801
-7.55575
-12.65
-17.8059
-23.0707
-28.0344
-32.2903
-35.8616
-38.8414
-41.1849
-42.9966
-44.4204
-45.5218
-46.3789
-47.0637
-47.6139
-48.0693
-48.4588
-48.8065
-49.131
-49.4504
-49.7818
-50.1194
-50.4275
-50.6908
-50.9137
-51.0993
-51.2515
-51.3737
-51.4687
-51.5408
-51.5929
-51.6287
-51.6506
-51.6609
-51.659
-51.6413
-51.6241
5.74706
9.80997
13.8968
18.5984
22.5811
26.4449
30.1756
33.4296
36.361
38.9671
41.2066
43.164
44.8546
46.3005
47.5402
48.5874
49.4607
50.1729
50.734
51.1527
51.4392
51.6039
51.661
51.634
51.5508
51.4343
51.2887
51.1149
50.9201
50.7086
50.4856
50.2553
50.0224
49.7898
49.5585
49.326
49.085
48.8229
48.5047
48.3202
1.73174
-2.33801
-7.55575
-12.65
-17.8059
-23.0707
-28.0344
-32.2903
-35.8616
-38.8414
-41.1849
-42.9966
-44.4204
-45.5218
-46.3789
-47.0637
-47.6139
-48.0693
-48.4588
-48.8065
-49.131
-49.4504
-49.7818
-50.1194
-50.4275
-50.6908
-50.9137
-51.0993
-51.2515
-51.3737
-51.4687
-51.5408
-51.5929
-51.6287
-51.6506
-51.6609
-51.659
-51.6413
-51.6241
6.57349
11.2211
15.8958
21.2738
25.8293
30.2484
34.5161
38.2379
41.591
44.5721
47.1336
49.3725
51.3066
52.9602
54.378
55.5762
56.575
57.3895
58.0312
58.5104
58.8383
59.0262
59.0919
59.0611
58.9661
58.8329
58.6657
58.4671
58.2446
58.0024
57.7474
57.4841
57.2176
56.9513
56.6869
56.4213
56.1453
55.8458
55.4818
55.2706
1.981
-2.67426
-8.64267
-14.4697
-20.3668
-26.3896
-32.0669
-36.9349
-41.0199
-44.4287
-47.109
-49.1812
-50.8099
-52.0699
-53.0503
-53.8332
-54.463
-54.9833
-55.4291
-55.827
-56.198
-56.5634
-56.9425
-57.3287
-57.6808
-57.9822
-58.2369
-58.4493
-58.6234
-58.763
-58.872
-58.9542
-59.0138
-59.0549
-59.08
-59.0916
-59.0896
-59.0694
-59.0494
6.57349
11.2211
15.8958
21.2738
25.8293
30.2484
34.5161
38.2379
41.591
44.5721
47.1336
49.3725
51.3066
52.9602
54.378
55.5762
56.575
57.3895
58.0312
58.5104
58.8383
59.0262
59.0919
59.0611
58.9661
58.8329
58.6657
58.4671
58.2446
58.0024
57.7474
57.4841
57.2176
56.9513
56.6869
56.4213
56.1453
55.8458
55.4818
55.2706
1.981
-2.67426
-8.64267
-14.4697
-20.3668
-26.3896
-32.0669
-36.9349
-41.0199
-44.4287
-47.109
-49.1812
-50.8099
-52.0699
-53.0503
-53.8332
-54.463
-54.9833
-55.4291
-55.827
-56.198
-56.5634
-56.9425
-57.3287
-57.6808
-57.9822
-58.2369
-58.4493
-58.6234
-58.763
-58.872
-58.9542
-59.0138
-59.0549
-59.08
-59.0916
-59.0896
-59.0694
-59.0494
7.44569
12.7098
18.0045
24.0961
29.2559
34.2616
39.0956
43.3106
47.1088
50.4853
53.387
55.9228
58.113
59.9864
61.5924
62.9492
64.0806
65.0033
65.7303
66.2728
66.6444
66.8572
66.9313
66.8963
66.7888
66.638
66.449
66.2239
65.9717
65.6977
65.4086
65.1103
64.8085
64.5069
64.2073
63.9065
63.5938
63.2548
62.8424
62.6031
2.24385
-3.02885
-9.78928
-16.3893
-23.0688
-29.8905
-36.321
-41.8351
-46.4622
-50.323
-53.3589
-55.7057
-57.551
-58.9778
-60.0883
-60.9751
-61.6884
-62.2782
-62.7828
-63.2334
-63.6538
-64.0675
-64.4972
-64.9344
-65.3332
-65.6745
-65.9631
-66.2037
-66.401
-66.5591
-66.6824
-66.7757
-66.8431
-66.8897
-66.9182
-66.9313
-66.9291
-66.9059
-66.8832
7.44569
12.7098
18.0045
24.0961
29.2559
34.2616
39.0956
43.3106
47.1088
50.4853
53.387
55.9228
58.113
59.9864
61.5924
62.9492
64.0806
65.0033
65.7303
66.2728
66.6444
66.8572
66.9313
66.8963
66.7888
66.638
66.449
66.2239
65.9717
65.6977
65.4086
65.1103
64.8085
64.5069
64.2073
63.9065
63.5938
63.2548
62.8424
62.6031
2.24385
-3.02885
-9.78928
-16.3893
-23.0688
-29.8905
-36.321
-41.8351
-46.4622
-50.323
-53.3589
-55.7057
-57.551
-58.9778
-60.0883
-60.9751
-61.6884
-62.2782
-62.7828
-63.2334
-63.6538
-64.0675
-64.4972
-64.9344
-65.3332
-65.6745
-65.9631
-66.2037
-66.401
-66.5591
-66.6824
-66.7757
-66.8431
-66.8897
-66.9182
-66.9313
-66.9291
-66.9059
-66.8832
8.36558
14.2805
20.2294
27.0736
32.871
38.4951
43.9264
48.6627
52.93
56.724
59.9842
62.8333
65.2943
67.3988
69.2032
70.7279
71.9993
73.0358
73.8525
74.462
74.8797
75.1189
75.2024
75.1631
75.0421
74.8723
74.66
74.4071
74.1238
73.816
73.4912
73.156
72.8168
72.4783
72.1415
71.8035
71.4524
71.0712
70.608
70.3391
2.5212
-3.40328
-10.999
-18.4145
-25.9194
-33.5837
-40.8095
-47.0045
-52.2036
-56.5414
-59.9526
-62.5895
-64.6623
-66.2656
-67.5133
-68.5097
-69.311
-69.9738
-70.5411
-71.0472
-71.5193
-71.9841
-72.4672
-72.9584
-73.4065
-73.7899
-74.1143
-74.3847
-74.6062
-74.7839
-74.9223
-75.0271
-75.103
-75.1552
-75.1872
-75.2019
-75.1994
-75.1737
-75.148
8.36558
14.2805
20.2294
27.0736
32.871
38.4951
43.9264
48.6627
52.93
56.724
59.9842
62.8333
65.2943
67.3988
69.2032
70.7279
71.9993
73.0358
73.8525
74.462
74.8797
75.1189
75.2024
75.1631
75.0421
74.8723
74.66
74.4071
74.1238
73.816
73.4912
73.156
72.8168
72.4783
72.1415
71.8035
71.4524
71.0712
70.608
70.3391
2.5212
-3.40328
-10.999
-18.4145
-25.9194
-33.5837
-40.8095
-47.0045
-52.2036
-56.5414
-59.9526
-62.5895
-64.6623
-66.2656
-67.5133
-68.5097
-69.311
-69.9738
-70.5411
-71.0472
-71.5193
-71.9841
-72.4672
-72.9584
-73.4065
-73.7899
-74.1143
-74.3847
-74.6062
-74.7839
-74.9223
-75.0271
-75.103
-75.1552
-75.1872
-75.2019
-75.1994
-75.1737
-75.148
9.3365
15.9373
22.5765
30.2147
36.685
42.9619
49.0231
54.3091
59.0715
63.3055
66.9441
70.1237
72.8704
75.2191
77.233
78.9346
80.3534
81.5101
82.4217
83.1021
83.5676
83.8348
83.9279
83.8838
83.7489
83.5598
83.3227
83.0405
82.7243
82.3806
82.0183
81.6443
81.2658
80.8879
80.512
80.1347
79.7428
79.3177
78.8006
78.5003
2.81346
-3.79794
-12.2751
-20.5512
-28.9268
-37.4807
-45.5444
-52.4583
-58.2605
-63.1015
-66.9087
-69.8515
-72.1649
-73.9544
-75.3471
-76.4592
-77.3535
-78.0928
-78.7258
-79.2908
-79.8176
-80.3367
-80.8754
-81.4237
-81.9238
-82.3518
-82.7137
-83.0154
-83.2626
-83.461
-83.6155
-83.7326
-83.8173
-83.8755
-83.9111
-83.9277
-83.9248
-83.8958
-83.8675
9.3365
15.9373
22.5765
30.2147
36.685
42.9619
49.0231
54.3091
59.0715
63.3055
66.9441
70.1237
72.8704
75.2191
77.233
78.9346
80.3534
81.5101
82.4217
83.1021
83.5676
83.8348
83.9279
83.8838
83.7489
83.5598
83.3227
83.0405
82.7243
82.3806
82.0183
81.6443
81.2658
80.8879
80.512
80.1347
79.7428
79.3177
78.8006
78.5003
2.81346
-3.79794
-12.2751
-20.5512
-28.9268
-37.4807
-45.5444
-52.4583
-58.2605
-63.1015
-66.9087
-69.8515
-72.1649
-73.9544
-75.3471
-76.4592
-77.3535
-78.0928
-78.7258
-79.2908
-79.8176
-80.3367
-80.8754
-81.4237
-81.9238
-82.3518
-82.7137
-83.0154
-83.2626
-83.461
-83.6155
-83.7326
-83.8173
-83.8755
-83.9111
-83.9277
-83.9248
-83.8958
-83.8675
10.3606
17.6852
25.0527
33.5288
40.709
47.674
54.3999
60.2659
65.5508
70.2489
74.2865
77.8152
80.863
83.4695
85.7045
87.5921
89.1667
90.4503
91.462
92.2172
92.7339
93.0302
93.1337
93.0849
92.9351
92.7253
92.4617
92.1489
91.798
91.4165
91.0144
90.5994
90.1795
89.7598
89.3429
88.9243
88.4894
88.0176
87.4439
87.1106
3.12233
-4.21482
-13.6215
-22.8053
-32.0999
-41.5915
-50.54
-58.2122
-64.6511
-70.023
-74.2479
-77.5131
-80.0804
-82.066
-83.6112
-84.8455
-85.8382
-86.6583
-87.3607
-87.9877
-88.5724
-89.1483
-89.7462
-90.3546
-90.9094
-91.3843
-91.786
-92.1209
-92.3952
-92.6154
-92.7868
-92.9166
-93.0107
-93.0752
-93.1147
-93.1331
-93.13
-93.0981
-93.0665
10.3606
17.6852
25.0527
33.5288
40.709
47.674
54.3999
60.2659
65.5508
70.2489
74.2865
77.8152
80.863
83.4695
85.7045
87.5921
89.1667
90.4503
91.462
92.2172
92.7339
93.0302
93.1337
93.0849
92.9351
92.7253
92.4617
92.1489
91.798
91.4165
91.0144
90.5994
90.1795
89.7598
89.3429
88.9243
88.4894
88.0176
87.4439
87.1106
3.12233
-4.21482
-13.6215
-22.8053
-32.0999
-41.5915
-50.54
-58.2122
-64.6511
-70.023
-74.2479
-77.5131
-80.0804
-82.066
-83.6112
-84.8455
-85.8382
-86.6583
-87.3607
-87.9877
-88.5724
-89.1483
-89.7462
-90.3546
-90.9094
-91.3843
-91.786
-92.1209
-92.3952
-92.6154
-92.7868
-92.9166
-93.0107
-93.0752
-93.1147
-93.1331
-93.13
-93.0981
-93.0665
11.4408
19.5294
27.6653
37.0252
44.9543
52.6454
60.0727
66.5504
72.386
77.5745
82.0334
85.9298
89.2954
92.1735
94.6415
96.7262
98.4651
99.8827
101
101.833
102.404
102.731
102.845
102.792
102.626
102.394
102.104
101.758
101.37
100.949
100.505
100.047
99.5832
99.1201
98.6597
98.1972
97.7169
97.1959
96.5623
96.1945
3.44798
-4.65401
-15.0417
-25.1834
-35.447
-45.9287
-55.8099
-64.2824
-71.3924
-77.3248
-81.9901
-85.5961
-88.4311
-90.6238
-92.3303
-93.693
-94.7892
-95.6951
-96.4707
-97.1631
-97.8086
-98.4446
-99.1047
-99.7767
-100.389
-100.914
-101.357
-101.727
-102.03
-102.273
-102.462
-102.606
-102.71
-102.781
-102.825
-102.845
-102.842
-102.806
-102.771
11.4408
19.5294
27.6653
37.0252
44.9543
52.6454
60.0727
66.5504
72.386
77.5745
82.0334
85.9298
89.2954
92.1735
94.6415
96.7262
98.4651
99.8827
101
101.833
102.404
102.731
102.845
102.792
102.626
102.394
102.104
101.758
101.37
100.949
100.505
100.047
99.5832
99.1201
98.6597
98.1972
97.7169
97.1959
96.5623
96.1945
3.44798
-4.65401
-15.0417
-25.1834
-35.447
-45.9287
-55.8099
-64.2824
-71.3924
-77.3248
-81.9901
-85.5961
-88.4311
-90.6238
-92.3303
-93.693
-94.7892
-95.6951
-96.4707
-97.1631
-97.8086
-98.4446
-99.1047
-99.7767
-100.389
-100.914
-101.357
-101.727
-102.03
-102.273
-102.462
-102.606
-102.71
-102.781
-102.825
-102.845
-102.842
-102.806
-102.771
12.5807
21.4754
30.4213
40.714
49.4325
57.8902
66.0577
73.1804
79.5977
85.303
90.2058
94.4904
98.1915
101.356
104.07
106.363
108.275
109.833
111.062
111.979
112.606
112.966
113.091
113.032
112.85
112.595
112.276
111.896
111.47
111.007
110.518
110.014
109.504
108.995
108.489
107.98
107.452
106.879
106.182
105.778
3.79141
-5.11773
-16.5404
-27.6922
-38.9784
-50.5046
-61.37
-70.6867
-78.5049
-85.0283
-90.1587
-94.1239
-97.2412
-99.6525
-101.529
-103.027
-104.232
-105.229
-106.082
-106.843
-107.553
-108.252
-108.978
-109.717
-110.391
-110.968
-111.455
-111.862
-112.195
-112.462
-112.67
-112.828
-112.942
-113.021
-113.069
-113.091
-113.087
-113.048
-113.01
12.5807
21.4754
30.4213
40.714
49.4325
57.8902
66.0577
73.1804
79.5977
85.303
90.2058
94.4904
98.1915
101.356
104.07
106.363
108.275
109.833
111.062
111.979
112.606
112.966
113.091
113.032
112.85
112.595
112.276
111.896
111.47
111.007
110.518
110.014
109.504
108.995
108.489
107.98
107.452
106.879
106.182
105.778
3.79141
-5.11773
-16.5404
-27.6922
-38.9784
-50.5046
-61.37
-70.6867
-78.5049
-85.0283
-90.1587
-94.1239
-97.2412
-99.6525
-101.529
-103.027
-104.232
-105.229
-106.082
-106.843
-107.553
-108.252
-108.978
-109.717
-110.391
-110.968
-111.455
-111.862
-112.195
-112.462
-112.67
-112.828
-112.942
-113.021
-113.069
-113.091
-113.087
-113.048
-113.01
13.783
23.5278
33.329
44.6057
54.1574
63.4235
72.3716
80.1753
87.2059
93.4565
98.8279
103.522
107.577
111.045
114.018
116.529
118.624
120.332
121.677
122.682
123.369
123.763
123.901
123.836
123.637
123.358
123.007
122.591
122.124
121.617
121.082
120.53
119.971
119.413
118.858
118.301
117.723
117.095
116.331
115.888
4.15355
-5.60695
-18.121
-30.3393
-42.7041
-55.3317
-67.2362
-77.4431
-86.0089
-93.1556
-98.7761
-103.12
-106.536
-109.177
-111.233
-112.875
-114.195
-115.287
-116.221
-117.055
-117.833
-118.599
-119.394
-120.204
-120.942
-121.574
-122.108
-122.554
-122.919
-123.212
-123.44
-123.613
-123.738
-123.823
-123.876
-123.9
-123.896
-123.853
-123.812
13.783
23.5278
33.329
44.6057
54.1574
63.4235
72.3716
80.1753
87.2059
93.4565
98.8279
103.522
107.577
111.045
114.018
116.529
118.624
120.332
121.677
122.682
123.369
123.763
123.901
123.836
123.637
123.358
123.007
122.591
122.124
121.617
121.082
120.53
119.971
119.413
118.858
118.301
117.723
117.095
116.331
115.888
4.15355
-5.60695
-18.121
-30.3393
-42.7041
-55.3317
-67.2362
-77.4431
-86.0089
-93.1556
-98.7761
-103.12
-106.536
-109.177
-111.233
-112.875
-114.195
-115.287
-116.221
-117.055
-117.833
-118.599
-119.394
-120.204
-120.942
-121.574
-122.108
-122.554
-122.919
-123.212
-123.44
-123.613
-123.738
-123.823
-123.876
-123.9
-123.896
-123.853
-123.812
15.0517
25.6934
36.397
48.7111
59.1426
69.2613
79.033
87.5547
95.2325
102.059
107.924
113.05
117.478
121.265
124.512
127.254
129.542
131.407
132.877
133.974
134.724
135.154
135.305
135.234
135.017
134.712
134.329
133.874
133.365
132.811
132.226
131.624
131.014
130.404
129.798
129.19
128.558
127.872
127.039
126.555
4.53589
-6.12298
-19.7891
-33.1319
-46.6348
-60.4248
-73.4244
-84.5713
-93.9254
-101.73
-107.868
-112.612
-116.342
-119.226
-121.471
-123.264
-124.706
-125.898
-126.918
-127.829
-128.679
-129.515
-130.384
-131.268
-132.074
-132.764
-133.347
-133.834
-134.233
-134.552
-134.801
-134.99
-135.127
-135.22
-135.278
-135.305
-135.3
-135.253
-135.208
15.0517
25.6934
36.397
48.7111
59.1426
69.2613
79.033
87.5547
95.2325
102.059
107.924
113.05
117.478
121.265
124.512
127.254
129.542
131.407
132.877
133.974
134.724
135.154
135.305
135.234
135.017
134.712
134.329
133.874
133.365
132.811
132.226
131.624
131.014
130.404
129.798
129.19
128.558
127.872
127.039
126.555
4.53589
-6.12298
-19.7891
-33.1319
-46.6348
-60.4248
-73.4244
-84.5713
-93.9254
-101.73
-107.868
-112.612
-116.342
-119.226
-121.471
-123.264
-124.706
-125.898
-126.918
-127.829
-128.679
-129.515
-130.384
-131.268
-132.074
-132.764
-133.347
-133.834
-134.233
-134.552
-134.801
-134.99
-135.127
-135.22
-135.278
-135.305
-135.3
-135.253
-135.208
16.39
27.9781
39.6333
53.0428
64.4011
75.4199
86.0604
95.3403
103.701
111.133
117.521
123.103
127.924
132.048
135.583
138.57
141.061
143.092
144.692
145.887
146.704
147.173
147.336
147.259
147.022
146.69
146.274
145.779
145.223
144.62
143.984
143.328
142.663
141.999
141.34
140.677
139.989
139.243
138.335
137.808
4.93929
-6.66744
-21.5488
-36.0777
-50.7815
-65.7978
-79.9534
-92.0913
-102.277
-110.776
-117.459
-122.625
-126.686
-129.828
-132.272
-134.224
-135.795
-137.093
-138.204
-139.196
-140.121
-141.032
-141.978
-142.94
-143.818
-144.569
-145.205
-145.734
-146.168
-146.517
-146.788
-146.993
-147.142
-147.244
-147.307
-147.336
-147.331
-147.28
-147.23
16.39
27.9781
39.6333
53.0428
64.4011
75.4199
86.0604
95.3403
103.701
111.133
117.521
123.103
127.924
132.048
135.583
138.57
141.061
143.092
144.692
145.887
146.704
147.173
147.336
147.259
147.022
146.69
146.274
145.779
145.223
144.62
143.984
143.328
142.663
141.999
141.34
140.677
139.989
139.243
138.335
137.808
4.93929
-6.66744
-21.5488
-36.0777
-50.7815
-65.7978
-79.9534
-92.0913
-102.277
-110.776
-117.459
-122.625
-126.686
-129.828
-132.272
-134.224
-135.795
-137.093
-138.204
-139.196
-140.121
-141.032
-141.978
-142.94
-143.818
-144.569
-145.205
-145.734
-146.168
-146.517
-146.788
-146.993
-147.142
-147.244
-147.307
-147.336
-147.331
-147.28
-147.23
17.8022
30.3885
43.0476
57.6122
69.9495
81.9172
93.4747
103.554
112.634
120.707
127.646
133.708
138.945
143.424
147.264
150.508
153.213
155.419
157.157
158.455
159.342
159.852
160.029
159.945
159.689
159.328
158.875
158.338
157.735
157.079
156.388
155.675
154.954
154.233
153.516
152.797
152.049
151.239
150.252
149.68
5.36485
-7.2418
-23.4056
-39.1859
-55.1563
-71.466
-86.8412
-100.025
-111.088
-120.319
-127.578
-133.189
-137.6
-141.012
-143.668
-145.788
-147.494
-148.904
-150.11
-151.188
-152.192
-153.181
-154.209
-155.254
-156.208
-157.024
-157.714
-158.289
-158.761
-159.139
-159.434
-159.657
-159.818
-159.929
-159.997
-160.029
-160.023
-159.968
-159.914
17.8022
30.3885
43.0476
57.6122
69.9495
81.9172
93.4747
103.554
112.634
120.707
127.646
133.708
138.945
143.424
147.264
150.508
153.213
155.419
157.157
158.455
159.342
159.852
160.029
159.945
159.689
159.328
158.875
158.338
157.735
157.079
156.388
155.675
154.954
154.233
153.516
152.797
152.049
151.239
150.252
149.68
5.36485
-7.2418
-23.4056
-39.1859
-55.1563
-71.466
-86.8412
-100.025
-111.088
-120.319
-127.578
-133.189
-137.6
-141.012
-143.668
-145.788
-147.494
-148.904
-150.11
-151.188
-152.192
-153.181
-154.209
-155.254
-156.208
-157.024
-157.714
-158.289
-158.761
-159.139
-159.434
-159.657
-159.818
-159.929
-159.997
-160.029
-160.023
-159.968
-159.914
19.2916
32.9313
46.6497
62.4332
75.8029
88.7721
101.296
112.219
122.059
130.808
138.326
144.897
150.572
155.426
159.587
163.102
166.034
168.424
170.308
171.714
172.676
173.228
173.42
173.33
173.051
172.66
172.17
171.586
170.934
170.224
169.475
168.702
167.92
167.139
166.362
165.583
164.773
163.894
162.826
162.206
5.81384
-7.84789
-25.3642
-42.4651
-59.7716
-77.4462
-94.1082
-108.395
-120.384
-130.387
-138.254
-144.334
-149.115
-152.812
-155.69
-157.988
-159.836
-161.363
-162.671
-163.839
-164.928
-166
-167.113
-168.246
-169.279
-170.164
-170.912
-171.535
-172.046
-172.456
-172.775
-173.017
-173.192
-173.312
-173.386
-173.42
-173.414
-173.354
-173.296
19.2916
32.9313
46.6497
62.4332
75.8029
88.7721
101.296
112.219
122.059
130.808
138.326
144.897
150.572
155.426
159.587
163.102
166.034
168.424
170.308
171.714
172.676
173.228
173.42
173.33
173.051
172.66
172.17
171.586
170.934
170.224
169.475
168.702
167.92
167.139
166.362
165.583
164.773
163.894
162.826
162.206
5.81384
-7.84789
-25.3642
-42.4651
-59.7716
-77.4462
-94.1082
-108.395
-120.384
-130.387
-138.254
-144.334
-149.115
-152.812
-155.69
-157.988
-159.836
-161.363
-162.671
-163.839
-164.928
-166
-167.113
-168.246
-169.279
-170.164
-170.912
-171.535
-172.046
-172.456
-172.775
-173.017
-173.192
-173.312
-173.386
-173.42
-173.414
-173.354
-173.296
20.8632
35.6141
50.45
67.5193
81.9783
96.0037
109.548
121.361
132.003
141.464
149.595
156.701
162.838
168.087
172.587
176.389
179.56
182.145
184.182
185.703
186.743
187.339
187.547
187.45
187.148
186.725
186.195
185.564
184.86
184.092
183.28
182.445
181.601
180.756
179.915
179.072
178.196
177.246
176.09
175.42
6.28763
-8.48687
-27.4303
-45.924
-64.6409
-83.7554
-101.775
-117.225
-130.191
-141.009
-149.517
-156.093
-161.263
-165.261
-168.373
-170.858
-172.857
-174.509
-175.924
-177.186
-178.363
-179.523
-180.727
-181.952
-183.07
-184.026
-184.835
-185.509
-186.062
-186.505
-186.85
-187.111
-187.301
-187.431
-187.511
-187.548
-187.541
-187.476
-187.413
20.8632
35.6141
50.45
67.5193
81.9783
96.0037
109.548
121.361
132.003
141.464
149.595
156.701
162.838
168.087
172.587
176.389
179.56
182.145
184.182
185.703
186.743
187.339
187.547
187.45
187.148
186.725
186.195
185.564
184.86
184.092
183.28
182.445
181.601
180.756
179.915
179.072
178.196
177.246
176.09
175.42
6.28763
-8.48687
-27.4303
-45.924