/*--------------------------------*- C++ -*----------------------------------*\
| =========                 |                                                 |
| \\      /  F ield         | OpenFOAM: The Open Source CFD Toolbox           |
|  \\    /   O peration     | Version:  2506                                  |
|   \\  /    A nd           | Website:  www.openfoam.com                      |
|    \\/     M anipulation  |                                                 |
\*---------------------------------------------------------------------------*/
FoamFile
{
    version     2.0;
    format      ascii;
    arch        "LSB;label=32;scalar=64";
    class       volScalarField;
    location    "0";
    object      turbulenceProperties:epsilon;
}
// * * * * * * * * * * * * * * * * * * * * * * * * * * * * * * * * * * * * * //

dimensions      [0 2 -3 0 0 0 0];

internalField   nonuniform List<scalar> 
10720
(
0.131212
0.130981
0.126279
0.125904
0.122731
0.118246
0.114489
0.110263
0.105779
0.10174
0.0977377
0.0939854
0.0906679
0.087598
0.0848697
0.0825318
0.0805429
0.0789278
0.0777189
0.0768621
0.076348
0.0761729
0.0762908
0.076618
0.0770227
0.0774724
0.0779908
0.0785779
0.0792166
0.0798826
0.0805704
0.0812726
0.0819682
0.0826473
0.0833204
0.0839942
0.0847045
0.0854864
0.086534
0.132828
0.134556
0.131101
0.131197
0.129032
0.12487
0.120187
0.115629
0.110913
0.106049
0.101939
0.0985059
0.0955999
0.0931479
0.0912142
0.0895813
0.0882326
0.0870649
0.086065
0.0851529
0.0842721
0.0833917
0.0824863
0.0815042
0.080607
0.079827
0.0791614
0.0786055
0.0781484
0.0777781
0.0774847
0.077265
0.0771049
0.0769919
0.076918
0.0768829
0.0768745
0.076891
0.0770208
1.82359e-33
1.73915e-33
1.61566e-33
2.52851e-33
3.01002e-33
1.42983e-33
7.66553e-34
1.45836e-33
1.40221e-33
1.86796e-33
1.4754e-33
2.5219e-33
1.3763e-33
3.49242e-34
3.11878e-33
8.80288e-34
2.09967e-33
2.42875e-33
4.50321e-35
1.78625e-33
4.22627e-34
6.40933e-34
1.26768e-33
3.5464e-34
6.93708e-35
3.35975e-34
1.35439e-33
1.00743e-34
3.49089e-33
1.32833e-34
5.05174e-34
3.3986e-35
1.07139e-32
8.58887e-33
4.13654e-34
4.73329e-33
1.07592e-33
9.09125e-33
1.77694e-32
1.92107e-33
9.78284e-34
1.23086e-33
7.57498e-33
1.40006e-33
4.98143e-33
9.54549e-33
4.53842e-33
3.06313e-33
2.65011e-34
2.40761e-33
2.7291e-33
1.88451e-33
1.50641e-33
1.0401e-33
1.27498e-33
8.83132e-34
2.00239e-33
2.19191e-33
5.65393e-35
4.32167e-34
1.49445e-33
6.55563e-34
7.09803e-34
2.25049e-33
3.68096e-34
3.01343e-33
4.79866e-34
1.65767e-33
3.18996e-33
3.55348e-34
2.09212e-34
4.01644e-33
8.9602e-33
5.17955e-34
7.00962e-34
3.29187e-33
4.6385e-33
2.32967e-33
4.32316e-33
8.64445e-33
2.71314e-33
4.39257e-34
1.43304e-33
1.775e-33
3.51556e-33
2.30423e-33
7.78388e-34
1.76482e-33
1.44767e-35
1.74778e-34
3.814e-33
4.34054e-35
9.103e-34
6.59395e-34
2.71381e-33
1.15172e-33
1.70471e-33
1.82007e-33
4.37209e-34
7.22952e-34
2.53068e-33
2.35586e-33
4.66472e-34
1.76841e-34
3.14509e-35
1.45804e-35
2.54264e-33
9.31714e-34
5.01102e-34
1.12162e-33
1.16997e-34
1.04749e-34
1.70807e-33
2.71673e-32
5.87824e-33
7.04881e-33
6.72691e-32
9.83862e-34
4.35393e-34
5.00989e-34
4.77347e-33
9.26201e-34
5.76619e-33
3.00528e-33
1.25721e-33
4.80473e-34
3.97228e-33
1.53898e-33
6.79917e-35
1.33085e-33
7.1473e-34
1.42131e-34
3.67507e-33
2.84048e-33
3.8669e-34
1.08783e-33
8.74372e-34
2.02989e-33
4.99591e-33
1.36661e-33
7.07681e-34
4.01722e-34
4.57766e-34
5.1191e-34
1.13818e-33
4.61261e-34
4.71415e-34
3.82497e-34
1.14242e-33
2.6728e-33
8.51996e-34
2.85075e-33
2.5112e-33
2.60732e-33
1.38556e-32
3.07299e-32
3.47093e-33
9.73706e-34
2.12612e-34
5.81577e-33
1.11009e-33
7.93249e-34
8.63277e-34
1.86808e-33
7.70297e-34
1.92647e-33
8.2793e-34
2.29617e-33
6.62439e-34
2.47709e-33
1.68441e-33
1.3672e-34
1.62407e-33
3.84204e-34
1.03921e-33
5.67801e-34
1.07451e-33
3.3798e-34
9.91183e-34
3.06427e-34
1.44394e-33
1.0809e-34
2.24551e-34
1.38601e-34
1.89795e-33
3.2771e-34
1.76725e-33
3.12891e-33
2.43172e-33
1.7977e-33
5.36154e-33
1.93124e-33
9.44132e-33
2.3026e-32
2.25272e-32
1.21175e-33
2.75794e-33
2.86531e-33
3.32226e-33
3.25831e-33
3.91174e-33
2.12575e-33
7.92316e-34
3.20725e-34
1.05159e-33
1.7584e-33
2.87772e-34
2.04398e-33
1.77001e-33
3.09361e-33
2.08644e-35
3.45192e-34
9.61848e-35
2.50242e-35
4.27201e-34
3.91779e-34
6.86066e-34
1.22666e-34
2.28334e-33
4.19153e-34
3.28139e-34
2.28434e-34
3.79367e-34
7.55336e-35
3.64258e-34
1.86766e-34
2.95212e-34
3.22055e-34
1.42755e-33
2.77297e-33
4.5586e-33
1.32298e-32
2.32224e-33
1.29493e-33
4.32558e-33
1.68175e-33
1.74174e-33
6.61667e-34
1.86317e-33
3.65404e-33
2.47059e-33
8.19623e-35
5.14955e-34
3.87213e-34
4.75861e-33
4.20836e-34
1.9702e-33
1.09949e-33
4.44421e-33
2.55012e-34
1.98016e-34
1.48227e-35
6.03067e-35
1.71366e-33
7.70385e-34
2.40737e-35
1.27213e-34
2.03455e-34
3.25132e-34
2.60384e-34
2.37286e-34
1.16075e-34
6.96662e-35
8.52858e-34
1.79947e-34
1.78725e-33
3.77625e-33
6.14378e-33
3.4039e-33
8.98207e-35
3.20718e-34
2.44222e-34
4.17829e-32
3.27122e-33
1.16426e-33
7.03976e-34
7.31656e-34
1.83857e-33
6.11828e-34
3.03769e-33
2.0566e-33
1.50775e-33
2.52525e-33
2.15976e-33
1.86231e-33
3.31416e-34
5.09879e-34
8.26446e-34
2.17707e-33
2.76592e-34
2.08349e-33
1.26516e-33
1.49173e-33
1.82265e-34
2.75652e-34
5.89805e-34
7.97232e-34
4.45891e-34
2.0416e-34
1.1144e-33
1.48496e-33
7.04809e-35
3.34508e-33
2.91438e-34
3.91749e-34
3.38839e-33
1.40236e-34
3.34043e-34
1.78025e-33
1.70711e-33
3.96286e-33
2.72988e-33
2.60438e-34
1.83769e-34
9.44302e-34
4.95516e-34
6.77316e-34
1.76844e-33
8.4572e-34
1.19581e-33
1.90916e-34
1.03898e-33
1.60082e-34
4.48945e-34
1.79721e-33
6.4455e-34
2.17863e-33
7.63209e-34
2.89686e-34
2.02399e-33
5.31245e-35
7.74372e-34
3.73549e-34
7.34488e-34
8.93553e-35
3.79619e-34
1.03883e-33
5.10081e-34
1.04029e-34
7.52566e-35
2.3625e-34
1.50715e-34
1.34586e-34
7.63506e-34
1.31709e-33
1.21399e-33
1.77339e-33
3.19973e-33
1.42784e-32
4.8232e-34
4.36829e-33
2.22401e-33
1.3273e-33
3.41277e-34
1.50011e-33
1.10704e-33
6.06374e-34
1.22502e-33
2.11917e-33
5.03581e-34
4.47484e-34
2.21584e-33
1.95937e-34
5.84842e-34
2.42048e-34
2.51956e-33
4.42018e-34
9.2767e-34
3.00433e-34
1.38983e-34
2.64228e-34
9.15167e-34
7.03291e-35
7.19031e-34
6.33173e-34
5.17022e-34
4.24313e-34
4.26604e-34
6.25963e-35
9.58661e-35
2.34563e-34
4.09786e-33
2.56554e-34
2.06947e-34
1.45914e-34
3.28035e-34
3.05678e-33
8.95581e-33
5.15378e-33
2.57482e-34
2.89542e-34
1.57555e-33
1.26451e-34
1.07479e-33
8.0826e-34
5.42019e-34
1.21969e-34
6.14213e-34
1.59028e-33
1.96184e-34
1.36301e-33
3.61249e-34
3.20377e-33
2.79007e-33
4.7029e-33
5.0828e-34
8.56646e-34
2.36861e-34
1.20722e-34
1.79049e-35
4.25757e-34
1.49579e-33
3.68738e-34
8.99977e-34
1.4195e-33
2.44296e-34
5.42736e-34
7.26377e-36
3.36059e-34
9.84506e-34
7.35286e-34
5.71759e-34
1.67576e-33
3.71241e-34
1.23772e-33
1.03809e-32
8.00569e-34
4.1084e-34
1.7892e-33
1.86599e-33
9.53748e-34
3.26072e-34
4.44998e-33
4.67172e-34
2.93432e-35
9.83704e-34
8.759e-34
3.39737e-33
3.57909e-34
8.61402e-35
5.07538e-34
5.29676e-35
5.38506e-34
5.70388e-34
1.82068e-33
3.41747e-33
1.76768e-33
1.40023e-34
8.79058e-34
1.53723e-34
7.62228e-34
1.07686e-33
4.35838e-34
7.29637e-34
3.35486e-35
6.44439e-35
3.27385e-34
1.77299e-34
3.42426e-34
1.91593e-34
5.2945e-34
1.1813e-33
6.37473e-34
7.30026e-35
3.06232e-33
4.71073e-33
4.15616e-35
6.9163e-33
3.08243e-34
8.91137e-35
1.32218e-33
3.61782e-33
5.37737e-34
1.63989e-33
1.15136e-35
3.91455e-33
1.928e-33
1.29754e-33
1.69769e-33
6.57865e-34
2.87041e-33
5.8201e-33
7.3803e-34
1.76414e-33
2.53565e-33
1.55543e-33
4.5345e-34
1.62429e-33
7.04323e-34
6.06872e-34
5.03118e-34
4.59289e-34
8.33685e-35
1.13776e-34
2.00599e-34
2.88713e-35
1.06237e-34
5.27016e-34
3.02488e-33
2.27801e-33
2.00564e-33
4.85627e-34
5.32634e-34
9.89548e-33
2.74913e-33
1.58512e-33
1.35462e-32
1.85365e-34
2.35555e-33
3.78792e-33
1.63668e-33
9.79324e-34
1.74643e-35
2.55706e-33
1.49293e-33
5.96824e-34
2.45242e-33
2.97537e-33
1.27942e-34
1.24178e-33
3.77499e-34
3.48202e-34
2.1548e-33
1.77149e-33
1.40013e-34
3.03599e-35
1.52557e-33
8.30854e-34
3.68756e-34
9.81839e-34
2.67713e-33
4.38014e-34
2.02017e-33
1.3529e-33
3.79622e-34
9.96201e-34
6.97761e-34
1.8675e-33
1.51237e-33
5.05924e-34
1.00848e-35
8.43203e-34
1.78136e-33
6.84178e-34
9.58635e-34
6.46421e-34
5.33682e-34
2.7714e-34
1.89696e-33
1.93107e-33
1.41535e-34
2.90117e-34
2.99873e-33
4.82317e-34
1.56877e-33
7.36701e-34
1.8442e-34
3.67192e-33
1.07126e-33
1.93654e-33
1.73671e-34
1.11809e-34
5.44294e-34
5.03882e-34
5.66143e-34
2.66601e-34
4.81484e-35
3.5023e-34
1.35549e-33
2.40277e-34
1.47958e-34
7.69503e-34
2.31087e-35
7.70175e-35
1.94002e-33
1.56377e-33
4.67091e-34
1.76352e-33
2.29385e-33
2.7636e-33
3.38548e-33
1.63285e-33
1.40703e-33
1.3143e-32
6.21223e-33
1.37879e-33
1.89714e-34
4.23369e-34
7.11579e-34
6.84223e-34
2.54041e-33
6.48026e-35
3.66534e-34
9.78623e-34
5.899e-34
1.0984e-33
3.07918e-34
2.45897e-33
8.07137e-34
1.40385e-33
6.91459e-34
1.41892e-33
1.06251e-34
7.77522e-34
3.89717e-34
1.65461e-34
1.49778e-33
3.0968e-34
7.8662e-34
1.12761e-33
2.38922e-34
3.94846e-34
5.37231e-35
5.0593e-34
6.71436e-35
7.52664e-34
2.21013e-34
2.44417e-33
3.36339e-33
3.03728e-34
3.78682e-35
1.54748e-34
5.75041e-34
2.06025e-34
4.19577e-34
5.31456e-34
4.62263e-34
6.67454e-34
1.09891e-33
1.04534e-33
7.92221e-33
1.28823e-33
1.56732e-33
1.3819e-33
9.87129e-34
1.43646e-33
3.11618e-34
9.62032e-35
5.42131e-35
1.37626e-33
1.17427e-33
1.2807e-33
7.99687e-34
9.11604e-35
1.32883e-33
4.1726e-35
1.49518e-34
4.05896e-34
4.46098e-35
1.27862e-34
4.54712e-35
1.63262e-35
1.21136e-33
4.46293e-34
1.01537e-33
8.74802e-34
6.20344e-34
1.90199e-34
9.65015e-34
1.50689e-33
1.14596e-33
1.36582e-33
8.85824e-33
1.53042e-33
5.5938e-34
5.22742e-34
1.3859e-34
3.98068e-34
2.67767e-33
2.20477e-33
1.05742e-34
1.62812e-33
7.52812e-34
2.11702e-33
1.26499e-33
8.52596e-35
3.3592e-34
5.79753e-34
1.01919e-33
8.80642e-35
1.27245e-34
7.65371e-34
2.4202e-35
7.59503e-34
8.38396e-35
3.83197e-34
1.70862e-33
1.24898e-34
6.88056e-34
3.89312e-34
5.70062e-35
3.42601e-34
7.6387e-34
5.96918e-34
4.50458e-34
1.67733e-34
1.68432e-33
1.16671e-33
9.13602e-34
5.05284e-33
3.24641e-33
1.15109e-33
1.20123e-33
4.61308e-34
6.06126e-34
2.00019e-34
7.49402e-34
1.10092e-33
6.002e-34
6.84517e-34
2.00379e-33
9.88392e-34
1.07752e-33
1.31466e-33
2.91059e-34
9.78939e-35
6.72176e-34
8.36604e-35
2.50444e-34
2.97495e-34
7.66145e-35
4.63622e-34
2.39606e-34
5.89119e-34
3.89018e-34
8.42944e-34
2.27571e-34
2.27884e-34
4.41643e-35
1.67276e-33
5.28248e-34
7.32515e-34
5.65568e-35
1.77105e-33
2.66017e-33
1.46964e-34
6.43981e-34
2.15354e-34
1.92449e-33
2.59925e-34
1.43616e-33
1.31999e-33
5.59181e-34
4.87857e-34
3.15808e-34
6.69716e-34
2.15147e-33
4.51433e-34
7.17837e-34
1.2186e-33
3.61341e-34
3.33301e-33
1.1664e-33
6.36438e-34
2.01102e-34
1.38349e-34
4.07251e-34
9.65885e-35
2.81732e-34
6.64585e-34
2.03063e-34
6.49823e-34
1.6873e-34
8.41625e-34
3.88118e-34
2.71498e-34
2.36745e-34
5.79127e-35
3.05329e-34
3.81913e-34
4.13537e-35
4.9035e-34
6.5304e-34
8.8171e-34
7.20224e-34
2.64826e-33
4.15068e-34
6.67479e-33
8.43411e-33
1.36753e-33
1.09077e-33
3.78789e-34
4.58243e-34
1.92133e-33
4.10635e-34
4.09232e-34
1.22937e-33
8.67224e-34
1.72492e-33
5.45936e-34
1.82756e-34
1.23386e-34
5.10219e-34
1.56583e-33
1.72861e-34
4.73713e-34
3.89186e-34
2.69793e-34
4.9033e-34
3.82884e-35
9.4667e-34
4.08451e-35
2.00805e-33
1.30321e-34
1.89731e-34
1.1334e-33
1.33806e-34
8.87423e-34
3.64833e-34
9.5036e-34
9.56704e-36
1.75828e-33
3.966e-34
5.16523e-34
1.79858e-33
4.54677e-34
8.99371e-34
4.57879e-34
8.57353e-33
1.14992e-33
4.49148e-34
1.18348e-33
7.20859e-34
6.34592e-34
5.31551e-34
1.86406e-34
4.16145e-34
3.01831e-33
1.16781e-33
4.02336e-34
1.33329e-33
2.60427e-34
1.09079e-33
1.0748e-35
1.60172e-34
7.59474e-34
4.26805e-34
2.86822e-34
9.13004e-34
4.17856e-34
4.90505e-34
2.50943e-34
1.71586e-34
9.87217e-35
2.56408e-34
5.82495e-35
5.13785e-35
7.79327e-35
7.02149e-34
3.40187e-34
2.49929e-34
6.3953e-35
9.94952e-34
6.24808e-34
1.19063e-33
2.84153e-33
2.84384e-33
4.53024e-33
6.7878e-34
1.04278e-33
4.40207e-34
6.55385e-34
9.78996e-34
9.72855e-34
4.43248e-34
9.9861e-34
4.13436e-34
2.11326e-34
1.60547e-33
8.22283e-34
1.09926e-33
1.35129e-34
1.54526e-34
9.24336e-34
1.30465e-33
3.01251e-34
1.42872e-33
4.1591e-35
3.42126e-34
1.24909e-33
1.35531e-33
6.80133e-34
2.09617e-34
3.94098e-35
5.3794e-34
1.84751e-34
1.6634e-34
2.46605e-34
2.7503e-34
5.41365e-35
9.83641e-34
1.82115e-33
1.08495e-34
3.45225e-33
1.79514e-34
1.4285e-33
1.13031e-32
4.04747e-34
5.27275e-34
5.25185e-34
7.64978e-34
4.42589e-34
7.12271e-34
1.54936e-34
1.59541e-33
2.40892e-34
3.95848e-34
1.67482e-33
1.14776e-33
4.38784e-34
5.67416e-35
1.59692e-33
1.0194e-33
8.37721e-34
1.18853e-33
5.08896e-34
2.00274e-34
3.20337e-34
2.01473e-34
9.65564e-34
8.97916e-34
2.17565e-34
5.05479e-34
4.93458e-34
6.03916e-35
8.03857e-35
2.28164e-34
5.64599e-34
6.8782e-34
9.86817e-34
2.62422e-33
4.68403e-34
1.29156e-33
5.35248e-33
2.59498e-35
8.96611e-33
5.21299e-35
7.31428e-35
8.57489e-34
1.72914e-34
5.82223e-35
1.98795e-34
1.9458e-33
1.33518e-33
1.29008e-33
1.59371e-33
1.52483e-33
5.69652e-35
5.35423e-34
1.66525e-34
2.77607e-33
2.55983e-34
9.58771e-34
1.90649e-34
3.53925e-34
1.67638e-33
5.12201e-34
1.24905e-34
3.2613e-34
9.99549e-34
6.43824e-34
5.1211e-34
2.91372e-36
1.90364e-34
1.01879e-34
5.57509e-35
6.58605e-34
4.04778e-34
1.77016e-34
1.51338e-32
1.11139e-33
6.36913e-33
1.89459e-33
2.70127e-34
1.26941e-32
4.52469e-34
1.97038e-33
1.03877e-34
9.35503e-34
6.31549e-34
1.52939e-33
6.84473e-34
2.17009e-33
5.97861e-34
2.59415e-34
3.07911e-35
5.04072e-34
9.41238e-34
7.44361e-34
1.36967e-35
6.89284e-34
9.20473e-34
1.40594e-34
5.30881e-34
2.27043e-34
4.30207e-34
3.89288e-34
3.10013e-34
5.66395e-34
8.91038e-34
3.63404e-35
5.53985e-35
1.62911e-35
2.69391e-34
3.63048e-34
1.0082e-33
6.94254e-34
2.51166e-35
1.59892e-33
4.75678e-34
1.04894e-33
2.78837e-33
6.14922e-34
3.49668e-33
6.02589e-34
2.04207e-34
6.06749e-34
1.03698e-33
3.14442e-34
1.95679e-34
6.80916e-34
1.65215e-34
1.97417e-34
2.45491e-34
6.03066e-34
5.48404e-34
8.09909e-35
7.67758e-34
6.64258e-34
4.94328e-34
2.8665e-34
1.65395e-33
1.18062e-33
1.95151e-34
1.71079e-34
5.67449e-34
8.92599e-34
3.26145e-35
2.46265e-35
3.58111e-34
1.44399e-34
1.03334e-33
5.91983e-34
2.2604e-34
4.19847e-34
1.60679e-34
7.63685e-34
1.26475e-32
1.08866e-33
3.67902e-33
9.39585e-34
4.01096e-33
1.51749e-32
2.58593e-34
2.38845e-34
4.22641e-34
4.50163e-34
1.18864e-33
9.57349e-34
8.72173e-34
2.75547e-33
1.09107e-33
4.89412e-34
8.31966e-34
1.04018e-33
3.30949e-34
6.20133e-34
5.3045e-34
1.01887e-33
6.1607e-35
7.2793e-34
4.59263e-34
5.74483e-34
5.58355e-34
2.11838e-34
8.49429e-34
2.08262e-34
2.36524e-34
3.64534e-34
2.6925e-35
4.28529e-34
3.81271e-35
1.47991e-34
5.51251e-34
1.22777e-34
2.82435e-34
1.02372e-33
4.12263e-35
3.61062e-35
8.09351e-34
2.0802e-33
1.64156e-33
1.13109e-33
1.00501e-34
1.45822e-34
1.75015e-34
2.63978e-34
1.10239e-33
5.12167e-34
1.27349e-33
2.02096e-33
5.19441e-34
5.89464e-34
2.02304e-34
4.60458e-34
1.41964e-35
2.61059e-34
1.7996e-33
2.0418e-33
1.07467e-34
4.71857e-34
2.20555e-34
1.86211e-34
2.53837e-34
1.33073e-34
5.83954e-34
2.39099e-34
1.41178e-35
1.27664e-34
6.84999e-35
4.19301e-34
4.32344e-34
3.55473e-34
3.16094e-34
3.83795e-34
1.7518e-33
1.25413e-33
1.61403e-34
1.2284e-34
4.19282e-33
1.40909e-33
2.73257e-33
1.20417e-33
1.05805e-33
2.52561e-34
1.84918e-33
4.58069e-34
1.18031e-33
1.03248e-34
6.64359e-34
6.65205e-35
5.54391e-34
2.83423e-34
3.28134e-34
2.01649e-34
1.05494e-33
8.83226e-35
7.18571e-35
2.03653e-34
3.72824e-34
5.07885e-34
1.93761e-34
2.92607e-34
6.96684e-34
1.84887e-34
1.66925e-34
4.08937e-34
1.8476e-34
2.88818e-34
2.20294e-34
2.16747e-35
6.59121e-35
1.2375e-34
6.36302e-34
4.2117e-33
8.4445e-35
2.73329e-34
1.2303e-33
3.11063e-33
1.1171e-33
3.43925e-34
2.13045e-34
2.75058e-34
5.50529e-35
3.874e-34
9.7939e-34
2.65122e-33
4.7398e-34
1.20582e-33
2.77539e-34
2.47981e-34
6.22667e-34
7.21797e-34
2.01638e-35
4.35606e-34
1.42486e-34
1.55058e-33
5.08263e-34
2.98733e-34
1.71985e-35
4.53267e-34
1.55786e-34
1.78673e-34
4.77597e-34
1.02526e-34
1.09747e-34
3.73819e-34
6.86351e-34
1.01206e-34
2.19393e-34
5.04866e-34
1.15321e-34
6.97329e-34
2.24595e-35
4.53602e-35
2.03538e-34
2.89086e-34
1.83861e-34
6.48005e-34
9.51173e-35
1.98645e-33
1.93533e-34
6.02013e-34
9.75419e-34
5.64313e-34
4.94009e-35
3.77488e-34
1.04463e-33
3.29642e-34
4.2729e-34
5.24773e-34
5.2826e-34
1.03001e-34
1.03059e-34
4.6918e-35
5.93165e-34
6.52925e-34
5.75695e-35
4.60593e-34
8.53563e-34
2.17432e-34
2.25557e-34
9.55878e-34
5.94212e-34
7.09177e-35
2.11371e-34
2.36855e-34
2.39246e-34
3.64866e-34
5.53949e-34
6.35516e-35
7.12937e-34
1.67683e-33
1.70958e-34
8.24429e-35
3.21481e-34
3.63672e-34
5.70719e-33
1.88674e-33
8.04423e-34
5.61293e-34
1.31123e-34
7.17767e-35
1.10349e-33
5.14907e-33
1.67137e-34
3.21017e-34
6.82678e-34
6.1458e-35
5.31956e-35
4.17939e-35
1.45309e-35
9.32473e-34
1.35127e-34
1.28116e-33
2.45875e-34
6.16188e-34
2.87782e-34
1.52828e-34
4.50576e-34
2.24781e-34
5.53833e-35
1.84892e-34
2.88832e-34
3.15044e-35
3.30896e-35
8.04492e-35
1.29165e-34
5.56813e-34
1.03484e-34
1.03728e-33
1.35542e-34
3.84159e-35
1.69342e-34
8.08513e-35
2.51074e-33
1.32187e-33
4.96723e-34
1.36705e-33
5.44413e-34
1.18617e-33
1.32673e-33
4.66485e-34
8.62441e-34
3.42103e-34
6.497e-34
4.96808e-34
1.3271e-33
1.48994e-33
1.8968e-35
3.10052e-34
1.49546e-33
2.56328e-33
5.43412e-34
7.17709e-34
1.67958e-34
5.77792e-34
3.00053e-34
2.65422e-34
1.09274e-33
2.12957e-35
1.7793e-34
1.07893e-34
6.57886e-35
7.43055e-36
5.53714e-36
5.9715e-35
6.16068e-34
1.2382e-33
7.06716e-34
3.65459e-35
9.59298e-34
5.58308e-34
2.25053e-33
1.10364e-33
3.5885e-33
3.13934e-34
5.0054e-34
2.36486e-34
1.17059e-34
2.90609e-34
9.4682e-34
3.19967e-34
3.93686e-34
5.33967e-34
3.26637e-34
7.30522e-34
1.41402e-34
1.67674e-34
1.2979e-35
2.22659e-34
1.12226e-34
1.50515e-33
1.32592e-34
3.39677e-34
3.14892e-34
5.47703e-34
6.20967e-34
8.55313e-35
9.22179e-35
3.469e-34
8.49807e-35
1.90614e-34
4.60745e-36
9.53328e-35
3.21349e-34
1.59433e-34
2.88598e-34
3.03927e-34
6.20893e-35
7.56714e-34
7.85419e-34
3.60042e-34
1.57435e-33
6.14408e-33
1.4218e-33
3.60509e-34
1.07287e-33
2.97737e-34
1.07832e-33
2.68113e-34
4.49757e-34
3.67955e-34
3.10327e-33
2.81299e-34
2.40564e-34
1.05876e-34
4.62154e-34
6.03719e-34
7.4045e-34
2.14258e-34
5.30132e-34
1.92282e-34
1.51228e-33
1.59639e-33
4.80697e-34
1.00323e-34
6.46357e-34
2.10051e-34
5.22219e-34
4.59143e-34
2.34769e-34
1.85279e-34
3.51288e-35
2.83771e-34
6.1538e-35
6.13223e-34
7.51518e-36
3.03201e-34
1.68265e-34
1.50833e-33
2.57353e-34
6.10298e-34
8.67192e-33
5.16286e-34
4.80055e-35
1.29672e-33
1.77728e-34
9.5894e-35
1.44205e-34
2.69148e-34
1.03213e-33
3.85823e-34
4.04799e-34
4.60539e-35
4.18465e-35
1.81374e-34
1.19058e-33
2.56958e-34
3.27389e-34
3.84901e-34
7.76219e-34
8.58592e-34
5.578e-34
3.56421e-34
3.93196e-34
1.57651e-34
1.1469e-34
4.31089e-34
6.79349e-35
3.5722e-34
5.19307e-34
7.21721e-35
6.69214e-34
3.03086e-34
6.28229e-35
5.78573e-34
2.92573e-34
1.1814e-34
7.37252e-34
4.59433e-34
1.45136e-34
3.30675e-34
5.86628e-34
1.23904e-34
5.2551e-34
1.74137e-34
7.23942e-34
1.49146e-34
8.34133e-34
5.67029e-34
3.85337e-34
3.84216e-34
8.54291e-34
3.07291e-34
2.64302e-34
1.1459e-34
1.02435e-34
1.57728e-36
3.56279e-34
2.72763e-34
8.97988e-36
5.96314e-35
2.89148e-35
1.90142e-34
3.69489e-34
7.76626e-35
2.92278e-34
3.46857e-34
5.39799e-34
1.23309e-35
4.93215e-36
3.62411e-34
9.31442e-34
5.21804e-35
2.70217e-35
1.08267e-33
8.49406e-34
4.97497e-34
1.39689e-33
6.5365e-34
3.79388e-33
1.41438e-34
4.77971e-34
9.55693e-35
2.17245e-34
4.2488e-35
4.39524e-34
6.41543e-34
2.58796e-34
2.20942e-34
2.15487e-34
1.11702e-33
2.03451e-33
2.2164e-33
3.74551e-34
4.30459e-34
8.577e-34
5.11692e-34
6.64344e-35
7.34494e-34
6.25225e-35
3.56893e-34
8.46737e-34
7.0008e-35
6.64368e-34
3.47446e-34
3.52255e-34
4.84166e-35
3.31069e-34
5.83154e-35
4.15584e-35
4.00931e-35
2.13118e-34
6.14713e-34
1.74481e-34
5.00958e-34
2.04372e-35
3.31371e-34
2.31514e-33
1.24176e-33
1.28165e-34
2.06411e-34
1.20462e-34
1.38112e-34
4.91647e-34
2.43539e-34
3.22324e-34
2.39032e-34
6.14269e-34
1.09747e-33
5.59013e-35
4.94313e-34
9.8506e-34
5.80323e-34
1.13475e-34
1.23776e-34
5.98086e-34
3.71784e-34
8.54105e-35
2.28211e-34
7.40485e-35
3.95735e-34
5.82483e-34
6.86121e-35
5.09528e-35
1.67879e-34
1.34933e-34
5.74088e-35
3.72544e-35
1.2124e-34
3.90048e-35
3.07928e-34
4.21457e-35
6.75305e-35
9.10869e-34
6.69141e-35
8.57711e-34
2.26444e-34
2.43407e-34
2.18843e-34
2.62364e-34
4.20551e-34
9.59679e-34
5.79641e-34
3.06691e-34
4.29764e-34
5.61738e-34
3.14566e-34
2.69726e-34
6.30956e-34
2.18524e-34
3.16426e-34
1.28887e-33
8.26697e-34
2.66622e-35
1.9407e-34
4.33055e-34
3.46555e-34
2.52477e-34
4.93543e-34
3.25664e-34
7.36777e-35
2.83807e-35
1.14397e-34
2.39374e-34
4.38912e-35
1.21586e-34
4.01598e-34
3.11988e-35
1.63475e-34
5.90997e-34
1.54142e-33
9.81588e-35
4.32403e-35
3.00843e-34
2.39121e-34
2.00921e-34
3.33546e-34
5.65757e-34
1.47633e-34
1.00277e-34
2.41437e-34
1.21896e-34
2.46026e-33
8.42137e-35
3.22656e-33
1.54137e-34
1.98961e-33
1.20793e-33
3.08604e-34
2.79817e-34
4.16433e-35
6.34893e-35
3.30631e-34
4.10321e-35
4.55225e-35
3.33248e-34
4.6768e-34
8.40203e-35
2.10302e-34
1.37728e-34
4.64805e-34
6.05565e-35
7.03815e-35
9.76967e-35
1.26716e-34
4.26862e-35
4.05226e-35
2.16014e-35
1.42812e-35
9.18553e-35
3.4329e-35
6.37343e-35
5.20226e-35
2.10707e-34
4.66759e-34
4.99596e-35
3.80335e-34
8.69707e-36
6.95346e-34
5.20831e-34
1.25138e-34
8.38217e-34
3.0083e-34
5.71917e-34
9.40145e-35
9.93906e-34
2.07166e-34
1.75474e-33
6.03771e-34
1.20907e-36
4.22682e-34
9.69851e-35
5.59552e-35
4.47798e-34
3.49232e-34
5.48696e-34
6.65571e-35
7.69285e-35
3.20037e-34
8.29511e-35
1.96481e-34
3.91088e-34
5.18798e-36
3.42665e-35
3.21458e-35
1.04769e-34
6.11132e-35
4.47793e-34
2.63674e-34
4.4605e-34
7.1597e-34
1.04451e-33
2.24342e-34
1.3383e-34
1.55401e-33
1.2329e-34
1.54414e-34
5.53282e-34
5.77459e-34
1.62469e-34
4.63204e-34
7.20499e-34
8.13273e-34
6.19481e-34
3.7915e-34
1.97397e-34
7.96024e-34
1.8871e-34
5.52709e-34
7.62733e-35
3.37127e-34
2.90584e-35
1.56797e-34
3.3854e-34
5.69921e-34
9.6308e-35
1.00579e-34
5.26387e-35
3.44073e-35
2.11898e-34
1.69882e-35
2.18752e-34
3.38102e-35
1.99437e-35
1.13763e-34
1.87878e-35
5.12625e-35
9.14365e-34
9.15443e-35
1.99006e-34
2.2032e-34
6.33015e-35
6.36371e-34
2.88129e-34
3.48054e-34
3.63028e-34
1.05655e-34
1.91911e-34
1.96365e-34
4.21444e-34
3.451e-34
8.60003e-34
8.43521e-34
1.09449e-33
8.30607e-35
1.84193e-33
3.13926e-34
3.04772e-33
2.02497e-34
1.24918e-34
3.58295e-34
7.13784e-35
7.97647e-35
7.27661e-34
3.10742e-35
3.64302e-34
1.18874e-34
7.70676e-36
5.26284e-35
1.0333e-34
7.87408e-35
9.8768e-35
1.08974e-34
6.64915e-35
1.66481e-35
4.60157e-35
1.23948e-33
4.12885e-34
4.14477e-34
6.09436e-34
6.87649e-35
2.79024e-34
7.90493e-34
7.07821e-34
1.89071e-34
8.61433e-35
2.81054e-34
2.1857e-34
1.19836e-33
2.42716e-33
2.59267e-34
8.0321e-35
4.33758e-34
8.99529e-34
3.54867e-34
4.00752e-34
4.86346e-34
4.98375e-34
1.63397e-35
1.1602e-34
7.46878e-36
2.10196e-34
3.87315e-34
1.81792e-34
1.12097e-34
1.05417e-34
1.79158e-34
5.31234e-35
2.11058e-34
3.36998e-35
3.03047e-35
5.65147e-35
3.71469e-34
2.7077e-35
3.82271e-34
9.33553e-34
2.95311e-34
7.79487e-36
1.59962e-34
1.15658e-34
1.82433e-33
2.4464e-34
1.96013e-34
3.23573e-34
4.7354e-34
7.51849e-35
5.00618e-34
9.27851e-34
1.22467e-33
8.28831e-34
3.0365e-35
9.00409e-34
3.12847e-34
2.70518e-34
6.33521e-34
2.04707e-33
9.847e-34
2.37738e-34
4.0342e-34
4.63573e-34
6.62409e-35
7.20419e-35
1.10458e-35
9.09049e-35
9.61839e-35
1.52829e-35
3.81225e-35
3.04221e-35
2.39575e-34
1.48224e-34
2.9425e-35
1.50658e-34
2.60069e-34
3.95463e-35
4.17903e-35
2.36297e-34
2.14134e-34
5.98955e-35
4.94198e-34
6.64359e-34
1.02004e-33
4.26531e-34
1.8543e-34
3.6861e-34
2.62999e-34
9.92205e-35
4.61609e-34
1.42721e-33
1.04922e-33
7.72897e-34
1.01033e-34
2.32138e-34
7.00975e-34
2.81237e-34
3.6328e-34
5.39397e-34
1.56042e-34
1.88316e-34
7.79473e-35
1.16737e-34
4.06729e-34
4.90224e-34
1.77397e-34
9.89843e-35
2.18123e-34
5.17741e-34
2.06461e-34
5.93221e-36
1.3292e-34
1.19132e-34
2.42136e-35
2.73935e-35
2.01276e-34
1.20372e-34
5.59644e-35
6.67886e-35
7.41396e-35
3.84003e-34
4.86189e-34
8.77282e-35
1.07847e-34
6.53518e-35
2.6265e-34
2.44464e-34
2.11298e-35
3.69111e-34
5.32652e-34
1.86838e-34
1.94446e-34
3.51107e-35
1.40295e-34
1.03052e-33
3.09297e-35
2.67569e-34
1.02631e-34
8.53716e-34
2.41091e-34
2.83512e-34
5.5194e-35
8.05425e-35
1.92768e-34
3.28404e-34
5.74129e-35
4.59411e-35
2.48312e-35
4.34101e-35
1.79093e-35
2.0802e-34
4.96309e-35
3.02224e-34
1.46174e-34
3.13999e-34
8.37505e-35
2.16681e-34
6.32601e-34
5.00371e-35
1.67706e-34
1.53608e-33
8.38651e-34
2.88564e-34
2.23866e-34
2.55926e-34
1.91563e-34
5.68151e-34
8.29193e-34
2.9588e-34
3.54601e-35
1.96644e-34
2.36088e-34
2.83495e-34
2.16327e-34
1.60506e-34
8.46993e-34
8.72241e-34
3.07464e-34
8.2079e-34
2.45005e-34
1.01436e-34
1.86848e-34
6.47694e-35
1.47681e-34
3.80155e-34
1.16969e-34
7.27442e-35
8.35956e-35
1.56222e-34
3.53116e-35
6.8522e-36
1.17952e-35
7.02916e-35
5.91477e-34
1.56012e-34
1.02513e-34
1.16646e-34
5.17891e-34
2.27138e-35
8.22551e-34
2.98864e-34
3.22066e-35
8.58879e-34
1.20802e-34
3.90707e-34
6.49426e-34
3.78522e-35
1.01257e-33
4.91708e-34
4.07898e-34
1.07688e-33
3.82354e-34
2.3644e-34
4.57315e-34
4.14068e-34
5.73768e-35
2.78821e-34
1.4333e-34
7.43584e-35
4.56978e-34
5.26915e-35
1.54e-34
4.79723e-35
1.55847e-34
4.76494e-36
7.45712e-35
2.30463e-35
4.7345e-35
7.17113e-35
1.23407e-35
2.71149e-35
1.90763e-34
2.4567e-34
1.36302e-35
5.93583e-35
5.82357e-35
8.80419e-35
1.07971e-33
2.33299e-35
3.48601e-34
1.86236e-34
5.77647e-34
2.32315e-34
3.53936e-34
1.26997e-34
2.91205e-34
6.84384e-35
1.90106e-34
1.75874e-33
9.69722e-35
2.03493e-34
9.92769e-34
1.61191e-33
4.97769e-34
4.74422e-35
3.64022e-34
9.11902e-35
2.2657e-34
1.83856e-34
2.04131e-35
5.38455e-35
3.09332e-35
1.68706e-35
7.61676e-34
7.40245e-35
1.30825e-35
5.16501e-35
4.83864e-35
2.40415e-35
1.35498e-34
1.27366e-34
2.95542e-34
4.7598e-34
5.40799e-35
2.64382e-34
1.95236e-34
1.68703e-34
6.32524e-34
1.37327e-33
1.16754e-34
1.33409e-33
2.45868e-34
8.15958e-34
2.56866e-35
2.19776e-34
2.29441e-35
8.07738e-34
2.42975e-34
1.33811e-33
1.63198e-34
1.82428e-34
8.15278e-35
8.00039e-34
4.01881e-34
4.38597e-34
8.80298e-35
9.67327e-34
1.95945e-34
1.52664e-34
2.29827e-34
2.27e-34
8.47842e-35
2.97236e-35
2.18581e-35
8.24945e-35
8.35384e-35
5.5331e-36
2.83092e-34
6.93451e-35
2.11987e-35
3.01918e-34
2.70273e-34
7.92615e-35
3.37385e-34
1.03689e-34
3.16346e-34
4.44733e-35
8.70581e-34
2.35576e-34
1.33718e-34
9.98488e-35
2.64297e-34
1.83284e-34
1.17043e-33
2.59498e-34
6.97064e-34
1.98026e-33
5.75081e-34
3.53484e-35
2.07734e-34
1.33804e-33
1.00369e-34
1.00993e-34
1.77371e-34
2.08014e-34
5.86743e-34
2.75083e-35
1.26194e-34
4.07147e-34
5.01282e-34
1.88482e-34
2.95798e-34
2.48418e-35
9.77215e-35
1.73072e-35
1.71966e-35
1.63928e-36
6.57216e-35
3.61901e-35
4.88717e-35
4.69157e-34
1.08648e-34
2.89217e-34
1.93016e-35
1.55628e-35
4.86859e-34
5.15533e-34
2.59562e-35
1.1875e-35
1.27083e-34
4.13029e-34
3.36791e-35
2.58597e-34
3.21121e-34
1.2438e-34
1.07249e-33
9.74836e-34
1.07021e-33
1.15168e-34
9.89629e-35
3.83863e-34
4.41745e-34
4.17082e-34
4.98018e-34
3.40708e-34
1.77666e-34
1.5499e-34
3.26378e-34
5.09282e-35
9.58091e-35
6.35702e-35
2.41659e-35
5.60469e-35
1.29667e-34
5.36629e-35
4.70638e-36
1.03029e-34
1.39218e-34
7.46418e-35
1.02022e-34
1.39704e-35
2.25288e-34
2.05348e-34
1.65644e-34
5.99281e-34
4.17791e-34
2.02564e-35
3.61437e-35
9.35242e-35
1.15849e-33
8.25915e-35
3.33407e-34
2.62146e-34
1.43234e-33
2.02911e-34
1.81509e-35
9.08469e-35
3.67785e-34
6.41675e-34
1.45772e-34
1.02979e-34
4.63408e-34
8.22817e-34
7.99709e-34
1.68033e-34
1.89209e-34
5.76915e-35
9.98533e-35
4.29667e-35
1.67453e-34
2.95416e-34
6.1895e-35
5.37337e-35
2.79696e-35
1.22753e-34
6.39777e-35
1.5311e-34
2.62468e-34
9.40531e-34
1.17154e-34
3.05464e-34
3.49278e-35
1.53447e-34
5.76246e-34
8.54036e-34
5.95248e-35
1.42854e-35
3.84908e-36
4.55227e-35
4.74388e-35
1.53851e-34
7.50246e-34
3.12229e-34
3.04288e-33
2.31622e-34
9.10568e-35
9.26394e-34
3.10892e-34
1.08073e-33
1.03891e-34
3.71134e-34
5.36829e-34
2.65169e-34
2.06213e-34
5.24978e-35
1.01074e-34
1.14336e-35
1.01466e-34
1.0246e-34
7.09745e-35
2.29619e-35
6.77611e-35
3.00911e-36
5.89906e-35
9.72114e-35
5.74374e-35
7.00534e-35
8.89979e-34
2.46668e-34
1.03332e-35
2.97959e-34
1.99745e-34
2.35308e-34
1.78769e-33
2.63896e-35
2.63898e-35
4.7092e-35
7.32156e-35
1.06637e-33
2.58881e-34
1.99226e-34
1.65742e-33
9.2985e-34
7.84494e-34
3.53374e-34
1.03147e-33
1.74029e-34
2.30767e-34
1.34353e-34
1.93144e-34
2.23123e-34
2.37285e-34
1.15037e-33
5.11662e-34
2.81981e-35
1.49605e-34
1.88889e-35
4.86154e-35
8.19497e-35
8.11085e-35
5.8605e-35
1.90346e-35
2.75186e-35
1.8515e-34
2.15241e-35
2.39426e-35
4.89314e-34
1.86763e-35
3.42614e-34
5.5143e-35
8.94153e-35
1.53887e-34
1.41734e-34
8.29379e-35
3.09421e-35
2.3214e-34
3.36751e-35
3.4976e-34
1.77177e-34
1.52633e-34
7.8098e-34
4.32356e-35
5.57951e-34
2.03665e-34
5.37343e-34
1.92404e-33
5.28707e-34
6.17936e-34
9.3883e-35
2.20964e-34
1.38141e-34
1.20128e-34
2.82311e-34
1.9565e-34
3.34887e-35
1.62964e-34
6.44097e-35
3.89225e-35
1.63879e-34
6.58007e-35
2.22308e-35
1.78136e-35
3.73548e-35
7.58213e-36
1.17825e-35
2.40719e-34
4.42954e-35
2.29247e-34
4.06867e-34
4.08327e-34
9.40138e-34
4.17155e-33
1.2731e-34
9.80103e-35
2.19253e-35
9.76888e-34
4.2369e-34
1.45013e-35
1.82939e-33
2.26592e-33
3.51957e-34
9.66433e-34
1.3938e-33
3.46938e-34
6.51191e-35
8.81638e-34
1.03054e-33
2.60595e-34
1.29207e-34
3.36642e-34
2.10519e-34
3.19881e-34
4.02608e-34
1.86456e-34
1.90681e-35
1.97558e-34
1.97813e-35
5.05068e-35
1.4087e-35
1.82165e-36
4.21788e-35
1.57336e-35
4.82102e-35
1.35182e-34
1.77036e-34
2.55634e-34
1.60523e-35
4.43395e-35
2.56428e-35
1.54885e-34
7.67033e-34
1.04318e-34
3.76555e-35
1.38646e-34
1.9247e-34
2.85527e-34
6.22684e-34
1.77239e-34
1.21808e-34
3.02467e-34
1.50553e-34
3.11584e-34
1.53096e-36
1.23375e-34
8.79142e-35
8.84849e-34
3.52514e-35
6.90653e-34
2.15467e-34
2.83332e-34
1.10968e-34
2.8109e-34
6.77297e-35
6.85716e-35
1.10573e-35
1.65472e-35
1.33545e-35
2.38369e-35
8.21068e-35
4.1933e-35
1.03907e-34
2.78039e-35
1.77875e-34
5.58526e-34
5.04568e-35
1.3078e-34
7.6677e-35
2.05806e-34
4.66148e-34
6.62992e-34
4.05465e-35