/*--------------------------------*- C++ -*----------------------------------*\
| =========                 |                                                 |
| \\      /  F ield         | OpenFOAM: The Open Source CFD Toolbox           |
|  \\    /   O peration     | Version:  2506                                  |
|   \\  /    A nd           | Website:  www.openfoam.com                      |
|    \\/     M anipulation  |                                                 |
\*---------------------------------------------------------------------------*/
FoamFile
{
    version     2.0;
    format      ascii;
    arch        "LSB;label=32;scalar=64";
    class       pointScalarField;
    location    "1";
    object      streamFunction;
}
// * * * * * * * * * * * * * * * * * * * * * * * * * * * * * * * * * * * * * //

dimensions      [0 3 -1 0 0 0 0];

internalField   nonuniform List<scalar> 
882
(
0
0
0
0
0
0
0
0
0
0
0
0
0
0
0
0
0
0
0
0
0
0
1.19727e-06
-2.85947e-06
-1.20739e-05
-2.46593e-05
-3.89509e-05
-5.36113e-05
-6.74523e-05
-7.9327e-05
-8.80334e-05
-9.23995e-05
-9.14043e-05
-8.4571e-05
-7.2237e-05
-5.567e-05
-3.71037e-05
-1.94888e-05
-5.7746e-06
1.8417e-06
2.90111e-06
0
0
-3.0362e-06
-2.28699e-05
-5.79041e-05
-0.000103075
-0.000153354
-0.000204294
-0.0002518
-0.000291887
-0.000320571
-0.000334156
-0.000329774
-0.00030621
-0.000264761
-0.000209576
-0.000147616
-8.7797e-05
-3.90963e-05
-8.2681e-06
2.70849e-06
0
0
-1.38292e-05
-6.22691e-05
-0.000139181
-0.000234695
-0.000339196
-0.000443976
-0.000540883
-0.000621978
-0.000679479
-0.000706336
-0.000697255
-0.000650109
-0.000567385
-0.000456894
-0.000331707
-0.000208659
-0.000105072
-3.45009e-05
-2.1304e-06
0
0
-3.0778e-05
-0.000120224
-0.000254269
-0.000416428
-0.000591416
-0.000765462
-0.000925647
-0.00105939
-0.00115443
-0.00119973
-0.00118694
-0.0011125
-0.00097974
-0.000800154
-0.000593621
-0.000386489
-0.000206919
-7.82761e-05
-1.18132e-05
0
0
-5.32026e-05
-0.000194972
-0.000400107
-0.000643734
-0.000903956
-0.00116141
-0.00139802
-0.00159619
-0.00173875
-0.00181003
-0.00179786
-0.00169619
-0.00150814
-0.00124813
-0.000942846
-0.000629519
-0.000350115
-0.000141977
-2.66612e-05
0
0
-8.02892e-05
-0.000284164
-0.000572562
-0.000910689
-0.0012693
-0.00162317
-0.00194897
-0.00222398
-0.00242585
-0.00253368
-0.00253053
-0.00240629
-0.00216213
-0.00181364
-0.00139345
-0.00095046
-0.000543737
-0.000230159
-4.77664e-05
0
0
-0.000111054
-0.000384859
-0.000766374
-0.00120971
-0.00167779
-0.00213947
-0.00256639
-0.00293086
-0.00320531
-0.00336322
-0.00338163
-0.00324484
-0.00294949
-0.00250963
-0.00196157
-0.00136551
-0.000800566
-0.000349979
-7.71799e-05
0
0
-0.000144315
-0.000493496
-0.00097508
-0.00153126
-0.00211691
-0.00269519
-0.00323309
-0.00369853
-0.00405897
-0.00428214
-0.00433832
-0.00420441
-0.00386976
-0.0033432
-0.00266081
-0.00189162
-0.00113609
-0.000511186
-0.000118027
0
0
-0.000178731
-0.000606014
-0.00119115
-0.00186392
-0.00257111
-0.00327059
-0.00392547
-0.00450007
-0.0049577
-0.00526078
-0.00537259
-0.00526143
-0.0049068
-0.00430808
-0.00349557
-0.00254166
-0.00156615
-0.000725666
-0.000174626
0
0
-0.000212957
-0.000718248
-0.00140657
-0.00219495
-0.00302224
-0.00384163
-0.00461336
-0.00529935
-0.00586011
-0.00625388
-0.00643777
-0.00637113
-0.0060222
-0.00537684
-0.00445292
-0.00331758
-0.00210284
-0.00100629
-0.000252641
0
0
-0.000245953
-0.0008267
-0.00161393
-0.00251165
-0.00345105
-0.00438151
-0.00526163
-0.00605259
-0.00671389
-0.0072016
-0.00746864
-0.00746611
-0.00715185
-0.00649507
-0.00549489
-0.00420232
-0.00274841
-0.00136454
-0.000359179
0
0
-0.000277517
-0.000929773
-0.00180824
-0.00280347
-0.00383962
-0.00486344
-0.00583355
-0.00671226
-0.00746037
-0.00803437
-0.00838556
-0.00846101
-0.00820795
-0.00758024
-0.00655375
-0.00515229
-0.00348764
-0.0018064
-0.000502611
0
0
-0.00030913
-0.00102956
-0.00198922
-0.00306466
-0.00417427
-0.00526417
-0.00629503
-0.00723259
-0.00804136
-0.00868113
-0.00910512
-0.00925981
-0.00908667
-0.00852684
-0.00753272
-0.00609301
-0.00428033
-0.00232616
-0.000691544
0
0
-0.00034539
-0.00113434
-0.00216398
-0.0032967
-0.00444803
-0.00556662
-0.00661803
-0.00757385
-0.00840478
-0.0090766
-0.00954779
-0.00976843
-0.0096799
-0.00921666
-0.00831254
-0.00691978
-0.0050556
-0.00289861
-0.000931923
0
0
-0.000396474
-0.00126173
-0.00234901
-0.0035088
-0.00465988
-0.00575861
-0.00677909
-0.00770143
-0.00850463
-0.00916265
-0.00964196
-0.00989998
-0.00988373
-0.00952888
-0.00876054
-0.00750198
-0.00570884
-0.00346998
-0.00122081
0
0
-0.000482045
-0.00144106
-0.00256746
-0.00371049
-0.00480409
-0.00582002
-0.0067454
-0.00757133
-0.00828674
-0.00887516
-0.00931272
-0.00956695
-0.00959517
-0.00934188
-0.00873581
-0.0076871
-0.0060995
-0.00394757
-0.00153589
0
0
-0.000635037
-0.00170533
-0.00282565
-0.00387705
-0.00482943
-0.00567941
-0.00643104
-0.0070878
-0.00764876
-0.008107
-0.00844875
-0.00865283
-0.00868984
-0.00851858
-0.00808264
-0.00729882
-0.00604389
-0.00418599
-0.00182178
0
0
-0.000893919
-0.00202849
-0.00301342
-0.00383573
-0.00452551
-0.00510758
-0.00560084
-0.00601807
-0.00636557
-0.00664358
-0.0068468
-0.00696471
-0.00698176
-0.00687321
-0.00660515
-0.0061193
-0.00530453
-0.00396079
-0.0019419
0
0
-0.00115707
-0.00203568
-0.00259115
-0.00299355
-0.00330185
-0.00354271
-0.00373419
-0.00388801
-0.00401045
-0.00410379
-0.00416738
-0.00419848
-0.00419288
-0.00413981
-0.00402985
-0.00383927
-0.00350829
-0.00286849
-0.00162366
0
0
0
0
0
0
0
0
0
0
0
0
0
0
0
0
0
0
0
0
0
0
0
0
0
0
0
0
0
0
0
0
0
0
0
0
0
0
0
0
0
0
0
0
1.19727e-06
-2.85947e-06
-1.20739e-05
-2.46593e-05
-3.89509e-05
-5.36113e-05
-6.74523e-05
-7.9327e-05
-8.80334e-05
-9.23995e-05
-9.14043e-05
-8.4571e-05
-7.2237e-05
-5.567e-05
-3.71037e-05
-1.94888e-05
-5.7746e-06
1.8417e-06
2.90111e-06
0
0
-3.0362e-06
-2.28699e-05
-5.79041e-05
-0.000103075
-0.000153354
-0.000204294
-0.0002518
-0.000291887
-0.000320571
-0.000334156
-0.000329774
-0.00030621
-0.000264761
-0.000209576
-0.000147616
-8.7797e-05
-3.90963e-05
-8.2681e-06
2.70849e-06
0
0
-1.38292e-05
-6.22691e-05
-0.000139181
-0.000234695
-0.000339196
-0.000443976
-0.000540883
-0.000621978
-0.000679479
-0.000706336
-0.000697255
-0.000650109
-0.000567385
-0.000456894
-0.000331707
-0.000208659
-0.000105072
-3.45009e-05
-2.1304e-06
0
0
-3.0778e-05
-0.000120224
-0.000254269
-0.000416428
-0.000591416
-0.000765462
-0.000925647
-0.00105939
-0.00115443
-0.00119973
-0.00118694
-0.0011125
-0.00097974
-0.000800154
-0.000593621
-0.000386489
-0.000206919
-7.82761e-05
-1.18132e-05
0
0
-5.32026e-05
-0.000194972
-0.000400107
-0.000643734
-0.000903956
-0.00116141
-0.00139802
-0.00159619
-0.00173875
-0.00181003
-0.00179786
-0.00169619
-0.00150814
-0.00124813
-0.000942846
-0.000629519
-0.000350115
-0.000141977
-2.66612e-05
0
0
-8.02892e-05
-0.000284164
-0.000572562
-0.000910689
-0.0012693
-0.00162317
-0.00194897
-0.00222398
-0.00242585
-0.00253368
-0.00253053
-0.00240629
-0.00216213
-0.00181364
-0.00139345
-0.00095046
-0.000543737
-0.000230159
-4.77664e-05
0
0
-0.000111054
-0.000384859
-0.000766374
-0.00120971
-0.00167779
-0.00213947
-0.00256639
-0.00293086
-0.00320531
-0.00336322
-0.00338163
-0.00324484
-0.00294949
-0.00250963
-0.00196157
-0.00136551
-0.000800566
-0.000349979
-7.71799e-05
0
0
-0.000144315
-0.000493496
-0.00097508
-0.00153126
-0.00211691
-0.00269519
-0.00323309
-0.00369853
-0.00405897
-0.00428214
-0.00433832
-0.00420441
-0.00386976
-0.0033432
-0.00266081
-0.00189162
-0.00113609
-0.000511186
-0.000118027
0
0
-0.000178731
-0.000606014
-0.00119115
-0.00186392
-0.00257111
-0.00327059
-0.00392547
-0.00450007
-0.0049577
-0.00526078
-0.00537259
-0.00526143
-0.0049068
-0.00430808
-0.00349557
-0.00254166
-0.00156615
-0.000725666
-0.000174626
0
0
-0.000212957
-0.000718248
-0.00140657
-0.00219495
-0.00302224
-0.00384163
-0.00461336
-0.00529935
-0.00586011
-0.00625388
-0.00643777
-0.00637113
-0.0060222
-0.00537684
-0.00445292
-0.00331758
-0.00210284
-0.00100629
-0.000252641
0
0
-0.000245953
-0.0008267
-0.00161393
-0.00251165
-0.00345105
-0.00438151
-0.00526163
-0.00605259
-0.00671389
-0.0072016
-0.00746864
-0.00746611
-0.00715185
-0.00649507
-0.00549489
-0.00420232
-0.00274841
-0.00136454
-0.000359179
0
0
-0.000277517
-0.000929773
-0.00180824
-0.00280347
-0.00383962
-0.00486344
-0.00583355
-0.00671226
-0.00746037
-0.00803437
-0.00838556
-0.00846101
-0.00820795
-0.00758024
-0.00655375
-0.00515229
-0.00348764
-0.0018064
-0.000502611
0
0
-0.00030913
-0.00102956
-0.00198922
-0.00306466
-0.00417427
-0.00526417
-0.00629503
-0.00723259
-0.00804136
-0.00868113
-0.00910512
-0.00925981
-0.00908667
-0.00852684
-0.00753272
-0.00609301
-0.00428033
-0.00232616
-0.000691544
0
0
-0.00034539
-0.00113434
-0.00216398
-0.0032967
-0.00444803
-0.00556662
-0.00661803
-0.00757385
-0.00840478
-0.0090766
-0.00954779
-0.00976843
-0.0096799
-0.00921666
-0.00831254
-0.00691978
-0.0050556
-0.00289861
-0.000931923
0
0
-0.000396474
-0.00126173
-0.00234901
-0.0035088
-0.00465988
-0.00575861
-0.00677909
-0.00770143
-0.00850463
-0.00916265
-0.00964196
-0.00989998
-0.00988373
-0.00952888
-0.00876054
-0.00750198
-0.00570884
-0.00346998
-0.00122081
0
0
-0.000482045
-0.00144106
-0.00256746
-0.00371049
-0.00480409
-0.00582002
-0.0067454
-0.00757133
-0.00828674
-0.00887516
-0.00931272
-0.00956695
-0.00959517
-0.00934188
-0.00873581
-0.0076871
-0.0060995
-0.00394757
-0.00153589
0
0
-0.000635037
-0.00170533
-0.00282565
-0.00387705
-0.00482943
-0.00567941
-0.00643104
-0.0070878
-0.00764876
-0.008107
-0.00844875
-0.00865283
-0.00868984
-0.00851858
-0.00808264
-0.00729882
-0.00604389
-0.00418599
-0.00182178
0
0
-0.000893919
-0.00202849
-0.00301342
-0.00383573
-0.00452551
-0.00510758
-0.00560084
-0.00601807
-0.00636557
-0.00664358
-0.0068468
-0.00696471
-0.00698176
-0.00687321
-0.00660515
-0.0061193
-0.00530453
-0.00396079
-0.0019419
0
0
-0.00115707
-0.00203568
-0.00259115
-0.00299355
-0.00330185
-0.00354271
-0.00373419
-0.00388801
-0.00401045
-0.00410379
-0.00416738
-0.00419848
-0.00419288
-0.00413981
-0.00402985
-0.00383927
-0.00350829
-0.00286849
-0.00162366
0
0
0
0
0
0
0
0
0
0
0
0
0
0
0
0
0
0
0
0
0
0
)
;

boundaryField
{
    movingWall
    {
        type            calculated;
    }
    fixedWalls
    {
        type            calculated;
    }
    frontAndBack
    {
        type            empty;
    }
}


// ************************************************************************* //
