/*--------------------------------*- C++ -*----------------------------------*\
| =========                 |                                                 |
| \\      /  F ield         | OpenFOAM: The Open Source CFD Toolbox           |
|  \\    /   O peration     | Version:  2506                                  |
|   \\  /    A nd           | Website:  www.openfoam.com                      |
|    \\/     M anipulation  |                                                 |
\*---------------------------------------------------------------------------*/
FoamFile
{
    version     2.0;
    format      ascii;
    arch        "LSB;label=32;scalar=64";
    class       pointScalarField;
    location    "31";
    object      streamFunction;
}
// * * * * * * * * * * * * * * * * * * * * * * * * * * * * * * * * * * * * * //

dimensions      [0 3 -1 0 0 0 0];

internalField   nonuniform List<scalar> 
882
(
0
0
0
0
0
0
0
0
0
0
0
0
0
0
0
0
0
0
0
0
0
0
0.000146109
0.000272512
0.000284192
0.000159062
-0.000137474
-0.000666026
-0.0014575
-0.00243167
-0.00339668
-0.00412658
-0.00445447
-0.00428394
-0.00355366
-0.00237378
-0.000967541
0.000297691
0.00103873
0.000999834
0.000448813
0
0
0.000255104
0.000319251
-3.5559e-05
-0.000919018
-0.0024108
-0.00449885
-0.00697896
-0.009469
-0.0115529
-0.0128913
-0.0132681
-0.0125617
-0.0107412
-0.00794786
-0.00454544
-0.00119999
0.00118492
0.00182773
0.000960922
0
0
0.000117782
-0.000318948
-0.0016362
-0.00398543
-0.00733325
-0.0113863
-0.0156344
-0.0195127
-0.0225482
-0.0243913
-0.024778
-0.0236307
-0.0209026
-0.0166812
-0.0113096
-0.00554192
-0.000674301
0.00173374
0.0012503
0
0
-0.000373193
-0.00184094
-0.0046672
-0.00891754
-0.0143156
-0.0202713
-0.0260716
-0.0311018
-0.034913
-0.0371892
-0.0376534
-0.0362802
-0.0329887
-0.0277647
-0.0208209
-0.0127882
-0.00500302
0.000372462
0.00136687
0
0
-0.00120692
-0.0041253
-0.00876337
-0.015006
-0.0223083
-0.0298594
-0.0368627
-0.042724
-0.0470538
-0.049608
-0.0501973
-0.0487899
-0.0452938
-0.0396142
-0.0317779
-0.0221299
-0.011714
-0.00279695
0.00110645
0
0
-0.00225174
-0.00681062
-0.0132865
-0.0213442
-0.0302198
-0.0389677
-0.0467794
-0.0531206
-0.0576906
-0.0603456
-0.0610175
-0.0596707
-0.0562246
-0.0505536
-0.0425284
-0.0321652
-0.0200184
-0.00795077
-3.2764e-05
0
0
-0.00331625
-0.00946802
-0.0175952
-0.0271564
-0.037229
-0.0467986
-0.055087
-0.0616429
-0.0662688
-0.0689208
-0.0696182
-0.068349
-0.0650519
-0.0596111
-0.0518361
-0.041505
-0.0286511
-0.0143904
-0.00241142
0
0
-0.00421155
-0.0117285
-0.0212068
-0.0319232
-0.0428525
-0.0529575
-0.061511
-0.0681501
-0.0727751
-0.0754196
-0.0761438
-0.0749553
-0.0718153
-0.0666391
-0.0592501
-0.0493278
-0.0364862
-0.0210241
-0.0059337
0
0
-0.00480804
-0.0133526
-0.0238378
-0.035375
-0.0468813
-0.0573251
-0.066034
-0.072723
-0.0773669
-0.080047
-0.0808366
-0.0797506
-0.0767619
-0.0718164
-0.0647937
-0.055382
-0.0429638
-0.0270887
-0.0098098
0
0
-0.00502842
-0.0142114
-0.0253507
-0.0374043
-0.0492593
-0.0599057
-0.0687181
-0.0754651
-0.0801683
-0.0829333
-0.0838366
-0.082893
-0.0800768
-0.0753483
-0.0686426
-0.0597304
-0.0479299
-0.0321736
-0.0133412
0
0
-0.00487048
-0.0142775
-0.0257401
-0.0380368
-0.0500384
-0.0607652
-0.0696317
-0.0764397
-0.0812283
-0.0841112
-0.0851664
-0.0844103
-0.0818168
-0.077346
-0.0709649
-0.0625428
-0.0514553
-0.0361808
-0.0163547
0
0
-0.00439195
-0.0136078
-0.025028
-0.0372867
-0.0492379
-0.0599288
-0.0687961
-0.075651
-0.0805309
-0.0835463
-0.0847786
-0.0842505
-0.0819378
-0.0778084
-0.0718366
-0.0639436
-0.0536529
-0.0391393
-0.0188185
0
0
-0.00367314
-0.0123131
-0.0233516
-0.0352851
-0.0469614
-0.0574616
-0.0662346
-0.0730822
-0.0780263
-0.0811676
-0.0825921
-0.0823364
-0.0803785
-0.0766907
-0.0712535
-0.064045
-0.0546337
-0.0410869
-0.0207573
0
0
-0.00284867
-0.0105866
-0.0209063
-0.032212
-0.0433459
-0.0534363
-0.061952
-0.0686828
-0.0736265
-0.076866
-0.0784876
-0.0785491
-0.0770258
-0.0739058
-0.0691715
-0.0627871
-0.054418
-0.0420911
-0.0222065
0
0
-0.00208772
-0.00872988
-0.0180426
-0.0283985
-0.0386698
-0.0480538
-0.0560626
-0.0624851
-0.0672975
-0.0705617
-0.0723616
-0.0727642
-0.0717654
-0.0693538
-0.0655192
-0.060198
-0.0531038
-0.0422887
-0.0231517
0
0
-0.00154489
-0.00706469
-0.0150886
-0.0241332
-0.0331669
-0.0414872
-0.048675
-0.0545348
-0.0590304
-0.062205
-0.0641344
-0.0648862
-0.0644986
-0.0629444
-0.0602262
-0.0562382
-0.0506347
-0.0414099
-0.0233329
0
0
-0.00141286
-0.0061016
-0.012706
-0.020082
-0.0274373
-0.0342551
-0.0402218
-0.045174
-0.0490815
-0.0519741
-0.0539218
-0.0549851
-0.0552364
-0.0546442
-0.0532083
-0.0507749
-0.0468433
-0.039242
-0.0227082
0
0
-0.0019157
-0.00593185
-0.0110501
-0.0164349
-0.0216982
-0.026604
-0.0309773
-0.034697
-0.0377528
-0.0401565
-0.0419731
-0.0432421
-0.0440194
-0.0442898
-0.0440496
-0.0430829
-0.0407017
-0.0348538
-0.0206813
0
0
-0.00607972
-0.0095688
-0.0123395
-0.014989
-0.0175757
-0.0200026
-0.022203
-0.0241152
-0.0257468
-0.0270838
-0.0281746
-0.0290152
-0.0296711
-0.0301132
-0.0303567
-0.0301712
-0.0288698
-0.0247799
-0.0150593
0
0
0
0
0
0
0
0
0
0
0
0
0
0
0
0
0
0
0
0
0
0
0
0
0
0
0
0
0
0
0
0
0
0
0
0
0
0
0
0
0
0
0
0
0.000146109
0.000272512
0.000284192
0.000159062
-0.000137474
-0.000666026
-0.0014575
-0.00243167
-0.00339668
-0.00412658
-0.00445447
-0.00428394
-0.00355366
-0.00237378
-0.000967541
0.000297691
0.00103873
0.000999834
0.000448813
0
0
0.000255104
0.000319251
-3.5559e-05
-0.000919018
-0.0024108
-0.00449885
-0.00697896
-0.009469
-0.0115529
-0.0128913
-0.0132681
-0.0125617
-0.0107412
-0.00794786
-0.00454544
-0.00119999
0.00118492
0.00182773
0.000960922
0
0
0.000117782
-0.000318948
-0.0016362
-0.00398543
-0.00733325
-0.0113863
-0.0156344
-0.0195127
-0.0225482
-0.0243913
-0.024778
-0.0236307
-0.0209026
-0.0166812
-0.0113096
-0.00554192
-0.000674301
0.00173374
0.0012503
0
0
-0.000373193
-0.00184094
-0.0046672
-0.00891754
-0.0143156
-0.0202713
-0.0260716
-0.0311018
-0.034913
-0.0371892
-0.0376534
-0.0362802
-0.0329887
-0.0277647
-0.0208209
-0.0127882
-0.00500302
0.000372462
0.00136687
0
0
-0.00120692
-0.0041253
-0.00876337
-0.015006
-0.0223083
-0.0298594
-0.0368627
-0.042724
-0.0470538
-0.049608
-0.0501973
-0.0487899
-0.0452938
-0.0396142
-0.0317779
-0.0221299
-0.011714
-0.00279695
0.00110645
0
0
-0.00225174
-0.00681062
-0.0132865
-0.0213442
-0.0302198
-0.0389677
-0.0467794
-0.0531206
-0.0576906
-0.0603456
-0.0610175
-0.0596707
-0.0562246
-0.0505536
-0.0425284
-0.0321652
-0.0200184
-0.00795077
-3.2764e-05
0
0
-0.00331625
-0.00946802
-0.0175952
-0.0271564
-0.037229
-0.0467986
-0.055087
-0.0616429
-0.0662688
-0.0689208
-0.0696182
-0.068349
-0.0650519
-0.0596111
-0.0518361
-0.041505
-0.0286511
-0.0143904
-0.00241142
0
0
-0.00421155
-0.0117285
-0.0212068
-0.0319232
-0.0428525
-0.0529575
-0.061511
-0.0681501
-0.0727751
-0.0754196
-0.0761438
-0.0749553
-0.0718153
-0.0666391
-0.0592501
-0.0493278
-0.0364862
-0.0210241
-0.0059337
0
0
-0.00480804
-0.0133526
-0.0238378
-0.035375
-0.0468813
-0.0573251
-0.066034
-0.072723
-0.0773669
-0.080047
-0.0808366
-0.0797506
-0.0767619
-0.0718164
-0.0647937
-0.055382
-0.0429638
-0.0270887
-0.0098098
0
0
-0.00502842
-0.0142114
-0.0253507
-0.0374043
-0.0492593
-0.0599057
-0.0687181
-0.0754651
-0.0801683
-0.0829333
-0.0838366
-0.082893
-0.0800768
-0.0753483
-0.0686426
-0.0597304
-0.0479299
-0.0321736
-0.0133412
0
0
-0.00487048
-0.0142775
-0.0257401
-0.0380368
-0.0500384
-0.0607652
-0.0696317
-0.0764397
-0.0812283
-0.0841112
-0.0851664
-0.0844103
-0.0818168
-0.077346
-0.0709649
-0.0625428
-0.0514553
-0.0361808
-0.0163547
0
0
-0.00439195
-0.0136078
-0.025028
-0.0372867
-0.0492379
-0.0599288
-0.0687961
-0.075651
-0.0805309
-0.0835463
-0.0847786
-0.0842505
-0.0819378
-0.0778084
-0.0718366
-0.0639436
-0.0536529
-0.0391393
-0.0188185
0
0
-0.00367314
-0.0123131
-0.0233516
-0.0352851
-0.0469614
-0.0574616
-0.0662346
-0.0730822
-0.0780263
-0.0811676
-0.0825921
-0.0823364
-0.0803785
-0.0766907
-0.0712535
-0.064045
-0.0546337
-0.0410869
-0.0207573
0
0
-0.00284867
-0.0105866
-0.0209063
-0.032212
-0.0433459
-0.0534363
-0.061952
-0.0686828
-0.0736265
-0.076866
-0.0784876
-0.0785491
-0.0770258
-0.0739058
-0.0691715
-0.0627871
-0.054418
-0.0420911
-0.0222065
0
0
-0.00208772
-0.00872988
-0.0180426
-0.0283985
-0.0386698
-0.0480538
-0.0560626
-0.0624851
-0.0672975
-0.0705617
-0.0723616
-0.0727642
-0.0717654
-0.0693538
-0.0655192
-0.060198
-0.0531038
-0.0422887
-0.0231517
0
0
-0.00154489
-0.00706469
-0.0150886
-0.0241332
-0.0331669
-0.0414872
-0.048675
-0.0545348
-0.0590304
-0.062205
-0.0641344
-0.0648862
-0.0644986
-0.0629444
-0.0602262
-0.0562382
-0.0506347
-0.0414099
-0.0233329
0
0
-0.00141286
-0.0061016
-0.012706
-0.020082
-0.0274373
-0.0342551
-0.0402218
-0.045174
-0.0490815
-0.0519741
-0.0539218
-0.0549851
-0.0552364
-0.0546442
-0.0532083
-0.0507749
-0.0468433
-0.039242
-0.0227082
0
0
-0.0019157
-0.00593185
-0.0110501
-0.0164349
-0.0216982
-0.026604
-0.0309773
-0.034697
-0.0377528
-0.0401565
-0.0419731
-0.0432421
-0.0440194
-0.0442898
-0.0440496
-0.0430829
-0.0407017
-0.0348538
-0.0206813
0
0
-0.00607972
-0.0095688
-0.0123395
-0.014989
-0.0175757
-0.0200026
-0.022203
-0.0241152
-0.0257468
-0.0270838
-0.0281746
-0.0290152
-0.0296711
-0.0301132
-0.0303567
-0.0301712
-0.0288698
-0.0247799
-0.0150593
0
0
0
0
0
0
0
0
0
0
0
0
0
0
0
0
0
0
0
0
0
0
)
;

boundaryField
{
    movingWall
    {
        type            calculated;
    }
    fixedWalls
    {
        type            calculated;
    }
    frontAndBack
    {
        type            empty;
    }
}


// ************************************************************************* //
