/*--------------------------------*- C++ -*----------------------------------*\
| =========                 |                                                 |
| \\      /  F ield         | OpenFOAM: The Open Source CFD Toolbox           |
|  \\    /   O peration     | Version:  2506                                  |
|   \\  /    A nd           | Website:  www.openfoam.com                      |
|    \\/     M anipulation  |                                                 |
\*---------------------------------------------------------------------------*/
FoamFile
{
    version     2.0;
    format      ascii;
    arch        "LSB;label=32;scalar=64";
    class       volScalarField;
    location    "450";
    object      magR;
}
// * * * * * * * * * * * * * * * * * * * * * * * * * * * * * * * * * * * * * //

dimensions      [0 2 -2 0 0 0 0];

internalField   nonuniform List<scalar> 
1340
(
59.2334
56.6214
53.5797
43.8856
1.7808
1.96131
2.36383
3.28791
0.383869
0.528937
0.633144
1.0807
0.0141603
0.0466215
0.117998
0.429372
0.000602517
0.00164767
0.00387929
0.0833077
7.6151e-05
0.000281025
0.000886242
0.00949135
8.22546e-06
1.45403e-06
7.85684e-08
0.000281706
2.15214e-05
1.57422e-05
1.83009e-06
1.94412e-05
2.84478e-05
3.05152e-05
3.24671e-05
1.22081e-06
2.39506e-05
2.35771e-05
3.97326e-05
1.64642e-05
2.42467e-05
2.41277e-05
3.42673e-05
4.26841e-05
2.24909e-05
2.27377e-05
2.92287e-05
4.66921e-05
2.16339e-05
2.1941e-05
2.69071e-05
4.29099e-05
2.04295e-05
2.06115e-05
2.49124e-05
3.8595e-05
1.93463e-05
1.94147e-05
2.30486e-05
3.48104e-05
1.81846e-05
1.81484e-05
2.11943e-05
3.13812e-05
1.70275e-05
1.68958e-05
1.94204e-05
2.82038e-05
1.5851e-05
1.56308e-05
1.77215e-05
2.52574e-05
1.46712e-05
1.43698e-05
1.60971e-05
2.25339e-05
1.34914e-05
1.31159e-05
1.45508e-05
2.00385e-05
1.2319e-05
1.18765e-05
1.30778e-05
1.77552e-05
1.11603e-05
1.066e-05
1.16805e-05
1.56768e-05
1.00227e-05
9.47153e-06
1.03592e-05
1.37958e-05
8.91402e-06
8.31939e-06
9.11229e-06
1.20968e-05
7.84106e-06
7.2088e-06
7.94376e-06
1.05731e-05
6.81179e-06
6.14589e-06
6.85429e-06
9.21167e-06
5.83418e-06
5.13612e-06
5.84709e-06
8.0043e-06
4.91676e-06
4.18366e-06
4.92517e-06
6.94109e-06
4.06919e-06
3.29255e-06
4.09421e-06
6.0145e-06
3.30403e-06
2.46611e-06
3.36185e-06
5.21827e-06
2.63868e-06
1.70562e-06
2.74015e-06
4.54639e-06
2.10009e-06
1.01354e-06
2.24615e-06
3.99388e-06
1.72687e-06
3.92757e-07
1.90144e-06
3.5548e-06
1.55459e-06
1.87398e-07
1.72057e-06
3.22118e-06
1.57415e-06
6.67243e-07
1.6902e-06
2.98145e-06
1.72001e-06
1.09221e-06
1.76623e-06
2.82062e-06
1.91931e-06
1.45601e-06
1.89706e-06
2.72103e-06
2.12419e-06
1.76119e-06
2.04378e-06
2.66464e-06
2.92144e-06
2.30978e-06
2.01099e-06
2.18312e-06
2.63523e-06
2.96546e-06
2.46456e-06
2.20922e-06
2.30278e-06
2.61956e-06
2.99847e-06
2.58414e-06
2.36009e-06
2.39721e-06
2.6079e-06
3.0141e-06
2.66802e-06
2.46785e-06
2.46449e-06
2.59343e-06
3.00933e-06
2.71777e-06
2.53701e-06
2.5051e-06
2.572e-06
2.98352e-06
2.73612e-06
2.57195e-06
2.52055e-06
2.54125e-06
2.93763e-06
2.7265e-06
2.57707e-06
2.51301e-06
2.50007e-06
2.87349e-06
2.69258e-06
2.5567e-06
2.48531e-06
2.44858e-06
2.79351e-06
2.63805e-06
2.51475e-06
2.44006e-06
2.38731e-06
2.70042e-06
2.56658e-06
2.45507e-06
2.38003e-06
2.31721e-06
2.59677e-06
2.48147e-06
2.38108e-06
2.3079e-06
2.23962e-06
2.48505e-06
2.38568e-06
2.29567e-06
2.2259e-06
2.15562e-06
2.36733e-06
2.28178e-06
2.20148e-06
2.13615e-06
2.06644e-06
2.24533e-06
2.17175e-06
2.10052e-06
2.04028e-06
1.97302e-06
2.1846e-06
2.12042e-06
2.05728e-06
1.99446e-06
1.93966e-06
1.87617e-06
2.04781e-06
1.99375e-06
1.93973e-06
1.88466e-06
1.83547e-06
1.77661e-06
1.91198e-06
1.86652e-06
1.82046e-06
1.77252e-06
1.7289e-06
1.67512e-06
1.77829e-06
1.74016e-06
1.70108e-06
1.65959e-06
1.62137e-06
1.57282e-06
1.64834e-06
1.61644e-06
1.58341e-06
1.54773e-06
1.5146e-06
1.47117e-06
1.52383e-06
1.49723e-06
1.46941e-06
1.43886e-06
1.41039e-06
1.37181e-06
1.40607e-06
1.3839e-06
1.36052e-06
1.33446e-06
1.31017e-06
1.27613e-06
1.29527e-06
1.2768e-06
1.25719e-06
1.23506e-06
1.21446e-06
1.18466e-06
1.19053e-06
1.17515e-06
1.15875e-06
1.14004e-06
1.12273e-06
1.09693e-06
1.10219e-06
1.09022e-06
1.07742e-06
1.06377e-06
1.0481e-06
1.03376e-06
1.01172e-06
1.00312e-06
9.93152e-07
9.82541e-07
9.71277e-07
9.58318e-07
9.4669e-07
9.28165e-07
9.07408e-07
8.99101e-07
8.90353e-07
8.81157e-07
8.7059e-07
8.61438e-07
8.46079e-07
8.16132e-07
8.09224e-07
8.02063e-07
7.94641e-07
7.86145e-07
7.79217e-07
7.6661e-07
7.30576e-07
7.24828e-07
7.18982e-07
7.13053e-07
7.06294e-07
7.01232e-07
6.90864e-07
6.53098e-07
6.48264e-07
6.43474e-07
6.38808e-07
6.33579e-07
6.30151e-07
6.21945e-07
5.88756e-07
5.84427e-07
5.80259e-07
5.76356e-07
5.72087e-07
5.69747e-07
5.63368e-07
5.36987e-07
5.32872e-07
5.2899e-07
5.25418e-07
5.21579e-07
5.19736e-07
5.14349e-07
4.90423e-07
4.86393e-07
4.82622e-07
4.79204e-07
4.75617e-07
4.74028e-07
4.69388e-07
4.45511e-07
4.41595e-07
4.3793e-07
4.34676e-07
4.31326e-07
4.29918e-07
4.25894e-07
4.05291e-07
4.00732e-07
3.966e-07
3.92866e-07
3.89699e-07
3.8671e-07
3.8594e-07
3.84141e-07
3.60335e-07
3.54878e-07
3.49758e-07
3.45036e-07
3.4086e-07
3.36933e-07
3.34329e-07
3.30097e-07
3.03696e-07
2.97918e-07
2.92929e-07
2.88788e-07
2.85762e-07
2.83914e-07
2.86387e-07
2.92162e-07
2.25001e-07
2.13806e-07
2.03583e-07
1.94572e-07
1.86848e-07
1.80367e-07
1.75127e-07
1.67323e-07
1.79997e-07
1.7673e-07
1.75798e-07
1.77425e-07
1.82738e-07
1.92287e-07
2.15046e-07
2.4857e-07
2.00563e-07
1.99484e-07
1.98158e-07
1.963e-07
1.94816e-07
2.00475e-07
2.35953e-07
2.74404e-07
5.40477e-07
5.60643e-07
5.78196e-07
5.94389e-07
6.13071e-07
6.40583e-07
7.08508e-07
7.65201e-07
1.01492e-06
1.01809e-06
1.02036e-06
1.02186e-06
1.02279e-06
1.02587e-06
1.04601e-06
9.96648e-07
1.93988e-06
1.94058e-06
1.93954e-06
1.93745e-06
1.93293e-06
1.93027e-06
1.9139e-06
1.77561e-06
12.8379
3.47078
0.920125
0.284752
0.04974
0.00307774
0.000289953
2.22341e-05
1.61211e-06
2.76777e-05
4.91747e-05
4.93671e-05
4.48136e-05
4.04935e-05
3.67273e-05
3.32903e-05
3.00843e-05
2.71035e-05
2.43509e-05
2.18149e-05
1.94914e-05
1.73717e-05
1.54467e-05
1.37074e-05
1.21423e-05
1.07423e-05
9.49676e-06
8.39548e-06
7.42866e-06
6.5868e-06
5.86068e-06
5.24123e-06
4.71896e-06
4.28471e-06
3.92867e-06
3.64041e-06
3.4094e-06
3.225e-06
3.07699e-06
2.95617e-06
2.85448e-06
2.76523e-06
2.68335e-06
2.60486e-06
2.52699e-06
2.44802e-06
2.36691e-06
2.2831e-06
2.19666e-06
2.1076e-06
2.01625e-06
1.92284e-06
1.82758e-06
1.73076e-06
1.6328e-06
1.53449e-06
1.43704e-06
1.34186e-06
1.25015e-06
1.16235e-06
1.07798e-06
9.95857e-07
9.15189e-07
8.35832e-07
7.58919e-07
6.85359e-07
6.1849e-07
5.61427e-07
5.13528e-07
4.69382e-07
4.26334e-07
3.85857e-07
3.30472e-07
2.98745e-07
1.64204e-07
2.71146e-07
2.49769e-07
7.51914e-07
8.81317e-07
1.57784e-06
7.72683
2.50183
0.474294
0.0742481
0.00755032
0.000465368
8.09711e-05
1.32953e-07
2.463e-06
2.32314e-05
2.88215e-05
2.80337e-05
2.63403e-05
2.48314e-05
2.34479e-05
2.20856e-05
2.07248e-05
1.93669e-05
1.80322e-05
1.67249e-05
1.5456e-05
1.42318e-05
1.30592e-05
1.19492e-05
1.09042e-05
9.92783e-06
9.02424e-06
8.19504e-06
7.43952e-06
6.75728e-06
6.14625e-06
5.60365e-06
5.12572e-06
4.7081e-06
4.34624e-06
4.03426e-06
3.76681e-06
3.53788e-06
3.34145e-06
3.17192e-06
3.02399e-06
2.89268e-06
2.77409e-06
2.66453e-06
2.56127e-06
2.46216e-06
2.36558e-06
2.27044e-06
2.17602e-06
2.08176e-06
1.98743e-06
1.89275e-06
1.79751e-06
1.70167e-06
1.60542e-06
1.50934e-06
1.41442e-06
1.32194e-06
1.23288e-06
1.14753e-06
1.06536e-06
9.85213e-07
9.06356e-07
8.28743e-07
7.53527e-07
6.81499e-07
6.15866e-07
5.59508e-07
5.12271e-07
4.68831e-07
4.26173e-07
3.86129e-07
3.30661e-07
3.00473e-07
1.62679e-07
2.84471e-07
2.18769e-07
7.55074e-07
8.74111e-07
1.61493e-06
4.87843
1.5788
0.21318
0.0137654
0.000546652
9.97686e-05
8.71747e-06
3.87115e-08
7.56068e-06
1.75716e-05
1.73526e-05
1.64616e-05
1.55559e-05
1.48094e-05
1.41253e-05
1.34616e-05
1.2819e-05
1.21928e-05
1.15806e-05
1.09908e-05
1.04166e-05
9.85905e-06
9.31477e-06
8.78843e-06
8.27833e-06
7.78297e-06
7.30507e-06
6.84655e-06
6.40756e-06
5.99057e-06
5.59699e-06
5.22818e-06
4.88535e-06
4.56902e-06
4.27942e-06
4.01575e-06
3.77724e-06
3.56217e-06
3.36857e-06
3.1941e-06
3.03644e-06
2.89294e-06
2.76135e-06
2.63932e-06
2.52491e-06
2.41652e-06
2.31264e-06
2.21228e-06
2.11453e-06
2.01868e-06
1.92423e-06
1.83067e-06
1.73756e-06
1.64463e-06
1.5519e-06
1.45981e-06
1.36914e-06
1.28102e-06
1.19621e-06
1.11488e-06
1.0364e-06
9.59669e-07
8.84001e-07
8.09426e-07
7.37124e-07
6.67794e-07
6.04425e-07
5.49783e-07
5.04162e-07
4.62415e-07
4.21041e-07
3.8217e-07
3.27864e-07
2.98666e-07
1.64787e-07
2.90017e-07
2.04209e-07
7.48912e-07
8.56565e-07
1.61888e-06
2.93901
0.791042
0.0571919
0.000552251
0.000124269
2.57015e-08
1.2114e-07
2.15165e-06
9.83172e-06
1.22847e-05
1.14293e-05
1.10033e-05
1.05818e-05
1.02251e-05
9.86581e-06
9.50065e-06
9.14035e-06
8.78308e-06
8.43056e-06
8.08961e-06
7.75531e-06
7.43245e-06
7.11865e-06
6.81366e-06
6.51849e-06
6.23166e-06
5.95231e-06
5.68086e-06
5.41666e-06
5.15996e-06
4.91089e-06
4.66974e-06
4.43752e-06
4.21453e-06
4.00155e-06
3.79933e-06
3.60811e-06
3.42815e-06
3.25943e-06
3.10148e-06
2.95388e-06
2.81585e-06
2.68634e-06
2.56448e-06
2.44927e-06
2.33977e-06
2.23502e-06
2.13437e-06
2.03706e-06
1.94246e-06
1.85005e-06
1.75921e-06
1.66947e-06
1.58045e-06
1.49203e-06
1.40455e-06
1.3187e-06
1.23538e-06
1.15524e-06
1.07832e-06
1.00392e-06
9.30979e-07
8.58889e-07
7.87713e-07
7.18659e-07
6.52351e-07
5.91609e-07
5.39151e-07
4.95486e-07
4.55611e-07
4.15736e-07
3.78289e-07
3.25503e-07
2.974e-07
1.6969e-07
2.94019e-07
1.97606e-07
7.41317e-07
8.34506e-07
1.60679e-06
1.45368
0.25122
0.00346062
0.000361312
0
1.5699e-08
2.85994e-07
5.39748e-06
9.16644e-06
8.94538e-06
8.46678e-06
8.32464e-06
8.16635e-06
8.02806e-06
7.87092e-06
7.70263e-06
7.52359e-06
7.33127e-06
7.13034e-06
6.92085e-06
6.7027e-06
6.47916e-06
6.25333e-06
6.02383e-06
5.79425e-06
5.5676e-06
5.34264e-06
5.12211e-06
4.90687e-06
4.69729e-06
4.49399e-06
4.297e-06
4.10715e-06
3.9239e-06
3.74752e-06
3.57848e-06
3.41624e-06
3.26118e-06
3.1131e-06
2.97183e-06
2.83746e-06
2.70954e-06
2.5876e-06
2.47151e-06
2.36069e-06
2.25469e-06
2.15298e-06
2.05517e-06
1.96075e-06
1.86922e-06
1.78014e-06
1.69289e-06
1.60703e-06
1.52216e-06
1.43811e-06
1.35517e-06
1.27393e-06
1.19515e-06
1.11936e-06
1.0465e-06
9.75846e-07
9.06393e-07
8.37614e-07
7.69603e-07
7.03589e-07
6.40105e-07
5.81808e-07
5.31376e-07
4.89489e-07
4.51223e-07
4.12651e-07
3.76453e-07
3.25063e-07
2.9817e-07
1.764e-07
3.00403e-07
1.92821e-07
7.41614e-07
8.22947e-07
1.60519e-06
0.489048
0.0348893
0.000111911
2.65278e-05
9.064e-10
1.6957e-08
3.08791e-06
7.01887e-06
7.56632e-06
7.0146e-06
6.84328e-06
6.78289e-06
6.69877e-06
6.61519e-06
6.51651e-06
6.41158e-06
6.29589e-06
6.17091e-06
6.04022e-06
5.90185e-06
5.7572e-06
5.60661e-06
5.45227e-06
5.29272e-06
5.12993e-06
4.96546e-06
4.79798e-06
4.6302e-06
4.46243e-06
4.29539e-06
4.13022e-06
3.96733e-06
3.80807e-06
3.65245e-06
3.50108e-06
3.3547e-06
3.21296e-06
3.07649e-06
2.94499e-06
2.81848e-06
2.69714e-06
2.58048e-06
2.46835e-06
2.36079e-06
2.2573e-06
2.15777e-06
2.06185e-06
1.9693e-06
1.87983e-06
1.79303e-06
1.70858e-06
1.62591e-06
1.54467e-06
1.46447e-06
1.38513e-06
1.30693e-06
1.2304e-06
1.1562e-06
1.08474e-06
1.01588e-06
9.48922e-07
8.82915e-07
8.17407e-07
7.52557e-07
6.8958e-07
6.2891e-07
5.73015e-07
5.24563e-07
4.84431e-07
4.47714e-07
4.10426e-07
3.75446e-07
3.25471e-07
2.99947e-07
1.84037e-07
3.08159e-07
1.87196e-07
7.44922e-07
0.0704804
0.000204027
2.51396e-05
1.19919e-06
1.03097e-07
1.7767e-06
5.12865e-06
5.90638e-06
5.55581e-06
5.32826e-06
5.32577e-06
5.31459e-06
5.28849e-06
5.2569e-06
5.21386e-06
5.16508e-06
5.1062e-06
5.03849e-06
4.96454e-06
4.88296e-06
4.79518e-06
4.70116e-06
4.6012e-06
4.49678e-06
4.3888e-06
4.27669e-06
4.16124e-06
4.04422e-06
3.92495e-06
3.8044e-06
3.68318e-06
3.56142e-06
3.44007e-06
3.31938e-06
3.19977e-06
3.08183e-06
2.96573e-06
2.85214e-06
2.74094e-06
2.63255e-06
2.52722e-06
2.42468e-06
2.32526e-06
2.22886e-06
2.13529e-06
2.04471e-06
1.95684e-06
1.87163e-06
1.7889e-06
1.70839e-06
1.62987e-06
1.5529e-06
1.47717e-06
1.40233e-06
1.32832e-06
1.25534e-06
1.1839e-06
1.11459e-06
1.0477e-06
9.83075e-07
9.20011e-07
8.57662e-07
7.95634e-07
7.34153e-07
6.74422e-07
6.16743e-07
5.63402e-07
5.17098e-07
4.78882e-07
4.43828e-07
4.07971e-07
3.74336e-07
3.25963e-07
3.02037e-07
1.92303e-07
3.16022e-07
0.000731148
0.000290428
2.56705e-09
5.00746e-08
9.43438e-07
3.84028e-06
4.62862e-06
4.3897e-06
4.18594e-06
4.17176e-06
4.20523e-06
4.21258e-06
4.21331e-06
4.20743e-06
4.19348e-06
4.17356e-06
4.14595e-06
4.11153e-06
4.07134e-06
4.02484e-06
3.97287e-06
3.91572e-06
3.85309e-06
3.78636e-06
3.71615e-06
3.64163e-06
3.56396e-06
3.48394e-06
3.40112e-06
3.31636e-06
3.22994e-06
3.14188e-06
3.05291e-06
2.96314e-06
2.87277e-06
2.78227e-06
2.69177e-06
2.60171e-06
2.51217e-06
2.42347e-06
2.3359e-06
2.24949e-06
2.16456e-06
2.08115e-06
1.99932e-06
1.91933e-06
1.84103e-06
1.76456e-06
1.68984e-06
1.61674e-06
1.54514e-06
1.4747e-06
1.40519e-06
1.33634e-06
1.26813e-06
1.20079e-06
1.13477e-06
1.0706e-06
1.00851e-06
9.48308e-07
8.8933e-07
8.30823e-07
7.72479e-07
7.14555e-07
6.58257e-07
6.03734e-07
5.53112e-07
5.09142e-07
4.72981e-07
4.3969e-07
4.05398e-07
3.73219e-07
3.26659e-07
3.04514e-07
0.00032266
0
4.91695e-09
8.83326e-08
3.09798e-06
3.74852e-06
3.54863e-06
3.37823e-06
3.36533e-06
3.4115e-06
3.44331e-06
3.4616e-06
3.47546e-06
3.48252e-06
3.48329e-06
3.4778e-06
3.4659e-06
3.44851e-06
3.42559e-06
3.39721e-06
3.36379e-06
3.32599e-06
3.28415e-06
3.23799e-06
3.18871e-06
3.13634e-06
3.08092e-06
3.02304e-06
2.96284e-06
2.90074e-06
2.83667e-06
2.77091e-06
2.7041e-06
2.6358e-06
2.56651e-06
2.49656e-06
2.42581e-06
2.35467e-06
2.28322e-06
2.21159e-06
2.14002e-06
2.06867e-06
1.99762e-06
1.92708e-06
1.85717e-06
1.7881e-06
1.71987e-06
1.65267e-06
1.58652e-06
1.5214e-06
1.45723e-06
1.39379e-06
1.33092e-06
1.26843e-06
1.20632e-06
1.14485e-06
1.08444e-06
1.02555e-06
9.68358e-07
9.12678e-07
8.57886e-07
8.0333e-07
7.4879e-07
6.94545e-07
6.41791e-07
5.90524e-07
5.42727e-07
5.01215e-07
4.67174e-07
4.35682e-07
4.0304e-07
0
0
1.27767e-07
2.1684e-06
3.17649e-06
2.85018e-06
2.7407e-06
2.73296e-06
2.78259e-06
2.82699e-06
2.85689e-06
2.88168e-06
2.90194e-06
2.91618e-06
2.9252e-06
2.92933e-06
2.92784e-06
2.92127e-06
2.91e-06
2.89402e-06
2.87367e-06
2.84927e-06
2.8213e-06
2.78962e-06
2.75501e-06
2.71768e-06
2.6775e-06
2.63511e-06
2.59064e-06
2.54437e-06
2.49609e-06
2.4463e-06
2.39538e-06
2.34277e-06
2.28914e-06
2.23453e-06
2.17887e-06
2.12249e-06
2.06537e-06
2.00764e-06
1.94947e-06
1.89092e-06
1.83215e-06
1.77325e-06
1.71433e-06
1.65562e-06
1.59712e-06
1.53905e-06
1.48146e-06
1.42437e-06
1.36776e-06
1.31148e-06
1.25542e-06
1.19944e-06
1.1436e-06
1.08812e-06
1.0334e-06
9.79847e-07
9.27609e-07
8.765e-07
8.25961e-07
7.75439e-07
7.24788e-07
6.74322e-07
6.25195e-07
5.77259e-07
0
6.99716e-08
1.4469e-06
2.58432e-06
2.33384e-06
2.20677e-06
2.23216e-06
2.27701e-06
2.32498e-06
2.36008e-06
2.3895e-06
2.41557e-06
2.43703e-06
2.45408e-06
2.46645e-06
2.47481e-06
2.47871e-06
2.47807e-06
2.47371e-06
2.4655e-06
2.45375e-06
2.43858e-06
2.42035e-06
2.39922e-06
2.3756e-06
2.34958e-06
2.32115e-06
2.29087e-06
2.25871e-06
2.22486e-06
2.1893e-06
2.15228e-06
2.114e-06
2.07424e-06
2.03336e-06
1.99135e-06
1.9482e-06
1.90414e-06
1.85908e-06
1.81316e-06
1.76651e-06
1.71912e-06
1.67113e-06
1.6226e-06
1.57365e-06
1.52446e-06
1.47504e-06
1.42561e-06
1.37622e-06
1.32693e-06
1.27774e-06
1.22855e-06
1.17927e-06
1.12981e-06
1.08023e-06
1.03075e-06
9.81733e-07
9.33527e-07
8.86253e-07
8.39739e-07
7.93501e-07
6.37514e-08
1.05036e-06
2.14271e-06
1.91573e-06
1.79981e-06
1.83263e-06
1.88318e-06
1.9263e-06
1.96302e-06
1.99336e-06
2.02107e-06
2.0455e-06
2.06603e-06
2.08311e-06
2.09603e-06
2.10564e-06
2.11165e-06
2.11384e-06
2.11306e-06
2.10905e-06
2.10219e-06
2.09249e-06
2.08044e-06
2.06602e-06
2.04956e-06
2.03121e-06
2.01096e-06
1.98922e-06
1.96595e-06
1.94129e-06
1.91522e-06
1.88796e-06
1.85953e-06
1.82982e-06
1.79909e-06
1.76726e-06
1.73433e-06
1.70047e-06
1.66551e-06
1.62959e-06
1.59282e-06
1.5551e-06
1.51653e-06
1.47721e-06
1.43718e-06
1.39658e-06
1.35548e-06
1.31403e-06
1.27232e-06
1.2304e-06
1.18831e-06
1.14594e-06
1.10325e-06
1.06016e-06
1.08243e-06
1.55859e-06
1.62391e-06
1.47591e-06
1.52378e-06
1.57164e-06
1.61144e-06
1.64486e-06
1.67463e-06
1.7013e-06
1.72619e-06
1.74777e-06
1.76612e-06
1.78173e-06
1.79402e-06
1.80353e-06
1.80998e-06
1.81351e-06
1.81451e-06
1.81294e-06
1.80904e-06
1.80297e-06
1.7948e-06
1.78487e-06
1.77335e-06
1.76015e-06
1.74559e-06
1.7298e-06
1.7128e-06
1.69467e-06
1.67544e-06
1.6553e-06
1.63411e-06
1.61193e-06
1.58892e-06
1.56488e-06
1.53996e-06
1.5141e-06
1.48725e-06
1.45952e-06
1.43083e-06
1.40118e-06
)
;

boundaryField
{
    inlet
    {
        type            calculated;
        value           nonuniform List<scalar> 
13
(
6.56493e-06
6.6528e-06
6.72999e-06
6.7993e-06
6.86614e-06
6.93445e-06
7.02313e-06
7.05012e-06
6.98788e-06
6.9515e-06
6.89965e-06
6.85421e-06
6.81747e-06
)
;
    }
    outlet
    {
        type            calculated;
        value           nonuniform List<scalar> 0();
    }
    walls
    {
        type            calculated;
        value           nonuniform List<scalar> 4(1.01147 0.960055 0.889623 0.707857);
    }
    frontAndBack
    {
        type            empty;
    }
    procBoundary2to1
    {
        type            processor;
        value           nonuniform List<scalar> 
84
(
61.0188
1.61011
0.250405
0.0026338
0.000180435
1.66964e-05
2.74335e-05
2.57863e-05
2.81678e-05
2.45704e-05
2.4554e-05
2.31781e-05
2.23687e-05
2.12885e-05
2.02753e-05
1.92026e-05
1.81222e-05
1.70197e-05
1.5906e-05
1.47863e-05
1.36666e-05
1.25537e-05
1.14558e-05
1.03816e-05
9.33983e-06
8.33965e-06
7.39108e-06
6.50464e-06
5.69107e-06
4.96241e-06
4.33074e-06
3.80749e-06
3.40179e-06
3.11614e-06
2.94299e-06
2.86313e-06
2.85034e-06
2.87745e-06
2.87745e-06
3.66361e-06
3.5858e-06
3.51578e-06
3.44543e-06
3.3694e-06
3.28466e-06
3.18996e-06
3.08531e-06
2.97169e-06
2.85047e-06
2.72329e-06
2.5918e-06
2.45744e-06
2.3214e-06
2.3214e-06
2.24863e-06
2.10118e-06
1.95639e-06
1.81519e-06
1.67893e-06
1.54915e-06
1.427e-06
1.31259e-06
1.2049e-06
1.2049e-06
1.11353e-06
1.01264e-06
9.1544e-07
8.2293e-07
7.36368e-07
6.58077e-07
5.93286e-07
5.41364e-07
4.94739e-07
4.49736e-07
4.49736e-07
4.10198e-07
3.66044e-07
3.10215e-07
2.36883e-07
1.85457e-07
2.0203e-07
5.1754e-07
1.01028e-06
1.93666e-06
)
;
    }
    procBoundary2to3
    {
        type            processor;
        value           nonuniform List<scalar> 
88
(
8.17021e-07
1.6082e-06
1.82045e-07
8.17021e-07
7.48069e-07
2.01321e-07
1.82045e-07
3.23698e-07
3.72366e-07
3.27808e-07
2.01321e-07
3.07549e-07
5.32373e-07
4.93408e-07
4.61528e-07
4.31856e-07
3.72366e-07
4.0093e-07
7.47081e-07
7.00404e-07
6.538e-07
6.08379e-07
5.32373e-07
5.63838e-07
1.01674e-06
9.73154e-07
9.29751e-07
8.86821e-07
8.44463e-07
8.02531e-07
7.47081e-07
7.60608e-07
1.37062e-06
1.33919e-06
1.30691e-06
1.27387e-06
1.2402e-06
1.20596e-06
1.17125e-06
1.13614e-06
1.10066e-06
1.06473e-06
1.02831e-06
1.01674e-06
9.91304e-07
1.38767e-06
1.24128e-06
1.27028e-06
1.26984e-06
1.32776e-06
1.35876e-06
1.38917e-06
1.41564e-06
1.44066e-06
1.46369e-06
1.48458e-06
1.50279e-06
1.51844e-06
1.53205e-06
1.54289e-06
1.55133e-06
1.55744e-06
1.56133e-06
1.56314e-06
1.56291e-06
1.56078e-06
1.55697e-06
1.55161e-06
1.5448e-06
1.53664e-06
1.52731e-06
1.51693e-06
1.50547e-06
1.49314e-06
1.47989e-06
1.46582e-06
1.45097e-06
1.4353e-06
1.4189e-06
1.40173e-06
1.38375e-06
1.36505e-06
1.34548e-06
1.32507e-06
1.30386e-06
1.28173e-06
1.37062e-06
1.25871e-06
)
;
    }
    procBoundary2to6
    {
        type            processor;
        value           nonuniform List<scalar> 
13
(
18.5821
13.4745
8.78729
5.76353
3.49913
1.74491
0.577545
0.0766688
0.000658788
0.000162621
0
0
7.6965e-08
)
;
    }
}


// ************************************************************************* //
