/*--------------------------------*- C++ -*----------------------------------*\
| =========                 |                                                 |
| \\      /  F ield         | OpenFOAM: The Open Source CFD Toolbox           |
|  \\    /   O peration     | Version:  2506                                  |
|   \\  /    A nd           | Website:  www.openfoam.com                      |
|    \\/     M anipulation  |                                                 |
\*---------------------------------------------------------------------------*/
FoamFile
{
    version     2.0;
    format      ascii;
    arch        "LSB;label=32;scalar=64";
    class       volScalarField;
    location    "400";
    object      turbulenceProperties:L;
}
// * * * * * * * * * * * * * * * * * * * * * * * * * * * * * * * * * * * * * //

dimensions      [0 1 0 0 0 0 0];

internalField   nonuniform List<scalar> 
1340
(
0.00952016
0.00948431
0.00945685
0.0103272
0.0102811
0.0102428
0.0102184
0.0102084
0.0111651
0.0111084
0.0110586
0.0110217
0.0109979
0.0109887
0.0109984
0.0120381
0.0119706
0.0119094
0.0118602
0.0118231
0.0117993
0.0117937
0.0118078
0.0129479
0.0128693
0.0127963
0.0127346
0.0126836
0.0126452
0.0126242
0.0126217
0.0126396
0.0138974
0.013807
0.0137222
0.0136478
0.0135827
0.0135298
0.0134935
0.0134747
0.0134756
0.0148886
0.0147864
0.0146894
0.0146017
0.0145224
0.0144546
0.0144027
0.0143676
0.0143513
0.014357
0.0159244
0.0158101
0.0157004
0.0155991
0.0155053
0.0154223
0.0153546
0.0153033
0.0152701
0.0152581
0.0152693
0.0170077
0.016881
0.0167577
0.0166428
0.0165338
0.0164354
0.0163516
0.0162838
0.0162333
0.0162036
0.016196
0.0181416
0.0180015
0.0178647
0.0177351
0.0176108
0.0174962
0.0173963
0.0173115
0.0172438
0.0171963
0.0171705
0.0171683
0.0193289
0.019175
0.0190239
0.0188794
0.0187389
0.018608
0.0184913
0.0183893
0.0183042
0.0182387
0.0181943
0.0181728
0.0205728
0.0204047
0.0202386
0.0200786
0.0199213
0.0197737
0.0196397
0.0195202
0.0194171
0.0193335
0.0192703
0.0192296
0.0192138
0.0218771
0.0216937
0.0215124
0.0213357
0.0211614
0.0209963
0.0208445
0.0207069
0.0205856
0.0204836
0.0204016
0.0203414
0.0203056
0.0232448
0.0230459
0.0228483
0.0226545
0.0224624
0.022279
0.022109
0.0219528
0.0218129
0.0216919
0.0215907
0.0215108
0.0214547
0.021424
0.0246801
0.0244649
0.0242501
0.0240387
0.0238279
0.0236257
0.0234367
0.0232615
0.0231024
0.0229622
0.0228414
0.0227418
0.0226651
0.0226131
0.0261868
0.0259547
0.0257216
0.0254919
0.0252617
0.0250399
0.0248313
0.0246363
0.0244575
0.0242976
0.0241568
0.0240369
0.0239395
0.0238664
0.0277691
0.0275192
0.0272673
0.0270182
0.0267678
0.0265256
0.0262969
0.0260812
0.0258822
0.0257019
0.0255408
0.0254002
0.0252819
0.0251872
0.0251181
0.0294314
0.0291626
0.0288914
0.028622
0.0283506
0.0280874
0.0278373
0.0276005
0.0273804
0.0271792
0.0269972
0.0268355
0.0266958
0.0265791
0.0264876
0.0311786
0.0308898
0.0305984
0.0303078
0.0300142
0.0297292
0.0294569
0.0291984
0.0289563
0.0287336
0.0285301
0.028347
0.0281854
0.0280466
0.0279325
0.0330151
0.0327059
0.032393
0.0320805
0.031764
0.0314559
0.0311608
0.0308796
0.030615
0.03037
0.0301444
0.029939
0.0297551
0.0295936
0.0294562
0.029345
0.0349463
0.0346158
0.0342806
0.0339449
0.0336048
0.0332725
0.0329536
0.0326486
0.0323608
0.0320926
0.0318441
0.0316159
0.0314093
0.0312246
0.031064
0.0309287
0.036978
0.036625
0.0362665
0.0359067
0.0355416
0.0351844
0.0348407
0.0345108
0.0341987
0.0339067
0.0336346
0.0333831
0.0331531
0.0329449
0.03276
0.0326002
0.0394634
0.0391157
0.0387395
0.0383566
0.0379717
0.0375805
0.0371972
0.0368276
0.0364719
0.0361348
0.035818
0.0355215
0.0352459
0.0349917
0.0347593
0.03455
0.0343655
0.0342081
0.0417358
0.0413658
0.0409654
0.0405569
0.0401457
0.0397274
0.0393168
0.0389201
0.0385377
0.0381743
0.0378318
0.0375101
0.0372095
0.0369306
0.0366735
0.0364392
0.0362294
0.0360459
0.0441282
0.0437349
0.0433093
0.042874
0.0424354
0.0419886
0.0415496
0.0411245
0.0407143
0.0403231
0.0399542
0.0396063
0.0392799
0.0389755
0.0386929
0.0384332
0.0381976
0.037988
0.0466475
0.04623
0.0457781
0.045315
0.0448476
0.0443711
0.0439024
0.0434479
0.0430081
0.0425885
0.0421918
0.0418166
0.0414635
0.0411328
0.0408243
0.0405385
0.0402764
0.0400404
0.0398327
0.0493009
0.0488586
0.0483792
0.0478871
0.0473895
0.0468821
0.046382
0.0458963
0.045426
0.0449771
0.0445513
0.0441478
0.0437672
0.0434094
0.0430739
0.0427612
0.0424726
0.0422096
0.0419747
0.0520967
0.0516285
0.0511205
0.0505981
0.0500691
0.049529
0.0489962
0.0484778
0.0479761
0.0474958
0.0470397
0.0466068
0.0461975
0.0458118
0.0454485
0.0451084
0.0447926
0.0445024
0.04424
0.0550434
0.0545481
0.0540104
0.0534567
0.0528944
0.0523202
0.0517531
0.0512009
0.0506655
0.0501524
0.0496646
0.0492014
0.0487624
0.0483475
0.0479555
0.0475874
0.0472436
0.0469257
0.0466357
0.0581499
0.0576266
0.057058
0.0564714
0.0558745
0.0552643
0.0546611
0.0540732
0.0535022
0.0529553
0.0524347
0.0519392
0.0514692
0.051024
0.0506029
0.0502059
0.0498335
0.0494872
0.0491695
0.0614257
0.0608736
0.0602732
0.0596517
0.0590188
0.0583707
0.0577296
0.0571037
0.0564959
0.055913
0.0553575
0.0548285
0.0543261
0.0538498
0.0533982
0.0529715
0.0525699
0.0521951
0.0518493
0.0515353
0.0648812
0.0642993
0.0636659
0.063008
0.062337
0.0616492
0.060968
0.0603021
0.059655
0.0590341
0.0584421
0.0578783
0.0573423
0.0568334
0.0563503
0.0558929
0.0554616
0.0550578
0.0546834
0.0543416
0.0685278
0.0679152
0.0672474
0.0665513
0.0658402
0.0651105
0.0643865
0.0636785
0.06299
0.0623292
0.0616988
0.0610981
0.0605266
0.0599838
0.0594679
0.0589791
0.0585173
0.0580838
0.0576806
0.0573113
0.0723772
0.071733
0.0710293
0.0702933
0.0695396
0.0687655
0.0679964
0.0672435
0.0665111
0.0658076
0.0651364
0.0644967
0.0638885
0.0633101
0.0627603
0.0622389
0.0617458
0.0612821
0.0608502
0.0604529
0.0764423
0.0757659
0.0750245
0.0742467
0.0734479
0.0726265
0.0718093
0.0710085
0.070229
0.0694803
0.068766
0.0680853
0.0674378
0.0668225
0.0662373
0.0656822
0.0651568
0.0646625
0.0642011
0.0637762
0.080737
0.0800275
0.0792468
0.0784248
0.0775784
0.0767065
0.0758376
0.0749855
0.0741557
0.0733589
0.0725985
0.0718739
0.0711851
0.0705309
0.0699088
0.0693187
0.0687602
0.0682344
0.0677435
0.0672909
0.0668814
0.0852767
0.0845328
0.0837114
0.0828422
0.0819452
0.0810191
0.0800949
0.0791875
0.0783035
0.0774547
0.0766451
0.0758739
0.0751417
0.0744461
0.0737853
0.0731586
0.072566
0.0720083
0.0714875
0.0710074
0.0705726
0.0900774
0.0892982
0.088434
0.087515
0.0865635
0.0855792
0.0845952
0.0836276
0.0826852
0.0817808
0.0809182
0.0800974
0.0793184
0.0785792
0.0778776
0.0772129
0.0765847
0.0759938
0.0754427
0.0749349
0.0744752
0.095157
0.0943415
0.0934323
0.0924604
0.0914502
0.0904028
0.0893536
0.0883211
0.0873154
0.08635
0.0854304
0.0845557
0.0837269
0.0829412
0.0821967
0.081492
0.0808269
0.0802024
0.0796204
0.0790847
0.0786007
0.100535
0.0996819
0.0987256
0.097697
0.0966232
0.0955071
0.0943865
0.0932831
0.0922078
0.0911762
0.0901944
0.0892621
0.0883795
0.0875446
0.0867543
0.0860076
0.0853041
0.0846447
0.0840311
0.0834675
0.0829595
0.106233
0.105341
0.104335
0.103245
0.102102
0.100911
0.0997116
0.0985296
0.0973779
0.0962741
0.0952247
0.0942297
0.0932892
0.0924009
0.0915618
0.0907709
0.0900271
0.0893313
0.0886856
0.0880938
0.0875618
0.0870945
0.112273
0.111342
0.110282
0.109126
0.107908
0.106633
0.105347
0.104078
0.102842
0.101659
0.100535
0.099472
0.0984686
0.0975229
0.0966317
0.0957936
0.0950072
0.0942736
0.093595
0.0929748
0.092419
0.0919331
0.118683
0.11771
0.116594
0.115366
0.114064
0.112697
0.111314
0.109948
0.108619
0.107347
0.106142
0.105003
0.103931
0.102923
0.101976
0.101088
0.100256
0.0994832
0.0987706
0.0981214
0.0975421
0.0970383
0.125489
0.124474
0.123298
0.121991
0.120596
0.119124
0.117632
0.116159
0.114725
0.113355
0.112059
0.110837
0.109691
0.108615
0.107608
0.106665
0.105786
0.104972
0.104223
0.103545
0.102942
0.102421
0.132724
0.131665
0.130424
0.129029
0.12753
0.125941
0.124327
0.122732
0.12118
0.119701
0.118304
0.116991
0.115762
0.114612
0.113539
0.112538
0.111609
0.11075
0.109964
0.109256
0.10863
0.108092
0.140423
0.139319
0.138007
0.136514
0.134897
0.133175
0.131422
0.129689
0.128005
0.126403
0.124894
0.123479
0.122158
0.120928
0.119783
0.118719
0.117735
0.11683
0.116005
0.115266
0.114616
0.114061
0.148626
0.147474
0.146086
0.144482
0.14273
0.140857
0.138945
0.137055
0.135222
0.133481
0.131845
0.130317
0.128896
0.127576
0.126352
0.12522
0.124177
0.123222
0.122357
0.121584
0.12091
0.12034
0.157376
0.156175
0.154702
0.152972
0.151065
0.149018
0.146924
0.144856
0.142853
0.140955
0.139178
0.137523
0.135989
0.134571
0.133261
0.132054
0.130946
0.129937
0.129027
0.12822
0.127521
0.126935
0.126467
0.166724
0.165472
0.163905
0.162029
0.159944
0.157696
0.155393
0.15312
0.150923
0.148848
0.146911
0.145113
0.143454
0.141927
0.140521
0.13923
0.138052
0.136983
0.136025
0.135181
0.134457
0.133855
0.13338
0.176725
0.17542
0.173747
0.171702
0.16941
0.16693
0.164384
0.161877
0.159459
0.157182
0.155064
0.153105
0.151306
0.149657
0.148144
0.146761
0.145504
0.14437
0.143362
0.142479
0.141728
0.141111
0.14063
0.187444
0.186085
0.18429
0.182046
0.179515
0.176762
0.173937
0.171161
0.168488
0.165983
0.163659
0.161517
0.15956
0.157776
0.156145
0.154659
0.153318
0.152118
0.151057
0.150137
0.14936
0.148729
0.148245
0.198955
0.197539
0.195604
0.193125
0.190313
0.187241
0.184092
0.181009
0.178043
0.175279
0.172719
0.170367
0.168234
0.166301
0.164542
0.16295
0.161525
0.160259
0.15915
0.158196
0.157398
0.156756
0.15627
0.211342
0.209866
0.207767
0.205009
0.201869
0.198418
0.194897
0.191457
0.188154
0.185102
0.182264
0.17967
0.177351
0.175265
0.173376
0.17168
0.170174
0.168848
0.167693
0.166705
0.165886
0.165235
0.16475
0.224701
0.223158
0.220866
0.217776
0.21425
0.210351
0.20641
0.202551
0.198863
0.195492
0.192308
0.189438
0.186946
0.184724
0.182707
0.180903
0.179314
0.177922
0.176713
0.175685
0.17484
0.174178
0.173693
0.239134
0.237516
0.234995
0.231511
0.227533
0.223102
0.218702
0.214339
0.210229
0.206517
0.202888
0.199717
0.197088
0.194741
0.192577
0.190639
0.188943
0.187462
0.18618
0.185098
0.184221
0.183545
0.183063
0.254764
0.25306
0.250261
0.246311
0.241788
0.236734
0.231845
0.226844
0.222342
0.218265
0.214054
0.210598
0.207871
0.205353
0.202967
0.200843
0.199003
0.197402
0.196024
0.194877
0.193961
0.193272
0.192797
0.192513
0.27171
0.269915
0.266773
0.262254
0.257076
0.251301
0.245877
0.240045
0.23541
0.230743
0.225623
0.222056
0.219388
0.216585
0.213837
0.211475
0.209474
0.207738
0.206253
0.205033
0.204079
0.203379
0.202911
0.202652
0.289794
0.287917
0.284376
0.279226
0.273327
0.266818
0.260825
0.254039
0.249839
0.244
0.23743
0.234021
0.231743
0.228467
0.225122
0.222445
0.22027
0.218384
0.216777
0.215482
0.214494
0.213786
0.213328
0.213077
0.307255
0.305353
0.301516
0.295975
0.289597
0.282777
0.276508
0.26927
0.266167
0.25882
0.25061
0.24733
0.245137
0.240873
0.236528
0.233267
0.230722
0.228529
0.22667
0.22519
0.224075
0.223295
0.222801
0.222543
0.323549
0.321688
0.317785
0.312196
0.305737
0.299188
0.293018
0.2863
0.28413
0.276415
0.266695
0.262975
0.259804
0.254119
0.24853
0.244366
0.241156
0.238437
0.23615
0.23434
0.232989
0.232056
0.231472
0.231195
0.340998
0.339168
0.335243
0.329643
0.323205
0.317063
0.311041
0.305264
0.303767
0.29672
0.285649
0.280985
0.275955
0.268712
0.261831
0.256576
0.252511
0.249144
0.246351
0.244158
0.242543
0.241441
0.240759
0.240428
0.361088
0.359256
0.355274
0.34962
0.343214
0.337488
0.33156
0.32695
0.325988
0.31973
0.307073
0.30135
0.293759
0.284658
0.276385
0.269932
0.264893
0.260799
0.25746
0.25485
0.252941
0.251648
0.250878
0.250553
0.383892
0.382031
0.377986
0.372281
0.366013
0.360748
0.355028
0.351916
0.351467
0.346253
0.331632
0.324755
0.313715
0.302242
0.292384
0.284607
0.278456
0.273523
0.269572
0.266514
0.264286
0.262776
0.261852
0.261397
0.409879
0.407972
0.403912
0.398236
0.392309
0.387556
0.382338
0.381083
0.381193
0.3774
0.360263
0.351936
0.336357
0.321849
0.310075
0.300766
0.293317
0.287385
0.282708
0.279149
0.276629
0.275049
0.274298
0.274215
0.439326
0.437399
0.433541
0.42823
0.423087
0.419012
0.414917
0.415709
0.41661
0.414734
0.394467
0.383986
0.36241
0.343928
0.329697
0.318531
0.309551
0.302439
0.296878
0.29262
0.289482
0.287277
0.285783
0.28481
0.472472
0.470587
0.467342
0.463163
0.459716
0.457008
0.455391
0.458018
0.460626
0.460745
0.436291
0.422204
0.392688
0.368918
0.351445
0.337916
0.32704
0.318577
0.312276
0.307834
0.305043
0.303785
0.303931
0.305116
0.306753
0.509809
0.507993
0.505907
0.50406
0.503873
0.504386
0.508083
0.512067
0.52008
0.519265
0.488045
0.468042
0.427809
0.39693
0.375372
0.358947
0.345456
0.334574
0.326061
0.31949
0.314394
0.31025
0.306545
0.303233
0.300891
0.551452
0.550049
0.550609
0.553498
0.559265
0.566295
0.578871
0.582786
0.605673
0.587417
0.549893
0.523121
0.468108
0.427342
0.400682
0.381489
0.366402
0.354739
0.346112
0.340113
0.336615
0.335591
0.336676
0.33842
0.338889
0.592897
0.593717
0.602044
0.617297
0.63725
0.658205
0.68122
0.677106
0.719443
0.638091
0.613512
0.587181
0.515455
0.461735
0.425566
0.397572
0.374442
0.355633
0.34035
0.327435
0.315758
0.304414
0.293331
0.283945
0.277741
0.62234
0.62781
0.651002
0.693897
0.755081
0.826832
0.874927
0.833966
0.846292
0.669815
0.662989
0.636219
0.561228
0.502276
0.458535
0.420232
0.386627
0.358602
0.335678
0.316992
0.301926
0.289946
0.280453
0.273192
0.267623
0.637519
0.646662
0.682296
0.754935
0.888748
1.15936
1.43686
1.10949
0.916367
0.737056
0.80007
0.637327
0.505539
0.426685
0.374187
0.336013
0.306613
0.28327
0.264524
0.249431
0.237514
0.22856
0.222572
0.219279
0.217131
)
;

boundaryField
{
    inlet
    {
        type            calculated;
        value           nonuniform List<scalar> 
25
(
0.693314
0.703933
0.743911
0.826591
0.986939
1.35886
1.69425
1.13553
0.890624
0.920058
0.584778
0.424284
0.324428
0.264644
0.225151
0.196959
0.175679
0.159036
0.145712
0.134891
0.126053
0.118892
0.113198
0.108829
0.10551
)
;
    }
    outlet
    {
        type            calculated;
        value           nonuniform List<scalar> 0();
    }
    walls
    {
        type            calculated;
        value           nonuniform List<scalar> 0();
    }
    frontAndBack
    {
        type            empty;
    }
    procBoundary4to0
    {
        type            processor;
        value           nonuniform List<scalar> 
72
(
0.00956367
0.0103792
0.0112264
0.0121089
0.0130284
0.0139876
0.0149893
0.0160361
0.0171307
0.0182761
0.0194755
0.0207323
0.0220498
0.0234316
0.0248814
0.0264034
0.0280018
0.0296812
0.0314458
0.033301
0.0352521
0.0373042
0.0373042
0.0398076
0.042101
0.044515
0.0470568
0.0497339
0.0525538
0.0555252
0.0586572
0.0619593
0.0654418
0.0691156
0.0729927
0.077086
0.0814092
0.0859773
0.0908063
0.095914
0.10132
0.107045
0.113112
0.119547
0.126378
0.133636
0.141356
0.149577
0.158342
0.167702
0.17771
0.188431
0.199939
0.212315
0.225652
0.240048
0.255627
0.272511
0.290542
0.308002
0.324318
0.341772
0.361866
0.384678
0.410711
0.440295
0.473746
0.511672
0.554531
0.598306
0.630568
0.647277
)
;
    }
    procBoundary4to5
    {
        type            processor;
        value           nonuniform List<scalar> 
95
(
0.00874665
0.00872184
0.00870646
0.00944415
0.00944415
0.00944742
0.0102143
0.0102143
0.0102401
0.0110288
0.0110288
0.0118429
0.0118429
0.0126811
0.0134991
0.0134991
0.0143866
0.0143866
0.0153055
0.016213
0.016213
0.0171928
0.018177
0.018177
0.0192251
0.0202958
0.0202958
0.0214213
0.0225886
0.0238196
0.0238196
0.0250775
0.0264238
0.027845
0.027845
0.0292628
0.0308215
0.0324681
0.0324681
0.0340801
0.0358914
0.0378072
0.0378072
0.0396566
0.0417712
0.044009
0.046377
0.0488831
0.0488831
0.0512569
0.0540362
0.0569794
0.0600948
0.0633923
0.0633923
0.0665192
0.0701876
0.0740685
0.0781731
0.0825116
0.0825116
0.0867013
0.0915261
0.0966184
0.101989
0.107649
0.113609
0.119879
0.119879
0.126118
0.133032
0.140285
0.147904
0.155933
0.164421
0.173373
0.182758
0.182758
0.192389
0.202565
0.213002
0.222485
0.23117
0.240368
0.250563
0.261284
0.274594
0.284306
0.284306
0.308408
0.299678
0.337823
0.274286
0.262504
0.21692
)
;
    }
}


// ************************************************************************* //
