/*--------------------------------*- C++ -*----------------------------------*\
| =========                 |                                                 |
| \\      /  F ield         | OpenFOAM: The Open Source CFD Toolbox           |
|  \\    /   O peration     | Version:  2506                                  |
|   \\  /    A nd           | Website:  www.openfoam.com                      |
|    \\/     M anipulation  |                                                 |
\*---------------------------------------------------------------------------*/
FoamFile
{
    version     2.0;
    format      ascii;
    arch        "LSB;label=32;scalar=64";
    class       volVectorField;
    location    "400";
    object      U;
}
// * * * * * * * * * * * * * * * * * * * * * * * * * * * * * * * * * * * * * //

dimensions      [0 1 -1 0 0 0 0];

internalField   nonuniform List<vector> 
1340
(
(18.5696 14.7732 -5.32978e-19)
(19.3778 15.468 1.84334e-17)
(20.2844 16.1307 -1.85449e-17)
(19.2327 14.0588 1.40835e-17)
(19.986 14.6961 -3.9005e-18)
(20.8283 15.3041 1.82318e-17)
(21.7225 15.8362 -9.96941e-17)
(22.7075 16.3086 1.1462e-17)
(19.8238 13.4103 1.20229e-17)
(20.5292 13.9963 -1.90871e-17)
(21.3156 14.555 -1.78543e-17)
(22.1463 15.0434 1.25252e-17)
(23.0596 15.4781 3.239e-17)
(24.0292 15.8384 -1.42082e-16)
(25.0357 16.108 -5.85422e-17)
(20.3529 12.8178 -1.83014e-17)
(21.0158 13.3579 -5.35804e-17)
(21.7528 13.8723 9.37829e-18)
(22.5277 14.321 -3.23839e-18)
(23.3781 14.7209 -9.54694e-17)
(24.2786 15.0532 1.93471e-16)
(25.2108 15.3033 -3.20927e-16)
(26.1788 15.4683 1.02747e-15)
(20.8285 12.2737 2.6886e-17)
(21.4536 12.7722 1.42215e-17)
(22.1466 13.2463 1.96715e-17)
(22.872 13.6588 3.29171e-17)
(23.6666 14.0268 -5.5574e-17)
(24.5059 14.3326 9.19301e-17)
(25.3724 14.5633 4.30727e-16)
(26.2708 14.7172 -5.73959e-16)
(27.1884 14.7878 -2.69484e-16)
(21.2577 11.7716 3.84401e-18)
(21.8486 12.2324 -5.91474e-19)
(22.5021 12.6697 -1.38553e-17)
(23.1832 13.0494 1.46008e-18)
(23.9279 13.3878 8.65763e-17)
(24.7125 13.6687 -1.90611e-16)
(25.5203 13.8808 -3.65093e-17)
(26.3564 14.023 -1.53802e-16)
(27.2089 14.0897 -1.78469e-16)
(21.6463 11.3063 -5.46192e-17)
(22.2061 11.7327 5.05442e-17)
(22.8236 12.1366 -1.33107e-18)
(23.4648 12.4861 4.56094e-18)
(24.1645 12.7971 1.6117e-16)
(24.9 13.0549 -9.25548e-17)
(25.655 13.2491 -4.56486e-16)
(26.435 13.3793 7.12012e-16)
(27.229 13.4408 4.93619e-16)
(28.0321 13.4298 -3.85642e-16)
(21.9991 10.8736 2.41812e-17)
(22.5303 11.2686 3.24945e-18)
(23.115 11.642 6.90347e-18)
(23.7199 11.9637 3.3317e-17)
(24.3789 12.2494 -1.66928e-16)
(25.0698 12.4855 4.5603e-16)
(25.7771 12.6627 3.03209e-16)
(26.5063 12.7811 -4.36058e-16)
(27.2473 12.8366 -3.16745e-16)
(27.9957 12.8262 2.62549e-16)
(28.7519 12.7468 9.45775e-17)
(22.3201 10.4702 -2.15362e-17)
(22.8249 10.8363 -8.36903e-18)
(23.3794 11.1815 -1.8543e-18)
(23.9512 11.4777 -1.01403e-17)
(24.5729 11.74 -4.68071e-17)
(25.2232 11.9559 -6.65274e-16)
(25.8872 12.1171 -1.931e-16)
(26.5704 12.2239 -1.6425e-16)
(27.2631 12.2731 1.61124e-16)
(27.9615 12.262 1.61021e-16)
(28.6667 12.1881 2.02744e-16)
(22.6129 10.0928 2.39347e-17)
(23.0932 10.4324 4.57969e-17)
(23.6198 10.7516 4.00188e-18)
(24.1611 11.0244 2.23781e-17)
(24.7485 11.2651 1.29372e-16)
(25.3617 11.4621 1.56269e-16)
(25.986 11.6082 1.99179e-16)
(26.6271 11.7038 1.8189e-16)
(27.2758 11.7464 -3.05758e-16)
(27.9286 11.7338 -1.97003e-17)
(28.5871 11.6638 -1.04062e-16)
(29.2468 11.5338 2.06619e-16)
(22.8803 9.73919 -5.21551e-18)
(23.3378 10.0543 -3.66545e-17)
(23.8384 10.3495 5.57864e-18)
(24.3515 10.6006 1.73806e-17)
(24.9074 10.8212 -5.29338e-17)
(25.4863 11.0007 5.74921e-17)
(26.0743 11.1326 -3.54734e-16)
(26.6768 11.2176 3.11636e-16)
(27.2851 11.2535 6.45106e-17)
(27.8961 11.2388 1.49207e-16)
(28.5116 11.1716 -1.46862e-16)
(29.1278 11.0496 3.20612e-16)
(23.1249 9.40705 -4.01784e-17)
(23.5611 9.69946 1.76501e-17)
(24.0375 9.97245 -1.43051e-17)
(24.5243 10.2036 -4.34679e-18)
(25.051 10.4056 7.36624e-17)
(25.5983 10.5688 9.59184e-17)
(26.1528 10.6874 -1.39312e-16)
(26.7197 10.7623 -1.29277e-16)
(27.2909 10.7917 2.11432e-16)
(27.8635 10.7744 -7.5549e-16)
(28.4394 10.709 1.09636e-15)
(29.0153 10.5935 -1.20749e-15)
(29.59 10.4249 1.08444e-15)
(23.3491 9.09453 9.70025e-20)
(23.7652 9.36591 -1.42171e-17)
(24.2188 9.61836 9.3962e-18)
(24.6812 9.83097 -8.91224e-18)
(25.1807 10.0157 -1.4253e-17)
(25.6986 10.1638 -1.35495e-16)
(26.222 10.2699 -2.85095e-16)
(26.7561 10.3352 -1.74078e-16)
(27.293 10.3583 2.16429e-16)
(27.8302 10.3383 5.33587e-17)
(28.3696 10.274 -1.11762e-16)
(28.9084 10.1639 4.20873e-16)
(29.4456 10.0051 -1.17305e-15)
(23.5546 8.80002 4.98063e-18)
(23.9518 9.05187 -4.36673e-17)
(24.3841 9.28528 -8.86831e-19)
(24.8236 9.4807 2.52965e-17)
(25.2976 9.64947 6.45989e-17)
(25.7882 9.78346 -1.36609e-16)
(26.2828 9.87798 3.12451e-16)
(26.7865 9.93426 1.30791e-16)
(27.2916 9.95124 -6.48188e-16)
(27.796 9.92835 3.15444e-16)
(28.3017 9.86471 -1.0491e-15)
(28.806 9.75895 6.25224e-16)
(29.3084 9.60876 5.36331e-17)
(29.8078 9.41135 -1.81512e-16)
(23.7433 8.52209 2.52924e-17)
(24.1225 8.75579 -1.59056e-17)
(24.5347 8.97152 2.83345e-18)
(24.9528 9.15099 4.74249e-17)
(25.403 9.30493 1.31615e-16)
(25.8679 9.42583 -1.1789e-16)
(26.3357 9.50957 3.37678e-16)
(26.811 9.55738 1.84963e-16)
(27.2868 9.56859 6.60734e-16)
(27.7608 9.54281 2.09146e-16)
(28.2351 9.47941 1.18733e-15)
(28.7074 9.37731 -4.11958e-16)
(29.1775 9.23449 1.93302e-15)
(29.6445 9.04842 -4.02868e-16)
(23.9166 8.2595 -1.81834e-17)
(24.2789 8.47632 1.74171e-17)
(24.672 8.67556 -1.01157e-17)
(25.0698 8.84025 9.03032e-17)
(25.4976 8.98042 -1.75454e-16)
(25.9386 9.08917 3.52415e-16)
(26.3813 9.16285 -3.81429e-16)
(26.8302 9.2028 7.76324e-17)
(27.2786 9.20854 -5.18373e-16)
(27.7243 9.17997 4.12071e-16)
(28.1696 9.11657 3.99561e-16)
(28.6122 9.01754 -7.37248e-16)
(29.0522 8.88112 -1.62965e-15)
(29.489 8.70507 -1.26798e-15)
(24.0758 8.01112 1.97297e-17)
(24.422 8.21224 -3.67127e-18)
(24.7971 8.39613 -1.00487e-17)
(25.1759 8.5471 -3.24179e-17)
(25.5826 8.67447 9.69933e-17)
(26.001 8.77192 1.68954e-16)
(26.4202 8.8363 1.82845e-16)
(26.8444 8.86891 6.23685e-17)
(27.2672 8.86954 -2.41459e-17)
(27.6866 8.83824 -8.90407e-18)
(28.1048 8.77467 -8.17293e-16)
(28.5198 8.6783 -1.68954e-16)
(28.9318 8.54753 4.11139e-16)
(29.3404 8.38041 3.16792e-16)
(29.7435 8.17468 1.83207e-15)
(24.2223 7.77598 2.30356e-17)
(24.5531 7.96245 2.2295e-17)
(24.9111 8.13207 1.60395e-17)
(25.2718 8.27027 -9.43432e-17)
(25.6586 8.38578 -1.9163e-17)
(26.0558 8.47276 -3.06544e-16)
(26.4528 8.52851 -3.0837e-16)
(26.8539 8.55429 -3.09874e-16)
(27.2528 8.55016 -5.52782e-16)
(27.6477 8.5163 1.96853e-16)
(28.0406 8.4525 3.68731e-16)
(28.4299 8.35839 5.66032e-16)
(28.8158 8.23266 -6.70739e-16)
(29.198 8.0735 -2.87275e-16)
(29.5749 7.87893 -7.75399e-16)
(24.357 7.55319 -4.66354e-17)
(24.6732 7.72598 -7.35411e-18)
(25.0149 7.8823 -3.21787e-17)
(25.3585 8.00865 -3.17362e-18)
(25.7264 8.11312 6.89161e-17)
(26.1036 8.19042 3.93771e-17)
(26.4798 8.23818 4.2937e-16)
(26.8592 8.25765 -1.44266e-16)
(27.2356 8.2491 6.35269e-16)
(27.6076 8.21285 -1.6537e-16)
(27.977 8.14876 3.16744e-16)
(28.3422 8.05671 8.62065e-18)
(28.7037 7.93549 9.52162e-16)
(29.0613 7.78354 6.01566e-16)
(29.4137 7.59909 -6.30443e-16)
(24.4809 7.34194 1.21134e-17)
(24.7832 7.50196 -8.75031e-18)
(25.1093 7.6459 3.57385e-17)
(25.4367 7.76125 2.19787e-17)
(25.7867 7.85548 -1.41662e-16)
(26.145 7.92381 1.89933e-16)
(26.5016 7.96418 9.9891e-18)
(26.8605 7.97785 -5.4756e-16)
(27.2159 7.96522 -5.36295e-16)
(27.5663 7.92676 6.39662e-16)
(27.9137 7.86242 -3.32873e-16)
(28.2565 7.7722 -2.54654e-16)
(28.5952 7.65509 6.68154e-16)
(28.9298 7.50969 -8.26238e-16)
(29.2592 7.33443 7.9827e-16)
(29.5818 7.12756 -7.94329e-16)
(24.595 7.14152 4.27153e-18)
(24.8838 7.28962 2.03146e-18)
(25.1952 7.42202 1.55799e-17)
(25.5071 7.52713 -1.14701e-17)
(25.8401 7.61188 9.85252e-17)
(26.1804 7.6719 -2.93529e-16)
(26.5185 7.70546 -2.6893e-16)
(26.8581 7.71379 9.72776e-16)
(27.1938 7.69744 -1.15087e-16)
(27.524 7.65695 -7.1968e-17)
(27.8507 7.59241 -7.05571e-16)
(28.1725 7.50388 -4.51297e-16)
(28.4899 7.39054 -1.12461e-15)
(28.8031 7.25114 3.13663e-16)
(29.111 7.08432 5.00856e-16)
(29.4122 6.88846 -1.09466e-15)
(24.6999 6.95126 1.20239e-17)
(24.976 7.08823 1.78903e-17)
(25.2731 7.20988 4.58969e-18)
(25.5703 7.30548 -8.02211e-17)
(25.8872 7.38143 -3.78437e-17)
(26.2105 7.43378 1.40075e-16)
(26.531 7.46106 4.08589e-16)
(26.8525 7.46451 4.66557e-17)
(27.1695 7.44476 -4.83192e-16)
(27.4807 7.40248 2.69665e-16)
(27.7881 7.33778 5.28715e-16)
(28.0902 7.25085 1.35038e-15)
(28.3877 7.14101 -6.80741e-16)
(28.6808 7.00715 -9.19836e-16)
(28.9685 6.84808 2.3534e-16)
(29.2497 6.66234 2.07111e-16)
(24.5707 6.64064 -7.58614e-19)
(24.7964 6.77057 7.09345e-18)
(25.0602 6.89715 -9.53157e-18)
(25.3438 7.00878 1.99859e-17)
(25.627 7.09555 -9.86308e-17)
(25.9286 7.16335 2.0598e-16)
(26.2357 7.20862 -5.32659e-18)
(26.5396 7.23015 8.22086e-17)
(26.8438 7.22913 -2.83171e-16)
(27.1433 7.20631 -2.4482e-16)
(27.4367 7.16243 -3.5638e-16)
(27.7258 7.09766 -1.88566e-17)
(28.0095 7.01228 -6.8356e-17)
(28.2883 6.90572 1.52209e-16)
(28.5625 6.77701 1.10768e-15)
(28.8314 6.62511 1.37905e-16)
(29.0939 6.44872 -1.21979e-15)
(29.3482 6.24661 -1.69333e-16)
(24.6693 6.47829 6.29385e-18)
(24.8851 6.59889 -2.18397e-17)
(25.1372 6.71578 3.06579e-18)
(25.4079 6.81807 -2.46499e-17)
(25.6777 6.89665 4.73358e-17)
(25.9646 6.95691 -1.44316e-16)
(26.2563 6.99564 -1.01663e-16)
(26.5445 7.01191 -4.53671e-16)
(26.8324 7.00682 4.12013e-16)
(27.1153 6.98126 4.26007e-17)
(27.3919 6.93598 -2.65084e-16)
(27.6639 6.87123 6.41104e-16)
(27.9303 6.78737 -9.72683e-17)
(28.1916 6.68391 -9.07902e-18)
(28.4482 6.56002 -6.58898e-16)
(28.6994 6.41479 -6.40005e-16)
(28.9443 6.24707 1.14781e-15)
(29.1813 6.05576 7.34855e-16)
(24.7603 6.32385 -2.71646e-18)
(24.9667 6.43573 1.01536e-18)
(25.2076 6.54356 7.20167e-18)
(25.4658 6.63715 -5.32222e-17)
(25.7228 6.70813 -2.9072e-17)
(25.9958 6.76142 -6.69411e-17)
(26.2728 6.79414 4.64337e-17)
(26.5461 6.80559 -1.03657e-16)
(26.8186 6.79682 -6.87556e-17)
(27.0858 6.7688 1.54866e-16)
(27.3465 6.72235 5.70218e-16)
(27.6025 6.65773 -5.82235e-16)
(27.8526 6.57538 5.05166e-17)
(28.0975 6.47489 -3.45169e-16)
(28.3375 6.35553 5.0165e-16)
(28.5721 6.21654 1.31903e-15)
(28.8005 6.05688 -7.56039e-16)
(29.0214 5.87559 -1.70473e-15)
(24.8444 6.17689 -3.84285e-18)
(25.0417 6.28062 1.73327e-17)
(25.2717 6.37999 -7.62514e-18)
(25.5181 6.46549 1.49716e-17)
(25.7628 6.52942 6.44703e-17)
(26.0225 6.57627 2.35232e-16)
(26.2856 6.60348 1.18808e-16)
(26.5446 6.61053 -9.04844e-16)
(26.8025 6.59844 -1.16559e-16)
(27.0549 6.56825 1.89285e-16)
(27.3007 6.52082 1.03781e-16)
(27.5415 6.45644 -3.25731e-16)
(27.7763 6.37559 -3.5616e-16)
(28.0058 6.27795 7.30111e-16)
(28.2303 6.1629 -2.96444e-16)
(28.4494 6.02977 8.20007e-16)
(28.6623 5.87766 2.3409e-16)
(28.868 5.70571 9.41607e-16)
(29.0644 5.51338 -8.78336e-16)
(24.922 6.03703 -6.46782e-18)
(25.1106 6.13313 -7.23007e-18)
(25.3302 6.22461 -8.98087e-18)
(25.5652 6.30258 -3.03029e-17)
(25.7982 6.35998 -7.49499e-17)
(26.0451 6.40089 -2.64757e-16)
(26.295 6.42305 -5.7743e-17)
(26.5405 6.42611 2.87022e-16)
(26.7845 6.41104 4.54473e-16)
(27.0228 6.37895 1.68375e-16)
(27.2545 6.33073 -2.63681e-16)
(27.481 6.26669 7.72779e-16)
(27.7015 6.18736 7.83847e-19)
(27.9165 6.09249 5.50072e-16)
(28.1265 5.98155 1.85279e-16)
(28.3309 5.85395 -1.04836e-16)
(28.5294 5.7089 -1.36578e-15)
(28.7208 5.54568 -1.878e-15)
(28.9034 5.36383 1.17563e-15)
(24.9936 5.90389 1.19166e-18)
(25.1738 5.99287 6.05013e-18)
(25.3835 6.07699 2.64555e-18)
(25.6075 6.14794 -3.79274e-17)
(25.8293 6.1993 1.18061e-16)
(26.0641 6.23475 -1.90992e-16)
(26.3012 6.25228 8.33522e-16)
(26.5339 6.25172 -3.18546e-17)
(26.7647 6.23398 1.47925e-16)
(26.9897 6.20025 -9.97441e-16)
(27.208 6.15145 3.23947e-16)
(27.4211 6.08785 -9.843e-17)
(27.628 6.01007 -6.15797e-19)
(27.8294 5.91789 -4.57991e-16)
(28.0258 5.81088 9.06267e-16)
(28.2166 5.68852 5.04431e-16)
(28.4015 5.55014 -5.77438e-16)
(28.5795 5.39511 8.3618e-16)
(28.7491 5.22305 -1.28421e-15)
(25.0597 5.77714 -2.10443e-18)
(25.2318 5.85945 -1.12055e-17)
(25.4319 5.93671 7.99758e-19)
(25.6454 6.00116 5.08608e-17)
(25.8565 6.04693 -1.74282e-16)
(26.0796 6.07734 4.67035e-17)
(26.3047 6.09064 -6.42192e-17)
(26.5251 6.08682 -6.57192e-17)
(26.7434 6.06673 1.43058e-16)
(26.9558 6.03161 6.35418e-16)
(27.1615 5.98237 8.0749e-17)
(27.3618 5.91933 -6.00007e-17)
(27.556 5.84312 -3.59304e-16)
(27.7447 5.7536 -7.39265e-16)
(27.9282 5.65036 4.39708e-16)
(28.1062 5.533 -5.7435e-16)
(28.2785 5.40091 -6.62655e-17)
(28.4439 5.25357 3.9561e-16)
(28.6014 5.09068 9.89072e-16)
(25.1207 5.65645 5.01576e-18)
(25.285 5.73254 6.63686e-18)
(25.4758 5.8034 2.15092e-18)
(25.6793 5.8618 -4.04498e-18)
(25.8801 5.90241 4.18123e-17)
(26.0921 5.9282 9.82957e-17)
(26.3056 5.93766 -5.65128e-17)
(26.5143 5.9309 -3.83738e-16)
(26.7207 5.90874 2.49135e-16)
(26.9212 5.87244 -9.46032e-16)
(27.1149 5.82295 5.32483e-16)
(27.3033 5.76058 -4.58335e-16)
(27.4855 5.68598 -3.59597e-16)
(27.6621 5.59905 -1.09992e-15)
(27.8336 5.49945 3.78206e-16)
(27.9997 5.38686 -1.06348e-15)
(28.16 5.26074 1.43431e-16)
(28.3138 5.12065 1.10987e-16)
(28.4598 4.96637 5.00455e-16)
(25.1769 5.54154 -5.31966e-18)
(25.3337 5.61181 1.11653e-18)
(25.5157 5.67671 2.44978e-18)
(25.7094 5.72951 -5.5531e-17)
(25.9004 5.76535 4.85346e-18)
(26.1017 5.78691 7.93669e-17)
(26.3042 5.79287 1.33897e-16)
(26.5018 5.78348 4.98347e-16)
(26.6969 5.75952 -7.29409e-16)
(26.8861 5.72227 3.38781e-16)
(27.0685 5.67268 -3.3004e-16)
(27.2455 5.61106 8.55261e-16)
(27.4164 5.5381 7.212e-16)
(27.5817 5.45373 1.12847e-15)
(27.7419 5.35766 7.69197e-16)
(27.8968 5.24963 9.45733e-16)
(28.0459 5.12918 -2.3561e-16)
(28.1887 4.99595 1.13405e-16)
(28.3241 4.84977 -1.39027e-16)
(28.4505 4.69084 -3.90179e-16)
(25.2287 5.43212 -8.32933e-18)
(25.3783 5.49696 2.16149e-17)
(25.5517 5.55631 -2.3224e-18)
(25.7361 5.60391 3.61046e-17)
(25.9176 5.63536 1.37855e-16)
(26.1088 5.65304 -2.86694e-16)
(26.3008 5.65585 2.08354e-17)
(26.4878 5.64412 5.37282e-16)
(26.6721 5.6186 -1.315e-16)
(26.8505 5.58059 -2.88238e-16)
(27.0222 5.53104 7.64958e-16)
(27.1885 5.47028 -2.50313e-16)
(27.3488 5.39898 -8.38029e-17)
(27.5035 5.31714 -7.55034e-16)
(27.6531 5.22449 3.26542e-16)
(27.7974 5.12084 -1.03817e-15)
(27.9361 5.00579 -1.04152e-15)
(28.0687 4.87905 5.98402e-16)
(28.1941 4.74052 -2.6517e-16)
(28.311 4.59042 -5.54825e-16)
(25.2764 5.32793 -5.23077e-18)
(25.419 5.3877 -1.90164e-18)
(25.5842 5.44189 -3.69707e-17)
(25.7597 5.48468 3.0032e-17)
(25.9322 5.51209 -6.40194e-17)
(26.1135 5.52623 2.88227e-16)
(26.2954 5.52618 2.70324e-17)
(26.4723 5.51238 -3.11945e-16)
(26.6465 5.48553 5.02102e-16)
(26.8146 5.44694 -6.93919e-16)
(26.9762 5.39758 -3.81255e-16)
(27.1324 5.33776 2.63951e-16)
(27.2826 5.26816 -3.86516e-16)
(27.4273 5.18882 -3.08929e-16)
(27.567 5.0995 -4.02212e-16)
(27.7015 5.00005 -1.76042e-16)
(27.8304 4.89016 2.33192e-16)
(27.9534 4.76957 -9.79896e-16)
(28.0695 4.63826 -1.13535e-17)
(28.1775 4.49648 2.49577e-16)
(25.3203 5.22872 -9.87337e-18)
(25.4562 5.28376 1.67648e-18)
(25.6135 5.33316 1.45678e-17)
(25.7804 5.37149 4.84378e-17)
(25.9442 5.39519 -1.70412e-16)
(26.1162 5.40611 7.69157e-17)
(26.2885 5.40349 -3.93671e-17)
(26.4558 5.38787 -5.4144e-16)
(26.6201 5.3599 3.53257e-16)
(26.7786 5.32091 3.05231e-16)
(26.9306 5.27186 4.87879e-16)
(27.0772 5.21305 -4.29739e-16)
(27.218 5.14518 -3.37262e-17)
(27.3533 5.0683 6.56664e-16)
(27.4837 4.98222 2.65234e-16)
(27.6088 4.88683 -5.32139e-16)
(27.7287 4.78187 3.69466e-16)
(27.8428 4.66714 1.40584e-15)
(27.9502 4.54264 -3.63543e-17)
(28.0499 4.40869 3.22933e-16)
(25.3607 5.13426 1.2245e-17)
(25.4901 5.1849 -5.50633e-18)
(25.6398 5.22983 -2.2903e-17)
(25.7984 5.26406 -4.09772e-17)
(25.9539 5.28435 1.51418e-16)
(26.1169 5.29233 9.49962e-17)
(26.28 5.28742 5.30539e-17)
(26.4381 5.2702 1.04449e-16)
(26.5932 5.24131 -5.85714e-16)
(26.7425 5.20208 -4.08026e-16)
(26.8854 5.15345 -4.11258e-16)
(27.023 5.09573 8.4195e-16)
(27.1549 5.02961 -2.1822e-16)
(27.2813 4.95517 -3.57218e-16)
(27.4029 4.87224 -9.03896e-16)
(27.5195 4.78077 6.98717e-16)
(27.6308 4.68051 5.0939e-16)
(27.7365 4.57135 -1.92432e-16)
(27.8359 4.45332 -7.77207e-16)
(27.9278 4.32675 2.60257e-16)
(25.3978 5.04433 -2.6314e-18)
(25.521 5.09087 -4.85151e-18)
(25.6633 5.13166 3.02538e-17)
(25.814 5.16209 -2.95415e-18)
(25.9615 5.17926 -3.73704e-17)
(26.116 5.18459 1.12115e-16)
(26.2703 5.17762 -5.9793e-16)
(26.4196 5.15903 5.7308e-17)
(26.5659 5.1294 1.85392e-16)
(26.7065 5.09007 5.07882e-16)
(26.8407 5.04196 3.33988e-16)
(26.9698 4.98539 -4.24882e-17)
(27.0932 4.92104 -6.98815e-16)
(27.2114 4.849 4.80431e-16)
(27.3248 4.76915 3.52394e-16)
(27.4332 4.68145 4.16334e-16)
(27.5366 4.58572 -3.79226e-16)
(27.6345 4.48185 -1.22572e-15)
(27.7263 4.36994 3.73209e-16)
(27.8112 4.25034 -6.01812e-17)
(27.8878 4.12391 -1.13195e-16)
(25.4319 4.95873 6.82794e-19)
(25.5491 5.00144 4.87562e-18)
(25.6844 5.0384 -4.64697e-18)
(25.8274 5.06532 6.85545e-18)
(25.9672 5.07964 -6.35694e-17)
(26.1135 5.08257 -3.58949e-17)
(26.2594 5.07378 1.79313e-16)
(26.4003 5.05401 -6.0943e-17)
(26.5382 5.0238 5.27192e-17)
(26.6705 4.9845 1.29609e-16)
(26.7966 4.93701 -1.29593e-16)
(26.9177 4.88164 -2.40139e-16)
(27.0331 4.81908 -1.71288e-16)
(27.1435 4.74942 -5.18823e-16)
(27.2492 4.67257 3.39189e-16)
(27.35 4.58851 4.64253e-16)
(27.446 4.49711 3.29405e-16)
(27.5367 4.39829 7.54733e-16)
(27.6215 4.29219 -2.34435e-16)
(27.6996 4.17916 3.5522e-16)
(27.7701 4.06008 -4.78255e-16)
(25.4632 4.87725 -4.26315e-19)
(25.5746 4.9164 -3.77648e-18)
(25.7031 4.94981 3.91771e-18)
(25.8387 4.97351 1.87729e-17)
(25.9712 4.98522 -1.53586e-16)
(26.1096 4.98598 2.77029e-16)
(26.2474 4.97558 -2.4756e-16)
(26.3804 4.95481 1.92462e-16)
(26.5103 4.92419 5.7098e-17)
(26.6347 4.88503 1.17145e-16)
(26.7531 4.83825 1.55245e-16)
(26.8666 4.78413 8.00256e-16)
(26.9746 4.72336 -4.13611e-16)
(27.0776 4.65605 5.85526e-16)
(27.1761 4.58211 -8.65068e-16)
(27.2698 4.50158 -3.77464e-16)
(27.3588 4.41432 2.94063e-16)
(27.4427 4.32033 -9.83119e-16)
(27.5211 4.21972 4.70448e-16)
(27.5931 4.11291 -4.14951e-16)
(27.6578 4.00074 -2.90821e-16)
(25.4919 4.79971 -4.69658e-18)
(25.5978 4.83556 -7.69167e-19)
(25.7196 4.86568 2.0798e-17)
(25.8482 4.88641 1.00433e-16)
(25.9736 4.89575 -3.19957e-17)
(26.1044 4.89456 -1.40482e-16)
(26.2346 4.88275 6.87066e-16)
(26.36 4.86114 -3.85129e-16)
(26.4823 4.83024 -1.1632e-16)
(26.5992 4.79134 6.68918e-16)
(26.7103 4.74533 -1.32322e-15)
(26.8165 4.6925 1.53148e-15)
(26.9175 4.63353 -2.20479e-16)
(27.0137 4.56852 -4.07424e-16)
(27.1053 4.49743 -8.58202e-16)
(27.1925 4.42029 -1.71213e-16)
(27.275 4.33701 1.84254e-16)
(27.3526 4.24761 -5.92092e-16)
(27.4249 4.15223 1.11115e-15)
(27.4912 4.05129 -6.74188e-16)
(27.5506 3.94562 2.79812e-16)
(25.5182 4.72594 -1.28417e-18)
(25.6187 4.75871 3.2929e-18)
(25.7342 4.78579 -2.60101e-17)
(25.856 4.80379 -4.35707e-18)
(25.9745 4.81097 -5.92308e-17)
(26.0982 4.80804 -1.6664e-16)
(26.221 4.795 -5.2118e-16)
(26.3391 4.77271 1.36837e-16)
(26.4542 4.74165 -4.5224e-16)
(26.564 4.7031 -3.3416e-17)
(26.6682 4.65793 -5.91929e-16)
(26.7676 4.60642 -6.00838e-16)
(26.862 4.54925 1.09406e-15)
(26.9516 4.48651 6.05382e-16)
(27.037 4.41818 -1.53531e-16)
(27.1179 4.34432 1.23527e-15)
(27.1944 4.26486 5.5501e-16)
(27.2662 4.17983 3.95573e-16)
(27.3329 4.08942 -1.40862e-16)
(27.3939 3.99402 -4.89099e-16)
(27.4484 3.89447 7.07331e-17)
(25.5423 4.65576 2.32121e-19)
(25.6375 4.68568 -2.5572e-19)
(25.7469 4.70994 3.80696e-18)
(25.8622 4.72545 -5.88582e-17)
(25.9742 4.73067 -7.83226e-17)
(26.0909 4.72618 1.61818e-16)
(26.2067 4.71207 1.14882e-16)
(26.3179 4.68925 9.17925e-17)
(26.4261 4.65814 -1.03013e-16)
(26.5291 4.62002 -7.41995e-16)
(26.6268 4.57575 7.49038e-16)
(26.7198 4.52558 1.83626e-16)
(26.8079 4.47019 -8.37944e-16)
(26.8915 4.40968 -2.34099e-16)
(26.9709 4.34404 -1.96975e-16)
(27.046 4.27334 3.77746e-16)
(27.1169 4.19754 -7.55434e-16)
(27.1833 4.11669 4.09549e-16)
(27.2448 4.03097 3.4952e-16)
(27.3009 3.94081 1.23134e-16)
(27.3509 3.84702 3.69004e-16)
(27.3941 3.75111 2.97415e-16)
(25.5643 4.58902 -1.05957e-18)
(25.6545 4.61628 1.48843e-18)
(25.758 4.63796 1.6362e-17)
(25.867 4.65117 3.66614e-17)
(25.9727 4.65462 2.63218e-16)
(26.0828 4.64875 -2.97359e-17)
(26.1918 4.63373 -3.31857e-16)
(26.2964 4.61049 1.69489e-16)
(26.398 4.57943 3.0995e-16)
(26.4947 4.54182 4.64561e-16)
(26.5861 4.49849 7.84082e-16)
(26.6731 4.44969 9.63583e-16)
(26.7553 4.39606 -8.64746e-16)
(26.8332 4.33774 -4.2256e-17)
(26.907 4.2747 -5.26715e-16)
(26.9767 4.20705 -2.65114e-16)
(27.0424 4.13475 6.86474e-17)
(27.1037 4.05787 1.44266e-15)
(27.1604 3.97662 -1.13684e-15)
(27.212 3.89141 -5.79537e-16)
(27.2579 3.80303 4.9565e-16)
(27.2974 3.71294 -2.76481e-16)
(25.5844 4.52557 -1.51566e-18)
(25.6697 4.55037 -3.94144e-18)
(25.7676 4.56965 -2.01992e-17)
(25.8704 4.58077 -3.55876e-18)
(25.9702 4.58261 -2.77646e-17)
(26.0739 4.57552 1.29379e-16)
(26.1765 4.55972 1.74483e-16)
(26.2748 4.53618 1.33125e-16)
(26.3701 4.50527 -3.82286e-16)
(26.4607 4.46823 -2.02807e-16)
(26.5463 4.42587 -2.37063e-16)
(26.6275 4.37844 -3.16454e-16)
(26.7042 4.32657 1.05526e-15)
(26.7767 4.27038 -2.1618e-16)
(26.8453 4.20988 7.34611e-16)
(26.91 4.14516 -1.16055e-16)
(26.9708 4.07621 7.19828e-18)
(27.0274 4.00312 -9.50752e-16)
(27.0797 3.92609 1.58503e-15)
(27.1271 3.84555 -8.7414e-17)
(27.1692 3.76227 1.86151e-16)
(27.2053 3.67763 -1.84051e-16)
(25.6028 4.46525 2.23741e-18)
(25.6834 4.48777 -1.91718e-18)
(25.7757 4.50485 2.3818e-17)
(25.8727 4.51405 -6.60553e-17)
(25.9667 4.51445 1.02307e-16)
(26.0642 4.50628 -3.4884e-16)
(26.1607 4.48984 7.2873e-17)
(26.253 4.4661 -5.57358e-16)
(26.3424 4.43541 5.64154e-16)
(26.4272 4.39899 -6.95622e-16)
(26.5072 4.35764 -4.45227e-16)
(26.583 4.31159 3.71225e-16)
(26.6545 4.26144 -7.31301e-16)
(26.722 4.20734 -3.60961e-16)
(26.7857 4.14928 -1.02025e-15)
(26.8457 4.08738 6.46334e-17)
(26.9019 4.02164 4.63489e-17)
(26.9542 3.95215 1.57966e-16)
(27.0024 3.87913 -4.37644e-16)
(27.046 3.803 -2.1539e-16)
(27.0846 3.72449 3.17482e-16)
(27.1176 3.64496 6.44746e-18)
(25.6195 4.40793 -7.2843e-19)
(25.6955 4.42834 -6.9738e-18)
(25.7826 4.44339 9.43864e-18)
(25.8739 4.45085 -2.92133e-17)
(25.9623 4.44995 -5.19897e-17)
(26.054 4.44083 1.86334e-18)
(26.1445 4.42386 -2.26697e-16)
(26.2311 4.40002 6.06445e-16)
(26.3148 4.36962 1.95603e-16)
(26.3942 4.33388 4.87001e-16)
(26.4689 4.29355 -3.89689e-16)
(26.5397 4.24887 4.00733e-16)
(26.6063 4.20042 -2.42338e-16)
(26.669 4.14835 1.56798e-15)
(26.7281 4.09265 3.56435e-16)
(26.7837 4.03346 5.75305e-16)
(26.8357 3.97078 5.47673e-17)
(26.884 3.90472 -5.04795e-16)
(26.9284 3.83549 3.92308e-16)
(26.9685 3.76351 4.47183e-18)
(27.0039 3.6895 -2.33171e-16)
(27.0341 3.61474 -2.25226e-16)
(25.6347 4.35348 -6.05581e-18)
(25.7063 4.37193 -3.26556e-18)
(25.7883 4.38512 5.11028e-17)
(25.8742 4.39099 1.16178e-16)
(25.9572 4.38893 1.82609e-17)
(26.0432 4.37899 -1.21148e-16)
(26.1281 4.3616 5.6759e-16)
(26.2092 4.33773 -5.96934e-16)
(26.2875 4.30769 -6.53167e-16)
(26.3617 4.27265 -2.46192e-16)
(26.4314 4.23336 5.50295e-16)
(26.4974 4.19004 8.08131e-17)
(26.5594 4.14326 5.00251e-16)
(26.6177 4.09316 -7.69677e-16)
(26.6725 4.03975 -9.49963e-16)
(26.724 3.98315 6.87345e-16)
(26.7721 3.92339 -1.3057e-15)
(26.8167 3.86058 3.63794e-16)
(26.8576 3.79495 -5.17983e-16)
(26.8944 3.72688 7.195e-17)
(26.9268 3.65709 6.29057e-16)
(26.9544 3.58679 1.86327e-16)
(25.6484 4.30177 1.334e-18)
(25.7158 4.31842 7.02674e-18)
(25.7929 4.32989 -6.27915e-17)
(25.8735 4.33432 -3.67965e-17)
(25.9514 4.33122 -1.04112e-16)
(26.032 4.32058 4.95391e-16)
(26.1115 4.30285 -1.01857e-16)
(26.1873 4.27903 -3.32021e-17)
(26.2605 4.24939 -9.86408e-17)
(26.3297 4.2151 7.93945e-16)
(26.3947 4.17686 -1.01815e-15)
(26.4562 4.13488 8.69553e-16)
(26.5138 4.08973 4.75418e-17)
(26.5679 4.04154 2.09871e-16)
(26.6188 3.99033 7.5898e-16)
(26.6665 3.93622 -5.37476e-16)
(26.7109 3.87924 1.00501e-15)
(26.7521 3.81952 -1.01585e-16)
(26.7897 3.75727 -4.55187e-16)
(26.8236 3.69289 1.27116e-16)
(26.8533 3.62705 -2.04342e-16)
(26.8786 3.56092 5.78283e-16)
(25.6609 4.25269 -3.31688e-18)
(25.7242 4.26766 -1.02556e-17)
(25.7965 4.27756 2.98078e-17)
(25.872 4.28068 -9.4021e-17)
(25.9449 4.27666 -1.7868e-17)
(26.0203 4.26542 -1.19484e-17)
(26.0946 4.24745 -6.21773e-16)
(26.1654 4.22373 5.90954e-16)
(26.2337 4.19455 -3.89394e-16)
(26.2983 4.16102 -8.31762e-16)
(26.3588 4.12383 4.26838e-16)
(26.416 4.08318 -9.50861e-16)
(26.4695 4.03962 7.28854e-16)
(26.5198 3.99328 -3.60524e-16)
(26.5669 3.94418 -1.29525e-15)
(26.611 3.89244 5.54415e-16)
(26.6521 3.83812 -7.2259e-17)
(26.6901 3.78132 -1.85462e-16)
(26.7247 3.72227 -1.82442e-16)
(26.7558 3.66135 1.42511e-16)
(26.7831 3.59921 -4.22804e-16)
(26.8062 3.53697 2.32543e-17)
(26.8249 3.47606 -1.31717e-16)
(25.6723 4.20611 2.33991e-18)
(25.7315 4.21954 -4.73769e-18)
(25.7991 4.228 2.53323e-17)
(25.8698 4.22993 1.04808e-16)
(25.9379 4.22509 -2.41437e-16)
(26.0083 4.21335 -1.3292e-16)
(26.0776 4.19521 5.15276e-16)
(26.1437 4.17167 -5.4232e-16)
(26.2073 4.14298 1.01594e-15)
(26.2674 4.11022 -7.34037e-16)
(26.3238 4.07408 -9.21655e-17)
(26.3769 4.03473 -6.74442e-16)
(26.4266 3.99272 -6.4945e-16)
(26.4732 3.94816 4.0274e-16)
(26.5168 3.90109 -1.18877e-16)
(26.5576 3.85162 -8.89128e-16)
(26.5955 3.79981 -4.99109e-16)
(26.6305 3.74578 5.55951e-16)
(26.6624 3.68974 -1.94885e-17)
(26.691 3.63207 -4.22385e-16)
(26.716 3.5734 3.94513e-16)
(26.7372 3.51479 2.35419e-16)
(26.7543 3.45759 4.49719e-17)
(25.6825 4.16193 1.76464e-18)
(25.7379 4.17394 2.54803e-18)
(25.801 4.18108 7.22379e-18)
(25.8668 4.18194 -9.3219e-17)
(25.9303 4.17638 1.34277e-16)
(25.996 4.16422 1.25894e-16)
(26.0605 4.14598 -6.29486e-16)
(26.122 4.12267 3.53478e-16)
(26.1812 4.09449 -4.70207e-16)
(26.2371 4.06253 7.77886e-16)
(26.2894 4.02743 1.23915e-16)
(26.3387 3.98936 5.42241e-16)
(26.3848 3.94884 7.92277e-17)
(26.428 3.906 -5.07564e-16)
(26.4684 3.86086 8.79704e-16)
(26.5061 3.81356 9.91417e-17)
(26.5411 3.76413 -4.2521e-16)
(26.5733 3.71271 7.17742e-16)
(26.6027 3.65951 2.32923e-16)
(26.629 3.60489 -5.53955e-16)
(26.6519 3.54946 9.80885e-17)
(26.6713 3.49423 2.56461e-17)
(26.687 3.44048 2.25712e-17)
(25.6917 4.12005 5.14402e-19)
(25.7433 4.13073 2.09243e-18)
(25.802 4.13667 3.81108e-17)
(25.8633 4.13657 -1.01499e-16)
(25.9224 4.13039 -1.28916e-16)
(25.9834 4.11789 2.93271e-16)
(26.0434 4.09962 -8.97786e-17)
(26.1005 4.07657 4.67737e-16)
(26.1555 4.04894 4.96492e-16)
(26.2074 4.01778 -1.20085e-16)
(26.2559 3.9837 2.91319e-16)
(26.3016 3.94687 9.93148e-17)
(26.3443 3.9078 -4.83545e-16)
(26.3842 3.86661 7.86073e-16)
(26.4216 3.82333 -7.53084e-16)
(26.4564 3.77808 1.57405e-15)
(26.4887 3.73091 -7.14045e-16)
(26.5184 3.68195 -2.65117e-16)
(26.5454 3.63141 9.90062e-16)
(26.5695 3.57966 -1.1424e-16)
(26.5906 3.52725 4.51487e-17)
(26.6084 3.47516 -6.52132e-16)
(26.6227 3.42461 2.67173e-16)
(25.6999 4.08035 1.21193e-18)
(25.7479 4.08983 -3.01089e-18)
(25.8024 4.09466 -8.06517e-17)
(25.8592 4.0937 1.24805e-16)
(25.914 4.08698 7.30125e-17)
(25.9706 4.07421 1.1154e-16)
(26.0262 4.05597 -6.5925e-17)
(26.0791 4.03323 -7.84807e-17)
(26.1301 4.00617 -7.27042e-16)
(26.1782 3.97581 6.82112e-16)
(26.2231 3.94274 2.57855e-16)
(26.2654 3.90712 -4.06424e-17)
(26.3049 3.86945 -3.9728e-16)
(26.3418 3.82984 -5.26478e-16)
(26.3763 3.78832 8.91661e-16)
(26.4084 3.74502 -7.69274e-16)
(26.4382 3.69998 3.49726e-18)
(26.4656 3.65334 5.26093e-16)
(26.4904 3.6053 -2.02968e-16)
(26.5127 3.55622 5.37609e-16)
(26.532 3.50662 -3.41923e-16)
(26.5484 3.45745 -9.08096e-17)
(26.5615 3.40986 3.05719e-16)
(25.7073 4.04275 -3.98851e-18)
(25.7517 4.05111 8.51094e-18)
(25.8021 4.05495 2.38998e-17)
(25.8546 4.05321 4.94795e-17)
(25.9053 4.04604 -4.99282e-17)
(25.9575 4.03307 -1.50886e-16)
(26.009 4.01491 -2.70094e-17)
(26.058 3.99252 1.11799e-16)
(26.1051 3.96604 -4.60664e-17)
(26.1495 3.93648 -6.68772e-16)
(26.1911 3.9044 4.29594e-16)
(26.2302 3.86994 3.13231e-17)
(26.2667 3.83361 3.67403e-16)
(26.3007 3.79552 7.56217e-16)
(26.3326 3.75568 -8.78554e-16)
(26.3622 3.71423 1.29307e-15)
(26.3896 3.6712 -2.00339e-16)
(26.4149 3.62674 4.86068e-16)
(26.4378 3.58105 -4.87854e-16)
(26.4583 3.53445 -7.18856e-16)
(26.4761 3.48748 3.91818e-16)
(26.4911 3.44102 4.02477e-16)
(26.5032 3.39616 -2.45671e-16)
(25.7139 4.00714 1.80835e-18)
(25.7548 4.01447 4.50611e-19)
(25.8012 4.01741 1.34646e-17)
(25.8496 4.01499 5.76695e-17)
(25.8962 4.00744 -2.07033e-16)
(25.9444 3.99434 2.85898e-16)
(25.9918 3.97631 -1.96683e-16)
(26.037 3.95431 -1.60798e-16)
(26.0805 3.92841 1.21563e-16)
(26.1215 3.89966 2.98056e-17)
(26.1598 3.86854 -1.15561e-15)
(26.1958 3.8352 1.03997e-15)
(26.2295 3.80015 -4.84545e-16)
(26.261 3.76352 7.19804e-16)
(26.2903 3.72529 -2.13781e-16)
(26.3177 3.68557 -6.09633e-16)
(26.343 3.64444 -2.87137e-16)
(26.3663 3.60203 2.26084e-16)
(26.3875 3.55852 2.66609e-16)
(26.4064 3.51425 -1.35608e-16)
(26.4228 3.46972 1.94597e-16)
(26.4366 3.42576 -4.40277e-16)
(26.4477 3.38343 -1.56145e-16)
(25.7197 3.97344 -2.27579e-18)
(25.7573 3.97983 6.21313e-20)
(25.7998 3.98195 -1.23801e-17)
(25.8441 3.97894 -7.84841e-17)
(25.8869 3.97107 -3.85182e-18)
(25.9311 3.95789 -1.72238e-16)
(25.9747 3.94006 1.21656e-17)
(26.0162 3.91847 3.27734e-16)
(26.0562 3.89317 -2.0589e-16)
(26.094 3.86525 5.03085e-16)
(26.1292 3.83505 1.07292e-15)
(26.1624 3.80276 -1.54028e-15)
(26.1935 3.76897 3.69723e-16)
(26.2226 3.73374 -1.51237e-16)
(26.2497 3.69703 -6.77208e-17)
(26.275 3.65895 4.55309e-16)
(26.2984 3.6196 -3.34163e-16)
(26.3199 3.57909 1.41988e-16)
(26.3395 3.53762 -7.33416e-16)
(26.3569 3.49551 4.90378e-18)
(26.372 3.45322 8.47897e-17)
(26.3848 3.41158 1.69626e-16)
(26.3951 3.37158 -4.75763e-17)
(25.7249 3.94155 5.6699e-19)
(25.7591 3.94707 4.26905e-18)
(25.7979 3.94845 -3.34448e-18)
(25.8384 3.94493 2.71995e-16)
(25.8774 3.93683 -3.07248e-16)
(25.9178 3.92363 4.1963e-17)
(25.9578 3.90604 2.5375e-16)
(25.9957 3.88489 -1.70454e-16)
(26.0325 3.86019 3.519e-17)
(26.067 3.83314 -7.70958e-16)
(26.0993 3.80381 -2.62828e-16)
(26.1299 3.77252 5.20693e-16)
(26.1587 3.73996 -8.01543e-16)