/*--------------------------------*- C++ -*----------------------------------*\
| =========                 |                                                 |
| \\      /  F ield         | OpenFOAM: The Open Source CFD Toolbox           |
|  \\    /   O peration     | Version:  2506                                  |
|   \\  /    A nd           | Website:  www.openfoam.com                      |
|    \\/     M anipulation  |                                                 |
\*---------------------------------------------------------------------------*/
FoamFile
{
    version     2.0;
    format      ascii;
    arch        "LSB;label=32;scalar=64";
    class       pointScalarField;
    location    "8";
    object      streamFunction;
}
// * * * * * * * * * * * * * * * * * * * * * * * * * * * * * * * * * * * * * //

dimensions      [0 3 -1 0 0 0 0];

internalField   nonuniform List<scalar> 
882
(
0
0
0
0
0
0
0
0
0
0
0
0
0
0
0
0
0
0
0
0
0
0
-3.88106e-05
-0.000141664
-0.000270597
-0.000410343
-0.000560177
-0.000723436
-0.000902253
-0.00109446
-0.00128913
-0.00146262
-0.00157634
-0.0015848
-0.0014364
-0.00112969
-0.0007114
-0.000285185
2.7338e-05
0.000157821
0.000105511
0
0
-0.000168199
-0.000516587
-0.000939815
-0.00139875
-0.00188792
-0.00241038
-0.00296413
-0.00353321
-0.00407808
-0.00452862
-0.00478475
-0.0047402
-0.00428843
-0.003426
-0.00227416
-0.00108243
-0.000156669
0.000281272
0.000229062
0
0
-0.00035884
-0.00104551
-0.00186606
-0.00275278
-0.00369314
-0.00468679
-0.00572308
-0.00676689
-0.00774561
-0.00854043
-0.00898867
-0.00892379
-0.00816172
-0.0066762
-0.00463614
-0.00243463
-0.000610344
0.000351885
0.00037383
0
0
-0.00058254
-0.00166034
-0.00293683
-0.00431284
-0.00576866
-0.0073013
-0.00889359
-0.0104965
-0.012015
-0.0132962
-0.0141234
-0.0142542
-0.0133839
-0.0113788
-0.00838882
-0.00490876
-0.00173267
0.000218158
0.00052865
0
0
-0.000817792
-0.00230859
-0.0040676
-0.00596334
-0.0079712
-0.0100908
-0.0123083
-0.0145773
-0.0168059
-0.0188372
-0.02041
-0.0211355
-0.0205365
-0.0182507
-0.0143639
-0.00939185
-0.00430823
-0.000555603
0.000633008
0
0
-0.0010477
-0.00294922
-0.00519296
-0.00761611
-0.0101932
-0.0129355
-0.0158486
-0.018915
-0.0220788
-0.0252039
-0.0279616
-0.0297289
-0.0297203
-0.02742
-0.022845
-0.0164246
-0.00910769
-0.00267896
0.000464566
0
0
-0.00125845
-0.00354844
-0.00625837
-0.0091957
-0.0123383
-0.015719
-0.0193805
-0.0233589
-0.0276545
-0.0321354
-0.0363364
-0.0393435
-0.0400448
-0.0379244
-0.0330033
-0.0255547
-0.0162784
-0.00683119
-0.000434514
0
0
-0.00143869
-0.00407755
-0.00721542
-0.0106309
-0.0143071
-0.0183042
-0.0227121
-0.0276281
-0.0330944
-0.0389288
-0.0444688
-0.0485422
-0.0499135
-0.0480676
-0.043132
-0.0352671
-0.0248387
-0.0129287
-0.00262141
0
0
-0.00157969
-0.00451303
-0.00802174
-0.0118542
-0.0159958
-0.0205308
-0.0255904
-0.0313167
-0.0377611
-0.0446569
-0.051165
-0.0559678
-0.0578487
-0.0563131
-0.0515514
-0.0437572
-0.0330379
-0.0197151
-0.00611759
0
0
-0.00167649
-0.00483922
-0.00864567
-0.0128103
-0.017312
-0.0222473
-0.027769
-0.0340377
-0.0410942
-0.0486099
-0.0556633
-0.060908
-0.0631655
-0.0619621
-0.0574749
-0.0500087
-0.0395857
-0.0258418
-0.0100696
0
0
-0.00172939
-0.00505223
-0.00907368
-0.0134693
-0.0182001
-0.0233588
-0.0290968
-0.0355706
-0.0428122
-0.0504869
-0.0577106
-0.0631822
-0.0657549
-0.0649738
-0.0609077
-0.0539603
-0.0442076
-0.0307292
-0.0135522
0
0
-0.00174552
-0.00516382
-0.00931678
-0.013837
-0.0186578
-0.0238549
-0.0295565
-0.0359025
-0.0429295
-0.050371
-0.0574333
-0.0629104
-0.0657114
-0.065394
-0.0619089
-0.0557126
-0.0469506
-0.0342895
-0.016383
0
0
-0.00173927
-0.00520285
-0.00941366
-0.0139587
-0.018737
-0.0237986
-0.0292564
-0.0352155
-0.0417014
-0.0485051
-0.0550177
-0.0602476
-0.0632123
-0.0634227
-0.0607057
-0.0554936
-0.0480171
-0.0365871
-0.0185742
0
0
-0.00173494
-0.00521773
-0.00942891
-0.0139112
-0.0185398
-0.023342
-0.0283992
-0.0337887
-0.0395254
-0.0454624
-0.0511736
-0.0559216
-0.0588905
-0.0595804
-0.0577826
-0.053769
-0.0477767
-0.0378637
-0.0202046
0
0
-0.00176806
-0.0052844
-0.00946321
-0.0138118
-0.0181949
-0.0226307
-0.0271817
-0.0319041
-0.0368062
-0.0417908
-0.0465827
-0.050687
-0.0534967
-0.0545609
-0.0536862
-0.050977
-0.0465907
-0.0383393
-0.0213611
0
0
-0.0018857
-0.00548797
-0.00961578
-0.0137677
-0.0178277
-0.0218179
-0.0257958
-0.0298082
-0.0338653
-0.0379091
-0.0417772
-0.045171
-0.0477032
-0.0490298
-0.048985
-0.0475538
-0.0447271
-0.0381592
-0.0219549
0
0
-0.00221292
-0.00608312
-0.010124
-0.0139543
-0.0175684
-0.021023
-0.0243718
-0.0276536
-0.0308852
-0.0340398
-0.0370422
-0.0397342
-0.0419241
-0.0433992
-0.0440537
-0.043743
-0.0422158
-0.0368891
-0.0217486
0
0
-0.00258439
-0.00679956
-0.0108404
-0.014406
-0.0175763
-0.0204715
-0.0231631
-0.0256919
-0.0280995
-0.0303826
-0.0325441
-0.0345119
-0.0362419
-0.0376204
-0.0386098
-0.0389504
-0.0381048
-0.0336748
-0.0202101
0
0
-0.00650501
-0.0104787
-0.0132004
-0.0154492
-0.0174004
-0.0191091
-0.0206324
-0.0219967
-0.0232559
-0.0244068
-0.0254914
-0.0264727
-0.0273902
-0.0281737
-0.0288168
-0.0290988
-0.0284317
-0.0247211
-0.0150338
0
0
0
0
0
0
0
0
0
0
0
0
0
0
0
0
0
0
0
0
0
0
0
0
0
0
0
0
0
0
0
0
0
0
0
0
0
0
0
0
0
0
0
0
-3.88106e-05
-0.000141664
-0.000270597
-0.000410343
-0.000560177
-0.000723436
-0.000902253
-0.00109446
-0.00128913
-0.00146262
-0.00157634
-0.0015848
-0.0014364
-0.00112969
-0.0007114
-0.000285185
2.7338e-05
0.000157821
0.000105511
0
0
-0.000168199
-0.000516587
-0.000939815
-0.00139875
-0.00188792
-0.00241038
-0.00296413
-0.00353321
-0.00407808
-0.00452862
-0.00478475
-0.0047402
-0.00428843
-0.003426
-0.00227416
-0.00108243
-0.000156669
0.000281272
0.000229062
0
0
-0.00035884
-0.00104551
-0.00186606
-0.00275278
-0.00369314
-0.00468679
-0.00572308
-0.00676689
-0.00774561
-0.00854043
-0.00898867
-0.00892379
-0.00816172
-0.0066762
-0.00463614
-0.00243463
-0.000610344
0.000351885
0.00037383
0
0
-0.00058254
-0.00166034
-0.00293683
-0.00431284
-0.00576866
-0.0073013
-0.00889359
-0.0104965
-0.012015
-0.0132962
-0.0141234
-0.0142542
-0.0133839
-0.0113788
-0.00838882
-0.00490876
-0.00173267
0.000218158
0.00052865
0
0
-0.000817792
-0.00230859
-0.0040676
-0.00596334
-0.0079712
-0.0100908
-0.0123083
-0.0145773
-0.0168059
-0.0188372
-0.02041
-0.0211355
-0.0205365
-0.0182507
-0.0143639
-0.00939185
-0.00430823
-0.000555603
0.000633008
0
0
-0.0010477
-0.00294922
-0.00519296
-0.00761611
-0.0101932
-0.0129355
-0.0158486
-0.018915
-0.0220788
-0.0252039
-0.0279616
-0.0297289
-0.0297203
-0.02742
-0.022845
-0.0164246
-0.00910769
-0.00267896
0.000464566
0
0
-0.00125845
-0.00354844
-0.00625837
-0.0091957
-0.0123383
-0.015719
-0.0193805
-0.0233589
-0.0276545
-0.0321354
-0.0363364
-0.0393435
-0.0400448
-0.0379244
-0.0330033
-0.0255547
-0.0162784
-0.00683119
-0.000434514
0
0
-0.00143869
-0.00407755
-0.00721542
-0.0106309
-0.0143071
-0.0183042
-0.0227121
-0.0276281
-0.0330944
-0.0389288
-0.0444688
-0.0485422
-0.0499135
-0.0480676
-0.043132
-0.0352671
-0.0248387
-0.0129287
-0.00262141
0
0
-0.00157969
-0.00451303
-0.00802174
-0.0118542
-0.0159958
-0.0205308
-0.0255904
-0.0313167
-0.0377611
-0.0446569
-0.051165
-0.0559678
-0.0578487
-0.0563131
-0.0515514
-0.0437572
-0.0330379
-0.0197151
-0.00611759
0
0
-0.00167649
-0.00483922
-0.00864567
-0.0128103
-0.017312
-0.0222473
-0.027769
-0.0340377
-0.0410942
-0.0486099
-0.0556633
-0.060908
-0.0631655
-0.0619621
-0.0574749
-0.0500087
-0.0395857
-0.0258418
-0.0100696
0
0
-0.00172939
-0.00505223
-0.00907368
-0.0134693
-0.0182001
-0.0233588
-0.0290968
-0.0355706
-0.0428122
-0.0504869
-0.0577106
-0.0631822
-0.0657549
-0.0649738
-0.0609077
-0.0539603
-0.0442076
-0.0307292
-0.0135522
0
0
-0.00174552
-0.00516382
-0.00931678
-0.013837
-0.0186578
-0.0238549
-0.0295565
-0.0359025
-0.0429295
-0.050371
-0.0574333
-0.0629104
-0.0657114
-0.065394
-0.0619089
-0.0557126
-0.0469506
-0.0342895
-0.016383
0
0
-0.00173927
-0.00520285
-0.00941366
-0.0139587
-0.018737
-0.0237986
-0.0292564
-0.0352155
-0.0417014
-0.0485051
-0.0550177
-0.0602476
-0.0632123
-0.0634227
-0.0607057
-0.0554936
-0.0480171
-0.0365871
-0.0185742
0
0
-0.00173494
-0.00521773
-0.00942891
-0.0139112
-0.0185398
-0.023342
-0.0283992
-0.0337887
-0.0395254
-0.0454624
-0.0511736
-0.0559216
-0.0588905
-0.0595804
-0.0577826
-0.053769
-0.0477767
-0.0378637
-0.0202046
0
0
-0.00176806
-0.0052844
-0.00946321
-0.0138118
-0.0181949
-0.0226307
-0.0271817
-0.0319041
-0.0368062
-0.0417908
-0.0465827
-0.050687
-0.0534967
-0.0545609
-0.0536862
-0.050977
-0.0465907
-0.0383393
-0.0213611
0
0
-0.0018857
-0.00548797
-0.00961578
-0.0137677
-0.0178277
-0.0218179
-0.0257958
-0.0298082
-0.0338653
-0.0379091
-0.0417772
-0.045171
-0.0477032
-0.0490298
-0.048985
-0.0475538
-0.0447271
-0.0381592
-0.0219549
0
0
-0.00221292
-0.00608312
-0.010124
-0.0139543
-0.0175684
-0.021023
-0.0243718
-0.0276536
-0.0308852
-0.0340398
-0.0370422
-0.0397342
-0.0419241
-0.0433992
-0.0440537
-0.043743
-0.0422158
-0.0368891
-0.0217486
0
0
-0.00258439
-0.00679956
-0.0108404
-0.014406
-0.0175763
-0.0204715
-0.0231631
-0.0256919
-0.0280995
-0.0303826
-0.0325441
-0.0345119
-0.0362419
-0.0376204
-0.0386098
-0.0389504
-0.0381048
-0.0336748
-0.0202101
0
0
-0.00650501
-0.0104787
-0.0132004
-0.0154492
-0.0174004
-0.0191091
-0.0206324
-0.0219967
-0.0232559
-0.0244068
-0.0254914
-0.0264727
-0.0273902
-0.0281737
-0.0288168
-0.0290988
-0.0284317
-0.0247211
-0.0150338
0
0
0
0
0
0
0
0
0
0
0
0
0
0
0
0
0
0
0
0
0
0
)
;

boundaryField
{
    movingWall
    {
        type            calculated;
    }
    fixedWalls
    {
        type            calculated;
    }
    frontAndBack
    {
        type            empty;
    }
}


// ************************************************************************* //
