/*--------------------------------*- C++ -*----------------------------------*\
| =========                 |                                                 |
| \\      /  F ield         | OpenFOAM: The Open Source CFD Toolbox           |
|  \\    /   O peration     | Version:  2506                                  |
|   \\  /    A nd           | Website:  www.openfoam.com                      |
|    \\/     M anipulation  |                                                 |
\*---------------------------------------------------------------------------*/
FoamFile
{
    version     2.0;
    format      ascii;
    arch        "LSB;label=32;scalar=64";
    class       volScalarField;
    location    "21";
    object      p;
}
// * * * * * * * * * * * * * * * * * * * * * * * * * * * * * * * * * * * * * //

dimensions      [0 2 -2 0 0 0 0];

internalField   nonuniform List<scalar> 
400
(
1.62589e-08
-0.000131311
-0.000433767
-0.0008635
-0.0013997
-0.00200582
-0.00256477
-0.00289594
-0.00282812
-0.00221942
-0.000956785
0.000969598
0.00331195
0.00536921
0.00638861
0.00601285
0.00444687
0.00285008
0.00189238
0.00179482
0.000119132
-2.89023e-05
-0.00027052
-0.000592321
-0.000996148
-0.00151013
-0.00213292
-0.00275469
-0.00312983
-0.00294919
-0.00197356
-0.000192859
0.0020342
0.00409031
0.00522471
0.00502571
0.00370459
0.0021782
0.00144408
0.00147935
0.000431112
0.000233883
-2.61693e-05
-0.000409602
-0.0010222
-0.00196324
-0.00321919
-0.00459729
-0.00573034
-0.00617255
-0.00559468
-0.00401648
-0.00174685
0.000664197
0.00247943
0.00310519
0.00251166
0.00141389
0.000553881
0.000506245
0.000853523
0.000534037
0.000146131
-0.000556967
-0.00179657
-0.00368787
-0.00610337
-0.00866654
-0.0108677
-0.0121888
-0.0122793
-0.0111271
-0.00892391
-0.00605981
-0.00315828
-0.000902211
0.000246089
0.000301281
-0.000311528
-0.000914891
0.00100367
0.000564479
-0.000105464
-0.00144355
-0.00372067
-0.00695894
-0.0108271
-0.01474
-0.0180844
-0.0203703
-0.0212955
-0.0207309
-0.0187537
-0.0156006
-0.0116719
-0.00754779
-0.00398737
-0.00174821
-0.00120916
-0.00288587
0.000576573
-2.39376e-05
-0.00112576
-0.00332704
-0.00685718
-0.0115464
-0.0167879
-0.021815
-0.0259881
-0.0289119
-0.0303972
-0.0303245
-0.0287162
-0.0256996
-0.021413
-0.0160854
-0.0103097
-0.00540377
-0.00323382
-0.00527104
-0.000660027
-0.00143915
-0.0030401
-0.00614174
-0.0108484
-0.0167389
-0.0229503
-0.0286137
-0.0331388
-0.0362558
-0.0379058
-0.0380842
-0.0368265
-0.0341947
-0.0301718
-0.0246533
-0.0177664
-0.010705
-0.00644301
-0.00663996
-0.00269877
-0.0036252
-0.00567885
-0.00951183
-0.0150854
-0.0217432
-0.0284454
-0.0343098
-0.038849
-0.0419198
-0.0435537
-0.0438222
-0.0427948
-0.0405216
-0.0369605
-0.0318822
-0.025025
-0.0168977
-0.0101602
-0.00691278
-0.00526452
-0.00626412
-0.00863608
-0.0129273
-0.0189833
-0.0259849
-0.0328092
-0.0386189
-0.0430337
-0.0459985
-0.0475899
-0.0478976
-0.0469948
-0.0449433
-0.041763
-0.0372939
-0.0311032
-0.0230107
-0.0146239
-0.00859136
-0.00793801
-0.00892048
-0.0114419
-0.0159078
-0.0220943
-0.0291183
-0.0358526
-0.0415184
-0.0458075
-0.0487047
-0.0502893
-0.0506303
-0.0497837
-0.0478259
-0.0448537
-0.0408582
-0.0354963
-0.0281924
-0.0197626
-0.012371
-0.0103197
-0.0112145
-0.0137123
-0.0181048
-0.0241408
-0.0309691
-0.0375154
-0.0430425
-0.0472598
-0.0501443
-0.0517509
-0.0521211
-0.0512908
-0.0493375
-0.0464244
-0.0426929
-0.0380503
-0.0317907
-0.0242987
-0.0167497
-0.0121646
-0.0128927
-0.0152224
-0.0193162
-0.0249668
-0.0314349
-0.0377466
-0.0431807
-0.0473999
-0.0503285
-0.0519808
-0.052375
-0.0515288
-0.0495112
-0.0465471
-0.0428928
-0.0387671
-0.0334085
-0.0270161
-0.0197754
-0.0134202
-0.013877
-0.0158426
-0.0194395
-0.0245171
-0.0305042
-0.0365546
-0.0419391
-0.0462297
-0.0492581
-0.0509822
-0.0513988
-0.0504977
-0.048385
-0.0452911
-0.0415378
-0.0377072
-0.0328643
-0.027361
-0.0203619
-0.0141306
-0.0142361
-0.015622
-0.0184779
-0.0227948
-0.0281991
-0.0339645
-0.0393328
-0.0437596
-0.0469548
-0.0487944
-0.049232
-0.0482935
-0.0460464
-0.0427642
-0.0388501
-0.0349453
-0.03023
-0.0256473
-0.018231
-0.0143835
-0.0141145
-0.014717
-0.0165746
-0.0199458
-0.0246655
-0.0301136
-0.0354885
-0.0401132
-0.0435541
-0.0455867
-0.0461125
-0.0451307
-0.0427219
-0.0392011
-0.0350026
-0.0307867
-0.0260107
-0.0225717
-0.0132457
-0.0142976
-0.0137054
-0.0132738
-0.0138741
-0.0161488
-0.020113
-0.0252274
-0.0306314
-0.035512
-0.0392804
-0.0415961
-0.0422881
-0.0413445
-0.0388089
-0.0350237
-0.0304247
-0.0257301
-0.0207147
-0.0178418
-0.00398118
-0.0139651
-0.0131396
-0.0114273
-0.0106514
-0.0117974
-0.0150303
-0.0198471
-0.0253112
-0.0304938
-0.0346602
-0.0373553
-0.038313
-0.0374906
-0.0349367
-0.0308892
-0.0257175
-0.0200975
-0.0139326
-0.00847978
0.0143756
-0.01429
-0.0126
-0.00909509
-0.00695781
-0.00716074
-0.00987553
-0.0145379
-0.0201303
-0.0256646
-0.0302908
-0.0334717
-0.034837
-0.0342872
-0.0317785
-0.0274656
-0.0213781
-0.0136857
-0.0031275
0.0130829
0.053855
-0.0119123
-0.0123193
-0.00710002
-0.00360281
-0.00318626
-0.00572026
-0.0104272
-0.0162238
-0.0221217
-0.0271901
-0.0308729
-0.0327181
-0.0325936
-0.0302278
-0.0254646
-0.0174545
-0.00496853
0.0168436
0.0560727
0.125761
-0.0296272
-0.0115379
-0.00250731
0.000752142
0.000518011
-0.00238758
-0.0073514
-0.0134165
-0.019611
-0.0249926
-0.0289902
-0.0311403
-0.0312718
-0.0289481
-0.0234973
-0.0127576
0.00753015
0.0475452
0.118537
0.222178
)
;

boundaryField
{
    movingWall
    {
        type            zeroGradient;
    }
    fixedWalls
    {
        type            zeroGradient;
    }
    frontAndBack
    {
        type            empty;
    }
}


// ************************************************************************* //
