/*--------------------------------*- C++ -*----------------------------------*\
| =========                 |                                                 |
| \\      /  F ield         | OpenFOAM: The Open Source CFD Toolbox           |
|  \\    /   O peration     | Version:  2506                                  |
|   \\  /    A nd           | Website:  www.openfoam.com                      |
|    \\/     M anipulation  |                                                 |
\*---------------------------------------------------------------------------*/
FoamFile
{
    version     2.0;
    format      ascii;
    arch        "LSB;label=32;scalar=64";
    class       volVectorField;
    location    "21";
    object      U;
}
// * * * * * * * * * * * * * * * * * * * * * * * * * * * * * * * * * * * * * //

dimensions      [0 1 -1 0 0 0 0];

internalField   nonuniform List<vector> 
400
(
(0.00116937 -0.00123561 0)
(0.00318517 -0.00130924 0)
(0.00403466 -0.000875218 0)
(0.00294065 -0.000366082 0)
(-0.000710598 0.000335282 0)
(-0.00784771 0.00163038 0)
(-0.0193466 0.00390768 0)
(-0.0351551 0.00689456 0)
(-0.053286 0.00915035 0)
(-0.0696657 0.00899598 0)
(-0.0800087 0.00616778 0)
(-0.0816357 0.00178544 0)
(-0.0734498 -0.00291921 0)
(-0.0558793 -0.00719818 0)
(-0.0323245 -0.00962482 0)
(-0.00685892 -0.00879519 0)
(0.0132239 -0.00455342 0)
(0.0207287 0.00217844 0)
(0.0141246 0.00556883 0)
(0.00388814 0.00413736 0)
(0.000873575 -0.00320344 0)
(0.000818894 -0.00205356 0)
(-0.00325934 0.0013035 0)
(-0.0127685 0.00581065 0)
(-0.0294177 0.0118465 0)
(-0.0539274 0.0195904 0)
(-0.0842516 0.0274244 0)
(-0.115193 0.031817 0)
(-0.141109 0.0300333 0)
(-0.158255 0.0220692 0)
(-0.164758 0.0096975 0)
(-0.160202 -0.00484975 0)
(-0.145089 -0.0197142 0)
(-0.119936 -0.0325929 0)
(-0.0869584 -0.0399762 0)
(-0.0488794 -0.0379332 0)
(-0.0113826 -0.0244126 0)
(0.0143555 -0.00215572 0)
(0.0158071 0.0139557 0)
(0.00508847 0.0131304 0)
(-0.000876457 -0.00256344 0)
(-0.00631631 0.00332965 0)
(-0.0189492 0.0132856 0)
(-0.0397056 0.0262448 0)
(-0.0694177 0.0411076 0)
(-0.10543 0.0545226 0)
(-0.141927 0.0618036 0)
(-0.17345 0.0599975 0)
(-0.197089 0.0492714 0)
(-0.211684 0.031511 0)
(-0.216855 0.00892876 0)
(-0.212943 -0.0163682 0)
(-0.200231 -0.0422305 0)
(-0.178343 -0.0652274 0)
(-0.147082 -0.0804998 0)
(-0.106628 -0.081477 0)
(-0.0591386 -0.0619403 0)
(-0.0127475 -0.0222725 0)
(0.00871813 0.0150395 0)
(0.00407335 0.0211502 0)
(-0.0031915 0.00360906 0)
(-0.0154413 0.0176837 0)
(-0.0375085 0.0358431 0)
(-0.0677755 0.0571607 0)
(-0.104991 0.0775255 0)
(-0.144086 0.0910382 0)
(-0.179112 0.0933785 0)
(-0.206945 0.0840911 0)
(-0.227026 0.0653974 0)
(-0.239495 0.0397886 0)
(-0.24483 0.00924875 0)
(-0.243714 -0.0247125 0)
(-0.236197 -0.0599616 0)
(-0.221316 -0.0934683 0)
(-0.19727 -0.120062 0)
(-0.16159 -0.13141 0)
(-0.112351 -0.116292 0)
(-0.0519764 -0.0662631 0)
(-0.000925917 0.0015772 0)
(0.0045928 0.025578 0)
(-0.00556753 0.0158417 0)
(-0.0239354 0.0401752 0)
(-0.0529655 0.0658054 0)
(-0.0882133 0.0927199 0)
(-0.126785 0.114414 0)
(-0.162933 0.124482 0)
(-0.192308 0.120504 0)
(-0.21395 0.104281 0)
(-0.228521 0.079111 0)
(-0.237229 0.0477536 0)
(-0.241573 0.011984 0)
(-0.242575 -0.027207 0)
(-0.240261 -0.0685306 0)
(-0.233882 -0.110366 0)
(-0.220965 -0.148891 0)
(-0.197084 -0.175991 0)
(-0.15677 -0.177224 0)
(-0.0960455 -0.133236 0)
(-0.0201039 -0.0369116 0)
(0.00680454 0.0247382 0)
(-0.00691941 0.0322159 0)
(-0.0288765 0.0674898 0)
(-0.0609182 0.0985738 0)
(-0.0962651 0.12791 0)
(-0.131374 0.147853 0)
(-0.161026 0.152709 0)
(-0.182689 0.142123 0)
(-0.196793 0.119615 0)
(-0.204798 0.0892625 0)
(-0.208803 0.0541852 0)
(-0.210909 0.0161992 0)
(-0.212349 -0.0240375 0)
(-0.213468 -0.066621 0)
(-0.214209 -0.111779 0)
(-0.212573 -0.158266 0)
(-0.203535 -0.200685 0)
(-0.179315 -0.225197 0)
(-0.131812 -0.205657 0)
(-0.0573778 -0.110496 0)
(0.0052623 0.0130186 0)
(-0.00670732 0.0502067 0)
(-0.0289785 0.0958887 0)
(-0.0600873 0.130131 0)
(-0.091858 0.159233 0)
(-0.120878 0.175518 0)
(-0.14296 0.174412 0)
(-0.157124 0.157393 0)
(-0.164659 0.129319 0)
(-0.167558 0.0949498 0)
(-0.168235 0.0576754 0)
(-0.168585 0.0192215 0)
(-0.169564 -0.0200475 0)
(-0.171773 -0.0609646 0)
(-0.175842 -0.1049 0)
(-0.181104 -0.152978 0)
(-0.183829 -0.204042 0)
(-0.176045 -0.248973 0)
(-0.147881 -0.26182 0)
(-0.0932562 -0.19426 0)
(-0.0076948 -0.0140295 0)
(-0.00498847 0.066978 0)
(-0.0245252 0.122192 0)
(-0.0516684 0.157896 0)
(-0.0777855 0.185072 0)
(-0.099966 0.196843 0)
(-0.1152 0.189793 0)
(-0.123622 0.166954 0)
(-0.126985 0.134271 0)
(-0.127498 0.0970077 0)
(-0.127343 0.0585186 0)
(-0.12765 0.0201271 0)
(-0.128708 -0.0181882 0)
(-0.130939 -0.0572641 0)
(-0.13525 -0.0984337 0)
(-0.142307 -0.14386 0)
(-0.150732 -0.19614 0)
(-0.154247 -0.253123 0)
(-0.142367 -0.294766 0)
(-0.10785 -0.264224 0)
(-0.0284898 -0.0697238 0)
(-0.00225772 0.079993 0)
(-0.0168592 0.143871 0)
(-0.0381346 0.180118 0)
(-0.0577533 0.204548 0)
(-0.0733992 0.211866 0)
(-0.0831486 0.199753 0)
(-0.0878102 0.172394 0)
(-0.0892158 0.136489 0)
(-0.0894095 0.0975731 0)
(-0.089968 0.0587324 0)
(-0.0912168 0.0207051 0)
(-0.0929496 -0.0169995 0)
(-0.0952749 -0.0550442 0)
(-0.0988813 -0.0940803 0)
(-0.105117 -0.135939 0)
(-0.114853 -0.185148 0)
(-0.124627 -0.246387 0)
(-0.123727 -0.30995 0)
(-0.104542 -0.320566 0)
(-0.0359083 -0.152633 0)
(0.000888666 0.0874155 0)
(-0.00742563 0.15934 0)
(-0.0217484 0.196189 0)
(-0.0347091 0.218109 0)
(-0.0444397 0.221875 0)
(-0.0499422 0.206075 0)
(-0.0522652 0.175684 0)
(-0.0529612 0.137912 0)
(-0.0536096 0.0983991 0)
(-0.0551463 0.059824 0)
(-0.0574283 0.022301 0)
(-0.0600746 -0.0150432 0)
(-0.062998 -0.0527269 0)
(-0.066488 -0.0907408 0)
(-0.0717308 -0.129824 0)
(-0.0806663 -0.174402 0)
(-0.0932818 -0.233834 0)
(-0.0992962 -0.310595 0)
(-0.0936128 -0.358292 0)
(-0.0305113 -0.230659 0)
(0.00391626 0.0883445 0)
(0.00232015 0.167549 0)
(-0.00469783 0.205671 0)
(-0.0111566 0.225633 0)
(-0.0155296 0.226877 0)
(-0.0174311 0.208951 0)
(-0.0179306 0.177227 0)
(-0.0181292 0.139024 0)
(-0.0190258 0.0998172 0)
(-0.0210698 0.0619046 0)
(-0.0239526 0.0250361 0)
(-0.0273602 -0.0118249 0)
(-0.0312619 -0.0492009 0)
(-0.0356541 -0.0867961 0)
(-0.0412079 -0.124328 0)
(-0.0495967 -0.164866 0)
(-0.0638313 -0.219802 0)
(-0.073957 -0.303493 0)
(-0.080534 -0.382361 0)
(-0.0228923 -0.294376 0)
(0.00633628 0.083197 0)
(0.0113762 0.168342 0)
(0.0115906 0.208801 0)
(0.0114144 0.228013 0)
(0.0122025 0.228126 0)
(0.0138585 0.209587 0)
(0.0153687 0.17788 0)
(0.0160549 0.140182 0)
(0.0154591 0.101721 0)
(0.0134959 0.0646087 0)
(0.0104892 0.0285684 0)
(0.00656474 -0.00743434 0)
(0.00158874 -0.044014 0)
(-0.00434033 -0.0808445 0)
(-0.0115588 -0.117248 0)
(-0.0206075 -0.154583 0)
(-0.0369472 -0.203851 0)
(-0.0496988 -0.289414 0)
(-0.0681559 -0.394518 0)
(-0.0147657 -0.347288 0)
(0.00751212 0.073125 0)
(0.018463 0.161886 0)
(0.0254991 0.20512 0)
(0.031202 0.224285 0)
(0.0370151 0.224229 0)
(0.0426557 0.206423 0)
(0.0470353 0.176099 0)
(0.0495927 0.139953 0)
(0.0501711 0.102912 0)
(0.0489254 0.0670526 0)
(0.0462021 0.0322709 0)
(0.0419058 -0.00241466 0)
(0.0359594 -0.0374645 0)
(0.0283131 -0.0728179 0)
(0.0183992 -0.107753 0)
(0.00713558 -0.142511 0)
(-0.0124603 -0.186674 0)
(-0.0263711 -0.270702 0)
(-0.0568345 -0.397163 0)
(-0.00666206 -0.389598 0)
(0.00701493 0.0600527 0)
(0.0224054 0.148856 0)
(0.0359128 0.195314 0)
(0.0475391 0.215644 0)
(0.0586298 0.216537 0)
(0.0688882 0.200594 0)
(0.0771116 0.172695 0)
(0.0826139 0.138873 0)
(0.0852869 0.103733 0)
(0.085371 0.0694602 0)
(0.0831908 0.0363072 0)
(0.0787723 0.00354607 0)
(0.0718477 -0.0291881 0)
(0.0623774 -0.0622185 0)
(0.0494805 -0.0949395 0)
(0.0347332 -0.127051 0)
(0.0105173 -0.166308 0)
(-0.00328122 -0.247387 0)
(-0.0465393 -0.393551 0)
(0.00196623 -0.425103 0)
(0.0048612 0.0467831 0)
(0.0219841 0.131338 0)
(0.0404546 0.178992 0)
(0.0575552 0.199685 0)
(0.0742454 0.201531 0)
(0.0900465 0.188087 0)
(0.10343 0.163709 0)
(0.113339 0.133507 0)
(0.119448 0.10157 0)
(0.121917 0.0700783 0)
(0.120987 0.0396515 0)
(0.116854 0.0098953 0)
(0.108878 -0.0195543 0)
(0.0976162 -0.0490968 0)
(0.0812571 -0.0784372 0)
(0.0625425 -0.107938 0)
(0.0332227 -0.143288 0)
(0.0196211 -0.221522 0)
(-0.0368459 -0.386775 0)
(0.012271 -0.455074 0)
(0.00154131 0.0358471 0)
(0.0169869 0.11191 0)
(0.0391697 0.159376 0)
(0.061704 0.180346 0)
(0.08446 0.183022 0)
(0.106449 0.172034 0)
(0.125874 0.15151 0)
(0.14121 0.125608 0)
(0.151754 0.0977641 0)
(0.157545 0.0699894 0)
(0.158477 0.0431368 0)
(0.155239 0.0171608 0)
(0.146458 -0.00823865 0)
(0.133581 -0.0332677 0)
(0.113557 -0.0580916 0)
(0.0909983 -0.0841053 0)
(0.0565746 -0.116692 0)
(0.0418181 -0.193627 0)
(-0.0259916 -0.377701 0)
(0.0267671 -0.478631 0)
(-0.00301463 0.032749 0)
(0.0050259 0.0952649 0)
(0.0259579 0.132739 0)
(0.0533925 0.150316 0)
(0.0830582 0.15311 0)
(0.11254 0.144909 0)
(0.139325 0.1291 0)
(0.161502 0.108798 0)
(0.177824 0.0867282 0)
(0.188283 0.0645385 0)
(0.192173 0.0431981 0)
(0.190744 0.0227752 0)
(0.181955 0.00322711 0)
(0.168608 -0.0159169 0)
(0.145734 -0.0348431 0)
(0.120889 -0.0565783 0)
(0.0820567 -0.0883446 0)
(0.0637697 -0.168036 0)
(-0.00812791 -0.363613 0)
(0.0502672 -0.487425 0)
(-0.0108774 0.0229071 0)
(-0.00816226 0.0874549 0)
(0.0108729 0.115585 0)
(0.0419438 0.124451 0)
(0.0776743 0.123553 0)
(0.113808 0.116381 0)
(0.147234 0.104716 0)
(0.175435 0.0899452 0)
(0.196929 0.0740957 0)
(0.212068 0.0580454 0)
(0.219164 0.0429742 0)
(0.221072 0.028697 0)
(0.213832 0.0158482 0)
(0.203516 0.00319956 0)
(0.181539 -0.00929464 0)
(0.160671 -0.0269858 0)
(0.120336 -0.0586331 0)
(0.100074 -0.139381 0)
(0.0335671 -0.324285 0)
(0.0908789 -0.454459 0)
(-0.10407 0.0855246 0)
(-0.0770042 0.0704352 0)
(-0.0515479 0.0692923 0)
(-0.00466371 0.0708679 0)
(0.04298 0.0702906 0)
(0.0905332 0.0667304 0)
(0.133888 0.0609285 0)
(0.173544 0.0532328 0)
(0.204588 0.0452198 0)
(0.232301 0.0369198 0)
(0.248939 0.0295048 0)
(0.26505 0.0224296 0)
(0.267639 0.0166344 0)
(0.273606 0.0108859 0)
(0.261026 0.00486388 0)
(0.256433 -0.00609964 0)
(0.220555 -0.0315648 0)
(0.21141 -0.0929752 0)
(0.147897 -0.22927 0)
(0.170155 -0.341296 0)
(0.13126 0.105018 0)
(0.161151 0.0779749 0)
(0.216269 0.0559997 0)
(0.273897 0.043565 0)
(0.323976 0.0369439 0)
(0.372886 0.0323494 0)
(0.41417 0.0290503 0)
(0.456592 0.0256513 0)
(0.487914 0.0230793 0)
(0.522062 0.019989 0)
(0.541426 0.018001 0)
(0.567563 0.0151545 0)
(0.574813 0.0138864 0)
(0.594395 0.0111375 0)
(0.5878 0.0103176 0)
(0.598173 0.00584258 0)
(0.564692 0.00094666 0)
(0.546953 -0.0175898 0)
(0.436864 -0.0500331 0)
(0.337563 -0.10125 0)
)
;

boundaryField
{
    movingWall
    {
        type            fixedValue;
        value           uniform (1 0 0);
    }
    fixedWalls
    {
        type            noSlip;
    }
    frontAndBack
    {
        type            empty;
    }
}


// ************************************************************************* //
