/*--------------------------------*- C++ -*----------------------------------*\
| =========                 |                                                 |
| \\      /  F ield         | OpenFOAM: The Open Source CFD Toolbox           |
|  \\    /   O peration     | Version:  2506                                  |
|   \\  /    A nd           | Website:  www.openfoam.com                      |
|    \\/     M anipulation  |                                                 |
\*---------------------------------------------------------------------------*/
FoamFile
{
    version     2.0;
    format      ascii;
    arch        "LSB;label=32;scalar=64";
    class       volScalarField;
    location    "50";
    object      p;
}
// * * * * * * * * * * * * * * * * * * * * * * * * * * * * * * * * * * * * * //

dimensions      [0 2 -2 0 0 0 0];

internalField   nonuniform List<scalar> 
400
(
-1.97143e-07
-0.000151108
-0.000533949
-0.00106952
-0.00172828
-0.0024871
-0.00317601
-0.00358732
-0.00355478
-0.00292445
-0.00154176
0.000621539
0.00324834
0.00551423
0.00654211
0.00594477
0.00403613
0.00219014
0.00115196
0.00108168
0.000115613
-5.83986e-05
-0.000376179
-0.000762359
-0.00124119
-0.00188323
-0.002698
-0.00353149
-0.00406523
-0.0039235
-0.0028344
-0.000817506
0.00169313
0.00396578
0.0051373
0.0047682
0.00314114
0.00141713
0.000635887
0.000724859
0.000533884
0.000263714
-7.72671e-05
-0.000558218
-0.00134315
-0.00257122
-0.00420195
-0.00595777
-0.0073695
-0.00790832
-0.00723134
-0.00543418
-0.00286913
-0.000174379
0.00181525
0.00245927
0.00174969
0.000547205
-0.000350512
-0.000349707
0.00114565
0.000736568
0.000189862
-0.000772478
-0.00244067
-0.00491463
-0.0079559
-0.0110647
-0.0136342
-0.0151008
-0.015131
-0.0137696
-0.0112321
-0.00797642
-0.00470543
-0.00216495
-0.00082529
-0.000660552
-0.00124229
-0.00187275
0.00157064
0.000964217
-2.64615e-05
-0.00191681
-0.00498184
-0.00913163
-0.0138385
-0.0183786
-0.0220939
-0.0245174
-0.0253895
-0.0245901
-0.0222442
-0.0186413
-0.0142196
-0.00958588
-0.00553456
-0.00290002
-0.00214855
-0.00396901
0.00127646
0.000433026
-0.00119853
-0.00428569
-0.00895706
-0.0147968
-0.0209511
-0.0265583
-0.0310054
-0.0339736
-0.0353334
-0.034984
-0.0330089
-0.0295552
-0.0247637
-0.0188535
-0.0124241
-0.0068886
-0.00435191
-0.0064694
-6.42959e-05
-0.00115671
-0.00349204
-0.00775984
-0.0138545
-0.0209892
-0.0280631
-0.0341903
-0.0388744
-0.0419523
-0.0434296
-0.0433262
-0.0417089
-0.0386465
-0.0341165
-0.0280029
-0.0204237
-0.0126221
-0.00779678
-0.00769856
-0.00245886
-0.00374203
-0.00667644
-0.011853
-0.0189284
-0.0268137
-0.034279
-0.0405009
-0.0451273
-0.0481208
-0.0495683
-0.049564
-0.0481865
-0.0454831
-0.0414052
-0.0357207
-0.0281691
-0.0192607
-0.0117509
-0.00793403
-0.00553294
-0.00690087
-0.0102231
-0.0159366
-0.023514
-0.0316809
-0.0391779
-0.0452781
-0.0497493
-0.0526297
-0.0540386
-0.0540814
-0.0528326
-0.0503503
-0.0466438
-0.0415553
-0.0346695
-0.0258034
-0.0166137
-0.0099338
-0.00871432
-0.0100562
-0.0135391
-0.0194344
-0.0271146
-0.0352452
-0.0425992
-0.048529
-0.052869
-0.0556817
-0.0570816
-0.0571542
-0.0559626
-0.0535785
-0.0500824
-0.0454616
-0.039401
-0.0313493
-0.0221969
-0.0142503
-0.0114725
-0.0127157
-0.0161468
-0.0219309
-0.029417
-0.0373252
-0.0444882
-0.050289
-0.0545689
-0.0573719
-0.0587881
-0.0588802
-0.0576988
-0.0553207
-0.0518872
-0.0475279
-0.0421779
-0.0351899
-0.0270533
-0.0190644
-0.0135107
-0.0145694
-0.0177766
-0.0231861
-0.0302354
-0.0377934
-0.0447725
-0.0505311
-0.0548457
-0.0577076
-0.0591684
-0.0592713
-0.0580581
-0.0556066
-0.0521102
-0.0478114
-0.0429543
-0.0368647
-0.0298842
-0.0222929
-0.0147967
-0.0155182
-0.0182746
-0.0230863
-0.0295069
-0.036621
-0.0434326
-0.049236
-0.0536867
-0.056684
-0.0582268
-0.0583349
-0.0570453
-0.0544584
-0.0507924
-0.0463521
-0.0417372
-0.036132
-0.0300953
-0.0227836
-0.0154286
-0.0156774
-0.0177103
-0.0216391
-0.0272267
-0.0338027
-0.0404512
-0.0463721
-0.0510627
-0.0542911
-0.0559799
-0.0561219
-0.0547313
-0.0519389
-0.0480061
-0.0433238
-0.0385502
-0.0330189
-0.0280028
-0.020202
-0.0155385
-0.0152615
-0.0162872
-0.0190069
-0.0235264
-0.0294493
-0.0359218
-0.0420205
-0.0470533
-0.0506203
-0.0525378
-0.0527444
-0.0512816
-0.0482389
-0.0439498
-0.0388602
-0.033666
-0.0280123
-0.0241875
-0.0143634
-0.0152462
-0.0145226
-0.014229
-0.0153773
-0.0186032
-0.0237645
-0.0300426
-0.0363642
-0.0418307
-0.0458508
-0.0481163
-0.0484964
-0.047014
-0.0437394
-0.0390442
-0.0333988
-0.0275985
-0.0216407
-0.0180907
-0.0038783
-0.0146387
-0.0136001
-0.011695
-0.0110676
-0.0129208
-0.0173091
-0.0234104
-0.0299884
-0.0359562
-0.0405315
-0.0432754
-0.0439603
-0.0425786
-0.0391625
-0.0340487
-0.0276396
-0.0207127
-0.0133664
-0.00691012
0.015943
-0.014571
-0.0126497
-0.00865599
-0.00625461
-0.0069227
-0.010729
-0.0167541
-0.0236207
-0.0301252
-0.0353225
-0.0386625
-0.0397948
-0.0386656
-0.0352888
-0.0298116
-0.0222804
-0.0129653
-0.000849471
0.016502
0.0569032
-0.0117938
-0.0118357
-0.00575542
-0.00182416
-0.00181261
-0.00542815
-0.011555
-0.0187407
-0.025747
-0.0315145
-0.0354625
-0.0371586
-0.0365045
-0.0332246
-0.0271692
-0.0175764
-0.00327462
0.0202929
0.0604863
0.129644
-0.0295114
-0.0106426
-0.000650897
0.00301837
0.00238576
-0.00159672
-0.00799694
-0.0154975
-0.0228657
-0.0290176
-0.0333469
-0.0353971
-0.0350305
-0.0318318
-0.0251721
-0.0128876
0.00930591
0.05099
0.122683
0.225917
)
;

boundaryField
{
    movingWall
    {
        type            zeroGradient;
    }
    fixedWalls
    {
        type            zeroGradient;
    }
    frontAndBack
    {
        type            empty;
    }
}


// ************************************************************************* //
