/*--------------------------------*- C++ -*----------------------------------*\
| =========                 |                                                 |
| \\      /  F ield         | OpenFOAM: The Open Source CFD Toolbox           |
|  \\    /   O peration     | Version:  2506                                  |
|   \\  /    A nd           | Website:  www.openfoam.com                      |
|    \\/     M anipulation  |                                                 |
\*---------------------------------------------------------------------------*/
FoamFile
{
    version     2.0;
    format      ascii;
    arch        "LSB;label=32;scalar=64";
    class       surfaceScalarField;
    location    "50";
    object      phi;
}
// * * * * * * * * * * * * * * * * * * * * * * * * * * * * * * * * * * * * * //

dimensions      [0 3 -1 0 0 0 0];

oriented        oriented;

internalField   nonuniform List<scalar> 
760
(
1.55255e-05
-1.55236e-05
2.91794e-05
-1.3654e-05
3.07705e-05
-1.59106e-06
1.8143e-05
1.26275e-05
-1.2198e-05
3.0341e-05
-6.66126e-05
5.44146e-05
-0.000148292
8.16797e-05
-0.000248557
0.000100265
-0.000347284
9.87266e-05
-0.000421216
7.39326e-05
-0.000453667
3.24507e-05
-0.000434903
-1.87638e-05
-0.000359286
-7.56169e-05
-0.000238206
-0.00012108
-9.46364e-05
-0.000143569
3.39761e-05
-0.000128612
0.000108315
-7.43386e-05
0.000102923
5.3917e-06
4.59689e-05
5.6954e-05
4.59689e-05
1.23573e-05
-2.7881e-05
7.19332e-06
-8.48996e-06
-2.99481e-05
3.55504e-05
-0.00010795
9.0629e-05
-0.000231287
0.000153678
-0.000391943
0.00021507
-0.00056496
0.000254697
-0.000719106
0.00025441
-0.000831949
0.000211569
-0.000892503
0.000134487
-0.000896061
3.60092e-05
-0.000840356
-7.44691e-05
-0.000728508
-0.000187465
-0.000563817
-0.000285771
-0.00036065
-0.000346736
-0.00014943
-0.000339832
1.72796e-05
-0.000241048
8.54554e-05
-6.27841e-05
5.23995e-05
9.001e-05
9.83683e-05
-1.28725e-05
-1.50085e-05
-6.34933e-05
4.21308e-05
-0.000162367
0.000134424
-0.000313564
0.000241826
-0.000504568
0.000344682
-0.000705571
0.000416073
-0.000885131
0.000434257
-0.00102525
0.000394529
-0.00112075
0.000307065
-0.00117085
0.00018459
-0.0011704
3.55623e-05
-0.00112474
-0.000120132
-0.00103183
-0.000280375
-0.000886237
-0.000431362
-0.000685962
-0.000547011
-0.000439886
-0.000585909
-0.000187888
-0.000493046
-8.85554e-06
-0.000241816
2.9382e-05
5.17724e-05
0.00012775
-5.00037e-05
3.49952e-05
-0.000155728
0.000147855
-0.000311214
0.00028991
-0.000506769
0.000437381
-0.000716502
0.000554415
-0.000909747
0.000609318
-0.00106631
0.000590821
-0.00118192
0.000510137
-0.00125937
0.000384516
-0.00130214
0.000227364
-0.00130875
4.21682e-05
-0.001285
-0.000143886
-0.00122705
-0.000338321
-0.00112472
-0.000533692
-0.000964902
-0.000706828
-0.000735126
-0.000815685
-0.000439221
-0.000788952
-0.000137768
-0.000543269
1.19835e-05
-9.79794e-05
0.000139734
-8.59608e-05
0.000120956
-0.000235482
0.000297377
-0.000421968
0.000476395
-0.000626022
0.000641434
-0.000819649
0.000748043
-0.000980632
0.000770301
-0.00110128
0.000711466
-0.00118422
0.000593076
-0.00123564
0.000435939
-0.00126284
0.000254563
-0.00127489
5.42235e-05
-0.00127052
-0.000148259
-0.0012488
-0.000360046
-0.00120179
-0.000580699
-0.00111084
-0.000797774
-0.000947162
-0.000979368
-0.000680845
-0.00105527
-0.000321771
-0.000902343
-2.61809e-05
-0.000393569
0.000113553
-0.000108303
0.000229259
-0.000277464
0.000466538
-0.000466174
0.000665106
-0.000651338
0.000826597
-0.000810593
0.000907299
-0.000930834
0.000890542
-0.00101161
0.000792246
-0.00105942
0.000640887
-0.00108331
0.000459824
-0.00109329
0.000264543
-0.00110153
6.24624e-05
-0.00110677
-0.000143021
-0.00111056
-0.000356249
-0.00110997
-0.000581294
-0.00108957
-0.000818176
-0.0010166
-0.00105233
-0.00084168
-0.00123019
-0.000523326
-0.0012207
-0.000115694
-0.000801202
-2.14068e-06
-0.00011062
0.000339878
-0.000274796
0.000630714
-0.000443963
0.000834273
-0.000596993
0.000979627
-0.000717904
0.00102821
-0.000800425
0.000973063
-0.000848279
0.000840099
-0.00087015
0.000662758
-0.000876421
0.000466096
-0.000876852
0.000264974
-0.000879762
6.53722e-05
-0.000887044
-0.000135738
-0.000900674
-0.000342619
-0.000921764
-0.000560203
-0.000944584
-0.000795357
-0.000945909
-0.00105101
-0.000873802
-0.0013023
-0.000652583
-0.00144192
-0.000241886
-0.0012119
-0.000244026
-9.31706e-05
0.000433049
-0.000233813
0.000771357
-0.000372057
0.000972516
-0.000489564
0.00109713
-0.000576234
0.00111488
-0.000630337
0.00102717
-0.000657545
0.000867307
-0.000666954
0.000672166
-0.000668214
0.000467356
-0.000668695
0.000265455
-0.000672044
6.87212e-05
-0.000679995
-0.000127788
-0.000694663
-0.00032795
-0.000719094
-0.000535772
-0.000754947
-0.000759505
-0.000793018
-0.00101294
-0.000792218
-0.0013031
-0.000670773
-0.00156336
-0.000357989
-0.00152468
-0.000602015
-6.22154e-05
0.000495264
-0.000168095
0.000877236
-0.000271077
0.0010755
-0.000354688
0.00118075
-0.000413358
0.00117355
-0.000448063
0.00106187
-0.000464662
0.000883906
-0.000471004
0.000678508
-0.000474362
0.000470715
-0.000479153
0.000270245
-0.000486419
7.5987e-05
-0.000496826
-0.00011738
-0.000511381
-0.000313395
-0.00053296
-0.000514193
-0.000567058
-0.000725407
-0.00061495
-0.000965043
-0.000654682
-0.00126336
-0.000612079
-0.00160596
-0.000391862
-0.0017449
-0.000993876
-2.31159e-05
0.00051838
-8.89514e-05
0.000943071
-0.000155897
0.00114244
-0.000208658
0.00123351
-0.000244442
0.00120933
-0.000265656
0.00108309
-0.00027711
0.000895361
-0.000284142
0.00068554
-0.000291252
0.000477824
-0.000300668
0.000279662
-0.00031268
8.79989e-05
-0.000327267
-0.000102793
-0.000344461
-0.000296201
-0.000365507
-0.000493147
-0.000395516
-0.000695398
-0.000442677
-0.000917883
-0.0005016
-0.00120444
-0.000511937
-0.00159563
-0.000355551
-0.00190129
-0.00134943
1.6354e-05
0.000502026
-6.90362e-06
0.000966329
-4.00832e-05
0.00117562
-6.50753e-05
0.0012585
-8.04534e-05
0.00122471
-8.93216e-05
0.00109195
-9.56279e-05
0.000901667
-0.000102573
0.000692485
-0.000111827
0.000487078
-0.00012417
0.000292004
-0.000139842
0.000103671
-0.000159064
-8.3572e-05
-0.00018171
-0.000273555
-0.000207594
-0.000467263
-0.000239508
-0.000663484
-0.000286709
-0.000870682
-0.000355556
-0.00113559
-0.000402328
-0.00154886
-0.000302441
-0.00200117
-0.00165187
5.00012e-05
0.000452025
6.97693e-05
0.000946561
7.40971e-05
0.0011713
7.76804e-05
0.00125492
8.22062e-05
0.00122019
8.51254e-05
0.00108903
8.445e-05
0.000902342
7.93493e-05
0.000697586
6.99481e-05
0.00049648
5.64371e-05
0.000305515
3.83303e-05
0.000121778
1.50053e-05
-6.0247e-05
-1.37253e-05
-0.000244824
-4.85305e-05
-0.000432458
-8.98634e-05
-0.000622151
-0.000142223
-0.000818322
-0.000220335
-0.00105748
-0.000295466
-0.00147373
-0.000246135
-0.0020505
-0.001898
7.55101e-05
0.000376515
0.000135211
0.00088686
0.000174464
0.00113204
0.000207409
0.00122197
0.000234735
0.00119286
0.000253393
0.00107038
0.000262541
0.000893194
0.00026325
0.000696876
0.000256955
0.000502775
0.000244376
0.000318094
0.000224812
0.000141342
0.000196864
-3.22986e-05
0.000160525
-0.000208485
0.000115294
-0.000387227
6.06925e-05
-0.000567549
-8.49911e-06
-0.00074913
-9.58984e-05
-0.000970083
-0.00019222
-0.0013774
-0.000192667
-0.00205006
-0.00209067
8.69496e-05
0.000289565
0.000180793
0.000793017
0.000254918
0.00105792
0.000318997
0.00115789
0.000373758
0.0011381
0.000414852
0.00102928
0.000440666
0.000867381
0.000452597
0.000684945
0.00045298
0.000502392
0.000443378
0.000327695
0.000423626
0.000161094
0.00039066
6.67025e-07
0.000346249
-0.000164074
0.000287964
-0.000328941
0.000215848
-0.000495433
0.000131692
-0.000664975
2.63558e-05
-0.000864747
-9.61894e-05
-0.00125486
-0.000142899
-0.00200335
-0.00223357
8.05379e-05
0.000209027
0.000195186
0.000678369
0.00029939
0.000953712
0.000396704
0.00106058
0.000484404
0.0010504
0.000555869
0.000957817
0.000607165
0.000816085
0.000638591
0.00065352
0.000652271
0.000488711
0.000650071
0.000329896
0.000631893
0.000179273
0.00059736
3.51994e-05
0.000543402
-0.000110116
0.000470587
-0.000256127
0.000378117
-0.000402963
0.000268838
-0.000555696
0.000138624
-0.000734533
-1.56929e-05
-0.00110054
-9.14974e-05
-0.00192754
-0.00232507
5.76871e-05
0.00015134
0.000175765
0.000560291
0.000309549
0.000819927
0.000444626
0.000925502
0.000571253
0.000923772
0.000679561
0.000849509
0.000763
0.000732647
0.000820302
0.000596217
0.000852737
0.000456276
0.000862033
0.0003206
0.000848894
0.000192412
0.000813081
7.10118e-05
0.000750226
-4.72599e-05
0.000662014
-0.000167915
0.000547155
-0.000288104
0.000409737
-0.000418278
0.000256863
-0.000581659
9.54644e-05
-0.000939144
-1.45526e-05
-0.00181753
-0.00233962
1.51741e-05
0.000136166
0.000103867
0.000471598
0.000251542
0.000672252
0.000423718
0.000753326
0.000595912
0.000751578
0.000749376
0.000696045
0.000873837
0.000608185
0.000966328
0.000503727
0.00102637
0.000396231
0.00105517
0.0002918
0.00105335
0.000194239
0.00102148
0.000102877
0.000955137
1.90847e-05
0.000856268
-6.90467e-05
0.000724034
-0.00015587
0.000563548
-0.000257792
0.000390781
-0.000408892
0.000223834
-0.000772197
6.5222e-05
-0.00165891
-0.0022744
-5.17074e-05
0.000187874
2.00392e-05
0.000399852
0.000175571
0.00051672
0.000381916
0.000546981
0.00059747
0.000536024
0.000793617
0.000499899
0.000956702
0.0004451
0.0010826
0.000377833
0.00116956
0.000309265
0.00121927
0.000242094
0.00123211
0.000181393
0.00121011
0.00012488
0.00115555
7.36437e-05
0.00106567
2.0836e-05
0.000940889
-3.10899e-05
0.000788356
-0.000105259
0.000626644
-0.000247179
0.000445609
-0.000591162
0.000205534
-0.00141884
-0.00206886
-0.000417917
0.000605791
-0.000364216
0.000346151
-0.000124737
0.000277241
0.00015509
0.000267153
0.000429034
0.000262079
0.000682483
0.00024645
0.000904145
0.000223438
0.00108802
0.000193957
0.0012323
0.000164987
0.0013397
0.000134695
0.00141194
0.000109152
0.00145349
8.33335e-05
0.00146315
6.39806e-05
0.0014419
4.20884e-05
0.00138906
2.17443e-05
0.00130619
-2.23903e-05
0.0011922
-0.000133184
0.0010112
-0.000410169
0.000563772
-0.000971406
-0.00150509
0.000605791
0.000951941
0.00122918
0.00149634
0.00175842
0.00200487
0.0022283
0.00242226
0.00258725
0.00272194
0.00283109
0.00291443
0.00297841
0.0030205
0.00304224
0.00301985
0.00288667
0.0024765
0.00150509
)
;

boundaryField
{
    movingWall
    {
        type            calculated;
        value           uniform 0;
    }
    fixedWalls
    {
        type            calculated;
        value           uniform 0;
    }
    frontAndBack
    {
        type            empty;
    }
}


// ************************************************************************* //
