/*--------------------------------*- C++ -*----------------------------------*\
| =========                 |                                                 |
| \\      /  F ield         | OpenFOAM: The Open Source CFD Toolbox           |
|  \\    /   O peration     | Version:  2506                                  |
|   \\  /    A nd           | Website:  www.openfoam.com                      |
|    \\/     M anipulation  |                                                 |
\*---------------------------------------------------------------------------*/
FoamFile
{
    version     2.0;
    format      ascii;
    arch        "LSB;label=32;scalar=64";
    class       volVectorField;
    location    "50";
    object      U;
}
// * * * * * * * * * * * * * * * * * * * * * * * * * * * * * * * * * * * * * //

dimensions      [0 1 -1 0 0 0 0];

internalField   nonuniform List<vector> 
400
(
(0.00167347 -0.00167633 0)
(0.00481136 -0.00188298 0)
(0.00654798 -0.00119546 0)
(0.00562685 -0.000571597 0)
(0.00152885 0.000187159 0)
(-0.00685273 0.00173872 0)
(-0.0205912 0.00477197 0)
(-0.0394649 0.00870419 0)
(-0.0606757 0.0112571 0)
(-0.0789716 0.0104922 0)
(-0.089655 0.00677465 0)
(-0.0903454 0.00168504 0)
(-0.080175 -0.00358866 0)
(-0.0600175 -0.00824374 0)
(-0.0336144 -0.0108211 0)
(-0.00543299 -0.00978355 0)
(0.0165731 -0.0047915 0)
(0.0243546 0.00274957 0)
(0.016128 0.00644656 0)
(0.00430826 0.00470434 0)
(0.00170469 -0.0050327 0)
(0.00311869 -0.00399746 0)
(-0.000474965 0.000602876 0)
(-0.0113713 0.00643609 0)
(-0.031413 0.0140177 0)
(-0.0610429 0.0237022 0)
(-0.096632 0.0329554 0)
(-0.131161 0.036987 0)
(-0.158629 0.0334464 0)
(-0.175753 0.0233802 0)
(-0.181126 0.00913781 0)
(-0.174803 -0.00692095 0)
(-0.157357 -0.0230746 0)
(-0.129528 -0.036805 0)
(-0.0935768 -0.0444712 0)
(-0.0522388 -0.0417861 0)
(-0.0114993 -0.0263496 0)
(0.0167722 -0.00135014 0)
(0.0178057 0.016148 0)
(0.00553059 0.014777 0)
(-0.000254847 -0.00571903 0)
(-0.00541019 0.000855543 0)
(-0.0196208 0.0142947 0)
(-0.0444493 0.0311616 0)
(-0.0801715 0.0493001 0)
(-0.121905 0.0641264 0)
(-0.161942 0.0703487 0)
(-0.194789 0.0658703 0)
(-0.218336 0.0520976 0)
(-0.23199 0.0315177 0)
(-0.235762 0.00647892 0)
(-0.230314 -0.0209799 0)
(-0.215958 -0.048686 0)
(-0.192192 -0.0730172 0)
(-0.158746 -0.0888338 0)
(-0.115588 -0.0890981 0)
(-0.0645195 -0.0669988 0)
(-0.0138754 -0.0227592 0)
(0.00943961 0.0177972 0)
(0.00415384 0.02351 0)
(-0.00347199 0.000525138 0)
(-0.0174939 0.0172697 0)
(-0.0434332 0.041419 0)
(-0.0794856 0.0680012 0)
(-0.12262 0.0908869 0)
(-0.165385 0.103549 0)
(-0.201359 0.102633 0)
(-0.22861 0.0894663 0)
(-0.2474 0.0672072 0)
(-0.258333 0.0385612 0)
(-0.262247 0.00540627 0)
(-0.259946 -0.0309242 0)
(-0.251367 -0.0681812 0)
(-0.235465 -0.103422 0)
(-0.210247 -0.131171 0)
(-0.173011 -0.142629 0)
(-0.121199 -0.12562 0)
(-0.0567898 -0.0708708 0)
(-0.00102067 0.00343096 0)
(0.00474064 0.028152 0)
(-0.00664657 0.0148263 0)
(-0.0286522 0.0440654 0)
(-0.0631064 0.0768987 0)
(-0.104139 0.108597 0)
(-0.146817 0.130819 0)
(-0.184005 0.137808 0)
(-0.212258 0.129166 0)
(-0.231972 0.108488 0)
(-0.244436 0.0796408 0)
(-0.25138 0.0454121 0)
(-0.254492 0.00733946 0)
(-0.254699 -0.0337663 0)
(-0.251776 -0.0767431 0)
(-0.24517 -0.120273 0)
(-0.232069 -0.160386 0)
(-0.207853 -0.188631 0)
(-0.166476 -0.189677 0)
(-0.103259 -0.14274 0)
(-0.0221821 -0.0389377 0)
(0.00735798 0.0269954 0)
(-0.00848011 0.0348478 0)
(-0.0350541 0.0764876 0)
(-0.0728384 0.114632 0)
(-0.112867 0.147256 0)
(-0.150004 0.165541 0)
(-0.178773 0.165498 0)
(-0.198218 0.14935 0)
(-0.209888 0.122179 0)
(-0.215768 0.0883335 0)
(-0.218345 0.0508007 0)
(-0.21959 0.0110487 0)
(-0.220508 -0.0305008 0)
(-0.221302 -0.0743222 0)
(-0.222066 -0.120796 0)
(-0.220602 -0.168703 0)
(-0.211811 -0.212554 0)
(-0.187604 -0.23815 0)
(-0.139391 -0.218224 0)
(-0.0627139 -0.118828 0)
(0.00580661 0.0141241 0)
(-0.00825527 0.0568914 0)
(-0.0351965 0.109744 0)
(-0.071554 0.150055 0)
(-0.106662 0.180631 0)
(-0.13619 0.193294 0)
(-0.156513 0.18593 0)
(-0.168339 0.162831 0)
(-0.173783 0.130137 0)
(-0.175259 0.0926165 0)
(-0.175274 0.0532895 0)
(-0.175343 0.0133958 0)
(-0.17615 -0.0270149 0)
(-0.178246 -0.0690897 0)
(-0.182165 -0.114113 0)
(-0.187252 -0.163201 0)
(-0.189861 -0.215203 0)
(-0.182091 -0.261131 0)
(-0.153944 -0.274741 0)
(-0.0991583 -0.205617 0)
(-0.00889846 -0.0146758 0)
(-0.00610165 0.0773932 0)
(-0.0296539 0.140181 0)
(-0.0611608 0.180682 0)
(-0.089517 0.20769 0)
(-0.111435 0.21426 0)
(-0.124894 0.199968 0)
(-0.131492 0.170795 0)
(-0.133533 0.133717 0)
(-0.133478 0.093731 0)
(-0.133277 0.0535559 0)
(-0.133626 0.0139156 0)
(-0.134712 -0.0255601 0)
(-0.136996 -0.0658988 0)
(-0.14117 -0.108333 0)
(-0.147838 -0.154852 0)
(-0.155672 -0.207817 0)
(-0.158671 -0.265261 0)
(-0.146454 -0.307605 0)
(-0.112022 -0.276792 0)
(-0.0308769 -0.0752291 0)
(-0.00270812 0.0933268 0)
(-0.0203092 0.165169 0)
(-0.0449369 0.204979 0)
(-0.0660394 0.227872 0)
(-0.0812335 0.22882 0)
(-0.0896539 0.208865 0)
(-0.0931966 0.17516 0)
(-0.0939996 0.135195 0)
(-0.0941642 0.0939783 0)
(-0.094867 0.0537486 0)
(-0.0961607 0.014601 0)
(-0.0979547 -0.0242477 0)
(-0.100423 -0.0635827 0)
(-0.104072 -0.10411 0)
(-0.11005 -0.147474 0)
(-0.119078 -0.197635 0)
(-0.127986 -0.259026 0)
(-0.126288 -0.322845 0)
(-0.107295 -0.334229 0)
(-0.0372646 -0.163074 0)
(0.00122227 0.10241 0)
(-0.00888066 0.182928 0)
(-0.0255051 0.22246 0)
(-0.0394372 0.241987 0)
(-0.0488619 0.238737 0)
(-0.0536796 0.214787 0)
(-0.0555762 0.178065 0)
(-0.056202 0.136431 0)
(-0.0570778 0.0948098 0)
(-0.0587538 0.0549094 0)
(-0.0610051 0.0162697 0)
(-0.0636864 -0.022167 0)
(-0.0667931 -0.0610596 0)
(-0.07051 -0.100658 0)
(-0.0757753 -0.14169 0)
(-0.0841653 -0.187837 0)
(-0.0957716 -0.247447 0)
(-0.100495 -0.32364 0)
(-0.0950568 -0.37165 0)
(-0.0308807 -0.242106 0)
(0.00509724 0.103552 0)
(0.00296114 0.192475 0)
(-0.00534314 0.232904 0)
(-0.0124211 0.249971 0)
(-0.01678 0.243868 0)
(-0.0186344 0.21767 0)
(-0.0192797 0.179635 0)
(-0.0197587 0.137618 0)
(-0.021014 0.0962988 0)
(-0.0232202 0.0570023 0)
(-0.0260879 0.0189942 0)
(-0.0295527 -0.0188773 0)
(-0.0336322 -0.057315 0)
(-0.038275 -0.0964165 0)
(-0.0440342 -0.136148 0)
(-0.052159 -0.178962 0)
(-0.0655643 -0.234613 0)
(-0.0741518 -0.317341 0)
(-0.0811448 -0.396115 0)
(-0.022924 -0.306601 0)
(0.00840824 0.097098 0)
(0.0141573 0.193449 0)
(0.0140461 0.236407 0)
(0.0136581 0.25273 0)
(0.0142845 0.245628 0)
(0.0154854 0.218934 0)
(0.0163521 0.180911 0)
(0.0164134 0.139257 0)
(0.0152755 0.0984554 0)
(0.0129911 0.0597701 0)
(0.00982256 0.0225 0)
(0.00573072 -0.0145061 0)
(0.000571007 -0.0520757 0)
(-0.00552 -0.0903496 0)
(-0.0129501 -0.128992 0)
(-0.0218938 -0.169062 0)
(-0.0376555 -0.219579 0)
(-0.048762 -0.303668 0)
(-0.0679157 -0.407874 0)
(-0.0144652 -0.359476 0)
(0.0102553 0.084189 0)
(0.0232877 0.185879 0)
(0.0309199 0.232542 0)
(0.036824 0.249283 0)
(0.0424601 0.242417 0)
(0.0473889 0.216647 0)
(0.0507984 0.179918 0)
(0.052442 0.139581 0)
(0.0522722 0.0999547 0)
(0.0505037 0.062372 0)
(0.047372 0.0263127 0)
(0.042776 -0.00931546 0)
(0.0365434 -0.0454362 0)
(0.0287856 -0.082254 0)
(0.0187158 -0.119426 0)
(0.00745699 -0.157223 0)
(-0.0119062 -0.203267 0)
(-0.0243721 -0.285654 0)
(-0.0559119 -0.410408 0)
(-0.00616012 -0.401363 0)
(0.0097981 0.0670515 0)
(0.0288461 0.170146 0)
(0.0441016 0.221504 0)
(0.0565851 0.240493 0)
(0.0678225 0.235531 0)
(0.0774536 0.212182 0)
(0.0846161 0.17793 0)
(0.0890071 0.139664 0)
(0.0907052 0.101636 0)
(0.09002 0.0654071 0)
(0.0872884 0.0308297 0)
(0.0822503 -0.00312556 0)
(0.0747821 -0.0370481 0)
(0.0651617 -0.071542 0)
(0.0520276 -0.106429 0)
(0.0372086 -0.141622 0)
(0.0128847 -0.183148 0)
(-0.000139961 -0.262451 0)
(-0.0449118 -0.406166 0)
(0.00272728 -0.435819 0)
(0.00687085 0.0493446 0)
(0.0291582 0.148548 0)
(0.0507951 0.203004 0)
(0.0695833 0.223801 0)
(0.0869759 0.220902 0)
(0.102588 0.200757 0)
(0.115174 0.17021 0)
(0.124051 0.135402 0)
(0.129136 0.100332 0)
(0.130684 0.0666893 0)
(0.128969 0.0347154 0)
(0.124043 0.00358053 0)
(0.115446 -0.0270462 0)
(0.103793 -0.0580351 0)
(0.0868426 -0.0894494 0)
(0.0677986 -0.121919 0)
(0.0379048 -0.159847 0)
(0.0235944 -0.236428 0)
(-0.0345839 -0.398489 0)
(0.0134168 -0.464089 0)
(0.00236421 0.0346812 0)
(0.0234616 0.123639 0)
(0.0506263 0.179447 0)
(0.0762317 0.202307 0)
(0.100782 0.20194 0)
(0.123553 0.185544 0)
(0.142896 0.159531 0)
(0.157597 0.129179 0)
(0.167241 0.0981014 0)
(0.172049 0.0679937 0)
(0.171971 0.0394449 0)
(0.167729 0.0120378 0)
(0.157935 -0.0145891 0)
(0.144285 -0.0411821 0)
(0.123135 -0.0680474 0)
(0.099763 -0.0967286 0)
(0.0641102 -0.131873 0)
(0.0467176 -0.206877 0)
(-0.0228746 -0.386763 0)
(0.0284501 -0.48534 0)
(-0.00341185 0.0287481 0)
(0.00994552 0.101403 0)
(0.0368168 0.148341 0)
(0.0685331 0.16896 0)
(0.101287 0.170119 0)
(0.132869 0.157827 0)
(0.160734 0.137431 0)
(0.183152 0.1131 0)
(0.199089 0.0879134 0)
(0.208916 0.0634009 0)
(0.211787 0.0403054 0)
(0.209504 0.0184936 0)
(0.199288 -0.002408 0)
(0.184741 -0.0228893 0)
(0.160083 -0.0434314 0)
(0.133652 -0.06712 0)
(0.0923579 -0.101062 0)
(0.0695936 -0.179549 0)
(-0.00452622 -0.369853 0)
(0.0520825 -0.491536 0)
(-0.0139229 0.018648 0)
(-0.00750431 0.0882029 0)
(0.019045 0.124025 0)
(0.0561039 0.137011 0)
(0.0970777 0.136528 0)
(0.137284 0.127327 0)
(0.173373 0.11269 0)
(0.203063 0.0949596 0)
(0.224835 0.0765614 0)
(0.239822 0.0585036 0)
(0.245808 0.041744 0)
(0.246703 0.0261633 0)
(0.237427 0.0119248 0)
(0.22569 -0.00177321 0)
(0.200862 -0.0157288 0)
(0.177092 -0.0346296 0)
(0.132988 -0.0674108 0)
(0.107552 -0.145777 0)
(0.0373433 -0.326093 0)
(0.0923152 -0.455862 0)
(-0.105956 0.0825102 0)
(-0.0777028 0.0690694 0)
(-0.0485832 0.0733111 0)
(0.00363181 0.0777432 0)
(0.0569825 0.0780247 0)
(0.109544 0.0737417 0)
(0.156552 0.0664164 0)
(0.198761 0.0570398 0)
(0.230759 0.0474104 0)
(0.258818 0.0378068 0)
(0.274512 0.029204 0)
(0.289659 0.0212765 0)
(0.290072 0.0145792 0)
(0.29427 0.0082375 0)
(0.278134 0.00131043 0)
(0.271088 -0.00982968 0)
(0.231949 -0.0354091 0)
(0.217973 -0.0953501 0)
(0.150179 -0.229723 0)
(0.170667 -0.341473 0)
(0.130004 0.103768 0)
(0.158394 0.075294 0)
(0.212284 0.0533033 0)
(0.270789 0.0416828 0)
(0.323314 0.0359518 0)
(0.375666 0.0319682 0)
(0.420161 0.0289252 0)
(0.465375 0.0255847 0)
(0.498385 0.0229088 0)
(0.533568 0.019721 0)
(0.552973 0.0175664 0)
(0.578781 0.0146359 0)
(0.584949 0.0132004 0)
(0.603349 0.0103881 0)
(0.594856 0.00943103 0)
(0.603456 0.00504214 0)
(0.567746 0.000123196 0)
(0.547667 -0.018296 0)
(0.435792 -0.0504144 0)
(0.336802 -0.101396 0)
)
;

boundaryField
{
    movingWall
    {
        type            fixedValue;
        value           uniform (1 0 0);
    }
    fixedWalls
    {
        type            noSlip;
    }
    frontAndBack
    {
        type            empty;
    }
}


// ************************************************************************* //
