/*--------------------------------*- C++ -*----------------------------------*\
| =========                 |                                                 |
| \\      /  F ield         | OpenFOAM: The Open Source CFD Toolbox           |
|  \\    /   O peration     | Version:  2506                                  |
|   \\  /    A nd           | Website:  www.openfoam.com                      |
|    \\/     M anipulation  |                                                 |
\*---------------------------------------------------------------------------*/
FoamFile
{
    version     2.0;
    format      ascii;
    arch        "LSB;label=32;scalar=64";
    class       volScalarField;
    location    "400";
    object      nuTilda;
}
// * * * * * * * * * * * * * * * * * * * * * * * * * * * * * * * * * * * * * //

dimensions      [0 2 -1 0 0 0 0];

internalField   nonuniform List<scalar> 
1340
(
6.29093e-05
6.61138e-05
7.02154e-05
7.53179e-05
8.16868e-05
8.97463e-05
0.000100161
0.000113483
0.000130973
0.000154081
0.00018512
0.000227459
0.000285634
0.000367524
0.000486577
0.000664673
0.000946288
0.00139545
0.00221747
0.00358946
0.00690183
0.0127117
0.0339137
0.0760462
0.0937365
0.0946669
0.0957082
0.0992378
0.10275
0.104484
0.10446
0.103211
0.100844
0.0974134
0.0927936
6.00006e-05
5.73605e-05
5.46053e-05
5.19067e-05
4.91579e-05
4.63758e-05
4.36718e-05
3.8071e-05
3.78508e-05
3.76496e-05
3.74809e-05
3.72852e-05
3.71033e-05
3.69672e-05
3.68471e-05
3.67951e-05
3.68408e-05
3.69025e-05
3.7506e-05
3.96453e-05
4.42923e-05
5.39069e-05
7.20408e-05
0.000107832
0.000173924
0.000318837
0.00058939
0.00131706
0.00282586
0.00708056
0.0204177
0.0394404
0.0632812
0.092557
0.123708
0.148732
0.162672
0.167957
0.168779
0.167199
0.163854
0.159345
3.8244e-05
3.84755e-05
3.86703e-05
3.89311e-05
3.91945e-05
3.9457e-05
4.03655e-05
4.03971e-05
4.04298e-05
4.04648e-05
4.05077e-05
4.05556e-05
4.06102e-05
4.06739e-05
4.07488e-05
4.0836e-05
4.09392e-05
4.10653e-05
4.12039e-05
4.14525e-05
4.14661e-05
4.07239e-05
3.79329e-05
3.52298e-05
1.18566e-05
0.000122195
7.02313e-05
0.000150412
0.000129365
0.000794528
0.00323214
0.0076704
0.0156444
0.0310873
0.0573819
0.0937452
0.132758
0.164472
0.184898
0.196753
0.203455
4.03413e-05
4.03066e-05
4.02799e-05
4.02404e-05
4.02063e-05
4.01697e-05
4.00344e-05
4.00299e-05
4.00288e-05
4.00295e-05
4.00312e-05
4.00362e-05
4.00452e-05
4.00577e-05
4.00764e-05
4.01015e-05
4.01347e-05
4.0178e-05
4.02343e-05
4.03054e-05
4.03986e-05
4.05027e-05
4.03231e-05
3.95466e-05
3.55781e-05
2.61256e-05
3.49462e-08
3.33541e-05
2.60598e-05
0.000163101
0.000675342
0.001689
0.00145686
0.00175474
0.00372978
0.0133463
0.0355178
0.0727047
0.1188
0.161332
0.193236
4.00356e-05
4.004e-05
4.00458e-05
4.00498e-05
4.00569e-05
4.00808e-05
4.00819e-05
4.00824e-05
4.0084e-05
4.00869e-05
4.00905e-05
4.00955e-05
4.01021e-05
4.01108e-05
4.01222e-05
4.01371e-05
4.01566e-05
4.01822e-05
4.0215e-05
4.02594e-05
4.0311e-05
4.03911e-05
4.04695e-05
4.07805e-05
4.04274e-05
3.43327e-05
1.9363e-05
7.5075e-06
2.80773e-06
0
0
0.000311889
0.000381296
0.000835768
0.000418849
0.00155577
0.00795186
0.0295696
0.0707274
0.124151
4.00809e-05
4.00784e-05
4.00797e-05
4.00777e-05
4.00794e-05
4.00695e-05
4.00691e-05
4.00696e-05
4.00701e-05
4.00703e-05
4.0071e-05
4.00722e-05
4.00736e-05
4.00758e-05
4.0079e-05
4.00833e-05
4.00892e-05
4.00973e-05
4.01082e-05
4.01232e-05
4.01432e-05
4.01718e-05
4.02e-05
4.0264e-05
4.0447e-05
4.0821e-05
3.91196e-05
3.35838e-05
1.44833e-05
7.33106e-06
5.19665e-06
3.40991e-06
3.98867e-09
0
9.28375e-05
0.000349088
0.00181508
0.000380983
0.00875822
0.0381048
4.00686e-05
4.00673e-05
4.0069e-05
4.00686e-05
4.00699e-05
4.00704e-05
4.00706e-05
4.00707e-05
4.0071e-05
4.00711e-05
4.00715e-05
4.00721e-05
4.0073e-05
4.00743e-05
4.00762e-05
4.00789e-05
4.00827e-05
4.00881e-05
4.00954e-05
4.01057e-05
4.01196e-05
4.01347e-05
4.01508e-05
4.01674e-05
4.03558e-05
4.08171e-05
4.09862e-05
3.90308e-05
3.36757e-05
2.61463e-05
1.68833e-05
1.94564e-08
6.05747e-06
1.95928e-06
0
0
8.68834e-05
0.00205852
0.00168648
4.00691e-05
4.00671e-05
4.00678e-05
4.00672e-05
4.00692e-05
4.00694e-05
4.00699e-05
4.00699e-05
4.00696e-05
4.00693e-05
4.0069e-05
4.00687e-05
4.00687e-05
4.00687e-05
4.00688e-05
4.00693e-05
4.007e-05
4.0071e-05
4.00727e-05
4.00752e-05
4.00789e-05
4.00838e-05
4.00879e-05
4.00896e-05
4.01035e-05
4.01654e-05
4.03671e-05
4.09157e-05
4.11491e-05
4.06632e-05
3.92241e-05
3.51031e-05
2.93522e-05
9.369e-06
7.20107e-06
1.45466e-06
0
0
0.000390153
4.00681e-05
4.00659e-05
4.00659e-05
4.00652e-05
4.0069e-05
4.00693e-05
4.00695e-05
4.00692e-05
4.00688e-05
4.00683e-05
4.00679e-05
4.00677e-05
4.00675e-05
4.00673e-05
4.00674e-05
4.00676e-05
4.0068e-05
4.00688e-05
4.00699e-05
4.00717e-05
4.00743e-05
4.00778e-05
4.00813e-05
4.00843e-05
4.00852e-05
4.00939e-05
4.00879e-05
4.01563e-05
4.0433e-05
4.08618e-05
4.14364e-05
4.19884e-05
4.18413e-05
3.80058e-05
3.26488e-05
6.83418e-06
5.699e-06
0
0
4.0068e-05
4.00656e-05
4.0065e-05
4.00678e-05
4.00673e-05
4.00667e-05
4.00663e-05
4.00659e-05
4.00656e-05
4.00653e-05
4.00651e-05
4.00649e-05
4.00648e-05
4.00648e-05
4.00648e-05
4.00649e-05
4.00651e-05
4.00655e-05
4.00666e-05
4.0068e-05
4.00739e-05
4.00775e-05
4.00563e-05
4.00463e-05
4.01087e-05
4.03435e-05
4.08326e-05
4.1494e-05
4.21731e-05
4.25719e-05
3.81271e-05
2.56249e-05
7.85976e-06
0
4.00657e-05
4.00653e-05
4.0065e-05
4.00647e-05
4.00646e-05
4.00644e-05
4.00644e-05
4.00645e-05
4.00647e-05
4.00651e-05
4.00657e-05
4.00666e-05
4.00677e-05
4.00687e-05
4.00695e-05
4.00705e-05
4.00754e-05
4.00758e-05
4.00586e-05
4.00301e-05
4.0017e-05
4.00832e-05
4.0265e-05
4.07299e-05
4.14672e-05
4.27261e-05
4.18971e-05
3.29117e-05
8.66248e-06
4.00641e-05
4.00638e-05
4.00636e-05
4.00635e-05
4.00634e-05
4.00633e-05
4.00633e-05
4.00634e-05
4.00635e-05
4.00638e-05
4.00642e-05
4.00649e-05
4.0066e-05
4.00672e-05
4.00694e-05
4.00738e-05
4.00755e-05
4.00683e-05
4.00478e-05
4.00249e-05
4.00084e-05
4.00594e-05
4.02e-05
4.082e-05
4.20208e-05
4.29162e-05
3.56081e-05
4.00632e-05
4.00631e-05
4.0063e-05
4.00629e-05
4.00629e-05
4.0063e-05
4.00631e-05
4.00633e-05
4.00636e-05
4.00641e-05
4.00647e-05
4.00654e-05
4.00663e-05
4.00673e-05
4.00694e-05
4.00727e-05
4.00757e-05
4.00748e-05
4.00675e-05
4.00508e-05
4.00278e-05
3.99976e-05
4.00171e-05
4.03501e-05
4.13087e-05
4.40847e-05
4.00627e-05
4.00626e-05
4.00626e-05
4.00626e-05
4.00626e-05
4.00627e-05
4.00628e-05
4.0063e-05
4.00633e-05
4.00637e-05
4.00643e-05
4.00651e-05
4.0066e-05
4.00672e-05
4.00692e-05
4.0072e-05
4.00753e-05
4.00778e-05
4.00782e-05
4.00723e-05
4.00575e-05
4.00108e-05
3.99779e-05
4.00383e-05
4.11279e-05
4.00624e-05
4.00624e-05
4.00625e-05
4.00625e-05
4.00626e-05
4.00627e-05
4.00628e-05
4.0063e-05
4.00632e-05
4.00635e-05
4.0064e-05
4.00646e-05
4.00653e-05
4.00662e-05
4.00675e-05
4.00693e-05
4.00719e-05
4.00749e-05
4.00786e-05
4.0082e-05
4.00843e-05
4.0081e-05
4.00264e-05
4.00818e-05
3.91858e-05
4.00624e-05
4.00625e-05
4.00626e-05
4.00627e-05
4.00628e-05
4.00629e-05
4.0063e-05
4.00632e-05
4.00634e-05
4.00638e-05
4.00643e-05
4.00649e-05
4.00656e-05
4.00666e-05
4.0068e-05
4.00698e-05
4.00722e-05
4.0075e-05
4.00788e-05
4.00821e-05
4.00951e-05
4.00656e-05
4.01865e-05
3.95349e-05
4.00626e-05
4.00627e-05
4.00628e-05
4.00629e-05
4.0063e-05
4.00631e-05
4.00633e-05
4.00635e-05
4.00638e-05
4.00642e-05
4.00646e-05
4.00653e-05
4.00661e-05
4.00672e-05
4.00687e-05
4.00706e-05
4.00728e-05
4.00757e-05
4.0078e-05
4.00866e-05
4.00835e-05
4.01075e-05
4.02325e-05
4.00627e-05
4.00629e-05
4.0063e-05
4.00631e-05
4.00632e-05
4.00633e-05
4.00635e-05
4.00636e-05
4.00639e-05
4.00642e-05
4.00646e-05
4.00651e-05
4.00658e-05
4.00667e-05
4.0068e-05
4.00696e-05
4.00715e-05
4.00738e-05
4.00764e-05
4.00782e-05
4.00944e-05
4.00297e-05
4.045e-05
4.0063e-05
4.00632e-05
4.00633e-05
4.00634e-05
4.00635e-05
4.00636e-05
4.00638e-05
4.0064e-05
4.00642e-05
4.00646e-05
4.0065e-05
4.00656e-05
4.00664e-05
4.00675e-05
4.00688e-05
4.00706e-05
4.00725e-05
4.00755e-05
4.00746e-05
4.00946e-05
4.00251e-05
4.03266e-05
4.00632e-05
4.00633e-05
4.00635e-05
4.00636e-05
4.00637e-05
4.00638e-05
4.0064e-05
4.00642e-05
4.00644e-05
4.00647e-05
4.0065e-05
4.00655e-05
4.00662e-05
4.00671e-05
4.00683e-05
4.00698e-05
4.00714e-05
4.00742e-05
4.00739e-05
4.00871e-05
4.00551e-05
4.0157e-05
4.00635e-05
4.00637e-05
4.00638e-05
4.00639e-05
4.00641e-05
4.00642e-05
4.00644e-05
4.00646e-05
4.00648e-05
4.00651e-05
4.00655e-05
4.00661e-05
4.00669e-05
4.00679e-05
4.00692e-05
4.00707e-05
4.00729e-05
4.00741e-05
4.00794e-05
4.00786e-05
4.00676e-05
4.00637e-05
4.00639e-05
4.0064e-05
4.00642e-05
4.00643e-05
4.00645e-05
4.00646e-05
4.00648e-05
4.0065e-05
4.00653e-05
4.00657e-05
4.00661e-05
4.00668e-05
4.00677e-05
4.00688e-05
4.00702e-05
4.00719e-05
4.0074e-05
4.00751e-05
4.00859e-05
4.00497e-05
4.00641e-05
4.00643e-05
4.00644e-05
4.00646e-05
4.00647e-05
4.00649e-05
4.00651e-05
4.00653e-05
4.00655e-05
4.00658e-05
4.00663e-05
4.00668e-05
4.00676e-05
4.00686e-05
4.00698e-05
4.00712e-05
4.00734e-05
4.00738e-05
4.00835e-05
4.00607e-05
4.00643e-05
4.00645e-05
4.00646e-05
4.00648e-05
4.0065e-05
4.00651e-05
4.00653e-05
4.00655e-05
4.00658e-05
4.0066e-05
4.00664e-05
4.00669e-05
4.00676e-05
4.00685e-05
4.00695e-05
4.00708e-05
4.00727e-05
4.00736e-05
4.00793e-05
4.00728e-05
4.00645e-05
4.00647e-05
4.00649e-05
4.00651e-05
4.00652e-05
4.00654e-05
4.00656e-05
4.00658e-05
4.0066e-05
4.00663e-05
4.00666e-05
4.00671e-05
4.00677e-05
4.00684e-05
4.00694e-05
4.00705e-05
4.00721e-05
4.00735e-05
4.00763e-05
4.00783e-05
4.00649e-05
4.00651e-05
4.00653e-05
4.00655e-05
4.00657e-05
4.00659e-05
4.00661e-05
4.00663e-05
4.00666e-05
4.00669e-05
4.00673e-05
4.00678e-05
4.00685e-05
4.00693e-05
4.00704e-05
4.00717e-05
4.00733e-05
4.0075e-05
4.00789e-05
4.00652e-05
4.00654e-05
4.00656e-05
4.00658e-05
4.0066e-05
4.00662e-05
4.00664e-05
4.00667e-05
4.00669e-05
4.00672e-05
4.00676e-05
4.0068e-05
4.00686e-05
4.00694e-05
4.00703e-05
4.00715e-05
4.0073e-05
4.00745e-05
4.00778e-05
4.00654e-05
4.00656e-05
4.00658e-05
4.00661e-05
4.00663e-05
4.00665e-05
4.00667e-05
4.0067e-05
4.00672e-05
4.00675e-05
4.00679e-05
4.00683e-05
4.00688e-05
4.00695e-05
4.00704e-05
4.00714e-05
4.00728e-05
4.00742e-05
4.00767e-05
4.00659e-05
4.00661e-05
4.00663e-05
4.00666e-05
4.00668e-05
4.00671e-05
4.00673e-05
4.00676e-05
4.00678e-05
4.00682e-05
4.00686e-05
4.00691e-05
4.00697e-05
4.00705e-05
4.00714e-05
4.00727e-05
4.00741e-05
4.0076e-05
4.00661e-05
4.00664e-05
4.00666e-05
4.00669e-05
4.00671e-05
4.00674e-05
4.00676e-05
4.00679e-05
4.00682e-05
4.00685e-05
4.00689e-05
4.00693e-05
4.00699e-05
4.00706e-05
4.00715e-05
4.00726e-05
4.0074e-05
4.00757e-05
4.00663e-05
4.00666e-05
4.00669e-05
4.00672e-05
4.00674e-05
4.00677e-05
4.0068e-05
4.00682e-05
4.00685e-05
4.00688e-05
4.00692e-05
4.00696e-05
4.00702e-05
4.00708e-05
4.00716e-05
4.00727e-05
4.00739e-05
4.00755e-05
4.00668e-05
4.00672e-05
4.00674e-05
4.00677e-05
4.0068e-05
4.00683e-05
4.00686e-05
4.00689e-05
4.00692e-05
4.00695e-05
4.007e-05
4.00705e-05
4.00711e-05
4.00718e-05
4.00728e-05
4.00739e-05
4.00754e-05
4.00671e-05
4.00674e-05
4.00677e-05
4.0068e-05
4.00684e-05
4.00687e-05
4.00689e-05
4.00692e-05
4.00696e-05
4.00699e-05
4.00703e-05
4.00708e-05
4.00714e-05
4.00721e-05
4.0073e-05
4.0074e-05
4.00754e-05
4.00673e-05
4.00677e-05
4.0068e-05
4.00683e-05
4.00687e-05
4.0069e-05
4.00693e-05
4.00696e-05
4.00699e-05
4.00703e-05
4.00707e-05
4.00711e-05
4.00717e-05
4.00724e-05
4.00732e-05
4.00742e-05
4.00679e-05
4.00683e-05
4.00686e-05
4.0069e-05
4.00693e-05
4.00696e-05
4.007e-05
4.00703e-05
4.00707e-05
4.00711e-05
4.00715e-05
4.0072e-05
4.00727e-05
4.00735e-05
4.00744e-05
4.00682e-05
4.00686e-05
4.00689e-05
4.00693e-05
4.00697e-05
4.007e-05
4.00703e-05
4.00707e-05
4.0071e-05
4.00714e-05
4.00719e-05
4.00724e-05
4.0073e-05
4.00738e-05
4.00746e-05
4.00684e-05
4.00688e-05
4.00692e-05
4.00696e-05
4.007e-05
4.00703e-05
4.00707e-05
4.0071e-05
4.00714e-05
4.00718e-05
4.00723e-05
4.00728e-05
4.00734e-05
4.00741e-05
4.00749e-05
4.00686e-05
4.00691e-05
4.00695e-05
4.00699e-05
4.00703e-05
4.00707e-05
4.0071e-05
4.00714e-05
4.00718e-05
4.00722e-05
4.00727e-05
4.00732e-05
4.00738e-05
4.00745e-05
4.00753e-05
4.00689e-05
4.00693e-05
4.00698e-05
4.00702e-05
4.00706e-05
4.0071e-05
4.00714e-05
4.00718e-05
4.00722e-05
4.00726e-05
4.00731e-05
4.00736e-05
4.00742e-05
4.00748e-05
4.00756e-05
4.00695e-05
4.007e-05
4.00705e-05
4.00709e-05
4.00713e-05
4.00717e-05
4.00721e-05
4.00726e-05
4.0073e-05
4.00735e-05
4.0074e-05
4.00746e-05
4.00752e-05
4.0076e-05
4.00697e-05
4.00702e-05
4.00707e-05
4.00712e-05
4.00716e-05
4.0072e-05
4.00725e-05
4.00729e-05
4.00734e-05
4.00739e-05
4.00744e-05
4.0075e-05
4.00756e-05
4.00764e-05
4.00699e-05
4.00704e-05
4.00709e-05
4.00714e-05
4.00719e-05
4.00723e-05
4.00728e-05
4.00732e-05
4.00737e-05
4.00742e-05
4.00748e-05
4.00754e-05
4.0076e-05
4.00768e-05
4.007e-05
4.00705e-05
4.00711e-05
4.00716e-05
4.00721e-05
4.00725e-05
4.0073e-05
4.00735e-05
4.0074e-05
4.00745e-05
4.00751e-05
4.00757e-05
4.00764e-05
4.00771e-05
4.00701e-05
4.00706e-05
4.00712e-05
4.00717e-05
4.00722e-05
4.00727e-05
4.00732e-05
4.00737e-05
4.00743e-05
4.00748e-05
4.00754e-05
4.00761e-05
4.00767e-05
4.00775e-05
4.00707e-05
4.00712e-05
4.00718e-05
4.00723e-05
4.00729e-05
4.00734e-05
4.00739e-05
4.00745e-05
4.00751e-05
4.00757e-05
4.00763e-05
4.0077e-05
4.00778e-05
4.00706e-05
4.00712e-05
4.00718e-05
4.00724e-05
4.00729e-05
4.00735e-05
4.0074e-05
4.00746e-05
4.00752e-05
4.00759e-05
4.00766e-05
4.00773e-05
4.00705e-05
4.00711e-05
4.00717e-05
4.00723e-05
4.00729e-05
4.00735e-05
4.00741e-05
4.00747e-05
4.00754e-05
4.0076e-05
4.00767e-05
4.00775e-05
4.00703e-05
4.00709e-05
4.00716e-05
4.00722e-05
4.00728e-05
4.00734e-05
4.0074e-05
4.00747e-05
4.00754e-05
4.00761e-05
4.00768e-05
4.00776e-05
4.007e-05
4.00707e-05
4.00713e-05
4.0072e-05
4.00726e-05
4.00732e-05
4.00739e-05
4.00746e-05
4.00753e-05
4.0076e-05
4.00768e-05
4.00776e-05
4.00703e-05
4.0071e-05
4.00716e-05
4.00723e-05
4.0073e-05
4.00736e-05
4.00744e-05
4.00751e-05
4.00759e-05
4.00767e-05
4.00776e-05
4.00697e-05
4.00704e-05
4.00711e-05
4.00718e-05
4.00725e-05
4.00733e-05
4.0074e-05
4.00748e-05
4.00756e-05
4.00765e-05
4.00774e-05
4.0069e-05
4.00698e-05
4.00705e-05
4.00712e-05
4.0072e-05
4.00727e-05
4.00735e-05
4.00743e-05
4.00752e-05
4.00761e-05
4.0077e-05
4.00682e-05
4.0069e-05
4.00697e-05
4.00705e-05
4.00712e-05
4.0072e-05
4.00728e-05
4.00737e-05
4.00746e-05
4.00755e-05
4.00765e-05
4.00672e-05
4.0068e-05
4.00688e-05
4.00695e-05
4.00703e-05
4.00712e-05
4.0072e-05
4.00729e-05
4.00738e-05
4.00748e-05
4.00758e-05
4.0066e-05
4.00668e-05
4.00676e-05
4.00684e-05
4.00692e-05
4.00701e-05
4.0071e-05
4.00719e-05
4.00729e-05
4.00739e-05
4.00646e-05
4.00654e-05
4.00663e-05
4.00671e-05
4.00679e-05
4.00688e-05
4.00698e-05
4.00707e-05
4.00717e-05
4.00728e-05
4.00639e-05
4.00647e-05
4.00656e-05
4.00665e-05
4.00674e-05
4.00683e-05
4.00693e-05
4.00704e-05
4.00715e-05
4.00621e-05
4.0063e-05
4.00639e-05
4.00648e-05
4.00657e-05
4.00667e-05
4.00677e-05
4.00688e-05
4.00699e-05
4.00601e-05
4.0061e-05
4.00619e-05
4.00628e-05
4.00638e-05
4.00648e-05
4.00659e-05
4.0067e-05
4.00682e-05
4.00577e-05
4.00586e-05
4.00596e-05
4.00605e-05
4.00615e-05
4.00626e-05
4.00637e-05
4.00649e-05
4.00661e-05
4.00548e-05
4.00557e-05
4.00566e-05
4.00577e-05
4.00587e-05
4.00598e-05
4.0061e-05
4.00622e-05
4.00635e-05
4.00512e-05
4.00521e-05
4.0053e-05
4.00541e-05
4.00552e-05
4.00563e-05
4.00576e-05
4.00589e-05
4.0047e-05
4.00479e-05
4.00488e-05
4.00498e-05
4.00509e-05
4.00521e-05
4.00534e-05
4.00547e-05
4.00426e-05
4.00434e-05
4.00443e-05
4.00453e-05
4.00464e-05
4.00475e-05
4.00487e-05
4.005e-05
4.00389e-05
4.00398e-05
4.00407e-05
4.00417e-05
4.00428e-05
4.0044e-05
4.00452e-05
4.00343e-05
4.00351e-05
4.0036e-05
4.0037e-05
4.0038e-05
4.00391e-05
4.00403e-05
4.00294e-05
4.00302e-05
4.00311e-05
4.00321e-05
4.00331e-05
4.00342e-05
4.00354e-05
4.00248e-05
4.00255e-05
4.00264e-05
4.00274e-05
4.00284e-05
4.00296e-05
4.00308e-05
4.00205e-05
4.00212e-05
4.0022e-05
4.00228e-05
4.00238e-05
4.00249e-05
4.00161e-05
4.00168e-05
4.00175e-05
4.00182e-05
4.00191e-05
4.00201e-05
4.00118e-05
4.00123e-05
4.00129e-05
4.00136e-05
4.00144e-05
4.00151e-05
4.00078e-05
4.00082e-05
4.00086e-05
4.00091e-05
4.00097e-05
4.00103e-05
4.00055e-05
4.00056e-05
4.00057e-05
4.00058e-05
4.0006e-05
4.00063e-05
4.00082e-05
4.00081e-05
4.00079e-05
4.00077e-05
4.00074e-05
4.00072e-05
4.00132e-05
4.00131e-05
4.00129e-05
4.00127e-05
4.00125e-05
4.00189e-05
4.0019e-05
4.00189e-05
4.00186e-05
4.00186e-05
4.00249e-05
4.00252e-05
4.00255e-05
4.00257e-05
4.00259e-05
4.00312e-05
4.00317e-05
4.00318e-05
4.00315e-05
4.00358e-05
4.00373e-05
4.00392e-05
4.00412e-05
4.0057e-05
4.0058e-05
4.00591e-05
4.00596e-05
)
;

boundaryField
{
    inlet
    {
        type            freestream;
        freestreamValue uniform 4e-05;
        value           nonuniform List<scalar> 4(4.0057e-05 4.0058e-05 4.00591e-05 4.00596e-05);
    }
    outlet
    {
        type            freestream;
        freestreamValue nonuniform List<scalar> 0();
        value           nonuniform List<scalar> 0();
    }
    walls
    {
        type            fixedValue;
        value           uniform 0;
    }
    frontAndBack
    {
        type            empty;
    }
    procBoundary5to0
    {
        type            processor;
        value           nonuniform List<scalar> 4(4.00689e-05 4.00679e-05 4.00656e-05 4.00644e-05);
    }
    procBoundary5to1
    {
        type            processor;
        value           nonuniform List<scalar> 
13
(
4.15912e-05
3.97066e-05
3.97066e-05
4.01369e-05
4.00607e-05
4.00607e-05
4.00771e-05
4.00718e-05
4.00718e-05
4.00703e-05
4.00682e-05
4.00639e-05
4.00639e-05
)
;
    }
    procBoundary5to4
    {
        type            processor;
        value           nonuniform List<scalar> 
95
(
4.00689e-05
4.00689e-05
4.00684e-05
4.00684e-05
4.00669e-05
4.00663e-05
4.00663e-05
4.00648e-05
4.00644e-05
4.00644e-05
4.00634e-05
4.00634e-05
4.00627e-05
4.00627e-05
4.00624e-05
4.00623e-05
4.00623e-05
4.00625e-05
4.00625e-05
4.00626e-05
4.00629e-05
4.00629e-05
4.0063e-05
4.00634e-05
4.00634e-05
4.00635e-05
4.00639e-05
4.00639e-05
4.00641e-05
4.00643e-05
4.00647e-05
4.00647e-05
4.00649e-05
4.00651e-05
4.00656e-05
4.00656e-05
4.00658e-05
4.0066e-05
4.00665e-05
4.00665e-05
4.00668e-05
4.0067e-05
4.00676e-05
4.00676e-05
4.00678e-05
4.0068e-05
4.00682e-05
4.00684e-05
4.00691e-05
4.00691e-05
4.00692e-05
4.00693e-05
4.00694e-05
4.00695e-05
4.00701e-05
4.00701e-05
4.007e-05
4.00698e-05
4.00696e-05
4.00693e-05
4.00695e-05
4.00695e-05
4.0069e-05
4.00683e-05
4.00674e-05
4.00664e-05
4.00651e-05
4.00637e-05
4.0063e-05
4.0063e-05
4.00612e-05
4.00592e-05
4.00568e-05
4.00538e-05
4.00502e-05
4.00461e-05
4.00418e-05
4.00381e-05
4.00381e-05
4.00336e-05
4.00287e-05
4.0024e-05
4.00198e-05
4.00156e-05
4.00114e-05
4.00075e-05
4.00055e-05
4.00083e-05
4.00132e-05
4.00132e-05
4.00188e-05
4.00245e-05
4.00309e-05
4.00342e-05
4.00557e-05
)
;
    }
    procBoundary5to6
    {
        type            processor;
        value           nonuniform List<scalar> 
86
(
0.0869111
0.153843
0.206338
0.215374
0.175081
0.0933198
0.0217562
0.00542557
0
0
0
7.83554e-06
3.14414e-05
4.65771e-05
4.51645e-05
4.07069e-05
3.84482e-05
3.85314e-05
3.93866e-05
4.00168e-05
4.02352e-05
4.02181e-05
4.01455e-05
4.00962e-05
4.00777e-05
4.00754e-05
4.00771e-05
4.00782e-05
4.00783e-05
4.00778e-05
4.00774e-05
4.00771e-05
4.00769e-05
4.00755e-05
4.00755e-05
4.00756e-05
4.00758e-05
4.0076e-05
4.00763e-05
4.00766e-05
4.00769e-05
4.00773e-05
4.00776e-05
4.0078e-05
4.00784e-05
4.00787e-05
4.00781e-05
4.00781e-05
4.00783e-05
4.00785e-05
4.00785e-05
4.00785e-05
4.00783e-05
4.0078e-05
4.00776e-05
4.00769e-05
4.0075e-05
4.0075e-05
4.00739e-05
4.00726e-05
4.00711e-05
4.00694e-05
4.00674e-05
4.00649e-05
4.00602e-05
4.00602e-05
4.00561e-05
4.00515e-05
4.00466e-05
4.00416e-05
4.00367e-05
4.00321e-05
4.00261e-05
4.00261e-05
4.00211e-05
4.0016e-05
4.0011e-05
4.00066e-05
4.0007e-05
4.00122e-05
4.00184e-05
4.00261e-05
4.00321e-05
4.00321e-05
4.00425e-05
4.00602e-05
)
;
    }
}


// ************************************************************************* //
