/*--------------------------------*- C++ -*----------------------------------*\
| =========                 |                                                 |
| \\      /  F ield         | OpenFOAM: The Open Source CFD Toolbox           |
|  \\    /   O peration     | Version:  2506                                  |
|   \\  /    A nd           | Website:  www.openfoam.com                      |
|    \\/     M anipulation  |                                                 |
\*---------------------------------------------------------------------------*/
FoamFile
{
    version     2.0;
    format      ascii;
    arch        "LSB;label=32;scalar=64";
    class       volScalarField;
    location    "400";
    object      turbulenceProperties:I;
}
// * * * * * * * * * * * * * * * * * * * * * * * * * * * * * * * * * * * * * //

dimensions      [0 0 0 0 0 0 0];

internalField   nonuniform List<scalar> 
1340
(
0.00417416
0.00414921
0.00416936
0.00429778
0.00446111
0.00469043
0.00500339
0.00538906
0.00586657
0.00645473
0.00717317
0.00806412
0.00918814
0.0106284
0.0125285
0.015086
0.0186931
0.0238217
0.0320095
0.0443817
0.0693751
0.11145
0.228033
0.420893
0.507723
0.466895
0.408357
0.366433
0.339401
0.322255
0.311167
0.303447
0.298981
0.296875
0.296939
0.00422557
0.0043826
0.0045635
0.00498546
0.00568732
0.00704485
0.0101849
0.00181802
0.00166489
0.00152729
0.00139741
0.00127677
0.00116854
0.00106937
0.000977946
0.000896852
0.000824206
0.000759314
0.000711283
0.000692094
0.000711364
0.000795722
0.00097981
0.00132922
0.00190103
0.00294599
0.00464704
0.00815795
0.0141385
0.0264679
0.0520303
0.0805228
0.108854
0.136986
0.161322
0.175665
0.177679
0.171228
0.161865
0.153532
0.147634
0.144815
0.00198376
0.00219116
0.00247007
0.0028681
0.00346346
0.00439779
0.00157882
0.00145486
0.00133338
0.00121912
0.00112084
0.00103368
0.000958232
0.000895784
0.000844886
0.000805013
0.000774131
0.000752506
0.00073922
0.000734132
0.000729851
0.000715252
0.000666955
0.000617064
0.000207436
0.00151438
0.000951854
0.00122346
0.000428488
0.00278688
0.00822273
0.0155072
0.0255283
0.0403186
0.0602576
0.0834416
0.105712
0.122345
0.131136
0.134232
0.13553
0.00172245
0.00189317
0.00212897
0.0024435
0.00286721
0.00342281
0.00149034
0.0013868
0.00128708
0.00119638
0.00111327
0.00103596
0.000965533
0.000900589
0.000840981
0.000786002
0.000735047
0.000687288
0.000641877
0.000598315
0.000555819
0.000512324
0.000468788
0.00042828
0.000373593
0.000283713
4.1608e-07
0.00043385
0.000366962
0.00150819
0.00291456
0.00410876
0.00314471
0.00219089
0.00392412
0.0125856
0.0276173
0.0484195
0.0716631
0.0923772
0.107732
0.00160011
0.00172814
0.00189097
0.00210534
0.00237237
0.00131461
0.0012294
0.00114556
0.00106632
0.000993194
0.000924208
0.000860469
0.000802014
0.000748385
0.000700075
0.000656908
0.000618874
0.000586192
0.000558871
0.000536883
0.00051937
0.000503038
0.000485223
0.000467392
0.000441762
0.000364144
0.00020736
8.47773e-05
3.41333e-05
0
0
0.00200788
0.00225654
0.00333715
0.00224991
0.00372419
0.00519222
0.0134804
0.0343037
0.0593319
0.00140572
0.00150916
0.00163746
0.0017953
0.00197622
0.00119682
0.00112923
0.0010615
0.000997579
0.000938218
0.000881796
0.000829332
0.000780562
0.000735072
0.00069283
0.000653433
0.000616638
0.000582302
0.000550185
0.000520099
0.00049099
0.000461052
0.000431006
0.000402703
0.000377754
0.000357631
0.000327408
0.000278492
0.000124116
6.47311e-05
4.68393e-05
3.14547e-05
3.84776e-08
0
0.00085923
0.00190992
0.00454033
0.00198715
0.00739307
0.011303
0.00126679
0.00134423
0.00143799
0.00155024
0.00107725
0.00102236
0.00096646
0.000912783
0.000862546
0.000814035
0.000768244
0.000725226
0.000684565
0.000646395
0.000610574
0.000576987
0.000545714
0.000516799
0.00049023
0.000466248
0.000445446
0.000427046
0.00040934
0.000391588
0.00037519
0.000361704
0.000347409
0.000318598
0.000265703
0.000198328
0.000122568
1.36397e-07
4.21159e-05
1.40642e-05
0
0
0.000743926
0.00432492
0.0038505
0.00113336
0.00119407
0.00126593
0.00134886
0.000977361
0.000933365
0.000887888
0.000843818
0.000802387
0.000762034
0.000723782
0.000687674
0.000653353
0.000620946
0.000590243
0.00056113
0.000533581
0.000507511
0.000482849
0.000459604
0.000437254
0.00041501
0.00039332
0.000373148
0.000355567
0.000341697
0.000332039
0.000325662
0.000314468
0.000294693
0.000267084
0.000225443
0.000179916
5.59369e-05
4.2273e-05
8.62873e-06
0
0
0.00150619
0.00102152
0.00106852
0.00112331
0.00118507
0.00088776
0.000852073
0.000814683
0.000778015
0.000743366
0.000709269
0.000676651
0.000645613
0.000615834
0.00058743
0.000560269
0.000534246
0.000509376
0.000485628
0.000463031
0.000441565
0.00042131
0.000402602
0.000385281
0.000369113
0.000354138
0.000340938
0.000329765
0.000320272
0.000310985
0.000299739
0.000286937
0.000273817
0.00025854
0.000225396
0.000187212
3.86531e-05
3.2005e-05
0
0
0.000923122
0.000960164
0.0010028
0.000690657
0.000662071
0.000634566
0.000608266
0.000582904
0.000558591
0.000535196
0.000512632
0.000490906
0.000469983
0.000449863
0.000430545
0.000412093
0.000394282
0.000376984
0.000360575
0.00034563
0.000332688
0.000321867
0.000312138
0.000301873
0.000290066
0.000277725
0.000267165
0.000259331
0.000253146
0.000246223
0.000214994
0.000142971
4.39364e-05
0
0.000594551
0.000572147
0.000550397
0.00052942
0.000509094
0.000489333
0.000470143
0.000451488
0.00043339
0.000415882
0.000398987
0.000382801
0.00036743
0.000352954
0.000339608
0.000327608
0.000317065
0.000307363
0.000297093
0.000285231
0.000272274
0.000260253
0.000250824
0.000244928
0.00024172
0.000242043
0.00023248
0.000182607
4.87504e-05
0.000520016
0.000502037
0.000484527
0.000467404
0.000450667
0.000434286
0.000418271
0.000402651
0.00038747
0.000372813
0.000358629
0.000345018
0.00033234
0.000320871
0.000310667
0.00030126
0.000291534
0.000280533
0.00026842
0.000256618
0.000246541
0.000238772
0.000232979
0.000231013
0.000233237
0.000235505
0.000196956
0.000475727
0.000460638
0.000445798
0.000431199
0.000416802
0.000402621
0.000388687
0.000375031
0.000361765
0.000348931
0.00033661
0.00032502
0.000314363
0.000304648
0.000295526
0.000286195
0.000275907
0.000264734
0.000253729
0.000244055
0.000236058
0.000229459
0.000224495
0.000222611
0.000225865
0.000239229
0.000437822
0.00042501
0.000412343
0.000399783
0.000387327
0.000375001
0.000362834
0.000350933
0.000339337
0.000328088
0.000317362
0.000307396
0.000298191
0.000289468
0.000280603
0.000271002
0.000260694
0.000250507
0.000241435
0.000233808
0.000227433
0.00022217
0.000218399
0.000217091
0.000222473
0.000415973
0.000404948
0.000393988
0.000383057
0.000372141
0.00036127
0.000350474
0.000339826
0.000329408
0.000319254
0.000309458
0.000300248
0.000291623
0.000283358
0.000274984
0.000266033
0.000256505
0.00024705
0.000238518
0.000231273
0.000225208
0.000220288
0.000216434
0.000214966
0.000210445
0.000385684
0.000376234
0.000366757
0.00035725
0.000347722
0.000338199
0.000328732
0.000319424
0.000310284
0.000301366
0.000292878
0.000284841
0.000277083
0.000269232
0.000260921
0.000252137
0.000243387
0.000235381
0.000228493
0.000222687
0.000218022
0.000214376
0.000213161
0.000209764
0.000359086
0.000350912
0.000342664
0.000334348
0.000325984
0.00031761
0.000309329
0.00030115
0.000293098
0.000285336
0.000277909
0.000270689
0.000263384
0.0002557
0.000247623
0.000239548
0.000232064
0.000225534
0.000219983
0.000215481
0.000212067
0.00021036
0.000210616
0.000342582
0.000335553
0.000328427
0.000321204
0.000313901
0.000306538
0.000299208
0.000291927
0.000284703
0.000277645
0.00027083
0.000264167
0.000257418
0.000250352
0.000242951
0.000235526
0.000228562
0.000222402
0.000217121
0.000212773
0.000209557
0.000207419
0.000208944
0.000320688
0.000314565
0.000308325
0.000301979
0.000295548
0.000289093
0.000282648
0.000276207
0.000269832
0.000263629
0.000257531
0.000251342
0.000244875
0.000238119
0.000231316
0.000224868
0.000219086
0.000214086
0.000209921
0.000206829
0.000204662
0.000205486
0.000306357
0.000301119
0.000295757
0.000290275
0.000284686
0.000279027
0.000273354
0.000267652
0.000261941
0.000256333
0.000250795
0.000245159
0.000239276
0.000233134
0.000226927
0.000220984
0.000215586
0.000210869
0.000206909
0.000203896
0.000201898
0.000201667
0.000288086
0.000283505
0.000278795
0.000273966
0.000269042
0.000264089
0.000259074
0.000253997
0.000248968
0.000243977
0.000238885
0.000233563
0.000228006
0.000222366
0.000216914
0.000211902
0.000207471
0.000203723
0.000200788
0.000198927
0.00019806
0.000275485
0.000271595
0.000267577
0.000263437
0.000259185
0.000254881
0.000250498
0.000246022
0.000241549
0.000237085
0.000232521
0.00022774
0.000222739
0.00021764
0.000212665
0.000208034
0.000203894
0.000200358
0.000197525
0.00019571
0.000194615
0.000260046
0.000256641
0.000253115
0.000249468
0.000245754
0.000241953
0.000238045
0.000234099
0.000230141
0.000226082
0.000221818
0.000217342
0.000212756
0.000208241
0.000203987
0.000200137
0.00019681
0.000194095
0.000192276
0.00019113
0.000248858
0.000245999
0.00024302
0.000239921
0.000236742
0.000233473
0.000230094
0.000226644
0.000223165
0.000219584
0.000215807
0.000211826
0.000207725
0.00020365
0.000199766
0.000196205
0.000193087
0.000190495
0.000188662
0.000187478
0.000238041
0.000235663
0.000233171
0.000230564
0.000227865
0.000225083
0.000222186
0.000219195
0.000216164
0.000213036
0.00020972
0.000206205
0.00020256
0.000198904
0.000195376
0.000192101
0.000189189
0.000186723
0.000184888
0.000183633
0.000225641
0.00022358
0.00022141
0.000219143
0.000216799
0.000214346
0.000211781
0.000209169
0.000206462
0.000203573
0.00020049
0.00019727
0.000194012
0.000190828
0.00018783
0.000185122
0.000182782
0.00018095
0.00017961
0.000215937
0.000214257
0.000212474
0.000210595
0.000208643
0.000206589
0.000204419
0.000202192
0.000199872
0.000197379
0.000194697
0.000191874
0.000188987
0.000186132
0.000183402
0.000180893
0.000178677
0.000176863
0.000175428
0.000206552
0.000205204
0.000203765
0.000202233
0.000200633
0.000198936
0.000197124
0.000195248
0.000193282
0.000191155
0.000188843
0.000186386
0.000183846
0.000181299
0.000178828
0.000176514
0.000174415
0.000172627
0.000171106
0.000196433
0.000195294
0.000194069
0.000192779
0.000191402
0.000189912
0.000188356
0.000186712
0.000184913
0.000182939
0.000180819
0.000178601
0.000176344
0.000174118
0.000171991
0.000170012
0.000168247
0.00016666
0.000187942
0.000187066
0.00018611
0.000185095
0.000184
0.000182799
0.000181529
0.000180175
0.000178675
0.000177007
0.000175193
0.000173269
0.000171282
0.000169287
0.000167338
0.000165475
0.000163743
0.000162097
0.000179732
0.000179084
0.000178364
0.000177589
0.000176742
0.000175799
0.000174784
0.000173687
0.000172454
0.000171062
0.000169524
0.000167868
0.00016613
0.000164349
0.000162571
0.000160819
0.000159125
0.000157433
0.00017135
0.000170837
0.000170271
0.000169641
0.000168922
0.000168132
0.000167262
0.000166266
0.00016512
0.00016383
0.000162417
0.000160905
0.000159323
0.000157702
0.00015606
0.000154407
0.000152685
0.000163869
0.000163532
0.000163146
0.000162704
0.000162181
0.000161587
0.000160916
0.000160127
0.000159197
0.000158128
0.000156932
0.000155625
0.000154225
0.000152753
0.000151215
0.000149607
0.000147867
0.000156635
0.000156449
0.000156217
0.000155938
0.000155584
0.000155158
0.00015466
0.000154053
0.000153312
0.000152436
0.000151432
0.000150309
0.000149074
0.000147739
0.0001463
0.000144743
0.000149593
0.000149492
0.000149349
0.000149139
0.000148859
0.000148509
0.000148056
0.000147478
0.000146771
0.000145936
0.000144975
0.00014389
0.00014268
0.000141336
0.000139832
0.000142961
0.000142971
0.000142944
0.000142855
0.000142697
0.000142471
0.00014215
0.000141712
0.00014115
0.000140462
0.000139644
0.000138691
0.000137596
0.000136342
0.000134894
0.000136555
0.000136656
0.000136724
0.000136735
0.00013668
0.000136559
0.000136349
0.000136028
0.00013559
0.000135028
0.000134334
0.000133498
0.000132507
0.000131337
0.000129949
0.000130372
0.00013055
0.000130695
0.000130787
0.000130816
0.000130781
0.000130661
0.000130439
0.000130105
0.000129649
0.000129062
0.000128329
0.000127432
0.000126341
0.000125014
0.000124411
0.00012465
0.000124857
0.000125014
0.00012511
0.000125145
0.0001251
0.000124958
0.000124709
0.000124344
0.000123848
0.000123204
0.00012239
0.000121374
0.000120109
0.000118956
0.000119211
0.00011942
0.00011957
0.000119659
0.000119672
0.000119594
0.000119417
0.000119125
0.000118706
0.000118139
0.0001174
0.000116454
0.000115252
0.000113468
0.00011376
0.000114007
0.000114196
0.000114327
0.000114386
0.00011436
0.000114239
0.000114008
0.000113653
0.000113152
0.000112478
0.000111597
0.00011046
0.000108182
0.000108501
0.000108776
0.000108995
0.000109157
0.000109251
0.000109264
0.000109186
0.000109004
0.000108702
0.000108257
0.000107642
0.000106822
0.000105748
0.000103099
0.000103436
0.00010373
0.000103968
0.000104151
0.00010427
0.000104312
0.000104268
0.000104125
0.000103866
0.000103468
0.000102905
0.000102142
0.00010113
9.82154e-05
9.85624e-05
9.88669e-05
9.91182e-05
9.93146e-05
9.94494e-05
9.9512e-05
9.94928e-05
9.93796e-05
9.91554e-05
9.8798e-05
9.8281e-05
9.75702e-05
9.66205e-05
9.38788e-05
9.4188e-05
9.44452e-05
9.46487e-05
9.47926e-05
9.48685e-05
9.48672e-05
9.47767e-05
9.45803e-05
9.42566e-05
9.37805e-05
9.31188e-05
9.22292e-05
8.93834e-05
8.9692e-05
8.99496e-05
9.01544e-05
9.03024e-05
9.03861e-05
9.03968e-05
9.03229e-05
9.01483e-05
8.9853e-05
8.94132e-05
8.87973e-05
8.50742e-05
8.53777e-05
8.56309e-05
8.58333e-05
8.59811e-05
8.60677e-05
8.60855e-05
8.60232e-05
8.58657e-05
8.55946e-05
8.51868e-05
8.46134e-05
8.09471e-05
8.12425e-05
8.14886e-05
8.16848e-05
8.18289e-05
8.19152e-05
8.19364e-05
8.18817e-05
8.17375e-05
8.14867e-05
8.11077e-05
8.05738e-05
7.69994e-05
7.72845e-05
7.75208e-05
7.77083e-05
7.7846e-05
7.7929e-05
7.79505e-05
7.79007e-05
7.77668e-05
7.75332e-05
7.71801e-05
7.6683e-05
7.35001e-05
7.37249e-05
7.39022e-05
7.40316e-05
7.41092e-05
7.41288e-05
7.40816e-05
7.39557e-05
7.37367e-05
7.34069e-05
7.29441e-05
6.98862e-05
7.00982e-05
7.0264e-05
7.03839e-05
7.04549e-05
7.04713e-05
7.04248e-05
7.03049e-05
7.00986e-05
6.97897e-05
6.93586e-05
6.6439e-05
6.66373e-05
6.67909e-05
6.69007e-05
6.69641e-05
6.6976e-05
6.69291e-05
6.68139e-05
6.66186e-05
6.63289e-05
6.59269e-05
6.31545e-05
6.33388e-05
6.34797e-05
6.35787e-05
6.3634e-05
6.36408e-05
6.35927e-05
6.34811e-05
6.32955e-05
6.30233e-05
6.26484e-05
6.00278e-05
6.01977e-05
6.03261e-05
6.04145e-05
6.04614e-05
6.0463e-05
6.0413e-05
6.03042e-05
6.01272e-05
5.98708e-05
5.95209e-05
5.70543e-05
5.72104e-05
5.73265e-05
5.74043e-05
5.74427e-05
5.74386e-05
5.73867e-05
5.72801e-05
5.71108e-05
5.68688e-05
5.42296e-05
5.43722e-05
5.44761e-05
5.45436e-05
5.4574e-05
5.45643e-05
5.451e-05
5.44052e-05
5.42427e-05
5.4014e-05
5.16788e-05
5.17711e-05
5.18287e-05
5.18513e-05
5.1836e-05
5.17792e-05
5.16757e-05
5.15193e-05
5.13026e-05
4.91259e-05
4.9207e-05
4.92551e-05
4.927e-05
4.92495e-05
4.91902e-05
4.90877e-05
4.89367e-05
4.87307e-05
4.67063e-05
4.67771e-05
4.68164e-05
4.68244e-05
4.67991e-05
4.67375e-05
4.6636e-05
4.64898e-05
4.62936e-05
4.44096e-05
4.4471e-05
4.45025e-05
4.45042e-05
4.44748e-05
4.44117e-05
4.43116e-05
4.41705e-05
4.39839e-05
4.22218e-05
4.22745e-05
4.2299e-05
4.22958e-05
4.22635e-05
4.21998e-05
4.21021e-05
4.19668e-05
4.17901e-05
4.01321e-05
4.01766e-05
4.01948e-05
4.01871e-05
4.01525e-05
4.00889e-05
3.99941e-05
3.98651e-05
3.81409e-05
3.81777e-05
3.81895e-05
3.8177e-05
3.81395e-05
3.80753e-05
3.79827e-05
3.78593e-05
3.62556e-05
3.62844e-05
3.62895e-05
3.62714e-05
3.62299e-05
3.61636e-05
3.60713e-05
3.59511e-05
3.45056e-05
3.45034e-05
3.4479e-05
3.44324e-05
3.43626e-05
3.42684e-05
3.41491e-05
3.28325e-05
3.28228e-05
3.27916e-05
3.27392e-05
3.26646e-05
3.25667e-05
3.24462e-05
3.12785e-05
3.12667e-05
3.12342e-05
3.11839e-05
3.11099e-05
3.10125e-05
3.08985e-05
2.99875e-05
2.99712e-05
2.99335e-05
2.98837e-05
2.98067e-05
2.97043e-05
2.95966e-05
2.88941e-05
2.88703e-05
2.8822e-05
2.87626e-05
2.86734e-05
2.85544e-05
2.78207e-05
2.78002e-05
2.77538e-05
2.76952e-05
2.76068e-05
2.74855e-05
2.67202e-05
2.66893e-05
2.66302e-05
2.65578e-05
2.64589e-05
2.63205e-05
2.56541e-05
2.56367e-05
2.55915e-05
2.55292e-05
2.54439e-05
2.53267e-05
2.44396e-05
2.43778e-05
2.42857e-05
2.41818e-05
2.40613e-05
2.38765e-05
2.36319e-05
2.36358e-05
2.3609e-05
2.35436e-05
2.34678e-05
2.33984e-05
2.1811e-05
2.16639e-05
2.15409e-05
2.13939e-05
2.10712e-05
2.2467e-05
2.25282e-05
2.24609e-05
2.24416e-05
2.265e-05
1.99604e-05
1.99809e-05
2.01294e-05
2.00678e-05
1.96694e-05
2.45889e-05
2.49283e-05
2.48954e-05
2.5041e-05
2.57591e-05
2.60831e-05
2.64614e-05
2.69933e-05
3.10994e-05
3.19886e-05
3.14058e-05
3.05918e-05
)
;

boundaryField
{
    inlet
    {
        type            calculated;
        value           nonuniform List<scalar> 4(6.55107e-05 6.75737e-05 6.79962e-05 6.83772e-05);
    }
    outlet
    {
        type            calculated;
        value           nonuniform List<scalar> 0();
    }
    walls
    {
        type            calculated;
        value           uniform 0;
    }
    frontAndBack
    {
        type            empty;
    }
    procBoundary5to0
    {
        type            processor;
        value           nonuniform List<scalar> 4(0.000809574 0.000837916 0.000867273 0.000900731);
    }
    procBoundary5to1
    {
        type            processor;
        value           nonuniform List<scalar> 
13
(
0.0170031
0.00583362
0.00583362
0.0040558
0.00268423
0.00268423
0.00216722
0.00167237
0.00167237
0.0014348
0.00124698
0.00104972
0.00104972
)
;
    }
    procBoundary5to4
    {
        type            processor;
        value           nonuniform List<scalar> 
95
(
0.000780602
0.000749894
0.00071951
0.00071951
0.000641961
0.000617884
0.000617884
0.000557605
0.000538574
0.000538574
0.000491145
0.000491145
0.000450778
0.000450778
0.000427079
0.000395153
0.000395153
0.000367201
0.000367201
0.00034953
0.000326707
0.000326707
0.000311479
0.000292542
0.000292542
0.000279249
0.000263324
0.000263324
0.000251597
0.000240306
0.000227595
0.000227595
0.00021752
0.00020781
0.000197489
0.000197489
0.000188743
0.000180314
0.000171801
0.000171801
0.000164149
0.000156772
0.000149651
0.000149651
0.000142912
0.000136416
0.000130161
0.000124141
0.000118669
0.000118669
0.000113145
0.000107834
0.000102733
9.78389e-05
9.35278e-05
9.35278e-05
8.90332e-05
8.4729e-05
8.06105e-05
7.66737e-05
7.32278e-05
7.32278e-05
6.96279e-05
6.61954e-05
6.29258e-05
5.98143e-05
5.68559e-05
5.40457e-05
5.15492e-05
5.15492e-05
4.90085e-05
4.66008e-05
4.43151e-05
4.21375e-05
4.00576e-05
3.80756e-05
3.61993e-05
3.44848e-05
3.44848e-05
3.28197e-05
3.12686e-05
2.99809e-05
2.88921e-05
2.78152e-05
2.67227e-05
2.56445e-05
2.44749e-05
2.35919e-05
2.19294e-05
2.19294e-05
2.2378e-05
1.98984e-05
2.42854e-05
2.52682e-05
3.10753e-05
)
;
    }
    procBoundary5to6
    {
        type            processor;
        value           nonuniform List<scalar> 
86
(
0.299229
0.145252
0.137365
0.118675
0.0834173
0.0366946
0.00956009
0.00640696
0
0
0
4.54242e-05
0.000177842
0.000253184
0.00024323
0.000218542
0.000204508
0.000201923
0.000202845
0.000202407
0.000199817
0.000195981
0.00019175
0.00018748
0.000183214
0.00017888
0.00017444
0.00016989
0.000165229
0.000160482
0.000155668
0.000150794
0.000145882
0.000142998
0.000142998
0.000138097
0.00013318
0.000128265
0.000123373
0.000118519
0.00011372
0.000108993
0.00010435
9.98053e-05
9.53701e-05
9.10537e-05
8.79659e-05
8.79659e-05
8.38381e-05
7.9852e-05
7.60119e-05
7.23209e-05
6.87807e-05
6.5391e-05
6.21517e-05
5.90607e-05
5.65419e-05
5.65419e-05
5.37083e-05
5.10161e-05
4.84615e-05
4.60402e-05
4.37454e-05
4.15664e-05
3.96986e-05
3.96986e-05
3.7702e-05
3.58007e-05
3.40028e-05
3.23013e-05
3.07607e-05
2.94675e-05
2.84361e-05
2.84361e-05
2.73616e-05
2.61817e-05
2.51906e-05
2.37133e-05
2.32358e-05
2.09228e-05
2.24327e-05
1.98241e-05
2.60572e-05
2.60572e-05
2.70546e-05
3.50895e-05
)
;
    }
}


// ************************************************************************* //
