/*--------------------------------*- C++ -*----------------------------------*\
| =========                 |                                                 |
| \\      /  F ield         | OpenFOAM: The Open Source CFD Toolbox           |
|  \\    /   O peration     | Version:  2506                                  |
|   \\  /    A nd           | Website:  www.openfoam.com                      |
|    \\/     M anipulation  |                                                 |
\*---------------------------------------------------------------------------*/
FoamFile
{
    version     2.0;
    format      ascii;
    arch        "LSB;label=32;scalar=64";
    class       volSymmTensorField;
    location    "400";
    object      turbulenceProperties:devReff;
}
// * * * * * * * * * * * * * * * * * * * * * * * * * * * * * * * * * * * * * //

dimensions      [0 2 -2 0 0 0 0];

internalField   nonuniform List<symmTensor> 
1340
(
(0.00163715 0.00425782 -9.50062e-22 -0.00177374 -2.23884e-20 0.000136594)
(0.00238853 0.00488005 -1.24376e-22 -0.00248648 1.40369e-19 9.79406e-05)
(0.00361107 0.00546065 -2.76483e-20 -0.0038083 -4.3499e-19 0.000197226)
(0.00524594 0.00621491 1.19073e-19 -0.00549192 8.78827e-19 0.000245981)
(0.00742495 0.00687343 -2.25917e-19 -0.00769359 -8.34228e-19 0.000268644)
(0.010404 0.00726191 -1.72318e-19 -0.0107954 -4.50648e-19 0.000391443)
(0.0142991 0.00737462 3.26e-19 -0.0147853 1.25251e-18 0.000486259)
(0.0191877 0.00685908 -8.31327e-19 -0.0197703 -2.26134e-18 0.000582587)
(0.0252392 0.00535159 -2.0651e-19 -0.0259857 6.04419e-19 0.000746567)
(0.0325646 0.00260625 6.13781e-19 -0.0334651 1.25948e-18 0.000900458)
(0.0413423 -0.001898 1.57979e-18 -0.0424338 5.77711e-19 0.00109149)
(0.0519598 -0.00873403 -3.55241e-18 -0.0532776 -3.29929e-18 0.00131783)
(0.064958 -0.018822 6.72793e-19 -0.0665511 8.68398e-19 0.00159319)
(0.0812472 -0.0337494 2.68636e-18 -0.0832021 1.27312e-18 0.00195483)
(0.102368 -0.0561692 -4.07747e-18 -0.104834 -6.36947e-18 0.00246626)
(0.130531 -0.0904047 -4.36537e-18 -0.133705 -2.58503e-18 0.00317455)
(0.169883 -0.145061 1.92128e-17 -0.17419 1.77901e-17 0.00430667)
(0.224284 -0.232429 1.78591e-17 -0.230164 3.37911e-17 0.00588054)
(0.310933 -0.388888 -3.53879e-17 -0.319548 -5.48549e-17 0.00861518)
(0.426457 -0.641766 -1.37781e-18 -0.438632 1.45544e-17 0.012175)
(0.66684 -1.21425 -2.72238e-17 -0.686236 5.20483e-17 0.0193964)
(0.945574 -2.1145 -1.24456e-17 -0.971689 4.18865e-17 0.0261152)
(1.76568 -5.12897 -1.43145e-16 -1.81782 -6.41968e-16 0.0521388)
(2.42846 -10.3117 3.31467e-16 -2.51192 5.58926e-16 0.0834555)
(1.52854 -11.6484 4.2376e-17 -1.56977 -7.12289e-16 0.0412363)
(0.526797 -11.2304 3.6582e-16 -0.515475 5.81185e-16 -0.011322)
(-0.145598 -11.0464 -8.18353e-17 0.175363 -7.84422e-17 -0.0297646)
(-0.664893 -11.2292 2.74535e-16 0.689674 2.30588e-16 -0.024781)
(-1.13635 -11.4427 7.29073e-16 1.15281 1.20858e-15 -0.0164543)
(-1.57184 -11.4552 4.00544e-16 1.58021 1.99769e-15 -0.00837143)
(-1.958 -11.2409 -1.41152e-15 1.9563 -1.9315e-15 0.00170272)
(-2.27372 -10.8346 -4.74916e-16 2.26324 -7.26161e-16 0.010476)
(-2.49376 -10.2212 -3.22872e-17 2.47882 -4.36824e-15 0.0149398)
(-2.60528 -9.4144 -2.58328e-15 2.5899 -7.30014e-15 0.015377)
(-2.58936 -8.40603 1.00635e-15 2.57515 9.23279e-16 0.0142089)
(0.000968057 0.00371304 2.39401e-21 -0.00101994 5.55974e-20 5.18854e-05)
(0.000549693 0.00319715 -3.57157e-21 -0.000639719 2.56911e-23 9.00255e-05)
(0.000179309 0.00261111 -1.95661e-20 -0.000226375 -1.37148e-19 4.70666e-05)
(-6.70791e-05 0.00208972 4.98101e-21 3.29512e-05 9.36024e-20 3.41279e-05)
(-0.000179261 0.0015969 3.91901e-21 0.000160974 -1.82537e-20 1.82873e-05)
(-0.000172608 0.0011672 -3.38577e-20 0.000173004 1.10833e-19 -3.96106e-07)
(-8.40114e-05 0.000835306 -2.02266e-19 0.000108119 1.62794e-19 -2.4108e-05)
(0.000579433 -0.000460529 1.22858e-22 -0.00052005 4.00305e-21 -5.93829e-05)
(0.000492605 -0.000547356 2.90331e-20 -0.000425489 7.03538e-20 -6.71161e-05)
(0.000371416 -0.00062295 -2.692e-20 -0.000291097 -4.74605e-20 -8.03189e-05)
(0.000250519 -0.000652179 -1.81361e-20 -0.00015859 -5.16565e-20 -9.19291e-05)
(0.000133149 -0.000645111 1.2227e-19 -3.25562e-05 2.37308e-19 -0.000100593)
(2.31407e-05 -0.000610486 4.76159e-20 8.61806e-05 7.38713e-20 -0.000109321)
(-6.02904e-05 -0.000551403 2.2581e-19 0.000177198 2.0745e-19 -0.000116908)
(-0.000116636 -0.000479008 -1.16705e-19 0.000238472 -2.24589e-20 -0.000121835)
(-0.000149303 -0.000404777 1.64896e-19 0.000274582 1.14263e-19 -0.000125279)
(-0.000158012 -0.000336002 -5.85644e-21 0.000285259 2.50097e-22 -0.000127247)
(-0.000150113 -0.000278307 -2.23006e-19 0.000277009 -1.90525e-19 -0.000126896)
(-0.000132663 -0.00023995 2.87172e-19 0.00025889 3.57498e-19 -0.000126228)
(-0.000110888 -0.00022612 1.76603e-19 0.000240755 8.87442e-20 -0.000129866)
(-8.62535e-05 -0.00024579 -3.68423e-20 0.000231115 1.99827e-20 -0.000144862)
(-4.85447e-05 -0.000344622 -2.26873e-19 0.000241476 3.73459e-20 -0.000192931)
(6.24999e-05 -0.000658628 4.77384e-19 0.000258296 5.46287e-19 -0.000320796)
(0.000455321 -0.00154849 8.55339e-19 0.000142111 -9.35304e-19 -0.000597432)
(0.00150313 -0.00355137 -4.42162e-18 -0.000499571 -5.73103e-18 -0.00100356)
(0.00420713 -0.00868001 5.06208e-19 -0.00253853 7.46827e-18 -0.00166859)
(0.0104843 -0.0211546 7.37197e-18 -0.00790052 -2.07044e-18 -0.00258375)
(0.0294416 -0.0624435 1.54649e-17 -0.0250378 6.1279e-18 -0.0044038)
(0.0739739 -0.174464 -2.35343e-17 -0.067765 -2.2537e-17 -0.00620895)
(0.194586 -0.543788 7.40171e-17 -0.186817 1.86831e-16 -0.00776845)
(0.502957 -1.77834 1.58893e-19 -0.500209 -1.54222e-16 -0.00274803)
(0.747903 -3.54112 -2.72903e-16 -0.771543 1.69389e-16 0.0236402)
(0.789891 -5.39379 -9.71969e-17 -0.844122 -6.60041e-16 0.0542308)
(0.603681 -7.14998 1.1806e-18 -0.675429 7.5682e-17 0.071748)
(0.204274 -8.39479 -2.94565e-16 -0.279754 -4.44888e-16 0.0754795)
(-0.295747 -8.63681 -4.93677e-16 0.229772 -2.83332e-15 0.0659751)
(-0.707284 -7.89789 -1.66963e-16 0.66605 -3.54685e-15 0.0412341)
(-0.9313 -6.69195 5.22929e-16 0.922874 4.89674e-15 0.0084261)
(-0.998239 -5.47786 -9.55208e-16 1.01637 -3.76176e-17 -0.018133)
(-0.98435 -4.49817 -7.18939e-15 1.01412 1.34206e-15 -0.0297656)
(-0.930795 -3.75348 8.77253e-15 0.960419 1.59524e-14 -0.0296235)
(-0.863813 -3.18645 -1.48872e-15 0.887818 -8.6389e-16 -0.024005)
(0.000645656 -0.00034501 9.36999e-21 -0.000595427 2.31774e-20 -5.02283e-05)
(0.000684421 -0.000224613 -1.27043e-20 -0.000637471 -9.60293e-20 -4.69503e-05)
(0.000691695 -7.63949e-05 -1.86441e-20 -0.000654664 -1.11219e-19 -3.70305e-05)
(0.000654249 8.66807e-05 -7.12346e-21 -0.000627665 1.65311e-19 -2.65844e-05)
(0.000565079 0.000235301 1.92653e-21 -0.000550957 4.34556e-20 -1.41216e-05)
(0.000429277 0.000348908 3.78248e-20 -0.000425619 -1.45276e-19 -3.65741e-06)
(0.000333682 -0.000312808 1.7258e-21 -0.000360069 2.38759e-21 2.63879e-05)
(0.00025836 -0.000372282 -2.72961e-20 -0.000290235 -6.632e-20 3.18751e-05)
(0.00016085 -0.00041356 -6.02088e-21 -0.000197977 -3.03307e-21 3.71264e-05)
(5.20703e-05 -0.000426362 2.27884e-20 -9.69437e-05 4.92239e-20 4.48734e-05)
(-5.4426e-05 -0.000413078 -7.20972e-20 3.54591e-06 -1.46642e-19 5.08801e-05)
(-0.000154784 -0.000372458 -8.2073e-20 9.79083e-05 -1.34514e-19 5.68755e-05)
(-0.000238946 -0.00030849 -1.66416e-19 0.000175435 -2.45978e-19 6.35112e-05)
(-0.0003 -0.000230745 -1.34058e-20 0.000231133 -1.99284e-21 6.88672e-05)
(-0.000337766 -0.000145421 -7.30693e-20 0.000264305 -1.74014e-19 7.34609e-05)
(-0.000352965 -6.11088e-05 3.05789e-19 0.000275455 3.4797e-19 7.75101e-05)
(-0.000348659 1.65902e-05 -5.00762e-20 0.000268536 6.81113e-20 8.01226e-05)
(-0.00033138 8.39147e-05 3.41324e-20 0.000250345 2.10023e-20 8.10344e-05)
(-0.000307329 0.000139292 -2.33533e-19 0.000227515 -2.97227e-19 7.98131e-05)
(-0.000281382 0.000184871 1.50383e-19 0.000204154 -1.39608e-20 7.72272e-05)
(-0.000254016 0.000218734 4.36374e-20 0.00018155 1.35416e-19 7.24661e-05)
(-0.000223466 0.000237231 5.33193e-20 0.000158651 2.55901e-20 6.48154e-05)
(-0.000183391 0.000232178 -2.46073e-19 0.000130475 -1.43319e-19 5.29154e-05)
(-0.000151776 0.000222382 2.07407e-19 0.000109553 1.54607e-19 4.22231e-05)
(-9.82868e-05 0.000162302 4.86993e-20 7.29465e-05 6.36343e-22 2.53403e-05)
(-0.000954013 0.00171957 -2.20614e-18 0.000737927 -3.31916e-19 0.000216086)
(-0.000303531 0.00058154 8.82438e-19 0.000247165 -3.46539e-19 5.63662e-05)
(-0.000628365 0.00124198 6.91876e-20 0.000546364 1.1859e-18 8.20015e-05)
(-0.000109311 0.000125141 4.84935e-19 0.00011676 -7.16195e-19 -7.44881e-06)
(0.00189324 -0.00704625 -3.43572e-18 -0.00152579 -3.67083e-18 -0.000367444)
(0.0132723 -0.0586833 4.85659e-18 -0.0112799 1.71463e-17 -0.00199237)
(0.0327365 -0.19669 -2.9048e-17 -0.0284995 7.94985e-18 -0.00423705)
(0.0534493 -0.49323 1.48105e-17 -0.0474046 1.15554e-18 -0.00604468)
(0.0639129 -1.11557 -1.43279e-17 -0.0566795 7.64932e-17 -0.00723343)
(0.0252198 -2.20274 -4.40779e-16 -0.0184332 2.46481e-16 -0.00678656)
(-0.12002 -3.63269 2.1705e-16 0.123181 3.53284e-16 -0.00316055)
(-0.387253 -4.9147 1.5637e-15 0.382026 -5.86772e-16 0.00522685)
(-0.691734 -5.52404 -2.76473e-15 0.677289 2.1623e-15 0.014445)
(-0.905458 -5.36704 5.13877e-16 0.889701 9.3271e-15 0.0157576)
(-0.98305 -4.78716 -4.87229e-17 0.97464 -6.36777e-15 0.00841035)
(-0.964878 -4.12842 3.05773e-15 0.963399 -2.30087e-15 0.0014797)
(0.000395295 -0.000236804 -3.54254e-21 -0.000419381 -6.7435e-21 2.40863e-05)
(0.000435596 -0.000154352 -1.34281e-20 -0.000454967 -1.89999e-20 1.93712e-05)
(0.000460048 -5.32798e-05 5.5688e-20 -0.000474974 1.20065e-19 1.49257e-05)
(0.000454763 5.43795e-05 1.14453e-20 -0.000464206 -1.35568e-20 9.44316e-06)
(0.000415688 0.000160468 7.89578e-21 -0.000421152 -8.89556e-20 5.46421e-06)
(0.000342125 0.00024805 -2.46539e-20 -0.000344106 6.37276e-20 1.98096e-06)
(0.00030628 -0.000258223 9.51569e-21 -0.000296876 1.62784e-20 -9.40397e-06)
(0.000259298 -0.000306083 -1.32543e-20 -0.000248912 -2.38932e-20 -1.03864e-05)
(0.000195911 -0.00034741 -6.02784e-21 -0.000182639 -3.32173e-21 -1.32724e-05)
(0.000125024 -0.000374212 7.16065e-20 -0.000109146 1.04795e-19 -1.5878e-05)
(5.17747e-05 -0.000382635 4.5507e-20 -3.28943e-05 8.24868e-20 -1.88804e-05)
(-2.12933e-05 -0.000372944 5.77215e-20 4.36692e-05 1.10845e-19 -2.23759e-05)
(-8.66747e-05 -0.000347085 8.81563e-20 0.00011259 1.01992e-19 -2.59149e-05)
(-0.000139539 -0.000308085 -5.05818e-20 0.000168994 -7.85516e-20 -2.94547e-05)
(-0.000178416 -0.000260563 -1.80919e-19 0.00021168 -1.79248e-19 -3.32645e-05)
(-0.000202004 -0.000209913 2.34922e-19 0.000238693 1.323e-19 -3.66892e-05)
(-0.000211574 -0.000160037 1.97567e-19 0.000251485 1.67323e-19 -3.99104e-05)
(-0.000209291 -0.000114101 2.55705e-19 0.00025182 1.22495e-19 -4.25287e-05)
(-0.000197728 -7.42123e-05 -4.20852e-19 0.000241973 -1.34781e-19 -4.42449e-05)
(-0.000179865 -4.12314e-05 -3.58073e-19 0.000224684 -2.40536e-19 -4.48187e-05)
(-0.000157738 -1.50508e-05 4.73808e-19 0.00020221 1.49028e-19 -4.44717e-05)
(-0.000133097 7.47236e-06 9.57515e-20 0.000175258 5.89651e-20 -4.21614e-05)
(-0.000107748 2.66637e-05 -7.10845e-20 0.000145943 7.33678e-21 -3.81955e-05)
(-8.42537e-05 4.27581e-05 -2.28719e-19 0.000117102 -1.49848e-19 -3.28478e-05)
(-6.08361e-05 5.36475e-05 5.08332e-20 8.53963e-05 -1.95034e-20 -2.45601e-05)
(-4.31029e-05 5.86945e-05 2.00643e-19 5.91297e-05 6.19042e-20 -1.60268e-05)
(-3.80386e-05 7.08208e-05 -2.68483e-19 4.89979e-05 -7.72202e-20 -1.09594e-05)
(-5.25912e-05 0.000122316 1.87506e-19 6.32821e-05 2.67838e-20 -1.0691e-05)
(-4.20207e-05 0.000126147 -4.92438e-20 4.88299e-05 -1.0676e-20 -6.80923e-06)
(-0.000411728 0.00187381 -1.45522e-18 0.00049122 7.13636e-19 -7.94913e-05)
(-0.000658723 0.00710228 3.94483e-18 0.00096019 -1.259e-18 -0.000301468)
(0.000545919 0.0137312 -7.98351e-18 8.55205e-05 1.05939e-17 -0.00063144)
(0.00147581 0.00766387 6.59207e-20 -0.00105767 -1.51243e-19 -0.000418144)
(0.00216984 0.00299357 4.01878e-18 -0.00181755 -1.42766e-18 -0.000352287)
(0.00427313 -0.0103476 6.34566e-18 -0.0037666 1.606e-17 -0.000506533)
(0.00990324 -0.107346 2.65775e-17 -0.0086687 -1.20379e-16 -0.00123454)
(-0.000286022 -0.476767 -6.62758e-17 0.00248721 -3.95076e-16 -0.00220119)
(-0.0766782 -1.29786 2.07524e-15 0.0793963 5.51079e-16 -0.00271816)
(-0.263446 -2.42355 2.96992e-15 0.264333 6.72394e-16 -0.000886243)
(-0.51413 -3.34407 -1.64335e-15 0.510725 -2.23421e-15 0.00340538)
(-0.71555 -3.72271 -7.33353e-15 0.709599 1.42206e-15 0.00595131)
(0.000342224 -0.000198497 -1.46076e-20 -0.000335899 -2.97426e-20 -6.32504e-06)
(0.000364714 -0.000135329 -5.02371e-21 -0.000359228 2.03041e-20 -5.48572e-06)
(0.000373312 -5.72457e-05 4.83501e-20 -0.000370622 9.21874e-20 -2.69017e-06)
(0.00036393 2.51554e-05 -2.06946e-20 -0.00036261 -1.16223e-21 -1.32007e-06)
(0.000332412 0.000105542 1.80246e-20 -0.000332514 1.1422e-19 1.02026e-07)
(0.000222634 -0.000196129 -1.35347e-20 -0.000225649 -2.01606e-20 3.01563e-06)
(0.000184148 -0.000231625 2.65854e-21 -0.000188508 4.23596e-21 4.35985e-06)
(0.000134444 -0.000261248 1.61108e-20 -0.000139278 1.74975e-20 4.8342e-06)
(7.79986e-05 -0.000279187 -9.89663e-20 -8.41631e-05 -1.40665e-19 6.16457e-06)
(1.89318e-05 -0.000283319 -7.24488e-20 -2.64807e-05 -8.4733e-20 7.54886e-06)
(-4.04425e-05 -0.00027307 1.69306e-19 3.16125e-05 2.02667e-19 8.82994e-06)
(-9.48352e-05 -0.000249163 -1.79755e-19 8.4269e-05 -2.23209e-19 1.05662e-05)
(-0.000140347 -0.000213788 -8.1262e-20 0.000127929 -5.40598e-20 1.24181e-05)
(-0.00017474 -0.000169936 -1.93186e-19 0.000160477 -1.44566e-19 1.42627e-05)
(-0.00019668 -0.000121817 -3.5999e-20 0.000180319 -6.55052e-20 1.63605e-05)
(-0.000206279 -7.2869e-05 2.41759e-20 0.000187825 -8.72368e-21 1.84547e-05)
(-0.000204704 -2.62632e-05 -1.32279e-19 0.000184162 -1.75438e-19 2.05423e-05)
(-0.000193972 1.54451e-05 4.30643e-19 0.000171446 2.94945e-19 2.25255e-05)
(-0.000176466 5.0738e-05 -1.41749e-19 0.000152269 -2.47893e-20 2.41963e-05)
(-0.000154504 7.94333e-05 -3.47388e-19 0.000128935 -1.51909e-19 2.55694e-05)
(-0.000130522 0.000100453 2.30337e-19 0.000104584 4.60963e-21 2.5938e-05)
(-0.000106123 0.000113127 -1.67346e-19 8.13102e-05 -9.65212e-20 2.48125e-05)
(-8.19665e-05 0.000118319 2.29126e-21 5.92365e-05 1.22505e-19 2.273e-05)
(-5.96026e-05 0.000117958 -4.02616e-20 3.95443e-05 -3.16308e-20 2.00584e-05)
(-3.91181e-05 0.000110575 -2.84137e-19 2.25973e-05 -1.96317e-19 1.65209e-05)
(-2.01761e-05 8.61577e-05 1.80292e-19 9.39647e-06 1.75022e-19 1.07796e-05)
(-1.01259e-05 6.59315e-05 3.44867e-21 3.85596e-06 -1.0633e-19 6.26998e-06)
(-6.76629e-06 6.98255e-05 3.83938e-20 2.13537e-06 1.17472e-20 4.63092e-06)
(-2.5278e-06 7.98485e-05 1.11642e-19 -1.2108e-06 -5.00462e-21 3.7386e-06)
(3.76719e-06 8.70042e-05 -3.7645e-20 -6.74273e-06 -1.19897e-20 2.97554e-06)
(9.46739e-06 8.92101e-05 1.26742e-19 -1.15636e-05 2.0241e-20 2.09625e-06)
(0.000406509 0.00283619 -2.20403e-19 -0.000445199 4.93666e-21 3.86901e-05)
(0.000562548 0.00343727 -5.46202e-19 -0.000584833 -3.38342e-19 2.2285e-05)
(0.00134045 0.00717796 2.34914e-20 -0.00135246 1.8496e-18 1.20098e-05)
(0.000721397 0.00317138 -9.23212e-18 -0.00071502 7.62119e-19 -6.3768e-06)
(0.002578 0.00812643 -1.02938e-17 -0.00253493 1.72145e-18 -4.30763e-05)
(0.0105077 0.0119432 2.75444e-17 -0.0102816 -1.60764e-16 -0.000226118)
(0.0187249 -0.0984831 5.75768e-16 -0.0178939 -7.06461e-16 -0.000830947)
(-0.0256761 -0.584551 -2.98353e-15 0.0276712 1.59023e-16 -0.00199512)
(-0.182292 -1.49049 4.83577e-15 0.184108 1.81688e-15 -0.00181646)
(0.000253108 -0.000152903 8.63747e-21 -0.000256266 3.53071e-21 3.15746e-06)
(0.000274184 -0.000106572 -3.12487e-20 -0.000275957 -4.49325e-20 1.77282e-06)
(0.000285724 -4.96656e-05 3.99008e-21 -0.000287343 2.03317e-20 1.61918e-06)
(0.000283465 1.17708e-05 1.70416e-20 -0.000284288 -5.68581e-20 8.2369e-07)
(0.000264476 7.30932e-05 -1.38576e-19 -0.000265053 -1.99266e-19 5.76423e-07)
(0.00018413 -0.000161015 1.18697e-20 -0.000183018 1.37883e-20 -1.11165e-06)
(0.000155879 -0.000189722 -2.9849e-20 -0.000154872 -3.58775e-20 -1.00704e-06)
(0.000118627 -0.000214942 -2.41029e-21 -0.000117023 -4.98744e-21 -1.60469e-06)
(7.60891e-05 -0.00023239 -1.24403e-20 -7.41974e-05 -6.48761e-21 -1.89169e-06)
(3.10359e-05 -0.000239974 9.86366e-20 -2.87668e-05 1.13518e-19 -2.26913e-06)
(-1.54508e-05 -0.000237318 7.56357e-20 1.84275e-05 6.24058e-20 -2.97674e-06)
(-5.93404e-05 -0.00022451 9.61803e-22 6.2958e-05 3.04985e-20 -3.61758e-06)
(-9.7693e-05 -0.000202637 1.87632e-19 0.000102082 1.81804e-19 -4.38915e-06)
(-0.00012879 -0.000173559 -2.34317e-20 0.000134176 -3.12877e-21 -5.38571e-06)
(-0.000151049 -0.000140082 -6.47896e-20 0.000157473 -3.04223e-20 -6.42345e-06)
(-0.000164114 -0.000104705 1.27242e-19 0.000171716 4.74846e-20 -7.60202e-06)
(-0.000168496 -6.98243e-05 -1.71248e-19 0.000177396 -6.63708e-20 -8.90006e-06)
(-0.000165283 -3.76053e-05 -3.02169e-19 0.000175526 -2.36204e-19 -1.02437e-05)
(-0.000155964 -9.36207e-06 -1.26175e-19 0.000167619 3.25221e-20 -1.16554e-05)
(-0.000142207 1.41205e-05 5.44194e-19 0.000155244 2.45774e-19 -1.30364e-05)
(-0.000125184 3.22702e-05 -3.93014e-19 0.000139473 -1.79134e-19 -1.42894e-05)
(-0.000105668 4.62069e-05 -9.4397e-20 0.000120204 8.18607e-20 -1.4536e-05)
(-8.50849e-05 5.58721e-05 1.76323e-19 9.89742e-05 1.1493e-19 -1.38892e-05)
(-6.5062e-05 6.17615e-05 -1.11064e-19 7.75729e-05 -9.01379e-22 -1.25109e-05)
(-4.68487e-05 6.43718e-05 -3.63017e-20 5.74906e-05 9.08868e-20 -1.06418e-05)
(-3.09926e-05 6.47371e-05 5.07012e-20 3.95046e-05 -3.25709e-20 -8.51196e-06)
(-1.62969e-05 5.96865e-05 -3.54534e-19 2.22108e-05 3.43197e-20 -5.91392e-06)
(-4.3245e-06 5.0246e-05 2.90772e-21 7.66573e-06 -4.87887e-20 -3.34123e-06)
(3.40139e-06 3.92496e-05 -1.57074e-19 -1.89984e-06 1.5801e-20 -1.50155e-06)
(9.16748e-06 3.89622e-05 4.2161e-20 -8.27662e-06 1.2351e-20 -8.90863e-07)
(1.29919e-05 3.78469e-05 -1.31991e-20 -1.22468e-05 -5.56345e-20 -7.45089e-07)
(1.44847e-05 3.72827e-05 -2.76903e-21 -1.37688e-05 -2.57984e-22 -7.15899e-07)
(1.47349e-05 3.89974e-05 6.52294e-21 -1.41682e-05 1.60798e-22 -5.66727e-07)
(1.5095e-05 4.33139e-05 6.65328e-20 -1.47252e-05 -2.26536e-20 -3.69791e-07)
(0.000118986 0.000365818 3.93739e-19 -0.000116805 6.34511e-19 -2.18172e-06)
(0.000620224 0.00197218 -5.7583e-19 -0.000609028 1.18989e-18 -1.11964e-05)
(0.00339995 0.0105362 -3.51566e-17 -0.00334505 1.14215e-17 -5.49081e-05)
(0.000721622 0.0019559 -1.04349e-17 -0.000714001 -7.03347e-18 -7.62066e-06)
(0.0136707 0.0235254 -9.23502e-17 -0.0135854 1.02052e-16 -8.52832e-05)
(0.0322964 -0.0500904 6.49319e-16 -0.0319747 -7.4435e-16 -0.000321693)
(0.000206326 -0.00012663 -1.3e-20 -0.000206073 -1.90252e-20 -2.53131e-07)
(0.000221507 -9.01461e-05 4.62527e-21 -0.000221021 1.27759e-21 -4.85385e-07)
(0.000229939 -4.55188e-05 1.2398e-20 -0.000230081 1.25919e-20 1.41681e-07)
(0.000228572 2.66965e-06 -1.11714e-20 -0.0002286 -5.19315e-20 2.76967e-08)
(0.000147374 -0.000131417 -5.84064e-21 -0.000147571 -5.50012e-21 1.97344e-07)
(0.000124516 -0.000154214 1.67079e-22 -0.000125117 -1.48063e-21 6.01326e-07)
(9.46632e-05 -0.000174373 4.14445e-20 -9.51768e-05 4.51987e-20 5.13594e-07)
(6.05168e-05 -0.000188434 1.6233e-21 -6.12771e-05 -8.72385e-22 7.60315e-07)
(2.41929e-05 -0.000194893 -1.42919e-19 -2.51764e-05 -1.51803e-19 9.83469e-07)
(-1.36278e-05 -0.000193275 3.28422e-20 1.24982e-05 3.87102e-20 1.12961e-06)
(-4.99331e-05 -0.000183401 3.2057e-20 4.85042e-05 1.98549e-20 1.42897e-06)
(-8.23755e-05 -0.000165934 -7.42299e-20 8.05894e-05 -1.08077e-19 1.78611e-06)
(-0.000109456 -0.000142037 -1.10911e-19 0.000107331 -6.54421e-20 2.12525e-06)
(-0.000129684 -0.00011369 4.20835e-20 0.000127091 5.54151e-20 2.59284e-06)
(-0.000142475 -8.27895e-05 -2.52053e-19 0.000139355 -2.08582e-19 3.1198e-06)
(-0.000147819 -5.12644e-05 1.6785e-19 0.000144114 1.06856e-19 3.7047e-06)
(-0.000146232 -2.10473e-05 3.41091e-19 0.00014184 1.93342e-19 4.39245e-06)
(-0.000138686 6.52072e-06 4.39602e-19 0.000133533 1.65659e-19 5.15304e-06)
(-0.000126323 3.03983e-05 -5.87921e-19 0.000120323 -4.40357e-19 5.99971e-06)
(-0.000110476 5.00204e-05 3.16238e-19 0.000103483 2.41787e-19 6.99279e-06)
(-9.27084e-05 6.4838e-05 3.38246e-19 8.50181e-05 7.81715e-20 7.69034e-06)
(-7.44887e-05 7.43476e-05 2.15741e-19 6.67389e-05 -4.70254e-20 7.74982e-06)
(-5.67377e-05 7.87619e-05 1.10174e-19 4.95526e-05 5.87617e-20 7.18502e-06)
(-4.05301e-05 7.87987e-05 -1.4432e-20 3.43349e-05 8.07003e-20 6.19528e-06)
(-2.66707e-05 7.60437e-05 1.1017e-19 2.17455e-05 -1.81715e-20 4.92527e-06)
(-1.50197e-05 7.21491e-05 3.70243e-19 1.14017e-05 1.55901e-19 3.61801e-06)
(-4.02942e-06 6.67276e-05 -1.55193e-19 1.5611e-06 -2.0917e-20 2.46831e-06)
(6.52317e-06 5.60317e-05 3.87449e-19 -8.14362e-06 9.1306e-20 1.62045e-06)
(1.3429e-05 4.05938e-05 -5.37979e-20 -1.44526e-05 2.09581e-21 1.02361e-06)
(1.58464e-05 2.74259e-05 -1.80264e-20 -1.64723e-05 1.25456e-20 6.25893e-07)
(1.5893e-05 1.91657e-05 4.85961e-21 -1.6322e-05 2.10483e-21 4.29022e-07)
(1.53588e-05 1.50572e-05 -1.76373e-20 -1.57616e-05 7.49249e-21 4.02783e-07)
(1.47816e-05 1.36498e-05 -4.25959e-20 -1.52079e-05 -2.43551e-20 4.26287e-07)
(1.44162e-05 1.44243e-05 -3.75223e-21 -1.48066e-05 2.93391e-20 3.90418e-07)
(1.44356e-05 1.7583e-05 2.66355e-21 -1.474e-05 -2.09957e-20 3.04354e-07)
(1.498e-05 2.34891e-05 1.54796e-19 -1.51694e-05 1.21799e-19 1.89377e-07)
(0.000106665 0.000208316 -1.64282e-18 -0.000107094 1.54333e-18 4.28901e-07)
(0.00359782 0.00783585 -1.64346e-17 -0.00359475 1.01329e-17 -3.06873e-06)
(0.00292847 0.00587463 -3.82317e-17 -0.00293526 1.48617e-18 6.78875e-06)
(0.000165499 -0.000104416 1.85118e-21 -0.000166032 6.08346e-21 5.33873e-07)
(0.000178239 -7.57518e-05 2.82461e-20 -0.000178351 2.4961e-20 1.12874e-07)
(0.000185937 -4.06948e-05 -2.81916e-20 -0.000186314 -1.01532e-20 3.76931e-07)
(0.000186051 -2.52174e-06 6.96958e-20 -0.000186163 6.73278e-20 1.12429e-07)
(0.000121489 -0.00010985 -2.61493e-22 -0.000121307 -7.60167e-22 -1.82101e-07)
(0.000103208 -0.000128531 -1.83375e-21 -0.000103203 -1.50081e-21 -5.20133e-09)
(7.93067e-05 -0.000145314 -5.40666e-21 -7.91153e-05 -4.81166e-21 -1.91381e-07)
(5.19065e-05 -0.000157459 -2.98911e-20 -5.17434e-05 -2.75683e-20 -1.6309e-07)
(2.26716e-05 -0.000163767 3.70022e-20 -2.24708e-05 4.13613e-20 -2.00812e-07)
(-8.1082e-06 -0.000163867 1.93461e-19 8.4279e-06 1.63695e-19 -3.19702e-07)
(-3.80687e-05 -0.000157519 -1.16696e-20 3.8453e-05 -3.19166e-20 -3.84281e-07)
(-6.5387e-05 -0.000145087 -8.46908e-20 6.5872e-05 -7.00797e-20 -4.84969e-07)
(-8.89605e-05 -0.000127306 2.23846e-19 8.96222e-05 2.05918e-19 -6.61715e-07)
(-0.000107463 -0.00010559 9.01128e-20 0.000108291 5.69579e-20 -8.27912e-07)
(-0.000120241 -8.13165e-05 -7.34013e-20 0.000121303 -1.25263e-20 -1.06157e-06)
(-0.000127148 -5.59479e-05 -2.73565e-19 0.000128498 -1.32807e-19 -1.35041e-06)
(-0.000128365 -3.10416e-05 -5.13252e-19 0.000130033 -3.908e-19 -1.66792e-06)
(-0.000124465 -7.80958e-06 -5.90985e-19 0.000126524 -3.53037e-19 -2.05908e-06)
(-0.000116292 1.27659e-05 -3.34023e-20 0.000118805 1.34953e-19 -2.51233e-06)
(-0.000104885 2.99201e-05 2.94246e-20 0.000107924 -6.38582e-20 -3.03918e-06)
(-9.11358e-05 4.32508e-05 -4.43097e-19 9.47478e-05 -2.03423e-19 -3.61196e-06)
(-7.58304e-05 5.28205e-05 -2.88288e-19 7.97005e-05 -1.24187e-19 -3.87016e-06)
(-6.00121e-05 5.88598e-05 7.35365e-20 6.37913e-05 6.73609e-21 -3.77914e-06)
(-4.48417e-05 6.17616e-05 3.06116e-19 4.82026e-05 4.11901e-20 -3.36094e-06)
(-3.10982e-05 6.22582e-05 -1.28604e-19 3.38468e-05 -5.32736e-20 -2.74851e-06)
(-1.91239e-05 6.1255e-05 -8.00747e-20 2.12012e-05 -1.50864e-19 -2.07722e-06)
(-8.24966e-06 5.94642e-05 1.52383e-20 9.68872e-06 5.62906e-21 -1.43906e-06)
(2.43658e-06 5.64999e-05 -1.41311e-19 -1.55791e-06 -1.37099e-19 -8.78672e-07)
(1.23292e-05 4.98204e-05 1.00412e-19 -1.18225e-05 2.15851e-20 -5.06604e-07)
(1.90092e-05 3.94563e-05 3.21976e-20 -1.86128e-05 -2.30509e-20 -3.96438e-07)
(2.11016e-05 2.81627e-05 1.3281e-21 -2.07215e-05 -9.03324e-21 -3.80148e-07)
(1.8902e-05 1.78294e-05 3.13578e-20 -1.8631e-05 9.46057e-21 -2.71006e-07)
(1.58914e-05 1.08345e-05 1.77963e-20 -1.5756e-05 1.29794e-20 -1.354e-07)
(1.2836e-05 6.16695e-06 1.25407e-19 -1.27772e-05 6.69507e-21 -5.8807e-08)
(1.23152e-05 4.21218e-06 -5.24681e-20 -1.22847e-05 5.99219e-20 -3.05213e-08)
(1.19292e-05 3.79538e-06 1.31068e-19 -1.19297e-05 -1.76719e-19 4.45987e-10)
(1.19097e-05 5.79471e-06 3.15073e-19 -1.1936e-05 1.93556e-19 2.63796e-08)
(1.26025e-05 1.12108e-05 -6.67829e-21 -1.26058e-05 1.51858e-19 3.22928e-09)
(0.000557204 0.000785831 4.98514e-18 -0.000557342 -2.28095e-18 1.38266e-07)
(0.000135994 -8.80029e-05 -4.84431e-21 -0.000136137 -7.45096e-21 1.42795e-07)
(0.000146334 -6.48446e-05 -1.52512e-20 -0.000146262 -1.06644e-20 -7.19919e-08)
(0.00015289 -3.66115e-05 2.37003e-20 -0.000153094 8.92252e-21 2.03449e-07)
(0.000153599 -5.71495e-06 -9.81546e-20 -0.000153614 -7.16891e-20 1.53734e-08)
(0.000100425 -9.25809e-05 -9.23309e-21 -0.00010038 -6.74463e-21 -4.4907e-08)
(8.53481e-05 -0.000107944 -2.91098e-20 -8.54719e-05 -2.61263e-20 1.2383e-07)
(6.57063e-05 -0.000121836 -6.70307e-21 -6.57377e-05 -6.7251e-21 3.13585e-08)
(4.31742e-05 -0.000132025 9.97984e-20 -4.32835e-05 8.75875e-20 1.09305e-07)
(1.91523e-05 -0.000137568 -6.66524e-20 -1.92932e-05 -5.91477e-20 1.40905e-07)
(-6.30401e-06 -0.000138169 -7.02081e-20 6.1737e-06 -7.30983e-20 1.30309e-07)
(-3.13131e-05 -0.00013355 -1.72708e-19 3.11216e-05 -1.25347e-19 1.91566e-07)
(-5.44466e-05 -0.000123915 -1.18195e-19 5.41894e-05 -8.23757e-20 2.57255e-07)
(-7.48103e-05 -0.000109743 1.30399e-19 7.45258e-05 8.5071e-20 2.84421e-07)
(-9.12693e-05 -9.204e-05 3.60547e-20 9.08954e-05 -1.69513e-21 3.73944e-07)
(-0.000103216 -7.18033e-05 5.63068e-20 0.000102756 6.35067e-20 4.59415e-07)
(-0.000110356 -5.01442e-05 5.07979e-19 0.000109803 3.09031e-19 5.53427e-07)
(-0.000112647 -2.83315e-05 -1.73611e-19 0.000111955 -1.94164e-20 6.91757e-07)
(-0.000110371 -7.40899e-06 3.80914e-19 0.000109528 3.28503e-19 8.42279e-07)
(-0.000104078 1.17012e-05 5.07884e-20 0.000103048 3.91609e-20 1.02958e-06)
(-9.44712e-05 2.82096e-05 -8.98628e-20 9.31967e-05 -4.38097e-20 1.27446e-06)
(-8.23741e-05 4.17092e-05 2.70926e-19 8.078e-05 1.86697e-19 1.59408e-06)
(-6.88489e-05 5.17388e-05 1.03127e-19 6.70114e-05 7.49951e-20 1.83743e-06)
(-5.48463e-05 5.81694e-05 4.94644e-20 5.30055e-05 -2.46527e-20 1.84075e-06)
(-4.1292e-05 6.12491e-05 -1.80665e-19 3.96229e-05 -1.57753e-19 1.66901e-06)
(-2.88438e-05 6.16127e-05 -2.09969e-21 2.74974e-05 4.03079e-21 1.34638e-06)
(-1.78134e-05 6.01671e-05 -1.01352e-19 1.68311e-05 3.55171e-21 9.82252e-07)
(-7.80341e-06 5.76122e-05 -1.49112e-19 7.13163e-06 -8.18837e-21 6.71782e-07)
(1.69658e-06 5.39102e-05 3.92608e-20 -2.1935e-06 5.07232e-20 4.96915e-07)
(1.03993e-05 4.84024e-05 -6.80255e-21 -1.07877e-05 -4.22259e-20 3.88401e-07)
(1.70698e-05 4.09308e-05 -1.17302e-19 -1.72937e-05 3.89062e-21 2.23899e-07)
(2.08229e-05 3.28659e-05 -1.13465e-20 -2.08739e-05 4.20018e-21 5.09872e-08)
(2.21062e-05 2.55742e-05 3.58848e-21 -2.20975e-05 -8.65579e-21 -8.72684e-09)
(2.17196e-05 1.89866e-05 -2.46298e-20 -2.17435e-05 4.33168e-21 2.39055e-08)
(1.85571e-05 1.17714e-05 2.83659e-20 -1.85913e-05 -1.43864e-19 3.41742e-08)
(1.52409e-05 6.19339e-06 1.68834e-19 -1.52547e-05 -3.28219e-20 1.37981e-08)
(1.12088e-05 2.08691e-06 -2.78368e-19 -1.12131e-05 -1.21443e-20 4.23383e-09)
(1.0571e-05 -6.22033e-08 3.19671e-19 -1.05859e-05 -1.77378e-19 1.48418e-08)
(1.01748e-05 -8.85147e-07 3.1196e-19 -1.0192e-05 -4.22904e-21 1.71423e-08)
(1.02522e-05 1.12671e-06 -3.70711e-19 -1.02824e-05 5.51517e-20 3.01935e-08)
(0.000112439 -7.47739e-05 5.95573e-21 -0.000112598 7.88155e-21 1.58453e-07)
(0.000121139 -5.58785e-05 4.48133e-20 -0.000121115 3.0328e-20 -2.38213e-08)
(0.000126915 -3.28603e-05 -2.87349e-20 -0.000127098 -3.19161e-20 1.82744e-07)
(1.64273e-05 -0.000116919 4.18178e-20 -1.64346e-05 3.67742e-20 7.24473e-09)
(-4.79081e-06 -0.000117889 5.93797e-20 4.824e-06 4.97111e-20 -3.31915e-08)
(-2.57745e-05 -0.000114632 2.51055e-19 2.57944e-05 1.93038e-19 -1.99813e-08)
(-4.54008e-05 -0.000107268 -4.26514e-20 4.5428e-05 -3.26473e-20 -2.72456e-08)
(-6.29852e-05 -9.61254e-05 8.76576e-20 6.30458e-05 4.21686e-20 -6.05712e-08)
(-7.75825e-05 -8.19269e-05 -1.73351e-19 7.76523e-05 -1.00347e-19 -6.98139e-08)
(-8.86354e-05 -6.54152e-05 1.28585e-19 8.87379e-05 7.11104e-20 -1.02544e-07)
(-9.58334e-05 -4.74401e-05 -3.21099e-19 9.59895e-05 -2.51023e-19 -1.56097e-07)
(-9.9044e-05 -2.89843e-05 1.12597e-20 9.92488e-05 3.39853e-20 -2.04782e-07)
(-9.8385e-05 -1.09118e-05 5.1372e-20 9.86574e-05 -2.77582e-20 -2.72412e-07)
(-9.4184e-05 5.92578e-06 8.5721e-20 9.45461e-05 1.71489e-20 -3.62053e-07)
(-8.69636e-05 2.081e-05 1.39852e-20 8.74267e-05 1.21727e-20 -4.63097e-07)
(-7.73947e-05 3.3225e-05 -1.03641e-19 7.80018e-05 -9.67111e-20 -6.07157e-07)
(-6.61827e-05 4.27966e-05 -1.99867e-19 6.69168e-05 -6.29882e-20 -7.34059e-07)
(-5.40126e-05 4.94637e-05 -1.7187e-19 5.48223e-05 -5.02736e-20 -8.09737e-07)
(-4.17319e-05 5.33713e-05 -1.25545e-19 4.25138e-05 3.44709e-20 -7.81967e-07)
(-3.00027e-05 5.49537e-05 -7.96845e-20 3.06766e-05 -8.45373e-21 -6.73922e-07)
(-1.92474e-05 5.47382e-05 -8.53873e-21 1.97672e-05 3.71883e-20 -5.19808e-07)
(-9.36016e-06 5.31884e-05 9.77142e-20 9.7211e-06 6.17148e-20 -3.60949e-07)
(-1.15883e-07 5.01807e-05 -7.00246e-21 3.03107e-07 -3.85916e-20 -1.87224e-07)
(8.12605e-06 4.52681e-05 -5.2808e-20 -8.06621e-06 -8.13568e-21 -5.98349e-08)
(1.44065e-05 3.86386e-05 9.16224e-20 -1.43532e-05 2.70869e-20 -5.33141e-08)
(1.8101e-05 3.15783e-05 1.20999e-20 -1.79976e-05 4.4072e-21 -1.03416e-07)
(1.97257e-05 2.54435e-05 1.44455e-20 -1.96268e-05 -1.48913e-20 -9.88472e-08)
(2.03394e-05 2.04721e-05 1.00514e-20 -2.03018e-05 -4.88849e-21 -3.75962e-08)
(2.05345e-05 1.61216e-05 -2.42909e-19 -2.05365e-05 8.17007e-20 2.03371e-09)
(2.02367e-05 1.18489e-05 -2.04715e-19 -2.02354e-05 -5.90552e-20 -1.38097e-09)
(1.66925e-05 6.48093e-06 1.3156e-19 -1.66821e-05 2.70077e-19 -1.04578e-08)
(1.16428e-05 2.03014e-06 -1.68022e-19 -1.16398e-05 -2.03386e-19 -3.04266e-09)
(9.82822e-06 -6.80171e-07 4.45317e-20 -9.82179e-06 -1.21471e-19 -6.42741e-09)
(9.2018e-06 -2.85015e-06 1.96477e-19 -9.22118e-06 4.27607e-20 1.93772e-08)