/*--------------------------------*- C++ -*----------------------------------*\
| =========                 |                                                 |
| \\      /  F ield         | OpenFOAM: The Open Source CFD Toolbox           |
|  \\    /   O peration     | Version:  2506                                  |
|   \\  /    A nd           | Website:  www.openfoam.com                      |
|    \\/     M anipulation  |                                                 |
\*---------------------------------------------------------------------------*/
FoamFile
{
    version     2.0;
    format      ascii;
    arch        "LSB;label=32;scalar=64";
    class       volScalarField;
    location    "350";
    object      div(phi);
}
// * * * * * * * * * * * * * * * * * * * * * * * * * * * * * * * * * * * * * //

dimensions      [0 0 -1 0 0 0 0];

internalField   nonuniform List<scalar> 
1340
(
2.93824e-05
7.63134e-05
-2.09411e-05
5.288e-05
1.18789e-05
7.12604e-05
5.4437e-05
8.43729e-05
1.89568e-05
2.48759e-05
-4.15084e-05
9.15696e-06
7.82965e-06
4.72432e-05
3.58651e-05
6.43323e-05
1.95015e-05
1.66441e-05
-4.50351e-05
-2.56157e-07
9.02745e-06
3.96115e-05
2.46429e-05
5.00171e-05
2.19435e-05
1.51505e-05
-4.84695e-05
-1.05823e-06
1.08036e-05
3.61138e-05
1.61672e-05
3.82688e-05
2.1248e-05
1.24061e-05
-5.0547e-05
-1.43058e-06
1.08031e-05
2.88784e-05
1.01231e-05
2.89236e-05
1.79402e-05
1.05286e-05
-4.88307e-05
4.26644e-07
1.01238e-05
2.16478e-05
5.73383e-06
2.12658e-05
1.45481e-05
8.72871e-06
-4.38984e-05
1.08957e-06
9.23212e-06
1.53516e-05
2.82174e-06
1.53319e-05
1.13193e-05
8.9697e-06
-3.91686e-05
2.33684e-06
7.92624e-06
1.07807e-05
9.31078e-07
1.15463e-05
8.58042e-06
8.57145e-06
-3.37957e-05
2.77985e-06
6.2909e-06
6.76658e-06
-1.86857e-07
8.71627e-06
6.29114e-06
8.64615e-06
-2.92871e-05
3.1041e-06
4.60626e-06
3.76625e-06
-1.04171e-06
6.77928e-06
4.67732e-06
8.46182e-06
-2.40696e-05
3.09108e-06
3.29354e-06
1.70516e-06
-1.60571e-06
5.18288e-06
3.74225e-06
6.86842e-06
-1.99994e-05
3.17456e-06
2.27995e-06
5.08246e-07
-1.91451e-06
4.03446e-06
2.56548e-06
4.6084e-06
-1.49691e-05
2.99118e-06
1.72663e-06
1.34918e-07
-1.62332e-06
3.12922e-06
1.80496e-06
2.51995e-06
-1.1118e-05
2.84661e-06
1.28935e-06
2.15521e-07
-1.12319e-06
2.44671e-06
1.23396e-06
7.63936e-07
-7.50417e-06
2.53665e-06
1.62013e-06
3.41258e-07
-4.0051e-07
1.82484e-06
7.15676e-08
-1.03198e-07
-4.54459e-06
1.83705e-06
1.44362e-06
4.785e-07
1.08444e-07
1.3317e-06
-1.5595e-07
-3.51479e-07
-2.53417e-06
1.1441e-06
-2.90914e-06
9.57762e-07
4.60553e-07
3.89241e-07
9.19395e-07
1.61597e-06
-5.2921e-08
-3.14556e-07
-1.33213e-06
6.35969e-07
-1.06491e-06
6.37719e-07
4.09424e-07
4.54268e-07
6.27288e-07
1.27309e-06
-3.78566e-08
-2.428e-07
-5.96221e-07
2.39726e-07
-9.30691e-07
3.98346e-07
3.30291e-07
3.9622e-07
4.24516e-07
1.07371e-06
-4.66527e-08
-1.26421e-07
-2.86017e-07
7.34622e-08
-8.18396e-07
2.38806e-07
2.37992e-07
2.95081e-07
2.89272e-07
8.92643e-07
-3.55509e-08
-6.27254e-08
-1.46448e-07
1.06531e-08
-4.14403e-07
1.61203e-07
1.56552e-07
2.02226e-07
1.97774e-07
3.44911e-07
-6.35322e-08
-2.55034e-08
-7.87272e-08
-3.24382e-09
-2.99093e-07
9.06892e-08
9.02876e-08
1.4009e-07
1.30444e-07
1.94697e-07
-2.42998e-08
8.23498e-09
-3.10692e-08
-2.41336e-09
-2.91084e-07
-2.23426e-07
7.29613e-08
6.57799e-08
9.26625e-08
9.73916e-08
5.81486e-08
2.22415e-07
1.53821e-08
3.36172e-08
4.89923e-09
-5.58411e-10
-3.85851e-08
-1.32994e-07
6.98904e-08
5.18228e-08
6.68757e-08
7.10291e-08
6.04415e-08
1.81186e-07
3.35308e-08
4.93092e-08
1.77297e-08
1.03578e-08
1.7476e-08
-7.59528e-08
6.24434e-08
3.6685e-08
5.0352e-08
5.1572e-08
-7.75825e-09
1.23263e-07
2.73111e-08
4.93962e-08
2.92731e-08
1.19257e-08
-9.54914e-09
-5.17551e-08
4.64033e-08
3.08888e-08
3.75669e-08
4.38649e-08
-1.12592e-08
6.47449e-08
1.96125e-08
4.1953e-08
3.81225e-08
1.4079e-08
2.10689e-08
-3.37938e-08
-5.07189e-09
1.56105e-08
2.23511e-08
4.19056e-08
-3.43489e-08
-5.64693e-08
-4.57772e-08
-8.94829e-10
8.82297e-09
4.56835e-08
2.41387e-08
-2.46106e-08
-4.59364e-08
-1.10282e-08
-3.14397e-08
1.09767e-08
1.48449e-08
5.23138e-08
4.0779e-08
2.71198e-09
-3.94811e-08
5.25527e-09
1.97121e-09
3.89741e-08
2.52217e-08
-4.4916e-09
-1.27237e-08
1.79647e-08
-1.48761e-08
3.75051e-09
-8.59244e-09
3.84561e-08
3.73528e-08
2.02725e-08
-1.71955e-08
-3.09024e-09
-2.99219e-08
1.61715e-08
-4.81352e-09
4.99433e-09
-1.81315e-09
1.18877e-08
-2.70788e-08
1.0674e-08
-2.46461e-08
2.66601e-08
1.62499e-08
2.14121e-08
-2.59884e-09
2.28309e-08
-1.38806e-08
2.39163e-08
8.16743e-09
2.1526e-08
1.6696e-08
1.42104e-08
2.66471e-08
-2.31817e-09
2.6019e-08
6.78209e-09
1.87167e-08
2.28938e-08
1.45057e-08
1.7316e-08
7.0798e-09
2.02566e-08
1.38378e-09
1.79699e-08
2.23623e-09
1.01116e-08
1.05347e-08
1.14383e-08
1.28466e-08
8.74734e-09
1.12974e-08
9.62988e-09
1.56088e-08
2.27313e-08
5.61176e-09
8.56744e-09
1.00322e-08
9.00371e-09
9.96215e-09
1.04161e-08
1.36324e-08
-1.49511e-08
2.29658e-09
3.30668e-09
6.31768e-09
4.99149e-09
1.61538e-08
7.97304e-09
1.09713e-08
7.31535e-09
-1.49331e-09
4.80348e-09
1.45202e-09
2.37102e-08
6.37931e-09
1.52002e-08
1.24969e-08
-1.17265e-08
5.02321e-09
1.29533e-10
2.58907e-08
-1.32086e-09
2.76321e-08
4.02766e-09
8.69083e-09
-6.01476e-09
3.63435e-09
1.46281e-09
1.3007e-08
-2.3229e-09
1.82679e-08
-2.64244e-09
8.60846e-09
-1.5291e-09
1.82821e-09
1.99365e-09
5.81411e-09
1.01028e-09
8.36806e-09
-1.56825e-09
5.79767e-09
1.37185e-09
1.02506e-08
4.78966e-09
4.46471e-09
4.09594e-09
5.35094e-09
4.40884e-09
5.50165e-09
4.98756e-09
7.44589e-09
6.54974e-09
1.46917e-09
1.94223e-09
4.36986e-09
5.52411e-09
5.54249e-09
6.47005e-09
6.55891e-09
6.99754e-09
5.57507e-09
9.42489e-10
1.94308e-09
1.52689e-09
3.25534e-09
4.72869e-09
4.86228e-09
4.14944e-09
5.14568e-09
3.44597e-09
-3.60928e-09
-1.06852e-09
-1.79725e-10
1.20652e-09
8.06629e-10
1.86753e-09
1.86574e-09
1.68971e-09
5.99942e-10
-4.18139e-10
-4.06749e-09
-3.5153e-09
-2.28279e-09
-1.53488e-09
-1.16886e-09
-2.14888e-09
-2.98406e-10
-1.71902e-09
-2.1633e-08
-6.60305e-09
-5.6663e-09
-4.51483e-09
-4.80698e-09
-4.32748e-09
-3.76062e-09
-3.07992e-09
-4.08488e-09
-1.26613e-08
-6.05313e-09
-6.39308e-09
-5.32516e-09
-6.41852e-09
-4.57768e-09
-6.54814e-09
-3.24811e-09
-3.59739e-09
-1.1779e-08
-5.85792e-09
-6.1336e-09
-6.00304e-09
-6.52586e-09
-6.90207e-09
-7.71505e-09
-6.66575e-09
-5.76996e-09
-6.28927e-09
-1.07881e-08
-7.25748e-09
-6.72015e-09
-7.41235e-09
-7.96421e-09
-7.81282e-09
-7.97362e-09
-6.70404e-09
-5.42713e-09
-5.20369e-09
-1.24323e-08
-5.76379e-09
-6.00837e-09
-5.33508e-09
-5.48568e-09
-5.03311e-09
-4.99145e-09
-3.49372e-09
-3.62291e-09
-1.92028e-09
0.000149098
-8.21452e-05
3.66385e-05
-4.72684e-05
3.47231e-05
-2.0171e-05
2.54929e-05
-3.10583e-06
2.07799e-05
7.76086e-06
1.49933e-05
1.14111e-05
8.86288e-06
1.0736e-05
4.79558e-06
8.87958e-06
2.24285e-06
6.9113e-06
1.56505e-06
4.83549e-06
9.54175e-07
2.99352e-06
9.33803e-07
1.62979e-06
1.19033e-06
8.19882e-07
1.34287e-06
5.27078e-07
1.37759e-06
5.66158e-07
1.3384e-06
5.74851e-07
1.05439e-06
5.6885e-07
6.62172e-07
4.87462e-07
4.10485e-07
3.79848e-07
2.23035e-07
2.77934e-07
1.26527e-07
1.89191e-07
7.94075e-08
1.29124e-07
5.70065e-08
7.56555e-08
5.12653e-08
4.90779e-08
3.29969e-08
3.73831e-08
2.12797e-08
3.04062e-08
-1.15065e-08
2.87305e-08
2.00069e-09
4.23482e-08
3.64441e-08
3.79612e-08
4.14262e-08
-9.50675e-09
2.69775e-08
1.53866e-08
3.43876e-08
1.48353e-08
1.50999e-08
9.78514e-09
-3.31313e-10
6.44253e-09
1.50403e-08
2.08379e-09
1.35851e-08
1.1696e-08
1.02328e-08
2.23893e-09
2.72194e-09
-2.36796e-09
-7.13899e-09
-8.6935e-09
-1.10674e-08
-8.62633e-09
6.74248e-05
-4.93343e-05
1.9251e-05
-3.76827e-05
2.14704e-05
-2.58097e-05
1.76741e-05
-1.54612e-05
1.61728e-05
-7.79428e-06
1.2842e-05
-2.98512e-06
9.39761e-06
-3.3821e-07
5.3293e-06
7.07659e-07
2.82563e-06
9.59323e-07
1.07051e-06
8.96645e-07
2.98117e-07
7.16717e-07
1.33491e-07
4.94931e-07
5.66892e-08
3.06886e-07
2.31247e-07
1.67598e-07
3.7319e-07
4.99024e-08
3.2245e-07
8.98906e-08
2.7315e-07
1.51022e-07
2.52798e-07
2.18552e-07
1.82264e-07
2.43301e-07
1.49901e-07
2.1675e-07
1.13912e-07
1.65917e-07
8.63918e-08
1.06238e-07
6.75951e-08
7.36837e-08
4.68344e-08
4.45951e-08
4.04608e-08
2.41883e-08
2.72771e-08
3.22336e-09
1.58151e-08
-1.90095e-08
1.80865e-08
-5.93822e-09
2.66029e-08
1.67074e-08
3.32578e-09
4.40711e-08
1.09943e-08
2.3471e-08
1.19888e-09
2.40171e-08
1.82315e-08
1.28054e-08
1.58018e-08
5.91751e-09
-3.16663e-09
1.83711e-08
7.52438e-09
6.3904e-09
1.67065e-10
1.02848e-09
-1.56467e-09
-8.37772e-09
-1.49238e-09
-1.34328e-08
-5.16155e-09
1.88655e-05
-3.05237e-05
3.14954e-06
-2.89984e-05
5.02015e-06
-2.55625e-05
5.11744e-06
-2.07444e-05
5.88117e-06
-1.68555e-05
5.63062e-06
-1.34952e-05
6.20623e-06
-9.00557e-06
5.21824e-06
-5.16311e-06
4.25403e-06
-2.49622e-06
3.03824e-06
-1.14313e-06
2.10745e-06
-6.85886e-07
1.11642e-06
-6.6165e-07
6.73674e-07
-6.99645e-07
3.44753e-07
-6.15161e-07
1.72739e-07
-3.39445e-07
2.21299e-07
-1.08225e-07
2.23446e-07
7.02741e-08
1.63564e-07
1.55576e-07
1.51693e-07
1.76414e-07
1.1141e-07
1.63988e-07
8.65655e-08
1.32993e-07
6.6847e-08
1.05691e-07
5.3995e-08
6.56724e-08
4.9537e-08
4.12045e-08
3.45901e-08
2.61068e-08
2.82895e-08
1.7363e-08
-1.08863e-09
1.14805e-08
-2.26384e-08
8.19879e-09
-1.64512e-08
1.1956e-08
2.65085e-08
-6.88271e-09
2.50758e-08
1.16745e-08
3.32499e-08
1.20801e-08
1.22623e-08
7.14897e-09
-5.57043e-09
3.52094e-09
1.56178e-08
5.42614e-09
1.21785e-08
7.27787e-09
1.38228e-08
-1.17594e-08
2.53382e-09
-6.00338e-10
-1.02586e-08
-8.59877e-10
-1.27251e-05
-3.77928e-05
-5.48126e-06
-2.66398e-05
1.44941e-06
-2.01659e-05
4.6244e-06
-1.50481e-05
5.31735e-06
-1.15545e-05
6.07958e-06
-9.32683e-06
5.96771e-06
-7.23989e-06
5.81578e-06
-4.98563e-06
4.62067e-06
-3.25355e-06
3.84125e-06
-1.95206e-06
2.69259e-06
-1.0372e-06
2.10154e-06
-3.957e-07
1.57966e-06
-3.24798e-08
1.16958e-06
1.52043e-07
9.64853e-07
1.40105e-07
6.13652e-07
1.17603e-07
3.52161e-07
1.05315e-07
2.23101e-07
1.26594e-07
1.18047e-07
1.48001e-07
8.92587e-08
1.4602e-07
7.00898e-08
1.25298e-07
5.95583e-08
8.61773e-08
4.87394e-08
6.49807e-08
3.50057e-08
4.15269e-08
3.37871e-08
2.63798e-08
2.64111e-08
1.78561e-08
2.11036e-08
-9.4528e-10
5.75001e-09
-2.00106e-08
4.95546e-09
-1.35632e-08
-1.19013e-08
3.4196e-08
1.15529e-08
2.25628e-08
-2.1261e-09
1.94756e-08
1.03385e-08
9.46426e-09
1.61277e-08
3.93332e-09
1.50469e-09
1.06311e-08
5.87887e-09
6.56994e-09
2.06015e-09
6.24139e-10
-6.2103e-09
-1.09086e-08
5.95272e-09
2.35919e-05
-1.3174e-05
4.63131e-06
-1.18766e-05
4.64085e-06
-1.11583e-05
4.54996e-06
-9.87652e-06
4.0702e-06
-8.3395e-06
3.99842e-06
-7.2772e-06
3.85708e-06
-6.29596e-06
3.98117e-06
-4.82143e-06
3.5023e-06
-3.39591e-06
3.0973e-06
-2.20059e-06
2.46845e-06
-1.39271e-06
2.06962e-06
-9.20038e-07
1.42279e-06
-6.91506e-07
1.07943e-06
-5.23151e-07
6.36474e-07
-3.08154e-07
4.54319e-07
-1.03055e-07
3.56944e-07
6.03083e-08
2.46366e-07
1.33836e-07
1.94828e-07
1.4321e-07
1.2192e-07
1.24958e-07
7.6286e-08
9.91265e-08
4.7136e-08
8.52319e-08
3.58928e-08
5.73386e-08
3.47495e-08
3.94529e-08
2.58195e-08
2.56644e-08
2.62556e-08
2.06269e-08
1.974e-08
1.5174e-08
2.04254e-09
7.0835e-09
-2.38899e-08
-1.4563e-09
1.85043e-08
-7.47489e-09
1.63476e-08
4.33549e-10
2.96962e-08
4.49207e-09
1.1883e-08
1.83273e-08
-3.82023e-09
8.6645e-09
-1.87155e-09
6.10163e-09
7.33947e-09
1.04462e-08
9.11721e-09
-1.76392e-08
7.31234e-09
6.61703e-09
2.05978e-05
-9.21283e-06
5.25528e-06
-6.93837e-06
5.08178e-06
-5.99439e-06
4.68879e-06
-5.24315e-06
4.24684e-06
-4.41707e-06
3.6494e-06
-3.81526e-06
3.45227e-06
-3.41617e-06
3.11971e-06
-3.00232e-06
2.86676e-06
-2.40227e-06
2.34014e-06
-1.83587e-06
2.08821e-06
-1.27073e-06
1.63613e-06
-7.4425e-07
1.49421e-06
-2.5572e-07
1.28793e-06
5.89047e-08
1.13772e-06
1.70371e-07
8.65996e-07
1.71894e-07
5.62756e-07
1.16322e-07
3.508e-07
8.90496e-08
1.76934e-07
8.91171e-08
1.04661e-07
9.35944e-08
6.5203e-08
9.03772e-08
4.87742e-08
6.64061e-08
3.52984e-08
5.44694e-08
2.31243e-08
3.76305e-08
2.37686e-08
2.66477e-08
2.0243e-08
1.84033e-08
2.41578e-08
1.68982e-08
1.78205e-08
-1.0543e-09
1.10933e-08
-9.29067e-09
-1.95983e-08
1.12526e-08
-4.09938e-09
1.93531e-08
-9.52046e-09
1.52689e-08
6.91751e-09
-4.71072e-09
2.28462e-08
-3.22701e-09
8.73438e-09
-2.69163e-09
2.48175e-09
-7.26978e-10
3.30696e-09
1.09423e-08
1.48908e-05
-6.62734e-06
3.71913e-06
-5.24648e-06
3.38993e-06
-4.72203e-06
3.10556e-06
-4.34824e-06
2.86473e-06
-3.88845e-06
2.51639e-06
-3.36275e-06
2.35178e-06
-2.99828e-06
2.2287e-06
-2.67082e-06
2.18517e-06
-2.16762e-06
1.94125e-06
-1.63425e-06
1.74401e-06
-1.13708e-06
1.47052e-06
-7.56725e-07
1.33343e-06
-5.22706e-07
1.0199e-06
-3.86411e-07
7.68602e-07
-2.36651e-07
5.7339e-07
-1.24714e-07
4.26067e-07
-1.62336e-08
2.90517e-07
4.50752e-08
2.20833e-07
6.40726e-08
1.3658e-07
6.1622e-08
8.03284e-08
5.28817e-08
4.1149e-08
5.62792e-08
2.63288e-08
4.42641e-08
2.43377e-08
3.51475e-08
1.75349e-08
2.39804e-08
1.98442e-08
2.10126e-08
1.95285e-08
2.09484e-08
1.59772e-08
1.7936e-08
-1.51048e-08
-1.29155e-08
-6.80216e-09
-2.70435e-08
-5.53347e-09
-2.47924e-08
1.77598e-08
-2.2774e-09
-3.44899e-09
2.0985e-08
-7.68146e-09
1.34674e-08
-9.50956e-09
1.07591e-08
6.67332e-09
1.80444e-08
1.17685e-05
-6.85947e-06
2.43513e-06
-4.27313e-06
2.9901e-06
-3.27283e-06
3.00259e-06
-2.76594e-06
2.8362e-06
-2.40245e-06
2.59013e-06
-2.02078e-06
2.29352e-06
-1.7176e-06
2.16907e-06
-1.51807e-06
1.99262e-06
-1.36297e-06
1.81529e-06
-1.14872e-06
1.49099e-06
-9.38422e-07
1.31929e-06
-6.93821e-07
1.04079e-06
-4.11611e-07
9.65484e-07
-1.45303e-07
9.15905e-07
-2.95208e-08
7.33896e-07
6.17875e-09
5.36155e-07
-2.47674e-08
3.50605e-07
-4.83869e-08
1.74301e-07
-3.65881e-08
9.41907e-08
-3.71062e-09
5.38553e-08
2.76212e-08
4.14125e-08
3.25321e-08
2.91814e-08
3.7165e-08
1.74873e-08
3.11043e-08
1.73212e-08
2.68235e-08
1.5822e-08
2.02358e-08
2.21019e-08
1.42112e-08
2.07357e-08
1.31047e-09
-1.33388e-09
-1.47363e-08
-3.93945e-08
-1.66409e-08
-3.99281e-08
1.12625e-08
-1.44924e-08
5.73993e-09
9.30351e-09
-1.94667e-08
3.50585e-08
-1.83195e-09
1.58748e-08
1.25868e-05
-4.60346e-06
2.8749e-06
-3.42737e-06
2.71324e-06
-2.85326e-06
2.43395e-06
-2.52768e-06
2.16939e-06
-2.29563e-06
1.94133e-06
-2.03751e-06
1.70132e-06
-1.7487e-06
1.5434e-06
-1.54455e-06
1.44384e-06
-1.3937e-06
1.3581e-06
-1.19808e-06
1.18666e-06
-9.83597e-07
1.03959e-06
-7.65644e-07
8.7196e-07
-6.01365e-07
8.17962e-07
-4.83407e-07
5.69509e-07
-3.63576e-07
5.07056e-07
-2.58688e-07
3.91032e-07
-1.70622e-07
2.67245e-07
-9.95913e-08
2.06704e-07
-5.24357e-08
1.34975e-07
-2.43072e-08
8.49319e-08
-6.56967e-09
4.44571e-08
1.77682e-08
2.65864e-08
2.48849e-08
2.18939e-08
2.80256e-08
1.48232e-08
2.35857e-08
1.60114e-08
2.26139e-08
1.35343e-08
2.10669e-08
1.73181e-08
2.53339e-09
5.47199e-09
-2.94409e-08
-2.86845e-09
-4.34082e-08
1.53474e-08
-2.82466e-08
3.46148e-08
-2.77778e-09
-1.34775e-08
3.41755e-08
7.69278e-06
-3.01473e-06
2.31611e-06
-2.37408e-06
2.0959e-06
-1.96226e-06
1.90088e-06
-1.64856e-06
1.75277e-06
-1.45989e-06
1.61321e-06
-1.33766e-06
1.42911e-06
-1.22024e-06
1.23565e-06
-1.13514e-06
1.11529e-06
-1.09977e-06
9.95843e-07
-1.06552e-06
9.09377e-07
-9.68283e-07
7.48913e-07
-8.47623e-07
6.72956e-07
-6.64354e-07
5.35522e-07
-4.57817e-07
5.94484e-07
-3.0366e-07
5.13716e-07
-2.26818e-07
4.01422e-07
-1.96897e-07
2.99081e-07
-1.81296e-07
1.62931e-07
-1.48537e-07
9.182e-08
-9.2104e-08
5.57687e-08
-3.2592e-08
4.68518e-08
-2.10997e-09
3.48761e-08
1.7463e-08
2.03989e-08
2.07182e-08
1.78557e-08
2.32003e-08
1.63364e-08
1.90177e-08
2.18522e-08
2.24544e-08
5.73259e-09
2.72774e-08
-1.73669e-08
2.98567e-08
-2.85949e-08
4.01022e-08
-4.11693e-08
4.60372e-08
7.70564e-06
-1.51933e-06
2.43466e-06
-1.43216e-06
2.04521e-06
-1.37085e-06
1.7348e-06
-1.23169e-06
1.49021e-06
-1.1573e-06
1.31775e-06
-1.12045e-06
1.14468e-06
-1.0845e-06
9.90948e-07
-1.02381e-06
8.59862e-07
-9.94017e-07
7.75084e-07
-9.73985e-07
7.07961e-07
-9.03377e-07
6.17315e-07
-7.91886e-07
5.46394e-07
-6.68962e-07
4.72686e-07
-5.54863e-07
4.33614e-07
-4.30704e-07
3.62136e-07
-3.25479e-07
3.5099e-07
-2.34655e-07
2.67474e-07
-1.67567e-07
2.11694e-07
-1.09117e-07
1.56537e-07
-6.24017e-08
1.16105e-07
-3.39951e-08
7.16128e-08
-5.78849e-09
4.23743e-08
5.95094e-09
2.72189e-08
1.84541e-08
1.81578e-08
2.39164e-08
1.28831e-08
2.11988e-08
1.86108e-08
1.39626e-08
2.93088e-08
-7.75399e-09
4.64518e-08
2.61359e-06
-3.08078e-06
1.17364e-07
-2.09329e-06
7.66766e-07
-1.59242e-06
9.22416e-07
-1.26261e-06
9.31077e-07
-1.04992e-06
8.85791e-07
-9.26654e-07
8.38351e-07
-8.3897e-07
7.61468e-07
-7.53738e-07
6.78683e-07
-6.87351e-07
6.19175e-07
-6.51009e-07
5.6843e-07
-6.17581e-07
5.22587e-07
-5.52856e-07
4.57151e-07
-4.79424e-07
4.05025e-07
-3.95912e-07
3.4878e-07
-3.30581e-07
3.40056e-07
-2.84352e-07
2.64398e-07
-2.55747e-07
2.15266e-07
-2.18933e-07
1.55556e-07
-1.57282e-07
1.05712e-07
-1.13223e-07
8.17211e-08
-5.11553e-08
6.58261e-08
-1.95365e-08
4.29822e-08
-4.19556e-10
2.57132e-08
1.14403e-08
2.19057e-08
2.3428e-09
5.20881e-06
-1.5247e-06
1.65031e-06
-1.13018e-06
1.7993e-06
-1.0017e-06
1.67633e-06
-8.94822e-07
1.47872e-06
-7.66803e-07
1.29211e-06
-6.79406e-07
1.16322e-06
-6.15809e-07
1.053e-06
-5.66308e-07
9.41202e-07
-5.11181e-07
8.45392e-07
-4.73094e-07
7.66516e-07
-4.48381e-07
6.99275e-07
-4.21465e-07
5.97317e-07
-3.81519e-07
5.15661e-07
-3.39665e-07
4.28545e-07
-2.94984e-07
3.67771e-07
-2.53237e-07
2.91774e-07
-1.98595e-07
2.40726e-07
-1.58509e-07
2.82377e-07
-3.39504e-07
)
;

boundaryField
{
    inlet
    {
        type            extrapolatedCalculated;
        value           nonuniform List<scalar> 
11
(
-1.24323e-08
-5.76379e-09
-6.00837e-09
-5.33508e-09
-5.48568e-09
-5.03311e-09
-4.99145e-09
-3.49372e-09
-3.62291e-09
-1.92028e-09
-8.62633e-09
)
;
    }
    outlet
    {
        type            extrapolatedCalculated;
        value           nonuniform List<scalar> 0();
    }
    walls
    {
        type            extrapolatedCalculated;
        value           nonuniform List<scalar> 4(2.93824e-05 7.63134e-05 -2.09411e-05 5.288e-05);
    }
    frontAndBack
    {
        type            empty;
    }
    procBoundary6to2
    {
        type            processor;
        value           nonuniform List<scalar> 
13
(
-0.000139423
-8.90665e-05
-4.90563e-05
-7.77564e-05
-9.72273e-06
-2.29508e-05
-1.51887e-05
-1.23836e-05
-4.14095e-06
-6.79926e-06
-2.94941e-06
-6.13623e-06
-1.3918e-06
)
;
    }
    procBoundary6to3
    {
        type            processor;
        value           uniform -4.99605e-06;
    }
    procBoundary6to5
    {
        type            processor;
        value           nonuniform List<scalar> 
86
(
-8.72013e-06
-4.30096e-08
-7.46541e-06
9.92949e-07
-8.02199e-06
1.22862e-06
-9.38758e-06
1.36125e-06
-9.06184e-06
1.48451e-06
-8.44433e-06
1.62398e-06
-7.65401e-06
1.51458e-06
-6.99606e-06
1.45574e-06
-7.39277e-06
1.29668e-06
-7.10178e-06
1.07886e-06
-6.78466e-06
8.81488e-07
-5.90223e-06
9.69142e-07
-4.30411e-06
1.49292e-06
-2.93833e-06
2.08597e-06
-3.21481e-07
-1.08016e-07
1.12715e-06
-2.21077e-06
2.6633e-06
2.6633e-06
1.33182e-06
-1.02258e-06
1.01592e-06
-8.47159e-07
8.61568e-07
-7.26846e-07
8.01518e-07
-3.644e-07
4.0112e-07
-1.10969e-07
-1.23028e-07
1.11088e-07
1.11088e-07
2.48652e-07
-1.94647e-07
1.66185e-07
-1.19194e-07
1.11213e-07
-8.64161e-08
2.37055e-08
-4.91129e-08
9.43514e-08
9.43514e-08
1.07375e-07
2.23967e-08
-2.97678e-08
5.68441e-08
-1.69627e-08
1.83845e-08
1.10613e-08
1.10613e-08
1.4946e-08
5.9275e-09
2.32729e-08
-1.26951e-08
1.58202e-08
-1.40503e-08
-9.20388e-11
-9.20388e-11
-1.471e-09
4.5752e-09
-1.12953e-10
2.91785e-09
-2.3431e-09
4.18535e-09
-1.11464e-08
-5.00793e-09
-9.23552e-09
-9.23552e-09
-6.93521e-09
-6.92415e-09
-6.7186e-09
)
;
    }
    procBoundary6to7
    {
        type            processor;
        value           nonuniform List<scalar> 
91
(
-1.38763e-08
-1.38763e-08
-2.1602e-08
-2.1602e-08
-2.15789e-08
-2.15789e-08
-1.47759e-08
-8.9784e-09
-1.47759e-08
-1.58111e-08
1.11014e-08
-8.9784e-09
-2.08325e-08
-2.30436e-09
8.99834e-09
1.11014e-08
-3.03527e-09
-7.10058e-09
2.06346e-08
-2.30436e-09
-7.92013e-09
-3.25983e-08
1.15297e-08
1.38661e-08
-7.10058e-09
-1.80986e-08
-1.90355e-08
5.08992e-08
-4.9237e-08
4.31108e-08
-3.25983e-08
-2.97647e-08
2.55677e-08
2.0182e-08
2.2772e-08
3.20198e-08
1.44371e-08
3.28107e-08
-1.90355e-08
1.28057e-08
2.95686e-07
-9.23504e-08
1.20848e-07
-4.95693e-08
9.26431e-08
-3.16472e-08
5.5193e-08
-1.80178e-08
4.67177e-08
-3.49048e-11
4.04158e-08
2.55677e-08
7.57249e-09
6.00344e-07
-1.37029e-06
-4.03238e-07
-9.29076e-07
-1.86223e-07
-7.42368e-07
-7.30749e-08
-5.98065e-07
2.96528e-08
-4.88552e-07
6.0277e-08
-4.36395e-07
9.3373e-08
-4.12396e-07
9.63007e-08
-4.01779e-07
1.17385e-07
-3.83773e-07
1.18285e-07
-3.7853e-07
1.3606e-07
-3.79593e-07
1.52083e-07
-3.69116e-07
1.62679e-07
-3.39166e-07
1.79113e-07
-2.9601e-07
1.7155e-07
-2.31541e-07
1.95015e-07
-1.6378e-07
2.04967e-07
-1.18234e-07
1.9046e-07
-7.85758e-08
2.95686e-07
1.50876e-07
)
;
    }
}


// ************************************************************************* //
