/*--------------------------------*- C++ -*----------------------------------*\
| =========                 |                                                 |
| \\      /  F ield         | OpenFOAM: The Open Source CFD Toolbox           |
|  \\    /   O peration     | Version:  2506                                  |
|   \\  /    A nd           | Website:  www.openfoam.com                      |
|    \\/     M anipulation  |                                                 |
\*---------------------------------------------------------------------------*/
FoamFile
{
    version     2.0;
    format      ascii;
    arch        "LSB;label=32;scalar=64";
    class       volScalarField;
    location    "350";
    object      turbulenceProperties:L;
}
// * * * * * * * * * * * * * * * * * * * * * * * * * * * * * * * * * * * * * //

dimensions      [0 1 0 0 0 0 0];

internalField   nonuniform List<scalar> 
1340
(
0.0629547
0.0638539
0.0646839
0.0652221
0.182088
0.186343
0.187514
0.181483
0.216548
0.233707
0.249317
0.245469
0.222883
0.247543
0.27281
0.280581
0.224507
0.249942
0.28039
0.298151
0.250137
0.257456
0.283175
0.305281
0.222528
0.309807
0.294233
0.308981
0.0853089
0.187847
0.335726
0.316511
0
0.0915175
0.306097
0.333436
0
0.0203866
0.0873809
0.357122
0
0
0.071867
0.322212
0.240724
0
0.0366584
0.215029
0.0345355
6.64296
0.0226777
0.123943
0.0244193
0.241175
0.0429586
0.0629195
0.0253237
0.0368699
0.932596
0.0205358
0.02784
0.0259468
1.99231
0.0505525
0.0296836
0.0252448
0.996662
1.05413
0.0301054
0.0268535
0.0446555
0.781588
0.0300236
0.0292415
0.0301675
0.119676
0.0301499
0.0310056
0.0293601
0.0439418
0.0305894
0.0318422
0.0307808
0.0338842
0.0312267
0.0323217
0.0325143
0.0326444
0.0319535
0.032864
0.0338877
0.0335183
0.0327226
0.0335739
0.0349252
0.0349323
0.0335299
0.0344202
0.0358606
0.0363945
0.0343911
0.0353604
0.0368429
0.0378107
0.0353185
0.0363721
0.0379161
0.0392187
0.0363199
0.0374547
0.0390803
0.0406597
0.0374037
0.0386164
0.040333
0.0421583
0.0385732
0.0398624
0.0416711
0.0437205
0.0398338
0.0411994
0.0431019
0.0453528
0.0411941
0.0426327
0.0446261
0.0470611
0.0426592
0.0441718
0.0462528
0.0488492
0.04295
0.0442366
0.0458197
0.0479887
0.0507272
0.0446095
0.0459344
0.047584
0.0498365
0.0527018
0.0463986
0.0477591
0.0494732
0.0518039
0.0547799
0.0483251
0.0497198
0.0514947
0.0538983
0.056971
0.0503971
0.0518245
0.0536561
0.056127
0.0592833
0.0526241
0.0540818
0.0559654
0.0584963
0.0617255
0.055015
0.0565009
0.0584327
0.0610155
0.064307
0.057579
0.0590907
0.061066
0.0636939
0.0670382
0.0603256
0.0618611
0.0638749
0.0665399
0.0699292
0.0632649
0.0648219
0.0668697
0.0695646
0.0729905
0.0664067
0.0679825
0.0700607
0.0727772
0.0762352
0.0697617
0.0713537
0.0734577
0.0761894
0.0796734
0.072107
0.0733397
0.0749468
0.0770723
0.0798133
0.0833178
0.0759092
0.0771513
0.0787713
0.0809151
0.0836599
0.0871813
0.0799563
0.0812081
0.082839
0.0849978
0.0877411
0.0912768
0.0842591
0.0855201
0.0871608
0.0893322
0.0920705
0.0956175
0.0888284
0.0900991
0.0917486
0.0939297
0.0966604
0.100216
0.0936749
0.0949553
0.0966134
0.0988035
0.101524
0.105087
0.0988105
0.100101
0.101767
0.103964
0.106674
0.110244
0.104245
0.105547
0.107221
0.109426
0.112125
0.115699
0.109991
0.111305
0.112988
0.1152
0.117889
0.121468
0.115033
0.11606
0.117387
0.11908
0.121299
0.12398
0.127563
0.121418
0.122462
0.123805
0.125509
0.127737
0.130412
0.133998
0.128145
0.129209
0.130569
0.132286
0.134525
0.137198
0.140788
0.135223
0.13631
0.13769
0.139424
0.141677
0.144351
0.147945
0.142662
0.143775
0.145179
0.146932
0.149202
0.151883
0.155482
0.150478
0.151618
0.153048
0.154824
0.157114
0.159808
0.163412
0.158702
0.159869
0.161323
0.163122
0.165432
0.168142
0.171749
0.166427
0.167386
0.168578
0.170053
0.17187
0.174197
0.176921
0.180522
0.175591
0.176578
0.177794
0.179291
0.181124
0.183463
0.186199
0.189779
0.185268
0.186295
0.187545
0.189072
0.190928
0.193284
0.196034
0.19959
0.195418
0.196502
0.197807
0.199381
0.201278
0.203666
0.206442
0.209973
0.206067
0.207235
0.208622
0.210274
0.212243
0.214701
0.217544
0.221094
0.216744
0.21798
0.219441
0.221167
0.223212
0.225761
0.228698
0.232326
0.22656
0.227858
0.229375
0.231154
0.233258
0.235889
0.238914
0.242433
0.23499
0.236165
0.237633
0.239305
0.241211
0.243438
0.246186
0.249389
0.252948
0.244492
0.245797
0.247432
0.249287
0.251384
0.25381
0.25675
0.260092
0.26345
0.2558
0.25734
0.259218
0.26133
0.263691
0.266401
0.269692
0.273624
0.277941
0.266163
0.267742
0.269693
0.27193
0.274465
0.277361
0.280753
0.284365
0.287231
0.283069
0.285194
0.287657
0.290369
0.293355
0.296787
0.301081
0.306747
0.313502
0.289193
0.291069
0.293388
0.296085
0.299116
0.302428
0.305856
0.308495
0.308668
0.32155
0.324528
0.327874
0.331596
0.335797
0.340918
0.348166
0.358864
0.373194
0.300154
0.301619
0.303542
0.305953
0.30862
0.311156
0.312341
0.310237
0.305077
0.340147
0.340411
0.341641
0.343884
0.347068
0.351539
0.357941
0.361789
0.369169
0.258791
0.261808
0.261748
0.261723
0.261877
0.262067
0.261864
0.259416
0.253724
0.250955
0.249869
0.250619
0.24988
0.248981
0.248222
0.247546
0.2466
0.243527
0.238605
0.23887
0.192085
0.208986
0.207513
0.206282
0.205567
0.20475
0.203668
0.201582
0.199809
0.216069
0.161937
0.29726
0.530312
0.365331
0.343911
0.338671
0.334602
0.331681
0.333717
0.34328
0.348333
0.273779
0.147561
0.0677458
0.0206364
0.0912863
0
2.98839
0.30244
0.0541437
0.0375299
0.0353213
0.036122
0.0376913
0.039345
0.0409227
0.0424687
0.0440362
0.0456582
0.0473415
0.0490881
0.0509011
0.0527817
0.0547394
0.0567815
0.0589132
0.0611455
0.063487
0.0659467
0.0685351
0.0712644
0.0741459
0.077188
0.0804086
0.0838165
0.0874249
0.0912484
0.0953001
0.0995941
0.104144
0.108963
0.114068
0.119471
0.125186
0.13123
0.137614
0.144354
0.151463
0.158956
0.166844
0.175141
0.183873
0.193081
0.202842
0.213165
0.224254
0.235533
0.245501
0.256308
0.266122
0.282322
0.288538
0.321795
0.305671
0.396038
0.297697
0.390303
0.251084
0.247816
0.223095
0.235697
0.292964
0.472045
0.695471
0.480401
0.427516
0.406861
0.395747
0.39271
0.405695
0.453306
0.508026
0.275337
0.113524
0.0297286
0.0809581
0
6.67051
0.675695
0.0764738
0.0480148
0.0437955
0.0440399
0.0454049
0.0469136
0.048338
0.0497228
0.0511351
0.0526094
0.0541506
0.0557587
0.0574346
0.0591787
0.061
0.0629057
0.0648999
0.0669946
0.0691966
0.0715156
0.0739622
0.0765484
0.0792856
0.0821823
0.0852578
0.0885205
0.0919836
0.0956634
0.0995732
0.103727
0.108141
0.112827
0.117803
0.123083
0.128682
0.134615
0.140897
0.147543
0.154567
0.161986
0.169811
0.178057
0.186751
0.195931
0.205674
0.215989
0.227073
0.238426
0.248499
0.259617
0.269227
0.286124
0.291547
0.326835
0.308322
0.404547
0.300495
0.397388
0.254267
0.251487
0.297592
0.334733
0.421735
0.683669
0.838299
0.559609
0.485262
0.454081
0.438805
0.437053
0.457653
0.53116
0.422606
0.122873
2.05989
14.704
0
5.80753
5.67416
0.126151
0.0647779
0.0560692
0.0553085
0.0563354
0.0575613
0.058635
0.0596116
0.0605947
0.0616464
0.0627851
0.0640176
0.0653465
0.0667722
0.0683041
0.0699483
0.0717087
0.0735951
0.0756106
0.0777656
0.0800672
0.0825258
0.0851498
0.0879465
0.090934
0.094118
0.0975106
0.101127
0.10498
0.109082
0.113447
0.118089
0.123023
0.128262
0.133823
0.139718
0.145963
0.152572
0.159559
0.16694
0.174727
0.182934
0.191589
0.200724
0.21042
0.220688
0.231717
0.243075
0.253112
0.264434
0.273689
0.291104
0.295766
0.332264
0.312299
0.409442
0.304288
0.398508
0.257019
0.341934
0.373582
0.427504
0.542168
0.912812
0.955562
0.631114
0.539559
0.499578
0.480609
0.478612
0.496568
0.528154
0.140117
0.0617535
0
0
0
1.83263
0.192077
0.0782554
0.062923
0.061046
0.0622113
0.0638749
0.0652992
0.066484
0.0675842
0.0686936
0.0698458
0.071058
0.072341
0.0737025
0.0751579
0.0767192
0.0783961
0.0801995
0.0821361
0.0842176
0.0864519
0.0888494
0.0914181
0.0941671
0.0971114
0.100257
0.103616
0.107203
0.111028
0.115105
0.119446
0.124064
0.128976
0.134191
0.139726
0.145595
0.151811
0.158388
0.16534
0.172682
0.180427
0.188588
0.197191
0.206265
0.215893
0.226094
0.237042
0.248376
0.258267
0.269704
0.278538
0.29645
0.300298
0.337913
0.316433
0.414014
0.307876
0.400198
0.374001
0.403707
0.443758
0.51019
0.647673
1.10396
1.08272
0.70816
0.598411
0.54967
0.527175
0.523888
0.536231
0.520204
0.230666
0.102884
0
0
0
0.95578
0.115907
0.071245
0.0668973
0.0677708
0.0694806
0.0711181
0.0725062
0.0737584
0.0750071
0.0763008
0.0776476
0.0790488
0.0805095
0.0820405
0.0836548
0.0853643
0.0871805
0.0891128
0.0911755
0.0933792
0.0957352
0.0982548
0.100949
0.103833
0.106915
0.11021
0.11373
0.117485
0.121494
0.125766
0.130315
0.135157
0.140303
0.14577
0.151569
0.157715
0.164223
0.171105
0.178376
0.186051
0.194141
0.202671
0.211669
0.221213
0.231334
0.242187
0.253494
0.263243
0.274801
0.283241
0.301676
0.304713
0.343572
0.320334
0.419201
0.310857
0.39904
0.426783
0.460096
0.50618
0.581488
0.734304
1.23469
1.24532
0.791211
0.659551
0.601034
0.573881
0.566609
0.566259
0.541099
0.317153
0.15135
0
0
0
0.859773
0.11227
0.0775627
0.0770013
0.0793723
0.0810306
0.082239
0.0833129
0.0843445
0.0854196
0.086579
0.0878222
0.0891453
0.090553
0.0920555
0.0936627
0.0953811
0.0972181
0.0991859
0.101294
0.103552
0.105972
0.108566
0.111346
0.114324
0.117514
0.120929
0.12458
0.128484
0.132654
0.137101
0.141842
0.14689
0.15226
0.157963
0.164016
0.170431
0.177222
0.184403
0.191989
0.199992
0.208436
0.217345
0.226793
0.236823
0.247567
0.258848
0.268466
0.280172
0.288215
0.307201
0.309368
0.349602
0.32436
0.420205
0.446196
0.474993
0.510712
0.560572
0.641034
0.800271
1.29456
1.4786
0.885183
0.724601
0.654126
0.620448
0.606141
0.5942
0.564858
0.172551
0.109009
0
0
0
0.844973
0.115259
0.0854117
0.0872342
0.0913711
0.0931741
0.0941373
0.0951364
0.0961433
0.0971501
0.0982105
0.0993441
0.100555
0.101857
0.103269
0.104802
0.106462
0.108263
0.110214
0.112323
0.114604
0.117065
0.119718
0.122575
0.125647
0.128948
0.132489
0.136286
0.140351
0.144696
0.149337
0.154286
0.159559
0.165166
0.171123
0.177442
0.184138
0.191224
0.198714
0.206622
0.214969
0.223777
0.233115
0.243039
0.253653
0.264897
0.274358
0.286217
0.293803
0.313377
0.314535
0.438455
0.464175
0.489532
0.518689
0.555693
0.607418
0.689558
0.847054
1.29548
1.85779
0.997449
0.796326
0.710348
0.667947
0.645554
0.626777
0.574338
0.218028
0.183232
0
0
0
0.991863
0.137285
0.0939031
0.0961566
0.102154
0.104356
0.105072
0.106083
0.107254
0.108388
0.109521
0.110701
0.111949
0.113284
0.114722
0.116277
0.117965
0.1198
0.121792
0.123957
0.126304
0.128846
0.131595
0.134562
0.137762
0.141203
0.144904
0.148874
0.153125
0.157674
0.16253
0.167711
0.173226
0.179089
0.185314
0.191912
0.198898
0.206288
0.214091
0.22233
0.231025
0.240235
0.250035
0.260495
0.271684
0.280945
0.292959
0.507284
0.483851
0.504352
0.528984
0.558249
0.595706
0.647799
0.729027
0.879095
1.26678
2.57964
1.13736
0.876822
0.770303
0.716913
0.686655
0.660311
0.599871
0.340125
0.357115
0
0
0
1.47648
0.203133
0.105744
0.105295
0.113056
0.116391
0.116821
0.117561
0.118751
0.119965
0.121149
0.122373
0.123677
0.125077
0.126582
0.128211
0.129979
0.131898
0.133984
0.136247
0.138704
0.141365
0.144244
0.147355
0.150706
0.154317
0.158198
0.162359
0.166819
0.171583
0.176672
0.182094
0.187861
0.193987
0.200482
0.207361
0.214639
0.222327
0.230444
0.239012
0.248075
0.257732
0.268009
0.13537
0.430048
0.524738
0.540096
0.564622
0.593991
0.631429
0.682937
0.761511
0.901133
1.22984
3.27586
1.32186
0.969063
0.834883
0.768073
0.729034
0.694931
0.632101
0.444156
0.574146
0
0
0
3.39107
0.495575
0.123551
0.114809
0.123444
0.12898
0.129866
0.130376
0.131463
0.132681
0.133865
0.135086
0.136398
0.137818
0.13936
0.141039
0.142871
0.14487
0.147048
0.149417
0.151992
0.154784
0.157808
0.161072
0.164596
0.168388
0.172461
0.17683
0.181504
0.186499
0.191824
0.197491
0.203512
0.209897
0.21666
0.223816
0.231375
0.239357
0
0.129282
0.300226
0.591182
0.573417
0.596946
0.626237
0.663419
0.713775
0.788781
0.916998
1.19495
2.44645
1.58648
1.07819
0.905845
0.822255
0.772987
0.731538
0.668267
0.529089
0.784317
0.367983
0
0
1.06306
1.10334
0.166119
0.12846
0.13445
0.141688
0.143513
0.144015
0.145039
0.146278
0.147492
0.148735
0.150071
0.151522
0.153106
0.15484
0.156741
0.158824
0.1611
0.163584
0.166288
0.169225
0.172404
0.175843
0.179551
0.183539
0.187822
0.192408
0.197311
0.202541
0.208107
0.21402
0
0
0.0783866
0.097376
0.720172
0.608685
0.626724
0.655514
0.692188
0.741129
0.812248
0.929433
1.16585
1.95775
2.01863
1.21166
0.985328
0.880287
0.819147
0.770345
0.706849
0.601939
0.373496
0.230118
0
0
0
1.43155
0.205382
0.144214
0.146906
0.154992
0.157789
0.158356
0.159329
0.160607
0.161879
0.163173
0.164566
0.166086
0.167749
0.169575
0.17158
0.173778
0.176184
0.178813
0.181675
0.184781
0.188146
0.191782
1.43305
8.13524e-05
0
8.13124
0.241418
0.999952
0.650532
0.655269
0.682531
0.718476
0.765864
0.833167
0.940208
1.14312
1.70136
2.93233
1.38173
1.07592
0.943168
0.86806
0.811391
0.748636
0.66562
0.13722
0.153054
0
0
0
1.94042
0.274429
0.162108
0.160135
0.169153
0.173062
0.173646
0.174522
0.175865
0.177228
)
;

boundaryField
{
    inlet
    {
        type            calculated;
        value           nonuniform List<scalar> 
11
(
0.0913138
0.0937909
0.0926855
0.0916939
0.0908412
0.090103
0.0894273
0.0887627
0.0879946
0.0897565
0.087446
)
;
    }
    outlet
    {
        type            calculated;
        value           nonuniform List<scalar> 0();
    }
    walls
    {
        type            calculated;
        value           uniform 0;
    }
    frontAndBack
    {
        type            empty;
    }
    procBoundary6to2
    {
        type            processor;
        value           nonuniform List<scalar> 
13
(
0.143075
0.218352
0.277342
0.319345
0.350739
0.376298
0.393961
0.445878
0.181919
0
0
1.64365
0.223712
)
;
    }
    procBoundary6to3
    {
        type            processor;
        value           uniform 0.204703;
    }
    procBoundary6to5
    {
        type            processor;
        value           nonuniform List<scalar> 
86
(
0.0625886
0.175314
0.197633
0.198515
0.202621
0.312326
0.0417136
0.0253864
0
0
0.205292
0.0295567
0.0246797
0.0263519
0.0278099
0.0279745
0.0279409
0.0282307
0.0287582
0.0293567
0.0299529
0.0305516
0.0311822
0.031867
0.0326154
0.0334312
0.034318
0.0352792
0.0363199
0.0374473
0.0386672
0.0399861
0.0414113
0.0414113
0.0418743
0.0435189
0.0452927
0.0472041
0.0492617
0.0514746
0.0538517
0.0564026
0.0591368
0.0620644
0.0651951
0.0685392
0.0685392
0.0711701
0.0749665
0.0790068
0.0833019
0.0878625
0.0926998
0.0978243
0.103247
0.10898
0.10898
0.114247
0.120613
0.127319
0.134373
0.141784
0.149571
0.157768
0.157768
0.165666
0.1748
0.184435
0.194526
0.205096
0.215731
0.225528
0.225528
0.23398
0.243354
0.254416
0.264699
0.281102
0.287154
0.319258
0.29725
0.342807
0.342807
0.269302
0.250438
0.220384
)
;
    }
    procBoundary6to7
    {
        type            processor;
        value           nonuniform List<scalar> 
91
(
0.222825
0.222825
0.255615
0.255615
0.259555
0.259555
0.401801
0.425056
0.401801
0.31371
0.356296
0.425056
0.328727
0.300014
0.320215
0.356296
0.320214
0.279124
0.288146
0.300014
0.300319
0.247781
0.256676
0.266169
0.279124
0.276228
0.22029
0.226929
0.233951
0.241369
0.247781
0.249198
0.195696
0.199902
0.204408
0.209228
0.214367
0.219835
0.22029
0.22564
0.178591
0.180054
0.181661
0.183427
0.185372
0.187511
0.18986
0.19243
0.195237
0.198288
0.201597
0.195696
0.205176
5.90155
1.69135
0
0
0.0926268
0.190246
0.706495
0.680221
0.706123
0.741925
0.788179
0.852091
0.950242
1.12621
1.54752
4.8366
1.61123
1.18118
1.01192
0.920071
0.854931
0.790743
0.703344
0.379966
0.319714
0
0
0
2.98422
0.423705
0.182753
0.173962
0.184345
0.190015
0.190527
0.191032
0.178591
0.192324
)
;
    }
}


// ************************************************************************* //
