/*--------------------------------*- C++ -*----------------------------------*\
| =========                 |                                                 |
| \\      /  F ield         | OpenFOAM: The Open Source CFD Toolbox           |
|  \\    /   O peration     | Version:  2506                                  |
|   \\  /    A nd           | Website:  www.openfoam.com                      |
|    \\/     M anipulation  |                                                 |
\*---------------------------------------------------------------------------*/
FoamFile
{
    version     2.0;
    format      ascii;
    arch        "LSB;label=32;scalar=64";
    class       volSymmTensorField;
    location    "350";
    object      turbulenceProperties:devReff;
}
// * * * * * * * * * * * * * * * * * * * * * * * * * * * * * * * * * * * * * //

dimensions      [0 2 -2 0 0 0 0];

internalField   nonuniform List<symmTensor> 
1340
(
(-2.43512 -7.22638 1.21985e-15 2.4241 1.14391e-15 0.0110128)
(-2.07379 -5.67277 -1.22399e-16 2.06035 -5.25071e-16 0.0134407)
(-1.58634 -4.17104 -1.51837e-15 1.58463 -2.44059e-17 0.00171076)
(-0.472466 -0.926413 -1.88631e-16 0.473258 -1.90291e-15 -0.000791841)
(-0.781689 -2.74384 3.42281e-15 0.802174 -4.99353e-15 -0.0204853)
(-0.730951 -2.43254 -1.5036e-15 0.744322 1.52311e-15 -0.0133711)
(-0.560394 -2.1372 3.2491e-15 0.595689 4.02289e-16 -0.0352951)
(-0.787407 -2.25544 5.3625e-15 0.698429 7.29106e-15 0.0889777)
(-0.87874 -3.52459 -1.43678e-14 0.88172 5.20189e-16 -0.00298018)
(-0.798777 -3.05413 4.95873e-15 0.797857 -1.6257e-15 0.000920614)
(-0.53157 -2.55689 5.13653e-15 0.547659 -1.52186e-15 -0.0160896)
(-0.844102 -2.8151 -1.00215e-14 0.826095 2.90313e-15 0.0180067)
(-0.793128 -3.65162 4.79437e-15 0.790596 4.89588e-15 0.00253147)
(-0.801467 -3.42157 -1.01692e-14 0.796786 -1.30346e-16 0.00468099)
(-0.573993 -3.02007 -1.30279e-14 0.584346 1.88178e-15 -0.0103531)
(-0.814852 -3.21318 9.21264e-15 0.78651 -3.43376e-15 0.0283425)
(-0.401001 -2.4007 -9.96482e-16 0.40171 4.27584e-16 -0.000709507)
(-0.58627 -2.96517 -1.7508e-15 0.582305 3.98637e-15 0.00396488)
(-0.525626 -3.08675 6.73215e-16 0.536263 2.44226e-16 -0.0106372)
(-0.773483 -3.40302 -1.72622e-14 0.735986 4.3129e-15 0.0374965)
(-0.0174059 -0.556982 2.81089e-15 0.0190238 -1.65361e-15 -0.00161788)
(-0.203206 -1.54113 1.02253e-14 0.202411 -1.6283e-15 0.000795404)
(-0.332149 -2.48175 5.21652e-16 0.342475 -9.15847e-17 -0.010326)
(-0.674736 -3.26092 3.62144e-15 0.638417 -3.41186e-15 0.0363189)
(0.0294096 0.0246009 -1.27022e-15 -0.0293684 3.23587e-16 -4.11574e-05)
(0.0319027 -0.253596 -1.31554e-15 -0.0326328 -8.04542e-16 0.000730053)
(-0.0704885 -1.27557 1.17173e-15 0.0781302 -2.67232e-16 -0.00764171)
(-0.474877 -2.62928 3.10536e-15 0.444408 -9.00138e-16 0.030469)
(0.00844843 0.0138766 3.33559e-16 -0.00843604 8.24098e-18 -1.23925e-05)
(0.0218534 0.0200477 -3.93045e-16 -0.0221466 1.33041e-16 0.00029316)
(0.0620864 -0.284178 -1.8724e-15 -0.0589563 3.44052e-16 -0.00313002)
(-0.217086 -1.58633 9.84331e-15 0.193732 -5.72094e-16 0.0233545)
(1.14806e-05 8.0378e-06 -2.22838e-19 -1.14343e-05 -9.52443e-20 -4.63106e-08)
(0.00572468 0.00737634 8.68051e-17 -0.00580122 -7.42183e-18 7.65345e-05)
(0.0396517 0.00316308 1.87534e-15 -0.0387043 -2.27526e-16 -0.000947394)
(-0.0287278 -0.636784 -4.58425e-15 0.0127298 1.49507e-15 0.0159979)
(9.17248e-06 -3.20007e-06 1.04682e-19 -9.12017e-06 5.19362e-20 -5.23107e-08)
(3.64124e-05 1.20237e-05 -7.00795e-19 -3.70582e-05 1.03458e-19 6.45812e-07)
(0.00402878 0.00289024 -6.18741e-17 -0.00391987 2.67952e-18 -0.000108913)
(0.0323896 -0.163039 -3.53072e-15 -0.0413687 1.51413e-16 0.00897907)
(8.92053e-06 -3.75152e-06 7.08056e-20 -8.86708e-06 -1.03568e-20 -5.34456e-08)
(7.49394e-06 -5.22003e-06 2.38813e-19 -7.628e-06 1.66164e-20 1.34057e-07)
(0.00148587 0.000532125 -1.01618e-17 -0.00143851 2.00182e-18 -4.73605e-05)
(0.0254065 -0.0326249 5.77261e-16 -0.0292556 -2.59414e-16 0.00384904)
(9.05549e-06 -1.52285e-06 8.26427e-20 -9.01172e-06 -8.45612e-20 -4.3767e-08)
(7.63503e-06 -5.63448e-06 1.49059e-19 -7.74599e-06 -4.64331e-20 1.10965e-07)
(0.000242395 -7.48254e-05 1.32053e-18 -0.000234063 -2.33105e-19 -8.33283e-06)
(0.0105117 -0.00946687 6.09182e-16 -0.0118556 -1.79604e-17 0.00134386)
(1.11873e-05 -5.03615e-07 -4.3064e-19 -1.11414e-05 1.19859e-19 -4.58387e-08)
(8.02787e-06 -3.65537e-06 -1.00289e-20 -8.13513e-06 -4.39575e-20 1.07259e-07)
(6.23979e-05 -4.04745e-05 -1.62378e-18 -6.03241e-05 1.26154e-19 -2.07382e-06)
(0.00316116 -0.00357448 -2.22445e-16 -0.00355574 2.19407e-17 0.000394583)
(1.77798e-05 -6.7001e-07 9.67033e-19 -1.7711e-05 -7.9133e-20 -6.88096e-08)
(8.06959e-06 -2.41869e-06 -2.50455e-19 -8.17326e-06 3.97614e-20 1.03664e-07)
(8.28597e-06 -5.18673e-06 -8.80233e-20 -8.04187e-06 2.50416e-20 -2.44105e-07)
(0.000717822 -0.000993377 6.46654e-17 -0.000804641 -6.10118e-18 8.68188e-05)
(1.63157e-05 -9.38883e-07 -7.15179e-19 -1.6256e-05 -7.4378e-20 -5.97059e-08)
(9.68207e-06 -2.63861e-06 1.56649e-19 -9.79845e-06 1.48692e-20 1.16385e-07)
(7.17514e-06 -3.81948e-06 3.3836e-19 -6.99171e-06 -3.9083e-20 -1.83426e-07)
(4.69729e-05 -6.8736e-05 -5.07176e-18 -5.22163e-05 5.62566e-19 5.2434e-06)
(1.35107e-05 -8.90056e-07 7.15153e-20 -1.34658e-05 9.80779e-20 -4.49303e-08)
(1.48932e-05 -4.32325e-06 -2.99727e-20 -1.50566e-05 -2.68236e-20 1.63426e-07)
(6.93602e-06 -3.41686e-06 -3.50438e-19 -6.78107e-06 1.95607e-20 -1.54947e-07)
(5.85722e-06 -8.32089e-06 1.811e-19 -6.44159e-06 -3.70371e-20 5.84368e-07)
(1.21859e-05 -7.66198e-07 1.09894e-19 -1.21494e-05 -8.39496e-21 -3.64606e-08)
(1.62306e-05 -4.93022e-06 -9.71852e-20 -1.63921e-05 3.29563e-21 1.61494e-07)
(6.62871e-06 -3.31693e-06 2.04764e-20 -6.49989e-06 1.6099e-20 -1.28818e-07)
(5.17945e-06 -7.02472e-06 -1.2234e-19 -5.63588e-06 9.22154e-21 4.56431e-07)
(1.18357e-05 -6.68174e-07 3.53391e-20 -1.18044e-05 -5.03084e-20 -3.13427e-08)
(1.38438e-05 -4.20638e-06 -7.29294e-20 -1.39676e-05 2.86367e-20 1.2377e-07)
(7.32759e-06 -3.82542e-06 3.13678e-19 -7.20344e-06 -1.60073e-20 -1.24154e-07)
(4.88801e-06 -6.41403e-06 1.58995e-19 -5.2667e-06 -1.87293e-20 3.7869e-07)
(1.17662e-05 -5.88328e-07 -2.89729e-19 -1.17389e-05 1.74893e-20 -2.72098e-08)
(1.16446e-05 -3.45536e-06 1.62512e-19 -1.17374e-05 -8.85758e-21 9.28074e-08)
(1.01486e-05 -5.46334e-06 2.80707e-19 -1.0001e-05 -3.22361e-20 -1.47543e-07)
(4.64268e-06 -5.96951e-06 4.14763e-19 -4.95771e-06 -1.83604e-20 3.15029e-07)
(1.15909e-05 -5.04757e-07 3.08271e-20 -1.15679e-05 3.06136e-20 -2.29345e-08)
(1.05371e-05 -3.03353e-06 -3.69887e-20 -1.06119e-05 -1.8616e-20 7.47414e-08)
(1.06458e-05 -5.81e-06 -9.6303e-20 -1.05162e-05 -1.86165e-20 -1.29582e-07)
(5.06269e-06 -6.39939e-06 -3.64497e-20 -5.36099e-06 1.17464e-20 2.983e-07)
(1.12392e-05 -4.08372e-07 -9.708e-21 -1.12203e-05 -1.91167e-20 -1.89722e-08)
(1.00502e-05 -2.80179e-06 -1.33291e-19 -1.01126e-05 2.06663e-20 6.24894e-08)
(9.66209e-06 -5.28141e-06 -4.57562e-19 -9.56495e-06 3.20332e-20 -9.71326e-08)
(5.96482e-06 -7.38677e-06 -2.5924e-19 -6.26758e-06 1.14611e-20 3.02754e-07)
(1.0788e-05 -3.02722e-07 -1.4861e-19 -1.0773e-05 3.5953e-20 -1.49803e-08)
(9.74837e-06 -2.62333e-06 1.39845e-19 -9.80078e-06 -7.49253e-21 5.24112e-08)
(8.71614e-06 -4.73684e-06 1.16721e-19 -8.64473e-06 4.06515e-21 -7.14092e-08)
(6.23648e-06 -7.5324e-06 -1.55027e-19 -6.5058e-06 4.25184e-21 2.69313e-07)
(1.03104e-05 -1.92385e-07 2.94763e-19 -1.02989e-05 -2.09703e-21 -1.14959e-08)
(9.42968e-06 -2.4362e-06 -1.41921e-19 -9.47342e-06 2.89818e-21 4.37432e-08)
(8.08932e-06 -4.34452e-06 -9.65796e-20 -8.03712e-06 4.43783e-21 -5.2201e-08)
(6.00511e-06 -7.03736e-06 3.40131e-19 -6.22424e-06 -1.23042e-20 2.19127e-07)
(9.83622e-06 -7.99511e-08 -4.20849e-20 -9.82742e-06 -2.9837e-20 -8.8052e-09)
(9.05248e-06 -2.23059e-06 7.48195e-20 -9.0882e-06 -6.57802e-21 3.57203e-08)
(7.65544e-06 -4.04047e-06 1.33501e-19 -7.61769e-06 -9.92505e-21 -3.77526e-08)
(5.6541e-06 -6.40457e-06 -2.19341e-19 -5.82674e-06 9.15925e-21 1.72646e-07)
(9.36899e-06 3.29348e-08 -4.69527e-20 -9.36286e-06 -1.63767e-21 -6.12811e-09)
(8.63946e-06 -2.01354e-06 -1.92412e-19 -8.66806e-06 8.07038e-21 2.85934e-08)
(7.29321e-06 -3.75876e-06 -2.21749e-19 -7.26679e-06 1.39093e-20 -2.64236e-08)
(5.33574e-06 -5.81743e-06 2.46964e-19 -5.47055e-06 -6.62769e-21 1.34802e-07)
(8.90383e-06 1.44962e-07 -8.93984e-20 -8.89972e-06 1.27892e-20 -4.10979e-09)
(8.21499e-06 -1.79453e-06 1.0056e-19 -8.23724e-06 2.32867e-20 2.22558e-08)
(6.94641e-06 -3.47338e-06 3.35789e-19 -6.9286e-06 -1.43835e-22 -1.78074e-08)
(5.06434e-06 -5.2945e-06 -2.41304e-19 -5.16811e-06 5.33747e-21 1.03764e-07)
(8.43886e-06 2.55852e-07 9.37275e-20 -8.43628e-06 9.18038e-21 -2.5811e-09)
(7.79209e-06 -1.57734e-06 2.83597e-19 -7.80939e-06 -1.98168e-20 1.72929e-08)
(6.6029e-06 -3.18022e-06 2.0781e-20 -6.59186e-06 -8.21734e-21 -1.10447e-08)
(4.8243e-06 -4.81606e-06 1.30244e-19 -4.90318e-06 -3.01979e-21 7.88837e-08)
(7.97451e-06 3.62433e-07 7.71862e-20 -7.97357e-06 -1.59268e-20 -9.41955e-10)
(7.37359e-06 -1.36573e-06 -1.64207e-19 -7.38694e-06 -1.73249e-20 1.3354e-08)
(6.26365e-06 -2.88555e-06 4.00866e-20 -6.25803e-06 -7.73588e-21 -5.62651e-09)
(4.60281e-06 -4.36938e-06 -2.46614e-19 -4.66248e-06 2.85712e-21 5.96746e-08)
(7.51211e-06 4.65052e-07 -1.3788e-19 -7.51195e-06 6.26746e-21 -1.6483e-10)
(6.96026e-06 -1.15902e-06 -1.10205e-19 -6.97003e-06 1.52813e-20 9.77436e-09)
(5.93118e-06 -2.59321e-06 -2.14233e-19 -5.92914e-06 4.37104e-21 -2.03503e-09)
(4.39304e-06 -3.94863e-06 1.5964e-19 -4.43756e-06 -3.95868e-21 4.45163e-08)
(7.0544e-06 5.61751e-07 1.53928e-19 -7.05483e-06 -2.72744e-21 4.22513e-10)
(6.55285e-06 -9.60703e-07 1.22141e-19 -6.55994e-06 -3.78571e-21 7.09593e-09)
(5.60677e-06 -2.30786e-06 1.04063e-19 -5.60753e-06 -1.94648e-21 7.60453e-10)
(4.19283e-06 -3.55184e-06 -3.57015e-19 -4.22614e-06 5.94076e-21 3.33015e-08)
(6.60357e-06 6.50957e-07 -1.82949e-19 -6.60475e-06 -4.68107e-21 1.1876e-09)
(6.15279e-06 -7.70544e-07 -1.84262e-19 -6.15777e-06 -7.12275e-22 4.9819e-09)
(5.29004e-06 -2.03145e-06 -2.69749e-19 -5.29224e-06 3.41717e-22 2.19413e-09)
(3.99965e-06 -3.17878e-06 5.6845e-19 -4.02416e-06 4.95603e-21 2.4515e-08)
(6.16109e-06 7.31993e-07 9.07386e-20 -6.16254e-06 1.34545e-20 1.45128e-09)
(5.76118e-06 -5.91203e-07 1.24951e-19 -5.76482e-06 1.52539e-21 3.63299e-09)
(4.98168e-06 -1.76639e-06 1.57924e-19 -4.98514e-06 1.18749e-20 3.45751e-09)
(3.81241e-06 -2.82787e-06 -2.28051e-19 -3.83013e-06 -8.81062e-21 1.7714e-08)
(5.72927e-06 8.04147e-07 4.77055e-20 -5.73091e-06 -7.38033e-21 1.64703e-09)
(5.37887e-06 -4.23072e-07 -1.69487e-19 -5.38111e-06 -5.44158e-21 2.24442e-09)
(4.68086e-06 -1.51501e-06 6.24179e-20 -4.68493e-06 -1.22842e-20 4.06392e-09)
(3.62967e-06 -2.49943e-06 9.54938e-20 -3.64244e-06 4.26645e-21 1.27731e-08)
(5.35101e-06 1.9856e-06 -1.85806e-19 -5.35249e-06 9.37534e-21 1.47664e-09)
(5.30982e-06 8.66427e-07 -7.5844e-20 -5.31165e-06 -8.66225e-21 1.82136e-09)
(5.00762e-06 -2.67113e-07 5.43736e-20 -5.00898e-06 1.57226e-20 1.36006e-09)
(4.38792e-06 -1.27806e-06 -2.58342e-19 -4.39202e-06 -1.21455e-21 4.10236e-09)
(3.45009e-06 -2.19279e-06 -6.5556e-20 -3.45885e-06 4.89977e-22 8.76766e-09)
(4.91958e-06 1.94674e-06 2.08259e-19 -4.92101e-06 1.39507e-20 1.42751e-09)
(4.90438e-06 9.18612e-07 -8.38598e-20 -4.9061e-06 5.18841e-21 1.71895e-09)
(4.64831e-06 -1.24563e-07 2.1803e-19 -4.64916e-06 6.2557e-22 8.53863e-10)
(4.10349e-06 -1.05716e-06 1.73113e-19 -4.10763e-06 1.15602e-20 4.1351e-09)
(3.27315e-06 -1.90741e-06 1.97794e-19 -3.27884e-06 5.88807e-21 5.69925e-09)
(4.50655e-06 1.89977e-06 -5.18686e-20 -4.50783e-06 -1.06711e-20 1.28238e-09)
(4.51463e-06 9.60235e-07 9.76577e-20 -4.51636e-06 6.07074e-21 1.72748e-09)
(4.3018e-06 4.33233e-09 -5.8829e-20 -4.30223e-06 -1.36981e-20 4.31216e-10)
(3.82768e-06 -8.53203e-07 -4.82144e-21 -3.83172e-06 -7.48575e-21 4.03921e-09)
(3.09842e-06 -1.64325e-06 -7.95093e-20 -3.10178e-06 -9.78629e-21 3.36076e-09)
(4.11352e-06 1.84534e-06 3.02353e-20 -4.11465e-06 -4.32169e-22 1.13156e-09)
(4.14171e-06 9.91365e-07 -1.35823e-20 -4.1434e-06 -3.19901e-21 1.68635e-09)
(3.96903e-06 1.19202e-07 -1.44685e-19 -3.96914e-06 1.92702e-21 1.0295e-10)
(3.56085e-06 -6.66602e-07 -9.22528e-20 -3.56467e-06 -6.44603e-21 3.8127e-09)
(2.92563e-06 -1.4e-06 -2.10203e-19 -2.92708e-06 -4.79032e-21 1.44797e-09)
(3.74167e-06 1.78434e-06 -9.68206e-20 -3.74276e-06 -7.74442e-22 1.08121e-09)
(3.78681e-06 1.0124e-06 1.96861e-20 -3.78838e-06 -8.24482e-22 1.56907e-09)
(3.65083e-06 2.20001e-07 1.43682e-19 -3.65073e-06 6.2964e-21 -1.04191e-10)
(3.30345e-06 -4.97584e-07 -1.20755e-19 -3.30697e-06 -3.21827e-21 3.52949e-09)
(2.75495e-06 -1.17718e-06 7.368e-20 -2.7549e-06 5.9131e-21 -4.79654e-11)
(3.39178e-06 1.71768e-06 1.43796e-19 -3.39278e-06 1.37683e-20 1.00355e-09)
(3.45084e-06 1.02346e-06 -3.6209e-20 -3.45232e-06 1.66962e-21 1.48062e-09)
(3.34787e-06 3.0676e-07 -1.41424e-19 -3.34769e-06 -7.73595e-21 -1.83912e-10)
(3.056e-06 -3.46106e-07 -2.8214e-20 -3.0593e-06 7.25037e-21 3.29819e-09)
(2.58663e-06 -9.74518e-07 -1.87832e-20 -2.58535e-06 -8.28696e-22 -1.2815e-09)
(3.06436e-06 1.64642e-06 7.11168e-20 -3.06524e-06 -3.21599e-21 8.87029e-10)
(3.13434e-06 1.0253e-06 9.74615e-20 -3.13571e-06 6.56857e-21 1.36649e-09)
(3.06054e-06 3.79862e-07 1.12837e-19 -3.06026e-06 7.8721e-21 -2.81123e-10)
(2.81882e-06 -2.11944e-07 2.65096e-19 -2.8219e-06 1.07011e-20 3.08202e-09)
(2.42114e-06 -7.91289e-07 9.0272e-20 -2.41889e-06 6.4216e-21 -2.24693e-09)
(2.75967e-06 1.57149e-06 -5.73614e-20 -2.76046e-06 -7.83737e-21 7.90398e-10)
(2.83775e-06 1.01859e-06 5.59957e-21 -2.83904e-06 -6.30094e-21 1.28507e-09)
(2.78933e-06 4.39969e-07 -5.73631e-20 -2.78899e-06 -6.18866e-21 -3.45989e-10)
(2.59229e-06 -9.45419e-08 -1.08048e-19 -2.59515e-06 -1.38639e-20 2.85166e-09)
(2.25889e-06 -6.27164e-07 6.29774e-20 -2.25584e-06 1.61863e-21 -3.04992e-09)
(2.47759e-06 1.49392e-06 -7.69547e-20 -2.47831e-06 -2.33529e-21 7.12641e-10)
(2.56121e-06 1.00414e-06 -1.43839e-19 -2.5624e-06 -7.32145e-21 1.19083e-09)
(2.53445e-06 4.87619e-07 -2.14859e-20 -2.5341e-06 2.12845e-21 -3.51106e-10)
(2.37681e-06 6.80572e-09 -8.85088e-20 -2.37949e-06 -2.8999e-21 2.67873e-09)
(2.10059e-06 -4.80916e-07 -2.67413e-21 -2.09692e-06 -4.14506e-21 -3.67214e-09)
(2.21773e-06 1.41473e-06 8.87187e-21 -2.21838e-06 5.6797e-21 6.40931e-10)
(2.30462e-06 9.82831e-07 7.09518e-20 -2.3057e-06 7.02121e-21 1.07965e-09)
(2.29595e-06 5.23846e-07 9.18445e-20 -2.29557e-06 4.80507e-21 -3.73911e-10)
(2.17261e-06 9.29578e-08 -1.11374e-20 -2.1751e-06 3.17048e-21 2.48473e-09)
(1.94676e-06 -3.52161e-07 -1.54186e-19 -1.94262e-06 -6.68263e-21 -4.13481e-09)
(1.97954e-06 1.33483e-06 1.25103e-19 -1.9801e-06 9.51244e-21 5.63299e-10)
(2.06772e-06 9.55694e-07 -5.36627e-20 -2.06869e-06 -6.94481e-21 9.68914e-10)
(2.07376e-06 5.49498e-07 -7.48026e-20 -2.07339e-06 -7.76941e-21 -3.77193e-10)
(1.97996e-06 1.64874e-07 7.47596e-20 -1.98231e-06 3.06331e-21 2.3504e-09)
(1.79801e-06 -2.39613e-07 1.55472e-19 -1.79348e-06 1.24958e-20 -4.53286e-09)
(1.76219e-06 1.25502e-06 -2.33751e-21 -1.76268e-06 -2.65553e-21 4.89342e-10)
(1.84999e-06 9.23585e-07 -9.04859e-20 -1.8509e-06 -4.92111e-21 9.12283e-10)
(1.86774e-06 5.65652e-07 -2.06744e-20 -1.86735e-06 -2.01602e-21 -3.83597e-10)
(1.79893e-06 2.23702e-07 -6.55996e-20 -1.80116e-06 -4.51943e-21 2.23015e-09)
(1.65495e-06 -1.42374e-07 -7.18167e-21 -1.65015e-06 -5.48264e-21 -4.80124e-09)
(1.42797e-06 1.43578e-06 -5.67794e-22 -1.4285e-06 -6.16378e-22 5.29041e-10)
(1.56475e-06 1.17613e-06 1.84779e-20 -1.56517e-06 1.07403e-21 4.18038e-10)
(1.65073e-06 8.87562e-07 2.70453e-20 -1.65155e-06 3.83144e-21 8.13776e-10)
(1.67749e-06 5.7337e-07 -1.04825e-19 -1.6771e-06 -5.09128e-21 -3.92071e-10)
(1.62957e-06 2.7057e-07 9.0424e-20 -1.63167e-06 7.39654e-21 2.0968e-09)
(1.51806e-06 -5.93496e-08 -1.51169e-19 -1.51309e-06 -8.4747e-21 -4.97218e-09)
(1.26043e-06 1.32289e-06 -1.78909e-20 -1.26089e-06 -1.45943e-21 4.61008e-10)
(1.38616e-06 1.09881e-06 -2.56185e-20 -1.38652e-06 -3.37094e-21 3.60387e-10)
(1.46923e-06 8.48514e-07 -2.84296e-20 -1.46996e-06 -3.46306e-21 7.22997e-10)
(1.50256e-06 5.73796e-07 1.35408e-19 -1.50217e-06 1.32956e-20 -3.87165e-10)
(1.47183e-06 3.06664e-07 -1.03126e-20 -1.47381e-06 -3.85769e-21 1.97703e-09)
(1.38777e-06 1.05936e-08 1.30313e-19 -1.3827e-06 1.11497e-20 -5.06731e-09)
(1.11029e-06 1.2164e-06 1.78592e-20 -1.11068e-06 3.16561e-21 3.90499e-10)
(1.22523e-06 1.02361e-06 -4.62281e-20 -1.22553e-06 -3.06099e-21 2.99177e-10)
(1.30455e-06 8.07247e-07 1.36428e-21 -1.30522e-06 1.44109e-21 6.7399e-10)
(1.34241e-06 5.6793e-07 5.97723e-20 -1.34203e-06 1.42016e-21 -3.86816e-10)
(1.32556e-06 3.33187e-07 -9.48261e-20 -1.32744e-06 -5.04181e-21 1.87858e-09)
(1.26443e-06 6.8648e-08 -5.59704e-20 -1.25933e-06 -5.52497e-21 -5.09706e-09)
(9.76215e-07 1.11641e-06 6.33982e-20 -9.76553e-07 4.28211e-21 3.38579e-10)
(1.08075e-06 9.51037e-07 3.29303e-20 -1.081e-06 3.46041e-21 2.4647e-10)
(1.15569e-06 7.64652e-07 7.2089e-20 -1.15629e-06 5.27973e-21 5.99073e-10)
(1.19636e-06 5.56842e-07 -7.96798e-20 -1.19597e-06 -6.15635e-21 -3.95242e-10)
(1.19049e-06 3.51311e-07 1.3701e-19 -1.19227e-06 1.21517e-20 1.78144e-09)
(1.14829e-06 1.15942e-07 6.06823e-20 -1.14321e-06 5.5137e-21 -5.08137e-09)
(8.56845e-07 1.02294e-06 -7.36217e-20 -8.57133e-07 -7.59079e-21 2.88193e-10)
(9.51478e-07 8.8144e-07 -1.2348e-20 -9.51686e-07 -2.10128e-21 2.0771e-10)
(1.02166e-06 7.21324e-07 -8.50437e-20 -1.0222e-06 -9.2285e-21 5.45358e-10)
(1.06369e-06 5.41507e-07 9.75276e-20 -1.06331e-06 9.34599e-21 -3.88601e-10)
(1.06631e-06 3.62204e-07 9.0298e-21 -1.06798e-06 -1.35209e-21 1.67385e-09)
(1.03952e-06 1.53629e-07 -3.41248e-20 -1.03452e-06 -4.80039e-21 -4.9991e-09)
(7.50881e-07 9.35905e-07 2.96815e-20 -7.51123e-07 3.99492e-21 2.42148e-10)
(8.36183e-07 8.15141e-07 -3.07504e-20 -8.36341e-07 -2.41034e-21 1.5771e-10)
(9.01354e-07 6.77975e-07 -1.583e-20 -9.01836e-07 2.43725e-22 4.82061e-10)
(9.4361e-07 5.2281e-07 -1.04906e-20 -9.43219e-07 -2.31337e-21 -3.90813e-10)
(9.52599e-07 3.66887e-07 -3.63023e-20 -9.54181e-07 -2.69925e-21 1.58208e-09)
(9.3815e-07 1.82816e-07 -1.07884e-19 -9.33277e-07 -7.9943e-21 -4.87319e-09)
(6.57047e-07 8.5514e-07 -6.93583e-21 -6.57255e-07 8.55378e-22 2.08562e-10)
(7.33653e-07 7.52275e-07 8.24193e-21 -7.33789e-07 1.17152e-21 1.35434e-10)
(7.93749e-07 6.35064e-07 2.88047e-20 -7.94191e-07 2.9283e-21 4.41533e-10)
(8.35324e-07 5.01557e-07 -8.08338e-21 -8.34937e-07 -1.18056e-21 -3.86982e-10)
(8.48897e-07 3.66418e-07 2.41113e-20 -8.50389e-07 1.31179e-21 1.49156e-09)
(8.44152e-07 2.04598e-07 8.70434e-20 -8.39426e-07 8.87259e-21 -4.72632e-09)
(5.74144e-07 7.80473e-07 1.4096e-19 -5.74318e-07 1.38649e-20 1.73719e-10)
(6.42694e-07 6.93023e-07 8.24027e-21 -6.42793e-07 1.25671e-21 9.86061e-11)
(6.97762e-07 5.93069e-07 5.53076e-21 -6.98146e-07 1.26412e-23 3.84021e-10)
(7.37972e-07 4.78475e-07 -5.15778e-20 -7.37592e-07 -3.39634e-21 -3.7952e-10)
(7.5469e-07 3.61696e-07 -8.7178e-20 -7.56088e-07 -7.74769e-21 1.3982e-09)
(7.57413e-07 2.19969e-07 -1.54164e-20 -7.52864e-07 -1.87837e-21 -4.5487e-09)
(5.01064e-07 7.11624e-07 -4.43801e-20 -5.01209e-07 -5.83016e-21 1.45056e-10)
(5.62222e-07 6.37381e-07 1.8935e-20 -5.62298e-07 1.56174e-21 7.66554e-11)
(6.12389e-07 5.52314e-07 -2.12445e-20 -6.12743e-07 -2.81439e-21 3.53739e-10)
(6.50738e-07 4.54196e-07 1.01672e-19 -6.50363e-07 9.53294e-21 -3.75118e-10)
(6.69411e-07 3.53558e-07 7.15104e-20 -6.70725e-07 7.60518e-21 1.3138e-09)
(6.77737e-07 2.29851e-07 7.64931e-20 -6.73388e-07 6.26916e-21 -4.34899e-09)
(3.7603e-07 7.01293e-07 3.50498e-20 -3.76114e-07 3.32839e-21 8.43478e-11)
(4.36755e-07 6.48308e-07 5.43571e-20 -4.3688e-07 6.66709e-21 1.25398e-10)
(4.9117e-07 5.85371e-07 -1.71858e-20 -4.9122e-07 -2.1981e-21 4.96513e-11)
(5.36623e-07 5.13107e-07 -3.94796e-20 -5.36937e-07 -3.64632e-21 3.13544e-10)
(5.72791e-07 4.29247e-07 -6.75613e-20 -5.72423e-07 -7.42728e-21 -3.68172e-10)
(5.92485e-07 3.42745e-07 -2.11457e-20 -5.93715e-07 -2.24255e-21 1.23024e-09)
(6.04863e-07 2.35136e-07 -1.30356e-19 -6.00726e-07 -1.34139e-20 -4.13776e-09)
(3.26907e-07 6.35067e-07 -5.20376e-20 -3.26973e-07 -5.75677e-21 6.59191e-11)
(3.80256e-07 5.90226e-07 3.91876e-20 -3.80359e-07 2.92286e-21 1.02603e-10)
(4.28545e-07 5.36924e-07 -4.6543e-20 -4.28583e-07 -4.67528e-21 3.81582e-11)
(4.69564e-07 4.75612e-07 -1.05124e-20 -4.69846e-07 -2.06114e-23 2.81904e-10)
(5.03328e-07 4.04085e-07 2.27061e-20 -5.02975e-07 1.93807e-21 -3.53011e-10)
(5.23326e-07 3.29898e-07 4.71439e-20 -5.24475e-07 5.28745e-21 1.14925e-09)
(5.38487e-07 2.36587e-07 -1.78969e-20 -5.34573e-07 5.19765e-23 -3.91423e-09)
(2.83883e-07 5.74993e-07 3.84372e-20 -2.83938e-07 5.35192e-21 5.53099e-11)
(3.30703e-07 5.37061e-07 -7.39637e-20 -3.3079e-07 -8.17977e-21 8.67934e-11)
(3.73446e-07 4.91968e-07 -6.34821e-21 -3.73473e-07 -5.5993e-22 2.71584e-11)
(4.10319e-07 4.40001e-07 9.74387e-20 -4.10565e-07 9.57579e-21 2.4584e-10)
(4.4157e-07 3.79093e-07 -9.67373e-20 -4.41229e-07 -9.8887e-21 -3.41168e-10)
(4.61327e-07 3.15601e-07 4.61224e-20 -4.62393e-07 4.57829e-21 1.0663e-09)
(4.78261e-07 2.34916e-07 5.7235e-20 -4.74572e-07 4.77931e-21 -3.68951e-09)
(2.46236e-07 5.20589e-07 6.23625e-20 -2.4628e-07 6.78366e-21 4.35638e-11)
(2.87277e-07 4.88513e-07 5.72741e-22 -2.87348e-07 6.91315e-22 7.07539e-11)
(3.25045e-07 4.50381e-07 7.47894e-21 -3.25061e-07 1.06066e-21 1.61327e-11)
(3.58066e-07 4.06378e-07 -1.14542e-19 -3.58283e-07 -1.25555e-20 2.1661e-10)
(3.86791e-07 3.54567e-07 -3.42862e-21 -3.86464e-07 -3.85744e-22 -3.26801e-10)
(4.05911e-07 3.00315e-07 8.05979e-20 -4.06908e-07 8.65969e-21 9.96743e-10)
(4.23819e-07 2.30737e-07 -1.59528e-19 -4.2036e-07 -1.66948e-20 -3.45882e-09)
(2.1332e-07 4.71381e-07 1.55402e-20 -2.13355e-07 1.37776e-21 3.49923e-11)
(2.49256e-07 4.44262e-07 -2.10353e-20 -2.49319e-07 -1.95471e-21 6.26839e-11)
(2.82581e-07 4.12021e-07 -1.1794e-20 -2.82589e-07 -1.50929e-21 7.44113e-12)
(3.1205e-07 3.74788e-07 3.17794e-20 -3.12249e-07 4.55538e-21 1.98749e-10)
(3.383e-07 3.30766e-07 -5.70849e-20 -3.37988e-07 -6.10926e-21 -3.11658e-10)
(3.56497e-07 2.84488e-07 6.29347e-20 -3.57421e-07 6.30521e-21 9.23986e-10)
(3.74759e-07 2.24624e-07 -2.78223e-20 -3.71525e-07 -2.06506e-21 -3.23426e-09)
(1.84556e-07 4.26875e-07 8.47467e-21 -1.84581e-07 5.1387e-22 2.55318e-11)
(2.15992e-07 4.0396e-07 4.54366e-20 -2.16044e-07 5.23692e-21 5.19303e-11)
(2.4535e-07 3.76718e-07 -4.13281e-21 -2.45347e-07 -2.55384e-22 -3.02312e-12)
(2.71572e-07 3.45241e-07 2.68461e-20 -2.71747e-07 1.92205e-21 1.75037e-10)
(2.95435e-07 3.07868e-07 -7.7401e-21 -2.95135e-07 -9.95385e-22 -3.00221e-10)
(3.12532e-07 2.6844e-07 6.27372e-20 -3.1339e-07 6.58899e-21 8.58212e-10)
(3.30686e-07 2.17049e-07 -6.83834e-20 -3.27673e-07 -6.87362e-21 -3.01303e-09)
(1.59457e-07 3.86523e-07 -2.97056e-20 -1.59479e-07 -3.76017e-21 2.14179e-11)
(1.86936e-07 3.67179e-07 1.68979e-20 -1.8698e-07 1.62924e-21 4.47036e-11)
(2.12749e-07 3.44192e-07 2.15698e-20 -2.12745e-07 2.40442e-21 -3.70282e-12)
(2.36029e-07 3.1761e-07 -1.07559e-19 -2.36187e-07 -1.17014e-20 1.57732e-10)
(2.57609e-07 2.85938e-07 -7.55418e-20 -2.57329e-07 -8.43531e-21 -2.79616e-10)
(2.735e-07 2.52406e-07 5.0785e-20 -2.74295e-07 4.92375e-21 7.94066e-10)
(2.91197e-07 2.08401e-07 -6.42423e-21 -2.88401e-07 -5.5507e-22 -2.79618e-09)
(1.12348e-07 3.63246e-07 3.16438e-21 -1.12367e-07 6.54689e-22 1.91994e-11)
(1.37598e-07 3.4978e-07 -3.57489e-20 -1.37613e-07 -3.63888e-21 1.45143e-11)
(1.61596e-07 3.33478e-07 2.47764e-20 -1.6163e-07 2.39421e-21 3.38289e-11)
(1.84258e-07 3.14116e-07 -3.81528e-20 -1.84247e-07 -4.65413e-21 -1.06474e-11)
(2.04865e-07 2.91714e-07 2.67481e-21 -2.05002e-07 7.64201e-22 1.3775e-10)
(2.24296e-07 2.64927e-07 -1.46844e-20 -2.24028e-07 -8.44833e-22 -2.67868e-10)
(2.38924e-07 2.36474e-07 9.63158e-21 -2.39656e-07 5.3949e-22 7.32158e-10)
(2.55913e-07 1.98914e-07 -3.22666e-20 -2.53326e-07 -2.96295e-21 -2.58681e-09)
(9.6644e-08 3.27628e-07 2.18006e-20 -9.66664e-08 2.54543e-21 2.23531e-11)
(1.1863e-07 3.16253e-07 5.87655e-20 -1.18647e-07 6.96063e-21 1.75752e-11)
(1.39569e-07 3.02513e-07 -5.06045e-20 -1.39605e-07 -5.72017e-21 3.56877e-11)
(1.59439e-07 2.86209e-07 -5.45605e-20 -1.59432e-07 -5.625e-21 -7.23112e-12)
(1.77631e-07 2.67351e-07 -1.93059e-20 -1.77759e-07 -2.53929e-21 1.2875e-10)
(1.95051e-07 2.44735e-07 5.75205e-20 -1.94805e-07 6.47037e-21 -2.45627e-10)
(2.08402e-07 2.20651e-07 -4.38666e-20 -2.09079e-07 -5.02303e-21 6.77343e-10)
(2.24489e-07 1.88714e-07 7.80548e-20 -2.2211e-07 8.5731e-21 -2.37893e-09)
(8.29645e-08 2.95419e-07 1.93663e-20 -8.29719e-08 2.38727e-21 7.32154e-12)
(1.02117e-07 2.85774e-07 -2.69752e-20 -1.02119e-07 -3.47168e-21 2.7186e-12)
(1.20389e-07 2.74161e-07 -3.21205e-21 -1.20408e-07 -2.46443e-22 1.91001e-11)
(1.37801e-07 2.60404e-07 6.67252e-20 -1.37781e-07 8.08794e-21 -1.99319e-11)
(1.53843e-07 2.44505e-07 -3.95469e-20 -1.53948e-07 -4.89704e-21 1.04359e-10)
(1.69409e-07 2.25408e-07 -1.35718e-20 -1.69174e-07 -1.28561e-21 -2.3519e-10)
(1.81531e-07 2.05021e-07 -4.19515e-20 -1.8214e-07 -4.19231e-21 6.09533e-10)
(1.96581e-07 1.77927e-07 8.68175e-21 -1.94398e-07 5.67746e-22 -2.18364e-09)
(7.10409e-08 2.66505e-07 3.63481e-20 -7.10689e-08 3.97644e-21 2.80057e-11)
(8.77305e-08 2.58278e-07 -1.84094e-20 -8.77519e-08 -1.96995e-21 2.13726e-11)
(1.03689e-07 2.48406e-07 9.90683e-21 -1.03721e-07 9.69398e-22 3.19527e-11)
(1.18944e-07 2.36747e-07 4.7438e-20 -1.18942e-07 5.5162e-21 -1.41566e-12)
(1.33081e-07 2.23295e-07 -1.53008e-19 -1.33189e-07 -1.71072e-20 1.0857e-10)
(1.46965e-07 2.07122e-07 1.0879e-19 -1.46761e-07 1.18201e-20 -2.03908e-10)
(1.57926e-07 1.89832e-07 4.35821e-20 -1.58493e-07 5.05397e-21 5.67324e-10)
(1.71878e-07 1.66868e-07 1.00787e-20 -1.69912e-07 8.6953e-22 -1.96581e-09)
(6.048e-08 2.40572e-07 -4.09926e-20 -6.04585e-08 -5.09689e-21 -2.14559e-11)
(7.50094e-08 2.33515e-07 3.26129e-21 -7.49958e-08 4.53644e-22 -1.35396e-11)
(8.89468e-08 2.25071e-07 -1.79832e-20 -8.8945e-08 -1.94404e-21 -1.78852e-12)
(1.0233e-07 2.15129e-07 4.14917e-20 -1.02294e-07 4.49093e-21 -3.60316e-11)
(1.14776e-07 2.03684e-07 2.77702e-20 -1.14848e-07 3.73332e-21 7.20634e-11)
(1.27148e-07 1.89913e-07 -1.81355e-20 -1.26933e-07 -2.03021e-21 -2.15341e-10)
(1.37041e-07 1.75162e-07 -1.99828e-20 -1.37521e-07 -2.49203e-21 4.79977e-10)
(1.49883e-07 1.55626e-07 -3.2681e-20 -1.48071e-07 -3.47494e-21 -1.8128e-09)
(5.1338e-08 2.18271e-07 -2.5642e-20 -5.13549e-08 -2.93184e-21 1.69059e-11)
(6.4013e-08 2.12244e-07 2.95511e-21 -6.40297e-08 4.58782e-22 1.67104e-11)
(7.61994e-08 2.0504e-07 6.23712e-20 -7.62216e-08 6.96669e-21 2.22277e-11)
(8.79652e-08 1.9656e-07 -3.33627e-22 -8.79417e-08 3.1715e-23 -2.34271e-11)
(9.89596e-08 1.86802e-07 -4.77447e-20 -9.90213e-08 -5.59562e-21 6.16476e-11)
(1.09969e-07 1.75032e-07 9.78848e-20 -1.09772e-07 1.11582e-20 -1.96259e-10)
(1.18909e-07 1.62376e-07 -1.85828e-20 -1.19317e-07 -2.26534e-21 4.07994e-10)
(1.30683e-07 1.45631e-07 6.12567e-20 -1.29037e-07 7.05853e-21 -1.64568e-09)
(4.48408e-08 2.00259e-07 -4.94785e-20 -4.49334e-08 -5.66601e-21 9.26248e-11)
(5.60554e-08 1.9498e-07 5.32392e-20 -5.6174e-08 6.20882e-21 1.18642e-10)
(6.68581e-08 1.88699e-07 -8.76462e-20 -6.70005e-08 -1.04815e-20 1.42339e-10)
(7.72881e-08 1.81335e-07 2.25597e-20 -7.7415e-08 2.63283e-21 1.26864e-10)
(8.70642e-08 1.72861e-07 2.84567e-20 -8.72892e-08 3.34525e-21 2.25003e-10)
(9.69216e-08 1.62604e-07 2.50581e-20 -9.69371e-08 2.18155e-21 1.55112e-11)
(1.0495e-07 1.51566e-07 -7.89226e-20 -1.05574e-07 -8.3642e-21 6.23739e-10)
(1.15907e-07 1.3718e-07 4.14097e-20 -1.14706e-07 4.04625e-21 -1.20118e-09)
(2.90575e-08 1.88571e-07 1.01175e-20 -2.88018e-08 1.25083e-21 -2.55687e-10)
(3.92863e-08 1.84766e-07 2.79662e-20 -3.91531e-08 3.52734e-21 -1.33138e-10)
(4.93145e-08 1.79934e-07 -1.10508e-20 -4.91913e-08 -1.2586e-21 -1.23127e-10)
(5.90066e-08 1.74258e-07 -1.72571e-20 -5.88601e-08 -1.84383e-21 -1.46527e-10)
(6.83587e-08 1.67696e-07 4.62841e-20 -6.81507e-08 5.22113e-21 -2.07985e-10)
(7.7098e-08 1.60201e-07 -2.82487e-20 -7.69437e-08 -3.24888e-21 -1.54298e-10)
(8.59524e-08 1.51173e-07 -9.34905e-20 -8.55642e-08 -1.06923e-20 -3.88206e-10)
(9.31561e-08 1.4141e-07 1.08635e-19 -9.3263e-08 1.25952e-20 1.06961e-10)
(1.03221e-07 1.28895e-07 -5.95545e-20 -1.01548e-07 -6.96199e-21 -1.67358e-09)
(2.53172e-08 1.7442e-07 2.84437e-21 -2.52932e-08 2.98673e-22 -2.39376e-11)
(3.44559e-08 1.70915e-07 -8.46959e-21 -3.46967e-08 -1.37803e-21 2.4074e-10)
(4.34951e-08 1.66444e-07 6.16746e-20 -4.38524e-08 7.19941e-21 3.57272e-10)
(5.23409e-08 1.61181e-07 -3.40364e-20 -5.27138e-08 -3.78679e-21 3.72866e-10)
(6.08704e-08 1.55127e-07 -2.39316e-20 -6.12201e-08 -3.02901e-21 3.4969e-10)
(6.88036e-08 1.48249e-07 -1.11704e-20 -6.9244e-08 -1.18316e-21 4.40413e-10)
(7.67826e-08 1.40069e-07 7.94029e-20 -7.70804e-08 9.30965e-21 2.97871e-10)
(8.3214e-08 1.31339e-07 -2.72369e-20 -8.4088e-08 -2.69097e-21 8.73977e-10)
(9.2299e-08 1.20678e-07 -5.31353e-20 -9.17804e-08 -6.44302e-21 -5.18568e-10)
(2.07657e-08 1.59723e-07 -7.57966e-22 -1.98725e-08 -7.85727e-23 -8.93256e-10)
(2.85577e-08 1.56567e-07 -5.61206e-20 -2.78771e-08 -6.78305e-21 -6.80651e-10)
(3.63509e-08 1.52594e-07 -4.81689e-20 -3.57215e-08 -5.65348e-21 -6.29351e-10)
(4.41032e-08 1.47932e-07 1.71117e-20 -4.33907e-08 2.13482e-21 -7.12535e-10)
(5.16164e-08 1.42596e-07 -1.31331e-20 -5.0801e-08 -1.65805e-21 -8.15463e-10)
(5.86418e-08 1.36538e-07 3.22367e-20 -5.78495e-08 4.07478e-21 -7.92353e-10)
(6.58409e-08 1.29263e-07 -6.44776e-20 -6.48266e-08 -8.36809e-21 -1.0143e-09)
(7.18383e-08 1.212e-07 2.0051e-19 -7.11035e-08 2.36027e-20 -7.34723e-10)
(8.01819e-08 1.11089e-07 -9.98924e-20 -7.78476e-08 -1.15155e-20 -2.33431e-09)
(1.88172e-08 1.47476e-07 -1.13503e-21 -1.96221e-08 -2.58014e-23 8.04954e-10)
(2.5895e-08 1.44552e-07 -5.22704e-20 -2.71656e-08 -6.07932e-21 1.27055e-09)
(3.3032e-08 1.40843e-07 1.10166e-19 -3.4548e-08 1.30267e-20 1.51596e-09)
(4.01867e-08 1.36447e-07 6.71205e-21 -4.1746e-08 8.14087e-22 1.55932e-09)
(4.70574e-08 1.31405e-07 -6.3175e-20 -4.86192e-08 -7.05395e-21 1.56183e-09)
(5.33794e-08 1.25739e-07 7.35976e-20 -5.50635e-08 8.31131e-21 1.68412e-09)
(5.95925e-08 1.19183e-07 -1.40689e-19 -6.13156e-08 -1.63988e-20 1.72305e-09)
(6.45385e-08 1.12406e-07 1.29208e-19 -6.70086e-08 1.43804e-20 2.47007e-09)
(7.17829e-08 1.04965e-07 -1.52421e-19 -7.35697e-08 -1.69639e-20 1.78678e-09)