/*--------------------------------*- C++ -*----------------------------------*\
| =========                 |                                                 |
| \\      /  F ield         | OpenFOAM: The Open Source CFD Toolbox           |
|  \\    /   O peration     | Version:  2506                                  |
|   \\  /    A nd           | Website:  www.openfoam.com                      |
|    \\/     M anipulation  |                                                 |
\*---------------------------------------------------------------------------*/
FoamFile
{
    version     2.0;
    format      ascii;
    arch        "LSB;label=32;scalar=64";
    class       volScalarField;
    location    "0.1";
    object      mag(U);
}
// * * * * * * * * * * * * * * * * * * * * * * * * * * * * * * * * * * * * * //

dimensions      [0 1 -1 0 0 0 0];

internalField   nonuniform List<scalar> 
400
(
0.000349869
0.000176975
0.00128944
0.00354095
0.00636607
0.00938194
0.0122443
0.0146673
0.0164297
0.0173768
0.0174211
0.0165471
0.0148165
0.0123737
0.00944927
0.00635608
0.00347274
0.0012086
0.000211258
0.000368551
0.000181844
0.00226808
0.00663887
0.0125498
0.0194243
0.026577
0.0333044
0.0389778
0.0430923
0.0452902
0.0453732
0.0433141
0.0392665
0.0335689
0.0267397
0.0194497
0.0124566
0.00648888
0.0021329
0.000225883
0.00119305
0.00672299
0.0144823
0.0236795
0.0336428
0.043646
0.0528909
0.0606183
0.0661962
0.0691678
0.0692811
0.0665061
0.0610442
0.0533251
0.0439847
0.0338151
0.0236656
0.0143191
0.00649922
0.00105037
0.00354215
0.0132663
0.0247228
0.0370122
0.0494493
0.0614063
0.0721751
0.0810456
0.0874028
0.0907911
0.0909561
0.0878672
0.0817229
0.072938
0.0621085
0.0499522
0.0372182
0.0246167
0.0129567
0.00329516
0.00688403
0.0219248
0.0374916
0.0527802
0.0672259
0.0804208
0.0918955
0.101144
0.107703
0.111214
0.111471
0.108441
0.102268
0.0932437
0.0817758
0.06834
0.0534332
0.0375835
0.0215778
0.00652316
0.0111601
0.0327269
0.0529558
0.0712604
0.0873367
0.101127
0.112547
0.121446
0.12765
0.131001
0.131397
0.128805
0.123253
0.1148
0.10351
0.0894481
0.0727042
0.0534961
0.0324706
0.0107037
0.0163629
0.0457118
0.0712297
0.0926249
0.109983
0.123734
0.134323
0.142112
0.147362
0.15024
0.150815
0.149061
0.144826
0.13781
0.12757
0.113577
0.0953409
0.0726182
0.0457945
0.0158799
0.0225327
0.0609577
0.0923971
0.11693
0.135167
0.148171
0.157066
0.162887
0.166492
0.16851
0.169275
0.168785
0.166642
0.162052
0.153877
0.1408
0.121546
0.095219
0.061792
0.022168
0.0297536
0.0785882
0.116517
0.144104
0.162657
0.17404
0.180216
0.183045
0.184155
0.184802
0.185713
0.18694
0.187775
0.186778
0.181928
0.170895
0.151378
0.121564
0.0807931
0.0297565
0.0381584
0.0987709
0.1436
0.173895
0.191907
0.200519
0.202701
0.201285
0.198835
0.197427
0.198344
0.20176
0.206588
0.210582
0.210645
0.203203
0.184639
0.15186
0.103201
0.0389102
0.0479491
0.121723
0.173568
0.205776
0.221931
0.226225
0.222811
0.215614
0.208268
0.203884
0.204532
0.210613
0.220581
0.231219
0.238174
0.236429
0.220716
0.186154
0.12947
0.0499898
0.0594497
0.147721
0.206168
0.238783
0.251098
0.249012
0.238034
0.223222
0.209338
0.200749
0.200663
0.209881
0.226269
0.245427
0.261644
0.268347
0.258293
0.224149
0.160067
0.063496
0.0732136
0.177121
0.240807
0.271223
0.276817
0.265716
0.2449
0.220426
0.198053
0.183614
0.182066
0.194948
0.219182
0.248854
0.27693
0.295417
0.294932
0.264895
0.195388
0.0801603
0.0902131
0.210298
0.276181
0.300158
0.295083
0.271906
0.239025
0.203001
0.16996
0.147236
0.143026
0.160507
0.19437
0.23637
0.27861
0.312395
0.326446
0.306202
0.235542
0.101092
0.112116
0.247359
0.309481
0.320566
0.299989
0.262069
0.216205
0.168346
0.123002
0.0871383
0.0770463
0.102866
0.149207
0.204005
0.260837
0.312239
0.346115
0.343635
0.279773
0.127946
0.141675
0.287152
0.334699
0.324149
0.284005
0.232243
0.178867
0.128665
0.083291
0.0435691
0.024703
0.0560655
0.10327
0.159103
0.222165
0.28773
0.344145
0.368794
0.325093
0.163122
0.183461
0.324373
0.339133
0.298927
0.243771
0.196024
0.166928
0.157235
0.159022
0.163188
0.164391
0.161517
0.157996
0.163096
0.189398
0.241749
0.309763
0.366849
0.363161
0.210135
0.241013
0.341184
0.301163
0.245097
0.222517
0.238291
0.271395
0.304531
0.330167
0.345651
0.350043
0.342926
0.324243
0.295159
0.261065
0.238437
0.255816
0.318928
0.372508
0.269079
0.281993
0.295627
0.252611
0.300696
0.376799
0.444795
0.498107
0.536916
0.562873
0.577457
0.581471
0.574918
0.55693
0.525688
0.478635
0.413856
0.33535
0.277143
0.314306
0.30055
0.333334
0.416294
0.562591
0.675869
0.74424
0.787147
0.815319
0.833698
0.845074
0.851033
0.852325
0.849061
0.840719
0.825927
0.801982
0.763791
0.700123
0.588414
0.435033
0.343092
)
;

boundaryField
{
    movingWall
    {
        type            calculated;
        value           uniform 1;
    }
    fixedWalls
    {
        type            calculated;
        value           uniform 0;
    }
    frontAndBack
    {
        type            empty;
    }
}


// ************************************************************************* //
