/*--------------------------------*- C++ -*----------------------------------*\
| =========                 |                                                 |
| \\      /  F ield         | OpenFOAM: The Open Source CFD Toolbox           |
|  \\    /   O peration     | Version:  2506                                  |
|   \\  /    A nd           | Website:  www.openfoam.com                      |
|    \\/     M anipulation  |                                                 |
\*---------------------------------------------------------------------------*/
FoamFile
{
    version     2.0;
    format      ascii;
    arch        "LSB;label=32;scalar=64";
    class       volVectorField;
    location    "350";
    object      momentError;
}
// * * * * * * * * * * * * * * * * * * * * * * * * * * * * * * * * * * * * * //

dimensions      [0 1 -2 0 0 0 0];

internalField   nonuniform List<vector> 
10720
(
(-0.00177621 0.00873212 -6.95745e-15)
(-0.00124082 0.00857306 2.41174e-14)
(-0.000100806 0.00572933 -4.72385e-14)
(0.000338482 0.00540942 1.77791e-14)
(0.000658817 0.00483098 1.10252e-13)
(0.000880481 0.00424239 -1.75118e-13)
(0.00105716 0.00364372 9.00046e-14)
(0.00110838 0.0030022 -1.11075e-13)
(0.00107106 0.00244257 -2.54648e-13)
(0.000983635 0.00192493 3.44138e-13)
(0.000866698 0.00159546 1.24155e-13)
(0.00049592 0.00092529 -2.28821e-13)
(0.000220878 0.000515109 -3.34539e-13)
(-1.12538e-05 0.000175724 -5.72057e-14)
(-0.00026576 -0.000123992 -1.39773e-13)
(-0.000515819 -0.000383379 -3.10403e-13)
(-0.000769588 -0.000585585 -1.4676e-13)
(-0.00103275 -0.000746907 8.32721e-13)
(-0.00163998 -0.000948484 4.23309e-13)
(-0.00137923 -0.000655432 -5.95087e-13)
(-0.00166942 -0.000754321 1.05311e-13)
(-0.00194438 -0.000986891 1.53272e-13)
(-0.0106877 -0.00183055 -6.74742e-14)
(-0.0136426 -0.00302708 -1.5156e-13)
(0.00792197 -0.000409027 3.57044e-14)
(0.0213873 0.00377065 -2.34352e-15)
(0.0123258 0.00494289 4.15488e-14)
(0.00120179 0.00339817 -1.64642e-14)
(-0.006355 0.00114878 4.39562e-14)
(-0.00871589 -7.10798e-05 1.54488e-13)
(-0.00492394 -0.000303871 3.03082e-14)
(-0.000789691 -0.000300046 -1.28624e-13)
(0.00183783 -0.00032485 -7.93157e-15)
(0.00130356 -0.000152767 -2.15704e-13)
(0.000367161 0.000108084 -2.82306e-13)
(-0.000321502 0.00132754 1.1549e-13)
(0.00102329 0.0115339 -1.13959e-14)
(0.0523304 0.0721863 -4.54661e-16)
(1.08998 -0.119949 -6.74518e-14)
(-0.00201536 0.00803361 -1.07648e-14)
(-0.00214676 0.00654489 2.65547e-14)
(-0.00211744 0.00488492 1.73324e-15)
(-0.00181897 0.00339627 3.61639e-14)
(-0.00148039 0.00229052 -3.2886e-14)
(-0.00114911 0.00138374 -9.40107e-14)
(-0.000485601 0.000487023 -1.07391e-13)
(-0.000103338 0.00010981 2.99483e-14)
(-0.000237358 0.000269015 -7.51813e-14)
(-0.000564796 0.000547316 9.5792e-14)
(-0.000601255 0.000417151 -6.00414e-14)
(-0.000471364 0.000269668 -1.46128e-13)
(-0.000415618 0.000215023 -1.64679e-13)
(-0.00038797 0.000178003 1.32097e-14)
(-0.000344152 0.000140237 1.3304e-13)
(-0.000297896 0.000113474 3.99424e-14)
(-0.00026338 9.51184e-05 -5.03091e-14)
(-0.000235486 8.13603e-05 -3.54766e-14)
(-0.0002116 6.96118e-05 -2.18189e-14)
(-0.000191347 6.06521e-05 3.90419e-14)
(-0.000175771 5.2198e-05 1.72971e-14)
(-0.000162665 4.53341e-05 2.5053e-14)
(-0.000152123 3.72189e-05 -3.38403e-14)
(-0.000138356 2.9487e-05 -2.46572e-14)
(-0.000119327 2.17576e-05 1.81858e-14)
(-9.78922e-05 1.83997e-05 1.24094e-14)
(-7.81983e-05 1.57558e-05 6.93145e-15)
(-6.31531e-05 3.19633e-06 -1.46281e-15)
(-5.5069e-05 -3.83176e-06 -2.84588e-16)
(-5.78714e-05 -9.71093e-06 2.30416e-16)
(-4.78853e-05 -6.36998e-06 -4.51162e-16)
(-3.03105e-05 -6.4591e-06 -1.86681e-15)
(-1.84485e-05 -6.16768e-06 -1.26053e-15)
(-1.757e-05 -6.2096e-06 -3.83715e-15)
(-1.57732e-06 -4.08074e-06 -2.90305e-15)
(0.000115056 1.17036e-05 1.26076e-15)
(-3.32084e-05 -2.77455e-05 -2.1651e-15)
(0.000296527 -0.000134065 -1.10575e-14)
(0.0021579 -0.00128027 -2.14934e-14)
(0.000523417 0.00625007 -1.31412e-14)
(0.00106383 0.00607847 5.88607e-15)
(0.0014644 0.0042216 7.81659e-15)
(0.00196112 0.00404975 -3.36687e-14)
(0.00226838 0.00372226 2.10351e-14)
(0.00247863 0.00334522 8.04071e-14)
(0.00267273 0.00292247 1.03902e-13)
(0.00275087 0.00248773 1.00646e-13)
(0.0027124 0.00207817 -3.9879e-15)
(0.00265317 0.00173346 1.90692e-13)
(0.0024882 0.00135291 -2.0887e-13)
(0.00246091 0.00150769 -1.19536e-13)
(0.00238994 0.00149282 4.48637e-13)
(0.00234791 0.00136412 1.28262e-13)
(0.00213875 0.00133152 -1.19192e-13)
(0.00196353 0.00129212 -1.78017e-14)
(0.00174257 0.00130005 3.42068e-13)
(0.00145192 0.00136005 -1.53332e-13)
(0.000302315 0.00161194 -4.9196e-13)
(-0.00322656 0.00162565 1.88447e-13)
(0.00156962 0.00146042 2.35438e-13)
(-0.00926191 0.0017302 4.67798e-14)
(0.00643047 -0.00177365 -1.30898e-13)
(0.0641004 0.00619282 1.92547e-13)
(0.0627011 0.0126693 -4.19945e-14)
(-0.0137285 0.0068425 -7.04787e-14)
(-0.0575026 0.000940017 -3.01917e-14)
(-0.0344277 0.000357779 5.59806e-15)
(-0.0140831 -0.000544627 -1.49943e-14)
(-0.0106873 -0.00193001 -1.58664e-14)
(-0.00314901 -0.00165867 -2.03996e-14)
(0.000881891 -0.000895069 3.52646e-14)
(0.00119632 -0.000348186 -1.8821e-13)
(0.00167909 -0.000122052 -2.24049e-13)
(0.000899457 6.59898e-05 1.62298e-13)
(-0.000263417 0.000452929 -3.94976e-14)
(-0.00124156 0.00227621 3.30498e-14)
(-0.0319388 0.014307 -1.41182e-14)
(-0.892827 0.108609 -3.8499e-14)
(0.000163279 0.0058601 -4.63958e-15)
(-0.000266179 0.0048925 1.2409e-13)
(-0.000603401 0.00380557 -7.98192e-15)
(-0.000736381 0.00293421 -1.29069e-13)
(-0.000794173 0.002137 -2.5686e-14)
(-0.000753836 0.00138444 1.27342e-13)
(-0.000489267 0.00073325 1.11448e-13)
(-0.00032235 0.000440745 5.95739e-14)
(-0.000398771 0.00045947 -8.26132e-14)
(-0.000570178 0.000504421 -1.06356e-14)
(-0.000624568 0.000356397 1.01899e-13)
(-0.00057076 0.000239925 -5.20943e-15)
(-0.000521641 0.000177698 1.22895e-14)
(-0.000483652 0.000122869 -2.4794e-14)
(-0.000436112 7.74464e-05 -3.2589e-14)
(-0.000385069 5.17461e-05 1.41535e-14)
(-0.000342713 3.67252e-05 1.70871e-14)
(-0.000307701 2.71373e-05 -5.80459e-14)
(-0.000277601 2.06447e-05 2.69307e-14)
(-0.00025216 1.66263e-05 1.78458e-14)
(-0.000231396 1.3399e-05 1.46794e-14)
(-0.000214097 1.02274e-05 3.19108e-14)
(-0.000198589 6.6301e-06 4.17848e-14)
(-0.000180665 4.0741e-08 1.76506e-14)
(-0.000158496 -6.91935e-06 -1.51666e-14)
(-0.000134823 -1.30026e-05 8.16032e-16)
(-0.000110914 -1.56334e-05 -5.6832e-15)
(-8.91668e-05 -1.59563e-05 -2.08635e-15)
(-7.7254e-05 -1.28162e-05 3.93468e-16)
(-7.13151e-05 -7.94741e-06 -3.85546e-17)
(-5.07672e-05 -1.11741e-05 2.82505e-16)
(-3.69089e-05 -7.09475e-06 6.13653e-16)
(-2.3106e-05 -6.86612e-06 1.84899e-15)
(7.24279e-06 -7.94827e-06 2.35297e-15)
(3.2418e-05 -7.93443e-06 7.64772e-16)
(-1.91141e-05 6.36876e-06 -1.55055e-15)
(0.000155242 1.78207e-05 -6.62977e-17)
(0.000226034 8.81418e-06 3.77992e-15)
(0.0015455 0.00018854 9.20409e-15)
(-0.000338773 0.00500895 -5.07272e-15)
(-5.2223e-05 0.0048174 -8.21987e-16)
(0.000303445 0.00349541 -5.8398e-15)
(0.000591402 0.00348876 1.55552e-14)
(0.00078231 0.00331362 3.91374e-15)
(0.000957019 0.00303991 -3.37433e-14)
(0.00112536 0.00276904 -1.07619e-13)
(0.00121985 0.00246024 -9.54257e-14)
(0.00125303 0.0021438 -1.11327e-13)
(0.00125457 0.001848 1.10093e-14)
(0.00121221 0.00157333 2.64068e-13)
(0.00113771 0.00128732 7.06231e-14)
(0.00106016 0.00100775 -9.93139e-14)
(0.000954255 0.000798713 -2.41063e-13)
(0.000965414 0.000597669 1.10248e-13)
(0.00104157 0.000440628 1.45927e-13)
(0.00114596 0.000341543 -9.42445e-14)
(0.00137688 0.000113594 -1.89382e-13)
(0.00220843 -0.000850349 3.17166e-13)
(0.00596107 -0.00125514 -9.48909e-14)
(0.00207596 0.00116955 -1.19556e-13)
(0.00447804 -0.00365358 1.78547e-13)
(0.00329447 -0.00333306 7.39135e-14)
(-0.0136222 -0.0089307 -3.35292e-15)
(-0.0433047 -0.0102749 -3.30813e-14)
(-0.0683211 -0.0100616 3.5563e-15)
(-0.0288469 0.000825814 -3.05935e-14)
(-0.00591951 0.00244074 2.10614e-14)
(0.00038189 -0.000452329 -3.31767e-14)
(0.0192892 -0.00227272 -7.2086e-14)
(0.0162038 -0.00162043 6.96024e-14)
(0.0057431 -0.000975755 3.08587e-14)
(0.000646444 -0.000327298 -1.21842e-13)
(4.94937e-06 0.000215735 7.82251e-14)
(-0.000560922 0.000378911 1.6501e-14)
(-0.00112111 0.000494718 -3.61617e-14)
(-0.00282746 0.00130785 -9.97925e-14)
(-0.0166278 0.00212279 2.77694e-14)
(-0.113675 0.00996623 9.90327e-15)
(-0.000539026 0.00474921 2.92157e-14)
(-0.000669923 0.0040248 -2.76846e-14)
(-0.000751255 0.00314963 -9.83374e-14)
(-0.000783528 0.00251059 4.48507e-14)
(-0.000747017 0.0019048 2.06032e-14)
(-0.000651103 0.00132221 -6.45687e-14)
(-0.000486286 0.000794496 1.35435e-14)
(-0.000420237 0.000601208 -1.1765e-13)
(-0.000509315 0.000596467 -7.91847e-14)
(-0.000609068 0.000560426 -8.81279e-14)
(-0.000634407 0.000455199 9.75396e-14)
(-0.00059367 0.000362342 1.45311e-14)
(-0.000541098 0.000291402 -1.36526e-14)
(-0.000493088 0.000228148 -8.09001e-14)
(-0.000442666 0.000176562 -5.80897e-14)
(-0.000390655 0.000140776 3.78575e-14)
(-0.000345138 0.00011526 -2.13744e-14)
(-0.000307445 9.58835e-05 -4.39739e-14)
(-0.000275642 8.0892e-05 -4.00373e-15)
(-0.000248919 6.94226e-05 -4.02413e-14)
(-0.000227227 5.92434e-05 -4.30024e-14)
(-0.000209318 4.97334e-05 -8.433e-14)
(-0.000193154 3.90498e-05 -6.39476e-14)
(-0.000174645 2.69276e-05 -1.80002e-14)
(-0.000152359 1.6102e-05 3.95083e-15)
(-0.000128671 8.3744e-06 -1.14787e-15)
(-0.00010508 4.59862e-06 -1.053e-14)
(-8.28267e-05 2.07658e-06 4.47474e-15)
(-6.94696e-05 1.85035e-06 5.81927e-16)
(-6.3856e-05 -4.46226e-06 -1.81376e-16)
(-4.91795e-05 -6.16093e-06 -9.26734e-18)
(-3.36314e-05 -5.15783e-06 -5.33791e-16)
(-2.10578e-05 -3.23454e-06 -9.82613e-16)
(-1.37724e-06 -7.37392e-07 -1.46426e-15)
(3.48543e-05 7.2079e-06 1.86899e-15)
(0.000116447 2.46002e-05 3.80699e-17)
(-1.04392e-05 4.86282e-07 1.44749e-14)
(0.000180686 5.5435e-05 8.75124e-15)
(0.0012009 0.000205659 -1.03379e-13)
(0.000104173 0.00399503 7.92626e-15)
(0.000372046 0.00379775 -2.3434e-15)
(0.000613053 0.00286752 6.5358e-17)
(0.000887282 0.00287593 -7.12964e-15)
(0.00107426 0.00270923 1.99933e-15)
(0.00124298 0.00247713 3.5819e-14)
(0.00141443 0.00224816 5.84708e-14)
(0.00151443 0.00198575 5.46353e-14)
(0.0015632 0.00170926 -1.33397e-13)
(0.00158116 0.00144753 -1.11649e-13)
(0.00155213 0.00119631 1.41526e-13)
(0.00148881 0.000963536 2.56594e-13)
(0.00139123 0.000783062 1.35706e-13)
(0.00127623 0.000660269 -4.72166e-13)
(0.00119909 0.000544671 -1.62167e-13)
(0.00103139 0.000547648 3.85924e-13)
(0.000926804 0.000523416 8.39265e-14)
(0.000850212 0.000531327 -1.24272e-13)
(0.000903378 0.000800522 -2.28421e-13)
(0.000559367 0.00187971 1.97916e-13)
(0.00158697 0.000681788 4.3595e-14)
(0.00474534 0.00288621 -2.22442e-13)
(0.00250372 -0.00027341 1.65578e-13)
(0.00147923 0.000194327 -1.14165e-13)
(0.0022472 -0.00240442 -3.71907e-14)
(-0.0249896 0.0144558 3.55852e-14)
(-0.0318841 0.0122168 -4.55843e-14)
(-0.0511789 0.00568006 1.00961e-14)
(0.0230368 -0.00237303 1.36351e-14)
(0.0123234 0.00199379 2.10878e-14)
(0.0372708 -0.00393183 -9.03726e-15)
(0.0125614 8.25868e-05 2.55479e-14)
(0.00185652 9.80669e-05 2.07237e-13)
(-0.00305037 0.000874045 5.34583e-14)
(-0.00256689 0.000749448 -7.58426e-14)
(-0.00163967 0.000582738 -1.16595e-13)
(-0.00201118 0.000711684 1.66291e-14)
(-0.00714197 -8.72975e-05 -2.82903e-14)
(-0.0342278 0.00933571 4.5655e-14)
(-0.000114508 0.00379285 1.88156e-14)
(-0.000302232 0.00328685 -3.6873e-14)
(-0.00045243 0.00263194 -4.03957e-15)
(-0.000552234 0.00216933 -3.37257e-14)
(-0.000583723 0.0016976 -2.08278e-14)
(-0.000548519 0.00122672 7.34773e-14)
(-0.000456189 0.000815707 -1.84169e-13)
(-0.000446239 0.00068726 1.69129e-13)
(-0.000559476 0.000690692 2.01518e-15)
(-0.000619195 0.000613594 -1.20418e-13)
(-0.000634739 0.000501932 -7.02443e-14)
(-0.000609716 0.000397139 -1.98381e-14)
(-0.000565097 0.000308792 5.95901e-14)
(-0.000517982 0.000234443 1.29282e-13)
(-0.000469282 0.000174317 2.11139e-14)
(-0.000418799 0.0001295 -4.7339e-14)
(-0.0003726 9.75136e-05 2.21991e-14)
(-0.000332717 7.44386e-05 5.00114e-14)
(-0.000298571 5.7513e-05 -3.67795e-15)
(-0.000269295 4.54091e-05 -7.78321e-15)
(-0.000245003 3.56306e-05 -2.14384e-14)
(-0.000224408 2.72209e-05 5.28098e-14)
(-0.00020544 1.81913e-05 3.09373e-14)
(-0.000184472 8.20352e-06 -1.07672e-14)
(-0.000160632 -7.30892e-07 -1.69138e-14)
(-0.000135967 -7.0711e-06 -6.96468e-15)
(-0.000111494 -1.01867e-05 1.26272e-14)
(-8.82461e-05 -1.19404e-05 -8.9152e-16)
(-7.33138e-05 -1.03446e-05 -5.13623e-16)
(-6.5372e-05 -1.1331e-05 2.01737e-16)
(-5.00736e-05 -1.4982e-05 -3.96503e-17)
(-3.49407e-05 -1.59719e-05 -3.66293e-17)
(-3.52042e-05 -6.14675e-05 2.73936e-16)
(-7.10693e-05 -0.00024214 5.10723e-16)
(0.000104271 0.000280251 -3.23313e-15)
(-0.00032828 -0.00106488 7.59891e-15)
(0.000574914 0.00191096 -1.28756e-14)
(0.000207984 -0.000363659 -2.99218e-14)
(0.00106095 0.000228144 -1.04961e-16)
(-3.17311e-05 0.00332768 -4.04093e-15)
(0.000151882 0.00315671 4.7789e-15)
(0.000331782 0.00246637 5.76612e-17)
(0.000541325 0.0025138 -4.17825e-15)
(0.00068133 0.00239602 -2.8838e-14)
(0.000815055 0.00222432 3.46397e-14)
(0.000954129 0.00207531 1.26378e-14)
(0.00103645 0.00188413 -7.01602e-14)
(0.00108729 0.00167662 -5.82347e-14)
(0.0011132 0.00147738 -1.21388e-13)
(0.00109999 0.00127915 1.74616e-14)
(0.00106036 0.00109286 -1.3236e-13)
(0.000998179 0.000930168 8.04635e-15)
(0.000930683 0.000788856 3.54368e-13)
(0.000858042 0.000673536 -2.34217e-13)
(0.000813411 0.000540618 -1.6767e-13)
(0.000800934 0.00042266 1.01583e-13)
(0.00079948 0.000343159 -1.3197e-13)
(0.000867809 0.000316196 8.48926e-14)
(0.000856922 0.000222352 -1.4397e-13)
(0.00109714 0.000317249 -1.61823e-13)
(0.00102175 1.90989e-05 1.83272e-13)
(0.000667764 -0.000702988 -4.05362e-14)
(0.00209634 -0.00083621 8.96899e-14)
(0.00533304 0.00121275 5.67728e-14)
(0.0494431 -0.00246731 6.36755e-15)
(0.0304502 -0.0016424 1.0882e-13)
(0.032486 -0.00648757 -2.11481e-14)
(-0.0123772 -0.00703325 2.25057e-14)
(-0.0112083 0.000373828 -5.57926e-14)
(0.0113873 0.00453362 -1.55441e-13)
(0.00131953 -0.000939528 1.29596e-15)
(0.00382388 0.000825592 1.40172e-13)
(-0.00447167 0.00091088 -3.31426e-14)
(-0.00465711 0.000812156 -1.04849e-13)
(-0.0031821 0.000546568 1.18023e-13)
(-0.00144895 0.000401813 -3.96369e-14)
(-0.00443238 -0.000507333 -1.66151e-14)
(-0.0209578 0.00967133 -5.3283e-16)
(-0.000188785 0.00315951 2.02819e-14)
(-0.000304627 0.0027666 1.43626e-14)
(-0.000402091 0.00223843 -3.19922e-14)
(-0.000473053 0.00188018 7.88743e-14)
(-0.000502722 0.00150334 1.86885e-13)
(-0.000480849 0.00112726 -6.87655e-14)
(-0.000448836 0.000861288 -7.24458e-14)
(-0.000478749 0.000765032 1.50456e-13)
(-0.000568452 0.000727635 1.26929e-13)
(-0.000613816 0.000640871 3.56523e-14)
(-0.000623856 0.000536322 -5.19407e-14)
(-0.000604772 0.000435454 5.91831e-14)
(-0.000565735 0.000346818 4.5427e-14)
(-0.000520763 0.000272387 -3.98337e-15)
(-0.00047437 0.000211827 -9.37222e-14)
(-0.000425761 0.000164763 3.96478e-15)
(-0.000380156 0.000129846 3.73033e-15)
(-0.00033947 0.000103888 2.06862e-16)
(-0.000304235 8.41791e-05 1.51387e-14)
(-0.00027369 6.92375e-05 -5.43048e-15)
(-0.000247961 5.68017e-05 1.23016e-14)
(-0.000225946 4.58551e-05 -2.67257e-14)
(-0.000205638 3.41826e-05 -1.5366e-14)
(-0.000183725 2.20423e-05 1.5503e-14)
(-0.00015962 1.11866e-05 2.09549e-14)
(-0.000135002 3.62102e-06 1.25548e-15)
(-0.000110517 -4.96108e-07 -1.23719e-15)
(-8.72894e-05 -2.26857e-06 -3.2605e-15)
(-7.19946e-05 -8.35389e-07 6.54429e-16)
(-6.36267e-05 -4.39975e-06 -1.04657e-16)
(-4.80871e-05 -6.48585e-06 -5.31048e-16)
(-3.06789e-05 5.19152e-06 -2.81658e-17)
(-1.43505e-05 7.16962e-05 7.93714e-17)
(3.02219e-05 0.000304324 -6.81964e-17)
(-3.1619e-05 -0.000469709 -9.2926e-16)
(0.00025511 0.00124671 -6.92582e-16)
(0.000107734 -0.00254465 1.0303e-14)
(0.000132999 0.000497472 -1.08703e-14)
(0.00103466 0.000121289 5.47995e-15)
(3.05365e-05 0.00278435 1.93836e-15)
(0.00019383 0.00264063 5.06511e-16)
(0.000340169 0.00212132 3.16222e-15)
(0.00052854 0.00216301 -2.45917e-15)
(0.00065562 0.00206295 -1.08422e-15)
(0.00077705 0.00192052 1.63419e-14)
(0.000907139 0.00179747 7.60588e-15)
(0.000988599 0.00163264 4.04806e-14)
(0.00104456 0.00145121 6.79714e-14)
(0.00108136 0.0012748 -3.20455e-14)
(0.00108244 0.00109547 -7.79467e-15)
(0.00106061 0.000922555 7.50119e-14)
(0.00102065 0.000766377 -1.45515e-13)
(0.000965951 0.000631295 -2.89399e-13)
(0.00090666 0.000516275 1.75237e-13)
(0.000854527 0.000410758 2.68364e-13)
(0.00078781 0.000372891 -3.55862e-13)
(0.000760734 0.000348626 6.06703e-14)
(0.000781465 0.000374242 1.119e-13)
(0.000881814 0.000302884 -1.1297e-13)
(0.000954481 -1.10261e-05 8.56253e-14)
(0.000993766 -0.000490087 -8.73397e-14)
(0.000489002 -0.00164528 -1.69252e-13)
(-0.000875595 -0.00199704 -5.03182e-14)
(-0.00136346 0.000321115 -1.16207e-13)
(0.000234338 0.00310248 5.63248e-14)
(0.00764553 0.00171253 -1.62127e-14)
(0.00403196 -0.00145388 -1.09021e-14)
(-0.00431566 -0.00290639 2.13879e-14)
(0.0189417 -0.00546861 4.25648e-14)
(-0.0241524 0.00214711 3.28573e-14)
(0.00240519 0.000384536 -4.52651e-14)
(0.000450485 0.00109079 -1.16437e-13)
(0.000567778 0.00050225 -1.48669e-13)
(-0.0019898 0.000234666 3.37838e-14)
(-0.00170288 -0.000323266 7.32705e-14)
(-0.000797905 0.000309537 8.46166e-14)
(-0.00391033 -0.000410381 3.84752e-14)
(-0.0178348 0.0102208 2.85575e-14)
(-0.000110267 0.00264706 8.5945e-15)
(-0.000222796 0.00234311 -2.0692e-14)
(-0.000317767 0.00192144 1.04905e-14)
(-0.000389933 0.00163794 -5.8305e-15)
(-0.000423087 0.00133512 4.67877e-15)
(-0.000417763 0.00103083 -7.81781e-14)
(-0.000423031 0.000852342 -2.94249e-14)
(-0.00048088 0.000793657 -3.5063e-14)
(-0.00055551 0.000743016 2.74162e-14)
(-0.000592445 0.000653045 1.35737e-13)
(-0.000601246 0.000552973 -3.03599e-14)
(-0.000587613 0.000455609 -5.88491e-14)
(-0.000555872 0.000366925 2.49992e-15)
(-0.000516627 0.000290972 -5.12985e-14)
(-0.000474926 0.000228067 1.70042e-14)
(-0.000430412 0.000177297 2.54115e-14)
(-0.000387298 0.000137867 3.93186e-14)
(-0.000347656 0.000107555 1.50496e-14)
(-0.000312572 8.42143e-05 -1.77035e-14)
(-0.000281674 6.62476e-05 2.27268e-14)
(-0.000254991 5.17748e-05 2.51839e-14)
(-0.000231703 3.92745e-05 1.82603e-14)
(-0.000209905 2.6978e-05 3.816e-15)
(-0.00018692 1.47774e-05 -1.44107e-14)
(-0.000162214 4.14258e-06 1.18026e-14)
(-0.000137416 -3.52494e-06 3.28053e-15)
(-0.000112684 -7.55392e-06 -1.13722e-14)
(-8.92561e-05 -9.26324e-06 1.22358e-15)
(-7.32857e-05 -7.54766e-06 -1.18529e-16)
(-6.40382e-05 -1.01332e-05 2.05698e-16)
(-4.84949e-05 -1.31275e-05 6.67792e-16)
(-2.98938e-05 -1.29616e-05 -1.60713e-16)
(-9.63903e-06 -2.95863e-05 -2.52194e-16)
(2.99594e-05 -9.45871e-05 5.63529e-16)
(-5.39958e-05 0.000200622 1.39526e-15)
(0.00019433 -5.92245e-05 -1.19166e-14)
(-0.000259373 0.000795714 3.44865e-15)
(0.000335245 -0.000276049 4.42069e-14)
(0.00129449 -0.000451433 3.10514e-14)
(1.13377e-05 0.00237175 3.09089e-15)
(0.000144503 0.00222327 5.82331e-16)
(0.000264692 0.0018493 -1.12571e-15)
(0.000421279 0.00190363 4.17087e-15)
(0.000522718 0.00180209 -8.69287e-15)
(0.000627034 0.00170324 -1.09612e-15)
(0.000739009 0.00162366 2.36022e-14)
(0.00081051 0.00149631 -1.1148e-14)
(0.000861414 0.00135219 -3.96182e-14)
(0.000897173 0.00121036 2.65393e-14)
(0.000902544 0.00106167 -6.0781e-14)
(0.000889373 0.00091649 -1.50868e-13)
(0.00086186 0.000783088 1.0661e-13)
(0.000820143 0.000663649 3.77184e-13)
(0.000775366 0.00055828 -1.38904e-14)
(0.000727341 0.000470432 -4.01385e-13)
(0.000686217 0.000383776 3.32547e-13)
(0.000684083 0.000317501 2.33377e-13)
(0.000719634 0.000279004 1.24571e-13)
(0.000781299 0.000193132 5.8737e-14)
(0.000844997 1.87544e-05 -2.88415e-14)
(0.000892249 -0.000368483 1.61936e-13)
(0.000358327 -0.00118787 1.11966e-13)
(-0.00100914 -0.00148725 -1.01882e-14)
(-0.00179178 0.000115833 2.14263e-13)
(-0.000313287 0.00220289 -6.57066e-14)
(0.00161013 0.00216149 -7.65329e-15)
(0.00291262 -0.000283992 5.67714e-15)
(0.00119244 -0.0021272 -2.01411e-14)
(-0.00345953 -0.00139525 -2.08166e-14)
(-0.00332991 -0.000217028 -1.52575e-14)
(-0.000958638 0.00034596 4.77779e-14)
(0.00120154 0.000731896 -2.27677e-14)
(0.00259177 0.000340582 -1.2799e-13)
(0.00290395 -0.000404369 -2.07585e-14)
(0.023226 -0.00765436 -1.0183e-13)
(-0.0066715 0.00275177 -5.7784e-14)
(-0.00260729 -0.000552643 6.50654e-15)
(-0.0141145 0.00941851 -2.58389e-14)
(-0.000100168 0.0022537 -9.66479e-15)
(-0.00019221 0.00200979 1.21939e-14)
(-0.000270024 0.00166472 -2.61346e-14)
(-0.000331802 0.00143725 -3.94486e-15)
(-0.000362526 0.00119091 7.3823e-15)
(-0.000366256 0.000934597 1.10915e-14)
(-0.000392399 0.000823582 8.06422e-14)
(-0.000463164 0.000786798 -1.01461e-13)
(-0.000527894 0.00073221 -3.27999e-14)
(-0.000562373 0.000648404 -3.11498e-14)
(-0.00057229 0.000556023 1.17309e-13)
(-0.000562784 0.0004651 -4.64478e-14)
(-0.000537249 0.00038061 -4.56507e-15)
(-0.000504253 0.000307133 1.85401e-14)
(-0.000467647 0.000245527 1.77852e-14)
(-0.000427409 0.000194365 1.20874e-14)
(-0.000387451 0.000153492 -7.68281e-14)
(-0.000349598 0.000121331 -2.81423e-14)
(-0.000315211 9.62774e-05 3.58182e-14)
(-0.000284374 7.65672e-05 1.42851e-15)
(-0.000257228 6.07341e-05 3.63876e-14)
(-0.000233014 4.68687e-05 -1.0391e-14)
(-0.00021022 3.3624e-05 1.50681e-15)
(-0.000186562 2.05832e-05 2.42368e-14)
(-0.000161806 9.22554e-06 -2.03644e-14)
(-0.000137135 7.75881e-07 -6.99038e-15)
(-0.000112612 -4.05691e-06 6.58293e-15)
(-8.92301e-05 -5.9294e-06 2.19827e-15)
(-7.29239e-05 -4.4276e-06 -1.14245e-18)
(-6.30634e-05 -6.8499e-06 -2.57246e-16)
(-4.79465e-05 -8.90751e-06 6.3805e-16)
(-3.03066e-05 -5.50479e-06 7.49552e-17)
(-1.66806e-05 -4.55544e-06 -1.08155e-15)
(-2.32896e-06 -8.23688e-07 5.42143e-17)
(2.58379e-06 4.36152e-06 -3.1638e-15)
(-4.84584e-05 -0.000181175 7.24291e-15)
(7.93789e-05 -0.000123879 -1.53614e-15)
(0.000203814 8.19548e-05 -2.47854e-15)
(0.000670162 0.000394602 -4.22927e-14)
(2.05384e-05 0.00203382 1.40102e-15)
(0.000135954 0.00192643 1.51019e-15)
(0.000236365 0.00159786 -9.49846e-16)
(0.000372761 0.00165912 -1.91845e-15)
(0.000473609 0.00163804 -3.80383e-15)
(0.00055164 0.00148562 1.65083e-14)
(0.000648399 0.00140976 1.38777e-14)
(0.00071783 0.00131876 -5.19158e-14)
(0.000770564 0.00120714 2.17323e-14)
(0.000810857 0.00109197 1.11293e-13)
(0.000822177 0.000963538 4.63197e-14)
(0.000817819 0.000833056 2.13125e-14)
(0.000800884 0.000709865 -1.8789e-13)
(0.000771244 0.00059564 -4.29874e-13)
(0.000736341 0.000493127 -3.04049e-13)
(0.000697896 0.000402093 1.20073e-13)
(0.000659552 0.000317529 -7.38555e-14)
(0.000643534 0.000267225 -3.77126e-13)
(0.000666726 0.000228466 -1.94586e-13)
(0.000708407 0.000139874 1.60892e-13)
(0.000748104 -1.94043e-05 1.60972e-13)
(0.000736811 -0.0003224 -9.33423e-14)
(0.000340635 -0.000875711 -3.83147e-14)
(-0.000625504 -0.000991278 2.40021e-15)
(-0.00115759 0.00027044 -6.09665e-14)
(-9.38272e-05 0.00189113 6.3294e-14)
(0.0019093 0.00178049 7.21988e-15)
(0.00295063 -6.73198e-05 4.3206e-15)
(0.00184875 -0.00156148 -4.41679e-15)
(0.000196336 -0.00159534 5.21828e-14)
(-0.0015662 -0.000630714 3.49653e-14)
(-0.00128352 0.000227499 -3.44831e-15)
(-0.000146948 0.000657454 1.13117e-13)
(0.00115578 0.000667851 7.8073e-14)
(0.000839958 0.00223719 -4.0453e-14)
(-0.0140375 0.00211456 6.94132e-14)
(-0.00339589 -0.00116694 5.85296e-14)
(-0.00315056 0.00255255 -3.50449e-14)
(-0.0105206 0.00733328 -2.77224e-14)
(-7.70715e-05 0.00193534 7.39109e-15)
(-0.000156473 0.00173625 -1.2044e-14)
(-0.000224595 0.00145606 3.27006e-15)
(-0.000279875 0.00126959 6.10908e-14)
(-0.000312693 0.00105895 3.14374e-15)
(-0.000329992 0.000873172 1.01652e-13)
(-0.00037251 0.000801884 1.36656e-13)
(-0.000444722 0.000772522 -5.30041e-14)
(-0.000493958 0.000706717 -7.25301e-14)
(-0.000525591 0.000630302 -5.54125e-14)
(-0.000538025 0.000547928 -1.02167e-13)
(-0.000532894 0.000465148 -5.52986e-15)
(-0.000513139 0.000386283 -4.30513e-14)
(-0.000486352 0.000316541 5.78122e-14)
(-0.00045527 0.000256762 1.93969e-14)
(-0.000419864 0.000205734 -3.07517e-14)
(-0.000383784 0.00016366 -3.26228e-15)
(-0.000348559 0.000129649 -2.54414e-14)
(-0.000315748 0.0001025 2.79082e-15)
(-0.000285646 8.07573e-05 -1.77689e-14)
(-0.000258609 6.3002e-05 -3.33812e-14)
(-0.000233928 4.76412e-05 1.47964e-14)
(-0.000210497 3.33339e-05 -2.76269e-14)
(-0.000186359 1.97697e-05 -1.00669e-14)
(-0.000161691 7.90799e-06 6.28624e-15)
(-0.00013723 -9.8701e-07 3.97157e-15)
(-0.000112986 -6.48373e-06 1.56341e-15)
(-8.97406e-05 -8.50208e-06 -1.0352e-15)
(-7.30848e-05 -7.27341e-06 -4.35206e-16)
(-6.25614e-05 -9.01849e-06 -7.72629e-17)
(-4.76747e-05 -1.12052e-05 -1.03099e-15)
(-2.98462e-05 -8.2388e-06 5.53911e-16)
(-1.57418e-05 -7.58633e-06 3.06583e-15)
(-4.75657e-07 -7.57704e-06 5.13449e-17)
(1.68129e-05 -1.10126e-05 2.49834e-15)
(4.69516e-05 -1.95018e-05 -3.42317e-15)
(9.24732e-05 1.74627e-05 -6.46851e-15)
(0.000185394 8.32404e-05 3.78714e-15)
(0.000276052 0.000591461 -2.25893e-14)
(2.39084e-05 0.00175891 2.41719e-15)
(0.000117877 0.00181042 4.02393e-15)
(0.000206072 0.00143058 -1.76132e-16)
(0.000321421 0.0014761 1.65153e-18)
(0.000419068 0.00155619 -2.53944e-15)
(0.000490177 0.00140275 -6.73596e-15)
(0.000579653 0.00134609 -4.93976e-15)
(0.00062052 0.0011951 -5.23729e-14)
(0.000663456 0.00108525 -1.00752e-15)
(0.000705957 0.000996942 1.92826e-14)
(0.000722408 0.000894007 -2.32929e-14)
(0.000722662 0.000784631 1.41253e-13)
(0.000712962 0.000677614 1.49079e-13)
(0.000690987 0.000575761 2.69487e-14)
(0.000663576 0.000482447 2.76883e-13)
(0.000632687 0.00039774 -5.76126e-14)
(0.000598663 0.000322708 -7.3018e-16)
(0.000579547 0.00025501 2.14475e-13)
(0.00059947 0.000198718 9.99274e-14)
(0.000626664 0.000110816 -2.94224e-14)
(0.000640177 -3.16612e-05 -1.21913e-13)
(0.00059429 -0.000262738 -1.15885e-14)
(0.000282205 -0.000625118 -9.36617e-14)
(-0.000406933 -0.000649554 -8.10407e-14)
(-0.000762792 0.000304927 4.88766e-14)
(5.98587e-05 0.0015221 -3.10937e-14)
(0.00151614 0.00146069 -5.64904e-14)
(0.0020346 5.70412e-05 6.45179e-15)
(0.00113251 -0.00113248 -3.11517e-15)
(-0.000242012 -0.00114619 -3.83238e-15)
(-0.00110011 -0.000447477 8.20632e-14)
(-0.00120878 0.000268008 -2.93319e-14)
(-0.000677496 0.000641082 -3.9042e-14)
(0.000171434 0.000621706 2.27063e-13)
(-0.000259598 0.000628252 3.70733e-14)
(-0.00927249 0.00550835 -8.23498e-14)
(0.00480972 -0.00189754 -1.57851e-14)
(-0.0117697 0.00581731 2.61634e-14)
(-0.00484355 0.00175427 -5.00066e-15)
(-5.99992e-05 0.00167459 -1.3144e-14)
(-0.000128971 0.0015129 -3.10164e-14)
(-0.000187653 0.00127949 5.06876e-14)
(-0.000242458 0.00112085 9.71618e-14)
(-0.000272249 0.000945501 6.43184e-14)
(-0.00029906 0.000816471 -1.65788e-13)
(-0.000342589 0.000748188 -1.14062e-13)
(-0.000417489 0.000739037 -3.87778e-14)
(-0.000464499 0.000683932 7.08616e-14)
(-0.00048752 0.000605607 7.32056e-14)
(-0.000501001 0.000531304 2.72965e-14)
(-0.000499875 0.000457296 2.5044e-14)
(-0.000485572 0.000385578 -2.67414e-14)
(-0.000464627 0.000321072 -8.73383e-14)
(-0.000438764 0.000264399 1.34155e-14)
(-0.000408148 0.000214802 2.70948e-14)
(-0.000376189 0.000172902 1.84382e-14)
(-0.00034388 0.000138203 5.10872e-14)
(-0.000313123 0.000109936 -2.84815e-14)
(-0.000284217 8.70269e-05 -2.12619e-14)
(-0.000257634 6.80277e-05 -1.5319e-14)
(-0.000232852 5.1664e-05 -3.15584e-15)
(-0.000209067 3.66579e-05 2.46394e-14)
(-0.000184795 2.26911e-05 1.64559e-14)
(-0.000160347 1.04533e-05 1.90886e-14)
(-0.000136336 1.03133e-06 6.47053e-15)
(-0.000112494 -5.05537e-06 2.83014e-17)
(-8.96536e-05 -7.58651e-06 2.21336e-15)
(-7.27685e-05 -6.38249e-06 -3.08485e-16)
(-6.17532e-05 -7.82832e-06 3.02192e-16)
(-4.7059e-05 -9.65258e-06 -3.79905e-16)
(-2.93432e-05 -6.82222e-06 3.187e-17)
(-1.51204e-05 -5.60804e-06 -1.76073e-15)
(-8.91446e-07 -3.51875e-06 4.23797e-16)
(1.49229e-05 -1.57222e-06 4.63175e-15)
(4.01114e-05 -8.0791e-06 -1.10007e-15)
(9.12251e-05 -1.46988e-06 8.8909e-16)
(0.000203634 4.35301e-05 -8.1432e-15)
(0.000624404 0.000182043 7.93229e-15)
(2.82227e-05 0.00153021 -2.94617e-15)
(0.000110715 0.00157479 1.78945e-16)
(0.000183104 0.00138458 -1.6535e-15)
(0.000284665 0.00130292 -1.52312e-15)
(0.000352722 0.00125799 9.0039e-15)
(0.000444936 0.00138247 -2.9389e-15)
(0.000524728 0.00126088 2.92775e-14)
(0.000567079 0.00113424 2.04814e-14)
(0.000610491 0.00103979 5.15994e-15)
(0.00062539 0.000905987 -1.7071e-15)
(0.000642594 0.000813792 7.11962e-15)
(0.00064961 0.000719779 -3.14162e-14)
(0.000645605 0.000626139 -1.37092e-13)
(0.000631411 0.00053468 3.64141e-14)
(0.00061142 0.000448266 1.8815e-14)
(0.000586787 0.000368018 5.25291e-14)
(0.000558669 0.000293471 -4.53269e-16)
(0.000533134 0.000224432 -9.40674e-14)
(0.000544875 0.000163946 -1.39002e-13)
(0.000560198 8.49174e-05 -1.19691e-13)
(0.0005555 -3.48797e-05 -6.96983e-14)
(0.000493517 -0.000211776 -5.64261e-14)
(0.000239529 -0.00044711 1.91325e-14)
(-0.000260667 -0.000408055 6.72259e-14)
(-0.000505741 0.000331197 -3.61862e-14)
(0.000122302 0.00124984 -1.37663e-14)
(0.00122778 0.00120151 4.44597e-14)
(0.00161508 8.9887e-05 2.10511e-15)
(0.000871662 -0.000885018 2.45314e-14)
(-0.000205616 -0.00092503 -3.05763e-14)
(-0.000827839 -0.000339159 -1.01148e-13)
(-0.000865261 0.000279615 -5.51592e-14)
(-0.000528621 0.000606618 3.49535e-14)
(5.4247e-05 0.000589562 -1.50197e-14)
(0.000483307 0.000340618 2.03716e-14)
(0.00105503 -0.000786836 3.04281e-14)
(-0.000298331 -0.0012275 5.39663e-15)
(0.00569085 -0.00579079 -1.69098e-14)
(0.00534614 0.00382568 4.25518e-14)
(-4.57549e-05 0.00145783 -2.40507e-14)
(-0.000106126 0.00132323 1.50614e-14)
(-0.000160309 0.00112635 4.42744e-14)
(-0.000207798 0.000994136 1.44993e-14)
(-0.000238687 0.000845795 1.02128e-13)
(-0.000270882 0.000758719 1.87081e-14)
(-0.000326963 0.00072989 -2.78769e-15)
(-0.000373135 0.000670458 -9.34347e-14)
(-0.000428243 0.000645228 -3.88184e-14)
(-0.000453034 0.000580899 5.64903e-14)
(-0.000464531 0.000511006 6.41651e-14)
(-0.000465873 0.00044434 1.04452e-13)
(-0.000455923 0.000379737 9.98136e-14)
(-0.000440231 0.00032087 -2.10593e-14)
(-0.000419396 0.000268072 -8.11399e-15)
(-0.000393315 0.00022054 1.57309e-14)
(-0.000365435 0.000179539 3.48494e-15)
(-0.000336414 0.000144719 1.13515e-14)
(-0.000308036 0.000115806 3.09256e-14)