/*--------------------------------*- C++ -*----------------------------------*\
| =========                 |                                                 |
| \\      /  F ield         | OpenFOAM: The Open Source CFD Toolbox           |
|  \\    /   O peration     | Version:  2506                                  |
|   \\  /    A nd           | Website:  www.openfoam.com                      |
|    \\/     M anipulation  |                                                 |
\*---------------------------------------------------------------------------*/
FoamFile
{
    version     2.0;
    format      ascii;
    arch        "LSB;label=32;scalar=64";
    class       volScalarField;
    location    "350";
    object      turbulenceProperties:nuEff;
}
// * * * * * * * * * * * * * * * * * * * * * * * * * * * * * * * * * * * * * //

dimensions      [0 2 -1 0 0 0 0];

internalField   nonuniform List<scalar> 
10720
(
3.58101e-05
3.9537e-05
4.45251e-05
5.09881e-05
5.93124e-05
7.00294e-05
8.38593e-05
0.000101164
0.000122982
0.000150356
0.000185243
0.000230756
0.000291327
0.000374911
0.000495094
0.000673898
0.000955948
0.00140535
0.00222762
0.00359948
0.00691299
0.0127227
0.0339373
0.0760658
0.0937349
0.0946561
0.0957034
0.0992435
0.102761
0.104495
0.104467
0.103216
0.100848
0.0974181
0.0927996
0.0869184
0.0784549
0.068324
0.0332637
3.25843e-05
2.98054e-05
2.7075e-05
2.45849e-05
2.22508e-05
2.01081e-05
1.82454e-05
1.69621e-05
1.80966e-05
2.07905e-05
2.54805e-05
3.32255e-05
4.55737e-05
6.44508e-05
9.1383e-05
0.000127939
0.000177171
0.000246266
0.000349368
0.000511787
0.000783214
0.00125189
0.00212745
0.00377968
0.00733758
0.014732
0.0324853
0.0663285
0.0934774
0.105034
0.108442
0.109384
0.10948
0.108984
0.107983
0.106586
0.10444
0.102005
0.092471
1.50854e-05
1.49803e-05
1.48854e-05
1.48068e-05
1.47166e-05
1.46338e-05
1.45724e-05
1.45187e-05
1.44956e-05
1.45159e-05
1.45435e-05
1.48186e-05
1.58795e-05
1.86541e-05
2.64159e-05
4.68172e-05
9.39094e-05
0.000172794
0.000325133
0.00059792
0.00133158
0.00284026
0.00712563
0.0204912
0.0394594
0.0632315
0.0925193
0.123716
0.148771
0.162722
0.168004
0.168819
0.167231
0.16388
0.159368
0.153866
0.148554
0.139531
0.139947
1.5169e-05
1.52823e-05
1.53788e-05
1.55098e-05
1.56441e-05
1.578e-05
1.59111e-05
1.60217e-05
1.59591e-05
1.58177e-05
1.56246e-05
1.53904e-05
1.51241e-05
1.48295e-05
1.44958e-05
1.41198e-05
1.36767e-05
1.31625e-05
1.25483e-05
1.18435e-05
1.10741e-05
1.04205e-05
1.00541e-05
1.00015e-05
1.00093e-05
0.000103704
0.000549858
0.00416626
0.0141246
0.0287284
0.043736
0.0550714
0.0618344
0.0656163
0.0680141
0.0700045
0.0717362
0.0753082
0.0784692
1.62662e-05
1.62836e-05
1.63015e-05
1.63209e-05
1.63446e-05
1.63711e-05
1.64014e-05
1.64369e-05
1.64787e-05
1.65277e-05
1.65859e-05
1.66577e-05
1.67365e-05
1.68802e-05
1.68933e-05
1.64655e-05
1.47438e-05
1.35042e-05
1.00013e-05
1.83041e-05
1.06371e-05
2.94255e-05
1.13087e-05
0.000568843
0.00299625
0.00756549
0.0157065
0.0310737
0.0574165
0.0938509
0.132865
0.164559
0.184962
0.196798
0.203493
0.206375
0.207621
0.201525
0.210324
1.6253e-05
1.62339e-05
1.62194e-05
1.61978e-05
1.61792e-05
1.61593e-05
1.61416e-05
1.61276e-05
1.61323e-05
1.61473e-05
1.61669e-05
1.61909e-05
1.62202e-05
1.62531e-05
1.62901e-05
1.63311e-05
1.63775e-05
1.64308e-05
1.64945e-05
1.6572e-05
1.66715e-05
1.6799e-05
1.69803e-05
1.71736e-05
1.7436e-05
1.71568e-05
1.72474e-05
1.24845e-05
9.36643e-05
0.000800262
0.00302721
0.00755154
0.0142621
0.022445
0.0311655
0.0396082
0.0470111
0.0536822
0.0631745
1.60862e-05
1.60838e-05
1.60832e-05
1.60835e-05
1.60845e-05
1.60871e-05
1.6092e-05
1.60988e-05
1.61088e-05
1.61224e-05
1.61404e-05
1.61639e-05
1.61944e-05
1.62334e-05
1.6285e-05
1.6339e-05
1.62199e-05
1.58955e-05
1.41051e-05
1.20205e-05
1.0083e-05
1.01848e-05
1.00023e-05
0.000103033
0.000634356
1.19918e-05
0.000231479
0.000855553
0.00417426
0.0136983
0.0357233
0.0728442
0.11889
0.161392
0.193283
0.215422
0.232012
0.239206
0.255307
1.60868e-05
1.60892e-05
1.60923e-05
1.60945e-05
1.60983e-05
1.61003e-05
1.61017e-05
1.61026e-05
1.61004e-05
1.60978e-05
1.60943e-05
1.60905e-05
1.60871e-05
1.60836e-05
1.60803e-05
1.60768e-05
1.60732e-05
1.60692e-05
1.60641e-05
1.6059e-05
1.60537e-05
1.60479e-05
1.60411e-05
1.60348e-05
1.60281e-05
1.60304e-05
1.60231e-05
1.60826e-05
1.5999e-05
1.59525e-05
1.52093e-05
1.41616e-05
0.000236318
0.00105493
0.00305126
0.00689437
0.0131375
0.0218559
0.0392386
1.61112e-05
1.61118e-05
1.61121e-05
1.6113e-05
1.61145e-05
1.61165e-05
1.61191e-05
1.61227e-05
1.61274e-05
1.61336e-05
1.61417e-05
1.61523e-05
1.61662e-05
1.61839e-05
1.62083e-05
1.62363e-05
1.62797e-05
1.62923e-05
1.63587e-05
1.59549e-05
1.50068e-05
1.11465e-05
1.00146e-05
1.00005e-05
1e-05
1.00042e-05
2.19967e-05
0.00018383
0.000945537
0.000560473
0.00168979
0.00806632
0.0296326
0.0707664
0.124192
0.175136
0.21726
0.24812
0.278348
1.61113e-05
1.61099e-05
1.61106e-05
1.61096e-05
1.61104e-05
1.61092e-05
1.61071e-05
1.61052e-05
1.61042e-05
1.61039e-05
1.61039e-05
1.61038e-05
1.61041e-05
1.61047e-05
1.61056e-05
1.61069e-05
1.61084e-05
1.61103e-05
1.61125e-05
1.61149e-05
1.61177e-05
1.61207e-05
1.61242e-05
1.6128e-05
1.61329e-05
1.61372e-05
1.61504e-05
1.61301e-05
1.62727e-05
1.56952e-05
1.87085e-05
1.05819e-05
3.55833e-05
0.000255327
0.000738236
0.000726325
0.00124957
0.00165083
0.0137215
1.61051e-05
1.61049e-05
1.61052e-05
1.61054e-05
1.61055e-05
1.61059e-05
1.61065e-05
1.61073e-05
1.61085e-05
1.61102e-05
1.61125e-05
1.61158e-05
1.61201e-05
1.6126e-05
1.61342e-05
1.6145e-05
1.61597e-05
1.61756e-05
1.62053e-05
1.63035e-05
1.678e-05
1.61314e-05
1.45701e-05
1.03156e-05
1.00093e-05
1.0002e-05
1.00001e-05
1e-05
1e-05
0.000112252
0.000384442
0.00184915
0.000405903
0.00876961
0.0381242
0.0933707
0.160498
0.224081
0.278414
1.61046e-05
1.6104e-05
1.61049e-05
1.61046e-05
1.61063e-05
1.61061e-05
1.61047e-05
1.61035e-05
1.61025e-05
1.61019e-05
1.61015e-05
1.6101e-05
1.61007e-05
1.61006e-05
1.61006e-05
1.61006e-05
1.61007e-05
1.61009e-05
1.61012e-05
1.61014e-05
1.61017e-05
1.61018e-05
1.61018e-05
1.61015e-05
1.61014e-05
1.61017e-05
1.61021e-05
1.61039e-05
1.61035e-05
1.61126e-05
1.60954e-05
1.61989e-05
1.56037e-05
1.4204e-05
1.00029e-05
0.000170134
0.000299808
0.000439286
0.00238787
1.61053e-05
1.61056e-05
1.61057e-05
1.61058e-05
1.61059e-05
1.6106e-05
1.61062e-05
1.61065e-05
1.6107e-05
1.61077e-05
1.61087e-05
1.61102e-05
1.61123e-05
1.61151e-05
1.61191e-05
1.61247e-05
1.61321e-05
1.61404e-05
1.6149e-05
1.61455e-05
1.62341e-05
1.65029e-05
1.69983e-05
1.5981e-05
1.33726e-05
1.12114e-05
1.00515e-05
1.00079e-05
1.0003e-05
1e-05
1e-05
1e-05
7.14273e-05
0.00206869
0.00169385
0.0217874
0.0783261
0.166304
0.252423
1.61049e-05
1.61038e-05
1.61042e-05
1.61039e-05
1.61055e-05
1.61055e-05
1.61043e-05
1.61031e-05
1.61022e-05
1.61017e-05
1.61014e-05
1.61012e-05
1.6101e-05
1.61011e-05
1.6101e-05
1.61011e-05
1.61013e-05
1.61015e-05
1.61018e-05
1.61022e-05
1.61027e-05
1.61033e-05
1.6104e-05
1.61048e-05
1.61058e-05
1.61071e-05
1.61087e-05
1.61108e-05
1.61135e-05
1.61168e-05
1.61209e-05
1.61258e-05
1.61497e-05
1.55242e-05
1.34054e-05
1.00586e-05
1.00117e-05
1e-05
6.65315e-05
1.61049e-05
1.61051e-05
1.61053e-05
1.61053e-05
1.61051e-05
1.6105e-05
1.61048e-05
1.61047e-05
1.61046e-05
1.61047e-05
1.61047e-05
1.6105e-05
1.61053e-05
1.61059e-05
1.61068e-05
1.61082e-05
1.61102e-05
1.61126e-05
1.61159e-05
1.61153e-05
1.61077e-05
1.61536e-05
1.63275e-05
1.676e-05
1.68329e-05
1.63183e-05
1.50146e-05
1.3163e-05
1.1538e-05
1.00118e-05
1.00071e-05
1e-05
1e-05
1e-05
0.00039723
0.0054412
0.0162099
0.0904937
0.200181
1.61043e-05
1.61032e-05
1.61032e-05
1.61028e-05
1.61044e-05
1.61045e-05
1.61036e-05
1.61026e-05
1.61018e-05
1.61013e-05
1.6101e-05
1.61008e-05
1.61008e-05
1.61009e-05
1.6101e-05
1.61011e-05
1.61011e-05
1.61011e-05
1.61012e-05
1.61013e-05
1.61014e-05
1.61016e-05
1.61017e-05
1.61019e-05
1.6102e-05
1.61022e-05
1.61024e-05
1.61027e-05
1.61029e-05
1.6103e-05
1.61035e-05
1.61008e-05
1.61118e-05
1.60774e-05
1.63143e-05
1.60217e-05
1.36692e-05
1.00183e-05
1.05083e-05
1.61048e-05
1.6105e-05
1.61051e-05
1.61049e-05
1.61048e-05
1.61045e-05
1.61042e-05
1.61041e-05
1.6104e-05
1.61039e-05
1.6104e-05
1.61041e-05
1.61043e-05
1.61047e-05
1.61053e-05
1.61063e-05
1.61077e-05
1.61096e-05
1.61115e-05
1.61137e-05
1.61122e-05
1.61074e-05
1.61125e-05
1.62117e-05
1.64116e-05
1.66462e-05
1.69256e-05
1.69113e-05
1.675e-05
1.48331e-05
1.2802e-05
1.00065e-05
1.00031e-05
1e-05
1e-05
1e-05
0.00443234
0.0303577
0.133126
1.61043e-05
1.6103e-05
1.61027e-05
1.61021e-05
1.61036e-05
1.61039e-05
1.61032e-05
1.61022e-05
1.61015e-05
1.61011e-05
1.61008e-05
1.61007e-05
1.61006e-05
1.61007e-05
1.61008e-05
1.6101e-05
1.61011e-05
1.61012e-05
1.61013e-05
1.61013e-05
1.61014e-05
1.61015e-05
1.61017e-05
1.61019e-05
1.61021e-05
1.61024e-05
1.61029e-05
1.61036e-05
1.61044e-05
1.61055e-05
1.61069e-05
1.61084e-05
1.61108e-05
1.6107e-05
1.61249e-05
1.61821e-05
1.66783e-05
1.45608e-05
1.00026e-05
1.61048e-05
1.61048e-05
1.61048e-05
1.61045e-05
1.61042e-05
1.61039e-05
1.61036e-05
1.61034e-05
1.61032e-05
1.6103e-05
1.61028e-05
1.61027e-05
1.61026e-05
1.61026e-05
1.61026e-05
1.61026e-05
1.61026e-05
1.61027e-05
1.61029e-05
1.61037e-05
1.61048e-05
1.61043e-05
1.61017e-05
1.61018e-05
1.61252e-05
1.61794e-05
1.62942e-05
1.64939e-05
1.68115e-05
1.7183e-05
1.74655e-05
1.51389e-05
1.11913e-05
1.00108e-05
1e-05
1e-05
3.96709e-05
0.00306856
0.0731277
1.61043e-05
1.6103e-05
1.61023e-05
1.61016e-05
1.6103e-05
1.61033e-05
1.61028e-05
1.61019e-05
1.61013e-05
1.61009e-05
1.61007e-05
1.61006e-05
1.61005e-05
1.61005e-05
1.61006e-05
1.61008e-05
1.61009e-05
1.61011e-05
1.61013e-05
1.61014e-05
1.61015e-05
1.61016e-05
1.61016e-05
1.61016e-05
1.61017e-05
1.61018e-05
1.61019e-05
1.61022e-05
1.61026e-05
1.6103e-05
1.61034e-05
1.61041e-05
1.61037e-05
1.61088e-05
1.60888e-05
1.61861e-05
1.58342e-05
1.87781e-05
1.05656e-05
1.61046e-05
1.61045e-05
1.61044e-05
1.6104e-05
1.61037e-05
1.61033e-05
1.61031e-05
1.61029e-05
1.61027e-05
1.61025e-05
1.61024e-05
1.61024e-05
1.61024e-05
1.61024e-05
1.61025e-05
1.61027e-05
1.6103e-05
1.61035e-05
1.61041e-05
1.61047e-05
1.61053e-05
1.61057e-05
1.61056e-05
1.61047e-05
1.61027e-05
1.60995e-05
1.60984e-05
1.61205e-05
1.61895e-05
1.64148e-05
1.68213e-05
1.76026e-05
1.71765e-05
1.30185e-05
1.00158e-05
1e-05
1e-05
0.00142307
0.0333932
1.61043e-05
1.6103e-05
1.61022e-05
1.61012e-05
1.61025e-05
1.61029e-05
1.61024e-05
1.61016e-05
1.61011e-05
1.61007e-05
1.61006e-05
1.61004e-05
1.61003e-05
1.61003e-05
1.61004e-05
1.61005e-05
1.61007e-05
1.61009e-05
1.61011e-05
1.61013e-05
1.61014e-05
1.61016e-05
1.61017e-05
1.61018e-05
1.61018e-05
1.61019e-05
1.6102e-05
1.61023e-05
1.61026e-05
1.6103e-05
1.61035e-05
1.61044e-05
1.61044e-05
1.61089e-05
1.60935e-05
1.61648e-05
1.5859e-05
1.71569e-05
1.43605e-05
1.61045e-05
1.61042e-05
1.61039e-05
1.61036e-05
1.61032e-05
1.61028e-05
1.61026e-05
1.61024e-05
1.61022e-05
1.6102e-05
1.61019e-05
1.61018e-05
1.61018e-05
1.61018e-05
1.61018e-05
1.61018e-05
1.61019e-05
1.6102e-05
1.61022e-05
1.61026e-05
1.61033e-05
1.61041e-05
1.61047e-05
1.61057e-05
1.61069e-05
1.61071e-05
1.61021e-05
1.60911e-05
1.60746e-05
1.60876e-05
1.61473e-05
1.64839e-05
1.72029e-05
1.77889e-05
1.40027e-05
1.00105e-05
1e-05
0.000291943
0.0130805
1.61043e-05
1.61031e-05
1.61021e-05
1.6101e-05
1.61021e-05
1.61025e-05
1.61021e-05
1.61013e-05
1.61009e-05
1.61006e-05
1.61004e-05
1.61003e-05
1.61002e-05
1.61001e-05
1.61002e-05
1.61003e-05
1.61004e-05
1.61006e-05
1.61008e-05
1.6101e-05
1.61012e-05
1.61014e-05
1.61016e-05
1.61018e-05
1.61019e-05
1.6102e-05
1.6102e-05
1.61021e-05
1.61023e-05
1.61025e-05
1.61028e-05
1.61033e-05
1.61035e-05
1.61051e-05
1.61016e-05
1.6119e-05
1.60599e-05
1.62055e-05
1.61618e-05
1.61042e-05
1.61038e-05
1.61035e-05
1.61031e-05
1.61027e-05
1.61024e-05
1.61021e-05
1.61019e-05
1.61018e-05
1.61017e-05
1.61016e-05
1.61016e-05
1.61016e-05
1.61016e-05
1.61016e-05
1.61016e-05
1.61017e-05
1.61019e-05
1.61022e-05
1.61025e-05
1.61029e-05
1.61034e-05
1.6104e-05
1.61047e-05
1.61059e-05
1.6108e-05
1.61098e-05
1.61087e-05
1.61002e-05
1.6084e-05
1.60597e-05
1.60617e-05
1.62439e-05
1.68001e-05
1.85304e-05
1.25129e-05
1e-05
8.35063e-05
0.00436078
1.61042e-05
1.61031e-05
1.6102e-05
1.61008e-05
1.61018e-05
1.61021e-05
1.61018e-05
1.61011e-05
1.61007e-05
1.61004e-05
1.61003e-05
1.61001e-05
1.61e-05
1.60999e-05
1.60999e-05
1.61e-05
1.61001e-05
1.61003e-05
1.61005e-05
1.61008e-05
1.6101e-05
1.61013e-05
1.61015e-05
1.61017e-05
1.61019e-05
1.6102e-05
1.61021e-05
1.61021e-05
1.61022e-05
1.61024e-05
1.61026e-05
1.61029e-05
1.61033e-05
1.61037e-05
1.61048e-05
1.61029e-05
1.6117e-05
1.60529e-05
1.62572e-05
1.61039e-05
1.61034e-05
1.61031e-05
1.61027e-05
1.61023e-05
1.6102e-05
1.61017e-05
1.61016e-05
1.61015e-05
1.61014e-05
1.61014e-05
1.61014e-05
1.61014e-05
1.61014e-05
1.61014e-05
1.61014e-05
1.61015e-05
1.61016e-05
1.61018e-05
1.6102e-05
1.61023e-05
1.61028e-05
1.61033e-05
1.61039e-05
1.61047e-05
1.6106e-05
1.61081e-05
1.61107e-05
1.61123e-05
1.61092e-05
1.60988e-05
1.60688e-05
1.60473e-05
1.60815e-05
1.66879e-05
2.04389e-05
1.00116e-05
1.13557e-05
0.00112076
1.61041e-05
1.61031e-05
1.6102e-05
1.61007e-05
1.61015e-05
1.61018e-05
1.61015e-05
1.61009e-05
1.61005e-05
1.61002e-05
1.61001e-05
1.61e-05
1.60998e-05
1.60997e-05
1.60997e-05
1.60998e-05
1.60999e-05
1.61001e-05
1.61003e-05
1.61005e-05
1.61007e-05
1.6101e-05
1.61013e-05
1.61015e-05
1.61017e-05
1.61019e-05
1.61021e-05
1.61021e-05
1.61021e-05
1.61022e-05
1.61024e-05
1.61026e-05
1.61029e-05
1.61031e-05
1.61041e-05
1.61021e-05
1.61126e-05
1.60814e-05
1.61464e-05
1.61036e-05
1.61031e-05
1.61027e-05
1.61023e-05
1.61019e-05
1.61016e-05
1.61014e-05
1.61014e-05
1.61013e-05
1.61013e-05
1.61013e-05
1.61013e-05
1.61013e-05
1.61014e-05
1.61014e-05
1.61014e-05
1.61015e-05
1.61016e-05
1.61017e-05
1.61019e-05
1.61021e-05
1.61025e-05
1.61029e-05
1.61034e-05
1.6104e-05
1.61049e-05
1.61061e-05
1.6108e-05
1.61107e-05
1.61132e-05
1.61142e-05
1.61106e-05
1.60783e-05
1.61072e-05
1.56437e-05
1.93061e-05
1.23429e-05
1.00003e-05
8.03782e-05
1.61038e-05
1.61031e-05
1.6102e-05
1.61006e-05
1.61013e-05
1.61016e-05
1.61013e-05
1.61007e-05
1.61003e-05
1.61001e-05
1.60999e-05
1.60998e-05
1.60996e-05
1.60995e-05
1.60995e-05
1.60995e-05
1.60996e-05
1.60998e-05
1.61e-05
1.61002e-05
1.61005e-05
1.61008e-05
1.6101e-05
1.61013e-05
1.61016e-05
1.61018e-05
1.6102e-05
1.61021e-05
1.61021e-05
1.61022e-05
1.61022e-05
1.61024e-05
1.61026e-05
1.61028e-05
1.61033e-05
1.61032e-05
1.61056e-05
1.61021e-05
1.61073e-05
1.61033e-05
1.61027e-05
1.61023e-05
1.6102e-05
1.61016e-05
1.61014e-05
1.61012e-05
1.61012e-05
1.61012e-05
1.61012e-05
1.61012e-05
1.61013e-05
1.61013e-05
1.61014e-05
1.61014e-05
1.61015e-05
1.61015e-05
1.61016e-05
1.61017e-05
1.61018e-05
1.6102e-05
1.61023e-05
1.61026e-05
1.6103e-05
1.61036e-05
1.61043e-05
1.61052e-05
1.61064e-05
1.61081e-05
1.61106e-05
1.61127e-05
1.61193e-05
1.61021e-05
1.61659e-05
1.58158e-05
1.64414e-05
1.96505e-05
1e-05
1.06897e-05
1.61036e-05
1.6103e-05
1.6102e-05
1.61006e-05
1.61011e-05
1.61014e-05
1.61011e-05
1.61006e-05
1.61002e-05
1.60999e-05
1.60997e-05
1.60996e-05
1.60994e-05
1.60993e-05
1.60993e-05
1.60993e-05
1.60994e-05
1.60996e-05
1.60998e-05
1.61e-05
1.61002e-05
1.61005e-05
1.61008e-05
1.61011e-05
1.61014e-05
1.61016e-05
1.61018e-05
1.6102e-05
1.61021e-05
1.61022e-05
1.61022e-05
1.61023e-05
1.61024e-05
1.61026e-05
1.61028e-05
1.61032e-05
1.61034e-05
1.61058e-05
1.61027e-05
1.6103e-05
1.61024e-05
1.6102e-05
1.61016e-05
1.61014e-05
1.61011e-05
1.61011e-05
1.61011e-05
1.61011e-05
1.61012e-05
1.61013e-05
1.61013e-05
1.61014e-05
1.61014e-05
1.61015e-05
1.61016e-05
1.61016e-05
1.61017e-05
1.61018e-05
1.61019e-05
1.6102e-05
1.61022e-05
1.61025e-05
1.61028e-05
1.61033e-05
1.61039e-05
1.61047e-05
1.61057e-05
1.61069e-05
1.61086e-05
1.611e-05
1.61147e-05
1.61126e-05
1.61248e-05
1.61914e-05
1.52693e-05
2.21235e-05
1.00003e-05
1e-05
1.61034e-05
1.61029e-05
1.61019e-05
1.61006e-05
1.6101e-05
1.61011e-05
1.61009e-05
1.61004e-05
1.61e-05
1.60997e-05
1.60995e-05
1.60994e-05
1.60992e-05
1.60991e-05
1.60991e-05
1.60991e-05
1.60992e-05
1.60994e-05
1.60995e-05
1.60997e-05
1.61e-05
1.61003e-05
1.61006e-05
1.61009e-05
1.61012e-05
1.61014e-05
1.61017e-05
1.61019e-05
1.6102e-05
1.61021e-05
1.61022e-05
1.61022e-05
1.61023e-05
1.61024e-05
1.61026e-05
1.61029e-05
1.6103e-05
1.61049e-05
1.61036e-05
1.61027e-05
1.61021e-05
1.61017e-05
1.61014e-05
1.61011e-05
1.6101e-05
1.6101e-05
1.6101e-05
1.61011e-05
1.61012e-05
1.61013e-05
1.61014e-05
1.61015e-05
1.61015e-05
1.61016e-05
1.61017e-05
1.61017e-05
1.61018e-05
1.61018e-05
1.61019e-05
1.61021e-05
1.61022e-05
1.61025e-05
1.61027e-05
1.61031e-05
1.61036e-05
1.61043e-05
1.61052e-05
1.61062e-05
1.61075e-05
1.6109e-05
1.61101e-05
1.61187e-05
1.60834e-05
1.6312e-05
1.53067e-05
1.94756e-05
1.16012e-05
1.00005e-05
1.61031e-05
1.61028e-05
1.61018e-05
1.61005e-05
1.61008e-05
1.61009e-05
1.61007e-05
1.61002e-05
1.60998e-05
1.60995e-05
1.60994e-05
1.60992e-05
1.60991e-05
1.6099e-05
1.60989e-05
1.6099e-05
1.6099e-05
1.60991e-05
1.60993e-05
1.60995e-05
1.60998e-05
1.61e-05
1.61003e-05
1.61006e-05
1.61009e-05
1.61012e-05
1.61015e-05
1.61017e-05
1.61019e-05
1.61021e-05
1.61022e-05
1.61022e-05
1.61022e-05
1.61023e-05
1.61024e-05
1.61026e-05
1.61028e-05
1.61041e-05
1.61038e-05
1.61024e-05
1.61018e-05
1.61014e-05
1.61011e-05
1.6101e-05
1.61009e-05
1.61009e-05
1.6101e-05
1.61011e-05
1.61012e-05
1.61014e-05
1.61015e-05
1.61015e-05
1.61016e-05
1.61017e-05
1.61017e-05
1.61018e-05
1.61019e-05
1.61019e-05
1.6102e-05
1.61021e-05
1.61023e-05
1.61024e-05
1.61027e-05
1.6103e-05
1.61034e-05
1.6104e-05
1.61048e-05
1.61057e-05
1.61067e-05
1.61084e-05
1.61079e-05
1.61188e-05
1.60811e-05
1.62448e-05
1.57417e-05
1.6932e-05
1.68433e-05
1.00884e-05
1.61028e-05
1.61026e-05
1.61018e-05
1.61005e-05
1.61006e-05
1.61007e-05
1.61005e-05
1.61e-05
1.60997e-05
1.60994e-05
1.60992e-05
1.6099e-05
1.60989e-05
1.60988e-05
1.60988e-05
1.60988e-05
1.60989e-05
1.6099e-05
1.60991e-05
1.60993e-05
1.60996e-05
1.60998e-05
1.61001e-05
1.61004e-05
1.61007e-05
1.6101e-05
1.61013e-05
1.61015e-05
1.61018e-05
1.61019e-05
1.61021e-05
1.61022e-05
1.61022e-05
1.61022e-05
1.61023e-05
1.61025e-05
1.61027e-05
1.61036e-05
1.61036e-05
1.61021e-05
1.61016e-05
1.61011e-05
1.61009e-05
1.61008e-05
1.61008e-05
1.61009e-05
1.6101e-05
1.61011e-05
1.61013e-05
1.61014e-05
1.61015e-05
1.61016e-05
1.61017e-05
1.61018e-05
1.61018e-05
1.61019e-05
1.6102e-05
1.6102e-05
1.61021e-05
1.61022e-05
1.61023e-05
1.61025e-05
1.61027e-05
1.61029e-05
1.61033e-05
1.61038e-05
1.61045e-05
1.61053e-05
1.61062e-05
1.61077e-05
1.61076e-05
1.61147e-05
1.60973e-05
1.61525e-05
1.6076e-05
1.58764e-05
1.85015e-05
1.16862e-05
1.61026e-05
1.61025e-05
1.61017e-05
1.61004e-05
1.61005e-05
1.61006e-05
1.61003e-05
1.60999e-05
1.60995e-05
1.60992e-05
1.6099e-05
1.60989e-05
1.60987e-05
1.60987e-05
1.60986e-05
1.60986e-05
1.60987e-05
1.60988e-05
1.6099e-05
1.60991e-05
1.60994e-05
1.60996e-05
1.60999e-05
1.61002e-05
1.61005e-05
1.61008e-05
1.61011e-05
1.61013e-05
1.61016e-05
1.61018e-05
1.6102e-05
1.61021e-05
1.61022e-05
1.61022e-05
1.61023e-05
1.61024e-05
1.61025e-05
1.61033e-05
1.61033e-05
1.61018e-05
1.61014e-05
1.61009e-05
1.61008e-05
1.61007e-05
1.61008e-05
1.61009e-05
1.6101e-05
1.61012e-05
1.61013e-05
1.61015e-05
1.61016e-05
1.61017e-05
1.61018e-05
1.61019e-05
1.6102e-05
1.6102e-05
1.61021e-05
1.61022e-05
1.61022e-05
1.61023e-05
1.61025e-05
1.61026e-05
1.61028e-05
1.6103e-05
1.61033e-05
1.61037e-05
1.61043e-05
1.6105e-05
1.61058e-05
1.6107e-05
1.61076e-05
1.61105e-05
1.61101e-05
1.61041e-05
1.61948e-05
1.5732e-05
1.75831e-05
1.45997e-05
1.61023e-05
1.61023e-05
1.61015e-05
1.61004e-05
1.61004e-05
1.61004e-05
1.61001e-05
1.60997e-05
1.60993e-05
1.60991e-05
1.60989e-05
1.60987e-05
1.60986e-05
1.60985e-05
1.60985e-05
1.60985e-05
1.60986e-05
1.60987e-05
1.60988e-05
1.6099e-05
1.60992e-05
1.60994e-05
1.60997e-05
1.61e-05
1.61003e-05
1.61006e-05
1.61008e-05
1.61011e-05
1.61014e-05
1.61016e-05
1.61018e-05
1.6102e-05
1.61021e-05
1.61022e-05
1.61022e-05
1.61022e-05
1.61024e-05
1.61031e-05
1.61031e-05
1.61016e-05
1.61012e-05
1.61008e-05
1.61007e-05
1.61007e-05
1.61008e-05
1.61009e-05
1.61011e-05
1.61012e-05
1.61014e-05
1.61015e-05
1.61016e-05
1.61018e-05
1.61019e-05
1.6102e-05
1.61021e-05
1.61021e-05
1.61022e-05
1.61023e-05
1.61024e-05
1.61025e-05
1.61026e-05
1.61027e-05
1.61028e-05
1.6103e-05
1.61033e-05
1.61037e-05
1.61041e-05
1.61048e-05
1.61055e-05
1.61064e-05
1.61075e-05
1.61082e-05
1.6114e-05
1.60944e-05
1.61857e-05
1.58914e-05
1.66196e-05
1.61524e-05
1.6102e-05
1.61021e-05
1.61014e-05
1.61003e-05
1.61002e-05
1.61002e-05
1.60999e-05
1.60995e-05
1.60992e-05
1.60989e-05
1.60987e-05
1.60986e-05
1.60985e-05
1.60984e-05
1.60984e-05
1.60984e-05
1.60984e-05
1.60985e-05
1.60986e-05
1.60988e-05
1.6099e-05
1.60992e-05
1.60995e-05
1.60997e-05
1.61e-05
1.61003e-05
1.61006e-05
1.61009e-05
1.61011e-05
1.61014e-05
1.61016e-05
1.61018e-05
1.6102e-05
1.61021e-05
1.61022e-05
1.61022e-05
1.61023e-05
1.61029e-05
1.61029e-05
1.61014e-05
1.6101e-05
1.61006e-05
1.61006e-05
1.61007e-05
1.61007e-05
1.61009e-05
1.61011e-05
1.61012e-05
1.61014e-05
1.61016e-05
1.61017e-05
1.61018e-05
1.6102e-05
1.61021e-05
1.61022e-05
1.61023e-05
1.61024e-05
1.61024e-05
1.61025e-05
1.61026e-05
1.61027e-05
1.61028e-05
1.6103e-05
1.61031e-05
1.61034e-05
1.61037e-05
1.61041e-05
1.61046e-05
1.61053e-05
1.6106e-05
1.61072e-05
1.61074e-05
1.61127e-05
1.61004e-05
1.61463e-05
1.60441e-05
1.61726e-05
1.64177e-05
1.61018e-05
1.61019e-05
1.61013e-05
1.61002e-05
1.61001e-05
1.61e-05
1.60997e-05
1.60994e-05
1.6099e-05
1.60988e-05
1.60986e-05
1.60984e-05
1.60983e-05
1.60983e-05
1.60982e-05
1.60983e-05
1.60983e-05
1.60984e-05
1.60985e-05
1.60986e-05
1.60988e-05
1.6099e-05
1.60992e-05
1.60995e-05
1.60998e-05
1.61001e-05
1.61004e-05
1.61006e-05
1.61009e-05
1.61012e-05
1.61014e-05
1.61017e-05
1.61019e-05
1.6102e-05
1.61021e-05
1.61022e-05
1.61022e-05
1.61027e-05
1.61027e-05
1.61012e-05
1.61008e-05
1.61005e-05
1.61006e-05
1.61006e-05
1.61007e-05
1.61009e-05
1.61011e-05
1.61013e-05
1.61015e-05
1.61016e-05
1.61018e-05
1.61019e-05
1.61021e-05
1.61022e-05
1.61023e-05
1.61024e-05
1.61025e-05
1.61026e-05
1.61027e-05
1.61028e-05
1.61029e-05
1.6103e-05
1.61031e-05
1.61032e-05
1.61034e-05
1.61037e-05
1.61041e-05
1.61046e-05
1.61051e-05
1.61058e-05
1.61068e-05
1.61073e-05
1.61104e-05
1.61069e-05
1.61196e-05
1.61139e-05
1.60622e-05
1.62865e-05
1.61016e-05
1.61017e-05
1.61011e-05
1.61001e-05
1.60999e-05
1.60998e-05
1.60996e-05
1.60992e-05
1.60988e-05
1.60986e-05
1.60984e-05
1.60983e-05
1.60982e-05
1.60981e-05
1.60981e-05
1.60981e-05
1.60982e-05
1.60982e-05
1.60983e-05
1.60984e-05
1.60986e-05
1.60988e-05
1.6099e-05
1.60993e-05
1.60996e-05
1.60998e-05
1.61001e-05
1.61004e-05
1.61007e-05
1.61009e-05
1.61012e-05
1.61015e-05
1.61017e-05
1.61019e-05
1.6102e-05
1.61021e-05
1.61021e-05
1.61026e-05
1.61026e-05
1.6101e-05
1.61007e-05
1.61004e-05
1.61005e-05
1.61006e-05
1.61007e-05
1.61009e-05
1.61011e-05
1.61013e-05
1.61015e-05
1.61017e-05
1.61019e-05
1.6102e-05
1.61021e-05
1.61023e-05
1.61024e-05
1.61025e-05
1.61026e-05
1.61027e-05
1.61028e-05
1.61029e-05
1.6103e-05
1.61031e-05
1.61032e-05
1.61034e-05
1.61036e-05
1.61038e-05
1.61041e-05
1.61045e-05
1.61051e-05
1.61057e-05
1.61065e-05
1.61073e-05
1.61088e-05
1.61099e-05
1.61096e-05
1.61274e-05
1.60741e-05
1.61655e-05
1.61013e-05
1.61015e-05
1.6101e-05
1.61e-05
1.60998e-05
1.60997e-05
1.60994e-05
1.6099e-05
1.60987e-05
1.60984e-05
1.60982e-05
1.60981e-05
1.6098e-05
1.6098e-05
1.6098e-05
1.6098e-05
1.6098e-05
1.60981e-05
1.60981e-05
1.60983e-05
1.60984e-05
1.60986e-05
1.60988e-05
1.60991e-05
1.60993e-05
1.60996e-05
1.60999e-05
1.61001e-05
1.61004e-05
1.61007e-05
1.6101e-05
1.61012e-05
1.61015e-05
1.61017e-05
1.61019e-05
1.6102e-05
1.6102e-05
1.61024e-05
1.61025e-05
1.61009e-05
1.61006e-05
1.61004e-05
1.61005e-05
1.61006e-05
1.61007e-05
1.61009e-05
1.61012e-05
1.61014e-05
1.61016e-05
1.61017e-05
1.61019e-05
1.61021e-05
1.61022e-05
1.61024e-05
1.61025e-05
1.61026e-05
1.61027e-05
1.61028e-05
1.6103e-05
1.61031e-05
1.61032e-05
1.61033e-05
1.61034e-05
1.61035e-05
1.61037e-05
1.61039e-05
1.61042e-05
1.61046e-05
1.6105e-05
1.61056e-05
1.61063e-05
1.61072e-05
1.61081e-05
1.61102e-05
1.61083e-05
1.61216e-05
1.61006e-05
1.6118e-05
1.61011e-05
1.61013e-05
1.61008e-05
1.60999e-05
1.60996e-05
1.60995e-05
1.60992e-05
1.60988e-05
1.60985e-05
1.60983e-05
1.60981e-05
1.60979e-05
1.60979e-05
1.60978e-05
1.60978e-05
1.60978e-05
1.60978e-05
1.60979e-05
1.6098e-05
1.60981e-05
1.60982e-05
1.60984e-05
1.60986e-05
1.60988e-05
1.60991e-05
1.60993e-05
1.60996e-05
1.60999e-05
1.61002e-05
1.61005e-05
1.61007e-05
1.6101e-05
1.61013e-05
1.61015e-05
1.61017e-05
1.61019e-05
1.61019e-05
1.61022e-05
1.61023e-05
1.61007e-05
1.61004e-05
1.61003e-05
1.61004e-05
1.61006e-05
1.61007e-05
1.6101e-05
1.61012e-05
1.61014e-05
1.61016e-05
1.61018e-05
1.6102e-05
1.61022e-05
1.61023e-05
1.61025e-05
1.61026e-05
1.61027e-05
1.61029e-05
1.6103e-05
1.61031e-05
1.61032e-05
1.61033e-05
1.61034e-05
1.61036e-05
1.61037e-05
1.61039e-05
1.61041e-05
1.61043e-05
1.61046e-05
1.6105e-05
1.61056e-05
1.61062e-05
1.6107e-05
1.61078e-05
1.61096e-05
1.61093e-05
1.61152e-05
1.61133e-05
1.6111e-05
1.61009e-05
1.61011e-05
1.61006e-05
1.60998e-05
1.60995e-05
1.60993e-05
1.6099e-05
1.60986e-05
1.60983e-05
1.60981e-05
1.60979e-05
1.60978e-05
1.60977e-05
1.60976e-05
1.60976e-05
1.60976e-05
1.60977e-05
1.60977e-05
1.60978e-05
1.60979e-05
1.6098e-05
1.60982e-05
1.60984e-05
1.60986e-05
1.60988e-05
1.60991e-05
1.60994e-05
1.60996e-05
1.60999e-05
1.61002e-05
1.61005e-05
1.61008e-05
1.61011e-05
1.61013e-05
1.61016e-05
1.61018e-05
1.61018e-05
1.6102e-05
1.61022e-05
1.61006e-05
1.61003e-05
1.61002e-05
1.61004e-05
1.61005e-05
1.61007e-05
1.6101e-05
1.61012e-05
1.61014e-05
1.61017e-05
1.61019e-05
1.61021e-05
1.61022e-05
1.61024e-05
1.61026e-05
1.61027e-05
1.61029e-05
1.6103e-05
1.61031e-05
1.61032e-05
1.61034e-05
1.61035e-05
1.61036e-05
1.61037e-05
1.61039e-05
1.6104e-05
1.61042e-05
1.61045e-05
1.61047e-05
1.61051e-05
1.61056e-05
1.61062e-05
1.61069e-05
1.61077e-05
1.6109e-05
1.61098e-05
1.61122e-05
1.61154e-05
1.61144e-05
1.61007e-05
1.61009e-05
1.61005e-05
1.60996e-05
1.60993e-05
1.60991e-05
1.60987e-05
1.60984e-05
1.60981e-05
1.60979e-05
1.60977e-05
1.60976e-05
1.60975e-05
1.60975e-05
1.60975e-05
1.60975e-05
1.60975e-05
1.60976e-05
1.60976e-05
1.60977e-05
1.60978e-05
1.6098e-05
1.60982e-05
1.60984e-05
1.60986e-05
1.60988e-05
1.60991e-05
1.60994e-05
1.60996e-05
1.60999e-05
1.61002e-05
1.61005e-05
1.61008e-05
1.61011e-05
1.61014e-05
1.61016e-05
1.61017e-05
1.61018e-05
1.6102e-05
1.61004e-05
1.61002e-05
1.61001e-05
1.61003e-05
1.61005e-05
1.61007e-05
1.6101e-05
1.61012e-05
1.61015e-05
1.61017e-05
1.61019e-05
1.61021e-05
1.61023e-05
1.61025e-05
1.61027e-05
1.61028e-05
1.6103e-05
1.61031e-05
1.61033e-05
1.61034e-05
1.61035e-05
1.61037e-05
1.61038e-05
1.61039e-05
1.61041e-05
1.61042e-05
1.61044e-05
1.61046e-05
1.61049e-05
1.61052e-05
1.61056e-05
1.61062e-05
1.61068e-05
1.61076e-05
1.61087e-05
1.61099e-05
1.61113e-05
1.6114e-05
1.61168e-05
1.61006e-05
1.61006e-05
1.61003e-05
1.60995e-05
1.60991e-05
1.60989e-05
1.60985e-05
1.60982e-05
1.60979e-05
1.60977e-05
1.60975e-05
1.60974e-05
1.60973e-05
1.60973e-05
1.60973e-05
1.60973e-05
1.60973e-05
1.60974e-05
1.60974e-05
1.60975e-05
1.60976e-05
1.60978e-05
1.6098e-05
1.60982e-05
1.60984e-05
1.60986e-05
1.60988e-05
1.60991e-05
1.60993e-05
1.60996e-05
1.60999e-05
1.61002e-05
1.61005e-05
1.61008e-05
1.61011e-05
1.61014e-05
1.61016e-05
1.61016e-05
1.61019e-05
1.61003e-05
1.61001e-05
1.61001e-05
1.61003e-05
1.61005e-05
1.61007e-05
1.6101e-05
1.61012e-05
1.61015e-05
1.61017e-05
1.6102e-05
1.61022e-05
1.61024e-05
1.61026e-05
1.61028e-05
1.61029e-05
1.61031e-05
1.61033e-05
1.61034e-05
1.61035e-05
1.61037e-05
1.61038e-05
1.6104e-05
1.61041e-05
1.61042e-05
1.61044e-05
1.61046e-05
1.61048e-05
1.6105e-05
1.61053e-05
1.61057e-05
1.61062e-05
1.61068e-05
1.61075e-05
1.61085e-05
1.61096e-05
1.61111e-05
1.61126e-05
1.61169e-05
1.61004e-05
1.61005e-05
1.61001e-05
1.60993e-05
1.60989e-05
1.60987e-05
1.60983e-05
1.60979e-05
1.60976e-05
1.60975e-05
1.60973e-05
1.60972e-05
1.60971e-05
1.60971e-05
1.60971e-05
1.60971e-05
1.60971e-05
1.60972e-05
1.60972e-05
1.60973e-05
1.60974e-05
1.60975e-05
1.60977e-05
1.60979e-05
1.60981e-05
1.60983e-05
1.60985e-05
1.60988e-05
1.6099e-05
1.60993e-05
1.60996e-05
1.60999e-05
1.61002e-05
1.61006e-05
1.61009e-05
1.61011e-05
1.61014e-05
1.61015e-05
1.61017e-05
1.61001e-05
1.61e-05
1.61e-05
1.61002e-05
1.61005e-05
1.61007e-05
1.6101e-05
1.61013e-05
1.61015e-05
1.61018e-05
1.6102e-05
1.61023e-05
1.61025e-05
1.61027e-05
1.61029e-05
1.6103e-05
1.61032e-05
1.61034e-05
1.61035e-05
1.61037e-05
1.61038e-05
1.6104e-05
1.61041e-05
1.61043e-05
1.61044e-05
1.61046e-05
1.61047e-05
1.61049e-05
1.61052e-05
1.61055e-05
1.61058e-05
1.61063e-05
1.61068e-05
1.61075e-05
1.61084e-05
1.61094e-05
1.6111e-05
1.61118e-05
1.61161e-05
1.61002e-05
1.61003e-05
1.60999e-05
1.60991e-05
1.60987e-05
1.60984e-05
1.60981e-05
1.60977e-05
1.60974e-05
1.60972e-05
1.60971e-05
1.6097e-05
1.60969e-05
1.60969e-05
1.60969e-05
1.60969e-05
1.60969e-05
1.6097e-05
1.6097e-05
1.60971e-05
1.60972e-05
1.60973e-05
1.60975e-05
1.60976e-05
1.60978e-05
1.6098e-05
1.60983e-05
1.60985e-05
1.60987e-05
1.6099e-05
1.60993e-05
1.60996e-05
1.60999e-05
1.61003e-05
1.61006e-05
1.61009e-05
1.61012e-05
1.61013e-05
1.61016e-05
1.61e-05
1.60999e-05
1.60999e-05
1.61002e-05
1.61004e-05
1.61007e-05
1.6101e-05
1.61013e-05
1.61016e-05
1.61018e-05
1.61021e-05
1.61023e-05
1.61025e-05
1.61028e-05
1.6103e-05
1.61031e-05
1.61033e-05
1.61035e-05
1.61037e-05
1.61038e-05
1.6104e-05
1.61041e-05
1.61043e-05
1.61045e-05
1.61046e-05
1.61048e-05
1.61049e-05
1.61051e-05
1.61053e-05
1.61056e-05
1.6106e-05
1.61064e-05
1.61069e-05
1.61075e-05
1.61083e-05
1.61092e-05
1.61108e-05
1.61114e-05
1.61153e-05
1.61e-05
1.61001e-05
1.60997e-05
1.6099e-05
1.60985e-05
1.60982e-05
1.60978e-05
1.60975e-05
1.60972e-05
1.6097e-05
1.60969e-05
1.60968e-05
1.60967e-05
1.60967e-05
1.60967e-05
1.60967e-05
1.60967e-05
1.60967e-05
1.60968e-05
1.60969e-05
1.6097e-05
1.60971e-05
1.60972e-05
1.60974e-05
1.60975e-05
1.60977e-05