/*--------------------------------*- C++ -*----------------------------------*\
| =========                 |                                                 |
| \\      /  F ield         | OpenFOAM: The Open Source CFD Toolbox           |
|  \\    /   O peration     | Version:  2506                                  |
|   \\  /    A nd           | Website:  www.openfoam.com                      |
|    \\/     M anipulation  |                                                 |
\*---------------------------------------------------------------------------*/
FoamFile
{
    version     2.0;
    format      ascii;
    arch        "LSB;label=32;scalar=64";
    class       volSymmTensorField;
    location    "350";
    object      turbulenceProperties:devReff;
}
// * * * * * * * * * * * * * * * * * * * * * * * * * * * * * * * * * * * * * //

dimensions      [0 2 -2 0 0 0 0];

internalField   nonuniform List<symmTensor> 
10720
(
(0.00163724 0.00425823 -9.49649e-22 -0.00177385 -2.23902e-20 0.000136609)
(0.00238869 0.00488053 -1.27823e-22 -0.00248664 1.4038e-19 9.79479e-05)
(0.00361133 0.00546118 -2.76442e-20 -0.00380858 -4.3503e-19 0.000197245)
(0.00524634 0.0062155 1.19077e-19 -0.00549234 8.78909e-19 0.000246005)
(0.00742554 0.00687408 -2.25936e-19 -0.00769421 -8.3431e-19 0.000268673)
(0.0104048 0.00726258 -1.72327e-19 -0.0107963 -4.50681e-19 0.000391471)
(0.0143001 0.00737527 3.26014e-19 -0.0147864 1.25261e-18 0.000486287)
(0.0191891 0.00685967 -8.31375e-19 -0.0197718 -2.26152e-18 0.000582637)
(0.025241 0.00535208 -2.06527e-19 -0.0259877 6.0448e-19 0.000746627)
(0.0325667 0.00260652 6.1381e-19 -0.0334672 1.25956e-18 0.000900511)
(0.041345 -0.00189801 1.57989e-18 -0.0424366 5.77738e-19 0.00109156)
(0.0519631 -0.00873442 -3.55262e-18 -0.053281 -3.29951e-18 0.00131791)
(0.0649622 -0.018823 6.72841e-19 -0.0665555 8.68453e-19 0.0015933)
(0.0812524 -0.0337512 2.68652e-18 -0.0832074 1.27319e-18 0.00195494)
(0.102375 -0.0561723 -4.07769e-18 -0.104841 -6.36989e-18 0.00246642)
(0.130539 -0.0904097 -4.36556e-18 -0.133714 -2.58524e-18 0.0031747)
(0.169896 -0.14507 1.92143e-17 -0.174203 1.77916e-17 0.00430697)
(0.224299 -0.232442 1.78592e-17 -0.23018 3.37942e-17 0.00588082)
(0.310966 -0.388923 -3.53914e-17 -0.319582 -5.48624e-17 0.00861599)
(0.426465 -0.641763 -1.37624e-18 -0.43864 1.45548e-17 0.0121749)
(0.66695 -1.21441 -2.72263e-17 -0.686348 5.20611e-17 0.0193978)
(0.945627 -2.11455 -1.2467e-17 -0.971741 4.18976e-17 0.0261141)
(1.7663 -5.1305 -1.43163e-16 -1.81844 -6.42356e-16 0.0521346)
(2.42857 -10.3112 3.3153e-16 -2.51186 5.59157e-16 0.0832948)
(1.52786 -11.6446 4.23948e-17 -1.56886 -7.1248e-16 0.0409993)
(0.526055 -11.2267 3.65739e-16 -0.514646 5.81244e-16 -0.0114086)
(-0.145934 -11.0441 -8.186e-17 0.175674 -7.84346e-17 -0.0297399)
(-0.664842 -11.228 2.74532e-16 0.689526 2.30574e-16 -0.0246835)
(-1.13605 -11.4419 7.29084e-16 1.15236 1.2087e-15 -0.0163144)
(-1.57141 -11.4539 4.00428e-16 1.57966 1.99803e-15 -0.00825393)
(-1.95751 -11.2389 -1.41144e-15 1.95573 -1.93184e-15 0.00177435)
(-2.27322 -10.8324 -4.74782e-16 2.26271 -7.26258e-16 0.0105104)
(-2.49331 -10.2192 -3.25824e-17 2.47836 -4.36828e-15 0.0149474)
(-2.60489 -9.41284 -2.58308e-15 2.58951 -7.30061e-15 0.0153738)
(-2.58904 -8.40489 1.00639e-15 2.57484 9.23301e-16 0.0142007)
(-2.43512 -7.22638 1.22258e-15 2.42411 1.14349e-15 0.0110119)
(-2.07379 -5.67276 -1.22399e-16 2.06035 -5.25072e-16 0.0134393)
(-1.58634 -4.17104 -1.51837e-15 1.58463 -2.44052e-17 0.00171134)
(-0.472465 -0.926411 -1.8863e-16 0.473256 -1.9029e-15 -0.000791644)
(0.000968094 0.0037134 2.39272e-21 -0.00101999 5.56027e-20 5.18979e-05)
(0.000549686 0.00319747 -3.57078e-21 -0.000639727 2.90494e-23 9.00405e-05)
(0.000179258 0.00261135 -1.95577e-20 -0.000226326 -1.37164e-19 4.70683e-05)
(-6.71519e-05 0.00208992 4.97071e-21 3.30197e-05 9.36145e-20 3.41322e-05)
(-0.000179346 0.00159705 3.92159e-21 0.000161053 -1.82631e-20 1.82932e-05)
(-0.000172701 0.00116731 -3.38485e-20 0.000173094 1.10813e-19 -3.92821e-07)
(-8.40976e-05 0.000835382 -2.02274e-19 0.0001082 1.62801e-19 -2.41026e-05)
(5.47094e-05 0.00063697 1.38531e-19 -1.70087e-05 -6.60742e-20 -3.77007e-05)
(0.000231282 0.000621221 2.26698e-19 -0.00020488 -1.14667e-19 -2.64013e-05)
(0.000471219 0.000742185 -1.54472e-19 -0.000467925 3.90516e-20 -3.29361e-06)
(0.000812252 0.00102671 -3.88374e-20 -0.000822896 1.83181e-19 1.06433e-05)
(0.00130626 0.00156628 2.49332e-19 -0.00132425 1.03727e-19 1.79829e-05)
(0.00202406 0.00252543 4.59461e-19 -0.00205422 -7.15352e-20 3.0164e-05)
(0.00305534 0.00413677 -8.12504e-21 -0.00310663 -2.58811e-19 5.12912e-05)
(0.00447267 0.00664407 -8.04753e-20 -0.00454761 -1.73495e-19 7.49355e-05)
(0.00629869 0.010337 2.68746e-20 -0.00640739 -5.81998e-20 0.000108705)
(0.00863848 0.015634 -1.97129e-19 -0.00878423 6.70131e-19 0.000145748)
(0.0117393 0.023423 7.42362e-19 -0.0119375 2.75967e-19 0.000198159)
(0.0161471 0.0354477 3.28015e-19 -0.0164154 -1.21852e-18 0.000268349)
(0.0226868 0.0549953 -1.32079e-18 -0.0230773 -3.46471e-19 0.000390508)
(0.0329384 0.0886108 -4.44061e-18 -0.0335292 -2.02935e-18 0.000590887)
(0.0490691 0.148517 -3.35491e-18 -0.0500484 -8.97287e-19 0.000979308)
(0.0756986 0.263734 6.22721e-18 -0.0774762 -5.78749e-19 0.00177763)
(0.116273 0.487734 -7.4661e-18 -0.119909 1.208e-18 0.00363623)
(0.183227 0.979369 4.06921e-18 -0.191073 -7.22456e-18 0.00784573)
(0.277922 2.01749 -1.26406e-16 -0.294296 2.61496e-18 0.0163741)
(0.410017 4.53234 -7.83185e-17 -0.448489 1.23002e-17 0.0384714)
(0.421141 9.36849 6.59216e-17 -0.501444 8.25803e-19 0.0803031)
(0.00812305 13.2915 8.69817e-18 -0.112264 -1.258e-19 0.104141)
(-0.628733 14.9595 6.28589e-17 0.530404 4.3957e-19 0.0983287)
(-1.26783 15.3983 -4.37174e-16 1.18558 -4.89702e-18 0.0822426)
(-1.8532 15.4182 1.57307e-16 1.78586 2.09264e-17 0.0673378)
(-2.37735 15.256 -1.88899e-15 2.32156 -1.53184e-16 0.055794)
(-2.83312 14.956 -3.45849e-15 2.78622 -2.37039e-16 0.0468999)
(-3.21852 14.5338 1.05844e-15 3.17819 1.08371e-16 0.0403278)
(-3.53761 14.0108 1.00947e-15 3.50234 1.62709e-16 0.0352638)
(-3.77526 13.2876 1.45052e-15 3.74317 2.66681e-16 0.0320885)
(-3.91948 12.4704 -2.90388e-16 3.88948 -3.67448e-17 0.0299972)
(-3.64019 10.0665 -4.55467e-15 3.63358 -7.84205e-16 0.00660812)
(0.00057944 -0.00046055 1.22811e-22 -0.000520055 4.00336e-21 -5.93853e-05)
(0.00049261 -0.000547374 2.90343e-20 -0.000425491 7.03559e-20 -6.71187e-05)
(0.000371412 -0.000622967 -2.69216e-20 -0.000291088 -4.74629e-20 -8.03238e-05)
(0.000250513 -0.000652196 -1.81351e-20 -0.000158581 -5.16568e-20 -9.19327e-05)
(0.000133144 -0.000645128 1.22273e-19 -3.25484e-05 2.37315e-19 -0.000100596)
(2.31371e-05 -0.000610498 4.76169e-20 8.61896e-05 7.38727e-20 -0.000109327)
(-6.02957e-05 -0.00055141 2.25816e-19 0.000177208 2.07454e-19 -0.000116912)
(-0.000116642 -0.000479016 -1.1671e-19 0.000238481 -2.24594e-20 -0.000121839)
(-0.000149305 -0.000404781 1.64901e-19 0.000274589 1.14265e-19 -0.000125284)
(-0.000158012 -0.000336006 -5.85682e-21 0.000285265 2.50001e-22 -0.000127253)
(-0.000150109 -0.00027831 -2.2301e-19 0.000277009 -1.90529e-19 -0.000126901)
(-0.000132663 -0.00023996 2.8718e-19 0.000258893 3.5751e-19 -0.00012623)
(-0.000110887 -0.000226136 1.76614e-19 0.000240758 8.87497e-20 -0.000129872)
(-8.62452e-05 -0.000245819 -3.68454e-20 0.000231121 1.99855e-20 -0.000144876)
(-4.85248e-05 -0.000344706 -2.26919e-19 0.000241494 3.7353e-20 -0.000192969)
(6.258e-05 -0.000658821 4.77496e-19 0.000258285 5.46421e-19 -0.000320865)
(0.000455638 -0.00154902 8.55587e-19 0.000141934 -9.35537e-19 -0.000597572)
(0.00150313 -0.00355072 -4.4203e-18 -0.000499883 -5.7295e-18 -0.00100325)
(0.00420537 -0.00867531 5.05727e-19 -0.00253792 7.4634e-18 -0.00166744)
(0.0104792 -0.0211421 7.36652e-18 -0.00789754 -2.06875e-18 -0.00258162)
(0.029554 -0.0626756 1.552e-17 -0.0251354 6.14998e-18 -0.00441854)
(0.074111 -0.174764 -2.35696e-17 -0.0678939 -2.25749e-17 -0.00621714)
(0.195605 -0.54656 7.43757e-17 -0.187801 1.87787e-16 -0.00780407)
(0.504628 -1.7842 1.57976e-19 -0.501903 -1.54746e-16 -0.0027246)
(0.748161 -3.5428 -2.72972e-16 -0.771938 1.69519e-16 0.0237771)
(0.789251 -5.38963 -9.70705e-17 -0.8436 -6.5956e-16 0.0543486)
(0.603583 -7.14647 1.18457e-18 -0.675351 7.56705e-17 0.0717682)
(0.204459 -8.39391 -2.94544e-16 -0.279864 -4.44895e-16 0.0754053)
(-0.295711 -8.63695 -4.93747e-16 0.229865 -2.8338e-15 0.0658457)
(-0.707439 -7.89845 -1.67038e-16 0.666368 -3.54818e-15 0.0410707)
(-0.93161 -6.69286 5.23065e-16 0.923318 4.89841e-15 0.00829283)
(-0.998601 -5.4789 -9.55422e-16 1.01682 -3.74473e-17 -0.0182206)
(-0.984667 -4.49902 -7.18954e-15 1.01449 1.34223e-15 -0.0298189)
(-0.931036 -3.75406 8.77312e-15 0.960682 1.59556e-14 -0.0296469)
(-0.863979 -3.18686 -1.48882e-15 0.887986 -8.64121e-16 -0.0240074)
(-0.781687 -2.74384 3.41059e-15 0.802169 -4.99161e-15 -0.0204826)
(-0.730953 -2.43255 -1.5036e-15 0.744323 1.5231e-15 -0.0133704)
(-0.560398 -2.13722 3.24911e-15 0.595692 4.02289e-16 -0.0352941)
(-0.787404 -2.25544 5.36248e-15 0.698427 7.29102e-15 0.088978)
(0.000645661 -0.000345031 9.37004e-21 -0.000595425 2.31798e-20 -5.02355e-05)
(0.000684433 -0.000224629 -1.27043e-20 -0.000637478 -9.60283e-20 -4.69548e-05)
(0.000691713 -7.64105e-05 -1.86434e-20 -0.000654682 -1.11231e-19 -3.70314e-05)
(0.000654267 8.66628e-05 -7.123e-21 -0.000627678 1.6531e-19 -2.65891e-05)
(0.000565099 0.000235292 1.92373e-21 -0.000550972 4.3463e-20 -1.41269e-05)
(0.0004293 0.000348905 3.78201e-20 -0.00042564 -1.45258e-19 -3.6597e-06)
(0.000271244 0.000405981 7.81803e-20 -0.000274657 -1.9605e-19 3.41226e-06)
(0.000131132 0.000406962 -3.17846e-19 -0.000140203 8.38779e-21 9.07182e-06)
(2.28833e-05 0.000374123 4.88713e-20 -3.33936e-05 2.16491e-19 1.05102e-05)
(-6.63056e-05 0.000316369 1.25252e-21 6.00783e-05 -1.29279e-19 6.22724e-06)
(-0.000121762 0.000243637 -8.32761e-20 0.00012318 -7.89562e-20 -1.41816e-06)
(-0.000141756 0.000176677 -6.00732e-20 0.000150076 -8.49844e-20 -8.32052e-06)
(-0.000139972 0.0001244 -1.12049e-20 0.000152777 1.86596e-20 -1.2805e-05)
(-0.000127569 8.66341e-05 3.75311e-20 0.000142838 1.00998e-19 -1.52686e-05)
(-0.000111045 6.08924e-05 6.47354e-20 0.000127503 2.50126e-20 -1.64575e-05)
(-9.41933e-05 4.4003e-05 -9.21256e-20 0.000110952 -4.70176e-21 -1.6759e-05)
(-7.86847e-05 3.3387e-05 8.27031e-20 9.51016e-05 8.54508e-21 -1.64169e-05)
(-6.53914e-05 2.68716e-05 -9.8478e-21 8.10455e-05 -2.88805e-20 -1.56541e-05)
(-5.4337e-05 2.2732e-05 -3.38101e-20 6.89952e-05 5.3792e-20 -1.46582e-05)
(-4.52872e-05 1.99618e-05 -2.57765e-20 5.89197e-05 2.8061e-20 -1.36326e-05)
(-3.79989e-05 1.79295e-05 -6.19979e-20 5.07317e-05 6.97546e-20 -1.27328e-05)
(-3.26734e-05 1.64667e-05 -8.7319e-20 4.49204e-05 4.53029e-20 -1.2247e-05)
(-2.91905e-05 1.55154e-05 -1.25797e-19 4.16899e-05 1.08373e-20 -1.24994e-05)
(-2.687e-05 1.54956e-05 5.61059e-20 4.05158e-05 5.32985e-21 -1.36458e-05)
(-2.46034e-05 1.72614e-05 -3.99436e-21 3.96874e-05 5.47836e-21 -1.5084e-05)
(-0.000235276 0.000213443 5.26616e-19 0.000404549 1.37791e-19 -0.000169273)
(-0.00119729 0.00135653 2.69619e-18 0.0021674 -1.9255e-19 -0.000970112)
(-0.00866774 0.0119922 1.08344e-18 0.0162486 -4.51642e-19 -0.00758081)
(-0.0262255 0.0459257 -7.5411e-19 0.0499563 1.03278e-19 -0.0237308)
(-0.0449434 0.102704 4.96422e-17 0.0849963 2.01499e-18 -0.040053)
(-0.0579698 0.170674 4.02638e-16 0.105295 9.72548e-18 -0.0473248)
(-0.0659749 0.23522 2.39526e-16 0.111228 1.3116e-17 -0.0452535)
(-0.0730158 0.28937 1.76242e-15 0.112018 1.20946e-16 -0.0390024)
(-0.0819867 0.334935 2.54468e-15 0.114738 1.69323e-16 -0.0327514)
(-0.094153 0.375375 -5.70565e-16 0.122122 -9.71875e-17 -0.0279693)
(-0.108445 0.415554 -4.94387e-16 0.1336 -8.65779e-17 -0.0251545)
(-0.128783 0.456182 -1.22516e-15 0.151572 -5.1512e-16 -0.0227885)
(-0.147318 0.552305 -2.52518e-15 0.174165 -3.44735e-18 -0.0268467)
(-0.207649 0.775737 -2.03912e-15 0.19745 1.35849e-15 0.0101997)
(0.000333681 -0.000312822 1.72562e-21 -0.000360071 2.38707e-21 2.639e-05)
(0.000258352 -0.000372297 -2.72956e-20 -0.000290228 -6.63229e-20 3.18755e-05)
(0.000160841 -0.00041357 -6.02122e-21 -0.000197968 -3.03221e-21 3.71273e-05)
(5.20597e-05 -0.000426376 2.27877e-20 -9.69365e-05 4.92253e-20 4.48768e-05)
(-5.44388e-05 -0.000413093 -7.20985e-20 3.55531e-06 -1.46648e-19 5.08835e-05)
(-0.000154803 -0.000372462 -8.20753e-20 9.79232e-05 -1.34518e-19 5.68802e-05)
(-0.000238964 -0.000308489 -1.6642e-19 0.000175452 -2.45985e-19 6.35119e-05)
(-0.000300019 -0.000230745 -1.34067e-20 0.000231146 -1.99256e-21 6.88732e-05)
(-0.000337786 -0.000145419 -7.30688e-20 0.000264319 -1.74019e-19 7.34666e-05)
(-0.000352985 -6.10995e-05 3.05795e-19 0.000275471 3.4798e-19 7.75134e-05)
(-0.000348672 1.65974e-05 -5.00783e-20 0.000268547 6.81134e-20 8.01244e-05)
(-0.000331396 8.39245e-05 3.41316e-20 0.000250358 2.10031e-20 8.1038e-05)
(-0.000307339 0.000139299 -2.33533e-19 0.000227524 -2.9723e-19 7.98151e-05)
(-0.000281397 0.000184882 1.50386e-19 0.00020417 -1.39613e-20 7.72275e-05)
(-0.000254109 0.000218812 4.36519e-20 0.000181623 1.35461e-19 7.24857e-05)
(-0.000223493 0.000237252 5.33224e-20 0.000158675 2.55923e-20 6.48177e-05)
(-0.000180043 0.000227926 -2.41563e-19 0.0001281 -1.40693e-19 5.19428e-05)
(-0.000148156 0.000217063 2.02446e-19 0.000106947 1.50908e-19 4.1209e-05)
(-9.77715e-05 0.000161434 4.84413e-20 7.25686e-05 6.34046e-22 2.52029e-05)
(-0.00015571 0.000280619 -3.6005e-19 0.000120451 -5.41728e-20 3.52587e-05)
(-7.24909e-05 0.000138862 2.10738e-19 5.90342e-05 -8.276e-20 1.34568e-05)
(-0.000126556 0.000250038 1.39332e-20 0.000110046 2.38858e-19 1.65099e-05)
(-1.02024e-05 1.15977e-05 4.53216e-20 1.08978e-05 -6.69344e-20 -6.9537e-07)
(0.00134087 -0.00499296 -2.43097e-18 -0.00108108 -2.59758e-18 -0.000259793)
(0.0122735 -0.0542623 4.48775e-18 -0.0104322 1.58483e-17 -0.00184128)
(0.0322686 -0.193778 -2.86139e-17 -0.0280916 7.83286e-18 -0.00417701)
(0.0536662 -0.494996 1.486e-17 -0.0475886 1.15517e-18 -0.00607761)
(0.0639271 -1.11484 -1.43142e-17 -0.0566836 7.64116e-17 -0.00724357)
(0.0252863 -2.20375 -4.40924e-16 -0.0184676 2.46556e-16 -0.00681871)
(-0.120234 -3.63661 2.17269e-16 0.12343 3.53622e-16 -0.00319611)
(-0.387815 -4.91882 1.56466e-15 0.382601 -5.87191e-16 0.00521384)
(-0.69242 -5.52741 -2.76593e-15 0.677985 2.16324e-15 0.0144351)
(-0.906082 -5.36951 5.1382e-16 0.890333 9.33039e-15 0.0157484)
(-0.983503 -4.7887 -4.86423e-17 0.975105 -6.36919e-15 0.00839756)
(-0.965172 -4.12938 3.05802e-15 0.9637 -2.30106e-15 0.00147249)
(-0.878736 -3.52457 -1.43351e-14 0.881718 5.1526e-16 -0.00298179)
(-0.798776 -3.05412 4.95871e-15 0.797856 -1.6257e-15 0.000920279)
(-0.531562 -2.55686 5.13652e-15 0.547655 -1.52185e-15 -0.0160924)
(-0.844096 -2.81508 -1.00214e-14 0.826091 2.90312e-15 0.0180051)
(0.000395294 -0.00023682 -3.54218e-21 -0.000419382 -6.74282e-21 2.40878e-05)
(0.0004356 -0.000154367 -1.3428e-20 -0.000454974 -1.90036e-20 1.93742e-05)
(0.000460056 -5.32913e-05 5.56839e-20 -0.000474986 1.20068e-19 1.49302e-05)
(0.000454772 5.43687e-05 1.14461e-20 -0.000464216 -1.35498e-20 9.44382e-06)
(0.000415698 0.000160459 7.89626e-21 -0.000421163 -8.89574e-20 5.46423e-06)
(0.000342138 0.000248046 -2.46509e-20 -0.00034412 6.37185e-20 1.98167e-06)
(0.000244212 0.00030301 7.45351e-20 -0.000243905 2.31064e-19 -3.06767e-07)
(0.000141072 0.000319911 1.56348e-19 -0.000141818 1.6786e-19 7.45971e-07)
(4.81465e-05 0.000309278 5.31607e-20 -4.96078e-05 -1.3353e-19 1.46132e-06)
(-2.83366e-05 0.000273942 1.18455e-19 2.7281e-05 7.01976e-20 1.05558e-06)
(-7.85645e-05 0.000221411 -8.35363e-20 7.72368e-05 2.14684e-20 1.32773e-06)
(-0.000102659 0.000166974 -1.20586e-20 0.000100153 7.06337e-20 2.50563e-06)
(-0.0001087 0.000119374 5.25425e-21 0.000104636 -6.3456e-20 4.06434e-06)
(-0.000104074 8.10121e-05 1.13347e-19 9.83176e-05 -7.97973e-20 5.75632e-06)
(-9.40438e-05 5.20589e-05 8.56577e-21 8.68715e-05 -1.25388e-20 7.17239e-06)
(-8.20402e-05 3.10495e-05 -1.2664e-20 7.36779e-05 5.23594e-20 8.36233e-06)
(-7.02339e-05 1.64106e-05 8.11307e-20 6.10127e-05 -9.58444e-20 9.22115e-06)
(-5.97419e-05 6.31919e-06 1.31944e-20 4.99009e-05 1.15885e-20 9.84092e-06)
(-5.10636e-05 -7.62408e-07 9.35606e-20 4.08733e-05 -6.54192e-21 1.01903e-05)
(-4.39388e-05 -6.08753e-06 1.00024e-19 3.34949e-05 2.2414e-20 1.04439e-05)
(-3.80791e-05 -1.04057e-05 2.55851e-19 2.7495e-05 -3.37957e-20 1.05841e-05)
(-3.29315e-05 -1.44554e-05 3.31044e-19 2.21579e-05 -5.00787e-20 1.07736e-05)
(-2.77617e-05 -1.86732e-05 1.96865e-19 1.66916e-05 1.70582e-20 1.10701e-05)
(-2.10909e-05 -2.2619e-05 4.53305e-20 9.23749e-06 -9.27133e-21 1.18535e-05)
(-1.29584e-05 -2.48029e-05 -4.86225e-20 -2.3376e-07 2.34867e-20 1.31921e-05)
(-4.81056e-06 -2.4089e-05 1.81521e-19 -9.43612e-06 -2.95003e-20 1.42467e-05)
(2.16796e-06 -2.25548e-05 -4.88544e-20 -1.80209e-05 -4.75568e-21 1.5853e-05)
(5.4747e-06 -1.38343e-05 -3.13949e-20 -1.76531e-05 6.47328e-22 1.21784e-05)
(5.62226e-05 -7.33573e-05 2.76079e-20 -0.000143635 -8.68752e-22 8.74122e-05)
(0.000480958 -0.000275676 -1.43998e-18 -0.00111242 -5.45153e-20 0.000631463)
(0.00145021 0.000425409 -8.64936e-18 -0.0032205 -7.92003e-20 0.0017703)
(0.00231347 0.00468891 -5.48314e-17 -0.00521468 -3.18032e-18 0.00290121)
(0.00185816 0.0154449 -1.34322e-16 -0.00506985 -4.43702e-18 0.00321169)
(-0.000686466 0.0342893 -3.34058e-16 -0.00190541 -2.28768e-17 0.00259187)
(-0.00552555 0.0608515 -8.55006e-16 0.00398049 -7.65288e-17 0.00154506)
(-0.011321 0.0929687 2.15844e-16 0.0108137 -1.73514e-17 0.000507311)
(-0.0190758 0.127605 -1.17297e-15 0.0190333 2.11059e-16 4.24681e-05)
(-0.00964296 0.154097 2.94728e-15 0.0104756 5.32906e-16 -0.000832595)
(-0.0374636 0.261188 4.63709e-15 0.0294833 9.50683e-16 0.00798033)
(0.000306284 -0.000258238 9.51594e-21 -0.000296877 1.62793e-20 -9.40727e-06)
(0.000259302 -0.000306095 -1.32548e-20 -0.000248913 -2.38943e-20 -1.03883e-05)
(0.000195911 -0.000347419 -6.02812e-21 -0.00018264 -3.32082e-21 -1.32713e-05)
(0.000125019 -0.000374224 7.16086e-20 -0.000109139 1.04799e-19 -1.58803e-05)
(5.17688e-05 -0.000382645 4.55075e-20 -3.28887e-05 8.24893e-20 -1.88802e-05)
(-2.12995e-05 -0.000372949 5.77211e-20 4.36771e-05 1.10849e-19 -2.23776e-05)
(-8.66846e-05 -0.000347091 8.81574e-20 0.000112601 1.01994e-19 -2.59161e-05)
(-0.000139545 -0.000308089 -5.05833e-20 0.000169001 -7.85545e-20 -2.9456e-05)
(-0.000178424 -0.000260565 -1.80922e-19 0.000211692 -1.79252e-19 -3.32678e-05)
(-0.000202012 -0.000209919 2.34928e-19 0.000238703 1.32303e-19 -3.66911e-05)
(-0.000211577 -0.000160035 1.97571e-19 0.000251488 1.67327e-19 -3.99104e-05)
(-0.000209291 -0.000114101 2.5571e-19 0.000251821 1.22497e-19 -4.25304e-05)
(-0.000197731 -7.42124e-05 -4.20859e-19 0.000241978 -1.34783e-19 -4.42467e-05)
(-0.000179867 -4.12302e-05 -3.5808e-19 0.000224688 -2.40543e-19 -4.48212e-05)
(-0.000157747 -1.50472e-05 4.73835e-19 0.00020222 1.49037e-19 -4.44726e-05)
(-0.000133072 7.47144e-06 9.57366e-20 0.000175226 5.89569e-20 -4.21545e-05)
(-0.000107597 2.66297e-05 -7.09841e-20 0.000145737 7.32635e-21 -3.81401e-05)
(-8.46192e-05 4.29478e-05 -2.29713e-19 0.000117607 -1.50499e-19 -3.29879e-05)
(-6.13994e-05 5.41506e-05 5.13005e-20 8.61836e-05 -1.9683e-20 -2.47841e-05)
(-4.61022e-05 6.27818e-05 2.14582e-19 6.32412e-05 6.62027e-20 -1.7139e-05)
(-3.83638e-05 7.14202e-05 -2.70715e-19 4.94145e-05 -7.78676e-20 -1.10507e-05)
(-4.0799e-05 9.487e-05 1.45414e-19 4.90911e-05 2.07721e-20 -8.29217e-06)
(-3.74499e-05 0.000112401 -4.38708e-20 4.352e-05 -9.51252e-21 -6.07009e-06)
(-0.000264181 0.00120195 -9.33199e-19 0.000315221 4.57665e-19 -5.104e-05)
(-0.000611013 0.00658328 3.65571e-18 0.000890695 -1.16677e-18 -0.000279683)
(3.84455e-06 9.69166e-05 -5.63554e-20 6.09134e-07 7.47776e-20 -4.45369e-06)
(0.000233344 0.00120859 1.03695e-20 -0.000167359 -2.39037e-20 -6.59847e-05)
(0.0010544 0.0014402 1.9484e-18 -0.000882877 -6.91773e-19 -0.000171521)
(0.00476754 -0.011625 7.08068e-18 -0.00420189 1.79197e-17 -0.000565647)
(0.010123 -0.110329 2.72686e-17 -0.00886303 -1.23445e-16 -0.00125998)
(-0.000387734 -0.47986 -6.66248e-17 0.00258486 -3.97232e-16 -0.00219713)
(-0.0769947 -1.3009 2.07886e-15 0.0796941 5.52064e-16 -0.00269936)
(-0.263851 -2.42615 2.97175e-15 0.264712 6.7285e-16 -0.000860491)
(-0.514515 -3.34608 -1.64369e-15 0.511089 -2.23489e-15 0.00342535)
(-0.715846 -3.72411 -7.33483e-15 0.709884 1.42226e-15 0.00596203)
(-0.793125 -3.65162 4.8486e-15 0.790598 4.88804e-15 0.00252753)
(-0.801471 -3.4216 -1.01692e-14 0.796787 -1.30343e-16 0.00468311)
(-0.573985 -3.02004 -1.30279e-14 0.584345 1.88178e-15 -0.0103597)
(-0.814862 -3.21319 9.21265e-15 0.786519 -3.43376e-15 0.0283427)
(0.000342229 -0.000198513 -1.46077e-20 -0.000335901 -2.97437e-20 -6.32775e-06)
(0.000364718 -0.000135343 -5.02311e-21 -0.000359232 2.0302e-20 -5.48647e-06)
(0.000373321 -5.72538e-05 4.83504e-20 -0.000370631 9.21932e-20 -2.68924e-06)
(0.000363938 2.51488e-05 -2.06927e-20 -0.000362617 -1.16435e-21 -1.3214e-06)
(0.000332422 0.000105536 1.80253e-20 -0.000332523 1.14224e-19 1.01081e-07)
(0.000278561 0.000174401 -6.26875e-21 -0.000278842 -1.11051e-19 2.8012e-07)
(0.000208885 0.000222873 5.97634e-20 -0.000208629 -1.54977e-21 -2.56297e-07)
(0.000134101 0.000246334 -1.4749e-19 -0.000134131 -8.91368e-20 2.95572e-08)
(6.20917e-05 0.000246785 -8.0589e-20 -6.28965e-05 6.96651e-21 8.04784e-07)
(-4.7625e-07 0.000226462 1.33619e-19 -6.67674e-07 6.03096e-20 1.14392e-06)
(-4.60075e-05 0.00019209 6.23718e-20 4.50167e-05 -5.11739e-21 9.90758e-07)
(-7.36428e-05 0.000153533 7.38468e-20 7.31287e-05 -4.55948e-20 5.14165e-07)
(-8.69229e-05 0.000117337 -1.14034e-19 8.71742e-05 -7.47543e-20 -2.51252e-07)
(-9.02492e-05 8.63964e-05 -1.41383e-19 9.13685e-05 2.66871e-20 -1.11926e-06)
(-8.73204e-05 6.17638e-05 1.29031e-20 8.93387e-05 3.73751e-20 -2.01827e-06)
(-8.10751e-05 4.30113e-05 4.37238e-20 8.39e-05 -1.30123e-20 -2.82495e-06)
(-7.35834e-05 2.93021e-05 -1.07377e-19 7.71374e-05 -8.50434e-21 -3.55409e-06)
(-6.61123e-05 1.94561e-05 -4.12565e-21 7.02678e-05 -1.71005e-20 -4.15554e-06)
(-5.93564e-05 1.23065e-05 -4.12364e-20 6.40056e-05 -8.07285e-21 -4.64915e-06)
(-5.34517e-05 6.79743e-06 8.66487e-20 5.84365e-05 -4.99206e-20 -4.98479e-06)
(-4.83422e-05 2.25391e-06 -9.43787e-20 5.3591e-05 -3.27969e-20 -5.24876e-06)
(-4.37589e-05 -1.90598e-06 -1.96267e-19 4.92019e-05 -2.31731e-20 -5.443e-06)
(-3.92319e-05 -6.01992e-06 8.88696e-21 4.48492e-05 -2.97523e-20 -5.61729e-06)
(-3.4048e-05 -9.84551e-06 5.0312e-20 3.9779e-05 -2.86305e-20 -5.73097e-06)
(-2.84139e-05 -1.22474e-05 1.52478e-19 3.44237e-05 -1.06381e-20 -6.00981e-06)
(-2.34551e-05 -1.2999e-05 -1.42857e-19 3.00703e-05 -8.27696e-21 -6.61519e-06)
(-1.95447e-05 -1.28642e-05 -2.45767e-20 2.6844e-05 7.64558e-21 -7.29935e-06)
(-1.65195e-05 -1.2353e-05 1.4786e-20 2.44674e-05 1.29396e-21 -7.94788e-06)
(-1.36846e-05 -1.14343e-05 -6.83162e-21 2.18802e-05 -2.74788e-22 -8.19557e-06)
(-1.08694e-05 -1.01994e-05 -9.94566e-21 1.871e-05 4.84274e-22 -7.84056e-06)
(-7.46524e-06 -8.18863e-06 -1.60162e-20 1.38358e-05 -8.45151e-22 -6.37057e-06)
(-4.21163e-06 -5.75603e-06 4.61137e-20 8.6188e-06 1.33037e-21 -4.40717e-06)
(-3.03374e-05 -5.73232e-05 2.01195e-18 7.7381e-05 1.30868e-19 -4.70436e-05)
(-6.24015e-07 -4.61272e-05 1.88031e-17 0.000110344 1.74894e-18 -0.00010972)
(0.000235663 0.000599965 7.85103e-17 -0.000134686 1.03433e-17 -0.000100977)
(0.000879935 0.00332862 -1.72846e-16 -0.00093608 -2.64033e-17 5.61452e-05)
(0.00157559 0.0112345 7.43761e-16 -0.0020553 1.09988e-16 0.000479704)
(0.0067229 0.0279193 -4.86384e-16 -0.00721284 -1.68336e-16 0.000489937)
(-0.00282866 0.104508 -3.29671e-16 -0.00195206 -1.41043e-15 0.00478071)
(0.000222633 -0.00019614 -1.35348e-20 -0.000225648 -2.01615e-20 3.01541e-06)
(0.000184148 -0.000231628 2.65869e-21 -0.000188511 4.2365e-21 4.3628e-06)
(0.000134443 -0.000261256 1.61107e-20 -0.000139278 1.74972e-20 4.83474e-06)
(7.7991e-05 -0.000279195 -9.89668e-20 -8.41554e-05 -1.40671e-19 6.16439e-06)
(1.89249e-05 -0.000283327 -7.24493e-20 -2.64756e-05 -8.47341e-20 7.55064e-06)
(-4.04513e-05 -0.000273077 1.69309e-19 3.16214e-05 2.02674e-19 8.82996e-06)
(-9.48393e-05 -0.000249164 -1.79758e-19 8.42747e-05 -2.23216e-19 1.05646e-05)
(-0.000140356 -0.000213793 -8.12642e-20 0.000127937 -5.40604e-20 1.24194e-05)
(-0.00017475 -0.000169939 -1.9319e-19 0.000160487 -1.4457e-19 1.42631e-05)
(-0.000196685 -0.000121816 -3.59991e-20 0.000180323 -6.55065e-20 1.63618e-05)
(-0.000206286 -7.28681e-05 2.41763e-20 0.000187828 -8.72395e-21 1.84574e-05)
(-0.00020471 -2.62592e-05 -1.32281e-19 0.000184168 -1.75443e-19 2.05423e-05)
(-0.000193979 1.54501e-05 4.30651e-19 0.000171453 2.94952e-19 2.2526e-05)
(-0.000176468 5.07416e-05 -1.41752e-19 0.000152272 -2.479e-20 2.41954e-05)
(-0.000154508 7.94377e-05 -3.47397e-19 0.000128939 -1.51913e-19 2.5569e-05)
(-0.000130527 0.000100455 2.30341e-19 0.000104589 4.60998e-21 2.59381e-05)
(-0.000106123 0.000113125 -1.67343e-19 8.1312e-05 -9.65197e-20 2.48106e-05)
(-8.18123e-05 0.000118096 2.28726e-21 5.91275e-05 1.22272e-19 2.26848e-05)
(-5.91054e-05 0.000116976 -3.99253e-20 3.92139e-05 -3.13666e-20 1.98915e-05)
(-3.82932e-05 0.000108234 -2.78122e-19 2.21233e-05 -1.92158e-19 1.61699e-05)
(-2.24518e-05 9.58622e-05 2.006e-19 1.04587e-05 1.9474e-19 1.1993e-05)
(-1.08738e-05 7.07714e-05 3.70141e-21 4.14463e-06 -1.14127e-19 6.72913e-06)
(-6.77462e-06 6.98753e-05 3.84162e-20 2.14124e-06 1.17546e-20 4.63338e-06)
(-2.53057e-06 7.98639e-05 1.11648e-19 -1.20866e-06 -5.00159e-21 3.73922e-06)
(3.76455e-06 8.70208e-05 -3.76464e-20 -6.74169e-06 -1.19907e-20 2.97714e-06)
(9.47043e-06 8.92636e-05 1.26798e-19 -1.15644e-05 2.02495e-20 2.09396e-06)
(2.80735e-05 0.000196115 -1.52309e-20 -3.07571e-05 3.47812e-22 2.68361e-06)
(0.000265555 0.00162404 -2.58234e-19 -0.000276188 -1.59814e-19 1.06331e-05)
(0.00149852 0.00802013 2.625e-20 -0.00151174 2.06927e-18 1.32149e-05)
(0.000947015 0.00415933 -1.21234e-17 -0.000938456 1.00096e-18 -8.55872e-06)
(0.00278136 0.00876001 -1.11109e-17 -0.0027346 1.85787e-18 -4.67608e-05)
(0.0106404 0.0120697 2.79074e-17 -0.0104112 -1.62873e-16 -0.000229209)
(0.0187433 -0.0987535 5.76821e-16 -0.0179119 -7.07746e-16 -0.000831399)
(-0.0257201 -0.585074 -2.98483e-15 0.0277132 1.59109e-16 -0.00199314)
(-0.182395 -1.49135 4.83697e-15 0.184212 1.81722e-15 -0.0018171)
(-0.401001 -2.40069 -9.6088e-16 0.401711 4.22701e-16 -0.0007095)
(-0.586269 -2.96517 -1.7508e-15 0.5823 3.98636e-15 0.00396863)
(-0.525636 -3.0868 6.73204e-16 0.536266 2.44226e-16 -0.0106297)
(-0.773492 -3.40303 -1.72622e-14 0.735992 4.3129e-15 0.0374998)
(0.00025311 -0.000152917 8.63738e-21 -0.000256267 3.53153e-21 3.15703e-06)
(0.000274185 -0.000106586 -3.12483e-20 -0.000275957 -4.49349e-20 1.77208e-06)
(0.000285728 -4.96713e-05 3.99099e-21 -0.000287345 2.03321e-20 1.61766e-06)
(0.000283472 1.1765e-05 1.70402e-20 -0.000284296 -5.6855e-20 8.24297e-07)
(0.000264485 7.30867e-05 -1.38572e-19 -0.000265063 -1.99271e-19 5.77453e-07)
(0.000228066 0.000127519 -1.23134e-19 -0.000228074 9.48251e-20 8.5304e-09)
(0.000178338 0.000168589 1.98756e-19 -0.000178013 1.03197e-19 -3.24896e-07)
(0.000122707 0.000192328 -6.43085e-20 -0.000122588 -1.86811e-19 -1.18961e-07)
(6.67791e-05 0.000198833 -8.7821e-20 -6.69589e-05 2.49295e-20 1.79795e-07)
(1.59967e-05 0.000188957 -5.98874e-20 -1.63377e-05 -1.03996e-19 3.40969e-07)
(-2.3638e-05 0.000167063 2.09766e-20 2.33336e-05 3.16665e-20 3.04366e-07)
(-5.04703e-05 0.00013941 -3.93054e-20 5.01921e-05 -5.14083e-20 2.78169e-07)
(-6.58576e-05 0.00011099 -8.11774e-20 6.55262e-05 1.09213e-19 3.31413e-07)
(-7.23431e-05 8.47966e-05 8.61021e-20 7.18766e-05 5.05213e-20 4.66551e-07)
(-7.25486e-05 6.2437e-05 7.31685e-20 7.18747e-05 -3.36512e-20 6.73928e-07)
(-6.8898e-05 4.43342e-05 -1.50338e-20 6.79434e-05 -3.01154e-20 9.54638e-07)
(-6.3242e-05 3.02722e-05 4.36825e-20 6.19788e-05 9.73086e-21 1.26321e-06)
(-5.6928e-05 1.95735e-05 -6.47122e-20 5.53465e-05 1.65349e-20 1.58151e-06)
(-5.07703e-05 1.14619e-05 4.58158e-20 4.88937e-05 -1.20435e-21 1.87662e-06)
(-4.51137e-05 5.13769e-06 -6.03065e-20 4.29614e-05 -2.81658e-20 2.15226e-06)
(-4.00233e-05 -2.33394e-08 5.81794e-20 3.7645e-05 4.8641e-21 2.37828e-06)
(-3.53181e-05 -4.52268e-06 7.79906e-20 3.275e-05 1.70627e-20 2.56814e-06)
(-3.06275e-05 -8.65188e-06 -5.44194e-21 2.79084e-05 7.15699e-21 2.71907e-06)
(-2.53524e-05 -1.22552e-05 -1.46134e-19 2.24325e-05 6.83669e-23 2.91989e-06)
(-1.95039e-05 -1.4549e-05 -5.43771e-20 1.63518e-05 -2.32231e-20 3.15211e-06)
(-1.3917e-05 -1.52693e-05 -1.60214e-20 1.05765e-05 2.46935e-20 3.34045e-06)
(-9.03252e-06 -1.50173e-05 5.92781e-20 5.38613e-06 7.36557e-22 3.64639e-06)
(-4.81693e-06 -1.41939e-05 2.13757e-21 7.46481e-07 -4.87067e-22 4.07045e-06)
(-1.23719e-06 -1.31318e-05 -3.35566e-21 -3.32264e-06 2.86779e-22 4.55983e-06)
(1.63618e-06 -1.12954e-05 3.75534e-20 -6.35293e-06 1.7362e-22 4.71675e-06)
(4.36801e-06 -1.17999e-05 3.32639e-20 -1.00241e-05 1.07538e-21 5.65608e-06)
(3.2302e-06 -5.83868e-06 -8.99617e-20 -6.13173e-06 -4.97804e-21 2.90153e-06)
(1.18596e-05 -1.72138e-05 -7.62732e-19 -1.98358e-05 -5.91611e-20 7.97619e-06)
(8.60184e-05 -0.000108002 -1.05714e-18 -0.000127914 -1.29158e-19 4.18956e-05)
(0.000243486 -0.000265448 2.05501e-18 -0.000322286 2.19813e-20 7.88002e-05)
(0.000248934 -0.000202647 -3.86275e-18 -0.000288998 1.59052e-18 4.00642e-05)
(0.000435153 -0.000155755 -2.12939e-17 -0.000470294 -1.773e-17 3.51405e-05)
(0.00088167 0.000200196 5.27085e-17 -0.000861241 3.76374e-18 -2.04282e-05)
(0.00384137 0.0197261 -2.90836e-16 -0.00521566 5.23246e-17 0.00137428)
(0.000184131 -0.00016102 1.18696e-20 -0.000183021 1.37888e-20 -1.10978e-06)
(0.000155878 -0.000189727 -2.98492e-20 -0.000154871 -3.5879e-20 -1.00733e-06)
(0.000118627 -0.000214954 -2.41046e-21 -0.00011702 -4.98731e-21 -1.60687e-06)
(7.60872e-05 -0.0002324 -1.2441e-20 -7.41964e-05 -6.48704e-21 -1.89081e-06)
(3.10342e-05 -0.000239981 9.86382e-20 -2.87629e-05 1.13522e-19 -2.2713e-06)
(-1.54548e-05 -0.000237326 7.56374e-20 1.84329e-05 6.24069e-20 -2.97816e-06)
(-5.93452e-05 -0.000224517 9.61108e-22 6.29637e-05 3.05e-20 -3.61854e-06)
(-9.76972e-05 -0.000202638 1.87634e-19 0.000102089 1.81809e-19 -4.39226e-06)
(-0.000128799 -0.000173561 -2.34325e-20 0.000134185 -3.12913e-21 -5.38523e-06)