/*--------------------------------*- C++ -*----------------------------------*\
| =========                 |                                                 |
| \\      /  F ield         | OpenFOAM: The Open Source CFD Toolbox           |
|  \\    /   O peration     | Version:  2506                                  |
|   \\  /    A nd           | Website:  www.openfoam.com                      |
|    \\/     M anipulation  |                                                 |
\*---------------------------------------------------------------------------*/
FoamFile
{
    version     2.0;
    format      ascii;
    arch        "LSB;label=32;scalar=64";
    class       volSymmTensorField;
    location    "350";
    object      turbulenceProperties:R;
}
// * * * * * * * * * * * * * * * * * * * * * * * * * * * * * * * * * * * * * //

dimensions      [0 2 -2 0 0 0 0];

internalField   nonuniform List<symmTensor> 
10720
(
(0.0144999 0.00306912 -6.84459e-22 0.0120414 -1.61377e-20 0.0134183)
(0.017288 0.00364611 -9.54933e-23 0.0136458 1.04874e-19 0.0155767)
(0.0210803 0.00423464 -2.14355e-20 0.0153269 -3.37325e-19 0.018433)
(0.0262524 0.00499649 9.57233e-20 0.0176199 7.06534e-19 0.0222328)
(0.0326242 0.00571512 -1.87844e-19 0.0200536 -6.93646e-19 0.0266739)
(0.0409569 0.0062255 -1.47719e-19 0.0227833 -3.86325e-19 0.0323735)
(0.0517366 0.00649579 2.87138e-19 0.0261185 1.10324e-18 0.03957)
(0.0651959 0.0061816 -7.49194e-19 0.0300863 -2.03797e-18 0.0484286)
(0.0821961 0.00491689 -1.89733e-19 0.035133 5.55328e-19 0.0596934)
(0.103577 0.00243316 5.72986e-19 0.0419346 1.17579e-18 0.0740165)
(0.130623 -0.00179555 1.4946e-18 0.0513643 5.46549e-19 0.0925427)
(0.165479 -0.00835591 -3.39866e-18 0.0647957 -3.15653e-18 0.117029)
(0.211104 -0.0181769 6.49745e-19 0.0841003 8.38643e-19 0.14991)
(0.272371 -0.032851 2.61486e-18 0.112298 1.23923e-18 0.195189)
(0.357576 -0.0550377 -3.99533e-18 0.154546 -6.24123e-18 0.259686)
(0.479536 -0.0890682 -4.30078e-18 0.219204 -2.54688e-18 0.354061)
(0.663335 -0.143552 1.90133e-17 0.322836 1.76055e-17 0.499479)
(0.940255 -0.230788 1.77321e-17 0.489009 3.35537e-17 0.72339)
(1.41754 -0.387177 -3.52325e-17 0.789825 -5.46161e-17 1.11655)
(2.14082 -0.63998 -1.37241e-18 1.27812 1.45143e-17 1.72768)
(3.75152 -1.21265 -2.71869e-17 2.40018 5.19858e-17 3.10491)
(6.10094 -2.11289 -1.24572e-17 4.18508 4.18647e-17 5.18215)
(13.8403 -5.12899 -1.4312e-16 10.2566 -6.42167e-16 12.1266)
(25.9888 -10.3098 3.31487e-16 21.0491 5.59084e-16 23.6439)
(27.6299 -11.6434 4.23902e-17 24.5335 -7.12404e-16 26.1432)
(25.4984 -11.2255 3.657e-16 24.4578 5.81183e-16 24.961)
(24.3968 -11.043 -8.18515e-17 24.7184 -7.84264e-17 24.513)
(24.3294 -11.2269 2.74504e-16 25.6836 2.30551e-16 24.9695)
(24.4148 -11.4408 7.29013e-16 26.703 1.20858e-15 25.5345)
(24.1191 -11.4528 4.0039e-16 27.2699 1.99784e-15 25.6821)
(23.3913 -11.2379 -1.41131e-15 27.3042 -1.93166e-15 25.3504)
(22.3186 -10.8314 -4.74736e-16 26.8541 -7.26188e-16 24.6021)
(20.8762 -10.2182 -3.25792e-17 25.8473 -4.36785e-15 23.3842)
(19.0923 -9.41187 -2.58282e-15 24.2861 -7.29986e-15 21.7123)
(16.9481 -8.40398 1.00628e-15 22.1115 9.23202e-16 19.5511)
(14.5052 -7.22554 1.22244e-15 19.3639 1.14335e-15 16.9511)
(11.3418 -5.67204 -1.22384e-16 15.4754 -5.25005e-16 13.4288)
(8.32848 -4.17043 -1.51815e-15 11.499 -2.44016e-17 9.91629)
(1.83835 -0.926133 -1.88573e-16 2.78378 -1.90233e-15 2.30988)
(0.0120311 0.00257377 1.6584e-21 0.0106531 3.85384e-20 0.0113961)
(0.0101317 0.00212469 -2.37275e-21 0.00934133 1.9303e-23 0.00982625)
(0.0080838 0.00164687 -1.23342e-20 0.00782802 -8.65031e-20 0.00800043)
(0.00638645 0.00123983 2.94886e-21 0.00644588 5.55365e-20 0.00644654)
(0.00486415 0.000879302 2.15914e-21 0.00505156 -1.00552e-20 0.00497296)
(0.00355296 0.000586794 -1.70152e-20 0.00372678 5.57044e-20 0.00363957)
(0.00253037 0.000377524 -9.1411e-20 0.00261727 7.35726e-20 0.00255748)
(0.00194586 0.000261444 5.68601e-20 0.00191643 -2.71201e-20 0.00190793)
(0.00211334 0.00027794 1.01427e-19 0.00191819 -5.13029e-20 0.00199805)
(0.00295754 0.000385202 -8.01727e-20 0.00247011 2.02682e-20 0.00271126)
(0.00451396 0.00062377 -2.35954e-20 0.00352054 1.1129e-19 0.00402695)
(0.00693461 0.00109487 1.7429e-19 0.00509581 7.25077e-20 0.00603407)
(0.0105111 0.00197129 3.58644e-19 0.00732765 -5.58386e-20 0.00895467)
(0.0156716 0.00349492 -6.86438e-21 0.0104657 -2.18654e-19 0.0131336)
(0.0229277 0.00591702 -7.16689e-20 0.0148945 -1.54509e-19 0.0190112)
(0.0330159 0.009529 2.4774e-20 0.0213029 -5.36507e-20 0.0273097)
(0.0472566 0.0147515 -1.86003e-19 0.0308173 6.32307e-19 0.0392433)
(0.0681553 0.0224719 7.12217e-19 0.04544 2.64761e-19 0.0570828)
(0.100392 0.0344331 3.18626e-19 0.0687619 -1.18364e-18 0.0849681)
(0.152274 0.0539207 -1.29498e-18 0.107404 -3.39701e-19 0.130414)
(0.240255 0.0874794 -4.38392e-18 0.174636 -2.00344e-18 0.208321)
(0.393887 0.147331 -3.32811e-18 0.295561 -8.9012e-19 0.346181)
(0.682802 0.262494 6.19794e-18 0.530347 -5.76029e-19 0.609229)
(1.22826 0.486444 -7.44634e-18 0.992698 1.2048e-18 1.11592)
(2.39587 0.978034 4.06366e-18 2.02208 -7.21471e-18 2.22073)
(4.80315 2.01612 -1.2632e-16 4.23132 2.61318e-18 4.54178)
(10.5245 4.53095 -7.82944e-17 9.66629 1.22964e-17 10.1531)
(21.2638 9.36708 6.59116e-17 20.3413 8.25678e-19 20.923)
(29.544 13.2901 8.69724e-18 29.4237 -1.25786e-19 29.64)
(32.638 14.958 6.28529e-17 33.797 4.39528e-19 33.3649)
(33.0571 15.3969 -4.37133e-16 35.5102 -4.89657e-18 34.407)
(32.645 15.4168 1.57293e-16 36.2838 2.09245e-17 34.5654)
(31.9222 15.2547 -1.88882e-15 36.6207 -1.5317e-16 34.3552)
(30.9813 14.9546 -3.45818e-15 36.6001 -2.37017e-16 33.861)
(29.8492 14.5325 1.05834e-15 36.2453 1.08361e-16 33.1077)
(28.5625 14.0094 1.00937e-15 35.6018 1.62693e-16 32.135)
(26.9093 13.2863 1.45038e-15 34.427 2.66656e-16 30.7163)
(25.1167 12.4691 -2.90359e-16 32.9249 -3.67412e-17 29.0658)
(20.1428 10.0654 -4.55417e-15 27.4157 -7.84121e-16 23.7892)
(0.00226712 -0.000155255 4.14007e-23 0.00189647 1.34957e-21 0.00205177)
(0.0022241 -0.000181978 9.65261e-21 0.00191887 2.33902e-20 0.00203802)
(0.00215867 -0.000204459 -8.83571e-21 0.00194123 -1.55774e-20 0.00201041)
(0.00205935 -0.000211725 -5.88727e-21 0.00192654 -1.67696e-20 0.00194818)
(0.00192977 -0.00020676 3.91877e-20 0.00187667 7.6058e-20 0.00185486)
(0.00178986 -0.000193313 1.50778e-20 0.00180982 2.33917e-20 0.00174791)
(0.00164017 -0.000173017 7.08546e-20 0.0017147 6.50931e-20 0.00162241)
(0.00148398 -0.000149086 -3.63242e-20 0.0015945 -6.99012e-21 0.00148236)
(0.00133655 -0.000125537 5.11418e-20 0.00146802 3.54377e-20 0.001344)
(0.00119893 -0.000104532 -1.82206e-21 0.00133683 7.77757e-23 0.0012085)
(0.00107269 -8.69456e-05 -6.96696e-20 0.00120613 -5.95223e-20 0.00107994)
(0.000987055 -7.80287e-05 9.33834e-20 0.00111438 1.16253e-19 0.000989147)
(0.000976272 -8.37283e-05 6.53923e-20 0.00110647 3.28601e-20 0.000969242)
(0.00107593 -0.000114042 -1.70935e-20 0.00122316 9.27179e-21 0.00104873)
(0.00141274 -0.000214214 -1.41017e-19 0.00159297 2.32126e-20 0.00132298)
(0.00229597 -0.000518099 3.75504e-19 0.00244988 4.29707e-19 0.00199443)
(0.00462406 -0.00138407 7.6448e-19 0.00434376 -8.35916e-19 0.003683)
(0.0101323 -0.00334524 -4.16448e-18 0.00824524 -5.39792e-18 0.007771)
(0.0249872 -0.00840849 4.90172e-19 0.0184513 7.23385e-18 0.019295)
(0.0614402 -0.0207886 7.24332e-18 0.0433709 -2.03415e-18 0.0485979)
(0.180872 -0.0622049 1.54034e-17 0.126593 6.10379e-18 0.147154)
(0.492081 -0.174149 -2.34866e-17 0.350576 -2.24954e-17 0.412036)
(1.48091 -0.545793 7.42713e-17 1.09804 1.87523e-16 1.27778)
(4.62198 -1.78333 1.57899e-19 3.61594 -1.5467e-16 4.11487)
(8.79835 -3.54191 -2.72903e-16 7.27864 1.69476e-16 8.07415)
(12.9022 -5.38878 -9.70551e-17 11.2696 -6.59455e-16 12.1674)
(16.5481 -7.14569 1.18444e-18 15.2693 7.56623e-17 16.0163)
(18.8655 -8.39323 -2.9452e-16 18.3812 -4.44859e-16 18.7365)
(18.9064 -8.63637 -4.93714e-16 19.4319 -2.83361e-15 19.2679)
(16.9104 -7.89796 -1.67027e-16 18.2841 -3.54796e-15 17.6589)
(14.0827 -6.69246 5.23034e-16 15.9375 4.89811e-15 15.0226)
(11.3804 -5.47857 -9.55366e-16 13.3957 -3.74451e-17 12.3608)
(9.25688 -4.49875 -7.18911e-15 11.2559 1.34215e-15 10.2117)
(7.67213 -3.75383 8.77259e-15 9.56374 1.59546e-14 8.57347)
(6.48063 -3.18666 -1.48872e-15 8.23248 -8.64067e-16 7.32055)
(5.56463 -2.74367 3.41037e-15 7.14839 -4.99128e-15 6.32579)
(4.91762 -2.43239 -1.5035e-15 6.3928 1.523e-15 5.63516)
(4.36072 -2.13706 3.24888e-15 5.51672 4.0226e-16 4.88578)
(4.49759 -2.25528 5.3621e-15 5.98332 7.2905e-15 5.37391)
(0.00227294 -0.000117574 3.19295e-21 0.00185003 7.89881e-21 0.00203581)
(0.00226162 -7.76425e-05 -4.3912e-21 0.00180471 -3.31919e-20 0.00200882)
(0.00221007 -2.67248e-05 -6.5206e-21 0.00173916 -3.89034e-20 0.00195518)
(0.00211616 3.07866e-05 -2.53042e-21 0.00166076 5.87257e-20 0.00187429)
(0.00197227 8.48889e-05 6.94044e-22 0.00156961 1.56806e-20 0.00176329)
(0.00177357 0.000127798 1.38529e-20 0.00146042 -5.32057e-20 0.00161499)
(0.00153869 0.000150825 2.90446e-20 0.00133588 -7.28341e-20 0.00143918)
(0.0013142 0.000152955 -1.19461e-19 0.00121222 3.15251e-21 0.00126832)
(0.00111354 0.000139697 1.82485e-20 0.00109253 8.08373e-20 0.00110892)
(0.000921943 0.00011636 4.60673e-22 0.000968427 -4.75485e-20 0.000948621)
(0.000751511 8.77056e-05 -2.99782e-20 0.000839687 -2.84231e-20 0.000794833)
(0.000614989 6.18798e-05 -2.10402e-20 0.000717201 -2.97652e-20 0.000661724)
(0.000506786 4.21472e-05 -3.79627e-21 0.00060597 6.32196e-21 0.00054987)
(0.000418999 2.82139e-05 1.22227e-20 0.000507062 3.2892e-20 0.000455572)
(0.000346719 1.88853e-05 2.00772e-20 0.000420703 7.75748e-21 0.000376055)
(0.000286786 1.28389e-05 -2.68799e-20 0.000346642 -1.37185e-21 0.000309379)
(0.00023637 8.97544e-06 2.22331e-20 0.000283089 2.29718e-21 0.00025311)
(0.000193789 6.45629e-06 -2.36608e-21 0.000228972 -6.93896e-21 0.000205739)
(0.000156384 4.61643e-06 -6.86617e-21 0.00018143 1.09241e-20 0.000164442)
(0.000121922 3.10721e-06 -4.01231e-21 0.000138143 4.36792e-21 0.000126849)
(8.72589e-05 1.73897e-06 -6.01315e-21 9.58649e-05 6.76547e-21 8.97095e-05)
(5.24488e-05 6.64553e-07 -3.52396e-21 5.55803e-05 1.8283e-21 5.32732e-05)
(1.84808e-05 8.34905e-08 -6.76928e-22 1.88622e-05 5.83168e-23 1.85706e-05)
(3.03597e-06 2.27628e-09 8.24187e-24 3.04586e-06 7.82946e-25 3.03791e-06)
(7.7181e-06 1.60132e-08 -3.70552e-24 7.77775e-06 5.08222e-24 7.72693e-06)
(0.000851069 0.000192861 4.75835e-19 0.0014292 1.24504e-19 0.000910708)
(0.00451747 0.00133186 2.64715e-18 0.00782096 -1.89048e-19 0.00474051)
(0.0372338 0.0119634 1.08084e-18 0.0620903 -4.50558e-19 0.0383181)
(0.128079 0.0458931 -7.53577e-19 0.204207 1.03204e-19 0.130572)
(0.25623 0.102668 4.96249e-17 0.386124 2.01429e-18 0.261118)
(0.390987 0.170635 4.02546e-16 0.554214 9.72326e-18 0.401629)
(0.512507 0.235178 2.39482e-16 0.689678 1.31136e-17 0.533224)
(0.6144 0.289323 1.76213e-15 0.799404 1.20926e-16 0.648408)
(0.701284 0.334884 2.5443e-15 0.897979 1.69297e-16 0.750511)
(0.778816 0.37532 -5.70481e-16 0.995059 -9.71732e-17 0.84499)
(0.856898 0.415494 -4.94316e-16 1.09891 -8.65655e-17 0.940177)
(0.934322 0.456118 -1.22499e-15 1.21464 -5.15048e-16 1.0403)
(1.13393 0.552232 -2.52485e-15 1.45537 -3.4469e-18 1.25438)
(1.57413 0.775638 -2.03886e-15 1.97918 1.35831e-15 1.79195)
(0.00151787 -0.000120508 6.64761e-22 0.00125062 9.19568e-22 0.0013995)
(0.00147805 -0.000143663 -1.05329e-20 0.00126636 -2.55929e-20 0.00139066)
(0.00140945 -0.00015987 -2.32757e-21 0.00127074 -1.17213e-21 0.00136162)
(0.00131993 -0.00016513 8.82539e-21 0.00126223 1.90643e-20 0.00131715)
(0.00122897 -0.000160353 -2.79869e-20 0.00125148 -5.69252e-20 0.00126985)
(0.00113523 -0.00014495 -3.1941e-20 0.00123358 -5.235e-20 0.00121761)
(0.001047 -0.000120402 -6.49529e-20 0.00120875 -9.6007e-20 0.00116506)
(0.000973158 -9.03624e-05 -5.25022e-21 0.00118117 -7.80308e-22 0.00111762)
(0.000915165 -5.71725e-05 -2.87275e-20 0.00115189 -6.84167e-20 0.00107685)
(0.000875443 -2.41316e-05 1.20775e-19 0.00112366 1.37437e-19 0.00104547)
(0.00085078 6.5905e-06 -1.9885e-20 0.00109587 2.70464e-20 0.00102105)
(0.000842081 3.35426e-05 1.36416e-20 0.00107459 8.39443e-21 0.00100692)
(0.000846843 5.60679e-05 -9.39976e-20 0.00106213 -1.19636e-19 0.00100267)
(0.000864211 7.53557e-05 6.12954e-20 0.00106212 -5.69046e-21 0.00101038)
(0.000878288 8.92864e-05 1.78122e-20 0.00105609 5.52748e-20 0.00101156)
(0.000863936 9.31616e-05 2.09381e-20 0.001014 1.00493e-20 0.000977147)
(0.000751115 7.3335e-05 -7.77226e-20 0.00085026 -4.52676e-20 0.000825756)
(0.00064662 5.6326e-05 5.2533e-20 0.000712817 3.91594e-20 0.000695758)
(1.24296e-05 2.05152e-08 6.15596e-24 1.24512e-05 8.05751e-26 1.24452e-05)
(0.000897786 0.00012731 -1.63345e-19 0.00102307 -2.45768e-20 0.000984423)
(0.000214469 8.31738e-06 1.26226e-20 0.000222347 -4.95707e-21 0.000219617)
(0.00075139 0.000165065 9.19814e-21 0.000907585 1.57684e-19 0.000845836)
(2.88354e-05 1.34218e-06 5.24499e-21 3.12773e-05 -7.74619e-21 2.99357e-05)
(0.0125812 -0.00490519 -2.38823e-18 0.0102019 -2.55192e-18 0.0110087)
(0.135168 -0.0540812 4.47277e-18 0.112539 1.57954e-17 0.121101)
(0.467682 -0.193522 -2.85761e-17 0.407401 7.82251e-18 0.431284)
(1.15884 -0.49468 1.48505e-17 1.05765 1.15444e-18 1.09914)
(2.54427 -1.11448 -1.43096e-17 2.4237 7.6387e-17 2.47312)
(4.92194 -2.20337 -4.40847e-16 4.8782 2.46513e-16 4.88984)
(7.96482 -3.63622 2.17245e-16 8.20846 3.53584e-16 8.08184)
(10.5756 -4.91845 1.56454e-15 11.3459 -5.87147e-16 10.9686)
(11.6841 -5.52707 -2.76576e-15 13.0544 2.1631e-15 12.3909)
(11.1915 -5.36922 5.13792e-16 12.9878 9.32989e-15 12.1132)
(9.87784 -4.78846 -4.86398e-17 11.8363 -6.36886e-15 10.8697)
(8.45776 -4.12917 3.05787e-15 10.3865 -2.30095e-15 9.42436)
(7.19385 -3.5244 -1.43344e-14 8.95422 5.15235e-16 8.06957)
(6.21588 -3.05397 4.95848e-15 7.81244 -1.62562e-15 7.01554)
(5.2755 -2.55674 5.13626e-15 6.35466 -1.52178e-15 5.79094)
(5.6811 -2.81495 -1.0021e-14 7.35121 2.90298e-15 6.54316)
(0.00155223 -9.11111e-05 -1.36277e-21 0.0012388 -2.59415e-21 0.00140942)
(0.00156571 -5.92777e-05 -5.15643e-21 0.00122373 -7.29751e-21 0.00140588)
(0.00157114 -2.04347e-05 2.13522e-20 0.0012126 4.60405e-20 0.00140046)
(0.00154391 2.08032e-05 4.37964e-21 0.00119228 -5.18458e-21 0.00137351)
(0.00148461 6.12831e-05 3.01577e-21 0.00116499 -3.3975e-20 0.00132793)
(0.0013823 9.45459e-05 -9.39599e-21 0.00112072 2.42871e-20 0.00125264)
(0.00124283 0.00011529 2.83593e-20 0.00105711 8.79159e-20 0.0011498)
(0.00108706 0.000121548 5.94034e-20 0.00097958 6.37772e-20 0.00103375)
(0.000943543 0.000117565 2.02078e-20 0.000906384 -5.07583e-20 0.000925797)
(0.000803128 0.00010429 4.50961e-20 0.000824302 2.67243e-20 0.000814318)
(0.00066416 8.44578e-05 -3.18652e-20 0.000723591 8.18919e-21 0.000694635)
(0.000538875 6.38459e-05 -4.61083e-21 0.000616424 2.70081e-20 0.000579086)
(0.000432642 4.57784e-05 2.01493e-21 0.000514454 -2.43345e-20 0.000475886)
(0.000344889 3.1168e-05 4.36081e-20 0.000422756 -3.07006e-20 0.000387144)
(0.00027481 2.01015e-05 3.30751e-21 0.000344667 -4.84163e-21 0.000313893)
(0.000219741 1.2037e-05 -4.90946e-21 0.000280108 2.02981e-20 0.000254787)
(0.000177766 6.39042e-06 3.15929e-20 0.000228875 -3.73226e-20 0.000208707)
(0.00014651 2.47326e-06 5.16412e-21 0.000189423 4.5356e-21 0.000173744)
(0.00012417 -3.0019e-07 3.68384e-20 0.000160369 -2.57581e-21 0.000148288)
(0.000108454 -2.41415e-06 3.96668e-20 0.000139162 8.8888e-21 0.000130021)
(9.79634e-05 -4.16405e-06 1.02385e-19 0.000124204 -1.35241e-20 0.000117437)
(9.16543e-05 -5.8505e-06 1.33982e-19 0.00011395 -2.02682e-20 0.000109343)
(8.90496e-05 -7.67623e-06 8.09276e-20 0.000107324 7.01232e-21 0.000105013)
(8.91799e-05 -9.44822e-06 1.8935e-20 0.000101848 -3.87274e-21 0.000102941)
(9.23379e-05 -1.05778e-05 -2.07362e-20 9.77646e-05 1.00165e-20 0.00010349)
(9.52427e-05 -1.00485e-05 7.57196e-20 9.33132e-05 -1.23058e-20 0.000103192)
(0.00010435 -9.47759e-06 -2.05288e-20 9.5867e-05 -1.99835e-21 0.000110101)
(6.26106e-05 -2.75312e-06 -6.24781e-21 5.8008e-05 1.28823e-22 6.39447e-05)
(0.000473963 -6.55253e-05 2.46604e-20 0.000295443 -7.76e-22 0.000501822)
(0.00325891 -0.000272231 -1.42198e-18 0.00168545 -5.38341e-20 0.00340754)
(0.0093344 0.000424004 -8.62078e-18 0.00467912 -7.89387e-20 0.00965343)
(0.0187829 0.0046827 -5.47588e-17 0.0112647 -3.17611e-18 0.0193698)
(0.0385987 0.015434 -1.34228e-16 0.0316756 -4.43391e-18 0.0399513)
(0.0759782 0.034274 -3.33909e-16 0.0747598 -2.28666e-17 0.0792551)
(0.130168 0.060832 -8.54731e-16 0.139671 -7.65043e-17 0.137236)
(0.196692 0.0929453 2.1579e-16 0.218821 -1.73471e-17 0.208517)
(0.267577 0.127578 -1.17272e-15 0.305678 2.11014e-16 0.286692)
(0.333473 0.154068 2.94673e-15 0.353587 5.32807e-16 0.342281)
(0.548219 0.261147 4.63636e-15 0.615155 9.50532e-16 0.593656)
(0.00128855 -9.77037e-05 3.60034e-21 0.00106035 6.15924e-21 0.00116911)
(0.00127318 -0.000115782 -5.0137e-21 0.00108094 -9.03813e-21 0.00117117)
(0.00124329 -0.000131405 -2.28003e-21 0.00110011 -1.25604e-21 0.00116417)
(0.00120674 -0.000141549 2.70857e-20 0.00111818 3.964e-20 0.00115345)
(0.00115895 -0.000144748 1.72147e-20 0.00112693 3.12042e-20 0.00113223)
(0.0011014 -0.000141118 2.18408e-20 0.00112599 4.19435e-20 0.00110099)
(0.00103938 -0.0001314 3.33741e-20 0.00111482 3.86122e-20 0.00106238)
(0.000972793 -0.000116715 -1.91627e-20 0.00108968 -2.97591e-20 0.0010145)
(0.000904816 -9.88117e-05 -6.86094e-20 0.00105276 -6.79764e-20 0.000959862)
(0.000836953 -7.97156e-05 8.92129e-20 0.00100431 5.02415e-20 0.000899733)
(0.000769945 -6.08832e-05 7.5163e-20 0.000946112 6.3657e-20 0.000835253)
(0.000703908 -4.35111e-05 9.75116e-20 0.000879748 4.67128e-20 0.0007675)
(0.000638528 -2.83865e-05 -1.6098e-19 0.000806718 -5.1555e-20 0.000697236)
(0.000573931 -1.58318e-05 -1.37498e-19 0.000729274 -9.23651e-20 0.000625786)
(0.000509988 -5.80732e-06 1.82872e-19 0.000648913 5.75194e-20 0.000553705)
(0.000443446 2.89868e-06 3.71428e-20 0.000563056 2.28734e-20 0.000478719)
(0.00037773 1.02118e-05 -2.72205e-20 0.000474877 2.80945e-21 0.000404365)
(0.000322598 1.59289e-05 -8.51982e-20 0.000397602 -5.58183e-20 0.000341747)
(0.00025328 1.57597e-05 1.49303e-20 0.000296232 -5.72845e-21 0.000263937)
(0.000187455 1.05529e-05 3.60689e-20 0.000205835 1.1128e-20 0.000192324)
(4.54551e-05 5.88045e-07 -2.22896e-21 4.61778e-05 -6.4113e-22 4.568e-05)
(8.29662e-05 1.72125e-06 2.63828e-21 8.45971e-05 3.76874e-22 8.3556e-05)
(1.06699e-05 2.54657e-08 -9.9394e-24 1.06883e-05 -2.15516e-24 1.0677e-05)
(0.00262353 0.00108529 -8.42626e-19 0.0031467 4.13246e-19 0.00281599)
(0.013934 0.0064795 3.59808e-18 0.0154121 -1.14838e-18 0.0142601)
(0.000217256 1.60975e-05 -9.36046e-21 0.000216718 1.24203e-20 0.000215877)
(0.00288879 0.00115638 9.92149e-21 0.0025054 -2.2871e-20 0.00260239)
(0.00489713 0.00142336 1.92563e-18 0.00298249 -6.83687e-19 0.00368554)
(0.0324428 -0.0115971 7.06371e-18 0.0234949 1.78768e-17 0.0271224)
(0.256053 -0.110248 2.72487e-17 0.237081 -1.23355e-16 0.244678)
(1.0657 -0.479726 -6.66061e-17 1.06867 -3.97121e-16 1.06389)
(2.81877 -1.30072 2.07857e-15 2.97543 5.51988e-16 2.89305)
(5.15906 -2.42595 2.9715e-15 5.68758 6.72793e-16 5.42203)
(7.0076 -3.34587 -1.64359e-15 8.03314 -2.23475e-15 7.52551)
(7.70983 -3.72392 -7.33445e-15 9.13549 1.42218e-15 8.4316)
(7.50984 -3.65145 4.84838e-15 9.09349 4.88782e-15 8.30546)
(7.00642 -3.42145 -1.01688e-14 8.60461 -1.30337e-16 7.81254)
(6.25933 -3.01991 -1.30273e-14 7.41761 1.8817e-15 6.82293)
(6.54427 -3.21307 9.21229e-15 8.14559 -3.43363e-15 7.38744)
(0.00128958 -7.51121e-05 -5.52716e-21 0.00103299 -1.12543e-20 0.00115769)
(0.00127906 -5.12227e-05 -1.90107e-21 0.00100507 7.68361e-21 0.00113895)
(0.00125245 -2.16754e-05 1.83048e-20 0.000970797 3.4903e-20 0.00111009)
(0.00121289 9.52309e-06 -7.83568e-21 0.000937767 -4.40905e-22 0.00107458)
(0.00115583 3.99786e-05 6.82827e-21 0.000903939 4.32699e-20 0.00102994)
(0.0010763 6.60798e-05 -2.3752e-21 0.000865104 -4.20765e-20 0.000970862)
(0.00098085 8.44566e-05 2.26471e-20 0.000822635 -5.87278e-22 0.000901597)
(0.000879026 9.3356e-05 -5.58961e-20 0.000777371 -3.37812e-20 0.000828215)
(0.000775214 9.35066e-05 -3.05351e-20 0.000727856 2.63961e-21 0.000751993)
(0.000668468 8.57828e-05 5.06144e-20 0.000668395 2.2845e-20 0.000669082)
(0.000565397 7.2737e-05 2.36177e-20 0.000599864 -1.93775e-21 0.000583194)
(0.000474473 5.81148e-05 2.79522e-20 0.000530028 -1.72584e-20 0.000502542)
(0.000398365 4.43982e-05 -4.31484e-20 0.000464241 -2.82857e-20 0.00043116)
(0.000335847 3.26794e-05 -5.34781e-20 0.000404544 1.00944e-20 0.00036956)
(0.000285203 2.33542e-05 4.87895e-21 0.000352002 1.41323e-20 0.000317458)
(0.000244169 1.62577e-05 1.6527e-20 0.000306527 -4.91847e-21 0.000273746)
(0.000211307 1.10716e-05 -4.05717e-20 0.000268256 -3.21332e-21 0.000237767)
(0.000185061 7.34837e-06 -1.55822e-21 0.000236571 -6.45868e-21 0.000208462)
(0.000164285 4.64561e-06 -1.55665e-20 0.000210854 -3.04745e-21 0.000184937)
(0.000147528 2.56465e-06 3.26923e-20 0.000189743 -1.88349e-20 0.000165814)
(0.000134021 8.49925e-07 -3.55892e-20 0.000172459 -1.23673e-20 0.000150271)
(0.000122792 -7.18298e-07 -7.39665e-20 0.000157826 -8.73315e-21 0.000137232)
(0.000112889 -2.26711e-06 3.34684e-21 0.000144554 -1.12048e-20 0.000125548)
(0.000102631 -3.70544e-06 1.89353e-20 0.000130416 -1.07753e-20 0.000113288)
(9.22024e-05 -4.60618e-06 5.73462e-20 0.000115835 -4.00094e-21 0.000100628)
(8.36297e-05 -4.89003e-06 -5.37408e-20 0.000103765 -3.11367e-21 8.99647e-05)
(7.72219e-05 -4.83568e-06 -9.23845e-21 9.46596e-05 2.87399e-21 8.1825e-05)
(7.26561e-05 -4.67199e-06 5.59217e-21 8.81577e-05 4.89387e-22 7.5898e-05)
(6.69042e-05 -4.2874e-06 -2.56159e-21 8.02396e-05 -1.03035e-22 6.89623e-05)
(5.91207e-05 -3.80577e-06 -3.7111e-21 7.01579e-05 1.80701e-22 6.02509e-05)
(4.49107e-05 -2.80468e-06 -5.48569e-21 5.22065e-05 -2.89471e-22 4.52857e-05)
(2.86671e-05 -1.69149e-06 1.35511e-20 3.24374e-05 3.90946e-22 2.86096e-05)
(0.000200069 -5.48975e-05 1.92681e-18 0.000303229 1.2533e-19 0.00018407)
(0.000395016 -4.56899e-05 1.86249e-17 0.000504932 1.73236e-18 0.000286955)
(0.00166554 0.000597998 7.8253e-17 0.0012964 1.03094e-17 0.00133)
(0.00853703 0.00332379 -1.72595e-16 0.00672365 -2.6365e-17 0.00771443)
(0.0268951 0.011226 7.43195e-16 0.0232669 1.09904e-16 0.0258)
(0.0706572 0.0279065 -4.86161e-16 0.0567279 -1.68259e-16 0.0644271)
(0.2299 0.104481 -3.29587e-16 0.230776 -1.41007e-15 0.237507)
(0.000964205 -7.4399e-05 -5.13396e-21 0.000794165 -7.64757e-21 0.000880901)
(0.00094805 -8.7865e-05 1.00854e-21 0.000806686 1.60706e-21 0.00087985)
(0.000922348 -9.91068e-05 6.11156e-21 0.000818512 6.63751e-21 0.000873181)
(0.000888702 -0.000105921 -3.75462e-20 0.000827186 -5.33681e-20 0.000861452)
(0.00084738 -0.000107506 -2.74903e-20 0.000830153 -3.21516e-20 0.000843064)
(0.000799194 -0.000103638 6.42555e-20 0.000826547 7.69182e-20 0.000817897)
(0.000747518 -9.45874e-05 -6.82396e-20 0.000815513 -8.47373e-20 0.000787531)
(0.000694354 -8.11893e-05 -3.08607e-20 0.000796241 -2.05298e-20 0.000752372)
(0.000641667 -6.45664e-05 -7.34002e-20 0.000769036 -5.49276e-20 0.00071348)
(0.000592388 -4.63116e-05 -1.3686e-20 0.000735717 -2.4904e-20 0.000673383)
(0.000547826 -2.77253e-05 9.19877e-21 0.000697781 -3.31934e-21 0.000633338)
(0.000509161 -1.00019e-05 -5.03846e-20 0.000657281 -6.68248e-20 0.000594958)
(0.000477391 5.89305e-06 1.6426e-19 0.000616776 1.12502e-19 0.000559971)
(0.000452682 1.93885e-05 -5.41639e-20 0.000578295 -9.47233e-21 0.000529356)
(0.000434939 3.04272e-05 -1.33064e-19 0.000543508 -5.81875e-20 0.000503914)
(0.000422132 3.85845e-05 8.84733e-20 0.000512439 1.77068e-21 0.000482229)
(0.000408334 4.36367e-05 -6.45503e-20 0.000480634 -3.72313e-20 0.000458839)
(0.000388518 4.561e-05 8.83366e-22 0.00044295 4.7223e-20 0.000428876)
(0.000364109 4.54691e-05 -1.55191e-20 0.000402326 -1.21923e-20 0.000394816)
(0.000323957 4.03966e-05 -1.03804e-19 0.000346506 -7.17198e-20 0.000344284)
(0.000275271 3.19831e-05 6.69274e-20 0.000286251 6.49723e-20 0.000286763)
(0.000129167 7.27942e-06 3.8072e-22 0.000130711 -1.17389e-20 0.000130977)
(1.59008e-05 1.01996e-07 5.60757e-23 1.59138e-05 1.7158e-23 1.59174e-05)
(3.19238e-06 3.62167e-09 5.06301e-24 3.19244e-06 -2.26812e-25 3.19266e-06)
(0 0 -0 0 -0 0)
(1.092e-05 3.75134e-08 5.32876e-23 1.09111e-05 8.50993e-24 1.09169e-05)
(0.000628256 0.000106958 -8.30672e-21 0.000596171 1.89692e-22 0.000614409)
(0.00384269 0.00153569 -2.44186e-19 0.00333041 -1.5112e-19 0.00360163)
(0.0194298 0.00793531 2.59724e-20 0.0164514 2.04738e-18 0.0179602)
(0.0102517 0.00408512 -1.19071e-17 0.00839986 9.83099e-19 0.00931317)
(0.0230543 0.00870817 -1.10452e-17 0.017571 1.84688e-18 0.020243)
(0.0461795 0.0120548 2.78728e-17 0.0251541 -1.62671e-16 0.0353234)
(0.241878 -0.0987201 5.76626e-16 0.205236 -7.07507e-16 0.22231)
(1.27564 -0.584992 -2.98441e-15 1.32906 1.59086e-16 1.29936)
(3.15641 -1.49123 4.83658e-15 3.52299 1.81707e-15 3.33697)
(5.00763 -2.40056 -9.60825e-16 5.81029 4.22677e-16 5.4079)
(6.12945 -2.96504 -1.75072e-15 7.29796 3.98617e-15 6.71966)
(6.43448 -3.08667 6.73177e-16 7.49634 2.44216e-16 6.94947)
(6.97332 -3.40291 -1.72616e-14 8.48275 4.31275e-15 7.78428)
(0.000973494 -5.80039e-05 3.2763e-21 0.000780279 1.33957e-21 0.000878683)
(0.000975255 -4.04242e-05 -1.18513e-20 0.000766606 -1.70422e-20 0.000871938)
(0.000967277 -1.88399e-05 1.51375e-21 0.000749916 7.71179e-21 0.000859517)
(0.000946634 4.46189e-06 6.46249e-21 0.000731308 -2.15623e-20 0.00083944)
(0.00091154 2.77206e-05 -5.25581e-20 0.000710691 -7.55802e-20 0.000811444)
(0.000858184 4.83601e-05 -4.66972e-20 0.000685198 3.59612e-20 0.000771696)
(0.000792007 6.39216e-05 7.53596e-20 0.000656895 3.91278e-20 0.000724266)
(0.00072012 7.29084e-05 -2.43783e-20 0.000627132 -7.08168e-20 0.000673558)
(0.000644769 7.53659e-05 -3.32879e-20 0.000594077 9.44933e-21 0.000619525)
(0.000566079 7.16208e-05 -2.26993e-20 0.000553823 -3.9418e-20 0.000560145)
(0.000489217 6.33222e-05 7.95079e-21 0.000507021 1.20026e-20 0.000498292)
(0.000418546 5.28406e-05 -1.48979e-20 0.0004567 -1.94852e-20 0.000437781)
(0.000355893 4.20699e-05 -3.07696e-20 0.000405693 4.13964e-20 0.000380981)
(0.000301286 3.21432e-05 3.26381e-20 0.000355954 1.91507e-20 0.000328885)
(0.000254415 2.36698e-05 2.77381e-20 0.000309166 -1.27572e-20 0.000282174)
(0.000214679 1.68092e-05 -5.70001e-21 0.000266562 -1.14182e-20 0.000241163)
(0.000181476 1.14794e-05 1.65647e-20 0.000228961 3.69001e-21 0.000205937)
(0.000154131 7.42381e-06 -2.45439e-20 0.000196714 6.27131e-21 0.000176322)
(0.000131991 4.3482e-06 1.73808e-20 0.0001698 -4.56884e-22 0.000151963)
(0.000114183 1.94953e-06 -2.28838e-20 0.000147604 -1.06877e-20 0.000132119)
(0.000100003 -8.85881e-09 2.20828e-20 0.000129483 1.84624e-21 0.000116097)
(8.865e-05 -1.71718e-06 2.96115e-20 0.000114494 6.47839e-21 0.000103035)
(7.93343e-05 -3.2861e-06 -2.06692e-21 0.000101567 2.71832e-21 9.19998e-05)
(7.07526e-05 -4.65649e-06 -5.55249e-20 8.89089e-05 2.59766e-23 8.14949e-05)
(6.22262e-05 -5.5308e-06 -2.06714e-20 7.58568e-05 -8.82825e-21 7.08389e-05)
(5.44171e-05 -5.80714e-06 -6.09317e-21 6.37323e-05 9.39129e-21 6.09803e-05)
(4.83898e-05 -5.71891e-06 2.25744e-20 5.38807e-05 2.80497e-22 5.32182e-05)
(4.4558e-05 -5.39428e-06 8.12366e-22 4.66724e-05 -1.85106e-22 4.79356e-05)
(4.35204e-05 -5.06198e-06 -1.29352e-21 4.27165e-05 1.10546e-22 4.5755e-05)
(4.12559e-05 -4.09869e-06 1.36268e-20 3.83569e-05 6.30002e-23 4.23737e-05)
(5.17086e-05 -5.49268e-06 1.54839e-20 4.50093e-05 5.00573e-22 5.23082e-05)
(1.19166e-05 -3.21069e-07 -4.947e-21 1.14018e-05 -2.73743e-22 1.18985e-05)
(8.48587e-05 -1.23762e-05 -5.48381e-19 6.20706e-05 -4.2535e-20 8.20666e-05)
(0.000439144 -0.000103772 -1.01574e-18 0.00023359 -1.24099e-19 0.000396749)
(0.00112972 -0.000261852 2.02718e-18 0.000571608 2.16835e-20 0.000967261)
(0.000995708 -0.000199857 -3.80957e-18 0.000465183 1.56862e-18 0.000789714)
(0.00149359 -0.000154508 -2.11235e-17 0.000595391 -1.75881e-17 0.00109678)
(0.00285257 0.000198983 5.23892e-17 0.00112021 3.74094e-18 0.00195593)
(0.0490143 0.0197117 -2.90624e-16 0.0399639 5.22865e-17 0.046549)
(0.000790907 -6.10394e-05 4.49952e-21 0.000651727 5.22704e-21 0.000720686)
(0.000783261 -7.19198e-05 -1.13149e-20 0.000665465 -1.36007e-20 0.00072379)
(0.000768871 -8.14852e-05 -9.13761e-22 0.000679541 -1.8906e-21 0.000723292)
(0.000750159 -8.81007e-05 -4.71628e-21 0.000693188 -2.45918e-21 0.000720598)
(0.000725987 -9.09758e-05 3.73933e-20 0.000703318 4.30358e-20 0.000713361)
(0.000696888 -8.99728e-05 2.86749e-20 0.000709735 2.36591e-20 0.000701618)
(0.000664865 -8.51219e-05 3.64389e-22 0.000711236 1.15636e-20 0.000685993)
(0.000630425 -7.68331e-05 7.11441e-20 0.000706177 6.89353e-20 0.000665803)
(0.000594659 -6.58161e-05 -8.88583e-21 0.000694385 -1.1866e-21 0.000641459)
(0.000558784 -5.31307e-05 -2.45736e-20 0.000675803 -1.15386e-20 0.00061364)
(0.000523184 -3.97216e-05 4.8272e-20 0.00065059 1.80142e-20 0.00058256)
(0.000488376 -2.6496e-05 -6.49883e-20 0.000619642 -2.51876e-20 0.000548942)
(0.000454751 -1.42773e-05 -1.14722e-19 0.000584146 -8.96785e-20 0.000513614)
(0.000422346 -3.55551e-06 -4.79323e-20 0.000545274 1.23553e-20 0.000477169)
(0.000391166 5.36889e-06 2.06905e-19 0.000504258 9.34447e-20 0.000440276)
(0.000359905 1.2283e-05 -1.49588e-19 0.000460639 -6.8182e-20 0.000402113)
(0.000326217 1.7612e-05 -3.59805e-20 0.000412312 3.12022e-20 0.000360954)
(0.000291867 2.13315e-05 6.73174e-20 0.000362137 4.38786e-20 0.000319048)
(0.000259701 2.36425e-05 -4.25142e-20 0.000314297 -3.45296e-22 0.000279817)
(0.00023207 2.48776e-05 -1.4029e-20 0.000272392 3.51234e-20 0.000246063)
(0.000214779 2.65694e-05 2.08097e-20 0.000243716 -1.33677e-20 0.000224007)
(0.00018706 2.34509e-05 -1.39295e-19 0.000202191 1.34827e-20 0.000191141)
(0.00015598 1.73788e-05 1.00542e-21 0.000160127 -1.68737e-20 0.000156321)
(4.11808e-05 1.22403e-06 -4.89799e-21 4.10155e-05 4.92687e-22 4.10279e-05)
(7.22742e-06 3.62959e-08 3.9272e-23 7.21117e-06 1.15046e-23 7.21805e-06)
(3.33018e-06 7.50249e-09 -2.61581e-24 3.32518e-06 -1.10249e-23 3.32746e-06)
(6.93052e-07 3.21039e-10 -2.38455e-26 6.92809e-07 -2.23223e-27 6.92921e-07)
(0 0 0 0 0 0)
(0 0 0 0 -0 0)
(0.00149215 0.000504859 5.4304e-19 0.00116681 8.74915e-19 0.00132498)