/*--------------------------------*- C++ -*----------------------------------*\
| =========                 |                                                 |
| \\      /  F ield         | OpenFOAM: The Open Source CFD Toolbox           |
|  \\    /   O peration     | Version:  2506                                  |
|   \\  /    A nd           | Website:  www.openfoam.com                      |
|    \\/     M anipulation  |                                                 |
\*---------------------------------------------------------------------------*/
FoamFile
{
    version     2.0;
    format      ascii;
    arch        "LSB;label=32;scalar=64";
    class       volVectorField;
    location    "350";
    object      U;
}
// * * * * * * * * * * * * * * * * * * * * * * * * * * * * * * * * * * * * * //

dimensions      [0 1 -1 0 0 0 0];

internalField   nonuniform List<vector> 
10720
(
(0.227127 27.6483 6.7471e-18)
(1.96444 29.9445 -5.62297e-17)
(4.13732 32.1629 2.12858e-16)
(6.63505 33.8958 -4.10351e-16)
(9.39121 35.2259 3.14677e-16)
(12.3375 36.1113 2.00377e-16)
(15.3191 36.4534 -3.61661e-16)
(18.24 36.2869 1.24244e-15)
(21.0154 35.6766 -8.39368e-16)
(23.5622 34.6574 -5.80922e-16)
(25.8437 33.3245 3.00306e-16)
(27.813 31.7269 1.67799e-15)
(29.4232 29.8614 6.52313e-16)
(30.6578 27.7682 5.97823e-16)
(31.474 25.4624 1.43025e-15)
(31.8437 22.9751 1.24027e-15)
(31.6966 20.3077 -2.529e-15)
(30.9552 17.4965 -8.97302e-15)
(29.4852 14.5538 6.681e-15)
(27.1587 11.544 -3.12748e-16)
(23.835 8.53146 -1.30847e-15)
(19.564 5.67659 -2.42374e-15)
(14.8868 3.22758 8.2727e-15)
(11.4379 1.43989 -2.14953e-15)
(10.0545 0.260003 1.47898e-15)
(10.6944 -0.359603 -3.16034e-15)
(12.1165 -0.599629 1.89382e-16)
(13.6248 -0.719377 -1.37271e-15)
(14.8678 -0.870747 -5.45219e-15)
(15.6902 -1.08606 -7.68194e-15)
(16.1229 -1.34636 7.72336e-15)
(16.2604 -1.61986 2.69387e-15)
(16.0598 -1.86573 1.10783e-15)
(15.5535 -2.06039 3.71576e-14)
(14.7244 -2.17946 -5.57802e-15)
(13.5758 -2.20836 -5.02612e-16)
(11.7298 -2.06516 8.64046e-16)
(9.7304 -1.81411 2.14876e-15)
(3.626 -1.08758 1.55578e-14)
(-1.14295 25.1978 7.66518e-18)
(-2.2489 22.4372 1.16857e-17)
(-3.01445 19.3304 -9.05078e-17)
(-3.31696 15.7342 8.60381e-17)
(-2.99686 12.0193 -2.86042e-16)
(-2.0244 8.32167 7.0785e-16)
(-0.487325 4.95258 1.88629e-15)
(1.36379 2.18947 5.48254e-15)
(3.32202 -0.13885 -1.64534e-15)
(5.55233 -2.15929 5.08856e-16)
(7.84813 -3.66127 1.74136e-15)
(9.96452 -4.62753 2.62254e-15)
(11.8351 -5.18613 8.171e-16)
(13.4717 -5.46164 -1.3888e-15)
(14.8995 -5.55093 -1.24472e-15)
(16.1494 -5.51701 6.6718e-16)
(17.2522 -5.40751 2.5058e-16)
(18.2402 -5.25134 8.37639e-16)
(19.1446 -5.06801 -6.87958e-16)
(19.9873 -4.86028 -1.35729e-16)
(20.7863 -4.62969 -5.97383e-16)
(21.5525 -4.36675 2.9554e-16)
(22.2872 -4.05751 8.09296e-16)
(22.9595 -3.67692 -2.71851e-16)
(23.5018 -3.22507 -3.03633e-16)
(23.8968 -2.74543 -2.94889e-16)
(24.1748 -2.27768 -8.40571e-18)
(24.3719 -1.7784 9.26544e-18)
(24.5035 -1.18112 1.2328e-19)
(24.5697 -0.513055 -3.4072e-18)
(24.5501 0.159838 7.46044e-17)
(24.4303 0.789592 5.56969e-17)
(24.2112 1.35358 1.25269e-16)
(23.9016 1.8454 3.63352e-16)
(23.5015 2.26732 9.7557e-18)
(23.0076 2.62724 2.30802e-16)
(22.3172 2.92663 8.27344e-16)
(21.3671 3.13419 2.18489e-15)
(18.7647 3.31174 2.34044e-15)
(7.15409 23.9933 -3.54616e-18)
(9.04456 25.7204 -2.16097e-17)
(11.348 27.2845 1.50599e-17)
(14.0038 28.581 6.46967e-17)
(16.8655 29.5503 -3.30562e-16)
(19.938 30.1321 -1.76106e-16)
(23.1086 30.2798 -5.82031e-16)
(26.2448 30.0148 1.14485e-16)
(29.2927 29.3468 -4.87122e-16)
(32.1695 28.3276 -8.4724e-17)
(34.8189 27.0102 1.21734e-15)
(37.2342 25.493 -1.6223e-15)
(39.4241 23.8661 -9.27985e-16)
(41.4002 22.1619 -1.68281e-17)
(43.1496 20.4115 5.61702e-16)
(44.6317 18.6533 -1.17259e-15)
(45.8275 16.9109 -6.08668e-16)
(46.7 15.2133 3.57361e-15)
(47.1882 13.5678 -5.87832e-16)
(47.1795 11.979 -1.20877e-15)
(46.4799 10.3974 -1.70155e-15)
(44.8602 8.72431 1.4797e-15)
(42.1785 6.82191 -2.19528e-15)
(38.6401 4.75776 -2.05718e-16)
(35.1084 2.86627 1.18657e-15)
(31.9563 1.34591 1.13919e-15)
(29.1548 0.240426 8.55064e-17)
(26.7713 -0.549885 5.74371e-16)
(24.9156 -1.15007 1.34897e-15)
(23.5634 -1.62179 1.07694e-15)
(22.537 -1.99139 -1.04684e-15)
(21.612 -2.27776 -1.23125e-16)
(20.6889 -2.50224 1.44812e-14)
(19.6835 -2.67101 -1.09649e-14)
(18.5054 -2.76923 1.73638e-15)
(17.1173 -2.77919 -4.99516e-15)
(15.1474 -2.63222 1.5799e-15)
(13.0623 -2.36409 -6.5892e-16)
(7.02077 -1.46968 4.25011e-15)
(5.55908 22.1541 3.08153e-17)
(4.17394 20.1095 -9.58456e-17)
(2.96006 17.7156 -4.79958e-16)
(2.03938 14.9954 4.47278e-16)
(1.59148 12.0377 6.06196e-16)
(1.70516 8.98199 -2.53134e-17)
(2.40213 6.04059 -2.72051e-15)
(3.58715 3.43958 -4.60244e-15)
(5.07969 1.14249 3.07518e-15)
(6.84311 -0.757699 -1.62485e-15)
(8.73684 -2.12398 2.2118e-16)
(10.586 -3.01199 -5.08506e-16)
(12.3091 -3.54968 2.7864e-17)
(13.8823 -3.83679 1.49383e-16)
(15.3003 -3.95433 5.00054e-16)
(16.5743 -3.95458 -9.1048e-16)
(17.7211 -3.88194 9.7794e-16)
(18.7641 -3.76151 -2.2915e-16)
(19.7278 -3.61112 -4.23749e-16)
(20.6349 -3.42803 -2.95006e-16)
(21.5008 -3.2099 -6.66888e-16)
(22.3379 -2.93937 -7.29433e-16)
(23.1479 -2.59506 -7.90848e-16)
(23.9085 -2.13661 3.15289e-16)
(24.5674 -1.57143 -2.12016e-17)
(25.0987 -0.963325 1.34892e-16)
(25.5132 -0.336465 9.93962e-17)
(25.8052 0.273753 5.90669e-18)
(25.9667 0.821289 -1.19104e-19)
(26.0003 1.28864 2.21465e-18)
(25.9347 1.68398 -4.27725e-17)
(25.7968 2.03012 -1.89817e-17)
(25.5969 2.34668 -1.76709e-16)
(25.3359 2.64219 -1.28311e-16)
(25.0047 2.92008 -2.58921e-17)
(24.6043 3.18326 -1.08917e-16)
(24.0357 3.42889 -6.36525e-16)
(23.4729 3.64808 -2.27532e-15)
(21.4975 3.71656 -2.42355e-15)
(8.30379 22.1007 2.14446e-18)
(9.64538 23.6264 1.00075e-17)
(11.2778 25.1123 5.09815e-18)
(13.154 26.4863 -5.36185e-17)
(15.2216 27.6296 1.4409e-16)
(17.4797 28.5189 2.1521e-16)
(19.8539 29.1152 5.84753e-16)
(22.2697 29.3811 2.46059e-17)
(24.6702 29.3166 6.10374e-16)
(26.9973 28.9336 -1.19573e-15)
(29.198 28.252 -1.30088e-16)
(31.2381 27.2969 -3.34424e-16)
(33.0906 26.0983 1.51173e-15)
(34.7383 24.6888 -3.33287e-16)
(36.1795 23.1027 -4.38913e-16)
(37.4733 21.3511 -6.31113e-16)
(38.6503 19.4643 1.95109e-15)
(39.7302 17.4983 -1.55499e-15)
(40.7737 15.5029 -9.24657e-16)
(41.8262 13.5518 2.37258e-15)
(42.9488 11.6862 -1.87401e-15)
(44.0609 9.89427 -3.57733e-16)
(44.8728 8.03583 -4.50335e-16)
(44.9392 6.02683 6.38554e-16)
(44.1677 4.0296 -3.69352e-16)
(42.8123 2.28435 5.95261e-16)
(41.0966 0.902641 -1.14577e-16)
(39.0715 -0.18294 -8.58204e-17)
(36.6946 -1.07305 1.53189e-15)
(34.006 -1.80052 2.17488e-16)
(31.2156 -2.36342 -3.02842e-15)
(28.6098 -2.76892 3.15995e-15)
(26.3403 -3.03923 -7.69368e-16)
(24.3373 -3.1976 1.52571e-16)
(22.4101 -3.25654 -3.40893e-15)
(20.4297 -3.21315 1.06787e-14)
(18.023 -3.02163 -2.38963e-15)
(15.5349 -2.65238 -3.71767e-16)
(9.73626 -1.88296 -6.16539e-15)
(7.20955 20.4935 3.83899e-18)
(6.24991 18.7388 -8.46864e-17)
(5.45249 16.6735 2.92068e-16)
(4.81212 14.3631 2.30217e-16)
(4.48388 11.8822 -6.55579e-16)
(4.51343 9.30021 -6.21851e-16)
(4.9283 6.75434 1.24959e-15)
(5.69774 4.40272 1.86468e-15)
(6.78365 2.29731 1.61167e-15)
(8.13837 0.507772 -1.39267e-15)
(9.63594 -0.905136 -1.02377e-15)
(11.1558 -1.96262 2.63538e-16)
(12.6265 -2.72595 9.91759e-16)
(14.0126 -3.25316 1.40292e-15)
(15.2971 -3.59484 -2.76253e-16)
(16.4782 -3.79428 -3.25765e-17)
(17.5622 -3.88947 9.48199e-16)
(18.5627 -3.9066 1.80355e-17)
(19.4965 -3.86387 7.184e-16)
(20.381 -3.76652 6.41943e-16)
(21.2287 -3.61669 1.49369e-15)
(22.0485 -3.40615 1.55621e-15)
(22.8405 -3.12146 6.87118e-16)
(23.5855 -2.74222 1.34669e-16)
(24.2401 -2.28349 -1.24801e-16)
(24.7803 -1.79442 3.59599e-16)
(25.2162 -1.29718 -6.98047e-17)
(25.5614 -0.796753 -3.85101e-17)
(25.8213 -0.289613 2.72396e-18)
(25.9962 0.226074 3.51687e-19)
(26.0883 0.750032 1.64196e-17)
(26.0988 1.27189 3.97608e-17)
(26.0278 1.77349 5.65102e-17)
(25.8749 2.23923 1.59038e-17)
(25.6307 2.66167 -1.92284e-16)
(25.2953 3.03917 1.03754e-16)
(24.7696 3.37349 -9.25353e-16)
(24.1691 3.62608 4.34794e-15)
(22.3695 3.72739 1.0708e-14)
(10.9051 20.2253 1.19669e-17)
(12.1615 21.5202 -1.40334e-17)
(13.6682 22.7815 1.64236e-17)
(15.402 23.9346 -2.30764e-17)
(17.3165 24.8894 -6.94365e-17)
(19.4179 25.6271 -1.78972e-16)
(21.6504 26.1035 -2.87132e-16)
(23.9536 26.2839 1.03988e-16)
(26.2808 26.1602 6.91557e-16)
(28.5772 25.7342 -4.55407e-16)
(30.7916 25.019 -7.66595e-16)
(32.8844 24.0376 -1.16236e-15)
(34.8202 22.8244 1.31939e-15)
(36.5723 21.4164 2.22667e-15)
(38.1302 19.8466 -1.98819e-15)
(39.4543 18.1668 -8.58708e-16)
(40.4991 16.435 1.08877e-16)
(41.2609 14.6879 1.74581e-15)
(41.7493 12.9625 1.00845e-16)
(42.0129 11.2935 -2.52584e-15)
(42.1499 9.70781 3.36229e-15)
(42.3141 8.19947 -1.5722e-15)
(42.6097 6.68466 3.3823e-16)
(42.8898 5.07505 1.34211e-15)
(42.8496 3.43675 -8.00856e-16)
(42.3997 1.95698 6.6989e-16)
(41.7019 0.742788 7.42328e-17)
(40.9075 -0.253647 -3.78712e-16)
(40 -1.12298 -3.02638e-16)
(38.8195 -1.89602 -4.32104e-16)
(37.1766 -2.55658 4.84335e-16)
(34.9678 -3.07716 -4.98675e-15)
(32.2948 -3.43979 -5.14445e-15)
(29.4554 -3.64609 1.44353e-15)
(26.6814 -3.70863 5.69056e-15)
(24.0034 -3.63011 -2.50206e-15)
(21.0726 -3.39161 3.31658e-15)
(18.086 -2.90944 6.55268e-16)
(12.3166 -2.20142 3.03004e-15)
(9.84986 18.8705 -5.22541e-17)
(8.90311 17.4017 -2.10348e-17)
(8.07684 15.6689 3.58784e-16)
(7.3856 13.7118 -1.58904e-16)
(6.96021 11.5999 9.4066e-16)
(6.83564 9.38146 7.95798e-16)
(7.03797 7.16024 -9.87503e-16)
(7.54152 5.05888 1.19252e-17)
(8.32416 3.13501 3.4342e-16)
(9.35305 1.45313 2.38289e-15)
(10.5372 0.0664742 1.75334e-16)
(11.792 -1.01919 6.77857e-16)
(13.0577 -1.83565 -1.85345e-15)
(14.2932 -2.42381 -1.14701e-15)
(15.4734 -2.82302 3.44699e-16)
(16.5861 -3.07237 1.98579e-16)
(17.6284 -3.20597 -9.52869e-16)
(18.6047 -3.25088 9.43282e-17)
(19.5245 -3.2268 -2.30283e-16)
(20.3995 -3.14315 5.98323e-16)
(21.2389 -3.00315 -6.30187e-16)
(22.0487 -2.80135 -9.16745e-16)
(22.8283 -2.52648 1.14693e-16)
(23.5611 -2.16102 2.24684e-16)
(24.2114 -1.71065 4.36524e-16)
(24.755 -1.21288 -3.19643e-16)
(25.1971 -0.690753 -4.04987e-17)
(25.5487 -0.155346 1.39307e-17)
(25.8146 0.382857 -4.18391e-18)
(25.9976 0.908817 -2.54116e-18)
(26.1029 1.40671 3.71785e-18)
(26.137 1.86087 -8.64924e-18)
(26.1038 2.26809 -7.97103e-18)
(26.0049 2.63149 2.11092e-17)
(25.8308 2.95772 1.99442e-16)
(25.5774 3.25117 -5.65664e-16)
(25.1461 3.52027 2.55296e-15)
(24.614 3.69601 -1.98964e-15)
(22.9848 3.75933 -2.10589e-15)
(12.4357 18.8264 -2.29727e-17)
(13.492 19.9757 7.30553e-18)
(14.7659 21.1178 7.21273e-19)
(16.223 22.1903 6.15283e-17)
(17.8233 23.1106 1.11965e-16)
(19.5875 23.874 -3.03365e-16)
(21.4688 24.4409 4.33704e-16)
(23.4202 24.776 1.92204e-16)
(25.4113 24.8693 5.37723e-16)
(27.3954 24.7141 2.80607e-16)
(29.3314 24.3121 -8.40416e-17)
(31.1846 23.6749 9.63162e-16)
(32.9207 22.8216 -2.01719e-15)
(34.513 21.7738 1.41186e-16)
(35.9404 20.5551 2.0919e-15)
(37.1828 19.1893 -1.03651e-15)
(38.2521 17.672 1.07029e-15)
(39.1428 16.026 -2.17234e-16)
(39.8474 14.2846 6.9477e-17)
(40.3592 12.4941 2.56151e-15)
(40.6843 10.6941 -1.75389e-15)
(40.8491 8.9152 7.15454e-17)
(40.8964 7.14946 -3.84967e-16)
(40.8189 5.39099 -1.76715e-15)
(40.5237 3.7113 6.4472e-16)
(39.9722 2.23104 -2.16205e-15)
(39.275 1.00765 -8.18232e-17)
(38.5794 -0.00785946 2.6993e-16)
(37.9485 -0.895551 -2.23034e-16)
(37.3615 -1.69017 4.05457e-15)
(36.7526 -2.39474 1.55328e-15)
(35.9841 -3.00537 -7.22005e-16)
(34.8205 -3.50422 -4.10917e-15)
(33.0171 -3.85313 6.53968e-15)
(30.5251 -4.01643 -4.82168e-15)
(27.5878 -3.97617 3.56924e-16)
(24.2457 -3.73085 4.74736e-16)
(20.7865 -3.16194 -4.467e-17)
(14.9227 -2.46949 -3.72694e-15)
(11.5428 17.6305 1.21293e-17)
(10.7392 16.3471 -1.52221e-16)
(10.0175 14.8324 5.98162e-17)
(9.38591 13.1248 3.82085e-17)
(8.96047 11.2886 -1.34026e-15)
(8.76595 9.35209 -1.15381e-15)
(8.83343 7.39097 3.5681e-15)
(9.15396 5.50491 -2.81224e-15)
(9.71809 3.7563 -1.11543e-17)
(10.5018 2.1974 3.55414e-17)
(11.4403 0.868962 -3.50155e-16)
(12.4705 -0.215953 -5.13751e-16)
(13.5447 -1.07485 -1.03634e-15)
(14.6249 -1.73473 1.26905e-15)
(15.6836 -2.22141 5.40913e-16)
(16.7048 -2.56452 -1.13604e-16)
(17.6801 -2.7904 2.87768e-16)
(18.6078 -2.92129 -5.25922e-16)
(19.4918 -2.97386 3.54827e-16)
(20.3389 -2.95791 -3.43178e-16)
(21.1553 -2.87688 3.86307e-16)
(21.9446 -2.72755 3.54838e-16)
(22.7048 -2.50181 -6.26471e-17)
(23.4213 -2.18886 -5.29151e-16)
(24.0635 -1.79476 -1.31506e-16)
(24.6082 -1.3514 -4.53639e-17)
(25.0561 -0.883998 1.09808e-16)
(25.4158 -0.405326 1.21409e-18)
(25.6914 0.075244 -3.11682e-18)
(25.8848 0.547592 1.95327e-17)
(25.9998 1.00351 8.60422e-18)
(26.0417 1.44299 -3.99817e-18)
(26.0145 1.86612 5.47367e-18)
(25.9215 2.26938 6.87629e-18)
(25.7574 2.64967 3.32183e-17)
(25.524 3.00279 -1.74659e-16)
(25.1355 3.32887 -8.61666e-16)
(24.6769 3.54897 2.85229e-15)
(23.3013 3.66101 -3.1226e-15)
(13.9268 17.5924 1.5954e-17)
(14.8866 18.6095 -2.81654e-17)
(16.0397 19.6259 5.55658e-18)
(17.3539 20.5832 4.96062e-18)
(18.7907 21.4081 -7.22885e-17)
(20.3796 22.101 -8.8083e-17)
(22.0806 22.6238 -2.73537e-17)
(23.8557 22.9443 -4.37161e-16)
(25.6841 23.0493 -3.89794e-17)
(27.5279 22.9277 2.02775e-16)
(29.3516 22.5751 -3.45981e-16)
(31.1254 21.9948 4.24882e-16)
(32.8161 21.1972 1.45035e-15)
(34.3957 20.197 7.552e-16)
(35.8396 19.0128 -2.99588e-15)
(37.1283 17.666 2.00453e-15)
(38.2348 16.1967 6.39946e-16)
(39.1316 14.6556 -1.3423e-15)
(39.8083 13.0827 5.86733e-16)
(40.2726 11.5071 1.44961e-16)
(40.5422 9.94941 -5.46237e-16)
(40.6423 8.40689 2.87149e-15)
(40.5823 6.84821 1.30938e-16)
(40.335 5.25442 2.35836e-15)
(39.8538 3.6885 -5.0663e-16)
(39.1406 2.27004 2.25451e-16)
(38.286 1.07398 7.25907e-17)
(37.4053 0.0778185 -2.38012e-17)
(36.558 -0.78409 -1.27601e-15)
(35.7543 -1.54812 -1.03536e-15)
(35.0022 -2.22216 1.14719e-16)
(34.3258 -2.8106 3.68266e-15)
(33.7093 -3.31784 4.62507e-15)
(33.0188 -3.73758 2.34711e-15)
(31.9174 -4.03426 -2.57505e-15)
(30.0273 -4.13067 -3.40894e-15)
(27.0851 -3.9694 -4.23873e-15)
(23.5142 -3.38236 -3.57669e-17)
(17.5835 -2.71528 1.0179e-15)
(13.107 16.5378 -3.71941e-17)
(12.3657 15.413 -2.6439e-17)
(11.6862 14.0817 8.90612e-17)
(11.0781 12.5771 -2.3147e-16)
(10.6438 10.9603 -5.55085e-16)
(10.3996 9.24969 1.10161e-15)
(10.3729 7.50087 -9.85781e-16)
(10.5647 5.80064 -8.66053e-16)
(10.9697 4.21122 -9.55938e-16)
(11.5673 2.77168 -9.56771e-16)
(12.3117 1.51496 1.47031e-15)
(13.1557 0.458189 -7.14347e-16)
(14.0629 -0.407084 7.96197e-16)
(15.0012 -1.09745 1.52574e-16)
(15.9445 -1.6287 -2.39973e-16)
(16.8758 -2.02211 -6.69052e-16)
(17.7838 -2.29761 -5.29024e-16)
(18.6623 -2.47348 2.90916e-16)
(19.5104 -2.5644 -1.29506e-16)
(20.3306 -2.58026 -3.9471e-16)
(21.1255 -2.52561 -3.48852e-16)
(21.8962 -2.39957 -2.48047e-16)
(22.6394 -2.19649 3.10362e-16)
(23.3414 -1.90891 -1.02696e-16)
(23.9758 -1.54122 -2.9488e-16)
(24.5205 -1.11877 3.28873e-16)
(24.9727 -0.664933 2.20555e-17)
(25.3384 -0.192128 2.18138e-18)
(25.621 0.290655 4.27325e-18)
(25.8219 0.772902 -2.63389e-17)
(25.9445 1.24528 -4.04458e-18)
(25.9935 1.69804 1.22401e-17)
(25.973 2.12129 -5.28414e-18)
(25.8859 2.50897 -2.12966e-17)
(25.7264 2.85952 8.90882e-17)
(25.495 3.16965 6.63752e-16)
(25.1125 3.44512 -2.53173e-15)
(24.6511 3.59201 -3.30277e-15)
(23.4321 3.62879 1.09354e-15)
(15.126 16.5493 -1.16263e-17)
(15.9879 17.4626 -1.86907e-18)
(17.0229 18.3829 6.66432e-18)
(18.1972 19.2558 -1.86418e-17)
(19.4725 20.0158 1.12648e-16)
(20.8837 20.6693 -4.39062e-17)
(22.3941 21.1831 -8.03864e-17)
(23.9717 21.528 1.85457e-16)
(25.604 21.6928 2.47826e-16)
(27.2585 21.6658 -2.20583e-16)
(28.9068 21.4399 9.56575e-16)
(30.5245 21.0148 -5.01764e-16)
(32.0814 20.3953 -1.36004e-15)
(33.5506 19.5911 -2.4033e-15)
(34.9084 18.616 3.53204e-15)
(36.1306 17.4898 -1.60158e-15)
(37.1976 16.2328 -2.14399e-15)
(38.1013 14.8549 -1.32562e-15)
(38.8331 13.3789 -9.82813e-16)
(39.3891 11.8372 -1.41185e-16)
(39.7736 10.2619 -4.84039e-16)
(39.9947 8.67778 -3.3203e-15)
(40.0497 7.08593 1.34627e-15)
(39.902 5.48716 -3.70718e-15)
(39.5027 3.93398 2.974e-16)
(38.8535 2.52217 3.19568e-16)
(38.033 1.31673 -8.14497e-17)
(37.141 0.303621 2.69812e-16)
(36.2283 -0.572662 8.39621e-16)
(35.2973 -1.34516 1.56487e-16)
(34.3484 -2.0203 1.09739e-16)
(33.4079 -2.60145 -3.16485e-15)
(32.5188 -3.09397 5.2002e-15)
(31.7356 -3.50203 1.77811e-15)
(31.0447 -3.82253 3.24447e-15)
(30.252 -4.01995 6.92436e-15)
(28.6133 -4.00909 1.10049e-15)
(25.8265 -3.51124 -6.54775e-17)
(20.1972 -2.92656 6.53889e-16)
(14.3842 15.6045 -1.29228e-19)
(13.7102 14.6032 1.01e-16)
(13.0801 13.4159 -1.04684e-16)
(12.5034 12.073 5.51467e-16)
(12.0722 10.633 -2.65669e-16)
(11.799 9.10557 1.17444e-16)
(11.7084 7.53233 1.17132e-15)
(11.808 5.99187 8.67998e-16)
(12.0947 4.54443 3.71318e-16)
(12.5509 3.21805 -9.53282e-16)
(13.1428 2.03977 -4.60009e-16)
(13.8344 1.02696 7.47829e-16)
(14.5981 0.174885 8.09032e-17)
(15.4079 -0.526887 -3.10992e-17)
(16.241 -1.08773 -5.43338e-16)
(17.0813 -1.52264 4.44825e-16)
(17.9167 -1.846 9.94344e-16)
(18.7385 -2.0715 -5.59149e-16)
(19.5426 -2.21069 -6.36349e-17)
(20.328 -2.2721 -5.74062e-16)
(21.0945 -2.25978 -2.90174e-16)
(21.8409 -2.17365 3.04545e-16)
(22.5627 -2.0098 -7.2693e-16)
(23.2471 -1.76351 2.5134e-16)
(23.8708 -1.43903 3.35657e-16)
(24.4128 -1.05723 -1.13927e-16)
(24.8676 -0.640063 -9.69997e-17)
(25.2386 -0.200972 -1.88886e-17)
(25.5285 0.249884 -1.36582e-18)
(25.7382 0.701305 1.91985e-18)
(25.8705 1.14251 -3.98169e-17)
(25.9297 1.5655 6.93256e-17)
(25.9192 1.96677 -7.03002e-18)
(25.8415 2.34276 6.29268e-17)
(25.6904 2.69198 7.58268e-17)
(25.4656 3.00997 -6.04018e-16)
(25.0931 3.29797 1.83174e-15)
(24.6334 3.4606 1.91115e-16)
(23.5069 3.50382 5.68336e-15)
(16.1811 15.6306 -8.41441e-20)
(16.9713 16.4545 2.65067e-18)
(17.9186 17.2884 3.24506e-18)
(18.9895 18.0809 -2.06397e-20)
(20.1456 18.7731 -2.47418e-17)
(21.4246 19.3749 -2.15884e-16)
(22.7934 19.8556 1.41807e-17)
(24.2242 20.1892 2.33118e-16)
(25.71 20.3655 -5.68775e-16)
(27.2241 20.372 -3.21257e-16)
(28.7432 20.1998 6.41897e-17)
(30.2481 19.8451 7.71987e-16)
(31.7126 19.3079 2.19745e-15)
(33.1124 18.5918 3.13018e-15)
(34.4241 17.7053 8.8491e-17)
(35.624 16.661 -1.87175e-16)
(36.6921 15.4748 2.73815e-15)
(37.6065 14.1758 2.37463e-15)
(38.3498 12.7989 -1.23538e-17)
(38.9161 11.3731 -2.36039e-15)
(39.3093 9.9218 8.03245e-16)
(39.5399 8.45745 9.71275e-16)
(39.6111 6.97808 -1.75639e-16)
(39.5 5.48383 1.44212e-15)
(39.1658 4.01668 -8.03183e-16)
(38.601 2.6589 -3.80362e-16)
(37.8636 1.47463 -1.27432e-17)
(37.0375 0.463326 -4.18372e-16)
(36.1688 -0.416817 -1.34403e-16)
(35.2575 -1.19365 -2.57449e-15)
(34.294 -1.8717 1.12652e-15)
(33.2805 -2.45135 -2.59934e-15)
(32.2296 -2.9349 -5.86808e-15)
(31.177 -3.3238 3.09858e-16)
(30.1763 -3.61548 -1.90169e-15)
(29.3634 -3.79841 -7.52106e-15)
(28.5119 -3.85061 1.75454e-15)
(27.1016 -3.48922 2.31752e-16)
(22.4576 -3.0639 1.83603e-15)
(15.4962 14.7799 -1.63306e-17)
(14.8722 13.8819 -5.80571e-17)
(14.2801 12.8151 1.06074e-16)
(13.7293 11.6064 -4.32527e-16)
(13.3037 10.3126 -3.24731e-18)
(13.0121 8.93683 -1.87337e-16)
(12.8775 7.51115 -1.97372e-15)
(12.91 6.1091 7.97215e-16)
(13.1075 4.78706 -1.15079e-16)
(13.4554 3.56471 1.03495e-15)
(13.9271 2.465 -5.72748e-16)
(14.4943 1.50422 5.34927e-16)
(15.1361 0.67899 -7.7766e-16)
(15.8321 -0.0175983 -5.96461e-16)
(16.5635 -0.590538 3.09782e-16)
(17.3163 -1.05011 3.35099e-16)
(18.0789 -1.40577 3.36397e-16)
(18.8416 -1.66686 1.97812e-16)
(19.5985 -1.84189 -2.32225e-16)
(20.3461 -1.93762 9.28509e-16)
(21.0817 -1.95746 -2.70938e-16)
(21.8022 -1.90181 4.35163e-16)
(22.5019 -1.76794 4.53182e-16)
(23.1683 -1.55311 -1.63672e-18)
(23.7804 -1.26124 -8.82387e-17)
(24.3182 -0.909097 -6.98945e-17)
(24.7741 -0.516689 1.51998e-17)
(25.1492 -0.0976289 1.99108e-17)
(25.445 0.33776 6.49829e-18)
(25.6621 0.778521 1.1616e-17)
(25.8023 1.21415 2.72526e-17)
(25.8694 1.63646 -1.33698e-16)
(25.8663 2.03743 -6.92977e-17)
(25.7952 2.41087 1.23303e-17)
(25.6505 2.75339 -1.52836e-16)
(25.4314 3.05762 6.69211e-16)
(25.0687 3.32354 -6.18726e-16)
(24.6197 3.44651 2.69433e-16)
(23.5731 3.43479 -3.06651e-16)
(17.092 14.8189 -1.39042e-17)
(17.8198 15.567 -2.59188e-17)
(18.6913 16.3271 1.07604e-17)
(19.6725 17.0513 7.95109e-18)
(20.7256 17.6851 3.54229e-17)
(21.8891 18.2419 1.00272e-16)
(23.1325 18.694 2.39867e-16)
(24.4308 19.0179 2.61577e-16)
(25.7813 19.206 -2.56611e-16)
(27.1608 19.2463 -6.08962e-17)
(28.5506 19.1298 -1.19097e-16)
(29.9359 18.8516 -1.95509e-15)
(31.2942 18.4092 5.00957e-16)
(32.6038 17.8035 -2.03109e-15)
(33.8432 17.0392 -5.43475e-16)
(34.9898 16.1257 6.65104e-16)
(36.0217 15.0778 -1.84191e-15)
(36.9208 13.9118 -1.00427e-15)
(37.6732 12.6455 -4.81745e-16)
(38.2691 11.302 1.56116e-15)
(38.7055 9.90614 1.18432e-16)
(38.9831 8.47938 7.15986e-16)
(39.0992 7.03351 1.35565e-15)
(39.0356 5.5801 -2.75673e-16)
(38.7622 4.15667 -8.16388e-18)
(38.2727 2.82952 1.17784e-15)
(37.6134 1.65496 2.18007e-16)
(36.8569 0.639459 -4.35619e-17)
(36.0482 -0.24878 2.89501e-16)
(35.1922 -1.03417 -2.60725e-16)
(34.2803 -1.72124 -2.97192e-15)
(33.3086 -2.30941 5.58507e-15)
(32.273 -2.799 -5.90389e-15)
(31.1722 -3.1875 -6.155e-15)
(30.0017 -3.46791 5.72626e-15)
(28.8608 -3.62185 2.76277e-15)
(27.8187 -3.64095 -1.48774e-15)
(27.2409 -3.33284 -7.49301e-16)
(23.9933 -3.08608 -1.38193e-15)
(16.4572 14.0474 8.5877e-18)
(15.8772 13.2358 1.22473e-16)
(15.3194 12.2697 -4.2335e-17)
(14.7937 11.1738 -4.67394e-16)
(14.3769 10.0028 -2.8456e-16)
(14.0744 8.75455 -6.76239e-16)
(13.9095 7.4546 -1.6956e-16)
(13.8928 6.17301 8.67474e-16)
(14.0226 4.96152 6.57983e-16)
(14.2866 3.83422 -1.89516e-16)
(14.6629 2.81051 1.58734e-15)
(15.1288 1.90526 -3.97376e-17)
(15.6681 1.11522 1.16171e-15)
(16.2649 0.43517 4.70285e-16)
(16.904 -0.137695 -4.24357e-16)
(17.5742 -0.610247 3.84466e-17)
(18.265 -0.98841 -8.82628e-16)
(18.9672 -1.2781 5.82598e-17)
(19.674 -1.48487 5.13082e-16)
(20.3802 -1.61345 2.18545e-17)
(21.0813 -1.66623 3.50113e-16)
(21.7727 -1.64343 -4.41241e-16)
(22.4477 -1.54298 -2.83715e-16)
(23.0942 -1.36337 -5.06073e-16)
(23.6928 -1.10814 -3.14227e-16)
(24.2242 -0.791086 -2.01595e-17)
(24.6793 -0.430216 -8.77889e-17)
(25.0573 -0.0392228 -1.65363e-18)
(25.3584 0.371201 -6.41433e-18)
(25.5826 0.789918 -1.57561e-18)
(25.7312 1.20604 3.22616e-17)
(25.8071 1.61031 -1.69264e-17)
(25.813 1.99636 1.37306e-16)
(25.7505 2.35838 -3.07262e-16)
(25.6139 2.69276 3.53198e-17)
(25.4023 2.99153 -2.0356e-17)
(25.0507 3.25233 3.23121e-16)
(24.6139 3.37064 3.29573e-16)
(23.6445 3.34526 -4.17676e-16)
(17.8938 14.0916 -4.02545e-18)
(18.5697 14.7737 -5.33192e-19)
(19.3778 15.4685 1.84254e-17)
(20.2846 16.1312 -1.85419e-17)
(21.2524 16.7113 -1.01382e-17)
(22.3202 17.2241 -3.78576e-17)
(23.4592 17.6442 -3.68707e-16)
(24.6467 17.9512 6.43846e-17)
(25.8827 18.1386 -1.83966e-16)
(27.1475 18.1953 4.30713e-16)
(28.4259 18.1127 -4.37977e-16)
(29.7067 17.885 1.24194e-15)
(30.9708 17.5081 -8.76478e-17)
(32.2001 16.9796 -7.44292e-17)
(33.3751 16.3012 -3.71668e-16)
(34.4743 15.4783 -1.74044e-16)
(35.4771 14.5207 6.47291e-16)
(36.3646 13.442 1.31189e-15)
(37.1187 12.264 1.346e-15)
(37.7262 11.0102 8.89745e-16)
(38.181 9.70222 7.01027e-16)
(38.4813 8.35788 1.44253e-16)
(38.6229 6.98897 -9.14299e-16)
(38.5914 5.60863 -2.11059e-17)
(38.3634 4.24952 5.91364e-16)
(37.9331 2.96739 -8.8239e-16)
(37.3364 1.81437 -1.89209e-16)
(36.6351 0.80405 -1.52097e-16)
(35.8727 -0.0854907 -2.95501e-16)
(35.0594 -0.874597 2.57493e-15)
(34.1913 -1.56734 2.43454e-15)
(33.2676 -2.16272 -1.32608e-15)
(32.2846 -2.66034 2.40795e-15)
(31.235 -3.05639 -8.72814e-16)
(30.0875 -3.34102 -2.96984e-15)
(28.8614 -3.4897 -1.28677e-15)
(27.4797 -3.48135 1.41195e-15)
(26.8416 -3.13443 2.41195e-16)
(24.7096 -2.99202 -1.67521e-15)
(17.3011 13.3884 5.85662e-17)
(16.7583 12.6508 1.7776e-16)
(16.2305 11.7711 -3.80303e-16)
(15.7276 10.7717 -7.7829e-16)
(15.321 9.7053 -7.70818e-16)
(15.0133 8.56579 2.17221e-15)
(14.8271 7.37442 1.16281e-15)
(14.7741 6.19839 4.17624e-16)
(14.852 5.08459 -1.73151e-15)
(15.0505 4.04334 -9.84658e-16)
(15.3509 3.09143 -1.78512e-15)
(15.7343 2.24222 -1.64134e-15)
(16.1877 1.49186 -3.74864e-16)
(16.6988 0.835787 2.54178e-16)
(17.2554 0.272538 -2.68296e-16)
(17.849 -0.2029 -3.42998e-16)
(18.471 -0.593769 3.7085e-16)
(19.113 -0.903373 -4.94507e-16)
(19.7682 -1.13481 5.42386e-17)
(20.4308 -1.29065 1.94451e-16)
(21.0951 -1.37192 3.94632e-16)
(21.7553 -1.3784 -1.78739e-16)
(22.404 -1.3083 -1.00081e-16)
(23.0293 -1.16059 -8.19069e-17)
(23.6127 -0.938529 2.49226e-16)
(24.136 -0.653413 -1.22834e-17)
(24.5886 -0.321071 5.51143e-17)
(24.9681 0.045155 -7.82754e-18)
(25.2734 0.434428 -4.22e-18)
(25.5038 0.835722 -1.34119e-17)
(25.6599 1.23805 -3.69405e-17)
(25.7438 1.63212 -1.10037e-16)
(25.7578 2.01011 1.97121e-17)
(25.7031 2.36481 3.07644e-16)
(25.5742 2.69145 3.60054e-16)
(25.3698 2.98011 2.61545e-16)
(25.0302 3.2263 2.11327e-15)
(24.6073 3.32284 -2.5683e-15)
(23.7156 3.2676 2.00414e-15)
(18.602 13.4348 1.56249e-17)
(19.2328 14.0593 1.40815e-17)
(19.9861 14.6966 -3.89855e-18)
(20.8284 15.3046 1.82364e-17)
(21.7226 15.8366 -9.97244e-17)
(22.7076 16.309 1.14682e-17)
(23.7559 16.6988 1.34231e-16)
(24.8466 16.9878 2.05406e-16)
(25.9815 17.1709 1.49212e-16)
(27.1432 17.2384 -5.44237e-16)
(28.3196 17.1825 9.31905e-17)
(29.5027 16.9972 -4.15477e-16)
(30.6761 16.6774 -1.18693e-16)
(31.8245 16.2197 -3.57429e-16)
(32.9309 15.6234 2.72905e-16)
(33.9757 14.8913 4.69117e-16)
(34.9394 14.0301 -1.07516e-16)
(35.8028 13.0512 -1.43308e-15)
(36.5493 11.9685 -7.87214e-16)
(37.1642 10.8004 -8.68556e-16)
(37.6378 9.56632 -3.23446e-16)
(37.9642 8.28573 -6.80556e-16)
(38.1363 6.97522 -1.18022e-16)
(38.141 5.65246 1.08224e-15)
(37.9597 4.3473 2.51985e-17)
(37.5867 3.10572 5.53432e-16)
(37.0498 1.97398 1.05277e-16)
(36.4007 0.969927 5.01917e-16)
(35.6801 0.0799421 5.1746e-16)
(34.9014 -0.712011 -2.95588e-15)
(34.065 -1.40924 -1.00173e-15)
(33.1731 -2.01024 -4.86434e-15)
(32.2261 -2.51412 5.10388e-15)
(31.2223 -2.9169 3.60278e-16)
(30.1339 -3.20865 2.39392e-15)
(28.9718 -3.36169 -7.59541e-16)
(27.5278 -3.35898 -1.86288e-15)
(26.5205 -2.96216 1.02262e-16)
(24.8902 -2.82147 7.49338e-16)
(18.0462 12.7912 6.70247e-17)
(17.5363 12.1174 -2.01073e-16)
(17.0354 11.3125 -7.60515e-18)
(16.5536 10.3966 4.40544e-16)
(16.1582 9.42067 -8.76389e-16)
(15.8492 8.37501 -1.40181e-15)
(15.6484 7.27867 -9.12328e-16)
(15.5684 6.19557 1.09958e-15)
(15.6064 5.16848 1.53289e-15)
(15.7533 4.20505 2.42984e-16)
(15.993 3.3201 1.06552e-15)
(16.309 2.52566 1.00165e-15)
(16.6906 1.8171 -6.01268e-16)
(17.128 1.18979 4.02773e-16)
(17.6118 0.642841 -1.04196e-16)
(18.1355 0.172403 6.91663e-16)
(18.6926 -0.223428 -4.24374e-16)
(19.2759 -0.545879 -6.92029e-16)
(19.8793 -0.79598 -2.40634e-16)
(20.4969 -0.974586 -5.78943e-16)
(21.1224 -1.08145 -5.11088e-16)
(21.7494 -1.11559 -4.51958e-16)
(22.37 -1.07497 8.40808e-16)
(22.9724 -0.958722 5.19959e-16)
(23.5392 -0.769691 8.38127e-17)
(24.0523 -0.517028 2.83334e-16)
(24.5008 -0.214594 4.79303e-17)
(24.8803 0.124824 1.29572e-17)
(25.1887 0.49034 -1.42048e-18)
(25.4247 0.870965 -2.48238e-18)
(25.5878 1.25568 2.46104e-17)
(25.6799 1.63465 -3.65376e-18)
(25.7022 2.00006 7.06913e-17)
(25.6559 2.34446 1.53485e-16)
(25.5352 2.66242 -6.54393e-16)
(25.3388 2.94289 2.71244e-17)
(25.0118 3.17915 -2.46714e-15)
(24.6033 3.26443 4.19451e-15)
(23.7856 3.19128 2.17725e-15)
(19.2324 12.8371 -1.08262e-17)
(19.8238 13.4107 1.20219e-17)
(20.5293 13.9968 -1.90836e-17)
(21.3157 14.5555 -1.78408e-17)
(22.1464 15.0438 1.25271e-17)
(23.0597 15.4785 3.23919e-17)
(24.0294 15.8388 -1.421e-16)
(25.0359 16.1084 -5.85471e-17)
(26.0823 16.2833 4.40936e-16)
(27.1532 16.3552 2.35768e-16)
(28.2388 16.317 3.45879e-16)
(29.3333 16.163 -1.8282e-16)
(30.4231 15.8877 -7.21903e-16)
(31.4957 15.4867 1.57363e-15)
(32.5363 14.9575 -6.48227e-16)
(33.5273 14.3007 -6.77346e-16)
(34.4505 13.5203 -4.44173e-16)
(35.2879 12.6241 1.29949e-15)
(36.0222 11.624 1.5594e-15)
(36.6374 10.5367 4.33003e-16)
(37.1212 9.38019 -1.81424e-15)
(37.4652 8.17231 4.03276e-16)
(37.6611 6.93007 -8.19257e-17)
(37.697 5.67225 3.3478e-16)
(37.5579 4.4259 -1.54912e-16)
(37.238 3.22947 1.15633e-16)
(36.758 2.12416 4.62451e-17)
(36.1605 1.13111 -2.69162e-16)
(35.482 0.244218 4.48826e-16)
(34.7379 -0.548173 1.91518e-15)
(33.931 -1.2481 4.62696e-17)
(33.0647 -1.85321 5.01043e-15)
(32.1415 -2.36184 2.12939e-15)
(31.1639 -2.76938 -2.36918e-15)
(30.1118 -3.06666 -3.31338e-15)
(29.0099 -3.2228 -1.18252e-15)
(27.6678 -3.2354 -1.22083e-15)
(26.4498 -2.82394 -8.7105e-17)
(24.9079 -2.62527 1.60211e-15)
(18.709 12.246 -4.74139e-17)
(18.228 11.6282 -2.57525e-17)
(17.7516 10.8887 1.7411e-16)
(17.2897 10.0461 -4.61992e-17)
(16.9056 9.14888 5.40998e-16)
(16.5982 8.18539 9.23389e-16)
(16.3879 7.17289 7.09304e-17)
(16.2876 6.17216 6.52136e-16)
(16.2949 5.22231 -1.92883e-15)
(16.401 4.32942 -1.29106e-15)
(16.5917 3.50647 8.64199e-16)
(16.8524 2.76433 1.26298e-15)
(17.174 2.09777 -6.53892e-16)
(17.5485 1.50201 -9.1623e-17)
(17.9683 0.976121 -5.29769e-17)
(18.4291 0.516531 -1.73194e-16)
(18.9259 0.12225 6.3678e-16)
(19.453 -0.206663 8.75236e-16)
(20.0054 -0.469753 8.18453e-17)
(20.5774 -0.666352 6.245e-16)
(21.1629 -0.794968 2.15955e-16)
(21.7552 -0.853775 3.3733e-16)
(22.3463 -0.840382 -5.25764e-16)
(22.9245 -0.753664 -4.34968e-17)
(23.473 -0.595796 -2.67182e-16)
(23.9742 -0.374215 -3.05692e-16)
(24.4167 -0.100827 -1.14833e-16)
(24.7948 0.21238 2.83465e-17)
(25.1052 0.554654 9.41646e-18)
(25.3457 0.915215 6.14882e-18)
(25.5154 1.28308 1.2721e-18)
(25.6149 1.64824 -3.65673e-17)
(25.6453 2.00233 1.05022e-17)
(25.6071 2.33702 -2.56323e-16)
(25.4948 2.64592 1.71551e-17)
(25.3069 2.91655 -5.99737e-16)
(24.9935 3.14017 1.60317e-15)
(24.6006 3.21112 -2.3594e-15)
(23.8538 3.11933 -4.08684e-15)
(19.7963 12.29 1.02464e-17)
(20.3529 12.8182 -1.82997e-17)
(21.0159 13.3583 -5.35702e-17)
(21.7529 13.8727 9.37319e-18)
(22.5278 14.3214 -3.24075e-18)
(23.3782 14.7213 -9.54822e-17)
(24.2787 15.0536 1.93491e-16)
(25.211 15.3036 -3.2095e-16)
(26.179 15.4687 1.02753e-15)
(27.1689 15.5413 4.28005e-16)
(28.1726 15.5155 -8.81992e-16)
(29.1863 15.3857 -6.09164e-17)
(30.1984 15.1469 1.12508e-15)