/*--------------------------------*- C++ -*----------------------------------*\
| =========                 |                                                 |
| \\      /  F ield         | OpenFOAM: The Open Source CFD Toolbox           |
|  \\    /   O peration     | Version:  2506                                  |
|   \\  /    A nd           | Website:  www.openfoam.com                      |
|    \\/     M anipulation  |                                                 |
\*---------------------------------------------------------------------------*/
FoamFile
{
    version     2.0;
    format      ascii;
    arch        "LSB;label=32;scalar=64";
    class       surfaceScalarField;
    location    "119.9718890538999";
    object      phi_0;
}
// * * * * * * * * * * * * * * * * * * * * * * * * * * * * * * * * * * * * * //

dimensions      [0 3 -1 0 0 0 0];

oriented        oriented;

internalField   nonuniform List<scalar> 
19160
(
-0.000370186
-0.231137
-0.000737301
-0.231108
-0.000344662
-0.230792
-0.00109181
-0.231093
-0.000681921
-0.23077
-0.000340473
-0.230452
-0.00143156
-0.231029
-0.00100356
-0.230771
-0.000672421
-0.230439
-0.000339547
-0.230112
-0.00174486
-0.230966
-0.00130033
-0.230733
-0.000988709
-0.230455
-0.00067009
-0.230108
-0.000346716
-0.229766
-0.00202254
-0.230858
-0.00155974
-0.230707
-0.00127739
-0.230444
-0.000984944
-0.23014
-0.00068498
-0.22977
-0.000360258
-0.229405
-0.00224962
-0.230695
-0.00176633
-0.230651
-0.00152634
-0.230458
-0.00127144
-0.230158
-0.00100903
-0.229816
-0.000713449
-0.229417
-0.000378648
-0.229027
-0.00241295
-0.23049
-0.00190382
-0.230557
-0.00171882
-0.230459
-0.00151733
-0.230212
-0.00130679
-0.22986
-0.00105514
-0.229474
-0.000752408
-0.229043
-0.000400568
-0.228626
-0.00249621
-0.230174
-0.00194141
-0.230453
-0.00183073
-0.230445
-0.00170438
-0.230272
-0.00156699
-0.229952
-0.00137504
-0.22954
-0.00111854
-0.229108
-0.000799022
-0.228644
-0.000423923
-0.228202
-0.00246872
-0.229767
-0.00183852
-0.230277
-0.00183456
-0.230449
-0.00180908
-0.230341
-0.00177214
-0.230067
-0.00166375
-0.229663
-0.0014696
-0.229189
-0.00119454
-0.228712
-0.000848847
-0.228219
-0.000445695
-0.227757
-0.00229566
-0.229183
-0.00155685
-0.230048
-0.00169323
-0.230418
-0.00180017
-0.230458
-0.0019
-0.230213
-0.00190632
-0.229824
-0.00179906
-0.229334
-0.00158334
-0.2288
-0.00127597
-0.228285
-0.000895523
-0.22777
-0.000464208
-0.227292
-0.00194117
-0.228366
-0.00104281
-0.229697
-0.00135346
-0.230388
-0.00163524
-0.230583
-0.00191982
-0.230438
-0.00208358
-0.230036
-0.00209612
-0.229527
-0.00196252
-0.228955
-0.00170565
-0.22837
-0.00135266
-0.227828
-0.000935375
-0.227298
-0.000477155
-0.226815
-0.00136728
-0.227251
-0.000221263
-0.229188
-0.000744307
-0.230306
-0.00125573
-0.230768
-0.00178902
-0.230714
-0.0021684
-0.230353
-0.00234672
-0.229785
-0.00232667
-0.229163
-0.00213904
-0.228521
-0.00182164
-0.227901
-0.00141846
-0.227345
-0.000963502
-0.226812
-0.000483124
-0.226332
-0.000547163
-0.225665
0.000991419
-0.228464
0.000222439
-0.230155
-0.000580944
-0.230981
-0.00144777
-0.231109
-0.00212236
-0.23076
-0.00253058
-0.230169
-0.00266859
-0.229443
-0.0025769
-0.228725
-0.00230775
-0.228035
-0.0019218
-0.227398
-0.00146543
-0.226843
-0.000976876
-0.226318
-0.000480289
-0.225852
0.000527398
-0.223425
0.00267794
-0.227351
0.00164892
-0.22989
0.000490232
-0.231226
-0.000812609
-0.231616
-0.00188997
-0.231341
-0.00261795
-0.230672
-0.00297747
-0.229861
-0.00301998
-0.229
-0.002818
-0.228215
-0.0024544
-0.227502
-0.00199434
-0.226869
-0.00148861
-0.226331
-0.000971713
-0.225827
-0.000469018
-0.225383
0.00184124
-0.220272
0.0049411
-0.225689
0.00366233
-0.229364
0.00207962
-0.23148
0.000217011
-0.232255
-0.00139485
-0.232111
-0.00256451
-0.231395
-0.00323634
-0.230414
-0.00346873
-0.229412
-0.00336134
-0.228457
-0.00302898
-0.22764
-0.00256214
-0.226935
-0.00203169
-0.226326
-0.00148199
-0.225821
-0.000948739
-0.225347
-0.000449609
-0.224933
0.0032946
-0.215863
0.0079023
-0.223233
0.00645536
-0.228482
0.00438328
-0.231668
0.00177685
-0.233039
-0.000552065
-0.233098
-0.00231286
-0.232363
-0.00341851
-0.231213
-0.00392187
-0.22996
-0.00394989
-0.228823
-0.00366188
-0.227824
-0.00318602
-0.227016
-0.00261991
-0.226346
-0.00202526
-0.225783
-0.00144665
-0.225323
-0.000908623
-0.224888
-0.00042235
-0.224511
0.0046009
-0.209798
0.0115715
-0.219532
0.0102457
-0.227023
0.00772758
-0.231826
0.00414577
-0.234037
0.000783188
-0.234375
-0.00180837
-0.233603
-0.00349614
-0.232285
-0.00437538
-0.230759
-0.00459912
-0.229311
-0.00437585
-0.228109
-0.0038881
-0.227122
-0.00327324
-0.226363
-0.00261589
-0.225756
-0.00197643
-0.225253
-0.00138372
-0.224848
-0.000852072
-0.224458
-0.000389479
-0.224121
0.00520828
-0.201756
0.0157081
-0.213935
0.015011
-0.224297
0.0124364
-0.231732
0.00779687
-0.235477
0.00297825
-0.236232
-0.00090716
-0.235276
-0.00345558
-0.233643
-0.00483698
-0.231824
-0.00532964
-0.230029
-0.00520182
-0.228485
-0.00469931
-0.227298
-0.00401724
-0.226378
-0.00327467
-0.225704
-0.00255173
-0.225181
-0.001887
-0.22475
-0.00129455
-0.224406
-0.000783779
-0.224064
-0.000352863
-0.223768
0.00452623
-0.191878
0.0199584
-0.206006
0.0203584
-0.219282
0.0184419
-0.230303
0.0131072
-0.237042
0.00662942
-0.239128
0.000825155
-0.237964
-0.00317385
-0.235558
-0.0053392
-0.233141
-0.00618365
-0.23097
-0.00618306
-0.229047
-0.0056626
-0.227522
-0.00488769
-0.226428
-0.00402802
-0.225624
-0.0031923
-0.225063
-0.00243029
-0.224637
-0.00175936
-0.224285
-0.00118664
-0.224003
-0.000707713
-0.223709
-0.000314126
-0.223454
0.00205355
-0.180712
0.0238948
-0.195814
0.0258708
-0.211518
0.0252072
-0.226047
0.0199137
-0.237109
0.0120978
-0.242511
0.0040425
-0.242346
-0.00220154
-0.238937
-0.00581284
-0.235084
-0.00723798
-0.232087
-0.00738848
-0.229764
-0.00683842
-0.227872
-0.00593449
-0.226475
-0.00491265
-0.225543
-0.00392286
-0.224894
-0.00303058
-0.224463
-0.00225558
-0.224141
-0.00160446
-0.223867
-0.00106643
-0.223644
-0.00062736
-0.223396
-0.000276043
-0.223178
-0.00199741
-0.168929
0.0268853
-0.183703
0.0311448
-0.201088
0.0322332
-0.218544
0.0275685
-0.233702
0.0191062
-0.244118
0.00901683
-0.247485
8.24817e-05
-0.24463
-0.00588181
-0.238868
-0.00851333
-0.233809
-0.00892843
-0.230547
-0.00831124
-0.228291
-0.00722775
-0.226578
-0.00597952
-0.225408
-0.00477741
-0.224688
-0.00370874
-0.224216
-0.00279617
-0.223923
-0.002043
-0.223702
-0.00143189
-0.223502
-0.000939659
-0.223332
-0.000548501
-0.223124
-0.00024052
-0.222938
-0.00679018
-0.157503
0.0284341
-0.170478
0.0358415
-0.188399
0.039048
-0.207903
0.0355851
-0.226561
0.0270094
-0.241605
0.0154245
-0.250526
0.00386337
-0.251266
-0.00504189
-0.24547
-0.00980905
-0.237572
-0.0109328
-0.231804
-0.0102069
-0.228651
-0.00885661
-0.226662
-0.00729998
-0.225258
-0.0058024
-0.224383
-0.0044931
-0.223904
-0.00339654
-0.223615
-0.00251036
-0.223455
-0.00180625
-0.223328
-0.00125031
-0.223191
-0.000815489
-0.223065
-0.000475144
-0.222889
-0.000209494
-0.222728
-0.0112006
-0.146373
0.0282936
-0.157363
0.0397236
-0.17436
0.0453106
-0.194662
0.0434746
-0.215793
0.0354409
-0.234993
0.0227838
-0.248965
0.00886411
-0.255526
-0.00308063
-0.253227
-0.0108028
-0.244476
-0.0134421
-0.235063
-0.0127528
-0.229258
-0.0109418
-0.226566
-0.00895892
-0.225004
-0.00706254
-0.223998
-0.00542121
-0.223455
-0.00407729
-0.223223
-0.00301564
-0.22311
-0.00219242
-0.223069
-0.0015579
-0.223021
-0.00107293
-0.222933
-0.00070035
-0.22284
-0.000411309
-0.222687
-0.0001841
-0.222544
-0.0143611
-0.136088
0.0270679
-0.145147
0.042474
-0.160113
0.0507937
-0.179843
0.0508483
-0.202036
0.0439275
-0.224279
0.0308837
-0.243093
0.0149231
-0.255024
-7.28951e-05
-0.258534
-0.0111805
-0.252849
-0.0163208
-0.241597
-0.0162407
-0.231575
-0.0137647
-0.226435
-0.0110542
-0.224471
-0.00863187
-0.223434
-0.00654494
-0.222874
-0.00486433
-0.222668
-0.00357068
-0.222668
-0.00259295
-0.222709
-0.00186027
-0.222767
-0.00131614
-0.222777
-0.000909162
-0.222725
-0.00060061
-0.22265
-0.000359375
-0.222512
-0.000165642
-0.222379
-0.0156117
-0.0858256
0.0257148
-0.134735
0.0441944
-0.146868
0.0553447
-0.164664
0.0574035
-0.186399
0.052026
-0.210134
0.0392856
-0.232681
0.0219492
-0.250119
0.00403077
-0.259127
-0.010499
-0.259215
-0.0191728
-0.249997
-0.0207247
-0.237113
-0.0178306
-0.227509
-0.013855
-0.223635
-0.0105765
-0.222526
-0.00792246
-0.222057
-0.00579291
-0.221945
-0.0041888
-0.22205
-0.00301078
-0.22225
-0.00215365
-0.222416
-0.0015383
-0.222545
-0.0010941
-0.222592
-0.00076815
-0.222557
-0.000520112
-0.222489
-0.000321988
-0.222356
-0.000154514
-0.222224
-0.0158182
-0.0830668
0.0246443
-0.0847551
0.0452854
-0.135826
0.058976
-0.150499
0.0630016
-0.170262
0.0593243
-0.193697
0.0475512
-0.2184
0.0295204
-0.240252
0.00930095
-0.255389
-0.00865935
-0.260967
-0.0212246
-0.257164
-0.0257626
-0.244959
-0.0234506
-0.231493
-0.0179876
-0.223376
-0.0130922
-0.221119
-0.00958969
-0.220859
-0.00690148
-0.220948
-0.00488768
-0.221247
-0.00344703
-0.221614
-0.00243264
-0.221971
-0.00173009
-0.222224
-0.00124445
-0.222394
-0.000904314
-0.222456
-0.000655571
-0.222422
-0.000462948
-0.222349
-0.000299942
-0.22221
-0.000150351
-0.222074
-0.0149978
-0.0811859
0.0242256
-0.0826482
0.0452958
-0.0847655
0.061825
-0.138675
0.0676593
-0.155157
0.0655796
-0.176518
0.055204
-0.20135
0.0372534
-0.226133
0.0152957
-0.246247
-0.00581802
-0.25823
-0.0218815
-0.26031
-0.0306129
-0.252313
-0.0302726
-0.238137
-0.0240702
-0.225411
-0.0167879
-0.219681
-0.0116416
-0.219067
-0.00820343
-0.219557
-0.00568381
-0.220152
-0.00390291
-0.220791
-0.00268745
-0.221359
-0.0018787
-0.221823
-0.00134628
-0.222122
-0.000995416
-0.222303
-0.000754777
-0.222357
-0.000577119
-0.222307
-0.000430343
-0.222218
-0.000292497
-0.222068
-0.000152725
-0.221921
-0.013263
-0.0805368
0.0246415
-0.0816018
0.0455047
-0.0828572
0.0627233
-0.0856637
0.0714348
-0.142451
0.0707167
-0.160294
0.06192
-0.183234
0.0446936
-0.20879
0.021758
-0.232595
-0.00208051
-0.249985
-0.0219137
-0.258198
-0.0344327
-0.25649
-0.0375113
-0.245075
-0.0320129
-0.230195
-0.0225205
-0.219678
-0.0145356
-0.216787
-0.00970495
-0.217565
-0.0065746
-0.218666
-0.00437318
-0.219682
-0.00290503
-0.220573
-0.00196525
-0.221272
-0.00138071
-0.221788
-0.00102406
-0.222094
-0.000802181
-0.222256
-0.000653011
-0.222281
-0.00053451
-0.222203
-0.000421142
-0.222089
-0.000298722
-0.221922
-0.000160409
-0.221761
-0.0104855
-0.0811507
0.0258532
-0.0817486
0.0460977
-0.0821947
0.063637
-0.0837709
0.0728653
-0.0870942
0.0746938
-0.146428
0.0674388
-0.165813
0.0514853
-0.190025
0.0283242
-0.215356
0.00242121
-0.237097
-0.0208569
-0.251042
-0.0373175
-0.255313
-0.0443884
-0.249613
-0.0410155
-0.236072
-0.0305858
-0.222129
-0.0191846
-0.215029
-0.0116459
-0.214846
-0.00751195
-0.216628
-0.00484147
-0.218198
-0.00306135
-0.219525
-0.00196488
-0.220573
-0.0013217
-0.221331
-0.000966823
-0.221846
-0.000778218
-0.222118
-0.000674381
-0.222234
-0.000601296
-0.222214
-0.000526128
-0.222098
-0.000433737
-0.221954
-0.000316072
-0.221766
-0.000171986
-0.221589
-0.00694011
-0.083518
0.027983
-0.0832805
0.0472363
-0.0828872
0.0646262
-0.0831839
0.0741534
-0.0850589
0.0762348
-0.0886353
0.0716713
-0.15066
0.057161
-0.171488
0.0345853
-0.196286
0.00744387
-0.220379
-0.0188132
-0.239141
-0.0390454
-0.249314
-0.050027
-0.249674
-0.0500639
-0.240565
-0.0403907
-0.226267
-0.0262856
-0.215028
-0.0147718
-0.211903
-0.00854354
-0.213814
-0.00523647
-0.216233
-0.0031256
-0.218134
-0.00183922
-0.219651
-0.0011349
-0.22076
-0.000792438
-0.221506
-0.000656658
-0.221967
-0.000620852
-0.222171
-0.000614961
-0.222221
-0.000597505
-0.222143
-0.000549425
-0.221983
-0.000464036
-0.221806
-0.000341555
-0.221597
-0.000185434
-0.221403
-0.00265771
-0.0875034
0.0307212
-0.0862562
0.0488823
-0.0849265
0.0657779
-0.0840389
0.07535
-0.0843806
0.0774837
-0.0863078
0.0735663
-0.0905303
0.0614172
-0.154916
0.0400175
-0.17692
0.0125361
-0.201379
-0.0159071
-0.223285
-0.0396927
-0.238493
-0.0544955
-0.244845
-0.0582361
-0.241502
-0.0508682
-0.230087
-0.035696
-0.216857
-0.0200115
-0.209789
-0.0100975
-0.210349
-0.00549461
-0.213556
-0.00301899
-0.21634
-0.00154246
-0.21843
-0.000772109
-0.220014
-0.000459431
-0.221093
-0.000402986
-0.22176
-0.000465224
-0.222123
-0.000555745
-0.222231
-0.000621218
-0.222197
-0.000637771
-0.222055
-0.000598416
-0.221848
-0.00050719
-0.221641
-0.000370929
-0.221411
-0.000199175
-0.221204
0.00216091
-0.0931598
0.0340199
-0.0908021
0.0510164
-0.0883903
0.067174
-0.0863226
0.0764535
-0.0851424
0.0785068
-0.0854037
0.0751398
-0.0878814
0.0636467
-0.0927598
0.044167
-0.159066
0.0171867
-0.181571
-0.0125134
-0.204772
-0.0392918
-0.223686
-0.0577913
-0.235197
-0.0651867
-0.237894
-0.060947
-0.231423
-0.0465266
-0.219257
-0.027736
-0.209132
-0.013046
-0.20684
-0.00572276
-0.210121
-0.00264204
-0.213933
-0.000992485
-0.21689
-0.000173054
-0.219029
8.68658e-05
-0.22056
2.87706e-05
-0.221525
-0.000171735
-0.222053
-0.000397362
-0.222281
-0.000579589
-0.222272
-0.000687455
-0.222147
-0.000713723
-0.221939
-0.000665909
-0.22169
-0.000556427
-0.221455
-0.000400799
-0.22121
-0.000211444
-0.220992
0.00728385
-0.100322
0.0375718
-0.0967117
0.0533915
-0.0931771
0.0687005
-0.0899167
0.0773994
-0.0872685
0.0792571
-0.0858927
0.0764233
-0.0866872
0.065461
-0.0896956
0.0468281
-0.0954209
0.0210869
-0.162966
-0.0090013
-0.185083
-0.0379502
-0.206114
-0.0599005
-0.221577
-0.0707609
-0.229623
-0.0698784
-0.228963
-0.0576001
-0.22035
-0.0374858
-0.209507
-0.0181021
-0.204076
-0.00650232
-0.206061
-0.00189699
-0.210866
-8.61864e-05
-0.214839
0.000747899
-0.217811
0.000918509
-0.219861
0.000697517
-0.221229
0.000307245
-0.222004
-0.000104993
-0.222345
-0.000449149
-0.222412
-0.000684237
-0.222275
-0.000802242
-0.222059
-0.000815137
-0.22179
-0.000742042
-0.221504
-0.000606206
-0.22125
-0.000427419
-0.220994
-0.000220317
-0.220772
0.0124181
-0.108829
0.0411019
-0.103852
0.0558166
-0.0991368
0.0702117
-0.0946884
0.0781404
-0.0906577
0.0797885
-0.0877999
0.0774244
-0.0868938
0.0668719
-0.0880982
0.0490361
-0.0919036
0.0242949
-0.0986289
-0.00546563
-0.166502
-0.0357178
-0.187315
-0.0607233
-0.205291
-0.0749446
-0.217393
-0.0772315
-0.22227
-0.0678861
-0.218677
-0.0482637
-0.209572
-0.0253473
-0.202262
-0.00856186
-0.202016
-0.00101344
-0.206944
0.00133861
-0.212291
0.00209543
-0.216187
0.0021238
-0.219016
0.00168317
-0.220847
0.00103288
-0.221955
0.000367569
-0.222477
-0.000198488
-0.222596
-0.000609221
-0.222487
-0.000854326
-0.222223
-0.000951361
-0.221922
-0.000928256
-0.221604
-0.000818502
-0.221292
-0.000650496
-0.221027
-0.000446748
-0.220767
-0.000224855
-0.220547
0.0197232
-0.180102
0.0442802
-0.112007
0.0579884
-0.106024
0.0714877
-0.100413
0.0786183
-0.0951663
0.0800857
-0.0909549
0.078029
-0.0884045
0.0678413
-0.0878631
0.0507254
-0.0897875
0.0270285
-0.0946373
-0.0019149
-0.10218
-0.0328157
-0.169404
-0.0601418
-0.187897
-0.0777512
-0.202485
-0.0828261
-0.211798
-0.0766546
-0.213502
-0.0589475
-0.207993
-0.0342488
-0.200671
-0.0123653
-0.198458
-0.000467228
-0.202563
0.0033174
-0.208923
0.00401979
-0.214215
0.00382286
-0.217886
0.00307935
-0.220412
0.00208843
-0.221902
0.00108105
-0.222668
0.000213936
-0.222889
-0.000436919
-0.222768
-0.000857183
-0.222484
-0.00107033
-0.222104
-0.00111601
-0.221735
-0.00104111
-0.221381
-0.000886398
-0.221056
-0.000682854
-0.220791
-0.000456788
-0.220535
-0.000224113
-0.220323
0.025653
-0.20129
0.047891
-0.183713
0.0596011
-0.11362
0.0723497
-0.106886
0.0788281
-0.100623
0.080219
-0.0952996
0.0782547
-0.0911805
0.0684112
-0.0889744
0.0518042
-0.0889419
0.0291277
-0.0918867
0.00119955
-0.0977517
-0.029293
-0.105702
-0.0582947
-0.171251
-0.0790318
-0.186616
-0.0866506
-0.19866
-0.0834994
-0.204954
-0.0685827
-0.203867
-0.0438611
-0.198381
-0.017939
-0.195097
-0.000779789
-0.198146
0.00568292
-0.204928
0.00669223
-0.211595
0.00614168
-0.216534
0.00501836
-0.219825
0.00357369
-0.221897
0.00211733
-0.222939
0.000844416
-0.223298
-0.000133501
-0.223192
-0.000793579
-0.222832
-0.00116649
-0.222388
-0.00130678
-0.221914
-0.00127925
-0.221497
-0.00114112
-0.221127
-0.000936357
-0.220802
-0.000700026
-0.220548
-0.00045559
-0.220304
-0.000217853
-0.220105
0.0297797
-0.221303
0.0499798
-0.203379
0.0606157
-0.184727
0.0726126
-0.113883
0.078711
-0.106769
0.0800756
-0.100479
0.0779057
-0.0949506
0.0684391
-0.0912084
0.0523492
-0.0895194
0.0304901
-0.0903043
0.00361808
-0.0943053
-0.026123
-0.100922
-0.0551787
-0.108818
-0.0786658
-0.171617
-0.088867
-0.1844
-0.0882059
-0.193954
-0.0765967
-0.19694
-0.0531552
-0.194572
-0.0247555
-0.191564
-0.00232802
-0.193549
0.00809989
-0.200563
0.0101502
-0.208386
0.00929212
-0.214746
0.0076308
-0.219146
0.00562975
-0.221881
0.00358003
-0.22336
0.00176827
-0.223862
0.000347923
-0.22378
-0.000640379
-0.223346
-0.00123261
-0.222766
-0.00150282
-0.222192
-0.00153996
-0.221653
-0.00142361
-0.221214
-0.00121521
-0.220848
-0.000963512
-0.220539
-0.000698932
-0.220304
-0.000442682
-0.220079
-0.00020589
-0.219899
0.0320525
-0.238079
0.05034
-0.221663
0.060274
-0.203037
0.0714079
-0.183523
0.0780819
-0.113254
0.0795236
-0.106217
0.0769887
-0.0995622
0.0678562
-0.0943676
0.0523026
-0.0911618
0.0311878
-0.0902171
0.00533956
-0.0920258
-0.0235249
-0.0969034
-0.0522164
-0.103884
-0.0764563
-0.111028
-0.0898259
-0.170658
-0.0909017
-0.181704
-0.0827433
-0.187807
-0.0613329
-0.188762
-0.0319868
-0.187341
-0.0050621
-0.18883
0.0101814
-0.19563
0.0142866
-0.204699
0.0134031
-0.212497
0.0111292
-0.218244
0.00841072
-0.221927
0.00561552
-0.223916
0.00308707
-0.224679
0.0010706
-0.224585
-0.000365088
-0.224055
-0.00125873
-0.223319
-0.00170776
-0.222561
-0.0018331
-0.221898
-0.00174573
-0.221331
-0.00153118
-0.220898
-0.0012564
-0.220555
-0.000963446
-0.220274
-0.000678851
-0.220068
-0.000417742
-0.219867
-0.00018919
-0.21971
0.0324952
-0.25059
0.0490922
-0.236831
0.0583946
-0.219784
0.0688874
-0.200517
0.0756952
-0.181136
0.078256
-0.111986
0.0753925
-0.10462
0.0665467
-0.0982528
0.0515953
-0.0936603
0.0312037
-0.0911776
0.00631228
-0.0911899
-0.0214903
-0.0940604
-0.0495481
-0.0995716
-0.0739533
-0.106387
-0.0890241
-0.11183
-0.092102
-0.169458
-0.0870136
-0.177434
-0.0677914
-0.181348
-0.0387636
-0.181985
-0.00861646
-0.183787
0.0117005
-0.190349
0.0189007
-0.200244
0.0185119
-0.209808
0.0156796
-0.217048
0.0121287
-0.221962
0.00840145
-0.224713
0.00494576
-0.225775
0.0021259
-0.225734
7.71773e-05
-0.225027
-0.00123102
-0.224083
-0.00192627
-0.223101
-0.00217285
-0.222221
-0.00212398
-0.22152
-0.00189974
-0.220962
-0.00159211
-0.220562
-0.00125863
-0.22026
-0.000935183
-0.220018
-0.000639389
-0.219846
-0.00038282
-0.219673
-0.000168738
-0.219542
0.0311764
-0.258154
0.0461246
-0.247622
0.0549486
-0.233385
0.0648932
-0.21579
0.0718052
-0.196627
0.0747987
-0.177679
0.0730701
-0.109664
0.0644824
-0.102556
0.0501154
-0.0967728
0.0304635
-0.0929202
0.00649693
-0.0913623
-0.0202349
-0.0924453
-0.0473281
-0.0962804
-0.0714213
-0.102104
-0.0875504
-0.107861
-0.0920543
-0.111877
-0.0892314
-0.16724
-0.0723323
-0.172893
-0.0442443
-0.175868
-0.0123334
-0.178268
0.0125528
-0.184639
0.0237362
-0.195185
0.0245777
-0.20631
0.0213642
-0.215493
0.0169702
-0.221889
0.0121497
-0.225711
0.0075273
-0.227295
0.00364347
-0.227293
0.000756301
-0.226413
-0.00112817
-0.22513
-0.00216551
-0.223844
-0.00257845
-0.222695
-0.00258175
-0.221763
-0.00234236
-0.221078
-0.00198819
-0.220566
-0.00159826
-0.220223
-0.00122066
-0.219974
-0.000878386
-0.219779
-0.000583868
-0.219645
-0.000340035
-0.219502
-0.00014559
-0.219396
0.028216
-0.259626
0.0414013
-0.253431
0.0499822
-0.242656
0.0593985
-0.22789
0.0663179
-0.210302
0.0697407
-0.191569
0.0684978
-0.173106
0.0616278
-0.106809
0.0478186
-0.100259
0.0289114
-0.0952207
0.00585562
-0.0922789
-0.0197911
-0.0918061
-0.0457801
-0.0939933
-0.0691003
-0.0986015
-0.0856339
-0.10402
-0.0914111
-0.108504
-0.0899599
-0.111149
-0.0746555
-0.164917
-0.0480264
-0.169111
-0.0155617
-0.172639
0.0130169
-0.178732
0.0285047
-0.189408
0.0314461
-0.202053
0.0282384
-0.213184
0.0230526
-0.221575
0.0170671
-0.226807
0.0110321
-0.229215
0.00578191
-0.229433
0.00176846
-0.228305
-0.000913258
-0.226628
-0.00243209
-0.224864
-0.00307786
-0.223344
-0.00315106
-0.222126
-0.00288916
-0.221217
-0.00246891
-0.220597
-0.00200031
-0.220164
-0.00154818
-0.219895
-0.00114242
-0.21971
-0.000797994
-0.219565
-0.000515771
-0.21947
-0.000291677
-0.219356
-0.000121509
-0.219274
0.0240753
-0.255963
0.035352
-0.253576
0.0434517
-0.246901
0.0524519
-0.235709
0.0592938
-0.220866
0.0631091
-0.203671
0.0624918
-0.185563
0.0566381
-0.168117
0.0446624
-0.103653
0.0265085
-0.0978564
0.00441001
-0.0937751
-0.0201068
-0.0919632
-0.0448525
-0.0927337
-0.0671276
-0.0959659
-0.0834606
-0.100775
-0.0902568
-0.105174
-0.089563
-0.108901
-0.0762701
-0.109534
-0.0500421
-0.162901
-0.0176427
-0.16703
0.013218
-0.17284
0.0330987
-0.183326
0.0388583
-0.19682
0.0362121
-0.210027
0.0304595
-0.220591
0.0233393
-0.227847
0.0157014
-0.231476
0.00871803
-0.232152
0.00321452
-0.230879
-0.00054661
-0.228671
-0.00273169
-0.226329
-0.00370654
-0.224235
-0.00387793
-0.222617
-0.0035816
-0.221434
-0.00306807
-0.220617
-0.00248942
-0.220108
-0.00193444
-0.219778
-0.00144234
-0.219595
-0.00103097
-0.219477
-0.000699272
-0.219381
-0.000438886
-0.219322
-0.000241458
-0.219236
-9.79427e-05
-0.219176
0.0195837
-0.249119
0.0287049
-0.249316
0.0360102
-0.246135
0.0442939
-0.238743
0.0509017
-0.227317
0.0549837
-0.212741
0.0550644
-0.196243
0.050266
-0.17919
0.0397327
-0.163187
0.0232024
-0.100347
0.00216091
-0.0956073
-0.021083
-0.0927989
-0.0444433
-0.0923723
-0.0654091
-0.0944522
-0.0810917
-0.0983348
-0.0884997
-0.102532
-0.0881628
-0.106575
-0.0765015
-0.108669
-0.0526407
-0.106936
-0.0187125
-0.161831
0.0139796
-0.167792
0.0372766
-0.177018
0.046489
-0.190957
0.045041
-0.205649
0.0390628
-0.21863
0.0310415
-0.228293
0.0217909
-0.233937
0.0127447
-0.235502
0.00523916
-0.234176
-1.04688e-05
-0.231416
-0.00308969
-0.228313
-0.00451431
-0.225521
-0.00482408
-0.223289
-0.00447871
-0.22172
-0.00383205
-0.22067
-0.00309967
-0.220007
-0.00240218
-0.21964
-0.00179216
-0.219428
-0.00129072
-0.219336
-0.000893954
-0.219282
-0.000587987
-0.219232
-0.000359172
-0.219205
-0.000192452
-0.219142
-7.63959e-05
-0.2191
0.0156203
-0.242025
0.0224762
-0.24289
0.0285469
-0.241852
0.0356655
-0.237506
0.041668
-0.229509
0.0457397
-0.218073
0.0464086
-0.204085
0.0426901
-0.188667
0.0337582
-0.173216
0.0190174
-0.159002
-0.000781623
-0.0974041
-0.0225949
-0.0940954
-0.0443618
-0.0928804
-0.0638422
-0.0939392
-0.0785258
-0.0970181
-0.0860307
-0.100804
-0.0858817
-0.104813
-0.075542
-0.107534
-0.0538261
-0.107484
-0.0221747
-0.103474
0.0147736
-0.162625
0.0411419
-0.171657
0.0539612
-0.184491
0.0543383
-0.200254
0.0485499
-0.215136
0.0398993
-0.227488
0.0293245
-0.235827
0.0181367
-0.239329
0.0081868
-0.23845
0.000800345
-0.234987
-0.0035852
-0.23092
-0.00559597
-0.227232
-0.00607931
-0.224266
-0.00566195
-0.222106
-0.00482642
-0.220726
-0.00387748
-0.219892
-0.00298255
-0.219427
-0.00221066
-0.219222
-0.00158746
-0.219131
-0.00110425
-0.219125
-0.000739822
-0.219131
-0.000472873
-0.219118
-0.000281604
-0.219116
-0.000147811
-0.21907
-5.80329e-05
-0.219042
0.0125886
-0.23695
0.017472
-0.237021
0.0220574
-0.236401
0.027606
-0.233793
0.0325891
-0.228427
0.0362416
-0.220011
0.0371948
-0.208859
0.0344053
-0.1958
0.0270396
-0.181949
0.0144536
-0.168652
-0.00315158
-0.156632
-0.0243058
-0.0956932
-0.0443563
-0.0941009
-0.0622116
-0.094511
-0.0757141
-0.0967509
-0.0830282
-0.100021
-0.0828981
-0.103787
-0.0735409
-0.106814
-0.0537246
-0.107636
-0.0241908
-0.105468
0.0115983
-0.100298
0.0450686
-0.166552
0.0608555
-0.178551
0.0636925
-0.193845
0.0585098
-0.210214
0.0495105
-0.224747
0.0378273
-0.235991
0.0247898
-0.24248
0.0122693
-0.243411
0.00221933
-0.239869
-0.00416998
-0.234402
-0.00711554
-0.2294
-0.00779318
-0.225518
-0.00725016
-0.222677
-0.00614281
-0.220789
-0.00488789
-0.219715
-0.00371742
-0.219157
-0.00272335
-0.218914
-0.00193456
-0.218874
-0.00133586
-0.2189
-0.00089506
-0.21897
-0.000580826
-0.219023
-0.000361292
-0.219039
-0.000211232
-0.219052
-0.000109989
-0.219018
-4.3965e-05
-0.218998
0.0103967
-0.234515
0.0139236
-0.233402
0.0171558
-0.232119
0.0210862
-0.229881
0.0247804
-0.225984
0.0276382
-0.219824
0.0285168
-0.211333
0.0263991
-0.200853
0.020359
-0.18912
0.00988403
-0.177379
-0.00518639
-0.166617
-0.0238233
-0.157115
-0.044137
-0.0959126
-0.0603215
-0.095991
-0.0726476
-0.0975775
-0.0794362
-0.100343
-0.0792545
-0.103664
-0.0706619
-0.106666
-0.0524168
-0.108122
-0.0248039
-0.107022
0.00940157
-0.103271
0.0435677
-0.0987972
0.0672818
-0.172978
0.0725525
-0.187411
0.0684855
-0.20382
0.0594507
-0.220154
0.0468729
-0.233793
0.0320469
-0.243248
0.017191
-0.247402
0.00431662
-0.245508
-0.00460417
-0.239435
-0.0091044
-0.232413
-0.0101925
-0.227001
-0.00942212
-0.223346
-0.00791366
-0.220906
-0.00622168
-0.219455
-0.00466486
-0.218768
-0.00336382
-0.218516
-0.00235001
-0.218499
-0.00159591
-0.218614
-0.00105462
-0.21874
-0.000680008
-0.218871
-0.000427401
-0.218957
-0.000260621
-0.218989
-0.000152022
-0.21901
-8.12748e-05
-0.218981
-3.47848e-05
-0.218963
0.00873166
-0.233764
0.011477
-0.232069
0.0138021
-0.230048
0.0164718
-0.227505
0.0189562
-0.224057
0.0208783
-0.219224
0.0214018
-0.212709
0.0196721
-0.204606
0.014811
-0.195305
0.00612908
-0.185365
-0.00652027
-0.176045
-0.0226076
-0.167833
-0.0405448
-0.160707
-0.058111
-0.098123
-0.0692968
-0.0993418
-0.0754397
-0.101574
-0.0750772
-0.10452
-0.0669494
-0.107377
-0.049989
-0.109094
-0.0241369
-0.108789
0.00847963
-0.106101
0.0422512
-0.101955
0.0682197
-0.0997351
0.0805893
-0.181015
0.0780208
-0.196947
0.069223
-0.213593
0.0560629
-0.229344
0.0396467
-0.241392
0.0222321
-0.248289
0.00675634
-0.249841
-0.00497093
-0.245142
-0.0114592
-0.23708
-0.0134408
-0.229165
-0.0124405
-0.223983
-0.0103193
-0.22094
-0.00800861
-0.21912
-0.00590453
-0.218216
-0.00417807
-0.217954
-0.00285664
-0.21801
-0.00189375
-0.218201
-0.00121906
-0.21845
-0.000766664
-0.218653
-0.000473571
-0.218825
-0.000289856
-0.218927
-0.000176717
-0.218965
-0.000107586
-0.218984
-6.28873e-05
-0.218953
-3.06506e-05
-0.218933
0.00737954
-0.233405
0.00962701
-0.231914
0.0114733
-0.22974
0.0134152
-0.226992
0.0150737
-0.223622
0.0162432
-0.219422
0.0163663
-0.214189
0.014822
-0.207859
0.0108781
-0.200673
0.00386668
-0.193043
-0.00659277
-0.185292
-0.0203298
-0.178323
-0.0361486
-0.172229
-0.0520644
-0.166753
-0.0656543
-0.101766
-0.0711497
-0.103632
-0.0704193
-0.106232
-0.0625006
-0.108969
-0.0465172
-0.110849
-0.0221882
-0.111043
0.00874711
-0.109056
0.0416375
-0.105487
0.0688567
-0.102592
0.0833892
-0.102535
0.0865531
-0.189547
0.0784954
-0.206219
0.0649417
-0.222472
0.0472024
-0.2369
0.0275194
-0.24668
0.00911648
-0.250649
-0.00550191
-0.24931
-0.0142708
-0.24233
-0.0175792
-0.232942
-0.0166219
-0.224984
-0.0136195
-0.220683
-0.0104086
-0.21854
-0.00754962
-0.217474
-0.00522684
-0.217167
-0.0034853
-0.217325
-0.00224038
-0.217663
-0.0013889
-0.218031
-0.000835054
-0.218382
-0.000491817
-0.218635
-0.000289824
-0.218825
-0.000176465
-0.218928
-0.00011474
-0.218958
-7.98485e-05
-0.218967
-5.51437e-05
-0.218928
-3.1397e-05
-0.218901
0.00625498
-0.233012
0.00810531
-0.231883
0.00966682
-0.230108
0.0112623
-0.227587
0.0125282
-0.224446
0.0132962
-0.220675
0.0132031
-0.216259
0.0118233
-0.21119
0.00859957
-0.20558
0.00298134
-0.199788
-0.00551819
-0.194117
-0.0169778
-0.188644
-0.0308646
-0.183607
-0.0453409
-0.178953
-0.0581698
-0.174238
-0.0665755
-0.10634
-0.0654164
-0.108635
-0.0573798
-0.111353
-0.0420907
-0.113396
-0.019118
-0.113919
0.0102047
-0.1125
0.0418992
-0.109318
0.0694359
-0.106066
0.0858975
-0.1051
0.0903251
-0.106307
0.0866261
-0.197678
0.0732802
-0.214557
0.0544374
-0.229707
0.0325355
-0.241916
0.0113582
-0.248922
-0.00592995
-0.250221
-0.0177388
-0.245842
-0.0226189
-0.23729
-0.022179
-0.227385
-0.0182465
-0.220357
-0.0136346
-0.217457
-0.00972663
-0.216363
-0.00659677
-0.216105
-0.00427381
-0.216378
-0.00265014
-0.216915
-0.00156322
-0.217489
-0.000877307
-0.217989
-0.000470813
-0.218403
-0.000249038
-0.218676
-0.000140204
-0.218861
-9.42706e-05
-0.218948
-7.74567e-05
-0.21896
-6.9318e-05
-0.218953
-5.76597e-05
-0.218902
-3.63693e-05
-0.218865
0.00530822
-0.232606
0.00683378
-0.231741
0.00816097
-0.230377
0.00954429
-0.22839
0.0106621
-0.225721
0.011326
-0.222476
0.0112449
-0.218717
0.0101248
-0.21456
0.00755879
-0.210149
0.00308844
-0.205687
-0.0036939
-0.201612
-0.0131628
-0.197932
-0.0250318
-0.194477
-0.0381158
-0.190832
-0.0501292
-0.186993
-0.0585058
-0.182308
-0.0601693
-0.111587
-0.0517984
-0.114216
-0.0367988
-0.116644
-0.0150354
-0.117478
0.0127485
-0.116463
0.0430516
-0.113653
0.0702801
-0.110162
0.0879728
-0.108141
0.0936556
-0.10843
0.0908954
-0.110576
0.0803059
-0.204704
0.0611084
-0.221228
0.0373377
-0.234509
0.0131365
-0.243694
-0.00720634
-0.247645
-0.0215047
-0.246455
-0.0286179
-0.239844
-0.0290487
-0.230421
-0.0245918
-0.221039
-0.018147
-0.215844
-0.012573
-0.21461
-0.00837511
-0.214585
-0.0052769
-0.215101
-0.00313741
-0.215891
-0.00174017
-0.216738
-0.000881537
-0.217485
-0.000395276
-0.218064
-0.000151618
-0.2185
-5.38989e-05
-0.218762
-3.408e-05
-0.218921
-4.70719e-05
-0.218978
-6.5601e-05
-0.218964
-7.53077e-05
-0.218935
-6.90693e-05
-0.218869
-4.46135e-05
-0.21882
0.00449508
-0.232254
0.00576793
-0.23154
0.0068958
-0.230475
0.00809297
-0.228926
0.00911598
-0.226844
0.00979235
-0.224187
0.00985905
-0.22109
0.00907415
-0.217667
0.00713183
-0.214133
0.00367923
-0.21074
-0.00165234
-0.207729
-0.00923211
-0.205543
-0.019222
-0.203742
-0.0307355
-0.201857
-0.041865
-0.199096
-0.0499121
-0.195587
-0.0522082
-0.190269
-0.0460417
-0.117344
-0.0308864
-0.120129
-0.0101183
-0.121562
0.0161578
-0.120888
0.0450046
-0.118415
0.0715144
-0.114887
0.0898747
-0.112064
0.0965035
-0.110989
0.0945971
-0.112132
0.0848489
-0.115119
0.0663109
-0.209906
0.0414051
-0.225296
0.0147983
-0.236171
-0.00886158
-0.242039
-0.0259974
-0.243152
-0.0354685
-0.239605
-0.0369875
-0.231905
-0.0325664
-0.222446
-0.0244919
-0.214694
-0.0164683
-0.211949
-0.0106231
-0.212362
-0.00654082
-0.213321
-0.00372391
-0.214515
-0.00191254
-0.215719
-0.00083112
-0.216789