/*--------------------------------*- C++ -*----------------------------------*\
| =========                 |                                                 |
| \\      /  F ield         | OpenFOAM: The Open Source CFD Toolbox           |
|  \\    /   O peration     | Version:  2506                                  |
|   \\  /    A nd           | Website:  www.openfoam.com                      |
|    \\/     M anipulation  |                                                 |
\*---------------------------------------------------------------------------*/
FoamFile
{
    version     2.0;
    format      ascii;
    arch        "LSB;label=32;scalar=64";
    class       volVectorField;
    location    "119.9718890538999";
    object      U_0;
}
// * * * * * * * * * * * * * * * * * * * * * * * * * * * * * * * * * * * * * //

dimensions      [0 1 -1 0 0 0 0];

internalField   nonuniform List<vector> 
9700
(
(1.09331 0.000892513 3.966e-22)
(1.09321 0.00294014 -2.26926e-24)
(1.09057 0.000838104 2.06502e-28)
(1.09303 0.00471171 -5.14485e-22)
(1.0905 0.00272529 -5.62198e-25)
(1.08937 0.000832217 -3.95373e-22)
(1.09271 0.00660083 -8.38783e-25)
(1.09042 0.00435185 -3.93962e-35)
(1.08934 0.00268834 -3.96419e-22)
(1.08764 0.00083504 0)
(1.09225 0.00824822 3.96613e-22)
(1.09024 0.0060377 2.47287e-24)
(1.08932 0.00429574 -2.90761e-21)
(1.08765 0.00267596 3.42943e-24)
(1.08608 0.000856774 3.87647e-22)
(1.09157 0.0098338 3.97937e-22)
(1.08998 0.0074465 -1.41443e-27)
(1.08926 0.00594339 -3.93916e-22)
(1.08771 0.00428362 9.22044e-35)
(1.08613 0.00272875 3.86735e-22)
(1.0844 0.000892629 1.11629e-28)
(1.09063 0.0111453 -3.31307e-23)
(1.08962 0.00871039 2.12984e-27)
(1.08917 0.00731048 -3.90131e-22)
(1.08778 0.00591683 -4.82289e-24)
(1.08626 0.00438472 2.85062e-21)
(1.08449 0.00283161 8.6788e-25)
(1.08266 0.000939712 -3.84919e-22)
(1.08932 0.0121774 5.70819e-22)
(1.08907 0.00959431 5.71766e-23)
(1.08903 0.00850984 -3.85099e-22)
(1.0879 0.00727497 0)
(1.08646 0.00606582 3.88491e-22)
(1.08468 0.00457251 -1.37999e-35)
(1.08278 0.00297725 -3.87066e-22)
(1.08082 0.000993262 -3.21855e-21)
(1.0875 0.0128379 1.69774e-23)
(1.0883 0.0101314 -7.91137e-22)
(1.08882 0.0093139 -3.70478e-22)
(1.08804 0.00845085 0)
(1.08676 0.00749184 3.87693e-22)
(1.085 0.00635075 -2.31004e-24)
(1.08302 0.00483403 -2.60198e-25)
(1.08096 0.00315086 -3.72099e-21)
(1.07888 0.00104817 -1.67343e-25)
(1.08501 0.0130457 -5.22135e-22)
(1.08721 0.0100016 -1.32053e-22)
(1.08851 0.00966705 -4.1227e-21)
(1.08823 0.00922478 2.23483e-38)
(1.08718 0.0087486 3.78029e-22)
(1.08547 0.00790609 1.56211e-27)
(1.08343 0.00675247 -3.83458e-22)
(1.08123 0.00514327 -5.01683e-22)
(1.07901 0.00333544 3.88368e-22)
(1.07682 0.00109899 3.1892e-21)
(1.08159 0.0125547 4.129e-22)
(1.08568 0.00905239 2.20299e-23)
(1.08805 0.00936103 9.2991e-22)
(1.08846 0.0095311 -5.87628e-24)
(1.08775 0.00962941 3.32845e-22)
(1.08613 0.0093283 -2.30207e-27)
(1.08403 0.00849124 -3.81718e-22)
(1.08169 0.00723134 -3.73823e-21)
(1.07929 0.00547054 5.00946e-22)
(1.07695 0.00351193 3.30967e-21)
(1.07467 0.00114047 0)
(1.07693 0.011252 4.33578e-24)
(1.0835 0.0070796 3.18284e-23)
(1.08736 0.00819951 2.99401e-21)
(1.08874 0.00913888 -1.46138e-23)
(1.08852 0.0100683 4.08362e-21)
(1.08705 0.0104296 -9.77603e-23)
(1.08488 0.0101547 -3.93555e-22)
(1.08236 0.00919087 -3.36109e-21)
(1.07976 0.00774151 3.92772e-22)
(1.07719 0.00578264 -2.5859e-25)
(1.07476 0.00366143 -2.39082e-36)
(1.07243 0.00116797 3.74735e-22)
(1.07057 0.00888009 2.72659e-21)
(1.08043 0.00373715 2.77448e-22)
(1.08628 0.00583974 -3.46785e-22)
(1.08905 0.00781997 -1.09939e-24)
(1.08954 0.0098402 -8.74371e-22)
(1.0883 0.0111588 1.43033e-23)
(1.08607 0.0115801 -4.757e-22)
(1.08333 0.0111494 -3.37133e-21)
(1.08044 0.009939 -1.60121e-28)
(1.07763 0.00823131 3.34451e-21)
(1.07497 0.00604671 6.08966e-36)
(1.07249 0.00376699 3.80607e-22)
(1.07016 0.00117784 7.25153e-28)
(1.06195 0.00531039 -3.10393e-23)
(1.07604 -0.00143681 1.5522e-34)
(1.08469 0.00189079 -2.90974e-22)
(1.08934 0.00520614 -3.24445e-23)
(1.09088 0.00871069 -2.90067e-21)
(1.09 0.0113131 2.27139e-22)
(1.08771 0.0127461 -4.16148e-21)
(1.08468 0.0129746 -3.76992e-21)
(1.08144 0.0122194 3.54518e-28)
(1.07827 0.0106607 3.37987e-21)
(1.07532 0.00864936 -2.3088e-36)
(1.07263 0.00623339 2.54382e-25)
(1.07017 0.00381511 -5.71133e-24)
(1.06787 0.0011678 -3.58717e-22)
(1.05008 0.000376432 1.8451e-22)
(1.06969 -0.00882121 -5.60124e-22)
(1.0822 -0.00418476 -4.24353e-21)
(1.0896 0.000828293 -7.14938e-23)
(1.0926 0.00630459 3.27665e-22)
(1.0923 0.0106785 -2.95423e-23)
(1.08996 0.0134898 -3.07251e-21)
(1.08657 0.014687 -2.67977e-21)
(1.08284 0.014484 2.96531e-22)
(1.07919 0.0132581 3.42019e-21)
(1.07585 0.0112811 0)
(1.07287 0.00894966 3.7091e-22)
(1.07022 0.00631946 -1.77644e-35)
(1.06783 0.00379705 -3.53696e-22)
(1.06562 0.00113719 -4.59118e-22)
(1.03393 -0.00581258 4.66983e-21)
(1.0603 -0.0189199 -2.92227e-22)
(1.07822 -0.0128857 -3.33324e-22)
(1.08948 -0.00589996 1.3596e-34)
(1.09477 0.00212606 2.63149e-22)
(1.09537 0.0089069 -4.21349e-23)
(1.09306 0.0136469 3.03806e-21)
(1.08918 0.0161795 -4.53418e-21)
(1.08479 0.0168031 2.98469e-21)
(1.0805 0.0159584 3.41759e-21)
(1.07662 0.0141581 0)
(1.07323 0.0117331 3.78044e-22)
(1.07033 0.00909581 1.24966e-23)
(1.0678 0.00629008 -2.69357e-21)
(1.06553 0.00370957 -8.84975e-22)
(1.06344 0.00108697 -1.94434e-28)
(1.01219 -0.0132403 1.14914e-21)
(1.04677 -0.0322646 -1.42159e-22)
(1.07185 -0.0250667 -1.11797e-21)
(1.08861 -0.0156413 2.21237e-22)
(1.09719 -0.00436988 3.30409e-21)
(1.09936 0.00554366 -3.69062e-22)
(1.09726 0.0129365 -3.23049e-22)
(1.09281 0.0173641 -9.59945e-22)
(1.08751 0.0191358 3.48583e-21)
(1.08233 0.0188832 1.49046e-23)
(1.0777 0.0172457 -1.75001e-35)
(1.07377 0.0148233 4.04553e-22)
(1.07048 0.0119638 -5.46528e-27)
(1.06774 0.00906462 -3.92183e-22)
(1.0654 0.00614014 -4.66554e-22)
(1.0633 0.00355511 3.61645e-22)
(1.06137 0.00101965 4.3881e-22)
(0.983456 -0.0208383 7.96698e-21)
(1.02733 -0.0496357 1.69203e-21)
(1.06217 -0.0418471 3.31062e-22)
(1.08654 -0.0298028 0)
(1.09996 -0.0140477 1.88115e-22)
(1.10425 0.000174058 5.49325e-35)
(1.10272 0.0110285 -4.07079e-22)
(1.09775 0.0180669 -2.49316e-21)
(1.09133 0.0214906 -2.98535e-21)
(1.0849 0.0220615 1.142e-21)
(1.07923 0.0207116 7.33998e-23)
(1.07452 0.0182091 4.58891e-22)
(1.07072 0.0151779 6.2314e-27)
(1.06768 0.0119398 -3.97323e-22)
(1.06519 0.00884824 -6.79969e-22)
(1.06309 0.00587446 3.02003e-21)
(1.06119 0.00334143 4.5225e-22)
(1.05945 0.000938995 -4.22129e-22)
(0.946576 -0.0271347 -2.29586e-20)
(0.999426 -0.0702199 -3.33932e-21)
(1.04669 -0.0643967 1.39372e-21)
(1.08247 -0.0503216 1.99967e-35)
(1.10341 -0.0289686 6.87195e-22)
(1.11104 -0.00831578 8.36343e-22)
(1.10979 0.00770686 -1.77462e-21)
(1.10413 0.0181557 -3.33293e-21)
(1.09652 0.0238317 7.99855e-22)
(1.08852 0.0256053 3.56789e-21)
(1.08137 0.0246491 -1.76033e-22)
(1.07558 0.0220938 4.59278e-21)
(1.07107 0.018742 1.71724e-22)
(1.0676 0.0151747 -3.60256e-22)
(1.0649 0.0116505 -4.78053e-22)
(1.06274 0.00845429 3.21782e-22)
(1.06092 0.00550714 -2.49158e-21)
(1.05924 0.00308081 -8.45561e-22)
(1.05769 0.000849587 -2.35736e-28)
(0.901092 -0.0278477 -5.73921e-21)
(0.961283 -0.0926516 -2.54717e-21)
(1.02141 -0.0912225 7.18017e-22)
(1.07244 -0.0786824 -1.04734e-35)
(1.10665 -0.0519081 1.28791e-22)
(1.1211 -0.0226191 5.51729e-22)
(1.12067 0.00162922 7.84132e-23)
(1.11277 0.0176438 -3.97198e-22)
(1.10309 0.0262591 -8.26026e-22)
(1.09339 0.0296302 3.80859e-21)
(1.08442 0.0292658 -3.61185e-22)
(1.07709 0.0266212 3.82689e-21)
(1.07156 0.0228791 -1.57279e-23)
(1.06749 0.0187787 -1.9192e-22)
(1.0645 0.0147995 -4.88983e-22)
(1.06224 0.0111078 1.96092e-27)
(1.06044 0.00790484 4.06837e-22)
(1.05891 0.00505991 -4.26931e-22)
(1.05747 0.00278855 1.76079e-23)
(1.05612 0.000756564 3.9459e-22)
(0.851789 -0.0209724 2.15335e-20)
(0.913079 -0.114219 8.53406e-21)
(0.984413 -0.119941 -4.52817e-21)
(1.05027 -0.112534 -3.32549e-35)
(1.10334 -0.0840578 -3.04063e-21)
(1.13273 -0.0461718 -2.01919e-25)
(1.13789 -0.0103076 3.4858e-21)
(1.12741 0.0151369 -2.26158e-21)
(1.11243 0.0290228 3.81347e-22)
(1.09937 0.0344455 3.73041e-21)
(1.08844 0.0348167 6.29486e-22)
(1.07925 0.0320717 -3.85104e-21)
(1.07227 0.0277644 -1.16495e-22)
(1.06736 0.0229768 -4.55969e-21)
(1.06395 0.0183012 -8.93303e-22)
(1.06154 0.0140708 -2.46468e-27)
(1.05977 0.0103444 4.12457e-22)
(1.05835 0.00723366 -5.34658e-22)
(1.05711 0.00455965 8.60581e-35)
(1.05589 0.00248202 5.98238e-22)
(1.05473 0.000665157 3.88314e-24)
(0.800993 -0.00181517 2.25805e-22)
(0.856621 -0.133542 7.26607e-22)
(0.93598 -0.148352 -1.32097e-21)
(1.01412 -0.148861 0)
(1.08516 -0.122333 -7.54563e-21)
(1.13684 -0.0792725 -5.76222e-21)
(1.15824 -0.0317721 -1.11468e-21)
(1.15152 0.00751304 -8.16418e-22)
(1.12984 0.031039 3.66079e-21)
(1.10827 0.0405369 1.37293e-22)
(1.09311 0.0417502 -2.16911e-36)
(1.08199 0.0388069 5.05986e-22)
(1.07331 0.0337173 5.74661e-26)
(1.0672 0.0279539 9.49568e-22)
(1.06321 0.0223653 -2.84819e-21)
(1.06059 0.0173382 4.39917e-22)
(1.05883 0.0130364 5.03537e-22)
(1.05756 0.00940994 -4.32252e-22)
(1.05649 0.00648232 -4.18245e-23)
(1.05553 0.00403655 3.97027e-22)
(1.05451 0.00217905 1.80724e-23)
(1.05351 0.00058026 -3.47177e-21)
(0.751374 0.0227519 1.90453e-22)
(0.795868 -0.145558 -6.53498e-22)
(0.878065 -0.174882 9.65618e-21)
(0.964209 -0.185309 -2.05791e-35)
(1.05051 -0.163472 2.22667e-20)
(1.12283 -0.118556 1.27683e-20)
(1.16946 -0.0618163 -8.63995e-21)
(1.17976 -0.00862774 2.32795e-22)
(1.15946 0.0296482 -4.45674e-26)
(1.12672 0.0475338 4.46428e-21)
(1.10036 0.0507531 -1.852e-35)
(1.08481 0.0473285 4.36823e-22)
(1.07452 0.0411622 -1.9567e-23)
(1.06703 0.0340291 3.87549e-21)
(1.06219 0.0271659 4.10048e-22)
(1.05929 0.0210897 2.93271e-21)
(1.05755 0.0159596 8.84711e-22)
(1.05644 0.0117675 -4.37935e-22)
(1.05563 0.00836444 2.6023e-27)
(1.0549 0.00569728 9.44779e-22)
(1.05416 0.00352135 9.28102e-22)
(1.05331 0.00189634 -3.88947e-21)
(1.05246 0.000506154 -1.02279e-24)
(0.700377 0.0492922 1.18565e-21)
(0.737423 -0.149105 0)
(0.814126 -0.197172 1.2728e-21)
(0.902885 -0.219585 -7.13019e-35)
(0.999799 -0.205342 7.6614e-21)
(1.0902 -0.161236 9.37119e-21)
(1.15976 -0.0978679 1.1972e-20)
(1.1974 -0.0314577 6.7562e-21)
(1.19403 0.0221921 -7.3487e-22)
(1.15934 0.0538241 1.05438e-20)
(1.11757 0.0624021 -2.2884e-35)
(1.08933 0.0584306 4.15152e-21)
(1.0752 0.0505835 -3.19698e-22)
(1.06661 0.0416429 -5.06379e-22)
(1.06084 0.0329835 -7.19168e-22)
(1.05752 0.0254724 -1.05793e-21)
(1.0558 0.0192523 -7.01876e-23)
(1.05492 0.0142662 -7.90202e-22)
(1.05442 0.0103491 -3.32909e-27)
(1.05402 0.00727446 3.96636e-22)
(1.05356 0.00492558 -4.28079e-23)
(1.053 0.00304274 -3.67332e-22)
(1.05229 0.00164852 1.60868e-22)
(1.05153 0.00044625 3.23553e-21)
(0.650046 0.0686714 3.51173e-23)
(0.683299 -0.143766 4.83771e-22)
(0.748816 -0.214565 2.51918e-21)
(0.834732 -0.250216 -9.46983e-35)
(0.936019 -0.245331 -3.86555e-20)
(1.03917 -0.20575 -2.94435e-20)
(1.13021 -0.138148 -2.90571e-20)
(1.19226 -0.0602204 1.78759e-21)
(1.21717 0.00990318 -1.72631e-20)
(1.19808 0.057722 2.43713e-21)
(1.15002 0.0765902 0)
(1.103 0.0736033 9.86772e-22)
(1.0763 0.0627441 1.91262e-34)
(1.06512 0.051216 -5.59963e-22)
(1.05885 0.0402322 -1.06044e-21)
(1.05513 0.0306982 -3.14608e-21)
(1.05343 0.0230253 5.10195e-22)
(1.05286 0.0169973 -2.37965e-21)
(1.05277 0.0123771 8.75185e-23)
(1.05279 0.00887436 3.97443e-22)
(1.05273 0.00620677 -4.35593e-23)
(1.05247 0.00421092 -3.67169e-21)
(1.05203 0.00262562 3.05949e-21)
(1.05141 0.00144724 3.39019e-21)
(1.05072 0.000402807 3.31095e-22)
(0.612562 0.0794862 1.54631e-20)
(0.636496 -0.136951 -1.33557e-20)
(0.687683 -0.225597 -1.98165e-20)
(0.765139 -0.276473 -3.61338e-21)
(0.864199 -0.281797 -7.98345e-21)
(0.973067 -0.249233 -2.49699e-21)
(1.08005 -0.181621 9.48273e-21)
(1.16675 -0.0942253 2.56398e-20)
(1.21765 -0.00875974 9.25027e-21)
(1.22524 0.0582395 -1.43565e-20)
(1.19032 0.0922623 -3.70392e-35)
(1.13217 0.0944084 6.1683e-21)
(1.0846 0.0797306 1.40346e-21)
(1.06267 0.0633473 -9.05547e-21)
(1.0554 0.049241 -1.56332e-21)
(1.05179 0.0371213 -1.08017e-22)
(1.05023 0.0274025 3.39094e-21)
(1.05009 0.0200301 7.75786e-22)
(1.05056 0.0144905 1.07031e-22)
(1.05114 0.0104202 7.06704e-22)
(1.05156 0.00743572 5.55876e-23)
(1.05173 0.00522294 -3.50285e-21)
(1.05159 0.00359115 -3.85319e-22)
(1.05122 0.0022897 1.8498e-21)
(1.05063 0.00130031 4.1214e-22)
(1.04997 0.000376716 1.82102e-28)
(0.587784 0.0824621 4.75784e-21)
(0.604721 -0.130785 -7.99922e-21)
(0.636829 -0.2328 7.22034e-23)
(0.700506 -0.297449 9.19853e-26)
(0.79037 -0.313355 -4.27763e-21)
(0.897281 -0.289699 9.21038e-21)
(1.01264 -0.225311 5.10289e-20)
(1.11868 -0.132698 3.57314e-20)
(1.19668 -0.033033 3.2607e-20)
(1.2307 0.0510379 3.02835e-21)
(1.22307 0.106482 -3.81835e-35)
(1.17122 0.120098 -2.48374e-21)
(1.10762 0.104718 1.12487e-21)
(1.0646 0.0801727 -6.01999e-22)
(1.04984 0.0603811 -7.94981e-22)
(1.04675 0.0449585 5.97964e-22)
(1.04585 0.0326601 5.2753e-22)
(1.04636 0.0233951 -7.72577e-22)
(1.04759 0.0167174 -8.19656e-36)
(1.04892 0.0119071 2.48177e-21)
(1.05 0.00852068 5.04497e-22)
(1.05069 0.00611761 -3.46906e-21)
(1.05098 0.00437592 9.83657e-27)
(1.05088 0.00309608 3.05588e-21)
(1.05052 0.00204803 -4.63425e-21)
(1.04993 0.00121116 -1.3522e-22)
(1.04926 0.000367478 -3.10764e-22)
(0.568251 0.0811467 7.15397e-22)
(0.587982 -0.127354 2.63797e-20)
(0.604194 -0.236073 1.74713e-20)
(0.646726 -0.314176 -3.37037e-21)
(0.721383 -0.339896 4.9104e-20)
(0.818572 -0.324923 4.69679e-22)
(0.933311 -0.267345 -5.37467e-21)
(1.05132 -0.172833 4.65682e-20)
(1.15157 -0.0624656 2.05726e-20)
(1.21641 0.03884 -2.30026e-21)
(1.23335 0.113166 -1.80372e-38)
(1.20639 0.146903 -1.50216e-20)
(1.14261 0.137888 -4.58691e-25)
(1.07906 0.106073 1.70625e-21)
(1.04556 0.0752648 -1.83202e-21)
(1.03891 0.0543924 4.75511e-21)
(1.03966 0.0388802 7.29633e-22)
(1.04132 0.0272867 -1.59711e-21)
(1.04363 0.0189991 -1.55444e-22)
(1.04597 0.0133241 8.59365e-22)
(1.04792 0.00941521 -3.68659e-21)
(1.04933 0.00679178 -4.52702e-21)
(1.05014 0.00499211 -1.24101e-26)
(1.05044 0.00370713 3.21945e-21)
(1.05031 0.00274537 1.37665e-22)
(1.04989 0.00190607 1.59937e-34)
(1.04926 0.00117893 -2.3952e-22)
(1.04855 0.000373224 0)
(0.558377 0.0749285 5.42846e-21)
(0.578259 -0.12789 2.30942e-20)
(0.587676 -0.23744 1.1563e-20)
(0.612816 -0.324649 4.38845e-20)
(0.663537 -0.361627 3.11216e-21)
(0.744772 -0.354687 6.20785e-23)
(0.84965 -0.304748 8.21773e-21)
(0.969769 -0.212895 4.39239e-20)
(1.08569 -0.0953084 1.28421e-20)
(1.17505 0.0222371 1.99891e-20)
(1.22291 0.114856 0)
(1.22576 0.170159 1.29045e-20)
(1.17703 0.175477 -1.40077e-20)
(1.10674 0.143122 8.65007e-22)
(1.05018 0.0986171 -1.10199e-21)
(1.02969 0.0661773 5.9638e-22)
(1.03047 0.0461589 -3.63086e-21)
(1.03446 0.0316311 -2.06752e-21)
(1.03833 0.0214555 -1.85171e-22)
(1.04206 0.0145356 8.12789e-23)
(1.04519 0.0100732 -1.35129e-21)
(1.04751 0.00716475 -1.96685e-21)
(1.04904 0.00532927 7.77003e-22)
(1.04983 0.00411525 3.16052e-21)
(1.05004 0.00324364 3.20951e-22)
(1.04981 0.00254718 3.05805e-22)
(1.04928 0.00186188 1.67625e-21)
(1.04859 0.0011985 1.9377e-22)
(1.04781 0.000390957 -2.76609e-21)
(0.557369 0.0639982 1.17749e-21)
(0.576488 -0.132209 -7.70652e-21)
(0.580072 -0.240353 -2.90725e-20)
(0.595625 -0.330693 1.09844e-20)
(0.62692 -0.376071 3.23816e-20)
(0.682251 -0.378032 -2.54019e-21)
(0.770209 -0.337333 -6.48587e-20)
(0.882236 -0.250044 1.59828e-20)
(1.00361 -0.129486 -3.68142e-20)
(1.11213 0.000235407 -2.27443e-20)
(1.18646 0.112786 -1.08683e-35)
(1.21599 0.187701 -2.50139e-20)
(1.19748 0.21355 3.23655e-20)
(1.13778 0.188457 -1.17274e-20)
(1.06765 0.134586 1.57927e-20)
(1.02494 0.0843386 -6.60337e-23)
(1.01824 0.0544123 6.25199e-22)
(1.02473 0.0365282 -5.89144e-22)
(1.03125 0.0238514 1.66952e-22)
(1.03688 0.015597 -8.2892e-22)
(1.04158 0.0102986 -2.05189e-21)
(1.04515 0.0071601 -6.04386e-22)
(1.0476 0.00528081 3.206e-21)
(1.04906 0.0042071 3.00645e-21)
(1.04969 0.0035234 3.14413e-22)
(1.04972 0.00299638 -1.89655e-27)
(1.04932 0.00249841 -4.63094e-22)
(1.04867 0.00190617 -1.3318e-21)
(1.04788 0.00126094 -2.81862e-21)
(1.04703 0.000416954 -6.81869e-25)
(0.570906 0.0474831 -1.24248e-20)
(0.584873 -0.140747 -1.02953e-20)
(0.581878 -0.245129 -4.82481e-22)
(0.588537 -0.336896 -2.41166e-21)
(0.60797 -0.385056 -1.99659e-20)
(0.64225 -0.393113 -4.19991e-20)
(0.701767 -0.361568 -2.34677e-22)
(0.797106 -0.283887 -4.87595e-20)
(0.913819 -0.16335 -1.93198e-20)
(1.03161 -0.0245346 -3.64751e-20)
(1.12779 0.104365 2.34104e-34)
(1.18475 0.199721 2.47367e-20)
(1.19557 0.246467 2.50282e-20)
(1.15956 0.236831 -1.47962e-20)
(1.09214 0.182231 -3.50293e-21)
(1.0306 0.114265 -7.08841e-21)
(1.0063 0.0662632 7.47704e-23)
(1.01137 0.0413171 1.57841e-22)
(1.02163 0.02632 2.63e-35)
(1.03004 0.0161324 -5.54914e-22)
(1.03686 0.0100883 -4.28823e-23)
(1.04206 0.00653912 -3.25136e-22)
(1.04574 0.00474658 -2.70487e-21)
(1.04806 0.00385923 2.14708e-21)
(1.04927 0.00347284 9.1919e-22)
(1.04963 0.00323092 2.30327e-27)
(1.04941 0.00296038 -3.01952e-22)
(1.04881 0.00258475 3.16382e-22)
(1.04801 0.00202313 9.4347e-22)
(1.04712 0.00135429 -1.14848e-22)
(1.04619 0.000447116 2.6123e-21)
(0.596223 0.027639 2.52258e-22)
(0.603859 -0.153454 1.25557e-20)
(0.593164 -0.252364 8.42081e-21)
(0.591649 -0.343101 6.64082e-21)
(0.599008 -0.393127 4.9715e-21)
(0.620686 -0.402641 -8.67009e-21)
(0.65747 -0.378536 -1.99048e-20)
(0.72211 -0.308281 -2.21604e-20)
(0.823741 -0.195266 5.88e-20)
(0.941376 -0.0517579 -5.81024e-21)
(1.05071 0.0915849 2.2985e-35)
(1.13098 0.205915 3.14976e-20)
(1.16981 0.272584 -8.42179e-20)
(1.16241 0.282348 3.90608e-20)
(1.11256 0.236424 1.31596e-20)
(1.04524 0.157877 1.30279e-21)
(1.00063 0.0867759 -5.66634e-21)
(0.995419 0.0472142 -7.28561e-22)
(1.00851 0.0279115 -2.09545e-22)
(1.02101 0.0162811 4.13639e-22)
(1.03065 0.00896938 1.71249e-22)
(1.03807 0.00524255 -3.11175e-21)
(1.04334 0.00346103 2.00479e-21)
(1.0468 0.00295588 2.64092e-21)
(1.04875 0.00296136 2.77324e-22)
(1.04956 0.00314482 -5.6736e-23)
(1.04956 0.00323045 -2.96303e-22)
(1.04905 0.00311495 0)
(1.04823 0.0027819 -2.83332e-21)
(1.04727 0.00219191 -1.20353e-21)
(1.04628 0.00146448 2.64017e-21)
(1.04528 0.000477286 -2.53367e-21)
(0.634948 0.00317657 -2.63674e-21)
(0.634358 -0.168565 -9.68094e-21)
(0.615021 -0.262013 -4.14973e-21)
(0.60496 -0.349818 -3.15306e-21)
(0.600673 -0.4 7.77805e-23)
(0.609132 -0.410238 -2.38879e-20)
(0.632728 -0.389749 -4.28196e-21)
(0.673126 -0.325784 5.21958e-21)
(0.742211 -0.218615 -3.00258e-20)
(0.848689 -0.0781778 -1.06167e-20)
(0.961796 0.0746082 -1.68518e-20)
(1.05844 0.206576 -2.18747e-20)
(1.1212 0.292852 -7.69265e-21)
(1.14231 0.321906 2.60374e-20)
(1.11848 0.291028 3.90185e-21)
(1.06072 0.211857 -3.10958e-23)
(1.00335 0.12053 5.51305e-22)
(0.981131 0.0574155 9.38527e-21)
(0.991631 0.0289887 1.77607e-21)
(1.00894 0.0149922 2.39245e-21)
(1.02264 0.00703496 1.86166e-21)
(1.03284 0.00275051 -2.96834e-21)
(1.04029 0.00131315 -1.52366e-21)
(1.04521 0.00121803 3.54385e-21)
(1.04814 0.00186691 2.38975e-21)
(1.04953 0.0026106 -6.39962e-23)
(1.04983 0.00321236 1.7375e-22)
(1.04941 0.00349294 0)
(1.04858 0.00342527 -2.81256e-21)
(1.04754 0.00305772 -4.52706e-22)
(1.04644 0.00238813 1.5069e-21)
(1.04536 0.00157653 -2.53653e-21)
(1.04431 0.00050352 -7.21838e-25)
(0.685631 -0.0224994 -2.86028e-20)
(0.675804 -0.186897 -1.75275e-20)
(0.647439 -0.273248 2.88181e-21)
(0.628083 -0.357125 -7.64198e-21)
(0.612724 -0.405365 -6.58645e-21)
(0.608158 -0.415777 6.49912e-22)
(0.618243 -0.398775 1.44251e-20)
(0.645068 -0.338911 -7.86943e-21)
(0.688586 -0.236701 2.18183e-20)
(0.761324 -0.0993172 -2.45037e-20)
(0.869062 0.0553321 0)
(0.972538 0.201601 7.26667e-21)
(1.05384 0.306909 3.04468e-20)
(1.09961 0.354554 -5.74071e-20)
(1.10422 0.341159 -3.92769e-21)
(1.06734 0.270207 7.9965e-21)
(1.0104 0.166868 -9.58795e-21)
(0.972334 0.077742 -1.79769e-21)
(0.972789 0.0302714 -9.00051e-26)
(0.993272 0.0123694 4.33186e-22)
(1.01207 0.0032309 -2.22736e-22)
(1.02621 -0.000939241 5.75686e-23)
(1.03631 -0.00222473 1.92458e-21)
(1.04323 -0.00150649 1.05984e-21)
(1.04742 -9.10139e-05 -2.35229e-21)
(1.04957 0.00150977 3.43703e-36)
(1.05024 0.00279236 2.01112e-22)
(1.04995 0.00363561 2.52607e-22)
(1.04909 0.00396972 -2.73391e-21)
(1.04796 0.00384537 5.54044e-27)
(1.04673 0.00337457 2.75571e-21)
(1.04552 0.00258604 8.70416e-22)
(1.04437 0.00167593 1.10625e-22)
(1.04328 0.000522296 2.36734e-21)
(0.747709 -0.0508377 1.30159e-20)
(0.727676 -0.203635 3.71262e-22)
(0.689108 -0.285415 2.42422e-21)
(0.660666 -0.364526 -2.60541e-20)
(0.634458 -0.409387 -1.69815e-21)
(0.617559 -0.419211 1.38676e-20)
(0.614344 -0.40545 3.37437e-21)
(0.627736 -0.348625 -3.32768e-20)
(0.657168 -0.252456 -2.44982e-20)
(0.704294 -0.117252 5.18105e-21)
(0.778755 0.0374949 -3.19469e-20)
(0.879529 0.192194 -3.01975e-20)
(0.973607 0.31454 1.69144e-21)
(1.03817 0.379856 -2.59763e-20)
(1.06867 0.383789 9.4662e-20)
(1.0581 0.326809 -1.37687e-20)
(1.0141 0.221627 -2.52663e-21)
(0.968761 0.109818 5.96254e-21)
(0.95561 0.037048 -1.72344e-34)
(0.973766 0.00725105 -5.12227e-21)
(0.998675 -0.00236167 -1.97722e-21)
(1.0175 -0.00682102 -2.24744e-21)
(1.03134 -0.00727969 -1.08393e-21)
(1.0407 -0.00573635 1.07881e-21)
(1.0466 -0.00308869 -7.59942e-22)
(1.04973 -0.000427332 7.36861e-23)
(1.0509 0.00186502 2.2167e-21)
(1.05076 0.00345319 -6.69772e-22)
(1.04986 0.00434812 -2.5089e-21)
(1.04857 0.00459642 -6.33178e-27)
(1.04717 0.00432139 2.68137e-21)
(1.04579 0.00369259 -2.74463e-21)
(1.0445 0.0027608 4.60394e-35)
(1.04332 0.00174973 2.49709e-21)
(1.04223 0.000530798 0)
(0.832255 -0.0852672 -3.68768e-22)
(0.788113 -0.222837 0)
(0.738135 -0.295947 0)
(0.701297 -0.370735 3.39532e-21)
(0.664853 -0.411713 2.0768e-21)
(0.636862 -0.420714 -1.00021e-20)
(0.62089 -0.409882 -9.39856e-21)
(0.620994 -0.355422 -2.3237e-20)
(0.636757 -0.263523 -1.26397e-19)
(0.670116 -0.136801 8.53196e-20)
(0.720316 0.0211607 4.82619e-20)
(0.793831 0.178216 2.2615e-21)
(0.887757 0.314773 5.66244e-22)
(0.964118 0.39767 -3.10358e-21)
(1.01465 0.417524 -1.23897e-20)
(1.0303 0.376953 -2.92138e-20)
(1.00728 0.278758 6.70954e-21)
(0.965748 0.152788 1.69003e-21)
(0.942037 0.0516047 2.75114e-22)
(0.952868 0.00321151 8.69234e-22)
(0.981135 -0.0115699 2.01468e-21)
(1.00674 -0.0149226 1.8304e-22)
(1.02481 -0.0147516 -2.36011e-21)
(1.0376 -0.0117046 -3.22201e-23)
(1.04563 -0.00763138 2.57727e-22)
(1.05009 -0.00338016 7.3913e-23)
(1.05188 0.000185955 1.97641e-22)
(1.05194 0.0028619 6.00418e-23)
(1.05095 0.00450337 -2.42056e-22)
(1.04946 0.00526177 1.26098e-22)
(1.04781 0.00529746 2.68745e-21)
(1.0462 0.00479626 -2.62406e-21)
(1.04473 0.00397336 -2.49757e-22)
(1.04341 0.00289028 -8.15969e-22)
(1.04224 0.00178769 -4.17008e-23)
(1.04116 0.00052718 -2.31172e-22)
(0.939332 -0.120487 -2.04004e-21)
(0.865977 -0.240842 3.91835e-21)
(0.794462 -0.307329 -2.17598e-22)
(0.748722 -0.375104 -2.30576e-20)
(0.702838 -0.412233 9.34787e-22)
(0.665166 -0.42074 2.16676e-20)
(0.637266 -0.411631 -6.23666e-21)
(0.62471 -0.359565 3.6415e-21)
(0.626747 -0.271112 3.27769e-20)
(0.646492 -0.14925 2.74274e-20)
(0.684244 -0.00185365 -7.48965e-20)
(0.735233 0.163397 -8.17171e-21)
(0.805491 0.30962 -9.55801e-21)
(0.885467 0.40836 6.37746e-20)
(0.947826 0.44169 3.29547e-20)
(0.985437 0.417679 8.08672e-21)
(0.986007 0.332535 -4.23424e-20)
(0.957474 0.202193 -1.74354e-21)
(0.930188 0.0763479 4.70888e-23)
(0.932836 0.00158089 -2.49477e-21)
(0.960752 -0.0228492 1.7059e-21)
(0.99247 -0.026804 1.22989e-21)
(1.01686 -0.0248808 3.44581e-21)
(1.03355 -0.0202465 1.61717e-21)
(1.04453 -0.0140171 -1.14276e-22)
(1.05068 -0.00783441 -5.18505e-22)
(1.05334 -0.00240664 -6.42392e-22)
(1.05363 0.00165917 -2.39155e-21)
(1.05253 0.00438099 -3.95094e-21)
(1.05073 0.00582293 -1.22218e-21)
(1.04873 0.0062726 2.72484e-21)
(1.0468 0.00599266 -2.64516e-21)
(1.04506 0.00521502 6.04101e-27)
(1.04356 0.00418272 2.30714e-21)
(1.04227 0.00295705 3.94194e-35)
(1.04113 0.00178308 -1.58346e-22)
(1.04011 0.000510691 -1.85867e-28)
(1.0369 -0.148027 -3.82632e-20)
(0.960934 -0.255628 1.28418e-20)
(0.871138 -0.31385 1.04435e-20)
(0.801049 -0.377413 -1.04389e-23)
(0.747359 -0.411001 -1.19113e-20)
(0.701053 -0.419581 2.87285e-20)
(0.662763 -0.410326 1.67788e-20)
(0.637521 -0.360753 -4.98967e-20)
(0.627536 -0.275232 1.0907e-19)
(0.63265 -0.158628 -8.29871e-20)
(0.657193 -0.0142007 -7.82354e-20)
(0.69776 0.141093 -1.21067e-20)
(0.74737 0.295982 2.98648e-20)
(0.810696 0.41249 4.44001e-22)
(0.876497 0.45693 -3.1824e-20)
(0.928305 0.447929 1.65953e-20)
(0.949958 0.378657 -7.05681e-21)
(0.939647 0.252493 4.47013e-20)
(0.916767 0.109394 -2.31946e-21)
(0.913143 0.00633189 -5.50706e-22)
(0.938979 -0.0361689 -1.40452e-22)
(0.97521 -0.0426062 -1.94464e-21)
(1.00639 -0.0388023 1.92296e-22)
(1.02864 -0.0317987 -1.0863e-22)
(1.04314 -0.0230612 -3.97436e-23)
(1.05163 -0.01411 3.01456e-35)
(1.05541 -0.00636254 -1.49947e-22)
(1.05604 -0.000281014 -1.65778e-23)
(1.05475 0.00383615 -1.99729e-22)
(1.05254 0.0062608 2.33112e-21)
(1.05004 0.00726923 1.16114e-23)
(1.04766 0.00726997 -2.71425e-21)
(1.04556 0.00660481 -7.1155e-27)
(1.04379 0.00552887 2.48235e-21)
(1.04233 0.00429389 9.46244e-23)
(1.04111 0.00294983 7.52916e-22)
(1.04005 0.0017331 1.40571e-23)
(1.0391 0.00048174 2.10282e-22)
(1.11784 -0.162899 6.96906e-21)
(1.05041 -0.26239 1.01236e-21)
(0.961298 -0.315226 1.51625e-20)
(0.87144 -0.375204 1.46613e-20)
(0.796278 -0.407682 3.12064e-21)
(0.742831 -0.416383 1.83769e-20)
(0.695677 -0.405855 2.5537e-20)
(0.658844 -0.358491 4.46588e-20)
(0.637085 -0.27607 1.81994e-20)
(0.630215 -0.163644 3.81831e-20)
(0.63976 -0.02579 5.36061e-20)
(0.667782 0.128992 7.04979e-21)
(0.709293 0.278065 2.2285e-20)
(0.755493 0.404159 1.8355e-21)
(0.808804 0.465251 5.83386e-22)
(0.865576 0.466815 -5.62782e-20)
(0.90257 0.415611 -4.43814e-20)
(0.910266 0.298555 -6.16122e-21)
(0.898601 0.146904 6.93234e-22)
(0.8932 0.0176958 3.69112e-22)
(0.915259 -0.0479118 0)
(0.955612 -0.0628633 -3.08078e-22)
(0.993424 -0.0575555 5.55529e-22)
(1.02222 -0.0473591 1.66022e-21)
(1.04155 -0.0353263 -4.0886e-22)
(1.05297 -0.0230218 1.40062e-22)
(1.05834 -0.0119832 1.51842e-21)
(1.0594 -0.00334449 1.13965e-22)
(1.05789 0.00279424 -2.36116e-21)
(1.05507 0.0065004 -1.31355e-22)
(1.0519 0.00830724 -8.52928e-22)
(1.04888 0.00868974 -5.46966e-22)
(1.04627 0.00814719 4.02979e-22)
(1.04413 0.00706558 2.52205e-21)
(1.04243 0.0056998 0)
(1.04107 0.00428973 -4.03618e-22)
(1.03997 0.00286407 -1.92656e-21)
(1.03901 0.00163899 1.64187e-22)
(1.03816 0.000441814 1.99613e-22)
(1.1836 -0.169592 -4.20344e-23)
(1.12582 -0.259957 -1.31444e-20)
(1.0442 -0.30983 -2.39519e-20)
(0.954972 -0.365676 3.27941e-25)
(0.861936 -0.400557 1.45544e-20)
(0.788027 -0.410479 2.03047e-20)
(0.73387 -0.397929 -2.06553e-20)
(0.687213 -0.352241 5.90492e-20)
(0.654516 -0.273444 -2.35572e-20)
(0.636766 -0.164943 2.08196e-20)
(0.634285 -0.0320979 -8.44557e-22)
(0.648297 0.11593 1.24246e-20)
(0.678387 0.265424 2.72198e-21)
(0.719326 0.391489 1.60996e-20)
(0.758259 0.465561 2.80924e-21)
(0.8037 0.475569 -6.0986e-21)
(0.849062 0.443057 8.66846e-20)
(0.871399 0.337339 8.79969e-21)
(0.873127 0.184391 1.59542e-21)
(0.871595 0.0344254 -8.46243e-21)
(0.890858 -0.0576305 1.83196e-21)
(0.932834 -0.0852878 -1.22683e-22)
(0.978181 -0.0814873 1.82033e-21)
(1.01405 -0.0681152 -3.08643e-21)
(1.03945 -0.051929 1.73939e-22)
(1.05492 -0.0352019 4.49092e-23)
(1.06236 -0.0200599 9.31683e-24)
(1.06409 -0.0077754 1.85973e-35)
(1.06224 0.000968873 -2.18743e-21)
(1.05864 0.00653168 4.44908e-23)
(1.0545 0.00938666 2.56121e-21)
(1.0506 0.0103109 -3.71898e-21)
(1.04727 0.00993716 1.75756e-22)
(1.04462 0.00880995 2.53313e-21)
(1.04257 0.0073221 0)
(1.04103 0.00570383 -2.3709e-22)
(1.03983 0.00416368 -3.26237e-23)
(1.03888 0.0027023 1.14855e-21)
(1.03805 0.00150579 2.78489e-22)
(1.03731 0.000393259 1.87141e-28)
(1.22643 -0.167369 -2.4804e-21)
(1.18002 -0.249035 -1.88827e-21)
(1.1122 -0.295989 9.00227e-21)
(1.0306 -0.348815 -1.74297e-20)
(0.938805 -0.384766 -5.51019e-20)
(0.848341 -0.398304 -1.02325e-20)
(0.774714 -0.386185 -2.30103e-20)
(0.720802 -0.342283 -1.71395e-20)
(0.678558 -0.266601 -1.84857e-20)
(0.650746 -0.162624 -1.28058e-19)
(0.637827 -0.0345801 4.00391e-20)
(0.640041 0.108389 -8.92682e-20)
(0.658017 0.252576 -2.20403e-20)
(0.689493 0.379763 -1.52945e-20)
(0.726193 0.460896 -1.0622e-20)
(0.756531 0.478531 3.42695e-20)
(0.795269 0.458402 -2.87744e-20)
(0.827076 0.366704 -1.68328e-20)
(0.841852 0.217048 9.94032e-21)
(0.846626 0.0547827 9.56614e-22)
(0.86499 -0.0641298 -4.07994e-25)
(0.907382 -0.110442 2.52121e-22)
(0.959054 -0.110485 2.14527e-21)
(1.00386 -0.0945321 4.59738e-21)
(1.03643 -0.0739019 -1.34416e-21)
(1.05736 -0.0519235 -1.46038e-26)
(1.06786 -0.0312596 9.39574e-22)
(1.07054 -0.014309 8.87825e-22)
(1.06831 -0.00179428 -1.95793e-22)
(1.06358 0.00619898 -8.47004e-22)
(1.05814 0.0105717 2.83552e-21)
(1.05301 0.0122056 -1.39609e-23)
(1.04869 0.0120685 3.34726e-35)
(1.0453 0.0108815 -3.11507e-21)
(1.04278 0.00918581 -5.12505e-22)
(1.04096 0.00734166 -2.41025e-22)
(1.03964 0.00553233 1.99415e-27)
(1.03865 0.00392009 3.20337e-22)
(1.03788 0.00247352 -1.08478e-21)
(1.03718 0.00134166 -1.38557e-22)
(1.03657 0.000339102 -1.78742e-22)
(1.24025 -0.15584 -1.19059e-21)
(1.21107 -0.228769 -1.47077e-22)
(1.15961 -0.274066 -2.89569e-21)
(1.09137 -0.324268 1.09358e-34)
(1.0073 -0.360097 4.4892e-20)
(0.91781 -0.376823 1.68859e-20)
(0.829151 -0.367943 2.83339e-22)
(0.757097 -0.328033 1.33043e-20)
(0.707748 -0.256067 3.07098e-20)
(0.670934 -0.155589 -8.792e-20)
(0.648275 -0.0331295 2.94888e-20)
(0.640348 0.104395 -1.58407e-19)
(0.647258 0.243787 -4.2205e-20)
(0.668788 0.367856 -2.29676e-20)
(0.699342 0.45352 3.21761e-20)
(0.72831 0.478475 -2.27095e-20)
(0.753719 0.466384 4.19492e-20)
(0.784245 0.381147 2.87215e-20)
(0.806417 0.24293 2.14363e-20)
(0.819956 0.072498 -2.48725e-20)
(0.838082 -0.0660299 -8.34223e-21)
(0.879429 -0.136069 7.08026e-21)
(0.936434 -0.144226 9.27052e-21)
(0.989998 -0.12711 -2.02605e-21)
(1.03183 -0.102143 -6.68755e-21)
(1.0598 -0.0740675 -1.35269e-21)
(1.07485 -0.0468641 -7.86096e-25)
(1.07931 -0.0235197 0)
(1.07669 -0.00610325 -1.32451e-21)