/*--------------------------------*- C++ -*----------------------------------*\
| =========                 |                                                 |
| \\      /  F ield         | OpenFOAM: The Open Source CFD Toolbox           |
|  \\    /   O peration     | Version:  2506                                  |
|   \\  /    A nd           | Website:  www.openfoam.com                      |
|    \\/     M anipulation  |                                                 |
\*---------------------------------------------------------------------------*/
FoamFile
{
    version     2.0;
    format      ascii;
    arch        "LSB;label=32;scalar=64";
    class       volScalarField;
    location    "500";
    object      div(phi);
}
// * * * * * * * * * * * * * * * * * * * * * * * * * * * * * * * * * * * * * //

dimensions      [0 0 -1 0 0 0 0];

internalField   nonuniform List<scalar> 
10720
(
-0.000691426
0.000105577
-9.54636e-05
0.000615253
1.39465e-14
-2.80028e-14
-0.000396339
0.000165804
-0.000179506
-6.66132e-05
0.000373928
-9.80632e-05
-7.77438e-05
1.77048e-05
-1.29008e-05
5.87258e-05
-0.000160402
0.000218971
-5.37899e-15
1.39825e-15
-0.000110026
6.6751e-05
-9.10994e-05
6.90845e-05
1.38267e-05
1.02884e-05
-3.11858e-05
5.67172e-05
-3.43831e-06
-4.45502e-05
4.69024e-05
2.37208e-05
-4.70008e-06
1.60243e-06
-1.79683e-05
2.64906e-05
7.62635e-05
-2.18947e-05
5.51133e-05
-0.000233888
0.000535811
0.000192596
-0.000176306
-8.05172e-05
0
0
6.15531e-06
-5.64222e-06
1.79159e-15
-4.72831e-05
-8.64929e-05
7.8966e-05
0.000108079
-0.000229919
6.28311e-05
0.000111698
-0.000114037
-2.03022e-05
-1.23095e-05
9.51568e-05
-1.01773e-05
-4.16356e-05
8.97205e-05
3.82451e-06
-7.18738e-05
-1.15957e-05
6.13469e-05
-4.82874e-05
-8.87648e-06
1.44122e-05
2.75188e-05
-2.32336e-05
-7.04116e-06
3.44696e-06
5.82e-06
-3.25603e-05
-7.39982e-06
1.34577e-05
0.00047631
-0.000176095
-0.000157939
-5.17278e-15
0.000206147
-0.000442126
0.000111446
-9.20348e-05
-8.97837e-05
0.000289651
-8.44652e-05
-4.26274e-05
-5.68393e-05
0.000100767
-0.000157522
4.34282e-05
6.45021e-15
0.000113077
2.14737e-15
-7.52583e-05
-1.71545e-05
-3.1284e-05
-1.42594e-05
0.000104024
-1.18468e-06
-5.28362e-05
5.39663e-05
-3.66033e-05
1.6244e-05
-1.62546e-05
4.16687e-05
-1.02145e-05
1.55664e-05
1.87069e-05
-3.35618e-05
3.76222e-05
4.56072e-05
6.21856e-05
8.60895e-05
0.00019347
0.000268555
-0.000394789
-0.000219522
0.000134506
-8.53839e-15
0
-5.30329e-05
0
4.57973e-05
0
-3.93438e-05
-2.515e-15
6.66276e-05
-0.000122179
0.000136921
-2.55236e-06
-5.58836e-05
-2.12196e-06
5.02334e-05
-1.75823e-06
-6.39613e-06
1.01754e-05
-9.77639e-05
2.52414e-05
-8.75025e-06
1.39331e-05
1.8109e-06
3.41013e-05
2.84726e-06
-1.09047e-05
-1.79764e-05
3.9462e-06
1.02533e-06
-2.75051e-05
4.19645e-05
-4.6246e-05
-1.05099e-05
-9.56161e-06
-0.000397776
0.000295959
-0.000263683
-0.000127056
0.000117971
0
0.000307803
-0.00019106
0.00017745
-4.1266e-05
-0.000114469
1.40864e-05
0.000181683
8.94524e-06
-0.000150551
0.000142957
-0.000160742
0.000105045
3.84066e-05
-5.2656e-05
-1.60368e-05
5.86145e-05
-1.3388e-05
3.39521e-15
-5.58149e-05
4.06787e-05
3.24083e-05
-1.6017e-05
-1.22774e-05
6.28522e-06
7.62612e-06
-2.89118e-05
5.26065e-05
-3.34976e-05
1.30572e-05
-3.95796e-06
5.03838e-05
-5.88808e-05
1.48891e-05
0.000565789
7.53597e-05
-0.000458436
-0.000122665
0.000283399
-5.19973e-05
-1.93889e-05
1.83514e-05
-6.00964e-15
-4.06362e-05
0
3.5767e-05
9.97428e-05
-0.000123161
0.000170352
-0.000234799
0.000119513
6.55756e-05
-0.000159615
7.27536e-05
-8.28101e-05
1.50672e-05
1.90057e-15
7.46914e-05
1.81271e-05
-6.19032e-05
4.03923e-05
-3.16391e-05
4.59185e-05
-3.65462e-05
1.37919e-05
7.03659e-06
-3.52086e-05
7.764e-06
1.98602e-05
-3.29087e-05
1.82445e-05
-1.65842e-05
-2.09504e-16
0
0.000438772
-0.000444484
5.44831e-05
-1.41169e-14
4.73117e-05
-8.99464e-05
8.43986e-05
3.94844e-05
-1.28463e-14
0.000103352
-3.19844e-05
-8.88499e-05
8.47592e-05
1.51372e-05
-9.72478e-05
5.95229e-05
-7.80012e-05
5.36143e-05
-6.54645e-05
1.03986e-15
2.74426e-05
6.28107e-05
-1.15035e-05
4.2059e-05
-9.588e-06
-6.98888e-05
7.95871e-06
2.8993e-05
1.32e-05
2.40352e-05
-3.28161e-05
4.97733e-06
3.17018e-05
-2.88395e-05
1.12411e-05
4.42931e-05
4.02591e-05
8.74482e-05
-0.000136278
-8.87074e-15
7.61486e-15
-0.000155436
-0.000192373
1.22803e-14
8.72286e-05
-8.36241e-05
3.80452e-05
-5.00843e-15
0.000171829
-9.75235e-05
3.04716e-05
-0.000227457
2.63721e-05
0.000194657
-0.00011188
2.05137e-05
9.37834e-05
-5.13455e-05
-7.79886e-05
8.51777e-05
2.57995e-05
-3.5176e-05
3.2032e-05
-6.8111e-05
3.54581e-06
-1.77631e-05
6.32332e-05
-3.01255e-05
1.12132e-05
-2.27411e-05
3.02852e-06
1.01035e-05
-2.63194e-05
1.51982e-05
-1.72749e-05
-2.19814e-05
-2.00207e-05
0.000340968
-7.41216e-15
0.000235601
-0.0002814
-0.000220123
-8.22701e-05
0.000316037
-0.000186626
-7.03382e-05
-3.32211e-05
3.11011e-05
1.20894e-14
0.000216205
-7.51174e-05
-9.26364e-06
-5.98109e-05
-7.08214e-05
5.42656e-05
3.32293e-05
-9.15035e-05
5.59752e-05
-5.34692e-15
1.63509e-15
5.40732e-05
-2.97051e-05
1.80756e-05
8.24053e-06
-3.75599e-05
6.84546e-06
-6.23636e-06
-2.27204e-05
3.62064e-05
1.41265e-05
-3e-05
2.3398e-05
1.06417e-05
3.22574e-05
-2.93175e-05
-2.67189e-05
0.000289043
5.45371e-05
-1.28591e-14
0.00013216
0.000123106
-0.000151324
-0.000214448
3.46548e-05
-9.29194e-15
-6.41499e-05
-3.08915e-05
5.90771e-05
-0.000139566
0
0.000122437
-0.00013611
8.37333e-05
1.9239e-05
-8.81295e-05
1.11728e-15
-1.4684e-05
8.02158e-05
-1.68585e-15
-4.41613e-05
-2.01191e-05
6.42184e-05
-8.36361e-06
-5.10703e-05
3.05572e-05
-2.84678e-05
-7.95085e-06
3.61968e-05
-5.73043e-06
-8.69229e-07
2.40095e-15
2.49585e-16
-1.63544e-05
-2.97277e-06
-1.08376e-05
1.34612e-14
0
-0.000402015
0.000405272
-0.000382219
0.000286944
6.95009e-05
-6.60979e-05
0.000188063
2.98197e-05
2.80711e-05
-0.000210737
-1.71027e-15
9.54524e-15
0.000191517
-2.36291e-05
-9.63695e-05
-3.35337e-05
4.63112e-05
1.42025e-05
1.81249e-15
-1.20137e-05
0
-1.41033e-15
9.32102e-06
-3.40654e-05
3.88544e-05
-1.41778e-05
3.23194e-05
-4.71368e-05
5.36914e-06
2.93465e-05
-2.2272e-05
3.64989e-05
-3.69088e-06
-3.35781e-05
6.10768e-05
0
5.06241e-05
-0.000493373
1.29762e-14
0
7.53253e-05
0.000105612
3.25249e-05
0.000278042
-9.07287e-05
8.85065e-05
-0.000142653
0.00027764
0.000107287
2.55535e-05
-0.000169316
2.27125e-05
0.000105689
5.87176e-05
-7.21476e-05
-6.62194e-05
4.54334e-05
2.76414e-05
-1.25864e-05
-6.8614e-05
1.03933e-05
0
6.0531e-05
-1.57783e-05
7.1946e-06
-2.29557e-05
-5.37969e-06
1.90616e-05
-3.9686e-06
9.03505e-07
-2.26194e-05
-3.74278e-06
1.36197e-05
-2.78683e-05
-1.12563e-05
-3.56163e-16
0.00041575
0
-9.57156e-15
-0.000351469
0
8.69961e-15
-8.49626e-15
-0.000351462
0.000167687
7.42862e-15
-0.000151999
0.000119468
-8.98441e-05
0.000125866
-0.000195395
0.000107033
1.68012e-05
3.50232e-15
2.86705e-05
-3.96552e-05
-3.6544e-05
-3.36942e-05
7.24638e-05
-9.54581e-06
-8.77212e-06
3.20924e-05
-3.66325e-05
2.6754e-05
-1.83075e-05
1.11313e-05
1.01484e-05
9.24898e-06
8.42621e-06
-2.3022e-05
4.84761e-16
8.82161e-16
2.89072e-05
-5.25373e-05
0
0
0
0
8.97826e-15
-0.000212201
-5.04993e-05
-3.2136e-05
0.00021153
-0.000130136
-7.61669e-05
0.000249589
0
-4.67505e-05
8.91526e-05
-2.10544e-05
7.87302e-05
3.65826e-05
-0.000152119
3.10841e-05
8.54167e-05
-9.10267e-05
-1.18458e-05
7.53323e-05
-7.82412e-05
2.67609e-05
1.62971e-05
1.48791e-05
-1.35784e-05
-3.09645e-05
4.51763e-05
-2.57382e-06
-4.73774e-06
-2.60657e-05
2.33477e-05
-3.54216e-06
-6.70876e-16
-2.63799e-05
1.33177e-05
-2.43083e-05
-9.94112e-15
0.000340082
-8.2426e-15
1.69682e-14
-0.000290406
-7.61968e-15
0.000270132
7.2118e-15
-1.03785e-14
-9.61243e-05
9.14292e-05
6.49854e-05
-2.04578e-05
3.8362e-05
-8.96582e-05
6.67961e-05
-1.24087e-05
6.75641e-05
-3.99056e-05
-2.45875e-05
2.27128e-05
-2.09873e-05
9.69654e-06
-8.96261e-06
4.9516e-05
-1.51121e-05
-3.45275e-05
3.78527e-05
1.72801e-05
-3.15388e-05
3.35641e-05
-4.37194e-06
-1.1954e-05
3.63007e-05
-3.30546e-05
3.00815e-05
2.73624e-05
4.97283e-05
2.27076e-05
-0.00036465
-0.000348113
0.000375605
-2.79085e-05
0
0.000211396
-8.61818e-05
-2.3174e-05
9.20006e-05
0.000226056
-6.22684e-15
6.12935e-15
5.93149e-15
-0.000205241
-1.95028e-05
9.15744e-05
-6.83392e-05
7.91574e-05
-4.37592e-05
-2.67565e-05
0
3.34365e-05
6.07471e-05
-6.43977e-05
1.67927e-05
3.07063e-05
-5.61119e-05
1.28103e-05
5.84613e-06
9.6011e-06
1.07022e-05
-7.25103e-06
-1.0912e-05
-7.36295e-06
1.67602e-05
-2.13529e-05
5.54906e-06
-2.26895e-05
-6.39071e-16
8.59288e-15
-8.18187e-15
-7.12702e-15
1.47993e-14
0.000254046
-6.68402e-15
-0.000238511
0
1.23446e-14
2.99274e-15
8.24692e-05
-9.8162e-05
7.44952e-05
-0.000140217
8.22148e-05
4.6083e-05
-0.000115897
7.97796e-05
-6.16665e-05
6.85522e-05
-5.29045e-05
-2.93986e-05
3.63082e-05
1.68245e-05
1.07707e-15
-3.55688e-05
1.95205e-05
2.37977e-05
-5.43562e-06
-4.96345e-06
2.71808e-05
2.06628e-05
1.04583e-15
-3.43389e-05
0
-2.37048e-15
1.43759e-15
-4.70603e-05
0
-8.75118e-15
0
-0.000149528
-0.000144944
6.82189e-05
-4.22086e-05
0.000101547
-6.10427e-05
-2.03441e-05
0
-0.000201667
0.000200247
-0.000195264
0
2.50511e-15
0.00010219
-6.38036e-05
0.000103735
-0.000109464
7.54064e-05
1.59585e-15
-5.24103e-05
-1.90436e-05
1.73025e-05
7.90004e-06
1.4459e-05
-6.61095e-06
-6.04153e-06
-1.10358e-05
5.03723e-06
6.89468e-06
-1.75448e-05
6.1152e-06
6.96551e-06
-3.17183e-06
2.88677e-06
-7.87795e-06
-1.67019e-05
-1.21051e-15
0
0
0.000222695
0
-0.00022274
0
0
0.000204912
-0.000198558
0.000193614
5.16112e-15
0.000160074
-5.0832e-05
0
-1.50696e-05
-2.82426e-05
5.2768e-05
-2.21238e-05
-1.14292e-05
1.06123e-05
-1.97007e-05
-3.65869e-05
1.69858e-05
-3.15693e-05
2.91822e-05
-2.6782e-05
1.83892e-05
2.24363e-05
5.12834e-06
-4.68594e-06
1.18772e-15
2.1681e-15
1.97777e-15
3.24813e-05
2.95922e-05
2.2432e-15
2.45094e-05
2.22683e-05
2.03688e-05
-7.59246e-15
0
6.46993e-05
-2.09834e-05
-1.97864e-05
-0.000110295
-8.875e-05
-7.15789e-05
-0.000108087
0
0
0
-0.000178276
0
0.000166983
-0.000158276
7.44099e-05
-9.7065e-05
3.84871e-05
-3.54e-05
3.24227e-05
-6.89865e-05
1.79037e-05
4.87925e-05
-2.22929e-05
-1.36131e-05
6.22947e-06
-1.13944e-05
1.56206e-05
4.75632e-06
-2.43176e-05
2.11202e-05
-1.12036e-05
1.31773e-05
-1.80062e-05
5.46378e-06
-2.23676e-05
6.77353e-06
-2.06527e-05
0.000233608
0
-0.000193805
0
0.000195558
-0.000186372
-5.18392e-15
0.000182199
-4.92165e-15
-0.000173795
-4.65273e-15
0
-4.62325e-05
-6.08158e-15
1.38006e-05
1.29725e-05
-3.64578e-05
6.24354e-05
-6.34954e-05
3.9402e-05
-1.83275e-05
4.26588e-05
2.20447e-15
-7.40103e-06
-4.79924e-05
5.03967e-05
4.00534e-15
-1.05736e-05
3.35654e-15
-6.13807e-16
4.04168e-05
-3.6908e-05
-9.34882e-16
-3.07193e-05
-2.79961e-05
2.54917e-05
1.28755e-15
-4.21411e-05
-2.1415e-15
-1.32114e-14
0
9.36119e-05
-1.82719e-05
0.000132913
6.90203e-05
-4.66362e-05
0.000110324
-8.86332e-15
-0.000160092
4.52277e-15
0
0
0.000159573
-0.000154342
4.07981e-15
-7.70201e-15
1.79954e-15
0.000108214
-3.32275e-05
2.03063e-05
2.57073e-15
-4.20583e-05
2.29247e-05
-2.79485e-05
3.84377e-05
5.86817e-06
2.2361e-15
-4.9121e-06
-1.34696e-05
7.79312e-06
-2.02213e-05
2.11843e-05
-1.86943e-05
5.67825e-06
-1.03398e-05
7.05543e-06
1.18598e-15
1.95595e-05
0
1.0836e-14
0
-0.00017913
0
0.000164359
0
-4.49847e-15
0
-4.33102e-15
0
0.000145808
-5.83043e-15
7.99505e-05
-1.26303e-05
-1.07418e-14
-8.94895e-05
7.96353e-05
-1.1751e-05
-3.17022e-16
-8.52074e-06
7.95297e-06
-2.22695e-05
-2.88788e-15
-6.44022e-05
8.22281e-16
-7.54179e-16
-5.53079e-15
6.33063e-16
-1.1585e-15
-3.17786e-15
-9.67879e-16
-8.83719e-16
1.61255e-15
7.35032e-16
1.33883e-15
2.19475e-05
-1.1067e-15
1.82672e-05
-0.000207644
0.000200302
-8.15223e-05
3.19078e-05
-6.79252e-05
-3.51198e-05
8.18422e-05
-8.3411e-05
0
0
0.00014646
-0.000149003
0.000148376
-0.000146519
0.000142583
0
0
5.04569e-15
-0.00011263
0.000103912
-3.81422e-05
-8.70201e-06
1.5802e-05
1.43557e-05
-1.97022e-05
3.61648e-05
-1.65786e-05
-1.01242e-05
2.31655e-05
4.23772e-06
-3.87356e-06
-1.98149e-05
-6.13708e-06
1.47327e-05
-1.61148e-05
-4.89161e-06
-4.45098e-06
0
-1.85221e-05
-0.000178137
0
-8.20396e-15
0.000157471
0
-0.000145077
0
0
-0.00014155
0.000140101
-0.000136224
-0.000131976
0
0
2.31024e-05
-3.27717e-05
2.14215e-15
1.93279e-05
-9.05384e-07
-5.08174e-05
2.37532e-05
-2.22285e-05
3.46737e-05
2.70555e-15
-5.03526e-15
2.31933e-15
-5.67821e-15
1.30252e-15
1.19371e-15
-2.18612e-15
4.00034e-15
-2.74291e-15
0
-3.8119e-15
1.39049e-15
2.28176e-05
1.15271e-15
-3.77216e-05
1.72977e-05
0.000181556
-0.000175479
5.69186e-05
6.97866e-05
-6.61175e-05
7.39252e-05
6.65632e-15
0
0.000125722
7.07653e-15
-0.000131621
0.000134897
-0.000135247
3.73135e-15
0
-3.51189e-15
6.68327e-15
-6.28496e-15
-0.000105446
0
-1.24225e-15
-2.26808e-15
-2.96758e-05
-4.71749e-05
1.8511e-05
1.70072e-05
-3.64175e-05
3.33887e-05
-1.31068e-05
-1.24864e-15
-7.31496e-06
3.00851e-06
-1.83177e-06
1.11445e-05
-1.52423e-05
9.2553e-06
-1.05279e-05
-2.65403e-16
0
8.66431e-15
0
0
0
0
-7.11835e-15
7.23271e-15
0
0
-1.3967e-14
0.000122778
-3.31376e-15
3.20718e-15
0
0.00011614
-7.01101e-05
4.73019e-05
-5.34444e-05
-5.8565e-06
1.08867e-15
-5.10139e-16
4.82874e-05
-6.47377e-06
-8.44436e-16
1.57531e-15
5.23571e-05
-1.33553e-15
2.45318e-15
4.05353e-05
0
9.43997e-16
1.72712e-15
-1.57861e-15
1.44155e-15
2.36893e-05
0
1.96459e-05
9.90435e-16
1.63793e-05
-8.82948e-15
0
-2.49038e-05
-6.1195e-05
1.16085e-05
-6.49325e-05
-8.44556e-05
0
0
0.000113833
0
6.77906e-15
3.41982e-15
-0.000123282
0
0
0.00011203
0
9.86802e-05
-5.06986e-15
8.39862e-05
2.12896e-15
-9.66369e-16
8.77768e-16
3.47704e-05
-4.26417e-05
1.95854e-05
-1.7972e-05
2.88305e-05
-2.26349e-05
3.45275e-06
1.54721e-05
-2.27936e-05
1.05368e-05
2.40264e-06
-1.75107e-05
-7.96818e-06
5.0212e-16
4.60959e-16
7.60513e-15
-0.000131842
0.000113647
-6.78617e-15
0
0
0
0
0
-0.00011293
0.000110621
-2.99667e-15
5.82185e-15
-5.59509e-15
-6.6915e-15
-6.42248e-05
8.69e-06
-4.55362e-15
-1.54494e-05
4.35701e-05
2.72911e-05
-3.20924e-05
-1.81221e-05
-7.90316e-16
-7.38984e-16
1.36521e-15
-4.52539e-05
-2.30958e-15
4.24058e-15
0
3.20966e-05
1.63097e-15
-2.68691e-05
6.81321e-16
-2.24013e-05
4.08312e-05
-1.03164e-15
-5.06283e-05
0
0.000139656
0
5.45669e-05
-3.22464e-05
3.06187e-05
-1.90454e-05
6.51532e-05
0
-9.93018e-05
-5.6437e-15
-5.90134e-15
-6.13311e-15
-3.11346e-15
0.00011297
3.10493e-15
0
-0.000104185
0
0
8.55685e-05
-7.87699e-05
-3.99521e-15
0
-5.93302e-05
-1.51003e-15
-4.00758e-05
2.30324e-05
-2.53857e-05
1.55268e-05
-1.42328e-05
3.25889e-06
3.57843e-06
-8.72419e-06
1.24509e-05
4.54406e-06
-1.65624e-05
9.42199e-06
-4.74941e-16
1.57257e-05
6.68548e-15
0
-9.99235e-05
0.000107939
-0.000104441
0
0
0
5.61779e-15
0
-5.53299e-15
0
2.64084e-15
-9.17249e-05
9.77427e-15
-5.03997e-05
4.78682e-05
-3.0201e-05
2.13806e-05
2.01483e-05
-2.53078e-05
-5.96776e-06
-5.63274e-06
-1.47848e-15
2.77189e-15
-4.61939e-05
-3.5426e-15
3.91555e-05
9.98655e-16
-1.83335e-15
-3.02839e-05
2.77397e-05
2.53831e-05
1.28794e-15
-2.11811e-05
0
1.75782e-05
1.59612e-05
0
-0.000122799
0
-8.62721e-05
7.56567e-05
8.98874e-06
2.51744e-05
-2.46538e-05
0
-4.90441e-15
9.08439e-05
-9.55575e-05
9.99437e-05
0
0
0
0.000100509
-2.68779e-15
-2.55238e-15
2.39474e-15
-2.22392e-15
2.04949e-15
0
6.12631e-05
-3.08815e-15
5.10497e-05
4.7063e-06
-3.03263e-05
3.1864e-05
-1.09721e-05
1.86251e-15
-1.23005e-05
2.81573e-06
-2.57571e-06
4.70737e-06
-4.29657e-06
3.916e-06
-1.24768e-05
4.49188e-16
-1.48883e-05
0
0
-9.77058e-15
-9.54129e-05
0
8.90931e-05
0
5.05504e-15
-5.02594e-15
0
0
8.82311e-05
0
4.6315e-15
8.03233e-05
-3.19973e-15
-7.31872e-06
-6.94409e-06
-6.83956e-16
3.3522e-05
-2.34505e-05
2.21816e-05
-3.14963e-05
4.98011e-05
0
-3.61066e-15
2.21952e-15
2.04493e-15
1.88095e-15
1.72805e-15
0
7.2679e-16
-2.39753e-05
1.21712e-15
0
1.8258e-05
0
-4.52795e-05
0
0.000108163
1.16761e-14
9.276e-05
-6.91651e-05
4.20188e-05
-5.92345e-05
7.26392e-05
-7.54982e-05
0
-8.1197e-05
4.76719e-15
-5.01648e-15
-9.28531e-05
0
-9.48412e-05
-9.29476e-05
8.99434e-05
0
-8.06061e-05
2.08147e-15
5.76078e-15
0
0
1.44716e-15
-4.78853e-05
6.13372e-16
-1.6292e-05
-7.49658e-06
2.06698e-05
-2.84669e-05
1.16046e-05
-1.06326e-05
1.67388e-05
-8.89753e-06
2.03103e-06
-1.85158e-06
-5.05719e-06
-4.24785e-16
1.40959e-05
-1.03847e-14
0
7.76031e-05
8.44261e-05
-9.09529e-15
0
0
-4.51132e-15
4.49714e-15
0
-4.48954e-15
-7.97333e-05
0
6.3172e-15
4.06602e-15
0
-4.6967e-05
-1.27644e-05
3.63256e-05
-3.78422e-05
2.17139e-05
1.42921e-15
-1.95549e-05
-4.6532e-05
4.38472e-05
4.51719e-15
-3.75615e-05
3.46461e-05
0
-1.62827e-15
-1.49547e-15
0
-2.26413e-05
0
0
1.72633e-05
1.74539e-15
1.58443e-15
2.63205e-05
-1.05893e-14
0
0
1.54396e-05
-4.27067e-05
2.61694e-05
-6.42699e-05
6.70072e-05
0
7.2596e-05
0
0
0
8.65868e-05
4.84242e-15
-4.76868e-15
2.3169e-15
0
-4.17809e-15
7.01511e-05
0
1.64571e-15
5.37939e-05
1.3555e-15
-4.98434e-15
2.30308e-15
-1.91388e-05
1.05789e-05
1.29761e-05
-2.98104e-06
-1.91547e-05
-2.50897e-06
-1.63145e-06
1.05092e-05
-1.19899e-15
-8.75364e-06
-9.56471e-06
1.20494e-15
-1.33435e-05
9.16959e-15
8.86259e-15
0
0
-7.26634e-05
0
0
0
0
0
-7.28356e-05
7.20259e-05
-7.08871e-05
-5.74014e-15
0
1.78205e-15
6.14687e-05
-4.10299e-05
3.9021e-05
-8.46771e-06
-3.01394e-05
1.4335e-05
-1.36506e-05
4.34547e-05
-2.27916e-15
1.05915e-15
0
2.71216e-15
-1.66653e-15
2.30085e-15
2.54002e-05
-1.2944e-15
2.13779e-05
-1.95716e-05
-9.93072e-16
1.63207e-05
1.48651e-05
-2.69853e-05
0
0
0
-2.62194e-05
3.89699e-05
3.71327e-05
1.15728e-05
0
-5.95142e-05
0
0
0
0
4.25767e-15
-4.39263e-15
2.22531e-15
0
0
-2.0618e-15
7.02439e-05
-6.55867e-05
0
-4.62375e-15
2.79628e-15
0
1.16765e-15
-3.89284e-05
3.59583e-05
-1.32647e-05
3.05376e-06
1.12348e-05
2.58029e-06
-7.1027e-06
2.66876e-06
-7.94309e-06
-3.62924e-06
3.31028e-06
3.01461e-06
0
1.26311e-05
0
-7.8417e-15
0
-7.36177e-15
-7.16059e-15
6.23843e-05
0
-3.5963e-15
-3.60369e-15
0
0
3.61062e-15
6.42088e-05
1.73781e-15
6.07972e-05
-5.86324e-05
-5.62739e-05
1.07589e-05
-1.02576e-05
-9.76205e-07
1.85799e-05
-4.43096e-06
1.76198e-15
-5.62861e-16
-2.13301e-15
1.98577e-15
-2.75671e-15
-8.49607e-16
2.35175e-15
3.61126e-15
0
-2.19965e-05
0
1.84861e-05
9.38426e-16
-8.56383e-16
0
-1.41602e-15
1.17912e-05
7.44599e-05
0
0
-4.02139e-05
-4.38182e-05
2.56146e-05
5.60305e-15
-5.28961e-05
0
6.44728e-15
0
-6.67045e-05
6.9658e-05
0
7.3633e-05
2.03225e-15
0
0
3.63648e-15
-1.70102e-15
-1.57502e-15
4.32797e-15
2.61696e-15
-2.37559e-15
0
1.01336e-15
-3.74875e-15
-6.23509e-06
1.14948e-05
7.93676e-06
-1.7028e-05
1.11685e-05
-1.06515e-05
5.62718e-06
-1.71484e-06
-4.69375e-06
1.58211e-15
-1.29325e-05
0
-7.17457e-15
-6.25527e-05
0
0
0
6.15935e-15
-6.39841e-15
6.42546e-15
0
-3.28723e-15
3.27857e-15
0
0
0
1.53612e-15
-2.97068e-15
-1.42904e-15
-9.86748e-06
-1.30876e-15
1.79945e-05
-3.43353e-05
1.64246e-05
-3.93359e-06
0
-1.99535e-15
2.79103e-15
-2.58655e-15
-2.87573e-05
2.65627e-05
-2.44983e-05
-1.25238e-15
2.07452e-05
-2.11455e-15
2.90734e-15
-3.19453e-05
8.09397e-16
1.47488e-15
-2.41098e-05
0
0
-6.43497e-05
5.12016e-05
5.64635e-15
9.70521e-06
-9.08129e-06
0
0
-5.51178e-15
-5.76875e-15
0
0
3.51049e-15
-6.59809e-05
0
-3.74802e-15
-6.64596e-05
6.4228e-05
-6.10543e-05
5.72336e-05
-5.89073e-15
0
0
1.11095e-15
-3.07151e-15
3.79998e-15
-1.75938e-15
1.62628e-15
1.35168e-05
-1.24559e-05
6.87776e-06
4.21368e-06
-3.48011e-06
-7.08606e-06
9.72161e-06
-4.43624e-06
9.3473e-16
1.22229e-05
6.28165e-16
0
5.54568e-05
5.27315e-15
-5.22507e-05
0
-5.48073e-15
-5.14013e-05
5.17199e-05
-5.20544e-05
5.31748e-05
-5.31666e-05
5.30153e-05
0
5.15939e-05
-5.03591e-05
4.88106e-05
-4.70768e-05
4.52221e-05
-2.59924e-05
-4.14341e-06
3.1704e-05
-3.04183e-05
3.65427e-06
3.5265e-05
0
2.61404e-15
-8.08535e-16
-3.74732e-15
-2.77232e-15
2.30558e-05
-2.35969e-15
2.17153e-15
9.97569e-16
-1.83e-15
1.50891e-05
-7.64878e-16
-1.39401e-15
0
-1.17258e-15
0
6.33408e-15
-2.2662e-05
0
2.15121e-05
-0.000120833
-4.41517e-15
4.18748e-05
4.43003e-05
5.16295e-15
5.03425e-05
5.44119e-05
-5.73848e-05
0
3.44087e-15
-6.22201e-05
3.41464e-15
5.96587e-05
5.68673e-05
-5.3422e-05
4.95829e-05
1.26224e-15
-4.12285e-05
3.74169e-05
-1.91595e-15
2.67046e-15
1.6507e-15
2.75194e-05
-2.03375e-05
1.17253e-05
-1.51207e-05
1.58941e-05
-1.38663e-05
6.69104e-06
-7.65353e-06
-6.98714e-06
1.27322e-05
-1.1551e-05
5.94489e-16
5.07556e-05
0
-4.67541e-15
0
5.03011e-15
0
4.58648e-05
0
-5.17716e-15
-4.77557e-05
4.786e-05
2.65586e-15
-4.76299e-05
-4.67974e-05
0
-2.47008e-15
-4.3018e-05
4.14194e-05
-1.19326e-05
7.62625e-06
-9.50776e-06
-3.51802e-06
2.71382e-05
-3.64734e-15
3.13996e-05
-2.93856e-05
3.78937e-15
-1.40702e-15
-2.34693e-05
0
-3.3333e-15
-1.84379e-05
0
2.59156e-15
-1.42524e-05
1.30189e-05
1.18657e-05
-2.15286e-05
1.10969e-15
0
-5.62198e-15
-0.000184759
-3.99746e-06
0.00017947
-3.57587e-05
0.000106033
4.14024e-15
-3.95444e-05
-4.62123e-15
-4.52382e-05
4.91205e-05
2.88927e-15
0
-3.15395e-15
-5.7299e-05
5.68958e-05
-5.53749e-05
1.46933e-15
4.14928e-15
1.28542e-15
4.24997e-05
1.06922e-15
-9.703e-16
8.95931e-16
-2.50096e-15
7.74025e-16
7.17262e-16
-4.77955e-06
-4.41353e-06
1.22085e-05
-2.33937e-15
-1.18767e-05
6.31661e-06
-7.22902e-06
6.60179e-06
0
-1.09139e-05
1.01342e-05
-4.50418e-05
4.85089e-15
0.000112122
-4.12961e-05
4.03265e-05
0
0
0
4.63805e-15
0
-4.30839e-05
2.39657e-15
0
-2.35548e-15
4.16242e-05
1.12524e-15
-2.18082e-15
1.05222e-15
-1.45965e-05
1.05203e-05
-2.19179e-06
9.10864e-05
-5.66349e-05
6.11659e-05
2.93207e-05
-0.00013747
-1.4202e-15
6.60072e-16
1.22396e-15
3.39756e-15
1.04611e-15
-9.6454e-16
-2.66292e-15
0
1.34588e-05
-1.36544e-15
0
-1.12898e-15
9.45725e-06
-4.59442e-05
0
0.000206639
9.22791e-05
-1.35667e-05
6.35377e-05
-0.000188566
3.68892e-15
3.53176e-05
0
0
-4.43374e-05
2.61933e-15
2.77645e-15
-2.88887e-15
-2.92708e-15
5.83807e-15
-2.85129e-15
-4.92466e-05
1.28934e-15
-4.32301e-05
2.2035e-15
-3.59763e-05
9.05992e-16
-3.01676e-05
-1.56086e-15
1.45103e-15
0
-3.11659e-16
-6.22795e-06
5.3176e-16
-1.7654e-06
9.74345e-06
-1.49065e-06
-8.19226e-06
-2.49471e-06
-6.31091e-16
1.03105e-05
-9.58958e-06
0
0
-0.000232347
3.6747e-05
-3.59112e-05
0
0
3.69764e-05
0
0
3.87731e-05
-2.16186e-15
2.16278e-15
3.84638e-05
0
-3.69154e-05
-3.58533e-05
-2.88795e-15
-1.33842e-05
9.99155e-05
-3.37104e-05
0.000114238
6.12533e-05
-0.000227661
0.00021894
-0.000179957
4.79137e-05
-6.69025e-05
0.000186318
-2.12944e-15
-8.86816e-05
1.63692e-05
-8.37062e-16
-2.30797e-15
-1.27066e-05
0
1.17587e-15
-1.921e-05
0
4.08135e-05
3.99695e-06
4.11091e-05
-0.000211222
-0.000262234
2.82426e-05
0.000111875
0
-3.15521e-05
3.70531e-15
0
0
-2.37406e-15
4.5555e-05
4.76353e-05
2.69157e-15
4.8567e-05
-2.64323e-15
2.54147e-15
4.32802e-05
2.23917e-15
-3.08584e-15
9.31924e-16
3.04596e-05
-2.81813e-05
0
1.35957e-15
2.27523e-05
-2.92702e-16
-1.95204e-06
3.60719e-06
-6.65311e-06
-3.06227e-06
-4.2201e-06
3.86765e-06
4.71257e-06
-5.96193e-16
0
5.03663e-16
-0.000106658
0.000138105
0
0
0
0
0
0
3.72423e-15
-3.45964e-05
3.87438e-15
-3.51272e-05
3.52187e-05
-3.48458e-05
-0.000103023
0.000100782
-9.81091e-05
0.000190228
-6.13124e-05
0.000109519
-6.83662e-05
-0.000119361
0.000191834
-7.93722e-05
-0.000127634
9.61065e-05
2.24245e-05
-6.27109e-05
0.000116582
-0.000126172
0.000116823
-0.000107927
9.94933e-05
-2.61493e-05
6.65867e-16
0
-1.00043e-05
-1.00705e-15
0
0.000145087
-0.000127959
-0.00016461
0.000105376
-8.04261e-06
-7.53742e-05
-4.97987e-05
-0.000105666
0
0
-3.28304e-05
3.60955e-05
-3.87441e-05
-2.30193e-15
-4.35757e-05
-4.94629e-15
0
2.44833e-15
-4.25387e-05
0
-3.76022e-05
3.45649e-05
-3.13184e-05
-1.57693e-15
2.63093e-05
6.82684e-16
-1.90978e-15
5.92262e-16
0
-9.17529e-06
1.18809e-05
3.26157e-16
-8.66088e-06
7.96277e-06
-7.30248e-06
-2.22529e-06
-1.12632e-15
-9.19741e-06
8.58338e-06
6.32421e-05
3.07208e-05
0.000183661
6.47278e-15
-0.000114105
0.000111043
2.91846e-05
-2.96018e-05
0
3.4494e-15
-3.14015e-05
3.16777e-05
-3.53387e-15
3.50409e-15
0.000124689
-0.000213903
0.000149057
-2.8964e-05
-0.000168416
8.96468e-05
0.000123699
-0.000133192
4.25204e-05
-0.000147509
2.37955e-05
8.97666e-05
6.29354e-05
-3.91737e-05
1.82309e-05
-0.000101596
7.84703e-05
-4.35485e-05
1.3396e-05
3.69935e-05
-5.66064e-05
-2.29997e-15
9.44791e-06
-8.56478e-06
8.00829e-06
-9.67821e-05
9.17309e-05
4.17053e-06
0.000122995
0.000190867
0.000134206
-2.21826e-05
2.35694e-05
-2.52053e-05
-2.9732e-15
2.95026e-05
0
0
4.18847e-15
3.9841e-05
-4.54224e-15
2.29464e-15
-2.26653e-15
3.94967e-05
0
-1.94509e-15
-1.78918e-15
-1.62083e-15
0
-1.3629e-15
1.27617e-15
0
2.77529e-15
-1.85874e-05
1.72448e-05
-1.59674e-06
4.42629e-06
-8.16374e-06
6.38427e-06
-4.59473e-06
1.05058e-06
1.0636e-15
8.68396e-06
-8.11981e-06
0
-0.00013676
-4.67005e-05
-0.000103933
0.000152664
-0.000222983
-2.89634e-15
2.64978e-05
-2.9923e-15
0
0
-0.000142805
5.7523e-05
0.000200035
-0.000141408
3.08477e-15
2.71623e-05
5.28979e-05
5.13713e-05
-0.000102154
0.000121
-8.97401e-05
-3.70173e-05
-2.28287e-05
-2.21672e-05
0.00016759
-9.8067e-05
-1.8341e-05
5.1292e-05
-8.8269e-16
4.42705e-05
2.73262e-05
-2.5243e-05
-6.9774e-05
2.13645e-05
1.95543e-05
-1.78417e-05
8.08588e-06
-3.02978e-05
0.00011484
4.78855e-05
0.000121741
-0.000137162
-2.12461e-05
3.98449e-05
0.0001384
8.41533e-05
4.50751e-05
-2.39945e-05
-2.94328e-15
0
-3.17669e-05
3.43064e-05
-3.63977e-05
3.75459e-05
-3.80952e-05
3.77716e-05
-3.66458e-05
-3.48596e-05
3.2633e-05
1.66715e-15
0
-1.36928e-15
-6.35386e-16
2.14719e-05
0
2.0803e-15
1.74371e-05
-1.61957e-05
-3.00299e-06
1.3891e-06
-1.42335e-15
-4.72183e-06
4.33543e-06
-3.96642e-06
9.04575e-06
-8.19835e-06
-4.26328e-16
7.51702e-05
0
-0.00010396
0.000139025
-9.08187e-05
6.63682e-05
4.66508e-05
0
-2.68262e-15
2.78281e-15
0.000101681
-0.000205962
7.79361e-05
-7.75831e-05
0.000102597
-2.52493e-05
-4.94713e-05
0.000144812
1.30383e-15
-0.000189515
0.00020677
-8.92151e-05
8.76854e-05
-0.000148298
4.12804e-05
5.86397e-05
-1.83306e-05
1.71678e-05
4.4483e-15
1.49269e-05
-9.70905e-05
7.71391e-05
-2.37745e-05
-1.09622e-05
5.03871e-05
-9.22753e-06
-8.42105e-06
-3.05234e-05
1.59069e-15
-2.55665e-05
5.01864e-05
-9.88591e-06
6.91793e-05
-9.46379e-05
-0.000124273
-7.0524e-05
3.75715e-05
8.0629e-05
0
2.38231e-05
-2.64766e-05
-3.19167e-15
3.46202e-15
0
0
0
-1.93792e-15
-3.77171e-15
1.79801e-15
1.68563e-15
3.10502e-15
2.53241e-05
-2.29607e-05
-1.18427e-15
-2.00447e-05
0
0
0
8.44271e-16
1.95885e-16
9.14981e-06
-2.41544e-06
-3.22752e-06
1.02258e-06
-1.87208e-06
4.74049e-16
-7.73758e-06
8.064e-16
2.2323e-05
2.17161e-05
-1.85245e-05
2.06717e-05
0
0
-8.34449e-05
8.49573e-05
0
-4.50317e-05
-6.86147e-05
0.000139224
-0.000164218
0.000210594
-0.000139503
0.000137598
-9.00402e-05
-6.60208e-05
6.43935e-05
-3.13735e-05
-4.89882e-05
7.01273e-05
6.91417e-05
-1.96421e-05
-7.68102e-05
7.28957e-05
-5.13539e-05
3.21212e-05
-1.50153e-05
-4.20087e-05
7.81708e-05
-9.6735e-05
-6.21375e-16
7.23199e-05
-1.90077e-05
-1.74138e-05
3.97432e-05
7.20125e-06
0
-2.27769e-05
2.01298e-05
-6.51574e-05
-2.11374e-05
3.74649e-15
3.16565e-05
-4.71881e-05
-3.35607e-05
-9.01696e-05
1.92698e-05
0
0
2.60057e-05
0
0
0
0
-3.22465e-05
-3.49485e-15
1.66971e-15
1.56766e-15
1.44465e-15
-2.35615e-05
2.13613e-05
-1.1029e-15
2.07617e-15
-4.87011e-16
3.284e-05
-3.06479e-05
2.85426e-05
3.5811e-05
-9.59192e-05
5.68687e-06
1.42674e-05
4.53303e-05
-1.76643e-06
-4.02994e-05
-1.46021e-05
6.18145e-05
3.97969e-05
5.80946e-05
-1.65126e-05
1.84499e-05
-3.61959e-05
1.76529e-05
-5.59899e-05
-7.60906e-05
-1.94269e-05
6.06697e-05
4.11493e-05
4.18208e-05
-0.000190622
0.000211629
-0.000126409
4.16418e-05
4.09553e-05
2.22706e-15
-0.000117624
-1.91434e-05
0.000157326
-2.39648e-05
-0.000116699
-1.82031e-05
5.35684e-05
8.49024e-05
-9.58745e-05
-1.50164e-05
0.000112491
-5.25358e-05
2.44742e-05
-9.0963e-05
7.3754e-05
-9.73448e-06
-8.96184e-06
2.46417e-05
7.49977e-06
-1.35871e-05
0
-0.000142135
-5.1862e-05
7.37498e-05
-3.29778e-05
6.0189e-05
-1.4118e-05
5.61526e-05
2.99898e-05
-3.22782e-05
-3.45461e-05
0
0
-2.35201e-05
0
1.53527e-15
0
2.9693e-05
-3.3048e-15
0
2.79104e-05
-2.62471e-05
2.42063e-05
8.76379e-05
-2.20493e-15
-5.548e-05
3.48735e-05
-8.19383e-05
-6.14347e-05
1.43555e-05
7.43259e-16
3.73782e-06
7.63249e-05
-3.96137e-05
-3.18282e-06
-1.9098e-05
4.41571e-05
-3.80278e-05
2.75524e-05
2.59787e-05
-7.098e-05
1.72751e-05
2.94513e-05
0
4.85018e-05
-3.1555e-05
0
0
3.48457e-05
-7.26617e-05
1.85091e-05
5.65222e-05
1.912e-05
-5.74087e-05
-0.000114511
3.77898e-05
-3.72343e-05
7.30928e-05
-5.36898e-05
3.50228e-05
8.92979e-05
-6.74641e-05
-8.40963e-06
6.74148e-05
-0.000116145
-1.31666e-15
5.96197e-05
-3.11573e-15
6.58042e-05
-3.69319e-05
3.44575e-05
-5.34341e-05
5.94891e-05
-2.75063e-05
-5.06852e-05
6.1977e-05
-6.36821e-05
5.12575e-05
0
7.24323e-05
-4.80514e-05
-2.93765e-05
-4.48197e-05
1.34248e-05
0
0
-9.38166e-05
8.6663e-05
1.54832e-05
0
-2.15279e-15
0
0
0
2.64469e-05
-2.72834e-05
3.04821e-15
-8.08938e-05
5.17675e-05
7.31338e-05
-4.49934e-05
2.03565e-05
-2.04849e-15
3.44012e-05
-9.74799e-05
0.000122368
-0.000100521
8.06558e-05
-0.000112989
4.6788e-05
3.37013e-05
-2.01526e-05
2.09681e-05
-2.57193e-05
2.59325e-05
7.17501e-06
-3.24808e-05
3.06968e-05
-3.16634e-05
-7.70861e-05
7.88285e-05
-1.47137e-05
8.66795e-05
8.46289e-05
7.47325e-05
-3.38941e-15
0.00015626
-0.000130534
-1.84837e-15
8.48684e-05
3.45082e-05
-0.000138377
0.000138254
-8.56983e-05
1.69195e-05
6.65459e-05
-1.63244e-05
-3.20157e-05
3.9337e-05
-9.84974e-05
-1.55027e-06
7.79804e-05
1.54077e-05
-8.83e-05
2.77923e-05
-2.62098e-05
-1.23117e-05
3.46041e-05
1.07778e-05
-3.01229e-05
-2.79789e-05
3.45347e-05
1.76776e-15
-2.19135e-05
3.33676e-05
-3.02111e-05
1.27099e-15
-3.2312e-05
3.8121e-05
4.4918e-05
6.24911e-05
-7.18937e-05
1.1247e-05
-1.11944e-05
1.19828e-05
-0.000103461
4.16508e-05
-4.65965e-05
-1.94e-15
-1.92202e-05
8.47278e-05
-0.000114819
2.41873e-05
0
-5.06126e-05
0.000124637
-0.000119938
6.78818e-05
4.17884e-05
-1.89037e-05
3.42617e-05
-3.19766e-05
-7.56485e-05
5.70748e-05
2.68369e-05
-1.25801e-05
1.17667e-05
-3.29372e-05
-2.75848e-05
2.18043e-05
-2.63064e-05
3.63617e-05
-2.14882e-05
5.63464e-16
3.06302e-05
-1.16073e-05
-3.13762e-15
-4.12933e-05
-5.863e-05
-0.000105166
-2.58264e-05
-3.78408e-05
-0.000120427
0.000136779
-0.000140162
2.93103e-05
2.9947e-05
6.11615e-05
1.72832e-15
-3.12609e-05
6.25723e-05
-0.000139875
7.68427e-05
4.54162e-05
-0.000104187
4.38741e-05
4.03422e-05
-5.2118e-05
6.71112e-05
1.4421e-05
-4.28891e-05
4.10575e-05
-2.58943e-05
-1.22327e-05
2.30223e-05
-5.40091e-05
1.01078e-05