/*--------------------------------*- C++ -*----------------------------------*\
| =========                 |                                                 |
| \\      /  F ield         | OpenFOAM: The Open Source CFD Toolbox           |
|  \\    /   O peration     | Version:  2506                                  |
|   \\  /    A nd           | Website:  www.openfoam.com                      |
|    \\/     M anipulation  |                                                 |
\*---------------------------------------------------------------------------*/
FoamFile
{
    version     2.0;
    format      ascii;
    arch        "LSB;label=32;scalar=64";
    class       volScalarField;
    location    "500";
    object      turbulenceProperties:nuEff;
}
// * * * * * * * * * * * * * * * * * * * * * * * * * * * * * * * * * * * * * //

dimensions      [0 2 -1 0 0 0 0];

internalField   nonuniform List<scalar> 
10720
(
3.5808e-05
3.95347e-05
4.45224e-05
5.09851e-05
5.93088e-05
7.00253e-05
8.38546e-05
0.000101159
0.000122975
0.000150349
0.000185234
0.000230745
0.000291313
0.000374892
0.000495068
0.000673862
0.000955884
0.00140527
0.00222738
0.00359933
0.00691158
0.0127223
0.0339244
0.0760575
0.0937433
0.0946691
0.0957139
0.0992513
0.102768
0.104501
0.104473
0.103221
0.100853
0.0974225
0.0928039
0.0869228
0.0784598
0.0683291
0.0332662
3.25824e-05
2.98038e-05
2.70736e-05
2.45837e-05
2.22497e-05
2.01071e-05
1.82445e-05
1.69612e-05
1.80965e-05
2.07909e-05
2.54813e-05
3.3227e-05
4.5576e-05
6.44541e-05
9.13874e-05
0.000127945
0.000177178
0.000246276
0.000349384
0.000511811
0.000783254
0.00125196
0.00212757
0.0037799
0.00733809
0.0147329
0.0324877
0.0663317
0.0934796
0.105035
0.108443
0.109385
0.109481
0.108985
0.107984
0.106587
0.104441
0.102006
0.0924718
1.50855e-05
1.49803e-05
1.48855e-05
1.48068e-05
1.47166e-05
1.46338e-05
1.45724e-05
1.45188e-05
1.44956e-05
1.45159e-05
1.45435e-05
1.48184e-05
1.58788e-05
1.86524e-05
2.64112e-05
4.68063e-05
9.38863e-05
0.000172764
0.00032505
0.000597833
0.00133107
0.00283975
0.00712221
0.0204822
0.0394453
0.0632105
0.09249
0.123682
0.148738
0.162695
0.16798
0.168796
0.167209
0.163859
0.159349
0.153848
0.148537
0.139517
0.139927
1.51691e-05
1.52823e-05
1.53788e-05
1.55098e-05
1.56441e-05
1.578e-05
1.59112e-05
1.60217e-05
1.59591e-05
1.58177e-05
1.56246e-05
1.53903e-05
1.51241e-05
1.48294e-05
1.44957e-05
1.41197e-05
1.36767e-05
1.31624e-05
1.25483e-05
1.18435e-05
1.1074e-05
1.04205e-05
1.00541e-05
1.00015e-05
1.00093e-05
0.000103721
0.000549958
0.00416678
0.0141256
0.0287297
0.0437373
0.0550727
0.0618355
0.0656173
0.0680151
0.0700054
0.0717371
0.0753091
0.0784705
1.62662e-05
1.62835e-05
1.63015e-05
1.63208e-05
1.63445e-05
1.6371e-05
1.64013e-05
1.64368e-05
1.64786e-05
1.65276e-05
1.65858e-05
1.66576e-05
1.67363e-05
1.688e-05
1.68933e-05
1.64657e-05
1.47443e-05
1.3505e-05
1.00013e-05
1.83019e-05
1.06358e-05
2.93153e-05
1.12964e-05
0.000567814
0.00299288
0.00755871
0.0156943
0.0310517
0.0573806
0.0938017
0.13281
0.164507
0.184915
0.196754
0.20345
0.206334
0.207582
0.20149
0.210285
1.62529e-05
1.62339e-05
1.62193e-05
1.61977e-05
1.61792e-05
1.61593e-05
1.61415e-05
1.61275e-05
1.61323e-05
1.61473e-05
1.61669e-05
1.61909e-05
1.62202e-05
1.62531e-05
1.62901e-05
1.6331e-05
1.63775e-05
1.64308e-05
1.64945e-05
1.65719e-05
1.66714e-05
1.67989e-05
1.69802e-05
1.71735e-05
1.74359e-05
1.71567e-05
1.72472e-05
1.24842e-05
9.36893e-05
0.000800356
0.00302747
0.00755201
0.0142628
0.0224459
0.0311666
0.0396093
0.0470122
0.0536833
0.0631755
1.60861e-05
1.60837e-05
1.60831e-05
1.60835e-05
1.60844e-05
1.60871e-05
1.6092e-05
1.60987e-05
1.61088e-05
1.61224e-05
1.61403e-05
1.61638e-05
1.61944e-05
1.62334e-05
1.6285e-05
1.6339e-05
1.62199e-05
1.58957e-05
1.41059e-05
1.20222e-05
1.0083e-05
1.01839e-05
1.00022e-05
0.000102765
0.000633617
1.18081e-05
0.000229987
0.000852771
0.00416734
0.0136819
0.0356898
0.0727903
0.118822
0.161323
0.193218
0.215359
0.231951
0.239151
0.255248
1.60868e-05
1.60892e-05
1.60923e-05
1.60945e-05
1.60983e-05
1.61003e-05
1.61016e-05
1.61026e-05
1.61004e-05
1.60977e-05
1.60942e-05
1.60905e-05
1.6087e-05
1.60836e-05
1.60803e-05
1.60768e-05
1.60731e-05
1.60691e-05
1.60641e-05
1.6059e-05
1.60536e-05
1.60479e-05
1.60411e-05
1.60348e-05
1.6028e-05
1.60304e-05
1.60231e-05
1.60826e-05
1.59988e-05
1.59532e-05
1.52068e-05
1.41598e-05
0.000236342
0.00105503
0.0030515
0.00689481
0.0131382
0.0218569
0.0392396
1.61112e-05
1.61118e-05
1.6112e-05
1.61129e-05
1.61145e-05
1.61164e-05
1.61191e-05
1.61227e-05
1.61274e-05
1.61336e-05
1.61416e-05
1.61522e-05
1.61661e-05
1.61839e-05
1.62082e-05
1.62363e-05
1.62796e-05
1.62922e-05
1.63586e-05
1.59551e-05
1.50076e-05
1.11486e-05
1.00146e-05
1.00005e-05
1e-05
1.00038e-05
2.17557e-05
0.000183166
0.000943938
0.000558289
0.00168413
0.00805139
0.0295963
0.0707032
0.124112
0.175053
0.21718
0.248044
0.278272
1.61112e-05
1.61099e-05
1.61106e-05
1.61095e-05
1.61104e-05
1.61092e-05
1.61071e-05
1.61052e-05
1.61041e-05
1.61039e-05
1.61038e-05
1.61038e-05
1.61041e-05
1.61046e-05
1.61056e-05
1.61068e-05
1.61084e-05
1.61102e-05
1.61124e-05
1.61149e-05
1.61177e-05
1.61207e-05
1.61241e-05
1.61279e-05
1.61329e-05
1.61372e-05
1.61504e-05
1.613e-05
1.62727e-05
1.56951e-05
1.87092e-05
1.05814e-05
3.55891e-05
0.000255351
0.000738291
0.00072639
0.00124967
0.00165112
0.0137223
1.61051e-05
1.61048e-05
1.61051e-05
1.61054e-05
1.61055e-05
1.61059e-05
1.61065e-05
1.61073e-05
1.61085e-05
1.61102e-05
1.61125e-05
1.61157e-05
1.61201e-05
1.6126e-05
1.61342e-05
1.6145e-05
1.61597e-05
1.61756e-05
1.62052e-05
1.63034e-05
1.67797e-05
1.61326e-05
1.4571e-05
1.03174e-05
1.00093e-05
1.0002e-05
1.00001e-05
1e-05
1e-05
0.00011165
0.000383155
0.0018456
0.000399802
0.00874892
0.0380727
0.0932875
0.160401
0.223986
0.27832
1.61046e-05
1.61039e-05
1.61048e-05
1.61046e-05
1.61063e-05
1.6106e-05
1.61047e-05
1.61035e-05
1.61025e-05
1.61019e-05
1.61014e-05
1.6101e-05
1.61007e-05
1.61006e-05
1.61005e-05
1.61006e-05
1.61007e-05
1.61009e-05
1.61011e-05
1.61014e-05
1.61016e-05
1.61017e-05
1.61018e-05
1.61015e-05
1.61014e-05
1.61017e-05
1.61021e-05
1.61039e-05
1.61035e-05
1.61125e-05
1.60954e-05
1.61988e-05
1.56036e-05
1.42035e-05
1.00029e-05
0.00017015
0.000299833
0.00043936
0.00238817
1.61053e-05
1.61055e-05
1.61057e-05
1.61057e-05
1.61059e-05
1.6106e-05
1.61061e-05
1.61065e-05
1.61069e-05
1.61077e-05
1.61087e-05
1.61102e-05
1.61122e-05
1.61151e-05
1.6119e-05
1.61246e-05
1.6132e-05
1.61404e-05
1.6149e-05
1.61455e-05
1.6234e-05
1.65026e-05
1.69977e-05
1.59827e-05
1.33761e-05
1.12139e-05
1.00522e-05
1.0008e-05
1.0003e-05
1e-05
1e-05
1e-05
6.95934e-05
0.00206362
0.00168146
0.0217445
0.0782394
0.166196
0.252312
1.61048e-05
1.61038e-05
1.61042e-05
1.61038e-05
1.61055e-05
1.61054e-05
1.61043e-05
1.61031e-05
1.61022e-05
1.61017e-05
1.61013e-05
1.61011e-05
1.6101e-05
1.61011e-05
1.6101e-05
1.61011e-05
1.61012e-05
1.61015e-05
1.61018e-05
1.61022e-05
1.61027e-05
1.61033e-05
1.6104e-05
1.61048e-05
1.61057e-05
1.6107e-05
1.61087e-05
1.61108e-05
1.61134e-05
1.61168e-05
1.61209e-05
1.61258e-05
1.61497e-05
1.55241e-05
1.34051e-05
1.00585e-05
1.00117e-05
1e-05
6.66023e-05
1.61049e-05
1.6105e-05
1.61053e-05
1.61053e-05
1.61051e-05
1.6105e-05
1.61048e-05
1.61047e-05
1.61046e-05
1.61046e-05
1.61047e-05
1.61049e-05
1.61053e-05
1.61059e-05
1.61068e-05
1.61082e-05
1.61102e-05
1.61126e-05
1.61159e-05
1.61152e-05
1.61077e-05
1.61535e-05
1.63273e-05
1.67596e-05
1.68329e-05
1.63186e-05
1.50176e-05
1.31682e-05
1.15411e-05
1.00121e-05
1.00071e-05
1e-05
1e-05
1e-05
0.000394328
0.00543025
0.0161664
0.0903961
0.20006
1.61043e-05
1.61032e-05
1.61032e-05
1.61027e-05
1.61044e-05
1.61045e-05
1.61036e-05
1.61026e-05
1.61017e-05
1.61013e-05
1.6101e-05
1.61008e-05
1.61007e-05
1.61008e-05
1.61009e-05
1.6101e-05
1.61011e-05
1.61011e-05
1.61012e-05
1.61013e-05
1.61014e-05
1.61016e-05
1.61017e-05
1.61019e-05
1.6102e-05
1.61022e-05
1.61024e-05
1.61027e-05
1.61029e-05
1.6103e-05
1.61035e-05
1.61008e-05
1.61118e-05
1.60774e-05
1.63143e-05
1.60217e-05
1.36685e-05
1.00183e-05
1.05095e-05
1.61048e-05
1.61049e-05
1.61051e-05
1.61049e-05
1.61047e-05
1.61044e-05
1.61042e-05
1.61041e-05
1.6104e-05
1.61039e-05
1.61039e-05
1.6104e-05
1.61043e-05
1.61047e-05
1.61053e-05
1.61062e-05
1.61077e-05
1.61095e-05
1.61115e-05
1.61137e-05
1.61121e-05
1.61073e-05
1.61124e-05
1.62115e-05
1.64113e-05
1.66454e-05
1.69248e-05
1.69126e-05
1.67514e-05
1.48367e-05
1.28064e-05
1.00067e-05
1.00031e-05
1e-05
1e-05
1e-05
0.00442089
0.0302964
0.133013
1.61042e-05
1.6103e-05
1.61026e-05
1.6102e-05
1.61036e-05
1.61038e-05
1.61031e-05
1.61022e-05
1.61015e-05
1.61011e-05
1.61008e-05
1.61007e-05
1.61006e-05
1.61007e-05
1.61008e-05
1.61009e-05
1.61011e-05
1.61012e-05
1.61013e-05
1.61013e-05
1.61014e-05
1.61015e-05
1.61016e-05
1.61018e-05
1.6102e-05
1.61024e-05
1.61029e-05
1.61036e-05
1.61044e-05
1.61055e-05
1.61068e-05
1.61084e-05
1.61108e-05
1.6107e-05
1.61249e-05
1.61821e-05
1.66784e-05
1.456e-05
1.00026e-05
1.61047e-05
1.61047e-05
1.61048e-05
1.61045e-05
1.61042e-05
1.61039e-05
1.61036e-05
1.61034e-05
1.61031e-05
1.6103e-05
1.61028e-05
1.61027e-05
1.61026e-05
1.61026e-05
1.61025e-05
1.61025e-05
1.61026e-05
1.61027e-05
1.61029e-05
1.61037e-05
1.61048e-05
1.61043e-05
1.61016e-05
1.61018e-05
1.61252e-05
1.61792e-05
1.62935e-05
1.64934e-05
1.68116e-05
1.71821e-05
1.74644e-05
1.51427e-05
1.12004e-05
1.00109e-05
1e-05
1e-05
3.9161e-05
0.00304872
0.0730449
1.61042e-05
1.6103e-05
1.61023e-05
1.61015e-05
1.61029e-05
1.61033e-05
1.61027e-05
1.61018e-05
1.61013e-05
1.61009e-05
1.61007e-05
1.61005e-05
1.61005e-05
1.61005e-05
1.61006e-05
1.61007e-05
1.61009e-05
1.61011e-05
1.61012e-05
1.61014e-05
1.61015e-05
1.61016e-05
1.61016e-05
1.61016e-05
1.61016e-05
1.61017e-05
1.61019e-05
1.61022e-05
1.61025e-05
1.6103e-05
1.61034e-05
1.61041e-05
1.61037e-05
1.61087e-05
1.60888e-05
1.61861e-05
1.58342e-05
1.87782e-05
1.05653e-05
1.61046e-05
1.61045e-05
1.61043e-05
1.6104e-05
1.61037e-05
1.61033e-05
1.6103e-05
1.61028e-05
1.61026e-05
1.61025e-05
1.61024e-05
1.61023e-05
1.61023e-05
1.61024e-05
1.61025e-05
1.61027e-05
1.6103e-05
1.61035e-05
1.61041e-05
1.61046e-05
1.61053e-05
1.61056e-05
1.61056e-05
1.61047e-05
1.61027e-05
1.60996e-05
1.60981e-05
1.61201e-05
1.61897e-05
1.64148e-05
1.68199e-05
1.75987e-05
1.71784e-05
1.30313e-05
1.00158e-05
1e-05
1e-05
0.00141744
0.0333462
1.61042e-05
1.6103e-05
1.61021e-05
1.61012e-05
1.61025e-05
1.61028e-05
1.61024e-05
1.61016e-05
1.61011e-05
1.61007e-05
1.61006e-05
1.61004e-05
1.61003e-05
1.61003e-05
1.61004e-05
1.61005e-05
1.61007e-05
1.61009e-05
1.61011e-05
1.61012e-05
1.61014e-05
1.61015e-05
1.61016e-05
1.61017e-05
1.61018e-05
1.61018e-05
1.6102e-05
1.61022e-05
1.61026e-05
1.6103e-05
1.61035e-05
1.61044e-05
1.61043e-05
1.61088e-05
1.60934e-05
1.61648e-05
1.5859e-05
1.71571e-05
1.436e-05
1.61044e-05
1.61041e-05
1.61039e-05
1.61035e-05
1.61032e-05
1.61028e-05
1.61025e-05
1.61023e-05
1.61021e-05
1.6102e-05
1.61019e-05
1.61018e-05
1.61017e-05
1.61017e-05
1.61017e-05
1.61018e-05
1.61018e-05
1.6102e-05
1.61022e-05
1.61026e-05
1.61032e-05
1.6104e-05
1.61047e-05
1.61056e-05
1.61068e-05
1.61071e-05
1.6102e-05
1.60909e-05
1.60746e-05
1.60879e-05
1.61472e-05
1.64821e-05
1.71991e-05
1.779e-05
1.40171e-05
1.00106e-05
1e-05
0.000291436
0.013058
1.61042e-05
1.61031e-05
1.6102e-05
1.6101e-05
1.61021e-05
1.61024e-05
1.6102e-05
1.61013e-05
1.61009e-05
1.61006e-05
1.61004e-05
1.61003e-05
1.61001e-05
1.61001e-05
1.61001e-05
1.61002e-05
1.61004e-05
1.61006e-05
1.61008e-05
1.6101e-05
1.61012e-05
1.61014e-05
1.61016e-05
1.61017e-05
1.61019e-05
1.6102e-05
1.6102e-05
1.61021e-05
1.61022e-05
1.61025e-05
1.61028e-05
1.61032e-05
1.61035e-05
1.6105e-05
1.61015e-05
1.6119e-05
1.60599e-05
1.62055e-05
1.61617e-05
1.61042e-05
1.61038e-05
1.61035e-05
1.61031e-05
1.61027e-05
1.61024e-05
1.61021e-05
1.61019e-05
1.61018e-05
1.61017e-05
1.61016e-05
1.61016e-05
1.61015e-05
1.61015e-05
1.61015e-05
1.61016e-05
1.61017e-05
1.61019e-05
1.61021e-05
1.61025e-05
1.61029e-05
1.61034e-05
1.6104e-05
1.61046e-05
1.61059e-05
1.61079e-05
1.61098e-05
1.61086e-05
1.61e-05
1.60841e-05
1.606e-05
1.60616e-05
1.62424e-05
1.6797e-05
1.85321e-05
1.25251e-05
1e-05
8.32295e-05
0.00435164
1.61042e-05
1.61031e-05
1.6102e-05
1.61008e-05
1.61018e-05
1.61021e-05
1.61017e-05
1.61011e-05
1.61007e-05
1.61004e-05
1.61002e-05
1.61001e-05
1.61e-05
1.60999e-05
1.60999e-05
1.61e-05
1.61001e-05
1.61003e-05
1.61005e-05
1.61007e-05
1.6101e-05
1.61012e-05
1.61014e-05
1.61016e-05
1.61018e-05
1.6102e-05
1.6102e-05
1.61021e-05
1.61022e-05
1.61023e-05
1.61026e-05
1.61029e-05
1.61033e-05
1.61037e-05
1.61047e-05
1.61028e-05
1.6117e-05
1.60529e-05
1.62572e-05
1.61039e-05
1.61034e-05
1.61031e-05
1.61027e-05
1.61023e-05
1.6102e-05
1.61017e-05
1.61016e-05
1.61015e-05
1.61014e-05
1.61014e-05
1.61014e-05
1.61014e-05
1.61014e-05
1.61014e-05
1.61014e-05
1.61015e-05
1.61016e-05
1.61017e-05
1.61019e-05
1.61023e-05
1.61027e-05
1.61033e-05
1.61039e-05
1.61046e-05
1.61059e-05
1.61081e-05
1.61106e-05
1.61121e-05
1.61091e-05
1.60989e-05
1.6069e-05
1.60471e-05
1.60804e-05
1.66848e-05
2.04396e-05
1.00117e-05
1.13412e-05
0.00111765
1.6104e-05
1.61031e-05
1.6102e-05
1.61007e-05
1.61015e-05
1.61018e-05
1.61015e-05
1.61009e-05
1.61005e-05
1.61002e-05
1.61001e-05
1.60999e-05
1.60998e-05
1.60997e-05
1.60997e-05
1.60997e-05
1.60999e-05
1.61e-05
1.61002e-05
1.61005e-05
1.61007e-05
1.6101e-05
1.61012e-05
1.61015e-05
1.61017e-05
1.61019e-05
1.6102e-05
1.61021e-05
1.61021e-05
1.61022e-05
1.61023e-05
1.61025e-05
1.61028e-05
1.6103e-05
1.61041e-05
1.61021e-05
1.61126e-05
1.60814e-05
1.61464e-05
1.61036e-05
1.6103e-05
1.61027e-05
1.61023e-05
1.61019e-05
1.61016e-05
1.61014e-05
1.61013e-05
1.61013e-05
1.61012e-05
1.61013e-05
1.61013e-05
1.61013e-05
1.61013e-05
1.61013e-05
1.61014e-05
1.61015e-05
1.61016e-05
1.61017e-05
1.61019e-05
1.61021e-05
1.61024e-05
1.61028e-05
1.61033e-05
1.6104e-05
1.61048e-05
1.61061e-05
1.6108e-05
1.61106e-05
1.61131e-05
1.61142e-05
1.61107e-05
1.60784e-05
1.61069e-05
1.56429e-05
1.92979e-05
1.23578e-05
1.00003e-05
7.93386e-05
1.61038e-05
1.61031e-05
1.6102e-05
1.61006e-05
1.61013e-05
1.61016e-05
1.61013e-05
1.61007e-05
1.61003e-05
1.61e-05
1.60999e-05
1.60997e-05
1.60996e-05
1.60995e-05
1.60995e-05
1.60995e-05
1.60996e-05
1.60998e-05
1.61e-05
1.61002e-05
1.61005e-05
1.61007e-05
1.6101e-05
1.61013e-05
1.61015e-05
1.61017e-05
1.61019e-05
1.6102e-05
1.61021e-05
1.61021e-05
1.61022e-05
1.61023e-05
1.61025e-05
1.61028e-05
1.61033e-05
1.61031e-05
1.61056e-05
1.61021e-05
1.61073e-05
1.61032e-05
1.61027e-05
1.61023e-05
1.61019e-05
1.61016e-05
1.61013e-05
1.61012e-05
1.61011e-05
1.61011e-05
1.61012e-05
1.61012e-05
1.61013e-05
1.61013e-05
1.61014e-05
1.61014e-05
1.61014e-05
1.61015e-05
1.61016e-05
1.61017e-05
1.61018e-05
1.6102e-05
1.61022e-05
1.61026e-05
1.6103e-05
1.61035e-05
1.61042e-05
1.61051e-05
1.61064e-05
1.61081e-05
1.61105e-05
1.61126e-05
1.61193e-05
1.61021e-05
1.61658e-05
1.58163e-05
1.64368e-05
1.96577e-05
1e-05
1.06683e-05
1.61036e-05
1.6103e-05
1.61019e-05
1.61006e-05
1.61011e-05
1.61013e-05
1.6101e-05
1.61005e-05
1.61002e-05
1.60999e-05
1.60997e-05
1.60996e-05
1.60994e-05
1.60993e-05
1.60993e-05
1.60993e-05
1.60994e-05
1.60995e-05
1.60997e-05
1.61e-05
1.61002e-05
1.61005e-05
1.61008e-05
1.6101e-05
1.61013e-05
1.61016e-05
1.61018e-05
1.6102e-05
1.61021e-05
1.61021e-05
1.61021e-05
1.61022e-05
1.61023e-05
1.61025e-05
1.61028e-05
1.61032e-05
1.61034e-05
1.61057e-05
1.61027e-05
1.61029e-05
1.61024e-05
1.6102e-05
1.61016e-05
1.61013e-05
1.61011e-05
1.6101e-05
1.6101e-05
1.61011e-05
1.61012e-05
1.61012e-05
1.61013e-05
1.61014e-05
1.61014e-05
1.61015e-05
1.61015e-05
1.61016e-05
1.61016e-05
1.61017e-05
1.61018e-05
1.6102e-05
1.61022e-05
1.61025e-05
1.61028e-05
1.61032e-05
1.61038e-05
1.61046e-05
1.61056e-05
1.61068e-05
1.61085e-05
1.61099e-05
1.61146e-05
1.61126e-05
1.61247e-05
1.61916e-05
1.5269e-05
2.21121e-05
1.00004e-05
1e-05
1.61034e-05
1.61029e-05
1.61019e-05
1.61005e-05
1.61009e-05
1.61011e-05
1.61008e-05
1.61004e-05
1.61e-05
1.60997e-05
1.60995e-05
1.60994e-05
1.60992e-05
1.60991e-05
1.60991e-05
1.60991e-05
1.60992e-05
1.60993e-05
1.60995e-05
1.60997e-05
1.61e-05
1.61002e-05
1.61005e-05
1.61008e-05
1.61011e-05
1.61014e-05
1.61016e-05
1.61018e-05
1.6102e-05
1.61021e-05
1.61021e-05
1.61022e-05
1.61022e-05
1.61023e-05
1.61025e-05
1.61028e-05
1.6103e-05
1.61049e-05
1.61036e-05
1.61026e-05
1.61021e-05
1.61017e-05
1.61014e-05
1.61011e-05
1.6101e-05
1.61009e-05
1.6101e-05
1.61011e-05
1.61012e-05
1.61013e-05
1.61014e-05
1.61014e-05
1.61015e-05
1.61016e-05
1.61016e-05
1.61017e-05
1.61017e-05
1.61018e-05
1.61019e-05
1.6102e-05
1.61022e-05
1.61024e-05
1.61027e-05
1.61031e-05
1.61036e-05
1.61043e-05
1.61051e-05
1.61061e-05
1.61074e-05
1.61089e-05
1.61099e-05
1.61186e-05
1.60834e-05
1.63117e-05
1.5308e-05
1.94642e-05
1.16128e-05
1.00005e-05
1.61031e-05
1.61028e-05
1.61018e-05
1.61005e-05
1.61008e-05
1.61009e-05
1.61006e-05
1.61002e-05
1.60998e-05
1.60995e-05
1.60993e-05
1.60992e-05
1.6099e-05
1.60989e-05
1.60989e-05
1.60989e-05
1.6099e-05
1.60991e-05
1.60993e-05
1.60995e-05
1.60997e-05
1.61e-05
1.61003e-05
1.61006e-05
1.61009e-05
1.61012e-05
1.61015e-05
1.61017e-05
1.61019e-05
1.6102e-05
1.61021e-05
1.61022e-05
1.61022e-05
1.61022e-05
1.61024e-05
1.61026e-05
1.61028e-05
1.6104e-05
1.61038e-05
1.61023e-05
1.61018e-05
1.61014e-05
1.61011e-05
1.61009e-05
1.61009e-05
1.61009e-05
1.6101e-05
1.61011e-05
1.61012e-05
1.61013e-05
1.61014e-05
1.61015e-05
1.61016e-05
1.61017e-05
1.61017e-05
1.61018e-05
1.61018e-05
1.61019e-05
1.6102e-05
1.61021e-05
1.61022e-05
1.61024e-05
1.61026e-05
1.6103e-05
1.61034e-05
1.6104e-05
1.61047e-05
1.61056e-05
1.61066e-05
1.61083e-05
1.61079e-05
1.61187e-05
1.60811e-05
1.62443e-05
1.57429e-05
1.69271e-05
1.68503e-05
1.00896e-05
1.61028e-05
1.61026e-05
1.61017e-05
1.61005e-05
1.61006e-05
1.61007e-05
1.61005e-05
1.61e-05
1.60996e-05
1.60994e-05
1.60992e-05
1.6099e-05
1.60989e-05
1.60988e-05
1.60988e-05
1.60988e-05
1.60988e-05
1.60989e-05
1.60991e-05
1.60993e-05
1.60995e-05
1.60998e-05
1.61001e-05
1.61004e-05
1.61007e-05
1.6101e-05
1.61013e-05
1.61015e-05
1.61017e-05
1.61019e-05
1.6102e-05
1.61021e-05
1.61022e-05
1.61022e-05
1.61023e-05
1.61024e-05
1.61026e-05
1.61036e-05
1.61036e-05
1.61021e-05
1.61016e-05
1.61011e-05
1.61009e-05
1.61008e-05
1.61008e-05
1.61009e-05
1.6101e-05
1.61011e-05
1.61013e-05
1.61014e-05
1.61015e-05
1.61016e-05
1.61017e-05
1.61017e-05
1.61018e-05
1.61019e-05
1.61019e-05
1.6102e-05
1.61021e-05
1.61022e-05
1.61023e-05
1.61025e-05
1.61026e-05
1.61029e-05
1.61033e-05
1.61038e-05
1.61044e-05
1.61052e-05
1.61061e-05
1.61076e-05
1.61075e-05
1.61146e-05
1.60973e-05
1.61522e-05
1.60765e-05
1.58754e-05
1.84987e-05
1.16928e-05
1.61025e-05
1.61024e-05
1.61016e-05
1.61004e-05
1.61005e-05
1.61005e-05
1.61003e-05
1.60999e-05
1.60995e-05
1.60992e-05
1.6099e-05
1.60988e-05
1.60987e-05
1.60986e-05
1.60986e-05
1.60986e-05
1.60987e-05
1.60988e-05
1.60989e-05
1.60991e-05
1.60993e-05
1.60996e-05
1.60999e-05
1.61002e-05
1.61005e-05
1.61008e-05
1.6101e-05
1.61013e-05
1.61015e-05
1.61017e-05
1.61019e-05
1.6102e-05
1.61021e-05
1.61022e-05
1.61022e-05
1.61023e-05
1.61025e-05
1.61033e-05
1.61033e-05
1.61018e-05
1.61013e-05
1.61009e-05
1.61008e-05
1.61007e-05
1.61008e-05
1.61009e-05
1.6101e-05
1.61012e-05
1.61013e-05
1.61014e-05
1.61016e-05
1.61017e-05
1.61018e-05
1.61018e-05
1.61019e-05
1.6102e-05
1.61021e-05
1.61021e-05
1.61022e-05
1.61023e-05
1.61024e-05
1.61026e-05
1.61027e-05
1.61029e-05
1.61032e-05
1.61037e-05
1.61042e-05
1.61049e-05
1.61057e-05
1.61069e-05
1.61076e-05
1.61104e-05
1.611e-05
1.61039e-05
1.61947e-05
1.57324e-05
1.75795e-05
1.46045e-05
1.61023e-05
1.61022e-05
1.61015e-05
1.61004e-05
1.61004e-05
1.61004e-05
1.61001e-05
1.60997e-05
1.60993e-05
1.60991e-05
1.60988e-05
1.60987e-05
1.60986e-05
1.60985e-05
1.60985e-05
1.60985e-05
1.60986e-05
1.60986e-05
1.60988e-05
1.60989e-05
1.60991e-05
1.60994e-05
1.60996e-05
1.60999e-05
1.61002e-05
1.61005e-05
1.61008e-05
1.61011e-05
1.61013e-05
1.61016e-05
1.61017e-05
1.61019e-05
1.61021e-05
1.61021e-05
1.61022e-05
1.61022e-05
1.61023e-05
1.6103e-05
1.6103e-05
1.61016e-05
1.61011e-05
1.61007e-05
1.61007e-05
1.61007e-05
1.61007e-05
1.61009e-05
1.6101e-05
1.61012e-05
1.61013e-05
1.61015e-05
1.61016e-05
1.61017e-05
1.61018e-05
1.61019e-05
1.6102e-05
1.61021e-05
1.61022e-05
1.61023e-05
1.61024e-05
1.61024e-05
1.61025e-05
1.61027e-05
1.61028e-05
1.6103e-05
1.61033e-05
1.61036e-05
1.61041e-05
1.61047e-05
1.61054e-05
1.61063e-05
1.61075e-05
1.61081e-05
1.61139e-05
1.60944e-05
1.61854e-05
1.58918e-05
1.66178e-05
1.61533e-05
1.6102e-05
1.6102e-05
1.61014e-05
1.61003e-05
1.61002e-05
1.61002e-05
1.60999e-05
1.60995e-05
1.60992e-05
1.60989e-05
1.60987e-05
1.60985e-05
1.60984e-05
1.60984e-05
1.60984e-05
1.60984e-05
1.60984e-05
1.60985e-05
1.60986e-05
1.60988e-05
1.60989e-05
1.60992e-05
1.60994e-05
1.60997e-05
1.61e-05
1.61003e-05
1.61006e-05
1.61008e-05
1.61011e-05
1.61014e-05
1.61016e-05
1.61018e-05
1.6102e-05
1.61021e-05
1.61021e-05
1.61022e-05
1.61022e-05
1.61029e-05
1.61028e-05
1.61014e-05
1.6101e-05
1.61006e-05
1.61006e-05
1.61006e-05
1.61007e-05
1.61009e-05
1.61011e-05
1.61012e-05
1.61014e-05
1.61016e-05
1.61017e-05
1.61018e-05
1.61019e-05
1.6102e-05
1.61021e-05
1.61022e-05
1.61023e-05
1.61024e-05
1.61025e-05
1.61026e-05
1.61027e-05
1.61028e-05
1.61029e-05
1.61031e-05
1.61033e-05
1.61036e-05
1.6104e-05
1.61046e-05
1.61052e-05
1.6106e-05
1.61072e-05
1.61074e-05
1.61127e-05
1.61003e-05
1.61461e-05
1.60442e-05
1.6172e-05
1.64171e-05
1.61018e-05
1.61018e-05
1.61013e-05
1.61002e-05
1.61001e-05
1.61e-05
1.60997e-05
1.60993e-05
1.6099e-05
1.60987e-05
1.60985e-05
1.60984e-05
1.60983e-05
1.60982e-05
1.60982e-05
1.60982e-05
1.60983e-05
1.60984e-05
1.60985e-05
1.60986e-05
1.60987e-05
1.6099e-05
1.60992e-05
1.60995e-05
1.60998e-05
1.61e-05
1.61003e-05
1.61006e-05
1.61009e-05
1.61011e-05
1.61014e-05
1.61016e-05
1.61018e-05
1.6102e-05
1.61021e-05
1.61021e-05
1.61022e-05
1.61027e-05
1.61027e-05
1.61012e-05
1.61008e-05
1.61005e-05
1.61006e-05
1.61006e-05
1.61007e-05
1.61009e-05
1.61011e-05
1.61013e-05
1.61015e-05
1.61016e-05
1.61018e-05
1.61019e-05
1.6102e-05
1.61021e-05
1.61023e-05
1.61024e-05
1.61025e-05
1.61025e-05
1.61026e-05
1.61027e-05
1.61028e-05
1.61029e-05
1.61031e-05
1.61032e-05
1.61034e-05
1.61037e-05
1.6104e-05
1.61045e-05
1.61051e-05
1.61058e-05
1.61068e-05
1.61073e-05
1.61103e-05
1.61068e-05
1.61194e-05
1.61138e-05
1.60621e-05
1.62859e-05
1.61016e-05
1.61016e-05
1.61011e-05
1.61001e-05
1.60999e-05
1.60998e-05
1.60995e-05
1.60991e-05
1.60988e-05
1.60986e-05
1.60984e-05
1.60982e-05
1.60982e-05
1.60981e-05
1.60981e-05
1.60981e-05
1.60981e-05
1.60982e-05
1.60983e-05
1.60984e-05
1.60986e-05
1.60988e-05
1.6099e-05
1.60993e-05
1.60995e-05
1.60998e-05
1.61001e-05
1.61004e-05
1.61006e-05
1.61009e-05
1.61012e-05
1.61014e-05
1.61017e-05
1.61018e-05
1.6102e-05
1.61021e-05
1.61021e-05
1.61025e-05
1.61026e-05
1.6101e-05
1.61007e-05
1.61004e-05
1.61005e-05
1.61006e-05
1.61007e-05
1.61009e-05
1.61011e-05
1.61013e-05
1.61015e-05
1.61017e-05
1.61018e-05
1.6102e-05
1.61021e-05
1.61023e-05
1.61024e-05
1.61025e-05
1.61026e-05
1.61027e-05
1.61028e-05
1.61029e-05
1.6103e-05
1.61031e-05
1.61032e-05
1.61033e-05
1.61035e-05
1.61038e-05
1.61041e-05
1.61045e-05
1.6105e-05
1.61056e-05
1.61065e-05
1.61073e-05
1.61088e-05
1.61098e-05
1.61095e-05
1.61273e-05
1.60741e-05
1.61651e-05
1.61013e-05
1.61014e-05
1.6101e-05
1.61e-05
1.60998e-05
1.60996e-05
1.60993e-05
1.6099e-05
1.60986e-05
1.60984e-05
1.60982e-05
1.60981e-05
1.6098e-05
1.6098e-05
1.60979e-05
1.6098e-05
1.6098e-05
1.6098e-05
1.60981e-05
1.60982e-05
1.60984e-05
1.60986e-05
1.60988e-05
1.6099e-05
1.60993e-05
1.60996e-05
1.60998e-05
1.61001e-05
1.61004e-05
1.61007e-05
1.61009e-05
1.61012e-05
1.61015e-05
1.61017e-05
1.61019e-05
1.6102e-05
1.6102e-05
1.61023e-05
1.61024e-05
1.61009e-05
1.61006e-05
1.61003e-05
1.61005e-05
1.61006e-05
1.61007e-05
1.61009e-05
1.61011e-05
1.61013e-05
1.61016e-05
1.61017e-05
1.61019e-05
1.61021e-05
1.61022e-05
1.61024e-05
1.61025e-05
1.61026e-05
1.61027e-05
1.61028e-05
1.61029e-05
1.6103e-05
1.61031e-05
1.61033e-05
1.61034e-05
1.61035e-05
1.61037e-05
1.61039e-05
1.61042e-05
1.61045e-05
1.6105e-05
1.61056e-05
1.61063e-05
1.61071e-05
1.6108e-05
1.61102e-05
1.61082e-05
1.61215e-05
1.61005e-05
1.61178e-05
1.61011e-05
1.61012e-05
1.61008e-05
1.60999e-05
1.60996e-05
1.60995e-05
1.60991e-05
1.60988e-05
1.60985e-05
1.60982e-05
1.60981e-05
1.60979e-05
1.60978e-05
1.60978e-05
1.60978e-05
1.60978e-05
1.60978e-05
1.60979e-05
1.6098e-05
1.60981e-05
1.60982e-05
1.60984e-05
1.60986e-05
1.60988e-05
1.60991e-05
1.60993e-05
1.60996e-05
1.60999e-05
1.61001e-05
1.61004e-05
1.61007e-05
1.6101e-05
1.61013e-05
1.61015e-05
1.61017e-05
1.61019e-05
1.61019e-05
1.61021e-05
1.61023e-05
1.61007e-05
1.61004e-05
1.61003e-05
1.61004e-05
1.61005e-05
1.61007e-05
1.61009e-05
1.61012e-05
1.61014e-05
1.61016e-05
1.61018e-05
1.6102e-05
1.61022e-05
1.61023e-05
1.61025e-05
1.61026e-05
1.61027e-05
1.61029e-05
1.6103e-05
1.61031e-05
1.61032e-05
1.61033e-05
1.61034e-05
1.61035e-05
1.61037e-05
1.61038e-05
1.6104e-05
1.61043e-05
1.61046e-05
1.6105e-05
1.61055e-05
1.61061e-05
1.6107e-05
1.61077e-05
1.61096e-05
1.61092e-05
1.61151e-05
1.61132e-05
1.61109e-05
1.61009e-05
1.6101e-05
1.61006e-05
1.60998e-05
1.60995e-05
1.60993e-05
1.60989e-05
1.60986e-05
1.60983e-05
1.60981e-05
1.60979e-05
1.60978e-05
1.60977e-05
1.60976e-05
1.60976e-05
1.60976e-05
1.60977e-05
1.60977e-05
1.60978e-05
1.60979e-05
1.6098e-05
1.60982e-05
1.60984e-05
1.60986e-05
1.60988e-05
1.60991e-05
1.60993e-05
1.60996e-05
1.60999e-05
1.61002e-05
1.61005e-05
1.61007e-05
1.6101e-05
1.61013e-05
1.61015e-05
1.61017e-05
1.61018e-05
1.6102e-05
1.61021e-05
1.61005e-05
1.61003e-05
1.61002e-05
1.61004e-05
1.61005e-05
1.61007e-05
1.6101e-05
1.61012e-05
1.61014e-05
1.61017e-05
1.61019e-05
1.6102e-05
1.61022e-05
1.61024e-05
1.61026e-05
1.61027e-05
1.61028e-05
1.6103e-05
1.61031e-05
1.61032e-05
1.61033e-05
1.61035e-05
1.61036e-05
1.61037e-05
1.61038e-05
1.6104e-05
1.61042e-05
1.61044e-05
1.61047e-05
1.61051e-05
1.61055e-05
1.61061e-05
1.61068e-05
1.61076e-05
1.6109e-05
1.61098e-05
1.61121e-05
1.61153e-05
1.61143e-05
1.61007e-05
1.61008e-05
1.61004e-05
1.60996e-05
1.60993e-05
1.60991e-05
1.60987e-05
1.60984e-05
1.60981e-05
1.60979e-05
1.60977e-05
1.60976e-05
1.60975e-05
1.60975e-05
1.60975e-05
1.60975e-05
1.60975e-05
1.60975e-05
1.60976e-05
1.60977e-05
1.60978e-05
1.6098e-05
1.60982e-05
1.60984e-05
1.60986e-05
1.60988e-05
1.60991e-05
1.60993e-05
1.60996e-05
1.60999e-05
1.61002e-05
1.61005e-05
1.61008e-05
1.61011e-05
1.61013e-05
1.61015e-05
1.61017e-05
1.61018e-05
1.6102e-05
1.61004e-05
1.61002e-05
1.61001e-05
1.61003e-05
1.61005e-05
1.61007e-05
1.6101e-05
1.61012e-05
1.61015e-05
1.61017e-05
1.61019e-05
1.61021e-05
1.61023e-05
1.61025e-05
1.61027e-05
1.61028e-05
1.6103e-05
1.61031e-05
1.61032e-05
1.61034e-05
1.61035e-05
1.61036e-05
1.61038e-05
1.61039e-05
1.6104e-05
1.61042e-05
1.61044e-05
1.61046e-05
1.61048e-05
1.61052e-05
1.61056e-05
1.61061e-05
1.61068e-05
1.61075e-05
1.61086e-05
1.61098e-05
1.61112e-05
1.61139e-05
1.61167e-05
1.61005e-05
1.61006e-05
1.61003e-05
1.60995e-05
1.60991e-05
1.60989e-05
1.60985e-05
1.60982e-05
1.60979e-05
1.60976e-05
1.60975e-05
1.60974e-05
1.60973e-05
1.60973e-05
1.60973e-05
1.60973e-05
1.60973e-05
1.60974e-05
1.60974e-05
1.60975e-05
1.60976e-05
1.60978e-05
1.60979e-05
1.60981e-05
1.60983e-05
1.60986e-05
1.60988e-05
1.6099e-05
1.60993e-05
1.60996e-05
1.60999e-05
1.61002e-05
1.61005e-05
1.61008e-05
1.61011e-05
1.61013e-05
1.61015e-05
1.61016e-05
1.61018e-05
1.61003e-05
1.61001e-05
1.61001e-05
1.61003e-05
1.61005e-05
1.61007e-05
1.6101e-05
1.61012e-05
1.61015e-05
1.61017e-05
1.6102e-05
1.61022e-05
1.61024e-05
1.61026e-05
1.61028e-05
1.61029e-05
1.61031e-05
1.61032e-05
1.61034e-05
1.61035e-05
1.61037e-05
1.61038e-05
1.61039e-05
1.61041e-05
1.61042e-05
1.61044e-05
1.61045e-05
1.61047e-05
1.6105e-05
1.61053e-05
1.61057e-05
1.61062e-05
1.61067e-05
1.61075e-05
1.61084e-05
1.61096e-05
1.61111e-05
1.61125e-05
1.61168e-05
1.61004e-05
1.61004e-05
1.61001e-05
1.60993e-05
1.60989e-05
1.60986e-05
1.60983e-05
1.60979e-05
1.60976e-05
1.60974e-05
1.60973e-05
1.60972e-05
1.60971e-05
1.60971e-05
1.60971e-05
1.60971e-05
1.60971e-05
1.60972e-05
1.60972e-05
1.60973e-05
1.60974e-05
1.60975e-05
1.60977e-05
1.60979e-05
1.60981e-05
1.60983e-05
1.60985e-05
1.60988e-05
1.6099e-05
1.60993e-05
1.60996e-05
1.60999e-05
1.61002e-05
1.61005e-05
1.61008e-05
1.61011e-05
1.61014e-05
1.61014e-05
1.61017e-05
1.61001e-05
1.61e-05
1.61e-05
1.61002e-05
1.61004e-05
1.61007e-05
1.6101e-05
1.61013e-05
1.61015e-05
1.61018e-05
1.6102e-05
1.61022e-05
1.61025e-05
1.61027e-05
1.61028e-05
1.6103e-05
1.61032e-05
1.61034e-05
1.61035e-05
1.61037e-05
1.61038e-05
1.6104e-05
1.61041e-05
1.61043e-05
1.61044e-05
1.61045e-05
1.61047e-05
1.61049e-05
1.61051e-05
1.61054e-05
1.61058e-05
1.61062e-05
1.61068e-05
1.61075e-05
1.61083e-05
1.61093e-05
1.61109e-05
1.61117e-05
1.6116e-05
1.61002e-05
1.61002e-05
1.60999e-05
1.60991e-05
1.60987e-05
1.60984e-05
1.60981e-05
1.60977e-05
1.60974e-05
1.60972e-05
1.60971e-05
1.6097e-05
1.60969e-05
1.60969e-05
1.60969e-05
1.60969e-05
1.60969e-05
1.6097e-05
1.6097e-05
1.60971e-05
1.60972e-05
1.60973e-05
1.60975e-05
1.60976e-05
1.60978e-05
1.6098e-05
1.60982e-05
1.60985e-05
1.60987e-05
1.6099e-05
1.60993e-05
1.60996e-05
1.60999e-05
1.61002e-05
1.61005e-05
1.61008e-05
1.61011e-05
1.61012e-05
1.61016e-05
1.61e-05
1.60999e-05
1.60999e-05
1.61002e-05
1.61004e-05
1.61007e-05
1.6101e-05
1.61013e-05
1.61016e-05
1.61018e-05
1.61021e-05
1.61023e-05
1.61025e-05
1.61027e-05
1.61029e-05
1.61031e-05
1.61033e-05
1.61035e-05
1.61036e-05
1.61038e-05
1.6104e-05
1.61041e-05
1.61043e-05
1.61044e-05
1.61046e-05
1.61047e-05
1.61049e-05
1.61051e-05
1.61053e-05
1.61056e-05
1.61059e-05
1.61063e-05
1.61068e-05
1.61075e-05
1.61083e-05
1.61092e-05
1.61108e-05
1.61114e-05
1.61152e-05
1.61e-05
1.61001e-05
1.60997e-05
1.6099e-05
1.60985e-05
1.60982e-05
1.60978e-05
1.60975e-05
1.60972e-05
1.6097e-05
1.60968e-05
1.60967e-05
1.60967e-05
1.60967e-05
1.60967e-05
1.60967e-05
1.60967e-05
1.60967e-05
1.60968e-05
1.60969e-05
1.60969e-05
1.6097e-05
1.60972e-05
1.60974e-05
1.60975e-05
1.60977e-05
1.60979e-05