/*--------------------------------*- C++ -*----------------------------------*\
| =========                 |                                                 |
| \\      /  F ield         | OpenFOAM: The Open Source CFD Toolbox           |
|  \\    /   O peration     | Version:  2506                                  |
|   \\  /    A nd           | Website:  www.openfoam.com                      |
|    \\/     M anipulation  |                                                 |
\*---------------------------------------------------------------------------*/
FoamFile
{
    version     2.0;
    format      ascii;
    arch        "LSB;label=32;scalar=64";
    class       volSymmTensorField;
    location    "500";
    object      turbulenceProperties:devReff;
}
// * * * * * * * * * * * * * * * * * * * * * * * * * * * * * * * * * * * * * //

dimensions      [0 2 -2 0 0 0 0];

internalField   nonuniform List<symmTensor> 
10720
(
(0.00163713 0.0042578 -9.50055e-22 -0.00177372 -2.23883e-20 0.000136584)
(0.00238853 0.00488004 -1.24441e-22 -0.00248648 1.40368e-19 9.79487e-05)
(0.00361105 0.00546064 -2.76479e-20 -0.00380829 -4.34988e-19 0.000197235)
(0.00524593 0.00621488 1.19073e-19 -0.00549191 8.78825e-19 0.000245976)
(0.00742493 0.0068734 -2.25916e-19 -0.00769357 -8.34225e-19 0.000268642)
(0.0104039 0.00726191 -1.72317e-19 -0.0107954 -4.50646e-19 0.000391436)
(0.014299 0.00737458 3.25997e-19 -0.0147853 1.25251e-18 0.000486256)
(0.0191876 0.00685905 -8.31321e-19 -0.0197702 -2.26133e-18 0.000582599)
(0.025239 0.00535155 -2.0651e-19 -0.0259856 6.04418e-19 0.000746551)
(0.0325645 0.00260624 6.13779e-19 -0.033465 1.25948e-18 0.000900463)
(0.0413422 -0.00189801 1.57979e-18 -0.0424337 5.77706e-19 0.00109148)
(0.0519597 -0.00873402 -3.5524e-18 -0.0532775 -3.29928e-18 0.00131779)
(0.0649578 -0.0188219 6.72791e-19 -0.066551 8.68396e-19 0.00159319)
(0.0812468 -0.0337493 2.68635e-18 -0.0832016 1.27312e-18 0.00195479)
(0.102368 -0.056169 -4.07746e-18 -0.104834 -6.36945e-18 0.00246632)
(0.13053 -0.0904045 -4.36536e-18 -0.133705 -2.58503e-18 0.00317459)
(0.169882 -0.14506 1.92126e-17 -0.174189 1.779e-17 0.00430672)
(0.224284 -0.232429 1.78591e-17 -0.230165 3.37911e-17 0.0058807)
(0.31093 -0.388886 -3.53876e-17 -0.319545 -5.48544e-17 0.00861477)
(0.426445 -0.64175 -1.3778e-18 -0.43862 1.45538e-17 0.0121749)
(0.666816 -1.21421 -2.72235e-17 -0.686211 5.20475e-17 0.0193951)
(0.94562 -2.11463 -1.24422e-17 -0.971738 4.18867e-17 0.0261181)
(1.76575 -5.1291 -1.43151e-16 -1.81787 -6.4194e-16 0.0521281)
(2.42861 -10.3115 3.31444e-16 -2.51193 5.58942e-16 0.0833227)
(1.52833 -11.6476 4.23738e-17 -1.56938 -7.12355e-16 0.0410513)
(0.526362 -11.2303 3.65825e-16 -0.514981 5.81116e-16 -0.0113802)
(-0.145858 -11.0474 -8.18356e-17 0.17558 -7.84282e-17 -0.0297225)
(-0.664932 -11.231 2.74527e-16 0.689603 2.30545e-16 -0.0246714)
(-1.13626 -11.4446 7.29168e-16 1.15257 1.20858e-15 -0.0163095)
(-1.5717 -11.4563 4.00598e-16 1.57994 1.99785e-15 -0.0082475)
(-1.95786 -11.2411 -1.41158e-15 1.95609 -1.93169e-15 0.00177544)
(-2.27361 -10.8343 -4.74896e-16 2.26309 -7.26209e-16 0.0105112)
(-2.49371 -10.2209 -3.2352e-17 2.47876 -4.36847e-15 0.0149496)
(-2.60529 -9.41434 -2.58328e-15 2.58992 -7.30016e-15 0.0153752)
(-2.58947 -8.40627 1.00637e-15 2.57526 9.23258e-16 0.0142069)
(-2.43555 -7.22764 1.22279e-15 2.42454 1.14355e-15 0.011015)
(-2.07423 -5.67394 -1.22408e-16 2.06079 -5.2511e-16 0.0134415)
(-1.58674 -4.17201 -1.51872e-15 1.58502 -2.43784e-17 0.00171643)
(-0.472665 -0.926863 -1.88626e-16 0.473456 -1.90338e-15 -0.000791467)
(0.000968052 0.00371303 2.394e-21 -0.00101994 5.55972e-20 5.18855e-05)
(0.000549695 0.00319714 -3.57156e-21 -0.000639722 2.56156e-23 9.00277e-05)
(0.000179304 0.0026111 -1.95661e-20 -0.000226365 -1.37148e-19 4.70609e-05)
(-6.70775e-05 0.00208972 4.9811e-21 3.29485e-05 9.3602e-20 3.4129e-05)
(-0.000179256 0.00159689 3.919e-21 0.000160966 -1.82535e-20 1.82902e-05)
(-0.000172607 0.0011672 -3.38577e-20 0.000173003 1.10833e-19 -3.96409e-07)
(-8.40104e-05 0.000835304 -2.02266e-19 0.000108118 1.62794e-19 -2.4108e-05)
(5.47818e-05 0.000636924 1.38528e-19 -1.70833e-05 -6.6073e-20 -3.76985e-05)
(0.00023136 0.000621222 2.26703e-19 -0.000204966 -1.14671e-19 -2.63945e-05)
(0.000471316 0.000742215 -1.54451e-19 -0.000468025 3.90401e-20 -3.29089e-06)
(0.000812376 0.00102677 -3.88385e-20 -0.000823019 1.83172e-19 1.06434e-05)
(0.00130644 0.0015664 2.49336e-19 -0.00132442 1.03713e-19 1.79824e-05)
(0.00202428 0.00252565 4.59462e-19 -0.00205445 -7.15378e-20 3.01718e-05)
(0.00305565 0.00413714 -8.14101e-21 -0.00310695 -2.588e-19 5.12965e-05)
(0.00447308 0.00664459 -8.04498e-20 -0.00454802 -1.73496e-19 7.49401e-05)
(0.00629923 0.0103377 2.69049e-20 -0.00640793 -5.82067e-20 0.000108708)
(0.00863909 0.0156349 -1.97153e-19 -0.00878485 6.70122e-19 0.000145763)
(0.0117401 0.0234245 7.42379e-19 -0.0119383 2.7595e-19 0.000198176)
(0.0161482 0.0354501 3.28026e-19 -0.0164166 -1.21849e-18 0.000268363)
(0.0226884 0.0549988 -1.32086e-18 -0.0230789 -3.4644e-19 0.000390527)
(0.0329406 0.0886168 -4.44084e-18 -0.0335316 -2.02925e-18 0.000590945)
(0.0490727 0.148528 -3.35499e-18 -0.0500521 -8.97242e-19 0.000979458)
(0.0757041 0.263753 6.22757e-18 -0.0774819 -5.78844e-19 0.00177777)
(0.116282 0.487769 -7.46696e-18 -0.119918 1.2081e-18 0.00363658)
(0.183243 0.979449 4.06953e-18 -0.191089 -7.224e-18 0.00784623)
(0.277943 2.01763 -1.26414e-16 -0.294318 2.61656e-18 0.016375)
(0.410053 4.53272 -7.83242e-17 -0.448528 1.22989e-17 0.0384754)
(0.421167 9.36904 6.59254e-17 -0.501476 8.24807e-19 0.0803089)
(0.00812158 13.292 8.69844e-18 -0.112264 -1.25651e-19 0.104143)
(-0.628744 14.9597 6.28587e-17 0.530413 4.36131e-19 0.0983304)
(-1.26785 15.3986 -4.37183e-16 1.1856 -4.89497e-18 0.082245)
(-1.85324 15.4185 1.57309e-16 1.78589 2.09289e-17 0.0673407)
(-2.3774 15.2563 -1.88903e-15 2.3216 -1.53198e-16 0.0557929)
(-2.83317 14.9563 -3.45856e-15 2.78627 -2.36998e-16 0.046902)
(-3.21857 14.5341 1.05847e-15 3.17825 1.08381e-16 0.0403257)
(-3.53766 14.011 1.00948e-15 3.5024 1.62706e-16 0.0352635)
(-3.77533 13.2878 1.45055e-15 3.74324 2.66683e-16 0.0320884)
(-3.91954 12.4706 -2.90394e-16 3.88954 -3.67456e-17 0.0299967)
(-3.64023 10.0666 -4.55472e-15 3.63363 -7.84209e-16 0.00660761)
(0.000579434 -0.000460529 1.22858e-22 -0.000520053 4.00306e-21 -5.93813e-05)
(0.000492607 -0.000547353 2.9033e-20 -0.000425491 7.03538e-20 -6.71156e-05)
(0.000371415 -0.000622952 -2.69199e-20 -0.000291092 -4.74605e-20 -8.03228e-05)
(0.000250517 -0.000652182 -1.81362e-20 -0.000158586 -5.16563e-20 -9.1931e-05)
(0.000133152 -0.000645111 1.2227e-19 -3.25594e-05 2.37307e-19 -0.000100593)
(2.31422e-05 -0.000610485 4.76158e-20 8.61799e-05 7.38714e-20 -0.000109322)
(-6.02883e-05 -0.000551404 2.2581e-19 0.000177197 2.07449e-19 -0.000116909)
(-0.000116634 -0.000479015 -1.16706e-19 0.00023847 -2.24589e-20 -0.000121835)
(-0.000149301 -0.000404777 1.64896e-19 0.00027458 1.14263e-19 -0.000125278)
(-0.00015801 -0.000336001 -5.85646e-21 0.000285259 2.49951e-22 -0.000127249)
(-0.000150114 -0.000278302 -2.23006e-19 0.00027701 -1.90525e-19 -0.000126895)
(-0.000132662 -0.000239951 2.87172e-19 0.00025889 3.57497e-19 -0.000126228)
(-0.000110888 -0.00022612 1.76603e-19 0.000240755 8.87441e-20 -0.000129866)
(-8.62517e-05 -0.000245786 -3.68421e-20 0.000231112 1.99825e-20 -0.00014486)
(-4.85443e-05 -0.000344626 -2.26873e-19 0.000241478 3.73461e-20 -0.000192933)
(6.24951e-05 -0.000658632 4.77381e-19 0.000258306 5.46286e-19 -0.000320801)
(0.00045531 -0.00154848 8.55336e-19 0.000142127 -9.35305e-19 -0.000597437)
(0.00150236 -0.00354967 -4.41954e-18 -0.00049926 -5.72834e-18 -0.0010031)
(0.00420312 -0.00867186 5.05735e-19 -0.00253607 7.46127e-18 -0.00166705)
(0.0104748 -0.0211358 7.36547e-18 -0.00789334 -2.06852e-18 -0.00258144)
(0.0295343 -0.0626406 1.55139e-17 -0.0251167 6.14805e-18 -0.00441757)
(0.074077 -0.174702 -2.35671e-17 -0.067859 -2.25678e-17 -0.00621796)
(0.19546 -0.546204 7.43486e-17 -0.187655 1.8766e-16 -0.00780545)
(0.504293 -1.78316 1.58279e-19 -0.501553 -1.54642e-16 -0.00274075)
(0.747751 -3.5411 -2.72877e-16 -0.771492 1.69401e-16 0.0237411)
(0.788882 -5.38727 -9.70811e-17 -0.843188 -6.59181e-16 0.0543064)
(0.603377 -7.14361 1.17767e-18 -0.675107 7.56355e-17 0.0717302)
(0.204484 -8.39107 -2.94479e-16 -0.279861 -4.44694e-16 0.0753764)
(-0.295502 -8.63474 -4.937e-16 0.229676 -2.83283e-15 0.0658264)
(-0.707186 -7.89706 -1.67052e-16 0.66612 -3.54714e-15 0.0410663)
(-0.931389 -6.69199 5.23002e-16 0.923088 4.89728e-15 0.00830065)
(-0.998417 -5.47819 -9.55295e-16 1.01663 -3.75738e-17 -0.0182112)
(-0.984515 -4.49843 -7.18939e-15 1.01433 1.34211e-15 -0.0298183)
(-0.930915 -3.75362 8.77242e-15 0.960568 1.59523e-14 -0.0296529)
(-0.863879 -3.18647 -1.48871e-15 0.887895 -8.63769e-16 -0.0240156)
(-0.781607 -2.74352 3.41051e-15 0.802094 -4.99143e-15 -0.0204865)
(-0.730887 -2.43231 -1.50361e-15 0.744259 1.52304e-15 -0.0133715)
(-0.560382 -2.13707 3.24926e-15 0.595674 4.0227e-16 -0.0352927)
(-0.787262 -2.25517 5.36288e-15 0.698306 7.29133e-15 0.0889561)
(0.000645657 -0.00034501 9.36998e-21 -0.00059543 2.31774e-20 -5.0227e-05)
(0.000684422 -0.000224612 -1.27043e-20 -0.000637473 -9.60292e-20 -4.69489e-05)
(0.000691691 -7.63975e-05 -1.86441e-20 -0.000654659 -1.11219e-19 -3.70327e-05)
(0.000654249 8.66816e-05 -7.1235e-21 -0.000627665 1.65311e-19 -2.65836e-05)
(0.000565079 0.000235304 1.92654e-21 -0.000550958 4.34555e-20 -1.41205e-05)
(0.000429275 0.000348907 3.78248e-20 -0.000425616 -1.45276e-19 -3.65863e-06)
(0.000271226 0.00040598 7.8172e-20 -0.000274639 -1.96057e-19 3.41364e-06)
(0.000131121 0.000406958 -3.17856e-19 -0.000140194 8.39334e-21 9.07291e-06)
(2.28716e-05 0.000374119 4.88572e-20 -3.33813e-05 2.16475e-19 1.05097e-05)
(-6.63161e-05 0.000316361 1.2446e-21 6.00908e-05 -1.29263e-19 6.22527e-06)
(-0.000121767 0.000243629 -8.32676e-20 0.000123187 -7.895e-20 -1.42012e-06)
(-0.000141757 0.000176673 -6.00705e-20 0.00015008 -8.4975e-20 -8.32264e-06)
(-0.000139972 0.000124397 -1.12035e-20 0.000152779 1.86594e-20 -1.28064e-05)
(-0.000127569 8.66276e-05 3.75295e-20 0.000142838 1.00991e-19 -1.52697e-05)
(-0.000111042 6.08898e-05 6.4734e-20 0.000127502 2.50096e-20 -1.64592e-05)
(-9.4191e-05 4.40013e-05 -9.21266e-20 0.000110951 -4.69918e-21 -1.67603e-05)
(-7.86832e-05 3.33895e-05 8.27054e-20 9.51009e-05 8.54271e-21 -1.64177e-05)
(-6.53914e-05 2.68712e-05 -9.84911e-21 8.10456e-05 -2.88779e-20 -1.56542e-05)
(-5.43352e-05 2.27313e-05 -3.38116e-20 6.89943e-05 5.37891e-20 -1.46591e-05)
(-4.52861e-05 1.99646e-05 -2.57776e-20 5.89189e-05 2.80595e-20 -1.36329e-05)
(-3.79968e-05 1.7932e-05 -6.20004e-20 5.07304e-05 6.97506e-20 -1.27336e-05)
(-3.26729e-05 1.64693e-05 -8.7321e-20 4.49205e-05 4.53007e-20 -1.22476e-05)
(-2.91899e-05 1.5518e-05 -1.25798e-19 4.16894e-05 1.08381e-20 -1.24995e-05)
(-2.68692e-05 1.54954e-05 5.6107e-20 4.05155e-05 5.32846e-21 -1.36463e-05)
(-2.46032e-05 1.7264e-05 -3.99456e-21 3.96874e-05 5.4775e-21 -1.50842e-05)
(-0.000235314 0.000213506 5.26708e-19 0.000404617 1.3778e-19 -0.000169303)
(-0.00119751 0.00135692 2.6967e-18 0.00216781 -1.92567e-19 -0.000970305)
(-0.0086689 0.0119948 1.08355e-18 0.0162508 -4.5151e-19 -0.00758187)
(-0.0262265 0.0459328 -7.54139e-19 0.0499591 1.03218e-19 -0.0237326)
(-0.0449451 0.102716 4.96453e-17 0.0849995 2.01604e-18 -0.0400544)
(-0.0579731 0.17068 4.02654e-16 0.105298 9.72202e-18 -0.0473248)
(-0.0659757 0.235241 2.39535e-16 0.111231 1.31173e-17 -0.045255)
(-0.0730158 0.289375 1.76246e-15 0.112018 1.20944e-16 -0.0390021)
(-0.0819882 0.334941 2.54475e-15 0.11474 1.69288e-16 -0.0327518)
(-0.0941524 0.375381 -5.70581e-16 0.122123 -9.71759e-17 -0.0279708)
(-0.10845 0.415578 -4.94397e-16 0.133603 -8.65752e-17 -0.0251532)
(-0.128784 0.456188 -1.22519e-15 0.151571 -5.15115e-16 -0.0227875)
(-0.147324 0.552332 -2.52523e-15 0.174171 -3.45189e-18 -0.0268471)
(-0.207655 0.775773 -2.03917e-15 0.197454 1.35852e-15 0.0102005)
(0.000333677 -0.000312806 1.72579e-21 -0.000360062 2.38758e-21 2.63849e-05)
(0.000258361 -0.000372287 -2.72961e-20 -0.000290238 -6.63198e-20 3.18766e-05)
(0.000160856 -0.000413563 -6.02089e-21 -0.000197982 -3.03307e-21 3.71254e-05)
(5.20698e-05 -0.000426358 2.27884e-20 -9.69434e-05 4.92238e-20 4.48737e-05)
(-5.44272e-05 -0.000413075 -7.20972e-20 3.54672e-06 -1.46642e-19 5.08805e-05)
(-0.000154782 -0.000372459 -8.20729e-20 9.79066e-05 -1.34513e-19 5.68749e-05)
(-0.000238948 -0.000308487 -1.66416e-19 0.000175436 -2.45977e-19 6.35121e-05)
(-0.000300004 -0.000230742 -1.34057e-20 0.000231135 -1.99287e-21 6.88683e-05)
(-0.000337764 -0.000145422 -7.30693e-20 0.000264303 -1.74013e-19 7.34616e-05)
(-0.000352964 -6.11102e-05 3.05788e-19 0.000275455 3.47969e-19 7.75085e-05)
(-0.000348658 1.65919e-05 -5.00763e-20 0.000268535 6.81115e-20 8.01235e-05)
(-0.00033138 8.39163e-05 3.41324e-20 0.000250346 2.10026e-20 8.10342e-05)
(-0.000307321 0.000139289 -2.33528e-19 0.00022751 -2.97221e-19 7.98111e-05)
(-0.000281378 0.000184869 1.50381e-19 0.00020415 -1.39608e-20 7.72286e-05)
(-0.000254097 0.000218801 4.36505e-20 0.000181608 1.35458e-19 7.24883e-05)
(-0.000223478 0.000237244 5.33223e-20 0.000158661 2.55916e-20 6.48174e-05)
(-0.000180032 0.000227923 -2.41566e-19 0.000128088 -1.40694e-19 5.19435e-05)
(-0.000148152 0.000217067 2.02454e-19 0.00010694 1.50915e-19 4.12128e-05)
(-9.77622e-05 0.000161436 4.84397e-20 7.25566e-05 6.32925e-22 2.52055e-05)
(-0.000155674 0.0002806 -3.6e-19 0.000120415 -5.41622e-20 3.5259e-05)
(-7.2476e-05 0.000138865 2.10708e-19 5.90165e-05 -8.27521e-20 1.34595e-05)
(-0.0001261 0.000249227 1.38792e-20 0.000109641 2.37962e-19 1.64589e-05)
(-1.0215e-05 1.16735e-05 4.52677e-20 1.09051e-05 -6.6859e-20 -6.90099e-07)
(0.00133674 -0.00497739 -2.42654e-18 -0.00107759 -2.59287e-18 -0.000259146)
(0.0122513 -0.054159 4.48377e-18 -0.0104125 1.58293e-17 -0.00183884)
(0.032223 -0.193486 -2.8588e-17 -0.0280498 7.82277e-18 -0.00417316)
(0.0536016 -0.494363 1.48485e-17 -0.0475274 1.15374e-18 -0.00607417)
(0.06386 -1.11359 -1.42997e-17 -0.0566189 7.63529e-17 -0.00724109)
(0.0252759 -2.20163 -4.40662e-16 -0.0184577 2.46385e-16 -0.00681825)
(-0.120107 -3.63379 2.17112e-16 0.123309 3.53426e-16 -0.00320164)
(-0.387517 -4.9159 1.56414e-15 0.382316 -5.8695e-16 0.00520106)
(-0.692045 -5.5251 -2.76516e-15 0.677621 2.16265e-15 0.0144237)
(-0.905734 -5.36788 5.13818e-16 0.889987 9.32809e-15 0.0157472)
(-0.98323 -4.78759 -4.86486e-17 0.974821 -6.36781e-15 0.00840844)
(-0.964947 -4.12851 3.05762e-15 0.96347 -2.30087e-15 0.00147696)
(-0.878558 -3.52387 -1.43336e-14 0.881535 5.15432e-16 -0.00297778)
(-0.798626 -3.05354 4.95831e-15 0.797706 -1.62567e-15 0.000920612)
(-0.531499 -2.55646 5.13623e-15 0.547584 -1.52187e-15 -0.0160848)
(-0.843925 -2.81464 -1.0022e-14 0.825923 2.90319e-15 0.0180022)
(0.000395294 -0.000236803 -3.54253e-21 -0.00041938 -6.74351e-21 2.40858e-05)
(0.000435598 -0.000154352 -1.34281e-20 -0.000454972 -1.89998e-20 1.93736e-05)
(0.000460044 -5.32799e-05 5.56879e-20 -0.000474967 1.20065e-19 1.49229e-05)
(0.000454761 5.43765e-05 1.14453e-20 -0.000464203 -1.35569e-20 9.44187e-06)
(0.000415688 0.000160469 7.89575e-21 -0.000421153 -8.89556e-20 5.46505e-06)
(0.000342126 0.000248051 -2.4654e-20 -0.000344108 6.37279e-20 1.98172e-06)
(0.000244198 0.00030301 7.45501e-20 -0.000243891 2.31063e-19 -3.06791e-07)
(0.000141061 0.000319908 1.56358e-19 -0.000141807 1.67851e-19 7.46235e-07)
(4.81369e-05 0.000309273 5.317e-20 -4.95977e-05 -1.33522e-19 1.46083e-06)
(-2.83434e-05 0.000273934 1.18442e-19 2.72878e-05 7.01951e-20 1.05558e-06)
(-7.85701e-05 0.000221403 -8.35354e-20 7.72409e-05 2.14691e-20 1.3292e-06)
(-0.000102657 0.00016697 -1.20561e-20 0.000100153 7.06291e-20 2.50457e-06)
(-0.000108698 0.000119366 5.2597e-21 0.000104634 -6.34547e-20 4.06436e-06)
(-0.000104075 8.10053e-05 1.1335e-19 9.83167e-05 -7.97959e-20 5.75816e-06)
(-9.40426e-05 5.20566e-05 8.56335e-21 8.68693e-05 -1.25374e-20 7.17336e-06)
(-8.20405e-05 3.10437e-05 -1.26636e-20 7.36762e-05 5.23561e-20 8.36423e-06)
(-7.02288e-05 1.64128e-05 8.11349e-20 6.10087e-05 -9.58407e-20 9.22012e-06)
(-5.97394e-05 6.31333e-06 1.31938e-20 4.98977e-05 1.15877e-20 9.84169e-06)
(-5.10614e-05 -7.59192e-07 9.3563e-20 4.0871e-05 -6.54341e-21 1.01904e-05)
(-4.39378e-05 -6.08821e-06 1.00026e-19 3.34931e-05 2.24109e-20 1.04447e-05)
(-3.80779e-05 -1.04065e-05 2.55856e-19 2.74927e-05 -3.37973e-20 1.05851e-05)
(-3.29298e-05 -1.44515e-05 3.31047e-19 2.21562e-05 -5.00794e-20 1.07737e-05)
(-2.77595e-05 -1.86736e-05 1.96865e-19 1.66896e-05 1.70542e-20 1.10699e-05)
(-2.10894e-05 -2.26152e-05 4.53302e-20 9.23583e-06 -9.27061e-21 1.18536e-05)
(-1.29577e-05 -2.48028e-05 -4.86227e-20 -2.34984e-07 2.34843e-20 1.31927e-05)
(-4.80856e-06 -2.40849e-05 1.81522e-19 -9.4376e-06 -2.94971e-20 1.42462e-05)
(2.16852e-06 -2.25547e-05 -4.88549e-20 -1.80219e-05 -4.75407e-21 1.58534e-05)
(5.47495e-06 -1.38341e-05 -3.13946e-20 -1.76535e-05 6.47231e-22 1.21785e-05)
(5.62389e-05 -7.33774e-05 2.76158e-20 -0.000143676 -8.68592e-22 8.74369e-05)
(0.000481037 -0.000275504 -1.44016e-18 -0.00111255 -5.44999e-20 0.000631517)
(0.0014503 0.00042538 -8.65022e-18 -0.0032207 -7.88766e-20 0.0017704)
(0.00231346 0.00468917 -5.48355e-17 -0.00521475 -3.18047e-18 0.00290129)
(0.00185818 0.0154491 -1.3433e-16 -0.00506973 -4.43485e-18 0.00321156)
(-0.000686452 0.0342903 -3.34075e-16 -0.00190551 -2.28745e-17 0.00259196)
(-0.00552521 0.0608537 -8.55041e-16 0.00397955 -7.65401e-17 0.00154565)
(-0.0113219 0.0929712 2.15852e-16 0.0108153 -1.7347e-17 0.000506676)
(-0.0190754 0.127608 -1.17301e-15 0.0190321 2.11049e-16 4.32796e-05)
(-0.00964115 0.154101 2.94736e-15 0.0104734 5.32921e-16 -0.000832245)
(-0.0374631 0.261194 4.63719e-15 0.0294834 9.50703e-16 0.00797966)
(0.000306277 -0.00025822 9.51568e-21 -0.000296873 1.62784e-20 -9.40393e-06)
(0.000259295 -0.000306082 -1.32542e-20 -0.000248906 -2.38931e-20 -1.03891e-05)
(0.000195907 -0.00034741 -6.02786e-21 -0.000182638 -3.32175e-21 -1.32692e-05)
(0.000125025 -0.000374211 7.16066e-20 -0.000109147 1.04795e-19 -1.58782e-05)
(5.17723e-05 -0.000382632 4.5507e-20 -3.28931e-05 8.24867e-20 -1.88792e-05)
(-2.12926e-05 -0.000372939 5.77214e-20 4.36669e-05 1.10845e-19 -2.23742e-05)
(-8.66759e-05 -0.000347082 8.81559e-20 0.000112591 1.01991e-19 -2.59149e-05)
(-0.00013954 -0.000308084 -5.05817e-20 0.000168991 -7.85515e-20 -2.94511e-05)
(-0.000178418 -0.00026056 -1.80919e-19 0.000211681 -1.79248e-19 -3.32626e-05)
(-0.000202003 -0.000209913 2.34922e-19 0.000238694 1.323e-19 -3.66906e-05)
(-0.000211572 -0.00016004 1.97567e-19 0.000251483 1.67323e-19 -3.99105e-05)
(-0.000209294 -0.000114098 2.55705e-19 0.000251822 1.22495e-19 -4.25285e-05)
(-0.000197722 -7.42133e-05 -4.2085e-19 0.000241968 -1.34781e-19 -4.42464e-05)
(-0.000179866 -4.12319e-05 -3.58074e-19 0.000224686 -2.40538e-19 -4.48201e-05)
(-0.000157746 -1.50514e-05 4.73827e-19 0.000202219 1.49034e-19 -4.44725e-05)
(-0.000133076 7.47406e-06 9.57357e-20 0.000175228 5.89553e-20 -4.2152e-05)
(-0.000107596 2.66262e-05 -7.09841e-20 0.000145737 7.32654e-21 -3.81413e-05)
(-8.46189e-05 4.29448e-05 -2.29714e-19 0.000117608 -1.50499e-19 -3.29895e-05)
(-6.13989e-05 5.41439e-05 5.13041e-20 8.61867e-05 -1.96843e-20 -2.47877e-05)
(-4.61031e-05 6.27811e-05 2.14608e-19 6.32449e-05 6.62109e-20 -1.71418e-05)
(-3.8353e-05 7.14058e-05 -2.70709e-19 4.94047e-05 -7.78655e-20 -1.10517e-05)
(-4.07808e-05 9.48447e-05 1.45399e-19 4.9074e-05 2.07687e-20 -8.29324e-06)
(-3.7436e-05 0.000112383 -4.38698e-20 4.35074e-05 -9.51226e-21 -6.07138e-06)
(-0.000263419 0.0011988 -9.30744e-19 0.000314328 4.56487e-19 -5.09092e-05)
(-0.00061024 0.00657666 3.65136e-18 0.000889545 -1.16543e-18 -0.000279305)
(3.78297e-06 9.5472e-05 -5.54897e-20 6.01348e-07 7.3632e-20 -4.38432e-06)
(0.000231775 0.00120198 1.03065e-20 -0.000166227 -2.37473e-20 -6.55477e-05)
(0.00105091 0.00144159 1.94204e-18 -0.000879945 -6.89527e-19 -0.000170965)
(0.00476033 -0.0115678 7.06986e-18 -0.00419558 1.78895e-17 -0.000564742)
(0.0101168 -0.110053 2.72296e-17 -0.00885793 -1.23302e-16 -0.00125883)
(-0.000357846 -0.479021 -6.65707e-17 0.00255399 -3.96862e-16 -0.00219614)
(-0.0768559 -1.29923 2.07742e-15 0.079554 5.51664e-16 -0.00269811)
(-0.263554 -2.4239 2.97031e-15 0.264419 6.72533e-16 -0.000865014)
(-0.514121 -3.34394 -1.64323e-15 0.510699 -2.23416e-15 0.00342141)
(-0.715478 -3.72246 -7.33279e-15 0.709517 1.42199e-15 0.0059607)
(-0.792844 -3.6504 4.84764e-15 0.790311 4.887e-15 0.0025329)
(-0.801235 -3.42059 -1.01675e-14 0.796559 -1.30327e-16 0.00467529)
(-0.573887 -3.0194 -1.30263e-14 0.584233 1.88158e-15 -0.0103458)
(-0.814641 -3.21245 9.21219e-15 0.786307 -3.43378e-15 0.0283338)
(0.000342227 -0.000198496 -1.46076e-20 -0.000335905 -2.97426e-20 -6.3221e-06)
(0.000364714 -0.000135326 -5.02369e-21 -0.000359228 2.03041e-20 -5.48577e-06)
(0.00037331 -5.72461e-05 4.835e-20 -0.00037062 9.21873e-20 -2.69019e-06)
(0.000363931 2.51568e-05 -2.06945e-20 -0.000362611 -1.16213e-21 -1.31933e-06)
(0.000332411 0.000105541 1.80247e-20 -0.000332513 1.1422e-19 1.02075e-07)
(0.000278549 0.000174405 -6.26946e-21 -0.000278829 -1.1105e-19 2.79393e-07)
(0.000208874 0.000222873 5.97609e-20 -0.000208618 -1.5505e-21 -2.56158e-07)
(0.000134092 0.000246332 -1.47488e-19 -0.000134121 -8.91346e-20 2.97902e-08)
(6.20836e-05 0.000246782 -8.05826e-20 -6.28884e-05 6.96665e-21 8.0478e-07)
(-4.83882e-07 0.000226455 1.33622e-19 -6.60619e-07 6.03012e-20 1.1445e-06)
(-4.60162e-05 0.000192083 6.23686e-20 4.50235e-05 -5.11782e-21 9.92724e-07)
(-7.36463e-05 0.000153527 7.38464e-20 7.3132e-05 -4.55936e-20 5.14238e-07)
(-8.69203e-05 0.000117333 -1.14039e-19 8.71738e-05 -7.47464e-20 -2.53521e-07)
(-9.02512e-05 8.63905e-05 -1.41383e-19 9.13698e-05 2.66886e-20 -1.11863e-06)
(-8.73179e-05 6.17613e-05 1.29051e-20 8.93379e-05 3.73724e-20 -2.02e-06)
(-8.10763e-05 4.30058e-05 4.37229e-20 8.39006e-05 -1.3012e-20 -2.82432e-06)
(-7.35836e-05 2.93012e-05 -1.07379e-19 7.71377e-05 -8.50156e-21 -3.55418e-06)
(-6.61121e-05 1.94552e-05 -4.12443e-21 7.02679e-05 -1.70996e-20 -4.15578e-06)
(-5.93565e-05 1.23059e-05 -4.12364e-20 6.40058e-05 -8.07166e-21 -4.64923e-06)
(-5.34499e-05 6.79689e-06 8.66505e-20 5.8436e-05 -4.99184e-20 -4.98609e-06)
(-4.83434e-05 2.24991e-06 -9.43813e-20 5.3592e-05 -3.2793e-20 -5.24861e-06)
(-4.37597e-05 -1.91016e-06 -1.96269e-19 4.92024e-05 -2.31686e-20 -5.44267e-06)
(-3.92321e-05 -6.02005e-06 8.88875e-21 4.48497e-05 -2.97499e-20 -5.6176e-06)
(-3.4047e-05 -9.84555e-06 5.03134e-20 3.97789e-05 -2.86283e-20 -5.7319e-06)
(-2.84138e-05 -1.22479e-05 1.5248e-19 3.44237e-05 -1.06384e-20 -6.00989e-06)
(-2.34551e-05 -1.29952e-05 -1.4286e-19 3.00707e-05 -8.27415e-21 -6.61562e-06)
(-1.95439e-05 -1.28643e-05 -2.45766e-20 2.6844e-05 7.64423e-21 -7.30012e-06)
(-1.65198e-05 -1.23531e-05 1.47862e-20 2.44678e-05 1.29343e-21 -7.94809e-06)
(-1.36845e-05 -1.1438e-05 -6.83166e-21 2.18802e-05 -2.74683e-22 -8.19563e-06)
(-1.087e-05 -1.01999e-05 -9.94622e-21 1.8711e-05 4.83543e-22 -7.841e-06)
(-7.46406e-06 -8.18353e-06 -1.60136e-20 1.38333e-05 -8.4577e-22 -6.36924e-06)
(-4.21062e-06 -5.75866e-06 4.61086e-20 8.61717e-06 1.3304e-21 -4.40656e-06)
(-3.03375e-05 -5.73257e-05 2.01217e-18 7.73824e-05 1.30909e-19 -4.70449e-05)
(-6.09517e-07 -4.58641e-05 1.88051e-17 0.000110322 1.74901e-18 -0.000109713)
(0.000235774 0.000600013 7.85171e-17 -0.000134744 1.03434e-17 -0.00010103)
(0.000879713 0.00333043 -1.72858e-16 -0.000935992 -2.64047e-17 5.62791e-05)
(0.00157547 0.0112351 7.43807e-16 -0.00205499 1.09994e-16 0.000479524)
(0.00672365 0.0279206 -4.8641e-16 -0.00721338 -1.68345e-16 0.000489733)
(-0.00282802 0.104511 -3.2968e-16 -0.00195231 -1.41048e-15 0.00478034)
(0.000222632 -0.000196131 -1.35347e-20 -0.000225648 -2.01606e-20 3.01554e-06)
(0.00018415 -0.000231623 2.65854e-21 -0.000188507 4.23597e-21 4.35762e-06)
(0.000134441 -0.000261244 1.61108e-20 -0.000139274 1.74974e-20 4.83315e-06)
(7.80003e-05 -0.000279189 -9.89662e-20 -8.41647e-05 -1.40665e-19 6.1644e-06)
(1.89364e-05 -0.000283318 -7.24486e-20 -2.64863e-05 -8.47329e-20 7.54992e-06)
(-4.04427e-05 -0.000273068 1.69306e-19 3.16139e-05 2.02667e-19 8.82884e-06)
(-9.48329e-05 -0.000249167 -1.79755e-19 8.42686e-05 -2.23208e-19 1.05644e-05)
(-0.000140346 -0.00021379 -8.12619e-20 0.000127927 -5.40598e-20 1.24194e-05)
(-0.000174741 -0.000169936 -1.93186e-19 0.00016048 -1.44566e-19 1.42614e-05)
(-0.000196679 -0.000121816 -3.59989e-20 0.000180317 -6.55048e-20 1.63616e-05)
(-0.000206279 -7.2869e-05 2.41758e-20 0.000187825 -8.72364e-21 1.84543e-05)
(-0.000204706 -2.62637e-05 -1.32279e-19 0.000184164 -1.75438e-19 2.05416e-05)
(-0.00019397 1.5444e-05 4.30643e-19 0.000171444 2.94944e-19 2.2526e-05)
(-0.000176464 5.07365e-05 -1.41749e-19 0.000152269 -2.4789e-20 2.41946e-05)
(-0.000154502 7.94338e-05 -3.47391e-19 0.000128932 -1.5191e-19 2.55706e-05)
(-0.00013052 0.000100454 2.30336e-19 0.000104582 4.60935e-21 2.59379e-05)
(-0.000106117 0.000113121 -1.6734e-19 8.13054e-05 -9.65175e-20 2.48121e-05)
(-8.18111e-05 0.000118095 2.28685e-21 5.91227e-05 1.22271e-19 2.26884e-05)
(-5.91038e-05 0.000116972 -3.99252e-20 3.92129e-05 -3.13666e-20 1.98908e-05)
(-3.82883e-05 0.000108233 -2.78121e-19 2.21173e-05 -1.92159e-19 1.6171e-05)
(-2.24475e-05 9.58652e-05 2.00607e-19 1.0452e-05 1.9475e-19 1.19954e-05)
(-1.08688e-05 7.07784e-05 3.70261e-21 4.13698e-06 -1.1415e-19 6.73182e-06)
(-6.76629e-06 6.98619e-05 3.84163e-20 2.13182e-06 1.17547e-20 4.63447e-06)
(-2.52055e-06 7.9843e-05 1.11644e-19 -1.21914e-06 -5.00196e-21 3.73969e-06)
(3.77266e-06 8.6995e-05 -3.76453e-20 -6.75052e-06 -1.19908e-20 2.97786e-06)
(9.47468e-06 8.92343e-05 1.26789e-19 -1.15696e-05 2.02486e-20 2.09491e-06)
(2.77727e-05 0.000193921 -1.50645e-20 -3.04292e-05 3.44078e-22 2.65648e-06)
(0.000264633 0.00161788 -2.57292e-19 -0.000275245 -1.59241e-19 1.06121e-05)
(0.00149612 0.00800573 2.6107e-20 -0.00150936 2.06575e-18 1.32467e-05)
(0.000943433 0.00414355 -1.20758e-17 -0.000934919 9.97035e-19 -8.51312e-06)
(0.00277267 0.00873546 -1.10731e-17 -0.00272607 1.85167e-18 -4.65983e-05)
(0.0106255 0.012089 2.78539e-17 -0.0103967 -1.62578e-16 -0.000228707)
(0.018749 -0.0984141 5.76091e-16 -0.0179194 -7.06917e-16 -0.000829608)
(-0.0256111 -0.584022 -2.98217e-15 0.0276017 1.58945e-16 -0.00199057)
(-0.182119 -1.48964 4.83409e-15 0.183935 1.81628e-15 -0.00181635)
(-0.400648 -2.39894 -9.60392e-16 0.40136 4.22601e-16 -0.000711504)
(-0.585944 -2.9637 -1.75003e-15 0.581983 3.98548e-15 0.00396153)
(-0.525445 -3.08569 6.73223e-16 0.536075 2.4423e-16 -0.0106307)
(-0.773252 -3.40207 -1.72599e-14 0.735763 4.31262e-15 0.0374891)
(0.000253109 -0.000152903 8.63745e-21 -0.000256266 3.53071e-21 3.15729e-06)
(0.000274188 -0.000106573 -3.12486e-20 -0.000275961 -4.49325e-20 1.77368e-06)
(0.000285725 -4.96654e-05 3.99011e-21 -0.000287343 2.03318e-20 1.61843e-06)
(0.000283462 1.17708e-05 1.70416e-20 -0.000284286 -5.68579e-20 8.23808e-07)
(0.000264477 7.30954e-05 -1.38576e-19 -0.000265054 -1.99267e-19 5.76993e-07)
(0.000228055 0.000127522 -1.23138e-19 -0.000228064 9.48319e-20 9.59418e-09)
(0.000178329 0.000168591 1.98759e-19 -0.000178004 1.03191e-19 -3.24747e-07)
(0.000122701 0.000192329 -6.43112e-20 -0.000122581 -1.86803e-19 -1.1953e-07)
(6.67737e-05 0.00019883 -8.78174e-20 -6.69524e-05 2.49288e-20 1.78673e-07)
(1.59954e-05 0.000188954 -5.98843e-20 -1.63338e-05 -1.03991e-19 3.38412e-07)
(-2.36425e-05 0.000167062 2.09743e-20 2.3338e-05 3.16659e-20 3.04504e-07)
(-5.04764e-05 0.000139406 -3.93064e-20 5.01965e-05 -5.14049e-20 2.7993e-07)
(-6.58551e-05 0.000110987 -8.11803e-20 6.55256e-05 1.0921e-19 3.29443e-07)
(-7.23448e-05 8.47909e-05 8.61056e-20 7.18776e-05 5.05161e-20 4.6719e-07)
(-7.25485e-05 6.24353e-05 7.31689e-20 7.18744e-05 -3.36506e-20 6.7413e-07)
(-6.88974e-05 4.43327e-05 -1.50338e-20 6.79426e-05 -3.01137e-20 9.54808e-07)
(-6.3243e-05 3.02674e-05 4.36826e-20 6.19788e-05 9.72953e-21 1.26422e-06)
(-5.69252e-05 1.95722e-05 -6.47135e-20 5.53445e-05 1.65351e-20 1.58075e-06)
(-5.07706e-05 1.14573e-05 4.58168e-20 4.88928e-05 -1.20506e-21 1.87782e-06)
(-4.51111e-05 5.13663e-06 -6.03069e-20 4.29591e-05 -2.81632e-20 2.15203e-06)
(-4.00212e-05 -2.42343e-08 5.81808e-20 3.76436e-05 4.86284e-21 2.37761e-06)
(-3.53191e-05 -4.52303e-06 7.79908e-20 3.27497e-05 1.70605e-20 2.56937e-06)
(-3.06278e-05 -8.65581e-06 -5.44309e-21 2.79078e-05 7.15669e-21 2.71996e-06)
(-2.53526e-05 -1.22593e-05 -1.46136e-19 2.24322e-05 6.98245e-23 2.92036e-06)
(-1.95046e-05 -1.4549e-05 -5.43769e-20 1.63514e-05 -2.32201e-20 3.15321e-06)
(-1.39157e-05 -1.52732e-05 -1.60215e-20 1.05751e-05 2.46903e-20 3.34059e-06)
(-9.03114e-06 -1.50174e-05 5.92787e-20 5.38493e-06 7.3611e-22 3.64621e-06)
(-4.81574e-06 -1.4194e-05 2.13745e-21 7.45417e-07 -4.86904e-22 4.07033e-06)
(-1.23681e-06 -1.31321e-05 -3.35562e-21 -3.32327e-06 2.86656e-22 4.56008e-06)
(1.63568e-06 -1.12953e-05 3.75535e-20 -6.35303e-06 1.73948e-22 4.71735e-06)
(4.36947e-06 -1.18045e-05 3.32651e-20 -1.00256e-05 1.07548e-21 5.65609e-06)
(3.23051e-06 -5.83857e-06 -8.99589e-20 -6.13171e-06 -4.97833e-21 2.90121e-06)
(1.18619e-05 -1.7225e-05 -7.62863e-19 -1.98402e-05 -5.91699e-20 7.97825e-06)
(8.60295e-05 -0.000108071 -1.05725e-18 -0.000127922 -1.29119e-19 4.18928e-05)
(0.000243495 -0.000265471 2.05517e-18 -0.00032229 2.20965e-20 7.87943e-05)
(0.000248953 -0.000202658 -3.86311e-18 -0.000289024 1.59044e-18 4.00701e-05)
(0.000435199 -0.000155769 -2.12958e-17 -0.000470308 -1.77309e-17 3.51085e-05)
(0.000881857 0.000200241 5.27182e-17 -0.000861408 3.76444e-18 -2.04492e-05)
(0.00384112 0.0197306 -2.90855e-16 -0.00521567 5.23284e-17 0.00137455)
(0.000184135 -0.000161016 1.18697e-20 -0.000183023 1.37883e-20 -1.11185e-06)
(0.000155881 -0.000189724 -2.98491e-20 -0.000154876 -3.58775e-20 -1.00467e-06)
(0.000118629 -0.000214943 -2.41024e-21 -0.000117023 -4.98742e-21 -1.60619e-06)
(7.60874e-05 -0.000232388 -1.24403e-20 -7.41946e-05 -6.48759e-21 -1.89274e-06)
(3.10386e-05 -0.000239975 9.86366e-20 -2.87694e-05 1.13518e-19 -2.26912e-06)
(-1.54515e-05 -0.000237319 7.56358e-20 1.84295e-05 6.24057e-20 -2.978e-06)
(-5.93398e-05 -0.000224508 9.61704e-22 6.29595e-05 3.04983e-20 -3.61967e-06)
(-9.76925e-05 -0.000202638 1.87631e-19 0.00010208 1.81804e-19 -4.38748e-06)
(-0.000128792 -0.000173562 -2.34317e-20 0.000134176 -3.12872e-21 -5.38402e-06)