/*--------------------------------*- C++ -*----------------------------------*\
| =========                 |                                                 |
| \\      /  F ield         | OpenFOAM: The Open Source CFD Toolbox           |
|  \\    /   O peration     | Version:  2506                                  |
|   \\  /    A nd           | Website:  www.openfoam.com                      |
|    \\/     M anipulation  |                                                 |
\*---------------------------------------------------------------------------*/
FoamFile
{
    version     2.0;
    format      ascii;
    arch        "LSB;label=32;scalar=64";
    class       volSymmTensorField;
    location    "300";
    object      turbulenceProperties:R;
}
// * * * * * * * * * * * * * * * * * * * * * * * * * * * * * * * * * * * * * //

dimensions      [0 2 -2 0 0 0 0];

internalField   nonuniform List<symmTensor> 
1340
(
(4.90489e-07 2.98399e-08 -4.14968e-20 4.2265e-07 -5.37219e-21 4.96864e-07)
(8.43702e-07 3.64025e-08 2.09293e-20 1.04152e-06 2.42741e-21 8.87797e-07)
(1.03819e-07 -1.79435e-09 -8.12916e-20 9.7355e-08 -1.01698e-20 1.13557e-07)
(3.89727e-07 9.89706e-09 -1.27231e-20 4.86615e-07 -1.43846e-21 4.13466e-07)
(4.86725e-07 3.12249e-08 6.13774e-21 4.2324e-07 6.62705e-22 4.95736e-07)
(8.45602e-07 3.60527e-08 -8.40782e-20 1.04303e-06 -9.51294e-21 8.88529e-07)
(1.00145e-07 -1.43225e-09 -0 1.29199e-07 -5.00879e-23 1.17506e-07)
(1.65606e-07 -5.42094e-09 -2.75069e-20 2.1046e-07 -3.24761e-21 1.81736e-07)
(1.00395e-07 -1.41492e-09 7.72584e-20 9.65686e-08 9.69098e-21 1.11483e-07)
(3.91215e-07 9.36589e-09 3.89288e-20 4.88546e-07 4.60011e-21 4.14919e-07)
(4.84516e-07 3.2427e-08 1.31137e-23 4.25332e-07 7.72086e-23 4.96399e-07)
(8.47055e-07 3.54988e-08 6.92659e-20 1.04342e-06 7.77803e-21 8.88053e-07)
(1.87359e-07 7.02737e-09 -3.5024e-20 2.40453e-07 -4.20679e-21 2.13766e-07)
(1.645e-07 5.16028e-09 7.24552e-22 2.11747e-07 1.7824e-22 1.88547e-07)
(1.54394e-07 1.63206e-09 4.78721e-21 1.99624e-07 5.7091e-22 1.75857e-07)
(1.052e-07 -2.54338e-09 -0 1.35467e-07 -1.00757e-23 1.23127e-07)
(1.69606e-07 -6.62075e-09 -1.25635e-22 2.15036e-07 -2.20022e-23 1.86072e-07)
(9.78232e-08 -1.08021e-09 5.53655e-22 9.66682e-08 9.5243e-23 1.10247e-07)
(3.92844e-07 9.02108e-09 3.25636e-22 4.90584e-07 6.02075e-23 4.16505e-07)
(4.83626e-07 3.35e-08 2.87644e-24 4.28332e-07 2.49946e-24 4.98197e-07)
(8.47976e-07 3.45542e-08 3.7395e-22 1.04337e-06 6.88292e-23 8.871e-07)
(2.67675e-07 9.38511e-09 2.48265e-21 3.4386e-07 3.90369e-22 3.0575e-07)
(2.47999e-07 8.39585e-09 1.05397e-20 3.18775e-07 1.27594e-21 2.83368e-07)
(2.31909e-07 7.65445e-09 1.07126e-20 2.98217e-07 1.08341e-21 2.65086e-07)
(2.16999e-07 7.12711e-09 -3.72823e-20 2.79068e-07 -4.46645e-21 2.48014e-07)
(2.01412e-07 6.50455e-09 9.73391e-21 2.59092e-07 1.26042e-21 2.30288e-07)
(1.86712e-07 5.51187e-09 -1.48567e-20 2.40433e-07 -1.83113e-21 2.13439e-07)
(1.65038e-07 3.72793e-09 9.62371e-23 2.13065e-07 1.37121e-22 1.8946e-07)
(1.56103e-07 1.66365e-10 3.53846e-20 2.01985e-07 4.30193e-21 1.77927e-07)
(1.10693e-07 -3.70156e-09 -0 1.42132e-07 -7.1962e-23 1.29145e-07)
(1.73475e-07 -7.7583e-09 2.05019e-21 2.19395e-07 1.40948e-22 1.90274e-07)
(9.60187e-08 -7.73357e-10 -7.06306e-20 9.75157e-08 -8.83575e-21 1.09719e-07)
(3.94503e-07 8.81317e-09 -3.55524e-20 4.92684e-07 -4.20682e-21 4.182e-07)
(4.83758e-07 3.44923e-08 -2.32402e-21 4.31858e-07 -2.29496e-22 5.00693e-07)
(8.48493e-07 3.31984e-08 9.14179e-21 1.04322e-06 1.03811e-21 8.86019e-07)
(3.7482e-07 8.72324e-09 2.05442e-20 4.8335e-07 2.13848e-21 4.29088e-07)
(3.51492e-07 8.82404e-09 -1.8982e-20 4.53056e-07 -2.31715e-21 4.02276e-07)
(3.28151e-07 8.60781e-09 -4.94676e-21 4.22858e-07 -6.17578e-22 3.75511e-07)
(3.05373e-07 8.18924e-09 -3.07323e-20 3.93468e-07 -3.58026e-21 3.49409e-07)
(2.83002e-07 7.67742e-09 -7.11216e-21 3.64646e-07 -6.88807e-22 3.23851e-07)
(2.61973e-07 7.09251e-09 4.98838e-21 3.37586e-07 6.22021e-22 2.99765e-07)
(2.43668e-07 6.28756e-09 2.54687e-21 3.14152e-07 2.80432e-22 2.78896e-07)
(2.28721e-07 5.72309e-09 5.24053e-23 2.9497e-07 2.57033e-23 2.61871e-07)
(2.14768e-07 5.35649e-09 6.2373e-21 2.76986e-07 6.77111e-22 2.4586e-07)
(2.00107e-07 4.87587e-09 -1.7083e-20 2.58135e-07 -1.96527e-21 2.29156e-07)
(1.8624e-07 3.98541e-09 3.24527e-20 2.40444e-07 3.90444e-21 2.13219e-07)
(1.65855e-07 2.26566e-09 -2.10642e-20 2.14545e-07 -2.72696e-21 1.90588e-07)
(1.58118e-07 -1.31675e-09 -3.34101e-20 2.04528e-07 -3.99067e-21 1.80253e-07)
(1.16544e-07 -4.90049e-09 -0 1.49093e-07 7.32881e-23 1.35467e-07)
(1.77122e-07 -8.82974e-09 -1.95123e-21 2.23436e-07 -1.27637e-22 1.94244e-07)
(9.4924e-08 -4.82221e-10 6.70482e-20 9.90388e-08 8.36428e-21 1.09829e-07)
(3.96052e-07 8.71961e-09 3.36014e-20 4.94672e-07 3.95509e-21 4.19847e-07)
(4.84549e-07 3.54018e-08 2.21173e-21 4.35651e-07 2.19265e-22 5.03595e-07)
(8.48742e-07 3.14669e-08 -8.60168e-21 1.043e-06 -9.6958e-22 8.84833e-07)
(5.09262e-07 -4.42289e-09 -2.22216e-21 6.58621e-07 -3.73762e-22 5.83951e-07)
(4.87369e-07 -2.47644e-09 -1.20159e-20 6.3046e-07 -1.45889e-21 5.58923e-07)
(4.6561e-07 -6.75138e-10 -2.14404e-20 6.0237e-07 -2.22471e-21 5.33998e-07)
(4.44127e-07 1.01091e-09 7.58382e-21 5.74546e-07 9.78226e-22 5.09343e-07)
(4.22964e-07 2.56104e-09 -1.95652e-21 5.47057e-07 -2.09477e-22 4.85017e-07)
(4.02038e-07 3.89616e-09 9.79559e-21 5.19819e-07 1.2727e-21 4.60934e-07)
(3.81122e-07 4.92052e-09 2.5308e-20 4.92579e-07 2.81511e-21 4.36855e-07)
(3.60016e-07 5.56488e-09 1.39802e-22 4.65125e-07 -4.1862e-23 4.12574e-07)
(3.3869e-07 5.83347e-09 1.49605e-20 4.37454e-07 1.70653e-21 3.88076e-07)
(3.17321e-07 5.80051e-09 -1.37179e-21 4.098e-07 -2.19889e-22 3.63567e-07)
(2.96443e-07 5.57852e-09 1.31474e-21 3.82827e-07 2.09321e-22 3.39624e-07)
(2.75821e-07 5.26318e-09 1.35272e-20 3.56214e-07 1.54909e-21 3.16047e-07)
(2.56364e-07 4.85492e-09 -4.69354e-21 3.31124e-07 -6.11653e-22 2.9373e-07)
(2.39456e-07 4.22253e-09 -2.36129e-21 3.09399e-07 -2.57902e-22 2.74415e-07)
(2.25648e-07 3.82522e-09 7.83803e-23 2.91615e-07 2.6834e-23 2.58657e-07)
(2.12651e-07 3.60857e-09 -4.67824e-23 2.74821e-07 -3.80116e-24 2.43721e-07)
(1.98941e-07 3.25814e-09 -1.37015e-22 2.57145e-07 -8.06729e-23 2.28075e-07)
(1.85916e-07 2.45801e-09 -1.76965e-20 2.40444e-07 -2.06349e-21 2.13068e-07)
(1.66928e-07 7.81552e-10 2.00358e-20 2.16152e-07 2.4674e-21 1.91902e-07)
(1.60406e-07 -2.81104e-09 -1.33743e-22 2.0721e-07 -7.63081e-23 1.82796e-07)
(1.22696e-07 -6.13281e-09 -0 1.5628e-07 4.51407e-24 1.42029e-07)
(1.8048e-07 -9.82954e-09 1.85265e-21 2.27094e-07 1.1327e-22 1.97916e-07)
(9.44816e-08 -2.0037e-10 -6.83458e-20 1.01186e-07 -8.44908e-21 1.1052e-07)
(3.97464e-07 8.73029e-09 1.12667e-22 4.96514e-07 1.18084e-22 4.2141e-07)
(4.85717e-07 3.62188e-08 -6.29188e-21 4.39501e-07 -8.12072e-22 5.06667e-07)
(8.48604e-07 2.93726e-08 -4.70533e-23 1.0425e-06 -3.43559e-24 8.83367e-07)
(6.96727e-07 -4.50937e-08 2.13661e-21 8.77427e-07 2.0544e-23 7.87087e-07)
(6.79569e-07 -4.15642e-08 -1.34535e-20 8.58514e-07 -1.40923e-21 7.69051e-07)
(6.62074e-07 -3.8034e-08 -2.69166e-22 8.38951e-07 3.00647e-22 7.50524e-07)
(6.44291e-07 -3.45085e-08 1.22132e-20 8.18799e-07 1.10385e-21 7.31558e-07)
(6.26298e-07 -3.10089e-08 -1.30381e-20 7.98136e-07 -1.47831e-21 7.12229e-07)
(6.08129e-07 -2.75601e-08 2.37924e-21 7.76991e-07 4.17378e-22 6.92572e-07)
(5.89843e-07 -2.41914e-08 9.21333e-22 7.55425e-07 4.62213e-23 6.72646e-07)
(5.71483e-07 -2.09489e-08 -2.21037e-21 7.33473e-07 -8.58949e-23 6.5249e-07)
(5.53068e-07 -1.7879e-08 1.54402e-20 7.11152e-07 1.88061e-21 6.32121e-07)
(5.34555e-07 -1.5025e-08 2.17022e-20 6.88415e-07 2.18886e-21 6.11495e-07)
(5.15907e-07 -1.24183e-08 1.61404e-21 6.65234e-07 2.34598e-23 5.9058e-07)
(4.97071e-07 -1.00595e-08 5.70296e-21 6.4158e-07 5.51419e-22 5.69334e-07)
(4.78057e-07 -7.91891e-09 -6.14783e-21 6.17513e-07 -7.17376e-22 5.47793e-07)
(4.58921e-07 -5.9451e-09 -6.82086e-23 5.93146e-07 2.85912e-22 5.2604e-07)
(4.39788e-07 -4.08381e-09 3.23235e-20 5.68671e-07 3.5581e-21 5.04236e-07)
(4.20782e-07 -2.315e-09 4.43368e-23 5.44262e-07 -3.51172e-22 4.82527e-07)
(4.01941e-07 -6.72719e-10 -1.83946e-20 5.19973e-07 -2.0835e-21 4.60962e-07)
(3.832e-07 7.58823e-10 -3.75854e-21 4.95735e-07 -4.07288e-22 4.39472e-07)
(3.64371e-07 1.88251e-09 -1.72934e-20 4.71333e-07 -1.95387e-21 4.17856e-07)
(3.45303e-07 2.63797e-09 -4.0677e-21 4.46611e-07 -3.65466e-22 3.9596e-07)
(3.25982e-07 3.03405e-09 1.38794e-22 4.21585e-07 -5.2369e-23 3.73786e-07)
(3.0659e-07 3.15047e-09 -2.13452e-20 3.96498e-07 -2.45827e-21 3.5155e-07)
(2.87611e-07 3.09472e-09 -1.40626e-21 3.71966e-07 -8.73468e-23 3.29777e-07)
(2.6874e-07 2.94776e-09 -5.19752e-21 3.4759e-07 -6.01094e-22 3.08193e-07)
(2.50873e-07 2.69343e-09 -3.89797e-23 3.24517e-07 2.33943e-23 2.8768e-07)
(2.35374e-07 2.22003e-09 2.24843e-21 3.04539e-07 1.80975e-22 2.69945e-07)
(2.22691e-07 1.97837e-09 -1.82413e-20 2.88162e-07 -2.10039e-21 2.55451e-07)
(2.10646e-07 1.89847e-09 1.65849e-20 2.72575e-07 2.09966e-21 2.41597e-07)
(1.97902e-07 1.6643e-09 1.52571e-20 2.56113e-07 1.85224e-21 2.27035e-07)
(1.85732e-07 9.39164e-10 2.77653e-20 2.4043e-07 3.18984e-21 2.12981e-07)
(1.6825e-07 -7.16912e-10 -3.23153e-20 2.17873e-07 -3.97372e-21 1.93392e-07)
(1.62946e-07 -4.31075e-09 -5.53067e-23 2.10008e-07 7.25493e-23 1.85533e-07)
(1.29097e-07 -7.39075e-09 -0 1.63636e-07 -2.71604e-24 1.48779e-07)
(1.8348e-07 -1.07515e-08 -1.74773e-21 2.30298e-07 -1.78685e-22 2.01219e-07)
(9.46496e-08 8.0586e-11 1.74563e-20 1.03912e-07 2.15252e-21 1.11749e-07)
(3.98678e-07 8.83147e-09 7.50497e-21 4.98143e-07 8.80291e-22 4.22835e-07)
(4.86898e-07 3.69451e-08 -7.37613e-21 4.43094e-07 -9.64404e-22 5.0954e-07)
(8.48259e-07 2.6908e-08 1.89108e-24 1.04195e-06 6.51559e-24 8.81862e-07)
(6.62493e-07 -4.66036e-08 1.24476e-21 8.01086e-07 1.64768e-22 7.14628e-07)
(7.22094e-07 -8.44609e-08 1.80201e-21 8.74995e-07 1.13835e-22 7.99783e-07)
(6.49776e-07 -7.5073e-08 -9.14626e-23 7.74004e-07 -4.28261e-23 7.20763e-07)
(6.68897e-07 -6.88616e-08 3.35886e-22 7.95442e-07 4.60083e-23 7.30255e-07)
(6.71001e-07 -7.12361e-08 4.21374e-22 7.90468e-07 3.64625e-23 7.31459e-07)
(7.02116e-07 -7.62235e-08 1.90908e-22 8.26045e-07 7.51587e-24 7.63797e-07)
(7.19806e-07 -7.95399e-08 1.00721e-22 8.43358e-07 -3.38228e-23 7.81654e-07)
(7.37061e-07 -8.22565e-08 -1.50702e-21 8.6076e-07 -1.59099e-22 7.98833e-07)
(7.52199e-07 -8.46984e-08 -5.93148e-22 8.75651e-07 1.60682e-23 8.13929e-07)
(7.66383e-07 -8.68497e-08 1.34041e-21 8.89946e-07 1.42238e-22 8.2813e-07)
(7.79365e-07 -8.88052e-08 -0 9.03128e-07 -3.77959e-23 8.41227e-07)
(7.91039e-07 -9.04892e-08 -7.11833e-23 9.15221e-07 6.22382e-23 8.53086e-07)
(8.0115e-07 -9.19124e-08 2.70763e-21 9.25795e-07 2.65119e-22 8.63448e-07)
(8.09731e-07 -9.30615e-08 8.12536e-23 9.34975e-07 1.18075e-23 8.72346e-07)
(8.17054e-07 -9.39514e-08 2.77699e-21 9.43143e-07 2.69951e-22 8.80055e-07)
(8.22766e-07 -9.45913e-08 1.68587e-22 9.49718e-07 -3.39861e-23 8.86214e-07)
(8.27034e-07 -9.49679e-08 5.43119e-22 9.55007e-07 9.09955e-23 8.90992e-07)
(8.29921e-07 -9.51043e-08 2.00093e-21 9.59023e-07 1.99135e-22 8.94449e-07)
(8.31478e-07 -9.50004e-08 9.67007e-22 9.61832e-07 1.07602e-22 8.96628e-07)
(8.318e-07 -9.46757e-08 2.59398e-21 9.63504e-07 1.76315e-22 8.97623e-07)
(8.30913e-07 -9.41322e-08 -2.29586e-21 9.64056e-07 -3.48645e-22 8.97454e-07)
(8.28907e-07 -9.33893e-08 -3.29988e-21 9.63548e-07 -2.4333e-22 8.96207e-07)
(8.25902e-07 -9.24477e-08 1.10374e-21 9.62139e-07 1.58589e-22 8.93995e-07)
(8.21984e-07 -9.13313e-08 -7.89385e-22 9.59862e-07 -1.47487e-22 8.90897e-07)
(8.17214e-07 -9.00459e-08 -2.25148e-21 9.56775e-07 -2.45819e-22 8.86968e-07)
(8.11664e-07 -8.86035e-08 -1.92049e-21 9.52927e-07 -6.46551e-23 8.82274e-07)
(8.05431e-07 -8.70103e-08 3.82357e-21 9.48426e-07 3.84594e-22 8.76904e-07)
(7.98605e-07 -8.52874e-08 -1.2913e-21 9.43325e-07 -1.88938e-22 8.7094e-07)
(7.91171e-07 -8.34318e-08 4.82968e-22 9.37593e-07 3.93947e-23 8.6436e-07)
(7.83251e-07 -8.14577e-08 -1.6738e-21 9.31353e-07 -1.22609e-22 8.57277e-07)
(7.74835e-07 -7.9369e-08 2.64667e-21 9.24562e-07 3.1891e-22 8.49674e-07)
(7.65977e-07 -7.71744e-08 1.61754e-21 9.17264e-07 1.44296e-22 8.41595e-07)
(7.56716e-07 -7.48833e-08 1.89988e-21 9.09478e-07 2.40735e-22 8.33072e-07)
(7.47042e-07 -7.24945e-08 4.66555e-21 9.01179e-07 3.70759e-22 8.24085e-07)
(7.37005e-07 -7.00228e-08 -3.55917e-21 8.92394e-07 -4.65376e-22 8.14675e-07)
(7.26595e-07 -6.74664e-08 -1.96854e-21 8.83106e-07 -1.3865e-22 8.04825e-07)
(7.15802e-07 -6.48349e-08 1.66591e-22 8.73267e-07 1.30943e-23 7.94513e-07)
(7.04676e-07 -6.21321e-08 -2.28357e-21 8.62936e-07 -2.4434e-22 7.83782e-07)
(6.93148e-07 -5.93645e-08 -9.08633e-22 8.52e-07 -1.15284e-22 7.72555e-07)
(6.81242e-07 -5.65322e-08 -3.62031e-21 8.40483e-07 -3.31736e-22 7.60848e-07)
(6.68987e-07 -5.36456e-08 1.25369e-21 8.28402e-07 2.05873e-22 7.4868e-07)
(6.56323e-07 -5.07034e-08 1.59537e-21 8.15677e-07 8.92038e-23 7.35988e-07)
(6.4327e-07 -4.77143e-08 -4.06134e-21 8.02316e-07 -3.95255e-22 7.22785e-07)
(6.298e-07 -4.46741e-08 3.2157e-21 7.88283e-07 3.91315e-22 7.09038e-07)
(6.15971e-07 -4.15928e-08 -1.06603e-22 7.73637e-07 -6.5042e-23 6.94802e-07)
(6.01765e-07 -3.84769e-08 -3.13392e-27 7.58343e-07 -1.61942e-23 6.80055e-07)
(5.87225e-07 -3.53365e-08 6.54556e-23 7.42441e-07 5.82355e-23 6.64837e-07)
(5.72422e-07 -3.21896e-08 3.24306e-21 7.26002e-07 2.13714e-22 6.49215e-07)
(5.57374e-07 -2.90601e-08 -1.12106e-20 7.09026e-07 -1.21695e-21 6.33205e-07)
(5.42152e-07 -2.59829e-08 4.62604e-24 6.91577e-07 1.15757e-22 6.16871e-07)
(5.26808e-07 -2.3001e-08 2.73841e-23 6.73702e-07 -4.15613e-23 6.00261e-07)
(5.11339e-07 -2.01639e-08 -4.28493e-21 6.55378e-07 -4.54053e-22 5.83365e-07)
(4.95717e-07 -1.75088e-08 1.61376e-22 6.36572e-07 7.01663e-23 5.66151e-07)
(4.79912e-07 -1.50647e-08 -5.04361e-22 6.1726e-07 -4.71996e-23 5.48592e-07)
(4.63859e-07 -1.28282e-08 1.6566e-23 5.974e-07 -9.38746e-24 5.30636e-07)
(4.47562e-07 -1.07666e-08 -2.38652e-21 5.77041e-07 -2.5985e-22 5.12307e-07)
(4.3105e-07 -8.82859e-09 2.01878e-23 5.56266e-07 -8.67475e-23 4.93664e-07)
(4.14427e-07 -6.9686e-09 -1.38032e-20 5.35235e-07 -1.51351e-21 4.74836e-07)
(3.97796e-07 -5.17763e-09 3.46787e-24 5.14096e-07 2.0589e-22 4.55951e-07)
(3.81199e-07 -3.50099e-09 1.5472e-20 4.92898e-07 1.72167e-21 4.37053e-07)
(3.64588e-07 -2.02813e-09 -1.77659e-23 4.71583e-07 -6.19176e-24 4.18089e-07)
(3.47811e-07 -8.54685e-10 1.65261e-20 4.49972e-07 1.85803e-21 3.98895e-07)
(3.30757e-07 -3.36385e-11 -1.00732e-21 4.27954e-07 -2.79323e-22 3.79358e-07)
(3.13432e-07 4.51243e-10 -1.37465e-20 4.05567e-07 -1.56119e-21 3.59502e-07)
(2.96007e-07 6.82146e-10 -1.97221e-22 3.8305e-07 3.88966e-23 3.39534e-07)
(2.7891e-07 7.61051e-10 -1.60426e-23 3.60956e-07 1.41481e-23 3.19922e-07)
(2.61782e-07 7.52351e-10 5.0273e-21 3.38826e-07 5.98167e-22 3.00333e-07)
(2.45518e-07 6.28584e-10 4.30556e-21 3.17806e-07 4.81505e-22 2.81646e-07)
(2.31426e-07 2.98365e-10 4.17855e-23 2.99595e-07 -8.95288e-24 2.65501e-07)
(2.19846e-07 1.99373e-10 -1.26733e-22 2.84619e-07 -1.94996e-23 2.52257e-07)
(2.08746e-07 2.41228e-10 8.2772e-23 2.7025e-07 -4.05422e-23 2.39485e-07)
(1.96979e-07 1.06477e-10 -1.44738e-20 2.55029e-07 -1.79537e-21 2.26027e-07)
(1.85678e-07 -5.62241e-10 -2.23923e-20 2.4039e-07 -2.54015e-21 2.12948e-07)
(1.69812e-07 -2.22261e-09 3.19073e-20 2.19698e-07 3.92803e-21 1.95052e-07)
(1.65725e-07 -5.81064e-09 1.53807e-20 2.12911e-07 1.77141e-21 1.88451e-07)
(1.35705e-07 -8.66525e-09 -0 1.71113e-07 -4.42921e-23 1.55674e-07)
(1.8608e-07 -1.15904e-08 -5.07989e-21 2.33013e-07 -5.40653e-22 2.04117e-07)
(9.53711e-08 3.75679e-10 4.52568e-20 1.07162e-07 5.53541e-21 1.13456e-07)
(3.99535e-07 9.00093e-09 -3.48665e-20 4.99393e-07 -4.28882e-21 4.23989e-07)
(4.8796e-07 3.76069e-08 1.84199e-21 4.46302e-07 2.95026e-22 5.12058e-07)
(8.47797e-07 2.40745e-08 1.85262e-24 1.0415e-06 -1.64769e-24 8.80472e-07)
(7.17675e-07 -7.18728e-08 -1.33838e-22 8.95615e-07 -8.83289e-24 7.84315e-07)
(5.82564e-07 -6.53326e-08 1.92147e-22 6.8926e-07 1.7737e-23 6.37023e-07)
(5.36743e-07 -5.98689e-08 -2.12182e-22 6.2538e-07 -2.59941e-23 5.87281e-07)
(5.84775e-07 -6.27193e-08 -7.69241e-23 6.87163e-07 -2.78052e-24 6.34498e-07)
(5.9667e-07 -6.65169e-08 5.90077e-25 6.96597e-07 2.43868e-24 6.4721e-07)
(6.16663e-07 -6.93854e-08 1.69916e-25 7.18442e-07 -3.56913e-23 6.67336e-07)
(6.29458e-07 -7.15892e-08 -1.52336e-21 7.30382e-07 -1.31429e-22 6.79989e-07)
(6.43207e-07 -7.36593e-08 6.14616e-22 7.44231e-07 9.50806e-23 6.93675e-07)
(6.55517e-07 -7.55512e-08 5.91189e-23 7.5646e-07 -3.24478e-23 7.05985e-07)
(6.67095e-07 -7.72652e-08 -9.73312e-22 7.68202e-07 -9.57101e-23 7.17631e-07)
(6.77597e-07 -7.87921e-08 -0 7.78958e-07 -2.06462e-23 7.28265e-07)
(6.86968e-07 -8.0107e-08 -1.85283e-21 7.8871e-07 -1.98965e-22 7.37822e-07)
(6.95167e-07 -8.12178e-08 -7.53593e-22 7.97388e-07 -3.08568e-23 7.46264e-07)
(7.02187e-07 -8.21245e-08 1.56429e-25 8.04996e-07 -2.38463e-23 7.53584e-07)
(7.08129e-07 -8.28275e-08 -1.89569e-21 8.11694e-07 -1.45673e-22 7.59883e-07)
(7.12796e-07 -8.3332e-08 1.72629e-21 8.17155e-07 2.47427e-22 7.64963e-07)
(7.16341e-07 -8.36352e-08 1.86035e-21 8.21625e-07 1.15376e-22 7.68973e-07)
(7.18856e-07 -8.37495e-08 -1.41456e-21 8.25199e-07 -1.97872e-22 7.72005e-07)
(7.20288e-07 -8.36852e-08 -1.14943e-21 8.27749e-07 -9.70839e-23 7.74003e-07)
(7.20726e-07 -8.34395e-08 -5.78723e-22 8.29412e-07 -3.57983e-23 7.75052e-07)
(7.20259e-07 -8.30288e-08 -3.22664e-22 8.30256e-07 3.75261e-23 7.75239e-07)
(7.18917e-07 -8.24576e-08 2.8703e-21 8.30299e-07 2.83869e-22 7.74589e-07)
(7.16791e-07 -8.174e-08 1.97981e-24 8.29617e-07 -3.00042e-23 7.7319e-07)
(7.13962e-07 -8.08772e-08 1.24519e-21 8.28313e-07 1.50367e-22 7.71117e-07)
(7.10463e-07 -7.98859e-08 1.44515e-21 8.26369e-07 1.19517e-22 7.68401e-07)
(7.06371e-07 -7.87669e-08 1.83791e-22 8.23881e-07 -3.45097e-23 7.65111e-07)
(7.01787e-07 -7.75363e-08 -1.15883e-21 8.20933e-07 -1.24176e-22 7.61343e-07)
(6.96688e-07 -7.61937e-08 -6.18421e-22 8.17478e-07 -4.00046e-23 7.57069e-07)
(6.91157e-07 -7.47479e-08 1.56651e-24 8.136e-07 1.65903e-23 7.52366e-07)
(6.8524e-07 -7.32041e-08 3.37628e-22 8.09337e-07 3.0374e-23 7.47276e-07)
(6.78939e-07 -7.15658e-08 8.85845e-24 8.04665e-07 3.17238e-23 7.41791e-07)
(6.72307e-07 -6.98396e-08 2.31764e-21 7.99634e-07 2.33267e-22 7.3596e-07)
(6.65339e-07 -6.803e-08 3.89324e-24 7.94212e-07 -3.57671e-23 7.29769e-07)
(6.58069e-07 -6.6136e-08 1.70061e-23 7.8844e-07 7.30832e-23 7.23246e-07)
(6.50498e-07 -6.41665e-08 3.99297e-21 7.82286e-07 4.19283e-22 7.16385e-07)
(6.42609e-07 -6.21193e-08 1.21529e-21 7.75723e-07 2.64254e-23 7.09161e-07)
(6.34429e-07 -6.00009e-08 -2.21984e-21 7.68764e-07 -2.19844e-22 7.01592e-07)
(6.25942e-07 -5.78111e-08 1.43715e-21 7.61381e-07 1.74893e-22 6.93656e-07)
(6.17123e-07 -5.55517e-08 -4.26537e-24 7.53526e-07 -4.60373e-23 6.8532e-07)
(6.07968e-07 -5.32274e-08 -1.70925e-21 7.45181e-07 -1.97022e-22 6.76573e-07)
(5.98466e-07 -5.08346e-08 -1.51447e-21 7.36327e-07 -1.14778e-22 6.67395e-07)
(5.88615e-07 -4.83778e-08 1.36549e-21 7.26948e-07 1.91202e-22 6.57778e-07)
(5.78367e-07 -4.58574e-08 2.19284e-21 7.16974e-07 2.16331e-22 6.4767e-07)
(5.67722e-07 -4.32688e-08 1.16751e-21 7.06405e-07 2.1131e-22 6.37065e-07)
(5.56723e-07 -4.06239e-08 9.31944e-21 6.95272e-07 9.49447e-22 6.25999e-07)
(5.45321e-07 -3.79196e-08 1.06663e-24 6.83507e-07 -1.17212e-22 6.14418e-07)
(5.33591e-07 -3.51712e-08 6.65587e-24 6.71184e-07 -2.66645e-23 6.02392e-07)
(5.2156e-07 -3.23935e-08 -3.20877e-21 6.58316e-07 -2.52673e-22 5.89944e-07)
(5.09271e-07 -2.96103e-08 7.02712e-21 6.44928e-07 7.64582e-22 5.77106e-07)
(4.9679e-07 -2.68591e-08 1.18947e-22 6.31074e-07 -1.4531e-22 5.6394e-07)
(4.84158e-07 -2.41802e-08 -8.52997e-21 6.16779e-07 -9.08473e-22 5.50476e-07)
(4.71373e-07 -2.16194e-08 3.15257e-23 6.02016e-07 -1.2945e-23 5.36702e-07)
(4.58411e-07 -1.92133e-08 -9.88065e-21 5.86754e-07 -1.05292e-21 5.22591e-07)
(4.45237e-07 -1.6983e-08 4.85461e-22 5.70965e-07 1.66286e-22 5.08109e-07)
(4.31775e-07 -1.49196e-08 3.2253e-21 5.54586e-07 3.3595e-22 4.93189e-07)
(4.18014e-07 -1.29874e-08 -1.89624e-21 5.37649e-07 -2.71497e-22 4.77839e-07)
(4.03961e-07 -1.11374e-08 -5.46642e-21 5.2021e-07 -5.89931e-22 4.62094e-07)
(3.89704e-07 -9.33055e-09 -1.20988e-22 5.02407e-07 1.30718e-23 4.46063e-07)
(3.75329e-07 -7.57039e-09 3.24148e-24 4.84357e-07 -2.25937e-24 4.29849e-07)
(3.60875e-07 -5.91185e-09 1.25732e-22 4.66098e-07 2.32342e-23 4.13493e-07)
(3.4632e-07 -4.44814e-09 -1.19756e-23 4.47593e-07 -9.2406e-23 3.96962e-07)
(3.31545e-07 -3.27194e-09 -1.56908e-20 4.28697e-07 -1.73829e-21 3.80126e-07)
(3.1647e-07 -2.42823e-09 5.58726e-21 4.0933e-07 7.90027e-22 3.62904e-07)
(3.0111e-07 -1.89216e-09 1.30555e-20 3.89543e-07 1.5617e-21 3.45331e-07)
(2.85624e-07 -1.5817e-09 1.94352e-20 3.69566e-07 2.17636e-21 3.27601e-07)
(2.70382e-07 -1.40013e-09 -4.4308e-23 3.49886e-07 -1.46274e-22 3.10124e-07)
(2.54974e-07 -1.30112e-09 -1.16961e-20 3.29986e-07 -1.37671e-21 2.92509e-07)
(2.40314e-07 -1.31889e-09 -4.08112e-21 3.11032e-07 -4.58543e-22 2.75658e-07)
(2.27614e-07 -1.523e-09 -7.55499e-21 2.94589e-07 -8.09828e-22 2.61093e-07)
(2.17102e-07 -1.4937e-09 1.17894e-20 2.80992e-07 1.41214e-21 2.49072e-07)
(2.06937e-07 -1.347e-09 -3.67181e-21 2.67846e-07 -4.34169e-22 2.3738e-07)
(1.96153e-07 -1.40264e-09 1.41296e-20 2.53887e-07 1.81871e-21 2.25039e-07)
(1.85747e-07 -2.03595e-09 3.8686e-20 2.40326e-07 4.6237e-21 2.12964e-07)
(1.71601e-07 -3.72763e-09 1.76458e-20 2.21612e-07 2.00857e-21 1.96867e-07)
(1.68727e-07 -7.30361e-09 6.25984e-23 2.15906e-07 -3.48824e-23 1.91533e-07)
(1.42458e-07 -9.94359e-09 -0 1.78654e-07 1.26087e-23 1.62654e-07)
(1.8825e-07 -1.23427e-08 4.80754e-21 2.35217e-07 5.83471e-22 2.06585e-07)
(9.65154e-08 7.06574e-10 1.55397e-22 1.1082e-07 7.32956e-23 1.15495e-07)
(4.00182e-07 9.20388e-09 3.30962e-20 5.00494e-07 4.01953e-21 4.25075e-07)
(4.88678e-07 3.82415e-08 1.88551e-20 4.48872e-07 2.38598e-21 5.13907e-07)
(8.47436e-07 2.08621e-08 1.84261e-24 1.04153e-06 -1.6761e-23 8.79593e-07)
(5.54611e-07 -5.18126e-08 4.78626e-22 6.70373e-07 5.59935e-23 5.97718e-07)
(4.97212e-07 -5.56447e-08 4.98739e-22 5.78043e-07 4.09481e-23 5.38644e-07)
(4.80253e-07 -5.52697e-08 -2.59368e-23 5.5292e-07 -2.00794e-23 5.21593e-07)
(5.22946e-07 -5.87607e-08 -3.91625e-22 6.08703e-07 -3.77973e-23 5.64612e-07)
(5.29144e-07 -6.08756e-08 4.65627e-23 6.11741e-07 1.59709e-23 5.70885e-07)
(5.43109e-07 -6.26717e-08 1.5694e-22 6.26682e-07 1.68841e-23 5.84707e-07)
(5.53392e-07 -6.43506e-08 -2.02613e-24 6.36423e-07 -4.21689e-24 5.94922e-07)
(5.64184e-07 -6.59405e-08 5.74908e-25 6.47327e-07 -1.12087e-24 6.05712e-07)
(5.73961e-07 -6.73793e-08 -2.06537e-25 6.57197e-07 2.79288e-25 6.15535e-07)
(5.8305e-07 -6.86913e-08 -2.0009e-24 6.66471e-07 -1.27912e-24 6.2472e-07)
(5.91147e-07 -6.98371e-08 -0 6.7481e-07 9.7184e-25 6.32959e-07)
(5.98519e-07 -7.08277e-08 -3.18758e-24 6.8261e-07 -3.14275e-24 6.40519e-07)
(6.04923e-07 -7.16681e-08 2.02128e-25 6.89473e-07 -6.45553e-25 6.47158e-07)
(6.10397e-07 -7.23471e-08 5.40527e-25 6.95512e-07 1.10771e-23 6.52915e-07)
(6.14985e-07 -7.28738e-08 4.40729e-22 7.00759e-07 3.39974e-23 6.57834e-07)
(6.18655e-07 -7.32417e-08 -3.67112e-22 7.05191e-07 -4.63542e-23 6.6188e-07)
(6.21432e-07 -7.34673e-08 3.60608e-24 7.08779e-07 1.1379e-23 6.65079e-07)
(6.23436e-07 -7.35365e-08 -3.89449e-24 7.11766e-07 2.23526e-24 6.67549e-07)
(6.2461e-07 -7.34797e-08 -3.51806e-24 7.13933e-07 6.25897e-24 6.69231e-07)
(6.24965e-07 -7.32753e-08 5.56894e-22 7.15374e-07 6.29417e-23 6.70134e-07)
(6.24686e-07 -7.29494e-08 3.00541e-22 7.16273e-07 1.75088e-23 6.70442e-07)
(6.23743e-07 -7.24969e-08 9.48003e-24 7.16587e-07 -3.4722e-24 6.7012e-07)
(6.2221e-07 -7.19353e-08 -3.17343e-25 7.16357e-07 1.30894e-24 6.69241e-07)
(6.20079e-07 -7.12611e-08 3.56173e-24 7.15574e-07 8.66251e-25 6.67793e-07)
(6.1751e-07 -7.04829e-08 2.6165e-24 7.14437e-07 -2.84972e-23 6.65933e-07)
(6.14507e-07 -6.96147e-08 -1.77137e-21 7.12894e-07 -1.75312e-22 6.6366e-07)
(6.11078e-07 -6.86517e-08 2.23501e-22 7.10959e-07 5.25306e-23 6.6098e-07)
(6.07298e-07 -6.76042e-08 -2.43275e-24 7.087e-07 -4.91175e-24 6.57962e-07)
(6.03198e-07 -6.64743e-08 -2.35946e-23 7.06146e-07 -8.30228e-24 6.54635e-07)
(5.988e-07 -6.52662e-08 -3.26581e-22 7.03305e-07 -3.46652e-23 6.51016e-07)
(5.94128e-07 -6.39834e-08 1.13862e-24 7.00189e-07 7.06246e-25 6.47123e-07)
(5.89214e-07 -6.26293e-08 8.75291e-24 6.96826e-07 2.37148e-23 6.42985e-07)
(5.84042e-07 -6.12065e-08 1.28711e-21 6.93175e-07 1.32578e-22 6.38578e-07)
(5.78644e-07 -5.97134e-08 2.09386e-24 6.89275e-07 -1.41972e-23 6.3393e-07)
(5.73026e-07 -5.81548e-08 1.16232e-23 6.85115e-07 -1.0676e-23 6.2904e-07)
(5.67165e-07 -5.65316e-08 -1.15974e-21 6.80651e-07 -8.60231e-23 6.23881e-07)
(5.61064e-07 -5.48425e-08 2.10774e-21 6.75881e-07 2.10698e-22 6.18447e-07)
(5.54712e-07 -5.30881e-08 -1.37537e-21 6.70782e-07 -1.69075e-22 6.12723e-07)
(5.48096e-07 -5.12679e-08 -8.47937e-25 6.65328e-07 3.76592e-23 6.06689e-07)
(5.4118e-07 -4.93819e-08 1.6141e-21 6.59461e-07 1.82338e-22 6.00301e-07)
(5.33965e-07 -4.7427e-08 1.43536e-21 6.53182e-07 1.24499e-22 5.93555e-07)
(5.26431e-07 -4.54042e-08 8.85118e-24 6.46454e-07 -1.4012e-23 5.86424e-07)
(5.18517e-07 -4.33069e-08 6.51063e-24 6.39197e-07 -1.42183e-23 5.78842e-07)
(5.10267e-07 -4.11372e-08 -1.07175e-21 6.31459e-07 -1.61866e-22 5.70847e-07)
(5.01645e-07 -3.8898e-08 -4.73443e-21 6.23179e-07 -4.76915e-22 5.62398e-07)
(4.9264e-07 -3.65869e-08 9.38141e-25 6.14334e-07 4.51868e-23 5.53476e-07)
(4.83331e-07 -3.42197e-08 5.87661e-24 6.04999e-07 9.92907e-24 5.44154e-07)
(4.73715e-07 -3.18079e-08 -2.76288e-23 5.95149e-07 -1.98969e-23 5.34422e-07)
(4.63856e-07 -2.93792e-08 -1.78027e-21 5.84831e-07 -1.9336e-22 5.24335e-07)
(4.53809e-07 -2.69663e-08 -1.11859e-22 5.74081e-07 9.09905e-24 5.13937e-07)
(4.43605e-07 -2.46111e-08 -6.57257e-23 5.62903e-07 1.98333e-23 5.03248e-07)
(4.33249e-07 -2.23528e-08 3.91727e-21 5.51286e-07 4.05052e-22 4.92262e-07)
(4.2272e-07 -2.02259e-08 -1.49679e-21 5.39194e-07 -1.9552e-22 4.80953e-07)
(4.1196e-07 -1.82432e-08 -5.56023e-24 5.26569e-07 -1.56339e-23 4.6926e-07)
(4.00883e-07 -1.63869e-08 -3.04882e-21 5.13341e-07 -2.9684e-22 4.57109e-07)
(3.89472e-07 -1.46222e-08 3.89181e-21 4.99532e-07 4.88027e-22 4.44499e-07)
(3.77713e-07 -1.28999e-08 5.14872e-21 4.8517e-07 6.25406e-22 4.3144e-07)
(3.65663e-07 -1.11888e-08 1.40079e-20 4.70349e-07 1.51025e-21 4.18005e-07)
(3.5341e-07 -9.50435e-09 -3.88472e-23 4.5518e-07 -1.73633e-22 4.04294e-07)
(3.41e-07 -7.91004e-09 -1.24939e-20 4.39702e-07 -1.37837e-21 3.9035e-07)
(3.28421e-07 -6.5003e-09 3.31635e-21 4.23877e-07 4.47932e-22 3.76149e-07)
(3.1559e-07 -5.36407e-09 -1.30909e-22 4.07597e-07 -8.07085e-23 3.61593e-07)
(3.02446e-07 -4.5375e-09 -7.01522e-21 3.90802e-07 -8.84023e-22 3.46624e-07)
(2.89021e-07 -3.9842e-09 -1.80679e-20 3.73569e-07 -2.09262e-21 3.31295e-07)
(2.75438e-07 -3.6294e-09 -1.66403e-20 3.56085e-07 -1.78503e-21 3.15764e-07)
(2.62004e-07 -3.37467e-09 9.17739e-21 3.38767e-07 1.12834e-21 3.00375e-07)
(2.48297e-07 -3.19978e-09 -7.46596e-22 3.21081e-07 -1.14535e-22 2.84717e-07)
(2.35241e-07 -3.13538e-09 3.88129e-21 3.04201e-07 4.47092e-22 2.69704e-07)
(2.23904e-07 -3.22977e-09 -1.08915e-21 2.89507e-07 -1.42508e-22 2.56698e-07)
(2.14421e-07 -3.0886e-09 4.37615e-23 2.77258e-07 1.26759e-23 2.45864e-07)
(2.05192e-07 -2.85609e-09 9.08317e-24 2.6535e-07 -5.62951e-23 2.3526e-07)
(1.954e-07 -2.85426e-09 -1.60703e-20 2.52668e-07 -1.96158e-21 2.24048e-07)
(1.85921e-07 -3.47595e-09 -1.52378e-20 2.40225e-07 -1.76587e-21 2.13015e-07)
(1.73612e-07 -5.22629e-09 8.34927e-23 2.23616e-07 5.5803e-23 1.98836e-07)
(1.71948e-07 -8.78643e-09 7.08985e-24 2.18996e-07 2.27367e-24 1.94779e-07)
(1.49301e-07 -1.12123e-08 -0 1.86208e-07 -6.66067e-24 1.69667e-07)
(1.89995e-07 -1.30146e-08 -4.72761e-21 2.36928e-07 -5.83843e-22 2.08645e-07)
(9.80706e-08 1.11819e-09 5.93096e-23 1.14887e-07 -2.19789e-23 1.17845e-07)
(4.00047e-07 9.38112e-09 -1.98919e-20 5.00783e-07 -2.41941e-21 4.25542e-07)
(4.89511e-07 3.89316e-08 -1.79008e-20 4.51134e-07 -2.27264e-21 5.15468e-07)
(8.47515e-07 1.73486e-08 2.41783e-22 1.04231e-06 6.11665e-23 8.79486e-07)
(4.77748e-07 -4.61867e-08 -4.3498e-22 5.6961e-07 -4.4171e-23 5.11846e-07)
(4.47899e-07 -5.20052e-08 9.61944e-25 5.14946e-07 1.16823e-23 4.82514e-07)
(4.34931e-07 -5.16357e-08 -1.14384e-25 4.95901e-07 9.18429e-24 4.69608e-07)
(4.6576e-07 -5.38745e-08 3.74024e-22 5.36928e-07 3.55482e-23 5.00428e-07)
(4.69305e-07 -5.51302e-08 -4.39294e-23 5.37584e-07 -1.44843e-23 5.03869e-07)
(4.80146e-07 -5.64905e-08 -1.48969e-22 5.49332e-07 -1.19579e-23 5.14655e-07)
(4.88165e-07 -5.77591e-08 -4.79848e-25 5.57042e-07 2.09676e-24 5.2268e-07)
(4.96423e-07 -5.89372e-08 -3.26752e-26 5.65476e-07 1.6814e-24 5.30978e-07)
(5.0385e-07 -6.00034e-08 1.49992e-22 5.73027e-07 3.15654e-23 5.38482e-07)
(5.1074e-07 -6.096e-08 9.06085e-22 5.80161e-07 8.75933e-23 5.45486e-07)
(5.16899e-07 -6.18015e-08 -0 5.86594e-07 -5.98314e-24 5.51797e-07)
(5.22458e-07 -6.25253e-08 4.88203e-22 5.92559e-07 3.45375e-23 5.57546e-07)
(5.27295e-07 -6.31338e-08 -7.04532e-22 5.97851e-07 -8.92702e-23 5.62613e-07)
(5.31424e-07 -6.36236e-08 -5.65895e-22 6.02507e-07 -2.8872e-23 5.67009e-07)
(5.34875e-07 -6.39951e-08 8.78882e-22 6.06578e-07 1.02631e-22 5.70768e-07)
(5.37665e-07 -6.42525e-08 3.52666e-22 6.1007e-07 1.97692e-23 5.73903e-07)
(5.39752e-07 -6.43991e-08 7.49796e-25 6.12897e-07 1.88065e-23 5.76374e-07)
(5.41267e-07 -6.44318e-08 1.28857e-21 6.15283e-07 1.49283e-22 5.7831e-07)
(5.42154e-07 -6.43628e-08 1.04051e-21 6.17078e-07 7.26168e-23 5.79654e-07)
(5.42444e-07 -6.41886e-08 -5.29532e-22 6.18339e-07 -7.19621e-23 5.80435e-07)
(5.42259e-07 -6.39193e-08 -2.88255e-22 6.19213e-07 -6.35473e-23 5.80774e-07)
(5.41586e-07 -6.35578e-08 -2.61452e-21 6.19659e-07 -2.59309e-22 5.80656e-07)
(5.40448e-07 -6.31091e-08 -1.57192e-24 6.19683e-07 2.91608e-23 5.80102e-07)
(5.38895e-07 -6.25765e-08 -6.98602e-22 6.19345e-07 -7.05244e-23 5.79161e-07)
(5.37055e-07 -6.19676e-08 -2.42345e-25 6.18803e-07 1.27075e-23 5.77957e-07)
(5.34827e-07 -6.12878e-08 -5.72715e-24 6.1787e-07 -4.65526e-24 5.76385e-07)
(5.32315e-07 -6.05315e-08 4.15554e-24 6.1672e-07 9.5711e-25 5.74551e-07)
(5.29583e-07 -5.97157e-08 -1.85035e-24 6.15379e-07 -2.93642e-25 5.72512e-07)