/*--------------------------------*- C++ -*----------------------------------*\
| =========                 |                                                 |
| \\      /  F ield         | OpenFOAM: The Open Source CFD Toolbox           |
|  \\    /   O peration     | Version:  2506                                  |
|   \\  /    A nd           | Website:  www.openfoam.com                      |
|    \\/     M anipulation  |                                                 |
\*---------------------------------------------------------------------------*/
FoamFile
{
    version     2.0;
    format      ascii;
    arch        "LSB;label=32;scalar=64";
    class       surfaceScalarField;
    location    "5";
    object      phi;
}
// * * * * * * * * * * * * * * * * * * * * * * * * * * * * * * * * * * * * * //

dimensions      [0 3 -1 0 0 0 0];

oriented        oriented;

internalField   nonuniform List<scalar> 
760
(
-3.23769e-06
3.23766e-06
-1.06672e-05
7.42956e-06
-1.977e-05
9.10275e-06
-2.9408e-05
9.63806e-06
-3.92585e-05
9.85048e-06
-4.92376e-05
9.97904e-06
-5.92496e-05
1.0012e-05
-6.90886e-05
9.83903e-06
-7.83844e-05
9.29579e-06
-8.65593e-05
8.17489e-06
-9.2801e-05
6.24171e-06
-9.60771e-05
3.2761e-06
-9.51961e-05
-8.81039e-07
-8.90884e-05
-6.10767e-06
-7.71912e-05
-1.18972e-05
-6.00072e-05
-1.7184e-05
-3.95511e-05
-2.04561e-05
-1.94532e-05
-2.00978e-05
-4.61206e-06
-1.48412e-05
-4.61205e-06
-8.1593e-06
1.1397e-05
-2.32409e-05
2.25112e-05
-4.1075e-05
2.69369e-05
-5.98711e-05
2.84342e-05
-7.892e-05
2.88993e-05
-9.7885e-05
2.8944e-05
-0.00011644
2.8567e-05
-0.000134103
2.75022e-05
-0.00015015
2.53428e-05
-0.000163557
2.15817e-05
-0.000172983
1.56674e-05
-0.000176824
7.11796e-06
-0.000173384
-4.32133e-06
-0.000161028
-1.84635e-05
-0.000139123
-3.38024e-05
-0.000108622
-4.76852e-05
-7.28654e-05
-5.62126e-05
-3.77696e-05
-5.51937e-05
-1.08946e-05
-4.17162e-05
-1.55067e-05
-1.06921e-05
2.2089e-05
-2.96936e-05
4.15127e-05
-5.18161e-05
4.90594e-05
-7.49609e-05
5.15789e-05
-9.82862e-05
5.22247e-05
-0.000121369
5.20268e-05
-0.000143808
5.1006e-05
-0.000165046
4.87398e-05
-0.00018427
4.4567e-05
-0.000200343
3.76548e-05
-0.000211755
2.70789e-05
-0.00021665
1.20132e-05
-0.00021289
-8.08146e-06
-0.000198312
-3.30416e-05
-0.000171676
-6.04385e-05
-0.000133739
-8.56216e-05
-8.86683e-05
-0.000101284
-4.46586e-05
-9.92033e-05
-1.21176e-05
-7.42572e-05
-2.76243e-05
-1.17396e-05
3.38286e-05
-3.25997e-05
6.23729e-05
-5.67851e-05
7.32448e-05
-8.2029e-05
7.68228e-05
-0.000107487
7.76828e-05
-0.000132783
7.73229e-05
-0.000157584
7.5807e-05
-0.000181415
7.25706e-05
-0.000203546
6.66978e-05
-0.000222881
5.69907e-05
-0.000237842
4.20394e-05
-0.000246282
2.04533e-05
-0.000245547
-8.81673e-06
-0.000232122
-4.64662e-05
-0.000203284
-8.92761e-05
-0.000158604
-0.000130302
-0.000102848
-0.00015704
-4.81281e-05
-0.000153923
-1.05485e-05
-0.000111837
-3.81728e-05
-1.20563e-05
4.5885e-05
-3.36914e-05
8.40079e-05
-5.8842e-05
9.83955e-05
-8.51731e-05
0.000103154
-0.000111907
0.000104417
-0.000138801
0.000104217
-0.000165697
0.000102703
-0.000192332
9.92054e-05
-0.000218203
9.25685e-05
-0.000242407
8.11949e-05
-0.000263416
6.30484e-05
-0.000278746
3.57833e-05
-0.000285352
-2.21015e-06
-0.000277328
-5.44907e-05
-0.000249219
-0.000117385
-0.000197347
-0.000182175
-0.000125916
-0.00022847
-5.32985e-05
-0.000226541
-7.22211e-06
-0.000157913
-4.53949e-05
-1.20128e-05
5.78977e-05
-3.38753e-05
0.00010587
-5.94503e-05
0.00012397
-8.63953e-05
0.000130099
-0.000114041
0.000132063
-0.000142338
0.000132513
-0.000171393
0.000131758
-0.000201282
0.000129095
-0.000231911
0.000123197
-0.000262812
0.000112097
-0.00029284
9.30758e-05
-0.000319675
6.26186e-05
-0.000338985
1.71002e-05
-0.000344164
-4.93125e-05
-0.000323529
-0.000138019
-0.000266288
-0.000239416
-0.00017259
-0.000322168
-6.9003e-05
-0.000330128
-4.1388e-06
-0.000222777
-4.95337e-05
-1.17571e-05
6.96549e-05
-3.35315e-05
0.000127645
-5.92023e-05
0.000149641
-8.6442e-05
0.000157339
-0.000114708
0.000160329
-0.000144184
0.000161989
-0.000175321
0.000162895
-0.000208671
0.000162445
-0.00024477
0.000159296
-0.00028396
0.000151286
-0.00032608
0.000135196
-0.000369858
0.000106396
-0.000411054
5.82962e-05
-0.000442382
-1.79847e-05
-0.000442749
-0.000137651
-0.000388049
-0.000294116
-0.000268252
-0.000441965
-0.000117039
-0.000481341
-9.1069e-06
-0.00033071
-5.86406e-05
-1.13373e-05
8.09922e-05
-3.27803e-05
0.000149088
-5.82534e-05
0.000175114
-8.54302e-05
0.000184515
-0.000113889
0.000188788
-0.000144061
0.00019216
-0.000176794
0.000195628
-0.000213235
0.000198887
-0.00025481
0.00020087
-0.000303169
0.000199646
-0.00036009
0.000192117
-0.000426975
0.00017328
-0.000502037
0.000133358
-0.000574059
5.40373e-05
-0.000614204
-9.7506e-05
-0.000576514
-0.000331806
-0.000439236
-0.000579244
-0.000234366
-0.00068621
-4.46981e-05
-0.000520378
-0.000103339
-1.0778e-05
9.17702e-05
-3.16692e-05
0.000169979
-5.66221e-05
0.000200067
-8.32656e-05
0.000211159
-0.000111263
0.000216785
-0.000141272
0.000222169
-0.000174534
0.00022889
-0.000212846
0.0002372
-0.000258711
0.000246735
-0.000315553
0.000256487
-0.000387909
0.000264474
-0.000481074
0.000266445
-0.000596765
0.000249049
-0.000717739
0.000175011
-0.000804314
-1.09309e-05
-0.000796363
-0.000339758
-0.000671952
-0.000703654
-0.000439384
-0.000918778
-0.000142233
-0.00081753
-0.000245571
-1.01335e-05
0.000101904
-3.02991e-05
0.000190145
-5.43904e-05
0.000224159
-7.99166e-05
0.000236685
-0.000106562
0.000243431
-0.000135138
0.000250745
-0.00016719
0.000260942
-0.000205064
0.000275074
-0.000252266
0.000293938
-0.000314031
0.000318252
-0.000397665
0.000348107
-0.000510985
0.000379765
-0.000654884
0.000392948
-0.00080803
0.000328158
-0.000914548
9.55872e-05
-0.00094
-0.000314305
-0.000866225
-0.000777429
-0.0006611
-0.0011239
-0.000296183
-0.00118245
-0.000541754
-9.52837e-06
0.000111432
-2.8918e-05
0.000209534
-5.18465e-05
0.000247087
-7.56088e-05
0.000260447
-9.98319e-05
0.000267654
-0.00012536
0.000276274
-0.000153838
0.000289419
-0.000187811
0.000309047
-0.000231189
0.000337316
-0.000289928
0.000376991
-0.000372003
0.000430183
-0.000483757
0.000491519
-0.00062019
0.00052938
-0.000755535
0.000463503
-0.000853433
0.000193485
-0.000893078
-0.000274661
-0.000877999
-0.000792508
-0.000753928
-0.00124797
-0.000437667
-0.00149871
-0.000979421
-9.19958e-06
0.000120632
-2.80055e-05
0.00022834
-4.9597e-05
0.000268679
-7.09692e-05
0.00028182
-9.16396e-05
0.000288324
-0.000112356
0.00029699
-0.000134569
0.000311632
-0.000160466
0.000334943
-0.00019328
0.000370131
-0.000237618
0.000421329
-0.000298798
0.000491363
-0.000378673
0.000571395
-0.000467954
0.000618661
-0.000547442
0.000542991
-0.000611092
0.000257135
-0.000659496
-0.000226257
-0.000693304
-0.0007587
-0.000663294
-0.00127798
-0.000450655
-0.00171135
-0.00143008
-9.53849e-06
0.00013017
-2.83512e-05
0.000247153
-4.86706e-05
0.000288998
-6.71384e-05
0.000300287
-8.32166e-05
0.000304403
-9.75073e-05
0.000311281
-0.000111015
0.000325139
-0.000125024
0.000348952
-0.000141109
0.000386216
-0.000160916
0.000441136
-0.000185248
0.000515694
-0.000212993
0.00059914
-0.000239579
0.000645246
-0.00026156
0.000564972
-0.000292831
0.000288406
-0.000347428
-0.000171659
-0.000421117
-0.00068501
-0.00047305
-0.00122605
-0.000357901
-0.0018265
-0.00178798
-1.12371e-05
0.000141407
-3.1211e-05
0.000267127
-5.05203e-05
0.000308307
-6.56652e-05
0.000315432
-7.63441e-05
0.000315082
-8.30943e-05
0.000318031
-8.63886e-05
0.000328434
-8.6411e-05
0.000348975
-8.28554e-05
0.00038266
-7.45232e-05
0.000432804
-5.77805e-05
0.000498952
-3.20941e-05
0.000573454
-3.15696e-06
0.000616309
1.11832e-05
0.000550632
5.49154e-06
0.000294098
-4.71063e-05
-0.000119062
-0.000150428
-0.000581689
-0.000270139
-0.00110634
-0.000248116
-0.00184852
-0.00203609
-1.52962e-05
0.000156703
-3.84934e-05
0.000290324
-5.75785e-05
0.000327392
-6.8973e-05
0.000326827
-7.34816e-05
0.00031959
-7.2069e-05
0.000316618
-6.4811e-05
0.000321176
-5.09007e-05
0.000335064
-2.85005e-05
0.00036026
6.82257e-06
0.000397481
5.60726e-05
0.000449702
0.000123463
0.000506064
0.000202677
0.000537095
0.000270075
0.000483234
0.000282014
0.000282158
0.000215737
-5.27847e-05
8.90038e-05
-0.000454956
-7.80394e-05
-0.000939298
-0.000146741
-0.00177982
-0.00218283
-2.34117e-05
0.000180115
-5.24048e-05
0.000319317
-7.08977e-05
0.000345885
-7.79398e-05
0.000333869
-7.60494e-05
0.0003177
-6.67007e-05
0.00030727
-4.98036e-05
0.000304279
-2.39353e-05
0.000309196
1.35828e-05
0.000322742
6.48528e-05
0.00034621
0.000135768
0.000378787
0.000228253
0.000413578
0.000333937
0.000431412
0.00042425
0.000392921
0.000452367
0.00025404
0.000392826
6.75647e-06
0.000244939
-0.000307068
5.3554e-05
-0.000747913
-5.12853e-05
-0.00167498
-0.00223412
-4.13802e-05
0.000221495
-8.60105e-05
0.000363947
-0.000101498
0.000361373
-9.80131e-05
0.000330384
-8.63707e-05
0.000306057
-6.87632e-05
0.000289662
-4.38842e-05
0.0002794
-9.23804e-06
0.00027455
3.78599e-05
0.000275644
0.000100986
0.000283084
0.000183067
0.000296706
0.000284997
0.000311649
0.000397044
0.000319364
0.000494734
0.000295232
0.000531972
0.000216802
0.000485073
5.36559e-05
0.000342465
-0.00016446
0.000175015
-0.000580463
3.81223e-05
-0.00153808
-0.002196
-4.15326e-05
0.000263028
-9.47516e-05
0.000417166
-0.000120817
0.000387438
-0.000124939
0.000334506
-0.000112847
0.000293965
-8.90421e-05
0.000265858
-5.45455e-05
0.000244903
-8.3452e-06
0.00022835
4.99349e-05
0.000217364
0.000122715
0.000210304
0.000210207
0.000209214
0.000313295
0.00020856
0.000422644
0.000210015
0.000521379
0.000196497
0.000573776
0.000164406
0.000553629
7.3803e-05
0.000475705
-8.65359e-05
0.000354751
-0.00045951
0.000165131
-0.00134846
-0.00203087
-0.000392735
0.000655763
-0.00037694
0.000401371
-0.00026037
0.000270868
-0.000147317
0.000221453
-4.37937e-05
0.000190441
5.68023e-05
0.000165262
0.000155954
0.000145752
0.000255135
0.000129168
0.000354164
0.000118335
0.000455904
0.000108564
0.000560358
0.000104759
0.000669029
9.98901e-05
0.000777848
0.000101195
0.0008795
9.48448e-05
0.000963244
8.06613e-05
0.00100206
3.49847e-05
0.000986042
-7.05153e-05
0.000905219
-0.000378686
0.000523501
-0.000966746
-0.00150737
0.000655763
0.00105713
0.001328
0.00154946
0.0017399
0.00190516
0.00205091
0.00218008
0.00229841
0.00240698
0.00251174
0.00261163
0.00271282
0.00280767
0.00288833
0.00292331
0.0028528
0.00247411
0.00150737
)
;

boundaryField
{
    movingWall
    {
        type            calculated;
        value           uniform 0;
    }
    fixedWalls
    {
        type            calculated;
        value           uniform 0;
    }
    frontAndBack
    {
        type            empty;
    }
}


// ************************************************************************* //
