/*--------------------------------*- C++ -*----------------------------------*\
| =========                 |                                                 |
| \\      /  F ield         | OpenFOAM: The Open Source CFD Toolbox           |
|  \\    /   O peration     | Version:  2506                                  |
|   \\  /    A nd           | Website:  www.openfoam.com                      |
|    \\/     M anipulation  |                                                 |
\*---------------------------------------------------------------------------*/
FoamFile
{
    version     2.0;
    format      ascii;
    arch        "LSB;label=32;scalar=64";
    class       surfaceScalarField;
    location    "129.99968020949075";
    object      ddtCorrDdt0(phi);
}
// * * * * * * * * * * * * * * * * * * * * * * * * * * * * * * * * * * * * * //

dimensions      [0 3 -2 0 0 0 0];

oriented        oriented;

internalField   nonuniform List<scalar> 
19160
(
2.04076e-05
0.000121257
3.84554e-05
9.75449e-05
-1.19304e-05
0.000133188
5.02933e-05
5.78665e-05
-3.02326e-05
0.000115847
-2.28875e-05
0.000156075
5.36573e-05
-1.29396e-05
-6.00742e-05
8.77081e-05
-5.32854e-05
0.000146245
-3.13155e-05
0.000187391
4.27057e-05
-0.000115068
-0.000109431
3.64168e-05
-9.67186e-05
0.000131141
-7.09514e-05
0.00018588
-3.19868e-05
0.000219377
1.18797e-05
-0.00026205
-0.000188012
-3.64864e-05
-0.000163147
0.000102845
-0.00012477
0.00018496
-7.21257e-05
0.000226019
-2.61272e-05
0.000245504
-4.7704e-05
-0.000467394
-0.000308739
-0.000141322
-0.00026325
6.36161e-05
-0.000203889
0.000181964
-0.000126041
0.000238875
-5.94288e-05
0.000259321
-1.41915e-05
0.000259695
-0.000146488
-0.000751482
-0.000489361
-0.000286773
-0.000412519
7.94646e-06
-0.000319932
0.00017966
-0.000204759
0.000260682
-0.000104818
0.000284264
-3.38328e-05
0.000278962
2.3852e-06
0.00025731
-0.000299936
-0.00114588
-0.000752949
-0.000487894
-0.000631347
-6.79445e-05
-0.000490031
0.000178045
-0.000319589
0.00029449
-0.000172105
0.000327968
-6.26635e-05
0.000313094
1.58941e-06
0.000279757
2.18983e-05
0.000235411
-0.00052602
-0.00168759
-0.00113266
-0.000766165
-0.000947833
-0.000171408
-0.000736641
0.000178665
-0.000487373
0.000345828
-0.000271228
0.000393613
-0.000108277
0.000373581
-4.61502e-06
0.000319298
4.31978e-05
0.000258457
4.22838e-05
0.000193127
-0.000841651
-0.00243967
-0.0016689
-0.00115135
-0.00140146
-0.000312538
-0.00109127
0.000183221
-0.000730224
0.000421516
-0.000416995
0.000491595
-0.000178238
0.000463574
-2.08665e-05
0.000389832
6.33893e-05
0.000299107
8.66022e-05
0.000214138
6.14773e-05
0.000131649
-0.00128473
-0.00345443
-0.00241534
-0.00169323
-0.00204206
-0.000510752
-0.00159745
0.000193644
-0.00107925
0.00053225
-0.00062887
0.00063339
-0.000283754
0.00059711
-5.16434e-05
0.000494351
8.12125e-05
0.000372009
0.000134214
0.000251494
0.000127422
0.000148193
7.74947e-05
5.41544e-05
-0.00192152
-0.00475422
-0.00346782
-0.00240194
-0.00294576
-0.000789538
-0.00231693
0.000208731
-0.00157803
0.000692421
-0.00093417
0.00083755
-0.000439577
0.000789213
-0.000103445
0.000648912
9.56664e-05
0.000479896
0.000187315
0.000318907
0.000200749
0.000178167
0.000161472
6.42157e-05
8.86917e-05
-3.45384e-05
-0.00263117
-0.0066646
-0.00496785
-0.0032542
-0.00422779
-0.00111991
-0.00333914
0.000232672
-0.0022891
0.0009198
-0.00137117
0.00112942
-0.000666063
0.00106404
-0.000184899
0.000870667
0.000105522
0.000639056
0.000248412
0.000418799
0.000286852
0.000232803
0.000256244
8.33948e-05
0.000185299
-3.23924e-05
9.36581e-05
-0.000128197
-0.00305745
-0.0102246
-0.00691547
-0.00471697
-0.00603669
-0.0014453
-0.00479025
0.000331202
-0.00330322
0.0012468
-0.00199555
0.00154418
-0.000991705
0.00145506
-0.000307312
0.00118645
0.000108961
0.000867228
0.000321522
0.000565946
0.000391442
0.000314209
0.00036987
0.000119176
0.000295164
-2.64708e-05
0.000195959
-0.000134694
9.17795e-05
-0.000219977
-0.00269593
-0.0163182
-0.00903087
-0.00810923
-0.00846364
-0.00229002
-0.00683026
0.000594713
-0.00473698
0.00176495
-0.00288657
0.00213781
-0.00145767
0.00201015
-0.000486563
0.00163431
0.00010463
0.00119078
0.000411539
0.000777211
0.00052322
0.000434167
0.000510695
0.000173384
0.000428273
-1.39335e-05
0.00031282
-0.000143332
0.000192185
-0.0002351
8.28744e-05
-0.000302852
-0.0018325
-0.0244716
-0.0110357
-0.0143133
-0.0115243
-0.00504854
-0.0096873
0.000567014
-0.00673697
0.0025947
-0.00413128
0.00300966
-0.00212128
0.00280142
-0.000744351
0.00226794
9.03479e-05
0.00164859
0.000526731
0.00107559
0.000693028
0.000607402
0.000691139
0.000253722
0.000594857
6.79933e-06
0.000455268
-0.000156383
0.000307218
-0.000258366
0.000173621
-0.000325848
6.72199e-05
-0.000370073
-0.00060589
-0.0302774
-0.0137942
-0.0217131
-0.015445
-0.0103927
-0.0137961
-0.000939741
-0.00966159
0.00349164
-0.00583339
0.00429682
-0.00303182
0.00392019
-0.00111056
0.00316764
6.56829e-05
0.0022926
0.000677882
0.00149744
0.000917352
0.000851262
0.000926754
0.000371786
0.000809844
3.87343e-05
0.000634558
-0.000172491
0.00044803
-0.000297195
0.000277829
-0.000362574
0.000140876
-0.000399505
4.59125e-05
-0.000415986
0.00114937
-0.0330893
-0.0167384
-0.0273332
-0.020683
-0.0164751
-0.0196603
-0.00452848
-0.0142922
0.00369087
-0.00838769
0.00604593
-0.00423035
0.00549535
-0.00159941
0.00440904
2.9613e-05
0.00320371
0.000884367
0.00208612
0.00121776
0.00119703
0.00124013
0.000537884
0.00109204
8.95883e-05
0.000866795
-0.000193504
0.000625999
-0.00035046
0.00040586
-0.000425227
0.000225644
-0.000447343
9.62695e-05
-0.000449863
2.03741e-05
-0.000436362
0.0036968
-0.0344084
-0.0191367
-0.0306911
-0.0265242
-0.021492
-0.0270071
-0.00912828
-0.0214343
0.00261357
-0.0127574
0.00806053
-0.00602339
0.00783898
-0.00219022
0.00608616
-2.45215e-06
0.00444111
0.00117181
0.00291627
0.00162924
0.00167464
0.00166072
0.000776446
0.00146774
0.000162187
0.00117249
-0.000216105
0.000857131
-0.000424637
0.000568333
-0.000512933
0.000330248
-0.000529833
0.00015438
-0.000505454
4.279e-05
-0.00047228
-7.54646e-06
-0.000428816
0.00786124
-0.0328061
-0.0206906
-0.0328545
-0.0316528
-0.0255624
-0.0351385
-0.0133606
-0.0306703
0.000107717
-0.019836
0.00969226
-0.00931602
0.0113532
-0.00301065
0.0086594
3.50432e-05
0.00604867
0.00158124
0.00403168
0.00219818
0.00234733
0.00223346
0.0011019
0.0019713
0.000272884
0.00157923
-0.00024456
0.00116215
-0.000521124
0.000779971
-0.000636276
0.000463679
-0.000646365
0.000226609
-0.000602063
6.88101e-05
-0.000531475
-1.57084e-05
-0.000464119
-3.56543e-05
-0.000393164
0.0134708
-0.0291488
-0.0207428
-0.0327538
-0.0356124
-0.0288948
-0.0427408
-0.0179601
-0.0398186
-0.00421226
-0.0294433
0.00971496
-0.0150129
0.0153891
-0.00473644
0.013079
0.000226683
0.00846776
0.00219737
0.00543254
0.0029877
0.00324215
0.00301759
0.00156319
0.00265208
0.00042112
0.00212368
-0.00027156
0.0015679
-0.000650316
0.00106029
-0.000801442
0.00063831
-0.000810908
0.000319558
-0.000739315
0.000101867
-0.000635121
-2.4902e-05
-0.000522283
-7.46773e-05
-0.000425097
-6.17045e-05
-0.00033146
0.0198424
-0.0241234
-0.0191879
-0.0307038
-0.0384051
-0.0299611
-0.0495246
-0.0221111
-0.0486664
-0.00911226
-0.0401142
0.00645865
-0.0231772
0.0178793
-0.00844449
0.0190972
0.000291273
0.0130144
0.00326795
0.00739718
0.00407841
0.00434183
0.00409301
0.00216673
0.00357472
0.000640552
0.00285495
-0.000310149
0.00211114
-0.0008148
0.00143371
-0.00102374
0.000871047
-0.00103418
0.000442339
-0.00093369
0.000145537
-0.000782985
-3.50355e-05
-0.000624989
-0.000119463
-0.000477498
-0.000129461
-0.000357342
-8.35882e-05
-0.000247873
0.0257523
-0.0183005
-0.016213
-0.0270982
-0.0399568
-0.0291521
-0.0555118
-0.0239739
-0.0580628
-0.0127147
-0.0498251
0.000598671
-0.0340612
0.0173426
-0.0148407
0.0242755
-0.000870296
0.0202587
0.00499908
0.0112832
0.0057661
0.0057095
0.00552913
0.00290571
0.00482736
0.000914098
0.00383801
-0.000342517
0.00283758
-0.00103658
0.00193516
-0.00131624
0.00118252
-0.00133522
0.000607952
-0.00119979
0.000204897
-0.000993052
-4.60044e-05
-0.000772018
-0.00017347
-0.000570984
-0.000207386
-0.000399575
-0.000175625
-0.000265307
-9.93255e-05
-0.000148549
0.030293
-0.0118251
-0.0116775
-0.022836
-0.0401729
-0.0268822
-0.060303
-0.0243609
-0.0669237
-0.0151129
-0.0610392
-0.00150066
-0.0465173
0.0130548
-0.0239322
0.0264341
-0.00463052
0.0280358
0.0067584
0.0184994
0.00863246
0.00841687
0.00756398
0.00367465
0.00647694
0.00125612
0.00515859
-0.00040648
0.00381034
-0.00131527
0.00260504
-0.00170647
0.00160377
-0.0017375
0.000832095
-0.00155936
0.000287858
-0.00128275
-5.73731e-05
-0.000981684
-0.000240243
-0.000705245
-0.000302453
-0.000475917
-0.00028151
-0.000293692
-0.000208908
-0.000155726
-0.000107679
-4.08717e-05
0.033304
-0.00510782
-0.00631847
-0.0171842
-0.0393268
-0.0236822
-0.0633782
-0.0238069
-0.0746564
-0.0166283
-0.0717025
-0.00444958
-0.0580168
0.00999881
-0.0361257
0.0252483
-0.011248
0.0330515
0.00692555
0.0278686
0.0128379
0.014294
0.010878
0.00510283
0.00866659
0.00148501
0.00689234
-0.000477626
0.00510427
-0.00170042
0.00350363
-0.00221386
0.00216896
-0.00227166
0.0011398
-0.0020452
0.00040408
-0.00167558
-6.73043e-05
-0.00127282
-0.000324354
-0.000897574
-0.000421744
-0.000585955
-0.000411395
-0.000346033
-0.000334932
-0.000167668
-0.000226553
-3.68536e-05
-0.000107895
6.7022e-05
0.0365009
-0.00369194
-0.00365478
-0.00777151
-0.0379701
-0.0185409
-0.0655765
-0.0214839
-0.0808561
-0.0176072
-0.0814155
-0.00691531
-0.0689112
0.00644484
-0.0471461
0.0210193
-0.0197761
0.0337764
0.00428232
0.0356947
0.017056
0.0236505
0.0163534
0.0088186
0.0119172
0.00185222
0.00911229
-0.000734948
0.00680767
-0.00218102
0.00469222
-0.00288901
0.00293366
-0.00297856
0.00155831
-0.00269017
0.000570363
-0.00221149
-7.32993e-05
-0.00166959
-0.000430664
-0.00116651
-0.000574862
-0.000744457
-0.000575462
-0.000421889
-0.000489999
-0.000190968
-0.000363156
-3.10667e-05
-0.000226865
8.21147e-05
-9.96995e-05
0.000166719
0.038874
-0.00233218
-0.00263071
-0.00471601
-0.0359221
-0.00981952
-0.0670483
-0.0170691
-0.0865118
-0.0158281
-0.090602
-0.00842071
-0.0795769
0.00375036
-0.0578471
0.0171459
-0.0297007
0.0309439
-0.00119657
0.0392553
0.0191894
0.0335614
0.0235913
0.0164126
0.0174053
0.00333055
0.0120952
-0.0011307
0.00896444
-0.00289172
0.00626757
-0.00375638
0.00394824
-0.00390359
0.00213512
-0.00355538
0.000805851
-0.00292566
-6.88939e-05
-0.00221589
-0.000564806
-0.00153545
-0.000773511
-0.000967867
-0.000787945
-0.000531976
-0.000686629
-0.000225261
-0.00053145
-2.26755e-05
-0.00036339
0.000105457
-0.000209262
0.000191676
-8.38657e-05
0.000250584
0.0398195
-0.00105966
-0.00242186
-0.00254103
-0.0334707
-0.00716732
-0.0667915
-0.0100763
-0.0905276
-0.0130533
-0.0988173
-0.00761285
-0.0901842
0.00218662
-0.0684339
0.0143371
-0.0396429
0.0270881
-0.0086903
0.0384376
0.0180718
0.0403728
0.0305691
0.0265836
0.0258615
0.00795631
0.0167976
-0.0013719
0.0116961
-0.00386241
0.00827031
-0.00489446
0.00530882
-0.00511695
0.00291469
-0.00468316
0.00114573
-0.00389525
-4.53103e-05
-0.00294924
-0.000732318
-0.00204838
-0.00103202
-0.00127694
-0.00106691
-0.000688909
-0.000942733
-0.000275872
-0.000745284
-1.14289e-05
-0.000531474
0.000145407
-0.000334667
0.000230859
-0.000175455
0.000283263
-6.16309e-05
0.000312212
0.0392861
0.000133274
-0.00263186
-0.000849668
-0.0311977
-0.00481411
-0.0662453
-0.00771349
-0.0907925
-0.00981138
-0.104163
-0.00770727
-0.0986686
0.000871584
-0.0783826
0.0121353
-0.048887
0.0235812
-0.016598
0.0349958
0.0141754
0.042334
0.0350945
0.0358474
0.0363169
0.0161282
0.0246031
0.000150845
0.015486
-0.00516179
0.0107945
-0.00638655
0.00706884
-0.00665448
0.00398311
-0.00618538
0.00162927
-0.0051667
1.58152e-05
-0.00395638
-0.000937826
-0.00274373
-0.00136896
-0.00171144
-0.00143525
-0.000908597
-0.00128148
-0.000350161
-0.00102478
3.61921e-06
-0.000745074
0.000202169
-0.000488566
0.000299305
-0.000279744
0.000335147
-0.000128154
0.000349784
-3.48836e-05
0.000347094
0.0369522
0.000965418
-0.00318207
0.000683486
-0.0292614
-0.00278595
-0.0657711
-0.00528838
-0.0906216
-0.00788441
-0.10543
-0.00854503
-0.104825
-0.00155054
-0.0867267
0.00921571
-0.0571721
0.0204205
-0.0237877
0.0307709
0.00893201
0.0402392
0.0362421
0.0411864
0.0463728
0.0257916
0.0359474
0.00478393
0.0216321
-0.00599525
0.0139502
-0.00831753
0.00934564
-0.00866335
0.00541743
-0.0080888
0.00232605
-0.00688216
0.000143717
-0.0052946
-0.00118334
-0.00371087
-0.00180494
-0.00230776
-0.00192454
-0.00122215
-0.0017332
-0.000456877
-0.00139625
2.13078e-05
-0.00102464
0.000283181
-0.000683698
0.0003973
-0.000406813
0.000426373
-0.000203047
0.000410038
-7.14197e-05
0.000386318
-5.85816e-06
0.00035295
0.0328648
0.00136373
-0.00424137
0.00202472
-0.02756
-0.00101793
-0.0656154
-0.00294166
-0.0906267
-0.00528328
-0.106413
-0.0069008
-0.108373
-0.00499717
-0.0949701
0.00669281
-0.0652046
0.0172482
-0.0299476
0.0265804
0.0037523
0.0359506
0.034662
0.0418193
0.0537223
0.0338369
0.0494592
0.0122798
0.0314267
-0.00501067
0.0185186
-0.0105637
0.0121362
-0.0111081
0.00734469
-0.0105906
0.00333412
-0.00909687
0.000386452
-0.00712489
-0.00146007
-0.00501787
-0.00236583
-0.00314998
-0.00257256
-0.00165974
-0.00234076
-0.000614589
-0.00189509
4.19686e-05
-0.0013971
0.000393772
-0.000938736
0.000538217
-0.000566935
0.00055742
-0.000292877
0.0005162
-0.000111213
0.000449829
-1.00118e-05
0.000390469
2.29338e-05
0.000330014
0.0279958
0.00275613
-0.00585673
0.00297908
-0.0262947
0.000759476
-0.0658938
-0.00073944
-0.0909393
-0.00262907
-0.107205
-0.00449157
-0.111239
-0.00403454
-0.100313
0.000345764
-0.073655
0.0151432
-0.0352935
0.0225941
-0.000585841
0.0309185
0.0318488
0.0387638
0.0575154
0.0380263
0.0625356
0.0207605
0.0450105
-0.00130396
0.0257633
-0.0122553
0.0157314
-0.0141588
0.0098211
-0.0135845
0.00476853
-0.012025
0.00084048
-0.0095509
-0.00174726
-0.0068377
-0.00307285
-0.00431085
-0.00343139
-0.00229115
-0.00315843
-0.000842076
-0.0025718
6.21205e-05
-0.00189945
0.000544315
-0.00127841
0.000733449
-0.000775048
0.000746328
-0.000404424
0.000668966
-0.000156748
0.000561733
-1.20269e-05
0.000451842
5.07509e-05
0.00036265
4.91729e-05
0.000280838
0.0230221
0.00456113
-0.00681755
0.00371695
-0.025936
0.00262033
-0.0665394
0.001405
-0.0915793
-9.94743e-05
-0.107854
-0.0019804
-0.113145
-0.00258576
-0.104332
-1.54596e-05
-0.0792783
0.00596909
-0.0390183
0.018868
-0.00394698
0.0259552
0.0289679
0.0337994
0.0585713
0.0377079
0.0729349
0.027627
0.0609621
0.00480886
0.0367017
-0.0122424
0.0208784
-0.0174023
0.0129221
-0.0172599
0.00676972
-0.0155857
0.00159195
-0.0127765
-0.00198998
-0.00930818
-0.0039431
-0.00596745
-0.00455869
-0.00318356
-0.00426476
-0.00118482
-0.00349332
7.94345e-05
-0.00258447
0.000747145
-0.00173709
0.00100299
-0.00105104
0.00100944
-0.000547317
0.000889219
-0.000210659
0.000722875
-1.01439e-05
0.000559848
8.58527e-05
0.000416738
0.000105952
0.000305868
7.06848e-05
0.000210151
0.0184284
0.00572056
-0.00687194
0.00461552
-0.0269704
0.00475141
-0.0675783
0.00365927
-0.0924931
0.00231881
-0.108578
0.00062442
-0.114416
-0.00070938
-0.107061
0.000142847
-0.083816
0.00452217
-0.0425971
0.00954795
-0.00604314
0.0209642
0.0259394
0.0289837
0.0583349
0.0340358
0.0798995
0.0307432
0.0769317
0.0116574
0.0515853
-0.0100748
0.0285679
-0.0199319
0.01697
-0.0214502
0.0094648
-0.019955
0.00283646
-0.0168302
-0.00214839
-0.0126181
-0.00501159
-0.00823969
-0.00602747
-0.00449866
-0.00575209
-0.00169623
-0.00475778
7.96459e-05
-0.00352469
0.00101965
-0.00236369
0.00137375
-0.00142256
0.00137451
-0.000734465
0.00119658
-0.000276308
0.000954866
-2.64953e-06
0.000715379
0.000133995
0.000511704
0.000174456
0.000348232
0.000150976
0.000225575
8.58951e-05
0.000124253
0.0120979
0.00986547
-0.007038
0.00588662
-0.0295758
0.00722086
-0.0690448
0.00621791
-0.0936339
0.00480006
-0.109404
0.0031453
-0.115221
0.00142942
-0.108633
0.000863103
-0.0871189
0.00344575
-0.0467502
0.00867521
-0.00765651
0.0111613
0.0225829
0.0243207
0.0575294
0.0297893
0.0841049
0.0298304
0.0906092
0.0170656
0.069103
-0.00586026
0.0397972
-0.0213041
0.0225467
-0.0255086
0.0131137
-0.0250991
0.00489988
-0.0220184
-0.00197899
-0.0169996
-0.00629877
-0.0113309
-0.00799
-0.00627716
-0.00777313
-0.00247762
-0.00649158
3.75703e-05
-0.00482622
0.00138118
-0.00322687
0.00188282
-0.00192883
0.00188002
-0.000983486
0.00162353
-0.00035835
0.00127862
1.35829e-05
0.000938632
0.000200977
0.000648395
0.000263828
0.000422329
0.00024635
0.000252856
0.000182501
0.000128966
9.36892e-05
3.05616e-05
0.00750445
0.0116475
-0.0089926
0.0118201
-0.0338125
0.0101233
-0.0708353
0.00901139
-0.0951258
0.00770984
-0.11036
0.0057563
-0.115982
0.00390554
-0.109329
0.00212507
-0.0890573
0.00280157
-0.050534
0.00722958
-0.00763916
0.00865786
0.0180459
0.0156984
0.0569223
0.0249277
0.0870786
0.0268155
0.100536
0.0199032
0.0869818
-0.000813187
0.0543333
-0.0203964
0.0301062
-0.0288636
0.0179347
-0.0303296
0.00814865
-0.0283479
-0.000929778
-0.0230676
-0.00749755
-0.0158008
-0.0105303
-0.00879062
-0.0105852
-0.00346508
-0.00891852
-5.06851e-05
-0.00663701
0.00184836
-0.00442666
0.00258097
-0.00262525
0.00257924
-0.00131927
0.00221581
-0.000462411
0.00172759
4.24139e-05
0.00124979
0.000295904
0.000843703
0.000383315
0.000528905
0.000368426
0.00030025
0.000296255
0.000139099
0.000198216
2.44366e-05
9.36164e-05
-6.30581e-05
0.00278076
0.0160532
-0.0163244
0.0189794
-0.0417365
0.0197441
-0.0730521
0.0123401
-0.0967539
0.0106394
-0.11147
0.00881946
-0.116466
0.00624092
-0.109242
0.00381826
-0.0894534
0.00252115
-0.0529648
0.00523239
-0.00727847
0.00686889
0.0137058
0.0129979
0.0547935
0.0178272
0.0892387
0.0227677
0.108247
0.0191049
0.10234
0.00454474
0.0711497
-0.0176296
0.0400699
-0.0303601
0.0234957
-0.0344247
0.012431
-0.0346119
0.00128421
-0.0305618
-0.00795057
-0.0226146
-0.0132859
-0.0130452
-0.0143445
-0.00503138
-0.0123637
-1.98575e-05
-0.00921058
0.00252288
-0.00611067
0.00353237
-0.00359262
0.00354833
-0.00177623
0.00303619
-0.000596417
0.00234981
9.05011e-05
0.0016795
0.000430413
0.00111528
0.000546905
0.000680111
0.000528963
0.000368366
0.000440164
0.000156339
0.000320546
1.67658e-05
0.000197272
-7.92222e-05
8.56473e-05
-0.000148708
-0.00458647
0.0245742
-0.0276809
0.0274096
-0.0492781
0.026521
-0.0753161
0.0220081
-0.0983084
0.0138946
-0.112495
0.0116649
-0.116424
0.00877695
-0.108503
0.00550239
-0.0881881
0.00255293
-0.0536528
0.00320916
-0.0075931
0.00554701
0.0105811
0.00999358
0.0535543
0.0142371
0.0883817
0.0186842
0.113594
0.0174207
0.115005
0.00644012
0.0887676
-0.0130731
0.0522745
-0.0298342
0.0298342
-0.0366986
0.0168683
-0.038862
0.00407276
-0.0374005
-0.00782713
-0.0306853
-0.015783
-0.0201175
-0.0187367
-0.00865299
-0.017058
-0.0003371
-0.0128885
0.00365802
-0.00850575
0.00491796
-0.00495408
0.00489383
-0.00240494
0.00417705
-0.000769436
0.00320921
0.000167041
0.00227327
0.000622116
0.00148779
0.000772507
0.000889675
0.00074532
0.000463752
0.000627434
0.000181094
0.000473924
2.95863e-06
0.000317973
-0.000103938
0.00017975
-0.000173328
7.06446e-05
-0.000219356
-0.0135278
0.0341949
-0.0380706
0.0349639
-0.054855
0.0329865
-0.0767578
0.0279627
-0.0978164
0.0215161
-0.112439
0.0138381
-0.11502
0.0102616
-0.106154
0.0064279
-0.0850874
0.00240175
-0.0518817
0.000781784
-0.00851947
0.00413553
0.00969284
0.00643531
0.0532264
0.0103214
0.0881764
0.0144424
0.113736
0.0185427
0.125032
0.00739413
0.104185
-0.00897743
0.0666205
-0.0274191
0.0370498
-0.0370498
0.0209886
-0.0408189
0.00650053
-0.0412898
-0.00810899
-0.0371186
-0.018839
-0.0276292
-0.0238458
-0.0150083
-0.0230923
-0.00261867
-0.0180339
0.00480835
-0.0118971
0.00704941
-0.00687059
0.00683446
-0.00328314
0.00577203
-0.000995258
0.00440287
0.000288472
0.00308778
0.000895181
0.0020002
0.00108617
0.00117413
0.00103969
0.000595307
0.000877139
0.000214044
0.000671898
-1.68832e-05
0.000468115
-0.000147186
0.000288773
-0.000212965
0.000147598
-0.000250284
4.98383e-05
-0.000269198
-0.0213891
0.0406896
-0.0446372
0.0407615
-0.0580296
0.0381386
-0.0765559
0.0327846
-0.0946028
0.0247492
-0.107578
0.0166556
-0.111251
0.0100688
-0.100713
0.00482068
-0.0790551
0.00039552
-0.0476207
-0.00185923
-0.00973371
0.00199603
0.0111187
0.00270965
0.0538733
0.00578846
0.0882444
0.0102534
0.11378
0.0143978
0.127848
0.0157268
0.11794
-0.00636027
0.0808424
-0.0231993
0.0453832
-0.0357525
0.0247805
-0.0408417
0.00833479
-0.0426532
-0.00930898
-0.0400898
-0.0236216
-0.032336
-0.0306382
-0.0208368
-0.0312414
-0.0068593
-0.0251624
0.00450981
-0.0167348
0.00964604
-0.00952023
0.00969905
-0.00448539
0.00803671
-0.00129328
0.00607005
0.000477755
0.00421358
0.00128773
0.00269522
0.00152332
0.00156305
0.00144334
0.000770472
0.00121361
0.00025883
0.000933616
-4.76762e-05
0.000660546
-0.000209316
0.000423316
-0.000281733
0.000236175
-0.000301546
0.000103493
-0.000303942
2.48613e-05
-0.000294063
-0.0237868
0.0435965
-0.0457658
0.0418183
-0.0566273
0.0393592
-0.0725133
0.034096
-0.0875384
0.0257202
-0.0985317
0.0157024
-0.100972
0.00637711
-0.093237
0.00259274
-0.0718896
-0.0023448
-0.0423603
-0.00486493
-0.0101128
-0.00148011
0.014756
-0.00164121
0.0546023
0.00198065
0.0879816
0.00605122
0.113978
0.010056
0.128871
0.0133742
0.12543
0.00823672
0.093955
-0.0194728
0.0545801
-0.0323962
0.0281782
-0.0391502
0.00960752
-0.0421144
-0.0109237
-0.0410384
-0.0295261
-0.0341853
-0.0401471
-0.0228272
-0.0419702
-0.010108
-0.0354529
0.00343119
-0.0239715
0.0117465
-0.0134087
0.0135346
-0.00605623
0.0112699
-0.00165262
0.00839605
0.000774778
0.00577302
0.00185289
0.00364842
0.0021373
0.00208124
0.00199854
0.00100784
0.00167013
0.000313948
0.00128351
-9.10655e-05
0.00091301
-0.000300143
0.000594569
-0.000380571
0.00034445
-0.00039001
0.000164539
-0.000362595
5.09169e-05
-0.000330001
-2.16744e-06
-0.000291899
-0.0216272
0.036542
-0.0392347
0.0370654
-0.0495905
0.0347815
-0.0630047
0.0298505
-0.0752872
0.0218448
-0.0847837
0.0119722
-0.0870243
0.00175423
-0.0804691
-0.0063908
-0.0642261
-0.00507073
-0.037925
-0.00678009
-0.00943105
-0.00554673
0.0184174
-0.00514156
0.0547981
-0.001837
0.0875657
0.00239658
0.113592
0.00643675
0.129446
0.00948091
0.129715
0.00908863
0.104152
-0.00196038
0.0632285
-0.0281212
0.0317835
-0.0360015
0.0100425
-0.0395852
-0.0127525
-0.0402856
-0.035324
-0.0352406
-0.0503588
-0.0239736
-0.0540443
-0.0107531
-0.0488235
0.00326267
-0.03428
0.0137397
-0.0197106
0.0180484
-0.00839878
0.0158771
-0.00197696
0.0115942
0.00125734
0.00791348
0.00267953
0.00494639
0.00300094
0.00278478
0.00276624
0.00131355
0.00229159
0.000386385
0.00175398
-0.000156522
0.00124824
-0.000426294
0.000817609
-0.000523186
0.000481166
-0.00051729
0.000238025
-0.0004635
7.94816e-05
-0.000391163
-5.70667e-06
-0.000326465
-2.90299e-05
-0.000262873
-0.016326
0.0251211
-0.0294198
0.0267271
-0.0382579
0.0257327
-0.0495531
0.0213299
-0.0592801
0.0138434
-0.067323
0.00438409
-0.0699778
-0.00507428
-0.0660885
-0.0126264
-0.0541252
-0.0164917
-0.0333398
-0.0096559
-0.00729125
-0.00891988
0.020885
-0.00801427
0.0548127
-0.00515622
0.0871444
-0.00141568
0.113403
0.00258532
0.129785
0.00609779
0.131439
0.00775747
0.112357
0.000883943
0.0716696
-0.0104015
0.0349591
-0.0312968
0.0101783
-0.0361373
-0.0147903
-0.0375474
-0.0411317
-0.0344778
-0.060066
-0.0255334
-0.0662912
-0.0117267
-0.0620726
0.00249598
-0.0469517
0.0159344
-0.028815
0.0228441
-0.0126746
0.0223241
-0.00236216
0.0162623
0.00212744
0.0107241
0.00388829
0.00670472
0.00423405
0.00371328
0.00382814
0.00172287
0.00313949
0.000465644
0.00238889
-0.000248532
0.00169547
-0.000603758
0.00111192
-0.000720608
0.000657748
-0.000699771
0.000329617
-0.000608885
0.000112337
-0.000496359
-1.18833e-05
-0.00038499
-6.19026e-05
-0.000293596
-5.34641e-05
-0.000209412
-0.0107435
0.0139382
-0.0196417
0.0153431
-0.0266088
0.0150781
-0.0353625
0.0115421
-0.0428791
0.0049289
-0.0494046
-0.00407501
-0.0527589
-0.0128349
-0.0519054
-0.0192574
-0.0443833
-0.0223682
-0.028579
-0.0212525
-0.00487217
-0.012075
0.0227907
-0.0108256
0.0553297
-0.0085312
0.0872558
-0.00526763
0.113427
-0.00143979
0.13014
0.00223033
0.132858
0.00467802
0.11766
0.00245388
0.0803049
-0.00775136
0.0396193
-0.0150617
0.00975598
-0.0308745
-0.0165524
-0.0343751
-0.0461653
-0.0325138
-0.0699678
-0.024576
-0.0794926
-0.0123321
-0.0745263
0.000727013
-0.0610664
0.0166107
-0.0397174
0.0268368
-0.0195382
0.0297077
-0.00363159
0.0235936
0.00366059
0.0147291
0.00572301
0.0088894
0.00597986
0.0049589
0.00531341
0.00222801
0.00429611
0.000566244
0.00324491
-0.000390378
0.00229473
-0.00084779
0.0015019
-0.000993736
0.000889244
-0.000952106
0.00044635
-0.000816507
0.00015159
-0.000648141
-2.21888e-05
-0.000486057
-0.000102338
-0.000344558
-0.000113244
-0.00023382
-7.33793e-05
-0.000136037
-0.00721894
0.00729485
-0.0127087
0.00700522
-0.0175837
0.00631796
-0.0236761
0.00339169
-0.0293071
-0.00202991
-0.0345985
-0.00987719
-0.0386724
-0.0181615
-0.0401038
-0.0246364
-0.0360941
-0.0275466
-0.0242513
-0.0266959
-0.00356674
-0.0225579
0.0245504
-0.0138347
0.0562728
-0.0117687
0.0879621
-0.00923752
0.113745
-0.00558535
0.130289
-0.00158887
0.13362
0.00146855
0.120623
0.00171509
0.0880245
-0.0052657
0.0446463
-0.0127783
0.0119984
-0.0173041
-0.0187091
-0.0287178
-0.0503578
-0.0301827
-0.0783329
-0.0241488
-0.0926801
-0.0113885
-0.0902848
0.00342643
-0.0763929
0.0160534
-0.0525551
0.0294484
-0.0283885
0.0356871
-0.00671391
0.0327901
0.00564912
0.021605
0.00869371
0.0117584
0.00847329
0.00639597
0.0073726
0.00289972
0.00588092
0.000643195
0.00439945
-0.000588298
0.00309443
-0.00119008
0.00202142
-0.00136732
0.00119402
-0.00129851
0.000597912
-0.00110367
0.000199417
-0.000864337
-3.83119e-05
-0.000632021
-0.000155014
-0.000433384
-0.000184723
-0.000273083
-0.000155432
-0.000151772
-8.74171e-05
-4.86242e-05
-0.00493613
0.00437116
-0.00883373
0.00341984
-0.012071
0.0014925
-0.0159706
-0.00138747
-0.0198894
-0.00602599
-0.0239421
-0.0126863
-0.0278595
-0.02069
-0.0306451
-0.0276202
-0.0294482
-0.0312824
-0.0206051
-0.0311927
-0.00216736
-0.0280953
0.0244734
-0.022481
0.0574524
-0.0150143
0.089099
-0.0129057
0.114217
-0.00970961
0.130071
-0.0053666
0.133567
-0.0015354
0.121998
9.37836e-05
0.0929623
-0.00322271
0.0495811
-0.0102005
0.0136696
-0.0144495
-0.0168009
-0.0192123
-0.0546893
-0.0243863
-0.0865633
-0.0219522
-0.104461
-0.0123676
-0.104736
0.00306278
-0.0905311
0.0175647
-0.067353
0.0308513
-0.0380371
0.039097
-0.0116876
0.0406607
0.00710649
0.0313327
0.0133252
0.0169736
0.0122094
0.00802237
0.0102125
0.0035561
0.00804093
0.000739706
0.00595012
-0.000907479
0.00416368
-0.00165755
0.00270923
-0.00187789
0.00159814
-0.00177145
0.000795808
-0.00149641
0.000259567
-0.00116382
-6.30464e-05
-0.000839605
-0.000225341
-0.000561697
-0.000275695
-0.000342417
-0.000252111
-0.000176408
-0.000185259
-5.39342e-05
-9.46997e-05
4.6071e-05
-0.00354486
0.00339714
-0.00649117
0.00202859
-0.00870209
5.09135e-05
-0.0114824
-0.0029957
-0.0141889
-0.00708795
-0.0170383
-0.0129298
-0.0200589
-0.020487
-0.0231392
-0.0281959
-0.0236409
-0.0334275
-0.0171747
-0.0347128
-0.000956387
-0.0324037
0.0245986
-0.0282205
0.0555746
-0.0206031
0.0900168
-0.015932
0.11488
-0.0135686
0.129252
-0.00889078
0.132596
-0.00439557
0.122178
-0.00171555
0.0955411
-0.00248499
0.0539536
-0.0075952
0.014641
-0.011172
-0.0155719
-0.0156785
-0.0529325
-0.0209691
-0.0939279
-0.0170216
-0.117175
-0.00923896
-0.119097
0.00199295
-0.103807
0.0163388
-0.078909
0.0291207
-0.0475782
0.0403923
-0.0177301
0.0451395
0.00696381
0.0408034
0.0190156
0.0256423
0.0182931
0.0108899
0.0141266
0.00410829
0.0109495
0.000647568
0.00803318
-0.00134335
0.00557525
-0.00231906
0.00362335
-0.00257168
0.00213034
-0.00241009
0.00105687
-0.00203251
0.000335853
-0.0015727
-9.91171e-05
-0.00112776
-0.000320978
-0.000743972
-0.000394832
-0.000442564
-0.000374015
-0.000220517
-0.000299369
-6.23017e-05
-0.000200446
5.18079e-05
-9.46102e-05
0.000140677
-0.00254772
0.00282714
-0.00489545
0.00180142
-0.00666918
-4.31528e-06
-0.00873862
-0.0026929
-0.0107442
-0.00644042
-0.0127038
-0.0114224
-0.0146502
-0.0183384
-0.0169441
-0.0266821
-0.0181513
-0.0336855
-0.0137571
-0.0368451
0.000282482
-0.0359517
0.0239115
-0.0317167
0.0537971
-0.026443
0.0855699
-0.0161563
0.11519
-0.0162417
0.127719
-0.0120361
0.13036
-0.00665513
0.120907
-0.00312414
0.095998
-0.00217245
0.0561798
-0.00471127
0.0140908
-0.00704491
-0.0144076
-0.0123363
-0.051691
-0.01692
-0.0923843
-0.0225128
-0.126279
-0.00791756
-0.132842
0.00450666
-0.118322
0.0165076
-0.0909363
0.0283661
-0.0576216
0.0391641
-0.0240496
0.0467118
0.00507076
0.0470326
0.0240548
0.0357642
0.0269125
0.0170228
0.0203713
0.00464515
0.0147222
0.000335532
0.0107723
-0.00209155
0.00744912
-0.00321722
0.00481606
-0.00351176
0.00283503
-0.00327637
0.00139981
-0.00275304
0.000435019
-0.00213168
-0.000150698
-0.00152112
-0.00045103
-0.000997707
-0.000554152
-0.000584655
-0.000532276
-0.000284306
-0.000442371
-7.75187e-05
-0.000322869
6.01171e-05
-0.000199608
0.000156801
-8.73454e-05
0.000228018
-0.00181413
0.00223677
-0.00363193
0.00156362
-0.00508466
0.000216897
-0.00674948
-0.00199346
-0.00830107
-0.00513604
-0.00974007
-0.00940419
-0.0108826
-0.01519
-0.0119788
-0.0233037
-0.012911
-0.0319223
-0.0101815
-0.0372612
0.00126583
-0.0378284
0.0225857
-0.0346258
0.0506792
-0.0285988
0.0802696
-0.0211427
0.109137
-0.0101033
0.125785
-0.0143074
0.126484
-0.00816028
0.117945
-0.00369381
0.0942354
-0.00136158
0.0554107
-0.00140332
0.0117173
-0.00233779
-0.0127116
-0.00874092
-0.0512847
-0.0127426
-0.0903553
-0.0189489
-0.125086
-0.023705
-0.140698
-6.18883e-05
-0.128312
0.0144964
-0.10216
0.0277309
-0.0672049
0.0379494
-0.0309093
0.0460238
0.00210908
0.0496735
0.0273006
0.0437868
0.0366792
0.0259975
0.0298622
0.00753189
0.0202576
-0.000890245
0.0142638
-0.00315602
0.0098543
-0.00449673
0.00638532
-0.00478648
0.00375243
-0.00442917
0.00185385
-0.00373041
0.000564523
-0.00288254
-0.000221892
-0.00206049
-0.000627904
-0.00134425
-0.000768816
-0.000783046
-0.000742599
-0.000374335
-0.000626944
-9.97377e-05
-0.000475366
7.4974e-05
-0.00032042
0.000180924
-0.000183367
0.000252819
-7.35369e-05
0.00030155
-0.00128736
0.00170283
-0.00266035
0.00126519
-0.00380137
0.000280335
-0.00513692
-0.00139566
-0.00636865
-0.00392588
-0.0074325
-0.00744361
-0.00814711
-0.0121397