/*--------------------------------*- C++ -*----------------------------------*\
| =========                 |                                                 |
| \\      /  F ield         | OpenFOAM: The Open Source CFD Toolbox           |
|  \\    /   O peration     | Version:  2506                                  |
|   \\  /    A nd           | Website:  www.openfoam.com                      |
|    \\/     M anipulation  |                                                 |
\*---------------------------------------------------------------------------*/
FoamFile
{
    version     2.0;
    format      ascii;
    arch        "LSB;label=32;scalar=64";
    class       volVectorField;
    location    "129.99968020949075";
    object      ddtCorrDdt0(U);
}
// * * * * * * * * * * * * * * * * * * * * * * * * * * * * * * * * * * * * * //

dimensions      [0 1 -2 0 0 0 0];

internalField   nonuniform List<vector> 
9700
(
(-0.0006513 -4.05549e-05 6.97962e-23)
(-0.000527416 -0.000170346 1.53363e-24)
(-0.000556205 3.00275e-05 2.73753e-28)
(-0.00031119 -0.000230052 -9.89912e-23)
(-0.000457574 9.27651e-05 -3.30909e-24)
(-0.000684532 5.22994e-05 -6.59922e-23)
(6.44071e-05 -0.000289238 -4.50624e-24)
(-0.000296952 0.00021945 -9.29211e-36)
(-0.000619502 0.00018274 -6.20678e-23)
(-0.000804228 6.77644e-05 0)
(0.000614365 -0.0002686 8.66355e-23)
(-4.59754e-06 0.000405653 7.50844e-24)
(-0.00051545 0.000368907 -5.4619e-22)
(-0.000777021 0.000252846 -6.21133e-23)
(-0.000968498 6.53641e-05 5.9318e-23)
(0.00140331 -0.000173005 1.08343e-22)
(0.000412309 0.000726727 -3.68255e-27)
(-0.000324575 0.000636558 -9.95201e-23)
(-0.000738696 0.000483038 1.38405e-35)
(-0.000981548 0.000260624 7.22672e-23)
(-0.00111056 4.80676e-05 1.06997e-27)
(0.00250977 4.92821e-05 6.85354e-23)
(0.00101349 0.00122369 4.60611e-27)
(-5.50109e-05 0.00105316 -1.09816e-22)
(-0.000663541 0.000812834 1.47629e-22)
(-0.00101117 0.000488397 4.53809e-22)
(-0.00116059 0.000215666 -1.21001e-23)
(-0.00121294 1.73919e-05 -3.70104e-23)
(0.00403781 0.000445393 1.85226e-22)
(0.00185052 0.00197519 1.52431e-22)
(0.00033094 0.00167827 -7.89377e-23)
(-0.000563793 0.00129989 0)
(-0.00105821 0.000820238 3.40503e-23)
(-0.00125263 0.000402316 -1.69518e-36)
(-0.00129362 0.000121751 -2.38631e-23)
(-0.00124472 -2.3225e-05 -2.58968e-22)
(0.00616135 0.00107318 -8.3949e-23)
(0.00301047 0.00309666 -3.21709e-22)
(0.000863697 0.00259765 1.04365e-22)
(-0.000425939 0.00201925 0)
(-0.00113628 0.0013021 3.93665e-23)
(-0.00141233 0.00068536 2.91856e-23)
(-0.00143721 0.000231875 -2.85604e-26)
(-0.00134625 -1.00589e-05 -3.00897e-22)
(-0.0011895 -6.96293e-05 -9.32478e-25)
(0.00906582 0.00203999 -2.43484e-22)
(0.00461936 0.00470667 -2.21607e-22)
(0.00159801 0.00394897 -1.58942e-21)
(-0.000244407 0.00306071 -4.9371e-37)
(-0.00125914 0.00201352 1.27595e-22)
(-0.00165438 0.00109813 -1.46036e-26)
(-0.0016907 0.000419054 -8.62784e-23)
(-0.00152509 -3.1332e-06 -4.11422e-23)
(-0.00130015 -0.00016595 1.36463e-22)
(-0.00103738 -0.000117056 1.07062e-22)
(0.0130197 0.00340432 2.21826e-22)
(0.00683488 0.00703396 2.34649e-23)
(0.00260972 0.00587609 1.68356e-22)
(-5.28084e-06 0.00457767 1.42752e-22)
(-0.00144701 0.00303938 5.10068e-22)
(-0.00201775 0.0017148 1.90838e-26)
(-0.00206892 0.000704144 -9.1595e-23)
(-0.00184338 5.20789e-05 -3.13586e-22)
(-0.00149474 -0.000278278 2.69937e-23)
(-0.00114451 -0.000329646 1.17147e-22)
(-0.000789434 -0.000160648 0)
(0.0184159 0.00532446 8.68508e-24)
(0.00997381 0.0102524 2.46546e-23)
(0.0040253 0.0086514 1.69842e-21)
(0.000311974 0.00673488 5.61246e-22)
(-0.00172972 0.00453302 1.15551e-21)
(-0.0025468 0.00260691 6.60228e-22)
(-0.00263159 0.00114637 4.86046e-24)
(-0.00231544 0.00016527 -2.90562e-22)
(-0.00184296 -0.000377539 -2.69192e-22)
(-0.00133377 -0.000565017 -6.94943e-27)
(-0.000880798 -0.000484297 -8.44522e-38)
(-0.00045615 -0.000195913 -9.94028e-25)
(0.0254709 0.0079559 1.82457e-21)
(0.0141479 0.0147784 1.52912e-22)
(0.00600713 0.0125132 -2.61395e-22)
(0.00076072 0.00982578 -2.09697e-22)
(-0.00214691 0.00665515 -8.73514e-22)
(-0.00331242 0.00391205 -8.35571e-23)
(-0.00344296 0.00179688 4.79241e-22)
(-0.0030147 0.000372979 -3.04054e-22)
(-0.00235814 -0.000462796 2.79304e-27)
(-0.00167428 -0.000825419 2.90905e-23)
(-0.00104422 -0.000834063 4.43839e-37)
(-0.000521013 -0.000614016 8.74105e-24)
(-5.68669e-05 -0.000219081 7.50997e-28)
(0.0348417 0.0120534 3.45066e-23)
(0.0193469 0.0211549 1.0458e-34)
(0.00852931 0.0180163 -2.30882e-22)
(0.00139351 0.0141866 -7.93611e-22)
(-0.00273893 0.00970489 -1.3428e-21)
(-0.00441185 0.00576844 -1.14253e-21)
(-0.00460666 0.00276382 -8.19566e-22)
(-0.0040191 0.000701516 -3.59623e-22)
(-0.00311905 -0.000525541 -3.66895e-27)
(-0.002178 -0.0011154 6.5272e-25)
(-0.00134044 -0.00124613 -1.47785e-37)
(-0.000640507 -0.00105808 -5.22279e-27)
(-8.69222e-05 -0.000705147 -8.9178e-24)
(0.000381762 -0.000227419 1.63505e-23)
(0.05196 0.0149988 2.03517e-21)
(0.0276674 0.0303833 -4.60432e-22)
(0.0113937 0.0257965 -5.08672e-21)
(0.00197319 0.0204214 -7.97796e-22)
(-0.00359685 0.0140219 1.5834e-22)
(-0.00597295 0.00844171 1.29196e-22)
(-0.00626639 0.00414355 -1.3707e-21)
(-0.0054522 0.00121962 -1.14056e-21)
(-0.00421005 -0.000565491 6.82671e-22)
(-0.00292042 -0.00145704 6.58364e-23)
(-0.00177992 -0.00172685 0)
(-0.000860186 -0.00159743 -4.56336e-23)
(-0.000148344 -0.00121387 8.29525e-37)
(0.00039171 -0.000747339 2.58416e-23)
(0.000828191 -0.000219443 2.39421e-23)
(0.0766113 0.0163794 -1.32023e-21)
(0.0449187 0.0412062 1.73165e-23)
(0.0170423 0.036781 -4.54787e-22)
(0.00215321 0.0292237 1.8755e-34)
(-0.00511073 0.020217 3.99331e-22)
(-0.00821299 0.0122344 1.59176e-22)
(-0.00862478 0.00614202 7.64569e-22)
(-0.00748847 0.00196987 5.46537e-22)
(-0.00575989 -0.000558807 -1.25959e-22)
(-0.00398504 -0.00187384 5.01432e-22)
(-0.00242707 -0.00232861 0)
(-0.00118916 -0.00223664 -5.34411e-23)
(-0.000266296 -0.00184356 2.12761e-23)
(0.000397407 -0.00128415 1.48354e-22)
(0.000879838 -0.000734401 1.129e-23)
(0.00124896 -0.000195 -3.32702e-29)
(0.113368 0.0118473 -2.3386e-21)
(0.0746543 0.0527331 6.91263e-24)
(0.03237 0.0507438 1.97777e-22)
(0.00443369 0.0415337 8.59073e-22)
(-0.0077892 0.0288825 4.47318e-21)
(-0.0116065 0.0176754 1.18357e-21)
(-0.011995 0.00897228 -1.64853e-22)
(-0.0103754 0.00308078 1.27965e-21)
(-0.0079556 -0.000520864 9.31299e-23)
(-0.00549096 -0.0023878 -9.40727e-23)
(-0.00335792 -0.00309357 1.36786e-36)
(-0.00167453 -0.00305554 1.85892e-23)
(-0.000448744 -0.0025942 -1.05502e-26)
(0.000397345 -0.00195797 4.54654e-24)
(0.000955934 -0.0012589 3.10941e-23)
(0.00134044 -0.000664747 -1.90209e-23)
(0.00161088 -0.000155253 -2.80715e-23)
(0.139489 0.0067019 -6.97461e-21)
(0.115129 0.0624671 -3.36575e-21)
(0.0606233 0.0684916 5.46064e-22)
(0.0151313 0.0587268 0)
(-0.00983109 0.0409183 1.87689e-22)
(-0.0167835 0.0251295 3.88353e-35)
(-0.0168423 0.0130243 8.78894e-23)
(-0.0144836 0.00464206 -2.14558e-21)
(-0.0110542 -0.000407481 3.0717e-22)
(-0.00762038 -0.00306806 -7.66428e-22)
(-0.00466941 -0.00408662 -7.38441e-22)
(-0.00237953 -0.00410797 3.87695e-22)
(-0.000721426 -0.00356789 1.36169e-26)
(0.000384522 -0.00276252 1.17892e-23)
(0.0010798 -0.00192529 1.4909e-22)
(0.00148429 -0.00113601 -2.24244e-22)
(0.00173689 -0.000541523 -2.90947e-23)
(0.00188401 -0.000102619 2.79565e-23)
(0.152546 0.000103451 2.67244e-20)
(0.141734 0.0793788 9.0524e-21)
(0.0920766 0.0917302 -6.86331e-21)
(0.0373436 0.0840277 -3.1162e-34)
(-0.00638286 0.0591582 -1.47925e-21)
(-0.0232426 0.0352962 -1.76177e-21)
(-0.0238266 0.0184087 -1.26414e-21)
(-0.020212 0.00688127 -7.00209e-22)
(-0.0154464 -0.000264211 -1.71987e-21)
(-0.0106041 -0.00395126 -2.77081e-22)
(-0.00652458 -0.00541913 9.01172e-22)
(-0.00337014 -0.005496 -6.62572e-22)
(-0.0011307 -0.00482257 4.66412e-22)
(0.000356361 -0.00381509 7.1994e-23)
(0.00124537 -0.00272073 4.86329e-23)
(0.00172781 -0.00174223 -3.90443e-23)
(0.00194004 -0.000921361 1.9409e-22)
(0.00203629 -0.000372415 5.77717e-23)
(0.00204449 -4.06197e-05 3.54865e-29)
(0.161338 -0.00940212 8.14607e-21)
(0.156062 0.0944582 9.49832e-21)
(0.118105 0.122713 -2.42732e-21)
(0.063441 0.119013 4.62652e-35)
(0.00511833 0.0887666 -7.75264e-22)
(-0.028626 0.0516175 -8.24032e-22)
(-0.0338892 0.0254462 -5.83996e-22)
(-0.0281138 0.0097089 -1.21504e-22)
(-0.0214494 -2.8715e-05 2.11095e-21)
(-0.0148179 -0.00520693 -4.74349e-22)
(-0.00909941 -0.00719758 1.1778e-21)
(-0.0047801 -0.00735683 -1.19489e-21)
(-0.00170733 -0.00649016 -5.85707e-23)
(0.000286339 -0.00517089 3.10826e-22)
(0.00147294 -0.00376903 6.28373e-23)
(0.00206595 -0.00246497 4.463e-28)
(0.00228891 -0.00141765 -4.19447e-23)
(0.00228506 -0.000628471 3.3197e-23)
(0.00221247 -0.00016901 -2.58917e-24)
(0.00207624 2.61707e-05 -2.41185e-23)
(0.142811 -0.0276721 -7.14291e-20)
(0.163406 0.104633 -3.0018e-20)
(0.135131 0.152278 2.02181e-21)
(0.0865742 0.162174 1.0613e-34)
(0.022263 0.133198 4.1688e-21)
(-0.0301036 0.0804978 2.00121e-25)
(-0.0475116 0.0370222 -3.98113e-21)
(-0.0402079 0.0130129 -1.22101e-21)
(-0.0293932 7.02794e-05 -1.29799e-24)
(-0.0205046 -0.00692586 -3.41231e-22)
(-0.0127251 -0.00968312 -1.43947e-21)
(-0.00671407 -0.00985312 8.3263e-22)
(-0.00254907 -0.00871555 -7.9862e-22)
(0.00017875 -0.0069831 8.1305e-22)
(0.00175783 -0.00511754 1.45437e-22)
(0.00254002 -0.00342485 -4.90657e-28)
(0.00277962 -0.0020083 -5.00511e-23)
(0.00271596 -0.000972077 4.62168e-23)
(0.00248879 -0.000277422 -6.3696e-36)
(0.00224778 5.37829e-05 -2.27174e-23)
(0.00197302 9.24033e-05 -8.9705e-25)
(0.116159 -0.0536969 -3.98244e-21)
(0.160016 0.108814 -2.33487e-21)
(0.148497 0.175871 1.1667e-20)
(0.108125 0.20216 0)
(0.0376431 0.184379 1.51411e-20)
(-0.0240431 0.125488 4.91932e-21)
(-0.0613124 0.0595714 1.18106e-21)
(-0.0598031 0.0182568 -1.58183e-21)
(-0.0416224 -0.000403287 -3.47156e-21)
(-0.0277421 -0.00944778 -2.74571e-23)
(-0.017573 -0.0130907 -9.92377e-37)
(-0.00943943 -0.0132932 -1.7608e-22)
(-0.00368611 -0.0117053 9.06699e-23)
(-2.32627e-05 -0.00938771 -5.78686e-22)
(0.0021358 -0.0069309 6.70835e-22)
(0.00316813 -0.00465833 -5.2821e-23)
(0.00347142 -0.00280056 -6.24729e-23)
(0.00332631 -0.0013798 4.57027e-23)
(0.00297098 -0.000436008 8.055e-24)
(0.0025305 0.000106046 -2.68862e-23)
(0.00213516 0.00027892 -4.54529e-24)
(0.00173924 0.000152508 1.69431e-22)
(0.0883551 -0.0851644 -1.76924e-21)
(0.149525 0.105192 1.2875e-20)
(0.150903 0.193979 -2.18296e-21)
(0.124506 0.239887 2.61689e-35)
(0.061396 0.228741 -4.81541e-20)
(-0.000636416 0.179161 -1.2782e-20)
(-0.0672084 0.0961242 5.93771e-21)
(-0.0841791 0.0309994 -3.81229e-22)
(-0.0637993 -0.00184666 3.46686e-26)
(-0.0383631 -0.0132996 -1.46121e-21)
(-0.0235608 -0.0178641 4.77124e-36)
(-0.0130409 -0.0179772 7.97043e-24)
(-0.00531416 -0.0157691 1.13102e-22)
(-0.000283613 -0.0126256 -1.13738e-21)
(0.00259523 -0.00932374 2.40609e-22)
(0.00401205 -0.00633018 -5.91467e-22)
(0.00440491 -0.00381891 -1.03603e-22)
(0.0041895 -0.00193579 5.57674e-23)
(0.00365725 -0.000622348 -5.86602e-28)
(0.00302776 0.00015133 -1.14359e-22)
(0.00240166 0.000492497 -5.49265e-23)
(0.00187891 0.000488615 2.02363e-22)
(0.00138987 0.000201426 2.41838e-25)
(0.0618313 -0.119824 -1.35527e-20)
(0.129509 0.093994 1.20336e-21)
(0.144162 0.204334 -1.42036e-20)
(0.131493 0.274398 1.26837e-34)
(0.0845141 0.276071 3.72481e-21)
(0.0168366 0.23289 -6.92934e-22)
(-0.0577952 0.143832 -9.89052e-21)
(-0.102034 0.056459 -5.12452e-21)
(-0.0963607 -0.000936247 -1.01598e-22)
(-0.0591158 -0.0204781 -5.89872e-21)
(-0.0314924 -0.0243878 7.79104e-36)
(-0.0174326 -0.024439 -1.64945e-21)
(-0.00740904 -0.0212601 8.61276e-22)
(-0.000724827 -0.0169691 1.55947e-22)
(0.00322296 -0.0125622 9.65483e-23)
(0.00510912 -0.00852677 2.76607e-22)
(0.00566192 -0.00521523 8.13174e-24)
(0.00536652 -0.00265268 1.22837e-22)
(0.0046307 -0.000889059 9.01325e-28)
(0.00373814 0.000208969 -3.28831e-23)
(0.00287485 0.000744896 1.26467e-23)
(0.00210713 0.000851223 1.81781e-23)
(0.00149476 0.000665615 -4.36991e-23)
(0.000949759 0.0002353 -1.12953e-22)
(0.0384091 -0.147861 -9.00738e-23)
(0.104513 0.075067 1.60528e-21)
(0.1298 0.210462 4.33194e-21)
(0.130363 0.301522 1.0638e-34)
(0.094397 0.325373 5.685e-20)
(0.0323161 0.287822 -1.16822e-20)
(-0.0173038 0.208993 1.92175e-20)
(-0.106638 0.0962358 -1.23864e-21)
(-0.127589 0.0101459 1.09057e-20)
(-0.0949344 -0.0311186 -1.23036e-21)
(-0.0474272 -0.0353068 0)
(-0.0224136 -0.0328571 -6.09994e-22)
(-0.0099891 -0.0287481 -9.10193e-35)
(-0.00120938 -0.0228117 3.2932e-22)
(0.00397373 -0.0168551 -8.13517e-23)
(0.00657911 -0.0115272 9.70566e-22)
(0.00733041 -0.00704638 -1.71746e-22)
(0.00695404 -0.0036556 4.36711e-22)
(0.00596864 -0.00123735 -2.81775e-23)
(0.00474929 0.000264095 -3.74719e-23)
(0.00355306 0.00105066 1.43496e-23)
(0.00251714 0.00129741 1.45364e-22)
(0.00166516 0.00115257 -1.21501e-22)
(0.00100955 0.000794619 -1.31681e-22)
(0.000451521 0.000251747 -9.60016e-24)
(0.0172901 -0.163246 -5.93979e-20)
(0.0748439 0.0491132 -2.69138e-21)
(0.112485 0.206655 -9.94382e-21)
(0.123433 0.324334 -2.09136e-20)
(0.0990022 0.368926 -8.18982e-21)
(0.0464386 0.343886 -1.6854e-21)
(-0.0178628 0.273038 -2.984e-21)
(-0.103961 0.154725 -2.10027e-20)
(-0.144173 0.0378897 -7.28408e-21)
(-0.137017 -0.0386476 6.83777e-21)
(-0.0797318 -0.0539978 1.81878e-35)
(-0.0320372 -0.0455001 -3.70626e-21)
(-0.0122622 -0.0383417 -1.39528e-21)
(-0.0018536 -0.0306628 4.40568e-21)
(0.00506779 -0.0226421 2.20055e-22)
(0.00846492 -0.0154673 -9.73707e-25)
(0.00954841 -0.00958576 -1.06231e-21)
(0.00908821 -0.00497413 -2.6496e-22)
(0.00777824 -0.0017523 -4.13452e-23)
(0.00614891 0.000326884 -7.68008e-23)
(0.00452248 0.00143589 -2.07946e-23)
(0.00310675 0.00183563 1.69738e-22)
(0.00197622 0.00176278 1.17592e-22)
(0.00110699 0.00137047 -5.71425e-23)
(0.00045943 0.00086391 -2.76535e-23)
(-6.74305e-05 0.000249684 -2.53015e-29)
(0.00542406 -0.18332 -4.35696e-20)
(0.0512953 0.0216546 1.88549e-20)
(0.0868739 0.202058 7.78782e-23)
(0.111238 0.333718 3.02751e-25)
(0.101067 0.40595 1.15598e-20)
(0.0564631 0.399838 3.67627e-21)
(-0.00532418 0.32823 -6.02103e-20)
(-0.0764213 0.216585 -3.04169e-20)
(-0.140384 0.0777609 -2.54824e-20)
(-0.167409 -0.0329807 -1.98395e-21)
(-0.126086 -0.0787637 2.61794e-35)
(-0.0552275 -0.0671459 1.24285e-21)
(-0.0161129 -0.0514242 -6.90235e-22)
(-0.00173387 -0.0407689 2.46738e-22)
(0.00638984 -0.0302754 4.10816e-22)
(0.0110147 -0.0208359 -2.38739e-22)
(0.0124589 -0.0129035 -2.041e-22)
(0.0119176 -0.00685119 2.60754e-22)
(0.0102359 -0.00243907 9.06582e-37)
(0.00805011 0.000363022 -3.87374e-22)
(0.00587367 0.00192261 -2.15437e-22)
(0.00395386 0.00253262 1.58787e-22)
(0.00242543 0.00249798 -3.27965e-27)
(0.00129019 0.00210006 -2.54799e-23)
(0.00047452 0.00148516 1.10767e-22)
(-0.000113454 0.000866746 2.65919e-23)
(-0.000567193 0.000229151 6.39441e-24)
(0.000743374 -0.19988 -6.14415e-22)
(0.0343154 0.013835 -2.48406e-20)
(0.0601183 0.194496 -6.89186e-21)
(0.087419 0.346711 -3.08426e-21)
(0.0915251 0.432641 -7.76011e-20)
(0.0634459 0.445373 1.49555e-22)
(0.00726191 0.386565 -2.65908e-21)
(-0.0566311 0.272282 -4.507e-20)
(-0.124397 0.127024 -1.71032e-20)
(-0.176251 -0.0118842 -8.81104e-21)
(-0.169516 -0.0978248 1.66833e-38)
(-0.0972105 -0.102114 5.96555e-21)
(-0.0279983 -0.0719893 1.90316e-25)
(-0.00134294 -0.0536834 -1.14552e-21)
(0.00870976 -0.0402811 1.45244e-21)
(0.0142379 -0.0277888 -2.55859e-21)
(0.0162915 -0.0175153 -3.28352e-22)
(0.0156878 -0.00930913 7.30611e-22)
(0.0135003 -0.00348276 8.41767e-23)
(0.0106566 0.000391372 -4.55499e-22)
(0.00771999 0.00253389 3.32524e-22)
(0.00514333 0.00342288 5.08822e-22)
(0.00307498 0.00346116 4.57411e-27)
(0.0015569 0.00297852 -5.32346e-23)
(0.000511086 0.00227786 3.9667e-23)
(-0.000183458 0.00148539 -2.7613e-36)
(-0.000663899 0.000802136 -5.7554e-24)
(-0.00100903 0.000191459 0)
(0.00195311 -0.208994 2.50431e-21)
(0.0193326 0.0132514 -6.93241e-20)
(0.0400256 0.179936 4.89181e-20)
(0.0643345 0.349015 -6.03781e-20)
(0.0745703 0.465761 2.19916e-20)
(0.0556891 0.492837 2.0207e-21)
(0.0136826 0.437812 -9.83771e-21)
(-0.0443889 0.327691 -4.96784e-20)
(-0.106438 0.180389 -6.17687e-21)
(-0.167034 0.0237451 -2.79838e-20)
(-0.194222 -0.101295 0)
(-0.147258 -0.14217 -9.47235e-21)
(-0.0577056 -0.108192 4.66282e-21)
(-0.00341567 -0.0716744 -6.11523e-22)
(0.0120648 -0.052651 6.91162e-22)
(0.01864 -0.0371426 -3.86664e-22)
(0.0212652 -0.0234239 1.99181e-21)
(0.0205998 -0.0128378 1.09516e-21)
(0.0179065 -0.00487375 1.17056e-22)
(0.014139 0.000308858 1.2722e-22)
(0.0102753 0.00331519 4.1312e-22)
(0.00678114 0.00458819 5.7936e-23)
(0.0039955 0.00469945 -3.21682e-22)
(0.00194653 0.0041368 -4.68574e-24)
(0.000567608 0.00323133 -2.07199e-24)
(-0.000299746 0.00227808 -5.86721e-23)
(-0.000814523 0.00136965 -2.81576e-23)
(-0.00114824 0.000675166 1.76578e-24)
(-0.00135903 0.000139401 4.03874e-23)
(0.00230336 -0.21038 -1.71875e-20)
(0.00583016 0.01273 3.7246e-21)
(0.0248663 0.168365 7.8138e-20)
(0.0478467 0.346863 -3.62717e-20)
(0.0563189 0.472301 -6.62934e-20)
(0.0536996 0.533226 9.16053e-21)
(0.0139321 0.497676 1.02204e-19)
(-0.0363792 0.380638 -2.07625e-20)
(-0.0921644 0.229926 3.4399e-20)
(-0.149259 0.0658991 -5.19962e-21)
(-0.195586 -0.0866466 8.04457e-36)
(-0.186789 -0.174728 2.26952e-20)
(-0.103569 -0.159539 -1.11918e-20)
(-0.0174069 -0.102395 3.82363e-21)
(0.0164239 -0.068581 -9.94046e-21)
(0.024464 -0.0485539 -1.22472e-22)
(0.0276216 -0.0316177 -3.80979e-22)
(0.027092 -0.017387 3.13579e-22)
(0.0236534 -0.00701358 -1.24895e-22)
(0.0188939 0.000152346 8.01947e-22)
(0.0137199 0.0042615 1.83197e-22)
(0.0090716 0.00610412 -7.35368e-22)
(0.00527577 0.0063485 -1.23233e-22)
(0.00250771 0.00563342 9.83012e-23)
(0.000655131 0.0044929 3.64239e-24)
(-0.000463202 0.00322943 3.58628e-28)
(-0.00107601 0.00209809 2.60417e-23)
(-0.00136782 0.00114678 2.14866e-23)
(-0.00152868 0.000496524 4.2124e-23)
(-0.00159083 7.72093e-05 8.18783e-26)
(0.00540724 -0.205938 -1.88847e-21)
(-0.00631569 0.0146947 1.57348e-21)
(0.012921 0.158511 -8.28879e-21)
(0.0324852 0.345358 3.47278e-20)
(0.0441923 0.473478 6.12912e-20)
(0.0458784 0.543848 1.0348e-19)
(0.00600096 0.528923 -3.4652e-23)
(-0.0243287 0.43333 6.32211e-20)
(-0.0794671 0.275597 2.0964e-20)
(-0.130595 0.105419 2.15138e-20)
(-0.180861 -0.0609071 -4.88887e-34)
(-0.203701 -0.189533 -1.44919e-20)
(-0.151274 -0.216571 -1.04405e-20)
(-0.0487076 -0.152578 7.73618e-21)
(0.0160168 -0.091938 2.05633e-21)
(0.0323919 -0.0632781 5.0055e-21)
(0.0358985 -0.041669 3.89232e-22)
(0.0352671 -0.0239195 -5.128e-22)
(0.0313551 -0.00987762 -1.49913e-35)
(0.0251631 -0.000338644 8.88973e-22)
(0.0184797 0.00545061 3.33035e-23)
(0.0121941 0.00807233 -6.12103e-24)
(0.00708909 0.00851636 -1.77676e-22)
(0.00330093 0.00764648 4.88618e-22)
(0.000794489 0.00612891 -1.57816e-22)
(-0.000693921 0.00448958 -4.07448e-28)
(-0.00144919 0.0029683 9.72307e-25)
(-0.00175329 0.00175177 -1.24083e-23)
(-0.00179917 0.000835361 -1.53163e-23)
(-0.00177623 0.000281402 -1.69533e-23)
(-0.00168806 1.0188e-05 -1.1759e-23)
(0.012393 -0.188603 2.60871e-21)
(-0.0172806 0.0187113 -1.70382e-20)
(0.0021412 0.149197 -8.42998e-21)
(0.0190239 0.34471 -2.57433e-20)
(0.029643 0.474908 2.54252e-20)
(0.0369717 0.55379 2.75175e-20)
(0.0248831 0.554845 3.72914e-20)
(-0.00467055 0.461737 2.19552e-20)
(-0.0644817 0.317986 -4.88504e-20)
(-0.113323 0.140381 -8.2152e-22)
(-0.159576 -0.0325942 -7.06017e-35)
(-0.198542 -0.186826 -4.05926e-20)
(-0.184466 -0.264195 4.25966e-20)
(-0.0921228 -0.219834 -2.07603e-20)
(0.00348299 -0.132375 -6.96378e-21)
(0.040672 -0.0812706 -8.91367e-22)
(0.0462161 -0.0552191 4.31832e-21)
(0.0459702 -0.032243 5.44702e-22)
(0.0411704 -0.0142505 2.30354e-22)
(0.0336692 -0.00116402 -1.45832e-22)
(0.0248567 0.00679017 -1.57805e-22)
(0.01657 0.0106285 -8.99465e-23)
(0.00959727 0.0114105 6.97645e-22)
(0.00444786 0.0103157 -2.83068e-22)
(0.00100719 0.00834294 3.13074e-23)
(-0.00100192 0.00612658 9.35794e-24)
(-0.0019845 0.0041194 -3.31406e-24)
(-0.00230609 0.00246776 0)
(-0.00227578 0.00126836 5.15244e-23)
(-0.00207478 0.000461881 1.89327e-23)
(-0.00187328 4.82001e-05 -1.26581e-23)
(-0.00164588 -5.59658e-05 -1.25814e-23)
(-0.00566594 -0.16422 1.35189e-20)
(-0.02469 0.0266285 3.18477e-21)
(-0.00811595 0.140779 1.19948e-20)
(0.00732407 0.345131 2.32754e-20)
(0.0152682 0.476672 -4.44252e-20)
(0.0228759 0.560145 1.88234e-20)
(0.0186078 0.575317 1.04996e-21)
(-0.00649525 0.513194 -1.37651e-20)
(-0.0547342 0.355561 2.10079e-20)
(-0.0980233 0.170937 4.46912e-21)
(-0.137136 -0.00688495 2.09352e-20)
(-0.179338 -0.173433 1.70154e-20)
(-0.195256 -0.29295 4.63364e-21)
(-0.13456 -0.292993 -1.0668e-20)
(-0.0239205 -0.193203 -1.91042e-21)
(0.0438791 -0.110682 -1.11614e-21)
(0.0591629 -0.0706046 -2.65373e-21)
(0.0587478 -0.0439275 -8.05985e-21)
(0.0541035 -0.0203006 -2.55675e-21)
(0.0447868 -0.0028819 -2.39515e-21)
(0.03364 0.008328 -2.41727e-22)
(0.0225419 0.0138668 -4.32336e-22)
(0.0131767 0.015235 1.15987e-21)
(0.00606985 0.0139399 6.90496e-23)
(0.00134732 0.0112991 4.04825e-22)
(-0.00141205 0.00834901 9.1971e-24)
(-0.00272251 0.00561307 -2.58875e-23)
(-0.00310255 0.00341035 0)
(-0.00296093 0.00177038 5.16204e-23)
(-0.00260124 0.000689545 3.58482e-23)
(-0.00217444 5.84536e-05 -1.96369e-23)
(-0.00181514 -0.000183354 -2.14549e-23)
(-0.0014711 -0.000115892 2.66892e-25)
(-0.0164094 -0.131788 3.3134e-20)
(-0.0295618 0.0348077 1.98213e-20)
(-0.0178315 0.135356 -1.24113e-20)
(-0.00420659 0.348137 2.8877e-20)
(0.00209281 0.479558 -4.16149e-20)
(0.00884692 0.56498 -5.54307e-21)
(0.00957109 0.589322 -1.37429e-20)
(-0.00889294 0.535814 2.08537e-20)
(-0.0498167 0.398721 -1.58399e-20)
(-0.0861603 0.193354 1.98596e-20)
(-0.115035 0.0136364 -2.61175e-25)
(-0.154339 -0.157394 -9.41581e-21)
(-0.185538 -0.303759 -2.28313e-20)
(-0.163013 -0.35576 4.22158e-20)
(-0.061631 -0.273455 2.02002e-21)
(0.036165 -0.156285 -1.05357e-22)
(0.0719456 -0.0924787 7.95687e-21)
(0.0746358 -0.057869 1.73723e-21)
(0.0696146 -0.0291583 1.85071e-25)
(0.059521 -0.00584643 -2.7492e-22)
(0.0454525 0.00973289 3.06467e-22)
(0.0309486 0.0179697 1.45897e-23)
(0.0181686 0.0202907 -1.82374e-21)
(0.00844993 0.018792 1.84964e-21)
(0.00186971 0.0153566 -7.33788e-22)
(-0.00194594 0.0113303 6.72846e-37)
(-0.00373601 0.00764187 1.52973e-23)
(-0.00421003 0.00462634 5.8904e-24)
(-0.00394927 0.00242369 5.08064e-23)
(-0.00335894 0.000937199 -4.56982e-28)
(-0.00270514 6.56734e-05 -7.53236e-23)
(-0.00209343 -0.000340593 -5.83327e-24)
(-0.00161015 -0.000394205 -4.9082e-23)
(-0.00118134 -0.000164965 8.9834e-23)
(-0.0214767 -0.105772 -2.17725e-20)
(-0.0354026 0.036323 -9.38351e-21)
(-0.0281889 0.136197 -2.15384e-21)
(-0.0166719 0.351563 1.20913e-19)
(-0.0103374 0.484041 1.17571e-21)
(-0.00440833 0.56928 3.11214e-20)
(-0.000319186 0.598475 -3.86805e-21)
(-0.00900944 0.556119 2.58252e-20)
(-0.039384 0.427547 1.80588e-20)
(-0.0751469 0.209251 -2.1955e-21)
(-0.0927854 0.0218576 1.76181e-20)
(-0.129971 -0.142209 4.82958e-20)
(-0.163702 -0.30432 -1.58725e-21)
(-0.169357 -0.400593 1.54488e-20)
(-0.0992448 -0.358996 -1.06979e-19)
(0.0160935 -0.223931 -6.57441e-21)
(0.0794094 -0.124316 1.85206e-21)
(0.0924521 -0.0760877 -6.08816e-21)
(0.0884589 -0.0409585 1.66042e-34)
(0.0776673 -0.0107243 4.4563e-21)
(0.0612008 0.0108711 3.5602e-21)
(0.042481 0.0228423 -1.01793e-21)
(0.0254135 0.0269295 -9.50472e-22)
(0.0118881 0.0253879 2.2798e-21)
(0.00272072 0.0208494 5.51324e-22)
(-0.00263689 0.0154483 -5.38108e-24)
(-0.005121 0.0103671 3.11473e-22)
(-0.00574379 0.00627335 5.52032e-23)
(-0.00532815 0.00325294 7.94499e-23)
(-0.00445116 0.00124746 -6.60902e-29)
(-0.00346917 4.18692e-05 -9.15533e-23)
(-0.00258296 -0.000549645 9.20084e-23)
(-0.00184244 -0.000702309 -2.08051e-38)
(-0.00127874 -0.00056732 4.07541e-23)
(-0.000803278 -0.000199602 0)
(-0.0340399 -0.0800213 3.50563e-21)
(-0.0414818 0.0353821 -5.99467e-20)
(-0.039865 0.14524 -1.72988e-20)
(-0.0314211 0.357496 -4.55952e-21)
(-0.0233266 0.488674 4.26636e-20)
(-0.0167933 0.573338 -2.44124e-21)
(-0.0110496 0.604592 -5.17029e-21)
(-0.0120104 0.568482 -1.31942e-20)
(-0.0303086 0.450153 1.42039e-19)
(-0.0630933 0.232281 -4.00177e-20)
(-0.0759711 0.0390337 -7.86389e-20)
(-0.106095 -0.130712 -9.39401e-22)
(-0.141944 -0.299868 -8.3378e-22)
(-0.156388 -0.429182 4.37546e-21)
(-0.121766 -0.436801 5.79825e-21)
(-0.00901226 -0.310975 4.06944e-21)
(0.0792948 -0.17117 -1.2693e-21)
(0.108807 -0.100143 -1.7644e-21)
(0.110195 -0.0571709 -1.73174e-21)
(0.100121 -0.0186867 -1.08332e-21)
(0.0813803 0.0113016 -1.5015e-21)
(0.0580029 0.029082 -4.84123e-21)
(0.0353444 0.0354162 2.02004e-21)
(0.0170584 0.0342219 -5.68618e-23)
(0.00410397 0.0284588 1.43977e-22)
(-0.00349777 0.0210687 -1.05015e-24)
(-0.00700773 0.0141416 5.19417e-23)
(-0.00786378 0.00847722 4.67745e-24)
(-0.00724323 0.00436627 -9.50858e-24)
(-0.00597628 0.00161852 6.27786e-23)
(-0.00456804 -1.23096e-05 -1.37351e-22)
(-0.00328749 -0.000837541 9.49704e-23)
(-0.00224983 -0.00110523 1.07618e-22)
(-0.0014463 -0.000997491 -1.80853e-23)
(-0.000851535 -0.000689268 2.6379e-23)
(-0.000369991 -0.000217367 -2.19882e-23)
(-0.0403314 -0.0469127 8.54927e-21)
(-0.0503843 0.0385264 1.05977e-20)
(-0.0538132 0.162975 -4.41377e-21)
(-0.0491367 0.364574 -1.09492e-20)
(-0.0390147 0.494811 8.03367e-20)
(-0.0297391 0.577259 -1.11448e-20)
(-0.0222941 0.608251 -5.86961e-21)
(-0.0180067 0.574705 6.13164e-22)
(-0.0239757 0.465446 -2.97436e-20)
(-0.0494446 0.257909 -1.19399e-20)
(-0.0637865 0.0442212 1.20217e-19)
(-0.085842 -0.10722 1.75878e-20)
(-0.119432 -0.29955 9.95868e-21)
(-0.138209 -0.442894 -7.28748e-20)
(-0.124315 -0.502682 -4.01023e-20)
(-0.0404715 -0.404361 -3.08367e-21)
(0.0662643 -0.24255 8.87585e-21)
(0.121423 -0.132974 1.84941e-21)
(0.132232 -0.0787595 5.96001e-21)
(0.126974 -0.0322183 4.61439e-21)
(0.107989 0.00912818 -7.24761e-21)
(0.0792131 0.0360617 1.81225e-21)
(0.0490316 0.0473028 -7.75566e-21)
(0.0239219 0.0462858 2.23418e-21)
(0.00629558 0.0388145 -2.94119e-22)
(-0.00449614 0.0289373 -5.2246e-23)
(-0.0095676 0.0193125 -4.70091e-22)
(-0.0107886 0.0115275 -6.5457e-22)
(-0.00990042 0.0058342 -1.35152e-22)
(-0.00809366 0.00210036 1.40359e-22)
(-0.00610129 -0.00012561 -1.97492e-22)
(-0.00429694 -0.00124396 1.58988e-22)
(-0.00283576 -0.00162714 -2.53631e-27)
(-0.00173866 -0.00155607 9.44988e-23)
(-0.000941364 -0.00120333 4.57598e-37)
(-0.000366181 -0.000751281 -7.28588e-23)
(8.17276e-05 -0.000216952 1.25969e-28)
(-0.0549163 -0.0304006 1.0019e-19)
(-0.0711538 0.0521193 7.21499e-21)
(-0.0757366 0.194536 -8.01335e-21)
(-0.0705189 0.373942 1.68447e-23)
(-0.0564748 0.500673 -3.47307e-21)
(-0.0461645 0.581351 -4.71782e-21)
(-0.0336971 0.611461 -2.87167e-20)
(-0.026326 0.57616 6.63974e-20)
(-0.0209719 0.471997 -1.44498e-19)
(-0.0349349 0.274382 6.97214e-20)
(-0.0518493 0.0366265 7.58357e-20)
(-0.0702347 -0.0811159 1.49572e-20)
(-0.09785 -0.290073 -4.01128e-20)
(-0.115097 -0.462088 -8.63127e-22)
(-0.114017 -0.540214 3.26286e-20)
(-0.0632972 -0.497169 -4.93715e-21)
(0.0473375 -0.322604 -5.76816e-21)
(0.124518 -0.178962 -3.87643e-20)
(0.150771 -0.106918 -1.13522e-20)
(0.154339 -0.0522366 1.60455e-21)
(0.141027 0.000354781 1.25173e-21)
(0.109932 0.0414983 7.22706e-21)
(0.0700672 0.0615739 -2.86766e-21)
(0.0339785 0.0633922 4.8412e-21)
(0.00874649 0.0535887 5.53553e-22)
(-0.00587681 0.0398188 7.50762e-35)
(-0.0129918 0.0265879 -1.01181e-22)
(-0.0148283 0.0156949 -5.36785e-23)
(-0.0135815 0.00785419 -3.64129e-24)
(-0.0110322 0.00269637 -1.82615e-22)
(-0.00822356 -0.000308249 1.03133e-22)
(-0.0057027 -0.00182124 2.52248e-22)
(-0.00367043 -0.00234292 2.80159e-27)
(-0.00215878 -0.00226278 -4.47879e-23)
(-0.00109645 -0.00186744 -6.10961e-23)
(-0.000371804 -0.00130511 5.98425e-23)
(0.000135883 -0.000749566 -1.08323e-23)
(0.000513925 -0.000198323 3.80017e-23)
(-0.0815555 0.00177342 1.1846e-21)
(-0.104166 0.114911 -1.60868e-21)
(-0.110417 0.240383 -2.71334e-20)
(-0.10122 0.386125 -6.29055e-21)
(-0.0777638 0.507925 -1.09793e-20)
(-0.0620334 0.584612 -6.59759e-21)
(-0.0488937 0.611175 -2.47192e-20)
(-0.0332861 0.574533 -4.61791e-20)
(-0.0206935 0.470589 -2.15198e-20)
(-0.0215897 0.282664 -4.77335e-20)
(-0.0400162 0.0381104 -1.84119e-20)
(-0.0564004 -0.061527 -1.93197e-20)
(-0.0800409 -0.281166 -3.14085e-20)
(-0.0876387 -0.461823 -2.35714e-21)
(-0.098475 -0.582508 1.19245e-20)
(-0.0653485 -0.564079 5.92068e-20)
(0.0203276 -0.414105 3.32832e-20)
(0.118508 -0.237314 5.7771e-21)
(0.161619 -0.136262 1.35818e-21)
(0.174595 -0.0764856 -1.83213e-21)
(0.173046 -0.0135696 -1.98045e-35)
(0.147789 0.040731 -8.03352e-22)
(0.103767 0.0759507 -5.28144e-21)
(0.0532307 0.0849838 -1.05105e-20)
(0.0134838 0.0745935 1.15123e-21)
(-0.00865905 0.0556092 3.97226e-22)
(-0.0179906 0.0367617 3.1276e-21)
(-0.0204003 0.0215683 8.05122e-22)
(-0.0186985 0.0105703 -1.39895e-22)
(-0.0150996 0.00349646 -1.96731e-22)
(-0.0111625 -0.000624927 1.22484e-22)
(-0.0076377 -0.00263558 3.75308e-23)
(-0.00482942 -0.00332218 -1.46224e-22)
(-0.00275168 -0.00321976 -1.27084e-22)
(-0.00131907 -0.00269583 0)
(-0.000379285 -0.0020174 1.08538e-22)
(0.000214179 -0.00129672 -2.32426e-22)
(0.00061257 -0.000685436 7.53435e-23)
(0.000890672 -0.000162864 4.6826e-23)
(-0.124091 0.0460707 8.82573e-22)
(-0.147447 0.175479 2.54697e-20)
(-0.146703 0.271465 3.35374e-20)
(-0.134319 0.397242 -1.37998e-25)
(-0.105933 0.512253 -4.28509e-21)
(-0.0797635 0.587466 -1.76076e-20)
(-0.0613756 0.606769 1.82714e-20)
(-0.0390891 0.564973 -6.99337e-20)
(-0.0238075 0.458884 2.93246e-20)
(-0.00882241 0.283659 -2.82807e-20)
(-0.0268911 0.0414482 -2.36358e-21)
(-0.0424347 -0.0495464 -3.43626e-20)
(-0.0587179 -0.278703 -3.26494e-20)
(-0.0673636 -0.459677 -2.70787e-20)
(-0.0726848 -0.592981 -4.7052e-21)
(-0.0648567 -0.62624 -1.54922e-21)
(0.0040164 -0.507504 -6.13198e-20)
(0.101936 -0.303212 -3.11533e-20)
(0.163056 -0.17293 1.49963e-21)
(0.185353 -0.097964 4.86612e-20)
(0.193117 -0.0283727 2.05521e-21)
(0.180506 0.0405148 -1.68571e-20)
(0.142003 0.0872718 -2.53967e-20)
(0.0865899 0.109059 2.11656e-20)
(0.0282015 0.102379 -8.46693e-22)
(-0.0105393 0.0779032 -1.29518e-22)
(-0.0259478 0.0514479 -4.98452e-22)
(-0.0284996 0.0298043 3.26269e-35)
(-0.0258431 0.0143873 -1.2412e-22)
(-0.0207588 0.00448765 -8.10132e-22)
(-0.0152102 -0.00109389 -8.74176e-22)
(-0.0103068 -0.00380999 8.4974e-22)