/*--------------------------------*- C++ -*----------------------------------*\
| =========                 |                                                 |
| \\      /  F ield         | OpenFOAM: The Open Source CFD Toolbox           |
|  \\    /   O peration     | Version:  2506                                  |
|   \\  /    A nd           | Website:  www.openfoam.com                      |
|    \\/     M anipulation  |                                                 |
\*---------------------------------------------------------------------------*/
FoamFile
{
    version     2.0;
    format      ascii;
    arch        "LSB;label=32;scalar=64";
    class       volVectorField;
    location    "39";
    object      U;
}
// * * * * * * * * * * * * * * * * * * * * * * * * * * * * * * * * * * * * * //

dimensions      [0 1 -1 0 0 0 0];

internalField   nonuniform List<vector> 
400
(
(0.00164998 -0.00165705 0)
(0.00473711 -0.0018586 0)
(0.00643402 -0.00118163 0)
(0.00550281 -0.000562096 0)
(0.00142019 0.000195573 0)
(-0.00690661 0.00173598 0)
(-0.0205381 0.00473158 0)
(-0.039259 0.00861706 0)
(-0.060317 0.0111595 0)
(-0.0785292 0.0104318 0)
(-0.0892202 0.00676374 0)
(-0.0899916 0.00171235 0)
(-0.079964 -0.00353217 0)
(-0.0599729 -0.00817472 0)
(-0.0337337 -0.0107571 0)
(-0.00567752 -0.00974581 0)
(0.0162751 -0.0048154 0)
(0.0241048 0.00269582 0)
(0.0160111 0.00638981 0)
(0.00428769 0.00467366 0)
(0.00166369 -0.00494811 0)
(0.0030075 -0.00390805 0)
(-0.000614673 0.000637807 0)
(-0.0114578 0.00641472 0)
(-0.0313481 0.0139249 0)
(-0.0607318 0.0235093 0)
(-0.0960535 0.0326819 0)
(-0.130386 0.0367238 0)
(-0.157754 0.033272 0)
(-0.174869 0.0233241 0)
(-0.180305 0.00919471 0)
(-0.17409 -0.00677209 0)
(-0.1568 -0.0228534 0)
(-0.129149 -0.0365529 0)
(-0.0933869 -0.0442362 0)
(-0.0522395 -0.0416291 0)
(-0.0116479 -0.0263357 0)
(0.0165454 -0.00147665 0)
(0.017666 0.0159888 0)
(0.00550497 0.0146795 0)
(-0.000290183 -0.00556389 0)
(-0.00546982 0.000982299 0)
(-0.0196198 0.0142627 0)
(-0.044265 0.0309475 0)
(-0.0796924 0.0489146 0)
(-0.121116 0.063641 0)
(-0.160921 0.0698796 0)
(-0.193626 0.0655132 0)
(-0.217104 0.0518989 0)
(-0.230753 0.0314931 0)
(-0.234575 0.00662402 0)
(-0.229215 -0.0206824 0)
(-0.214981 -0.0482694 0)
(-0.191371 -0.072539 0)
(-0.158111 -0.0883712 0)
(-0.115169 -0.0887449 0)
(-0.064343 -0.0668534 0)
(-0.0139344 -0.0228969 0)
(0.00936341 0.0175572 0)
(0.00415106 0.0233579 0)
(-0.00346528 0.000693144 0)
(-0.0174171 0.0173143 0)
(-0.0431831 0.0411759 0)
(-0.0789474 0.0674884 0)
(-0.12175 0.0902059 0)
(-0.164249 0.102846 0)
(-0.200054 0.102037 0)
(-0.227202 0.0890429 0)
(-0.24594 0.0669856 0)
(-0.256868 0.0385547 0)
(-0.260818 0.00561757 0)
(-0.258588 -0.0305046 0)
(-0.250113 -0.0675961 0)
(-0.234347 -0.102729 0)
(-0.209295 -0.130457 0)
(-0.172261 -0.142001 0)
(-0.120707 -0.125211 0)
(-0.0566073 -0.0708073 0)
(-0.00106923 0.00318693 0)
(0.00473618 0.0279683 0)
(-0.00659919 0.0149067 0)
(-0.0284361 0.0439076 0)
(-0.062621 0.0763715 0)
(-0.103328 0.107788 0)
(-0.145712 0.129899 0)
(-0.182708 0.136947 0)
(-0.210847 0.128468 0)
(-0.230486 0.107998 0)
(-0.242909 0.0793824 0)
(-0.249837 0.0454 0)
(-0.252964 0.00758209 0)
(-0.253225 -0.033281 0)
(-0.250401 -0.0760566 0)
(-0.243915 -0.119439 0)
(-0.23096 -0.159484 0)
(-0.206912 -0.187758 0)
(-0.165748 -0.188957 0)
(-0.102818 -0.142333 0)
(-0.0221382 -0.0390238 0)
(0.00731073 0.0267933 0)
(-0.00840133 0.034748 0)
(-0.034741 0.0760659 0)
(-0.0722123 0.113816 0)
(-0.111933 0.146188 0)
(-0.148838 0.16443 0)
(-0.177475 0.164508 0)
(-0.196833 0.148558 0)
(-0.208431 0.121614 0)
(-0.214248 0.0880184 0)
(-0.216772 0.0507585 0)
(-0.218 0.0112954 0)
(-0.218959 -0.0299767 0)
(-0.219853 -0.0735567 0)
(-0.220754 -0.119857 0)
(-0.219449 -0.167677 0)
(-0.21082 -0.211527 0)
(-0.186781 -0.237204 0)
(-0.138774 -0.217472 0)
(-0.0623943 -0.118477 0)
(0.00573164 0.0139835 0)
(-0.00816678 0.0565748 0)
(-0.0348501 0.109048 0)
(-0.0708953 0.148979 0)
(-0.105738 0.17935 0)
(-0.13509 0.19203 0)
(-0.155312 0.184829 0)
(-0.167048 0.161942 0)
(-0.172389 0.129479 0)
(-0.173748 0.0922205 0)
(-0.173655 0.0531956 0)
(-0.173669 0.013643 0)
(-0.174495 -0.0264194 0)
(-0.176689 -0.0681814 0)
(-0.180776 -0.112989 0)
(-0.186072 -0.161991 0)
(-0.188889 -0.214025 0)
(-0.181294 -0.260047 0)
(-0.153299 -0.273781 0)
(-0.0986603 -0.204917 0)
(-0.00885765 -0.0147364 0)
(-0.00602785 0.0768592 0)
(-0.0293398 0.13923 0)
(-0.0605665 0.179381 0)
(-0.0887057 0.206228 0)
(-0.110488 0.21286 0)
(-0.123855 0.198754 0)
(-0.130343 0.169792 0)
(-0.132244 0.132936 0)
(-0.132028 0.0932118 0)
(-0.131688 0.0533675 0)
(-0.131956 0.0141318 0)
(-0.133036 -0.0249049 0)
(-0.135399 -0.0648363 0)
(-0.139738 -0.106975 0)
(-0.146641 -0.15337 0)
(-0.154734 -0.206395 0)
(-0.157952 -0.264007 0)
(-0.145906 -0.3065 0)
(-0.111573 -0.275862 0)
(-0.0306892 -0.0749368 0)
(-0.00266654 0.0926044 0)
(-0.0200736 0.163997 0)
(-0.0444733 0.203493 0)
(-0.0654071 0.226263 0)
(-0.080494 0.227304 0)
(-0.0888285 0.207539 0)
(-0.0922553 0.174028 0)
(-0.0929097 0.134263 0)
(-0.092914 0.0933043 0)
(-0.0934858 0.0534361 0)
(-0.0947032 0.0147534 0)
(-0.0964773 -0.0235804 0)
(-0.0989902 -0.0624257 0)
(-0.102757 -0.102566 0)
(-0.108928 -0.145729 0)
(-0.118212 -0.19593 0)
(-0.127363 -0.257559 0)
(-0.12587 -0.321606 0)
(-0.106951 -0.333088 0)
(-0.0371041 -0.162276 0)
(0.00121841 0.101561 0)
(-0.00875826 0.181586 0)
(-0.0252218 0.220834 0)
(-0.0390364 0.24026 0)
(-0.0483834 0.237112 0)
(-0.0531291 0.213346 0)
(-0.0549251 0.1768 0)
(-0.0554272 0.135351 0)
(-0.0561806 0.0939947 0)
(-0.0577653 0.0544868 0)
(-0.0599621 0.0163563 0)
(-0.0626179 -0.0215193 0)
(-0.065731 -0.0598692 0)
(-0.0694992 -0.0990088 0)
(-0.0748763 -0.139746 0)
(-0.083458 -0.185866 0)
(-0.0952833 -0.24575 0)
(-0.100237 -0.322295 0)
(-0.0948493 -0.370454 0)
(-0.0308081 -0.241112 0)
(0.00503935 0.102664 0)
(0.00294987 0.191028 0)
(-0.00526865 0.231186 0)
(-0.0122812 0.248164 0)
(-0.0165945 0.242166 0)
(-0.0184026 0.216145 0)
(-0.0189839 0.178277 0)
(-0.0193899 0.136441 0)
(-0.0205819 0.095392 0)
(-0.0227476 0.0565013 0)
(-0.0255879 0.0190165 0)
(-0.0290249 -0.0182812 0)
(-0.033076 -0.0561565 0)
(-0.0377068 -0.0947608 0)
(-0.0434845 -0.134122 0)
(-0.0517018 -0.176807 0)
(-0.065247 -0.232702 0)
(-0.0740498 -0.315869 0)
(-0.0810528 -0.394854 0)
(-0.0228967 -0.305498 0)
(0.00828976 0.0962689 0)
(0.0140013 0.191975 0)
(0.0138994 0.234654 0)
(0.0135178 0.250888 0)
(0.0141474 0.243879 0)
(0.0153579 0.217354 0)
(0.0162423 0.179496 0)
(0.0163214 0.138028 0)
(0.0151887 0.0975027 0)
(0.0128971 0.059225 0)
(0.00973174 0.0224699 0)
(0.00567006 -0.0139744 0)
(0.000565456 -0.0509867 0)
(-0.00546638 -0.0887596 0)
(-0.012831 -0.126996 0)
(-0.0217653 -0.166847 0)
(-0.0375632 -0.21754 0)
(-0.0488384 -0.302143 0)
(-0.0679425 -0.406649 0)
(-0.014482 -0.35837 0)
(0.0100866 0.083525 0)
(0.0229899 0.184471 0)
(0.0305572 0.230816 0)
(0.0364109 0.247453 0)
(0.0420049 0.240667 0)
(0.0469013 0.215064 0)
(0.0502811 0.178512 0)
(0.051889 0.138375 0)
(0.0516737 0.0990244 0)
(0.0498579 0.0618303 0)
(0.046706 0.026254 0)
(0.0421419 -0.00884922 0)
(0.0359823 -0.044432 0)
(0.0283158 -0.0807661 0)
(0.0183789 -0.11753 0)
(0.00722267 -0.155051 0)
(-0.0120645 -0.201177 0)
(-0.0246185 -0.284094 0)
(-0.0560357 -0.409229 0)
(-0.00620509 -0.400327 0)
(0.00961972 0.0666424 0)
(0.0284387 0.16891 0)
(0.0435495 0.219888 0)
(0.0559195 0.238739 0)
(0.0670613 0.233829 0)
(0.0766114 0.210634 0)
(0.0836977 0.176564 0)
(0.0880087 0.138509 0)
(0.0896238 0.100754 0)
(0.0888674 0.0648884 0)
(0.0860803 0.0307495 0)
(0.0810862 -0.00269937 0)
(0.0737064 -0.0361391 0)
(0.0641999 -0.0701964 0)
(0.0512473 -0.1047 0)
(0.0366006 -0.139601 0)
(0.012456 -0.181135 0)
(-0.000538528 -0.260943 0)
(-0.0451182 -0.405087 0)
(0.00265384 -0.434924 0)
(0.00674081 0.0492229 0)
(0.0287035 0.147582 0)
(0.0501086 0.20157 0)
(0.068721 0.222181 0)
(0.0859659 0.219303 0)
(0.101448 0.1993 0)
(0.113913 0.168942 0)
(0.122672 0.134353 0)
(0.127644 0.0995474 0)
(0.129106 0.0662373 0)
(0.12734 0.0346485 0)
(0.122439 0.00395424 0)
(0.113906 -0.0262623 0)
(0.102387 -0.0568666 0)
(0.0856654 -0.0879389 0)
(0.0668448 -0.120131 0)
(0.0372158 -0.158014 0)
(0.0231137 -0.235039 0)
(-0.0348465 -0.397543 0)
(0.0133065 -0.463397 0)
(0.00231429 0.0347936 0)
(0.0230636 0.12302 0)
(0.0499014 0.178297 0)
(0.0752515 0.200911 0)
(0.0995856 0.200516 0)
(0.122164 0.184226 0)
(0.141333 0.158383 0)
(0.155877 0.128237 0)
(0.165385 0.0974022 0)
(0.17009 0.0675845 0)
(0.16996 0.039361 0)
(0.165727 0.0122993 0)
(0.156024 -0.0139809 0)
(0.14252 -0.0402353 0)
(0.121625 -0.0668025 0)
(0.0985166 -0.0952521 0)
(0.0631871 -0.130324 0)
(0.0461837 -0.205749 0)
(-0.0231922 -0.386105 0)
(0.0282925 -0.484882 0)
(-0.00337941 0.0290346 0)
(0.00966015 0.10114 0)
(0.0361637 0.147503 0)
(0.067571 0.167843 0)
(0.100048 0.168938 0)
(0.131377 0.15672 0)
(0.159012 0.136469 0)
(0.181227 0.112325 0)
(0.196999 0.0873558 0)
(0.206694 0.0630866 0)
(0.209508 0.04026 0)
(0.207205 0.0187204 0)
(0.197095 -0.00189421 0)
(0.182702 -0.0221229 0)
(0.158317 -0.0424519 0)
(0.132194 -0.0659934 0)
(0.0912991 -0.0998753 0)
(0.0690529 -0.178632 0)
(-0.00483535 -0.369435 0)
(0.051929 -0.4913 0)
(-0.0137269 0.0189304 0)
(-0.00749378 0.0882327 0)
(0.0186304 0.123608 0)
(0.0553106 0.136304 0)
(0.0959115 0.135701 0)
(0.135771 0.126509 0)
(0.171554 0.111958 0)
(0.200977 0.0943582 0)
(0.222555 0.0761229 0)
(0.237382 0.0582426 0)
(0.243319 0.041686 0)
(0.244205 0.0262996 0)
(0.235067 0.0122723 0)
(0.223479 -0.00126879 0)
(0.198962 -0.0150721 0)
(0.175565 -0.0338972 0)
(0.131896 -0.066658 0)
(0.106974 -0.145321 0)
(0.0370768 -0.326023 0)
(0.0922096 -0.455823 0)
(-0.105823 0.0827084 0)
(-0.0776002 0.0692151 0)
(-0.048658 0.0731415 0)
(0.0032545 0.0773878 0)
(0.056249 0.0775752 0)
(0.108457 0.0732779 0)
(0.155152 0.0659972 0)
(0.197077 0.0566952 0)
(0.228885 0.0471675 0)
(0.256795 0.0376692 0)
(0.272457 0.0291861 0)
(0.287614 0.0213626 0)
(0.288161 0.0147716 0)
(0.292524 0.00850344 0)
(0.2767 0.00165455 0)
(0.269956 -0.00948418 0)
(0.231135 -0.0350968 0)
(0.217593 -0.0952015 0)
(0.150093 -0.229716 0)
(0.170651 -0.341497 0)
(0.13008 0.103826 0)
(0.158558 0.0754467 0)
(0.212541 0.0534701 0)
(0.271024 0.0418092 0)
(0.323424 0.0360289 0)
(0.375577 0.0320047 0)
(0.419859 0.0289406 0)
(0.464861 0.0255921 0)
(0.497709 0.0229215 0)
(0.532774 0.0197428 0)
(0.552128 0.0176037 0)
(0.57794 0.014686 0)
(0.584175 0.0132672 0)
(0.602689 0.0104664 0)
(0.594361 0.00951972 0)
(0.603144 0.0051226 0)
(0.567621 0.000191704 0)
(0.547734 -0.0182511 0)
(0.435964 -0.0504062 0)
(0.336889 -0.101407 0)
)
;

boundaryField
{
    movingWall
    {
        type            fixedValue;
        value           uniform (1 0 0);
    }
    fixedWalls
    {
        type            noSlip;
    }
    frontAndBack
    {
        type            empty;
    }
}


// ************************************************************************* //
