/*--------------------------------*- C++ -*----------------------------------*\
| =========                 |                                                 |
| \\      /  F ield         | OpenFOAM: The Open Source CFD Toolbox           |
|  \\    /   O peration     | Version:  2506                                  |
|   \\  /    A nd           | Website:  www.openfoam.com                      |
|    \\/     M anipulation  |                                                 |
\*---------------------------------------------------------------------------*/
FoamFile
{
    version     2.0;
    format      ascii;
    arch        "LSB;label=32;scalar=64";
    class       volScalarField;
    location    "300";
    object      div(phi);
}
// * * * * * * * * * * * * * * * * * * * * * * * * * * * * * * * * * * * * * //

dimensions      [0 0 -1 0 0 0 0];

internalField   nonuniform List<scalar> 
1340
(
-1.03023e-06
-1.39252e-06
-7.44035e-07
-1.73237e-06
2.32234e-07
-1.08013e-06
-8.49076e-07
-1.15527e-06
-6.02434e-07
-1.24266e-06
1.59523e-07
-8.85746e-07
-1.09447e-06
-7.89143e-07
-8.34663e-07
-1.03812e-07
-1.04283e-06
1.74403e-07
-6.91481e-07
-4.43945e-07
-6.66427e-07
-3.09428e-07
-8.30985e-07
-7.60407e-09
-7.05018e-07
3.18274e-07
-3.03005e-07
-6.14996e-07
-3.74445e-07
-5.01818e-07
6.72318e-08
-6.56882e-07
2.7723e-08
-4.46974e-07
1.15074e-07
-4.90379e-07
-1.14267e-07
-3.17439e-07
-1.24057e-07
-5.8438e-07
1.19099e-07
-4.45855e-07
4.1621e-08
-3.06021e-07
-1.88651e-07
-2.30619e-08
-2.99607e-07
-1.67898e-07
-2.83717e-07
1.49059e-07
-4.6852e-07
9.29813e-08
-2.92827e-07
-2.28798e-08
-1.55145e-07
-1.56766e-07
4.01503e-08
-1.46113e-07
-2.56723e-08
-4.19027e-07
1.35049e-07
-3.29068e-07
6.2873e-08
-1.76267e-07
-8.12007e-08
-1.63575e-07
5.47563e-08
-2.01391e-07
-6.20035e-08
-1.69673e-07
1.63122e-07
-3.4567e-07
1.03526e-07
-2.32829e-07
4.12728e-08
-7.72231e-08
-7.87655e-08
-1.74479e-07
7.07959e-08
-7.13614e-08
6.86275e-10
-3.06926e-07
1.44973e-07
-2.66165e-07
9.08277e-08
-1.45386e-07
-9.69738e-09
-9.35992e-08
1.01691e-07
7.65724e-08
-1.14306e-07
-3.32793e-08
-1.04164e-07
1.51632e-07
-2.7098e-07
9.51202e-08
-2.05701e-07
6.21829e-08
-7.40103e-08
6.39196e-09
-1.60468e-07
-4.98671e-08
8.33674e-08
-3.84258e-08
1.14937e-08
-2.40758e-07
1.13654e-07
-2.2504e-07
7.27279e-08
-1.32349e-07
-1.11796e-08
-6.08213e-08
1.14825e-07
7.64369e-08
-1.00052e-07
-1.10746e-08
-7.46473e-08
1.26351e-07
-2.20811e-07
8.05638e-08
-1.85947e-07
5.20563e-08
-5.63844e-08
8.44592e-10
-1.46329e-07
2.89347e-08
-7.81212e-08
7.22045e-08
-2.36532e-08
5.40657e-09
-1.91888e-07
1.00352e-07
-1.96601e-07
6.49502e-08
-1.26377e-07
3.13669e-09
-3.4175e-08
2.94707e-09
-5.41143e-08
7.6733e-08
-6.28761e-08
-9.44252e-09
-5.03425e-08
1.03539e-07
-1.84739e-07
6.08483e-08
-1.72078e-07
4.38942e-08
-4.2431e-08
-4.50419e-09
-7.47233e-08
-7.49095e-08
-1.29969e-08
-1.40454e-08
7.84434e-08
-1.36252e-08
6.46288e-09
-1.57689e-07
7.26058e-08
-1.72602e-07
4.42909e-08
-1.17041e-07
6.14287e-09
-2.23733e-08
1.29992e-08
-3.4345e-08
-6.81313e-08
9.14765e-08
-5.97697e-08
4.1219e-09
-3.76021e-08
8.39768e-08
-1.55804e-07
4.87992e-08
-1.5779e-07
4.1971e-08
-3.02447e-08
-2.25667e-09
-7.63373e-08
-4.74366e-08
1.53309e-08
-2.61863e-08
7.50373e-08
-1.3947e-08
1.07029e-09
-1.28017e-07
6.32505e-08
-1.52708e-07
4.05977e-08
-1.08252e-07
8.50422e-09
-2.49142e-08
1.5928e-08
-1.3591e-08
-1.02503e-07
1.8185e-07
1.79586e-07
-6.40392e-08
-8.31169e-09
-2.98574e-08
6.74874e-08
-1.32152e-07
3.61505e-08
-1.43674e-07
3.34075e-08
-3.27053e-08
-4.32224e-09
-7.40756e-08
-7.52508e-08
1.21116e-07
-1.47759e-07
-8.57205e-08
3.89985e-08
-3.55775e-08
-4.21901e-09
-1.06995e-07
4.61118e-08
-1.33777e-07
2.82005e-08
-1.02297e-07
1.99529e-09
-3.24375e-08
1.05486e-08
6.18722e-09
-1.32334e-07
2.72928e-07
2.02814e-07
-7.62768e-08
-4.4427e-08
-3.29389e-08
5.38933e-08
-1.12453e-07
3.07942e-08
-1.2973e-07
3.04769e-08
-3.60044e-08
-2.05605e-09
-7.60578e-08
-7.89047e-08
5.88065e-08
1.43025e-08
2.77856e-07
-1.34176e-07
-1.29892e-08
-2.09258e-08
-6.20155e-09
-8.79276e-08
4.15592e-08
-1.17588e-07
2.75652e-08
-9.55692e-08
1.46042e-09
-3.31303e-08
5.94347e-09
-2.2481e-08
-1.02119e-08
2.82192e-08
2.69038e-07
-9.28892e-08
-3.07451e-08
-2.37342e-08
4.42671e-08
-9.58185e-08
2.37868e-08
-1.16252e-07
2.28892e-08
-3.43587e-08
-5.98292e-09
-7.3946e-08
-6.98906e-08
6.5433e-08
7.83195e-08
-5.65207e-09
2.24341e-07
-2.29883e-08
-1.77144e-08
-3.6346e-09
-7.3728e-08
3.16018e-08
-1.02413e-07
1.98404e-08
-8.69026e-08
-2.36679e-09
-3.06055e-08
5.9646e-09
-1.08682e-08
-2.90497e-08
9.25288e-08
4.33604e-08
-8.50217e-08
-5.74226e-08
-1.78961e-08
-1.73125e-08
3.82718e-08
-8.17357e-08
2.19553e-08
-1.03528e-07
2.27813e-08
-3.0065e-08
-2.08734e-10
-7.44422e-08
-5.02194e-08
5.29954e-08
1.10577e-07
-1.06574e-07
1.63719e-07
-1.4231e-08
-5.68133e-09
-4.55641e-10
-6.00608e-08
3.00438e-08
-8.95678e-08
2.10248e-08
-7.82745e-08
2.43418e-09
-2.95849e-08
9.82064e-09
-1.66738e-08
7.50526e-08
-1.02733e-08
1.01423e-07
-1.6743e-07
1.86981e-07
-2.7226e-08
-1.09455e-08
-1.03383e-08
3.31013e-08
-6.9578e-08
1.80012e-08
-9.1778e-08
1.98362e-08
-2.65809e-08
-1.42108e-09
-7.52523e-08
9.3198e-09
4.4484e-08
1.31373e-07
-4.02733e-08
1.70929e-08
-1.24254e-07
-9.00698e-09
-4.8518e-09
1.31382e-09
-5.05049e-08
2.40726e-08
-7.75868e-08
1.6614e-08
-6.97782e-08
1.27382e-09
-2.92097e-08
1.16843e-08
1.02595e-08
6.08215e-08
4.03749e-08
2.16223e-08
-1.45028e-07
1.63864e-07
-2.72934e-08
-5.25907e-09
-7.34392e-09
2.95914e-08
-5.92689e-08
1.77684e-08
-8.09329e-08
2.08954e-08
-2.33431e-08
-1.58568e-09
-6.52347e-08
-4.97346e-09
7.58269e-08
3.7213e-08
-4.3153e-08
-7.30801e-09
-1.79503e-07
2.00745e-07
-5.16203e-09
1.30601e-09
2.60578e-09
-4.13743e-08
2.36376e-08
-6.73571e-08
1.82073e-08
-6.20376e-08
3.41513e-09
-2.83254e-08
9.36252e-09
1.04883e-08
3.11047e-08
3.23453e-08
-1.83847e-08
-9.94696e-08
-4.85199e-09
-8.6281e-08
-1.16309e-08
-3.06332e-09
-3.89183e-09
2.59356e-08
-5.02963e-08
1.53555e-08
-7.08866e-08
1.80566e-08
-2.11287e-08
-3.24375e-09
-6.097e-08
-1.08707e-08
5.45161e-08
2.14605e-08
-6.63295e-08
-1.57613e-08
-2.1198e-07
1.61401e-07
-2.95411e-09
-1.69151e-10
3.05739e-09
-3.50286e-08
1.96505e-08
-5.7848e-08
1.5123e-08
-5.48337e-08
1.81328e-09
-2.60494e-08
6.2998e-09
1.86851e-09
1.42112e-08
1.22256e-08
-2.85731e-08
-1.63248e-07
-1.32985e-08
-1.71602e-07
1.59907e-07
-1.46602e-08
-8.44836e-10
-2.83988e-09
2.34042e-08
-4.27069e-08
1.5582e-08
-6.18042e-08
1.84679e-08
-1.84729e-08
-2.05318e-09
-5.7026e-08
-1.53045e-08
3.71257e-08
6.50197e-09
-6.56751e-08
-5.13058e-08
-1.62226e-07
1.79027e-08
-1.08527e-07
-2.08493e-09
2.91997e-09
3.37815e-09
-2.88019e-08
1.94377e-08
-4.98039e-08
1.63909e-08
-4.82227e-08
3.34376e-09
-2.32432e-08
5.34506e-09
-1.18467e-09
1.01792e-08
1.25898e-08
-1.66228e-08
-1.54301e-07
5.20391e-09
-2.11097e-07
2.06546e-07
-5.76385e-09
-4.17641e-10
-1.09885e-09
2.05452e-08
-3.6092e-08
1.38207e-08
-5.35718e-08
1.6045e-08
-1.6328e-08
-2.4144e-09
-5.11412e-08
-1.25817e-08
3.86059e-08
1.49743e-08
-4.28372e-08
-2.11035e-08
-2.00855e-07
3.63549e-08
-1.52764e-07
1.59414e-07
-1.4887e-09
1.08588e-09
3.34431e-09
-2.44465e-08
1.64756e-08
-4.24773e-08
1.39874e-08
-4.21291e-08
2.33382e-09
-2.041e-08
6.03192e-09
2.34063e-09
1.54799e-08
2.28172e-08
6.59749e-10
-1.1931e-07
-2.40322e-09
-1.34875e-07
3.21146e-08
-7.57875e-08
-8.84632e-09
5.29024e-10
-8.20346e-10
1.85727e-08
-3.05566e-08
1.3939e-08
-4.63327e-08
1.63308e-08
-1.38041e-08
-5.48893e-10
-4.37476e-08
-8.23295e-09
4.11052e-08
2.19928e-08
-2.70156e-08
3.25647e-09
-1.80945e-07
4.06053e-08
-1.56384e-07
1.72693e-08
-1.51817e-09
2.83824e-09
3.31834e-09
-2.01358e-08
1.6165e-08
-3.63901e-08
1.48062e-08
-3.66031e-08
3.91891e-09
-1.70955e-08
7.7347e-09
6.0071e-09
1.82998e-08
2.64955e-08
1.13377e-08
-9.55496e-08
1.73394e-08
-1.62918e-07
-1.98279e-08
-1.04322e-07
4.21103e-08
-3.27773e-09
4.43971e-10
9.08481e-11
1.62645e-08
-2.57906e-08
1.23733e-08
-3.98809e-08
1.44147e-08
-1.15859e-08
2.52829e-10
-3.69441e-08
-4.70744e-09
4.03521e-08
2.38754e-08
-1.94153e-08
1.21885e-08
-1.51146e-07
2.13483e-08
-1.09856e-07
3.84613e-08
-6.02396e-08
-1.22457e-09
1.31074e-09
3.10896e-09
-1.71698e-08
1.36758e-08
-3.09216e-08
1.27012e-08
-3.15525e-08
3.55184e-09
-1.40485e-08
9.44069e-09
8.34429e-09
1.82116e-08
2.57927e-08
1.62332e-08
-8.13526e-08
1.9481e-08
-1.42365e-07
2.74123e-08
-2.31022e-08
9.87218e-09
-5.60776e-09
8.85672e-10
1.2514e-11
1.45299e-08
-2.18308e-08
1.2089e-08
-3.42482e-08
1.45388e-08
-9.21034e-09
2.50537e-09
-3.04475e-08
-2.38155e-09
3.7713e-08
2.37953e-08
-1.61255e-08
1.31583e-08
-1.20579e-07
2.43048e-08
1.95007e-08
3.63489e-09
8.34497e-08
-1.35504e-09
2.34227e-09
2.8712e-09
-1.41946e-08
1.30812e-08
-2.63671e-08
1.30294e-08
-2.70191e-08
4.96411e-09
-1.10711e-08
1.08306e-08
1.03182e-08
1.72599e-08
2.18547e-08
1.71405e-08
-6.7637e-08
1.65387e-08
6.64112e-09
2.98066e-08
4.61262e-08
-2.20162e-08
4.18415e-08
-1.9737e-09
6.03926e-10
4.46121e-10
1.25366e-08
-1.83852e-08
1.05803e-08
-2.92038e-08
1.28846e-08
-7.37383e-09
3.21707e-09
-2.4576e-08
-1.07347e-09
3.21067e-08
2.05639e-08
-1.73215e-08
6.13853e-09
-3.09326e-09
2.79955e-08
-2.73868e-08
1.93719e-08
-8.06834e-08
3.32294e-08
-1.15156e-09
1.14429e-09
2.55463e-09
-1.21001e-08
1.08945e-08
-2.22269e-08
1.11138e-08
-2.29815e-08
4.51629e-09
-8.55921e-09
1.14844e-08
9.74315e-09
1.26118e-08
1.60467e-08
6.89368e-09
9.58267e-09
3.64322e-09
-4.02727e-08
7.93346e-09
-1.12789e-07
1.47948e-08
-7.37027e-08
-3.66962e-09
7.84941e-10
2.15042e-10
1.09697e-08
-1.54447e-08
1.0013e-08
-2.47803e-08
1.26185e-08
-5.64622e-09
4.59663e-09
-1.99805e-08
-1.43769e-09
2.57136e-08
9.40553e-09
7.12148e-09
-4.31045e-09
-3.69254e-08
7.89687e-09
-1.46652e-07
1.94073e-08
-1.2249e-07
9.55056e-08
-1.23589e-09
1.70624e-09
2.25027e-09
-9.93563e-09
1.01879e-08
-1.8704e-08
1.10691e-08
-1.94309e-08
5.23704e-09
-6.46896e-09
1.17004e-08
7.69562e-09
6.94115e-09
7.77051e-09
4.26174e-09
-1.33444e-08
8.22073e-10
-9.0207e-08
1.69576e-08
-1.33966e-07
3.03985e-08
-8.46784e-08
9.87404e-08
-1.31653e-09
4.88882e-10
4.45853e-10
9.36089e-09
-1.28197e-08
8.71971e-09
-2.08095e-08
1.10286e-08
-4.48025e-09
4.5222e-09
-1.67512e-08
-1.78969e-09
1.86375e-08
3.63383e-09
2.28997e-09
-1.07959e-08
-4.36071e-08
2.1571e-09
-1.24929e-07
2.62413e-08
-6.50181e-08
2.51233e-08
-1.71515e-08
-1.07826e-09
8.61918e-10
1.98767e-09
-8.32586e-09
8.43984e-09
-1.54742e-08
9.39181e-09
-1.6347e-08
4.4324e-09
-5.16862e-09
1.08747e-08
6.3783e-09
4.55079e-09
6.55497e-09
5.17593e-09
-8.67758e-09
4.59041e-09
-7.4012e-08
2.73719e-08
-1.09283e-07
3.42785e-08
-3.65364e-08
5.8417e-08
-2.46061e-09
6.01274e-10
2.74829e-10
8.09234e-09
-1.05314e-08
8.09717e-09
-1.73442e-08
1.04682e-08
-3.54654e-09
4.62894e-09
-1.41242e-08
-1.35567e-09
1.63704e-08
4.57953e-09
5.84499e-09
-3.7408e-09
-3.35228e-08
1.09509e-08
-1.02867e-07
3.43285e-08
-5.40036e-08
3.35744e-08
-3.57157e-08
-1.0559e-09
1.22011e-09
1.77637e-09
-6.65741e-09
7.78079e-09
-1.27034e-08
9.15436e-09
-1.36865e-08
4.51956e-09
-4.25986e-09
9.88296e-09
5.08472e-09
3.28835e-09
4.42182e-09
3.55319e-09
-9.30218e-09
3.90095e-09
-6.40962e-08
2.75066e-08
-9.32387e-08
3.79242e-08
-6.54111e-08
7.05271e-08
-9.1846e-10
4.32604e-10
4.55667e-10
6.86522e-09
-8.46631e-09
7.05718e-09
-1.42178e-08
9.02393e-09
-3.01815e-09
3.82515e-09
-1.25746e-08
-2.07792e-09
1.16233e-08
8.39861e-10
7.08626e-10
-8.36694e-09
-3.26275e-08
4.62365e-09
-8.69538e-08
3.33656e-08
-7.43216e-08
3.36987e-08
-4.6812e-08
7.29871e-08
-8.04592e-10
7.14416e-10
1.6381e-09
-5.36073e-09
6.44105e-09
-1.01453e-08
7.7123e-09
-1.13403e-08
3.5268e-09
-3.84695e-09
8.1103e-09
3.44931e-09
1.26097e-09
2.79763e-09
2.57541e-09
-7.51029e-09
4.28067e-09
-5.18532e-08
2.38612e-08
-7.88328e-08
3.45701e-08
-3.20608e-08
2.60348e-08
-5.79005e-09
-1.6083e-09
5.57868e-10
3.77086e-10
5.81966e-09
-6.63618e-09
6.37938e-09
-1.14293e-08
8.35584e-09
-2.5362e-09
2.90932e-09
-1.11927e-08
-2.09095e-09
1.02239e-08
1.81409e-09
3.39492e-09
-3.14524e-09
-2.43098e-08
9.15989e-09
-7.19878e-08
3.28185e-08
-6.21926e-08
3.3937e-08
-1.35363e-08
4.65711e-08
-6.80127e-10
9.98762e-10
1.48066e-09
-4.0127e-09
5.71445e-09
-7.93734e-09
7.41756e-09
-9.27052e-09
3.25524e-09
-3.66775e-09
6.81914e-09
2.84235e-09
1.07211e-09
2.47306e-09
2.51219e-09
-6.60671e-09
4.60223e-09
-4.47834e-08
2.19805e-08
-6.7057e-08
3.31571e-08
-2.22322e-08
3.07521e-08
-5.39249e-10
-5.62177e-10
4.80335e-10
4.75072e-10
4.75836e-09
-4.95175e-09
5.50733e-09
-8.94891e-09
7.28481e-09
-2.78686e-09
1.95783e-09
-9.81689e-09
-2.37726e-09
7.87234e-09
4.32804e-10
8.99101e-10
-5.43173e-09
-2.28898e-08
4.96012e-09
-6.19884e-08
2.77143e-08
-4.71712e-08
3.28323e-08
-1.79315e-10
3.90808e-08
-6.79153e-10
3.93688e-10
1.04763e-09
-3.23067e-09
4.64205e-09
-6.18632e-09
6.05565e-09
-7.91137e-09
1.79299e-09
-3.79432e-09
5.46805e-09
2.50333e-09
1.32617e-09
2.9243e-10
2.92663e-09
-5.261e-09
5.52367e-09
-3.60569e-08
2.00387e-08
-4.93998e-08
3.14138e-08
9.12689e-09
2.69496e-08
2.33843e-08
-9.02429e-10
6.94992e-10
6.51416e-10
4.0188e-09
-4.15133e-09
4.72868e-09
-7.62966e-09
5.96942e-09
-2.10296e-09
2.05944e-09
-7.59756e-09
4.49074e-10
2.01633e-09
5.80533e-09
-6.49688e-10
2.07009e-09
-1.84695e-08
1.04889e-08
-4.31966e-08
2.74461e-08
6.43827e-09
3.24689e-08
1.80049e-08
1.47031e-08
1.36655e-08
-7.80055e-10
1.52952e-10
2.44385e-10
-2.89356e-09
4.06568e-09
-5.69975e-09
5.76232e-09
-6.02911e-09
1.3885e-09
-2.79031e-09
6.45086e-09
-1.70764e-09
7.1145e-09
-5.62024e-09
1.09485e-08
-9.46696e-09
1.3901e-08
-2.04263e-08
2.61588e-08
7.80941e-09
3.25476e-08
-2.18985e-10
2.10983e-08
-1.8954e-08
1.9778e-08
-7.87997e-10
2.38765e-10
7.73982e-10
3.66584e-09
-4.49547e-09
4.38087e-09
-6.34789e-09
4.24824e-09
-1.10963e-09
2.58923e-09
-6.52801e-09
2.13685e-09
-6.79838e-10
7.14035e-09
1.54137e-09
3.85981e-09
-2.52502e-09
8.75377e-09
6.75661e-09
1.9057e-08
-5.71479e-09
1.87915e-08
-3.50935e-08
1.29859e-08
-1.46321e-08
-1.03287e-09
-2.3485e-10
2.79059e-11
-3.13571e-09
3.5452e-09
-4.94477e-09
4.81219e-09
-3.5924e-09
1.70934e-09
-1.75072e-09
6.08717e-09
-1.35745e-09
3.50286e-09
4.06835e-09
2.58123e-09
3.00164e-09
-1.69321e-09
9.03471e-10
2.31425e-09
-7.49651e-09
1.1137e-08
-3.81183e-08
1.12839e-08
-1.69447e-08
1.72202e-08
-1.1365e-09
-3.67365e-11
1.01289e-10
2.84843e-09
-3.43925e-09
3.74766e-09
-4.3646e-09
3.69783e-09
-6.84571e-10
2.96483e-09
-4.74599e-09
1.28232e-09
5.68003e-09
3.97449e-09
6.40984e-09
9.43669e-11
1.53863e-09
-8.45138e-10
-9.79193e-10
3.97198e-09
-2.82826e-08
8.97677e-09
-2.89669e-08
9.65361e-09
-1.14842e-08
-1.21521e-09
-1.052e-10
3.43878e-10
-2.21163e-09
3.09473e-09
-3.26261e-09
4.38422e-09
-2.41293e-09
2.52943e-09
-1.10179e-09
4.64209e-09
3.24787e-09
1.40366e-09
1.0234e-08
-1.41266e-09
9.01361e-09
-5.78293e-09
7.54635e-09
-5.61085e-09
-1.85979e-08
3.31142e-09
-3.87548e-08
8.81262e-09
-1.26409e-08
1.64214e-08
-1.01034e-09
-2.72664e-10
-5.04421e-11
2.46372e-09
-2.10036e-09
3.48038e-09
-2.83208e-09
3.68775e-09
-4.28735e-10
2.63232e-09
-2.8691e-09
1.2838e-09
6.7803e-09
3.73e-09
4.3863e-09
1.05569e-09
3.75775e-09
5.76049e-10
-8.90814e-09
4.97571e-09
-3.29612e-08
1.01886e-08
-1.8657e-08
9.23946e-09
-6.85746e-09
-1.07737e-09
-1.87259e-10
7.77999e-10
-1.2738e-09
2.8127e-09
-1.78619e-09
3.96715e-09
-1.78037e-09
2.74358e-09
-9.08486e-10
3.9392e-09
2.60645e-09
3.82592e-09
3.31916e-09
3.95979e-09
1.31232e-09
4.51792e-09
1.60311e-11
7.65889e-09
-1.76745e-08
1.17301e-08
-2.53014e-08
9.89026e-09
-4.70647e-09
1.3244e-08
-1.2057e-09
-4.49003e-11
-1.17122e-11
2.31328e-09
-9.14422e-10
3.20827e-09
-1.6949e-09
3.36432e-09
-5.70675e-10
1.97763e-09
-2.9484e-09
4.32608e-09
3.76602e-09
4.88988e-09
2.52095e-09
2.69763e-09
2.91968e-09
2.42131e-09
-9.28821e-09
7.58534e-09
-2.30293e-08
1.15685e-08
-1.59591e-10
8.22883e-09
7.08849e-09
-1.03041e-09
-1.40753e-10
1.30553e-09
-5.51761e-10
2.62209e-09
-5.87241e-10
3.49294e-09
-1.41351e-09
2.44954e-09
-1.35987e-09
5.60238e-09
1.07364e-09
6.97321e-09
2.11464e-10
6.94671e-09
-2.74701e-09
7.82832e-09
-5.17114e-09
1.05196e-08
-1.20747e-08
1.36427e-08
1.51889e-09
1.17274e-08
4.97615e-09
3.40308e-09
4.147e-09
-9.40182e-10
5.56407e-10
6.94845e-11
2.16035e-09
6.45468e-11
2.53348e-09
-6.33101e-10
2.58656e-09
-1.11025e-09
1.84348e-09
-2.74422e-09
5.08359e-09
3.25264e-09
3.69575e-09
1.04166e-09
3.2836e-09
-1.02675e-09
5.2959e-09
-2.59861e-09
9.90142e-09
4.7248e-09
1.17339e-08
-3.44322e-09
6.59824e-09
-9.57413e-09
8.98049e-09
7.73136e-10
-9.19468e-10
2.56368e-09
-7.66148e-10
1.65459e-09
7.4708e-10
2.29399e-09
-7.22768e-10
2.01791e-09
-1.47365e-09
5.0218e-09
2.83433e-09
3.47765e-09
3.62916e-09
1.46864e-09
3.8818e-09
1.01349e-10
4.783e-09
5.37729e-10
4.24755e-09
3.89736e-09
-5.25982e-09
8.56116e-09
-8.67007e-09
8.1321e-09
-4.4286e-09
-2.68026e-09
2.39469e-09
-6.44164e-10
1.13485e-09
5.19697e-10
1.79925e-09
1.22651e-09
2.48032e-09
1.94299e-09
3.8174e-09
1.97635e-09
5.01214e-09
4.98449e-09
3.87133e-09
3.29584e-09
4.02008e-09
2.28658e-09
5.64927e-09
2.40971e-09
7.26556e-09
2.99926e-09
1.23278e-08
-9.08267e-09
1.01524e-08
-5.24342e-09
1.54353e-08
2.31276e-09
2.0763e-10
6.59566e-10
3.39206e-10
1.01179e-09
1.74441e-09
2.5405e-09
1.77461e-09
2.10197e-09
1.76224e-09
3.92449e-09
5.58332e-09
2.87186e-09
5.99784e-09
1.3957e-09
7.35848e-09
1.77829e-09
9.32573e-09
4.44416e-09
9.28567e-09
7.4995e-09
-6.71884e-09
1.06007e-08
5.08771e-10
1.41866e-08
6.13376e-09
-1.75449e-10
2.04945e-10
9.83311e-11
2.19296e-10
4.75489e-10
6.33158e-10
4.69648e-10
3.95692e-10
3.45785e-10
9.19107e-10
1.56884e-09
1.35047e-09
2.29561e-09
1.10143e-09
3.63907e-09
1.55126e-09
5.75168e-09
2.65489e-09
8.03274e-09
6.85326e-09
3.57084e-09
1.15087e-08
6.53023e-09
1.30153e-08
1.0554e-08
1.59031e-08
)
;

boundaryField
{
    inlet
    {
        type            extrapolatedCalculated;
        value           nonuniform List<scalar> 
26
(
-1.75449e-10
2.04945e-10
9.83311e-11
2.19296e-10
4.75489e-10
6.33158e-10
4.69648e-10
3.95692e-10
3.45785e-10
9.19107e-10
1.56884e-09
1.35047e-09
2.29561e-09
1.10143e-09
3.63907e-09
1.55126e-09
5.75168e-09
2.65489e-09
8.03274e-09
6.85326e-09
3.57084e-09
1.15087e-08
6.53023e-09
1.30153e-08
1.0554e-08
1.59031e-08
)
;
    }
    outlet
    {
        type            extrapolatedCalculated;
        value           nonuniform List<scalar> 0();
    }
    walls
    {
        type            extrapolatedCalculated;
        value           nonuniform List<scalar> 0();
    }
    frontAndBack
    {
        type            empty;
    }
    procBoundary0to1
    {
        type            processor;
        value           nonuniform List<scalar> 
94
(
-2.15269e-06
-1.89525e-06
-1.89525e-06
-1.55093e-06
-1.55093e-06
-1.02431e-06
-1.02431e-06
-7.16913e-07
-7.16913e-07
-5.24977e-07
-5.24977e-07
-3.04127e-07
-1.91987e-07
-1.91987e-07
-1.09635e-07
-1.46169e-07
-1.46169e-07
-2.39472e-07
1.2776e-07
-2.97548e-07
-2.97548e-07
-1.73215e-07
-1.33363e-07
-1.33363e-07
-9.09804e-08
-2.59424e-09
-8.35391e-08
-8.35391e-08
-7.39462e-08
4.51595e-07
-1.31749e-07
-1.31749e-07
2.07582e-07
-1.44647e-07
-1.44647e-07
-1.18096e-07
1.00913e-07
-3.19184e-07
-3.19184e-07
-2.08866e-07
1.09829e-07
-3.06675e-07
-3.06675e-07
-1.48092e-07
1.01293e-07
-2.63989e-07
-2.63989e-07
-1.57707e-07
1.41861e-07
-2.31476e-07
-2.31476e-07
-1.09143e-07
-8.29429e-08
-1.5152e-07
-1.5152e-07
-8.25131e-08
-6.8288e-09
8.48814e-09
-4.13969e-08
-4.13969e-08
-6.14578e-09
-5.89517e-08
3.62137e-08
-1.27381e-07
-1.27381e-07
-5.06526e-08
3.21061e-08
-1.98702e-08
4.4058e-08
-6.53104e-08
-6.53104e-08
-2.46758e-08
3.57107e-08
7.1899e-09
3.84498e-08
1.95389e-08
2.35429e-08
2.35429e-08
1.82909e-08
-1.02319e-08
1.62921e-08
-7.52902e-09
1.26388e-08
-4.54319e-09
1.01696e-08
2.15066e-09
4.59682e-09
4.59682e-09
4.44347e-09
-5.64264e-09
8.54552e-09
1.88321e-09
1.98872e-08
2.31785e-08
)
;
    }
    procBoundary0to4
    {
        type            processor;
        value           nonuniform List<scalar> 
72
(
-2.26091e-07
-1.03707e-06
-2.82736e-07
-8.99652e-07
-9.40407e-08
-3.30346e-07
-1.5617e-08
-2.7714e-07
4.98209e-08
-8.80664e-08
3.81785e-08
-1.08006e-07
4.47011e-08
-2.19553e-08
3.464e-08
-2.43369e-08
5.3487e-08
3.49202e-08
2.73373e-08
1.57619e-07
-7.08345e-09
6.5283e-08
1.03878e-07
1.03878e-07
-6.02232e-08
2.49117e-09
-4.30294e-08
-8.77041e-09
-3.21194e-08
1.13093e-09
-2.37488e-08
-4.38959e-09
-1.83047e-08
1.88973e-09
-1.41435e-08
-2.79919e-09
-1.15271e-08
8.93768e-10
-9.20982e-09
-2.533e-09
-7.6897e-09
-6.8374e-11
-6.20583e-09
-2.3505e-09
-5.2395e-09
-6.34436e-10
-4.29797e-09
-2.08457e-09
-3.65788e-09
-8.93206e-10
-3.04607e-09
-1.69901e-09
-2.62489e-09
-8.21591e-10
-2.24312e-09
-1.34291e-09
-1.86779e-09
-8.93005e-10
-1.48141e-09
-1.69351e-09
-1.55223e-09
-1.60788e-09
-1.32718e-09
-1.64372e-09
-1.38804e-09
-1.52543e-09
-1.25252e-09
-1.35311e-09
-1.31788e-09
1.20634e-09
-1.76085e-09
2.55929e-10
)
;
    }
    procBoundary0to5
    {
        type            processor;
        value           nonuniform List<scalar> 4(-8.46063e-07 -4.03513e-07 -1.15987e-06 1.11313e-07);
    }
}


// ************************************************************************* //
