/*--------------------------------*- C++ -*----------------------------------*\
| =========                 |                                                 |
| \\      /  F ield         | OpenFOAM: The Open Source CFD Toolbox           |
|  \\    /   O peration     | Version:  2506                                  |
|   \\  /    A nd           | Website:  www.openfoam.com                      |
|    \\/     M anipulation  |                                                 |
\*---------------------------------------------------------------------------*/
FoamFile
{
    version     2.0;
    format      ascii;
    arch        "LSB;label=32;scalar=64";
    class       surfaceScalarField;
    location    "300";
    object      phi;
}
// * * * * * * * * * * * * * * * * * * * * * * * * * * * * * * * * * * * * * //

dimensions      [0 3 -1 0 0 0 0];

oriented        oriented;

internalField   nonuniform List<scalar> 
2582
(
-0.189123
-0.245263
-0.159405
-0.247672
-0.128764
-0.25994
-0.0901572
-0.319989
-0.325996
-0.189831
-0.277004
-0.158437
-0.279065
-0.126286
-0.292092
-0.0856006
-0.360674
-0.0455083
-0.366089
-0.378497
-0.19085
-0.310545
-0.157816
-0.3121
-0.123934
-0.325973
-0.0811112
-0.403498
-0.0389227
-0.408277
0.00398026
-0.4214
-0.434794
-0.19236
-0.3458
-0.157406
-0.347053
-0.12186
-0.36152
-0.076667
-0.44869
-0.0322833
-0.452661
0.0128677
-0.466551
0.0590797
-0.481006
-0.464952
-0.194107
-0.383003
-0.157369
-0.383791
-0.119778
-0.39911
-0.0722014
-0.496267
-0.0254386
-0.499424
0.0220308
-0.514021
0.0705807
-0.529556
0.116699
-0.51107
-0.459151
-0.196162
-0.422314
-0.157419
-0.422535
-0.117946
-0.438583
-0.0677055
-0.546507
-0.0184546
-0.548675
0.0315101
-0.563985
0.0826323
-0.580678
0.131047
-0.559485
0.173119
-0.501222
-0.442596
-0.198579
-0.463787
-0.157669
-0.463445
-0.116047
-0.480205
-0.0631009
-0.599454
-0.0112167
-0.600559
0.0413977
-0.6166
0.0952124
-0.634493
0.146131
-0.610404
0.190282
-0.545373
-0.480216
-0.201206
-0.507484
-0.15807
-0.506581
-0.114235
-0.524041
-0.0584168
-0.655272
-0.00369526
-0.655281
0.0516986
-0.671993
0.108327
-0.691121
0.161956
-0.664034
0.208298
-0.591715
0.247756
-0.519674
-0.455112
-0.204154
-0.553585
-0.158673
-0.552062
-0.112454
-0.57026
-0.0535498
-0.714175
0.00408274
-0.712913
0.0624725
-0.730383
0.122117
-0.750765
0.178493
-0.72041
0.227266
-0.640488
0.268637
-0.561045
-0.490196
-0.207331
-0.602217
-0.15938
-0.600013
-0.110654
-0.618986
-0.0485301
-0.776299
0.0121738
-0.773617
0.0737067
-0.791916
0.136544
-0.813603
0.19593
-0.779795
0.247183
-0.691741
0.290631
-0.604493
0.327376
-0.526941
-0.443559
-0.210796
-0.65347
-0.160197
-0.650612
-0.10884
-0.670343
-0.0433156
-0.841824
0.0206889
-0.837622
0.0854854
-0.856713
0.151688
-0.879806
0.214222
-0.842329
0.268152
-0.745671
0.31381
-0.650151
0.352366
-0.565496
-0.474516
-0.214424
-0.707576
-0.16113
-0.703906
-0.106993
-0.724481
-0.0379236
-0.910893
0.0295636
-0.905109
0.0978721
-0.925021
0.167626
-0.94956
0.233515
-0.908219
0.290263
-0.802419
0.338235
-0.698123
0.378677
-0.605939
-0.506942
-0.218405
-0.764598
-0.162179
-0.760131
-0.105132
-0.781528
-0.0322802
-0.983745
0.0388401
-0.976229
0.110873
-0.997054
0.184384
-1.02307
0.253759
-0.977593
0.313502
-0.862163
0.363959
-0.748579
0.406474
-0.648454
0.440409
-0.540878
-0.451383
-0.222612
-0.824694
-0.163266
-0.819478
-0.103142
-0.841652
-0.0263732
-1.06051
0.048657
-1.05126
0.12455
-1.07295
0.202019
-1.10054
0.275126
-1.0507
0.337985
-0.925022
0.39109
-0.801685
0.435728
-0.693092
0.471344
-0.576494
-0.479512
-0.227059
-0.888078
-0.164552
-0.881985
-0.101112
-0.905092
-0.0201058
-1.14152
0.058957
-1.13032
0.138927
-1.15292
0.220559
-1.18217
0.297563
-1.1277
0.363827
-0.991285
0.419678
-0.857537
0.466631
-0.740044
0.503996
-0.613859
0.533444
-0.50896
-0.432772
-0.231755
-0.954962
-0.165799
-0.947941
-0.0990028
-0.971889
-0.0136112
-1.22691
0.0697423
-1.21368
0.154044
-1.23722
0.240115
-1.26824
0.321289
-1.20888
0.391043
-1.06104
0.449828
-0.916322
0.499179
-0.789395
0.53843
-0.65311
0.569276
-0.539806
-0.457609
-0.236749
-1.02545
-0.167241
-1.01745
-0.0967775
-1.04235
-0.00675309
-1.31694
0.0811209
-1.30155
0.170001
-1.3261
0.260688
-1.35893
0.346226
-1.29442
0.419732
-1.13454
0.481625
-0.978215
0.533543
-0.841313
0.574749
-0.694316
0.607116
-0.572173
-0.483602
-0.242008
-1.09974
-0.16872
-1.09074
-0.094457
-1.11662
0.000503436
-1.4119
0.0931186
-1.39416
0.186816
-1.4198
0.282413
-1.45453
0.372552
-1.38455
0.449973
-1.21197
0.515156
-1.0434
0.569766
-0.895923
0.613093
-0.737643
0.647007
-0.606087
0.674207
-0.510803
-0.432192
-0.247575
-1.17808
-0.170271
-1.16804
-0.0919692
-1.19492
0.00811654
-1.51198
0.105771
-1.49182
0.20454
-1.51857
0.305312
-1.5553
0.400319
-1.47956
0.481873
-1.29352
0.550495
-1.11202
0.607978
-0.953405
0.653581
-0.783246
0.689134
-0.64164
0.717604
-0.539272
-0.454766
-0.253385
-1.26069
-0.171925
-1.2495
-0.0894029
-1.27744
0.0161269
-1.61751
0.1191
-1.59479
0.223206
-1.62267
0.329449
-1.66154
0.429565
-1.57968
0.515498
-1.37945
0.587821
-1.18434
0.648344
-1.01393
0.696147
-0.831049
0.733654
-0.679147
0.763438
-0.569057
-0.478397
-0.25955
-1.34776
-0.17368
-1.33537
-0.0866389
-1.36448
0.0246375
-1.72879
0.133187
-1.70334
0.242927
-1.73241
0.354929
-1.77355
0.460426
-1.68517
0.551004
-1.47003
0.627109
-1.26045
0.69081
-1.07763
0.741334
-0.881573
0.780581
-0.718394
0.811786
-0.600261
0.83643
-0.503041
-0.431212
-0.266003
-0.17545
-1.42592
-0.0837525
-1.45618
0.0335925
-1.84613
0.148011
-1.81776
0.263725
-1.84813
0.381744
-1.89156
0.493018
-1.79645
0.58846
-1.56547
0.668608
-1.3406
0.735756
-1.14478
0.788652
-0.934468
0.829954
-0.759696
0.862948
-0.633256
0.888708
-0.528801
-0.451792
-0.177342
-1.5214
-0.0806345
-1.55289
0.0430236
-1.96979
0.163691
-1.93843
0.285662
-1.9701
0.410112
-2.01602
0.527332
-1.91367
0.627964
-1.66611
0.712491
-1.42512
0.783162
-1.21545
0.838955
-0.990262
0.882321
-0.803062
0.916696
-0.66763
0.943828
-0.555933
0.965244
-0.473208
-0.416412
-0.179323
-1.62203
-0.0773904
-1.65482
0.0530335
-2.10021
0.180228
-2.06562
0.308833
-2.0987
0.440033
-2.14722
0.563692
-2.03733
0.669624
-1.77204
0.758616
-1.51412
0.833049
-1.28988
0.891771
-1.04898
0.937439
-0.84873
0.973699
-0.70389
1.00202
-0.584255
1.0245
-0.495682
-0.4348
-0.181356
-1.72814
-0.0738981
-1.76228
0.0636034
-2.23772
0.197707
-2.19973
0.33328
-2.23427
0.471585
-2.28552
0.601823
-2.16756
0.713609
-1.88382
0.807451
-1.60796
0.885816
-1.36825
0.947654
-1.11082
0.995713
-0.896788
1.03362
-0.741794
1.06338
-0.614022
1.08688
-0.519179
-0.454074
-0.183527
-1.84002
-0.0702226
-1.87558
0.0747444
-2.38268
0.216123
-2.3411
0.359062
-2.37721
0.504946
-2.43141
0.64222
-2.30484
0.759991
-2.00159
0.858853
-1.70682
0.941359
-1.45075
1.00653
-1.176
1.05701
-0.947263
1.0971
-0.781889
1.12822
-0.645144
1.15295
-0.543905
1.17282
-0.473942
-0.42198
-0.185738
-1.95795
-0.0663024
-1.99502
0.0865747
-2.53556
0.235638
-2.49017
0.386356
-2.52793
0.540017
-2.58507
0.68491
-2.44973
0.808935
-2.12562
0.913152
-1.81104
1.00016
-1.53776
1.06866
-1.2445
1.12193
-1.00053
1.16385
-0.823813
1.19671
-0.677998
1.22251
-0.569703
1.24346
-0.494898
-0.43917
-0.188053
-2.08228
-0.062123
-2.12095
0.0990258
-2.69671
0.256203
-2.64734
0.41506
-2.68679
0.577202
-2.74721
0.729821
-2.60235
0.860726
-2.25652
0.970565
-1.92088
1.06215
-1.62934
1.13436
-1.31671
1.19023
-1.0564
1.23453
-0.868118
1.26891
-0.712373
1.29589
-0.596681
1.31796
-0.51697
-0.45704
-0.190469
-2.2134
-0.0577473
-2.25367
0.112209
-2.86667
0.277913
-2.81305
0.445485
-2.85436
0.616356
-2.91808
0.777335
-2.76333
0.915245
-2.39443
1.0309
-2.03653
1.12756
-1.726
1.20364
-1.39279
1.2625
-1.11526
1.30897
-0.914594
1.34515
-0.748549
1.37358
-0.625117
1.39644
-0.539826
1.41537
-0.475973
-0.432524
-0.193025
-2.35159
-0.0530335
-2.39366
0.126116
-3.04581
0.300864
-2.9878
0.477524
-3.03102
0.657623
-3.09818
0.827358
-2.93306
0.972807
-2.53988
1.09478
-2.1585
1.19665
-1.82787
1.27665
-1.4728
1.3388
-1.1774
1.38769
-0.963483
1.42571
-0.786569
1.45551
-0.654917
1.47951
-0.563829
1.49907
-0.495535
-0.449151
-0.195604
-2.49732
-0.0480455
-2.54122
0.140895
-3.23475
0.325124
-3.17203
0.511337
-3.21723
0.701413
-3.28826
0.880273
-3.11192
1.03356
-2.69316
1.16219
-2.28714
1.26937
-1.93505
1.35384
-1.55727
1.41908
-1.24264
1.47058
-1.01499
1.51057
-0.826557
1.5419
-0.686242
1.56723
-0.589159
1.58776
-0.516074
-0.466341
-0.198349
-2.65096
-0.0427342
-2.69683
0.156438
-3.43393
0.350741
-3.36633
0.547104
-3.41359
0.747364
-3.48852
0.936157
-3.30072
1.09769
-2.8547
1.23332
-2.42276
1.34639
-2.04812
1.43525
-1.64613
1.5041
-1.3115
1.55822
-1.06911
1.60026
-0.868592
1.63324
-0.719218
1.65966
-0.615582
1.6811
-0.537511
1.69915
-0.484391
-0.45068
-0.201192
-2.81294
-0.0371577
-2.86087
0.172931
-3.64402
0.377712
-3.57111
0.584827
-3.62071
0.796109
-3.6998
0.994989
-3.4996
1.1655
-3.02521
1.30825
-2.56551
1.42741
-2.16729
1.5212
-1.73991
1.59363
-1.38393
1.65079
-1.12627
1.69498
-0.912782
1.72955
-0.753785
1.75733
-0.643362
1.77995
-0.560128
1.79873
-0.503171
-0.466948
-0.204155
-2.98376
-0.0311762
-3.03385
0.190309
-3.8655
0.406371
-3.78717
0.62475
-3.83909
0.847579
-3.92263
1.05724
-3.70925
1.23678
-3.20474
1.38763
-2.71637
1.51319
-2.29284
1.61197
-1.8387
1.68822
-1.46017
1.74836
-1.18642
1.79491
-0.959325
1.83133
-0.790206
1.86051
-0.672539
1.88407
-0.583691
1.90385
-0.522948
-0.484057
-0.207252
-3.16384
-0.0248452
-3.21625
0.208697
-4.09904
0.436484
-4.01496
0.666781
-4.06938
0.901608
-4.15745
1.1228
-3.93045
1.31242
-3.39437
1.47119
-2.87514
1.60357
-2.42522
1.70767
-1.9428
1.78818
-1.54069
1.85134
-1.24957
1.9005
-1.00849
1.93856
-0.828262
1.9693
-0.703278
1.99419
-0.608586
2.0149
-0.54366
2.03276
-0.501911
-0.478026
-0.210483
-3.35373
-0.0181522
-3.40858
0.228142
-4.34534
0.468346
-4.25516
0.711235
-4.31227
0.958979
-4.4052
1.19223
-4.1637
1.39193
-3.59406
1.55942
-3.04263
1.69909
-2.56489
1.80865
-2.05236
1.8935
-1.62554
1.96019
-1.31626
2.01178
-1.06007
2.05201
-0.868498
2.08421
-0.735479
2.11036
-0.634734
2.13201
-0.565311
2.15074
-0.520639
-0.494846
-0.213862
-3.55397
-0.0110715
-3.61137
0.248685
-4.60509
0.502039
-4.50852
0.758077
-4.56831
1.01926
-4.66638
1.26529
-4.40973
1.47598
-3.80475
1.65256
-3.21921
1.7998
-2.71213
1.91546
-2.16802
2.00477
-1.71486
2.07497
-1.38646
2.12938
-1.11448
2.1717
-0.910816
2.20561
-0.76939
2.23293
-0.662053
2.25565
-0.588032
2.27533
-0.540317
-0.51255
-0.217377
-3.76511
-0.00351596
-3.82523
0.270427
-4.87904
0.537487
-4.77558
0.807647
-4.83847
1.08312
-4.94185
1.34254
-4.66915
1.56473
-4.02694
1.75093
-3.40541
1.90611
-2.86731
2.02812
-2.29002
2.12216
-1.80889
2.19624
-1.46055
2.25341
-1.17165
2.29808
-0.955483
2.33366
-0.804967
2.36254
-0.690932
2.38638
-0.611878
2.40697
-0.5609
2.42535
-0.530935
-0.517003
-0.221075
-3.98774
0.00443255
-4.05074
0.293299
-5.1679
0.574996
-5.05727
0.859914
-5.12339
1.1505
-5.23244
1.42411
-4.94276
1.65846
-4.2613
1.85479
-3.60174
2.01838
-3.03091
2.14696
-2.4186
2.24622
-1.90816
2.32415
-1.53848
2.38437
-1.23187
2.43134
-1.00245
2.46895
-0.842581
2.49917
-0.72115
2.52429
-0.636998
2.54587
-0.58248
2.5653
-0.55036
-0.535152
-0.224927
-4.22254
0.0128985
-4.28857
0.317462
-5.47247
0.61475
-5.35456
0.915072
-5.42371
1.22167
-5.53903
1.51021
-5.2313
1.75724
-4.50833
1.96439
-3.80889
2.13693
-3.20345
2.27241
-2.55408
2.37699
-2.01274
2.45919
-1.62067
2.52275
-1.29543
2.57219
-1.05189
2.61165
-0.882046
2.64348
-0.752975
2.66989
-0.663414
2.69248
-0.605064
2.71286
-0.570743
-0.554282
-0.228947
-4.47014
0.0218513
-4.53937
0.343095
-5.79371
0.656499
-5.66797
0.973261
-5.74047
1.29658
-5.86235
1.60094
-5.53567
1.86161
-4.769
2.07994
-4.02722
2.26192
-3.38542
2.40475
-2.69691
2.51521
-2.1232
2.60173
-1.70719
2.6687
-1.3624
2.72074
-1.10393
2.76248
-0.923791
2.79585
-0.786342
2.82372
-0.691291
2.84756
-0.628904
2.86884
-0.592019
-0.57412
-0.233219
-4.7312
0.0312664
-4.80385
0.370121
-6.13257
0.700657
-5.9985
1.03494
-6.07476
1.37574
-6.20315
1.69688
-5.8568
1.97167
-5.0438
2.20215
-4.2577
2.39404
-3.57731
2.54469
-2.84755
2.66086
-2.23938
2.75228
-1.79861
2.82284
-1.43296
2.87769
-1.15878
2.92145
-0.967556
2.95676
-0.821645
2.98587
-0.720404
3.01092
-0.653953
3.03333
-0.614424
3.05442
-0.595217
-0.595021
-0.237613
-5.00659
0.041313
-5.08278
0.398679
-6.48993
0.747183
-6.34701
1.09972
-6.4273
1.45949
-6.56291
1.79799
-6.1953
2.08804
-5.33385
2.3309
-4.50056
2.53331
-3.77971
2.69224
-3.00649
2.81483
-2.36197
2.9111
-1.89487
2.9854
-1.50726
3.04322
-1.21659
3.08945
-1.01379
3.12662
-0.858819
3.15728
-0.751059
3.18363
-0.680307
3.20724
-0.638035
3.22914
-0.617121
-0.616776
-0.242304
-5.29694
0.051879
-5.37696
0.428854
-6.86691
0.796517
-6.71467
1.16837
-6.79915
1.54771
-6.94224
1.90488
-6.55247
2.21066
-5.63963
2.4669
-4.75681
2.68033
-3.99313
2.84788
-3.17404
2.97722
-2.4913
3.07864
-1.9963
3.15715
-1.58577
3.21811
-1.27756
3.26662
-1.0623
3.30581
-0.898011
3.33824
-0.783492
3.36589
-0.707949
3.39069
-0.66284
3.41378
-0.640209
-0.639648
-0.247204
-5.60316
0.0630764
-5.68724
0.460664
-7.26449
0.848449
-7.10246
1.24067
-7.19138
1.64078
-7.34236
2.01763
-6.92932
2.34027
-5.96227
2.61054
-5.02708
2.83567
-4.21827
3.01235
-3.35072
3.14866
-2.62761
3.2558
-2.10344
3.33835
-1.66832
3.40262
-1.34183
3.45395
-1.11363
3.49506
-0.939119
3.52911
-0.817547
3.55839
-0.737224
3.58434
-0.688787
3.60879
-0.664664
-0.663488
-0.252305
-5.92616
0.074923
-6.01447
0.494215
-7.68379
0.903361
-7.5116
1.3171
-7.60511
1.73918
-7.76444
2.13656
-7.3267
2.47685
-6.30256
2.7621
-5.31233
2.9995
-4.45567
3.18589
-3.5371
3.32973
-2.77146
3.44247
-2.21618
3.5297
-1.75555
3.5974
-1.40953
3.65144
-1.16767
3.69493
-0.982607
3.73073
-0.853351
3.76145
-0.767938
3.78892
-0.716255
3.81449
-0.690239
3.83978
-0.688772
-0.708237
-0.257755
-6.26676
0.0873586
-6.35958
0.529676
-8.1261
0.961232
-7.94316
1.39764
-8.04152
1.84293
-8.20973
2.26225
-7.74602
2.62116
-6.66147
2.92184
-5.61301
3.17238
-4.70621
3.36911
-3.73383
3.52061
-2.92296
3.63975
-2.33531
3.73166
-1.84746
3.80301
-1.48088
3.85997
-1.22462
3.90573
-1.02837
3.94357
-0.891191
3.9759
-0.800269
4.00479
-0.745139
4.0317
-0.717148
4.05815
-0.715224
-0.735865
-0.263414
-6.62602
0.100643
-6.72364
0.56705
-8.59251
1.02228
-8.39839
1.48262
-8.50186
1.95251
-8.67962
2.39477
-8.18827
2.77352
-7.04023
3.09075
-5.93024
3.35503
-4.97049
3.56236
-3.94116
3.72237
-3.08297
3.84787
-2.46082
3.94474
-1.94432
4.02013
-1.55628
4.08004
-1.28454
4.12835
-1.07668
4.16817
-0.931012
4.20227
-0.834362
4.23264
-0.775508
4.26097
-0.745484
4.28891
-0.743161
-0.764679
-0.26943
-7.0049
0.11447
-7.10754
0.606718
-9.08476
1.08682
-8.87849
1.57254
-8.98758
2.06806
-9.17514
2.53461
-8.65483
2.93418
-7.4398
3.26888
-6.26494
3.5476
-5.2492
3.76638
-4.15994
3.93513
-3.25172
4.06757
-2.59325
4.16976
-2.04651
4.24907
-1.63559
4.31238
-1.34785
4.3632
-1.12749
4.40525
-0.973065
4.44101
-0.870125
4.47314
-0.807632
4.50297
-0.775316
4.5323
-0.772495
-0.795057
-0.275718
-7.40453
0.129353
-7.51261
0.648261
-9.60367
1.15488
-9.3851
1.66717
-9.49987
2.18995
-9.69793
2.68229
-9.14716
3.10379
-7.8613
3.457
-6.61815
3.75104
-5.54324
3.98176
-4.39066
4.15974
-3.4297
4.29936
-2.73288
4.40716
-2.15431
4.49085
-1.71928
4.5576
-1.4146
4.61106
-1.18095
4.65529
-1.01729
4.69313
-0.907969
4.72692
-0.84142
4.75828
-0.80668
4.78916
-0.803371
-0.827212
-0.282405
-7.82604
0.14472
-7.93973
0.692363
-10.1513
1.22672
-9.91946
1.76733
-10.0405
2.31883
-10.2494
2.83819
-9.66652
3.28277
-8.30588
3.65528
-6.99066
3.96552
-5.85349
4.20898
-4.63411
4.39677
-3.6175
4.54402
-2.88013
4.65753
-2.26782
4.74578
-1.80753
4.81615
-1.48497
4.87271
-1.23751
4.91929
-1.06387
4.95925
-0.947932
4.99463
-0.8768
5.02782
-0.839865
5.06031
-0.835861
5.09399
-0.860898
-0.867523
-0.289426
-8.27061
0.161192
-8.39035
0.738834
-10.729
1.30243
-10.4831
1.87275
-10.6108
2.45477
-10.8315
3.00255
-10.2143
3.47182
-8.77515
3.86483
-7.38367
4.19209
-6.18075
4.44888
-4.8909
4.64685
-3.81546
4.80208
-3.03536
4.922
-2.38774
5.01504
-1.90057
5.08921
-1.55914
5.14866
-1.29696
5.19785
-1.11306
5.23976
-0.989834
5.27738
-0.914424
5.31205
-0.874532
5.34644
-0.870255
5.38187
-0.89633
-0.903457
-0.29684
-8.73947
0.178393
-8.86558
0.787662
-11.3382
1.38251
-11.0779
1.9841
-11.2124
2.59804
-11.4454
3.1761
-10.7924
3.67114
-9.27018
4.08584
-7.79838
4.43112
-6.52602
4.7019
-5.16168
4.91067
-4.02424
5.0745
-3.19919
5.20079
-2.51404
5.29891
-1.99869
5.37713
-1.63737
5.44001
-1.35983
5.49179
-1.16485
5.53605
-1.03409
5.57546
-0.953842
5.61217
-0.911239
5.64824
-0.906322
5.68572
-0.933813
-0.941391
-0.304598
-9.23417
0.196805
-9.36699
0.839511
-11.9809
1.46686
-11.7053
2.10163
-11.8471
2.7492
-12.093
3.35917
-11.4023
3.88159
-9.79261
4.31912
-8.23591
4.68323
-6.89013
4.96899
-5.44745
5.18908
-4.24433
5.36187
-3.37198
5.49516
-2.64733
5.5986
-2.10213
5.68099
-1.71976
5.74718
-1.42602
5.80182
-1.21949
5.84845
-1.08072
5.89009
-0.995484
5.92889
-0.950037
5.96695
-0.944379
6.00625
-0.973111
-0.981279
-0.312912
-9.75588
0.215859
-9.89576
0.894067
-12.6591
1.55595
-12.3671
2.22556
-12.5167
2.90893
-12.7763
3.55237
-12.0458
4.10355
-10.3438
4.56527
-8.69763
4.94932
-7.27419
5.25052
-5.74864
5.48296
-4.47676
5.66508
-3.5541
5.80558
-2.78783
5.91469
-2.21123
6.00174
-1.80682
6.07148
-1.49575
6.12904
-1.27706
6.17827
-1.12995
6.22204
-1.03925
6.26281
-0.99081
6.30291
-0.984472
6.34447
-1.01468
-1.0234
-0.321737
-10.3061
0.236309
-10.4538
0.951509
-13.3743
1.64976
-13.0654
2.35623
-13.2232
3.0774
-13.4975
3.75633
-12.7247
4.33802
-10.9255
4.82479
-9.18439
5.23002
-7.67942
5.54782
-6.06644
5.79275
-4.7217
5.985
-3.74634
6.13332
-2.93615
6.24826
-2.32617
6.33993
-1.89849
6.41355
-1.56937
6.47433
-1.33784
6.52602
-1.18164
6.57273
-1.08596
6.61553
-1.03361
6.65732
-1.02626
6.70067
-1.05803
-1.0687
-0.330986
-10.8865
0.257382
-11.0422
1.01209
-14.129
1.74891
-13.8022
2.4945
-13.9688
3.25501
-14.258
3.97152
-13.4412
4.58532
-11.5393
5.09889
-9.69797
5.52614
-8.10667
5.86138
-6.40168
6.11986
-4.98018
6.32255
-3.94903
6.47917
-3.09277
6.60078
-2.44778
6.69648
-1.99418
6.77466
-1.64756
6.83781
-1.401
6.89304
-1.23687
6.94146
-1.13438
6.9871
-1.07925
7.03111
-1.07027
7.07744
-1.10436
7.12369
-1.11494
-1.02805
-0.340648
-11.4989
0.280144
-11.663
1.07623
-14.9251
1.85349
-14.5795
2.63993
-14.7552
3.4427
-15.0608
4.1984
-14.1969
4.84617
-12.187
5.38778
-10.2396
5.83853
-8.55741
6.19225
-6.7554
6.46504
-5.25297
6.67792
-4.16191
6.84238
-3.25724
6.97014
-2.57554
7.07369
-2.09773
7.15511
-1.72897
7.22309
-1.46897
7.28001
-1.29379
7.33066
-1.18503
7.37855
-1.12714
7.42612
-1.11784
7.47486
-1.1531
7.52364
-1.16372
-1.07329
-0.24486
-11.9387
0.212018
-12.1198
0.841186
-15.5543
1.5401
-15.2784
2.38617
-15.6013
3.47747
-16.1521
4.84542
-15.5649
6.22034
-13.562
6.1191
-10.1383
5.98876
-8.42707
5.88091
-6.64756
5.79642
-5.16848
5.73103
-4.09652
5.68231
-3.20852
5.64438
-2.5376
5.61562
-2.06897
5.59269
-1.70604
5.57603
-1.45231
5.5618
-1.27956
5.54983
-1.17306
5.53846
-1.11576
5.53
-1.10938
5.52427
-1.14737
5.52133
-1.16078
-1.07393
-0.264795
-12.4227
0.238075
-12.6227
0.930487
-16.2467
1.69972
-16.0476
2.63137
-16.533
3.8335
-17.3542
5.34124
-17.0726
6.85642
-15.0771
6.74217
-10.0241
6.59716
-8.28206
6.47747
-6.52787
6.3824
-5.07341
6.31008
-4.0242
6.25434
-3.15278
6.21481
-2.49808
6.18254
-2.03671
6.15814
-1.68164
6.13706
-1.43123
6.12077
-1.26328
6.10787
-1.16016
6.09679
-1.10468
6.08735
-1.09995
6.08081
-1.14084
6.07723
-1.15719
-1.07645
-0.286572
-12.955
0.266636
-13.1759
1.02887
-17.0089
1.87611
-16.8949
2.90198
-17.5588
4.22624
-18.6785
5.88721
-18.7336
7.55644
-16.7464
7.42628
-9.89392
7.26618
-8.12197
7.13098
-6.39267
7.02759
-4.97003
6.94757
-3.94417
6.88653
-3.09174
6.84065
-2.4522
6.80512
-2.00118
6.77818
-1.6547
6.75675
-1.4098
6.73853
-1.24506
6.72358
-1.1452
6.71165
-1.09276
6.70014
-1.08843
6.69171
-1.13241
6.68889
-1.15437
-1.07849
-0.309581
-13.5407
0.299079
-13.7846
1.13795
-17.8478
2.07034
-17.8272
3.2001
-18.6886
4.65862
-20.137
6.48846
-20.5634
8.32841
-18.5863
8.18251
-9.74803
8.00234
-7.94179
7.854
-6.24432
7.73799
-4.85402
7.64835
-3.85454
7.58118
-3.02456
7.52932
-2.40034
7.49084
-1.96269
7.46034
-1.6242
7.43746
-1.38692
7.41755
-1.22515
7.40069
-1.12835
7.38552
-1.07758
7.37594
-1.07885
7.36702
-1.12349
7.36268
-1.15003
-1.08024
-0.334627
-14.1848
0.335235
-14.4544
1.25823
-18.7708
2.28505
-18.8541
3.52869
-19.9322
5.13496
-21.7433
7.14995
-22.5784
9.17508
-20.6114
9.01214
-9.58509
8.81272
-7.74238
8.64854
-6.08014
8.52082
-4.72629
8.4197
-3.75342
8.34568
-2.95054
8.28951
-2.34417
8.24712
-1.9203
8.21335
-1.59043
8.18547
-1.35904
8.16399
-1.20367
8.14547
-1.10983
8.12981
-1.06192
8.11722
-1.06625
8.10679
-1.11307
8.10368
-1.14692
-1.08062
-0.361181
-14.8935
0.375389
-15.191
1.3915
-19.7869
2.52141
-19.984
3.89068
-21.3015
5.65946
-23.512
7.87945
-24.7984
10.1095
-22.8415
9.9262
-9.4018
9.7041
-7.52028
9.52178
-5.89782
9.37952
-4.58404
9.27022
-3.64412
9.18736
-2.86767
9.12482
-2.28162
9.07637
-1.87186
9.03964
-1.5537
9.01078
-1.33018
8.98681
-1.1797
8.96548
-1.0885
8.94953
-1.04597
8.93289
-1.04962
8.9237
-1.10387
8.91821
-1.14143
-1.08247
-0.390274
-15.673
0.420541
-16.0018
1.53857
-20.905
2.78211
-21.2275
4.28942
-22.8088
6.23648
-25.4591
8.68023
-27.2422
11.1343
-25.2955
10.9311
-9.19856
10.686
-7.27527
10.4833
-5.69512
10.3264
-4.42712
10.2047
-3.52242
10.1124
-2.77537
10.0452
-2.21442
9.99111
-1.81776
9.95044
-1.51303
9.91714
-1.29688
9.88954
-1.1521
9.86827
-1.06723
9.84838
-1.02609
9.83298
-1.03421
9.82144
-1.09234
9.8151
-1.13509
-1.08471
-0.421198
-16.5303
0.47062
-16.8936
1.70076
-22.1351
3.06926
-22.596
4.72801
-24.4676
6.87178
-27.6029
9.56094
-29.9313
12.2608
-27.9954
12.037
-8.97476
11.7655
-7.00376
11.5416
-5.47121
11.3675
-4.25297
11.233
-3.388
11.1333
-2.67561
11.0556
-2.13679
10.9988
-1.76092
10.952
-1.46618
10.9157
-1.26058
10.8872
-1.12368
10.861
-1.04103
10.84
-1.00506
10.8222
-1.01641
10.8085
-1.07864
10.8028
-1.12939
10.8044
-1.08626
-1.00048
-0.454609
-17.4735
0.526306
-17.8746
1.87969
-23.4885
3.38554
-24.1019
5.21092
-26.293
7.57037
-29.9623
10.5275
-32.8885
13.5009
-30.9689
13.2535
-8.72728
12.9536
-6.70391
12.7077
-5.22531
12.5136
-4.05883
12.3658
-3.24025
12.2528
-2.56258
12.1691
-2.05308
12.1037
-1.69553
12.0549
-1.41742
12.0147
-1.22033
11.9805
-1.08951
11.9521
-1.01262
11.9287
-0.981674
11.9086
-0.996304
11.8942
-1.06418
11.8854
-1.12064
11.8877
-1.08857
-1.01061
-0.490434
-18.5108
0.588604
-18.9536
2.07734
-24.9772
3.7337
-25.7582
5.74181
-28.3011
8.33613
-32.5566
11.5907
-36.143
14.8598
-34.238
14.5915
-8.45895
14.2605
-6.3729
13.9887
-4.95355
13.7757
-3.84582
13.61
-3.07452
13.4849
-2.43752
13.3911
-1.95926
13.3196
-1.62402
13.2627
-1.36053
13.2176
-1.17522
13.1819
-1.05389
13.1505
-0.981143
13.1238
-0.955
13.1029
-0.975437
13.0854
-1.04661
13.0763
-1.11159
13.077
-1.08927
-1.02024
-0.529159
-19.6517
0.657842
-20.1406
2.29514
-26.6145
4.11682
-27.5799
6.3251
-30.5093
9.17777
-35.4093
12.7555
-39.7208
16.3536
-37.8361
16.0618
-8.16712
15.6995
-6.01059
15.3979
-4.652
15.1624
-3.61027
14.9779
-2.88997
14.8396
-2.29924
14.735
-1.85473
14.6535
-1.54246
14.5904
-1.29746
14.5411
-1.12594
14.4986
-1.01137
14.4654
-0.947967
14.436
-0.925593
14.4102
-0.949571
14.3916
-1.02803
14.3826
-1.10264
14.3817
-1.08838
-1.03175
-0.570281
-20.9062
0.734585
-21.4455
2.53492
-28.4148
4.53747
-29.5825
6.9656
-32.9375
10.1022
-38.5459
14.0342
-43.6527
17.9957
-41.7976
17.68
-7.85144
17.2849
-5.61546
16.9494
-4.31649
16.6849
-3.34582
16.4795
-2.68449
16.3278
-2.14757
16.2131
-1.74006
16.1259
-1.4552
16.0594
-1.23096
16.0035
-1.07011
15.9592
-0.967041
15.9192
-0.907929
15.886
-0.892382
15.8576
-0.921227
15.8367
-1.00711
15.8265
-1.09246
15.8307
-1.09251
-1.04573
-0.613779
0.820821
2.79891
4.99922
7.66538
11.11
15.4348
19.7871
19.4572
19.0313
18.6688
18.3804
18.1529
17.978
17.8479
17.7487
17.6737
17.6179
17.5729
17.5385
17.509
17.4863
17.4667
17.4542
17.4533
)
;

boundaryField
{
    inlet
    {
        type            calculated;
        value           nonuniform List<scalar> 
26
(
-22.2858
-22.8801
-30.3929
-31.7828
-35.6036
-41.9905
-47.9776
-46.1499
-7.52156
-5.18954
-3.95397
-3.05745
-2.45694
-1.97268
-1.60993
-1.35609
-1.15588
-1.01434
-0.922047
-0.873555
-0.862825
-0.898517
-0.987585
-1.07995
-1.09159
-1.05808
)
;
    }
    outlet
    {
        type            calculated;
        value           nonuniform List<scalar> 0();
    }
    walls
    {
        type            calculated;
        value           nonuniform List<scalar> 0();
    }
    frontAndBack
    {
        type            empty;
    }
    procBoundary0to1
    {
        type            processor;
        value           nonuniform List<scalar> 
94
(
0.287839
-0.0519999
0.337641
-0.00465212
0.390852
0.0479225
0.421103
0.102929
0.419065
0.156784
0.406683
0.209033
0.227902
0.421623
0.281245
0.303721
0.413969
0.356965
0.383324
0.411103
0.424471
0.467321
0.499473
0.409004
0.557212
0.594112
0.63311
0.410646
0.695753
0.740177
0.78707
0.411443
0.856199
0.909287
0.398734
0.982922
1.04288
1.10615
0.405329
1.18947
1.26065
1.33583
0.416809
1.43109
1.5157
1.60495
0.434866
1.71496
1.815
1.92095
0.461959
2.04882
2.16756
2.29303
0.499651
2.4427
2.58344
2.73199
2.88868
0.574418
3.07503
3.2509
3.43665
3.63263
0.682257
3.86576
4.08578
4.31772
4.56268
4.82131
0.833268
5.12825
5.41781
5.72365
6.04614
6.38659
6.74597
0.985343
7.16639
7.56888
5.52197
6.07974
6.69094
7.36443
8.10406
8.92006
9.81734
0.990893
10.8139
11.8978
13.0866
14.3933
15.8446
17.4657
)
;
    }
    procBoundary0to4
    {
        type            processor;
        value           nonuniform List<scalar> 
72
(
0.21929
0.221571
0.224392
0.227615
0.23131
0.235474
0.240053
0.244903
0.250254
0.255963
0.262049
0.268531
0.275426
0.282709
0.290443
0.298639
0.307239
0.316299
0.325916
0.335987
0.346621
0.357805
-1.43956
0.272817
0.279961
0.287467
0.2954
0.303666
0.312388
0.321591
0.331212
0.341335
0.351984
0.363179
0.374967
0.387341
0.400372
0.4141
0.428514
0.443704
0.459728
0.476551
0.49428
0.512995
0.532661
0.553422
0.575301
0.598359
0.62267
0.648316
0.675346
0.703915
0.733992
0.765702
0.799302
0.834613
0.871954
0.91142
0.95298
0.684655
0.748885
0.818844
0.895252
0.978729
1.0699
1.16973
1.27855
1.39775
1.52776
1.67004
1.82477
1.99343
)
;
    }
    procBoundary0to5
    {
        type            processor;
        value           nonuniform List<scalar> 4(0.215096 0.217953 0.2293 0.281382);
    }
}


// ************************************************************************* //
