/*--------------------------------*- C++ -*----------------------------------*\
| =========                 |                                                 |
| \\      /  F ield         | OpenFOAM: The Open Source CFD Toolbox           |
|  \\    /   O peration     | Version:  2506                                  |
|   \\  /    A nd           | Website:  www.openfoam.com                      |
|    \\/     M anipulation  |                                                 |
\*---------------------------------------------------------------------------*/
FoamFile
{
    version     2.0;
    format      ascii;
    arch        "LSB;label=32;scalar=64";
    class       volSymmTensorField;
    location    "300";
    object      turbulenceProperties:devReff;
}
// * * * * * * * * * * * * * * * * * * * * * * * * * * * * * * * * * * * * * //

dimensions      [0 2 -2 0 0 0 0];

internalField   nonuniform List<symmTensor> 
1340
(
(8.38895e-05 -7.89132e-05 -3.0115e-21 -8.38208e-05 -1.16716e-21 -6.87148e-08)
(9.39183e-05 -6.41938e-05 2.25987e-20 -9.40088e-05 2.24883e-20 9.0475e-08)
(0.000101284 -4.85726e-05 4.96612e-20 -0.00010125 2.83393e-20 -3.47064e-08)
(0.000106361 -2.95631e-05 -7.91495e-20 -0.0001065 -8.79608e-20 1.38785e-07)
(0.000107695 -8.57615e-06 -1.11369e-19 -0.000107675 -9.45306e-20 -2.01055e-08)
(7.0497e-05 -6.77577e-05 1.04187e-20 -7.04522e-05 9.19153e-21 -4.48098e-08)
(7.89804e-05 -5.5496e-05 2.97719e-20 -7.90452e-05 1.58125e-20 6.4867e-08)
(8.53009e-05 -4.24515e-05 -6.97695e-20 -8.52757e-05 -4.92072e-20 -2.52158e-08)
(8.9801e-05 -2.66038e-05 1.00587e-20 -8.99172e-05 1.79702e-20 1.16129e-07)
(9.12452e-05 -9.03218e-06 1.05312e-19 -9.12175e-05 4.17925e-20 -2.76768e-08)
(8.88929e-05 9.0157e-06 -7.82718e-20 -8.8844e-05 -9.3098e-20 -4.8828e-08)
(5.96093e-05 -5.85846e-05 -5.32575e-21 -5.95728e-05 -4.93929e-21 -3.65269e-08)
(6.6853e-05 -4.82859e-05 -2.22893e-20 -6.68928e-05 -1.4841e-20 3.97842e-08)
(7.23141e-05 -3.72987e-05 -3.15059e-21 -7.22923e-05 4.69898e-22 -2.18332e-08)
(7.63211e-05 -2.39676e-05 4.1315e-20 -7.64145e-05 2.71728e-20 9.34487e-08)
(7.78084e-05 -9.12659e-06 -2.49265e-20 -7.77735e-05 -2.00716e-21 -3.48861e-08)
(7.61576e-05 6.16223e-06 9.11796e-20 -7.6115e-05 7.0562e-20 -4.25361e-08)
(7.1199e-05 2.11232e-05 1.51979e-19 -7.11684e-05 6.70511e-20 -3.06351e-08)
(5.06507e-05 -5.09442e-05 6.98004e-21 -5.06241e-05 4.91545e-21 -2.6629e-08)
(5.68943e-05 -4.22316e-05 9.82653e-21 -5.69208e-05 6.86656e-21 2.65427e-08)
(6.16471e-05 -3.2917e-05 2.61587e-20 -6.16277e-05 8.9669e-21 -1.93994e-08)
(6.52254e-05 -2.16165e-05 -7.14156e-20 -6.53038e-05 -4.85412e-20 7.84254e-08)
(6.67163e-05 -8.99474e-06 -3.54441e-20 -6.66772e-05 -2.60701e-20 -3.90872e-08)
(6.55813e-05 4.05255e-06 -8.86496e-20 -6.55468e-05 -5.50239e-20 -3.45292e-08)
(6.16861e-05 1.69138e-05 -1.0886e-19 -6.16672e-05 -2.98462e-20 -1.88667e-08)
(5.5008e-05 2.87559e-05 9.16862e-20 -5.50223e-05 1.7504e-20 1.43659e-08)
(4.32277e-05 -4.45239e-05 7.55755e-21 -4.32044e-05 3.92195e-21 -2.32866e-08)
(4.86471e-05 -3.70993e-05 1.59907e-21 -4.8667e-05 1.02842e-22 1.99742e-08)
(5.28106e-05 -2.91604e-05 -2.13526e-20 -5.27915e-05 -6.1365e-21 -1.90978e-08)
(5.60143e-05 -1.95153e-05 6.58185e-20 -5.60785e-05 4.40202e-20 6.41423e-08)
(5.74776e-05 -8.71453e-06 1.21918e-19 -5.74377e-05 5.54625e-20 -3.98583e-08)
(5.67266e-05 2.48879e-06 2.75011e-21 -5.6699e-05 1.37092e-20 -2.76149e-08)
(5.36433e-05 1.35987e-05 2.32015e-19 -5.36357e-05 9.70046e-20 -7.58642e-09)
(4.81789e-05 2.39128e-05 -6.77754e-20 -4.81915e-05 -6.58955e-20 1.25886e-08)
(4.08697e-05 3.23677e-05 -1.14652e-19 -4.08671e-05 -3.5227e-20 -2.63975e-09)
(3.70332e-05 -3.90768e-05 7.15912e-21 -3.70142e-05 3.36084e-21 -1.89797e-08)
(4.17626e-05 -3.27204e-05 -1.28364e-20 -4.17749e-05 -7.55292e-21 1.22999e-08)
(4.54317e-05 -2.59091e-05 -5.04938e-21 -4.54178e-05 -3.448e-21 -1.38382e-08)
(4.83062e-05 -1.76419e-05 -9.30685e-21 -4.83591e-05 3.477e-21 5.28877e-08)
(4.97209e-05 -8.34462e-06 9.23544e-20 -4.96842e-05 3.51748e-20 -3.67789e-08)
(4.92581e-05 1.32313e-06 -1.00753e-19 -4.92356e-05 -5.05643e-20 -2.25848e-08)
(4.68029e-05 1.09707e-05 1.05741e-20 -4.68018e-05 7.94157e-21 -1.19096e-09)
(4.23033e-05 1.99811e-05 4.08766e-20 -4.23157e-05 -4.90441e-21 1.24568e-08)
(3.62053e-05 2.74461e-05 -2.91711e-19 -3.62031e-05 -8.17124e-20 -2.20673e-09)
(2.91682e-05 3.29966e-05 7.00326e-20 -2.91588e-05 3.98534e-20 -9.38527e-09)
(3.18317e-05 -3.44188e-05 -1.04075e-20 -3.18178e-05 -3.96056e-21 -1.38081e-08)
(3.59796e-05 -2.89578e-05 8.64454e-21 -3.59859e-05 7.40917e-21 6.26609e-09)
(3.92263e-05 -2.30856e-05 5.81447e-20 -3.9214e-05 2.97538e-20 -1.22988e-08)
(4.18138e-05 -1.59589e-05 1.64454e-20 -4.18587e-05 3.70043e-22 4.49074e-08)
(4.31673e-05 -7.92097e-06 -6.98369e-20 -4.3133e-05 -2.81698e-20 -3.42641e-08)
(4.29188e-05 4.59695e-07 6.50915e-20 -4.29006e-05 3.30503e-20 -1.822e-08)
(4.09556e-05 8.86898e-06 -1.76692e-20 -4.09588e-05 -4.75587e-21 3.19833e-09)
(3.72294e-05 1.67653e-05 1.62523e-19 -3.72395e-05 6.07501e-20 1.01457e-08)
(3.21107e-05 2.33694e-05 5.33669e-20 -3.21091e-05 2.45982e-20 -1.51187e-09)
(2.61602e-05 2.83535e-05 -3.21911e-20 -2.61512e-05 -1.22262e-20 -8.98035e-09)
(2.74379e-05 -3.04124e-05 1.06689e-21 -2.74279e-05 -1.87833e-22 -1.00701e-08)
(3.10951e-05 -2.57009e-05 -2.63826e-21 -3.10983e-05 -3.54913e-21 3.23497e-09)
(3.39779e-05 -2.06217e-05 -4.9647e-20 -3.3967e-05 -2.82033e-20 -1.09276e-08)
(3.63108e-05 -1.44507e-05 -8.0999e-20 -3.63485e-05 -4.14477e-20 3.77124e-08)
(3.75962e-05 -7.46995e-06 -9.97258e-20 -3.75666e-05 -2.79082e-20 -2.96451e-08)
(3.75077e-05 -1.77561e-07 1.44261e-19 -3.74923e-05 5.32366e-20 -1.53292e-08)
(3.59329e-05 7.1776e-06 -1.32946e-19 -3.59392e-05 -5.58899e-20 6.3156e-09)
(3.28315e-05 1.41175e-05 3.19852e-20 -3.28407e-05 2.59862e-20 9.1528e-09)
(2.85146e-05 1.99694e-05 7.98601e-20 -2.85125e-05 2.49282e-20 -2.08858e-09)
(2.34567e-05 2.44417e-05 5.54846e-20 -2.34501e-05 2.1081e-20 -6.61369e-09)
(1.80132e-05 2.75634e-05 5.24555e-20 -1.80128e-05 1.46944e-20 -4.27581e-10)
(2.37089e-05 -2.69481e-05 1.32888e-20 -2.37007e-05 7.34344e-21 -8.18459e-09)
(2.69465e-05 -2.28672e-05 2.05531e-20 -2.69481e-05 1.1178e-20 1.5698e-09)
(2.95153e-05 -1.84591e-05 5.69506e-20 -2.95053e-05 2.32317e-20 -1.00093e-08)
(3.16228e-05 -1.30955e-05 -1.28519e-20 -3.16536e-05 -6.14919e-21 3.07999e-08)
(3.28357e-05 -7.00991e-06 4.8324e-20 -3.28108e-05 1.03989e-20 -2.48944e-08)
(3.28656e-05 -6.42716e-07 -1.57647e-19 -3.28528e-05 -5.53445e-20 -1.27683e-08)
(3.16007e-05 5.81058e-06 1.36036e-19 -3.16069e-05 7.35552e-20 6.1865e-09)
(2.90072e-05 1.19255e-05 1.84287e-19 -2.90158e-05 4.60866e-20 8.5732e-09)
(2.53502e-05 1.7117e-05 -1.13908e-20 -2.53483e-05 -1.69694e-20 -1.96409e-09)
(2.1031e-05 2.11304e-05 7.77159e-20 -2.10251e-05 -8.71392e-22 -5.95723e-09)
(1.636e-05 2.39835e-05 5.51677e-20 -1.63591e-05 1.23201e-20 -9.24253e-10)
(2.05309e-05 -2.39362e-05 -1.58929e-20 -2.05245e-05 -6.64899e-21 -6.30412e-09)
(2.34065e-05 -2.03912e-05 1.88826e-20 -2.34065e-05 6.77262e-21 -5.31094e-11)
(2.57026e-05 -1.65522e-05 -5.05585e-20 -2.56935e-05 -2.45609e-20 -9.10899e-09)
(2.76093e-05 -1.18758e-05 -4.13049e-20 -2.76345e-05 -1.56158e-20 2.52061e-08)
(2.87494e-05 -6.55533e-06 -1.09983e-20 -2.87283e-05 5.80573e-21 -2.10695e-08)
(2.88633e-05 -9.76406e-07 1.63903e-19 -2.88543e-05 5.91352e-20 -8.95995e-09)
(2.78493e-05 4.69818e-06 -1.93016e-20 -2.78549e-05 -2.3662e-20 5.59678e-09)
(2.56722e-05 1.01001e-05 -1.30896e-19 -2.56792e-05 -5.96055e-20 6.96328e-09)
(2.25603e-05 1.47142e-05 -1.08874e-19 -2.25588e-05 -4.20248e-20 -1.507e-09)
(1.88589e-05 1.83123e-05 -3.71136e-19 -1.8854e-05 -8.52743e-20 -4.91252e-09)
(1.48364e-05 2.0912e-05 5.05513e-20 -1.4836e-05 3.02977e-20 -3.43649e-10)
(1.07832e-05 2.25494e-05 2.02959e-19 -1.07808e-05 3.19612e-20 -2.38344e-09)
(1.78124e-05 -2.13051e-05 9.9814e-21 -1.78078e-05 4.36671e-21 -4.65673e-09)
(2.03734e-05 -1.82183e-05 3.50488e-21 -2.03725e-05 3.22052e-21 -8.88597e-10)
(2.24309e-05 -1.48657e-05 6.01979e-20 -2.24225e-05 2.69219e-20 -8.39523e-09)
(2.41587e-05 -1.07771e-05 9.39395e-20 -2.41795e-05 3.33409e-20 2.07806e-08)
(2.52279e-05 -6.11224e-06 -3.44444e-20 -2.52096e-05 -2.26694e-20 -1.83274e-08)
(2.54002e-05 -1.20948e-06 -1.37358e-19 -2.53937e-05 -4.89333e-20 -6.48438e-09)
(2.4588e-05 3.79152e-06 2.2275e-20 -2.45935e-05 3.66735e-21 5.50455e-09)
(2.27558e-05 8.57179e-06 -1.55069e-19 -2.27621e-05 -4.08101e-20 6.26199e-09)
(2.00978e-05 1.26778e-05 7.38048e-20 -2.00968e-05 4.4015e-20 -1.03893e-09)
(1.6914e-05 1.59049e-05 1.61458e-19 -1.69101e-05 5.70673e-20 -3.95091e-09)
(1.34381e-05 1.82681e-05 -9.64483e-20 -1.34374e-05 -3.1238e-20 -6.85334e-10)
(9.923e-06 1.97966e-05 -1.43384e-19 -9.91999e-06 -4.24649e-20 -3.01642e-09)
(1.54786e-05 -1.89983e-05 -1.14502e-20 -1.54751e-05 -3.13594e-21 -3.49404e-09)
(1.77655e-05 -1.63043e-05 3.63541e-20 -1.7764e-05 1.43051e-20 -1.53224e-09)
(1.96134e-05 -1.3369e-05 -1.89879e-20 -1.96059e-05 -8.72079e-21 -7.47573e-09)
(2.1181e-05 -9.78628e-06 -1.46512e-20 -2.11982e-05 -6.19384e-21 1.72321e-08)
(2.21807e-05 -5.68601e-06 -3.25776e-20 -2.21653e-05 -1.56096e-20 -1.53915e-08)
(2.2394e-05 -1.36745e-06 -9.96164e-20 -2.2389e-05 -3.23528e-20 -5.02136e-09)
(2.17446e-05 3.05032e-06 -5.98975e-20 -2.17496e-05 -2.15822e-20 5.01288e-09)
(2.01984e-05 7.28904e-06 -5.79725e-21 -2.02035e-05 1.06063e-20 5.03393e-09)
(1.79209e-05 1.09479e-05 6.85562e-20 -1.79193e-05 3.5096e-20 -1.60294e-09)
(1.51734e-05 1.38424e-05 7.15354e-20 -1.51697e-05 1.81503e-20 -3.70159e-09)
(1.21616e-05 1.59852e-05 1.59499e-19 -1.21613e-05 2.11137e-20 -2.33444e-10)
(9.1061e-06 1.74011e-05 -3.32404e-20 -9.10403e-06 -1.7696e-20 -2.06909e-09)
(1.3469e-05 -1.69685e-05 -8.6839e-21 -1.34669e-05 -4.57931e-21 -2.10071e-09)
(1.55162e-05 -1.46137e-05 -5.31221e-20 -1.55137e-05 -2.03726e-20 -2.46626e-09)
(1.71783e-05 -1.20377e-05 -3.32769e-20 -1.71719e-05 -1.24416e-20 -6.37215e-09)
(1.86021e-05 -8.89138e-06 -2.83828e-20 -1.86167e-05 -1.01192e-20 1.46364e-08)
(1.95352e-05 -5.27921e-06 -2.17468e-20 -1.9522e-05 -4.2066e-21 -1.3105e-08)
(1.97757e-05 -1.46743e-06 6.2702e-20 -1.97724e-05 1.18194e-20 -3.26441e-09)
(1.92589e-05 2.44202e-06 -2.80424e-19 -1.92635e-05 -8.51717e-20 4.6185e-09)
(1.79511e-05 6.20658e-06 1.93676e-20 -1.79557e-05 3.76984e-20 4.63796e-09)
(1.59941e-05 9.46998e-06 3.71324e-19 -1.59932e-05 9.37163e-20 -8.67774e-10)
(1.36167e-05 1.20669e-05 1.10369e-19 -1.36135e-05 2.3279e-21 -3.16321e-09)
(1.09987e-05 1.40082e-05 -2.79674e-19 -1.09981e-05 -8.28557e-20 -5.99598e-10)
(8.33623e-06 1.53142e-05 -2.10112e-19 -8.33377e-06 -3.00561e-20 -2.45734e-09)
(5.77768e-06 1.60587e-05 4.108e-20 -5.77442e-06 2.39444e-20 -3.26332e-09)
(1.17338e-05 -1.51776e-05 9.55644e-21 -1.17324e-05 3.142e-21 -1.41817e-09)
(1.35706e-05 -1.31146e-05 -1.5249e-20 -1.35681e-05 -4.08006e-21 -2.48567e-09)
(1.50682e-05 -1.0851e-05 5.73715e-20 -1.50621e-05 1.62378e-20 -6.1372e-09)
(1.63627e-05 -8.08173e-06 -1.4481e-19 -1.63751e-05 -5.4964e-20 1.24188e-08)
(1.72316e-05 -4.89335e-06 -1.09816e-19 -1.72203e-05 -3.28438e-20 -1.12511e-08)
(1.74892e-05 -1.52249e-06 -5.79838e-20 -1.74869e-05 -9.89472e-21 -2.32543e-09)
(1.70803e-05 1.94296e-06 1.32702e-19 -1.70845e-05 5.74818e-20 4.19944e-09)
(1.59717e-05 5.29148e-06 1.7262e-19 -1.59754e-05 2.96244e-20 3.61108e-09)
(1.42859e-05 8.20525e-06 -1.82875e-19 -1.42848e-05 -6.0019e-20 -1.06926e-09)
(1.22231e-05 1.05354e-05 1.48765e-19 -1.22207e-05 3.57163e-20 -2.42163e-09)
(9.94329e-06 1.22915e-05 1.45559e-20 -9.9431e-06 1.65631e-20 -1.95787e-10)
(7.61896e-06 1.34901e-05 -5.27413e-20 -7.61708e-06 8.95236e-21 -1.88175e-09)
(5.38099e-06 1.41965e-05 1.78287e-19 -5.37815e-06 4.13709e-20 -2.84191e-09)
(1.02324e-05 -1.35931e-05 -9.7929e-21 -1.02312e-05 -4.08439e-21 -1.23745e-09)
(1.18831e-05 -1.17822e-05 -2.11136e-20 -1.18809e-05 -6.16896e-21 -2.24278e-09)
(1.32347e-05 -9.79092e-06 3.95393e-20 -1.32292e-05 1.64525e-20 -5.47228e-09)
(1.44127e-05 -7.349e-06 7.24602e-20 -1.4423e-05 2.65278e-20 1.02959e-08)
(1.52207e-05 -4.52916e-06 1.15556e-19 -1.5211e-05 3.94057e-20 -9.70624e-09)
(1.54876e-05 -1.54428e-06 7.74806e-20 -1.54859e-05 2.90945e-20 -1.69548e-09)
(1.51665e-05 1.5328e-06 2.28969e-19 -1.51704e-05 4.98883e-20 3.91264e-09)
(1.42256e-05 4.51397e-06 -3.43226e-19 -1.42291e-05 -9.64744e-20 3.44548e-09)
(1.277e-05 7.11806e-06 3.02324e-20 -1.27691e-05 1.55508e-20 -8.93953e-10)
(1.09758e-05 9.21056e-06 -6.47084e-20 -1.09736e-05 -1.01304e-20 -2.19256e-09)
(8.98582e-06 1.07977e-05 1.32175e-19 -8.98528e-06 2.89098e-20 -5.44023e-10)
(6.95251e-06 1.1895e-05 4.89314e-20 -6.95041e-06 6.41783e-21 -2.1052e-09)
(4.99244e-06 1.25586e-05 9.93215e-20 -4.98983e-06 -8.98476e-23 -2.61408e-09)
(3.14488e-06 1.28742e-05 4.56958e-20 -3.14345e-06 -4.02851e-22 -1.43121e-09)
(8.93083e-06 -1.21871e-05 9.68325e-21 -8.92999e-06 3.98402e-21 -8.38705e-10)
(1.04161e-05 -1.0596e-05 3.33264e-20 -1.04137e-05 9.35345e-21 -2.3898e-09)
(1.16378e-05 -8.84104e-06 -7.63637e-20 -1.1633e-05 -2.46049e-20 -4.80556e-09)
(1.27102e-05 -6.68495e-06 2.92215e-20 -1.27192e-05 1.37428e-20 8.99051e-09)
(1.34607e-05 -4.18796e-06 9.45218e-20 -1.34524e-05 2.68356e-20 -8.25031e-09)
(1.37313e-05 -1.54108e-06 -2.35104e-20 -1.37301e-05 -1.39303e-20 -1.19504e-09)
(1.34815e-05 1.1953e-06 -1.23818e-19 -1.34852e-05 -2.86061e-20 3.69212e-09)
(1.26824e-05 3.85354e-06 2.71208e-19 -1.26849e-05 7.30952e-20 2.4469e-09)
(1.14229e-05 6.18293e-06 -2.27998e-19 -1.1422e-05 -5.99011e-20 -8.51385e-10)
(9.85965e-06 8.0612e-06 1.86165e-19 -9.85778e-06 4.98014e-20 -1.86726e-09)
(8.11957e-06 9.49488e-06 -7.0371e-20 -8.11933e-06 -3.24693e-20 -2.39257e-10)
(6.33798e-06 1.04966e-05 -7.79907e-20 -6.33625e-06 -1.47926e-20 -1.73038e-09)
(4.61846e-06 1.11156e-05 -1.70975e-19 -4.61621e-06 -2.93214e-20 -2.25233e-09)
(2.99675e-06 1.1428e-05 1.77274e-20 -2.99524e-06 5.54799e-21 -1.51932e-09)
(7.80016e-06 -1.09366e-05 -5.32157e-23 -7.79988e-06 -2.66064e-23 -2.85761e-10)
(9.13832e-06 -9.5378e-06 8.60627e-21 -9.13605e-06 1.87281e-21 -2.27098e-09)
(1.02438e-05 -7.98931e-06 -4.5991e-20 -1.02394e-05 -1.29947e-20 -4.41216e-09)
(1.12209e-05 -6.08232e-06 8.39619e-20 -1.12285e-05 2.44175e-20 7.67179e-09)
(1.1917e-05 -3.86856e-06 -1.08809e-19 -1.19101e-05 -3.08898e-20 -6.8582e-09)
(1.2187e-05 -1.51834e-06 1.37254e-19 -1.21861e-05 4.44572e-20 -9.44096e-10)
(1.19955e-05 9.17561e-07 1.27202e-19 -1.1999e-05 2.78061e-20 3.51427e-09)
(1.13162e-05 3.28976e-06 -1.21779e-19 -1.13187e-05 -3.91758e-20 2.46333e-09)
(1.02249e-05 5.37487e-06 -1.56031e-20 -1.02241e-05 7.70344e-21 -7.9783e-10)
(8.86024e-06 7.06223e-06 1.73297e-20 -8.85861e-06 -1.39377e-20 -1.62252e-09)
(7.33587e-06 8.35683e-06 -9.0495e-20 -7.3355e-06 -1.47656e-20 -3.72204e-10)
(5.77236e-06 9.26953e-06 1.16552e-19 -5.77071e-06 2.65113e-20 -1.65312e-09)
(4.26228e-06 9.84354e-06 7.35742e-20 -4.26024e-06 2.63231e-20 -2.04074e-09)
(2.83782e-06 1.01472e-05 1.02115e-20 -2.83633e-06 -1.18659e-20 -1.4953e-09)
(6.81632e-06 -9.82283e-06 -1.70393e-21 -6.81627e-06 -6.96938e-22 -4.72412e-11)
(8.02369e-06 -8.59166e-06 7.34007e-21 -8.02144e-06 2.14309e-21 -2.2519e-09)
(9.02493e-06 -7.22403e-06 -2.75213e-21 -9.02094e-06 -2.2645e-21 -3.98849e-09)
(9.91541e-06 -5.53559e-06 -4.84696e-20 -9.92208e-06 -1.74885e-20 6.67459e-09)
(1.05606e-05 -3.57055e-06 -1.15216e-19 -1.05548e-05 -3.38621e-20 -5.81576e-09)
(1.08266e-05 -1.48118e-06 -8.01559e-20 -1.0826e-05 -2.373e-20 -6.95159e-10)
(1.06828e-05 6.89437e-07 -1.369e-19 -1.06858e-05 -3.76757e-20 3.02925e-09)
(1.01049e-05 2.80898e-06 5.43074e-20 -1.01069e-05 1.73725e-20 2.06348e-09)
(9.15816e-06 4.67627e-06 2.67142e-20 -9.1574e-06 2.57303e-21 -7.52821e-10)
(7.96519e-06 6.19238e-06 -2.79796e-19 -7.96379e-06 -5.41543e-20 -1.39273e-09)
(6.62799e-06 7.36074e-06 -5.33601e-20 -6.62765e-06 2.51982e-21 -3.34794e-10)
(5.25393e-06 8.19092e-06 -1.1484e-19 -5.25248e-06 -2.18186e-20 -1.44823e-09)
(3.92622e-06 8.72096e-06 2.01602e-19 -3.92449e-06 2.78395e-20 -1.72766e-09)
(2.67416e-06 9.01191e-06 -2.08604e-19 -2.67304e-06 -3.24127e-20 -1.12087e-09)
(1.50832e-06 9.1121e-06 -8.50444e-20 -1.50776e-06 -8.56776e-21 -5.58705e-10)
(5.95922e-06 -8.82906e-06 1.01158e-20 -5.95929e-06 3.79706e-21 7.32877e-11)
(7.04949e-06 -7.74432e-06 3.5048e-20 -7.04738e-06 1.14136e-20 -2.11677e-09)
(7.95732e-06 -6.53541e-06 6.29679e-20 -7.95355e-06 1.94751e-20 -3.76853e-09)
(8.76941e-06 -5.03895e-06 6.26289e-20 -8.77525e-06 1.91489e-20 5.84626e-09)
(9.36668e-06 -3.29304e-06 9.70785e-20 -9.36172e-06 2.79941e-20 -4.96873e-09)
(9.62644e-06 -1.43352e-06 9.47833e-20 -9.62585e-06 1.84271e-20 -5.9158e-10)
(9.52166e-06 5.02295e-07 -2.41152e-19 -9.52434e-06 -6.29772e-20 2.67993e-09)
(9.02984e-06 2.39737e-06 -1.19794e-19 -9.03167e-06 -1.83873e-20 1.82637e-09)
(8.20752e-06 4.071e-06 1.66147e-19 -8.20677e-06 4.1052e-20 -7.53264e-10)
(7.16325e-06 5.43353e-06 3.27273e-19 -7.16207e-06 8.0449e-20 -1.17734e-09)
(5.9887e-06 6.48777e-06 1.5916e-19 -5.98839e-06 2.46548e-20 -3.10944e-10)
(4.77987e-06 7.24193e-06 -2.87571e-20 -4.77843e-06 -6.92108e-21 -1.43744e-09)
(3.61094e-06 7.72971e-06 -6.58016e-20 -3.60931e-06 -1.62795e-20 -1.63286e-09)
(2.50943e-06 8.00549e-06 2.48959e-19 -2.50817e-06 4.52393e-20 -1.26427e-09)
(1.48354e-06 8.11352e-06 -4.37068e-20 -1.48299e-06 -9.73573e-21 -5.56371e-10)
(5.21164e-06 -7.94066e-06 8.2358e-21 -5.21191e-06 2.17413e-21 2.73663e-10)
(6.19688e-06 -6.98437e-06 -6.92857e-21 -6.1949e-06 -2.8617e-21 -1.97679e-09)
(7.02069e-06 -5.91509e-06 -2.45574e-20 -7.01724e-06 -7.55183e-21 -3.45163e-09)
(7.76165e-06 -4.58786e-06 -2.3849e-20 -7.76671e-06 -1.1479e-20 5.05843e-09)
(8.31387e-06 -3.03495e-06 -2.60431e-19 -8.3099e-06 -7.08164e-20 -3.9724e-09)
(8.56573e-06 -1.37895e-06 -4.85168e-20 -8.56523e-06 -4.66026e-21 -5.00512e-10)
(8.49298e-06 3.49273e-07 1.29157e-19 -8.49534e-06 3.77544e-20 2.36607e-09)
(8.07453e-06 2.0448e-06 1.12933e-19 -8.07618e-06 2.31302e-20 1.64256e-09)
(7.35962e-06 3.54557e-06 -2.68837e-19 -7.35897e-06 -5.86188e-20 -6.54097e-10)
(6.44451e-06 4.77054e-06 4.21664e-20 -6.44347e-06 -4.2609e-22 -1.0415e-09)
(5.41169e-06 5.72183e-06 -2.57043e-20 -5.41134e-06 -4.91875e-21 -3.53257e-10)
(4.34725e-06 6.40612e-06 5.80993e-21 -4.34601e-06 5.74633e-21 -1.24494e-09)
(3.31747e-06 6.8536e-06 -7.75758e-20 -3.31618e-06 -7.81236e-21 -1.29648e-09)
(2.34738e-06 7.11321e-06 -1.45053e-19 -2.34624e-06 -3.2911e-20 -1.13631e-09)
(1.4447e-06 7.22455e-06 1.12829e-21 -1.44402e-06 8.21022e-22 -6.81806e-10)
(4.55879e-06 -7.14552e-06 -2.30396e-21 -4.55919e-06 -4.96784e-22 3.95591e-10)
(5.44982e-06 -6.30212e-06 2.3787e-20 -5.44789e-06 6.7477e-21 -1.92033e-09)
(6.19784e-06 -5.35559e-06 2.26026e-20 -6.19475e-06 5.96161e-21 -3.08648e-09)
(6.87433e-06 -4.1776e-06 7.97056e-21 -6.87866e-06 1.89085e-21 4.32323e-09)
(7.38455e-06 -2.79512e-06 3.27658e-20 -7.38127e-06 1.45924e-20 -3.28665e-09)
(7.62723e-06 -1.31929e-06 2.12705e-19 -7.6267e-06 5.06674e-20 -5.23878e-10)
(7.58043e-06 2.24732e-07 -1.23635e-19 -7.58257e-06 -3.37448e-20 2.13963e-09)
(7.22482e-06 1.74257e-06 8.46114e-20 -7.22615e-06 3.14115e-20 1.3236e-09)
(6.60268e-06 3.08907e-06 2.96469e-19 -6.60212e-06 5.7322e-20 -5.55832e-10)
(5.80013e-06 4.19059e-06 -2.21514e-19 -5.79924e-06 -4.56729e-20 -8.86959e-10)
(4.89116e-06 5.04863e-06 1.79367e-19 -4.89094e-06 3.63918e-20 -2.24976e-10)
(3.95273e-06 5.66934e-06 1.25648e-19 -3.95151e-06 1.47802e-20 -1.21788e-09)
(3.04502e-06 6.07908e-06 2.16706e-19 -3.04364e-06 3.26782e-20 -1.37479e-09)
(2.18991e-06 6.32194e-06 -2.19351e-20 -2.18914e-06 -3.69003e-21 -7.61947e-10)
(1.39577e-06 6.43345e-06 -9.06119e-20 -1.39508e-06 -1.09353e-20 -6.83385e-10)
(6.66379e-07 6.44039e-06 -1.07382e-19 -6.65628e-07 -9.76044e-21 -7.50578e-10)
(3.9883e-06 -6.43303e-06 2.62092e-21 -3.98877e-06 -9.63973e-25 4.75048e-10)
(4.79466e-06 -5.68879e-06 -5.96614e-20 -4.7928e-06 -1.55633e-20 -1.86724e-09)
(5.47407e-06 -4.8505e-06 7.30407e-20 -5.47134e-06 2.01272e-20 -2.72822e-09)
(6.09188e-06 -3.80432e-06 -2.32003e-20 -6.09573e-06 -4.34504e-21 3.84731e-09)
(6.56319e-06 -2.57294e-06 1.93796e-19 -6.56045e-06 4.80315e-20 -2.7411e-09)
(6.79571e-06 -1.25662e-06 -1.28807e-19 -6.79527e-06 -3.5457e-20 -4.40196e-10)
(6.77005e-06 1.23573e-07 2.02991e-20 -6.77198e-06 1.22688e-20 1.93919e-09)
(6.46817e-06 1.4833e-06 3.12799e-19 -6.46932e-06 5.67487e-20 1.15394e-09)
(5.92657e-06 2.692e-06 -3.57635e-19 -5.92599e-06 -7.88402e-20 -5.73181e-10)
(5.22208e-06 3.68287e-06 1.46917e-19 -5.22127e-06 3.81184e-20 -8.11909e-10)
(4.42153e-06 4.4568e-06 -2.24196e-19 -4.42121e-06 -5.48093e-20 -3.19097e-10)
(3.59379e-06 5.01936e-06 -2.81163e-19 -3.59284e-06 -5.06485e-20 -9.58129e-10)
(2.79304e-06 5.39362e-06 -1.45329e-19 -2.79194e-06 -2.63192e-20 -1.09771e-09)
(2.03892e-06 5.61972e-06 5.25912e-20 -2.03812e-06 1.58095e-20 -8.01597e-10)
(1.33933e-06 5.72964e-06 1.45775e-19 -1.33877e-06 2.12699e-20 -5.64156e-10)
(6.98018e-07 5.74732e-06 6.53121e-20 -6.97325e-07 1.34983e-20 -6.92614e-10)
(4.21949e-06 -5.13682e-06 -2.1082e-20 -4.21779e-06 -6.06032e-21 -1.70574e-09)
(4.83692e-06 -4.39419e-06 -2.38327e-20 -4.83441e-06 -6.19847e-21 -2.50531e-09)
(5.40128e-06 -3.46443e-06 -9.11609e-21 -5.40465e-06 -4.37628e-21 3.36987e-09)
(5.83638e-06 -2.36703e-06 -1.41313e-19 -5.83413e-06 -3.19475e-20 -2.24555e-09)
(6.05826e-06 -1.19234e-06 2.2823e-19 -6.05787e-06 5.53289e-20 -3.83514e-10)
(6.0497e-06 4.21325e-08 -9.40015e-20 -6.05136e-06 -3.14877e-20 1.6537e-09)
(5.7937e-06 1.2609e-06 -4.04426e-19 -5.79481e-06 -8.67509e-20 1.11079e-09)
(5.32226e-06 2.34607e-06 3.5208e-19 -5.32175e-06 8.82431e-20 -5.08387e-10)
(4.70349e-06 3.23772e-06 5.02983e-20 -4.70287e-06 8.79179e-22 -6.22882e-10)
(3.99805e-06 3.93579e-06 1.09116e-19 -3.99776e-06 3.55476e-20 -2.85451e-10)
(3.26717e-06 4.44561e-06 1.28546e-19 -3.26624e-06 2.83292e-20 -9.27165e-10)
(2.56027e-06 4.78728e-06 -1.23226e-20 -2.55917e-06 7.24789e-21 -1.10439e-09)
(1.89534e-06 4.99677e-06 2.85448e-20 -1.89457e-06 -1.61477e-21 -7.66666e-10)
(1.2788e-06 5.10338e-06 -1.50689e-19 -1.27832e-06 -2.45705e-20 -4.80902e-10)
(7.14292e-07 5.12867e-06 8.21604e-20 -7.13711e-07 8.71872e-21 -5.80265e-10)
(1.92479e-07 5.08932e-06 -1.5466e-19 -1.92296e-07 -2.26612e-20 -1.83147e-10)
(3.71416e-06 -4.63965e-06 -1.51424e-20 -3.71261e-06 -3.43014e-21 -1.55177e-09)
(4.27545e-06 -3.98161e-06 3.87966e-20 -4.27325e-06 8.59084e-21 -2.20412e-09)
(4.79109e-06 -3.15499e-06 -1.16003e-19 -4.79399e-06 -2.91925e-20 2.89762e-09)
(5.19259e-06 -2.17636e-06 3.03586e-20 -5.19077e-06 6.13264e-21 -1.82162e-09)
(5.40361e-06 -1.12759e-06 -2.18032e-19 -5.40326e-06 -5.23779e-20 -3.49948e-10)
(5.40872e-06 -2.28611e-08 5.0024e-20 -5.41021e-06 1.39212e-20 1.48356e-09)
(5.19216e-06 1.07003e-06 1.45799e-20 -5.19306e-06 9.04148e-21 8.99128e-10)
(4.78164e-06 2.04491e-06 -1.82782e-20 -4.78113e-06 -1.23387e-20 -5.09026e-10)
(4.23798e-06 2.84741e-06 -5.18158e-20 -4.23735e-06 -5.37565e-21 -6.20219e-10)
(3.61593e-06 3.47718e-06 2.82507e-19 -3.61563e-06 4.73175e-20 -2.99154e-10)
(2.9705e-06 3.93886e-06 -3.33279e-20 -2.96963e-06 -1.18299e-20 -8.61808e-10)
(2.34625e-06 4.25028e-06 2.5244e-19 -2.34534e-06 3.54205e-20 -9.05181e-10)
(1.75933e-06 4.44397e-06 -8.01829e-20 -1.75869e-06 -1.47103e-20 -6.45655e-10)
(1.21602e-06 4.5463e-06 8.90922e-20 -1.21544e-06 1.91658e-20 -5.74845e-10)
(7.18923e-07 4.5769e-06 -7.11653e-20 -7.18451e-07 -1.36204e-20 -4.71986e-10)
(2.60395e-07 4.55084e-06 1.17481e-19 -2.60167e-07 2.3129e-20 -2.28614e-10)
(3.26986e-06 -4.19153e-06 -7.4543e-20 -3.2684e-06 -1.87852e-20 -1.4612e-09)
(3.78037e-06 -3.60816e-06 -9.31825e-21 -3.77841e-06 4.27855e-22 -1.96612e-09)
(4.25152e-06 -2.87302e-06 1.88253e-19 -4.25405e-06 4.61373e-20 2.52393e-09)
(4.6219e-06 -2.00003e-06 1.62903e-21 -4.62035e-06 -3.38095e-22 -1.54635e-09)
(4.82196e-06 -1.06313e-06 1.36425e-19 -4.82164e-06 3.08313e-20 -3.20268e-10)
(4.83794e-06 -7.41304e-08 -1.58953e-19 -4.83925e-06 -3.79992e-20 1.31478e-09)
(4.65526e-06 9.06164e-07 2.18405e-20 -4.65604e-06 7.98393e-21 7.80325e-10)
(4.29773e-06 1.78229e-06 -6.4853e-20 -4.29732e-06 -9.08697e-21 -4.0036e-10)
(3.81998e-06 2.50468e-06 5.60426e-20 -3.81949e-06 7.49696e-21 -4.88975e-10)
(3.27132e-06 3.0729e-06 -1.50125e-19 -3.27107e-06 -4.14277e-20 -2.45529e-10)
(2.70101e-06 3.49097e-06 -7.96115e-20 -2.70028e-06 -6.76959e-21 -7.32068e-10)
(2.14951e-06 3.7747e-06 -2.82256e-19 -2.14861e-06 -4.75851e-20 -9.08027e-10)
(1.63129e-06 3.95346e-06 8.07932e-20 -1.63076e-06 1.93265e-20 -5.26623e-10)
(1.1524e-06 4.05082e-06 3.89465e-20 -1.15199e-06 2.55312e-21 -4.07718e-10)
(7.14724e-07 4.08488e-06 -2.95534e-20 -7.14282e-07 -4.71186e-22 -4.41958e-10)
(3.11693e-07 4.0694e-06 -3.60688e-20 -3.11521e-07 -4.84441e-21 -1.71386e-10)
(2.87899e-06 -3.7873e-06 5.35773e-20 -2.87766e-06 1.41213e-20 -1.32914e-09)
(3.34338e-06 -3.27004e-06 8.85252e-20 -3.34166e-06 2.03913e-20 -1.71497e-09)
(3.77397e-06 -2.61606e-06 -7.95312e-20 -3.77618e-06 -2.26401e-20 2.20953e-09)
(4.11548e-06 -1.83712e-06 -2.11051e-19 -4.11423e-06 -4.69646e-20 -1.24619e-09)
(4.30463e-06 -9.99838e-07 1.88759e-20 -4.30441e-06 4.20277e-21 -2.2771e-10)
(4.32924e-06 -1.14058e-07 -4.32689e-20 -4.3304e-06 -6.44723e-21 1.1546e-09)
(4.17559e-06 7.65729e-07 1.32715e-19 -4.17629e-06 3.05539e-20 7.00498e-10)
(3.86439e-06 1.55333e-06 1.8337e-19 -3.86394e-06 3.26157e-20 -4.49197e-10)
(3.44448e-06 2.2038e-06 -1.17397e-19 -3.44401e-06 -2.26111e-20 -4.68049e-10)
(2.96029e-06 2.71663e-06 -1.76476e-19 -2.96006e-06 -2.26233e-20 -2.29935e-10)
(2.45638e-06 3.0951e-06 3.44146e-19 -2.45566e-06 5.98169e-20 -7.17524e-10)
(1.96894e-06 3.35341e-06 1.75889e-19 -1.96822e-06 3.26011e-20 -7.2026e-10)
(1.51124e-06 3.51798e-06 -5.14573e-20 -1.51071e-06 -1.63826e-20 -5.32329e-10)
(1.08872e-06 3.61026e-06 2.06856e-20 -1.08824e-06 2.22915e-21 -4.78263e-10)
(7.03517e-07 3.64638e-06 1.50088e-19 -7.03077e-07 2.3754e-20 -4.39966e-10)
(3.49153e-07 3.63904e-06 1.32476e-19 -3.49038e-07 1.89628e-20 -1.1507e-10)
(2.1101e-08 3.59568e-06 2.04105e-20 -2.08939e-08 1.84516e-21 -2.071e-10)
(2.53498e-06 -3.4224e-06 -1.28344e-20 -2.53377e-06 -3.74464e-21 -1.21693e-09)
(2.9575e-06 -2.96369e-06 -9.98751e-20 -2.956e-06 -2.35013e-20 -1.50043e-09)
(3.35108e-06 -2.38177e-06 1.47989e-20 -3.35299e-06 7.52441e-21 1.90793e-09)
(3.66591e-06 -1.68647e-06 3.21395e-19 -3.66484e-06 7.00755e-20 -1.07373e-09)
(3.84436e-06 -9.37931e-07 -2.43537e-19 -3.84413e-06 -5.57193e-20 -2.38887e-10)
(3.8756e-06 -1.44412e-07 2.17531e-20 -3.87662e-06 6.98007e-21 1.0206e-09)
(3.74683e-06 6.45322e-07 -1.10239e-20 -3.74745e-06 -3.07865e-21 6.20167e-10)
(3.47609e-06 1.35356e-06 -1.20779e-19 -3.47575e-06 -1.943e-20 -3.39006e-10)
(3.10706e-06 1.93939e-06 3.34276e-19 -3.10666e-06 5.88842e-20 -4.03007e-10)
(2.67966e-06 2.40242e-06 1.99977e-20 -2.67947e-06 -6.88688e-21 -1.85113e-10)
(2.23433e-06 2.74502e-06 -3.33061e-19 -2.23364e-06 -6.27246e-20 -6.89071e-10)
(1.80324e-06 2.98023e-06 8.60311e-20 -1.80257e-06 1.21346e-20 -6.67828e-10)
(1.39904e-06 3.13154e-06 -1.57358e-19 -1.39859e-06 -2.53454e-20 -4.5006e-10)
(1.0263e-06 3.21848e-06 -1.4537e-19 -1.02598e-06 -2.37492e-20 -3.21685e-10)
(6.87155e-07 3.25563e-06 -6.74848e-20 -6.86732e-07 -1.16158e-20 -4.22712e-10)
(3.75287e-07 3.25465e-06 2.44594e-20 -3.75195e-07 1.4875e-21 -9.19569e-11)
(8.74304e-08 3.22236e-06 1.8609e-20 -8.7202e-08 1.5291e-21 -2.28395e-10)
(2.23212e-06 -3.09289e-06 -3.55132e-20 -2.23097e-06 -7.67315e-21 -1.15234e-09)
(2.61659e-06 -2.686e-06 6.41617e-20 -2.61528e-06 1.5519e-20 -1.30257e-09)
(2.97635e-06 -2.16811e-06 4.46643e-20 -2.97801e-06 6.01328e-21 1.65958e-09)
(3.26646e-06 -1.54742e-06 -3.4962e-19 -3.26558e-06 -7.58217e-20 -8.82473e-10)
(3.43444e-06 -8.78099e-07 2.53246e-19 -3.43427e-06 5.8416e-20 -1.68245e-10)
(3.47071e-06 -1.66923e-07 -9.08088e-20 -3.47163e-06 -1.68898e-20 9.17811e-10)
(3.36338e-06 5.42325e-07 2.85092e-19 -3.36388e-06 5.76233e-20 4.99236e-10)
(3.12794e-06 1.17938e-06 2.01521e-19 -3.12761e-06 3.01149e-20 -3.29115e-10)
(2.80362e-06 1.70721e-06 -5.02203e-19 -2.80324e-06 -9.73973e-20 -3.7652e-10)
(2.42638e-06 2.1252e-06 -2.30797e-19 -2.42621e-06 -3.39719e-20 -1.70787e-10)
(2.03272e-06 2.43542e-06 9.64004e-20 -2.0321e-06 2.48148e-20 -6.15109e-10)
(1.65151e-06 2.64949e-06 -3.67283e-20 -1.65091e-06 -8.2431e-21 -5.94769e-10)
(1.2943e-06 2.78849e-06 1.14482e-19 -1.29385e-06 2.44054e-20 -4.45669e-10)
(9.65374e-07 2.87019e-06 -9.02577e-20 -9.65e-07 -1.11382e-20 -3.74455e-10)
(6.66538e-07 2.90769e-06 -3.05991e-20 -6.66204e-07 -4.25572e-21 -3.33798e-10)
(3.92518e-07 2.91153e-06 -2.02339e-20 -3.92388e-07 -5.68766e-22 -1.3061e-10)
(1.39562e-07 2.88815e-06 -1.97179e-20 -1.39421e-07 -3.94309e-21 -1.40679e-10)
(1.96538e-06 -2.79514e-06 3.08107e-21 -1.96434e-06 1.35051e-21 -1.04854e-09)
(2.31522e-06 -2.43425e-06 7.49187e-20 -2.31407e-06 1.63872e-20 -1.14425e-09)
(2.64406e-06 -1.97324e-06 -8.27458e-20 -2.64552e-06 -1.73707e-20 1.46009e-09)
(2.91137e-06 -1.41905e-06 1.88851e-19 -2.91062e-06 4.17806e-20 -7.51414e-10)
(3.06926e-06 -8.20325e-07 -9.74421e-20 -3.06908e-06 -2.21178e-20 -1.73582e-10)
(3.10922e-06 -1.82809e-07 1.48275e-19 -3.11001e-06 2.88559e-20 7.89062e-10)
(3.02021e-06 4.54252e-07 -2.69717e-19 -3.02067e-06 -6.00885e-20 4.66834e-10)
(2.81571e-06 1.02742e-06 -2.94275e-20 -2.81537e-06 -4.81767e-21 -3.40786e-10)
(2.53065e-06 1.50318e-06 4.18372e-19 -2.53033e-06 8.75595e-20 -3.24244e-10)
(2.19772e-06 1.88056e-06 -2.29046e-20 -2.19756e-06 1.40296e-23 -1.60351e-10)
(1.84965e-06 2.16153e-06 -6.13867e-20 -1.8491e-06 -9.85494e-21 -5.47484e-10)
(1.51247e-06 2.35637e-06 -1.74457e-20 -1.51197e-06 9.63904e-22 -5.008e-10)
(1.19686e-06 2.484e-06 1.51063e-19 -1.19648e-06 2.41307e-20 -3.77582e-10)
(9.06532e-07 2.56051e-06 9.00199e-20 -9.06233e-07 1.41696e-20 -2.99008e-10)
(6.43142e-07 2.59775e-06 -9.48479e-20 -6.42849e-07 -1.54245e-20 -2.92934e-10)
(4.02174e-07 2.60533e-06 1.43549e-19 -4.02046e-07 2.24114e-20 -1.28011e-10)
(1.79978e-07 2.58912e-06 2.48588e-20 -1.79833e-07 3.0245e-21 -1.44496e-10)
(-2.74992e-08 2.55255e-06 -1.21636e-19 2.75713e-08 -1.528e-20 -7.20444e-11)
(1.73039e-06 -2.52594e-06 -9.03653e-21 -1.72945e-06 -2.85308e-21 -9.36693e-10)
(2.04875e-06 -2.20588e-06 -1.15e-19 -2.04774e-06 -2.51178e-20 -1.00822e-09)
(2.34931e-06 -1.79546e-06 2.67617e-20 -2.35059e-06 6.89102e-21 1.28692e-09)
(2.5955e-06 -1.30061e-06 1.89347e-20 -2.59489e-06 2.07301e-21 -6.15315e-10)