/*--------------------------------*- C++ -*----------------------------------*\
| =========                 |                                                 |
| \\      /  F ield         | OpenFOAM: The Open Source CFD Toolbox           |
|  \\    /   O peration     | Version:  2506                                  |
|   \\  /    A nd           | Website:  www.openfoam.com                      |
|    \\/     M anipulation  |                                                 |
\*---------------------------------------------------------------------------*/
FoamFile
{
    version     2.0;
    format      ascii;
    arch        "LSB;label=32;scalar=64";
    class       volScalarField;
    location    "300";
    object      turbulenceProperties:I;
}
// * * * * * * * * * * * * * * * * * * * * * * * * * * * * * * * * * * * * * //

dimensions      [0 0 0 0 0 0 0];

internalField   nonuniform List<scalar> 
1340
(
0.00080956
0.000837905
0.000867265
0.000900727
0.000936862
0.000740433
0.000763332
0.000786831
0.000813434
0.000841652
0.000868282
0.000679323
0.000697927
0.000716839
0.000738193
0.000760492
0.000781277
0.000800085
0.000625007
0.00064021
0.000655532
0.000672801
0.000690618
0.000707051
0.000721917
0.000733389
0.000576558
0.00058902
0.00060151
0.000615556
0.00062992
0.000643062
0.000654919
0.000663966
0.000668346
0.000533154
0.000543391
0.000553621
0.000565113
0.000576768
0.000587371
0.000596891
0.000604093
0.000607567
0.000606919
0.000494104
0.000502543
0.000510934
0.000520384
0.000529893
0.00053851
0.000546193
0.000551952
0.00055472
0.000554202
0.000458833
0.000465812
0.000472713
0.000480496
0.000488289
0.00049533
0.000501549
0.000506169
0.000508378
0.00050794
0.000504903
0.000426866
0.000432639
0.000438323
0.000444745
0.000451148
0.000456926
0.000461963
0.000465675
0.000467429
0.000467032
0.000464536
0.000397792
0.000402565
0.000407245
0.000412549
0.000417824
0.000422562
0.000426649
0.000429625
0.000431008
0.000430624
0.000428539
0.000424865
0.000371261
0.000375202
0.000379049
0.000383432
0.000387785
0.000391657
0.00039497
0.000397351
0.000398418
0.000398034
0.000396258
0.000393187
0.000346979
0.000350226
0.000353379
0.000356999
0.000360589
0.000363743
0.000366416
0.00036831
0.000369117
0.00036872
0.00036718
0.000364574
0.000324692
0.000327363
0.000329931
0.000332913
0.000335868
0.000338427
0.000340571
0.000342063
0.000342647
0.00034223
0.000340865
0.000338629
0.000335625
0.000304186
0.000306373
0.000308452
0.000310899
0.00031332
0.000315381
0.000317088
0.00031824
0.000318638
0.000318197
0.000316969
0.000315017
0.000312435
0.000285275
0.000287048
0.000288724
0.000290718
0.000292692
0.000294337
0.000295677
0.000296546
0.000296781
0.000296313
0.000295187
0.000293466
0.000291223
0.000288517
0.000267795
0.000269219
0.000270556
0.000272167
0.000273764
0.000275061
0.00027609
0.000276724
0.000276822
0.000276326
0.000275281
0.000273741
0.000271765
0.000269406
0.000251603
0.000252736
0.000253785
0.00025507
0.000256351
0.000257355
0.000258123
0.000258559
0.000258539
0.000258017
0.000257034
0.000255639
0.000253882
0.000251807
0.000236577
0.000237466
0.000238272
0.000239281
0.000240294
0.000241051
0.000241598
0.000241868
0.00024175
0.000241205
0.000240269
0.00023899
0.00023741
0.000235567
0.000233475
0.000222612
0.00022329
0.000223894
0.00022467
0.000225455
0.000226005
0.00022637
0.000226497
0.000226295
0.000225728
0.000224831
0.000223646
0.00022221
0.000220557
0.000218698
0.000209608
0.000210107
0.000210543
0.000211125
0.000211712
0.00021209
0.000212303
0.00021231
0.000212038
0.000211452
0.000210588
0.000209481
0.000208164
0.000206667
0.000205
0.000197482
0.000197832
0.000198125
0.000198544
0.000198963
0.000199198
0.000199284
0.000199192
0.00019886
0.00019826
0.000197422
0.000196379
0.000195164
0.000193799
0.000192291
0.000190642
0.00018616
0.000186383
0.000186557
0.000186839
0.000187119
0.000187231
0.000187212
0.000187039
0.000186659
0.000186048
0.000185233
0.000184248
0.000183115
0.000181859
0.000180489
0.000179001
0.000175692
0.000175767
0.000175932
0.000176095
0.000176107
0.000176002
0.000175763
0.000175345
0.000174726
0.000173932
0.000172995
0.000171936
0.000170774
0.000169518
0.000168165
0.000166696
0.000165695
0.000165688
0.000165757
0.000165821
0.000165752
0.000165576
0.000165283
0.000164836
0.000164215
0.000163443
0.000162549
0.000161553
0.000160472
0.000159314
0.000158078
0.000156744
0.000156336
0.000156262
0.000156251
0.000156234
0.000156099
0.000155867
0.000155533
0.000155063
0.000154443
0.000153693
0.000152838
0.000151898
0.00015089
0.000149818
0.000148682
0.000147468
0.000147565
0.000147437
0.00014736
0.000147277
0.000147088
0.000146813
0.000146448
0.000145964
0.000145348
0.00014462
0.000143803
0.000142915
0.00014197
0.000140974
0.000139927
0.000138815
0.000137617
0.000139337
0.000139165
0.000139036
0.000138898
0.000138668
0.000138361
0.000137972
0.000137482
0.000136875
0.000136171
0.00013539
0.000134549
0.000133663
0.000132735
0.000131766
0.000130745
0.000129652
0.000131612
0.000131404
0.000131233
0.000131054
0.000130792
0.000130461
0.000130058
0.000129566
0.000128973
0.000128293
0.000127548
0.000126753
0.000125919
0.000125054
0.000124157
0.000123217
0.000122217
0.000124352
0.000124116
0.000123911
0.000123701
0.000123417
0.00012307
0.000122661
0.000122173
0.000121595
0.000120942
0.000120233
0.000119481
0.000118698
0.000117891
0.000117058
0.000116192
0.000115276
0.000114291
0.000117523
0.000117266
0.000117036
0.000116803
0.000116504
0.000116149
0.000115739
0.00011526
0.000114702
0.000114077
0.000113404
0.000112694
0.00011196
0.000111206
0.000110434
0.000109635
0.000108796
0.000107898
0.000111094
0.000110823
0.000110574
0.000110325
0.000110019
0.000109662
0.000109257
0.000108792
0.000108256
0.000107662
0.000107024
0.000106356
0.000105668
0.000104966
0.00010425
0.000103513
0.000102745
0.000101927
0.000105039
0.000104757
0.000104497
0.000104238
0.00010393
0.000103577
0.000103181
0.000102734
0.000102224
0.00010166
0.000101059
0.000100433
9.97896e-05
9.91363e-05
9.84742e-05
9.77965e-05
9.70923e-05
9.63467e-05
9.55397e-05
9.93299e-05
9.90424e-05
9.87759e-05
9.85135e-05
9.82085e-05
9.78632e-05
9.74822e-05
9.70557e-05
9.65736e-05
9.60429e-05
9.54791e-05
9.48931e-05
9.42938e-05
9.36879e-05
9.30762e-05
9.24532e-05
9.18097e-05
9.11329e-05
9.04033e-05
9.39448e-05
9.36551e-05
9.33864e-05
9.31256e-05
9.28281e-05
9.2495e-05
9.2132e-05
9.17295e-05
9.12769e-05
9.07807e-05
9.02544e-05
8.9709e-05
8.91523e-05
8.85918e-05
8.80287e-05
8.74578e-05
8.68711e-05
8.62572e-05
8.55982e-05
8.88614e-05
8.8573e-05
8.83058e-05
8.80509e-05
8.77643e-05
8.74471e-05
8.71053e-05
8.67294e-05
8.63088e-05
8.58476e-05
8.53586e-05
8.48529e-05
8.43386e-05
8.38223e-05
8.33059e-05
8.27838e-05
8.22503e-05
8.16952e-05
8.11028e-05
8.04531e-05
8.406e-05
8.37754e-05
8.35138e-05
8.32677e-05
8.29954e-05
8.2697e-05
8.23797e-05
8.20328e-05
8.16445e-05
8.12187e-05
8.07679e-05
8.03015e-05
7.98283e-05
7.93545e-05
7.88825e-05
7.84076e-05
7.79248e-05
7.74249e-05
7.68931e-05
7.63122e-05
7.95223e-05
7.92436e-05
7.89906e-05
7.87567e-05
7.85013e-05
7.82244e-05
7.79337e-05
7.76175e-05
7.72629e-05
7.6873e-05
7.64595e-05
7.6032e-05
7.55987e-05
7.51664e-05
7.47371e-05
7.43072e-05
7.38719e-05
7.34229e-05
7.29477e-05
7.24315e-05
7.52312e-05
7.49604e-05
7.47186e-05
7.44996e-05
7.42629e-05
7.40099e-05
7.37481e-05
7.34639e-05
7.31438e-05
7.27896e-05
7.24131e-05
7.20238e-05
7.16296e-05
7.12372e-05
7.08486e-05
7.04613e-05
7.00709e-05
6.967e-05
6.92479e-05
6.87907e-05
6.82805e-05
7.11712e-05
7.09097e-05
7.06812e-05
7.04795e-05
7.02635e-05
7.00362e-05
6.98052e-05
6.95539e-05
6.92682e-05
6.89497e-05
6.86096e-05
6.82577e-05
6.79016e-05
6.75477e-05
6.71984e-05
6.68518e-05
6.65038e-05
6.61478e-05
6.57741e-05
6.53711e-05
6.49232e-05
6.73274e-05
6.70769e-05
6.68633e-05
6.6681e-05
6.64872e-05
6.62873e-05
6.60886e-05
6.58709e-05
6.56194e-05
6.53363e-05
6.50319e-05
6.47163e-05
6.43973e-05
6.40809e-05
6.37694e-05
6.34611e-05
6.31527e-05
6.28386e-05
6.25104e-05
6.21572e-05
6.17658e-05
6.36864e-05
6.34483e-05
6.32511e-05
6.30897e-05
6.29191e-05
6.27484e-05
6.25834e-05
6.23994e-05
6.21819e-05
6.19332e-05
6.1664e-05
6.13841e-05
6.11011e-05
6.08208e-05
6.05453e-05
6.02734e-05
6.00023e-05
5.9727e-05
5.94404e-05
5.91329e-05
5.8793e-05
6.02356e-05
6.00107e-05
5.98316e-05
5.96922e-05
5.95459e-05
5.94062e-05
5.92754e-05
5.91253e-05
5.89412e-05
5.87265e-05
5.84918e-05
5.82467e-05
5.79985e-05
5.77528e-05
5.75117e-05
5.72741e-05
5.70377e-05
5.67982e-05
5.65494e-05
5.62831e-05
5.59891e-05
5.5653e-05
5.69634e-05
5.67525e-05
5.65927e-05
5.64762e-05
5.63553e-05
5.62478e-05
5.61522e-05
5.60353e-05
5.58842e-05
5.57029e-05
5.5502e-05
5.52909e-05
5.50764e-05
5.48637e-05
5.46548e-05
5.44488e-05
5.42441e-05
5.40373e-05
5.38227e-05
5.35932e-05
5.33404e-05
5.30514e-05
5.38587e-05
5.36625e-05
5.35233e-05
5.34304e-05
5.33356e-05
5.32619e-05
5.32019e-05
5.31175e-05
5.29988e-05
5.28504e-05
5.26827e-05
5.25044e-05
5.2322e-05
5.214e-05
5.19607e-05
5.17839e-05
5.16079e-05
5.143e-05
5.12454e-05
5.10483e-05
5.0831e-05
5.05826e-05
5.09114e-05
5.07303e-05
5.06129e-05
5.05441e-05
5.04762e-05
5.04378e-05
5.04135e-05
5.03607e-05
5.02739e-05
5.01581e-05
5.00227e-05
4.98757e-05
4.9723e-05
4.95691e-05
4.94164e-05
4.92648e-05
4.91136e-05
4.89605e-05
4.88019e-05
4.86324e-05
4.84453e-05
4.82317e-05
4.8112e-05
4.79464e-05
4.78519e-05
4.78072e-05
4.77674e-05
4.77658e-05
4.77768e-05
4.77546e-05
4.76997e-05
4.76162e-05
4.75117e-05
4.73936e-05
4.72674e-05
4.71377e-05
4.70073e-05
4.68769e-05
4.67463e-05
4.66138e-05
4.64763e-05
4.63295e-05
4.61675e-05
4.59824e-05
4.57643e-05
4.54515e-05
4.53018e-05
4.52311e-05
4.52106e-05
4.51999e-05
4.52369e-05
4.5282e-05
4.52895e-05
4.5267e-05
4.52152e-05
4.51393e-05
4.50464e-05
4.49423e-05
4.4832e-05
4.47192e-05
4.46052e-05
4.44907e-05
4.43744e-05
4.42538e-05
4.41251e-05
4.39834e-05
4.38219e-05
4.36317e-05
4.29214e-05
4.2788e-05
4.27422e-05
4.27456e-05
4.27656e-05
4.28426e-05
4.29204e-05
4.29566e-05
4.29676e-05
4.29464e-05
4.28954e-05
4.28225e-05
4.27348e-05
4.26385e-05
4.25381e-05
4.24363e-05
4.23338e-05
4.22301e-05
4.21229e-05
4.20089e-05
4.1884e-05
4.17421e-05
4.15754e-05
4.05142e-05
4.03973e-05
4.0377e-05
4.04042e-05
4.04567e-05
4.0575e-05
4.0683e-05
4.07481e-05
4.07944e-05
4.08013e-05
4.07691e-05
4.07098e-05
4.06327e-05
4.05452e-05
4.04534e-05
4.03604e-05
4.02673e-05
4.01738e-05
4.0078e-05
3.99767e-05
3.98665e-05
3.9742e-05
3.95966e-05
3.82224e-05
3.81224e-05
3.81284e-05
3.8179e-05
3.82662e-05
3.84263e-05
3.85616e-05
3.86566e-05
3.87407e-05
3.87712e-05
3.87501e-05
3.86975e-05
3.8626e-05
3.85441e-05
3.84587e-05
3.83733e-05
3.82891e-05
3.82054e-05
3.81204e-05
3.80316e-05
3.79357e-05
3.78278e-05
3.77022e-05
3.60391e-05
3.59565e-05
3.59892e-05
3.6063e-05
3.61879e-05
3.63895e-05
3.65485e-05
3.66759e-05
3.68e-05
3.68468e-05
3.68281e-05
3.67773e-05
3.67094e-05
3.66327e-05
3.65544e-05
3.64778e-05
3.64035e-05
3.63306e-05
3.62572e-05
3.61811e-05
3.60992e-05
3.60072e-05
3.59004e-05
3.57769e-05
3.39576e-05
3.38929e-05
3.3953e-05
3.40498e-05
3.42159e-05
3.44578e-05
3.46369e-05
3.48015e-05
3.49668e-05
3.50189e-05
3.49944e-05
3.49444e-05
3.48823e-05
3.48139e-05
3.47455e-05
3.46799e-05
3.46168e-05
3.45552e-05
3.44933e-05
3.4429e-05
3.43597e-05
3.42816e-05
3.41904e-05
3.40845e-05
3.1972e-05
3.19256e-05
3.2013e-05
3.21327e-05
3.23439e-05
3.26231e-05
3.282e-05
3.30303e-05
3.32375e-05
3.32798e-05
3.32437e-05
3.31988e-05
3.31484e-05
3.30921e-05
3.30355e-05
3.29811e-05
3.29284e-05
3.28763e-05
3.28233e-05
3.27676e-05
3.27071e-05
3.26382e-05
3.25573e-05
3.24626e-05
3.00772e-05
3.00499e-05
3.01639e-05
3.03063e-05
3.05661e-05
3.08769e-05
3.10895e-05
3.13557e-05
3.16066e-05
3.16257e-05
3.15771e-05
3.15452e-05
3.15118e-05
3.14678e-05
3.14202e-05
3.1373e-05
3.13259e-05
3.1278e-05
3.12284e-05
3.11757e-05
3.1118e-05
3.10523e-05
3.09747e-05
3.08839e-05
2.8269e-05
2.82622e-05
2.84025e-05
2.85681e-05
2.88799e-05
2.92145e-05
2.94397e-05
2.97645e-05
3.00603e-05
3.00531e-05
3.00004e-05
2.99889e-05
2.99712e-05
2.99327e-05
2.98858e-05
2.98373e-05
2.97877e-05
2.97367e-05
2.96837e-05
2.96279e-05
2.95674e-05
2.94992e-05
2.94194e-05
2.9327e-05
2.65426e-05
2.65579e-05
2.67245e-05
2.69164e-05
2.7285e-05
2.76372e-05
2.78739e-05
2.82559e-05
2.85908e-05
2.8554e-05
2.85093e-05
2.85221e-05
2.851e-05
2.84642e-05
2.84082e-05
2.83509e-05
2.82925e-05
2.82332e-05
2.81727e-05
2.811e-05
2.80435e-05
2.797e-05
2.78854e-05
2.77891e-05
2.48951e-05
2.49312e-05
2.51224e-05
2.53447e-05
2.5773e-05
2.61389e-05
2.63926e-05
2.68629e-05
2.72416e-05
2.71256e-05
2.7078e-05
2.71191e-05
2.7103e-05
2.7038e-05
2.69666e-05
2.68981e-05
2.683e-05
2.67619e-05
2.66939e-05
2.66251e-05
2.65531e-05
2.64747e-05
2.63858e-05
2.62859e-05
2.61789e-05
2.33476e-05
2.34008e-05
2.36064e-05
2.38547e-05
2.43317e-05
2.46922e-05
2.49546e-05
2.55588e-05
2.60602e-05
2.57902e-05
2.56935e-05
2.57753e-05
2.5762e-05
2.56766e-05
2.55902e-05
2.55133e-05
2.54383e-05
2.53632e-05
2.52894e-05
2.52159e-05
2.51396e-05
2.50572e-05
2.4965e-05
2.48617e-05
2.47514e-05
2.20224e-05
2.20835e-05
2.22809e-05
2.25274e-05
2.30096e-05
2.33012e-05
2.35102e-05
2.42575e-05
2.49084e-05
2.45071e-05
2.43758e-05
2.45195e-05
2.4539e-05
2.4457e-05
2.437e-05
2.42952e-05
2.42216e-05
2.41465e-05
2.40718e-05
2.39969e-05
2.39195e-05
2.38357e-05
2.37416e-05
2.36361e-05
2.35235e-05
2.09132e-05
2.09732e-05
2.11452e-05
2.13664e-05
2.18066e-05
2.19774e-05
2.21278e-05
2.28449e-05
2.36165e-05
2.32326e-05
2.31383e-05
2.33373e-05
2.34118e-05
2.33622e-05
2.32904e-05
2.32265e-05
2.31626e-05
2.30956e-05
2.30267e-05
2.29562e-05
2.28826e-05
2.28025e-05
2.27111e-05
2.26074e-05
2.24964e-05
1.9844e-05
1.99024e-05
2.00485e-05
2.02523e-05
2.06452e-05
2.07056e-05
2.08498e-05
2.14358e-05
2.22525e-05
2.19906e-05
2.19604e-05
2.21842e-05
2.23067e-05
2.2298e-05
2.22473e-05
2.21954e-05
2.21421e-05
2.20844e-05
2.20235e-05
2.19601e-05
2.18931e-05
2.18191e-05
2.17337e-05
2.16349e-05
2.15281e-05
1.8741e-05
1.87973e-05
1.89166e-05
1.91133e-05
1.94496e-05
1.94294e-05
1.96007e-05
2.00475e-05
2.09237e-05
2.08123e-05
2.08432e-05
2.10656e-05
2.12154e-05
2.12409e-05
2.12117e-05
2.11736e-05
2.11325e-05
2.10844e-05
2.10305e-05
2.09732e-05
2.09118e-05
2.08433e-05
2.07636e-05
2.06693e-05
2.05651e-05
1.76287e-05
1.76809e-05
1.77734e-05
1.79698e-05
1.82366e-05
1.81752e-05
1.83785e-05
1.86888e-05
1.96435e-05
1.96875e-05
1.97855e-05
2.00031e-05
2.01688e-05
2.0218e-05
2.02035e-05
2.01776e-05
2.01519e-05
2.01194e-05
2.00771e-05
2.00272e-05
1.99707e-05
1.9906e-05
1.9829e-05
1.97363e-05
1.96313e-05
1.65105e-05
1.65532e-05
1.66172e-05
1.68138e-05
1.69979e-05
1.69499e-05
1.71664e-05
1.73698e-05
1.84378e-05
1.86313e-05
1.87911e-05
1.90068e-05
1.9191e-05
1.92649e-05
1.92572e-05
1.92246e-05
1.91937e-05
1.91651e-05
1.91331e-05
1.90934e-05
1.90436e-05
1.89813e-05
1.89011e-05
1.88016e-05
1.86859e-05
1.54005e-05
1.54238e-05
1.54534e-05
1.56363e-05
1.57227e-05
1.57521e-05
1.59356e-05
1.61036e-05
1.73287e-05
1.76655e-05
1.78813e-05
1.80806e-05
1.82622e-05
1.83628e-05
1.8387e-05
1.83623e-05
1.83115e-05
1.82492e-05
1.81854e-05
1.81238e-05
1.80609e-05
1.79881e-05
1.78929e-05
1.77646e-05
1.76035e-05
1.43126e-05
1.43064e-05
1.42932e-05
1.44297e-05
1.43968e-05
1.45475e-05
1.46044e-05
1.48788e-05
1.63284e-05
1.67944e-05
1.70975e-05
1.728e-05
1.73815e-05
1.74049e-05
1.74059e-05
1.74121e-05
1.74084e-05
1.7367e-05
1.72823e-05
1.71676e-05
1.70359e-05
1.68905e-05
1.67243e-05
1.65271e-05
1.62958e-05
1.60328e-05
1.32514e-05
1.32081e-05
1.31446e-05
1.31917e-05
1.3028e-05
1.32928e-05
1.30715e-05
1.37223e-05
1.54577e-05
1.59447e-05
1.63691e-05
1.65979e-05
1.66359e-05
1.65011e-05
1.62858e-05
1.61007e-05
1.60013e-05
1.59681e-05
1.59445e-05
1.58849e-05
1.57672e-05
1.55858e-05
1.53389e-05
1.50353e-05
1.46922e-05
1.43295e-05
1.22269e-05
1.21249e-05
1.19774e-05
1.18863e-05
1.16247e-05
1.19871e-05
1.14217e-05
1.29661e-05
1.48235e-05
1.51556e-05
1.56192e-05
1.57908e-05
1.5851e-05
1.58346e-05
1.56144e-05
1.51835e-05
1.4699e-05
1.43395e-05
1.41946e-05
1.42477e-05
1.44202e-05
1.46214e-05
1.47426e-05
1.46855e-05
1.44569e-05
1.4159e-05
1.13323e-05
1.11126e-05
1.07661e-05
1.04104e-05
1.00622e-05
1.0555e-05
1.00714e-05
1.30309e-05
1.45284e-05
1.5099e-05
1.61801e-05
1.64604e-05
1.61653e-05
1.56546e-05
1.53119e-05
1.53878e-05
1.57359e-05
1.60527e-05
1.62028e-05
1.62188e-05
1.61751e-05
1.61502e-05
1.62639e-05
1.66564e-05
1.73123e-05
1.80652e-05
1.07528e-05
1.03739e-05
9.69097e-06
8.78416e-06
8.03355e-06
8.58226e-06
9.12319e-06
1.31085e-05
1.37095e-05
1.48446e-05
1.68033e-05
1.83299e-05
1.97528e-05
2.11122e-05
2.22794e-05
2.31979e-05
2.38749e-05
2.44119e-05
2.4923e-05
2.5471e-05
2.6071e-05
2.67081e-05
2.73498e-05
2.79198e-05
2.83453e-05
2.86704e-05
1.04758e-05
1.00123e-05
9.08717e-06
7.55001e-06
5.50462e-06
6.02252e-06
8.61878e-06
1.13851e-05
1.37076e-05
2.03153e-05
2.51458e-05
2.88298e-05
3.14702e-05
3.3264e-05
3.44145e-05
3.51632e-05
3.572e-05
3.62283e-05
3.67365e-05
3.72394e-05
3.77142e-05
3.816e-05
3.85995e-05
3.91002e-05
3.96103e-05
4.00387e-05
)
;

boundaryField
{
    inlet
    {
        type            calculated;
        value           nonuniform List<scalar> 
26
(
1.04641e-05
1.00127e-05
9.08949e-06
7.48785e-06
5.08335e-06
6.0745e-06
9.35137e-06
9.69907e-06
2.0537e-05
2.9409e-05
3.69982e-05
4.32776e-05
4.83031e-05
5.22525e-05
5.52709e-05
5.75699e-05
5.93433e-05
6.07539e-05
6.19352e-05
6.29875e-05
6.39828e-05
6.49929e-05
6.60977e-05
6.73513e-05
6.86611e-05
6.98878e-05
)
;
    }
    outlet
    {
        type            calculated;
        value           nonuniform List<scalar> 0();
    }
    walls
    {
        type            calculated;
        value           nonuniform List<scalar> 0();
    }
    frontAndBack
    {
        type            empty;
    }
    procBoundary0to1
    {
        type            processor;
        value           nonuniform List<scalar> 
94
(
0.00104972
0.000971502
0.000971502
0.000892387
0.000892387
0.000814757
0.000814757
0.000738949
0.000738949
0.000667486
0.000667486
0.00060217
0.000550438
0.000550438
0.000499427
0.000460079
0.000460079
0.000419791
0.000388976
0.000361034
0.000361034
0.00033194
0.000309291
0.000309291
0.000285364
0.000266684
0.00024943
0.00024943
0.000231127
0.000216629
0.000203161
0.000203161
0.000188827
0.000177372
0.000177372
0.000165085
0.000155292
0.000146151
0.000146151
0.000136308
0.000128464
0.000121136
0.000121136
0.000113209
0.000106916
0.000101036
0.000101036
9.46447e-05
8.95962e-05
8.48724e-05
8.48724e-05
7.97211e-05
7.56606e-05
7.1854e-05
7.1854e-05
6.7694e-05
6.44093e-05
6.13175e-05
5.84039e-05
5.84039e-05
5.52579e-05
5.27112e-05
5.02904e-05
4.79799e-05
4.79799e-05
4.55082e-05
4.34088e-05
4.13809e-05
3.94274e-05
3.75569e-05
3.75569e-05
3.56393e-05
3.39661e-05
3.23564e-05
3.07826e-05
2.92255e-05
2.76853e-05
2.76853e-05
2.607e-05
2.46406e-05
2.34106e-05
2.23848e-05
2.14196e-05
2.04566e-05
1.95184e-05
1.85596e-05
1.74205e-05
1.74205e-05
1.57402e-05
1.39621e-05
1.38786e-05
1.8797e-05
2.89558e-05
4.03742e-05
)
;
    }
    procBoundary0to4
    {
        type            processor;
        value           nonuniform List<scalar> 
72
(
0.000780587
0.000716755
0.000659912
0.000609026
0.00056335
0.000522198
0.000485002
0.000451267
0.00042057
0.000392546
0.000366896
0.000343356
0.000321694
0.000301717
0.000283253
0.000266151
0.000250284
0.000235534
0.0002218
0.000208996
0.000197041
0.000185863
0.000175575
0.000175575
0.000165668
0.000156383
0.000147674
0.000139497
0.000131813
0.000124584
0.000117779
0.000111369
0.000105326
9.96249e-05
9.42434e-05
8.91606e-05
8.43568e-05
7.9814e-05
7.55158e-05
7.14468e-05
6.75928e-05
6.39405e-05
6.04775e-05
5.71924e-05
5.40744e-05
5.11135e-05
4.83003e-05
4.56258e-05
4.30819e-05
4.06609e-05
3.83554e-05
3.61586e-05
3.40641e-05
3.20657e-05
3.01581e-05
2.83372e-05
2.65983e-05
2.49395e-05
2.33834e-05
2.2055e-05
2.09447e-05
1.98734e-05
1.87682e-05
1.7654e-05
1.65354e-05
1.54278e-05
1.43462e-05
1.32963e-05
1.2293e-05
1.14344e-05
1.08943e-05
1.06358e-05
)
;
    }
    procBoundary0to5
    {
        type            processor;
        value           nonuniform List<scalar> 4(0.000887735 0.000923098 0.000960143 0.00100278);
    }
}


// ************************************************************************* //
