/*--------------------------------*- C++ -*----------------------------------*\
| =========                 |                                                 |
| \\      /  F ield         | OpenFOAM: The Open Source CFD Toolbox           |
|  \\    /   O peration     | Version:  2506                                  |
|   \\  /    A nd           | Website:  www.openfoam.com                      |
|    \\/     M anipulation  |                                                 |
\*---------------------------------------------------------------------------*/
FoamFile
{
    version     2.0;
    format      ascii;
    arch        "LSB;label=32;scalar=64";
    class       volScalarField;
    location    "300";
    object      turbulenceProperties:k;
}
// * * * * * * * * * * * * * * * * * * * * * * * * * * * * * * * * * * * * * //

dimensions      [0 2 -2 0 0 0 0];

internalField   nonuniform List<scalar> 
1340
(
0.000510044
0.000504061
0.000497469
0.000489253
0.000478461
0.000433042
0.000427683
0.000421976
0.000415082
0.000406049
0.00039564
0.00037015
0.000365354
0.000360355
0.000354516
0.000346906
0.000338326
0.000328879
0.000318163
0.000313895
0.000309504
0.000304514
0.000298079
0.000290949
0.000283264
0.00027495
0.000274837
0.000271023
0.000267168
0.000262859
0.000257394
0.000251431
0.000245095
0.000238255
0.000230903
0.000238436
0.000235019
0.000231628
0.00022789
0.000223216
0.000218199
0.000212913
0.00020724
0.000201219
0.000195042
0.000207634
0.000204582
0.000201578
0.000198325
0.000194308
0.000190062
0.000185609
0.000180861
0.000175894
0.000170849
0.000181411
0.000178692
0.000176026
0.000173173
0.000169706
0.000166093
0.000162308
0.000158306
0.000154178
0.000150028
0.000145833
0.000158968
0.000156541
0.000154174
0.000151661
0.000148654
0.000145563
0.000142322
0.000138926
0.000135471
0.00013203
0.00012858
0.000139667
0.000137498
0.000135391
0.00013317
0.000130555
0.00012789
0.000125101
0.000122201
0.000119291
0.000116415
0.000113559
0.000110699
0.000122994
0.000121054
0.000119174
0.000117209
0.000114928
0.000112612
0.000110201
0.000107712
0.000105241
0.000102822
0.000100439
9.80716e-05
0.000108534
0.0001068
0.00010512
0.000103378
0.000101382
9.93574e-05
9.72614e-05
9.51161e-05
9.30068e-05
9.09586e-05
8.89565e-05
8.69799e-05
9.59519e-05
9.44024e-05
9.28961e-05
9.13484e-05
8.95972e-05
8.78204e-05
8.5991e-05
8.41328e-05
8.23208e-05
8.05743e-05
7.88783e-05
7.72193e-05
7.55819e-05
8.49685e-05
8.35837e-05
8.2233e-05
8.08549e-05
7.93124e-05
7.77474e-05
7.61455e-05
7.45269e-05
7.29628e-05
7.14645e-05
7.0019e-05
6.86135e-05
6.72365e-05
7.53551e-05
7.4114e-05
7.29059e-05
7.16753e-05
7.03132e-05
6.89309e-05
6.75226e-05
6.61075e-05
6.47482e-05
6.34546e-05
6.2214e-05
6.10171e-05
5.98514e-05
5.86929e-05
6.69184e-05
6.58058e-05
6.47242e-05
6.36236e-05
6.24185e-05
6.11945e-05
5.99513e-05
5.87103e-05
5.75245e-05
5.64008e-05
5.53299e-05
5.43024e-05
5.33068e-05
5.23224e-05
5.94965e-05
5.85007e-05
5.75308e-05
5.65446e-05
5.5477e-05
5.43908e-05
5.32901e-05
5.21984e-05
5.11584e-05
5.01778e-05
4.92472e-05
4.836e-05
4.75044e-05
4.66628e-05
5.29546e-05
5.20635e-05
5.11939e-05
5.03091e-05
4.93613e-05
4.83956e-05
4.74183e-05
4.64547e-05
4.55401e-05
4.46802e-05
4.3867e-05
4.30952e-05
4.23551e-05
4.16308e-05
4.09041e-05
4.71782e-05
4.63795e-05
4.56002e-05
4.48066e-05
4.39633e-05
4.31035e-05
4.2235e-05
4.13812e-05
4.05739e-05
3.98165e-05
3.91022e-05
3.84271e-05
3.77824e-05
3.71544e-05
3.65281e-05
4.2068e-05
4.13518e-05
4.06543e-05
3.99425e-05
3.919e-05
3.84241e-05
3.76513e-05
3.68932e-05
3.61782e-05
3.55084e-05
3.48787e-05
3.42852e-05
3.37203e-05
3.31725e-05
3.26286e-05
3.75404e-05
3.68985e-05
3.62739e-05
3.56358e-05
3.49632e-05
3.42805e-05
3.35921e-05
3.29178e-05
3.22827e-05
3.16887e-05
3.11308e-05
3.06064e-05
3.01096e-05
2.96295e-05
2.91542e-05
2.86745e-05
3.35238e-05
3.29484e-05
3.23887e-05
3.1817e-05
3.12159e-05
3.06065e-05
2.99926e-05
2.93922e-05
2.88269e-05
2.82986e-05
2.78028e-05
2.73383e-05
2.68982e-05
2.64747e-05
2.60584e-05
2.56398e-05
2.94399e-05
2.89389e-05
2.84263e-05
2.7889e-05
2.73449e-05
2.67972e-05
2.6262e-05
2.57582e-05
2.52873e-05
2.48455e-05
2.44319e-05
2.40416e-05
2.36668e-05
2.32995e-05
2.29321e-05
2.25549e-05
2.632e-05
2.58719e-05
2.54124e-05
2.49318e-05
2.44463e-05
2.39575e-05
2.34799e-05
2.30306e-05
2.26103e-05
2.22161e-05
2.18471e-05
2.14994e-05
2.11663e-05
2.08413e-05
2.05177e-05
2.01869e-05
2.35428e-05
2.31421e-05
2.27305e-05
2.23008e-05
2.18676e-05
2.14314e-05
2.10054e-05
2.06042e-05
2.02287e-05
1.98763e-05
1.95463e-05
1.92361e-05
1.89397e-05
1.8651e-05
1.83649e-05
1.80745e-05
2.10681e-05
2.071e-05
2.03416e-05
1.99577e-05
1.95712e-05
1.91822e-05
1.88023e-05
1.84439e-05
1.81084e-05
1.77932e-05
1.7498e-05
1.72206e-05
1.69558e-05
1.66991e-05
1.64458e-05
1.61897e-05
1.5924e-05
1.88611e-05
1.85411e-05
1.82117e-05
1.78691e-05
1.75246e-05
1.7178e-05
1.68391e-05
1.65195e-05
1.62197e-05
1.59377e-05
1.56734e-05
1.54252e-05
1.51888e-05
1.496e-05
1.47351e-05
1.45088e-05
1.42755e-05
1.68913e-05
1.66055e-05
1.63113e-05
1.60058e-05
1.56991e-05
1.53904e-05
1.50886e-05
1.48036e-05
1.4536e-05
1.42839e-05
1.40475e-05
1.38254e-05
1.36138e-05
1.34101e-05
1.32105e-05
1.30103e-05
1.28051e-05
1.51319e-05
1.48767e-05
1.46142e-05
1.43423e-05
1.40695e-05
1.37951e-05
1.35267e-05
1.3273e-05
1.30344e-05
1.28091e-05
1.25978e-05
1.23992e-05
1.22103e-05
1.20286e-05
1.18512e-05
1.16742e-05
1.14934e-05
1.13045e-05
1.35591e-05
1.33316e-05
1.30975e-05
1.2856e-05
1.26139e-05
1.23703e-05
1.2132e-05
1.19067e-05
1.16942e-05
1.14934e-05
1.13047e-05
1.11272e-05
1.09587e-05
1.07968e-05
1.06394e-05
1.04829e-05
1.03239e-05
1.01584e-05
1.21523e-05
1.19498e-05
1.17414e-05
1.15272e-05
1.13127e-05
1.1097e-05
1.0886e-05
1.06861e-05
1.04975e-05
1.03189e-05
1.01507e-05
9.99246e-06
9.84226e-06
9.69831e-06
9.55865e-06
9.42048e-06
9.28075e-06
9.13595e-06
1.08934e-05
1.07132e-05
1.05281e-05
1.03384e-05
1.0149e-05
9.95839e-06
9.77193e-06
9.59533e-06
9.42829e-06
9.26976e-06
9.1203e-06
8.97954e-06
8.84598e-06
8.71819e-06
8.59466e-06
8.4729e-06
8.35017e-06
8.22349e-06
8.08935e-06
9.76612e-06
9.60586e-06
9.44178e-06
9.2744e-06
9.10746e-06
8.93952e-06
8.77536e-06
8.61979e-06
8.47248e-06
8.3322e-06
8.19973e-06
8.07488e-06
7.95639e-06
7.84329e-06
7.73419e-06
7.62702e-06
7.51953e-06
7.40924e-06
7.29284e-06
8.7562e-06
8.61391e-06
8.46875e-06
8.3215e-06
8.17484e-06
8.02736e-06
7.88339e-06
7.74689e-06
7.61735e-06
7.49379e-06
7.37677e-06
7.26642e-06
7.16162e-06
7.06176e-06
6.96572e-06
6.87171e-06
6.77781e-06
6.68189e-06
6.58103e-06
7.85099e-06
7.72488e-06
7.59673e-06
7.46766e-06
7.33923e-06
7.21023e-06
7.08451e-06
6.96532e-06
6.85203e-06
6.74355e-06
6.64055e-06
6.54329e-06
6.45102e-06
6.36319e-06
6.27897e-06
6.19668e-06
6.11487e-06
6.03172e-06
5.94477e-06
5.85112e-06
7.03928e-06
6.92768e-06
6.81498e-06
6.70216e-06
6.59018e-06
6.47786e-06
6.36871e-06
6.26522e-06
6.16651e-06
6.0717e-06
5.98151e-06
5.89615e-06
5.81518e-06
5.7382e-06
5.66459e-06
5.59292e-06
5.522e-06
5.45022e-06
5.37534e-06
5.295e-06
6.31115e-06
6.21254e-06
6.11378e-06
6.01562e-06
5.91844e-06
5.82115e-06
5.72696e-06
5.63764e-06
5.55218e-06
5.46975e-06
5.39107e-06
5.31651e-06
5.24577e-06
5.17862e-06
5.11458e-06
5.05246e-06
4.99118e-06
4.92938e-06
4.8652e-06
4.79672e-06
5.65775e-06
5.57079e-06
5.48456e-06
5.39963e-06
5.31567e-06
5.23196e-06
5.15132e-06
5.07479e-06
5.00128e-06
4.92998e-06
4.86171e-06
4.79693e-06
4.73545e-06
4.67716e-06
4.62167e-06
4.56806e-06
4.51539e-06
4.46248e-06
4.40781e-06
4.34961e-06
4.28567e-06
5.07121e-06
4.99469e-06
4.91973e-06
4.84669e-06
4.77462e-06
4.70313e-06
4.63471e-06
4.5697e-06
4.50689e-06
4.44564e-06
4.38674e-06
4.33077e-06
4.27765e-06
4.22734e-06
4.17956e-06
4.13359e-06
4.08859e-06
4.04351e-06
3.99709e-06
3.94785e-06
3.89397e-06
4.54452e-06
4.47737e-06
4.41251e-06
4.35016e-06
4.28875e-06
4.22827e-06
4.17088e-06
4.11619e-06
4.06297e-06
4.01074e-06
3.96026e-06
3.91221e-06
3.86663e-06
3.82353e-06
3.78268e-06
3.74348e-06
3.70523e-06
3.66708e-06
3.62795e-06
3.58653e-06
3.54132e-06
4.07141e-06
4.0127e-06
3.95691e-06
3.90414e-06
3.85222e-06
3.80169e-06
3.75424e-06
3.70878e-06
3.66412e-06
3.61993e-06
3.57705e-06
3.53614e-06
3.49735e-06
3.4607e-06
3.42605e-06
3.39287e-06
3.3606e-06
3.3285e-06
3.2957e-06
3.26107e-06
3.22337e-06
3.64634e-06
3.59518e-06
3.54755e-06
3.50332e-06
3.45991e-06
3.41837e-06
3.37981e-06
3.34259e-06
3.30555e-06
3.26857e-06
3.23249e-06
3.19801e-06
3.16529e-06
3.13444e-06
3.10529e-06
3.07744e-06
3.05041e-06
3.0236e-06
2.99624e-06
2.96745e-06
2.93612e-06
2.90082e-06
3.26436e-06
3.21993e-06
3.17964e-06
3.14302e-06
3.10724e-06
3.0738e-06
3.04322e-06
3.01327e-06
2.98301e-06
2.95246e-06
2.9225e-06
2.8938e-06
2.86653e-06
2.8408e-06
2.81651e-06
2.79329e-06
2.7708e-06
2.74855e-06
2.72588e-06
2.70203e-06
2.67615e-06
2.64698e-06
2.92101e-06
2.88262e-06
2.8489e-06
2.81905e-06
2.79007e-06
2.76396e-06
2.74051e-06
2.71697e-06
2.69272e-06
2.66794e-06
2.64346e-06
2.61992e-06
2.59747e-06
2.57622e-06
2.55614e-06
2.53695e-06
2.51835e-06
2.49994e-06
2.4812e-06
2.46152e-06
2.44013e-06
2.41603e-06
2.61234e-06
2.57932e-06
2.55153e-06
2.52767e-06
2.50477e-06
2.48529e-06
2.46816e-06
2.45024e-06
2.43135e-06
2.41175e-06
2.39215e-06
2.37315e-06
2.35489e-06
2.33751e-06
2.32099e-06
2.30515e-06
2.28977e-06
2.27454e-06
2.25905e-06
2.24277e-06
2.22508e-06
2.20516e-06
2.33479e-06
2.30656e-06
2.2841e-06
2.26553e-06
2.24808e-06
2.23461e-06
2.22304e-06
2.21002e-06
2.19594e-06
2.18096e-06
2.16568e-06
2.15059e-06
2.13587e-06
2.12168e-06
2.10806e-06
2.09493e-06
2.08215e-06
2.06948e-06
2.05658e-06
2.04303e-06
2.02831e-06
2.01172e-06
1.99244e-06
2.08519e-06
2.06125e-06
2.04357e-06
2.02963e-06
2.0171e-06
2.00908e-06
2.00233e-06
1.99358e-06
1.98384e-06
1.973e-06
1.96141e-06
1.94957e-06
1.93769e-06
1.926e-06
1.91465e-06
1.90362e-06
1.89284e-06
1.88216e-06
1.87129e-06
1.85988e-06
1.84752e-06
1.83363e-06
1.81748e-06
1.86071e-06
1.84059e-06
1.82719e-06
1.8173e-06
1.80923e-06
1.80615e-06
1.80352e-06
1.79849e-06
1.79273e-06
1.78551e-06
1.77696e-06
1.76763e-06
1.75789e-06
1.74805e-06
1.73835e-06
1.72889e-06
1.71964e-06
1.7105e-06
1.70123e-06
1.69155e-06
1.68109e-06
1.66937e-06
1.65579e-06
1.65881e-06
1.64209e-06
1.63253e-06
1.62616e-06
1.62215e-06
1.62351e-06
1.62433e-06
1.6226e-06
1.62055e-06
1.61639e-06
1.6101e-06
1.60255e-06
1.59429e-06
1.58573e-06
1.57725e-06
1.56898e-06
1.56094e-06
1.55305e-06
1.54511e-06
1.53685e-06
1.528e-06
1.51815e-06
1.50678e-06
1.47722e-06
1.46354e-06
1.45739e-06
1.45408e-06
1.4538e-06
1.4591e-06
1.46271e-06
1.46399e-06
1.46543e-06
1.46368e-06
1.45884e-06
1.45239e-06
1.44509e-06
1.43747e-06
1.42995e-06
1.4227e-06
1.41573e-06
1.40895e-06
1.4022e-06
1.39526e-06
1.38787e-06
1.37968e-06
1.37026e-06
1.3139e-06
1.30294e-06
1.29981e-06
1.29914e-06
1.30234e-06
1.31107e-06
1.31685e-06
1.32098e-06
1.3257e-06
1.32556e-06
1.3214e-06
1.31557e-06
1.30901e-06
1.30222e-06
1.29563e-06
1.2894e-06
1.2835e-06
1.27783e-06
1.27223e-06
1.26652e-06
1.26046e-06
1.25375e-06
1.24607e-06
1.23729e-06
1.16701e-06
1.15847e-06
1.15802e-06
1.15963e-06
1.16611e-06
1.17774e-06
1.18516e-06
1.19213e-06
1.19985e-06
1.20039e-06
1.19626e-06
1.19092e-06
1.18519e-06
1.17937e-06
1.17383e-06
1.16867e-06
1.16384e-06
1.15923e-06
1.15468e-06
1.15004e-06
1.14511e-06
1.13965e-06
1.13335e-06
1.12613e-06
1.03491e-06
1.02855e-06
1.03042e-06
1.03398e-06
1.04356e-06
1.05752e-06
1.06619e-06
1.07623e-06
1.08665e-06
1.08679e-06
1.08228e-06
1.07766e-06
1.07306e-06
1.06838e-06
1.06392e-06
1.05977e-06
1.05587e-06
1.05211e-06
1.04837e-06
1.04451e-06
1.04038e-06
1.03576e-06
1.03041e-06
1.02423e-06
9.16191e-07
9.11772e-07
9.15617e-07
9.20841e-07
9.33325e-07
9.48923e-07
9.58526e-07
9.71901e-07
9.84836e-07
9.83726e-07
9.78805e-07
9.7533e-07
9.72093e-07
9.6846e-07
9.64817e-07
9.61351e-07
9.58009e-07
9.5471e-07
9.51369e-07
9.47888e-07
9.44137e-07
9.39931e-07
9.35036e-07
9.29375e-07
8.09587e-07
8.06959e-07
8.12461e-07
8.19129e-07
8.34321e-07
8.50841e-07
8.61037e-07
8.77522e-07
8.92735e-07
8.90277e-07
8.85479e-07
8.83486e-07
8.81411e-07
8.78338e-07
8.74953e-07
8.71611e-07
8.68311e-07
8.65005e-07
8.61644e-07
8.5816e-07
8.5444e-07
8.50303e-07
8.45519e-07
8.40039e-07
7.13911e-07
7.12924e-07
7.19847e-07
7.27903e-07
7.45679e-07
7.62596e-07
7.73205e-07
7.92349e-07
8.09222e-07
8.05342e-07
8.0134e-07
8.00908e-07
7.99322e-07
7.96041e-07
7.92347e-07
7.88706e-07
7.85097e-07
7.81511e-07
7.77909e-07
7.74229e-07
7.70372e-07
7.66156e-07
7.6135e-07
7.55936e-07
6.28184e-07
6.2856e-07
6.36585e-07
6.46013e-07
6.6615e-07
6.8313e-07
6.94344e-07
7.17472e-07
7.36045e-07
7.28195e-07
7.24348e-07
7.2554e-07
7.2388e-07
7.19776e-07
7.15476e-07
7.11444e-07
7.07518e-07
7.03663e-07
6.9986e-07
6.96055e-07
6.92111e-07
6.87858e-07
6.83083e-07
6.77764e-07
6.72123e-07
5.52628e-07
5.54002e-07
5.62457e-07
5.72827e-07
5.9443e-07
6.10447e-07
6.21728e-07
6.50656e-07
6.74792e-07
6.59461e-07
6.53405e-07
6.56688e-07
6.553e-07
6.50389e-07
6.45565e-07
6.41329e-07
6.37266e-07
6.3326e-07
6.29372e-07
6.25532e-07
6.21585e-07
6.17359e-07
6.12671e-07
6.07464e-07
6.0196e-07
4.91749e-07
4.93551e-07
5.01338e-07
5.11255e-07
5.32129e-07
5.44281e-07
5.52689e-07
5.8718e-07
6.17662e-07
5.96553e-07
5.89131e-07
5.95277e-07
5.95559e-07
5.91038e-07
5.8641e-07
5.82474e-07
5.78672e-07
5.74853e-07
5.71103e-07
5.67381e-07
5.6357e-07
5.59477e-07
5.54923e-07
5.49861e-07
5.44511e-07
4.43512e-07
4.45293e-07
4.51738e-07
4.60224e-07
4.78381e-07
4.84762e-07
4.90365e-07
5.21795e-07
5.56381e-07
5.37079e-07
5.31691e-07
5.40091e-07
5.42892e-07
5.40064e-07
5.36329e-07
5.33056e-07
5.29856e-07
5.2657e-07
5.23237e-07
5.19868e-07
5.16391e-07
5.12633e-07
5.08393e-07
5.03626e-07
4.98566e-07
3.99365e-07
4.01092e-07
4.06282e-07
4.13767e-07
4.29177e-07
4.30783e-07
4.36028e-07
4.60255e-07
4.94932e-07
4.82022e-07
4.79681e-07
4.88753e-07
4.93545e-07
4.92649e-07
4.90003e-07
4.87398e-07
4.848e-07
4.8206e-07
4.7922e-07
4.76302e-07
4.73251e-07
4.69919e-07
4.66111e-07
4.61752e-07
4.57084e-07
3.5624e-07
3.57885e-07
3.61869e-07
3.68791e-07
3.81256e-07
3.7976e-07
3.85931e-07
4.03265e-07
4.38388e-07
4.32461e-07
4.32759e-07
4.41323e-07
4.47037e-07
4.47624e-07
4.46003e-07
4.44097e-07
4.42125e-07
4.39909e-07
4.37491e-07
4.34954e-07
4.32273e-07
4.29312e-07
4.25908e-07
4.21923e-07
4.17563e-07
3.15238e-07
3.1672e-07
3.19598e-07
3.26206e-07
3.35486e-07
3.32693e-07
3.39803e-07
3.51017e-07
3.87036e-07
3.87574e-07
3.90493e-07
3.98448e-07
4.04527e-07
4.06042e-07
4.05094e-07
4.03772e-07
4.0251e-07
4.01019e-07
3.99171e-07
3.97047e-07
3.94677e-07
3.92001e-07
3.88852e-07
3.85105e-07
3.80909e-07
2.76537e-07
2.77675e-07
2.79493e-07
2.85778e-07
2.91715e-07
2.89673e-07
2.96879e-07
3.03662e-07
3.41504e-07
3.47597e-07
3.52684e-07
3.60185e-07
3.66688e-07
3.69087e-07
3.68453e-07
3.66937e-07
3.65543e-07
3.6428e-07
3.6291e-07
3.61274e-07
3.59271e-07
3.56807e-07
3.53686e-07
3.49859e-07
3.45463e-07
2.40619e-07
2.41136e-07
2.4182e-07
2.47315e-07
2.49798e-07
2.50454e-07
2.56178e-07
2.61347e-07
3.0207e-07
3.12898e-07
3.19738e-07
3.26308e-07
3.32424e-07
3.35703e-07
3.36269e-07
3.35115e-07
3.33063e-07
3.30636e-07
3.2819e-07
3.2585e-07
3.2348e-07
3.20772e-07
3.17282e-07
3.12644e-07
3.06902e-07
2.07834e-07
2.07508e-07
2.0696e-07
2.1075e-07
2.09617e-07
2.13841e-07
2.15432e-07
2.2336e-07
2.68532e-07
2.83138e-07
2.92648e-07
2.98365e-07
3.01451e-07
3.01907e-07
3.01657e-07
3.01646e-07
3.01328e-07
2.99741e-07
2.9669e-07
2.9265e-07
2.88072e-07
2.83079e-07
2.77437e-07
2.70836e-07
2.63219e-07
2.54712e-07
1.78161e-07
1.76905e-07
1.751e-07
1.76243e-07
1.71784e-07
1.78721e-07
1.72767e-07
1.90177e-07
2.40933e-07
2.55512e-07
2.68541e-07
2.75555e-07
2.76397e-07
2.71602e-07
2.64304e-07
2.58136e-07
2.54807e-07
2.5362e-07
2.52754e-07
2.50762e-07
2.46959e-07
2.41214e-07
2.33539e-07
2.24294e-07
2.1409e-07
2.03575e-07
1.51679e-07
1.49104e-07
1.45437e-07
1.43164e-07
1.36865e-07
1.45462e-07
1.32021e-07
1.69942e-07
2.21814e-07
2.31119e-07
2.44784e-07
2.49676e-07
2.51167e-07
2.50284e-07
2.43084e-07
2.29639e-07
2.15064e-07
2.04558e-07
2.00354e-07
2.01771e-07
2.06605e-07
2.12322e-07
2.15763e-07
2.13997e-07
2.07291e-07
1.98753e-07
1.3029e-07
1.25259e-07
1.1754e-07
1.09867e-07
1.02606e-07
1.12867e-07
1.02724e-07
1.71808e-07
2.13305e-07
2.29623e-07
2.62896e-07
2.71501e-07
2.61424e-07
2.44824e-07
2.33935e-07
2.36005e-07
2.46564e-07
2.56374e-07
2.61007e-07
2.61367e-07
2.59833e-07
2.58917e-07
2.62458e-07
2.75146e-07
2.9708e-07
3.23308e-07
1.17294e-07
1.0916e-07
9.5248e-08
7.82445e-08
6.54338e-08
7.46678e-08
8.43617e-08
1.74081e-07
1.90178e-07
2.22133e-07
2.83578e-07
3.36497e-07
3.89973e-07
4.44889e-07
4.95046e-07
5.36481e-07
5.68106e-07
5.93804e-07
6.1873e-07
6.45975e-07
6.76438e-07
7.09518e-07
7.4361e-07
7.7457e-07
7.98119e-07
8.16393e-07
1.11313e-07
1.01675e-07
8.37498e-08
5.78103e-08
3.07301e-08
3.67864e-08
7.53475e-08
1.31475e-07
1.90435e-07
4.16902e-07
6.36433e-07
8.33741e-07
9.90367e-07
1.10348e-06
1.17863e-06
1.22866e-06
1.26679e-06
1.30265e-06
1.3395e-06
1.37683e-06
1.41276e-06
1.44702e-06
1.48105e-06
1.51974e-06
1.55913e-06
1.5924e-06
)
;

boundaryField
{
    inlet
    {
        type            calculated;
        value           nonuniform List<scalar> 
26
(
1.11058e-07
1.01683e-07
8.37961e-08
5.68669e-08
2.62086e-08
3.74254e-08
8.86944e-08
9.54125e-08
4.27642e-07
8.75678e-07
1.38378e-06
1.89057e-06
2.35197e-06
2.74904e-06
3.07297e-06
3.33178e-06
3.53886e-06
3.70852e-06
3.85417e-06
3.98672e-06
4.11443e-06
4.24616e-06
4.39235e-06
4.56051e-06
4.73887e-06
4.90881e-06
)
;
    }
    outlet
    {
        type            calculated;
        value           nonuniform List<scalar> 0();
    }
    walls
    {
        type            calculated;
        value           nonuniform List<scalar> 0();
    }
    frontAndBack
    {
        type            empty;
    }
    procBoundary0to1
    {
        type            processor;
        value           nonuniform List<scalar> 
94
(
0.000568154
0.0004657
0.0004657
0.000383859
0.000383859
0.000318651
0.000318651
0.000265897
0.000265897
0.000223273
0.000223273
0.000188693
0.000165709
0.000165709
0.000141568
0.0001251
0.0001251
0.000107822
9.57054e-05
8.50171e-05
8.50171e-05
7.39376e-05
6.58604e-05
6.58604e-05
5.75112e-05
5.13255e-05
4.58141e-05
4.58141e-05
4.0158e-05
3.58884e-05
3.20765e-05
3.20765e-05
2.81772e-05
2.52075e-05
2.52075e-05
2.21581e-05
1.98412e-05
1.77717e-05
1.77717e-05
1.56424e-05
1.40293e-05
1.25892e-05
1.25892e-05
1.11016e-05
9.98139e-06
8.98169e-06
8.98169e-06
7.94342e-06
7.16652e-06
6.472e-06
6.472e-06
5.74737e-06
5.20637e-06
4.72132e-06
4.72132e-06
4.2133e-06
3.83308e-06
3.49031e-06
3.18083e-06
3.18083e-06
2.8599e-06
2.61311e-06
2.38806e-06
2.18199e-06
2.18199e-06
1.9701e-06
1.7988e-06
1.64014e-06
1.49372e-06
1.35951e-06
1.35951e-06
1.22765e-06
1.11817e-06
1.01739e-06
9.2314e-07
8.3409e-07
7.50157e-07
7.50157e-07
6.66443e-07
5.96479e-07
5.39195e-07
4.93534e-07
4.52391e-07
4.13077e-07
3.7645e-07
3.40726e-07
3.00475e-07
3.00475e-07
2.45438e-07
1.93209e-07
1.90893e-07
3.49856e-07
8.32628e-07
1.61875e-06
)
;
    }
    procBoundary0to4
    {
        type            processor;
        value           nonuniform List<scalar> 
72
(
0.000514718
0.000437418
0.000374227
0.000321916
0.000278263
0.000241542
0.00021045
0.000183963
0.000161276
0.000141745
0.000124866
0.000110223
9.74728e-05
8.63393e-05
7.65893e-05
6.80295e-05
6.0498e-05
5.3857e-05
4.79903e-05
4.27998e-05
3.82e-05
3.41177e-05
2.99558e-05
2.99558e-05
2.67825e-05
2.39573e-05
2.14395e-05
1.91938e-05
1.71891e-05
1.53979e-05
1.37967e-05
1.23644e-05
1.10825e-05
9.93441e-06
8.90578e-06
7.98378e-06
7.157e-06
6.41529e-06
5.7497e-06
5.15223e-06
4.61575e-06
4.13391e-06
3.70104e-06
3.3121e-06
2.96254e-06
2.64835e-06
2.3659e-06
2.11196e-06
1.88363e-06
1.67834e-06
1.49375e-06
1.32779e-06
1.17859e-06
1.04447e-06
9.23968e-07
8.15796e-07
7.18763e-07
6.31899e-07
5.55489e-07
4.94148e-07
4.45627e-07
4.01184e-07
3.5778e-07
3.16533e-07
2.77664e-07
2.41684e-07
2.08958e-07
1.79467e-07
1.53378e-07
1.32678e-07
1.20415e-07
1.14745e-07
)
;
    }
    procBoundary0to5
    {
        type            processor;
        value           nonuniform List<scalar> 4(0.000605012 0.000598477 0.000590912 0.000581136);
    }
}


// ************************************************************************* //
