/*--------------------------------*- C++ -*----------------------------------*\
| =========                 |                                                 |
| \\      /  F ield         | OpenFOAM: The Open Source CFD Toolbox           |
|  \\    /   O peration     | Version:  2506                                  |
|   \\  /    A nd           | Website:  www.openfoam.com                      |
|    \\/     M anipulation  |                                                 |
\*---------------------------------------------------------------------------*/
FoamFile
{
    version     2.0;
    format      ascii;
    arch        "LSB;label=32;scalar=64";
    class       surfaceScalarField;
    location    "150";
    object      phi;
}
// * * * * * * * * * * * * * * * * * * * * * * * * * * * * * * * * * * * * * //

dimensions      [0 3 -1 0 0 0 0];

oriented        oriented;

internalField   nonuniform List<scalar> 
2584
(
0.24095
-0.249769
0.275557
-0.272733
-0.243715
0.244979
-0.281744
0.281516
-0.309271
0.313285
-0.275483
0.344334
-0.268324
-0.257101
0.249703
-0.315478
0.288279
-0.347845
0.321654
-0.308858
0.354313
-0.300983
0.386159
-0.288945
0.414674
-0.259448
-0.237207
0.254919
-0.351073
0.295653
-0.38858
0.33088
-0.344084
0.36529
-0.335393
0.398775
-0.32243
0.428707
-0.28938
0.456242
-0.26474
-0.238366
0.260697
-0.388633
0.303731
-0.431612
0.340847
-0.3812
0.377041
-0.371587
0.412284
-0.357672
0.443761
-0.320856
0.47261
-0.293589
0.498884
-0.264639
-0.233727
0.266992
-0.428219
0.312439
-0.47706
0.351513
-0.420273
0.38964
-0.409712
0.426833
-0.394865
0.459839
-0.353862
0.490132
-0.32388
0.51776
-0.292267
-0.258196
0.273799
-0.469938
0.321763
-0.525022
0.362906
-0.461417
0.403148
-0.449955
0.442297
-0.434013
0.477009
-0.388573
0.508858
-0.35573
0.537784
-0.321191
0.56335
-0.283761
-0.252392
0.281072
-0.513987
0.331716
-0.575667
0.375094
-0.504795
0.417498
-0.492357
0.458683
-0.475199
0.49525
-0.42514
0.52871
-0.389188
0.559019
-0.3515
0.585816
-0.310559
0.609995
-0.276569
-0.243138
0.288946
-0.560476
0.342283
-0.629004
0.388123
-0.550635
0.4327
-0.536935
0.476153
-0.518652
0.514571
-0.463557
0.549747
-0.424365
0.581596
-0.383348
0.609701
-0.338663
0.634867
-0.301735
-0.265701
0.297208
-0.609441
0.353608
-0.685405
0.401766
-0.598793
0.448861
-0.584029
0.494583
-0.564375
0.535105
-0.50408
0.572015
-0.461273
0.605447
-0.41678
0.634885
-0.368102
0.661325
-0.328174
0.684818
-0.289194
-0.252258
0.306042
-0.66108
0.365497
-0.744858
0.416374
-0.64967
0.465915
-0.633571
0.514165
-0.612624
0.556709
-0.546623
0.595569
-0.500135
0.630697
-0.451907
0.661617
-0.399021
0.689234
-0.355791
0.713874
-0.313835
-0.274056
0.315445
-0.71557
0.378167
-0.807581
0.431739
-0.703242
0.484001
-0.685832
0.534766
-0.66339
0.579605
-0.591462
0.620473
-0.541001
0.657388
-0.488823
0.68973
-0.431364
0.718724
-0.384784
0.744424
-0.339535
0.767191
-0.296823
-0.257948
0.325351
-0.773004
0.391523
-0.873752
0.448017
-0.759737
0.503054
-0.74087
0.556573
-0.716908
0.603743
-0.638631
0.646793
-0.584052
0.685547
-0.527576
0.719576
-0.465392
0.749895
-0.415104
0.776825
-0.366465
0.800604
-0.320603
-0.279007
0.335876
-0.833614
0.40564
-0.943517
0.465117
-0.819213
0.523228
-0.798981
0.579565
-0.773246
0.629249
-0.688316
0.67445
-0.629251
0.715295
-0.568423
0.750961
-0.501058
0.782796
-0.446939
0.810958
-0.394627
0.835797
-0.345441
0.857832
-0.301042
-0.257411
0.346936
-0.89749
0.420525
-1.0171
0.483277
-0.881966
0.54442
-0.860125
0.603806
-0.83263
0.656122
-0.740631
0.703769
-0.676899
0.746581
-0.611234
0.784061
-0.538538
0.817423
-0.480302
0.846981
-0.424185
0.872967
-0.371427
0.89598
-0.324056
-0.2776
0.358646
-0.964818
0.436238
-1.0947
0.502395
-0.948122
0.566825
-0.924555
0.629422
-0.895228
0.684507
-0.795716
0.734579
-0.72697
0.779666
-0.656322
0.819035
-0.577908
0.854059
-0.515325
0.884974
-0.4551
0.912104
-0.398557
0.936152
-0.348103
-0.298644
0.370947
-1.03579
0.452765
-1.17652
0.522485
-1.01784
0.590405
-0.992476
0.65634
-0.961162
0.71436
-0.853736
0.76708
-0.779691
0.814501
-0.703741
0.85583
-0.619237
0.892608
-0.552103
0.92504
-0.487533
0.953475
-0.426991
0.9786
-0.373229
1.00055
-0.320592
-0.270447
0.383995
-1.11068
0.470251
-1.26277
0.543747
-1.09134
0.615322
-1.06405
0.684776
-1.03062
0.745862
-0.914822
0.801351
-0.835178
0.851252
-0.753644
0.894696
-0.66268
0.93327
-0.590677
0.96722
-0.521483
0.997071
-0.456842
1.02313
-0.399286
1.04626
-0.343727
-0.290347
0.397646
-1.18955
0.488651
-1.35378
0.566073
-1.16876
0.641505
-1.13948
0.714711
-1.10382
0.778982
-0.979092
0.837436
-0.893633
0.889888
-0.806094
0.935568
-0.70836
0.976025
-0.631134
1.0118
-0.557258
1.04276
-0.487801
1.07043
-0.426952
1.09422
-0.367519
-0.31118
0.412114
-1.27276
0.508014
-1.44968
0.589615
-1.25036
0.669095
-1.21896
0.746223
-1.18095
0.813969
-1.04684
0.87547
-0.955133
0.93065
-0.861274
0.978782
-0.756492
1.02132
-0.673671
1.05858
-0.594518
1.09142
-0.520643
1.11996
-0.455486
1.14503
-0.392592
1.16662
-0.332768
-0.273672
0.427319
-1.36048
0.528403
-1.55076
0.614446
-1.33641
0.698219
-1.30274
0.779451
-1.26218
0.850817
-1.1182
0.915565
-1.01988
0.973636
-0.919344
1.024
-0.806853
1.06883
-0.718506
1.10807
-0.633759
1.14228
-0.554844
1.17236
-0.485576
1.19847
-0.4187
1.22108
-0.35538
-0.293074
0.443297
-1.45293
0.549899
-1.65736
0.640553
-1.42706
0.728824
-1.39101
0.814444
-1.3478
0.88959
-1.19335
0.957748
-1.08804
1.01883
-0.980429
1.07203
-0.860054
1.11891
-0.765384
1.16018
-0.675023
1.19607
-0.590735
1.22754
-0.517052
1.25488
-0.446038
1.27834
-0.378841
-0.313172
0.362676
-1.53499
0.460163
-1.55042
0.572529
-1.76973
0.668071
-1.5226
0.761096
-1.48403
0.851304
-1.43801
0.93043
-1.27248
1.0022
-1.15981
1.06658
-1.04481
1.12236
-0.91583
1.1718
-0.81483
1.21497
-0.718183
1.25262
-0.628393
1.28557
-0.55
1.31415
-0.474611
1.33887
-0.403563
1.3597
-0.333999
-0.26563
0.375155
-1.63697
0.477917
-1.65318
0.596347
-1.88816
0.697068
-1.62332
0.795106
-1.58207
0.89015
-1.53306
0.97354
-1.35587
1.04911
-1.23538
1.11675
-1.11245
1.17546
-0.974539
1.22741
-0.866785
1.27286
-0.763631
1.31233
-0.667869
1.34691
-0.584569
1.37669
-0.504402
1.40247
-0.429338
1.42423
-0.355764
-0.283763
0.388266
-1.74449
0.496599
-1.76151
0.62147
-2.01303
0.727614
-1.72947
0.830904
-1.68536
0.931068
-1.63322
1.01886
-1.44366
1.09848
-1.315
1.16968
-1.18364
1.23156
-1.03643
1.28601
-0.921229
1.33368
-0.811306
1.37516
-0.709345
1.4114
-0.620813
1.44274
-0.535742
1.46944
-0.456039
1.49223
-0.378551
-0.302719
0.402054
-1.85781
0.516268
-1.87572
0.647885
-2.14465
0.759773
-1.84136
0.868629
-1.79421
0.974136
-1.73873
1.06667
-1.53619
1.15034
-1.39866
1.22548
-1.25879
1.29039
-1.10133
1.34784
-0.978681
1.39797
-0.861432
1.44149
-0.752873
1.47931
-0.658631
1.51207
-0.568504
1.54032
-0.484285
1.56403
-0.40226
1.58357
-0.322263
-0.242511
0.416586
-1.97732
0.53696
-1.9961
0.675739
-2.28342
0.793661
-1.95928
0.908389
-1.90894
1.01955
-1.84989
1.11689
-1.63353
1.20522
-1.48699
1.28428
-1.33785
1.35263
-1.16968
1.4128
-1.03885
1.46566
-0.91429
1.51136
-0.798571
1.5512
-0.698469
1.58547
-0.602772
1.61482
-0.513637
1.63964
-0.427086
1.66007
-0.342694
-0.258823
0.431851
-2.10331
0.558759
-2.12301
0.70502
-2.42969
0.829323
-2.08358
0.950211
-2.02983
1.06735
-1.96703
1.17005
-1.73623
1.26307
-1.58002
1.34607
-1.42084
1.4181
-1.24171
1.48158
-1.10233
1.53692
-0.96963
1.58479
-0.846445
1.62663
-0.740303
1.66252
-0.638668
1.69335
-0.544462
1.71913
-0.452873
1.74054
-0.364099
-0.275679
0.447942
-2.23612
0.58172
-2.25678
0.735956
-2.58392
0.866935
-2.21456
0.994353
-2.15725
1.11784
-2.09052
1.22599
-1.84438
1.32379
-1.67781
1.4113
-1.50835
1.4871
-1.31752
1.55387
-1.1691
1.612
-1.02777
1.66249
-0.896935
1.70616
-0.783976
1.74405
-0.676555
1.77605
-0.576464
1.80317
-0.47999
1.82534
-0.386268
-0.293417
0.464844
-2.37614
0.605918
-2.39786
0.76846
-2.74646
0.906522
-2.35262
1.04085
-2.29157
1.17088
-2.22055
1.28486
-1.95835
1.38788
-1.78083
1.48011
-1.60059
1.55983
-1.39723
1.63
-1.23926
1.69125
-1.08902
1.74404
-0.949718
1.79022
-0.830155
1.82961
-0.715945
1.86332
-0.610177
1.89158
-0.508254
1.9148
-0.409483
-0.311751
0.482661
-2.52378
0.631347
-2.54654
0.802729
-2.91784
0.948253
-2.49815
1.08974
-2.43306
1.2269
-2.35771
1.34678
-2.07824
1.45545
-1.8895
1.55244
-1.69757
1.63635
-1.48114
1.71024
-1.31316
1.77468
-1.15346
1.83034
-1.00538
1.87851
-0.878325
1.9201
-0.757534
1.95542
-0.645506
1.98493
-0.537755
2.00903
-0.43359
2.02811
-0.330825
-0.230497
0.501394
-2.67942
0.658173
-2.70332
0.838843
-3.09852
0.99223
-2.65153
1.14143
-2.58226
1.28582
-2.5021
1.41235
-2.20477
1.52673
-2.00388
1.6289
-1.79974
1.71724
-1.56948
1.79495
-1.39087
1.8626
-1.22111
1.92114
-1.06392
1.97186
-0.92904
2.0153
-0.800977
2.05238
-0.682589
2.08336
-0.568735
2.10854
-0.45877
2.12848
-0.350763
-0.245066
0.521154
-2.84355
0.686421
-2.86859
0.876874
-3.28897
1.03858
-2.81324
1.19581
-2.73949
1.34802
-2.65431
1.4812
-2.33794
1.60171
-2.12439
1.70938
-1.90741
1.80232
-1.66242
1.88411
-1.47267
1.95537
-1.29237
2.01682
-1.12537
2.07012
-0.98234
2.11578
-0.846636
2.15455
-0.721363
2.18687
-0.601051
2.21334
-0.485241
2.23394
-0.371356
-0.260496
0.541916
-3.01657
0.716189
-3.04286
0.916952
-3.48973
1.08743
-2.98371
1.25304
-2.90511
1.41354
-2.81481
1.55395
-2.47835
1.68092
-2.25136
1.79415
-2.02064
1.89217
-1.76044
1.97817
-1.55866
2.05308
-1.36728
2.11771
-1.19
2.17373
-1.03837
2.22171
-0.894609
2.26226
-0.761917
2.29619
-0.634987
2.32373
-0.51277
2.34533
-0.392963
-0.276583
0.563801
-3.19901
0.747515
-3.22658
0.959199
-3.70141
1.13881
-3.16333
1.31355
-3.07984
1.48261
-2.98387
1.63046
-2.6262
1.76414
-2.38504
1.88369
-2.14019
1.98669
-1.86344
2.07735
-1.64933
2.15605
-1.44597
2.22414
-1.2581
2.28294
-1.09716
2.33331
-0.944983
2.37602
-0.804625
2.4116
-0.670567
2.44031
-0.541486
2.46293
-0.415584
-0.292991
0.586836
-3.39137
0.780533
-3.42027
1.00373
-3.92461
1.19318
-3.35278
1.37726
-3.26392
1.55532
-3.16193
1.71135
-2.78224
1.85211
-2.52579
1.9778
-2.26588
2.08643
-1.97207
2.18177
-1.74466
2.26478
-1.52898
2.33626
-1.32957
2.39815
-1.15906
2.451
-0.997833
2.49566
-0.849279
2.53293
-0.707845
2.56327
-0.571824
2.58669
-0.439004
2.60393
-0.310235
-0.185617
0.611122
-3.5942
0.815357
-3.62451
1.05061
-4.15987
1.25023
-3.55239
1.44431
-3.45801
1.63212
-3.34973
1.79628
-2.9464
1.94474
-2.67425
2.07731
-2.39846
2.19163
-2.08639
2.2921
-1.84513
2.37937
-1.61625
2.45442
-1.40462
2.51943
-1.22407
2.57509
-1.05349
2.62218
-0.896367
2.66113
-0.746798
2.69271
-0.603407
2.7173
-0.463591
2.73522
-0.328162
-0.197285
0.636689
-3.80809
0.852002
-3.83982
1.10007
-4.40794
1.31059
-3.76291
1.51501
-3.66243
1.71305
-3.54777
1.88609
-3.11944
2.04257
-2.83074
2.18193
-2.53781
2.30239
-2.20686
2.40813
-1.95087
2.49993
-1.70804
2.57908
-1.48377
2.64752
-1.2925
2.70581
-1.11179
2.75518
-0.945726
2.79624
-0.78787
2.82933
-0.636489
2.85487
-0.489134
2.87367
-0.346966
-0.209484
0.663609
-4.0336
0.890656
-4.06687
1.1522
-4.66948
1.37405
-3.98476
1.58971
-3.87809
1.79828
-3.75634
1.98077
-3.30193
2.1455
-2.99547
2.29253
-2.68485
2.41923
-2.33356
2.53061
-2.06225
2.62726
-1.8047
2.71053
-1.56704
2.78257
-1.36454
2.84385
-1.17307
2.8958
-0.997685
2.93868
-0.830747
2.97334
-0.671152
3.00025
-0.516045
3.01974
-0.366458
-0.222173
0.692007
-4.27139
0.931409
-4.30627
1.20715
-4.94522
1.44106
-4.21867
1.6683
-4.10533
1.88826
-3.9763
2.08044
-3.49412
2.25408
-3.1691
2.40883
-2.8396
2.54249
-2.46722
2.65967
-2.17943
2.76165
-1.90668
2.84915
-1.65453
2.92475
-1.44014
2.98937
-1.23769
3.04371
-1.05202
3.08889
-0.875936
3.12535
-0.707604
3.15351
-0.544207
3.17365
-0.3866
-0.235285
0.721919
-4.52216
0.974345
-4.5587
1.26509
-5.23596
1.51166
-4.46524
1.75132
-4.34499
1.98307
-4.20805
2.1856
-3.69665
2.36852
-3.35202
2.53171
-3.00279
2.6725
-2.608
2.79591
-2.30284
2.90295
-2.01372
2.99525
-1.74684
3.07486
-1.51976
3.14272
-1.30555
3.19995
-1.10926
3.24737
-0.923352
3.28554
-0.74577
3.31493
-0.573604
3.3362
-0.407869
3.34984
-0.248921
-0.102644
0.753407
-4.78657
1.0196
-4.82489
1.32607
-5.54243
1.58616
-4.72533
1.83871
-4.59754
2.0829
-4.45225
2.29643
-3.91018
2.48934
-3.54493
2.66132
-3.17476
2.80943
-2.75612
2.93949
-2.43291
3.05228
-2.12651
3.14933
-1.84389
3.23307
-1.6035
3.3045
-1.37698
3.36467
-1.16942
3.41453
-0.973211
3.45447
-0.785707
3.48529
-0.604434
3.50752
-0.430091
3.52176
-0.263167
-0.109566
0.78667
-5.06542
1.06731
-5.10553
1.39061
-5.86573
1.66463
-4.99935
1.93083
-4.86373
2.18846
-4.70988
2.4134
-4.13511
2.61662
-3.74816
2.79766
-3.3558
2.95382
-2.91228
3.09076
-2.56985
3.20964
-2.24539
3.31185
-1.9461
3.39999
-1.69164
3.47509
-1.45208
3.5384
-1.23273
3.5906
-1.02541
3.63258
-0.827691
3.66504
-0.63689
3.68828
-0.453331
3.70293
-0.277816
-0.116992
0.821674
-5.35949
1.11766
-5.40151
1.45843
-6.20651
1.7474
-5.28832
2.0282
-5.14453
2.29959
-4.98127
2.53681
-4.37233
2.75076
-3.96211
2.94171
-3.54675
3.10624
-3.07681
3.25047
-2.71407
3.37563
-2.37055
3.48324
-2.05371
3.57596
-1.78436
3.65487
-1.53099
3.72153
-1.29939
3.77645
-1.08034
3.82059
-0.871833
3.85451
-0.670806
3.87883
-0.477651
3.89424
-0.293227
-0.124464
0.858593
-5.66959
1.17069
-5.71361
1.53004
-6.56586
1.83481
-5.59309
2.13067
-5.44039
2.41676
-5.26737
2.66683
-4.62239
2.89249
-4.18777
3.09354
-3.74781
3.26673
-3.24999
3.41883
-2.86618
3.55057
-2.50229
3.66384
-2.16697
3.76152
-1.88204
3.84473
-1.6142
3.91461
-1.36927
3.97242
-1.13814
4.01883
-0.918253
4.05437
-0.706336
4.07972
-0.503003
4.09595
-0.309462
-0.13219
0.897544
-5.99664
1.22665
-6.04272
1.60559
-6.9448
1.92686
-5.91436
2.23876
-5.75229
2.54033
-5.56894
2.80377
-4.88583
3.0416
-4.42559
3.25356
-3.95977
3.43623
-3.43266
3.59624
-3.02618
3.73512
-2.64117
3.85429
-2.28614
3.95718
-1.98493
4.04457
-1.7016
4.11829
-1.44299
4.17904
-1.1989
4.22778
-0.966988
4.26503
-0.743584
4.29186
-0.529832
4.3086
-0.326206
-0.140253
0.93858
-6.34154
1.28562
-6.38976
1.6852
-7.34438
2.02385
-6.25301
2.35276
-6.0812
2.67084
-5.88702
2.94853
-5.16353
3.19918
-4.67624
3.42248
-4.18307
3.61493
-3.62512
3.78356
-3.19481
3.92974
-2.78736
4.05533
-2.41172
4.16361
-2.09321
4.25566
-1.79365
4.33303
-1.52037
4.39701
-1.26287
4.44827
-1.01825
4.48751
-0.782819
4.5155
-0.557821
4.53307
-0.343774
-0.148476
0.981864
-6.70527
1.34787
-6.75577
1.76917
-7.76568
2.1263
-6.61014
2.4731
-6.42799
2.80824
-6.22216
3.10095
-5.45624
3.36513
-4.94041
3.60057
-4.41851
3.80326
-3.82781
3.9809
-3.37245
4.13485
-2.94131
4.26728
-2.54416
4.38114
-2.20707
4.47816
-1.89066
4.55967
-1.60188
4.62686
-1.33007
4.68063
-1.07203
4.72196
-0.824145
4.75129
-0.587149
4.76961
-0.362102
4.77845
-0.15731
0.0166824
1.02753
-7.08889
1.41351
-7.14174
1.85785
-8.21002
2.23434
-6.98663
2.59991
-6.79356
2.95323
-6.57548
3.26185
-5.76487
3.54033
-5.21889
3.78822
-4.6664
4.00176
-4.04135
4.18901
-3.5597
4.35136
-3.10365
4.49056
-2.68337
4.61066
-2.32717
4.71264
-1.99264
4.79856
-1.6878
4.86933
-1.40084
4.92582
-1.12852
4.96917
-0.867484
4.99999
-0.617978
5.01928
-0.381387
5.02828
-0.166306
0.0158825
1.07568
-7.49347
1.4827
-7.54876
1.95111
-8.67843
2.34829
-7.38381
2.73365
-7.17893
3.1062
-6.94803
3.43147
-6.09014
3.72483
-5.51224
3.98622
-4.92779
4.21146
-4.26659
4.40852
-3.75676
4.57948
-3.27462
4.72622
-2.8301
4.85278
-2.45373
4.96016
-2.10002
5.05043
-1.77807
5.12485
-1.47526
5.18454
-1.18822
5.23
-0.912942
5.2623
-0.650273
5.28259
-0.40168
5.29188
-0.175597
0.0150812
1.12647
-7.92014
1.55579
-7.97809
2.04982
-9.17246
2.4684
-7.8024
2.87475
-7.58528
3.26746
-7.34073
3.61031
-6.433
3.9196
-5.82153
4.19514
-5.20333
4.43221
-4.50366
4.64023
-3.96478
4.82025
-3.45464
4.97487
-2.98472
5.10784
-2.58669
5.22105
-2.21323
5.31614
-1.87316
5.39449
-1.55361
5.45708
-1.25081
5.50489
-0.960747
5.53892
-0.684312
5.56012
-0.422877
5.56998
-0.185456
0.0145106
1.18006
-8.37016
1.63276
-8.43079
2.15378
-9.69347
2.59511
-8.24373
3.02365
-8.01381
3.43759
-7.75468
3.79902
-6.79443
4.12513
-6.14764
4.41536
-5.49356
4.66531
-4.75362
4.88421
-4.18368
5.0739
-3.64432
5.23677
-3.1476
5.37707
-2.72699
5.49625
-2.33241
5.5963
-1.97321
5.67874
-1.63605
5.7447
-1.31677
5.795
-1.01104
5.83083
-0.720139
5.853
-0.445047
5.86329
-0.195747
0.0138493
1.23654
-8.8448
1.71392
-8.90816
2.26337
-10.2429
2.72885
-8.70921
3.18052
-8.46548
3.617
-8.19116
3.99796
-7.17539
4.34159
-6.49126
4.64753
-5.7995
4.91101
-5.0171
5.14177
-4.41444
5.34173
-3.84429
5.51323
-3.3191
5.66093
-2.87469
5.78634
-2.45782
5.89191
-2.07879
5.97859
-1.72272
6.04804
-1.38623
6.101
-1.064
6.1385
-0.757639
6.16181
-0.468354
6.1726
-0.206541
0.0132937
1.29636
-9.3455
1.7997
-9.4115
2.37904
-10.8223
2.86986
-9.20003
3.34627
-8.94189
3.80627
-8.65117
4.208
-7.57712
4.57015
-6.85341
4.89258
-6.12193
5.17021
-5.29472
5.41329
-4.65752
5.62392
-4.05492
5.8046
-3.49977
5.9602
-3.0303
6.09238
-2.59001
6.20332
-2.18972
6.29491
-1.81432
6.36779
-1.4591
6.42358
-1.11979
6.46306
-0.79712
6.48766
-0.492949
6.49886
-0.217741
0.0126565
1.35909
-9.87346
1.89026
-9.94266
2.50111
-11.4331
3.01871
-9.71764
3.52073
-9.44391
4.00592
-9.13636
4.42928
-8.00048
4.81109
-7.23522
5.15104
-6.46188
5.44362
-5.5873
5.69977
-4.91367
5.92162
-4.27677
6.11211
-3.69025
6.27602
-3.19421
6.41524
-2.72923
6.53223
-2.30672
6.62838
-1.91046
6.70531
-1.53603
6.76403
-1.17851
6.80552
-0.838615
6.83134
-0.518762
6.84311
-0.229512
0.012151
1.42553
-10.4303
1.98567
-10.5028
2.62995
-12.0774
3.1757
-10.2634
3.70489
-9.97309
4.21666
-9.64813
4.66283
-8.44665
5.06521
-7.6376
5.42346
-6.82012
5.7318
-5.89564
6.00168
-5.18355
6.2355
-4.51059
6.43621
-3.89097
6.60893
-3.36692
6.75574
-2.87604
6.8789
-2.42987
6.98033
-2.0119
7.06133
-1.61703
7.12238
-1.23957
7.16693
-0.883162
7.19411
-0.545939
7.20596
-0.241363
7.20714
0.0109651
0.197943
1.49573
-11.0178
2.08611
-11.0932
2.76567
-12.757
3.3411
-10.8388
3.89951
-10.5315
4.43851
-10.1871
4.90912
-8.91727
5.33339
-8.06186
5.71105
-7.19778
6.03591
-6.2205
6.32045
-5.4681
6.56687
-4.75702
6.77845
-4.10255
6.96035
-3.54882
7.11492
-3.03061
7.24465
-2.55961
7.35124
-2.11849
7.43684
-1.70263
7.50216
-1.30488
7.54793
-0.92893
7.57618
-0.574194
7.58922
-0.254397
7.58916
0.0110206
0.204557
1.5695
-11.6373
2.19276
-11.7164
2.90908
-13.4733
3.51586
-11.4456
4.1045
-11.1201
4.6731
-10.7557
5.16913
-9.4133
5.6163
-8.50903
6.01445
-7.59594
6.35659
-6.56264
6.6565
-5.76801
6.91636
-5.01688
7.13912
-4.32531
7.33093
-3.74063
7.49405
-3.19373
7.62986
-2.69542
7.74267
-2.2313
7.83267
-1.79263
7.90171
-1.37393
7.94887
-0.97608
7.97864
-0.603971
7.99335
-0.2691
7.99395
0.0104204
0.214175
1.13308
-12.0876
1.60857
-12.1919
2.20948
-14.0742
2.79157
-12.0277
3.4534
-11.782
4.22608
-11.5284
5.05756
-10.2448
5.99267
-9.44414
7.04436
-8.64762
8.6243
-8.14257
8.23506
-5.37877
7.84415
-4.62596
7.50835
-3.98951
7.21403
-3.44631
6.95783
-2.93754
6.73441
-2.47199
6.53849
-2.03538
6.36839
-1.62253
6.22159
-1.22713
6.09976
-0.85425
5.9972
-0.501407
5.91506
-0.186967
5.852
0.0734881
0.25913
1.24237
-12.583
1.76502
-12.7146
2.42548
-14.7346
3.06516
-12.6674
3.79221
-12.509
4.64064
-12.3768
5.55387
-11.158
6.58015
-10.4704
7.73465
-9.80212
9.46812
-9.87604
9.04178
-4.95243
8.61348
-4.19767
8.24541
-3.62145
7.92447
-3.12537
7.64306
-2.65612
7.39762
-2.22655
7.18308
-1.82085
6.99626
-1.43571
6.83716
-1.06802
6.7009
-0.717993
6.5895
-0.390003
6.50029
-0.097756
6.43182
0.14195
0.310322
1.36168
-13.1278
1.93617
-13.2891
2.66254
-15.461
3.3652
-13.37
4.16412
-13.308
5.09641
-13.3091
6.09889
-12.1605
7.22567
-11.5972
8.49276
-11.0692
10.3958
-11.7791
9.92772
-4.48431
9.45979
-3.72974
9.0566
-3.21826
8.70408
-2.77285
8.3964
-2.34844
8.127
-1.95716
7.89195
-1.58579
7.68794
-1.2317
7.51221
-0.892298
7.36242
-0.568196
7.24057
-0.268157
7.14132
0.00149507
7.06461
0.218661
0.364052
1.49255
-13.727
2.12442
-13.9209
2.92243
-16.259
3.69498
-14.1426
4.57266
-14.1856
5.59658
-14.333
6.69764
-13.2616
7.93515
-12.8347
9.3259
-12.46
11.4143
-13.8675
10.9023
-3.9723
10.39
-3.21739
9.94579
-2.77408
9.5594
-2.38647
9.22327
-2.01231
8.92663
-1.66052
8.66916
-1.32833
8.4448
-1.00734
8.25198
-0.699477
8.08954
-0.405756
7.95423
-0.132848
7.84595
0.109774
7.76461
0.300003
0.42579
1.63576
-14.3859
2.33091
-14.6161
3.20795
-17.1361
4.057
-14.9916
5.02129
-15.1499
6.14616
-15.4579
7.35569
-14.4711
8.71466
-14.1937
10.2423
-13.9876
12.5356
-16.1608
11.9749
-3.4116
11.4105
-2.65294
10.9266
-2.29018
10.5026
-1.96251
10.1306
-1.6403
9.80849
-1.33841
9.52403
-1.04386
9.27873
-0.762033
9.06695
-0.487701
8.8888
-0.227606
8.73963
0.0163291
8.62191
0.22749
8.52908
0.392829
0.490574
1.79283
-15.1106
2.55677
-15.38
3.5215
-18.1008
4.45438
-15.9245
5.51417
-16.2097
6.74997
-16.6937
8.07905
-15.8002
9.57188
-15.6865
11.2489
-15.6646
13.7676
-18.6795
13.152
-2.79598
12.5341
-2.03509
12.0024
-1.75847
11.5369
-1.49697
11.1305
-1.23395
10.7742
-0.98212
10.4646
-0.734201
10.1937
-0.49118
9.96113
-0.255115
9.76412
-0.0305957
9.60189
0.178564
9.47175
0.357633
9.37229
0.492284
0.563937
1.96513
-15.9076
2.8051
-16.22
3.86526
-19.161
4.89088
-16.9501
6.0557
-17.3745
7.41385
-18.0519
8.87398
-17.2603
10.5148
-17.3273
12.3582
-17.508
15.1262
-21.4476
14.4493
-2.11906
13.771
-1.35675
13.1856
-1.17313
12.6746
-0.985917
12.2288
-0.788139
11.8373
-0.590622
11.495
-0.391932
11.1991
-0.195332
10.945
-0.00099839
10.7286
0.18587
10.5502
0.356918
10.4072
0.50062
10.2982
0.601304
0.644808
2.15362
-16.7842
3.07724
-17.1436
4.24327
-20.327
5.37068
-18.0775
6.65085
-18.6547
8.14376
-19.5448
9.74862
-18.8652
11.5515
-19.1302
13.5771
-19.5336
16.6217
-24.4922
15.8753
-1.37262
15.1293
-0.610802
14.4869
-0.530707
13.9247
-0.42377
13.4351
-0.298529
13.0059
-0.161343
12.6313
-0.0173311
12.3056
0.130329
12.0253
0.279298
11.7887
0.422473
11.5922
0.553386
11.4357
0.657116
11.3139
0.723121
11.2262
0.732524
0.73099
2.3603
-17.7482
3.3761
-18.1594
4.65779
-21.6087
5.89749
-19.3172
7.30496
-20.0622
8.94634
-21.1862
10.7112
-20.63
12.6936
-21.1126
14.9211
-21.7611
18.2682
-27.8393
17.4489
-0.553313
16.6274
0.210667
15.9204
0.176301
15.3032
0.193397
14.7634
0.241283
14.291
0.311074
13.879
0.394698
13.5199
0.489392
13.2126
0.586575
12.9527
0.682416
12.7365
0.769607
12.5651
0.828484
12.4333
0.854946
12.3378
0.827969
0.801893
2.58674
-18.8083
3.7038
-19.2765
5.1134
-23.0183
6.47661
-20.6804
8.0245
-21.6101
9.82937
-22.991
11.7702
-22.5708
13.9499
-23.2923
16.4018
-24.213
20.0843
-31.5218
19.1808
0.350115
18.2754
1.11614
17.4964
0.955241
16.816
0.873843
16.222
0.835237
15.7037
0.829427
15.2501
0.84828
14.8563
0.883216
14.5181
0.924748
14.2309
0.969629
13.9947
1.00581
13.804
1.01919
13.6573
1.0016
13.5506
0.934704
0.879218
2.83512
-19.9743
4.0637
-20.5051
5.61398
-24.5685
7.11315
-22.1796
8.81589
-23.3128
10.802
-24.9771
12.9368
-24.7056
15.3367
-25.6922
18.0343
-26.9106
22.0874
-35.5749
21.0903
1.34723
20.0921
2.11438
19.2328
1.81453
18.483
1.62367
17.8293
1.48894
17.2576
1.40111
16.7573
1.34861
16.3253
1.31526
15.9533
1.2967
15.6405
1.28242
15.3805
1.26584
15.1743
1.22537
15.0178
1.15812
14.9034
1.04906
0.962757
3.10658
-21.2568
4.4582
-21.8567
6.16381
-26.2742
7.81342
-23.8292
9.68713
-25.1865
11.8724
-27.1624
14.222
-27.0553
16.8633
-28.3335
19.8342
-29.8815
24.2952
-40.0359
23.195
2.44738
22.0922
3.21723
21.1446
2.76212
20.319
2.44926
19.5985
2.20949
18.9657
2.0339
18.417
1.89732
17.9386
1.7937
17.5293
1.70595
17.1801
1.63168
16.8929
1.55306
16.6606
1.45761
16.4806
1.33816
16.3499
1.17981
1.05893
3.40361
4.89056
6.76772
8.58392
10.6468
13.0537
15.6422
18.5502
21.8209
26.7293
25.516
24.2969
23.2496
22.3348
21.5383
20.8434
20.2369
19.7135
19.2648
18.8895
18.5824
18.3424
18.1604
18.0289
)
;

boundaryField
{
    inlet
    {
        type            calculated;
        value           nonuniform List<scalar> 
25
(
-22.6671
-23.3436
-28.1513
-25.6454
-27.2494
-29.5693
-29.6438
-31.2416
-33.1521
-44.9442
3.6607
4.43635
3.80938
3.36403
3.006
2.72884
2.50384
2.31705
2.15467
2.00697
1.86025
1.69755
1.52023
1.31131
1.15447
)
;
    }
    outlet
    {
        type            calculated;
        value           nonuniform List<scalar> 0();
    }
    walls
    {
        type            calculated;
        value           nonuniform List<scalar> 0();
    }
    frontAndBack
    {
        type            empty;
    }
    procBoundary4to0
    {
        type            processor;
        value           nonuniform List<scalar> 
72
(
-0.210557
-0.213003
-0.215968
-0.219323
-0.223136
-0.227405
-0.23208
-0.237022
-0.242456
-0.248243
-0.254403
-0.260955
-0.267917
-0.275265
-0.283061
-0.291317
-0.299978
-0.309099
-0.318775
-0.328907
-0.339601
-0.350847
1.43828
-0.265965
-0.273172
-0.280741
-0.288738
-0.297072
-0.305861
-0.315133
-0.324827
-0.335025
-0.345751
-0.357025
-0.368896
-0.381355
-0.394475
-0.408295
-0.422805
-0.438093
-0.454221
-0.471151
-0.48899
-0.50782
-0.527605
-0.548489
-0.570495
-0.593684
-0.618131
-0.643916
-0.671089
-0.699805
-0.730034
-0.761901
-0.79566
-0.831137
-0.868647
-0.908288
-0.950029
-0.68272
-0.746947
-0.816917
-0.893355
-0.976884
-1.06813
-1.16806
-1.27701
-1.39637
-1.52659
-1.66911
-1.82416
-1.99322
)
;
    }
    procBoundary4to5
    {
        type            processor;
        value           nonuniform List<scalar> 
95
(
0.219378
0.238129
0.21362
0.305652
0.237276
0.226836
0.374599
0.230934
0.211001
0.440879
0.21332
0.481287
0.21036
0.522252
0.542229
0.229343
0.586398
0.221606
0.631526
0.657431
0.231338
0.705738
0.735672
0.237645
0.787495
0.821663
0.238016
0.877226
0.916171
0.957196
0.251252
1.01975
1.06617
1.11505
0.255164
1.18512
1.24049
1.29844
0.24819
1.37714
1.44237
1.51119
0.226668
1.59941
1.67639
1.75739
1.84308
1.93314
0.216081
2.04253
2.14305
2.24937
2.36142
2.47934
0.17423
2.61532
2.74689
2.88587
3.03243
3.18676
0.0957465
3.35673
3.52868
3.71035
3.90171
4.10368
4.31667
4.54129
-0.0174727
4.77924
5.02908
5.29268
5.57055
5.86395
6.17316
6.49949
6.84361
-0.189526
7.19873
7.58255
7.98433
5.80704
6.38063
7.01088
7.70287
8.4643
9.29893
10.2173
-0.66722
11.1624
12.2669
13.4733
14.8199
16.2537
17.9333
)
;
    }
}


// ************************************************************************* //
