/*--------------------------------*- C++ -*----------------------------------*\
| =========                 |                                                 |
| \\      /  F ield         | OpenFOAM: The Open Source CFD Toolbox           |
|  \\    /   O peration     | Version:  2506                                  |
|   \\  /    A nd           | Website:  www.openfoam.com                      |
|    \\/     M anipulation  |                                                 |
\*---------------------------------------------------------------------------*/
FoamFile
{
    version     2.0;
    format      ascii;
    arch        "LSB;label=32;scalar=64";
    class       volScalarField;
    location    "150";
    object      turbulenceProperties:epsilon;
}
// * * * * * * * * * * * * * * * * * * * * * * * * * * * * * * * * * * * * * //

dimensions      [0 2 -3 0 0 0 0];

internalField   nonuniform List<scalar> 
1340
(
0.00019051
0.000193417
0.0001956
0.000137485
0.000139975
0.000142033
0.000143412
0.000143982
0.000100541
0.00010263
0.000104447
0.000105867
0.000106789
0.000107139
0.000106762
7.43343e-05
7.60456e-05
7.75909e-05
7.8891e-05
7.98862e-05
8.05272e-05
8.06795e-05
8.03124e-05
5.54944e-05
5.68821e-05
5.81665e-05
5.93043e-05
6.02636e-05
6.09896e-05
6.13998e-05
6.14418e-05
6.11127e-05
4.178e-05
4.28976e-05
4.39487e-05
4.49167e-05
4.57823e-05
4.64952e-05
4.69995e-05
4.72586e-05
4.72505e-05
3.169e-05
3.25859e-05
3.34388e-05
3.42505e-05
3.50035e-05
3.56592e-05
3.61758e-05
3.65305e-05
3.66915e-05
3.66475e-05
2.41951e-05
2.49096e-05
2.56014e-05
2.62734e-05
2.69135e-05
2.74933e-05
2.79823e-05
2.83571e-05
2.86043e-05
2.86917e-05
2.86207e-05
1.85799e-05
1.91494e-05
1.97095e-05
2.02604e-05
2.07993e-05
2.12985e-05
2.17377e-05
2.21011e-05
2.23752e-05
2.25381e-05
2.2583e-05
1.43406e-05
1.47961e-05
1.52474e-05
1.56992e-05
1.61465e-05
1.6571e-05
1.69544e-05
1.72873e-05
1.75581e-05
1.77527e-05
1.78548e-05
1.78705e-05
1.11193e-05
1.14837e-05
1.18478e-05
1.2216e-05
1.25862e-05
1.29414e-05
1.32706e-05
1.35657e-05
1.38181e-05
1.4016e-05
1.41511e-05
1.42182e-05
8.65718e-06
8.94872e-06
9.24258e-06
9.54213e-06
9.84614e-06
1.01414e-05
1.04204e-05
1.06764e-05
1.09031e-05
1.10918e-05
1.12367e-05
1.13283e-05
1.13696e-05
6.76474e-06
6.99892e-06
7.23537e-06
7.47893e-06
7.72778e-06
7.97185e-06
8.20588e-06
8.42492e-06
8.62384e-06
8.79586e-06
8.93655e-06
9.04093e-06
9.10428e-06
5.3036e-06
5.49143e-06
5.68204e-06
5.87972e-06
6.08258e-06
6.28385e-06
6.47877e-06
6.66413e-06
6.83562e-06
6.98866e-06
7.1192e-06
7.22454e-06
7.29752e-06
7.34175e-06
4.1704e-06
4.32126e-06
4.47497e-06
4.63481e-06
4.80027e-06
4.96547e-06
5.12715e-06
5.28259e-06
5.42882e-06
5.56183e-06
5.67936e-06
5.77836e-06
5.85503e-06
5.90864e-06
3.28814e-06
3.4093e-06
3.53334e-06
3.66254e-06
3.79722e-06
3.9326e-06
4.06615e-06
4.19582e-06
4.31915e-06
4.43345e-06
4.53674e-06
4.62682e-06
4.70117e-06
4.75771e-06
2.59891e-06
2.69624e-06
2.79605e-06
2.90059e-06
3.01015e-06
3.12089e-06
3.2307e-06
3.33846e-06
3.44178e-06
3.53888e-06
3.62823e-06
3.70829e-06
3.77725e-06
3.83236e-06
3.87566e-06
2.05856e-06
2.13675e-06
2.21709e-06
2.3017e-06
2.39077e-06
2.48116e-06
2.57142e-06
2.66041e-06
2.74655e-06
2.82838e-06
2.90478e-06
2.97469e-06
3.03661e-06
3.08902e-06
3.13162e-06
1.63372e-06
1.69654e-06
1.76119e-06
1.82972e-06
1.90218e-06
1.9758e-06
2.04979e-06
2.12306e-06
2.19459e-06
2.26306e-06
2.32784e-06
2.38797e-06
2.44253e-06
2.49041e-06
2.53062e-06
1.29889e-06
1.34926e-06
1.40142e-06
1.45688e-06
1.51568e-06
1.57568e-06
1.63616e-06
1.69633e-06
1.75542e-06
1.81251e-06
1.86697e-06
1.91831e-06
1.96563e-06
2.00843e-06
2.0451e-06
2.07705e-06
1.03425e-06
1.07465e-06
1.11681e-06
1.16171e-06
1.20937e-06
1.2582e-06
1.30755e-06
1.35692e-06
1.4056e-06
1.45297e-06
1.49855e-06
1.54195e-06
1.58253e-06
1.6199e-06
1.65305e-06
1.68211e-06
8.24699e-07
8.57102e-07
8.91185e-07
9.2752e-07
9.66148e-07
1.00582e-06
1.04607e-06
1.08648e-06
1.12649e-06
1.16566e-06
1.2036e-06
1.24003e-06
1.27452e-06
1.30669e-06
1.33605e-06
1.36203e-06
6.35068e-07
6.58405e-07
6.84469e-07
7.11967e-07
7.41356e-07
7.72656e-07
8.04862e-07
8.3763e-07
8.70671e-07
9.0348e-07
9.35751e-07
9.67214e-07
9.97635e-07
1.02674e-06
1.05419e-06
1.07974e-06
1.10256e-06
1.12355e-06
5.0743e-07
5.26167e-07
5.47162e-07
5.69379e-07
5.93143e-07
6.1848e-07
6.44627e-07
6.713e-07
6.98243e-07
7.25112e-07
7.51648e-07
7.77634e-07
8.02926e-07
8.27298e-07
8.50537e-07
8.72433e-07
8.92536e-07
9.10904e-07
4.05857e-07
4.20925e-07
4.37818e-07
4.55753e-07
4.74966e-07
4.95488e-07
5.16685e-07
5.3837e-07
5.60335e-07
5.82312e-07
6.04054e-07
6.2546e-07
6.46406e-07
6.66724e-07
6.86273e-07
7.04853e-07
7.2224e-07
7.38166e-07
3.24915e-07
3.37029e-07
3.50618e-07
3.65095e-07
3.80627e-07
3.97223e-07
4.14408e-07
4.32019e-07
4.49905e-07
4.67834e-07
4.85638e-07
5.03224e-07
5.20512e-07
5.37364e-07
5.53696e-07
5.69358e-07
5.84266e-07
5.97913e-07
6.10887e-07
2.60325e-07
2.70062e-07
2.80995e-07
2.92672e-07
3.05222e-07
3.18646e-07
3.32568e-07
3.46866e-07
3.61416e-07
3.76015e-07
3.9056e-07
4.0498e-07
4.19193e-07
4.33124e-07
4.46706e-07
4.59833e-07
4.72405e-07
4.84199e-07
4.95255e-07
2.08722e-07
2.16544e-07
2.25338e-07
2.34755e-07
2.44887e-07
2.5574e-07
2.67016e-07
2.78622e-07
2.90427e-07
3.02316e-07
3.1419e-07
3.25982e-07
3.37646e-07
3.49116e-07
3.60359e-07
3.71292e-07
3.81826e-07
3.91822e-07
4.01267e-07
1.67443e-07
1.73731e-07
1.80803e-07
1.88384e-07
1.96568e-07
2.0534e-07
2.14466e-07
2.23869e-07
2.33461e-07
2.43133e-07
2.52806e-07
2.6243e-07
2.71975e-07
2.81397e-07
2.90671e-07
2.99724e-07
3.08509e-07
3.16896e-07
3.24882e-07
1.34396e-07
1.39446e-07
1.45128e-07
1.51234e-07
1.57838e-07
1.64925e-07
1.72311e-07
1.79932e-07
1.87718e-07
1.95572e-07
2.03442e-07
2.1129e-07
2.1909e-07
2.26809e-07
2.34422e-07
2.41894e-07
2.49169e-07
2.56183e-07
2.62839e-07
1.07915e-07
1.11967e-07
1.16529e-07
1.21447e-07
1.26772e-07
1.325e-07
1.38472e-07
1.44646e-07
1.5096e-07
1.57339e-07
1.63738e-07
1.70131e-07
1.76491e-07
1.82799e-07
1.89037e-07
1.95179e-07
2.0118e-07
2.07018e-07
2.12527e-07
2.17925e-07
8.66801e-08
8.99282e-08
9.35882e-08
9.75482e-08
1.01842e-07
1.06466e-07
1.11295e-07
1.16298e-07
1.21416e-07
1.26594e-07
1.31796e-07
1.36992e-07
1.42172e-07
1.47317e-07
1.52416e-07
1.57448e-07
1.62382e-07
1.6719e-07
1.71797e-07
1.76228e-07
6.96383e-08
7.22402e-08
7.51753e-08
7.83613e-08
8.18226e-08
8.5556e-08
8.94628e-08
9.3511e-08
9.76616e-08
1.01861e-07
1.06083e-07
1.10307e-07
1.14521e-07
1.18713e-07
1.22872e-07
1.26982e-07
1.31022e-07
1.34967e-07
1.3877e-07
1.42421e-07
5.59549e-08
5.80361e-08
6.03885e-08
6.29513e-08
6.57421e-08
6.87551e-08
7.19143e-08
7.51931e-08
7.85547e-08
8.19618e-08
8.53903e-08
8.88207e-08
9.22447e-08
9.56543e-08
9.90408e-08
1.02391e-07
1.05689e-07
1.08916e-07
1.12028e-07
1.15024e-07
4.49618e-08
4.66248e-08
4.85101e-08
5.05694e-08
5.28193e-08
5.52521e-08
5.78064e-08
6.04612e-08
6.31873e-08
6.59505e-08
6.87316e-08
7.15164e-08
7.42975e-08
7.70671e-08
7.98203e-08
8.25461e-08
8.52336e-08
8.78603e-08
9.04073e-08
9.28318e-08
3.61273e-08
3.74541e-08
3.89634e-08
4.06187e-08
4.24315e-08
4.43955e-08
4.64626e-08
4.86132e-08
5.08231e-08
5.3064e-08
5.53216e-08
5.75822e-08
5.98401e-08
6.20879e-08
6.43231e-08
6.65365e-08
6.87204e-08
7.08557e-08
7.29352e-08
7.4895e-08
7.68051e-08
2.90243e-08
3.00819e-08
3.12893e-08
3.26195e-08
3.40801e-08
3.56669e-08
3.73392e-08
3.90823e-08
4.08757e-08
4.26946e-08
4.45263e-08
4.63618e-08
4.8193e-08
5.00175e-08
5.18304e-08
5.36258e-08
5.53959e-08
5.71282e-08
5.8811e-08
6.04162e-08
6.1941e-08
2.33122e-08
2.41543e-08
2.51194e-08
2.61882e-08
2.73654e-08
2.86474e-08
3.00019e-08
3.14164e-08
3.28717e-08
3.43484e-08
3.58364e-08
3.73261e-08
3.88126e-08
4.02923e-08
4.17619e-08
4.32164e-08
4.46495e-08
4.60521e-08
4.74115e-08
4.87087e-08
4.99348e-08
1.87177e-08
1.93876e-08
2.01586e-08
2.10168e-08
2.19661e-08
2.30028e-08
2.41006e-08
2.52488e-08
2.64314e-08
2.7632e-08
2.8841e-08
3.00517e-08
3.12584e-08
3.2459e-08
3.36496e-08
3.4827e-08
3.59858e-08
3.71178e-08
3.82141e-08
3.92577e-08
4.02408e-08
1.50222e-08
1.55542e-08
1.61695e-08
1.68588e-08
1.76247e-08
1.84634e-08
1.93546e-08
2.02878e-08
2.12499e-08
2.22271e-08
2.32111e-08
2.41951e-08
2.51756e-08
2.61493e-08
2.71142e-08
2.80671e-08
2.9003e-08
2.99161e-08
3.07971e-08
3.16363e-08
3.24147e-08
1.20494e-08
1.24713e-08
1.29622e-08
1.35159e-08
1.41339e-08
1.48137e-08
1.55377e-08
1.62976e-08
1.7082e-08
1.78781e-08
1.86795e-08
1.94805e-08
2.02776e-08
2.10686e-08
2.18509e-08
2.26217e-08
2.33775e-08
2.41133e-08
2.48211e-08
2.54955e-08
2.61132e-08
2.66954e-08
9.65843e-09
9.99234e-09
1.03837e-08
1.08286e-08
1.13278e-08
1.18793e-08
1.24689e-08
1.30887e-08
1.37289e-08
1.43788e-08
1.50328e-08
1.56856e-08
1.63347e-08
1.69774e-08
1.76121e-08
1.82361e-08
1.88467e-08
1.94393e-08
2.0008e-08
2.05468e-08
2.10447e-08
2.14988e-08
7.73549e-09
7.99947e-09
8.31125e-09
8.66869e-09
9.07257e-09
9.52088e-09
1.00018e-08
1.05083e-08
1.1032e-08
1.15637e-08
1.20983e-08
1.26316e-08
1.31606e-08
1.36838e-08
1.41991e-08
1.47047e-08
1.51981e-08
1.56752e-08
1.61317e-08
1.65623e-08
1.69585e-08
1.7316e-08
6.18949e-09
6.39774e-09
6.64592e-09
6.93345e-09
7.26064e-09
7.62568e-09
8.01895e-09
8.43392e-09
8.86322e-09
9.29918e-09
9.73718e-09
1.01735e-08
1.06058e-08
1.10322e-08
1.14512e-08
1.18612e-08
1.226e-08
1.26444e-08
1.30107e-08
1.33546e-08
1.3669e-08
1.3951e-08
4.94692e-09
5.11085e-09
5.30835e-09
5.53983e-09
5.80534e-09
6.10335e-09
6.4257e-09
6.7665e-09
7.11948e-09
7.47775e-09
7.83745e-09
8.19543e-09
8.54922e-09
8.89751e-09
9.23884e-09
9.57179e-09
9.89446e-09
1.02045e-08
1.04986e-08
1.07729e-08
1.10222e-08
1.1244e-08
3.9487e-09
4.0774e-09
4.23452e-09
4.42112e-09
4.63703e-09
4.881e-09
5.14596e-09
5.42667e-09
5.7176e-09
6.01299e-09
6.30927e-09
6.60354e-09
6.89383e-09
7.17887e-09
7.45754e-09
7.72846e-09
7.98995e-09
8.24012e-09
8.4762e-09
8.69523e-09
8.89281e-09
9.06707e-09
3.14715e-09
3.24803e-09
3.37296e-09
3.52361e-09
3.69971e-09
3.89999e-09
4.11837e-09
4.35026e-09
4.59089e-09
4.83508e-09
5.07974e-09
5.32239e-09
5.56122e-09
5.79518e-09
6.02312e-09
6.24395e-09
6.45632e-09
6.65856e-09
6.84844e-09
7.02328e-09
7.18009e-09
7.31534e-09
2.50405e-09
2.58288e-09
2.68219e-09
2.80412e-09
2.94815e-09
3.113e-09
3.29363e-09
3.48582e-09
3.68537e-09
3.88786e-09
4.09054e-09
4.29124e-09
4.48838e-09
4.68085e-09
4.86782e-09
5.04837e-09
5.22139e-09
5.38527e-09
5.53834e-09
5.67828e-09
5.80308e-09
5.90854e-09
5.99676e-09
1.9885e-09
2.0499e-09
2.12885e-09
2.22779e-09
2.34593e-09
2.48207e-09
2.63197e-09
2.79173e-09
2.95782e-09
3.12624e-09
3.29469e-09
3.46128e-09
3.62445e-09
3.78334e-09
3.93724e-09
4.08537e-09
4.22673e-09
4.36003e-09
4.48378e-09
4.59619e-09
4.69531e-09
4.77933e-09
4.84637e-09
1.57561e-09
1.62326e-09
1.68607e-09
1.76663e-09
1.86381e-09
1.97661e-09
2.10144e-09
2.23464e-09
2.3733e-09
2.51389e-09
2.65439e-09
2.79313e-09
2.92864e-09
3.06023e-09
3.18737e-09
3.3094e-09
3.42534e-09
3.53409e-09
3.63439e-09
3.72481e-09
3.80371e-09
3.8698e-09
3.92133e-09
1.24533e-09
1.28218e-09
1.3322e-09
1.39802e-09
1.47819e-09
1.572e-09
1.67625e-09
1.78762e-09
1.90381e-09
2.02148e-09
2.13909e-09
2.25512e-09
2.36807e-09
2.4774e-09
2.5828e-09
2.68365e-09
2.77894e-09
2.86769e-09
2.94893e-09
3.02152e-09
3.08423e-09
3.13606e-09
3.17571e-09
9.8153e-10
1.00989e-09
1.04978e-09
1.10378e-09
1.17009e-09
1.24838e-09
1.33569e-09
1.42905e-09
1.52672e-09
1.62544e-09
1.7243e-09
1.8218e-09
1.91625e-09
2.00726e-09
2.09475e-09
2.17801e-09
2.25611e-09
2.32824e-09
2.39371e-09
2.45173e-09
2.5013e-09
2.54174e-09
2.57207e-09
7.71149e-10
7.92894e-10
8.2478e-10
8.69231e-10
9.24228e-10
9.89847e-10
1.06306e-09
1.14154e-09
1.22393e-09
1.30681e-09
1.39043e-09
1.47281e-09
1.55169e-09
1.6272e-09
1.69953e-09
1.76793e-09
1.83152e-09
1.88981e-09
1.94237e-09
1.98858e-09
2.02767e-09
2.05911e-09
2.08219e-09
6.03702e-10
6.20326e-10
6.45877e-10
6.82598e-10
7.28301e-10
7.835e-10
8.44858e-10
9.11095e-10
9.80685e-10
1.05026e-09
1.12187e-09
1.19176e-09
1.25694e-09
1.31882e-09
1.37825e-09
1.43426e-09
1.48594e-09
1.53307e-09
1.57542e-09
1.61244e-09
1.64344e-09
1.66802e-09
1.68556e-09
4.70786e-10
4.83484e-10
5.0401e-10
5.34414e-10
5.7246e-10
6.19032e-10
6.70201e-10
7.26451e-10
7.85066e-10
8.43203e-10
9.05457e-10
9.64744e-10
1.01764e-09
1.06785e-09
1.11686e-09
1.16315e-09
1.20563e-09
1.24428e-09
1.27892e-09
1.30898e-09
1.33382e-09
1.35311e-09
1.36624e-09
3.65595e-10
3.75256e-10
3.91818e-10
4.17044e-10
4.48836e-10
4.88183e-10
5.3054e-10
5.78883e-10
6.27352e-10
6.75657e-10
7.30714e-10
7.80357e-10
8.22491e-10
8.63761e-10
9.05275e-10
9.44385e-10
9.79983e-10
1.01229e-09
1.04114e-09
1.0659e-09
1.08597e-09
1.10122e-09
1.11105e-09
1.11629e-09
2.82671e-10
2.89974e-10
3.03419e-10
3.24437e-10
3.511e-10
3.84321e-10
4.1925e-10
4.61514e-10
4.99091e-10
5.40771e-10
5.91975e-10
6.31531e-10
6.63105e-10
6.98194e-10
7.3493e-10
7.68568e-10
7.98576e-10
8.25774e-10
8.49956e-10
8.7044e-10
8.86741e-10
8.98778e-10
9.06307e-10
9.09672e-10
2.18516e-10
2.23984e-10
2.34949e-10
2.524e-10
2.74644e-10
3.02306e-10
3.30934e-10
3.67779e-10
3.9324e-10
4.32346e-10
4.82763e-10
5.12209e-10
5.32853e-10
5.64056e-10
5.98486e-10
6.28097e-10
6.53511e-10
6.76546e-10
6.96966e-10
7.13951e-10
7.27141e-10
7.36635e-10
7.42365e-10
7.44801e-10
1.72692e-10
1.768e-10
1.85671e-10
1.99722e-10
2.17747e-10
2.39501e-10
2.6189e-10
2.91338e-10
3.05227e-10
3.41544e-10
3.88995e-10
4.10809e-10
4.25856e-10
4.5668e-10
4.91263e-10
5.19543e-10
5.43013e-10
5.64244e-10
5.83051e-10
5.98548e-10
6.10474e-10
6.18844e-10
6.23759e-10
6.25679e-10
1.40387e-10
1.43461e-10
1.50402e-10
1.61286e-10
1.75246e-10
1.91116e-10
2.07661e-10
2.27993e-10
2.35021e-10
2.62511e-10
3.03338e-10
3.21671e-10
3.3773e-10
3.6877e-10
4.03141e-10
4.31539e-10
4.55134e-10
4.76345e-10
4.95155e-10
5.10688e-10
5.22612e-10
5.30859e-10
5.35654e-10
5.37278e-10
1.13959e-10
1.16248e-10
1.21571e-10
1.29877e-10
1.40427e-10
1.51616e-10
1.63605e-10
1.76443e-10
1.79875e-10
1.97659e-10
2.30485e-10
2.46859e-10
2.6536e-10
2.94961e-10
3.27304e-10
3.55199e-10
3.78846e-10
3.99927e-10
4.18562e-10
4.33984e-10
4.45755e-10
4.53851e-10
4.5854e-10
4.60264e-10
9.07217e-11
9.24174e-11
9.64498e-11
1.02699e-10
1.10486e-10
1.18158e-10
1.26737e-10
1.34101e-10
1.35607e-10
1.46556e-10
1.72574e-10
1.86643e-10
2.06675e-10
2.34234e-10
2.63653e-10
2.90021e-10
3.12954e-10
3.33286e-10
3.51144e-10
3.65981e-10
3.77311e-10
3.85091e-10
3.895e-10
3.90929e-10
7.10793e-11
7.23327e-11
7.53329e-11
7.9941e-11
8.54819e-11
9.05533e-11
9.64404e-11
9.99236e-11
1.0035e-10
1.06482e-10
1.26826e-10
1.38375e-10
1.58867e-10
1.84257e-10
2.10479e-10
2.34667e-10
2.56324e-10
2.75545e-10
2.92315e-10
3.06235e-10
3.16878e-10
3.24229e-10
3.28542e-10
3.3028e-10
5.4743e-11
5.56624e-11
5.78252e-11
6.11027e-11
6.48218e-11
6.80247e-11
7.17403e-11
7.26812e-11
7.25127e-11
7.53639e-11
9.10139e-11
1.00282e-10
1.20155e-10
1.4322e-10
1.66337e-10
1.88115e-10
2.08182e-10
2.26127e-10
2.41711e-10
2.54563e-10
2.64232e-10
2.70514e-10
2.7347e-10
2.73568e-10
4.15145e-11
4.21716e-11
4.36176e-11
4.5755e-11
4.79785e-11
4.98256e-11
5.17624e-11
5.13234e-11
5.08054e-11
5.15768e-11
6.32541e-11
7.06907e-11
8.90677e-11
1.09739e-10
1.3004e-10
1.49454e-10
1.67787e-10
1.84347e-10
1.98766e-10
2.10816e-10
2.20271e-10
2.2714e-10
2.31716e-10
2.34436e-10
3.10621e-11
3.15153e-11
3.23571e-11
3.34966e-11
3.44809e-11
3.52489e-11
3.57033e-11
3.48038e-11
3.39612e-11
3.37404e-11
4.21921e-11
4.82717e-11
6.45196e-11
8.27978e-11
1.00621e-10
1.17903e-10
1.34589e-10
1.49706e-10
1.62474e-10
1.7242e-10
1.79193e-10
1.82525e-10
1.8241e-10
1.79701e-10
1.75962e-10
2.29288e-11
2.32418e-11
2.36151e-11
2.39449e-11
2.39629e-11
2.3813e-11
2.30908e-11
2.22579e-11
2.08792e-11
2.07953e-11
2.68539e-11
3.18401e-11
4.56687e-11
6.16591e-11
7.7209e-11
9.2479e-11
1.07902e-10
1.22753e-10
1.362e-10
1.47866e-10
1.57727e-10
1.66204e-10
1.7402e-10
1.81136e-10
1.86321e-10
1.67592e-11
1.69422e-11
1.68875e-11
1.65415e-11
1.58638e-11
1.50524e-11
1.37586e-11
1.32531e-11
1.13507e-11
1.2568e-11
1.65535e-11
2.02749e-11
3.16861e-11
4.56782e-11
5.92649e-11
7.23548e-11
8.52893e-11
9.73223e-11
1.07615e-10
1.156e-10
1.20627e-10
1.22224e-10
1.2068e-10
1.18042e-10
1.17074e-10
1.25582e-11
1.25264e-11
1.1885e-11
1.07734e-11
9.48426e-12
8.29674e-12
7.18395e-12
7.2197e-12
5.65322e-12
8.85237e-12
1.05475e-11
1.26738e-11
2.14369e-11
3.33133e-11
4.61821e-11
6.06273e-11
7.70493e-11
9.46821e-11
1.12818e-10
1.3154e-10
1.5179e-10
1.75218e-10
2.02524e-10
2.29874e-10
2.50573e-10
1.03603e-11
1.00675e-11
8.76982e-12
6.84064e-12
4.89675e-12
3.3798e-12
2.61951e-12
3.04839e-12
2.83322e-12
7.14797e-12
7.57457e-12
9.04267e-12
1.51726e-11
2.38418e-11
3.43837e-11
4.85952e-11
6.75363e-11
9.09e-11
1.17944e-10
1.47762e-10
1.78884e-10
2.09578e-10
2.38605e-10
2.64294e-10
2.86589e-10
9.42376e-12
8.97892e-12
7.32243e-12
4.95674e-12
2.63719e-12
9.37639e-13
3.41685e-13
8.88092e-13
1.96658e-12
4.8565e-12
3.49931e-12
8.67722e-12
2.20915e-11
4.38691e-11
7.46566e-11
1.15422e-10
1.67194e-10
2.3031e-10
3.03765e-10
3.85137e-10
4.69333e-10
5.48137e-10
6.10313e-10
6.48507e-10
6.75226e-10
)
;

boundaryField
{
    inlet
    {
        type            calculated;
        value           nonuniform List<scalar> 
25
(
8.62474e-12
8.18575e-12
6.63467e-12
4.42058e-12
2.23227e-12
6.52215e-13
2.08034e-13
1.0346e-12
2.85097e-12
2.57444e-12
1.2274e-11
4.41847e-11
1.29286e-10
2.92702e-10
5.60386e-10
9.59721e-10
1.52023e-09
2.26887e-09
3.22605e-09
4.39995e-09
5.77762e-09
7.30769e-09
8.89816e-09
1.04173e-08
1.1789e-08
)
;
    }
    outlet
    {
        type            calculated;
        value           nonuniform List<scalar> 0();
    }
    walls
    {
        type            calculated;
        value           nonuniform List<scalar> 0();
    }
    frontAndBack
    {
        type            empty;
    }
    procBoundary4to0
    {
        type            processor;
        value           nonuniform List<scalar> 
72
(
0.000187134
0.00013476
9.83562e-05
7.25982e-05
5.41215e-05
4.06991e-05
3.08367e-05
2.35202e-05
1.80459e-05
1.3919e-05
1.07854e-05
8.39193e-06
6.55362e-06
5.13514e-06
4.03578e-06
3.18042e-06
2.51238e-06
1.98912e-06
1.57806e-06
1.25415e-06
9.98285e-07
7.95761e-07
7.95761e-07
6.13291e-07
4.89971e-07
3.91862e-07
3.13689e-07
2.51316e-07
2.01495e-07
1.61655e-07
1.29761e-07
1.04206e-07
8.37139e-08
6.72711e-08
5.4068e-08
4.34602e-08
3.49338e-08
2.80781e-08
2.25637e-08
1.81273e-08
1.45573e-08
1.16845e-08
9.37271e-09
7.51262e-09
6.0162e-09
4.81276e-09
3.84528e-09
3.06787e-09
2.44361e-09
1.94273e-09
1.54123e-09
1.21975e-09
9.62677e-10
7.57438e-10
5.93908e-10
4.63958e-10
3.60965e-10
2.79624e-10
2.16508e-10
1.71221e-10
1.39236e-10
1.13091e-10
9.00867e-11
7.06207e-11
5.43979e-11
4.12212e-11
3.0774e-11
2.26141e-11
1.63805e-11
1.20726e-11
9.76737e-12
8.79566e-12
)
;
    }
    procBoundary4to5
    {
        type            processor;
        value           nonuniform List<scalar> 
95
(
0.00026776
0.000270814
0.000272549
0.00019663
0.00019663
0.000196348
0.0001436
0.0001436
0.000142161
0.000105556
0.000105556
7.9325e-05
7.9325e-05
6.0277e-05
4.69146e-05
4.69146e-05
3.63276e-05
3.63276e-05
2.83217e-05
2.24806e-05
2.24806e-05
1.77475e-05
1.41997e-05
1.41997e-05
1.13268e-05
9.11789e-06
9.11789e-06
7.33401e-06
5.92874e-06
4.79226e-06
4.79226e-06
3.89464e-06
3.1593e-06
2.56128e-06
2.56128e-06
2.09715e-06
1.70432e-06
1.38379e-06
1.38379e-06
1.1388e-06
9.26237e-07
7.52258e-07
7.52258e-07
6.20966e-07
5.04867e-07
4.09593e-07
3.32035e-07
2.69045e-07
2.69045e-07
2.22442e-07
1.80259e-07
1.45745e-07
1.17768e-07
9.51155e-08
9.51155e-08
7.84149e-08
6.33203e-08
5.10389e-08
4.11254e-08
3.31306e-08
3.31306e-08
2.7159e-08
2.18857e-08
1.7617e-08
1.41859e-08
1.14266e-08
9.20917e-09
7.42717e-09
7.42717e-09
6.05695e-09
4.89495e-09
3.95747e-09
3.20254e-09
2.59191e-09
2.09663e-09
1.696e-09
1.37371e-09
1.37371e-09
1.11764e-09
9.10121e-10
7.44992e-10
6.2556e-10
5.36748e-10
4.60005e-10
3.90352e-10
3.30343e-10
2.71862e-10
2.35655e-10
2.35655e-10
1.72333e-10
1.89072e-10
1.18257e-10
2.63169e-10
3.09325e-10
6.7855e-10
)
;
    }
}


// ************************************************************************* //
