/*--------------------------------*- C++ -*----------------------------------*\
| =========                 |                                                 |
| \\      /  F ield         | OpenFOAM: The Open Source CFD Toolbox           |
|  \\    /   O peration     | Version:  2506                                  |
|   \\  /    A nd           | Website:  www.openfoam.com                      |
|    \\/     M anipulation  |                                                 |
\*---------------------------------------------------------------------------*/
FoamFile
{
    version     2.0;
    format      ascii;
    arch        "LSB;label=32;scalar=64";
    class       volScalarField;
    location    "150";
    object      turbulenceProperties:nut;
}
// * * * * * * * * * * * * * * * * * * * * * * * * * * * * * * * * * * * * * //

dimensions      [0 2 -1 0 0 0 0];

internalField   nonuniform List<scalar> 
1340
(
6.09886e-06
6.10021e-06
6.1015e-06
6.09744e-06
6.09889e-06
6.10025e-06
6.10151e-06
6.10286e-06
6.09627e-06
6.09779e-06
6.09913e-06
6.10037e-06
6.10164e-06
6.10283e-06
6.10398e-06
6.09527e-06
6.09681e-06
6.0981e-06
6.09924e-06
6.10039e-06
6.10147e-06
6.10249e-06
6.10353e-06
6.0944e-06
6.09592e-06
6.0971e-06
6.09814e-06
6.09916e-06
6.1001e-06
6.101e-06
6.102e-06
6.10294e-06
6.09362e-06
6.09506e-06
6.09613e-06
6.09705e-06
6.09795e-06
6.09878e-06
6.09962e-06
6.10052e-06
6.10146e-06
6.0929e-06
6.09424e-06
6.09519e-06
6.096e-06
6.0968e-06
6.09756e-06
6.09833e-06
6.09917e-06
6.10006e-06
6.10099e-06
6.09221e-06
6.09345e-06
6.09428e-06
6.09499e-06
6.09573e-06
6.09643e-06
6.09715e-06
6.09792e-06
6.09874e-06
6.09964e-06
6.10053e-06
6.09156e-06
6.09269e-06
6.09341e-06
6.09407e-06
6.09475e-06
6.0954e-06
6.09605e-06
6.09676e-06
6.09751e-06
6.09832e-06
6.0992e-06
6.09094e-06
6.09196e-06
6.0926e-06
6.09321e-06
6.09384e-06
6.09444e-06
6.09503e-06
6.09568e-06
6.09635e-06
6.09708e-06
6.0979e-06
6.09872e-06
6.09035e-06
6.09128e-06
6.09186e-06
6.09243e-06
6.09301e-06
6.09354e-06
6.09408e-06
6.09465e-06
6.09526e-06
6.09593e-06
6.09667e-06
6.09749e-06
6.08978e-06
6.09064e-06
6.09118e-06
6.0917e-06
6.09222e-06
6.0927e-06
6.09318e-06
6.0937e-06
6.09425e-06
6.09487e-06
6.09555e-06
6.09633e-06
6.09711e-06
6.08923e-06
6.09004e-06
6.09053e-06
6.09101e-06
6.09148e-06
6.0919e-06
6.09233e-06
6.09281e-06
6.09333e-06
6.0939e-06
6.09455e-06
6.09526e-06
6.09605e-06
6.08872e-06
6.08948e-06
6.08993e-06
6.09036e-06
6.09078e-06
6.09116e-06
6.09156e-06
6.09201e-06
6.09249e-06
6.09304e-06
6.09364e-06
6.09431e-06
6.09506e-06
6.09581e-06
6.08829e-06
6.089e-06
6.0894e-06
6.08978e-06
6.09016e-06
6.0905e-06
6.09088e-06
6.0913e-06
6.09175e-06
6.09226e-06
6.09283e-06
6.09345e-06
6.09414e-06
6.09487e-06
6.08799e-06
6.08864e-06
6.08898e-06
6.08932e-06
6.08966e-06
6.08997e-06
6.09031e-06
6.0907e-06
6.09112e-06
6.09159e-06
6.09211e-06
6.09268e-06
6.09331e-06
6.094e-06
6.08787e-06
6.08843e-06
6.08872e-06
6.08901e-06
6.0893e-06
6.08957e-06
6.08988e-06
6.09022e-06
6.09059e-06
6.09101e-06
6.09147e-06
6.09199e-06
6.09256e-06
6.09321e-06
6.09386e-06
6.08791e-06
6.0884e-06
6.08862e-06
6.08886e-06
6.0891e-06
6.08932e-06
6.08957e-06
6.08986e-06
6.09017e-06
6.09053e-06
6.09094e-06
6.0914e-06
6.09191e-06
6.09249e-06
6.09311e-06
6.08807e-06
6.08849e-06
6.08865e-06
6.08883e-06
6.08902e-06
6.08918e-06
6.08937e-06
6.0896e-06
6.08985e-06
6.09015e-06
6.0905e-06
6.09091e-06
6.09136e-06
6.09188e-06
6.09245e-06
6.08828e-06
6.08864e-06
6.08875e-06
6.08888e-06
6.08901e-06
6.08912e-06
6.08925e-06
6.08943e-06
6.08963e-06
6.08988e-06
6.09018e-06
6.09053e-06
6.09093e-06
6.09139e-06
6.09191e-06
6.09245e-06
6.08851e-06
6.08883e-06
6.08888e-06
6.08895e-06
6.08904e-06
6.0891e-06
6.0892e-06
6.08934e-06
6.08951e-06
6.08973e-06
6.08999e-06
6.09029e-06
6.09064e-06
6.09104e-06
6.09149e-06
6.09199e-06
6.08878e-06
6.08903e-06
6.08902e-06
6.08905e-06
6.08911e-06
6.08915e-06
6.08924e-06
6.08936e-06
6.08951e-06
6.0897e-06
6.08992e-06
6.09018e-06
6.09048e-06
6.09083e-06
6.09122e-06
6.09167e-06
6.08891e-06
6.08907e-06
6.08924e-06
6.08919e-06
6.08919e-06
6.08923e-06
6.08928e-06
6.08937e-06
6.08949e-06
6.08962e-06
6.08979e-06
6.08998e-06
6.0902e-06
6.09045e-06
6.09075e-06
6.09108e-06
6.09146e-06
6.09187e-06
6.08927e-06
6.08938e-06
6.08948e-06
6.08938e-06
6.08938e-06
6.08945e-06
6.08951e-06
6.08961e-06
6.08972e-06
6.08984e-06
6.08998e-06
6.09014e-06
6.09032e-06
6.09053e-06
6.09077e-06
6.09105e-06
6.09137e-06
6.09173e-06
6.08966e-06
6.08971e-06
6.08974e-06
6.08964e-06
6.08968e-06
6.08977e-06
6.08985e-06
6.08994e-06
6.09004e-06
6.09014e-06
6.09025e-06
6.09037e-06
6.09051e-06
6.09068e-06
6.09088e-06
6.0911e-06
6.09136e-06
6.09167e-06
6.09006e-06
6.09004e-06
6.09002e-06
6.08999e-06
6.09007e-06
6.09019e-06
6.09026e-06
6.09034e-06
6.09042e-06
6.09049e-06
6.09057e-06
6.09066e-06
6.09077e-06
6.0909e-06
6.09105e-06
6.09123e-06
6.09144e-06
6.09169e-06
6.09196e-06
6.09045e-06
6.09037e-06
6.09034e-06
6.09043e-06
6.09054e-06
6.09065e-06
6.09072e-06
6.09079e-06
6.09085e-06
6.0909e-06
6.09096e-06
6.09102e-06
6.0911e-06
6.09119e-06
6.0913e-06
6.09143e-06
6.09159e-06
6.09178e-06
6.09202e-06
6.0908e-06
6.09071e-06
6.09072e-06
6.0909e-06
6.09102e-06
6.09113e-06
6.09122e-06
6.09129e-06
6.09134e-06
6.09137e-06
6.09141e-06
6.09145e-06
6.09149e-06
6.09155e-06
6.09162e-06
6.09171e-06
6.09182e-06
6.09196e-06
6.09214e-06
6.09111e-06
6.09107e-06
6.09112e-06
6.09134e-06
6.09149e-06
6.09162e-06
6.09176e-06
6.09184e-06
6.09188e-06
6.09191e-06
6.09192e-06
6.09193e-06
6.09195e-06
6.09197e-06
6.092e-06
6.09205e-06
6.09212e-06
6.09221e-06
6.09234e-06
6.09139e-06
6.09139e-06
6.09149e-06
6.09173e-06
6.09191e-06
6.09208e-06
6.09225e-06
6.09237e-06
6.09245e-06
6.09248e-06
6.09248e-06
6.09247e-06
6.09246e-06
6.09245e-06
6.09245e-06
6.09246e-06
6.09248e-06
6.09252e-06
6.09261e-06
6.09164e-06
6.09168e-06
6.09182e-06
6.09209e-06
6.09231e-06
6.09251e-06
6.09271e-06
6.09286e-06
6.09297e-06
6.09305e-06
6.09307e-06
6.09305e-06
6.09302e-06
6.09298e-06
6.09294e-06
6.09292e-06
6.0929e-06
6.0929e-06
6.09292e-06
6.09296e-06
6.09186e-06
6.09194e-06
6.09212e-06
6.09243e-06
6.09267e-06
6.0929e-06
6.09313e-06
6.09331e-06
6.09346e-06
6.09356e-06
6.09363e-06
6.09365e-06
6.09362e-06
6.09356e-06
6.0935e-06
6.09343e-06
6.09338e-06
6.09334e-06
6.0933e-06
6.09331e-06
6.09205e-06
6.09217e-06
6.09238e-06
6.09272e-06
6.093e-06
6.09326e-06
6.09352e-06
6.09373e-06
6.09391e-06
6.09404e-06
6.09413e-06
6.09419e-06
6.09421e-06
6.09417e-06
6.0941e-06
6.09401e-06
6.09392e-06
6.09384e-06
6.09376e-06
6.09372e-06
6.09221e-06
6.09236e-06
6.09262e-06
6.09299e-06
6.09329e-06
6.09359e-06
6.09387e-06
6.09412e-06
6.09432e-06
6.09449e-06
6.09461e-06
6.09469e-06
6.09473e-06
6.09474e-06
6.09472e-06
6.09464e-06
6.09453e-06
6.09442e-06
6.09429e-06
6.09421e-06
6.09233e-06
6.09252e-06
6.09281e-06
6.09321e-06
6.09355e-06
6.09388e-06
6.09419e-06
6.09446e-06
6.0947e-06
6.09489e-06
6.09504e-06
6.09515e-06
6.09522e-06
6.09526e-06
6.09526e-06
6.09523e-06
6.09517e-06
6.09506e-06
6.09492e-06
6.09478e-06
6.09242e-06
6.09265e-06
6.09298e-06
6.09341e-06
6.09377e-06
6.09413e-06
6.09448e-06
6.09478e-06
6.09504e-06
6.09525e-06
6.09543e-06
6.09556e-06
6.09566e-06
6.09572e-06
6.09576e-06
6.09576e-06
6.09573e-06
6.09567e-06
6.09558e-06
6.09544e-06
6.09528e-06
6.09249e-06
6.09275e-06
6.09311e-06
6.09357e-06
6.09397e-06
6.09435e-06
6.09473e-06
6.09505e-06
6.09533e-06
6.09557e-06
6.09577e-06
6.09593e-06
6.09605e-06
6.09614e-06
6.0962e-06
6.09623e-06
6.09623e-06
6.0962e-06
6.09615e-06
6.09606e-06
6.09596e-06
6.09253e-06
6.09283e-06
6.09322e-06
6.09371e-06
6.09413e-06
6.09454e-06
6.09494e-06
6.09528e-06
6.09559e-06
6.09585e-06
6.09606e-06
6.09624e-06
6.09639e-06
6.0965e-06
6.09658e-06
6.09664e-06
6.09667e-06
6.09668e-06
6.09666e-06
6.09661e-06
6.09655e-06
6.09254e-06
6.09287e-06
6.0933e-06
6.09381e-06
6.09426e-06
6.0947e-06
6.09511e-06
6.09548e-06
6.0958e-06
6.09607e-06
6.0963e-06
6.0965e-06
6.09666e-06
6.0968e-06
6.0969e-06
6.09699e-06
6.09705e-06
6.09708e-06
6.0971e-06
6.09708e-06
6.09706e-06
6.09253e-06
6.09289e-06
6.09335e-06
6.09389e-06
6.09436e-06
6.09482e-06
6.09525e-06
6.09562e-06
6.09596e-06
6.09625e-06
6.09649e-06
6.0967e-06
6.09688e-06
6.09703e-06
6.09716e-06
6.09726e-06
6.09735e-06
6.09742e-06
6.09746e-06
6.09748e-06
6.09749e-06
6.09247e-06
6.09287e-06
6.09335e-06
6.09392e-06
6.09441e-06
6.09489e-06
6.09534e-06
6.09572e-06
6.09606e-06
6.09636e-06
6.09661e-06
6.09684e-06
6.09703e-06
6.09719e-06
6.09734e-06
6.09747e-06
6.09758e-06
6.09767e-06
6.09774e-06
6.0978e-06
6.09784e-06
6.09787e-06
6.09238e-06
6.0928e-06
6.09332e-06
6.09391e-06
6.09442e-06
6.09492e-06
6.09537e-06
6.09576e-06
6.09611e-06
6.09641e-06
6.09667e-06
6.0969e-06
6.0971e-06
6.09728e-06
6.09744e-06
6.09759e-06
6.09772e-06
6.09784e-06
6.09794e-06
6.09803e-06
6.0981e-06
6.09816e-06
6.09225e-06
6.0927e-06
6.09325e-06
6.09386e-06
6.09439e-06
6.09489e-06
6.09535e-06
6.09574e-06
6.09609e-06
6.09639e-06
6.09665e-06
6.09689e-06
6.0971e-06
6.09728e-06
6.09746e-06
6.09762e-06
6.09777e-06
6.09791e-06
6.09804e-06
6.09817e-06
6.09827e-06
6.09837e-06
6.09209e-06
6.09257e-06
6.09314e-06
6.09377e-06
6.09431e-06
6.09482e-06
6.09527e-06
6.09566e-06
6.096e-06
6.0963e-06
6.09656e-06
6.09679e-06
6.097e-06
6.0972e-06
6.09738e-06
6.09756e-06
6.09772e-06
6.09789e-06
6.09804e-06
6.0982e-06
6.09833e-06
6.09847e-06
6.09189e-06
6.0924e-06
6.09299e-06
6.09364e-06
6.09418e-06
6.09469e-06
6.09513e-06
6.09551e-06
6.09584e-06
6.09613e-06
6.09638e-06
6.09661e-06
6.09682e-06
6.09702e-06
6.0972e-06
6.09739e-06
6.09757e-06
6.09776e-06
6.09794e-06
6.09811e-06
6.09828e-06
6.09845e-06
6.09166e-06
6.09219e-06
6.0928e-06
6.09346e-06
6.094e-06
6.09449e-06
6.09493e-06
6.09529e-06
6.0956e-06
6.09587e-06
6.09611e-06
6.09633e-06
6.09653e-06
6.09673e-06
6.09692e-06
6.09712e-06
6.09731e-06
6.09751e-06
6.09771e-06
6.09791e-06
6.09812e-06
6.09832e-06
6.09138e-06
6.09193e-06
6.09256e-06
6.09322e-06
6.09376e-06
6.09424e-06
6.09465e-06
6.09499e-06
6.09528e-06
6.09553e-06
6.09575e-06
6.09595e-06
6.09615e-06
6.09634e-06
6.09653e-06
6.09673e-06
6.09693e-06
6.09714e-06
6.09736e-06
6.09759e-06
6.09782e-06
6.09806e-06
6.09104e-06
6.09162e-06
6.09227e-06
6.09292e-06
6.09345e-06
6.0939e-06
6.09429e-06
6.0946e-06
6.09486e-06
6.09508e-06
6.09528e-06
6.09547e-06
6.09565e-06
6.09583e-06
6.09602e-06
6.09622e-06
6.09643e-06
6.09665e-06
6.09689e-06
6.09714e-06
6.0974e-06
6.09766e-06
6.09792e-06
6.09067e-06
6.09126e-06
6.09192e-06
6.09257e-06
6.09307e-06
6.0935e-06
6.09385e-06
6.09412e-06
6.09434e-06
6.09454e-06
6.09471e-06
6.09487e-06
6.09504e-06
6.09521e-06
6.09539e-06
6.09559e-06
6.0958e-06
6.09604e-06
6.0963e-06
6.09657e-06
6.09685e-06
6.09714e-06
6.09743e-06
6.09025e-06
6.09086e-06
6.09152e-06
6.09215e-06
6.09262e-06
6.09301e-06
6.09332e-06
6.09355e-06
6.09373e-06
6.09389e-06
6.09403e-06
6.09416e-06
6.0943e-06
6.09446e-06
6.09463e-06
6.09483e-06
6.09505e-06
6.09529e-06
6.09556e-06
6.09585e-06
6.09615e-06
6.09647e-06
6.09679e-06
6.0898e-06
6.09042e-06
6.09108e-06
6.09168e-06
6.09212e-06
6.09246e-06
6.09271e-06
6.09289e-06
6.09302e-06
6.09313e-06
6.09323e-06
6.09334e-06
6.09345e-06
6.09359e-06
6.09375e-06
6.09394e-06
6.09415e-06
6.09438e-06
6.09464e-06
6.09493e-06
6.09525e-06
6.09558e-06
6.09593e-06
6.08932e-06
6.08995e-06
6.09059e-06
6.09116e-06
6.09155e-06
6.09184e-06
6.09203e-06
6.09214e-06
6.09222e-06
6.09228e-06
6.09233e-06
6.09239e-06
6.09248e-06
6.09259e-06
6.09272e-06
6.09287e-06
6.09305e-06
6.09325e-06
6.09348e-06
6.09375e-06
6.09406e-06
6.09439e-06
6.09475e-06
6.08879e-06
6.08942e-06
6.09004e-06
6.09057e-06
6.09091e-06
6.09113e-06
6.09125e-06
6.09131e-06
6.09132e-06
6.09132e-06
6.09132e-06
6.09134e-06
6.09138e-06
6.09144e-06
6.0915e-06
6.09159e-06
6.0917e-06
6.09184e-06
6.09202e-06
6.09226e-06
6.09254e-06
6.09286e-06
6.09322e-06
6.0882e-06
6.08883e-06
6.08943e-06
6.08991e-06
6.09019e-06
6.09035e-06
6.09039e-06
6.09038e-06
6.09032e-06
6.09025e-06
6.0902e-06
6.09016e-06
6.09012e-06
6.09009e-06
6.09006e-06
6.09005e-06
6.09008e-06
6.09015e-06
6.09029e-06
6.09048e-06
6.09074e-06
6.09104e-06
6.09139e-06
6.08754e-06
6.08816e-06
6.08873e-06
6.08916e-06
6.08939e-06
6.08946e-06
6.08944e-06
6.08935e-06
6.08921e-06
6.08907e-06
6.08895e-06
6.08882e-06
6.08867e-06
6.08851e-06
6.08838e-06
6.08829e-06
6.08825e-06
6.08828e-06
6.08838e-06
6.08855e-06
6.08879e-06
6.08908e-06
6.08942e-06
6.08682e-06
6.08743e-06
6.08797e-06
6.08833e-06
6.08849e-06
6.08848e-06
6.08838e-06
6.08822e-06
6.08799e-06
6.08778e-06
6.08756e-06
6.08729e-06
6.08701e-06
6.08675e-06
6.08654e-06
6.0864e-06
6.08633e-06
6.08634e-06
6.08642e-06
6.08657e-06
6.08679e-06
6.08707e-06
6.0874e-06
6.08776e-06
6.08604e-06
6.08663e-06
6.08712e-06
6.08742e-06
6.08751e-06
6.08741e-06
6.08724e-06
6.08697e-06
6.08665e-06
6.08637e-06
6.086e-06
6.08559e-06
6.0852e-06
6.08488e-06
6.08463e-06
6.08446e-06
6.08436e-06
6.08433e-06
6.08439e-06
6.08451e-06
6.08472e-06
6.08498e-06
6.0853e-06
6.08566e-06
6.0852e-06
6.08576e-06
6.08619e-06
6.08642e-06
6.08643e-06
6.08624e-06
6.08601e-06
6.08561e-06
6.08524e-06
6.08483e-06
6.08431e-06
6.08378e-06
6.08333e-06
6.08296e-06
6.08266e-06
6.08243e-06
6.08227e-06
6.08219e-06
6.08219e-06
6.08227e-06
6.08244e-06
6.08269e-06
6.083e-06
6.08335e-06
6.08443e-06
6.08496e-06
6.08533e-06
6.08548e-06
6.0854e-06
6.0851e-06
6.08475e-06
6.08417e-06
6.08371e-06
6.08298e-06
6.08234e-06
6.0818e-06
6.08135e-06
6.08097e-06
6.08064e-06
6.08038e-06
6.08018e-06
6.08006e-06
6.08002e-06
6.08007e-06
6.0802e-06
6.08042e-06
6.0807e-06
6.08104e-06
6.08376e-06
6.08427e-06
6.08457e-06
6.08462e-06
6.08443e-06
6.08399e-06
6.08348e-06
6.08267e-06
6.08204e-06
6.08079e-06
6.08005e-06
6.07954e-06
6.07914e-06
6.0788e-06
6.07851e-06
6.07828e-06
6.0781e-06
6.078e-06
6.07796e-06
6.07801e-06
6.07813e-06
6.07833e-06
6.0786e-06
6.07891e-06
6.08302e-06
6.08349e-06
6.08372e-06
6.08367e-06
6.08336e-06
6.08279e-06
6.08209e-06
6.08105e-06
6.0802e-06
6.07842e-06
6.07758e-06
6.07711e-06
6.07677e-06
6.0765e-06
6.07626e-06
6.07608e-06
6.07594e-06
6.07586e-06
6.07585e-06
6.0759e-06
6.07603e-06
6.07622e-06
6.07647e-06
6.07677e-06
6.08219e-06
6.08261e-06
6.08276e-06
6.08261e-06
6.08218e-06
6.08146e-06
6.08058e-06
6.07932e-06
6.07821e-06
6.07597e-06
6.07507e-06
6.07468e-06
6.07442e-06
6.07421e-06
6.07404e-06
6.07389e-06
6.07378e-06
6.07372e-06
6.07371e-06
6.07376e-06
6.07387e-06
6.07404e-06
6.07427e-06
6.07454e-06
6.08126e-06
6.08163e-06
6.08169e-06
6.08144e-06
6.08089e-06
6.08003e-06
6.07895e-06
6.0775e-06
6.07607e-06
6.07361e-06
6.07275e-06
6.07243e-06
6.07224e-06
6.0721e-06
6.07197e-06
6.07186e-06
6.07178e-06
6.07173e-06
6.07172e-06
6.07175e-06
6.07183e-06
6.07196e-06
6.07213e-06
6.07234e-06
6.08023e-06
6.08053e-06
6.08052e-06
6.08016e-06
6.07949e-06
6.0785e-06
6.07725e-06
6.07562e-06
6.07386e-06
6.07162e-06
6.07089e-06
6.07066e-06
6.07055e-06
6.07049e-06
6.07044e-06
6.0704e-06
6.07038e-06
6.07038e-06
6.07038e-06
6.07038e-06
6.0704e-06
6.07043e-06
6.0705e-06
6.07059e-06
6.07907e-06
6.07931e-06
6.07921e-06
6.07876e-06
6.07799e-06
6.07689e-06
6.07548e-06
6.07372e-06
6.07174e-06
6.07032e-06
6.06988e-06
6.06987e-06
6.06997e-06
6.07011e-06
6.07027e-06
6.07044e-06
6.07061e-06
6.07076e-06
6.07089e-06
6.07098e-06
6.07104e-06
6.07106e-06
6.07104e-06
6.07099e-06
6.07778e-06
6.07796e-06
6.07778e-06
6.07725e-06
6.07641e-06
6.07523e-06
6.07371e-06
6.07188e-06
6.06994e-06
6.06985e-06
6.07007e-06
6.07045e-06
6.07088e-06
6.07128e-06
6.07166e-06
6.07201e-06
6.07233e-06
6.07261e-06
6.07284e-06
6.07302e-06
6.07315e-06
6.07321e-06
6.07322e-06
6.07318e-06
6.07311e-06
6.07634e-06
6.07645e-06
6.07621e-06
6.07563e-06
6.07475e-06
6.07355e-06
6.07199e-06
6.07022e-06
6.06874e-06
6.06994e-06
6.07074e-06
6.07145e-06
6.07215e-06
6.07277e-06
6.07332e-06
6.07382e-06
6.07426e-06
6.07466e-06
6.07499e-06
6.07528e-06
6.0755e-06
6.07567e-06
6.07577e-06
6.0758e-06
6.07579e-06
6.07474e-06
6.07479e-06
6.07451e-06
6.07392e-06
6.07306e-06
6.07191e-06
6.0704e-06
6.06892e-06
6.06834e-06
6.07031e-06
6.07152e-06
6.07251e-06
6.07347e-06
6.0743e-06
6.07504e-06
6.07569e-06
6.07627e-06
6.07678e-06
6.07722e-06
6.07759e-06
6.07791e-06
6.07816e-06
6.07835e-06
6.07849e-06
6.07858e-06
6.07296e-06
6.07296e-06
6.07269e-06
6.07215e-06
6.07138e-06
6.07039e-06
6.06908e-06
6.06817e-06
6.06864e-06
6.07042e-06
6.07174e-06
6.07298e-06
6.07425e-06
6.07536e-06
6.07634e-06
6.07722e-06
6.07802e-06
6.07876e-06
6.07942e-06
6.08002e-06
6.08055e-06
6.08099e-06
6.08134e-06
6.08159e-06
6.08175e-06
6.07098e-06
6.07096e-06
6.07074e-06
6.07033e-06
6.06978e-06
6.06906e-06
6.06813e-06
6.068e-06
6.06876e-06
6.06975e-06
6.07098e-06
6.07242e-06
6.07393e-06
6.07521e-06
6.0763e-06
6.07724e-06
6.07806e-06
6.0788e-06
6.07949e-06
6.08015e-06
6.08081e-06
6.08147e-06
6.08214e-06
6.08279e-06
6.08343e-06
6.06878e-06
6.06876e-06
6.06867e-06
6.06851e-06
6.06828e-06
6.06801e-06
6.06767e-06
6.06785e-06
6.06823e-06
6.06838e-06
6.06967e-06
6.0717e-06
6.07418e-06
6.07661e-06
6.07896e-06
6.08118e-06
6.08329e-06
6.08525e-06
6.08707e-06
6.08873e-06
6.09022e-06
6.09153e-06
6.09264e-06
6.09351e-06
6.0942e-06
)
;

boundaryField
{
    inlet
    {
        type            freestream;
        freestreamValue uniform 1e-05;
        value           nonuniform List<scalar> 
25
(
1e-05
1e-05
1e-05
1e-05
1e-05
1e-05
1e-05
1e-05
1e-05
1e-05
6.06967e-06
6.0717e-06
6.07418e-06
6.07661e-06
6.07896e-06
6.08118e-06
6.08329e-06
6.08525e-06
6.08707e-06
6.08873e-06
6.09022e-06
6.09153e-06
6.09264e-06
6.09351e-06
6.0942e-06
)
;
    }
    outlet
    {
        type            freestream;
        freestreamValue nonuniform List<scalar> 0();
        value           nonuniform List<scalar> 0();
    }
    walls
    {
        type            nutUSpaldingWallFunction;
        value           nonuniform List<scalar> 0();
    }
    frontAndBack
    {
        type            empty;
    }
    procBoundary4to0
    {
        type            processor;
        value           nonuniform List<scalar> 
72
(
6.09792e-06
6.09639e-06
6.09509e-06
6.094e-06
6.09308e-06
6.09227e-06
6.09156e-06
6.09093e-06
6.09036e-06
6.08982e-06
6.08931e-06
6.08881e-06
6.08833e-06
6.08789e-06
6.08757e-06
6.08742e-06
6.08744e-06
6.0876e-06
6.08783e-06
6.08807e-06
6.08832e-06
6.0886e-06
6.0886e-06
6.08905e-06
6.08945e-06
6.08984e-06
6.09022e-06
6.09055e-06
6.09086e-06
6.09114e-06
6.09139e-06
6.0916e-06
6.09178e-06
6.09193e-06
6.09204e-06
6.09213e-06
6.09219e-06
6.09222e-06
6.09223e-06
6.09222e-06
6.09216e-06
6.09207e-06
6.09194e-06
6.09178e-06
6.09159e-06
6.09137e-06
6.09111e-06
6.0908e-06
6.09044e-06
6.09005e-06
6.08962e-06
6.08917e-06
6.08868e-06
6.08813e-06
6.08752e-06
6.08686e-06
6.08614e-06
6.08537e-06
6.08454e-06
6.08379e-06
6.08314e-06
6.08242e-06
6.08161e-06
6.08071e-06
6.07972e-06
6.0786e-06
6.07737e-06
6.07599e-06
6.07445e-06
6.07275e-06
6.07085e-06
6.06874e-06
)
;
    }
    procBoundary4to5
    {
        type            processor;
        value           nonuniform List<scalar> 
95
(
6.10039e-06
6.10166e-06
6.10287e-06
6.10295e-06
6.10295e-06
6.10433e-06
6.1044e-06
6.1044e-06
6.10564e-06
6.10535e-06
6.10535e-06
6.10479e-06
6.10479e-06
6.10432e-06
6.1026e-06
6.1026e-06
6.10216e-06
6.10216e-06
6.10183e-06
6.10023e-06
6.10023e-06
6.09991e-06
6.09845e-06
6.09845e-06
6.09824e-06
6.09698e-06
6.09698e-06
6.09688e-06
6.09582e-06
6.09481e-06
6.09481e-06
6.09479e-06
6.0939e-06
6.09312e-06
6.09312e-06
6.09318e-06
6.09259e-06
6.09214e-06
6.09214e-06
6.09239e-06
6.09212e-06
6.09197e-06
6.09197e-06
6.09228e-06
6.09223e-06
6.09228e-06
6.09242e-06
6.09262e-06
6.09262e-06
6.09298e-06
6.09324e-06
6.09359e-06
6.09401e-06
6.09454e-06
6.09454e-06
6.09502e-06
6.09573e-06
6.09637e-06
6.09692e-06
6.09741e-06
6.09741e-06
6.09779e-06
6.09815e-06
6.0984e-06
6.09854e-06
6.09857e-06
6.09847e-06
6.09825e-06
6.09825e-06
6.09812e-06
6.09768e-06
6.09708e-06
6.09625e-06
6.0951e-06
6.09358e-06
6.09175e-06
6.08977e-06
6.08977e-06
6.08811e-06
6.08602e-06
6.08372e-06
6.08141e-06
6.07925e-06
6.07709e-06
6.07483e-06
6.07258e-06
6.0707e-06
6.07093e-06
6.07093e-06
6.073e-06
6.07573e-06
6.07863e-06
6.08181e-06
6.08408e-06
6.09467e-06
)
;
    }
}


// ************************************************************************* //
