/*--------------------------------*- C++ -*----------------------------------*\
| =========                 |                                                 |
| \\      /  F ield         | OpenFOAM: The Open Source CFD Toolbox           |
|  \\    /   O peration     | Version:  2506                                  |
|   \\  /    A nd           | Website:  www.openfoam.com                      |
|    \\/     M anipulation  |                                                 |
\*---------------------------------------------------------------------------*/
FoamFile
{
    version     2.0;
    format      ascii;
    arch        "LSB;label=32;scalar=64";
    class       volSymmTensorField;
    location    "150";
    object      turbulenceProperties:R;
}
// * * * * * * * * * * * * * * * * * * * * * * * * * * * * * * * * * * * * * //

dimensions      [0 2 -2 0 0 0 0];

internalField   nonuniform List<symmTensor> 
1340
(
(0.000360867 -3.29864e-05 1.36505e-21 0.000306314 1.57374e-22 0.000333617)
(0.000357498 -3.74736e-05 2.05852e-20 0.00031478 1.60663e-20 0.000336126)
(0.000352557 -4.08744e-05 -8.62464e-21 0.000323496 -6.04552e-21 0.000338028)
(0.000306298 -2.82303e-05 5.96767e-21 0.000260475 4.29943e-21 0.000283411)
(0.000303892 -3.20043e-05 -4.58984e-21 0.000268011 -3.26675e-21 0.000285949)
(0.000300248 -3.48889e-05 -1.33626e-20 0.000275836 -8.99764e-21 0.000288052)
(0.000295498 -3.66475e-05 8.79945e-20 0.000283376 6.24834e-20 0.00028945)
(0.000289476 -3.72191e-05 -2.03565e-20 0.000290552 -1.50441e-20 0.00029002)
(0.000261691 -2.43327e-05 2.48533e-21 0.000222991 1.9248e-21 0.000242356)
(0.000259987 -2.75277e-05 -1.00962e-20 0.000229718 -6.17242e-21 0.000244849)
(0.00025728 -2.99834e-05 -4.42311e-20 0.000236737 -2.86772e-20 0.000247014)
(0.000253752 -3.15063e-05 -4.4473e-21 0.000243611 -4.2036e-21 0.000248686)
(0.000249244 -3.20494e-05 -6.24895e-21 0.000250286 -2.41963e-21 0.000249763)
(0.000244037 -3.15176e-05 5.73871e-20 0.000256307 3.57922e-20 0.000250176)
(0.000238254 -2.99306e-05 8.81174e-21 0.000261207 8.84618e-21 0.000249739)
(0.000224791 -2.10959e-05 -5.61139e-21 0.000191963 -2.7844e-21 0.000208388)
(0.000223574 -2.38132e-05 -3.354e-20 0.00019796 -2.06126e-20 0.000210765)
(0.000221548 -2.59082e-05 1.35205e-20 0.000204244 8.77165e-21 0.000212901)
(0.00021889 -2.72204e-05 9.90033e-21 0.000210456 5.88382e-21 0.000214677)
(0.00021547 -2.77153e-05 4.06157e-20 0.000216579 2.45698e-20 0.000216024)
(0.000211535 -2.73146e-05 -5.87469e-20 0.000222241 -3.87028e-20 0.000216892)
(0.000207149 -2.60281e-05 7.50594e-20 0.000227036 3.76163e-20 0.0002171)
(0.000202388 -2.38957e-05 -1.94054e-19 0.000230809 -1.0613e-19 0.000216605)
(0.000194024 -1.83821e-05 9.64537e-21 0.000166066 5.52822e-21 0.000180053)
(0.000193155 -2.07034e-05 8.79413e-21 0.000171417 5.26677e-21 0.000182284)
(0.000191625 -2.24947e-05 2.77846e-21 0.000177036 2.25636e-21 0.000184335)
(0.000189613 -2.36242e-05 -4.82851e-21 0.000182639 -3.06352e-21 0.000186127)
(0.000187017 -2.40667e-05 3.62333e-20 0.000188237 1.89731e-20 0.000187625)
(0.000184018 -2.37536e-05 -3.06695e-20 0.000193487 -1.70029e-20 0.000188755)
(0.000180692 -2.26958e-05 -9.77298e-20 0.000198079 -5.53108e-20 0.00018939)
(0.000177062 -2.09204e-05 1.04288e-19 0.000201842 6.98362e-20 0.000189452)
(0.000173287 -1.85207e-05 3.48219e-20 0.000204597 2.14455e-20 0.00018895)
(0.000168165 -1.60874e-05 -1.71317e-21 0.000144278 -4.01895e-22 0.000156228)
(0.000167547 -1.80772e-05 -4.60148e-21 0.000149053 -2.19832e-21 0.000158298)
(0.000166379 -1.96114e-05 -1.88633e-20 0.000154073 -9.85444e-21 0.00016023)
(0.000164846 -2.05824e-05 8.99496e-21 0.000159119 3.84061e-21 0.000161983)
(0.000162865 -2.09707e-05 -2.85493e-20 0.000164209 -1.649e-20 0.000163535)
(0.000160569 -2.07173e-05 6.60262e-20 0.000169038 3.68568e-20 0.000164807)
(0.000158035 -1.98336e-05 -3.27631e-21 0.000173355 6.22057e-21 0.000165699)
(0.000155281 -1.83413e-05 3.58117e-20 0.000177024 7.37566e-21 0.000166153)
(0.000152412 -1.63164e-05 2.82484e-20 0.000179862 7.26904e-21 0.000166142)
(0.000146291 -1.41325e-05 -2.00656e-20 0.000125822 -1.07399e-20 0.00013606)
(0.000145852 -1.58427e-05 3.07382e-20 0.000130085 1.57489e-20 0.000137967)
(0.000144951 -1.71596e-05 -2.28358e-20 0.00013457 -1.11951e-20 0.000139764)
(0.000143783 -1.79939e-05 1.29558e-20 0.000139114 4.79414e-21 0.000141448)
(0.000142265 -1.83298e-05 -7.58042e-20 0.000143725 -3.67272e-20 0.000142994)
(0.000140507 -1.81181e-05 4.10948e-20 0.000148148 1.83831e-20 0.000144329)
(0.000138574 -1.73693e-05 1.03109e-19 0.000152165 4.75887e-20 0.000145371)
(0.000136488 -1.6103e-05 -1.45987e-19 0.000155674 -7.35164e-20 0.000146081)
(0.00013431 -1.43772e-05 -7.19626e-20 0.000158494 -3.14222e-20 0.000146404)
(0.000132086 -1.22526e-05 6.02184e-20 0.000160542 2.4309e-20 0.000146318)
(0.000127675 -1.24561e-05 1.0263e-20 0.000110093 4.75807e-21 0.000118886)
(0.00012736 -1.39293e-05 5.21508e-21 0.000113895 2.95026e-21 0.000120627)
(0.000126666 -1.50623e-05 1.52744e-20 0.000117914 7.45001e-21 0.000122293)
(0.000125774 -1.57781e-05 -4.38711e-20 0.000121998 -2.11561e-20 0.000123885)
(0.000124605 -1.6065e-05 8.27865e-20 0.000126168 4.0411e-20 0.000125385)
(0.000123257 -1.58821e-05 -1.55333e-19 0.000130202 -7.28389e-20 0.00012673)
(0.000121788 -1.52403e-05 -6.49689e-20 0.000133914 -3.00793e-20 0.000127853)
(0.0001202 -1.41536e-05 8.28457e-20 0.000137211 4.70839e-20 0.000128705)
(0.000118566 -1.26736e-05 4.25756e-20 0.000139963 2.06559e-20 0.000129266)
(0.000116882 -1.08486e-05 -3.94011e-20 0.000142043 -2.35146e-20 0.000129463)
(0.000115188 -8.72584e-06 -1.10691e-20 0.000143414 -4.40572e-21 0.000129305)
(0.000111747 -1.1009e-05 -1.07648e-20 9.6611e-05 -4.5537e-21 0.000104181)
(0.000111521 -1.22818e-05 -8.14452e-21 0.000100008 -4.20662e-21 0.000105764)
(0.000110988 -1.32578e-05 2.63752e-20 0.00010361 1.20987e-20 0.000107302)
(0.0001103 -1.38712e-05 6.468e-21 0.000107279 3.22552e-21 0.000108789)
(0.000109404 -1.41144e-05 3.75259e-20 0.00011105 1.69362e-20 0.000110226)
(0.000108368 -1.39514e-05 2.20757e-19 0.000114715 1.04825e-19 0.000111543)
(0.000107249 -1.33938e-05 3.82147e-20 0.000118123 1.72307e-20 0.000112687)
(0.000106051 -1.24544e-05 3.68007e-20 0.000121198 1.0906e-20 0.000113624)
(0.000104829 -1.11771e-05 -2.99546e-20 0.000123824 -1.372e-20 0.000114327)
(0.000103581 -9.59964e-06 -2.6184e-20 0.000125903 -9.42962e-21 0.000114743)
(0.000102331 -7.76599e-06 -2.26751e-20 0.000127382 -8.78627e-21 0.000114858)
(9.80522e-05 -9.75403e-06 8.79198e-21 8.4999e-05 3.37785e-21 9.15269e-05)
(9.78952e-05 -1.08565e-05 2.83056e-20 8.80417e-05 1.23309e-20 9.29676e-05)
(9.74813e-05 -1.16977e-05 2.9576e-20 9.1268e-05 1.30684e-20 9.43775e-05)
(9.6957e-05 -1.22237e-05 -4.41121e-20 9.45712e-05 -2.00409e-20 9.57628e-05)
(9.62657e-05 -1.24269e-05 -7.38248e-20 9.79718e-05 -3.40218e-20 9.71178e-05)
(9.54738e-05 -1.22786e-05 -4.92359e-20 0.000101299 -2.69813e-20 9.83873e-05)
(9.46225e-05 -1.1789e-05 -5.07035e-20 0.000104414 -2.11767e-20 9.95193e-05)
(9.37218e-05 -1.09701e-05 -2.95145e-20 0.00010726 -1.53016e-20 0.000100491)
(9.28146e-05 -9.85959e-06 4.84317e-20 0.000109735 2.21535e-20 0.000101276)
(9.19058e-05 -8.49104e-06 -2.18116e-21 0.000111763 -1.07978e-21 0.000101835)
(9.09861e-05 -6.89604e-06 9.31328e-21 0.000113268 4.61702e-21 0.000102128)
(9.01046e-05 -5.12316e-06 -2.52031e-20 0.000114238 -1.1344e-20 0.000102174)
(8.62297e-05 -8.66117e-06 -3.3621e-21 7.49564e-05 -9.9878e-22 8.05936e-05)
(8.61238e-05 -9.6173e-06 -2.70486e-20 7.76831e-05 -1.14203e-20 8.19033e-05)
(8.58033e-05 -1.03435e-05 -3.08455e-20 8.05784e-05 -1.34609e-20 8.31933e-05)
(8.54015e-05 -1.07936e-05 -5.99894e-21 8.35488e-05 -1.61135e-21 8.44739e-05)
(8.48721e-05 -1.0962e-05 2.36506e-20 8.66184e-05 1.01213e-20 8.57444e-05)
(8.42637e-05 -1.08237e-05 -1.8424e-20 8.96293e-05 -7.26719e-21 8.69474e-05)
(8.36208e-05 -1.03898e-05 8.61576e-20 9.24699e-05 3.72865e-20 8.80459e-05)
(8.29497e-05 -9.67113e-06 -6.60378e-20 9.50892e-05 -2.66491e-20 8.9019e-05)
(8.22865e-05 -8.70072e-06 -8.93894e-21 9.74006e-05 -5.9623e-21 8.98443e-05)
(8.16317e-05 -7.50684e-06 -2.40874e-20 9.93376e-05 -4.31982e-21 9.04849e-05)
(8.09885e-05 -6.11603e-06 2.51123e-20 0.000100852 1.83868e-21 9.09198e-05)
(8.03735e-05 -4.57078e-06 -4.5352e-20 0.000101897 -1.00577e-20 9.11358e-05)
(7.59874e-05 -7.70534e-06 -1.67072e-20 6.62381e-05 -6.69413e-21 7.1113e-05)
(7.59177e-05 -8.53594e-06 1.46564e-20 6.86834e-05 5.63951e-21 7.23002e-05)
(7.56702e-05 -9.16333e-06 -4.96466e-21 7.12842e-05 -1.86515e-21 7.34796e-05)
(7.5363e-05 -9.5481e-06 -1.10973e-20 7.39564e-05 -3.88186e-21 7.46584e-05)
(7.49561e-05 -9.68548e-06 -3.69615e-20 7.6723e-05 -1.53917e-20 7.58389e-05)
(7.44902e-05 -9.5548e-06 -2.92693e-20 7.94455e-05 -1.06963e-20 7.69686e-05)
(7.40092e-05 -9.16726e-06 3.78872e-20 8.20297e-05 1.46927e-20 7.80199e-05)
(7.35144e-05 -8.53234e-06 1.92031e-20 8.44302e-05 9.58885e-21 7.89721e-05)
(7.30382e-05 -7.67938e-06 -3.08497e-20 8.6574e-05 -1.1466e-20 7.98069e-05)
(7.25818e-05 -6.63317e-06 1.06618e-19 8.84061e-05 4.02738e-20 8.04943e-05)
(7.21487e-05 -5.41639e-06 -1.34537e-19 8.98876e-05 -5.00494e-20 8.10182e-05)
(7.17351e-05 -4.06125e-06 1.37321e-19 9.09607e-05 4.96468e-20 8.13482e-05)
(7.13686e-05 -2.59835e-06 -1.18363e-19 9.16229e-05 -2.8758e-20 8.14975e-05)
(6.70815e-05 -6.86646e-06 -1.07263e-21 5.86417e-05 -4.21211e-22 6.28615e-05)
(6.70416e-05 -7.58923e-06 -2.05723e-20 6.08394e-05 -7.7668e-21 6.39403e-05)
(6.68476e-05 -8.13115e-06 3.88052e-21 6.31741e-05 1.69508e-21 6.50131e-05)
(6.66148e-05 -8.45968e-06 1.61257e-20 6.55798e-05 6.5823e-21 6.60958e-05)
(6.63025e-05 -8.57008e-06 1.41441e-20 6.80727e-05 6.07276e-21 6.71871e-05)
(6.59476e-05 -8.44534e-06 4.78224e-20 7.05326e-05 1.99333e-20 6.82407e-05)
(6.55912e-05 -8.09679e-06 7.44034e-20 7.28781e-05 2.54992e-20 6.92349e-05)
(6.52338e-05 -7.53299e-06 3.3083e-20 7.5072e-05 1.00135e-20 7.01524e-05)
(6.49021e-05 -6.78002e-06 -4.19505e-20 7.70499e-05 -1.17953e-20 7.09765e-05)
(6.4596e-05 -5.85934e-06 -1.97394e-21 7.8765e-05 -5.89927e-21 7.16808e-05)
(6.43185e-05 -4.79032e-06 6.38095e-21 8.01849e-05 1.3613e-20 7.22517e-05)
(6.40742e-05 -3.60065e-06 -3.38011e-20 8.12708e-05 -2.0924e-20 7.26725e-05)
(6.38626e-05 -2.31602e-06 1.18902e-19 8.19902e-05 4.74722e-20 7.29273e-05)
(5.93167e-05 -6.12797e-06 4.52079e-21 5.20039e-05 1.9366e-21 5.56599e-05)
(5.92961e-05 -6.75736e-06 -3.47611e-20 5.39784e-05 -1.24961e-20 5.66372e-05)
(5.91447e-05 -7.22593e-06 3.49458e-20 5.60777e-05 1.28418e-20 5.76133e-05)
(5.8969e-05 -7.50574e-06 -1.9964e-20 5.82429e-05 -7.55989e-21 5.86046e-05)
(5.87286e-05 -7.59254e-06 -1.88657e-20 6.04876e-05 -7.22026e-21 5.96077e-05)
(5.84618e-05 -7.47293e-06 5.20318e-20 6.27102e-05 1.81497e-20 6.05865e-05)
(5.82012e-05 -7.15739e-06 -6.87362e-20 6.48359e-05 -2.96977e-20 6.1519e-05)
(5.79497e-05 -6.65417e-06 -2.04591e-20 6.68357e-05 -7.16998e-21 6.23924e-05)
(5.77284e-05 -5.98656e-06 1.07548e-19 6.8652e-05 3.60866e-20 6.31905e-05)
(5.75394e-05 -5.17372e-06 -4.10399e-20 7.02483e-05 -1.52041e-20 6.38938e-05)
(5.73816e-05 -4.23159e-06 1.4167e-19 7.15944e-05 4.18902e-20 6.44876e-05)
(5.72634e-05 -3.1844e-06 -7.62451e-20 7.2663e-05 -2.26231e-20 6.49633e-05)
(5.71711e-05 -2.05155e-06 1.1369e-20 7.34103e-05 -1.2027e-20 6.52905e-05)
(5.71309e-05 -8.55474e-07 1.74511e-20 7.38448e-05 4.87451e-21 6.54889e-05)
(5.25274e-05 -5.47604e-06 1.43633e-20 4.61866e-05 5.18287e-21 4.93566e-05)
(5.2521e-05 -6.02464e-06 -1.95533e-20 4.79623e-05 -6.58486e-21 5.02418e-05)
(5.24029e-05 -6.4298e-06 -4.67983e-21 4.9851e-05 -1.93821e-21 5.11287e-05)
(5.22684e-05 -6.66727e-06 -3.26744e-20 5.17975e-05 -1.19155e-20 5.2032e-05)
(5.2086e-05 -6.73402e-06 -5.01574e-20 5.38209e-05 -1.66353e-20 5.2953e-05)
(5.18866e-05 -6.61875e-06 4.77292e-20 5.58266e-05 1.40027e-20 5.38573e-05)
(5.17013e-05 -6.33184e-06 -8.4109e-20 5.77518e-05 -2.76484e-20 5.47267e-05)
(5.15303e-05 -5.88069e-06 -3.95118e-20 5.95698e-05 -1.37114e-20 5.55499e-05)
(5.13938e-05 -5.28639e-06 -1.09605e-19 6.12332e-05 -3.86422e-20 5.6314e-05)
(5.1291e-05 -4.56576e-06 -2.98716e-20 6.27077e-05 -1.16733e-20 5.69996e-05)
(5.12244e-05 -3.73302e-06 -1.43096e-19 6.39727e-05 -5.40618e-20 5.75985e-05)
(5.11968e-05 -2.80893e-06 3.71103e-20 6.5e-05 1.85389e-20 5.80985e-05)
(5.12032e-05 -1.80892e-06 -1.97712e-19 6.57624e-05 -5.44503e-20 5.84825e-05)
(5.12519e-05 -7.53519e-07 3.46524e-20 6.62477e-05 1.8185e-20 5.87499e-05)
(4.65769e-05 -4.89913e-06 -1.04234e-20 4.10758e-05 -3.45126e-21 4.3826e-05)
(4.65794e-05 -5.37763e-06 2.13104e-20 4.26733e-05 7.52269e-21 4.46264e-05)
(4.64877e-05 -5.72787e-06 3.80167e-21 4.43733e-05 1.1367e-21 4.5432e-05)
(4.6385e-05 -5.92888e-06 -6.90042e-20 4.61241e-05 -2.26562e-20 4.62535e-05)
(4.62472e-05 -5.97843e-06 7.77452e-20 4.79469e-05 2.66051e-20 4.70967e-05)
(4.6101e-05 -5.86723e-06 -1.08101e-19 4.97569e-05 -3.82592e-20 4.79295e-05)
(4.59736e-05 -5.60524e-06 9.3463e-20 5.14987e-05 3.34151e-20 4.87364e-05)
(4.58651e-05 -5.19927e-06 -1.57706e-20 5.31496e-05 -3.85982e-21 4.95071e-05)
(4.57921e-05 -4.66852e-06 8.33985e-20 5.46669e-05 3.03854e-20 5.02298e-05)
(4.57556e-05 -4.02803e-06 -6.3126e-20 5.60243e-05 -2.10197e-20 5.08899e-05)
(4.57559e-05 -3.28987e-06 -5.32629e-20 5.7203e-05 -5.81583e-21 5.14793e-05)
(4.57957e-05 -2.47164e-06 9.2077e-20 5.818e-05 3.03778e-20 5.19881e-05)
(4.58734e-05 -1.58745e-06 1.60014e-19 5.89348e-05 5.63791e-20 5.2404e-05)
(4.59882e-05 -6.53928e-07 1.09459e-19 5.9448e-05 2.69159e-20 5.27186e-05)
(4.13505e-05 -4.38761e-06 1.03975e-20 3.65762e-05 3.3483e-21 3.89628e-05)
(4.13585e-05 -4.80513e-06 -1.04574e-20 3.80136e-05 -3.10389e-21 3.96862e-05)
(4.12848e-05 -5.1075e-06 6.66907e-21 3.95421e-05 2.22985e-21 4.0415e-05)
(4.12074e-05 -5.27719e-06 4.90266e-21 4.11184e-05 2.58709e-21 4.11619e-05)
(4.11049e-05 -5.31213e-06 -5.25947e-20 4.27607e-05 -1.81948e-20 4.19326e-05)
(4.10003e-05 -5.20481e-06 -5.99528e-20 4.43936e-05 -1.7638e-20 4.26975e-05)
(4.09163e-05 -4.96455e-06 -4.37493e-20 4.59673e-05 -1.46482e-20 4.34419e-05)
(4.08563e-05 -4.59823e-06 -1.32015e-20 4.74647e-05 -1.76526e-21 4.41603e-05)
(4.08309e-05 -4.12252e-06 4.02599e-21 4.8846e-05 1.47589e-21 4.48388e-05)
(4.0843e-05 -3.55139e-06 -1.08523e-21 5.00903e-05 2.05072e-21 4.54668e-05)
(4.08925e-05 -2.89552e-06 1.02589e-19 5.11817e-05 3.21536e-20 4.60371e-05)
(4.09823e-05 -2.17007e-06 1.90863e-20 5.21024e-05 -1.69591e-21 4.65422e-05)
(4.11109e-05 -1.38698e-06 -3.81018e-20 5.28353e-05 -1.64082e-20 4.69733e-05)
(4.12724e-05 -5.59258e-07 -2.8366e-20 5.3357e-05 -1.39554e-20 4.73144e-05)
(4.14853e-05 2.95839e-07 -1.5437e-19 5.36762e-05 -3.81478e-20 4.7582e-05)
(3.67495e-05 -3.93286e-06 1.39407e-20 3.26047e-05 4.34161e-21 3.46765e-05)
(3.67602e-05 -4.29736e-06 3.26722e-20 3.38985e-05 1.04948e-20 3.53294e-05)
(3.67006e-05 -4.55823e-06 -4.97908e-20 3.52734e-05 -1.52651e-20 3.59884e-05)
(3.66431e-05 -4.70098e-06 7.22227e-20 3.66928e-05 2.3371e-20 3.6667e-05)
(3.65682e-05 -4.72359e-06 1.21552e-20 3.81728e-05 4.70737e-21 3.73703e-05)
(3.64953e-05 -4.62003e-06 9.28623e-20 3.9645e-05 3.08833e-20 3.80707e-05)
(3.64461e-05 -4.39929e-06 7.12804e-20 4.10672e-05 2.14742e-20 3.87566e-05)
(3.64212e-05 -4.06762e-06 5.57077e-20 4.24221e-05 1.87819e-20 3.94215e-05)
(3.64317e-05 -3.64017e-06 8.4978e-20 4.36776e-05 2.29613e-20 4.00549e-05)
(3.64794e-05 -3.12977e-06 -3.7126e-20 4.48146e-05 -1.21939e-20 4.06471e-05)
(3.65642e-05 -2.54537e-06 -4.51795e-20 4.58207e-05 -1.88499e-20 4.11923e-05)
(3.6689e-05 -1.90048e-06 -5.97451e-20 4.66813e-05 -1.71956e-20 4.16852e-05)
(3.68521e-05 -1.20563e-06 7.26904e-20 4.73815e-05 1.89087e-20 4.21168e-05)
(3.70516e-05 -4.71021e-07 2.70064e-20 4.7906e-05 5.76902e-21 4.24786e-05)
(3.72927e-05 2.87385e-07 5.6348e-20 4.82483e-05 2.57849e-20 4.27711e-05)
(3.26916e-05 -3.52797e-06 -2.66106e-20 2.90929e-05 -7.93067e-21 3.08918e-05)
(3.27031e-05 -3.84623e-06 -2.80321e-21 3.02578e-05 -9.18769e-22 3.14804e-05)
(3.26539e-05 -4.07106e-06 8.23636e-20 3.14945e-05 2.53872e-20 3.20756e-05)
(3.26126e-05 -4.19065e-06 -1.73501e-21 3.27734e-05 -9.95617e-22 3.26921e-05)
(3.25601e-05 -4.20304e-06 -3.64889e-20 3.41077e-05 -1.08457e-20 3.33336e-05)
(3.2511e-05 -4.10308e-06 -1.147e-20 3.54343e-05 -5.86834e-21 3.39732e-05)
(3.24877e-05 -3.89976e-06 -9.1121e-20 3.67184e-05 -2.88739e-20 3.46031e-05)
(3.2489e-05 -3.59863e-06 2.42707e-20 3.79432e-05 8.01019e-21 3.5216e-05)
(3.25261e-05 -3.21367e-06 -1.07944e-19 3.90826e-05 -3.23404e-20 3.58045e-05)
(3.25988e-05 -2.75621e-06 2.39255e-20 4.01185e-05 5.98052e-21 3.63588e-05)
(3.27085e-05 -2.23468e-06 -4.54058e-20 4.10423e-05 -1.06599e-20 3.68754e-05)
(3.28566e-05 -1.66049e-06 -8.89068e-21 4.18407e-05 -1.68211e-22 3.73486e-05)
(3.30428e-05 -1.04277e-06 -9.42451e-20 4.25031e-05 -3.21926e-20 3.7773e-05)
(3.32659e-05 -3.90366e-07 -4.92279e-20 4.3017e-05 -9.9102e-21 3.81413e-05)
(3.35254e-05 2.83023e-07 5.81836e-20 4.33706e-05 9.3527e-21 3.84484e-05)
(2.91075e-05 -3.16699e-06 5.23818e-21 2.59832e-05 1.59669e-21 2.75447e-05)
(2.91174e-05 -3.44472e-06 -3.33723e-20 2.70308e-05 -9.83124e-21 2.80742e-05)
(2.90777e-05 -3.63841e-06 -5.28991e-20 2.81449e-05 -1.61278e-20 2.86125e-05)
(2.90484e-05 -3.73804e-06 -1.10388e-20 2.92968e-05 -2.76269e-21 2.91718e-05)
(2.90119e-05 -3.74174e-06 5.06433e-20 3.04985e-05 1.49921e-20 2.97551e-05)
(2.8982e-05 -3.64554e-06 -5.85004e-20 3.16946e-05 -1.69165e-20 3.03387e-05)
(2.89778e-05 -3.45792e-06 -5.67033e-21 3.28526e-05 1.75457e-21 3.09153e-05)
(2.89982e-05 -3.18383e-06 1.05172e-19 3.39589e-05 2.8145e-20 3.14785e-05)
(2.90537e-05 -2.83648e-06 7.66462e-20 3.49904e-05 2.31413e-20 3.20224e-05)
(2.91443e-05 -2.42577e-06 -9.45574e-20 3.5933e-05 -2.76541e-20 3.25387e-05)
(2.92701e-05 -1.95928e-06 3.67957e-20 3.67776e-05 1.53306e-20 3.3024e-05)
(2.94339e-05 -1.4471e-06 2.28344e-20 3.75159e-05 6.67328e-21 3.34749e-05)
(2.96339e-05 -8.97308e-07 -7.15273e-20 3.81367e-05 -1.11146e-20 3.38854e-05)
(2.98715e-05 -3.17078e-07 7.38928e-20 3.86331e-05 2.00042e-20 3.42522e-05)
(3.01402e-05 2.82395e-07 -6.36462e-20 3.89869e-05 -2.06958e-20 3.45635e-05)
(3.04552e-05 8.91567e-07 5.68246e-20 3.92095e-05 1.70869e-20 3.48328e-05)
(2.59356e-05 -2.84452e-06 2.51806e-21 2.32237e-05 7.2806e-22 2.45791e-05)
(2.59436e-05 -3.08683e-06 7.61077e-22 2.41662e-05 3.22623e-22 2.50549e-05)
(2.5912e-05 -3.25355e-06 -1.70234e-20 2.51704e-05 -4.73117e-21 2.55424e-05)
(2.58923e-05 -3.33608e-06 1.47234e-20 2.62084e-05 4.47024e-21 2.60495e-05)
(2.58678e-05 -3.3326e-06 -3.64979e-20 2.72904e-05 -9.97286e-21 2.6579e-05)
(2.58522e-05 -3.24018e-06 7.81568e-20 2.83681e-05 2.31211e-20 2.71106e-05)
(2.58619e-05 -3.06671e-06 5.04335e-20 2.94118e-05 1.13013e-20 2.76369e-05)
(2.58967e-05 -2.81696e-06 -1.76117e-19 3.04108e-05 -5.23049e-20 2.81537e-05)
(2.59649e-05 -2.50291e-06 1.81284e-20 3.13437e-05 7.00061e-21 2.86546e-05)
(2.60671e-05 -2.1335e-06 6.82968e-21 3.21993e-05 3.88477e-21 2.91332e-05)
(2.62031e-05 -1.7155e-06 9.04439e-20 3.29701e-05 2.20055e-20 2.95866e-05)
(2.63753e-05 -1.25809e-06 5.91617e-20 3.36487e-05 1.01966e-20 3.0012e-05)
(2.65821e-05 -7.6767e-07 1.08816e-19 3.42267e-05 3.22442e-20 3.04044e-05)
(2.68249e-05 -2.51296e-07 -3.29115e-20 3.46978e-05 -9.77792e-21 3.07612e-05)
(2.70998e-05 2.82613e-07 -3.74654e-20 3.50493e-05 -6.2909e-21 3.10744e-05)
(2.7412e-05 8.24116e-07 8.33952e-20 3.52809e-05 1.63913e-20 3.13464e-05)
(2.31251e-05 -2.55625e-06 7.47844e-21 2.07724e-05 2.00784e-21 2.19483e-05)
(2.31312e-05 -2.76747e-06 4.54407e-20 2.16201e-05 1.26452e-20 2.23756e-05)
(2.31062e-05 -2.91078e-06 3.03845e-21 2.25255e-05 1.13227e-21 2.28169e-05)
(2.30933e-05 -2.97862e-06 4.24011e-20 2.34605e-05 1.21918e-20 2.32762e-05)
(2.3078e-05 -2.96927e-06 8.51161e-21 2.44349e-05 2.15136e-21 2.37564e-05)
(2.3073e-05 -2.88061e-06 -3.97094e-20 2.54053e-05 -1.26736e-20 2.42395e-05)
(2.3093e-05 -2.72011e-06 -8.63538e-20 2.6346e-05 -2.46488e-20 2.47195e-05)
(2.31378e-05 -2.49218e-06 -8.4334e-21 2.72472e-05 2.84129e-21 2.51924e-05)
(2.32142e-05 -2.2077e-06 7.10915e-20 2.809e-05 1.98613e-20 2.56523e-05)
(2.33233e-05 -1.875e-06 -3.94035e-20 2.88652e-05 -1.10424e-20 2.60943e-05)
(2.34645e-05 -1.49988e-06 -6.48642e-20 2.95665e-05 -2.03747e-20 2.65155e-05)
(2.36399e-05 -1.09061e-06 -1.43499e-19 3.01879e-05 -3.71924e-20 2.69139e-05)
(2.38484e-05 -6.52961e-07 7.90577e-20 3.07228e-05 1.75923e-20 2.72856e-05)
(2.40904e-05 -1.92628e-07 8.461e-20 3.11652e-05 1.69804e-20 2.76277e-05)
(2.43654e-05 2.82925e-07 -2.21064e-20 3.15077e-05 -5.02155e-21 2.79364e-05)
(2.46714e-05 7.65001e-07 -1.48322e-20 3.1742e-05 -2.78306e-21 2.8207e-05)
(2.05904e-05 -2.0806e-06 -1.20614e-21 1.79305e-05 -4.21527e-22 1.92608e-05)
(2.06316e-05 -2.29809e-06 2.62451e-21 1.85913e-05 7.50107e-22 1.9611e-05)
(2.06368e-05 -2.48221e-06 -2.68498e-20 1.93546e-05 -7.2969e-21 1.99957e-05)
(2.06158e-05 -2.60513e-06 -1.98998e-20 2.01702e-05 -5.1996e-21 2.03941e-05)
(2.0608e-05 -2.66038e-06 5.09548e-20 2.10125e-05 1.33638e-20 2.08096e-05)
(2.05997e-05 -2.64632e-06 -7.84267e-20 2.18899e-05 -2.10261e-20 2.12448e-05)
(2.06023e-05 -2.5614e-06 2.41701e-21 2.27635e-05 1.58916e-21 2.16833e-05)
(2.06294e-05 -2.41272e-06 -2.03272e-20 2.36106e-05 -2.70465e-21 2.21201e-05)
(2.0681e-05 -2.20447e-06 5.32946e-20 2.44232e-05 1.38937e-20 2.25521e-05)
(2.07623e-05 -1.94648e-06 4.2124e-20 2.51836e-05 9.92779e-21 2.29733e-05)
(2.08746e-05 -1.64637e-06 4.90291e-20 2.58848e-05 1.37995e-20 2.33798e-05)
(2.10174e-05 -1.30933e-06 2.81356e-21 2.65216e-05 2.62871e-22 2.37696e-05)
(2.11923e-05 -9.42833e-07 4.44453e-21 2.70887e-05 5.62889e-21 2.41405e-05)
(2.13987e-05 -5.51732e-07 -1.39361e-20 2.75814e-05 -6.8079e-21 2.449e-05)
(2.16365e-05 -1.40978e-07 -9.70923e-20 2.79942e-05 -2.39478e-20 2.48152e-05)
(2.19064e-05 2.82673e-07 -4.02517e-21 2.83223e-05 3.42216e-21 2.51143e-05)
(2.22029e-05 7.12538e-07 9.40555e-20 2.85537e-05 1.81635e-20 2.53781e-05)
(2.25376e-05 1.14065e-06 9.87369e-21 2.86994e-05 -1.79215e-21 2.56191e-05)
(1.83808e-05 -1.87532e-06 3.40267e-21 1.60522e-05 8.91436e-22 1.72168e-05)
(1.8416e-05 -2.06651e-06 -1.7749e-20 1.66474e-05 -4.57497e-21 1.75313e-05)
(1.84205e-05 -2.22705e-06 -2.17648e-20 1.73354e-05 -5.64412e-21 1.78779e-05)
(1.84033e-05 -2.33232e-06 1.72223e-20 1.80707e-05 4.65425e-21 1.82379e-05)
(1.8399e-05 -2.37682e-06 -3.40412e-20 1.88293e-05 -8.89224e-21 1.86136e-05)
(1.83958e-05 -2.359e-06 5.26895e-20 1.9619e-05 1.47312e-20 1.90073e-05)
(1.84043e-05 -2.27791e-06 3.13148e-20 2.04055e-05 8.70696e-21 1.94052e-05)
(1.84364e-05 -2.14019e-06 9.17401e-20 2.11684e-05 2.3774e-20 1.98024e-05)
(1.84918e-05 -1.94968e-06 -7.80833e-20 2.19e-05 -2.14207e-20 2.01959e-05)
(1.85756e-05 -1.71543e-06 -5.2603e-21 2.25859e-05 -1.66594e-21 2.05809e-05)
(1.86886e-05 -1.44442e-06 3.76564e-20 2.32194e-05 6.05501e-21 2.09541e-05)
(1.883e-05 -1.14114e-06 -7.97218e-20 2.37962e-05 -1.83117e-20 2.13132e-05)
(1.90015e-05 -8.12411e-07 1.07911e-20 2.43123e-05 3.36331e-21 2.16571e-05)
(1.92026e-05 -4.62586e-07 3.64043e-21 2.47637e-05 2.33964e-21 2.19833e-05)
(1.94334e-05 -9.58788e-08 5.99163e-20 2.51464e-05 1.58816e-20 2.22897e-05)
(1.96939e-05 2.81755e-07 5.1538e-20 2.5456e-05 6.5552e-21 2.25749e-05)
(1.99822e-05 6.65306e-07 -9.0721e-20 2.56851e-05 -2.17553e-20 2.28334e-05)
(2.03005e-05 1.04634e-06 -5.05203e-20 2.58341e-05 -5.41701e-21 2.30674e-05)
(1.64165e-05 -1.6907e-06 -8.68109e-22 1.4378e-05 -4.33324e-22 1.53976e-05)
(1.64467e-05 -1.85884e-06 1.67304e-21 1.49147e-05 4.1007e-22 1.56803e-05)
(1.64499e-05 -1.99869e-06 7.72504e-21 1.55344e-05 2.12295e-21 1.59921e-05)
(1.64354e-05 -2.0886e-06 5.76688e-20 1.61969e-05 1.48478e-20 1.6317e-05)
(1.64337e-05 -2.12395e-06 1.57632e-20 1.68802e-05 3.94168e-21 1.66564e-05)
(1.64345e-05 -2.10324e-06 2.23544e-20 1.75912e-05 4.80225e-21 1.70128e-05)
(1.64468e-05 -2.02591e-06 -1.29944e-20 1.82988e-05 -3.79203e-21 1.73731e-05)
(1.64821e-05 -1.89828e-06 1.52107e-20 1.89854e-05 5.03754e-21 1.77337e-05)
(1.65397e-05 -1.72392e-06 3.80292e-21 1.96441e-05 1.90145e-21 1.80919e-05)
(1.66242e-05 -1.51105e-06 -2.43466e-20 2.02623e-05 -7.383e-21 1.84434e-05)
(1.67354e-05 -1.26599e-06 -7.17627e-20 2.08334e-05 -1.76951e-20 1.87845e-05)
(1.68737e-05 -9.92977e-07 6.9553e-20 2.13551e-05 2.00029e-20 1.91144e-05)
(1.70399e-05 -6.97957e-07 -8.97424e-21 2.18237e-05 -1.48549e-21 1.94318e-05)
(1.72338e-05 -3.8471e-07 3.69299e-20 2.22359e-05 5.80018e-21 1.97348e-05)
(1.74554e-05 -5.68924e-08 -4.93057e-20 2.25888e-05 -1.33679e-20 2.0022e-05)
(1.77045e-05 2.80055e-07 -1.03112e-19 2.28781e-05 -2.61249e-20 2.02913e-05)
(1.79808e-05 6.22038e-07 6.1876e-20 2.30995e-05 1.7407e-20 2.05399e-05)
(1.8282e-05 9.61536e-07 1.20936e-19 2.32484e-05 2.44491e-20 2.07654e-05)
(1.46688e-05 -1.52457e-06 -1.73309e-21 1.28844e-05 -3.11235e-22 1.37769e-05)
(1.46944e-05 -1.6724e-06 1.6637e-20 1.33682e-05 4.11286e-21 1.40309e-05)
(1.46962e-05 -1.79414e-06 1.3623e-20 1.39263e-05 3.41076e-21 1.43112e-05)
(1.46836e-05 -1.87074e-06 -2.72876e-20 1.45233e-05 -6.88251e-21 1.46042e-05)
(1.46838e-05 -1.89831e-06 -3.38226e-20 1.51387e-05 -8.89169e-21 1.49108e-05)
(1.46871e-05 -1.87538e-06 -7.45138e-20 1.57784e-05 -1.81799e-20 1.52327e-05)
(1.47023e-05 -1.8018e-06 -2.28087e-20 1.6415e-05 -3.9798e-21 1.55589e-05)
(1.47392e-05 -1.68351e-06 1.83475e-19 1.70325e-05 4.46201e-20 1.58859e-05)
(1.47976e-05 -1.52378e-06 1.80985e-20 1.76252e-05 1.60923e-21 1.62114e-05)
(1.48808e-05 -1.33018e-06 -2.51201e-20 1.81816e-05 -6.40609e-21 1.65314e-05)
(1.49894e-05 -1.10845e-06 -1.44e-20 1.86964e-05 -6.55331e-22 1.68429e-05)
(1.51229e-05 -8.62329e-07 4.17017e-20 1.91674e-05 6.78394e-21 1.71452e-05)
(1.52825e-05 -5.97263e-07 3.60701e-20 1.95918e-05 7.4823e-21 1.74372e-05)
(1.54675e-05 -3.1666e-07 -6.83638e-20 1.99668e-05 -1.79052e-20 1.77172e-05)
(1.56785e-05 -2.36738e-08 2.5321e-20 2.02905e-05 6.66048e-21 1.79843e-05)
(1.5915e-05 2.77198e-07 -7.12104e-20 2.05591e-05 -1.15383e-20 1.8237e-05)
(1.61779e-05 5.82099e-07 -1.96953e-20 2.07707e-05 -2.14833e-21 1.84741e-05)
(1.64616e-05 8.8498e-07 -6.465e-20 2.0916e-05 -1.22161e-20 1.86887e-05)
(1.67752e-05 1.18095e-06 6.02132e-20 2.10055e-05 1.78412e-21 1.88906e-05)
(1.31123e-05 -1.37496e-06 -4.54017e-21 1.15507e-05 -1.09114e-21 1.23318e-05)
(1.31337e-05 -1.5049e-06 -1.00122e-20 1.19867e-05 -2.40536e-21 1.25598e-05)
(1.31342e-05 -1.6108e-06 1.87775e-20 1.24894e-05 4.54382e-21 1.28117e-05)
(1.3123e-05 -1.67586e-06 1.95869e-20 1.30271e-05 4.91013e-21 1.30758e-05)
(1.31244e-05 -1.69682e-06 3.472e-20 1.35812e-05 8.50423e-21 1.33524e-05)
(1.31296e-05 -1.67231e-06 7.44519e-20 1.41567e-05 1.88728e-20 1.36431e-05)
(1.31466e-05 -1.60247e-06 1.43541e-20 1.47292e-05 1.21982e-21 1.39382e-05)
(1.31843e-05 -1.49282e-06 -5.15732e-20 1.52847e-05 -1.48406e-20 1.42344e-05)
(1.32422e-05 -1.34648e-06 -7.42316e-20 1.58177e-05 -1.81533e-20 1.453e-05)
(1.33231e-05 -1.17021e-06 -2.88397e-20 1.63178e-05 -3.4085e-21 1.48206e-05)
(1.34277e-05 -9.69437e-07 2.98497e-20 1.67811e-05 5.9073e-21 1.51045e-05)
(1.35557e-05 -7.47567e-07 -9.3004e-20 1.72058e-05 -2.19331e-20 1.53807e-05)
(1.37074e-05 -5.09225e-07 -1.51595e-22 1.75892e-05 -6.15812e-22 1.56483e-05)
(1.38829e-05 -2.57563e-07 -5.86055e-20 1.79295e-05 -1.01309e-20 1.59062e-05)
(1.40823e-05 4.59939e-09 -1.56019e-20 1.82251e-05 -5.70514e-21 1.61536e-05)
(1.43055e-05 2.73276e-07 1.32021e-20 1.84731e-05 4.59499e-21 1.63893e-05)
(1.45526e-05 5.45203e-07 1.07464e-19 1.86712e-05 2.46286e-20 1.66118e-05)
(1.48214e-05 8.15491e-07 1.25465e-19 1.88145e-05 2.38562e-20 1.68179e-05)
(1.51131e-05 1.07882e-06 -8.16961e-20 1.89046e-05 -1.51155e-20 1.70089e-05)
(1.1725e-05 -1.24015e-06 8.75438e-22 1.03586e-05 1.13566e-22 1.10421e-05)
(1.17425e-05 -1.35434e-06 7.13011e-21 1.07515e-05 1.70084e-21 1.12467e-05)
(1.17418e-05 -1.44637e-06 -3.6574e-20 1.12043e-05 -8.48986e-21 1.1473e-05)
(1.17317e-05 -1.50143e-06 2.43563e-20 1.16885e-05 5.37381e-21 1.17108e-05)
(1.17337e-05 -1.5168e-06 -5.98798e-20 1.21873e-05 -1.39484e-20 1.19601e-05)
(1.17401e-05 -1.4912e-06 5.44899e-20 1.27049e-05 1.14199e-20 1.22225e-05)
(1.17582e-05 -1.42502e-06 -1.98642e-19 1.32198e-05 -4.69378e-20 1.24892e-05)
(1.17959e-05 -1.32343e-06 1.18368e-20 1.37192e-05 4.31772e-21 1.27576e-05)
(1.18523e-05 -1.18924e-06 -2.25546e-20 1.41978e-05 -3.26073e-21 1.30251e-05)
(1.19305e-05 -1.0288e-06 1.48029e-19 1.46474e-05 3.25252e-20 1.32891e-05)
(1.20306e-05 -8.46913e-07 -4.44364e-20 1.50642e-05 -1.15792e-20 1.35475e-05)
(1.21521e-05 -6.46642e-07 1.00505e-20 1.54464e-05 4.55587e-21 1.37994e-05)
(1.22958e-05 -4.32256e-07 -7.92547e-22 1.57923e-05 1.06969e-21 1.4044e-05)
(1.2461e-05 -2.06558e-07 4.14751e-20 1.61001e-05 1.12452e-20 1.42806e-05)
(1.26484e-05 2.8114e-08 -8.33385e-20 1.6369e-05 -1.82888e-20 1.45086e-05)
(1.28577e-05 2.68149e-07 -3.75217e-20 1.65966e-05 -5.31687e-21 1.47271e-05)
(1.30889e-05 5.10776e-07 4.75188e-20 1.67805e-05 6.15491e-21 1.49345e-05)
(1.33403e-05 7.51635e-07 -5.53859e-20 1.69174e-05 -1.60112e-20 1.51288e-05)
(1.36125e-05 9.86406e-07 8.324e-20 1.70076e-05 1.59351e-20 1.53102e-05)
(1.04874e-05 -1.11858e-06 -2.18971e-21 9.29231e-06 -4.71748e-22 9.89015e-06)
(1.05017e-05 -1.21892e-06 -1.91766e-20 9.64637e-06 -4.3616e-21 1.00737e-05)
(1.04999e-05 -1.29882e-06 2.17001e-20 1.0054e-05 5.01768e-21 1.02769e-05)
(1.04902e-05 -1.34518e-06 -4.12883e-20 1.04898e-05 -9.36089e-21 1.04906e-05)
(1.04927e-05 -1.35588e-06 7.62182e-20 1.09388e-05 1.75665e-20 1.07153e-05)
(1.04999e-05 -1.32965e-06 -9.22267e-21 1.14043e-05 -2.87492e-21 1.09521e-05)
(1.05184e-05 -1.26705e-06 1.59105e-20 1.18671e-05 5.50413e-21 1.1193e-05)
(1.05554e-05 -1.17296e-06 1.28738e-20 1.23158e-05 3.29995e-21 1.14356e-05)
(1.06102e-05 -1.04996e-06 -2.48635e-20 1.27458e-05 -6.18021e-21 1.1678e-05)
(1.0685e-05 -9.03828e-07 -9.2217e-20 1.31497e-05 -2.06323e-20 1.19175e-05)
(1.07801e-05 -7.38923e-07 -1.16033e-20 1.35242e-05 -2.18352e-21 1.21522e-05)
(1.08949e-05 -5.58105e-07 7.67001e-21 1.38678e-05 2.85107e-21 1.23814e-05)
(1.10299e-05 -3.65182e-07 4.21141e-20 1.41791e-05 1.02831e-20 1.26045e-05)
(1.11849e-05 -1.62596e-07 7.09169e-20 1.44571e-05 1.55047e-20 1.2821e-05)
(1.13602e-05 4.74607e-08 -4.24296e-20 1.47009e-05 -7.52798e-21 1.30305e-05)
(1.15554e-05 2.61999e-07 4.58861e-20 1.49084e-05 1.30081e-20 1.32319e-05)
(1.17707e-05 4.78442e-07 3.10712e-21 1.50782e-05 -1.76292e-21 1.34243e-05)