/*--------------------------------*- C++ -*----------------------------------*\
| =========                 |                                                 |
| \\      /  F ield         | OpenFOAM: The Open Source CFD Toolbox           |
|  \\    /   O peration     | Version:  2506                                  |
|   \\  /    A nd           | Website:  www.openfoam.com                      |
|    \\/     M anipulation  |                                                 |
\*---------------------------------------------------------------------------*/
FoamFile
{
    version     2.0;
    format      ascii;
    arch        "LSB;label=32;scalar=64";
    class       volVectorField;
    location    "200";
    object      momentError;
}
// * * * * * * * * * * * * * * * * * * * * * * * * * * * * * * * * * * * * * //

dimensions      [0 1 -2 0 0 0 0];

internalField   nonuniform List<vector> 
10720
(
(0.300494 -1.14699 -6.9556e-15)
(0.20911 -1.12588 2.35535e-14)
(0.0182553 -0.943129 -4.63922e-14)
(-0.0609898 -0.896781 1.79054e-14)
(-0.11728 -0.806371 1.08335e-13)
(-0.156507 -0.712433 -1.72445e-13)
(-0.187329 -0.621491 8.91339e-14)
(-0.198605 -0.52022 -1.10164e-13)
(-0.194952 -0.43058 -2.52217e-13)
(-0.182187 -0.344591 3.41257e-13)
(-0.163456 -0.287842 1.23273e-13)
(-0.103785 -0.176569 -2.27335e-13)
(-0.0590422 -0.106598 -3.32687e-13)
(-0.0208353 -0.048525 -5.69041e-14)
(0.0236158 0.00434655 -1.39144e-13)
(0.0701576 0.0514982 -3.09255e-13)
(0.124079 0.0914141 -1.46357e-13)
(0.187014 0.124182 8.30757e-13)
(0.261168 0.150835 4.2315e-13)
(0.345264 0.166373 -5.95643e-13)
(0.412965 0.169994 1.05956e-13)
(0.440631 0.142767 1.53501e-13)
(0.322334 0.0931578 -6.7115e-14)
(0.161722 0.0591584 -1.53777e-13)
(0.113294 0.0307623 3.65744e-14)
(0.0859762 0.00319465 -2.28522e-15)
(0.076816 -0.00807335 4.15064e-14)
(0.071746 -0.0115361 -1.64742e-14)
(0.0717053 -0.0107104 4.40717e-14)
(0.0745793 -0.00907948 1.55248e-13)
(0.0734251 -0.00743169 3.07707e-14)
(0.0608968 -0.00548978 -1.29293e-13)
(0.0507386 -0.00464634 -6.61461e-15)
(0.0407614 -0.00425885 -2.16924e-13)
(0.0338372 -0.00413294 -2.85123e-13)
(0.0333295 -0.00317817 1.16515e-13)
(0.0370872 0.00729179 -1.13843e-14)
(0.0752694 0.0780177 -2.50362e-16)
(1.16328 -0.130689 -7.02237e-14)
(0.341525 -1.07353 -1.09471e-14)
(0.363075 -0.869565 2.70663e-14)
(0.356917 -0.649873 1.58431e-15)
(0.302705 -0.47295 3.64169e-14)
(0.248517 -0.331278 -3.2764e-14)
(0.186039 -0.18183 -9.57432e-14)
(0.0744037 -0.0443577 -1.00753e-13)
(0.00349315 0.0150498 2.87802e-14)
(0.0254509 -0.0230263 -7.86904e-14)
(0.0825319 -0.0731161 9.62457e-14)
(0.0938148 -0.0630493 -5.96489e-14)
(0.080702 -0.0456272 -1.4567e-13)
(0.0750274 -0.0388907 -1.64046e-13)
(0.0721201 -0.0333346 1.31247e-14)
(0.0651421 -0.0268827 1.32397e-13)
(0.0572829 -0.0219859 3.969e-14)
(0.0510908 -0.0184238 -5.00069e-14)
(0.0457452 -0.0155631 -3.52495e-14)
(0.0408714 -0.0131264 -2.16868e-14)
(0.0364852 -0.0111096 3.87662e-14)
(0.0326833 -0.00936538 1.71436e-14)
(0.0293238 -0.00790522 2.48196e-14)
(0.0264392 -0.00661723 -3.34735e-14)
(0.0239101 -0.00552986 -2.43508e-14)
(0.0214612 -0.00434842 1.7919e-14)
(0.0189406 -0.00383041 1.21081e-14)
(0.0169741 -0.00317243 6.73711e-15)
(0.0157103 -0.00107393 -1.41244e-15)
(0.0144792 0.000544629 -2.72681e-16)
(0.0133484 0.000756254 2.62016e-16)
(0.0120147 0.000762718 -4.83987e-16)
(0.0110771 0.000837218 -1.98368e-15)
(0.0102647 0.000919307 -1.22683e-15)
(0.00948455 0.000966464 -4.25915e-15)
(0.00886041 0.00100422 -3.42899e-15)
(0.00914735 0.00108681 1.37152e-15)
(0.0101561 0.00108466 -2.0911e-15)
(0.00758651 0.000706814 -1.10284e-14)
(0.0069165 0.00124895 -2.15488e-14)
(-0.0748108 -0.822403 -1.33161e-14)
(-0.164082 -0.816644 5.65942e-15)
(-0.229623 -0.687487 7.42837e-15)
(-0.315902 -0.662474 -3.27205e-14)
(-0.369829 -0.611389 2.06678e-14)
(-0.4049 -0.552605 7.88863e-14)
(-0.44023 -0.488797 1.02775e-13)
(-0.455339 -0.421895 9.94913e-14)
(-0.452486 -0.35794 -3.9755e-15)
(-0.445467 -0.30183 1.89091e-13)
(-0.420381 -0.239329 -2.07434e-13)
(-0.416848 -0.262855 -1.18491e-13)
(-0.406971 -0.258843 4.4592e-13)
(-0.400159 -0.235242 1.277e-13)
(-0.364531 -0.227349 -1.18535e-13)
(-0.333674 -0.217818 -1.7645e-14)
(-0.297336 -0.214591 3.40635e-13)
(-0.251004 -0.212744 -1.5438e-13)
(-0.18462 -0.212371 -4.89494e-13)
(-0.0893321 -0.206037 1.87928e-13)
(0.0815518 -0.186481 2.34758e-13)
(0.25876 -0.126459 4.61231e-14)
(0.484276 -0.0315165 -1.27411e-13)
(0.627639 0.0436063 1.92031e-13)
(0.56156 0.0512826 -4.17001e-14)
(0.431415 0.0345252 -7.06813e-14)
(0.332946 0.0188743 -3.02024e-14)
(0.254648 0.00384431 5.52643e-15)
(0.178493 -0.00366028 -1.53627e-14)
(0.112168 -0.00863504 -1.68565e-14)
(0.0728243 -0.0118149 -2.04319e-14)
(0.0712512 -0.0129618 3.68583e-14)
(0.0717662 -0.0119216 -1.89123e-13)
(0.0641664 -0.00994672 -2.23709e-13)
(0.056474 -0.00906649 1.63786e-13)
(0.0643431 -0.00934969 -3.91641e-14)
(0.0641806 -0.00862418 3.38053e-14)
(0.019711 0.00399049 -1.43428e-14)
(-0.890435 0.103418 -4.01378e-14)
(-0.0157361 -0.775876 -4.53541e-15)
(0.0563981 -0.651963 1.25496e-13)
(0.11238 -0.50948 -8.28505e-15)
(0.133807 -0.394861 -1.30063e-13)
(0.141788 -0.286104 -2.5566e-14)
(0.131411 -0.17642 1.27988e-13)
(0.0845114 -0.0805474 1.06832e-13)
(0.051362 -0.0406674 6.1237e-14)
(0.0615112 -0.0541324 -7.9023e-14)
(0.0896876 -0.0668655 -1.24505e-14)
(0.100987 -0.050988 1.01663e-13)
(0.0963438 -0.0376372 -5.27772e-15)
(0.0911048 -0.0305192 1.24015e-14)
(0.0864412 -0.0228883 -2.45559e-14)
(0.0791563 -0.0159323 -3.24524e-14)
(0.0707751 -0.0117255 1.40323e-14)
(0.0635543 -0.00896724 1.7059e-14)
(0.0572455 -0.00694368 -5.7738e-14)
(0.0515508 -0.0053503 2.67909e-14)
(0.0464305 -0.00416203 1.77455e-14)
(0.0419549 -0.00313208 1.4611e-14)
(0.0379867 -0.00230771 3.16933e-14)
(0.0344977 -0.00156868 4.13676e-14)
(0.031312 -0.000797001 1.74697e-14)
(0.0282884 0.000219634 -1.49869e-14)
(0.0253409 0.0011535 8.25076e-16)
(0.022573 0.00168238 -5.51059e-15)
(0.0202763 0.00190194 -2.00819e-15)
(0.0183071 0.00169455 3.72839e-16)
(0.0163603 0.00140103 -4.87555e-17)
(0.0151853 0.00114268 3.46228e-16)
(0.0139207 0.00115338 6.78226e-16)
(0.012715 0.00120285 1.93717e-15)
(0.0117386 0.00124113 2.64237e-15)
(0.0109092 0.0012993 9.3733e-16)
(0.0110593 0.00140589 -1.63858e-15)
(0.0114732 0.00150792 -1.07266e-16)
(0.0106078 0.00172466 3.73594e-15)
(0.00580224 0.00207238 9.16281e-15)
(0.0645539 -0.666253 -5.2192e-15)
(0.0163327 -0.658484 -5.62745e-16)
(-0.0437251 -0.560149 -5.42926e-15)
(-0.0954348 -0.560358 1.50174e-14)
(-0.129627 -0.534019 3.8352e-15)
(-0.159265 -0.492596 -3.28752e-14)
(-0.18752 -0.452844 -1.06217e-13)
(-0.204141 -0.408152 -9.4265e-14)
(-0.210601 -0.359758 -1.10496e-13)
(-0.211603 -0.314333 1.10609e-14)
(-0.205112 -0.271651 2.61901e-13)
(-0.193294 -0.226856 7.03127e-14)
(-0.180725 -0.182483 -9.88997e-14)
(-0.16297 -0.14814 -2.39786e-13)
(-0.164273 -0.112325 1.09829e-13)
(-0.1755 -0.0823394 1.45264e-13)
(-0.185665 -0.0659491 -9.39274e-14)
(-0.202739 -0.0586397 -1.88197e-13)
(-0.236299 -0.0635463 3.16072e-13)
(-0.289934 -0.0811104 -9.47897e-14)
(-0.373981 -0.108359 -1.20385e-13)
(-0.426643 -0.150192 1.79535e-13)
(-0.401602 -0.125777 7.15612e-14)
(-0.275429 -0.0643335 -3.05826e-15)
(-0.135057 -0.00786334 -3.29212e-14)
(-0.0287277 0.0231516 3.84395e-15)
(0.0611939 0.0237336 -3.0551e-14)
(0.143203 0.0106499 2.11389e-14)
(0.192747 0.00447005 -3.30666e-14)
(0.211175 -0.000139732 -7.26187e-14)
(0.194515 -0.00565197 7.00069e-14)
(0.150714 -0.00917579 3.05373e-14)
(0.0947334 -0.0100397 -1.222e-13)
(0.0624859 -0.0102405 7.74738e-14)
(0.0566083 -0.0113192 1.83456e-14)
(0.067581 -0.0121394 -3.68623e-14)
(0.073273 -0.0116481 -1.02273e-13)
(0.0453954 -0.0094157 2.87341e-14)
(-0.0403328 -0.00420902 1.13871e-14)
(0.100163 -0.633136 2.95588e-14)
(0.12323 -0.537899 -2.80147e-14)
(0.137531 -0.420338 -9.91768e-14)
(0.142342 -0.334938 4.50326e-14)
(0.134862 -0.251926 1.99109e-14)
(0.116943 -0.169186 -6.49062e-14)
(0.0867646 -0.0940439 1.43417e-14)
(0.071882 -0.0687148 -1.17388e-13)
(0.0847172 -0.0753968 -8.04368e-14)
(0.1001 -0.0747433 -8.75179e-14)
(0.105567 -0.0639425 9.7789e-14)
(0.101162 -0.0538407 1.47959e-14)
(0.094508 -0.0456296 -1.389e-14)
(0.0878626 -0.0372865 -8.08593e-14)
(0.0800733 -0.0299766 -5.79229e-14)
(0.0715653 -0.0246071 3.77453e-14)
(0.063869 -0.0204983 -2.13296e-14)
(0.0571901 -0.0171302 -4.37631e-14)
(0.0512616 -0.0143507 -3.976e-15)
(0.0459854 -0.0120677 -3.9977e-14)
(0.0414042 -0.0101063 -4.27106e-14)
(0.0373798 -0.0084279 -8.36794e-14)
(0.033805 -0.00691968 -6.33492e-14)
(0.0304973 -0.00545344 -1.77778e-14)
(0.0273646 -0.00392387 3.8823e-15)
(0.0243578 -0.00263464 -1.09116e-15)
(0.0215588 -0.00179102 -1.03148e-14)
(0.0191421 -0.00111118 4.34551e-15)
(0.0170194 -0.00043852 5.56645e-16)
(0.0151267 4.49146e-05 -1.74204e-16)
(0.0136987 0.000551204 -3.60897e-17)
(0.0125723 0.000804397 -5.90626e-16)
(0.0115576 0.000919191 -1.06237e-15)
(0.0106794 0.00101542 -1.5378e-15)
(0.0099543 0.0011196 1.67036e-15)
(0.00982535 0.0012828 -8.23873e-17)
(0.00958517 0.00141733 1.4504e-14)
(0.00918759 0.00162699 8.75371e-15)
(0.00808165 0.00226365 -1.03642e-13)
(-0.0103781 -0.531268 7.99683e-15)
(-0.056105 -0.523672 -2.41123e-15)
(-0.0970251 -0.450778 2.44123e-16)
(-0.145984 -0.45198 -7.19071e-15)
(-0.178332 -0.427221 1.49171e-15)
(-0.207142 -0.393085 3.51438e-14)
(-0.23568 -0.360451 5.77404e-14)
(-0.252621 -0.322237 5.41011e-14)
(-0.261356 -0.281541 -1.3217e-13)
(-0.26475 -0.242655 -1.10742e-13)
(-0.260183 -0.204517 1.40315e-13)
(-0.250207 -0.168891 2.54839e-13)
(-0.234466 -0.140511 1.35108e-13)
(-0.215839 -0.119611 -4.69555e-13)
(-0.202074 -0.0985998 -1.61511e-13)
(-0.169151 -0.0979198 3.84034e-13)
(-0.146806 -0.0915787 8.39895e-14)
(-0.125106 -0.0888706 -1.24071e-13)
(-0.107288 -0.0904122 -2.28123e-13)
(-0.0999 -0.0969278 1.97872e-13)
(-0.121805 -0.116797 4.36437e-14)
(-0.178641 -0.122142 -2.22747e-13)
(-0.27223 -0.11523 1.65554e-13)
(-0.326112 -0.0773308 -1.1347e-13)
(-0.304287 -0.0298144 -3.73802e-14)
(-0.23662 -0.00092622 3.56261e-14)
(-0.19194 0.00543014 -4.5454e-14)
(-0.196708 0.00636421 1.00328e-14)
(-0.163025 0.00723542 1.37525e-14)
(-0.107979 0.0103998 2.12248e-14)
(0.0183163 -0.00117971 -9.61196e-15)
(0.0705978 -0.00300663 2.54725e-14)
(0.103771 -0.00805859 2.08468e-13)
(0.105834 -0.0101842 5.67677e-14)
(0.0897539 -0.0127701 -7.87415e-14)
(0.079309 -0.0142979 -1.17028e-13)
(0.0758701 -0.0140042 1.76213e-14)
(0.0614131 -0.0134588 -2.94964e-14)
(0.0443851 -0.00502849 4.63637e-14)
(0.0283508 -0.505225 1.8945e-14)
(0.061076 -0.439558 -3.70653e-14)
(0.0869265 -0.352285 -4.22804e-15)
(0.10296 -0.289689 -3.35307e-14)
(0.107439 -0.224686 -2.00154e-14)
(0.100107 -0.158977 7.34272e-14)
(0.0833456 -0.102506 -1.84318e-13)
(0.0789961 -0.086282 1.68788e-13)
(0.0954293 -0.0898323 1.93923e-15)
(0.104357 -0.0822822 -1.20177e-13)
(0.107513 -0.0696339 -7.07179e-14)
(0.104568 -0.0573306 -1.98686e-14)
(0.0984808 -0.0465422 5.90401e-14)
(0.0916045 -0.0368444 1.2918e-13)
(0.0839987 -0.0285253 2.11606e-14)
(0.075748 -0.0219952 -4.71882e-14)
(0.0679936 -0.0170572 2.20933e-14)
(0.0610453 -0.0132371 4.97643e-14)
(0.0548172 -0.0102724 -3.66585e-15)
(0.04921 -0.00798632 -7.73607e-15)
(0.0442919 -0.00617966 -2.13101e-14)
(0.0399254 -0.00472506 5.24126e-14)
(0.0359762 -0.00349388 3.06691e-14)
(0.0322782 -0.00234216 -1.06975e-14)
(0.0288125 -0.00114111 -1.6684e-14)
(0.0255904 -8.97652e-05 -6.88657e-15)
(0.022619 0.0006289 1.23838e-14)
(0.0199936 0.00116155 -8.70977e-16)
(0.0176273 0.00151722 -4.93883e-16)
(0.0155109 0.00161813 1.90321e-16)
(0.0137785 0.00143671 -6.38686e-17)
(0.0124956 0.00126206 -4.83147e-17)
(0.011385 0.00108637 3.25198e-16)
(0.0103976 0.000872395 6.2588e-16)
(0.0097748 0.00144573 -2.99691e-15)
(0.00876773 0.000207418 7.64674e-15)
(0.00908515 0.0033923 -1.295e-14)
(0.00839054 0.00111974 -2.98237e-14)
(0.00821949 0.00258104 -3.25636e-16)
(0.00983572 -0.444186 -4.06123e-15)
(-0.022743 -0.437933 4.91021e-15)
(-0.0535901 -0.381852 -1.09853e-16)
(-0.0903959 -0.388721 -3.89782e-15)
(-0.114641 -0.37256 -2.79296e-14)
(-0.136822 -0.348155 3.40642e-14)
(-0.159827 -0.32796 1.21034e-14)
(-0.173807 -0.301809 -6.90578e-14)
(-0.182338 -0.272323 -5.7705e-14)
(-0.18673 -0.243762 -1.20361e-13)
(-0.184697 -0.214678 1.7433e-14)
(-0.178308 -0.186715 -1.31615e-13)
(-0.168076 -0.161488 8.00848e-15)
(-0.156381 -0.138524 3.52203e-13)
(-0.142977 -0.118837 -2.32795e-13)
(-0.13356 -0.0951668 -1.66985e-13)
(-0.128541 -0.0742603 1.01067e-13)
(-0.122695 -0.0608441 -1.31338e-13)
(-0.116003 -0.0529162 8.47922e-14)
(-0.110105 -0.0495816 -1.44066e-13)
(-0.107491 -0.049905 -1.61059e-13)
(-0.114689 -0.0499546 1.82641e-13)
(-0.137035 -0.0415936 -4.04303e-14)
(-0.16163 -0.0218572 8.94154e-14)
(-0.167769 -0.000942605 5.65792e-14)
(-0.161237 0.0132424 6.2171e-15)
(-0.140277 0.0155814 1.08388e-13)
(-0.109757 0.00697294 -2.10683e-14)
(-0.117786 -0.000349109 2.2464e-14)
(-0.130781 0.00673611 -5.5605e-14)
(-0.124081 0.0118573 -1.55191e-13)
(-0.10414 0.00548747 5.03048e-16)
(0.00895169 -0.00718863 1.39883e-13)
(-0.000929461 0.00324338 -3.24548e-14)
(0.0695055 -0.00853127 -1.06761e-13)
(0.0891461 -0.0134367 1.19636e-13)
(0.0786144 -0.0143492 -4.10343e-14)
(0.0685277 -0.0155149 -1.7407e-14)
(0.0613906 -0.00494326 -3.42615e-16)
(0.0375886 -0.422171 2.03874e-14)
(0.0589055 -0.370975 1.44934e-14)
(0.076097 -0.300342 -3.2012e-14)
(0.0882078 -0.251558 7.89676e-14)
(0.0927912 -0.199949 1.86815e-13)
(0.0884154 -0.147515 -6.70125e-14)
(0.0820255 -0.110603 -7.28282e-14)
(0.0850609 -0.0989571 1.4821e-13)
(0.0982844 -0.0960351 1.27827e-13)
(0.105092 -0.0862723 3.50498e-14)
(0.107027 -0.0740284 -5.15408e-14)
(0.104546 -0.0619915 5.8892e-14)
(0.0988526 -0.0511507 4.55698e-14)
(0.091984 -0.0416312 -3.77596e-15)
(0.0845634 -0.0334992 -9.35705e-14)
(0.0765388 -0.0268533 3.84756e-15)
(0.0688647 -0.0216904 3.69293e-15)
(0.0618123 -0.017616 2.06397e-16)
(0.0554664 -0.0143611 1.50808e-14)
(0.0497185 -0.0117531 -5.44631e-15)
(0.044647 -0.00963161 1.2227e-14)
(0.040134 -0.00785235 -2.65427e-14)
(0.0360323 -0.00629216 -1.52256e-14)
(0.0321742 -0.00482406 1.53368e-14)
(0.0285952 -0.0033956 2.06973e-14)
(0.0253318 -0.00215669 1.22447e-15)
(0.0223502 -0.00124905 -1.2025e-15)
(0.0197127 -0.000586895 -3.18646e-15)
(0.0173446 -0.000108948 6.33798e-16)
(0.0152223 0.000134354 -9.47429e-17)
(0.013407 0.000235838 -4.61495e-16)
(0.012033 0.000474988 -1.81426e-17)
(0.0109064 0.000695349 -1.30498e-16)
(0.00997162 0.00106694 -2.78176e-16)
(0.00908361 0.000407052 -9.0193e-16)
(0.00868664 0.00231107 -6.79759e-16)
(0.00795896 -0.00131076 1.02633e-14)
(0.00766334 0.00184684 -1.09255e-14)
(0.00796459 0.00236161 5.65349e-15)
(-0.0022334 -0.371891 1.92615e-15)
(-0.0309892 -0.366547 5.46855e-16)
(-0.0561834 -0.322712 3.20207e-15)
(-0.0890089 -0.329184 -2.40492e-15)
(-0.110682 -0.315858 -1.10421e-15)
(-0.131012 -0.295845 1.58093e-14)
(-0.152644 -0.279312 7.50022e-15)
(-0.166281 -0.256992 4.00237e-14)
(-0.175813 -0.232046 6.71235e-14)
(-0.181983 -0.207128 -3.17382e-14)
(-0.182166 -0.181031 -7.80314e-15)
(-0.178495 -0.155373 7.45757e-14)
(-0.171539 -0.131608 -1.44439e-13)
(-0.161609 -0.110336 -2.87451e-13)
(-0.150277 -0.0916428 1.74177e-13)
(-0.139199 -0.0742306 2.6704e-13)
(-0.12355 -0.0695673 -3.54109e-13)
(-0.113436 -0.0667379 6.03363e-14)
(-0.104632 -0.0672357 1.1171e-13)
(-0.098623 -0.0698546 -1.12291e-13)
(-0.0978459 -0.0730692 8.50714e-14)
(-0.102544 -0.0716228 -8.67101e-14)
(-0.109271 -0.0579145 -1.692e-13)
(-0.111053 -0.0324677 -5.01122e-14)
(-0.102913 -0.0077838 -1.15871e-13)
(-0.088863 0.00653993 5.60429e-14)
(-0.07204 0.00919135 -1.61454e-14)
(-0.0602863 0.00564866 -1.0871e-14)
(-0.0606175 0.00339058 2.12987e-14)
(-0.0468483 0.000626217 4.24543e-14)
(-0.0953444 0.0072451 3.28624e-14)
(-0.0854088 0.0122086 -4.50874e-14)
(-0.113637 0.00628931 -1.16134e-13)
(-0.112136 0.00414188 -1.48477e-13)
(-0.0609414 0.00671646 3.28048e-14)
(0.00346511 -0.00238843 7.49991e-14)
(0.0524527 -0.009628 8.68332e-14)
(0.070654 -0.015262 4.04048e-14)
(0.0667754 -0.00460361 2.94936e-14)
(0.0229241 -0.354055 8.65631e-15)
(0.0433025 -0.314575 -2.08353e-14)
(0.0601948 -0.258439 1.05501e-14)
(0.0726579 -0.219829 -6.30929e-15)
(0.0784376 -0.178298 5.10306e-15)
(0.0774477 -0.135698 -7.87507e-14)
(0.0775017 -0.111597 -2.95855e-14)
(0.085834 -0.104425 -3.41498e-14)
(0.0970007 -0.0986862 2.76334e-14)
(0.102599 -0.0881322 1.3552e-13)
(0.104192 -0.0761 -3.02262e-14)
(0.102354 -0.0642477 -5.88968e-14)
(0.0975459 -0.0532163 2.74954e-15)
(0.0913528 -0.0434469 -5.13055e-14)
(0.0845184 -0.0350419 1.68472e-14)
(0.0770597 -0.0279531 2.53666e-14)
(0.0697481 -0.02224 3.92712e-14)
(0.0628748 -0.0176418 1.49713e-14)
(0.0565901 -0.0139394 -1.76464e-14)
(0.0508409 -0.0109735 2.25658e-14)
(0.0456917 -0.00860028 2.50192e-14)
(0.0410519 -0.00666401 1.8134e-14)
(0.0367853 -0.00503977 3.76713e-15)
(0.0327456 -0.00359967 -1.42788e-14)
(0.0290033 -0.0022649 1.16739e-14)
(0.0256405 -0.00111338 3.25523e-15)
(0.0225934 -0.000254449 -1.12025e-14)
(0.0198944 0.000376716 1.202e-15)
(0.017478 0.000848765 -1.06921e-16)
(0.0153175 0.00110233 1.91688e-16)
(0.0134719 0.00123155 5.93421e-16)
(0.012024 0.0012595 -1.37525e-16)
(0.0109148 0.00121964 -1.14263e-16)
(0.00997955 0.00112207 5.73797e-16)
(0.00905739 0.00142672 1.33501e-15)
(0.00857747 0.00122929 -1.17867e-14)
(0.00753594 0.00220278 3.48873e-15)
(0.00768997 0.00113234 4.40908e-14)
(0.00812005 0.001698 3.11447e-14)
(-0.000654798 -0.317122 3.11005e-15)
(-0.0239257 -0.313469 6.00061e-16)
(-0.0445211 -0.279202 -1.22632e-15)
(-0.0717588 -0.286498 3.99274e-15)
(-0.0892325 -0.276687 -8.308e-15)
(-0.106536 -0.261758 -8.38749e-16)
(-0.125267 -0.250622 2.32304e-14)
(-0.1373 -0.233436 -1.0983e-14)
(-0.145836 -0.213492 -3.905e-14)
(-0.151761 -0.193774 2.64248e-14)
(-0.152611 -0.172709 -6.04413e-14)
(-0.150235 -0.151736 -1.49824e-13)
(-0.145045 -0.132158 1.05737e-13)
(-0.137012 -0.114133 3.74814e-13)
(-0.127786 -0.0980032 -1.41309e-14)
(-0.117287 -0.0846406 -3.9922e-13)
(-0.107611 -0.0715154 3.30738e-13)
(-0.102633 -0.0620112 2.32342e-13)
(-0.09907 -0.0566128 1.2436e-13)
(-0.0972004 -0.054189 5.8645e-14)
(-0.0990623 -0.0540353 -2.89001e-14)
(-0.105202 -0.0526949 1.61832e-13)
(-0.112503 -0.0441507 1.12056e-13)
(-0.11235 -0.0261177 -1.02462e-14)
(-0.0994211 -0.00632674 2.13652e-13)
(-0.0791347 0.00595891 -6.5456e-14)
(-0.0612618 0.00868615 -7.61864e-15)
(-0.0500053 0.00625807 5.66223e-15)
(-0.0439517 0.00460174 -2.00754e-14)
(-0.0417979 0.00447699 -2.07368e-14)
(-0.0406166 0.00435136 -1.5251e-14)
(-0.047918 0.00487744 4.7779e-14)
(-0.0963468 0.0163094 -2.25765e-14)
(-0.0390385 -0.000770157 -1.27733e-13)
(-0.0778637 0.00604177 -2.06358e-14)
(-0.0820966 0.0070171 -1.03409e-13)
(-0.03205 0.00138252 -5.97592e-14)
(0.0334026 -0.00937174 6.63167e-15)
(0.0649374 -0.00447853 -2.65299e-14)
(0.0198161 -0.30189 -9.70051e-15)
(0.0366244 -0.270308 1.22129e-14)
(0.0508367 -0.224535 -2.60916e-14)
(0.0618825 -0.193247 -3.97091e-15)
(0.0675865 -0.159163 7.25494e-15)
(0.068254 -0.123504 1.1553e-14)
(0.0718476 -0.106884 8.01812e-14)
(0.0830175 -0.104839 -1.01613e-13)
(0.0929002 -0.0979594 -3.29497e-14)
(0.0982686 -0.0875844 -3.08792e-14)
(0.100008 -0.0763189 1.17096e-13)
(0.0987205 -0.0651798 -4.61753e-14)
(0.0947607 -0.0546119 -4.86311e-15)
(0.0893988 -0.0451648 1.83964e-14)
(0.0832511 -0.0369754 1.77787e-14)
(0.0763853 -0.0299285 1.21578e-14)
(0.0695306 -0.0241241 -7.64901e-14)
(0.0629275 -0.0193881 -2.80682e-14)
(0.0567736 -0.0155381 3.56645e-14)
(0.0510796 -0.0124164 1.45932e-15)
(0.0459253 -0.00990077 3.6182e-14)
(0.0412178 -0.00784066 -1.02838e-14)
(0.0368542 -0.00610854 1.47882e-15)
(0.0327079 -0.00458704 2.4054e-14)
(0.0288867 -0.00321607 -2.01593e-14)
(0.0254859 -0.00204091 -6.91605e-15)
(0.0224249 -0.00112647 6.48122e-15)
(0.0197133 -0.000426015 2.15388e-15)
(0.0172923 0.000110785 -3.70618e-18)
(0.0151368 0.000431766 -2.40848e-16)
(0.0132883 0.000576847 5.87583e-16)
(0.0117865 0.000701424 8.02763e-17)
(0.0107009 0.000775347 -9.65584e-16)
(0.00977517 0.000833539 6.24169e-17)
(0.00897295 0.000902477 -3.07731e-15)
(0.00822006 0.000822919 7.19313e-15)
(0.00783664 0.00104792 -1.58738e-15)
(0.00748836 0.00133673 -2.32529e-15)
(0.00752557 0.0023466 -4.24924e-14)
(-0.0027608 -0.272217 1.41776e-15)
(-0.0230301 -0.270422 1.56132e-15)
(-0.0404176 -0.243057 -9.07554e-16)
(-0.0641965 -0.249669 -1.97262e-15)
(-0.0815042 -0.24194 -3.65401e-15)
(-0.0947111 -0.229707 1.60888e-14)
(-0.110703 -0.220887 1.35121e-14)
(-0.122322 -0.206709 -5.13091e-14)
(-0.13115 -0.190055 2.15668e-14)
(-0.137773 -0.173081 1.10231e-13)
(-0.139563 -0.15443 4.60302e-14)
(-0.138563 -0.135767 2.1433e-14)
(-0.135057 -0.118049 -1.86802e-13)
(-0.128912 -0.101376 -4.27323e-13)
(-0.121307 -0.0863186 -3.02273e-13)
(-0.112621 -0.0730524 1.19365e-13)
(-0.10364 -0.0612412 -7.34032e-14)
(-0.0964616 -0.0561968 -3.7559e-13)
(-0.0925276 -0.0543502 -1.94404e-13)
(-0.0903456 -0.0542439 1.60357e-13)
(-0.0915073 -0.0544158 1.60709e-13)
(-0.096528 -0.0522388 -9.37199e-14)
(-0.103658 -0.0437843 -3.81205e-14)
(-0.106116 -0.027701 2.02111e-15)
(-0.0976201 -0.00979513 -6.08053e-14)
(-0.081074 0.00220647 6.30816e-14)
(-0.0645721 0.00587728 7.19122e-15)
(-0.0528669 0.00476059 4.30562e-15)
(-0.0454422 0.00385689 -4.40344e-15)
(-0.0392814 0.00374082 5.2028e-14)
(-0.0342606 0.00352482 3.48563e-14)
(-0.0304979 0.0032578 -3.50757e-15)
(-0.0251553 0.0017827 1.13048e-13)
(-0.0262463 0.00108649 7.80952e-14)
(-0.0368246 0.00200058 -4.05739e-14)
(-0.0611927 0.00384299 7.06559e-14)
(-0.0800681 0.00637617 5.91408e-14)
(-0.038124 -0.00256717 -3.59528e-14)
(0.0378272 -0.00142669 -2.89344e-14)
(0.0151264 -0.259385 7.41881e-15)
(0.0299016 -0.233806 -1.20652e-14)
(0.0426112 -0.196438 3.1663e-15)
(0.052846 -0.170737 6.13937e-14)
(0.0587723 -0.142008 3.27033e-15)
(0.0617369 -0.116631 1.01487e-13)
(0.0684287 -0.106122 1.36651e-13)
(0.079731 -0.101587 -5.23733e-14)
(0.0874993 -0.0948923 -7.25183e-14)
(0.0925611 -0.0853281 -5.52456e-14)
(0.0947325 -0.0751065 -1.01806e-13)
(0.0941126 -0.0648753 -5.36708e-15)
(0.0910012 -0.0549597 -4.28763e-14)
(0.0865459 -0.0459604 5.78298e-14)
(0.0811933 -0.0380213 1.9363e-14)
(0.0750371 -0.0310343 -3.06806e-14)
(0.0687583 -0.0251358 -3.3757e-15)
(0.0625503 -0.0202182 -2.53297e-14)
(0.0566488 -0.0161483 2.80449e-15)
(0.0511076 -0.0127965 -1.76466e-14)
(0.0460291 -0.010065 -3.32143e-14)
(0.0413314 -0.00782594 1.47095e-14)
(0.0369283 -0.00596382 -2.74442e-14)
(0.0327161 -0.00437164 -1.00021e-14)
(0.0288453 -0.00298694 6.21589e-15)
(0.0254115 -0.00181675 3.92028e-15)
(0.0223314 -0.000889529 1.53793e-15)
(0.0196033 -0.000164509 -1.01753e-15)
(0.0171717 0.00039873 -4.2568e-16)
(0.0150131 0.00075286 -7.76563e-17)
(0.0131561 0.000951515 -9.54136e-16)
(0.0115897 0.0010631 4.96066e-16)
(0.0105273 0.00112867 2.82384e-15)
(0.0096333 0.00112965 3.6066e-17)
(0.00886893 0.00113149 2.45194e-15)
(0.0082237 0.00116867 -3.42981e-15)
(0.00780999 0.00129912 -6.37697e-15)
(0.00740838 0.00137649 3.7337e-15)
(0.00720428 0.0024321 -2.27195e-14)
(-0.00323926 -0.23558 2.43516e-15)
(-0.0204474 -0.242571 4.086e-15)
(-0.0353781 -0.213688 -1.67971e-16)
(-0.0557861 -0.219271 -2.04885e-16)
(-0.072817 -0.217339 -2.658e-15)
(-0.0846373 -0.203456 -6.48108e-15)
(-0.0997458 -0.196781 -4.76762e-15)
(-0.106689 -0.185357 -5.17007e-14)
(-0.113684 -0.17152 -9.54993e-16)
(-0.120402 -0.157987 1.89665e-14)
(-0.123006 -0.142444 -2.30845e-14)
(-0.122855 -0.126623 1.40263e-13)
(-0.120426 -0.111512 1.48033e-13)
(-0.11553 -0.0970817 2.69941e-14)
(-0.109224 -0.0839344 2.75409e-13)
(-0.101899 -0.0722924 -5.7337e-14)
(-0.0938792 -0.0626552 -6.81597e-16)
(-0.0876333 -0.0546457 2.1373e-13)
(-0.0855706 -0.0507833 9.97525e-14)
(-0.0847862 -0.0486304 -2.95496e-14)
(-0.0863699 -0.0469554 -1.21584e-13)
(-0.0903633 -0.0440194 -1.13051e-14)
(-0.0955385 -0.0368699 -9.3403e-14)
(-0.0974314 -0.0240878 -8.06339e-14)
(-0.0911562 -0.00946883 4.86648e-14)
(-0.0781441 0.000949728 -3.09546e-14)
(-0.0644062 0.00474894 -5.62874e-14)
(-0.0543194 0.00434837 6.42213e-15)
(-0.0479691 0.00371903 -3.10781e-15)
(-0.0429302 0.00374683 -3.85468e-15)
(-0.0377225 0.00365966 8.18894e-14)
(-0.0328449 0.00325703 -2.93373e-14)
(-0.0293972 0.00294477 -3.91642e-14)
(-0.0248765 0.00207187 2.27009e-13)
(-0.0215813 0.00107842 3.71904e-14)
(-0.026597 0.000704291 -8.30841e-14)
(-0.0544772 0.00226972 -1.6016e-14)
(-0.0709065 -0.0044955 2.64518e-14)
(-0.00653833 0.00969465 -4.74242e-15)
(0.0121364 -0.224662 -1.3206e-14)
(0.0249854 -0.203735 -3.11975e-14)
(0.0361693 -0.172783 5.08801e-14)
(0.0456423 -0.151168 9.75513e-14)
(0.0513483 -0.127037 6.43999e-14)
(0.0560384 -0.109326 -1.65914e-13)
(0.0630533 -0.102422 -1.13489e-13)
(0.074967 -0.0988255 -3.87313e-14)
(0.0825779 -0.0905924 7.02361e-14)
(0.0864672 -0.0817848 7.28378e-14)
(0.0888453 -0.0727012 2.69992e-14)
(0.0888693 -0.0635409 2.44514e-14)
(0.0865954 -0.0544913 -2.66077e-14)
(0.0830341 -0.0461427 -8.72026e-14)
(0.0784723 -0.0386227 1.33106e-14)
(0.0730525 -0.0318758 2.69857e-14)
(0.0673958 -0.0260654 1.83794e-14)
(0.0616259 -0.0211255 5.09085e-14)
(0.056041 -0.0169848 -2.83569e-14)
(0.0507125 -0.0135357 -2.11795e-14)
(0.0457583 -0.0106957 -1.51958e-14)
(0.0411153 -0.0083503 -3.15985e-15)
(0.0367207 -0.00639837 2.44741e-14)
(0.0324947 -0.00474441 1.63228e-14)
(0.0286154 -0.00334118 1.8927e-14)
(0.0251798 -0.0021757 6.40222e-15)
(0.0221041 -0.00124404 2.01506e-17)
(0.0193789 -0.000505375 2.18109e-15)
(0.016956 7.70309e-05 -3.05007e-16)
(0.0148113 0.000464949 2.91446e-16)
(0.0129622 0.000690519 -3.67154e-16)
(0.0113723 0.000831521 2.89134e-17)
(0.0103183 0.000920762 -1.6503e-15)
(0.00945583 0.000943222 4.55205e-16)
(0.00872035 0.000963229 4.432e-15)
(0.00809866 0.00101204 -1.05759e-15)
(0.00774991 0.00112741 8.9064e-16)
(0.00735283 0.00121763 -8.14272e-15)
(0.00762026 0.00185933 7.9924e-15)
(-0.00409518 -0.205079 -2.97013e-15)
(-0.0190586 -0.211104 1.71229e-16)
(-0.0318221 -0.194279 -1.73585e-15)
(-0.0494856 -0.192525 -1.52056e-15)
(-0.0616517 -0.186708 8.72287e-15)
(-0.0777837 -0.185541 -2.96453e-15)
(-0.0910032 -0.176876 2.88153e-14)
(-0.0982841 -0.165346 2.00868e-14)
(-0.105396 -0.153762 5.18274e-15)
(-0.107688 -0.142648 -1.67666e-15)
(-0.110226 -0.129501 7.17886e-15)
(-0.11108 -0.115783 -3.13045e-14)
(-0.109741 -0.102424 -1.36137e-13)
(-0.106041 -0.0894711 3.62104e-14)
(-0.101045 -0.0775288 1.86821e-14)
(-0.0949243 -0.0668144 5.22297e-14)
(-0.0882228 -0.0574224 -4.81858e-16)
(-0.0816932 -0.0498381 -9.36205e-14)
(-0.079861 -0.0462532 -1.38536e-13)
(-0.0793763 -0.0446023 -1.19185e-13)
(-0.080763 -0.0429988 -6.95151e-14)
(-0.0839445 -0.0399988 -5.62312e-14)
(-0.0878301 -0.0334689 1.91786e-14)
(-0.089113 -0.0224603 6.69805e-14)
(-0.083934 -0.00980912 -3.60347e-14)
(-0.0731925 -0.000331534 -1.36968e-14)
(-0.0615192 0.00371091 4.43103e-14)
(-0.0526028 0.00395916 2.09562e-15)
(-0.0469163 0.00361923 2.44641e-14)
(-0.0426967 0.0037139 -3.04655e-14)
(-0.0386398 0.00373317 -1.00911e-13)
(-0.0348338 0.00344563 -5.49601e-14)
(-0.0315883 0.00307759 3.47932e-14)
(-0.0282912 0.00242898 -1.52091e-14)
(-0.024536 0.00145577 2.05257e-14)
(-0.0197437 0.000532488 3.07216e-14)
(-0.0240351 0.000572357 5.44852e-15)
(-0.0817322 0.00681448 -1.67919e-14)
(-0.047618 0.0149687 4.37175e-14)
(0.00937241 -0.195726 -2.41518e-14)
(0.0207396 -0.17837 1.51403e-14)
(0.0308006 -0.152505 4.43046e-14)
(0.0393396 -0.134357 1.415e-14)
(0.0448744 -0.113848 1.02931e-13)
(0.050719 -0.101577 1.88635e-14)
(0.0600124 -0.0974088 -3.4804e-15)
(0.0675702 -0.0935723 -9.34162e-14)
(0.0765179 -0.0872301 -3.85401e-14)
(0.0807915 -0.0779343 5.67591e-14)
(0.0829606 -0.0695777 6.4182e-14)
(0.0833696 -0.061433 1.04559e-13)
(0.0817823 -0.0533048 9.96435e-14)
(0.0790391 -0.0456998 -2.09711e-14)
(0.0752757 -0.0387091 -8.1347e-15)
(0.0705766 -0.032284 1.57772e-14)
(0.0655607 -0.0266387 3.46707e-15)
(0.0602931 -0.0217369 1.12065e-14)
(0.0550767 -0.0175615 3.07982e-14)
(0.0500147 -0.0140343 2.65149e-17)
(0.0452399 -0.0110907 -1.25898e-14)
(0.0407049 -0.00862987 -5.76191e-15)
(0.0363714 -0.00656979 2.66132e-15)
(0.0321765 -0.00483584 1.14035e-15)
(0.0283287 -0.00339441 -3.92135e-15)
(0.0249138 -0.00222059 -8.82722e-15)
(0.0218547 -0.00128282 5.57723e-16)
(0.0191401 -0.00053498 -1.39789e-15)
(0.0167301 6.23425e-05 4.47763e-16)
(0.0146011 0.000480587 6.58747e-17)
(0.0127616 0.000744439 2.08759e-16)
(0.0111751 0.000917589 1.68547e-15)
(0.0101021 0.0010224 2.43566e-15)
(0.00926559 0.00104849 -1.84701e-15)
(0.00855623 0.00105928 -6.27055e-15)
(0.00796008 0.00108868 -4.26032e-16)
(0.00766129 0.00117053 -2.28232e-14)
(0.007241 0.0012221 7.29341e-16)
(0.00751287 0.00177281 1.68351e-14)
(-0.00468769 -0.179346 -6.02683e-15)
(-0.0177059 -0.184732 -2.52092e-15)
(-0.0287394 -0.170247 6.94143e-16)
(-0.0439928 -0.169781 -1.21218e-15)
(-0.0547167 -0.165096 5.25007e-15)
(-0.0650368 -0.158019 6.60896e-15)
(-0.0765599 -0.154074 -3.41369e-15)
(-0.0928858 -0.152622 -2.48412e-14)
(-0.0962607 -0.139425 -4.99675e-14)
(-0.102246 -0.129601 2.83619e-14)
(-0.0999969 -0.118428 2.50949e-14)
(-0.100335 -0.106651 1.48595e-14)
(-0.0995046 -0.0950631 6.1849e-14)
(-0.0966158 -0.0836803 4.07432e-15)
(-0.0925359 -0.073099 3.32176e-14)
(-0.0874185 -0.0634612 -5.06983e-14)
(-0.0816839 -0.0549764 -5.4687e-14)
(-0.0758539 -0.047769 6.39494e-14)
(-0.0737759 -0.0432587 1.26461e-13)
(-0.073892 -0.0409022 6.40903e-14)
(-0.0753603 -0.0387169 4.55124e-14)
(-0.0780698 -0.0354602 3.33196e-14)
(-0.0810636 -0.0296292 6.28782e-14)
(-0.0819292 -0.0204342 -3.59006e-14)
(-0.0775856 -0.00976103 -5.66023e-14)
(-0.0685559 -0.0013376 3.53037e-15)
(-0.0584223 0.00274257 -1.9758e-14)
(-0.0502614 0.00348038 -6.73501e-15)
(-0.0447799 0.00338714 -4.1754e-14)
(-0.0407598 0.0035306 2.23463e-14)
(-0.0371513 0.00357717 5.67923e-14)
(-0.0340033 0.00332171 1.25031e-13)
(-0.0315281 0.00300669 1.23988e-14)
(-0.0296295 0.00255227 -1.15849e-13)
(-0.0277916 0.00172055 2.14418e-15)
(-0.025526 0.00101868 -2.03891e-14)
(-0.0182878 0.000511387 2.08112e-14)
(-0.0500038 0.00530654 1.51286e-14)
(-0.0513179 0.011019 7.74813e-15)
(0.00715929 -0.17128 9.72479e-15)
(0.0172657 -0.156806 2.39075e-14)
(0.0263322 -0.135153 -3.82337e-14)
(0.0340071 -0.119632 -2.84978e-14)
(0.0393482 -0.101933 -1.85159e-14)
(0.0455484 -0.0935182 1.01568e-14)