/*--------------------------------*- C++ -*----------------------------------*\
| =========                 |                                                 |
| \\      /  F ield         | OpenFOAM: The Open Source CFD Toolbox           |
|  \\    /   O peration     | Version:  2506                                  |
|   \\  /    A nd           | Website:  www.openfoam.com                      |
|    \\/     M anipulation  |                                                 |
\*---------------------------------------------------------------------------*/
FoamFile
{
    version     2.0;
    format      ascii;
    arch        "LSB;label=32;scalar=64";
    class       volScalarField;
    location    "200";
    object      p;
}
// * * * * * * * * * * * * * * * * * * * * * * * * * * * * * * * * * * * * * //

dimensions      [0 2 -2 0 0 0 0];

internalField   nonuniform List<scalar> 
10720
(
-57.7075
-128.695
-212.198
-294.596
-370.859
-448.583
-517.642
-575.731
-626.268
-665.914
-696.228
-718.629
-734.229
-743.821
-747.568
-744.834
-736.514
-721.551
-701.333
-675.818
-648.185
-621.217
-597.769
-570.44
-530.345
-479.754
-428.051
-382.883
-343.884
-307.222
-270.987
-235.048
-199.445
-163.832
-127.802
-90.3319
-51.8308
-7.17672
26.9299
13.2584
77.9171
146.699
210.819
265.513
306.76
330.778
338.592
335.817
322.485
301.246
277.602
253.98
231.159
209.788
189.704
170.95
153.091
135.857
118.751
101.723
84.4603
67.0573
49.9274
34.9464
23.1561
13.49
5.66098
-0.147477
-3.97306
-6.06563
-6.57088
-5.5708
-3.07074
0.93891
6.81649
15.1432
29.1837
53.0635
46.0724
-7.85312
-68.2978
-132.537
-198.594
-266.243
-331.95
-393.637
-450.613
-501.123
-544.93
-582.038
-612.381
-635.946
-652.566
-661.905
-664.712
-660.86
-651.361
-636.682
-619.299
-601.413
-584.342
-561.571
-525.08
-476.7
-426.31
-381.712
-342.921
-306.359
-270.174
-234.283
-198.756
-163.24
-127.321
-89.9527
-51.5352
-6.87024
26.6226
94.5762
140.784
186.827
231.174
270.184
301.229
321.163
329.459
327.676
316.677
299.317
279.014
257.671
236.237
215.423
195.46
176.467
158.259
140.635
123.266
106.048
88.7756
71.5314
54.7421
39.8859
27.892
18.072
10.0087
3.66701
-0.851931
-3.56266
-4.55927
-3.94496
-1.75152
2.02074
7.72095
15.9144
29.8764
52.8155
59.591
11.1467
-43.4288
-103.702
-166.239
-230.385
-294.569
-356.143
-413.528
-465.719
-511.463
-550.229
-581.687
-605.985
-623.378
-634.257
-638.681
-636.687
-628.887
-615.935
-599.57
-581.696
-563.577
-541.233
-508.154
-464.587
-418.348
-376.271
-338.913
-303.39
-268.06
-232.829
-197.743
-162.496
-126.754
-89.5215
-51.2124
-6.62592
26.7331
103.284
145.687
187.815
227.65
262.001
289.236
307.262
315.844
315.701
307.504
293.372
275.636
256.053
235.787
215.651
196.069
177.233
159.101
141.529
124.27
107.189
90.144
73.1988
56.737
41.9254
29.6697
19.5949
11.3439
4.90327
0.360716
-2.34991
-3.38573
-2.86403
-0.797717
2.84503
8.43111
16.5356
30.362
52.4115
81.602
40.977
-5.44663
-56.5182
-110.166
-166.326
-223.337
-279.443
-333.325
-383.826
-429.825
-470.595
-505.655
-534.846
-558.041
-575.378
-586.398
-591.05
-589.616
-582.653
-571.36
-557.197
-541.068
-520.454
-490.685
-451.634
-409.296
-369.621
-333.658
-299.224
-264.865
-230.451
-196.033
-161.325
-125.982
-89.0304
-50.9103
-6.53187
26.909
117.977
152.883
187.86
221.561
251.005
274.916
291.511
300.34
301.638
295.898
284.721
269.845
252.719
234.433
215.776
197.228
179.054
161.333
144.009
126.933
110.002
93.141
76.4212
60.2027
45.448
33.009
22.7155
14.2419
7.54457
2.68533
-0.394149
-1.79676
-1.59791
0.208754
3.65899
9.10886
17.114
30.7657
51.9591
87.4497
51.2819
9.75641
-36.254
-84.7168
-136.046
-188.868
-241.58
-293.176
-342.498
-388.403
-430.082
-466.851
-498.208
-523.843
-543.47
-556.804
-563.848
-564.812
-560.272
-551.176
-538.75
-523.695
-504.236
-476.777
-440.923
-401.389
-363.463
-328.53
-294.945
-261.401
-227.726
-193.953
-159.804
-124.944
-88.4126
-50.6111
-6.57702
26.9297
119.913
150.897
182.032
212.031
238.264
259.847
275.415
284.406
286.844
283.173
274.545
262.272
247.49
231.154
214.013
196.572
179.161
161.955
144.984
128.188
111.509
94.9166
78.4946
62.5751
47.9526
35.4019
24.9131
16.2271
9.30497
4.21496
0.928803
-0.638474
-0.568248
1.13004
4.48547
9.8479
17.7601
31.2004
51.4972
90.9601
58.9333
21.9714
-18.951
-62.0647
-108.07
-155.69
-203.648
-251.209
-297.317
-341.006
-381.507
-418.082
-450.128
-477.215
-498.965
-515.249
-525.863
-530.798
-530.378
-525.227
-516.196
-503.731
-486.556
-461.949
-429.465
-392.917
-357.008
-323.333
-290.696
-257.963
-224.984
-191.818
-158.212
-123.833
-87.7465
-50.3405
-6.79119
26.7604
119.71
147.049
174.721
201.581
225.199
244.923
259.647
268.704
272.003
269.976
263.466
253.489
240.934
226.595
211.145
195.063
178.695
162.269
145.881
129.545
113.251
97.0119
80.9288
65.3172
50.8539
38.2433
27.5965
18.7321
11.6159
6.31257
2.80646
1.01444
0.860193
2.34147
5.50136
10.6945
18.4503
31.6194
50.995
90.6795
61.7743
28.327
-8.73648
-47.7064
-89.5156
-133.03
-177.132
-221.332
-264.694
-306.379
-345.703
-381.916
-414.367
-442.535
-465.967
-484.257
-497.122
-504.397
-506.329
-503.42
-496.345
-485.454
-469.891
-447.632
-418.18
-384.481
-350.586
-318.194
-286.519
-254.604
-222.311
-189.713
-156.605
-122.704
-87.0975
-50.1592
-7.20927
26.3735
116.654
141.277
166.327
190.747
212.303
230.535
244.535
253.57
257.508
256.769
251.995
243.982
233.43
220.98
207.208
192.539
177.308
161.77
146.07
130.281
114.442
98.608
82.8996
67.6186
53.3517
40.7388
29.9756
20.9561
13.657
8.14201
4.41043
2.39751
2.0389
3.34103
6.35146
11.4182
19.0475
31.9404
50.4177
88.8292
62.5887
32.1627
-1.52258
-36.8443
-74.8586
-114.522
-154.861
-195.557
-235.811
-274.9
-312.252
-347.178
-379.039
-407.275
-431.374
-450.866
-465.503
-475.071
-479.608
-479.388
-474.819
-466.087
-452.571
-432.801
-406.33
-375.446
-343.63
-312.628
-282.012
-251.006
-219.483
-187.524
-154.954
-121.537
-86.4272
-50.0405
-7.80647
25.7199
112.444
134.783
157.638
180.028
199.868
216.864
230.211
239.148
243.558
243.815
240.442
234.081
225.288
214.579
202.43
189.198
175.191
160.662
145.784
130.666
115.391
100.047
84.7735
69.8617
55.8366
43.2819
32.451
23.3102
15.8544
10.1496
6.21107
3.98984
3.42963
4.54076
7.37692
12.2812
19.7389
32.2874
49.8383
85.7959
61.7666
33.8714
3.0129
-29.2427
-64.0158
-100.362
-137.404
-174.964
-212.347
-248.949
-284.309
-317.805
-348.84
-376.863
-401.334
-421.755
-437.752
-449.03
-455.463
-457.192
-454.499
-447.493
-435.738
-418.168
-394.388
-366.144
-336.375
-306.8
-277.282
-247.219
-216.501
-185.219
-153.229
-120.327
-85.7251
-49.9275
-8.48938
24.7933
107.453
127.909
148.94
169.626
188.019
203.966
216.715
225.506
230.247
231.272
229.023
224.035
216.761
207.614
196.98
185.149
172.388
158.929
144.95
130.584
115.946
101.153
86.3582
71.8477
58.1005
45.6539
34.7987
25.5662
17.9741
12.0933
7.95395
5.52414
4.75942
5.67815
8.34083
13.0835
20.3656
32.5517
49.1987
82.1324
60.001
34.2911
5.8841
-23.7105
-55.6407
-89.0285
-123.082
-157.724
-192.343
-226.445
-259.663
-291.445
-321.271
-348.613
-372.929
-393.708
-410.534
-423.096
-431.167
-434.733
-433.914
-428.716
-418.801
-403.4
-382.183
-356.488
-328.773
-300.684
-272.315
-243.234
-213.356
-182.786
-151.411
-119.059
-84.9954
-49.7972
-9.21204
23.6561
102.114
120.963
140.436
159.664
176.814
191.842
204.042
212.649
217.611
219.225
217.875
214.019
208.04
200.27
191.022
180.525
168.995
156.637
143.616
130.076
116.15
101.971
87.709
73.642
60.2168
47.9335
37.1053
27.8191
20.1198
14.0854
9.76107
7.13351
6.16972
6.89458
9.37588
13.9405
21.0209
32.7966
48.5285
78.102
57.6089
33.7919
7.51282
-19.7698
-49.2149
-79.997
-111.397
-143.397
-175.467
-207.205
-238.326
-268.35
-296.823
-323.268
-347.17
-368.019
-385.376
-398.871
-408.208
-413.231
-413.962
-410.348
-402.117
-388.711
-369.86
-346.572
-320.876
-294.301
-267.121
-239.056
-210.054
-180.229
-149.501
-117.734
-84.2448
-49.6497
-9.98863
22.3704
96.6358
114.105
132.23
150.192
166.259
180.471
192.154
200.558
205.654
207.715
207.08
204.156
199.272
192.702
184.701
175.445
165.102
153.841
141.808
129.141
115.98
102.47
88.7857
75.1991
62.1356
50.0644
39.3106
30.007
22.2272
16.0594
11.5636
8.74484
7.58434
8.11443
10.4109
14.7898
21.6539
32.9929
47.8225
73.9039
54.8472
32.6945
8.28623
-16.9665
-44.2158
-72.6814
-101.699
-131.298
-161.013
-190.516
-219.591
-247.823
-274.833
-300.192
-323.42
-344.033
-361.58
-375.662
-385.963
-392.204
-394.316
-392.182
-385.563
-374.046
-357.407
-336.401
-312.685
-287.652
-261.699
-234.687
-206.596
-177.551
-147.504
-116.355
-83.481
-49.5053
-10.8323
20.9543
91.1733
107.437
124.381
141.224
156.339
169.814
181.006
189.197
194.358
196.756
196.69
194.529
190.565
185.031
178.14
170.019
160.798
150.607
139.566
127.801
115.448
102.653
89.5886
76.522
63.8607
52.0505
41.4202
32.1394
24.3106
18.0342
13.385
10.3869
9.03599
9.37164
11.4779
15.6583
22.2849
33.1531
47.0858
69.6656
51.8762
31.1981
8.44752
-15.0099
-40.3098
-66.7105
-93.5901
-121.02
-148.583
-176.003
-203.132
-229.611
-255.121
-279.293
-301.694
-321.865
-339.367
-353.775
-364.762
-371.964
-375.228
-374.399
-369.255
-359.478
-344.882
-326.02
-304.229
-280.748
-256.055
-230.126
-202.981
-174.751
-145.42
-114.923
-82.7029
-49.3826
-11.7422
19.415
85.8133
101.018
116.912
132.758
147.024
159.828
170.556
178.521
183.699
186.344
186.73
185.192
182
177.357
171.44
164.345
156.166
146.999
136.937
126.084
114.563
102.516
90.1076
77.5973
65.3765
53.8719
43.412
34.1942
26.3481
19.9883
15.2043
12.0385
10.5033
10.6454
12.5576
16.5296
22.9014
33.2731
46.3208
65.4707
48.8105
29.4512
8.18125
-13.6748
-37.2322
-61.7839
-86.7401
-112.205
-137.801
-163.291
-188.58
-213.364
-237.375
-260.304
-281.763
-301.324
-318.572
-333.074
-344.499
-352.439
-356.666
-356.988
-353.194
-345.024
-332.315
-315.463
-295.532
-273.601
-250.192
-225.375
-199.206
-171.826
-143.246
-113.437
-81.9079
-49.2863
-12.7167
17.7667
80.6169
94.8763
109.833
124.781
138.282
150.468
160.755
168.491
173.645
176.468
177.211
176.183
173.636
169.753
164.687
158.509
151.286
143.086
133.971
124.021
113.344
102.066
90.3434
78.4213
66.6768
55.5202
45.2764
36.1626
28.3329
21.9172
17.0196
13.7006
11.9895
11.9403
13.6548
17.4076
23.506
33.3566
45.5316
61.3736
45.7292
27.5561
7.61933
-12.8007
-34.7934
-57.6782
-80.9008
-104.583
-128.378
-152.087
-175.653
-198.822
-221.374
-243.041
-263.487
-282.324
-299.162
-313.578
-325.234
-333.711
-338.712
-340.024
-337.436
-330.731
-319.751
-304.771
-286.623
-266.229
-244.118
-220.436
-195.272
-168.775
-140.981
-111.895
-81.0948
-49.2113
-13.7534
16.0201
75.6194
89.0287
103.137
117.273
130.077
141.69
151.56
159.063
164.166
167.109
168.132
167.52
165.512
162.277
157.95
152.588
146.233
138.93
130.717
121.649
111.811
101.315
90.2989
78.9912
67.7543
56.9847
46.9999
38.0307
30.2518
23.8088
18.8199
15.3635
13.4857
13.2486
14.7626
18.2864
24.0944
33.4041
44.7219
57.41
42.6867
25.5883
6.85864
-12.266
-32.8426
-54.2192
-75.8719
-97.9317
-120.08
-142.152
-164.114
-185.752
-206.893
-227.309
-246.706
-264.74
-281.049
-295.23
-306.937
-315.774
-321.383
-323.53
-322.01
-316.626
-307.226
-293.981
-277.532
-258.649
-237.843
-215.315
-191.181
-165.597
-138.625
-110.297
-80.2633
-49.1553
-14.8451
14.1808
70.8407
83.4807
96.8169
110.211
122.376
133.456
142.929
150.198
155.226
158.248
159.488
159.215
157.657
154.972
151.285
146.641
141.069
134.591
127.225
119.005
109.992
100.277
89.9796
79.3074
68.6065
58.2584
48.5725
39.7871
32.0941
25.6534
20.5973
17.0209
14.9876
14.5673
15.8787
19.1643
24.6656
33.418
43.896
53.6038
39.7188
23.5991
5.97065
-11.979
-31.2684
-51.2762
-71.4999
-92.0812
-112.726
-133.289
-153.76
-173.959
-193.749
-212.944
-231.285
-248.466
-264.161
-277.991
-289.608
-298.646
-304.709
-307.546
-306.953
-302.748
-294.78
-283.136
-268.294
-250.884
-231.382
-210.019
-186.936
-162.295
-136.176
-108.643
-79.4133
-49.116
-15.9836
12.256
66.2902
78.2306
90.8595
103.571
115.146
125.727
134.823
141.859
146.795
149.862
151.267
151.268
150.086
147.87
144.735
140.722
135.849
130.123
123.547
116.131
107.918
98.9739
89.3976
79.3744
69.2313
59.3351
49.9847
41.4208
33.8482
27.4401
22.342
18.6646
16.4881
15.8905
16.9982
20.0374
25.2174
33.4003
43.0577
49.9681
36.8502
21.6303
5.0069
-11.868
-29.9849
-48.7419
-67.6635
-86.8927
-106.158
-125.332
-144.423
-163.275
-181.785
-199.799
-217.092
-233.397
-248.417
-261.805
-273.218
-282.32
-288.702
-292.093
-292.293
-289.131
-282.451
-272.274
-258.942
-242.959
-224.748
-204.557
-182.542
-158.869
-133.635
-106.932
-78.5432
-49.093
-17.1602
10.2571
61.9712
73.2702
85.2476
97.3288
108.356
118.469
127.205
134.01
138.842
141.926
143.457
143.68
142.811
140.993
138.334
134.873
130.621
125.576
119.726
113.067
105.619
97.4273
88.5672
79.1994
69.6306
60.2116
51.2288
42.9217
35.5035
29.1587
24.0445
20.2864
17.9803
17.2129
18.1168
20.9025
25.7482
33.3538
42.212
46.5093
34.0983
19.7055
4.00924
-11.8826
-28.9229
-46.5348
-64.2623
-82.2545
-100.253
-118.147
-135.96
-153.558
-170.856
-187.737
-204.007
-219.429
-233.739
-246.618
-257.741
-266.792
-273.371
-277.194
-278.058
-275.804
-270.274
-261.433
-249.513
-234.9
-217.96
-198.94
-178.005
-155.322
-131.004
-105.164
-77.6521
-49.084
-18.3662
8.19617
57.8824
68.5901
79.9647
91.462
101.977
111.649
120.041
126.618
131.338
134.417
136.042
136.443
135.836
134.355
132.107
129.128
125.425
120.993
115.808
109.852
103.128
95.6616
87.504
78.792
69.8089
60.8869
52.2994
44.2813
37.05
30.7985
25.6949
21.8774
19.4566
18.5282
19.2294
21.7561
26.2563
33.2809
41.3635
43.2303
31.4733
17.8455
3.00465
-11.9808
-28.0312
-44.589
-61.2214
-78.0758
-94.9086
-111.622
-128.25
-144.677
-160.838
-176.64
-191.919
-206.467
-220.049
-232.375
-243.14
-252.044
-258.719
-262.859
-264.268
-262.796
-258.284
-250.654
-240.043
-226.736
-211.038
-193.181
-173.333
-151.66
-128.285
-103.34
-76.738
-49.0864
-19.593
6.08612
54.0193
64.1798
74.9945
85.9477
95.9824
105.237
113.301
119.655
124.255
127.313
129.005
129.551
129.16
127.968
126.072
123.513
120.296
116.41
111.828
106.522
100.478
93.7036
86.229
78.1658
69.7724
61.3618
53.1927
45.4922
38.4782
32.3497
27.2833
23.4285
20.9091
19.8298
20.3307
22.5944
26.7404
33.1845
40.5167
40.1301
28.9805
16.0634
2.01611
-12.1323
-27.2679
-42.854
-58.4765
-74.2828
-90.041
-105.665
-121.196
-136.534
-151.63
-166.407
-180.733
-194.427
-207.274
-219.017
-229.374
-238.058
-244.738
-249.096
-250.941
-250.134
-246.514
-239.972
-230.567
-218.498
-204.004
-187.296
-168.537
-147.888
-125.478
-101.459
-75.7989
-49.0955
-20.8312
3.94116
50.3765
60.0276
70.3199
80.7641
90.3473
99.2072
106.957
113.093
117.57
120.593
122.331
122.993
122.782
121.834
120.243
118.049
115.259
111.861
107.824
103.112
97.7003
91.5808
84.7637
77.3356
69.5301
61.6397
53.907
46.5488
39.7801
33.8029
28.8
24.9305
22.3296
21.1107
21.4153
23.4136
27.1993
33.0674
39.6761
37.206
26.6224
14.3671
1.05864
-12.3129
-26.6008
-41.2872
-55.9772
-70.8131
-85.5793
-100.196
-114.711
-129.036
-143.135
-156.949
-170.362
-183.225
-195.346
-206.49
-216.402
-224.809
-231.418
-235.908
-238.09
-237.837
-234.994
-229.421
-221.122
-210.215
-196.882
-181.302
-163.627
-144.012
-122.589
-99.5215
-74.8328
-49.107
-22.0705
1.77605
46.9459
56.1216
65.9246
75.8907
85.0487
93.5352
100.984
106.907
111.258
114.236
116.003
116.757
116.696
115.955
114.628
112.752
110.337
107.372
103.824
99.6529
94.8256
89.3201
83.1296
76.3179
69.0933
61.7265
54.4429
47.4473
40.9488
35.1492
30.2355
26.374
23.7095
22.3634
22.4771
24.2098
27.6315
32.9322
38.8464
34.454
24.3989
12.7626
0.144178
-12.5062
-26.0048
-39.8564
-53.6813
-67.6204
-81.4667
-95.1511
-108.723
-122.105
-135.272
-148.181
-160.728
-172.79
-184.198
-194.739
-204.183
-212.271
-218.746
-223.291
-225.724
-225.926
-223.748
-219.035
-211.741
-201.919
-189.696
-175.217
-158.617
-140.04
-119.62
-97.5294
-73.8371
-49.1154
-23.3017
-0.395263
43.7187
52.4507
61.7941
71.3095
80.0662
88.198
95.3587
101.074
105.297
108.223
110.005
110.832
110.897
110.332
109.231
107.632
105.546
102.965
99.8544
96.1731
91.882
86.9481
81.3502
75.1314
68.4751
61.6297
54.8029
48.1854
41.9785
36.3809
31.5809
27.7499
25.0402
23.5804
23.5103
24.9792
28.0361
32.7817
38.0318
31.8684
22.3085
11.2525
-0.719919
-12.6968
-25.4602
-38.5345
-51.5562
-64.6616
-77.6565
-90.4758
-103.172
-115.677
-127.973
-140.03
-151.759
-163.055
-173.769
-183.711
-192.673
-200.412
-206.702
-211.239
-213.846
-214.412
-212.8
-208.844
-202.457
-193.643
-182.474
-169.062
-153.521
-135.983
-116.578
-95.483
-72.8098
-49.1141
-24.514
-2.55743
40.6871
49.0018
57.9132
67.0037
75.3805
83.174
90.058
95.5706
99.6674
102.536
104.322
105.205
105.376
104.961
104.054
102.697
100.9
98.6573
95.9374
92.6978
88.8955
84.4902
79.4487
73.7954
67.69
61.3585
54.9908
48.7632
42.8654
37.4911
32.8278
29.0494
26.3131
24.7537
24.5086
25.7176
28.4122
32.6182
37.2362
29.4427
20.3489
9.83796
-1.52837
-12.8747
-24.9513
-37.2999
-49.573
-61.904
-74.1071
-86.1225
-98.0049
-109.693
-121.179
-132.436
-143.393
-153.958
-164.003
-173.357
-181.83
-189.202
-195.266
-199.743
-202.457
-203.308
-202.17
-198.873
-193.302
-185.415
-175.242
-162.858
-148.356
-131.85
-113.466
-93.3845
-71.7472
-49.097
-25.6969
-4.69567
37.8418
45.7644
54.2676
62.9558
70.9721
78.4437
85.0624
90.3797
94.3505
97.1569
98.9373
99.8647
100.123
99.8363
99.0981
97.9512
96.4081
94.464
92.0911
89.2479
85.8894
81.9697
77.4466
72.3289
66.7532
60.9242
55.0134
49.1817
43.6069
38.4747
33.9688
30.2638
27.5197
25.8756
25.4657
26.4212
28.7586
32.444
36.4633
27.1707
18.5161
8.51845
-2.2782
-13.0331
-24.4661
-36.1362
-47.7108
-59.3195
-70.7851
-82.0535
-93.1782
-104.106
-114.834
-125.343
-135.574
-145.444
-154.846
-163.628
-171.616
-178.608
-184.418
-188.791
-191.556
-192.622
-191.875
-189.148
-184.302
-177.265
-168.027
-156.628
-143.138
-127.653
-110.294
-91.2344
-70.6479
-49.0561
-26.8397
-6.79495
35.1744
42.7267
50.8441
59.1503
66.8246
73.9893
80.3529
85.4813
89.3279
92.0694
93.8377
94.7982
95.1297
94.9531
94.36
93.396
92.0755
90.395
88.3303
85.8418
82.8843
79.4082
75.3652
70.7505
65.6807
60.3386
54.8781
49.4443
44.2021
39.327
34.9973
31.3853
28.6519
26.9386
26.3754
27.0859
29.0745
32.2609
35.7159
25.0461
16.8054
7.29265
-2.9673
-13.1663
-23.9952
-35.0295
-45.9507
-56.885
-67.6626
-78.2348
-88.6543
-98.8737
-108.894
-118.704
-128.25
-137.465
-146.253
-154.48
-161.99
-168.598
-174.132
-178.367
-181.135
-182.355
-181.928
-179.689
-175.487
-169.223
-160.855
-150.395
-137.885
-123.406
-107.066
-89.0369
-69.5084
-48.9845
-27.9334
-8.84022
32.6756
39.8781
47.6299
55.5742
62.9224
69.7947
75.9133
80.8585
84.5831
87.2579
89.0087
89.9934
90.3855
90.3036
89.8363
89.0316
87.9068
86.4589
84.6669
82.4948
79.8979
76.8257
73.2247
69.0801
64.4892
59.6148
54.5936
49.5559
44.6518
40.0456
35.9079
32.407
29.702
27.9351
27.2317
27.7078
29.3588
32.0703
34.9966
23.0616
15.2127
6.15781
-3.59485
-13.2709
-23.5314
-33.9686
-44.2786
-54.5814
-64.7167
-74.6394
-84.402
-93.9602
-103.321
-112.476
-121.38
-129.976
-138.179
-145.873
-152.916
-159.141
-164.385
-168.456
-171.187
-172.509
-172.338
-170.513
-166.878
-161.313
-153.752
-144.18
-132.616
-119.121
-103.792
-86.793
-68.327
-48.8758
-28.9669
-10.8179
30.3367
37.208
44.6134
52.2131
59.2509
65.8441
71.7273
76.4953
80.1003
82.7076
84.4368
85.4385
85.8815
85.8806
85.5228
84.8572
83.9035
82.6604
81.11
79.2194
76.9459
74.2395
71.0436
67.335
63.1946
58.7662
54.1704
49.5223
44.9578
40.6289
36.6966
33.3225
30.6628
28.8583
28.0286
28.2832
29.6104
31.8736
34.3073
21.2105
13.7328
5.1114
-4.16146
-13.3444
-23.0699
-32.9453
-42.6812
-52.3929
-61.9277
-71.2428
-80.3922
-89.3345
-98.0784
-106.621
-114.923
-122.937
-130.586
-137.768
-144.359
-150.204
-155.153
-159.039
-161.703
-163.084
-163.112
-161.637
-158.496
-153.56
-146.744
-138.008
-127.35
-114.812
-100.481
-84.5068
-67.101
-48.7206
-29.9317
-12.7148
28.1496
34.7068
41.7831
49.0546
55.7963
62.1226
67.7801
72.3766
75.8649
78.4043
80.1088
81.1217
81.6068
81.6762
81.4132
80.8687
80.0651
79.0027
77.666
76.0254
74.0415
71.6648
68.8381
65.532
61.8126
57.8063
53.6189
49.351
45.1241
41.0771
37.36
34.127
31.5281
29.7015
28.7607
28.8082
29.8285
31.6713
33.6489
19.4862
12.3603
4.1504
-4.66852
-13.3856
-22.6058
-31.9524
-41.1486
-50.3054
-59.2773
-68.0252
-76.6011
-84.968
-93.1364
-101.106
-108.845
-116.31
-123.435
-130.132
-136.286
-141.759
-146.411
-150.098
-152.67
-154.074
-154.254
-153.069
-150.359
-145.987
-139.853
-131.899
-122.105
-110.495
-97.1407
-82.1821
-65.8287
-48.5136
-30.8177
-14.5186
26.1063
32.3648
39.1283
46.0871
52.5461
58.617
64.0577
68.4885
71.8632
74.3349
76.0121
77.0316
77.5513
77.6812
77.5018
77.0629
76.3904
75.4875
74.3396
72.9208
71.1949
69.1147
66.6232
63.6866
60.3583
56.7491
52.9506
49.0502
45.1553
41.3915
37.897
34.8163
32.2925
30.4589
29.4227
29.2795
30.0116
31.4637
33.0218
17.882
11.0904
3.27081
-5.11734
-13.3939
-22.1371
-30.9848
-39.6731
-48.3087
-56.7532
-64.9695
-73.0092
-80.8385
-88.4688
-95.903
-103.114
-110.065
-116.696
-122.93
-128.665
-133.777
-138.135
-141.614
-144.076
-145.474
-145.764
-144.819
-142.482
-138.612
-133.101
-125.876
-116.901
-106.184
-93.7825
-79.8225
-64.5091
-48.2477
-31.6177
-16.2187
24.1987
30.1735
36.6388
43.2995
49.4882
55.3146
60.5467
64.8184
68.0825
70.487
72.1349
73.1569
73.7056
73.8873
73.7807
73.435
72.8775
72.1143
71.1334
69.9111
68.4149
66.6004
64.412
61.8129
58.8461
55.6078
52.1771
48.629
45.0576
41.575
38.3071
35.3878
32.9517
31.1257
30.0101
29.6938
30.1587
31.2505
32.4257
16.3918
9.91774
2.46917
-5.51027
-13.3698
-21.6616
-30.0384
-38.2486
-46.394
-54.343
-62.0615
-69.5991
-76.9255
-84.0527
-90.9864
-97.703
-104.171
-110.339
-116.134
-121.47
-126.233
-130.302
-133.569
-135.905
-137.275
-137.642
-136.892
-134.875
-131.451
-126.506
-119.957
-111.756
-101.894
-90.4156
-77.4331
-63.1419
-47.9173
-32.324
-17.8056
22.4195
28.1244
34.3054
40.681
46.6115
52.2036
57.2354
61.3535
64.5101
66.8484
68.466
69.4874
70.0598
70.286
70.2428
69.9796
69.5225
68.882
68.0487
67.0004
65.7081
64.1309
62.2157
59.9239
57.2892
54.3953
51.3099
48.0969
44.8377
41.6314
38.5915
35.8402
33.5025
31.6975
30.519
30.0482
30.2683
31.0313
31.8595
15.009
8.83714
1.74152
-5.84954
-13.3138
-21.1781
-29.1097
-36.8685
-44.5527
-52.0359
-59.2876
-66.3552
-73.2111
-79.8685
-86.3339
-92.5878
-98.6029
-104.334
-109.717
-114.672
-119.101
-122.889
-125.943
-128.146
-129.468
-129.884
-129.292
-127.549
-124.519
-120.087
-114.162
-106.686
-97.6385
-87.0504
-75.019
-61.7261
-47.5178
-32.9302
-19.2702
20.7615
26.2092
32.1188
38.222
43.9054
49.273
54.1126
58.082
61.1348
63.408
64.9943
66.0122
66.6038
66.8688
66.881
66.6898
66.3218
65.7888
65.0853
64.1908
63.0794
61.7139
60.0438
58.0305
55.6996
53.1235
50.3605
47.4638
44.5034
41.566
38.7525
36.1733
33.9428
32.1713
30.9461
30.3401
30.3391
30.8047
31.3213
13.7276
7.8436
1.08407
-6.13776
-13.2267
-20.6862
-28.1966
-35.5296
-42.7783
-49.8238
-56.6371
-63.264
-69.6794
-75.8973
-81.9253
-87.7468
-93.3379
-98.6599
-103.653
-108.249
-112.357
-115.874
-118.716
-120.781
-122.043
-122.486
-122.019
-120.51
-117.827
-113.857
-108.506
-101.708
-93.4319
-83.6972
-72.5858
-60.2637
-47.0446
-33.4307
-20.6061
19.2177
24.4201
30.0707
35.9133
41.3602
46.5126
51.1669
54.9935
57.9454
60.1546
61.7091
62.7215
63.3284
63.6267
63.6875
63.5597
63.2699
62.8315
62.2417
61.4833
60.5323
59.3548
57.9042
56.1422
54.0881
51.8042
49.3398
46.7396
44.0629
41.3847
38.7935
36.3881
34.2718
32.5452
31.2887
30.5673
30.3697
30.5696
30.8089
12.5419
6.93214
0.492814
-6.37761
-13.1103
-20.1859
-27.2976
-34.2279
-41.0666
-47.6998
-54.1011
-60.315
-66.318
-72.1245
-77.7433
-83.1601
-88.3547
-93.2924
-97.9207
-102.176
-105.979
-109.237
-111.873
-113.796
-114.988
-115.44
-115.072
-113.761
-111.384
-107.83
-103.004
-96.8359
-89.2875
-80.3664
-70.1393
-58.7555
-46.4959
-33.8221
-21.8076
17.7815
22.7497
28.1528
33.7461
38.9663
43.9121
48.3886
52.0774
54.9316
57.0781
58.6006
59.6053
60.2247
60.5517
60.655
60.5825
60.3621
60.0065
59.5163
58.8782
58.0688
57.0583
55.8036
54.2675
52.4645
50.4475
48.2584
45.9342
43.5248
41.0941
38.7193
36.4872
34.4899
32.8182
31.5452
30.7282
30.3587
30.3241
30.3193
11.446
6.09801
-0.0360549
-6.57193
-12.9661
-19.6771
-26.4109
-32.9608
-39.4126
-45.6573
-51.6716
-57.4976
-63.1141
-68.5359
-73.7722
-78.811
-83.6343
-88.2123
-92.4978
-96.4332
-99.9477
-102.958
-105.393
-107.176
-108.292
-108.738
-108.447
-107.304
-105.196
-102.014
-97.6679
-92.0838
-85.2177
-77.0674
-67.6862
-57.2039
-45.8703
-34.1012
-22.8708
16.4466
21.1913
26.3575
31.7122
36.7152
41.4628
45.768
49.3237
52.0836
54.1689
55.6592
56.6549
57.2837
57.635
57.7754
57.7518
57.5921
57.3097
56.9072
56.3743
55.6899
54.8271
53.7468
52.4136
50.8371
49.063
47.1263
45.0574
42.8979
40.7018
38.5352
36.474
34.5989
32.9905
31.7148
30.8215
30.305
30.0662
29.8492
10.4348
5.33654
-0.506461
-6.72359
-12.7958
-19.1609
-25.5365
-31.7264
-37.8125
-43.6915
-49.3413
-54.8034
-60.0576
-65.1192
-69.9978
-74.6832
-79.16
-83.4015
-87.3657
-91.0012
-94.2435
-97.018
-99.261
-100.906
-101.942
-102.373
-102.139
-101.139
-99.2654
-96.418
-92.5084
-87.4627
-81.2332
-73.81
-65.2324
-55.6123
-45.1669
-34.2666
-23.7933
15.207
19.7381
24.6777
29.8037
34.5984
39.1555
43.2962
46.7237
49.392
51.4174
52.8754
53.861
54.4968
54.869
55.0416
55.0608
54.9544
54.7363
54.4106
53.9697
53.3957
52.6637
51.7382
50.586
49.2134
47.6591
45.9527
44.1186
42.1911
40.2154
38.2477
36.353
34.6014
33.0634
31.7975
30.8466
30.2073
29.7939
29.3948
9.50292
4.64323
-0.92201
-6.83531
-12.6014
-18.6376
-24.6737
-30.5228
-36.2632
-41.7973
-47.1046
-52.2249
-57.1395
-61.8639
-66.408
-70.7632
-74.9162
-78.8435
-82.5073
-85.8613
-88.8481
-91.3998
-93.4594
-94.9705
-95.9253
-96.3332
-96.143
-95.2632
-93.5953
-91.0468
-87.5331
-82.9824
-77.3445
-70.6027
-62.7852
-53.9846
-44.3875
-34.3181
-24.5739
14.0568
18.3838
23.1062
28.0132
32.6082
36.9824
40.9644
44.2684
46.848
48.8151
50.2407
51.2149
51.8555
52.2455
52.4461
52.5028
52.443
52.2816
52.0228
51.6623
51.1857
50.5689
49.7803
48.7895
47.5997
46.2437
44.7461
43.1267
41.4133
39.6432
37.8637
36.1297
34.5013
33.0392
31.7944
30.8036
30.0647
29.5049
28.9523
8.64558
4.01358
-1.28638
-6.90991
-12.3848
-18.1083
-23.8222
-29.3486
-34.7627
-39.9715
-44.9563
-49.7553
-54.3515
-58.7604
-62.9919
-67.0384
-70.8894
-74.5233
-77.9067
-80.9976
-83.7442
-86.0863
-87.9726
-89.3549
-90.2291
-90.6088
-90.4505
-89.6724
-88.185
-85.9033
-82.7481
-78.6508
-73.56
-67.4542
-60.3509
-52.3251
-43.5341
-34.2571
-25.2135
12.9907
17.1223
21.6369
26.3337
30.7371
34.9355
38.7648
41.9494
44.4433
46.3534
47.7468
48.7087
49.352
49.7567
49.9816
50.071
50.0521
49.94
49.7403
49.4503
49.0584
48.543
47.8756
47.028
46.0013
44.8233
43.5143
42.09
40.5729
38.9934
37.3906
35.8104
34.3034
32.9211
31.7074
30.6929
29.8767
29.197
28.5177
7.85794
3.44359
-1.60311
-6.9503
-12.1479
-17.5742
-22.9822
-28.203
-33.3084
-38.2103
-42.8913
-47.3886
-51.6863
-55.7997
-59.7389
-63.4977
-67.0667
-70.4272
-73.5489
-76.3946
-78.9165
-81.0618
-82.7852
-84.0451
-84.8405
-85.1886
-85.0533
-84.3613
-83.0324
-80.9889
-78.1577
-74.4739
-69.8871
-64.3717
-57.9362
-50.6391
-42.6102
-34.0861
-25.7138
12.0033
15.9482
20.2636
24.7588
28.9783
33.0077
36.6899
39.7591
42.17
44.0242
45.3855
46.3344
46.9787
47.3955
47.6412
47.759
47.7757
47.7068
47.5585
47.33
47.0119
46.5856
46.0251
45.3042
44.4228
43.4039
42.2645
41.0167
39.6785
38.2744
36.8362
35.4018
34.0132
32.7134
31.5391
30.5158
29.6427
28.8681
28.0869
7.13554
2.92917
-1.8756
-6.95912
-11.8928
-17.0365
-22.1539
-27.0853
-31.8987
-36.511
-40.9062
-45.1199
-49.1376
-52.9743
-56.6404
-60.1303
-63.4366
-66.5423
-69.4205
-72.0375
-74.3504
-76.312
-77.8826
-79.0267
-79.7464
-80.0615
-79.9422
-79.3234
-78.1336
-76.3025
-73.7637
-70.4564
-66.3317
-61.3619
-55.5475
-48.9323
-41.6205
-33.8091
-26.0779
11.0899
14.8558
18.9805
23.2822
27.325
31.1917
34.7322
37.6902
40.0204
41.8202
43.1496
44.0844
44.7281
45.1547
45.4182
45.5604
45.608
45.5767
45.4736
45.2981
45.0441
44.6962
44.2294
43.6204
42.8677
41.9906
41.0028
39.9139
38.7379
37.4942
36.2084
34.9113
33.637
32.4208
31.293
30.2739
29.3629
28.5163
27.6563
6.47399
2.46655
-2.10707
-6.93907
-11.6213
-16.4962
-21.3378
-25.9949
-30.5323
-34.8711
-38.9972
-42.9442
-46.6994
-50.2771
-53.6879
-56.9273
-59.9886
-62.8572
-65.5089
-67.9133
-70.0319
-71.8225
-73.2505
-74.286
-74.9339
-75.2157
-75.1072
-74.5509
-73.4835
-71.842
-69.5664
-66.6007
-62.8986
-58.4305
-53.191
-47.2106
-40.5703
-33.4309
-26.3106
10.2455
13.8402
17.7819
21.8981
25.771
29.4813
32.8852
35.7355
37.9876
39.7341
41.0317
41.9518
42.5934
43.0275
43.3059
43.4691
43.5435
43.5447
43.4805
43.3515
43.1533
42.8731
42.4885
41.978
41.3392
40.5878
39.7352
38.7886
37.7588
36.6609
35.5153
34.3464
33.1815
32.049
30.9731
29.9697
29.0376
28.1401
27.222
5.86932
2.05197
-2.30065
-6.89267
-11.3352
-15.9545
-20.5343
-24.9314
-29.2076
-33.2884
-37.1608
-40.8575
-44.3663
-47.7017
-50.8741
-53.8797
-56.7132
-59.3613
-61.8025
-64.0096
-65.9479
-67.58
-68.8753
-69.8099
-70.3902
-70.6392
-70.5379
-70.0354
-69.0758
-67.6036
-65.5647
-62.9085
-59.591
-55.5825
-50.8725
-45.48
-39.4657
-32.9577
-26.4172
9.46581
12.8965
16.6627
20.6007
24.3105
27.8702
31.1423
33.8885
36.0646
37.759
39.025
39.9296
40.5678
41.0074
41.2981
41.4792
41.5766
41.6057
41.5753
41.4866
41.3366
41.1149
40.8022
40.3782
39.8396
39.1993
38.4666
37.6469
36.7482
35.7823
34.7648
33.7148
32.6538
31.6039
30.5841
29.6061
28.6678
27.7381
26.7809
5.31756
1.68207
-2.45937
-6.82233
-11.0367
-15.4127
-19.7438
-23.8944
-27.9236
-31.7609
-35.3945
-38.8557
-42.1337
-45.2423
-48.1919
-50.9796
-53.601
-56.0444
-58.2904
-60.3147
-62.0861
-63.5715
-64.7443
-65.5856
-66.1029
-66.3205
-66.2234
-65.7677
-64.9036
-63.5824
-61.7563
-59.3795
-56.4111
-52.8219
-48.5974
-43.747
-38.3136
-32.3961
-26.4043
8.7465
12.02
15.6179
19.3848
22.9377
26.3524
29.4973
32.1429
34.2452
35.8885
37.123
38.0115
38.6449
39.0882
39.3888
39.585
39.7019
39.7551
39.7535
39.6997
39.5909
39.4198
39.1699
38.8216
38.3707
37.8282
37.2015
36.4945
35.713
34.8657
33.9647
33.0244
32.0612
31.0921
30.1311
29.1864
28.2548
27.3095
26.33
4.81505
1.35352
-2.58615
-6.73039
-10.7275
-14.8718
-18.9667
-22.8838
-26.6794
-30.2868
-33.6954
-36.9353
-39.9969
-42.8934
-45.6353
-48.2199
-50.6442
-52.8975
-54.9626
-56.8177
-58.4354
-59.7851
-60.8448
-61.6001
-62.0594
-62.2475
-62.1532
-61.7381
-60.9588
-59.7724
-58.1373
-56.0122
-53.36
-50.1518
-46.3706
-42.0178
-37.1211
-31.7539
-26.2792
8.08356
11.2065
14.643
18.2455
21.6476
24.9226