/*--------------------------------*- C++ -*----------------------------------*\
| =========                 |                                                 |
| \\      /  F ield         | OpenFOAM: The Open Source CFD Toolbox           |
|  \\    /   O peration     | Version:  2506                                  |
|   \\  /    A nd           | Website:  www.openfoam.com                      |
|    \\/     M anipulation  |                                                 |
\*---------------------------------------------------------------------------*/
FoamFile
{
    version     2.0;
    format      ascii;
    arch        "LSB;label=32;scalar=64";
    class       volScalarField;
    location    "200";
    object      turbulenceProperties:nuEff;
}
// * * * * * * * * * * * * * * * * * * * * * * * * * * * * * * * * * * * * * //

dimensions      [0 2 -1 0 0 0 0];

internalField   nonuniform List<scalar> 
10720
(
3.55007e-05
3.91884e-05
4.41266e-05
5.05283e-05
5.87804e-05
6.94131e-05
8.31453e-05
0.00010034
0.000122022
0.00014923
0.000183857
0.000229061
0.000289171
0.000372079
0.000491063
0.000668354
0.000946159
0.00139342
0.00219201
0.00357673
0.00670487
0.0126596
0.0320814
0.0747338
0.0948704
0.0965608
0.0972814
0.100416
0.103775
0.105487
0.105393
0.104025
0.101571
0.0980957
0.0934636
0.0875906
0.0792227
0.0691168
0.0337465
3.23141e-05
2.95667e-05
2.68674e-05
2.44026e-05
2.20908e-05
1.99659e-05
1.81138e-05
1.68302e-05
1.80754e-05
2.08402e-05
2.55962e-05
3.34246e-05
4.58865e-05
6.49069e-05
9.20006e-05
0.000128743
0.000178237
0.000247749
0.00035158
0.000515191
0.000788932
0.00126127
0.00214561
0.00381087
0.00741025
0.0148641
0.0328342
0.066793
0.0938152
0.10526
0.108627
0.109558
0.109648
0.109146
0.108138
0.106734
0.104579
0.10213
0.0926303
1.5092e-05
1.4987e-05
1.48922e-05
1.48134e-05
1.4723e-05
1.46399e-05
1.4578e-05
1.45234e-05
1.44993e-05
1.45163e-05
1.4546e-05
1.47921e-05
1.57842e-05
1.84181e-05
2.57546e-05
4.52808e-05
9.05925e-05
0.000168545
0.000313592
0.000585735
0.00125745
0.00276212
0.00664211
0.0191884
0.0373871
0.0601485
0.0881906
0.118574
0.143904
0.158703
0.164455
0.165366
0.163884
0.160691
0.156339
0.150988
0.145829
0.137305
0.136814
1.51755e-05
1.52886e-05
1.53852e-05
1.55162e-05
1.56506e-05
1.57871e-05
1.59203e-05
1.60342e-05
1.59627e-05
1.5815e-05
1.56185e-05
1.53827e-05
1.51161e-05
1.48216e-05
1.44883e-05
1.4113e-05
1.36707e-05
1.31573e-05
1.25439e-05
1.18398e-05
1.1071e-05
1.04185e-05
1.00539e-05
1.00015e-05
1.00128e-05
0.000106161
0.000564008
0.00424151
0.0142756
0.0289252
0.0439419
0.055264
0.062011
0.0657798
0.0681675
0.0701522
0.0718795
0.075457
0.0786788
1.62554e-05
1.62725e-05
1.62903e-05
1.63094e-05
1.63329e-05
1.6359e-05
1.63889e-05
1.64239e-05
1.64651e-05
1.65132e-05
1.65705e-05
1.66406e-05
1.67191e-05
1.68547e-05
1.68921e-05
1.6474e-05
1.48521e-05
1.45279e-05
1.00785e-05
1e-05
0.000250462
2.01776e-05
1.01027e-05
0.000424601
0.00251979
0.00659108
0.0139582
0.0279208
0.0521272
0.0864515
0.124433
0.156445
0.177622
0.189927
0.196839
0.199815
0.201197
0.195731
0.203785
1.62426e-05
1.62241e-05
1.62099e-05
1.61888e-05
1.61706e-05
1.61508e-05
1.61328e-05
1.61183e-05
1.61242e-05
1.61402e-05
1.61606e-05
1.61846e-05
1.62138e-05
1.62465e-05
1.62833e-05
1.63239e-05
1.63701e-05
1.6423e-05
1.64862e-05
1.65632e-05
1.66621e-05
1.67891e-05
1.69693e-05
1.7162e-05
1.74204e-05
1.71379e-05
1.72158e-05
1.2448e-05
9.72388e-05
0.000813916
0.00306444
0.00762093
0.0143656
0.0225782
0.0313193
0.039772
0.0471752
0.053845
0.0633447
1.60801e-05
1.60778e-05
1.60774e-05
1.60779e-05
1.60789e-05
1.60816e-05
1.60864e-05
1.60932e-05
1.61031e-05
1.61166e-05
1.61344e-05
1.61577e-05
1.6188e-05
1.62266e-05
1.6278e-05
1.63303e-05
1.62273e-05
1.60116e-05
1.40055e-05
1.14791e-05
1e-05
1.01211e-05
1.00002e-05
6.44085e-05
0.000533122
0.00140869
1.01432e-05
0.00014843
0.00287544
0.0112708
0.0308426
0.0647937
0.108641
0.150732
0.183062
0.205468
0.222234
0.230101
0.245615
1.60807e-05
1.60833e-05
1.60863e-05
1.60888e-05
1.60928e-05
1.6095e-05
1.60964e-05
1.60974e-05
1.60953e-05
1.60925e-05
1.6089e-05
1.60853e-05
1.6082e-05
1.60788e-05
1.60756e-05
1.60722e-05
1.60687e-05
1.60647e-05
1.60599e-05
1.60552e-05
1.60502e-05
1.60448e-05
1.60383e-05
1.60323e-05
1.60258e-05
1.60289e-05
1.60205e-05
1.60877e-05
1.59723e-05
1.60503e-05
1.48818e-05
1.39681e-05
0.000239953
0.00106907
0.00308496
0.00695784
0.013236
0.0220043
0.0394025
1.61052e-05
1.61057e-05
1.6106e-05
1.61068e-05
1.61083e-05
1.61103e-05
1.61128e-05
1.61162e-05
1.61207e-05
1.61266e-05
1.61344e-05
1.61446e-05
1.6158e-05
1.61752e-05
1.61985e-05
1.62274e-05
1.62649e-05
1.62906e-05
1.65086e-05
1.62871e-05
1.49793e-05
1.15672e-05
1e-05
1.0001e-05
1e-05
1e-05
1.00003e-05
1.30523e-05
0.000647093
0.000200096
0.000902604
0.00603904
0.0243413
0.0609485
0.111464
0.161775
0.204124
0.23575
0.265699
1.61049e-05
1.61037e-05
1.61045e-05
1.61036e-05
1.61047e-05
1.61036e-05
1.61014e-05
1.60994e-05
1.60985e-05
1.60985e-05
1.60987e-05
1.6099e-05
1.60998e-05
1.61006e-05
1.61018e-05
1.61032e-05
1.61049e-05
1.61069e-05
1.61091e-05
1.61117e-05
1.61145e-05
1.61175e-05
1.6121e-05
1.61248e-05
1.61298e-05
1.61341e-05
1.61477e-05
1.61262e-05
1.6274e-05
1.56759e-05
1.87982e-05
1.05205e-05
3.64655e-05
0.000258713
0.000746211
0.000735847
0.00126482
0.00169228
0.013833
1.60998e-05
1.60995e-05
1.61001e-05
1.61005e-05
1.61006e-05
1.61011e-05
1.61017e-05
1.61025e-05
1.61038e-05
1.61055e-05
1.61079e-05
1.61111e-05
1.61155e-05
1.61214e-05
1.61295e-05
1.61406e-05
1.61545e-05
1.61699e-05
1.62159e-05
1.62764e-05
1.66163e-05
1.6257e-05
1.47355e-05
1.06748e-05
1.00119e-05
1.00027e-05
1.00008e-05
1e-05
1e-05
1.84952e-05
0.000201852
0.00137806
0.005754
0.00650984
0.0311529
0.0806164
0.144882
0.208423
0.262828
1.6099e-05
1.60984e-05
1.60994e-05
1.60993e-05
1.61011e-05
1.6101e-05
1.60994e-05
1.60981e-05
1.60974e-05
1.60971e-05
1.6097e-05
1.6097e-05
1.60971e-05
1.60972e-05
1.60973e-05
1.60974e-05
1.60976e-05
1.60979e-05
1.60982e-05
1.60984e-05
1.60987e-05
1.60988e-05
1.60989e-05
1.60988e-05
1.60987e-05
1.60989e-05
1.60992e-05
1.61009e-05
1.61003e-05
1.61092e-05
1.60923e-05
1.61949e-05
1.55913e-05
1.41365e-05
1.00019e-05
0.00017249
0.000303519
0.00044998
0.00243067
1.61003e-05
1.61004e-05
1.61007e-05
1.61008e-05
1.61009e-05
1.6101e-05
1.61013e-05
1.61017e-05
1.61022e-05
1.61029e-05
1.61038e-05
1.61052e-05
1.61071e-05
1.61097e-05
1.61133e-05
1.61185e-05
1.61256e-05
1.61329e-05
1.61421e-05
1.6148e-05
1.62125e-05
1.64481e-05
1.69128e-05
1.62056e-05
1.39089e-05
1.16333e-05
1.04891e-05
1.00005e-05
1.00044e-05
1.00002e-05
1e-05
1e-05
1e-05
0.0015247
0.000731983
0.0159888
0.065062
0.148696
0.234023
1.60997e-05
1.60988e-05
1.60993e-05
1.60991e-05
1.61008e-05
1.61008e-05
1.60994e-05
1.60981e-05
1.60976e-05
1.60975e-05
1.60975e-05
1.60977e-05
1.60978e-05
1.60978e-05
1.60979e-05
1.6098e-05
1.60981e-05
1.60983e-05
1.60987e-05
1.60991e-05
1.60997e-05
1.61003e-05
1.61011e-05
1.6102e-05
1.61031e-05
1.61046e-05
1.61064e-05
1.61088e-05
1.61117e-05
1.61154e-05
1.61197e-05
1.61257e-05
1.61506e-05
1.55078e-05
1.33697e-05
1.00492e-05
1.00113e-05
1e-05
7.66945e-05
1.61003e-05
1.61002e-05
1.61006e-05
1.61009e-05
1.61009e-05
1.6101e-05
1.61011e-05
1.61012e-05
1.61012e-05
1.61014e-05
1.61015e-05
1.61018e-05
1.61023e-05
1.6103e-05
1.6104e-05
1.61054e-05
1.61077e-05
1.61102e-05
1.61133e-05
1.61141e-05
1.61098e-05
1.61417e-05
1.62916e-05
1.66493e-05
1.68531e-05
1.65234e-05
1.57057e-05
1.39794e-05
1.20373e-05
1.00996e-05
1.00099e-05
1.00002e-05
1e-05
1e-05
0.000165289
0.0039891
0.0116198
0.0756915
0.180424
1.60996e-05
1.60988e-05
1.60989e-05
1.60984e-05
1.61e-05
1.61002e-05
1.6099e-05
1.6098e-05
1.60977e-05
1.60977e-05
1.60978e-05
1.60979e-05
1.60979e-05
1.60979e-05
1.60979e-05
1.60978e-05
1.60977e-05
1.60977e-05
1.60978e-05
1.6098e-05
1.60982e-05
1.60984e-05
1.60986e-05
1.60989e-05
1.60991e-05
1.60995e-05
1.60999e-05
1.61004e-05
1.61009e-05
1.61012e-05
1.61022e-05
1.60997e-05
1.61109e-05
1.6077e-05
1.63165e-05
1.6023e-05
1.35796e-05
1.00178e-05
1.07062e-05
1.61007e-05
1.61006e-05
1.61008e-05
1.61009e-05
1.61008e-05
1.61008e-05
1.61008e-05
1.61006e-05
1.61005e-05
1.61005e-05
1.61005e-05
1.61006e-05
1.61007e-05
1.6101e-05
1.61015e-05
1.61022e-05
1.61034e-05
1.61049e-05
1.61064e-05
1.6108e-05
1.61079e-05
1.61039e-05
1.61053e-05
1.61749e-05
1.63451e-05
1.658e-05
1.68644e-05
1.71151e-05
1.69695e-05
1.53472e-05
1.34967e-05
1.01111e-05
1.00058e-05
1e-05
1e-05
1e-05
0.00318622
0.0220946
0.114824
1.61e-05
1.6099e-05
1.60987e-05
1.6098e-05
1.60995e-05
1.60998e-05
1.60988e-05
1.6098e-05
1.60978e-05
1.60979e-05
1.6098e-05
1.60981e-05
1.60981e-05
1.6098e-05
1.60979e-05
1.60979e-05
1.60978e-05
1.60977e-05
1.60977e-05
1.60978e-05
1.60979e-05
1.6098e-05
1.60983e-05
1.60985e-05
1.60989e-05
1.60994e-05
1.61001e-05
1.6101e-05
1.61021e-05
1.61035e-05
1.61053e-05
1.61072e-05
1.61102e-05
1.61069e-05
1.61259e-05
1.61846e-05
1.67008e-05
1.44479e-05
1.00024e-05
1.61009e-05
1.61008e-05
1.61011e-05
1.61011e-05
1.61009e-05
1.61008e-05
1.61007e-05
1.61006e-05
1.61006e-05
1.61005e-05
1.61005e-05
1.61005e-05
1.61006e-05
1.61006e-05
1.61007e-05
1.61008e-05
1.61011e-05
1.61014e-05
1.61017e-05
1.6102e-05
1.61024e-05
1.61022e-05
1.60992e-05
1.60954e-05
1.61048e-05
1.61514e-05
1.62551e-05
1.64542e-05
1.67846e-05
1.71163e-05
1.7431e-05
1.59556e-05
1.19577e-05
1.00163e-05
1e-05
1e-05
1e-05
0.00638823
0.0595288
1.61003e-05
1.60992e-05
1.60985e-05
1.60976e-05
1.60989e-05
1.60993e-05
1.60985e-05
1.60979e-05
1.60979e-05
1.60979e-05
1.6098e-05
1.60981e-05
1.60981e-05
1.60981e-05
1.6098e-05
1.60979e-05
1.60979e-05
1.60979e-05
1.60978e-05
1.60977e-05
1.60977e-05
1.60977e-05
1.60978e-05
1.60979e-05
1.6098e-05
1.60983e-05
1.60986e-05
1.60991e-05
1.60997e-05
1.61005e-05
1.61013e-05
1.61024e-05
1.61025e-05
1.61081e-05
1.60891e-05
1.61865e-05
1.58407e-05
1.88031e-05
1.05238e-05
1.6101e-05
1.6101e-05
1.61011e-05
1.6101e-05
1.61008e-05
1.61007e-05
1.61005e-05
1.61003e-05
1.61002e-05
1.61001e-05
1.61e-05
1.60999e-05
1.60999e-05
1.60998e-05
1.60998e-05
1.60998e-05
1.60999e-05
1.61001e-05
1.61004e-05
1.61007e-05
1.61011e-05
1.61014e-05
1.61016e-05
1.61005e-05
1.60957e-05
1.60894e-05
1.60871e-05
1.61046e-05
1.61742e-05
1.63707e-05
1.66842e-05
1.74699e-05
1.71758e-05
1.43596e-05
1.00001e-05
1e-05
1e-05
0.000559782
0.0263918
1.61003e-05
1.60992e-05
1.60984e-05
1.60974e-05
1.60986e-05
1.60989e-05
1.60983e-05
1.60978e-05
1.60978e-05
1.60979e-05
1.6098e-05
1.60981e-05
1.60981e-05
1.60981e-05
1.6098e-05
1.60979e-05
1.60979e-05
1.60979e-05
1.60979e-05
1.60978e-05
1.60977e-05
1.60977e-05
1.60976e-05
1.60977e-05
1.60977e-05
1.60979e-05
1.60982e-05
1.60986e-05
1.60992e-05
1.61e-05
1.61009e-05
1.61021e-05
1.61026e-05
1.61078e-05
1.60928e-05
1.61663e-05
1.58545e-05
1.71925e-05
1.42968e-05
1.61008e-05
1.61008e-05
1.6101e-05
1.61008e-05
1.61006e-05
1.61004e-05
1.61003e-05
1.61001e-05
1.61e-05
1.60998e-05
1.60997e-05
1.60997e-05
1.60997e-05
1.60997e-05
1.60997e-05
1.60998e-05
1.60998e-05
1.60999e-05
1.60999e-05
1.60999e-05
1.61001e-05
1.61003e-05
1.61006e-05
1.61012e-05
1.61015e-05
1.60997e-05
1.60944e-05
1.60842e-05
1.60694e-05
1.60839e-05
1.61152e-05
1.63814e-05
1.69045e-05
1.80606e-05
1.44751e-05
1.00137e-05
1e-05
0.000224631
0.0101324
1.61004e-05
1.60994e-05
1.60985e-05
1.60974e-05
1.60984e-05
1.60987e-05
1.60981e-05
1.60978e-05
1.60978e-05
1.60978e-05
1.6098e-05
1.6098e-05
1.60981e-05
1.6098e-05
1.60979e-05
1.60979e-05
1.60978e-05
1.60978e-05
1.60978e-05
1.60978e-05
1.60977e-05
1.60976e-05
1.60976e-05
1.60975e-05
1.60975e-05
1.60975e-05
1.60977e-05
1.6098e-05
1.60984e-05
1.6099e-05
1.60996e-05
1.61005e-05
1.61012e-05
1.61034e-05
1.61004e-05
1.61195e-05
1.60579e-05
1.62159e-05
1.6155e-05
1.61006e-05
1.61005e-05
1.61006e-05
1.61004e-05
1.61002e-05
1.61001e-05
1.60999e-05
1.60997e-05
1.60996e-05
1.60995e-05
1.60994e-05
1.60993e-05
1.60993e-05
1.60993e-05
1.60993e-05
1.60993e-05
1.60993e-05
1.60993e-05
1.60993e-05
1.60994e-05
1.60995e-05
1.60996e-05
1.60998e-05
1.61001e-05
1.61008e-05
1.61017e-05
1.61022e-05
1.61007e-05
1.60928e-05
1.60816e-05
1.60607e-05
1.60466e-05
1.61505e-05
1.66065e-05
1.86571e-05
1.3266e-05
1.00003e-05
4.92053e-05
0.00322986
1.61005e-05
1.60996e-05
1.60987e-05
1.60976e-05
1.60984e-05
1.60987e-05
1.60981e-05
1.60977e-05
1.60977e-05
1.60978e-05
1.60979e-05
1.60979e-05
1.6098e-05
1.60979e-05
1.60978e-05
1.60977e-05
1.60977e-05
1.60976e-05
1.60976e-05
1.60976e-05
1.60976e-05
1.60976e-05
1.60975e-05
1.60974e-05
1.60974e-05
1.60974e-05
1.60975e-05
1.60977e-05
1.6098e-05
1.60984e-05
1.6099e-05
1.60998e-05
1.61007e-05
1.61016e-05
1.61033e-05
1.61022e-05
1.6117e-05
1.6054e-05
1.6263e-05
1.61006e-05
1.61003e-05
1.61003e-05
1.61e-05
1.60998e-05
1.60997e-05
1.60995e-05
1.60993e-05
1.60992e-05
1.60991e-05
1.60991e-05
1.6099e-05
1.6099e-05
1.6099e-05
1.60991e-05
1.60991e-05
1.60992e-05
1.60992e-05
1.60993e-05
1.60992e-05
1.60993e-05
1.60993e-05
1.60994e-05
1.60996e-05
1.60999e-05
1.61005e-05
1.61015e-05
1.61028e-05
1.61032e-05
1.61009e-05
1.60956e-05
1.60676e-05
1.604e-05
1.60055e-05
1.65376e-05
2.04653e-05
1.00333e-05
1.03037e-05
0.000755566
1.61006e-05
1.61e-05
1.6099e-05
1.60977e-05
1.60984e-05
1.60986e-05
1.60981e-05
1.60978e-05
1.60977e-05
1.60977e-05
1.60978e-05
1.60978e-05
1.60978e-05
1.60978e-05
1.60977e-05
1.60976e-05
1.60975e-05
1.60975e-05
1.60975e-05
1.60975e-05
1.60975e-05
1.60975e-05
1.60974e-05
1.60974e-05
1.60973e-05
1.60972e-05
1.60972e-05
1.60974e-05
1.60976e-05
1.60979e-05
1.60984e-05
1.6099e-05
1.60998e-05
1.61005e-05
1.61022e-05
1.61009e-05
1.61125e-05
1.60814e-05
1.61499e-05
1.61006e-05
1.61002e-05
1.61e-05
1.60997e-05
1.60995e-05
1.60993e-05
1.60992e-05
1.6099e-05
1.60989e-05
1.60988e-05
1.60987e-05
1.60987e-05
1.60987e-05
1.60987e-05
1.60988e-05
1.60988e-05
1.60989e-05
1.60989e-05
1.6099e-05
1.6099e-05
1.6099e-05
1.6099e-05
1.60991e-05
1.60992e-05
1.60994e-05
1.60997e-05
1.61003e-05
1.61011e-05
1.61024e-05
1.61036e-05
1.61054e-05
1.61035e-05
1.60766e-05
1.60853e-05
1.56357e-05
1.87131e-05
1.41392e-05
1e-05
0.000171807
1.61008e-05
1.61002e-05
1.60991e-05
1.60978e-05
1.60984e-05
1.60986e-05
1.60981e-05
1.60978e-05
1.60977e-05
1.60976e-05
1.60976e-05
1.60977e-05
1.60977e-05
1.60976e-05
1.60975e-05
1.60974e-05
1.60973e-05
1.60972e-05
1.60972e-05
1.60972e-05
1.60972e-05
1.60973e-05
1.60973e-05
1.60972e-05
1.60972e-05
1.60971e-05
1.60971e-05
1.60971e-05
1.60973e-05
1.60975e-05
1.60979e-05
1.60984e-05
1.60991e-05
1.60998e-05
1.61009e-05
1.61014e-05
1.61048e-05
1.61022e-05
1.61085e-05
1.61006e-05
1.61001e-05
1.60999e-05
1.60996e-05
1.60993e-05
1.60991e-05
1.60989e-05
1.60987e-05
1.60986e-05
1.60985e-05
1.60985e-05
1.60985e-05
1.60985e-05
1.60985e-05
1.60985e-05
1.60986e-05
1.60987e-05
1.60987e-05
1.60988e-05
1.60988e-05
1.60989e-05
1.60989e-05
1.60989e-05
1.60989e-05
1.60991e-05
1.60993e-05
1.60997e-05
1.61002e-05
1.61009e-05
1.61019e-05
1.6103e-05
1.61086e-05
1.60955e-05
1.61414e-05
1.58716e-05
1.61117e-05
2.04739e-05
1.0001e-05
1e-05
1.61008e-05
1.61003e-05
1.60992e-05
1.60978e-05
1.60983e-05
1.60985e-05
1.6098e-05
1.60978e-05
1.60977e-05
1.60976e-05
1.60976e-05
1.60975e-05
1.60975e-05
1.60974e-05
1.60973e-05
1.60972e-05
1.60971e-05
1.6097e-05
1.6097e-05
1.6097e-05
1.6097e-05
1.60971e-05
1.60971e-05
1.60971e-05
1.60971e-05
1.6097e-05
1.60969e-05
1.60969e-05
1.6097e-05
1.60972e-05
1.60974e-05
1.60978e-05
1.60984e-05
1.6099e-05
1.60998e-05
1.61009e-05
1.61019e-05
1.61054e-05
1.61028e-05
1.61004e-05
1.61e-05
1.60998e-05
1.60995e-05
1.60992e-05
1.6099e-05
1.60988e-05
1.60986e-05
1.60985e-05
1.60984e-05
1.60983e-05
1.60983e-05
1.60983e-05
1.60983e-05
1.60984e-05
1.60984e-05
1.60985e-05
1.60986e-05
1.60987e-05
1.60987e-05
1.60988e-05
1.60988e-05
1.60988e-05
1.60988e-05
1.60989e-05
1.60991e-05
1.60994e-05
1.60997e-05
1.61002e-05
1.61008e-05
1.61012e-05
1.6104e-05
1.61037e-05
1.61038e-05
1.61965e-05
1.52858e-05
2.10032e-05
1.01034e-05
1e-05
1.61006e-05
1.61002e-05
1.60992e-05
1.60979e-05
1.60982e-05
1.60984e-05
1.6098e-05
1.60977e-05
1.60976e-05
1.60975e-05
1.60974e-05
1.60974e-05
1.60973e-05
1.60972e-05
1.60971e-05
1.6097e-05
1.60969e-05
1.60968e-05
1.60968e-05
1.60968e-05
1.60968e-05
1.60968e-05
1.60969e-05
1.60969e-05
1.60969e-05
1.60969e-05
1.60968e-05
1.60967e-05
1.60968e-05
1.60969e-05
1.60971e-05
1.60974e-05
1.60978e-05
1.60983e-05
1.6099e-05
1.61e-05
1.61008e-05
1.61038e-05
1.61029e-05
1.61001e-05
1.60998e-05
1.60996e-05
1.60993e-05
1.6099e-05
1.60988e-05
1.60986e-05
1.60985e-05
1.60984e-05
1.60983e-05
1.60982e-05
1.60982e-05
1.60982e-05
1.60983e-05
1.60983e-05
1.60984e-05
1.60985e-05
1.60986e-05
1.60986e-05
1.60987e-05
1.60987e-05
1.60988e-05
1.60988e-05
1.60988e-05
1.60988e-05
1.60989e-05
1.60991e-05
1.60994e-05
1.60998e-05
1.61003e-05
1.61008e-05
1.61005e-05
1.6108e-05
1.6074e-05
1.62657e-05
1.54697e-05
1.83137e-05
1.32967e-05
1.00015e-05
1.61004e-05
1.61002e-05
1.60993e-05
1.6098e-05
1.60982e-05
1.60983e-05
1.60979e-05
1.60976e-05
1.60975e-05
1.60974e-05
1.60973e-05
1.60972e-05
1.60971e-05
1.6097e-05
1.60969e-05
1.60968e-05
1.60967e-05
1.60966e-05
1.60966e-05
1.60965e-05
1.60966e-05
1.60966e-05
1.60967e-05
1.60967e-05
1.60967e-05
1.60967e-05
1.60967e-05
1.60966e-05
1.60966e-05
1.60966e-05
1.60967e-05
1.6097e-05
1.60973e-05
1.60977e-05
1.60983e-05
1.60991e-05
1.61e-05
1.61023e-05
1.61024e-05
1.60999e-05
1.60995e-05
1.60994e-05
1.60991e-05
1.60989e-05
1.60987e-05
1.60985e-05
1.60984e-05
1.60983e-05
1.60983e-05
1.60983e-05
1.60983e-05
1.60983e-05
1.60983e-05
1.60984e-05
1.60985e-05
1.60986e-05
1.60986e-05
1.60987e-05
1.60988e-05
1.60988e-05
1.60989e-05
1.60989e-05
1.60988e-05
1.60988e-05
1.60989e-05
1.6099e-05
1.60993e-05
1.60996e-05
1.60999e-05
1.61006e-05
1.60994e-05
1.61073e-05
1.60776e-05
1.61925e-05
1.58728e-05
1.6415e-05
1.76771e-05
1.02814e-05
1.61003e-05
1.61002e-05
1.60994e-05
1.60981e-05
1.60982e-05
1.60983e-05
1.60979e-05
1.60976e-05
1.60974e-05
1.60972e-05
1.60971e-05
1.6097e-05
1.60969e-05
1.60968e-05
1.60968e-05
1.60966e-05
1.60965e-05
1.60964e-05
1.60964e-05
1.60963e-05
1.60963e-05
1.60964e-05
1.60964e-05
1.60965e-05
1.60965e-05
1.60966e-05
1.60965e-05
1.60965e-05
1.60964e-05
1.60964e-05
1.60965e-05
1.60966e-05
1.60969e-05
1.60972e-05
1.60977e-05
1.60984e-05
1.60992e-05
1.61011e-05
1.61014e-05
1.60997e-05
1.60993e-05
1.60992e-05
1.60989e-05
1.60987e-05
1.60986e-05
1.60985e-05
1.60984e-05
1.60984e-05
1.60984e-05
1.60984e-05
1.60985e-05
1.60985e-05
1.60985e-05
1.60986e-05
1.60986e-05
1.60987e-05
1.60988e-05
1.60989e-05
1.60989e-05
1.6099e-05
1.6099e-05
1.6099e-05
1.6099e-05
1.6099e-05
1.6099e-05
1.6099e-05
1.60992e-05
1.60994e-05
1.60997e-05
1.61003e-05
1.60996e-05
1.61037e-05
1.60926e-05
1.61188e-05
1.61196e-05
1.5771e-05
1.81966e-05
1.24796e-05
1.61003e-05
1.61002e-05
1.60995e-05
1.60982e-05
1.60983e-05
1.60982e-05
1.60979e-05
1.60975e-05
1.60973e-05
1.60971e-05
1.6097e-05
1.60968e-05
1.60968e-05
1.60967e-05
1.60966e-05
1.60964e-05
1.60963e-05
1.60962e-05
1.60962e-05
1.60961e-05
1.60961e-05
1.60962e-05
1.60962e-05
1.60963e-05
1.60964e-05
1.60964e-05
1.60964e-05
1.60963e-05
1.60963e-05
1.60962e-05
1.60962e-05
1.60963e-05
1.60965e-05
1.60968e-05
1.60972e-05
1.60978e-05
1.60985e-05
1.61002e-05
1.61005e-05
1.60997e-05
1.60993e-05
1.6099e-05
1.60988e-05
1.60986e-05
1.60985e-05
1.60985e-05
1.60985e-05
1.60985e-05
1.60986e-05
1.60986e-05
1.60987e-05
1.60987e-05
1.60988e-05
1.60988e-05
1.60988e-05
1.60989e-05
1.6099e-05
1.6099e-05
1.60991e-05
1.60991e-05
1.60991e-05
1.60991e-05
1.60991e-05
1.60991e-05
1.60991e-05
1.60991e-05
1.60992e-05
1.60994e-05
1.60996e-05
1.61e-05
1.61e-05
1.61008e-05
1.61021e-05
1.60876e-05
1.61818e-05
1.57717e-05
1.71862e-05
1.51241e-05
1.61002e-05
1.61002e-05
1.60995e-05
1.60983e-05
1.60983e-05
1.60982e-05
1.60978e-05
1.60975e-05
1.60972e-05
1.60969e-05
1.60968e-05
1.60967e-05
1.60966e-05
1.60965e-05
1.60964e-05
1.60962e-05
1.60961e-05
1.6096e-05
1.6096e-05
1.60959e-05
1.60959e-05
1.6096e-05
1.6096e-05
1.60961e-05
1.60962e-05
1.60962e-05
1.60962e-05
1.60962e-05
1.60962e-05
1.60961e-05
1.6096e-05
1.60961e-05
1.60962e-05
1.60965e-05
1.60968e-05
1.60973e-05
1.60979e-05
1.60994e-05
1.60998e-05
1.60996e-05
1.60992e-05
1.6099e-05
1.60988e-05
1.60986e-05
1.60985e-05
1.60986e-05
1.60986e-05
1.60987e-05
1.60988e-05
1.60989e-05
1.60989e-05
1.60989e-05
1.6099e-05
1.6099e-05
1.6099e-05
1.60991e-05
1.60991e-05
1.60992e-05
1.60992e-05
1.60993e-05
1.60993e-05
1.60993e-05
1.60993e-05
1.60993e-05
1.60993e-05
1.60993e-05
1.60993e-05
1.60994e-05
1.60996e-05
1.60998e-05
1.61002e-05
1.60997e-05
1.61043e-05
1.60859e-05
1.61577e-05
1.59379e-05
1.64181e-05
1.62296e-05
1.61001e-05
1.61001e-05
1.60994e-05
1.60983e-05
1.60982e-05
1.60981e-05
1.60978e-05
1.60974e-05
1.60971e-05
1.60968e-05
1.60967e-05
1.60965e-05
1.60964e-05
1.60963e-05
1.60962e-05
1.60961e-05
1.60959e-05
1.60958e-05
1.60958e-05
1.60957e-05
1.60957e-05
1.60958e-05
1.60958e-05
1.60959e-05
1.6096e-05
1.6096e-05
1.60961e-05
1.60961e-05
1.60961e-05
1.6096e-05
1.60959e-05
1.60959e-05
1.6096e-05
1.60962e-05
1.60964e-05
1.60968e-05
1.60974e-05
1.60987e-05
1.6099e-05
1.60995e-05
1.60992e-05
1.60989e-05
1.60987e-05
1.60986e-05
1.60986e-05
1.60987e-05
1.60988e-05
1.60989e-05
1.6099e-05
1.60991e-05
1.60991e-05
1.60992e-05
1.60992e-05
1.60992e-05
1.60992e-05
1.60993e-05
1.60993e-05
1.60993e-05
1.60994e-05
1.60994e-05
1.60994e-05
1.60994e-05
1.60994e-05
1.60994e-05
1.60994e-05
1.60994e-05
1.60994e-05
1.60995e-05
1.60997e-05
1.60998e-05
1.61002e-05
1.60997e-05
1.61029e-05
1.60931e-05
1.61233e-05
1.60595e-05
1.61085e-05
1.63432e-05
1.60999e-05
1.60999e-05
1.60993e-05
1.60983e-05
1.60981e-05
1.6098e-05
1.60977e-05
1.60973e-05
1.60969e-05
1.60967e-05
1.60965e-05
1.60964e-05
1.60962e-05
1.60961e-05
1.6096e-05
1.60959e-05
1.60958e-05
1.60957e-05
1.60956e-05
1.60956e-05
1.60956e-05
1.60956e-05
1.60957e-05
1.60957e-05
1.60958e-05
1.60959e-05
1.60959e-05
1.6096e-05
1.6096e-05
1.60959e-05
1.60959e-05
1.60958e-05
1.60958e-05
1.60959e-05
1.60961e-05
1.60964e-05
1.60969e-05
1.6098e-05
1.60984e-05
1.60993e-05
1.60991e-05
1.60988e-05
1.60987e-05
1.60987e-05
1.60987e-05
1.60989e-05
1.6099e-05
1.60991e-05
1.60992e-05
1.60993e-05
1.60994e-05
1.60994e-05
1.60994e-05
1.60995e-05
1.60994e-05
1.60995e-05
1.60995e-05
1.60995e-05
1.60995e-05
1.60996e-05
1.60996e-05
1.60996e-05
1.60996e-05
1.60996e-05
1.60995e-05
1.60995e-05
1.60995e-05
1.60996e-05
1.60997e-05
1.60998e-05
1.61001e-05
1.61e-05
1.61014e-05
1.60987e-05
1.61042e-05
1.61068e-05
1.60504e-05
1.62172e-05
1.60997e-05
1.60998e-05
1.60992e-05
1.60982e-05
1.6098e-05
1.60979e-05
1.60975e-05
1.60971e-05
1.60968e-05
1.60965e-05
1.60963e-05
1.60962e-05
1.60961e-05
1.60959e-05
1.60958e-05
1.60957e-05
1.60956e-05
1.60955e-05
1.60955e-05
1.60954e-05
1.60954e-05
1.60955e-05
1.60955e-05
1.60956e-05
1.60957e-05
1.60957e-05
1.60958e-05
1.60958e-05
1.60959e-05
1.60959e-05
1.60958e-05
1.60958e-05
1.60957e-05
1.60958e-05
1.60959e-05
1.60962e-05
1.60965e-05
1.60975e-05
1.60978e-05
1.60992e-05
1.60989e-05
1.60987e-05
1.60987e-05
1.60987e-05
1.60988e-05
1.6099e-05
1.60991e-05
1.60993e-05
1.60994e-05
1.60995e-05
1.60996e-05
1.60996e-05
1.60997e-05
1.60997e-05
1.60997e-05
1.60997e-05
1.60997e-05
1.60997e-05
1.60997e-05
1.60997e-05
1.60997e-05
1.60997e-05
1.60997e-05
1.60997e-05
1.60997e-05
1.60996e-05
1.60997e-05
1.60997e-05
1.60998e-05
1.60999e-05
1.61001e-05
1.61002e-05
1.61006e-05
1.61011e-05
1.60987e-05
1.61128e-05
1.60702e-05
1.61272e-05
1.60995e-05
1.60997e-05
1.60992e-05
1.60982e-05
1.6098e-05
1.60978e-05
1.60974e-05
1.6097e-05
1.60967e-05
1.60964e-05
1.60962e-05
1.6096e-05
1.60959e-05
1.60958e-05
1.60957e-05
1.60955e-05
1.60955e-05
1.60954e-05
1.60953e-05
1.60953e-05
1.60953e-05
1.60953e-05
1.60954e-05
1.60955e-05
1.60956e-05
1.60956e-05
1.60957e-05
1.60958e-05
1.60958e-05
1.60958e-05
1.60959e-05
1.60958e-05
1.60957e-05
1.60957e-05
1.60958e-05
1.60959e-05
1.60962e-05
1.6097e-05
1.60973e-05
1.60991e-05
1.60988e-05
1.60986e-05
1.60987e-05
1.60988e-05
1.60989e-05
1.60991e-05
1.60992e-05
1.60994e-05
1.60995e-05
1.60997e-05
1.60998e-05
1.60998e-05
1.60999e-05
1.60999e-05
1.60999e-05
1.60999e-05
1.60999e-05
1.60999e-05
1.60999e-05
1.60999e-05
1.60999e-05
1.60999e-05
1.60998e-05
1.60998e-05
1.60998e-05
1.60998e-05
1.60998e-05
1.60998e-05
1.60999e-05
1.61e-05
1.61001e-05
1.61004e-05
1.61004e-05
1.61014e-05
1.6099e-05
1.61075e-05
1.60922e-05
1.60975e-05
1.60994e-05
1.60996e-05
1.60992e-05
1.60982e-05
1.60979e-05
1.60977e-05
1.60974e-05
1.60969e-05
1.60966e-05
1.60963e-05
1.60961e-05
1.60959e-05
1.60958e-05
1.60956e-05
1.60955e-05
1.60954e-05
1.60953e-05
1.60953e-05
1.60952e-05
1.60952e-05
1.60952e-05
1.60953e-05
1.60953e-05
1.60954e-05
1.60955e-05
1.60956e-05
1.60957e-05
1.60957e-05
1.60958e-05
1.60959e-05
1.60959e-05
1.60959e-05
1.60959e-05
1.60958e-05
1.60958e-05
1.60959e-05
1.60961e-05
1.60967e-05
1.60969e-05
1.60991e-05
1.60988e-05
1.60986e-05
1.60987e-05
1.60988e-05
1.6099e-05
1.60992e-05
1.60993e-05
1.60995e-05
1.60997e-05
1.60998e-05
1.60999e-05
1.61e-05
1.61001e-05
1.61001e-05
1.61002e-05
1.61002e-05
1.61002e-05
1.61002e-05
1.61001e-05
1.61001e-05
1.61001e-05
1.61001e-05
1.61e-05
1.61e-05
1.60999e-05
1.60999e-05
1.60999e-05
1.60999e-05
1.61e-05
1.61001e-05
1.61002e-05
1.61004e-05
1.61005e-05
1.61012e-05
1.61003e-05
1.61031e-05
1.61015e-05
1.6096e-05
1.60994e-05
1.60995e-05
1.60991e-05
1.60982e-05
1.60979e-05
1.60976e-05
1.60973e-05
1.60968e-05
1.60965e-05
1.60962e-05
1.60959e-05
1.60958e-05
1.60956e-05
1.60955e-05
1.60954e-05
1.60953e-05
1.60952e-05
1.60952e-05
1.60951e-05
1.60951e-05
1.60952e-05
1.60952e-05
1.60953e-05
1.60954e-05
1.60955e-05
1.60956e-05
1.60956e-05
1.60957e-05
1.60958e-05
1.60959e-05
1.6096e-05
1.6096e-05
1.6096e-05
1.60959e-05
1.60959e-05
1.60959e-05
1.6096e-05
1.60965e-05
1.60965e-05
1.60991e-05
1.60988e-05
1.60986e-05
1.60988e-05
1.60989e-05
1.60991e-05
1.60993e-05
1.60995e-05
1.60996e-05
1.60998e-05
1.61e-05
1.61001e-05
1.61002e-05
1.61003e-05
1.61004e-05
1.61004e-05
1.61004e-05
1.61004e-05
1.61004e-05
1.61004e-05
1.61004e-05
1.61004e-05
1.61003e-05
1.61002e-05
1.61002e-05
1.61001e-05
1.61001e-05
1.61001e-05
1.61001e-05
1.61001e-05
1.61002e-05
1.61003e-05
1.61005e-05
1.61006e-05
1.6101e-05
1.6101e-05
1.61016e-05
1.6103e-05
1.61002e-05
1.60993e-05
1.60994e-05
1.6099e-05
1.60982e-05
1.60978e-05
1.60975e-05
1.60972e-05
1.60967e-05
1.60964e-05
1.60961e-05
1.60958e-05
1.60957e-05
1.60955e-05
1.60954e-05
1.60953e-05
1.60952e-05
1.60952e-05
1.60951e-05
1.60951e-05
1.60951e-05
1.60951e-05
1.60952e-05
1.60952e-05
1.60953e-05
1.60954e-05
1.60955e-05
1.60956e-05
1.60957e-05
1.60958e-05
1.60959e-05
1.60959e-05
1.6096e-05
1.6096e-05
1.6096e-05
1.6096e-05
1.60959e-05
1.6096e-05
1.60964e-05
1.60963e-05
1.6099e-05
1.60988e-05
1.60987e-05
1.60989e-05
1.6099e-05
1.60992e-05
1.60994e-05
1.60996e-05
1.60998e-05
1.61e-05
1.61001e-05
1.61003e-05
1.61004e-05
1.61005e-05
1.61006e-05
1.61006e-05
1.61007e-05
1.61007e-05
1.61007e-05
1.61007e-05
1.61007e-05
1.61007e-05
1.61006e-05
1.61006e-05
1.61005e-05
1.61004e-05
1.61003e-05
1.61003e-05
1.61003e-05
1.61003e-05
1.61003e-05
1.61004e-05
1.61006e-05
1.61007e-05
1.6101e-05
1.61013e-05
1.61016e-05
1.61023e-05
1.61027e-05
1.60992e-05
1.60993e-05
1.60989e-05
1.60981e-05
1.60977e-05
1.60974e-05
1.6097e-05
1.60966e-05
1.60963e-05
1.6096e-05
1.60957e-05
1.60956e-05
1.60954e-05
1.60953e-05
1.60952e-05
1.60952e-05
1.60951e-05
1.60951e-05
1.6095e-05
1.6095e-05
1.60951e-05
1.60951e-05
1.60952e-05
1.60953e-05
1.60954e-05
1.60954e-05
1.60955e-05
1.60956e-05
1.60957e-05
1.60958e-05
1.60959e-05
1.6096e-05
1.6096e-05
1.60961e-05
1.6096e-05
1.6096e-05
1.60959e-05
1.60963e-05
1.60962e-05
1.60989e-05
1.60988e-05
1.60987e-05
1.60989e-05
1.60991e-05
1.60993e-05
1.60995e-05
1.60997e-05
1.60999e-05
1.61001e-05
1.61003e-05
1.61004e-05
1.61006e-05
1.61007e-05
1.61008e-05
1.61008e-05
1.61009e-05
1.6101e-05
1.6101e-05
1.6101e-05
1.6101e-05
1.6101e-05
1.6101e-05
1.61009e-05
1.61009e-05
1.61008e-05
1.61007e-05
1.61006e-05
1.61006e-05
1.61005e-05
1.61005e-05
1.61006e-05
1.61007e-05
1.61009e-05
1.61011e-05
1.61014e-05
1.61018e-05
1.61017e-05
1.61034e-05
1.6099e-05
1.60991e-05
1.60988e-05
1.6098e-05
1.60976e-05
1.60973e-05
1.60969e-05
1.60965e-05
1.60961e-05
1.60959e-05
1.60956e-05
1.60955e-05
1.60953e-05
1.60952e-05
1.60952e-05
1.60951e-05
1.6095e-05
1.6095e-05
1.6095e-05
1.6095e-05
1.6095e-05
1.6095e-05
1.60951e-05
1.60952e-05
1.60953e-05
1.60953e-05
1.60954e-05
1.60955e-05
1.60956e-05
1.60957e-05
1.60958e-05
1.60959e-05
1.6096e-05
1.6096e-05
1.60961e-05
1.6096e-05
1.60959e-05
1.60962e-05
1.60961e-05
1.60988e-05
1.60987e-05
1.60987e-05
1.60989e-05
1.60991e-05
1.60993e-05
1.60996e-05
1.60998e-05
1.61e-05
1.61002e-05
1.61004e-05
1.61006e-05
1.61007e-05
1.61009e-05
1.6101e-05
1.61011e-05
1.61011e-05
1.61012e-05
1.61012e-05
1.61013e-05
1.61013e-05
1.61013e-05
1.61013e-05
1.61013e-05
1.61013e-05
1.61012e-05
1.61011e-05
1.6101e-05
1.6101e-05
1.61009e-05
1.61009e-05
1.61009e-05
1.61009e-05
1.6101e-05
1.61012e-05
1.61014e-05
1.61021e-05
1.61017e-05
1.61034e-05
1.60989e-05
1.6099e-05
1.60986e-05
1.60979e-05
1.60974e-05
1.60971e-05
1.60967e-05
1.60963e-05
1.6096e-05
1.60957e-05
1.60955e-05
1.60953e-05
1.60952e-05
1.60951e-05
1.60951e-05
1.6095e-05
1.60949e-05
1.60949e-05
1.60949e-05
1.60949e-05
1.60949e-05
1.60949e-05
1.6095e-05
1.6095e-05
1.60951e-05
1.60952e-05
1.60953e-05
1.60954e-05
1.60955e-05
1.60956e-05
1.60957e-05
1.60958e-05
1.60959e-05
1.6096e-05
1.60961e-05
1.6096e-05
1.6096e-05
1.60961e-05
1.60961e-05
1.60987e-05
1.60987e-05
1.60987e-05
1.60989e-05
1.60991e-05
1.60994e-05
1.60996e-05
1.60999e-05
1.61001e-05
1.61004e-05
1.61005e-05
1.61007e-05
1.61009e-05
1.6101e-05
1.61012e-05
1.61013e-05
1.61014e-05
1.61014e-05
1.61015e-05
1.61016e-05
1.61016e-05
1.61016e-05
1.61017e-05
1.61017e-05
1.61016e-05
1.61016e-05
1.61015e-05
1.61015e-05
1.61014e-05
1.61013e-05
1.61013e-05
1.61012e-05
1.61012e-05
1.61013e-05
1.61015e-05
1.61016e-05
1.61022e-05
1.61018e-05
1.61034e-05
1.60988e-05
1.60988e-05
1.60985e-05
1.60978e-05
1.60973e-05
1.60969e-05
1.60965e-05
1.60961e-05
1.60958e-05
1.60955e-05
1.60954e-05
1.60952e-05
1.60951e-05
1.6095e-05
1.60949e-05
1.60949e-05
1.60948e-05
1.60948e-05
1.60948e-05
1.60948e-05
1.60948e-05
1.60948e-05
1.60948e-05
1.60949e-05
1.6095e-05
1.60951e-05
1.60951e-05
1.60952e-05
1.60954e-05
1.60955e-05