/*--------------------------------*- C++ -*----------------------------------*\
| =========                 |                                                 |
| \\      /  F ield         | OpenFOAM: The Open Source CFD Toolbox           |
|  \\    /   O peration     | Version:  2506                                  |
|   \\  /    A nd           | Website:  www.openfoam.com                      |
|    \\/     M anipulation  |                                                 |
\*---------------------------------------------------------------------------*/
FoamFile
{
    version     2.0;
    format      ascii;
    arch        "LSB;label=32;scalar=64";
    class       volSymmTensorField;
    location    "200";
    object      turbulenceProperties:R;
}
// * * * * * * * * * * * * * * * * * * * * * * * * * * * * * * * * * * * * * //

dimensions      [0 2 -2 0 0 0 0];

internalField   nonuniform List<symmTensor> 
10720
(
(0.0143232 0.00301373 -7.23885e-22 0.011895 -1.58936e-20 0.0132541)
(0.0170793 0.00358179 2.69026e-22 0.013486 1.03337e-19 0.0153905)
(0.0208287 0.00416191 -2.17957e-20 0.0151567 -3.31836e-19 0.0182183)
(0.0259425 0.00491338 9.49638e-20 0.0174333 6.94976e-19 0.0219799)
(0.0322453 0.00562373 -1.85024e-19 0.0198514 -6.82212e-19 0.0263785)
(0.040491 0.00613019 -1.46224e-19 0.0225647 -3.81385e-19 0.0320241)
(0.0511633 0.00640092 2.84724e-19 0.0258776 1.08827e-18 0.0391545)
(0.0644944 0.00609499 -7.41518e-19 0.0298154 -2.01163e-18 0.0479328)
(0.0813344 0.0048484 -1.87498e-19 0.0348172 5.46952e-19 0.059093)
(0.102517 0.00239429 5.67976e-19 0.0415537 1.16284e-18 0.0732827)
(0.129287 -0.00179197 1.47927e-18 0.0508805 5.41718e-19 0.091617)
(0.163817 -0.00829285 -3.365e-18 0.0641793 -3.12244e-18 0.115873)
(0.208996 -0.0180235 6.42784e-19 0.083292 8.30543e-19 0.148432)
(0.269656 -0.0325613 2.59088e-18 0.111213 1.2283e-18 0.193265)
(0.353886 -0.0545251 -3.95977e-18 0.152998 -6.1762e-18 0.257035)
(0.474697 -0.0882559 -4.2683e-18 0.217072 -2.51504e-18 0.350536)
(0.655567 -0.142015 1.87595e-17 0.319209 1.73622e-17 0.493717)
(0.93144 -0.228883 1.77101e-17 0.484746 3.31026e-17 0.71679)
(1.39479 -0.381474 -3.46707e-17 0.777878 -5.34518e-17 1.09904)
(2.13025 -0.637854 -1.58784e-18 1.27349 1.43751e-17 1.72008)
(3.65223 -1.18284 -2.6745e-17 2.34083 5.00491e-17 3.02511)
(6.11929 -2.12339 -8.96077e-18 4.20624 4.03044e-17 5.20271)
(13.2687 -4.92368 -1.4107e-16 9.84833 -5.84174e-16 11.6349)
(26.0595 -10.3417 3.18679e-16 21.1152 5.2806e-16 23.7176)
(28.6914 -12.0851 3.92509e-17 25.4529 -6.94848e-16 27.1441)
(26.7434 -11.7639 3.78617e-16 25.6083 5.62863e-16 26.1652)
(25.5086 -11.5385 -7.83624e-17 25.8054 -7.75181e-17 25.6161)
(25.3011 -11.6703 2.73857e-16 26.6807 2.26453e-16 25.9561)
(25.2914 -11.8485 7.41498e-16 27.6424 1.19125e-15 26.444)
(24.9155 -11.8292 4.2649e-16 28.1578 1.97356e-15 26.5252)
(24.0974 -11.5758 -1.4322e-15 28.1192 -1.91007e-15 26.1111)
(22.9322 -11.1282 -4.92301e-16 27.5854 -7.18084e-16 25.2745)
(21.4149 -10.4813 1.94131e-18 26.5098 -4.39355e-15 23.9852)
(19.572 -9.64822 -2.61468e-15 24.8945 -7.23455e-15 22.2571)
(17.3815 -8.61896 1.0041e-15 22.6775 9.16893e-16 20.0516)
(14.8984 -7.4217 1.25542e-15 19.8926 1.1544e-15 17.4127)
(11.7141 -5.85844 -1.24328e-16 15.9888 -5.32104e-16 13.8717)
(8.63519 -4.32467 -1.57443e-15 11.932 -2.31241e-17 10.2874)
(1.98859 -1.00187 -1.88026e-16 3.00145 -1.98306e-15 2.4939)
(0.0118846 0.00252698 1.78023e-21 0.0105187 3.78553e-20 0.0112546)
(0.0100069 0.00208536 -2.43708e-21 0.00921891 -3.02432e-22 0.00970093)
(0.00798305 0.00161592 -1.30327e-20 0.00772041 -8.46392e-20 0.00789533)
(0.0063047 0.00121595 3.81208e-21 0.00635161 5.41805e-20 0.00635791)
(0.00479948 0.000861831 1.93896e-21 0.00497207 -9.25095e-21 0.00490049)
(0.00350304 0.000574502 -1.75721e-20 0.00366274 5.67914e-20 0.0035821)
(0.00249522 0.000369154 -9.00826e-20 0.00257055 7.24725e-20 0.00251614)
(0.00192763 0.000255798 5.60338e-20 0.00188999 -2.67776e-20 0.00188606)
(0.00212969 0.000277557 1.01565e-19 0.00192436 -5.15008e-20 0.00201004)
(0.00300015 0.000388296 -7.87997e-20 0.00249699 1.94494e-20 0.00274632)
(0.00458152 0.000631345 -2.37933e-20 0.00356328 1.1078e-19 0.00408212)
(0.00703234 0.00111003 1.75091e-19 0.00515501 7.13813e-20 0.00611276)
(0.0106488 0.00199904 3.5945e-19 0.00740724 -5.62491e-20 0.00906405)
(0.0158618 0.00354152 -8.71766e-21 0.0105724 -2.17594e-19 0.0132832)
(0.0231846 0.00598867 -6.83987e-20 0.0150391 -1.54914e-19 0.0192133)
(0.03336 0.00963304 2.87737e-20 0.0215036 -5.45446e-20 0.0275839)
(0.047726 0.0149005 -1.89605e-19 0.0311042 6.31442e-19 0.0396236)
(0.068816 0.0226893 7.1495e-19 0.0458635 2.62485e-19 0.0576279)
(0.101368 0.0347647 3.20238e-19 0.0694138 -1.18034e-18 0.085786)
(0.15376 0.054441 -1.30538e-18 0.108434 -3.35449e-19 0.131677)
(0.242691 0.0883586 -4.41811e-18 0.176386 -1.98779e-18 0.210423)
(0.397857 0.148807 -3.33843e-18 0.298512 -8.83144e-19 0.349657)
(0.690273 0.265351 6.2523e-18 0.536114 -5.90245e-19 0.615877)
(1.24113 0.491521 -7.57504e-18 1.00305 1.2198e-18 1.12758)
(2.42459 0.98973 4.11175e-18 2.04623 -7.12777e-18 2.2473)
(4.8556 2.03809 -1.27631e-16 4.27738 2.84887e-18 4.5913)
(10.657 4.58789 -7.91403e-17 9.78767 1.21015e-17 10.2807)
(21.4495 9.44886 6.64886e-17 20.5189 6.7915e-19 21.1056)
(29.6995 13.3601 8.73969e-18 29.5787 -1.04014e-19 29.7958)
(32.7597 15.0139 6.28881e-17 33.9235 -6.93225e-20 33.4893)
(33.1639 15.4466 -4.38709e-16 35.6253 -4.6027e-18 34.5181)
(32.7452 15.4641 1.57678e-16 36.3953 2.12969e-17 34.6713)
(32.0171 15.3 -1.89531e-15 36.7297 -1.5519e-16 34.4571)
(31.0707 14.9978 -3.46868e-15 36.7059 -2.30864e-16 33.9587)
(29.9327 14.5732 1.06224e-15 36.3468 1.0999e-16 33.2003)
(28.64 14.0475 1.01237e-15 35.6984 1.62235e-16 32.2222)
(26.9793 13.3209 1.45416e-15 34.5164 2.66874e-16 30.796)
(25.1775 12.4992 -2.91276e-16 33.0036 -3.66285e-17 29.1356)
(20.1905 10.0892 -4.56505e-15 27.4817 -7.85345e-16 23.8458)
(0.0022608 -0.00015441 4.36782e-23 0.00189018 1.3365e-21 0.00204571)
(0.00221818 -0.000181212 9.60238e-21 0.00191271 2.33099e-20 0.00203221)
(0.00215305 -0.00020378 -8.76407e-21 0.00193509 -1.54763e-20 0.00200478)
(0.00205415 -0.000211166 -5.93359e-21 0.00192068 -1.67639e-20 0.00194289)
(0.00192517 -0.000206342 3.90987e-20 0.00187135 7.57899e-20 0.00185014)
(0.00178575 -0.000193016 1.50497e-20 0.00180499 2.33528e-20 0.00174368)
(0.00163656 -0.000172815 7.06598e-20 0.00171044 6.49514e-20 0.00161871)
(0.00148086 -0.000148949 -3.61442e-20 0.00159086 -6.98193e-21 0.0014792)
(0.00133383 -0.000125431 5.09678e-20 0.00146489 3.53561e-20 0.00134129)
(0.00119638 -0.0001044 -1.8048e-21 0.00133396 7.54008e-23 0.00120603)
(0.00107067 -8.68211e-05 -6.95024e-20 0.00120404 -5.93707e-20 0.00107807)
(0.000982563 -7.73409e-05 9.26525e-20 0.00110938 1.15252e-19 0.000984875)
(0.000966863 -8.20019e-05 6.41681e-20 0.00109559 3.22362e-20 0.000960374)
(0.00105922 -0.000110288 -1.66353e-20 0.00120412 8.94697e-21 0.00103368)
(0.00137708 -0.000203938 -1.34855e-19 0.00155501 2.22741e-20 0.00129344)
(0.00221746 -0.000490932 3.59482e-19 0.00238074 4.10861e-19 0.0019362)
(0.00441405 -0.00131013 7.29496e-19 0.00419425 -8.02688e-19 0.00353356)
(0.00967729 -0.00320067 -4.05641e-18 0.00797022 -5.23424e-18 0.00743796)
(0.0234727 -0.00793501 4.90307e-19 0.0175109 6.94153e-18 0.0181406)
(0.0584649 -0.0198866 7.09705e-18 0.041614 -2.00374e-18 0.0462675)
(0.1656 -0.0572374 1.45203e-17 0.116711 5.81734e-18 0.134813)
(0.463796 -0.164844 -2.30742e-17 0.332326 -2.14674e-17 0.38866)
(1.34102 -0.495869 7.03771e-17 0.998852 1.70002e-16 1.15804)
(4.22433 -1.63361 1.98424e-19 3.3162 -1.40093e-16 3.76318)
(8.16725 -3.292 -2.58904e-16 6.77108 1.53089e-16 7.49715)
(12.0709 -5.04366 -9.82084e-17 10.5521 -6.0574e-16 11.3838)
(15.5675 -6.72045 2.02144e-19 14.3585 7.06116e-17 15.0628)
(17.9105 -7.96228 -2.84651e-16 17.4259 -4.15584e-16 17.7747)
(18.1888 -8.30026 -4.86778e-16 18.6555 -2.69258e-15 18.5161)
(16.4691 -7.6845 -1.69434e-16 17.7667 -3.39527e-15 17.178)
(13.805 -6.55597 5.14377e-16 15.593 4.73375e-15 14.7131)
(11.1767 -5.37849 -9.36568e-16 13.1391 -5.81486e-17 12.133)
(9.08831 -4.416 -7.16319e-15 11.0441 1.32487e-15 10.0222)
(7.5282 -3.68302 8.66929e-15 9.38339 1.546e-14 8.41047)
(6.35961 -3.127 -1.47058e-15 8.08051 -8.10177e-16 7.18282)
(5.46475 -2.6946 3.39522e-15 7.0243 -4.96623e-15 6.21315)
(4.83548 -2.39193 -1.50355e-15 6.28997 1.51484e-15 5.54209)
(4.31768 -2.11687 3.27518e-15 5.47109 4.09382e-16 4.84221)
(4.42218 -2.21626 5.4273e-15 5.86982 7.33701e-15 5.27476)
(0.00226644 -0.000116701 3.19274e-21 0.00184386 7.78577e-21 0.00202972)
(0.00225475 -7.67523e-05 -4.39674e-21 0.00179851 -3.3272e-20 0.00200256)
(0.00220313 -2.58803e-05 -6.56162e-21 0.00173325 -3.83207e-20 0.00194905)
(0.00210935 3.15181e-05 -2.5571e-21 0.00165533 5.88018e-20 0.00186847)
(0.00196552 8.54854e-05 8.39465e-22 0.00156463 1.53009e-20 0.00175774)
(0.001767 0.000128157 1.41244e-20 0.00145589 -5.42458e-20 0.00160968)
(0.00153365 0.000150905 2.86026e-20 0.0013325 -7.32687e-20 0.00143509)
(0.00131165 0.00015299 -1.20218e-19 0.00121056 3.48373e-21 0.0012663)
(0.00111093 0.000139533 1.75303e-20 0.0010912 8.00503e-20 0.00110688)
(0.000919144 0.000115925 4.05643e-23 0.000966859 -4.67239e-20 0.000946256)
(0.000749512 8.725e-05 -2.95187e-20 0.000838291 -2.80776e-20 0.000792946)
(0.000613777 6.154e-05 -2.08947e-20 0.000716172 -2.92781e-20 0.000660467)
(0.000506023 4.19064e-05 -3.73094e-21 0.000605214 6.3059e-21 0.000549015)
(0.000418456 2.80502e-05 1.21284e-20 0.000506433 3.25007e-20 0.000454907)
(0.0003463 1.8789e-05 1.99988e-20 0.000420149 7.61768e-21 0.000375503)
(0.000286465 1.27943e-05 -2.68911e-20 0.000346178 -1.26149e-21 0.000308936)
(0.000236135 8.96495e-06 2.23075e-20 0.000282726 2.20048e-21 0.000252772)
(0.000193632 6.46566e-06 -2.4088e-21 0.000228711 -6.84317e-21 0.000205503)
(0.000156287 4.6351e-06 -6.9063e-21 0.000181251 1.08243e-20 0.000164285)
(0.000121872 3.12587e-06 -4.03157e-21 0.000138035 4.32799e-21 0.00012676)
(8.7219e-05 1.75127e-06 -6.03363e-21 9.57876e-05 6.69099e-21 8.96472e-05)
(5.23927e-05 6.68893e-07 -3.51994e-21 5.55046e-05 1.80688e-21 5.32077e-05)
(1.84747e-05 8.42091e-08 -6.75122e-22 1.88541e-05 5.87553e-23 1.85635e-05)
(3.03128e-06 2.28955e-09 8.20709e-24 3.0411e-06 7.47107e-25 3.0332e-06)
(9.09466e-06 2.24176e-08 -5.16141e-24 9.17706e-06 6.85904e-24 9.10676e-06)
(0.000870714 0.00020023 4.8912e-19 0.00146411 1.23264e-19 0.00093124)
(0.00465855 0.00138064 2.72076e-18 0.00805059 -1.9129e-19 0.00488412)
(0.0380793 0.0122867 1.09626e-18 0.0633889 -4.30554e-19 0.0391634)
(0.129975 0.0467275 -7.58114e-19 0.206855 9.4413e-20 0.132445)
(0.259036 0.10402 5.01016e-17 0.389648 2.17243e-18 0.2639)
(0.394538 0.172384 4.0513e-16 0.558363 9.2207e-18 0.405213)
(0.516586 0.237167 2.4083e-16 0.694312 1.33254e-17 0.537414)
(0.618665 0.291383 1.7701e-15 0.804283 1.20662e-16 0.652865)
(0.705569 0.33695 2.55455e-15 0.902982 1.64082e-16 0.755062)
(0.783041 0.377363 -5.73105e-16 1.00012 -9.53928e-17 0.849544)
(0.8612 0.417582 -4.96109e-16 1.10416 -8.61552e-17 0.944867)
(0.938687 0.458251 -1.22938e-15 1.22009 -5.14262e-16 1.04514)
(1.1397 0.555015 -2.53286e-15 1.46235 -4.3954e-18 1.2606)
(1.5851 0.780961 -2.04734e-15 1.99159 1.36481e-15 1.80417)
(0.00151347 -0.00011948 6.73646e-22 0.00124628 9.47532e-22 0.0013949)
(0.00147355 -0.000142613 -1.05418e-20 0.00126154 -2.54e-20 0.00138575)
(0.00140501 -0.000158867 -2.30295e-21 0.00126553 -1.21937e-21 0.00135653)
(0.00131556 -0.000164239 8.84999e-21 0.00125665 1.89596e-20 0.00131187)
(0.00122457 -0.000159614 -2.78814e-20 0.00124551 -5.65073e-20 0.00126435)
(0.00113075 -0.000144407 -3.17818e-20 0.00122724 -5.20271e-20 0.00121186)
(0.00104234 -0.000120078 -6.46743e-20 0.00120203 -9.54531e-20 0.00115902)
(0.000968228 -9.02553e-05 -5.19084e-21 0.0011741 -7.94211e-22 0.00111126)
(0.000909933 -5.7275e-05 -2.87129e-20 0.00114451 -6.8016e-20 0.00107018)
(0.000869854 -2.44272e-05 1.20215e-19 0.00111597 1.36625e-19 0.00103847)
(0.000844949 6.12089e-06 -1.97416e-20 0.00108806 2.68933e-20 0.00101387)
(0.000835549 3.29535e-05 1.36622e-20 0.00106599 8.34362e-21 0.000999059)
(0.000839817 5.53785e-05 -9.3529e-20 0.00105296 -1.1895e-19 0.000994362)
(0.000856169 7.4468e-05 6.09055e-20 0.00105159 -5.65055e-21 0.00100088)
(0.000871617 8.86817e-05 1.77373e-20 0.00104743 5.51177e-20 0.00100393)
(0.000858103 9.27406e-05 2.0922e-20 0.00100636 1.00061e-20 0.000970563)
(0.00075407 7.46373e-05 -7.92766e-20 0.000853893 -4.61542e-20 0.000829748)
(0.00072788 7.25281e-05 6.77257e-20 0.000811866 5.05476e-20 0.000790766)
(9.67447e-05 1.26703e-06 3.78479e-22 9.8055e-05 3.68164e-24 9.77005e-05)
(2.23482e-07 7.29734e-12 -9.28291e-27 2.23489e-07 -1.38551e-27 2.23487e-07)
(0.00640645 0.00320601 4.75364e-18 0.00933392 -1.88044e-18 0.00834479)
(0.00057897 9.26671e-05 4.71758e-21 0.000661857 8.25957e-20 0.000629875)
(1.45836e-05 2.19665e-07 4.06205e-22 1.48282e-05 -6.05341e-22 1.47051e-05)
(0.00759763 -0.00294844 -1.76832e-18 0.00615659 -1.8926e-18 0.00661991)
(0.100855 -0.0402577 3.88997e-18 0.0837876 1.31522e-17 0.090106)
(0.371403 -0.153463 -2.48422e-17 0.323082 6.41061e-18 0.341831)
(0.953121 -0.40656 1.32035e-17 0.86931 9.55193e-19 0.902895)
(2.14293 -0.938299 -1.22664e-17 2.04063 6.80636e-17 2.08143)
(4.24206 -1.8983 -4.01921e-16 4.20225 2.21648e-16 4.21192)
(7.05287 -3.21818 1.94094e-16 7.26155 3.24161e-16 7.15144)
(9.63617 -4.47831 1.48326e-15 10.3222 -5.50076e-16 9.98456)
(10.9245 -5.16372 -2.64333e-15 12.1825 2.07146e-15 11.5724)
(10.6643 -5.11305 5.13422e-16 12.3531 8.96978e-15 11.5316)
(9.51099 -4.60886 -5.10605e-17 11.3809 -6.15777e-15 10.4598)
(8.177 -3.99148 2.99353e-15 10.0345 -2.27302e-15 9.1092)
(6.96386 -3.41186 -1.40791e-14 8.6686 5.39544e-16 7.81237)
(6.02259 -2.95925 4.88481e-15 7.57213 -1.62111e-15 6.79858)
(5.13055 -2.48758 5.08154e-15 6.1877 -1.52961e-15 5.63651)
(5.53265 -2.74028 -1.00979e-14 7.14616 2.90772e-15 6.36582)
(0.00154783 -9.01398e-05 -1.38098e-21 0.00123485 -2.62755e-21 0.00140503)
(0.00156129 -5.83945e-05 -5.15683e-21 0.00122009 -7.07882e-21 0.00140165)
(0.00156663 -1.96807e-05 2.15596e-20 0.00120921 4.58377e-20 0.00139634)
(0.00153946 2.13964e-05 4.33467e-21 0.0011892 -5.57593e-21 0.00136962)
(0.00148005 6.16789e-05 2.98468e-21 0.00116203 -3.38438e-20 0.00132408)
(0.00137719 9.46901e-05 -9.55366e-21 0.00111743 2.47689e-20 0.00124839)
(0.00123767 0.000115151 2.91721e-20 0.0010537 8.77868e-20 0.00114549)
(0.00108288 0.000121254 5.98804e-20 0.000976768 6.32639e-20 0.00103026)
(0.000940249 0.000117221 2.06959e-20 0.000904222 -5.03131e-20 0.000923043)
(0.000799867 0.000103819 4.43234e-20 0.000821809 2.6571e-20 0.000811441)
(0.000661253 8.39804e-05 -3.18079e-20 0.000721001 8.22496e-21 0.000691916)
(0.000536475 6.34319e-05 -4.48456e-21 0.000614065 2.67384e-20 0.00057675)
(0.000430628 4.54221e-05 2.32191e-21 0.000512344 -2.42565e-20 0.000473879)
(0.000343167 3.08645e-05 4.37507e-20 0.000420844 -3.06064e-20 0.000385389)
(0.000273348 1.98543e-05 3.1646e-21 0.000342951 -4.75395e-21 0.000312366)
(0.000218529 1.18417e-05 -4.8777e-21 0.000278615 2.01006e-20 0.000253494)
(0.000176785 6.23949e-06 3.17916e-20 0.000227609 -3.70902e-20 0.000207638)
(0.000145752 2.35434e-06 5.13619e-21 0.000188396 4.48636e-21 0.000172905)
(0.000123601 -3.89051e-07 3.6952e-20 0.000159551 -2.65725e-21 0.000147643)
(0.000108041 -2.48156e-06 3.97553e-20 0.00013852 8.70165e-21 0.000129536)
(9.77006e-05 -4.2174e-06 1.02597e-19 0.000123735 -1.36086e-20 0.000117112)
(9.15059e-05 -5.88819e-06 1.34099e-19 0.000113615 -2.02966e-20 0.000109137)
(8.90174e-05 -7.70419e-06 8.08718e-20 0.000107119 6.76697e-21 0.000104927)
(8.92598e-05 -9.46404e-06 1.88968e-20 0.000101771 -3.82328e-21 0.000102972)
(9.25264e-05 -1.05809e-05 -2.07267e-20 9.78066e-05 9.85723e-21 0.000103631)
(9.54851e-05 -1.00383e-05 7.56941e-20 9.34319e-05 -1.20934e-20 0.000103391)
(0.000104533 -9.44179e-06 -2.05139e-20 9.59588e-05 -1.89467e-21 0.000110237)
(6.23174e-05 -2.70927e-06 -6.16509e-21 5.7747e-05 1.24513e-22 6.36255e-05)
(0.000490293 -6.8001e-05 2.57885e-20 0.000303374 -7.55031e-22 0.000519152)
(0.00331592 -0.000271368 -1.44967e-18 0.00171252 -5.15739e-20 0.00346585)
(0.00944824 0.000456051 -8.74611e-18 0.00473826 -3.0623e-20 0.00976857)
(0.019027 0.00480335 -5.53592e-17 0.0114635 -3.19932e-18 0.019618)
(0.0391725 0.0157125 -1.35448e-16 0.0322602 -4.10576e-18 0.0405412)
(0.0769948 0.0347583 -3.3649e-16 0.0758795 -2.25094e-17 0.0803142)
(0.131652 0.0615396 -8.60052e-16 0.141369 -7.82269e-17 0.138804)
(0.198565 0.0938399 2.16961e-16 0.220994 -1.66686e-17 0.21051)
(0.269713 0.1286 -1.17805e-15 0.308174 2.09352e-16 0.288981)
(0.335642 0.155042 2.9595e-15 0.355744 5.35052e-16 0.344432)
(0.552807 0.263301 4.65296e-15 0.6201 9.5413e-16 0.598536)
(0.00128382 -9.69184e-05 3.58555e-21 0.00105598 6.10689e-21 0.00116466)
(0.00126853 -0.000114993 -4.98068e-21 0.00107643 -8.97043e-21 0.00116669)
(0.00123879 -0.000130631 -2.26772e-21 0.00109546 -1.30539e-21 0.00115971)
(0.00120237 -0.000140814 2.69519e-20 0.0011134 3.9399e-20 0.001149)
(0.00115475 -0.000144082 1.71794e-20 0.00112211 3.1042e-20 0.00112786)
(0.00109744 -0.000140548 2.18365e-20 0.00112123 4.17111e-20 0.00109679)
(0.00103562 -0.000130927 3.3288e-20 0.00111015 3.84614e-20 0.00105833)
(0.000969266 -0.000116344 -1.90727e-20 0.00108519 -2.95821e-20 0.00101066)
(0.000901537 -9.85399e-05 -6.83932e-20 0.0010485 -6.76974e-20 0.00095628)
(0.00083393 -7.9527e-05 8.88301e-20 0.00100036 5.00364e-20 0.000896434)
(0.000767261 -6.07695e-05 7.49074e-20 0.000942583 6.34074e-20 0.000832337)
(0.000701693 -4.34566e-05 9.71976e-20 0.000876827 4.65614e-20 0.000765108)
(0.000636847 -2.83806e-05 -1.60386e-19 0.000804487 -5.13815e-20 0.000695424)
(0.000572746 -1.58487e-05 -1.37073e-19 0.000727689 -9.20164e-20 0.000624513)
(0.000509451 -5.87315e-06 1.82265e-19 0.000648151 5.73006e-20 0.000553116)
(0.000443439 2.75022e-06 3.70319e-20 0.00056296 2.27749e-20 0.000478673)
(0.00037815 9.99685e-06 -2.72255e-20 0.000475497 2.81854e-21 0.000404776)
(0.00032504 1.59067e-05 -8.67043e-20 0.000401494 -5.68155e-20 0.000344427)
(0.000248254 1.50251e-05 1.45902e-20 0.000289951 -5.59591e-21 0.000258435)
(0.000157955 7.52123e-06 2.63262e-20 0.000171195 8.1231e-21 0.000161363)
(1.39756e-07 5.64546e-12 -2.19798e-26 1.39763e-07 -6.31879e-27 1.39758e-07)
(6.51855e-05 1.09549e-06 1.72567e-21 6.62071e-05 2.4413e-22 6.55445e-05)
(2.91538e-06 1.95022e-09 -7.75612e-25 2.91675e-06 -1.68106e-25 2.9159e-06)
(0.0018171 0.000631081 -4.90573e-19 0.0021112 2.42614e-19 0.00192358)
(0.0119079 0.00552643 3.00375e-18 0.0131145 -9.6463e-19 0.0121703)
(0.026994 0.0119317 -6.53453e-18 0.0266649 8.72676e-18 0.0260637)
(4.28211e-05 8.5071e-07 6.83493e-24 4.25806e-05 -1.45733e-23 4.26405e-05)
(0.00113209 0.000373076 3.14517e-19 0.00082097 -1.12146e-19 0.000935248)
(0.0151284 -0.00422463 4.95053e-18 0.00882793 1.22585e-17 0.0113926)
(0.173066 -0.0732559 2.16162e-17 0.155875 -1.02087e-16 0.162894)
(0.812046 -0.363846 -5.85512e-17 0.807059 -3.43423e-16 0.806667)
(2.30198 -1.06012 1.86177e-15 2.41938 4.92409e-16 2.35696)
(4.45132 -2.09051 2.75128e-15 4.89266 6.25128e-16 4.6702)
(6.31877 -3.01421 -1.57101e-15 7.22607 -2.12179e-15 6.77622)
(7.1714 -3.46189 -7.00685e-15 8.48298 1.38033e-15 7.83541)
(7.10895 -3.45591 4.69399e-15 8.60213 4.72655e-15 7.85979)
(6.6918 -3.26787 -9.88243e-15 8.21839 -1.30077e-16 7.46204)
(6.02143 -2.90643 -1.27564e-14 7.14481 1.84556e-15 6.5687)
(6.31222 -3.09861 9.12762e-15 7.8509 -3.42936e-15 7.12327)
(0.0012848 -7.4357e-05 -5.52124e-21 0.00102882 -1.11868e-20 0.00115331)
(0.00127436 -5.05216e-05 -1.9317e-21 0.00100116 7.79052e-21 0.00113473)
(0.00124792 -2.10676e-05 1.82739e-20 0.000967264 3.45725e-20 0.00110613)
(0.00120859 1.00131e-05 -7.93601e-21 0.000934614 -3.19038e-22 0.0010709)
(0.00115176 4.03308e-05 6.79857e-21 0.000901134 4.30411e-20 0.00102653)
(0.00107233 6.6268e-05 -2.3977e-21 0.000862488 -4.20412e-20 0.000967556)
(0.000977171 8.44631e-05 2.25075e-20 0.00082025 -6.19153e-22 0.000898573)
(0.000875935 9.32386e-05 -5.57467e-20 0.000775388 -3.36373e-20 0.0008257)
(0.000772375 9.32761e-05 -3.01791e-20 0.000725984 2.64424e-21 0.000749636)
(0.000665798 8.54514e-05 5.07484e-20 0.000666461 2.23891e-20 0.000666771)
(0.000563204 7.23908e-05 2.34548e-20 0.000598142 -1.95878e-21 0.000581223)
(0.000472831 5.78052e-05 2.79198e-20 0.000528658 -1.71868e-20 0.000501013)
(0.000397148 4.4132e-05 -4.34188e-20 0.000463169 -2.78351e-20 0.000429988)
(0.000334937 3.24556e-05 -5.34586e-20 0.000403693 1.01808e-20 0.000368652)
(0.000284532 2.31737e-05 4.97988e-21 0.00035133 1.39817e-20 0.000316755)
(0.000243688 1.61164e-05 1.64755e-20 0.000306014 -4.8993e-21 0.000273216)
(0.000210977 1.09669e-05 -4.06796e-20 0.000267879 -3.05776e-21 0.000237379)
(0.000184846 7.27253e-06 -1.48836e-21 0.000236304 -6.4093e-21 0.000208186)
(0.000164157 4.58991e-06 -1.55573e-20 0.000210681 -2.98103e-21 0.000184753)
(0.000147465 2.52619e-06 3.27834e-20 0.000189644 -1.87153e-20 0.0001657)
(0.000134017 8.23402e-07 -3.57228e-20 0.00017243 -1.21396e-20 0.000150223)
(0.00012283 -7.36485e-07 -7.40412e-20 0.000157848 -8.48311e-21 0.000137233)
(0.000112956 -2.27873e-06 3.44221e-21 0.000144613 -1.10695e-20 0.000125583)
(0.000102713 -3.71162e-06 1.90138e-20 0.000130496 -1.06538e-20 0.000113343)
(9.22978e-05 -4.6105e-06 5.74172e-20 0.000115932 -4.0173e-21 0.000100699)
(8.37384e-05 -4.89e-06 -5.38609e-20 0.000103883 -2.95927e-21 9.00524e-05)
(7.73364e-05 -4.83168e-06 -9.23225e-21 9.47845e-05 2.79995e-21 8.192e-05)
(7.28166e-05 -4.67136e-06 5.60924e-21 8.83516e-05 4.59793e-22 7.60459e-05)
(6.68593e-05 -4.26112e-06 -2.55762e-21 8.01517e-05 -9.7018e-23 6.88961e-05)
(5.9635e-05 -3.85798e-06 -3.77853e-21 7.08613e-05 1.41234e-22 6.0774e-05)
(4.34581e-05 -2.61738e-06 -5.14416e-21 5.02895e-05 -3.07679e-22 4.38032e-05)
(2.79152e-05 -1.60218e-06 1.29489e-20 3.15001e-05 3.81027e-22 2.78563e-05)
(0.000201769 -5.50191e-05 1.96112e-18 0.000305884 1.31475e-19 0.000185348)
(0.000395628 -4.14567e-05 1.89103e-17 0.000504145 1.74304e-18 0.000285732)
(0.00172075 0.000621059 7.92395e-17 0.0013412 1.03274e-17 0.00138116)
(0.00871982 0.00340018 -1.74453e-16 0.00688025 -2.65624e-17 0.00789024)
(0.0273122 0.0114056 7.49869e-16 0.0236455 1.10823e-16 0.0262101)
(0.0715829 0.0282799 -4.90202e-16 0.0574925 -1.69487e-16 0.0652834)
(0.232206 0.10553 -3.31084e-16 0.233098 -1.41862e-15 0.239885)
(0.000961448 -7.38229e-05 -5.13021e-21 0.000791476 -7.59286e-21 0.000878139)
(0.000945344 -8.7291e-05 1.00144e-21 0.000803862 1.5757e-21 0.000877038)
(0.000919705 -9.85512e-05 6.1115e-21 0.00081554 6.64649e-21 0.000870323)
(0.000886144 -0.000105411 -3.74807e-20 0.000824101 -5.30211e-20 0.000858569)
(0.000844947 -0.000107066 -2.74449e-20 0.000827017 -3.20708e-20 0.000840211)
(0.000796876 -0.000103286 6.40802e-20 0.000823382 7.65227e-20 0.000815083)
(0.000745322 -9.43393e-05 -6.80132e-20 0.000812377 -8.42597e-20 0.000784783)
(0.000692219 -8.10447e-05 -3.07209e-20 0.000793115 -2.04764e-20 0.000749651)
(0.000639596 -6.45271e-05 -7.31394e-20 0.000765977 -5.46944e-20 0.000710816)
(0.000590354 -4.63704e-05 -1.36605e-20 0.000732739 -2.47959e-20 0.00067077)
(0.000545794 -2.78715e-05 9.17407e-21 0.00069488 -3.29481e-21 0.000630753)
(0.000507091 -1.0217e-05 -5.02627e-20 0.000654443 -6.65296e-20 0.000592382)
(0.000475237 5.63e-06 1.63687e-19 0.000613952 1.12022e-19 0.000557363)
(0.000450463 1.90972e-05 -5.39515e-20 0.000575504 -9.41635e-21 0.000526741)
(0.000432543 3.01034e-05 -1.32579e-19 0.0005406 -5.79451e-20 0.000501158)
(0.000419904 3.83004e-05 8.81593e-20 0.000509745 1.73379e-21 0.000479718)
(0.000406327 4.3364e-05 -6.42747e-20 0.000478139 -3.70558e-20 0.000456571)
(0.000387523 4.55022e-05 8.62155e-22 0.000441643 4.71847e-20 0.000427779)
(0.000367974 4.6517e-05 -1.58914e-20 0.000406762 -1.24791e-20 0.000399334)
(0.000332883 4.26607e-05 -1.09358e-19 0.000356241 -7.56091e-20 0.000354243)
(0.000273886 3.17299e-05 6.64288e-20 0.000284202 6.46242e-20 0.00028513)
(0.000149247 9.82577e-06 5.29538e-22 0.000151042 -1.60699e-20 0.000151601)
(4.46452e-09 8.2679e-15 4.67394e-30 4.46452e-09 1.43182e-30 4.46453e-09)
(4.54202e-06 7.60843e-09 1.09975e-23 4.54188e-06 -4.99076e-25 4.54252e-06)
(0 0 -0 0 -0 0)
(0 0 0 0 0 0)
(2.83753e-06 2.60558e-09 -2.11348e-25 2.83668e-06 4.98426e-27 2.83716e-06)
(0.000293617 2.6135e-05 -4.26429e-21 0.00028437 -2.6652e-21 0.000289321)
(0.013055 0.00530906 7.10417e-21 0.0109896 1.39387e-18 0.0120461)
(0.00366859 0.00142327 -4.09156e-18 0.00301763 3.3832e-19 0.0033408)
(0.0130594 0.00497152 -5.82322e-18 0.0100534 9.83061e-19 0.0115244)
(0.0441427 0.0136274 2.06469e-17 0.0272639 -1.22576e-16 0.0354654)
(0.147928 -0.054905 4.7054e-16 0.110526 -5.86211e-16 0.128281)
(0.951209 -0.432503 -2.56967e-15 0.973324 1.34761e-16 0.959809)
(2.60758 -1.22865 4.37253e-15 2.89115 1.66535e-15 2.74665)
(4.42289 -2.11773 -8.81571e-16 5.11513 4.05969e-16 4.76751)
(5.64075 -2.72727 -1.62411e-15 6.70595 3.84441e-15 6.17861)
(6.07309 -2.91368 6.73553e-16 7.07772 2.49146e-16 6.56054)
(6.65441 -3.24721 -1.68689e-14 8.09319 4.25682e-15 7.42832)
(0.000970592 -5.74363e-05 3.28046e-21 0.000777657 1.29371e-21 0.000875884)
(0.000972284 -3.98887e-05 -1.18617e-20 0.000764095 -1.69044e-20 0.00086917)
(0.000964275 -1.83612e-05 1.46046e-21 0.000747557 7.68614e-21 0.000856819)
(0.000943611 4.86446e-06 6.53357e-21 0.000729094 -2.17147e-20 0.000836814)
(0.000908453 2.80227e-05 -5.27726e-20 0.000708565 -7.52898e-20 0.000808827)
(0.000855109 4.85338e-05 -4.68779e-20 0.000683171 3.63211e-20 0.000769126)
(0.000789098 6.39576e-05 7.54379e-20 0.000655016 3.87608e-20 0.000721872)
(0.000717484 7.28391e-05 -2.45135e-20 0.000625457 -7.03475e-20 0.000671411)
(0.000642326 7.51978e-05 -3.3076e-20 0.000592485 9.39908e-21 0.000617505)
(0.000563866 7.13744e-05 -2.25161e-20 0.000552266 -3.91286e-20 0.000558254)
(0.000487326 6.30475e-05 7.82073e-21 0.00050558 1.19792e-20 0.000496624)
(0.000416991 5.25739e-05 -1.49476e-20 0.000455425 -1.92895e-20 0.000436367)
(0.00035461 4.18253e-05 -3.09072e-20 0.000404562 4.11982e-20 0.000379778)
(0.000300208 3.19239e-05 3.28453e-20 0.000354935 1.8859e-20 0.000327846)
(0.000253497 2.34802e-05 2.77472e-20 0.000308233 -1.27165e-20 0.000281259)
(0.0002139 1.66489e-05 -5.70299e-21 0.000265722 -1.13199e-20 0.000240367)
(0.000180816 1.13465e-05 1.65658e-20 0.000228212 3.61659e-21 0.000205249)
(0.000153569 7.31486e-06 -2.46212e-20 0.000196048 6.28224e-21 0.000175725)
(0.000131521 4.25883e-06 1.74356e-20 0.000169221 -4.94252e-22 0.000151457)
(0.000113797 1.8763e-06 -2.29076e-20 0.000147111 -1.05454e-20 0.000131698)
(9.96996e-05 -6.89621e-08 2.21653e-20 0.000129079 1.77512e-21 0.000115762)
(8.84287e-05 -1.7685e-06 2.96273e-20 0.00011418 6.35433e-21 0.000102786)
(7.91908e-05 -3.32978e-06 -2.12707e-21 0.000101337 2.70077e-21 9.18324e-05)
(7.06877e-05 -4.69482e-06 -5.56254e-20 8.87626e-05 1.06357e-22 8.14078e-05)
(6.22304e-05 -5.56284e-06 -2.06637e-20 7.57833e-05 -8.65747e-21 7.08228e-05)
(5.44776e-05 -5.83323e-06 -6.09921e-21 6.37188e-05 9.20663e-21 6.1022e-05)
(4.85118e-05 -5.74132e-06 2.26115e-20 5.39323e-05 2.5553e-22 5.3323e-05)
(4.47231e-05 -5.41062e-06 8.05344e-22 4.677e-05 -1.75942e-22 4.80847e-05)
(4.37614e-05 -5.08122e-06 -1.29242e-21 4.28928e-05 1.03542e-22 4.59835e-05)
(4.143e-05 -4.0998e-06 1.3607e-20 3.84873e-05 8.07058e-23 4.25333e-05)
(5.23049e-05 -5.57356e-06 1.56503e-20 4.54686e-05 5.10609e-22 5.2895e-05)
(1.1308e-05 -2.88367e-07 -4.43416e-21 1.08446e-05 -2.4865e-22 1.1291e-05)
(8.70068e-05 -1.28618e-05 -5.68207e-19 6.3328e-05 -4.39326e-20 8.408e-05)
(0.000446641 -0.000105736 -1.03127e-18 0.000237555 -1.18373e-19 0.000403302)
(0.00114571 -0.0002659 2.05066e-18 0.000579926 3.91773e-20 0.000980455)
(0.00101165 -0.000203069 -3.86251e-18 0.00047261 1.55573e-18 0.000801872)
(0.00151566 -0.00015589 -2.14272e-17 0.000603806 -1.77266e-17 0.00111218)
(0.00293772 0.000208384 5.37878e-17 0.00115487 3.84639e-18 0.00201444)
(0.0497663 0.020029 -2.93359e-16 0.0406199 5.2852e-17 0.0472858)
(0.000788342 -6.05644e-05 4.50068e-21 0.000649286 5.19867e-21 0.000718199)
(0.000780712 -7.14419e-05 -1.13007e-20 0.000662906 -1.35073e-20 0.000721253)
(0.000766369 -8.10186e-05 -9.03411e-22 0.00067687 -1.89588e-21 0.000720728)
(0.000747715 -8.7661e-05 -4.67781e-21 0.000690424 -2.48752e-21 0.000718016)
(0.000723632 -9.05791e-05 3.72895e-20 0.00070051 4.27998e-20 0.000710807)
(0.000694612 -8.96313e-05 2.85736e-20 0.000706897 2.35866e-20 0.000699092)
(0.000662679 -8.48437e-05 3.98768e-22 0.000708406 1.14759e-20 0.000683519)
(0.000628324 -7.66215e-05 7.09527e-20 0.000703379 6.86301e-20 0.000663395)
(0.000592652 -6.56714e-05 -8.82953e-21 0.000691665 -1.16142e-21 0.000639138)
(0.000556871 -5.30464e-05 -2.44925e-20 0.000673191 -1.15072e-20 0.000611427)
(0.00052139 -3.96899e-05 4.81185e-20 0.000648142 1.79659e-20 0.000580496)
(0.000486684 -2.6506e-05 -6.47571e-20 0.000617349 -2.50952e-20 0.000547013)
(0.000453187 -1.43139e-05 -1.14427e-19 0.000582052 -8.93444e-20 0.000511854)
(0.000420928 -3.61126e-06 -4.78206e-20 0.0005434 1.22766e-20 0.000475594)
(0.000389907 5.30927e-06 2.06361e-19 0.000502616 9.31285e-20 0.000438901)
(0.000358965 1.22182e-05 -1.49188e-19 0.000459428 -6.79579e-20 0.000401096)
(0.000325631 1.75378e-05 -3.5896e-20 0.000411569 3.1147e-20 0.000360314)
(0.000291526 2.12566e-05 6.71355e-20 0.000361725 4.37443e-20 0.000318666)
(0.000259854 2.36413e-05 -4.25355e-20 0.000314571 -3.102e-22 0.000279974)
(0.000231576 2.47456e-05 -1.39605e-20 0.000271731 3.50189e-20 0.000245441)
(0.000212048 2.58959e-05 2.02521e-20 0.000240212 -1.31148e-20 0.000220921)
(0.000188221 2.38211e-05 -1.41905e-19 0.000203491 1.39628e-20 0.000192196)
(0.000156795 1.77596e-05 1.06948e-21 0.000160904 -1.74923e-20 0.000156968)
(5.88431e-05 2.54529e-06 -1.0446e-20 5.84624e-05 1.06023e-21 5.84902e-05)
(7.84363e-06 4.43083e-08 4.99194e-23 7.82259e-06 1.46534e-23 7.83132e-06)
(3.69925e-06 9.66815e-09 -3.54231e-24 3.69239e-06 -1.50548e-23 3.69548e-06)
(2.02914e-06 2.89468e-09 -2.29707e-25 2.02678e-06 -2.20172e-26 2.02786e-06)
(6.94756e-08 3.29235e-12 5.95052e-28 6.9473e-08 1.65638e-29 6.94742e-08)
(0 0 0 0 -0 0)
(0.000286762 3.88152e-05 4.4761e-20 0.000260073 7.31379e-20 0.000273021)