/*--------------------------------*- C++ -*----------------------------------*\
| =========                 |                                                 |
| \\      /  F ield         | OpenFOAM: The Open Source CFD Toolbox           |
|  \\    /   O peration     | Version:  2506                                  |
|   \\  /    A nd           | Website:  www.openfoam.com                      |
|    \\/     M anipulation  |                                                 |
\*---------------------------------------------------------------------------*/
FoamFile
{
    version     2.0;
    format      ascii;
    arch        "LSB;label=32;scalar=64";
    class       surfaceScalarField;
    location    "26";
    object      phi;
}
// * * * * * * * * * * * * * * * * * * * * * * * * * * * * * * * * * * * * * //

dimensions      [0 3 -1 0 0 0 0];

oriented        oriented;

internalField   nonuniform List<scalar> 
760
(
1.3504e-05
-1.35039e-05
2.49364e-05
-1.14323e-05
2.56415e-05
-7.0509e-07
1.33795e-05
1.2262e-05
-1.53372e-05
2.87167e-05
-6.62089e-05
5.08717e-05
-0.00014223
7.60207e-05
-0.0002361
9.38707e-05
-0.000329724
9.36235e-05
-0.000401273
7.15488e-05
-0.000434154
3.28813e-05
-0.000418848
-1.53054e-05
-0.000348868
-6.99804e-05
-0.000234697
-0.000114171
-9.80417e-05
-0.000136655
2.54016e-05
-0.000123443
9.86119e-05
-7.32103e-05
9.62132e-05
2.39867e-06
4.34114e-05
5.28018e-05
4.34114e-05
9.14952e-06
-2.26534e-05
1.71701e-06
-3.9998e-06
-3.40546e-05
3.50666e-05
-0.000106969
8.51768e-05
-0.000221703
0.00014345
-0.000371984
0.000201153
-0.000535962
0.000239999
-0.000684551
0.00024246
-0.000795264
0.000204336
-0.000856318
0.000132603
-0.000862626
3.91888e-05
-0.000811358
-6.65728e-05
-0.000705561
-0.000175777
-0.000548221
-0.000271512
-0.000353056
-0.00033182
-0.000149289
-0.00032721
1.18479e-05
-0.000234347
7.95922e-05
-6.53456e-05
4.97076e-05
8.26864e-05
9.31191e-05
-1.46548e-05
-7.99861e-06
-6.38039e-05
4.51492e-05
-0.000156565
0.000127827
-0.000297449
0.000226061
-0.000476826
0.000322826
-0.000668513
0.000392841
-0.000842619
0.000414104
-0.000980356
0.000380198
-0.00107532
0.0002993
-0.00112619
0.000183474
-0.00112854
4.15366e-05
-0.00108596
-0.000109155
-0.000997354
-0.000264379
-0.000857493
-0.000411373
-0.000664296
-0.000525017
-0.000426634
-0.000564872
-0.000182977
-0.000478004
-9.76202e-06
-0.000238561
2.8467e-05
4.44574e-05
0.000121586
-4.77607e-05
3.97621e-05
-0.000147434
0.000144823
-0.000292786
0.000273179
-0.000476827
0.000410102
-0.000677148
0.000523147
-0.000864954
0.000580647
-0.00101949
0.000568636
-0.00113472
0.000495431
-0.00121265
0.000377234
-0.00125647
0.000227292
-0.00126506
5.01229e-05
-0.00124327
-0.000130945
-0.00118813
-0.000319522
-0.00108962
-0.00050988
-0.000934915
-0.000679721
-0.000711867
-0.00078792
-0.000424829
-0.000765042
-0.000133731
-0.000529658
1.14529e-05
-0.000100726
0.000133039
-8.00897e-05
0.000119852
-0.000219786
0.000284519
-0.000395074
0.000448467
-0.000589606
0.000604635
-0.000777627
0.000711167
-0.00093673
0.000739749
-0.00105757
0.000689475
-0.00114147
0.000579336
-0.00119408
0.000429845
-0.00122246
0.000255668
-0.00123507
6.27275e-05
-0.00123196
-0.000134047
-0.00121196
-0.000339525
-0.00116707
-0.000554767
-0.0010789
-0.0007679
-0.000919169
-0.000947646
-0.000659477
-0.00102473
-0.000310911
-0.000878223
-2.5692e-05
-0.000385946
0.000107347
-9.99836e-05
0.000219835
-0.000258261
0.000442797
-0.000437051
0.000627257
-0.000615646
0.000783229
-0.000772292
0.000867814
-0.000892715
0.000860173
-0.000974708
0.000771468
-0.00102375
0.000628382
-0.00104845
0.000454543
-0.00105876
0.00026598
-0.00106671
7.06702e-05
-0.0010727
-0.000128053
-0.00107769
-0.000334538
-0.00107873
-0.000553725
-0.00106021
-0.000786417
-0.000989326
-0.00101853
-0.000817656
-0.0011964
-0.000506086
-0.00118979
-0.000111723
-0.000780309
-4.37599e-06
-0.000101843
0.000321678
-0.000255991
0.000596944
-0.000417537
0.000788803
-0.000566278
0.00093197
-0.000686209
0.000987745
-0.000769579
0.000943542
-0.000818519
0.000820408
-0.000840876
0.000650739
-0.000846766
0.000460433
-0.000846197
0.000265412
-0.000848057
7.25305e-05
-0.000855206
-0.000120904
-0.000869714
-0.000320031
-0.00089281
-0.000530628
-0.000918313
-0.000760914
-0.000922126
-0.00101472
-0.000851981
-0.00126655
-0.000634306
-0.00140747
-0.000233337
-0.00118128
-0.000237712
-8.5773e-05
0.000407451
-0.000218248
0.000729419
-0.000350921
0.000921476
-0.00046571
0.00104676
-0.000552013
0.00107405
-0.000606789
0.000998318
-0.000634467
0.000848087
-0.000643513
0.000659786
-0.000643531
0.000460451
-0.000642323
0.000264203
-0.000644146
7.43544e-05
-0.000651125
-0.000113926
-0.000665862
-0.000305294
-0.000691913
-0.000504578
-0.000730962
-0.000721864
-0.00077285
-0.000972833
-0.000774949
-0.00126445
-0.000655523
-0.0015269
-0.000345897
-0.0014909
-0.00058361
-5.72209e-05
0.000464672
-0.000157167
0.000829366
-0.000256306
0.00102062
-0.000338127
0.00112858
-0.000396535
0.00113246
-0.00043156
0.00103334
-0.000448235
0.000864762
-0.000454006
0.000665557
-0.000456206
0.00046265
-0.000459563
0.000267561
-0.000465351
8.01424e-05
-0.000474327
-0.00010495
-0.000487941
-0.000291679
-0.000509799
-0.00048272
-0.000546209
-0.000685454
-0.000598228
-0.000920814
-0.000641773
-0.0012209
-0.000600969
-0.0015677
-0.000383085
-0.00170879
-0.000966695
-2.1225e-05
0.000485897
-8.33909e-05
0.000891531
-0.000147913
0.00108514
-0.000199515
0.00118018
-0.00023499
0.00116793
-0.000256221
0.00105457
-0.000267646
0.000876186
-0.000274409
0.00067232
-0.000280979
0.00046922
-0.000289649
0.00027623
-0.000300599
9.1093e-05
-0.000313682
-9.18679e-05
-0.000329153
-0.000276208
-0.000348969
-0.000462905
-0.000379559
-0.000654863
-0.00042989
-0.000870483
-0.000492949
-0.00115785
-0.000505528
-0.00155512
-0.000350793
-0.00186352
-0.00131749
1.50231e-05
0.000470874
-6.65014e-06
0.000913205
-3.851e-05
0.001117
-6.28726e-05
0.00120454
-7.80111e-05
0.00118307
-8.6815e-05
0.00106338
-9.3169e-05
0.00088254
-0.000100278
0.000679429
-0.000109686
0.000478628
-0.000121971
0.000288515
-0.000137066
0.000106188
-0.00015499
-7.39442e-05
-0.00017562
-0.000255578
-0.000199314
-0.00043921
-0.000229981
-0.000624196
-0.000278586
-0.000821878
-0.000350833
-0.0010856
-0.00039967
-0.00150628
-0.000300433
-0.00196276
-0.00161792
4.55578e-05
0.000425316
6.40234e-05
0.000894739
6.825e-05
0.00111277
7.21263e-05
0.00120067
7.717e-05
0.00117803
8.05141e-05
0.00106003
7.98716e-05
0.000883183
7.44143e-05
0.000684886
6.44599e-05
0.000488583
5.0632e-05
0.000302343
3.28142e-05
0.000124006
1.05838e-05
-5.17138e-05
-1.64433e-05
-0.000228551
-4.889e-05
-0.000406763
-8.79884e-05
-0.000585098
-0.000139932
-0.000769935
-0.000220053
-0.00100548
-0.000296587
-0.00142975
-0.000246749
-0.0020126
-0.00186467
6.81921e-05
0.000357124
0.000123909
0.000839022
0.000161542
0.00107514
0.000194227
0.00116798
0.00022228
0.00114997
0.000241781
0.00104053
0.000251212
0.000873752
0.000251558
0.00068454
0.000244581
0.00049556
0.000231475
0.000315448
0.000211984
0.000143497
0.000184813
-2.45424e-05
0.000149964
-0.000193702
0.000106887
-0.000363687
5.48611e-05
-0.000533072
-1.24012e-05
-0.000702672
-0.000100434
-0.000917444
-0.000197383
-0.0013328
-0.000195125
-0.00201485
-0.0020598
7.7887e-05
0.000279237
0.000164845
0.000752064
0.00023533
0.00100465
0.000298076
0.00110524
0.000353049
0.001095
0.00039499
0.000998592
0.00042141
0.000847331
0.000433384
0.000672567
0.000433421
0.000495523
0.000423425
0.000325444
0.000403507
0.000163415
0.000371602
7.36318e-06
0.000328187
-0.000150287
0.000271776
-0.000307276
0.000202298
-0.000463594
0.000120908
-0.000621282
1.7267e-05
-0.000813803
-0.000104416
-0.00121112
-0.000146826
-0.00197244
-0.00220662
7.14847e-05
0.000207752
0.000176422
0.000647126
0.000274666
0.00090641
0.000368944
0.00101096
0.000455676
0.00100827
0.000527425
0.000926843
0.000579308
0.000795449
0.000611039
0.000640836
0.000624698
0.000481865
0.000622395
0.000327746
0.000604442
0.000181368
0.000570076
4.17293e-05
0.000517235
-9.74467e-05
0.000446216
-0.000236256
0.00035655
-0.000373928
0.000251349
-0.000516081
0.000125257
-0.000687712
-2.36265e-05
-0.00106223
-9.7406e-05
-0.00189866
-0.00230403
5.05344e-05
0.000157218
0.000156966
0.000540695
0.000281761
0.000781615
0.000410509
0.000882211
0.000533617
0.000885158
0.000640583
0.000819877
0.000723867
0.000712165
0.000781365
0.000583339
0.000813995
0.000449234
0.000823518
0.000318223
0.000810721
0.000194165
0.000775627
7.68235e-05
0.000714073
-3.58924e-05
0.000628083
-0.000150267
0.000516762
-0.000262608
0.000385002
-0.00038432
0.000238075
-0.000540784
8.06461e-05
-0.000904806
-2.16317e-05
-0.00179639
-0.00232566
1.08708e-05
0.000146347
8.78638e-05
0.000463702
0.00022435
0.000645129
0.00038691
0.000719651
0.000552316
0.000719752
0.00070187
0.000670323
0.00082437
0.000589665
0.000915959
0.000491749
0.000975565
0.000389628
0.0010043
0.000289483
0.0010026
0.000195872
0.000971255
0.000108166
0.000907367
2.79962e-05
0.000811148
-5.40479e-05
0.000683952
-0.000135412
0.000530987
-0.000231356
0.000367844
-0.000377641
0.0002096
-0.000746562
5.9607e-05
-0.00164639
-0.00226605
-4.9032e-05
0.000195379
1.2514e-05
0.000402156
0.000153006
0.000504637
0.000344707
0.00052795
0.000548673
0.000515787
0.000736972
0.000482024
0.000895132
0.000431505
0.00101823
0.000368653
0.00110369
0.000304162
0.00115303
0.000240151
0.00116653
0.000182369
0.00114642
0.000128276
0.00109413
8.02827e-05
0.00100901
3.10736e-05
0.000892223
-1.86236e-05
0.000749717
-8.885e-05
0.00060066
-0.000228584
0.00043115
-0.000577052
0.00019945
-0.00141469
-0.0020666
-0.000415279
0.000610658
-0.000364924
0.000351802
-0.000136358
0.000276071
0.000129876
0.000261715
0.00039116
0.000254503
0.000634424
0.00023876
0.000848935
0.000216995
0.00102843
0.000189155
0.0011706
0.000161995
0.00127758
0.000133171
0.0013508
0.000109151
0.00139452
8.45542e-05
0.0014081
6.67033e-05
0.00139344
4.57331e-05
0.00134824
2.65775e-05
0.00127401
-1.46246e-05
0.00117208
-0.000126655
0.00100228
-0.000407244
0.000560077
-0.000972493
-0.00150653
0.000610658
0.00096246
0.00123853
0.00150025
0.00175475
0.00199351
0.0022105
0.00239966
0.00256165
0.00269482
0.00280397
0.00288853
0.00295523
0.00300097
0.00302754
0.00301292
0.00288626
0.00247902
0.00150653
)
;

boundaryField
{
    movingWall
    {
        type            calculated;
        value           uniform 0;
    }
    fixedWalls
    {
        type            calculated;
        value           uniform 0;
    }
    frontAndBack
    {
        type            empty;
    }
}


// ************************************************************************* //
