/*--------------------------------*- C++ -*----------------------------------*\
| =========                 |                                                 |
| \\      /  F ield         | OpenFOAM: The Open Source CFD Toolbox           |
|  \\    /   O peration     | Version:  2506                                  |
|   \\  /    A nd           | Website:  www.openfoam.com                      |
|    \\/     M anipulation  |                                                 |
\*---------------------------------------------------------------------------*/
FoamFile
{
    version     2.0;
    format      ascii;
    arch        "LSB;label=32;scalar=64";
    class       volScalarField;
    location    "400";
    object      turbulenceProperties:k;
}
// * * * * * * * * * * * * * * * * * * * * * * * * * * * * * * * * * * * * * //

dimensions      [0 2 -2 0 0 0 0];

internalField   nonuniform List<scalar> 
1340
(
48.1503
46.0271
43.5545
35.6742
1.44803
1.59465
1.9219
2.67274
0.312072
0.430007
0.514683
0.878562
0.0115621
0.0379378
0.0958665
0.349031
0.00259201
0.000947375
0.00297203
0.0676673
4.65814e-07
0.000160144
0.000683278
0.00769888
1.38504e-05
1.33746e-06
6.56902e-08
0.000229439
1.95865e-05
1.38858e-05
1.57037e-06
1.62529e-05
2.44908e-05
2.62079e-05
2.76952e-05
1.05083e-06
2.06562e-05
2.03423e-05
3.41203e-05
1.41769e-05
2.08835e-05
2.07857e-05
2.94792e-05
3.68107e-05
1.93716e-05
1.95854e-05
2.51714e-05
4.02083e-05
1.86334e-05
1.88977e-05
2.31757e-05
3.69539e-05
1.7596e-05
1.77527e-05
2.14575e-05
3.32419e-05
1.66631e-05
1.67219e-05
1.98519e-05
2.99832e-05
1.56625e-05
1.56313e-05
1.82548e-05
2.70296e-05
1.46659e-05
1.45524e-05
1.67269e-05
2.42927e-05
1.36525e-05
1.34629e-05
1.52636e-05
2.17548e-05
1.26364e-05
1.23768e-05
1.38645e-05
1.94089e-05
1.16202e-05
1.12968e-05
1.25327e-05
1.72596e-05
1.06105e-05
1.02293e-05
1.1264e-05
1.52928e-05
9.61248e-06
9.18151e-06
1.00605e-05
1.35027e-05
8.63266e-06
8.15791e-06
8.92244e-06
1.18825e-05
7.67771e-06
7.16557e-06
7.84849e-06
1.04191e-05
6.75358e-06
6.20901e-06
6.84202e-06
9.10667e-06
5.86706e-06
5.29352e-06
5.90365e-06
7.93408e-06
5.02504e-06
4.4238e-06
5.03614e-06
6.89415e-06
4.23487e-06
3.60344e-06
4.24208e-06
5.9784e-06
3.50485e-06
2.83593e-06
3.52637e-06
5.18031e-06
2.84582e-06
2.12411e-06
2.89558e-06
4.49451e-06
2.27275e-06
1.46909e-06
2.3601e-06
3.91581e-06
1.80886e-06
8.73001e-07
1.93461e-06
3.43993e-06
1.4874e-06
3.38316e-07
1.6377e-06
3.06174e-06
1.33901e-06
1.61383e-07
1.48191e-06
2.77439e-06
1.35584e-06
5.74674e-07
1.45575e-06
2.56791e-06
1.48146e-06
9.40698e-07
1.52123e-06
2.42938e-06
1.65311e-06
1.25404e-06
1.63391e-06
2.34361e-06
1.82958e-06
1.51691e-06
1.76029e-06
2.29504e-06
2.51627e-06
1.98943e-06
1.73206e-06
1.8803e-06
2.26971e-06
2.55418e-06
2.12274e-06
1.9028e-06
1.98337e-06
2.25622e-06
2.58261e-06
2.22574e-06
2.03275e-06
2.06471e-06
2.24618e-06
2.59607e-06
2.29798e-06
2.12556e-06
2.12267e-06
2.23372e-06
2.59197e-06
2.34084e-06
2.18514e-06
2.15765e-06
2.21527e-06
2.56974e-06
2.35665e-06
2.21524e-06
2.17096e-06
2.18879e-06
2.53021e-06
2.34836e-06
2.21965e-06
2.16447e-06
2.15332e-06
2.47497e-06
2.31914e-06
2.20211e-06
2.14062e-06
2.10898e-06
2.40609e-06
2.27218e-06
2.16598e-06
2.10165e-06
2.05621e-06
2.32591e-06
2.21063e-06
2.11458e-06
2.04995e-06
1.99584e-06
2.23664e-06
2.13732e-06
2.05085e-06
1.98782e-06
1.92901e-06
2.14041e-06
2.05482e-06
1.97729e-06
1.9172e-06
1.85666e-06
2.03902e-06
1.96533e-06
1.89617e-06
1.83989e-06
1.77985e-06
1.93394e-06
1.87057e-06
1.80921e-06
1.75732e-06
1.69939e-06
1.88163e-06
1.82636e-06
1.77198e-06
1.71787e-06
1.67066e-06
1.61597e-06
1.76382e-06
1.71725e-06
1.67073e-06
1.6233e-06
1.58092e-06
1.53023e-06
1.64683e-06
1.60767e-06
1.568e-06
1.52671e-06
1.48914e-06
1.44281e-06
1.53168e-06
1.49884e-06
1.46517e-06
1.42944e-06
1.39652e-06
1.3547e-06
1.41975e-06
1.39228e-06
1.36383e-06
1.3331e-06
1.30456e-06
1.26716e-06
1.31252e-06
1.28961e-06
1.26564e-06
1.23933e-06
1.2148e-06
1.18157e-06
1.21108e-06
1.19199e-06
1.17185e-06
1.14941e-06
1.12848e-06
1.09916e-06
1.11565e-06
1.09975e-06
1.08286e-06
1.06379e-06
1.04605e-06
1.02038e-06
1.02544e-06
1.01219e-06
9.98066e-07
9.8195e-07
9.67041e-07
9.44814e-07
9.49343e-07
9.39037e-07
9.28013e-07
9.16253e-07
9.02754e-07
8.90401e-07
8.71423e-07
8.64012e-07
8.55427e-07
8.46287e-07
8.36585e-07
8.25423e-07
8.15407e-07
7.99451e-07
7.81571e-07
7.74416e-07
7.66881e-07
7.5896e-07
7.49859e-07
7.41975e-07
7.28746e-07
7.02951e-07
6.97001e-07
6.90832e-07
6.8444e-07
6.77121e-07
6.71155e-07
6.60296e-07
6.29258e-07
6.24307e-07
6.19271e-07
6.14164e-07
6.08342e-07
6.03983e-07
5.95052e-07
5.62523e-07
5.58359e-07
5.54233e-07
5.50214e-07
5.45709e-07
5.42757e-07
5.35689e-07
5.07102e-07
5.03374e-07
4.99784e-07
4.96422e-07
4.92745e-07
4.90729e-07
4.85235e-07
4.62513e-07
4.58968e-07
4.55624e-07
4.52548e-07
4.49241e-07
4.47653e-07
4.43012e-07
4.22405e-07
4.18935e-07
4.15686e-07
4.12742e-07
4.09652e-07
4.08284e-07
4.04286e-07
3.83722e-07
3.80349e-07
3.77192e-07
3.74389e-07
3.71504e-07
3.70291e-07
3.66824e-07
3.4908e-07
3.45154e-07
3.41594e-07
3.38378e-07
3.3565e-07
3.33076e-07
3.32412e-07
3.30862e-07
3.10359e-07
3.05658e-07
3.01249e-07
2.97181e-07
2.93584e-07
2.90201e-07
2.87958e-07
2.84313e-07
2.61575e-07
2.56597e-07
2.523e-07
2.48733e-07
2.46127e-07
2.44535e-07
2.46666e-07
2.5164e-07
1.93794e-07
1.84152e-07
1.75347e-07
1.67588e-07
1.60937e-07
1.55358e-07
1.50856e-07
1.44146e-07
1.55055e-07
1.52249e-07
1.51454e-07
1.52864e-07
1.57449e-07
1.65694e-07
1.85334e-07
2.14246e-07
1.73002e-07
1.72104e-07
1.70991e-07
1.69424e-07
1.68198e-07
1.73173e-07
2.03884e-07
2.37035e-07
4.66189e-07
4.83556e-07
4.98671e-07
5.12629e-07
5.28762e-07
5.52591e-07
6.11318e-07
6.60159e-07
8.75628e-07
8.78358e-07
8.80318e-07
8.81646e-07
8.82563e-07
8.85544e-07
9.03432e-07
8.60919e-07
1.6728e-06
1.67337e-06
1.67246e-06
1.67071e-06
1.66696e-06
1.66504e-06
1.65148e-06
1.53216e-06
10.4372
2.82145
0.748132
0.231488
0.0403741
0.00256565
0.000214746
1.61409e-05
1.3938e-06
2.39171e-05
4.23837e-05
4.25178e-05
3.86e-05
3.48815e-05
3.16374e-05
2.86764e-05
2.59143e-05
2.33464e-05
2.09751e-05
1.87904e-05
1.67889e-05
1.4963e-05
1.33048e-05
1.18067e-05
1.04585e-05
9.25256e-06
8.17975e-06
7.23117e-06
6.39841e-06
5.67329e-06
5.04786e-06
4.51431e-06
4.06447e-06
3.69044e-06
3.38377e-06
3.13549e-06
2.93652e-06
2.7777e-06
2.65022e-06
2.54615e-06
2.45857e-06
2.3817e-06
2.31118e-06
2.24358e-06
2.17652e-06
2.1085e-06
2.03864e-06
1.96646e-06
1.89201e-06
1.8153e-06
1.73663e-06
1.65617e-06
1.57413e-06
1.49074e-06
1.40636e-06
1.32169e-06
1.23776e-06
1.15578e-06
1.07679e-06
1.00117e-06
9.28495e-07
8.5776e-07
7.88276e-07
7.19922e-07
6.53672e-07
5.90311e-07
5.32714e-07
4.83563e-07
4.42306e-07
4.04282e-07
3.67204e-07
3.3234e-07
2.84636e-07
2.57312e-07
1.41457e-07
2.33643e-07
2.1567e-07
6.48312e-07
7.60606e-07
1.36048e-06
6.28124
2.0338
0.385708
0.0603956
0.00603326
4.26637e-06
5.06691e-07
1.09641e-07
2.08675e-06
2.00397e-05
2.48234e-05
2.41413e-05
2.2686e-05
2.13875e-05
2.01958e-05
1.90222e-05
1.78501e-05
1.66805e-05
1.5531e-05
1.4405e-05
1.33121e-05
1.22577e-05
1.12478e-05
1.02918e-05
9.39167e-06
8.55077e-06
7.77252e-06
7.05834e-06
6.40761e-06
5.82001e-06
5.29373e-06
4.82639e-06
4.41475e-06
4.05506e-06
3.74339e-06
3.47469e-06
3.24434e-06
3.04717e-06
2.87798e-06
2.73197e-06
2.60456e-06
2.49147e-06
2.38933e-06
2.29497e-06
2.20604e-06
2.12068e-06
2.0375e-06
1.95555e-06
1.87423e-06
1.79305e-06
1.7118e-06
1.63025e-06
1.54823e-06
1.46568e-06
1.38278e-06
1.30003e-06
1.21828e-06
1.13863e-06
1.06191e-06
9.88404e-07
9.17624e-07
8.4859e-07
7.80667e-07
7.13814e-07
6.49027e-07
5.86986e-07
5.30453e-07
4.8191e-07
4.41223e-07
4.03807e-07
3.67064e-07
3.32574e-07
2.84799e-07
2.58797e-07
1.40141e-07
2.45079e-07
1.88814e-07
6.50721e-07
7.53688e-07
1.39167e-06
3.96571
1.28332
0.173355
0.0111996
0.000423313
8.98061e-05
0
3.87707e-07
6.57902e-06
1.51143e-05
1.49428e-05
1.41771e-05
1.33988e-05
1.27562e-05
1.21671e-05
1.15954e-05
1.10418e-05
1.05024e-05
9.97494e-06
9.46685e-06
8.97214e-06
8.49186e-06
8.02299e-06
7.56959e-06
7.13018e-06
6.70349e-06
6.29186e-06
5.89692e-06
5.5188e-06
5.15965e-06
4.82065e-06
4.503e-06
4.20772e-06
3.93527e-06
3.68584e-06
3.45875e-06
3.25332e-06
3.06809e-06
2.90134e-06
2.75107e-06
2.61529e-06
2.49169e-06
2.37836e-06
2.27326e-06
2.17472e-06
2.08136e-06
1.99189e-06
1.90546e-06
1.82127e-06
1.73872e-06
1.65737e-06
1.57678e-06
1.49659e-06
1.41655e-06
1.33668e-06
1.25736e-06
1.17927e-06
1.10337e-06
1.03033e-06
9.60279e-07
8.92682e-07
8.26588e-07
7.61411e-07
6.97176e-07
6.34898e-07
5.75181e-07
5.20598e-07
4.73533e-07
4.34239e-07
3.98281e-07
3.62644e-07
3.29164e-07
2.8239e-07
2.57242e-07
1.41954e-07
2.49853e-07
1.76274e-07
6.45401e-07
7.38573e-07
1.39511e-06
2.38916
0.643
0.0465112
0.000451098
0.00010169
0
8.76469e-08
1.53858e-06
8.54665e-06
1.05654e-05
9.84195e-06
9.47692e-06
9.11418e-06
8.80701e-06
8.49744e-06
8.18287e-06
7.8725e-06
7.56475e-06
7.26112e-06
6.96745e-06
6.67952e-06
6.40145e-06
6.13119e-06
5.86851e-06
5.61429e-06
5.36726e-06
5.12666e-06
4.89287e-06
4.66532e-06
4.44423e-06
4.22971e-06
4.02201e-06
3.82201e-06
3.62995e-06
3.44651e-06
3.27234e-06
3.10765e-06
2.95265e-06
2.80734e-06
2.6713e-06
2.54418e-06
2.4253e-06
2.31375e-06
2.2088e-06
2.10957e-06
2.01526e-06
1.92505e-06
1.83835e-06
1.75454e-06
1.67307e-06
1.59348e-06
1.51524e-06
1.43795e-06
1.36127e-06
1.28511e-06
1.20977e-06
1.13583e-06
1.06407e-06
9.95044e-07
9.2879e-07
8.64705e-07
8.01876e-07
7.39781e-07
6.78474e-07
6.18994e-07
5.61879e-07
5.09559e-07
4.64376e-07
4.26765e-07
3.9242e-07
3.58075e-07
3.25821e-07
2.80356e-07
2.56152e-07
1.46177e-07
2.53307e-07
1.70644e-07
6.38922e-07
7.19756e-07
1.3849e-06
1.18177
0.204213
0.0028151
0.000293955
0
1.58404e-08
2.9783e-07
4.57127e-06
7.90354e-06
7.69877e-06
7.29041e-06
7.16955e-06
7.03336e-06
6.91426e-06
6.77896e-06
6.63405e-06
6.47988e-06
6.31427e-06
6.14124e-06
5.96082e-06
5.77294e-06
5.58043e-06
5.38592e-06
5.18826e-06
4.99053e-06
4.79531e-06
4.60156e-06
4.41162e-06
4.22624e-06
4.04573e-06
3.87063e-06
3.70097e-06
3.53746e-06
3.37963e-06
3.22772e-06
3.08213e-06
2.94239e-06
2.80884e-06
2.68131e-06
2.55964e-06
2.44391e-06
2.33374e-06
2.22871e-06
2.12873e-06
2.03328e-06
1.94198e-06
1.85438e-06
1.77014e-06
1.68882e-06
1.60998e-06
1.53326e-06
1.45811e-06
1.38416e-06
1.31107e-06
1.23867e-06
1.16724e-06
1.09726e-06
1.02942e-06
9.64137e-07
9.0138e-07
8.40523e-07
7.807e-07
7.21457e-07
6.62875e-07
6.06013e-07
5.51331e-07
5.01118e-07
4.57679e-07
4.216e-07
3.8864e-07
3.55418e-07
3.2424e-07
2.79976e-07
2.56815e-07
1.51956e-07
2.58808e-07
1.66563e-07
6.39207e-07
7.09897e-07
1.3836e-06
0.397615
0.0283663
9.17033e-05
2.25265e-05
1.18167e-11
2.21081e-10
2.6756e-06
6.05038e-06
6.51464e-06
6.04081e-06
5.89305e-06
5.84166e-06
5.76932e-06
5.6973e-06
5.61235e-06
5.522e-06
5.42238e-06
5.31476e-06
5.20222e-06
5.08306e-06
4.9585e-06
4.82882e-06
4.6959e-06
4.55849e-06
4.4183e-06
4.27666e-06
4.13242e-06
3.98792e-06
3.84343e-06
3.69957e-06
3.55732e-06
3.41702e-06
3.27986e-06
3.14583e-06
3.01546e-06
2.88939e-06
2.76732e-06
2.64978e-06
2.53652e-06
2.42756e-06
2.32306e-06
2.22258e-06
2.12601e-06
2.03337e-06
1.94423e-06
1.85851e-06
1.77589e-06
1.69618e-06
1.61912e-06
1.54436e-06
1.47163e-06
1.40043e-06
1.33045e-06
1.26137e-06
1.19304e-06
1.12569e-06
1.05978e-06
9.95869e-07
9.34316e-07
8.75009e-07
8.17332e-07
7.60477e-07
7.04052e-07
6.48192e-07
5.93947e-07
5.41689e-07
4.93543e-07
4.5181e-07
4.17243e-07
3.85618e-07
3.53501e-07
3.23373e-07
2.80328e-07
2.58345e-07
1.58533e-07
2.65487e-07
1.61742e-07
6.4206e-07
0.0573179
0.000166065
2.17801e-05
1.08057e-06
8.53508e-08
1.46987e-06
4.40331e-06
5.08241e-06
4.7844e-06
4.58897e-06
4.58655e-06
4.57709e-06
4.55468e-06
4.52746e-06
4.49042e-06
4.44843e-06
4.39774e-06
4.33944e-06
4.27577e-06
4.20553e-06
4.12994e-06
4.04897e-06
3.96289e-06
3.87297e-06
3.77998e-06
3.68343e-06
3.584e-06
3.48323e-06
3.38051e-06
3.27669e-06
3.17229e-06
3.06742e-06
2.96291e-06
2.85896e-06
2.75595e-06
2.65437e-06
2.55438e-06
2.45655e-06
2.36077e-06
2.26742e-06
2.1767e-06
2.08839e-06
2.00276e-06
1.91973e-06
1.83915e-06
1.76113e-06
1.68545e-06
1.61206e-06
1.5408e-06
1.47146e-06
1.40383e-06
1.33754e-06
1.27231e-06
1.20786e-06
1.14411e-06
1.08125e-06
1.01973e-06
9.60028e-07
9.02415e-07
8.46749e-07
7.9243e-07
7.38725e-07
6.85297e-07
6.3234e-07
5.8089e-07
5.31209e-07
4.85263e-07
4.4538e-07
4.12464e-07
3.82271e-07
3.51386e-07
3.22416e-07
2.80751e-07
2.60144e-07
1.65652e-07
2.72257e-07
0.00059526
0.000236327
2.31482e-09
4.21316e-08
7.92997e-07
3.32647e-06
3.982e-06
3.78026e-06
3.60618e-06
3.59297e-06
3.62165e-06
3.62808e-06
3.62872e-06
3.62366e-06
3.61167e-06
3.59452e-06
3.57075e-06
3.54112e-06
3.50652e-06
3.46648e-06
3.42173e-06
3.37252e-06
3.31859e-06
3.26112e-06
3.20066e-06
3.13649e-06
3.06959e-06
3.00068e-06
2.92935e-06
2.85635e-06
2.78193e-06
2.70608e-06
2.62946e-06
2.55215e-06
2.47432e-06
2.39637e-06
2.31842e-06
2.24086e-06
2.16374e-06
2.08735e-06
2.01193e-06
1.9375e-06
1.86435e-06
1.79251e-06
1.72203e-06
1.65314e-06
1.5857e-06
1.51984e-06
1.45548e-06
1.39253e-06
1.33085e-06
1.27019e-06
1.21032e-06
1.15102e-06
1.09227e-06
1.03427e-06
9.77409e-07
9.2214e-07
8.68658e-07
8.16804e-07
7.66004e-07
7.15608e-07
6.65354e-07
6.1546e-07
5.66967e-07
5.20003e-07
4.764e-07
4.38527e-07
4.07381e-07
3.78706e-07
3.4917e-07
3.21453e-07
2.8135e-07
2.62278e-07
0.000262613
0
4.35138e-09
7.81681e-08
2.66505e-06
3.21232e-06
3.05273e-06
2.91025e-06
2.89922e-06
2.93825e-06
2.96556e-06
2.98137e-06
2.99331e-06
2.99939e-06
3.00006e-06
2.99534e-06
2.98509e-06
2.97013e-06
2.95039e-06
2.92595e-06
2.89718e-06
2.86463e-06
2.8286e-06
2.78884e-06
2.7464e-06
2.7013e-06
2.65358e-06
2.60373e-06
2.55189e-06
2.4984e-06
2.44322e-06
2.38658e-06
2.32904e-06
2.27022e-06
2.21054e-06
2.15029e-06
2.08936e-06
2.02809e-06
1.96656e-06
1.90486e-06
1.84322e-06
1.78176e-06
1.72057e-06
1.65981e-06
1.5996e-06
1.54012e-06
1.48134e-06
1.42347e-06
1.3665e-06
1.3104e-06
1.25514e-06
1.20049e-06
1.14634e-06
1.09252e-06
1.03903e-06
9.86089e-07
9.34059e-07
8.83332e-07
8.34074e-07
7.86115e-07
7.3892e-07
6.91928e-07
6.44949e-07
5.98225e-07
5.52784e-07
5.08625e-07
4.67455e-07
4.31699e-07
4.02379e-07
3.75254e-07
3.47139e-07
0
0
1.11062e-07
1.87671e-06
2.72689e-06
2.45057e-06
2.35988e-06
2.35455e-06
2.39697e-06
2.43487e-06
2.46061e-06
2.48198e-06
2.49942e-06
2.51169e-06
2.51945e-06
2.52301e-06
2.52173e-06
2.51607e-06
2.50636e-06
2.4926e-06
2.47508e-06
2.45407e-06
2.42998e-06
2.4027e-06
2.37289e-06
2.34074e-06
2.30614e-06
2.26963e-06
2.23133e-06
2.19148e-06
2.1499e-06
2.10701e-06
2.06316e-06
2.01784e-06
1.97165e-06
1.92462e-06
1.87668e-06
1.82812e-06
1.77892e-06
1.72921e-06
1.67911e-06
1.62868e-06
1.57805e-06
1.52732e-06
1.47658e-06
1.42601e-06
1.37562e-06
1.32561e-06
1.276e-06
1.22683e-06
1.17808e-06
1.1296e-06
1.08132e-06
1.0331e-06
9.85008e-07
9.37222e-07
8.90094e-07
8.43969e-07
7.98976e-07
7.54953e-07
7.11422e-07
6.67904e-07
6.24275e-07
5.80806e-07
5.38489e-07
4.97199e-07
0
6.0704e-08
1.25176e-06
2.22301e-06
2.00754e-06
1.89945e-06
1.92259e-06
1.96155e-06
2.00265e-06
2.03276e-06
2.0581e-06
2.08057e-06
2.09905e-06
2.11373e-06
2.12437e-06
2.13158e-06
2.13493e-06
2.13438e-06
2.13063e-06
2.12355e-06
2.11344e-06
2.10037e-06
2.08467e-06
2.06647e-06
2.04613e-06
2.02372e-06
1.99923e-06
1.97315e-06
1.94545e-06
1.9163e-06
1.88567e-06
1.85378e-06
1.82082e-06
1.78657e-06
1.75136e-06
1.71517e-06
1.67801e-06
1.64006e-06
1.60125e-06
1.5617e-06
1.52153e-06
1.4807e-06
1.43937e-06
1.39758e-06
1.35541e-06
1.31304e-06
1.27047e-06
1.2279e-06
1.18536e-06
1.1429e-06
1.10054e-06
1.05817e-06
1.01573e-06
9.73129e-07
9.3043e-07
8.87812e-07
8.45592e-07
8.04072e-07
7.63354e-07
7.23291e-07
6.83463e-07
5.50589e-08
9.06586e-07
1.84288e-06
1.6492e-06
1.5497e-06
1.57799e-06
1.62194e-06
1.6592e-06
1.69076e-06
1.71687e-06
1.74075e-06
1.76181e-06
1.7795e-06
1.79421e-06
1.80534e-06
1.81362e-06
1.8188e-06
1.82068e-06
1.82001e-06
1.81656e-06
1.81065e-06
1.8023e-06
1.79191e-06
1.77949e-06
1.76532e-06
1.74952e-06
1.73207e-06
1.71335e-06
1.69331e-06
1.67206e-06
1.64961e-06
1.62613e-06
1.60164e-06
1.57605e-06
1.54959e-06
1.52217e-06
1.49381e-06
1.46464e-06
1.43453e-06
1.4036e-06
1.37192e-06
1.33943e-06
1.30621e-06
1.27234e-06
1.23787e-06
1.2029e-06
1.16749e-06
1.1318e-06
1.09587e-06
1.05976e-06
1.02351e-06
9.8702e-07
9.50254e-07
9.13142e-07
8.83115e-07
1.33357e-06
1.39871e-06
1.27128e-06
1.31197e-06
1.35319e-06
1.38769e-06
1.41657e-06
1.44222e-06
1.46521e-06
1.48669e-06
1.5053e-06
1.52113e-06
1.53459e-06
1.54519e-06
1.55339e-06
1.55896e-06
1.562e-06
1.56287e-06
1.56152e-06
1.55816e-06
1.55293e-06
1.5459e-06
1.53734e-06
1.52742e-06
1.51605e-06
1.50351e-06
1.48991e-06
1.47527e-06
1.45965e-06
1.44308e-06
1.42574e-06
1.40749e-06
1.38838e-06
1.36857e-06
1.34786e-06
1.32639e-06
1.30412e-06
1.28099e-06
1.25711e-06
1.2324e-06
1.20686e-06
)
;

boundaryField
{
    inlet
    {
        type            calculated;
        value           nonuniform List<scalar> 
13
(
5.62779e-06
5.70309e-06
5.7693e-06
5.82894e-06
5.88673e-06
5.94647e-06
6.02398e-06
6.04659e-06
5.98983e-06
5.95608e-06
5.9119e-06
5.87375e-06
5.8426e-06
)
;
    }
    outlet
    {
        type            calculated;
        value           nonuniform List<scalar> 0();
    }
    walls
    {
        type            calculated;
        value           uniform 0;
    }
    frontAndBack
    {
        type            empty;
    }
    procBoundary2to1
    {
        type            processor;
        value           nonuniform List<scalar> 
84
(
49.6017
1.30944
0.203576
0.00215709
0.00131253
1.56908e-08
3.03162e-05
2.2396e-05
2.42708e-05
2.11688e-05
2.11488e-05
1.99634e-05
1.92662e-05
1.83358e-05
1.74632e-05
1.65393e-05
1.56087e-05
1.46592e-05
1.37e-05
1.27356e-05
1.17711e-05
1.08125e-05
9.86693e-06
8.94179e-06
8.04448e-06
7.18302e-06
6.36601e-06
5.60253e-06
4.90179e-06
4.2742e-06
3.73014e-06
3.27946e-06
2.93002e-06
2.68398e-06
2.53484e-06
2.46605e-06
2.45503e-06
2.47838e-06
2.47838e-06
3.15551e-06
3.08849e-06
3.02818e-06
2.96759e-06
2.9021e-06
2.82912e-06
2.74755e-06
2.65742e-06
2.55955e-06
2.45516e-06
2.34561e-06
2.23236e-06
2.11664e-06
1.99946e-06
1.99946e-06
1.93679e-06
1.80979e-06
1.68508e-06
1.56347e-06
1.44611e-06
1.33433e-06
1.22911e-06
1.13057e-06
1.03781e-06
1.03781e-06
9.59117e-07
8.72213e-07
7.88489e-07
7.08807e-07
6.34246e-07
5.66812e-07
5.11004e-07
4.66283e-07
4.26124e-07
3.87362e-07
3.87362e-07
3.53307e-07
3.15276e-07
2.67189e-07
2.04027e-07
1.59749e-07
1.7423e-07
4.46431e-07
8.71635e-07
1.67006e-06
)
;
    }
    procBoundary2to3
    {
        type            processor;
        value           nonuniform List<scalar> 
88
(
7.0482e-07
1.3862e-06
1.57324e-07
7.0482e-07
6.44774e-07
1.73417e-07
1.57324e-07
2.78866e-07
3.20719e-07
2.8234e-07
1.73417e-07
2.64891e-07
4.58537e-07
4.24974e-07
3.97516e-07
3.71959e-07
3.20719e-07
3.45321e-07
6.43479e-07
6.03272e-07
5.6313e-07
5.24005e-07
4.58537e-07
4.8564e-07
8.75738e-07
8.38202e-07
8.00819e-07
7.63843e-07
7.2736e-07
6.91242e-07
6.43479e-07
6.55131e-07
1.18054e-06
1.15347e-06
1.12567e-06
1.09721e-06
1.0682e-06
1.03871e-06
1.00881e-06
9.78574e-07
9.48017e-07
9.17076e-07
8.857e-07
8.75738e-07
8.53832e-07
1.18953e-06
1.06225e-06
1.09402e-06
1.0935e-06
1.14289e-06
1.16963e-06
1.19599e-06
1.2189e-06
1.24051e-06
1.26039e-06
1.27844e-06
1.29417e-06
1.30768e-06
1.31945e-06
1.32881e-06
1.3361e-06
1.34139e-06
1.34475e-06
1.34632e-06
1.34613e-06
1.3443e-06
1.34104e-06
1.33642e-06
1.33056e-06
1.32353e-06
1.31549e-06
1.30656e-06
1.29669e-06
1.28607e-06
1.27466e-06
1.26254e-06
1.24975e-06
1.23625e-06
1.22213e-06
1.20734e-06
1.19185e-06
1.17574e-06
1.15888e-06
1.1413e-06
1.12304e-06
1.10398e-06
1.18054e-06
1.08415e-06
)
;
    }
    procBoundary2to6
    {
        type            processor;
        value           nonuniform List<scalar> 
13
(
15.1064
10.9539
7.14347
4.68534
2.8446
1.41861
0.469607
0.0623608
0.000537318
0.000133103
0
0
6.31655e-08
)
;
    }
}


// ************************************************************************* //
