/*--------------------------------*- C++ -*----------------------------------*\
| =========                 |                                                 |
| \\      /  F ield         | OpenFOAM: The Open Source CFD Toolbox           |
|  \\    /   O peration     | Version:  2506                                  |
|   \\  /    A nd           | Website:  www.openfoam.com                      |
|    \\/     M anipulation  |                                                 |
\*---------------------------------------------------------------------------*/
FoamFile
{
    version     2.0;
    format      ascii;
    arch        "LSB;label=32;scalar=64";
    class       volScalarField;
    location    "400";
    object      turbulenceProperties:nuEff;
}
// * * * * * * * * * * * * * * * * * * * * * * * * * * * * * * * * * * * * * //

dimensions      [0 2 -1 0 0 0 0];

internalField   nonuniform List<scalar> 
1340
(
0.106587
0.104441
0.102006
0.0924717
0.0700054
0.0717371
0.075309
0.0784704
0.0396121
0.0470125
0.053682
0.0631753
0.00693176
0.0131229
0.0218447
0.0392318
0.00165913
0.000746531
0.00165495
0.0137006
1.00031e-05
0.000173767
0.000440325
0.00239061
1.1168e-05
1.0011e-05
1e-05
7.03486e-05
1.55848e-05
1.29977e-05
1.00178e-05
1.05771e-05
1.62115e-05
1.6613e-05
1.45039e-05
1.00026e-05
1.61929e-05
1.58255e-05
1.87617e-05
1.05677e-05
1.61648e-05
1.58558e-05
1.71499e-05
1.43677e-05
1.61193e-05
1.60596e-05
1.62042e-05
1.61617e-05
1.61029e-05
1.61169e-05
1.60523e-05
1.62571e-05
1.61021e-05
1.61126e-05
1.60812e-05
1.61464e-05
1.61031e-05
1.61056e-05
1.6102e-05
1.61073e-05
1.61032e-05
1.61034e-05
1.61057e-05
1.61027e-05
1.61028e-05
1.6103e-05
1.61049e-05
1.61036e-05
1.61026e-05
1.61028e-05
1.6104e-05
1.61038e-05
1.61024e-05
1.61026e-05
1.61036e-05
1.61036e-05
1.61023e-05
1.61025e-05
1.61033e-05
1.61033e-05
1.61022e-05
1.61023e-05
1.6103e-05
1.6103e-05
1.61022e-05
1.61022e-05
1.61029e-05
1.61028e-05
1.61021e-05
1.61022e-05
1.61027e-05
1.61027e-05
1.61021e-05
1.61021e-05
1.61025e-05
1.61026e-05
1.6102e-05
1.6102e-05
1.61023e-05
1.61024e-05
1.61019e-05
1.61019e-05
1.61021e-05
1.61023e-05
1.61017e-05
1.61018e-05
1.6102e-05
1.61021e-05
1.61015e-05
1.61017e-05
1.61018e-05
1.6102e-05
1.61013e-05
1.61015e-05
1.61016e-05
1.61019e-05
1.61011e-05
1.61014e-05
1.61014e-05
1.61017e-05
1.61008e-05
1.61011e-05
1.61012e-05
1.61016e-05
1.61005e-05
1.61008e-05
1.6101e-05
1.61014e-05
1.61002e-05
1.61005e-05
1.61007e-05
1.61012e-05
1.60998e-05
1.61002e-05
1.61004e-05
1.6101e-05
1.60994e-05
1.60998e-05
1.61e-05
1.61007e-05
1.60989e-05
1.60993e-05
1.60996e-05
1.61003e-05
1.60984e-05
1.60988e-05
1.60991e-05
1.60998e-05
1.60978e-05
1.60982e-05
1.60985e-05
1.60993e-05
1.60967e-05
1.60971e-05
1.60975e-05
1.60979e-05
1.60987e-05
1.6096e-05
1.60964e-05
1.60968e-05
1.60971e-05
1.60979e-05
1.60952e-05
1.60956e-05
1.6096e-05
1.60963e-05
1.60972e-05
1.60943e-05
1.60947e-05
1.60951e-05
1.60955e-05
1.60963e-05
1.60934e-05
1.60938e-05
1.60942e-05
1.60945e-05
1.60954e-05
1.60925e-05
1.60928e-05
1.60932e-05
1.60936e-05
1.60944e-05
1.60915e-05
1.60918e-05
1.60922e-05
1.60926e-05
1.60933e-05
1.60906e-05
1.60908e-05
1.60912e-05
1.60916e-05
1.60923e-05
1.60896e-05
1.60899e-05
1.60903e-05
1.60906e-05
1.60913e-05
1.60886e-05
1.60889e-05
1.60893e-05
1.60896e-05
1.60903e-05
1.60877e-05
1.6088e-05
1.60883e-05
1.60886e-05
1.60893e-05
1.60868e-05
1.6087e-05
1.60874e-05
1.60877e-05
1.60883e-05
1.60858e-05
1.6086e-05
1.60864e-05
1.60866e-05
1.60873e-05
1.60846e-05
1.60849e-05
1.60852e-05
1.60855e-05
1.60861e-05
1.60831e-05
1.60833e-05
1.60835e-05
1.60838e-05
1.60841e-05
1.60847e-05
1.60815e-05
1.60817e-05
1.60819e-05
1.60822e-05
1.60824e-05
1.6083e-05
1.60796e-05
1.60798e-05
1.608e-05
1.60802e-05
1.60805e-05
1.6081e-05
1.60776e-05
1.60777e-05
1.60778e-05
1.6078e-05
1.60782e-05
1.60788e-05
1.60755e-05
1.60755e-05
1.60756e-05
1.60758e-05
1.6076e-05
1.60764e-05
1.60736e-05
1.60736e-05
1.60737e-05
1.60738e-05
1.60739e-05
1.60742e-05
1.60722e-05
1.60722e-05
1.60723e-05
1.60723e-05
1.60724e-05
1.60726e-05
1.60716e-05
1.60716e-05
1.60716e-05
1.60717e-05
1.60717e-05
1.60717e-05
1.60722e-05
1.60723e-05
1.60723e-05
1.60723e-05
1.60723e-05
1.60722e-05
1.60737e-05
1.60738e-05
1.60738e-05
1.60739e-05
1.60739e-05
1.6074e-05
1.60738e-05
1.60759e-05
1.60761e-05
1.60762e-05
1.60764e-05
1.60764e-05
1.60765e-05
1.60764e-05
1.60789e-05
1.60792e-05
1.60794e-05
1.60796e-05
1.60797e-05
1.60798e-05
1.60797e-05
1.60825e-05
1.60828e-05
1.60831e-05
1.60834e-05
1.60836e-05
1.60838e-05
1.60837e-05
1.60864e-05
1.60868e-05
1.60871e-05
1.60874e-05
1.60877e-05
1.6088e-05
1.60881e-05
1.60903e-05
1.60908e-05
1.60912e-05
1.60916e-05
1.60919e-05
1.60923e-05
1.60924e-05
1.60936e-05
1.60941e-05
1.60946e-05
1.6095e-05
1.60955e-05
1.60959e-05
1.60962e-05
1.60959e-05
1.60964e-05
1.60969e-05
1.60974e-05
1.60979e-05
1.60985e-05
1.60989e-05
1.60976e-05
1.60982e-05
1.60987e-05
1.60992e-05
1.60998e-05
1.61004e-05
1.61009e-05
1.6099e-05
1.60995e-05
1.61001e-05
1.61006e-05
1.61012e-05
1.61018e-05
1.61024e-05
1.60997e-05
1.61003e-05
1.61008e-05
1.61014e-05
1.6102e-05
1.61026e-05
1.61033e-05
1.61039e-05
1.61017e-05
1.61024e-05
1.61031e-05
1.61038e-05
1.61045e-05
1.61052e-05
1.6106e-05
1.61067e-05
1.61056e-05
1.61065e-05
1.61074e-05
1.61084e-05
1.61093e-05
1.61103e-05
1.61114e-05
1.61123e-05
1.61115e-05
1.61127e-05
1.61139e-05
1.61152e-05
1.61164e-05
1.61177e-05
1.61192e-05
1.61205e-05
1.61163e-05
1.61175e-05
1.61188e-05
1.612e-05
1.61213e-05
1.61226e-05
1.61241e-05
1.61256e-05
1.61142e-05
1.6115e-05
1.61157e-05
1.61165e-05
1.61172e-05
1.6118e-05
1.61188e-05
1.61198e-05
1.61069e-05
1.61079e-05
1.61089e-05
1.611e-05
1.61111e-05
1.61123e-05
1.61137e-05
1.61149e-05
1.61136e-05
1.61166e-05
1.61197e-05
1.61228e-05
1.6126e-05
1.61295e-05
1.61334e-05
1.6137e-05
1.61102e-05
1.61114e-05
1.61126e-05
1.61137e-05
1.61147e-05
1.61156e-05
1.61166e-05
1.61174e-05
0.126592
0.0830951
0.0542828
0.0293364
0.00864472
0.000791944
6.7557e-05
1.05018e-05
1.00044e-05
1.14802e-05
1.5343e-05
1.63398e-05
1.62482e-05
1.61394e-05
1.61112e-05
1.6109e-05
1.61093e-05
1.61086e-05
1.61077e-05
1.61068e-05
1.6106e-05
1.61054e-05
1.61049e-05
1.61044e-05
1.6104e-05
1.61036e-05
1.61033e-05
1.6103e-05
1.61028e-05
1.61025e-05
1.61023e-05
1.61021e-05
1.61018e-05
1.61015e-05
1.61011e-05
1.61007e-05
1.61002e-05
1.60996e-05
1.6099e-05
1.60983e-05
1.60974e-05
1.60965e-05
1.60956e-05
1.60946e-05
1.60935e-05
1.60925e-05
1.60914e-05
1.60904e-05
1.60894e-05
1.60884e-05
1.60874e-05
1.60862e-05
1.60848e-05
1.60831e-05
1.6081e-05
1.60787e-05
1.60763e-05
1.60742e-05
1.60726e-05
1.60718e-05
1.60724e-05
1.6074e-05
1.60766e-05
1.60801e-05
1.60841e-05
1.60885e-05
1.60929e-05
1.60967e-05
1.60995e-05
1.61015e-05
1.61029e-05
1.61044e-05
1.61073e-05
1.61133e-05
1.61217e-05
1.61265e-05
1.61203e-05
1.6116e-05
1.61395e-05
1.61182e-05
0.14987
0.0867201
0.0431851
0.0174928
0.00349376
1.01293e-05
1.0002e-05
1.00001e-05
1.00389e-05
1.37104e-05
1.61361e-05
1.63516e-05
1.61982e-05
1.61278e-05
1.61151e-05
1.61145e-05
1.61138e-05
1.61123e-05
1.61108e-05
1.61094e-05
1.61083e-05
1.61073e-05
1.61065e-05
1.61058e-05
1.61052e-05
1.61047e-05
1.61042e-05
1.61038e-05
1.61034e-05
1.61031e-05
1.61029e-05
1.61026e-05
1.61023e-05
1.61019e-05
1.61015e-05
1.6101e-05
1.61005e-05
1.60999e-05
1.60992e-05
1.60985e-05
1.60976e-05
1.60967e-05
1.60957e-05
1.60947e-05
1.60936e-05
1.60926e-05
1.60915e-05
1.60905e-05
1.60895e-05
1.60885e-05
1.60875e-05
1.60863e-05
1.60848e-05
1.60831e-05
1.6081e-05
1.60786e-05
1.60762e-05
1.60741e-05
1.60725e-05
1.60718e-05
1.60725e-05
1.60742e-05
1.60769e-05
1.60804e-05
1.60846e-05
1.6089e-05
1.60934e-05
1.60972e-05
1.61e-05
1.61019e-05
1.61034e-05
1.61049e-05
1.61079e-05
1.61141e-05
1.61226e-05
1.61271e-05
1.61207e-05
1.61169e-05
1.6141e-05
1.61187e-05
0.151252
0.0808187
0.0295144
0.00714791
0.000485756
0.000102421
1e-05
1.00035e-05
1.10833e-05
1.59815e-05
1.63913e-05
1.62797e-05
1.61553e-05
1.61227e-05
1.61192e-05
1.61185e-05
1.61168e-05
1.61148e-05
1.61129e-05
1.61113e-05
1.61099e-05
1.61088e-05
1.61078e-05
1.61069e-05
1.61061e-05
1.61055e-05
1.61049e-05
1.61045e-05
1.61041e-05
1.61037e-05
1.61034e-05
1.61031e-05
1.61027e-05
1.61023e-05
1.61019e-05
1.61014e-05
1.61008e-05
1.61002e-05
1.60995e-05
1.60987e-05
1.60978e-05
1.60969e-05
1.60959e-05
1.60948e-05
1.60938e-05
1.60927e-05
1.60916e-05
1.60906e-05
1.60896e-05
1.60886e-05
1.60876e-05
1.60863e-05
1.60849e-05
1.6083e-05
1.60809e-05
1.60785e-05
1.60761e-05
1.60739e-05
1.60724e-05
1.60718e-05
1.60726e-05
1.60744e-05
1.60772e-05
1.60809e-05
1.60851e-05
1.60895e-05
1.6094e-05
1.60978e-05
1.61005e-05
1.61024e-05
1.61038e-05
1.61054e-05
1.61086e-05
1.6115e-05
1.61237e-05
1.61277e-05
1.61211e-05
1.6118e-05
1.61426e-05
1.61192e-05
0.135178
0.0642267
0.0149473
0.000806224
0.00020085
1e-05
1.00004e-05
1.01413e-05
1.43368e-05
1.68676e-05
1.63157e-05
1.62058e-05
1.61321e-05
1.61234e-05
1.61227e-05
1.61211e-05
1.61187e-05
1.61163e-05
1.61143e-05
1.61125e-05
1.6111e-05
1.61097e-05
1.61086e-05
1.61076e-05
1.61068e-05
1.61061e-05
1.61055e-05
1.6105e-05
1.61046e-05
1.61042e-05
1.61039e-05
1.61035e-05
1.61031e-05
1.61027e-05
1.61022e-05
1.61017e-05
1.61011e-05
1.61004e-05
1.60997e-05
1.60989e-05
1.6098e-05
1.6097e-05
1.6096e-05
1.6095e-05
1.60939e-05
1.60928e-05
1.60918e-05
1.60908e-05
1.60898e-05
1.60888e-05
1.60877e-05
1.60864e-05
1.60849e-05
1.6083e-05
1.60808e-05
1.60783e-05
1.60759e-05
1.60738e-05
1.60723e-05
1.60719e-05
1.60727e-05
1.60747e-05
1.60776e-05
1.60813e-05
1.60856e-05
1.60901e-05
1.60946e-05
1.60984e-05
1.6101e-05
1.61029e-05
1.61043e-05
1.61059e-05
1.61093e-05
1.61159e-05
1.61247e-05
1.61283e-05
1.61215e-05
1.61193e-05
1.61443e-05
1.61196e-05
0.104419
0.0387173
0.00282301
0.00070235
1e-05
1e-05
1.001e-05
1.23539e-05
1.68912e-05
1.67174e-05
1.61909e-05
1.61621e-05
1.6125e-05
1.61266e-05
1.61253e-05
1.61227e-05
1.61199e-05
1.61174e-05
1.61152e-05
1.61134e-05
1.61118e-05
1.61104e-05
1.61092e-05
1.61082e-05
1.61074e-05
1.61066e-05
1.6106e-05
1.61055e-05
1.61051e-05
1.61047e-05
1.61043e-05
1.61039e-05
1.61035e-05
1.61031e-05
1.61026e-05
1.6102e-05
1.61014e-05
1.61007e-05
1.61e-05
1.60991e-05
1.60982e-05
1.60972e-05
1.60962e-05
1.60951e-05
1.6094e-05
1.6093e-05
1.60919e-05
1.60909e-05
1.60899e-05
1.60889e-05
1.60878e-05
1.60865e-05
1.60849e-05
1.6083e-05
1.60807e-05
1.60782e-05
1.60758e-05
1.60737e-05
1.60723e-05
1.60719e-05
1.60729e-05
1.6075e-05
1.6078e-05
1.60818e-05
1.60861e-05
1.60907e-05
1.60952e-05
1.6099e-05
1.61016e-05
1.61034e-05
1.61047e-05
1.61064e-05
1.611e-05
1.6117e-05
1.61258e-05
1.6129e-05
1.6122e-05
1.61207e-05
1.6146e-05
1.612e-05
0.0649845
0.0150741
0.000323006
5.30461e-05
1e-05
1e-05
1.12658e-05
1.62278e-05
1.72281e-05
1.63382e-05
1.61327e-05
1.6144e-05
1.61263e-05
1.61297e-05
1.61267e-05
1.61237e-05
1.61207e-05
1.61181e-05
1.61159e-05
1.6114e-05
1.61124e-05
1.6111e-05
1.61098e-05
1.61087e-05
1.61079e-05
1.61071e-05
1.61065e-05
1.6106e-05
1.61055e-05
1.61051e-05
1.61047e-05
1.61043e-05
1.61039e-05
1.61034e-05
1.61029e-05
1.61024e-05
1.61017e-05
1.6101e-05
1.61002e-05
1.60994e-05
1.60984e-05
1.60974e-05
1.60964e-05
1.60953e-05
1.60942e-05
1.60931e-05
1.60921e-05
1.60911e-05
1.60901e-05
1.6089e-05
1.60879e-05
1.60865e-05
1.60849e-05
1.60829e-05
1.60806e-05
1.6078e-05
1.60756e-05
1.60735e-05
1.60722e-05
1.6072e-05
1.60731e-05
1.60753e-05
1.60784e-05
1.60823e-05
1.60867e-05
1.60913e-05
1.60958e-05
1.60997e-05
1.61022e-05
1.61039e-05
1.61052e-05
1.6107e-05
1.61109e-05
1.61181e-05
1.6127e-05
1.61296e-05
1.61224e-05
1.61223e-05
0.0258367
0.000887144
5.25494e-05
1.03314e-05
1.00024e-05
1.06762e-05
1.57423e-05
1.7469e-05
1.66367e-05
1.61277e-05
1.61305e-05
1.61383e-05
1.61301e-05
1.61314e-05
1.61273e-05
1.61241e-05
1.61211e-05
1.61185e-05
1.61163e-05
1.61144e-05
1.61128e-05
1.61114e-05
1.61102e-05
1.61091e-05
1.61083e-05
1.61076e-05
1.6107e-05
1.61064e-05
1.6106e-05
1.61056e-05
1.61052e-05
1.61048e-05
1.61043e-05
1.61038e-05
1.61033e-05
1.61027e-05
1.6102e-05
1.61013e-05
1.61005e-05
1.60996e-05
1.60986e-05
1.60976e-05
1.60965e-05
1.60954e-05
1.60943e-05
1.60933e-05
1.60922e-05
1.60912e-05
1.60902e-05
1.60892e-05
1.6088e-05
1.60866e-05
1.60849e-05
1.60828e-05
1.60804e-05
1.60779e-05
1.60754e-05
1.60734e-05
1.60721e-05
1.6072e-05
1.60733e-05
1.60756e-05
1.60788e-05
1.60828e-05
1.60873e-05
1.6092e-05
1.60965e-05
1.61003e-05
1.61028e-05
1.61044e-05
1.61058e-05
1.61076e-05
1.61117e-05
1.61193e-05
1.61282e-05
1.61303e-05
0.00298821
0.000750111
1e-05
1.00011e-05
1.03449e-05
1.56027e-05
1.77141e-05
1.68695e-05
1.61996e-05
1.60956e-05
1.61416e-05
1.61366e-05
1.61331e-05
1.61316e-05
1.61272e-05
1.61241e-05
1.61212e-05
1.61187e-05
1.61165e-05
1.61147e-05
1.61131e-05
1.61117e-05
1.61105e-05
1.61095e-05
1.61087e-05
1.6108e-05
1.61074e-05
1.61069e-05
1.61064e-05
1.6106e-05
1.61056e-05
1.61052e-05
1.61047e-05
1.61042e-05
1.61036e-05
1.6103e-05
1.61023e-05
1.61016e-05
1.61007e-05
1.60998e-05
1.60988e-05
1.60978e-05
1.60967e-05
1.60956e-05
1.60945e-05
1.60934e-05
1.60924e-05
1.60914e-05
1.60904e-05
1.60893e-05
1.60881e-05
1.60866e-05
1.60849e-05
1.60827e-05
1.60802e-05
1.60777e-05
1.60752e-05
1.60732e-05
1.60721e-05
1.60721e-05
1.60735e-05
1.6076e-05
1.60793e-05
1.60834e-05
1.6088e-05
1.60927e-05
1.60973e-05
1.6101e-05
1.61034e-05
1.6105e-05
1.61063e-05
1.61083e-05
1.61127e-05
1.61206e-05
0.000815729
1e-05
1e-05
1.0006e-05
1.56898e-05
1.79758e-05
1.70115e-05
1.62598e-05
1.60831e-05
1.61263e-05
1.61452e-05
1.61362e-05
1.61343e-05
1.61308e-05
1.61268e-05
1.61238e-05
1.6121e-05
1.61187e-05
1.61166e-05
1.61148e-05
1.61132e-05
1.61119e-05
1.61108e-05
1.61098e-05
1.6109e-05
1.61084e-05
1.61078e-05
1.61073e-05
1.61069e-05
1.61065e-05
1.6106e-05
1.61056e-05
1.61051e-05
1.61046e-05
1.6104e-05
1.61033e-05
1.61026e-05
1.61018e-05
1.6101e-05
1.61e-05
1.6099e-05
1.6098e-05
1.60969e-05
1.60958e-05
1.60947e-05
1.60936e-05
1.60925e-05
1.60915e-05
1.60905e-05
1.60894e-05
1.60882e-05
1.60867e-05
1.60848e-05
1.60826e-05
1.60801e-05
1.60774e-05
1.6075e-05
1.60731e-05
1.6072e-05
1.60722e-05
1.60738e-05
1.60764e-05
1.60798e-05
1.60841e-05
1.60887e-05
1.60934e-05
1.6098e-05
1.61018e-05
1.61041e-05
1.61056e-05
1.61069e-05
1e-05
1e-05
1.00183e-05
1.46496e-05
1.8746e-05
1.70096e-05
1.62788e-05
1.60759e-05
1.61123e-05
1.61465e-05
1.61423e-05
1.61361e-05
1.61336e-05
1.61295e-05
1.61261e-05
1.61233e-05
1.61207e-05
1.61185e-05
1.61165e-05
1.61148e-05
1.61133e-05
1.61121e-05
1.6111e-05
1.61101e-05
1.61094e-05
1.61087e-05
1.61082e-05
1.61077e-05
1.61073e-05
1.61069e-05
1.61064e-05
1.6106e-05
1.61055e-05
1.61049e-05
1.61043e-05
1.61037e-05
1.61029e-05
1.61021e-05
1.61012e-05
1.61002e-05
1.60992e-05
1.60981e-05
1.6097e-05
1.60959e-05
1.60948e-05
1.60937e-05
1.60927e-05
1.60917e-05
1.60907e-05
1.60896e-05
1.60883e-05
1.60867e-05
1.60848e-05
1.60824e-05
1.60799e-05
1.60772e-05
1.60748e-05
1.60729e-05
1.6072e-05
1.60724e-05
1.60741e-05
1.60768e-05
1.60804e-05
1.60847e-05
1.60895e-05
1.60942e-05
1e-05
1.00118e-05
1.30531e-05
1.90635e-05
1.70905e-05
1.61884e-05
1.60746e-05
1.61022e-05
1.61455e-05
1.61472e-05
1.61389e-05
1.61353e-05
1.6132e-05
1.61282e-05
1.61252e-05
1.61226e-05
1.61202e-05
1.61181e-05
1.61163e-05
1.61148e-05
1.61134e-05
1.61122e-05
1.61113e-05
1.61104e-05
1.61097e-05
1.61091e-05
1.61086e-05
1.61082e-05
1.61077e-05
1.61073e-05
1.61069e-05
1.61064e-05
1.61059e-05
1.61053e-05
1.61047e-05
1.6104e-05
1.61032e-05
1.61024e-05
1.61014e-05
1.61004e-05
1.60994e-05
1.60983e-05
1.60972e-05
1.60961e-05
1.6095e-05
1.60939e-05
1.60929e-05
1.60919e-05
1.60908e-05
1.60897e-05
1.60884e-05
1.60867e-05
1.60847e-05
1.60823e-05
1.60796e-05
1.6077e-05
1.60746e-05
1.60728e-05
1.6072e-05
1.60725e-05
1.60744e-05
1.00117e-05
1.3016e-05
1.87649e-05
1.72537e-05
1.60744e-05
1.60507e-05
1.61056e-05
1.61434e-05
1.61506e-05
1.61417e-05
1.61366e-05
1.61335e-05
1.613e-05
1.61268e-05
1.61242e-05
1.61218e-05
1.61196e-05
1.61177e-05
1.61161e-05
1.61147e-05
1.61134e-05
1.61124e-05
1.61115e-05
1.61107e-05
1.61101e-05
1.61095e-05
1.61091e-05
1.61086e-05
1.61082e-05
1.61077e-05
1.61073e-05
1.61068e-05
1.61062e-05
1.61056e-05
1.6105e-05
1.61043e-05
1.61035e-05
1.61026e-05
1.61016e-05
1.61006e-05
1.60996e-05
1.60985e-05
1.60973e-05
1.60962e-05
1.60951e-05
1.60941e-05
1.60931e-05
1.60921e-05
1.6091e-05
1.60898e-05
1.60884e-05
1.60867e-05
1.60846e-05
1.60821e-05
1.33493e-05
1.80191e-05
1.71955e-05
1.60368e-05
1.60063e-05
1.61181e-05
1.61449e-05
1.61516e-05
1.61439e-05
1.61375e-05
1.61344e-05
1.61312e-05
1.61281e-05
1.61254e-05
1.61231e-05
1.61209e-05
1.6119e-05
1.61173e-05
1.61158e-05
1.61146e-05
1.61135e-05
1.61125e-05
1.61117e-05
1.6111e-05
1.61105e-05
1.61099e-05
1.61095e-05
1.6109e-05
1.61086e-05
1.61082e-05
1.61077e-05
1.61072e-05
1.61066e-05
1.6106e-05
1.61053e-05
1.61046e-05
1.61037e-05
1.61028e-05
1.61019e-05
1.61008e-05
1.60997e-05
1.60986e-05
)
;

boundaryField
{
    inlet
    {
        type            calculated;
        value           uniform 2e-05;
    }
    outlet
    {
        type            calculated;
        value           nonuniform List<scalar> 0();
    }
    walls
    {
        type            calculated;
        value           nonuniform List<scalar> 4(0.00273753 0.00267325 0.00258245 0.00232613);
    }
    frontAndBack
    {
        type            empty;
    }
    procBoundary2to1
    {
        type            processor;
        value           nonuniform List<scalar> 
84
(
0.107984
0.0680151
0.0311681
0.00306682
0.000726066
1e-05
1.53244e-05
1.62914e-05
1.61448e-05
1.60919e-05
1.60936e-05
1.61016e-05
1.61048e-05
1.61041e-05
1.61033e-05
1.61028e-05
1.61025e-05
1.61024e-05
1.61023e-05
1.61022e-05
1.61022e-05
1.61022e-05
1.61021e-05
1.6102e-05
1.61019e-05
1.61017e-05
1.61015e-05
1.61013e-05
1.61011e-05
1.61008e-05
1.61005e-05
1.61002e-05
1.60999e-05
1.60995e-05
1.6099e-05
1.60985e-05
1.6098e-05
1.60974e-05
1.60974e-05
1.60964e-05
1.60957e-05
1.60949e-05
1.6094e-05
1.60931e-05
1.60922e-05
1.60912e-05
1.60903e-05
1.60893e-05
1.60884e-05
1.60875e-05
1.60865e-05
1.60855e-05
1.60844e-05
1.60844e-05
1.60829e-05
1.60814e-05
1.60795e-05
1.60775e-05
1.60754e-05
1.60736e-05
1.60722e-05
1.60716e-05
1.60722e-05
1.60722e-05
1.60735e-05
1.60757e-05
1.60787e-05
1.60822e-05
1.6086e-05
1.60899e-05
1.60931e-05
1.60953e-05
1.60971e-05
1.60984e-05
1.60984e-05
1.60991e-05
1.6101e-05
1.61046e-05
1.61102e-05
1.61151e-05
1.61134e-05
1.6106e-05
1.61107e-05
1.61088e-05
)
;
    }
    procBoundary2to3
    {
        type            processor;
        value           nonuniform List<scalar> 
88
(
1.61479e-05
1.61204e-05
1.61229e-05
1.61479e-05
1.6124e-05
1.61295e-05
1.61229e-05
1.6131e-05
1.6109e-05
1.61137e-05
1.61295e-05
1.61219e-05
1.60989e-05
1.61026e-05
1.61048e-05
1.61062e-05
1.6109e-05
1.61076e-05
1.60773e-05
1.6081e-05
1.60855e-05
1.60903e-05
1.60989e-05
1.60951e-05
1.60794e-05
1.60767e-05
1.60743e-05
1.60726e-05
1.6072e-05
1.60727e-05
1.60773e-05
1.60748e-05
1.60975e-05
1.60964e-05
1.60953e-05
1.60943e-05
1.60932e-05
1.60922e-05
1.60912e-05
1.60899e-05
1.60884e-05
1.60866e-05
1.60844e-05
1.60794e-05
1.60818e-05
1.75719e-05
1.69177e-05
1.60606e-05
1.59927e-05
1.61257e-05
1.61523e-05
1.61503e-05
1.61447e-05
1.61381e-05
1.61347e-05
1.61319e-05
1.61289e-05
1.61263e-05
1.6124e-05
1.61219e-05
1.612e-05
1.61184e-05
1.61169e-05
1.61156e-05
1.61145e-05
1.61135e-05
1.61127e-05
1.6112e-05
1.61114e-05
1.61108e-05
1.61104e-05
1.61099e-05
1.61095e-05
1.6109e-05
1.61086e-05
1.61081e-05
1.61076e-05
1.6107e-05
1.61063e-05
1.61056e-05
1.61048e-05
1.6104e-05
1.6103e-05
1.6102e-05
1.6101e-05
1.60999e-05
1.60975e-05
1.60988e-05
)
;
    }
    procBoundary2to6
    {
        type            processor;
        value           nonuniform List<scalar> 
13
(
0.172369
0.213626
0.217813
0.202682
0.172738
0.130155
0.0788604
0.0299913
0.00322792
0.00043515
1e-05
1e-05
1.00145e-05
)
;
    }
}


// ************************************************************************* //
