/*--------------------------------*- C++ -*----------------------------------*\
| =========                 |                                                 |
| \\      /  F ield         | OpenFOAM: The Open Source CFD Toolbox           |
|  \\    /   O peration     | Version:  2506                                  |
|   \\  /    A nd           | Website:  www.openfoam.com                      |
|    \\/     M anipulation  |                                                 |
\*---------------------------------------------------------------------------*/
FoamFile
{
    version     2.0;
    format      ascii;
    arch        "LSB;label=32;scalar=64";
    class       volScalarField;
    location    "400";
    object      turbulenceProperties:I;
}
// * * * * * * * * * * * * * * * * * * * * * * * * * * * * * * * * * * * * * //

dimensions      [0 0 0 0 0 0 0];

internalField   nonuniform List<scalar> 
1340
(
0.244662
0.246102
0.249517
0.255934
0.0396026
0.0424672
0.0476505
0.0611854
0.0179031
0.021418
0.0239677
0.0337469
0.00340511
0.00626328
0.0101569
0.0207114
0.00161747
0.000991174
0.00178542
0.00900463
2.16906e-05
0.000407631
0.000856746
0.00302139
0.000118499
3.73093e-05
8.41265e-06
0.000520377
0.000141073
0.000120315
4.11581e-05
0.000138178
0.000157975
0.000165469
0.000172957
3.50496e-05
0.000145272
0.000145918
0.000192074
0.000128417
0.000146271
0.000147641
0.000178619
0.000206419
0.000141069
0.000143446
0.000165116
0.000215213
0.000138545
0.000141032
0.000158485
0.000205832
0.000134819
0.000136812
0.000152534
0.000194771
0.000131377
0.000132893
0.000146741
0.000184564
0.000127547
0.000128591
0.000140729
0.000174859
0.00012359
0.000124172
0.000134716
0.000165425
0.000119405
0.000119523
0.000128686
0.000156232
0.000115028
0.000114683
0.000122637
0.000147286
0.000110449
0.00010964
0.000116584
0.000138637
0.000105675
0.000104399
0.000110508
0.000130272
0.000100706
9.89683e-05
0.000104416
0.000122207
9.55489e-05
9.33416e-05
9.83093e-05
0.000114461
9.02113e-05
8.75265e-05
9.21784e-05
0.000107022
8.4699e-05
8.15144e-05
8.60403e-05
9.99136e-05
7.90241e-05
7.52982e-05
7.98977e-05
9.31357e-05
7.32027e-05
6.88618e-05
7.377e-05
8.67089e-05
6.72592e-05
6.21706e-05
6.76816e-05
8.06497e-05
6.12356e-05
5.51693e-05
6.16864e-05
7.49902e-05
5.52171e-05
4.7757e-05
5.5877e-05
6.97768e-05
4.93747e-05
3.97235e-05
5.04271e-05
6.50654e-05
4.40705e-05
3.06251e-05
4.56377e-05
6.09264e-05
3.99789e-05
1.90656e-05
4.19726e-05
5.74285e-05
3.79433e-05
1.31677e-05
3.99093e-05
5.46207e-05
3.81879e-05
2.48459e-05
3.95378e-05
5.25059e-05
3.99207e-05
3.17834e-05
4.03983e-05
5.10299e-05
4.21684e-05
3.66887e-05
4.18471e-05
5.00825e-05
4.43554e-05
4.03388e-05
4.34126e-05
4.95236e-05
5.20895e-05
4.62405e-05
4.30885e-05
4.48431e-05
4.9213e-05
5.24618e-05
4.77471e-05
4.51419e-05
4.60285e-05
4.90302e-05
5.27276e-05
4.88688e-05
4.66334e-05
4.69333e-05
4.88847e-05
5.28333e-05
4.96273e-05
4.76577e-05
4.75556e-05
4.87124e-05
5.27541e-05
5.00547e-05
4.82887e-05
4.79117e-05
4.84737e-05
5.2485e-05
5.01857e-05
4.85843e-05
4.8023e-05
4.81455e-05
5.20329e-05
5.00556e-05
4.85937e-05
4.7913e-05
4.77156e-05
5.14112e-05
4.96981e-05
4.83596e-05
4.76083e-05
4.71828e-05
5.06373e-05
4.91443e-05
4.79172e-05
4.71314e-05
4.65492e-05
4.97308e-05
4.84239e-05
4.72993e-05
4.65053e-05
4.58206e-05
4.871e-05
4.75625e-05
4.65337e-05
4.57513e-05
4.50063e-05
4.75927e-05
4.65826e-05
4.56431e-05
4.48867e-05
4.41133e-05
4.63936e-05
4.55036e-05
4.4648e-05
4.39274e-05
4.31499e-05
4.51244e-05
4.43396e-05
4.35632e-05
4.28853e-05
4.21221e-05
4.44843e-05
4.37944e-05
4.31024e-05
4.24004e-05
4.17696e-05
4.10343e-05
4.30098e-05
4.24106e-05
4.18011e-05
4.11688e-05
4.0588e-05
3.98902e-05
4.15019e-05
4.09814e-05
4.04454e-05
3.98784e-05
3.93489e-05
3.86945e-05
3.99704e-05
3.95187e-05
3.90485e-05
3.85421e-05
3.80638e-05
3.7456e-05
3.8431e-05
3.80393e-05
3.76278e-05
3.71775e-05
3.67491e-05
3.61885e-05
3.69029e-05
3.65638e-05
3.62044e-05
3.58051e-05
3.54241e-05
3.49097e-05
3.54032e-05
3.51096e-05
3.47962e-05
3.4443e-05
3.41061e-05
3.36366e-05
3.39377e-05
3.36834e-05
3.34102e-05
3.30988e-05
3.28025e-05
3.23768e-05
3.24975e-05
3.22771e-05
3.20394e-05
3.17659e-05
3.1507e-05
3.11247e-05
3.12393e-05
3.10622e-05
3.0871e-05
3.06647e-05
3.0426e-05
3.02025e-05
2.98631e-05
2.97683e-05
2.96141e-05
2.94484e-05
2.92705e-05
2.90643e-05
2.88747e-05
2.8577e-05
2.8282e-05
2.81473e-05
2.8004e-05
2.78517e-05
2.76753e-05
2.75185e-05
2.72601e-05
2.67948e-05
2.6677e-05
2.65536e-05
2.64243e-05
2.62751e-05
2.61496e-05
2.59268e-05
2.53278e-05
2.52246e-05
2.51183e-05
2.50093e-05
2.4884e-05
2.47866e-05
2.45937e-05
2.39266e-05
2.38351e-05
2.37433e-05
2.36526e-05
2.35501e-05
2.34794e-05
2.33182e-05
2.27024e-05
2.26164e-05
2.25325e-05
2.24527e-05
2.23646e-05
2.23126e-05
2.21805e-05
2.16702e-05
2.15849e-05
2.15034e-05
2.14272e-05
2.13444e-05
2.13012e-05
2.11842e-05
2.06988e-05
2.06118e-05
2.05293e-05
2.04534e-05
2.03729e-05
2.03338e-05
2.02284e-05
1.97185e-05
1.96301e-05
1.95464e-05
1.94709e-05
1.93924e-05
1.93563e-05
1.92604e-05
1.87992e-05
1.86923e-05
1.85944e-05
1.85048e-05
1.84278e-05
1.8354e-05
1.83319e-05
1.82847e-05
1.77177e-05
1.75824e-05
1.7454e-05
1.73343e-05
1.72271e-05
1.71251e-05
1.70555e-05
1.69433e-05
1.62588e-05
1.6103e-05
1.59669e-05
1.58525e-05
1.57678e-05
1.57147e-05
1.57804e-05
1.59356e-05
1.39905e-05
1.36379e-05
1.33075e-05
1.3009e-05
1.27473e-05
1.25231e-05
1.23383e-05
1.20583e-05
1.25138e-05
1.24004e-05
1.23682e-05
1.24254e-05
1.261e-05
1.29351e-05
1.36793e-05
1.47067e-05
1.32189e-05
1.31851e-05
1.31427e-05
1.30824e-05
1.30348e-05
1.32254e-05
1.43481e-05
1.54661e-05
2.17156e-05
2.21178e-05
2.24615e-05
2.27736e-05
2.31289e-05
2.36443e-05
2.4872e-05
2.58539e-05
2.96956e-05
2.97415e-05
2.97742e-05
2.97959e-05
2.98093e-05
2.98542e-05
3.01386e-05
2.93962e-05
4.10399e-05
4.1041e-05
4.10227e-05
4.09936e-05
4.09421e-05
4.09183e-05
4.07697e-05
3.92992e-05
0.141642
0.0645484
0.0318504
0.0173173
0.00714637
0.00179107
0.000516022
0.000140884
4.12243e-05
0.000170053
0.000225449
0.000224907
0.000213469
0.000202172
0.000191853
0.000182029
0.000172474
0.000163197
0.000154231
0.000145572
0.000137239
0.000129242
0.00012159
0.000114292
0.000107352
0.000100784
9.45956e-05
8.87971e-05
8.34016e-05
7.84234e-05
7.38778e-05
6.97794e-05
6.61361e-05
6.29525e-05
6.02198e-05
5.79135e-05
5.59954e-05
5.44131e-05
5.31057e-05
5.20106e-05
5.10678e-05
5.0224e-05
4.94363e-05
4.86701e-05
4.78996e-05
4.71077e-05
4.62833e-05
4.5419e-05
4.45132e-05
4.35637e-05
4.25714e-05
4.15358e-05
4.04564e-05
3.93331e-05
3.81674e-05
3.69653e-05
3.57382e-05
3.45018e-05
3.32707e-05
3.20514e-05
3.08379e-05
2.96134e-05
2.83639e-05
2.70836e-05
2.5787e-05
2.44875e-05
2.32466e-05
2.21363e-05
2.1162e-05
2.02236e-05
1.92663e-05
1.83218e-05
1.69498e-05
1.61117e-05
1.19435e-05
1.5357e-05
1.47503e-05
2.56224e-05
2.762e-05
3.70354e-05
0.0971471
0.050861
0.0214524
0.00838766
0.00263937
7.01008e-05
2.41377e-05
1.12161e-05
4.88723e-05
0.000151257
0.00016812
0.000165565
0.000160268
0.000155385
0.000150768
0.000146099
0.000141308
0.000136388
0.000131399
0.00012635
0.000121276
0.000116198
0.000111142
0.000106159
0.000101267
9.64948e-05
9.18772e-05
8.74431e-05
8.32133e-05
7.92137e-05
7.54635e-05
7.19792e-05
6.87718e-05
6.58474e-05
6.32082e-05
6.0844e-05
5.87431e-05
5.68839e-05
5.52388e-05
5.37782e-05
5.24698e-05
5.12802e-05
5.01812e-05
4.91444e-05
4.81474e-05
4.71717e-05
4.62026e-05
4.52293e-05
4.42442e-05
4.32407e-05
4.2215e-05
4.11626e-05
4.00793e-05
3.89623e-05
3.78109e-05
3.66295e-05
3.54277e-05
3.42197e-05
3.30179e-05
3.18269e-05
3.06397e-05
2.94397e-05
2.82137e-05
2.69573e-05
2.56857e-05
2.44103e-05
2.31903e-05
2.20924e-05
2.11308e-05
2.02072e-05
1.92587e-05
1.83249e-05
1.69519e-05
1.61558e-05
1.18865e-05
1.57267e-05
1.38011e-05
2.56648e-05
2.74967e-05
3.74373e-05
0.0714691
0.038601
0.0138743
0.00350615
0.000680812
0.00031354
0
2.05889e-05
8.47812e-05
0.000128455
0.000127677
0.000124317
0.000120811
0.000117833
0.000115033
0.000112251
0.000109491
0.000106734
0.000103969
0.000101235
9.85008e-05
9.57737e-05
9.30368e-05
9.03135e-05
8.75966e-05
8.48786e-05
8.21752e-05
7.94989e-05
7.68535e-05
7.42577e-05
7.17254e-05
6.92725e-05
6.69151e-05
6.46668e-05
6.25402e-05
6.05412e-05
5.86759e-05
5.69428e-05
5.53371e-05
5.38496e-05
5.24696e-05
5.11815e-05
4.99714e-05
4.8823e-05
4.77216e-05
4.66549e-05
4.56102e-05
4.45787e-05
4.35518e-05
4.25224e-05
4.14848e-05
4.04327e-05
3.93603e-05
3.82627e-05
3.71383e-05
3.59901e-05
3.48261e-05
3.36592e-05
3.24995e-05
3.13499e-05
3.02021e-05
2.90394e-05
2.78495e-05
2.66291e-05
2.53941e-05
2.41547e-05
2.29662e-05
2.1893e-05
2.09572e-05
2.00634e-05
1.9138e-05
1.8227e-05
1.6877e-05
1.61046e-05
1.19618e-05
1.58771e-05
1.33348e-05
2.55527e-05
2.72237e-05
3.74595e-05
0.0531321
0.0266831
0.00708334
0.00069641
0.000330644
0
9.70493e-06
4.06512e-05
9.57855e-05
0.000106471
0.000102735
0.000100786
9.88123e-05
9.71072e-05
9.53599e-05
9.35529e-05
9.17365e-05
8.99005e-05
8.80528e-05
8.62288e-05
8.44031e-05
8.26021e-05
8.08137e-05
7.90373e-05
7.72797e-05
7.5533e-05
7.37928e-05
7.20621e-05
7.03375e-05
6.86213e-05
6.69151e-05
6.52217e-05
6.35495e-05
6.19024e-05
6.02883e-05
5.87158e-05
5.71901e-05
5.57169e-05
5.43002e-05
5.29402e-05
5.16376e-05
5.03895e-05
4.919e-05
4.80345e-05
4.69165e-05
4.58291e-05
4.47649e-05
4.37186e-05
4.26835e-05
4.16536e-05
4.06237e-05
3.95865e-05
3.85364e-05
3.74677e-05
3.63777e-05
3.5269e-05
3.41486e-05
3.30275e-05
3.19144e-05
3.08105e-05
2.97064e-05
2.85857e-05
2.74368e-05
2.62571e-05
2.50634e-05
2.38646e-05
2.27136e-05
2.16735e-05
2.07701e-05
1.991e-05
1.90125e-05
1.81303e-05
1.68129e-05
1.60677e-05
1.21369e-05
1.59843e-05
1.31198e-05
2.54178e-05
2.68762e-05
3.73019e-05
0.0362025
0.0147739
0.00172557
0.000557825
0
4.09539e-06
1.7756e-05
6.95557e-05
9.14497e-05
9.02486e-05
8.78144e-05
8.70753e-05
8.62362e-05
8.54946e-05
8.46454e-05
8.37269e-05
8.27389e-05
8.16649e-05
8.05277e-05
7.9325e-05
7.80531e-05
7.67283e-05
7.53662e-05
7.39567e-05
7.25194e-05
7.10719e-05
6.96057e-05
6.81378e-05
6.66741e-05
6.52174e-05
6.37726e-05
6.2341e-05
6.09295e-05
5.95356e-05
5.81626e-05
5.68159e-05
5.54928e-05
5.41984e-05
5.2933e-05
5.16972e-05
5.0494e-05
4.93215e-05
4.81776e-05
4.70629e-05
4.5974e-05
4.4908e-05
4.38613e-05
4.28309e-05
4.18127e-05
4.0802e-05
3.97945e-05
3.87834e-05
3.77633e-05
3.67289e-05
3.56768e-05
3.46095e-05
3.35334e-05
3.24579e-05
3.13904e-05
3.03308e-05
2.92688e-05
2.81888e-05
2.708e-05
2.59407e-05
2.47881e-05
2.36299e-05
2.25165e-05
2.15095e-05
2.06377e-05
1.98083e-05
1.8937e-05
1.8082e-05
1.6798e-05
1.60855e-05
1.23727e-05
1.61546e-05
1.29612e-05
2.54173e-05
2.6691e-05
3.7266e-05
0.0205375
0.00544207
0.000309252
0.000153364
1.11074e-07
4.80413e-07
5.2847e-05
7.94661e-05
8.24561e-05
7.93995e-05
7.8422e-05
7.80797e-05
7.75958e-05
7.71115e-05
7.65365e-05
7.59202e-05
7.52348e-05
7.44868e-05
7.36962e-05
7.28491e-05
7.19524e-05
7.1006e-05
7.0022e-05
6.89891e-05
6.79183e-05
6.6818e-05
6.5678e-05
6.45148e-05
6.33295e-05
6.21263e-05
6.09126e-05
5.96908e-05
5.84711e-05
5.72537e-05
5.60438e-05
5.48479e-05
5.36643e-05
5.24992e-05
5.13513e-05
5.02219e-05
4.91142e-05
4.80249e-05
4.69541e-05
4.59034e-05
4.48692e-05
4.38515e-05
4.2848e-05
4.18571e-05
4.08764e-05
3.99023e-05
3.89316e-05
3.7958e-05
3.69771e-05
3.59838e-05
3.4975e-05
3.39531e-05
3.29241e-05
3.18964e-05
3.08759e-05
2.98612e-05
2.88422e-05
2.78035e-05
2.67358e-05
2.56381e-05
2.45282e-05
2.34122e-05
2.23369e-05
2.13635e-05
2.0524e-05
1.97251e-05
1.88806e-05
1.80532e-05
1.68047e-05
1.61301e-05
1.26356e-05
1.63592e-05
1.27713e-05
2.54673e-05
0.00770091
0.000413904
0.00015
3.34154e-05
9.39035e-06
3.89669e-05
6.74419e-05
7.24549e-05
7.02983e-05
6.88482e-05
6.88315e-05
6.87628e-05
6.85974e-05
6.8396e-05
6.81201e-05
6.78059e-05
6.7424e-05
6.69816e-05
6.64945e-05
6.59523e-05
6.53632e-05
6.47255e-05
6.40396e-05
6.33144e-05
6.25547e-05
6.1755e-05
6.09194e-05
6.00596e-05
5.91694e-05
5.82547e-05
5.73192e-05
5.63628e-05
5.53923e-05
5.4409e-05
5.34157e-05
5.24172e-05
5.14145e-05
5.04135e-05
4.94133e-05
4.84179e-05
4.74301e-05
4.64479e-05
4.54749e-05
4.45107e-05
4.35542e-05
4.26075e-05
4.16684e-05
4.07368e-05
3.98114e-05
3.88896e-05
3.79693e-05
3.70452e-05
3.61135e-05
3.51695e-05
3.42113e-05
3.32408e-05
3.2264e-05
3.12883e-05
3.03182e-05
2.93517e-05
2.83786e-05
2.73846e-05
2.6361e-05
2.53084e-05
2.42447e-05
2.31738e-05
2.21393e-05
2.12027e-05
2.03988e-05
1.96329e-05
1.88183e-05
1.80215e-05
1.68132e-05
1.61825e-05
1.29139e-05
1.65637e-05
0.000780548
0.000492113
1.54061e-06
6.57199e-06
2.85103e-05
5.83909e-05
6.38848e-05
6.22456e-05
6.07962e-05
6.06863e-05
6.09303e-05
6.09874e-05
6.09965e-05
6.09583e-05
6.08624e-05
6.07233e-05
6.05282e-05
6.0283e-05
5.99945e-05
5.96581e-05
5.9279e-05
5.88584e-05
5.83932e-05
5.78925e-05
5.73602e-05
5.67889e-05
5.61862e-05
5.55576e-05
5.48986e-05
5.42147e-05
5.35076e-05
5.27762e-05
5.20259e-05
5.12568e-05
5.04697e-05
4.9668e-05
4.88523e-05
4.8026e-05
4.71893e-05
4.63448e-05
4.5495e-05
4.46398e-05
4.37825e-05
4.29233e-05
4.20627e-05
4.12037e-05
4.03447e-05
3.94874e-05
3.86309e-05
3.7774e-05
3.69151e-05
3.60504e-05
3.51766e-05
3.42896e-05
3.33884e-05
3.24752e-05
3.15552e-05
3.06355e-05
2.97193e-05
2.88043e-05
2.78801e-05
2.69337e-05
2.59578e-05
2.49535e-05
2.39394e-05
2.29168e-05
2.19264e-05
2.10303e-05
2.02649e-05
1.95342e-05
1.87527e-05
1.79892e-05
1.68266e-05
1.62449e-05
0.000517095
0
2.10545e-06
8.92296e-06
5.20997e-05
5.71986e-05
5.57596e-05
5.44433e-05
5.43411e-05
5.47075e-05
5.49636e-05
5.51131e-05
5.5227e-05
5.52875e-05
5.52986e-05
5.52606e-05
5.5172e-05
5.50399e-05
5.48636e-05
5.4643e-05
5.43809e-05
5.4082e-05
5.37484e-05
5.33769e-05
5.29767e-05
5.25473e-05
5.20882e-05
5.16034e-05
5.10935e-05
5.05613e-05
5.00054e-05
4.94274e-05
4.88323e-05
4.82155e-05
4.75806e-05
4.69302e-05
4.62621e-05
4.55795e-05
4.48828e-05
4.41724e-05
4.34502e-05
4.27173e-05
4.19741e-05
4.12223e-05
4.04627e-05
3.96975e-05
3.8926e-05
3.81506e-05
3.73711e-05
3.65869e-05
3.57972e-05
3.49986e-05
3.4189e-05
3.33651e-05
3.25261e-05
3.16745e-05
3.08153e-05
2.99546e-05
2.90951e-05
2.82339e-05
2.73611e-05
2.64649e-05
2.55394e-05
2.45863e-05
2.36246e-05
2.26529e-05
2.17092e-05
2.08568e-05
2.0132e-05
1.94376e-05
1.86916e-05
0
0
1.06082e-05
4.36057e-05
5.25621e-05
4.98276e-05
4.8897e-05
4.88424e-05
4.92817e-05
4.96716e-05
4.99358e-05
5.01551e-05
5.03344e-05
5.04618e-05
5.05442e-05
5.05849e-05
5.05774e-05
5.05265e-05
5.04352e-05
5.03031e-05
5.01329e-05
4.99267e-05
4.96883e-05
4.94159e-05
4.91157e-05
4.87893e-05
4.84345e-05
4.80567e-05
4.76564e-05
4.72356e-05
4.67916e-05
4.63286e-05
4.58494e-05
4.53482e-05
4.48306e-05
4.42967e-05
4.37449e-05
4.3178e-05
4.25951e-05
4.19971e-05
4.13849e-05
4.07586e-05
4.01194e-05
3.94677e-05
3.88041e-05
3.81307e-05
3.74469e-05
3.6755e-05
3.60551e-05
3.53471e-05
3.46303e-05
3.39023e-05
3.31613e-05
3.24043e-05
3.16315e-05
3.08449e-05
3.00494e-05
2.92504e-05
2.84497e-05
2.76445e-05
2.68253e-05
2.59817e-05
2.5109e-05
2.421e-05
2.33033e-05
2.23847e-05
0
7.82575e-06
3.55354e-05
4.73551e-05
4.50012e-05
4.3773e-05
4.40392e-05
4.4484e-05
4.49488e-05
4.52871e-05
4.55707e-05
4.58213e-05
4.60273e-05
4.61915e-05
4.63116e-05
4.63944e-05
4.64356e-05
4.64347e-05
4.63993e-05
4.63279e-05
4.62235e-05
4.60866e-05
4.59205e-05
4.57262e-05
4.55074e-05
4.52642e-05
4.49963e-05
4.47086e-05
4.44004e-05
4.4073e-05
4.37257e-05
4.33605e-05
4.29791e-05
4.25785e-05
4.2162e-05
4.17289e-05
4.12787e-05
4.08131e-05
4.03306e-05
3.98322e-05
3.93187e-05
3.87892e-05
3.8245e-05
3.76858e-05
3.71125e-05
3.65267e-05
3.59277e-05
3.53179e-05
3.46972e-05
3.40658e-05
3.34234e-05
3.27678e-05
3.20976e-05
3.14102e-05
3.0706e-05
2.99868e-05
2.92572e-05
2.85217e-05
2.77818e-05
2.70344e-05
2.62708e-05
7.43938e-06
3.01866e-05
4.3038e-05
4.07134e-05
3.9466e-05
3.98248e-05
4.03761e-05
4.08381e-05
4.12258e-05
4.15445e-05
4.18343e-05
4.20888e-05
4.23022e-05
4.24797e-05
4.26147e-05
4.2716e-05
4.27809e-05
4.28074e-05
4.28042e-05
4.27685e-05
4.27041e-05
4.26108e-05
4.24935e-05
4.23517e-05
4.21885e-05
4.20053e-05
4.18014e-05
4.15809e-05
4.13431e-05
4.10889e-05
4.0818e-05
4.05322e-05
4.02316e-05
3.99143e-05
3.9583e-05
3.92362e-05
3.88736e-05
3.84965e-05
3.81027e-05
3.76932e-05
3.72685e-05
3.68271e-05
3.63696e-05
3.58964e-05
3.54076e-05
3.49041e-05
3.43862e-05
3.38553e-05
3.33118e-05
3.27557e-05
3.21873e-05
3.16043e-05
3.10055e-05
3.03889e-05
2.9747e-05
3.65542e-05
3.74361e-05
3.56899e-05
3.62566e-05
3.68222e-05
3.72892e-05
3.76761e-05
3.80168e-05
3.832e-05
3.86015e-05
3.88443e-05
3.90503e-05
3.92252e-05
3.93633e-05
3.94707e-05
3.95448e-05
3.95871e-05
3.9602e-05
3.9589e-05
3.95508e-05
3.94889e-05
3.94042e-05
3.92999e-05
3.91778e-05
3.90369e-05
3.88804e-05
3.87094e-05
3.8524e-05
3.8325e-05
3.81121e-05
3.78876e-05
3.76495e-05
3.73982e-05
3.71353e-05
3.6858e-05
3.6568e-05
3.62641e-05
3.59451e-05
3.56122e-05
3.52639e-05
3.48997e-05
)
;

boundaryField
{
    inlet
    {
        type            calculated;
        value           nonuniform List<scalar> 
13
(
7.48355e-05
7.53301e-05
7.57606e-05
7.61454e-05
7.65178e-05
7.69052e-05
7.74202e-05
7.75912e-05
7.72292e-05
7.69933e-05
7.66857e-05
7.642e-05
7.62007e-05
)
;
    }
    outlet
    {
        type            calculated;
        value           nonuniform List<scalar> 0();
    }
    walls
    {
        type            calculated;
        value           uniform 0;
    }
    frontAndBack
    {
        type            empty;
    }
    procBoundary2to1
    {
        type            processor;
        value           nonuniform List<scalar> 
84
(
0.243552
0.0371134
0.0142963
0.00145854
0.0011424
3.95119e-06
0.000174039
0.00014978
0.000156182
0.000146085
0.000146254
0.000142328
0.000140053
0.00013686
0.000133791
0.000130426
0.000126922
0.000123212
0.000119316
0.000115234
0.00011097
0.000106529
0.000101925
9.71776e-05
9.23078e-05
8.73466e-05
8.23364e-05
7.73347e-05
7.24167e-05
6.76891e-05
6.32894e-05
5.9387e-05
5.61682e-05
5.37836e-05
5.22853e-05
5.15808e-05
5.14679e-05
5.17075e-05
5.17075e-05
5.84465e-05
5.77982e-05
5.71991e-05
5.65852e-05
5.59126e-05
5.51551e-05
5.42999e-05
5.3344e-05
5.22922e-05
5.11524e-05
4.9935e-05
4.8651e-05
4.73098e-05
4.59191e-05
4.59191e-05
4.51605e-05
4.35917e-05
4.20027e-05
4.04015e-05
3.88019e-05
3.72218e-05
3.56773e-05
3.41736e-05
3.27014e-05
3.27014e-05
3.14055e-05
2.99141e-05
2.84109e-05
2.69095e-05
2.54307e-05
2.40198e-05
2.27914e-05
2.17599e-05
2.0791e-05
1.98129e-05
1.98129e-05
1.89132e-05
1.78578e-05
1.64324e-05
1.4355e-05
1.27011e-05
1.3265e-05
2.12483e-05
2.96281e-05
4.10104e-05
)
;
    }
    procBoundary2to3
    {
        type            processor;
        value           nonuniform List<scalar> 
88
(
2.6594e-05
3.7282e-05
1.25945e-05
2.6594e-05
2.5514e-05
1.32106e-05
1.25945e-05
1.67605e-05
1.79629e-05
1.68513e-05
1.32106e-05
1.63214e-05
2.14904e-05
2.06842e-05
2.00013e-05
1.93443e-05
1.79629e-05
1.86357e-05
2.54823e-05
2.46651e-05
2.38228e-05
2.29734e-05
2.14904e-05
2.21103e-05
2.97545e-05
2.9104e-05
2.84415e-05
2.77707e-05
2.70927e-05
2.64046e-05
2.54823e-05
2.56986e-05
3.45196e-05
3.41238e-05
3.37118e-05
3.32841e-05
3.28419e-05
3.23853e-05
3.19152e-05
3.14319e-05
3.09354e-05
3.04238e-05
2.98958e-05
2.97545e-05
2.93495e-05
3.44776e-05
3.25806e-05
3.30641e-05
3.30563e-05
3.3795e-05
3.41883e-05
3.4572e-05
3.49024e-05
3.52115e-05
3.54938e-05
3.57484e-05
3.59694e-05
3.61587e-05
3.63231e-05
3.64542e-05
3.65567e-05
3.66317e-05
3.66807e-05
3.67053e-05
3.67062e-05
3.66849e-05
3.66441e-05
3.6585e-05
3.65087e-05
3.64164e-05
3.631e-05
3.61909e-05
3.60585e-05
3.59151e-05
3.57601e-05
3.55943e-05
3.54181e-05
3.5231e-05
3.50337e-05
3.48256e-05
3.46059e-05
3.43756e-05
3.41323e-05
3.38764e-05
3.3608e-05
3.33251e-05
3.45196e-05
3.30277e-05
)
;
    }
    procBoundary2to6
    {
        type            processor;
        value           nonuniform List<scalar> 
13
(
0.249474
0.14635
0.103042
0.0780071
0.0579433
0.0395111
0.0222219
0.00800086
0.000739196
0.000367173
0
0
7.95574e-06
)
;
    }
}


// ************************************************************************* //
