/*--------------------------------*- C++ -*----------------------------------*\
| =========                 |                                                 |
| \\      /  F ield         | OpenFOAM: The Open Source CFD Toolbox           |
|  \\    /   O peration     | Version:  2506                                  |
|   \\  /    A nd           | Website:  www.openfoam.com                      |
|    \\/     M anipulation  |                                                 |
\*---------------------------------------------------------------------------*/
FoamFile
{
    version     2.0;
    format      ascii;
    arch        "LSB;label=32;scalar=64";
    class       volVectorField;
    location    "400";
    object      U;
}
// * * * * * * * * * * * * * * * * * * * * * * * * * * * * * * * * * * * * * //

dimensions      [0 1 -1 0 0 0 0];

internalField   nonuniform List<vector> 
1340
(
(23.0077 2.62726 2.30765e-16)
(22.3174 2.92665 8.27299e-16)
(21.3672 3.1342 2.18487e-15)
(18.7648 3.31175 2.34048e-15)
(24.6045 3.18329 -1.089e-16)
(24.0359 3.42892 -6.36492e-16)
(23.4731 3.64811 -2.2753e-15)
(21.4976 3.71657 -2.42357e-15)
(25.2955 3.0392 1.03744e-16)
(24.7698 3.37352 -9.25319e-16)
(24.1693 3.62611 4.34783e-15)
(22.3696 3.7274 1.0708e-14)
(25.5777 3.25145 -5.66362e-16)
(25.1463 3.52034 2.55208e-15)
(24.6142 3.69604 -1.98935e-15)
(22.9849 3.75935 -2.10583e-15)
(25.5242 3.00245 -1.751e-16)
(25.1356 3.32883 -8.61015e-16)
(24.6771 3.54896 2.85151e-15)
(23.3014 3.66101 -3.12246e-15)
(25.4952 3.16976 6.64444e-16)
(25.1127 3.44514 -2.53046e-15)
(24.6512 3.59202 -3.30223e-15)
(23.4323 3.6288 1.09351e-15)
(25.4658 3.00999 -6.03937e-16)
(25.0933 3.29801 1.83153e-15)
(24.6336 3.46062 1.91108e-16)
(23.5071 3.50383 5.68332e-15)
(25.4316 3.05764 6.69148e-16)
(25.0689 3.32356 -6.18699e-16)
(24.6199 3.44653 2.6943e-16)
(23.5732 3.43479 -3.06654e-16)
(25.4025 2.99155 -2.03535e-17)
(25.0509 3.25235 3.23107e-16)
(24.6141 3.37065 3.29568e-16)
(23.6447 3.34526 -4.17678e-16)
(25.3701 2.98012 2.61525e-16)
(25.0304 3.22632 2.11319e-15)
(24.6075 3.32285 -2.56826e-15)
(23.7158 3.2676 2.00413e-15)
(25.339 2.9429 2.71237e-17)
(25.012 3.17916 -2.46704e-15)
(24.6034 3.26444 4.19445e-15)
(23.7858 3.19128 2.17723e-15)
(25.3071 2.91656 -5.99691e-16)
(24.9937 3.14018 1.60311e-15)
(24.6008 3.21113 -2.35937e-15)
(23.854 3.11932 -4.08682e-15)
(25.2754 2.88509 7.52267e-16)
(24.9762 3.09712 -2.32367e-15)
(24.6 3.15697 -2.10113e-16)
(23.9203 3.0508 -5.57529e-15)
(25.2435 2.85556 -5.71895e-16)
(24.9593 3.05542 1.58603e-15)
(24.6007 3.10461 4.17951e-16)
(23.9846 2.98618 3.55288e-15)
(25.2117 2.82523 1.41852e-16)
(24.943 3.01316 6.86621e-16)
(24.6029 3.05322 1.76147e-15)
(24.0467 2.92552 -1.78984e-15)
(25.18 2.79544 8.34373e-17)
(24.9274 2.97138 -1.05975e-15)
(24.6065 3.00333 -2.50336e-15)
(24.1063 2.86874 -1.56131e-15)
(25.1486 2.76591 -1.9857e-17)
(24.9124 2.93006 5.54513e-16)
(24.6113 2.95501 -8.80994e-16)
(24.1636 2.81601 4.30078e-15)
(25.1174 2.737 3.64312e-16)
(24.8981 2.88952 -1.7087e-15)
(24.6174 2.90842 1.51745e-15)
(24.2183 2.76716 -3.23385e-15)
(25.0868 2.70887 -1.07352e-15)
(24.8845 2.84999 4.58531e-16)
(24.6244 2.86374 1.14405e-15)
(24.2705 2.72231 5.15633e-15)
(25.0568 2.68173 5.70578e-16)
(24.8716 2.81173 1.34463e-15)
(24.6324 2.82114 -1.18258e-15)
(24.3201 2.68135 -3.16062e-15)
(25.0274 2.65582 -1.6968e-16)
(24.8594 2.77501 -1.09923e-15)
(24.6412 2.78074 -5.83519e-16)
(24.3672 2.64417 6.49192e-16)
(24.999 2.63134 5.03088e-17)
(24.848 2.74005 1.82151e-16)
(24.6505 2.74274 7.80008e-16)
(24.4117 2.61077 -9.91917e-18)
(24.9715 2.60851 3.66069e-16)
(24.8373 2.70711 3.76055e-17)
(24.6604 2.70724 9.80008e-16)
(24.4538 2.58094 -8.3301e-16)
(24.9451 2.58755 -2.9921e-16)
(24.8274 2.67641 -3.3218e-16)
(24.6707 2.6744 -2.02886e-15)
(24.4934 2.55465 5.17467e-16)
(24.92 2.56867 2.32169e-16)
(24.8183 2.64816 7.10714e-16)
(24.6812 2.64434 8.02766e-16)
(24.5306 2.53173 4.58763e-16)
(24.8963 2.55205 -5.96878e-16)
(24.8101 2.62256 -4.34157e-18)
(24.6919 2.61718 1.36764e-15)
(24.5656 2.51207 6.9655e-16)
(24.8742 2.53786 5.41508e-16)
(24.8028 2.59977 4.47617e-16)
(24.7027 2.59301 -1.09298e-15)
(24.5984 2.49556 -1.77102e-15)
(24.8537 2.52624 1.70004e-17)
(24.7965 2.57993 -1.48642e-16)
(24.7135 2.5719 7.87093e-16)
(24.6292 2.48207 1.15176e-15)
(24.8351 2.51733 -3.33343e-17)
(24.7911 2.56317 -4.81118e-16)
(24.7243 2.55394 -1.15744e-15)
(24.658 2.47149 -1.41239e-15)
(24.8184 2.5112 -1.44281e-16)
(24.7868 2.54955 -3.19339e-16)
(24.7351 2.53915 5.69786e-16)
(24.6849 2.46372 -9.27911e-17)
(24.8037 2.50791 -1.3307e-16)
(24.7836 2.53914 -8.01588e-17)
(24.7458 2.52755 6.44732e-17)
(24.7102 2.45867 1.37251e-15)
(24.7913 2.50749 -1.71103e-16)
(24.7816 2.53196 4.63657e-16)
(24.7566 2.51912 1.98452e-16)
(24.7339 2.45622 1.30275e-15)
(24.7811 2.50992 -5.67052e-17)
(24.7808 2.52798 -1.58787e-16)
(24.7674 2.51386 -4.90465e-16)
(24.7562 2.45632 -1.19541e-15)
(24.7733 2.51513 3.3963e-16)
(24.7814 2.52716 2.02134e-16)
(24.7783 2.51168 -2.67123e-18)
(24.7772 2.45886 -8.23166e-16)
(24.768 2.52306 -7.65864e-17)
(24.7834 2.52941 -7.15208e-16)
(24.7894 2.51251 5.8971e-16)
(24.7972 2.46376 3.98662e-16)
(24.7651 2.53356 1.22663e-16)
(24.7868 2.53461 4.59172e-16)
(24.8007 2.51624 -7.37092e-16)
(24.8162 2.47093 -7.31167e-16)
(24.7648 2.54649 -1.20291e-16)
(24.7917 2.54263 -2.18413e-16)
(24.8125 2.52274 3.68698e-16)
(24.8345 2.48028 2.45206e-16)
(24.767 2.56166 2.05908e-16)
(24.7982 2.55328 4.86709e-17)
(24.8247 2.53185 -4.43921e-16)
(24.8522 2.49169 1.03438e-15)
(24.7298 2.58575 -1.27678e-16)
(24.7717 2.57888 5.47193e-17)
(24.8063 2.56637 -2.45235e-16)
(24.8375 2.54341 7.91304e-16)
(24.8695 2.50506 -1.69569e-16)
(24.7362 2.60983 3.59695e-16)
(24.7789 2.5979 -6.02523e-16)
(24.8161 2.58167 9.64615e-16)
(24.8509 2.55722 3.81293e-17)
(24.8866 2.52025 4.27974e-17)
(24.7456 2.63484 -1.06531e-16)
(24.7885 2.6185 1.20039e-16)
(24.8275 2.59897 -5.52841e-16)
(24.8651 2.57308 -8.89613e-16)
(24.9035 2.53714 -2.32401e-17)
(24.7578 2.66056 -1.40528e-16)
(24.8004 2.64044 3.65092e-16)
(24.8405 2.61801 -1.01468e-16)
(24.8801 2.59077 3.34975e-16)
(24.9206 2.55558 -5.364e-16)
(24.7727 2.68677 2.41842e-16)
(24.8146 2.66345 2.92504e-16)
(24.8551 2.63853 2.87002e-16)
(24.896 2.61007 9.69584e-17)
(24.9378 2.5754 5.27165e-16)
(24.7901 2.71325 3.34061e-17)
(24.8309 2.68731 -9.77076e-17)
(24.8713 2.6603 -3.35514e-16)
(24.9128 2.63075 4.06596e-16)
(24.9553 2.59645 2.4421e-16)
(24.8098 2.73981 -2.47989e-17)
(24.8492 2.71177 -3.56436e-16)
(24.889 2.68306 2.35477e-16)
(24.9306 2.65258 -3.03925e-16)
(24.9732 2.61854 -1.03671e-16)
(24.8315 2.76626 7.97368e-17)
(24.8694 2.73661 7.5283e-17)
(24.9082 2.70657 -1.44948e-16)
(24.9493 2.67533 -3.24129e-16)
(24.9916 2.64151 -5.63511e-16)
(24.8551 2.79243 -6.19809e-17)
(24.8912 2.76163 3.39333e-16)
(24.9287 2.7306 -2.87101e-17)
(24.969 2.6988 3.76875e-16)
(25.0106 2.66518 3.48265e-16)
(24.8804 2.81818 1.05132e-16)
(24.9145 2.78662 -2.71796e-16)
(24.9506 2.75493 -3.32678e-17)
(24.9897 2.72276 1.3149e-16)
(25.0302 2.68936 -5.45548e-16)
(24.9071 2.84338 2.01481e-16)
(24.9392 2.81142 -3.39954e-16)
(24.9736 2.77937 1.06745e-16)
(25.0113 2.74701 3.8372e-16)
(25.0504 2.7139 5.75779e-17)
(24.935 2.86792 -1.14174e-16)
(24.9651 2.83588 2.05037e-17)
(24.9977 2.80374 -1.99545e-16)
(25.0337 2.77138 1.35173e-16)
(25.0712 2.73862 -1.34353e-16)
(24.9639 2.89172 1.14723e-16)
(24.9921 2.85987 1.75492e-16)
(25.0227 2.82787 -1.14845e-17)
(25.057 2.7957 -4.1386e-16)
(25.0928 2.76337 -1.95802e-16)
(24.9937 2.9147 -4.95893e-17)
(25.0199 2.88326 -3.11397e-16)
(25.0486 2.85164 4.3784e-16)
(25.081 2.8198 -3.39041e-16)
(25.1149 2.78801 8.8105e-17)
(25.0022 2.96768 2.06398e-17)
(25.0241 2.9368 -6.30093e-17)
(25.0483 2.90598 -5.80924e-17)
(25.0751 2.8749 1.8577e-16)
(25.1056 2.84355 4.49027e-16)
(25.1376 2.81239 -5.65745e-17)
(25.0347 2.98801 -6.3262e-17)
(25.0548 2.95799 -3.11535e-16)
(25.0772 2.92793 4.72494e-16)
(25.1022 2.89755 -2.53561e-16)
(25.1307 2.86684 3.34819e-16)
(25.1607 2.8364 -1.24341e-16)
(25.0673 3.00727 1.60823e-16)
(25.0857 2.97823 7.19795e-17)
(25.1063 2.94906 -2.36335e-16)
(25.1294 2.91951 1.60227e-16)
(25.156 2.88954 -4.68475e-17)
(25.1842 2.85991 9.10297e-17)
(25.0997 3.02548 4.45297e-17)
(25.1165 2.99749 -5.1154e-17)
(25.1354 2.96932 5.50629e-17)
(25.1568 2.9407 -1.48771e-16)
(25.1815 2.91157 -1.07654e-16)
(25.2077 2.88282 -6.51287e-18)
(25.1316 3.04264 -1.64296e-16)
(25.1469 3.01577 2.02657e-16)
(25.1643 2.98866 8.62886e-17)
(25.184 2.96105 2.17481e-16)
(25.2069 2.93285 -6.01469e-17)
(25.2313 2.90506 1.16725e-16)
(25.1629 3.05879 7.71845e-17)
(25.1769 3.03308 2.05915e-16)
(25.1928 3.00708 -2.00204e-16)
(25.2109 2.98054 -1.81497e-16)
(25.2321 2.95334 8.0548e-17)
(25.2547 2.92655 -2.36379e-16)
(25.1936 3.07396 -3.37707e-17)
(25.2063 3.04942 -9.58141e-17)
(25.2208 3.02458 2.04956e-16)
(25.2374 2.99915 -3.17952e-16)
(25.257 2.97299 -6.37411e-17)
(25.2779 2.94725 3.03065e-16)
(25.2235 3.0882 -2.95116e-16)
(25.2351 3.06484 2.575e-16)
(25.2483 3.04116 -5.95807e-17)
(25.2636 3.01687 5.97586e-17)
(25.2816 2.99179 2.83739e-17)
(25.3008 2.96712 -2.29185e-16)
(25.2527 3.10154 8.99197e-17)
(25.2632 3.07936 -2.64708e-16)
(25.2753 3.05684 1.83717e-16)
(25.2892 3.0337 6.16933e-17)
(25.3058 3.00972 -3.56167e-16)
(25.3235 2.98616 1.52564e-16)
(25.2726 3.1349 3.30939e-18)
(25.2809 3.11402 -5.79699e-17)
(25.2905 3.093 5.06554e-17)
(25.3015 3.07164 5.48198e-17)
(25.3142 3.04965 -1.43411e-16)
(25.3294 3.02679 -6.31528e-17)
(25.3457 3.00435 7.81175e-17)
(25.3005 3.14542 -2.60024e-16)
(25.3081 3.12567 1.03301e-16)
(25.3168 3.10578 8.8192e-17)
(25.3268 3.08555 -3.20864e-17)
(25.3384 3.06471 1.98757e-16)
(25.3524 3.04296 -2.14641e-16)
(25.3673 3.02165 -9.94557e-17)
(25.327 3.15513 -3.62649e-18)
(25.3339 3.13648 1.85972e-16)
(25.3417 3.1177 -1.55297e-16)
(25.3509 3.09859 -1.83921e-16)
(25.3615 3.07887 1.61462e-16)
(25.3742 3.05824 4.39251e-16)
(25.388 3.03805 -1.37982e-16)
(25.3518 3.16406 6.46151e-17)
(25.358 3.14647 -7.89676e-18)
(25.3652 3.12876 -1.2817e-17)
(25.3734 3.11074 -7.34271e-18)
(25.3831 3.09212 2.6451e-16)
(25.3948 3.07259 -6.02089e-17)
(25.4074 3.05352 -3.53013e-16)
(25.3748 3.17225 -1.23032e-16)
(25.3804 3.15567 1.56125e-16)
(25.3869 3.13901 3.9017e-17)
(25.3944 3.12205 -9.65124e-17)
(25.4032 3.10452 -1.25012e-16)
(25.4139 3.08608 5.00699e-17)
(25.4255 3.0681 3.31724e-17)
(25.396 3.17964 5.13946e-17)
(25.401 3.16405 -8.80199e-17)
(25.4068 3.14839 2.31772e-16)
(25.4136 3.13246 -1.973e-16)
(25.4217 3.11598 2.86195e-16)
(25.4314 3.09861 -1.74348e-16)
(25.4421 3.08171 3.01462e-16)
(25.4124 3.18535 -1.34682e-16)
(25.417 3.17057 -4.88972e-18)
(25.4224 3.15575 -9.92974e-17)
(25.4287 3.14068 -6.38103e-18)
(25.4362 3.12511 -5.29894e-17)
(25.4453 3.10866 -8.81454e-17)
(25.4553 3.09274 9.98185e-17)
(25.4251 3.18982 -1.90802e-16)
(25.4294 3.17572 -2.79858e-17)
(25.4344 3.16161 1.1954e-16)
(25.4404 3.14728 -1.62889e-18)
(25.4474 3.13247 -1.14751e-16)
(25.456 3.11685 1.34776e-17)
(25.4655 3.10177 -1.61973e-16)
(25.4376 3.19417 3.013e-17)
(25.4416 3.18078 8.37182e-17)
(25.4463 3.16739 -7.0746e-17)
(25.4518 3.15383 -1.02277e-16)
(25.4585 3.13983 -1.99828e-16)
(25.4666 3.12505 4.81734e-16)
(25.4755 3.11086 -2.7739e-16)
(25.4499 3.19837 7.58725e-17)
(25.4535 3.18568 -2.87946e-17)
(25.4579 3.17303 2.39217e-17)
(25.463 3.16023 -1.52178e-16)
(25.4692 3.14704 2.49873e-16)
(25.4768 3.13313 -2.73424e-16)
(25.4851 3.11984 3.1902e-16)
(25.4591 3.21448 1.00712e-16)
(25.4618 3.20237 4.99602e-17)
(25.4651 3.19042 -4.68834e-17)
(25.4691 3.17854 -4.39716e-17)
(25.4738 3.16654 -9.69787e-17)
(25.4796 3.1542 -1.03914e-16)
(25.4866 3.14119 3.03432e-16)
(25.4944 3.1288 -1.48498e-16)
(25.4708 3.21737 -4.92428e-17)
(25.4732 3.20593 8.40118e-17)
(25.4761 3.1947 -8.88094e-17)
(25.4797 3.18357 -8.00661e-17)
(25.484 3.17239 8.10947e-17)
(25.4893 3.16094 1.65127e-16)
(25.4958 3.14891 -3.55358e-17)
(25.5031 3.13765 7.06808e-17)
(25.4813 3.22027 1.5785e-16)
(25.4833 3.20953 -1.86975e-16)
(25.4858 3.19899 2.19099e-16)
(25.4889 3.18856 -1.79519e-16)
(25.4926 3.17808 -2.10028e-16)
(25.4972 3.16735 3.23618e-16)
(25.503 3.15604 -2.28346e-16)
(25.5094 3.14519 1.50355e-16)
(25.4888 3.22134 2.25759e-17)
(25.4903 3.21151 -1.62932e-16)
(25.4923 3.20198 1.077e-16)
(25.4948 3.19266 -3.00001e-17)
(25.4979 3.18341 -1.23569e-16)
(25.5019 3.17408 3.55771e-16)
(25.5071 3.16446 -2.12304e-16)
(25.5136 3.15629 3.63365e-17)
(25.4899 3.2214 -8.08965e-17)
(25.4903 3.21136 -8.18872e-17)
(25.4913 3.20155 -1.31282e-16)
(25.4928 3.19193 2.34212e-16)
(25.4949 3.18235 4.01283e-17)
(25.4977 3.17255 -8.34279e-17)
(25.5008 3.1621 2.45054e-16)
(25.5038 3.151 -3.14484e-16)
(25.4875 3.22809 1.02737e-16)
(25.4874 3.22108 3.33892e-17)
(25.4876 3.21443 -1.52682e-16)
(25.4883 3.20802 -1.04706e-16)
(25.4895 3.20178 4.46197e-17)
(25.4917 3.19584 5.45189e-17)
(25.4963 3.19044 -1.35484e-16)
(25.5042 3.18887 1.26026e-17)
(25.474 3.18395 -1.37194e-16)
(25.4738 3.1728 1.08591e-16)
(25.4744 3.16216 9.62743e-17)
(25.4756 3.15197 -7.45049e-17)
(25.4772 3.14207 3.17986e-16)
(25.4784 3.13181 -4.42502e-16)
(25.4767 3.12016 1.76979e-16)
(25.4713 3.10468 -2.71133e-16)
(25.5135 3.32263 1.55023e-16)
(25.514 3.32101 -1.21049e-16)
(25.5146 3.31944 1.02547e-17)
(25.5155 3.31797 6.46737e-17)
(25.5175 3.31681 -8.57856e-17)
(25.5222 3.31667 -1.50898e-16)
(25.5353 3.31902 1.71767e-16)
(25.556 3.32805 -4.08454e-17)
(25.561 2.95964 1.19462e-16)
(25.5662 2.94725 1.45706e-16)
(25.572 2.93547 -1.16669e-16)
(25.5782 2.92405 -3.10904e-16)
(25.5829 2.91252 4.1621e-16)
(25.5845 2.90072 -3.53771e-16)
(25.5743 2.88747 8.59119e-16)
(25.5555 2.8789 -5.40323e-16)
(18.5701 1.40462 7.98594e-19)
(21.2069 1.30999 1.57446e-17)
(22.1303 1.37836 7.77962e-19)
(22.6371 1.47274 -3.5383e-19)
(22.9056 1.53873 1.38268e-18)
(23.0338 1.62204 9.55431e-19)
(23.1263 1.6791 -2.07475e-20)
(23.218 1.75228 1.8905e-19)
(23.3128 1.81079 2.35486e-19)
(23.4069 1.86928 0)
(23.4994 1.92241 -2.11362e-17)
(23.5899 1.97121 3.29125e-19)
(23.678 2.01588 -1.11825e-19)
(23.7636 2.05636 -1.14077e-19)
(23.8463 2.0929 6.76043e-20)
(23.926 2.12557 2.87956e-17)
(24.0025 2.15478 4.73166e-17)
(24.0757 2.18051 -6.87961e-21)
(24.1454 2.20327 2.38234e-21)
(24.2115 2.22328 1.48462e-20)
(24.2742 2.24087 -5.0862e-20)
(24.3332 2.25642 9.55752e-21)
(24.3888 2.2702 1.01883e-19)
(24.4408 2.28262 5.432e-20)
(24.4896 2.29395 2.98722e-19)
(24.535 2.30453 -4.11477e-20)
(24.5774 2.31464 5.3411e-19)
(24.6168 2.32453 3.7845e-19)
(24.6534 2.33444 3.92297e-20)
(24.6875 2.34458 2.71665e-19)
(24.719 2.35514 -6.95587e-19)
(24.7484 2.36625 -8.42183e-17)
(24.7757 2.37807 -3.27921e-17)
(24.8012 2.39069 2.12386e-18)
(24.825 2.40421 -2.10535e-18)
(24.8473 2.41868 -1.59969e-18)
(24.8684 2.43417 3.04305e-18)
(24.8884 2.4507 6.19604e-19)
(24.9076 2.46829 5.25461e-19)
(24.9261 2.48691 -2.25016e-18)
(24.944 2.50655 -1.17491e-16)
(24.9616 2.52716 2.5493e-18)
(24.979 2.54868 -3.15072e-17)
(24.9964 2.57103 -9.02043e-17)
(25.0139 2.59412 2.434e-18)
(25.0315 2.61784 -7.71673e-17)
(25.0495 2.64208 1.60144e-18)
(25.0678 2.66672 1.44533e-18)
(25.0866 2.69163 1.36153e-16)
(25.1059 2.7167 3.07117e-19)
(25.1258 2.74178 1.87789e-18)
(25.1462 2.76677 -2.1889e-16)
(25.167 2.79153 -5.62123e-19)
(25.1884 2.81596 1.3634e-17)
(25.21 2.83994 -7.70539e-20)
(25.2317 2.86338 -3.37878e-19)
(25.2535 2.8862 -1.46182e-18)
(25.2752 2.90831 5.52357e-17)
(25.2968 2.92967 1.26018e-17)
(25.3182 2.95026 1.28898e-16)
(25.3394 2.97003 2.35528e-16)
(25.3603 2.98896 1.49186e-16)
(25.3806 3.00703 5.51858e-17)
(25.4 3.02421 2.15681e-19)
(25.4184 3.04045 2.5325e-18)
(25.4354 3.05581 5.83764e-17)
(25.451 3.07018 -4.92848e-17)
(25.4635 3.08189 -1.14171e-18)
(25.4733 3.09149 2.22338e-18)
(25.4827 3.10121 -1.4091e-16)
(25.4918 3.11083 -1.42473e-16)
(25.5005 3.12042 8.87187e-19)
(25.5087 3.13007 1.00514e-16)
(25.5143 3.138 -1.28067e-16)
(25.5181 3.1507 0)
(25.5065 3.14405 -2.04671e-17)
(25.5085 3.18731 -1.25286e-17)
(25.4708 3.09596 2.55874e-16)
(25.5653 3.33312 -5.89235e-18)
(25.5533 2.87747 -2.84372e-16)
(21.0246 1.29193 -5.19806e-18)
(22.858 1.28541 -4.90131e-18)
(23.5992 1.3508 8.57894e-18)
(23.8827 1.38812 -3.86993e-18)
(23.9868 1.41717 2.81462e-17)
(24.0145 1.44677 1.29141e-17)
(24.0334 1.47403 -3.21819e-19)
(24.0573 1.50778 3.39391e-18)
(24.0847 1.53952 5.14068e-18)
(24.1135 1.57518 0)
(24.1435 1.61144 2.40154e-17)
(24.1746 1.649 1.37628e-17)
(24.2067 1.68753 -6.47808e-18)
(24.2396 1.72664 -1.0057e-17)
(24.2734 1.76604 3.75691e-17)
(24.3077 1.80548 -3.73568e-17)
(24.3425 1.84465 -4.71693e-17)
(24.3777 1.88325 4.58754e-18)
(24.4129 1.92103 3.22417e-17)
(24.4482 1.95779 6.32504e-18)
(24.4832 1.9933 -5.65288e-18)
(24.5178 2.02747 1.93097e-17)
(24.5519 2.06013 -9.7879e-18)
(24.5854 2.09127 1.19518e-18)
(24.6179 2.12087 4.51857e-18)
(24.6495 2.14896 -1.21292e-17)
(24.6801 2.17561 4.38316e-18)
(24.7095 2.20095 2.40703e-18)
(24.7377 2.2251 1.98628e-19)
(24.7647 2.24824 1.12118e-18)
(24.7905 2.27053 -2.3906e-18)
(24.815 2.29215 8.3353e-17)
(24.8383 2.31329 9.92232e-17)
(24.8604 2.3341 4.71657e-18)
(24.8815 2.35478 -5.02883e-17)
(24.9016 2.37544 -2.77381e-17)
(24.9208 2.39624 3.195e-17)
(24.9392 2.41729 9.54885e-19)
(24.9569 2.43866 9.79188e-18)
(24.974 2.46044 -5.26978e-17)
(24.9908 2.48268 3.35382e-17)
(25.0071 2.50539 1.04825e-16)
(25.0233 2.52859 3.09568e-17)
(25.0394 2.55226 9.4774e-17)
(25.0556 2.57638 1.27792e-16)
(25.0718 2.60089 6.75968e-17)
(25.0883 2.62573 7.5604e-17)
(25.1051 2.65083 -9.20199e-17)
(25.1223 2.6761 -1.31097e-16)
(25.14 2.70146 -8.94675e-17)
(25.1581 2.7268 2.18703e-18)
(25.1767 2.75202 1.52864e-16)
(25.1959 2.77703 1.1843e-17)
(25.2154 2.80172 -2.95577e-17)
(25.2352 2.82599 -9.10668e-20)
(25.2553 2.84976 -9.95419e-17)
(25.2753 2.87294 7.76056e-18)
(25.2954 2.89545 -1.08326e-16)
(25.3154 2.91726 -2.44097e-16)
(25.3353 2.93831 -2.6909e-17)
(25.3551 2.95859 -2.31455e-16)
(25.3746 2.97804 1.24603e-17)
(25.3936 2.99665 -8.06204e-19)
(25.4119 3.01438 3.06642e-16)
(25.4291 3.03119 3.73126e-17)
(25.4451 3.04712 -6.38122e-17)
(25.4597 3.06205 4.72742e-17)
(25.4714 3.07425 -5.88866e-17)
(25.4805 3.08427 6.57615e-17)
(25.4894 3.09444 1.40115e-16)
(25.4979 3.10454 1.39288e-16)
(25.506 3.11461 1.08308e-18)
(25.5136 3.12482 -1.02243e-16)
(25.5186 3.13313 1.24807e-16)
(25.5214 3.14676 0)
(25.5097 3.13977 2.13414e-17)
(25.5093 3.18539 1.468e-18)
(25.4764 3.09231 -3.46271e-16)
(25.5628 3.33348 5.72619e-18)
(25.5668 2.88114 2.82558e-16)
(22.7089 1.38037 4.46723e-18)
(23.9196 1.42426 9.27277e-18)
(24.4581 1.47453 1.12399e-18)
(24.5988 1.50453 -1.13167e-18)
(24.6273 1.5345 -5.61681e-18)
(24.6288 1.56148 4.28051e-18)
(24.633 1.58935 -1.1472e-19)
(24.64 1.61691 3.08529e-18)
(24.6474 1.64362 1.84738e-17)
(24.6548 1.67068 0)
(24.6621 1.69692 -9.48625e-18)
(24.6695 1.72322 7.04368e-18)
(24.677 1.74928 -3.5538e-18)
(24.6847 1.77525 -1.5303e-17)
(24.6928 1.80117 -1.91813e-17)
(24.7013 1.82717 7.91502e-18)
(24.7102 1.85322 3.41269e-17)
(24.7197 1.87949 2.55878e-17)
(24.7298 1.90584 -3.76513e-17)
(24.7404 1.93241 5.38644e-18)
(24.7518 1.9591 -6.43368e-17)
(24.7638 1.98593 -2.75909e-17)
(24.7765 2.01282 5.53753e-18)
(24.7898 2.03971 -1.64927e-17)
(24.8036 2.06654 4.84937e-18)
(24.818 2.09325 1.59279e-17)
(24.8329 2.11973 5.05219e-17)
(24.8481 2.14596 2.81547e-18)
(24.8635 2.17187 2.36621e-19)
(24.8792 2.19743 -8.1909e-18)
(24.8949 2.22263 -3.75807e-17)
(24.9106 2.24747 1.42327e-17)
(24.9263 2.27199 -1.88714e-18)
(24.9418 2.29622 5.8289e-17)
(24.9571 2.32022 4.06767e-17)
(24.9723 2.34405 -4.71776e-17)
(24.9872 2.36779 -2.0776e-17)
(25.0018 2.3915 1.10123e-18)
(25.0163 2.41525 -7.42109e-17)
(25.0306 2.4391 2.97812e-18)
(25.0447 2.46311 -4.7162e-17)
(25.0588 2.48732 -9.71709e-17)
(25.0728 2.51175 -3.15029e-17)
(25.0869 2.53641 -5.57463e-17)
(25.101 2.5613 -2.89889e-18)
(25.1154 2.58641 -5.15279e-18)
(25.13 2.6117 -8.18292e-17)
(25.145 2.63713 5.87258e-18)
(25.1603 2.66265 2.34311e-18)
(25.1761 2.68818 1.56811e-16)
(25.1924 2.71366 -3.27363e-17)
(25.2092 2.73902 -1.14037e-16)
(25.2265 2.76415 1.71485e-16)
(25.2441 2.78899 2.62212e-17)
(25.2621 2.81343 7.61665e-17)
(25.2804 2.8374 1.695e-16)
(25.2987 2.86082 -2.09868e-18)
(25.317 2.88361 1.04771e-16)
(25.3354 2.90574 4.43261e-18)
(25.3537 2.92716 -4.35622e-19)
(25.372 2.94783 1.82503e-18)
(25.3901 2.96772 -7.74589e-19)
(25.4078 2.98678 -8.38226e-19)
(25.4247 3.00498 -2.89209e-16)
(25.4407 3.02228 -3.07271e-17)
(25.4556 3.03871 -3.26691e-18)
(25.4692 3.05416 -4.77022e-17)
(25.4801 3.06681 -4.94043e-19)
(25.4885 3.07722 -5.98536e-17)
(25.4966 3.08782 -1.71893e-16)
(25.5045 3.09836 -1.37967e-16)
(25.512 3.10888 -8.20249e-17)
(25.5189 3.11964 -6.23115e-17)
(25.5233 3.12836 -1.77024e-18)
(25.5249 3.14276 0)
(25.5135 3.13583 -5.34731e-17)
(25.5098 3.18291 4.29015e-16)
(25.4837 3.08983 3.43108e-16)
(25.559 3.33259 -5.2817e-18)
(25.5831 2.88506 -9.09962e-19)
(23.7065 1.48731 -5.07769e-19)
(24.4897 1.52426 -6.30972e-18)
(24.8112 1.55104 1.48995e-18)
(24.8519 1.56959 -2.95588e-19)
(24.8512 1.5895 8.22287e-18)
(24.8503 1.6088 1.08403e-18)
(24.8541 1.63018 -2.92865e-20)
(24.8591 1.65154 1.72406e-19)
(24.864 1.67384 -9.30608e-19)
(24.8688 1.69664 0)
(24.8737 1.71975 1.28245e-18)
(24.8785 1.74339 2.12055e-18)
(24.8834 1.76724 -1.1267e-18)
(24.8883 1.79132 -9.90086e-19)
(24.8932 1.81556 2.27922e-17)
(24.8982 1.83989 9.64459e-18)
(24.9032 1.86423 -3.58915e-18)
(24.9083 1.88861 -9.88558e-19)
(24.9136 1.91292 2.29421e-17)
(24.919 1.93721 2.646e-18)
(24.9246 1.96144 4.09996e-18)
(24.9304 1.98563 2.30726e-17)
(24.9365 2.00979 4.95856e-17)
(24.9429 2.03393 -1.28564e-17)
(24.9496 2.05807 3.26988e-18)
(24.9567 2.08224 -8.75022e-19)
(24.9642 2.10644 -4.10497e-17)
(24.9721 2.13068 2.23296e-18)
(24.9803 2.15496 1.96656e-19)
(24.989 2.17929 2.0694e-18)
(24.998 2.20366 5.11174e-19)
(25.0073 2.22806 -1.60793e-18)
(25.017 2.25248 -2.33699e-17)
(25.0269 2.27693 -1.60151e-17)
(25.0371 2.30138 -7.11977e-17)
(25.0475 2.32586 1.52132e-18)
(25.0581 2.35036 1.24665e-16)
(25.0688 2.3749 1.13508e-18)
(25.0797 2.3995 6.63769e-17)
(25.0907 2.42418 -1.83126e-17)
(25.1018 2.44894 6.8508e-17)
(25.1131 2.47382 9.27527e-17)
(25.1246 2.49882 -2.46446e-17)
(25.1362 2.52395 6.31172e-18)
(25.1482 2.54921 -4.07953e-17)
(25.1603 2.57458 -5.25435e-18)
(25.1729 2.60005 2.50663e-18)
(25.1858 2.62559 5.95352e-18)
(25.1991 2.65116 2.37015e-18)
(25.213 2.67671 -2.57489e-18)
(25.2273 2.70219 3.74837e-18)
(25.2422 2.72753 3.43268e-18)
(25.2575 2.75266 -1.63138e-19)
(25.2733 2.77751 -1.62711e-18)
(25.2895 2.802 -1.11236e-16)
(25.3059 2.82606 -1.62905e-16)
(25.3224 2.8496 -8.1387e-17)
(25.3391 2.87257 -1.58001e-18)
(25.3558 2.89491 2.17223e-16)
(25.3725 2.91659 -4.42171e-19)
(25.3893 2.93757 2.15706e-16)
(25.406 2.9578 -7.88689e-19)
(25.4223 2.97725 -8.54942e-19)
(25.438 2.99586 -8.00021e-20)
(25.4528 3.01359 3.38485e-18)
(25.4665 3.03048 -3.35148e-18)
(25.479 3.04639 -2.17349e-19)
(25.489 3.05948 -5.09145e-19)
(25.4967 3.07025 3.01919e-18)
(25.5042 3.08125 2.67952e-18)
(25.5114 3.09222 4.94671e-19)
(25.5183 3.1032 2.47274e-18)
(25.5245 3.11448 -3.15266e-19)
(25.5283 3.12364 -1.885e-18)
(25.5287 3.13871 0)
(25.5174 3.13206 1.32727e-18)
(25.5109 3.18021 -1.67199e-17)
(25.4905 3.08778 -9.12593e-17)
(25.5576 3.33156 -1.79001e-19)
(25.5967 2.88812 -6.42834e-19)
(24.4637 1.62832 -6.13907e-18)
(24.9201 1.6501 9.68721e-19)
(25.0502 1.66469 1.21493e-18)
(25.0395 1.67558 -3.23488e-19)
(25.0349 1.68737 7.16846e-18)
(25.0348 1.69964 1.66029e-17)
(25.0368 1.71301 -9.33091e-18)
(25.0386 1.72665 8.84364e-19)
(25.0401 1.74118 -1.40001e-18)
(25.0414 1.75627 0)
(25.0426 1.77207 1.56063e-17)
(25.0438 1.78859 2.18695e-17)
(25.045 1.80578 -8.65818e-18)
(25.0461 1.82369 -9.3644e-18)
(25.0473 1.84229 2.9992e-19)
(25.0486 1.86152 -1.13176e-18)
(25.0499 1.8814 -4.54376e-19)
(25.0514 1.90185 -9.56908e-19)
(25.0531 1.92283 -3.44895e-17)
(25.055 1.9443 3.53337e-18)
(25.057 1.9662 3.13362e-18)
(25.0593 1.98846 -1.27905e-17)
(25.0619 2.01103 -2.30469e-18)
(25.0647 2.03387 4.04606e-18)
(25.0678 2.0569 2.74294e-17)
(25.0712 2.08013 7.00281e-18)
(25.0749 2.10349 3.86015e-17)
(25.0789 2.12696 2.30142e-17)
(25.0833 2.15054 2.88201e-17)
(25.0879 2.17422 1.70392e-17)
(25.0929 2.19797 5.60468e-17)
(25.0982 2.22181 -2.50941e-17)
(25.1039 2.24574 -2.72982e-17)
(25.1099 2.26976 3.43173e-17)
(25.1162 2.29386 -9.77417e-18)
(25.1229 2.31807 2.02026e-17)
(25.1298 2.34237 -2.96447e-18)
(25.1371 2.36677 -4.06062e-17)
(25.1447 2.39129 1.52463e-17)
(25.1526 2.41591 1.30452e-17)
(25.1608 2.44064 -3.70482e-17)
(25.1692 2.46549 -8.78776e-17)
(25.1781 2.49044 5.47809e-17)
(25.1872 2.51551 6.49683e-18)
(25.1967 2.54068 -6.91655e-17)
(25.2066 2.56593 -5.40867e-18)
(25.2169 2.59125 1.98803e-18)
(25.2277 2.61661 4.85892e-17)
(25.2389 2.64199 5.59047e-17)
(25.2507 2.66735 4.79939e-17)
(25.2631 2.69263 7.24531e-19)
(25.276 2.71779 2.34005e-16)
(25.2894 2.74276 -1.68367e-19)
(25.3033 2.76748 -2.61563e-17)
(25.3176 2.79188 1.04825e-16)
(25.3322 2.81588 4.30389e-17)
(25.3469 2.83942 -1.15612e-16)
(25.3618 2.86244 -1.64729e-18)
(25.3769 2.88489 1.02178e-17)
(25.3921 2.90673 2.28563e-17)
(25.4073 2.92792 -4.34421e-18)
(25.4225 2.94841 -1.26053e-17)
(25.4375 2.96814 -2.11211e-16)
(25.4518 2.98709 2.67172e-16)
(25.4653 3.00519 1.42929e-16)
(25.4779 3.02247 -3.5697e-18)
(25.4894 3.03881 -2.32127e-19)
(25.4985 3.05228 -1.0038e-16)
(25.5055 3.0634 3.23699e-18)
(25.5123 3.07479 3.74602e-17)
(25.5188 3.08617 5.33146e-19)
(25.525 3.09759 2.23808e-16)
(25.5305 3.10936 -3.42087e-19)
(25.5337 3.11898 -1.2116e-16)
(25.5329 3.13467 0)
(25.5215 3.12843 -1.82408e-17)
(25.5127 3.17743 1.24767e-17)
(25.497 3.08601 8.87871e-17)
(25.5582 3.33048 1.41947e-19)
(25.6092 2.8908 -6.14811e-19)
(25.0074 1.75846 -4.24194e-19)
(25.2073 1.76846 8.60776e-19)
(25.2208 1.77774 -8.50144e-19)
(25.2053 1.78554 -5.86523e-19)
(25.2053 1.7946 -3.09283e-19)
(25.2061 1.80408 -1.3102e-17)
(25.2071 1.81405 1.67096e-17)
(25.2075 1.82436 -1.35261e-18)
(25.2074 1.83518 -1.03733e-17)
(25.207 1.84639 0)
(25.2063 1.8581 -5.98565e-18)
(25.2053 1.87029 -7.02434e-19)
(25.204 1.88298 -8.10887e-20)
(25.2025 1.8962 -2.21155e-18)
(25.2008 1.90994 -2.07332e-19)
(25.199 1.92424 -7.8467e-18)
(25.197 1.93913 -2.03325e-18)
(25.195 1.95459 -1.42434e-17)
(25.193 1.97065 2.27923e-19)
(25.191 1.98731 3.73155e-19)
(25.1891 2.00458 3.90009e-17)
(25.1874 2.02243 2.68975e-19)
(25.1859 2.04087 -2.22617e-17)
(25.1847 2.05987 2.71493e-17)
(25.1837 2.0794 -1.45117e-18)
(25.1831 2.09944 -1.82333e-17)
(25.1828 2.11995 -8.25771e-19)
(25.1828 2.14089 -4.1779e-19)
(25.1833 2.16222 -1.79949e-17)
(25.1842 2.1839 -1.30737e-17)
(25.1854 2.20591 -5.42064e-17)
(25.1871 2.2282 2.17538e-17)
(25.1892 2.25074 2.76175e-18)
(25.1917 2.27353 -5.27659e-17)
(25.1946 2.29652 1.06164e-17)
(25.1979 2.31973 -1.69637e-17)
(25.2017 2.34311 -2.94546e-18)
(25.2058 2.36668 4.23826e-17)
(25.2104 2.39043 -1.32575e-17)
(25.2153 2.41434 -1.24951e-17)
(25.2207 2.43841 -1.05458e-17)
(25.2265 2.46264 8.32397e-17)
(25.2327 2.48701 -2.02355e-19)
(25.2393 2.51152 3.48143e-17)
(25.2464 2.53615 3.31257e-18)
(25.254 2.56088 -5.52711e-18)
(25.2621 2.58571 -4.52823e-17)
(25.2707 2.61059 -3.584e-17)
(25.2798 2.63551 -5.05475e-17)
(25.2896 2.66042 -1.81978e-16)
(25.2999 2.68529 6.6564e-17)
(25.3108 2.71007 -8.07671e-17)
(25.3223 2.73469 -1.42385e-16)
(25.3343 2.75912 -6.61061e-19)
(25.3467 2.78326 -6.95141e-17)
(25.3594 2.80707 -3.67076e-17)
(25.3724 2.83047 1.16257e-16)
(25.3856 2.85341 -1.72693e-18)
(25.399 2.87584 -1.47099e-17)
(25.4125 2.89773 -2.36982e-17)
(25.4263 2.91901 -4.59706e-18)
(25.44 2.93966 -5.21293e-19)
(25.4535 2.9596 2.08482e-16)
(25.4665 2.97879 -2.80805e-16)
(25.4787 2.99718 -1.34961e-16)
(25.49 3.0148 -3.83553e-18)
(25.5004 3.03151 4.29916e-17)
(25.5086 3.04532 1.51028e-16)
(25.5149 3.05675 3.49804e-18)
(25.5209 3.06849 2.40719e-18)
(25.5268 3.08027 2.0719e-18)
(25.5323 3.0921 -1.39222e-16)
(25.5371 3.10435 5.74466e-17)
(25.5395 3.11442 1.16543e-16)
(25.5375 3.13066 0)
(25.526 3.12495 5.35302e-17)
(25.5149 3.17455 -3.99541e-16)
(25.5038 3.0846 -1.33493e-18)
(25.3148 1.87089 -3.04657e-19)
(25.3519 1.87393 5.86646e-19)
(25.3339 1.88064 5.40168e-19)
(25.3299 1.88664 -2.29691e-19)
(25.3318 1.8938 -1.99349e-19)
(25.3325 1.90111 9.46348e-19)
(25.3329 1.90881 -1.15941e-18)
(25.3327 1.91685 2.79173e-19)
(25.3322 1.9253 4.51232e-19)
(25.3313 1.93412 0)
(25.33 1.94335 2.06792e-19)
(25.3284 1.95299 -4.74969e-19)
(25.3265 1.96307 -5.55258e-20)
(25.3242 1.97359 5.07496e-19)
(25.3217 1.98455 -1.46257e-19)
(25.3189 1.99597 1.00594e-19)
(25.3159 2.00787 -1.48551e-18)
(25.3126 2.02025 1.09236e-18)
(25.3092 2.03311 1.73128e-19)
(25.3057 2.04648 3.64388e-18)
(25.3022 2.06036 -1.58444e-18)
(25.2986 2.07477 1.64857e-17)
(25.295 2.0897 -1.12758e-17)
(25.2915 2.10516 5.75081e-19)
(25.2881 2.12117 -2.50232e-20)
(25.2849 2.13773 5.39259e-19)
(25.282 2.15482 -7.28498e-19)
(25.2793 2.17246 -3.73731e-19)
(25.2769 2.19062 -9.65425e-19)
(25.2748 2.2093 1.68507e-18)
(25.2731 2.22847 4.26093e-19)
(25.2718 2.24812 -1.37293e-18)
(25.271 2.26822 2.59576e-18)
(25.2705 2.28875 5.50308e-17)
(25.2705 2.30967 4.65372e-19)
(25.271 2.33097 1.42554e-18)
(25.2719 2.35262 -2.83755e-18)
(25.2733 2.37459 1.10543e-18)
(25.2752 2.39687 8.87049e-19)
(25.2775 2.41943 1.98962e-19)
(25.2803 2.44225 1.35375e-18)
(25.2836 2.46531 -1.86014e-18)
(25.2874 2.4886 -2.00485e-19)
(25.2917 2.5121 4.62981e-18)
(25.2965 2.53578 3.30558e-18)
(25.3019 2.55962 -5.53305e-18)
(25.3078 2.58361 5.66208e-18)
(25.3143 2.6077 6.32312e-18)
(25.3214 2.63188 2.52799e-18)
(25.3291 2.6561 4.4177e-18)
(25.3374 2.68033 8.48747e-19)
(25.3464 2.70452 -3.73613e-18)
(25.356 2.72861 6.87708e-18)
(25.3661 2.75256 -6.76222e-19)
(25.3767 2.77629 -3.78876e-17)
(25.3876 2.79974 3.94943e-17)
(25.3988 2.82286 6.73773e-19)
(25.4102 2.84559 -1.78778e-18)
(25.4219 2.86787 -2.42403e-18)
(25.4339 2.88968 2.0977e-17)
(25.4461 2.91095 -1.82303e-16)
(25.4583 2.93164 1.0386e-17)
(25.4704 2.95169 -1.0121e-18)
(25.482 2.97105 3.41495e-19)
(25.4929 2.98965 4.07887e-18)
(25.503 3.00753 -4.07366e-18)
(25.5122 3.02454 -1.38029e-18)
(25.5194 3.03865 -1.90987e-18)
(25.5249 3.05035 3.74049e-18)
(25.5302 3.06241 -3.02747e-17)
(25.5353 3.07455 -8.666e-19)
(25.5401 3.08677 -2.09678e-16)
(25.5441 3.09947 1.80161e-16)