/*--------------------------------*- C++ -*----------------------------------*\
| =========                 |                                                 |
| \\      /  F ield         | OpenFOAM: The Open Source CFD Toolbox           |
|  \\    /   O peration     | Version:  2506                                  |
|   \\  /    A nd           | Website:  www.openfoam.com                      |
|    \\/     M anipulation  |                                                 |
\*---------------------------------------------------------------------------*/
FoamFile
{
    version     2.0;
    format      ascii;
    arch        "LSB;label=32;scalar=64";
    class       surfaceScalarField;
    location    "300";
    object      phi;
}
// * * * * * * * * * * * * * * * * * * * * * * * * * * * * * * * * * * * * * //

dimensions      [0 3 -1 0 0 0 0];

oriented        oriented;

internalField   nonuniform List<scalar> 
2568
(
0.00987835
-0.0318726
0.038841
-0.0289626
0.0644217
-0.0255807
0.0863776
-0.0219559
0.105073
-0.0186951
0.120797
-0.0157245
0.133894
-0.0130971
0.145082
-0.0111878
0.154683
-0.00960067
0.163173
-0.00849025
0.170784
-0.00761093
0.177824
-0.00704038
0.184414
-0.00658921
0.19072
-0.0063065
0.196728
-0.00600798
0.202362
-0.0056341
0.20697
-0.00460817
0.210373
-0.00340276
0.212895
-0.00252236
0.214593
-0.00169776
0.215695
-0.00110188
0.216341
-0.000645969
0.216523
-0.000182522
0.216028
0.000495753
0.214768
0.00126005
0.212742
0.00202534
0.209991
0.0027517
0.00356207
-0.0156577
-0.0666255
0.015167
-0.0626972
0.043324
-0.0571196
0.0683762
-0.0506329
0.0901561
-0.0437359
0.109042
-0.0375808
0.125489
-0.0321713
0.139719
-0.0273277
0.152183
-0.0236519
0.163183
-0.0206007
0.173013
-0.0183197
0.181979
-0.0165774
0.190339
-0.0154005
0.198204
-0.014454
0.205737
-0.0138394
0.213009
-0.0132798
0.219952
-0.0125768
0.226107
-0.0107636
0.231203
-0.00849826
0.235427
-0.00674713
0.238685
-0.00495534
0.240884
-0.00330062
0.241975
-0.00173732
0.242066
-0.000273169
0.24138
0.00118103
0.240104
0.00253623
0.238256
0.00387393
0.235832
0.0051753
0.00663821
-0.00753645
-0.0985236
0.0222464
-0.09248
0.0495388
-0.0844121
0.0742461
-0.0753402
0.096043
-0.0655327
0.115105
-0.0566428
0.131816
-0.0488818
0.146452
-0.0419638
0.159321
-0.0365209
0.170761
-0.0320411
0.181038
-0.0285965
0.190418
-0.0259575
0.199109
-0.0240915
0.207276
-0.0226206
0.215104
-0.0216679
0.222608
-0.0207836
0.22969
-0.0196586
0.236049
-0.0171229
0.241397
-0.0138459
0.245845
-0.0111954
0.249462
-0.00857259
0.252287
-0.00612563
0.254384
-0.00383433
0.255745
-0.00163423
0.256427
0.000498754
0.256394
0.00256991
0.25565
0.00461787
0.254123
0.00670213
0.00903247
-0.0304039
-0.13196
0.00140725
-0.130335
0.0308157
-0.121888
0.0576367
-0.111233
0.0819703
-0.0996738
0.103465
-0.0870272
0.122363
-0.0755407
0.139095
-0.0656142
0.153915
-0.0567841
0.167144
-0.0497493
0.179004
-0.0439017
0.189791
-0.0393834
0.199682
-0.0358486
0.208908
-0.0333172
0.217606
-0.031319
0.225888
-0.0299494
0.233818
-0.028714
0.241337
-0.0271772
0.248122
-0.0239079
0.253924
-0.0196483
0.258806
-0.0160769
0.262818
-0.0125852
0.266014
-0.00932147
0.268425
-0.00624504
0.27012
-0.0033292
0.271131
-0.000512527
0.271481
0.00222008
0.271163
0.00493554
0.270161
0.00770406
0.0108414
-0.0212864
-0.165005
0.0109261
-0.162547
0.0403733
-0.151336
0.0670614
-0.137921
0.0911812
-0.123794
0.112432
-0.108278
0.131159
-0.0942678
0.147863
-0.0823181
0.162764
-0.0716845
0.176177
-0.0631631
0.188367
-0.0560916
0.19951
-0.0505262
0.20979
-0.0461287
0.219402
-0.0429288
0.228483
-0.0404001
0.237125
-0.0385915
0.245368
-0.0369572
0.253176
-0.0349851
0.260272
-0.0310042
0.266393
-0.0257693
0.271571
-0.0212549
0.275846
-0.01686
0.27927
-0.0127458
0.281866
-0.00884023
0.283667
-0.00513023
0.284717
-0.00156319
0.285084
0.00185332
0.284775
0.00524505
0.283773
0.00870573
0.0125581
-0.0459307
-0.191902
-0.0119589
-0.198977
0.0209729
-0.195479
0.0507845
-0.181147
0.0775818
-0.164719
0.101654
-0.147865
0.122757
-0.129382
0.141299
-0.11281
0.15788
-0.0988982
0.172761
-0.0865663
0.186252
-0.0766542
0.198611
-0.0684504
0.21
-0.0619151
0.220615
-0.0567432
0.230581
-0.0528953
0.240029
-0.0498478
0.249049
-0.0476113
0.257662
-0.0455702
0.265813
-0.0431366
0.273318
-0.0385089
0.279843
-0.032295
0.285379
-0.02679
0.290015
-0.0214969
0.293751
-0.0164814
0.296628
-0.0117172
0.298679
-0.00718088
0.299947
-0.00283134
0.300461
0.00133879
0.300231
0.0054757
0.29928
0.00965686
0.0143669
-0.0377781
-0.226009
-0.0025596
-0.234195
0.031358
-0.229397
0.0618397
-0.211629
0.0889961
-0.191875
0.113237
-0.172107
0.134294
-0.150439
0.152714
-0.13123
0.169175
-0.115359
0.183977
-0.101368
0.197458
-0.0901353
0.209902
-0.080895
0.221482
-0.073495
0.232339
-0.0676001
0.242607
-0.0631631
0.252379
-0.0596192
0.261724
-0.0569569
0.270657
-0.0545032
0.279153
-0.0516327
0.286967
-0.0463225
0.293868
-0.0391965
0.299776
-0.0326975
0.304717
-0.0264375
0.308743
-0.0205082
0.311854
-0.0148274
0.31411
-0.00943768
0.315518
-0.00423895
0.316139
0.000717212
0.315989
0.00562567
0.315027
0.0106192
0.0161825
-0.0295465
-0.261553
0.00703999
-0.270782
0.0421783
-0.264535
0.073549
-0.243
0.101257
-0.219583
0.125808
-0.196657
0.146962
-0.171593
0.165325
-0.149593
0.181681
-0.131715
0.196379
-0.116066
0.209797
-0.103553
0.222281
-0.0933794
0.233947
-0.0851614
0.244978
-0.0786306
0.25547
-0.0736554
0.265517
-0.0696664
0.275149
-0.0665888
0.28441
-0.0637639
0.293234
-0.060457
0.301417
-0.054505
0.308689
-0.0464692
0.314966
-0.038974
0.320262
-0.031734
0.324612
-0.0248578
0.328004
-0.0182199
0.330484
-0.0119171
0.332101
-0.00585627
0.332863
-4.44294e-05
0.332806
0.005682
0.331896
0.0115296
0.0180479
-0.0585678
-0.021368
-0.298753
0.0168024
-0.308952
0.0534146
-0.301147
0.0858459
-0.275431
0.114287
-0.248025
0.139319
-0.221689
0.160688
-0.192962
0.179096
-0.168001
0.195399
-0.148018
0.210001
-0.130668
0.223339
-0.116891
0.235772
-0.105812
0.247488
-0.0968775
0.25862
-0.0897628
0.269277
-0.0843121
0.279548
-0.0799376
0.289468
-0.0765087
0.299
-0.0732963
0.30813
-0.0695871
0.316662
-0.0630366
0.324321
-0.0541279
0.330946
-0.0455995
0.336594
-0.0373818
0.341239
-0.0295026
0.344926
-0.0219067
0.347651
-0.0146427
0.34945
-0.00765469
0.350361
-0.000956359
0.350384
0.00565972
0.349513
0.0124005
0.0199146
-0.0131116
0.0269004
-0.348964
0.0650545
-0.339301
0.0987337
-0.30911
0.12808
-0.277371
0.153761
-0.247369
0.175466
-0.214668
0.19399
-0.186524
0.210303
-0.164331
0.224833
-0.145199
0.238079
-0.130137
0.250452
-0.118185
0.262147
-0.108572
0.27332
-0.100936
0.284111
-0.0951036
0.294556
-0.0903817
0.304663
-0.0866162
0.314476
-0.0831088
0.323912
-0.0790238
0.332774
-0.0718989
0.340782
-0.0621351
0.347792
-0.0526095
0.353771
-0.0433616
0.358759
-0.0344905
0.36273
-0.0258772
0.365708
-0.0176212
0.367733
-0.00967981
0.36879
-0.00201333
0.368934
0.00551598
0.368121
0.0132136
0.0217998
0.0372358
0.0771611
-0.379227
0.112239
-0.344188
0.142659
-0.307791
0.169066
-0.273776
0.191248
-0.23685
0.209996
-0.205271
0.226392
-0.180727
0.240883
-0.15969
0.254049
-0.143303
0.266337
-0.130474
0.277982
-0.120217
0.289172
-0.112125
0.300003
-0.105935
0.310568
-0.100947
0.320886
-0.0969348
0.330926
-0.0931486
0.340621
-0.0887191
0.349814
-0.0810914
0.358172
-0.0704933
0.365534
-0.0599717
0.371881
-0.0497082
0.37719
-0.0397992
0.381474
-0.0301619
0.384713
-0.0208601
0.386937
-0.0119032
0.388187
-0.0032634
0.388436
0.00526615
0.387687
0.0139625
0.0236937
0.0897986
0.126383
-0.380772
0.157984
-0.339392
0.185301
-0.301093
0.208067
-0.259616
0.227138
-0.224342
0.24365
-0.197239
0.258162
-0.174202
0.271268
-0.156409
0.283478
-0.142684
0.295042
-0.131781
0.306193
-0.123276
0.317063
-0.116804
0.3277
-0.111584
0.338145
-0.107381
0.348372
-0.103375
0.358345
-0.0986927
0.36784
-0.0905861
0.376538
-0.0791914
0.384254
-0.0676879
0.39094
-0.0563943
0.396596
-0.0454552
0.401164
-0.0347302
0.404687
-0.0243826
0.407147
-0.0143629
0.408566
-0.00468249
0.408961
0.00487051
0.408265
0.0146587
0.0255699
0.141222
0.174129
-0.372299
0.202459
-0.329423
0.225905
-0.283062
0.245385
-0.243822
0.262133
-0.213986
0.276715
-0.188784
0.28979
-0.169484
0.301926
-0.154821
0.313408
-0.143263
0.324496
-0.134364
0.335336
-0.127645
0.346019
-0.122267
0.356558
-0.117919
0.366958
-0.113775
0.377145
-0.108879
0.386935
-0.100376
0.395951
-0.0882069
0.404007
-0.0757443
0.411038
-0.0634247
0.417003
-0.0514202
0.421896
-0.0396231
0.425697
-0.0281833
0.428402
-0.0170687
0.430028
-0.00630794
0.430554
0.00434399
0.429949
0.0152637
0.02744
0.191168
0.220611
-0.358867
0.244848
-0.307299
0.26481
-0.263785
0.281846
-0.231022
0.296543
-0.203481
0.309615
-0.182557
0.321706
-0.166911
0.333114
-0.154671
0.344107
-0.145356
0.354902
-0.138439
0.365593
-0.132959
0.376197
-0.128523
0.386715
-0.124293
0.39711
-0.119275
0.407157
-0.110423
0.416472
-0.0975211
0.424851
-0.0841239
0.432216
-0.070789
0.438523
-0.0577273
0.443729
-0.0448291
0.447814
-0.0322685
0.450763
-0.0200182
0.452581
-0.00812599
0.453267
0.00365874
0.452753
0.0157768
0.0292779
0.239746
-0.38958
0.264846
-0.332398
0.285417
-0.284356
0.302815
-0.24842
0.317694
-0.21836
0.330825
-0.195688
0.342869
-0.178955
0.354193
-0.165995
0.365119
-0.156283
0.375844
-0.149164
0.386498
-0.143613
0.397129
-0.139154
0.407757
-0.134921
0.418321
-0.12984
0.428599
-0.120701
0.43821
-0.107132
0.446893
-0.0928075
0.454579
-0.0784742
0.461196
-0.0643446
0.466714
-0.0503474
0.471075
-0.0366296
0.474288
-0.0232307
0.476335
-0.0101734
0.477165
0.00282894
0.476771
0.0161709
0.0310658
0.259944
0.286043
-0.358497
0.307266
-0.305579
0.325086
-0.26624
0.340209
-0.233483
0.35343
-0.208909
0.36548
-0.191005
0.376736
-0.177251
0.387572
-0.167118
0.398217
-0.159809
0.408827
-0.154223
0.419454
-0.14978
0.430135
-0.145603
0.440846
-0.14055
0.451358
-0.131213
0.461218
-0.116992
0.470183
-0.101772
0.478172
-0.0864636
0.485102
-0.0712745
0.490928
-0.0561734
0.495591
-0.0412923
0.499062
-0.0267017
0.501309
-0.0124209
0.502335
0.00180338
0.502048
0.0164577
0.0327884
0.308398
-0.38565
0.330364
-0.327545
0.348705
-0.284581
0.36412
-0.248898
0.37748
-0.222269
0.389573
-0.203099
0.400794
-0.188472
0.411552
-0.177876
0.42211
-0.170367
0.432644
-0.164757
0.443256
-0.160392
0.453972
-0.15632
0.464797
-0.151375
0.475484
-0.1419
0.485574
-0.127082
0.494819
-0.111018
0.503093
-0.0947377
0.510335
-0.0785163
0.516449
-0.0622874
0.5214
-0.0462438
0.525132
-0.0304339
0.527627
-0.0149158
0.528821
0.000609596
0.528657
0.0166219
0.0344242
0.33204
0.354837
-0.350342
0.373742
-0.303486
0.38951
-0.264666
0.403065
-0.235824
0.415211
-0.215244
0.426435
-0.199696
0.437113
-0.188555
0.447583
-0.180837
0.458039
-0.175213
0.468605
-0.170958
0.479335
-0.16705
0.490255
-0.162295
0.501107
-0.152752
0.511413
-0.137388
0.52089
-0.120494
0.529426
-0.103274
0.536939
-0.0860287
0.543356
-0.0687046
0.54858
-0.0514674
0.552588
-0.0344422
0.555298
-0.0176264
0.556699
-0.000790933
0.556698
0.0166231
0.0359949
0.380679
-0.374056
0.400218
-0.323025
0.416413
-0.280861
0.430207
-0.249618
0.442469
-0.227506
0.453694
-0.21092
0.46433
-0.199191
0.474715
-0.191223
0.48511
-0.185607
0.495602
-0.18145
0.506339
-0.177786
0.517317
-0.173273
0.528308
-0.163743
0.538804
-0.147883
0.548484
-0.130175
0.557284
-0.112074
0.565061
-0.0938057
0.571731
-0.0753751
0.577258
-0.0569937
0.581516
-0.0387007
0.584473
-0.0205832
0.586051
-0.00236929
0.586203
0.0164713
0.0374275
0.407983
-0.398715
0.428249
-0.34329
0.444908
-0.29752
0.458989
-0.263699
0.471412
-0.239929
0.482674
-0.222182
0.493293
-0.209809
0.503617
-0.201547
0.513913
-0.195904
0.524355
-0.191891
0.535047
-0.188479
0.546088
-0.184314
0.557198
-0.174853
0.567838
-0.158524
0.577729
-0.140066
0.58673
-0.121076
0.59475
-0.101825
0.601707
-0.0823324
0.607465
-0.062751
0.611984
-0.0432199
0.615189
-0.0237883
0.616995
-0.00417525
0.617311
0.0161552
0.0387511
0.436859
0.457889
-0.364321
0.475074
-0.314705
0.489484
-0.278109
0.502094
-0.252539
0.513445
-0.233533
0.524037
-0.220401
0.534318
-0.211828
0.544545
-0.206131
0.554925
-0.202271
0.565602
-0.199156
0.576657
-0.195368
0.587859
-0.186055
0.598655
-0.16932
0.608693
-0.150103
0.617892
-0.130275
0.626144
-0.110078
0.633333
-0.0895214
0.639359
-0.068777
0.644131
-0.0479921
0.647575
-0.0272316
0.649575
-0.0061759
0.650074
0.0156564
0.0399083
0.489191
-0.38619
0.506959
-0.332473
0.521774
-0.292924
0.534613
-0.265378
0.546073
-0.244993
0.556727
-0.231055
0.566966
-0.222067
0.577119
-0.216284
0.587433
-0.212585
0.598063
-0.209786
0.609142
-0.206447
0.62044
-0.197353
0.631329
-0.180209
0.641513
-0.160287
0.650896
-0.139657
0.659344
-0.118525
0.666745
-0.0969226
0.673011
-0.075043
0.678018
-0.0529993
0.681685
-0.0308983
0.683926
-0.00841707
0.684606
0.0149765
0.0409156
0.522287
0.540714
-0.3509
0.555928
-0.308138
0.569051
-0.2785
0.580661
-0.256603
0.591352
-0.241747
0.601591
-0.232306
0.611721
-0.226414
0.62196
-0.222824
0.632563
-0.220388
0.643668
-0.217553
0.654989
-0.208673
0.665986
-0.191206
0.676367
-0.170668
0.685764
-0.149055
0.694416
-0.127178
0.70208
-0.104586
0.708522
-0.0814857
0.713751
-0.0582281
0.717726
-0.0348726
0.720172
-0.0108632
0.721022
0.0141265
0.0417388
0.57634
-0.370028
0.59206
-0.323858
0.605498
-0.291938
0.6173
-0.268405
0.628089
-0.252536
0.638331
-0.242547
0.648457
-0.23654
0.65868
-0.233047
0.669182
-0.23089
0.680245
-0.228616
0.691744
-0.220172
0.702777
-0.202239
0.713168
-0.181059
0.72291
-0.158796
0.7316
-0.135868
0.739307
-0.112293
0.746102
-0.0882813
0.751566
-0.0636916
0.755531
-0.0388382
0.758211
-0.013543
0.75944
0.0128971
0.0424079
0.614
-0.389916
0.63022
-0.340077
0.644097
-0.305816
0.656077
-0.280386
0.667024
-0.263483
0.677304
-0.252827
0.687302
-0.246539
0.697477
-0.243222
0.708065
-0.241478
0.719293
-0.239845
0.730618
-0.231496
0.741849
-0.21347
0.752259
-0.19147
0.762059
-0.168596
0.770975
-0.144784
0.778959
-0.120277
0.785706
-0.0950278
0.791403
-0.0693888
0.795749
-0.043184
0.798574
-0.0163685
0.799844
0.0116274
0.0427149
0.65384
0.670695
-0.356932
0.684807
-0.319928
0.697181
-0.292759
0.708197
-0.274499
0.718585
-0.263215
0.728669
-0.256624
0.738909
-0.253462
0.749473
-0.252042
0.76048
-0.250852
0.772072
-0.243088
0.783265
-0.224663
0.79379
-0.201996
0.803507
-0.178313
0.812504
-0.153781
0.820617
-0.12839
0.827663
-0.102073
0.83345
-0.0751765
0.838043
-0.0477763
0.841138
-0.0194635
0.842567
0.0101977
0.0428441
0.713265
-0.374445
0.727991
-0.334653
0.740506
-0.305274
0.751791
-0.285784
0.762217
-0.27364
0.772513
-0.26692
0.782609
-0.263557
0.793027
-0.26246
0.804259
-0.262084
0.81577
-0.254599
0.827045
-0.235938
0.837664
-0.212615
0.847636
-0.188285
0.856693
-0.162838
0.864792
-0.136489
0.871868
-0.109149
0.877976
-0.0812839
0.882679
-0.0524793
0.885914
-0.0226994
0.887757
0.0083549
0.0429014
0.7583
-0.392568
0.77348
-0.349833
0.786458
-0.318252
0.797844
-0.29717
0.808522
-0.284318
0.818705
-0.277104
0.828918
-0.273769
0.839539
-0.273081
0.850663
-0.273208
0.862342
-0.266278
0.873671
-0.247267
0.884259
-0.223203
0.894109
-0.198134
0.903324
-0.172053
0.911628
-0.144793
0.918957
-0.116479
0.924875
-0.0872013
0.929799
-0.0574035
0.933417
-0.0263177
0.935307
0.00646524
0.0425035
0.805945
0.821675
-0.365563
0.834936
-0.331513
0.846765
-0.308999
0.857512
-0.295065
0.867848
-0.28744
0.878052
-0.283974
0.888678
-0.283708
0.899929
-0.284459
0.911647
-0.277996
0.922935
-0.258555
0.933711
-0.23398
0.943665
-0.208088
0.952782
-0.181169
0.961026
-0.153038
0.968345
-0.123797
0.974789
-0.0936456
0.979673
-0.0622871
0.983419
-0.0300641
0.985603
0.00428169
0.0420094
0.872424
-0.381789
0.886307
-0.345396
0.898266
-0.320958
0.909209
-0.306008
0.919699
-0.297929
0.930149
-0.294424
0.940792
-0.294351
0.952082
-0.295749
0.96385
-0.289764
0.975305
-0.27001
0.986042
-0.244716
0.995971
-0.218017
1.00521
-0.19041
1.01362
-0.16145
1.02103
-0.131206
1.02725
-0.0998629
1.03245
-0.067485
1.03619
-0.0338038
1.03867
0.00180285
0.0411638
0.926233
0.940342
-0.359504
0.952788
-0.333404
0.964056
-0.317277
0.974613
-0.308486
0.985119
-0.30493
0.995786
-0.305018
1.00723
-0.307191
1.01918
-0.301713
1.03069
-0.281524
1.04139
-0.255414
1.05152
-0.228151
1.06076
-0.199644
1.06908
-0.169769
1.07644
-0.138566
1.0829
-0.106323
1.08827
-0.0728585
1.09224
-0.0377777
1.09476
-0.000717667
0.0399615
0.997727
-0.37431
1.01034
-0.346021
1.02187
-0.328799
1.03273
-0.319353
1.04328
-0.315478
1.05423
-0.315969
1.06573
-0.31869
1.07775
-0.313733
1.08949
-0.293262
1.10024
-0.266169
1.11023
-0.238133
1.11944
-0.208861
1.12778
-0.178103
1.13544
-0.146224
1.14188
-0.112769
1.14717
-0.0781455
1.15136
-0.0419697
1.15417
-0.00352556
0.0386483
1.05813
-0.38956
1.0713
-0.359183
1.08307
-0.340574
1.09404
-0.330328
1.10492
-0.326354
1.11595
-0.326997
1.12763
-0.330371
1.13986
-0.32596
1.15154
-0.304943
1.16251
-0.277145
1.17246
-0.248079
1.18166
-0.218059
1.19012
-0.186564
1.19758
-0.153684
1.20411
-0.119302
1.20954
-0.0835783
1.21382
-0.0462476
1.21678
-0.00648868
0.0371026
1.12192
1.13564
-0.372902
1.1477
-0.352629
1.15916
-0.341788
1.17001
-0.337209
1.18123
-0.338217
1.19327
-0.342406
1.20549
-0.338179
1.21739
-0.316845
1.22833
-0.288084
1.23848
-0.258233
1.24778
-0.227357
1.25612
-0.194906
1.26349
-0.161053
1.2701
-0.125913
1.27555
-0.0890207
1.2799
-0.0505974
1.28313
-0.00972238
0.035202
1.20354
-0.386973
1.216
-0.36509
1.22762
-0.353412
1.23895
-0.348538
1.25041
-0.349671
1.26241
-0.354411
1.275
-0.350769
1.28703
-0.328869
1.29807
-0.299124
1.30832
-0.268488
1.31748
-0.236514
1.32582
-0.203245
1.33346
-0.168694
1.33989
-0.132346
1.34545
-0.0945833
1.34987
-0.055009
1.35311
-0.0129699
0.0330791
1.2752
-0.401521
1.28823
-0.378121
1.30025
-0.365431
1.31171
-0.360002
1.32343
-0.361388
1.33569
-0.366676
1.34865
-0.363727
1.36084
-0.341053
1.37199
-0.310278
1.38211
-0.278609
1.39138
-0.245782
1.39984
-0.211705
1.40726
-0.176112
1.41375
-0.13884
1.41942
-0.100254
1.42401
-0.0595936
1.42738
-0.0163433
0.0307421
1.35112
1.36451
-0.391513
1.3767
-0.377619
1.38871
-0.372015
1.40068
-0.373364
1.41336
-0.379347
1.42638
-0.37675
1.43881
-0.353482
1.45011
-0.321581
1.46048
-0.288975
1.46975
-0.25505
1.47821
-0.22017
1.48553
-0.183433
1.4922
-0.145511
1.49773
-0.105784
1.50223
-0.0640955
1.50584
-0.019954
0.0283258
1.44506
-0.40548
1.45784
-0.390407
1.47003
-0.384202
1.4823
-0.385628
1.49528
-0.392334
1.50861
-0.390073
1.52136
-0.36624
1.53293
-0.333151
1.5432
-0.299242
1.5526
-0.264448
1.56095
-0.228526
1.56843
-0.190904
1.57491
-0.151991
1.58053
-0.111408
1.58519
-0.0687513
1.5889
-0.0236683
1.53006
-0.419843
1.54331
-0.403656
1.55594
-0.396829
1.56853
-0.398222
1.58197
-0.405771
1.59576
-0.403859
1.60872
-0.379203
1.62035
-0.344784
1.6309
-0.309791
1.64033
-0.273876
1.64871
-0.236908
1.65621
-0.198409
1.66263
-0.158406
1.66823
-0.117004
1.67291
-0.0734309
-0.0273534
1.61998
1.63371
-0.417393
1.6467
-0.409818
1.65978
-0.411295
1.67342
-0.419413
1.68771
-0.418151
1.70101
-0.392504
1.71287
-0.356639
1.7236
-0.320525
1.73308
-0.283349
1.7415
-0.245332
1.74893
-0.205837
1.75552
-0.165004
1.76097
-0.122448
1.76567
-0.0781297
-0.0312451
1.72911
-0.431539
1.74259
-0.423301
1.75624
-0.424949
1.77042
-0.433591
1.78485
-0.432585
1.79867
-0.406321
1.81087
-0.368837
1.82169
-0.331342
1.83135
-0.293013
1.83983
-0.253813
1.84732
-0.213323
1.85362
-0.171305
1.85928
-0.128112
1.864
-0.0828438
-0.0350874
1.82991
-0.44645
1.84403
-0.437427
1.858
-0.438912
1.87269
-0.448286
1.88779
-0.447687
1.90178
-0.420304
1.91436
-0.381416
1.92542
-0.342403
1.93517
-0.30277
1.94374
-0.262375
1.95117
-0.220759
1.95768
-0.177812
1.9632
-0.133632
1.96793
-0.0875735
-0.0389982
1.93646
1.95102
-0.451979
1.96549
-0.453389
1.98073
-0.463528
1.99644
-0.463397
2.01099
-0.434844
2.02386
-0.394293
2.03506
-0.353597
2.04506
-0.31277
2.05372
-0.271036
2.06125
-0.228292
2.06773
-0.184291
2.07324
-0.13914
2.07798
-0.0923214
-0.0428474
2.06407
-0.467226
2.07926
-0.468578
2.09499
-0.479253
2.11116
-0.479574
2.12632
-0.450003
2.13951
-0.40748
2.15112
-0.365206
2.16114
-0.322792
2.16993
-0.279827
2.17758
-0.235939
2.18405
-0.19076
2.18968
-0.14477
2.19432
-0.0969666
-0.0467547
2.18341
-0.483073
2.19918
-0.484351
2.21577
-0.49584
2.23258
-0.496385
2.24812
-0.465549
2.2618
-0.421159
2.27374
-0.377141
2.28406
-0.333113
2.293
-0.288773
2.30067
-0.243603
2.30727
-0.19736
2.31266
-0.150165
2.31734
-0.101641
-0.0508464
2.30961
2.32601
-0.500751
2.34313
-0.512965
2.36074
-0.513994
2.37683
-0.481632
2.39101
-0.435343
2.40331
-0.389438
2.41396
-0.343764
2.42309
-0.2979
2.43079
-0.251307
2.4373
-0.203868
2.44297
-0.155835
2.44756
-0.106229
-0.0547508
2.46002
-0.518066
2.4778
-0.530745
2.49614
-0.532342
2.51304
-0.498527
2.52765
-0.449954
2.54034
-0.40213
2.55123
-0.354652
2.56057
-0.307243
2.56835
-0.25908
2.57515
-0.210675
2.58062
-0.161305
2.58538
-0.110989
-0.0585963
2.6013
-0.53592
2.62007
-0.549518
2.63915
-0.551422
2.65669
-0.516063
2.67186
-0.465128
2.6851
-0.41537
2.69639
-0.365938
2.70585
-0.316706
2.71397
-0.267198
2.72061
-0.217314
2.72627
-0.166963
2.73084
-0.115565
-0.0625149
2.75081
-0.554742
2.77031
-0.569017
2.79018
-0.571295
2.80859
-0.534469
2.82454
-0.48108
2.83799
-0.428819
2.84958
-0.377532
2.85945
-0.326571
2.86769
-0.275443
2.87443
-0.224056
2.88018
-0.17271
2.88484
-0.120222
-0.0663908
2.90835
2.92902
-0.589686
2.94984
-0.59211
2.96897
-0.553604
2.98542
-0.497527
2.99963
-0.44303
3.01169
-0.389592
3.02174
-0.336623
3.03015
-0.283848
3.03727
-0.23118
3.04288
-0.178322
3.04751
-0.124851
-0.0702383
3.09651
-0.611165
3.11842
-0.61402
3.1384
-0.573589
3.1557
-0.514825
3.17043
-0.457765
3.18287
-0.402033
3.1934
-0.347147
3.20199
-0.292444
3.20903
-0.238217
3.21478
-0.18407
3.21965
-0.129724
-0.0740693
3.27348
-0.633744
3.29633
-0.636868
3.31731
-0.594573
3.33535
-0.532862
3.35078
-0.473203
3.36364
-0.41489
3.37443
-0.357931
3.3835
-0.301513
3.39072
-0.245447
3.39664
-0.189982
3.40128
-0.134366
3.46025
-0.65734
3.48427
-0.660894
3.50621
-0.616507
3.52513
-0.551786
3.5412
-0.489272
3.55476
-0.428454
3.56597
-0.369134
3.57517
-0.310717
3.58263
-0.252902
3.58861
-0.195962
-0.139173
3.65755
3.68279
-0.68614
3.70586
-0.639573
3.72561
-0.571532
3.74232
-0.50599
3.75651
-0.442637
3.76817
-0.380793
3.77766
-0.320216
3.78538
-0.260614
3.79158
-0.202164
-0.143919
3.89244
-0.71282
3.91662
-0.663761
3.93725
-0.592155
3.95491
-0.523651
3.9695
-0.457227
3.98178
-0.393074
3.99161
-0.330043
3.99961
-0.268617
4.00569
-0.208244
-0.148885
4.1135
-0.740546
4.13904
-0.689301
4.1608
-0.61391
4.17909
-0.541938
4.19463
-0.472768
4.20719
-0.405636
4.21751
-0.340364
4.22571
-0.276819
4.2322
-0.214735
-0.153847
4.34719
-0.770015
4.3737
-0.715805
4.39667
-0.636886
4.41598
-0.56125
4.43201
-0.488798
4.44528
-0.418899
4.456
-0.351089
4.46444
-0.285257
4.471
-0.221292
-0.158961
4.59357
-0.800905
4.62175
-0.743986
4.64559
-0.660727
4.66585
-0.581514
4.68267
-0.505613
4.69667
-0.432903
4.70772
-0.362135
4.71656
-0.294095
4.72334
-0.228076
-0.164135
4.85368
4.88318
-0.77349
4.90845
-0.685992
4.92972
-0.602783
4.94736
-0.52326
4.96177
-0.447315
4.97356
-0.373918
4.98258
-0.303119
4.98976
-0.235251
-0.169274
5.15927
-0.804515
5.18577
-0.712484
5.20808
-0.625102
5.22674
-0.541912
5.24185
-0.462433
5.25404
-0.386108
5.26355
-0.312624
5.27078
-0.242478
-0.174796
5.45057
-0.837277
5.47844
-0.740353
5.50199
-0.648654
5.52145
-0.561371
5.53745
-0.478432
5.55009
-0.398748
5.56011
-0.322651
5.56756
-0.249922
5.75803
-0.871651
5.78739
-0.769715
5.81209
-0.673355
5.83251
-0.581794
5.84919
-0.495106
5.86257
-0.412134
5.87291
-0.33299
-0.257876
6.08244
-0.907953
6.11329
-0.800568
6.13921
-0.69927
6.1608
-0.603383
6.17832
-0.512628
6.19224
-0.42606
6.20307
-0.343812
-0.266126
6.42477
-0.946133
6.45718
-0.832972
6.48448
-0.72657
6.50714
-0.626041
6.52555
-0.531042
6.54018
-0.440694
6.55153
-0.355157
-0.274588
6.78518
6.81958
-0.867381
6.84867
-0.75566
6.87247
-0.649838
6.89183
-0.550398
6.90646
-0.455327
6.91901
-0.367704
-0.283432
7.20297
-0.903964
7.23219
-0.784875
7.25777
-0.675417
7.27723
-0.56986
7.29432
-0.472413
7.30647
-0.379856
-0.291937
7.60543
-0.940512
7.63831
-0.81776
7.66375
-0.700854
7.68553
-0.591637
7.70233
-0.489215
7.71413
-0.391656
-0.302571
5.52908
-0.947619
5.53769
-0.826371
5.55045
-0.713616
5.56743
-0.608617
5.58613
-0.507913
5.60913
-0.414656
-0.328668
6.08481
-0.952688
6.09512
-0.836679
6.10947
-0.727966
6.1267
-0.625848
6.14812
-0.52933
6.17376
-0.440301
-0.356073
6.69668
-0.958427
6.70755
-0.847552
6.72366
-0.744082
6.74257
-0.644748
6.76684
-0.553603
6.79399
-0.467451
-0.386182
7.37104
-0.965038
7.38395
-0.860463
7.39943
-0.75956
7.42143
-0.666752
7.44745
-0.579616
7.47752
-0.497526
8.11302
-0.973994
8.1256
-0.873052
8.14447
-0.77843
8.16848
-0.690761
8.1964
-0.607535
-0.529407
8.92776
-0.981697
8.94274
-0.888033
8.96265
-0.798336
8.98884
-0.716955
9.0201
-0.638799
-0.565799
9.82654
9.84165
-0.903143
9.86403
-0.82072
9.89259
-0.745513
9.9261
-0.672304
-0.605585
10.8305
-0.91973
10.8543
-0.84446
10.8853
-0.776567
10.9225
-0.709454
-0.648901
11.916
-0.937903
11.9424
-0.87089
11.9747
-0.808856
12.0155
-0.750215
-0.695665
13.1068
-0.958043
13.135
-0.899139
13.1729
-0.846702
13.2165
-0.793885
-0.747767
14.4137
-0.978476
14.4446
-0.930043
14.4823
-0.884454
14.5309
-0.842414
-0.803375
15.87
-1.00386
15.9069
-0.966959
15.953
-0.930568
16.0097
-0.899024
-0.867941
17.4904
17.5255
17.5737
17.6313
)
;

boundaryField
{
    inlet
    {
        type            calculated;
        value           nonuniform List<scalar> 5(-1.02865 -1.00204 -0.978731 -0.95661 -0.936399);
    }
    outlet
    {
        type            calculated;
        value           nonuniform List<scalar> 0();
    }
    walls
    {
        type            calculated;
        value           uniform 0;
    }
    frontAndBack
    {
        type            empty;
    }
    procBoundary1to0
    {
        type            processor;
        value           nonuniform List<scalar> 
94
(
-0.287839
0.0519999
-0.337641
0.00465212
-0.390852
-0.0479225
-0.421103
-0.102929
-0.419065
-0.156784
-0.406683
-0.209033
-0.227902
-0.421623
-0.281245
-0.303721
-0.413969
-0.356965
-0.383324
-0.411103
-0.424471
-0.467321
-0.499473
-0.409004
-0.557212
-0.594112
-0.63311
-0.410646
-0.695753
-0.740177
-0.78707
-0.411443
-0.856199
-0.909287
-0.398734
-0.982922
-1.04288
-1.10615
-0.405329
-1.18947
-1.26065
-1.33583
-0.416809
-1.43109
-1.5157
-1.60495
-0.434866
-1.71496
-1.815
-1.92095
-0.461959
-2.04882
-2.16756
-2.29303
-0.499651
-2.4427
-2.58344
-2.73199
-2.88868
-0.574418
-3.07503
-3.2509
-3.43665
-3.63263
-0.682257
-3.86576
-4.08578
-4.31772
-4.56268
-4.82131
-0.833268
-5.12825
-5.41781
-5.72365
-6.04614
-6.38659
-6.74597
-0.985343
-7.16639
-7.56888
-5.52197
-6.07974
-6.69094
-7.36443
-8.10406
-8.92006
-9.81734
-0.990893
-10.8139
-11.8978
-13.0866
-14.3933
-15.8446
-17.4657
)
;
    }
    procBoundary1to2
    {
        type            processor;
        value           nonuniform List<scalar> 
84
(
0.206428
0.232756
0.251729
0.268352
0.282056
0.297471
0.313211
0.330031
0.347646
0.366236
0.385793
0.406389
0.428079
0.450915
0.474983
0.500325
0.527021
0.555127
0.58477
0.615987
0.648917
0.683598
0.720198
0.758771
0.799537
0.842438
0.8877
0.935705
0.986097
1.03951
1.09597
1.15548
1.21833
1.28503
1.35524
1.42972
1.50826
1.59151
0.0257167
1.67659
1.76956
1.86784
1.97184
2.08183
2.19823
2.32143
2.45146
2.58923
2.73476
2.88871
3.05136
3.22348
3.40511
-0.0779024
3.59341
3.79632
4.01066
4.23716
4.47611
4.72851
4.9949
5.2763
5.57324
-0.18048
5.88087
6.21131
6.55999
6.92785
7.31497
7.72476
5.63523
6.20117
6.8241
7.51174
-0.420398
8.22828
9.0565
9.96588
10.9658
12.0623
13.2686
14.5865
16.0742
17.6997
)
;
    }
    procBoundary1to5
    {
        type            processor;
        value           nonuniform List<scalar> 
13
(
0.0219942
0.0343826
0.0479006
0.0394345
0.0995664
0.0627979
0.0543308
0.159001
0.0788317
0.071885
0.065091
0.251543
0.0948636
)
;
    }
}


// ************************************************************************* //
