/*--------------------------------*- C++ -*----------------------------------*\
| =========                 |                                                 |
| \\      /  F ield         | OpenFOAM: The Open Source CFD Toolbox           |
|  \\    /   O peration     | Version:  2506                                  |
|   \\  /    A nd           | Website:  www.openfoam.com                      |
|    \\/     M anipulation  |                                                 |
\*---------------------------------------------------------------------------*/
FoamFile
{
    version     2.0;
    format      ascii;
    arch        "LSB;label=32;scalar=64";
    class       volSymmTensorField;
    location    "300";
    object      turbulenceProperties:R;
}
// * * * * * * * * * * * * * * * * * * * * * * * * * * * * * * * * * * * * * //

dimensions      [0 2 -2 0 0 0 0];

internalField   nonuniform List<symmTensor> 
1340
(
(0.00194632 0.000261589 5.737e-20 0.00191712 -2.2652e-20 0.0019085)
(0.00211282 0.000277936 1.01418e-19 0.00191798 -5.12959e-20 0.00199766)
(0.00295627 0.000385099 -8.02093e-20 0.00246931 2.02915e-20 0.00271021)
(0.00451196 0.000623535 -2.35892e-20 0.00351927 1.11302e-19 0.00402531)
(0.00693174 0.00109442 1.74264e-19 0.00509408 7.25393e-20 0.00603175)
(0.010507 0.00197047 3.58617e-19 0.00732533 -5.5826e-20 0.00895147)
(0.0156661 0.00349358 -6.81048e-21 0.0104626 -2.18685e-19 0.0131293)
(0.0229204 0.00591497 -7.1765e-20 0.0148904 -1.54499e-19 0.0190055)
(0.0330063 0.00952608 2.46574e-20 0.0212974 -5.36246e-20 0.0273021)
(0.0472436 0.0147474 -1.85899e-19 0.0308094 6.32347e-19 0.0392327)
(0.068137 0.0224659 7.12156e-19 0.0454283 2.6484e-19 0.0570677)
(0.100366 0.0344242 3.18587e-19 0.0687444 -1.18379e-18 0.0849461)
(0.152235 0.0539067 -1.29471e-18 0.107377 -3.39851e-19 0.13038)
(0.240192 0.0874567 -4.3831e-18 0.174591 -2.00408e-18 0.208267)
(0.393783 0.147294 -3.32802e-18 0.295484 -8.90407e-19 0.34609)
(0.68262 0.262423 6.19672e-18 0.530208 -5.75591e-19 0.609067)
(1.22794 0.486318 -7.44266e-18 0.992444 1.20439e-18 1.11563)
(2.39521 0.977765 4.06263e-18 2.02152 -7.21894e-18 2.22011)
(4.80191 2.0156 -1.2629e-16 4.23024 2.60474e-18 4.54061)
(10.5216 4.52969 -7.82779e-17 9.66362 1.23065e-17 10.1503)
(21.2597 9.36528 6.58989e-17 20.3374 8.31819e-19 20.9189)
(29.5405 13.2885 8.6962e-18 29.4201 -1.26741e-19 29.6365)
(32.635 14.9567 6.28573e-17 33.7939 4.63298e-19 33.3619)
(33.0546 15.3957 -4.37092e-16 35.5076 -4.9119e-18 34.4044)
(32.6426 15.4157 1.57289e-16 36.281 2.09064e-17 34.5628)
(31.9199 15.2536 -1.88862e-15 36.6181 -1.53064e-16 34.3527)
(30.9792 14.9536 -3.4579e-15 36.5976 -2.37472e-16 33.8587)
(29.847 14.5314 1.0582e-15 36.2427 1.08246e-16 33.1054)
(0.00153881 0.00015082 2.61191e-20 0.00133596 -8.34558e-20 0.00143928)
(0.00131425 0.000152951 -1.19438e-19 0.00121225 3.14335e-21 0.00126836)
(0.0011136 0.000139699 1.82685e-20 0.00109256 8.08586e-20 0.00110897)
(0.000922011 0.000116369 4.7259e-22 0.000968459 -4.75709e-20 0.000948675)
(0.000751561 8.77168e-05 -2.99906e-20 0.000839715 -2.84324e-20 0.000794878)
(0.000615017 6.18889e-05 -2.10439e-20 0.000717219 -2.97786e-20 0.000661751)
(0.000506803 4.21542e-05 -3.798e-21 0.000605983 6.32217e-21 0.000549888)
(0.000419005 2.82176e-05 1.22251e-20 0.000507067 3.29025e-20 0.000455581)
(0.000346723 1.88879e-05 2.0079e-20 0.000420708 7.76141e-21 0.000376062)
(0.000286788 1.28405e-05 -2.68788e-20 0.000346645 -1.37513e-21 0.000309384)
(0.000236371 8.97622e-06 2.22301e-20 0.000283091 2.30001e-21 0.000253112)
(0.000193789 6.45643e-06 -2.36469e-21 0.000228974 -6.94164e-21 0.000205741)
(0.000156381 4.61622e-06 -6.86459e-21 0.000181427 1.09267e-20 0.000164439)
(0.00012192 3.10704e-06 -4.01144e-21 0.00013814 4.3689e-21 0.000126848)
(8.72561e-05 1.73887e-06 -6.01191e-21 9.5862e-05 6.7672e-21 8.9707e-05)
(5.24467e-05 6.64454e-07 -3.52342e-21 5.5578e-05 1.82867e-21 5.32711e-05)
(1.84776e-05 8.34601e-08 -6.76721e-22 1.88589e-05 5.82784e-23 1.85674e-05)
(3.03333e-06 2.27193e-09 8.22786e-24 3.04321e-06 7.82757e-25 3.03527e-06)
(7.68341e-06 1.58677e-08 -3.67176e-24 7.74252e-06 5.04156e-24 7.69216e-06)
(0.00085059 0.000192702 4.75494e-19 0.00142832 1.24588e-19 0.000910203)
(0.00451433 0.00133086 2.64549e-18 0.00781579 -1.89044e-19 0.00473734)
(0.037216 0.0119568 1.08064e-18 0.0620633 -4.51543e-19 0.0383007)
(0.128041 0.0458772 -7.53605e-19 0.204152 1.03612e-19 0.130534)
(0.256181 0.102646 4.96134e-17 0.386059 2.00735e-18 0.26107)
(0.390901 0.170593 4.02488e-16 0.554117 9.75008e-18 0.401546)
(0.512442 0.235147 2.39448e-16 0.689602 1.31039e-17 0.533159)
(0.61431 0.28928 1.76194e-15 0.7993 1.20962e-16 0.648314)
(0.70118 0.334834 2.54406e-15 0.897858 1.69687e-16 0.7504)
(0.778712 0.375269 -5.70393e-16 0.994935 -9.73395e-17 0.844875)
(0.00124296 0.000115292 9.01857e-21 0.0010572 5.4813e-20 0.00114991)
(0.00108717 0.000121554 5.93887e-20 0.00097965 6.37899e-20 0.00103383)
(0.000943624 0.000117571 2.01934e-20 0.000906435 -5.07696e-20 0.000925863)
(0.000803209 0.0001043 4.51167e-20 0.00082436 2.6728e-20 0.000814387)
(0.000664232 8.44688e-05 -3.18659e-20 0.000723653 8.18788e-21 0.000694702)
(0.000538941 6.38568e-05 -4.61425e-21 0.000616486 2.70152e-20 0.000579149)
(0.00043269 4.5787e-05 2.00602e-21 0.000514501 -2.43361e-20 0.000475931)
(0.000344936 3.11761e-05 4.36028e-20 0.000422805 -3.07026e-20 0.000387191)
(0.000274855 2.01085e-05 3.31157e-21 0.000344719 -4.84405e-21 0.00031394)
(0.000219773 1.20416e-05 -4.91029e-21 0.000280147 2.03035e-20 0.000254822)
(0.000177789 6.39658e-06 3.15863e-20 0.000228902 -3.73286e-20 0.000208728)
(0.000146531 2.47627e-06 5.16476e-21 0.00018945 4.537e-21 0.000173767)
(0.000124187 -2.96302e-07 3.6834e-20 0.000160393 -2.57323e-21 0.000148307)
(0.000108464 -2.41104e-06 3.96629e-20 0.000139178 8.89446e-21 0.000130032)
(9.79699e-05 -4.16234e-06 1.02375e-19 0.000124216 -1.3521e-20 0.000117445)
(9.16498e-05 -5.84736e-06 1.33975e-19 0.00011395 -2.02667e-20 0.000109339)
(8.90428e-05 -7.67391e-06 8.09273e-20 0.000107321 7.02043e-21 0.000105006)
(8.91639e-05 -9.44528e-06 1.89359e-20 0.000101836 -3.87437e-21 0.000102926)
(9.23292e-05 -1.05769e-05 -2.0736e-20 9.77608e-05 1.00219e-20 0.000103483)
(9.52196e-05 -1.0046e-05 7.57175e-20 9.32937e-05 -1.23132e-20 0.00010317)
(0.000104334 -9.47651e-06 -2.0528e-20 9.58534e-05 -2.00228e-21 0.000110085)
(6.26065e-05 -2.75311e-06 -6.24856e-21 5.80042e-05 1.28949e-22 6.39409e-05)
(0.000473579 -6.54683e-05 2.46351e-20 0.000295259 -7.77567e-22 0.000501423)
(0.00325753 -0.000272149 -1.4214e-18 0.00168479 -5.39622e-20 0.00340616)
(0.00933166 0.000423576 -8.61802e-18 0.00467777 -8.13544e-20 0.0096507)
(0.0187772 0.00468018 -5.47461e-17 0.0112604 -3.17597e-18 0.0193643)
(0.0385903 0.0154301 -1.34202e-16 0.0316673 -4.45516e-18 0.0399423)
(0.0759577 0.0342643 -3.33855e-16 0.0747379 -2.28996e-17 0.0792333)
(0.130148 0.060822 -8.54659e-16 0.139644 -7.63966e-17 0.137215)
(0.0010764 6.60738e-05 2.09368e-20 0.00086517 -5.97439e-21 0.000970944)
(0.000980939 8.4455e-05 2.26503e-20 0.000822693 -5.86568e-22 0.00090167)
(0.000879101 9.33576e-05 -5.58988e-20 0.000777419 -3.37843e-20 0.000828276)
(0.000775284 9.35109e-05 -3.05444e-20 0.000727902 2.63949e-21 0.00075205)
(0.000668533 8.57896e-05 5.06093e-20 0.00066844 2.28574e-20 0.000669136)
(0.00056545 7.27448e-05 2.36217e-20 0.000599905 -1.93711e-21 0.000583241)
(0.000474516 5.81223e-05 2.79525e-20 0.000530063 -1.726e-20 0.000502583)
(0.000398397 4.4405e-05 -4.31397e-20 0.000464267 -2.82982e-20 0.00043119)
(0.000335872 3.26857e-05 -5.34776e-20 0.000404566 1.00917e-20 0.000369585)
(0.000285217 2.33585e-05 4.87588e-21 0.000352014 1.41365e-20 0.000317471)
(0.000244183 1.62607e-05 1.65283e-20 0.000306543 -4.91897e-21 0.000273764)
(0.000211317 1.10748e-05 -4.0568e-20 0.000268267 -3.21792e-21 0.000237779)
(0.000185068 7.3509e-06 -1.56028e-21 0.000236578 -6.46012e-21 0.000208469)
(0.000164289 4.64679e-06 -1.55666e-20 0.000210858 -3.04945e-21 0.000184942)
(0.000147527 2.56513e-06 3.26891e-20 0.000189742 -1.88385e-20 0.000165814)
(0.000134024 8.49444e-07 -3.55846e-20 0.000172463 -1.23745e-20 0.000150276)
(0.000122793 -7.18273e-07 -7.39637e-20 0.000157828 -8.74134e-21 0.000137235)
(0.000112888 -2.26694e-06 3.34367e-21 0.000144553 -1.12093e-20 0.000125548)
(0.000102627 -3.70475e-06 1.89326e-20 0.000130412 -1.07795e-20 0.000113285)
(9.21992e-05 -4.60613e-06 5.73437e-20 0.000115832 -4.00036e-21 0.000100626)
(8.3625e-05 -4.88941e-06 -5.37366e-20 0.00010376 -3.11943e-21 8.99609e-05)
(7.7218e-05 -4.83539e-06 -9.23869e-21 9.46551e-05 2.87689e-21 8.18214e-05)
(7.26504e-05 -4.67163e-06 5.59161e-21 8.81509e-05 4.90611e-22 7.58926e-05)
(6.69054e-05 -4.28823e-06 -2.56161e-21 8.02415e-05 -1.03292e-22 6.8964e-05)
(5.91045e-05 -3.80436e-06 -3.70884e-21 7.01351e-05 1.8255e-22 6.02343e-05)
(4.49574e-05 -2.81084e-06 -5.49746e-21 5.22689e-05 -2.8815e-22 4.53335e-05)
(2.87575e-05 -1.70267e-06 1.36318e-20 3.25508e-05 3.92845e-22 2.86998e-05)
(0.000200327 -5.49923e-05 1.92904e-18 0.000303614 1.25241e-19 0.000184312)
(0.000395333 -4.56464e-05 1.86457e-17 0.000505324 1.73537e-18 0.000287159)
(0.00166399 0.000597344 7.8213e-17 0.00129519 1.03131e-17 0.00132853)
(0.00085826 4.83551e-05 -5.38233e-20 0.00068525 2.76139e-20 0.000771761)
(0.000792082 6.39202e-05 7.53554e-20 0.000656944 3.91375e-20 0.000724328)
(0.000720186 7.29093e-05 -2.43738e-20 0.000627175 -7.08283e-20 0.000673612)
(0.000644828 7.53691e-05 -3.3293e-20 0.000594115 9.45052e-21 0.000619574)
(0.000566138 7.16263e-05 -2.2704e-20 0.000553863 -3.94254e-20 0.000560194)
(0.000489274 6.33297e-05 7.95437e-21 0.000507065 1.2003e-20 0.000498342)
(0.00041859 5.28472e-05 -1.48961e-20 0.000456737 -1.94905e-20 0.000437822)
(0.000355929 4.20767e-05 -3.07653e-20 0.000405723 4.14014e-20 0.000381014)
(0.00030131 3.21482e-05 3.26316e-20 0.000355976 1.9159e-20 0.000328909)
(0.000254443 2.36755e-05 2.77376e-20 0.000309194 -1.27582e-20 0.000282201)
(0.000214705 1.6814e-05 -5.69988e-21 0.000266589 -1.1421e-20 0.00024119)
(0.000181494 1.1482e-05 1.65646e-20 0.000228982 3.69214e-21 0.000205956)
(0.000154146 7.4264e-06 -2.45414e-20 0.000196732 6.27094e-21 0.000176338)
(0.000132004 4.35047e-06 1.7379e-20 0.000169815 -4.55753e-22 0.000151977)
(0.000114193 1.95141e-06 -2.28829e-20 0.000147616 -1.06921e-20 0.000132129)
(0.000100012 -6.66377e-09 2.20801e-20 0.000129495 1.84847e-21 0.000116107)
(8.86585e-05 -1.71571e-06 2.96109e-20 0.000114506 6.48239e-21 0.000103045)
(7.93417e-05 -3.28543e-06 -2.06489e-21 0.000101577 2.7189e-21 9.20083e-05)
(7.07606e-05 -4.65664e-06 -5.55215e-20 8.89197e-05 2.32117e-23 8.15039e-05)
(6.2227e-05 -5.52979e-06 -2.06717e-20 7.58599e-05 -8.83441e-21 7.08406e-05)
(5.44194e-05 -5.80696e-06 -6.09296e-21 6.37367e-05 9.39824e-21 6.09833e-05)
(4.83885e-05 -5.71863e-06 2.25731e-20 5.38812e-05 2.81467e-22 5.32171e-05)
(4.45512e-05 -5.39352e-06 8.12642e-22 4.66672e-05 -1.85484e-22 4.79289e-05)
(4.35145e-05 -5.06154e-06 -1.29362e-21 4.27127e-05 1.10855e-22 4.57496e-05)
(4.12461e-05 -4.09788e-06 1.36267e-20 3.83488e-05 6.2158e-23 4.23645e-05)
(5.16985e-05 -5.49171e-06 1.54798e-20 4.50026e-05 5.00197e-22 5.2298e-05)
(1.19285e-05 -3.21746e-07 -4.95797e-21 1.14126e-05 -2.74146e-22 1.19104e-05)
(8.48927e-05 -1.23857e-05 -5.48724e-19 6.20919e-05 -4.25695e-20 8.21002e-05)
(0.000443436 -0.000104837 -1.02592e-18 0.000235821 -1.25866e-19 0.000400616)
(0.000121439 -2.30882e-05 1.78779e-19 7.22248e-05 1.79002e-21 0.000107113)
(0.000734416 1.93148e-05 -1.09628e-20 0.00057129 2.79379e-21 0.000652933)
(0.000695218 3.5919e-05 4.74849e-20 0.000552113 3.38574e-20 0.000623566)
(0.00064767 4.91012e-05 -2.97854e-20 0.000532354 -5.0831e-20 0.000589883)
(0.000595547 5.75831e-05 1.50297e-20 0.000512173 2.50729e-20 0.00055383)
(0.00053973 6.10622e-05 -1.72375e-20 0.000489405 -3.62727e-21 0.000514604)
(0.000480806 5.96894e-05 -5.23561e-20 0.000461455 -2.17407e-21 0.000471236)
(0.000422522 5.45413e-05 3.75125e-20 0.000428793 8.42074e-21 0.000425777)
(0.000367841 4.71775e-05 -7.13095e-21 0.000392968 1.02734e-20 0.000380515)
(0.000318371 3.89984e-05 2.14236e-20 0.000355832 1.69236e-20 0.000337198)
(0.000274622 3.09858e-05 7.72493e-21 0.000318908 -1.93199e-20 0.000296819)
(0.000236674 2.37775e-05 -5.82073e-21 0.000283518 -1.40717e-20 0.000260083)
(0.000204293 1.76543e-05 -2.25011e-20 0.0002508 8.86176e-21 0.000227455)
(0.000177069 1.26847e-05 -2.73641e-20 0.000221454 1.27911e-20 0.000199077)
(0.000154473 8.76251e-06 1.12489e-20 0.000195841 -7.79348e-22 0.000174872)
(0.00013592 5.69895e-06 -4.58132e-21 0.000173979 -5.26082e-21 0.000154564)
(0.000120724 3.2649e-06 -2.31589e-20 0.000155512 -2.15129e-24 0.000137638)
(0.000108235 1.26773e-06 -2.5995e-20 0.00013991 -6.14533e-21 0.000123501)
(9.77319e-05 -4.62335e-07 -2.19591e-20 0.000126395 1.58883e-21 0.000111412)
(8.84791e-05 -2.02816e-06 2.33354e-20 0.000114049 -1.03651e-20 0.000100543)
(7.94638e-05 -3.39611e-06 -5.73613e-21 0.000101558 1.07246e-20 8.97428e-05)
(7.02072e-05 -4.33903e-06 -3.49914e-20 8.84816e-05 8.25985e-21 7.85315e-05)
(6.14027e-05 -4.7554e-06 4.66298e-20 7.60568e-05 -2.72011e-21 6.78242e-05)
(5.36974e-05 -4.81101e-06 3.7081e-21 6.5263e-05 -2.78166e-21 5.84668e-05)
(4.72271e-05 -4.6653e-06 6.80343e-22 5.62693e-05 -2.7181e-22 5.06188e-05)
(4.17693e-05 -4.38245e-06 1.69119e-21 4.87893e-05 3.8133e-23 4.40061e-05)
(3.71864e-05 -4.01207e-06 -1.71816e-20 4.26513e-05 -7.18117e-22 3.84714e-05)
(3.31895e-05 -3.56874e-06 -9.90376e-21 3.74598e-05 -1.03931e-21 3.37097e-05)
(2.94788e-05 -3.15077e-06 5.06189e-20 3.27563e-05 4.06353e-21 2.94047e-05)
(2.38184e-05 -2.38148e-06 3.50314e-20 2.58016e-05 2.4764e-21 2.33395e-05)
(1.72179e-05 -1.50975e-06 -2.28734e-20 1.79801e-05 -1.61552e-21 1.6595e-05)
(9.76045e-06 -6.10276e-07 1.16836e-20 9.74964e-06 1.47511e-21 9.34175e-06)
(0.000599818 1.36653e-05 -1.33216e-21 0.000465776 -9.63191e-21 0.000532849)
(0.000570944 2.71805e-05 -1.60402e-20 0.000451486 8.2553e-21 0.000511123)
(0.000536255 3.83425e-05 1.82341e-20 0.000437551 1.77671e-20 0.00048682)
(0.00049742 4.6043e-05 4.27921e-20 0.000423348 1.87862e-20 0.000460372)
(0.000455188 4.98729e-05 2.92049e-20 0.000407215 -7.43809e-22 0.000431209)
(0.000410651 4.99363e-05 -8.26173e-21 0.000387742 7.29742e-21 0.000399237)
(0.000366203 4.69118e-05 -3.93563e-20 0.00036493 -1.47899e-20 0.000365613)
(0.000323768 4.1831e-05 2.77274e-20 0.00033938 1.90577e-20 0.00033162)
(0.000284439 3.56994e-05 1.38371e-21 0.000312051 -2.17138e-20 0.0002983)
(0.00024871 2.93047e-05 1.48407e-21 0.000283881 -9.89979e-21 0.000266354)
(0.000216825 2.32319e-05 -2.21764e-20 0.00025582 8.80704e-21 0.000236378)
(0.000188772 1.78067e-05 1.2764e-20 0.000228823 1.35709e-20 0.000208862)
(0.000164399 1.31874e-05 5.59872e-20 0.000203578 4.65821e-21 0.000184068)
(0.000143486 9.37689e-06 -2.04033e-20 0.000180622 -3.42322e-22 0.000162157)
(0.000125747 6.28308e-06 -4.24176e-21 0.000160243 -4.68528e-22 0.000143128)
(0.000110775 3.75702e-06 -2.92046e-20 0.000142401 1.89346e-20 0.000126758)
(9.81638e-05 1.65488e-06 -2.21644e-20 0.000126871 3.38246e-21 0.000112726)
(8.7432e-05 -1.53811e-07 2.51753e-20 0.000113198 6.30162e-21 0.000100563)
(7.80316e-05 -1.74959e-06 -5.84589e-20 0.000100726 6.17803e-21 8.96652e-05)
(6.92231e-05 -3.11473e-06 1.96211e-20 8.85068e-05 1.8274e-22 7.92026e-05)
(6.05614e-05 -4.08309e-06 3.87635e-20 7.61085e-05 5.8502e-22 6.87322e-05)
(5.2413e-05 -4.56294e-06 -1.59547e-20 6.43162e-05 -4.43748e-21 5.87964e-05)
(4.52717e-05 -4.67726e-06 -1.73425e-20 5.39253e-05 3.07952e-22 5.00661e-05)
(3.92926e-05 -4.56505e-06 -4.17076e-21 4.51286e-05 2.37315e-22 4.2738e-05)
(3.4352e-05 -4.29335e-06 -5.10909e-22 3.77493e-05 1.8406e-23 3.66571e-05)
(3.03834e-05 -3.90213e-06 2.07747e-21 3.16979e-05 5.47575e-22 3.17389e-05)
(2.75025e-05 -3.43911e-06 -2.70027e-20 2.70554e-05 -8.66561e-22 2.80922e-05)
(2.57673e-05 -2.95472e-06 6.20088e-20 2.38959e-05 2.05489e-21 2.57537e-05)
(2.49228e-05 -2.50302e-06 2.64228e-21 2.19566e-05 -5.69557e-22 2.44326e-05)
(2.33231e-05 -1.90821e-06 3.94874e-20 1.98552e-05 4.07242e-21 2.25041e-05)
(1.67618e-05 -8.70111e-07 1.21317e-20 1.45022e-05 -3.79655e-22 1.61203e-05)
(0.000496336 9.71504e-06 -4.75487e-22 0.000384899 2.56694e-21 0.000440613)
(0.000474413 2.08641e-05 -2.45368e-21 0.000373846 -2.30251e-20 0.000424053)
(0.000448455 3.03456e-05 -7.99308e-20 0.000363704 -3.77155e-20 0.000406034)
(0.000418916 3.7218e-05 1.7606e-20 0.00035345 2.76665e-20 0.000386175)
(0.000386502 4.10525e-05 -5.2108e-21 0.000341829 1.88077e-21 0.00036416)
(0.000352425 4.19432e-05 4.22973e-20 0.000328117 1.44658e-20 0.000340291)
(0.000318125 4.03144e-05 -2.81168e-21 0.000311978 1.39984e-20 0.000315076)
(0.000284948 3.68701e-05 1.78868e-20 0.000293639 -6.2805e-21 0.000289318)
(0.000253671 3.2334e-05 -1.55364e-20 0.000273581 5.07561e-21 0.000263662)
(0.000224709 2.73112e-05 -2.84369e-20 0.000252366 8.22787e-21 0.000238575)
(0.000198368 2.22952e-05 7.50108e-21 0.000230668 3.75668e-21 0.000214546)
(0.000174788 1.76085e-05 1.23866e-20 0.00020927 -5.0583e-21 0.000192049)
(0.000153954 1.34449e-05 1.16464e-20 0.000188757 -2.22727e-20 0.000171362)
(0.000135813 9.87438e-06 1.63275e-20 0.000169679 5.7303e-21 0.000152735)
(0.000120214 6.88117e-06 -1.50019e-20 0.000152371 8.46225e-21 0.00013626)
(0.000106884 4.37922e-06 5.58608e-20 0.000136915 2.44535e-21 0.000121845)
(9.54918e-05 2.26872e-06 -1.31298e-20 0.000123178 7.78226e-21 0.000109257)
(8.56501e-05 4.50237e-07 2.59294e-20 0.000110841 -1.01877e-20 9.81449e-05)
(7.68994e-05 -1.13978e-06 3.9813e-20 9.93977e-05 2.54304e-21 8.80259e-05)
(6.86658e-05 -2.49363e-06 7.94726e-22 8.81496e-05 -8.96318e-21 7.82723e-05)
(6.06056e-05 -3.48994e-06 -1.09411e-20 7.67815e-05 -7.16029e-21 6.85502e-05)
(5.29774e-05 -4.04716e-06 -1.00219e-20 6.58858e-05 1.52104e-21 5.92585e-05)
(4.61446e-05 -4.25023e-06 2.02517e-21 5.61104e-05 1.32425e-22 5.0915e-05)
(4.02068e-05 -4.22185e-06 4.1962e-21 4.76285e-05 1.96366e-22 4.36733e-05)
(3.50231e-05 -4.03062e-06 1.71045e-21 4.02838e-05 -3.10851e-23 3.73766e-05)
(3.04593e-05 -3.71978e-06 4.82377e-21 3.39386e-05 1.12781e-22 3.1878e-05)
(2.64793e-05 -3.33764e-06 1.9014e-20 2.85532e-05 1.75187e-21 2.71365e-05)
(2.30146e-05 -2.92253e-06 -1.08284e-19 2.40121e-05 -7.86799e-21 2.30661e-05)
(2.00096e-05 -2.50751e-06 -4.32577e-20 2.01606e-05 -1.74724e-21 1.95835e-05)
(1.74132e-05 -2.08517e-06 -2.37563e-21 1.68465e-05 -4.50605e-21 1.66008e-05)
(1.56137e-05 -1.72818e-06 -6.00207e-20 1.43581e-05 -6.99803e-21 1.44538e-05)
(0.000427296 -2.87027e-06 -3.23481e-20 0.000330243 -2.46767e-20 0.00037877)
(0.000414979 6.90986e-06 -1.85918e-20 0.000321469 -1.32571e-20 0.000368202)
(0.000398149 1.6202e-05 -4.71383e-21 0.00031284 -1.22409e-21 0.000355437)
(0.000378265 2.42986e-05 1.16542e-20 0.000305229 2.98526e-20 0.000341731)
(0.000355405 3.03748e-05 2.64609e-20 0.000297661 1.70935e-20 0.000326525)
(0.000330231 3.40417e-05 1.87727e-20 0.000289197 -1.22527e-20 0.000309703)
(0.00030381 3.53851e-05 -2.55839e-20 0.000279439 -1.59232e-20 0.000291633)
(0.000277099 3.46744e-05 5.34866e-20 0.000267966 2.38398e-21 0.000272543)
(0.000251007 3.23976e-05 -7.81046e-21 0.000254761 -2.39941e-20 0.000252893)
(0.000226068 2.908e-05 4.56296e-20 0.000240042 9.79939e-21 0.000233072)
(0.000202592 2.5179e-05 3.51444e-20 0.000224096 4.87638e-21 0.000213367)
(0.000180846 2.10923e-05 -1.67205e-20 0.000207345 -6.99108e-21 0.000194115)
(0.000160971 1.71039e-05 2.86555e-21 0.00019034 -7.83003e-21 0.000175677)
(0.000143048 1.34155e-05 -4.29335e-20 0.000173561 1.96826e-21 0.000158324)
(0.000127079 1.01299e-05 -6.70931e-21 0.000157461 -5.13902e-21 0.000142289)
(0.000113013 7.27769e-06 3.00402e-20 0.00014238 1.5389e-21 0.000127715)
(0.000100712 4.82916e-06 6.00414e-22 0.000128497 -8.43736e-21 0.000114625)
(8.99739e-05 2.72728e-06 2.62063e-20 0.000115816 4.95023e-21 0.000102919)
(8.05271e-05 9.02755e-07 -2.94344e-20 0.000104163 -4.96063e-21 9.23734e-05)
(7.20342e-05 -6.87096e-07 -2.24437e-20 9.31978e-05 -4.97469e-21 8.26527e-05)
(6.40983e-05 -2.03591e-06 -4.44946e-20 8.24663e-05 1.44975e-21 7.33342e-05)
(5.64685e-05 -3.05428e-06 -3.34964e-20 7.1755e-05 5.14961e-21 6.41847e-05)
(4.92867e-05 -3.67024e-06 -3.59789e-21 6.14664e-05 7.95755e-22 5.54606e-05)
(4.28415e-05 -3.94151e-06 -1.27454e-20 5.21505e-05 5.66059e-22 4.75845e-05)
(3.72403e-05 -3.97193e-06 -4.27025e-22 4.40072e-05 -3.02725e-22 4.07263e-05)
(3.23952e-05 -3.82833e-06 -1.62032e-21 3.69488e-05 -1.49467e-22 3.4796e-05)
(2.82064e-05 -3.55334e-06 -6.08101e-22 3.08759e-05 -3.00428e-22 2.96872e-05)
(2.46545e-05 -3.19159e-06 1.33568e-20 2.57604e-05 -6.74535e-23 2.53791e-05)
(2.17861e-05 -2.78591e-06 1.95882e-22 2.16097e-05 3.37897e-22 2.19039e-05)
(1.96199e-05 -2.3673e-06 8.7782e-20 1.84231e-05 7.95054e-21 1.92563e-05)
(1.81691e-05 -1.95477e-06 -1.40063e-19 1.61489e-05 -9.818e-21 1.74089e-05)
(1.74412e-05 -1.55873e-06 7.8165e-21 1.47307e-05 6.62477e-21 1.63456e-05)
(0.000350023 4.89088e-06 -5.76871e-20 0.000270929 -5.89653e-21 0.000310448)
(0.000336956 1.27098e-05 8.25853e-20 0.000264118 6.55691e-20 0.000300495)
(0.000321404 1.96533e-05 5.08e-20 0.00025824 7.21984e-21 0.000289822)
(0.000303431 2.49984e-05 3.65678e-20 0.000252528 -7.08084e-21 0.000277975)
(0.000283684 2.84207e-05 -5.74484e-20 0.00024633 -2.56222e-20 0.000264995)
(0.000262965 2.99845e-05 -3.58134e-20 0.000239329 -6.86228e-21 0.000251152)
(0.000241959 2.98671e-05 -7.24809e-20 0.000231123 -2.33083e-20 0.000236543)
(0.000221309 2.84174e-05 -7.4423e-20 0.000221593 3.90436e-21 0.000221453)
(0.000201358 2.60208e-05 -3.62708e-20 0.000210785 -1.21117e-20 0.000206082)
(0.000182307 2.30187e-05 1.09951e-20 0.00019882 7.47768e-22 0.000190579)
(0.000164396 1.97249e-05 -6.79798e-21 0.000185964 1.76177e-21 0.000175193)
(0.000147756 1.63794e-05 -1.90971e-20 0.000172594 7.7613e-21 0.00016019)
(0.000132472 1.3164e-05 2.10819e-20 0.000159052 4.26128e-21 0.000145775)
(0.00011862 1.01969e-05 -2.57493e-20 0.000145731 -7.19108e-21 0.000132184)
(0.000106195 7.5397e-06 -2.77946e-21 0.000132921 -6.46944e-21 0.000119562)
(9.51386e-05 5.19487e-06 8.19006e-21 0.000120834 -6.01705e-21 0.000107985)
(8.53327e-05 3.14207e-06 2.5202e-20 0.000109538 -1.08634e-20 9.74283e-05)
(7.65873e-05 1.34313e-06 -1.07e-20 9.89536e-05 5.17922e-22 8.77576e-05)
(6.86562e-05 -2.2706e-07 -6.19099e-21 8.88651e-05 1.19431e-20 7.87434e-05)
(6.12611e-05 -1.5626e-06 -6.74111e-21 7.89845e-05 1.11089e-20 7.01039e-05)
(5.4202e-05 -2.5939e-06 2.48086e-20 6.91579e-05 3.38523e-21 6.16638e-05)
(4.75699e-05 -3.25963e-06 -3.00399e-22 5.96918e-05 3.13196e-21 5.36097e-05)
(4.15778e-05 -3.59774e-06 8.49951e-21 5.10339e-05 1.36101e-21 4.62713e-05)
(3.63092e-05 -3.69312e-06 -1.12974e-21 4.33766e-05 1.43555e-22 3.97983e-05)
(3.16899e-05 -3.60964e-06 -9.09273e-22 3.6666e-05 3.43431e-23 3.41264e-05)
(2.76234e-05 -3.38997e-06 -3.29259e-21 3.08171e-05 -1.25641e-22 2.91587e-05)
(2.4073e-05 -3.07798e-06 -1.38897e-20 2.57965e-05 -7.8198e-22 2.48593e-05)
(2.10308e-05 -2.7153e-06 -3.73181e-20 2.15753e-05 -2.32312e-21 2.12101e-05)
(1.84709e-05 -2.32984e-06 2.54085e-21 1.80739e-05 -5.66359e-22 1.81644e-05)
(1.64801e-05 -1.94467e-06 1.26623e-19 1.53025e-05 1.67955e-20 1.57705e-05)
(1.50704e-05 -1.55057e-06 9.13067e-20 1.32234e-05 2.53242e-21 1.40283e-05)
(0.000287184 1.00538e-05 -7.62491e-20 0.000224647 -4.28607e-20 0.000255888)
(0.000274832 1.60305e-05 -5.81309e-20 0.000220008 -1.01557e-20 0.000247427)
(0.000260509 2.07289e-05 4.3257e-20 0.00021562 3.56078e-20 0.000238063)
(0.00024486 2.38748e-05 7.08844e-20 0.000211052 1.6903e-20 0.000227944)
(0.000228455 2.55185e-05 1.17868e-20 0.000206012 -1.0631e-21 0.000217235)
(0.000211783 2.57757e-05 5.28228e-20 0.000200111 3.61831e-20 0.000205948)
(0.000195317 2.49063e-05 6.84505e-20 0.000193212 2.75405e-20 0.000194262)
(0.00017929 2.31989e-05 -2.46344e-20 0.000185285 -7.54436e-21 0.000182291)
(0.000163833 2.09107e-05 1.48722e-20 0.000176347 7.08764e-23 0.000170099)
(0.000149101 1.82821e-05 -5.09988e-21 0.000166522 2.41878e-21 0.000157819)
(0.000135198 1.55053e-05 3.7624e-20 0.000156064 2.04807e-21 0.000145641)
(0.000122214 1.27404e-05 -1.36375e-20 0.000145201 -2.7758e-22 0.000133717)
(0.000110221 1.01007e-05 -3.64015e-20 0.00013422 1.40301e-20 0.00012223)
(9.92677e-05 7.66142e-06 -1.36874e-20 0.000123385 1.27087e-21 0.000111333)
(8.93379e-05 5.45282e-06 -3.19284e-20 0.000112888 5.18337e-21 0.000101117)
(8.03665e-05 3.47935e-06 -3.40339e-20 0.000102823 -5.14233e-22 9.15977e-05)
(7.22389e-05 1.72615e-06 -3.6899e-20 9.31863e-05 7.21095e-21 8.27151e-05)
(6.47913e-05 1.84463e-07 6.0006e-20 8.38661e-05 -6.13574e-21 7.43321e-05)
(5.78338e-05 -1.13329e-06 4.67667e-20 7.46905e-05 -1.47295e-21 6.62691e-05)
(5.12347e-05 -2.17114e-06 7.94848e-21 6.55858e-05 -5.51326e-21 5.84245e-05)
(4.50535e-05 -2.8767e-06 3.09372e-20 5.67913e-05 -3.34153e-21 5.09402e-05)
(3.94424e-05 -3.27122e-06 7.08134e-21 4.86671e-05 -1.76018e-21 4.40702e-05)
(3.4477e-05 -3.42307e-06 2.07212e-21 4.14053e-05 3.7106e-22 3.79574e-05)
(3.01112e-05 -3.39081e-06 -1.53429e-22 3.49965e-05 1.31622e-22 3.25754e-05)
(2.62756e-05 -3.2161e-06 -1.96344e-22 2.93908e-05 1.82159e-22 2.78604e-05)
(2.29467e-05 -2.94041e-06 6.95327e-21 2.45746e-05 7.44183e-22 2.37928e-05)
(2.01392e-05 -2.60463e-06 9.96759e-21 2.05428e-05 1.38824e-21 2.03807e-05)
(1.78669e-05 -2.23821e-06 2.02516e-20 1.72806e-05 1.53327e-21 1.76202e-05)
(1.62003e-05 -1.86432e-06 4.52671e-20 1.47985e-05 -1.53447e-21 1.55469e-05)
(1.51224e-05 -1.47648e-06 -1.61023e-19 1.30378e-05 -2.07877e-20 1.41317e-05)
(0.000236301 1.31742e-05 1.8699e-20 0.000188561 1.02103e-20 0.00021244)
(0.000224766 1.73042e-05 2.66527e-20 0.000185148 -1.48285e-20 0.000204955)
(0.00021224 2.01679e-05 -9.09221e-20 0.000181755 -4.79665e-20 0.000196988)
(0.000199115 2.18034e-05 -7.45548e-20 0.0001781 -7.56316e-22 0.000188608)
(0.000185772 2.22923e-05 1.37014e-20 0.000173858 -1.38319e-21 0.000179813)
(0.000172563 2.18282e-05 6.3897e-20 0.000168867 -1.07518e-20 0.000170711)
(0.000159637 2.06334e-05 -1.76852e-20 0.000163056 4.21776e-21 0.000161348)
(0.000147052 1.89015e-05 -1.0115e-20 0.00015638 -8.74878e-22 0.000151722)
(0.000134936 1.68187e-05 -2.54974e-21 0.000148906 -4.30975e-21 0.000141925)
(0.000123354 1.45369e-05 -1.31757e-20 0.000140775 -3.31675e-22 0.000132071)
(0.000112366 1.21864e-05 2.8467e-20 0.000132122 3.73861e-21 0.00012225)
(0.00010205 9.8696e-06 5.60853e-20 0.00012316 1.41642e-20 0.000112611)
(9.24561e-05 7.66428e-06 8.62856e-21 0.000114078 4.18901e-21 0.000103272)
(8.3612e-05 5.61464e-06 3.98158e-20 0.000105063 4.63992e-21 9.43412e-05)
(7.55006e-05 3.74495e-06 1.71854e-20 9.62269e-05 5.15946e-21 8.58648e-05)
(6.80542e-05 2.05836e-06 2.82271e-20 8.7601e-05 1.99214e-21 7.78259e-05)
(6.11593e-05 5.6066e-07 -3.9628e-20 7.91279e-05 -7.61446e-21 7.01406e-05)
(5.46936e-05 -7.31228e-07 -6.24685e-21 7.07224e-05 -1.012e-20 6.27062e-05)
(4.85879e-05 -1.76816e-06 -2.37613e-20 6.23839e-05 -1.96972e-22 5.54871e-05)
(4.28767e-05 -2.50309e-06 -3.32597e-20 5.42995e-05 -2.91067e-22 4.85898e-05)
(3.76705e-05 -2.94691e-06 -1.5244e-20 4.67634e-05 -5.12772e-22 4.22142e-05)
(3.30299e-05 -3.15205e-06 3.54174e-21 3.99576e-05 -3.55564e-22 3.64872e-05)
(2.89237e-05 -3.17119e-06 1.74961e-21 3.39014e-05 -7.08106e-23 3.1405e-05)
(2.52955e-05 -3.04437e-06 1.74908e-21 2.85674e-05 4.64971e-22 2.69222e-05)
(2.21186e-05 -2.81086e-06 -2.12833e-22 2.39453e-05 -4.26885e-22 2.30194e-05)
(1.9401e-05 -2.51012e-06 -2.33923e-21 2.00345e-05 9.86683e-22 1.9701e-05)
(1.71411e-05 -2.17091e-06 -2.60314e-21 1.68032e-05 -3.87384e-21 1.69517e-05)
(1.54072e-05 -1.81468e-06 -7.88572e-20 1.42613e-05 -3.76783e-21 1.48082e-05)
(1.42332e-05 -1.4396e-06 7.60587e-21 1.23963e-05 1.02021e-20 1.32921e-05)
(0.000194769 1.45298e-05 -1.02725e-19 0.000159761 -4.45634e-20 0.000177264)
(0.000184645 1.71222e-05 2.16267e-20 0.000157224 3.14307e-20 0.000170926)
(0.000174057 1.86999e-05 5.54288e-20 0.000154573 9.61766e-21 0.000164315)
(0.000163295 1.9322e-05 -6.71897e-20 0.000151522 -2.82436e-20 0.000157407)
(0.000152622 1.91371e-05 -6.6677e-20 0.000147907 -6.86832e-21 0.000150261)
(0.000142138 1.83205e-05 3.80079e-20 0.000143652 9.34989e-21 0.000142895)
(0.000131876 1.70218e-05 2.00112e-20 0.000138691 -4.35794e-22 0.000135287)
(0.000121901 1.53821e-05 -3.41438e-20 0.000133016 -1.8683e-21 0.00012746)
(0.000112252 1.35194e-05 2.96401e-20 0.000126716 1.33002e-21 0.000119488)
(0.00010298 1.15399e-05 -2.09103e-20 0.000119864 -1.00629e-20 0.000111426)
(9.41454e-05 9.53112e-06 5.04605e-20 0.000112597 -9.94353e-21 0.000103376)
(8.57957e-05 7.56452e-06 2.07055e-20 0.000105055 -3.70064e-21 9.54297e-05)
(7.7966e-05 5.68864e-06 -2.39061e-21 9.73797e-05 -8.31956e-21 8.76761e-05)
(7.06682e-05 3.93959e-06 7.79505e-21 8.9677e-05 -3.58653e-21 8.01744e-05)
(6.38711e-05 2.33536e-06 -7.65194e-21 8.19988e-05 -5.05635e-21 7.29354e-05)
(5.75121e-05 8.93674e-07 -2.34053e-21 7.43383e-05 5.36557e-21 6.59254e-05)
(5.1525e-05 -3.63185e-07 -4.83158e-20 6.66773e-05 5.57542e-21 5.91026e-05)
(4.58749e-05 -1.39143e-06 3.75526e-22 5.90505e-05 3.23552e-21 5.2467e-05)
(4.05938e-05 -2.14685e-06 2.29907e-20 5.16231e-05 3.61926e-21 4.61146e-05)
(3.57588e-05 -2.63106e-06 3.25379e-22 4.46341e-05 1.58471e-21 4.02009e-05)
(3.14209e-05 -2.8835e-06 -4.24769e-21 3.82554e-05 -1.04816e-22 3.48411e-05)
(2.75625e-05 -2.94968e-06 -2.36269e-21 3.25308e-05 -9.54972e-23 3.00504e-05)
(2.41414e-05 -2.86703e-06 7.53264e-21 2.74545e-05 -2.85092e-23 2.5803e-05)
(2.11386e-05 -2.67223e-06 -5.1275e-21 2.30301e-05 -5.32022e-22 2.20899e-05)
(1.85679e-05 -2.40298e-06 3.75485e-20 1.92689e-05 4.73748e-21 1.89249e-05)
(1.64399e-05 -2.08783e-06 -8.72952e-20 1.61605e-05 -7.57103e-21 1.63081e-05)
(1.48183e-05 -1.74779e-06 1.29855e-19 1.37212e-05 1.01562e-20 1.42755e-05)
(1.37359e-05 -1.38323e-06 6.19088e-20 1.19423e-05 9.65163e-21 1.28485e-05)
(0.000161165 1.46019e-05 5.72449e-21 0.000136537 3.85611e-21 0.000148844)
(0.000152548 1.60938e-05 -3.59319e-20 0.00013461 -1.48903e-20 0.000143578)
(0.000143796 1.67839e-05 4.58995e-21 0.000132418 2.12168e-20 0.000138104)
(0.000135122 1.67893e-05 3.70619e-20 0.000129813 8.27573e-21 0.000132462)
(0.000126582 1.62505e-05 -4.18133e-20 0.000126708 -1.27285e-20 0.000126644)
(0.00011818 1.52845e-05 7.6945e-21 0.000123022 7.93023e-22 0.000120602)