/*--------------------------------*- C++ -*----------------------------------*\
| =========                 |                                                 |
| \\      /  F ield         | OpenFOAM: The Open Source CFD Toolbox           |
|  \\    /   O peration     | Version:  2506                                  |
|   \\  /    A nd           | Website:  www.openfoam.com                      |
|    \\/     M anipulation  |                                                 |
\*---------------------------------------------------------------------------*/
FoamFile
{
    version     2.0;
    format      ascii;
    arch        "LSB;label=32;scalar=64";
    class       volScalarField;
    location    "300";
    object      turbulenceProperties:epsilon;
}
// * * * * * * * * * * * * * * * * * * * * * * * * * * * * * * * * * * * * * //

dimensions      [0 2 -3 0 0 0 0];

internalField   nonuniform List<scalar> 
1340
(
0.00631609
0.00684941
0.0122469
0.025873
0.0541953
0.107109
0.197594
0.340002
0.553478
0.870034
1.35242
2.12108
3.40097
5.64475
9.71069
17.6384
33.2191
67.6412
140.803
318.861
663.078
944.856
1066.76
1100.03
1101.6
1087.99
1062.25
1025.26
0.0035418
0.00273978
0.00209122
0.00153437
0.00108425
0.000757425
0.000526759
0.000363744
0.000249056
0.000169139
0.000113324
7.46809e-05
4.72824e-05
2.75703e-05
1.318e-05
4.21809e-06
4.01149e-07
6.82874e-09
5.52317e-08
0.000985817
0.00606019
0.0512531
0.170698
0.319689
0.466562
0.615231
0.773685
0.946581
1.13435
0.00226373
0.0018285
0.00146554
0.00113407
0.000824788
0.000572124
0.000385076
0.000253588
0.000165655
0.000108268
7.19736e-05
4.93697e-05
3.55956e-05
2.70866e-05
2.18959e-05
1.8818e-05
1.72177e-05
1.63629e-05
1.63024e-05
1.61154e-05
1.8227e-05
6.3766e-06
0.000167369
0.000991821
0.00208778
0.00364133
0.00958729
0.026513
0.0598206
0.00161347
0.00139205
0.00117436
0.000967405
0.000765486
0.000581583
0.000432073
0.000318429
0.000234374
0.000173375
0.000129308
9.78896e-05
7.55272e-05
5.96742e-05
4.81457e-05
3.96884e-05
3.32157e-05
2.79045e-05
2.28179e-05
1.81245e-05
1.46338e-05
1.22446e-05
1.06567e-05
8.88594e-06
6.83138e-06
3.87226e-06
1.54189e-06
2.28691e-05
1.51677e-05
6.8038e-05
0.00101957
0.000898415
0.000776853
0.00065698
0.000536957
0.000424929
0.00032798
0.000248346
0.000184988
0.000136079
9.92824e-05
7.22743e-05
5.28673e-05
3.91678e-05
2.95162e-05
2.27186e-05
1.78334e-05
1.41673e-05
1.10633e-05
8.30182e-06
6.10321e-06
4.59775e-06
3.68243e-06
3.31118e-06
2.83205e-06
4.16857e-06
2.08216e-07
8.54049e-06
5.17981e-05
1.0772e-05
0.000729667
0.000665758
0.000595826
0.000525106
0.000453282
0.000380025
0.000310219
0.000247766
0.000194568
0.00015078
0.000115803
8.86117e-05
6.79273e-05
5.24625e-05
4.10324e-05
3.25806e-05
2.62713e-05
2.14146e-05
1.74707e-05
1.39446e-05
1.07035e-05
8.01552e-06
5.98773e-06
4.51763e-06
3.44416e-06
2.66223e-06
2.07154e-06
1.59695e-06
1.01389e-06
5.10575e-07
1.54537e-07
0.000485973
0.000447316
0.000405786
0.000362824
0.000318295
0.000272815
0.000228789
0.000188221
0.000152288
0.000121411
9.5619e-05
7.46459e-05
5.79657e-05
4.49747e-05
3.5025e-05
2.7456e-05
2.1699e-05
1.72548e-05
1.37043e-05
1.06775e-05
8.02466e-06
5.85998e-06
4.23758e-06
3.07544e-06
2.24975e-06
1.67415e-06
1.29923e-06
1.08174e-06
9.66977e-07
8.21293e-07
4.25076e-07
0.00033234
0.000307898
0.000282262
0.000255296
0.000227017
0.000198213
0.000169923
0.000143274
0.000118982
9.74148e-05
7.87828e-05
6.31289e-05
5.02658e-05
3.99378e-05
3.17938e-05
2.54297e-05
2.0454e-05
1.65118e-05
1.3289e-05
1.05119e-05
8.06664e-06
6.03471e-06
4.46241e-06
3.2895e-06
2.41514e-06
1.76301e-06
1.28421e-06
9.34478e-07
6.79105e-07
4.92072e-07
3.75288e-07
0.000245592
0.000232097
0.000216312
0.000199921
0.00018252
0.000164201
0.000145587
0.000127149
0.000109476
9.29831e-05
7.79218e-05
6.44949e-05
5.28232e-05
4.2903e-05
3.46522e-05
2.79168e-05
2.24864e-05
1.81268e-05
1.46009e-05
1.16875e-05
9.19747e-06
7.04157e-06
5.25479e-06
3.86649e-06
2.82979e-06
2.06279e-06
1.4988e-06
1.09266e-06
8.11029e-07
6.24464e-07
5.08913e-07
4.4768e-07
0.000165004
0.000154603
0.000143789
0.000132277
0.000120218
0.000107976
9.57815e-05
8.39507e-05
7.2697e-05
6.21684e-05
5.2536e-05
4.3922e-05
3.63733e-05
2.99079e-05
2.447e-05
1.99618e-05
1.62509e-05
1.31862e-05
1.06175e-05
8.41599e-06
6.51145e-06
4.92244e-06
3.66877e-06
2.71545e-06
1.99765e-06
1.45956e-06
1.06217e-06
7.74608e-07
5.69298e-07
4.30101e-07
3.40702e-07
0.000112105
0.000104795
9.7018e-05
8.89513e-05
8.07832e-05
7.26069e-05
6.46025e-05
5.68837e-05
4.95266e-05
4.26341e-05
3.63074e-05
3.06056e-05
2.55728e-05
2.12168e-05
1.75021e-05
1.4362e-05
1.17116e-05
9.45783e-06
7.51669e-06
5.84135e-06
4.44001e-06
3.32316e-06
2.46495e-06
1.81493e-06
1.32701e-06
9.6732e-07
7.09203e-07
5.29608e-07
4.12071e-07
3.4021e-07
7.72526e-05
7.19098e-05
6.64314e-05
6.08954e-05
5.53498e-05
4.98888e-05
4.45645e-05
3.94041e-05
3.44801e-05
2.98575e-05
2.55822e-05
2.17069e-05
1.8256e-05
1.52352e-05
1.26208e-05
1.03687e-05
8.42227e-06
6.73136e-06
5.27031e-06
4.04143e-06
3.05084e-06
2.27955e-06
1.68889e-06
1.24132e-06
9.07754e-07
6.65169e-07
4.92705e-07
3.76256e-07
3.03136e-07
5.37911e-05
5.00164e-05
4.6219e-05
4.2415e-05
3.8652e-05
3.49543e-05
3.13304e-05
2.78104e-05
2.44398e-05
2.1253e-05
1.82928e-05
1.55886e-05
1.31585e-05
1.10033e-05
9.10623e-06
7.43993e-06
5.97949e-06
4.71183e-06
3.63969e-06
2.76613e-06
2.07778e-06
1.54558e-06
1.13944e-06
8.35036e-07
6.12818e-07
4.54977e-07
3.48668e-07
2.8232e-07
3.79278e-05
3.52896e-05
3.26507e-05
3.00383e-05
2.74562e-05
2.48984e-05
2.23837e-05
1.99326e-05
1.75664e-05
1.53195e-05
1.32186e-05
1.12842e-05
9.52672e-06
7.94717e-06
6.53681e-06
5.28821e-06
4.19757e-06
3.26801e-06
2.50269e-06
1.89215e-06
1.41499e-06
1.04769e-06
7.70139e-07
5.65848e-07
4.19286e-07
3.19263e-07
2.55705e-07
2.70892e-05
2.52414e-05
2.34102e-05
2.15942e-05
1.97834e-05
1.7982e-05
1.62021e-05
1.44534e-05
1.27574e-05
1.11357e-05
9.6082e-06
8.19045e-06
6.89056e-06
5.70983e-06
4.64992e-06
3.71653e-06
2.91551e-06
2.24916e-06
1.71109e-06
1.28601e-06
9.55892e-07
7.04483e-07
5.18108e-07
3.83594e-07
2.91227e-07
2.31939e-07
2.08919e-05
1.95848e-05
1.82925e-05
1.70081e-05
1.57191e-05
1.44269e-05
1.31325e-05
1.18422e-05
1.0568e-05
9.32494e-06
8.12919e-06
6.9953e-06
5.93509e-06
4.95554e-06
4.06534e-06
3.27357e-06
2.58792e-06
2.01124e-06
1.53999e-06
1.16356e-06
8.68464e-07
6.41808e-07
4.72413e-07
3.49151e-07
2.63681e-07
2.08041e-07
1.52481e-05
1.43274e-05
1.34118e-05
1.24908e-05
1.15603e-05
1.06196e-05
9.66851e-06
8.71482e-06
7.76703e-06
6.8376e-06
5.93865e-06
5.0814e-06
4.27583e-06
3.53378e-06
2.86708e-06
2.28372e-06
1.78786e-06
1.37781e-06
1.04653e-06
7.84302e-07
5.8111e-07
4.27958e-07
3.15643e-07
2.37079e-07
1.85283e-07
1.19068e-05
1.12462e-05
1.05896e-05
9.92714e-06
9.25502e-06
8.56968e-06
7.86903e-06
7.15664e-06
6.4373e-06
5.7188e-06
5.01128e-06
4.32484e-06
3.66886e-06
3.055e-06
2.49656e-06
2.00362e-06
1.58012e-06
1.22566e-06
9.35975e-07
7.04316e-07
5.23148e-07
3.85352e-07
2.8346e-07
2.11498e-07
1.63421e-07
8.84503e-06
8.37065e-06
7.89159e-06
7.40372e-06
6.90338e-06
6.38703e-06
5.85547e-06
5.31123e-06
4.75929e-06
4.20591e-06
3.65935e-06
3.12848e-06
2.62515e-06
2.16184e-06
1.74808e-06
1.3885e-06
1.08393e-06
8.32131e-07
6.28655e-07
4.68004e-07
3.44662e-07
2.52699e-07
1.87109e-07
1.42728e-07
6.96882e-06
6.62346e-06
6.27512e-06
5.9195e-06
5.55286e-06
5.17184e-06
4.77568e-06
4.36472e-06
3.94189e-06
3.51176e-06
3.08e-06
2.65365e-06
2.24356e-06
1.86147e-06
1.51626e-06
1.21285e-06
9.5283e-07
7.35347e-07
5.57693e-07
4.16036e-07
3.06205e-07
2.2361e-07
1.64098e-07
1.23336e-07
5.4992e-06
5.24614e-06
4.99109e-06
4.73064e-06
4.46103e-06
4.1791e-06
3.88371e-06
3.57413e-06
3.25142e-06
2.91814e-06
2.57884e-06
2.23898e-06
1.90719e-06
1.59378e-06
1.3075e-06
1.05315e-06
8.32569e-07
6.45872e-07
4.91661e-07
3.67429e-07
2.70133e-07
1.96318e-07
1.42579e-07
1.05358e-07
4.15927e-06
3.97112e-06
3.77905e-06
3.58008e-06
3.37104e-06
3.15039e-06
2.91713e-06
2.67135e-06
2.41442e-06
2.14896e-06
1.87921e-06
1.61227e-06
1.35709e-06
1.12125e-06
9.0922e-07
7.2317e-07
5.63812e-07
4.30696e-07
3.22334e-07
2.36607e-07
1.70962e-07
1.22678e-07
8.88925e-08
3.30017e-06
3.1606e-06
3.01832e-06
2.87056e-06
2.71494e-06
2.54995e-06
2.37413e-06
2.1871e-06
1.98945e-06
1.78269e-06
1.56972e-06
1.35619e-06
1.14949e-06
9.56278e-07
7.80447e-07
6.24394e-07
4.8916e-07
3.74914e-07
2.8091e-07
2.05761e-07
1.47663e-07
1.045e-07
7.40196e-08
2.51647e-06
2.41014e-06
2.29994e-06
2.1837e-06
2.05997e-06
1.92733e-06
1.78515e-06
1.63344e-06
1.47291e-06
1.30544e-06
1.13535e-06
9.68689e-07
8.11066e-07
6.66161e-07
5.35979e-07
4.21847e-07
3.2433e-07
2.43205e-07
1.77659e-07
1.26502e-07
8.81161e-08
6.07856e-08
2.00426e-06
1.92446e-06
1.84171e-06
1.75444e-06
1.66135e-06
1.56118e-06
1.45299e-06
1.3366e-06
1.21221e-06
1.08101e-06
9.46136e-07
8.12446e-07
6.84485e-07
5.65585e-07
4.57523e-07
3.617e-07
2.78872e-07
2.09212e-07
1.52334e-07
1.07509e-07
7.35514e-08
4.91942e-08
1.59693e-06
1.53657e-06
1.47417e-06
1.40835e-06
1.338e-06
1.26213e-06
1.17983e-06
1.09059e-06
9.94317e-07
8.91679e-07
7.8502e-07
6.78134e-07
5.74806e-07
4.77663e-07
3.88419e-07
3.08367e-07
2.38372e-07
1.78865e-07
1.29754e-07
9.06603e-08
6.07833e-08
3.92189e-08
1.22696e-06
1.17956e-06
1.12967e-06
1.07641e-06
1.01875e-06
9.55966e-07
8.87536e-07
8.13141e-07
7.33024e-07
6.48941e-07
5.63764e-07
4.80575e-07
4.01539e-07
3.2813e-07
2.61535e-07
2.02668e-07
1.52061e-07
1.09853e-07
7.59257e-08
4.97757e-08
3.08018e-08
9.79933e-07
9.43723e-07
9.05703e-07
8.65116e-07
8.21187e-07
7.73215e-07
7.20654e-07
6.63153e-07
6.00711e-07
5.34541e-07
4.66864e-07
4.00101e-07
3.36022e-07
2.75885e-07
2.20734e-07
1.71451e-07
1.28616e-07
9.25136e-08
6.3216e-08
4.04479e-08
2.38541e-08
7.82822e-07
7.55006e-07
7.25868e-07
6.94829e-07
6.61233e-07
6.24486e-07
5.84093e-07
5.39622e-07
4.90972e-07
4.38969e-07
3.85278e-07
3.31862e-07
2.80084e-07
2.31001e-07
1.85513e-07
1.4442e-07
1.08328e-07
7.75878e-08
5.24059e-08
3.26834e-08
1.82583e-08
6.04067e-07
5.81626e-07
5.57803e-07
5.3203e-07
5.03796e-07
4.72681e-07
4.38258e-07
4.00354e-07
3.59531e-07
3.17044e-07
2.74376e-07
2.32662e-07
1.92725e-07
1.55344e-07
1.2122e-07
9.0937e-08
6.48845e-08
4.33421e-08
2.63492e-08
1.38809e-08
4.83447e-07
4.66076e-07
4.47683e-07
4.27829e-07
4.06082e-07
3.82067e-07
3.55415e-07
3.25875e-07
2.93825e-07
2.6024e-07
2.26237e-07
1.92713e-07
1.60321e-07
1.29705e-07
1.01481e-07
7.61771e-08
5.42003e-08
3.58591e-08
2.12922e-08
1.05714e-08
3.73555e-07
3.59305e-07
3.43953e-07
3.27165e-07
3.08601e-07
2.87919e-07
2.64888e-07
2.39743e-07
2.13204e-07
1.86156e-07
1.59267e-07
1.33066e-07
1.08076e-07
8.48219e-08
6.377e-08
4.53091e-08
2.9768e-08
1.73434e-08
8.17128e-09
2.99521e-07
2.88442e-07
2.76533e-07
2.63525e-07
2.49128e-07
2.33065e-07
2.15105e-07
1.95383e-07
1.74438e-07
1.52942e-07
1.3142e-07
1.10285e-07
8.99565e-08
7.08637e-08
5.3421e-08
3.79852e-08
2.488e-08
1.43359e-08
6.52343e-09
2.40296e-07
2.31646e-07
2.22386e-07
2.12287e-07
2.01121e-07
1.88625e-07
1.74592e-07
1.59114e-07
1.42594e-07
1.25542e-07
1.08356e-07
9.13488e-08
7.48613e-08
5.92427e-08
4.48511e-08
3.20051e-08
2.10073e-08
1.21017e-08
5.47519e-09
1.86165e-07
1.78945e-07
1.71082e-07
1.62395e-07
1.52664e-07
1.41711e-07
1.29569e-07
1.16542e-07
1.03026e-07
8.93245e-08
7.56755e-08
6.23459e-08
4.96219e-08
3.77967e-08
2.71554e-08
1.79715e-08
1.04841e-08
4.88525e-09
1.49748e-07
1.44101e-07
1.37975e-07
1.31212e-07
1.23625e-07
1.15063e-07
1.05538e-07
9.52765e-08
8.45808e-08
7.36788e-08
6.27529e-08
5.20125e-08
4.16831e-08
3.20096e-08
2.32356e-08
1.56046e-08
9.33861e-09
4.62541e-09
1.20584e-07
1.16168e-07
1.11387e-07
1.06109e-07
1.00195e-07
9.35025e-08
8.6032e-08
7.79579e-08
6.95038e-08
6.08466e-08
5.2125e-08
4.34987e-08
3.51461e-08
2.72689e-08
2.00694e-08
1.37599e-08
8.5402e-09
4.58567e-09
9.37699e-08
9.00312e-08
8.59174e-08
8.1304e-08
7.60727e-08
7.02169e-08
6.38659e-08
5.7197e-08
5.03396e-08
4.33974e-08
3.64922e-08
2.97671e-08
2.33803e-08
1.75019e-08
1.23108e-08
7.98213e-09
4.67451e-09
7.58009e-08
7.28809e-08
6.96716e-08
6.60716e-08
6.1984e-08
5.73997e-08
5.24133e-08
4.71604e-08
4.17403e-08
3.62304e-08
3.07236e-08
2.5331e-08
2.01769e-08
1.54007e-08
1.11514e-08
7.57771e-09
6.13774e-08
5.90957e-08
5.65924e-08
5.37864e-08
5.05972e-08
4.70104e-08
4.31011e-08
3.89722e-08
3.46997e-08
3.0341e-08
2.59659e-08
2.16593e-08
1.752e-08
1.36587e-08
1.01973e-08
7.26012e-09
4.80075e-08
4.60561e-08
4.38702e-08
4.13834e-08
3.85818e-08
3.55224e-08
3.2286e-08
2.89275e-08
2.54906e-08
2.20277e-08
1.86038e-08
1.5295e-08
1.2189e-08
9.38334e-09
6.97995e-09
3.9076e-08
3.75562e-08
3.58558e-08
3.3921e-08
3.1737e-08
2.93477e-08
2.68163e-08
2.4184e-08
2.14835e-08
1.87537e-08
1.60436e-08
1.34113e-08
1.09251e-08
8.66207e-09
6.70385e-09
3.18693e-08
3.06899e-08
2.93702e-08
2.78662e-08
2.61665e-08
2.43056e-08
2.23314e-08
2.02755e-08
1.81611e-08
1.60177e-08
1.38818e-08
1.17975e-08
9.81702e-09
8.00028e-09
6.41155e-09
2.51324e-08
2.41084e-08
2.2943e-08
2.16245e-08
2.01788e-08
1.86437e-08
1.70429e-08
1.53935e-08
1.37174e-08
1.20415e-08
1.03987e-08
8.82862e-09
7.37691e-09
6.09332e-09
2.06238e-08
1.98334e-08
1.89324e-08
1.79118e-08
1.67919e-08
1.56017e-08
1.43596e-08
1.30781e-08
1.17727e-08
1.04632e-08
9.1742e-09
7.93509e-09
6.78009e-09
5.74714e-09
1.696e-08
1.63506e-08
1.56554e-08
1.48681e-08
1.40036e-08
1.30843e-08
1.2124e-08
1.11318e-08
1.01191e-08
9.10029e-09
8.09317e-09
7.11947e-09
6.2045e-09
5.37635e-09
1.35066e-08
1.29726e-08
1.23668e-08
1.17016e-08
1.0994e-08
1.02542e-08
9.48893e-09
8.70645e-09
7.91692e-09
7.1332e-09
6.37119e-09
5.64919e-09
4.9877e-09
1.11788e-08
1.07699e-08
1.03057e-08
9.79561e-09
9.25285e-09
8.68501e-09
8.09694e-09
7.49453e-09
6.88498e-09
6.27748e-09
5.68337e-09
5.11564e-09
4.58915e-09
9.26892e-09
8.95711e-09
8.60271e-09
8.2129e-09
7.79793e-09
7.36367e-09
6.91335e-09
6.45116e-09
5.98227e-09
5.51304e-09
5.05138e-09
4.60651e-09
4.18877e-09
7.69812e-09
7.46108e-09
7.19138e-09
6.8946e-09
6.57863e-09
6.24757e-09
5.90383e-09
5.55044e-09
5.19086e-09
4.82955e-09
4.47196e-09
4.12444e-09
3.79404e-09
6.22309e-09
6.01868e-09
5.79343e-09
5.55332e-09
5.30166e-09
5.04011e-09
4.77064e-09
4.49566e-09
4.21827e-09
3.94209e-09
3.67135e-09
3.41087e-09
5.19542e-09
5.04071e-09
4.87008e-09
4.68815e-09
4.4973e-09
4.29868e-09
4.09363e-09
3.88388e-09
3.67144e-09
3.45867e-09
3.24836e-09
3.04369e-09
4.33908e-09
4.22213e-09
4.09296e-09
3.95518e-09
3.81057e-09
3.65993e-09
3.5042e-09
3.3445e-09
3.18215e-09
3.01865e-09
2.85579e-09
3.62256e-09
3.53396e-09
3.43603e-09
3.33167e-09
3.22209e-09
3.10789e-09
2.98976e-09
2.86837e-09
2.74454e-09
2.61925e-09
2.49355e-09
2.95316e-09
2.87878e-09
2.79958e-09
2.71649e-09
2.62994e-09
2.54042e-09
2.44832e-09
2.35413e-09
2.25842e-09
2.16176e-09
2.46194e-09
2.40529e-09
2.34512e-09
2.28214e-09
2.21665e-09
2.14895e-09
2.07925e-09
2.00784e-09
1.935e-09
1.861e-09
2.04682e-09
2.00372e-09
1.95809e-09
1.91052e-09
1.86114e-09
1.81011e-09
1.75758e-09
1.70367e-09
1.64848e-09
1.5921e-09
1.69768e-09
1.6651e-09
1.63075e-09
1.59504e-09
1.55802e-09
1.51978e-09
1.4804e-09
1.43989e-09
1.39825e-09
1.35549e-09
1.40631e-09
1.38196e-09
1.35632e-09
1.32971e-09
1.30213e-09
1.27361e-09
1.24419e-09
1.21383e-09
1.1825e-09
1.15015e-09
1.14675e-09
1.12769e-09
1.10789e-09
1.08734e-09
1.06604e-09
1.04401e-09
1.02123e-09
9.97621e-10
9.73119e-10
9.51349e-10
9.37005e-10
9.22052e-10
9.06518e-10
8.90419e-10
8.73752e-10
8.56499e-10
8.38603e-10
8.19991e-10
7.87575e-10
7.76353e-10
7.64683e-10
7.52599e-10
7.40129e-10
7.27279e-10
7.14031e-10
7.00342e-10
6.48416e-10
6.39214e-10
6.29734e-10
6.20021e-10
6.10114e-10
6.0002e-10
5.89718e-10
5.79177e-10
5.29348e-10
5.21519e-10
5.13587e-10
5.05605e-10
4.97595e-10
4.89554e-10
4.81468e-10
4.73321e-10
4.2817e-10
4.21434e-10
4.14736e-10
4.08116e-10
4.01592e-10
3.95146e-10
3.88781e-10
3.82488e-10
3.37935e-10
3.32268e-10
3.26745e-10
3.21385e-10
3.16177e-10
3.11147e-10
3.0625e-10
2.70703e-10
2.65872e-10
2.61222e-10
2.56755e-10
2.52503e-10
2.48462e-10
2.44589e-10
2.21203e-10
2.16998e-10
2.1296e-10
2.09106e-10
2.05471e-10
2.02031e-10
1.98801e-10
1.85323e-10
1.81638e-10
1.78074e-10
1.74671e-10
1.71431e-10
1.68375e-10
1.65529e-10
1.55712e-10
1.52515e-10
1.49405e-10
1.46406e-10
1.43522e-10
1.40799e-10
1.38243e-10
1.29823e-10
1.27008e-10
1.24246e-10
1.21552e-10
1.18969e-10
1.16529e-10
1.14237e-10
1.07821e-10
1.0521e-10
1.02583e-10
9.99735e-11
9.74445e-11
9.50343e-11
8.8328e-11
8.57874e-11
8.32154e-11
8.06467e-11
7.81246e-11
7.56776e-11
6.86911e-11
6.56336e-11
6.25931e-11
5.96526e-11
5.68891e-11
5.43554e-11
4.58313e-11
4.22085e-11
3.85852e-11
3.50528e-11
3.16978e-11
2.84005e-11
2.55677e-11
2.30931e-11
2.10342e-11
1.94349e-11
2.77238e-11
2.59099e-11
2.45801e-11
2.36726e-11
2.3115e-11
9.31236e-11
1.07343e-10
1.22137e-10
1.3708e-10
1.51687e-10
5.27457e-10
5.45356e-10
5.59741e-10
5.70573e-10
5.7826e-10
1.99363e-09
2.04437e-09
2.08225e-09
2.10763e-09
2.12275e-09
)
;

boundaryField
{
    inlet
    {
        type            calculated;
        value           nonuniform List<scalar> 5(1.79749e-08 1.8984e-08 1.9917e-08 2.07682e-08 2.15335e-08);
    }
    outlet
    {
        type            calculated;
        value           nonuniform List<scalar> 0();
    }
    walls
    {
        type            calculated;
        value           uniform 0;
    }
    frontAndBack
    {
        type            empty;
    }
    procBoundary1to0
    {
        type            processor;
        value           nonuniform List<scalar> 
94
(
0.000174171
0.000174171
0.000119092
0.000119092
8.22911e-05
8.22911e-05
5.75163e-05
5.75163e-05
4.05643e-05
4.05643e-05
2.89429e-05
2.89429e-05
2.22081e-05
1.61808e-05
1.61808e-05
1.25786e-05
9.32329e-06
9.32329e-06
7.31767e-06
5.75604e-06
4.34633e-06
4.34633e-06
3.43951e-06
2.62095e-06
2.62095e-06
2.08287e-06
1.65664e-06
1.27298e-06
1.27298e-06
1.01518e-06
8.09998e-07
6.25578e-07
6.25578e-07
5.0017e-07
3.87053e-07
3.87053e-07
3.10047e-07
2.48554e-07
1.92927e-07
1.92927e-07
1.55051e-07
1.24754e-07
9.72286e-08
9.72286e-08
7.85127e-08
6.35038e-08
4.97875e-08
4.97875e-08
4.04658e-08
3.29521e-08
2.6048e-08
2.6048e-08
2.13319e-08
1.7506e-08
1.39745e-08
1.39745e-08
1.15368e-08
9.54183e-09
7.9054e-09
6.40246e-09
6.40246e-09
5.33096e-09
4.4413e-09
3.69989e-09
3.02051e-09
3.02051e-09
2.51333e-09
2.08606e-09
1.72749e-09
1.42865e-09
1.16484e-09
1.16484e-09
9.64942e-10
7.98201e-10
6.57204e-10
5.36927e-10
4.34793e-10
3.43721e-10
3.43721e-10
2.75701e-10
2.25586e-10
1.89122e-10
1.58959e-10
1.32659e-10
1.10391e-10
9.08015e-11
7.16616e-11
4.93605e-11
4.93605e-11
3.15299e-11
3.00539e-11
7.95272e-11
5.07091e-10
1.92924e-09
)
;
    }
    procBoundary1to2
    {
        type            processor;
        value           nonuniform List<scalar> 
84
(
978.8
1.34779
0.110603
0.000864192
3.45337e-05
2.29323e-06
3.19254e-08
2.62498e-07
4.56452e-07
3.23613e-07
3.31652e-07
2.85419e-07
2.6409e-07
2.35501e-07
2.11182e-07
1.86576e-07
1.63583e-07
1.41753e-07
1.21432e-07
1.02682e-07
8.56072e-08
7.0256e-08
5.66589e-08
4.48127e-08
3.46701e-08
2.61618e-08
1.91879e-08
1.36248e-08
9.32948e-09
6.14846e-09
3.91973e-09
2.48185e-09
1.67803e-09
1.36096e-09
1.39721e-09
1.66983e-09
2.08035e-09
2.54882e-09
4.81935e-09
4.81935e-09
4.96628e-09
5.07783e-09
5.13115e-09
5.11505e-09
5.02777e-09
4.87428e-09
4.66376e-09
4.40778e-09
4.11888e-09
3.80874e-09
3.48803e-09
3.16539e-09
2.84751e-09
2.6955e-09
2.6955e-09
2.36852e-09
2.06474e-09
1.78611e-09
1.53461e-09
1.31155e-09
1.11666e-09
9.47605e-10
8.00545e-10
6.86142e-10
6.86142e-10
5.68336e-10
4.65052e-10
3.76193e-10
3.0145e-10
2.40901e-10
1.95775e-10
1.62862e-10
1.3584e-10
1.12099e-10
9.27738e-11
9.27738e-11
7.33349e-11
5.20947e-11
2.8598e-11
1.83088e-11
2.27898e-11
1.65411e-10
5.83569e-10
2.12973e-09
)
;
    }
    procBoundary1to5
    {
        type            processor;
        value           nonuniform List<scalar> 
13
(
0.0111886
0.0111886
0.00447674
0.00268283
0.00268283
0.00181609
0.00112669
0.00112669
0.000780247
0.00051721
0.000352745
0.000352745
0.000256943
)
;
    }
}


// ************************************************************************* //
