/*--------------------------------*- C++ -*----------------------------------*\
| =========                 |                                                 |
| \\      /  F ield         | OpenFOAM: The Open Source CFD Toolbox           |
|  \\    /   O peration     | Version:  2506                                  |
|   \\  /    A nd           | Website:  www.openfoam.com                      |
|    \\/     M anipulation  |                                                 |
\*---------------------------------------------------------------------------*/
FoamFile
{
    version     2.0;
    format      ascii;
    arch        "LSB;label=32;scalar=64";
    class       pointScalarField;
    location    "139.9817045682689";
    object      streamFunction;
}
// * * * * * * * * * * * * * * * * * * * * * * * * * * * * * * * * * * * * * //

dimensions      [0 3 -1 0 0 0 0];

internalField   nonuniform List<scalar> 
19880
(
0
-0.0913577
-0.168287
-0.221406
-0.238881
-0.219148
0
-0.0869516
-0.16466
-0.212909
-0.221875
-0.189979
0
-0.0696431
-0.135777
-0.170841
-0.165229
-0.115058
0
-0.0433797
-0.0884932
-0.104216
-0.0757316
0.0001362
0
-0.0207549
-0.0423451
-0.0294836
0.0359119
0.141501
0
-0.012406
-0.00374009
0.0571885
0.162614
0.285495
0
-0.0913577
-0.168287
-0.221406
-0.238881
-0.219148
0
-0.0869516
-0.16466
-0.212909
-0.221875
-0.189979
0
-0.0696431
-0.135777
-0.170841
-0.165229
-0.115058
0
-0.0433797
-0.0884932
-0.104216
-0.0757316
0.0001362
0
-0.0207549
-0.0423451
-0.0294836
0.0359119
0.141501
0
-0.012406
-0.00374009
0.0571885
0.162614
0.285495
-5e-08
-3.5e-07
5e-08
5e-08
0
0.154582
0.12297
0.0741815
0.023485
-0.00530485
0.301319
0.267317
0.208097
0.129121
0.0517864
0.437009
0.402601
0.34418
0.260937
0.160216
0.571391
0.536994
0.478501
0.394537
0.287371
0.701943
0.668502
0.610016
0.525789
0.416582
-5e-08
-3.5e-07
5e-08
5e-08
0
0.154582
0.12297
0.0741815
0.023485
-0.00530485
0.301319
0.267317
0.208097
0.129121
0.0517864
0.437009
0.402601
0.34418
0.260937
0.160216
0.571391
0.536994
0.478501
0.394537
0.287371
0.701943
0.668502
0.610016
0.525789
0.416582
-1.87e-07
3.13e-07
1.13e-07
-1.7e-08
5e-08
0.132597
0.148375
0.161624
0.169156
0.168484
0.244671
0.274765
0.298162
0.312813
0.314627
0.348348
0.392492
0.426073
0.446596
0.450707
0.445396
0.502999
0.546917
0.574454
0.583263
0.538043
0.608925
0.66312
0.697947
0.711378
-1.87e-07
3.13e-07
1.13e-07
-1.7e-08
5e-08
0.132597
0.148375
0.161624
0.169156
0.168484
0.244671
0.274765
0.298162
0.312813
0.314627
0.348348
0.392492
0.426073
0.446596
0.450707
0.445396
0.502999
0.546917
0.574454
0.583263
0.538043
0.608925
0.66312
0.697947
0.711378
0.0339333
0.0292444
0.0238297
0.0174525
0.010234
1.3e-08
0.146196
0.122033
0.0962936
0.0681943
0.0369464
1.3e-08
0.255705
0.212511
0.166988
0.117848
0.0641368
1.3e-08
0.359516
0.298216
0.233932
0.164948
0.0902544
1.13e-07
0.454812
0.376778
0.29512
0.207733
0.113186
4.13e-07
0.0339333
0.0292444
0.0238297
0.0174525
0.010234
1.3e-08
0.146196
0.122033
0.0962936
0.0681943
0.0369464
1.3e-08
0.255705
0.212511
0.166988
0.117848
0.0641368
1.3e-08
0.359516
0.298216
0.233932
0.164948
0.0902544
1.13e-07
0.454812
0.376778
0.29512
0.207733
0.113186
4.13e-07
-0.460297
-0.378268
-0.293679
-0.204777
-0.110643
-5.4e-07
-0.380688
-0.312977
-0.243231
-0.169925
-0.0923439
1.3e-08
-0.288183
-0.236835
-0.184048
-0.128615
-0.0699483
1.3e-08
-0.186358
-0.152809
-0.11847
-0.0825379
-0.0443518
-8.7e-08
-0.0779727
-0.0632697
-0.0484883
-0.0333354
-0.0172652
-8.7e-08
-0.460297
-0.378268
-0.293679
-0.204777
-0.110643
-5.4e-07
-0.380688
-0.312977
-0.243231
-0.169925
-0.0923439
1.3e-08
-0.288183
-0.236835
-0.184048
-0.128615
-0.0699483
1.3e-08
-0.186358
-0.152809
-0.11847
-0.0825379
-0.0443518
-8.7e-08
-0.0779727
-0.0632697
-0.0484883
-0.0333354
-0.0172652
-8.7e-08
-0.52584
-0.573543
-0.600834
-0.605435
-0.585913
-0.431248
-0.469313
-0.489838
-0.490976
-0.470292
-0.333976
-0.362565
-0.377056
-0.374325
-0.352844
-0.231959
-0.250757
-0.259791
-0.256739
-0.235581
-0.124731
-0.134456
-0.137594
-0.131848
-0.111633
-1.4e-07
2.6e-07
2e-08
2e-08
2e-08
-0.52584
-0.573543
-0.600834
-0.605435
-0.585913
-0.431248
-0.469313
-0.489838
-0.490976
-0.470292
-0.333976
-0.362565
-0.377056
-0.374325
-0.352844
-0.231959
-0.250757
-0.259791
-0.256739
-0.235581
-0.124731
-0.134456
-0.137594
-0.131848
-0.111633
-1.4e-07
2.6e-07
2e-08
2e-08
2e-08
-0.541497
-0.471866
-0.377567
-0.264364
-0.147045
-0.42696
-0.360298
-0.271724
-0.170396
-0.080207
-0.3105
-0.24631
-0.164088
-0.0799514
-0.0227302
-0.193623
-0.131311
-0.063837
-0.0121594
0.0071102
-0.0755903
-0.0317215
-0.00090993
0.0108932
0.0079591
2e-08
2e-08
2e-08
2e-08
2e-08
-0.541497
-0.471866
-0.377567
-0.264364
-0.147045
-0.42696
-0.360298
-0.271724
-0.170396
-0.080207
-0.3105
-0.24631
-0.164088
-0.0799514
-0.0227302
-0.193623
-0.131311
-0.063837
-0.0121594
0.0071102
-0.0755903
-0.0317215
-0.00090993
0.0108932
0.0079591
2e-08
2e-08
2e-08
2e-08
2e-08
2e-08
-0.0076646
-0.0115126
-0.0244903
-0.0539733
-0.0923421
2e-08
-0.0328995
-0.0576571
-0.0789214
-0.0986803
-0.114763
2e-08
-0.0593925
-0.107091
-0.142923
-0.163008
-0.163785
0
-0.0810191
-0.147346
-0.194602
-0.215136
-0.20581
2e-08
-0.0076646
-0.0115126
-0.0244903
-0.0539733
-0.0923421
2e-08
-0.0328995
-0.0576571
-0.0789214
-0.0986803
-0.114763
2e-08
-0.0593925
-0.107091
-0.142923
-0.163008
-0.163785
0
-0.0810191
-0.147346
-0.194602
-0.215136
-0.20581
-0.0957397
0.0971152
0.295576
0.485944
0.642721
0.704575
0.653381
0.516695
0.350785
0.185565
0.0279275
-0.12543
-0.275994
-0.410194
-0.49453
-0.504194
-0.437329
-0.313842
-0.166948
-0.0185381
0.126989
0.27018
0.410209
0.536321
0.625969
0.661213
0.636413
0.558632
0.443059
0.307131
0.166698
0.0267845
-0.110207
-0.237565
-0.341248
-0.405311
-0.419576
-0.383826
-0.306169
-0.198921
-0.0744329
0.0563211
0.186954
0.312819
0.424004
0.50735
0.551177
0.550106
0.506282
0.427812
0.325265
0.208725
0.0876244
-0.0322806
-0.144407
-0.237406
-0.300072
-0.324652
-0.309201
-0.257613
-0.177691
-0.0784809
0.0310381
0.142209
0.249877
0.344653
0.415906
0.455428
0.459237
0.428193
0.367326
0.284091
0.186722
0.0847756
-0.0155784
-0.106656
-0.178006
-0.221909
-0.234174
-0.214507
-0.166232
-0.0952877
-0.00913363
0.0826753
0.173294
0.25522
0.31829
0.355841
0.364716
0.345127
0.300273
0.235632
0.158781
0.0794235
0.00386292
-0.0582348
-0.099005
-0.114943
-0.105449
0.0882319
-0.0495848
0.154779
0.351009
0.530852
0.690873
0.778318
0.756595
0.641943
0.486134
0.323265
0.164188
0.00886254
-0.141878
-0.274526
-0.357706
-0.368029
-0.303292
-0.182223
-0.0366251
0.110473
0.252927
0.392191
0.529297
0.654933
0.747028
0.786005
0.764944
0.690212
0.576771
0.44253
0.302822
0.162696
0.0250215
-0.102689
-0.205977
-0.26967
-0.284536
-0.250371
-0.174986
-0.0702889
0.0515201
0.179632
0.307586
0.430807
0.540967
0.625279
0.671416
0.673028
0.631563
0.554711
0.452756
0.335908
0.214165
0.0933424
-0.0200576
-0.113771
-0.176745
-0.20158
-0.186698
-0.136084
-0.0574451
0.0400941
0.147529
0.256999
0.362663
0.456166
0.527288
0.567439
0.572133
0.541919
0.481577
0.398246
0.300261
0.19774
0.0965466
0.00421547
-0.0683052
-0.113249
-0.126595
-0.108106
-0.0610806
0.00838627
0.0927894
0.18322
0.272589
0.353228
0.415493
0.452456
0.460692
0.440283
0.394381
0.328425
0.250304
0.170116
0.0933748
0.0297007
-0.0130402
-0.0314346
-0.0249743
0.0104307
0.0270179
0.223041
0.407409
0.567069
0.715988
0.82313
0.837261
0.757397
0.622734
0.469329
0.314039
0.16094
0.0127745
-0.117864
-0.203421
-0.221009
-0.165663
-0.0539634
0.0848956
0.227345
0.364223
0.496736
0.627777
0.750909
0.846404
0.893153
0.881839
0.816612
0.711243
0.583155
0.447113
0.309251
0.17326
0.0466005
-0.0568195
-0.122647
-0.141798
-0.113294
-0.0442395
0.0543369
0.170794
0.294367
0.417886
0.53707
0.645505
0.731453
0.781844
0.789035
0.753239
0.68112
0.582512
0.46768
0.346851
0.226345
0.112676
0.0180475
-0.0463621
-0.0733967
-0.0614754
-0.0141503
0.0612374
0.155635
0.259919
0.366431
0.46936
0.561437
0.632943
0.674872
0.682081
0.654434
0.596192
0.514258
0.417023
0.314729
0.213399
0.120201
0.0463642
-0.00037485
-0.0158643
0.00029415
0.0449151
0.111987
0.193915
0.282237
0.369683
0.44883
0.510665
0.547791
0.556286
0.535959
0.489824
0.423348
0.344676
0.264096
0.186411
0.120959
0.0756997
0.0542129
0.0569808
0.0892118
0.130604
0.301622
0.465779
0.607011
0.734913
0.845904
0.894379
0.8563
0.753012
0.617513
0.471594
0.32442
0.180958
0.0524498
-0.0376492
-0.0665084
-0.026613
0.0696588
0.197306
0.332235
0.462128
0.586448
0.708885
0.826941
0.925353
0.982312
0.98518
0.934955
0.843012
0.725325
0.596127
0.462999
0.330601
0.206175
0.102254
0.0325563
0.00671885
0.0262297
0.0851958
0.174461
0.283338
0.400809
0.518738
0.632746
0.738263
0.82572
0.88186
0.897078
0.869823
0.805381
0.712852
0.602464
0.484206
0.365169
0.252175
0.156759
0.0899942
0.0591794
0.0662378
0.108167
0.178429
0.26829
0.368462
0.471163
0.570668
0.660837
0.733084
0.777848
0.788987
0.765467
0.710908
0.631912
0.53688
0.435661
0.334864
0.241425
0.16614
0.117136
0.0987623
0.11156
0.15269
0.216445
0.295219
0.380752
0.465734
0.543055
0.604582
0.642569
0.65223
0.632933
0.587537
0.521533
0.443118
0.36242
0.284116
0.216851
0.16876
0.143716
0.142239
0.170689
0.247125
0.38489
0.524881
0.651831
0.762756
0.862678
0.930977
0.933713
0.868892
0.759784
0.629513
0.491947
0.354841
0.228761
0.133698
0.0904863
0.110346
0.187302
0.300677
0.425959
0.548152
0.664198
0.777128
0.887606
0.986366
1.05397
1.074
1.0428
0.968431
0.8648
0.745554
0.619472
0.492246
0.370933
0.266651
0.192535
0.158092
0.165755
0.211888
0.289718
0.389397
0.499579
0.611233
0.719454
0.820841
0.908607
0.970823
0.996035
0.979892
0.925769
0.841857
0.738106
0.624194
0.507822
0.396268
0.300197
0.230608
0.194916
0.195462
0.230273
0.294024
0.378285
0.47356
0.571837
0.66746
0.755141
0.827777
0.87605
0.892543
0.874651
0.825294
0.750758
0.659279
0.560137
0.460474
0.367345
0.290957
0.239563
0.217631
0.226097
0.262833
0.322551
0.397614
0.479801
0.561892
0.637099
0.698064
0.737188
0.748926
0.73178
0.688245
0.623795
0.546468
0.466007
0.387417
0.318569
0.267619
0.238762
0.232639
0.256695
0.360909
0.466199
0.582061
0.694619
0.795304
0.883558
0.954429
0.98374
0.957835
0.88252
0.775634
0.653061
0.525247
0.403029
0.303483
0.246277
0.245012
0.300324
0.396038
0.509047
0.622697
0.731163
0.835541
0.937538
1.03284
1.10752
1.14414
1.13438
1.08105
0.995126
0.889145
0.772657
0.652347
0.53525
0.43143
0.35304
0.309243
0.30373
0.335659
0.400524
0.489408
0.591082
0.69592
0.798242
0.894876
0.98114
1.04781
1.0831
1.07995
1.03869
0.965922
0.871009
0.763387
0.65108
0.541982
0.445975
0.373635
0.332308
0.32512
0.351834
0.408203
0.485938
0.575559
0.668991
0.760374
0.845065
0.917205
0.968695
0.991084
0.980341
0.937862
0.869356
0.782757
0.686863
0.589192
0.497151
0.420271
0.366543
0.340554
0.344095
0.375939
0.431086
0.501892
0.580256
0.65902
0.731738
0.791799
0.832066
0.846506
0.832616
0.792168
0.730367
0.655041
0.575335
0.496945
0.427008
0.373414
0.340761
0.329852
0.164342
-0.0957397
0.0971152
0.295576
0.485944
0.642721
0.704575
0.653381
0.516695
0.350785
0.185565
0.0279275
-0.12543
-0.275994
-0.410194
-0.49453
-0.504194
-0.437329
-0.313842
-0.166948
-0.0185381
0.126989
0.27018
0.410209
0.536321
0.625969
0.661213
0.636413
0.558632
0.443059
0.307131
0.166698
0.0267845
-0.110207
-0.237565
-0.341248
-0.405311
-0.419576
-0.383826
-0.306169
-0.198921
-0.0744329
0.0563211
0.186954
0.312819
0.424004
0.50735
0.551177
0.550106
0.506282
0.427812
0.325265
0.208725
0.0876244
-0.0322806
-0.144407
-0.237406
-0.300072
-0.324652
-0.309201
-0.257613
-0.177691
-0.0784809
0.0310381
0.142209
0.249877
0.344653
0.415906
0.455428
0.459237
0.428193
0.367326
0.284091
0.186722
0.0847756
-0.0155784
-0.106656
-0.178006
-0.221909
-0.234174
-0.214507
-0.166232
-0.0952877
-0.00913363
0.0826753
0.173294
0.25522
0.31829
0.355841
0.364716
0.345127
0.300273
0.235632
0.158781
0.0794235
0.00386292
-0.0582348
-0.099005
-0.114943
-0.105449
0.0882319
-0.0495848
0.154779
0.351009
0.530852
0.690873
0.778318
0.756595
0.641943
0.486134
0.323265
0.164188
0.00886254
-0.141878
-0.274526
-0.357706
-0.368029
-0.303292
-0.182223
-0.0366251
0.110473
0.252927
0.392191
0.529297
0.654933
0.747028
0.786005
0.764944
0.690212
0.576771
0.44253
0.302822
0.162696
0.0250215
-0.102689
-0.205977
-0.26967
-0.284536
-0.250371
-0.174986
-0.0702889
0.0515201
0.179632
0.307586
0.430807
0.540967
0.625279
0.671416
0.673028
0.631563
0.554711
0.452756
0.335908
0.214165
0.0933424
-0.0200576
-0.113771
-0.176745
-0.20158
-0.186698
-0.136084
-0.0574451
0.0400941
0.147529
0.256999
0.362663
0.456166
0.527288
0.567439
0.572133
0.541919
0.481577
0.398246
0.300261
0.19774
0.0965466
0.00421547
-0.0683052
-0.113249
-0.126595
-0.108106
-0.0610806
0.00838627
0.0927894
0.18322
0.272589
0.353228
0.415493
0.452456
0.460692
0.440283
0.394381
0.328425
0.250304
0.170116
0.0933748
0.0297007
-0.0130402
-0.0314346
-0.0249743
0.0104307
0.0270179
0.223041
0.407409
0.567069
0.715988
0.82313
0.837261
0.757397
0.622734
0.469329
0.314039
0.16094
0.0127745
-0.117864
-0.203421
-0.221009
-0.165663
-0.0539634
0.0848956
0.227345
0.364223
0.496736
0.627777
0.750909
0.846404
0.893153
0.881839
0.816612
0.711243
0.583155
0.447113
0.309251
0.17326
0.0466005
-0.0568195
-0.122647
-0.141798
-0.113294
-0.0442395
0.0543369
0.170794
0.294367
0.417886
0.53707
0.645505
0.731453
0.781844
0.789035
0.753239
0.68112
0.582512
0.46768
0.346851
0.226345
0.112676
0.0180475
-0.0463621
-0.0733967
-0.0614754
-0.0141503
0.0612374
0.155635
0.259919
0.366431
0.46936
0.561437
0.632943
0.674872
0.682081
0.654434
0.596192
0.514258
0.417023
0.314729
0.213399
0.120201
0.0463642
-0.00037485
-0.0158643
0.00029415
0.0449151
0.111987
0.193915
0.282237
0.369683
0.44883
0.510665
0.547791
0.556286
0.535959
0.489824
0.423348
0.344676
0.264096
0.186411
0.120959
0.0756997
0.0542129
0.0569808
0.0892118
0.130604
0.301622
0.465779
0.607011
0.734913
0.845904
0.894379
0.8563
0.753012
0.617513
0.471594
0.32442
0.180958
0.0524498
-0.0376492
-0.0665084
-0.026613
0.0696588
0.197306
0.332235
0.462128
0.586448
0.708885
0.826941
0.925353
0.982312
0.98518
0.934955
0.843012
0.725325
0.596127
0.462999
0.330601
0.206175
0.102254
0.0325563
0.00671885
0.0262297
0.0851958
0.174461
0.283338
0.400809
0.518738
0.632746
0.738263
0.82572
0.88186
0.897078
0.869823
0.805381
0.712852
0.602464
0.484206
0.365169
0.252175
0.156759
0.0899942
0.0591794
0.0662378
0.108167
0.178429
0.26829
0.368462
0.471163
0.570668
0.660837
0.733084
0.777848
0.788987
0.765467
0.710908
0.631912
0.53688
0.435661
0.334864
0.241425
0.16614
0.117136
0.0987623
0.11156
0.15269
0.216445
0.295219
0.380752
0.465734
0.543055
0.604582
0.642569
0.65223
0.632933
0.587537
0.521533
0.443118
0.36242
0.284116
0.216851
0.16876
0.143716
0.142239
0.170689
0.247125
0.38489
0.524881
0.651831
0.762756
0.862678
0.930977
0.933713
0.868892
0.759784
0.629513
0.491947
0.354841
0.228761
0.133698
0.0904863
0.110346
0.187302
0.300677
0.425959
0.548152
0.664198
0.777128
0.887606
0.986366
1.05397
1.074
1.0428
0.968431
0.8648
0.745554
0.619472
0.492246
0.370933
0.266651
0.192535
0.158092
0.165755
0.211888
0.289718
0.389397
0.499579
0.611233
0.719454
0.820841
0.908607
0.970823
0.996035
0.979892
0.925769
0.841857
0.738106
0.624194
0.507822
0.396268
0.300197
0.230608
0.194916
0.195462
0.230273
0.294024
0.378285
0.47356
0.571837
0.66746
0.755141
0.827777
0.87605
0.892543
0.874651
0.825294
0.750758
0.659279
0.560137
0.460474
0.367345
0.290957
0.239563
0.217631
0.226097
0.262833
0.322551
0.397614
0.479801
0.561892
0.637099
0.698064
0.737188
0.748926
0.73178
0.688245
0.623795
0.546468
0.466007
0.387417
0.318569
0.267619
0.238762
0.232639
0.256695
0.360909
0.466199
0.582061
0.694619
0.795304
0.883558
0.954429
0.98374
0.957835
0.88252
0.775634
0.653061
0.525247
0.403029
0.303483
0.246277
0.245012
0.300324
0.396038
0.509047
0.622697
0.731163
0.835541
0.937538
1.03284
1.10752
1.14414
1.13438
1.08105
0.995126
0.889145
0.772657
0.652347
0.53525
0.43143
0.35304
0.309243
0.30373
0.335659
0.400524
0.489408
0.591082
0.69592
0.798242
0.894876
0.98114
1.04781
1.0831
1.07995
1.03869
0.965922
0.871009
0.763387
0.65108
0.541982
0.445975
0.373635
0.332308
0.32512
0.351834
0.408203
0.485938
0.575559
0.668991
0.760374
0.845065
0.917205
0.968695
0.991084
0.980341
0.937862
0.869356
0.782757
0.686863
0.589192
0.497151
0.420271
0.366543
0.340554
0.344095
0.375939
0.431086
0.501892
0.580256
0.65902
0.731738
0.791799
0.832066
0.846506
0.832616
0.792168
0.730367
0.655041
0.575335
0.496945
0.427008
0.373414
0.340761
0.329852
0.164342
0.593525
0.647739
0.721331
0.803307
0.88431
0.957954
1.01898
1.06102
1.07635
1.05839
1.006
0.926
0.828328
0.723367
0.623083
0.542965
0.501037
0.51031
0.565568
0.649754
0.744984
0.839671
0.930123
1.01671
1.09991
1.17643
1.23677
1.26862
1.26352
1.22186
1.15102
1.06059
0.959099
0.853551
0.7512
0.661074
0.592777
0.554019
0.549109
0.577882
0.635612
0.714038
0.80318
0.89453
0.983031
1.06595
1.1396
1.19714
1.22948
1.22903
1.19462
1.13093
1.04575
0.947681
0.844693
0.744986
0.65766
0.591588
0.553386
0.546731
0.571685
0.623375
0.693896
0.774664
0.858387
0.939798
1.01503
1.07937
1.12617
1.14812
1.14051
1.1034
1.04128
0.961278
0.871437
0.779325
0.692691
0.619768
0.567563
0.540925
0.542108
0.569733
0.619014
0.68296
0.754076
0.825592
0.891689
0.946903
0.985222
1.00086
0.990485
0.954664
0.897737
0.826747
0.749649
0.672886
0.602927
0.546826
0.509518
0.491641
0.317806
0.872827
0.911295
0.962797
1.0204
1.07764
1.12945
1.17132
1.19718
1.20092
1.18192
1.14197
1.08316
1.00976
0.929415
0.8535
0.797351
0.776315
0.794138
0.843443
0.911394
0.985781
1.06028
1.13275
1.20255
1.26895
1.32948
1.37756
1.40375
1.40153
1.36991
1.31314
1.2382
1.15234
1.06234
0.975224
0.898798
0.841042
0.809075
0.806273
0.831539
0.880918
0.947456
1.02267
1.09936
1.17333
1.24251
1.30418
1.35284
1.38078
1.38175
1.35384
1.29975
1.2255
1.13855
1.04656
0.957569
0.879813
0.821149
0.787832
0.782898
0.805416
0.850925
0.912633
0.983114
1.05592
1.12641
1.19149
1.24763
1.28945
1.31041
1.30574
1.27452
1.21989
1.14785
1.06562
0.980624
0.900423
0.832379
0.782966
0.756882
0.755913
0.778682
0.821139
0.877232
0.940137
1.00351
1.06213
1.11163
1.14727
1.16387
1.1576
1.12777
1.07739
1.01235
0.939634
0.865782
0.797132
0.739843
0.698835
0.674631
0.143272
1.13388
1.16139
1.19769
1.23818
1.27839
1.31428
1.34225
1.35858
1.35885
1.3413
1.30786
1.26195
1.20751
1.15055
1.10074
1.06909
1.0618
1.07936
1.1173
1.16745
1.22323
1.28091
1.33824
1.39346
1.44504
1.49116
1.52827
1.55022
1.55075
1.52755
1.48302
1.42237
1.35169
1.27719
1.20531
1.14278
1.09609
1.07019
1.06776
1.08874
1.1297
1.18449
1.24603
1.30853
1.36856
1.42445
1.4743
1.5142
1.5382
1.54058
1.51867
1.4739
1.41088
1.33595
1.25615
1.17895
1.11172
1.06132
1.033
1.02896
1.04815
1.0868
1.1392
1.19895
1.26051
1.31988
1.37453
1.422
1.45835
1.4782
1.47662
1.45167
1.40524
1.34214
1.26882
1.19225
1.11955
1.05741
1.01164
0.98632
0.983018
1.00078
1.03626
1.08416
1.13833
1.19301
1.24356
1.28653
1.31854
1.33547
1.33335
1.31035
1.2679
1.21046
1.14402
1.07482
1.00896
0.951977
0.908543
0.879191
0.339997
1.3832
1.40295
1.42868
1.45725
1.48552
1.51051
1.52941
1.53956
1.53863
1.52536
1.50052
1.46684
1.42829
1.39018
1.35923
1.34139
1.33934
1.35285
1.37972
1.41598
1.4577
1.50198
1.5466
1.58963
1.62926
1.66369
1.6907
1.70708
1.7088
1.693
1.65991
1.61279
1.55657
1.49673
1.43896
1.38899
1.35198
1.3314
1.32954
1.34678
1.37986
1.4234
1.47196
1.52128
1.56869
1.61273
1.65187
1.68332
1.70279
1.70571
1.68926
1.65363
1.60199
1.53954
1.47245
1.40739
1.35075
1.30832
1.28471
1.28147
1.29724
1.32899
1.37197
1.42093
1.47134
1.5199
1.56455
1.60345
1.63388
1.65171
1.6526
1.63395
1.59626
1.54301
1.47966
1.41252
1.34809
1.29241
1.25064
1.22653
1.2215
1.2347
1.2633
1.3028
1.3479
1.39356
1.43577
1.47175
1.49915
1.51508
1.51622
1.50009
1.46654
1.41827
1.35999
1.29728
1.23587
1.18082
1.13657
1.10383
0.121745
1.62453
1.63868
1.65687
1.67694
1.69665
1.71387
1.72658
1.73303
1.73187
1.72256
1.70565
1.68295
1.65737
1.63268
1.61306
1.60192
1.60109
1.61088
1.63022
1.6569
1.68835
1.72227
1.75667
1.78979
1.81997
1.84555
1.86482
1.87594
1.87684
1.86569
1.84192
1.80702
1.76425
1.71797
1.67296
1.63397
1.60521
1.58958
1.58864
1.6022
1.62763
1.66089
1.69802
1.73594
1.77258
1.80651
1.83641
1.86037
1.8755
1.87836
1.86635
1.83898
1.79822
1.74803
1.69353
1.64044
1.5943
1.55985
1.5403
1.53697
1.54918
1.57416
1.60799
1.64664
1.6866
1.72518
1.76063
1.79154
1.81606
1.83129
1.83375
1.82069
1.79158
1.74855
1.69583
1.6388
1.58324
1.53446
1.49717
1.47484
1.46851
1.47742
1.49937
1.53063
1.56671
1.60339
1.63731
1.66624
1.68854
1.7024
1.70542
1.69514
1.67036
1.63209
1.58347
1.52902
1.47381
1.42245
1.37915
1.34492
0.358295
1.86024
1.87026
1.88304
1.89707
1.9108
1.92269
1.93132
1.93549
1.93439
1.92783
1.91634
1.90127
1.88456
1.86865
1.85618
1.84939
1.84971
1.85752
1.87218
1.89231
1.91618
1.94209
1.96844
1.99375
2.01659
2.03556
2.04923
2.05629
2.05562
2.04647
2.02873
2.00321
1.97183
1.93753
1.90389
1.87466
1.85321
1.84188
1.8417
1.85211
1.87103
1.89566
1.92336
1.95195
1.97978
2.00546
2.02775
2.04525
2.05617
2.05829
2.04962
2.02936
1.99846
1.95971
1.91708
1.87525
1.8388
1.8115
1.79559
1.79215
1.80084
1.81938
1.8448
1.87416
1.90485
1.93467
1.96209
1.9859
2.0048
2.01691
2.01979
2.01109
1.9897
1.95655
1.91456
1.868
1.82174
1.78044
1.74809
1.72762
1.7202
1.72538
1.74128
1.76478
1.79225
1.82035
1.84641
1.86867
1.88593
1.89699
1.90034
1.8941
1.87678
1.84817
1.80986
1.76499
1.71761
1.6717
1.63119
1.5973
0.108659
2.09197
2.09897
2.10789
2.11767
2.1272
2.1354
2.14129
2.14407
2.14324
2.13873
2.131
2.12102
2.11014
2.10003
2.09241
2.08876
2.09004
2.09653
2.10787
2.12321
2.14139
2.16116
2.18129
2.20055
2.21776
2.23182
2.24164
2.24624
2.24482
2.237
2.22308
2.20391
2.18089
2.15599
2.13175
2.11087
2.09574
2.08799
2.08813
2.09563
2.10915
2.12694
2.14727
2.16855
2.1894
2.20858
2.22492
2.23733
2.24463
2.24553
2.23885
2.22397
2.20132
2.17259
2.1406
2.10887
2.0809
2.05959
2.04679
2.04324
2.04864
2.06156
2.07993
2.10161
2.12459
2.1471
2.16782
2.18569
2.19969
2.2086
2.21088
2.20492
2.18965
2.1652
2.13327
2.09691
2.05996
2.02635
1.99929
1.98097
1.97285
1.97491
1.98541
2.00182
2.02145
2.04181
2.06088
2.07723
2.08986
2.09793
2.10054
2.09648
2.08452
2.06401
2.03537
2.00037
1.96186
1.923
1.88716
1.85541
0.365581
2.32089
2.32569
2.33185
2.33861
2.3452
2.35086
2.35492
2.35683
2.3563
2.35332
2.34825
2.34177
2.33485
2.3286
2.32419
2.32258
2.32442
2.32992
2.33888
2.35074
2.36471
2.37986
2.39523
2.40987
2.42285
2.4333
2.4404
2.44347
2.44198
2.43576
2.4251
2.41072
2.39379
2.3758
2.35855
2.34384
2.33322
2.32771
2.32766
2.33277
2.34227
2.35506
2.36992
2.38564
2.40109
2.41521
2.42702
2.43559
2.44009
2.43976
2.43404
2.42273
2.40614
2.38529
2.36199
2.33866
2.31777
2.30147
2.29123
2.2877
2.29075
2.29949
2.31249
2.32819
2.34504
2.36169
2.37699
2.39002
2.39996
2.40595
2.40712
2.40254
2.39146
2.37378
2.35035
2.32312
2.29486
2.26854
2.24673
2.23126
2.2232
2.2226
2.22835
2.23868
2.2517
2.26563
2.27892
2.29038
2.29911
2.30441
2.3057
2.30233
2.29358
2.27884
2.25803
2.2319
2.20215
2.171
2.14105
2.11307
0.107409
2.54774
2.55094
2.55513
2.55977
2.5643
2.56821
2.57103
2.5724
2.57213
2.57026
2.56704
2.56298
2.55873
2.55507
2.55276
2.55245
2.55459
2.55932
2.5665
2.57577
2.58656
2.59819
2.60995
2.62108
2.63088
2.63868
2.64388
2.646
2.64474
2.64003
2.63211
2.62155
2.60923
2.59627
2.58391
2.57337
2.5657
2.56158
2.56131
2.56476
2.57146
2.58065
2.59145
2.60296
2.61427
2.62454
2.63295
2.6388
2.64144
2.64038
2.63535
2.62636
2.61377
2.59836
2.58136
2.56436
2.54901
2.53683
2.52893
2.52583
2.52749
2.53333
2.54238
2.55353
2.56567
2.57774
2.58882
2.59811
2.6049
2.6086
2.60866
2.60456
2.59597
2.58286
2.56575
2.54581
2.52484
2.50487
2.4878
2.47506
2.46747
2.46512
2.46739
2.4732
2.48128
2.49036
2.49923
2.50688
2.51251
2.51551
2.51545
2.51198
2.50476
2.4935
2.47808
2.45877
2.43647
2.41249
2.38868
2.36565
0.362198
2.77309
2.77514
2.77793
2.78106
2.78416
2.78686
2.78884
2.78985
2.7898
2.78871
2.78678
2.78436
2.78191
2.77995
2.77901
2.77951
2.78175
2.78584
2.79167
2.79899
2.80739
2.81637
2.82539
2.83389
2.84132
2.84717
2.85102
2.85254
2.85153
2.848
2.84216
2.83445
2.82552
2.81616
2.80724
2.79961
2.79401
2.79093
2.79061
2.79298
2.79772
2.80432
2.81214
2.8205
2.8287
2.83608
2.84202
2.84596
2.84743
2.84607
2.84174
2.83452
2.82478
2.81316
2.80055
2.78804
2.77677
2.76775
2.76175
2.75914
2.75993
2.76372
2.76991
2.7777
2.78631
2.79492
2.80282
2.80932
2.81385
2.8159
2.81507
2.81112
2.80396
2.79372
2.78081
2.76601
2.75045
2.73545
2.72227
2.71196
2.70514
2.70199
2.70221
2.70512
2.70985
2.71547
2.72106
2.72582
2.72908
2.73032
2.72918
2.72541
2.71887
2.70949
2.6973
2.6825
2.66558
2.64728
2.62876
2.6105
0.114607
2.99731
2.99854
3.00033
3.00241
3.0045
3.00636
3.00776
3.00855
3.00865
3.0081
3.00705
3.00573
3.00448
3.00363
3.00355
3.00453
3.00676
3.01029
3.01506
3.02089
3.02748
3.03445
3.0414
3.04791
3.05356
3.058
3.06089
3.06201
3.06126
3.05865
3.05436
3.04874
3.04225
3.03547
3.02902
3.0235
3.01942
3.01714
3.01683
3.01845
3.0218
3.02651
3.03213
3.03814
3.04402
3.04926
3.05337
3.05595
3.05665
3.05525
3.05166
3.04597
3.03847
3.02967
3.02022
3.01091
3.00252
2.99574
2.99109
2.98885
2.98902
2.99138
2.99551
3.00087
3.00686
3.01288
3.01836
3.02276
3.02562
3.02656
3.02528
3.02161
3.01554
3.00726
2.99713
2.98575
2.9739
2.96244
2.95221
2.94395
2.9381
2.93481
2.93394
2.93503
2.9375
2.94067
2.94386
2.94646
2.94795
2.94791
2.94602
2.94207
2.93598
2.92776
2.91752
2.9055
2.89205
2.87767
2.86308
2.84861
0.355264
3.22064
3.22128
3.22238
3.22372
3.22511
3.22639
3.22739
3.22802
3.22823
3.22804
3.22758
3.227
3.22652
3.22639
3.22683
3.22806
3.23018
3.23324
3.23717
3.24185
3.24705
3.25249
3.25788
3.26289
3.26723
3.27061
3.27282
3.27368
3.27315
3.27124
3.26812
3.26402
3.25931
3.2544
3.24972
3.24572
3.24275
3.24106
3.24078
3.24189
3.24425
3.24759
3.2516
3.25589
3.26006
3.26372
3.26652
3.26814
3.26835
3.26698
3.26401
3.25952
3.25375
3.24706
3.23994
3.23294
3.2266
3.22141
3.21775
3.21579
3.21558
3.21696
3.21965
3.22325
3.22734
3.23145
3.23514
3.238
3.23967
3.23986
3.23834
3.23503
3.22991
3.22317
3.21511
3.20617
3.19693
3.18798
3.17992
3.17324
3.16825
3.16505
3.16356
3.16347
3.16439
3.16584
3.16732
3.16838
3.1686
3.16766
3.16529
3.16132
3.15568
3.14839
3.13957
3.12944
3.1183
3.10654
3.09468
3.08293
0.118866
3.44329
3.44353
3.44414
3.44497
3.44587
3.44674
3.44747
3.44798
3.44826
3.44831
3.44823
3.44812
3.44814
3.44844
3.44919
3.45051
3.45248
3.45512
3.45838
3.46216
3.46629
3.47056
3.47476
3.47865
3.48199
3.4846
3.4863
3.487
3.48664
3.48528
3.48301
3.48004
3.47663
3.47307
3.46969
3.46678
3.46461
3.46336
3.46311
3.46386
3.46551
3.46787
3.4707
3.47372
3.47663
3.47915
3.481
3.48195
3.48185
3.48057
3.47812
3.47456
3.47008
3.46496
3.45954
3.45423
3.44939
3.44537
3.44245
3.44075
3.44032
3.44103
3.4427
3.44504
3.44774
3.45045
3.45283
3.45457
3.4554
3.45509
3.45349
3.45054
3.44625
3.44077
3.43432
3.42724
3.41994
3.41285
3.40639
3.40089
3.39657
3.39351
3.39165
3.3908
3.39068
3.39094
3.39124
3.39122
3.39057
3.38902
3.38639
3.38252
3.37737
3.37094
3.36333
3.35472
3.34536
3.33556
3.32569
3.31596
0.35351
3.66537
3.66535
3.66563
3.6661
3.66667
3.66726
3.66779
3.66821
3.66852
3.66873
3.66888
3.66906
3.66938
3.66993
3.67083
3.67215
3.67394
3.67622
3.67892
3.68199
3.68529
3.68866
3.69195
3.69499
3.69759
3.69961
3.70095
3.70152
3.70131
3.70035
3.69872
3.69658
3.69411
3.69154
3.68909
3.68698
3.68539
3.68446
3.68425
3.68474
3.68588
3.68753
3.68951
3.69161
3.69361
3.6953
3.69648
3.69698
3.69669
3.69552
3.69348
3.69065
3.68715
3.68319
3.67903
3.67495
3.67122
3.66809
3.66573
3.66426
3.66369
3.66396
3.66492
3.66637
3.66808
3.66978
3.67122
3.67217
3.67241
3.67179
3.67019
3.66758
3.66396
3.65947
3.65427
3.64861
3.64278
3.6371
3.63184
3.62725
3.62349
3.62061
3.61859
3.61728
3.61649
3.61598
3.61549
3.61475
3.61353
3.61162
3.60888
3.60519
3.60051
3.59486
3.58831
3.581
3.57312
3.56491
3.55666
3.54852
0.119653
3.88703
3.88683
3.88689
3.88712
3.88745
3.88784
3.88823
3.88859
3.88891
3.8892
3.88949
3.88984
3.89032
3.891
3.89194
3.8932
3.89481
3.89676
3.89901
3.90151
3.90415
3.90683
3.90942
3.9118
3.91384
3.91543
3.91649
3.91697
3.91687
3.9162
3.91505
3.91351
3.91173
3.90988
3.9081
3.90657
3.90542
3.90472
3.90453
3.90486
3.90563
3.90676
3.90813
3.90956
3.91091
3.91202
3.91273
3.91292
3.91252
3.91147
3.90978
3.90751
3.90476
3.90168
3.89846
3.8953
3.8924
3.88992
3.88801
3.88673
3.88611
3.88608
3.88655
3.88738
3.88838
3.88936
3.89015
3.89054
3.8904
3.8896
3.88806
3.88575
3.88269
3.87899
3.87476
3.87019
3.86549
3.86088
3.85656
3.85271
3.84943
3.84677
3.84471
3.84316
3.84197
3.84098
3.83999
3.83881
3.83725
3.83516
3.83243
3.82898
3.82477
3.81981
3.81418
3.80796
3.80132
3.79443
3.78751
3.78068
0.352888
4.10831
4.10801
4.10793
4.108
4.10818
4.10843
4.10872
4.10902
4.10933
4.10965
4.11001
4.11045
4.11101
4.11172
4.11265
4.11381
4.11523
4.11689
4.11876
4.1208
4.12292
4.12506
4.12711
4.12898
4.13058
4.13184
4.13269
4.13311
4.13308
4.13263
4.13182
4.13072
4.12945
4.12811
4.12683
4.12573
4.12488
4.12436
4.1242
4.1244
4.12492
4.12569
4.12661
4.12757
4.12846
4.12915
4.12953
4.12953
4.12909
4.12815
4.12675
4.12492
4.12274
4.12033
4.11782
4.11536
4.11308
4.11111
4.10955
4.10844
4.1078
4.10759
4.10774
4.10814
4.10865
4.10914
4.10947
4.1095
4.10912
4.10823
4.10678
4.10476
4.10217
4.0991
4.09564
4.09192
4.0881
4.08433
4.08076
4.07751
4.07467
4.07225
4.07025
4.0686
4.06722
4.06596
4.06469
4.06326
4.06154
4.05941
4.05679
4.05361
4.04985
4.04553
4.04068
4.0354
4.0298
4.02401
4.01819
4.01244
0.120211
4.32927
4.32892
4.32876
4.32873
4.3288
4.32896
4.32917
4.32943
4.32972
4.33005
4.33043
4.33089
4.33146
4.33217
4.33303
4.33408
4.33531
4.33671
4.33826
4.33992
4.34163
4.34333
4.34496
4.34644
4.3477
4.3487
4.34939
4.34974
4.34976
4.34947
4.34891
4.34814
4.34723
4.34628
4.34536
4.34456
4.34394
4.34355
4.34341
4.34353
4.34387
4.34438
4.34499
4.34561
4.34617
4.34658
4.34675
4.34663
4.34617
4.34536
4.3442
4.34272
4.34099
4.3391
4.33713
4.3352
4.3334
4.33183
4.33055
4.32959
4.32897
4.32865
4.32859
4.3287
4.3289
4.32906
4.32909
4.32889
4.32837
4.32747
4.32614
4.32437
4.32219
4.31964
4.31681
4.31377
4.31065
4.30756
4.3046
4.30186
4.2994
4.29723
4.29536
4.29373
4.29228
4.29091
4.28952
4.288
4.28625
4.28418
4.28174
4.27887
4.27555
4.2718