/*--------------------------------*- C++ -*----------------------------------*\
| =========                 |                                                 |
| \\      /  F ield         | OpenFOAM: The Open Source CFD Toolbox           |
|  \\    /   O peration     | Version:  2506                                  |
|   \\  /    A nd           | Website:  www.openfoam.com                      |
|    \\/     M anipulation  |                                                 |
\*---------------------------------------------------------------------------*/
FoamFile
{
    version     2.0;
    format      ascii;
    arch        "LSB;label=32;scalar=64";
    class       volScalarField;
    location    "200";
    object      div(phi);
}
// * * * * * * * * * * * * * * * * * * * * * * * * * * * * * * * * * * * * * //

dimensions      [0 0 -1 0 0 0 0];

internalField   nonuniform List<scalar> 
1340
(
5.83792e-05
7.78334e-05
2.86143e-06
4.56429e-05
3.45723e-06
3.24444e-05
1.74872e-05
-7.23336e-06
3.72805e-05
3.68889e-05
4.72688e-06
7.95137e-06
2.83474e-05
1.71562e-05
7.02833e-07
3.64389e-05
-3.04685e-06
2.02513e-05
1.75083e-05
3.98788e-06
1.32993e-05
3.43157e-05
-2.33198e-06
1.00247e-05
2.25234e-05
-7.55715e-07
3.45752e-06
1.9886e-05
1.80336e-05
3.58225e-07
2.85848e-05
1.21105e-05
1.40578e-05
-8.24601e-06
1.33077e-05
1.11484e-05
1.60761e-07
5.32087e-06
2.55052e-05
1.31789e-06
6.19164e-06
2.83988e-06
1.54435e-05
-2.96312e-06
-4.36678e-07
1.31248e-05
1.11911e-05
-6.05778e-06
1.62151e-05
1.33143e-05
-4.49049e-06
1.05097e-05
-7.33959e-06
8.08785e-06
7.1462e-06
-2.70694e-06
6.93169e-07
1.73298e-05
-3.13963e-06
1.01686e-06
1.60835e-05
-1.86959e-06
-8.69419e-07
9.75047e-06
-4.12989e-06
-1.44911e-06
8.2817e-06
6.91995e-06
-7.72767e-06
9.83199e-06
6.90921e-06
-3.36086e-06
4.82973e-06
4.08344e-06
-6.87295e-06
5.71088e-06
3.9605e-06
-3.39881e-06
-1.18987e-06
1.13635e-05
-3.94657e-06
-1.03184e-06
7.17548e-06
1.92559e-06
2.00103e-06
-7.9927e-07
7.29722e-06
-3.60091e-06
-1.95826e-06
5.6956e-06
3.68023e-06
-6.91695e-06
6.42699e-06
3.66515e-06
-3.90695e-06
4.02863e-07
1.88042e-07
4.34613e-06
-4.96068e-06
3.8493e-06
2.6529e-06
-3.37263e-06
-1.275e-06
8.0046e-06
-3.64545e-06
-1.75174e-06
4.08271e-06
-1.78409e-06
2.68425e-07
-1.85687e-06
-1.0333e-06
4.97321e-06
-3.23228e-06
-1.43743e-06
3.98374e-06
2.57305e-06
-5.57891e-06
4.32255e-06
1.88508e-06
-4.2349e-06
-2.22672e-07
-1.81844e-06
8.4644e-07
1.92075e-06
-4.05706e-06
3.06828e-06
1.61798e-06
-2.76421e-06
-1.07665e-06
5.65466e-06
-3.21032e-06
-1.60365e-06
2.28294e-06
-1.97571e-06
-2.39053e-07
9.27694e-07
-3.23625e-06
-5.4398e-07
3.96095e-06
-2.40722e-06
-1.24564e-06
3.14462e-06
1.51115e-06
-4.25452e-06
3.21822e-06
1.13598e-06
-3.50094e-06
-2.22397e-07
5.07343e-08
-7.30088e-07
5.70746e-06
2.17245e-06
-2.85518e-06
2.23688e-06
1.27138e-06
-2.22878e-06
-6.56365e-07
4.40467e-06
-2.42381e-06
-1.31648e-06
1.9934e-06
-9.25967e-07
8.26062e-07
4.04424e-06
-1.56389e-07
-6.33896e-07
2.79091e-06
-2.0163e-06
-7.56033e-07
2.439e-06
1.35695e-06
-3.24165e-06
2.59538e-06
1.15419e-06
-2.4303e-06
1.00009e-06
1.6539e-06
9.66385e-07
1.02627e-05
4.69291e-06
8.00459e-07
-2.42816e-06
1.85994e-06
8.76355e-07
-1.68388e-06
-4.24394e-07
3.51375e-06
-1.78429e-06
-7.64e-07
2.436e-06
2.22328e-07
1.85473e-06
5.54077e-06
-7.264e-07
9.38831e-06
-4.80791e-07
2.21142e-06
-1.51832e-06
-6.22427e-07
2.06674e-06
1.00584e-06
-2.4482e-06
2.31049e-06
1.4366e-06
-1.36067e-06
1.72226e-06
2.23417e-06
4.92842e-07
8.37639e-06
-2.83682e-06
8.54218e-07
-1.79293e-06
1.44482e-06
7.75479e-07
-1.28927e-06
-2.04733e-07
3.07221e-06
-1.23118e-06
-3.68911e-07
2.6042e-06
8.06109e-07
1.84277e-06
4.70245e-06
-2.1949e-06
6.55929e-06
-4.64764e-06
-1.11025e-08
1.85986e-06
-1.21465e-06
-3.13487e-07
1.67911e-06
1.03882e-06
-1.94275e-06
2.04747e-06
1.46564e-06
-8.49791e-07
1.7552e-06
1.94852e-06
1.93761e-07
6.41794e-06
-2.72331e-06
4.22836e-06
7.7993e-07
-1.39406e-06
1.29713e-06
6.03647e-07
-9.74606e-07
-1.456e-07
2.5726e-06
-9.44462e-07
-2.38264e-07
2.41308e-06
7.47303e-07
1.51039e-06
3.65352e-06
-2.45903e-06
5.81291e-06
-1.58079e-06
-3.31847e-07
-1.76966e-07
1.52923e-06
-8.83112e-07
-2.68151e-07
1.4329e-06
7.98281e-07
-1.56313e-06
1.74309e-06
1.35933e-06
-7.00431e-07
1.50829e-06
1.50963e-06
-2.43035e-07
5.39146e-06
-2.75838e-06
5.78965e-06
-1.73771e-07
7.63946e-07
5.27306e-07
-1.04303e-06
1.03756e-06
5.50303e-07
-7.7339e-07
-9.10953e-08
2.21158e-06
-7.43774e-07
-2.3205e-07
2.03448e-06
6.02426e-07
1.0056e-06
2.89141e-06
-2.55735e-06
5.43217e-06
-2.82587e-06
4.86202e-06
-5.24882e-07
-1.90417e-07
1.20642e-06
-7.07957e-07
-1.18357e-07
1.14748e-06
7.59239e-07
-1.32224e-06
1.43753e-06
1.12242e-06
-6.28814e-07
1.14436e-06
1.1336e-06
-5.12204e-07
4.33413e-06
-3.05679e-06
4.77209e-06
-3.43815e-06
5.49527e-07
4.22538e-07
-8.36718e-07
9.06948e-07
4.25075e-07
-6.23449e-07
-1.07705e-07
1.78893e-06
-6.43175e-07
-2.39344e-07
1.65012e-06
3.79327e-07
7.0297e-07
2.20339e-06
-2.11582e-06
4.35471e-06
-2.96546e-06
3.19284e-06
-2.15319e-06
-2.89782e-07
-1.26354e-07
1.00366e-06
-5.26783e-07
-1.36631e-07
9.50426e-07
5.41751e-07
-1.09881e-06
1.16141e-06
9.23817e-07
-5.8979e-07
8.67317e-07
8.1574e-07
-5.31381e-07
3.4455e-06
-2.62824e-06
3.50888e-06
-1.0525e-06
1.73338e-06
4.51292e-07
3.46875e-07
-6.22811e-07
7.13419e-07
3.60759e-07
-5.27032e-07
-9.82413e-08
1.4833e-06
-5.37682e-07
-2.45291e-07
1.29365e-06
2.43416e-07
4.20943e-07
1.76404e-06
-1.99653e-06
3.44717e-06
-2.29705e-06
2.64668e-06
-1.48927e-06
-2.7902e-07
-7.30831e-08
8.08498e-07
-4.4271e-07
-7.01184e-08
7.37073e-07
4.78475e-07
-9.37661e-07
9.22173e-07
7.07874e-07
-5.41465e-07
5.99692e-07
5.8251e-07
-6.30898e-07
2.70861e-06
-2.16623e-06
3.14835e-06
-1.8338e-06
2.95991e-06
3.86566e-07
3.09852e-07
-5.05681e-07
6.08204e-07
2.62339e-07
-4.45875e-07
-1.16192e-07
1.16272e-06
-4.75849e-07
-2.42186e-07
9.95704e-07
9.53119e-08
2.34664e-07
1.31646e-06
-1.63918e-06
2.75162e-06
-2.03699e-06
3.20125e-06
-9.3368e-07
-1.25725e-07
-3.37327e-08
6.7046e-07
-3.41605e-07
-9.70433e-08
5.94153e-07
3.15887e-07
-7.7854e-07
7.23716e-07
5.53168e-07
-4.98631e-07
4.16489e-07
3.76377e-07
-6.02755e-07
2.08604e-06
-1.9028e-06
2.71528e-06
-1.75259e-06
2.04326e-06
2.64161e-06
3.34985e-07
2.52297e-07
-3.8533e-07
4.70762e-07
2.11206e-07
-3.86525e-07
-1.08347e-07
9.42249e-07
-3.99191e-07
-2.27152e-07
7.55529e-07
2.23827e-08
7.81449e-08
9.9512e-07
-1.52899e-06
2.08749e-06
-2.0479e-06
2.06161e-06
9.50849e-08
9.87143e-07
-1.35775e-07
-1.43608e-08
5.35931e-07
-2.9497e-07
-6.0314e-08
4.49613e-07
2.69503e-07
-6.56503e-07
5.67383e-07
4.13164e-07
-4.35839e-07
2.64179e-07
2.31837e-07
-6.31292e-07
1.54772e-06
-1.73704e-06
1.80873e-06
-1.87772e-06
1.60202e-06
-2.9438e-07
2.77861e-07
2.17663e-07
-3.18781e-07
3.94197e-07
1.46013e-07
-3.29412e-07
-1.12489e-07
7.27483e-07
-3.428e-07
-1.99771e-07
5.73896e-07
-4.64551e-08
-8.98295e-09
6.78506e-07
-1.29596e-06
1.44279e-06
-1.90545e-06
1.55506e-06
-1.98453e-06
1.19433e-06
-5.80634e-08
1.10129e-10
4.39407e-07
-2.30852e-07
-7.74524e-08
3.56476e-07
1.65915e-07
-5.35425e-07
4.44633e-07
3.21987e-07
-3.77153e-07
1.70333e-07
1.0913e-07
-5.70571e-07
1.0853e-06
-1.53454e-06
1.19945e-06
-2.13213e-06
1.00977e-06
-2.33536e-06
2.37575e-07
1.73805e-07
-2.45208e-07
3.02251e-07
1.14306e-07
-2.84133e-07
-9.93898e-08
5.82866e-07
-2.78454e-07
-1.70741e-07
4.28082e-07
-7.32975e-08
-7.80278e-08
4.62539e-07
-1.16313e-06
9.7418e-07
-1.65392e-06
9.89319e-07
-2.0352e-06
1.89338e-07
-2.31947e-06
-7.05731e-08
6.82981e-09
3.48684e-07
-1.98902e-07
-5.26551e-08
2.64722e-07
1.39307e-07
-4.42519e-07
3.46135e-07
2.34955e-07
-3.18898e-07
8.73428e-08
2.97874e-08
-5.39602e-07
7.45286e-07
-1.27649e-06
8.01232e-07
-1.68053e-06
4.77747e-07
-1.23922e-06
-1.89063e-07
1.94451e-07
1.48461e-07
-2.02347e-07
2.50202e-07
7.5191e-08
-2.40004e-07
-9.51452e-08
4.42229e-07
-2.34708e-07
-1.44697e-07
3.12808e-07
-1.03924e-07
-1.07471e-07
2.79256e-07
-9.31361e-07
6.55209e-07
-1.27115e-06
6.39439e-07
-1.51051e-06
5.22527e-08
-1.35276e-06
-2.48101e-08
1.33712e-08
2.83702e-07
-1.55305e-07
-6.08439e-08
2.06295e-07
7.59106e-08
-3.55846e-07
2.65974e-07
1.75088e-07
-2.71203e-07
3.9577e-08
-2.90432e-08
-4.4991e-07
5.02998e-07
-1.01189e-06
5.37356e-07
-1.28933e-06
4.38883e-07
-1.27978e-06
2.01999e-07
1.66782e-07
1.18615e-07
-1.54791e-07
1.90344e-07
5.70359e-08
-2.05284e-07
-8.17396e-08
3.46978e-07
-1.8923e-07
-1.21004e-07
2.23011e-07
-1.0599e-07
-1.21866e-07
1.75287e-07
-7.72793e-07
4.59673e-07
-1.01028e-06
5.00653e-07
-1.19502e-06
4.10296e-07
-9.68363e-07
-3.30542e-08
1.60517e-08
2.2378e-07
-1.32408e-07
-4.37365e-08
1.49392e-07
6.14912e-08
-2.89195e-07
2.02907e-07
1.21298e-07
-2.22817e-07
3.68521e-09
-5.32343e-08
-3.86704e-07
3.51891e-07
-7.93026e-07
4.11024e-07
-9.41405e-07
4.97051e-07
-8.71508e-07
2.8424e-07
-1.02374e-06
1.37312e-07
1.01507e-07
-1.2631e-07
1.55685e-07
3.43692e-08
-1.71599e-07
-7.43228e-08
2.57366e-07
-1.56439e-07
-9.77925e-08
1.58726e-07
-1.06005e-07
-1.12687e-07
1.00382e-07
-5.8909e-07
3.40562e-07
-7.30187e-07
4.16744e-07
-8.52305e-07
4.10349e-07
-6.36734e-07
-2.52054e-08
-4.43106e-09
1.91688e-08
1.80922e-07
-1.02738e-07
-4.64942e-08
1.1379e-07
2.50273e-08
-2.28186e-07
1.54492e-07
8.89866e-08
-1.8001e-07
-7.82537e-09
-6.2704e-08
-3.01182e-07
2.54683e-07
-5.99598e-07
3.34125e-07
-6.87713e-07
4.51175e-07
-7.28702e-07
1.54891e-07
-6.71944e-07
1.19009e-07
8.18424e-08
-9.53233e-08
1.17411e-07
2.47449e-08
-1.45031e-07
-6.20591e-08
1.98597e-07
-1.22138e-07
-7.57147e-08
1.14336e-07
-8.86332e-08
-9.90489e-08
7.0639e-08
-4.69939e-07
2.75711e-07
-5.59256e-07
3.79613e-07
-6.14164e-07
3.88803e-07
-5.34223e-07
7.40836e-08
-9.37776e-09
2.01728e-08
1.41887e-07
-8.6165e-08
-3.4554e-08
7.95492e-08
1.93487e-08
-1.81022e-07
1.18559e-07
6.30532e-08
-1.38914e-07
-1.37791e-08
-5.4772e-08
-2.45756e-07
2.02452e-07
-4.6029e-07
3.04728e-07
-4.8237e-07
4.32677e-07
-5.11263e-07
2.06621e-07
-4.79009e-07
9.94556e-08
7.05176e-08
-7.62662e-08
9.4658e-08
1.22272e-08
-1.1937e-07
-5.43996e-08
1.45521e-07
-9.6653e-08
-5.56785e-08
8.6155e-08
-7.38091e-08
-7.87183e-08
4.99579e-08
-3.53897e-07
2.34392e-07
-3.94317e-07
3.5981e-07
-4.20906e-07
4.00255e-07
-4.02953e-07
3.34402e-07
8.58005e-09
2.16251e-08
1.13953e-07
-6.60693e-08
-3.42408e-08
5.81151e-08
5.40099e-10
-1.39685e-07
9.21259e-08
5.05447e-08
-1.05059e-07
-8.93032e-09
-4.54502e-08
-1.87332e-07
1.60201e-07
-3.47133e-07
2.6605e-07
-3.50004e-07
4.08558e-07
-3.8405e-07
4.3266e-07
-4.4951e-07
8.77408e-08
5.74761e-08
-5.61011e-08
7.0542e-08
7.51156e-09
-9.94134e-08
-4.49281e-08
1.11709e-07
-7.14177e-08
-3.87321e-08
6.83127e-08
-5.38713e-08
-6.25349e-08
3.97391e-08
-2.85015e-07
1.88896e-07
-3.13396e-07
3.11616e-07
-3.20014e-07
4.38447e-07
-3.2507e-07
3.92948e-07
-5.37068e-07
5.00467e-09
2.21117e-08
8.86331e-08
-5.4065e-08
-2.59913e-08
3.77049e-08
-3.29352e-11
-1.07813e-07
7.2294e-08
4.08592e-08
-7.61803e-08
-5.79417e-09
-3.55832e-08
-1.52849e-07
1.21772e-07
-2.79364e-07
2.14103e-07
-2.72777e-07
3.48741e-07
-3.03608e-07
3.67724e-07
-2.146e-07
1.55653e-07
7.51114e-08
4.96632e-08
-4.31855e-08
5.5766e-08
8.28699e-10
-8.00428e-08
-3.85761e-08
8.08604e-08
-5.27677e-08
-2.58956e-08
5.62219e-08
-4.15735e-08
-4.78235e-08
2.46814e-08
-2.22702e-07
1.43457e-07
-2.43618e-07
2.45554e-07
-2.55974e-07
3.68447e-07
-2.79358e-07
2.07678e-07
-2.69815e-07
1.5197e-08
2.29595e-08
7.05106e-08
-4.07034e-08
-2.40381e-08
2.46479e-08
-8.77484e-09
-8.04725e-08
5.57958e-08
3.59922e-08
-5.55933e-08
-1.80299e-09
-3.078e-08
-1.18805e-07
9.12465e-08
-2.17168e-07
1.63429e-07
-2.22285e-07
2.7748e-07
-2.57552e-07
2.99594e-07
-2.09062e-07
1.34395e-07
6.78146e-08
4.06472e-08
-3.01816e-08
4.08809e-08
-1.35641e-09
-6.46361e-08
-3.16361e-08
5.93185e-08
-3.62198e-08
-1.75938e-08
4.53804e-08
-3.116e-08
-3.83081e-08
1.8312e-08
-1.75247e-07
1.13091e-07
-1.94249e-07
1.95699e-07
-2.15639e-07
3.00144e-07
-2.30649e-07
1.51396e-07
-2.26902e-07
1.13458e-08
2.30463e-08
5.35116e-08
-3.16786e-08
-1.80763e-08
1.19344e-08
-8.69478e-09
-5.99596e-08
4.16584e-08
2.95853e-08
-4.10622e-08
-2.31737e-09
-2.54222e-08
-9.46949e-08
7.5536e-08
-1.66809e-07
1.38499e-07
-1.7723e-07
2.33247e-07
-2.03555e-07
2.15282e-07
-1.67066e-07
7.29981e-08
5.9858e-08
3.49315e-08
-2.15773e-08
3.03677e-08
-4.59098e-09
-5.12555e-08
-2.67677e-08
4.0018e-08
-2.5325e-08
-1.2328e-08
3.56958e-08
-2.54563e-08
-3.16253e-08
1.55898e-08
-1.34349e-07
9.98216e-08
-1.44773e-07
1.7242e-07
-1.61235e-07
2.23083e-07
-1.73705e-07
2.18162e-08
-1.73342e-07
1.77441e-08
2.38751e-08
4.10414e-08
-2.23104e-08
-1.66033e-08
5.10982e-09
-1.30943e-08
-4.35633e-08
3.29628e-08
2.55807e-08
-3.16649e-08
-2.84906e-09
-2.1281e-08
-7.57724e-08
6.23956e-08
-1.24994e-07
1.16832e-07
-1.28707e-07
1.82021e-07
-1.42907e-07
2.11564e-08
-1.34385e-07
-5.32028e-08
5.36702e-08
2.73359e-08
-1.52657e-08
1.98167e-08
-6.07491e-09
-4.3052e-08
-2.07093e-08
3.12276e-08
-1.70219e-08
-8.74124e-09
2.81673e-08
-2.00456e-08
-2.7605e-08
8.60013e-09
-1.08454e-07
6.93273e-08
-1.1201e-07
1.27902e-07
-1.16031e-07
5.07088e-08
-1.19062e-07
1.88918e-08
-7.38449e-08
9.66385e-09
1.43536e-08
2.16586e-08
2.92674e-08
-1.85248e-08
-1.2102e-08
2.63387e-09
-1.21436e-08
-3.4744e-08
2.63156e-08
2.55355e-08
-1.8698e-08
-2.34713e-09
-2.23498e-08
-6.48793e-08
3.29619e-08
-1.04798e-07
6.90228e-08
-1.03531e-07
6.50476e-08
-6.05723e-08
5.75435e-08
-1.00222e-07
1.30052e-07
-9.31228e-08
4.37052e-08
1.79313e-08
-1.37479e-08
1.48919e-08
-9.98775e-09
-3.83343e-08
-1.76887e-08
2.30881e-08
-8.31419e-09
-6.81926e-09
2.02439e-08
-1.62029e-08
-2.06264e-08
-3.99166e-09
-8.58926e-08
2.70692e-08
-9.32873e-08
5.58422e-08
-5.7525e-08
3.19627e-08
-3.94689e-08
1.4888e-07
-9.7311e-08
8.97761e-08
2.67787e-08
2.79086e-08
2.24725e-08
-1.90957e-08
-1.16053e-08
7.0768e-10
-1.56777e-08
-2.71224e-08
1.44595e-08
2.03316e-08
-9.69013e-09
1.79295e-10
-1.89495e-08
-4.53677e-08
2.63988e-09
-8.43116e-08
2.13763e-08
-8.85964e-08
3.34901e-08
1.15062e-08
1.01877e-07
-1.18088e-07
1.09065e-07
-1.05369e-07
4.28436e-08
2.52921e-08
-9.11687e-09
1.23066e-08
-8.1963e-09
-3.62388e-08
-1.59749e-08
1.47278e-08
-2.7315e-09
-2.85878e-09
1.21801e-08
-1.07101e-08
-1.28854e-08
-1.20619e-08
-5.87099e-08
-5.80045e-09
-7.55688e-08
2.2422e-08
-3.27478e-08
2.17844e-08
-3.94816e-08
1.03587e-07
-1.02928e-07
6.43344e-08
3.57158e-08
2.31026e-08
1.6585e-08
-1.41427e-08
-1.28908e-08
-5.15967e-10
-1.17122e-08
-1.83236e-08
9.5079e-09
1.19331e-08
-4.89218e-09
1.82692e-09
-1.51185e-08
-2.5704e-08
-1.75527e-08
-5.42981e-08
-6.60051e-09
-5.68574e-08
1.89205e-09
5.52009e-10
4.34399e-08
-1.02988e-07
4.32482e-08
-8.09791e-08
3.60163e-08
2.72384e-08
-2.17885e-09
7.06731e-09
-7.12792e-09
-2.83708e-08
-1.22879e-08
6.36149e-09
-3.04365e-09
2.41033e-10
6.78028e-09
-8.44394e-09
-1.92015e-09
-1.9806e-08
-2.83707e-08
-2.87591e-08
-4.52108e-08
-9.63063e-09
-9.30277e-09
-9.00956e-09
-3.98975e-08
1.61825e-08
-7.27027e-08
3.03609e-08
3.91422e-08
1.85924e-08
1.21723e-08
-8.45776e-09
-1.43941e-08
-1.4247e-09
-1.24416e-08
-1.29398e-08
4.38698e-09
2.48463e-09
-1.83775e-09
4.11869e-09
-1.44019e-08
-4.58686e-09
-3.52152e-08
-2.25867e-08
-3.05895e-08
-1.90155e-08
-3.2172e-08
1.25579e-08
-1.47107e-08
-6.77446e-08
-1.28538e-08
-3.04564e-08
3.54107e-08
2.64879e-08
7.51269e-09
2.20998e-09
-3.56071e-09
-2.34992e-08
-9.17079e-09
-1.36698e-09
-4.59793e-09
4.29124e-09
-2.37821e-10
-5.10365e-09
7.34458e-09
-2.85374e-08
-1.67328e-09
-4.66108e-08
-1.07495e-08
-4.91358e-08
1.71939e-08
-1.25376e-08
-2.55571e-08
-4.08899e-08
-2.77707e-08
-1.22852e-08
4.21187e-08
2.00645e-08
9.76435e-09
-2.75373e-09
-1.41371e-08
-5.4966e-10
-1.26377e-08
-6.31358e-09
2.12882e-09
-5.73629e-09
5.33542e-09
4.67308e-09
-1.67312e-08
9.79077e-09
-4.99081e-08
4.50988e-09
-6.2476e-08
8.0761e-09
6.85966e-10
1.26557e-08
-3.71679e-08
-3.75429e-08
-4.95812e-08
3.79384e-08
3.22664e-08
3.08359e-08
9.51785e-09
-1.50874e-09
-2.43057e-09
-1.76443e-08
-2.48913e-09
-7.10319e-09
-3.2752e-09
1.02207e-08
-7.28276e-09
-3.38829e-09
1.1567e-08
-3.78521e-08
2.03746e-08
-7.08561e-08
1.25676e-08
-1.90821e-09
3.1191e-08
-2.6169e-08
-1.47417e-08
-8.73722e-08
-1.79893e-08
-2.96879e-08
4.87963e-08
3.44378e-08
1.5993e-08
8.17757e-09
-3.58496e-09
-1.25161e-08
-8.95645e-11
-1.3774e-08
1.35891e-09
8.00403e-10
-1.05615e-08
1.47021e-08
7.21818e-10
-2.29482e-08
2.05799e-08
-7.75998e-08
2.92796e-08
-8.61439e-09
4.59806e-08
-3.64177e-08
2.52918e-08
-1.30967e-07
-1.83507e-08
-8.82643e-08
-9.97642e-09
-7.41502e-09
4.36479e-08
2.15954e-08
6.82167e-09
-3.81183e-09
-2.8396e-09
-1.39342e-08
8.03842e-09
-1.18839e-08
5.43938e-11
1.36304e-08
-1.54072e-08
-3.36339e-09
4.97006e-09
-6.89415e-08
3.92634e-08
-1.4841e-08
5.9048e-08
-4.3407e-08
5.23443e-08
-1.49212e-07
1.86721e-08
-1.61665e-07
-1.83467e-09
-8.24332e-08
5.30879e-08
-4.45963e-08
7.18781e-09
5.43049e-09
-1.04955e-09
-9.38225e-09
1.18798e-08
-1.24698e-08
1.11695e-08
-6.03935e-09
-2.67779e-09
2.32121e-08
1.36079e-08
-2.15254e-08
4.09684e-08
-4.50289e-09
7.35493e-08
-1.04552e-08
8.16873e-08
-1.07318e-07
7.69195e-08
-1.24213e-07
7.16348e-08
-1.13888e-07
5.87927e-08
-5.84981e-08
5.25752e-08
1.1694e-08
5.43274e-09
-2.56746e-09
7.11824e-09
-3.44044e-09
1.11453e-08
-1.20634e-08
6.26501e-09
2.28802e-08
2.99917e-08
2.19121e-08
3.76163e-08
2.02014e-08
6.82443e-08
3.38366e-08
8.44246e-08
-1.9434e-08
1.10895e-07
-4.0357e-09
1.58892e-07
-2.30432e-08
1.88012e-07
-6.99874e-09
2.69118e-07
-1.14522e-08
2.73262e-09
1.29035e-11
1.57623e-09
8.33464e-11
3.1763e-09
-3.60555e-09
2.36071e-09
7.25303e-09
9.01621e-09
1.78849e-08
1.42541e-08
1.36165e-08
2.59329e-08
2.33601e-08
3.50247e-08
1.39112e-08
5.51072e-08
3.48066e-08
9.5169e-08
5.6598e-08
1.54218e-07
1.19927e-07
1.82816e-07
1.91043e-07
)
;

boundaryField
{
    inlet
    {
        type            extrapolatedCalculated;
        value           nonuniform List<scalar> 
25
(
-1.14522e-08
2.73262e-09
1.29035e-11
1.57623e-09
8.33464e-11
3.1763e-09
-3.60555e-09
2.36071e-09
7.25303e-09
9.01621e-09
1.78849e-08
1.42541e-08
1.36165e-08
2.59329e-08
2.33601e-08
3.50247e-08
1.39112e-08
5.51072e-08
3.48066e-08
9.5169e-08
5.6598e-08
1.54218e-07
1.19927e-07
1.82816e-07
1.91043e-07
)
;
    }
    outlet
    {
        type            extrapolatedCalculated;
        value           nonuniform List<scalar> 0();
    }
    walls
    {
        type            extrapolatedCalculated;
        value           nonuniform List<scalar> 0();
    }
    frontAndBack
    {
        type            empty;
    }
    procBoundary4to0
    {
        type            processor;
        value           nonuniform List<scalar> 
72
(
5.6782e-05
6.54688e-05
3.4163e-05
3.58394e-05
1.49594e-05
2.13681e-05
3.5024e-06
7.69526e-06
5.57812e-07
6.9041e-06
-6.13022e-07
2.6836e-06
-5.55261e-07
3.27708e-06
-5.52552e-07
1.47715e-06
-5.70686e-07
1.4355e-06
-6.01713e-07
2.56963e-09
-2.33269e-07
8.45446e-07
8.45446e-07
4.08074e-07
-4.16017e-07
4.78448e-07
-4.0931e-07
2.15214e-07
-2.76134e-07
2.98065e-07
-2.10296e-07
1.6331e-07
-1.4795e-07
2.00254e-07
-1.20586e-07
1.10252e-07
-9.31202e-08
1.26584e-07
-7.77148e-08
6.92713e-08
-6.11214e-08
7.91363e-08
-4.98171e-08
4.42487e-08
-3.81034e-08
5.13343e-08
-2.93356e-08
3.06271e-08
-2.10998e-08
3.60519e-08
-1.49172e-08
2.37092e-08
-1.02313e-08
2.76794e-08
-6.59121e-09
1.97015e-08
-1.61009e-09
1.98038e-08
5.15973e-09
1.72104e-08
1.34762e-08
2.20906e-08
2.13875e-08
2.80515e-08
1.99876e-08
3.36109e-08
2.20047e-08
3.68098e-08
-3.23642e-08
9.09475e-08
-7.20818e-08
7.03736e-09
)
;
    }
    procBoundary4to5
    {
        type            processor;
        value           nonuniform List<scalar> 
95
(
4.38388e-05
1.2174e-05
4.10778e-05
3.45085e-05
3.45085e-05
2.37689e-05
2.99306e-05
2.99306e-05
2.25799e-05
4.17333e-05
4.17333e-05
3.31196e-05
3.31196e-05
1.20005e-05
2.69092e-05
2.69092e-05
2.38149e-05
2.38149e-05
1.26275e-05
5.70773e-06
5.70773e-06
3.57155e-06
1.34873e-06
1.34873e-06
1.98e-06
1.39298e-06
1.39298e-06
3.99095e-06
3.09403e-06
1.18127e-05
1.18127e-05
1.23219e-05
1.78503e-07
7.86783e-06
7.86783e-06
3.39758e-06
2.77859e-07
5.72506e-06
5.72506e-06
5.99391e-06
-2.32355e-06
4.10702e-06
4.10702e-06
2.78408e-06
-2.45759e-07
2.32934e-06
1.04528e-08
2.41391e-06
2.41391e-06
1.4892e-06
2.64876e-06
1.79259e-06
-1.96973e-06
2.2991e-07
2.2991e-07
-2.38644e-07
-1.52289e-06
-3.32306e-07
-1.53515e-06
2.98069e-09
2.98069e-09
-7.59553e-08
-8.42682e-07
-1.57096e-07
-5.86637e-07
5.8914e-08
-4.97779e-07
4.64402e-07
4.64402e-07
2.62433e-07
-2.12216e-07
8.98511e-08
-1.99647e-07
6.95219e-08
-1.52231e-07
-3.75279e-08
-7.35255e-08
-7.35255e-08
-5.37903e-08
1.06988e-07
-5.76599e-08
6.2656e-08
-7.48253e-08
2.82192e-08
-4.4499e-08
-6.39941e-09
1.91767e-08
-4.70599e-08
-4.70599e-08
-1.17397e-08
1.41233e-08
-3.11486e-08
7.08146e-08
5.8504e-08
3.84927e-07
)
;
    }
}


// ************************************************************************* //
