/*--------------------------------*- C++ -*----------------------------------*\
| =========                 |                                                 |
| \\      /  F ield         | OpenFOAM: The Open Source CFD Toolbox           |
|  \\    /   O peration     | Version:  2506                                  |
|   \\  /    A nd           | Website:  www.openfoam.com                      |
|    \\/     M anipulation  |                                                 |
\*---------------------------------------------------------------------------*/
FoamFile
{
    version     2.0;
    format      ascii;
    arch        "LSB;label=32;scalar=64";
    class       volScalarField;
    location    "200";
    object      nut;
}
// * * * * * * * * * * * * * * * * * * * * * * * * * * * * * * * * * * * * * //

dimensions      [0 2 -1 0 0 0 0];

internalField   nonuniform List<scalar> 
1340
(
6.10082e-06
6.10105e-06
6.10107e-06
6.10097e-06
6.10114e-06
6.10103e-06
6.10084e-06
6.10071e-06
6.10083e-06
6.10097e-06
6.10081e-06
6.10059e-06
6.10043e-06
6.10027e-06
6.1001e-06
6.10052e-06
6.10061e-06
6.10042e-06
6.10021e-06
6.10006e-06
6.0999e-06
6.09972e-06
6.09961e-06
6.10027e-06
6.10026e-06
6.10002e-06
6.09981e-06
6.09967e-06
6.0995e-06
6.09934e-06
6.09923e-06
6.09913e-06
6.10016e-06
6.10004e-06
6.09974e-06
6.0995e-06
6.09933e-06
6.09916e-06
6.099e-06
6.09889e-06
6.09881e-06
6.10013e-06
6.09993e-06
6.09958e-06
6.0993e-06
6.09911e-06
6.09892e-06
6.09875e-06
6.09864e-06
6.09854e-06
6.09848e-06
6.10002e-06
6.09982e-06
6.09945e-06
6.09917e-06
6.09897e-06
6.09877e-06
6.09859e-06
6.09846e-06
6.09837e-06
6.0983e-06
6.09829e-06
6.09979e-06
6.09964e-06
6.09928e-06
6.09903e-06
6.09885e-06
6.09865e-06
6.09848e-06
6.09837e-06
6.09828e-06
6.09823e-06
6.09823e-06
6.09953e-06
6.09939e-06
6.09909e-06
6.09888e-06
6.09871e-06
6.09854e-06
6.09842e-06
6.09834e-06
6.09828e-06
6.09827e-06
6.09828e-06
6.09832e-06
6.09933e-06
6.09917e-06
6.09892e-06
6.09874e-06
6.09858e-06
6.09847e-06
6.09841e-06
6.09839e-06
6.09839e-06
6.09841e-06
6.09845e-06
6.0985e-06
6.09925e-06
6.09904e-06
6.09881e-06
6.09864e-06
6.09851e-06
6.09847e-06
6.09849e-06
6.09853e-06
6.09859e-06
6.09863e-06
6.09867e-06
6.09871e-06
6.09876e-06
6.09923e-06
6.09898e-06
6.09877e-06
6.09862e-06
6.09854e-06
6.09857e-06
6.09864e-06
6.09872e-06
6.09881e-06
6.09887e-06
6.09891e-06
6.09894e-06
6.09898e-06
6.09918e-06
6.09891e-06
6.09875e-06
6.09865e-06
6.09863e-06
6.09872e-06
6.09882e-06
6.09892e-06
6.09902e-06
6.09909e-06
6.09914e-06
6.09917e-06
6.09919e-06
6.09923e-06
6.09907e-06
6.0988e-06
6.09872e-06
6.0987e-06
6.09874e-06
6.09887e-06
6.09899e-06
6.0991e-06
6.09921e-06
6.09929e-06
6.09936e-06
6.0994e-06
6.09942e-06
6.09945e-06
6.09892e-06
6.09868e-06
6.09869e-06
6.09874e-06
6.09883e-06
6.09898e-06
6.09912e-06
6.09925e-06
6.09938e-06
6.09948e-06
6.09956e-06
6.09962e-06
6.09965e-06
6.09968e-06
6.09881e-06
6.09859e-06
6.09868e-06
6.09878e-06
6.0989e-06
6.09907e-06
6.09924e-06
6.09939e-06
6.09953e-06
6.09965e-06
6.09975e-06
6.09982e-06
6.09988e-06
6.09991e-06
6.09993e-06
6.09877e-06
6.09859e-06
6.09872e-06
6.09884e-06
6.09898e-06
6.09917e-06
6.09934e-06
6.09951e-06
6.09967e-06
6.0998e-06
6.09992e-06
6.10001e-06
6.10009e-06
6.10014e-06
6.10018e-06
6.09879e-06
6.09864e-06
6.09879e-06
6.09892e-06
6.09907e-06
6.09927e-06
6.09946e-06
6.09964e-06
6.09981e-06
6.09996e-06
6.10009e-06
6.1002e-06
6.10029e-06
6.10035e-06
6.10041e-06
6.09881e-06
6.0987e-06
6.09886e-06
6.099e-06
6.09917e-06
6.09938e-06
6.09958e-06
6.09977e-06
6.09995e-06
6.10011e-06
6.10025e-06
6.10037e-06
6.10048e-06
6.10056e-06
6.10063e-06
6.10069e-06
6.09879e-06
6.09872e-06
6.0989e-06
6.09907e-06
6.09925e-06
6.09948e-06
6.09969e-06
6.0999e-06
6.10009e-06
6.10026e-06
6.10041e-06
6.10055e-06
6.10066e-06
6.10076e-06
6.10084e-06
6.10092e-06
6.09874e-06
6.09871e-06
6.09892e-06
6.09911e-06
6.09932e-06
6.09957e-06
6.0998e-06
6.10002e-06
6.10022e-06
6.10041e-06
6.10057e-06
6.10072e-06
6.10085e-06
6.10096e-06
6.10105e-06
6.10114e-06
6.09875e-06
6.09867e-06
6.09868e-06
6.09892e-06
6.09914e-06
6.09937e-06
6.09964e-06
6.09989e-06
6.10013e-06
6.10035e-06
6.10054e-06
6.10072e-06
6.10088e-06
6.10102e-06
6.10115e-06
6.10126e-06
6.10135e-06
6.10144e-06
6.09866e-06
6.09861e-06
6.09865e-06
6.09892e-06
6.09916e-06
6.09941e-06
6.0997e-06
6.09997e-06
6.10022e-06
6.10045e-06
6.10067e-06
6.10086e-06
6.10103e-06
6.10119e-06
6.10133e-06
6.10145e-06
6.10157e-06
6.10167e-06
6.09858e-06
6.09855e-06
6.09862e-06
6.09891e-06
6.09917e-06
6.09945e-06
6.09975e-06
6.10003e-06
6.1003e-06
6.10055e-06
6.10078e-06
6.10099e-06
6.10118e-06
6.10135e-06
6.1015e-06
6.10164e-06
6.10177e-06
6.10189e-06
6.0985e-06
6.0985e-06
6.09859e-06
6.09891e-06
6.09918e-06
6.09948e-06
6.0998e-06
6.10009e-06
6.10037e-06
6.10064e-06
6.10088e-06
6.1011e-06
6.10131e-06
6.10149e-06
6.10166e-06
6.10182e-06
6.10196e-06
6.1021e-06
6.10222e-06
6.0984e-06
6.09843e-06
6.09856e-06
6.09889e-06
6.09919e-06
6.0995e-06
6.09983e-06
6.10014e-06
6.10044e-06
6.10072e-06
6.10098e-06
6.10121e-06
6.10143e-06
6.10163e-06
6.10182e-06
6.10199e-06
6.10215e-06
6.1023e-06
6.10244e-06
6.09829e-06
6.09835e-06
6.09851e-06
6.09887e-06
6.09919e-06
6.09951e-06
6.09986e-06
6.10019e-06
6.1005e-06
6.10079e-06
6.10106e-06
6.10131e-06
6.10154e-06
6.10176e-06
6.10196e-06
6.10215e-06
6.10233e-06
6.10249e-06
6.10265e-06
6.09816e-06
6.09826e-06
6.09846e-06
6.09884e-06
6.09917e-06
6.09952e-06
6.09988e-06
6.10022e-06
6.10055e-06
6.10085e-06
6.10114e-06
6.1014e-06
6.10165e-06
6.10188e-06
6.10209e-06
6.1023e-06
6.10249e-06
6.10267e-06
6.10285e-06
6.09804e-06
6.09816e-06
6.09839e-06
6.09879e-06
6.09915e-06
6.09951e-06
6.09989e-06
6.10024e-06
6.10058e-06
6.10091e-06
6.1012e-06
6.10148e-06
6.10174e-06
6.10199e-06
6.10222e-06
6.10243e-06
6.10264e-06
6.10284e-06
6.10303e-06
6.0979e-06
6.09805e-06
6.09831e-06
6.09873e-06
6.09911e-06
6.09949e-06
6.09989e-06
6.10026e-06
6.10061e-06
6.10095e-06
6.10126e-06
6.10155e-06
6.10182e-06
6.10208e-06
6.10233e-06
6.10256e-06
6.10278e-06
6.10299e-06
6.1032e-06
6.1034e-06
6.09775e-06
6.09793e-06
6.09822e-06
6.09866e-06
6.09906e-06
6.09946e-06
6.09987e-06
6.10025e-06
6.10062e-06
6.10097e-06
6.1013e-06
6.1016e-06
6.10189e-06
6.10216e-06
6.10242e-06
6.10267e-06
6.1029e-06
6.10313e-06
6.10335e-06
6.10356e-06
6.09758e-06
6.0978e-06
6.09811e-06
6.09858e-06
6.09899e-06
6.09941e-06
6.09984e-06
6.10024e-06
6.10062e-06
6.10099e-06
6.10132e-06
6.10164e-06
6.10194e-06
6.10222e-06
6.10249e-06
6.10275e-06
6.103e-06
6.10325e-06
6.10348e-06
6.10371e-06
6.09739e-06
6.09764e-06
6.09799e-06
6.09847e-06
6.0989e-06
6.09934e-06
6.09979e-06
6.1002e-06
6.1006e-06
6.10098e-06
6.10133e-06
6.10166e-06
6.10197e-06
6.10226e-06
6.10254e-06
6.10281e-06
6.10308e-06
6.10334e-06
6.10359e-06
6.10383e-06
6.09719e-06
6.09747e-06
6.09784e-06
6.09835e-06
6.0988e-06
6.09925e-06
6.09971e-06
6.10014e-06
6.10056e-06
6.10095e-06
6.10131e-06
6.10165e-06
6.10197e-06
6.10227e-06
6.10256e-06
6.10285e-06
6.10312e-06
6.1034e-06
6.10366e-06
6.10392e-06
6.09699e-06
6.09729e-06
6.09769e-06
6.09821e-06
6.09867e-06
6.09915e-06
6.09962e-06
6.10007e-06
6.10049e-06
6.10089e-06
6.10126e-06
6.10161e-06
6.10194e-06
6.10225e-06
6.10255e-06
6.10285e-06
6.10314e-06
6.10342e-06
6.1037e-06
6.10398e-06
6.10425e-06
6.09677e-06
6.0971e-06
6.09752e-06
6.09806e-06
6.09854e-06
6.09903e-06
6.09952e-06
6.09997e-06
6.1004e-06
6.1008e-06
6.10118e-06
6.10153e-06
6.10187e-06
6.10219e-06
6.1025e-06
6.10281e-06
6.10311e-06
6.1034e-06
6.1037e-06
6.10399e-06
6.10428e-06
6.09655e-06
6.0969e-06
6.09735e-06
6.0979e-06
6.09839e-06
6.09889e-06
6.09939e-06
6.09985e-06
6.10028e-06
6.10069e-06
6.10107e-06
6.10143e-06
6.10177e-06
6.10209e-06
6.10241e-06
6.10273e-06
6.10303e-06
6.10334e-06
6.10365e-06
6.10396e-06
6.10427e-06
6.09631e-06
6.09669e-06
6.09715e-06
6.09772e-06
6.09823e-06
6.09874e-06
6.09924e-06
6.0997e-06
6.10014e-06
6.10055e-06
6.10092e-06
6.10128e-06
6.10162e-06
6.10195e-06
6.10228e-06
6.1026e-06
6.10291e-06
6.10323e-06
6.10355e-06
6.10387e-06
6.1042e-06
6.09604e-06
6.09644e-06
6.09693e-06
6.09752e-06
6.09804e-06
6.09856e-06
6.09907e-06
6.09953e-06
6.09996e-06
6.10037e-06
6.10074e-06
6.1011e-06
6.10144e-06
6.10177e-06
6.10209e-06
6.10242e-06
6.10274e-06
6.10307e-06
6.1034e-06
6.10373e-06
6.10407e-06
6.09574e-06
6.09617e-06
6.09669e-06
6.09729e-06
6.09782e-06
6.09835e-06
6.09886e-06
6.09931e-06
6.09974e-06
6.10014e-06
6.10051e-06
6.10086e-06
6.1012e-06
6.10152e-06
6.10185e-06
6.10218e-06
6.1025e-06
6.10284e-06
6.10318e-06
6.10353e-06
6.10388e-06
6.10423e-06
6.09541e-06
6.09587e-06
6.09641e-06
6.09703e-06
6.09757e-06
6.0981e-06
6.09861e-06
6.09906e-06
6.09948e-06
6.09986e-06
6.10022e-06
6.10057e-06
6.1009e-06
6.10122e-06
6.10155e-06
6.10187e-06
6.1022e-06
6.10254e-06
6.10289e-06
6.10325e-06
6.10362e-06
6.10399e-06
6.09507e-06
6.09555e-06
6.09611e-06
6.09674e-06
6.09729e-06
6.09782e-06
6.09831e-06
6.09875e-06
6.09916e-06
6.09953e-06
6.09988e-06
6.10021e-06
6.10054e-06
6.10085e-06
6.10117e-06
6.1015e-06
6.10183e-06
6.10217e-06
6.10253e-06
6.1029e-06
6.10327e-06
6.10366e-06
6.09471e-06
6.09521e-06
6.09579e-06
6.09642e-06
6.09697e-06
6.09749e-06
6.09798e-06
6.0984e-06
6.09879e-06
6.09914e-06
6.09948e-06
6.09979e-06
6.1001e-06
6.10041e-06
6.10072e-06
6.10104e-06
6.10137e-06
6.10172e-06
6.10208e-06
6.10246e-06
6.10284e-06
6.10324e-06
6.09433e-06
6.09485e-06
6.09544e-06
6.09608e-06
6.09663e-06
6.09713e-06
6.09759e-06
6.09799e-06
6.09836e-06
6.09869e-06
6.099e-06
6.0993e-06
6.09959e-06
6.09989e-06
6.10019e-06
6.1005e-06
6.10083e-06
6.10117e-06
6.10154e-06
6.10192e-06
6.10232e-06
6.10273e-06
6.09393e-06
6.09446e-06
6.09507e-06
6.0957e-06
6.09624e-06
6.09673e-06
6.09716e-06
6.09753e-06
6.09787e-06
6.09817e-06
6.09845e-06
6.09873e-06
6.099e-06
6.09928e-06
6.09957e-06
6.09987e-06
6.10019e-06
6.10054e-06
6.1009e-06
6.10129e-06
6.1017e-06
6.10212e-06
6.09349e-06
6.09404e-06
6.09466e-06
6.09529e-06
6.09581e-06
6.09627e-06
6.09667e-06
6.09701e-06
6.09731e-06
6.09758e-06
6.09783e-06
6.09808e-06
6.09832e-06
6.09858e-06
6.09885e-06
6.09914e-06
6.09946e-06
6.0998e-06
6.10016e-06
6.10056e-06
6.10097e-06
6.10141e-06
6.09301e-06
6.09358e-06
6.09421e-06
6.09483e-06
6.09533e-06
6.09576e-06
6.09612e-06
6.09642e-06
6.09668e-06
6.09691e-06
6.09712e-06
6.09733e-06
6.09755e-06
6.09779e-06
6.09804e-06
6.09832e-06
6.09862e-06
6.09896e-06
6.09932e-06
6.09972e-06
6.10014e-06
6.10059e-06
6.10105e-06
6.0925e-06
6.09309e-06
6.09371e-06
6.09432e-06
6.09479e-06
6.09519e-06
6.09551e-06
6.09576e-06
6.09596e-06
6.09615e-06
6.09632e-06
6.0965e-06
6.09669e-06
6.0969e-06
6.09713e-06
6.09739e-06
6.09768e-06
6.09801e-06
6.09838e-06
6.09878e-06
6.09921e-06
6.09966e-06
6.10013e-06
6.09196e-06
6.09255e-06
6.09318e-06
6.09377e-06
6.0942e-06
6.09455e-06
6.09482e-06
6.09501e-06
6.09517e-06
6.0953e-06
6.09543e-06
6.09557e-06
6.09572e-06
6.0959e-06
6.09611e-06
6.09635e-06
6.09663e-06
6.09695e-06
6.09731e-06
6.09771e-06
6.09814e-06
6.09861e-06
6.09908e-06
6.09138e-06
6.09198e-06
6.0926e-06
6.09316e-06
6.09355e-06
6.09385e-06
6.09405e-06
6.09419e-06
6.09429e-06
6.09437e-06
6.09445e-06
6.09454e-06
6.09466e-06
6.0948e-06
6.09498e-06
6.0952e-06
6.09546e-06
6.09575e-06
6.09609e-06
6.09647e-06
6.09689e-06
6.09735e-06
6.09783e-06
6.09076e-06
6.09137e-06
6.09197e-06
6.09249e-06
6.09284e-06
6.09307e-06
6.09321e-06
6.09328e-06
6.09332e-06
6.09334e-06
6.09336e-06
6.09341e-06
6.09348e-06
6.09359e-06
6.09373e-06
6.0939e-06
6.0941e-06
6.09435e-06
6.09464e-06
6.09498e-06
6.09538e-06
6.09581e-06
6.09629e-06
6.0901e-06
6.09071e-06
6.09129e-06
6.09176e-06
6.09206e-06
6.09223e-06
6.09229e-06
6.09229e-06
6.09226e-06
6.09221e-06
6.09218e-06
6.09217e-06
6.09219e-06
6.09223e-06
6.0923e-06
6.09239e-06
6.09251e-06
6.09268e-06
6.0929e-06
6.09318e-06
6.09353e-06
6.09394e-06
6.0944e-06
6.0894e-06
6.09e-06
6.09055e-06
6.09097e-06
6.09121e-06
6.0913e-06
6.09129e-06
6.09121e-06
6.0911e-06
6.09098e-06
6.09088e-06
6.09081e-06
6.09075e-06
6.09069e-06
6.09064e-06
6.09062e-06
6.09065e-06
6.09073e-06
6.09089e-06
6.09112e-06
6.09142e-06
6.09179e-06
6.09222e-06
6.08864e-06
6.08923e-06
6.08975e-06
6.09012e-06
6.09028e-06
6.09029e-06
6.0902e-06
6.09005e-06
6.08985e-06
6.08965e-06
6.08948e-06
6.08931e-06
6.08911e-06
6.08892e-06
6.08875e-06
6.08863e-06
6.08858e-06
6.08861e-06
6.08871e-06
6.0889e-06
6.08917e-06
6.08951e-06
6.08991e-06
6.08784e-06
6.08841e-06
6.08889e-06
6.08919e-06
6.08928e-06
6.0892e-06
6.08903e-06
6.08879e-06
6.08849e-06
6.08823e-06
6.08795e-06
6.08762e-06
6.08728e-06
6.08697e-06
6.08671e-06
6.08653e-06
6.08643e-06
6.08642e-06
6.08649e-06
6.08664e-06
6.08688e-06
6.0872e-06
6.08757e-06
6.08797e-06
6.08697e-06
6.08752e-06
6.08795e-06
6.08818e-06
6.0882e-06
6.08802e-06
6.08778e-06
6.08743e-06
6.08704e-06
6.08669e-06
6.08625e-06
6.08577e-06
6.08531e-06
6.08492e-06
6.08461e-06
6.08438e-06
6.08424e-06
6.08419e-06
6.08422e-06
6.08434e-06
6.08454e-06
6.08483e-06
6.08517e-06
6.08556e-06
6.08604e-06
6.08657e-06
6.08694e-06
6.08709e-06
6.08703e-06
6.08677e-06
6.08645e-06
6.08597e-06
6.08553e-06
6.08504e-06
6.08442e-06
6.08381e-06
6.08328e-06
6.08283e-06
6.08246e-06
6.08217e-06
6.08197e-06
6.08185e-06
6.08182e-06
6.08188e-06
6.08204e-06
6.08229e-06
6.08261e-06
6.08298e-06
6.0852e-06
6.0857e-06
6.086e-06
6.08608e-06
6.08592e-06
6.08554e-06
6.0851e-06
6.08444e-06
6.0839e-06
6.08306e-06
6.08232e-06
6.08169e-06
6.08115e-06
6.0807e-06
6.08031e-06
6.07999e-06
6.07974e-06
6.07958e-06
6.07951e-06
6.07953e-06
6.07965e-06
6.07986e-06
6.08015e-06
6.0805e-06
6.08447e-06
6.08493e-06
6.08517e-06
6.08515e-06
6.08488e-06
6.08436e-06
6.08376e-06
6.08286e-06
6.08213e-06
6.08074e-06
6.07988e-06
6.0793e-06
6.07882e-06
6.07842e-06
6.07808e-06
6.07779e-06
6.07757e-06
6.07743e-06
6.07736e-06
6.07738e-06
6.07749e-06
6.07767e-06
6.07793e-06
6.07824e-06
6.08367e-06
6.08409e-06
6.08426e-06
6.08415e-06
6.08376e-06
6.08309e-06
6.0823e-06
6.08117e-06
6.0802e-06
6.07825e-06
6.0773e-06
6.07677e-06
6.07637e-06
6.07604e-06
6.07576e-06
6.07553e-06
6.07536e-06
6.07524e-06
6.07519e-06
6.07522e-06
6.07531e-06
6.07548e-06
6.07571e-06
6.07599e-06
6.08278e-06
6.08315e-06
6.08325e-06
6.08303e-06
6.08251e-06
6.0817e-06
6.08072e-06
6.07937e-06
6.0781e-06
6.07571e-06
6.07473e-06
6.07429e-06
6.07399e-06
6.07375e-06
6.07353e-06
6.07335e-06
6.07321e-06
6.07312e-06
6.07308e-06
6.0731e-06
6.07317e-06
6.07331e-06
6.0735e-06
6.07373e-06
6.08179e-06
6.08211e-06
6.08212e-06
6.0818e-06
6.08117e-06
6.08022e-06
6.07905e-06
6.07748e-06
6.07587e-06
6.07333e-06
6.07242e-06
6.07208e-06
6.07187e-06
6.07171e-06
6.07157e-06
6.07144e-06
6.07134e-06
6.07128e-06
6.07125e-06
6.07126e-06
6.0713e-06
6.07139e-06
6.07151e-06
6.07166e-06
6.08069e-06
6.08096e-06
6.08088e-06
6.08046e-06
6.07971e-06
6.07864e-06
6.07728e-06
6.07553e-06
6.0736e-06
6.07141e-06
6.0707e-06
6.07049e-06
6.07039e-06
6.07035e-06
6.07033e-06
6.07032e-06
6.07033e-06
6.07037e-06
6.07041e-06
6.07045e-06
6.07047e-06
6.0705e-06
6.07052e-06
6.07054e-06
6.07947e-06
6.07968e-06
6.07952e-06
6.07901e-06
6.07816e-06
6.07698e-06
6.07547e-06
6.07357e-06
6.07146e-06
6.07027e-06
6.06997e-06
6.07006e-06
6.07025e-06
6.07048e-06
6.07074e-06
6.071e-06
6.07126e-06
6.07149e-06
6.07169e-06
6.07186e-06
6.07198e-06
6.07204e-06
6.07206e-06
6.07203e-06
6.07812e-06
6.07826e-06
6.07803e-06
6.07744e-06
6.07652e-06
6.07527e-06
6.07365e-06
6.07169e-06
6.06971e-06
6.06994e-06
6.07033e-06
6.07082e-06
6.07135e-06
6.07184e-06
6.07232e-06
6.07276e-06
6.07316e-06
6.07353e-06
6.07385e-06
6.07411e-06
6.07433e-06
6.07448e-06
6.07457e-06
6.07462e-06
6.07463e-06
6.07662e-06
6.0767e-06
6.07641e-06
6.07577e-06
6.07483e-06
6.07356e-06
6.07189e-06
6.07002e-06
6.06864e-06
6.07017e-06
6.07116e-06
6.07198e-06
6.07279e-06
6.07351e-06
6.07417e-06
6.07477e-06
6.07532e-06
6.07581e-06
6.07625e-06
6.07663e-06
6.07695e-06
6.07721e-06
6.07741e-06
6.07754e-06
6.07763e-06
6.07495e-06
6.07498e-06
6.07466e-06
6.07402e-06
6.0731e-06
6.07189e-06
6.07029e-06
6.06877e-06
6.0684e-06
6.07062e-06
6.07199e-06
6.0731e-06
6.07419e-06
6.07514e-06
6.07599e-06
6.07676e-06
6.07745e-06
6.07807e-06
6.07863e-06
6.07912e-06
6.07955e-06
6.07992e-06
6.08022e-06
6.08048e-06
6.08068e-06
6.07311e-06
6.07309e-06
6.07279e-06
6.07221e-06
6.0714e-06
6.07036e-06
6.06896e-06
6.06811e-06
6.06877e-06
6.0707e-06
6.07215e-06
6.07352e-06
6.07494e-06
6.07618e-06
6.0773e-06
6.07832e-06
6.07925e-06
6.08012e-06
6.08092e-06
6.08166e-06
6.08232e-06
6.0829e-06
6.08338e-06
6.08377e-06
6.08406e-06
6.07107e-06
6.07104e-06
6.0708e-06
6.07037e-06
6.06978e-06
6.06903e-06
6.06805e-06
6.06804e-06
6.06891e-06
6.06994e-06
6.07127e-06
6.07285e-06
6.07451e-06
6.07595e-06
6.07718e-06
6.07826e-06
6.07923e-06
6.08011e-06
6.08094e-06
6.08175e-06
6.08256e-06
6.08339e-06
6.08422e-06
6.08504e-06
6.08584e-06
6.06881e-06
6.06879e-06
6.06869e-06
6.06852e-06
6.06828e-06
6.06799e-06
6.06764e-06
6.06787e-06
6.06829e-06
6.06844e-06
6.06982e-06
6.072e-06
6.07469e-06
6.07734e-06
6.0799e-06
6.08235e-06
6.08468e-06
6.08688e-06
6.08892e-06
6.09081e-06
6.09252e-06
6.09405e-06
6.09538e-06
6.09646e-06
6.09735e-06
)
;

boundaryField
{
    inlet
    {
        type            freestream;
        freestreamValue uniform 1e-05;
        value           nonuniform List<scalar> 
25
(
1e-05
1e-05
1e-05
1e-05
1e-05
1e-05
1e-05
1e-05
1e-05
1e-05
6.06982e-06
6.072e-06
6.07469e-06
6.07734e-06
6.0799e-06
6.08235e-06
6.08468e-06
6.08688e-06
6.08892e-06
6.09081e-06
6.09252e-06
6.09405e-06
6.09538e-06
6.09646e-06
6.09735e-06
)
;
    }
    outlet
    {
        type            freestream;
        freestreamValue nonuniform List<scalar> 0();
        value           nonuniform List<scalar> 0();
    }
    walls
    {
        type            nutUSpaldingWallFunction;
        value           nonuniform List<scalar> 0();
    }
    frontAndBack
    {
        type            empty;
    }
    procBoundary4to0
    {
        type            processor;
        value           nonuniform List<scalar> 
72
(
6.10094e-06
6.10098e-06
6.10082e-06
6.10065e-06
6.1006e-06
6.10062e-06
6.10059e-06
6.1004e-06
6.10012e-06
6.09986e-06
6.09972e-06
6.09965e-06
6.09959e-06
6.09947e-06
6.09931e-06
6.09918e-06
6.0991e-06
6.09908e-06
6.09907e-06
6.09903e-06
6.09895e-06
6.09885e-06
6.09885e-06
6.09879e-06
6.09869e-06
6.09858e-06
6.09846e-06
6.09833e-06
6.09818e-06
6.09803e-06
6.09788e-06
6.09772e-06
6.09753e-06
6.09733e-06
6.09711e-06
6.09689e-06
6.09666e-06
6.09643e-06
6.09618e-06
6.09591e-06
6.0956e-06
6.09527e-06
6.09493e-06
6.09457e-06
6.09419e-06
6.09379e-06
6.09337e-06
6.09291e-06
6.09241e-06
6.09189e-06
6.09133e-06
6.09074e-06
6.09012e-06
6.08945e-06
6.08874e-06
6.08799e-06
6.08719e-06
6.08633e-06
6.08542e-06
6.08459e-06
6.08388e-06
6.0831e-06
6.08223e-06
6.08127e-06
6.0802e-06
6.07903e-06
6.07773e-06
6.07628e-06
6.07469e-06
6.07292e-06
6.07096e-06
6.06878e-06
)
;
    }
    procBoundary4to5
    {
        type            processor;
        value           nonuniform List<scalar> 
95
(
6.10055e-06
6.10084e-06
6.10093e-06
6.10087e-06
6.10087e-06
6.10083e-06
6.1005e-06
6.1005e-06
6.10033e-06
6.09995e-06
6.09995e-06
6.09949e-06
6.09949e-06
6.09907e-06
6.09874e-06
6.09874e-06
6.09845e-06
6.09845e-06
6.09828e-06
6.09822e-06
6.09822e-06
6.09834e-06
6.09853e-06
6.09853e-06
6.0988e-06
6.099e-06
6.099e-06
6.09924e-06
6.09944e-06
6.09967e-06
6.09967e-06
6.09992e-06
6.10018e-06
6.10043e-06
6.10043e-06
6.1007e-06
6.10095e-06
6.1012e-06
6.1012e-06
6.10149e-06
6.10174e-06
6.10198e-06
6.10198e-06
6.10232e-06
6.10256e-06
6.10278e-06
6.103e-06
6.1032e-06
6.1032e-06
6.10357e-06
6.10376e-06
6.10393e-06
6.10406e-06
6.10417e-06
6.10417e-06
6.10451e-06
6.10456e-06
6.10456e-06
6.10451e-06
6.1044e-06
6.1044e-06
6.10458e-06
6.10435e-06
6.10404e-06
6.10364e-06
6.10315e-06
6.10255e-06
6.10185e-06
6.10185e-06
6.10149e-06
6.10059e-06
6.09956e-06
6.09832e-06
6.09677e-06
6.09487e-06
6.09267e-06
6.09034e-06
6.09034e-06
6.0884e-06
6.08596e-06
6.08338e-06
6.08087e-06
6.07858e-06
6.07629e-06
6.07398e-06
6.07182e-06
6.07057e-06
6.07198e-06
6.07198e-06
6.07459e-06
6.07766e-06
6.08085e-06
6.08425e-06
6.08667e-06
6.09803e-06
)
;
    }
}


// ************************************************************************* //
