/*--------------------------------*- C++ -*----------------------------------*\
| =========                 |                                                 |
| \\      /  F ield         | OpenFOAM: The Open Source CFD Toolbox           |
|  \\    /   O peration     | Version:  2506                                  |
|   \\  /    A nd           | Website:  www.openfoam.com                      |
|    \\/     M anipulation  |                                                 |
\*---------------------------------------------------------------------------*/
FoamFile
{
    version     2.0;
    format      ascii;
    arch        "LSB;label=32;scalar=64";
    class       surfaceScalarField;
    location    "200";
    object      phi;
}
// * * * * * * * * * * * * * * * * * * * * * * * * * * * * * * * * * * * * * //

dimensions      [0 3 -1 0 0 0 0];

oriented        oriented;

internalField   nonuniform List<scalar> 
2584
(
0.248675
-0.24997
0.28332
-0.272677
-0.243441
0.252557
-0.281979
0.289133
-0.309254
0.320938
-0.275245
0.352015
-0.267883
-0.256403
0.257155
-0.315749
0.295772
-0.347871
0.329183
-0.308655
0.361875
-0.300575
0.393751
-0.288279
0.422294
-0.258583
-0.236148
0.262255
-0.351382
0.303034
-0.38865
0.3383
-0.343922
0.372748
-0.335022
0.406268
-0.3218
0.436235
-0.288549
0.463802
-0.263715
-0.23714
0.267931
-0.388982
0.311011
-0.431731
0.348171
-0.381081
0.384405
-0.371256
0.419688
-0.357083
0.451206
-0.320067
0.480092
-0.292601
0.506403
-0.26345
-0.232381
0.274133
-0.428609
0.319629
-0.477227
0.358748
-0.4202
0.396918
-0.409426
0.434159
-0.394324
0.46721
-0.353117
0.497546
-0.322936
0.525219
-0.291124
-0.256892
0.280855
-0.470368
0.328869
-0.525241
0.370059
-0.46139
0.410351
-0.449718
0.449551
-0.433524
0.484312
-0.387878
0.516211
-0.354835
0.545186
-0.320099
0.5708
-0.282506
-0.250968
0.288047
-0.514459
0.338746
-0.57594
0.382174
-0.504818
0.42463
-0.492174
0.46587
-0.474764
0.502491
-0.4245
0.536006
-0.38835
0.566368
-0.350461
0.593221
-0.309359
0.617456
-0.275203
-0.241605
0.29585
-0.560993
0.349241
-0.629331
0.395136
-0.550713
0.439766
-0.536805
0.483279
-0.518277
0.521754
-0.462975
0.556989
-0.423585
0.588898
-0.38237
0.617064
-0.337525
0.642289
-0.300428
-0.264232
0.304042
-0.610002
0.360501
-0.68579
0.408713
-0.598924
0.455866
-0.583958
0.50165
-0.564061
0.542236
-0.503561
0.579207
-0.460556
0.612703
-0.415866
0.642206
-0.367028
0.668714
-0.326936
0.692276
-0.287794
-0.250705
0.312811
-0.661686
0.372326
-0.745305
0.423261
-0.64986
0.472862
-0.63356
0.521178
-0.612377
0.563786
-0.546169
0.602713
-0.499483
0.637911
-0.451063
0.668901
-0.398019
0.69659
-0.354624
0.721306
-0.31251
-0.272581
0.322154
-0.716224
0.384937
-0.808088
0.438568
-0.703491
0.490893
-0.685884
0.541726
-0.66321
0.586634
-0.591076
0.627572
-0.540421
0.664561
-0.488051
0.696977
-0.430435
0.726049
-0.383696
0.751828
-0.33829
0.774679
-0.295431
-0.2564
0.332
-0.773706
0.398235
-0.874324
0.454791
-0.760046
0.509893
-0.740986
0.563483
-0.7168
0.610723
-0.638316
0.653849
-0.583547
0.69268
-0.526882
0.726789
-0.464544
0.757189
-0.414096
0.784204
-0.365305
0.808072
-0.3193
-0.277549
0.342469
-0.834367
0.412298
-0.944153
0.471835
-0.819583
0.530015
-0.799166
0.586425
-0.77321
0.636185
-0.688076
0.681462
-0.628824
0.722391
-0.567811
0.758139
-0.500292
0.790061
-0.446018
0.818312
-0.393556
0.843243
-0.344231
0.865375
-0.299681
-0.255899
0.353474
-0.898292
0.427128
-1.01781
0.489943
-0.882398
0.551155
-0.860379
0.610617
-0.832672
0.663012
-0.740471
0.710742
-0.676554
0.753638
-0.610707
0.791205
-0.537859
0.824656
-0.47947
0.854308
-0.423208
0.88039
-0.370313
0.903506
-0.322797
-0.276195
0.365129
-0.965671
0.442787
-1.09547
0.509009
-0.94862
0.57351
-0.92488
0.636187
-0.895349
0.691353
-0.795637
0.741509
-0.72671
0.786685
-0.655882
0.826144
-0.577319
0.861262
-0.514587
0.892274
-0.45422
0.919503
-0.397542
0.943656
-0.34695
-0.297349
0.377375
-1.03669
0.459261
-1.17735
0.529046
-1.01841
0.59704
-0.992873
0.663057
-0.961366
0.721161
-0.853741
0.773969
-0.779519
0.821482
-0.703395
0.862904
-0.618741
0.899778
-0.551461
0.932311
-0.486753
0.960849
-0.42608
0.986082
-0.372183
1.00814
-0.319411
-0.26913
0.39037
-1.11164
0.476693
-1.26367
0.550258
-1.09197
0.621908
-1.06452
0.691446
-1.0309
0.752619
-0.914914
0.808197
-0.835097
0.858194
-0.753392
0.901733
-0.66228
0.940407
-0.590135
0.974459
-0.520805
1.00442
-0.456038
1.03059
-0.398351
1.05384
-0.342663
-0.289153
0.403967
-1.19056
0.495041
-1.35475
0.57253
-1.16946
0.64804
-1.14003
0.721334
-1.1042
0.785692
-0.979272
0.84424
-0.893645
0.896788
-0.80594
0.942566
-0.708059
0.983125
-0.630694
1.01901
-0.556686
1.05007
-0.487105
1.07786
-0.426132
1.10177
-0.366574
-0.310108
0.41838
-1.27382
0.51435
-1.45072
0.596021
-1.25113
0.675579
-1.21959
0.752796
-1.18141
0.820633
-1.04711
0.882229
-0.95524
0.937507
-0.861218
0.985741
-0.756293
1.02838
-0.673336
1.06575
-0.594053
1.0987
-0.52006
1.12735
-0.454781
1.15255
-0.391767
1.17426
-0.331823
-0.272603
0.433531
-1.36158
0.534685
-1.55187
0.6208
-1.33725
0.704652
-1.30344
0.785974
-1.26274
0.857432
-1.11857
0.922278
-1.02009
0.98045
-0.91939
1.03091
-0.806757
1.07586
-0.718277
1.11521
-0.633406
1.14952
-0.554374
1.17973
-0.484989
1.20596
-0.417999
1.2287
-0.354563
-0.292141
0.449454
-1.45408
0.556128
-1.65854
0.646853
-1.42797
0.735204
-1.3918
0.820916
-1.34845
0.896155
-1.19381
0.964411
-1.08834
1.0256
-0.980578
1.07891
-0.860063
1.12589
-0.765265
1.16727
-0.674782
1.20328
-0.590381
1.23487
-0.516586
1.26234
-0.445461
1.28593
-0.378155
-0.312373
0.368728
-1.53624
0.466265
-1.55162
0.578702
-1.77098
0.674316
-1.52358
0.767422
-1.4849
0.857721
-1.43875
0.936942
-1.27303
1.00881
-1.16021
1.0733
-1.04507
1.12918
-0.915947
1.17874
-0.814822
1.22201
-0.718056
1.25979
-0.628157
1.29286
-0.549655
1.32156
-0.474162
1.34641
-0.403008
1.36738
-0.333339
-0.264866
0.381152
-1.63827
0.483963
-1.65443
0.602463
-1.88948
0.703256
-1.62438
0.801375
-1.58302
0.896512
-1.53388
0.979998
-1.35651
1.05567
-1.23588
1.12341
-1.11281
1.18223
-0.974763
1.2343
-0.86689
1.27986
-0.76362
1.31946
-0.667752
1.35415
-0.584349
1.38407
-0.50408
1.40998
-0.428918
1.43188
-0.355241
-0.283145
0.394206
-1.74583
0.502588
-1.76281
0.627529
-2.01442
0.733744
-1.73059
0.837115
-1.68639
0.937372
-1.63414
1.02526
-1.4444
1.10498
-1.31561
1.17629
-1.18411
1.23829
-1.03676
1.29284
-0.921447
1.34064
-0.811413
1.38223
-0.709349
1.4186
-0.620718
1.45007
-0.535551
1.47691
-0.455751
1.49984
-0.37817
-0.302244
0.407935
-1.85919
0.522197
-1.87708
0.653883
-2.14611
0.765842
-1.84255
0.874779
-1.79533
0.98038
-1.73974
1.07301
-1.53703
1.15678
-1.39938
1.23203
-1.25936
1.29705
-1.10178
1.35462
-0.979016
1.40486
-0.861658
1.44852
-0.753
1.48646
-0.658663
1.51935
-0.568442
1.54774
-0.484136
1.57159
-0.402018
1.59128
-0.321935
-0.242096
0.422407
-1.97874
0.542829
-1.9975
0.681676
-2.28495
0.799668
-1.96054
0.914477
-1.91014
1.02573
-1.851
1.12317
-1.63447
1.2116
-1.48781
1.29078
-1.33853
1.35924
-1.17024
1.41952
-1.0393
1.4725
-0.914637
1.51832
-0.798821
1.55829
-0.69863
1.59269
-0.602844
1.62218
-0.513625
1.64715
-0.42699
1.66773
-0.342513
-0.258561
0.43761
-2.10477
0.564564
-2.12445
0.710892
-2.43128
0.835265
-2.08492
0.956233
-2.03111
1.07347
-1.96823
1.17626
-1.73726
1.26939
-1.58094
1.3525
-1.42164
1.42464
-1.24239
1.48824
-1.1029
1.5437
-0.970099
1.5917
-0.84682
1.63366
-0.740593
1.66969
-0.638873
1.70065
-0.54459
1.72658
-0.452919
1.74814
-0.36407
-0.27557
0.453638
-2.23762
0.58746
-2.25827
0.741761
-2.58558
0.872809
-2.21596
1.00031
-2.1586
1.12389
-2.09181
1.23214
-1.84551
1.33004
-1.67884
1.41766
-1.50926
1.49357
-1.3183
1.56046
-1.16978
1.61871
-1.02836
1.66933
-0.897436
1.71313
-0.784396
1.75116
-0.676897
1.7833
-0.57673
1.81056
-0.480183
1.83288
-0.386388
-0.293466
0.470473
-2.37767
0.611591
-2.39939
0.774196
-2.74819
0.912325
-2.35409
1.04673
-2.29301
1.17686
-2.22194
1.29093
-1.95958
1.39405
-1.78196
1.4864
-1.60161
1.56623
-1.39813
1.63652
-1.24007
1.6979
-1.08974
1.75081
-0.950345
1.79712
-0.830708
1.83664
-0.716423
1.8705
-0.610586
1.89891
-0.508592
1.92228
-0.409757
-0.311957
0.488223
-2.52534
0.63695
-2.54812
0.808393
-2.91963
0.953983
-2.49968
1.09555
-2.43457
1.2328
-2.35919
1.35278
-2.07956
1.46155
-1.89074
1.55865
-1.6987
1.64267
-1.48216
1.71668
-1.31408
1.78125
-1.1543
1.83703
-1.00613
1.88533
-0.879009
1.92706
-0.75815
1.96253
-0.646056
1.99218
-0.538243
2.01644
-0.434016
2.03567
-0.33119
-0.230806
0.506886
-2.68101
0.663703
-2.70494
0.844434
-3.10036
0.997883
-2.65313
1.14716
-2.58385
1.29164
-2.50367
1.41827
-2.20619
1.53275
-2.00522
1.63503
-1.80098
1.72348
-1.57061
1.80131
-1.39191
1.86909
-1.22207
1.92775
-1.0648
1.9786
-0.929858
2.02218
-0.801729
2.05941
-0.683285
2.09054
-0.569371
2.11587
-0.459352
2.13597
-0.351287
-0.245537
0.526573
-2.84517
0.691877
-2.87024
0.882387
-3.29087
1.04415
-2.8149
1.20146
-2.74115
1.35375
-2.65597
1.48703
-2.33946
1.60764
-2.12583
1.71542
-1.90876
1.80847
-1.66366
1.89039
-1.47383
1.96177
-1.29345
2.02335
-1.12638
2.07678
-0.983291
2.12258
-0.847528
2.1615
-0.722202
2.19397
-0.601838
2.22059
-0.485976
2.24135
-0.372041
-0.261132
0.54726
-3.01821
0.721567
-3.04455
0.922385
-3.49169
1.09292
-2.98543
1.25861
-2.90684
1.41919
-2.81656
1.55969
-2.47996
1.68676
-2.2529
1.8001
-2.0221
1.89824
-1.7618
1.98436
-1.55995
2.05939
-1.36849
2.12415
-1.19114
2.18031
-1.03945
2.22842
-0.895639
2.26912
-0.762901
2.3032
-0.635923
2.33089
-0.513663
2.35266
-0.393809
-0.277386
0.569066
-3.20068
0.752813
-3.22829
0.964547
-3.70342
1.14422
-3.1651
1.31902
-3.08165
1.48817
-2.9857
1.63611
-2.6279
1.76989
-2.38668
1.88954
-2.14176
1.99266
-1.86491
2.08344
-1.65073
2.16226
-1.4473
2.23048
-1.25936
2.28941
-1.09838
2.33992
-0.946154
2.38278
-0.805753
2.41851
-0.671655
2.44738
-0.542534
2.47016
-0.416594
-0.293959
0.59202
-3.39306
0.785747
-3.42202
1.00899
-3.92667
1.1985
-3.35461
1.38264
-3.26579
1.56078
-3.16384
1.7169
-2.78403
1.85775
-2.52753
1.98356
-2.26756
2.0923
-1.97365
2.18775
-1.74618
2.27089
-1.53044
2.34249
-1.33097
2.40453
-1.16041
2.45751
-0.999142
2.50231
-0.850554
2.53974
-0.709083
2.57024
-0.573031
2.59382
-0.440175
2.61123
-0.31137
-0.18671
0.616222
-3.59591
0.820484
-3.62628
1.05578
-4.16197
1.25545
-3.55427
1.4496
-3.45994
1.63748
-3.35172
1.80173
-2.94828
1.95028
-2.67609
2.08296
-2.40024
2.19739
-2.08808
2.29798
-1.84677
2.38537
-1.61783
2.46055
-1.40615
2.52569
-1.22555
2.58149
-1.05494
2.62872
-0.897786
2.66783
-0.748189
2.69957
-0.604771
2.72432
-0.464927
2.74242
-0.329464
-0.198549
0.641701
-3.80981
0.857038
-3.84162
1.10515
-4.41008
1.31572
-3.76484
1.5202
-3.66442
1.71831
-3.54983
1.89143
-3.1214
2.04801
-2.83267
2.18746
-2.5397
2.30804
-2.20866
2.4139
-1.95263
2.50582
-1.70975
2.58509
-1.48542
2.65366
-1.29412
2.7121
-1.11338
2.76161
-0.947292
2.80283
-0.789413
2.83607
-0.638013
2.86178
-0.490633
2.88075
-0.348439
-0.210919
0.668531
-4.03533
0.895598
-4.06869
1.15718
-4.67166
1.37907
-3.98673
1.59479
-3.88013
1.80343
-3.75847
1.986
-3.30397
2.15082
-2.99748
2.29795
-2.68683
2.42476
-2.33546
2.53625
-2.06412
2.63302
-1.80652
2.71642
-1.56882
2.78859
-1.36629
2.85001
-1.1748
2.90211
-0.999397
2.94514
-0.832443
2.97996
-0.672834
3.00704
-0.51771
3.0267
-0.3681
-0.223782
0.696835
-4.27313
0.936252
-4.3081
1.21203
-4.94743
1.44597
-4.22068
1.67326
-4.10743
1.89329
-3.9785
2.08555
-3.49623
2.25928
-3.17121
2.41413
-2.84168
2.54789
-2.46923
2.66518
-2.18141
2.76729
-1.90862
2.85491
-1.65644
2.93064
-1.44203
2.9954
-1.23956
3.04988
-1.05388
3.09522
-0.877785
3.13184
-0.709446
3.16016
-0.546038
3.18048
-0.388414
-0.237067
0.726648
-4.5239
0.979087
-4.56054
1.26985
-5.2382
1.51646
-4.46728
1.75617
-4.34714
1.98798
-4.21031
2.19059
-3.69884
2.37359
-3.35421
2.53688
-3.00497
2.67777
-2.61011
2.80129
-2.30493
2.90844
-2.01578
3.00087
-1.74887
3.08062
-1.52178
3.14861
-1.30756
3.20599
-1.11126
3.25356
-0.925355
3.29189
-0.747772
3.32145
-0.575601
3.34289
-0.409854
3.3567
-0.250878
-0.104548
0.758034
-4.78832
1.02424
-4.82675
1.33073
-5.54469
1.59085
-4.7274
1.84344
-4.59973
2.08769
-4.45457
2.30128
-3.91243
2.49428
-3.5472
2.66634
-3.17703
2.81456
-2.75833
2.94473
-2.43511
3.05764
-2.12868
3.15481
-1.84604
3.23868
-1.60565
3.31025
-1.37912
3.37056
-1.17157
3.42057
-0.975367
3.46067
-0.78787
3.49167
-0.606598
3.51406
-0.432249
3.52848
-0.2653
-0.111644
0.791193
-5.06716
1.07184
-5.10739
1.39515
-5.868
1.6692
-5.00145
1.93543
-4.86596
2.19312
-4.71225
2.41812
-4.13743
2.62142
-3.7505
2.80255
-3.35816
2.9588
-2.91458
3.09585
-2.57215
3.21484
-2.24767
3.31718
-1.94837
3.40545
-1.69392
3.48068
-1.45436
3.54413
-1.23503
3.59649
-1.02772
3.63863
-0.830014
3.67125
-0.639223
3.69467
-0.455662
3.70949
-0.280125
-0.119244
0.826087
-5.36122
1.12207
-5.40337
1.46286
-6.20879
1.75184
-5.29044
2.03268
-5.14679
2.30412
-4.98369
2.54139
-4.3747
2.75541
-3.96453
2.94645
-3.54919
3.11107
-3.07921
3.2554
-2.71648
3.38068
-2.37295
3.4884
-2.0561
3.58125
-1.78677
3.6603
-1.53341
3.7271
-1.30183
3.78218
-1.0828
3.82648
-0.874317
3.86056
-0.673306
3.88506
-0.480157
3.90065
-0.295713
-0.126893
0.862894
-5.67131
1.17499
-5.71546
1.53434
-6.56815
1.83912
-5.59522
2.13501
-5.44268
2.42114
-5.26983
2.67127
-4.62482
2.89699
-4.19025
3.09812
-3.75033
3.27139
-3.25248
3.4236
-2.86868
3.55545
-2.5048
3.66883
-2.16948
3.76663
-1.88457
3.84998
-1.61676
3.92001
-1.37185
3.97797
-1.14075
4.02455
-0.920898
4.06025
-0.709005
4.08577
-0.505683
4.10219
-0.312128
-0.134795
0.901728
-5.99834
1.23082
-6.04456
1.60976
-6.94708
1.93104
-5.9165
2.24296
-5.75459
2.54456
-5.57144
2.80805
-4.88831
3.04594
-4.42814
3.25797
-3.96236
3.44073
-3.43523
3.60083
-3.02878
3.73982
-2.64379
3.8591
-2.28876
3.96211
-1.98759
4.04964
-1.70429
4.12351
-1.44572
4.18442
-1.20166
4.23331
-0.969795
4.27073
-0.746422
4.29773
-0.532688
4.31466
-0.32905
-0.143038
0.942645
-6.34322
1.28967
-6.39158
1.68923
-7.34665
2.02789
-6.25516
2.35681
-6.08351
2.67492
-5.88955
2.95265
-5.16604
3.20335
-4.67883
3.42672
-4.18573
3.61925
-3.62777
3.78797
-3.1975
3.93426
-2.79008
4.05995
-2.41445
4.16836
-2.09599
4.26054
-1.79647
4.33806
-1.52324
4.40219
-1.26579
4.45361
-1.02122
4.49302
-0.785828
4.52119
-0.560854
4.53893
-0.346799
-0.15144
0.985804
-6.70692
1.35178
-6.75756
1.77307
-7.76793
2.1302
-6.61228
2.47699
-6.43031
2.81215
-6.22471
3.1049
-5.45879
3.36912
-4.94306
3.60463
-4.42123
3.80739
-3.83054
3.98512
-3.37523
4.13917
-2.94412
4.27172
-2.547
4.38569
-2.20997
4.48284
-1.89361
4.56449
-1.60489
4.63184
-1.33314
4.68577
-1.07516
4.72727
-0.827323
4.75677
-0.590359
4.77528
-0.365308
4.7843
-0.160454
0.0136603
1.03135
-7.09051
1.41729
-7.14351
1.86161
-8.21225
2.23808
-6.98875
2.60365
-6.79588
2.95698
-6.57804
3.26563
-5.76744
3.54414
-5.22157
3.7921
-4.66918
4.00571
-4.04415
4.19303
-3.56256
4.35548
-3.10657
4.49479
-2.68632
4.61501
-2.33019
4.71711
-1.99572
4.80317
-1.69095
4.8741
-1.40406
4.93075
-1.13181
4.97426
-0.870833
5.00527
-0.621365
5.02474
-0.384776
5.03392
-0.169631
0.0126859
1.07936
-7.49505
1.48635
-7.55049
1.95472
-8.68063
2.35188
-7.38591
2.73723
-7.18123
3.10978
-6.95058
3.43507
-6.09274
3.72846
-5.51496
3.9899
-4.93062
4.2152
-4.26945
4.41234
-3.7597
4.5834
-3.27762
4.73023
-2.83315
4.85691
-2.45686
4.96441
-2.10323
5.05482
-1.78136
5.12939
-1.47863
5.18925
-1.19167
5.23488
-0.916461
5.26735
-0.653839
5.28783
-0.405252
5.2973
-0.179105
0.0117092
1.13002
-7.92168
1.5593
-7.97977
2.05328
-9.1746
2.47183
-7.80446
2.87816
-7.58756
3.27086
-7.34329
3.61372
-6.4356
3.92304
-5.82428
4.19861
-5.2062
4.43574
-4.50658
4.64383
-3.96779
4.82394
-3.45773
4.97867
-2.98788
5.11174
-2.58994
5.22508
-2.21656
5.3203
-1.87659
5.39881
-1.55713
5.46156
-1.25442
5.50954
-0.964438
5.54375
-0.688058
5.56514
-0.426634
5.57518
-0.189148
0.0109611
1.18347
-8.37165
1.63612
-8.43243
2.15708
-9.69557
2.59838
-8.24576
3.02688
-8.01606
3.4408
-7.75721
3.80224
-6.79703
4.12836
-6.1504
4.41862
-5.49646
4.66863
-4.75658
4.8876
-4.18676
5.07736
-3.64749
5.24033
-3.15085
5.38074
-2.73035
5.50005
-2.33587
5.60023
-1.97677
5.68282
-1.63972
5.74894
-1.32054
5.79941
-1.0149
5.83542
-0.724067
5.85777
-0.448991
5.86825
-0.199626
0.0101207
1.23981
-8.84623
1.71712
-8.90974
2.26652
-10.245
2.73194
-8.71119
3.18357
-8.4677
3.62003
-8.19366
4.00098
-7.17798
4.34461
-6.49403
4.65058
-5.80243
4.9141
-5.02011
5.14492
-4.41758
5.34495
-3.84753
5.51654
-3.32243
5.66435
-2.87816
5.78988
-2.4614
5.89559
-2.08248
5.98241
-1.72654
6.05203
-1.39016
6.10517
-1.06804
6.14285
-0.761748
6.16634
-0.472487
6.17733
-0.210608
0.00938324
1.29948
-9.34687
1.80276
-9.41302
2.38202
-10.8242
2.87278
-9.20194
3.34914
-8.94406
3.8091
-8.65363
4.21081
-7.57969
4.57296
-6.85617
4.8954
-6.12488
5.17306
-5.29777
5.4162
-4.66071
5.62691
-4.05824
5.80767
-3.5032
5.96337
-3.03386
6.09567
-2.5937
6.20674
-2.19355
6.29848
-1.81828
6.37152
-1.4632
6.42749
-1.124
6.46715
-0.801414
6.49194
-0.497272
6.50333
-0.221999
0.00856242
1.36206
-9.87476
1.89316
-9.94411
2.50392
-11.435
3.02146
-9.71948
3.52341
-9.446
4.00855
-9.13877
4.43188
-8.00302
4.81367
-7.23797
5.15363
-6.46483
5.44623
-5.59037
5.70243
-4.91691
5.92435
-4.28015
6.11492
-3.69376
6.27893
-3.19788
6.41827
-2.73304
6.53539
-2.31068
6.63168
-1.91457
6.70878
-1.54029
6.76767
-1.1829
6.80935
-0.843095
6.83536
-0.523278
6.84732
-0.233964
0.00786981
1.42835
-10.4316
1.98841
-10.5042
2.63259
-12.0792
3.17826
-10.2652
3.70737
-9.97512
4.21908
-9.65048
4.66521
-8.44914
5.06756
-7.64032
5.42581
-6.82308
5.73416
-5.89873
6.00408
-5.18683
6.23797
-4.51404
6.43876
-3.89455
6.61157
-3.37069
6.7585
-2.87996
6.88178
-2.43397
6.98337
-2.01616
7.06453
-1.62145
7.12576
-1.24413
7.17049
-0.887831
7.19786
-0.550652
7.20991
-0.246012
7.21129
0.00649379
0.193809
1.49839
-11.0189
2.08867
-11.0944
2.76813
-12.7586
3.34347
-10.8405
3.9018
-10.5334
4.44071
-10.1894
4.91127
-8.9197
5.3355
-8.06455
5.71315
-7.20073
6.03801
-6.2236
6.32259
-5.47141
6.56907
-4.76052
6.78072
-4.10621
6.96272
-3.55268
7.1174
-3.03464
7.24726
-2.56383
7.354
-2.1229
7.43976
-1.70721
7.50526
-1.30962
7.55122
-0.933791
7.57968
-0.579108
7.59291
-0.259247
7.59305
0.00635509
0.200247
1.57199
-11.6383
2.19516
-11.7176
2.91136
-13.4748
3.51803
-11.4472
4.10658
-11.122
4.67508
-10.7579
5.17105
-9.41567
5.61817
-8.51167
6.0163
-7.59886
6.35843
-6.56573
6.65837
-5.77135
6.91829
-5.02043
7.14111
-4.32904
7.33301
-3.74457
7.49624
-3.19788
7.63218
-2.69977
7.74514
-2.23586
7.83531
-1.79738
7.90454
-1.37885
7.95188
-0.981137
7.98187
-0.60909
7.99678
-0.274158
7.99758
0.00555594
0.209685
1.13471
-12.0886
1.61015
-12.1931
2.21103
-14.0757
2.79309
-12.0292
3.45492
-11.7838
4.22762
-11.5306
5.05914
-10.2472
5.9943
-9.44684
7.04609
-8.65064
8.62628
-8.14592
8.23685
-5.38192
7.84585
-4.62943
7.51001
-3.9932
7.21568
-3.45024
6.9595
-2.94169
6.73611
-2.47638
6.54025
-2.04
6.37022
-1.62736
6.22351
-1.23214
6.10179
-0.859413
5.99934
-0.506642
5.91733
-0.192146
5.85439
0.0685002
0.254524
1.244
-12.584
1.76659
-12.7157
2.427
-14.7361
3.06664
-12.6689
3.79366
-12.5108
4.64207
-12.379
5.55529
-11.1604
6.58158
-10.4731
7.7361
-9.80516
9.46971
-9.87953
9.04323
-4.95544
8.61491
-4.20111
8.24684
-3.62513
7.92592
-3.12933
7.64455
-2.66032
7.39918
-2.23101
7.18472
-1.82554
6.998
-1.44064
6.83901
-1.07315
6.70287
-0.72328
6.5916
-0.395372
6.50253
-0.103073
6.43421
0.136824
0.305587
1.36329
-13.1287
1.93772
-13.2901
2.66402
-15.4624
3.36661
-13.3715
4.16547
-13.3097
5.09771
-13.3112
6.10013
-12.1628
7.22685
-11.5998
8.49389
-11.0722
10.397
-11.7826
9.92879
-4.48724
9.46089
-3.73321
9.05774
-3.22198
8.70528
-2.77687
8.39769
-2.35272
8.12838
-1.96171
7.89344
-1.5906
7.68956
-1.23675
7.51396
-0.897561
7.36431
-0.573628
7.24262
-0.27368
7.14353
-0.00397896
7.06697
0.21338
0.359172
1.49413
-13.7278
2.12593
-13.9219
2.92384
-16.2603
3.69631
-14.144
4.5739
-14.1873
5.59772
-14.3351
6.69867
-13.2638
7.93607
-12.8372
9.32669
-12.4628
11.415
-13.8709
10.903
-3.97519
10.3907
-3.22094
9.94661
-2.7779
9.56033
-2.39059
9.22431
-2.0167
8.9278
-1.6652
8.67048
-1.33327
8.44627
-1.01254
8.25361
-0.704903
8.09134
-0.411361
7.95621
-0.138549
7.84811
0.10412
7.76695
0.294545
0.420749
1.63729
-14.3866
2.33235
-14.6169
3.20928
-17.1372
4.05822
-14.9929
5.02239
-15.1514
6.14711
-15.4598
7.35648
-14.4732
8.71528
-14.196
10.2427
-13.9903
12.5358
-16.164
11.9751
-3.4145
11.4108
-2.65662
10.927
-2.29413
10.5032
-1.96678
10.1314
-1.64486
9.80943
-1.34325
9.52514
-1.04899
9.28002
-0.76742
9.06844
-0.49332
8.89049
-0.233413
8.74152
0.0104223
8.62401
0.221628
8.53138
0.387171
0.48535
1.79429
-15.1112
2.55813
-15.3808
3.52273
-18.1018
4.45548
-15.9256
5.51512
-16.2111
6.75072
-16.6954
8.07959
-15.802
9.57218
-15.6886
11.2489
-15.667
13.7673
-18.6824
13.1517
-2.79892
12.534
-2.03893
12.0025
-1.7626
11.5371
-1.50141
11.131
-1.2387
10.7749
-0.987167
10.4654
-0.739537
10.1948
-0.496786
9.96245
-0.260964
9.76568
-0.0366376
9.60368
0.172417
9.47377
0.351535
9.37455
0.4864
0.558511
1.96649
-15.9081
2.80635
-16.2206
3.86637
-19.1619
4.89183
-16.9511
6.05647
-17.3757
7.41438
-18.0533
8.87425
-17.2619
10.5148
-17.3291
12.3578
-17.51
15.1255
-21.4501
14.4486
-2.12205
13.7704
-1.36078
13.1853
-1.17745
12.6745
-0.990581
12.2289
-0.793116
11.8376
-0.595911
11.4956
-0.397516
11.2
-0.201199
10.9462
-0.00711587
10.73
0.179551
10.5519
0.350488
10.4092
0.494241
10.3004
0.595151
0.639136
2.15487
-16.7846
3.07837
-17.1441
4.24423
-20.3277
5.37146
-18.0783
6.65142
-18.6557
8.14407
-19.546
9.74863
-18.8665
11.5512
-19.1317
13.5764
-19.5352
16.6205
-24.4943
15.8741
-1.37563
15.1283
-0.615001
14.4861
-0.535237
13.9242
-0.428671
13.4349
-0.303769
13.0059
-0.166907
12.6316
-0.0232063
12.3062
0.124161
12.0262
0.272869
11.7899
0.415837
11.5938
0.546639
11.4376
0.650432
11.3161
0.716683
11.2286
0.726602
0.725467
2.36141
-17.7485
3.37708
-18.1598
4.65859
-21.6092
5.8981
-19.3179
7.30534
-20.0629
8.94643
-21.1871
10.711
-20.631
12.693
-21.1137
14.9201
-21.7623
18.2667
-27.8409
17.4474
-0.556298
16.626
0.20633
15.9192
0.171575
15.3023
0.188249
14.7628
0.235766
14.2906
0.305201
13.8789
0.388492
13.5202
0.48287
13.2133
0.579774
12.9538
0.67539
12.738
0.762462
12.567
0.821395
12.4356
0.848112
12.3405
0.821682
0.796043
2.58767
-18.8085
3.70461
-19.2767
5.11403
-23.0187
6.47705
-20.6809
8.0247
-21.6106
9.82927
-22.9916
11.7697
-22.5715
13.9491
-23.2931
16.4006
-24.2138
20.0826
-31.5229
19.1791
0.34726
18.2737
1.11176
17.4949
0.950362
16.8147
0.868464
16.221
0.829429
15.703
0.82323
15.2497
0.841718
14.8563
0.876317
14.5185
0.91755
14.2317
0.962203
13.9959
0.998264
13.8056
1.01173
13.6592
0.99444
13.5528
0.928133
0.8731
2.83585
-19.9744
4.06431
-20.5052
5.61442
-24.5688
7.11342
-22.1799
8.81593
-23.3131
10.8018
-24.9775
12.9363
-24.706
15.3359
-25.6926
18.0331
-26.911
22.0858
-35.5757
21.0885
1.34465
20.0901
2.11012
19.2309
1.8096
18.4812
1.6181
17.8278
1.48285
17.2565
1.39455
16.7566
1.34163
16.325
1.30788
15.9536
1.28898
15.6414
1.27442
15.3819
1.25768
15.1764
1.21725
15.0206
1.15028
14.9068
1.04187
0.956102
3.10706
-21.2568
4.45859
-21.8567
6.16407
-26.2742
7.81353
-23.8293
9.68707
-25.1866
11.8721
-27.1625
14.2215
-27.0554
16.8626
-28.3337
19.8332
-29.8816
24.2938
-40.0363
23.1932
2.44527
22.09
3.21328
21.1424
2.75724
20.3169
2.44358
19.5966
2.20318
18.9641
2.02704
18.4158
1.88997
17.9377
1.78591
17.5289
1.69779
17.1801
1.62322
16.8933
1.54447
16.6614
1.44913
16.4817
1.33004
16.3512
1.17236
1.05199
3.40378
4.89069
6.7678
8.58394
10.6467
13.0535
15.6419
18.5498
21.8203
26.7283
25.5143
24.2946
23.2471
22.3322
21.5359
20.8412
20.2352
19.7125
19.2647
18.8904
18.5845
18.346
18.1654
18.0351
)
;

boundaryField
{
    inlet
    {
        type            calculated;
        value           nonuniform List<scalar> 
25
(
-22.6672
-23.3437
-28.1514
-25.6455
-27.2494
-29.5693
-29.6438
-31.2416
-33.1521
-44.9442
3.65928
4.433
3.80475
3.35839
2.99955
2.72167
2.49601
2.3086
2.14565
1.99746
1.8504
1.68766
1.51065
1.30259
1.14645
)
;
    }
    outlet
    {
        type            calculated;
        value           nonuniform List<scalar> 0();
    }
    walls
    {
        type            calculated;
        value           nonuniform List<scalar> 0();
    }
    frontAndBack
    {
        type            empty;
    }
    procBoundary4to0
    {
        type            processor;
        value           nonuniform List<scalar> 
72
(
-0.218247
-0.220547
-0.223384
-0.226622
-0.23033
-0.234506
-0.239096
-0.243956
-0.249316
-0.255033
-0.261127
-0.267616
-0.274518
-0.281808
-0.289548
-0.29775
-0.306356
-0.315423
-0.325046
-0.335124
-0.345764
-0.356954
1.43949
-0.271975
-0.279126
-0.286639
-0.294579
-0.302853
-0.311582
-0.320792
-0.330422
-0.340554
-0.351212
-0.362416
-0.374214
-0.386597
-0.399639
-0.413377
-0.427803
-0.443004
-0.459041
-0.475877
-0.493618
-0.512347
-0.532027
-0.552803
-0.574697
-0.597771
-0.622099
-0.647762
-0.67481
-0.703397
-0.733493
-0.765223
-0.798843
-0.834175
-0.871537
-0.911025
-0.952608
-0.684411
-0.748641
-0.818602
-0.895015
-0.978499
-1.06968
-1.16953
-1.27836
-1.39758
-1.52762
-1.66993
-1.8247
-1.99341
)
;
    }
    procBoundary4to5
    {
        type            processor;
        value           nonuniform List<scalar> 
95
(
0.219542
0.238032
0.213318
0.313443
0.236806
0.226114
0.382304
0.230039
0.20992
0.448522
0.212067
0.488875
0.208978
0.529805
0.54973
0.227872
0.593896
0.220019
0.639042
0.664917
0.229714
0.713267
0.743182
0.236009
0.795069
0.829222
0.236405
0.884869
0.923802
0.964809
0.249818
1.02746
1.07386
1.12272
0.253967
1.1929
1.24824
1.30616
0.247287
1.38496
1.45016
1.51893
0.226106
1.60727
1.68419
1.76515
1.85078
1.94077
0.216229
2.05025
2.1507
2.25694
2.36891
2.48674
0.175158
2.62278
2.75425
2.89312
3.03956
3.19376
0.0974797
3.36377
3.53558
3.71709
3.90829
4.11009
4.3229
4.54734
-0.014622
4.78526
5.03489
5.29828
5.57593
5.86909
6.17806
6.50415
6.84802
-0.185565
7.20304
7.58661
7.98814
5.80955
6.38314
7.01339
7.70537
8.46678
9.30138
10.2198
-0.661926
11.1651
12.2699
13.4757
14.8238
16.2553
17.9407
)
;
    }
}


// ************************************************************************* //
