/*--------------------------------*- C++ -*----------------------------------*\
| =========                 |                                                 |
| \\      /  F ield         | OpenFOAM: The Open Source CFD Toolbox           |
|  \\    /   O peration     | Version:  2506                                  |
|   \\  /    A nd           | Website:  www.openfoam.com                      |
|    \\/     M anipulation  |                                                 |
\*---------------------------------------------------------------------------*/
FoamFile
{
    version     2.0;
    format      ascii;
    arch        "LSB;label=32;scalar=64";
    class       volVectorField;
    location    "500";
    object      momentError;
}
// * * * * * * * * * * * * * * * * * * * * * * * * * * * * * * * * * * * * * //

dimensions      [0 1 -2 0 0 0 0];

internalField   nonuniform List<vector> 
1340
(
(-1.00147e-07 5.85013e-07 6.04183e-16)
(-7.50287e-08 7.40971e-07 -1.95206e-15)
(-1.33392e-07 6.12356e-07 5.94286e-15)
(-1.26208e-07 6.56601e-07 7.89908e-16)
(-8.69547e-08 5.70389e-07 1.19895e-15)
(-1.61106e-07 7.27465e-07 2.7942e-15)
(-1.34934e-07 6.89888e-07 9.75807e-17)
(-1.4289e-07 6.21904e-07 6.32718e-16)
(-1.34029e-07 6.02023e-07 7.02414e-16)
(-1.40536e-07 6.49866e-07 -3.92523e-16)
(-8.37325e-08 6.87506e-07 -5.39266e-16)
(-1.69072e-07 7.37641e-07 3.05655e-15)
(-2.14333e-07 1.09228e-06 -1.32703e-15)
(-1.7849e-07 9.55723e-07 2.7691e-15)
(-1.33671e-07 8.38606e-07 8.4667e-18)
(-1.09477e-07 6.7866e-07 1.68363e-18)
(-1.66459e-07 6.31797e-07 1.20546e-15)
(-1.65248e-07 6.76108e-07 -4.17103e-15)
(-1.54155e-07 6.9706e-07 -2.20928e-15)
(-1.09391e-07 6.5231e-07 1.56423e-17)
(-1.14958e-07 7.35727e-07 -5.43763e-15)
(-5.06267e-07 1.62198e-06 2.16822e-16)
(-4.33797e-07 1.45539e-06 -2.65777e-16)
(-3.8024e-07 1.37298e-06 1.83284e-16)
(-3.30352e-07 1.31006e-06 1.12158e-15)
(-2.6284e-07 1.2036e-06 -4.12137e-16)
(-1.92208e-07 1.02952e-06 2.7005e-15)
(-1.59488e-07 9.09016e-07 -8.2132e-16)
(-1.44718e-07 8.2648e-07 -1.39446e-15)
(-1.41909e-07 7.79486e-07 -1.75779e-17)
(-1.92617e-07 6.92404e-07 -1.83124e-16)
(-1.62362e-07 6.41063e-07 2.71577e-15)
(-1.46105e-07 6.79878e-07 1.51726e-15)
(-1.0879e-07 6.62424e-07 3.03904e-18)
(-9.95908e-08 7.24621e-07 4.39402e-16)
(-1.46397e-06 1.58562e-06 -9.60085e-16)
(-1.24785e-06 1.66888e-06 2.21608e-16)
(-1.0189e-06 1.69647e-06 3.47361e-16)
(-8.60779e-07 1.72169e-06 1.11304e-15)
(-6.88831e-07 1.65915e-06 1.02631e-15)
(-5.37616e-07 1.48234e-06 -3.98606e-16)
(-4.31018e-07 1.34247e-06 -6.26369e-16)
(-3.6968e-07 1.26816e-06 -5.66751e-16)
(-3.12207e-07 1.19795e-06 1.68757e-15)
(-2.78285e-07 1.15912e-06 -1.11345e-16)
(-2.70169e-07 1.14142e-06 -6.81559e-16)
(-2.29514e-07 1.00243e-06 8.58171e-16)
(-1.95977e-07 8.71336e-07 -6.31151e-16)
(-1.74181e-07 7.42286e-07 1.51702e-17)
(-1.78552e-07 6.80789e-07 -1.63046e-16)
(-1.68505e-07 6.52455e-07 6.20626e-16)
(-1.45972e-07 6.8332e-07 7.21124e-16)
(-1.09334e-07 6.5413e-07 2.62397e-17)
(-8.26214e-08 7.0864e-07 -2.31075e-16)
(-3.38899e-06 8.20872e-07 4.63419e-16)
(-3.10525e-06 9.52697e-07 8.07184e-16)
(-2.84305e-06 1.00527e-06 9.941e-16)
(-2.59659e-06 1.02454e-06 -2.56764e-16)
(-2.35259e-06 1.00801e-06 7.71642e-16)
(-2.1524e-06 1.0772e-06 -7.49334e-16)
(-1.87369e-06 1.15363e-06 -2.28977e-15)
(-1.56536e-06 1.12457e-06 -1.15917e-15)
(-1.3056e-06 1.31736e-06 6.2734e-16)
(-1.10302e-06 1.39189e-06 1.01969e-16)
(-9.11932e-07 1.43391e-06 1.45317e-15)
(-7.93553e-07 1.50501e-06 -2.24413e-16)
(-7.26045e-07 1.58777e-06 -5.21482e-17)
(-6.02308e-07 1.48456e-06 8.04816e-17)
(-5.21964e-07 1.40778e-06 -5.6183e-17)
(-4.41618e-07 1.33449e-06 -5.39959e-16)
(-3.76998e-07 1.20974e-06 1.07563e-15)
(-3.06803e-07 1.04337e-06 -9.69792e-16)
(-2.59083e-07 9.27661e-07 1.23372e-16)
(-2.22933e-07 8.27372e-07 1.72685e-15)
(-1.99458e-07 7.46629e-07 -3.73567e-17)
(-1.90013e-07 6.86047e-07 1.70589e-16)
(-1.71683e-07 6.48213e-07 -1.40744e-15)
(-1.46151e-07 6.77322e-07 -1.67634e-15)
(-1.06579e-07 6.44931e-07 -2.1111e-17)
(-7.27803e-08 6.88581e-07 6.30174e-16)
(-5.65175e-06 -2.45634e-06 -2.3942e-16)
(-5.54666e-06 -2.15541e-06 2.68119e-16)
(-5.44091e-06 -1.93115e-06 -1.10564e-16)
(-5.29682e-06 -1.70077e-06 -2.15848e-16)
(-5.14263e-06 -1.47087e-06 7.03284e-16)
(-4.95484e-06 -1.23146e-06 -5.63938e-16)
(-4.75783e-06 -9.88983e-07 9.91854e-17)
(-4.53401e-06 -7.40381e-07 6.16041e-16)
(-4.30227e-06 -4.99202e-07 -6.14698e-16)
(-4.04095e-06 -2.60649e-07 -1.85818e-15)
(-3.86814e-06 5.08003e-09 3.37784e-17)
(-3.63817e-06 2.58933e-07 -3.54437e-16)
(-3.04927e-06 1.91042e-07 3.28153e-16)
(-2.79492e-06 3.62858e-07 3.45013e-16)
(-2.53582e-06 4.99446e-07 -1.00429e-16)
(-2.34392e-06 5.37061e-07 -2.23438e-16)
(-2.13e-06 6.13551e-07 7.126e-16)
(-1.97206e-06 6.42274e-07 -2.74352e-16)
(-1.87675e-06 8.42915e-07 -4.00483e-16)
(-1.89762e-06 1.26945e-06 3.30273e-16)
(-1.64266e-06 1.36295e-06 -1.00444e-15)
(-1.40992e-06 1.47046e-06 6.3981e-16)
(-1.19477e-06 1.5325e-06 -3.79393e-16)
(-9.99408e-07 1.49028e-06 -5.21319e-16)
(-7.94152e-07 1.33547e-06 2.87805e-16)
(-6.74843e-07 1.26167e-06 2.01574e-16)
(-5.82031e-07 1.21746e-06 4.20738e-16)
(-5.04255e-07 1.16429e-06 -4.56526e-16)
(-4.27949e-07 1.09569e-06 -7.81193e-16)
(-3.63003e-07 1.00475e-06 2.68941e-16)
(-3.0416e-07 8.98867e-07 4.3036e-17)
(-2.57879e-07 8.06393e-07 -1.72228e-16)
(-2.24231e-07 7.28445e-07 1.24172e-17)
(-2.00239e-07 6.79524e-07 -1.38835e-16)
(-1.74963e-07 6.44784e-07 2.83387e-15)
(-1.45448e-07 6.66758e-07 -1.33358e-16)
(-1.03649e-07 6.28359e-07 2.68175e-16)
(-6.49055e-08 6.66698e-07 -9.54527e-17)
(-5.56172e-06 -4.48705e-06 -7.589e-17)
(-9.53151e-06 -6.32391e-06 -2.39069e-17)
(-1.25192e-05 -5.85337e-06 -2.76969e-18)
(-1.4857e-05 -5.50279e-06 -2.61458e-17)
(-1.67442e-05 -5.1363e-06 -1.17639e-17)
(-1.81912e-05 -4.83318e-06 -8.89264e-18)
(-1.92427e-05 -4.60678e-06 2.48386e-17)
(-1.99118e-05 -4.41922e-06 6.72008e-17)
(-2.02802e-05 -4.26889e-06 -2.89412e-17)
(-2.03553e-05 -4.12786e-06 -5.41064e-17)
(-2.02199e-05 -4.01722e-06 2.53291e-17)
(-1.98717e-05 -3.92977e-06 -5.02822e-17)
(-1.93914e-05 -3.87725e-06 -6.09809e-17)
(-1.87695e-05 -3.83561e-06 -5.36791e-17)
(-1.80821e-05 -3.81431e-06 -1.08102e-16)
(-1.73088e-05 -3.81252e-06 -1.02434e-17)
(-1.65211e-05 -3.82526e-06 -8.98246e-17)
(-1.56886e-05 -3.851e-06 -5.33867e-17)
(-1.48803e-05 -3.88187e-06 -1.20519e-16)
(-1.40553e-05 -3.93182e-06 -1.0008e-17)
(-1.3281e-05 -3.99093e-06 1.40507e-16)
(-1.25068e-05 -4.05221e-06 1.41576e-16)
(-1.1798e-05 -4.10051e-06 -8.4575e-17)
(-1.10979e-05 -4.15972e-06 5.85506e-17)
(-1.04728e-05 -4.22078e-06 1.26189e-16)
(-9.85786e-06 -4.27269e-06 1.14904e-17)
(-9.31914e-06 -4.29992e-06 -1.07147e-16)
(-8.79046e-06 -4.32438e-06 -7.39818e-18)
(-8.33844e-06 -4.35313e-06 2.56456e-17)
(-7.89657e-06 -4.37542e-06 -1.19015e-17)
(-7.52626e-06 -4.37068e-06 -9.52166e-17)
(-7.16883e-06 -4.36398e-06 8.1302e-17)
(-6.88033e-06 -4.35554e-06 -2.40964e-16)
(-6.59909e-06 -4.30062e-06 -9.33862e-17)
(-6.38164e-06 -4.25103e-06 1.70039e-16)
(-6.17537e-06 -4.17536e-06 3.13e-17)
(-6.01783e-06 -4.08874e-06 2.10385e-17)
(-5.87007e-06 -3.97265e-06 -3.25535e-17)
(-5.75052e-06 -3.85248e-06 4.52536e-17)
(-5.64348e-06 -3.7364e-06 2.55547e-16)
(-5.47318e-06 -3.57875e-06 -9.47062e-17)
(-5.68017e-06 -3.49685e-06 2.14521e-18)
(-6.02313e-06 -3.20326e-06 1.81468e-17)
(-4.98836e-06 -2.99182e-06 -1.51003e-16)
(-4.73026e-06 -2.71638e-06 7.08113e-16)
(-4.56502e-06 -2.5132e-06 1.44945e-17)
(-4.38543e-06 -2.30025e-06 -6.57219e-16)
(-4.22746e-06 -2.0749e-06 5.98757e-16)
(-4.04851e-06 -1.83895e-06 3.82707e-16)
(-3.8924e-06 -1.60053e-06 -7.98527e-17)
(-3.70809e-06 -1.35234e-06 9.91256e-18)
(-3.54597e-06 -1.10457e-06 -6.37481e-16)
(-3.35285e-06 -8.6233e-07 -1.00414e-15)
(-3.13802e-06 -6.34412e-07 -6.10063e-17)
(-3.1892e-06 -3.24003e-07 -2.1438e-16)
(-3.50954e-06 2.42777e-07 3.17215e-16)
(-3.24856e-06 4.13844e-07 -7.38493e-17)
(-2.99204e-06 5.56103e-07 -1.43821e-15)
(-2.73679e-06 6.6626e-07 -4.97848e-17)
(-2.53949e-06 7.17203e-07 4.51497e-16)
(-2.30538e-06 8.0289e-07 2.13333e-16)
(-2.13024e-06 8.36447e-07 5.01258e-16)
(-1.86551e-06 8.42305e-07 4.15968e-16)
(-1.68737e-06 9.64573e-07 6.61495e-16)
(-1.48453e-06 1.08287e-06 1.1212e-15)
(-1.27517e-06 1.17239e-06 2.5963e-17)
(-1.07675e-06 1.20094e-06 1.3437e-16)
(-9.00093e-07 1.1911e-06 -1.80606e-16)
(-7.67905e-07 1.1397e-06 -1.64918e-16)
(-6.75383e-07 1.11411e-06 8.42927e-16)
(-5.88143e-07 1.08796e-06 -6.83916e-16)
(-4.99094e-07 1.02116e-06 -4.3028e-17)
(-4.15445e-07 9.34915e-07 -5.8066e-16)
(-3.4481e-07 8.46478e-07 7.62738e-16)
(-2.89931e-07 7.70681e-07 -3.18064e-16)
(-2.46679e-07 7.09756e-07 4.23997e-17)
(-2.09922e-07 6.65001e-07 8.82595e-17)
(-1.76913e-07 6.30584e-07 -1.91255e-15)
(-1.4315e-07 6.52456e-07 7.61457e-16)
(-9.96024e-08 6.10978e-07 1.79981e-16)
(-5.99267e-08 6.42957e-07 6.72519e-18)
(1.46941e-05 -1.38105e-05 -1.36773e-17)
(1.17496e-05 -1.4573e-05 -9.7196e-18)
(8.47873e-06 -1.38025e-05 8.61465e-18)
(5.41024e-06 -1.31195e-05 -1.06452e-18)
(2.57266e-06 -1.24105e-05 -1.19099e-17)
(3.41388e-08 -1.17946e-05 3.78999e-17)
(-2.20679e-06 -1.12327e-05 1.29753e-17)
(-4.13159e-06 -1.07123e-05 -1.01015e-17)
(-5.76367e-06 -1.02126e-05 3.17884e-17)
(-7.09904e-06 -9.75313e-06 -4.03396e-18)
(-8.17533e-06 -9.32301e-06 3.44899e-17)
(-8.998e-06 -8.9415e-06 5.52035e-17)
(-9.60955e-06 -8.58337e-06 -3.68521e-17)
(-1.00183e-05 -8.26843e-06 4.63716e-17)
(-1.02678e-05 -7.96593e-06 -2.80635e-17)
(-1.03646e-05 -7.70659e-06 -9.07748e-17)
(-1.03507e-05 -7.4559e-06 -6.60377e-18)
(-1.02282e-05 -7.24163e-06 2.18897e-17)
(-1.00372e-05 -7.02508e-06 1.85421e-17)
(-9.7735e-06 -6.84208e-06 -2.34403e-17)
(-9.47576e-06 -6.66264e-06 -1.04073e-17)
(-9.13424e-06 -6.51612e-06 -3.38837e-18)
(-8.7837e-06 -6.35643e-06 -2.54936e-17)
(-8.40821e-06 -6.22178e-06 -4.17428e-17)
(-8.04279e-06 -6.08607e-06 1.26984e-17)
(-7.66716e-06 -5.97554e-06 5.6123e-17)
(-7.31219e-06 -5.83849e-06 -4.90663e-17)
(-6.95208e-06 -5.7149e-06 4.72302e-17)
(-6.61996e-06 -5.58201e-06 -2.22814e-17)
(-6.28959e-06 -5.46971e-06 4.61965e-17)
(-5.99072e-06 -5.319e-06 -1.09872e-16)
(-5.69127e-06 -5.18394e-06 -1.16784e-16)
(-5.42739e-06 -5.04099e-06 -8.71485e-18)
(-5.16687e-06 -4.90632e-06 -1.98048e-16)
(-4.93383e-06 -4.71786e-06 -2.37224e-17)
(-4.71052e-06 -4.55756e-06 8.08326e-17)
(-4.513e-06 -4.36974e-06 3.98059e-17)
(-4.32517e-06 -4.21062e-06 3.12107e-17)
(-4.1622e-06 -4.03017e-06 6.15702e-17)
(-4.01713e-06 -3.86874e-06 1.89229e-16)
(-3.87383e-06 -3.70435e-06 -1.58078e-17)
(-3.61978e-06 -3.52696e-06 -1.31155e-16)
(-3.93938e-06 -3.49957e-06 1.1785e-16)
(-5.12941e-06 -3.28578e-06 -2.65779e-16)
(-5.01045e-06 -3.01491e-06 -4.51915e-16)
(-4.85392e-06 -2.71531e-06 2.55274e-17)
(-4.69914e-06 -2.4166e-06 1.98762e-16)
(-4.54642e-06 -2.12818e-06 -2.89529e-16)
(-4.38991e-06 -1.83717e-06 2.64905e-16)
(-4.23605e-06 -1.55632e-06 1.16692e-16)
(-4.07263e-06 -1.28121e-06 2.15975e-16)
(-3.9123e-06 -1.01746e-06 4.97937e-16)
(-3.73475e-06 -7.66559e-07 5.40873e-16)
(-3.54486e-06 -5.40779e-07 -2.29369e-17)
(-3.28729e-06 -3.62933e-07 -4.91997e-17)
(-2.94865e-06 -2.86505e-07 1.66455e-16)
(-2.77921e-06 -1.00087e-07 1.84743e-16)
(-2.63321e-06 6.15299e-08 1.12641e-15)
(-2.46235e-06 1.90236e-07 1.56589e-17)
(-2.32264e-06 3.02817e-07 -1.0577e-15)
(-2.17602e-06 3.9176e-07 1.09741e-16)
(-2.04138e-06 5.12377e-07 -5.1355e-16)
(-1.90969e-06 6.38604e-07 -2.63684e-16)
(-1.73923e-06 7.48338e-07 9.40023e-19)
(-1.55658e-06 8.5529e-07 -9.20652e-16)
(-1.36769e-06 9.55721e-07 1.03941e-16)
(-1.16671e-06 1.00654e-06 5.71401e-17)
(-9.96899e-07 9.91122e-07 -1.02327e-17)
(-8.5599e-07 9.92149e-07 1.32814e-16)
(-7.67992e-07 9.90725e-07 -4.40655e-16)
(-6.62118e-07 9.65286e-07 2.13089e-16)
(-5.63297e-07 9.17841e-07 1.08502e-16)
(-4.65609e-07 8.54146e-07 4.2296e-17)
(-3.81658e-07 7.86754e-07 -1.82661e-15)
(-3.18312e-07 7.27238e-07 -5.393e-16)
(-2.64449e-07 6.74859e-07 -1.50451e-17)
(-2.17717e-07 6.42992e-07 3.64599e-17)
(-1.77231e-07 6.15846e-07 -1.43928e-15)
(-1.4078e-07 6.33083e-07 4.97136e-16)
(-9.53121e-08 5.88871e-07 -4.05485e-16)
(-5.65252e-08 6.19114e-07 1.07391e-17)
(2.37588e-05 -2.17502e-05 -1.24917e-17)
(2.27857e-05 -2.17478e-05 -5.10681e-18)
(2.04588e-05 -2.02667e-05 1.23589e-17)
(1.80224e-05 -1.90385e-05 8.18476e-18)
(1.554e-05 -1.78714e-05 -3.7943e-18)
(1.30869e-05 -1.68007e-05 -3.65688e-18)
(1.07301e-05 -1.57953e-05 1.3925e-17)
(8.50519e-06 -1.4859e-05 -1.0019e-17)
(6.45616e-06 -1.39877e-05 -3.13364e-18)
(4.59291e-06 -1.31752e-05 1.5486e-17)
(2.93815e-06 -1.24175e-05 -1.89752e-18)
(1.47927e-06 -1.17288e-05 2.28284e-17)
(2.27283e-07 -1.10995e-05 2.06498e-17)
(-8.43099e-07 -1.0525e-05 -1.2798e-17)
(-1.72882e-06 -9.99492e-06 3.66107e-17)
(-2.46223e-06 -9.51818e-06 -1.04073e-17)
(-3.0426e-06 -9.08326e-06 -2.52495e-17)
(-3.50477e-06 -8.69351e-06 3.12043e-17)
(-3.84773e-06 -8.33584e-06 1.58714e-17)
(-4.10608e-06 -8.01659e-06 2.34975e-18)
(-4.27636e-06 -7.72281e-06 -9.73917e-18)
(-4.39241e-06 -7.46468e-06 -6.92475e-17)
(-4.44739e-06 -7.22903e-06 3.68136e-18)
(-4.47222e-06 -7.02134e-06 -3.64923e-17)
(-4.45729e-06 -6.82348e-06 -1.08961e-17)
(-4.43184e-06 -6.65427e-06 1.8524e-17)
(-4.38292e-06 -6.49892e-06 3.52102e-17)
(-4.33458e-06 -6.35865e-06 3.40924e-18)
(-4.27279e-06 -6.20829e-06 8.41994e-18)
(-4.2202e-06 -6.07496e-06 -1.09543e-17)
(-4.161e-06 -5.94644e-06 2.80942e-17)
(-4.11095e-06 -5.81533e-06 -5.90517e-17)
(-4.05638e-06 -5.65498e-06 -1.40991e-17)
(-4.01358e-06 -5.51557e-06 3.87786e-17)
(-3.96644e-06 -5.3403e-06 -1.15766e-16)
(-3.91879e-06 -5.1558e-06 -6.01329e-17)
(-3.86964e-06 -4.94687e-06 2.07938e-17)
(-3.81776e-06 -4.73306e-06 -1.70301e-17)
(-3.77008e-06 -4.48382e-06 -3.33281e-17)
(-3.72724e-06 -4.24387e-06 -5.14331e-17)
(-3.67931e-06 -3.99057e-06 3.91587e-17)
(-3.57293e-06 -3.73273e-06 -4.01241e-17)
(-3.39564e-06 -3.46407e-06 -1.14845e-16)
(-2.94975e-06 -3.21387e-06 4.64865e-17)
(-2.93275e-06 -2.95583e-06 -2.3835e-16)
(-2.92342e-06 -2.70375e-06 3.18032e-19)
(-2.92215e-06 -2.45231e-06 1.47449e-17)
(-2.91195e-06 -2.20975e-06 1.70968e-16)
(-2.90762e-06 -1.96919e-06 -3.33622e-16)
(-2.88781e-06 -1.73673e-06 1.43782e-19)
(-2.87055e-06 -1.50859e-06 3.58336e-16)
(-2.83393e-06 -1.28454e-06 -1.1864e-16)
(-2.79848e-06 -1.06825e-06 4.96329e-16)
(-2.72151e-06 -8.58321e-07 2.98455e-17)
(-2.67821e-06 -6.51573e-07 -6.52471e-17)
(-2.62594e-06 -4.37181e-07 -6.43355e-17)
(-2.53864e-06 -2.70323e-07 -4.20686e-18)
(-2.42776e-06 -1.13447e-07 -6.34353e-16)
(-2.32327e-06 2.05117e-08 2.19452e-16)
(-2.20741e-06 1.4032e-07 6.07073e-16)
(-2.09494e-06 2.43248e-07 -1.3439e-16)
(-1.97844e-06 3.41685e-07 1.00792e-15)
(-1.85209e-06 4.36965e-07 1.48849e-17)
(-1.71822e-06 5.27045e-07 -1.8477e-16)
(-1.5726e-06 6.39796e-07 -2.21802e-16)
(-1.40561e-06 7.26743e-07 -2.70736e-16)
(-1.23218e-06 7.83636e-07 5.21076e-16)
(-1.06169e-06 8.21808e-07 1.23189e-16)
(-9.40025e-07 8.2972e-07 2.62861e-16)
(-8.26241e-07 8.45464e-07 -4.81894e-16)
(-7.2278e-07 8.35031e-07 1.51515e-16)
(-6.07232e-07 8.0361e-07 -1.12313e-16)
(-5.00366e-07 7.54703e-07 -1.17102e-15)
(-4.14097e-07 7.11936e-07 -3.8345e-16)
(-3.41199e-07 6.74252e-07 1.39205e-16)
(-2.78924e-07 6.38311e-07 9.83197e-18)
(-2.22064e-07 6.12693e-07 1.81977e-16)
(-1.76451e-07 5.90455e-07 2.68099e-16)
(-1.39215e-07 6.10994e-07 -8.99741e-16)
(-9.2126e-08 5.6724e-07 -2.02939e-16)
(-5.46079e-08 5.94593e-07 -5.13724e-16)
(2.349e-05 -2.35359e-05 6.81336e-18)
(2.47472e-05 -2.43775e-05 -2.02386e-18)
(2.42685e-05 -2.32683e-05 -9.00854e-18)
(2.33326e-05 -2.21661e-05 -2.63982e-18)
(2.20468e-05 -2.10428e-05 5.94452e-18)
(2.05016e-05 -1.99308e-05 -2.58419e-19)
(1.87852e-05 -1.8827e-05 -4.50324e-18)
(1.69757e-05 -1.77608e-05 1.85889e-18)
(1.51359e-05 -1.67461e-05 -2.01581e-17)
(1.33203e-05 -1.57767e-05 -1.31693e-17)
(1.15713e-05 -1.48507e-05 -1.0165e-17)
(9.91775e-06 -1.39735e-05 -1.96624e-18)
(8.38346e-06 -1.3153e-05 2.68125e-17)
(6.98032e-06 -1.23776e-05 -7.72917e-18)
(5.71724e-06 -1.16455e-05 -3.10195e-17)
(4.59359e-06 -1.09592e-05 1.47801e-17)
(3.60803e-06 -1.03215e-05 -1.00222e-17)
(2.75234e-06 -9.72765e-06 -4.74052e-17)
(2.02039e-06 -9.17367e-06 -6.82358e-18)
(1.39928e-06 -8.66343e-06 -5.6291e-19)
(8.8086e-07 -8.19332e-06 4.05256e-17)
(4.50486e-07 -7.7636e-06 5.26128e-17)
(9.97565e-08 -7.36564e-06 5.02302e-18)
(-1.85958e-07 -7.00729e-06 1.9014e-17)
(-4.13971e-07 -6.67628e-06 -3.24913e-19)
(-5.9725e-07 -6.37854e-06 3.36091e-17)
(-7.41732e-07 -6.10237e-06 -1.49562e-17)
(-8.59137e-07 -5.85842e-06 -3.48639e-18)
(-9.52264e-07 -5.62537e-06 -2.17753e-18)
(-1.02996e-06 -5.41651e-06 7.3683e-18)
(-1.09447e-06 -5.21564e-06 -2.85174e-18)
(-1.15412e-06 -5.04503e-06 2.88844e-17)
(-1.20673e-06 -4.86677e-06 -3.88595e-19)
(-1.25702e-06 -4.69822e-06 8.23246e-19)
(-1.30732e-06 -4.55136e-06 2.12039e-17)
(-1.35801e-06 -4.41449e-06 7.0867e-17)
(-1.40947e-06 -4.25014e-06 -4.42148e-17)
(-1.4624e-06 -4.08756e-06 -2.9384e-18)
(-1.52002e-06 -3.9087e-06 4.89775e-17)
(-1.58586e-06 -3.72413e-06 4.60801e-18)
(-1.65687e-06 -3.51862e-06 -8.50601e-17)
(-1.6864e-06 -3.30431e-06 3.69085e-17)
(-1.77586e-06 -3.08099e-06 7.77307e-17)
(-1.92527e-06 -2.86699e-06 2.01306e-16)
(-2.0018e-06 -2.63557e-06 2.11846e-16)
(-2.06969e-06 -2.41181e-06 4.92802e-17)
(-2.13623e-06 -2.18767e-06 -7.55795e-18)
(-2.19538e-06 -1.9777e-06 -1.04037e-16)
(-2.25045e-06 -1.77111e-06 1.19915e-16)
(-2.29521e-06 -1.57613e-06 -5.44713e-17)
(-2.33209e-06 -1.38556e-06 -2.77369e-16)
(-2.35673e-06 -1.20333e-06 -1.76938e-16)
(-2.36968e-06 -1.02597e-06 -7.99217e-17)
(-2.35249e-06 -8.55791e-07 -4.79433e-17)
(-2.32639e-06 -6.91434e-07 4.23725e-17)
(-2.28853e-06 -5.37291e-07 -4.06195e-16)
(-2.24405e-06 -3.90055e-07 -1.92454e-16)
(-2.18792e-06 -2.51794e-07 -2.25978e-16)
(-2.11836e-06 -1.2802e-07 -5.52804e-16)
(-2.04248e-06 -1.24126e-08 1.25392e-16)
(-1.95469e-06 8.88487e-08 -1.4062e-16)
(-1.86408e-06 1.85543e-07 -5.43837e-16)
(-1.76795e-06 2.7207e-07 5.71116e-16)
(-1.65968e-06 3.65192e-07 7.14542e-16)
(-1.54305e-06 4.44673e-07 -1.12854e-16)
(-1.39429e-06 5.3209e-07 -3.32992e-16)
(-1.25016e-06 5.92506e-07 -7.97784e-18)
(-1.09211e-06 6.36419e-07 -6.46367e-17)
(-9.63859e-07 6.7375e-07 1.59069e-16)
(-8.60907e-07 6.92802e-07 1.27658e-16)
(-7.45818e-07 6.94721e-07 1.04695e-16)
(-6.3332e-07 6.69694e-07 3.01825e-16)
(-5.32567e-07 6.5446e-07 5.75311e-16)
(-4.46045e-07 6.33767e-07 2.44256e-16)
(-3.6507e-07 6.09973e-07 5.51223e-17)
(-2.91346e-07 5.84252e-07 -1.3937e-16)
(-2.304e-07 5.74295e-07 -9.72123e-16)
(-1.79531e-07 5.66089e-07 4.26285e-16)
(-1.39241e-07 5.84427e-07 4.60121e-16)
(-9.00413e-08 5.40544e-07 6.12586e-16)
(-5.26875e-08 5.69888e-07 1.88946e-15)
(1.43678e-05 -2.13973e-05 4.92319e-19)
(1.75008e-05 -2.20294e-05 1.82254e-18)
(1.92175e-05 -2.0882e-05 6.03167e-18)
(2.02745e-05 -1.98065e-05 1.81877e-18)
(2.07853e-05 -1.87817e-05 -3.24242e-18)
(2.0813e-05 -1.77997e-05 -1.44193e-18)
(2.04425e-05 -1.68558e-05 -2.46224e-19)
(1.97527e-05 -1.59507e-05 -6.65858e-20)
(1.88169e-05 -1.5082e-05 3.03883e-20)
(1.7702e-05 -1.4261e-05 -8.03751e-18)
(1.64712e-05 -1.34818e-05 9.68428e-18)
(1.51728e-05 -1.27354e-05 -7.07695e-18)
(1.38532e-05 -1.20199e-05 -1.72596e-17)
(1.25453e-05 -1.13442e-05 -1.03236e-17)
(1.12784e-05 -1.0705e-05 -3.77215e-18)
(1.00716e-05 -1.00962e-05 3.27422e-18)
(8.9409e-06 -9.51569e-06 1.41368e-18)
(7.89313e-06 -8.96821e-06 -1.2192e-17)
(6.93547e-06 -8.45098e-06 -1.80756e-17)
(6.0664e-06 -7.96094e-06 -4.89527e-18)
(5.28731e-06 -7.49845e-06 3.11633e-18)
(4.59076e-06 -7.06419e-06 1.95868e-17)
(3.97484e-06 -6.65518e-06 -2.7335e-17)
(3.42939e-06 -6.27292e-06 6.02825e-18)
(2.95096e-06 -5.91788e-06 -2.23573e-17)
(2.52829e-06 -5.59241e-06 1.23663e-17)
(2.15834e-06 -5.29063e-06 3.37539e-17)
(1.82948e-06 -5.01679e-06 -2.59939e-17)
(1.53942e-06 -4.76816e-06 -4.72194e-17)
(1.27813e-06 -4.547e-06 -1.33379e-17)
(1.04484e-06 -4.34455e-06 9.9208e-17)
(8.30503e-07 -4.16414e-06 6.59211e-17)
(6.33714e-07 -4.0013e-06 5.49415e-17)
(4.49949e-07 -3.85655e-06 -4.93229e-19)
(2.78782e-07 -3.69948e-06 -5.80124e-17)
(1.1219e-07 -3.55794e-06 -6.42564e-17)
(-4.62249e-08 -3.40626e-06 4.87768e-17)
(-1.98327e-07 -3.25135e-06 -2.02063e-17)
(-3.45344e-07 -3.0814e-06 -6.40223e-17)
(-4.96401e-07 -2.92209e-06 4.97871e-17)
(-6.4299e-07 -2.74529e-06 -1.32367e-17)
(-7.54769e-07 -2.56418e-06 2.98738e-19)
(-8.7506e-07 -2.39063e-06 -3.83461e-17)
(-9.92661e-07 -2.22562e-06 3.23645e-18)
(-1.12378e-06 -2.04891e-06 -1.72671e-16)
(-1.24651e-06 -1.88358e-06 -1.14769e-16)
(-1.36301e-06 -1.71831e-06 -2.42465e-17)
(-1.46823e-06 -1.56653e-06 -2.30163e-16)
(-1.56499e-06 -1.41564e-06 -1.81436e-16)
(-1.64806e-06 -1.27697e-06 -5.94161e-17)
(-1.72008e-06 -1.13983e-06 -1.63988e-16)
(-1.77676e-06 -1.01088e-06 1.1835e-16)
(-1.82149e-06 -8.83052e-07 -3.20091e-16)
(-1.83883e-06 -7.59897e-07 -4.52499e-17)
(-1.84949e-06 -6.36606e-07 2.14044e-16)
(-1.85103e-06 -5.1654e-07 4.19965e-17)
(-1.83761e-06 -4.03296e-07 -1.03338e-16)
(-1.81006e-06 -2.92075e-07 9.20919e-16)
(-1.77084e-06 -1.89416e-07 5.36304e-17)
(-1.72235e-06 -9.03653e-08 -7.88584e-16)
(-1.66183e-06 -1.22006e-10 1.93111e-16)
(-1.59596e-06 8.48283e-08 -6.62642e-16)
(-1.52363e-06 1.63264e-07 -3.64865e-17)
(-1.44589e-06 2.33049e-07 8.00446e-17)
(-1.34848e-06 3.07937e-07 -1.72255e-15)
(-1.24761e-06 3.68351e-07 4.28756e-17)
(-1.11784e-06 4.25401e-07 7.87285e-17)
(-1.0027e-06 4.75155e-07 -2.46906e-16)
(-8.90831e-07 5.21477e-07 3.22974e-16)
(-7.95084e-07 5.43765e-07 -2.28353e-17)
(-6.99776e-07 5.47404e-07 1.06676e-16)
(-6.052e-07 5.53711e-07 -7.1216e-16)
(-5.23054e-07 5.46485e-07 -6.83228e-16)
(-4.36412e-07 5.40123e-07 6.13212e-17)
(-3.62206e-07 5.291e-07 -5.03111e-17)
(-2.90037e-07 5.23033e-07 1.24007e-16)
(-2.33454e-07 5.2289e-07 -6.68412e-16)
(-1.78363e-07 5.21508e-07 8.53186e-17)
(-1.34155e-07 5.47859e-07 -6.87669e-16)
(-8.30027e-08 5.07052e-07 -8.15958e-17)
(-4.81486e-08 5.37787e-07 1.4542e-15)
(-2.62083e-06 -1.0949e-05 2.71319e-18)
(1.16744e-06 -1.15406e-05 4.0451e-18)
(4.55138e-06 -1.11218e-05 -1.0134e-18)
(7.35903e-06 -1.07071e-05 1.98565e-18)
(9.64991e-06 -1.03608e-05 1.75266e-18)
(1.14254e-05 -1.00122e-05 -1.5796e-17)
(1.27243e-05 -9.67871e-06 -9.37351e-18)
(1.35852e-05 -9.33863e-06 -3.43141e-18)
(1.40589e-05 -8.99379e-06 -1.05412e-18)
(1.4204e-05 -8.64648e-06 4.02976e-18)
(1.40676e-05 -8.301e-06 -9.11001e-18)
(1.37087e-05 -7.94877e-06 1.24145e-17)
(1.31744e-05 -7.59558e-06 2.13749e-18)
(1.25112e-05 -7.23811e-06 7.63868e-18)
(1.17572e-05 -6.88584e-06 1.90278e-17)
(1.09504e-05 -6.53377e-06 1.71569e-17)
(1.0116e-05 -6.18778e-06 1.49339e-17)
(9.27925e-06 -5.84428e-06 5.83709e-18)
(8.45911e-06 -5.51362e-06 2.60894e-17)
(7.66824e-06 -5.19021e-06 -1.2957e-17)
(6.91779e-06 -4.87897e-06 -3.83758e-17)
(6.21362e-06 -4.57911e-06 -8.38644e-18)
(5.55951e-06 -4.29309e-06 -2.42056e-18)
(4.95782e-06 -4.02222e-06 -1.11157e-17)
(4.40757e-06 -3.76541e-06 -8.53575e-18)
(3.9065e-06 -3.52526e-06 -2.84742e-17)
(3.45275e-06 -3.30109e-06 -5.44061e-18)
(3.04215e-06 -3.09663e-06 -1.47117e-18)
(2.67172e-06 -2.90848e-06 3.04879e-17)
(2.33536e-06 -2.74042e-06 -9.34016e-18)
(2.03077e-06 -2.58827e-06 1.04558e-17)
(1.75209e-06 -2.45799e-06 3.18295e-17)
(1.49717e-06 -2.34137e-06 2.61895e-17)
(1.25969e-06 -2.24211e-06 6.96791e-17)
(1.03964e-06 -2.15677e-06 5.223e-18)
(8.32485e-07 -2.08654e-06 -4.58975e-17)
(6.38405e-07 -2.02466e-06 -6.54533e-17)
(4.55514e-07 -1.96537e-06 2.13004e-17)
(2.84109e-07 -1.88991e-06 5.94653e-17)
(1.17821e-07 -1.81436e-06 -3.57488e-17)
(-3.82614e-08 -1.73327e-06 6.22379e-17)
(-1.7293e-07 -1.64681e-06 -1.07361e-17)
(-3.05011e-07 -1.5472e-06 2.29816e-17)
(-4.37448e-07 -1.45616e-06 -1.29024e-16)
(-5.58008e-07 -1.35932e-06 -3.72195e-17)
(-6.67345e-07 -1.27293e-06 3.37698e-17)
(-7.6749e-07 -1.18666e-06 -4.37023e-17)
(-8.56907e-07 -1.10974e-06 -4.89921e-17)
(-9.37908e-07 -1.03125e-06 7.65303e-17)
(-1.00796e-06 -9.58609e-07 3.9074e-18)
(-1.07055e-06 -8.86157e-07 1.43051e-16)
(-1.12263e-06 -8.12986e-07 2.39308e-16)
(-1.16754e-06 -7.36126e-07 2.83638e-17)
(-1.19654e-06 -6.57206e-07 7.12415e-17)
(-1.22068e-06 -5.734e-07 1.27027e-17)
(-1.2388e-06 -4.87678e-07 1.92181e-16)
(-1.24798e-06 -4.02075e-07 4.33559e-17)
(-1.24738e-06 -3.16364e-07 -3.20733e-16)
(-1.23716e-06 -2.3262e-07 3.08786e-16)
(-1.21893e-06 -1.51583e-07 8.12538e-17)
(-1.18929e-06 -7.48521e-08 -5.9612e-17)
(-1.15512e-06 -2.8771e-09 4.76706e-16)
(-1.11224e-06 6.31617e-08 -1.44168e-16)
(-1.06449e-06 1.24789e-07 -1.21554e-16)
(-1.00696e-06 1.77764e-07 8.4603e-16)
(-9.3735e-07 2.27366e-07 -6.35419e-17)
(-8.63914e-07 2.73458e-07 -3.78672e-16)
(-7.7894e-07 3.24332e-07 -3.6243e-18)
(-7.09404e-07 3.6678e-07 -1.35287e-16)
(-6.43966e-07 3.95044e-07 -3.55645e-17)
(-5.79937e-07 4.15766e-07 -8.64136e-17)
(-5.15106e-07 4.23389e-07 4.53656e-16)
(-4.49237e-07 4.33868e-07 4.74131e-16)
(-3.88393e-07 4.37794e-07 2.0526e-16)
(-3.26674e-07 4.41478e-07 1.70746e-16)
(-2.71671e-07 4.43964e-07 -1.19522e-16)
(-2.20343e-07 4.59136e-07 7.25566e-16)
(-1.71312e-07 4.68103e-07 1.0023e-17)
(-1.27354e-07 4.98593e-07 8.06748e-16)
(-7.52767e-08 4.62437e-07 -4.10171e-16)
(-4.45907e-08 5.00558e-07 -2.34435e-15)
(-2.03331e-05 -2.56952e-07 9.35517e-18)
(-1.7863e-05 -4.96733e-07 -3.35636e-18)
(-1.43808e-05 -2.96721e-07 -4.58599e-18)
(-1.10207e-05 -1.38351e-07 7.12261e-19)
(-7.82522e-06 -1.0582e-07 5.5254e-18)
(-4.87148e-06 -1.09373e-07 7.54808e-18)
(-2.21291e-06 -1.57079e-07 -4.12608e-18)
(1.21742e-07 -2.29714e-07 4.11814e-19)
(2.11815e-06 -3.2065e-07 9.21818e-18)
(3.77649e-06 -4.15323e-07 5.18918e-18)
(5.10766e-06 -5.13304e-07 -4.46885e-18)
(6.13469e-06 -6.05649e-07 -9.4728e-18)
(6.88122e-06 -6.90857e-07 5.92774e-19)
(7.38121e-06 -7.69715e-07 5.09922e-20)
(7.66475e-06 -8.38975e-07 -8.32083e-19)
(7.76771e-06 -8.98665e-07 1.69122e-18)
(7.71831e-06 -9.46161e-07 1.15567e-17)
(7.54935e-06 -9.85996e-07 5.93173e-18)
(7.28675e-06 -1.0152e-06 -1.2716e-17)
(6.95356e-06 -1.0368e-06 2.07715e-17)
(6.57322e-06 -1.0469e-06 1.41289e-17)
(6.16103e-06 -1.05167e-06 -5.88094e-18)
(5.73201e-06 -1.04828e-06 1.40582e-18)
(5.29834e-06 -1.04062e-06 1.58442e-17)
(4.86977e-06 -1.02483e-06 1.45155e-17)
(4.4514e-06 -1.00673e-06 1.71255e-17)
(4.05092e-06 -9.84397e-07 -1.37105e-17)
(3.66865e-06 -9.61288e-07 -3.20863e-19)
(3.30949e-06 -9.36015e-07 1.86101e-17)
(2.97164e-06 -9.11767e-07 4.01053e-18)
(2.65787e-06 -8.86243e-07 -2.61522e-17)
(2.36454e-06 -8.64877e-07 -1.37063e-17)
(2.09319e-06 -8.45995e-07 -6.8919e-18)
(1.83907e-06 -8.322e-07 2.14536e-17)
(1.60418e-06 -8.19722e-07 4.21323e-17)
(1.38255e-06 -8.16222e-07 4.2889e-17)
(1.17701e-06 -8.16391e-07 3.06007e-17)
(9.8185e-07 -8.23565e-07 -2.08066e-17)
(7.99892e-07 -8.28844e-07 -6.53473e-17)
(6.23159e-07 -8.37291e-07 2.87865e-17)
(4.56513e-07 -8.41748e-07 7.80785e-18)
(3.05876e-07 -8.46658e-07 2.60397e-17)
(1.57056e-07 -8.47253e-07 -5.20103e-17)
(1.68305e-08 -8.49166e-07 9.48868e-17)
(-1.13e-07 -8.46773e-07 -3.50682e-17)
(-2.32501e-07 -8.42301e-07 1.09242e-16)
(-3.44255e-07 -8.2478e-07 3.56589e-17)
(-4.46533e-07 -8.05019e-07 -7.13719e-17)
(-5.42742e-07 -7.76317e-07 5.11614e-17)
(-6.29587e-07 -7.43977e-07 1.23667e-16)
(-7.11421e-07 -7.03354e-07 3.39022e-17)
(-7.85017e-07 -6.60353e-07 -4.31901e-17)
(-8.53392e-07 -6.07051e-07 2.29654e-16)
(-9.0797e-07 -5.5432e-07 4.7755e-17)
(-9.60893e-07 -4.92795e-07 -1.14435e-16)
(-1.00504e-06 -4.31466e-07 -2.9383e-16)
(-1.03985e-06 -3.65561e-07 -2.58172e-17)
(-1.06389e-06 -3.00699e-07 -1.9927e-17)
(-1.07836e-06 -2.3248e-07 -2.52888e-16)
(-1.08309e-06 -1.65893e-07 1.96145e-16)
(-1.07558e-06 -9.92181e-08 1.18708e-16)
(-1.06156e-06 -3.41862e-08 2.08465e-16)
(-1.03694e-06 2.76792e-08 1.96503e-16)
(-1.00564e-06 8.59687e-08 -4.36189e-16)
(-9.62295e-07 1.37651e-07 5.38549e-16)
(-9.14415e-07 1.83146e-07 3.46222e-16)
(-8.57323e-07 2.31036e-07 2.22447e-17)
(-7.94871e-07 2.78715e-07 1.15357e-16)
(-7.2019e-07 3.29704e-07 -2.76984e-16)
(-6.70696e-07 3.66598e-07 -5.95477e-17)
(-6.13667e-07 3.87584e-07 -1.97483e-17)
(-5.56807e-07 4.08081e-07 4.83143e-16)
(-4.98102e-07 4.20253e-07 5.50316e-16)
(-4.38616e-07 4.31936e-07 4.84939e-16)
(-3.78912e-07 4.38962e-07 2.12764e-16)
(-3.22502e-07 4.53991e-07 1.0504e-16)
(-2.67877e-07 4.7196e-07 -7.47756e-16)
(-2.10321e-07 4.8552e-07 1.65539e-16)
(-1.56479e-07 5.15821e-07 7.2019e-16)
(-9.91938e-08 4.86956e-07 -1.44848e-16)
(-5.89565e-08 5.18597e-07 -5.44501e-16)
(-2.38793e-05 8.75694e-06 -2.26203e-18)
(-2.41648e-05 8.56758e-06 3.9466e-18)
(-2.27923e-05 8.34602e-06 1.72952e-18)
(-2.10337e-05 8.08406e-06 4.83006e-19)
(-1.89989e-05 7.7367e-06 5.45045e-19)
(-1.67901e-05 7.36166e-06 1.37325e-18)
(-1.45026e-05 6.9612e-06 5.04117e-18)
(-1.22195e-05 6.55259e-06 -2.62764e-20)
(-1.00064e-05 6.13899e-06 -7.03592e-18)
(-7.91661e-06 5.7265e-06 -2.25882e-18)
(-5.99007e-06 5.31986e-06 2.44807e-18)
(-4.25176e-06 4.92261e-06 -3.44038e-18)
(-2.71689e-06 4.53916e-06 -9.51572e-19)
(-1.39031e-06 4.17029e-06 -7.06164e-18)
(-2.68384e-07 3.81847e-06 2.7153e-18)
(6.57367e-07 3.48595e-06 -1.7292e-18)
(1.40072e-06 3.17251e-06 -4.24223e-18)
(1.97908e-06 2.87935e-06 1.75858e-18)
(2.4101e-06 2.60696e-06 3.98919e-18)
(2.71293e-06 2.35263e-06 -1.17702e-17)
(2.90674e-06 2.1173e-06 -9.83188e-18)
(3.00876e-06 1.90113e-06 -2.55376e-18)
(3.03547e-06 1.70319e-06 -1.63214e-18)
(3.00247e-06 1.52067e-06 -1.16402e-17)
(2.92266e-06 1.35456e-06 -1.07096e-17)
(2.80751e-06 1.20288e-06 -9.58644e-18)
(2.66759e-06 1.06596e-06 3.01327e-17)
(2.5097e-06 9.4208e-07 -5.7524e-19)
(2.34177e-06 8.3032e-07 -2.8314e-17)
(2.16835e-06 7.29115e-07 3.98368e-18)
(1.99452e-06 6.3949e-07 1.08295e-17)
(1.82246e-06 5.57983e-07 2.50452e-18)
(1.65544e-06 4.84788e-07 -7.97742e-18)
(1.4935e-06 4.17242e-07 -3.7451e-17)
(1.33982e-06 3.54746e-07 -7.49461e-18)
(1.19317e-06 2.9476e-07 1.94053e-17)
(1.05581e-06 2.38948e-07 2.01459e-17)
(9.26177e-07 1.83534e-07 5.49647e-18)
(8.04945e-07 1.30817e-07 -1.71868e-17)
(6.87219e-07 8.02711e-08 -4.93837e-17)
(5.75485e-07 3.56746e-08 5.45587e-18)
(4.71939e-07 -7.5814e-09 -3.66601e-17)
(3.7186e-07 -5.20186e-08 2.83336e-17)
(2.74273e-07 -9.62276e-08 -2.08908e-17)
(1.82028e-07 -1.34936e-07 6.71952e-17)
(9.18055e-08 -1.73298e-07 -9.34394e-17)
(6.1792e-09 -2.03626e-07 3.53357e-17)
(-7.66005e-08 -2.3077e-07 4.73173e-17)
(-1.54993e-07 -2.50868e-07 -9.73647e-17)
(-2.30577e-07 -2.68995e-07 -8.85126e-17)
(-3.01307e-07 -2.75815e-07 -5.54358e-17)