/*--------------------------------*- C++ -*----------------------------------*\
| =========                 |                                                 |
| \\      /  F ield         | OpenFOAM: The Open Source CFD Toolbox           |
|  \\    /   O peration     | Version:  2506                                  |
|   \\  /    A nd           | Website:  www.openfoam.com                      |
|    \\/     M anipulation  |                                                 |
\*---------------------------------------------------------------------------*/
FoamFile
{
    version     2.0;
    format      ascii;
    arch        "LSB;label=32;scalar=64";
    class       volScalarField;
    location    "500";
    object      turbulenceProperties:L;
}
// * * * * * * * * * * * * * * * * * * * * * * * * * * * * * * * * * * * * * //

dimensions      [0 1 0 0 0 0 0];

internalField   nonuniform List<scalar> 
1340
(
0.257288
0.183446
0.54451
0.268982
0.257683
0.18331
0.518642
0.409007
0.550026
0.268477
0.257635
0.183265
0.381364
0.406462
0.419645
0.506421
0.404355
0.553361
0.267936
0.257279
0.183268
0.318936
0.331295
0.342548
0.354121
0.367527
0.381658
0.405468
0.417234
0.494228
0.400023
0.554712
0.267378
0.256721
0.183292
0.269214
0.278043
0.287787
0.298341
0.309906
0.322105
0.333941
0.344644
0.355669
0.368432
0.381861
0.40425
0.41458
0.482298
0.396084
0.554219
0.266851
0.256048
0.18333
0.230771
0.235879
0.24132
0.247091
0.253212
0.259743
0.266807
0.274548
0.283085
0.292475
0.302607
0.313709
0.325397
0.336657
0.346778
0.357227
0.369302
0.382002
0.402843
0.411741
0.470764
0.392575
0.552045
0.266364
0.255325
0.1834
0.19877
0.201088
0.203556
0.206178
0.208958
0.211903
0.215019
0.218315
0.221805
0.225514
0.229473
0.233714
0.238263
0.243138
0.248338
0.253862
0.259733
0.266008
0.272804
0.280248
0.288444
0.297431
0.307091
0.31768
0.328799
0.339432
0.348946
0.358793
0.370143
0.382087
0.401264
0.408754
0.459705
0.38953
0.548364
0.265936
0.254648
0.183479
0.204614
0.198299
0.210055
0.206515
0.206415
0.201986
0.199698
0.197494
0.195629
0.193915
0.19238
0.191018
0.189853
0.18887
0.188026
0.187362
0.186849
0.18648
0.186247
0.186138
0.18615
0.186277
0.186503
0.186825
0.187236
0.187732
0.188304
0.188947
0.189665
0.190446
0.191296
0.192212
0.193193
0.194244
0.195364
0.196556
0.197829
0.199179
0.200622
0.20216
0.203797
0.205548
0.207419
0.209421
0.211555
0.213838
0.216273
0.21886
0.221611
0.224527
0.227612
0.230885
0.234369
0.238089
0.242083
0.246375
0.250983
0.255909
0.261155
0.266741
0.272725
0.279212
0.286314
0.294118
0.302648
0.311785
0.32181
0.332301
0.342261
0.351147
0.360371
0.370965
0.382124
0.399529
0.405644
0.449161
0.386956
0.543415
0.265611
0.254052
0.183555
0.198821
0.221706
0.231568
0.221595
0.219628
0.216192
0.214161
0.211985
0.210095
0.208351
0.206797
0.205429
0.204243
0.20323
0.202367
0.201681
0.201143
0.200735
0.200467
0.200324
0.200293
0.200371
0.200548
0.200813
0.201165
0.201594
0.20209
0.202659
0.20329
0.203981
0.204733
0.205543
0.206413
0.207342
0.208333
0.209393
0.21052
0.211721
0.213006
0.214379
0.215849
0.217422
0.219113
0.220931
0.222876
0.224968
0.227204
0.22959
0.23213
0.234825
0.23768
0.240711
0.24394
0.247391
0.251104
0.255104
0.259413
0.264032
0.268965
0.274234
0.279887
0.286021
0.292732
0.300092
0.30811
0.316671
0.326085
0.335891
0.345138
0.353385
0.361966
0.371776
0.382118
0.397657
0.402436
0.439178
0.384851
0.537627
0.26533
0.253604
0.183595
0.226626
0.241175
0.24569
0.235077
0.233966
0.231036
0.229017
0.226911
0.225049
0.223351
0.221861
0.220514
0.219353
0.21836
0.217521
0.216836
0.216299
0.215882
0.215599
0.215444
0.215385
0.215428
0.215563
0.215792
0.216088
0.216454
0.216889
0.217384
0.217934
0.218537
0.219193
0.219897
0.220654
0.221462
0.222322
0.22324
0.224219
0.225265
0.226383
0.227586
0.228877
0.230265
0.23177
0.233388
0.235136
0.237025
0.239048
0.241216
0.243527
0.245979
0.248578
0.251337
0.254275
0.257423
0.260822
0.264494
0.268466
0.272746
0.277332
0.282243
0.287523
0.293256
0.299526
0.306381
0.31383
0.321768
0.330517
0.339577
0.348079
0.355682
0.363593
0.372594
0.382081
0.395657
0.399141
0.429776
0.383179
0.53111
0.265272
0.253201
0.183569
0.245121
0.255019
0.25905
0.249857
0.249144
0.246357
0.244418
0.242431
0.240684
0.239085
0.237673
0.236404
0.235304
0.234361
0.23356
0.232897
0.232379
0.231969
0.231684
0.231515
0.231435
0.231447
0.231549
0.23173
0.231963
0.232275
0.232641
0.233051
0.233518
0.234025
0.234579
0.235168
0.235808
0.236483
0.237203
0.237975
0.238797
0.239677
0.240625
0.241645
0.242749
0.243948
0.245251
0.246666
0.248209
0.249879
0.251678
0.253612
0.255672
0.257859
0.260174
0.26263
0.265243
0.268058
0.271104
0.274413
0.278025
0.28193
0.286133
0.290655
0.295521
0.300803
0.306581
0.312881
0.319711
0.326985
0.335024
0.343297
0.351033
0.357991
0.365219
0.373399
0.381985
0.393537
0.395769
0.421093
0.381873
0.525188
0.265344
0.253036
0.183347
0.260656
0.270922
0.275571
0.267014
0.266382
0.263733
0.261928
0.260076
0.258476
0.256969
0.255645
0.254465
0.253418
0.252536
0.251772
0.251123
0.250618
0.250222
0.249923
0.249729
0.249617
0.249592
0.249644
0.249754
0.249927
0.250161
0.250422
0.250736
0.2511
0.251497
0.251905
0.252362
0.252842
0.253373
0.253928
0.254491
0.255143
0.255829
0.256566
0.257366
0.25826
0.259225
0.260296
0.261486
0.262772
0.264197
0.265736
0.267387
0.269163
0.271031
0.273015
0.27512
0.27735
0.279775
0.282425
0.285315
0.288512
0.292003
0.295763
0.299845
0.30424
0.308997
0.314212
0.319884
0.326021
0.332552
0.339817
0.347232
0.354159
0.360438
0.366951
0.374262
0.381844
0.391276
0.392227
0.41281
0.380938
0.514545
0.26618
0.252382
0.1831
0.281852
0.292937
0.298217
0.289836
0.289507
0.286994
0.28544
0.283909
0.282322
0.281071
0.279906
0.278732
0.27783
0.277061
0.27629
0.275634
0.275233
0.274768
0.274447
0.274214
0.274017
0.273964
0.273889
0.273869
0.273952
0.27403
0.274134
0.27428
0.274448
0.274677
0.274849
0.275057
0.275311
0.275619
0.275857
0.276142
0.276517
0.276911
0.277324
0.2778
0.278386
0.278993
0.279765
0.280606
0.28152
0.282618
0.283773
0.285014
0.286398
0.287804
0.289313
0.290934
0.292615
0.294508
0.296621
0.298951
0.301577
0.304522
0.307699
0.311169
0.314926
0.318981
0.323441
0.328279
0.333522
0.33913
0.345426
0.351779
0.357761
0.363265
0.368931
0.375205
0.38158
0.388503
0.388344
0.403666
0.381711
0.495525
0.268742
0.253545
0.186245
0.311131
0.321553
0.326716
0.319191
0.319139
0.316926
0.315829
0.314558
0.313176
0.312247
0.311214
0.310173
0.309464
0.308809
0.308017
0.307435
0.307094
0.306527
0.306244
0.305886
0.305563
0.305492
0.305224
0.304985
0.304946
0.304788
0.304699
0.304594
0.304451
0.304403
0.304303
0.304151
0.304098
0.304048
0.303868
0.303824
0.30379
0.303767
0.303762
0.303842
0.303972
0.304172
0.304516
0.304856
0.305361
0.305967
0.306591
0.307303
0.308101
0.308891
0.309723
0.310658
0.311621
0.312782
0.314158
0.315761
0.317652
0.319844
0.322245
0.324893
0.327776
0.330907
0.334363
0.338132
0.342269
0.34674
0.351842
0.356948
0.361858
0.366472
0.371153
0.376208
0.381081
0.385227
0.383914
0.394547
0.38307
0.476954
0.268865
0.254572
0.186364
0.344284
0.354659
0.360323
0.353168
0.353311
0.351721
0.35078
0.349489
0.348827
0.347849
0.346828
0.346145
0.345508
0.344822
0.344044
0.343647
0.34308
0.342533
0.34225
0.341676
0.34122
0.341022
0.340547
0.340121
0.339887
0.339367
0.339043
0.338678
0.338172
0.337759
0.337349
0.336777
0.336349
0.335867
0.335255
0.334799
0.334308
0.333797
0.333345
0.332973
0.332593
0.332351
0.332145
0.331975
0.331989
0.331982
0.331994
0.332072
0.332143
0.332202
0.332224
0.332328
0.33249
0.332778
0.333325
0.334098
0.33514
0.336469
0.337953
0.339644
0.341519
0.343571
0.345888
0.348491
0.351406
0.35465
0.358469
0.362268
0.366079
0.369758
0.373367
0.377104
0.380268
0.381691
0.379163
0.386404
0.383628
0.460366
0.267634
0.25791
0.186389
0.381169
0.402974
0.392909
0.400409
0.391954
0.392996
0.391692
0.390608
0.389613
0.38912
0.388233
0.387252
0.386575
0.386013
0.385199
0.384351
0.383996
0.38315
0.382513
0.381999
0.381177
0.380625
0.379964
0.379288
0.37858
0.377887
0.377054
0.376295
0.37555
0.374572
0.373693
0.372843
0.371729
0.370832
0.369803
0.368648
0.367709
0.366637
0.365566
0.364607
0.36364
0.362725
0.361894
0.361077
0.360361
0.359678
0.358994
0.3583
0.357584
0.356826
0.356035
0.355168
0.354365
0.353651
0.353034
0.352719
0.352618
0.352759
0.353172
0.353686
0.354346
0.355154
0.356081
0.357235
0.358651
0.360341
0.362361
0.364906
0.367443
0.370197
0.372938
0.375435
0.377794
0.37912
0.377992
0.374375
0.37941
0.383544
0.442227
0.265742
0.262396
0.186442
0.423572
0.448528
0.437823
0.446957
0.436952
0.438628
0.437036
0.436464
0.435385
0.434595
0.43408
0.433011
0.43222
0.43134
0.430498
0.429639
0.428906
0.427816
0.426848
0.426025
0.425011
0.424073
0.422772
0.421833
0.420624
0.41942
0.418186
0.416718
0.415489
0.413944
0.41249
0.410939
0.409248
0.407716
0.406007
0.404219
0.402571
0.400891
0.399112
0.397469
0.395818
0.394183
0.392664
0.3911
0.389602
0.388081
0.386552
0.38499
0.383307
0.381568
0.379818
0.377974
0.376187
0.374545
0.372982
0.371752
0.370741
0.369929
0.369348
0.368832
0.368418
0.36811
0.367904
0.367886
0.368122
0.368621
0.369436
0.370739
0.372071
0.37381
0.375606
0.37698
0.377928
0.377371
0.373959
0.369516
0.373239
0.382344
0.420865
0.26321
0.267954
0.186428
0.473974
0.502229
0.491222
0.501854
0.490205
0.49184
0.490132
0.489347
0.487813
0.487339
0.48628
0.484762
0.483901
0.482549
0.481291
0.480257
0.478755
0.477305
0.475792
0.474554
0.472926
0.471158
0.469566
0.467838
0.465874
0.464215
0.462091
0.459903
0.458081
0.455734
0.453573
0.451196
0.448801
0.446583
0.444066
0.44147
0.439181
0.436705
0.434139
0.431773
0.429368
0.426859
0.42458
0.422197
0.419714
0.417331
0.414809
0.412262
0.409547
0.406799
0.404049
0.40118
0.398445
0.395855
0.393345
0.391177
0.389214
0.387394
0.385753
0.384153
0.382641
0.381192
0.379833
0.378674
0.377745
0.377084
0.376743
0.376858
0.377091
0.377878
0.378705
0.378904
0.37838
0.375906
0.370538
0.365723
0.369085
0.38129
0.399647
0.260154
0.275306
0.186159
0.517769
0.546907
0.53495
0.54685
0.533877
0.535757
0.534648
0.533018
0.531808
0.531393
0.529933
0.528432
0.527423
0.526194
0.524531
0.523353
0.521497
0.519792
0.518351
0.51665
0.514522
0.512401
0.510717
0.508614
0.505893
0.503996
0.501445
0.498759
0.49635
0.493589
0.490784
0.487882
0.484902
0.482022
0.478823
0.475612
0.47263
0.469322
0.466047
0.462798
0.45963
0.456171
0.452938
0.449574
0.446061
0.442721
0.43908
0.435535
0.431852
0.428138
0.424441
0.420697
0.417117
0.413609
0.410262
0.407177
0.404244
0.401444
0.398779
0.396144
0.393614
0.391128
0.388738
0.386571
0.384579
0.382864
0.381478
0.380496
0.379682
0.379515
0.379436
0.378636
0.3769
0.372887
0.366222
0.361442
0.364421
0.375986
0.37346
0.255629
0.28272
0.184916
0.573668
0.607414
0.594209
0.608682
0.590404
0.592919
0.590285
0.588032
0.587261
0.585967
0.583213
0.58106
0.579294
0.5777
0.575334
0.572835
0.570345
0.568213
0.56624
0.562918
0.560385
0.557677
0.555025
0.552354
0.548695
0.545967
0.54288
0.539615
0.53625
0.532862
0.529588
0.525818
0.522435
0.518812
0.514944
0.511285
0.507561
0.503803
0.499724
0.495831
0.492051
0.487837
0.48381
0.479701
0.475506
0.471268
0.466942
0.462661
0.458298
0.453944
0.449538
0.445215
0.440919
0.436681
0.432613
0.428683
0.424833
0.421082
0.417444
0.413797
0.410262
0.40675
0.403349
0.400163
0.397137
0.394432
0.392074
0.390145
0.38862
0.387814
0.386746
0.384616
0.381133
0.375007
0.367047
0.36326
0.367934
0.378948
0.358885
0.252937
0.296846
0.1828
0.558986
0.579875
0.571681
0.580909
0.572852
0.574548
0.572635
0.57163
0.571897
0.571111
0.569444
0.568086
0.567234
0.566663
0.565159
0.563584
0.562257
0.560988
0.559878
0.557529
0.555898
0.554401
0.552474
0.550484
0.548002
0.545865
0.543418
0.540973
0.538138
0.535232
0.532419
0.528975
0.525856
0.52224
0.518501
0.514691
0.510731
0.506677
0.502163
0.497916
0.493416
0.488784
0.484245
0.479686
0.475107
0.470556
0.466218
0.461814
0.457533
0.453283
0.44893
0.44463
0.440203
0.435807
0.431405
0.42708
0.422847
0.418731
0.414827
0.41099
0.407312
0.403674
0.400123
0.396705
0.393405
0.390362
0.387558
0.385032
0.382633
0.380891
0.379478
0.377447
0.374369
0.368981
0.362071
0.359077
0.361232
0.361607
0.325764
0.24603
0.292028
0.174395
0.641485
0.637716
0.641463
0.634225
0.630955
0.629841
0.628008
0.626688
0.624673
0.62256
0.621265
0.619225
0.617192
0.615083
0.613044
0.611086
0.608713
0.606496
0.604247
0.601738
0.599486
0.596875
0.594457
0.591884
0.589125
0.586332
0.583537
0.580752
0.577644
0.57468
0.57153
0.568268
0.565078
0.561576
0.558168
0.554532
0.550895
0.547171
0.543323
0.539605
0.535705
0.531911
0.528187
0.524537
0.520877
0.517388
0.513951
0.510418
0.506892
0.503142
0.49923
0.49509
0.490694
0.486224
0.481581
0.476938
0.472228
0.467533
0.462871
0.458062
0.453254
0.448356
0.443486
0.438715
0.434091
0.429839
0.425944
0.422562
0.420685
0.419925
0.417223
0.411769
0.403666
0.392214
0.38234
0.383528
0.395152
0.391088
0.329228
0.266349
0.306664
0.17375
)
;

boundaryField
{
    inlet
    {
        type            calculated;
        value           nonuniform List<scalar> 
23
(
0.0972131
0.0974566
0.0976941
0.0979263
0.0981584
0.0983959
0.0986456
0.0989133
0.0992063
0.0995319
0.0998996
0.100308
0.100782
0.101535
0.102178
0.10298
0.104005
0.105297
0.106916
0.108918
0.111451
0.113535
0.117791
)
;
    }
    outlet
    {
        type            calculated;
        value           nonuniform List<scalar> 
82
(
0.718527
0.719169
0.711364
0.707318
0.702345
0.701109
0.698696
0.697129
0.694444
0.691613
0.69014
0.687482
0.684822
0.682086
0.679459
0.676994
0.673873
0.671015
0.668141
0.664841
0.661992
0.658604
0.655519
0.652231
0.648668
0.645097
0.64154
0.638055
0.634096
0.63041
0.626498
0.622452
0.618594
0.614302
0.610234
0.605886
0.601596
0.597245
0.592755
0.588526
0.584045
0.579751
0.575572
0.571494
0.567373
0.563466
0.559597
0.555528
0.55144
0.547006
0.542358
0.537432
0.532216
0.526983
0.521576
0.5162
0.510699
0.505125
0.499463
0.493441
0.487306
0.480992
0.474721
0.468631
0.462787
0.4575
0.452808
0.449027
0.447554
0.447381
0.443981
0.436396
0.424801
0.408952
0.396034
0.398359
0.418117
0.422269
0.347601
0.271502
0.340054
0.182451
)
;
    }
    walls
    {
        type            calculated;
        value           nonuniform List<scalar> 0();
    }
    frontAndBack
    {
        type            empty;
    }
    procBoundary3to2
    {
        type            processor;
        value           nonuniform List<scalar> 
88
(
0.256365
0.183619
0.537023
0.269548
0.269548
0.530656
0.413941
0.413941
0.380927
0.407175
0.421729
0.421729
0.315879
0.328703
0.340471
0.352562
0.366563
0.366563
0.264245
0.273326
0.283373
0.294301
0.306281
0.306281
0.223886
0.229195
0.234845
0.240831
0.24717
0.253923
0.261218
0.261218
0.188966
0.191464
0.194111
0.196912
0.199875
0.203002
0.206302
0.209786
0.213468
0.217377
0.221541
0.225997
0.225997
0.22341
0.188641
0.183446
0.191476
0.188475
0.185657
0.183357
0.181481
0.179854
0.178435
0.17714
0.176041
0.175121
0.17435
0.17375
0.17329
0.172979
0.17281
0.172761
0.172835
0.173021
0.173312
0.173705
0.174188
0.174753
0.175407
0.176136
0.176938
0.177814
0.178763
0.179786
0.180876
0.182045
0.183293
0.184615
0.186028
0.187526
0.18912
0.19082
0.192623
0.194544
0.196591
0.196591
)
;
    }
    procBoundary3to6
    {
        type            processor;
        value           uniform 1.43142;
    }
    procBoundary3to7
    {
        type            processor;
        value           nonuniform List<scalar> 
16
(
5.81164
0.241298
0.239135
0.268592
0.28683
0.305713
0.332441
0.364653
0.364653
0.404966
0.450297
0.504516
0.549728
0.608239
0.58546
0.632799
)
;
    }
}


// ************************************************************************* //
