/*--------------------------------*- C++ -*----------------------------------*\
| =========                 |                                                 |
| \\      /  F ield         | OpenFOAM: The Open Source CFD Toolbox           |
|  \\    /   O peration     | Version:  2506                                  |
|   \\  /    A nd           | Website:  www.openfoam.com                      |
|    \\/     M anipulation  |                                                 |
\*---------------------------------------------------------------------------*/
FoamFile
{
    version     2.0;
    format      ascii;
    arch        "LSB;label=32;scalar=64";
    class       volScalarField;
    location    "350";
    object      div(phi);
}
// * * * * * * * * * * * * * * * * * * * * * * * * * * * * * * * * * * * * * //

dimensions      [0 0 -1 0 0 0 0];

internalField   nonuniform List<scalar> 
1340
(
4.48244e-06
-3.98039e-06
2.8103e-06
-2.62084e-06
1.68376e-06
3.2094e-08
2.58157e-06
8.91216e-07
2.394e-07
-1.09558e-06
-1.18425e-06
-1.34233e-06
-8.59712e-07
-8.12216e-07
-5.12535e-07
-6.563e-07
-4.92773e-07
-8.25536e-07
-4.97372e-07
-1.05065e-06
2.49531e-07
-9.09741e-08
5.26883e-06
7.07995e-06
8.08594e-06
6.93008e-06
3.32712e-06
2.04302e-06
3.63002e-06
3.66759e-06
-7.31361e-06
2.14289e-05
3.07228e-06
3.48172e-07
-8.72013e-06
-3.86265e-06
3.24015e-06
2.82803e-09
3.59032e-07
6.98068e-07
-3.39625e-06
-1.08483e-06
2.27676e-06
-1.21794e-06
1.72315e-06
-2.07131e-06
1.81107e-06
6.94666e-07
1.51938e-06
1.25964e-06
-3.62994e-07
-1.10591e-06
-1.19046e-06
-1.22476e-06
-8.50273e-07
-8.63926e-07
-6.0232e-07
-7.72478e-07
-5.94462e-07
-8.36651e-07
-5.61457e-07
-7.77032e-07
3.5851e-08
2.42471e-07
2.57381e-06
3.37303e-06
4.26493e-06
3.43744e-06
2.77113e-06
2.24258e-06
3.02939e-06
3.03401e-06
-2.6105e-06
1.30279e-05
4.63152e-06
4.12426e-06
-4.30096e-08
-4.6418e-07
1.79992e-06
-1.06371e-06
3.04304e-07
-1.92517e-06
-3.34785e-07
-4.67266e-06
2.90575e-06
-3.23583e-06
2.13985e-06
-9.18703e-07
1.90461e-06
1.43169e-06
6.86433e-08
-5.9392e-07
-9.07558e-07
-1.33404e-06
-9.8777e-07
-1.01555e-06
-6.93841e-07
-7.43106e-07
-6.18682e-07
-7.1105e-07
-7.41681e-07
-7.51765e-07
-8.10925e-07
-4.47001e-07
-1.91323e-07
1.44437e-06
2.42924e-06
2.91155e-06
2.98018e-06
2.54605e-06
7.09545e-07
1.63156e-06
1.50875e-06
-3.61031e-06
1.07907e-05
5.434e-07
-1.6097e-06
-7.46541e-06
2.85705e-06
-2.19328e-06
7.59253e-08
-1.9451e-06
-7.32046e-07
-1.43496e-06
1.81807e-06
-2.06815e-06
7.56658e-07
-1.04162e-06
1.74364e-06
9.18065e-07
5.34001e-07
2.58766e-07
-6.1865e-07
-1.03109e-06
-1.12681e-06
-9.71337e-07
-9.77029e-07
-7.4709e-07
-9.0985e-07
-7.18406e-07
-9.72579e-07
-7.99874e-07
-1.02853e-06
-7.68318e-07
-7.0139e-07
8.42209e-08
1.19627e-06
2.61836e-06
3.16865e-06
3.45051e-06
2.89081e-06
2.64363e-06
2.61027e-06
2.46874e-06
-4.00331e-07
8.93363e-06
4.38099e-06
3.88315e-06
9.92949e-07
-1.56995e-06
-6.54562e-07
-1.70301e-06
-1.5663e-06
-1.02737e-06
5.70779e-07
-4.13348e-07
-4.01761e-07
1.03231e-06
2.91525e-07
1.22683e-06
6.09469e-07
-4.04917e-07
-4.668e-07
-1.00753e-06
-8.74123e-07
-1.04855e-06
-7.81704e-07
-9.21163e-07
-7.20895e-07
-8.56088e-07
-7.52199e-07
-8.97852e-07
-8.28388e-07
-8.99777e-07
-6.53057e-07
-3.42153e-07
7.35804e-07
1.77295e-06
2.35279e-06
3.49767e-06
2.54491e-06
1.80246e-06
1.22949e-06
1.51756e-06
-2.05493e-06
7.63905e-06
5.03443e-07
-3.33444e-06
-8.02199e-06
-1.33849e-06
-1.14178e-06
-2.10559e-06
-7.56207e-07
-9.42808e-07
-8.93181e-07
-1.61621e-07
7.10662e-07
-3.94016e-07
1.34211e-06
2.50826e-07
6.5668e-09
8.78321e-08
-6.78671e-07
-7.87686e-07
-8.75187e-07
-8.56525e-07
-8.07415e-07
-9.3099e-07
-8.04341e-07
-9.9168e-07
-8.44805e-07
-1.08756e-06
-8.80749e-07
-1.07402e-06
-6.45796e-07
-4.61828e-07
6.77522e-07
1.43554e-06
2.61309e-06
2.90277e-06
3.27113e-06
3.04002e-06
3.26689e-06
2.72423e-06
9.86929e-07
7.7298e-06
4.94947e-06
4.21294e-06
1.22862e-06
-8.72624e-07
-1.69613e-06
-1.56461e-06
-8.61554e-07
-1.7275e-06
7.87307e-07
-2.88576e-07
7.59966e-07
-5.04501e-08
4.28139e-07
2.26345e-07
-3.71081e-07
-5.37734e-07
-6.25333e-07
-7.94768e-07
-6.90468e-07
-9.05039e-07
-7.90469e-07
-9.56414e-07
-8.02004e-07
-9.26682e-07
-8.27832e-07
-9.13622e-07
-8.12518e-07
-7.61394e-07
-4.37395e-07
1.47181e-07
9.13806e-07
1.5585e-06
2.59116e-06
2.73944e-06
1.66334e-06
1.90025e-06
1.09808e-06
-1.15342e-06
5.53912e-06
-4.14664e-07
-4.1687e-06
-9.38758e-06
-6.00901e-07
-2.08124e-06
-4.61349e-07
-1.28965e-06
6.41415e-07
4.06412e-07
1.89479e-07
2.87781e-07
3.3163e-07
5.2137e-08
-1.97935e-08
-1.2657e-07
-4.25107e-07
-6.76567e-07
-5.70044e-07
-6.5344e-07
-7.90946e-07
-8.28496e-07
-9.74631e-07
-8.53666e-07
-1.03505e-06
-8.67724e-07
-1.06769e-06
-8.07573e-07
-9.02624e-07
-3.67753e-07
-5.51041e-08
9.1807e-07
1.44867e-06
2.35821e-06
2.66568e-06
3.24102e-06
3.37106e-06
3.12616e-06
1.62934e-06
6.33446e-06
5.05966e-06
4.12444e-06
1.36125e-06
-1.43118e-06
-3.49551e-07
-1.4975e-06
1.54703e-06
-1.17498e-07
-7.42212e-08
9.23874e-07
-3.72116e-08
3.46424e-07
3.28181e-07
4.65463e-08
-2.655e-07
-4.40682e-07
-3.67425e-07
-4.95159e-07
-6.38699e-07
-6.7009e-07
-9.4278e-07
-8.40311e-07
-9.7681e-07
-7.99018e-07
-9.29277e-07
-7.48628e-07
-8.7132e-07
-6.26023e-07
-6.56646e-07
-5.75247e-08
9.5292e-08
9.1705e-07
1.34476e-06
2.26816e-06
1.46169e-06
2.06285e-06
9.92246e-07
-3.0606e-07
3.04866e-06
-5.66321e-07
-5.40069e-06
-9.06184e-06
4.10327e-08
-1.4986e-06
1.08165e-06
2.38277e-09
-1.9744e-07
5.15435e-08
-5.15168e-08
-2.00778e-07
-8.35473e-07
-8.76989e-08
-4.41658e-07
-6.65193e-07
-8.39263e-07
-8.64732e-07
-9.60445e-07
-8.60222e-07
-9.46719e-07
-8.28516e-07
-8.54086e-07
-6.85106e-07
-5.16593e-07
-1.58595e-07
3.45221e-07
8.38126e-07
1.57747e-06
2.04082e-06
2.94118e-06
3.15999e-06
3.44982e-06
1.69109e-06
5.43703e-06
5.03862e-06
3.87105e-06
1.48451e-06
-1.47957e-07
-1.96687e-07
-8.72277e-07
1.21301e-07
-4.39302e-07
-1.66879e-07
-5.92775e-07
-7.0526e-07
-9.41983e-07
-8.18964e-07
-9.46309e-07
-7.08034e-07
-8.74235e-07
-5.75794e-07
-8.19182e-07
-3.56613e-07
-5.93351e-07
1.44144e-07
-2.06176e-07
1.0965e-06
6.68177e-07
1.78755e-06
1.04475e-06
1.8193e-06
-1.27425e-06
2.1128e-06
-1.45909e-06
-5.46577e-06
-8.44433e-06
-1.5884e-07
-9.24304e-07
2.19687e-07
-1.39241e-07
-4.29422e-07
-6.50463e-07
-7.9601e-07
-8.90892e-07
-8.2213e-07
-8.33046e-07
-7.10309e-07
-7.30158e-07
-5.2433e-07
-4.78462e-07
-1.44369e-07
5.49737e-08
5.02484e-07
9.52753e-07
1.47426e-06
2.30224e-06
2.77134e-06
3.20211e-06
1.71521e-06
4.70979e-06
5.21134e-06
3.7648e-06
1.62398e-06
1.30805e-07
-1.81372e-07
-1.0234e-07
-2.99789e-07
-5.98361e-07
-7.18943e-07
-8.97885e-07
-7.64606e-07
-8.35113e-07
-5.88682e-07
-7.21025e-07
-4.28612e-07
-6.25996e-07
-2.19666e-07
-4.66721e-07
-6.27201e-09
-7.70293e-08
5.70116e-07
4.3654e-07
1.14338e-06
7.24574e-07
-1.05916e-06
5.3453e-07
-1.67026e-06
-6.0238e-06
-7.65401e-06
-1.93754e-08
-1.15687e-07
-2.16809e-07
-4.52727e-07
-7.20019e-07
-7.42387e-07
-8.39532e-07
-6.04976e-07
-7.04999e-07
-4.32592e-07
-5.18372e-07
-1.89083e-07
-2.47066e-07
1.54431e-07
1.42657e-07
7.35846e-07
8.29427e-07
1.80618e-06
1.97797e-06
2.80539e-06
1.50323e-06
4.29308e-06
4.99449e-06
3.96603e-06
1.51458e-06
-1.56334e-07
7.27687e-08
-1.35016e-07
-3.88937e-07
-6.35415e-07
-7.71135e-07
-7.61492e-07
-6.66407e-07
-6.04798e-07
-4.6605e-07
-4.68649e-07
-3.13816e-07
-3.83556e-07
-2.21236e-07
-4.10133e-07
-7.54959e-08
-2.9252e-07
2.39065e-07
-2.82319e-08
4.08966e-07
-1.61562e-06
-3.88724e-07
-1.94337e-06
-6.81832e-06
-6.99606e-06
-2.15971e-08
-1.04131e-07
-2.81148e-07
-5.54408e-07
-7.28383e-07
-5.94781e-07
-6.26061e-07
-3.7885e-07
-4.73138e-07
-1.69244e-07
-2.62668e-07
5.47156e-08
-5.88837e-08
2.7655e-07
2.82107e-07
6.96217e-07
1.04291e-06
1.53675e-06
1.94332e-06
1.54833e-06
3.58792e-06
4.73658e-06
3.83318e-06
1.45574e-06
6.17229e-08
-2.35403e-07
-5.43222e-07
-6.03436e-07
-6.62541e-07
-4.99771e-07
-5.01642e-07
-3.35516e-07
-3.40943e-07
-2.08222e-07
-2.72954e-07
-2.0605e-07
-3.72173e-07
-2.665e-07
-5.01964e-07
-2.20614e-07
-5.88045e-07
-2.4646e-07
-1.90869e-06
-7.52742e-07
-2.59089e-06
-6.28876e-06
-7.39277e-06
-2.56425e-08
-2.65195e-07
-4.03347e-07
-5.1223e-07
-4.99775e-07
-3.508e-07
-3.69811e-07
-2.01911e-07
-1.95609e-07
-8.60274e-09
-1.92822e-08
1.06993e-07
1.07661e-07
2.506e-07
3.95457e-07
6.87028e-07
1.03147e-06
1.32231e-06
1.47786e-06
2.97857e-06
4.13293e-06
3.57922e-06
1.29668e-06
-1.11413e-07
-3.15641e-07
-4.53801e-07
-3.68085e-07
-4.26417e-07
-2.67986e-07
-3.42083e-07
-1.2276e-07
-2.33213e-07
-5.62791e-08
-2.78009e-07
-1.57662e-07
-4.72698e-07
-3.38321e-07
-6.92883e-07
-5.19252e-07
-1.0599e-06
-1.29388e-06
-1.45707e-06
-2.16409e-06
-6.0732e-06
-7.10178e-06
-1.71531e-07
-2.86886e-07
-3.09991e-07
-2.17891e-07
-2.20804e-07
-2.08775e-07
-1.59477e-07
-6.94294e-08
2.25277e-08
7.39873e-08
1.04531e-07
1.22321e-07
1.681e-07
2.99978e-07
4.31255e-07
7.58616e-07
9.04079e-07
1.45445e-06
2.35666e-06
3.48752e-06
3.0162e-06
1.07886e-06
-1.96628e-07
-6.12935e-08
-2.22984e-07
-1.66303e-07
-2.64812e-07
-1.3961e-07
-1.75383e-07
-1.82395e-08
-1.17052e-07
-3.78873e-08
-2.23472e-07
-2.16647e-07
-4.42781e-07
-4.75348e-07
-7.20079e-07
-8.64664e-07
-1.19303e-06
-1.19633e-06
-2.10773e-06
-4.89921e-06
-6.78466e-06
2.0151e-08
-5.08659e-07
6.28622e-08
-7.61156e-08
-1.26376e-07
-1.15038e-07
3.13086e-09
6.09621e-08
1.36799e-07
1.3352e-07
1.47002e-07
1.73105e-07
2.56433e-07
3.53921e-07
5.94487e-07
7.52725e-07
1.32693e-06
1.90012e-06
2.82589e-06
2.39951e-06
8.81488e-07
4.11419e-07
1.77788e-07
3.87683e-08
-9.1256e-08
-1.38828e-07
-4.06888e-08
-1.85196e-08
4.58399e-08
-1.68262e-08
-2.04428e-08
-1.57385e-07
-1.99741e-07
-4.11337e-07
-4.40906e-07
-7.69678e-07
-7.29459e-07
-1.07891e-06
-1.63279e-06
-3.70729e-06
-5.90223e-06
-3.60308e-07
4.04136e-07
2.43043e-07
-1.13162e-08
-2.451e-08
2.23031e-08
1.40166e-07
1.56372e-07
2.06942e-07
1.5713e-07
2.36925e-07
2.24106e-07
3.83413e-07
4.78197e-07
7.25178e-07
1.13796e-06
1.56206e-06
2.27977e-06
1.79759e-06
9.69142e-07
9.07767e-07
3.32385e-07
1.87928e-07
-2.35772e-08
-4.95851e-08
-1.51777e-09
7.30762e-08
9.37004e-08
1.03044e-07
6.10058e-08
2.29929e-08
-8.47726e-08
-1.58379e-07
-2.90336e-07
-4.33807e-07
-4.80669e-07
-7.54909e-07
-1.13445e-06
-2.76688e-06
-4.30411e-06
7.63135e-07
1.28463e-07
3.77352e-08
-9.31272e-09
1.03474e-07
1.34185e-07
2.34882e-07
1.88631e-07
2.40379e-07
2.04727e-07
2.85837e-07
3.29138e-07
4.57353e-07
6.45827e-07
9.53376e-07
1.31637e-06
1.76933e-06
1.36866e-06
1.49292e-06
2.44902e-07
1.52559e-07
-2.15583e-08
4.5225e-09
3.39192e-08
1.24602e-07
1.29012e-07
1.66389e-07
1.31773e-07
1.242e-07
4.0202e-08
-2.55189e-09
-1.17549e-07
-1.82317e-07
-2.63457e-07
-4.24126e-07
-7.6178e-07
-1.83781e-06
-2.93833e-06
6.65825e-07
-3.11907e-07
1.52464e-08
3.60922e-08
8.12157e-08
1.81478e-07
2.00827e-07
2.31293e-07
2.08777e-07
2.31749e-07
2.47592e-07
3.10852e-07
3.86245e-07
5.59949e-07
7.69439e-07
1.07392e-06
1.38421e-06
8.85477e-07
2.08597e-06
4.78379e-07
1.56058e-07
7.42934e-08
1.2161e-07
1.15042e-07
1.83505e-07
1.53874e-07
1.97463e-07
1.4254e-07
1.39496e-07
6.3446e-08
3.30988e-08
-3.78439e-08
-7.79595e-08
-1.74354e-07
-5.26489e-07
-1.03712e-06
-3.21481e-07
-2.3522e-07
1.80263e-07
2.76203e-07
1.714e-07
2.00791e-07
2.0471e-07
2.15573e-07
1.96247e-07
2.01472e-07
2.16736e-07
2.53054e-07
3.19583e-07
4.40268e-07
6.01665e-07
8.21508e-07
1.03386e-06
1.2308e-06
-1.08016e-07
6.23821e-07
2.08892e-07
2.02794e-07
1.65969e-07
1.85372e-07
1.66666e-07
1.89779e-07
1.73057e-07
1.82009e-07
1.42189e-07
1.29368e-07
8.38793e-08
6.71932e-08
2.25238e-08
-2.42926e-08
-2.27369e-07
-1.37008e-06
1.12715e-06
5.30764e-07
1.88251e-07
1.98192e-07
2.00772e-07
2.11189e-07
1.88886e-07
1.80455e-07
1.61624e-07
1.79282e-07
1.92249e-07
2.45518e-07
3.19516e-07
4.38923e-07
5.85385e-07
5.61575e-07
1.33543e-06
-2.21077e-06
-5.57109e-08
1.61368e-07
1.96555e-07
1.96644e-07
1.82455e-07
1.67683e-07
1.69386e-07
1.61656e-07
1.51087e-07
1.35457e-07
1.1871e-07
1.00374e-07
7.43778e-08
2.30233e-08
-7.0102e-08
-1.56773e-06
2.6633e-06
4.39087e-07
5.19721e-08
1.77754e-07
2.11864e-07
1.82854e-07
1.75369e-07
1.38472e-07
1.37511e-07
1.41031e-07
1.50388e-07
1.75869e-07
2.15041e-07
2.90667e-07
3.64141e-07
2.42742e-07
1.33182e-06
3.42523e-07
1.97826e-07
1.7912e-07
1.57026e-07
1.31661e-07
1.41484e-07
1.47371e-07
1.53112e-07
1.43795e-07
1.29778e-07
1.10492e-07
8.62525e-08
3.05793e-08
1.62357e-08
-1.02258e-06
-1.67134e-08
1.37367e-07
1.49154e-07
1.45862e-07
1.19038e-07
1.19781e-07
1.34012e-07
1.33716e-07
1.37376e-07
1.28742e-07
1.39569e-07
1.71681e-07
2.00974e-07
5.84047e-08
1.01592e-06
3.9752e-07
2.18176e-07
1.706e-07
1.04829e-07
1.09967e-07
1.33478e-07
1.64038e-07
1.74812e-07
1.5663e-07
1.33572e-07
1.06777e-07
7.93692e-08
2.70686e-08
8.78063e-08
-8.47159e-07
-6.80014e-08
1.24757e-07
2.29074e-07
1.4508e-07
1.29212e-07
1.54523e-07
1.65458e-07
1.66156e-07
1.3448e-07
1.01906e-07
8.71484e-08
9.42416e-08
9.36784e-08
-7.97769e-08
8.61568e-07
3.7641e-07
3.53816e-07
1.43497e-07
1.30051e-07
1.35048e-07
1.7131e-07
2.05078e-07
1.82772e-07
1.51159e-07
1.09481e-07
8.72887e-08
5.93919e-08
8.70554e-09
1.56726e-07
-7.26846e-07
2.28424e-07
2.06771e-07
1.53824e-07
1.7489e-07
1.91497e-07
1.93368e-07
1.60944e-07
1.06412e-07
6.46654e-08
4.30111e-08
3.81652e-08
4.45531e-08
-1.96552e-07
8.01518e-07
3.09611e-07
1.38352e-07
1.3595e-07
1.43304e-07
1.96275e-07
1.73594e-07
1.39191e-07
9.07645e-08
5.94742e-08
5.08205e-08
4.34902e-08
-4.16664e-08
2.6787e-07
-3.644e-07
2.94313e-07
9.81006e-08
1.13586e-07
1.83242e-07
1.12242e-07
1.13738e-07
9.06973e-08
4.37059e-08
1.99e-08
1.56533e-08
-1.31138e-08
6.24206e-08
1.00521e-07
4.0112e-07
-1.3513e-07
4.10942e-08
1.23428e-07
-1.5194e-08
3.31209e-08
8.02937e-08
3.99995e-08
2.65959e-08
2.03847e-08
1.36776e-08
3.8234e-08
1.36917e-07
-1.00966e-07
-1.10969e-07
1.70961e-07
-2.08213e-08
-5.17617e-08
-5.83774e-08
3.37447e-08
-2.78504e-08
4.2085e-08
2.03223e-08
9.75375e-12
6.03571e-09
2.82625e-08
-1.63939e-07
1.85295e-07
-1.23028e-07
8.91737e-08
-1.3103e-07
-3.75966e-08
-1.52841e-07
3.86032e-08
3.68832e-08
1.69977e-09
6.22675e-09
2.13945e-09
-3.11351e-08
1.67684e-07
-3.67529e-07
1.11088e-07
-2.23491e-07
-7.27924e-08
-2.0656e-07
-1.56271e-08
4.49568e-08
5.28777e-09
1.62582e-08
-1.83545e-08
5.33548e-10
3.43213e-08
-2.27905e-07
2.48652e-07
7.39892e-08
-1.63602e-07
-9.01622e-08
-6.5989e-09
-1.46118e-08
4.4096e-09
-4.95226e-08
-1.69053e-08
-3.25202e-08
-4.81617e-08
1.47311e-07
-1.94647e-07
-2.82307e-07
-9.92153e-08
-4.53527e-08
-3.07937e-08
-6.94552e-09
-4.86697e-08
-1.54043e-08
-6.9673e-08
-1.16956e-08
1.5808e-08
-1.63986e-07
1.66185e-07
1.17091e-07
-8.04431e-08
-6.3937e-08
-3.70342e-08
-2.70788e-08
-2.44509e-08
-6.48553e-08
-2.59097e-08
-6.74736e-08
-3.5504e-08
1.25767e-07
-1.19194e-07
4.91123e-08
-8.86538e-08
8.93602e-10
-5.11627e-08
2.27706e-09
-1.83712e-08
-3.27744e-08
7.09724e-08
2.29506e-08
-8.7432e-08
1.11213e-07
-2.09267e-07
-2.05295e-08
-6.15345e-08
3.29327e-08
4.27977e-09
2.33402e-08
1.14031e-07
-1.86179e-08
2.26283e-08
6.59054e-08
-8.64161e-08
1.87085e-08
-2.49597e-08
1.10542e-08
2.17633e-08
3.19894e-08
8.99444e-08
7.86615e-09
7.79723e-08
-2.44396e-09
-1.22985e-07
2.37055e-08
-1.22516e-07
-1.34452e-08
8.9618e-09
2.00608e-08
4.45718e-08
3.09321e-08
5.9729e-08
1.533e-09
-6.14638e-08
7.26427e-08
-4.91129e-08
5.23921e-08
-1.2254e-09
1.83297e-08
2.02218e-08
3.24198e-08
3.58825e-08
3.75541e-08
8.42554e-09
8.87207e-08
-5.19429e-08
9.43514e-08
-1.13874e-07
2.79893e-08
-2.26608e-09
3.49812e-08
1.07623e-08
4.10068e-08
1.87519e-08
5.57996e-08
8.1939e-10
1.07375e-07
1.52901e-07
-5.68655e-08
2.13671e-08
-1.09411e-08
2.74352e-08
9.03035e-09
2.03837e-08
5.59207e-08
1.44836e-08
2.23967e-08
9.4211e-08
-2.56683e-09
1.06641e-08
8.66226e-09
9.50264e-09
4.69126e-08
-8.50138e-09
6.49116e-08
-2.97678e-08
-4.27762e-08
-2.21144e-09
4.521e-09
1.00993e-08
2.10945e-08
-3.43317e-09
6.39814e-08
-1.67742e-08
5.68441e-08
3.66198e-08
3.18029e-09
1.31015e-08
1.66348e-08
1.2103e-08
4.04448e-08
-1.07172e-08
3.69494e-08
-1.69627e-08
-4.20784e-08
4.04067e-09
7.54889e-09
1.27093e-08
1.79739e-08
-3.21919e-09
1.71296e-08
-9.5711e-09
1.83845e-08
2.7219e-08
1.31851e-09
1.22407e-08
1.10695e-08
9.10296e-09
8.94734e-09
6.59026e-09
7.53782e-09
1.10613e-08
-3.53145e-08
2.75294e-09
6.69166e-09
7.51399e-09
1.15538e-08
1.23309e-08
7.99866e-09
1.4946e-08
1.11409e-09
-1.60994e-10
1.28618e-09
9.62084e-09
5.57683e-09
4.90827e-09
1.72818e-08
5.9275e-09
-2.67751e-08
-3.7779e-09
6.95275e-09
1.84421e-10
2.4779e-09
2.19597e-08
5.27225e-10
2.32729e-08
-1.47826e-08
1.94852e-09
-7.07469e-10
1.79976e-08
-9.25755e-09
2.25036e-08
-1.26951e-08
2.69186e-08
1.63521e-09
5.95741e-09
-1.09849e-08
1.57114e-08
-1.56837e-08
1.58202e-08
-1.20266e-08
8.0049e-10
-8.90722e-10
1.29029e-08
-6.02786e-09
1.07122e-08
-1.40503e-08
1.54942e-08
2.1775e-11
4.63476e-09
-4.12852e-10
1.56848e-09
-7.85881e-09
-9.20388e-11
-2.10364e-08
-2.3613e-09
-1.39669e-09
1.01499e-09
8.0639e-10
-1.471e-09
8.39927e-09
-1.91968e-09
2.02515e-09
2.50256e-09
-6.66617e-10
4.5752e-09
-1.986e-08
-2.39052e-09
-2.37222e-09
1.48511e-10
2.88764e-09
-1.12953e-10
6.09587e-09
-3.37744e-09
-2.23519e-10
1.37335e-10
-1.06315e-09
2.91785e-09
-2.32112e-08
6.42285e-11
-2.5426e-09
-1.86618e-09
1.72653e-09
-2.3431e-09
1.98158e-08
-1.02101e-08
-4.66043e-09
2.29181e-09
-3.77582e-09
4.18535e-09
7.49058e-09
1.19986e-10
-9.14755e-09
2.50699e-09
-1.11464e-08
-1.81359e-08
-1.33581e-08
-7.54113e-09
-1.5225e-08
-5.00793e-09
-2.99543e-09
-8.75312e-09
-9.78814e-09
-5.79303e-09
-9.23552e-09
-2.07358e-08
-6.85439e-09
-5.61345e-09
-6.93521e-09
-1.12442e-08
-8.91304e-09
-5.70664e-09
-6.92415e-09
-2.45114e-08
-7.56082e-09
-5.44433e-09
-6.7186e-09
)
;

boundaryField
{
    inlet
    {
        type            extrapolatedCalculated;
        value           nonuniform List<scalar> 4(-2.45114e-08 -7.56082e-09 -5.44433e-09 -6.7186e-09);
    }
    outlet
    {
        type            extrapolatedCalculated;
        value           nonuniform List<scalar> 0();
    }
    walls
    {
        type            extrapolatedCalculated;
        value           nonuniform List<scalar> 
42
(
4.48244e-06
-3.98039e-06
2.8103e-06
-2.62084e-06
1.68376e-06
3.2094e-08
2.58157e-06
8.91216e-07
2.394e-07
-1.09558e-06
-1.18425e-06
-1.34233e-06
-8.59712e-07
-8.12216e-07
-5.12535e-07
-6.563e-07
-4.92773e-07
-8.25536e-07
-4.97372e-07
-1.05065e-06
2.49531e-07
-9.09741e-08
5.26883e-06
7.07995e-06
8.08594e-06
6.93008e-06
3.32712e-06
2.04302e-06
3.63002e-06
3.66759e-06
-7.31361e-06
2.14289e-05
3.07228e-06
3.48172e-07
-8.72013e-06
-3.86265e-06
3.24015e-06
2.82803e-09
3.59032e-07
6.98068e-07
-3.39625e-06
-1.08483e-06
)
;
    }
    frontAndBack
    {
        type            empty;
    }
    procBoundary5to0
    {
        type            processor;
        value           nonuniform List<scalar> 4(2.77057e-07 -1.17165e-06 -1.76426e-07 -1.79889e-06);
    }
    procBoundary5to1
    {
        type            processor;
        value           nonuniform List<scalar> 
13
(
-5.14046e-06
-4.1196e-06
-4.1196e-06
-1.02322e-06
-1.32798e-06
-1.32798e-06
-3.8689e-07
-1.41623e-06
-1.41623e-06
1.45932e-07
-1.09702e-06
-2.47176e-06
-2.47176e-06
)
;
    }
    procBoundary5to4
    {
        type            processor;
        value           nonuniform List<scalar> 
95
(
1.05343e-06
-6.34236e-08
8.314e-07
8.314e-07
1.1065e-07
3.63748e-07
3.63748e-07
6.50069e-08
-3.49199e-07
-3.49199e-07
-1.19976e-06
-1.19976e-06
-8.48987e-07
-8.48987e-07
-1.3343e-07
-2.96991e-08
-2.96991e-08
6.33624e-08
6.33624e-08
6.73901e-08
-3.23218e-08
-3.23218e-08
-5.98697e-08
-2.11103e-07
-2.11103e-07
-7.05939e-08
-6.17908e-07
-6.17908e-07
3.91101e-07
-2.47365e-07
1.0045e-07
1.0045e-07
6.0861e-07
1.26016e-07
-2.43283e-07
-2.43283e-07
4.23064e-07
-2.33691e-07
-1.61871e-07
-1.61871e-07
4.19956e-07
-1.57866e-07
-4.7891e-08
-4.7891e-08
2.47194e-07
-1.91445e-07
3.78018e-07
-1.2711e-07
2.48339e-07
2.48339e-07
1.66395e-07
8.73939e-09
2.41697e-07
-2.10107e-07
-1.84545e-07
-1.84545e-07
8.06746e-08
-2.19237e-07
1.54876e-07
-1.78923e-07
-2.16809e-07
-2.16809e-07
4.81747e-08
-1.59565e-07
4.97416e-08
-1.16497e-07
1.07732e-07
-1.16077e-07
-1.36296e-07
-1.36296e-07
4.87989e-08
-6.54679e-08
4.08618e-08
-5.332e-08
2.67042e-08
-4.34204e-08
-4.69954e-09
1.26399e-08
1.26399e-08
-1.70921e-08
2.19277e-08
-2.57463e-08
1.60961e-08
-2.33566e-08
1.24369e-08
-2.36188e-08
1.78197e-08
-2.33342e-08
-2.8e-08
-2.8e-08
5.54904e-09
-2.1748e-08
2.26444e-09
-1.87541e-08
-1.06409e-08
)
;
    }
    procBoundary5to6
    {
        type            processor;
        value           nonuniform List<scalar> 
86
(
2.93824e-05
1.18789e-05
1.89568e-05
7.82965e-06
1.95015e-05
9.02745e-06
2.19435e-05
1.08036e-05
2.1248e-05
1.08031e-05
1.79402e-05
1.01238e-05
1.45481e-05
9.23212e-06
1.13193e-05
7.92624e-06
8.58042e-06
6.2909e-06
6.29114e-06
4.60626e-06
4.67732e-06
3.29354e-06
3.74225e-06
2.27995e-06
2.56548e-06
1.72663e-06
1.80496e-06
1.28935e-06
1.23396e-06
1.62013e-06
7.15676e-08
1.44362e-06
-1.5595e-07
-2.90914e-06
-2.90914e-06
1.61597e-06
-1.06491e-06
1.27309e-06
-9.30691e-07
1.07371e-06
-8.18396e-07
8.92643e-07
-4.14403e-07
3.44911e-07
-2.99093e-07
1.94697e-07
-2.91084e-07
-2.91084e-07
5.81486e-08
-3.85851e-08
6.04415e-08
1.7476e-08
-7.75825e-09
-9.54914e-09
-1.12592e-08
2.10689e-08
-3.43489e-08
-3.43489e-08
-2.46106e-08
4.0779e-08
-4.4916e-09
3.73528e-08
4.99433e-09
1.62499e-08
2.1526e-08
2.1526e-08
2.28938e-08
1.01116e-08
2.27313e-08
-1.49511e-08
7.31535e-09
-1.17265e-08
-6.01476e-09
-6.01476e-09
1.82821e-09
4.78966e-09
1.46917e-09
9.42489e-10
-3.60928e-09
-4.18139e-10
-2.1633e-08
-1.26613e-08
-1.1779e-08
-1.1779e-08
-1.07881e-08
-1.24323e-08
)
;
    }
}


// ************************************************************************* //
