/*--------------------------------*- C++ -*----------------------------------*\
| =========                 |                                                 |
| \\      /  F ield         | OpenFOAM: The Open Source CFD Toolbox           |
|  \\    /   O peration     | Version:  2506                                  |
|   \\  /    A nd           | Website:  www.openfoam.com                      |
|    \\/     M anipulation  |                                                 |
\*---------------------------------------------------------------------------*/
FoamFile
{
    version     2.0;
    format      ascii;
    arch        "LSB;label=32;scalar=64";
    class       volVectorField;
    location    "350";
    object      momentError;
}
// * * * * * * * * * * * * * * * * * * * * * * * * * * * * * * * * * * * * * //

dimensions      [0 1 -2 0 0 0 0];

internalField   nonuniform List<vector> 
1340
(
(-0.00177621 0.00873212 -6.95745e-15)
(-0.00124082 0.00857306 2.41174e-14)
(-0.000100806 0.00572933 -4.72385e-14)
(0.000338482 0.00540942 1.77791e-14)
(0.000658817 0.00483098 1.10252e-13)
(0.000880481 0.00424239 -1.75118e-13)
(0.00105716 0.00364372 9.00046e-14)
(0.00110838 0.0030022 -1.11075e-13)
(0.00107106 0.00244257 -2.54648e-13)
(0.000983635 0.00192493 3.44138e-13)
(0.000866698 0.00159546 1.24155e-13)
(0.00049592 0.00092529 -2.28821e-13)
(0.000220878 0.000515109 -3.34539e-13)
(-1.12538e-05 0.000175724 -5.72057e-14)
(-0.00026576 -0.000123992 -1.39773e-13)
(-0.000515819 -0.000383379 -3.10403e-13)
(-0.000769588 -0.000585585 -1.4676e-13)
(-0.00103275 -0.000746907 8.32721e-13)
(-0.00163998 -0.000948484 4.23309e-13)
(-0.00137923 -0.000655432 -5.95087e-13)
(-0.00166942 -0.000754321 1.05311e-13)
(-0.00194438 -0.000986891 1.53272e-13)
(-0.0106877 -0.00183055 -6.74742e-14)
(-0.0136426 -0.00302708 -1.5156e-13)
(0.00792197 -0.000409027 3.57044e-14)
(0.0213873 0.00377065 -2.34352e-15)
(0.0123258 0.00494289 4.15488e-14)
(0.00120179 0.00339817 -1.64642e-14)
(-0.006355 0.00114878 4.39562e-14)
(-0.00871589 -7.10798e-05 1.54488e-13)
(-0.00492394 -0.000303871 3.03082e-14)
(-0.000789691 -0.000300046 -1.28624e-13)
(0.00183783 -0.00032485 -7.93157e-15)
(0.00130356 -0.000152767 -2.15704e-13)
(0.000367161 0.000108084 -2.82306e-13)
(-0.00201536 0.00803361 -1.07648e-14)
(-0.00214676 0.00654489 2.65547e-14)
(-0.00211744 0.00488492 1.73324e-15)
(-0.00181897 0.00339627 3.61639e-14)
(-0.00148039 0.00229052 -3.2886e-14)
(-0.00114911 0.00138374 -9.40107e-14)
(-0.000485601 0.000487023 -1.07391e-13)
(0.000523417 0.00625007 -1.31412e-14)
(0.00106383 0.00607847 5.88607e-15)
(0.0014644 0.0042216 7.81659e-15)
(0.00196112 0.00404975 -3.36687e-14)
(0.00226838 0.00372226 2.10351e-14)
(0.00247863 0.00334522 8.04071e-14)
(0.00267273 0.00292247 1.03902e-13)
(0.00275087 0.00248773 1.00646e-13)
(0.0027124 0.00207817 -3.9879e-15)
(0.00265317 0.00173346 1.90692e-13)
(0.0024882 0.00135291 -2.0887e-13)
(0.00246091 0.00150769 -1.19536e-13)
(0.00238994 0.00149282 4.48637e-13)
(0.00234791 0.00136412 1.28262e-13)
(0.00213875 0.00133152 -1.19192e-13)
(0.00196353 0.00129212 -1.78017e-14)
(0.00174257 0.00130005 3.42068e-13)
(0.00145192 0.00136005 -1.53332e-13)
(0.000302315 0.00161194 -4.9196e-13)
(-0.00322656 0.00162565 1.88447e-13)
(0.00156962 0.00146042 2.35438e-13)
(-0.00926191 0.0017302 4.67798e-14)
(0.00643047 -0.00177365 -1.30898e-13)
(0.0641004 0.00619282 1.92547e-13)
(0.0627011 0.0126693 -4.19945e-14)
(-0.0137285 0.0068425 -7.04787e-14)
(-0.0575026 0.000940017 -3.01917e-14)
(-0.0344277 0.000357779 5.59806e-15)
(-0.0140831 -0.000544627 -1.49943e-14)
(-0.0106873 -0.00193001 -1.58664e-14)
(-0.00314901 -0.00165867 -2.03996e-14)
(0.000881891 -0.000895069 3.52646e-14)
(0.00119632 -0.000348186 -1.8821e-13)
(0.00167909 -0.000122052 -2.24049e-13)
(0.000899457 6.59898e-05 1.62298e-13)
(0.000163279 0.0058601 -4.63958e-15)
(-0.000266179 0.0048925 1.2409e-13)
(-0.000603401 0.00380557 -7.98192e-15)
(-0.000736381 0.00293421 -1.29069e-13)
(-0.000794173 0.002137 -2.5686e-14)
(-0.000753836 0.00138444 1.27342e-13)
(-0.000338773 0.00500895 -5.07272e-15)
(-5.2223e-05 0.0048174 -8.21987e-16)
(0.000303445 0.00349541 -5.8398e-15)
(0.000591402 0.00348876 1.55552e-14)
(0.00078231 0.00331362 3.91374e-15)
(0.000957019 0.00303991 -3.37433e-14)
(0.00112536 0.00276904 -1.07619e-13)
(0.00121985 0.00246024 -9.54257e-14)
(0.00125303 0.0021438 -1.11327e-13)
(0.00125457 0.001848 1.10093e-14)
(0.00121221 0.00157333 2.64068e-13)
(0.00113771 0.00128732 7.06231e-14)
(0.00106016 0.00100775 -9.93139e-14)
(0.000954255 0.000798713 -2.41063e-13)
(0.000965414 0.000597669 1.10248e-13)
(0.00104157 0.000440628 1.45927e-13)
(0.00114596 0.000341543 -9.42445e-14)
(0.00137688 0.000113594 -1.89382e-13)
(0.00220843 -0.000850349 3.17166e-13)
(0.00596107 -0.00125514 -9.48909e-14)
(0.00207596 0.00116955 -1.19556e-13)
(0.00447804 -0.00365358 1.78547e-13)
(0.00329447 -0.00333306 7.39135e-14)
(-0.0136222 -0.0089307 -3.35292e-15)
(-0.0433047 -0.0102749 -3.30813e-14)
(-0.0683211 -0.0100616 3.5563e-15)
(-0.0288469 0.000825814 -3.05935e-14)
(-0.00591951 0.00244074 2.10614e-14)
(0.00038189 -0.000452329 -3.31767e-14)
(0.0192892 -0.00227272 -7.2086e-14)
(0.0162038 -0.00162043 6.96024e-14)
(0.0057431 -0.000975755 3.08587e-14)
(0.000646444 -0.000327298 -1.21842e-13)
(4.94937e-06 0.000215735 7.82251e-14)
(-0.000560922 0.000378911 1.6501e-14)
(-0.000539026 0.00474921 2.92157e-14)
(-0.000669923 0.0040248 -2.76846e-14)
(-0.000751255 0.00314963 -9.83374e-14)
(-0.000783528 0.00251059 4.48507e-14)
(-0.000747017 0.0019048 2.06032e-14)
(-0.000651103 0.00132221 -6.45687e-14)
(0.000104173 0.00399503 7.92626e-15)
(0.000372046 0.00379775 -2.3434e-15)
(0.000613053 0.00286752 6.5358e-17)
(0.000887282 0.00287593 -7.12964e-15)
(0.00107426 0.00270923 1.99933e-15)
(0.00124298 0.00247713 3.5819e-14)
(0.00141443 0.00224816 5.84708e-14)
(0.00151443 0.00198575 5.46353e-14)
(0.0015632 0.00170926 -1.33397e-13)
(0.00158116 0.00144753 -1.11649e-13)
(0.00155213 0.00119631 1.41526e-13)
(0.00148881 0.000963536 2.56594e-13)
(0.00139123 0.000783062 1.35706e-13)
(0.00127623 0.000660269 -4.72166e-13)
(0.00119909 0.000544671 -1.62167e-13)
(0.00103139 0.000547648 3.85924e-13)
(0.000926804 0.000523416 8.39265e-14)
(0.000850212 0.000531327 -1.24272e-13)
(0.000903378 0.000800522 -2.28421e-13)
(0.000559367 0.00187971 1.97916e-13)
(0.00158697 0.000681788 4.3595e-14)
(0.00474534 0.00288621 -2.22442e-13)
(0.00250372 -0.00027341 1.65578e-13)
(0.00147923 0.000194327 -1.14165e-13)
(0.0022472 -0.00240442 -3.71907e-14)
(-0.0249896 0.0144558 3.55852e-14)
(-0.0318841 0.0122168 -4.55843e-14)
(-0.0511789 0.00568006 1.00961e-14)
(0.0230368 -0.00237303 1.36351e-14)
(0.0123234 0.00199379 2.10878e-14)
(0.0372708 -0.00393183 -9.03726e-15)
(0.0125614 8.25868e-05 2.55479e-14)
(0.00185652 9.80669e-05 2.07237e-13)
(-0.00305037 0.000874045 5.34583e-14)
(-0.00256689 0.000749448 -7.58426e-14)
(-0.000114508 0.00379285 1.88156e-14)
(-0.000302232 0.00328685 -3.6873e-14)
(-0.00045243 0.00263194 -4.03957e-15)
(-0.000552234 0.00216933 -3.37257e-14)
(-0.000583723 0.0016976 -2.08278e-14)
(-3.17311e-05 0.00332768 -4.04093e-15)
(0.000151882 0.00315671 4.7789e-15)
(0.000331782 0.00246637 5.76612e-17)
(0.000541325 0.0025138 -4.17825e-15)
(0.00068133 0.00239602 -2.8838e-14)
(0.000815055 0.00222432 3.46397e-14)
(0.000954129 0.00207531 1.26378e-14)
(0.00103645 0.00188413 -7.01602e-14)
(0.00108729 0.00167662 -5.82347e-14)
(0.0011132 0.00147738 -1.21388e-13)
(0.00109999 0.00127915 1.74616e-14)
(0.00106036 0.00109286 -1.3236e-13)
(0.000998179 0.000930168 8.04635e-15)
(0.000930683 0.000788856 3.54368e-13)
(0.000858042 0.000673536 -2.34217e-13)
(0.000813411 0.000540618 -1.6767e-13)
(0.000800934 0.00042266 1.01583e-13)
(0.00079948 0.000343159 -1.3197e-13)
(0.000867809 0.000316196 8.48926e-14)
(0.000856922 0.000222352 -1.4397e-13)
(0.00109714 0.000317249 -1.61823e-13)
(0.00102175 1.90989e-05 1.83272e-13)
(0.000667764 -0.000702988 -4.05362e-14)
(0.00209634 -0.00083621 8.96899e-14)
(0.00533304 0.00121275 5.67728e-14)
(0.0494431 -0.00246731 6.36755e-15)
(0.0304502 -0.0016424 1.0882e-13)
(0.032486 -0.00648757 -2.11481e-14)
(-0.0123772 -0.00703325 2.25057e-14)
(-0.0112083 0.000373828 -5.57926e-14)
(0.0113873 0.00453362 -1.55441e-13)
(0.00131953 -0.000939528 1.29596e-15)
(0.00382388 0.000825592 1.40172e-13)
(-0.00447167 0.00091088 -3.31426e-14)
(-0.00465711 0.000812156 -1.04849e-13)
(-0.000188785 0.00315951 2.02819e-14)
(-0.000304627 0.0027666 1.43626e-14)
(-0.000402091 0.00223843 -3.19922e-14)
(-0.000473053 0.00188018 7.88743e-14)
(-0.000502722 0.00150334 1.86885e-13)
(3.05365e-05 0.00278435 1.93836e-15)
(0.00019383 0.00264063 5.06511e-16)
(0.000340169 0.00212132 3.16222e-15)
(0.00052854 0.00216301 -2.45917e-15)
(0.00065562 0.00206295 -1.08422e-15)
(0.00077705 0.00192052 1.63419e-14)
(0.000907139 0.00179747 7.60588e-15)
(0.000988599 0.00163264 4.04806e-14)
(0.00104456 0.00145121 6.79714e-14)
(0.00108136 0.0012748 -3.20455e-14)
(0.00108244 0.00109547 -7.79467e-15)
(0.00106061 0.000922555 7.50119e-14)
(0.00102065 0.000766377 -1.45515e-13)
(0.000965951 0.000631295 -2.89399e-13)
(0.00090666 0.000516275 1.75237e-13)
(0.000854527 0.000410758 2.68364e-13)
(0.00078781 0.000372891 -3.55862e-13)
(0.000760734 0.000348626 6.06703e-14)
(0.000781465 0.000374242 1.119e-13)
(0.000881814 0.000302884 -1.1297e-13)
(0.000954481 -1.10261e-05 8.56253e-14)
(0.000993766 -0.000490087 -8.73397e-14)
(0.000489002 -0.00164528 -1.69252e-13)
(-0.000875595 -0.00199704 -5.03182e-14)
(-0.00136346 0.000321115 -1.16207e-13)
(0.000234338 0.00310248 5.63248e-14)
(0.00764553 0.00171253 -1.62127e-14)
(0.00403196 -0.00145388 -1.09021e-14)
(-0.00431566 -0.00290639 2.13879e-14)
(0.0189417 -0.00546861 4.25648e-14)
(-0.0241524 0.00214711 3.28573e-14)
(0.00240519 0.000384536 -4.52651e-14)
(0.000450485 0.00109079 -1.16437e-13)
(0.000567778 0.00050225 -1.48669e-13)
(-0.0019898 0.000234666 3.37838e-14)
(-0.000110267 0.00264706 8.5945e-15)
(-0.000222796 0.00234311 -2.0692e-14)
(-0.000317767 0.00192144 1.04905e-14)
(-0.000389933 0.00163794 -5.8305e-15)
(1.13377e-05 0.00237175 3.09089e-15)
(0.000144503 0.00222327 5.82331e-16)
(0.000264692 0.0018493 -1.12571e-15)
(0.000421279 0.00190363 4.17087e-15)
(0.000522718 0.00180209 -8.69287e-15)
(0.000627034 0.00170324 -1.09612e-15)
(0.000739009 0.00162366 2.36022e-14)
(0.00081051 0.00149631 -1.1148e-14)
(0.000861414 0.00135219 -3.96182e-14)
(0.000897173 0.00121036 2.65393e-14)
(0.000902544 0.00106167 -6.0781e-14)
(0.000889373 0.00091649 -1.50868e-13)
(0.00086186 0.000783088 1.0661e-13)
(0.000820143 0.000663649 3.77184e-13)
(0.000775366 0.00055828 -1.38904e-14)
(0.000727341 0.000470432 -4.01385e-13)
(0.000686217 0.000383776 3.32547e-13)
(0.000684083 0.000317501 2.33377e-13)
(0.000719634 0.000279004 1.24571e-13)
(0.000781299 0.000193132 5.8737e-14)
(0.000844997 1.87544e-05 -2.88415e-14)
(0.000892249 -0.000368483 1.61936e-13)
(0.000358327 -0.00118787 1.11966e-13)
(-0.00100914 -0.00148725 -1.01882e-14)
(-0.00179178 0.000115833 2.14263e-13)
(-0.000313287 0.00220289 -6.57066e-14)
(0.00161013 0.00216149 -7.65329e-15)
(0.00291262 -0.000283992 5.67714e-15)
(0.00119244 -0.0021272 -2.01411e-14)
(-0.00345953 -0.00139525 -2.08166e-14)
(-0.00332991 -0.000217028 -1.52575e-14)
(-0.000958638 0.00034596 4.77779e-14)
(0.00120154 0.000731896 -2.27677e-14)
(0.00259177 0.000340582 -1.2799e-13)
(0.00290395 -0.000404369 -2.07585e-14)
(-0.000100168 0.0022537 -9.66479e-15)
(-0.00019221 0.00200979 1.21939e-14)
(-0.000270024 0.00166472 -2.61346e-14)
(-0.000331802 0.00143725 -3.94486e-15)
(2.05384e-05 0.00203382 1.40102e-15)
(0.000135954 0.00192643 1.51019e-15)
(0.000236365 0.00159786 -9.49846e-16)
(0.000372761 0.00165912 -1.91845e-15)
(0.000473609 0.00163804 -3.80383e-15)
(0.00055164 0.00148562 1.65083e-14)
(0.000648399 0.00140976 1.38777e-14)
(0.00071783 0.00131876 -5.19158e-14)
(0.000770564 0.00120714 2.17323e-14)
(0.000810857 0.00109197 1.11293e-13)
(0.000822177 0.000963538 4.63197e-14)
(0.000817819 0.000833056 2.13125e-14)
(0.000800884 0.000709865 -1.8789e-13)
(0.000771244 0.00059564 -4.29874e-13)
(0.000736341 0.000493127 -3.04049e-13)
(0.000697896 0.000402093 1.20073e-13)
(0.000659552 0.000317529 -7.38555e-14)
(0.000643534 0.000267225 -3.77126e-13)
(0.000666726 0.000228466 -1.94586e-13)
(0.000708407 0.000139874 1.60892e-13)
(0.000748104 -1.94043e-05 1.60972e-13)
(0.000736811 -0.0003224 -9.33423e-14)
(0.000340635 -0.000875711 -3.83147e-14)
(-0.000625504 -0.000991278 2.40021e-15)
(-0.00115759 0.00027044 -6.09665e-14)
(-9.38272e-05 0.00189113 6.3294e-14)
(0.0019093 0.00178049 7.21988e-15)
(0.00295063 -6.73198e-05 4.3206e-15)
(0.00184875 -0.00156148 -4.41679e-15)
(0.000196336 -0.00159534 5.21828e-14)
(-0.0015662 -0.000630714 3.49653e-14)
(-0.00128352 0.000227499 -3.44831e-15)
(-0.000146948 0.000657454 1.13117e-13)
(0.00115578 0.000667851 7.8073e-14)
(0.000839958 0.00223719 -4.0453e-14)
(-7.70715e-05 0.00193534 7.39109e-15)
(-0.000156473 0.00173625 -1.2044e-14)
(-0.000224595 0.00145606 3.27006e-15)
(-0.000279875 0.00126959 6.10908e-14)
(2.39084e-05 0.00175891 2.41719e-15)
(0.000117877 0.00181042 4.02393e-15)
(0.000206072 0.00143058 -1.76132e-16)
(0.000321421 0.0014761 1.65153e-18)
(0.000419068 0.00155619 -2.53944e-15)
(0.000490177 0.00140275 -6.73596e-15)
(0.000579653 0.00134609 -4.93976e-15)
(0.00062052 0.0011951 -5.23729e-14)
(0.000663456 0.00108525 -1.00752e-15)
(0.000705957 0.000996942 1.92826e-14)
(0.000722408 0.000894007 -2.32929e-14)
(0.000722662 0.000784631 1.41253e-13)
(0.000712962 0.000677614 1.49079e-13)
(0.000690987 0.000575761 2.69487e-14)
(0.000663576 0.000482447 2.76883e-13)
(0.000632687 0.00039774 -5.76126e-14)
(0.000598663 0.000322708 -7.3018e-16)
(0.000579547 0.00025501 2.14475e-13)
(0.00059947 0.000198718 9.99274e-14)
(0.000626664 0.000110816 -2.94224e-14)
(0.000640177 -3.16612e-05 -1.21913e-13)
(0.00059429 -0.000262738 -1.15885e-14)
(0.000282205 -0.000625118 -9.36617e-14)
(-0.000406933 -0.000649554 -8.10407e-14)
(-0.000762792 0.000304927 4.88766e-14)
(5.98587e-05 0.0015221 -3.10937e-14)
(0.00151614 0.00146069 -5.64904e-14)
(0.0020346 5.70412e-05 6.45179e-15)
(0.00113251 -0.00113248 -3.11517e-15)
(-0.000242012 -0.00114619 -3.83238e-15)
(-0.00110011 -0.000447477 8.20632e-14)
(-0.00120878 0.000268008 -2.93319e-14)
(-0.000677496 0.000641082 -3.9042e-14)
(0.000171434 0.000621706 2.27063e-13)
(-0.000259598 0.000628252 3.70733e-14)
(-5.99992e-05 0.00167459 -1.3144e-14)
(-0.000128971 0.0015129 -3.10164e-14)
(-0.000187653 0.00127949 5.06876e-14)
(0.000352722 0.00125799 9.0039e-15)
(0.000444936 0.00138247 -2.9389e-15)
(0.000524728 0.00126088 2.92775e-14)
(0.000567079 0.00113424 2.04814e-14)
(0.000610491 0.00103979 5.15994e-15)
(0.00062539 0.000905987 -1.7071e-15)
(0.000642594 0.000813792 7.11962e-15)
(0.00064961 0.000719779 -3.14162e-14)
(0.000645605 0.000626139 -1.37092e-13)
(0.000631411 0.00053468 3.64141e-14)
(0.00061142 0.000448266 1.8815e-14)
(0.000586787 0.000368018 5.25291e-14)
(0.000558669 0.000293471 -4.53269e-16)
(0.000533134 0.000224432 -9.40674e-14)
(0.000544875 0.000163946 -1.39002e-13)
(0.000560198 8.49174e-05 -1.19691e-13)
(0.0005555 -3.48797e-05 -6.96983e-14)
(0.000493517 -0.000211776 -5.64261e-14)
(0.000239529 -0.00044711 1.91325e-14)
(-0.000260667 -0.000408055 6.72259e-14)
(-0.000505741 0.000331197 -3.61862e-14)
(0.000122302 0.00124984 -1.37663e-14)
(0.00122778 0.00120151 4.44597e-14)
(0.00161508 8.9887e-05 2.10511e-15)
(0.000871662 -0.000885018 2.45314e-14)
(-0.000205616 -0.00092503 -3.05763e-14)
(-0.000827839 -0.000339159 -1.01148e-13)
(-0.000865261 0.000279615 -5.51592e-14)
(-0.000528621 0.000606618 3.49535e-14)
(5.4247e-05 0.000589562 -1.50197e-14)
(0.000483307 0.000340618 2.03716e-14)
(0.00043593 0.00103052 -3.58218e-15)
(0.0005321 0.00116156 -2.51538e-14)
(0.000554157 0.000978611 -5.0406e-14)
(0.000591412 0.000901606 2.86073e-14)
(0.000577352 0.000761226 2.54489e-14)
(0.000581045 0.000669463 1.48727e-14)
(0.000580527 0.000585562 6.21628e-14)
(0.000570463 0.000503611 4.24088e-15)
(0.000555849 0.000425585 3.33491e-14)
(0.000536291 0.000351265 -5.10126e-14)
(0.000512782 0.000281557 -5.49541e-14)
(0.000487341 0.000214316 6.43137e-14)
(0.000487806 0.000150288 1.26947e-13)
(0.000494579 7.64245e-05 6.41844e-14)
(0.000480475 -2.32607e-05 4.55235e-14)
(0.000414168 -0.000156409 3.34401e-14)
(0.000210957 -0.000305831 6.31491e-14)
(-0.000146495 -0.000241278 -3.6049e-14)
(-0.000302808 0.000315849 -5.68015e-14)
(0.000181542 0.000997389 3.56779e-15)
(0.00103208 0.000959043 -1.98229e-14)
(0.00133417 8.73702e-05 -6.76151e-15)
(0.00072349 -0.000716259 -4.18727e-14)
(-0.000184034 -0.000774079 2.24089e-14)
(-0.000683897 -0.000287596 5.69549e-14)
(-0.000661874 0.000252179 1.25281e-13)
(-0.000364576 0.000543306 1.23582e-14)
(3.76899e-05 0.00053321 -1.15978e-13)
(0.00036251 0.000307261 2.27074e-15)
(0.000466088 0.000811769 -6.97221e-14)
(0.000599531 0.00100886 -7.2692e-14)
(0.0005412 0.000737032 -1.31924e-14)
(0.000526714 0.000625554 -3.2166e-14)
(0.000523187 0.000543397 7.24018e-14)
(0.000516608 0.000469516 -2.92295e-14)
(0.000505918 0.000398577 -1.44824e-13)
(0.000490539 0.000330207 1.01114e-13)
(0.000470955 0.000264554 9.97268e-14)
(0.000448146 0.000200131 -5.34693e-15)
(0.000437026 0.000136902 -1.57515e-13)
(0.000437746 6.93507e-05 -1.28567e-13)
(0.000418819 -1.00936e-05 6.84427e-14)
(0.000354634 -0.000106939 1.07521e-13)
(0.00019427 -0.000196644 -3.91577e-14)
(-5.97075e-05 -0.000121135 -1.514e-14)
(-0.000154623 0.000297288 -1.08545e-14)
(0.000217519 0.000795232 7.14996e-16)
(0.000864861 0.00075892 -1.02561e-14)
(0.00110228 7.50056e-05 4.37234e-15)
(0.000615374 -0.000585584 6.88291e-15)
(-0.00014471 -0.00065866 -2.79159e-14)
(-0.000584264 -0.000259793 -1.5372e-14)
(-0.000558036 0.000208786 -2.90586e-14)
(-0.00028075 0.000470342 -1.75889e-13)
(3.85987e-05 0.000465645 -1.05623e-14)
(0.000297736 0.000256512 6.21887e-14)
(0.000447321 0.00068738 -1.29152e-13)
(0.000572734 0.000860375 3.31776e-14)
(0.000480907 0.00058649 1.13831e-13)
(0.000475183 0.000510496 -7.85757e-14)
(0.000467872 0.000439645 -6.54268e-14)
(0.000459636 0.000375132 8.23009e-14)
(0.000446814 0.000312852 -1.4864e-13)
(0.00042992 0.000251788 1.24897e-14)
(0.000409313 0.000192226 2.11851e-13)
(0.000389057 0.00013103 8.33511e-14)
(0.000386192 6.90597e-05 1.47036e-13)
(0.0003659 6.18905e-06 -3.25671e-14)
(0.000308154 -6.33728e-05 -9.97115e-14)
(0.000183814 -0.000113499 2.22651e-14)
(5.93536e-06 -3.82048e-05 5.13032e-14)
(-4.78235e-05 0.000273271 4.03156e-14)
(0.000236582 0.000631777 2.74477e-15)
(0.000723952 0.00059705 2.26929e-14)
(0.000907873 6.32947e-05 -4.35783e-15)
(0.000524409 -0.000474731 1.46644e-14)
(-0.000104448 -0.000556611 1.44837e-14)
(-0.000495246 -0.000233675 6.59759e-16)
(-0.000488166 0.000168576 -7.27238e-14)
(-0.000241277 0.000403946 6.71726e-15)
(3.52781e-05 0.000403968 1.43272e-13)
(0.00022194 0.000227585 9.9397e-14)
(0.000443333 0.000623622 6.09862e-15)
(0.000524691 0.000706911 -1.82451e-15)
(0.000422482 0.000464923 4.8243e-14)
(0.000419852 0.000405488 -2.60463e-14)
(0.000413625 0.000347646 5.76917e-14)
(0.00040461 0.000293033 2.32854e-13)
(0.000390555 0.000238149 -6.85732e-14)
(0.000372425 0.000183795 -5.85607e-14)
(0.00034878 0.000126837 2.70947e-14)
(0.000341122 7.11246e-05 -3.62121e-14)
(0.000321233 2.08197e-05 1.62661e-14)
(0.00027157 -2.73695e-05 1.46946e-14)
(0.000176881 -5.22117e-05 -2.73922e-14)
(5.42382e-05 1.75604e-05 -1.43006e-14)
(2.76041e-05 0.000247071 -2.81008e-14)
(0.000243091 0.000501635 3.27052e-15)
(0.000605966 0.000467167 3.22257e-15)
(0.000745247 5.35137e-05 1.71423e-15)
(0.000444821 -0.000380771 -1.78308e-15)
(-6.91086e-05 -0.000464435 -1.75394e-14)
(-0.000411376 -0.000206706 5.06858e-15)
(-0.000425197 0.000135648 7.22843e-14)
(-0.000216924 0.000347125 8.31629e-14)
(3.0769e-05 0.000352763 -1.66974e-13)
(0.000182331 0.000199392 -2.47386e-13)
(0.000370521 0.000519698 4.15159e-14)
(0.000472797 0.000642337 2.33567e-14)
(0.00040214 0.000455473 -1.69831e-14)
(0.000382175 0.000382172 1.91847e-14)
(0.000373424 0.000326103 9.76449e-15)
(0.000365914 0.000275699 -3.74982e-14)
(0.000353929 0.000226288 5.73941e-14)
(0.000337545 0.000176888 -1.57669e-13)
(0.000315123 0.000125326 -2.20172e-13)
(0.00030179 7.57236e-05 -9.04154e-14)
(0.00028327 3.41999e-05 1.69253e-14)
(0.000242163 1.64027e-06 9.73626e-15)
(0.000171276 -7.863e-06 2.63446e-14)
(8.81739e-05 5.31757e-05 4.52249e-14)
(7.89085e-05 0.000220195 -2.27318e-14)
(0.000240773 0.000397661 -1.98898e-14)
(0.000507785 0.000363507 6.96189e-16)
(0.000610073 4.47769e-05 -6.97729e-15)
(0.000375231 -0.000302424 4.96284e-15)
(-4.09904e-05 -0.000382383 5.40277e-14)
(-0.000335931 -0.000179145 4.56744e-14)
(-0.000365621 0.000110278 -1.85585e-14)
(-0.000198002 0.000299417 -1.73679e-14)
(2.09533e-05 0.000313176 1.0667e-13)
(0.000155097 0.000182617 2.06979e-13)
(0.000341942 0.000429853 1.06431e-14)
(0.000440565 0.000542953 -1.32029e-14)
(0.000350768 0.000361763 3.4338e-14)
(0.000340859 0.000309217 -3.7111e-15)
(0.000331808 0.000260886 -1.58015e-13)
(0.000321115 0.000215742 -5.08963e-14)
(0.00030577 0.000170747 1.92069e-13)
(0.000285048 0.000124476 3.43112e-15)
(0.000267614 8.01249e-05 5.68669e-14)
(0.000251113 4.55995e-05 1.20094e-14)
(0.000218563 2.39675e-05 8.10427e-14)
(0.000166035 2.35419e-05 1.60173e-14)
(0.000111143 7.42935e-05 -1.13305e-14)
(0.000112125 0.000194516 5.91862e-16)
(0.000232667 0.000314963 2.34007e-14)
(0.000426394 0.000281839 -7.99714e-15)
(0.000499135 3.67731e-05 6.33292e-15)
(0.000315236 -0.000237592 -1.84089e-15)
(-1.97509e-05 -0.000311111 -1.53538e-14)
(-0.000270709 -0.000151791 -4.35981e-14)
(-0.000310388 9.06725e-05 -4.22288e-14)
(-0.000179806 0.000258894 -6.37803e-15)
(8.67144e-06 0.000281073 1.84787e-14)
(0.000130961 0.000172896 -7.56011e-14)
(0.000332581 0.000385787 9.88011e-16)
(0.000395997 0.000444987 2.03506e-14)
(0.000303079 0.00028452 -2.73939e-14)
(0.00029842 0.000244259 1.39071e-15)
(0.000288469 0.000203286 -3.54656e-14)
(0.000275322 0.000163684 -1.11737e-13)
(0.000256945 0.000123185 8.70915e-14)
(0.000237078 8.39226e-05 -3.1999e-14)
(0.000223083 5.48727e-05 -5.95451e-14)
(0.000198502 4.06278e-05 -9.38792e-14)
(0.000160116 4.46744e-05 -3.16435e-14)
(0.000124902 8.54514e-05 -3.53835e-14)
(0.000131384 0.000170398 4.00286e-14)
(0.000220285 0.000249753 1.04223e-14)
(0.00035874 0.000218042 -1.98955e-14)
(0.000408215 3.02824e-05 6.08973e-15)
(0.000263947 -0.00018457 2.27511e-14)
(-4.184e-06 -0.000249525 -3.12287e-14)
(-0.000215678 -0.00012537 -3.9814e-14)
(-0.000261053 7.62389e-05 2.37461e-14)
(-0.000162126 0.000224591 2.21711e-14)
(-3.7415e-06 0.000254091 -1.16807e-14)
(0.000108341 0.00016741 -4.78629e-14)
(0.000279844 0.000323756 -2.24616e-14)
(0.000363178 0.000410736 -3.15887e-14)
(0.000282365 0.00027274 5.29263e-14)
(0.000271843 0.000232605 3.58963e-14)
(0.000260903 0.000194229 2.06226e-14)
(0.000248353 0.000157722 9.6457e-14)
(0.000231801 0.000121849 -5.56973e-14)
(0.000210447 8.68678e-05 8.73285e-14)
(0.000198728 6.19311e-05 6.90777e-15)
(0.000180972 5.24943e-05 1.26994e-14)
(0.000153504 5.80953e-05 1.08841e-13)
(0.000131654 8.99421e-05 2.3574e-14)
(0.000140657 0.000148564 -4.37144e-14)
(0.000205258 0.000199002 -2.99294e-14)
(0.000302519 0.000168936 3.62117e-15)
(0.000334184 2.56327e-05 -3.73363e-15)
(0.000220682 -0.000141125 -6.55418e-15)
(7.07992e-06 -0.000196776 1.44155e-14)
(-0.000169614 -0.000100645 3.97897e-14)
(-0.000217392 6.55279e-05 1.8297e-14)
(-0.000144116 0.000195566 3.3052e-14)
(-1.35604e-05 0.000230095 3.91842e-15)
(8.64191e-05 0.000163381 5.74059e-15)
(0.00026921 0.000289222 -3.78064e-14)
(0.000325382 0.000339047 -3.02679e-14)
(0.000241141 0.000215677 4.4744e-15)
(0.000234267 0.000183354 -6.34318e-14)
(0.000222124 0.000150203 -9.33996e-14)
(0.000208151 0.000119105 1.97779e-14)
(0.000188615 8.88816e-05 -2.00575e-14)
(0.000177947 6.76126e-05 5.90301e-14)
(0.000165153 6.02732e-05 -5.67846e-14)
(0.000145978 6.60783e-05 -9.09084e-14)
(0.000133065 8.98629e-05 -1.6796e-14)
(0.000142456 0.000129312 2.59423e-14)
(0.000188684 0.000159392 1.71601e-14)
(0.00025539 0.000131782 1.33765e-14)
(0.0002738 2.25237e-05 -2.45108e-16)
(0.000184029 -0.000105514 -1.28263e-15)
(1.48102e-05 -0.000151985 -2.18205e-15)
(-0.000131885 -7.77421e-05 -1.27383e-14)
(-0.000179764 5.78101e-05 -1.51937e-14)
(-0.000127405 0.000171316 -1.78601e-15)
(-2.1358e-05 0.000208574 5.82916e-15)
(6.7387e-05 0.000160006 3.47621e-14)
(0.000226084 0.000244678 -9.84688e-14)
(0.000297556 0.00031201 -5.034e-14)
(0.000225178 0.000207481 1.60352e-14)
(0.000213203 0.000175685 -1.9405e-14)
(0.000200272 0.00014449 5.12759e-14)
(0.000187164 0.000116207 8.31419e-14)
(0.000170486 8.99147e-05 -1.50065e-14)
(0.00015973 7.13892e-05 -4.82224e-14)
(0.000150559 6.49327e-05 5.03107e-14)
(0.000137796 7.00069e-05 -3.95473e-14)
(0.000130668 8.707e-05 4.3952e-14)
(0.000139338 0.0001127 -2.08072e-15)
(0.000171719 0.000129043 2.46848e-15)
(0.000216127 0.000104144 -4.1448e-15)
(0.00022492 2.12043e-05 -1.0816e-15)
(0.000153559 -7.62686e-05 2.73119e-15)
(2.00157e-05 -0.000113893 2.23678e-15)
(-0.000100971 -5.70942e-05 4.99897e-15)
(-0.000147172 5.30081e-05 1.43272e-14)
(-0.000111161 0.000151193 -3.66676e-14)
(-2.60213e-05 0.000190169 -3.9145e-14)
(5.07726e-05 0.000156973 3.03257e-14)
(0.000216119 0.000218707 -7.33966e-14)
(0.000265416 0.000258863 5.64412e-14)
(0.000188401 0.000163642 4.81824e-14)
(0.000179197 0.000137291 -1.8608e-14)
(0.000167017 0.000111454 -5.0836e-15)
(0.00015359 8.91176e-05 -9.66993e-15)
(0.000143242 7.30044e-05 -7.43778e-14)
(0.000136852 6.7316e-05 1.1915e-14)
(0.000129047 7.09742e-05 1.00261e-13)
(0.000125399 8.27476e-05 -3.38521e-14)
(0.000132838 9.83557e-05 -1.16599e-14)
(0.000154702 0.000105818 -3.11348e-14)
(0.000183124 8.36759e-05 6.32444e-15)
(0.000185034 2.10996e-05 -2.80401e-15)
(0.000128045 -5.24948e-05 -1.22081e-14)
(2.29351e-05 -8.19755e-05 -1.80781e-14)
(-7.62268e-05 -3.87377e-05 -6.48035e-15)
(-0.000119711 5.03607e-05 1.39247e-14)
(-9.66173e-05 0.000134693 5.12681e-14)
(-2.92521e-05 0.000174234 3.31397e-14)
(3.76365e-05 0.000154083 -3.85799e-14)
(0.000181302 0.00018667 9.87457e-14)
(0.000240329 0.000236257 4.01064e-14)
(0.000175962 0.000158368 -5.10105e-14)
(0.000163066 0.000131853 -3.59976e-15)
(0.00015018 0.000107486 3.83011e-14)
(0.00013875 8.75133e-05 -2.75295e-14)
(0.000128411 7.29703e-05 7.68192e-14)
(0.000123922 6.78244e-05 7.52091e-14)
(0.000119845 7.01576e-05 -2.51743e-14)
(0.000118277 7.76891e-05 1.14161e-14)
(0.000124315 8.64138e-05 1.76017e-14)
(0.000138424 8.81982e-05 2.72183e-14)
(0.000155504 6.90792e-05 3.80741e-16)
(0.00015282 2.19813e-05 -5.90308e-15)
(0.000107087 -3.28264e-05 7.78035e-15)
(2.45148e-05 -5.54075e-05 1.64841e-14)
(-5.62621e-05 -2.22893e-05 -1.29084e-14)
(-9.61831e-05 4.94904e-05 -2.41575e-14)
(-8.26176e-05 0.000121809 -5.47158e-14)
(-2.98434e-05 0.000161123 -5.97063e-14)
(2.73104e-05 0.000152256 1.09888e-14)
(0.000174011 0.000168573 2.83257e-14)
(0.000208529 0.0001934 5.65445e-14)
(0.000141931 0.000122237 1.33098e-14)
(0.000134639 0.000101847 7.98845e-15)
(0.000124494 8.4331e-05 -3.00925e-14)
(0.00011482 7.16005e-05 -5.32629e-14)
(0.000111819 6.69971e-05 -3.09728e-14)
(0.000110462 6.81727e-05 -2.81738e-14)
(0.000110031 7.2404e-05 -3.34651e-14)
(0.000114562 7.64821e-05 -2.48993e-14)
(0.000122985 7.47287e-05 -1.8041e-14)
(0.000132071 5.8558e-05 -4.90618e-16)
(0.000126496 2.3249e-05 1.03085e-14)
(8.95218e-05 -1.70107e-05 -2.96153e-15)
(2.47576e-05 -3.37901e-05 -3.38137e-15)
(-4.07461e-05 -8.08685e-06 1.59787e-14)
(-7.66803e-05 4.96104e-05 -8.73674e-15)
(-7.02409e-05 0.000111649 -6.48102e-14)
(-2.95696e-05 0.000149635 -4.29697e-14)
(1.99707e-05 0.000150281 -3.03179e-15)
(0.000153384 0.000152713 9.71818e-15)
(0.000192098 0.000179341 -1.79276e-14)
(0.000127698 0.000112753 4.20144e-15)
(0.000119662 9.49684e-05 -1.47881e-14)
(0.000111541 8.049e-05 4.85865e-14)
(0.000102302 6.91955e-05 2.85385e-14)
(0.000100421 6.52194e-05 -3.61154e-14)
(0.000101037 6.54206e-05 6.02954e-15)
(0.000101132 6.73776e-05 2.41341e-14)
(0.000104397 6.83221e-05 -2.10351e-15)
(0.000108772 6.47313e-05 9.89884e-15)
(0.00011246 5.12532e-05 2.92409e-15)
(0.000105259 2.50862e-05 -4.6488e-15)
(7.52543e-05 -4.13548e-06 -1.67999e-15)
(2.44794e-05 -1.59309e-05 -3.16833e-15)
(-2.83826e-05 4.20418e-06 -1.24171e-14)
(-6.0016e-05 5.08384e-05 -5.38366e-15)
(-5.84373e-05 0.000103865 4.24573e-14)
(-2.71453e-05 0.000140355 6.71162e-14)
(1.51054e-05 0.00014899 6.92085e-15)
(0.000128991 0.000129893 1.09088e-14)
(0.000171615 0.0001606 -1.47516e-14)
(0.000118406 0.000105902 -1.27384e-14)
(0.000109274 8.98899e-05 -3.01028e-14)
(0.000100922 7.71798e-05 9.1184e-15)
(9.21048e-05 6.68682e-05 -2.88874e-14)
(9.01441e-05 6.29505e-05 3.32964e-14)
(9.15078e-05 6.21891e-05 2.40724e-14)
(9.19246e-05 6.2541e-05 -1.06523e-14)
(9.40537e-05 6.14569e-05 3.90984e-15)
(9.55014e-05 5.70188e-05 -3.80559e-15)
(9.56143e-05 4.5982e-05 -3.90972e-15)
(8.76279e-05 2.6793e-05 7.33586e-16)
(6.31961e-05 5.96251e-06 4.21243e-15)
(2.33598e-05 -1.77323e-06 8.48131e-15)
(-1.9055e-05 1.43479e-05 1.76879e-14)
(-4.64439e-05 5.23265e-05 3.32192e-15)
(-4.81711e-05 9.75359e-05 2.46084e-14)
(-2.42286e-05 0.000132149 1.34755e-15)
(1.23314e-05 0.000146695 -3.68284e-14)
(0.000119619 0.000110106 -1.01938e-13)
(0.000146731 0.000128332 -3.24854e-14)
(9.48883e-05 8.29298e-05 -1.59995e-14)
(9.11687e-05 7.3016e-05 2.37436e-15)
(8.28348e-05 6.39898e-05 3.18248e-14)
(8.09165e-05 6.02292e-05 -1.4883e-14)
(8.22117e-05 5.89351e-05 -3.65518e-14)
(8.29982e-05 5.81697e-05 -3.37573e-15)
(8.41162e-05 5.59737e-05 1.70079e-14)
(8.36652e-05 5.12826e-05 6.77466e-15)
(8.15227e-05 4.2514e-05 9.4353e-17)
(7.34086e-05 2.85691e-05 -3.71943e-15)
(5.34644e-05 1.42338e-05 -2.72108e-16)
(2.22086e-05 9.63296e-06 -8.63235e-15)
(-1.16466e-05 2.30365e-05 -6.80372e-15)
(-3.49363e-05 5.4141e-05 4.43265e-14)
(-3.84765e-05 9.27524e-05 1.65223e-14)
(-1.97616e-05 0.000125497 -1.05911e-14)
(1.13777e-05 0.00014409 3.39847e-14)
(0.000105373 9.80907e-05 4.03579e-14)
(0.000135485 0.000117657 2.6579e-14)
(8.56553e-05 7.65143e-05 -1.9596e-14)
(8.13995e-05 6.85208e-05 -2.02728e-14)
(7.42735e-05 6.06558e-05 1.94983e-14)
(7.20906e-05 5.69752e-05 -1.53022e-15)
(7.32693e-05 5.54669e-05 1.88016e-14)
(7.43542e-05 5.40454e-05 6.89198e-15)