/*--------------------------------*- C++ -*----------------------------------*\
| =========                 |                                                 |
| \\      /  F ield         | OpenFOAM: The Open Source CFD Toolbox           |
|  \\    /   O peration     | Version:  2506                                  |
|   \\  /    A nd           | Website:  www.openfoam.com                      |
|    \\/     M anipulation  |                                                 |
\*---------------------------------------------------------------------------*/
FoamFile
{
    version     2.0;
    format      ascii;
    arch        "LSB;label=32;scalar=64";
    class       volScalarField;
    location    "350";
    object      turbulenceProperties:nut;
}
// * * * * * * * * * * * * * * * * * * * * * * * * * * * * * * * * * * * * * //

dimensions      [0 2 -1 0 0 0 0];

internalField   nonuniform List<scalar> 
1340
(
2.58101e-05
2.9537e-05
3.45251e-05
4.09881e-05
4.93124e-05
6.00294e-05
7.38593e-05
9.11643e-05
0.000112982
0.000140356
0.000175243
0.000220756
0.000281327
0.000364911
0.000485094
0.000663898
0.000945948
0.00139535
0.00221762
0.00358948
0.00690299
0.0127127
0.0339273
0.0760558
0.0937249
0.0946461
0.0956934
0.0992335
0.102751
0.104485
0.104457
0.103206
0.100838
0.0974081
0.0927896
2.25843e-05
1.98054e-05
1.7075e-05
1.45849e-05
1.22508e-05
1.01081e-05
8.24543e-06
5.08543e-06
4.98028e-06
4.88541e-06
4.80678e-06
4.71657e-06
4.63375e-06
4.57241e-06
4.51872e-06
4.49562e-06
4.51592e-06
4.54345e-06
4.81864e-06
5.87946e-06
8.65413e-06
1.64159e-05
3.68172e-05
8.39094e-05
0.000162794
0.000315133
0.00058792
0.00132158
0.00283026
0.00711563
0.0204812
0.0394494
0.0632215
0.0925093
0.123706
0.148761
0.162712
0.167994
0.168809
0.167221
0.16387
0.159358
5.16903e-06
5.28228e-06
5.37879e-06
5.50979e-06
5.64408e-06
5.77996e-06
6.26623e-06
6.28356e-06
6.30154e-06
6.32087e-06
6.34457e-06
6.37108e-06
6.4014e-06
6.43686e-06
6.47871e-06
6.52771e-06
6.58593e-06
6.65767e-06
6.73645e-06
6.88016e-06
6.89335e-06
6.4655e-06
4.7438e-06
3.50423e-06
1.27097e-09
8.30408e-06
6.37131e-07
1.94255e-05
1.30874e-06
0.000558843
0.00298625
0.00755549
0.0156965
0.0310637
0.0574065
0.0938409
0.132855
0.164549
0.184952
0.196788
0.203483
6.25296e-06
6.23393e-06
6.21938e-06
6.1978e-06
6.17925e-06
6.15933e-06
6.08617e-06
6.08377e-06
6.08317e-06
6.08354e-06
6.08446e-06
6.08712e-06
6.09202e-06
6.09876e-06
6.10881e-06
6.12241e-06
6.14037e-06
6.16389e-06
6.19442e-06
6.23339e-06
6.28504e-06
6.33903e-06
6.21988e-06
5.89545e-06
4.10507e-06
2.02052e-06
8.30195e-08
1.84785e-07
2.26612e-09
9.30332e-05
0.000624356
1.9918e-06
0.000221479
0.000845553
0.00416426
0.0136883
0.0357133
0.0728342
0.11888
0.161382
0.193273
6.08684e-06
6.08919e-06
6.09231e-06
6.0945e-06
6.09829e-06
6.11124e-06
6.1118e-06
6.11207e-06
6.11296e-06
6.11451e-06
6.11648e-06
6.11914e-06
6.12272e-06
6.12743e-06
6.13361e-06
6.14169e-06
6.15227e-06
6.16616e-06
6.18393e-06
6.20829e-06
6.23633e-06
6.27968e-06
6.29227e-06
6.35866e-06
5.95489e-06
5.00682e-06
1.14651e-06
1.46182e-08
4.53501e-10
0
4.20431e-09
1.19967e-05
0.00017383
0.000935537
0.000550473
0.00167979
0.00805632
0.0296226
0.0707564
0.124182
6.11128e-06
6.10991e-06
6.1106e-06
6.10955e-06
6.11043e-06
6.10511e-06
6.10489e-06
6.10518e-06
6.10543e-06
6.10553e-06
6.10593e-06
6.10653e-06
6.1073e-06
6.10852e-06
6.11021e-06
6.11253e-06
6.11575e-06
6.12011e-06
6.126e-06
6.13419e-06
6.14498e-06
6.15968e-06
6.1756e-06
6.20525e-06
6.30346e-06
6.77996e-06
6.13137e-06
4.57011e-06
3.15623e-07
9.32213e-09
1.98212e-09
8.61169e-11
0
0
0.000102252
0.000374442
0.00183915
0.000395903
0.00875961
0.0381142
6.10464e-06
6.10395e-06
6.10486e-06
6.10464e-06
6.10535e-06
6.10556e-06
6.10572e-06
6.10577e-06
6.10589e-06
6.10598e-06
6.10616e-06
6.1065e-06
6.10697e-06
6.10768e-06
6.10872e-06
6.11019e-06
6.11225e-06
6.11512e-06
6.11908e-06
6.12469e-06
6.13205e-06
6.14043e-06
6.14904e-06
6.14551e-06
6.23412e-06
6.50285e-06
6.99831e-06
5.98104e-06
3.37259e-06
1.21143e-06
5.15277e-08
7.94981e-09
2.95113e-09
2.26593e-11
0
0
6.14273e-05
0.00205869
0.00168385
6.10488e-06
6.10382e-06
6.1042e-06
6.10388e-06
6.10492e-06
6.10506e-06
6.10534e-06
6.10532e-06
6.10513e-06
6.105e-06
6.10485e-06
6.10469e-06
6.10464e-06
6.10465e-06
6.10473e-06
6.10496e-06
6.10534e-06
6.10593e-06
6.10682e-06
6.1082e-06
6.11019e-06
6.11259e-06
6.11589e-06
6.11526e-06
6.10771e-06
6.15356e-06
6.32748e-06
6.75997e-06
6.83286e-06
6.31828e-06
5.0146e-06
3.16295e-06
1.53802e-06
1.18305e-08
7.07712e-09
1.32624e-11
0
0
0.00038723
6.10433e-06
6.10318e-06
6.10318e-06
6.10276e-06
6.10485e-06
6.10498e-06
6.10512e-06
6.10493e-06
6.10475e-06
6.10447e-06
6.10424e-06
6.10412e-06
6.104e-06
6.10394e-06
6.10396e-06
6.10407e-06
6.1043e-06
6.1047e-06
6.10532e-06
6.10627e-06
6.1077e-06
6.10956e-06
6.11151e-06
6.1137e-06
6.11217e-06
6.10735e-06
6.11249e-06
6.21166e-06
6.41163e-06
6.64621e-06
6.92561e-06
6.9113e-06
6.75001e-06
4.83307e-06
2.802e-06
6.45535e-09
3.05632e-09
0
0
6.10427e-06
6.10302e-06
6.10267e-06
6.10419e-06
6.1039e-06
6.10361e-06
6.10338e-06
6.10317e-06
6.10299e-06
6.10283e-06
6.10272e-06
6.10264e-06
6.10258e-06
6.10256e-06
6.10255e-06
6.10263e-06
6.10271e-06
6.10288e-06
6.10372e-06
6.10482e-06
6.10432e-06
6.1017e-06
6.10183e-06
6.12521e-06
6.17942e-06
6.2942e-06
6.49394e-06
6.8115e-06
7.18302e-06
7.46548e-06
5.13885e-06
1.19131e-06
1.08156e-08
0
6.10305e-06
6.10285e-06
6.10266e-06
6.10253e-06
6.10243e-06
6.10237e-06
6.10236e-06
6.1024e-06
6.1025e-06
6.10271e-06
6.10303e-06
6.10354e-06
6.10411e-06
6.10467e-06
6.10533e-06
6.10565e-06
6.10563e-06
6.10473e-06
6.10266e-06
6.09954e-06
6.09841e-06
6.12051e-06
6.18949e-06
6.41476e-06
6.82129e-06
7.6026e-06
7.17649e-06
3.01853e-06
1.57812e-08
6.10216e-06
6.10203e-06
6.10193e-06
6.10185e-06
6.10179e-06
6.10176e-06
6.10176e-06
6.1018e-06
6.10188e-06
6.10201e-06
6.10223e-06
6.10263e-06
6.10328e-06
6.10407e-06
6.10474e-06
6.10568e-06
6.1069e-06
6.10714e-06
6.10213e-06
6.09109e-06
6.07464e-06
6.08756e-06
6.1473e-06
6.48386e-06
7.20293e-06
7.78891e-06
4.00274e-06
6.10169e-06
6.10162e-06
6.10158e-06
6.10156e-06
6.10156e-06
6.10158e-06
6.10164e-06
6.10175e-06
6.10193e-06
6.10218e-06
6.1025e-06
6.1029e-06
6.10343e-06
6.10403e-06
6.1047e-06
6.10592e-06
6.10799e-06
6.10982e-06
6.10873e-06
6.10021e-06
6.08398e-06
6.0597e-06
6.06175e-06
6.24385e-06
6.80007e-06
8.53041e-06
6.10141e-06
6.10139e-06
6.10138e-06
6.10138e-06
6.1014e-06
6.10144e-06
6.1015e-06
6.10161e-06
6.10176e-06
6.10199e-06
6.10231e-06
6.10275e-06
6.1033e-06
6.10392e-06
6.10469e-06
6.10598e-06
6.10812e-06
6.1107e-06
6.11226e-06
6.10918e-06
6.09877e-06
6.06878e-06
6.04731e-06
6.08151e-06
6.6879e-06
6.10128e-06
6.10129e-06
6.10131e-06
6.10135e-06
6.10138e-06
6.10143e-06
6.10149e-06
6.10159e-06
6.10171e-06
6.1019e-06
6.10214e-06
6.10246e-06
6.10287e-06
6.10339e-06
6.10403e-06
6.10486e-06
6.10614e-06
6.10805e-06
6.11071e-06
6.11323e-06
6.11423e-06
6.11063e-06
6.0783e-06
6.1072e-06
5.64365e-06
6.10129e-06
6.10133e-06
6.10138e-06
6.10142e-06
6.10147e-06
6.10152e-06
6.1016e-06
6.1017e-06
6.10184e-06
6.10203e-06
6.10228e-06
6.10261e-06
6.10303e-06
6.10359e-06
6.10429e-06
6.1052e-06
6.10644e-06
6.10814e-06
6.11059e-06
6.11271e-06
6.11934e-06
6.10206e-06
6.16593e-06
5.81579e-06
6.10138e-06
6.10144e-06
6.10149e-06
6.10155e-06
6.1016e-06
6.10167e-06
6.10176e-06
6.10188e-06
6.10203e-06
6.10223e-06
6.10249e-06
6.10283e-06
6.10329e-06
6.1039e-06
6.10468e-06
6.10566e-06
6.10686e-06
6.10856e-06
6.11003e-06
6.11473e-06
6.1126e-06
6.12479e-06
6.19145e-06
6.10146e-06
6.10153e-06
6.10159e-06
6.10165e-06
6.1017e-06
6.10177e-06
6.10185e-06
6.10195e-06
6.10207e-06
6.10224e-06
6.10246e-06
6.10273e-06
6.10311e-06
6.10363e-06
6.10431e-06
6.10516e-06
6.10618e-06
6.10745e-06
6.10898e-06
6.11005e-06
6.11866e-06
6.08343e-06
6.31203e-06
6.10161e-06
6.10168e-06
6.10174e-06
6.1018e-06
6.10186e-06
6.10193e-06
6.10202e-06
6.10212e-06
6.10226e-06
6.10244e-06
6.10268e-06
6.10299e-06
6.10343e-06
6.10402e-06
6.10476e-06
6.10569e-06
6.10671e-06
6.10838e-06
6.10795e-06
6.11877e-06
6.08112e-06
6.24477e-06
6.10169e-06
6.10177e-06
6.10184e-06
6.1019e-06
6.10197e-06
6.10204e-06
6.10212e-06
6.10222e-06
6.10234e-06
6.10249e-06
6.10268e-06
6.10294e-06
6.10331e-06
6.10381e-06
6.10445e-06
6.10527e-06
6.10615e-06
6.10767e-06
6.10756e-06
6.11472e-06
6.09732e-06
6.1525e-06
6.10187e-06
6.10196e-06
6.10203e-06
6.1021e-06
6.10217e-06
6.10225e-06
6.10234e-06
6.10245e-06
6.10259e-06
6.10275e-06
6.10297e-06
6.10328e-06
6.1037e-06
6.10425e-06
6.10496e-06
6.10575e-06
6.10695e-06
6.10762e-06
6.11053e-06
6.11007e-06
6.10406e-06
6.10197e-06
6.10206e-06
6.10214e-06
6.10222e-06
6.10229e-06
6.10238e-06
6.10246e-06
6.10257e-06
6.10269e-06
6.10283e-06
6.10303e-06
6.1033e-06
6.10366e-06
6.10414e-06
6.10475e-06
6.10548e-06
6.1064e-06
6.10753e-06
6.10819e-06
6.11398e-06
6.09443e-06
6.10217e-06
6.10226e-06
6.10235e-06
6.10243e-06
6.10252e-06
6.10261e-06
6.1027e-06
6.10282e-06
6.10295e-06
6.10312e-06
6.10336e-06
6.10367e-06
6.10409e-06
6.10461e-06
6.10528e-06
6.10604e-06
6.10722e-06
6.10744e-06
6.11273e-06
6.10035e-06
6.10228e-06
6.10238e-06
6.10248e-06
6.10256e-06
6.10265e-06
6.10275e-06
6.10285e-06
6.10296e-06
6.10308e-06
6.10324e-06
6.10344e-06
6.10372e-06
6.10408e-06
6.10455e-06
6.10514e-06
6.10581e-06
6.10684e-06
6.10734e-06
6.11042e-06
6.10691e-06
6.10239e-06
6.1025e-06
6.10261e-06
6.1027e-06
6.1028e-06
6.1029e-06
6.103e-06
6.10311e-06
6.10323e-06
6.10337e-06
6.10356e-06
6.1038e-06
6.10412e-06
6.10453e-06
6.10506e-06
6.10568e-06
6.10652e-06
6.10731e-06
6.10883e-06
6.1099e-06
6.10262e-06
6.10274e-06
6.10284e-06
6.10295e-06
6.10305e-06
6.10316e-06
6.10327e-06
6.10339e-06
6.10353e-06
6.1037e-06
6.10392e-06
6.1042e-06
6.10456e-06
6.10503e-06
6.1056e-06
6.10631e-06
6.10719e-06
6.10809e-06
6.11024e-06
6.10274e-06
6.10287e-06
6.10298e-06
6.1031e-06
6.10321e-06
6.10333e-06
6.10344e-06
6.10356e-06
6.1037e-06
6.10386e-06
6.10406e-06
6.10431e-06
6.10464e-06
6.10505e-06
6.10557e-06
6.10619e-06
6.10702e-06
6.1078e-06
6.10963e-06
6.10286e-06
6.10299e-06
6.10312e-06
6.10324e-06
6.10336e-06
6.10349e-06
6.10361e-06
6.10373e-06
6.10387e-06
6.10402e-06
6.10421e-06
6.10445e-06
6.10474e-06
6.10511e-06
6.10558e-06
6.10615e-06
6.10689e-06
6.10768e-06
6.10902e-06
6.10312e-06
6.10326e-06
6.10339e-06
6.10352e-06
6.10365e-06
6.10378e-06
6.10391e-06
6.10405e-06
6.1042e-06
6.10437e-06
6.10459e-06
6.10487e-06
6.10521e-06
6.10563e-06
6.10615e-06
6.10682e-06
6.10759e-06
6.10865e-06
6.10325e-06
6.10339e-06
6.10354e-06
6.10368e-06
6.10381e-06
6.10395e-06
6.10409e-06
6.10423e-06
6.10438e-06
6.10455e-06
6.10476e-06
6.10501e-06
6.10532e-06
6.10571e-06
6.10619e-06
6.10679e-06
6.10753e-06
6.10846e-06
6.10337e-06
6.10353e-06
6.10368e-06
6.10383e-06
6.10398e-06
6.10413e-06
6.10427e-06
6.10442e-06
6.10457e-06
6.10474e-06
6.10494e-06
6.10517e-06
6.10546e-06
6.10582e-06
6.10627e-06
6.10682e-06
6.1075e-06
6.10836e-06
6.10366e-06
6.10382e-06
6.10398e-06
6.10414e-06
6.1043e-06
6.10445e-06
6.1046e-06
6.10476e-06
6.10493e-06
6.10512e-06
6.10535e-06
6.10562e-06
6.10596e-06
6.10637e-06
6.10688e-06
6.1075e-06
6.10832e-06
6.10379e-06
6.10396e-06
6.10414e-06
6.10431e-06
6.10447e-06
6.10464e-06
6.10479e-06
6.10495e-06
6.10512e-06
6.10531e-06
6.10554e-06
6.1058e-06
6.10611e-06
6.1065e-06
6.10697e-06
6.10755e-06
6.10831e-06
6.10391e-06
6.1041e-06
6.10429e-06
6.10447e-06
6.10464e-06
6.10482e-06
6.10498e-06
6.10515e-06
6.10532e-06
6.10551e-06
6.10573e-06
6.10598e-06
6.10628e-06
6.10665e-06
6.10709e-06
6.10763e-06
6.10424e-06
6.10443e-06
6.10463e-06
6.10481e-06
6.105e-06
6.10517e-06
6.10534e-06
6.10552e-06
6.10572e-06
6.10593e-06
6.10618e-06
6.10647e-06
6.10681e-06
6.10724e-06
6.10774e-06
6.10437e-06
6.10458e-06
6.10478e-06
6.10498e-06
6.10518e-06
6.10536e-06
6.10554e-06
6.10573e-06
6.10592e-06
6.10614e-06
6.10639e-06
6.10667e-06
6.107e-06
6.1074e-06
6.10787e-06
6.1045e-06
6.10472e-06
6.10494e-06
6.10515e-06
6.10535e-06
6.10555e-06
6.10573e-06
6.10593e-06
6.10613e-06
6.10635e-06
6.1066e-06
6.10687e-06
6.1072e-06
6.10758e-06
6.10803e-06
6.10462e-06
6.10486e-06
6.10508e-06
6.10531e-06
6.10552e-06
6.10573e-06
6.10593e-06
6.10613e-06
6.10634e-06
6.10656e-06
6.10681e-06
6.10709e-06
6.1074e-06
6.10777e-06
6.1082e-06
6.10474e-06
6.10498e-06
6.10523e-06
6.10546e-06
6.10569e-06
6.1059e-06
6.10611e-06
6.10632e-06
6.10654e-06
6.10677e-06
6.10703e-06
6.1073e-06
6.10762e-06
6.10798e-06
6.10839e-06
6.1051e-06
6.10536e-06
6.1056e-06
6.10584e-06
6.10607e-06
6.10629e-06
6.10651e-06
6.10674e-06
6.10698e-06
6.10724e-06
6.10752e-06
6.10783e-06
6.10819e-06
6.1086e-06
6.1052e-06
6.10547e-06
6.10573e-06
6.10598e-06
6.10622e-06
6.10645e-06
6.10668e-06
6.10692e-06
6.10718e-06
6.10744e-06
6.10773e-06
6.10805e-06
6.1084e-06
6.1088e-06
6.10529e-06
6.10557e-06
6.10584e-06
6.10611e-06
6.10636e-06
6.1066e-06
6.10684e-06
6.1071e-06
6.10736e-06
6.10764e-06
6.10793e-06
6.10825e-06
6.10861e-06
6.10901e-06
6.10535e-06
6.10564e-06
6.10593e-06
6.10621e-06
6.10647e-06
6.10673e-06
6.10698e-06
6.10725e-06
6.10752e-06
6.10781e-06
6.10812e-06
6.10845e-06
6.10881e-06
6.10921e-06
6.10538e-06
6.10569e-06
6.10599e-06
6.10628e-06
6.10656e-06
6.10683e-06
6.1071e-06
6.10738e-06
6.10767e-06
6.10797e-06
6.10829e-06
6.10863e-06
6.109e-06
6.1094e-06
6.1057e-06
6.10602e-06
6.10633e-06
6.10662e-06
6.1069e-06
6.10718e-06
6.10748e-06
6.10778e-06
6.1081e-06
6.10843e-06
6.10878e-06
6.10917e-06
6.10958e-06
6.10568e-06
6.10601e-06
6.10633e-06
6.10663e-06
6.10693e-06
6.10723e-06
6.10754e-06
6.10786e-06
6.10819e-06
6.10854e-06
6.10891e-06
6.1093e-06
6.10562e-06
6.10596e-06
6.1063e-06
6.10661e-06
6.10692e-06
6.10724e-06
6.10756e-06
6.1079e-06
6.10824e-06
6.10861e-06
6.10899e-06
6.1094e-06
6.1055e-06
6.10586e-06
6.10621e-06
6.10654e-06
6.10687e-06
6.1072e-06
6.10754e-06
6.10789e-06
6.10826e-06
6.10864e-06
6.10904e-06
6.10947e-06
6.10533e-06
6.10571e-06
6.10607e-06
6.10642e-06
6.10676e-06
6.1071e-06
6.10746e-06
6.10783e-06
6.10821e-06
6.10861e-06
6.10903e-06
6.10948e-06
6.10549e-06
6.10587e-06
6.10623e-06
6.10658e-06
6.10694e-06
6.10732e-06
6.10771e-06
6.10811e-06
6.10853e-06
6.10897e-06
6.10944e-06
6.1052e-06
6.10559e-06
6.10597e-06
6.10634e-06
6.10672e-06
6.10711e-06
6.10752e-06
6.10794e-06
6.10838e-06
6.10884e-06
6.10933e-06
6.10483e-06
6.10524e-06
6.10563e-06
6.10601e-06
6.10641e-06
6.10682e-06
6.10725e-06
6.10769e-06
6.10815e-06
6.10863e-06
6.10914e-06
6.10438e-06
6.1048e-06
6.1052e-06
6.1056e-06
6.10602e-06
6.10644e-06
6.10689e-06
6.10735e-06
6.10784e-06
6.10834e-06
6.10887e-06
6.10383e-06
6.10426e-06
6.10468e-06
6.1051e-06
6.10553e-06
6.10597e-06
6.10644e-06
6.10692e-06
6.10742e-06
6.10795e-06
6.10851e-06
6.10318e-06
6.10363e-06
6.10406e-06
6.10449e-06
6.10494e-06
6.1054e-06
6.10588e-06
6.10638e-06
6.10691e-06
6.10746e-06
6.10243e-06
6.10289e-06
6.10333e-06
6.10378e-06
6.10424e-06
6.10472e-06
6.10522e-06
6.10574e-06
6.10628e-06
6.10685e-06
6.10204e-06
6.1025e-06
6.10296e-06
6.10343e-06
6.10393e-06
6.10444e-06
6.10498e-06
6.10555e-06
6.10614e-06
6.10109e-06
6.10156e-06
6.10203e-06
6.10252e-06
6.10303e-06
6.10356e-06
6.10412e-06
6.1047e-06
6.10531e-06
6.10001e-06
6.10049e-06
6.10097e-06
6.10148e-06
6.10201e-06
6.10256e-06
6.10313e-06
6.10373e-06
6.10436e-06
6.09872e-06
6.09921e-06
6.09971e-06
6.10024e-06
6.10078e-06
6.10136e-06
6.10196e-06
6.10259e-06
6.10325e-06
6.09713e-06
6.09763e-06
6.09814e-06
6.09868e-06
6.09926e-06
6.09986e-06
6.1005e-06
6.10116e-06
6.10186e-06
6.09518e-06
6.09568e-06
6.09619e-06
6.09675e-06
6.09734e-06
6.09797e-06
6.09863e-06
6.09934e-06
6.09294e-06
6.09342e-06
6.09393e-06
6.09447e-06
6.09506e-06
6.09569e-06
6.09637e-06
6.0971e-06
6.09056e-06
6.09101e-06
6.0915e-06
6.09202e-06
6.09259e-06
6.09321e-06
6.09387e-06
6.09458e-06
6.08858e-06
6.08904e-06
6.08954e-06
6.09008e-06
6.09066e-06
6.09129e-06
6.09197e-06
6.0861e-06
6.08654e-06
6.08701e-06
6.08753e-06
6.08809e-06
6.08869e-06
6.08934e-06
6.08348e-06
6.08391e-06
6.08438e-06
6.0849e-06
6.08546e-06
6.08606e-06
6.08671e-06
6.08095e-06
6.08137e-06
6.08184e-06
6.08235e-06
6.08292e-06
6.08354e-06
6.08419e-06
6.07863e-06
6.07902e-06
6.07944e-06
6.07992e-06
6.08046e-06
6.08103e-06
6.07632e-06
6.07665e-06
6.07702e-06
6.07744e-06
6.07792e-06
6.07842e-06
6.07399e-06
6.07427e-06
6.07458e-06
6.07494e-06
6.07536e-06
6.07578e-06
6.07183e-06
6.07202e-06
6.07224e-06
6.07251e-06
6.07284e-06
6.07316e-06
6.0706e-06
6.07064e-06
6.07069e-06
6.07075e-06
6.07087e-06
6.071e-06
6.07205e-06
6.07197e-06
6.07188e-06
6.07176e-06
6.07161e-06
6.07151e-06
6.07471e-06
6.07466e-06
6.07459e-06
6.07444e-06
6.07435e-06
6.0778e-06
6.07783e-06
6.07779e-06
6.07765e-06
6.07765e-06
6.08102e-06
6.08118e-06
6.08135e-06
6.08147e-06
6.08156e-06
6.08445e-06
6.08467e-06
6.08473e-06
6.08461e-06
6.08688e-06
6.08769e-06
6.08871e-06
6.08979e-06
6.09831e-06
6.09889e-06
6.09946e-06
6.09971e-06
)
;

boundaryField
{
    inlet
    {
        type            freestream;
        freestreamValue uniform 1e-05;
        value           nonuniform List<scalar> 4(6.09831e-06 6.09889e-06 6.09946e-06 6.09971e-06);
    }
    outlet
    {
        type            freestream;
        freestreamValue nonuniform List<scalar> 0();
        value           nonuniform List<scalar> 0();
    }
    walls
    {
        type            nutUSpaldingWallFunction;
        value           nonuniform List<scalar> 
42
(
0.00322613
0.00345252
0.00368884
0.00387646
0.0040523
0.00420694
0.0043274
0.00441992
0.00448697
0.00452669
0.00454639
0.00454459
0.00451592
0.00446259
0.00438036
0.00426715
0.0041165
0.00392199
0.00367018
0.00334974
0.00294396
0.00245267
0.0019228
0.00152385
0.00136012
0.00143182
0.00158937
0.00175274
0.00188553
0.00197327
0.0020204
0.00203714
0.00201901
0.00196896
0.00188423
0.00298591
0.00271408
0.0024153
0.00204563
0.00164366
0.00120857
0.000770012
)
;
    }
    frontAndBack
    {
        type            empty;
    }
    procBoundary5to0
    {
        type            processor;
        value           nonuniform List<scalar> 4(6.10476e-06 6.10426e-06 6.10299e-06 6.10234e-06);
    }
    procBoundary5to1
    {
        type            processor;
        value           nonuniform List<scalar> 
13
(
6.96207e-06
5.91109e-06
5.91109e-06
6.14159e-06
6.10033e-06
6.10033e-06
6.10922e-06
6.10634e-06
6.10634e-06
6.10554e-06
6.10438e-06
6.10208e-06
6.10208e-06
)
;
    }
    procBoundary5to4
    {
        type            processor;
        value           nonuniform List<scalar> 
95
(
6.10477e-06
6.10478e-06
6.1045e-06
6.1045e-06
6.10367e-06
6.10334e-06
6.10334e-06
6.10255e-06
6.10235e-06
6.10235e-06
6.10178e-06
6.10178e-06
6.10144e-06
6.10144e-06
6.10127e-06
6.10124e-06
6.10124e-06
6.10132e-06
6.10132e-06
6.10138e-06
6.10153e-06
6.10153e-06
6.10161e-06
6.10179e-06
6.10179e-06
6.10187e-06
6.10207e-06
6.10207e-06
6.10217e-06
6.10228e-06
6.10251e-06
6.10251e-06
6.10262e-06
6.10272e-06
6.10298e-06
6.10298e-06
6.10309e-06
6.10321e-06
6.10349e-06
6.10349e-06
6.10361e-06
6.10372e-06
6.10404e-06
6.10404e-06
6.10416e-06
6.10428e-06
6.10439e-06
6.10449e-06
6.10484e-06
6.10484e-06
6.10493e-06
6.105e-06
6.10505e-06
6.10507e-06
6.10538e-06
6.10538e-06
6.10534e-06
6.10527e-06
6.10514e-06
6.10495e-06
6.1051e-06
6.1051e-06
6.10479e-06
6.10441e-06
6.10394e-06
6.10338e-06
6.10272e-06
6.10196e-06
6.10157e-06
6.10157e-06
6.10061e-06
6.09951e-06
6.09822e-06
6.09663e-06
6.09469e-06
6.09247e-06
6.09011e-06
6.08815e-06
6.08815e-06
6.08569e-06
6.08308e-06
6.08057e-06
6.07829e-06
6.07602e-06
6.07374e-06
6.07166e-06
6.07057e-06
6.0721e-06
6.07473e-06
6.07473e-06
6.07776e-06
6.08084e-06
6.08424e-06
6.08604e-06
6.09762e-06
)
;
    }
    procBoundary5to6
    {
        type            processor;
        value           nonuniform List<scalar> 
86
(
0.0869084
0.153856
0.206365
0.215412
0.175126
0.0933607
0.0217774
0.0054312
0
0
0
1.05251e-08
2.51286e-06
1.04389e-05
9.30608e-06
6.44137e-06
5.26931e-06
5.30665e-06
5.74166e-06
6.07604e-06
6.19485e-06
6.18569e-06
6.14628e-06
6.11957e-06
6.10958e-06
6.10831e-06
6.10925e-06
6.10985e-06
6.10986e-06
6.10961e-06
6.10937e-06
6.10921e-06
6.10912e-06
6.10834e-06
6.10834e-06
6.1084e-06
6.10849e-06
6.10862e-06
6.10876e-06
6.10892e-06
6.1091e-06
6.1093e-06
6.10949e-06
6.10969e-06
6.10988e-06
6.11006e-06
6.10973e-06
6.10973e-06
6.10984e-06
6.10992e-06
6.10995e-06
6.10993e-06
6.10984e-06
6.10968e-06
6.10943e-06
6.10909e-06
6.10804e-06
6.10804e-06
6.10746e-06
6.10676e-06
6.10595e-06
6.10502e-06
6.10394e-06
6.1026e-06
6.10008e-06
6.10008e-06
6.09787e-06
6.09534e-06
6.0927e-06
6.09003e-06
6.08739e-06
6.0849e-06
6.08166e-06
6.08166e-06
6.07898e-06
6.07625e-06
6.07354e-06
6.07117e-06
6.07139e-06
6.07421e-06
6.07754e-06
6.08166e-06
6.08489e-06
6.08489e-06
6.09051e-06
6.10005e-06
)
;
    }
}


// ************************************************************************* //
