/*--------------------------------*- C++ -*----------------------------------*\
| =========                 |                                                 |
| \\      /  F ield         | OpenFOAM: The Open Source CFD Toolbox           |
|  \\    /   O peration     | Version:  2506                                  |
|   \\  /    A nd           | Website:  www.openfoam.com                      |
|    \\/     M anipulation  |                                                 |
\*---------------------------------------------------------------------------*/
FoamFile
{
    version     2.0;
    format      ascii;
    arch        "LSB;label=32;scalar=64";
    class       volScalarField;
    location    "350";
    object      turbulenceProperties:I;
}
// * * * * * * * * * * * * * * * * * * * * * * * * * * * * * * * * * * * * * //

dimensions      [0 0 0 0 0 0 0];

internalField   nonuniform List<scalar> 
1340
(
0.00417415
0.00414921
0.00416937
0.0042978
0.00446113
0.00469046
0.00500344
0.00538911
0.00586664
0.00645482
0.00717328
0.00806426
0.00918832
0.0106287
0.0125289
0.0150865
0.0186939
0.0238228
0.032012
0.0443841
0.0693861
0.111468
0.228118
0.42105
0.507966
0.467012
0.40837
0.366424
0.3394
0.322269
0.31119
0.303472
0.299
0.296888
0.29695
0.00422554
0.00438256
0.00456343
0.00498534
0.00568709
0.00704437
0.0101837
0.00181797
0.00166485
0.00152725
0.00139738
0.00127674
0.00116852
0.00106935
0.000977928
0.000896837
0.000824193
0.000759302
0.000711278
0.000692102
0.000711384
0.000795772
0.000979894
0.00132938
0.00190084
0.00294515
0.00464564
0.00817325
0.014151
0.0265369
0.0521215
0.0805482
0.108814
0.136956
0.161327
0.175687
0.17771
0.171264
0.161901
0.153564
0.147661
0.144836
0.00198369
0.00219108
0.00246996
0.00286796
0.00346325
0.00439747
0.00157878
0.00145483
0.00133336
0.0012191
0.00112082
0.00103367
0.000958225
0.00089578
0.000844885
0.000805014
0.000774134
0.000752516
0.000739219
0.000734136
0.000730004
0.000715283
0.00065728
0.000602905
8.08621e-05
0.000707798
0.000332333
0.000639869
0.000120185
0.00234072
0.00790559
0.0153917
0.0255748
0.0403082
0.0602785
0.0834983
0.105769
0.122394
0.131176
0.134262
0.135553
0.0017224
0.00189311
0.0021289
0.0024434
0.00286709
0.00342267
0.00149031
0.00138678
0.00128705
0.00119636
0.00111325
0.00103595
0.000965523
0.000900581
0.000840974
0.000785996
0.000735042
0.000687283
0.00064187
0.000598311
0.000555828
0.000512259
0.000468328
0.000429584
0.000376678
0.000321155
0.000156415
0.000212272
7.57641e-05
0.00123871
0.00280465
0.000346757
0.00123785
0.00151775
0.00415821
0.0127598
0.0277077
0.048477
0.0717021
0.0924063
0.107755
0.00160007
0.0017281
0.00189092
0.00210528
0.00237231
0.00131458
0.00122938
0.00114555
0.0010663
0.000993181
0.000924198
0.00086046
0.000802007
0.00074838
0.000700071
0.000656905
0.000618872
0.000586192
0.000558871
0.000536888
0.00051937
0.000503026
0.000484596
0.000464778
0.000435311
0.000399739
0.000272999
9.60774e-05
4.3396e-05
0
8.2527e-05
0.000630163
0.00155342
0.00352924
0.00258153
0.00386746
0.00522161
0.0134977
0.0343177
0.0593489
0.0014057
0.00150913
0.00163743
0.00179527
0.00197619
0.0011968
0.00112922
0.00106149
0.000997568
0.000938209
0.000881789
0.000829325
0.000780556
0.000735067
0.000692826
0.00065343
0.000616635
0.000582299
0.000550182
0.000520098
0.000490988
0.000461033
0.000430998
0.000402607
0.000377632
0.000361314
0.00033514
0.000304912
0.000157561
6.71296e-05
4.65268e-05
2.17338e-05
0
0
0.00101827
0.00198552
0.00457112
0.00203207
0.00739453
0.0113092
0.00126678
0.00134421
0.00143797
0.00155022
0.00107724
0.00102235
0.00096645
0.000912775
0.000862539
0.000814029
0.000768239
0.000725221
0.000684561
0.000646392
0.000610571
0.000576985
0.000545712
0.000516797
0.000490228
0.000466248
0.000445443
0.000427046
0.000409338
0.000391376
0.000374768
0.000361496
0.000352604
0.000324706
0.000268313
0.000197019
8.48247e-05
5.12165e-05
3.9657e-05
1.21183e-05
0
0
0.000766312
0.004326
0.00384793
0.00113335
0.00119405
0.00126592
0.00134885
0.000977355
0.000933358
0.000887882
0.000843813
0.000802382
0.00076203
0.000723778
0.00068767
0.00065335
0.000620944
0.000590241
0.000561128
0.00053358
0.000507509
0.000482848
0.000459603
0.000437252
0.000415004
0.000393332
0.000373135
0.000355327
0.000341648
0.000332876
0.000328072
0.000316028
0.000293333
0.000258812
0.000215269
0.000169676
4.81884e-05
4.16602e-05
8.75618e-06
0
0
0.00150541
0.00102151
0.00106851
0.00112331
0.00118506
0.000887756
0.000852069
0.000814679
0.000778011
0.000743363
0.000709266
0.000676648
0.00064561
0.000615832
0.000587428
0.000560268
0.000534245
0.000509375
0.000485627
0.00046303
0.000441564
0.00042131
0.000402601
0.000385281
0.000369122
0.000354117
0.00034078
0.000329733
0.000321084
0.000312377
0.000300975
0.000287521
0.000270917
0.00025505
0.000222801
0.00018569
3.92228e-05
3.23024e-05
0
0
0.000923118
0.000960161
0.0010028
0.000690655
0.000662069
0.000634565
0.000608264
0.000582903
0.000558589
0.000535195
0.000512631
0.000490906
0.000469983
0.000449862
0.000430545
0.000412092
0.000394282
0.000376982
0.000360577
0.000345638
0.000332644
0.000321764
0.000312195
0.000302298
0.000290719
0.000278181
0.000266815
0.000258408
0.000252017
0.000245507
0.000215289
0.000144237
4.41084e-05
0
0.00059455
0.000572146
0.000550396
0.000529419
0.000509093
0.000489332
0.000470142
0.000451488
0.00043339
0.000415882
0.000398986
0.000382801
0.00036743
0.000352954
0.000339612
0.000327609
0.000317032
0.000307319
0.00029714
0.000285422
0.000272521
0.000260336
0.000250593
0.000244404
0.000241107
0.000241699
0.000232782
0.000183189
4.88094e-05
0.000520015
0.000502037
0.000484527
0.000467404
0.000450667
0.000434286
0.000418271
0.000402651
0.00038747
0.000372814
0.00035863
0.000345019
0.000332341
0.000320875
0.000310666
0.000301241
0.00029152
0.000280565
0.000268516
0.000256723
0.000246567
0.000238653
0.000232707
0.0002307
0.000233138
0.000235709
0.000197131
0.000475727
0.000460638
0.000445799
0.0004312
0.000416803
0.000402621
0.000388687
0.000375032
0.000361765
0.000348932
0.000336611
0.000325021
0.000314366
0.000304652
0.000295525
0.000286186
0.000275902
0.000264752
0.000253777
0.000244109
0.000236077
0.000229401
0.000224357
0.000222489
0.000225894
0.000239342
0.000437823
0.00042501
0.000412343
0.000399784
0.000387328
0.000375002
0.000362834
0.000350934
0.000339338
0.000328089
0.000317363
0.000307398
0.000298194
0.000289471
0.000280602
0.000270996
0.000260691
0.000250517
0.00024146
0.000233837
0.000227441
0.000222132
0.000218325
0.00021703
0.000222425
0.000415974
0.000404949
0.000393989
0.000383058
0.000372142
0.000361271
0.000350474
0.000339827
0.000329409
0.000319255
0.00030946
0.000300249
0.000291625
0.000283361
0.000274986
0.000266031
0.000256501
0.000247049
0.000238526
0.00023129
0.000225225
0.000220288
0.000216406
0.000214926
0.000210482
0.000385685
0.000376235
0.000366758
0.000357251
0.000347723
0.0003382
0.000328733
0.000319425
0.000310285
0.000301367
0.000292879
0.000284843
0.000277085
0.000269234
0.000260922
0.000252136
0.000243385
0.000235383
0.000228501
0.0002227
0.000218031
0.000214372
0.00021314
0.000209716
0.000359088
0.000350914
0.000342665
0.000334349
0.000325985
0.000317611
0.00030933
0.000301151
0.000293099
0.000285337
0.000277911
0.000270691
0.000263385
0.000255701
0.000247623
0.000239547
0.000232064
0.000225538
0.000219991
0.00021549
0.000212071
0.000210354
0.000210596
0.000342584
0.000335555
0.000328428
0.000321205
0.000313902
0.000306539
0.000299209
0.000291929
0.000284705
0.000277647
0.000270832
0.000264169
0.00025742
0.000250353
0.000242952
0.000235526
0.000228563
0.000222405
0.000217127
0.00021278
0.000209562
0.000207419
0.000208937
0.00032069
0.000314566
0.000308326
0.000301981
0.00029555
0.000289094
0.00028265
0.000276209
0.000269834
0.000263631
0.000257533
0.000251344
0.000244876
0.00023812
0.000231317
0.000224869
0.000219089
0.00021409
0.000209926
0.000206833
0.000204663
0.000205484
0.000306359
0.00030112
0.000295759
0.000290276
0.000284687
0.000279028
0.000273356
0.000267654
0.000261943
0.000256335
0.000250796
0.000245161
0.000239277
0.000233135
0.000226928
0.000220985
0.000215588
0.000210872
0.000206913
0.000203899
0.000201899
0.000201666
0.000288088
0.000283507
0.000278796
0.000273968
0.000269044
0.00026409
0.000259076
0.000253999
0.00024897
0.000243978
0.000238886
0.000233564
0.000228007
0.000222367
0.000216916
0.000211904
0.000207474
0.000203727
0.000200791
0.000198928
0.000198059
0.000275487
0.000271597
0.000267579
0.000263439
0.000259186
0.000254882
0.0002505
0.000246024
0.000241551
0.000237087
0.000232522
0.000227742
0.00022274
0.000217641
0.000212667
0.000208036
0.000203897
0.000200361
0.000197527
0.000195711
0.000194614
0.000260048
0.000256643
0.000253117
0.00024947
0.000245755
0.000241955
0.000238046
0.000234101
0.000230142
0.000226084
0.000221819
0.000217343
0.000212757
0.000208243
0.00020399
0.00020014
0.000196813
0.000194097
0.000192277
0.000191129
0.000248859
0.000246001
0.000243021
0.000239923
0.000236744
0.000233475
0.000230096
0.000226646
0.000223167
0.000219586
0.000215809
0.000211827
0.000207727
0.000203651
0.000199768
0.000196207
0.000193089
0.000190497
0.000188663
0.000187478
0.000238043
0.000235665
0.000233173
0.000230566
0.000227867
0.000225085
0.000222188
0.000219197
0.000216166
0.000213038
0.000209722
0.000206206
0.000202561
0.000198905
0.000195378
0.000192103
0.000189191
0.000186724
0.000184889
0.000183633
0.000225643
0.000223582
0.000221412
0.000219145
0.0002168
0.000214347
0.000211783
0.000209171
0.000206463
0.000203574
0.000200491
0.000197272
0.000194013
0.00019083
0.000187832
0.000185124
0.000182784
0.000180951
0.00017961
0.000215939
0.000214258
0.000212475
0.000210597
0.000208645
0.000206591
0.000204421
0.000202194
0.000199874
0.000197381
0.000194699
0.000191876
0.000188989
0.000186133
0.000183404
0.000180895
0.000178678
0.000176863
0.000175427
0.000206554
0.000205206
0.000203766
0.000202234
0.000200635
0.000198938
0.000197126
0.000195249
0.000193284
0.000191156
0.000188844
0.000186387
0.000183847
0.000181301
0.00017883
0.000176515
0.000174416
0.000172627
0.000171106
0.000196434
0.000195296
0.00019407
0.000192781
0.000191403
0.000189914
0.000188358
0.000186714
0.000184915
0.000182941
0.00018082
0.000178602
0.000176346
0.000174119
0.000171992
0.000170013
0.000168248
0.00016666
0.000187944
0.000187068
0.000186112
0.000185097
0.000184001
0.000182801
0.000181531
0.000180176
0.000178676
0.000177009
0.000175194
0.00017327
0.000171284
0.000169288
0.000167339
0.000165476
0.000163744
0.000162097
0.000179734
0.000179086
0.000178366
0.000177591
0.000176744
0.0001758
0.000174786
0.000173689
0.000172455
0.000171064
0.000169525
0.00016787
0.000166132
0.000164351
0.000162572
0.00016082
0.000159125
0.000157433
0.000171352
0.000170838
0.000170272
0.000169643
0.000168924
0.000168134
0.000167264
0.000166268
0.000165121
0.000163831
0.000162418
0.000160906
0.000159324
0.000157704
0.000156061
0.000154407
0.000152685
0.000163871
0.000163534
0.000163147
0.000162706
0.000162183
0.000161589
0.000160918
0.000160128
0.000159198
0.000158129
0.000156933
0.000155626
0.000154226
0.000152754
0.000151215
0.000149608
0.000147867
0.000156637
0.00015645
0.000156219
0.000155939
0.000155586
0.00015516
0.000154662
0.000154054
0.000153313
0.000152437
0.000151433
0.00015031
0.000149075
0.00014774
0.000146301
0.000144743
0.000149594
0.000149494
0.000149351
0.000149141
0.00014886
0.00014851
0.000148058
0.000147479
0.000146772
0.000145937
0.000144976
0.000143891
0.000142681
0.000141337
0.000139832
0.000142963
0.000142973
0.000142945
0.000142856
0.000142698
0.000142473
0.000142152
0.000141713
0.000141152
0.000140463
0.000139645
0.000138692
0.000137597
0.000136343
0.000134895
0.000136556
0.000136658
0.000136726
0.000136737
0.000136681
0.000136561
0.00013635
0.000136029
0.000135591
0.000135029
0.000134335
0.000133499
0.000132508
0.000131338
0.000129949
0.000130373
0.000130552
0.000130697
0.000130789
0.000130817
0.000130782
0.000130663
0.00013044
0.000130106
0.000129651
0.000129063
0.00012833
0.000127433
0.000126342
0.000125014
0.000124413
0.000124651
0.000124858
0.000125015
0.000125112
0.000125146
0.000125101
0.000124959
0.000124711
0.000124345
0.000123849
0.000123205
0.000122391
0.000121375
0.00012011
0.000118957
0.000119213
0.000119421
0.000119571
0.00011966
0.000119673
0.000119596
0.000119418
0.000119126
0.000118707
0.00011814
0.000117401
0.000116454
0.000115253
0.000113469
0.000113761
0.000114008
0.000114197
0.000114328
0.000114388
0.000114361
0.00011424
0.000114009
0.000113654
0.000113153
0.000112479
0.000111598
0.00011046
0.000108184
0.000108503
0.000108777
0.000108996
0.000109158
0.000109252
0.000109265
0.000109187
0.000109005
0.000108703
0.000108258
0.000107643
0.000106822
0.000105748
0.000103101
0.000103437
0.000103731
0.00010397
0.000104153
0.000104271
0.000104313
0.000104269
0.000104126
0.000103867
0.000103469
0.000102906
0.000102142
0.000101131
9.82166e-05
9.85636e-05
9.8868e-05
9.91193e-05
9.93158e-05
9.94505e-05
9.95131e-05
9.94939e-05
9.93806e-05
9.91563e-05
9.87989e-05
9.82818e-05
9.75709e-05
9.66211e-05
9.38799e-05
9.41891e-05
9.44463e-05
9.46498e-05
9.47937e-05
9.48695e-05
9.48682e-05
9.47777e-05
9.45812e-05
9.42575e-05
9.37812e-05
9.31195e-05
9.22298e-05
8.93845e-05
8.96931e-05
8.99507e-05
9.01555e-05
9.03035e-05
9.03871e-05
9.03978e-05
9.03238e-05
9.01492e-05
8.98539e-05
8.94139e-05
8.8798e-05
8.50752e-05
8.53787e-05
8.5632e-05
8.58343e-05
8.59821e-05
8.60687e-05
8.60865e-05
8.60241e-05
8.58666e-05
8.55954e-05
8.51876e-05
8.46141e-05
8.09481e-05
8.12435e-05
8.14896e-05
8.16858e-05
8.18298e-05
8.19161e-05
8.19373e-05
8.18826e-05
8.17384e-05
8.14875e-05
8.11084e-05
8.05745e-05
7.70004e-05
7.72855e-05
7.75218e-05
7.77093e-05
7.7847e-05
7.79299e-05
7.79514e-05
7.79016e-05
7.77677e-05
7.7534e-05
7.71809e-05
7.66837e-05
7.35011e-05
7.37258e-05
7.39031e-05
7.40326e-05
7.41101e-05
7.41297e-05
7.40825e-05
7.39566e-05
7.37375e-05
7.34076e-05
7.29448e-05
6.98871e-05
7.00991e-05
7.02649e-05
7.03848e-05
7.04557e-05
7.04721e-05
7.04257e-05
7.03058e-05
7.00993e-05
6.97904e-05
6.93592e-05
6.64399e-05
6.66382e-05
6.67918e-05
6.69015e-05
6.6965e-05
6.69769e-05
6.69299e-05
6.68147e-05
6.66193e-05
6.63296e-05
6.59276e-05
6.31553e-05
6.33396e-05
6.34805e-05
6.35795e-05
6.36348e-05
6.36416e-05
6.35935e-05
6.34818e-05
6.32962e-05
6.3024e-05
6.26491e-05
6.00286e-05
6.01985e-05
6.03269e-05
6.04153e-05
6.04622e-05
6.04637e-05
6.04138e-05
6.03049e-05
6.0128e-05
5.98715e-05
5.95216e-05
5.70551e-05
5.72112e-05
5.73272e-05
5.7405e-05
5.74435e-05
5.74394e-05
5.73874e-05
5.72808e-05
5.71115e-05
5.68695e-05
5.42303e-05
5.4373e-05
5.44768e-05
5.45444e-05
5.45747e-05
5.4565e-05
5.45107e-05
5.44059e-05
5.42434e-05
5.40147e-05
5.16796e-05
5.17718e-05
5.18294e-05
5.1852e-05
5.18367e-05
5.17799e-05
5.16764e-05
5.152e-05
5.13032e-05
4.91266e-05
4.92077e-05
4.92558e-05
4.92707e-05
4.92502e-05
4.91909e-05
4.90884e-05
4.89373e-05
4.87313e-05
4.67069e-05
4.67777e-05
4.68171e-05
4.68251e-05
4.67998e-05
4.67382e-05
4.66366e-05
4.64905e-05
4.62942e-05
4.44102e-05
4.44717e-05
4.45031e-05
4.45049e-05
4.44755e-05
4.44124e-05
4.43122e-05
4.41712e-05
4.39845e-05
4.22225e-05
4.22752e-05
4.22997e-05
4.22964e-05
4.22641e-05
4.22005e-05
4.21027e-05
4.19675e-05
4.17907e-05
4.01327e-05
4.01772e-05
4.01954e-05
4.01877e-05
4.01531e-05
4.00895e-05
3.99947e-05
3.98658e-05
3.81414e-05
3.81783e-05
3.81901e-05
3.81776e-05
3.81401e-05
3.80759e-05
3.79833e-05
3.78599e-05
3.62562e-05
3.6285e-05
3.629e-05
3.6272e-05
3.62304e-05
3.61642e-05
3.60719e-05
3.59517e-05
3.45061e-05
3.45039e-05
3.44796e-05
3.4433e-05
3.43632e-05
3.4269e-05
3.41497e-05
3.2833e-05
3.28233e-05
3.27921e-05
3.27397e-05
3.26651e-05
3.25673e-05
3.24468e-05
3.1279e-05
3.12672e-05
3.12347e-05
3.11845e-05
3.11104e-05
3.1013e-05
3.0899e-05
2.9988e-05
2.99717e-05
2.9934e-05
2.98842e-05
2.98072e-05
2.97048e-05
2.95971e-05
2.88946e-05
2.88708e-05
2.88225e-05
2.87631e-05
2.86739e-05
2.85549e-05
2.78212e-05
2.78007e-05
2.77543e-05
2.76956e-05
2.76072e-05
2.7486e-05
2.67206e-05
2.66897e-05
2.66307e-05
2.65582e-05
2.64594e-05
2.6321e-05
2.56546e-05
2.56371e-05
2.55919e-05
2.55296e-05
2.54443e-05
2.53271e-05
2.444e-05
2.43782e-05
2.42861e-05
2.41822e-05
2.40617e-05
2.38769e-05
2.36323e-05
2.36363e-05
2.36094e-05
2.3544e-05
2.34682e-05
2.33989e-05
2.18113e-05
2.16642e-05
2.15413e-05
2.13943e-05
2.10716e-05
2.24675e-05
2.25286e-05
2.24613e-05
2.24421e-05
2.26505e-05
1.99608e-05
1.99813e-05
2.01298e-05
2.00682e-05
1.96699e-05
2.45895e-05
2.49289e-05
2.4896e-05
2.50416e-05
2.57598e-05
2.60838e-05
2.64621e-05
2.69941e-05
3.11e-05
3.19893e-05
3.14064e-05
3.05924e-05
)
;

boundaryField
{
    inlet
    {
        type            calculated;
        value           nonuniform List<scalar> 4(6.55124e-05 6.75755e-05 6.7998e-05 6.8379e-05);
    }
    outlet
    {
        type            calculated;
        value           nonuniform List<scalar> 0();
    }
    walls
    {
        type            calculated;
        value           uniform 0;
    }
    frontAndBack
    {
        type            empty;
    }
    procBoundary5to0
    {
        type            processor;
        value           nonuniform List<scalar> 4(0.000809572 0.000837914 0.000867272 0.000900731);
    }
    procBoundary5to1
    {
        type            processor;
        value           nonuniform List<scalar> 
13
(
0.0170022
0.00583321
0.00583321
0.0040557
0.00268417
0.00268417
0.0021672
0.00167236
0.00167236
0.00143479
0.00124698
0.00104972
0.00104972
)
;
    }
    procBoundary5to4
    {
        type            processor;
        value           nonuniform List<scalar> 
95
(
0.0007806
0.000749892
0.000719507
0.000719507
0.00064196
0.000617882
0.000617882
0.000557604
0.000538574
0.000538574
0.000491145
0.000491145
0.000450779
0.000450779
0.00042708
0.000395154
0.000395154
0.000367202
0.000367202
0.000349532
0.000326709
0.000326709
0.000311481
0.000292544
0.000292544
0.000279251
0.000263326
0.000263326
0.000251599
0.000240308
0.000227597
0.000227597
0.000217522
0.000207812
0.000197491
0.000197491
0.000188745
0.000180316
0.000171802
0.000171802
0.000164151
0.000156774
0.000149652
0.000149652
0.000142913
0.000136418
0.000130162
0.000124143
0.000118671
0.000118671
0.000113146
0.000107835
0.000102735
9.78402e-05
9.3529e-05
9.3529e-05
8.90343e-05
8.47301e-05
8.06115e-05
7.66747e-05
7.32288e-05
7.32288e-05
6.96289e-05
6.61963e-05
6.29266e-05
5.98151e-05
5.68567e-05
5.40464e-05
5.15499e-05
5.15499e-05
4.90092e-05
4.66014e-05
4.43158e-05
4.21381e-05
4.00582e-05
3.80761e-05
3.61999e-05
3.44853e-05
3.44853e-05
3.28202e-05
3.12691e-05
2.99813e-05
2.88926e-05
2.78156e-05
2.67232e-05
2.56449e-05
2.44753e-05
2.35922e-05
2.19298e-05
2.19298e-05
2.23784e-05
1.98988e-05
2.4286e-05
2.52688e-05
3.1076e-05
)
;
    }
    procBoundary5to6
    {
        type            processor;
        value           nonuniform List<scalar> 
86
(
0.29924
0.14527
0.137385
0.118695
0.0834374
0.0367132
0.00956067
0.00641086
0
0
0
4.54311e-05
0.000177848
0.000254384
0.000243645
0.000218415
0.000204508
0.000201886
0.000202825
0.000202397
0.000199812
0.000195978
0.000191748
0.000187478
0.000183212
0.000178878
0.000174439
0.000169888
0.000165227
0.000160481
0.000155667
0.000150793
0.000145881
0.000142998
0.000142998
0.000138097
0.00013318
0.000128265
0.000123374
0.00011852
0.000113721
0.000108993
0.00010435
9.98056e-05
9.53705e-05
9.10541e-05
8.79665e-05
8.79665e-05
8.38387e-05
7.98526e-05
7.60125e-05
7.23215e-05
6.87813e-05
6.53916e-05
6.21523e-05
5.90613e-05
5.65426e-05
5.65426e-05
5.3709e-05
5.10167e-05
4.84622e-05
4.60408e-05
4.3746e-05
4.1567e-05
3.96992e-05
3.96992e-05
3.77026e-05
3.58013e-05
3.40034e-05
3.23019e-05
3.07612e-05
2.9468e-05
2.84366e-05
2.84366e-05
2.7362e-05
2.61821e-05
2.5191e-05
2.37137e-05
2.32363e-05
2.09232e-05
2.24332e-05
1.98246e-05
2.60579e-05
2.60579e-05
2.70554e-05
3.50903e-05
)
;
    }
}


// ************************************************************************* //
