/*--------------------------------*- C++ -*----------------------------------*\
| =========                 |                                                 |
| \\      /  F ield         | OpenFOAM: The Open Source CFD Toolbox           |
|  \\    /   O peration     | Version:  2506                                  |
|   \\  /    A nd           | Website:  www.openfoam.com                      |
|    \\/     M anipulation  |                                                 |
\*---------------------------------------------------------------------------*/
FoamFile
{
    version     2.0;
    format      ascii;
    arch        "LSB;label=32;scalar=64";
    class       volScalarField;
    location    "350";
    object      turbulenceProperties:L;
}
// * * * * * * * * * * * * * * * * * * * * * * * * * * * * * * * * * * * * * //

dimensions      [0 1 0 0 0 0 0];

internalField   nonuniform List<scalar> 
1340
(
0.00178912
0.00171335
0.00164696
0.00158334
0.00154546
0.00152526
0.00152699
0.0015552
0.00161196
0.00170012
0.00182526
0.00199343
0.00221101
0.00249249
0.00286025
0.00334535
0.00400938
0.00491175
0.00628145
0.00817067
0.0117165
0.0166918
0.0291097
0.0467157
0.0546941
0.0564672
0.0575897
0.0591783
0.0606051
0.06146
0.0618562
0.0620491
0.0621907
0.0623477
0.0625886
0.00188275
0.00198098
0.0021404
0.00233267
0.00260307
0.00298956
0.0035147
0.00386722
0.00387787
0.00390029
0.00395793
0.00405246
0.00417
0.0043227
0.00451614
0.00473541
0.00498435
0.00526237
0.00548432
0.00552531
0.00534556
0.00500168
0.00478957
0.00499063
0.00555569
0.00656923
0.00776493
0.0101233
0.0130481
0.0187106
0.0300924
0.041453
0.0541579
0.0690721
0.0853782
0.101213
0.115576
0.12926
0.143046
0.155787
0.166569
0.175314
0.00388509
0.00391211
0.00396871
0.00405737
0.00418861
0.00438249
0.00473344
0.0047525
0.0048073
0.0048947
0.00499143
0.00510463
0.00522727
0.00534558
0.0054542
0.00554348
0.00561604
0.00565984
0.00567329
0.00565249
0.00564393
0.00572313
0.00618898
0.00675747
0.117696
0.0057258
0.0134175
0.00675232
0.0340372
0.0157308
0.0253931
0.0341361
0.0445148
0.0588055
0.0773453
0.0983954
0.119627
0.139451
0.158539
0.178025
0.197633
0.00471489
0.0047175
0.00472355
0.00476583
0.00484406
0.00498479
0.00514928
0.00514393
0.00515689
0.00517849
0.00522395
0.00529392
0.00538523
0.00550615
0.00565488
0.00583431
0.00604756
0.00630017
0.00660057
0.00695709
0.00738479
0.00793137
0.00861814
0.00936724
0.0107055
0.0129633
0.0366968
0.024728
0.118209
0.00644211
0.0154623
0.0123161
0.0131767
0.0406266
0.074615
0.0822926
0.103124
0.127609
0.152201
0.175432
0.198515
0.00517714
0.00522023
0.00529008
0.00537803
0.00549478
0.00594546
0.00595072
0.0059741
0.00601648
0.00608388
0.00617898
0.0063001
0.0064496
0.00662758
0.00682775
0.00704708
0.00727867
0.00751133
0.00773416
0.00793558
0.00811788
0.00832424
0.00860861
0.0089705
0.00958425
0.0104677
0.0165073
0.0768475
0.264239
0
0.108261
0.0073918
0.00914949
0.0208294
0.0170349
0.0351623
0.12739
0.186966
0.184924
0.202621
0.00595317
0.00597432
0.00601716
0.00608767
0.00619149
0.00656687
0.00655291
0.00655424
0.00656597
0.00659846
0.00665216
0.00672618
0.00682565
0.00695168
0.00710475
0.00728831
0.00750371
0.00775216
0.00803611
0.00835798
0.00873614
0.00921298
0.00979369
0.010456
0.0111561
0.0117201
0.0126792
0.0140308
0.0332718
0.120605
0.215321
0.697987
0
0
0.0100435
0.0161383
0.0348315
0.017246
0.106285
0.312326
0.00659682
0.00663889
0.00670158
0.00678708
0.00730133
0.00728535
0.00728281
0.00729204
0.00732126
0.0073727
0.00744649
0.00754693
0.00767629
0.00783496
0.00802501
0.00824721
0.00850046
0.00878296
0.00909284
0.00942273
0.00975513
0.0100986
0.01049
0.0109563
0.0114599
0.0119357
0.0123383
0.0134788
0.0166227
0.0244555
0.0814229
0.173735
0.260134
1.60374
0
0
0.0110215
0.0444397
0.0417136
0.00733148
0.0073729
0.00743448
0.00752184
0.00801991
0.00799268
0.00797664
0.0079702
0.00798113
0.00801123
0.00805991
0.00813193
0.00822915
0.00835208
0.00850422
0.00868687
0.0089014
0.00914998
0.00943459
0.00975624
0.0101277
0.0105731
0.0110897
0.0116568
0.0122413
0.0127671
0.0131805
0.0135105
0.0142107
0.0155478
0.0179485
0.0222497
0.0300301
0.185083
0.234335
2.51138
0
0
0.0253864
0.00806134
0.00811213
0.00818177
0.00827704
0.00878094
0.00874655
0.00872174
0.00870635
0.0087069
0.00872564
0.00876246
0.00882226
0.00890697
0.00901794
0.00915842
0.00933026
0.00953508
0.00977507
0.0100512
0.0103658
0.0107186
0.0111017
0.0115179
0.0119727
0.0124644
0.012971
0.0134624
0.0139325
0.0144953
0.0152961
0.0163404
0.0177111
0.0192242
0.0224402
0.0279606
0.258964
0.355652
0
0
0.00882874
0.00888504
0.00895945
0.00944403
0.0094473
0.00946705
0.00950805
0.0095718
0.00965976
0.0097754
0.00992047
0.0100969
0.0103072
0.0105534
0.0108384
0.011163
0.0115361
0.0119659
0.0124441
0.0129509
0.0134623
0.0139629
0.0144844
0.0151141
0.0159456
0.0169687
0.0180599
0.0190725
0.0200374
0.0211051
0.0245257
0.0402031
0.229821
0
0.0102142
0.01024
0.0102878
0.0103589
0.010457
0.010584
0.0107423
0.0109346
0.0111632
0.0114304
0.0117387
0.0120885
0.0124791
0.0129095
0.0133708
0.0138524
0.0143473
0.0148819
0.0155325
0.0163814
0.0174401
0.0186029
0.0197277
0.02069
0.0215084
0.0220942
0.0235355
0.0309339
0.205292
0.0110287
0.0110811
0.0111592
0.0112649
0.0114006
0.0115692
0.0117732
0.0120152
0.0122974
0.0126208
0.0129905
0.013407
0.0138583
0.0143317
0.0148231
0.0153559
0.0159955
0.0168156
0.0178364
0.0189858
0.0201542
0.0212672
0.022321
0.023111
0.0235725
0.02409
0.0295567
0.0118428
0.0119027
0.0119892
0.0121049
0.0122531
0.0124359
0.0126562
0.0129167
0.0132177
0.0135612
0.0139479
0.0143716
0.0148239
0.0153045
0.0158337
0.0164641
0.0172577
0.0182339
0.0193368
0.0204759
0.021605
0.0227321
0.0238162
0.024679
0.0250789
0.0246797
0.0126809
0.0127482
0.0128435
0.0129699
0.0131301
0.0133268
0.0135631
0.0138392
0.0141576
0.0145208
0.014925
0.0153615
0.0158313
0.0163524
0.0169694
0.0177352
0.018669
0.0197256
0.0208252
0.0219254
0.0230306
0.0241436
0.0252112
0.0261008
0.0263519
0.013499
0.0135471
0.0136226
0.0137283
0.0138671
0.0140416
0.0142544
0.0145072
0.0148006
0.0151375
0.0155182
0.0159348
0.0163897
0.0168995
0.0175009
0.0182391
0.019133
0.0201473
0.0212127
0.0222856
0.023364
0.0244415
0.0255169
0.0264247
0.0278099
0.0143864
0.0144423
0.0145275
0.0146444
0.0147961
0.0149853
0.0152141
0.0154823
0.0157941
0.0161519
0.0165492
0.0169882
0.0174836
0.0180669
0.0187768
0.0196312
0.0206033
0.0216347
0.0226829
0.0237408
0.0247936
0.0258451
0.0267199
0.0279745
0.0153053
0.0153699
0.0154654
0.0155947
0.0157606
0.0159657
0.0162094
0.0164958
0.0168292
0.0172056
0.0176265
0.0181047
0.0186676
0.0193485
0.0201641
0.0210943
0.0220908
0.0231134
0.0241516
0.0251898
0.0262155
0.0271434
0.0279409
0.0162128
0.0162573
0.0163316
0.0164388
0.0165813
0.0167625
0.0169819
0.0172432
0.0175516
0.0179065
0.0183077
0.0187664
0.0193068
0.0199579
0.020735
0.0216237
0.0225839
0.0235792
0.0245955
0.0256204
0.026624
0.0276012
0.0282307
0.0171926
0.0172457
0.0173307
0.0174502
0.0176072
0.0178025
0.0180388
0.018322
0.0186544
0.0190342
0.0194713
0.0199873
0.0206079
0.0213472
0.0221946
0.0231178
0.024084
0.0250768
0.026085
0.0270747
0.0280538
0.0287582
0.0181768
0.0182089
0.0182719
0.0183685
0.0185015
0.0186732
0.0188846
0.0191421
0.0194507
0.019808
0.0202219
0.0207122
0.0213015
0.0220031
0.0228097
0.0236952
0.0246308
0.0255992
0.0265878
0.0275689
0.0285248
0.0293567
0.0192248
0.0192658
0.0193397
0.0194491
0.0195967
0.0197826
0.0200141
0.020298
0.0206315
0.0210209
0.0214839
0.0220415
0.0227055
0.0234718
0.0243193
0.025223
0.0261658
0.0271334
0.0281061
0.029042
0.0299529
0.0202955
0.0203148
0.0203657
0.0204512
0.0205745
0.0207354
0.0209413
0.0211994
0.021508
0.0218718
0.0223064
0.0228313
0.023458
0.0241841
0.0249932
0.025864
0.02678
0.0277259
0.0286872
0.0296145
0.0305516
0.021421
0.0214493
0.0215111
0.0216101
0.0217463
0.0219261
0.0221575
0.0224404
0.0227775
0.0231826
0.0236744
0.024264
0.0249502
0.0257207
0.0265576
0.0274456
0.0283696
0.0293171
0.0302433
0.0311822
0.0225883
0.0225936
0.0226318
0.0227062
0.0228175
0.0229712
0.023175
0.0234313
0.0237408
0.024116
0.0245745
0.025127
0.0257736
0.0265054
0.0273076
0.0281666
0.029068
0.0300007
0.0309275
0.031867
0.0238193
0.0238017
0.0238161
0.0238657
0.0239523
0.0240793
0.0242556
0.024485
0.0247664
0.0251109
0.0255354
0.0260507
0.026658
0.0273511
0.0281183
0.0289474
0.0298255
0.0307429
0.0316693
0.0326154
0.0250771
0.0250675
0.0250923
0.025154
0.0252545
0.0254025
0.0256042
0.0258567
0.0261701
0.0265608
0.0270395
0.027608
0.0282623
0.028994
0.0297927
0.0306471
0.0315486
0.0324747
0.0334312
0.0264234
0.0263897
0.0263896
0.0264258
0.0264997
0.0266195
0.0267927
0.0270161
0.0272982
0.0276551
0.0280973
0.0286274
0.0292434
0.0299393
0.0307072
0.0315376
0.0324232
0.0333474
0.034318
0.0278446
0.0277868
0.0277614
0.0277719
0.0278188
0.0279105
0.0280548
0.028249
0.0284999
0.0288228
0.0292287
0.0297209
0.030299
0.0309593
0.0316959
0.0325017
0.0333724
0.0342939
0.0352792
0.0292623
0.0292116
0.0291961
0.0292162
0.0292796
0.0293949
0.0295593
0.0297791
0.0300687
0.030439
0.0308937
0.0314342
0.0320591
0.0327648
0.0335458
0.0344005
0.0353208
0.0363199
0.030821
0.0307447
0.0307031
0.0306962
0.0307314
0.0308175
0.0309522
0.031141
0.0313975
0.0317325
0.0321507
0.0326544
0.0332443
0.0339189
0.0346758
0.0355148
0.036433
0.0374473
0.0324676
0.0323657
0.0322977
0.0322637
0.0322707
0.0323272
0.0324323
0.0325906
0.0328146
0.0331149
0.0334974
0.0339652
0.0345207
0.0351648
0.0358972
0.0367212
0.0376377
0.0386672
0.0340796
0.0339846
0.0339235
0.0339021
0.0339295
0.0340054
0.0341335
0.0343256
0.0345923
0.0349397
0.0353725
0.0358945
0.0365087
0.0372175
0.0380262
0.0389414
0.0399861
0.0358909
0.0357691
0.0356812
0.0356316
0.0356298
0.0356768
0.0357754
0.0359365
0.0361704
0.0364839
0.0368827
0.0373722
0.0379573
0.0386429
0.0394373
0.040351
0.0414113
0.0378067
0.0376579
0.0375427
0.037465
0.0374342
0.037453
0.0375225
0.0376531
0.0378553
0.0381363
0.0385025
0.0389606
0.0395177
0.0401809
0.0409616
0.0418743
0.039656
0.0395138
0.0394082
0.039349
0.0393397
0.039381
0.0394824
0.0396542
0.039904
0.0402388
0.0406669
0.0411971
0.0418392
0.0426068
0.0435189
0.0417706
0.0416011
0.0414679
0.0413805
0.0413439
0.0413579
0.0414312
0.0415738
0.0417937
0.0420989
0.0424986
0.0430035
0.0436254
0.0443809
0.0452927
0.0440083
0.0438117
0.043651
0.0435364
0.0434728
0.0434602
0.0435067
0.0436217
0.0438133
0.0440904
0.0444636
0.0449447
0.0455478
0.0462922
0.0472041
0.0463763
0.0461521
0.0459646
0.0458234
0.0457339
0.045696
0.0457169
0.0458056
0.0459707
0.0462218
0.0465701
0.047029
0.0476149
0.0483493
0.0492617
0.0488824
0.0486309
0.0484171
0.04825
0.0481351
0.0480729
0.0480694
0.0481336
0.0482741
0.048501
0.0488264
0.0492651
0.0498355
0.0505612
0.0514746
0.0512561
0.051016
0.0508234
0.0506843
0.050599
0.0505731
0.0506145
0.0507321
0.0509368
0.0512415
0.0516621
0.0522185
0.0529367
0.0538517
0.0540354
0.0537698
0.0535528
0.0533909
0.0532839
0.0532365
0.0532568
0.0533537
0.0535382
0.0538243
0.054229
0.0547734
0.0554855
0.0564026
0.0569786
0.0566878
0.0564471
0.0562632
0.0561356
0.0560685
0.0560698
0.0561482
0.0563148
0.0565845
0.0569754
0.0575098
0.0582172
0.0591368
0.0600939
0.0597785
0.0595152
0.0593106
0.0591643
0.0590793
0.0590632
0.059125
0.0592761
0.0595317
0.059911
0.0604372
0.0611413
0.0620644
0.0633913
0.0630521
0.062767
0.0625428
0.062379
0.0622778
0.0622464
0.0622938
0.0624318
0.0626757
0.0630456
0.0635658
0.0642681
0.0651951
0.0665182
0.0662122
0.0659697
0.0657899
0.0656746
0.06563
0.0656651
0.065792
0.0660267
0.0663895
0.0669055
0.0676076
0.0685392
0.0701866
0.069861
0.0696016
0.0694076
0.0692797
0.0692238
0.0692488
0.0693671
0.069595
0.0699531
0.0704669
0.0711701
0.0740674
0.0737234
0.0734488
0.073242
0.0731033
0.0730382
0.0730555
0.0731676
0.0733911
0.0737466
0.0742604
0.0749665
0.0781719
0.0778103
0.0775217
0.0773039
0.0771564
0.077084
0.0770956
0.0772039
0.0774254
0.0777807
0.0782964
0.0790068
0.0825104
0.0821322
0.081831
0.0816041
0.0814495
0.081372
0.0813803
0.081487
0.0817087
0.0820661
0.0825856
0.0833019
0.0867
0.0863876
0.0861529
0.0859934
0.0859131
0.0859203
0.0860276
0.0862518
0.0866136
0.0871391
0.0878625
0.0915247
0.0912025
0.0909619
0.0907993
0.0907178
0.0907259
0.0908363
0.0910654
0.0914337
0.0919673
0.0926998
0.0966169
0.0962866
0.0960416
0.0958776
0.095797
0.0958085
0.0959243
0.0961605
0.0965375
0.097081
0.0978243
0.101987
0.10165
0.101403
0.10124
0.101162
0.101179
0.101303
0.101548
0.101936
0.102491
0.103247
0.107648
0.107306
0.107057
0.106896
0.106824
0.106848
0.106982
0.107239
0.10764
0.10821
0.10898
0.113608
0.113262
0.113014
0.112858
0.112793
0.112827
0.112973
0.113244
0.113661
0.114247
0.119877
0.119529
0.119285
0.119134
0.119079
0.119126
0.119286
0.119574
0.120008
0.120613
0.126116
0.125876
0.125734
0.12569
0.125752
0.12593
0.126237
0.126693
0.127319
0.13303
0.132796
0.132665
0.132636
0.132715
0.132913
0.133243
0.133722
0.134373
0.140283
0.140057
0.139939
0.139926
0.140024
0.140245
0.1406
0.141106
0.141784
0.147901
0.147685
0.14758
0.147585
0.147704
0.147949
0.14833
0.148864
0.149571
0.155931
0.155725
0.155635
0.155657
0.155797
0.156065
0.156472
0.157033
0.157768
0.164418
0.164225
0.164151
0.164193
0.164355
0.164646
0.165079
0.165666
0.173371
0.173194
0.173141
0.173207
0.173397
0.173718
0.174181
0.1748
0.182755
0.182601
0.182576
0.182676
0.182904
0.183267
0.183773
0.184435
0.192386
0.192398
0.192543
0.192821
0.193239
0.193805
0.194526
0.202562
0.202622
0.202823
0.203163
0.203652
0.204296
0.205096
0.212998
0.213079
0.213308
0.213666
0.214197
0.2149
0.215731
0.222481
0.222602
0.222889
0.223274
0.223872
0.224673
0.225528
0.231166
0.231354
0.231747
0.232239
0.232982
0.23398
0.240364
0.240538
0.240945
0.241467
0.242258
0.243354
0.250559
0.250845
0.251404
0.252101
0.25306
0.254416
0.261279
0.261451
0.261914
0.262562
0.263457
0.264699
0.27459
0.275278
0.276322
0.277518
0.27892
0.281102
0.284302
0.284242
0.284562
0.285356
0.286287
0.287154
0.308403
0.310494
0.312271
0.314424
0.319258
0.299673
0.298847
0.29974
0.300001
0.29725
0.337816
0.337462
0.334968
0.335991
0.342807
0.274279
0.270528
0.270877
0.269302
0.262497
0.259216
0.255495
0.250438
0.216916
0.210851
0.214734
0.220384
)
;

boundaryField
{
    inlet
    {
        type            calculated;
        value           nonuniform List<scalar> 4(0.103216 0.10006 0.0994251 0.0988494);
    }
    outlet
    {
        type            calculated;
        value           nonuniform List<scalar> 0();
    }
    walls
    {
        type            calculated;
        value           uniform 0;
    }
    frontAndBack
    {
        type            empty;
    }
    procBoundary5to0
    {
        type            processor;
        value           nonuniform List<scalar> 4(0.00956356 0.00962015 0.00968363 0.00976457);
    }
    procBoundary5to1
    {
        type            processor;
        value           nonuniform List<scalar> 
13
(
0.00403394
0.0046479
0.0046479
0.00520084
0.00565975
0.00565975
0.00634807
0.00690179
0.00690179
0.00763994
0.0084013
0.00906121
0.00906121
)
;
    }
    procBoundary5to4
    {
        type            processor;
        value           nonuniform List<scalar> 
95
(
0.00952004
0.0094842
0.00945674
0.00945674
0.0102183
0.0102083
0.0102083
0.0109885
0.0109983
0.0109983
0.0118076
0.0118076
0.0126394
0.0126394
0.0134754
0.0143568
0.0143568
0.0152691
0.0152691
0.0161958
0.0171681
0.0171681
0.0181726
0.0192135
0.0192135
0.0203054
0.0214237
0.0214237
0.0226128
0.0238661
0.0251178
0.0251178
0.0264872
0.027932
0.0293446
0.0293446
0.0309282
0.0325998
0.0342076
0.0342076
0.0360454
0.0379875
0.0398321
0.0398321
0.0419741
0.0442393
0.046635
0.0491687
0.0515345
0.0515345
0.0543408
0.0573104
0.060452
0.0637752
0.0668804
0.0668804
0.0705715
0.0744741
0.0785995
0.0829582
0.0870932
0.0870932
0.0919317
0.0970368
0.102419
0.10809
0.114059
0.120338
0.126465
0.126465
0.133378
0.140628
0.148243
0.156268
0.164747
0.17369
0.18306
0.19251
0.19251
0.202649
0.213074
0.222539
0.231192
0.240424
0.250549
0.261393
0.27421
0.284805
0.306748
0.306748
0.300885
0.338882
0.277734
0.267616
0.217127
)
;
    }
    procBoundary5to6
    {
        type            processor;
        value           nonuniform List<scalar> 
86
(
0.0629547
0.182088
0.216548
0.222883
0.224507
0.250137
0.222528
0.0853089
0
0
0
0.240724
0.0345355
0.0244193
0.0253237
0.02784
0.0296836
0.0301054
0.0300236
0.0301499
0.0305894
0.0312267
0.0319535
0.0327226
0.0335299
0.0343911
0.0353185
0.0363199
0.0374037
0.0385732
0.0398338
0.0411941
0.0426592
0.04295
0.04295
0.0446095
0.0463986
0.0483251
0.0503971
0.0526241
0.055015
0.057579
0.0603256
0.0632649
0.0664067
0.0697617
0.072107
0.072107
0.0759092
0.0799563
0.0842591
0.0888284
0.0936749
0.0988105
0.104245
0.109991
0.115033
0.115033
0.121418
0.128145
0.135223
0.142662
0.150478
0.158702
0.166427
0.166427
0.175591
0.185268
0.195418
0.206067
0.216744
0.22656
0.23499
0.23499
0.244492
0.2558
0.266163
0.283069
0.289193
0.32155
0.300154
0.340147
0.258791
0.258791
0.249869
0.192085
)
;
    }
}


// ************************************************************************* //
