/*--------------------------------*- C++ -*----------------------------------*\
| =========                 |                                                 |
| \\      /  F ield         | OpenFOAM: The Open Source CFD Toolbox           |
|  \\    /   O peration     | Version:  2506                                  |
|   \\  /    A nd           | Website:  www.openfoam.com                      |
|    \\/     M anipulation  |                                                 |
\*---------------------------------------------------------------------------*/
FoamFile
{
    version     2.0;
    format      ascii;
    arch        "LSB;label=32;scalar=64";
    class       surfaceScalarField;
    location    "10";
    object      phi;
}
// * * * * * * * * * * * * * * * * * * * * * * * * * * * * * * * * * * * * * //

dimensions      [0 3 -1 0 0 0 0];

oriented        oriented;

internalField   nonuniform List<scalar> 
760
(
-2.38385e-06
2.38385e-06
-1.14661e-05
9.08225e-06
-2.35823e-05
1.21162e-05
-3.73746e-05
1.37922e-05
-5.34258e-05
1.60512e-05
-7.28513e-05
1.94255e-05
-9.64323e-05
2.3581e-05
-0.000123784
2.73521e-05
-0.000152377
2.85926e-05
-0.000176998
2.46206e-05
-0.000190605
1.3607e-05
-0.00018614
-4.46445e-06
-0.000158485
-2.76554e-05
-0.000111086
-4.73987e-05
-5.37148e-05
-5.73712e-05
-1.90333e-06
-5.18114e-05
3.01248e-05
-3.20281e-05
3.3509e-05
-3.38417e-06
1.64781e-05
1.70308e-05
1.64782e-05
-1.34089e-05
1.57927e-05
-4.04004e-05
3.60738e-05
-7.35638e-05
4.52796e-05
-0.000110891
5.11198e-05
-0.000152862
5.80216e-05
-0.000200164
6.67276e-05
-0.000252184
7.56009e-05
-0.000305888
8.1056e-05
-0.00035521
7.7915e-05
-0.000391594
6.10039e-05
-0.000406252
2.82652e-05
-0.000391952
-1.87647e-05
-0.000343756
-7.58514e-05
-0.000264393
-0.000126762
-0.000165207
-0.000156557
-6.60478e-05
-0.000150971
6.5872e-06
-0.000104663
3.53401e-05
-3.2137e-05
2.24546e-05
2.99163e-05
3.89327e-05
-2.31815e-05
3.89742e-05
-6.48292e-05
7.77215e-05
-0.000114314
9.4764e-05
-0.00016909
0.000105897
-0.000229254
0.000118185
-0.000294721
0.000132194
-0.000363965
0.000144845
-0.000433611
0.000150703
-0.000498286
0.000142589
-0.000550341
0.000113059
-0.000580161
5.80859e-05
-0.000578865
-2.00613e-05
-0.000536393
-0.000118323
-0.000452026
-0.000211128
-0.000331839
-0.000276744
-0.000192596
-0.000290214
-6.51454e-05
-0.000232113
1.0935e-05
-0.000108217
2.02036e-05
2.06478e-05
5.91363e-05
-2.99895e-05
6.89637e-05
-8.19293e-05
0.000129661
-0.000142641
0.000155476
-0.000209152
0.000172407
-0.000281528
0.000190561
-0.000360006
0.000210673
-0.000444362
0.000229201
-0.000533827
0.000240168
-0.000625545
0.000234307
-0.000710948
0.000198461
-0.000773703
0.000120841
-0.000799275
5.51018e-06
-0.000775922
-0.000141676
-0.000700421
-0.000286629
-0.000571838
-0.000405328
-0.000397359
-0.000464693
-0.00020284
-0.000426633
-4.41406e-05
-0.000266917
1.51917e-05
-3.86845e-05
7.4328e-05
-3.35908e-05
0.000102555
-9.13094e-05
0.00018738
-0.000158593
0.00022276
-0.000232395
0.000246208
-0.000313482
0.000271649
-0.000403827
0.000301018
-0.000506059
0.000331432
-0.000621892
0.000356001
-0.0007471
0.000359516
-0.000866444
0.000317805
-0.000957708
0.000212105
-0.000999663
4.74657e-05
-0.000996179
-0.00014516
-0.00094147
-0.000341338
-0.000828401
-0.000518397
-0.000649371
-0.000643722
-0.000408214
-0.000667789
-0.000151737
-0.000523394
-5.03539e-07
-0.000189918
7.38245e-05
-3.39918e-05
0.000136546
-9.31853e-05
0.000246573
-0.000162827
0.000292402
-0.000240075
0.000323456
-0.000326773
0.000358348
-0.000426877
0.000401122
-0.000544753
0.000449309
-0.000680693
0.000491941
-0.00082393
0.000502752
-0.000952192
0.000446067
-0.00104448
0.000304393
-0.0010916
9.45903e-05
-0.00109935
-0.000137416
-0.00107201
-0.00036868
-0.000999156
-0.000591247
-0.000861639
-0.00078124
-0.000635247
-0.000894181
-0.000324548
-0.000834093
-4.5987e-05
-0.000468479
2.78374e-05
-3.13325e-05
0.000167879
-8.78729e-05
0.000303114
-0.000155669
0.000360198
-0.000231963
0.00039975
-0.000319115
0.000445499
-0.000421547
0.000503554
-0.000542182
0.000569944
-0.000676354
0.000626112
-0.000807614
0.000634013
-0.000914723
0.000553176
-0.000986184
0.000375854
-0.0010262
0.000134606
-0.00104002
-0.000123593
-0.00103511
-0.000373592
-0.0010088
-0.000617553
-0.000940993
-0.000849052
-0.000791109
-0.00104406
-0.000515784
-0.00110942
-0.000144369
-0.000839894
-0.000116531
-2.59e-05
0.000193779
-7.58064e-05
0.00035302
-0.000137252
0.000421643
-0.000206957
0.000469455
-0.000286454
0.000524996
-0.000378664
0.000595764
-0.000483579
0.000674859
-0.000593409
0.000735942
-0.000692658
0.000733262
-0.000767437
0.000627955
-0.000814313
0.00042273
-0.000840779
0.000161073
-0.000853678
-0.000110694
-0.000858796
-0.000368475
-0.000863497
-0.000612852
-0.000859698
-0.000852851
-0.000805561
-0.0010982
-0.00062562
-0.00128936
-0.000268094
-0.00119742
-0.000384625
-1.82818e-05
0.000212061
-5.80298e-05
0.000392768
-0.000108766
0.000472379
-0.000166053
0.000526743
-0.000229474
0.000588416
-0.000299687
0.000665978
-0.000375029
0.000750201
-0.000449002
0.000809915
-0.000512346
0.000796607
-0.000559649
0.000675258
-0.00059158
0.00045466
-0.000612126
0.000181619
-0.000625113
-9.77069e-05
-0.000634146
-0.000359443
-0.000650127
-0.000596871
-0.000678961
-0.000824017
-0.000693646
-0.00108352
-0.000614039
-0.00136897
-0.000357336
-0.00145412
-0.000741961
-9.50695e-06
0.000221568
-3.65807e-05
0.000419842
-7.32843e-05
0.000509083
-0.000113782
0.000567241
-0.000155391
0.000630025
-0.000196652
0.000707239
-0.000236009
0.000789558
-0.000271382
0.000845287
-0.000301511
0.000826736
-0.000328076
0.000701823
-0.00035322
0.000479805
-0.000377024
0.000205423
-0.000398092
-7.66392e-05
-0.000415853
-0.000341682
-0.000438807
-0.000573917
-0.000480416
-0.000782408
-0.000534521
-0.00102941
-0.000529572
-0.00137392
-0.000355597
-0.0016281
-0.00109756
-7.20695e-07
0.000222288
-1.42609e-05
0.000433382
-3.54684e-05
0.00053029
-5.72008e-05
0.000588973
-7.49951e-05
0.00064782
-8.53686e-05
0.000717612
-8.8062e-05
0.000792251
-8.59813e-05
0.000843207
-8.57726e-05
0.000826527
-9.25197e-05
0.00070857
-0.00010873
0.000496015
-0.00013413
0.000230823
-0.000166208
-4.45605e-05
-0.000198061
-0.000309829
-0.000233892
-0.000538086
-0.000287824
-0.000728476
-0.000368947
-0.000948288
-0.000418341
-0.00132452
-0.000307815
-0.00173862
-0.00140537
6.36493e-06
0.000215923
5.68658e-06
0.000434061
2.36555e-07
0.00053574
-3.20926e-06
0.000592419
2.33983e-06
0.000642271
1.91837e-05
0.000700768
4.8889e-05
0.000762546
8.67955e-05
0.0008053
0.000121116
0.000792206
0.000139527
0.000690159
0.000135789
0.000499754
0.000112269
0.000254342
6.99268e-05
-2.21796e-06
2.31843e-05
-0.000263087
-3.58178e-05
-0.000479084
-0.000112237
-0.000652057
-0.000216518
-0.000844007
-0.000307818
-0.00123322
-0.00025513
-0.00179131
-0.0016605
1.05888e-05
0.000205335
1.93031e-05
0.000425346
2.63296e-05
0.000528714
3.83632e-05
0.000580385
6.14007e-05
0.000619233
0.0001007
0.000661469
0.000157256
0.000705991
0.000225608
0.000736949
0.000291683
0.00072613
0.000337244
0.000644598
0.000351132
0.000485865
0.000332467
0.000273008
0.000288813
4.1436e-05
0.000220365
-0.000194639
0.000138107
-0.000396825
3.82718e-05
-0.000552222
-8.69651e-05
-0.00071877
-0.000208565
-0.00111162
-0.000203656
-0.00179622
-0.00186416
1.10735e-05
0.000194261
2.51353e-05
0.000411284
4.19311e-05
0.000511918
6.63798e-05
0.000555936
0.000103727
0.000581886
0.000158219
0.000606977
0.000231147
0.000633063
0.000317953
0.000650142
0.000405401
0.000638682
0.000473943
0.000576056
0.000507857
0.000451952
0.000502279
0.000278585
0.000460822
8.28929e-05
0.000383084
-0.000116902
0.000281386
-0.000295127
0.000161847
-0.000432684
1.82921e-05
-0.000575215
-0.00012533
-0.000967999
-0.000158663
-0.00176289
-0.00202282
6.74567e-06
0.000187515
2.03645e-05
0.000397666
4.26568e-05
0.000489626
7.67145e-05
0.000521879
0.000124944
0.000533657
0.000189406
0.000542515
0.000270695
0.000551774
0.000365269
0.000555568
0.000462611
0.000541341
0.000545257
0.00049341
0.000595505
0.000401704
0.000603764
0.000270326
0.000569672
0.000116985
0.000492566
-3.97952e-05
0.000382331
-0.000184892
0.000250593
-0.000300946
9.94282e-05
-0.00042405
-5.32591e-05
-0.000815311
-0.000116442
-0.0016997
-0.00213926
-2.82684e-06
0.000190342
6.05628e-06
0.000388783
3.04139e-05
0.000465268
7.14952e-05
0.000480797
0.000127484
0.000477668
0.000198047
0.000471951
0.000282492
0.000467329
0.000377723
0.000460336
0.00047583
0.000443233
0.000563099
0.000406142
0.000623035
0.000341768
0.000643209
0.000250151
0.000618331
0.000141863
0.00054998
2.85562e-05
0.000441879
-7.67915e-05
0.00031008
-0.000169147
0.000164768
-0.000278738
8.18321e-06
-0.000658727
-6.33218e-05
-0.0016282
-0.00220259
-2.64246e-05
0.000216767
-3.90362e-05
0.000401394
-1.07318e-05
0.000436964
4.30151e-05
0.00042705
0.000111308
0.000409375
0.000190121
0.000393138
0.000277772
0.000379679
0.000371935
0.000366173
0.000466703
0.000348466
0.000552366
0.000320479
0.000615219
0.000278915
0.000643712
0.000221658
0.000629899
0.000155676
0.000572831
8.56243e-05
0.000476821
1.92187e-05
0.00035904
-5.13659e-05
0.000239331
-0.000159029
0.000123321
-0.000542716
2.00247e-05
-0.0015249
-0.00218256
-3.61255e-05
0.000252892
-5.74048e-05
0.000422673
-3.76241e-05
0.000417183
1.27766e-05
0.00037665
8.23985e-05
0.000339753
0.000162752
0.000312784
0.000250329
0.000292101
0.000342971
0.000273532
0.000434965
0.000256472
0.000519915
0.000235528
0.000587086
0.000211745
0.000628493
0.000180251
0.000636427
0.000147741
0.000610557
0.000111494
0.000552188
7.75881e-05
0.000480398
2.04245e-05
0.000413674
-9.23052e-05
0.000325039
-0.000454081
0.00015572
-0.00135559
-0.00202684
-0.000393081
0.000645973
-0.000363614
0.000393207
-0.000219377
0.000272946
-7.11446e-05
0.000228417
6.81403e-05
0.000200469
0.000203405
0.00017752
0.000335721
0.000159785
0.000465354
0.000143899
0.000589377
0.000132448
0.000705504
0.000119401
0.000807947
0.000109302
0.000892876
9.53224e-05
0.000954589
8.60273e-05
0.000994016
7.20678e-05
0.00101237
5.92324e-05
0.00100749
2.53022e-05
0.000985622
-7.04339e-05
0.000906631
-0.00037509
0.000521747
-0.000970701
-0.00150509
0.000645973
0.00103918
0.00131213
0.00154054
0.00174101
0.00191853
0.00207832
0.00222222
0.00235466
0.00247406
0.00258337
0.00267869
0.00276472
0.00283678
0.00289602
0.00292132
0.00285089
0.0024758
0.00150509
)
;

boundaryField
{
    movingWall
    {
        type            calculated;
        value           uniform 0;
    }
    fixedWalls
    {
        type            calculated;
        value           uniform 0;
    }
    frontAndBack
    {
        type            empty;
    }
}


// ************************************************************************* //
