/*--------------------------------*- C++ -*----------------------------------*\
| =========                 |                                                 |
| \\      /  F ield         | OpenFOAM: The Open Source CFD Toolbox           |
|  \\    /   O peration     | Version:  2506                                  |
|   \\  /    A nd           | Website:  www.openfoam.com                      |
|    \\/     M anipulation  |                                                 |
\*---------------------------------------------------------------------------*/
FoamFile
{
    version     2.0;
    format      ascii;
    arch        "LSB;label=32;scalar=64";
    class       pointScalarField;
    location    "10";
    object      streamFunction;
}
// * * * * * * * * * * * * * * * * * * * * * * * * * * * * * * * * * * * * * //

dimensions      [0 3 -1 0 0 0 0];

internalField   nonuniform List<scalar> 
882
(
0
0
0
0
0
0
0
0
0
0
0
0
0
0
0
0
0
0
0
0
0
0
-2.38351e-05
-0.000114665
-0.000235866
-0.000373717
-0.000534242
-0.000728501
-0.00096437
-0.00123789
-0.00152373
-0.00176991
-0.00190609
-0.00186145
-0.00158489
-0.00111077
-0.000537202
-1.898e-05
0.00030121
0.000335044
0.000164827
0
0
-0.000157924
-0.000518669
-0.000971504
-0.00148263
-0.00206286
-0.00273014
-0.00348621
-0.00429677
-0.00507583
-0.00568585
-0.00596861
-0.00578097
-0.00502245
-0.0037547
-0.00218927
-0.000679458
0.000367082
0.000688445
0.000389373
0
0
-0.000389739
-0.00116696
-0.00211464
-0.00317353
-0.0043554
-0.00567735
-0.00712586
-0.00863288
-0.0100587
-0.0111893
-0.0117702
-0.0115696
-0.0103864
-0.00827496
-0.00550766
-0.00260542
-0.000284372
0.000797795
0.000591409
0
0
-0.000689634
-0.00198625
-0.00354105
-0.00526505
-0.00717068
-0.00927741
-0.0115695
-0.0139712
-0.0163141
-0.0182987
-0.0195073
-0.0195624
-0.0181456
-0.0152792
-0.011226
-0.00657901
-0.00231277
0.000356389
0.000743326
0
0
-0.00102554
-0.00289935
-0.00512698
-0.007589
-0.0103055
-0.0133157
-0.0166301
-0.0201901
-0.0237851
-0.0269632
-0.0290843
-0.029559
-0.0281074
-0.0246939
-0.0195101
-0.0130727
-0.00639491
-0.00116098
0.000738291
0
0
-0.00136546
-0.0038312
-0.00675525
-0.00998975
-0.0135732
-0.0175845
-0.0220776
-0.026997
-0.0320244
-0.0364851
-0.0395291
-0.040475
-0.0391009
-0.035414
-0.0295016
-0.0216891
-0.0127474
-0.00440646
0.000278421
0
0
-0.00167879
-0.00470993
-0.00831194
-0.0123094
-0.0167644
-0.0217999
-0.0274994
-0.0337605
-0.0401006
-0.0456323
-0.049391
-0.050737
-0.0495011
-0.0457651
-0.0395896
-0.031099
-0.0206585
-0.0095643
-0.00116527
0
0
-0.00193779
-0.00546799
-0.00968446
-0.0143789
-0.0196289
-0.0255866
-0.0323352
-0.0396946
-0.0470272
-0.0533067
-0.0575341
-0.0591448
-0.0580379
-0.054353
-0.0482246
-0.039696
-0.0287141
-0.0158205
-0.00384621
0
0
-0.0021206
-0.00604829
-0.0107721
-0.0160395
-0.0219237
-0.0285834
-0.0360855
-0.0441847
-0.0521506
-0.0589032
-0.0634499
-0.0652661
-0.064289
-0.0606945
-0.0547259
-0.0464856
-0.0356505
-0.0219609
-0.00741957
0
0
-0.00221567
-0.0064141
-0.011505
-0.0171773
-0.0234776
-0.03055
-0.0384456
-0.0468985
-0.0551657
-0.062184
-0.0669821
-0.0690363
-0.0682699
-0.064853
-0.0591139
-0.0512898
-0.0409958
-0.0272566
-0.0109755
0
0
-0.00222288
-0.00655671
-0.0118597
-0.0177493
-0.0242275
-0.0314036
-0.0393262
-0.0477583
-0.0560235
-0.0631092
-0.0680694
-0.0703776
-0.069932
-0.0668336
-0.0614528
-0.054168
-0.0446852
-0.03144
-0.0140537
0
0
-0.00215923
-0.00649984
-0.0118573
-0.0177814
-0.0242041
-0.0312118
-0.0388373
-0.0468903
-0.0548123
-0.0617139
-0.0667115
-0.0692549
-0.0692327
-0.0666018
-0.061811
-0.0552904
-0.0468504
-0.0345182
-0.016605
0
0
-0.00205334
-0.00630681
-0.011594
-0.0173978
-0.0235901
-0.0302048
-0.0372648
-0.0446343
-0.0518955
-0.0583414
-0.0632002
-0.0659302
-0.0663446
-0.0643981
-0.0604299
-0.0549077
-0.0477201
-0.0366039
-0.0186415
0
0
-0.00194261
-0.00605546
-0.0111747
-0.016734
-0.0225528
-0.0286226
-0.0349533
-0.0414547
-0.0478415
-0.053602
-0.0581216
-0.0609074
-0.0617364
-0.0605673
-0.0576161
-0.0532892
-0.0475371
-0.0378572
-0.0202282
0
0
-0.00187515
-0.00585181
-0.0107481
-0.0159668
-0.0213034
-0.0267286
-0.0322463
-0.037802
-0.0432153
-0.0481494
-0.0521666
-0.0548698
-0.0560397
-0.0556416
-0.0537928
-0.0507833
-0.0465428
-0.0383897
-0.0213926
0
0
-0.00190342
-0.00579125
-0.010444
-0.0152519
-0.0200286
-0.0247481
-0.0294214
-0.0340248
-0.038457
-0.0425185
-0.0459362
-0.0484377
-0.0498563
-0.0501418
-0.049374
-0.0476825
-0.0448952
-0.0383079
-0.0220258
0
0
-0.00216767
-0.00618161
-0.0105513
-0.0148217
-0.0189155
-0.0228469
-0.0266437
-0.0303054
-0.03379
-0.0369948
-0.039784
-0.0420006
-0.0435574
-0.0444135
-0.0446058
-0.0440921
-0.0425019
-0.0370747
-0.0218256
0
0
-0.00252892
-0.00675566
-0.0109275
-0.014694
-0.0180915
-0.0212194
-0.0241404
-0.0268757
-0.0294404
-0.0317956
-0.0339132
-0.0357157
-0.0371931
-0.038308
-0.0390839
-0.0392881
-0.0383651
-0.0338243
-0.0202684
0
0
-0.00645973
-0.0103918
-0.0131213
-0.0154054
-0.0174101
-0.0191853
-0.0207832
-0.0222222
-0.0235466
-0.0247406
-0.0258337
-0.0267869
-0.0276472
-0.0283678
-0.0289602
-0.0292132
-0.0285089
-0.024758
-0.0150509
0
0
0
0
0
0
0
0
0
0
0
0
0
0
0
0
0
0
0
0
0
0
0
0
0
0
0
0
0
0
0
0
0
0
0
0
0
0
0
0
0
0
0
0
-2.38351e-05
-0.000114665
-0.000235866
-0.000373717
-0.000534242
-0.000728501
-0.00096437
-0.00123789
-0.00152373
-0.00176991
-0.00190609
-0.00186145
-0.00158489
-0.00111077
-0.000537202
-1.898e-05
0.00030121
0.000335044
0.000164827
0
0
-0.000157924
-0.000518669
-0.000971504
-0.00148263
-0.00206286
-0.00273014
-0.00348621
-0.00429677
-0.00507583
-0.00568585
-0.00596861
-0.00578097
-0.00502245
-0.0037547
-0.00218927
-0.000679458
0.000367082
0.000688445
0.000389373
0
0
-0.000389739
-0.00116696
-0.00211464
-0.00317353
-0.0043554
-0.00567735
-0.00712586
-0.00863288
-0.0100587
-0.0111893
-0.0117702
-0.0115696
-0.0103864
-0.00827496
-0.00550766
-0.00260542
-0.000284372
0.000797795
0.000591409
0
0
-0.000689634
-0.00198625
-0.00354105
-0.00526505
-0.00717068
-0.00927741
-0.0115695
-0.0139712
-0.0163141
-0.0182987
-0.0195073
-0.0195624
-0.0181456
-0.0152792
-0.011226
-0.00657901
-0.00231277
0.000356389
0.000743326
0
0
-0.00102554
-0.00289935
-0.00512698
-0.007589
-0.0103055
-0.0133157
-0.0166301
-0.0201901
-0.0237851
-0.0269632
-0.0290843
-0.029559
-0.0281074
-0.0246939
-0.0195101
-0.0130727
-0.00639491
-0.00116098
0.000738291
0
0
-0.00136546
-0.0038312
-0.00675525
-0.00998975
-0.0135732
-0.0175845
-0.0220776
-0.026997
-0.0320244
-0.0364851
-0.0395291
-0.040475
-0.0391009
-0.035414
-0.0295016
-0.0216891
-0.0127474
-0.00440646
0.000278421
0
0
-0.00167879
-0.00470993
-0.00831194
-0.0123094
-0.0167644
-0.0217999
-0.0274994
-0.0337605
-0.0401006
-0.0456323
-0.049391
-0.050737
-0.0495011
-0.0457651
-0.0395896
-0.031099
-0.0206585
-0.0095643
-0.00116527
0
0
-0.00193779
-0.00546799
-0.00968446
-0.0143789
-0.0196289
-0.0255866
-0.0323352
-0.0396946
-0.0470272
-0.0533067
-0.0575341
-0.0591448
-0.0580379
-0.054353
-0.0482246
-0.039696
-0.0287141
-0.0158205
-0.00384621
0
0
-0.0021206
-0.00604829
-0.0107721
-0.0160395
-0.0219237
-0.0285834
-0.0360855
-0.0441847
-0.0521506
-0.0589032
-0.0634499
-0.0652661
-0.064289
-0.0606945
-0.0547259
-0.0464856
-0.0356505
-0.0219609
-0.00741957
0
0
-0.00221567
-0.0064141
-0.011505
-0.0171773
-0.0234776
-0.03055
-0.0384456
-0.0468985
-0.0551657
-0.062184
-0.0669821
-0.0690363
-0.0682699
-0.064853
-0.0591139
-0.0512898
-0.0409958
-0.0272566
-0.0109755
0
0
-0.00222288
-0.00655671
-0.0118597
-0.0177493
-0.0242275
-0.0314036
-0.0393262
-0.0477583
-0.0560235
-0.0631092
-0.0680694
-0.0703776
-0.069932
-0.0668336
-0.0614528
-0.054168
-0.0446852
-0.03144
-0.0140537
0
0
-0.00215923
-0.00649984
-0.0118573
-0.0177814
-0.0242041
-0.0312118
-0.0388373
-0.0468903
-0.0548123
-0.0617139
-0.0667115
-0.0692549
-0.0692327
-0.0666018
-0.061811
-0.0552904
-0.0468504
-0.0345182
-0.016605
0
0
-0.00205334
-0.00630681
-0.011594
-0.0173978
-0.0235901
-0.0302048
-0.0372648
-0.0446343
-0.0518955
-0.0583414
-0.0632002
-0.0659302
-0.0663446
-0.0643981
-0.0604299
-0.0549077
-0.0477201
-0.0366039
-0.0186415
0
0
-0.00194261
-0.00605546
-0.0111747
-0.016734
-0.0225528
-0.0286226
-0.0349533
-0.0414547
-0.0478415
-0.053602
-0.0581216
-0.0609074
-0.0617364
-0.0605673
-0.0576161
-0.0532892
-0.0475371
-0.0378572
-0.0202282
0
0
-0.00187515
-0.00585181
-0.0107481
-0.0159668
-0.0213034
-0.0267286
-0.0322463
-0.037802
-0.0432153
-0.0481494
-0.0521666
-0.0548698
-0.0560397
-0.0556416
-0.0537928
-0.0507833
-0.0465428
-0.0383897
-0.0213926
0
0
-0.00190342
-0.00579125
-0.010444
-0.0152519
-0.0200286
-0.0247481
-0.0294214
-0.0340248
-0.038457
-0.0425185
-0.0459362
-0.0484377
-0.0498563
-0.0501418
-0.049374
-0.0476825
-0.0448952
-0.0383079
-0.0220258
0
0
-0.00216767
-0.00618161
-0.0105513
-0.0148217
-0.0189155
-0.0228469
-0.0266437
-0.0303054
-0.03379
-0.0369948
-0.039784
-0.0420006
-0.0435574
-0.0444135
-0.0446058
-0.0440921
-0.0425019
-0.0370747
-0.0218256
0
0
-0.00252892
-0.00675566
-0.0109275
-0.014694
-0.0180915
-0.0212194
-0.0241404
-0.0268757
-0.0294404
-0.0317956
-0.0339132
-0.0357157
-0.0371931
-0.038308
-0.0390839
-0.0392881
-0.0383651
-0.0338243
-0.0202684
0
0
-0.00645973
-0.0103918
-0.0131213
-0.0154054
-0.0174101
-0.0191853
-0.0207832
-0.0222222
-0.0235466
-0.0247406
-0.0258337
-0.0267869
-0.0276472
-0.0283678
-0.0289602
-0.0292132
-0.0285089
-0.024758
-0.0150509
0
0
0
0
0
0
0
0
0
0
0
0
0
0
0
0
0
0
0
0
0
0
)
;

boundaryField
{
    movingWall
    {
        type            calculated;
    }
    fixedWalls
    {
        type            calculated;
    }
    frontAndBack
    {
        type            empty;
    }
}


// ************************************************************************* //
