/*--------------------------------*- C++ -*----------------------------------*\
| =========                 |                                                 |
| \\      /  F ield         | OpenFOAM: The Open Source CFD Toolbox           |
|  \\    /   O peration     | Version:  2506                                  |
|   \\  /    A nd           | Website:  www.openfoam.com                      |
|    \\/     M anipulation  |                                                 |
\*---------------------------------------------------------------------------*/
FoamFile
{
    version     2.0;
    format      ascii;
    arch        "LSB;label=32;scalar=64";
    class       volVectorField;
    location    "10";
    object      U;
}
// * * * * * * * * * * * * * * * * * * * * * * * * * * * * * * * * * * * * * //

dimensions      [0 1 -1 0 0 0 0];

internalField   nonuniform List<vector> 
400
(
(-3.84722e-05 -9.7197e-05 0)
(-0.00110523 0.000397707 0)
(-0.00339382 0.000618289 0)
(-0.0060213 0.000715704 0)
(-0.00898502 0.000873991 0)
(-0.0125123 0.00116098 0)
(-0.0168254 0.00157962 0)
(-0.0219969 0.00206681 0)
(-0.0277563 0.0024532 0)
(-0.0333084 0.00246291 0)
(-0.0373503 0.0018215 0)
(-0.0383563 0.00042891 0)
(-0.0350829 -0.00150149 0)
(-0.0273569 -0.00338374 0)
(-0.0166112 -0.00436911 0)
(-0.00504541 -0.00386818 0)
(0.00391061 -0.0021396 0)
(0.00739892 0.000322499 0)
(0.0054737 0.001888 0)
(0.00168621 0.00158964 0)
(-0.000967588 0.00131425 0)
(-0.0048129 0.00371338 0)
(-0.0111171 0.00481325 0)
(-0.0182538 0.00547472 0)
(-0.0261638 0.00632261 0)
(-0.0351045 0.00751613 0)
(-0.0451562 0.00890564 0)
(-0.0559967 0.0100503 0)
(-0.0666824 0.0102059 0)
(-0.075628 0.00851315 0)
(-0.0809546 0.00444335 0)
(-0.0809846 -0.00177682 0)
(-0.0745965 -0.00909627 0)
(-0.0615571 -0.015611 0)
(-0.0434928 -0.0190881 0)
(-0.0230446 -0.0176552 0)
(-0.0044665 -0.0112051 0)
(0.00654948 -0.00189641 0)
(0.00715553 0.00525116 0)
(0.00252954 0.00553673 0)
(-0.0018143 0.00521604 0)
(-0.00803136 0.0109317 0)
(-0.0175337 0.013503 0)
(-0.0280835 0.0151781 0)
(-0.0395793 0.0170911 0)
(-0.0522029 0.019377 0)
(-0.0658493 0.0215501 0)
(-0.0800435 0.0226774 0)
(-0.0938621 0.0215183 0)
(-0.105906 0.0168484 0)
(-0.114374 0.00802076 0)
(-0.117287 -0.004454 0)
(-0.112901 -0.0187792 0)
(-0.100072 -0.0320925 0)
(-0.0796707 -0.0406664 0)
(-0.0533428 -0.0406391 0)
(-0.0250301 -0.0297911 0)
(-0.00220356 -0.010804 0)
(0.00598907 0.00638735 0)
(0.00279065 0.0100745 0)
(-0.00238929 0.010653 0)
(-0.0102774 0.0204913 0)
(-0.0220154 0.0247485 0)
(-0.0348752 0.0275406 0)
(-0.0487536 0.0305595 0)
(-0.0638614 0.0339047 0)
(-0.0802215 0.0368705 0)
(-0.0977953 0.0383158 0)
(-0.116335 0.0367427 0)
(-0.134719 0.0303429 0)
(-0.150228 0.0175132 0)
(-0.159227 -0.00175293 0)
(-0.159374 -0.0246858 0)
(-0.149294 -0.0474845 0)
(-0.129101 -0.0648418 0)
(-0.0989396 -0.0709059 0)
(-0.0608912 -0.0601248 0)
(-0.0216204 -0.0315209 0)
(0.00262762 0.00134846 0)
(0.00336246 0.0139662 0)
(-0.00266501 0.0170899 0)
(-0.011473 0.0315734 0)
(-0.0244959 0.0376573 0)
(-0.0387175 0.0416581 0)
(-0.0541172 0.0459402 0)
(-0.071126 0.0507268 0)
(-0.0902331 0.0553714 0)
(-0.11216 0.0587217 0)
(-0.137151 0.0586002 0)
(-0.16319 0.0513066 0)
(-0.185234 0.0332413 0)
(-0.198261 0.00475866 0)
(-0.201627 -0.0291971 0)
(-0.195431 -0.0633941 0)
(-0.178706 -0.0924107 0)
(-0.150127 -0.109212 0)
(-0.108334 -0.105221 0)
(-0.0556681 -0.0721136 0)
(-0.00584614 -0.0157154 0)
(0.00491534 0.0159891 0)
(-0.00263888 0.0239181 0)
(-0.0116297 0.0433625 0)
(-0.0250465 0.0514357 0)
(-0.0397888 0.0568285 0)
(-0.0559648 0.0627585 0)
(-0.0743 0.0698001 0)
(-0.0957483 0.0774757 0)
(-0.121454 0.0841371 0)
(-0.151201 0.0856188 0)
(-0.180935 0.075536 0)
(-0.203796 0.0499502 0)
(-0.216272 0.0119187 0)
(-0.220655 -0.0319734 0)
(-0.218332 -0.0766672 0)
(-0.208117 -0.117653 0)
(-0.187827 -0.148476 0)
(-0.152348 -0.159067 0)
(-0.0982734 -0.133085 0)
(-0.0288364 -0.0572317 0)
(0.00522278 0.0124809 0)
(-0.00232556 0.0305211 0)
(-0.0107928 0.055039 0)
(-0.0237417 0.065279 0)
(-0.0381354 0.0722855 0)
(-0.0541404 0.0802763 0)
(-0.0726103 0.0902609 0)
(-0.0945708 0.101625 0)
(-0.120878 0.111372 0)
(-0.150173 0.112825 0)
(-0.176907 0.0982074 0)
(-0.194836 0.0653878 0)
(-0.203665 0.020311 0)
(-0.207489 -0.029682 0)
(-0.207781 -0.0805164 0)
(-0.204358 -0.129436 0)
(-0.195651 -0.173276 0)
(-0.174432 -0.203606 0)
(-0.133036 -0.199915 0)
(-0.0674432 -0.129734 0)
(-0.00012106 -0.00366108 0)
(-0.00176056 0.0363158 0)
(-0.00904476 0.0658004 0)
(-0.02067 0.0783337 0)
(-0.0337344 0.0870493 0)
(-0.0482697 0.0971829 0)
(-0.0649402 0.110082 0)
(-0.0844481 0.124607 0)
(-0.107197 0.136119 0)
(-0.131313 0.136079 0)
(-0.151334 0.116711 0)
(-0.162795 0.0780359 0)
(-0.167475 0.0282077 0)
(-0.169509 -0.0244874 0)
(-0.170413 -0.0763991 0)
(-0.171204 -0.126809 0)
(-0.17214 -0.176723 0)
(-0.166627 -0.22369 0)
(-0.144439 -0.249515 0)
(-0.0983807 -0.207601 0)
(-0.0167626 -0.039358 0)
(-0.00101372 0.0407984 0)
(-0.00655966 0.0748892 0)
(-0.0160807 0.0897039 0)
(-0.0268534 0.0999472 0)
(-0.0385835 0.111764 0)
(-0.0515226 0.126728 0)
(-0.0659943 0.143123 0)
(-0.082342 0.155037 0)
(-0.0991567 0.152972 0)
(-0.112261 0.129712 0)
(-0.119046 0.0867985 0)
(-0.121734 0.033555 0)
(-0.123174 -0.0210072 0)
(-0.124332 -0.0728303 0)
(-0.126694 -0.12125 0)
(-0.132315 -0.16956 0)
(-0.137666 -0.223379 0)
(-0.131422 -0.274124 0)
(-0.104454 -0.271125 0)
(-0.032888 -0.108173 0)
(-0.000197755 0.0436221 0)
(-0.00364704 0.0816867 0)
(-0.0104881 0.0986087 0)
(-0.0182461 0.109932 0)
(-0.0262268 0.122539 0)
(-0.0342052 0.138253 0)
(-0.0422153 0.155111 0)
(-0.0508816 0.166654 0)
(-0.0598842 0.163201 0)
(-0.0669276 0.138082 0)
(-0.0709859 0.0932278 0)
(-0.0738 0.0380328 0)
(-0.0766702 -0.0182395 0)
(-0.0795396 -0.0708745 0)
(-0.0832549 -0.117657 0)
(-0.0908132 -0.161406 0)
(-0.102584 -0.213795 0)
(-0.107249 -0.280174 0)
(-0.0957386 -0.316899 0)
(-0.0327243 -0.191017 0)
(0.000541542 0.0446526 0)
(-0.000726504 0.0858167 0)
(-0.00462567 0.104506 0)
(-0.0090495 0.116289 0)
(-0.0129324 0.128659 0)
(-0.0155861 0.143679 0)
(-0.0168075 0.159743 0)
(-0.0175842 0.17066 0)
(-0.0187012 0.167105 0)
(-0.0198496 0.142487 0)
(-0.0214344 0.0984794 0)
(-0.0244386 0.0438339 0)
(-0.0290999 -0.0127009 0)
(-0.0346073 -0.0657789 0)
(-0.040814 -0.11148 0)
(-0.0502762 -0.150878 0)
(-0.066962 -0.198065 0)
(-0.0798381 -0.272481 0)
(-0.0824586 -0.342523 0)
(-0.024546 -0.257014 0)
(0.00107584 0.0440497 0)
(0.00175997 0.0872566 0)
(0.000674777 0.107259 0)
(-0.000474713 0.118933 0)
(-0.000490494 0.130019 0)
(0.00171155 0.143165 0)
(0.00671321 0.157248 0)
(0.0133035 0.167163 0)
(0.0197008 0.164609 0)
(0.0246073 0.142713 0)
(0.0266381 0.102106 0)
(0.0249789 0.0502755 0)
(0.0192965 -0.00491571 0)
(0.0108545 -0.0567913 0)
(0.000334838 -0.101121 0)
(-0.0127189 -0.137225 0)
(-0.034342 -0.178526 0)
(-0.0534722 -0.256546 0)
(-0.0695169 -0.355886 0)
(-0.0165277 -0.310854 0)
(0.0012753 0.0422589 0)
(0.00335243 0.0863268 0)
(0.00464585 0.106953 0)
(0.00630397 0.117916 0)
(0.00968197 0.126985 0)
(0.0158949 0.137358 0)
(0.0256016 0.148429 0)
(0.0379992 0.156456 0)
(0.050806 0.154875 0)
(0.0615311 0.137151 0)
(0.0679063 0.102335 0)
(0.0685651 0.0558921 0)
(0.0635349 0.0047653 0)
(0.0537105 -0.0444094 0)
(0.0386319 -0.0865081 0)
(0.0204461 -0.119299 0)
(-0.00671158 -0.154868 0)
(-0.0295554 -0.233264 0)
(-0.0581691 -0.357484 0)
(-0.0080703 -0.353593 0)
(0.00106921 0.0399811 0)
(0.00373922 0.0839606 0)
(0.00669335 0.104688 0)
(0.0105829 0.114454 0)
(0.0166111 0.121046 0)
(0.0257416 0.127911 0)
(0.0385184 0.135208 0)
(0.0544938 0.140426 0)
(0.0716589 0.13887 0)
(0.0870341 0.125206 0)
(0.0976442 0.097353 0)
(0.101441 0.0585036 0)
(0.097938 0.0145336 0)
(0.0875022 -0.0292797 0)
(0.0696891 -0.0674484 0)
(0.0475928 -0.0969881 0)
(0.0153297 -0.127705 0)
(-0.00802043 -0.206099 0)
(-0.0487738 -0.353792 0)
(0.000305875 -0.389917 0)
(0.000375018 0.0380135 0)
(0.00254984 0.0807813 0)
(0.00611258 0.0999831 0)
(0.0115799 0.107828 0)
(0.0196887 0.111862 0)
(0.0309093 0.11542 0)
(0.0454826 0.119049 0)
(0.0630847 0.121261 0)
(0.0822441 0.11898 0)
(0.100256 0.108434 0)
(0.113928 0.0873851 0)
(0.120615 0.0571367 0)
(0.119097 0.0218917 0)
(0.109381 -0.0142971 0)
(0.0907289 -0.0465349 0)
(0.0668101 -0.072094 0)
(0.031416 -0.0984585 0)
(0.0117434 -0.176407 0)
(-0.0406356 -0.347932 0)
(0.0101226 -0.423181 0)
(-0.000970588 0.0371472 0)
(-0.000246988 0.0788238 0)
(0.00317344 0.0966577 0)
(0.00970436 0.101674 0)
(0.0193519 0.102408 0)
(0.0320044 0.102505 0)
(0.0475225 0.102708 0)
(0.0655105 0.102123 0)
(0.0848852 0.0988096 0)
(0.103565 0.0903303 0)
(0.118648 0.0749576 0)
(0.127464 0.0529424 0)
(0.12786 0.0268952 0)
(0.119892 -0.000323679 0)
(0.102143 -0.0251926 0)
(0.0787004 -0.046195 0)
(0.0430928 -0.0696785 0)
(0.0296661 -0.148909 0)
(-0.0325548 -0.344648 0)
(0.0233863 -0.453321 0)
(-0.00349122 0.0424825 0)
(-0.00789119 0.0775122 0)
(-0.00598949 0.0874656 0)
(0.00250944 0.089114 0)
(0.0149104 0.0878637 0)
(0.0296901 0.0860016 0)
(0.0463726 0.0842283 0)
(0.0645766 0.0820749 0)
(0.0835003 0.0784463 0)
(0.101697 0.0718904 0)
(0.116829 0.0614058 0)
(0.126701 0.0468102 0)
(0.128711 0.029698 0)
(0.123085 0.0116827 0)
(0.107206 -0.0051409 0)
(0.0869335 -0.0215178 0)
(0.0544866 -0.0441851 0)
(0.0471808 -0.125381 0)
(-0.0183691 -0.338521 0)
(0.045215 -0.470635 0)
(-0.00409764 0.0350436 0)
(-0.00880542 0.0858674 0)
(-0.0111442 0.0927211 0)
(-0.00390617 0.0860372 0)
(0.00878704 0.0790762 0)
(0.0239859 0.0737804 0)
(0.0409356 0.0696637 0)
(0.0589828 0.0659014 0)
(0.0774782 0.0619332 0)
(0.0952996 0.0566836 0)
(0.110536 0.0499686 0)
(0.122191 0.0411691 0)
(0.126892 0.0316118 0)
(0.12707 0.0213398 0)
(0.116264 0.0116926 0)
(0.106242 -0.00151491 0)
(0.0788369 -0.0268294 0)
(0.0756461 -0.113128 0)
(0.020395 -0.315159 0)
(0.0858375 -0.447378 0)
(-0.0985732 0.094473 0)
(-0.0733501 0.0760256 0)
(-0.0581313 0.0607361 0)
(-0.0288523 0.0541684 0)
(-0.000683486 0.0491074 0)
(0.0271793 0.0449173 0)
(0.0537014 0.0414892 0)
(0.080474 0.0383705 0)
(0.104772 0.0358338 0)
(0.130059 0.0328743 0)
(0.149863 0.0300246 0)
(0.171552 0.0263341 0)
(0.182482 0.023053 0)
(0.197955 0.0193563 0)
(0.194684 0.0155787 0)
(0.203817 0.00696194 0)
(0.17791 -0.0171936 0)
(0.184638 -0.0833773 0)
(0.136969 -0.227359 0)
(0.167587 -0.339682 0)
(0.134621 0.108181 0)
(0.168985 0.0849356 0)
(0.2281 0.0632991 0)
(0.284078 0.0495764 0)
(0.328318 0.0409048 0)
(0.368052 0.0344633 0)
(0.399282 0.0298179 0)
(0.432066 0.0257197 0)
(0.455871 0.0229132 0)
(0.485302 0.0199567 0)
(0.502434 0.0182219 0)
(0.529542 0.0157178 0)
(0.53874 0.0147698 0)
(0.563239 0.0124558 0)
(0.560755 0.0122032 0)
(0.578497 0.00839466 0)
(0.550463 0.00398239 0)
(0.540296 -0.0150059 0)
(0.437716 -0.0478854 0)
(0.339066 -0.0996961 0)
)
;

boundaryField
{
    movingWall
    {
        type            fixedValue;
        value           uniform (1 0 0);
    }
    fixedWalls
    {
        type            noSlip;
    }
    frontAndBack
    {
        type            empty;
    }
}


// ************************************************************************* //
