/*--------------------------------*- C++ -*----------------------------------*\
| =========                 |                                                 |
| \\      /  F ield         | OpenFOAM: The Open Source CFD Toolbox           |
|  \\    /   O peration     | Version:  2506                                  |
|   \\  /    A nd           | Website:  www.openfoam.com                      |
|    \\/     M anipulation  |                                                 |
\*---------------------------------------------------------------------------*/
FoamFile
{
    version     2.0;
    format      ascii;
    arch        "LSB;label=32;scalar=64";
    class       volScalarField;
    location    "500";
    object      nuTilda;
}
// * * * * * * * * * * * * * * * * * * * * * * * * * * * * * * * * * * * * * //

dimensions      [0 2 -1 0 0 0 0];

internalField   nonuniform List<scalar> 
1340
(
0.0869128
0.0784498
0.0683191
0.0332562
0.153838
0.148527
0.139507
0.139917
0.206324
0.207572
0.20148
0.210275
0.215349
0.231941
0.239141
0.255238
0.175043
0.21717
0.248034
0.278262
0.0932775
0.160391
0.223976
0.27831
0.0217345
0.0782294
0.166186
0.252302
0.00542026
0.0161564
0.0903861
0.20005
0
0.00441091
0.0302864
0.133003
0
6.57986e-05
0.00303876
0.0730349
0
0
0.00140762
0.0333362
7.84678e-06
0
0.000285753
0.013048
3.14841e-05
8.6267e-07
9.96869e-05
0.00434166
4.68275e-05
8.0454e-06
2.66636e-05
0.00110794
4.52397e-05
3.09162e-05
3.29264e-06
9.67454e-05
4.06739e-05
4.57516e-05
2.04918e-06
2.22837e-05
3.84483e-05
4.89876e-05
3.35783e-06
9.37206e-08
3.85276e-05
4.54777e-05
2.79758e-05
3.71386e-06
3.93856e-05
4.15329e-05
4.14009e-05
1.3405e-05
4.00164e-05
3.9639e-05
4.40603e-05
2.83324e-05
4.02349e-05
3.93654e-05
4.26201e-05
3.70384e-05
4.02178e-05
3.967e-05
4.09956e-05
4.01586e-05
4.01453e-05
3.99565e-05
4.01931e-05
4.06386e-05
4.00961e-05
4.00857e-05
3.99897e-05
4.04014e-05
4.00777e-05
4.01105e-05
4.0012e-05
4.01804e-05
4.00753e-05
4.01e-05
4.00611e-05
4.00931e-05
4.00771e-05
4.00881e-05
4.00846e-05
4.00803e-05
4.00782e-05
4.00825e-05
4.00885e-05
4.00867e-05
4.00782e-05
4.00809e-05
4.00859e-05
4.0091e-05
4.00778e-05
4.00806e-05
4.00832e-05
4.00912e-05
4.00773e-05
4.00804e-05
4.00818e-05
4.00897e-05
4.00771e-05
4.008e-05
4.00811e-05
4.00883e-05
4.00769e-05
4.00797e-05
4.00807e-05
4.00872e-05
4.00755e-05
4.00769e-05
4.00794e-05
4.00804e-05
4.00863e-05
4.00756e-05
4.00769e-05
4.00793e-05
4.00801e-05
4.00857e-05
4.00758e-05
4.0077e-05
4.00792e-05
4.008e-05
4.00852e-05
4.0076e-05
4.00771e-05
4.00792e-05
4.00799e-05
4.00848e-05
4.00763e-05
4.00773e-05
4.00793e-05
4.00799e-05
4.00844e-05
4.00766e-05
4.00776e-05
4.00794e-05
4.008e-05
4.00842e-05
4.00769e-05
4.00779e-05
4.00796e-05
4.00801e-05
4.00841e-05
4.00773e-05
4.00782e-05
4.00799e-05
4.00804e-05
4.0084e-05
4.00776e-05
4.00785e-05
4.00801e-05
4.00806e-05
4.00841e-05
4.0078e-05
4.00789e-05
4.00804e-05
4.00809e-05
4.00842e-05
4.00784e-05
4.00792e-05
4.00807e-05
4.00812e-05
4.00843e-05
4.00787e-05
4.00796e-05
4.0081e-05
4.00815e-05
4.00845e-05
4.00781e-05
4.0079e-05
4.00799e-05
4.00813e-05
4.00819e-05
4.00847e-05
4.00783e-05
4.00792e-05
4.00801e-05
4.00815e-05
4.00822e-05
4.00848e-05
4.00784e-05
4.00794e-05
4.00803e-05
4.00817e-05
4.00824e-05
4.0085e-05
4.00785e-05
4.00795e-05
4.00805e-05
4.00818e-05
4.00826e-05
4.00851e-05
4.00785e-05
4.00795e-05
4.00805e-05
4.00819e-05
4.00827e-05
4.00852e-05
4.00783e-05
4.00793e-05
4.00804e-05
4.00818e-05
4.00827e-05
4.00852e-05
4.0078e-05
4.00791e-05
4.00802e-05
4.00816e-05
4.00826e-05
4.0085e-05
4.00776e-05
4.00787e-05
4.00798e-05
4.00813e-05
4.00824e-05
4.00847e-05
4.00769e-05
4.00781e-05
4.00793e-05
4.00808e-05
4.0082e-05
4.00843e-05
4.0075e-05
4.00761e-05
4.00773e-05
4.00786e-05
4.00801e-05
4.00814e-05
4.00837e-05
4.00739e-05
4.00751e-05
4.00763e-05
4.00776e-05
4.00792e-05
4.00806e-05
4.00829e-05
4.00726e-05
4.00738e-05
4.00751e-05
4.00765e-05
4.00781e-05
4.00796e-05
4.00819e-05
4.00711e-05
4.00724e-05
4.00737e-05
4.00751e-05
4.00768e-05
4.00783e-05
4.00806e-05
4.00694e-05
4.00707e-05
4.00721e-05
4.00735e-05
4.00752e-05
4.00768e-05
4.00791e-05
4.00674e-05
4.00687e-05
4.00702e-05
4.00717e-05
4.00734e-05
4.00751e-05
4.00774e-05
4.00649e-05
4.00663e-05
4.00678e-05
4.00694e-05
4.00712e-05
4.00731e-05
4.00754e-05
4.00602e-05
4.00617e-05
4.00632e-05
4.00649e-05
4.00666e-05
4.00685e-05
4.00705e-05
4.0073e-05
4.00561e-05
4.00577e-05
4.00593e-05
4.0061e-05
4.00629e-05
4.0065e-05
4.00671e-05
4.00698e-05
4.00515e-05
4.0053e-05
4.00546e-05
4.00564e-05
4.00583e-05
4.00605e-05
4.00628e-05
4.00656e-05
4.00466e-05
4.0048e-05
4.00496e-05
4.00513e-05
4.00532e-05
4.00553e-05
4.00577e-05
4.00606e-05
4.00416e-05
4.0043e-05
4.00445e-05
4.00461e-05
4.00478e-05
4.00499e-05
4.00522e-05
4.0055e-05
4.00367e-05
4.00381e-05
4.00395e-05
4.00411e-05
4.00427e-05
4.00447e-05
4.00468e-05
4.00494e-05
4.00321e-05
4.00335e-05
4.0035e-05
4.00365e-05
4.00383e-05
4.00402e-05
4.00423e-05
4.00447e-05
4.00261e-05
4.00273e-05
4.00287e-05
4.00302e-05
4.00318e-05
4.00335e-05
4.00355e-05
4.00376e-05
4.00401e-05
4.00211e-05
4.00222e-05
4.00235e-05
4.00248e-05
4.00263e-05
4.00279e-05
4.00298e-05
4.00319e-05
4.00344e-05
4.0016e-05
4.0017e-05
4.00181e-05
4.00192e-05
4.00205e-05
4.0022e-05
4.00236e-05
4.00255e-05
4.00278e-05
4.0011e-05
4.00118e-05
4.00127e-05
4.00137e-05
4.00148e-05
4.0016e-05
4.00175e-05
4.00191e-05
4.00212e-05
4.00066e-05
4.0007e-05
4.00075e-05
4.00081e-05
4.00088e-05
4.00097e-05
4.00108e-05
4.00121e-05
4.00137e-05
4.0007e-05
4.00068e-05
4.00066e-05
4.00064e-05
4.00064e-05
4.00065e-05
4.00068e-05
4.00073e-05
4.0008e-05
4.00122e-05
4.00119e-05
4.00116e-05
4.00112e-05
4.00108e-05
4.00104e-05
4.001e-05
4.00097e-05
4.00094e-05
4.00184e-05
4.00181e-05
4.00177e-05
4.00172e-05
4.00167e-05
4.00161e-05
4.00154e-05
4.00146e-05
4.00136e-05
4.00261e-05
4.00262e-05
4.00264e-05
4.00266e-05
4.00267e-05
4.00267e-05
4.00267e-05
4.00267e-05
4.00265e-05
4.00321e-05
4.00322e-05
4.0032e-05
4.00318e-05
4.00314e-05
4.0031e-05
4.00306e-05
4.00301e-05
4.00299e-05
4.00297e-05
4.00425e-05
4.00442e-05
4.0046e-05
4.0048e-05
4.005e-05
4.0052e-05
4.00541e-05
4.00563e-05
4.00589e-05
4.00614e-05
4.00602e-05
4.00605e-05
4.00607e-05
4.00608e-05
4.00608e-05
4.00607e-05
4.00609e-05
4.00614e-05
4.00623e-05
4.0063e-05
0.17235
0.214952
0.255349
0.299982
0.326382
0.329392
0.307329
0.258829
0.186555
0.10536
0.043845
0.0154412
0.00480622
0.00111081
6.74337e-05
1.52242e-05
0
1.60064e-06
7.5816e-06
2.55014e-05
3.60643e-05
4.00533e-05
4.07616e-05
4.05052e-05
4.02276e-05
4.0108e-05
4.00854e-05
4.00916e-05
4.00972e-05
4.00979e-05
4.0096e-05
4.0094e-05
4.00924e-05
4.00911e-05
4.00901e-05
4.00892e-05
4.00884e-05
4.00877e-05
4.00872e-05
4.00868e-05
4.00864e-05
4.00862e-05
4.0086e-05
4.00859e-05
4.00859e-05
4.00859e-05
4.00859e-05
4.00858e-05
4.00858e-05
4.00858e-05
4.00857e-05
4.00857e-05
4.00855e-05
4.00851e-05
4.00846e-05
4.00839e-05
4.00829e-05
4.00817e-05
4.00803e-05
4.00786e-05
4.00766e-05
4.00742e-05
4.00712e-05
4.00671e-05
4.00621e-05
4.00564e-05
4.00507e-05
4.0046e-05
4.00414e-05
4.00357e-05
4.0029e-05
4.00221e-05
4.00145e-05
4.00084e-05
4.00092e-05
4.00133e-05
4.00263e-05
4.00295e-05
4.0063e-05
4.00634e-05
0.213603
0.258494
0.288523
0.31697
0.345745
0.357732
0.345384
0.305898
0.239457
0.15305
0.0689456
0.020825
0.00564557
0.00139599
9.05659e-05
2.05646e-05
0
1.12511e-06
5.29563e-06
2.36093e-05
3.53764e-05
3.99235e-05
4.08076e-05
4.05634e-05
4.02573e-05
4.01172e-05
4.00874e-05
4.00928e-05
4.0099e-05
4.00998e-05
4.00977e-05
4.00954e-05
4.00935e-05
4.00922e-05
4.00911e-05
4.00901e-05
4.00893e-05
4.00886e-05
4.00881e-05
4.00876e-05
4.00872e-05
4.0087e-05
4.00868e-05
4.00867e-05
4.00866e-05
4.00866e-05
4.00865e-05
4.00865e-05
4.00865e-05
4.00864e-05
4.00864e-05
4.00864e-05
4.00862e-05
4.00859e-05
4.00854e-05
4.00847e-05
4.00838e-05
4.00826e-05
4.00812e-05
4.00795e-05
4.00776e-05
4.00752e-05
4.00722e-05
4.00681e-05
4.00631e-05
4.00573e-05
4.00516e-05
4.00468e-05
4.00422e-05
4.00365e-05
4.00297e-05
4.00227e-05
4.00151e-05
4.00086e-05
4.00091e-05
4.00132e-05
4.00261e-05
4.00294e-05
4.00641e-05
0.217789
0.269138
0.303781
0.326763
0.347896
0.366372
0.368531
0.346285
0.296144
0.219067
0.124837
0.0438884
0.00720799
0.000799239
2.59161e-06
5.91735e-07
0
3.34877e-07
1.56665e-06
1.98347e-05
3.37984e-05
3.96394e-05
4.08815e-05
4.06517e-05
4.03018e-05
4.01307e-05
4.00881e-05
4.00913e-05
4.00987e-05
4.01006e-05
4.00988e-05
4.00964e-05
4.00945e-05
4.00931e-05
4.00921e-05
4.00911e-05
4.00903e-05
4.00896e-05
4.0089e-05
4.00886e-05
4.00882e-05
4.00879e-05
4.00877e-05
4.00876e-05
4.00875e-05
4.00875e-05
4.00875e-05
4.00874e-05
4.00874e-05
4.00873e-05
4.00873e-05
4.00873e-05
4.00872e-05
4.00869e-05
4.00864e-05
4.00857e-05
4.00848e-05
4.00837e-05
4.00822e-05
4.00806e-05
4.00786e-05
4.00763e-05
4.00732e-05
4.00692e-05
4.00642e-05
4.00584e-05
4.00525e-05
4.00477e-05
4.0043e-05
4.00373e-05
4.00305e-05
4.00234e-05
4.00156e-05
4.00088e-05
4.0009e-05
4.00131e-05
4.00259e-05
4.00293e-05
0.202659
0.258523
0.300404
0.32823
0.346517
0.3627
0.374797
0.371352
0.344256
0.289379
0.207407
0.11057
0.0326055
0.00069392
0.000196456
0
0
0
3.39348e-06
1.56557e-05
3.08558e-05
3.86558e-05
4.08533e-05
4.08151e-05
4.0391e-05
4.01528e-05
4.00883e-05
4.00888e-05
4.00979e-05
4.01013e-05
4.01002e-05
4.00978e-05
4.00958e-05
4.00944e-05
4.00933e-05
4.00924e-05
4.00915e-05
4.00908e-05
4.00902e-05
4.00897e-05
4.00893e-05
4.0089e-05
4.00888e-05
4.00886e-05
4.00886e-05
4.00885e-05
4.00885e-05
4.00885e-05
4.00885e-05
4.00884e-05
4.00884e-05
4.00884e-05
4.00883e-05
4.0088e-05
4.00875e-05
4.00868e-05
4.00859e-05
4.00848e-05
4.00834e-05
4.00817e-05
4.00797e-05
4.00774e-05
4.00744e-05
4.00703e-05
4.00653e-05
4.00594e-05
4.00535e-05
4.00486e-05
4.00439e-05
4.00381e-05
4.00312e-05
4.0024e-05
4.00162e-05
4.00091e-05
4.00089e-05
4.00131e-05
4.00257e-05
0.172716
0.232711
0.28166
0.317715
0.341523
0.35692
0.369864
0.378294
0.372097
0.34319
0.286798
0.203229
0.106121
0.0278113
0.00147279
0.000400388
0
0
0
5.71933e-06
2.44879e-05
3.7506e-05
4.08257e-05
4.09524e-05
4.05344e-05
4.02146e-05
4.00922e-05
4.00824e-05
4.00957e-05
4.01018e-05
4.01016e-05
4.00995e-05
4.00974e-05
4.00958e-05
4.00947e-05
4.00937e-05
4.00929e-05
4.00921e-05
4.00915e-05
4.00909e-05
4.00905e-05
4.00902e-05
4.009e-05
4.00898e-05
4.00897e-05
4.00897e-05
4.00896e-05
4.00896e-05
4.00896e-05
4.00895e-05
4.00895e-05
4.00895e-05
4.00894e-05
4.00891e-05
4.00887e-05
4.0088e-05
4.00871e-05
4.0086e-05
4.00845e-05
4.00829e-05
4.00809e-05
4.00786e-05
4.00756e-05
4.00716e-05
4.00665e-05
4.00605e-05
4.00546e-05
4.00496e-05
4.00448e-05
4.0039e-05
4.00321e-05
4.00247e-05
4.00169e-05
4.00094e-05
4.00088e-05
4.0013e-05
0.130132
0.193672
0.249312
0.294152
0.327071
0.348796
0.362583
0.373392
0.379781
0.372515
0.343468
0.28729
0.204062
0.106408
0.0305169
0.00245418
0.000584443
0
0
0
6.87353e-06
2.85974e-05
4.08217e-05
4.16476e-05
4.07074e-05
4.02757e-05
4.01272e-05
4.00817e-05
4.00888e-05
4.01018e-05
4.01041e-05
4.01014e-05
4.00989e-05
4.00973e-05
4.00962e-05
4.00952e-05
4.00943e-05
4.00935e-05
4.00928e-05
4.00923e-05
4.00918e-05
4.00915e-05
4.00912e-05
4.0091e-05
4.00909e-05
4.00909e-05
4.00908e-05
4.00908e-05
4.00908e-05
4.00907e-05
4.00907e-05
4.00907e-05
4.00906e-05
4.00903e-05
4.00899e-05
4.00893e-05
4.00884e-05
4.00872e-05
4.00858e-05
4.00841e-05
4.00822e-05
4.00798e-05
4.00768e-05
4.00728e-05
4.00678e-05
4.00617e-05
4.00557e-05
4.00506e-05
4.00458e-05
4.00399e-05
4.0033e-05
4.00254e-05
4.00175e-05
4.00097e-05
0.078838
0.142577
0.203877
0.257079
0.299947
0.331567
0.352537
0.365593
0.37496
0.380287
0.372999
0.344876
0.290096
0.207953
0.111162
0.0359895
0.000747582
0.000206046
0
0
0
7.55307e-06
3.1176e-05
4.26375e-05
4.20992e-05
4.04166e-05
4.00561e-05
4.00876e-05
4.00912e-05
4.00923e-05
4.01016e-05
4.01044e-05
4.01016e-05
4.0099e-05
4.00977e-05
4.00967e-05
4.00958e-05
4.0095e-05
4.00943e-05
4.00937e-05
4.00932e-05
4.00928e-05
4.00925e-05
4.00923e-05
4.00922e-05
4.00921e-05
4.00921e-05
4.00921e-05
4.00921e-05
4.0092e-05
4.0092e-05
4.00919e-05
4.00919e-05
4.00916e-05
4.00912e-05
4.00906e-05
4.00897e-05
4.00885e-05
4.00871e-05
4.00854e-05
4.00835e-05
4.00811e-05
4.00782e-05
4.00742e-05
4.00691e-05
4.0063e-05
4.00569e-05
4.00517e-05
4.00469e-05
4.00409e-05
4.00339e-05
4.00262e-05
0.0299725
0.0828557
0.145789
0.206045
0.25848
0.300993
0.332661
0.353869
0.366859
0.375279
0.380184
0.373573
0.347106
0.294486
0.214327
0.119813
0.0403403
0.00135472
0.000408798
0
0
0
7.24673e-06
2.93547e-05
4.32973e-05
4.26358e-05
4.02725e-05
3.98766e-05
4.00824e-05
4.01326e-05
4.01064e-05
4.00994e-05
4.01021e-05
4.01017e-05
4.00997e-05
4.00983e-05
4.00974e-05
4.00966e-05
4.00958e-05
4.00952e-05
4.00946e-05
4.00942e-05
4.00939e-05
4.00937e-05
4.00935e-05
4.00935e-05
4.00934e-05
4.00934e-05
4.00934e-05
4.00933e-05
4.00933e-05
4.00933e-05
4.00932e-05
4.0093e-05
4.00925e-05
4.00919e-05
4.00911e-05
4.00899e-05
4.00885e-05
4.00868e-05
4.00848e-05
4.00825e-05
4.00796e-05
4.00756e-05
4.00705e-05
4.00644e-05
4.00581e-05
4.00528e-05
4.0048e-05
0.00321504
0.0283069
0.0794002
0.141502
0.201845
0.254859
0.298267
0.331032
0.353278
0.366755
0.374608
0.379501
0.374042
0.349775
0.299888
0.22288
0.12983
0.0472446
0.00386588
0.00108519
0
0
0
5.92531e-06
2.3422e-05
4.26086e-05
4.34169e-05
4.03279e-05
3.96086e-05
3.99716e-05
4.01481e-05
4.01286e-05
4.01029e-05
4.01006e-05
4.01016e-05
4.01005e-05
4.00992e-05
4.00983e-05
4.00975e-05
4.00968e-05
4.00962e-05
4.00957e-05
4.00954e-05
4.00951e-05
4.00949e-05
4.00948e-05
4.00948e-05
4.00948e-05
4.00948e-05
4.00947e-05
4.00947e-05
4.00946e-05
4.00946e-05
4.00944e-05
4.0094e-05
4.00934e-05
4.00925e-05
4.00914e-05
4.009e-05
4.00883e-05
4.00863e-05
4.0084e-05
4.0081e-05
4.00771e-05
4.0072e-05
4.00658e-05
0.000425833
0.00168554
0.0227613
0.0700313
0.130989
0.192187
0.246848
0.292187
0.326939
0.350941
0.365502
0.373515
0.378485
0.374348
0.352594
0.306001
0.232446
0.140697
0.0557535
0.00776383
0.00211153
0
0
0
3.60555e-06
1.34128e-05
4.01381e-05
4.48185e-05
4.12869e-05
3.96726e-05
3.98522e-05
4.01152e-05
4.01373e-05
4.0108e-05
4.01006e-05
4.01016e-05
4.01012e-05
4.01002e-05
4.00992e-05
4.00985e-05
4.00978e-05
4.00973e-05
4.00969e-05
4.00966e-05
4.00964e-05
4.00963e-05
4.00962e-05
4.00962e-05
4.00962e-05
4.00962e-05
4.00961e-05
4.00961e-05
4.0096e-05
4.00958e-05
4.00955e-05
4.00949e-05
4.0094e-05
4.00929e-05
4.00915e-05
4.00898e-05
4.00878e-05
4.00855e-05
0
0.000341873
0.00139043
0.0167039
0.0570183
0.115592
0.1777
0.234734
0.28287
0.320431
0.346951
0.363381
0.372515
0.377525
0.374643
0.355498
0.312484
0.242414
0.152313
0.0655037
0.0128704
0.00344549
2.17054e-05
0
0
4.49564e-07
8.51745e-08
3.27905e-05
4.38168e-05
4.19742e-05
3.99428e-05
3.98197e-05
4.00811e-05
4.01378e-05
4.01126e-05
4.01023e-05
4.01027e-05
4.01023e-05
4.01011e-05
4.01002e-05
4.00995e-05
4.0099e-05
4.00986e-05
4.00982e-05
4.0098e-05
4.00978e-05
4.00978e-05
4.00977e-05
4.00977e-05
4.00977e-05
4.00976e-05
4.00976e-05
4.00975e-05
4.00974e-05
4.0097e-05
4.00964e-05
4.00956e-05
0
0
5.60197e-05
0.000180994
0.0103695
0.0427517
0.0968006
0.159069
0.21872
0.270315
0.311452
0.341277
0.360385
0.371116
0.376364
0.374777
0.358325
0.318967
0.252512
0.164393
0.0761662
0.0191395
0.000816463
0.000261989
0
0
2.75115e-09
7.23123e-06
2.89887e-05
4.26684e-05
4.23111e-05
4.01694e-05
3.98081e-05
4.00511e-05
4.0134e-05
4.0113e-05
4.01015e-05
4.01031e-05
4.01038e-05
4.01027e-05
4.01016e-05
4.01008e-05
4.01003e-05
4.00999e-05
4.00996e-05
4.00995e-05
4.00994e-05
4.00993e-05
4.00993e-05
4.00993e-05
8.74043e-06
3.34158e-08
0
1.78785e-06
0.00121873
0.00475907
0.0288122
0.07632
0.137215
0.199169
0.254605
0.299951
0.333765
0.356179
0.368979
0.374735
0.374524
0.360826
0.325199
0.262508
0.176657
0.0877697
0.02602
0.00282245
0.000697257
0
0
0
6.2741e-06
2.50651e-05
4.1691e-05
4.27712e-05
4.04325e-05
3.98071e-05
4.00378e-05
4.01497e-05
4.01241e-05
4.01027e-05
)
;

boundaryField
{
    inlet
    {
        type            freestream;
        freestreamValue uniform 4e-05;
        value           nonuniform List<scalar> 
11
(
4.00602e-05
4.00605e-05
4.00607e-05
4.00608e-05
4.00608e-05
4.00607e-05
4.00609e-05
4.00614e-05
4.00623e-05
4.0063e-05
4.00634e-05
)
;
    }
    outlet
    {
        type            freestream;
        freestreamValue nonuniform List<scalar> 0();
        value           nonuniform List<scalar> 0();
    }
    walls
    {
        type            fixedValue;
        value           uniform 0;
    }
    frontAndBack
    {
        type            empty;
    }
    procBoundary6to2
    {
        type            processor;
        value           nonuniform List<scalar> 
13
(
0.12658
0.149853
0.151234
0.13516
0.104401
0.0649675
0.0258216
0.00297666
0.000805561
0
0
8.04902e-06
3.50297e-05
)
;
    }
    procBoundary6to3
    {
        type            processor;
        value           uniform 3.84932e-05;
    }
    procBoundary6to5
    {
        type            processor;
        value           nonuniform List<scalar> 
86
(
0.0927939
0.159339
0.20344
0.193208
0.124102
0.0380627
0.00167158
0.000386707
0
0
8.6818e-06
3.56774e-05
4.41109e-05
4.11132e-05
3.91921e-05
3.95264e-05
4.02291e-05
4.04483e-05
4.03257e-05
4.01566e-05
4.00674e-05
4.00496e-05
4.00606e-05
4.00728e-05
4.00783e-05
4.00789e-05
4.00778e-05
4.00767e-05
4.0076e-05
4.00757e-05
4.00755e-05
4.00754e-05
4.00754e-05
4.00754e-05
4.00742e-05
4.00744e-05
4.00746e-05
4.00749e-05
4.00752e-05
4.00756e-05
4.0076e-05
4.00764e-05
4.00767e-05
4.00771e-05
4.00775e-05
4.00778e-05
4.00778e-05
4.00773e-05
4.00775e-05
4.00776e-05
4.00776e-05
4.00776e-05
4.00774e-05
4.0077e-05
4.00765e-05
4.00758e-05
4.00758e-05
4.00739e-05
4.00728e-05
4.00715e-05
4.00699e-05
4.00682e-05
4.00661e-05
4.00635e-05
4.00635e-05
4.00589e-05
4.00547e-05
4.005e-05
4.00452e-05
4.00403e-05
4.00354e-05
4.00308e-05
4.00308e-05
4.00249e-05
4.00201e-05
4.00151e-05
4.00103e-05
4.00063e-05
4.00072e-05
4.00125e-05
4.00186e-05
4.00259e-05
4.00259e-05
4.00315e-05
4.00412e-05
4.00596e-05
)
;
    }
    procBoundary6to7
    {
        type            processor;
        value           nonuniform List<scalar> 
91
(
4.00638e-05
4.00638e-05
4.00652e-05
4.00652e-05
4.00292e-05
4.00292e-05
4.00255e-05
4.00087e-05
4.00255e-05
4.00129e-05
4.00182e-05
4.00087e-05
4.00101e-05
4.0042e-05
4.00349e-05
4.00182e-05
4.00271e-05
4.00594e-05
4.00541e-05
4.0042e-05
4.00492e-05
4.00826e-05
4.00787e-05
4.00736e-05
4.00594e-05
4.00673e-05
4.00945e-05
4.00931e-05
4.00914e-05
4.00894e-05
4.00826e-05
4.00871e-05
4.00992e-05
4.00992e-05
4.00991e-05
4.0099e-05
4.00986e-05
4.00981e-05
4.00945e-05
4.00973e-05
4.01021e-05
4.01035e-05
4.01032e-05
4.01027e-05
4.01023e-05
4.01018e-05
4.01014e-05
4.01012e-05
4.01011e-05
4.0101e-05
4.0101e-05
4.00992e-05
4.01009e-05
3.93788e-06
1.02594e-06
0
0
0.000159233
0.000469236
0.016114
0.0551947
0.112664
0.176087
0.23551
0.285618
0.324075
0.350415
0.365813
0.372618
0.373749
0.362752
0.330895
0.272103
0.188974
0.0998838
0.0338936
0.00195446
0.000541958
0
0
0
5.08104e-06
2.00371e-05
4.03603e-05
4.33624e-05
4.07229e-05
3.97006e-05
3.99359e-05
4.01373e-05
4.01021e-05
4.01376e-05
)
;
    }
}


// ************************************************************************* //
