/*--------------------------------*- C++ -*----------------------------------*\
| =========                 |                                                 |
| \\      /  F ield         | OpenFOAM: The Open Source CFD Toolbox           |
|  \\    /   O peration     | Version:  2506                                  |
|   \\  /    A nd           | Website:  www.openfoam.com                      |
|    \\/     M anipulation  |                                                 |
\*---------------------------------------------------------------------------*/
FoamFile
{
    version     2.0;
    format      ascii;
    arch        "LSB;label=32;scalar=64";
    class       volScalarField;
    location    "500";
    object      turbulenceProperties:nuEff;
}
// * * * * * * * * * * * * * * * * * * * * * * * * * * * * * * * * * * * * * //

dimensions      [0 2 -1 0 0 0 0];

internalField   nonuniform List<scalar> 
1340
(
0.0869228
0.0784598
0.0683291
0.0332662
0.153848
0.148537
0.139517
0.139927
0.206334
0.207582
0.20149
0.210285
0.215359
0.231951
0.239151
0.255248
0.175053
0.21718
0.248044
0.278272
0.0932875
0.160401
0.223986
0.27832
0.0217445
0.0782394
0.166196
0.252312
0.00543025
0.0161664
0.0903961
0.20006
1e-05
0.00442089
0.0302964
0.133013
1e-05
3.9161e-05
0.00304872
0.0730449
1e-05
1e-05
0.00141744
0.0333462
1.00106e-05
1e-05
0.000291436
0.013058
1.25251e-05
1e-05
8.32295e-05
0.00435164
2.04396e-05
1.00117e-05
1.13412e-05
0.00111765
1.92979e-05
1.23578e-05
1.00003e-05
7.93386e-05
1.64368e-05
1.96577e-05
1e-05
1.06683e-05
1.5269e-05
2.21121e-05
1.00004e-05
1e-05
1.5308e-05
1.94642e-05
1.16127e-05
1.00005e-05
1.57429e-05
1.69271e-05
1.68503e-05
1.00896e-05
1.60765e-05
1.58754e-05
1.84987e-05
1.16928e-05
1.61947e-05
1.57324e-05
1.75795e-05
1.46045e-05
1.61855e-05
1.58918e-05
1.66178e-05
1.61533e-05
1.61461e-05
1.60442e-05
1.6172e-05
1.64171e-05
1.61194e-05
1.61138e-05
1.60621e-05
1.62859e-05
1.61095e-05
1.61273e-05
1.60741e-05
1.61651e-05
1.61082e-05
1.61215e-05
1.61005e-05
1.61178e-05
1.61092e-05
1.61151e-05
1.61132e-05
1.61109e-05
1.61098e-05
1.61121e-05
1.61153e-05
1.61143e-05
1.61098e-05
1.61112e-05
1.61139e-05
1.61167e-05
1.61095e-05
1.61111e-05
1.61125e-05
1.61168e-05
1.61093e-05
1.61109e-05
1.61117e-05
1.6116e-05
1.61092e-05
1.61108e-05
1.61114e-05
1.61152e-05
1.61091e-05
1.61106e-05
1.61111e-05
1.61146e-05
1.61083e-05
1.6109e-05
1.61104e-05
1.6111e-05
1.61142e-05
1.61084e-05
1.61091e-05
1.61104e-05
1.61108e-05
1.61138e-05
1.61085e-05
1.61091e-05
1.61103e-05
1.61107e-05
1.61135e-05
1.61086e-05
1.61092e-05
1.61103e-05
1.61107e-05
1.61133e-05
1.61087e-05
1.61093e-05
1.61104e-05
1.61107e-05
1.61131e-05
1.61089e-05
1.61094e-05
1.61104e-05
1.61107e-05
1.6113e-05
1.61091e-05
1.61096e-05
1.61105e-05
1.61108e-05
1.6113e-05
1.61093e-05
1.61098e-05
1.61107e-05
1.61109e-05
1.61129e-05
1.61095e-05
1.611e-05
1.61108e-05
1.61111e-05
1.61129e-05
1.61097e-05
1.61101e-05
1.6111e-05
1.61112e-05
1.6113e-05
1.61099e-05
1.61103e-05
1.61111e-05
1.61114e-05
1.61131e-05
1.611e-05
1.61105e-05
1.61113e-05
1.61116e-05
1.61132e-05
1.61097e-05
1.61102e-05
1.61107e-05
1.61114e-05
1.61117e-05
1.61133e-05
1.61098e-05
1.61103e-05
1.61108e-05
1.61116e-05
1.61119e-05
1.61134e-05
1.61099e-05
1.61104e-05
1.61109e-05
1.61117e-05
1.6112e-05
1.61135e-05
1.61099e-05
1.61105e-05
1.6111e-05
1.61117e-05
1.61121e-05
1.61135e-05
1.61099e-05
1.61105e-05
1.6111e-05
1.61118e-05
1.61122e-05
1.61136e-05
1.61098e-05
1.61104e-05
1.6111e-05
1.61117e-05
1.61122e-05
1.61135e-05
1.61097e-05
1.61103e-05
1.61108e-05
1.61116e-05
1.61122e-05
1.61135e-05
1.61094e-05
1.611e-05
1.61107e-05
1.61114e-05
1.6112e-05
1.61133e-05
1.61091e-05
1.61097e-05
1.61104e-05
1.61112e-05
1.61118e-05
1.61131e-05
1.6108e-05
1.61086e-05
1.61093e-05
1.611e-05
1.61108e-05
1.61115e-05
1.61127e-05
1.61074e-05
1.61081e-05
1.61088e-05
1.61095e-05
1.61103e-05
1.61111e-05
1.61123e-05
1.61068e-05
1.61074e-05
1.61081e-05
1.61089e-05
1.61097e-05
1.61105e-05
1.61118e-05
1.61059e-05
1.61066e-05
1.61073e-05
1.61081e-05
1.6109e-05
1.61098e-05
1.61111e-05
1.6105e-05
1.61057e-05
1.61065e-05
1.61072e-05
1.61082e-05
1.6109e-05
1.61103e-05
1.61039e-05
1.61047e-05
1.61054e-05
1.61062e-05
1.61072e-05
1.61081e-05
1.61093e-05
1.61026e-05
1.61034e-05
1.61042e-05
1.6105e-05
1.6106e-05
1.6107e-05
1.61083e-05
1.61001e-05
1.61009e-05
1.61017e-05
1.61026e-05
1.61035e-05
1.61045e-05
1.61056e-05
1.61069e-05
1.60979e-05
1.60987e-05
1.60996e-05
1.61005e-05
1.61015e-05
1.61026e-05
1.61038e-05
1.61052e-05
1.60953e-05
1.60962e-05
1.6097e-05
1.6098e-05
1.6099e-05
1.61002e-05
1.61015e-05
1.6103e-05
1.60927e-05
1.60935e-05
1.60943e-05
1.60953e-05
1.60963e-05
1.60974e-05
1.60987e-05
1.61003e-05
1.609e-05
1.60908e-05
1.60916e-05
1.60924e-05
1.60934e-05
1.60945e-05
1.60957e-05
1.60972e-05
1.60874e-05
1.60881e-05
1.60889e-05
1.60897e-05
1.60906e-05
1.60917e-05
1.60928e-05
1.60942e-05
1.60849e-05
1.60857e-05
1.60864e-05
1.60873e-05
1.60882e-05
1.60893e-05
1.60904e-05
1.60917e-05
1.60817e-05
1.60823e-05
1.60831e-05
1.60839e-05
1.60847e-05
1.60857e-05
1.60867e-05
1.60879e-05
1.60892e-05
1.6079e-05
1.60796e-05
1.60803e-05
1.6081e-05
1.60818e-05
1.60827e-05
1.60837e-05
1.60848e-05
1.60862e-05
1.60763e-05
1.60768e-05
1.60774e-05
1.6078e-05
1.60787e-05
1.60794e-05
1.60803e-05
1.60814e-05
1.60826e-05
1.60735e-05
1.6074e-05
1.60745e-05
1.6075e-05
1.60756e-05
1.60762e-05
1.6077e-05
1.60779e-05
1.6079e-05
1.60712e-05
1.60714e-05
1.60717e-05
1.6072e-05
1.60724e-05
1.60728e-05
1.60734e-05
1.60741e-05
1.6075e-05
1.60714e-05
1.60713e-05
1.60712e-05
1.60711e-05
1.60711e-05
1.60711e-05
1.60713e-05
1.60715e-05
1.6072e-05
1.60742e-05
1.6074e-05
1.60739e-05
1.60737e-05
1.60735e-05
1.60732e-05
1.6073e-05
1.60728e-05
1.60727e-05
1.60775e-05
1.60774e-05
1.60772e-05
1.60769e-05
1.60766e-05
1.60763e-05
1.60759e-05
1.60755e-05
1.60749e-05
1.60817e-05
1.60818e-05
1.60818e-05
1.60819e-05
1.6082e-05
1.6082e-05
1.6082e-05
1.6082e-05
1.60819e-05
1.60849e-05
1.60849e-05
1.60849e-05
1.60847e-05
1.60846e-05
1.60843e-05
1.60841e-05
1.60838e-05
1.60837e-05
1.60836e-05
1.60905e-05
1.60914e-05
1.60924e-05
1.60935e-05
1.60945e-05
1.60956e-05
1.60968e-05
1.60979e-05
1.60994e-05
1.61007e-05
1.61e-05
1.61002e-05
1.61003e-05
1.61004e-05
1.61004e-05
1.61004e-05
1.61004e-05
1.61007e-05
1.61012e-05
1.61016e-05
0.17236
0.214962
0.255359
0.299992
0.326392
0.329402
0.307339
0.258839
0.186565
0.10537
0.043855
0.0154512
0.0048162
0.00112052
4.11157e-05
1.01486e-05
1e-05
1e-05
1.00092e-05
1.11293e-05
1.41788e-05
1.60963e-05
1.64859e-05
1.63431e-05
1.61908e-05
1.61259e-05
1.61136e-05
1.6117e-05
1.61201e-05
1.61204e-05
1.61194e-05
1.61183e-05
1.61174e-05
1.61167e-05
1.61162e-05
1.61157e-05
1.61153e-05
1.61149e-05
1.61146e-05
1.61144e-05
1.61142e-05
1.61141e-05
1.6114e-05
1.61139e-05
1.61139e-05
1.61139e-05
1.61139e-05
1.61139e-05
1.61139e-05
1.61139e-05
1.61138e-05
1.61138e-05
1.61137e-05
1.61135e-05
1.61132e-05
1.61128e-05
1.61123e-05
1.61117e-05
1.61109e-05
1.611e-05
1.61089e-05
1.61076e-05
1.6106e-05
1.61038e-05
1.61011e-05
1.6098e-05
1.60949e-05
1.60924e-05
1.60899e-05
1.60868e-05
1.60832e-05
1.60795e-05
1.60755e-05
1.60721e-05
1.60726e-05
1.60748e-05
1.60818e-05
1.60835e-05
1.61016e-05
1.61018e-05
0.213613
0.258504
0.288533
0.31698
0.345755
0.357742
0.345394
0.305908
0.239467
0.15306
0.0689556
0.020835
0.00565556
0.00140581
7.11182e-05
1.04878e-05
1e-05
1e-05
1.00022e-05
1.08373e-05
1.38943e-05
1.60266e-05
1.65117e-05
1.63753e-05
1.6207e-05
1.61309e-05
1.61147e-05
1.61176e-05
1.6121e-05
1.61214e-05
1.61203e-05
1.6119e-05
1.6118e-05
1.61173e-05
1.61167e-05
1.61162e-05
1.61158e-05
1.61154e-05
1.61151e-05
1.61149e-05
1.61147e-05
1.61145e-05
1.61144e-05
1.61143e-05
1.61143e-05
1.61143e-05
1.61143e-05
1.61143e-05
1.61143e-05
1.61142e-05
1.61142e-05
1.61142e-05
1.61141e-05
1.61139e-05
1.61137e-05
1.61133e-05
1.61128e-05
1.61122e-05
1.61114e-05
1.61105e-05
1.61094e-05
1.61082e-05
1.61065e-05
1.61043e-05
1.61016e-05
1.60985e-05
1.60954e-05
1.60928e-05
1.60903e-05
1.60873e-05
1.60836e-05
1.60799e-05
1.60757e-05
1.60723e-05
1.60725e-05
1.60747e-05
1.60817e-05
1.60834e-05
1.61021e-05
0.217799
0.269148
0.303791
0.326773
0.347906
0.366382
0.368541
0.346295
0.296154
0.219077
0.124847
0.0438984
0.00721798
0.000808679
1.00001e-05
1e-05
1e-05
1e-05
1e-05
1.04232e-05
1.32909e-05
1.58757e-05
1.65532e-05
1.64244e-05
1.62313e-05
1.61381e-05
1.61151e-05
1.61168e-05
1.61209e-05
1.61219e-05
1.61209e-05
1.61196e-05
1.61186e-05
1.61178e-05
1.61173e-05
1.61168e-05
1.61163e-05
1.61159e-05
1.61156e-05
1.61154e-05
1.61152e-05
1.6115e-05
1.61149e-05
1.61148e-05
1.61148e-05
1.61148e-05
1.61148e-05
1.61148e-05
1.61147e-05
1.61147e-05
1.61147e-05
1.61147e-05
1.61146e-05
1.61145e-05
1.61142e-05
1.61138e-05
1.61134e-05
1.61127e-05
1.6112e-05
1.61111e-05
1.611e-05
1.61087e-05
1.61071e-05
1.61049e-05
1.61022e-05
1.60991e-05
1.60959e-05
1.60933e-05
1.60908e-05
1.60877e-05
1.6084e-05
1.60802e-05
1.6076e-05
1.60724e-05
1.60725e-05
1.60747e-05
1.60816e-05
1.60834e-05
0.202669
0.258533
0.300414
0.32824
0.346527
0.36271
0.374807
0.371362
0.344266
0.289389
0.207417
0.11058
0.0326155
0.000703178
0.000197601
1e-05
1e-05
1e-05
1.00004e-05
1.01661e-05
1.23405e-05
1.53716e-05
1.65374e-05
1.65159e-05
1.62801e-05
1.61501e-05
1.61152e-05
1.61155e-05
1.61204e-05
1.61223e-05
1.61217e-05
1.61204e-05
1.61193e-05
1.61185e-05
1.61179e-05
1.61174e-05
1.6117e-05
1.61166e-05
1.61163e-05
1.6116e-05
1.61158e-05
1.61156e-05
1.61155e-05
1.61154e-05
1.61154e-05
1.61153e-05
1.61153e-05
1.61153e-05
1.61153e-05
1.61153e-05
1.61153e-05
1.61153e-05
1.61152e-05
1.61151e-05
1.61148e-05
1.61144e-05
1.6114e-05
1.61133e-05
1.61126e-05
1.61117e-05
1.61106e-05
1.61093e-05
1.61077e-05
1.61055e-05
1.61028e-05
1.60996e-05
1.60965e-05
1.60938e-05
1.60913e-05
1.60881e-05
1.60844e-05
1.60805e-05
1.60764e-05
1.60725e-05
1.60724e-05
1.60747e-05
1.60814e-05
0.172726
0.232721
0.28167
0.317725
0.341533
0.35693
0.369874
0.378304
0.372107
0.3432
0.286808
0.203239
0.106131
0.0278213
0.00148263
0.000408168
1e-05
1e-05
1e-05
1.0003e-05
1.09651e-05
1.48185e-05
1.65218e-05
1.65934e-05
1.63592e-05
1.61837e-05
1.61173e-05
1.61121e-05
1.61192e-05
1.61225e-05
1.61224e-05
1.61213e-05
1.61201e-05
1.61193e-05
1.61187e-05
1.61182e-05
1.61177e-05
1.61173e-05
1.61169e-05
1.61167e-05
1.61164e-05
1.61163e-05
1.61161e-05
1.6116e-05
1.6116e-05
1.6116e-05
1.6116e-05
1.61159e-05
1.61159e-05
1.61159e-05
1.61159e-05
1.61159e-05
1.61158e-05
1.61157e-05
1.61154e-05
1.61151e-05
1.61146e-05
1.6114e-05
1.61132e-05
1.61123e-05
1.61112e-05
1.611e-05
1.61084e-05
1.61062e-05
1.61035e-05
1.61002e-05
1.6097e-05
1.60943e-05
1.60918e-05
1.60886e-05
1.60849e-05
1.60809e-05
1.60767e-05
1.60727e-05
1.60724e-05
1.60746e-05
0.130142
0.193682
0.249322
0.294162
0.327081
0.348806
0.362593
0.373402
0.379791
0.372525
0.343478
0.2873
0.204072
0.106418
0.0305269
0.00246412
0.000593397
1e-05
1e-05
1e-05
1.00062e-05
1.1754e-05
1.65195e-05
1.69942e-05
1.64555e-05
1.6217e-05
1.61363e-05
1.61117e-05
1.61155e-05
1.61225e-05
1.61237e-05
1.61223e-05
1.6121e-05
1.61201e-05
1.61195e-05
1.61189e-05
1.61185e-05
1.6118e-05
1.61177e-05
1.61174e-05
1.61171e-05
1.61169e-05
1.61168e-05
1.61167e-05
1.61166e-05
1.61166e-05
1.61166e-05
1.61166e-05
1.61166e-05
1.61165e-05
1.61165e-05
1.61165e-05
1.61165e-05
1.61163e-05
1.61161e-05
1.61157e-05
1.61153e-05
1.61146e-05
1.61139e-05
1.6113e-05
1.61119e-05
1.61106e-05
1.6109e-05
1.61069e-05
1.61041e-05
1.61009e-05
1.60976e-05
1.60949e-05
1.60923e-05
1.60891e-05
1.60854e-05
1.60813e-05
1.60771e-05
1.60729e-05
0.078848
0.142587
0.203887
0.257089
0.299957
0.331577
0.352547
0.365603
0.37497
0.380297
0.373009
0.344886
0.290106
0.207963
0.111172
0.0359995
0.000756943
0.000207947
1e-05
1e-05
1e-05
1.00091e-05
1.24334e-05
1.75902e-05
1.72625e-05
1.62943e-05
1.60978e-05
1.61148e-05
1.61168e-05
1.61174e-05
1.61224e-05
1.61239e-05
1.61224e-05
1.6121e-05
1.61203e-05
1.61198e-05
1.61193e-05
1.61189e-05
1.61185e-05
1.61181e-05
1.61179e-05
1.61177e-05
1.61175e-05
1.61174e-05
1.61173e-05
1.61173e-05
1.61173e-05
1.61173e-05
1.61173e-05
1.61172e-05
1.61172e-05
1.61172e-05
1.61171e-05
1.6117e-05
1.61168e-05
1.61164e-05
1.6116e-05
1.61154e-05
1.61146e-05
1.61137e-05
1.61126e-05
1.61114e-05
1.61097e-05
1.61076e-05
1.61049e-05
1.61016e-05
1.60982e-05
1.60955e-05
1.60929e-05
1.60897e-05
1.60859e-05
1.60817e-05
0.0299825
0.0828657
0.145799
0.206055
0.25849
0.301003
0.332671
0.353879
0.366869
0.375289
0.380194
0.373583
0.347116
0.294496
0.214337
0.119823
0.0403503
0.00136452
0.000416668
1e-05
1e-05
1e-05
1.00077e-05
1.19377e-05
1.80039e-05
1.75892e-05
1.62153e-05
1.60015e-05
1.6112e-05
1.61392e-05
1.6125e-05
1.61212e-05
1.61227e-05
1.61225e-05
1.61214e-05
1.61207e-05
1.61202e-05
1.61197e-05
1.61193e-05
1.61189e-05
1.61187e-05
1.61184e-05
1.61183e-05
1.61181e-05
1.61181e-05
1.6118e-05
1.6118e-05
1.6118e-05
1.6118e-05
1.61179e-05
1.61179e-05
1.61179e-05
1.61179e-05
1.61177e-05
1.61175e-05
1.61172e-05
1.61167e-05
1.61161e-05
1.61153e-05
1.61144e-05
1.61134e-05
1.61121e-05
1.61105e-05
1.61084e-05
1.61056e-05
1.61023e-05
1.60989e-05
1.60961e-05
1.60935e-05
0.00322501
0.0283169
0.0794102
0.141512
0.201855
0.254869
0.298277
0.331042
0.353288
0.366765
0.374618
0.379511
0.374052
0.349785
0.299898
0.22289
0.12984
0.0472546
0.00387586
0.00109489
1e-05
1e-05
1e-05
1.00034e-05
1.08117e-05
1.75724e-05
1.80803e-05
1.62456e-05
1.58594e-05
1.60524e-05
1.61476e-05
1.6137e-05
1.61231e-05
1.61219e-05
1.61224e-05
1.61218e-05
1.61211e-05
1.61206e-05
1.61202e-05
1.61198e-05
1.61195e-05
1.61192e-05
1.6119e-05
1.61189e-05
1.61188e-05
1.61188e-05
1.61187e-05
1.61187e-05
1.61187e-05
1.61187e-05
1.61187e-05
1.61186e-05
1.61186e-05
1.61185e-05
1.61183e-05
1.6118e-05
1.61175e-05
1.61169e-05
1.61161e-05
1.61152e-05
1.61141e-05
1.61129e-05
1.61113e-05
1.61092e-05
1.61064e-05
1.61031e-05
0.000433868
0.00169541
0.0227713
0.0700413
0.130999
0.192197
0.246858
0.292197
0.326949
0.350951
0.365512
0.373525
0.378495
0.374358
0.352604
0.306011
0.232456
0.140707
0.0557635
0.00777383
0.00212145
1e-05
1e-05
1e-05
1.00005e-05
1.00898e-05
1.61422e-05
1.90077e-05
1.67844e-05
1.58932e-05
1.59885e-05
1.61298e-05
1.61417e-05
1.61259e-05
1.61219e-05
1.61224e-05
1.61222e-05
1.61216e-05
1.61211e-05
1.61207e-05
1.61204e-05
1.61201e-05
1.61199e-05
1.61197e-05
1.61196e-05
1.61196e-05
1.61195e-05
1.61195e-05
1.61195e-05
1.61195e-05
1.61194e-05
1.61194e-05
1.61194e-05
1.61193e-05
1.61191e-05
1.61188e-05
1.61183e-05
1.61177e-05
1.6117e-05
1.6116e-05
1.6115e-05
1.61137e-05
1e-05
0.000348838
0.00140024
0.0167139
0.0570283
0.115602
0.17771
0.234744
0.28288
0.320441
0.346961
0.363391
0.372525
0.377535
0.374653
0.355508
0.312494
0.242424
0.152323
0.0655137
0.0128804
0.00345546
1.06029e-05
1e-05
1e-05
1e-05
1e-05
1.29405e-05
1.83388e-05
1.71876e-05
1.60369e-05
1.59711e-05
1.61114e-05
1.6142e-05
1.61284e-05
1.61228e-05
1.6123e-05
1.61228e-05
1.61222e-05
1.61217e-05
1.61213e-05
1.6121e-05
1.61208e-05
1.61206e-05
1.61205e-05
1.61204e-05
1.61203e-05
1.61203e-05
1.61203e-05
1.61203e-05
1.61203e-05
1.61202e-05
1.61202e-05
1.61201e-05
1.61199e-05
1.61196e-05
1.61192e-05
1e-05
1e-05
2.84525e-05
0.00018069
0.0103795
0.0427617
0.0968106
0.159079
0.21873
0.270325
0.311462
0.341287
0.360395
0.371126
0.376374
0.374787
0.358335
0.318977
0.252522
0.164403
0.0761762
0.0191495
0.000825926
0.000266877
1e-05
1e-05
1e-05
1.00076e-05
1.18473e-05
1.76093e-05
1.73904e-05
1.61591e-05
1.5965e-05
1.60952e-05
1.61399e-05
1.61286e-05
1.61224e-05
1.61232e-05
1.61236e-05
1.6123e-05
1.61224e-05
1.6122e-05
1.61217e-05
1.61215e-05
1.61214e-05
1.61213e-05
1.61212e-05
1.61212e-05
1.61212e-05
1.61212e-05
1.00163e-05
1e-05
1e-05
1e-05
0.00122849
0.00476906
0.0288222
0.07633
0.137225
0.199179
0.254615
0.299961
0.333775
0.356189
0.368989
0.374745
0.374534
0.360836
0.325209
0.262518
0.176667
0.0877797
0.02603
0.00283241
0.000706522
1e-05
1e-05
1e-05
1.00043e-05
1.10563e-05
1.70198e-05
1.7673e-05
1.6303e-05
1.59645e-05
1.6088e-05
1.61485e-05
1.61346e-05
1.6123e-05
)
;

boundaryField
{
    inlet
    {
        type            calculated;
        value           nonuniform List<scalar> 
11
(
1.61e-05
1.61002e-05
1.61003e-05
1.61004e-05
1.61004e-05
1.61004e-05
1.61004e-05
1.61007e-05
1.61012e-05
1.61016e-05
1.61018e-05
)
;
    }
    outlet
    {
        type            calculated;
        value           nonuniform List<scalar> 0();
    }
    walls
    {
        type            calculated;
        value           nonuniform List<scalar> 4(0.00177421 0.00157479 0.00135148 0.000616191);
    }
    frontAndBack
    {
        type            empty;
    }
    procBoundary6to2
    {
        type            processor;
        value           nonuniform List<scalar> 
13
(
0.12659
0.149863
0.151244
0.13517
0.104411
0.0649775
0.0258316
0.00298662
0.00081501
1e-05
1e-05
1.00117e-05
1.37559e-05
)
;
    }
    procBoundary6to3
    {
        type            processor;
        value           uniform 1.52911e-05;
    }
    procBoundary6to5
    {
        type            processor;
        value           nonuniform List<scalar> 
86
(
0.0928039
0.159349
0.20345
0.193218
0.124112
0.0380727
0.00168146
0.000394328
1e-05
1e-05
1.00158e-05
1.40171e-05
1.85321e-05
1.66848e-05
1.56429e-05
1.58163e-05
1.61916e-05
1.63117e-05
1.62443e-05
1.61522e-05
1.61039e-05
1.60944e-05
1.61003e-05
1.61068e-05
1.61098e-05
1.61102e-05
1.61096e-05
1.6109e-05
1.61086e-05
1.61084e-05
1.61083e-05
1.61083e-05
1.61083e-05
1.61083e-05
1.61076e-05
1.61077e-05
1.61078e-05
1.6108e-05
1.61082e-05
1.61084e-05
1.61086e-05
1.61088e-05
1.6109e-05
1.61092e-05
1.61094e-05
1.61096e-05
1.61096e-05
1.61093e-05
1.61094e-05
1.61095e-05
1.61095e-05
1.61094e-05
1.61093e-05
1.61091e-05
1.61089e-05
1.61085e-05
1.61085e-05
1.61075e-05
1.61068e-05
1.61061e-05
1.61053e-05
1.61044e-05
1.61032e-05
1.61019e-05
1.61019e-05
1.60993e-05
1.60971e-05
1.60946e-05
1.6092e-05
1.60893e-05
1.60867e-05
1.60842e-05
1.60842e-05
1.6081e-05
1.60784e-05
1.60758e-05
1.60732e-05
1.6071e-05
1.60715e-05
1.60743e-05
1.60776e-05
1.60816e-05
1.60816e-05
1.60846e-05
1.60898e-05
1.60997e-05
)
;
    }
    procBoundary6to7
    {
        type            processor;
        value           nonuniform List<scalar> 
91
(
1.6102e-05
1.6102e-05
1.61027e-05
1.61027e-05
1.60833e-05
1.60833e-05
1.60813e-05
1.60723e-05
1.60813e-05
1.60746e-05
1.60774e-05
1.60723e-05
1.60731e-05
1.60902e-05
1.60864e-05
1.60774e-05
1.60822e-05
1.60996e-05
1.60967e-05
1.60902e-05
1.60941e-05
1.61121e-05
1.611e-05
1.61073e-05
1.60996e-05
1.61039e-05
1.61186e-05
1.61178e-05
1.61169e-05
1.61158e-05
1.61121e-05
1.61146e-05
1.61211e-05
1.61211e-05
1.61211e-05
1.6121e-05
1.61208e-05
1.61205e-05
1.61186e-05
1.61201e-05
1.61227e-05
1.61235e-05
1.61233e-05
1.6123e-05
1.61228e-05
1.61225e-05
1.61223e-05
1.61222e-05
1.61221e-05
1.61221e-05
1.61221e-05
1.61211e-05
1.61221e-05
1.00007e-05
1e-05
1e-05
1e-05
0.000156267
0.000477616
0.016124
0.0552047
0.112674
0.176097
0.23552
0.285628
0.324085
0.350425
0.365823
0.372628
0.373759
0.362762
0.330905
0.272113
0.188984
0.0998938
0.0339036
0.00196437
0.000550742
1e-05
1e-05
1e-05
1.00019e-05
1.04405e-05
1.62633e-05
1.80454e-05
1.64642e-05
1.59079e-05
1.60332e-05
1.61418e-05
1.61227e-05
1.61419e-05
)
;
    }
}


// ************************************************************************* //
