/*--------------------------------*- C++ -*----------------------------------*\
| =========                 |                                                 |
| \\      /  F ield         | OpenFOAM: The Open Source CFD Toolbox           |
|  \\    /   O peration     | Version:  2506                                  |
|   \\  /    A nd           | Website:  www.openfoam.com                      |
|    \\/     M anipulation  |                                                 |
\*---------------------------------------------------------------------------*/
FoamFile
{
    version     2.0;
    format      ascii;
    arch        "LSB;label=32;scalar=64";
    class       volScalarField;
    location    "200";
    object      turbulenceProperties:k;
}
// * * * * * * * * * * * * * * * * * * * * * * * * * * * * * * * * * * * * * //

dimensions      [0 2 -2 0 0 0 0];

internalField   nonuniform List<scalar> 
1340
(
0.0197362
0.0229779
0.0271018
0.0326779
0.0392376
0.04754
0.0580977
0.071121
0.0876224
0.108677
0.135892
0.171935
0.22036
0.287066
0.38196
0.521152
0.734246
1.06649
1.63585
2.56191
4.50908
7.76414
17.376
35.4462
40.6442
39.2585
38.4651
38.969
39.6888
39.7993
39.164
37.8962
35.9552
33.3617
30.0553
0.0168289
0.0144634
0.0117994
0.00950712
0.007336
0.00537393
0.00379095
0.00309834
0.00308154
0.00304646
0.00295888
0.00282331
0.00266722
0.00248286
0.00227544
0.00206999
0.00186819
0.00167638
0.00153841
0.00151141
0.0016485
0.00211276
0.00326719
0.00607098
0.0125428
0.0295621
0.0731733
0.208564
0.592393
1.74896
5.65187
11.2178
17.0034
22.4944
26.5556
27.6801
25.707
22.0556
18.2244
15.0772
12.6611
10.8114
0.00307
0.00302791
0.00294272
0.00281657
0.00264395
0.00241629
0.00207734
0.00206043
0.00201353
0.00194202
0.0018672
0.00178494
0.0017017
0.00162679
0.00156232
0.00151215
0.00147345
0.00145031
0.00144356
0.00145432
0.00146149
0.00141751
0.00121887
0.00116526
0.00014625
3.35227e-07
0.0120426
0.000935359
2.20581e-05
0.0101867
0.137375
0.518155
1.36267
3.13249
6.32813
10.7329
14.9714
17.3398
17.2745
15.6759
13.6605
0.00209384
0.00209152
0.00208608
0.00204914
0.00198309
0.00187151
0.0017522
0.00175583
0.001747
0.00173239
0.00170238
0.00165772
0.00160204
0.00153257
0.00145317
0.00136536
0.00127109
0.00117181
0.00106839
0.000962481
0.000855368
0.00074254
0.000629217
0.000535474
0.000398327
0.000245256
2.09638e-07
9.84699e-05
4.37397e-06
0.00292591
0.0185961
0.0398617
6.40203e-05
0.00144411
0.017674
0.245918
1.21289
3.53911
7.00712
10.1605
11.7449
0.00173347
0.00170513
0.00166067
0.00160708
0.0015397
0.0013155
0.00131312
0.00130279
0.00128442
0.00125609
0.00121768
0.00117125
0.0011175
0.00105819
0.000996931
0.000935712
0.000876966
0.000823268
0.000776334
0.000737159
0.000704682
0.00067051
0.000628465
0.000587036
0.000521687
0.000421602
0.000225936
6.69691e-09
6.81304e-06
0
0
4.25567e-06
0.000433656
0.0180453
0.00501348
0.0173184
0.0534363
0.193361
1.44217
4.12271
0.00131207
0.00130279
0.00128433
0.00125474
0.00121292
0.0010779
0.00108246
0.001082
0.00107808
0.00106748
0.0010503
0.00102729
0.000997561
0.000961726
0.000920751
0.000874996
0.000825535
0.000773546
0.000719949
0.000665712
0.00060975
0.000548749
0.000485951
0.000427193
0.000374372
0.0003366
0.000291946
0.000237341
8.7897e-05
1.17492e-05
5.54356e-06
3.0419e-06
1.04216e-07
0
0.000409937
0.00359365
0.0265806
0.103055
0.0757187
0.116051
0.00106814
0.00105469
0.00103515
0.00100929
0.000872108
0.000875912
0.000876512
0.000874254
0.000867289
0.000855234
0.000838374
0.000816219
0.000788957
0.000757339
0.000721907
0.000683547
0.000643439
0.00060271
0.000562336
0.000523608
0.000488495
0.000455903
0.000422799
0.000388152
0.000354418
0.000326357
0.000305643
0.000260261
0.000182163
0.000101524
4.7533e-05
1.35144e-06
3.62693e-06
7.56324e-07
0
0
0
0.0197477
0.00928967
0.000864933
0.000855252
0.000841189
0.000821769
0.000722753
0.000727659
0.000730578
0.000731737
0.000729745
0.000724284
0.000715564
0.000702954
0.00068645
0.000666404
0.000642789
0.000616065
0.000586755
0.000555341
0.000522384
0.000488567
0.000453552
0.000416343
0.00037857
0.000342645
0.000310547
0.000284748
0.000266377
0.000252595
0.000230804
0.000195167
0.000153454
0.000106818
6.47939e-05
1.24713e-05
3.57843e-06
5.1921e-07
0
0
0.00118459
0.000715351
0.000706445
0.000694516
0.000678614
0.000602909
0.00060764
0.000611106
0.000613256
0.000613184
0.000610572
0.00060546
0.000597289
0.000585991
0.000571672
0.000554287
0.000534081
0.000511409
0.000486636
0.000460301
0.000432835
0.000404841
0.000377394
0.000350627
0.000324473
0.000299301
0.000276076
0.000255731
0.000237899
0.000219397
0.000197497
0.00017381
0.000151175
0.000128562
9.71451e-05
6.82476e-05
1.06699e-05
2.25013e-06
0
0
0.000596403
0.000588879
0.000579166
0.000521188
0.000520837
0.000518674
0.00051422
0.000507407
0.000498226
0.000486525
0.000472421
0.000456083
0.000437689
0.000417534
0.000395907
0.000373259
0.000349571
0.000324959
0.000300418
0.000277212
0.000256268
0.000237802
0.000220529
0.000202095
0.000181465
0.000160292
0.000141818
0.000127735
0.000115952
0.00010531
8.33847e-05
4.21843e-05
3.52869e-06
1.01762e-08
0.00044557
0.000443333
0.000439234
0.00043324
0.000425165
0.000415037
0.000402919
0.000388887
0.000373146
0.000355932
0.000337502
0.000318266
0.000298648
0.000279017
0.000259973
0.000241992
0.000225282
0.000209084
0.000191699
0.00017223
0.000151959
0.000133552
0.000118826
0.000107974
9.96213e-05
9.54154e-05
8.47178e-05
5.98422e-05
2.08771e-07
0.000382187
0.000378581
0.000373325
0.000366366
0.000357708
0.000347375
0.000335463
0.000322107
0.000307504
0.000291958
0.000275567
0.000258669
0.000241982
0.000226066
0.000211075
0.000196438
0.000180874
0.000163581
0.000145403
0.000128361
0.000113921
0.000102338
9.27444e-05
8.62886e-05
8.24099e-05
8.28276e-05
5.66164e-05
0.000331441
0.000328116
0.000323421
0.000317274
0.00030966
0.000300634
0.000290272
0.00027869
0.000266139
0.000252806
0.000238934
0.000224955
0.000211283
0.000198023
0.000184812
0.000170794
0.000155388
0.000139195
0.000123795
0.000110422
9.92317e-05
8.9682e-05
8.16368e-05
7.56785e-05
7.31457e-05
7.8965e-05
0.00028906
0.000286026
0.000281815
0.000276353
0.000269659
0.000261762
0.000252724
0.000242734
0.000231921
0.000220421
0.000208559
0.00019675
0.000185087
0.000173318
0.00016083
0.000147188
0.000132829
0.000118996
0.000106775
9.63556e-05
8.74013e-05
7.9581e-05
7.30008e-05
6.77896e-05
6.65986e-05
0.000255076
0.000253262
0.000250482
0.000246644
0.000241733
0.000235767
0.00022878
0.000220867
0.000212178
0.0002028
0.000192902
0.000182845
0.00017271
0.000162319
0.000151261
0.000139218
0.000126509
0.000114104
0.00010294
9.32813e-05
8.49148e-05
7.76568e-05
7.13374e-05
6.64939e-05
6.00925e-05
0.000224561
0.000222827
0.000220233
0.00021673
0.00021231
0.000206983
0.000200792
0.000193876
0.000186263
0.000178047
0.000169518
0.000160771
0.000151689
0.000141974
0.000131402
0.000120207
0.000109143
9.89962e-05
9.00718e-05
8.2254e-05
7.54657e-05
6.95335e-05
6.50622e-05
5.97805e-05
0.00019839
0.00019673
0.000194314
0.000191101
0.000187094
0.000182308
0.000176848
0.000170728
0.000163986
0.000156825
0.000149347
0.000141483
0.000133017
0.000123785
0.000113968
0.000104148
9.49779e-05
8.67753e-05
7.95041e-05
7.31246e-05
6.75867e-05
6.30623e-05
5.97858e-05
0.000176795
0.000175821
0.000174234
0.000171964
0.000169013
0.00016537
0.000161107
0.000156235
0.000150755
0.000144787
0.000138449
0.000131702
0.000124382
0.00011637
0.000107804
9.91333e-05
9.08965e-05
8.34026e-05
7.6681e-05
7.07073e-05
6.55337e-05
6.10422e-05
5.83692e-05
0.000157203
0.000156238
0.000154709
0.000152589
0.000149871
0.000146584
0.000142748
0.000138339
0.000133412
0.000128093
0.000122359
0.000116082
0.000109171
0.000101734
9.41194e-05
8.67655e-05
7.99616e-05
7.37825e-05
6.82287e-05
6.33764e-05
5.91256e-05
5.61965e-05
0.000140639
0.000140133
0.000139175
0.000137706
0.000135722
0.000133223
0.00013024
0.000126736
0.000122714
0.00011829
0.00011346
0.000108121
0.000102201
9.57817e-05
8.9132e-05
8.26062e-05
7.64673e-05
7.0817e-05
6.56869e-05
6.11352e-05
5.71962e-05
5.39815e-05
0.000125709
0.000125174
0.000124216
0.000122812
0.000120956
0.000118679
0.000115929
0.000112685
0.000109042
0.000105012
0.000100509
9.54735e-05
8.99657e-05
8.41921e-05
7.84375e-05
7.29346e-05
6.77976e-05
6.30843e-05
5.88339e-05
5.51729e-05
5.19162e-05
0.000112796
0.000112572
0.000112012
0.000111067
0.000109728
0.000108019
0.00010589
0.000103308
0.000100343
9.70107e-05
9.32492e-05
8.8999e-05
8.43033e-05
7.93213e-05
7.42793e-05
6.93779e-05
6.47366e-05
6.04274e-05
5.64869e-05
5.30586e-05
4.99331e-05
0.000101242
0.000100974
0.000100388
9.9459e-05
9.82059e-05
9.65891e-05
9.45678e-05
9.21823e-05
8.94576e-05
8.63443e-05
8.27857e-05
7.88094e-05
7.45383e-05
7.01498e-05
6.58139e-05
6.16463e-05
5.7726e-05
5.40952e-05
5.08794e-05
4.79416e-05
9.10467e-05
9.09987e-05
9.06884e-05
9.00845e-05
8.91977e-05
8.79981e-05
8.64457e-05
8.45521e-05
8.23501e-05
7.97971e-05
7.68413e-05
7.34985e-05
6.98616e-05
6.60669e-05
6.22576e-05
5.85394e-05
5.49936e-05
5.16653e-05
4.8659e-05
4.59016e-05
8.1877e-05
8.19899e-05
8.18928e-05
8.15437e-05
8.09464e-05
8.00869e-05
7.89187e-05
7.74373e-05
7.56781e-05
7.36088e-05
7.11769e-05
6.83883e-05
6.53121e-05
6.20532e-05
5.87273e-05
5.54312e-05
5.22418e-05
4.92056e-05
4.64112e-05
4.38169e-05
7.38618e-05
7.39177e-05
7.3767e-05
7.33978e-05
7.28083e-05
7.1956e-05
7.08197e-05
6.94368e-05
6.77786e-05
6.57961e-05
6.34876e-05
6.0904e-05
5.81251e-05
5.52415e-05
5.23373e-05
4.94841e-05
4.67287e-05
4.41411e-05
4.17033e-05
6.65278e-05
6.66943e-05
6.66921e-05
6.65016e-05
6.6125e-05
6.5526e-05
6.46768e-05
6.36071e-05
6.22958e-05
6.06968e-05
5.8803e-05
5.665e-05
5.42969e-05
5.18146e-05
4.92724e-05
4.67341e-05
4.42453e-05
4.18633e-05
3.95756e-05
5.99098e-05
6.01532e-05
6.02652e-05
6.02129e-05
6.00046e-05
5.96072e-05
5.89924e-05
5.81806e-05
5.71585e-05
5.58842e-05
5.43442e-05
5.25637e-05
5.05849e-05
4.84615e-05
4.62506e-05
4.40063e-05
4.17669e-05
3.95859e-05
3.74478e-05
5.42407e-05
5.44295e-05
5.4484e-05
5.44045e-05
5.41661e-05
5.37399e-05
5.31419e-05
5.23591e-05
5.1355e-05
5.0115e-05
4.86546e-05
4.70028e-05
4.51984e-05
4.32866e-05
4.13128e-05
3.93097e-05
3.7318e-05
3.53313e-05
4.88948e-05
4.91357e-05
4.92675e-05
4.92851e-05
4.91694e-05
4.8894e-05
4.84683e-05
4.78821e-05
4.71034e-05
4.61164e-05
4.49288e-05
4.35599e-05
4.20372e-05
4.03944e-05
3.8667e-05
3.68833e-05
3.50746e-05
3.32345e-05
4.40615e-05
4.4335e-05
4.45245e-05
4.46146e-05
4.45928e-05
4.44363e-05
4.41485e-05
4.37208e-05
4.31266e-05
4.23502e-05
4.13926e-05
4.02662e-05
3.89893e-05
3.75856e-05
3.60825e-05
3.45007e-05
3.28652e-05
3.11686e-05
3.99894e-05
4.02147e-05
4.03583e-05
4.04069e-05
4.03414e-05
4.0162e-05
3.98615e-05
3.94178e-05
3.88146e-05
3.80502e-05
3.71302e-05
3.60656e-05
3.48723e-05
3.357e-05
3.21743e-05
3.07011e-05
2.91444e-05
3.60571e-05
3.6302e-05
3.6481e-05
3.65803e-05
3.65836e-05
3.64879e-05
3.62882e-05
3.5965e-05
3.55039e-05
3.49e-05
3.41545e-05
3.32727e-05
3.2264e-05
3.11411e-05
2.9914e-05
2.85933e-05
2.7171e-05
3.24961e-05
3.27505e-05
3.29543e-05
3.30892e-05
3.31429e-05
3.31108e-05
3.29895e-05
3.27625e-05
3.24158e-05
3.19432e-05
3.13433e-05
3.0617e-05
2.97681e-05
2.8804e-05
2.77297e-05
2.65506e-05
2.95348e-05
2.97492e-05
2.99085e-05
2.99982e-05
3.00134e-05
2.99519e-05
2.97998e-05
2.95441e-05
2.91784e-05
2.86989e-05
2.81035e-05
2.7392e-05
2.6567e-05
2.563e-05
2.45814e-05
2.66222e-05
2.68393e-05
2.70124e-05
2.71264e-05
2.71753e-05
2.71584e-05
2.70639e-05
2.68806e-05
2.66014e-05
2.62209e-05
2.5735e-05
2.51406e-05
2.4437e-05
2.36222e-05
2.26932e-05
2.39836e-05
2.41997e-05
2.4379e-05
2.45074e-05
2.45797e-05
2.45953e-05
2.45444e-05
2.44172e-05
2.42067e-05
2.39069e-05
2.35118e-05
2.30169e-05
2.24185e-05
2.17121e-05
2.08921e-05
2.15969e-05
2.18076e-05
2.19869e-05
2.21223e-05
2.22095e-05
2.22477e-05
2.2229e-05
2.21448e-05
2.19885e-05
2.17535e-05
2.14334e-05
2.10222e-05
2.05143e-05
1.99036e-05
1.91826e-05
1.94399e-05
1.96402e-05
1.98165e-05
1.99537e-05
2.00493e-05
2.01026e-05
2.0107e-05
2.0055e-05
1.99406e-05
1.97573e-05
1.94984e-05
1.91571e-05
1.87267e-05
1.81997e-05
1.75678e-05
1.76808e-05
1.78493e-05
1.79851e-05
1.80843e-05
1.81465e-05
1.81664e-05
1.81381e-05
1.8056e-05
1.79135e-05
1.77041e-05
1.74208e-05
1.70563e-05
1.66024e-05
1.60501e-05
1.59102e-05
1.60682e-05
1.61992e-05
1.6298e-05
1.63645e-05
1.63948e-05
1.63836e-05
1.63259e-05
1.62156e-05
1.60462e-05
1.58109e-05
1.55021e-05
1.51117e-05
1.46303e-05
1.43089e-05
1.44567e-05
1.45811e-05
1.46769e-05
1.47444e-05
1.47807e-05
1.47812e-05
1.47415e-05
1.46563e-05
1.45192e-05
1.43235e-05
1.4062e-05
1.37265e-05
1.3308e-05
1.28638e-05
1.30005e-05
1.31166e-05
1.32074e-05
1.32734e-05
1.33125e-05
1.33209e-05
1.32944e-05
1.32284e-05
1.31171e-05
1.2954e-05
1.27324e-05
1.24444e-05
1.20814e-05
1.15606e-05
1.16849e-05
1.17928e-05
1.18776e-05
1.19404e-05
1.19801e-05
1.19932e-05
1.19761e-05
1.19247e-05
1.18338e-05
1.16975e-05
1.15094e-05
1.12624e-05
1.09481e-05
1.04992e-05
1.05976e-05
1.06759e-05
1.07347e-05
1.07732e-05
1.07887e-05
1.07781e-05
1.07377e-05
1.0663e-05
1.05485e-05
1.03886e-05
1.01766e-05
9.90505e-06
9.43116e-06
9.51959e-06
9.5911e-06
9.64513e-06
9.68135e-06
9.69769e-06
9.6915e-06
9.65948e-06
9.59756e-06
9.50102e-06
9.36481e-06
9.18285e-06
8.46867e-06
8.54822e-06
8.61275e-06
8.66177e-06
8.69511e-06
8.7112e-06
8.70781e-06
8.68204e-06
8.6303e-06
8.54857e-06
8.43223e-06
8.276e-06
7.60268e-06
7.67379e-06
7.73148e-06
7.77531e-06
7.80543e-06
7.82063e-06
7.81893e-06
7.79777e-06
7.75414e-06
7.68458e-06
7.58501e-06
7.4508e-06
6.82423e-06
6.88699e-06
6.93858e-06
6.9773e-06
7.00405e-06
7.01786e-06
7.01701e-06
6.99929e-06
6.96214e-06
6.9026e-06
6.81717e-06
6.7018e-06
6.18049e-06
6.22584e-06
6.25995e-06
6.28338e-06
6.29553e-06
6.29494e-06
6.27976e-06
6.24779e-06
6.19649e-06
6.12294e-06
6.02366e-06
5.54645e-06
5.58582e-06
5.61561e-06
5.63595e-06
5.64638e-06
5.64572e-06
5.63243e-06
5.60464e-06
5.56022e-06
5.49665e-06
5.41107e-06
4.97713e-06
5.01143e-06
5.03726e-06
5.0547e-06
5.06344e-06
5.06253e-06
5.05068e-06
5.02634e-06
4.98768e-06
4.93264e-06
4.85873e-06
4.46673e-06
4.49645e-06
4.5186e-06
4.53336e-06
4.54049e-06
4.53923e-06
4.52849e-06
4.50699e-06
4.47321e-06
4.4254e-06
4.36149e-06
4.00934e-06
4.03494e-06
4.05383e-06
4.0662e-06
4.07185e-06
4.0702e-06
4.06033e-06
4.04117e-06
4.01149e-06
3.96982e-06
3.91445e-06
3.59969e-06
3.6217e-06
3.6377e-06
3.6479e-06
3.65219e-06
3.65014e-06
3.64098e-06
3.6238e-06
3.5976e-06
3.56116e-06
3.23298e-06
3.25168e-06
3.26525e-06
3.27352e-06
3.27663e-06
3.2742e-06
3.26561e-06
3.25012e-06
3.22687e-06
3.19492e-06
2.92086e-06
2.93216e-06
2.9388e-06
2.94088e-06
2.9381e-06
2.92997e-06
2.91588e-06
2.89515e-06
2.86701e-06
2.62528e-06
2.63451e-06
2.63975e-06
2.64095e-06
2.63788e-06
2.63013e-06
2.61723e-06
2.59865e-06
2.57374e-06
2.3608e-06
2.36838e-06
2.37243e-06
2.37291e-06
2.36961e-06
2.36224e-06
2.35042e-06
2.3337e-06
2.31157e-06
2.12383e-06
2.13001e-06
2.13306e-06
2.13295e-06
2.12953e-06
2.12256e-06
2.11173e-06
2.09669e-06
2.07703e-06
1.91071e-06
1.91571e-06
1.91794e-06
1.9174e-06
1.91397e-06
1.90745e-06
1.8976e-06
1.88414e-06
1.86671e-06
1.71852e-06
1.72249e-06
1.72404e-06
1.72318e-06
1.71979e-06
1.71373e-06
1.7048e-06
1.69279e-06
1.5456e-06
1.54869e-06
1.54963e-06
1.54843e-06
1.54504e-06
1.53934e-06
1.53118e-06
1.5204e-06
1.39092e-06
1.39317e-06
1.39356e-06
1.39201e-06
1.38852e-06
1.38303e-06
1.37543e-06
1.3656e-06
1.25504e-06
1.25488e-06
1.25296e-06
1.24932e-06
1.24392e-06
1.23667e-06
1.22752e-06
1.13215e-06
1.13144e-06
1.12917e-06
1.12535e-06
1.11994e-06
1.11287e-06
1.1042e-06
1.02394e-06
1.02314e-06
1.02093e-06
1.01749e-06
1.01244e-06
1.00581e-06
9.98068e-07
9.38449e-07
9.37405e-07
9.34992e-07
9.31764e-07
9.26797e-07
9.20213e-07
9.1325e-07
8.69232e-07
8.67774e-07
8.6482e-07
8.61145e-07
8.55658e-07
8.48369e-07
8.04049e-07
8.02832e-07
8.00095e-07
7.966e-07
7.91373e-07
7.84232e-07
7.4002e-07
7.38294e-07
7.34988e-07
7.309e-07
7.25344e-07
7.17609e-07
6.80563e-07
6.79626e-07
6.77198e-07
6.73822e-07
6.69228e-07
6.62933e-07
6.16279e-07
6.13178e-07
6.08541e-07
6.03285e-07
5.97219e-07
5.87985e-07
5.74825e-07
5.75029e-07
5.73708e-07
5.70486e-07
5.66757e-07
5.63311e-07
4.88685e-07
4.82124e-07
4.76629e-07
4.70119e-07
4.5602e-07
5.17195e-07
5.20021e-07
5.169e-07
5.15964e-07
5.25484e-07
4.07081e-07
4.07879e-07
4.13902e-07
4.11358e-07
3.9509e-07
6.17033e-07
6.34224e-07
6.32565e-07
6.39935e-07
6.73461e-07
6.90557e-07
7.10802e-07
7.39686e-07
9.87356e-07
1.04493e-06
1.00747e-06
9.56482e-07
)
;

boundaryField
{
    inlet
    {
        type            calculated;
        value           nonuniform List<scalar> 4(4.35632e-06 4.63517e-06 4.69429e-06 4.74883e-06);
    }
    outlet
    {
        type            calculated;
        value           nonuniform List<scalar> 0();
    }
    walls
    {
        type            calculated;
        value           uniform 0;
    }
    frontAndBack
    {
        type            empty;
    }
    procBoundary5to0
    {
        type            processor;
        value           nonuniform List<scalar> 4(0.000508253 0.000502287 0.000495728 0.000487567);
    }
    procBoundary5to1
    {
        type            processor;
        value           nonuniform List<scalar> 
13
(
0.00285184
0.00215062
0.00215062
0.00171843
0.00145118
0.00145118
0.00115371
0.000975974
0.000975974
0.000796499
0.000658652
0.000566206
0.000566206
)
;
    }
    procBoundary5to4
    {
        type            processor;
        value           nonuniform List<scalar> 
95
(
0.000512893
0.000516786
0.000519791
0.000519791
0.000445212
0.000446093
0.000446093
0.000384982
0.000384305
0.000384305
0.000333423
0.000333423
0.000290969
0.000290969
0.000255967
0.000225493
0.000225493
0.000199344
0.000199344
0.000177169
0.000157663
0.000157663
0.000140706
0.000125869
0.000125869
0.00011269
0.000101228
0.000101228
9.08559e-05
8.15607e-05
7.36318e-05
7.36318e-05
6.62124e-05
5.95379e-05
5.39437e-05
5.39437e-05
4.85596e-05
4.37066e-05
3.96952e-05
3.96952e-05
3.57501e-05
3.21879e-05
2.92771e-05
2.92771e-05
2.63652e-05
2.37344e-05
2.13587e-05
1.9214e-05
1.74916e-05
1.74916e-05
1.57316e-05
1.41437e-05
1.27119e-05
1.14215e-05
1.03864e-05
1.03864e-05
9.32831e-06
8.37631e-06
7.5201e-06
6.75053e-06
6.12514e-06
6.12514e-06
5.49734e-06
4.93412e-06
4.42915e-06
3.97661e-06
3.57125e-06
3.20828e-06
2.90498e-06
2.90498e-06
2.61166e-06
2.3493e-06
2.11416e-06
1.9026e-06
1.71178e-06
1.54003e-06
1.38639e-06
1.25354e-06
1.25354e-06
1.13126e-06
1.02329e-06
9.38036e-07
8.69123e-07
8.03742e-07
7.40159e-07
6.80051e-07
6.18041e-07
5.72867e-07
4.93987e-07
4.93987e-07
5.13083e-07
4.04589e-07
6.01811e-07
6.4799e-07
9.85436e-07
)
;
    }
    procBoundary5to6
    {
        type            processor;
        value           nonuniform List<scalar> 
86
(
26.1019
9.35105
11.7224
11.7854
7.15278
1.35083
0.113153
0.0374576
0
0
1.59112e-10
3.00439e-06
4.61342e-05
8.24398e-05
7.28111e-05
5.88247e-05
5.2965e-05
5.22228e-05
5.23739e-05
5.16096e-05
4.99309e-05
4.78475e-05
4.56999e-05
4.35942e-05
4.15289e-05
3.94754e-05
3.74263e-05
3.53867e-05
3.33617e-05
3.13653e-05
2.94077e-05
2.74937e-05
2.56341e-05
2.52575e-05
2.52575e-05
2.34116e-05
2.16395e-05
1.99471e-05
1.83393e-05
1.68185e-05
1.53869e-05
1.40458e-05
1.27947e-05
1.16324e-05
1.05567e-05
9.56477e-06
8.94846e-06
8.94846e-06
8.07397e-06
7.2768e-06
6.55205e-06
5.89478e-06
5.30016e-06
4.76318e-06
4.27915e-06
3.84346e-06
3.51309e-06
3.51309e-06
3.15309e-06
2.83048e-06
2.54173e-06
2.28342e-06
2.05224e-06
1.84495e-06
1.67741e-06
1.67741e-06
1.50679e-06
1.35339e-06
1.21638e-06
1.09383e-06
9.88762e-07
9.04987e-07
8.41088e-07
8.41088e-07
7.76929e-07
7.09835e-07
6.55636e-07
5.79821e-07
5.55377e-07
4.49506e-07
5.15352e-07
4.01232e-07
6.92875e-07
6.92875e-07
7.42856e-07
1.25892e-06
)
;
    }
}


// ************************************************************************* //
