/*--------------------------------*- C++ -*----------------------------------*\
| =========                 |                                                 |
| \\      /  F ield         | OpenFOAM: The Open Source CFD Toolbox           |
|  \\    /   O peration     | Version:  2506                                  |
|   \\  /    A nd           | Website:  www.openfoam.com                      |
|    \\/     M anipulation  |                                                 |
\*---------------------------------------------------------------------------*/
FoamFile
{
    version     2.0;
    format      ascii;
    arch        "LSB;label=32;scalar=64";
    class       volSymmTensorField;
    location    "200";
    object      turbulenceProperties:devReff;
}
// * * * * * * * * * * * * * * * * * * * * * * * * * * * * * * * * * * * * * //

dimensions      [0 2 -2 0 0 0 0];

internalField   nonuniform List<symmTensor> 
1340
(
(0.00162288 0.00419555 -1.00775e-21 -0.0017575 -2.21263e-20 0.000134622)
(0.00236391 0.00480891 3.61183e-22 -0.00246045 1.3874e-19 9.6541e-05)
(0.00356975 0.00538146 -2.81823e-20 -0.00376426 -4.29073e-19 0.000194518)
(0.00518309 0.00612572 1.18395e-19 -0.00542578 8.66455e-19 0.000242687)
(0.00733473 0.00677659 -2.22954e-19 -0.00759992 -8.22065e-19 0.000265188)
(0.0102785 0.00716199 -1.70836e-19 -0.0106651 -4.45577e-19 0.000386573)
(0.0141311 0.00727602 3.2365e-19 -0.0146116 1.23706e-18 0.000480487)
(0.0189709 0.00676968 -8.23598e-19 -0.0195469 -2.23431e-18 0.000576035)
(0.0249655 0.0052812 -2.04235e-19 -0.0257042 5.95779e-19 0.000738631)
(0.0322256 0.00256626 6.0877e-19 -0.0331168 1.24636e-18 0.000891165)
(0.0409176 -0.00189506 1.56436e-18 -0.0419987 5.72874e-19 0.00108105)
(0.0514398 -0.00867138 -3.5186e-18 -0.0527465 -3.26497e-18 0.0013067)
(0.0643133 -0.0186691 6.65809e-19 -0.065893 8.60292e-19 0.0015797)
(0.0804402 -0.0334606 2.66243e-18 -0.0823791 1.26223e-18 0.00193887)
(0.101309 -0.0556587 -4.04208e-18 -0.103754 -6.3046e-18 0.00244511)
(0.129195 -0.0895962 -4.33313e-18 -0.132343 -2.55326e-18 0.003148)
(0.167843 -0.143532 1.89599e-17 -0.172107 1.75477e-17 0.00426466)
(0.222042 -0.230538 1.78381e-17 -0.227882 3.3342e-17 0.00584001)
(0.305617 -0.383223 -3.48297e-17 -0.314125 -5.36969e-17 0.00850795)
(0.423491 -0.639643 -1.5923e-18 -0.435668 1.44154e-17 0.0121772)
(0.647138 -1.1846 -2.67849e-17 -0.66622 5.01238e-17 0.0190825)
(0.94396 -2.12508 -8.96793e-18 -0.970611 4.03364e-17 0.0266518)
(1.68523 -4.92521 -1.41113e-16 -1.73619 -5.84355e-16 0.0509605)
(2.42908 -10.3431 3.18722e-16 -2.51592 5.2813e-16 0.0868472)
(1.59546 -12.0863 3.92553e-17 -1.64343 -6.94922e-16 0.0479751)
(0.571141 -11.7651 3.78657e-16 -0.564049 5.62923e-16 -0.00709129)
(-0.13482 -11.5397 -7.83708e-17 0.162068 -7.7526e-17 -0.0272484)
(-0.678238 -11.6714 2.73884e-16 0.701441 2.26474e-16 -0.0232029)
(-1.168 -11.8496 7.41569e-16 1.18325 1.19136e-15 -0.0152407)
(-1.61748 -11.8303 4.26532e-16 1.62511 1.97375e-15 -0.00763492)
(-2.01205 -11.5769 -1.43234e-15 2.01021 -1.91025e-15 0.00183913)
(-2.33202 -11.1293 -4.9235e-16 2.32158 -7.18157e-16 0.0104454)
(-2.55533 -10.4824 1.94489e-18 2.54012 -4.394e-15 0.0152061)
(-2.66943 -9.64918 -2.61494e-15 2.65354 -7.23526e-15 0.0158964)
(-2.65562 -8.61987 1.0042e-15 2.64091 9.16992e-16 0.0147117)
(0.000963432 0.00365943 2.57805e-21 -0.00101458 5.482e-20 5.11505e-05)
(0.000551053 0.00315112 -3.6826e-21 -0.0006397 -4.56928e-22 8.86466e-05)
(0.000186028 0.00257392 -2.07593e-20 -0.00023233 -1.34818e-19 4.63026e-05)
(-5.65474e-05 0.00206021 6.45892e-21 2.29298e-05 9.17988e-20 3.36176e-05)
(-0.00016663 0.00157463 3.54261e-21 0.000148703 -1.69021e-20 1.79264e-05)
(-0.000159447 0.00115097 -3.52045e-20 0.000160503 1.13777e-19 -1.05545e-06)
(-7.16234e-05 0.000824125 -2.01107e-19 9.65457e-05 1.61793e-19 -2.49223e-05)
(0.000578647 -0.000457654 1.29456e-22 -0.000519793 3.9612e-21 -5.88547e-05)
(0.000492279 -0.000544575 2.8857e-20 -0.000425696 7.00509e-20 -6.65829e-05)
(0.000371606 -0.000620318 -2.66784e-20 -0.000291861 -4.71107e-20 -7.97447e-05)
(0.000251044 -0.000649876 -1.82609e-20 -0.000159709 -5.15915e-20 -9.13347e-05)
(0.000133893 -0.000643225 1.21882e-19 -3.38912e-05 2.36258e-19 -0.000100002)
(2.40016e-05 -0.00060901 4.7485e-20 8.47323e-05 7.3683e-20 -0.000108734)
(-5.94615e-05 -0.000550305 2.25006e-19 0.000175789 2.06829e-19 -0.000116328)
(-0.000115939 -0.00047823 -1.16049e-19 0.000237214 -2.24169e-20 -0.000121275)
(-0.000148793 -0.000404214 1.64248e-19 0.00027354 1.13938e-19 -0.000124747)
(-0.000157739 -0.000335563 -5.80107e-21 0.000284456 2.42285e-22 -0.000126718)
(-0.000150128 -0.000277806 -2.22391e-19 0.000276605 -1.89972e-19 -0.000126477)
(-0.00013286 -0.000238734 2.85999e-19 0.00025859 3.55758e-19 -0.000125729)
(-0.000111191 -0.00022377 1.75105e-19 0.000240091 8.79676e-20 -0.0001289)
(-8.70488e-05 -0.000241301 -3.63966e-20 0.000229974 1.95751e-20 -0.000142925)
(-5.1377e-05 -0.000333384 -2.20452e-19 0.000239484 3.64124e-20 -0.000188107)
(5.04702e-05 -0.000630077 4.61372e-19 0.000260035 5.27317e-19 -0.000310505)
(0.00041228 -0.00147269 8.20013e-19 0.000165188 -9.02286e-19 -0.000577468)
(0.00139842 -0.00340258 -4.31227e-18 -0.000416289 -5.56439e-18 -0.000982135)
(0.00388858 -0.00819638 5.06458e-19 -0.00226947 7.17017e-18 -0.00161911)
(0.00985101 -0.020232 7.22031e-18 -0.00729269 -2.03855e-18 -0.00255832)
(0.0267719 -0.0576965 1.46367e-17 -0.0225096 5.86399e-18 -0.00426228)
(0.0691187 -0.165443 -2.3158e-17 -0.0628286 -2.15454e-17 -0.00629012)
(0.175313 -0.496616 7.04832e-17 -0.167373 1.70258e-16 -0.00794002)
(0.456665 -1.63447 1.98466e-19 -0.451942 -1.40166e-16 -0.00472373)
(0.68894 -3.29289 -2.58973e-16 -0.7076 1.53131e-16 0.0186601)
(0.735453 -5.0445 -9.82247e-17 -0.783691 -6.05841e-16 0.0482387)
(0.571313 -6.72121 2.02048e-19 -0.637863 7.06195e-17 0.0665494)
(0.206768 -7.96295 -2.84674e-16 -0.277798 -4.15618e-16 0.0710299)
(-0.264662 -8.30081 -4.86811e-16 0.202047 -2.69276e-15 0.062615)
(-0.668909 -7.68501 -1.69444e-16 0.628832 -3.39549e-15 0.0400771)
(-0.898799 -6.55637 5.14409e-16 0.889374 4.73404e-15 0.00942486)
(-0.972947 -5.37882 -9.36625e-16 0.989566 -5.81507e-17 -0.0166181)
(-0.963292 -4.41625 -7.16363e-15 0.992619 1.32495e-15 -0.0293268)
(-0.912545 -3.68327 8.66981e-15 0.942764 1.54609e-14 -0.0302192)
(-0.848091 -3.12718 -1.47068e-15 0.872918 -8.10233e-16 -0.0248272)
(0.000644385 -0.000342186 9.36168e-21 -0.000594677 2.28293e-20 -4.97081e-05)
(0.000682647 -0.000221881 -1.27104e-20 -0.000636266 -9.6185e-20 -4.63815e-05)
(0.000689435 -7.39387e-05 -1.87462e-20 -0.000652969 -1.0948e-19 -3.64651e-05)
(0.000651536 8.8658e-05 -7.19275e-21 -0.000625529 1.654e-19 -2.60072e-05)
(0.000561949 0.000236774 2.32511e-21 -0.000548402 4.23794e-20 -1.35465e-05)
(0.000425958 0.000349608 3.8531e-20 -0.000422745 -1.47981e-19 -3.21351e-06)
(0.000334148 -0.000310485 1.75055e-21 -0.000360181 2.46227e-21 2.60333e-05)
(0.000259274 -0.000369978 -2.73484e-20 -0.000290758 -6.58946e-20 3.14835e-05)
(0.000162252 -0.000411428 -5.96404e-21 -0.00019896 -3.15788e-21 3.67082e-05)
(5.39342e-05 -0.000424543 2.28767e-20 -9.83382e-05 4.90093e-20 4.44041e-05)
(-5.21992e-05 -0.000411652 -7.1908e-20 1.80536e-06 -1.45736e-19 5.03938e-05)
(-0.000152296 -0.000371498 -8.17609e-20 9.59196e-05 -1.33843e-19 5.6376e-05)
(-0.000236312 -0.000308025 -1.65903e-19 0.00017332 -2.44857e-19 6.29919e-05)
(-0.000297341 -0.000230755 -1.32712e-20 0.000229 -2.03049e-21 6.83413e-05)
(-0.000335181 -0.000145868 -7.31253e-20 0.000262244 -1.73222e-19 7.29371e-05)
(-0.000350496 -6.1932e-05 3.04784e-19 0.000273501 3.4639e-19 7.69954e-05)
(-0.000346382 1.54356e-05 -4.97875e-20 0.000266743 6.78239e-20 7.96389e-05)
(-0.00032907 8.25809e-05 3.4236e-20 0.000248399 2.0908e-20 8.06709e-05)
(-0.000304967 0.000137799 -2.32727e-19 0.000225384 -2.95982e-19 7.95826e-05)
(-0.000278778 0.000183108 1.49757e-19 0.000201728 -1.38937e-20 7.70493e-05)
(-0.000251728 0.000217354 4.34731e-20 0.000179168 1.35089e-19 7.25594e-05)
(-0.00022115 0.000235991 5.3239e-20 0.000156129 2.54622e-20 6.50209e-05)
(-0.000179068 0.000228464 -2.42662e-19 0.000126488 -1.41276e-19 5.25804e-05)
(-0.000157082 0.000232708 2.17299e-19 0.000112391 1.62183e-19 4.46903e-05)
(-9.69371e-05 0.000162602 4.85711e-20 7.12126e-05 4.72465e-22 2.57246e-05)
(-8.36838e-05 0.000154196 -1.96152e-19 6.4015e-05 -2.92765e-20 1.96689e-05)
(-0.00168939 0.00333934 4.95133e-18 0.00135981 -1.95864e-18 0.000329575)
(-8.84162e-05 0.000183719 9.35288e-21 7.59109e-05 1.6375e-19 1.25054e-05)
(-1.20005e-05 2.15991e-05 3.99411e-20 1.20527e-05 -5.95217e-20 -5.22085e-08)
(0.000825691 -0.00301945 -1.81097e-18 -0.000650096 -1.93825e-18 -0.000175595)
(0.00930928 -0.040418 3.90546e-18 -0.00782643 1.32046e-17 -0.00148285)
(0.0260033 -0.153695 -2.488e-17 -0.0223904 6.42032e-18 -0.00361292)
(0.0447115 -0.406853 1.3213e-17 -0.0391606 9.55877e-19 -0.00555085)
(0.0546195 -0.938634 -1.22708e-17 -0.047714 6.80881e-17 -0.00690543)
(0.0233237 -1.89867 -4.01998e-16 -0.0165016 2.21691e-16 -0.00682208)
(-0.102424 -3.21854 1.94116e-16 0.106273 3.242e-16 -0.00384847)
(-0.344819 -4.47867 1.48338e-15 0.341223 -5.50122e-16 0.00359547)
(-0.635333 -5.16407 -2.6435e-15 0.622696 2.0716e-15 0.0126365)
(-0.852103 -5.11331 5.13451e-16 0.836828 8.97026e-15 0.0152751)
(-0.93964 -4.60911 -5.10626e-17 0.930392 -6.15809e-15 0.00924812)
(-0.929948 -3.99172 2.99369e-15 0.927644 -2.27314e-15 0.0023039)
(0.000395295 -0.000234533 -3.59315e-21 -0.000419036 -6.83661e-21 2.37405e-05)
(0.000435183 -0.000152218 -1.34422e-20 -0.000454227 -1.84521e-20 1.90445e-05)
(0.000459166 -5.13707e-05 5.62776e-20 -0.000473815 1.19652e-19 1.46491e-05)
(0.000453496 5.5966e-05 1.13387e-20 -0.000462726 -1.45857e-20 9.2293e-06)
(0.000414049 0.000161634 7.82166e-21 -0.000419359 -8.86911e-20 5.31093e-06)
(0.000340103 0.000248638 -2.5086e-20 -0.000341978 6.50382e-20 1.87493e-06)
(0.000305903 -0.000256318 9.48279e-21 -0.000296666 1.6151e-20 -9.23618e-06)
(0.000259193 -0.000304193 -1.31755e-20 -0.000248981 -2.37297e-20 -1.02125e-05)
(0.000196122 -0.000345582 -5.99905e-21 -0.000183047 -3.45342e-21 -1.30751e-05)
(0.000125513 -0.000372498 7.12962e-20 -0.000109848 1.04223e-19 -1.56656e-05)
(5.2495e-05 -0.000381107 4.54403e-20 -3.38492e-05 8.21075e-20 -1.86458e-05)
(-2.03943e-05 -0.000371649 5.77427e-20 4.25145e-05 1.10297e-19 -2.21202e-05)
(-8.5671e-05 -0.000346039 8.79799e-20 0.000111314 1.01653e-19 -2.5643e-05)
(-0.000138502 -0.000307289 -5.03745e-20 0.000167671 -7.81321e-20 -2.9169e-05)
(-0.000177408 -0.000259998 -1.80456e-19 0.000210373 -1.7862e-19 -3.29654e-05)
(-0.000201071 -0.000209545 2.34058e-19 0.000237451 1.31841e-19 -3.63803e-05)
(-0.000210762 -0.000159832 1.97017e-19 0.000250363 1.66771e-19 -3.96011e-05)
(-0.00020865 -0.000114029 2.55044e-19 0.000250899 1.22176e-19 -4.2249e-05)
(-0.000197263 -7.42453e-05 -4.19574e-19 0.000241289 -1.34415e-19 -4.4026e-05)
(-0.000179564 -4.13048e-05 -3.57214e-19 0.000224222 -2.39796e-19 -4.46576e-05)
(-0.000157618 -1.5227e-05 4.7259e-19 0.000202016 1.48573e-19 -4.43973e-05)
(-0.000133073 7.09363e-06 9.55317e-20 0.000175257 5.87528e-20 -4.21839e-05)
(-0.000107685 2.60488e-05 -7.09449e-20 0.000145986 7.34469e-21 -3.83013e-05)
(-8.50898e-05 4.23641e-05 -2.30932e-19 0.000118542 -1.51325e-19 -3.34519e-05)
(-6.04656e-05 5.25387e-05 5.10154e-20 8.53309e-05 -1.95665e-20 -2.48654e-05)
(-4.3068e-05 5.83714e-05 2.04313e-19 5.9684e-05 6.30417e-20 -1.6616e-05)
(-3.65408e-05 6.87627e-05 -2.67722e-19 4.77317e-05 -7.6965e-20 -1.11909e-05)
(-3.84705e-05 9.15688e-05 1.44241e-19 4.6927e-05 2.04058e-20 -8.45645e-06)
(-3.55436e-05 0.000109982 -4.37408e-20 4.17552e-05 -9.48036e-21 -6.2116e-06)
(-0.000158061 0.000747063 -5.80737e-19 0.000190086 2.87205e-19 -3.2025e-05)
(-0.000499056 0.00563199 3.06117e-18 0.000730633 -9.8307e-19 -0.000231576)
(0.0004228 0.0120171 -6.58124e-18 9.13646e-05 8.78916e-18 -0.000514164)
(9.9404e-06 6.02429e-05 4.84012e-22 -7.09266e-06 -1.032e-21 -2.84773e-06)
(0.000181557 0.000400007 3.37237e-19 -0.000152045 -1.20248e-19 -2.95116e-05)
(0.00335716 -0.00423916 4.9678e-18 -0.00296538 1.23013e-17 -0.000391779)
(0.00912959 -0.0733209 2.16353e-17 -0.00807742 -1.02178e-16 -0.00105218)
(0.00345583 -0.363964 -5.85702e-17 -0.00153138 -3.43535e-16 -0.00192446)
(-0.0574652 -1.06027 1.86206e-15 0.0599476 4.92485e-16 -0.00248244)
(-0.220093 -2.09071 2.75153e-15 0.22129 6.25187e-16 -0.00119723)
(-0.454948 -3.0144 -1.57111e-15 0.452415 -2.12193e-15 0.00253226)
(-0.658568 -3.46208 -7.00721e-15 0.653084 1.38041e-15 0.005484)
(0.000341576 -0.000196642 -1.46012e-20 -0.000335396 -2.95841e-20 -6.18027e-06)
(0.000363826 -0.000133572 -5.10712e-21 -0.000358476 2.05969e-20 -5.35043e-06)
(0.000372186 -5.56835e-05 4.82985e-20 -0.000369609 9.13762e-20 -2.57668e-06)
(0.000362595 2.64577e-05 -2.09699e-20 -0.000361365 -8.42976e-22 -1.23006e-06)
(0.000330909 0.000106525 1.79571e-20 -0.000331051 1.13684e-19 1.41762e-07)
(0.000222709 -0.000194736 -1.35332e-20 -0.000225659 -2.00296e-20 2.95034e-06)
(0.000184459 -0.000230256 2.6416e-21 -0.00018874 4.15638e-21 4.28041e-06)
(0.000135004 -0.000259955 1.61205e-20 -0.000139753 1.75317e-20 4.74905e-06)
(7.87898e-05 -0.000278025 -9.88557e-20 -8.48512e-05 -1.39844e-19 6.06146e-06)
(1.99236e-05 -0.000282344 -7.23751e-20 -2.73595e-05 -8.4574e-20 7.43593e-06)
(-3.92968e-05 -0.000272326 1.68953e-19 3.05899e-05 2.01759e-19 8.70696e-06)
(-9.35928e-05 -0.00024867 -1.79277e-19 8.31647e-05 -2.22101e-19 1.0428e-05)
(-0.000139067 -0.000213553 -8.09492e-20 0.0001268 -5.39551e-20 1.22667e-05)
(-0.000173479 -0.000169952 -1.92634e-19 0.00015938 -1.44054e-19 1.4099e-05)
(-0.000195486 -0.000122058 -3.59574e-20 0.000179302 -6.52681e-20 1.6184e-05)
(-0.000205193 -7.33047e-05 2.4129e-20 0.000186928 -8.66591e-21 1.82645e-05)
(-0.000203753 -2.6847e-05 -1.32063e-19 0.000183408 -1.74803e-19 2.0345e-05)
(-0.000193154 1.4773e-05 4.295e-19 0.00017082 2.93936e-19 2.23336e-05)
(-0.000175774 5.00211e-05 -1.4132e-19 0.00015175 -2.46652e-20 2.40241e-05)
(-0.0001539 7.86691e-05 -3.46467e-19 0.000128487 -1.51428e-19 2.5413e-05)
(-0.000129992 9.9802e-05 2.29726e-19 0.000104118 4.51805e-21 2.58738e-05)
(-0.000105625 0.000112579 -1.66869e-19 8.08097e-05 -9.62039e-20 2.48153e-05)
(-8.14668e-05 0.000117834 2.23268e-21 5.86869e-05 1.22193e-19 2.27798e-05)
(-5.93087e-05 0.000117988 -4.03075e-20 3.90766e-05 -3.16525e-20 2.02321e-05)
(-3.86158e-05 0.000110515 -2.83301e-19 2.18961e-05 -1.9587e-19 1.67197e-05)
(-2.16179e-05 9.54516e-05 1.99838e-19 9.41342e-06 1.94409e-19 1.22045e-05)
(-1.02082e-05 7.2519e-05 3.90847e-21 3.04197e-06 -1.18608e-19 7.16622e-06)
(-5.47353e-06 6.78662e-05 3.8365e-20 7.10859e-07 1.17528e-20 4.76267e-06)
(-1.18855e-06 7.68941e-05 1.11149e-19 -2.67349e-06 -5.04414e-21 3.86204e-06)
(4.85047e-06 8.3466e-05 -3.7483e-20 -7.95463e-06 -1.20215e-20 3.10416e-06)
(1.02193e-05 8.55804e-05 1.2618e-19 -1.24468e-05 2.02412e-20 2.22752e-06)
(1.32739e-05 8.57893e-05 -6.95871e-21 -1.46373e-05 1.64109e-22 1.36349e-06)
(1.93047e-05 0.000111761 -1.82352e-20 -2.02376e-05 -1.13971e-20 9.32877e-07)
(0.00104088 0.00539239 7.21515e-21 -0.00105698 1.41575e-18 1.61004e-05)
(0.00034341 0.00149814 -4.3068e-18 -0.000341791 3.56118e-19 -1.61969e-06)
(0.00153063 0.00502716 -5.88845e-18 -0.00150906 9.94074e-19 -2.15748e-05)
(0.0085328 0.0136501 2.06811e-17 -0.00837387 -1.22779e-16 -0.000158929)
(0.0190238 -0.0549257 4.70732e-16 -0.018393 -5.86452e-16 -0.000630852)
(-0.0102397 -0.432574 -2.57009e-15 0.0118776 1.34783e-16 -0.00163789)
(-0.140897 -1.22876 4.37292e-15 0.142704 1.6655e-15 -0.00180728)
(0.000252936 -0.000151519 8.65392e-21 -0.000256031 3.41282e-21 3.0946e-06)
(0.000273777 -0.00010524 -3.12951e-20 -0.000275503 -4.45995e-20 1.72589e-06)
(0.000285072 -4.84388e-05 3.85287e-21 -0.000286662 2.0277e-20 1.58979e-06)
(0.000282579 1.28345e-05 1.7238e-20 -0.00028339 -5.72916e-20 8.10543e-07)
(0.000263381 7.39271e-05 -1.39219e-19 -0.000263941 -1.98622e-19 5.59807e-07)
(0.000184054 -0.00015985 1.18791e-20 -0.000182969 1.37214e-20 -1.08451e-06)
(0.000155966 -0.000188571 -2.98278e-20 -0.000154988 -3.56521e-20 -9.7836e-07)
(0.000118898 -0.000213836 -2.38442e-21 -0.00011733 -5.00386e-21 -1.56794e-06)
(7.65269e-05 -0.000231358 -1.23458e-20 -7.46728e-05 -6.56513e-21 -1.85416e-06)
(3.16213e-05 -0.000239055 9.84135e-20 -2.93964e-05 1.12956e-19 -2.22489e-06)
(-1.47451e-05 -0.00023654 7.54072e-20 1.76694e-05 6.22462e-20 -2.92426e-06)
(-5.85528e-05 -0.000223889 1.05234e-21 6.21117e-05 3.02837e-20 -3.55884e-06)
(-9.6864e-05 -0.00020218 1.8722e-19 0.000101187 1.81091e-19 -4.3226e-06)
(-0.000127959 -0.000173262 -2.32951e-20 0.000133269 -3.0643e-21 -5.30989e-06)
(-0.000150251 -0.000139928 -6.46077e-20 0.000156589 -3.03542e-20 -6.33821e-06)
(-0.000163379 -0.000104672 1.269e-19 0.000170885 4.73804e-20 -7.50666e-06)
(-0.000167845 -6.98815e-05 -1.70723e-19 0.000176638 -6.616e-20 -8.79338e-06)
(-0.000164727 -3.77186e-05 -3.01537e-19 0.000174855 -2.35439e-19 -1.01273e-05)
(-0.000155501 -9.50974e-06 -1.25941e-19 0.000167036 3.23314e-20 -1.1535e-05)
(-0.000141838 1.39705e-05 5.43028e-19 0.000154751 2.45064e-19 -1.2913e-05)
(-0.000124938 3.21171e-05 -3.92141e-19 0.000139132 -1.78627e-19 -1.41946e-05)
(-0.000105535 4.6036e-05 -9.42206e-20 0.000120033 8.17553e-20 -1.44974e-05)
(-8.50313e-05 5.5709e-05 1.75946e-19 9.89384e-05 1.14643e-19 -1.39071e-05)
(-6.50779e-05 6.16739e-05 -1.10966e-19 7.7667e-05 -8.09238e-22 -1.2589e-05)
(-4.66972e-05 6.41704e-05 -3.62034e-20 5.74369e-05 9.08136e-20 -1.07397e-05)
(-3.10054e-05 6.50375e-05 5.08615e-20 3.97265e-05 -3.2937e-20 -8.72109e-06)
(-1.66659e-05 6.18904e-05 -3.68698e-19 2.30051e-05 3.62781e-20 -6.33918e-06)
(-4.44221e-06 5.52648e-05 3.32777e-21 8.34539e-06 -5.44311e-20 -3.90318e-06)
(3.8683e-06 4.02658e-05 -1.65254e-19 -2.15327e-06 1.67727e-20 -1.71503e-06)
(9.37224e-06 3.73517e-05 4.20803e-20 -8.36667e-06 1.23523e-20 -1.00557e-06)
(1.31046e-05 3.57526e-05 -1.30994e-20 -1.22603e-05 -5.56721e-20 -8.44221e-07)
(1.45243e-05 3.47357e-05 -2.75645e-21 -1.3726e-05 -2.64204e-22 -7.98333e-07)
(1.47131e-05 3.60372e-05 6.51295e-21 -1.40826e-05 1.81306e-22 -6.30457e-07)
(1.49964e-05 3.99438e-05 6.62978e-20 -1.45828e-05 -2.26558e-20 -4.13633e-07)
(2.93401e-05 8.45081e-05 9.74508e-20 -2.87645e-05 1.59231e-19 -5.75602e-07)
(0.000346656 0.0010469 -3.28989e-19 -0.000340353 6.79767e-19 -6.30235e-06)
(0.00254364 0.00762493 -2.64336e-17 -0.0025021 8.61638e-18 -4.15473e-05)
(0.0107642 0.0290611 -1.53912e-16 -0.010644 -1.05226e-16 -0.000120224)
(0.0106203 0.0201372 -6.71925e-17 -0.0105522 7.70287e-17 -6.80736e-05)
(0.0309653 -0.0161472 5.25301e-16 -0.0307452 -6.18122e-16 -0.000220092)
(0.000206079 -0.00012548 -1.30086e-20 -0.000205844 -1.89451e-20 -2.35193e-07)
(0.000221103 -8.90411e-05 4.7042e-21 -0.000220634 1.39231e-21 -4.69185e-07)
(0.000229371 -4.45034e-05 1.23798e-20 -0.000229527 1.23778e-20 1.56162e-07)
(0.000227839 3.55338e-06 -1.10043e-20 -0.000227878 -5.17796e-20 3.93613e-08)
(0.00014737 -0.000130487 -5.85242e-21 -0.000147559 -5.46457e-21 1.89098e-07)
(0.000124649 -0.000153297 1.90029e-22 -0.000125238 -1.5254e-21 5.89359e-07)
(9.49459e-05 -0.000173498 4.13971e-20 -9.54482e-05 4.49713e-20 5.02327e-07)
(6.09375e-05 -0.000187624 1.64325e-21 -6.16798e-05 -7.18803e-22 7.42295e-07)
(2.47378e-05 -0.000194181 -1.42759e-19 -2.57018e-05 -1.51094e-19 9.64049e-07)
(-1.29792e-05 -0.000192687 3.28098e-20 1.18715e-05 3.84194e-20 1.10768e-06)
(-4.92107e-05 -0.000182953 3.20187e-20 4.78087e-05 1.98465e-20 1.402e-06)
(-8.16122e-05 -0.000165636 -7.41839e-20 7.98571e-05 -1.07535e-19 1.75504e-06)
(-0.000108685 -0.00014189 -1.10674e-19 0.000106595 -6.52855e-20 2.09003e-06)
(-0.000128937 -0.000113683 4.20814e-20 0.000126384 5.5197e-20 2.55218e-06)
(-0.000141779 -8.29085e-05 -2.5156e-19 0.000138706 -2.07828e-19 3.07314e-06)
(-0.000147196 -5.14876e-05 1.67357e-19 0.000143545 1.06466e-19 3.65125e-06)
(-0.000145696 -2.13488e-05 3.40283e-19 0.000141365 1.92735e-19 4.33134e-06)
(-0.00013824 6.16731e-06 4.38756e-19 0.000133156 1.65211e-19 5.08435e-06)
(-0.000125969 3.00151e-05 -5.86719e-19 0.000120046 -4.38932e-19 5.92323e-06)
(-0.000110201 4.96228e-05 3.15522e-19 0.000103292 2.41023e-19 6.90949e-06)
(-9.24755e-05 6.44926e-05 3.37564e-19 8.4838e-05 7.7973e-20 7.63751e-06)
(-7.42691e-05 7.40849e-05 2.15387e-19 6.65378e-05 -4.71583e-20 7.73128e-06)
(-5.6503e-05 7.86124e-05 1.09928e-19 4.93003e-05 5.85909e-20 7.20273e-06)
(-4.02154e-05 7.87395e-05 -1.44427e-20 3.39694e-05 8.06324e-20 6.24602e-06)
(-2.61731e-05 7.58556e-05 1.0977e-19 2.11794e-05 -1.82013e-20 4.99368e-06)
(-1.44246e-05 7.18269e-05 3.67933e-19 1.07217e-05 1.54844e-19 3.70289e-06)
(-3.58311e-06 6.77551e-05 -1.57704e-19 9.74605e-07 -2.11128e-20 2.6085e-06)
(7.12282e-06 5.80123e-05 4.02591e-19 -8.88382e-06 9.4727e-20 1.761e-06)
(1.42096e-05 4.22029e-05 -5.64128e-20 -1.53364e-05 2.21432e-21 1.12679e-06)
(1.63845e-05 2.79341e-05 -1.85937e-20 -1.70681e-05 1.29737e-20 6.83554e-07)
(1.62626e-05 1.91445e-05 4.97251e-21 -1.6731e-05 2.15734e-21 4.6834e-07)
(1.5313e-05 1.43607e-05 -1.76045e-20 -1.57368e-05 7.48726e-21 4.23785e-07)
(1.47117e-05 1.26307e-05 -4.24787e-20 -1.5152e-05 -2.4378e-20 4.40291e-07)
(1.42905e-05 1.29508e-05 -3.80471e-21 -1.46924e-05 2.92818e-20 4.01914e-07)
(1.42269e-05 1.55179e-05 2.63679e-21 -1.45432e-05 -2.09898e-20 3.16306e-07)
(1.46624e-05 2.07637e-05 1.54151e-19 -1.48691e-05 1.22413e-19 2.067e-07)
(1.56928e-05 2.82908e-05 -2.47377e-19 -1.57808e-05 2.34301e-19 8.79951e-08)
(0.0025951 0.0053689 -1.21531e-17 -0.00259436 7.57799e-18 -7.40135e-07)
(0.00126565 0.00252361 -1.64424e-17 -0.00126795 5.7878e-19 2.29837e-06)
(0.00016535 -0.000103491 1.8569e-21 -0.000165874 6.12419e-21 5.23948e-07)
(0.000177956 -7.48558e-05 2.82539e-20 -0.000178064 2.47471e-20 1.074e-07)
(0.000185512 -3.9861e-05 -2.8239e-20 -0.000185889 -9.91121e-21 3.76718e-07)
(0.000185482 -1.78693e-06 6.97919e-20 -0.000185595 6.67592e-20 1.13017e-07)
(0.000121468 -0.000109072 -2.62902e-22 -0.00012129 -7.64965e-22 -1.7787e-07)
(0.000103293 -0.000127762 -1.85003e-21 -0.000103291 -1.48905e-21 -1.63876e-09)
(7.95106e-05 -0.000144574 -5.43376e-21 -7.93257e-05 -4.76441e-21 -1.84872e-07)
(5.22209e-05 -0.000156768 -2.98036e-20 -5.20618e-05 -2.74808e-20 -1.59093e-07)
(2.30854e-05 -0.00016315 3.69683e-20 -2.28905e-05 4.10553e-20 -1.94867e-07)
(-7.60952e-06 -0.000163344 1.93132e-19 7.92128e-06 1.63055e-19 -3.11761e-07)
(-3.75077e-05 -0.0001571 -1.16633e-20 3.78833e-05 -3.16424e-20 -3.75627e-07)
(-6.4788e-05 -0.000144779 -8.46003e-20 6.52626e-05 -6.98784e-20 -4.74596e-07)
(-8.83491e-05 -0.000127109 2.23482e-19 8.89978e-05 2.05068e-19 -6.4874e-07)
(-0.000106864 -0.000105498 8.99897e-20 0.000107676 5.68276e-20 -8.12172e-07)
(-0.000119675 -8.13161e-05 -7.31229e-20 0.000120718 -1.2506e-20 -1.04235e-06)
(-0.000126632 -5.60229e-05 -2.72892e-19 0.000127959 -1.32403e-19 -1.32729e-06)
(-0.00012791 -3.11711e-05 -5.12319e-19 0.000129551 -3.89516e-19 -1.64039e-06)
(-0.000124075 -7.97213e-06 -5.89994e-19 0.000126102 -3.51992e-19 -2.02624e-06)
(-0.000115966 1.25891e-05 -3.33563e-20 0.00011844 1.34478e-19 -2.47411e-06)
(-0.000104617 2.97541e-05 2.93785e-20 0.00010761 -6.36543e-20 -2.99299e-06)
(-9.0929e-05 4.31108e-05 -4.42342e-19 9.44991e-05 -2.02898e-19 -3.57012e-06)
(-7.56701e-05 5.27138e-05 -2.87841e-19 7.95149e-05 -1.23822e-19 -3.84475e-06)
(-5.9864e-05 5.87895e-05 7.35126e-20 6.36397e-05 6.72005e-21 -3.77571e-06)
(-4.46507e-05 6.17112e-05 3.05603e-19 4.80284e-05 4.08416e-20 -3.37776e-06)
(-3.07935e-05 6.21376e-05 -1.28341e-19 3.35713e-05 -5.31283e-20 -2.77777e-06)
(-1.8729e-05 6.10239e-05 -7.97695e-20 2.08438e-05 -1.50666e-19 -2.11473e-06)
(-7.87174e-06 5.92209e-05 1.52301e-20 9.35686e-06 5.63391e-21 -1.48512e-06)
(2.72046e-06 5.63188e-05 -1.41607e-19 -1.79482e-06 -1.37556e-19 -9.25637e-07)
(1.25206e-05 4.98411e-05 1.01089e-19 -1.1975e-05 2.1713e-20 -5.45602e-07)
(1.90446e-05 3.9393e-05 3.22925e-20 -1.86193e-05 -2.31736e-20 -4.25379e-07)
(2.10385e-05 2.81097e-05 1.32899e-21 -2.06376e-05 -9.05058e-21 -4.00987e-07)
(1.90581e-05 1.80246e-05 3.17267e-20 -1.87669e-05 9.58321e-21 -2.91202e-07)
(1.59347e-05 1.08678e-05 1.79232e-20 -1.5782e-05 1.30794e-20 -1.52726e-07)
(1.28568e-05 6.09301e-06 1.26082e-19 -1.27844e-05 6.75363e-21 -7.23831e-08)
(1.22253e-05 3.91366e-06 -5.23514e-20 -1.21836e-05 5.99496e-20 -4.17589e-08)
(1.17907e-05 3.13178e-06 1.30812e-19 -1.17805e-05 -1.76981e-19 -1.01985e-08)
(1.16815e-05 4.53976e-06 3.14135e-19 -1.17004e-05 1.94314e-19 1.88819e-08)
(1.22488e-05 9.15192e-06 -7.25133e-21 -1.22547e-05 1.52597e-19 5.89505e-09)
(0.000224012 0.000281907 2.07056e-18 -0.0002241 -9.42292e-19 8.80114e-08)
(0.000135864 -8.72319e-05 -4.84169e-21 -0.000136007 -7.43732e-21 1.4331e-07)
(0.0001461 -6.40972e-05 -1.5263e-20 -0.000146029 -1.05407e-20 -7.05514e-08)
(0.000152544 -3.59128e-05 2.37573e-20 -0.000152751 8.73475e-21 2.07584e-07)
(0.000153134 -5.09536e-06 -9.84275e-20 -0.00015315 -7.13852e-20 1.64636e-08)
(0.000100415 -9.19323e-05 -9.2306e-21 -0.00010037 -6.67851e-21 -4.51819e-08)
(8.54263e-05 -0.000107304 -2.90873e-20 -8.55485e-05 -2.59993e-20 1.22209e-07)
(6.58851e-05 -0.000121221 -6.67294e-21 -6.59167e-05 -6.78798e-21 3.16371e-08)
(4.34456e-05 -0.000131451 9.97168e-20 -4.35512e-05 8.72067e-20 1.05569e-07)
(1.95079e-05 -0.000137054 -6.65361e-20 -1.96451e-05 -5.87957e-20 1.37189e-07)
(-5.87758e-06 -0.000137733 -7.01556e-20 5.75035e-06 -7.27444e-20 1.27234e-07)
(-3.08326e-05 -0.0001332 -1.72332e-19 3.06457e-05 -1.24906e-19 1.86963e-07)
(-5.39314e-05 -0.000123658 -1.1804e-19 5.36795e-05 -8.21436e-20 2.51844e-07)
(-7.42805e-05 -0.00010958 1.30097e-19 7.40024e-05 8.47596e-20 2.78162e-07)
(-9.07448e-05 -9.19688e-05 3.5933e-20 9.03788e-05 -1.6278e-21 3.65962e-07)
(-0.000102715 -7.18155e-05 5.61486e-20 0.000102265 6.32272e-20 4.50196e-07)
(-0.000109896 -5.02279e-05 5.07066e-19 0.000109353 3.08047e-19 5.42725e-07)
(-0.000112236 -2.84716e-05 -1.73195e-19 0.000111557 -1.93905e-20 6.78918e-07)
(-0.000110017 -7.58927e-06 3.8029e-19 0.00010919 3.2741e-19 8.26825e-07)
(-0.000103782 1.14975e-05 5.07916e-20 0.000102771 3.90531e-20 1.01088e-06)
(-9.42323e-05 2.79995e-05 -8.97211e-20 9.29812e-05 -4.36705e-20 1.25109e-06)
(-8.21811e-05 4.15062e-05 2.70463e-19 8.06155e-05 1.86127e-19 1.56557e-06)
(-6.86749e-05 5.15693e-05 1.02949e-19 6.68581e-05 7.48809e-20 1.81671e-06)
(-5.46618e-05 5.80452e-05 4.93507e-20 5.28305e-05 -2.47001e-20 1.83123e-06)
(-4.10606e-05 6.11628e-05 -1.803e-19 3.93889e-05 -1.57485e-19 1.67169e-06)
(-2.85338e-05 6.15229e-05 -2.08111e-21 2.71742e-05 4.06001e-21 1.35969e-06)
(-1.7418e-05 5.99695e-05 -1.01114e-19 1.6417e-05 3.65447e-21 1.00103e-06)
(-7.40482e-06 5.72906e-05 -1.48719e-19 6.71584e-06 -8.03951e-21 6.8898e-07)
(2.00524e-06 5.35686e-05 3.92552e-20 -2.51474e-06 5.0749e-20 5.09498e-07)
(1.05834e-05 4.80691e-05 -6.80974e-21 -1.09828e-05 -4.22955e-20 3.99346e-07)
(1.71314e-05 4.06294e-05 -1.17293e-19 -1.73659e-05 3.93268e-21 2.34481e-07)
(2.07675e-05 3.2574e-05 -1.13034e-20 -2.08295e-05 4.19815e-21 6.19519e-08)
(2.19389e-05 2.52887e-05 3.56192e-21 -2.19394e-05 -8.60756e-21 4.68285e-10)
(2.14799e-05 1.87713e-05 -2.43697e-20 -2.15075e-05 4.29492e-21 2.76384e-08)
(1.88641e-05 1.2035e-05 2.88703e-20 -1.89008e-05 -1.46618e-19 3.66945e-08)
(1.59142e-05 6.57698e-06 1.76255e-19 -1.59299e-05 -3.4353e-20 1.56856e-08)
(1.12995e-05 2.1794e-06 -2.8062e-19 -1.13031e-05 -1.23269e-20 3.62677e-09)
(1.05338e-05 -9.04161e-08 3.19081e-19 -1.05454e-05 -1.77764e-19 1.15947e-08)
(1.00826e-05 -1.22698e-06 3.10978e-19 -1.00968e-05 -4.10943e-21 1.41784e-08)
(1.00542e-05 8.53024e-08 -3.69837e-19 -1.0085e-05 5.51158e-20 3.08084e-08)
(0.00011234 -7.41295e-05 5.97126e-21 -0.000112496 7.9072e-21 1.5685e-07)
(0.000120952 -5.52522e-05 4.48797e-20 -0.000120928 3.01425e-20 -2.436e-08)
(0.000126634 -3.2271e-05 -2.88015e-20 -0.000126819 -3.19743e-20 1.85196e-07)
(1.6722e-05 -0.00011648 4.19059e-20 -1.67291e-05 3.65352e-20 7.1785e-09)
(-4.43724e-06 -0.000117511 5.92956e-20 4.46975e-06 4.94498e-20 -3.25173e-08)
(-2.53741e-05 -0.000114323 2.50768e-19 2.53933e-05 1.92298e-19 -1.92139e-08)
(-4.49723e-05 -0.000107032 -4.25435e-20 4.4998e-05 -3.24705e-20 -2.56842e-08)
(-6.25423e-05 -9.59665e-05 8.75056e-20 6.26011e-05 4.20641e-20 -5.8818e-08)
(-7.71418e-05 -8.18418e-05 -1.73048e-19 7.72097e-05 -1.0003e-19 -6.78564e-08)
(-8.82107e-05 -6.53974e-05 1.284e-19 8.83108e-05 7.08926e-20 -1.00149e-07)
(-9.54378e-05 -4.74799e-05 -3.20654e-19 9.55904e-05 -2.5015e-19 -1.52648e-07)
(-9.86867e-05 -2.90693e-05 1.11801e-20 9.88869e-05 3.38385e-20 -2.0015e-07)
(-9.80711e-05 -1.10287e-05 5.12281e-20 9.83376e-05 -2.76424e-20 -2.665e-07)
(-9.39147e-05 5.7915e-06 8.55615e-20 9.42693e-05 1.71086e-20 -3.54611e-07)
(-8.67353e-05 2.0673e-05 1.39932e-20 8.71892e-05 1.21381e-20 -4.53946e-07)
(-7.7199e-05 3.31012e-05 -1.03499e-19 7.77937e-05 -9.6429e-20 -5.94687e-07)
(-6.601e-05 4.26961e-05 -1.99563e-19 6.67321e-05 -6.28717e-20 -7.22167e-07)
(-5.38408e-05 4.93894e-05 -1.71621e-19 5.46418e-05 -5.0092e-20 -8.01015e-07)
(-4.15308e-05 5.33089e-05 -1.25361e-19 4.23093e-05 3.4577e-20 -7.78521e-07)
(-2.97483e-05 5.4872e-05 -7.95403e-20 3.04235e-05 -8.36378e-21 -6.7517e-07)
(-1.89357e-05 5.45752e-05 -8.51003e-21 1.94597e-05 3.71891e-20 -5.23928e-07)
(-9.03953e-06 5.28922e-05 9.74527e-20 9.40732e-06 6.1569e-20 -3.67791e-07)
(1.32623e-07 4.97966e-05 -7.00047e-21 6.38057e-08 -3.85615e-20 -1.96428e-07)
(8.26536e-06 4.48761e-05 -5.27195e-20 -8.19772e-06 -8.10495e-21 -6.7641e-08)
(1.44551e-05 3.82963e-05 9.15647e-20 -1.43973e-05 2.70725e-20 -5.78573e-08)
(1.80702e-05 3.12407e-05 1.20666e-20 -1.79657e-05 4.3998e-21 -1.04447e-07)
(1.95927e-05 2.50531e-05 1.43527e-20 -1.94945e-05 -1.48154e-20 -9.82025e-08)
(2.01442e-05 2.00977e-05 9.92473e-21 -2.01056e-05 -4.85077e-21 -3.85515e-08)
(2.0257e-05 1.57798e-05 -2.39713e-19 -2.02582e-05 8.07706e-20 1.23193e-09)
(2.00571e-05 1.16939e-05 -2.02828e-19 -2.00565e-05 -5.86864e-20 -6.73902e-10)
(1.76022e-05 6.87573e-06 1.38668e-19 -1.7592e-05 2.85433e-19 -1.01573e-08)
(1.2484e-05 2.28381e-06 -1.79903e-19 -1.24803e-05 -2.18553e-19 -3.62292e-09)
(9.8394e-06 -5.48071e-07 4.44402e-20 -9.83216e-06 -1.21929e-19 -7.24169e-09)
(9.19056e-06 -2.80166e-06 1.9611e-19 -9.20796e-06 4.31398e-20 1.74041e-08)