/*--------------------------------*- C++ -*----------------------------------*\
| =========                 |                                                 |
| \\      /  F ield         | OpenFOAM: The Open Source CFD Toolbox           |
|  \\    /   O peration     | Version:  2506                                  |
|   \\  /    A nd           | Website:  www.openfoam.com                      |
|    \\/     M anipulation  |                                                 |
\*---------------------------------------------------------------------------*/
FoamFile
{
    version     2.0;
    format      ascii;
    arch        "LSB;label=32;scalar=64";
    class       pointScalarField;
    location    "1.1";
    object      streamFunction;
}
// * * * * * * * * * * * * * * * * * * * * * * * * * * * * * * * * * * * * * //

dimensions      [0 3 -1 0 0 0 0];

internalField   nonuniform List<scalar> 
882
(
0
0
0
0
0
0
0
0
0
0
0
0
0
0
0
0
0
0
0
0
0
0
1.22517e-06
-2.86997e-06
-1.21752e-05
-2.48954e-05
-3.93362e-05
-5.41508e-05
-6.81211e-05
-8.0115e-05
-8.88868e-05
-9.32396e-05
-9.21869e-05
-8.5263e-05
-7.2771e-05
-5.602e-05
-3.72773e-05
-1.953e-05
-5.7266e-06
1.9091e-06
2.93739e-06
0
0
-3.0493e-06
-2.31008e-05
-5.85248e-05
-0.000104203
-0.000155027
-0.000206503
-0.000254465
-0.000294907
-0.000323774
-0.000337328
-0.00033273
-0.000308794
-0.000266814
-0.000211026
-0.000148483
-8.8187e-05
-3.91559e-05
-8.1874e-06
2.77538e-06
0
0
-1.3977e-05
-6.29877e-05
-0.000140792
-0.000237395
-0.000343035
-0.000448897
-0.000546708
-0.000628461
-0.000686272
-0.000713034
-0.000703489
-0.000655566
-0.000571793
-0.000460124
-0.000333785
-0.00020976
-0.000105461
-3.45168e-05
-2.06625e-06
0
0
-3.11479e-05
-0.000121675
-0.000257289
-0.000421283
-0.000598142
-0.00077392
-0.000935517
-0.00107024
-0.0011657
-0.00121079
-0.00119724
-0.00112155
-0.000987144
-0.000805719
-0.000597366
-0.000388645
-0.000207866
-7.85079e-05
-1.17882e-05
0
0
-5.3859e-05
-0.000197332
-0.000404831
-0.000651138
-0.000914033
-0.0011739
-0.00141244
-0.0016119
-0.00175496
-0.00182591
-0.00181264
-0.00170924
-0.00151895
-0.00125642
-0.000948619
-0.000633027
-0.000351828
-0.000142537
-2.67099e-05
0
0
-8.12634e-05
-0.000287514
-0.000579111
-0.000920785
-0.00128287
-0.00163981
-0.00196802
-0.00224458
-0.002447
-0.00255437
-0.00254981
-0.00242342
-0.00217648
-0.00182487
-0.00140148
-0.000955546
-0.000546393
-0.00023115
-4.79213e-05
0
0
-0.000112338
-0.000389166
-0.000774672
-0.00122236
-0.00169464
-0.00215997
-0.00258968
-0.0029559
-0.00323092
-0.00338823
-0.003405
-0.00326573
-0.0029672
-0.00252374
-0.00197192
-0.0013723
-0.000804294
-0.000351488
-7.74718e-05
0
0
-0.000145861
-0.000498612
-0.000984854
-0.00154606
-0.00213648
-0.00271884
-0.00325981
-0.00372709
-0.00408808
-0.00431055
-0.00436492
-0.00422833
-0.00389027
-0.00335982
-0.00267331
-0.00190008
-0.00114094
-0.000513274
-0.000118483
0
0
-0.000180456
-0.000611691
-0.00120196
-0.00188021
-0.00259255
-0.00329637
-0.00395443
-0.00453087
-0.00498897
-0.00529122
-0.00540114
-0.00528723
-0.00492915
-0.00432648
-0.00350973
-0.00255155
-0.00157206
-0.000728349
-0.000175267
0
0
-0.00021475
-0.000724162
-0.00141782
-0.0022119
-0.00304449
-0.00386827
-0.00464312
-0.00533084
-0.00589191
-0.00628472
-0.00646666
-0.00639734
-0.00604509
-0.00539595
-0.00446796
-0.00332841
-0.00210958
-0.00100951
-0.000253471
0
0
-0.000247694
-0.000832489
-0.001625
-0.00252834
-0.00347294
-0.00440763
-0.00529067
-0.00608311
-0.00674451
-0.00723112
-0.00749612
-0.00749116
-0.00717379
-0.00651359
-0.00550977
-0.00421337
-0.00275557
-0.00136815
-0.000360179
0
0
-0.000279084
-0.000935076
-0.00181848
-0.00281899
-0.00386
-0.00488771
-0.0058604
-0.0067403
-0.00748829
-0.00806105
-0.00841025
-0.00848329
-0.0082275
-0.00759688
-0.00656735
-0.00516268
-0.00349466
-0.00181014
-0.00050373
0
0
-0.000310418
-0.00103406
-0.00199806
-0.0030782
-0.00419213
-0.00528544
-0.00631849
-0.00725693
-0.00806537
-0.00870383
-0.00912588
-0.00927832
-0.0091028
-0.00854059
-0.00754409
-0.00610193
-0.0042866
-0.00232971
-0.000692694
0
0
-0.000346319
-0.00113778
-0.00217097
-0.00330762
-0.00446258
-0.00558403
-0.00663723
-0.00759369
-0.00842418
-0.0090947
-0.0095641
-0.00978271
-0.00969217
-0.00922701
-0.00832113
-0.00692665
-0.00506063
-0.00290163
-0.00093299
0
0
-0.000397003
-0.00126398
-0.00235389
-0.00351672
-0.00467068
-0.00577169
-0.0067936
-0.00771641
-0.00851919
-0.00917608
-0.00965385
-0.00991014
-0.00989224
-0.00953588
-0.00876629
-0.00750662
-0.00571236
-0.00347222
-0.00122168
0
0
-0.000482189
-0.00144214
-0.00257023
-0.00371537
-0.00481108
-0.00582874
-0.00675524
-0.00758158
-0.00829671
-0.00888425
-0.00932063
-0.00957351
-0.00960046
-0.00934604
-0.0087391
-0.00768972
-0.00610153
-0.00394896
-0.00153649
0
0
-0.000634897
-0.0017055
-0.00282668
-0.00387935
-0.00483309
-0.00568428
-0.00643675
-0.00709387
-0.00765471
-0.0081124
-0.00845335
-0.00865651
-0.00869264
-0.00852061
-0.00808412
-0.00729995
-0.00604479
-0.00418665
-0.0018221
0
0
-0.000893686
-0.00202821
-0.00301343
-0.00383634
-0.00452686
-0.00510963
-0.00560341
-0.00602091
-0.00636839
-0.00664612
-0.0068489
-0.00696629
-0.00698285
-0.00687387
-0.00660553
-0.00611954
-0.00530472
-0.00396096
-0.00194198
0
0
-0.00115694
-0.00203545
-0.00259096
-0.00299354
-0.00330209
-0.0035432
-0.00373488
-0.0038888
-0.00401124
-0.00410447
-0.0041679
-0.00419883
-0.00419302
-0.00413983
-0.00402979
-0.0038392
-0.00350824
-0.00286847
-0.00162366
0
0
0
0
0
0
0
0
0
0
0
0
0
0
0
0
0
0
0
0
0
0
0
0
0
0
0
0
0
0
0
0
0
0
0
0
0
0
0
0
0
0
0
0
1.22517e-06
-2.86997e-06
-1.21752e-05
-2.48954e-05
-3.93362e-05
-5.41508e-05
-6.81211e-05
-8.0115e-05
-8.88868e-05
-9.32396e-05
-9.21869e-05
-8.5263e-05
-7.2771e-05
-5.602e-05
-3.72773e-05
-1.953e-05
-5.7266e-06
1.9091e-06
2.93739e-06
0
0
-3.0493e-06
-2.31008e-05
-5.85248e-05
-0.000104203
-0.000155027
-0.000206503
-0.000254465
-0.000294907
-0.000323774
-0.000337328
-0.00033273
-0.000308794
-0.000266814
-0.000211026
-0.000148483
-8.8187e-05
-3.91559e-05
-8.1874e-06
2.77538e-06
0
0
-1.3977e-05
-6.29877e-05
-0.000140792
-0.000237395
-0.000343035
-0.000448897
-0.000546708
-0.000628461
-0.000686272
-0.000713034
-0.000703489
-0.000655566
-0.000571793
-0.000460124
-0.000333785
-0.00020976
-0.000105461
-3.45168e-05
-2.06625e-06
0
0
-3.11479e-05
-0.000121675
-0.000257289
-0.000421283
-0.000598142
-0.00077392
-0.000935517
-0.00107024
-0.0011657
-0.00121079
-0.00119724
-0.00112155
-0.000987144
-0.000805719
-0.000597366
-0.000388645
-0.000207866
-7.85079e-05
-1.17882e-05
0
0
-5.3859e-05
-0.000197332
-0.000404831
-0.000651138
-0.000914033
-0.0011739
-0.00141244
-0.0016119
-0.00175496
-0.00182591
-0.00181264
-0.00170924
-0.00151895
-0.00125642
-0.000948619
-0.000633027
-0.000351828
-0.000142537
-2.67099e-05
0
0
-8.12634e-05
-0.000287514
-0.000579111
-0.000920785
-0.00128287
-0.00163981
-0.00196802
-0.00224458
-0.002447
-0.00255437
-0.00254981
-0.00242342
-0.00217648
-0.00182487
-0.00140148
-0.000955546
-0.000546393
-0.00023115
-4.79213e-05
0
0
-0.000112338
-0.000389166
-0.000774672
-0.00122236
-0.00169464
-0.00215997
-0.00258968
-0.0029559
-0.00323092
-0.00338823
-0.003405
-0.00326573
-0.0029672
-0.00252374
-0.00197192
-0.0013723
-0.000804294
-0.000351488
-7.74718e-05
0
0
-0.000145861
-0.000498612
-0.000984854
-0.00154606
-0.00213648
-0.00271884
-0.00325981
-0.00372709
-0.00408808
-0.00431055
-0.00436492
-0.00422833
-0.00389027
-0.00335982
-0.00267331
-0.00190008
-0.00114094
-0.000513274
-0.000118483
0
0
-0.000180456
-0.000611691
-0.00120196
-0.00188021
-0.00259255
-0.00329637
-0.00395443
-0.00453087
-0.00498897
-0.00529122
-0.00540114
-0.00528723
-0.00492915
-0.00432648
-0.00350973
-0.00255155
-0.00157206
-0.000728349
-0.000175267
0
0
-0.00021475
-0.000724162
-0.00141782
-0.0022119
-0.00304449
-0.00386827
-0.00464312
-0.00533084
-0.00589191
-0.00628472
-0.00646666
-0.00639734
-0.00604509
-0.00539595
-0.00446796
-0.00332841
-0.00210958
-0.00100951
-0.000253471
0
0
-0.000247694
-0.000832489
-0.001625
-0.00252834
-0.00347294
-0.00440763
-0.00529067
-0.00608311
-0.00674451
-0.00723112
-0.00749612
-0.00749116
-0.00717379
-0.00651359
-0.00550977
-0.00421337
-0.00275557
-0.00136815
-0.000360179
0
0
-0.000279084
-0.000935076
-0.00181848
-0.00281899
-0.00386
-0.00488771
-0.0058604
-0.0067403
-0.00748829
-0.00806105
-0.00841025
-0.00848329
-0.0082275
-0.00759688
-0.00656735
-0.00516268
-0.00349466
-0.00181014
-0.00050373
0
0
-0.000310418
-0.00103406
-0.00199806
-0.0030782
-0.00419213
-0.00528544
-0.00631849
-0.00725693
-0.00806537
-0.00870383
-0.00912588
-0.00927832
-0.0091028
-0.00854059
-0.00754409
-0.00610193
-0.0042866
-0.00232971
-0.000692694
0
0
-0.000346319
-0.00113778
-0.00217097
-0.00330762
-0.00446258
-0.00558403
-0.00663723
-0.00759369
-0.00842418
-0.0090947
-0.0095641
-0.00978271
-0.00969217
-0.00922701
-0.00832113
-0.00692665
-0.00506063
-0.00290163
-0.00093299
0
0
-0.000397003
-0.00126398
-0.00235389
-0.00351672
-0.00467068
-0.00577169
-0.0067936
-0.00771641
-0.00851919
-0.00917608
-0.00965385
-0.00991014
-0.00989224
-0.00953588
-0.00876629
-0.00750662
-0.00571236
-0.00347222
-0.00122168
0
0
-0.000482189
-0.00144214
-0.00257023
-0.00371537
-0.00481108
-0.00582874
-0.00675524
-0.00758158
-0.00829671
-0.00888425
-0.00932063
-0.00957351
-0.00960046
-0.00934604
-0.0087391
-0.00768972
-0.00610153
-0.00394896
-0.00153649
0
0
-0.000634897
-0.0017055
-0.00282668
-0.00387935
-0.00483309
-0.00568428
-0.00643675
-0.00709387
-0.00765471
-0.0081124
-0.00845335
-0.00865651
-0.00869264
-0.00852061
-0.00808412
-0.00729995
-0.00604479
-0.00418665
-0.0018221
0
0
-0.000893686
-0.00202821
-0.00301343
-0.00383634
-0.00452686
-0.00510963
-0.00560341
-0.00602091
-0.00636839
-0.00664612
-0.0068489
-0.00696629
-0.00698285
-0.00687387
-0.00660553
-0.00611954
-0.00530472
-0.00396096
-0.00194198
0
0
-0.00115694
-0.00203545
-0.00259096
-0.00299354
-0.00330209
-0.0035432
-0.00373488
-0.0038888
-0.00401124
-0.00410447
-0.0041679
-0.00419883
-0.00419302
-0.00413983
-0.00402979
-0.0038392
-0.00350824
-0.00286847
-0.00162366
0
0
0
0
0
0
0
0
0
0
0
0
0
0
0
0
0
0
0
0
0
0
)
;

boundaryField
{
    movingWall
    {
        type            calculated;
    }
    fixedWalls
    {
        type            calculated;
    }
    frontAndBack
    {
        type            empty;
    }
}


// ************************************************************************* //
