/*--------------------------------*- C++ -*----------------------------------*\
| =========                 |                                                 |
| \\      /  F ield         | OpenFOAM: The Open Source CFD Toolbox           |
|  \\    /   O peration     | Version:  2506                                  |
|   \\  /    A nd           | Website:  www.openfoam.com                      |
|    \\/     M anipulation  |                                                 |
\*---------------------------------------------------------------------------*/
FoamFile
{
    version     2.0;
    format      ascii;
    arch        "LSB;label=32;scalar=64";
    class       volScalarField;
    location    "300";
    object      turbulenceProperties:epsilon;
}
// * * * * * * * * * * * * * * * * * * * * * * * * * * * * * * * * * * * * * //

dimensions      [0 2 -3 0 0 0 0];

internalField   nonuniform List<scalar> 
1340
(
6.71955e-10
3.88073e-10
6.91703e-10
3.64961e-10
3.64284e-10
6.91271e-10
6.35604e-11
3.55651e-10
3.48945e-10
6.96964e-10
5.07275e-11
1.70998e-10
6.23773e-11
3.48295e-10
3.36135e-10
7.06405e-10
1.02748e-10
1.41813e-10
4.77231e-11
1.64758e-10
6.11648e-11
3.41716e-10
3.25945e-10
7.16054e-10
2.04404e-10
1.57499e-10
1.57504e-10
9.46777e-11
1.34014e-10
4.46688e-11
1.58775e-10
5.99979e-11
3.36116e-10
3.18719e-10
7.25145e-10
2.72812e-10
2.40218e-10
2.03574e-10
1.86963e-10
1.43696e-10
1.46001e-10
8.68218e-11
1.26359e-10
4.16218e-11
1.53173e-10
5.8869e-11
3.31602e-10
3.14199e-10
7.33494e-10
4.39309e-10
3.81511e-10
3.29931e-10
2.84434e-10
2.43235e-10
2.15745e-10
1.83227e-10
1.70075e-10
1.30408e-10
1.3477e-10
7.92427e-11
1.1889e-10
3.86126e-11
1.47889e-10
5.77837e-11
3.27907e-10
3.11721e-10
7.42331e-10
7.03045e-10
6.24341e-10
5.52703e-10
4.87845e-10
4.29382e-10
3.76881e-10
3.29964e-10
2.87603e-10
2.50058e-10
2.15246e-10
1.92423e-10
1.63802e-10
1.53772e-10
1.17651e-10
1.23829e-10
7.19475e-11
1.11585e-10
3.56568e-11
1.42809e-10
5.67611e-11
3.24752e-10
3.10833e-10
7.5021e-10
1.12852e-09
1.03653e-09
9.48142e-10
8.63784e-10
7.83916e-10
7.08807e-10
6.38654e-10
5.73534e-10
5.13432e-10
4.58224e-10
4.07752e-10
3.61834e-10
3.20191e-10
2.8271e-10
2.48453e-10
2.17978e-10
1.88963e-10
1.70363e-10
1.45394e-10
1.38146e-10
1.05485e-10
1.13227e-10
6.49742e-11
1.04455e-10
3.2779e-11
1.37882e-10
5.57944e-11
3.22014e-10
3.11995e-10
7.58034e-10
1.62668e-09
1.57438e-09
1.51939e-09
1.4617e-09
1.40131e-09
1.33846e-09
1.27347e-09
1.20679e-09
1.13892e-09
1.07045e-09
1.00191e-09
9.33841e-10
8.66843e-10
8.01401e-10
7.38016e-10
6.77027e-10
6.18818e-10
5.63642e-10
5.11695e-10
4.63092e-10
4.17864e-10
3.7597e-10
3.37322e-10
3.01849e-10
2.69362e-10
2.3993e-10
2.12681e-10
1.88389e-10
1.64565e-10
1.49725e-10
1.28138e-10
1.23316e-10
9.39981e-11
1.03038e-10
5.83662e-11
9.7527e-11
3.00109e-11
1.33117e-10
5.48602e-11
3.19631e-10
3.14252e-10
7.65788e-10
1.79482e-14
3.84461e-17
0
0
3.91799e-07
5.69459e-07
0.000130133
0.00619914
0.0456985
0.143659
0.270323
0.353176
0.333365
0.213152
0.0675937
0.000736708
0.0627129
0.196966
0.276294
0.223792
0.0999582
0.0199311
0.0011437
1.75833e-06
8.44762e-08
0
0
0
3.0125e-13
1.08803e-10
1.53502e-09
1.86649e-09
1.44253e-09
1.26999e-09
1.25597e-09
1.24297e-09
1.20973e-09
1.1739e-09
1.13946e-09
1.10381e-09
1.06605e-09
1.02631e-09
9.84674e-10
9.41215e-10
8.96188e-10
8.4993e-10
8.02878e-10
7.55432e-10
7.07965e-10
6.60887e-10
6.14601e-10
5.69471e-10
5.25758e-10
4.83765e-10
4.43703e-10
4.05735e-10
3.69974e-10
3.36473e-10
3.05208e-10
2.76126e-10
2.49216e-10
2.24329e-10
2.01656e-10
1.80375e-10
1.61407e-10
1.4216e-10
1.30618e-10
1.1213e-10
1.09378e-10
8.32477e-11
9.33175e-11
5.21677e-11
9.08067e-11
2.7374e-11
1.28417e-10
5.39887e-11
3.17451e-10
3.17783e-10
7.73503e-10
5.086e-10
6.27174e-13
1.34307e-15
0
0
8.79779e-13
5.43978e-06
4.07363e-06
0.00149038
0.0188611
0.0797468
0.180962
0.26992
0.285444
0.208421
0.0854853
0.00512742
0.0291165
0.133202
0.216547
0.195365
0.0977943
0.022715
0.00159228
5.69093e-06
1.47712e-07
0
0
0
3.25469e-14
9.36659e-12
8.71658e-10
1.4048e-09
1.08289e-09
8.97002e-10
8.71563e-10
8.67026e-10
8.4673e-10
8.22499e-10
7.9961e-10
7.75779e-10
7.49745e-10
7.2195e-10
6.92801e-10
6.62422e-10
6.30937e-10
5.98645e-10
5.65852e-10
5.32832e-10
4.99888e-10
4.67327e-10
4.35412e-10
4.04348e-10
3.74366e-10
3.45624e-10
3.18255e-10
2.92349e-10
2.6795e-10
2.45047e-10
2.23587e-10
2.03588e-10
1.8491e-10
1.67826e-10
1.5154e-10
1.37081e-10
1.21813e-10
1.13113e-10
9.74306e-11
9.64076e-11
7.32913e-11
8.41274e-11
4.63992e-11
8.43193e-11
2.48719e-11
1.23833e-10
5.30962e-11
3.15356e-10
3.21411e-10
7.8174e-10
5.27248e-10
3.94511e-10
4.15293e-12
7.22313e-15
0
0
0
1.66475e-06
1.26252e-06
0.000213952
0.00630906
0.0393731
0.113025
0.197559
0.236738
0.196564
0.0990249
0.014821
0.0101745
0.0857846
0.166268
0.168029
0.093933
0.0250896
0.00218336
1.77347e-05
1.89764e-07
0
0
0
1.11797e-16
7.42502e-15
3.21083e-10
9.2264e-10
7.94198e-10
6.3826e-10
6.09779e-10
6.11061e-10
5.98151e-10
5.78481e-10
5.60787e-10
5.44239e-10
5.26467e-10
5.07036e-10
4.86422e-10
4.64955e-10
4.42823e-10
4.20218e-10
3.97325e-10
3.74386e-10
3.51623e-10
3.2924e-10
3.07396e-10
2.86252e-10
2.65926e-10
2.46525e-10
2.28105e-10
2.1071e-10
1.94303e-10
1.78852e-10
1.64364e-10
1.50693e-10
1.38173e-10
1.26026e-10
1.15317e-10
1.03483e-10
9.7191e-11
8.40407e-11
8.44127e-11
6.41379e-11
7.54605e-11
4.10748e-11
7.80871e-11
2.25213e-11
1.19148e-10
5.21585e-11
3.13836e-10
3.25219e-10
7.90489e-10
3.23192e-10
3.94298e-10
3.29603e-10
1.71381e-11
2.69022e-14
0
0
0
2.34629e-09
3.80475e-19
1.10973e-05
0.0016143
0.0168647
0.0650258
0.13779
0.190169
0.179569
0.107389
0.0263918
0.00186093
0.0525428
0.125802
0.143069
0.0887338
0.0267371
0.00278351
3.65602e-05
2.49079e-07
0
0
0
2.30961e-21
4.22405e-13
1.46279e-10
5.94576e-10
5.81417e-10
4.45489e-10
4.08184e-10
4.17759e-10
4.20728e-10
4.10035e-10
3.95754e-10
3.82538e-10
3.69627e-10
3.55902e-10
3.41208e-10
3.25872e-10
3.10167e-10
2.94228e-10
2.78227e-10
2.62317e-10
2.46668e-10
2.31389e-10
2.16598e-10
2.02398e-10
1.88843e-10
1.75985e-10
1.63831e-10
1.52365e-10
1.41531e-10
1.31324e-10
1.21605e-10
1.12706e-10
1.03909e-10
9.62478e-11
8.72793e-11
8.29985e-11
7.20626e-11
7.35446e-11
5.58326e-11
6.74748e-11
3.61708e-11
7.22178e-11
2.01722e-11
1.14857e-10
5.08721e-11
3.12278e-10
3.29672e-10
8.02623e-10
2.49235e-10
2.45093e-10
3.055e-10
2.55936e-10
5.66606e-11
9.0233e-14
5.17496e-22
0
0
4.1298e-28
2.24726e-06
8.20255e-07
0.00024593
0.00557495
0.0317332
0.0866464
0.143747
0.15866
0.113552
0.0407506
0.000701533
0.0273166
0.0906648
0.120347
0.0846744
0.0295016
0.00381674
7.63416e-05
1.53765e-07
3.85562e-08
0
0
0
1.37251e-13
3.78507e-11
3.4541e-10
4.83165e-10
3.81532e-10
2.98764e-10
2.78928e-10
2.81616e-10
2.80773e-10
2.73126e-10
2.63241e-10
2.53524e-10
2.43817e-10
2.33705e-10
2.23159e-10
2.12383e-10
2.01577e-10
1.90802e-10
1.80211e-10
1.69889e-10
1.59907e-10
1.50356e-10
1.41261e-10
1.32669e-10
1.2455e-10
1.16921e-10
1.09706e-10
1.02882e-10
9.63377e-11
9.03541e-11
8.42893e-11
7.91567e-11
7.26231e-11
7.00143e-11
6.11236e-11
6.34077e-11
4.82224e-11
5.97819e-11
3.17814e-11
6.62397e-11
1.82478e-11
1.09933e-10
4.99452e-11
3.09714e-10
3.33744e-10
8.10306e-10
1.94444e-10
1.82199e-10
1.88643e-10
1.99865e-10
1.84889e-10
1.11762e-10
2.43984e-12
4.18703e-15
8.23705e-25
0
0
1.85132e-07
5.08644e-07
5.30463e-06
0.000650522
0.00715398
0.0306211
0.0719842
0.107154
0.104877
0.0617497
0.0130454
0.00261157
0.0378082
0.0772378
0.0751568
0.0386138
0.00933727
0.000813208
6.34795e-06
2.26257e-07
2.63328e-09
0
0
7.10802e-18
4.90864e-14
8.44243e-12
1.39943e-10
2.53728e-10
2.31358e-10
1.88063e-10
1.72547e-10
1.71888e-10
1.71128e-10
1.66604e-10
1.60411e-10
1.54155e-10
1.4791e-10
1.41527e-10
1.35039e-10
1.28512e-10
1.22102e-10
1.15875e-10
1.09888e-10
1.04171e-10
9.87688e-11
9.37165e-11
8.89798e-11
8.45739e-11
8.0417e-11
7.65016e-11
7.27046e-11
6.92735e-11
6.56468e-11
6.27266e-11
5.8518e-11
5.73061e-11
5.05817e-11
5.32677e-11
4.10343e-11
5.16741e-11
2.8e-11
5.8896e-11
1.68534e-11
9.99023e-11
4.536e-11
2.82512e-10
3.01219e-10
6.99191e-10
1.4004e-10
1.34379e-10
1.34821e-10
1.3164e-10
1.29441e-10
1.42206e-10
1.14583e-10
4.86144e-11
6.14514e-15
1.59024e-17
0
0
2.52385e-13
5.74661e-08
1.87254e-06
3.02561e-06
0.000409616
0.00468741
0.0207852
0.050203
0.075427
0.0723135
0.0394131
0.00596806
0.00413135
0.0326155
0.0554473
0.0459131
0.0199066
0.00402037
0.000274442
7.99221e-07
1.08499e-07
1.69876e-11
0
0
7.66876e-19
2.72776e-14
6.46664e-12
9.24945e-11
1.4731e-10
1.27892e-10
1.04104e-10
9.72762e-11
9.72335e-11
9.60898e-11
9.29825e-11
8.93334e-11
8.57887e-11
8.22819e-11
7.87618e-11
7.53183e-11
7.19927e-11
6.88646e-11
6.59465e-11
6.32688e-11
6.08547e-11
5.86746e-11
5.67463e-11
5.49766e-11
5.33696e-11
5.1793e-11
5.04445e-11
4.88599e-11
4.77777e-11
4.55582e-11
4.55614e-11
4.07791e-11
4.38402e-11
3.41805e-11
4.4259e-11
2.41419e-11
5.29037e-11
1.5417e-11
9.47184e-11
4.56079e-11
2.80152e-10
3.15308e-10
7.10939e-10
9.74951e-11
9.44689e-11
9.6222e-11
9.41245e-11
8.95399e-11
8.81997e-11
9.30112e-11
9.90769e-11
6.60878e-11
6.86954e-12
1.04442e-14
4.50953e-23
0
0
0
5.67991e-08
1.86965e-06
1.58735e-06
0.000303644
0.00362869
0.0162458
0.038902
0.0566597
0.0507053
0.0235241
0.0015922
0.00688568
0.0295974
0.0396459
0.0267594
0.00929506
0.00140333
5.27588e-05
8.44667e-09
4.49391e-08
0
0
0
7.65798e-19
3.89736e-14
1.04322e-11
6.31218e-11
7.5965e-11
6.19301e-11
5.3411e-11
5.20321e-11
5.18379e-11
5.05197e-11
4.85826e-11
4.66422e-11
4.48366e-11
4.31288e-11
4.15246e-11
4.01018e-11
3.88693e-11
3.78514e-11
3.70609e-11
3.6483e-11
3.61133e-11
3.58832e-11
3.57879e-11
3.56986e-11
3.57586e-11
3.5587e-11
3.57823e-11
3.49851e-11
3.58593e-11
3.26051e-11
3.59021e-11
2.83081e-11
3.79109e-11
2.06721e-11
4.78449e-11
1.38201e-11
9.07725e-11
4.50119e-11
2.81114e-10
3.25852e-10
7.21274e-10
6.42001e-11
6.64453e-11
6.54307e-11
6.30243e-11
6.05829e-11
5.92759e-11
6.03011e-11
6.76006e-11
6.14859e-11
3.09197e-11
2.40419e-13
5.09538e-16
0
0
0
0
4.73814e-08
1.70819e-06
1.64563e-06
0.000285419
0.00325192
0.0139677
0.0318236
0.0431055
0.0341364
0.0119688
5.08835e-05
0.00984076
0.0257996
0.026772
0.0142292
0.00366954
0.000363015
4.43875e-06
8.69839e-08
1.33717e-09
0
0
0
2.17638e-15
4.29002e-13
1.85255e-11
3.70505e-11
3.43926e-11
2.81205e-11
2.60778e-11
2.58435e-11
2.53636e-11
2.44745e-11
2.35792e-11
2.28146e-11
2.21796e-11
2.1713e-11
2.14193e-11
2.13203e-11
2.14265e-11
2.17291e-11
2.22191e-11
2.28412e-11
2.35938e-11
2.4358e-11
2.52365e-11
2.59092e-11
2.68603e-11
2.69654e-11
2.83458e-11
2.62232e-11
2.95653e-11
2.36118e-11
3.26613e-11
1.78414e-11
4.35577e-11
1.24661e-11
8.76248e-11
4.41805e-11
2.83518e-10
3.31575e-10
7.3078e-10
4.22963e-11
4.41976e-11
4.36864e-11
4.25147e-11
4.149e-11
4.0329e-11
3.92753e-11
3.93569e-11
4.17462e-11
4.59478e-11
3.5627e-11
6.63204e-12
1.13988e-14
6.08981e-23
0
0
0
0
5.13111e-08
1.50366e-06
3.07764e-06
0.00032712
0.00328766
0.0129089
0.0268566
0.0323724
0.0212082
0.00450386
0.000930304
0.0121319
0.0210359
0.0164805
0.00647627
0.00111029
5.18065e-05
4.08923e-08
7.05794e-08
0
0
0
7.25741e-20
1.21052e-14
2.66486e-12
1.29354e-11
1.52209e-11
1.26887e-11
1.12109e-11
1.09714e-11
1.0882e-11
1.06537e-11
1.0437e-11
1.03409e-11
1.03998e-11
1.06145e-11
1.10005e-11
1.15727e-11
1.23218e-11
1.32448e-11
1.42966e-11
1.54741e-11
1.66827e-11
1.79897e-11
1.91269e-11
2.04763e-11
2.11146e-11
2.27326e-11
2.1431e-11
2.46831e-11
2.00245e-11
2.84626e-11
1.56976e-11
4.00157e-11
1.15077e-11
8.50873e-11
4.33404e-11
2.87134e-10
3.32402e-10
7.41876e-10
2.70453e-11
2.83675e-11
2.8096e-11
2.74589e-11
2.69481e-11
2.63767e-11
2.59773e-11
2.52886e-11
2.48477e-11
2.53767e-11
2.85942e-11
2.82517e-11
1.63931e-11
2.16288e-13
5.59626e-16
1.37373e-26
0
0
0
0
1.14932e-07
4.93216e-08
7.64712e-06
0.000438869
0.00365875
0.0125491
0.0228222
0.0232176
0.0113716
0.000739573
0.00331775
0.0130148
0.0154057
0.00870511
0.00229676
0.000221301
2.18719e-06
8.61091e-08
0
0
0
0
1.65025e-15
2.84152e-13
3.17003e-12
5.04633e-12
4.43746e-12
3.66533e-12
3.44575e-12
3.46948e-12
3.5536e-12
3.71291e-12
4.00648e-12
4.45582e-12
5.0629e-12
5.8306e-12
6.75748e-12
7.83933e-12
9.04873e-12
1.03756e-11
1.17525e-11
1.32214e-11
1.45575e-11
1.60532e-11
1.69525e-11
1.86006e-11
1.78497e-11
2.0916e-11
1.72568e-11
2.50538e-11
1.40018e-11
3.69849e-11
1.07327e-11
8.29374e-11
4.22814e-11
2.91055e-10
3.26602e-10
7.56049e-10
1.90169e-11
1.98506e-11
1.98466e-11
1.94539e-11
1.90851e-11
1.88079e-11
1.86452e-11
1.83175e-11
1.7956e-11
1.74966e-11
1.76114e-11
1.85237e-11
2.11366e-11
1.62289e-11
5.80044e-12
2.8799e-17
3.46326e-19
0
0
0
0
1.64015e-15
9.07284e-08
5.75096e-07
2.03241e-05
0.000663901
0.00435621
0.0124741
0.0189
0.0151258
0.00452892
0.000114093
0.00598748
0.0118837
0.00953285
0.00360642
0.000553323
1.95157e-05
1.53979e-11
4.06112e-09
0
0
0
3.20185e-17
7.89523e-16
9.47474e-14
2.0121e-13
2.94036e-13
3.17217e-13
3.61226e-13
5.18736e-13
7.98655e-13
1.19196e-12
1.71248e-12
2.37851e-12
3.19509e-12
4.15578e-12
5.2559e-12
6.47334e-12
7.80363e-12
9.19421e-12
1.06802e-11
1.20669e-11
1.3568e-11
1.45695e-11
1.61432e-11
1.57479e-11
1.85937e-11
1.57e-11
2.28868e-11
1.32224e-11
3.50223e-11
1.05978e-11
8.17816e-11
4.10259e-11
2.95975e-10
3.08842e-10
7.86112e-10
1.25429e-11
1.3271e-11
1.32676e-11
1.29818e-11
1.27307e-11
1.26682e-11
1.26925e-11
1.23812e-11
1.23036e-11
1.21935e-11
1.19099e-11
1.17527e-11
1.22465e-11
1.33284e-11
1.41384e-11
8.47197e-12
1.02149e-12
3.63065e-15
3.11276e-22
0
0
0
0
0
4.26065e-07
2.47892e-08
5.92354e-05
0.00106877
0.00532092
0.0121663
0.0144627
0.00804961
0.00074386
0.00174734
0.00768114
0.00882585
0.00450106
0.000969435
6.06024e-05
9.04453e-08
8.01383e-08
0
0
0
5.41047e-21
9.34495e-16
5.78855e-14
1.11103e-12
7.38885e-13
3.90729e-13
4.55816e-13
7.4402e-13
1.1777e-12
1.70754e-12
2.33016e-12
3.06706e-12
3.91969e-12
4.88408e-12
5.93617e-12
7.0761e-12
8.2665e-12
9.53972e-12
1.07394e-11
1.20138e-11
1.2855e-11
1.41215e-11
1.3788e-11
1.62449e-11
1.38187e-11
2.02815e-11
1.16661e-11
3.21336e-11
9.32726e-12
7.8778e-11
3.79075e-11
2.95142e-10
2.77478e-10
8.36861e-10
1.40518e-11
1.44625e-11
1.44334e-11
1.41349e-11
1.38507e-11
1.36565e-11
1.35395e-11
1.32396e-11
1.30423e-11
1.28157e-11
1.24666e-11
1.21626e-11
1.19368e-11
1.18676e-11
1.21932e-11
1.3264e-11
1.13964e-11
5.82389e-12
3.50186e-13
1.87713e-15
4.6304e-22
0
0
0
0
3.31966e-10
6.95902e-07
9.4582e-07
0.00016685
0.00179398
0.00672469
0.0121088
0.0108974
0.00361011
9.91685e-05
0.00427005
0.00811518
0.00581872
0.00177682
0.000160095
5.62715e-07
1.32584e-07
8.81228e-08
1.0576e-08
2.18538e-11
0
7.65984e-20
2.25196e-15
1.52424e-12
5.8973e-12
5.04554e-12
3.86947e-12
3.70249e-12
4.09133e-12
4.67676e-12
5.35592e-12
6.13343e-12
7.01839e-12
7.99359e-12
9.04945e-12
1.01621e-11
1.13563e-11
1.25025e-11
1.36936e-11
1.44817e-11
1.56165e-11
1.53774e-11
1.76391e-11
1.55337e-11
2.16223e-11
1.34876e-11
3.36194e-11
1.05887e-11
8.18095e-11
3.41177e-11
3.06275e-10
2.28529e-10
1.02577e-09
9.84487e-12
9.99558e-12
1.01126e-11
1.02166e-11
1.0281e-11
1.03418e-11
1.04542e-11
1.05904e-11
1.0706e-11
1.07743e-11
1.08404e-11
1.0956e-11
1.10603e-11
1.1169e-11
1.12645e-11
1.17596e-11
1.26471e-11
1.33144e-11
1.12366e-11
6.42556e-12
3.56698e-13
1.43562e-15
0
0
0
0
0
1.93068e-08
4.43575e-07
1.54491e-06
0.000125337
0.00111759
0.00373482
0.00614806
0.00501463
0.00134405
0.0001142
0.00233996
0.00374233
0.0024083
0.000731284
9.95664e-05
4.28377e-06
5.64421e-09
2.11053e-08
2.63427e-09
0
0
1.17903e-15
5.2571e-13
5.06489e-12
8.19451e-12
8.24698e-12
7.92771e-12
7.96094e-12
8.20475e-12
8.52244e-12
8.87876e-12
9.26585e-12
9.67635e-12
1.01001e-11
1.05636e-11
1.09927e-11
1.14576e-11
1.15811e-11
1.18729e-11
1.12047e-11
1.25241e-11
1.05402e-11
1.50895e-11
8.11376e-12
2.45564e-11
4.75047e-12
6.51212e-11
2.33851e-11
2.53524e-10
2.27564e-10
9.9983e-10
)
;

boundaryField
{
    inlet
    {
        type            calculated;
        value           nonuniform List<scalar> 
27
(
2.83803e-08
2.84554e-08
2.85938e-08
2.87778e-08
2.89741e-08
2.91781e-08
2.93957e-08
2.96254e-08
2.98662e-08
3.01093e-08
3.03536e-08
3.05946e-08
3.08273e-08
3.10461e-08
3.12448e-08
3.14171e-08
3.15647e-08
3.12647e-08
3.13041e-08
3.12878e-08
3.11849e-08
3.09856e-08
3.06645e-08
3.02098e-08
2.95622e-08
2.89244e-08
2.76547e-08
)
;
    }
    outlet
    {
        type            calculated;
        value           nonuniform List<scalar> 
78
(
6.33586e-12
6.50554e-12
6.64115e-12
6.76734e-12
6.85663e-12
6.94306e-12
7.08293e-12
7.24734e-12
7.3923e-12
7.49116e-12
7.58894e-12
7.73586e-12
7.8807e-12
8.03119e-12
8.1669e-12
8.58414e-12
9.26441e-12
9.73124e-12
8.20079e-12
4.78443e-12
2.85471e-13
1.2612e-15
0
0
0
0
0
1.94866e-08
4.41686e-07
1.37094e-06
0.000123088
0.00110963
0.00372577
0.0061569
0.0050489
0.00137296
0.000100153
0.0022925
0.00370368
0.00239542
0.000730671
0.00010017
4.395e-06
2.46475e-09
1.92017e-08
2.38085e-09
0
0
9.02812e-16
4.17128e-13
4.09126e-12
6.64238e-12
6.66465e-12
6.36408e-12
6.32621e-12
6.43256e-12
6.5736e-12
6.72418e-12
6.87966e-12
7.0396e-12
7.19728e-12
7.38801e-12
7.53969e-12
7.75307e-12
7.64743e-12
7.80866e-12
7.0093e-12
8.319e-12
6.13782e-12
1.09074e-11
3.6441e-12
2.06315e-11
3.41433e-13
6.03347e-11
1.87539e-11
2.36777e-10
2.28672e-10
8.95846e-10
)
;
    }
    walls
    {
        type            calculated;
        value           nonuniform List<scalar> 0();
    }
    frontAndBack
    {
        type            empty;
    }
    procBoundary7to3
    {
        type            processor;
        value           nonuniform List<scalar> 
16
(
9.04077e-10
1.08416e-09
6.31544e-10
4.62538e-10
3.63953e-10
2.67453e-10
1.81203e-10
1.21656e-10
6.57304e-11
6.57304e-11
4.32085e-11
2.77298e-11
1.95256e-11
1.26757e-11
1.45966e-11
9.47609e-12
)
;
    }
    procBoundary7to6
    {
        type            processor;
        value           nonuniform List<scalar> 
91
(
6.6872e-10
4.14182e-10
4.14182e-10
3.79583e-10
3.79583e-10
6.45845e-11
6.45845e-11
5.36221e-11
1.77364e-10
1.77364e-10
1.10848e-10
1.49605e-10
1.49605e-10
2.22244e-10
1.71701e-10
1.69191e-10
1.69191e-10
3.03949e-10
2.65809e-10
2.24815e-10
2.24815e-10
5.07421e-10
4.37241e-10
3.753e-10
3.20967e-10
3.20967e-10
8.53014e-10
7.51415e-10
6.59849e-10
5.77764e-10
5.04478e-10
5.04478e-10
1.45865e-09
1.33012e-09
1.20783e-09
1.0922e-09
9.83718e-10
8.82652e-10
7.89097e-10
7.89097e-10
2.2563e-09
2.17481e-09
2.0898e-09
2.00124e-09
1.90934e-09
1.81456e-09
1.71748e-09
1.61874e-09
1.51914e-09
1.41959e-09
1.32076e-09
1.22346e-09
1.22346e-09
1.02365e-23
0
0
4.15239e-06
8.53504e-07
0.00104873
0.0191202
0.0948194
0.236709
0.383377
0.447566
0.379861
0.210695
0.0472913
0.00593525
0.116346
0.281297
0.347308
0.253485
0.100627
0.0169084
0.000714682
1.42011e-06
9.79852e-08
0
0
0
1.00268e-12
3.85692e-10
2.48945e-09
2.57758e-09
2.02572e-09
1.84273e-09
1.81952e-09
1.78421e-09
1.73022e-09
1.67739e-09
1.67739e-09
)
;
    }
}


// ************************************************************************* //
