/*--------------------------------*- C++ -*----------------------------------*\
| =========                 |                                                 |
| \\      /  F ield         | OpenFOAM: The Open Source CFD Toolbox           |
|  \\    /   O peration     | Version:  2506                                  |
|   \\  /    A nd           | Website:  www.openfoam.com                      |
|    \\/     M anipulation  |                                                 |
\*---------------------------------------------------------------------------*/
FoamFile
{
    version     2.0;
    format      ascii;
    arch        "LSB;label=32;scalar=64";
    class       volScalarField;
    location    "300";
    object      turbulenceProperties:I;
}
// * * * * * * * * * * * * * * * * * * * * * * * * * * * * * * * * * * * * * //

dimensions      [0 0 0 0 0 0 0];

internalField   nonuniform List<scalar> 
1340
(
3.02155e-05
2.64746e-05
3.04469e-05
2.60218e-05
2.60554e-05
3.04519e-05
1.6814e-05
2.58606e-05
2.57744e-05
3.05227e-05
1.58731e-05
2.15198e-05
1.67368e-05
2.57323e-05
2.55328e-05
3.06341e-05
1.89155e-05
2.05157e-05
1.56362e-05
2.13261e-05
1.66566e-05
2.56166e-05
2.53357e-05
3.07472e-05
2.24304e-05
2.10279e-05
2.10411e-05
1.85388e-05
2.02339e-05
1.53835e-05
2.11353e-05
1.65785e-05
2.55178e-05
2.51934e-05
3.08534e-05
2.4082e-05
2.33411e-05
2.24064e-05
2.19465e-05
2.05603e-05
2.06542e-05
1.81479e-05
1.9945e-05
1.51179e-05
2.09521e-05
1.65022e-05
2.54385e-05
2.51036e-05
3.0951e-05
2.70907e-05
2.61637e-05
2.5243e-05
2.43366e-05
2.34158e-05
2.27357e-05
2.1836e-05
2.14437e-05
2.00765e-05
2.02533e-05
1.77445e-05
1.96501e-05
1.48409e-05
2.07749e-05
1.64281e-05
2.53743e-05
2.50545e-05
3.10529e-05
3.04653e-05
2.95767e-05
2.86933e-05
2.78175e-05
2.69511e-05
2.60952e-05
2.52518e-05
2.44097e-05
2.35818e-05
2.27255e-05
2.21076e-05
2.12443e-05
2.09208e-05
1.95754e-05
1.98374e-05
1.73277e-05
1.93477e-05
1.45523e-05
2.06001e-05
1.63577e-05
2.53202e-05
2.50377e-05
3.11441e-05
3.43753e-05
3.36407e-05
3.28896e-05
3.21243e-05
3.13483e-05
3.05645e-05
2.9776e-05
2.89854e-05
2.81953e-05
2.74074e-05
2.66235e-05
2.58457e-05
2.50746e-05
2.43141e-05
2.35504e-05
2.28017e-05
2.20115e-05
2.14574e-05
2.06317e-05
2.03781e-05
1.90573e-05
1.94068e-05
1.6898e-05
1.90377e-05
1.42535e-05
2.04262e-05
1.62907e-05
2.52738e-05
2.50628e-05
3.12343e-05
3.79052e-05
3.75797e-05
3.72299e-05
3.68541e-05
3.64503e-05
3.60176e-05
3.55556e-05
3.50647e-05
3.45455e-05
3.39995e-05
3.34278e-05
3.28323e-05
3.22153e-05
3.1579e-05
3.09262e-05
3.0259e-05
2.95806e-05
2.88935e-05
2.82006e-05
2.75043e-05
2.68068e-05
2.61097e-05
2.54142e-05
2.47222e-05
2.40338e-05
2.33551e-05
2.26691e-05
2.2e-05
2.12771e-05
2.0788e-05
2.00012e-05
1.98178e-05
1.85246e-05
1.89629e-05
1.64574e-05
1.87207e-05
1.39468e-05
2.02537e-05
1.62253e-05
2.52343e-05
2.51101e-05
3.13232e-05
2.79169e-06
7.08115e-07
0
0
0.000187353
0.000266567
0.00260003
0.00932903
0.0185171
0.0279228
0.0357827
0.0409731
0.0425802
0.0395869
0.0304521
0.00993807
0.0300499
0.0390847
0.0406031
0.0357132
0.0260018
0.0145466
0.00537772
0.000512098
0.000174242
0
0
0
5.41432e-06
2.00461e-05
3.74673e-05
3.94107e-05
3.68691e-05
3.56858e-05
3.55774e-05
3.54751e-05
3.52226e-05
3.49454e-05
3.46728e-05
3.43848e-05
3.40732e-05
3.37375e-05
3.33765e-05
3.29886e-05
3.25737e-05
3.21323e-05
3.16659e-05
3.11759e-05
3.06634e-05
3.01305e-05
2.95796e-05
2.90131e-05
2.84329e-05
2.78418e-05
2.72423e-05
2.66368e-05
2.60278e-05
2.5417e-05
2.48057e-05
2.41945e-05
2.35854e-05
2.29775e-05
2.23789e-05
2.17697e-05
2.11801e-05
2.05254e-05
2.01021e-05
1.93555e-05
1.92423e-05
1.79791e-05
1.85071e-05
1.60082e-05
1.83964e-05
1.3634e-05
2.00789e-05
1.6164e-05
2.51985e-05
2.5183e-05
3.14113e-05
2.85548e-05
6.09794e-06
1.55039e-06
0
0
7.29397e-06
0.000703998
0.000921459
0.00587755
0.0138605
0.0229929
0.0312651
0.037292
0.0400845
0.0386892
0.0318614
0.0159895
0.0246632
0.0354032
0.0383562
0.0348563
0.026311
0.0154774
0.00608009
0.000800887
0.000234082
0
0
0
3.27372e-06
1.1448e-05
3.24874e-05
3.67281e-05
3.43218e-05
3.27046e-05
3.24607e-05
3.24114e-05
3.22101e-05
3.19665e-05
3.17313e-05
3.14816e-05
3.12033e-05
3.08992e-05
3.05718e-05
3.02205e-05
2.98446e-05
2.94453e-05
2.9024e-05
2.85821e-05
2.81214e-05
2.76443e-05
2.7153e-05
2.66493e-05
2.6136e-05
2.56154e-05
2.50896e-05
2.45609e-05
2.40309e-05
2.35005e-05
2.29696e-05
2.24403e-05
2.19103e-05
2.13901e-05
2.08563e-05
2.03457e-05
1.97598e-05
1.94029e-05
1.86974e-05
1.8654e-05
1.74238e-05
1.80415e-05
1.55523e-05
1.80654e-05
1.33155e-05
1.99037e-05
1.61004e-05
2.51644e-05
2.52577e-05
3.15044e-05
2.88398e-05
2.67726e-05
9.25693e-06
2.23052e-06
0
0
0
0.000385318
0.000496955
0.00313935
0.00967142
0.018203
0.0266929
0.0334643
0.0373626
0.0374302
0.0325964
0.020646
0.0188477
0.0316642
0.0360274
0.0338706
0.0264714
0.0162961
0.00688142
0.00125464
0.00029089
0
0
0
9.19196e-07
2.31382e-06
2.53702e-05
3.3028e-05
3.1763e-05
3.00302e-05
2.96802e-05
2.96916e-05
2.95259e-05
2.92708e-05
2.90357e-05
2.88109e-05
2.85644e-05
2.82887e-05
2.79883e-05
2.76661e-05
2.73228e-05
2.69596e-05
2.65774e-05
2.61784e-05
2.57648e-05
2.5339e-05
2.49029e-05
2.44589e-05
2.40093e-05
2.35563e-05
2.31017e-05
2.26473e-05
2.21931e-05
2.17392e-05
2.12868e-05
2.08325e-05
2.03892e-05
1.99298e-05
1.94971e-05
1.89816e-05
1.86912e-05
1.80286e-05
1.80536e-05
1.68602e-05
1.75656e-05
1.50916e-05
1.77287e-05
1.29933e-05
1.97193e-05
1.60327e-05
2.51418e-05
2.53356e-05
3.16023e-05
2.54448e-05
2.67895e-05
2.55725e-05
1.26559e-05
2.95549e-06
0
0
0
4.25683e-05
2.79429e-07
0.00127345
0.00619999
0.013754
0.0221799
0.0295616
0.0344826
0.035891
0.0327865
0.0236071
0.0122437
0.0279426
0.0336797
0.0327879
0.0264684
0.0169374
0.00760192
0.00167238
0.000344468
0
0
0
8.32097e-08
5.63295e-06
2.09275e-05
2.95685e-05
2.93867e-05
2.744e-05
2.68357e-05
2.69906e-05
2.7036e-05
2.68561e-05
2.66117e-05
2.63798e-05
2.61479e-05
2.58953e-05
2.56173e-05
2.53181e-05
2.50013e-05
2.46679e-05
2.432e-05
2.39596e-05
2.35894e-05
2.32112e-05
2.28275e-05
2.2441e-05
2.20533e-05
2.16664e-05
2.12815e-05
2.0899e-05
2.0518e-05
2.01392e-05
1.97581e-05
1.93893e-05
1.9003e-05
1.86468e-05
1.82009e-05
1.79777e-05
1.73577e-05
1.74508e-05
1.62933e-05
1.70887e-05
1.46254e-05
1.73925e-05
1.26447e-05
1.9546e-05
1.5937e-05
2.51186e-05
2.54256e-05
3.17337e-05
2.38218e-05
2.37258e-05
2.51021e-05
2.39883e-05
1.658e-05
3.83628e-06
5.62922e-08
0
0
2.81272e-09
0.000470847
0.00050918
0.00337602
0.0095502
0.0174584
0.0252357
0.0311892
0.0340405
0.0327374
0.02605
0.00953926
0.0236934
0.0311399
0.0316848
0.0265689
0.0177876
0.00856332
0.00215569
0.000335766
0.000101442
0
0
0
4.37303e-06
1.52055e-05
2.57755e-05
2.81408e-05
2.64342e-05
2.48226e-05
2.43916e-05
2.44488e-05
2.44281e-05
2.42552e-05
2.40271e-05
2.3797e-05
2.35609e-05
2.33079e-05
2.30357e-05
2.27478e-05
2.24485e-05
2.21383e-05
2.18209e-05
2.14982e-05
2.11725e-05
2.08467e-05
2.05223e-05
2.02017e-05
1.98847e-05
1.9573e-05
1.92645e-05
1.8959e-05
1.8652e-05
1.8358e-05
1.80451e-05
1.77675e-05
1.73929e-05
1.72383e-05
1.66662e-05
1.68238e-05
1.57145e-05
1.65866e-05
1.41657e-05
1.70276e-05
1.23358e-05
1.93399e-05
1.58678e-05
2.50756e-05
2.55071e-05
3.18216e-05
2.23703e-05
2.20081e-05
2.22023e-05
2.25368e-05
2.20995e-05
1.94692e-05
7.96704e-06
1.90836e-06
1.32681e-08
0
0
0.000163812
0.000286273
0.00103137
0.00471385
0.0106071
0.0176918
0.0244023
0.0292021
0.0308047
0.028092
0.0194797
0.0130858
0.0251419
0.0288969
0.0267654
0.020319
0.0120779
0.00514884
0.000936824
0.000310026
4.32365e-05
0
0
4.84487e-07
3.42449e-06
1.06888e-05
2.05306e-05
2.38969e-05
2.33197e-05
2.21067e-05
2.1627e-05
2.16048e-05
2.15797e-05
2.14325e-05
2.12265e-05
2.10128e-05
2.07934e-05
2.05621e-05
2.03192e-05
2.00662e-05
1.98085e-05
1.95486e-05
1.92891e-05
1.90315e-05
1.87786e-05
1.85329e-05
1.82938e-05
1.80631e-05
1.78376e-05
1.76175e-05
1.73964e-05
1.71897e-05
1.69629e-05
1.67741e-05
1.64887e-05
1.64059e-05
1.59047e-05
1.61153e-05
1.51006e-05
1.60009e-05
1.37303e-05
1.65418e-05
1.20976e-05
1.88901e-05
1.54947e-05
2.45145e-05
2.48659e-05
3.06804e-05
2.05891e-05
2.03775e-05
2.03931e-05
2.02723e-05
2.01912e-05
2.069e-05
1.95798e-05
1.58256e-05
2.06339e-06
5.45374e-07
0
0
5.24769e-06
0.0001006
0.000551342
0.000861838
0.00407912
0.00931885
0.0157548
0.0219658
0.0264252
0.0277798
0.0248627
0.0158479
0.0144814
0.0237937
0.0259275
0.0228346
0.0164247
0.00922185
0.00362331
0.000451253
0.0002137
1.29312e-05
0
0
2.90559e-07
2.95437e-06
9.91296e-06
1.85081e-05
2.0866e-05
2.00998e-05
1.90635e-05
1.87376e-05
1.87355e-05
1.86795e-05
1.85244e-05
1.83375e-05
1.81507e-05
1.79603e-05
1.77633e-05
1.75642e-05
1.73655e-05
1.71725e-05
1.69866e-05
1.68108e-05
1.66477e-05
1.64964e-05
1.63595e-05
1.62311e-05
1.61122e-05
1.59933e-05
1.58901e-05
1.57661e-05
1.56808e-05
1.54982e-05
1.55012e-05
1.50798e-05
1.53581e-05
1.44341e-05
1.54011e-05
1.32372e-05
1.61113e-05
1.18362e-05
1.86474e-05
1.55212e-05
2.4471e-05
2.51581e-05
3.08166e-05
1.87919e-05
1.86442e-05
1.87298e-05
1.86265e-05
1.8395e-05
1.83284e-05
1.85817e-05
1.88885e-05
1.70429e-05
9.89404e-06
2.28131e-06
3.16891e-08
0
0
0
9.826e-05
0.000531423
0.000705216
0.00371257
0.00863405
0.0146893
0.0204888
0.0244956
0.025321
0.0217437
0.0112969
0.0162384
0.0227371
0.0230924
0.0190801
0.0127798
0.00651029
0.0020611
0.000107214
0.000131399
0
0
0
2.85571e-07
3.13323e-06
1.0891e-05
1.68437e-05
1.76676e-05
1.67501e-05
1.61296e-05
1.60237e-05
1.60095e-05
1.59061e-05
1.575e-05
1.55891e-05
1.54349e-05
1.5285e-05
1.514e-05
1.5008e-05
1.48909e-05
1.47922e-05
1.47144e-05
1.46569e-05
1.46201e-05
1.45976e-05
1.4589e-05
1.45813e-05
1.45892e-05
1.45737e-05
1.4596e-05
1.45166e-05
1.46088e-05
1.42675e-05
1.46179e-05
1.37769e-05
1.48239e-05
1.27397e-05
1.57186e-05
1.15219e-05
1.84572e-05
1.5476e-05
2.44995e-05
2.53731e-05
3.09356e-05
1.69158e-05
1.70617e-05
1.69961e-05
1.68373e-05
1.66714e-05
1.65816e-05
1.6656e-05
1.71537e-05
1.67427e-05
1.40895e-05
4.57364e-06
1.15663e-06
0
0
0
0
9.21829e-05
0.000517736
0.000709696
0.00365449
0.0084079
0.0141691
0.0195298
0.0229238
0.0229442
0.0183065
0.00473346
0.0174583
0.0213798
0.0201138
0.0154078
0.00934569
0.00413834
0.000882644
0.000243606
3.61642e-05
0
0
0
1.63603e-06
5.2179e-06
1.23767e-05
1.477e-05
1.44735e-05
1.37419e-05
1.34822e-05
1.34528e-05
1.33903e-05
1.32709e-05
1.31473e-05
1.3039e-05
1.29472e-05
1.28784e-05
1.28346e-05
1.282e-05
1.28362e-05
1.28818e-05
1.29545e-05
1.30452e-05
1.31526e-05
1.32592e-05
1.33789e-05
1.34692e-05
1.35934e-05
1.3609e-05
1.37821e-05
1.35184e-05
1.39322e-05
1.31726e-05
1.42886e-05
1.2285e-05
1.53609e-05
1.12336e-05
1.83023e-05
1.54099e-05
2.45597e-05
2.54916e-05
3.10459e-05
1.52301e-05
1.53984e-05
1.53536e-05
1.52495e-05
1.51566e-05
1.50492e-05
1.49496e-05
1.49593e-05
1.51873e-05
1.55671e-05
1.45882e-05
9.68917e-06
2.28918e-06
3.34142e-08
0
0
0
0
9.47442e-05
0.000515282
0.000855142
0.00385194
0.00855235
0.014059
0.0189041
0.0214931
0.0204284
0.0142902
0.00968002
0.0180079
0.0196327
0.0169348
0.0117606
0.00622261
0.00212377
0.000202244
0.000171454
0
0
0
1.63972e-07
2.32919e-06
7.71472e-06
1.13334e-05
1.18143e-05
1.12663e-05
1.09173e-05
1.08591e-05
1.08379e-05
1.07808e-05
1.07255e-05
1.07009e-05
1.07164e-05
1.07717e-05
1.08687e-05
1.1008e-05
1.11827e-05
1.13874e-05
1.16081e-05
1.18413e-05
1.20676e-05
1.2299e-05
1.24909e-05
1.27078e-05
1.2808e-05
1.30487e-05
1.28595e-05
1.3324e-05
1.2647e-05
1.38119e-05
1.19035e-05
1.50452e-05
1.10159e-05
1.81756e-05
1.53421e-05
2.4646e-05
2.55158e-05
3.11735e-05
1.36105e-05
1.37739e-05
1.37408e-05
1.36622e-05
1.35982e-05
1.35254e-05
1.34738e-05
1.33833e-05
1.33249e-05
1.33977e-05
1.38138e-05
1.37704e-05
1.20045e-05
4.39227e-06
1.1663e-06
5.18853e-09
0
0
0
0
0.000128778
0.000107379
0.00112712
0.0042903
0.00901761
0.0142539
0.018444
0.0199896
0.0175483
0.00905162
0.0131023
0.0178173
0.0173645
0.0135075
0.00822359
0.0035965
0.000711847
0.000233165
0
0
0
0
1.47293e-06
4.53615e-06
7.95954e-06
8.96999e-06
8.66852e-06
8.25629e-06
8.12977e-06
8.14492e-06
8.19428e-06
8.28474e-06
8.44422e-06
8.67221e-06
8.95428e-06
9.27673e-06
9.62617e-06
9.99131e-06
1.03574e-05
1.07192e-05
1.106e-05
1.13923e-05
1.16719e-05
1.1963e-05
1.21294e-05
1.24161e-05
1.22906e-05
1.27896e-05
1.2191e-05
1.33846e-05
1.15735e-05
1.47585e-05
1.08304e-05
1.80672e-05
1.52539e-05
2.47389e-05
2.54129e-05
3.1334e-05
1.24564e-05
1.25907e-05
1.25901e-05
1.25274e-05
1.24676e-05
1.24221e-05
1.23951e-05
1.23402e-05
1.22787e-05
1.21992e-05
1.22204e-05
1.23797e-05
1.28069e-05
1.19695e-05
9.29724e-06
6.00235e-07
2.28329e-07
0
0
0
0
1.74504e-06
0.000119682
0.000448099
0.00152322
0.00499797
0.00977445
0.0146421
0.0179628
0.0181829
0.0139803
0.00562477
0.0148595
0.0167604
0.014504
0.00991336
0.00503807
0.001562
3.35974e-05
5.02667e-05
0
0
0
5.95085e-07
1.1306e-06
3.31418e-06
4.00626e-06
4.39966e-06
4.47784e-06
4.62552e-06
5.06486e-06
5.64291e-06
6.23745e-06
6.82927e-06
7.41454e-06
7.98322e-06
8.52657e-06
9.04338e-06
9.52826e-06
9.98558e-06
1.04052e-05
1.08043e-05
1.11412e-05
1.1475e-05
1.16835e-05
1.19891e-05
1.19168e-05
1.24243e-05
1.19115e-05
1.30911e-05
1.14141e-05
1.45651e-05
1.08011e-05
1.80115e-05
1.51461e-05
2.48525e-05
2.50702e-05
3.16565e-05
1.12179e-05
1.13773e-05
1.13766e-05
1.13149e-05
1.12598e-05
1.1246e-05
1.12514e-05
1.11818e-05
1.11643e-05
1.11391e-05
1.10736e-05
1.1037e-05
1.11536e-05
1.13987e-05
1.15731e-05
1.01666e-05
6.1679e-06
1.76266e-06
4.84717e-08
0
0
0
0
0
0.000264334
0.000173297
0.00218622
0.0059778
0.0107451
0.0150418
0.0171835
0.0157048
0.00888333
0.010949
0.0152862
0.0147046
0.0110347
0.00626935
0.00237399
0.000271978
0.00018547
0
0
0
8.91029e-08
1.22581e-06
2.95603e-06
6.15011e-06
5.55921e-06
4.72188e-06
4.9029e-06
5.54255e-06
6.21863e-06
6.82514e-06
7.37768e-06
7.90333e-06
8.40442e-06
8.88099e-06
9.32649e-06
9.74699e-06
1.01353e-05
1.05071e-05
1.08252e-05
1.11355e-05
1.13281e-05
1.15996e-05
1.15324e-05
1.20172e-05
1.15428e-05
1.27074e-05
1.10676e-05
1.42618e-05
1.04668e-05
1.78523e-05
1.48568e-05
2.48473e-05
2.44176e-05
3.21828e-05
1.15362e-05
1.16196e-05
1.16138e-05
1.15534e-05
1.14949e-05
1.14545e-05
1.14299e-05
1.13662e-05
1.13237e-05
1.12743e-05
1.11967e-05
1.11278e-05
1.10756e-05
1.10607e-05
1.11397e-05
1.13873e-05
1.09531e-05
9.26549e-06
4.85912e-06
1.54544e-06
5.36127e-08
0
0
0
0
2.64877e-05
0.000383672
0.000573465
0.00315207
0.00730435
0.0120148
0.0156481
0.0164858
0.0130759
0.00538251
0.0134865
0.0149179
0.0123547
0.00777358
0.00317752
0.000359906
0.000249128
0.000169761
7.61524e-05
1.29923e-05
0
1.50217e-07
1.50112e-06
6.6578e-06
9.32831e-06
8.96821e-06
8.37589e-06
8.28082e-06
8.49139e-06
8.78197e-06
9.08646e-06
9.40133e-06
9.72533e-06
1.00489e-05
1.03676e-05
1.06749e-05
1.09781e-05
1.12479e-05
1.15096e-05
1.16746e-05
1.18994e-05
1.18557e-05
1.22718e-05
1.189e-05
1.29175e-05
1.14811e-05
1.44298e-05
1.08086e-05
1.80289e-05
1.44769e-05
2.50897e-05
2.32699e-05
3.38942e-05
1.0545e-05
1.05852e-05
1.06161e-05
1.06434e-05
1.06602e-05
1.06761e-05
1.07051e-05
1.07399e-05
1.07692e-05
1.07865e-05
1.08031e-05
1.0832e-05
1.08577e-05
1.08843e-05
1.09076e-05
1.10277e-05
1.1236e-05
1.13893e-05
1.09039e-05
9.49149e-06
4.91728e-06
1.46877e-06
0
0
0
0
0
7.32602e-05
0.000353803
0.000657086
0.0029127
0.0063671
0.0101013
0.0127993
0.0131124
0.00984398
0.00536762
0.0111571
0.0118188
0.00956528
0.00614442
0.00309598
0.00111969
0.000160224
0.000146692
6.01996e-05
0
0
1.34141e-06
5.26224e-06
8.95345e-06
1.01004e-05
1.01198e-05
1.002e-05
1.00317e-05
1.01098e-05
1.02086e-05
1.0316e-05
1.04292e-05
1.05455e-05
1.06619e-05
1.07851e-05
1.0896e-05
1.10125e-05
1.10452e-05
1.11168e-05
1.09592e-05
1.12709e-05
1.07973e-05
1.18135e-05
1.01172e-05
1.33486e-05
8.85092e-06
1.70427e-05
1.31775e-05
2.39606e-05
2.32377e-05
3.37775e-05
)
;

boundaryField
{
    inlet
    {
        type            calculated;
        value           nonuniform List<scalar> 
27
(
7.72931e-05
7.73611e-05
7.7469e-05
7.76053e-05
7.77496e-05
7.78991e-05
7.8057e-05
7.82221e-05
7.83936e-05
7.85658e-05
7.87379e-05
7.89071e-05
7.90703e-05
7.92241e-05
7.93651e-05
7.94895e-05
7.95998e-05
7.94257e-05
7.94625e-05
7.94632e-05
7.94105e-05
7.92979e-05
7.91095e-05
7.88361e-05
7.8447e-05
7.80605e-05
7.73162e-05
)
;
    }
    outlet
    {
        type            calculated;
        value           nonuniform List<scalar> 
78
(
9.44498e-06
9.50766e-06
9.5569e-06
9.60206e-06
9.63367e-06
9.66398e-06
9.71239e-06
9.76837e-06
9.81697e-06
9.84976e-06
9.88188e-06
9.92951e-06
9.9757e-06
1.0023e-05
1.00651e-05
1.01933e-05
1.0395e-05
1.05308e-05
1.00784e-05
8.81699e-06
4.651e-06
1.42199e-06
0
0
0
0
0
7.34314e-05
0.000353433
0.000637764
0.00289959
0.00635573
0.0100949
0.0128032
0.0131336
0.00989532
0.0051937
0.0110988
0.0117872
0.00955203
0.00614304
0.00310068
0.0011269
0.00013025
0.000143268
5.8697e-05
0
0
1.25483e-06
4.96655e-06
8.48819e-06
9.5839e-06
9.59504e-06
9.48456e-06
9.47157e-06
9.51312e-06
9.56701e-06
9.62357e-06
9.68106e-06
9.73928e-06
9.79591e-06
9.86283e-06
9.91579e-06
9.98803e-06
9.95664e-06
1.00112e-05
9.74644e-06
1.01751e-05
9.43202e-06
1.08927e-05
8.28226e-06
1.27798e-05
4.58277e-06
1.67204e-05
1.247e-05
2.35545e-05
2.32659e-05
3.28625e-05
)
;
    }
    walls
    {
        type            calculated;
        value           nonuniform List<scalar> 0();
    }
    frontAndBack
    {
        type            empty;
    }
    procBoundary7to3
    {
        type            processor;
        value           nonuniform List<scalar> 
16
(
3.29906e-05
3.45718e-05
3.01125e-05
2.78263e-05
2.61894e-05
2.42268e-05
2.19593e-05
1.98615e-05
1.70159e-05
1.70159e-05
1.53117e-05
1.36959e-05
1.25389e-05
1.12475e-05
1.16463e-05
1.04447e-05
)
;
    }
    procBoundary7to6
    {
        type            processor;
        value           nonuniform List<scalar> 
91
(
3.01714e-05
2.6915e-05
2.6915e-05
2.62717e-05
2.62717e-05
1.688e-05
1.688e-05
1.60915e-05
2.17122e-05
2.17122e-05
1.92715e-05
2.07858e-05
2.07858e-05
2.28938e-05
2.14776e-05
2.14128e-05
2.14128e-05
2.4726e-05
2.39257e-05
2.29572e-05
2.29572e-05
2.80595e-05
2.70484e-05
2.60495e-05
2.50655e-05
2.50655e-05
3.19365e-05
3.0944e-05
2.9961e-05
2.89901e-05
2.80329e-05
2.80329e-05
3.66087e-05
3.57615e-05
3.4899e-05
3.40238e-05
3.31395e-05
3.22496e-05
3.13572e-05
3.13572e-05
4.11218e-05
4.07235e-05
4.02978e-05
3.98422e-05
3.93553e-05
3.88367e-05
3.82861e-05
3.7704e-05
3.70915e-05
3.64508e-05
3.57829e-05
3.50901e-05
3.50901e-05
2.4797e-08
0
0
0.000573863
0.000543229
0.00508075
0.0134638
0.0234979
0.0329122
0.0402489
0.04455
0.0448939
0.0401337
0.0282198
0.0169092
0.0352747
0.0427652
0.0428016
0.0364646
0.025574
0.0135079
0.0044759
0.000538505
0.000194553
0
0
0
7.13629e-06
2.69999e-05
4.23388e-05
4.27232e-05
4.01487e-05
3.91842e-05
3.90478e-05
3.88427e-05
3.85287e-05
3.82142e-05
3.82142e-05
)
;
    }
}


// ************************************************************************* //
