/*--------------------------------*- C++ -*----------------------------------*\
| =========                 |                                                 |
| \\      /  F ield         | OpenFOAM: The Open Source CFD Toolbox           |
|  \\    /   O peration     | Version:  2506                                  |
|   \\  /    A nd           | Website:  www.openfoam.com                      |
|    \\/     M anipulation  |                                                 |
\*---------------------------------------------------------------------------*/
FoamFile
{
    version     2.0;
    format      ascii;
    arch        "LSB;label=32;scalar=64";
    class       volScalarField;
    location    "300";
    object      turbulenceProperties:L;
}
// * * * * * * * * * * * * * * * * * * * * * * * * * * * * * * * * * * * * * //

dimensions      [0 1 0 0 0 0 0];

internalField   nonuniform List<scalar> 
1340
(
0.222784
0.255559
0.221177
0.259501
0.259633
0.221212
0.401695
0.261183
0.262441
0.220759
0.424984
0.313649
0.403586
0.262551
0.264907
0.220018
0.356245
0.32867
0.43152
0.316577
0.405572
0.263806
0.266954
0.219273
0.299975
0.320172
0.320166
0.363606
0.333351
0.438713
0.319518
0.407529
0.264898
0.268455
0.218583
0.279094
0.288113
0.300282
0.306738
0.327598
0.326294
0.371565
0.338289
0.44653
0.3224
0.409469
0.265795
0.269415
0.217959
0.247763
0.256655
0.266145
0.276201
0.287217
0.295957
0.308293
0.314085
0.335642
0.33289
0.380148
0.343482
0.454986
0.325242
0.411378
0.26654
0.26995
0.217308
0.220288
0.226924
0.233944
0.241358
0.249184
0.257442
0.266141
0.27544
0.28524
0.296131
0.304544
0.317053
0.322098
0.344393
0.340012
0.389438
0.34897
0.464134
0.328097
0.413218
0.267185
0.270143
0.216736
0.195709
0.199914
0.204419
0.209236
0.214373
0.21984
0.225642
0.231791
0.238295
0.245169
0.252426
0.260079
0.26815
0.276626
0.285703
0.295202
0.305931
0.313957
0.326644
0.330845
0.35392
0.347706
0.399491
0.354779
0.474001
0.330989
0.414996
0.267751
0.269892
0.216175
0.178614
0.180079
0.181687
0.183454
0.185399
0.187538
0.189886
0.192456
0.195261
0.198311
0.20162
0.205197
0.209052
0.213195
0.217632
0.222376
0.22743
0.232803
0.238498
0.244524
0.250887
0.257601
0.264681
0.272136
0.279993
0.288209
0.297026
0.306167
0.31669
0.324258
0.337126
0.340372
0.36427
0.356
0.410347
0.360918
0.484571
0.333912
0.416752
0.268248
0.269406
0.215626
5.97238
1.77825
0
0
0.0874137
0.173613
0.705033
0.678247
0.704118
0.7399
0.786133
0.850039
0.948248
1.12453
1.54776
4.85714
1.60279
1.17718
1.00925
0.917978
0.853075
0.789432
0.713798
0.403524
0.330245
0
0
0
2.77318
0.391409
0.181323
0.173721
0.18422
0.189932
0.190507
0.191048
0.192348
0.193793
0.19524
0.196797
0.198517
0.200411
0.202497
0.204795
0.20732
0.210085
0.213097
0.216367
0.219906
0.223722
0.22782
0.232205
0.236888
0.24187
0.247153
0.252742
0.25864
0.26485
0.271386
0.278265
0.285489
0.293097
0.301007
0.309516
0.318231
0.328492
0.335518
0.348564
0.350733
0.375501
0.36493
0.422028
0.367418
0.49584
0.336926
0.418423
0.268708
0.268655
0.215087
0.238951
1.88417
8.30134
0
0
2.30134
0.335751
1.00696
0.711573
0.726325
0.76096
0.806151
0.867129
0.957671
1.11221
1.44647
2.97826
1.93831
1.30217
1.08505
0.973413
0.899073
0.832159
0.741346
0.478156
0.459311
0
0
0
5.53268
0.848108
0.208479
0.187072
0.19821
0.207212
0.208712
0.209041
0.210287
0.211813
0.213314
0.214936
0.216778
0.218834
0.2211
0.223593
0.226332
0.229324
0.232576
0.236099
0.239896
0.24397
0.248322
0.25296
0.257879
0.263081
0.268563
0.274324
0.280366
0.286698
0.293342
0.300294
0.307604
0.315149
0.323293
0.331497
0.341426
0.347807
0.361026
0.361978
0.387651
0.374512
0.434574
0.37429
0.507864
0.340001
0.42017
0.269153
0.267894
0.214519
0.238198
0.254686
0.999852
7.06558
0
0
0
0.180297
0.511193
0.75992
0.746401
0.779238
0.823922
0.882714
0.966984
1.10438
1.37845
2.27235
2.51484
1.45682
1.17102
1.03406
0.948352
0.876456
0.783555
0.591029
0.687898
0
0
0
3.70103
7.79697
0.269879
0.207365
0.214427
0.225656
0.228208
0.228173
0.229402
0.231301
0.233095
0.23485
0.236811
0.239048
0.24154
0.244281
0.247277
0.250538
0.254071
0.257877
0.261952
0.266295
0.270905
0.275775
0.280899
0.286269
0.291881
0.297727
0.303821
0.310179
0.316798
0.32375
0.330845
0.338543
0.34614
0.355634
0.361252
0.37462
0.374203
0.400798
0.384831
0.448019
0.381545
0.520625
0.343295
0.422046
0.269478
0.267107
0.213924
0.267593
0.25599
0.266374
0.620952
4.85738
0
0
0
0.172818
0.114924
0.981823
0.775182
0.796811
0.839896
0.896819
0.976051
1.10001
1.33166
1.95327
3.82981
1.64724
1.2655
1.09792
0.998963
0.920475
0.828139
0.680044
0.872138
0
0
0
0.0030563
2.2413
0.332867
0.231113
0.232154
0.246837
0.252152
0.250832
0.250495
0.25211
0.254328
0.256488
0.258701
0.261163
0.26393
0.266982
0.270299
0.273887
0.277743
0.281862
0.286229
0.290842
0.295684
0.300739
0.305996
0.311438
0.317059
0.322862
0.32887
0.335081
0.341583
0.348132
0.355276
0.362141
0.371101
0.375793
0.389301
0.387322
0.414937
0.395745
0.462488
0.389071
0.535159
0.346457
0.424688
0.269813
0.266201
0.213111
0.285418
0.286757
0.272468
0.283842
0.423339
3.25678
0.000938645
0
0
1.17177e-07
0.245115
0.851195
0.826427
0.816756
0.855793
0.910646
0.985088
1.09658
1.29163
1.74133
4.88159
1.94476
1.3866
1.17129
1.05181
0.961879
0.862597
0.699143
1.31288
0.143856
0
0
0
3.21469
0.493903
0.263759
0.245498
0.257829
0.272784
0.277386
0.276838
0.277133
0.279056
0.28162
0.284272
0.287062
0.290119
0.293488
0.297142
0.301046
0.305209
0.309597
0.314197
0.318989
0.323938
0.32903
0.334232
0.33955
0.344957
0.350493
0.356165
0.362064
0.367913
0.374357
0.38028
0.388555
0.392121
0.405659
0.401952
0.430419
0.407904
0.47769
0.397567
0.548739
0.350273
0.426645
0.270369
0.265386
0.212605
0.303773
0.308706
0.306133
0.302212
0.308049
0.348451
1.09332
7.07022
1.23236e-05
0
0
0.125454
0.244175
1.09587
0.849816
0.868694
0.91723
0.984202
1.07857
1.22746
1.50929
2.31105
3.48048
1.7447
1.36
1.18117
1.06895
0.97305
0.888922
0.691964
0.702923
0.163315
0
0
0.600483
4.267
0.770086
0.329375
0.286591
0.292195
0.306378
0.312802
0.313188
0.313633
0.315756
0.318745
0.321923
0.325269
0.328878
0.332758
0.336905
0.341242
0.345737
0.350353
0.355063
0.359821
0.364575
0.369332
0.37405
0.378792
0.383547
0.388458
0.393179
0.398498
0.403053
0.410108
0.412256
0.425319
0.41985
0.448143
0.423041
0.493059
0.40942
0.559752
0.358752
0.437039
0.276655
0.272277
0.220592
0.329753
0.333169
0.332856
0.334887
0.336513
0.329584
0.346668
0.43145
6.50665
0.844916
0
0
3.01853
0.0939047
0.475404
1.12501
0.877952
0.903368
0.960346
1.03793
1.14765
1.32353
1.66801
2.77993
3.06041
1.76451
1.40847
1.23106
1.11518
1.01639
0.922003
0.615225
0.480577
0.678128
0
0
0.130519
4.85861
0.80275
0.365424
0.328875
0.338701
0.355114
0.361005
0.361169
0.362327
0.365315
0.368971
0.37272
0.376631
0.380772
0.385051
0.389422
0.39377
0.398056
0.402201
0.406132
0.409852
0.413289
0.416574
0.419674
0.42283
0.425626
0.429033
0.431438
0.436595
0.436584
0.448852
0.4408
0.469092
0.439744
0.511675
0.420551
0.572355
0.363563
0.436444
0.277235
0.269184
0.219676
0.360989
0.36385
0.362177
0.364161
0.368726
0.370284
0.365902
0.360806
0.397346
0.747833
5.50329
0.000168783
0
0
0
0.088822
0.427964
1.17957
0.896585
0.931939
0.999929
1.09161
1.22309
1.43971
1.89036
3.83865
2.64958
1.74457
1.43238
1.2638
1.14591
1.03543
0.886831
0.781737
0.269834
0
0
0
0.124049
4.10354
0.66044
0.403872
0.387353
0.404977
0.419395
0.42218
0.422731
0.425507
0.429666
0.434054
0.438359
0.442637
0.446852
0.450763
0.454294
0.457318
0.459736
0.461545
0.462721
0.46346
0.463767
0.464055
0.463858
0.464413
0.463775
0.46639
0.463517
0.474668
0.463371
0.491727
0.457098
0.531911
0.431253
0.588213
0.367451
0.437881
0.276998
0.266979
0.218885
0.40073
0.397303
0.398833
0.402578
0.406549
0.408843
0.407339
0.396917
0.405776
0.480883
2.10676
5.44885
0
0
0
0
0.088186
0.4346
1.16351
0.912473
0.962364
1.04492
1.15611
1.31882
1.59672
2.23681
8.9781
2.35817
1.71142
1.44235
1.28244
1.15467
1.03763
0.830575
0.890836
0.189033
0
0
0
7.3553
1.76305
0.546139
0.464133
0.470542
0.492617
0.50171
0.503011
0.505483
0.510006
0.51476
0.519015
0.52269
0.525476
0.527267
0.527877
0.527222
0.525376
0.522455
0.51886
0.514671
0.510585
0.506081
0.502761
0.498247
0.497756
0.491578
0.501232
0.486421
0.514539
0.474451
0.551856
0.441494
0.60357
0.370707
0.439927
0.276408
0.26582
0.218171
0.44479
0.439928
0.44121
0.444221
0.446929
0.450099
0.453064
0.453009
0.446919
0.437293
0.46413
0.730431
5.15329
0.000198688
0
0
0
0
0.0886486
0.488133
1.09128
0.933915
1.00196
1.10259
1.2389
1.44426
1.81655
2.85019
4.26947
2.15081
1.67272
1.43844
1.28199
1.14319
0.989459
1.08628
0.382575
0
0
0
0.0235291
5.14744
0.919518
0.60075
0.578332
0.601622
0.619587
0.623043
0.624496
0.627839
0.631053
0.632514
0.631622
0.628405
0.622819
0.614974
0.605409
0.594577
0.583328
0.571901
0.561249
0.550765
0.542388
0.53322
0.52914
0.519459
0.527166
0.50887
0.536177
0.491056
0.569801
0.450956
0.615759
0.37344
0.442043
0.275534
0.265655
0.217352
0.497395
0.491496
0.492679
0.495513
0.497845
0.500517
0.502415
0.50577
0.508048
0.505657
0.491884
0.493172
0.563077
2.08091
5.42763
7.45197e-07
0
0
0
0
0.0996407
0.135032
1.00778
0.962376
1.05344
1.17684
1.34632
1.61302
2.14886
4.45025
3.02386
1.99363
1.62796
1.42025
1.26135
1.12009
0.886038
0.790449
0
0
0
0
6.43887
1.74798
0.849129
0.763454
0.783501
0.819459
0.83213
0.830981
0.826056
0.816984
0.801579
0.780588
0.756086
0.729885
0.703469
0.677844
0.653971
0.631986
0.612606
0.594835
0.58069
0.566664
0.558991
0.546172
0.551821
0.530379
0.556489
0.506968
0.586318
0.459924
0.626583
0.375837
0.444784
0.274601
0.266827
0.216327
0.543166
0.537373
0.5374
0.540091
0.542682
0.544671
0.545856
0.54827
0.550988
0.554533
0.553799
0.547377
0.531112
0.564708
0.740338
1.12337
0.0635886
0
0
0
0
10.7835
0.101566
0.843518
0.937035
1.00458
1.12174
1.27372
1.48911
1.8527
2.73121
6.99913
2.49689
1.86982
1.57939
1.38927
1.2232
1.04768
13.2418
0.16771
0
0
0
1.09095
4.31431
2.03059
1.698
1.54106
1.50607
1.45808
1.33386
1.19866
1.08486
0.991069
0.91305
0.848202
0.79431
0.749054
0.711061
0.678617
0.651369
0.627431
0.608575
0.590996
0.580565
0.565865
0.569377
0.546215
0.569799
0.518565
0.594773
0.466237
0.628569
0.377158
0.448148
0.273452
0.270582
0.214229
0.602708
0.594269
0.594307
0.59755
0.600475
0.601213
0.600926
0.604669
0.605618
0.606959
0.610507
0.612547
0.606664
0.594979
0.587027
0.664084
1.22879
6.3323
0.000609675
0
0
0
0
0
0.233692
1.13471
0.951128
1.06472
1.21163
1.4018
1.68688
2.23198
4.28517
3.42636
2.17647
1.75568
1.51811
1.33633
1.18195
1.19664
0.427314
0
0
0
0.00377896
5.08699
2.34313
1.11706
1.23963
1.43435
1.37653
1.21898
1.08785
0.991837
0.917795
0.856921
0.806001
0.762913
0.726623
0.695421
0.668918
0.645393
0.626565
0.609246
0.599022
0.585112
0.588611
0.56497
0.588272
0.534471
0.613685
0.47638
0.648954
0.380703
0.457092
0.273645
0.277924
0.210906
0.585839
0.581635
0.581928
0.584976
0.587954
0.590032
0.591302
0.594622
0.596859
0.599481
0.603623
0.607332
0.610142
0.611204
0.607701
0.596716
0.618021
0.731985
1.75105
6.87565
0.000825723
0
0
0
0
0.301313
0.438455
1.07891
1.01039
1.15015
1.32547
1.56299
1.94975
2.84928
7.16612
2.65839
1.96174
1.62454
1.37868
1.07204
0.447598
0.62954
0.29831
0.223531
0.536288
0
0.0181078
5.55606
1.03319
0.73458
0.762621
0.809732
0.817406
0.797262
0.771199
0.745554
0.720724
0.696852
0.674561
0.653967
0.635286
0.617887
0.603212
0.589643
0.581449
0.570582
0.572781
0.553464
0.571322
0.525989
0.591834
0.471029
0.628708
0.377127
0.469287
0.271123
0.291741
0.200443
0.640318
0.637892
0.63604
0.634415
0.63342
0.632488
0.630781
0.628745
0.627042
0.626047
0.625092
0.623438
0.621943
0.620396
0.619055
0.612768
0.60265
0.596153
0.619821
0.714826
1.78566
6.98766
0
0
0
0
0
0.109827
0.540229
0.994611
1.06203
1.22495
1.42533
1.70269
2.17038
3.34653
6.34886
2.82263
2.16034
1.84198
1.65595
1.5852
1.75682
3.91143
0.801587
0.443192
0
0
5.91776
1.47734
0.756209
0.670721
0.669941
0.676111
0.675248
0.670176
0.663857
0.657099
0.650127
0.64312
0.636265
0.629168
0.622936
0.616517
0.614861
0.611043
0.619946
0.60293
0.629476
0.575479
0.671986
0.50951
0.768117
0.399262
0.515754
0.284242
0.292048
0.201732
)
;

boundaryField
{
    inlet
    {
        type            calculated;
        value           nonuniform List<scalar> 
27
(
0.0873909
0.0873332
0.0872275
0.0870878
0.08694
0.0867878
0.0866269
0.0864587
0.0862841
0.0861096
0.085936
0.0857665
0.0856045
0.0854535
0.0853176
0.0852008
0.0851013
0.0853051
0.0852786
0.0852902
0.0853608
0.0854981
0.0857215
0.0860426
0.0865104
0.0869836
0.087966
)
;
    }
    outlet
    {
        type            calculated;
        value           nonuniform List<scalar> 
78
(
0.714862
0.710158
0.706507
0.703192
0.700893
0.698703
0.69523
0.691256
0.687844
0.685566
0.68335
0.680084
0.676917
0.673693
0.670855
0.662913
0.651397
0.64474
0.670574
0.76948
1.8866
6.82984
0
0
0
0
0
0.109573
0.540806
1.02477
1.06685
1.22714
1.42619
1.70208
2.16668
3.32878
6.56064
2.83712
2.16596
1.84445
1.6563
1.58281
1.74559
4.81163
0.820754
0.454542
0
0
5.54726
1.56454
0.797627
0.706853
0.706568
0.714262
0.715162
0.712188
0.708353
0.704358
0.700344
0.696332
0.692486
0.687972
0.684483
0.679722
0.68205
0.678497
0.697047
0.667833
0.72054
0.624103
0.820735
0.532179
1.47947
0.406955
0.545004
0.28914
0.291694
0.207347
)
;
    }
    walls
    {
        type            calculated;
        value           nonuniform List<scalar> 0();
    }
    frontAndBack
    {
        type            empty;
    }
    procBoundary7to3
    {
        type            processor;
        value           nonuniform List<scalar> 
16
(
0.206576
0.198934
0.226363
0.244536
0.259707
0.280511
0.309175
0.341552
0.398376
0.398376
0.442423
0.494297
0.539594
0.601124
0.580295
0.646456
)
;
    }
    procBoundary7to6
    {
        type            processor;
        value           nonuniform List<scalar> 
91
(
0.223053
0.251433
0.251433
0.256965
0.256965
0.400094
0.400094
0.419129
0.310796
0.310796
0.349551
0.324304
0.324304
0.293764
0.313335
0.314488
0.314488
0.271654
0.280912
0.292923
0.292923
0.238994
0.248054
0.257709
0.267982
0.267982
0.209892
0.216653
0.223806
0.231363
0.239343
0.239343
0.183548
0.18783
0.192414
0.197316
0.202544
0.208108
0.21402
0.21402
0.164586
0.166106
0.16777
0.169596
0.171601
0.173799
0.176204
0.178832
0.181694
0.184798
0.188162
0.191797
0.191797
7.89725e-05
0
0
0.236189
0.976597
0.648787
0.653551
0.680819
0.716753
0.764131
0.831447
0.938591
1.14198
1.70373
2.89615
1.37584
1.07278
0.941004
0.866345
0.809793
0.746505
0.657737
0.579118
0.395003
0
0
0
1.90826
0.269269
0.161044
0.159997
0.169152
0.173072
0.173666
0.174543
0.175884
0.177248
0.177248
)
;
    }
}


// ************************************************************************* //
