/*--------------------------------*- C++ -*----------------------------------*\
| =========                 |                                                 |
| \\      /  F ield         | OpenFOAM: The Open Source CFD Toolbox           |
|  \\    /   O peration     | Version:  2506                                  |
|   \\  /    A nd           | Website:  www.openfoam.com                      |
|    \\/     M anipulation  |                                                 |
\*---------------------------------------------------------------------------*/
FoamFile
{
    version     2.0;
    format      ascii;
    arch        "LSB;label=32;scalar=64";
    class       volVectorField;
    location    "300";
    object      U;
}
// * * * * * * * * * * * * * * * * * * * * * * * * * * * * * * * * * * * * * //

dimensions      [0 1 -1 0 0 0 0];

internalField   nonuniform List<vector> 
1340
(
(26.0618 2.6512 1.04502e-16)
(25.8628 3.22869 1.52734e-17)
(26.0518 2.64841 -5.67479e-17)
(25.9547 2.86789 -4.39773e-16)
(25.8669 3.22679 2.55473e-19)
(26.0438 2.64474 -4.78482e-19)
(25.9263 3.0644 1.53431e-16)
(25.9491 2.86079 -4.40961e-18)
(25.8694 3.22492 -2.18519e-17)
(26.0371 2.64048 2.6421e-16)
(25.9665 2.98905 5.22468e-16)
(25.9589 2.92979 3.01223e-16)
(25.9243 3.06061 -7.07436e-17)
(25.9433 2.85394 1.56343e-16)
(25.8715 3.22286 9.73988e-17)
(26.0302 2.63603 -2.64827e-16)
(26.0009 2.94281 -9.03061e-17)
(25.9846 2.93358 2.41427e-17)
(25.9612 2.98349 -8.02982e-18)
(25.9531 2.92263 -3.64975e-18)
(25.922 3.05665 -5.0743e-17)
(25.9371 2.84739 1.03657e-17)
(25.8731 3.22054 3.8568e-19)
(26.023 2.63142 -5.17301e-19)
(26.0473 2.88758 2.46734e-16)
(26.0294 2.90445 3.02357e-16)
(26.0122 2.91185 3.60818e-16)
(25.9928 2.93626 1.38689e-16)
(25.9772 2.92644 -1.49229e-17)
(25.9556 2.97796 -2.2367e-16)
(25.947 2.91574 -5.10094e-17)
(25.9193 3.05253 1.14017e-16)
(25.9308 2.84115 -1.4911e-16)
(25.8742 3.218 -4.05226e-19)
(26.0157 2.6266 -5.22549e-19)
(26.0827 2.83645 6.63385e-17)
(26.066 2.85329 -3.02545e-16)
(26.0509 2.86811 -3.42628e-17)
(26.0353 2.88069 -1.92034e-16)
(26.0186 2.89774 -4.43331e-18)
(26.0025 2.9049 -7.79199e-18)
(25.9844 2.92996 -1.13727e-16)
(25.9696 2.9196 1.40155e-17)
(25.9497 2.97249 -9.02101e-19)
(25.9406 2.90914 -2.38705e-18)
(25.9163 3.04829 -2.8014e-18)
(25.9244 2.83518 6.18663e-18)
(25.8746 3.21528 -9.68138e-17)
(26.0085 2.62162 -1.42218e-16)
(26.1295 2.74203 1.84764e-16)
(26.1151 2.76594 -1.43142e-16)
(26.0997 2.78875 -6.85035e-17)
(26.0834 2.81038 2.30975e-17)
(26.0666 2.83089 -5.84291e-20)
(26.0513 2.84736 8.50869e-18)
(26.0374 2.86202 9.23509e-19)
(26.023 2.87436 2.06039e-16)
(26.0075 2.8915 8.89483e-17)
(25.9925 2.89839 -1.21441e-16)
(25.9757 2.92394 1.1144e-16)
(25.9615 2.91309 -4.60631e-19)
(25.9433 2.96713 1.97302e-16)
(25.9339 2.90287 4.12101e-17)
(25.9128 3.04396 -6.37053e-17)
(25.9178 2.82952 1.47247e-16)
(25.8744 3.21239 8.29611e-17)
(26.0013 2.61652 1.86739e-16)
(26.1465 2.61752 1.65521e-16)
(26.1418 2.64314 2.71767e-17)
(26.1354 2.66845 2.63788e-17)
(26.1273 2.69328 3.30119e-17)
(26.1176 2.71753 8.13632e-18)
(26.1064 2.74105 -1.22121e-16)
(26.0938 2.76375 -1.27322e-16)
(26.0801 2.78555 2.39453e-18)
(26.0655 2.80634 -5.6004e-17)
(26.0504 2.82622 -3.36367e-17)
(26.0365 2.84222 8.52312e-18)
(26.0237 2.85663 9.29214e-19)
(26.0104 2.86864 -6.78209e-18)
(25.9961 2.88577 -9.77601e-17)
(25.9821 2.89235 1.04945e-16)
(25.9666 2.91825 -1.02877e-16)
(25.9531 2.90697 -4.75276e-19)
(25.9366 2.9619 -1.98743e-16)
(25.9269 2.89695 -4.62003e-17)
(25.9088 3.03957 5.73126e-17)
(25.911 2.82419 1.73357e-18)
(25.8736 3.20932 -1.44863e-16)
(25.9941 2.61138 -1.8293e-18)
(26.0964 2.47199 1.99286e-17)
(26.1035 2.4925 5.81045e-17)
(26.1094 2.51376 -2.87683e-17)
(26.1138 2.53567 5.74624e-17)
(26.1168 2.55811 2.03677e-17)
(26.1183 2.58098 -7.73945e-17)
(26.1182 2.60412 -8.46088e-18)
(26.1164 2.62742 -7.9919e-18)
(26.1131 2.65073 2.53563e-17)
(26.1081 2.67392 1.73862e-17)
(26.1015 2.69684 -9.3393e-18)
(26.0934 2.71937 -3.48251e-19)
(26.0838 2.74139 -2.42138e-18)
(26.0729 2.76277 2.88502e-17)
(26.0607 2.78346 2.34321e-18)
(26.0477 2.8033 5.02635e-17)
(26.0341 2.82243 3.34072e-17)
(26.0215 2.83787 8.48359e-18)
(26.0098 2.85195 9.29305e-19)
(25.9976 2.86358 -1.8405e-16)
(25.9844 2.88058 -5.01879e-17)
(25.9714 2.88681 -1.81391e-16)
(25.9572 2.91293 1.00491e-16)
(25.9444 2.90126 -4.88176e-19)
(25.9296 2.95684 1.27768e-16)
(25.9196 2.89142 -1.191e-16)
(25.9045 3.03514 -1.45628e-16)
(25.9041 2.81919 1.7981e-18)
(25.8723 3.20612 2.9218e-18)
(25.9869 2.60628 -4.49158e-17)
(25.9404 2.36111 2.03496e-18)
(25.9516 2.36799 -2.5572e-19)
(25.963 2.37566 -3.22883e-19)
(25.9745 2.38415 -7.18422e-18)
(25.986 2.39352 -5.31765e-18)
(25.9973 2.40379 -1.3042e-17)
(26.0085 2.41498 -4.83033e-18)
(26.0194 2.42713 -1.08628e-17)
(26.0299 2.44023 7.81218e-18)
(26.0399 2.45428 5.19153e-17)
(26.0493 2.46929 -1.59016e-17)
(26.058 2.48521 1.74501e-17)
(26.0658 2.50201 -4.84464e-18)
(26.0727 2.51965 -4.03728e-18)
(26.0785 2.53806 1.91064e-18)
(26.0831 2.55716 -3.655e-18)
(26.0865 2.57686 -1.2409e-18)
(26.0885 2.59707 4.51739e-18)
(26.0891 2.61768 3.67121e-17)
(26.0883 2.63858 -8.36177e-17)
(26.086 2.65963 4.58246e-18)
(26.0822 2.68072 -1.96978e-17)
(26.0769 2.70172 -8.81501e-18)
(26.0701 2.72251 6.52271e-19)
(26.0619 2.74296 8.84026e-17)
(26.0524 2.76296 9.6965e-17)
(26.0417 2.78246 -6.19367e-17)
(26.0301 2.80125 4.79783e-17)
(26.0178 2.81954 -2.88072e-17)
(26.0064 2.83434 8.39344e-18)
(25.9959 2.84801 9.24048e-19)
(25.9846 2.85918 6.66599e-17)
(25.9726 2.87597 1.1803e-16)
(25.9605 2.88182 1.64144e-16)
(25.9476 2.908 -4.22296e-17)
(25.9354 2.896 -2.31307e-17)
(25.9223 2.95197 -1.05258e-16)
(25.912 2.88629 -7.02615e-17)
(25.8998 3.03069 2.70659e-18)
(25.897 2.81457 1.86239e-18)
(25.8704 3.20278 3.39577e-18)
(25.9795 2.60128 4.10612e-17)
(25.717 2.39703 -1.13726e-18)
(25.716 2.39682 2.85928e-19)
(25.7145 2.39623 8.35668e-19)
(25.7164 2.39567 -7.56709e-19)
(25.728 2.39561 -8.62097e-19)
(25.7472 2.39579 2.23965e-18)
(25.7481 2.39452 1.30481e-18)
(25.6799 2.38849 -1.20262e-18)
(25.4954 2.37421 2.86954e-19)
(25.1799 2.3497 1.8623e-18)
(24.7527 2.31504 2.93222e-19)
(24.2554 2.27225 8.60192e-19)
(23.7448 2.22514 -1.0916e-18)
(23.29 2.17925 -3.80795e-18)
(22.9668 2.14153 1.2315e-18)
(22.8449 2.11947 8.10846e-18)
(22.9679 2.11921 1.13465e-18)
(23.3332 2.14327 -1.54189e-18)
(23.8859 2.18897 3.66421e-19)
(24.5268 2.2482 3.47103e-18)
(25.1286 2.30827 -1.94051e-18)
(25.571 2.3553 7.02211e-18)
(25.7979 2.38086 -1.07536e-17)
(25.8536 2.38744 1.15958e-17)
(25.8377 2.38521 7.2537e-18)
(25.8227 2.38276 1.2964e-18)
(25.826 2.3828 1.84432e-18)
(25.8381 2.38438 1.45444e-17)
(25.8497 2.38624 -1.00414e-18)
(25.859 2.38803 4.10288e-18)
(25.8673 2.38992 -8.48749e-18)
(25.8757 2.39211 -1.1311e-17)
(25.8841 2.39467 9.63876e-19)
(25.8928 2.39761 -3.97554e-18)
(25.9015 2.401 7.29091e-18)
(25.9105 2.40486 -1.88509e-18)
(25.9196 2.40924 -4.15142e-18)
(25.929 2.4142 -2.71039e-18)
(25.9386 2.41977 1.54238e-18)
(25.9483 2.426 -1.79149e-19)
(25.9581 2.43292 1.6013e-18)
(25.9679 2.44059 9.03734e-19)
(25.9778 2.44902 6.8093e-19)
(25.9875 2.45826 5.66447e-19)
(25.9971 2.46832 1.38169e-18)
(26.0064 2.47924 8.25803e-18)
(26.0153 2.491 -4.62582e-18)
(26.0238 2.50363 -3.72143e-17)
(26.0317 2.5171 -1.37993e-18)
(26.0389 2.5314 -1.53019e-17)
(26.0454 2.54651 -3.5116e-19)
(26.0509 2.56236 -2.13933e-17)
(26.0555 2.57893 -3.23507e-18)
(26.059 2.59613 -1.10772e-18)
(26.0613 2.61388 4.06669e-18)
(26.0624 2.63212 -3.55787e-17)
(26.0622 2.65072 7.55728e-17)
(26.0607 2.66961 -2.19814e-17)
(26.0578 2.68866 -1.08142e-18)
(26.0535 2.70776 -8.26397e-18)
(26.0479 2.7268 4.63731e-17)
(26.0409 2.74567 -1.07457e-17)
(26.0326 2.76424 -1.56868e-17)
(26.0231 2.78248 7.6994e-18)
(26.0128 2.80016 -6.76029e-18)
(26.0018 2.81752 2.85855e-17)
(25.9915 2.83161 6.669e-17)
(25.9819 2.8448 3.87696e-17)
(25.9716 2.85547 -1.82307e-17)
(25.9606 2.87194 -9.62243e-17)
(25.9495 2.87739 -8.46598e-17)
(25.9377 2.90349 1.40514e-18)
(25.9262 2.89122 9.74131e-17)
(25.9146 2.94734 -2.39395e-18)
(25.9042 2.88161 7.55364e-17)
(25.8946 3.02626 -3.49449e-17)
(25.8897 2.81035 1.93015e-18)
(25.8681 3.19934 6.0582e-17)
(25.9721 2.59647 -4.215e-17)
(25.7427 2.44854 5.11466e-20)
(25.7428 2.44842 1.63036e-18)
(25.742 2.44797 7.22891e-19)
(25.7404 2.44737 -4.74252e-19)
(25.7408 2.44691 -4.96702e-19)
(25.749 2.44687 -6.4264e-20)
(25.7675 2.44724 -6.02315e-20)
(25.7811 2.44698 1.37405e-18)
(25.7488 2.44341 -9.3664e-19)
(25.6192 2.43286 2.03205e-18)
(25.3631 2.41257 -6.07245e-19)
(24.9864 2.38185 -4.01226e-20)
(24.5233 2.34208 2.00316e-18)
(24.0264 2.29662 1.88325e-19)
(23.5617 2.25066 -1.77322e-18)
(23.2042 2.21094 -4.61622e-19)
(23.0268 2.18501 -2.03558e-18)
(23.0818 2.17956 2.56113e-18)
(23.3794 2.19811 1.64335e-18)
(23.8776 2.23916 1.05918e-18)
(24.4865 2.29566 4.05495e-18)
(25.0834 2.35558 -8.14772e-18)
(25.5438 2.40487 8.19804e-18)
(25.7973 2.43371 -9.49301e-18)
(25.871 2.44269 -1.53603e-19)
(25.8587 2.44115 -6.70742e-20)
(25.8394 2.43837 -3.49817e-18)
(25.8385 2.43798 -5.82336e-18)
(25.8487 2.43938 5.65058e-19)
(25.8596 2.4412 -1.31758e-18)
(25.8681 2.44293 7.04635e-19)
(25.8753 2.44471 6.06115e-18)
(25.8824 2.44676 -1.45555e-20)
(25.8897 2.44914 6.73604e-18)
(25.897 2.45188 -5.55257e-18)
(25.9045 2.45499 1.24814e-18)
(25.9122 2.45854 -1.46179e-19)
(25.9201 2.46255 3.99769e-18)
(25.9281 2.46707 -4.90995e-19)
(25.9363 2.47214 5.28786e-19)
(25.9447 2.47779 1.34488e-18)
(25.9531 2.48406 7.10371e-19)
(25.9615 2.49099 -1.65942e-18)
(25.9699 2.4986 4.57937e-19)
(25.9782 2.50694 6.91359e-19)
(25.9864 2.51601 -7.27229e-18)
(25.9942 2.52583 -3.86138e-18)
(26.0018 2.53643 4.11976e-18)
(26.0088 2.54779 -1.88824e-17)
(26.0154 2.55992 7.43082e-18)
(26.0213 2.57279 -3.55034e-18)
(26.0264 2.58639 2.43314e-17)
(26.0308 2.60068 -2.84674e-18)
(26.0342 2.61561 -9.82901e-19)
(26.0366 2.63112 -2.14988e-17)
(26.038 2.64715 -3.174e-18)
(26.0382 2.66362 -1.26022e-17)
(26.0372 2.68044 1.1582e-17)
(26.035 2.69753 3.20621e-17)
(26.0315 2.71478 -1.09446e-16)
(26.0267 2.7321 -4.77137e-17)
(26.0207 2.74939 -8.34618e-17)
(26.0135 2.76651 -8.51883e-17)
(26.0051 2.78345 7.46385e-17)
(25.9959 2.79997 -9.96349e-17)
(25.986 2.81635 2.40656e-17)
(25.9767 2.82968 3.45228e-18)
(25.968 2.84232 -2.10289e-17)
(25.9586 2.85244 1.76124e-17)
(25.9486 2.86851 -7.01267e-17)
(25.9383 2.87354 -5.34057e-17)
(25.9276 2.89942 1.41575e-18)
(25.9168 2.88694 -6.60545e-17)
(25.9066 2.94295 -2.44444e-18)
(25.8962 2.87739 2.02865e-16)
(25.8891 3.02186 4.06391e-17)
(25.8822 2.80659 1.40441e-16)
(25.8653 3.19579 -5.56848e-17)
(25.9645 2.59192 3.80454e-17)
(25.7647 2.49558 4.2742e-20)
(25.765 2.49551 -7.89436e-20)
(25.7651 2.49519 -4.69951e-19)
(25.7645 2.49473 8.51743e-19)
(25.763 2.49426 2.30436e-19)
(25.7622 2.49387 -7.31816e-19)
(25.7672 2.49376 3.94246e-19)
(25.7829 2.49416 -2.95241e-21)
(25.8027 2.49453 2.74057e-20)
(25.7967 2.49287 -1.80983e-19)
(25.7156 2.48571 4.66385e-20)
(25.5181 2.46967 9.56365e-19)
(25.1953 2.44313 -3.96618e-20)
(24.771 2.40672 1.65486e-19)
(24.2926 2.36327 1.29814e-18)
(23.8232 2.3176 -2.91483e-19)
(23.4368 2.27622 9.56205e-19)
(23.2087 2.24672 1.54619e-18)
(23.1989 2.23624 -7.96873e-20)
(23.43 2.24926 -1.26781e-18)
(23.8728 2.28545 -1.55151e-18)
(24.4475 2.3388 6.59582e-18)
(25.0359 2.398 -6.88152e-18)
(25.5109 2.44892 3.24178e-19)
(25.7898 2.48062 -2.03166e-18)
(25.883 2.4919 -6.01956e-20)
(25.8766 2.49114 -7.14668e-19)
(25.8546 2.48815 -6.67712e-20)
(25.85 2.48745 -2.89043e-18)
(25.8582 2.48882 -3.65446e-21)
(25.8681 2.49069 1.74406e-19)
(25.8756 2.49237 -1.52772e-19)
(25.8816 2.494 -1.08073e-18)
(25.8876 2.49585 -8.83481e-18)
(25.8939 2.49804 5.39244e-18)
(25.9002 2.50057 -1.25504e-18)
(25.9066 2.50343 -8.31768e-20)
(25.9132 2.50668 -8.42661e-19)
(25.9199 2.51034 -1.43486e-18)
(25.9268 2.51445 1.33958e-19)
(25.9338 2.51906 1.09642e-18)
(25.9409 2.52419 7.12288e-19)
(25.9481 2.52987 2.42284e-18)
(25.9553 2.53614 8.22838e-19)
(25.9624 2.54302 7.57022e-19)
(25.9694 2.55054 -6.91188e-19)
(25.9762 2.55872 -3.20625e-18)
(25.9828 2.56758 3.45351e-18)
(25.989 2.57713 1.65205e-17)
(25.9948 2.58737 -2.32269e-17)
(26.0001 2.5983 -5.2098e-18)
(26.0048 2.60991 1.26983e-18)
(26.0088 2.62217 -2.4913e-18)
(26.012 2.63506 -8.67245e-19)
(26.0143 2.64853 2.81787e-17)
(26.0158 2.66253 3.88274e-18)
(26.0162 2.67702 -7.08564e-18)
(26.0155 2.69191 -3.109e-17)
(26.0138 2.70714 -1.61749e-17)
(26.0109 2.72262 1.31869e-16)
(26.0068 2.73826 2.3028e-17)
(26.0016 2.75399 -2.91951e-17)
(25.9952 2.76967 1.42423e-16)
(25.9877 2.7853 -4.69758e-17)
(25.9794 2.80063 2.64292e-17)
(25.9705 2.81598 -2.81812e-17)
(25.9621 2.8285 8.16106e-17)
(25.9543 2.84056 -2.91759e-17)
(25.9457 2.85009 -1.41913e-17)
(25.9365 2.86568 -1.14529e-17)
(25.927 2.87028 5.44219e-17)
(25.9174 2.8958 1.41927e-18)
(25.9071 2.88318 5.54652e-17)
(25.8984 2.93882 -2.4807e-18)
(25.8878 2.87368 -2.57446e-16)
(25.8833 3.01751 3.01896e-18)
(25.8745 2.80332 -1.36012e-16)
(25.8623 3.19214 7.08884e-17)
(25.9564 2.58772 -2.188e-18)
(25.7837 2.53861 3.57919e-20)
(25.784 2.53857 -6.61529e-20)
(25.7843 2.53833 1.28497e-18)
(25.7844 2.53799 -9.68806e-19)
(25.7841 2.53765 5.52157e-20)
(25.7827 2.53728 6.00782e-19)
(25.7813 2.5369 -1.61598e-18)
(25.7835 2.53673 -4.55112e-21)
(25.7953 2.53705 2.33234e-20)
(25.8162 2.53773 -1.58285e-19)
(25.8272 2.53744 4.23929e-20)
(25.7858 2.53317 -1.08409e-18)
(25.644 2.52124 5.9494e-20)
(25.3771 2.49905 1.35031e-18)
(24.996 2.46626 2.0871e-18)
(24.5408 2.42496 -2.52188e-19)
(24.0716 2.37956 8.45382e-19)
(23.6616 2.33639 -1.82017e-18)
(23.3883 2.30317 7.84205e-19)
(23.3186 2.28758 -1.11734e-19)
(23.4866 2.29509 -1.97458e-18)
(23.8757 2.32663 2.69556e-19)
(24.4158 2.37723 3.26158e-19)
(24.9934 2.43615 6.89188e-18)
(25.4796 2.48912 3.48292e-18)
(25.7809 2.52398 1.23127e-18)
(25.8919 2.53763 7.90282e-19)
(25.8907 2.53731 -5.81299e-20)
(25.8654 2.53339 2.06912e-18)
(25.8572 2.53169 1.03388e-18)
(25.8646 2.5327 1.6612e-19)
(25.8749 2.53472 -4.82052e-18)
(25.8821 2.5366 1.02098e-18)
(25.8871 2.53823 8.36049e-18)
(25.8918 2.53992 1.3972e-18)
(25.897 2.54191 1.22855e-18)
(25.9024 2.54423 -3.44701e-20)
(25.9079 2.54687 1.11075e-18)
(25.9135 2.54984 -1.1108e-18)
(25.9192 2.55319 9.59038e-20)
(25.9251 2.55694 8.15827e-19)
(25.931 2.56112 2.663e-19)
(25.9371 2.56577 4.74166e-19)
(25.9431 2.57092 -1.56441e-19)
(25.9492 2.57659 6.87049e-19)
(25.9552 2.58281 1.98334e-18)
(25.961 2.5896 -2.64043e-18)
(25.9667 2.59699 4.08805e-18)
(25.9721 2.60498 2.47767e-18)
(25.9771 2.61359 1.14177e-17)
(25.9817 2.62283 -5.13755e-18)
(25.9858 2.63269 6.83199e-18)
(25.9894 2.64316 -7.23193e-18)
(25.9922 2.65423 -7.60267e-19)
(25.9944 2.66587 4.40921e-17)
(25.9957 2.67804 -1.97333e-17)
(25.9962 2.6907 7.86542e-19)
(25.9957 2.70381 4.77678e-17)
(25.9942 2.71729 -2.44192e-17)
(25.9917 2.73109 -2.51312e-17)
(25.9881 2.74513 -8.79929e-17)
(25.9835 2.75934 1.12086e-18)
(25.9778 2.7736 -8.95129e-18)
(25.9711 2.78794 1.52441e-17)
(25.9636 2.80207 1.11033e-17)
(25.9555 2.81636 2.38209e-17)
(25.9479 2.82805 -7.455e-17)
(25.9407 2.83947 -5.02668e-18)
(25.9329 2.84841 -1.30906e-17)
(25.9245 2.86343 7.02644e-17)
(25.9157 2.86762 -1.09887e-17)
(25.907 2.89263 1.41474e-18)
(25.8973 2.87996 -5.28706e-18)
(25.89 2.93496 2.23322e-17)
(25.8792 2.87052 1.61103e-16)
(25.8772 3.01318 7.20586e-17)
(25.8664 2.80065 2.24215e-18)
(25.8589 3.18832 3.74941e-17)
(25.9479 2.58403 -7.30015e-17)
(25.8004 2.57817 3.05571e-20)
(25.8007 2.57814 -5.65396e-20)
(25.801 2.57795 -3.49842e-20)
(25.8013 2.57768 1.14275e-18)
(25.8015 2.57742 4.73604e-20)
(25.8013 2.57715 -5.44959e-19)
(25.8003 2.57683 1.39213e-18)
(25.7985 2.57647 -3.92089e-21)
(25.7988 2.57624 2.01525e-20)
(25.8064 2.57639 -1.37688e-19)
(25.8248 2.57704 3.75667e-20)
(25.8444 2.57744 8.45677e-19)
(25.8333 2.57543 -1.35237e-19)
(25.744 2.56767 -8.50282e-19)
(25.5385 2.55107 -1.89458e-18)
(25.2104 2.52417 -2.30103e-19)
(24.7878 2.48781 -7.56433e-19)
(24.3249 2.44521 1.59415e-18)
(23.8933 2.4019 -8.8175e-19)
(23.5731 2.36523 -9.14555e-20)
(23.4381 2.3431 -9.11785e-19)
(23.5356 2.34203 -1.58325e-18)
(23.8645 2.36468 2.98703e-18)
(24.3668 2.40807 -4.98151e-18)
(24.9349 2.46321 -4.52073e-18)
(25.438 2.5168 -1.04647e-18)
(25.7707 2.5561 -5.62612e-19)
(25.9088 2.57558 -5.41227e-20)
(25.9165 2.57947 -3.64226e-18)
(25.8846 2.57678 -1.31216e-18)
(25.8662 2.57417 2.49651e-18)
(25.8682 2.57381 8.46819e-18)
(25.8781 2.57508 -2.7606e-20)
(25.8864 2.57683 -5.93762e-18)
(25.8916 2.57852 -8.66562e-18)
(25.8955 2.58016 -1.17934e-18)
(25.8995 2.58195 1.3833e-18)
(25.9039 2.584 -2.16965e-18)
(25.9086 2.58636 2.24468e-18)
(25.9133 2.58904 -5.83436e-19)
(25.9182 2.59206 5.89306e-19)
(25.9231 2.59543 -1.35617e-18)
(25.9281 2.5992 2.85852e-19)
(25.9331 2.60338 -4.91297e-20)
(25.9382 2.60801 1.62839e-18)
(25.9432 2.61311 -3.42482e-18)
(25.9481 2.6187 -1.15872e-17)
(25.9529 2.62481 2.82171e-18)
(25.9574 2.63145 -3.98951e-18)
(25.9617 2.63864 -1.02725e-18)
(25.9657 2.64639 3.39254e-18)
(25.9692 2.65471 -4.74044e-18)
(25.9722 2.66358 -9.26776e-18)
(25.9747 2.67302 -6.64013e-19)
(25.9765 2.683 -2.23164e-19)
(25.9776 2.6935 3.13897e-18)
(25.978 2.70449 -5.03071e-18)
(25.9775 2.71594 -3.97389e-17)
(25.9762 2.72779 -3.29483e-18)
(25.9739 2.74001 3.98526e-18)
(25.9707 2.75252 8.37565e-17)
(25.9665 2.76527 1.04194e-18)
(25.9614 2.77816 -3.84821e-18)
(25.9553 2.79121 6.59543e-17)
(25.9484 2.80416 -3.09174e-17)
(25.941 2.81739 -1.99379e-18)
(25.934 2.82823 3.13147e-18)
(25.9275 2.83899 9.12801e-18)
(25.9202 2.84732 1.62313e-17)
(25.9126 2.86172 -3.4492e-18)
(25.9043 2.86552 -3.23012e-18)
(25.8967 2.88988 -2.37439e-17)
(25.8873 2.8773 -1.47722e-16)
(25.8816 2.93134 -5.01217e-17)
(25.8701 2.86796 -4.16575e-18)
(25.8712 3.00888 -3.67171e-17)
(25.8575 2.79861 2.43813e-18)
(25.8559 3.18446 -9.66546e-17)
(25.9383 2.58056 1.05437e-18)
(25.819 2.62335 3.13806e-19)
(25.8194 2.62333 -3.01965e-19)
(25.8197 2.62318 -2.7638e-19)
(25.82 2.62295 -1.33437e-19)
(25.8202 2.62274 8.29065e-19)
(25.8204 2.62254 5.9273e-19)
(25.8205 2.62231 -5.1737e-19)
(25.82 2.62204 -2.86012e-19)
(25.8188 2.62173 1.2107e-18)
(25.8179 2.62144 -3.66422e-19)
(25.8207 2.62139 9.8523e-20)
(25.8312 2.62175 -7.76356e-19)
(25.8481 2.62234 1.25471e-19)
(25.856 2.62205 7.59085e-19)
(25.8222 2.61855 -4.68301e-19)
(25.7065 2.60878 -2.73844e-18)
(25.4814 2.59022 -7.51886e-19)
(25.1475 2.56197 3.02838e-19)
(24.7371 2.5254 -6.76579e-19)
(24.308 2.48435 -4.03445e-19)
(23.9346 2.44493 5.01313e-19)
(23.695 2.41473 -9.52897e-19)
(23.6527 2.40111 -1.80075e-18)
(23.8355 2.40907 -1.01492e-18)
(24.2181 2.43891 1.43124e-18)
(24.7209 2.48506 -1.64834e-18)
(25.2274 2.53673 1.27342e-18)
(25.6249 2.58147 -1.66483e-18)
(25.8526 2.61051 3.18715e-18)
(25.9277 2.62287 -3.40401e-19)
(25.9189 2.62425 3.82846e-18)
(25.8922 2.62176 -4.93339e-18)
(25.8789 2.61987 1.40191e-18)
(25.8803 2.61981 3.6729e-18)
(25.8875 2.62098 6.39098e-18)
(25.8938 2.62254 -2.41925e-18)
(25.8981 2.62407 -1.04864e-18)
(25.9013 2.6256 5.53236e-20)
(25.9044 2.62727 -5.49758e-19)
(25.9079 2.62919 -2.26142e-18)
(25.9117 2.63141 -3.71523e-18)
(25.9155 2.63393 1.6245e-18)
(25.9194 2.63676 -8.36612e-20)
(25.9233 2.63993 8.56408e-19)
(25.9273 2.64346 -4.92474e-19)
(25.9312 2.64737 -6.53023e-19)
(25.9351 2.65169 3.0882e-18)
(25.9388 2.65645 2.48041e-18)
(25.9425 2.66165 -2.23471e-18)
(25.9459 2.66733 -5.42398e-18)
(25.949 2.6735 -1.70058e-17)
(25.9518 2.68015 1.48214e-18)
(25.9542 2.68732 9.50089e-18)
(25.9561 2.69498 -1.31735e-17)
(25.9576 2.70316 -1.82303e-17)
(25.9584 2.71183 1.25125e-17)
(25.9586 2.72098 -5.38452e-18)
(25.958 2.73059 6.73215e-18)
(25.9568 2.74062 -8.13893e-18)
(25.9547 2.75106 -6.95321e-17)
(25.9518 2.76184 1.03113e-17)
(25.948 2.77294 4.28662e-17)
(25.9434 2.78425 -1.60302e-17)
(25.9379 2.79583 -3.78622e-18)
(25.9317 2.8074 2.13837e-17)
(25.925 2.81938 -2.14181e-17)
(25.9187 2.82927 -4.23893e-18)
(25.9129 2.83921 5.05509e-17)
(25.9063 2.84689 3.13848e-18)
(25.8995 2.86045 -1.2173e-17)
(25.8918 2.86394 1.19179e-17)
(25.8853 2.88728 5.1943e-17)
(25.8762 2.87518 3.82119e-17)
(25.8722 2.92756 4.04324e-17)
(25.8603 2.86613 -8.31871e-17)
(25.8643 3.00405 -3.82174e-17)
(25.8484 2.79768 3.20911e-18)
(25.852 3.17951 5.98644e-17)
(25.9293 2.57863 -1.69143e-17)
(25.8383 2.67072 1.00197e-19)
(25.8387 2.67068 1.62758e-20)
(25.839 2.67055 1.5084e-19)
(25.8393 2.67036 -2.06394e-19)
(25.8395 2.67017 -8.4503e-19)
(25.8398 2.66999 -6.51058e-19)
(25.8401 2.6698 -8.91227e-20)
(25.8403 2.66959 1.94591e-19)
(25.8402 2.66936 -1.37582e-18)
(25.8394 2.66908 1.4384e-19)
(25.838 2.6688 8.36523e-20)
(25.8373 2.66858 -2.16356e-19)
(25.8413 2.66858 -7.51677e-19)
(25.8538 2.66891 -1.36564e-19)
(25.8725 2.66917 1.61e-19)
(25.8818 2.66814 9.74978e-19)
(25.8513 2.66363 2.27901e-19)
(25.7437 2.65294 -1.34187e-18)
(25.5315 2.63387 9.43737e-19)
(25.2139 2.60579 2.21983e-19)
(24.822 2.57038 4.32347e-19)
(24.4151 2.53186 1.35202e-18)
(24.0695 2.4966 3.11523e-18)
(23.8631 2.47202 2.51543e-18)
(23.8544 2.46471 -1.10125e-19)
(24.0615 2.47821 -6.61538e-19)
(24.4472 2.51094 4.13327e-19)
(24.923 2.55585 5.55841e-19)
(25.3751 2.60214 2.28908e-18)
(25.7084 2.63936 3.74308e-18)
(25.886 2.66178 -6.21495e-18)
(25.9369 2.67035 8.11685e-19)
(25.9235 2.67047 8.78346e-19)
(25.8993 2.66797 -2.45363e-18)
(25.8876 2.66631 -4.05697e-18)
(25.8886 2.66632 3.62223e-18)
(25.8943 2.66737 2.8009e-19)
(25.8992 2.6687 4.35673e-20)
(25.9023 2.66997 -1.88512e-19)
(25.9044 2.67123 2.41199e-18)
(25.9067 2.67265 -2.26989e-19)
(25.9092 2.67431 -1.32576e-18)
(25.912 2.67623 -3.80717e-19)
(25.9147 2.67842 -8.94459e-19)
(25.9175 2.68089 -6.87853e-19)
(25.9203 2.68366 2.21516e-19)
(25.9231 2.68675 2.21673e-19)
(25.9258 2.69019 2.71327e-18)
(25.9284 2.69399 1.46897e-18)
(25.9308 2.69818 -1.63279e-18)
(25.933 2.70277 2.888e-18)
(25.935 2.70778 -2.74725e-18)
(25.9367 2.71323 -8.66872e-19)
(25.938 2.71912 1.07925e-17)
(25.9388 2.72547 8.88536e-20)
(25.9392 2.73227 8.78433e-18)
(25.9391 2.73953 -3.8537e-17)
(25.9384 2.74723 -1.92977e-17)
(25.937 2.75536 1.15515e-17)
(25.935 2.76392 1.33191e-17)
(25.9323 2.77286 -2.54456e-17)
(25.9289 2.78218 1.98294e-18)
(25.9246 2.79179 -4.75259e-17)
(25.9197 2.80175 -6.33175e-18)
(25.9141 2.81182 2.80303e-17)
(25.908 2.8224 1.51388e-17)
(25.9024 2.83122 3.52511e-17)
(25.8972 2.84023 -2.59364e-17)
(25.8913 2.84719 3.58299e-17)
(25.8852 2.85978 -1.03418e-17)
(25.8783 2.86294 -6.21567e-17)
(25.8727 2.88509 -3.25708e-17)
(25.8644 2.87354 6.46146e-17)
(25.8616 2.92403 -5.1167e-17)
(25.8502 2.86475 7.3613e-17)
(25.8558 2.99939 1.18675e-16)
(25.8401 2.79731 8.40396e-17)
(25.8459 3.17489 -4.66356e-17)
(25.9226 2.57737 1.42943e-16)
(25.8549 2.71101 -2.43583e-19)
(25.8552 2.71095 -6.26362e-20)
(25.8554 2.71082 1.01125e-19)
(25.8557 2.71064 2.51448e-19)
(25.856 2.71047 4.78537e-19)
(25.8563 2.7103 2.96245e-19)
(25.8565 2.71013 3.38228e-19)
(25.8568 2.70993 1.3578e-19)
(25.857 2.70973 4.83312e-19)
(25.8571 2.70951 -8.769e-19)
(25.8568 2.70926 4.01232e-20)
(25.8557 2.70897 -1.59362e-19)
(25.8542 2.70867 6.95021e-19)
(25.8548 2.70849 2.91148e-19)
(25.8618 2.70859 -2.67155e-19)
(25.8784 2.70902 4.40251e-19)
(25.9008 2.70937 1.33741e-18)
(25.9126 2.70837 -2.93724e-19)
(25.883 2.70384 -3.04868e-19)
(25.7751 2.69305 -1.06465e-18)
(25.5624 2.67381 -5.39277e-20)
(25.2456 2.64564 -6.04632e-19)
(24.86 2.61056 -5.64566e-19)
(24.4701 2.57332 -6.38111e-19)
(24.156 2.54072 -1.43148e-18)
(23.9944 2.52029 2.5303e-18)
(24.0356 2.51807 -1.2172e-19)
(24.282 2.53622 -6.29488e-20)
(24.6793 2.5715 -4.09344e-18)
(25.13 2.61559 -2.87753e-18)
(25.5268 2.65774 6.46734e-19)
(25.7953 2.689 7.40168e-19)
(25.921 2.70578 -3.49445e-18)
(25.9439 2.71051 -1.31801e-18)
(25.9229 2.70892 4.45457e-19)
(25.9009 2.70619 2.98414e-19)
(25.8928 2.70487 1.5322e-18)
(25.895 2.70513 5.16896e-19)
(25.8998 2.70612 1.65129e-19)
(25.9032 2.70717 -8.33799e-19)
(25.9049 2.70813 -2.04078e-19)
(25.9062 2.70912 1.37595e-18)
(25.9077 2.7103 -5.57913e-19)
(25.9094 2.71171 -7.24473e-20)
(25.9112 2.71335 3.63396e-19)
(25.913 2.71523 -3.21913e-19)
(25.9148 2.71736 -9.80361e-20)
(25.9165 2.71977 3.04471e-20)
(25.9182 2.72246 -8.09648e-19)
(25.9197 2.72548 5.64158e-18)
(25.9211 2.72881 5.84319e-18)
(25.9222 2.73251 5.72876e-18)
(25.9231 2.73658 -5.00634e-18)
(25.9237 2.74102 4.84803e-18)
(25.9239 2.74587 -4.12227e-18)
(25.9238 2.75112 4.76546e-18)
(25.9232 2.75679 2.34413e-17)
(25.9221 2.76288 3.87666e-17)
(25.9205 2.7694 8.46868e-19)
(25.9183 2.77633 -8.15725e-18)
(25.9156 2.78366 1.63626e-18)
(25.9122 2.7914 -4.93624e-17)
(25.9081 2.79948 3.06958e-17)
(25.9034 2.80797 -1.6871e-18)
(25.8981 2.81665 -2.082e-17)
(25.8925 2.82593 -1.01059e-17)
(25.8872 2.83372 1.67675e-17)
(25.8825 2.84185 -9.6994e-18)
(25.8771 2.8481 -1.19264e-17)
(25.8716 2.85972 -6.71395e-19)
(25.8653 2.86256 -5.62737e-18)
(25.8603 2.88351 8.52242e-18)
(25.8528 2.87246 -1.73433e-17)
(25.8507 2.92107 2.93125e-18)
(25.8402 2.86389 5.08878e-18)
(25.8466 2.99528 -6.50451e-17)
(25.8319 2.79743 -1.40232e-16)
(25.8389 3.17108 3.75069e-17)
(25.9161 2.57709 -8.19609e-17)
(25.8702 2.74521 -4.20024e-20)
(25.8704 2.74508 -2.03438e-19)
(25.8707 2.74491 2.58316e-20)
(25.8709 2.74474 -8.45006e-20)
(25.8711 2.74457 2.34213e-20)
(25.8713 2.7444 -3.86844e-19)
(25.8715 2.74422 1.04341e-20)
(25.8718 2.74402 7.38469e-20)
(25.872 2.74381 3.54006e-19)
(25.8722 2.7436 3.5839e-20)
(25.8722 2.74336 4.50553e-19)
(25.8716 2.74307 -5.90097e-19)
(25.8703 2.74276 -2.01726e-19)
(25.8694 2.74248 2.27064e-19)
(25.8717 2.74238 -2.56829e-19)
(25.8815 2.74266 -5.3033e-19)
(25.9014 2.74334 8.80516e-19)
(25.9264 2.74393 -8.78576e-19)
(25.9383 2.74304 6.92778e-19)
(25.9053 2.73833 1.49964e-19)
(25.79 2.72696 1.69663e-19)
(25.5682 2.70677 -7.3757e-19)
(25.2455 2.67761 2.29051e-19)
(24.8643 2.64215 1.72021e-18)
(24.4959 2.60593 -4.3269e-19)
(24.2236 2.57637 -1.33111e-18)
(24.1194 2.56097 5.60702e-19)
(24.2198 2.56483 2.73292e-19)
(24.5077 2.58837 -1.07391e-18)
(24.9125 2.62635 1.67547e-18)
(25.3316 2.66924 -1.41538e-18)
(25.6687 2.70661 1.85086e-18)
(25.8712 2.73128 1.44899e-18)
(25.9464 2.74206 -7.75525e-19)
(25.944 2.74308 -1.007e-18)
(25.9185 2.74023 -5.8678e-19)
(25.901 2.73772 -1.71948e-18)
(25.8973 2.73696 -6.5171e-19)
(25.9005 2.73744 -4.31045e-19)
(25.9041 2.73827 6.4617e-19)
(25.9057 2.739 -9.38502e-19)
(25.9063 2.73966 3.58482e-19)
(25.9068 2.74041 1.04598e-18)
(25.9076 2.74136 5.1399e-19)
(25.9085 2.74253 1.03383e-18)
(25.9095 2.74389 -6.79757e-20)
(25.9103 2.74547 1.92027e-20)
(25.9111 2.74729 -2.49966e-19)
(25.9118 2.74936 -2.667e-18)
(25.9123 2.7517 -1.19788e-19)
(25.9127 2.75434 -1.53156e-18)
(25.9128 2.75728 -4.86248e-19)
(25.9127 2.76055 -3.12416e-18)
(25.9122 2.76418 2.85631e-18)
(25.9115 2.76815 -8.00064e-18)
(25.9103 2.77251 -8.98032e-18)
(25.9087 2.77725 -5.25797e-18)
(25.9067 2.7824 -7.87245e-18)
(25.9042 2.78795 -1.03605e-17)
(25.9012 2.79389 -1.10246e-17)
(25.8976 2.80026 2.45233e-17)
(25.8935 2.80699 -7.54087e-18)
(25.8888 2.81418 -3.70313e-18)
(25.8836 2.82161 3.3508e-18)
(25.8782 2.8297 -9.93831e-19)
(25.8732 2.83655 -1.70515e-17)
(25.8687 2.84384 -1.06685e-17)
(25.8636 2.84943 -2.51741e-17)
(25.8585 2.86013 -2.96488e-17)
(25.8526 2.86266 2.45198e-17)
(25.8481 2.88242 6.20848e-17)
(25.8412 2.87189 -1.98569e-17)
(25.8397 2.91861 2.48612e-19)
(25.83 2.86352 -6.37233e-17)
(25.8371 2.99171 4.53414e-19)
(25.8234 2.79813 3.10505e-17)
(25.8312 3.16794 2.90987e-18)
(25.9086 2.57816 -2.28365e-16)
(25.8841 2.77407 6.36437e-20)
(25.8842 2.77392 1.09695e-19)
(25.8844 2.77375 -1.20346e-19)
(25.8846 2.77359 -1.62512e-19)
(25.8847 2.77341 -1.07458e-19)
(25.8849 2.77323 9.90549e-20)
(25.8851 2.77304 6.37535e-20)
(25.8852 2.77284 -1.82893e-19)
(25.8854 2.77263 -3.06887e-19)
(25.8855 2.77241 1.47021e-19)
(25.8857 2.77218 -1.4454e-19)
(25.8858 2.77193 3.82036e-19)
(25.8856 2.77165 -1.26781e-19)
(25.8848 2.77134 7.08826e-21)
(25.8834 2.771 -1.11853e-19)
(25.8829 2.77074 1.19813e-19)
(25.8867 2.77073 -2.50666e-19)
(25.899 2.7712 2.50465e-19)
(25.9219 2.77211 -1.37889e-19)
(25.9485 2.77287 -3.07922e-19)
(25.9584 2.77188 1.09634e-19)
(25.9175 2.76657 4.69304e-20)
(25.7884 2.75397 2.37965e-19)
(25.5509 2.73214 -6.5951e-19)
(25.2187 2.7015 -1.47167e-19)
(24.8438 2.66569 1.22015e-18)
(24.5049 2.63116 6.88427e-19)
(24.286 2.60584 4.88614e-19)
(24.2498 2.59683 9.96009e-19)
(24.4143 2.60774 1.05939e-20)
(24.7413 2.63676 1.69189e-18)
(25.1451 2.67664 -6.46795e-19)
(25.5224 2.71697 1.38424e-18)
(25.7922 2.74818 6.74876e-19)
(25.9272 2.76552 1.13265e-18)
(25.9569 2.7705 6.61972e-19)
(25.9369 2.76861 1.92543e-18)
(25.9124 2.76531 2.63753e-19)
(25.9014 2.76343 1.83076e-18)
(25.9015 2.76321 1.31575e-18)
(25.9047 2.76375 -3.79622e-19)
(25.9066 2.76431 2.41975e-19)
(25.9068 2.76476 -1.43492e-18)
(25.9065 2.76521 -1.98805e-20)
(25.9064 2.7658 -6.06182e-19)
(25.9064 2.76658 1.34117e-19)
(25.9065 2.76753 4.8093e-20)
(25.9065 2.76865 -4.94937e-19)
(25.9063 2.76998 4.15756e-19)
(25.9061 2.77153 -1.38633e-18)
(25.9056 2.77332 1.4884e-18)
(25.905 2.77537 1.07845e-19)
(25.9042 2.77769 -3.92924e-18)
(25.903 2.78032 -1.6206e-18)
(25.9016 2.78325 -4.15455e-18)
(25.8999 2.78653 3.54273e-18)
(25.8977 2.79016 -1.66751e-17)
(25.8952 2.79415 -2.84035e-18)
(25.8922 2.79854 -3.02064e-18)
(25.8889 2.80331 8.28289e-18)
(25.885 2.8085 -1.86142e-17)
(25.8807 2.81407 1.35301e-17)
(25.8758 2.82012 -9.43429e-18)
(25.8705 2.82645 -2.4074e-17)
(25.865 2.83348 -1.40655e-17)
(25.8601 2.83948 1.23957e-17)
(25.8557 2.84601 1.4509e-17)
(25.8508 2.85101 2.50452e-18)
(25.8459 2.86084 3.53777e-17)
(25.8403 2.86311 -1.07199e-18)
(25.8361 2.88172 -4.46662e-17)
(25.8296 2.87172 -2.32106e-17)
(25.8286 2.9166 -1.76708e-17)
(25.8195 2.86362 4.29824e-17)
(25.827 2.98864 -1.5714e-18)
(25.8144 2.79945 9.10975e-17)
(25.823 3.16533 -8.03727e-19)
(25.8997 2.5808 2.19645e-16)
(25.8981 2.79791 -2.88069e-20)
(25.8982 2.79776 -1.19997e-19)
(25.8983 2.79759 -1.17087e-22)
(25.8984 2.79742 9.28765e-20)
(25.8985 2.79724 -4.41777e-20)
(25.8986 2.79706 7.92769e-20)
(25.8987 2.79687 -1.4703e-19)
(25.8988 2.79666 -1.13301e-19)
(25.8989 2.79645 2.65917e-19)
(25.8989 2.79622 -2.64743e-19)
(25.899 2.79599 -6.04986e-20)
(25.8991 2.79574 -4.66157e-20)
(25.8992 2.79548 3.53672e-19)
(25.8992 2.7952 1.0363e-19)