/*--------------------------------*- C++ -*----------------------------------*\
| =========                 |                                                 |
| \\      /  F ield         | OpenFOAM: The Open Source CFD Toolbox           |
|  \\    /   O peration     | Version:  2506                                  |
|   \\  /    A nd           | Website:  www.openfoam.com                      |
|    \\/     M anipulation  |                                                 |
\*---------------------------------------------------------------------------*/
FoamFile
{
    version     2.0;
    format      ascii;
    arch        "LSB;label=32;scalar=64";
    class       volSymmTensorField;
    location    "500";
    object      turbulenceProperties:R;
}
// * * * * * * * * * * * * * * * * * * * * * * * * * * * * * * * * * * * * * //

dimensions      [0 2 -2 0 0 0 0];

internalField   nonuniform List<symmTensor> 
1340
(
(6.83709e-07 1.4943e-08 -2.47282e-20 5.44167e-07 -2.53608e-21 6.50936e-07)
(4.35331e-07 -1.18626e-08 -2.43796e-20 5.37387e-07 -3.07046e-21 4.54957e-07)
(6.94352e-07 1.64882e-08 1.28609e-20 5.52187e-07 1.27852e-21 6.59681e-07)
(5.00161e-07 2.45812e-08 1.30636e-19 4.05686e-07 1.44907e-20 4.78656e-07)
(4.25987e-07 -1.27972e-08 3.23616e-23 5.19011e-07 -1.1334e-22 4.38218e-07)
(6.89454e-07 1.95986e-08 -2.87849e-22 5.53788e-07 6.79954e-23 6.62379e-07)
(1.8643e-07 1.07747e-08 -6.64112e-20 2.11028e-07 -7.87134e-21 1.80251e-07)
(4.93253e-07 2.29796e-08 2.13391e-21 4.00115e-07 4.4528e-22 4.73363e-07)
(4.19432e-07 -1.32476e-08 2.91335e-20 5.06839e-07 3.60214e-21 4.27504e-07)
(6.90062e-07 2.1138e-08 -5.84343e-20 5.57042e-07 -6.00747e-21 6.66348e-07)
(1.83361e-07 1.85351e-08 -1.58399e-19 1.6633e-07 -1.83418e-20 1.66519e-07)
(3.42864e-07 2.24394e-08 -8.67214e-20 2.80492e-07 -9.6071e-21 3.24348e-07)
(1.85362e-07 1.06534e-08 2.93123e-20 2.08624e-07 3.45217e-21 1.78319e-07)
(4.88516e-07 2.10788e-08 -4.3263e-20 3.95277e-07 -4.80919e-21 4.68734e-07)
(4.12793e-07 -1.31923e-08 -1.22762e-19 4.9693e-07 -1.51871e-20 4.18966e-07)
(6.94399e-07 2.18077e-08 5.60998e-20 5.61017e-07 5.63891e-21 6.70952e-07)
(2.67372e-07 2.27522e-08 2.34249e-20 2.24724e-07 2.69577e-21 2.42623e-07)
(3.13837e-07 2.33894e-08 -6.26088e-21 2.57952e-07 -7.43516e-22 2.91307e-07)
(1.78409e-07 1.75948e-08 6.09349e-22 1.6102e-07 -1.11695e-22 1.6126e-07)
(3.37312e-07 2.05736e-08 2.90343e-22 2.74354e-07 -4.37874e-23 3.18587e-07)
(1.84149e-07 1.05169e-08 2.06225e-20 2.06196e-07 2.47984e-21 1.76366e-07)
(4.84203e-07 1.9229e-08 -2.18576e-21 3.90919e-07 -3.39702e-22 4.64572e-07)
(4.07632e-07 -1.31334e-08 7.40002e-23 4.88804e-07 -6.3766e-24 4.11955e-07)
(6.98699e-07 2.24094e-08 -2.13039e-22 5.65071e-07 5.06365e-23 6.7571e-07)
(3.81428e-07 2.54626e-08 -5.27831e-20 3.08958e-07 -6.13097e-21 3.45945e-07)
(3.34189e-07 2.40182e-08 -6.72799e-20 2.73124e-07 -7.64987e-21 3.02369e-07)
(3.3319e-07 2.37484e-08 -8.42347e-20 2.71832e-07 -9.39499e-21 3.04631e-07)
(2.57448e-07 2.11078e-08 -3.42237e-20 2.15059e-07 -3.71751e-21 2.3277e-07)
(3.05909e-07 2.15453e-08 3.80157e-21 2.49768e-07 5.58731e-22 2.83353e-07)
(1.73141e-07 1.66274e-08 6.44246e-20 1.55491e-07 7.41718e-21 1.55768e-07)
(3.31748e-07 1.8768e-08 1.33632e-20 2.68465e-07 1.40433e-21 3.12998e-07)
(1.83023e-07 1.02869e-08 -4.62347e-20 2.03822e-07 -5.40722e-21 1.74431e-07)
(4.80297e-07 1.75544e-08 4.1502e-20 3.87247e-07 4.57159e-21 4.61129e-07)
(4.0444e-07 -1.32062e-08 6.88047e-23 4.82686e-07 -4.2874e-23 4.06678e-07)
(7.02293e-07 2.29667e-08 1.05399e-22 5.69011e-07 -2.34581e-23 6.80449e-07)
(4.44954e-07 2.28919e-08 -1.24854e-20 3.53332e-07 -1.19502e-21 3.99056e-07)
(4.16393e-07 2.3348e-08 6.20197e-20 3.32417e-07 6.83192e-21 3.74702e-07)
(3.826e-07 2.3134e-08 7.20819e-21 3.07239e-07 7.15075e-22 3.44425e-07)
(3.6571e-07 2.29534e-08 4.15256e-20 2.94515e-07 4.57348e-21 3.30914e-07)
(3.20086e-07 2.18199e-08 1.68493e-22 2.60064e-07 -1.27398e-22 2.88765e-07)
(3.21643e-07 2.16438e-08 3.64696e-22 2.60773e-07 -2.38675e-23 2.93394e-07)
(2.47293e-07 1.94632e-08 2.868e-20 2.05323e-07 3.21871e-21 2.22772e-07)
(2.97797e-07 1.97178e-08 -3.62168e-21 2.41613e-07 -4.4747e-22 2.75308e-07)
(1.67663e-07 1.56228e-08 -2.99409e-22 1.49817e-07 7.70649e-23 1.50105e-07)
(3.26372e-07 1.7018e-08 -6.12128e-23 2.62915e-07 2.058e-23 3.0767e-07)
(1.81914e-07 9.9708e-09 1.3273e-22 2.01525e-07 -2.59206e-23 1.7253e-07)
(4.77054e-07 1.59996e-08 -2.25651e-22 3.84267e-07 5.97581e-23 4.58399e-07)
(4.02852e-07 -1.33492e-08 1.06022e-19 4.78582e-07 1.32341e-20 4.03161e-07)
(7.05499e-07 2.33051e-08 2.84669e-20 5.72603e-07 2.89391e-21 6.84855e-07)
(5.70339e-07 1.26732e-08 -3.43816e-20 4.42714e-07 -3.54689e-21 5.06522e-07)
(5.30647e-07 1.53866e-08 2.5441e-20 4.13385e-07 2.82978e-21 4.72017e-07)
(4.92548e-07 1.73912e-08 1.28415e-20 3.85337e-07 1.27609e-21 4.3893e-07)
(4.56367e-07 1.87451e-08 -4.76742e-21 3.58693e-07 -5.64714e-22 4.07557e-07)
(4.21036e-07 1.97542e-08 6.89766e-23 3.32753e-07 -8.17481e-24 3.76796e-07)
(3.95499e-07 2.0448e-08 -2.3438e-22 3.14134e-07 4.40183e-23 3.55121e-07)
(3.6385e-07 2.0493e-08 -2.64016e-23 2.90644e-07 -1.0719e-22 3.26731e-07)
(3.49637e-07 2.05102e-08 -4.52598e-20 2.80027e-07 -5.00871e-21 3.15656e-07)
(3.05742e-07 1.96669e-08 -2.16133e-20 2.47003e-07 -2.25848e-21 2.75025e-07)
(3.09809e-07 1.95698e-08 2.70612e-20 2.49675e-07 3.04678e-21 2.8197e-07)
(2.36978e-07 1.78249e-08 -2.73009e-20 1.95576e-07 -3.12606e-21 2.12686e-07)
(2.89554e-07 1.79113e-08 1.09547e-23 2.33518e-07 -2.80159e-23 2.67202e-07)
(1.62007e-07 1.459e-08 -5.82643e-20 1.44047e-07 -6.72112e-21 1.44311e-07)
(3.2116e-07 1.5314e-08 -1.20738e-20 2.57651e-07 -1.27565e-21 3.0254e-07)
(1.80785e-07 9.59218e-09 2.39231e-20 1.99341e-07 2.80191e-21 1.7069e-07)
(4.74374e-07 1.45115e-08 -3.76318e-20 3.81797e-07 -4.1549e-21 4.56175e-07)
(4.0238e-07 -1.35137e-08 -8.94908e-20 4.76088e-07 -1.11243e-20 4.01049e-07)
(7.09077e-07 2.33918e-08 -3.63854e-20 5.76256e-07 -3.61651e-21 6.89412e-07)
(7.21923e-07 -1.47208e-08 -3.20645e-20 5.5986e-07 -3.24942e-21 6.40878e-07)
(6.8104e-07 -8.80461e-09 -4.83507e-21 5.26833e-07 -3.67596e-22 6.03922e-07)
(6.41142e-07 -3.47536e-09 -5.0144e-21 4.9529e-07 -5.06572e-22 5.68201e-07)
(6.02393e-07 1.26678e-09 -7.78355e-21 4.65248e-07 -7.54149e-22 5.33806e-07)
(5.64904e-07 5.41704e-09 -1.52616e-21 4.36692e-07 -5.55565e-23 5.00785e-07)
(5.28767e-07 8.94383e-09 2.17506e-20 4.09573e-07 2.32941e-21 4.69156e-07)
(4.94105e-07 1.18188e-08 2.503e-20 3.83856e-07 2.61485e-21 4.38975e-07)
(4.60548e-07 1.40238e-08 -5.18527e-23 3.59111e-07 -3.39487e-23 4.09805e-07)
(4.28621e-07 1.56006e-08 1.08114e-20 3.35611e-07 1.19016e-21 3.8214e-07)
(3.96828e-07 1.68244e-08 6.95791e-21 3.12287e-07 7.25139e-22 3.54445e-07)
(3.74275e-07 1.7708e-08 -1.61046e-23 2.95897e-07 -2.47859e-23 3.35393e-07)
(3.4479e-07 1.79789e-08 -1.73519e-24 2.74076e-07 8.52519e-24 3.08896e-07)
(3.33195e-07 1.81645e-08 2.66576e-22 2.65497e-07 -2.15804e-24 3.00185e-07)
(2.91138e-07 1.75859e-08 2.07536e-20 2.33946e-07 2.22833e-21 2.61162e-07)
(2.97671e-07 1.75505e-08 -2.57837e-20 2.38541e-07 -2.88362e-21 2.70365e-07)
(2.26483e-07 1.62122e-08 2.59883e-20 1.85825e-07 2.96407e-21 2.02517e-07)
(2.81138e-07 1.61413e-08 8.65249e-25 2.25464e-07 3.07782e-23 2.59012e-07)
(1.56169e-07 1.35436e-08 5.56677e-20 1.38204e-07 6.36514e-21 1.38408e-07)
(3.15995e-07 1.36595e-08 1.16384e-20 2.52578e-07 1.19012e-21 2.97506e-07)
(1.79656e-07 9.16432e-09 -2.27616e-20 1.97314e-07 -2.69953e-21 1.68949e-07)
(4.72054e-07 1.30809e-08 9.33494e-23 3.79679e-07 2.51746e-23 4.54283e-07)
(4.0278e-07 -1.37006e-08 1.52246e-19 4.74869e-07 1.88683e-20 4.00044e-07)
(7.12302e-07 2.32418e-08 1.56661e-22 5.7943e-07 -6.49882e-23 6.93466e-07)
(8.93387e-07 -6.56205e-08 -7.05025e-21 7.31005e-07 -6.92594e-22 8.12216e-07)
(8.59853e-07 -5.80402e-08 -1.60972e-20 6.96877e-07 -1.48232e-21 7.78379e-07)
(8.25645e-07 -5.0564e-08 7.45335e-21 6.63187e-07 7.22978e-22 7.44425e-07)
(7.90933e-07 -4.3259e-08 -1.40471e-20 6.30081e-07 -1.41782e-21 7.1051e-07)
(7.55947e-07 -3.61949e-08 -4.69518e-21 5.97735e-07 -3.41089e-22 6.7684e-07)
(7.20881e-07 -2.94345e-08 1.72353e-20 5.66277e-07 1.73349e-21 6.43575e-07)
(6.85937e-07 -2.30351e-08 1.79536e-21 5.35826e-07 1.22955e-22 6.10874e-07)
(6.51296e-07 -1.7046e-08 1.72358e-22 5.06465e-07 -6.87276e-23 5.78871e-07)
(6.17128e-07 -1.15052e-08 -5.31118e-21 4.78257e-07 -5.65442e-22 5.47682e-07)
(5.83563e-07 -6.43821e-09 -3.90033e-21 4.51221e-07 -3.8447e-22 5.17381e-07)
(5.5073e-07 -1.8598e-09 4.45925e-23 4.2537e-07 4.35561e-24 4.88038e-07)
(5.18755e-07 2.21804e-09 5.45456e-24 4.00711e-07 -6.03881e-24 4.59722e-07)
(4.8771e-07 5.75088e-09 -1.26673e-22 3.77202e-07 1.12463e-23 4.32442e-07)
(4.57799e-07 8.69903e-09 -4.02173e-21 3.54881e-07 -3.8197e-22 4.06336e-07)
(4.28577e-07 1.1026e-08 3.46718e-23 3.33268e-07 -2.0334e-23 3.80896e-07)
(4.00756e-07 1.27555e-08 -1.03683e-20 3.12777e-07 -1.11189e-21 3.56794e-07)
(3.72434e-07 1.41335e-08 -6.65145e-21 2.91994e-07 -6.96387e-22 3.32095e-07)
(3.52808e-07 1.51589e-08 -1.53455e-23 2.77768e-07 1.51028e-23 3.15603e-07)
(3.25496e-07 1.562e-08 -1.66099e-24 2.57593e-07 1.0967e-22 2.90996e-07)
(3.16446e-07 1.59437e-08 4.08626e-20 2.50975e-07 4.55166e-21 2.84565e-07)
(2.76324e-07 1.56009e-08 1.06965e-20 2.20937e-07 1.22534e-21 2.47229e-07)
(2.8526e-07 1.56085e-08 4.20779e-20 2.27404e-07 4.63054e-21 2.58616e-07)
(2.15847e-07 1.46435e-08 -2.47789e-20 1.76113e-07 -2.8488e-21 1.92313e-07)
(2.7255e-07 1.44235e-08 1.4476e-23 2.17455e-07 -8.70433e-24 2.50747e-07)
(1.50182e-07 1.2496e-08 -3.79463e-20 1.32331e-07 -4.26695e-21 1.32435e-07)
(3.10825e-07 1.20615e-08 3.20025e-20 2.47656e-07 3.6518e-21 2.92527e-07)
(1.7852e-07 8.69477e-09 5.53449e-20 1.9543e-07 6.44085e-21 1.67297e-07)
(4.69995e-07 1.17059e-08 -3.31453e-24 3.77847e-07 -4.15806e-23 4.52655e-07)
(4.04373e-07 -1.39225e-08 -9.89729e-23 4.75275e-07 2.24551e-23 4.00432e-07)
(7.15553e-07 2.28957e-08 8.18565e-21 5.82501e-07 8.32801e-22 6.97467e-07)
(1.00628e-06 -1.21649e-07 5.9753e-21 9.45169e-07 5.40569e-22 9.75754e-07)
(9.94796e-07 -1.18351e-07 2.2603e-22 9.24941e-07 2.27972e-23 9.59909e-07)
(9.82116e-07 -1.147e-07 3.70951e-22 9.03705e-07 4.52097e-23 9.42957e-07)
(9.68139e-07 -1.10698e-07 1.77571e-20 8.81435e-07 1.63755e-21 9.24837e-07)
(9.52768e-07 -1.06339e-07 7.98329e-21 8.58113e-07 7.45281e-22 9.05492e-07)
(9.35946e-07 -1.01629e-07 1.25723e-20 8.3377e-07 1.15631e-21 8.8491e-07)
(9.17665e-07 -9.65821e-08 3.93093e-21 8.08477e-07 3.6095e-22 8.6312e-07)
(8.97944e-07 -9.12189e-08 7.16487e-21 7.82324e-07 6.48891e-22 8.40182e-07)
(8.7682e-07 -8.55731e-08 -4.13098e-21 7.55444e-07 -4.77834e-22 8.16174e-07)
(8.5439e-07 -7.96779e-08 -2.47833e-20 7.27983e-07 -2.30457e-21 7.91225e-07)
(8.30723e-07 -7.35774e-08 4.7554e-21 7.00086e-07 4.7855e-22 7.65439e-07)
(8.05925e-07 -6.73195e-08 -6.52946e-21 6.71913e-07 -6.46129e-22 7.38947e-07)
(7.80138e-07 -6.09585e-08 3.15243e-23 6.43643e-07 1.14709e-23 7.11914e-07)
(7.53494e-07 -5.45514e-08 4.41236e-23 6.15436e-07 -2.36248e-23 6.84483e-07)
(7.2616e-07 -4.81587e-08 -9.12361e-24 5.87469e-07 3.70657e-24 6.56829e-07)
(6.98261e-07 -4.18395e-08 4.43192e-23 5.59873e-07 -1.03523e-23 6.29077e-07)
(6.69983e-07 -3.56537e-08 1.55327e-23 5.32805e-07 -1.25569e-23 6.014e-07)
(6.41481e-07 -2.96606e-08 -5.83949e-23 5.0639e-07 -1.85006e-23 5.73938e-07)
(6.12918e-07 -2.39167e-08 -8.99627e-21 4.80738e-07 -8.35283e-22 5.46827e-07)
(5.84445e-07 -1.84697e-08 1.81932e-20 4.55935e-07 1.88456e-21 5.20187e-07)
(5.56197e-07 -1.33656e-08 -1.51027e-21 4.32037e-07 -2.1863e-22 4.94112e-07)
(5.28282e-07 -8.63262e-09 3.75828e-21 4.09069e-07 3.91728e-22 4.6867e-07)
(5.00797e-07 -4.29515e-09 1.56506e-23 3.87037e-07 -1.81299e-23 4.4391e-07)
(4.73861e-07 -3.71093e-10 -2.40349e-22 3.6596e-07 -8.08325e-23 4.19904e-07)
(4.47521e-07 3.08743e-09 -1.95572e-20 3.45793e-07 -2.12518e-21 3.96646e-07)
(4.22045e-07 6.03152e-09 -1.90882e-20 3.26637e-07 -1.94291e-21 3.74342e-07)
(3.96912e-07 8.40943e-09 1.38286e-20 3.07969e-07 1.51134e-21 3.52414e-07)
(3.73009e-07 1.02263e-08 -1.09617e-20 2.90334e-07 -1.21183e-21 3.31706e-07)
(3.4806e-07 1.17016e-08 6.32783e-21 2.72006e-07 7.03491e-22 3.09911e-07)
(3.31275e-07 1.28215e-08 -4.81842e-23 2.59862e-07 -1.21585e-23 2.9589e-07)
(3.06125e-07 1.34364e-08 -2.33697e-23 2.41301e-07 -2.8147e-23 2.73158e-07)
(2.99515e-07 1.38673e-08 -1.47376e-20 2.36547e-07 -1.65174e-21 2.68899e-07)
(2.61412e-07 1.37302e-08 -2.89866e-20 2.08059e-07 -3.26352e-21 2.3332e-07)
(2.72654e-07 1.37617e-08 -4.01429e-20 2.16319e-07 -4.3662e-21 2.46789e-07)
(2.05137e-07 1.31334e-08 1.07687e-20 1.66497e-07 1.26673e-21 1.82134e-07)
(2.63822e-07 1.27707e-08 5.87904e-21 2.09514e-07 6.97116e-22 2.4243e-07)
(1.44106e-07 1.14589e-08 2.89954e-20 1.26482e-07 3.29612e-21 1.26451e-07)
(3.05671e-07 1.05229e-08 1.99537e-20 2.42889e-07 2.22541e-21 2.87614e-07)
(1.77344e-07 8.19094e-09 -7.20759e-23 1.93647e-07 -9.1759e-24 1.65701e-07)
(4.68169e-07 1.03742e-08 -3.23462e-24 3.76258e-07 -2.06942e-24 4.51247e-07)
(4.06533e-07 -1.41637e-08 -3.91742e-23 4.76578e-07 -1.04967e-23 4.01589e-07)
(7.18843e-07 2.23587e-08 -7.8188e-21 5.85462e-07 -7.81226e-22 7.01396e-07)
(5.41311e-09 -4.08809e-12 -7.85533e-26 5.42558e-09 -3.2695e-27 5.42018e-09)
(3.30629e-10 -7.72254e-15 5.58761e-29 3.30688e-10 -1.157e-29 3.30662e-10)
(0 -0 0 0 0 0)
(0 -0 -0 0 -0 0)
(2.60202e-05 -1.1294e-05 -1.15302e-20 2.7172e-05 -2.01787e-21 2.6591e-05)
(5.06804e-05 -2.43113e-05 9.24417e-20 5.92602e-05 6.30558e-21 5.50186e-05)
(0.00407857 0.00200821 1.90683e-18 0.00516877 2.86854e-19 0.00462517)
(0.0540269 0.0259532 -6.69074e-18 0.0630563 -5.0804e-19 0.0585366)
(0.210032 0.10054 3.84966e-18 0.242671 -2.53275e-19 0.226337)
(0.464208 0.222383 3.09953e-17 0.537485 2.827e-18 0.500848)
(0.733163 0.352045 7.15772e-18 0.854557 1.0612e-18 0.793876)
(0.917992 0.442209 2.49842e-17 1.08012 2.91899e-18 0.99907)
(0.943756 0.456539 -3.96144e-17 1.1248 -1.59522e-18 1.03429)
(0.776923 0.378211 -1.2649e-16 0.945006 -1.28581e-17 0.86098)
(0.436534 0.215332 4.05435e-17 0.557577 -1.88779e-18 0.497059)
(0.0290778 0.00121042 2.60695e-16 0.0765463 2.40354e-17 0.0528097)
(0.496639 -0.214456 3.57513e-17 0.459969 7.50273e-18 0.478316)
(0.893245 -0.373382 -5.22369e-17 0.783918 -4.66481e-18 0.838587)
(1.02336 -0.421667 7.84006e-18 0.878268 -1.05429e-18 0.950791)
(0.842668 -0.343949 7.54604e-17 0.712955 7.49009e-18 0.77778)
(0.472986 -0.191711 -2.87569e-17 0.396055 -3.16125e-18 0.434506)
(0.154685 -0.0624171 5.3434e-17 0.12868 5.61555e-18 0.141682)
(0.0216974 -0.0087822 -2.73254e-17 0.018131 -2.60142e-18 0.0199143)
(0.000201691 -8.79905e-05 1.70011e-18 0.00019019 1.26219e-19 0.000195993)
(1.55755e-05 7.4591e-06 2.93675e-19 2.88673e-05 3.10859e-20 2.22596e-05)
(0 -0 0 0 0 0)
(0 -0 0 0 0 0)
(0 -0 0 0 0 0)
(1.88494e-08 -4.34295e-11 -1.46679e-25 1.88502e-08 -9.46914e-29 1.88498e-08)
(2.576e-07 -9.10111e-09 1.66394e-22 2.57961e-07 1.7053e-23 2.57782e-07)
(9.40381e-07 -1.22334e-07 -5.26815e-21 9.42452e-07 -4.32003e-22 9.41428e-07)
(1.05261e-06 -1.53673e-07 -9.76983e-21 1.04725e-06 -9.37778e-22 1.04993e-06)
(9.25134e-07 -1.2117e-07 7.35849e-22 9.13817e-07 4.27792e-23 9.19481e-07)
(8.70063e-07 -1.08566e-07 -3.1184e-21 8.53292e-07 -3.02558e-22 8.61683e-07)
(8.69319e-07 -1.08782e-07 6.72422e-21 8.45397e-07 6.14858e-22 8.57365e-07)
(8.68982e-07 -1.08707e-07 -2.12333e-21 8.37466e-07 -1.65861e-22 8.53234e-07)
(8.61095e-07 -1.06609e-07 -5.93363e-21 8.22287e-07 -5.48893e-22 8.41704e-07)
(8.5206e-07 -1.04103e-07 -5.30456e-21 8.06029e-07 -5.07537e-22 8.29059e-07)
(8.43401e-07 -1.01578e-07 4.89647e-21 7.90087e-07 4.52596e-22 8.16764e-07)
(8.34096e-07 -9.8823e-08 6.3353e-26 7.73562e-07 -1.74995e-24 8.03851e-07)
(8.23714e-07 -9.57627e-08 -9.43369e-24 7.56108e-07 1.29412e-23 7.89937e-07)
(8.12239e-07 -9.24108e-08 -5.89822e-24 7.37764e-07 9.16657e-24 7.7503e-07)
(7.99616e-07 -8.8764e-08 -8.38018e-24 7.18536e-07 6.33162e-24 7.59108e-07)
(7.8577e-07 -8.48185e-08 -4.45047e-24 6.98427e-07 2.56441e-24 7.4213e-07)
(7.70692e-07 -8.05807e-08 -2.43384e-22 6.77491e-07 -2.76734e-23 7.24125e-07)
(7.5441e-07 -7.60729e-08 -6.68542e-21 6.5583e-07 -6.38382e-22 7.05152e-07)
(7.37002e-07 -7.1321e-08 4.26297e-23 6.33577e-07 4.09975e-23 6.8532e-07)
(7.18537e-07 -6.63557e-08 1.88534e-20 6.10863e-07 1.81791e-21 6.64729e-07)
(6.99082e-07 -6.12112e-08 2.34649e-23 5.87813e-07 -3.83487e-23 6.43474e-07)
(6.7874e-07 -5.59275e-08 4.77874e-21 5.64573e-07 4.58301e-22 6.2168e-07)
(6.57629e-07 -5.05515e-08 -1.21846e-21 5.413e-07 -1.21882e-22 5.99484e-07)
(6.35875e-07 -4.51311e-08 8.15665e-21 5.18144e-07 8.18011e-22 5.77026e-07)
(6.13574e-07 -3.97142e-08 5.93724e-24 4.95221e-07 -2.67686e-23 5.5441e-07)
(5.90872e-07 -3.43535e-08 2.00658e-24 4.72674e-07 -8.6848e-24 5.31783e-07)
(5.67895e-07 -2.91005e-08 6.55801e-24 4.50617e-07 3.29757e-23 5.09263e-07)
(5.44766e-07 -2.40074e-08 8.6052e-21 4.29151e-07 7.99205e-22 4.86962e-07)
(5.21608e-07 -1.91206e-08 -1.9083e-20 4.08357e-07 -1.94596e-21 4.64984e-07)
(4.98531e-07 -1.44849e-08 4.82269e-21 3.88293e-07 5.57282e-22 4.43412e-07)
(4.75608e-07 -1.01332e-08 -2.70424e-23 3.68973e-07 -5.06724e-24 4.22288e-07)
(4.52904e-07 -6.09187e-09 7.00161e-23 3.50396e-07 -4.94584e-23 4.01646e-07)
(4.3053e-07 -2.38417e-09 -1.07765e-20 3.32589e-07 -1.13874e-21 3.81557e-07)
(4.08492e-07 9.34937e-10 1.15795e-22 3.15495e-07 1.59254e-23 3.61984e-07)
(3.87115e-07 3.81025e-09 3.60278e-21 2.99272e-07 3.378e-22 3.43199e-07)
(3.65802e-07 6.17643e-09 -8.99252e-23 2.83353e-07 1.19856e-23 3.2455e-07)
(3.45598e-07 8.02275e-09 9.38246e-23 2.68408e-07 -2.88901e-23 3.07043e-07)
(3.23894e-07 9.54207e-09 -6.05352e-21 2.52433e-07 -6.8671e-22 2.88039e-07)
(3.09839e-07 1.07122e-08 -1.38882e-20 2.42278e-07 -1.51873e-21 2.76385e-07)
(2.86824e-07 1.14436e-08 -9.06065e-21 2.25296e-07 -9.459e-22 2.55501e-07)
(2.82529e-07 1.19524e-08 4.52261e-21 2.22297e-07 5.59986e-22 2.53287e-07)
(2.46497e-07 1.1989e-08 2.15412e-20 1.95376e-07 2.38322e-21 2.19514e-07)
(2.59926e-07 1.20256e-08 1.9333e-20 2.05335e-07 2.06115e-21 2.34939e-07)
(1.94439e-07 1.16965e-08 -2.72689e-23 1.57046e-07 -6.919e-23 1.72057e-07)
(2.54963e-07 1.11936e-08 -2.56468e-20 2.01639e-07 -2.86827e-21 2.34064e-07)
(1.37982e-07 1.04451e-08 -5.52256e-23 1.20709e-07 2.60325e-23 1.20501e-07)
(3.00436e-07 9.04395e-09 -1.92734e-20 2.38182e-07 -2.08788e-21 2.8266e-07)
(1.76168e-07 7.66661e-09 1.47147e-20 1.92028e-07 1.74499e-21 1.64215e-07)
(4.66483e-07 9.0655e-09 -7.88446e-23 3.74813e-07 -8.01685e-24 4.49947e-07)
(4.09359e-07 -1.44081e-08 -6.07789e-20 4.78918e-07 -7.52492e-21 4.03621e-07)
(7.22222e-07 2.1635e-08 7.4491e-21 5.88313e-07 7.59423e-22 7.05241e-07)
(4.86962e-07 -5.12564e-08 -9.62657e-25 5.77052e-07 -3.08196e-23 5.38144e-07)
(1.05978e-08 -1.99046e-11 6.25406e-25 1.06506e-08 5.28785e-26 1.06273e-08)
(7.08748e-10 -3.34234e-14 1.15978e-27 7.09052e-10 1.94548e-28 7.08898e-10)
(0 -0 -0 0 -0 0)
(0 -0 -0 0 -0 0)
(4.86177e-08 -1.05148e-10 4.62856e-28 4.86261e-08 -1.4552e-27 4.86219e-08)
(0.000329267 -0.000151262 2.20563e-22 0.000343793 -5.65189e-21 0.000336544)
(0.000444329 0.000221203 1.03971e-18 0.000749086 1.10121e-19 0.000597307)
(0.0214663 0.0103729 -3.32627e-18 0.0254977 -3.48803e-19 0.0234822)
(0.118809 0.0569789 1.916e-17 0.138004 1.75593e-18 0.128396)
(0.31955 0.153189 -1.00616e-17 0.370727 -4.40319e-19 0.34513)
(0.570801 0.274122 2.31363e-19 0.66559 -7.9942e-19 0.618205)
(0.778169 0.374757 5.58508e-17 0.914894 5.18507e-18 0.846547)
(0.857773 0.41462 -1.98548e-18 1.01983 1.34943e-18 0.938817)
(0.762132 0.370324 -6.3026e-17 0.921343 -5.71153e-18 0.841751)
(0.493165 0.241973 -1.13222e-18 0.616811 1.59216e-19 0.554993)
(0.109695 0.0552361 -7.20845e-17 0.17008 -8.11945e-18 0.139886)
(0.333188 -0.145876 8.03934e-17 0.316237 5.89936e-18 0.324722)
(0.734837 -0.307625 5.32718e-17 0.646426 5.58915e-18 0.690639)
(0.912834 -0.376037 3.58104e-17 0.783126 2.67347e-18 0.847965)
(0.800654 -0.326539 1.00336e-16 0.676599 1.1803e-17 0.738598)
(0.483024 -0.195536 -1.39945e-16 0.403724 -1.37862e-17 0.443359)
(0.175012 -0.0704693 7.55798e-17 0.145142 7.1579e-18 0.160076)
(0.0278529 -0.011212 -3.07416e-17 0.02309 -2.61849e-18 0.0254712)
(0.000499144 -0.000209455 2.44191e-21 0.000440743 -2.5807e-20 0.000469995)
(2.86327e-05 1.41421e-05 2.0406e-22 4.96379e-05 2.4498e-21 3.91948e-05)
(0 0 -0 0 -0 0)
(0 -0 -0 0 -0 0)
(0 -0 0 0 0 0)
(6.67046e-09 -6.27465e-12 -3.79327e-26 6.67038e-09 -3.58129e-27 6.67042e-09)
(8.09266e-08 -1.06209e-09 3.11936e-24 8.09426e-08 2.18711e-26 8.09349e-08)
(7.08871e-07 -8.35861e-08 3.31924e-21 7.08687e-07 3.13696e-22 7.08802e-07)
(9.185e-07 -1.3912e-07 1.54304e-24 9.10712e-07 -8.8466e-25 9.14635e-07)
(8.05053e-07 -1.09069e-07 6.1605e-21 7.92376e-07 6.00638e-22 7.98739e-07)
(7.32652e-07 -9.17598e-08 -4.89376e-21 7.16416e-07 -4.46097e-22 7.24556e-07)
(7.25044e-07 -9.02092e-08 1.28866e-21 7.03246e-07 1.073e-22 7.14169e-07)
(7.26725e-07 -9.05035e-08 -1.5278e-24 6.98534e-07 -1.09994e-23 7.12654e-07)
(7.21429e-07 -8.89628e-08 6.53905e-21 6.87109e-07 6.21885e-22 7.04291e-07)
(7.142e-07 -8.68787e-08 -1.78892e-21 6.73866e-07 -1.58348e-22 6.94058e-07)
(7.07477e-07 -8.48362e-08 2.31402e-21 6.61062e-07 2.16957e-22 6.84293e-07)
(7.0021e-07 -8.26009e-08 1.21478e-21 6.47743e-07 1.29174e-22 6.74001e-07)
(6.9172e-07 -8.00411e-08 -1.785e-24 6.33354e-07 1.13566e-23 6.62561e-07)
(6.82136e-07 -7.71981e-08 6.59705e-21 6.18055e-07 6.42855e-22 6.50119e-07)
(6.71587e-07 -7.41064e-08 -1.24019e-24 6.02e-07 -1.34001e-24 6.36817e-07)
(6.6005e-07 -7.07663e-08 2.21046e-22 5.85223e-07 3.79222e-23 6.2266e-07)
(6.47492e-07 -6.71779e-08 4.79801e-21 5.67754e-07 4.6283e-22 6.07645e-07)
(6.33966e-07 -6.33581e-08 7.68924e-24 5.49702e-07 -3.06325e-23 5.91855e-07)
(6.19539e-07 -5.93299e-08 -3.11808e-23 5.31187e-07 3.8042e-23 5.75382e-07)
(6.04268e-07 -5.51167e-08 1.00583e-20 5.12316e-07 9.87996e-22 5.5831e-07)
(5.88236e-07 -5.07496e-08 -4.53894e-21 4.93219e-07 -4.74984e-22 5.40743e-07)
(5.71544e-07 -4.62641e-08 9.68409e-24 4.74038e-07 -2.70365e-23 5.22805e-07)
(5.54291e-07 -4.1698e-08 -7.79981e-21 4.54902e-07 -7.66085e-22 5.04608e-07)
(5.36557e-07 -3.70903e-08 5.03668e-24 4.35921e-07 2.22283e-23 4.86247e-07)
(5.18458e-07 -3.24843e-08 1.71409e-24 4.17222e-07 1.63186e-23 4.67846e-07)
(5.00089e-07 -2.79243e-08 7.97136e-21 3.98908e-07 8.2114e-22 4.49502e-07)
(4.81551e-07 -2.34554e-08 1.04321e-21 3.81071e-07 1.05459e-22 4.31313e-07)
(4.62938e-07 -1.91225e-08 1.66826e-21 3.63786e-07 1.36225e-22 4.13362e-07)
(4.4433e-07 -1.49651e-08 -3.18721e-21 3.47103e-07 -3.66097e-22 3.95715e-07)
(4.2578e-07 -1.10188e-08 -8.61929e-21 3.31036e-07 -8.10233e-22 3.78405e-07)
(4.07314e-07 -7.30869e-09 2.56656e-20 3.15568e-07 2.76014e-21 3.61436e-07)
(3.89029e-07 -3.86268e-09 1.04992e-20 3.00729e-07 1.07628e-21 3.44876e-07)
(3.70888e-07 -7.31936e-10 1.77518e-20 2.86441e-07 1.89359e-21 3.28654e-07)
(3.53265e-07 2.02209e-09 2.05507e-20 2.7292e-07 2.1216e-21 3.13098e-07)
(3.35479e-07 4.32343e-09 -1.59161e-20 2.59546e-07 -1.70842e-21 2.97482e-07)
(3.18735e-07 6.1495e-09 2.2015e-20 2.47119e-07 2.40819e-21 2.82969e-07)
(3.00121e-07 7.66543e-09 -5.70066e-21 2.33385e-07 -6.81783e-22 2.66625e-07)
(2.88663e-07 8.84409e-09 -1.1714e-23 2.25118e-07 2.81421e-23 2.57217e-07)
(2.67737e-07 9.65529e-09 4.76525e-21 2.09668e-07 5.02424e-22 2.38142e-07)
(2.65611e-07 1.02152e-08 -3.9879e-21 2.08304e-07 -4.13972e-22 2.37832e-07)
(2.31698e-07 1.03942e-08 1.69214e-20 1.82971e-07 1.9241e-21 2.05912e-07)
(2.47171e-07 1.0414e-08 1.28717e-20 1.94514e-07 1.42052e-21 2.23146e-07)
(1.83812e-07 1.0348e-08 -2.15255e-24 1.47804e-07 1.97234e-24 1.62135e-07)
(2.46017e-07 9.7004e-09 1.64985e-20 1.93851e-07 1.83439e-21 2.25671e-07)
(1.31819e-07 9.4741e-09 3.70202e-24 1.15018e-07 -8.63099e-23 1.14606e-07)
(2.95196e-07 7.61851e-09 -5.57803e-20 2.33575e-07 -6.27416e-21 2.77715e-07)
(1.74834e-07 7.14329e-09 -1.40608e-20 1.90434e-07 -1.61689e-21 1.6272e-07)
(4.64897e-07 7.76169e-09 -3.60168e-20 3.73428e-07 -3.90793e-21 4.48647e-07)
(4.12058e-07 -1.46138e-08 6.12346e-20 4.81419e-07 7.58918e-21 4.05776e-07)
(7.2601e-07 2.0738e-08 -7.11094e-21 5.9125e-07 -7.15084e-22 7.09219e-07)
(5.02748e-07 -6.42611e-08 -3.25501e-25 5.98502e-07 1.19407e-23 5.57186e-07)
(4.29943e-07 -4.70055e-08 1.36872e-24 5.05899e-07 8.97323e-24 4.72569e-07)
(4.07515e-08 -3.2742e-10 -3.80376e-24 4.15843e-08 -5.03082e-25 4.11626e-08)
(2.42567e-09 -5.37996e-13 2.62671e-26 2.42984e-09 2.03484e-27 2.4277e-09)
(0 -0 0 0 0 0)
(0 -0 -0 0 -0 0)
(0 -0 0 0 0 0)
(0.000102416 -4.61664e-05 2.24716e-22 0.000102988 4.49724e-22 0.00010268)
(0.000149692 -7.33995e-05 -2.48425e-22 0.000186642 6.29408e-22 0.00016827)
(0.00609518 0.00297935 1.94651e-20 0.00751767 6.92994e-21 0.00680761)
(0.0584066 0.0280879 -3.26056e-20 0.0683868 -1.20985e-19 0.0633916)
(0.20313 0.0974693 1.44203e-17 0.236303 1.41688e-18 0.219703)
(0.423688 0.203519 2.23213e-19 0.494385 2.4707e-19 0.459037)
(0.640209 0.308259 -1.31945e-18 0.752271 -6.34765e-19 0.696253)
(0.763092 0.368617 4.07126e-17 0.90547 4.11053e-18 0.834292)
(0.731299 0.354825 2.96968e-18 0.879898 6.50095e-19 0.805609)
(0.530348 0.259242 3.08576e-17 0.654306 2.18013e-18 0.592333)
(0.199453 0.0995789 5.81741e-17 0.270254 6.00919e-18 0.234855)
(0.190383 -0.0857862 3.12866e-20 0.190884 1.1615e-18 0.190643)
(0.589018 -0.247189 -3.84682e-17 0.520188 -3.02252e-18 0.554616)
(0.804952 -0.331636 -4.40702e-17 0.690697 -6.58711e-18 0.747824)
(0.753889 -0.30734 1.74377e-16 0.636684 1.79179e-17 0.695272)
(0.48738 -0.197174 -1.34194e-16 0.406983 -1.16773e-17 0.447172)
(0.193663 -0.0779044 4.93508e-19 0.160387 -4.7188e-19 0.177025)
(0.0356768 -0.0143276 -8.38145e-18 0.0294756 -7.78418e-19 0.0325763)
(0.00121114 -0.000498886 -1.38761e-21 0.0010389 -5.82815e-21 0.00112506)
(4.29068e-05 2.11562e-05 -1.31711e-19 7.48041e-05 -1.27512e-20 5.89247e-05)
(0 0 -0 0 0 0)
(0 -0 -0 0 -0 0)
(0 -0 -0 0 -0 0)
(4.07759e-10 -2.74535e-14 1.08084e-31 4.07757e-10 -8.14119e-31 4.07758e-10)
(2.10521e-09 -8.61294e-13 -7.72925e-28 2.10521e-09 -4.72753e-29 2.10521e-09)
(4.28134e-07 -3.75081e-08 -3.60106e-22 4.27873e-07 -2.29702e-23 4.28001e-07)
(7.4227e-07 -1.09344e-07 -9.47412e-21 7.35218e-07 -9.35179e-22 7.3873e-07)
(6.91371e-07 -9.55556e-08 5.68369e-21 6.78622e-07 5.24424e-22 6.84988e-07)
(6.19335e-07 -7.79654e-08 -1.24474e-21 6.039e-07 -1.06091e-22 6.11621e-07)
(6.07312e-07 -7.53847e-08 4.4329e-25 5.87525e-07 -5.44858e-24 5.97431e-07)
(6.11023e-07 -7.61496e-08 -1.42281e-21 5.85779e-07 -1.30611e-22 5.9842e-07)
(6.07359e-07 -7.4953e-08 -2.75776e-21 5.76943e-07 -2.68961e-22 5.92174e-07)
(5.99854e-07 -7.27981e-08 -1.91591e-25 5.64561e-07 -3.40559e-24 5.82234e-07)
(5.93256e-07 -7.08226e-08 -2.84775e-24 5.52992e-07 1.12852e-23 5.73152e-07)
(5.87227e-07 -6.89321e-08 4.06264e-21 5.41895e-07 4.01076e-22 5.64592e-07)
(5.80402e-07 -6.6821e-08 -5.16218e-21 5.30093e-07 -4.94174e-22 5.55279e-07)
(5.72437e-07 -6.44201e-08 -1.26196e-21 5.17321e-07 -1.18949e-22 5.44911e-07)
(5.63519e-07 -6.17755e-08 -1.73229e-24 5.03787e-07 6.50727e-24 5.33686e-07)
(5.53772e-07 -5.8917e-08 -3.26003e-24 4.89642e-07 3.78053e-24 5.21739e-07)
(5.43236e-07 -5.58526e-08 6.21978e-24 4.74969e-07 -1.85789e-23 5.09134e-07)
(5.3195e-07 -5.25939e-08 -7.1258e-24 4.59859e-07 -1.42806e-23 4.95934e-07)
(5.19953e-07 -4.91544e-08 -9.59668e-21 4.44396e-07 -9.12807e-22 4.82203e-07)
(5.07328e-07 -4.55599e-08 1.18068e-20 4.28708e-07 1.20137e-21 4.68045e-07)
(4.94159e-07 -4.18351e-08 1.11664e-21 4.12915e-07 7.51294e-23 4.53562e-07)
(4.80533e-07 -3.80106e-08 6.92654e-24 3.97139e-07 -2.66991e-24 4.38859e-07)
(4.6652e-07 -3.41184e-08 6.77365e-24 3.81484e-07 -2.82078e-24 4.24022e-07)
(4.52209e-07 -3.01913e-08 1.45423e-24 3.66058e-07 -3.09626e-23 4.09152e-07)
(4.37677e-07 -2.62672e-08 -7.65061e-21 3.50955e-07 -7.65404e-22 3.94331e-07)
(4.23007e-07 -2.23852e-08 -1.00741e-21 3.36264e-07 -7.33268e-23 3.79648e-07)
(4.08263e-07 -1.85831e-08 4.84938e-22 3.22046e-07 7.42907e-23 3.65165e-07)
(3.93514e-07 -1.48998e-08 8.72019e-21 3.08352e-07 9.16565e-22 3.50942e-07)
(3.78771e-07 -1.13658e-08 3.26249e-21 2.95176e-07 2.05587e-22 3.3698e-07)
(3.64052e-07 -8.00747e-09 -3.48664e-20 2.82508e-07 -3.67028e-21 3.23283e-07)
(3.4942e-07 -4.85279e-09 -6.14744e-21 2.70361e-07 -5.44421e-22 3.09896e-07)
(3.34787e-07 -1.94588e-09 6.99176e-21 2.58632e-07 6.82012e-22 2.96704e-07)
(3.2059e-07 6.43808e-10 -3.36913e-20 2.47598e-07 -3.56959e-21 2.84107e-07)
(3.06053e-07 2.84011e-09 1.19644e-20 2.36583e-07 1.34379e-21 2.71292e-07)
(2.92505e-07 4.59976e-09 -6.09148e-21 2.26489e-07 -6.49218e-22 2.59546e-07)
(2.76839e-07 6.07487e-09 6.48349e-21 2.14901e-07 6.67856e-22 2.45745e-07)
(2.67827e-07 7.22115e-09 -2.01687e-20 2.08409e-07 -2.2044e-21 2.38447e-07)
(2.48953e-07 8.08197e-09 7.43633e-21 1.94461e-07 8.77624e-22 2.21151e-07)
(2.48826e-07 8.66142e-09 3.80658e-21 1.94595e-07 4.02699e-22 2.22583e-07)
(2.17084e-07 8.95854e-09 3.33614e-21 1.70884e-07 3.60327e-22 1.92572e-07)
(2.34398e-07 8.93495e-09 -1.44124e-20 1.83848e-07 -1.59561e-21 2.1141e-07)
(1.73317e-07 9.10591e-09 -2.06661e-24 1.38816e-07 9.70865e-25 1.52427e-07)
(2.37025e-07 8.28774e-09 -1.5707e-20 1.86165e-07 -1.73634e-21 2.17281e-07)
(1.25665e-07 8.56948e-09 -8.69094e-24 1.0945e-07 1.06717e-22 1.08821e-07)
(2.89711e-07 6.22872e-09 7.06263e-20 2.28848e-07 7.83663e-21 2.7252e-07)
(1.73296e-07 6.66418e-09 -1.91059e-23 1.88818e-07 -3.89583e-23 1.61188e-07)
(4.63788e-07 6.42929e-09 3.44329e-20 3.72384e-07 3.69329e-21 4.47691e-07)
(4.14662e-07 -1.47347e-08 -7.43366e-20 4.84163e-07 -9.19598e-21 4.08103e-07)
(7.30197e-07 1.96749e-08 5.94331e-23 5.94271e-07 4.0864e-24 7.13317e-07)
(3.98881e-07 -4.63058e-08 -2.12236e-25 4.61017e-07 -9.28517e-24 4.3428e-07)
(4.34766e-07 -5.58269e-08 4.71586e-25 5.12658e-07 -2.32513e-23 4.78695e-07)
(3.9475e-07 -4.25848e-08 1.03859e-21 4.66167e-07 1.14323e-22 4.30096e-07)
(1.00968e-07 -2.52588e-09 -6.02503e-23 1.06508e-07 -4.54035e-24 1.03668e-07)
(5.65259e-09 -4.84474e-12 -7.94404e-29 5.67896e-09 -7.82478e-27 5.66578e-09)
(0 -0 0 0 0 0)
(0 -0 -0 0 -0 0)
(0 -0 0 0 -0 0)
(3.73193e-06 -5.68475e-07 2.41671e-26 3.72043e-06 1.96067e-24 3.72606e-06)
(9.18694e-06 -2.97384e-06 1.66395e-24 9.35265e-06 1.35427e-23 9.27115e-06)
(0.000912437 0.00045858 -1.11928e-21 0.00129682 1.44983e-20 0.00110559)
(0.0239054 0.0115466 -4.65683e-18 0.0283575 -4.49001e-19 0.0261318)