/*--------------------------------*- C++ -*----------------------------------*\
| =========                 |                                                 |
| \\      /  F ield         | OpenFOAM: The Open Source CFD Toolbox           |
|  \\    /   O peration     | Version:  2506                                  |
|   \\  /    A nd           | Website:  www.openfoam.com                      |
|    \\/     M anipulation  |                                                 |
\*---------------------------------------------------------------------------*/
FoamFile
{
    version     2.0;
    format      ascii;
    arch        "LSB;label=32;scalar=64";
    class       volScalarField;
    location    "500";
    object      turbulenceProperties:L;
}
// * * * * * * * * * * * * * * * * * * * * * * * * * * * * * * * * * * * * * //

dimensions      [0 1 0 0 0 0 0];

internalField   nonuniform List<scalar> 
1340
(
0.222829
0.255623
0.221222
0.259563
0.259699
0.221257
0.401815
0.261245
0.262508
0.220804
0.425065
0.313719
0.403708
0.262613
0.264975
0.220063
0.356302
0.328734
0.431602
0.316648
0.405695
0.263868
0.267023
0.219318
0.300019
0.320219
0.32022
0.363663
0.333416
0.438798
0.319589
0.407654
0.26496
0.268525
0.218628
0.279127
0.288149
0.300322
0.306783
0.327645
0.326349
0.371623
0.338354
0.446617
0.322471
0.409596
0.265857
0.269486
0.218004
0.24778
0.256676
0.266169
0.27623
0.287249
0.295994
0.308332
0.31413
0.33569
0.332945
0.380206
0.343547
0.455075
0.325313
0.411506
0.266602
0.270021
0.217353
0.220285
0.226924
0.233947
0.241366
0.249195
0.257457
0.26616
0.275463
0.285268
0.296163
0.304581
0.317092
0.322143
0.34444
0.340067
0.389497
0.349036
0.464226
0.328169
0.413348
0.267247
0.270215
0.216781
0.19568
0.199888
0.204395
0.209216
0.214356
0.219825
0.225631
0.231784
0.238291
0.245169
0.252431
0.260087
0.268163
0.276644
0.285725
0.295229
0.305963
0.313994
0.326684
0.33089
0.353968
0.347762
0.39955
0.354845
0.474096
0.331062
0.415128
0.267814
0.269963
0.21622
0.178532
0.18
0.181611
0.183382
0.185331
0.187473
0.189825
0.192399
0.195207
0.198261
0.201572
0.205153
0.209012
0.213158
0.217599
0.222346
0.227404
0.232781
0.23848
0.24451
0.250878
0.257596
0.264681
0.272141
0.280004
0.288226
0.297047
0.306194
0.316721
0.324295
0.337166
0.340418
0.364318
0.356057
0.410407
0.360986
0.48467
0.333985
0.416885
0.268312
0.269478
0.215671
5.81164
1.74948
0
0
0.0921411
0.188663
0.706495
0.680134
0.706028
0.741821
0.788062
0.851949
0.950057
1.12593
1.54696
4.83419
1.6112
1.18103
1.01174
0.919864
0.854718
0.791154
0.716077
0.416265
0.342673
0
0
0
2.8727
0.405513
0.181837
0.17363
0.184123
0.189866
0.190408
0.19093
0.192233
0.193686
0.195137
0.196698
0.198423
0.200322
0.202412
0.204714
0.207244
0.210013
0.21303
0.216304
0.219847
0.223667
0.22777
0.23216
0.236847
0.241833
0.247122
0.252716
0.258619
0.264834
0.271376
0.27826
0.285491
0.293104
0.301021
0.309536
0.318257
0.328523
0.335554
0.348604
0.350779
0.375549
0.364988
0.422089
0.367487
0.495943
0.337
0.418558
0.268771
0.268727
0.215133
0.241298
3.52158
4.69695
0
0
1.82246
0.339834
1.00271
0.713728
0.728519
0.763153
0.808356
0.869338
0.959826
1.1141
1.44706
2.95518
1.95152
1.30717
1.08814
0.975692
0.901008
0.834172
0.744105
0.488588
0.472863
0
0
0
5.84593
0.906153
0.209083
0.186816
0.197966
0.207097
0.208604
0.208903
0.210147
0.211681
0.213188
0.214813
0.21666
0.218722
0.220994
0.223492
0.226237
0.229234
0.232492
0.23602
0.239823
0.243902
0.248261
0.252904
0.257829
0.263037
0.268525
0.274293
0.280341
0.28668
0.293331
0.30029
0.307608
0.31516
0.32331
0.331522
0.341456
0.347844
0.361067
0.362025
0.3877
0.374571
0.434636
0.37436
0.507972
0.340076
0.420307
0.269217
0.267966
0.214565
0.239135
0.257424
1.2761
7.95068
0
0
0
0.183555
0.52612
0.763261
0.749868
0.78221
0.826678
0.885365
0.969552
1.10676
1.38001
2.26575
2.53932
1.46337
1.17482
1.03681
0.9507
0.878789
0.786242
0.597022
0.703126
0
0
0
2.36167
9.12667
0.272506
0.207238
0.214101
0.225467
0.228076
0.228003
0.229215
0.231128
0.232939
0.234703
0.236667
0.238908
0.241407
0.244155
0.247159
0.250426
0.253967
0.257779
0.261862
0.266212
0.270829
0.275706
0.280839
0.286217
0.291837
0.297691
0.303794
0.31016
0.316788
0.323749
0.330853
0.338558
0.346163
0.355663
0.361289
0.37466
0.374252
0.400848
0.384892
0.448082
0.381616
0.520738
0.343372
0.422184
0.269542
0.267179
0.21397
0.268592
0.257571
0.268878
0.636207
4.96482
0
0
0
0.0925851
0.0824143
0.964489
0.775901
0.799775
0.843024
0.899921
0.979083
1.10289
1.33401
1.95176
3.89701
1.65596
1.27016
1.10123
1.00172
0.923016
0.830702
0.684144
0.89165
0
0
0
0.00135898
2.26975
0.336406
0.231081
0.231711
0.246518
0.252021
0.250689
0.250286
0.251874
0.254104
0.256288
0.258518
0.260989
0.263765
0.266824
0.27015
0.273748
0.277613
0.281741
0.286118
0.290739
0.295592
0.300657
0.305924
0.311377
0.317009
0.322822
0.328841
0.335063
0.341576
0.348136
0.355289
0.362163
0.371131
0.375831
0.389343
0.387372
0.414988
0.395807
0.462553
0.389145
0.53528
0.346535
0.424829
0.269878
0.266272
0.213158
0.28683
0.288212
0.273731
0.28505
0.426964
3.28627
0.000896935
0
0
9.07739
0.241597
0.851196
0.824827
0.819154
0.858993
0.914056
0.988541
1.09998
1.29472
1.74258
4.8117
1.9574
1.39249
1.17531
1.05504
0.964734
0.865398
0.703638
1.36332
0.145697
0
0
0
3.2891
0.505695
0.264383
0.245066
0.25718
0.272337
0.277204
0.276714
0.276957
0.278825
0.281372
0.284034
0.286839
0.289911
0.293291
0.296956
0.300872
0.305047
0.309448
0.31406
0.318865
0.323827
0.328934
0.334149
0.339481
0.344902
0.350452
0.356137
0.362049
0.367911
0.374366
0.380301
0.388583
0.392158
0.4057
0.402003
0.430471
0.407967
0.477755
0.397641
0.548867
0.350352
0.426787
0.270435
0.265457
0.212652
0.305713
0.310477
0.307529
0.303379
0.309321
0.349948
1.1199
7.13294
1.24149e-05
0
0
0.122632
0.238854
1.08583
0.851426
0.871757
0.920787
0.987973
1.08243
1.23127
1.51261
2.30957
3.52534
1.75407
1.36551
1.18528
1.07237
0.976185
0.892172
0.699044
0.718743
0.157025
0
0
0.569973
4.40804
0.803781
0.33145
0.286386
0.291264
0.305226
0.312052
0.312781
0.313339
0.315461
0.318439
0.321625
0.324988
0.328615
0.332512
0.336676
0.341031
0.345543
0.350177
0.354906
0.359684
0.364457
0.369234
0.37397
0.37873
0.383503
0.388431
0.393169
0.398501
0.403071
0.410134
0.412291
0.425359
0.4199
0.448193
0.423103
0.493123
0.409494
0.559878
0.358831
0.437184
0.276721
0.27235
0.22064
0.332441
0.335549
0.334663
0.336557
0.338091
0.331091
0.348321
0.437579
6.49543
0.857033
0
0
3.26841
0.0940861
0.481162
1.11877
0.88062
0.90703
0.96441
1.04221
1.15204
1.3279
1.67179
2.77563
3.09111
1.77375
1.41431
1.23555
1.11906
1.02008
0.926106
0.629232
0.494945
0.558865
0
0
0.119316
4.98611
0.828627
0.373124
0.330559
0.338755
0.354308
0.360258
0.360627
0.361872
0.364876
0.368543
0.372312
0.376249
0.380417
0.384724
0.389123
0.3935
0.397815
0.401991
0.405952
0.409703
0.413169
0.416482
0.419607
0.422788
0.425606
0.429031
0.431454
0.43662
0.43662
0.448894
0.440852
0.469145
0.439808
0.511741
0.420627
0.572485
0.363644
0.436588
0.277302
0.269256
0.219724
0.364653
0.367122
0.364631
0.366439
0.370961
0.372492
0.367906
0.36302
0.401246
0.734267
5.40384
0.000189407
0
0
0
0.0889672
0.434244
1.1748
0.900308
0.9363
1.00458
1.09645
1.22803
1.44461
1.89437
3.81974
2.67043
1.75339
1.43843
1.2687
1.15032
1.03983
0.892709
0.803066
0.281989
0
0
0
0.116184
3.95317
0.630515
0.405886
0.387763
0.40448
0.418508
0.421368
0.422009
0.424829
0.429021
0.433443
0.437787
0.442109
0.446371
0.450332
0.453914
0.45699
0.459461
0.461322
0.462545
0.463328
0.463675
0.463998
0.463832
0.464412
0.463794
0.46642
0.463558
0.474716
0.46343
0.491785
0.457167
0.531981
0.431331
0.588351
0.367534
0.438026
0.277065
0.267051
0.218934
0.404966
0.40118
0.402075
0.405688
0.409603
0.411858
0.410099
0.400133
0.408104
0.480799
2.00607
5.73118
0
0
0
0
0.0881396
0.44173
1.16151
0.917178
0.967413
1.05017
1.16152
1.32433
1.60216
2.24065
8.85181
2.37383
1.71989
1.44865
1.2878
1.15973
1.04287
0.839051
0.914921
0.177935
0
0
0
7.35489
1.75299
0.54538
0.46351
0.469545
0.491317
0.500437
0.501826
0.504358
0.508951
0.513786
0.518126
0.521887
0.524766
0.526655
0.527365
0.526806
0.525053
0.522214
0.518689
0.514561
0.510524
0.506061
0.50277
0.49828
0.497799
0.491631
0.501292
0.48649
0.514607
0.474527
0.551934
0.441577
0.603716
0.370792
0.440072
0.276477
0.265892
0.21822
0.450297
0.445011
0.445529
0.448375
0.450983
0.454122
0.456969
0.456852
0.450859
0.44075
0.466599
0.730473
5.13071
0.000195027
0
0
0
0
0.0887382
0.496633
1.0933
0.939459
1.00766
1.10844
1.2449
1.45039
1.82256
2.85219
4.3232
2.16364
1.68097
1.44504
1.2879
1.14879
0.997187
1.10286
0.396313
0
0
0
0.0238731
5.14133
0.917625
0.598569
0.575928
0.599224
0.617395
0.620974
0.622511
0.625988
0.629392
0.631066
0.630393
0.627395
0.622022
0.614375
0.60498
0.594289
0.583149
0.571805
0.561215
0.550778
0.54243
0.533283
0.52921
0.519533
0.527245
0.508954
0.536261
0.491141
0.569889
0.451043
0.615912
0.373527
0.442189
0.275603
0.265727
0.217401
0.504516
0.49798
0.498096
0.500672
0.502866
0.505479
0.507289
0.510573
0.512852
0.510451
0.496398
0.497328
0.567166
2.12074
5.3864
4.29303e-07
0
0
0
0
0.10497
0.160511
1.01273
0.96767
1.05951
1.1833
1.35295
1.61985
2.15536
4.43524
3.048
2.00487
1.63615
1.42713
1.26848
1.12697
0.884612
0.801761
0
0
0
0
6.44644
1.7633
0.844642
0.757837
0.77775
0.814255
0.827458
0.826718
0.822343
0.813981
0.799319
0.778986
0.755013
0.729212
0.703084
0.677654
0.653909
0.632005
0.612675
0.594936
0.580806
0.566786
0.559109
0.546282
0.551931
0.530484
0.556595
0.507066
0.586422
0.460016
0.626745
0.375926
0.444931
0.27467
0.266899
0.216376
0.549728
0.543456
0.542463
0.544959
0.547461
0.549367
0.550433
0.552789
0.55544
0.55895
0.558201
0.551772
0.535228
0.569347
0.74661
0.650326
0.0423164
0
0
0
0
8.9091
0.125285
0.249032
0.960079
1.01222
1.12861
1.28089
1.49649
1.86033
2.7375
7.14799
2.51348
1.88015
1.58781
1.39675
1.22901
1.05037
6.88443
0.167418
0
0
0
0.969953
4.16195
2.05473
1.67233
1.50641
1.47778
1.43904
1.32413
1.19429
1.08307
0.990522
0.913076
0.848464
0.794653
0.74941
0.711402
0.678933
0.651658
0.627693
0.608812
0.591208
0.58075
0.566025
0.569529
0.546349
0.569932
0.518678
0.594896
0.466335
0.628737
0.377249
0.448296
0.273522
0.270656
0.214279
0.608239
0.599383
0.598567
0.601681
0.60453
0.60518
0.604739
0.608487
0.609343
0.610577
0.614071
0.616084
0.610142
0.598511
0.590754
0.668967
1.2503
6.36352
0.000588997
0
0
0
0
4.73807
0.247067
1.22565
0.960107
1.0724
1.21926
1.40966
1.69512
2.24049
4.28205
3.4556
2.18982
1.76572
1.52665
1.34361
1.18783
1.19173
0.436017
0
0
0
0.00318714
5.13003
2.45169
1.1326
1.25684
1.45775
1.39397
1.22972
1.09444
0.996061
0.920685
0.858999
0.807542
0.764079
0.727526
0.696133
0.669492
0.645863
0.626955
0.609572
0.599297
0.585339
0.588821
0.565143
0.588443
0.534605
0.613834
0.476487
0.649143
0.380797
0.457246
0.273715
0.278
0.210956
0.58546
0.58135
0.581644
0.584768
0.587784
0.589853
0.591082
0.594372
0.596582
0.599184
0.603287
0.606948
0.609726
0.610737
0.607333
0.596467
0.618648
0.733299
1.78532
6.88674
0.00078065
0
0
0
0
0.255265
0.448778
1.08897
1.01886
1.15827
1.33376
1.57168
1.95906
2.85854
7.26867
2.6768
1.97368
1.63417
1.38713
1.08037
0.466286
0.644184
0.300904
0.225081
0.51143
0
0.0174291
5.54636
1.05702
0.738885
0.765763
0.81329
0.821232
0.800643
0.773922
0.747706
0.722432
0.698211
0.675645
0.654838
0.635992
0.618463
0.603688
0.590039
0.581782
0.570859
0.573033
0.55367
0.571525
0.526143
0.592011
0.471144
0.628919
0.377221
0.469458
0.271193
0.291822
0.200492
0.632799
0.630687
0.629789
0.628543
0.627725
0.626896
0.625301
0.623394
0.621804
0.620902
0.620036
0.618486
0.617101
0.615634
0.614371
0.608152
0.598162
0.592013
0.616389
0.712063
1.83268
6.95668
0
0
0
0
0
0.109629
0.551712
1.00609
1.07093
1.2336
1.43425
1.71217
2.18068
3.35643
6.43963
2.84226
2.17372
1.85302
1.66571
1.59409
1.76458
3.99235
0.814408
0.449332
0
0
5.82871
1.52353
0.763075
0.673359
0.671882
0.678007
0.677083
0.671845
0.665331
0.658386
0.651246
0.644087
0.637099
0.629885
0.623551
0.617041
0.615314
0.61143
0.620308
0.603217
0.629766
0.575677
0.672254
0.509641
0.768525
0.399362
0.515976
0.284316
0.292131
0.201783
)
;

boundaryField
{
    inlet
    {
        type            calculated;
        value           nonuniform List<scalar> 
27
(
0.0874116
0.087354
0.0872484
0.0871089
0.0869612
0.0868091
0.0866483
0.0864802
0.0863057
0.0861313
0.0859578
0.0857884
0.0856265
0.0854756
0.0853398
0.0852231
0.0851238
0.0853278
0.0853014
0.0853131
0.085384
0.0855215
0.0857451
0.0860664
0.0865345
0.0870081
0.0879912
)
;
    }
    outlet
    {
        type            calculated;
        value           nonuniform List<scalar> 
78
(
0.702478
0.698434
0.696369
0.693738
0.691781
0.689815
0.686602
0.682923
0.679767
0.677691
0.675672
0.672643
0.669721
0.666697
0.664044
0.656286
0.645035
0.638875
0.665517
0.764913
1.93267
6.7878
0
0
0
0
0
0.109375
0.552353
1.03591
1.07576
1.2358
1.43512
1.71155
2.17697
3.33867
6.65967
2.85694
2.1794
1.85553
1.66607
1.59171
1.75343
4.91709
0.833877
0.460775
0
0
5.4246
1.61387
0.805035
0.709753
0.708724
0.716369
0.717204
0.714056
0.710016
0.705824
0.701629
0.69745
0.693455
0.688804
0.685196
0.680323
0.682564
0.678922
0.697447
0.668125
0.72084
0.624288
0.820989
0.532305
1.48176
0.407058
0.545234
0.289216
0.291779
0.207399
)
;
    }
    walls
    {
        type            calculated;
        value           nonuniform List<scalar> 0();
    }
    frontAndBack
    {
        type            empty;
    }
    procBoundary7to3
    {
        type            processor;
        value           nonuniform List<scalar> 
16
(
0.204614
0.198821
0.226626
0.245121
0.260656
0.281852
0.311131
0.344284
0.402974
0.402974
0.448528
0.502229
0.546907
0.607414
0.579875
0.637716
)
;
    }
    procBoundary7to6
    {
        type            processor;
        value           nonuniform List<scalar> 
91
(
0.223099
0.251495
0.251495
0.257026
0.257026
0.400213
0.400213
0.419209
0.310866
0.310866
0.349608
0.324368
0.324368
0.293808
0.313382
0.314541
0.314541
0.271686
0.280948
0.292962
0.292962
0.239012
0.248075
0.257733
0.26801
0.26801
0.209893
0.216656
0.223813
0.231373
0.239356
0.239356
0.183527
0.187811
0.192398
0.197302
0.202533
0.2081
0.214014
0.214014
0.164523
0.166046
0.167713
0.169541
0.171549
0.17375
0.176158
0.178789
0.181653
0.184761
0.188127
0.191765
0.191765
8.42933e-05
0
8.34523
0.241053
0.998081
0.650457
0.655167
0.682423
0.718359
0.765732
0.833009
0.940005
1.14282
1.70069
2.93335
1.38158
1.07574
0.942979
0.867861
0.811146
0.748058
0.660205
0.584629
0.401772
0
0
0
1.9523
0.275026
0.161348
0.159885
0.169019
0.172966
0.173563
0.174445
0.175794
0.177164
0.177164
)
;
    }
}


// ************************************************************************* //
