/*--------------------------------*- C++ -*----------------------------------*\
| =========                 |                                                 |
| \\      /  F ield         | OpenFOAM: The Open Source CFD Toolbox           |
|  \\    /   O peration     | Version:  2506                                  |
|   \\  /    A nd           | Website:  www.openfoam.com                      |
|    \\/     M anipulation  |                                                 |
\*---------------------------------------------------------------------------*/
FoamFile
{
    version     2.0;
    format      ascii;
    arch        "LSB;label=32;scalar=64";
    class       volScalarField;
    location    "149.999038929845";
    object      p;
}
// * * * * * * * * * * * * * * * * * * * * * * * * * * * * * * * * * * * * * //

dimensions      [0 2 -2 0 0 0 0];

internalField   nonuniform List<scalar> 
9700
(
0.0014833
0.00150749
0.00332241
0.00152283
0.00336222
0.00601603
0.00157523
0.00338501
0.00608133
0.00842381
0.00163025
0.00346386
0.00613896
0.00850554
0.0108604
0.00171986
0.00354545
0.00628292
0.00858884
0.0109564
0.0132069
0.00183152
0.00367608
0.00645081
0.00877506
0.0110638
0.013313
0.0154913
0.0019872
0.00383581
0.00670183
0.00900131
0.0112883
0.0134387
0.0156042
0.0176972
0.00219281
0.00405383
0.00701878
0.00932968
0.0115676
0.0136905
0.0157431
0.0178137
0.019827
0.00247468
0.00433518
0.00744337
0.00974649
0.0119652
0.0140076
0.0160135
0.0179607
0.0199444
0.0218784
0.0028569
0.0047119
0.00799264
0.0102971
0.0124704
0.0144525
0.016356
0.0182408
0.020095
0.0219945
0.0238522
0.00339181
0.00522003
0.00871546
0.011004
0.0131307
0.0150163
0.0168308
0.0185961
0.0203773
0.022145
0.0239654
0.0257507
0.00418809
0.00594933
0.00966394
0.011921
0.0139727
0.0157455
0.0174292
0.0190834
0.0207348
0.0224234
0.0241129
0.0258599
0.0275769
0.00550451
0.00699713
0.0109184
0.0131065
0.0150524
0.0166675
0.0181956
0.0196931
0.0212202
0.0227745
0.0243831
0.0260027
0.0276818
0.0293328
0.00768408
0.00841739
0.0125694
0.0146448
0.0164314
0.0178367
0.0191552
0.0204654
0.0218215
0.0232462
0.0247216
0.026262
0.027819
0.0294335
0.0310207
0.011114
0.0101901
0.0147326
0.0166296
0.0181927
0.0193133
0.0203584
0.0214215
0.0225742
0.0238239
0.0251717
0.0265843
0.0280663
0.029565
0.0311176
0.0326436
0.0142678
0.0126459
0.0174922
0.0191647
0.0204295
0.0211758
0.0218606
0.0226051
0.0234931
0.0245371
0.0257154
0.0270083
0.0283713
0.0298009
0.031244
0.0327375
0.0342027
0.0158663
0.0151873
0.0209332
0.0223381
0.0232518
0.0235137
0.0237321
0.0240631
0.0246138
0.025393
0.026376
0.0275127
0.0287682
0.0300893
0.03147
0.0328598
0.0342944
0.035699
0.015035
0.0177337
0.0252325
0.0262341
0.026762
0.0264302
0.0260544
0.0258548
0.0259711
0.0264177
0.0271525
0.0281147
0.029233
0.0304613
0.0317444
0.033078
0.0344138
0.0357891
0.0371341
0.012451
0.02014
0.0298742
0.0309816
0.0310551
0.0300251
0.0289201
0.0280477
0.0276105
0.0276311
0.0280605
0.0288051
0.0297772
0.0308904
0.0320959
0.0333419
0.0346267
0.0359068
0.0372231
0.0385081
0.0100217
0.0227041
0.0346586
0.0364803
0.0362076
0.034381
0.0324196
0.0307184
0.0295797
0.0290627
0.0291038
0.0295888
0.0303842
0.0313835
0.0324962
0.0336785
0.034884
0.0361167
0.0373401
0.0385963
0.0398212
0.00701511
0.0254824
0.0394269
0.0427576
0.04213
0.0395769
0.0366193
0.0339363
0.0319337
0.0307339
0.0302934
0.0304534
0.0310489
0.0319182
0.0329493
0.0340592
0.0352119
0.0363709
0.0375487
0.0387131
0.0399085
0.0410745
0.00415516
0.025381
0.0431096
0.0493444
0.0488418
0.0454944
0.041575
0.037748
0.0347094
0.0326718
0.0316197
0.0313901
0.0317444
0.0324811
0.0334291
0.034486
0.0355823
0.0366956
0.0378025
0.0389212
0.0400252
0.0411606
0.0422693
0.00157528
0.0217192
0.0443752
0.0548782
0.0559374
0.0521196
0.0471404
0.0421737
0.0379266
0.0348697
0.0330774
0.0323569
0.0324414
0.0330336
0.0339162
0.0349317
0.035997
0.0370643
0.0381284
0.0391764
0.0402331
0.0412768
0.0423534
0.0434066
-0.00152476
0.0177982
0.0421872
0.0581287
0.0620924
0.0590048
0.0532226
0.0470522
0.0415468
0.037307
0.0346021
0.0333133
0.033069
0.0335287
0.034365
0.0353741
0.03643
0.0374797
0.0385019
0.039506
0.0404899
0.0414835
0.0424683
0.0434881
0.0444885
-0.00466876
0.0140307
0.0355115
0.0576476
0.0671866
0.0650957
0.0592652
0.052176
0.0453746
0.0398534
0.0361141
0.0341286
0.0335475
0.0338723
0.0347162
0.0357655
0.036859
0.037919
0.0389279
0.0398884
0.0408236
0.041741
0.0426724
0.0436005
0.0445664
0.0455179
-0.00619083
0.00906915
0.0259535
0.0522928
0.0675467
0.0706264
0.0645477
0.0569377
0.0490645
0.0422293
0.037338
0.0346361
0.0336836
0.0339422
0.0348615
0.0360415
0.0372396
0.0383625
0.0393879
0.0403306
0.0412158
0.0420774
0.0429282
0.0437997
0.0446749
0.0455913
0.046498
-0.00640352
0.00461001
0.0168204
0.0433672
0.0617302
0.0712303
0.068225
0.0607559
0.052057
0.0439277
0.0378301
0.0343655
0.0331818
0.0335004
0.0346493
0.0360901
0.0375082
0.0387731
0.039867
0.04082
0.0416756
0.0424773
0.0432641
0.0440508
0.0448665
0.0456944
0.0465661
0.0474322
-0.00577197
0.000354722
0.00990322
0.031398
0.0525584
0.0650647
0.0680332
0.0623333
0.0537698
0.044508
0.0369078
0.0326524
0.0313523
0.0320902
0.0338219
0.0357533
0.0375599
0.0390933
0.0403381
0.0413465
0.0421965
0.042952
0.0436673
0.0443815
0.0451092
0.0458759
0.0466623
0.0474943
0.048325
-0.00484478
-0.00363589
0.00308529
0.0202749
0.0386045
0.055401
0.0616223
0.0606946
0.0532582
0.043458
0.0343736
0.028591
0.0273427
0.0287268
0.0317875
0.0347698
0.0372427
0.0392349
0.0407538
0.0418954
0.0427731
0.0435004
0.0441504
0.0447815
0.0454295
0.0461062
0.0468311
0.0475824
0.0483808
0.049181
-0.00389808
-0.00737198
-0.00391186
0.00833155
0.0254507
0.0400385
0.0523068
0.054252
0.0497581
0.0402704
0.0298659
0.0223119
0.0199677
0.0221098
0.0273491
0.0325075
0.0363056
0.03906
0.0410492
0.0424298
0.0434031
0.044121
0.0447173
0.0452641
0.0458185
0.0464103
0.0470452
0.0477365
0.0484597
0.0492303
0.0500044
-0.00377191
-0.0108183
-0.0112589
-0.00407209
0.0105951
0.0255309
0.0360893
0.0431574
0.0421773
0.0345585
0.0234419
0.0136983
0.00968492
0.0114669
0.0186217
0.0277035
0.0341244
0.0383451
0.0411077
0.0429115
0.0440588
0.0448232
0.0453689
0.0458366
0.04629
0.0467803
0.0473277
0.0479312
0.0485976
0.0492997
0.0500474
0.0507996
-0.00370853
-0.014398
-0.0186838
-0.0167496
-0.00527282
0.0088318
0.0211716
0.027745
0.030486
0.0259104
0.0151421
0.00348125
-0.00349358
-0.00221795
0.00478643
0.0184782
0.0293785
0.0365104
0.0407525
0.043245
0.0447284
0.0455854
0.0461248
0.0465015
0.0468531
0.0472294
0.0476708
0.0481875
0.0487706
0.0494206
0.0501073
0.0508368
0.0515709
-0.00426136
-0.0172236
-0.0258276
-0.0290136
-0.0216732
-0.00923056
0.00378338
0.0137786
0.0163845
0.0142783
0.00542168
-0.00783208
-0.0178895
-0.0195574
-0.0116041
0.00476451
0.0203611
0.0323163
0.0395015
0.0433063
0.0453321
0.0464206
0.0469658
0.0472862
0.047511
0.0477673
0.0480868
0.0484969
0.0489972
0.0495706
0.0502115
0.0508876
0.051603
0.0523216
-0.00510693
-0.0193372
-0.0328914
-0.0406151
-0.0379482
-0.0281091
-0.0149772
-0.00308139
0.00418881
0.00234269
-0.00569368
-0.0188379
-0.0325571
-0.0380022
-0.0318589
-0.0149458
0.00708099
0.0240717
0.0363682
0.0427203
0.0457958
0.0472568
0.0479278
0.0481705
0.0482957
0.0483969
0.048584
0.0488704
0.0492678
0.0497656
0.0503385
0.0509762
0.0516458
0.0523496
0.0530542
-0.00602025
-0.0214094
-0.0390424
-0.0513465
-0.0534715
-0.0469529
-0.0346374
-0.0209927
-0.0106962
-0.00757263
-0.0144763
-0.0295605
-0.0452173
-0.0561482
-0.0536225
-0.0378715
-0.0133103
0.0104183
0.0298655
0.0407761
0.0458217
0.0480655
0.0489364
0.0492107
0.0491849
0.0491511
0.0491651
0.0493134
0.0495915
0.0499943
0.0505017
0.0510815
0.0517207
0.052386
0.0530795
0.053771
-0.00688182
-0.0242117
-0.044276
-0.0607213
-0.0676276
-0.0648923
-0.0541607
-0.0396501
-0.0264817
-0.0191628
-0.0209072
-0.0353647
-0.0559814
-0.0708157
-0.0751454
-0.0620554
-0.0370175
-0.00762741
0.0186341
0.0362523
0.0449491
0.048594
0.0500078
0.0503206
0.0502501
0.0500068
0.0498593
0.0498278
0.0499697
0.0502638
0.0506882
0.0512148
0.051807
0.0524499
0.053111
0.0537947
0.0544731
-0.00779517
-0.0257153
-0.0490606
-0.0679142
-0.0798056
-0.0809662
-0.0725725
-0.0580384
-0.0424996
-0.0313477
-0.0281271
-0.039025
-0.0590494
-0.0820013
-0.0916795
-0.0861424
-0.0622618
-0.0296257
0.00291879
0.0279564
0.0422626
0.0485698
0.0509023
0.0515649
0.0513888
0.0510406
0.0506452
0.0504362
0.0504026
0.0505704
0.0509022
0.0513611
0.051914
0.0525208
0.0531673
0.0538234
0.0544966
0.0551604
-0.00806386
-0.0242646
-0.0502789
-0.0736827
-0.0886274
-0.0943971
-0.0887558
-0.0750694
-0.0579854
-0.0434027
-0.0357129
-0.041962
-0.0602359
-0.0828888
-0.103879
-0.103694
-0.0869418
-0.0541032
-0.0167538
0.0154182
0.036733
0.0473729
0.0514609
0.0526862
0.0527153
0.0521407
0.0515913
0.0511183
0.0509037
0.0509118
0.051135
0.0515223
0.0520251
0.0526069
0.0532274
0.0538754
0.0545243
0.0551849
0.0558323
-0.00780624
-0.020276
-0.0474679
-0.0740474
-0.095114
-0.103694
-0.101701
-0.0895085
-0.0718167
-0.0545002
-0.0426838
-0.0441934
-0.0591713
-0.0818812
-0.103891
-0.118551
-0.105404
-0.0778448
-0.039052
-0.000979158
0.027725
0.0442112
0.0512487
0.0535976
0.0539329
0.0534501
0.052591
0.0519265
0.0514543
0.0512912
0.0513809
0.0516841
0.0521395
0.0526898
0.053299
0.0539297
0.0545756
0.0552133
0.0558586
0.0564878
-0.00714047
-0.0151598
-0.0408245
-0.0688326
-0.0944005
-0.110357
-0.110213
-0.100383
-0.0828385
-0.063651
-0.0485795
-0.0455014
-0.0569443
-0.0768249
-0.101431
-0.119273
-0.122863
-0.0969883
-0.060861
-0.0201006
0.0150639
0.0383605
0.0497315
0.0539085
0.0550427
0.0546448
0.0537813
0.0527719
0.0520848
0.0516884
0.0516318
0.0518371
0.0522386
0.052767
0.0533628
0.0539939
0.0546289
0.055267
0.055889
0.0565164
0.0571251
-0.00561147
-0.00973157
-0.0319179
-0.0585078
-0.0864663
-0.107573
-0.115972
-0.106649
-0.0902434
-0.0701275
-0.0532069
-0.0457109
-0.0533804
-0.069822
-0.0937713
-0.11546
-0.124431
-0.114819
-0.0797582
-0.0395025
-0.000502908
0.0292482
0.0462888
0.0532999
0.0556376
0.0558264
0.0548521
0.0537498
0.0527221
0.0521117
0.0518637
0.0519621
0.0523085
0.0528162
0.0534149
0.0540486
0.054693
0.0553239
0.0559476
0.0565499
0.0571563
0.0577424
-0.00371184
-0.00435592
-0.0219404
-0.045294
-0.0725101
-0.0968751
-0.110535
-0.109742
-0.0931701
-0.0733724
-0.0557035
-0.0450233
-0.0476803
-0.0610806
-0.0835184
-0.106751
-0.120946
-0.117359
-0.096994
-0.0577815
-0.0175676
0.0171188
0.0400823
0.0513134
0.0553512
0.0565167
0.0559323
0.0545997
0.0534123
0.0524942
0.0520617
0.0520284
0.0523194
0.0528199
0.053431
0.0540895
0.0547487
0.0553943
0.0560117
0.056615
0.0571933
0.0577759
0.0583384
-0.0022419
0.00020134
-0.0125838
-0.0310095
-0.0554586
-0.079602
-0.0977013
-0.10208
-0.093065
-0.0727542
-0.0553453
-0.0428896
-0.0401135
-0.0505924
-0.0708489
-0.0949174
-0.112846
-0.116601
-0.101212
-0.0743622
-0.0353774
0.00227201
0.0308543
0.0470288
0.0538975
0.0562221
0.0564513
0.0553989
0.0539446
0.0528345
0.052156
0.0519984
0.0522335
0.0527387
0.0533903
0.0540915
0.0547923
0.0554601
0.0560935
0.0566886
0.0572655
0.0578164
0.0583737
0.0589119
-0.000808563
0.00278304
-0.0050007
-0.0183234
-0.0377317
-0.0594811
-0.0784532
-0.0881359
-0.0838527
-0.0697203
-0.0523814
-0.0381341
-0.0315588
-0.0387474
-0.056382
-0.0797798
-0.101075
-0.110714
-0.10357
-0.0811632
-0.0516996
-0.0147616
0.018023
0.0397741
0.0505091
0.0547426
0.0560462
0.0555963
0.0543123
0.0529495
0.0520987
0.0517908
0.0519905
0.0525282
0.053249
0.0540331
0.0548004
0.0555193
0.0561768
0.0567853
0.0573496
0.0578954
0.0584171
0.0589483
0.0594621
7.18513e-05
0.00417233
0.000275391
-0.00799325
-0.0225918
-0.0391474
-0.0567683
-0.0686071
-0.0697429
-0.0596978
-0.0460267
-0.0310532
-0.0219396
-0.026269
-0.0408217
-0.0628448
-0.0853941
-0.100533
-0.10099
-0.0858804
-0.0635798
-0.0299924
0.00155453
0.0285576
0.0441301
0.0514609
0.0543548
0.0549217
0.0540583
0.0527493
0.051707
0.0513108
0.0514922
0.0521078
0.0529553
0.0538692
0.0547518
0.0555516
0.0562618
0.0568908
0.0574626
0.0579896
0.0585016
0.0589936
0.0594987
0.059989
0.000455354
0.00438154
0.00340778
-8.41105e-05
-0.00915741
-0.0203026
-0.0354175
-0.0471947
-0.0514256
-0.0458719
-0.034179
-0.0206692
-0.0119748
-0.0132795
-0.0251638
-0.0449096
-0.067808
-0.0863181
-0.0939315
-0.0869235
-0.0710409
-0.0453859
-0.0129647
0.0122455
0.0340084
0.0450302
0.0507098
0.0528263
0.0528402
0.0518251
0.0508019
0.0503489
0.0505945
0.0513588
0.0524137
0.0535433
0.0546046
0.0555386
0.0563328
0.0570082
0.057592
0.058118
0.0586042
0.0590816
0.0595446
0.0600247
0.0604933
0.000747192
0.00393943
0.00482447
0.00421154
0.000321925
-0.00657895
-0.0160001
-0.0268186
-0.0318792
-0.0297409
-0.0205265
-0.00908578
0.00118175
-0.000812003
-0.00959915
-0.0273145
-0.0491819
-0.0697971
-0.0828673
-0.0838065
-0.0744199
-0.0558032
-0.0317988
-0.00274722
0.0177156
0.0353171
0.043803
0.048601
0.0500607
0.0497514
0.0489718
0.0486289
0.0490405
0.0500861
0.051488
0.0529543
0.0543025
0.0554446
0.0563755
0.0571272
0.0577442
0.0582703
0.0587453
0.0591898
0.0596337
0.0600698
0.0605272
0.0609764
0.000904976
0.00374608
0.00522733
0.00630453
0.00556918
0.0025911
-0.00276315
-0.0102442
-0.0139167
-0.0133099
-0.00685127
0.00347583
0.0121555
0.0156156
0.00459304
-0.0103239
-0.0312355
-0.0524844
-0.0691855
-0.0769413
-0.0739185
-0.0636572
-0.0440755
-0.0253924
0.00141244
0.018872
0.0337132
0.0410963
0.0450048
0.0459225
0.0456896
0.0456787
0.0464549
0.047975
0.0499376
0.0519549
0.0537483
0.0552183
0.0563641
0.0572386
0.0579144
0.0584554
0.0589166
0.0593395
0.059744
0.0601572
0.0605701
0.0610077
0.06144
0.00101506
0.00358828
0.0054694
0.00721883
0.00811573
0.00799352
0.00607047
0.00295894
0.000364315
0.0010297
0.00577699
0.0143627
0.023445
0.0270056
0.0230202
0.00467126
-0.0136802
-0.0353284
-0.0544116
-0.0673896
-0.0703299
-0.0676154
-0.0556199
-0.0397755
-0.0233107
0.000943249
0.0170475
0.0302188
0.0366996
0.039583
0.0402918
0.0407802
0.0422274
0.0445294
0.0473958
0.050285
0.0527937
0.0547755
0.0562555
0.0573281
0.0580984
0.0586738
0.059129
0.0595237
0.0598969
0.0602657
0.0606531
0.0610468
0.0614679
0.0618864
0.00109139
0.00344659
0.00558656
0.00765489
0.00929859
0.0105641
0.0111559
0.0108666
0.0107174
0.0118845
0.0159339
0.0230403
0.0315468
0.037454
0.0351758
0.0238904
0.00111287
-0.0181856
-0.0388979
-0.0562812
-0.0649702
-0.0692327
-0.0653154
-0.0545007
-0.0392038
-0.0239289
-0.00224122
0.0135124
0.0249158
0.0300173
0.0320055
0.0331839
0.0353945
0.0389162
0.0432032
0.0475488
0.0511767
0.0539761
0.055986
0.0573632
0.0582943
0.0589257
0.0593873
0.0597549
0.0600867
0.0604163
0.0607559
0.0611231
0.0615023
0.0619105
0.0623185
0.0011451
0.00332349
0.00561276
0.00785326
0.00987496
0.0117716
0.0134985
0.0150385
0.0166195
0.0189189
0.0228128
0.0290636
0.0366522
0.0432746
0.0451084
0.0371487
0.0202258
-0.00454421
-0.0237749
-0.0437884
-0.0583148
-0.0691826
-0.0733617
-0.0678229
-0.0565588
-0.0406268
-0.0275679
-0.00633446
0.00823726
0.0169437
0.0204651
0.022142
0.0251405
0.0299762
0.0362656
0.042967
0.0485095
0.0525798
0.0554335
0.0573054
0.0584794
0.0592206
0.0596951
0.0600408
0.0603263
0.0606036
0.0608985
0.0612166
0.0615699
0.0619395
0.0623386
0.062739
0.00118346
0.00322121
0.0055881
0.00790279
0.0101405
0.0123373
0.0145428
0.0168717
0.0194525
0.0225764
0.0266945
0.0323123
0.039236
0.0457676
0.0494573
0.0470966
0.0344257
0.0136495
-0.011912
-0.0317145
-0.0507124
-0.0671915
-0.0787375
-0.0796732
-0.0730021
-0.0599832
-0.0434917
-0.0305865
-0.0115041
-7.87428e-06
0.00541345
0.00774821
0.0105237
0.0166635
0.0249296
0.0352619
0.0440003
0.0502197
0.0544001
0.0570562
0.0586419
0.0595432
0.060071
0.060387
0.060625
0.0608405
0.0610754
0.0613462
0.0616513
0.0619971
0.0623619
0.0627555
0.0631498
0.00120382
0.00313896
0.00553167
0.00786965
0.0102119
0.0125693
0.0149823
0.0175859
0.0205456
0.0240228
0.0282525
0.0334889
0.0396905
0.0461097
0.0509357
0.051068
0.044795
0.028417
0.00445267
-0.0219352
-0.042993
-0.0639919
-0.081139
-0.0892814
-0.0885654
-0.0788533
-0.0633599
-0.0460251
-0.0323302
-0.0197566
-0.0123854
-0.0101464
-0.00771196
-0.00198048
0.00716771
0.0220446
0.0361883
0.0461285
0.0525642
0.0564764
0.0587057
0.0599067
0.060504
0.0608187
0.0609893
0.0611364
0.0612987
0.0615055
0.0617636
0.0620645
0.0624088
0.0627727
0.0631624
0.0635537
0.00121951
0.00306378
0.0054667
0.0077896
0.0101732
0.0125964
0.0151038
0.0177882
0.0208031
0.0243125
0.0284442
0.0333341
0.038954
0.0448807
0.0502081
0.0528849
0.0494909
0.0393966
0.0194588
-0.00803903
-0.0357623
-0.0598737
-0.0820056
-0.0964287
-0.102053
-0.0971021
-0.0832104
-0.0651003
-0.0467503
-0.0377229
-0.0324477
-0.0295137
-0.0293551
-0.024518
-0.014901
0.00187924
0.0227102
0.0385922
0.0492021
0.0552993
0.0585923
0.0602497
0.0610282
0.0613255
0.0614476
0.0614976
0.0615765
0.0617054
0.0618996
0.0621568
0.0624615
0.0628097
0.0631737
0.0635636
0.0639527
0.00122196
0.003007
0.0053924
0.00769368
0.0100725
0.012508
0.0150366
0.0177254
0.0206861
0.0240634
0.0279809
0.0325068
0.0376202
0.0430699
0.0481669
0.0520094
0.0518985
0.0454317
0.0311731
0.00702792
-0.0247561
-0.0545159
-0.0813937
-0.101575
-0.1129
-0.113324
-0.102507
-0.0845322
-0.0646032
-0.0496762
-0.0476311
-0.0506152
-0.0510841
-0.0505326
-0.0403012
-0.0228785
0.00450582
0.025586
0.0425937
0.0529121
0.058077
0.0605478
0.0615853
0.061958
0.0619884
0.0619526
0.0619145
0.0619516
0.0620683
0.0622655
0.0625325
0.0628474
0.0632047
0.0635722
0.0639614
0.0643477
0.0012288
0.0029513
0.00532918
0.00758702
0.00994861
0.0123582
0.0148665
0.0175152
0.0203865
0.0235893
0.0272357
0.0313963
0.0360512
0.0410372
0.045944
0.049827
0.0516781
0.0487156
0.0387987
0.0196014
-0.00960333
-0.0462666
-0.0773914
-0.104454
-0.12084
-0.126568
-0.119806
-0.103118
-0.082643
-0.0648213
-0.0575424
-0.0630032
-0.0742203
-0.0752471
-0.0705063
-0.0510981
-0.0229321
0.00708466
0.0308168
0.0478322
0.0566823
0.0605992
0.0621976
0.0626494
0.0626721
0.0624881
0.0623378
0.0622486
0.0622721
0.0623974
0.0626119
0.0628976
0.0632279
0.0635935
0.0639663
0.0643563
0.0647393
0.00122384
0.00291835
0.00526166
0.007493
0.00981227
0.0121874
0.014647
0.017232
0.0199994
0.0230273
0.0264068
0.0302073
0.0344343
0.0389774
0.0435656
0.04763
0.050089
0.0495867
0.0435895
0.0291708
0.00409858
-0.0305947
-0.0716406
-0.101758
-0.125867
-0.135842
-0.133738
-0.119722
-0.0993251
-0.080352
-0.0686332
-0.0714276
-0.0839921
-0.101033
-0.0980365
-0.0849216
-0.0540562
-0.0196047
0.0121914
0.0383207
0.0532086
0.0600452
0.0626603
0.0634649
0.0634186
0.063167
0.0628323
0.0626156
0.0625138
0.0625513
0.0627043
0.0629481
0.063259
0.063607
0.0639833
0.0643602
0.064749
0.0651271
0.00122831
0.00288101
0.00521847
0.00739824
0.00968961
0.0120091
0.0144165
0.016923
0.0195816
0.0224471
0.0255842
0.0290576
0.0328845
0.0370078
0.0412276
0.0451905
0.0481535
0.048993
0.0458908
0.0360084
0.0161479
-0.0153262
-0.0548503
-0.0978422
-0.124129
-0.141873
-0.142977
-0.132595
-0.113666
-0.0941784
-0.079531
-0.0787697
-0.091919
-0.108518
-0.12642
-0.11318
-0.0906494
-0.0506321
-0.0112158
0.023147
0.0460875
0.0579499
0.0627044
0.0641575
0.0643308
0.0638978
0.0634547
0.0630386
0.0628048
0.0627273
0.0628043
0.0630012
0.0632832
0.0636229
0.0639896
0.0643739
0.0647531
0.0651388
0.0655099
0.00122457
0.0028695
0.00516931
0.00733272
0.00956938
0.0118496
0.0141883
0.0166201
0.0191698
0.0218848
0.0248134
0.0279996
0.0314739
0.0351991
0.0390642
0.042774
0.0459158
0.0475734
0.0464907
0.0403226
0.0257035
-0.000166444
-0.0375077
-0.0796922
-0.120556
-0.140652
-0.148251
-0.140396
-0.123961
-0.104912
-0.0887007
-0.0850894
-0.0965515
-0.116227
-0.133112
-0.145786
-0.115162
-0.0843795
-0.0396164
0.00243361
0.0340874
0.0530035
0.0615747
0.0645571
0.065098
0.0648023
0.0641095
0.0635607
0.0631314
0.0629285
0.0629091
0.0630475
0.0633004
0.063626
0.0639949
0.0643778
0.0647677
0.065145
0.0655247
0.0658859
0.00285244
0.00515215
0.00726589
0.00948279
0.0116988
0.0139873
0.0163344
0.0187869
0.021365
0.0241097
0.0270576
0.0302246
0.0336058
0.0371103
0.0405794
0.0436309
0.0457787
0.0459549
0.0426021
0.0327448
0.0128611
-0.0187291
-0.0599314
-0.100728
-0.135773
-0.146024
-0.142929
-0.128934
-0.111324
-0.095297
-0.0895621
-0.0995535
-0.117291
-0.140887
-0.153167
-0.157479
-0.112524
-0.0700715
-0.0233201
0.0166792
0.0438523
0.0582796
0.063943
0.0657319
0.0655323
0.0649089
0.0640902
0.0635176
0.0631406
0.0630132
0.063081
0.0632976
0.0636137
0.0639835
0.0643786
0.0647733
0.0651639
0.0655346
0.0659046
0.0662528
0.00512961
0.00723789
0.0093992
0.0115878
0.013803
0.0160872
0.0184392
0.0208993
0.0234854
0.026227
0.0291445
0.0322223
0.0354228
0.0386032
0.0415596
0.0438385
0.0448485
0.0433699
0.0373653
0.0234146
-0.00156145
-0.0373492
-0.0789511
-0.113076
-0.140378
-0.138429
-0.128348
-0.113014
-0.0990549
-0.0921096
-0.100287
-0.116058
-0.139741
-0.161313
-0.16239
-0.150474
-0.09841
-0.0506423
-0.00560286
0.0296377
0.0514294
0.0615917
0.0652565
0.0662429
0.0655097
0.064714
0.0638891
0.063369
0.0631003
0.0630873
0.0632648
0.06357
0.0639506
0.0643608
0.0647758
0.0651755
0.0655607
0.0659196
0.0662758
0.0666076
0.00720795
0.00936096
0.0114855
0.0136659
0.0158668
0.0181435
0.0204891
0.0229406
0.0255099
0.0282118
0.0310472
0.0339704
0.0369134
0.0396856
0.0420402
0.0434623
0.0432307
0.0399353
0.0310694
0.0132435
-0.0160275
-0.0527128
-0.0905361
-0.114627
-0.13251
-0.121675
-0.109563
-0.0987605
-0.0928872
-0.0973611
-0.112669
-0.135794
-0.160286
-0.172228
-0.159528
-0.134209
-0.0785352
-0.0305361
0.0105563
0.0398167
0.0562742
0.0632134
0.0657113
0.0660473
0.0651266
0.0642858
0.0635507
0.0631575
0.063047
0.0631799
0.0634817
0.0638782
0.0643182
0.0647605
0.0651861
0.0655824
0.0659552
0.0662971
0.0666352
0.0669474
0.00932405
0.0114359
0.0135441
0.0157022
0.0178862
0.0201452
0.0224714
0.0248953
0.0274207
0.0300444
0.0327495
0.0354611
0.0380838
0.040387
0.0420807
0.0425951
0.0410774
0.0359261
0.0244128
0.00270267
-0.028273
-0.0615361
-0.0919369
-0.106308
-0.114686
-0.101268
-0.093688
-0.0894705
-0.0909718
-0.106016
-0.128911
-0.154461
-0.173088
-0.170714
-0.14438
-0.110901
-0.0580764
-0.0127994
0.0232553
0.0464812
0.0586569
0.063689
0.0654391
0.0653741
0.0644575
0.0636839
0.0631277
0.0629294
0.0630188
0.0633193
0.0637499
0.064232
0.0647203
0.0651822
0.0656069
0.0659904
0.0663438
0.0666633
0.0669795
0.0672691
0.0113914
0.0134826
0.0155601
0.0176938
0.0198518
0.0220824
0.0243747
0.0267507
0.0292035
0.0317132
0.034246
0.0367005
0.0389577
0.0407561
0.0417651
0.0413718
0.0386328
0.031786
0.0174183
-0.00710378
-0.0348358
-0.062559
-0.083312
-0.0898201
-0.0918225
-0.0840606
-0.0802419
-0.0818524
-0.0959154
-0.118302
-0.144852
-0.166748
-0.172821
-0.15683
-0.123553
-0.0872403
-0.0399521
0.000954919
0.031601
0.0498873
0.0592844
0.0634198
0.0646424
0.0643881
0.0635634
0.0629712
0.0626777
0.062734
0.0630537
0.0635308
0.0640835
0.064637
0.0651565
0.0656226
0.0660337
0.0663949
0.0667219
0.0670145
0.0673052
0.0675698
0.0134303
0.0154866
0.0175316
0.0196324
0.0217559
0.0239468
0.0261898
0.0284965
0.0308501
0.0332153
0.0355419
0.0377084
0.0395753
0.0408622
0.0412049
0.0399876
0.0361834
0.0278336
0.0106433
-0.00973796
-0.0346459
-0.0556189
-0.0670121
-0.0689392
-0.0693967
-0.0676265
-0.0693059
-0.0832115
-0.104304
-0.130978
-0.155557
-0.168155
-0.161338
-0.13649
-0.10325
-0.0654745
-0.0262098
0.0100326
0.0357862
0.0509631
0.0588912
0.0625691
0.0634142
0.0631092
0.0625137
0.0622172
0.0622641
0.0626214
0.0631868
0.0638348
0.0644907
0.065093
0.0656224
0.0660754
0.0664601
0.0667902
0.067085
0.067347
0.0676094
0.0678473
0.0154263
0.0174459
0.0194511
0.0215118
0.0235919
0.0257315
0.0279091
0.0301268
0.0323588
0.0345554
0.036653
0.0385168
0.0399924
0.040796
0.0405437
0.0386704
0.0340177
0.0247737
0.00983189
-0.00787386
-0.0283001
-0.0417648
-0.0465822
-0.0479802
-0.0483305
-0.0555702
-0.0676791
-0.0881833
-0.113543
-0.139704
-0.157312
-0.159191
-0.143099
-0.116004
-0.0880226
-0.0492946
-0.0180783
0.0148882
0.0369114
0.0507433
0.0579557
0.061154
0.0617865
0.0616112
0.0613868
0.0614994
0.0619534
0.0626406
0.0634476
0.0642435
0.064972
0.0655944
0.06611
0.0665325
0.0668789
0.0671704
0.0674284
0.0676572
0.0678891
0.0680998
0.017378
0.0193539
0.0213132
0.0233267
0.0253548
0.0274309
0.0295283
0.0316411
0.0337335
0.0357459
0.0376051
0.0391696
0.0402814
0.0406665
0.0399542
0.0376619
0.03275
0.0242374
0.0121561
-0.00445711
-0.0164869
-0.0238743
-0.0259067
-0.029121
-0.0322105
-0.0520469
-0.0697326
-0.0943239
-0.120069
-0.141211
-0.149947
-0.143628
-0.124753
-0.103546
-0.0778113
-0.0404674
-0.0148078
0.0168957
0.0364521
0.0498566
0.0564785
0.0591783
0.0598204
0.0599811
0.0602769
0.0609039
0.0618139
0.062835
0.0638549
0.0647588
0.0655201
0.0661301
0.0666079
0.0669841
0.0672825
0.06753
0.0677481
0.0679423
0.0681421
0.0683245
0.0192787
0.0212055
0.0231138
0.0250733
0.0270401
0.0290419
0.0310477
0.0330427
0.0349842
0.0368073
0.0384317
0.0397207
0.0405251
0.040594
0.0396177
0.0373021
0.0329972
0.0256901
0.0150244
0.00485392
-0.00171167
-0.00531761
-0.00757071
-0.0145962
-0.0235094
-0.0523663
-0.0729953
-0.0987412
-0.121237
-0.135189
-0.137468
-0.127879
-0.115584
-0.0940377
-0.0756471
-0.0382935
-0.0140134
0.0173385
0.0358646
0.0484406
0.0542952
0.0566679
0.0575961
0.0583228
0.0592958
0.0605259
0.06191
0.0632343
0.0644132
0.0653714
0.0661198
0.0666844
0.0671031
0.06742
0.0676635
0.0678636
0.0680405
0.0681999
0.0683679
0.068521
0.021124
0.0229971
0.0248495
0.0267481
0.0286457
0.0305651
0.0324699
0.0343394
0.0361268
0.0377652
0.0391739
0.0402313
0.0408037
0.0407029
0.0397309
0.0378444
0.0345137
0.0288025
0.0222447
0.0168798
0.0133915
0.0112652
0.00675759
-0.00561593
-0.0205102
-0.05379
-0.0756206
-0.0989198
-0.11638
-0.125524
-0.125368
-0.119306
-0.108134
-0.0930967
-0.0793041
-0.0394484
-0.0146542
0.0166295
0.0350017
0.0461529
0.0512744
0.0536675
0.0552237
0.0567715
0.0585758
0.0604652
0.06229
0.0638491
0.0651114
0.0660603
0.0667498
0.0672395
0.0675819
0.0678307
0.0680155
0.0681673
0.0683034
0.0684285
0.0685662
0.0686898
0.0229103
0.0247258
0.0265175
0.0283492
0.0301723
0.0320026
0.0338008
0.0355435
0.0371807
0.0386497
0.0398764
0.0407632
0.0412062
0.0411121
0.0404314
0.0392476
0.037112
0.0340195
0.0309193
0.0284758
0.0267861
0.0240987
0.0162422
-0.00115066
-0.0211271
-0.0570709
-0.0757256
-0.0945581
-0.109091
-0.117155
-0.116649
-0.1161
-0.109831
-0.0987747
-0.0836613
-0.0444704
-0.0135013
0.0160974
0.0330694
0.0425994
0.0473495
0.0502677
0.0528643
0.0555067
0.058268
0.0607996
0.0629737
0.0646675
0.0659206
0.0667951
0.0673849
0.0677765
0.0680312
0.0682076
0.0683332
0.0684381
0.0685351
0.0686269
0.0687356
0.068831
0.0246353
0.0263891
0.0281163
0.0298777
0.0316215
0.0333592
0.0350503
0.0366698
0.0381688
0.0394942
0.0405843
0.041375
0.0418129
0.0419034
0.0417086
0.0413974
0.0408107
0.0400371
0.0392147
0.0385922
0.0370083
0.0323729
0.0212629
0.000343205
-0.0242483
-0.057721
-0.07251
-0.0895177
-0.104213
-0.111883
-0.120449
-0.122203
-0.118713
-0.106138
-0.0876356
-0.0473576
-0.0118227
0.0145672
0.0292747
0.0374864
0.0425437
0.0466436
0.0507538
0.0547713
0.0584992
0.0615548
0.0639521
0.0656463
0.066798
0.0675406
0.0679992
0.0682779
0.0684401
0.0685444
0.0686133
0.0686741
0.0687344
0.0687958
0.0688756
0.0689448
0.0262964
0.0279857
0.0296468
0.0313348
0.032997
0.0346424
0.0362295
0.0377351
0.0391154
0.0403314
0.0413396
0.0421186
0.0426722
0.043079
0.0434934
0.0441608
0.0449879
0.04578
0.0463554
0.0461342
0.0435288
0.0364021
0.0228959
-0.000266339
-0.0265998
-0.0550012
-0.070041
-0.0883026
-0.104318
-0.120213
-0.130769
-0.13451
-0.129852
-0.111766
-0.0882648
-0.0435551
-0.0115938
0.010479
0.0229845
0.0306941
0.0370671
0.0430753
0.0492751
0.0548276
0.0592922
0.0627636
0.0651622
0.0667237
0.067693
0.0682604
0.0685688
0.0687292
0.0688004
0.0688367
0.0688537
0.068875
0.0689014
0.0689353
0.0689873
0.0690316
0.0278925
0.0295167
0.0311101
0.0327234
0.0343051
0.0358609
0.0373511
0.0387577
0.0400449
0.0411905
0.0421761
0.043023
0.043785
0.0445928
0.0456667
0.0471939
0.0489862
0.0506582
0.0515952
0.0508412
0.0467784
0.0373617
0.0224102
-0.0013204
-0.0272673
-0.054613
-0.0726121
-0.0935776
-0.114865
-0.133941
-0.146494
-0.149588
-0.139149
-0.111964
-0.0820785
-0.0419946
-0.0146749
0.002759
0.0138492
0.0225797
0.0313218
0.040194
0.0489025
0.0558544
0.0608512
0.0643072
0.0665164
0.0678272
0.0685543
0.0689218
0.0690743
0.0691196
0.0691069
0.0690828
0.0690543
0.0690412
0.0690374
0.0690463
0.069072
0.0690925
0.0294244
0.0309828
0.0325086
0.0340487
0.0355521
0.037024
0.0384288
0.0397552
0.0409779
0.042094
0.0431134
0.0440904
0.0451185
0.0463565
0.0480138
0.0501278
0.0524219
0.0542643
0.0548368
0.0531661
0.0477646
0.0367957
0.0208703
-0.00293619
-0.0310384
-0.0592376
-0.0817971
-0.107702
-0.132458
-0.15336
-0.165649
-0.162462
-0.141566
-0.105396
-0.0744033
-0.0446241
-0.0226782
-0.00924333
0.00239182
0.0137101
0.026261
0.0390292
0.0499092
0.0576649
0.0628626
0.0660588
0.0679079
0.0688834
0.0693365
0.0694986
0.0695019
0.0694431
0.0693577
0.0692829
0.0692164
0.0691741
0.0691438
0.0691297
0.0691306
0.0691282
0.0308931
0.0323863
0.0338465
0.0353157
0.0367454
0.038142
0.0394756
0.0407423
0.0419298
0.0430555
0.0441525
0.0452983
0.04661
0.0482331
0.0503055
0.0527102
0.0550657
0.0565864
0.0564515
0.0538614
0.0474292
0.0355865
0.0184238
-0.00688726
-0.0390387
-0.0700056
-0.0991865
-0.129115
-0.155363
-0.175829
-0.182027
-0.167628
-0.13478
-0.0960827
-0.0720713
-0.0531425
-0.0365391
-0.0250673
-0.0107465
0.00450318
0.0238554
0.0400542
0.052252
0.0602862
0.0651717
0.067859
0.0692306
0.069829
0.0700044
0.0699732
0.0698442
0.069698
0.0695541
0.0694392
0.0693424
0.069276
0.0692222
0.0691869
0.0691643
0.0691399
0.0323003
0.0337309
0.0351279
0.0365301
0.0378928
0.039225
0.0405022
0.0417301
0.0429104
0.0440756
0.045277
0.0466033
0.0481701
0.0500738
0.0523636
0.0547813
0.0568964
0.0579718
0.0569973
0.0535485
0.0462071
0.0333355
0.0139056
-0.0147112
-0.0528553
-0.087723
-0.12372
-0.155023
-0.180292
-0.194847
-0.189205
-0.162314
-0.122873
-0.0908491
-0.0768732
-0.0694037
-0.0559938
-0.0433365
-0.0254283
-0.000501535
0.0246498
0.0431395
0.0558241
0.0634034
0.0675478
0.0695516
0.0703951
0.0706175
0.0705355
0.0703368
0.0701004
0.0698868
0.0696998
0.0695555
0.0694355
0.0693492
0.0692744
0.0692192
0.0691738
0.0691283
0.0336496
0.0350201
0.0363573
0.0376981
0.0390021