/*--------------------------------*- C++ -*----------------------------------*\
| =========                 |                                                 |
| \\      /  F ield         | OpenFOAM: The Open Source CFD Toolbox           |
|  \\    /   O peration     | Version:  2506                                  |
|   \\  /    A nd           | Website:  www.openfoam.com                      |
|    \\/     M anipulation  |                                                 |
\*---------------------------------------------------------------------------*/
FoamFile
{
    version     2.0;
    format      ascii;
    arch        "LSB;label=32;scalar=64";
    class       surfaceScalarField;
    location    "149.999038929845";
    object      phi_0;
}
// * * * * * * * * * * * * * * * * * * * * * * * * * * * * * * * * * * * * * //

dimensions      [0 3 -1 0 0 0 0];

oriented        oriented;

internalField   nonuniform List<scalar> 
19160
(
-0.000539694
-0.230752
-0.00109128
-0.230732
-0.000526042
-0.230226
-0.00165541
-0.230727
-0.00106081
-0.230197
-0.000510077
-0.229716
-0.00224867
-0.230686
-0.00160643
-0.230181
-0.00102626
-0.229681
-0.000488758
-0.229227
-0.00287803
-0.230651
-0.00217449
-0.230118
-0.0015517
-0.229656
-0.000981307
-0.229189
-0.000464707
-0.228762
-0.00356177
-0.230581
-0.00277165
-0.230054
-0.00209363
-0.229576
-0.00147976
-0.229157
-0.000930902
-0.228722
-0.000439638
-0.228323
-0.00431677
-0.230467
-0.00341073
-0.229942
-0.0026583
-0.22949
-0.00198844
-0.229067
-0.00139942
-0.228689
-0.000878556
-0.228284
-0.000414712
-0.227908
-0.00516964
-0.230327
-0.00410509
-0.229773
-0.00325425
-0.229346
-0.00251109
-0.228967
-0.00187165
-0.228595
-0.00131622
-0.228251
-0.00082674
-0.227872
-0.000392173
-0.227516
-0.00615333
-0.230098
-0.00487333
-0.229559
-0.0038917
-0.229136
-0.0030523
-0.228805
-0.00234867
-0.22849
-0.00175122
-0.22816
-0.00123429
-0.227843
-0.00078007
-0.227484
-0.000373291
-0.227143
-0.00731442
-0.229797
-0.00573907
-0.229233
-0.00458331
-0.228867
-0.00361755
-0.22857
-0.00283108
-0.228323
-0.00218196
-0.228059
-0.00163344
-0.227761
-0.00116086
-0.227463
-0.000741206
-0.227116
-0.000358412
-0.226784
-0.00871114
-0.229352
-0.00673343
-0.228803
-0.00534557
-0.22847
-0.0042129
-0.228272
-0.00331951
-0.228082
-0.00260521
-0.227899
-0.00202015
-0.227672
-0.00152858
-0.227393
-0.0011002
-0.227104
-0.000710937
-0.226763
-0.0003486
-0.226436
-0.0103978
-0.228677
-0.00789643
-0.228189
-0.00619812
-0.22795
-0.00484628
-0.227837
-0.00381349
-0.227778
-0.0030168
-0.22767
-0.00238779
-0.227532
-0.00187718
-0.227324
-0.00144287
-0.22705
-0.0010537
-0.226761
-0.000691416
-0.22642
-0.000343636
-0.226092
-0.0124424
-0.227646
-0.0092582
-0.227315
-0.00716648
-0.227221
-0.0055256
-0.227271
-0.00431249
-0.227338
-0.00341005
-0.227385
-0.00272782
-0.22733
-0.00219723
-0.227212
-0.00176173
-0.227005
-0.00137858
-0.226725
-0.00102466
-0.226428
-0.000682211
-0.226082
-0.000343197
-0.225749
-0.0151151
-0.226196
-0.0108244
-0.22608
-0.00826922
-0.226212
-0.00626212
-0.226484
-0.00481328
-0.22677
-0.00377619
-0.226972
-0.003028
-0.227084
-0.00247656
-0.227051
-0.00204542
-0.226928
-0.00167741
-0.226706
-0.00134029
-0.22641
-0.00101241
-0.226097
-0.000682606
-0.225742
-0.000345799
-0.225403
-0.0190268
-0.224872
-0.0126938
-0.224327
-0.00951141
-0.224838
-0.00706052
-0.225414
-0.00531303
-0.225985
-0.00410172
-0.226445
-0.00327198
-0.226728
-0.0026983
-0.226863
-0.00227907
-0.226817
-0.00193787
-0.226667
-0.00163024
-0.226416
-0.00132709
-0.226095
-0.00101575
-0.225764
-0.000689532
-0.225399
-0.000350673
-0.225052
-0.0249411
-0.224667
-0.0152993
-0.222267
-0.0109161
-0.222922
-0.00791546
-0.223983
-0.00580178
-0.224925
-0.00437035
-0.225716
-0.00343708
-0.22628
-0.00283957
-0.226587
-0.0024425
-0.226699
-0.00214373
-0.226611
-0.00188235
-0.226415
-0.00161908
-0.226124
-0.00133711
-0.225774
-0.00102983
-0.225424
-0.000701278
-0.225048
-0.000356294
-0.224696
-0.0330785
-0.226559
-0.0194644
-0.220502
-0.0127289
-0.220454
-0.00880556
-0.222032
-0.0062664
-0.223518
-0.00455683
-0.224739
-0.00349423
-0.225659
-0.00286982
-0.226249
-0.00250775
-0.226521
-0.00227301
-0.22657
-0.00208044
-0.226413
-0.00187756
-0.226157
-0.00164116
-0.22582
-0.00136339
-0.22544
-0.00105171
-0.225074
-0.000714593
-0.22469
-0.000360485
-0.224335
-0.0425902
-0.230041
-0.0260866
-0.219937
-0.0155201
-0.217711
-0.00981395
-0.219446
-0.00666751
-0.221631
-0.00463329
-0.223442
-0.00340373
-0.224829
-0.0027483
-0.22578
-0.00243819
-0.226319
-0.00229479
-0.2265
-0.00220259
-0.226448
-0.00208793
-0.226203
-0.0019195
-0.225879
-0.00168697
-0.225497
-0.00140129
-0.225091
-0.00107611
-0.224712
-0.000724913
-0.224325
-0.000362255
-0.223973
-0.051771
-0.232671
-0.0352805
-0.220847
-0.0201629
-0.215294
-0.0112824
-0.216242
-0.00699588
-0.219117
-0.00454918
-0.221715
-0.0031186
-0.223727
-0.00242214
-0.225155
-0.00218318
-0.226035
-0.00216873
-0.226445
-0.00221749
-0.226485
-0.00223033
-0.226305
-0.00216062
-0.225962
-0.00199552
-0.22557
-0.00174944
-0.225148
-0.00144292
-0.224724
-0.00109573
-0.224341
-0.000730049
-0.223958
-0.000360286
-0.223613
-0.0587613
-0.231491
-0.0459029
-0.222048
-0.0272134
-0.213796
-0.0139414
-0.212635
-0.00735523
-0.215883
-0.00425759
-0.219409
-0.00257386
-0.22226
-0.00182312
-0.224326
-0.00167836
-0.22566
-0.00183731
-0.226367
-0.00208398
-0.226579
-0.00227597
-0.226439
-0.00234873
-0.226117
-0.00228189
-0.225676
-0.00209508
-0.225224
-0.00181724
-0.224774
-0.0014776
-0.224342
-0.00110686
-0.223964
-0.0007272
-0.223591
-0.000353051
-0.22326
-0.062637
-0.2249
-0.0559237
-0.22147
-0.0363194
-0.212942
-0.0185709
-0.209167
-0.00817356
-0.211817
-0.00373665
-0.216404
-0.00169915
-0.220284
-0.000867288
-0.223215
-0.000835132
-0.225169
-0.00122738
-0.22627
-0.00174196
-0.226709
-0.00218653
-0.226668
-0.00246056
-0.226327
-0.00253621
-0.225863
-0.0024363
-0.225334
-0.00220219
-0.224839
-0.00187539
-0.224376
-0.00149952
-0.223949
-0.00110496
-0.223587
-0.000713191
-0.22323
-0.000340596
-0.222919
-0.0635519
-0.212797
-0.0636061
-0.217217
-0.0462368
-0.211553
-0.0254566
-0.206057
-0.0101373
-0.207203
-0.00313814
-0.212415
-0.000421926
-0.217681
0.000541103
-0.221692
0.000451121
-0.224502
-0.000234236
-0.226162
-0.00111375
-0.226898
-0.00190468
-0.226991
-0.0024646
-0.226664
-0.00274347
-0.22612
-0.00277046
-0.225529
-0.00260147
-0.224935
-0.00229621
-0.224419
-0.00191513
-0.223961
-0.00150191
-0.223552
-0.00108499
-0.223215
-0.000688071
-0.222883
-0.000322714
-0.222597
-0.0620087
-0.196729
-0.0680108
-0.208392
-0.0554078
-0.208046
-0.0340843
-0.202925
-0.0138986
-0.202295
-0.00285413
-0.207487
0.00127775
-0.214115
0.00250047
-0.21964
0.00230796
-0.223549
0.0012641
-0.226
-8.65697e-05
-0.227189
-0.00135474
-0.227448
-0.00231242
-0.227143
-0.00288291
-0.226524
-0.00309282
-0.225798
-0.00302022
-0.22511
-0.00274904
-0.224482
-0.00236408
-0.22397
-0.0019267
-0.223536
-0.0014775
-0.22316
-0.00104694
-0.222856
-0.000651443
-0.222554
-0.00030003
-0.222297
-0.0583853
-0.179003
-0.0694656
-0.195275
-0.0626362
-0.201164
-0.0432642
-0.198866
-0.0196743
-0.197149
-0.00350126
-0.201648
0.00328129
-0.209491
0.00512436
-0.216739
0.00487777
-0.22221
0.0034323
-0.225717
0.0014705
-0.227557
-0.000428388
-0.228116
-0.00193886
-0.227822
-0.00292115
-0.227105
-0.00339651
-0.226221
-0.0034649
-0.225353
-0.00324654
-0.224613
-0.00285982
-0.223986
-0.00239204
-0.223504
-0.00190009
-0.223113
-0.00142608
-0.222781
-0.000990223
-0.222517
-0.000604639
-0.22225
-0.000273009
-0.222023
-0.0532548
-0.161649
-0.0693204
-0.179148
-0.0672834
-0.190627
-0.0516781
-0.19275
-0.0269999
-0.191541
-0.00562793
-0.195023
0.00521087
-0.203578
0.00845502
-0.212821
0.00834996
-0.220211
0.00648828
-0.225266
0.003765
-0.228011
0.00100184
-0.228987
-0.00125593
-0.228799
-0.00281328
-0.22793
-0.00366824
-0.226833
-0.00394417
-0.225742
-0.00380584
-0.224794
-0.00342125
-0.224051
-0.00291444
-0.223464
-0.00236646
-0.223038
-0.00183471
-0.222705
-0.00134695
-0.222424
-0.000917016
-0.222205
-0.000548713
-0.221974
-0.000243417
-0.22178
-0.04936
-0.0991726
-0.068576
-0.162394
-0.0692985
-0.177133
-0.058391
-0.183914
-0.0348259
-0.184924
-0.00951269
-0.187656
0.00656325
-0.196375
0.0123156
-0.207438
0.0128331
-0.217305
0.0107174
-0.22444
0.00711575
-0.228617
0.00318905
-0.230199
-0.000153004
-0.23009
-0.00250757
-0.229104
-0.00389196
-0.227706
-0.0044677
-0.226309
-0.00445081
-0.225097
-0.00407439
-0.224141
-0.00351709
-0.223449
-0.00289456
-0.222936
-0.00228619
-0.222586
-0.00172979
-0.222322
-0.00124333
-0.222098
-0.000829155
-0.221924
-0.000487372
-0.22173
-0.000212737
-0.221567
-0.0454015
-0.093067
-0.0675377
-0.100211
-0.0695104
-0.162182
-0.0631305
-0.172394
-0.0418277
-0.176913
-0.0147752
-0.179661
0.00673179
-0.187824
0.0163388
-0.200398
0.0181963
-0.212801
0.0162371
-0.222824
0.011916
-0.229241
0.00655953
-0.231987
0.00166021
-0.232012
-0.00192373
-0.230674
-0.00406347
-0.228933
-0.00505287
-0.227121
-0.00521373
-0.225547
-0.00485588
-0.224315
-0.00423206
-0.223426
-0.00350933
-0.222834
-0.0027981
-0.222424
-0.0021505
-0.222166
-0.00158997
-0.221975
-0.0011182
-0.221809
-0.000732561
-0.221679
-0.000423766
-0.221519
-0.000182316
-0.221385
-0.0418269
-0.088091
-0.0662565
-0.0943482
-0.0690669
-0.100654
-0.0657962
-0.159516
-0.0473269
-0.166895
-0.0203572
-0.171331
0.0054234
-0.178353
0.0199425
-0.191428
0.0241109
-0.206313
0.0228205
-0.219385
0.0182369
-0.229145
0.0115805
-0.234262
0.00469554
-0.235023
-0.000758828
-0.233177
-0.00415031
-0.230587
-0.00574514
-0.228241
-0.00614384
-0.226191
-0.00581704
-0.224585
-0.00510459
-0.223443
-0.00424539
-0.22269
-0.00339458
-0.222237
-0.00262463
-0.22195
-0.00196602
-0.22179
-0.0014199
-0.221673
-0.0009802
-0.221561
-0.000632341
-0.221471
-0.000360779
-0.22134
-0.000154151
-0.221231
-0.0389597
-0.0844626
-0.0648487
-0.0894988
-0.0683946
-0.0950205
-0.0664528
-0.0999979
-0.0510511
-0.155792
-0.0252354
-0.162016
0.00289221
-0.1688
0.0227143
-0.181125
0.0301651
-0.197482
0.0300909
-0.213583
0.0256877
-0.226836
0.0182214
-0.235786
0.00940801
-0.238974
0.00151786
-0.237299
-0.00389186
-0.233435
-0.00657782
-0.229755
-0.00732833
-0.227056
-0.00703211
-0.224976
-0.00619887
-0.223491
-0.00515122
-0.222537
-0.0041092
-0.221975
-0.00317315
-0.221689
-0.00238361
-0.221532
-0.00173985
-0.22147
-0.00123164
-0.221422
-0.000836895
-0.221356
-0.000533219
-0.221298
-0.000302577
-0.221192
-0.000129642
-0.221101
-0.0371169
-0.0822939
-0.0634544
-0.0858569
-0.0675677
-0.0903257
-0.0663082
-0.0951651
-0.0526345
-0.0984145
-0.0288791
-0.152148
3.16429e-05
-0.159156
0.02412
-0.170205
0.0359064
-0.186866
0.0376755
-0.205067
0.0338543
-0.22175
0.025946
-0.23456
0.0156492
-0.242027
0.00526796
-0.242724
-0.00280873
-0.238382
-0.00739986
-0.232613
-0.00887494
-0.228208
-0.00861474
-0.225473
-0.00760434
-0.22357
-0.00629601
-0.222346
-0.00498816
-0.221658
-0.00382534
-0.221323
-0.00285869
-0.221214
-0.0020858
-0.221186
-0.00148858
-0.221213
-0.00103596
-0.221223
-0.000695392
-0.221194
-0.000441812
-0.221159
-0.000252104
-0.22107
-0.000110102
-0.220991
-0.0362623
-0.0814801
-0.0622534
-0.0834949
-0.066637
-0.0867876
-0.0655664
-0.0910675
-0.0531076
-0.0946919
-0.0309495
-0.0963441
-0.00246013
-0.149656
0.0244748
-0.15951
0.0407783
-0.175077
0.0451971
-0.194388
0.0423478
-0.21356
0.0343854
-0.230189
0.0228549
-0.241766
0.0102791
-0.247038
-0.000673821
-0.244859
-0.00789136
-0.237891
-0.0108003
-0.230688
-0.0107395
-0.226083
-0.00944336
-0.223634
-0.00777343
-0.222093
-0.00609766
-0.221237
-0.00462033
-0.220863
-0.00341376
-0.220768
-0.00246738
-0.220832
-0.00175381
-0.220921
-0.00122725
-0.221021
-0.00084312
-0.221075
-0.000565248
-0.221071
-0.000362865
-0.221048
-0.00021209
-0.220968
-9.627e-05
-0.220895
-0.0366282
-0.0822808
-0.0610888
-0.0826448
-0.0655025
-0.0846294
-0.0643187
-0.0880353
-0.0526669
-0.0915082
-0.0318807
-0.0937607
-0.00463929
-0.094165
0.0243556
-0.149537
0.0445781
-0.16331
0.0522694
-0.182149
0.0508231
-0.202863
0.0431947
-0.22237
0.0307872
-0.238122
0.0161077
-0.247594
0.00242571
-0.250138
-0.00790647
-0.244844
-0.0129911
-0.2357
-0.0136138
-0.227814
-0.0119317
-0.223595
-0.00969825
-0.22171
-0.00752515
-0.220665
-0.00561443
-0.220243
-0.0040774
-0.220199
-0.00289874
-0.220336
-0.00203011
-0.220556
-0.00140842
-0.22074
-0.00097031
-0.220894
-0.000666295
-0.220974
-0.000453436
-0.22098
-0.00030072
-0.22096
-0.000184087
-0.22088
-8.87912e-05
-0.220806
-0.037646
-0.0847407
-0.0601136
-0.083256
-0.0641878
-0.0839595
-0.0626358
-0.0863123
-0.0514451
-0.089257
-0.0318171
-0.0915719
-0.00591765
-0.0924823
0.0228787
-0.0926881
0.047453
-0.152412
0.0585694
-0.16961
0.0589593
-0.190286
0.0520385
-0.211707
0.0392
-0.230782
0.0227263
-0.24474
0.00619962
-0.251368
-0.00723046
-0.250814
-0.0152958
-0.242539
-0.0173279
-0.231986
-0.0154472
-0.224298
-0.0122849
-0.221008
-0.00936667
-0.219868
-0.0068799
-0.2194
-0.00489143
-0.219429
-0.00339594
-0.219702
-0.00232252
-0.220044
-0.00157546
-0.220389
-0.00106977
-0.220641
-0.000735549
-0.220825
-0.0005153
-0.220912
-0.000366244
-0.220915
-0.00025791
-0.220886
-0.000169392
-0.220799
-8.76374e-05
-0.220718
-0.0389822
-0.0883685
-0.0590541
-0.0858001
-0.0624871
-0.0849567
-0.0604982
-0.086097
-0.0495802
-0.0881772
-0.0308975
-0.0901766
-0.00622123
-0.0912683
0.0217755
-0.091379
0.0475019
-0.092737
0.0639302
-0.157773
0.0665035
-0.177155
0.0605524
-0.1988
0.0477778
-0.220285
0.0299505
-0.238007
0.0108356
-0.249376
-0.0057134
-0.252885
-0.0173108
-0.248799
-0.0216666
-0.2382
-0.0203038
-0.227129
-0.0160101
-0.220573
-0.0117916
-0.218583
-0.0084896
-0.218258
-0.00590624
-0.218385
-0.00398417
-0.21884
-0.00263429
-0.21939
-0.00172428
-0.219895
-0.00113121
-0.220327
-0.000761511
-0.220615
-0.000536444
-0.220804
-0.000398838
-0.22088
-0.000307458
-0.220865
-0.000236434
-0.220819
-0.00016794
-0.220719
-9.21706e-05
-0.220626
-0.0401175
-0.0932107
-0.057852
-0.0895706
-0.0606311
-0.0876562
-0.057981
-0.0874739
-0.0471977
-0.0884796
-0.0292666
-0.0898082
-0.00566727
-0.0907305
0.021329
-0.0908219
0.0474229
-0.0913
0.0657253
-0.0945321
0.0731788
-0.164448
0.068525
-0.185127
0.0561488
-0.20717
0.0374882
-0.227822
0.0161263
-0.243297
-0.00357255
-0.251517
-0.0183098
-0.251886
-0.0261972
-0.244268
-0.0263233
-0.232181
-0.0214278
-0.221712
-0.0152662
-0.217098
-0.010543
-0.21653
-0.00717201
-0.216993
-0.00468833
-0.217681
-0.00297371
-0.218501
-0.00184611
-0.219268
-0.00114196
-0.219884
-0.000728532
-0.22036
-0.000501906
-0.220649
-0.000384748
-0.220818
-0.000322342
-0.220865
-0.000279855
-0.220822
-0.000236167
-0.22075
-0.000178432
-0.220633
-0.000101574
-0.220525
-0.0400152
-0.151576
-0.0564669
-0.0945958
-0.0583744
-0.0918273
-0.0551725
-0.0904647
-0.0443749
-0.0902967
-0.0270158
-0.0907304
-0.00432685
-0.0911486
0.0216401
-0.0910416
0.0474471
-0.0908461
0.067169
-0.0927437
0.076136
-0.0974892
0.075607
-0.17153
0.0641107
-0.193089
0.0450893
-0.214772
0.0218473
-0.233543
-0.000872076
-0.245998
-0.0189872
-0.25084
-0.0302331
-0.247851
-0.0329904
-0.237601
-0.0285488
-0.22506
-0.0205229
-0.216455
-0.0133924
-0.214249
-0.0087194
-0.214982
-0.00553734
-0.216144
-0.00334051
-0.217314
-0.00193318
-0.218414
-0.00108283
-0.219327
-0.000616368
-0.219996
-0.000391829
-0.22047
-0.000306615
-0.220727
-0.000288091
-0.220852
-0.000289496
-0.220855
-0.000283236
-0.220775
-0.000255049
-0.220674
-0.000199148
-0.220535
-0.000114486
-0.22041
-0.0384275
-0.167241
-0.0527417
-0.155302
-0.0556831
-0.0972872
-0.0520421
-0.0949577
-0.0411803
-0.0936592
-0.0242336
-0.0930789
-0.00229834
-0.0927589
0.0227021
-0.0922106
0.0478693
-0.0914638
0.0683364
-0.0920135
0.0787427
-0.0953504
0.0791571
-0.101039
0.0711421
-0.178562
0.0525055
-0.200505
0.0279645
-0.220889
0.00238996
-0.236806
-0.0192031
-0.245782
-0.0337908
-0.247282
-0.0397453
-0.241096
-0.0368039
-0.229346
-0.027863
-0.21772
-0.0178016
-0.212046
-0.0107376
-0.212231
-0.00651027
-0.21401
-0.00374247
-0.215742
-0.00196368
-0.217284
-0.000931264
-0.218566
-0.000397289
-0.219547
-0.00017982
-0.220208
-0.000141726
-0.220635
-0.000186215
-0.220829
-0.000251236
-0.22089
-0.000300008
-0.220838
-0.000314649
-0.220715
-0.000290233
-0.220583
-0.000227233
-0.220422
-0.000129412
-0.220281
-0.035426
-0.183986
-0.0477089
-0.172274
-0.0500588
-0.160926
-0.0485843
-0.100745
-0.037673
-0.098465
-0.0209626
-0.0969301
0.000330156
-0.0957074
0.0244526
-0.0945095
0.0488211
-0.0931623
0.0694075
-0.092535
0.0809534
-0.0942243
0.0822788
-0.0984721
0.0750716
-0.104969
0.0589989
-0.185055
0.0340237
-0.206564
0.00627512
-0.224774
-0.0187382
-0.23727
-0.0367715
-0.242801
-0.0459263
-0.241101
-0.0454196
-0.23248
-0.036855
-0.220354
-0.0243833
-0.211138
-0.01384
-0.208943
-0.007655
-0.211086
-0.00412565
-0.213626
-0.00192276
-0.215783
-0.000649301
-0.217565
-3.56497e-05
-0.218927
0.000168429
-0.219895
0.000140695
-0.220491
7.28639e-06
-0.220829
-0.000146827
-0.220934
-0.000273796
-0.220917
-0.000349859
-0.220803
-0.000369785
-0.220636
-0.000337117
-0.220473
-0.0002595
-0.220292
-0.000144453
-0.220136
-0.0310751
-0.2004
-0.0415274
-0.190168
-0.0435468
-0.178786
-0.0422278
-0.167282
-0.0338871
-0.104531
-0.0172879
-0.10214
0.00346579
-0.100066
0.02677
-0.0980248
0.0502912
-0.0959796
0.0705889
-0.0943437
0.0827809
-0.0943625
0.0848542
-0.0967997
0.0785802
-0.101981
0.0632473
-0.109217
0.0393507
-0.190382
0.0100907
-0.21038
-0.0176806
-0.225831
-0.0391219
-0.23492
-0.0514506
-0.237277
-0.053722
-0.232798
-0.046646
-0.222689
-0.0330685
-0.211669
-0.0188324
-0.206146
-0.00930029
-0.207298
-0.00446013
-0.210752
-0.00173761
-0.213812
-0.000197803
-0.216234
0.000517904
-0.218119
0.000699415
-0.219458
0.000579627
-0.220334
0.000325459
-0.220809
4.7335e-05
-0.221023
-0.000188023
-0.221019
-0.000350471
-0.220916
-0.000432799
-0.22074
-0.000441872
-0.220531
-0.000390526
-0.220342
-0.000291915
-0.220145
-0.000158124
-0.219978
-0.025733
-0.21487
-0.034569
-0.207359
-0.0365678
-0.197147
-0.0351688
-0.185845
-0.0276286
-0.173541
-0.0134173
-0.108401
0.00699359
-0.105668
0.0294869
-0.102783
0.0521824
-0.0999159
0.0718903
-0.0972809
0.0841632
-0.095726
0.0867567
-0.0962649
0.0816141
-0.0998337
0.0669854
-0.105719
0.0438022
-0.113669
0.0138036
-0.194095
-0.0164984
-0.211562
-0.0409753
-0.223978
-0.0564003
-0.22997
-0.061428
-0.229571
-0.0564354
-0.223009
-0.0431155
-0.212642
-0.0260842
-0.204417
-0.0122277
-0.203218
-0.00477767
-0.206981
-0.00134933
-0.21114
0.000504621
-0.214514
0.00132564
-0.217042
0.00147101
-0.218891
0.00122956
-0.220108
0.000809779
-0.220818
0.000364229
-0.221126
-2.12509e-05
-0.22119
-0.000302974
-0.221067
-0.000472414
-0.220876
-0.000539275
-0.220643
-0.000523209
-0.220398
-0.000443981
-0.22019
-0.000321281
-0.219982
-0.000168919
-0.219809
-0.0198881
-0.22639
-0.0272914
-0.222148
-0.0293034
-0.214623
-0.0279509
-0.204365
-0.0209023
-0.192571
-0.00802811
-0.17893
0.0106559
-0.112064
0.0324077
-0.108588
0.0542408
-0.104841
0.07326
-0.101286
0.0852256
-0.0983434
0.0879826
-0.0969519
0.0840826
-0.0987334
0.0701618
-0.10301
0.0477458
-0.109662
0.0182986
-0.118164
-0.0144576
-0.196136
-0.0420888
-0.210449
-0.0607256
-0.219653
-0.0684579
-0.222941
-0.0657053
-0.220301
-0.0535833
-0.212541
-0.0351882
-0.203538
-0.0170994
-0.199546
-0.00564713
-0.202349
-0.000603825
-0.207726
0.00153652
-0.212172
0.00247064
-0.215659
0.0025649
-0.218136
0.00215564
-0.219817
0.00151932
-0.220818
0.000845334
-0.221299
0.000256914
-0.221404
-0.000189893
-0.221303
-0.000479392
-0.22106
-0.00062645
-0.220789
-0.000658294
-0.220508
-0.000604272
-0.220238
-0.000492266
-0.220019
-0.000344403
-0.219806
-0.000175322
-0.219634
-0.0140273
-0.234155
-0.0201156
-0.233566
-0.0220973
-0.229354
-0.0208177
-0.221756
-0.0142735
-0.210994
-0.00253449
-0.198065
0.0146944
-0.182969
0.0353031
-0.114959
0.0562042
-0.110552
0.0744374
-0.106019
0.0857962
-0.101856
0.0885918
-0.0989526
0.0859171
-0.0987864
0.0726527
-0.101224
0.0510195
-0.106284
0.0223285
-0.113692
-0.0104672
-0.122154
-0.0420121
-0.196212
-0.0640051
-0.207169
-0.074676
-0.213435
-0.0741746
-0.214471
-0.063726
-0.210158
-0.0452822
-0.202447
-0.0239785
-0.196659
-0.00771804
-0.197475
0.000222189
-0.203175
0.00308706
-0.209277
0.00406605
-0.213767
0.00406873
-0.217163
0.00345313
-0.219433
0.00252463
-0.220822
0.00155056
-0.221523
0.000684957
-0.221727
1.39393e-05
-0.221608
-0.000441802
-0.22134
-0.000699328
-0.220987
-0.000797197
-0.22065
-0.000776427
-0.220336
-0.000677239
-0.220053
-0.000530229
-0.219833
-0.000358113
-0.219623
-0.000176736
-0.219457
-0.0085855
-0.238131
-0.0134279
-0.240842
-0.0152822
-0.240381
-0.0140721
-0.2361
-0.00816637
-0.227864
0.00267903
-0.216207
0.0182588
-0.201629
0.0377244
-0.18539
0.0578633
-0.116618
0.075212
-0.111326
0.0859369
-0.106159
0.0887839
-0.102048
0.0868937
-0.0999292
0.0744396
-0.100573
0.0534512
-0.103656
0.0255848
-0.10954
-0.00686954
-0.11729
-0.0393142
-0.124852
-0.0663216
-0.193896
-0.079858
-0.201987
-0.0816249
-0.205984
-0.0730629
-0.205134
-0.0554734
-0.199967
-0.0323833
-0.194042
-0.011428
-0.192949
0.000748474
-0.198001
0.00515466
-0.205242
0.00624815
-0.211459
0.00612538
-0.215824
0.00522107
-0.218931
0.00392974
-0.220838
0.00255269
-0.221824
0.00131945
-0.222157
0.000340673
-0.222054
-0.000342095
-0.221708
-0.000752789
-0.221287
-0.000941457
-0.220843
-0.000966058
-0.220461
-0.000882396
-0.22013
-0.000734492
-0.219849
-0.000552813
-0.219638
-0.000361169
-0.219439
-0.000172681
-0.219285
-0.0041581
-0.238295
-0.00749685
-0.244062
-0.00922564
-0.246899
-0.0080571
-0.246396
-0.00276132
-0.241505
0.00703659
-0.232221
0.0212919
-0.21924
0.0390724
-0.202977
0.0581649
-0.185692
0.0754045
-0.116811
0.0855923
-0.110982
0.0885535
-0.105929
0.0869897
-0.102144
0.0753926
-0.100882
0.0549737
-0.102096
0.0279308
-0.106002
-0.00393679
-0.112473
-0.0366781
-0.119926
-0.0652233
-0.125951
-0.0841408
-0.189613
-0.0878151
-0.195797
-0.0812563
-0.197791
-0.0650901
-0.195518
-0.0414754
-0.190875
-0.0168426
-0.188628
0.000423269
-0.192624
0.00764216
-0.200488
0.00920798
-0.208202
0.00883663
-0.21417
0.00762132
-0.218224
0.00584765
-0.220849
0.00395979
-0.222245
0.0022305
-0.222735
0.000838732
-0.222655
-0.000157531
-0.222238
-0.000778913
-0.221682
-0.00109347
-0.221135
-0.00118022
-0.220628
-0.00111704
-0.220226
-0.000965381
-0.2199
-0.000768672
-0.219633
-0.000558011
-0.219441
-0.00035261
-0.219259
-0.000163329
-0.219121
-0.0010635
-0.236348
-0.00279863
-0.242993
-0.0041393
-0.249148
-0.0030538
-0.251902
0.00172679
-0.250884
0.0104405
-0.244909
0.0233387
-0.234268
0.039497
-0.219665
0.0572423
-0.202054
0.0734349
-0.183722
0.0847083
-0.115927
0.0878138
-0.110242
0.0861705
-0.10511
0.0754116
-0.102163
0.0555751
-0.101484
0.0292699
-0.103435
-0.00177637
-0.108163
-0.0343249
-0.114826
-0.0637412
-0.121408
-0.0846454
-0.125446
-0.0926146
-0.184814
-0.0880868
-0.188967
-0.0736625
-0.189218
-0.0504868
-0.186506
-0.0234511
-0.184266
-0.00119847
-0.187006
0.010142
-0.195124
0.0129892
-0.20427
0.012466
-0.211832
0.0107757
-0.217324
0.00845646
-0.220833
0.00589687
-0.222786
0.00352407
-0.223539
0.00156922
-0.223466
0.000146378
-0.222959
-0.000767345
-0.22225
-0.00125602
-0.221519
-0.00142881
-0.220886
-0.00139309
-0.220352
-0.00123502
-0.219956
-0.0010151
-0.219653
-0.000776817
-0.219414
-0.000544349
-0.21925
-0.000332843
-0.219089
-0.000148984
-0.218972
0.000847429
-0.234439
0.000363219
-0.23951
-0.000198145
-0.246935
0.000775396
-0.252977
0.00501246
-0.255188
0.0127439
-0.253187
0.0242704
-0.24584
0.0389379
-0.233709
0.0551272
-0.21755
0.0703734
-0.198993
0.081559
-0.180573
0.0863869
-0.1145
0.0844456
-0.108517
0.0742752
-0.103973
0.0552192
-0.101807
0.0296203
-0.101834
-0.000557042
-0.104654
-0.0324723
-0.110015
-0.0621256
-0.116441
-0.0844515
-0.121602
-0.0941325
-0.123928
-0.0933369
-0.179563
-0.0810697
-0.181559
-0.0587547
-0.180951
-0.030595
-0.179362
-0.00410546
-0.181359
0.0121983
-0.189062
0.0174133
-0.199548
0.0171118
-0.208915
0.0149385
-0.215994
0.0119223
-0.22079
0.0085581
-0.223494
0.00533098
-0.224593
0.00262738
-0.224597
0.00061563
-0.223935
-0.000700978
-0.223026
-0.00143283
-0.222073
-0.00172526
-0.221223
-0.00172713
-0.220552
-0.00155905
-0.220028
-0.00130588
-0.219666
-0.00102736
-0.219403
-0.000756899
-0.219201
-0.000512547
-0.21907
-0.00030257
-0.218936
-0.000130858
-0.218841
0.00194701
-0.233285
0.00210391
-0.236179
0.00235766
-0.242066
0.00353662
-0.249696
0.00711051
-0.255075
0.0140457
-0.25649
0.0240304
-0.252947
0.0372792
-0.244181
0.0519699
-0.230552
0.0661277
-0.213304
0.077153
-0.194587
0.0825995
-0.176785
0.0818122
-0.111866
0.0719937
-0.106236
0.0538016
-0.102556
0.0289547
-0.101142
-0.000322381
-0.102069
-0.0313662
-0.10576
-0.0606382
-0.111502
-0.0837746
-0.117118
-0.0950193
-0.120715
-0.0957007
-0.121564
-0.0870822
-0.173551
-0.0661289
-0.174185
-0.0374967
-0.174049
-0.00794884
-0.175519
0.013436
-0.182597
0.0222507
-0.1939
0.0227427
-0.205178
0.0202424
-0.214219
0.0164873
-0.220559
0.0121451
-0.224377
0.00785264
-0.226016
0.00413853
-0.226104
0.0013242
-0.225306
-0.00055678
-0.224079
-0.00162784
-0.222831
-0.00208782
-0.221711
-0.00214203
-0.220808
-0.00195919
-0.220152
-0.00165885
-0.219675
-0.00132376
-0.219369
-0.00099951
-0.21916
-0.000710117
-0.219004
-0.00046386
-0.218909
-0.000264363
-0.218802
-0.000110165
-0.218731
0.00259016
-0.232531
0.00290923
-0.23409
0.00360157
-0.237423
0.00507786
-0.243607
0.00816477
-0.25075
0.0141536
-0.255183
0.0230256
-0.255485
0.0344829
-0.250151
0.0477181
-0.23993
0.0607153
-0.225139
0.0713233
-0.207474
0.0771589
-0.189146
0.0768136
-0.171787
0.0685469
-0.10842
0.0512246
-0.103659
0.0272864
-0.100887
-0.00110146
-0.100363
-0.0310664
-0.102368
-0.0595453
-0.106853
-0.0827688
-0.112508
-0.0953252
-0.116813
-0.0971002
-0.119315
-0.0909195
-0.117727
-0.0722271
-0.167453
-0.0438149
-0.167867
-0.0122138
-0.169784
0.013858
-0.175941
0.0270575
-0.187404
0.0293296
-0.200487
0.0267297
-0.211666
0.0223138
-0.220046
0.0169154
-0.22533
0.0113048
-0.227829
0.0062891
-0.228166
0.00237493
-0.227154
-0.000292452
-0.22557
-0.00184499
-0.223862
-0.00254173
-0.222377
-0.00266918
-0.221183
-0.00246548
-0.220301
-0.00209865
-0.219712
-0.0016844
-0.219315
-0.00128538
-0.219083
-0.000933479
-0.218937
-0.000638564
-0.218829
-0.000402484
-0.218771
-0.00022082
-0.218692
-8.81711e-05
-0.218643
0.00293404
-0.231945
0.00330135
-0.232923
0.00401364
-0.234503
0.00554561
-0.237891
0.00827166
-0.243714
0.0131058
-0.249702
0.0207089
-0.252867
0.0306025
-0.251605
0.0423843
-0.244817
0.0541162
-0.233331
0.0641254
-0.217941
0.0701256
-0.200441
0.0703148
-0.182647
0.0631863
-0.166426
0.0473058
-0.104501
0.0243989
-0.100771
-0.00285575
-0.099133
-0.0316791
-0.0997501
-0.0589586
-0.102955
-0.0815435
-0.108079
-0.0950177
-0.112816
-0.0977552
-0.116158
-0.0936559
-0.116579
-0.0771742
-0.11278
-0.0492772
-0.16199
-0.0162506
-0.16383
0.0133862
-0.169312
0.0315823
-0.180466
0.0365632
-0.194638
0.0344282
-0.208185
0.0295065
-0.218859
0.0230858
-0.226216
0.0159767
-0.230002
0.00928336
-0.230824
0.00390631
-0.229698
0.000151072
-0.227598
-0.00208238
-0.225333
-0.00312005
-0.223284
-0.00335286
-0.221693
-0.00311935
-0.22053
-0.00265943
-0.219741
-0.00213437
-0.219262
-0.00163165
-0.218969
-0.00119373
-0.218823
-0.000832622
-0.218743
-0.000548517
-0.218683
-0.000332677
-0.218659
-0.00017466
-0.218605
-6.65346e-05
-0.218577
0.00305405
-0.231499
0.00345723
-0.232101
0.00409547
-0.233005
0.00541126
-0.234368
0.00773403
-0.237353
0.0115277
-0.242136
0.017515
-0.246508
0.0257816
-0.248046
0.0358401
-0.24506
0.0464354
-0.237136
0.0556489
-0.224854
0.0615859
-0.209402
0.0623671
-0.192493
0.056309
-0.17577
0.0423211
-0.161441
0.0202117
-0.100314
-0.00575898
-0.0978679
-0.0331733
-0.0976388
-0.0589475
-0.0997612
-0.0804011
-0.104097
-0.0941036
-0.108993
-0.0978043
-0.112767
-0.0952666
-0.114547
-0.0807577
-0.112996
-0.0549989
-0.107058
-0.020123
-0.158118
0.0128378
-0.163282
0.0353995
-0.173129
0.0440911
-0.187994
0.0431153
-0.203325
0.0380519
-0.216731
0.030816
-0.226589
0.0221762
-0.232416
0.0134528
-0.234171
0.00608794
-0.233005
0.000828521
-0.230375
-0.00234351
-0.227337
-0.00386471
-0.224588
-0.00425326
-0.222383
-0.00397944
-0.220833
-0.00338814
-0.219801
-0.00270847
-0.219166
-0.00206152
-0.218832
-0.00150532
-0.218657
-0.00105411
-0.218602
-0.000705974
-0.218585
-0.000446388
-0.218569
-0.000258908
-0.218574
-0.000129407
-0.218542
-4.66087e-05
-0.21853
0.00300869
-0.231154
0.00343575
-0.231478
0.00402546
-0.23203
0.00508958
-0.232683
0.00693314
-0.233567
0.00987066
-0.235696
0.0143273
-0.238948
0.0207375
-0.241464
0.0289165
-0.241122
0.0379591
-0.236584
0.0462023
-0.22769
0.0518345
-0.215103
0.0530477
-0.200082
0.0481817
-0.184366
0.0360873
-0.169536
0.0164105
-0.15764
-0.00947484
-0.0965977
-0.0352184
-0.0958228
-0.0592889
-0.0972974
-0.0791952
-0.100967
-0.0925733
-0.105628
-0.0973035
-0.109494
-0.0957276
-0.112306
-0.0829686
-0.112336
-0.0591524
-0.108842
-0.0262244
-0.100957
0.0118918
-0.157172
0.0387253
-0.166608
0.05145
-0.180488
0.0524137
-0.197292
0.047662
-0.212935
0.0399884
-0.225903
0.0300784
-0.234491
0.0192041
-0.238167
0.00930377
-0.237387
0.0018568
-0.234034
-0.00267954
-0.230039
-0.00484998
-0.226352
-0.00545348
-0.223388
-0.00512704
-0.221236
-0.0043512
-0.21987
-0.00345411
-0.219055
-0.00260702
-0.218621
-0.00188741
-0.21845
-0.00131357
-0.218397
-0.000879306
-0.218428
-0.000562815
-0.218469
-0.000338921
-0.218489
-0.000186844
-0.218517
-8.7955e-05
-0.218501
-2.96562e-05
-0.2185
0.00284853
-0.230892
0.00328335
-0.231002
0.00384187
-0.231294
0.00473009
-0.231671
0.00615922
-0.231909
0.00839143
-0.232088
0.0116444
-0.233014
0.016258
-0.234469
0.0223923
-0.23494
0.0295414
-0.232704
0.0364537
-0.226835
0.0414758
-0.217331
0.0428905
-0.204945
0.0390894
-0.19099
0.0289561
-0.177235
0.0120293
-0.165155
-0.0109067
-0.156208
-0.0372444
-0.0945717
-0.0594394
-0.0956723
-0.0777579
-0.0987347
-0.0905289
-0.103012
-0.096037
-0.106894
-0.0950785
-0.110143
-0.0839135
-0.111361
-0.0620099
-0.109479
-0.0308261
-0.10424
0.00633153
-0.0953965
0.0417127
-0.160159
0.0582261
-0.173384
0.0619042
-0.189979
0.0579123
-0.207542
0.0501674
-0.223114
0.0393796
-0.235204
0.0266288
-0.241916
0.014
-0.242863
0.0036469
-0.239177
-0.00304259
-0.233671
-0.00622872
-0.22866
-0.00709037
-0.224715