/*--------------------------------*- C++ -*----------------------------------*\
| =========                 |                                                 |
| \\      /  F ield         | OpenFOAM: The Open Source CFD Toolbox           |
|  \\    /   O peration     | Version:  2506                                  |
|   \\  /    A nd           | Website:  www.openfoam.com                      |
|    \\/     M anipulation  |                                                 |
\*---------------------------------------------------------------------------*/
FoamFile
{
    version     2.0;
    format      ascii;
    arch        "LSB;label=32;scalar=64";
    class       volVectorField;
    location    "149.999038929845";
    object      U;
}
// * * * * * * * * * * * * * * * * * * * * * * * * * * * * * * * * * * * * * //

dimensions      [0 1 -1 0 0 0 0];

internalField   nonuniform List<vector> 
9700
(
(1.09218 0.00129244 5.44094e-22)
(1.09218 0.00427913 1.8514e-24)
(1.08815 0.00124545 7.75184e-28)
(1.09214 0.00701711 -7.22272e-22)
(1.08807 0.00415624 -4.96939e-24)
(1.08628 0.00120072 -5.30858e-22)
(1.0921 0.0100875 -1.33846e-23)
(1.08794 0.00678676 -5.37861e-35)
(1.08618 0.00402631 -5.26873e-22)
(1.08376 0.00114427 0)
(1.09202 0.0131566 5.77354e-22)
(1.0877 0.00973548 1.27283e-23)
(1.08603 0.00655754 -4.01649e-21)
(1.08363 0.00385439 -9.64387e-23)
(1.08158 0.00108403 5.0646e-22)
(1.09187 0.0165629 6.32511e-22)
(1.08736 0.012642 -6.19727e-27)
(1.08573 0.00938484 -5.8892e-22)
(1.08344 0.006257 1.19392e-34)
(1.08145 0.00366349 5.25711e-22)
(1.07945 0.00102324 2.06768e-27)
(1.09164 0.0201994 1.9901e-22)
(1.08684 0.0158331 8.47595e-27)
(1.08531 0.0121421 -6.0462e-22)
(1.08308 0.00892614 2.4088e-22)
(1.08124 0.00592785 3.74638e-21)
(1.07931 0.00346511 -1.84179e-23)
(1.07745 0.000966006 -4.64963e-22)
(1.09126 0.0243105 9.73935e-22)
(1.08611 0.0191764 2.98161e-22)
(1.08469 0.0151363 -5.46567e-22)
(1.08257 0.0114921 0)
(1.08086 0.00842496 4.63772e-22)
(1.07911 0.00558885 -1.72617e-35)
(1.07733 0.00327384 -4.46822e-22)
(1.07556 0.00091564 -3.81107e-21)
(1.09068 0.0289393 -3.1715e-22)
(1.08506 0.0228866 -1.28087e-21)
(1.08383 0.0182225 -1.8729e-22)
(1.08183 0.014235 0)
(1.08032 0.0107866 4.70756e-22)
(1.07873 0.00791024 4.51911e-23)
(1.07714 0.00526496 -3.1983e-25)
(1.07545 0.00310171 -4.40491e-21)
(1.07376 0.000874732 -1.76131e-24)
(1.08981 0.0343591 -1.09856e-21)
(1.08358 0.0269587 -5.71126e-22)
(1.0826 0.0215876 -7.23816e-21)
(1.08079 0.0169962 -8.54305e-37)
(1.07954 0.013263 6.08722e-22)
(1.0782 0.0100664 -2.22851e-26)
(1.07679 0.0074203 -5.41058e-22)
(1.0753 0.00497645 -5.9417e-22)
(1.07368 0.00295863 6.19853e-22)
(1.07204 0.000844924 3.54632e-21)
(1.08852 0.0407743 9.38313e-22)
(1.0815 0.0316068 7.00355e-23)
(1.0809 0.0251957 1.20493e-21)
(1.07936 0.0199269 2.59115e-22)
(1.07846 0.0156837 1.23183e-21)
(1.07743 0.0122763 2.94913e-26)
(1.07631 0.00938561 -5.46476e-22)
(1.075 0.00698632 -4.42678e-21)
(1.07356 0.00473993 5.71437e-22)
(1.07198 0.00285133 3.68612e-21)
(1.07037 0.00082676 0)
(1.08625 0.0485638 9.60873e-23)
(1.07861 0.0369312 9.79372e-23)
(1.07856 0.0292146 6.30878e-21)
(1.07739 0.0229568 1.07647e-21)
(1.07698 0.0181626 6.13797e-21)
(1.07639 0.0143598 1.02242e-21)
(1.07562 0.0113496 -4.00084e-22)
(1.0746 0.00878813 -3.97957e-21)
(1.07334 0.00663392 6.22086e-25)
(1.07191 0.00456653 -2.84438e-25)
(1.07034 0.00278285 -2.66254e-36)
(1.06872 0.00081961 3.97022e-22)
(1.08211 0.057821 7.09765e-21)
(1.07454 0.0432047 8.51961e-22)
(1.07531 0.0336678 -8.75989e-22)
(1.0747 0.0262002 -4.33041e-22)
(1.07496 0.0205982 -2.46482e-21)
(1.07496 0.0163934 -1.31136e-22)
(1.07469 0.0131258 3.05304e-22)
(1.07404 0.0105439 -3.98849e-21)
(1.07305 0.00831012 4.11213e-27)
(1.07178 0.0063803 3.57797e-21)
(1.07031 0.00446107 7.10856e-36)
(1.06872 0.00275222 4.17059e-22)
(1.06709 0.000821767 2.04892e-27)
(1.07633 0.0689357 -1.98751e-22)
(1.06866 0.0504142 3.2541e-34)
(1.07083 0.0387542 -6.78923e-22)
(1.07101 0.0296108 -1.80546e-21)
(1.07223 0.0230497 -5.18656e-21)
(1.07302 0.0182482 -1.81954e-21)
(1.07343 0.0147555 -5.56403e-21)
(1.07329 0.012064 -4.45359e-21)
(1.07265 0.00990942 -5.30107e-27)
(1.07161 0.00797589 3.55968e-21)
(1.07026 0.006233 -2.66167e-36)
(1.06874 0.00442144 2.62497e-25)
(1.0671 0.00275464 -1.92755e-23)
(1.06544 0.000830593 -3.56529e-22)
(1.07257 0.0839405 -7.84387e-22)
(1.06034 0.0586284 -1.52934e-21)
(1.06452 0.0444483 -1.45319e-20)
(1.06603 0.0333109 -2.05551e-21)
(1.0685 0.0254099 5.76759e-22)
(1.07041 0.019928 2.10078e-22)
(1.07172 0.0160877 -5.35874e-21)
(1.07227 0.013359 -4.56611e-21)
(1.07212 0.0112423 1.36761e-21)
(1.07138 0.00948 3.67635e-21)
(1.07021 0.007796 0)
(1.06876 0.00618882 3.27186e-22)
(1.06715 0.00443897 -1.76854e-35)
(1.06547 0.00278187 -3.37631e-22)
(1.06377 0.000842769 -4.52147e-22)
(1.07536 0.106998 7.77204e-21)
(1.05048 0.0685676 -7.68785e-22)
(1.05578 0.050795 -1.51662e-21)
(1.05923 0.0371991 4.54501e-34)
(1.06351 0.0277188 1.00372e-21)
(1.06688 0.0212751 2.65316e-22)
(1.06944 0.0170725 4.18603e-21)
(1.07092 0.0142626 -3.56838e-21)
(1.07143 0.0122964 2.83578e-21)
(1.07111 0.0107071 4.29298e-21)
(1.07017 0.00927062 0)
(1.06883 0.00776581 3.23767e-22)
(1.06724 0.00623439 4.39548e-23)
(1.06553 0.00449905 -2.65276e-21)
(1.0638 0.00282295 -9.31753e-22)
(1.06207 0.000854626 -3.05922e-28)
(1.08862 0.142864 4.93685e-22)
(1.04219 0.0832519 -2.90054e-22)
(1.04453 0.0578999 -5.38127e-21)
(1.05002 0.0412985 3.33497e-21)
(1.05675 0.0298037 1.04201e-20)
(1.06217 0.0222433 2.02384e-21)
(1.06636 0.0175121 -5.77565e-22)
(1.06913 0.014676 1.23874e-21)
(1.07052 0.0128965 3.61132e-21)
(1.07077 0.0116314 -1.26717e-22)
(1.07016 0.0104792 -1.62091e-35)
(1.06895 0.00927493 4.51812e-22)
(1.06739 0.00786601 -2.05635e-26)
(1.06566 0.00634702 -4.12296e-22)
(1.06387 0.00458248 -4.51997e-22)
(1.0621 0.00286536 3.58274e-22)
(1.06036 0.000862467 4.22383e-22)
(1.11037 0.191143 4.59479e-21)
(1.0404 0.107979 3.10454e-21)
(1.03267 0.0676405 2.47009e-21)
(1.03766 0.0453257 0)
(1.04778 0.0316645 2.58264e-22)
(1.05581 0.022585 1.00033e-34)
(1.06228 0.0172714 -1.57011e-22)
(1.06672 0.0143721 -5.89746e-21)
(1.06935 0.0129051 -2.37556e-21)
(1.07037 0.0120765 -2.25336e-23)
(1.07019 0.0113939 -9.88992e-22)
(1.06917 0.0105504 1.01579e-21)
(1.06764 0.00946585 2.52405e-26)
(1.06587 0.00806379 -4.07225e-22)
(1.06401 0.00649677 -5.00768e-22)
(1.06216 0.00466735 2.88963e-21)
(1.06036 0.00289609 4.39001e-22)
(1.05863 0.000862913 -4.00654e-22)
(1.12609 0.243716 -2.58927e-20)
(1.04657 0.147267 -3.81748e-21)
(1.02335 0.0836147 4.27047e-21)
(1.0225 0.0501203 -4.08407e-34)
(1.03571 0.0328798 -4.38975e-21)
(1.04744 0.022211 -3.14452e-21)
(1.05673 0.0160414 -3.36589e-21)
(1.06354 0.0131277 -3.93776e-21)
(1.06777 0.0120764 -2.06399e-21)
(1.06988 0.0118808 3.0277e-21)
(1.07029 0.0118455 1.11951e-21)
(1.06953 0.0115741 3.81143e-21)
(1.06805 0.0108838 7.99176e-22)
(1.0662 0.00979693 -2.85606e-22)
(1.06423 0.00831575 -4.44186e-22)
(1.06227 0.0066494 2.83697e-22)
(1.0604 0.00473105 -2.36181e-21)
(1.05861 0.00290306 -8.32373e-22)
(1.0569 0.000853231 -2.9021e-28)
(1.11778 0.289521 -6.57398e-21)
(1.05641 0.19988 -3.21462e-21)
(1.01905 0.110967 -1.45462e-20)
(1.00608 0.0577447 4.29011e-35)
(1.02024 0.0336461 -3.61934e-22)
(1.03615 0.0206623 -1.45926e-21)
(1.04946 0.0135896 -9.61006e-22)
(1.05919 0.0105871 -4.83309e-22)
(1.06573 0.0101085 2.73969e-21)
(1.06927 0.0107919 2.78625e-21)
(1.07052 0.0116675 1.34278e-21)
(1.07012 0.0121936 2.231e-21)
(1.06869 0.0121228 -9.15614e-23)
(1.06674 0.0114152 1.95635e-22)
(1.0646 0.0102064 -4.39207e-22)
(1.06247 0.00857211 2.93422e-27)
(1.06046 0.00676954 3.66479e-22)
(1.0586 0.00475262 -4.01764e-22)
(1.05685 0.00287628 2.13454e-23)
(1.05521 0.000831592 3.6746e-22)
(1.0751 0.320926 7.21723e-20)
(1.05576 0.256443 1.01909e-20)
(1.01776 0.151128 2.94423e-20)
(0.991249 0.0730306 6.89378e-35)
(1.00106 0.0344142 8.32356e-21)
(1.02149 0.0178612 3.6449e-25)
(1.03958 0.00942987 -5.55627e-21)
(1.05349 0.00634355 -3.06733e-21)
(1.06291 0.00661162 2.83697e-22)
(1.06852 0.00845012 2.68772e-21)
(1.0709 0.0106148 -1.48407e-21)
(1.07101 0.0122588 -2.62464e-21)
(1.06966 0.0130562 -1.1078e-21)
(1.06755 0.0129515 -3.73339e-21)
(1.06517 0.0120583 -7.66923e-22)
(1.0628 0.0106232 -3.50352e-27)
(1.0606 0.00878137 3.6707e-22)
(1.0586 0.00682437 -4.36347e-22)
(1.0568 0.00471485 8.04379e-35)
(1.05513 0.00280882 5.31478e-22)
(1.05357 0.000797251 4.65884e-24)
(1.00601 0.335015 -3.31616e-21)
(1.03578 0.306182 -4.75367e-22)
(1.01251 0.200953 -1.28802e-21)
(0.979147 0.0992051 0)
(0.979657 0.038452 5.72977e-21)
(1.0022 0.0134418 7.46312e-21)
(1.02666 0.00327552 1.20076e-21)
(1.04558 -0.000122054 -2.09155e-21)
(1.05922 0.00100734 -3.2133e-21)
(1.06748 0.00444385 6.40396e-23)
(1.07152 0.00830261 -3.26561e-36)
(1.07233 0.0115489 2.34794e-22)
(1.07111 0.0135725 1.08064e-22)
(1.06879 0.014314 3.0388e-22)
(1.06605 0.0139401 -2.20252e-21)
(1.06333 0.0127132 4.09249e-22)
(1.06083 0.0109735 4.67882e-22)
(1.05863 0.00889577 -3.98871e-22)
(1.05671 0.00678698 -4.78893e-23)
(1.05501 0.00460597 3.68858e-22)
(1.05345 0.00269753 2.11489e-23)
(1.052 0.00075061 -3.16463e-21)
(0.920477 0.333984 1.21348e-21)
(0.991754 0.341403 3.16614e-21)
(0.995207 0.252455 -3.69853e-20)
(0.967072 0.137342 2.273e-35)
(0.957732 0.0487925 -1.24807e-20)
(0.978511 0.00891987 -1.37164e-20)
(1.00909 -0.00545705 6.79037e-21)
(1.03506 -0.00934729 -1.78737e-22)
(1.05387 -0.00725883 2.93304e-26)
(1.06613 -0.00193823 7.09983e-22)
(1.07238 0.00431785 -7.55287e-36)
(1.07426 0.00969648 3.77313e-22)
(1.07323 0.0134946 1.10631e-22)
(1.07061 0.0154479 2.51733e-21)
(1.06738 0.0158008 6.42818e-22)
(1.06414 0.0149483 2.44332e-21)
(1.06122 0.0132757 8.69024e-22)
(1.05871 0.011189 -3.98465e-22)
(1.05661 0.0088763 2.83505e-27)
(1.05482 0.00663898 9.23058e-22)
(1.05328 0.0044208 8.55644e-22)
(1.05186 0.00254326 -3.56285e-21)
(1.05055 0.000693161 -1.26893e-24)
(0.830478 0.321862 2.04547e-21)
(0.926472 0.357523 5.89536e-22)
(0.960349 0.297624 -3.95352e-21)
(0.949748 0.183193 5.49357e-35)
(0.935283 0.069489 -9.17369e-21)
(0.951055 0.00584201 -9.15117e-21)
(0.986318 -0.0165555 -2.11025e-21)
(1.02035 -0.0219524 2.87864e-23)
(1.04651 -0.0190478 3.42405e-22)
(1.06386 -0.0112727 -3.18294e-21)
(1.07354 -0.0021107 -4.237e-36)
(1.07696 0.00631877 1.07367e-21)
(1.07628 0.0125187 6.37522e-22)
(1.07328 0.0162399 -2.9931e-22)
(1.06935 0.0176551 -5.86443e-22)
(1.0654 0.0173201 -8.19257e-22)
(1.06185 0.0158292 -6.88845e-23)
(1.0589 0.0136494 -7.07145e-22)
(1.0565 0.0112142 -3.41954e-27)
(1.05458 0.00869652 3.67522e-22)
(1.05299 0.00637239 -4.81541e-23)
(1.05164 0.00416118 -3.35396e-22)
(1.05038 0.00235074 1.95138e-22)
(1.04921 0.000627396 2.87004e-21)
(0.744739 0.301037 5.97863e-23)
(0.848134 0.358971 7.84496e-22)
(0.90663 0.331311 -3.21978e-21)
(0.921257 0.229824 8.63591e-35)
(0.910939 0.100444 1.32899e-20)
(0.920448 0.0086692 2.61971e-20)
(0.957683 -0.029757 7.6158e-23)
(1.00057 -0.0386 2.43212e-22)
(1.03574 -0.0351844 4.71591e-21)
(1.06049 -0.0248247 -1.2512e-21)
(1.07472 -0.0115524 0)
(1.08059 0.000692568 -9.20133e-23)
(1.08056 0.0103367 4.41398e-35)
(1.07713 0.0164932 -1.71805e-22)
(1.07226 0.0194693 -9.02807e-22)
(1.06726 0.0199173 -2.26816e-21)
(1.06285 0.0186644 4.01481e-22)
(1.05923 0.0164463 -2.08754e-21)
(1.05642 0.013756 8.27212e-23)
(1.05427 0.0110115 3.68496e-22)
(1.05261 0.00834524 -4.72729e-23)
(1.05126 0.00599018 -3.33037e-21)
(1.05012 0.00383565 2.75968e-21)
(1.04903 0.00212827 3.0399e-21)
(1.04802 0.000556555 2.89052e-22)
(0.682114 0.279017 -3.51431e-21)
(0.76749 0.357116 -1.50876e-20)
(0.838144 0.351997 4.52378e-20)
(0.877876 0.27049 -5.64766e-21)
(0.8809 0.137652 4.99468e-21)
(0.887252 0.0192934 2.18107e-21)
(0.923223 -0.0417729 -7.03611e-21)
(0.973993 -0.0594663 5.52349e-21)
(1.02039 -0.0570065 -2.84218e-21)
(1.05494 -0.0438648 -5.52905e-22)
(1.07619 -0.0257725 2.33538e-36)
(1.08539 -0.00772045 -9.74353e-22)
(1.08633 0.00640218 -2.955e-22)
(1.08251 0.0160267 -2.70803e-21)
(1.07647 0.0211868 -8.95829e-22)
(1.07005 0.0227931 -6.87974e-23)
(1.06435 0.0219396 2.62394e-21)
(1.05982 0.0196407 5.87348e-22)
(1.05639 0.0166898 9.16414e-23)
(1.0539 0.0135433 6.57805e-22)
(1.05209 0.0105656 5.80943e-23)
(1.05075 0.0078273 -3.22563e-21)
(1.04967 0.00550575 -4.60992e-22)
(1.04874 0.0034589 1.64381e-21)
(1.04783 0.00188692 3.93379e-22)
(1.04697 0.000484306 2.3982e-28)
(0.640736 0.259797 -6.74102e-22)
(0.705036 0.353375 -8.16545e-21)
(0.763867 0.357325 2.12182e-22)
(0.820876 0.301585 2.624e-25)
(0.842627 0.177576 2.88427e-21)
(0.850611 0.0371661 -2.17297e-21)
(0.883171 -0.0509335 5.71614e-21)
(0.939762 -0.082517 9.3705e-21)
(0.997715 -0.0844051 -5.83008e-21)
(1.04538 -0.0703835 -5.59427e-22)
(1.07724 -0.0466068 2.48282e-35)
(1.09241 -0.0212235 4.18322e-22)
(1.09463 0.000210041 6.66977e-23)
(1.08981 0.0145832 -8.57079e-23)
(1.08227 0.0228003 -3.03369e-22)
(1.07408 0.0260458 3.1942e-22)
(1.06666 0.0257893 3.94369e-22)
(1.06076 0.0234474 -5.85504e-22)
(1.05646 0.0200941 -7.92308e-36)
(1.05346 0.0164872 2.31748e-21)
(1.05143 0.012991 4.98788e-22)
(1.05004 0.00988406 -3.22789e-21)
(1.04905 0.00716266 1.15924e-26)
(1.04825 0.004942 2.65096e-21)
(1.04753 0.00305026 -4.04659e-21)
(1.04678 0.00163935 -1.77109e-22)
(1.04606 0.000414542 -2.62159e-22)
(0.607464 0.241403 0)
(0.662832 0.349115 6.17167e-21)
(0.703703 0.356612 2.98446e-20)
(0.756814 0.321459 -1.34464e-20)
(0.794081 0.209267 -1.54846e-20)
(0.812371 0.0672185 0)
(0.840093 -0.0534652 3.28653e-21)
(0.89694 -0.106536 1.40503e-20)
(0.965905 -0.115787 -3.95953e-21)
(1.02759 -0.103437 -1.59242e-20)
(1.07472 -0.0765672 1.7906e-38)
(1.1012 -0.0421534 -1.92757e-21)
(1.10754 -0.0109467 -8.78155e-26)
(1.10113 0.0117099 1.15674e-21)
(1.09023 0.0243939 -1.04157e-21)
(1.07955 0.0298589 2.36137e-21)
(1.07001 0.0304612 4.40419e-22)
(1.06227 0.0280641 -9.07153e-22)
(1.05667 0.0242219 -9.81526e-23)
(1.05295 0.0199243 6.75801e-22)
(1.05058 0.0158115 -3.54549e-21)
(1.04912 0.0121111 -4.37683e-21)
(1.04819 0.00899595 -1.4477e-26)
(1.04756 0.00638476 2.88713e-21)
(1.04702 0.0043289 3.95136e-23)
(1.0465 0.00263168 1.36139e-34)
(1.0459 0.00139911 -1.68153e-22)
(1.0453 0.000351047 0)
(0.584559 0.226154 4.79114e-22)
(0.628021 0.344035 2.30902e-20)
(0.662615 0.354822 -3.70238e-20)
(0.702822 0.330899 3.34409e-20)
(0.7395 0.232275 6.21069e-20)
(0.769222 0.0912392 1.69403e-21)
(0.796654 -0.0470756 2.74886e-21)
(0.848223 -0.126728 1.54595e-20)
(0.923439 -0.149499 1.36657e-20)
(0.998977 -0.141166 -2.04794e-20)
(1.06229 -0.113435 0)
(1.10639 -0.0730872 -7.21059e-21)
(1.12446 -0.029691 -3.83563e-21)
(1.11964 0.00464756 -5.6846e-22)
(1.10358 0.0256667 -1.71922e-22)
(1.08711 0.0346305 3.76395e-22)
(1.07441 0.0363013 -2.32333e-21)
(1.06449 0.0338618 -1.05254e-21)
(1.05716 0.0293049 -9.1538e-23)
(1.05236 0.0241241 1.73478e-22)
(1.0495 0.0190964 -1.26201e-21)
(1.04789 0.0146821 -1.91744e-21)
(1.04706 0.0109457 8.88132e-22)
(1.0466 0.00794905 2.86627e-21)
(1.0463 0.00553698 2.81581e-22)
(1.04599 0.00370042 4.13112e-22)
(1.04564 0.00222654 1.40582e-21)
(1.04516 0.0011794 1.4212e-22)
(1.04466 0.000297162 -2.26041e-21)
(0.572763 0.215517 -5.78257e-21)
(0.602015 0.338336 -4.02603e-21)
(0.628793 0.352078 -3.30709e-20)
(0.665292 0.333859 4.33406e-20)
(0.694591 0.24644 1.12276e-20)
(0.721738 0.110649 1.27833e-20)
(0.75176 -0.0348885 -1.32911e-20)
(0.797539 -0.143584 1.56477e-21)
(0.872943 -0.182735 -7.38662e-21)
(0.958006 -0.181423 -4.89263e-20)
(1.03704 -0.155084 -1.36485e-36)
(1.09923 -0.110495 2.19293e-20)
(1.13711 -0.0579368 1.20655e-20)
(1.14403 -0.00922935 -6.14804e-21)
(1.12655 0.024369 6.26161e-22)
(1.10099 0.0404455 -2.13958e-21)
(1.08049 0.0439414 5.47562e-22)
(1.06724 0.0412908 -4.77141e-22)
(1.05794 0.0357979 5.64269e-23)
(1.05171 0.0293168 -3.02049e-22)
(1.04811 0.0231101 -2.14906e-21)
(1.0463 0.017642 -6.89852e-22)
(1.04554 0.01316 3.17941e-21)
(1.04532 0.00956287 2.75584e-21)
(1.0453 0.00680472 2.77921e-22)
(1.0453 0.00466809 -2.61972e-27)
(1.04518 0.00309259 -4.71094e-22)
(1.04494 0.00185748 -1.09432e-21)
(1.04455 0.000991892 -2.28674e-21)
(1.04411 0.000255592 -7.43686e-25)
(0.56964 0.209916 -9.51642e-21)
(0.58556 0.33282 -6.626e-21)
(0.603972 0.348468 1.73024e-21)
(0.634224 0.332732 -5.60684e-20)
(0.663671 0.252892 -5.13171e-20)
(0.685287 0.125902 -1.98876e-20)
(0.707186 -0.026201 2.94691e-22)
(0.748516 -0.149892 -2.03495e-20)
(0.81737 -0.214304 -1.79432e-20)
(0.907219 -0.222321 -3.28753e-20)
(0.997566 -0.199233 -6.38526e-34)
(1.07737 -0.152536 1.18272e-20)
(1.13459 -0.0915799 1.14947e-20)
(1.1632 -0.030559 7.72416e-21)
(1.15656 0.0182291 2.43953e-22)
(1.12623 0.0460283 -1.78349e-21)
(1.09304 0.0540056 2.53678e-21)
(1.07089 0.0511083 -1.44707e-21)
(1.05867 0.0441865 2.12706e-35)
(1.05091 0.0359946 2.04986e-22)
(1.04634 0.0280457 -3.02185e-23)
(1.0442 0.0212311 -3.55148e-22)
(1.04353 0.0156506 -2.7724e-21)
(1.04361 0.0113409 1.81947e-21)
(1.04396 0.00804817 1.1162e-21)
(1.04432 0.00563148 3.30472e-27)
(1.04454 0.00382945 -2.50142e-22)
(1.04455 0.0025402 3.04218e-22)
(1.04438 0.00154442 7.60905e-22)
(1.04404 0.000845955 -6.02833e-23)
(1.04364 0.000228188 2.09524e-21)
(0.583144 0.208645 3.72212e-21)
(0.579226 0.327184 5.36306e-21)
(0.589545 0.343836 1.23314e-20)
(0.61207 0.328481 2.83404e-20)
(0.6383 0.253911 -7.76538e-20)
(0.661313 0.134681 -1.78967e-20)
(0.676025 -0.0144396 2.57422e-20)
(0.702329 -0.156411 3.45716e-20)
(0.762516 -0.239246 3.49462e-20)
(0.849344 -0.262231 -1.15216e-20)
(0.946666 -0.244316 -1.14238e-34)
(1.03951 -0.197164 -4.20295e-20)
(1.11619 -0.129753 -4.52165e-20)
(1.16471 -0.056197 -1.96294e-20)
(1.18048 0.00767899 -2.26879e-21)
(1.15919 0.0499431 2.10341e-22)
(1.11773 0.0665339 -3.46772e-21)
(1.08025 0.0644628 -6.01049e-22)
(1.05928 0.0552427 2.34807e-23)
(1.0495 0.0446109 5.04204e-22)
(1.04399 0.0343881 1.05792e-22)
(1.04144 0.0255769 -3.71366e-21)
(1.04087 0.0186194 2.24151e-21)
(1.04133 0.0132586 2.93122e-21)
(1.04217 0.00934382 2.46449e-22)
(1.04301 0.00649631 -8.5021e-23)
(1.04364 0.00450097 -2.43594e-22)
(1.04401 0.0030704 0)
(1.04408 0.00207381 -2.26418e-21)
(1.04394 0.00130331 -9.56072e-22)
(1.04361 0.000747995 2.09516e-21)
(1.04321 0.000215706 -2.02785e-21)
(0.604621 0.212001 -3.18194e-22)
(0.582643 0.32122 -1.77387e-20)
(0.58623 0.337565 -8.71334e-21)
(0.600331 0.320979 1.1647e-20)
(0.621081 0.250352 7.86373e-20)
(0.641923 0.137196 7.04967e-20)
(0.657651 -0.00466542 2.53719e-20)
(0.671404 -0.154468 7.30438e-21)
(0.712011 -0.261158 3.35485e-20)
(0.790438 -0.298693 -1.35117e-20)
(0.88724 -0.288309 -1.7375e-20)
(0.988632 -0.243453 -1.82847e-20)
(1.08053 -0.170798 -4.92086e-21)
(1.14984 -0.0864024 1.48987e-20)
(1.1861 -0.00719224 -8.97469e-22)
(1.18657 0.0526658 -4.45064e-21)
(1.15079 0.0809668 -8.33534e-21)
(1.10158 0.0828508 8.02471e-21)
(1.06395 0.0704303 -1.0596e-21)
(1.0469 0.0558664 1.24913e-21)
(1.04055 0.0424968 2.71367e-21)
(1.03773 0.0311217 -4.14768e-21)
(1.03734 0.0221098 -1.59999e-21)
(1.03831 0.0154686 4.07262e-21)
(1.03978 0.010632 2.29426e-21)
(1.04125 0.0072984 -1.02472e-22)
(1.04244 0.00500513 5.08319e-22)
(1.04325 0.00348164 0)
(1.04367 0.0024341 -2.2048e-21)
(1.04375 0.00171786 -4.43119e-22)
(1.04357 0.00114494 1.18527e-21)
(1.04322 0.000700827 -2.01256e-21)
(1.0428 0.000217641 -4.84586e-25)
(0.632185 0.216697 -1.59705e-20)
(0.601436 0.315086 -9.6953e-21)
(0.595454 0.328878 -6.70914e-21)
(0.600032 0.310538 3.79745e-21)
(0.613362 0.242828 8.56355e-20)
(0.629659 0.135492 4.9395e-21)
(0.643642 -0.00122291 -3.6072e-20)
(0.654974 -0.147979 -1.26317e-20)
(0.677572 -0.272158 6.14938e-21)
(0.735241 -0.331651 2.01466e-20)
(0.825536 -0.32993 3.80988e-25)
(0.927561 -0.288541 -2.38366e-21)
(1.03029 -0.214719 2.47642e-20)
(1.11693 -0.119765 3.56977e-20)
(1.17506 -0.0265529 1.31818e-21)
(1.19383 0.0499765 1.8328e-20)
(1.18042 0.0965214 -2.30179e-21)
(1.1323 0.106387 -1.65311e-21)
(1.0794 0.09258 1.56972e-25)
(1.04609 0.0711575 6.84347e-22)
(1.03503 0.0529687 -8.50963e-23)
(1.03257 0.0380761 9.91604e-23)
(1.03259 0.0265009 1.99347e-21)
(1.03427 0.0179258 1.24079e-21)
(1.03661 0.0120082 -2.41864e-21)
(1.03891 0.00794826 2.84107e-36)
(1.04085 0.00533739 1.51299e-22)
(1.04224 0.00366738 2.24153e-22)
(1.04311 0.00263323 -2.05171e-21)
(1.04349 0.00195491 6.76786e-27)
(1.0435 0.00148884 2.13936e-21)
(1.04325 0.00107391 6.82358e-22)
(1.04284 0.000703402 7.35821e-23)
(1.04237 0.000232246 1.92055e-21)
(0.665232 0.220582 9.95888e-21)
(0.62904 0.30771 -1.57229e-21)
(0.616843 0.318384 -3.48424e-20)
(0.611479 0.297623 -1.02112e-20)
(0.616359 0.232042 3.34564e-21)
(0.62592 0.129379 -7.41293e-20)
(0.635823 -0.00118948 -7.12778e-21)
(0.644739 -0.145551 5.82884e-20)
(0.658582 -0.274047 2.20724e-20)
(0.696552 -0.353201 -1.30971e-20)
(0.766239 -0.367839 2.2858e-20)
(0.863203 -0.331994 6.61198e-20)
(0.967944 -0.257524 2.13247e-21)
(1.06805 -0.157334 -2.01562e-20)
(1.14499 -0.0485438 -3.76792e-20)
(1.18765 0.0429811 -3.75297e-20)
(1.1945 0.107979 -7.45469e-22)
(1.16165 0.132852 5.86269e-21)
(1.10532 0.122814 -3.49649e-34)
(1.05372 0.0941693 -9.48075e-21)
(1.02896 0.0667311 -3.24872e-22)
(1.02477 0.046965 -5.14103e-21)
(1.02613 0.0318099 -2.16526e-21)
(1.02887 0.020935 1.80852e-21)
(1.03237 0.0133482 -1.38461e-21)
(1.03582 0.00847878 1.43755e-22)
(1.03871 0.00538566 1.79072e-21)
(1.04091 0.00358566 -6.58825e-23)
(1.04235 0.00256352 -1.63583e-21)
(1.04314 0.00200326 -8.31494e-27)
(1.04341 0.00165599 2.00267e-21)
(1.04329 0.00139378 -2.11005e-21)
(1.04293 0.00108809 3.61755e-35)
(1.04244 0.000750931 1.99401e-21)
(1.0419 0.000256754 0)
(0.714485 0.220789 7.90965e-22)
(0.667012 0.298751 4.01315e-20)
(0.64823 0.305641 4.4524e-20)
(0.634728 0.282461 -7.45193e-21)
(0.63089 0.218455 -4.93162e-20)
(0.632268 0.119755 4.25587e-20)
(0.636047 -0.00571561 2.98678e-20)
(0.640481 -0.145217 7.27049e-20)
(0.647599 -0.276398 9.31889e-20)
(0.673155 -0.364444 -7.60551e-20)
(0.72366 -0.394898 -4.08751e-20)
(0.799795 -0.370958 -1.88349e-21)
(0.901361 -0.300652 2.38393e-21)
(1.00559 -0.193758 1.16348e-20)
(1.098 -0.0756665 5.74354e-21)
(1.16118 0.0349173 8.71318e-21)
(1.18843 0.115683 2.49898e-20)
(1.17902 0.159213 1.51897e-21)
(1.13208 0.158611 -3.55539e-21)
(1.07215 0.127537 2.04046e-21)
(1.02795 0.0875652 5.06904e-21)
(1.01453 0.0580147 -4.67167e-21)
(1.01682 0.0385532 -2.30147e-21)
(1.02161 0.0243008 -7.13017e-23)
(1.02675 0.0148728 4.0887e-22)
(1.03168 0.00870547 1.67355e-22)
(1.03591 0.00511823 1.81038e-22)
(1.03912 0.00310984 4.32734e-23)
(1.04135 0.00215117 -2.03552e-22)
(1.04268 0.00175735 3.49626e-22)
(1.04329 0.00162369 1.92101e-21)
(1.04336 0.00154701 -1.94662e-21)
(1.04307 0.0014294 -1.61749e-22)
(1.04258 0.00117884 -6.49875e-22)
(1.04199 0.000835132 -1.90448e-23)
(1.04137 0.000287792 -1.9446e-22)
(0.783572 0.213944 -2.9117e-21)
(0.725815 0.284795 -2.34085e-21)
(0.689068 0.289924 -4.84831e-21)
(0.669296 0.265474 5.87409e-20)
(0.657082 0.202257 -6.48276e-20)
(0.649672 0.106769 -2.92695e-20)
(0.64581 -0.0139308 1.30352e-20)
(0.64423 -0.148516 -8.13305e-21)
(0.645176 -0.278783 -5.0919e-20)
(0.658407 -0.374417 -8.34931e-21)
(0.696019 -0.412165 2.87383e-20)
(0.75319 -0.400167 1.70534e-20)
(0.833623 -0.338385 8.37459e-21)
(0.937982 -0.233906 -5.72e-20)
(1.03712 -0.101794 -6.79116e-20)
(1.11673 0.0219807 5.18318e-21)
(1.16362 0.12196 -1.05702e-20)
(1.17505 0.182815 -1.64634e-21)
(1.14861 0.197086 1.45712e-20)
(1.09428 0.16954 -7.68151e-21)
(1.03673 0.119491 -2.33955e-21)
(1.00557 0.0743708 7.8601e-21)
(1.00399 0.0462504 3.12906e-21)
(1.01156 0.0285729 4.64013e-21)
(1.0192 0.0161967 -2.50518e-22)
(1.02624 0.00875177 -1.50709e-21)
(1.03215 0.00431345 -1.62893e-21)
(1.03679 0.00214549 -2.41921e-21)
(1.04003 0.00126267 -2.82562e-21)
(1.04209 0.00111962 -6.38971e-22)
(1.04315 0.00129178 1.84391e-21)
(1.04348 0.00150792 -1.87213e-21)
(1.0433 0.00162315 3.79243e-27)
(1.04281 0.00158245 1.84148e-21)
(1.04216 0.00133158 3.12605e-35)
(1.04147 0.000944877 -1.64825e-22)
(1.04077 0.000321715 -7.69493e-29)
(0.858034 0.199935 -6.39267e-20)
(0.806115 0.260476 -4.58528e-23)
(0.750613 0.266535 -5.93564e-21)
(0.713925 0.245772 1.81245e-23)
(0.694145 0.183854 2.65962e-20)
(0.678537 0.0908815 -5.60499e-20)
(0.666252 -0.0255879 -3.86007e-20)
(0.657077 -0.155313 6.47077e-20)
(0.650946 -0.282457 -1.0312e-19)
(0.653687 -0.382199 2.65037e-20)
(0.676739 -0.42693 4.44043e-20)
(0.72136 -0.420693 8.02951e-21)
(0.782486 -0.368112 -2.17367e-21)
(0.865723 -0.2669 -7.91192e-22)
(0.969384 -0.135445 2.08732e-20)
(1.05888 0.00868211 1.88751e-20)
(1.12242 0.124745 -3.13701e-20)
(1.1527 0.202859 4.07985e-20)
(1.14822 0.233915 -3.03625e-20)
(1.10999 0.21612 -2.38476e-21)
(1.05171 0.162601 6.43195e-22)
(1.00382 0.100495 -8.43312e-21)
(0.989169 0.0570984 -3.18148e-21)
(0.99765 0.0327015 3.78817e-21)
(1.0091 0.0178806 5.20091e-23)
(1.01892 0.0081079 6.12591e-35)
(1.02726 0.00298072 -1.34968e-23)
(1.03365 0.000455047 -1.03694e-22)
(1.03832 -0.000252362 -1.14944e-22)
(1.04131 -4.33912e-05 1.34975e-21)
(1.043 0.000548952 2.18673e-22)
(1.04366 0.00118484 -1.80406e-21)
(1.04362 0.00164927 -4.27923e-27)
(1.04315 0.00186532 1.88282e-21)
(1.04245 0.00183038 3.89892e-23)
(1.04166 0.00152693 6.26891e-22)
(1.04087 0.0010671 5.31808e-24)
(1.04009 0.000354803 1.86322e-22)
(0.931347 0.178228 3.5965e-24)
(0.891009 0.228849 1.60858e-21)
(0.834251 0.234029 -6.353e-20)
(0.780237 0.219076 -7.54189e-21)
(0.741165 0.162307 -3.14668e-21)
(0.718108 0.0725924 -2.56444e-20)
(0.697893 -0.0403024 -3.74563e-20)
(0.680032 -0.165128 -4.82018e-20)
(0.665868 -0.288365 -1.48571e-20)
(0.658801 -0.388709 -1.90243e-20)
(0.667397 -0.438692 -1.4328e-20)
(0.697232 -0.437799 -2.55441e-20)
(0.746528 -0.391167 -6.22399e-22)
(0.809584 -0.295504 -3.01741e-21)
(0.892869 -0.158169 1.74012e-20)
(0.990627 -0.0139163 4.83981e-20)
(1.06744 0.124902 -1.64089e-21)
(1.1146 0.220271 -5.42326e-21)
(1.12942 0.266972 4.15069e-21)
(1.11126 0.262615 2.51131e-21)
(1.06436 0.213083 5.02475e-35)
(1.00918 0.139104 1.07966e-20)
(0.977753 0.0744668 1.44056e-22)
(0.979798 0.0381978 -4.73186e-21)
(0.995253 0.0184962 -1.24404e-21)
(1.00938 0.00725207 1.92737e-21)
(1.02063 0.000573707 1.59764e-21)
(1.02961 -0.0020754 1.08414e-21)
(1.03601 -0.00263187 -1.15898e-21)
(1.04033 -0.00192616 -3.30123e-22)
(1.04281 -0.000731791 -4.59805e-22)
(1.04394 0.000464071 -4.21849e-22)
(1.0441 0.0014275 2.26271e-22)
(1.04366 0.00202109 1.83563e-21)
(1.04289 0.00224119 0)
(1.04199 0.00214317 -2.53157e-22)
(1.04106 0.00174235 -1.65341e-21)
(1.04019 0.00118783 1.69165e-22)
(1.03935 0.000383452 1.81972e-22)
(0.997149 0.15071 -7.90128e-22)
(0.973148 0.193213 -7.85163e-21)
(0.921023 0.197736 5.88875e-20)
(0.867872 0.184579 8.99174e-26)
(0.810691 0.135277 -6.4659e-21)
(0.766637 0.0505158 -1.61068e-20)
(0.739818 -0.0569545 1.91862e-20)
(0.713414 -0.177453 -7.21347e-20)
(0.69026 -0.296154 3.64421e-20)
(0.67344 -0.394852 -1.10843e-20)
(0.668486 -0.447354 -1.41747e-22)
(0.682412 -0.451176 -1.32193e-20)
(0.718113 -0.409975 -3.12292e-20)
(0.770048 -0.320528 3.11561e-20)
(0.832889 -0.184624 -7.66651e-22)
(0.913004 -0.021226 -8.87819e-21)
(0.999028 0.118371 1.66482e-20)
(1.0618 0.234138 -1.41039e-20)
(1.09394 0.297278 5.36986e-21)
(1.09521 0.306574 -6.36697e-20)
(1.06617 0.265827 3.17064e-20)
(1.01611 0.187911 -4.54378e-21)
(0.97218 0.103665 -6.92215e-21)
(0.961381 0.0459371 3.95308e-21)
(0.977041 0.0193808 -2.10052e-22)
(0.996352 0.00461678 -2.61918e-22)
(1.01218 -0.00264164 -2.63455e-22)
(1.02411 -0.00595843 2.0085e-35)
(1.03307 -0.00610718 -6.6106e-22)
(1.039 -0.00475817 -7.79819e-22)
(1.04261 -0.00277283 7.62803e-22)
(1.04434 -0.000768617 -1.7947e-21)
(1.04478 0.000853674 8.86572e-23)
(1.04438 0.00198355 1.75616e-21)
(1.04352 0.00257807 0)
(1.04247 0.0027077 -1.92204e-22)
(1.04139 0.00248575 -1.08727e-23)
(1.04036 0.00195385 1.0191e-21)
(1.03943 0.00129347 2.14751e-22)
(1.03856 0.000404443 9.36562e-29)
(1.05323 0.119541 2.38516e-21)
(1.04417 0.154943 -1.89701e-21)
(1.00381 0.160558 1.41965e-20)
(0.956128 0.146323 -1.51171e-20)
(0.900958 0.103807 3.86723e-20)
(0.838439 0.0254388 3.21981e-21)
(0.789174 -0.0770475 8.21851e-21)
(0.756332 -0.190775 9.37966e-21)
(0.723819 -0.305173 -9.5124e-21)
(0.696951 -0.400618 4.7264e-20)
(0.679642 -0.452694 -1.85035e-20)
(0.677639 -0.460097 2.49463e-21)
(0.698552 -0.425541 -2.00298e-21)
(0.738143 -0.3399 2.91802e-20)
(0.791031 -0.211631 -1.25294e-20)
(0.853343 -0.0467679 -2.25286e-20)
(0.92483 0.125232 -8.33669e-21)
(0.996241 0.243809 -1.59745e-20)
(1.04387 0.323701 1.88682e-20)
(1.06276 0.347167 8.91537e-21)
(1.0528 0.317196 -1.64514e-24)
(1.01669 0.242072 -1.90244e-21)
(0.970731 0.14417 4.92675e-21)
(0.945735 0.0629579 -5.38013e-21)
(0.955195 0.0185833 1.4612e-21)
(0.979629 0.00153551 2.3551e-26)
(1.00057 -0.00808695 -1.37907e-21)
(1.01716 -0.0112308 -1.2082e-21)
(1.02903 -0.0111356 -2.55228e-23)
(1.03733 -0.00886527 1.24353e-21)
(1.04235 -0.00578916 8.49834e-22)
(1.04493 -0.00274436 1.52285e-22)
(1.04573 -0.000167256 1.85486e-35)
(1.04539 0.00166948 -1.80484e-21)
(1.04441 0.00279102 -1.16282e-22)
(1.04316 0.00325955 -1.9114e-22)
(1.04187 0.00321451 5.75971e-28)
(1.04065 0.00282077 2.25299e-22)
(1.03956 0.00213818 -9.9628e-22)
(1.0386 0.00137212 -6.24228e-23)
(1.03773 0.000415173 -1.7205e-22)
(1.08993 0.0874514 -1.57161e-21)
(1.09909 0.116955 -2.51806e-22)
(1.07402 0.122473 4.04576e-21)
(1.0395 0.110149 -1.1813e-34)
(0.988765 0.0679362 -3.22313e-20)
(0.929592 0.00120995 9.85242e-21)
(0.860095 -0.0978284 0)
(0.805618 -0.205596 6.08878e-22)
(0.765504 -0.313596 -3.2178e-20)
(0.728306 -0.405287 3.44748e-20)
(0.69967 -0.455175 -3.4285e-20)
(0.683375 -0.464376 -1.76014e-21)
(0.688507 -0.43745 -1.37207e-20)
(0.714804 -0.355228 -5.15935e-20)
(0.755818 -0.231021 8.92196e-20)
(0.809504 -0.073659 1.7091e-20)
(0.868412 0.101052 0)
(0.926823 0.256122 1.89518e-20)
(0.983441 0.345851 3.04629e-20)
(1.01638 0.383141 -7.85184e-20)
(1.02413 0.3648 -2.07928e-20)
(1.00537 0.296682 3.77037e-21)
(0.967416 0.193403 -6.0805e-22)
(0.934452 0.0892766 -2.33364e-21)
(0.932661 0.0235275 3.50768e-21)
(0.957613 -0.00561713 7.88356e-22)
(0.986231 -0.0148063 4.18273e-26)
(1.00755 -0.0189785 0)
(1.02395 -0.0180344 2.62405e-22)
(1.03501 -0.0146616 -1.83227e-23)
(1.04207 -0.0101702 7.36732e-22)
(1.04575 -0.00565616 -1.09736e-21)