/*--------------------------------*- C++ -*----------------------------------*\
| =========                 |                                                 |
| \\      /  F ield         | OpenFOAM: The Open Source CFD Toolbox           |
|  \\    /   O peration     | Version:  2506                                  |
|   \\  /    A nd           | Website:  www.openfoam.com                      |
|    \\/     M anipulation  |                                                 |
\*---------------------------------------------------------------------------*/
FoamFile
{
    version     2.0;
    format      ascii;
    arch        "LSB;label=32;scalar=64";
    class       volScalarField;
    location    "250";
    object      div(phi);
}
// * * * * * * * * * * * * * * * * * * * * * * * * * * * * * * * * * * * * * //

dimensions      [0 0 -1 0 0 0 0];

internalField   nonuniform List<scalar> 
1340
(
6.62273e-06
1.93205e-05
-3.78178e-06
9.75065e-06
-2.03337e-06
4.7489e-06
2.25382e-06
-6.3667e-06
5.10385e-06
6.70562e-06
-7.79749e-07
-6.02568e-07
4.36268e-06
3.82533e-06
-5.66877e-06
6.27088e-06
-2.2515e-06
2.35616e-06
2.46019e-06
-2.01405e-07
6.12415e-07
7.11245e-06
-4.21141e-06
2.92947e-07
3.54695e-06
-1.06247e-06
-6.02354e-07
2.52825e-06
2.95851e-06
-1.1583e-06
4.39543e-06
1.14743e-06
1.94217e-06
-2.3686e-06
1.47575e-06
1.43963e-06
-4.18614e-07
-2.82861e-07
3.85498e-06
-3.44269e-07
2.35499e-08
-5.45925e-07
2.1816e-06
-9.9474e-07
-6.28853e-07
1.61838e-06
1.68532e-06
-1.87684e-06
1.8022e-06
2.04407e-06
-2.00266e-06
1.26533e-06
-1.74853e-06
8.39525e-07
9.17187e-07
-5.67708e-07
-5.59053e-07
2.3962e-06
-1.06571e-06
-6.07723e-07
2.2088e-06
-1.43178e-06
-8.22285e-07
1.25236e-06
-9.02664e-07
-5.02248e-07
9.96829e-07
1.06207e-06
-1.76986e-06
9.1865e-07
6.54577e-07
-1.10331e-06
3.85278e-07
3.28267e-07
-1.41021e-06
5.57781e-07
4.95488e-07
-5.1774e-07
-5.94765e-07
1.51919e-06
-1.01285e-06
-7.90733e-07
7.60611e-07
-7.00835e-08
-1.4381e-07
-6.08466e-07
8.47388e-07
-6.94218e-07
-4.39742e-07
6.66556e-07
5.87494e-07
-1.43326e-06
5.23931e-07
2.76886e-07
-1.02803e-06
-2.15037e-07
-1.99522e-07
3.48783e-07
-9.63171e-07
3.30375e-07
3.27065e-07
-4.56554e-07
-4.82323e-07
1.03781e-06
-8.45152e-07
-7.46965e-07
4.10495e-07
-5.2162e-07
-2.00963e-07
-5.22436e-07
-5.0403e-07
5.11578e-07
-5.51285e-07
-3.07189e-07
4.39165e-07
4.19565e-07
-1.12032e-06
2.96572e-07
1.06229e-07
-1.01468e-06
-2.71565e-07
-4.17521e-07
-2.23056e-07
6.85105e-08
-7.26155e-07
2.35708e-07
1.8397e-07
-3.39605e-07
-3.84014e-07
7.07552e-07
-7.05046e-07
-6.80985e-07
1.85789e-07
-5.29633e-07
-3.41108e-07
1.5519e-07
-1.19147e-06
-3.38844e-07
3.60507e-07
-3.95219e-07
-2.423e-07
3.1871e-07
2.50655e-07
-8.56385e-07
1.61061e-07
2.85264e-08
-8.8139e-07
-2.9043e-07
-1.25233e-07
-5.40424e-07
8.14691e-07
1.1275e-07
-4.85985e-07
1.42293e-07
1.32071e-07
-2.62219e-07
-2.86223e-07
5.07554e-07
-5.49106e-07
-5.89795e-07
1.06859e-07
-3.55724e-07
-2.35939e-07
4.88341e-07
-5.14091e-07
-2.67185e-07
2.18764e-07
-2.98318e-07
-1.60347e-07
2.19382e-07
1.98049e-07
-6.55418e-07
8.67664e-08
7.39164e-09
-6.62821e-07
-1.38113e-07
7.98264e-08
-2.1089e-07
1.36427e-06
1.58395e-07
1.06858e-08
-3.59937e-07
1.0356e-07
7.83576e-08
-1.83349e-07
-2.19052e-07
3.53384e-07
-4.27329e-07
-4.44409e-07
1.25324e-07
-1.77982e-07
-3.14069e-08
6.40071e-07
-1.87116e-07
1.2271e-06
-2.03189e-07
1.45506e-07
-2.08947e-07
-1.22054e-07
1.64393e-07
1.23303e-07
-4.91469e-07
5.61091e-08
2.27786e-08
-4.34809e-07
-8.8519e-09
1.86055e-07
-1.15816e-07
1.05783e-06
-4.2225e-07
8.53686e-08
-2.33992e-07
6.43716e-08
6.26346e-08
-1.34341e-07
-1.58731e-07
2.60051e-07
-3.16185e-07
-3.12399e-07
1.37505e-07
-4.7067e-08
4.87437e-08
5.80713e-07
-3.40345e-07
8.55887e-07
-9.51889e-07
-1.3376e-07
1.07084e-07
-1.45986e-07
-7.51364e-08
1.17805e-07
1.02351e-07
-3.66906e-07
3.97969e-08
2.50583e-08
-2.81339e-07
4.72741e-08
1.9983e-07
-8.27274e-08
8.00582e-07
-5.11278e-07
4.66408e-07
3.34581e-08
-1.64641e-07
5.3046e-08
4.34415e-08
-8.95615e-08
-1.17001e-07
1.83382e-07
-2.38066e-07
-2.22524e-07
1.2608e-07
-1.23377e-09
6.44656e-08
4.61899e-07
-3.59777e-07
6.41609e-07
-5.13439e-07
-7.57826e-08
-7.82032e-08
7.09113e-08
-9.62743e-08
-5.38704e-08
9.14158e-08
6.60725e-08
-2.71091e-07
2.65333e-08
2.38398e-08
-1.9323e-07
5.95387e-08
1.68214e-07
-8.76403e-08
6.19574e-07
-4.42303e-07
6.14654e-07
-3.97037e-07
-5.35335e-08
2.34747e-10
-1.10135e-07
3.53605e-08
3.82867e-08
-6.24969e-08
-8.27554e-08
1.36168e-07
-1.77293e-07
-1.63641e-07
1.00994e-07
1.50054e-08
4.5002e-08
3.53131e-07
-3.12491e-07
5.60559e-07
-4.13113e-07
4.96351e-07
-9.4506e-08
-6.24805e-08
4.44522e-08
-6.50545e-08
-3.05123e-08
6.77667e-08
5.7052e-08
-2.02131e-07
1.67972e-08
1.51252e-08
-1.38412e-07
4.86787e-08
1.32994e-07
-8.51389e-08
4.79508e-07
-3.92486e-07
4.74866e-07
-4.74088e-07
-4.75096e-08
-7.51063e-09
-7.74509e-08
2.83779e-08
2.84633e-08
-3.98903e-08
-5.97559e-08
9.7137e-08
-1.35359e-07
-1.23155e-07
7.65349e-08
1.20419e-08
3.44234e-08
2.6668e-07
-2.32765e-07
4.48073e-07
-3.90972e-07
3.15825e-07
-3.67388e-07
-7.20582e-08
-4.72797e-08
2.89006e-08
-4.28651e-08
-2.23328e-08
5.36334e-08
3.87797e-08
-1.49432e-07
1.02309e-08
1.03069e-08
-1.04204e-07
3.81962e-08
1.01878e-07
-6.61825e-08
3.67788e-07
-2.98468e-07
3.39007e-07
-1.72319e-07
1.70726e-07
-4.24013e-08
-9.15229e-09
-5.19231e-08
1.78161e-08
2.39001e-08
-2.69183e-08
-4.14766e-08
7.40198e-08
-1.02235e-07
-9.43837e-08
5.57576e-08
1.02894e-08
2.16702e-08
2.07818e-07
-1.92735e-07
3.45197e-07
-2.71451e-07
2.49774e-07
-2.92854e-07
-5.34731e-08
-3.53604e-08
1.77278e-08
-3.0121e-08
-1.22535e-08
4.06314e-08
3.47043e-08
-1.12204e-07
6.42731e-09
4.67431e-09
-8.04654e-08
2.58424e-08
7.78746e-08
-5.88807e-08
2.78007e-07
-2.1728e-07
2.99627e-07
-2.78231e-07
2.77719e-07
-3.4019e-08
-8.81639e-09
-3.72432e-08
1.35784e-08
1.76906e-08
-1.66577e-08
-2.95223e-08
5.48013e-08
-7.916e-08
-7.35899e-08
4.06979e-08
4.19457e-09
1.43346e-08
1.55439e-07
-1.39715e-07
2.67456e-07
-2.27142e-07
2.59893e-07
-2.00584e-07
-4.00695e-08
-2.70386e-08
1.06054e-08
-2.07101e-08
-9.77021e-09
3.29568e-08
2.51436e-08
-8.39612e-08
4.39531e-09
2.92385e-09
-6.4385e-08
1.81568e-08
5.78836e-08
-4.46303e-08
2.1337e-07
-1.69763e-07
2.38888e-07
-2.00884e-07
1.74188e-07
1.27206e-07
-2.93613e-08
-8.31033e-09
-2.59289e-08
7.92477e-09
1.46611e-08
-1.07782e-08
-2.02548e-08
4.4077e-08
-6.08156e-08
-5.78641e-08
3.01005e-08
2.47142e-09
7.5636e-09
1.22642e-07
-1.17375e-07
2.06471e-07
-1.82991e-07
1.70254e-07
-9.75661e-11
8.98706e-08
-2.87488e-08
-2.11733e-08
5.91184e-09
-1.53506e-08
-5.0696e-09
2.57863e-08
2.33387e-08
-6.43682e-08
3.87488e-09
1.41918e-09
-5.14752e-08
1.17959e-08
4.43566e-08
-4.08013e-08
1.69649e-07
-1.36512e-07
1.83922e-07
-1.59639e-07
1.65288e-07
-3.09879e-08
-2.43018e-08
-7.72113e-09
-1.94996e-08
6.13575e-09
1.11708e-08
-6.39786e-09
-1.43647e-08
3.46943e-08
-4.75214e-08
-4.57472e-08
2.36135e-08
-7.98137e-10
4.11458e-09
9.57829e-08
-9.16213e-08
1.68164e-07
-1.50871e-07
1.80788e-07
-1.61501e-07
1.54575e-07
-2.37267e-08
-1.70566e-08
2.90205e-09
-1.103e-08
-4.52342e-09
2.15991e-08
1.79258e-08
-4.91622e-08
3.89378e-09
2.06667e-09
-4.24043e-08
8.24848e-09
3.34489e-08
-3.44702e-08
1.40137e-07
-1.16992e-07
1.63999e-07
-1.776e-07
1.6068e-07
-1.96011e-07
-2.1136e-08
-6.96464e-09
-1.42947e-08
3.44524e-09
9.42388e-09
-3.92453e-09
-9.86285e-09
2.95556e-08
-3.70824e-08
-3.67781e-08
1.85189e-08
-1.70034e-09
-6.67183e-10
7.95626e-08
-8.57793e-08
1.4566e-07
-1.38068e-07
1.66706e-07
-1.78395e-07
8.76629e-08
-1.79571e-07
-1.70122e-08
-1.39222e-08
1.26986e-09
-8.63502e-09
-2.13939e-09
1.73854e-08
1.6823e-08
-3.89939e-08
3.98052e-09
1.66095e-09
-3.56763e-08
4.05359e-09
2.52882e-08
-3.59636e-08
1.18601e-07
-1.03535e-07
1.46789e-07
-1.53529e-07
1.31793e-07
-1.03424e-07
5.32579e-08
-1.76628e-08
-6.28904e-09
-1.13257e-08
2.94041e-09
7.39366e-09
-2.37322e-09
-7.31852e-09
2.42602e-08
-2.99079e-08
-3.05274e-08
1.47285e-08
-4.82399e-09
-3.94521e-09
6.38314e-08
-7.3871e-08
1.25409e-07
-1.17402e-07
1.47126e-07
-1.49273e-07
9.1427e-08
-1.89126e-07
-1.51764e-08
-1.15789e-08
1.6665e-10
-6.52728e-09
-2.36183e-09
1.47639e-08
1.31199e-08
-3.10901e-08
3.68788e-09
1.88081e-09
-3.15768e-08
1.28216e-09
1.79512e-08
-3.36813e-08
1.0016e-07
-9.3136e-08
1.26071e-07
-1.37774e-07
1.37098e-07
-1.67972e-07
1.0812e-07
-1.5293e-08
-5.48901e-09
-8.76244e-09
1.60424e-09
6.24571e-09
-1.62745e-09
-5.4986e-09
2.10634e-08
-2.44752e-08
-2.6109e-08
1.12068e-08
-5.90439e-09
-7.58996e-09
5.33711e-08
-7.16766e-08
1.07143e-07
-1.09667e-07
1.30287e-07
-1.49807e-07
1.29183e-07
-1.50385e-07
-1.08658e-08
-9.68918e-09
-2.61521e-10
-5.4492e-09
-1.18881e-09
1.18665e-08
1.20337e-08
-2.59653e-08
3.20801e-09
1.16333e-09
-2.79428e-08
-1.58871e-09
1.28176e-08
-3.4817e-08
8.41552e-08
-8.46566e-08
1.0704e-07
-1.18354e-07
1.29917e-07
-1.20222e-07
1.00324e-07
-1.77485e-07
-1.27743e-08
-4.88366e-09
-7.29971e-09
1.49775e-09
4.85462e-09
-1.34495e-09
-4.70053e-09
1.72956e-08
-2.06354e-08
-2.26595e-08
8.66131e-09
-7.68023e-09
-9.05014e-09
4.24279e-08
-6.25228e-08
8.94158e-08
-9.15564e-08
1.08699e-07
-1.21728e-07
1.13307e-07
-9.88053e-08
2.66762e-08
-1.02338e-08
-8.22727e-09
-6.61351e-10
-4.36986e-09
-1.68207e-09
9.89877e-09
9.10632e-09
-2.16051e-08
2.54935e-09
1.04436e-09
-2.49835e-08
-2.70091e-09
8.59126e-09
-3.14331e-08
6.93063e-08
-7.35388e-08
8.90085e-08
-1.00814e-07
1.12335e-07
-1.16175e-07
5.83117e-08
-1.23982e-07
-1.10806e-08
-4.21471e-09
-5.90127e-09
6.97678e-10
3.96908e-09
-1.33856e-09
-4.08852e-09
1.47341e-08
-1.74247e-08
-1.96864e-08
6.52206e-09
-7.34436e-09
-9.96363e-09
3.49358e-08
-5.72813e-08
7.38016e-08
-8.04626e-08
9.08748e-08
-1.01877e-07
9.35558e-08
-9.11248e-08
2.92162e-08
-7.3724e-09
-7.00017e-09
-7.37417e-10
-3.83711e-09
-1.1283e-09
7.69524e-09
7.96729e-09
-1.85808e-08
1.90785e-09
4.47238e-10
-2.1592e-08
-3.54524e-09
6.21081e-09
-2.94e-08
5.6439e-08
-6.32423e-08
7.32802e-08
-8.08175e-08
9.1722e-08
-9.23976e-08
4.77105e-08
-8.43663e-08
-9.33145e-09
-3.7604e-09
-5.07013e-09
6.24172e-10
2.9161e-09
-1.445e-09
-3.91045e-09
1.17338e-08
-1.48882e-08
-1.68733e-08
5.15341e-09
-7.18911e-09
-9.10273e-09
2.72711e-08
-4.70578e-08
5.88318e-08
-6.25581e-08
7.31523e-08
-7.88641e-08
7.41399e-08
-7.26619e-08
6.29967e-08
-7.1934e-09
-6.02765e-09
-9.42174e-10
-3.21982e-09
-1.5993e-09
6.12586e-09
5.64697e-09
-1.56675e-08
1.31952e-09
4.07255e-10
-1.83772e-08
-3.09382e-09
4.38496e-09
-2.41599e-08
4.44566e-08
-5.10077e-08
5.68567e-08
-6.35927e-08
7.08321e-08
-7.36892e-08
7.16892e-08
-7.67618e-08
-8.1615e-09
-3.27277e-09
-4.19811e-09
4.98079e-11
2.21396e-09
-1.5988e-09
-3.64267e-09
9.61437e-09
-1.25004e-08
-1.4182e-08
4.106e-09
-5.7496e-09
-7.92108e-09
2.19342e-08
-4.01408e-08
4.53168e-08
-5.24207e-08
5.50672e-08
-6.26943e-08
6.74336e-08
-6.12244e-08
6.6141e-08
-8.82293e-08
-5.24842e-09
-5.17142e-09
-9.66047e-10
-2.88135e-09
-1.31687e-09
4.4678e-09
4.66208e-09
-1.33967e-08
8.49531e-10
1.18752e-10
-1.50048e-08
-2.66182e-09
3.5683e-09
-2.09294e-08
3.4676e-08
-4.32301e-08
4.27245e-08
-5.14148e-08
5.30189e-08
-5.95734e-08
5.15941e-08
-3.82577e-08
2.79759e-08
-6.91993e-09
-2.9484e-09
-3.63652e-09
-5.63971e-11
1.44407e-09
-1.67193e-09
-3.50075e-09
7.30925e-09
-1.04775e-08
-1.16908e-08
3.41345e-09
-4.80157e-09
-6.52302e-09
1.69556e-08
-3.29028e-08
3.46501e-08
-4.25957e-08
4.07038e-08
-5.04035e-08
4.98568e-08
-5.26472e-08
2.81934e-08
-4.2281e-08
-5.16303e-09
-4.47571e-09
-1.09251e-09
-2.46058e-09
-1.63347e-09
3.30438e-09
3.00598e-09
-1.11282e-08
4.26043e-10
1.10924e-10
-1.21647e-08
-1.99511e-09
2.65791e-09
-1.69491e-08
2.72134e-08
-3.52086e-08
3.23019e-08
-4.25553e-08
3.88881e-08
-4.99035e-08
3.61918e-08
-3.65289e-08
2.17177e-08
-6.11243e-09
-2.56276e-09
-3.03006e-09
-4.58284e-10
9.21168e-10
-1.71133e-09
-3.22508e-09
5.67681e-09
-8.66359e-09
-9.57631e-09
2.67863e-09
-3.75909e-09
-5.41173e-09
1.36503e-08
-2.69304e-08
2.72782e-08
-3.53857e-08
3.07879e-08
-4.20937e-08
3.57123e-08
-4.30598e-08
1.71145e-08
-3.2443e-08
-3.71724e-09
-3.87065e-09
-1.06342e-09
-2.20248e-09
-1.43176e-09
2.14358e-09
2.29203e-09
-9.37439e-09
5.90132e-11
-1.77308e-10
-9.8129e-09
-1.73226e-09
2.14184e-09
-1.38639e-08
2.17467e-08
-2.82565e-08
2.57664e-08
-3.44269e-08
2.95924e-08
-4.01275e-08
2.31044e-08
-2.92684e-08
1.47168e-08
-5.21638e-09
-2.31727e-09
-2.55581e-09
-5.34953e-10
3.63223e-10
-1.68886e-09
-3.0145e-09
4.05343e-09
-7.21146e-09
-7.87437e-09
2.03084e-09
-3.18986e-09
-4.44715e-09
1.07011e-08
-2.07527e-08
2.19934e-08
-2.67277e-08
2.48186e-08
-3.2102e-08
2.45167e-08
-3.2886e-08
4.19063e-09
-2.92962e-08
-3.71474e-09
-3.36134e-09
-1.1404e-09
-1.91052e-09
-1.5938e-09
1.36465e-09
1.25171e-09
-7.65487e-09
-1.8198e-10
-2.27326e-10
-8.09392e-09
-1.45108e-09
1.5285e-09
-1.05295e-08
1.6934e-08
-2.05121e-08
2.04137e-08
-2.48647e-08
2.21963e-08
-2.94842e-08
2.45804e-09
-2.898e-08
6.21279e-09
-4.58933e-09
-1.95639e-09
-2.055e-09
-7.1506e-10
-2.33222e-11
-1.66291e-09
-2.56172e-09
3.25309e-09
-5.75857e-09
-6.66898e-09
1.44998e-09
-2.60865e-09
-3.47049e-09
7.96236e-09
-1.56745e-08
1.61099e-08
-1.96105e-08
1.82942e-08
-2.33438e-08
3.1103e-09
-2.38611e-08
-6.51789e-11
-2.03456e-08
1.32211e-08
-2.58433e-09
-2.68796e-09
-9.29798e-10
-1.71843e-09
-1.10228e-09
1.12958e-09
1.06792e-09
-6.21632e-09
-3.0589e-10
3.90388e-10
-5.81506e-09
-1.2607e-09
5.84676e-10
-8.63005e-09
1.17426e-08
-1.64807e-08
1.37105e-08
-1.94627e-08
6.12912e-09
-1.46331e-08
1.2185e-09
-1.609e-08
9.13792e-09
-9.39822e-09
-3.63912e-09
-1.52681e-09
-1.47383e-09
-2.5322e-10
-2.17819e-10
-1.44716e-09
-1.91269e-09
2.83857e-09
-3.68459e-09
-5.13562e-09
5.88679e-10
-2.28422e-09
-2.994e-09
5.05314e-09
-1.28878e-08
1.04994e-08
-1.67e-08
8.86911e-09
-1.38107e-08
-8.01415e-10
-1.01898e-08
1.33044e-08
-1.46573e-08
1.03408e-08
-2.97948e-09
-2.79588e-09
-7.07513e-10
-1.81457e-09
-9.02552e-10
1.42888e-09
9.81679e-10
-4.79812e-09
-6.80675e-10
5.85975e-10
-3.64858e-09
-1.11499e-09
-2.43718e-10
-7.06446e-09
7.72056e-09
-1.46136e-08
8.99898e-09
-1.79843e-08
2.57372e-09
-5.71557e-09
7.01983e-09
-1.86374e-08
7.52921e-09
-1.29241e-08
-3.44732e-09
-1.72456e-09
-1.51704e-09
-4.55083e-11
-6.90827e-11
-1.28454e-09
-1.72647e-09
2.24682e-09
-2.07294e-09
-3.6064e-09
1.91954e-10
-1.94601e-09
-2.90408e-09
3.26546e-09
-1.08734e-08
7.42789e-09
-1.53642e-08
6.08234e-09
-1.14647e-08
-1.07905e-09
-1.06564e-08
8.84335e-09
-1.42277e-08
4.47407e-09
-2.57009e-09
-2.25047e-09
-5.08307e-10
-1.33553e-09
-7.18217e-10
8.14007e-10
9.29491e-10
-3.41401e-09
-6.0005e-10
5.16177e-10
-2.97275e-09
-1.212e-09
-2.57647e-10
-6.35138e-09
5.6744e-09
-1.25093e-08
6.3207e-09
-1.45978e-08
3.79657e-10
-6.63506e-09
2.97577e-09
-1.60045e-08
3.56167e-09
-1.12359e-08
-2.76376e-09
-1.559e-09
-1.40903e-09
-1.20961e-10
4.11601e-11
-9.0155e-10
-1.60158e-09
1.3076e-09
-1.42278e-09
-2.67441e-09
-7.44565e-11
-1.79796e-09
-2.8602e-09
2.48606e-09
-9.3208e-09
5.61708e-09
-1.30252e-08
3.91262e-09
-9.03858e-09
-1.97323e-09
-1.17916e-08
3.10155e-09
-1.17682e-08
2.97247e-09
-2.45754e-09
-1.84462e-09
-5.36645e-10
-1.04276e-09
-7.38222e-10
2.46694e-10
4.74238e-10
-2.53922e-09
-6.67004e-10
1.73943e-10
-2.71726e-09
-1.32074e-09
-3.32233e-10
-5.4525e-09
4.44525e-09
-1.02302e-08
4.79155e-09
-1.11959e-08
-4.13877e-10
-8.32752e-09
-1.46105e-09
-1.42977e-08
-2.06594e-10
-9.31987e-09
-2.52908e-09
-1.4345e-09
-1.38834e-09
-3.31996e-10
-8.46119e-11
-7.25767e-10
-1.46838e-09
6.105e-10
-1.19649e-09
-2.284e-09
-3.2199e-10
-1.71919e-09
-2.54711e-09
2.01456e-09
-7.42707e-09
4.43849e-09
-9.97282e-09
2.70375e-09
-8.55569e-09
-3.34704e-09
-1.23128e-08
-5.61809e-10
-1.00234e-08
2.68431e-09
-2.02236e-09
-1.62656e-09
-6.04345e-10
-8.5625e-10
-6.81486e-10
-2.86902e-10
1.74683e-10
-2.00377e-09
-7.94904e-10
-3.06706e-11
-2.58453e-09
-1.26928e-09
-2.7376e-10
-4.36617e-09
3.53973e-09
-7.66675e-09
3.50097e-09
-8.68996e-09
-1.55865e-09
-8.79589e-09
-3.83558e-10
-1.0153e-08
3.76763e-10
-4.35127e-09
-2.23677e-09
-1.53701e-09
-1.16955e-09
-4.35701e-10
-2.7747e-10
-5.47859e-10
-1.40481e-09
8.56599e-11
-1.01342e-09
-1.95046e-09
-3.99034e-10
-1.47501e-09
-2.1444e-09
1.5906e-09
-5.61642e-09
3.1821e-09
-7.17601e-09
-3.42356e-10
-7.45166e-09
2.75889e-11
-8.3114e-09
2.12661e-09
-6.60974e-09
-9.77842e-10
-5.36067e-09
-1.47274e-09
-1.20288e-09
-6.28405e-10
-5.50307e-10
-5.58323e-10
-6.3786e-10
-1.15576e-10
-1.58246e-09
-8.19512e-10
-1.20881e-10
-2.29573e-09
-1.11599e-09
-1.72203e-10
-3.32614e-09
2.61028e-09
-5.41088e-09
-1.53067e-10
-6.27975e-09
-2.35745e-10
-5.99879e-09
2.21539e-09
-7.04797e-09
-1.39665e-09
-6.15819e-09
-1.04294e-10
-2.16153e-09
-1.10695e-09
-7.5195e-10
-4.62233e-10
-4.07071e-10
-4.38397e-10
-1.37609e-09
-2.03888e-10
-8.18451e-10
-1.50357e-09
-4.8362e-10
-1.13852e-09
-1.53685e-09
1.38634e-09
-3.89658e-09
6.57444e-11
-4.68844e-09
-4.45818e-10
-4.60517e-09
1.46011e-09
-4.88209e-09
-1.31024e-09
-4.96823e-09
-4.00815e-09
-1.9675e-09
1.45409e-09
-5.45483e-10
-5.73976e-10
-4.90642e-10
-4.58036e-10
-1.07335e-09
-2.83719e-10
-1.28696e-09
-5.45244e-10
-5.32901e-10
-1.90802e-09
-1.37419e-09
-3.40544e-10
-2.57968e-09
-2.01738e-10
-3.47784e-09
-9.47916e-10
-3.51917e-09
2.49137e-10
-3.5943e-09
-1.20066e-09
-4.57312e-09
-3.22101e-09
-4.20584e-09
-1.6269e-09
-2.01279e-09
-6.73126e-10
-5.78657e-10
-4.78411e-10
-7.81633e-10
-5.74012e-10
-1.14212e-09
-3.52762e-10
-8.29841e-10
-1.3392e-09
-1.61666e-09
-1.23951e-09
-1.63011e-09
-7.98259e-10
-2.3104e-09
-1.41898e-09
-2.38467e-09
-9.14144e-10
-2.68755e-09
-1.91415e-09
-3.25616e-09
-3.05755e-09
-3.43843e-09
-3.38855e-09
-2.0442e-09
4.00428e-10
-2.19782e-10
-1.48717e-10
-2.4259e-10
-2.38172e-10
-3.60117e-10
-1.74391e-10
-3.57625e-10
-4.34732e-10
-4.07634e-10
-7.45253e-10
-5.35355e-10
-4.63801e-10
-7.72161e-10
-7.04093e-10
-8.5042e-10
-6.92567e-10
-1.1092e-09
-1.21143e-09
-1.49267e-09
-1.61547e-09
-1.91954e-09
-2.00725e-09
-1.8822e-09
-2.30131e-09
)
;

boundaryField
{
    inlet
    {
        type            extrapolatedCalculated;
        value           nonuniform List<scalar> 
25
(
4.00428e-10
-2.19782e-10
-1.48717e-10
-2.4259e-10
-2.38172e-10
-3.60117e-10
-1.74391e-10
-3.57625e-10
-4.34732e-10
-4.07634e-10
-7.45253e-10
-5.35355e-10
-4.63801e-10
-7.72161e-10
-7.04093e-10
-8.5042e-10
-6.92567e-10
-1.1092e-09
-1.21143e-09
-1.49267e-09
-1.61547e-09
-1.91954e-09
-2.00725e-09
-1.8822e-09
-2.30131e-09
)
;
    }
    outlet
    {
        type            extrapolatedCalculated;
        value           nonuniform List<scalar> 0();
    }
    walls
    {
        type            extrapolatedCalculated;
        value           nonuniform List<scalar> 0();
    }
    frontAndBack
    {
        type            empty;
    }
    procBoundary4to0
    {
        type            processor;
        value           nonuniform List<scalar> 
72
(
1.3237e-05
1.32045e-05
6.42016e-06
5.46022e-06
1.80121e-06
2.45402e-06
-9.06676e-08
4.27873e-07
-3.67266e-07
4.17282e-07
-4.42517e-07
-5.26623e-08
-3.30914e-07
7.07537e-08
-2.64838e-07
-8.04179e-08
-1.81005e-07
-5.20595e-08
-9.27634e-08
-1.89188e-07
-1.08344e-08
-1.14082e-07
-1.14082e-07
-1.12751e-07
-1.2071e-07
-6.70862e-08
-9.67478e-08
-5.59664e-08
-6.76716e-08
-4.23261e-08
-4.9867e-08
-3.20608e-08
-3.4975e-08
-2.71407e-08
-2.65719e-08
-1.97416e-08
-1.93938e-08
-1.81702e-08
-1.53095e-08
-1.27681e-08
-1.15108e-08
-1.23491e-08
-9.41691e-09
-8.51176e-09
-7.31995e-09
-8.60742e-09
-6.22017e-09
-5.97397e-09
-4.99085e-09
-6.21189e-09
-4.35784e-09
-4.37125e-09
-3.46821e-09
-4.56713e-09
-3.04713e-09
-3.18061e-09
-2.56324e-09
-3.14391e-09
-2.30526e-09
-2.61457e-09
-2.18908e-09
-2.63868e-09
-2.03748e-09
-2.22532e-09
-1.49034e-09
-2.29073e-09
-9.92239e-10
-1.92885e-09
1.22073e-09
-3.35253e-09
2.80065e-09
-1.38597e-10
)
;
    }
    procBoundary4to5
    {
        type            processor;
        value           nonuniform List<scalar> 
95
(
1.16293e-05
-2.06908e-06
9.96763e-06
4.65109e-06
4.65109e-06
6.06121e-06
4.26759e-06
4.26759e-06
7.8422e-06
1.0849e-05
1.0849e-05
6.13822e-06
6.13822e-06
1.20626e-06
4.71503e-06
4.71503e-06
3.79993e-06
3.79993e-06
1.5713e-06
3.48257e-07
3.48257e-07
1.53893e-07
-1.41592e-07
-1.41592e-07
-1.21e-07
2.44757e-07
2.44757e-07
6.30076e-07
-2.97815e-07
1.70016e-06
1.70016e-06
1.63527e-06
-1.0841e-07
1.02656e-06
1.02656e-06
4.38048e-07
-4.48175e-07
6.71942e-07
6.71942e-07
6.70449e-07
-3.68933e-07
4.2852e-07
4.2852e-07
2.93352e-07
-1.35717e-07
2.79293e-07
-1.72775e-07
2.45343e-07
2.45343e-07
1.35954e-07
2.01892e-07
1.84619e-07
-1.5485e-07
9.53347e-08
9.53347e-08
5.00992e-08
-2.0853e-07
4.24127e-08
-2.43518e-07
7.34097e-08
7.34097e-08
2.22854e-08
-1.6637e-07
4.53452e-09
-9.39671e-08
2.65273e-08
-7.72405e-08
8.5193e-08
8.5193e-08
5.38512e-08
-3.18176e-08
1.69226e-08
-2.98717e-08
1.01647e-08
-2.63652e-08
3.16468e-09
-3.37465e-08
-3.37465e-08
-1.9867e-08
5.56797e-09
-1.24506e-08
1.96047e-09
-1.25238e-08
-5.44744e-10
-1.1182e-08
-2.25411e-09
-9.13718e-09
-5.29848e-09
-5.29848e-09
-4.42398e-09
-7.61158e-09
-5.06433e-09
-5.66107e-09
-6.13574e-09
-4.26767e-09
)
;
    }
}


// ************************************************************************* //
