/*--------------------------------*- C++ -*----------------------------------*\
| =========                 |                                                 |
| \\      /  F ield         | OpenFOAM: The Open Source CFD Toolbox           |
|  \\    /   O peration     | Version:  2506                                  |
|   \\  /    A nd           | Website:  www.openfoam.com                      |
|    \\/     M anipulation  |                                                 |
\*---------------------------------------------------------------------------*/
FoamFile
{
    version     2.0;
    format      ascii;
    arch        "LSB;label=32;scalar=64";
    class       volScalarField;
    location    "250";
    object      nut;
}
// * * * * * * * * * * * * * * * * * * * * * * * * * * * * * * * * * * * * * //

dimensions      [0 2 -1 0 0 0 0];

internalField   nonuniform List<scalar> 
1340
(
6.10421e-06
6.10421e-06
6.10394e-06
6.10405e-06
6.10392e-06
6.10355e-06
6.10317e-06
6.10284e-06
6.10372e-06
6.10352e-06
6.10314e-06
6.10274e-06
6.10241e-06
6.1021e-06
6.10188e-06
6.10332e-06
6.10306e-06
6.10269e-06
6.1023e-06
6.10198e-06
6.10171e-06
6.10151e-06
6.10133e-06
6.10293e-06
6.10263e-06
6.10227e-06
6.10189e-06
6.10158e-06
6.10134e-06
6.10118e-06
6.10103e-06
6.10095e-06
6.10262e-06
6.10227e-06
6.1019e-06
6.10154e-06
6.10123e-06
6.10103e-06
6.10091e-06
6.10082e-06
6.10078e-06
6.10235e-06
6.10196e-06
6.10159e-06
6.10125e-06
6.10096e-06
6.1008e-06
6.10073e-06
6.1007e-06
6.10072e-06
6.10074e-06
6.10208e-06
6.10168e-06
6.10133e-06
6.10102e-06
6.10078e-06
6.10067e-06
6.10065e-06
6.10067e-06
6.10072e-06
6.10078e-06
6.10083e-06
6.10182e-06
6.10141e-06
6.10109e-06
6.10083e-06
6.10064e-06
6.1006e-06
6.10063e-06
6.10069e-06
6.10077e-06
6.10085e-06
6.10092e-06
6.10156e-06
6.10114e-06
6.10087e-06
6.10067e-06
6.10055e-06
6.10057e-06
6.10065e-06
6.10074e-06
6.10085e-06
6.10094e-06
6.10103e-06
6.1011e-06
6.10131e-06
6.10089e-06
6.10068e-06
6.10055e-06
6.10051e-06
6.10058e-06
6.10069e-06
6.1008e-06
6.10092e-06
6.10103e-06
6.10113e-06
6.10121e-06
6.10109e-06
6.10068e-06
6.10054e-06
6.10047e-06
6.10049e-06
6.1006e-06
6.10073e-06
6.10086e-06
6.10099e-06
6.10112e-06
6.10122e-06
6.10132e-06
6.10141e-06
6.10091e-06
6.10051e-06
6.10044e-06
6.10043e-06
6.10049e-06
6.10062e-06
6.10077e-06
6.10091e-06
6.10106e-06
6.1012e-06
6.10132e-06
6.10142e-06
6.10152e-06
6.10075e-06
6.10039e-06
6.10038e-06
6.10042e-06
6.1005e-06
6.10065e-06
6.10081e-06
6.10097e-06
6.10113e-06
6.10128e-06
6.10141e-06
6.10153e-06
6.10164e-06
6.10173e-06
6.10062e-06
6.10031e-06
6.10034e-06
6.10041e-06
6.10051e-06
6.10068e-06
6.10085e-06
6.10103e-06
6.1012e-06
6.10136e-06
6.1015e-06
6.10163e-06
6.10175e-06
6.10185e-06
6.1005e-06
6.10024e-06
6.10031e-06
6.1004e-06
6.10052e-06
6.10071e-06
6.1009e-06
6.10108e-06
6.10127e-06
6.10144e-06
6.10159e-06
6.10173e-06
6.10186e-06
6.10198e-06
6.10039e-06
6.10018e-06
6.10028e-06
6.10039e-06
6.10054e-06
6.10074e-06
6.10094e-06
6.10114e-06
6.10134e-06
6.10152e-06
6.10169e-06
6.10184e-06
6.10198e-06
6.1021e-06
6.10221e-06
6.10028e-06
6.10012e-06
6.10025e-06
6.10038e-06
6.10055e-06
6.10077e-06
6.10099e-06
6.1012e-06
6.10141e-06
6.1016e-06
6.10177e-06
6.10194e-06
6.10208e-06
6.10222e-06
6.10235e-06
6.10018e-06
6.10006e-06
6.10022e-06
6.10037e-06
6.10056e-06
6.10079e-06
6.10103e-06
6.10125e-06
6.10147e-06
6.10167e-06
6.10186e-06
6.10203e-06
6.10219e-06
6.10234e-06
6.10247e-06
6.10008e-06
6.1e-06
6.10018e-06
6.10036e-06
6.10056e-06
6.10082e-06
6.10106e-06
6.1013e-06
6.10153e-06
6.10175e-06
6.10194e-06
6.10213e-06
6.10229e-06
6.10245e-06
6.1026e-06
6.10273e-06
6.09999e-06
6.09993e-06
6.10014e-06
6.10034e-06
6.10057e-06
6.10084e-06
6.1011e-06
6.10135e-06
6.10159e-06
6.10182e-06
6.10202e-06
6.10222e-06
6.1024e-06
6.10256e-06
6.10272e-06
6.10287e-06
6.09989e-06
6.09987e-06
6.10011e-06
6.10033e-06
6.10057e-06
6.10085e-06
6.10113e-06
6.10139e-06
6.10165e-06
6.10188e-06
6.1021e-06
6.1023e-06
6.10249e-06
6.10267e-06
6.10284e-06
6.103e-06
6.09987e-06
6.09979e-06
6.0998e-06
6.10006e-06
6.1003e-06
6.10056e-06
6.10087e-06
6.10115e-06
6.10143e-06
6.10169e-06
6.10194e-06
6.10217e-06
6.10238e-06
6.10258e-06
6.10277e-06
6.10295e-06
6.10312e-06
6.10329e-06
6.09973e-06
6.09968e-06
6.09973e-06
6.10002e-06
6.10028e-06
6.10056e-06
6.10087e-06
6.10117e-06
6.10146e-06
6.10174e-06
6.10199e-06
6.10223e-06
6.10246e-06
6.10267e-06
6.10287e-06
6.10306e-06
6.10324e-06
6.10342e-06
6.0996e-06
6.09958e-06
6.09966e-06
6.09997e-06
6.10024e-06
6.10054e-06
6.10087e-06
6.10118e-06
6.10149e-06
6.10178e-06
6.10204e-06
6.1023e-06
6.10253e-06
6.10276e-06
6.10297e-06
6.10317e-06
6.10336e-06
6.10355e-06
6.09945e-06
6.09946e-06
6.09958e-06
6.09991e-06
6.10021e-06
6.10052e-06
6.10087e-06
6.10119e-06
6.10151e-06
6.10181e-06
6.10209e-06
6.10235e-06
6.1026e-06
6.10283e-06
6.10306e-06
6.10327e-06
6.10348e-06
6.10368e-06
6.10387e-06
6.0993e-06
6.09935e-06
6.09949e-06
6.09985e-06
6.10016e-06
6.10049e-06
6.10085e-06
6.10119e-06
6.10152e-06
6.10183e-06
6.10212e-06
6.1024e-06
6.10266e-06
6.10291e-06
6.10314e-06
6.10337e-06
6.10359e-06
6.1038e-06
6.10401e-06
6.09915e-06
6.09922e-06
6.0994e-06
6.09977e-06
6.10011e-06
6.10046e-06
6.10083e-06
6.10119e-06
6.10153e-06
6.10185e-06
6.10215e-06
6.10244e-06
6.10272e-06
6.10297e-06
6.10322e-06
6.10346e-06
6.10369e-06
6.10392e-06
6.10413e-06
6.09899e-06
6.09909e-06
6.0993e-06
6.09969e-06
6.10005e-06
6.10041e-06
6.1008e-06
6.10117e-06
6.10152e-06
6.10186e-06
6.10218e-06
6.10248e-06
6.10276e-06
6.10303e-06
6.10329e-06
6.10354e-06
6.10379e-06
6.10402e-06
6.10426e-06
6.09882e-06
6.09895e-06
6.09919e-06
6.09961e-06
6.09998e-06
6.10036e-06
6.10077e-06
6.10114e-06
6.10151e-06
6.10186e-06
6.10219e-06
6.1025e-06
6.1028e-06
6.10308e-06
6.10336e-06
6.10362e-06
6.10387e-06
6.10412e-06
6.10437e-06
6.09864e-06
6.0988e-06
6.09907e-06
6.09951e-06
6.0999e-06
6.1003e-06
6.10072e-06
6.10111e-06
6.10149e-06
6.10185e-06
6.1022e-06
6.10252e-06
6.10283e-06
6.10312e-06
6.10341e-06
6.10368e-06
6.10395e-06
6.10421e-06
6.10447e-06
6.10473e-06
6.09845e-06
6.09865e-06
6.09894e-06
6.0994e-06
6.0998e-06
6.10022e-06
6.10066e-06
6.10106e-06
6.10146e-06
6.10183e-06
6.10219e-06
6.10252e-06
6.10284e-06
6.10315e-06
6.10344e-06
6.10373e-06
6.10401e-06
6.10429e-06
6.10456e-06
6.10483e-06
6.09826e-06
6.09848e-06
6.0988e-06
6.09928e-06
6.0997e-06
6.10014e-06
6.10058e-06
6.10101e-06
6.10141e-06
6.1018e-06
6.10216e-06
6.10251e-06
6.10284e-06
6.10316e-06
6.10346e-06
6.10376e-06
6.10405e-06
6.10434e-06
6.10462e-06
6.1049e-06
6.09805e-06
6.0983e-06
6.09865e-06
6.09914e-06
6.09958e-06
6.10004e-06
6.1005e-06
6.10093e-06
6.10135e-06
6.10175e-06
6.10212e-06
6.10248e-06
6.10282e-06
6.10315e-06
6.10346e-06
6.10377e-06
6.10407e-06
6.10437e-06
6.10467e-06
6.10496e-06
6.09783e-06
6.09811e-06
6.09849e-06
6.099e-06
6.09945e-06
6.09992e-06
6.1004e-06
6.10084e-06
6.10127e-06
6.10168e-06
6.10206e-06
6.10243e-06
6.10278e-06
6.10311e-06
6.10343e-06
6.10375e-06
6.10406e-06
6.10437e-06
6.10468e-06
6.10499e-06
6.09759e-06
6.0979e-06
6.09831e-06
6.09883e-06
6.09931e-06
6.09979e-06
6.10028e-06
6.10074e-06
6.10118e-06
6.10159e-06
6.10198e-06
6.10235e-06
6.1027e-06
6.10304e-06
6.10338e-06
6.1037e-06
6.10402e-06
6.10434e-06
6.10466e-06
6.10498e-06
6.10531e-06
6.09734e-06
6.09768e-06
6.09811e-06
6.09865e-06
6.09914e-06
6.09964e-06
6.10014e-06
6.10061e-06
6.10105e-06
6.10148e-06
6.10187e-06
6.10224e-06
6.1026e-06
6.10295e-06
6.10328e-06
6.10362e-06
6.10395e-06
6.10428e-06
6.10461e-06
6.10494e-06
6.10528e-06
6.09708e-06
6.09744e-06
6.0979e-06
6.09846e-06
6.09896e-06
6.09947e-06
6.09998e-06
6.10046e-06
6.10091e-06
6.10133e-06
6.10172e-06
6.1021e-06
6.10246e-06
6.10281e-06
6.10315e-06
6.10349e-06
6.10383e-06
6.10417e-06
6.10451e-06
6.10486e-06
6.1052e-06
6.0968e-06
6.09719e-06
6.09767e-06
6.09824e-06
6.09876e-06
6.09929e-06
6.0998e-06
6.10028e-06
6.10073e-06
6.10115e-06
6.10154e-06
6.10192e-06
6.10228e-06
6.10263e-06
6.10298e-06
6.10332e-06
6.10367e-06
6.10401e-06
6.10437e-06
6.10472e-06
6.10508e-06
6.0965e-06
6.09692e-06
6.09742e-06
6.09801e-06
6.09854e-06
6.09907e-06
6.09959e-06
6.10007e-06
6.10051e-06
6.10093e-06
6.10132e-06
6.10169e-06
6.10205e-06
6.1024e-06
6.10275e-06
6.1031e-06
6.10345e-06
6.1038e-06
6.10416e-06
6.10453e-06
6.1049e-06
6.09619e-06
6.09662e-06
6.09714e-06
6.09775e-06
6.09829e-06
6.09883e-06
6.09935e-06
6.09982e-06
6.10026e-06
6.10067e-06
6.10105e-06
6.10142e-06
6.10178e-06
6.10212e-06
6.10247e-06
6.10282e-06
6.10317e-06
6.10353e-06
6.1039e-06
6.10428e-06
6.10466e-06
6.10505e-06
6.09585e-06
6.09631e-06
6.09685e-06
6.09747e-06
6.09802e-06
6.09856e-06
6.09907e-06
6.09953e-06
6.09996e-06
6.10036e-06
6.10074e-06
6.10109e-06
6.10144e-06
6.10178e-06
6.10213e-06
6.10247e-06
6.10283e-06
6.10319e-06
6.10357e-06
6.10395e-06
6.10435e-06
6.10475e-06
6.09549e-06
6.09597e-06
6.09653e-06
6.09716e-06
6.09772e-06
6.09825e-06
6.09875e-06
6.0992e-06
6.09962e-06
6.1e-06
6.10036e-06
6.10071e-06
6.10104e-06
6.10138e-06
6.10171e-06
6.10206e-06
6.10241e-06
6.10278e-06
6.10316e-06
6.10355e-06
6.10396e-06
6.10438e-06
6.09511e-06
6.09561e-06
6.09619e-06
6.09683e-06
6.09738e-06
6.09791e-06
6.09839e-06
6.09882e-06
6.09922e-06
6.09958e-06
6.09993e-06
6.10025e-06
6.10058e-06
6.1009e-06
6.10123e-06
6.10156e-06
6.10191e-06
6.10228e-06
6.10266e-06
6.10307e-06
6.10348e-06
6.10391e-06
6.0947e-06
6.09522e-06
6.09582e-06
6.09646e-06
6.09701e-06
6.09752e-06
6.09799e-06
6.09839e-06
6.09876e-06
6.0991e-06
6.09942e-06
6.09973e-06
6.10003e-06
6.10034e-06
6.10066e-06
6.10099e-06
6.10133e-06
6.1017e-06
6.10208e-06
6.10249e-06
6.10291e-06
6.10335e-06
6.09427e-06
6.09481e-06
6.09542e-06
6.09606e-06
6.0966e-06
6.09709e-06
6.09753e-06
6.09791e-06
6.09825e-06
6.09856e-06
6.09885e-06
6.09913e-06
6.09941e-06
6.0997e-06
6.1e-06
6.10032e-06
6.10066e-06
6.10102e-06
6.1014e-06
6.10181e-06
6.10225e-06
6.1027e-06
6.09381e-06
6.09436e-06
6.09498e-06
6.09562e-06
6.09614e-06
6.09661e-06
6.09701e-06
6.09736e-06
6.09766e-06
6.09793e-06
6.09819e-06
6.09844e-06
6.0987e-06
6.09897e-06
6.09925e-06
6.09955e-06
6.09988e-06
6.10024e-06
6.10062e-06
6.10104e-06
6.10148e-06
6.10194e-06
6.09331e-06
6.09389e-06
6.09451e-06
6.09514e-06
6.09564e-06
6.09607e-06
6.09644e-06
6.09674e-06
6.097e-06
6.09723e-06
6.09745e-06
6.09767e-06
6.0979e-06
6.09814e-06
6.0984e-06
6.09869e-06
6.09901e-06
6.09936e-06
6.09974e-06
6.10016e-06
6.1006e-06
6.10107e-06
6.10155e-06
6.09279e-06
6.09337e-06
6.094e-06
6.09461e-06
6.09508e-06
6.09547e-06
6.0958e-06
6.09605e-06
6.09626e-06
6.09645e-06
6.09663e-06
6.09681e-06
6.097e-06
6.09722e-06
6.09746e-06
6.09773e-06
6.09803e-06
6.09838e-06
6.09876e-06
6.09917e-06
6.09962e-06
6.1001e-06
6.10059e-06
6.09223e-06
6.09282e-06
6.09345e-06
6.09404e-06
6.09447e-06
6.09482e-06
6.09509e-06
6.09528e-06
6.09544e-06
6.09558e-06
6.09571e-06
6.09585e-06
6.09601e-06
6.09619e-06
6.09641e-06
6.09666e-06
6.09695e-06
6.09728e-06
6.09766e-06
6.09807e-06
6.09852e-06
6.099e-06
6.0995e-06
6.09163e-06
6.09224e-06
6.09285e-06
6.09341e-06
6.0938e-06
6.0941e-06
6.0943e-06
6.09444e-06
6.09454e-06
6.09462e-06
6.0947e-06
6.09479e-06
6.09491e-06
6.09506e-06
6.09525e-06
6.09548e-06
6.09574e-06
6.09605e-06
6.0964e-06
6.09679e-06
6.09723e-06
6.0977e-06
6.0982e-06
6.091e-06
6.0916e-06
6.09221e-06
6.09272e-06
6.09307e-06
6.0933e-06
6.09344e-06
6.09351e-06
6.09354e-06
6.09357e-06
6.09359e-06
6.09363e-06
6.09371e-06
6.09382e-06
6.09397e-06
6.09414e-06
6.09436e-06
6.09461e-06
6.09491e-06
6.09526e-06
6.09567e-06
6.09612e-06
6.09661e-06
6.09032e-06
6.09093e-06
6.09151e-06
6.09198e-06
6.09227e-06
6.09244e-06
6.0925e-06
6.0925e-06
6.09246e-06
6.09241e-06
6.09238e-06
6.09237e-06
6.09239e-06
6.09244e-06
6.09251e-06
6.0926e-06
6.09273e-06
6.0929e-06
6.09313e-06
6.09343e-06
6.09379e-06
6.09421e-06
6.09468e-06
6.0896e-06
6.0902e-06
6.09075e-06
6.09117e-06
6.0914e-06
6.09149e-06
6.09147e-06
6.0914e-06
6.09129e-06
6.09116e-06
6.09106e-06
6.09099e-06
6.09092e-06
6.09086e-06
6.09082e-06
6.0908e-06
6.09083e-06
6.09092e-06
6.09108e-06
6.09132e-06
6.09164e-06
6.09202e-06
6.09246e-06
6.08883e-06
6.08942e-06
6.08994e-06
6.0903e-06
6.09046e-06
6.09046e-06
6.09037e-06
6.09021e-06
6.09001e-06
6.08981e-06
6.08964e-06
6.08946e-06
6.08926e-06
6.08907e-06
6.0889e-06
6.08878e-06
6.08874e-06
6.08876e-06
6.08887e-06
6.08907e-06
6.08935e-06
6.0897e-06
6.0901e-06
6.08801e-06
6.08858e-06
6.08906e-06
6.08935e-06
6.08944e-06
6.08936e-06
6.08918e-06
6.08894e-06
6.08863e-06
6.08836e-06
6.08808e-06
6.08775e-06
6.08741e-06
6.08709e-06
6.08683e-06
6.08665e-06
6.08655e-06
6.08654e-06
6.08661e-06
6.08678e-06
6.08702e-06
6.08734e-06
6.08772e-06
6.08814e-06
6.08713e-06
6.08768e-06
6.0881e-06
6.08833e-06
6.08835e-06
6.08816e-06
6.08791e-06
6.08756e-06
6.08716e-06
6.08681e-06
6.08636e-06
6.08587e-06
6.08541e-06
6.08501e-06
6.0847e-06
6.08447e-06
6.08433e-06
6.08428e-06
6.08431e-06
6.08444e-06
6.08464e-06
6.08493e-06
6.08529e-06
6.08568e-06
6.08619e-06
6.08671e-06
6.08708e-06
6.08723e-06
6.08716e-06
6.08689e-06
6.08656e-06
6.08608e-06
6.08563e-06
6.08514e-06
6.08451e-06
6.08389e-06
6.08335e-06
6.0829e-06
6.08253e-06
6.08224e-06
6.08203e-06
6.08191e-06
6.08188e-06
6.08195e-06
6.08211e-06
6.08236e-06
6.08269e-06
6.08307e-06
6.08533e-06
6.08583e-06
6.08613e-06
6.0862e-06
6.08604e-06
6.08565e-06
6.08521e-06
6.08453e-06
6.08399e-06
6.08313e-06
6.08239e-06
6.08175e-06
6.08121e-06
6.08074e-06
6.08035e-06
6.08003e-06
6.07978e-06
6.07962e-06
6.07955e-06
6.07958e-06
6.0797e-06
6.07991e-06
6.08021e-06
6.08056e-06
6.08459e-06
6.08505e-06
6.08529e-06
6.08526e-06
6.08499e-06
6.08446e-06
6.08384e-06
6.08293e-06
6.0822e-06
6.08079e-06
6.07993e-06
6.07933e-06
6.07886e-06
6.07845e-06
6.0781e-06
6.07781e-06
6.07759e-06
6.07745e-06
6.07739e-06
6.07741e-06
6.07751e-06
6.0777e-06
6.07796e-06
6.07828e-06
6.08378e-06
6.0842e-06
6.08436e-06
6.08424e-06
6.08384e-06
6.08317e-06
6.08237e-06
6.08123e-06
6.08025e-06
6.07828e-06
6.07732e-06
6.07679e-06
6.07638e-06
6.07606e-06
6.07578e-06
6.07554e-06
6.07536e-06
6.07525e-06
6.0752e-06
6.07523e-06
6.07532e-06
6.0755e-06
6.07573e-06
6.076e-06
6.08288e-06
6.08325e-06
6.08334e-06
6.08311e-06
6.08259e-06
6.08177e-06
6.08078e-06
6.07941e-06
6.07814e-06
6.07572e-06
6.07474e-06
6.07429e-06
6.07399e-06
6.07375e-06
6.07354e-06
6.07335e-06
6.07321e-06
6.07312e-06
6.07308e-06
6.07309e-06
6.07317e-06
6.07331e-06
6.0735e-06
6.07373e-06
6.08188e-06
6.0822e-06
6.0822e-06
6.08187e-06
6.08123e-06
6.08028e-06
6.07909e-06
6.07751e-06
6.07589e-06
6.07333e-06
6.07242e-06
6.07208e-06
6.07187e-06
6.07171e-06
6.07157e-06
6.07144e-06
6.07134e-06
6.07128e-06
6.07125e-06
6.07126e-06
6.0713e-06
6.07139e-06
6.0715e-06
6.07165e-06
6.08077e-06
6.08103e-06
6.08095e-06
6.08052e-06
6.07977e-06
6.07868e-06
6.07732e-06
6.07555e-06
6.0736e-06
6.07141e-06
6.07071e-06
6.07049e-06
6.0704e-06
6.07036e-06
6.07034e-06
6.07033e-06
6.07035e-06
6.07038e-06
6.07043e-06
6.07047e-06
6.0705e-06
6.07053e-06
6.07055e-06
6.07058e-06
6.07954e-06
6.07974e-06
6.07958e-06
6.07906e-06
6.0782e-06
6.07701e-06
6.07549e-06
6.07358e-06
6.07145e-06
6.07028e-06
6.06998e-06
6.07008e-06
6.07028e-06
6.07052e-06
6.07078e-06
6.07105e-06
6.07131e-06
6.07155e-06
6.07175e-06
6.07192e-06
6.07205e-06
6.07212e-06
6.07214e-06
6.07211e-06
6.07817e-06
6.07831e-06
6.07808e-06
6.07748e-06
6.07656e-06
6.0753e-06
6.07366e-06
6.07169e-06
6.0697e-06
6.06995e-06
6.07035e-06
6.07085e-06
6.07139e-06
6.07189e-06
6.07237e-06
6.07282e-06
6.07323e-06
6.0736e-06
6.07393e-06
6.0742e-06
6.07442e-06
6.07458e-06
6.07468e-06
6.07474e-06
6.07475e-06
6.07666e-06
6.07674e-06
6.07645e-06
6.07581e-06
6.07485e-06
6.07358e-06
6.0719e-06
6.07002e-06
6.06864e-06
6.07019e-06
6.07119e-06
6.07202e-06
6.07284e-06
6.07358e-06
6.07424e-06
6.07485e-06
6.07541e-06
6.07591e-06
6.07635e-06
6.07675e-06
6.07708e-06
6.07735e-06
6.07755e-06
6.07769e-06
6.07779e-06
6.07499e-06
6.07501e-06
6.07469e-06
6.07405e-06
6.07312e-06
6.0719e-06
6.07029e-06
6.06876e-06
6.06841e-06
6.07064e-06
6.07203e-06
6.07315e-06
6.07425e-06
6.07521e-06
6.07607e-06
6.07685e-06
6.07755e-06
6.07818e-06
6.07875e-06
6.07925e-06
6.07969e-06
6.08007e-06
6.08039e-06
6.08065e-06
6.08087e-06
6.07314e-06
6.07312e-06
6.07281e-06
6.07222e-06
6.07141e-06
6.07036e-06
6.06896e-06
6.06811e-06
6.06879e-06
6.07072e-06
6.07219e-06
6.07357e-06
6.07499e-06
6.07625e-06
6.07738e-06
6.07841e-06
6.07936e-06
6.08024e-06
6.08105e-06
6.0818e-06
6.08248e-06
6.08307e-06
6.08357e-06
6.08396e-06
6.08427e-06
6.07109e-06
6.07105e-06
6.07081e-06
6.07037e-06
6.06978e-06
6.06903e-06
6.06804e-06
6.06805e-06
6.06892e-06
6.06996e-06
6.0713e-06
6.07288e-06
6.07456e-06
6.07601e-06
6.07726e-06
6.07835e-06
6.07933e-06
6.08023e-06
6.08107e-06
6.0819e-06
6.08273e-06
6.08356e-06
6.08442e-06
6.08525e-06
6.08607e-06
6.06882e-06
6.06879e-06
6.06869e-06
6.06852e-06
6.06828e-06
6.06799e-06
6.06764e-06
6.06788e-06
6.06829e-06
6.06844e-06
6.06983e-06
6.07203e-06
6.07473e-06
6.0774e-06
6.07999e-06
6.08246e-06
6.08481e-06
6.08703e-06
6.0891e-06
6.09101e-06
6.09274e-06
6.09429e-06
6.09564e-06
6.09674e-06
6.09766e-06
)
;

boundaryField
{
    inlet
    {
        type            freestream;
        freestreamValue uniform 1e-05;
        value           nonuniform List<scalar> 
25
(
1e-05
1e-05
1e-05
1e-05
1e-05
1e-05
1e-05
1e-05
1e-05
1e-05
6.06983e-06
6.07203e-06
6.07473e-06
6.0774e-06
6.07999e-06
6.08246e-06
6.08481e-06
6.08703e-06
6.0891e-06
6.09101e-06
6.09274e-06
6.09429e-06
6.09564e-06
6.09674e-06
6.09766e-06
)
;
    }
    outlet
    {
        type            freestream;
        freestreamValue nonuniform List<scalar> 0();
        value           nonuniform List<scalar> 0();
    }
    walls
    {
        type            nutUSpaldingWallFunction;
        value           nonuniform List<scalar> 0();
    }
    frontAndBack
    {
        type            empty;
    }
    procBoundary4to0
    {
        type            processor;
        value           nonuniform List<scalar> 
72
(
6.10428e-06
6.10419e-06
6.10399e-06
6.10372e-06
6.10345e-06
6.10318e-06
6.10291e-06
6.10262e-06
6.10234e-06
6.10206e-06
6.1018e-06
6.10158e-06
6.10137e-06
6.10118e-06
6.10101e-06
6.10085e-06
6.10069e-06
6.10055e-06
6.10041e-06
6.10027e-06
6.10014e-06
6.1e-06
6.1e-06
6.09992e-06
6.09975e-06
6.09957e-06
6.0994e-06
6.09922e-06
6.09904e-06
6.09885e-06
6.09865e-06
6.09844e-06
6.09823e-06
6.098e-06
6.09777e-06
6.09752e-06
6.09726e-06
6.09698e-06
6.09669e-06
6.09639e-06
6.09607e-06
6.09573e-06
6.09536e-06
6.09498e-06
6.09458e-06
6.09415e-06
6.0937e-06
6.09322e-06
6.09271e-06
6.09217e-06
6.0916e-06
6.09099e-06
6.09035e-06
6.08966e-06
6.08894e-06
6.08817e-06
6.08736e-06
6.08649e-06
6.08556e-06
6.08472e-06
6.084e-06
6.0832e-06
6.08232e-06
6.08135e-06
6.08028e-06
6.07909e-06
6.07778e-06
6.07633e-06
6.07472e-06
6.07294e-06
6.07097e-06
6.06878e-06
)
;
    }
    procBoundary4to5
    {
        type            processor;
        value           nonuniform List<scalar> 
95
(
6.10428e-06
6.10442e-06
6.10423e-06
6.10357e-06
6.10357e-06
6.1033e-06
6.10251e-06
6.10251e-06
6.10229e-06
6.10165e-06
6.10165e-06
6.10119e-06
6.10119e-06
6.10088e-06
6.10076e-06
6.10076e-06
6.10077e-06
6.10077e-06
6.10086e-06
6.10098e-06
6.10098e-06
6.10115e-06
6.10127e-06
6.10127e-06
6.10146e-06
6.10159e-06
6.10159e-06
6.10181e-06
6.10194e-06
6.10208e-06
6.10208e-06
6.10231e-06
6.10245e-06
6.10259e-06
6.10259e-06
6.10286e-06
6.103e-06
6.10315e-06
6.10315e-06
6.10344e-06
6.10358e-06
6.10373e-06
6.10373e-06
6.10406e-06
6.1042e-06
6.10435e-06
6.10448e-06
6.10461e-06
6.10461e-06
6.10497e-06
6.10509e-06
6.10518e-06
6.10525e-06
6.10529e-06
6.10529e-06
6.10562e-06
6.10561e-06
6.10555e-06
6.10544e-06
6.10528e-06
6.10528e-06
6.10544e-06
6.10515e-06
6.10479e-06
6.10434e-06
6.1038e-06
6.10315e-06
6.1024e-06
6.1024e-06
6.10202e-06
6.10107e-06
6.09999e-06
6.0987e-06
6.09712e-06
6.09517e-06
6.09293e-06
6.09055e-06
6.09055e-06
6.08857e-06
6.08609e-06
6.08347e-06
6.08094e-06
6.07862e-06
6.0763e-06
6.07398e-06
6.07182e-06
6.0706e-06
6.07206e-06
6.07206e-06
6.07473e-06
6.07783e-06
6.08105e-06
6.08448e-06
6.08691e-06
6.09835e-06
)
;
    }
}


// ************************************************************************* //
