/*--------------------------------*- C++ -*----------------------------------*\
| =========                 |                                                 |
| \\      /  F ield         | OpenFOAM: The Open Source CFD Toolbox           |
|  \\    /   O peration     | Version:  2506                                  |
|   \\  /    A nd           | Website:  www.openfoam.com                      |
|    \\/     M anipulation  |                                                 |
\*---------------------------------------------------------------------------*/
FoamFile
{
    version     2.0;
    format      ascii;
    arch        "LSB;label=32;scalar=64";
    class       volSymmTensorField;
    location    "250";
    object      turbulenceProperties:devReff;
}
// * * * * * * * * * * * * * * * * * * * * * * * * * * * * * * * * * * * * * //

dimensions      [0 2 -2 0 0 0 0];

internalField   nonuniform List<symmTensor> 
1340
(
(7.13507e-05 -9.16813e-05 3.42169e-21 -7.1399e-05 7.82431e-22 4.82591e-08)
(5.50569e-05 -0.000103324 5.46822e-20 -5.50198e-05 4.39735e-20 -3.7123e-08)
(3.63556e-05 -0.000111996 -2.21735e-20 -3.63589e-05 -1.69139e-20 3.37906e-09)
(5.99171e-05 -7.84663e-05 1.57859e-20 -5.99638e-05 1.16946e-20 4.67105e-08)
(4.6218e-05 -8.82609e-05 -1.18467e-20 -4.62067e-05 -9.26715e-21 -1.13272e-08)
(3.05111e-05 -9.56216e-05 -3.49211e-20 -3.05371e-05 -2.37979e-20 2.60496e-08)
(1.37925e-05 -9.99056e-05 2.34284e-19 -1.38222e-05 1.70767e-19 2.96788e-08)
(-4.05455e-06 -0.000100973 -5.43304e-20 4.04343e-06 -4.22433e-20 1.11166e-08)
(5.06036e-05 -6.76335e-05 6.68139e-21 -5.0632e-05 5.20117e-21 2.84392e-08)
(3.89816e-05 -7.59236e-05 -2.66061e-20 -3.89662e-05 -1.74541e-20 -1.54158e-08)
(2.56667e-05 -8.21963e-05 -1.17726e-19 -2.56816e-05 -7.83481e-20 1.48353e-08)
(1.1514e-05 -8.59226e-05 -1.09191e-20 -1.1524e-05 -1.14104e-20 1.00437e-08)
(-3.60987e-06 -8.69928e-05 -1.69827e-20 3.61531e-06 -5.95543e-21 -5.43916e-09)
(-1.87177e-05 -8.51821e-05 1.52964e-19 1.87114e-05 9.75445e-20 6.27725e-09)
(-3.30361e-05 -8.05508e-05 2.20147e-20 3.30223e-05 2.39051e-20 1.38332e-08)
(4.29194e-05 -5.86335e-05 -1.49598e-20 -4.29403e-05 -8.01404e-21 2.08739e-08)
(3.29725e-05 -6.56831e-05 -8.91127e-20 -3.29616e-05 -5.62616e-20 -1.08793e-08)
(2.15957e-05 -7.10378e-05 3.55589e-20 -2.16097e-05 2.45551e-20 1.39506e-08)
(9.52574e-06 -7.42581e-05 2.63698e-20 -9.53434e-06 1.61797e-20 8.59299e-09)
(-3.38616e-06 -7.52627e-05 1.0748e-19 3.38718e-06 6.67012e-20 -1.0243e-09)
(-1.63133e-05 -7.38638e-05 -1.55634e-19 1.6303e-05 -1.05694e-19 1.03049e-08)
(-2.8618e-05 -7.01019e-05 2.00208e-19 2.86025e-05 1.01506e-19 1.55582e-08)
(-3.99824e-05 -6.4088e-05 -5.18989e-19 3.99741e-05 -2.88051e-19 8.29942e-09)
(3.65447e-05 -5.10858e-05 2.5529e-20 -3.65605e-05 1.52533e-20 1.58614e-08)
(2.79692e-05 -5.7108e-05 2.30659e-20 -2.79591e-05 1.44564e-20 -1.01298e-08)
(1.81819e-05 -6.16897e-05 7.58753e-21 -1.81938e-05 6.02978e-21 1.19273e-08)
(7.81844e-06 -6.44672e-05 -1.28173e-20 -7.82237e-06 -8.18404e-21 3.9303e-09)
(-3.27136e-06 -6.5382e-05 9.67752e-20 3.27578e-06 5.14035e-20 -4.42335e-09)
(-1.43886e-05 -6.42718e-05 -8.3022e-20 1.43823e-05 -4.64482e-20 6.21912e-09)
(-2.50074e-05 -6.11691e-05 -2.59242e-19 2.49984e-05 -1.5009e-19 9.0088e-09)
(-3.4874e-05 -5.61608e-05 2.77044e-19 3.48721e-05 1.9087e-19 1.92567e-09)
(-4.35353e-05 -4.95046e-05 9.18434e-20 4.35242e-05 5.80502e-20 1.10772e-08)
(3.1217e-05 -4.47026e-05 -4.33566e-21 -3.12297e-05 -1.16924e-21 1.27385e-08)
(2.37805e-05 -4.98655e-05 -1.2383e-20 -2.37718e-05 -6.06716e-21 -8.69462e-09)
(1.53085e-05 -5.37914e-05 -4.98391e-20 -1.53201e-05 -2.69234e-20 1.1646e-08)
(6.35542e-06 -5.61821e-05 2.37021e-20 -6.35729e-06 1.04723e-20 1.87061e-09)
(-3.21828e-06 -5.69938e-05 -7.50747e-20 3.22199e-06 -4.49611e-20 -3.70773e-09)
(-1.28257e-05 -5.60846e-05 1.75304e-19 1.28189e-05 1.00638e-19 6.72176e-09)
(-2.20211e-05 -5.34879e-05 -9.98873e-21 2.20135e-05 1.73586e-20 7.55884e-09)
(-3.0599e-05 -4.92757e-05 9.678e-20 3.05973e-05 1.91545e-20 1.64366e-09)
(-3.81893e-05 -4.36508e-05 7.59358e-20 3.81807e-05 1.93347e-20 8.59169e-09)
(2.67424e-05 -3.92647e-05 -5.32086e-20 -2.67507e-05 -2.919e-20 8.30311e-09)
(2.02601e-05 -4.37025e-05 8.14305e-20 -2.02528e-05 4.31503e-20 -7.32887e-09)
(1.28853e-05 -4.70737e-05 -6.08412e-20 -1.28959e-05 -3.06339e-20 1.05313e-08)
(5.11489e-06 -4.91296e-05 3.45482e-20 -5.11397e-06 1.27423e-20 -9.191e-10)
(-3.18907e-06 -4.98346e-05 -2.02128e-19 3.19209e-06 -9.96009e-20 -3.02355e-09)
(-1.15265e-05 -4.90707e-05 1.1095e-19 1.15227e-05 5.00682e-20 3.80923e-09)
(-1.95175e-05 -4.68694e-05 2.74289e-19 1.95129e-05 1.28504e-19 4.63872e-09)
(-2.69966e-05 -4.32904e-05 -3.89519e-19 2.69958e-05 -1.99857e-19 8.81674e-10)
(-3.36541e-05 -3.85e-05 -1.91156e-19 3.36492e-05 -8.45485e-20 4.92801e-09)
(-3.92999e-05 -3.26532e-05 1.60876e-19 3.92957e-05 6.56888e-20 4.2207e-09)
(2.29639e-05 -3.46018e-05 2.71275e-20 -2.2969e-05 1.30735e-20 5.12551e-09)
(1.72863e-05 -3.84249e-05 1.41092e-20 -1.72816e-05 8.0143e-21 -4.67003e-09)
(1.0838e-05 -4.13258e-05 4.01704e-20 -1.08464e-05 2.01799e-20 8.43157e-09)
(4.06402e-06 -4.30898e-05 -1.16339e-19 -4.06349e-06 -5.74339e-20 -5.39473e-10)
(-3.1706e-06 -4.36917e-05 2.19137e-19 3.17359e-06 1.09942e-19 -2.98907e-09)
(-1.0434e-05 -4.30328e-05 -4.14322e-19 1.04302e-05 -1.98061e-19 3.72106e-09)
(-1.73969e-05 -4.11447e-05 -1.71892e-19 1.73937e-05 -8.10938e-20 3.12693e-09)
(-2.39322e-05 -3.8074e-05 2.20002e-19 2.39317e-05 1.28525e-19 5.30451e-10)
(-2.97772e-05 -3.39628e-05 1.12779e-19 2.97723e-05 5.57813e-20 4.85906e-09)
(-3.47687e-05 -2.89428e-05 -1.04811e-19 3.47645e-05 -6.40824e-20 4.11038e-09)
(-3.87913e-05 -2.31468e-05 -2.93658e-20 3.8788e-05 -1.17966e-20 3.24184e-09)
(1.97625e-05 -3.05771e-05 -2.85199e-20 -1.97662e-05 -1.25304e-20 3.68014e-09)
(1.47671e-05 -3.38801e-05 -2.16825e-20 -1.4763e-05 -1.12957e-20 -4.06755e-09)
(9.1088e-06 -3.63796e-05 6.99465e-20 -9.11646e-06 3.30622e-20 7.66211e-09)
(3.17805e-06 -3.78903e-05 1.71691e-20 -3.17675e-06 8.78422e-21 -1.30504e-09)
(-3.14781e-06 -3.83976e-05 1.00927e-19 3.15033e-06 4.63654e-20 -2.51945e-09)
(-9.49552e-06 -3.78155e-05 5.86393e-19 9.49246e-06 2.85086e-19 3.05907e-09)
(-1.55827e-05 -3.61767e-05 1.01152e-19 1.55795e-05 4.6203e-20 3.20933e-09)
(-2.13035e-05 -3.35217e-05 9.82407e-20 2.13037e-05 2.90556e-20 -2.44284e-10)
(-2.64372e-05 -2.99732e-05 -7.98681e-20 2.64342e-05 -3.72805e-20 3.00518e-09)
(-3.08525e-05 -2.56357e-05 -6.98674e-20 3.08495e-05 -2.53961e-20 3.05392e-09)
(-3.44504e-05 -2.06209e-05 -6.05411e-20 3.44485e-05 -2.37104e-20 1.89961e-09)
(1.70365e-05 -2.70869e-05 2.32688e-20 -1.70395e-05 9.41593e-21 2.96356e-09)
(1.26269e-05 -2.9948e-05 7.5126e-20 -1.26227e-05 3.3707e-20 -4.22612e-09)
(7.64387e-06 -3.21016e-05 7.86616e-20 -7.65157e-06 3.52314e-20 7.70195e-09)
(2.43365e-06 -3.33955e-05 -1.17183e-19 -2.4314e-06 -5.49647e-20 -2.25004e-09)
(-3.11499e-06 -3.38154e-05 -1.961e-19 3.11715e-06 -9.25907e-20 -2.15728e-09)
(-8.6789e-06 -3.32925e-05 -1.29701e-19 8.67661e-06 -7.37573e-20 2.29385e-09)
(-1.40137e-05 -3.1855e-05 -1.34969e-19 1.40117e-05 -5.72755e-20 1.96699e-09)
(-1.90336e-05 -2.95418e-05 -7.79268e-20 1.90341e-05 -4.1506e-20 -4.39096e-10)
(-2.35491e-05 -2.64578e-05 1.28968e-19 2.35464e-05 6.01416e-20 2.71364e-09)
(-2.74512e-05 -2.26918e-05 -5.89903e-21 2.74491e-05 -2.99822e-21 2.01462e-09)
(-3.06589e-05 -1.83342e-05 2.45701e-20 3.06568e-05 1.2513e-20 2.19077e-09)
(-3.30785e-05 -1.35131e-05 -6.71789e-20 3.30756e-05 -3.07126e-20 2.98012e-09)
(1.47077e-05 -2.4048e-05 -8.81758e-21 -1.47093e-05 -2.88165e-21 1.55195e-09)
(1.08038e-05 -2.65291e-05 -7.16637e-20 -1.0801e-05 -3.12727e-20 -2.79323e-09)
(6.40174e-06 -2.83875e-05 -8.16779e-20 -6.40833e-06 -3.66006e-20 6.58936e-09)
(1.81075e-06 -2.94929e-05 -1.60256e-20 -1.80864e-06 -4.09218e-21 -2.11191e-09)
(-3.07085e-06 -2.98356e-05 6.25918e-20 3.07292e-06 2.75316e-20 -2.06628e-09)
(-7.96108e-06 -2.93564e-05 -4.89652e-20 7.95862e-06 -1.95493e-20 2.45905e-09)
(-1.26482e-05 -2.80852e-05 2.28623e-19 1.2647e-05 1.01224e-19 1.18256e-09)
(-1.70589e-05 -2.60564e-05 -1.76098e-19 1.70594e-05 -7.23092e-20 -4.56286e-10)
(-2.10335e-05 -2.33614e-05 -2.33648e-20 2.10315e-05 -1.62121e-20 2.01108e-09)
(-2.44813e-05 -2.00763e-05 -6.43711e-20 2.44803e-05 -1.13764e-20 1.06785e-09)
(-2.73365e-05 -1.62761e-05 6.71972e-20 2.7336e-05 4.64599e-21 5.47022e-10)
(-2.95192e-05 -1.20672e-05 -1.21646e-19 2.95181e-05 -2.69774e-20 1.0396e-09)
(1.27137e-05 -2.13907e-05 -4.42605e-20 -1.27144e-05 -1.81984e-20 6.86754e-10)
(9.24786e-06 -2.35453e-05 3.88166e-20 -9.24524e-06 1.54256e-20 -2.61621e-09)
(5.34821e-06 -2.51498e-05 -1.33195e-20 -5.35456e-06 -5.11805e-21 6.34786e-09)
(1.29158e-06 -2.60927e-05 -2.95313e-20 -1.28914e-06 -1.05877e-20 -2.44468e-09)
(-3.01385e-06 -2.63667e-05 -9.81434e-20 3.01524e-06 -4.18667e-20 -1.39425e-09)
(-7.32259e-06 -2.5922e-05 -7.79315e-20 7.32046e-06 -2.87347e-20 2.12606e-09)
(-1.14484e-05 -2.47891e-05 1.0088e-19 1.14475e-05 3.98639e-20 9.75403e-10)
(-1.53317e-05 -2.29984e-05 5.06059e-20 1.53318e-05 2.60448e-20 -7.40965e-11)
(-1.88349e-05 -2.06303e-05 -8.17691e-20 1.88327e-05 -3.09441e-20 2.23206e-09)
(-2.18821e-05 -1.77515e-05 2.83404e-19 2.18808e-05 1.08838e-19 1.30962e-09)
(-2.44197e-05 -1.44242e-05 -3.58048e-19 2.44189e-05 -1.35285e-19 8.04949e-10)
(-2.63812e-05 -1.07363e-05 3.65677e-19 2.63795e-05 1.3416e-19 1.67535e-09)
(-2.77144e-05 -6.76833e-06 -3.16163e-19 2.77129e-05 -7.72867e-20 1.46995e-09)
(1.10007e-05 -1.90587e-05 -2.93208e-21 -1.10007e-05 -1.18485e-21 5.76444e-11)
(7.91661e-06 -2.09327e-05 -5.4361e-20 -7.91452e-06 -2.11625e-20 -2.0978e-09)
(4.45437e-06 -2.23176e-05 1.01704e-20 -4.46012e-06 4.79541e-21 5.74815e-09)
(8.62056e-07 -2.31207e-05 4.28527e-20 -8.59243e-07 1.79188e-20 -2.81303e-09)
(-2.94452e-06 -2.33344e-05 3.75211e-20 2.94575e-06 1.6594e-20 -1.224e-09)
(-6.74914e-06 -2.29179e-05 1.26822e-19 6.74738e-06 5.42803e-20 1.75727e-09)
(-1.0387e-05 -2.19019e-05 1.9807e-19 1.03864e-05 6.88008e-20 5.71445e-10)
(-1.38103e-05 -2.03128e-05 8.79164e-20 1.3811e-05 2.6816e-20 -7.0635e-10)
(-1.69008e-05 -1.82228e-05 -1.12083e-19 1.68994e-05 -3.17246e-20 1.38639e-09)
(-1.95943e-05 -1.56894e-05 -4.67238e-21 1.95934e-05 -1.61847e-20 9.06816e-10)
(-2.18475e-05 -1.27655e-05 1.61373e-20 2.18467e-05 3.72948e-20 7.48993e-10)
(-2.36033e-05 -9.52734e-06 -8.92263e-20 2.36023e-05 -5.6821e-20 9.98506e-10)
(-2.482e-05 -6.0364e-06 3.16645e-19 2.48185e-05 1.28437e-19 1.43236e-09)
(9.52654e-06 -1.70058e-05 1.19221e-20 -9.52601e-06 5.16562e-21 -5.23676e-10)
(6.77637e-06 -1.86369e-05 -9.21162e-20 -6.77477e-06 -3.39166e-20 -1.59567e-09)
(3.69446e-06 -1.98332e-05 9.27236e-20 -3.69973e-06 3.49454e-20 5.27289e-09)
(5.07405e-07 -2.05154e-05 -5.28567e-20 -5.04871e-07 -2.07126e-20 -2.53417e-09)
(-2.86499e-06 -2.06764e-05 -4.98091e-20 2.86594e-06 -1.9515e-20 -9.51838e-10)
(-6.23023e-06 -2.02841e-05 1.38083e-19 6.22877e-06 4.90702e-20 1.46422e-09)
(-9.44439e-06 -1.93665e-05 -1.82362e-19 9.4437e-06 -8.08532e-20 6.90082e-10)
(-1.24667e-05 -1.79495e-05 -5.38334e-20 1.24671e-05 -1.92199e-20 -4.6665e-10)
(-1.51947e-05 -1.6097e-05 2.86172e-19 1.51935e-05 9.7426e-20 1.15344e-09)
(-1.75756e-05 -1.38599e-05 -1.09057e-19 1.75753e-05 -4.11345e-20 3.25299e-10)
(-1.9574e-05 -1.12828e-05 3.77256e-19 1.9574e-05 1.1281e-19 -3.15866e-11)
(-2.11428e-05 -8.43027e-06 -2.03487e-19 2.1142e-05 -6.10469e-20 7.55042e-10)
(-2.22451e-05 -5.35393e-06 3.10905e-20 2.22447e-05 -3.29689e-20 4.11814e-10)
(-2.28481e-05 -2.11597e-06 4.68069e-20 2.28477e-05 1.31764e-20 3.90491e-10)
(8.25491e-06 -1.51936e-05 3.81028e-20 -8.25439e-06 1.40709e-20 -5.21406e-10)
(5.79808e-06 -1.66144e-05 -5.20125e-20 -5.79683e-06 -1.78961e-20 -1.24858e-09)
(3.05044e-06 -1.7648e-05 -1.23281e-20 -3.05481e-06 -5.32337e-21 4.36864e-09)
(2.17325e-07 -1.82251e-05 -8.66011e-20 -2.15363e-07 -3.24462e-20 -1.96223e-09)
(-2.77608e-06 -1.83413e-05 -1.33423e-19 2.77709e-06 -4.4798e-20 -1.00227e-09)
(-5.75783e-06 -1.79694e-05 1.27151e-19 5.75618e-06 3.7627e-20 1.64605e-09)
(-8.60112e-06 -1.71374e-05 -2.24129e-19 8.60078e-06 -7.46946e-20 3.45961e-10)
(-1.12725e-05 -1.58679e-05 -1.0511e-19 1.12727e-05 -3.70599e-20 -2.03093e-10)
(-1.36836e-05 -1.42191e-05 -2.91369e-19 1.36824e-05 -1.04471e-19 1.20687e-09)
(-1.57889e-05 -1.22359e-05 -7.95627e-20 1.57882e-05 -3.15887e-20 7.46663e-10)
(-1.756e-05 -9.95768e-06 -3.80089e-19 1.75596e-05 -1.46201e-19 4.31269e-10)
(-1.89566e-05 -7.43952e-06 9.83167e-20 1.89559e-05 5.03101e-20 7.33476e-10)
(-1.995e-05 -4.724e-06 -5.26584e-19 1.99498e-05 -1.46558e-19 2.15002e-10)
(-2.05115e-05 -1.8619e-06 9.24544e-20 2.05116e-05 4.93406e-20 -1.22343e-10)
(7.15619e-06 -1.359e-05 -2.75919e-20 -7.15547e-06 -9.3384e-21 -7.13977e-10)
(4.95765e-06 -1.48282e-05 5.64724e-20 -4.95658e-06 2.04935e-20 -1.07256e-09)
(2.50473e-06 -1.57209e-05 9.99413e-21 -2.50865e-06 2.89012e-21 3.92281e-09)
(-1.83364e-08 -1.62077e-05 -1.83129e-19 2.04168e-08 -6.12186e-20 -2.08041e-09)
(-2.679e-06 -1.62855e-05 2.06297e-19 2.67994e-06 7.2031e-20 -9.48153e-10)
(-5.32477e-06 -1.5932e-05 -2.86755e-19 5.32353e-06 -1.03732e-19 1.23522e-09)
(-7.84398e-06 -1.5174e-05 2.48318e-19 7.84368e-06 9.0653e-20 3.00871e-10)
(-1.02078e-05 -1.40327e-05 -4.19524e-20 1.02084e-05 -1.03819e-20 -5.24408e-10)
(-1.23394e-05 -1.25606e-05 2.21318e-19 1.23384e-05 8.22308e-20 9.96049e-10)
(-1.42009e-05 -1.07979e-05 -1.68204e-19 1.42007e-05 -5.68575e-20 1.37831e-10)
(-1.57696e-05 -8.77822e-06 -1.41917e-19 1.57695e-05 -1.50673e-20 1.04139e-10)
(-1.70122e-05 -6.54797e-06 2.45519e-19 1.70115e-05 8.20795e-20 7.10271e-10)
(-1.79035e-05 -4.14593e-06 4.25602e-19 1.79031e-05 1.52255e-19 4.39612e-10)
(-1.84193e-05 -1.61217e-06 2.91012e-19 1.84193e-05 7.22223e-20 -1.9684e-11)
(6.20538e-06 -1.21678e-05 2.7479e-20 -6.20437e-06 9.09201e-21 -1.0111e-09)
(4.23503e-06 -1.32475e-05 -2.77353e-20 -4.23423e-06 -8.41659e-21 -8.02347e-10)
(2.04219e-06 -1.40177e-05 1.78488e-20 -2.04588e-06 6.039e-21 3.69276e-09)
(-2.08405e-07 -1.44269e-05 1.26127e-20 2.10356e-07 7.06307e-21 -1.95167e-09)
(-2.57663e-06 -1.44718e-05 -1.39422e-19 2.5773e-06 -4.94581e-20 -6.68958e-10)
(-4.92724e-06 -1.41351e-05 -1.59737e-19 4.92597e-06 -4.74256e-20 1.26776e-09)
(-7.16173e-06 -1.34418e-05 -1.16073e-19 7.16152e-06 -3.95809e-20 2.03374e-10)
(-9.25517e-06 -1.24127e-05 -3.51608e-20 9.25545e-06 -4.56281e-21 -2.79855e-10)
(-1.11414e-05 -1.10937e-05 1.07292e-20 1.11404e-05 3.97612e-21 9.9235e-10)
(-1.2788e-05 -9.52228e-06 -2.70658e-21 1.27875e-05 5.69137e-21 4.11335e-10)
(-1.4176e-05 -7.72746e-06 2.72877e-19 1.41758e-05 8.67287e-20 2.22738e-10)
(-1.52784e-05 -5.74983e-06 5.0749e-20 1.52783e-05 -4.98341e-21 2.49256e-11)
(-1.60748e-05 -3.62092e-06 -1.01329e-19 1.60744e-05 -4.44423e-20 4.15562e-10)
(-1.65442e-05 -1.37503e-06 -7.56348e-20 1.65445e-05 -3.78305e-20 -3.23464e-10)
(-1.66664e-05 9.40171e-07 -4.11096e-19 1.66661e-05 -1.02548e-19 3.15391e-10)
(5.38171e-06 -1.09038e-05 3.70255e-20 -5.38069e-06 1.18465e-20 -1.01745e-09)
(3.61381e-06 -1.18457e-05 8.65451e-20 -3.613e-06 2.83565e-20 -8.14148e-10)
(1.65088e-06 -1.25095e-05 -1.32159e-19 -1.65436e-06 -4.12268e-20 3.47876e-09)
(-3.58784e-07 -1.28518e-05 1.91655e-19 3.60716e-07 6.34066e-20 -1.93182e-09)
(-2.46954e-06 -1.28693e-05 3.2242e-20 2.47015e-06 1.27961e-20 -6.07101e-10)
(-4.5603e-06 -1.25481e-05 2.4649e-19 4.55902e-06 8.36403e-20 1.28434e-09)
(-6.54418e-06 -1.19125e-05 1.89394e-19 6.54427e-06 5.78739e-20 -9.44591e-11)
(-8.39955e-06 -1.09818e-05 1.47978e-19 8.39977e-06 5.07683e-20 -2.20315e-10)
(-1.00695e-05 -9.79722e-06 2.25975e-19 1.00689e-05 6.16735e-20 5.57803e-10)
(-1.15257e-05 -8.3929e-06 -9.89297e-20 1.15255e-05 -3.3017e-20 2.41017e-10)
(-1.27539e-05 -6.7936e-06 -1.19908e-19 1.27539e-05 -5.10793e-20 6.64353e-12)
(-1.37311e-05 -5.03524e-06 -1.58624e-19 1.37307e-05 -4.6269e-20 3.50267e-10)
(-1.44397e-05 -3.14539e-06 1.93618e-19 1.44397e-05 5.08821e-20 4.8455e-11)
(-1.48636e-05 -1.15248e-06 7.1883e-20 1.48638e-05 1.54602e-20 -1.79177e-10)
(-1.49843e-05 9.04381e-07 1.49678e-19 1.49839e-05 6.97329e-20 3.92927e-10)
(4.66724e-06 -9.77834e-06 -7.0459e-20 -4.66626e-06 -2.15336e-20 -9.78872e-10)
(3.07946e-06 -1.06003e-05 -7.22048e-21 -3.07868e-06 -2.33824e-21 -7.77746e-10)
(1.32012e-06 -1.11718e-05 2.18357e-19 -1.32332e-06 6.87424e-20 3.19877e-09)
(-4.7636e-07 -1.14565e-05 -4.456e-21 4.7819e-07 -2.96779e-21 -1.82992e-09)
(-2.35928e-06 -1.14512e-05 -9.68955e-20 2.35993e-06 -2.93022e-20 -6.48189e-10)
(-4.22135e-06 -1.11445e-05 -3.01511e-20 4.2202e-06 -1.61167e-20 1.15488e-09)
(-5.98425e-06 -1.05606e-05 -2.41768e-19 5.9843e-06 -7.80091e-20 -5.39783e-11)
(-7.62988e-06 -9.71637e-06 6.43528e-20 7.63001e-06 2.16764e-20 -1.31329e-10)
(-9.10896e-06 -8.64997e-06 -2.86772e-19 9.10844e-06 -8.72373e-20 5.24116e-10)
(-1.03973e-05 -7.39162e-06 6.38169e-20 1.0397e-05 1.61183e-20 2.91807e-10)
(-1.14829e-05 -5.96432e-06 -1.20896e-19 1.14828e-05 -2.86098e-20 1.81141e-10)
(-1.2347e-05 -4.39848e-06 -2.38909e-20 1.23469e-05 -3.65166e-22 9.39319e-11)
(-1.29761e-05 -2.718e-06 -2.50554e-19 1.29759e-05 -8.69135e-20 1.64319e-10)
(-1.33555e-05 -9.47399e-07 -1.30727e-19 1.33556e-05 -2.64775e-20 -8.27547e-11)
(-1.34698e-05 8.80314e-07 1.55147e-19 1.34699e-05 2.49735e-20 -2.12583e-11)
(4.047e-06 -8.77505e-06 1.38012e-20 -4.04584e-06 4.28022e-21 -1.15902e-09)
(2.61961e-06 -9.49193e-06 -8.84574e-20 -2.6191e-06 -2.67016e-20 -5.06895e-10)
(1.04124e-06 -9.9835e-06 -1.39998e-19 -1.04406e-06 -4.36637e-20 2.81792e-09)
(-5.66412e-07 -1.02186e-05 -2.92457e-20 5.68049e-07 -7.27907e-21 -1.63751e-09)
(-2.24786e-06 -1.01943e-05 1.34328e-19 2.24817e-06 4.04536e-20 -3.19428e-10)
(-3.90719e-06 -9.90183e-06 -1.55508e-19 3.90624e-06 -4.56689e-20 9.46022e-10)
(-5.47475e-06 -9.36428e-06 -1.5189e-20 5.47465e-06 5.10356e-21 9.38409e-11)
(-6.93556e-06 -8.59672e-06 2.79883e-19 6.93564e-06 7.57315e-20 -8.26646e-11)
(-8.24552e-06 -7.63502e-06 2.03107e-19 8.24485e-06 6.23385e-20 6.68309e-10)
(-9.38517e-06 -6.50533e-06 -2.51264e-19 9.38503e-06 -7.45761e-20 1.41996e-10)
(-1.03445e-05 -5.22872e-06 9.78204e-20 1.03442e-05 4.15947e-20 3.50483e-10)
(-1.1108e-05 -3.83176e-06 6.04217e-20 1.11078e-05 1.7942e-20 1.30673e-10)
(-1.16644e-05 -2.33594e-06 -1.90415e-19 1.16642e-05 -2.95433e-20 1.90434e-10)
(-1.20018e-05 -7.60358e-07 1.96473e-19 1.2002e-05 5.38142e-20 -1.75514e-10)
(-1.21075e-05 8.6583e-07 -1.69197e-19 1.21072e-05 -5.57969e-20 2.45215e-10)
(-1.19687e-05 2.51524e-06 1.51285e-19 1.19691e-05 4.60441e-20 -3.61277e-10)
(3.50826e-06 -7.87911e-06 6.66564e-21 -3.50716e-06 1.97985e-21 -1.10246e-09)
(2.22394e-06 -8.50423e-06 1.84707e-21 -2.22347e-06 8.90949e-22 -4.66357e-10)
(8.06791e-07 -8.9264e-06 -4.52395e-20 -8.09367e-07 -1.27237e-20 2.5758e-09)
(-6.32745e-07 -9.11906e-06 3.88973e-20 6.3434e-07 1.21105e-20 -1.59535e-09)
(-2.13549e-06 -9.07914e-06 -9.66507e-20 2.13584e-06 -2.68706e-20 -3.50532e-10)
(-3.61539e-06 -8.80061e-06 2.07443e-19 3.61455e-06 6.24895e-20 8.45074e-10)
(-5.01019e-06 -8.30485e-06 1.33799e-19 5.01025e-06 3.00769e-20 -5.45308e-11)
(-6.30746e-06 -7.60605e-06 -4.67468e-19 6.30764e-06 -1.41144e-19 -1.80924e-10)
(-7.46823e-06 -6.7369e-06 4.84509e-20 7.46767e-06 1.90836e-20 5.60198e-10)
(-8.47635e-06 -5.72109e-06 1.81811e-20 8.4763e-06 1.05967e-20 5.74006e-11)
(-9.32362e-06 -4.57719e-06 2.40602e-19 9.32355e-06 5.91031e-20 7.00659e-11)
(-9.99709e-06 -3.32954e-06 1.57547e-19 9.99698e-06 2.71675e-20 1.12559e-10)
(-1.04878e-05 -1.99516e-06 2.8893e-19 1.04878e-05 8.6828e-20 6.59459e-11)
(-1.07861e-05 -5.92457e-07 -8.78318e-20 1.07863e-05 -2.63981e-20 -1.9503e-10)
(-1.08808e-05 8.55078e-07 -9.94717e-20 1.08808e-05 -1.67516e-20 -2.16111e-11)
(-1.07617e-05 2.32386e-06 2.21939e-19 1.07621e-05 4.38983e-20 -3.63131e-10)
(3.04005e-06 -7.07799e-06 1.98105e-20 -3.03897e-06 5.50013e-21 -1.07853e-09)
(1.88356e-06 -7.62305e-06 1.20422e-19 -1.88313e-06 3.41645e-20 -4.33291e-10)
(6.10276e-07 -7.98485e-06 8.06156e-21 -6.12619e-07 3.05866e-21 2.34345e-09)
(-6.79888e-07 -8.14112e-06 1.12352e-19 6.81329e-07 3.29456e-20 -1.44015e-09)
(-2.02392e-06 -8.08881e-06 2.26261e-20 2.02426e-06 5.68454e-21 -3.4769e-10)
(-3.34445e-06 -7.82363e-06 -1.05289e-19 3.34363e-06 -3.43624e-20 8.22344e-10)
(-4.5863e-06 -7.36585e-06 -2.2901e-19 4.58639e-06 -6.64405e-20 -8.94604e-11)
(-5.73863e-06 -6.72879e-06 -2.26534e-20 5.73887e-06 8.12059e-21 -2.44957e-10)
(-6.76757e-06 -5.94186e-06 1.88741e-19 6.76711e-06 5.34818e-20 4.60356e-10)
(-7.65899e-06 -5.02709e-06 -1.04948e-19 7.65896e-06 -2.97927e-20 3.29828e-11)
(-8.40683e-06 -4.00061e-06 -1.72401e-19 8.40676e-06 -5.49901e-20 7.64323e-11)
(-9.00013e-06 -2.88425e-06 -3.81074e-19 9e-06 -9.99321e-20 1.27711e-10)
(-9.43167e-06 -1.69331e-06 2.10705e-19 9.43159e-06 4.72419e-20 7.69517e-11)
(-9.69368e-06 -4.4279e-07 2.24819e-19 9.69379e-06 4.54142e-20 -1.06193e-10)
(-9.77698e-06 8.46895e-07 -5.90206e-20 9.77701e-06 -1.35035e-20 -3.26966e-11)
(-9.67262e-06 2.15534e-06 -3.93677e-20 9.67278e-06 -7.43391e-21 -1.50974e-10)
(3.48934e-06 -5.7936e-06 -3.19802e-21 -3.48985e-06 -1.1204e-21 5.09431e-10)
(2.63294e-06 -6.36098e-06 6.98274e-21 -2.63187e-06 1.98798e-21 -1.07152e-09)
(1.5909e-06 -6.8359e-06 -7.09942e-20 -1.59056e-06 -1.97672e-20 -3.37075e-10)
(4.46101e-07 -7.14535e-06 -5.27302e-20 -4.48225e-07 -1.39243e-20 2.12436e-09)
(-7.1081e-07 -7.27048e-06 1.35191e-19 7.12127e-07 3.59351e-20 -1.31705e-09)
(-1.91355e-06 -7.20837e-06 -2.08052e-19 1.9138e-06 -5.66955e-20 -2.5258e-10)
(-3.09271e-06 -6.95613e-06 6.31145e-21 3.0919e-06 4.43401e-21 8.05283e-10)
(-4.19894e-06 -6.53301e-06 -5.42221e-20 4.19892e-06 -7.03663e-21 1.98929e-11)
(-5.22287e-06 -5.95139e-06 1.41654e-19 5.22294e-06 3.73823e-20 -6.63097e-11)
(-6.13484e-06 -5.23801e-06 1.11982e-19 6.13428e-06 2.66128e-20 5.61114e-10)
(-6.9229e-06 -4.41311e-06 1.30018e-19 6.92279e-06 3.71443e-20 1.13647e-10)
(-7.58243e-06 -3.49091e-06 7.43299e-21 7.58234e-06 6.6636e-22 9.79358e-11)
(-8.1042e-06 -2.49124e-06 1.15432e-20 8.1041e-06 1.53404e-20 9.90854e-11)
(-8.48278e-06 -1.42688e-06 -3.71697e-20 8.48283e-06 -1.84774e-20 -4.43126e-11)
(-8.71168e-06 -3.10984e-07 -2.58042e-19 8.71183e-06 -6.43055e-20 -1.44894e-10)
(-8.78319e-06 8.38524e-07 -1.0447e-20 8.78325e-06 9.40868e-21 -5.73273e-11)
(-8.68974e-06 2.00446e-06 2.50163e-19 8.68999e-06 4.85935e-20 -2.52269e-10)
(-8.42587e-06 3.16371e-06 2.61948e-20 8.42588e-06 -4.96895e-21 -1.97299e-12)
(3.05268e-06 -5.21971e-06 9.00403e-21 -3.05317e-06 2.39204e-21 4.89543e-10)
(2.27885e-06 -5.7185e-06 -4.69902e-20 -2.27787e-06 -1.23874e-20 -9.8277e-10)
(1.33944e-06 -6.13204e-06 -5.76966e-20 -1.33913e-06 -1.51661e-20 -3.02568e-10)
(3.09685e-07 -6.3961e-06 4.54917e-20 -3.11598e-07 1.25766e-20 1.9131e-09)
(-7.28312e-07 -6.49471e-06 -9.01137e-20 7.29508e-07 -2.39607e-20 -1.19611e-09)
(-1.80507e-06 -6.42504e-06 1.39543e-19 1.80533e-06 3.98374e-20 -2.53774e-10)
(-2.85826e-06 -6.18559e-06 8.31187e-20 2.85758e-06 2.3475e-20 6.78017e-10)
(-3.84394e-06 -5.79436e-06 2.43231e-19 3.84406e-06 6.38988e-20 -1.23489e-10)
(-4.75399e-06 -5.26282e-06 -2.07203e-19 4.75402e-06 -5.77677e-20 -2.88336e-11)
(-5.56244e-06 -4.61537e-06 -1.37216e-20 5.56207e-06 -4.4593e-21 3.79052e-10)
(-6.25912e-06 -3.87059e-06 1.00061e-19 6.25897e-06 1.60487e-20 1.4746e-10)
(-6.84046e-06 -3.04088e-06 -2.11836e-19 6.84039e-06 -4.9109e-20 6.93352e-11)
(-7.29892e-06 -2.14425e-06 2.88242e-20 7.29866e-06 9.09718e-21 2.52293e-10)
(-7.63002e-06 -1.19219e-06 9.65999e-21 7.62987e-06 6.34882e-21 1.51577e-10)
(-7.82855e-06 -1.95972e-07 1.59234e-19 7.82873e-06 4.26886e-20 -1.78371e-10)
(-7.88862e-06 8.28954e-07 1.36783e-19 7.88862e-06 1.73073e-20 3.73261e-12)
(-7.80338e-06 1.86863e-06 -2.4127e-19 7.80365e-06 -5.83934e-20 -2.70555e-10)
(-7.56857e-06 2.90214e-06 -1.3423e-19 7.56866e-06 -1.42771e-20 -9.1751e-11)
(2.67038e-06 -4.70387e-06 -2.28959e-21 -2.6709e-06 -1.12966e-21 5.18181e-10)
(1.97091e-06 -5.14228e-06 4.38014e-21 -1.96997e-06 1.12668e-21 -9.41454e-10)
(1.12355e-06 -5.50215e-06 2.04083e-20 -1.12326e-06 5.80376e-21 -2.91805e-10)
(1.96955e-07 -5.72683e-06 1.52846e-19 -1.98698e-07 4.00023e-20 1.74249e-09)
(-7.3487e-07 -5.80287e-06 4.17576e-20 7.35984e-07 1.05659e-20 -1.11434e-09)
(-1.69926e-06 -5.72765e-06 5.94665e-20 1.69948e-06 1.27959e-20 -2.18108e-10)
(-2.64039e-06 -5.50054e-06 -3.43527e-20 2.63977e-06 -1.02605e-20 6.24655e-10)
(-3.51886e-06 -5.13867e-06 4.02393e-20 3.51897e-06 1.36414e-20 -1.02888e-10)
(-4.32769e-06 -4.65253e-06 9.92246e-21 4.3278e-06 5.16271e-21 -1.09081e-10)
(-5.04442e-06 -4.06445e-06 -6.46891e-20 5.04409e-06 -1.99339e-20 3.32783e-10)
(-5.66e-06 -3.3912e-06 -1.90309e-19 5.65991e-06 -4.74802e-20 8.87225e-11)
(-6.17185e-06 -2.64438e-06 1.84593e-19 6.17185e-06 5.38889e-20 -1.60208e-12)
(-6.57392e-06 -1.83976e-06 -2.38885e-20 6.57393e-06 -3.97249e-21 -8.71742e-12)
(-6.86287e-06 -9.8727e-07 9.8076e-20 6.86285e-06 1.54067e-20 1.30933e-11)
(-7.03436e-06 -9.66265e-08 -1.31188e-19 7.03446e-06 -3.59663e-20 -1.03127e-10)
(-7.08337e-06 8.17903e-07 -2.73668e-19 7.08334e-06 -7.01029e-20 2.98371e-11)
(-7.00439e-06 1.74491e-06 1.64788e-19 7.00464e-06 4.6858e-20 -2.46884e-10)
(-6.79389e-06 2.66639e-06 3.21634e-19 6.79384e-06 6.544e-20 5.65244e-11)
(2.33554e-06 -4.23986e-06 -4.57865e-21 -2.33605e-06 -8.46199e-22 5.03547e-10)
(1.70301e-06 -4.62512e-06 4.4054e-20 -1.70215e-06 1.11048e-20 -8.6217e-10)
(9.38426e-07 -4.93799e-06 3.60491e-20 -9.3815e-07 9.14364e-21 -2.75308e-10)
(1.04301e-07 -5.1285e-06 -7.22171e-20 -1.05923e-07 -1.86017e-20 1.62199e-09)
(-7.32503e-07 -5.1855e-06 -8.96741e-20 7.33543e-07 -2.39801e-20 -1.03958e-09)
(-1.59652e-06 -5.10632e-06 -1.97583e-19 1.59666e-06 -4.88355e-20 -1.38582e-10)
(-2.43777e-06 -4.89125e-06 -6.03469e-20 2.43715e-06 -1.0437e-20 6.24024e-10)
(-3.22082e-06 -4.5564e-06 4.86702e-19 3.22085e-06 1.1985e-19 -2.7222e-11)
(-3.93989e-06 -4.1115e-06 4.79511e-20 3.93992e-06 4.0293e-21 -3.1085e-11)
(-4.57505e-06 -3.5769e-06 -6.67004e-20 4.57469e-06 -1.72221e-20 3.57974e-10)
(-5.11877e-06 -2.96786e-06 -3.82843e-20 5.1187e-06 -1.57277e-21 6.62136e-11)
(-5.56931e-06 -2.29473e-06 1.10984e-19 5.56921e-06 1.80339e-20 9.94595e-11)
(-5.9215e-06 -1.57186e-06 9.55995e-20 5.92132e-06 1.99825e-20 1.79522e-10)
(-6.17266e-06 -8.08234e-07 -1.81467e-19 6.17263e-06 -4.811e-20 3.19401e-11)
(-6.31961e-06 -1.22526e-08 6.72258e-20 6.31982e-06 1.7902e-20 -2.12078e-10)
(-6.35843e-06 8.04295e-07 -1.89347e-19 6.35846e-06 -3.07302e-20 -2.44339e-11)
(-6.28437e-06 1.63105e-06 -5.23546e-20 6.28465e-06 -5.65625e-21 -2.80703e-10)
(-6.09443e-06 2.45249e-06 -1.71628e-19 6.09448e-06 -3.26138e-20 -4.36329e-11)
(-5.7858e-06 3.25378e-06 1.60361e-19 5.78604e-06 4.39653e-21 -2.40798e-10)
(2.04222e-06 -3.82223e-06 -1.2017e-20 -2.04269e-06 -2.94482e-21 4.6304e-10)
(1.47004e-06 -4.16063e-06 -2.6483e-20 -1.46924e-06 -6.45686e-21 -7.95252e-10)
(7.79947e-07 -4.43236e-06 4.97951e-20 -7.79672e-07 1.22433e-20 -2.74467e-10)
(2.88807e-08 -4.5933e-06 5.18086e-20 -3.03359e-08 1.32402e-20 1.45515e-09)
(-7.22808e-07 -4.63424e-06 9.20378e-20 7.23779e-07 2.28953e-20 -9.70376e-10)
(-1.49709e-06 -4.55255e-06 1.97093e-19 1.49724e-06 5.07871e-20 -1.50845e-10)
(-2.24903e-06 -4.34932e-06 3.82291e-20 2.24851e-06 3.00531e-21 5.125e-10)
(-2.94727e-06 -4.03949e-06 -1.36561e-19 2.94743e-06 -4.00698e-20 -1.64686e-10)
(-3.58649e-06 -3.63217e-06 -1.96793e-19 3.58652e-06 -4.87285e-20 -2.61519e-11)
(-4.1494e-06 -3.14562e-06 -7.66225e-20 4.14912e-06 -8.88109e-21 2.80819e-10)
(-4.62948e-06 -2.59434e-06 7.91807e-20 4.62938e-06 1.57595e-20 9.71915e-11)
(-5.02544e-06 -1.98761e-06 -2.46805e-19 5.02541e-06 -5.88261e-20 2.98738e-11)
(-5.33342e-06 -1.33769e-06 -3.08207e-22 5.33333e-06 -1.66245e-21 9.13164e-11)
(-5.55133e-06 -6.52881e-07 -1.55724e-19 5.55125e-06 -2.69908e-20 7.87994e-11)
(-5.67657e-06 5.93819e-08 -4.11947e-20 5.67664e-06 -1.5355e-20 -6.98552e-11)
(-5.706e-06 7.88426e-07 3.52236e-20 5.70594e-06 1.24146e-20 5.79356e-11)
(-5.63568e-06 1.52588e-06 2.85579e-19 5.6359e-06 6.60095e-20 -2.21329e-10)
(-5.46329e-06 2.25819e-06 3.32951e-19 5.46333e-06 6.36713e-20 -3.61102e-11)
(-5.18658e-06 2.9722e-06 -2.17324e-19 5.18676e-06 -4.03983e-20 -1.81983e-10)
(1.7852e-06 -3.44604e-06 2.31366e-21 -1.78568e-06 3.2747e-22 4.83674e-10)
(1.2674e-06 -3.74321e-06 1.88746e-20 -1.26667e-06 4.54333e-21 -7.32134e-10)
(6.44412e-07 -3.97894e-06 -9.68052e-20 -6.44163e-07 -2.28184e-20 -2.49091e-10)
(-3.20565e-08 -4.11428e-06 6.45687e-20 3.06944e-08 1.43866e-20 1.36204e-09)
(-7.07457e-07 -4.14173e-06 -1.58634e-19 7.08343e-07 -3.74455e-20 -8.85642e-10)
(-1.4015e-06 -4.05874e-06 1.44421e-19 1.4016e-06 3.0485e-20 -1.08355e-10)
(-2.07385e-06 -3.86688e-06 -5.26445e-19 2.07337e-06 -1.26013e-19 4.86068e-10)
(-2.69645e-06 -3.58023e-06 3.13696e-20 2.69655e-06 1.18056e-20 -1.06501e-10)
(-3.2646e-06 -3.20704e-06 -5.97485e-20 3.26453e-06 -8.56337e-21 7.42754e-11)
(-3.76315e-06 -2.7644e-06 3.92619e-19 3.76289e-06 8.70786e-20 2.60928e-10)
(-4.18682e-06 -2.26508e-06 -1.17937e-19 4.18679e-06 -3.11652e-20 2.88193e-11)
(-4.53475e-06 -1.71753e-06 2.66003e-20 4.53462e-06 1.2356e-20 1.26424e-10)
(-4.80352e-06 -1.13299e-06 -2.09076e-21 4.80349e-06 2.94443e-21 3.29507e-11)
(-4.99186e-06 -5.1888e-07 1.09822e-19 4.99183e-06 3.0195e-20 3.88749e-11)
(-5.09779e-06 1.1861e-07 -2.2132e-19 5.09794e-06 -4.89731e-20 -1.5058e-10)
(-5.11883e-06 7.69937e-07 -9.94658e-20 5.11877e-06 -1.40681e-20 5.89916e-11)
(-5.05157e-06 1.42785e-06 1.26198e-19 5.05177e-06 1.62789e-20 -2.01155e-10)
(-4.8944e-06 2.08042e-06 -1.46888e-19 4.89445e-06 -4.29914e-20 -4.66343e-11)
(-4.64527e-06 2.71676e-06 2.21109e-19 4.64544e-06 4.25617e-20 -1.67451e-10)
(1.55994e-06 -3.107e-06 -5.79727e-21 -1.56042e-06 -1.2881e-21 4.76269e-10)
(1.09135e-06 -3.36786e-06 -5.074e-20 -1.09063e-06 -1.17033e-20 -7.14747e-10)
(5.2882e-07 -3.57209e-06 5.73897e-20 -5.28584e-07 1.34856e-20 -2.36431e-10)
(-8.06162e-08 -3.68531e-06 -1.09253e-19 7.93657e-08 -2.51105e-20 1.25047e-09)
(-6.8751e-07 -3.70156e-06 2.0178e-19 6.88355e-07 4.72005e-20 -8.44526e-10)
(-1.30978e-06 -3.61824e-06 -2.4345e-20 1.30986e-06 -7.82094e-21 -8.40921e-11)
(-1.91098e-06 -3.43743e-06 4.186e-20 1.91051e-06 1.49604e-20 4.64515e-10)
(-2.46595e-06 -3.17233e-06 3.39952e-20 2.46604e-06 8.86165e-21 -9.25871e-11)
(-2.9709e-06 -2.83047e-06 -6.59631e-20 2.97094e-06 -1.66309e-20 -4.60103e-11)
(-3.41256e-06 -2.42747e-06 -2.44476e-19 3.41232e-06 -5.52582e-20 2.38403e-10)