/*--------------------------------*- C++ -*----------------------------------*\
| =========                 |                                                 |
| \\      /  F ield         | OpenFOAM: The Open Source CFD Toolbox           |
|  \\    /   O peration     | Version:  2506                                  |
|   \\  /    A nd           | Website:  www.openfoam.com                      |
|    \\/     M anipulation  |                                                 |
\*---------------------------------------------------------------------------*/
FoamFile
{
    version     2.0;
    format      ascii;
    arch        "LSB;label=32;scalar=64";
    class       volScalarField;
    location    "250";
    object      turbulenceProperties:epsilon;
}
// * * * * * * * * * * * * * * * * * * * * * * * * * * * * * * * * * * * * * //

dimensions      [0 2 -3 0 0 0 0];

internalField   nonuniform List<scalar> 
1340
(
0.000201512
0.000204575
0.000206961
0.000145535
0.000148157
0.000150389
0.000151827
0.000152423
0.000106524
0.000108716
0.000110685
0.000112175
0.00011315
0.000113528
0.000113126
7.88245e-05
8.06182e-05
8.22878e-05
8.36602e-05
8.47166e-05
8.54003e-05
8.55637e-05
8.51559e-05
5.88965e-05
6.03505e-05
6.17391e-05
6.29435e-05
6.39627e-05
6.47423e-05
6.51748e-05
6.52245e-05
6.48568e-05
4.43782e-05
4.55515e-05
4.66876e-05
4.77135e-05
4.86358e-05
4.93999e-05
4.99343e-05
5.02122e-05
5.01993e-05
3.3689e-05
3.46308e-05
3.55536e-05
3.64153e-05
3.72177e-05
3.79202e-05
3.84698e-05
3.88469e-05
3.90234e-05
3.89617e-05
2.57429e-05
2.64956e-05
2.72439e-05
2.7958e-05
2.8641e-05
2.92621e-05
2.9782e-05
3.01832e-05
3.04466e-05
3.05421e-05
3.04527e-05
1.9785e-05
2.03858e-05
2.09922e-05
2.15778e-05
2.21526e-05
2.26876e-05
2.3156e-05
2.35445e-05
2.38384e-05
2.40136e-05
2.40587e-05
1.52834e-05
1.57648e-05
1.62532e-05
1.67333e-05
1.7211e-05
1.76662e-05
1.80753e-05
1.84322e-05
1.87234e-05
1.89311e-05
1.90449e-05
1.90547e-05
1.18602e-05
1.22456e-05
1.26394e-05
1.30308e-05
1.34261e-05
1.38076e-05
1.41596e-05
1.44763e-05
1.47476e-05
1.49603e-05
1.51068e-05
1.51783e-05
9.24167e-06
9.55003e-06
9.86739e-06
1.01859e-05
1.05113e-05
1.08286e-05
1.11272e-05
1.14024e-05
1.16462e-05
1.18491e-05
1.20051e-05
1.21071e-05
1.2147e-05
7.22732e-06
7.47475e-06
7.73003e-06
7.98924e-06
8.25581e-06
8.51854e-06
8.76944e-06
9.00482e-06
9.21888e-06
9.4039e-06
9.55588e-06
9.66944e-06
9.73773e-06
5.67063e-06
5.86897e-06
6.07463e-06
6.28528e-06
6.50304e-06
6.71984e-06
6.92887e-06
7.12826e-06
7.31284e-06
7.47737e-06
7.61848e-06
7.73234e-06
7.8134e-06
7.8583e-06
4.46226e-06
4.62134e-06
4.78731e-06
4.95797e-06
5.13573e-06
5.31384e-06
5.48736e-06
5.65451e-06
5.81192e-06
5.95507e-06
6.08206e-06
6.18931e-06
6.27338e-06
6.33122e-06
3.52061e-06
3.64826e-06
3.78232e-06
3.92054e-06
4.06543e-06
4.21139e-06
4.35469e-06
4.49422e-06
4.62704e-06
4.75007e-06
4.86171e-06
4.95939e-06
5.04057e-06
5.10258e-06
2.78426e-06
2.8868e-06
2.99493e-06
3.10696e-06
3.22483e-06
3.34425e-06
3.46213e-06
3.57807e-06
3.68937e-06
3.79401e-06
3.89059e-06
3.97746e-06
4.05235e-06
4.11359e-06
4.15901e-06
2.20657e-06
2.28906e-06
2.37625e-06
2.46698e-06
2.56284e-06
2.66026e-06
2.75714e-06
2.85298e-06
2.94584e-06
3.03402e-06
3.11665e-06
3.19245e-06
3.25974e-06
3.31735e-06
3.3634e-06
1.75204e-06
1.81849e-06
1.88877e-06
1.96226e-06
2.04017e-06
2.11953e-06
2.19901e-06
2.27792e-06
2.35506e-06
2.4289e-06
2.49896e-06
2.56411e-06
2.6234e-06
2.67571e-06
2.71967e-06
1.39356e-06
1.44702e-06
1.50374e-06
1.56321e-06
1.62644e-06
1.69111e-06
1.7561e-06
1.82096e-06
1.88471e-06
1.94627e-06
2.00517e-06
2.06075e-06
2.11217e-06
2.15863e-06
2.19916e-06
2.23264e-06
1.11013e-06
1.15315e-06
1.19893e-06
1.24707e-06
1.29832e-06
1.35098e-06
1.40403e-06
1.45725e-06
1.50979e-06
1.56089e-06
1.61017e-06
1.65715e-06
1.70117e-06
1.74176e-06
1.77804e-06
1.80934e-06
8.85551e-07
9.20194e-07
9.57124e-07
9.96075e-07
1.03765e-06
1.08043e-06
1.12371e-06
1.1673e-06
1.21048e-06
1.25272e-06
1.29374e-06
1.33317e-06
1.37054e-06
1.4055e-06
1.43749e-06
1.46585e-06
6.82678e-07
7.07278e-07
7.35162e-07
7.64961e-07
7.96461e-07
8.30149e-07
8.64896e-07
9.00147e-07
9.35777e-07
9.71188e-07
1.006e-06
1.04001e-06
1.07292e-06
1.10443e-06
1.13425e-06
1.16198e-06
1.18711e-06
1.20911e-06
5.4571e-07
5.65505e-07
5.87944e-07
6.11995e-07
6.37461e-07
6.64742e-07
6.92949e-07
7.21639e-07
7.50706e-07
7.79708e-07
8.08326e-07
8.36413e-07
8.63763e-07
8.90147e-07
9.15361e-07
9.39124e-07
9.61061e-07
9.80765e-07
4.36657e-07
4.52581e-07
4.7064e-07
4.90048e-07
5.10628e-07
5.32717e-07
5.55591e-07
5.78922e-07
6.02612e-07
6.26334e-07
6.49791e-07
6.7292e-07
6.95567e-07
7.17549e-07
7.38731e-07
7.58898e-07
7.77787e-07
7.95084e-07
3.49703e-07
3.6251e-07
3.77042e-07
3.92694e-07
4.09328e-07
4.27196e-07
4.45738e-07
4.64685e-07
4.83985e-07
5.0334e-07
5.2254e-07
5.41544e-07
5.60228e-07
5.78458e-07
5.9614e-07
6.13127e-07
6.29235e-07
6.44192e-07
6.57734e-07
2.80285e-07
2.90577e-07
3.02268e-07
3.14889e-07
3.28327e-07
3.42776e-07
3.57801e-07
3.7319e-07
3.88887e-07
4.04648e-07
4.20339e-07
4.35916e-07
4.51278e-07
4.66339e-07
4.81036e-07
4.95256e-07
5.08854e-07
5.21648e-07
5.3342e-07
2.24795e-07
2.33064e-07
2.42469e-07
2.5264e-07
2.6349e-07
2.75175e-07
2.87342e-07
2.99832e-07
3.12572e-07
3.25408e-07
3.38214e-07
3.50956e-07
3.63558e-07
3.75958e-07
3.88121e-07
3.99954e-07
4.11352e-07
4.22183e-07
4.32286e-07
1.80391e-07
1.87034e-07
1.94597e-07
2.02787e-07
2.11549e-07
2.20992e-07
2.3084e-07
2.40962e-07
2.51311e-07
2.61753e-07
2.7219e-07
2.82586e-07
2.929e-07
3.03082e-07
3.13113e-07
3.22913e-07
3.32413e-07
3.4151e-07
3.50082e-07
1.44826e-07
1.50161e-07
1.56237e-07
1.62833e-07
1.69904e-07
1.77535e-07
1.85503e-07
1.93704e-07
2.02107e-07
2.10587e-07
2.19076e-07
2.27556e-07
2.35983e-07
2.44325e-07
2.5256e-07
2.60642e-07
2.6852e-07
2.76112e-07
2.83316e-07
1.16319e-07
1.20598e-07
1.25477e-07
1.30789e-07
1.36492e-07
1.42657e-07
1.49101e-07
1.55747e-07
1.62558e-07
1.69445e-07
1.76349e-07
1.83255e-07
1.90127e-07
1.96943e-07
2.03689e-07
2.10333e-07
2.16832e-07
2.23125e-07
2.29136e-07
2.34773e-07
9.3451e-08
9.68809e-08
1.00795e-07
1.05073e-07
1.09671e-07
1.14649e-07
1.1986e-07
1.25244e-07
1.30767e-07
1.36357e-07
1.41966e-07
1.47579e-07
1.53175e-07
1.58736e-07
1.64249e-07
1.69691e-07
1.75031e-07
1.80221e-07
1.85206e-07
1.8991e-07
7.50932e-08
7.78404e-08
8.09796e-08
8.4422e-08
8.81293e-08
9.21477e-08
9.63639e-08
1.00722e-07
1.05199e-07
1.09732e-07
1.14286e-07
1.18848e-07
1.234e-07
1.27927e-07
1.32424e-07
1.36869e-07
1.4124e-07
1.45504e-07
1.49614e-07
1.53508e-07
6.03486e-08
6.25466e-08
6.5063e-08
6.78317e-08
7.08214e-08
7.40654e-08
7.74743e-08
8.10034e-08
8.4631e-08
8.83087e-08
9.20058e-08
9.57107e-08
9.94078e-08
1.0309e-07
1.06751e-07
1.10373e-07
1.1394e-07
1.17428e-07
1.20797e-07
1.24003e-07
4.85007e-08
5.02566e-08
5.22735e-08
5.44991e-08
5.69096e-08
5.95287e-08
6.22857e-08
6.51438e-08
6.80847e-08
7.10676e-08
7.40671e-08
7.70738e-08
8.00768e-08
8.30671e-08
8.60417e-08
8.89876e-08
9.18924e-08
9.47343e-08
9.74868e-08
1.0011e-07
3.89762e-08
4.03776e-08
4.19928e-08
4.37818e-08
4.57245e-08
4.78395e-08
5.00705e-08
5.23858e-08
5.47706e-08
5.71895e-08
5.96238e-08
6.20648e-08
6.45021e-08
6.6929e-08
6.93432e-08
7.17347e-08
7.40938e-08
7.64038e-08
7.86426e-08
8.0779e-08
8.27758e-08
3.13169e-08
3.24342e-08
3.37265e-08
3.51649e-08
3.67306e-08
3.84393e-08
4.02449e-08
4.21218e-08
4.40567e-08
4.60201e-08
4.79957e-08
4.99771e-08
5.19539e-08
5.3923e-08
5.58809e-08
5.78202e-08
5.97323e-08
6.16042e-08
6.34188e-08
6.51514e-08
6.67718e-08
2.51561e-08
2.6046e-08
2.70796e-08
2.82354e-08
2.94979e-08
3.08789e-08
3.23413e-08
3.38645e-08
3.54352e-08
3.70292e-08
3.86337e-08
4.0242e-08
4.18462e-08
4.34433e-08
4.50302e-08
4.66009e-08
4.81487e-08
4.96638e-08
5.11308e-08
5.25308e-08
5.38396e-08
2.02e-08
2.09079e-08
2.17339e-08
2.26626e-08
2.3681e-08
2.4798e-08
2.59837e-08
2.72204e-08
2.84966e-08
2.97927e-08
3.10965e-08
3.24034e-08
3.37058e-08
3.50013e-08
3.62867e-08
3.75582e-08
3.88097e-08
4.00327e-08
4.1216e-08
4.23439e-08
4.33965e-08
1.62126e-08
1.6775e-08
1.74347e-08
1.81809e-08
1.9003e-08
1.99072e-08
2.08698e-08
2.18751e-08
2.29137e-08
2.39686e-08
2.50295e-08
2.60919e-08
2.71499e-08
2.82006e-08
2.92423e-08
3.02711e-08
3.12821e-08
3.22683e-08
3.3221e-08
3.41275e-08
3.49709e-08
1.30046e-08
1.34508e-08
1.39774e-08
1.45773e-08
1.5241e-08
1.5974e-08
1.67565e-08
1.75754e-08
1.84219e-08
1.92815e-08
2.01458e-08
2.10103e-08
2.18706e-08
2.27239e-08
2.35684e-08
2.44006e-08
2.5217e-08
2.60119e-08
2.67777e-08
2.75045e-08
2.8179e-08
2.87886e-08
1.04239e-08
1.07773e-08
1.11976e-08
1.16799e-08
1.22164e-08
1.28115e-08
1.34488e-08
1.41169e-08
1.4808e-08
1.55097e-08
1.62149e-08
1.69197e-08
1.762e-08
1.83135e-08
1.89985e-08
1.96722e-08
2.03316e-08
2.09719e-08
2.15867e-08
2.21684e-08
2.27065e-08
2.31904e-08
8.34826e-09
8.62777e-09
8.96295e-09
9.35089e-09
9.78528e-09
1.02692e-08
1.07893e-08
1.13354e-08
1.19008e-08
1.24749e-08
1.30515e-08
1.3627e-08
1.41979e-08
1.47622e-08
1.53184e-08
1.58642e-08
1.6397e-08
1.69125e-08
1.74059e-08
1.78712e-08
1.82995e-08
1.86824e-08
6.67923e-09
6.89997e-09
7.1671e-09
7.47945e-09
7.83171e-09
8.22602e-09
8.65142e-09
9.09896e-09
9.56257e-09
1.00333e-08
1.05056e-08
1.09766e-08
1.1443e-08
1.1903e-08
1.23552e-08
1.27977e-08
1.32283e-08
1.36436e-08
1.40398e-08
1.44114e-08
1.47518e-08
1.50544e-08
5.3377e-09
5.51167e-09
5.72456e-09
5.97634e-09
6.26246e-09
6.58452e-09
6.93341e-09
7.30107e-09
7.68222e-09
8.06913e-09
8.45708e-09
8.84337e-09
9.22508e-09
9.6007e-09
9.96902e-09
1.03284e-08
1.06768e-08
1.10118e-08
1.13298e-08
1.16266e-08
1.18969e-08
1.21356e-08
4.25995e-09
4.39676e-09
4.5664e-09
4.76959e-09
5.00251e-09
5.26637e-09
5.55321e-09
5.85613e-09
6.17037e-09
6.48935e-09
6.80883e-09
7.12639e-09
7.43952e-09
7.74691e-09
8.04756e-09
8.33992e-09
8.62229e-09
8.89263e-09
9.14807e-09
9.38514e-09
9.59981e-09
9.78789e-09
3.3946e-09
3.50198e-09
3.63713e-09
3.80141e-09
3.99158e-09
4.20831e-09
4.44485e-09
4.69516e-09
4.95505e-09
5.21874e-09
5.48257e-09
5.74433e-09
6.00192e-09
6.25416e-09
6.50003e-09
6.73832e-09
6.96761e-09
7.1862e-09
7.39164e-09
7.58132e-09
7.75176e-09
7.89977e-09
2.70034e-09
2.78443e-09
2.89209e-09
3.02521e-09
3.18094e-09
3.35945e-09
3.55514e-09
3.76265e-09
3.97822e-09
4.19685e-09
4.41535e-09
4.63183e-09
4.84437e-09
5.05183e-09
5.25345e-09
5.44822e-09
5.635e-09
5.81212e-09
5.97777e-09
6.1297e-09
6.26517e-09
6.38168e-09
6.47668e-09
2.14383e-09
2.20951e-09
2.29529e-09
2.40349e-09
2.53134e-09
2.67885e-09
2.84131e-09
3.01385e-09
3.19324e-09
3.37508e-09
3.55665e-09
3.73626e-09
3.91212e-09
4.08329e-09
4.24919e-09
4.40894e-09
4.5615e-09
4.70553e-09
4.83944e-09
4.96139e-09
5.06926e-09
5.16105e-09
5.23492e-09
1.69822e-09
1.74935e-09
1.81777e-09
1.90598e-09
2.01127e-09
2.13356e-09
2.26887e-09
2.41275e-09
2.56253e-09
2.71427e-09
2.86567e-09
3.01521e-09
3.16118e-09
3.30289e-09
3.43986e-09
3.57138e-09
3.69645e-09
3.81389e-09
3.9224e-09
4.02046e-09
4.10639e-09
4.17873e-09
4.23609e-09
1.34185e-09
1.38151e-09
1.43616e-09
1.50834e-09
1.59527e-09
1.69703e-09
1.81006e-09
1.93038e-09
2.05584e-09
2.18283e-09
2.30952e-09
2.43452e-09
2.55614e-09
2.67379e-09
2.78729e-09
2.89591e-09
2.99861e-09
3.09439e-09
3.18223e-09
3.26095e-09
3.32929e-09
3.38617e-09
3.43059e-09
1.05724e-09
1.08791e-09
1.13163e-09
1.19091e-09
1.2629e-09
1.34787e-09
1.44254e-09
1.54339e-09
1.64886e-09
1.75534e-09
1.86179e-09
1.96677e-09
2.0684e-09
2.1663e-09
2.26044e-09
2.35005e-09
2.43414e-09
2.51192e-09
2.58267e-09
2.64557e-09
2.69965e-09
2.74413e-09
2.77842e-09
8.3033e-10
8.53966e-10
8.89028e-10
9.37888e-10
9.9765e-10
1.06891e-09
1.14829e-09
1.23309e-09
1.32201e-09
1.41139e-09
1.5014e-09
1.59002e-09
1.67483e-09
1.75599e-09
1.83377e-09
1.90734e-09
1.97577e-09
2.03857e-09
2.09534e-09
2.14543e-09
2.1881e-09
2.22278e-09
2.2491e-09
6.49798e-10
6.67977e-10
6.96167e-10
7.36559e-10
7.86274e-10
8.46246e-10
9.12772e-10
9.8435e-10
1.05945e-09
1.13444e-09
1.21148e-09
1.28658e-09
1.35657e-09
1.42304e-09
1.48693e-09
1.54713e-09
1.60272e-09
1.65348e-09
1.69919e-09
1.7393e-09
1.77316e-09
1.8003e-09
1.82049e-09
5.06563e-10
5.20532e-10
5.43254e-10
5.76716e-10
6.18139e-10
6.6875e-10
7.24235e-10
7.85042e-10
8.48264e-10
9.10932e-10
9.77888e-10
1.04149e-09
1.09819e-09
1.15209e-09
1.20477e-09
1.2545e-09
1.30015e-09
1.34174e-09
1.37909e-09
1.41159e-09
1.43869e-09
1.46e-09
1.47543e-09
3.93232e-10
4.03949e-10
4.22342e-10
4.50113e-10
4.84766e-10
5.27526e-10
5.73459e-10
6.25737e-10
6.77989e-10
7.30094e-10
7.89271e-10
8.42372e-10
8.87463e-10
9.31786e-10
9.7639e-10
1.01835e-09
1.05654e-09
1.09124e-09
1.12224e-09
1.14891e-09
1.17076e-09
1.18755e-09
1.1993e-09
1.20639e-09
3.03934e-10
3.12114e-10
3.27096e-10
3.50245e-10
3.79344e-10
4.15443e-10
4.53347e-10
4.99049e-10
5.39535e-10
5.84532e-10
6.39433e-10
6.81519e-10
7.15286e-10
7.53041e-10
7.92501e-10
8.28514e-10
8.60628e-10
8.89753e-10
9.15666e-10
9.37657e-10
9.55297e-10
9.68521e-10
9.77491e-10
9.82505e-10
2.34877e-10
2.41074e-10
2.53322e-10
2.72548e-10
2.96859e-10
3.26915e-10
3.58023e-10
3.97845e-10
4.2529e-10
4.67484e-10
5.21425e-10
5.52482e-10
5.74523e-10
6.08197e-10
6.45158e-10
6.76782e-10
7.03918e-10
7.28552e-10
7.50397e-10
7.68603e-10
7.82859e-10
7.93273e-10
8.00111e-10
8.03891e-10
1.85866e-10
1.9055e-10
2.00447e-10
2.15895e-10
2.35565e-10
2.59134e-10
2.83454e-10
3.15189e-10
3.30153e-10
3.6927e-10
4.20095e-10
4.42825e-10
4.58887e-10
4.92256e-10
5.29439e-10
5.59668e-10
5.84778e-10
6.07545e-10
6.27726e-10
6.44393e-10
6.57314e-10
6.66546e-10
6.72477e-10
6.7561e-10
1.51158e-10
1.54696e-10
1.62445e-10
1.74403e-10
1.89626e-10
2.06788e-10
2.24772e-10
2.46627e-10
2.54256e-10
2.83854e-10
3.27558e-10
3.46489e-10
3.63714e-10
3.9737e-10
4.34343e-10
4.64713e-10
4.89958e-10
5.12689e-10
5.32842e-10
5.49499e-10
5.62354e-10
5.71457e-10
5.7725e-10
5.80013e-10
1.22513e-10
1.25187e-10
1.31161e-10
1.40311e-10
1.51838e-10
1.63955e-10
1.77034e-10
1.90823e-10
1.94617e-10
2.13776e-10
2.489e-10
2.65837e-10
2.85754e-10
3.17834e-10
3.5259e-10
3.82376e-10
4.07601e-10
4.30086e-10
4.49921e-10
4.66308e-10
4.78852e-10
4.87661e-10
4.93206e-10
4.95932e-10
9.74396e-11
9.94491e-11
1.0399e-10
1.10888e-10
1.19408e-10
1.27725e-10
1.37112e-10
1.45014e-10
1.46737e-10
1.5857e-10
1.86378e-10
2.00942e-10
2.2253e-10
2.52386e-10
2.83988e-10
3.12135e-10
3.36571e-10
3.58212e-10
3.77158e-10
3.92846e-10
4.04845e-10
4.13227e-10
4.18327e-10
4.20505e-10
7.62695e-11
7.77713e-11
8.11594e-11
8.6255e-11
9.23221e-11
9.78348e-11
1.04299e-10
1.08038e-10
1.08595e-10
1.15288e-10
1.37007e-10
1.48983e-10
1.71087e-10
1.98585e-10
2.26751e-10
2.52571e-10
2.75639e-10
2.96067e-10
3.13811e-10
3.28465e-10
3.39683e-10
3.47563e-10
3.52492e-10
3.54955e-10
5.8689e-11
5.97978e-11
6.22425e-11
6.58721e-11
6.99475e-11
7.34456e-11
7.75414e-11
7.85696e-11
7.8482e-11
8.16882e-11
9.83782e-11
1.08023e-10
1.2947e-10
1.54442e-10
1.7927e-10
2.02517e-10
2.23888e-10
2.42953e-10
2.59433e-10
2.72921e-10
2.83003e-10
2.89564e-10
2.92753e-10
2.93108e-10
4.44652e-11
4.52568e-11
4.68924e-11
4.92656e-11
5.17078e-11
5.37516e-11
5.59079e-11
5.5485e-11
5.50082e-11
5.60147e-11
6.84464e-11
7.6229e-11
9.60689e-11
1.18446e-10
1.4026e-10
1.60986e-10
1.80496e-10
1.98082e-10
2.13347e-10
2.26041e-10
2.36004e-10
2.43335e-10
2.48468e-10
2.51881e-10
3.32391e-11
3.37767e-11
3.47267e-11
3.59991e-11
3.70932e-11
3.79827e-11
3.85266e-11
3.76527e-11
3.68083e-11
3.67753e-11
4.57412e-11
5.21567e-11
6.96968e-11
8.9473e-11
1.0864e-10
1.27112e-10
1.44883e-10
1.60902e-10
1.7429e-10
1.84569e-10
1.91418e-10
1.9461e-10
1.94238e-10
1.91239e-10
1.87191e-10
2.45191e-11
2.48725e-11
2.52863e-11
2.56603e-11
2.56997e-11
2.55971e-11
2.48614e-11
2.40993e-11
2.26486e-11
2.27967e-11
2.92143e-11
3.45369e-11
4.94801e-11
6.67705e-11
8.34829e-11
9.98443e-11
1.16379e-10
1.32276e-10
1.46642e-10
1.59085e-10
1.69655e-10
1.78905e-10
1.87717e-10
1.96058e-10
2.02237e-10
1.79089e-11
1.80927e-11
1.80195e-11
1.76466e-11
1.69305e-11
1.61066e-11
1.47526e-11
1.43632e-11
1.23117e-11
1.3922e-11
1.81285e-11
2.21331e-11
3.45203e-11
4.97015e-11
6.43097e-11
7.82603e-11
9.19685e-11
1.04673e-10
1.15506e-10
1.23877e-10
1.2911e-10
1.30697e-10
1.29025e-10
1.26391e-10
1.257e-10
1.34012e-11
1.33268e-11
1.2604e-11
1.14033e-11
1.00408e-11
8.82258e-12
7.6903e-12
7.88208e-12
6.18365e-12
1.0002e-11
1.17017e-11
1.39442e-11
2.34815e-11
3.647e-11
5.05412e-11
6.63526e-11
8.43322e-11
1.03642e-10
1.23553e-10
1.44234e-10
1.66787e-10
1.9308e-10
2.23962e-10
2.55085e-10
2.78661e-10
1.10385e-11
1.06576e-11
9.21652e-12
7.13858e-12
5.08981e-12
3.53952e-12
2.82412e-12
3.42475e-12
3.23024e-12
8.23949e-12
8.5824e-12
1.01189e-11
1.67096e-11
2.60468e-11
3.75013e-11
5.31636e-11
7.42062e-11
1.00276e-10
1.30613e-10
1.6425e-10
1.99581e-10
2.34678e-10
2.68112e-10
2.9778e-10
3.23357e-10
1.00236e-11
9.467e-12
7.63663e-12
5.0923e-12
2.64803e-12
9.11242e-13
3.852e-13
1.09252e-12
2.35086e-12
5.61945e-12
4.04589e-12
1.00537e-11
2.53992e-11
5.00501e-11
8.46183e-11
1.30131e-10
1.87682e-10
2.57614e-10
3.38772e-10
4.28508e-10
5.21197e-10
6.07801e-10
6.75899e-10
7.17435e-10
7.46246e-10
)
;

boundaryField
{
    inlet
    {
        type            calculated;
        value           nonuniform List<scalar> 
25
(
9.16181e-12
8.61979e-12
6.90873e-12
4.52949e-12
2.22538e-12
6.15655e-13
2.53843e-13
1.27382e-12
3.36986e-12
2.95703e-12
1.41873e-11
5.12063e-11
1.4979e-10
3.3829e-10
6.45693e-10
1.10255e-09
1.74184e-09
2.5935e-09
3.68021e-09
5.01089e-09
6.57101e-09
8.30292e-09
1.01037e-08
1.18266e-08
1.33863e-08
)
;
    }
    outlet
    {
        type            calculated;
        value           nonuniform List<scalar> 0();
    }
    walls
    {
        type            calculated;
        value           nonuniform List<scalar> 0();
    }
    frontAndBack
    {
        type            empty;
    }
    procBoundary4to0
    {
        type            processor;
        value           nonuniform List<scalar> 
72
(
0.000197872
0.000142637
0.000104215
7.69965e-05
5.74548e-05
4.32439e-05
3.27933e-05
2.50332e-05
1.92226e-05
1.48383e-05
1.15071e-05
8.96063e-06
7.00349e-06
5.49197e-06
4.31957e-06
3.40652e-06
2.69281e-06
2.13322e-06
1.69323e-06
1.3463e-06
1.07211e-06
8.54981e-07
8.54981e-07
6.59363e-07
5.27022e-07
4.21674e-07
3.37692e-07
2.7065e-07
2.17074e-07
1.7421e-07
1.3988e-07
1.12362e-07
9.02888e-08
7.25701e-08
5.83382e-08
4.69004e-08
3.77044e-08
3.03082e-08
2.43578e-08
1.95696e-08
1.57159e-08
1.26143e-08
1.0118e-08
8.10931e-09
6.49324e-09
5.19349e-09
4.14861e-09
3.30907e-09
2.63499e-09
2.09422e-09
1.66083e-09
1.31391e-09
1.03656e-09
8.15187e-10
6.38895e-10
4.98873e-10
3.87932e-10
3.00364e-10
2.32458e-10
1.84061e-10
1.49722e-10
1.21401e-10
9.65997e-11
7.5644e-11
5.82116e-11
4.40727e-11
3.28815e-11
2.4163e-11
1.75143e-11
1.29235e-11
1.04744e-11
9.43384e-12
)
;
    }
    procBoundary4to5
    {
        type            processor;
        value           nonuniform List<scalar> 
95
(
0.000282813
0.000286044
0.000288069
0.000208074
0.000208074
0.000207785
0.000152068
0.000152068
0.000150542
0.000111883
0.000111883
8.41489e-05
8.41489e-05
6.40117e-05
4.985e-05
4.985e-05
3.86417e-05
3.86417e-05
3.01651e-05
2.39577e-05
2.39577e-05
1.89458e-05
1.51643e-05
1.51643e-05
1.21182e-05
9.75656e-06
9.75656e-06
7.86193e-06
6.35866e-06
5.14268e-06
5.14268e-06
4.18594e-06
3.39592e-06
2.75396e-06
2.75396e-06
2.25779e-06
1.83461e-06
1.48984e-06
1.48984e-06
1.22735e-06
9.97747e-07
8.10393e-07
8.10393e-07
6.69483e-07
5.43884e-07
4.41429e-07
3.57953e-07
2.90012e-07
2.90012e-07
2.39912e-07
1.94238e-07
1.57114e-07
1.26985e-07
1.02557e-07
1.02557e-07
8.4593e-08
6.82487e-08
5.50319e-08
4.43538e-08
3.57364e-08
3.57364e-08
2.93143e-08
2.36056e-08
1.90093e-08
1.5311e-08
1.23363e-08
9.94451e-09
8.02182e-09
8.02182e-09
6.5486e-09
5.28994e-09
4.27796e-09
3.46238e-09
2.80249e-09
2.26715e-09
1.83394e-09
1.4853e-09
1.4853e-09
1.20951e-09
9.84198e-10
8.05032e-10
6.76315e-10
5.80274e-10
4.96425e-10
4.20436e-10
3.55574e-10
2.91492e-10
2.53672e-10
2.53672e-10
1.83206e-10
2.05532e-10
1.273e-10
2.92973e-10
3.49333e-10
7.49159e-10
)
;
    }
}


// ************************************************************************* //
