/*--------------------------------*- C++ -*----------------------------------*\
| =========                 |                                                 |
| \\      /  F ield         | OpenFOAM: The Open Source CFD Toolbox           |
|  \\    /   O peration     | Version:  2506                                  |
|   \\  /    A nd           | Website:  www.openfoam.com                      |
|    \\/     M anipulation  |                                                 |
\*---------------------------------------------------------------------------*/
FoamFile
{
    version     2.0;
    format      ascii;
    arch        "LSB;label=32;scalar=64";
    class       volVectorField;
    location    "250";
    object      U;
}
// * * * * * * * * * * * * * * * * * * * * * * * * * * * * * * * * * * * * * //

dimensions      [0 1 -1 0 0 0 0];

internalField   nonuniform List<vector> 
1340
(
(18.5696 14.7742 -5.34719e-19)
(19.3778 15.4691 1.83877e-17)
(20.2846 16.1318 -1.85286e-17)
(19.2327 14.0599 1.40721e-17)
(19.9861 14.6973 -3.89011e-18)
(20.8285 15.3052 1.82633e-17)
(21.7228 15.8373 -9.98992e-17)
(22.7078 16.3097 1.15067e-17)
(19.8238 13.4114 1.20181e-17)
(20.5293 13.9975 -1.90658e-17)
(21.3158 14.5562 -1.77607e-17)
(22.1465 15.0446 1.25382e-17)
(23.06 15.4792 3.24069e-17)
(24.0297 15.8395 -1.42222e-16)
(25.0363 16.1091 -5.85827e-17)
(20.3529 12.819 -1.82908e-17)
(21.016 13.3591 -5.3509e-17)
(21.7531 13.8734 9.34628e-18)
(22.528 14.3222 -3.25833e-18)
(23.3785 14.7221 -9.55753e-17)
(24.2791 15.0544 1.93636e-16)
(25.2114 15.3044 -3.21134e-16)
(26.1795 15.4694 1.02801e-15)
(20.8286 12.2749 2.6867e-17)
(21.4538 12.7734 1.42017e-17)
(22.1469 13.2475 1.96657e-17)
(22.8724 13.66 3.29345e-17)
(23.667 14.028 -5.56601e-17)
(24.5064 14.3338 9.20035e-17)
(25.373 14.5644 4.31013e-16)
(26.2715 14.7183 -5.74281e-16)
(27.1892 14.7888 -2.6961e-16)
(21.2579 11.7728 3.84708e-18)
(21.8488 12.2336 -5.81275e-19)
(22.5023 12.6709 -1.3816e-17)
(23.1836 13.0506 1.44166e-18)
(23.9283 13.389 8.66591e-17)
(24.7131 13.6699 -1.90787e-16)
(25.521 13.8819 -3.65234e-17)
(26.3571 14.0241 -1.53882e-16)
(27.2097 14.0907 -1.78544e-16)
(21.6465 11.3075 -5.45792e-17)
(22.2063 11.7339 5.04754e-17)
(22.8239 12.1378 -1.28003e-18)
(23.4652 12.4873 4.53575e-18)
(24.165 12.7983 1.61364e-16)
(24.9005 13.056 -9.26473e-17)
(25.6557 13.2503 -4.56789e-16)
(26.4357 13.3804 7.12438e-16)
(27.2298 13.4418 4.93862e-16)
(28.033 13.4307 -3.85827e-16)
(21.9993 10.8748 2.41608e-17)
(22.5305 11.2698 3.23604e-18)
(23.1153 11.6432 6.86875e-18)
(23.7203 11.9649 3.34256e-17)
(24.3793 12.2506 -1.67153e-16)
(25.0703 12.4866 4.56442e-16)
(25.7778 12.6639 3.03412e-16)
(26.5071 12.7822 -4.3632e-16)
(27.2481 12.8377 -3.16901e-16)
(27.9966 12.8272 2.62684e-16)
(28.7529 12.7476 9.46234e-17)
(22.3203 10.4713 -2.15146e-17)
(22.8252 10.8375 -8.34902e-18)
(23.3798 11.1826 -1.91567e-18)
(23.9516 11.4789 -1.01569e-17)
(24.5734 11.7412 -4.68906e-17)
(25.2238 11.9571 -6.65893e-16)
(25.8879 12.1182 -1.93225e-16)
(26.5711 12.2249 -1.64353e-16)
(27.2639 12.2741 1.61214e-16)
(27.9624 12.2629 1.61103e-16)
(28.6677 12.1889 2.02828e-16)
(22.6131 10.094 2.39172e-17)
(23.0935 10.4336 4.57349e-17)
(23.6201 10.7528 3.9339e-18)
(24.1615 11.0256 2.24857e-17)
(24.749 11.2662 1.29572e-16)
(25.3623 11.4633 1.56423e-16)
(25.9867 11.6093 1.99327e-16)
(26.6279 11.7049 1.82001e-16)
(27.2766 11.7474 -3.05921e-16)
(27.9296 11.7347 -1.97008e-17)
(28.5881 11.6647 -1.04103e-16)
(29.2479 11.5346 2.0671e-16)
(22.8805 9.74036 -5.20848e-18)
(23.3381 10.0555 -3.65917e-17)
(23.8388 10.3506 5.65447e-18)
(24.3519 10.6018 1.73938e-17)
(24.9079 10.8224 -5.30003e-17)
(25.4869 11.0018 5.75492e-17)
(26.075 11.1337 -3.55002e-16)
(26.6776 11.2186 3.11838e-16)
(27.2859 11.2545 6.45475e-17)
(27.897 11.2397 1.49281e-16)
(28.5126 11.1724 -1.46934e-16)
(29.1288 11.0503 3.20749e-16)
(23.1251 9.4082 -4.01444e-17)
(23.5614 9.70063 1.76163e-17)
(24.0378 9.9736 -1.42959e-17)
(24.5248 10.2047 -4.32615e-18)
(25.0515 10.4067 7.37647e-17)
(25.5989 10.5699 9.60053e-17)
(26.1534 10.6884 -1.39421e-16)
(26.7205 10.7633 -1.29354e-16)
(27.2917 10.7926 2.11546e-16)
(27.8644 10.7753 -7.55882e-16)
(28.4404 10.7098 1.09687e-15)
(29.0164 10.5942 -1.20802e-15)
(29.5911 10.4255 1.08488e-15)
(23.3493 9.09567 9.96649e-20)
(23.7654 9.36706 -1.41675e-17)
(24.2192 9.6195 9.38629e-18)
(24.6817 9.8321 -8.95495e-18)
(25.1812 10.0169 -1.4291e-17)
(25.6992 10.1649 -1.35634e-16)
(26.2227 10.271 -2.85314e-16)
(26.7569 10.3362 -1.74188e-16)
(27.2939 10.3593 2.16558e-16)
(27.8311 10.3392 5.33852e-17)
(28.3706 10.2748 -1.11819e-16)
(28.9094 10.1646 4.21052e-16)
(29.4466 10.0058 -1.17354e-15)
(23.5548 8.80115 4.96965e-18)
(23.9521 9.053 -4.35877e-17)
(24.3844 9.2864 -9.74021e-19)
(24.8241 9.48181 2.53493e-17)
(25.2982 9.65056 6.46604e-17)
(25.7888 9.78452 -1.36758e-16)
(26.2835 9.87902 3.12686e-16)
(26.7872 9.93525 1.30874e-16)
(27.2925 9.95218 -6.48561e-16)
(27.7969 9.92923 3.15607e-16)
(28.3026 9.86551 -1.04963e-15)
(28.807 9.75968 6.25506e-16)
(29.3094 9.60941 5.36441e-17)
(29.8089 9.41189 -1.8158e-16)
(23.7435 8.5232 2.52593e-17)
(24.1228 8.7569 -1.58604e-17)
(24.5351 8.97262 2.8463e-18)
(24.9532 9.15208 4.75132e-17)
(25.4035 9.306 1.31763e-16)
(25.8685 9.42687 -1.18021e-16)
(26.3364 9.51058 3.37939e-16)
(26.8118 9.55835 1.85088e-16)
(27.2876 9.56951 6.61125e-16)
(27.7617 9.54368 2.09257e-16)
(28.2361 9.48021 1.18792e-15)
(28.7085 9.37803 -4.12143e-16)
(29.1786 9.23513 1.93385e-15)
(29.6456 9.04897 -4.03029e-16)
(23.9168 8.26058 -1.81608e-17)
(24.2792 8.47741 1.73611e-17)
(24.6724 8.67664 -1.0127e-17)
(25.0703 8.84132 9.04898e-17)
(25.4982 8.98147 -1.75689e-16)
(25.9392 9.09019 3.5276e-16)
(26.382 9.16384 -3.81737e-16)
(26.831 9.20375 7.76815e-17)
(27.2794 9.20945 -5.18687e-16)
(27.7252 9.18081 4.12296e-16)
(28.1705 9.11735 3.99758e-16)
(28.6132 9.01826 -7.37601e-16)
(29.0532 8.88176 -1.63036e-15)
(29.4901 8.70561 -1.2685e-15)
(24.0761 8.01219 1.97064e-17)
(24.4223 8.21331 -3.64666e-18)
(24.7975 8.39719 -1.00675e-17)
(25.1763 8.54814 -3.24455e-17)
(25.5831 8.6755 9.71467e-17)
(26.0016 8.77292 1.6913e-16)
(26.4208 8.83727 1.82994e-16)
(26.8451 8.86984 6.24072e-17)
(27.268 8.87042 -2.41601e-17)
(27.6875 8.83907 -8.90197e-18)
(28.1057 8.77544 -8.17708e-16)
(28.5208 8.67901 -1.69033e-16)
(28.9328 8.54816 4.11319e-16)
(29.3414 8.38096 3.16922e-16)
(29.7446 8.17514 1.83281e-15)
(24.2225 7.77703 2.30033e-17)
(24.5534 7.9635 2.22106e-17)
(24.9115 8.1331 1.61678e-17)
(25.2722 8.2713 -9.45504e-17)
(25.6591 8.38678 -1.92003e-17)
(26.0564 8.47373 -3.06844e-16)
(26.4535 8.52945 -3.08609e-16)
(26.8547 8.5552 -3.10079e-16)
(27.2536 8.55102 -5.53104e-16)
(27.6486 8.51711 1.96979e-16)
(28.0416 8.45325 3.68926e-16)
(28.4309 8.35908 5.66304e-16)
(28.8168 8.23329 -6.71045e-16)
(29.1991 8.07405 -2.87397e-16)
(29.576 7.8794 -7.75712e-16)
(24.3572 7.55421 -4.65747e-17)
(24.6735 7.727 -7.34801e-18)
(25.0152 7.88331 -3.24e-17)
(25.3589 8.00965 -3.16868e-18)
(25.7269 8.1141 6.90228e-17)
(26.1042 8.19137 3.94194e-17)
(26.4805 8.2391 4.29699e-16)
(26.8599 8.25853 -1.44362e-16)
(27.2364 8.24994 6.35674e-16)
(27.6084 8.21364 -1.6546e-16)
(27.9779 8.1495 3.16918e-16)
(28.3432 8.05738 8.63669e-18)
(28.7047 7.9361 9.52604e-16)
(29.0624 7.78408 6.01825e-16)
(29.4148 7.59955 -6.3071e-16)
(24.4812 7.34294 1.21014e-17)
(24.7835 7.50296 -8.66156e-18)
(25.1097 7.64689 3.58882e-17)
(25.4371 7.76222 2.20107e-17)
(25.7872 7.85643 -1.41829e-16)
(26.1455 7.92474 1.90123e-16)
(26.5022 7.96508 1.00023e-17)
(26.8612 7.97871 -5.47938e-16)
(27.2167 7.96604 -5.36619e-16)
(27.5671 7.92753 6.40039e-16)
(27.9145 7.86314 -3.33041e-16)
(28.2574 7.77286 -2.54775e-16)
(28.5962 7.65569 6.68472e-16)
(28.9309 7.51022 -8.26605e-16)
(29.2603 7.33489 7.98612e-16)
(29.5829 7.12793 -7.94645e-16)
(24.5952 7.14249 4.26512e-18)
(24.8841 7.29059 2.02749e-18)
(25.1955 7.42298 1.5627e-17)
(25.5075 7.52808 -1.15146e-17)
(25.8406 7.6128 9.8643e-17)
(26.181 7.6728 -2.93797e-16)
(26.5191 7.70633 -2.69124e-16)
(26.8588 7.71463 9.73457e-16)
(27.1945 7.69823 -1.15159e-16)
(27.5248 7.65771 -7.20013e-17)
(27.8516 7.59311 -7.0595e-16)
(28.1735 7.50453 -4.51534e-16)
(28.4909 7.39113 -1.12515e-15)
(28.8041 7.25166 3.13809e-16)
(29.112 7.08477 5.01071e-16)
(29.4133 6.88884 -1.09512e-15)
(24.7001 6.95221 1.20057e-17)
(24.9763 7.08918 1.77672e-17)
(25.2735 7.21081 4.58174e-18)
(25.5707 7.3064 -8.03547e-17)
(25.8877 7.38233 -3.78796e-17)
(26.2111 7.43465 1.40214e-16)
(26.5317 7.46191 4.08913e-16)
(26.8532 7.46532 4.66807e-17)
(27.1703 7.44554 -4.83492e-16)
(27.4815 7.40321 2.69822e-16)
(27.7889 7.33846 5.29e-16)
(28.0912 7.25148 1.35106e-15)
(28.3887 7.14158 -6.81079e-16)
(28.6818 7.00766 -9.20265e-16)
(28.9695 6.84853 2.35445e-16)
(29.2508 6.66271 2.072e-16)
(24.5709 6.64156 -7.55418e-19)
(24.7966 6.77149 7.08785e-18)
(25.0605 6.89807 -9.45661e-18)
(25.3442 7.00968 2.00445e-17)
(25.6274 7.09644 -9.87923e-17)
(25.9291 7.16423 2.06239e-16)
(26.2362 7.20947 -5.33798e-18)
(26.5402 7.23097 8.22744e-17)
(26.8445 7.22991 -2.83376e-16)
(27.144 7.20706 -2.44985e-16)
(27.4375 7.16313 -3.56594e-16)
(27.7267 7.09832 -1.88704e-17)
(28.0104 7.0129 -6.83933e-17)
(28.2893 6.90628 1.52279e-16)
(28.5635 6.7775 1.10819e-15)
(28.8324 6.62554 1.37957e-16)
(29.0949 6.44909 -1.22033e-15)
(29.3493 6.24691 -1.694e-16)
(24.6695 6.47919 6.28546e-18)
(24.8853 6.59979 -2.17951e-17)
(25.1375 6.71667 3.12732e-18)
(25.4083 6.81895 -2.47055e-17)
(25.6781 6.89751 4.7441e-17)
(25.9651 6.95775 -1.445e-16)
(26.2569 6.99647 -1.01772e-16)
(26.5451 7.0127 -4.54033e-16)
(26.8331 7.00758 4.12321e-16)
(27.116 6.98198 4.26315e-17)
(27.3927 6.93667 -2.65242e-16)
(27.6648 6.87187 6.41463e-16)
(27.9312 6.78796 -9.73191e-17)
(28.1926 6.68445 -9.08697e-18)
(28.4492 6.5605 -6.59212e-16)
(28.7004 6.41521 -6.40301e-16)
(28.9453 6.24743 1.14832e-15)
(29.1824 6.05605 7.35172e-16)
(24.7605 6.32472 -2.71456e-18)
(24.9669 6.4366 1.01013e-18)
(25.2078 6.54442 7.17969e-18)
(25.4662 6.638 -5.33966e-17)
(25.7232 6.70897 -2.91212e-17)
(25.9962 6.76223 -6.70157e-17)
(26.2734 6.79494 4.64834e-17)
(26.5467 6.80635 -1.03728e-16)
(26.8192 6.79755 -6.87886e-17)
(27.0865 6.7695 1.54969e-16)
(27.3473 6.72301 5.70556e-16)
(27.6033 6.65835 -5.82567e-16)
(27.8535 6.57595 5.05486e-17)
(28.0984 6.47541 -3.45349e-16)
(28.3385 6.356 5.01898e-16)
(28.5731 6.21695 1.31964e-15)
(28.8015 6.05723 -7.56381e-16)
(29.0224 5.87588 -1.70548e-15)
(24.8446 6.17774 -3.83877e-18)
(25.0419 6.28146 1.72888e-17)
(25.272 6.38083 -7.66698e-18)
(25.5184 6.46631 1.50514e-17)
(25.7632 6.53023 6.4584e-17)
(26.0229 6.57706 2.35499e-16)
(26.2862 6.60425 1.18905e-16)
(26.5452 6.61127 -9.05575e-16)
(26.8032 6.59915 -1.16636e-16)
(27.0556 6.56893 1.89402e-16)
(27.3014 6.52146 1.03842e-16)
(27.5423 6.45704 -3.25916e-16)
(27.7772 6.37614 -3.56351e-16)
(28.0067 6.27846 7.30483e-16)
(28.2312 6.16336 -2.9659e-16)
(28.4503 6.03017 8.20401e-16)
(28.6633 5.878 2.342e-16)
(28.869 5.70599 9.42034e-16)
(29.0655 5.5136 -8.78714e-16)
(24.9222 6.03785 -6.4561e-18)
(25.1108 6.13394 -7.20262e-18)
(25.3305 6.22542 -9.03846e-18)
(25.5655 6.30337 -3.03668e-17)
(25.7986 6.36076 -7.50642e-17)
(26.0456 6.40165 -2.65045e-16)
(26.2955 6.42379 -5.7791e-17)
(26.541 6.42683 2.87247e-16)
(26.7851 6.41172 4.548e-16)
(27.0235 6.3796 1.68493e-16)
(27.2552 6.33135 -2.63833e-16)
(27.4818 6.26727 7.7323e-16)
(27.7023 6.18789 7.86384e-19)
(27.9173 6.09298 5.50369e-16)
(28.1274 5.98198 1.85376e-16)
(28.3319 5.85433 -1.04894e-16)
(28.5304 5.70923 -1.36643e-15)
(28.7218 5.54595 -1.87886e-15)
(28.9044 5.36404 1.17616e-15)
(24.9938 5.90469 1.18921e-18)
(25.174 5.99365 6.03022e-18)
(25.3837 6.07777 2.75434e-18)
(25.6078 6.14871 -3.80047e-17)
(25.8297 6.20005 1.18265e-16)
(26.0645 6.23548 -1.91199e-16)
(26.3018 6.25299 8.34308e-16)
(26.5344 6.2524 -3.1897e-17)
(26.7653 6.23464 1.48026e-16)
(26.9904 6.20088 -9.98111e-16)
(27.2088 6.15204 3.24152e-16)
(27.4218 6.0884 -9.84876e-17)
(27.6288 6.01058 -6.15024e-19)
(27.8303 5.91836 -4.58236e-16)
(28.0267 5.8113 9.06732e-16)
(28.2175 5.68889 5.04674e-16)
(28.4025 5.55046 -5.77726e-16)
(28.5805 5.39537 8.36572e-16)
(28.7501 5.22325 -1.2848e-15)
(25.0599 5.7779 -2.09827e-18)
(25.232 5.86021 -1.1152e-17)
(25.4321 5.93746 7.31433e-19)
(25.6457 6.0019 5.09961e-17)
(25.8569 6.04765 -1.7455e-16)
(26.08 6.07805 4.6749e-17)
(26.3052 6.09133 -6.42922e-17)
(26.5256 6.08747 -6.57762e-17)
(26.744 6.06736 1.43162e-16)
(26.9565 6.0322 6.35849e-16)
(27.1622 5.98293 8.08052e-17)
(27.3626 5.91986 -6.00385e-17)
(27.5568 5.84361 -3.59516e-16)
(27.7455 5.75405 -7.39668e-16)
(27.9291 5.65076 4.39943e-16)
(28.1072 5.53335 -5.74639e-16)
(28.2794 5.40121 -6.62945e-17)
(28.4449 5.25381 3.95805e-16)
(28.6023 5.09087 9.89532e-16)
(25.1209 5.65719 5.00566e-18)
(25.2852 5.73327 6.61032e-18)
(25.4761 5.80412 2.1804e-18)
(25.6796 5.86252 -4.04465e-18)
(25.8805 5.9031 4.18829e-17)
(26.0925 5.92888 9.84009e-17)
(26.3061 5.93831 -5.65777e-17)
(26.5149 5.93153 -3.84062e-16)
(26.7213 5.90934 2.49317e-16)
(26.9219 5.87301 -9.46684e-16)
(27.1156 5.82349 5.32823e-16)
(27.304 5.76108 -4.5862e-16)
(27.4863 5.68644 -3.59813e-16)
(27.6629 5.59947 -1.10053e-15)
(27.8345 5.49983 3.7841e-16)
(28.0006 5.38719 -1.06403e-15)
(28.1609 5.26103 1.43501e-16)
(28.3147 5.12088 1.11042e-16)
(28.4607 4.96655 5.00699e-16)
(25.1771 5.54225 -5.30841e-18)
(25.3339 5.61252 1.09721e-18)
(25.5159 5.67741 2.49073e-18)
(25.7097 5.73019 -5.56688e-17)
(25.9007 5.76602 4.86601e-18)
(26.1021 5.78756 7.94682e-17)
(26.3047 5.7935 1.34022e-16)
(26.5023 5.78409 4.98749e-16)
(26.6975 5.7601 -7.29961e-16)
(26.8867 5.72282 3.39015e-16)
(27.0692 5.67319 -3.30244e-16)
(27.2462 5.61154 8.55793e-16)
(27.4171 5.53854 7.21625e-16)
(27.5825 5.45413 1.12911e-15)
(27.7428 5.35802 7.69618e-16)
(27.8976 5.24994 9.46226e-16)
(28.0468 5.12945 -2.35729e-16)
(28.1897 4.99616 1.13465e-16)
(28.325 4.84994 -1.39094e-16)
(28.4515 4.69095 -3.90371e-16)
(25.2288 5.4328 -8.31686e-18)
(25.3785 5.49764 2.15141e-17)
(25.5519 5.55698 -2.30052e-18)
(25.7364 5.60457 3.61824e-17)
(25.918 5.636 1.38048e-16)
(26.1092 5.65366 -2.87024e-16)
(26.3012 5.65645 2.08633e-17)
(26.4883 5.64469 5.3773e-16)
(26.6727 5.61915 -1.31618e-16)
(26.8511 5.58111 -2.88439e-16)
(27.0229 5.53153 7.65459e-16)
(27.1892 5.47073 -2.50477e-16)
(27.3495 5.3994 -8.38607e-17)
(27.5043 5.31752 -7.55468e-16)
(27.6539 5.22483 3.26728e-16)
(27.7982 5.12113 -1.03874e-15)
(27.937 5.00604 -1.04207e-15)
(28.0696 4.87925 5.98709e-16)
(28.195 4.74067 -2.65308e-16)
(28.3119 4.59052 -5.55101e-16)
(25.2765 5.32858 -5.22051e-18)
(25.4192 5.38835 -1.88807e-18)
(25.5844 5.44253 -3.72106e-17)
(25.76 5.48531 3.00973e-17)
(25.9325 5.5127 -6.41165e-17)
(26.1139 5.52682 2.88568e-16)
(26.2959 5.52675 2.70602e-17)
(26.4729 5.51293 -3.122e-16)
(26.647 5.48605 5.0249e-16)
(26.8152 5.44744 -6.94403e-16)
(26.9769 5.39805 -3.815e-16)
(27.1331 5.33819 2.64114e-16)
(27.2833 5.26856 -3.86757e-16)
(27.4281 5.18917 -3.09111e-16)
(27.5678 5.09982 -4.02441e-16)
(27.7023 5.00033 -1.76147e-16)
(27.8313 4.89039 2.33312e-16)
(27.9543 4.76976 -9.80411e-16)
(28.0704 4.6384 -1.136e-17)
(28.1784 4.49656 2.497e-16)
(25.3204 5.22935 -9.85009e-18)
(25.4564 5.28439 1.68619e-18)
(25.6137 5.33377 1.46426e-17)
(25.7807 5.37209 4.85503e-17)
(25.9445 5.39578 -1.70666e-16)
(26.1166 5.40668 7.69815e-17)
(26.2889 5.40404 -3.94192e-17)
(26.4563 5.38839 -5.41901e-16)
(26.6207 5.3604 3.53535e-16)
(26.7792 5.32138 3.05451e-16)
(26.9312 5.2723 4.88205e-16)
(27.0779 5.21345 -4.30021e-16)
(27.2187 5.14556 -3.37486e-17)
(27.3541 5.06864 6.5705e-16)
(27.4844 4.98252 2.65381e-16)
(27.6096 4.88709 -5.32441e-16)
(27.7296 4.78208 3.69667e-16)
(27.8436 4.66731 1.40658e-15)
(27.9511 4.54277 -3.6373e-17)
(28.0508 4.40876 3.23099e-16)
(25.3608 5.13486 1.2222e-17)
(25.4903 5.18549 -5.49032e-18)
(25.64 5.23042 -2.29814e-17)
(25.7987 5.26463 -4.10632e-17)
(25.9542 5.28491 1.5164e-16)
(26.1173 5.29288 9.50942e-17)
(26.2805 5.28794 5.30989e-17)
(26.4386 5.2707 1.04542e-16)
(26.5937 5.24178 -5.86165e-16)
(26.7431 5.20252 -4.08323e-16)
(26.886 5.15386 -4.11533e-16)
(27.0237 5.09611 8.42498e-16)
(27.1555 5.02996 -2.18359e-16)
(27.2821 4.95548 -3.57436e-16)
(27.4037 4.87252 -9.04427e-16)
(27.5202 4.781 6.99111e-16)
(27.6316 4.68071 5.09674e-16)
(27.7374 4.57151 -1.92535e-16)
(27.8367 4.45343 -7.77624e-16)
(27.9287 4.32681 2.60393e-16)
(25.3979 5.04491 -2.629e-18)
(25.5212 5.09144 -4.78291e-18)
(25.6636 5.13222 3.0361e-17)
(25.8143 5.16264 -2.96662e-18)
(25.9618 5.17979 -3.74073e-17)
(26.1164 5.1851 1.12243e-16)
(26.2707 5.17811 -5.98511e-16)
(26.4201 5.1595 5.73648e-17)
(26.5664 5.12984 1.85541e-16)
(26.707 5.09048 5.08259e-16)
(26.8413 5.04235 3.34223e-16)
(26.9705 4.98575 -4.25232e-17)
(27.0939 4.92137 -6.99265e-16)
(27.2121 4.8493 4.80725e-16)
(27.3255 4.76941 3.52605e-16)
(27.434 4.68167 4.16578e-16)
(27.5374 4.5859 -3.79437e-16)
(27.6354 4.48199 -1.2264e-15)
(27.7272 4.37004 3.73412e-16)
(27.812 4.25038 -6.02173e-17)
(27.8887 4.12391 -1.13254e-16)
(25.432 4.95928 6.82312e-19)
(25.5493 5.00198 4.80244e-18)
(25.6846 5.03894 -4.63645e-18)
(25.8277 5.06584 6.87782e-18)
(25.9675 5.08014 -6.36513e-17)
(26.1138 5.08305 -3.5921e-17)
(26.2598 5.07424 1.79491e-16)
(26.4008 5.05445 -6.10006e-17)
(26.5387 5.02422 5.2763e-17)
(26.671 4.98489 1.29713e-16)
(26.7972 4.93738 -1.29685e-16)
(26.9183 4.88198 -2.40311e-16)
(27.0338 4.81939 -1.71405e-16)
(27.1442 4.74969 -5.19144e-16)
(27.2499 4.6728 3.39399e-16)
(27.3508 4.58871 4.64529e-16)
(27.4468 4.49727 3.29597e-16)
(27.5375 4.39841 7.5516e-16)
(27.6223 4.29226 -2.3457e-16)
(27.7005 4.17919 3.55413e-16)
(27.771 4.06007 -4.78516e-16)
(25.4633 4.87777 -4.21426e-19)
(25.5748 4.91692 -3.79685e-18)
(25.7033 4.95032 3.93333e-18)
(25.839 4.974 1.87851e-17)
(25.9715 4.9857 -1.53819e-16)
(26.1099 4.98644 2.77345e-16)
(26.2478 4.97602 -2.47811e-16)
(26.3809 4.95523 1.92631e-16)
(26.5108 4.92458 5.71593e-17)
(26.6352 4.8854 1.1724e-16)
(26.7537 4.83859 1.55356e-16)
(26.8671 4.78444 8.00796e-16)
(26.9752 4.72364 -4.13886e-16)
(27.0783 4.6563 5.85899e-16)
(27.1767 4.58233 -8.65597e-16)
(27.2705 4.50176 -3.77687e-16)
(27.3596 4.41446 2.94236e-16)
(27.4435 4.32043 -9.8369e-16)
(27.5219 4.21979 4.7071e-16)
(27.5939 4.11293 -4.15185e-16)
(27.6586 4.00071 -2.90986e-16)
(25.4921 4.80021 -4.68805e-18)
(25.5979 4.83605 -7.93801e-19)
(25.7198 4.86616 2.08985e-17)
(25.8485 4.88688 1.00621e-16)
(25.9739 4.8962 -3.20646e-17)
(26.1048 4.895 -1.4065e-16)
(26.235 4.88316 6.87747e-16)
(26.3604 4.86154 -3.85475e-16)
(26.4827 4.83061 -1.1641e-16)
(26.5997 4.79168 6.69425e-16)
(26.7108 4.74565 -1.32417e-15)
(26.8171 4.69279 1.53254e-15)
(26.9181 4.63379 -2.20638e-16)
(27.0143 4.56875 -4.07694e-16)
(27.106 4.49762 -8.58746e-16)
(27.1932 4.42045 -1.71323e-16)
(27.2757 4.33714 1.84364e-16)
(27.3534 4.24769 -5.92446e-16)
(27.4257 4.15228 1.1118e-15)
(27.492 4.05129 -6.74575e-16)
(27.5514 3.94558 2.79968e-16)
(25.5183 4.72642 -1.28074e-18)
(25.6188 4.75918 3.31122e-18)
(25.7344 4.78625 -2.61331e-17)
(25.8562 4.80424 -4.35934e-18)
(25.9748 4.8114 -5.93083e-17)
(26.0985 4.80845 -1.66844e-16)
(26.2214 4.79539 -5.21696e-16)
(26.3396 4.77308 1.36968e-16)
(26.4546 4.74199 -4.52615e-16)
(26.5645 4.70342 -3.3446e-17)
(26.6687 4.65823 -5.92368e-16)
(26.7682 4.60669 -6.01255e-16)
(26.8626 4.54948 1.0948e-15)
(26.9523 4.48671 6.05774e-16)
(27.0376 4.41835 -1.53633e-16)
(27.1186 4.34446 1.23604e-15)
(27.1951 4.26496 5.55355e-16)
(27.2669 4.1799 3.9581e-16)
(27.3336 4.08945 -1.40948e-16)
(27.3946 3.99401 -4.89386e-16)
(27.4492 3.89442 7.07707e-17)
(25.5424 4.65621 2.3904e-19)
(25.6377 4.68612 -2.50555e-19)
(25.7471 4.71038 3.80952e-18)
(25.8624 4.72587 -5.89876e-17)
(25.9745 4.73107 -7.84295e-17)
(26.0912 4.72657 1.62021e-16)
(26.2071 4.71244 1.14998e-16)
(26.3183 4.68959 9.18727e-17)
(26.4265 4.65846 -1.03101e-16)
(26.5296 4.62032 -7.42576e-16)
(26.6273 4.57602 7.49587e-16)
(26.7203 4.52583 1.83755e-16)
(26.8085 4.47041 -8.38517e-16)
(26.8921 4.40987 -2.34251e-16)
(26.9715 4.34419 -1.97097e-16)
(27.0467 4.27346 3.77992e-16)
(27.1176 4.19763 -7.559e-16)
(27.184 4.11674 4.09805e-16)
(27.2455 4.03099 3.49731e-16)
(27.3016 3.94079 1.23209e-16)
(27.3517 3.84696 3.69224e-16)
(27.3949 3.751 2.97592e-16)
(25.5644 4.58945 -1.055e-18)
(25.6546 4.6167 1.43058e-18)
(25.7582 4.63837 1.6422e-17)
(25.8672 4.65157 3.67391e-17)
(25.973 4.655 2.63599e-16)
(26.0831 4.64911 -2.97754e-17)
(26.1922 4.63407 -3.32191e-16)
(26.2968 4.61081 1.69657e-16)
(26.3984 4.57973 3.10219e-16)
(26.4952 4.54209 4.64936e-16)
(26.5866 4.49873 7.84678e-16)
(26.6736 4.44991 9.64281e-16)
(26.7559 4.39625 -8.65356e-16)
(26.8338 4.3379 -4.22852e-17)
(26.9076 4.27484 -5.27067e-16)
(26.9774 4.20715 -2.65281e-16)
(27.043 4.13482 6.87009e-17)
(27.1044 4.05791 1.44357e-15)
(27.1611 3.97662 -1.13755e-15)
(27.2127 3.89137 -5.79892e-16)
(27.2587 3.80295 4.95954e-16)
(27.2982 3.71282 -2.76647e-16)
(25.5845 4.52597 -1.51736e-18)
(25.6699 4.55076 -3.9183e-18)
(25.7678 4.57003 -2.02763e-17)
(25.8707 4.58114 -3.58729e-18)
(25.9705 4.58297 -2.78113e-17)
(26.0742 4.57586 1.29527e-16)
(26.1768 4.56004 1.74658e-16)
(26.2752 4.53648 1.33246e-16)
(26.3705 4.50554 -3.82623e-16)
(26.4611 4.46848 -2.02978e-16)
(26.5467 4.4261 -2.37247e-16)
(26.628 4.37864 -3.16682e-16)
(26.7048 4.32674 1.056e-15)
(26.7773 4.27053 -2.16329e-16)
(26.8459 4.20999 7.35107e-16)
(26.9106 4.14524 -1.16129e-16)
(26.9714 4.07626 7.20608e-18)
(27.0281 4.00313 -9.51358e-16)
(27.0804 3.92607 1.58603e-15)
(27.1278 3.8455 -8.74694e-17)
(27.1699 3.76217 1.86269e-16)
(27.206 3.6775 -1.84164e-16)
(25.6029 4.46563 2.22216e-18)
(25.6835 4.48814 -1.88496e-18)
(25.7759 4.50521 2.38972e-17)
(25.8729 4.5144 -6.617e-17)
(25.9669 4.51479 1.02465e-16)
(26.0645 4.50659 -3.49253e-16)
(26.161 4.49014 7.29509e-17)
(26.2533 4.46637 -5.57882e-16)
(26.3427 4.43566 5.64638e-16)
(26.4276 4.39922 -6.96195e-16)
(26.5076 4.35785 -4.45562e-16)
(26.5835 4.31176 3.71513e-16)
(26.655 4.26159 -7.31831e-16)
(26.7225 4.20746 -3.61217e-16)
(26.7863 4.14937 -1.02095e-15)
(26.8463 4.08744 6.46803e-17)
(26.9025 4.02167 4.63815e-17)
(26.9549 3.95215 1.58073e-16)
(27.0031 3.8791 -4.37924e-16)
(27.0467 3.80293 -2.15527e-16)
(27.0853 3.72439 3.17686e-16)
(27.1183 3.64482 6.45106e-18)
(25.6196 4.40829 -7.3383e-19)
(25.6957 4.42869 -6.99576e-18)
(25.7828 4.44373 9.51066e-18)
(25.8741 4.45118 -2.92477e-17)
(25.9626 4.45026 -5.20535e-17)
(26.0543 4.44113 1.87005e-18)
(26.1449 4.42414 -2.26931e-16)
(26.2314 4.40027 6.0703e-16)
(26.3152 4.36985 1.9578e-16)
(26.3946 4.33409 4.87403e-16)
(26.4693 4.29373 -3.89991e-16)
(26.5401 4.24902 4.01044e-16)
(26.6067 4.20055 -2.42521e-16)
(26.6695 4.14845 1.5691e-15)
(26.7287 4.09273 3.56678e-16)
(26.7843 4.03351 5.757e-16)
(26.8363 3.9708 5.48069e-17)
(26.8846 3.9047 -5.05131e-16)
(26.929 3.83544 3.92569e-16)
(26.9691 3.76343 4.4772e-18)
(27.0045 3.68939 -2.33323e-16)
(27.0347 3.61459 -2.25374e-16)
(25.6347 4.35382 -6.03174e-18)
(25.7064 4.37226 -3.31289e-18)
(25.7884 4.38544 5.12511e-17)
(25.8744 4.3913 1.16373e-16)
(25.9574 4.38922 1.82747e-17)
(26.0435 4.37927 -1.21294e-16)
(26.1284 4.36185 5.68198e-16)
(26.2095 4.33796 -5.975e-16)
(26.2879 4.3079 -6.53745e-16)
(26.3621 4.27284 -2.46395e-16)
(26.4318 4.23353 5.50748e-16)
(26.4978 4.19018 8.08805e-17)
(26.5598 4.14337 5.00624e-16)
(26.6181 4.09324 -7.7023e-16)
(26.6731 4.03981 -9.50634e-16)
(26.7246 3.98318 6.8783e-16)
(26.7727 3.92339 -1.3066e-15)
(26.8173 3.86055 3.6404e-16)
(26.8582 3.79488 -5.18328e-16)
(26.895 3.72678 7.20036e-17)
(26.9275 3.65696 6.29473e-16)
(26.9551 3.58662 1.86448e-16)
(25.6485 4.30209 1.32572e-18)
(25.716 4.31873 7.13308e-18)
(25.793 4.33019 -6.30113e-17)
(25.8737 4.3346 -3.68634e-17)
(25.9516 4.33149 -1.04257e-16)
(26.0322 4.32083 4.95997e-16)
(26.1118 4.30309 -1.01967e-16)
(26.1876 4.27924 -3.32399e-17)
(26.2608 4.24958 -9.87375e-17)
(26.3301 4.21526 7.94636e-16)
(26.3951 4.177 -1.01897e-15)
(26.4566 4.135 8.70247e-16)
(26.5142 4.08983 4.75843e-17)
(26.5684 4.04161 2.10028e-16)
(26.6193 3.99037 7.59529e-16)
(26.667 3.93623 -5.37857e-16)
(26.7115 3.87923 1.00571e-15)
(26.7526 3.81947 -1.01657e-16)
(26.7903 3.75719 -4.55498e-16)
(26.8241 3.69278 1.27207e-16)
(26.8539 3.62691 -2.04483e-16)
(26.8792 3.56075 5.78676e-16)
(25.661 4.25298 -3.31043e-18)
(25.7243 4.26795 -1.0348e-17)
(25.7966 4.27784 2.99127e-17)
(25.8722 4.28094 -9.42075e-17)
(25.9451 4.27691 -1.78726e-17)
(26.0206 4.26565 -1.19447e-17)
(26.0949 4.24766 -6.22454e-16)
(26.1657 4.22393 5.91528e-16)
(26.2341 4.19472 -3.89772e-16)
(26.2986 4.16116 -8.32482e-16)
(26.3592 4.12395 4.27187e-16)
(26.4164 4.08328 -9.51616e-16)
(26.47 4.03969 7.2942e-16)
(26.5202 3.99333 -3.60799e-16)
(26.5674 3.9442 -1.29621e-15)
(26.6115 3.89244 5.54821e-16)
(26.6526 3.83808 -7.23046e-17)
(26.6906 3.78125 -1.85597e-16)
(26.7252 3.72217 -1.8257e-16)
(26.7564 3.66123 1.4261e-16)
(26.7837 3.59906 -4.23101e-16)
(26.8068 3.53679 2.32709e-17)
(26.8255 3.47584 -1.31812e-16)
(25.6723 4.20639 2.33154e-18)
(25.7316 4.21981 -4.84947e-18)
(25.7993 4.22826 2.54186e-17)
(25.8699 4.23018 1.05008e-16)
(25.9381 4.22532 -2.41816e-16)
(26.0085 4.21356 -1.33088e-16)
(26.0779 4.1954 5.15853e-16)
(26.144 4.17184 -5.42856e-16)
(26.2076 4.14313 1.01689e-15)
(26.2678 4.11035 -7.34687e-16)
(26.3241 4.07418 -9.22461e-17)
(26.3772 4.03481 -6.74993e-16)
(26.427 3.99278 -6.49964e-16)
(26.4736 3.94819 4.03046e-16)
(26.5173 3.90109 -1.18975e-16)
(26.5581 3.8516 -8.89789e-16)
(26.596 3.79976 -4.99468e-16)
(26.631 3.7457 5.56347e-16)
(26.6629 3.68963 -1.95055e-17)
(26.6915 3.63194 -4.22687e-16)
(26.7166 3.57323 3.94792e-16)
(26.7378 3.51459 2.35586e-16)
(26.7549 3.45737 4.50034e-17)
(25.6825 4.16219 1.7562e-18)
(25.738 4.17419 2.64356e-18)
(25.8011 4.18132 7.2612e-18)
(25.867 4.18217 -9.34038e-17)
(25.9305 4.1766 1.345e-16)
(25.9962 4.16441 1.26049e-16)
(26.0608 4.14616 -6.30199e-16)
(26.1223 4.12282 3.53837e-16)
(26.1815 4.09463 -4.7066e-16)
(26.2374 4.06264 7.78585e-16)
(26.2898 4.02751 1.24017e-16)
(26.3391 3.98942 5.42688e-16)
(26.3852 3.94888 7.92881e-17)
(26.4284 3.90601 -5.07965e-16)
(26.4688 3.86085 8.80377e-16)
(26.5065 3.81352 9.92079e-17)
(26.5415 3.76407 -4.25527e-16)
(26.5738 3.71262 7.1827e-16)
(26.6032 3.65939 2.33088e-16)
(26.6295 3.60474 -5.54359e-16)
(26.6525 3.54928 9.81608e-17)
(26.6719 3.49402 2.56656e-17)
(26.6875 3.44024 2.25878e-17)
(25.6917 4.12029 5.13322e-19)
(25.7434 4.13097 2.0694e-18)
(25.8021 4.13689 3.8236e-17)
(25.8635 4.13678 -1.01706e-16)
(25.9225 4.13058 -1.29113e-16)
(25.9836 4.11806 2.93666e-16)
(26.0436 4.09978 -8.98745e-17)
(26.1008 4.07671 4.68234e-16)
(26.1558 4.04906 4.96982e-16)
(26.2077 4.01787 -1.20183e-16)
(26.2562 3.98377 2.91574e-16)
(26.3019 3.94692 9.93975e-17)
(26.3447 3.90783 -4.83942e-16)
(26.3846 3.86661 7.86698e-16)
(26.422 3.8233 -7.53664e-16)
(26.4568 3.77802 1.57526e-15)
(26.4891 3.73083 -7.14588e-16)
(26.5188 3.68184 -2.65314e-16)
(26.5458 3.63128 9.90799e-16)
(26.57 3.57949 -1.14328e-16)
(26.5911 3.52705 4.51838e-17)
(26.6089 3.47494 -6.52615e-16)
(26.6233 3.42436 2.67376e-16)
(25.7 4.08057 1.20719e-18)
(25.748 4.09004 -3.01616e-18)
(25.8025 4.09487 -8.08952e-17)
(25.8594 4.09389 1.2507e-16)
(25.9142 4.08716 7.31342e-17)
(25.9707 4.07437 1.11694e-16)
(26.0264 4.05611 -6.60076e-17)
(26.0794 4.03335 -7.85654e-17)
(26.1304 4.00627 -7.27748e-16)
(26.1784 3.97588 6.8276e-16)
(26.2234 3.94279 2.58078e-16)
(26.2657 3.90715 -4.06877e-17)
(26.3053 3.86945 -3.97612e-16)
(26.3422 3.82982 -5.26903e-16)
(26.3767 3.78828 8.9238e-16)
(26.4088 3.74495 -7.69872e-16)
(26.4386 3.69988 3.50125e-18)
(26.466 3.65322 5.26494e-16)
(26.4909 3.60516 -2.03119e-16)
(26.5131 3.55604 5.38015e-16)
(26.5325 3.50642 -3.42181e-16)
(26.5488 3.45722 -9.08789e-17)
(26.562 3.4096 3.05956e-16)
(25.7074 4.04295 -3.97352e-18)
(25.7518 4.0513 8.57339e-18)
(25.8022 4.05513 2.39793e-17)
(25.8548 4.05338 4.95927e-17)
(25.9054 4.0462 -4.99962e-17)
(25.9577 4.03321 -1.51077e-16)
(26.0092 4.01503 -2.7029e-17)
(26.0582 3.99262 1.11926e-16)
(26.1053 3.96612 -4.61179e-17)
(26.1498 3.93654 -6.69402e-16)
(26.1914 3.90444 4.29995e-16)
(26.2305 3.86996 3.1358e-17)
(26.267 3.8336 3.67725e-16)
(26.3011 3.79549 7.56843e-16)
(26.3329 3.75563 -8.79257e-16)
(26.3626 3.71414 1.2941e-15)
(26.39 3.67109 -2.00498e-16)
(26.4153 3.62661 4.86447e-16)
(26.4382 3.58089 -4.88234e-16)
(26.4587 3.53426 -7.19408e-16)
(26.4765 3.48727 3.92119e-16)
(26.4916 3.44078 4.02789e-16)
(26.5037 3.3959 -2.45865e-16)
(25.7139 4.00733 1.79981e-18)
(25.7549 4.01465 4.60581e-19)
(25.8013 4.01758 1.35069e-17)
(25.8497 4.01515 5.77958e-17)
(25.8964 4.00758 -2.07376e-16)
(25.9445 3.99446 2.86281e-16)
(25.992 3.97642 -1.96925e-16)
(26.0372 3.9544 -1.60965e-16)
(26.0807 3.92848 1.21688e-16)
(26.1217 3.89971 2.98311e-17)
(26.1601 3.86857 -1.15666e-15)
(26.1961 3.83519 1.04089e-15)
(26.2298 3.80013 -4.84954e-16)
(26.2613 3.76347 7.20412e-16)
(26.2907 3.72522 -2.13957e-16)
(26.318 3.68548 -6.10125e-16)
(26.3434 3.64432 -2.87365e-16)
(26.3667 3.60188 2.26266e-16)
(26.3879 3.55835 2.66817e-16)
(26.4068 3.51405 -1.35713e-16)
(26.4232 3.46949 1.94749e-16)
(26.437 3.42551 -4.40622e-16)
(26.4482 3.38315 -1.56272e-16)
(25.7198 3.97361 -2.2542e-18)
(25.7573 3.97999 1.42748e-20)
(25.7999 3.9821 -1.24246e-17)
(25.8443 3.97908 -7.86724e-17)
(25.8871 3.9712 -3.8491e-18)
(25.9313 3.958 -1.72457e-16)
(25.9749 3.94015 1.21785e-17)
(26.0164 3.91854 3.2809e-16)
(26.0565 3.89322 -2.06104e-16)
(26.0942 3.86528 5.03584e-16)
(26.1294 3.83506 1.07392e-15)
(26.1627 3.80274 -1.54167e-15)
(26.1938 3.76893 3.70057e-16)
(26.2229 3.73368 -1.51363e-16)
(26.25 3.69694 -6.77781e-17)
(26.2753 3.65884 4.55681e-16)
(26.2988 3.61946 -3.34442e-16)
(26.3203 3.57893 1.42101e-16)
(26.3398 3.53744 -7.34003e-16)
(26.3573 3.49529 4.9101e-18)
(26.3724 3.45299 8.48552e-17)
(26.3852 3.41132 1.69761e-16)
(26.3955 3.3713 -4.7618e-17)
(25.7249 3.94171 5.69311e-19)
(25.7592 3.94722 4.29184e-18)
(25.798 3.94859 -3.33355e-18)
(25.8385 3.94506 2.72608e-16)
(25.8775 3.93694 -3.07793e-16)
(25.9179 3.92372 4.20223e-17)
(25.9579 3.90611 2.5407e-16)
(25.9959 3.88495 -1.70641e-16)
(26.0327 3.86022 3.52275e-17)
(26.0672 3.83316 -7.7172e-16)
(26.0995 3.8038 -2.6307e-16)
(26.1301 3.77249 5.21172e-16)
(26.159 3.73991 -8.02253e-16)
(26.1859 3.70602 3.64312e-16)
(26.211 3.67071 1.29714e-16)