/*--------------------------------*- C++ -*----------------------------------*\
| =========                 |                                                 |
| \\      /  F ield         | OpenFOAM: The Open Source CFD Toolbox           |
|  \\    /   O peration     | Version:  2506                                  |
|   \\  /    A nd           | Website:  www.openfoam.com                      |
|    \\/     M anipulation  |                                                 |
\*---------------------------------------------------------------------------*/
FoamFile
{
    version     2.0;
    format      ascii;
    arch        "LSB;label=32;scalar=64";
    class       volScalarField;
    location    "12";
    object      p;
}
// * * * * * * * * * * * * * * * * * * * * * * * * * * * * * * * * * * * * * //

dimensions      [0 2 -2 0 0 0 0];

internalField   nonuniform List<scalar> 
400
(
-2.01405e-09
-0.000105664
-0.000235958
-0.000404347
-0.000604748
-0.000808613
-0.000962516
-0.000988461
-0.000791749
-0.000284194
0.000578085
0.0017619
0.00313644
0.00433469
0.00500663
0.00498611
0.00429618
0.00350069
0.00294346
0.00283073
0.000119246
9.39519e-06
-9.64082e-05
-0.000237578
-0.000414901
-0.000605667
-0.000773432
-0.000862842
-0.000788889
-0.000444062
0.000259309
0.00133359
0.00262816
0.00382432
0.00454635
0.00457576
0.00400045
0.00320743
0.00272793
0.00266826
0.000224137
8.53515e-05
-2.10987e-05
-0.000177222
-0.000403853
-0.000697594
-0.00104431
-0.00139855
-0.00165292
-0.00163475
-0.00116595
-0.000183452
0.00115487
0.00254409
0.00357316
0.00391122
0.00354432
0.00283947
0.00220363
0.00208353
0.000214309
4.51147e-05
-8.33201e-05
-0.000298573
-0.000651942
-0.00117947
-0.00191107
-0.00282229
-0.00377281
-0.00447954
-0.00459504
-0.00393849
-0.00264787
-0.00094251
0.000780247
0.00203617
0.00250065
0.00222854
0.00156227
0.00111044
-3.64885e-05
-0.000236005
-0.000413875
-0.000742755
-0.00131889
-0.00225118
-0.00365352
-0.00553204
-0.00765905
-0.00953662
-0.0105887
-0.0105186
-0.00943365
-0.00745254
-0.00487996
-0.00222248
-0.000101241
0.000957027
0.000876502
-0.000361047
-0.000625146
-0.000859091
-0.00112186
-0.00163006
-0.00254469
-0.00408433
-0.0064654
-0.00966997
-0.0132736
-0.0165144
-0.0186657
-0.0193548
-0.0185489
-0.0163896
-0.0131014
-0.00905762
-0.00489808
-0.00166444
-0.000495016
-0.00229576
-0.00159384
-0.00186849
-0.00225416
-0.00300635
-0.00436047
-0.00665225
-0.0101671
-0.0147759
-0.0197628
-0.0240923
-0.0270054
-0.0281579
-0.027569
-0.025379
-0.0218429
-0.0171038
-0.0114478
-0.00597505
-0.00300753
-0.00397857
-0.0029127
-0.00323003
-0.00376385
-0.00479382
-0.00661541
-0.0096477
-0.0141782
-0.0199278
-0.025908
-0.0308792
-0.0341071
-0.0354099
-0.0347712
-0.0325664
-0.0290819
-0.02437
-0.018323
-0.0114822
-0.0062556
-0.00439636
-0.0044774
-0.00482756
-0.00550565
-0.00679231
-0.00900795
-0.012605
-0.0178314
-0.0243011
-0.030859
-0.036159
-0.0394877
-0.0407214
-0.0400197
-0.0377271
-0.0342726
-0.0298404
-0.0241701
-0.017095
-0.0100699
-0.0054107
-0.00613604
-0.00649105
-0.00727472
-0.00874054
-0.0111936
-0.0150812
-0.0206134
-0.0273843
-0.0341962
-0.0396677
-0.0430802
-0.0443084
-0.0434925
-0.0410285
-0.0374752
-0.0332573
-0.028234
-0.0217846
-0.0144399
-0.00809772
-0.00773491
-0.00804929
-0.00887194
-0.0103973
-0.0128888
-0.0167693
-0.0222311
-0.0289251
-0.0357074
-0.0412226
-0.044707
-0.0459664
-0.0450744
-0.0424437
-0.0387309
-0.0346347
-0.0302694
-0.024818
-0.0182804
-0.0115366
-0.00913748
-0.00937835
-0.0101494
-0.011589
-0.0139202
-0.0175241
-0.0225957
-0.0288471
-0.0352888
-0.0406744
-0.0441726
-0.0454725
-0.0445896
-0.0419011
-0.0380772
-0.0341022
-0.0303567
-0.0259083
-0.0204744
-0.0139237
-0.0102825
-0.0104156
-0.0110328
-0.0122439
-0.0142469
-0.01735
-0.0217531
-0.0272541
-0.0330727
-0.0381137
-0.0415096
-0.042837
-0.0420595
-0.0394821
-0.0358273
-0.0320104
-0.0287948
-0.0251125
-0.0206578
-0.0142947
-0.0111586
-0.0111634
-0.0115282
-0.0123764
-0.0139098
-0.0163768
-0.0199548
-0.0245325
-0.0295354
-0.0340477
-0.0372278
-0.0385815
-0.0380118
-0.0357331
-0.0324197
-0.0289246
-0.0260453
-0.022855
-0.0193052
-0.0126431
-0.011799
-0.0116688
-0.0116966
-0.0120785
-0.013068
-0.014879
-0.017648
-0.0213129
-0.0254643
-0.0293719
-0.0322747
-0.0336477
-0.0333568
-0.031457
-0.0285807
-0.0254522
-0.0228283
-0.019851
-0.0175232
-0.00929219
-0.0122878
-0.0120091
-0.0115621
-0.0113912
-0.0118397
-0.0130858
-0.0152101
-0.0181499
-0.0215974
-0.0249798
-0.027636
-0.029029
-0.0289296
-0.0275077
-0.0250718
-0.0222508
-0.0197421
-0.0167762
-0.0156932
-0.00318719
-0.0126704
-0.0122909
-0.0112545
-0.0104874
-0.0104428
-0.0112589
-0.0129523
-0.0154247
-0.0184139
-0.0214518
-0.023978
-0.0254751
-0.0256793
-0.024574
-0.0224576
-0.0197403
-0.0170197
-0.0136454
-0.0109852
0.0110244
-0.0139691
-0.0126489
-0.0105369
-0.0091619
-0.00880043
-0.00940562
-0.010917
-0.0131946
-0.0160007
-0.0189187
-0.0214717
-0.0231468
-0.0236626
-0.0228588
-0.0209152
-0.0178922
-0.014125
-0.00767503
0.00491317
0.0460675
-0.0125077
-0.0136155
-0.0104166
-0.00826871
-0.0075318
-0.00799796
-0.00945871
-0.0117023
-0.0145162
-0.0174775
-0.0201806
-0.0220762
-0.0229011
-0.0223013
-0.0202664
-0.0160423
-0.00829684
0.00848652
0.0445051
0.115124
-0.0300305
-0.0136405
-0.00698345
-0.00506191
-0.00488786
-0.00566815
-0.00733662
-0.00975363
-0.0127312
-0.0158374
-0.0187007
-0.0208044
-0.0218825
-0.0214267
-0.0188075
-0.0118493
0.00383015
0.0389316
0.107348
0.211618
)
;

boundaryField
{
    movingWall
    {
        type            zeroGradient;
    }
    fixedWalls
    {
        type            zeroGradient;
    }
    frontAndBack
    {
        type            empty;
    }
}


// ************************************************************************* //
