/*--------------------------------*- C++ -*----------------------------------*\
| =========                 |                                                 |
| \\      /  F ield         | OpenFOAM: The Open Source CFD Toolbox           |
|  \\    /   O peration     | Version:  2506                                  |
|   \\  /    A nd           | Website:  www.openfoam.com                      |
|    \\/     M anipulation  |                                                 |
\*---------------------------------------------------------------------------*/
FoamFile
{
    version     2.0;
    format      ascii;
    arch        "LSB;label=32;scalar=64";
    class       surfaceScalarField;
    location    "12";
    object      phi;
}
// * * * * * * * * * * * * * * * * * * * * * * * * * * * * * * * * * * * * * //

dimensions      [0 3 -1 0 0 0 0];

oriented        oriented;

internalField   nonuniform List<scalar> 
760
(
5.66829e-07
-5.66808e-07
-4.57097e-06
5.13779e-06
-1.33435e-05
8.77251e-06
-2.52563e-05
1.19128e-05
-4.19531e-05
1.66968e-05
-6.5636e-05
2.36829e-05
-9.77545e-05
3.21185e-05
-0.000137538
3.97836e-05
-0.000180475
4.29372e-05
-0.000218
3.75249e-05
-0.000239641
2.16407e-05
-0.000237289
-2.35151e-06
-0.000203126
-3.41629e-05
-0.000142312
-6.08146e-05
-6.80084e-05
-7.43034e-05
-2.89984e-07
-6.77185e-05
4.2367e-05
-4.2657e-05
4.572e-05
-3.35302e-06
2.18605e-05
2.38595e-05
2.18605e-05
-1.01206e-05
9.55379e-06
-3.39171e-05
2.89343e-05
-6.57384e-05
4.05937e-05
-0.000105362
5.15368e-05
-0.000155324
6.66585e-05
-0.000217707
8.60658e-05
-0.000291524
0.000105936
-0.000370825
0.000119085
-0.000444506
0.000116618
-0.000498667
9.16863e-05
-0.000521326
4.43e-05
-0.000504662
-1.90155e-05
-0.000445171
-9.36543e-05
-0.000346733
-0.000159253
-0.000221915
-0.000199121
-9.35972e-05
-0.000196036
3.6093e-06
-0.000139864
4.48129e-05
-4.45566e-05
2.88085e-05
3.98639e-05
5.0669e-05
-2.3033e-05
3.25868e-05
-6.64758e-05
7.23771e-05
-0.000120631
9.47493e-05
-0.000185165
0.000116071
-0.000262523
0.000144016
-0.000353712
0.000177255
-0.000455797
0.000208021
-0.00056062
0.000223908
-0.00065531
0.000211307
-0.000725134
0.000161511
-0.000757908
7.70745e-05
-0.000746864
-3.00603e-05
-0.000690053
-0.000150464
-0.00058693
-0.000262377
-0.000441907
-0.000344144
-0.00026977
-0.000368173
-0.000104082
-0.000305551
2.78387e-06
-0.000151423
2.26173e-05
2.00305e-05
7.32863e-05
-3.44379e-05
6.70247e-05
-9.47125e-05
0.000132652
-0.000167284
0.00016732
-0.000251705
0.000200492
-0.00035077
0.000243081
-0.000465646
0.000292131
-0.000592925
0.0003353
-0.000722466
0.00035345
-0.000838482
0.000327323
-0.000925413
0.000248442
-0.00097268
0.000124341
-0.000973836
-2.89045e-05
-0.00093259
-0.000191711
-0.000844055
-0.000350912
-0.00070255
-0.000485648
-0.000507797
-0.000562927
-0.000278699
-0.000534649
-7.40067e-05
-0.000356115
1.43407e-05
-6.83169e-05
8.76269e-05
-4.25644e-05
0.000109589
-0.000114901
0.000204988
-0.000200805
0.000253224
-0.000300026
0.000299713
-0.000416079
0.000359134
-0.000550092
0.000426144
-0.000696293
0.000481501
-0.000839747
0.000496904
-0.000961444
0.00044902
-0.00104883
0.000335825
-0.00109885
0.000174365
-0.00110572
-2.20342e-05
-0.00108371
-0.000213717
-0.00102501
-0.00040962
-0.000917582
-0.000593072
-0.000745328
-0.00073518
-0.000497029
-0.000782948
-0.000206442
-0.000646702
-9.19673e-06
-0.000265562
7.84302e-05
-4.6235e-05
0.000155824
-0.000124776
0.000283529
-0.000218051
0.000346499
-0.000325613
0.000407275
-0.000450463
0.000483984
-0.000591237
0.000566918
-0.000737397
0.000627662
-0.000870459
0.000629966
-0.000973666
0.000552227
-0.00104135
0.00040351
-0.00107821
0.000211223
-0.00108909
-1.11579e-05
-0.00108231
-0.000220493
-0.00105663
-0.000435298
-0.00100154
-0.000648167
-0.000891596
-0.000845122
-0.00069178
-0.000982765
-0.000386715
-0.000951767
-7.04721e-05
-0.000581805
7.95818e-06
-4.46693e-05
0.000200493
-0.000122589
0.000361449
-0.000215694
0.000439604
-0.000321972
0.000513554
-0.000442075
0.000604087
-0.000571194
0.000696036
-0.000696103
0.000752571
-0.000800156
0.000734018
-0.000872945
0.000625016
-0.000914813
0.000445378
-0.000932953
0.000229363
-0.000942463
-1.6479e-06
-0.000940493
-0.000222462
-0.00093641
-0.000439381
-0.000928663
-0.000655913
-0.000894707
-0.000879078
-0.00078681
-0.00109066
-0.000547048
-0.00119153
-0.00017477
-0.000954082
-0.000166812
-3.77126e-05
0.000238206
-0.000107731
0.000431467
-0.000192265
0.000524138
-0.000286594
0.000607882
-0.000388606
0.000706099
-0.000492059
0.000799489
-0.000585483
0.000845995
-0.000657845
0.000806381
-0.000704792
0.000671963
-0.000729336
0.000469922
-0.000738163
0.000238189
-0.000741416
1.6054e-06
-0.000739402
-0.000224477
-0.000741494
-0.000437289
-0.000755672
-0.000641735
-0.000774376
-0.000860374
-0.000752905
-0.00111213
-0.000610554
-0.00133388
-0.000286994
-0.00127764
-0.000453806
-2.6237e-05
0.000264443
-8.17559e-05
0.000486986
-0.000150322
0.000592704
-0.000224275
0.000681836
-0.000299455
0.00078128
-0.000370792
0.000870827
-0.000431713
0.000906915
-0.000477775
0.000852443
-0.000509087
0.000703275
-0.000528576
0.00048941
-0.000539647
0.000249261
-0.000544456
6.41435e-06
-0.000545095
-0.000223838
-0.000547304
-0.00043508
-0.000563424
-0.000625616
-0.000601441
-0.000822357
-0.000634048
-0.00107953
-0.000579031
-0.0013889
-0.000351741
-0.00150493
-0.000805547
-1.21693e-05
0.000276612
-4.834e-05
0.000523156
-9.59392e-05
0.000640303
-0.000144629
0.000730525
-0.000188924
0.000825574
-0.000226457
0.00090836
-0.000256613
0.000937071
-0.000280759
0.000876589
-0.000301417
0.000723932
-0.000320073
0.000508066
-0.000336513
0.000265702
-0.000349471
1.93719e-05
-0.000357583
-0.000215725
-0.000364288
-0.000428376
-0.000380765
-0.000609139
-0.000424215
-0.000778907
-0.00048751
-0.00101623
-0.000496542
-0.00137986
-0.000338436
-0.00166304
-0.00114398
2.76674e-06
0.000273846
-1.2359e-05
0.000538282
-3.68781e-05
0.000664822
-5.8776e-05
0.000752423
-7.17413e-05
0.00083854
-7.61008e-05
0.00091272
-7.70698e-05
0.00093804
-7.99212e-05
0.000879441
-8.76858e-05
0.000731697
-0.0001016
0.00052198
-0.000120144
0.000284245
-0.000141147
4.03751e-05
-0.00016123
-0.000195643
-0.000181727
-0.000407878
-0.000207959
-0.000582906
-0.000257603
-0.000729263
-0.000339737
-0.000934097
-0.000394802
-0.0013248
-0.000294649
-0.00176319
-0.00143863
1.4446e-05
0.0002594
1.96175e-05
0.000533111
1.824e-05
0.0006662
2.21068e-05
0.000748557
3.82113e-05
0.000822435
6.58759e-05
0.000885055
9.69945e-05
0.000906922
0.000120919
0.000855517
0.000130498
0.000722117
0.000124947
0.000527531
0.000107472
0.00030172
8.02094e-05
6.76381e-05
4.73656e-05
-0.000162799
9.20154e-06
-0.000369714
-4.06616e-05
-0.000533043
-0.000107684
-0.000662241
-0.000206506
-0.000835275
-0.000295375
-0.00123593
-0.000246934
-0.00181163
-0.00168557
2.18835e-05
0.000237516
4.33183e-05
0.000511676
6.13502e-05
0.000648168
8.66769e-05
0.00072323
0.000127836
0.000781277
0.000184378
0.000828513
0.000246477
0.000844822
0.000299148
0.000802846
0.000331265
0.00069
0.000339943
0.000518853
0.000327551
0.000314112
0.000296407
9.87822e-05
0.000248301
-0.000114693
0.000186605
-0.000308017
0.000114011
-0.000460449
2.44833e-05
-0.000572714
-9.01361e-05
-0.000720655
-0.000205792
-0.00112028
-0.00020046
-0.00181696
-0.00188603
2.36065e-05
0.00021391
5.53561e-05
0.000479926
8.89375e-05
0.000614586
0.000131881
0.000680286
0.000191778
0.00072138
0.000269144
0.000751147
0.000354995
0.000758971
0.000433357
0.000724484
0.000489567
0.00063379
0.000516617
0.000491803
0.000514288
0.000316441
0.000484648
0.000128422
0.00042667
-5.67152e-05
0.000347014
-0.000228361
0.000250561
-0.000363997
0.000141656
-0.000463809
9.13446e-06
-0.000588134
-0.000126581
-0.00098456
-0.000157815
-0.00178573
-0.00204384
1.85086e-05
0.000195401
5.18548e-05
0.00044658
9.47969e-05
0.000571644
0.00015107
0.000624013
0.000224709
0.00064774
0.000315771
0.000660085
0.000417007
0.000657735
0.000514012
0.000627479
0.00059067
0.000557133
0.000636104
0.000446369
0.000646218
0.000306328
0.000621806
0.000152834
0.000561622
3.46792e-06
0.000471581
-0.00013832
0.000358835
-0.000251251
0.000233043
-0.000338016
9.14974e-05
-0.000446589
-5.37872e-05
-0.000839275
-0.000116173
-0.00172334
-0.00216002
7.15243e-06
0.000188249
3.47459e-05
0.000418987
8.26474e-05
0.000523743
0.000148378
0.000558283
0.000231165
0.000564953
0.00032968
0.00056157
0.000437972
0.000549443
0.000544444
0.000521007
0.000634107
0.00046747
0.000694278
0.000386198
0.00071715
0.000283456
0.000700343
0.00016964
0.000646559
5.72524e-05
0.00055461
-4.63708e-05
0.000435538
-0.00013218
0.000302778
-0.000205255
0.000162782
-0.000306593
1.05055e-05
-0.000686999
-6.12701e-05
-0.00165157
-0.00222129
-1.93496e-05
0.000207598
-1.46644e-05
0.000414301
3.46857e-05
0.000474393
0.000113497
0.000479471
0.000209687
0.000468763
0.000317229
0.000454028
0.000430612
0.000436059
0.000541518
0.000410102
0.000637654
0.000371334
0.000707388
0.000316464
0.000741248
0.000249596
0.000735527
0.000175361
0.000689091
0.000103689
0.000605566
3.71545e-05
0.000492908
-1.95222e-05
0.000368312
-8.06592e-05
0.000247652
-0.000185933
0.000130958
-0.000570305
2.40764e-05
-0.00154469
-0.00219721
-3.67841e-05
0.000244382
-4.36369e-05
0.000421154
-6.66271e-07
0.000431422
7.75702e-05
0.000401235
0.000176723
0.00036961
0.000286357
0.000344395
0.000399607
0.000322809
0.00051032
0.000299388
0.000608337
0.000273317
0.000684928
0.000239874
0.000731188
0.000203336
0.000744189
0.00016236
0.000722481
0.000125397
0.000670093
8.95431e-05
0.000592448
5.81222e-05
0.000511579
2.10164e-07
0.000435542
-0.000109896
0.000338406
-0.000473169
0.000161507
-0.00136779
-0.0020357
-0.000395954
0.000640336
-0.000362085
0.000387285
-0.000203926
0.000273263
-3.54427e-05
0.000232752
0.000126229
0.000207938
0.000283606
0.000187019
0.000436127
0.000170288
0.000581649
0.000153865
0.000714721
0.000140244
0.000831023
0.000123572
0.000924962
0.000109397
0.000995202
9.212e-05
0.00103964
8.09624e-05
0.00106289
6.62908e-05
0.00106749
5.35167e-05
0.00104716
2.05401e-05
0.00101559
-7.83177e-05
0.000923398
-0.000380981
0.000528401
-0.00097279
-0.0015073
0.000640336
0.00102762
0.00130088
0.00153364
0.00174157
0.00192859
0.00209888
0.00225275
0.00239299
0.00251656
0.00262596
0.00271808
0.00279904
0.00286533
0.00291885
0.00293939
0.00286107
0.00248009
0.0015073
)
;

boundaryField
{
    movingWall
    {
        type            calculated;
        value           uniform 0;
    }
    fixedWalls
    {
        type            calculated;
        value           uniform 0;
    }
    frontAndBack
    {
        type            empty;
    }
}


// ************************************************************************* //
