/*--------------------------------*- C++ -*----------------------------------*\
| =========                 |                                                 |
| \\      /  F ield         | OpenFOAM: The Open Source CFD Toolbox           |
|  \\    /   O peration     | Version:  2506                                  |
|   \\  /    A nd           | Website:  www.openfoam.com                      |
|    \\/     M anipulation  |                                                 |
\*---------------------------------------------------------------------------*/
FoamFile
{
    version     2.0;
    format      ascii;
    arch        "LSB;label=32;scalar=64";
    class       volVectorField;
    location    "12";
    object      U;
}
// * * * * * * * * * * * * * * * * * * * * * * * * * * * * * * * * * * * * * //

dimensions      [0 1 -1 0 0 0 0];

internalField   nonuniform List<vector> 
400
(
(0.000261847 -0.000419346 0)
(-0.000109966 -5.37216e-05 0)
(-0.00164752 0.000192897 0)
(-0.00371094 0.000376342 0)
(-0.00650865 0.000699872 0)
(-0.0104934 0.00125292 0)
(-0.0160865 0.00204152 0)
(-0.0234163 0.00295878 0)
(-0.0319803 0.0037086 0)
(-0.0404021 0.00382541 0)
(-0.046634 0.0028985 0)
(-0.0486089 0.000897668 0)
(-0.0448281 -0.00166093 0)
(-0.0350341 -0.00415837 0)
(-0.0212234 -0.00554413 0)
(-0.00608638 -0.00498681 0)
(0.00571411 -0.00278247 0)
(0.0102122 0.000671358 0)
(0.00736273 0.00268724 0)
(0.00218634 0.00212692 0)
(-0.000618763 0.000294372 0)
(-0.00377491 0.00243705 0)
(-0.00956467 0.00378632 0)
(-0.0167071 0.00501292 0)
(-0.0255579 0.00682234 0)
(-0.0367763 0.00936858 0)
(-0.0506189 0.012315 0)
(-0.0664538 0.0147939 0)
(-0.0824425 0.0154837 0)
(-0.0958046 0.0131145 0)
(-0.103685 0.00723768 0)
(-0.104036 -0.00130924 0)
(-0.0961596 -0.0107822 0)
(-0.0800107 -0.0192735 0)
(-0.0575798 -0.0240803 0)
(-0.0316909 -0.0227948 0)
(-0.00726583 -0.0148267 0)
(0.00813391 -0.00233189 0)
(0.00929485 0.00723339 0)
(0.00322335 0.00730376 0)
(-0.00174247 0.00380247 0)
(-0.00804011 0.00946505 0)
(-0.0181249 0.01279 0)
(-0.0300027 0.0159579 0)
(-0.0440915 0.0202203 0)
(-0.061014 0.0254901 0)
(-0.0807294 0.0306457 0)
(-0.102156 0.0337801 0)
(-0.122985 0.0326816 0)
(-0.140049 0.0256723 0)
(-0.150317 0.0126393 0)
(-0.152048 -0.00449796 0)
(-0.14501 -0.0229671 0)
(-0.128838 -0.0398511 0)
(-0.104247 -0.0510128 0)
(-0.0725263 -0.0520355 0)
(-0.0371626 -0.039364 0)
(-0.00609355 -0.0148782 0)
(0.00673266 0.00801298 0)
(0.00329361 0.0128434 0)
(-0.00272917 0.00968414 0)
(-0.0117737 0.0200605 0)
(-0.0254816 0.0257262 0)
(-0.0411649 0.0311374 0)
(-0.0593584 0.038133 0)
(-0.0808178 0.0463222 0)
(-0.105551 0.0538128 0)
(-0.132284 0.057573 0)
(-0.158095 0.0541733 0)
(-0.179087 0.04145 0)
(-0.192133 0.0202874 0)
(-0.196278 -0.00602879 0)
(-0.191998 -0.0342937 0)
(-0.178872 -0.0611533 0)
(-0.156185 -0.0817551 0)
(-0.123176 -0.0900349 0)
(-0.0803847 -0.0786882 0)
(-0.0328123 -0.0438758 0)
(0.00122086 -0.00034974 0)
(0.00394098 0.0169486 0)
(-0.00340042 0.0175022 0)
(-0.0144184 0.033482 0)
(-0.0307263 0.0417257 0)
(-0.0491334 0.0496379 0)
(-0.0703825 0.0597756 0)
(-0.0954632 0.0713859 0)
(-0.124354 0.0813931 0)
(-0.155022 0.0849285 0)
(-0.183214 0.0773534 0)
(-0.20452 0.0574189 0)
(-0.217093 0.0280806 0)
(-0.221783 -0.00677789 0)
(-0.220053 -0.0443512 0)
(-0.211732 -0.0810232 0)
(-0.195408 -0.112818 0)
(-0.168232 -0.13305 0)
(-0.127176 -0.131428 0)
(-0.071474 -0.0952004 0)
(-0.0112631 -0.024977 0)
(0.0056647 0.0180282 0)
(-0.00363253 0.0264845 0)
(-0.0156234 0.0486995 0)
(-0.0333091 0.059766 0)
(-0.0531779 0.0704597 0)
(-0.0760635 0.0840668 0)
(-0.10291 0.0990929 0)
(-0.133128 0.110662 0)
(-0.163372 0.112086 0)
(-0.188478 0.0988232 0)
(-0.205189 0.0718904 0)
(-0.214145 0.0361232 0)
(-0.217589 -0.00475859 0)
(-0.217549 -0.0482818 0)
(-0.213981 -0.0914406 0)
(-0.206344 -0.132764 0)
(-0.190573 -0.167086 0)
(-0.160713 -0.183417 0)
(-0.110612 -0.161149 0)
(-0.0400378 -0.078847 0)
(0.00485866 0.0112738 0)
(-0.00334994 0.0356833 0)
(-0.0151531 0.0644865 0)
(-0.03278 0.0785515 0)
(-0.0524564 0.0920391 0)
(-0.074778 0.108811 0)
(-0.100313 0.126287 0)
(-0.127849 0.13778 0)
(-0.153319 0.135638 0)
(-0.171846 0.1164 0)
(-0.182047 0.0833239 0)
(-0.186528 0.042732 0)
(-0.18792 -0.00124341 0)
(-0.1878 -0.0461203 0)
(-0.186915 -0.0906821 0)
(-0.18645 -0.135813 0)
(-0.182966 -0.1805 0)
(-0.169075 -0.216879 0)
(-0.13547 -0.221942 0)
(-0.0768935 -0.155781 0)
(-0.00335961 -0.00924623 0)
(-0.00255207 0.0440517 0)
(-0.012954 0.0794663 0)
(-0.0289844 0.0965208 0)
(-0.0466437 0.112354 0)
(-0.0660539 0.131316 0)
(-0.0874531 0.149815 0)
(-0.109545 0.159855 0)
(-0.128528 0.153606 0)
(-0.140665 0.128896 0)
(-0.146094 0.0906631 0)
(-0.147809 0.0462273 0)
(-0.147836 0.000403985 0)
(-0.147076 -0.044116 0)
(-0.146773 -0.0871929 0)
(-0.149075 -0.130358 0)
(-0.153336 -0.177145 0)
(-0.153099 -0.226862 0)
(-0.137503 -0.260683 0)
(-0.0989345 -0.227066 0)
(-0.0216824 -0.0523379 0)
(-0.00134863 0.0505801 0)
(-0.00927194 0.0922356 0)
(-0.0223338 0.112067 0)
(-0.0364498 0.12944 0)
(-0.05121 0.149326 0)
(-0.0667453 0.167613 0)
(-0.0822391 0.175646 0)
(-0.0948978 0.165835 0)
(-0.102428 0.137074 0)
(-0.105794 0.0952589 0)
(-0.107377 0.0480613 0)
(-0.108038 0.000393218 0)
(-0.107875 -0.0450292 0)
(-0.107658 -0.0870283 0)
(-0.109844 -0.126383 0)
(-0.116616 -0.168992 0)
(-0.124557 -0.222691 0)
(-0.122109 -0.278892 0)
(-0.0999283 -0.284032 0)
(-0.0332106 -0.12464 0)
(3.35949e-05 0.054541 0)
(-0.00465534 0.10166 0)
(-0.0137752 0.123962 0)
(-0.0233911 0.142004 0)
(-0.0325682 0.16163 0)
(-0.041443 0.178947 0)
(-0.0500177 0.185306 0)
(-0.056862 0.173487 0)
(-0.0610066 0.142815 0)
(-0.0635849 0.0993141 0)
(-0.0659771 0.050633 0)
(-0.0681546 0.00162353 0)
(-0.0696306 -0.0451028 0)
(-0.0704959 -0.0871556 0)
(-0.0727572 -0.123669 0)
(-0.07997 -0.160085 0)
(-0.0926773 -0.210887 0)
(-0.0994227 -0.281192 0)
(-0.0912079 -0.324054 0)
(-0.0304096 -0.201519 0)
(0.00127496 0.0555122 0)
(0.000112927 0.106938 0)
(-0.00454892 0.131356 0)
(-0.00932792 0.149246 0)
(-0.0127326 0.167591 0)
(-0.0148285 0.183502 0)
(-0.016401 0.188918 0)
(-0.0174114 0.176774 0)
(-0.0181397 0.146319 0)
(-0.0196322 0.103239 0)
(-0.0222771 0.0547213 0)
(-0.0256083 0.0053647 0)
(-0.0291124 -0.0420545 0)
(-0.0326477 -0.0845355 0)
(-0.0370385 -0.119632 0)
(-0.045198 -0.15062 0)
(-0.0613046 -0.195108 0)
(-0.0745486 -0.272599 0)
(-0.0791601 -0.347626 0)
(-0.0231497 -0.263922 0)
(0.00216928 0.053747 0)
(0.00428441 0.10802 0)
(0.00401854 0.134154 0)
(0.00389505 0.151302 0)
(0.00589951 0.167556 0)
(0.0102442 0.1816 0)
(0.0154804 0.186635 0)
(0.0204394 0.175711 0)
(0.0239772 0.147417 0)
(0.0249278 0.106571 0)
(0.0232436 0.0596552 0)
(0.0194885 0.0111277 0)
(0.0140271 -0.0358133 0)
(0.00686492 -0.0778239 0)
(-0.00191422 -0.111589 0)
(-0.0130802 -0.138785 0)
(-0.0330256 -0.176557 0)
(-0.0510595 -0.256816 0)
(-0.0677831 -0.35988 0)
(-0.0155237 -0.316109 0)
(0.00251437 0.0499549 0)
(0.00711682 0.10522 0)
(0.0106736 0.132333 0)
(0.0146563 0.148182 0)
(0.021244 0.161634 0)
(0.0310437 0.173097 0)
(0.0424351 0.177559 0)
(0.053306 0.16877 0)
(0.0618045 0.144351 0)
(0.0664115 0.10758 0)
(0.0668163 0.0639621 0)
(0.0634467 0.0179607 0)
(0.0564325 -0.0269262 0)
(0.0460843 -0.0670892 0)
(0.0322153 -0.0989024 0)
(0.0162121 -0.122838 0)
(-0.00837116 -0.154604 0)
(-0.0290509 -0.234828 0)
(-0.0575822 -0.361837 0)
(-0.00768335 -0.358135 0)
(0.00222581 0.045203 0)
(0.00811692 0.0997022 0)
(0.0145682 0.127257 0)
(0.0218758 0.141585 0)
(0.0319898 0.1517 0)
(0.0457519 0.159724 0)
(0.0618895 0.162679 0)
(0.0779216 0.15569 0)
(0.0913433 0.135813 0)
(0.100137 0.104566 0)
(0.103351 0.0661246 0)
(0.101234 0.0247961 0)
(0.09339 -0.0159552 0)
(0.0804725 -0.0523474 0)
(0.0623334 -0.0814608 0)
(0.0414987 -0.102787 0)
(0.0119145 -0.129635 0)
(-0.00847378 -0.209045 0)
(-0.0487315 -0.358546 0)
(0.00053119 -0.394567 0)
(0.00127121 0.0407427 0)
(0.00684499 0.0926748 0)
(0.0146698 0.118661 0)
(0.0243173 0.130688 0)
(0.0371024 0.137427 0)
(0.0535643 0.141895 0)
(0.0727661 0.142796 0)
(0.0924537 0.136846 0)
(0.109848 0.121307 0)
(0.122491 0.0963909 0)
(0.128725 0.0648078 0)
(0.128378 0.0301521 0)
(0.12068 -0.00450953 0)
(0.106617 -0.0353906 0)
(0.0857237 -0.0604698 0)
(0.0615547 -0.079326 0)
(0.0281805 -0.102361 0)
(0.0114832 -0.180916 0)
(-0.0405818 -0.353217 0)
(0.0102531 -0.427775 0)
(-0.000400722 0.0376245 0)
(0.00351712 0.0865721 0)
(0.0116096 0.110764 0)
(0.0227634 0.11988 0)
(0.0374153 0.122835 0)
(0.0555172 0.123503 0)
(0.0762257 0.121866 0)
(0.097722 0.115975 0)
(0.117452 0.103754 0)
(0.132847 0.0847673 0)
(0.141775 0.0605778 0)
(0.143372 0.0337163 0)
(0.136974 0.00684643 0)
(0.123445 -0.0174315 0)
(0.101532 -0.0374776 0)
(0.0762404 -0.0537879 0)
(0.0414644 -0.0749964 0)
(0.0301557 -0.154582 0)
(-0.0321137 -0.34998 0)
(0.0236706 -0.457612 0)
(-0.00323786 0.0411709 0)
(-0.00526389 0.0818471 0)
(0.000873802 0.0971846 0)
(0.0142147 0.102183 0)
(0.0317999 0.102576 0)
(0.0521843 0.101054 0)
(0.0743096 0.0980509 0)
(0.0968093 0.0925961 0)
(0.117648 0.0834545 0)
(0.134614 0.070068 0)
(0.145472 0.0533664 0)
(0.149206 0.034783 0)
(0.144442 0.0165403 0)
(0.132661 -0.000402127 0)
(0.111703 -0.0145658 0)
(0.0886205 -0.0284974 0)
(0.0556029 -0.0502379 0)
(0.0486907 -0.131574 0)
(-0.0172048 -0.342894 0)
(0.0457978 -0.473826 0)
(-0.00512607 0.0329627 0)
(-0.00819517 0.0866314 0)
(-0.00620989 0.0975449 0)
(0.00622967 0.093733 0)
(0.0246242 0.0880993 0)
(0.0457255 0.0830595 0)
(0.0681791 0.0783108 0)
(0.0906091 0.0727996 0)
(0.111585 0.0659278 0)
(0.129388 0.0569296 0)
(0.141832 0.0466093 0)
(0.148851 0.0352775 0)
(0.147572 0.0247149 0)
(0.142162 0.0147662 0)
(0.125968 0.00618303 0)
(0.112989 -0.00598728 0)
(0.083597 -0.0316912 0)
(0.078952 -0.117798 0)
(0.0225087 -0.317309 0)
(0.0866769 -0.449114 0)
(-0.0994538 0.0928845 0)
(-0.0737396 0.0752063 0)
(-0.056408 0.0622058 0)
(-0.0236163 0.0569802 0)
(0.0086275 0.0527506 0)
(0.0408766 0.0489479 0)
(0.0715619 0.045575 0)
(0.101952 0.041998 0)
(0.12869 0.0384834 0)
(0.155175 0.0341127 0)
(0.174276 0.0297552 0)
(0.194054 0.0249017 0)
(0.201721 0.0209613 0)
(0.213802 0.0171431 0)
(0.207091 0.0134225 0)
(0.213037 0.0049873 0)
(0.18469 -0.0192833 0)
(0.189481 -0.0851178 0)
(0.139343 -0.227857 0)
(0.168212 -0.340236 0)
(0.134045 0.1075 0)
(0.167478 0.0836709 0)
(0.225917 0.0620059 0)
(0.282214 0.0484843 0)
(0.327482 0.0401295 0)
(0.368885 0.0340178 0)
(0.40201 0.0296827 0)
(0.436842 0.0258146 0)
(0.462402 0.0231426 0)
(0.493195 0.0201894 0)
(0.511002 0.0183881 0)
(0.53803 0.0157556 0)
(0.546578 0.0147411 0)
(0.569844 0.0123279 0)
(0.566182 0.0120472 0)
(0.582448 0.00806099 0)
(0.553409 0.00354816 0)
(0.542162 -0.0154515 0)
(0.438317 -0.0484204 0)
(0.339206 -0.100189 0)
)
;

boundaryField
{
    movingWall
    {
        type            fixedValue;
        value           uniform (1 0 0);
    }
    fixedWalls
    {
        type            noSlip;
    }
    frontAndBack
    {
        type            empty;
    }
}


// ************************************************************************* //
