/*--------------------------------*- C++ -*----------------------------------*\
| =========                 |                                                 |
| \\      /  F ield         | OpenFOAM: The Open Source CFD Toolbox           |
|  \\    /   O peration     | Version:  2506                                  |
|   \\  /    A nd           | Website:  www.openfoam.com                      |
|    \\/     M anipulation  |                                                 |
\*---------------------------------------------------------------------------*/
FoamFile
{
    version     2.0;
    format      ascii;
    arch        "LSB;label=32;scalar=64";
    class       volScalarField;
    location    "250";
    object      div(phi);
}
// * * * * * * * * * * * * * * * * * * * * * * * * * * * * * * * * * * * * * //

dimensions      [0 0 -1 0 0 0 0];

internalField   nonuniform List<scalar> 
1340
(
-1.89292e-09
-4.09611e-09
-2.41465e-09
-4.75547e-09
2.69383e-09
-5.47997e-09
-1.10073e-08
3.20545e-09
-2.27298e-10
-2.10899e-09
-6.99926e-09
-8.95839e-09
3.0511e-09
-1.98882e-09
1.64615e-09
-6.85881e-09
-9.03377e-09
-4.87668e-09
4.79708e-10
3.76424e-09
-3.09549e-09
1.70094e-09
-3.33551e-10
-2.28415e-09
-1.0716e-08
-1.46987e-09
-1.13751e-08
9.78462e-10
2.67139e-09
-9.08463e-10
-2.68265e-09
2.31027e-09
-1.80931e-09
1.09666e-09
-7.06933e-09
-1.62212e-08
8.87346e-09
-9.82794e-09
-4.07206e-11
-2.10388e-09
3.0948e-09
-8.58013e-10
-2.71064e-09
7.82311e-11
2.88138e-09
-1.93193e-09
1.12725e-09
-8.90066e-10
-2.37006e-09
-2.55456e-08
-6.08288e-09
1.32217e-08
-2.07497e-08
7.41288e-09
-5.49958e-09
1.77304e-09
-1.6816e-09
7.26976e-10
-3.99772e-09
-7.46341e-10
1.5042e-09
-3.72323e-10
-1.54546e-09
2.0919e-09
-1.3581e-09
4.77256e-10
-6.54277e-09
9.56253e-10
2.32377e-08
-3.05688e-08
2.1715e-08
-2.268e-08
8.16728e-10
-6.05291e-09
-1.03042e-08
9.3018e-09
-7.94288e-09
1.461e-09
-2.85239e-09
1.58779e-10
-2.87804e-09
1.22059e-09
-1.3217e-09
-2.76887e-09
2.28412e-10
2.45502e-09
-9.51157e-10
7.09803e-10
-1.74125e-09
-2.30422e-09
-7.78872e-09
1.68254e-08
-1.45837e-08
1.6391e-08
-6.11398e-09
1.42651e-08
-9.5189e-09
2.48736e-08
-1.50318e-08
1.49631e-08
-1.96191e-08
-4.72106e-09
-1.34014e-08
-8.80544e-09
3.32238e-09
-1.57949e-08
-8.00843e-10
-5.7642e-09
1.32093e-09
-7.89554e-10
4.51065e-10
-3.93336e-09
-2.14411e-09
5.45015e-10
7.18742e-11
-6.23481e-10
1.61094e-09
-1.04895e-09
-2.20158e-10
-5.46391e-09
4.89417e-07
-3.07054e-07
1.90148e-07
-2.01823e-07
1.42819e-07
-1.54712e-07
7.93692e-08
-1.17836e-07
6.88732e-08
-7.46017e-08
6.34061e-08
-5.90785e-08
5.44385e-08
-3.66248e-08
4.61906e-08
-2.17536e-08
3.05837e-08
-1.42835e-08
1.68067e-08
-1.41352e-08
9.18864e-09
-1.59274e-08
-9.64463e-09
-1.30176e-08
-9.36922e-09
-4.96172e-09
-2.13051e-08
-3.93646e-09
-9.45776e-09
-4.00749e-10
-9.46179e-10
-1.70318e-09
-3.05984e-09
-8.22259e-10
-1.99975e-09
-2.5635e-09
9.6815e-11
1.88409e-09
-2.46622e-10
1.74376e-10
-2.33918e-09
-2.12486e-09
-1.27025e-05
-3.58129e-06
-4.70868e-06
-2.67048e-06
-3.4934e-06
-1.94755e-06
-2.56821e-06
-1.39327e-06
-1.68703e-06
-1.08835e-06
-1.23774e-06
-1.02343e-06
-8.72664e-07
-1.00183e-06
-6.95572e-07
-9.8967e-07
-4.48399e-07
-1.00056e-06
-2.95511e-07
-1.0782e-06
-1.42644e-07
-1.12201e-06
-2.09422e-08
-1.05935e-06
8.13328e-08
-9.21169e-07
1.61634e-07
-7.75755e-07
1.92862e-07
-6.25894e-07
2.75942e-07
-4.89735e-07
3.12066e-07
-3.94068e-07
3.12901e-07
-3.06426e-07
2.36193e-07
-2.29646e-07
1.74312e-07
-1.80818e-07
1.16535e-07
-1.37161e-07
7.1653e-08
-8.97911e-08
6.08673e-08
-5.05366e-08
4.79723e-08
-2.16689e-08
3.38021e-08
-2.98481e-09
2.52243e-08
1.60709e-09
1.46043e-08
1.88271e-09
3.18314e-09
-9.14266e-10
-6.2452e-10
-6.4564e-09
-9.29262e-09
-8.41891e-09
-8.74238e-09
-8.14135e-09
-1.71295e-08
-7.61068e-09
-1.01466e-08
-4.77678e-09
-2.18568e-09
-3.61001e-09
-1.37878e-09
-6.82077e-10
-3.44493e-09
-3.54953e-09
-2.9986e-10
-1.02183e-10
-1.05051e-10
7.23734e-10
-7.98916e-10
-9.91624e-10
-4.31062e-09
2.02871e-07
1.88525e-06
5.86419e-07
9.21676e-07
-4.84534e-08
4.13315e-07
-3.64556e-07
1.26929e-07
-4.1511e-07
-4.38482e-08
-4.26019e-07
-1.96536e-07
-3.28659e-07
-3.14983e-07
-3.09517e-07
-4.00292e-07
-2.12357e-07
-4.6312e-07
-1.64621e-07
-5.53524e-07
-8.22404e-08
-6.35613e-07
-3.49062e-08
-6.60963e-07
2.57361e-08
-6.11949e-07
6.94462e-08
-5.37283e-07
9.3409e-08
-4.56822e-07
1.63007e-07
-3.78183e-07
1.6554e-07
-3.06337e-07
1.97524e-07
-2.46056e-07
1.79663e-07
-2.01772e-07
1.38613e-07
-1.59563e-07
1.05146e-07
-1.2223e-07
7.79887e-08
-8.64827e-08
5.55955e-08
-5.25385e-08
4.125e-08
-2.64731e-08
3.26907e-08
-1.34255e-08
1.81843e-08
-2.79532e-09
6.71755e-09
-2.35836e-09
8.37999e-10
-3.05145e-09
-4.71177e-09
-4.44412e-09
-6.55647e-09
-5.32818e-09
-6.11739e-09
-8.95691e-09
-7.40058e-09
-7.93171e-09
-5.84827e-09
-2.93847e-09
-4.04004e-09
-2.45014e-09
-1.82329e-09
-2.62572e-09
-1.65379e-09
-1.92121e-09
-3.19842e-09
1.92901e-10
8.7327e-10
7.22582e-11
-7.94384e-10
-2.60963e-09
-1.9987e-09
-3.38558e-06
-8.34973e-07
-1.39598e-06
-5.85412e-07
-1.10657e-06
-4.6702e-07
-9.14368e-07
-4.05579e-07
-8.04598e-07
-3.54533e-07
-6.12496e-07
-3.29806e-07
-4.92776e-07
-3.68253e-07
-3.71651e-07
-4.0633e-07
-3.20151e-07
-4.26656e-07
-2.31044e-07
-4.46345e-07
-1.78242e-07
-4.87491e-07
-1.15606e-07
-5.14493e-07
-6.85425e-08
-4.96376e-07
-1.8362e-08
-4.53603e-07
2.44341e-08
-3.98105e-07
4.82737e-08
-3.299e-07
1.25091e-07
-2.65246e-07
1.4756e-07
-2.20815e-07
1.50863e-07
-1.89948e-07
1.28625e-07
-1.68012e-07
8.67293e-08
-1.40894e-07
5.54596e-08
-1.0479e-07
4.28908e-08
-7.24705e-08
3.41741e-08
-4.60349e-08
2.14267e-08
-2.56216e-08
1.3512e-08
-1.62431e-08
4.84539e-09
-9.51093e-09
-3.33784e-09
-6.54345e-09
-5.98919e-09
-5.54848e-09
-6.48557e-09
-4.10433e-09
-5.59706e-09
-5.17951e-09
-5.5385e-09
-5.46752e-09
-4.28484e-09
-2.77624e-09
-4.49131e-09
-4.12538e-09
-2.22326e-09
8.6097e-10
-1.1645e-09
-7.17689e-09
1.08692e-09
-4.33976e-10
1.75175e-10
-6.57266e-10
-1.06802e-09
-2.01095e-09
-3.26227e-09
-1.20132e-06
-1.78575e-08
-3.5187e-07
-1.90533e-07
-4.66685e-07
-1.87937e-07
-4.52505e-07
-1.61792e-07
-4.39555e-07
-1.46071e-07
-3.63975e-07
-1.38921e-07
-3.05344e-07
-1.7548e-07
-2.18128e-07
-2.29815e-07
-1.89986e-07
-2.7204e-07
-1.3407e-07
-2.88866e-07
-1.16148e-07
-3.15531e-07
-6.78756e-08
-3.48238e-07
-4.66486e-08
-3.70532e-07
-6.78162e-09
-3.64707e-07
1.93716e-08
-3.41973e-07
3.90711e-08
-3.04147e-07
8.30121e-08
-2.54567e-07
1.01034e-07
-2.08884e-07
1.29006e-07
-1.71208e-07
1.17844e-07
-1.42363e-07
9.85671e-08
-1.19708e-07
7.59057e-08
-9.97151e-08
5.0834e-08
-7.66281e-08
3.33283e-08
-5.45538e-08
2.37816e-08
-3.7604e-08
1.15488e-08
-2.36306e-08
2.00336e-09
-1.60724e-08
-3.36492e-09
-1.14307e-08
-7.00962e-09
-8.59692e-09
-6.85559e-09
-6.5441e-09
-5.17411e-09
-6.11614e-09
-3.9069e-09
-6.97277e-09
-2.39559e-09
-4.51351e-09
-5.09445e-09
-5.23603e-09
1.81323e-09
9.76574e-10
-8.4988e-09
2.04321e-09
-4.89966e-09
2.9589e-09
3.14154e-10
-1.45516e-10
-2.39487e-09
-2.78665e-09
-2.14271e-09
-2.94684e-06
-1.65559e-06
-1.41357e-06
-1.04488e-06
-9.38738e-07
-6.17476e-07
-6.87653e-07
-3.76576e-07
-5.25665e-07
-2.91812e-07
-4.49785e-07
-2.50021e-07
-3.60155e-07
-1.75862e-07
-2.99908e-07
-1.55177e-07
-2.25104e-07
-2.2376e-07
-1.99804e-07
-3.10152e-07
-1.6513e-07
-3.11667e-07
-1.53064e-07
-2.83007e-07
-1.02048e-07
-3.03768e-07
-6.30784e-08
-3.38892e-07
-2.14914e-08
-3.34204e-07
1.18695e-08
-2.9753e-07
3.54365e-08
-2.49772e-07
8.40515e-08
-2.05823e-07
9.37863e-08
-1.72775e-07
1.04665e-07
-1.49378e-07
8.71482e-08
-1.29501e-07
6.17271e-08
-1.04216e-07
5.0469e-08
-7.90132e-08
3.94052e-08
-5.59005e-08
2.71288e-08
-3.71958e-08
1.51326e-08
-2.58042e-08
2.55205e-09
-1.70353e-08
-7.79773e-09
-1.03507e-08
-1.25051e-08
-5.19525e-09
-1.34723e-08
-1.69868e-09
-1.19935e-08
-1.53272e-10
-9.89956e-09
-1.75104e-09
-6.32556e-09
-1.05256e-09
-8.98655e-09
-8.15617e-11
2.10526e-09
-7.26419e-09
3.20971e-09
-8.39551e-09
3.65373e-09
2.6093e-09
2.68148e-09
-1.90043e-09
-1.38337e-09
-3.24088e-09
-2.43993e-09
-1.27054e-06
-2.55821e-08
-1.03143e-07
-9.13593e-08
-1.6052e-07
-6.38539e-08
-1.83562e-07
-2.06627e-08
-2.05802e-07
9.04559e-09
-2.31293e-07
-5.36944e-09
-2.16927e-07
-4.12086e-08
-2.17529e-07
-8.5951e-08
-1.61314e-07
-1.25107e-07
-1.49776e-07
-1.66885e-07
-9.29226e-08
-2.06634e-07
-7.40294e-08
-2.56196e-07
-1.96807e-08
-3.00284e-07
1.30526e-08
-3.41536e-07
5.68866e-08
-3.51714e-07
8.46613e-08
-3.35175e-07
1.00661e-07
-3.00072e-07
1.09907e-07
-2.63215e-07
1.09174e-07
-2.26631e-07
1.09533e-07
-1.9188e-07
9.72257e-08
-1.57348e-07
1.1277e-07
-1.25732e-07
1.07105e-07
-1.03164e-07
1.00295e-07
-8.48995e-08
8.47339e-08
-7.28096e-08
5.91197e-08
-6.19408e-08
3.54076e-08
-5.00216e-08
1.87759e-08
-3.72567e-08
7.30471e-09
-2.54775e-08
7.69744e-10
-1.57106e-08
-2.1661e-09
-8.82475e-09
-3.82605e-09
-6.69522e-09
-1.09643e-09
-4.60273e-09
-4.77101e-09
1.26156e-09
-5.14936e-09
1.79148e-09
-6.2317e-09
-2.71585e-10
4.97805e-09
3.08432e-09
3.07648e-09
1.473e-09
-3.59857e-09
-2.46165e-09
-2.23581e-09
-4.63785e-06
-2.77957e-06
-2.26667e-06
-1.80865e-06
-1.48097e-06
-1.15855e-06
-1.00476e-06
-7.38226e-07
-6.93136e-07
-4.52327e-07
-5.09969e-07
-2.99242e-07
-3.64775e-07
-2.66521e-07
-2.8211e-07
-2.66464e-07
-1.93084e-07
-2.13589e-07
-1.46427e-07
-1.6472e-07
-7.62556e-08
-1.69391e-07
-4.89858e-08
-2.10837e-07
-2.68553e-10
-2.32719e-07
2.07798e-08
-2.43899e-07
6.09966e-08
-2.53801e-07
7.99824e-08
-2.55429e-07
9.7175e-08
-2.40633e-07
1.01643e-07
-2.19901e-07
1.00853e-07
-1.96443e-07
9.71853e-08
-1.70186e-07
8.74521e-08
-1.41676e-07
1.01262e-07
-1.13107e-07
9.95098e-08
-9.15859e-08
1.04051e-07
-7.57987e-08
8.94486e-08
-6.58851e-08
6.74857e-08
-5.78531e-08
4.37755e-08
-4.82401e-08
2.36275e-08
-3.72156e-08
9.16902e-09
-2.50086e-08
2.10426e-10
-1.36421e-08
-4.81105e-09
-4.357e-09
-8.32694e-09
-6.82478e-10
-4.98647e-09
-3.05362e-10
-7.46334e-09
2.23912e-09
-6.92227e-09
2.47004e-09
-7.38596e-09
6.821e-09
1.82389e-10
7.35444e-09
5.13539e-09
-1.29479e-09
-6.38487e-10
-3.71731e-09
-1.77244e-09
3.74787e-06
-7.58777e-07
-4.07127e-07
-8.43459e-07
-7.87257e-07
-7.47405e-07
-8.00985e-07
-5.68142e-07
-7.04162e-07
-4.11167e-07
-5.79695e-07
-2.95267e-07
-4.92306e-07
-2.34233e-07
-3.95361e-07
-2.12022e-07
-3.43804e-07
-2.06579e-07
-2.5574e-07
-1.97322e-07
-2.04621e-07
-2.06275e-07
-1.35204e-07
-2.2399e-07
-1.04073e-07
-2.46254e-07
-5.67941e-08
-2.66215e-07
-2.87487e-08
-2.82789e-07
-5.36159e-10
-2.83834e-07
1.83248e-08
-2.63939e-07
3.41516e-08
-2.36369e-07
4.50034e-08
-2.07618e-07
5.23033e-08
-1.83022e-07
5.92573e-08
-1.57192e-07
6.20453e-08
-1.31984e-07
8.47036e-08
-1.08352e-07
9.53107e-08
-9.32941e-08
1.0461e-07
-8.51766e-08
9.42457e-08
-8.21186e-08
7.67307e-08
-7.7612e-08
5.66433e-08
-6.9439e-08
4.18056e-08
-5.79129e-08
3.16494e-08
-4.51413e-08
2.48189e-08
-3.34083e-08
1.7683e-08
-2.35807e-08
1.48145e-08
-1.9059e-08
1.39402e-08
-1.765e-08
8.84575e-09
-1.07582e-08
5.26889e-09
-2.74066e-09
5.8398e-09
6.00917e-09
2.25411e-09
3.86332e-09
-3.9421e-09
-1.94046e-09
-1.99595e-09
-1.15935e-05
-2.4382e-06
-2.24412e-06
-1.5984e-06
-1.46643e-06
-1.03057e-06
-9.8803e-07
-6.75107e-07
-7.07373e-07
-4.56506e-07
-5.16351e-07
-3.17083e-07
-4.07828e-07
-2.38852e-07
-3.23698e-07
-2.04e-07
-2.85952e-07
-1.9509e-07
-2.25687e-07
-1.85427e-07
-1.9006e-07
-1.87872e-07
-1.30455e-07
-2.01489e-07
-9.93931e-08
-2.21662e-07
-5.6082e-08
-2.33456e-07
-2.73832e-08
-2.38189e-07
6.96015e-09
-2.28667e-07
2.92538e-08
-2.07383e-07
4.82793e-08
-1.80039e-07
5.71799e-08
-1.57186e-07
6.14682e-08
-1.36894e-07
6.13289e-08
-1.19905e-07
5.93019e-08
-1.0201e-07
7.13954e-08
-8.52949e-08
7.5693e-08
-7.4141e-08
6.9693e-08
-6.57989e-08
5.73307e-08
-5.91964e-08
3.89633e-08
-5.17006e-08
2.31278e-08
-4.16283e-08
1.46719e-08
-3.06189e-08
7.63442e-09
-2.08452e-08
3.93767e-09
-1.27283e-08
1.05253e-09
-9.95669e-09
1.5272e-09
-1.05189e-08
2.78948e-10
-5.17856e-09
-4.87998e-10
-2.25585e-09
1.07155e-09
2.95821e-09
3.54711e-09
7.39657e-09
-1.89458e-09
2.92732e-10
-3.41711e-09
-1.15912e-09
1.27154e-05
2.87514e-06
2.59721e-06
1.73689e-06
1.51545e-06
1.02184e-06
8.24925e-07
5.98494e-07
4.42745e-07
3.54234e-07
1.76137e-07
2.08922e-07
2.12144e-08
1.27257e-07
-6.79534e-08
7.82833e-08
-1.25198e-07
3.61325e-08
-1.34331e-07
2.77967e-10
-1.43886e-07
-3.4303e-08
-1.03267e-07
-6.76098e-08
-8.01375e-08
-1.02604e-07
-3.76927e-08
-1.27834e-07
-1.6113e-08
-1.45715e-07
1.17198e-08
-1.5237e-07
2.53064e-08
-1.50925e-07
4.21141e-08
-1.4089e-07
4.8994e-08
-1.28893e-07
5.46451e-08
-1.16355e-07
5.69059e-08
-1.02066e-07
5.47939e-08
-8.42533e-08
7.33262e-08
-6.65156e-08
7.91907e-08
-5.3282e-08
8.39857e-08
-4.6077e-08
7.30318e-08
-4.15829e-08
5.37536e-08
-3.82055e-08
3.5175e-08
-3.16689e-08
2.0907e-08
-2.49782e-08
1.09489e-08
-1.73555e-08
4.3932e-09
-1.08354e-08
1.35649e-09
-9.95834e-09
1.03803e-10
-9.20099e-09
-7.68422e-10
-3.68244e-09
-1.49797e-09
-8.02712e-10
-1.22101e-10
1.59484e-09
7.1549e-09
4.42628e-10
4.77581e-09
-3.67821e-09
-9.81564e-10
-1.66173e-09
-4.87397e-06
-5.13418e-07
-2.41916e-08
-1.64699e-07
3.14495e-07
-4.20185e-08
3.77672e-07
1.93126e-09
3.0217e-07
2.64117e-08
2.35119e-07
5.32534e-08
1.63533e-07
7.46782e-08
1.08828e-07
8.45201e-08
7.33845e-08
7.7394e-08
3.697e-08
5.31268e-08
3.04939e-08
2.45933e-08
1.36862e-08
-9.92035e-09
2.0906e-08
-4.62717e-08
1.60565e-08
-8.06801e-08
2.56554e-08
-1.03191e-07
2.61109e-08
-1.19134e-07
3.50386e-08
-1.28343e-07
3.89842e-08
-1.29959e-07
4.6802e-08
-1.24217e-07
5.2243e-08
-1.15048e-07
5.46057e-08
-1.03638e-07
5.78451e-08
-8.85142e-08
5.50506e-08
-6.93115e-08
7.14423e-08
-4.93533e-08
7.8422e-08
-3.55957e-08
7.91997e-08
-2.73861e-08
6.87734e-08
-2.44646e-08
4.9668e-08
-2.27222e-08
3.12402e-08
-1.91802e-08
1.74745e-08
-1.41196e-08
8.98301e-09
-8.39489e-09
4.75491e-09
-8.44146e-09
2.55652e-09
-7.32494e-09
1.17803e-09
-1.93588e-09
-4.83315e-10
7.50375e-10
-4.64827e-10
4.0311e-09
1.65681e-09
8.24595e-09
-2.73682e-09
1.30971e-09
-2.90366e-09
-1.0432e-09
1.82732e-06
-1.418e-06
-1.00845e-06
-1.23598e-06
-8.86166e-07
-9.00097e-07
-6.42758e-07
-5.85153e-07
-4.33035e-07
-3.53945e-07
-2.97777e-07
-2.04044e-07
-2.12728e-07
-1.15294e-07
-1.70752e-07
-7.78364e-08
-1.23737e-07
-6.80879e-08
-1.01753e-07
-7.06279e-08
-6.04335e-08
-7.93075e-08
-3.50415e-08
-9.49431e-08
3.63081e-09
-1.01294e-07
2.36673e-08
-1.01584e-07
4.76577e-08
-9.80129e-08
5.52768e-08
-9.80738e-08
6.64474e-08
-9.73118e-08
6.80291e-08
-9.91056e-08
7.16278e-08
-9.77945e-08
7.15613e-08
-9.63478e-08
7.20625e-08
-8.97872e-08
7.17528e-08
-8.11656e-08
7.02994e-08
-6.89229e-08
7.82191e-08
-5.62928e-08
7.52601e-08
-4.5505e-08
7.42184e-08
-3.52912e-08
6.26893e-08
-2.72681e-08
4.81295e-08
-1.98337e-08
3.47317e-08
-1.36121e-08
2.36435e-08
-8.47339e-09
1.50281e-08
-3.49458e-09
9.66161e-09
-4.50688e-09
6.99038e-09
-3.73506e-09
5.47875e-09
-8.18753e-10
2.01492e-09
1.18241e-09
1.6866e-09
1.90637e-09
8.47125e-09
-1.74104e-09
4.35114e-09
-2.39422e-09
-3.64678e-10
-7.39605e-10
9.18705e-06
1.7734e-06
1.96896e-06
1.02424e-06
1.12756e-06
5.50447e-07
6.51994e-07
3.10616e-07
3.28622e-07
1.87572e-07
1.50789e-07
1.33103e-07
6.03229e-09
1.00154e-07
-7.20113e-08
7.94823e-08
-1.40184e-07
6.3074e-08
-1.78772e-07
5.47229e-08
-1.9954e-07
4.11547e-08
-2.20715e-07
1.72576e-08
-2.02828e-07
-7.68982e-09
-2.04628e-07
-4.19182e-08
-1.461e-07
-8.07392e-08
-1.15544e-07
-1.26478e-07
-5.00451e-08
-1.60945e-07
-2.78697e-09
-1.79915e-07
4.6468e-08
-1.76036e-07
8.15733e-08
-1.53259e-07
9.54214e-08
-1.21591e-07
1.02342e-07
-8.77405e-08
9.33994e-08
-5.73215e-08
1.00878e-07
-3.03825e-08
1.04068e-07
-1.25896e-08
1.06556e-07
-2.93387e-09
9.56354e-08
-6.12656e-10
7.67925e-08
-2.223e-09
5.39227e-08
-3.40846e-09
3.54605e-08
-2.57904e-09
2.28922e-08
-1.5517e-10
1.49406e-08
-2.43818e-09
1.03754e-08
-1.80083e-09
8.13593e-09
1.12562e-09
3.97393e-09
3.40919e-09
1.73805e-09
6.37578e-09
-9.83932e-10
5.80339e-09
-4.46976e-10
1.71786e-09
4.08471e-10
1.80095e-10
-5.68677e-06
-3.85403e-07
-9.87291e-07
-5.49127e-08
-7.44583e-07
8.20089e-08
-7.79551e-07
7.99787e-08
-8.8125e-07
2.06137e-08
-9.64482e-07
-8.49468e-08
-1.04618e-06
-2.30061e-07
-1.0485e-06
-3.82559e-07
-1.05295e-06
-5.22464e-07
-9.17373e-07
-6.24997e-07
-8.14336e-07
-7.2921e-07
-5.9399e-07
-7.86813e-07
-4.33488e-07
-8.01644e-07
-2.13069e-07
-7.37107e-07
-4.55515e-08
-6.24657e-07
9.8162e-08
-5.23692e-07
1.92171e-07
-4.35779e-07
2.17644e-07
-3.56011e-07
2.2742e-07
-2.77645e-07
1.96473e-07
-2.00801e-07
1.67966e-07
-1.34294e-07
1.41215e-07
-9.17089e-08
1.23863e-07
-6.67587e-08
1.13249e-07
-5.09154e-08
1.07413e-07
-3.74851e-08
8.75293e-08
-2.66776e-08
7.26904e-08
-1.62878e-08
5.179e-08
-8.51279e-09
3.81911e-08
-2.24312e-09
2.95909e-08
1.61208e-09
2.2549e-08
4.17957e-09
1.65659e-08
2.01659e-09
1.23468e-08
3.13117e-09
1.18179e-08
2.81195e-09
6.85989e-09
2.23551e-09
3.95685e-09
3.37671e-10
4.46149e-09
1.15735e-09
2.56537e-09
1.43049e-09
5.37042e-10
1.07096e-10
5.2588e-06
1.2742e-06
2.11573e-06
1.00682e-06
1.78957e-06
8.27246e-07
1.63399e-06
7.36113e-07
1.58762e-06
7.11887e-07
1.53822e-06
7.40758e-07
1.53144e-06
8.22368e-07
1.47684e-06
9.32753e-07
1.41699e-06
1.01901e-06
1.3007e-06
1.04731e-06
1.16412e-06
1.06322e-06
9.97781e-07
1.0522e-06
8.47233e-07
9.92709e-07
6.81768e-07
8.12455e-07
5.40852e-07
5.68219e-07
3.85902e-07
4.06937e-07
2.46246e-07
3.29696e-07
1.86748e-07
2.8698e-07
1.4188e-07
2.32896e-07
1.53574e-07
1.63851e-07
1.64509e-07
9.26957e-08
1.66241e-07
4.6936e-08
1.62238e-07
3.19344e-08
1.36834e-07
3.59789e-08
1.25147e-07
4.48294e-08
1.14232e-07
4.88557e-08
1.02149e-07
4.58811e-08
8.77569e-08
3.77284e-08
6.72693e-08
2.74147e-08
4.63661e-08
1.83682e-08
2.95712e-08
1.20865e-08
1.79267e-08
5.59779e-09
1.24314e-08
6.17645e-09
9.44479e-09
2.85484e-09
3.87844e-09
1.66111e-09
1.35119e-09
1.65426e-09
1.00716e-09
1.35853e-09
8.89593e-10
3.48605e-10
6.55184e-11
0
)
;

boundaryField
{
    inlet
    {
        type            extrapolatedCalculated;
        value           nonuniform List<scalar> 
27
(
-1.89292e-09
-2.41465e-09
-5.47997e-09
-2.10899e-09
-6.85881e-09
-2.28415e-09
-7.06933e-09
-2.37006e-09
-6.54277e-09
-2.30422e-09
-5.46391e-09
-2.12486e-09
-4.31062e-09
-1.9987e-09
-3.26227e-09
-2.14271e-09
-2.43993e-09
-2.23581e-09
-1.77244e-09
-1.99595e-09
-1.15912e-09
-1.66173e-09
-1.0432e-09
-7.39605e-10
1.80095e-10
1.07096e-10
0
)
;
    }
    outlet
    {
        type            extrapolatedCalculated;
        value           nonuniform List<scalar> 
78
(
5.2588e-06
1.2742e-06
2.11573e-06
1.00682e-06
1.78957e-06
8.27246e-07
1.63399e-06
7.36113e-07
1.58762e-06
7.11887e-07
1.53822e-06
7.40758e-07
1.53144e-06
8.22368e-07
1.47684e-06
9.32753e-07
1.41699e-06
1.01901e-06
1.3007e-06
1.04731e-06
1.16412e-06
1.06322e-06
9.97781e-07
1.0522e-06
8.47233e-07
9.92709e-07
6.81768e-07
8.12455e-07
5.40852e-07
5.68219e-07
3.85902e-07
4.06937e-07
2.46246e-07
3.29696e-07
1.86748e-07
2.8698e-07
1.4188e-07
2.32896e-07
1.53574e-07
1.63851e-07
1.64509e-07
9.26957e-08
1.66241e-07
4.6936e-08
1.62238e-07
3.19344e-08
1.36834e-07
3.59789e-08
1.25147e-07
4.48294e-08
1.14232e-07
4.88557e-08
1.02149e-07
4.58811e-08
8.77569e-08
3.77284e-08
6.72693e-08
2.74147e-08
4.63661e-08
1.83682e-08
2.95712e-08
1.20865e-08
1.79267e-08
5.59779e-09
1.24314e-08
6.17645e-09
9.44479e-09
2.85484e-09
3.87844e-09
1.66111e-09
1.35119e-09
1.65426e-09
1.00716e-09
1.35853e-09
8.89593e-10
3.48605e-10
6.55184e-11
0
)
;
    }
    walls
    {
        type            extrapolatedCalculated;
        value           nonuniform List<scalar> 0();
    }
    frontAndBack
    {
        type            empty;
    }
    procBoundary7to3
    {
        type            processor;
        value           nonuniform List<scalar> 
16
(
-1.21985e-05
3.4283e-06
-6.49784e-07
-3.79565e-07
-3.19676e-06
-3.10793e-07
-6.61143e-06
1.37912e-06
-2.31005e-06
-2.31005e-06
3.01691e-06
-5.36495e-07
-1.78531e-06
1.85933e-06
-1.6271e-07
1.00209e-06
)
;
    }
    procBoundary7to6
    {
        type            processor;
        value           nonuniform List<scalar> 
91
(
-8.04244e-09
8.4734e-09
8.4734e-09
9.20478e-09
9.20478e-09
9.26101e-09
9.26101e-09
3.21058e-09
1.06925e-08
1.06925e-08
4.66646e-09
4.81046e-09
4.81046e-09
3.26682e-09
-1.81924e-09
1.09723e-08
1.09723e-08
2.32274e-08
-4.78763e-09
9.95881e-09
9.95881e-09
1.25177e-08
3.50281e-11
-1.71456e-08
2.74879e-08
2.74879e-08
-1.38338e-08
-1.39618e-08
2.00192e-08
-2.51954e-08
2.12229e-08
2.12229e-08
-1.52412e-09
-3.21132e-09
-2.53544e-09
2.70435e-09
-4.34786e-09
7.42563e-09
-3.96609e-09
-3.96609e-09
1.07838e-07
-2.72309e-07
7.99224e-08
-1.52393e-07
6.47861e-08
-8.70985e-08
3.55017e-08
-4.3572e-08
1.27201e-08
-1.74126e-08
1.92608e-08
-3.6932e-08
-3.6932e-08
-2.33121e-08
1.48067e-06
-1.49751e-07
1.28984e-06
-2.53883e-07
1.01901e-06
-3.71141e-07
8.60337e-07
-4.67848e-07
6.65469e-07
-5.89988e-07
6.3339e-07
-6.76229e-07
5.28011e-07
-7.5508e-07
5.5664e-07
-8.51285e-07
5.52136e-07
-1.02263e-06
6.08899e-07
-1.15349e-06
6.52186e-07
-1.15825e-06
6.5985e-07
-1.04834e-06
6.52588e-07
-9.1474e-07
6.08083e-07
-7.78182e-07
5.65122e-07
-6.58509e-07
4.72246e-07
-5.31803e-07
4.07417e-07
-4.57394e-07
5.32045e-07
-8.50029e-07
-8.50029e-07
)
;
    }
}


// ************************************************************************* //
