/*--------------------------------*- C++ -*----------------------------------*\
| =========                 |                                                 |
| \\      /  F ield         | OpenFOAM: The Open Source CFD Toolbox           |
|  \\    /   O peration     | Version:  2506                                  |
|   \\  /    A nd           | Website:  www.openfoam.com                      |
|    \\/     M anipulation  |                                                 |
\*---------------------------------------------------------------------------*/
FoamFile
{
    version     2.0;
    format      ascii;
    arch        "LSB;label=32;scalar=64";
    class       volScalarField;
    location    "250";
    object      nut;
}
// * * * * * * * * * * * * * * * * * * * * * * * * * * * * * * * * * * * * * //

dimensions      [0 2 -1 0 0 0 0];

internalField   nonuniform List<scalar> 
1340
(
6.10203e-06
6.10279e-06
6.10237e-06
6.08336e-06
6.10342e-06
6.1028e-06
6.08136e-06
6.08328e-06
6.10409e-06
6.10332e-06
6.07232e-06
6.07458e-06
6.08124e-06
6.08317e-06
6.1048e-06
6.10393e-06
6.07741e-06
6.07307e-06
6.07228e-06
6.07451e-06
6.08113e-06
6.08304e-06
6.10554e-06
6.10463e-06
6.0902e-06
6.08638e-06
6.08218e-06
6.07782e-06
6.07331e-06
6.07225e-06
6.07444e-06
6.08101e-06
6.08289e-06
6.10631e-06
6.10543e-06
6.09958e-06
6.09669e-06
6.09405e-06
6.09081e-06
6.08695e-06
6.08267e-06
6.07825e-06
6.07358e-06
6.07224e-06
6.07435e-06
6.0809e-06
6.0827e-06
6.10711e-06
6.10633e-06
6.11202e-06
6.10993e-06
6.10719e-06
6.10382e-06
6.10033e-06
6.09739e-06
6.09472e-06
6.09145e-06
6.08755e-06
6.0832e-06
6.07871e-06
6.07389e-06
6.07224e-06
6.07425e-06
6.08078e-06
6.08249e-06
6.10792e-06
6.10733e-06
6.11834e-06
6.11761e-06
6.11672e-06
6.11567e-06
6.11443e-06
6.11289e-06
6.11081e-06
6.10809e-06
6.10469e-06
6.10113e-06
6.09813e-06
6.09543e-06
6.09214e-06
6.0882e-06
6.08376e-06
6.0792e-06
6.07423e-06
6.07227e-06
6.07414e-06
6.08065e-06
6.08225e-06
6.10876e-06
6.10843e-06
6.1205e-06
6.12054e-06
6.12057e-06
6.12054e-06
6.12042e-06
6.12017e-06
6.11978e-06
6.11923e-06
6.11851e-06
6.11762e-06
6.11657e-06
6.11533e-06
6.1138e-06
6.11175e-06
6.10903e-06
6.10561e-06
6.10198e-06
6.09891e-06
6.09618e-06
6.09287e-06
6.08889e-06
6.08437e-06
6.07973e-06
6.07461e-06
6.07231e-06
6.07402e-06
6.08052e-06
6.08197e-06
6.10959e-06
6.10963e-06
6.12017e-06
6.12095e-06
6.121e-06
6.12101e-06
6.12099e-06
6.1209e-06
6.12087e-06
6.12091e-06
6.121e-06
6.1211e-06
6.1212e-06
6.12128e-06
6.12134e-06
6.12139e-06
6.12142e-06
6.12141e-06
6.12131e-06
6.12108e-06
6.1207e-06
6.12017e-06
6.11945e-06
6.11856e-06
6.11751e-06
6.11628e-06
6.11476e-06
6.11273e-06
6.11003e-06
6.10658e-06
6.10288e-06
6.09974e-06
6.09697e-06
6.09364e-06
6.08962e-06
6.08502e-06
6.0803e-06
6.07503e-06
6.07239e-06
6.0739e-06
6.08039e-06
6.08166e-06
6.11043e-06
6.11093e-06
1.99341e-08
8.94147e-11
0
0
0.000153783
0.000533763
0.0151897
0.0519569
0.107637
0.170078
0.228936
0.278619
0.316657
0.342574
0.357598
0.36405
0.364853
0.353318
0.320793
0.261611
0.179119
0.0919669
0.0292031
0.00108707
0.000313397
0
0
0
2.80222e-09
6.719e-07
6.49336e-06
7.82466e-06
6.39981e-06
5.94392e-06
6.0561e-06
6.13857e-06
6.13434e-06
6.12362e-06
6.12279e-06
6.1227e-06
6.12173e-06
6.12143e-06
6.12165e-06
6.12179e-06
6.1218e-06
6.12184e-06
6.12193e-06
6.12205e-06
6.12215e-06
6.12222e-06
6.12227e-06
6.12232e-06
6.12232e-06
6.12224e-06
6.12203e-06
6.12167e-06
6.12115e-06
6.12044e-06
6.11956e-06
6.11851e-06
6.11728e-06
6.11577e-06
6.11376e-06
6.11108e-06
6.10762e-06
6.10385e-06
6.10063e-06
6.09782e-06
6.09446e-06
6.0904e-06
6.08572e-06
6.0809e-06
6.07549e-06
6.0725e-06
6.07376e-06
6.08024e-06
6.08134e-06
6.11126e-06
6.11233e-06
6.58357e-06
5.38747e-08
2.42373e-10
0
0
2.77545e-09
0.00189416
0.00741556
0.0340935
0.0830125
0.144451
0.20646
0.261058
0.304278
0.334753
0.353062
0.361815
0.363753
0.354608
0.325687
0.270398
0.190716
0.103913
0.0356726
0.00254848
0.000718811
0
0
0
8.07761e-10
1.78244e-07
5.57704e-06
8.31112e-06
6.69905e-06
5.94981e-06
6.01341e-06
6.12491e-06
6.1278e-06
6.11576e-06
6.11968e-06
6.12436e-06
6.12399e-06
6.12253e-06
6.12222e-06
6.12251e-06
6.12274e-06
6.12285e-06
6.12294e-06
6.12304e-06
6.12314e-06
6.1232e-06
6.12325e-06
6.12327e-06
6.12321e-06
6.12302e-06
6.12268e-06
6.12218e-06
6.12149e-06
6.12061e-06
6.11956e-06
6.11833e-06
6.11683e-06
6.11485e-06
6.11219e-06
6.10872e-06
6.10488e-06
6.10157e-06
6.09872e-06
6.09534e-06
6.09124e-06
6.08647e-06
6.08156e-06
6.076e-06
6.07265e-06
6.07363e-06
6.08008e-06
6.081e-06
6.11208e-06
6.11382e-06
8.01631e-06
6.5834e-06
1.46796e-07
6.80039e-10
0
0
0
0.000492403
0.00176806
0.0190896
0.0591924
0.117145
0.180993
0.24033
0.289141
0.324868
0.347472
0.359113
0.362351
0.355498
0.330071
0.278742
0.202221
0.115215
0.0426703
0.00509774
0.0013823
0
0
0
5.8188e-11
9.0192e-09
4.00821e-06
8.47418e-06
7.11336e-06
6.01948e-06
6.00865e-06
6.16739e-06
6.17073e-06
6.12516e-06
6.11241e-06
6.12005e-06
6.12522e-06
6.12493e-06
6.12368e-06
6.12341e-06
6.12366e-06
6.12388e-06
6.124e-06
6.12409e-06
6.12416e-06
6.12423e-06
6.12426e-06
6.12422e-06
6.12406e-06
6.12374e-06
6.12326e-06
6.12258e-06
6.12171e-06
6.12066e-06
6.11943e-06
6.11795e-06
6.11599e-06
6.11336e-06
6.10989e-06
6.10598e-06
6.10258e-06
6.09967e-06
6.09627e-06
6.09213e-06
6.08728e-06
6.08226e-06
6.07656e-06
6.07284e-06
6.07349e-06
6.07991e-06
6.08065e-06
6.11287e-06
6.1154e-06
6.23444e-06
7.70519e-06
6.42571e-06
6.67689e-07
3.10239e-09
0
0
0
4.12927e-07
0.00248668
0.00974654
0.0390359
0.0902977
0.153701
0.217023
0.271634
0.313193
0.340679
0.355562
0.360195
0.355488
0.333469
0.286168
0.212899
0.125856
0.049851
0.00808715
0.00213774
0
0
0
1.28613e-14
9.65722e-09
2.25002e-06
8.23262e-06
7.4827e-06
5.92711e-06
5.71626e-06
6.02299e-06
6.186e-06
6.16846e-06
6.12499e-06
6.11434e-06
6.12052e-06
6.12505e-06
6.12541e-06
6.12479e-06
6.1247e-06
6.12492e-06
6.1251e-06
6.12519e-06
6.12525e-06
6.1253e-06
6.12528e-06
6.12514e-06
6.12485e-06
6.12439e-06
6.12373e-06
6.12287e-06
6.12182e-06
6.1206e-06
6.11912e-06
6.11719e-06
6.1146e-06
6.11113e-06
6.10715e-06
6.10366e-06
6.10068e-06
6.09725e-06
6.09308e-06
6.08815e-06
6.08301e-06
6.07718e-06
6.07309e-06
6.07336e-06
6.07973e-06
6.08029e-06
6.11361e-06
6.11705e-06
6.01101e-06
6.2138e-06
7.32822e-06
6.58051e-06
2.04095e-06
9.37898e-09
5.53437e-16
0
0
0
0.000827445
0.00307214
0.022268
0.0639032
0.123295
0.188968
0.249824
0.298797
0.332928
0.352426
0.359423
0.356539
0.337657
0.294562
0.224749
0.138123
0.0586024
0.0107859
0.00322423
6.65226e-05
0
0
0
4.71427e-09
1.11014e-06
7.59265e-06
9.47211e-06
7.26799e-06
5.93683e-06
5.8038e-06
6.03877e-06
6.16803e-06
6.16276e-06
6.13103e-06
6.12037e-06
6.1231e-06
6.12598e-06
6.12633e-06
6.12603e-06
6.12603e-06
6.1262e-06
6.12632e-06
6.12638e-06
6.12638e-06
6.12627e-06
6.12601e-06
6.12557e-06
6.12494e-06
6.12409e-06
6.12305e-06
6.12182e-06
6.12036e-06
6.11846e-06
6.1159e-06
6.11244e-06
6.10841e-06
6.10481e-06
6.10176e-06
6.09831e-06
6.0941e-06
6.08908e-06
6.08383e-06
6.07785e-06
6.07339e-06
6.07324e-06
6.07953e-06
6.07994e-06
6.11434e-06
6.11883e-06
6.12069e-06
6.059e-06
6.17569e-06
6.69657e-06
6.70246e-06
4.56054e-06
2.21041e-07
1.06025e-09
9.31975e-18
0
0
8.84077e-05
0.000347763
0.008813
0.0324721
0.0758149
0.133897
0.197067
0.25546
0.302203
0.33406
0.351133
0.354183
0.34286
0.310647
0.253146
0.175386
0.0945434
0.0358988
0.00422476
0.00150102
1.64376e-06
0
0
9.53675e-13
3.62672e-09
5.62682e-07
5.43379e-06
8.58272e-06
7.4031e-06
6.12085e-06
5.82857e-06
5.99684e-06
6.13851e-06
6.15488e-06
6.13193e-06
6.12262e-06
6.12494e-06
6.1275e-06
6.12784e-06
6.1276e-06
6.12759e-06
6.12771e-06
6.12777e-06
6.12771e-06
6.12749e-06
6.12708e-06
6.12647e-06
6.12564e-06
6.1246e-06
6.12337e-06
6.12191e-06
6.12004e-06
6.11752e-06
6.11408e-06
6.10997e-06
6.10624e-06
6.10309e-06
6.09959e-06
6.09534e-06
6.09022e-06
6.08482e-06
6.07868e-06
6.07379e-06
6.0731e-06
6.07932e-06
6.07957e-06
6.11499e-06
6.12072e-06
6.12314e-06
6.12078e-06
6.07141e-06
6.10568e-06
6.34901e-06
7.16677e-06
6.10776e-06
3.27294e-06
6.33852e-09
3.52696e-11
0
0
1.45139e-10
3.55949e-05
0.00204057
0.00750241
0.02899
0.0692473
0.124883
0.187266
0.246451
0.294761
0.328202
0.345628
0.347024
0.330507
0.290459
0.225974
0.147988
0.0751795
0.0259423
0.00137956
0.000600346
0
0
0
2.77787e-13
3.20855e-09
6.23626e-07
5.97209e-06
8.92477e-06
7.32865e-06
6.06988e-06
5.88164e-06
6.06323e-06
6.16208e-06
6.15238e-06
6.1292e-06
6.12475e-06
6.12795e-06
6.12967e-06
6.1297e-06
6.12953e-06
6.1295e-06
6.12945e-06
6.12928e-06
6.12892e-06
6.12835e-06
6.12753e-06
6.12649e-06
6.12525e-06
6.12378e-06
6.12193e-06
6.11945e-06
6.11604e-06
6.11186e-06
6.10798e-06
6.10468e-06
6.1011e-06
6.0968e-06
6.09157e-06
6.08598e-06
6.07966e-06
6.07431e-06
6.07298e-06
6.07908e-06
6.07924e-06
6.11564e-06
6.12272e-06
6.1119e-06
6.11639e-06
6.11235e-06
6.09196e-06
6.07379e-06
6.25445e-06
6.72852e-06
7.24988e-06
5.45437e-06
1.11783e-06
5.26077e-09
2.75247e-16
0
0
0
2.695e-05
0.00175145
0.00635338
0.0269064
0.0661919
0.121266
0.183765
0.24362
0.292643
0.326114
0.341585
0.338732
0.314167
0.264499
0.194428
0.118216
0.0537219
0.0135437
0.00387918
9.62591e-05
0
0
0
3.71077e-12
5.95233e-11
1.66344e-06
7.44743e-06
8.27956e-06
6.55513e-06
5.84752e-06
5.94008e-06
6.12265e-06
6.16346e-06
6.14109e-06
6.12802e-06
6.12836e-06
6.13048e-06
6.13117e-06
6.13134e-06
6.13137e-06
6.13122e-06
6.13085e-06
6.1303e-06
6.12951e-06
6.12848e-06
6.12723e-06
6.12575e-06
6.12392e-06
6.12149e-06
6.11812e-06
6.11388e-06
6.10984e-06
6.10639e-06
6.10272e-06
6.09836e-06
6.09302e-06
6.08725e-06
6.08073e-06
6.07493e-06
6.0729e-06
6.07882e-06
6.07889e-06
6.1162e-06
6.12475e-06
6.1091e-06
6.11113e-06
6.1107e-06
6.10049e-06
6.0721e-06
6.14166e-06
6.38196e-06
7.14926e-06
6.8188e-06
4.25262e-06
1.48031e-07
7.09445e-10
0
0
0
0
1.95865e-05
0.00173313
0.00631051
0.0269829
0.0665973
0.122239
0.185453
0.245761
0.294193
0.325418
0.33589
0.325742
0.291426
0.233047
0.159628
0.0865641
0.0338369
0.00545151
0.00163151
0
0
0
3.57902e-17
1.03077e-09
2.0541e-07
5.17489e-06
9.05586e-06
7.52742e-06
6.11159e-06
5.8819e-06
6.05786e-06
6.15391e-06
6.15072e-06
6.13594e-06
6.13312e-06
6.1335e-06
6.13309e-06
6.13285e-06
6.13295e-06
6.13286e-06
6.13238e-06
6.1316e-06
6.13057e-06
6.12931e-06
6.12782e-06
6.126e-06
6.12363e-06
6.12031e-06
6.11604e-06
6.11186e-06
6.10824e-06
6.10444e-06
6.10003e-06
6.09459e-06
6.08863e-06
6.0819e-06
6.07568e-06
6.07288e-06
6.07853e-06
6.07853e-06
6.11663e-06
6.12677e-06
6.10762e-06
6.10769e-06
6.10835e-06
6.11013e-06
6.10087e-06
6.08738e-06
6.06566e-06
6.22291e-06
6.63277e-06
7.27545e-06
6.09506e-06
1.93311e-06
9.18363e-09
4.51773e-16
0
0
0
0
2.25165e-05
0.00196018
0.00723107
0.0291522
0.0704697
0.127821
0.192068
0.251978
0.297818
0.324013
0.327634
0.307883
0.262902
0.196294
0.121611
0.0569837
0.0164498
0.00453058
7.78549e-05
0
0
0
4.59644e-13
6.85932e-13
1.62504e-06
7.71336e-06
8.1596e-06
6.51525e-06
5.92551e-06
6.01103e-06
6.12807e-06
6.14019e-06
6.12954e-06
6.13201e-06
6.13667e-06
6.13687e-06
6.13546e-06
6.13473e-06
6.13437e-06
6.13376e-06
6.13278e-06
6.13151e-06
6.13001e-06
6.1282e-06
6.12587e-06
6.12262e-06
6.11834e-06
6.11404e-06
6.11023e-06
6.10629e-06
6.10181e-06
6.09627e-06
6.09013e-06
6.08318e-06
6.07654e-06
6.07293e-06
6.07821e-06
6.07814e-06
6.11693e-06
6.12877e-06
6.10732e-06
6.10706e-06
6.10688e-06
6.1074e-06
6.10793e-06
6.10577e-06
6.09223e-06
6.06749e-06
6.10058e-06
6.31964e-06
6.96935e-06
7.03509e-06
4.73011e-06
1.93003e-07
9.35174e-10
3.39988e-18
0
0
0
0
3.7435e-05
0.00246511
0.00924934
0.0338483
0.0784339
0.138353
0.203332
0.261242
0.302324
0.320727
0.315062
0.283668
0.227146
0.154834
0.0833391
0.0314086
0.00452166
0.00134255
0
0
0
5.19836e-19
2.36872e-09
5.48603e-07
5.97697e-06
8.4062e-06
6.88747e-06
6.01429e-06
6.03432e-06
6.17872e-06
6.17963e-06
6.13669e-06
6.12486e-06
6.13238e-06
6.13776e-06
6.13802e-06
6.1369e-06
6.13598e-06
6.13505e-06
6.13383e-06
6.13233e-06
6.13052e-06
6.12823e-06
6.12507e-06
6.12081e-06
6.11641e-06
6.1124e-06
6.10829e-06
6.10373e-06
6.0981e-06
6.09178e-06
6.08459e-06
6.07756e-06
6.07308e-06
6.07786e-06
6.07772e-06
6.11705e-06
6.13073e-06
6.10744e-06
6.10718e-06
6.10696e-06
6.10673e-06
6.1069e-06
6.10719e-06
6.10774e-06
6.0994e-06
6.08213e-06
6.05489e-06
6.17117e-06
6.50237e-06
7.34113e-06
5.93426e-06
2.64827e-06
1.17595e-09
8.05792e-12
0
0
0
0
0
0.000314286
0.000941914
0.0122931
0.0412554
0.0906817
0.153707
0.218541
0.272282
0.30578
0.31376
0.295953
0.251244
0.184618
0.111151
0.0492758
0.0126736
0.00345516
1.65799e-05
0
0
0
3.30805e-10
6.48066e-08
4.10141e-06
8.53484e-06
7.18665e-06
5.79351e-06
5.73546e-06
6.07289e-06
6.21359e-06
6.18369e-06
6.14267e-06
6.13358e-06
6.13707e-06
6.13907e-06
6.13864e-06
6.1375e-06
6.13621e-06
6.1347e-06
6.1329e-06
6.13065e-06
6.12758e-06
6.12337e-06
6.11891e-06
6.11471e-06
6.11039e-06
6.10572e-06
6.10002e-06
6.09351e-06
6.08609e-06
6.07867e-06
6.07333e-06
6.07755e-06
6.07729e-06
6.11713e-06
6.13262e-06
6.10779e-06
6.10751e-06
6.1073e-06
6.10707e-06
6.10689e-06
6.10672e-06
6.10719e-06
6.10759e-06
6.10613e-06
6.0914e-06
6.069e-06
6.06677e-06
6.3071e-06
6.85988e-06
7.28208e-06
4.68408e-06
8.68452e-07
4.0996e-09
1.12925e-15
0
0
0
0
2.8171e-08
0.000472225
0.00144447
0.0169022
0.052557
0.107693
0.173451
0.23614
0.282619
0.304666
0.299567
0.266429
0.207724
0.135128
0.067235
0.0220192
0.00223323
0.000530004
0
0
0
6.2719e-14
7.87806e-09
1.81039e-06
9.92536e-06
9.8287e-06
6.83436e-06
5.72551e-06
5.82362e-06
6.0845e-06
6.16955e-06
6.15811e-06
6.1429e-06
6.13997e-06
6.14052e-06
6.14018e-06
6.13898e-06
6.13743e-06
6.13562e-06
6.1334e-06
6.13042e-06
6.12631e-06
6.12181e-06
6.11744e-06
6.11288e-06
6.10807e-06
6.10227e-06
6.09561e-06
6.08791e-06
6.08015e-06
6.07383e-06
6.07711e-06
6.07676e-06
6.11658e-06
6.13457e-06
6.1083e-06
6.10805e-06
6.10783e-06
6.10762e-06
6.10741e-06
6.10718e-06
6.10699e-06
6.10708e-06
6.10771e-06
6.10802e-06
6.10164e-06
6.08191e-06
6.05162e-06
6.15709e-06
6.52535e-06
7.29947e-06
6.65774e-06
3.64082e-06
3.02963e-07
1.4802e-09
1.09851e-15
0
0
0
0
1.9322e-07
0.00131672
0.00481364
0.0260617
0.0694703
0.131514
0.200388
0.260546
0.299098
0.307968
0.286353
0.234781
0.161683
0.0860616
0.0264649
0.000606411
0.00110525
0.000401034
0.000115371
1.04004e-06
0
9.62917e-12
3.83777e-11
2.80722e-06
8.86966e-06
8.27432e-06
6.59071e-06
6.03493e-06
6.05212e-06
6.12937e-06
6.14965e-06
6.14612e-06
6.14291e-06
6.14193e-06
6.14099e-06
6.13954e-06
6.13772e-06
6.13552e-06
6.13263e-06
6.1286e-06
6.12411e-06
6.11957e-06
6.1148e-06
6.10985e-06
6.10401e-06
6.09717e-06
6.08932e-06
6.08111e-06
6.07423e-06
6.07704e-06
6.07643e-06
6.11718e-06
6.136e-06
6.1083e-06
6.10811e-06
6.10797e-06
6.10784e-06
6.10772e-06
6.10761e-06
6.10747e-06
6.10734e-06
6.10725e-06
6.10778e-06
6.10836e-06
6.10872e-06
6.09511e-06
6.07367e-06
6.05589e-06
6.2613e-06
6.75484e-06
7.34746e-06
6.44577e-06
3.52137e-06
2.35288e-07
9.03159e-10
0
0
0
0
0
1.98215e-05
0.00151103
0.00511868
0.0253909
0.0646448
0.119179
0.179119
0.231664
0.265897
0.273681
0.252828
0.205562
0.142185
0.0820707
0.0394126
0.0156508
0.00490537
0.00087539
0.000189934
0
4.74654e-17
3.11266e-09
6.5147e-07
4.23969e-06
6.45389e-06
6.49587e-06
6.22139e-06
6.13426e-06
6.13821e-06
6.14714e-06
6.1482e-06
6.14702e-06
6.1458e-06
6.14439e-06
6.14259e-06
6.14041e-06
6.13762e-06
6.13378e-06
6.12939e-06
6.12472e-06
6.11952e-06
6.11421e-06
6.10811e-06
6.10113e-06
6.0927e-06
6.0842e-06
6.07558e-06
6.077e-06
6.0757e-06
6.11449e-06
6.13954e-06
)
;

boundaryField
{
    inlet
    {
        type            freestream;
        freestreamValue uniform 1e-05;
        value           nonuniform List<scalar> 
27
(
6.10203e-06
6.10237e-06
6.1028e-06
6.10332e-06
6.10393e-06
6.10463e-06
6.10543e-06
6.10633e-06
6.10733e-06
6.10843e-06
6.10963e-06
6.11093e-06
6.11233e-06
6.11382e-06
6.1154e-06
6.11705e-06
6.11883e-06
6.12072e-06
6.12272e-06
6.12475e-06
6.12677e-06
6.12877e-06
6.13073e-06
6.13262e-06
6.13457e-06
6.136e-06
6.13954e-06
)
;
    }
    outlet
    {
        type            freestream;
        freestreamValue uniform 1e-05;
        value           nonuniform List<scalar> 
78
(
6.1083e-06
6.10811e-06
6.10797e-06
6.10784e-06
6.10772e-06
6.10761e-06
6.10747e-06
6.10734e-06
6.10725e-06
6.10778e-06
6.10836e-06
6.10872e-06
6.09511e-06
6.07367e-06
6.05589e-06
6.2613e-06
6.75484e-06
7.34746e-06
6.44577e-06
3.52137e-06
2.35288e-07
9.03159e-10
0
0
0
0
0
1.98215e-05
0.00151103
0.00511868
0.0253909
0.0646448
0.119179
0.179119
0.231664
0.265897
0.273681
0.252828
0.205562
0.142185
0.0820707
0.0394126
0.0156508
0.00490537
0.00087539
0.000189934
0
4.74654e-17
3.11266e-09
6.5147e-07
4.23969e-06
6.45389e-06
6.49587e-06
6.22139e-06
6.13426e-06
6.13821e-06
6.14714e-06
6.1482e-06
6.14702e-06
6.1458e-06
6.14439e-06
6.14259e-06
6.14041e-06
6.13762e-06
6.13378e-06
6.12939e-06
6.12472e-06
6.11952e-06
6.11421e-06
6.10811e-06
6.10113e-06
6.0927e-06
6.0842e-06
6.07558e-06
6.077e-06
6.0757e-06
6.11449e-06
6.13954e-06
)
;
    }
    walls
    {
        type            nutUSpaldingWallFunction;
        value           nonuniform List<scalar> 0();
    }
    frontAndBack
    {
        type            empty;
    }
    procBoundary7to3
    {
        type            processor;
        value           nonuniform List<scalar> 
16
(
6.00392e-06
7.99017e-06
6.29245e-06
5.99529e-06
6.11421e-06
6.13151e-06
6.11746e-06
6.11188e-06
6.10907e-06
6.10907e-06
6.10803e-06
6.10763e-06
6.10778e-06
6.10815e-06
6.10863e-06
6.10858e-06
)
;
    }
    procBoundary7to6
    {
        type            processor;
        value           nonuniform List<scalar> 
91
(
6.10181e-06
6.10219e-06
6.10219e-06
6.08342e-06
6.08342e-06
6.08147e-06
6.08147e-06
6.07237e-06
6.07463e-06
6.07463e-06
6.07703e-06
6.07286e-06
6.07286e-06
6.08963e-06
6.08584e-06
6.08172e-06
6.08172e-06
6.09887e-06
6.09604e-06
6.09342e-06
6.09342e-06
6.1112e-06
6.10909e-06
6.10635e-06
6.10301e-06
6.10301e-06
6.11749e-06
6.11675e-06
6.11586e-06
6.11481e-06
6.11358e-06
6.11358e-06
6.1197e-06
6.11973e-06
6.11975e-06
6.11971e-06
6.11957e-06
6.11931e-06
6.1189e-06
6.1189e-06
6.12094e-06
6.12065e-06
6.12036e-06
6.12018e-06
6.12008e-06
6.12006e-06
6.12008e-06
6.12013e-06
6.12021e-06
6.12029e-06
6.12038e-06
6.12045e-06
6.12045e-06
4.51105e-13
0
0
0.00100946
0.00392287
0.0264142
0.0722532
0.13204
0.193354
0.248358
0.293298
0.326678
0.348661
0.361112
0.366645
0.366076
0.351791
0.315465
0.252409
0.167339
0.0810238
0.022784
0.005982
1.88759e-06
0
0
0
5.83382e-09
1.41251e-06
7.13867e-06
7.52031e-06
6.25242e-06
5.96741e-06
6.08378e-06
6.13808e-06
6.12821e-06
6.11995e-06
6.11995e-06
)
;
    }
}


// ************************************************************************* //
