/*--------------------------------*- C++ -*----------------------------------*\
| =========                 |                                                 |
| \\      /  F ield         | OpenFOAM: The Open Source CFD Toolbox           |
|  \\    /   O peration     | Version:  2506                                  |
|   \\  /    A nd           | Website:  www.openfoam.com                      |
|    \\/     M anipulation  |                                                 |
\*---------------------------------------------------------------------------*/
FoamFile
{
    version     2.0;
    format      ascii;
    arch        "LSB;label=32;scalar=64";
    class       surfaceScalarField;
    location    "250";
    object      phi;
}
// * * * * * * * * * * * * * * * * * * * * * * * * * * * * * * * * * * * * * //

dimensions      [0 3 -1 0 0 0 0];

oriented        oriented;

internalField   nonuniform List<scalar> 
2574
(
18.4776
0.474847
16.5825
18.473
0.500729
15.1789
0.498233
16.585
18.4683
0.522254
13.7597
0.524848
15.1763
0.522821
16.587
18.4638
0.544857
11.3973
0.546822
12.5387
0.547457
13.7591
0.55016
15.1736
0.548532
16.5887
18.4593
0.566799
9.43492
0.569033
10.3722
0.570906
11.3954
0.573037
12.5366
0.573877
13.7582
0.5767
15.1708
0.575464
16.5899
18.4549
0.585831
7.10424
0.588595
7.80944
0.591253
8.58273
0.593759
9.43241
0.596188
10.3698
0.598225
11.3934
0.60053
12.5343
0.601582
13.7572
0.604535
15.1679
0.603661
16.5908
18.4505
0.604675
7.49968
0.607703
5.8783
0.610716
6.46039
0.613673
7.10128
0.616582
7.80653
0.619399
8.57992
0.622078
9.42973
0.624656
10.3672
0.626863
11.3912
0.62937
12.5318
0.630619
13.7559
0.633726
15.1648
0.633236
16.5913
18.4462
0.614284
6.06893
0.619517
6.39814
0.624484
6.7447
0.629173
7.10964
0.633606
7.49524
0.636731
5.87518
0.639853
6.45727
0.642963
7.09817
0.646006
7.80349
0.648974
8.57695
0.651779
9.42693
0.654547
10.3645
0.656927
11.3888
0.659635
12.529
0.66109
13.7545
0.664352
15.1615
0.664227
16.5914
18.4418
0.616003
4.65097
0.621962
4.90494
0.627842
5.17239
0.633612
5.45422
0.639215
5.75097
0.644637
6.0635
0.649842
6.39293
0.654841
6.7397
0.659618
7.10486
0.664123
7.49074
0.667327
5.87197
0.670542
6.45405
0.673747
7.09497
0.676912
7.80033
0.68002
8.57384
0.683002
9.42394
0.685939
10.3615
0.688493
11.3863
0.691359
12.5262
0.693067
13.7528
0.69646
15.1581
0.696562
16.5913
18.4374
0.610344
3.1947
0.615486
3.37078
0.620788
3.5564
0.626249
3.75191
0.631827
3.95817
0.637491
4.17524
0.643209
4.40411
0.648948
4.64523
0.654686
4.8992
0.66035
5.16673
0.665948
5.44862
0.671434
5.74549
0.67678
6.05816
0.681974
6.38774
0.68697
6.73471
0.691747
7.10008
0.696336
7.48615
0.699598
5.86871
0.702889
6.45076
0.706172
7.09168
0.709459
7.79704
0.712696
8.5706
0.715788
9.42085
0.718888
10.3584
0.721642
11.3835
0.724648
12.5232
0.72661
13.7508
0.730152
15.1546
0.730699
16.5907
18.4329
0.610351
1.67201
0.612254
1.76457
0.614354
1.8623
0.616672
1.96555
0.619218
2.07432
0.621988
2.18913
0.625011
2.31034
0.628279
2.43822
0.631806
2.57297
0.635566
2.71527
0.639553
2.86519
0.643785
3.02348
0.648239
3.19025
0.6529
3.36612
0.657749
3.55155
0.662765
3.74689
0.667926
3.95301
0.673203
4.16996
0.678581
4.39874
0.683991
4.63983
0.689439
4.89375
0.694894
5.16127
0.700297
5.44322
0.705616
5.74017
0.710849
6.05293
0.715955
6.38263
0.720911
6.72975
0.72571
7.09528
0.730296
7.48157
0.733597
5.86541
0.736943
6.44742
0.740329
7.0883
0.743678
7.79369
0.747029
8.56725
0.750294
9.41759
0.753576
10.3552
0.756424
11.3807
0.759671
12.5199
0.761811
13.7487
0.765511
15.1509
0.766376
16.5899
18.4284
0.649864
0.228786
0.649711
0.241363
0.649547
0.254639
0.649474
0.26865
0.649493
0.283491
0.64936
0.299237
0.648417
0.315853
0.64574
0.332886
0.640557
0.349707
0.63253
0.365739
0.621974
0.380612
0.609686
0.394446
0.596972
0.407809
0.585528
0.421703
0.577382
0.437488
0.574389
0.456885
0.577705
0.481632
0.587281
0.513029
0.601559
0.551406
0.617681
0.595861
0.632011
0.644232
0.641599
0.693559
0.645774
0.741189
0.646314
0.786317
0.645733
0.830363
0.645465
0.875636
0.645743
0.923646
0.646248
0.974598
0.646785
1.02879
0.647301
1.08579
0.647884
1.14577
0.648555
1.20931
0.649327
1.27619
0.650209
1.34678
0.651212
1.42134
0.652351
1.50001
0.653637
1.58304
0.655093
1.67055
0.656697
1.76297
0.658495
1.8605
0.660487
1.96356
0.662683
2.07213
0.66509
2.18672
0.667718
2.30771
0.670584
2.43535
0.673656
2.56989
0.676971
2.71195
0.68053
2.86163
0.684303
3.01971
0.688284
3.18627
0.692489
3.36192
0.696904
3.54714
0.701487
3.74231
0.706233
3.94826
0.711119
4.16508
0.716107
4.39375
0.72121
4.63472
0.726346
4.88862
0.731525
5.15609
0.736703
5.43804
0.741863
5.73501
0.746948
6.04784
0.75193
6.37765
0.756813
6.72487
0.76156
7.09053
0.766168
7.47696
0.769473
5.86211
0.772811
6.44408
0.77628
7.08483
0.779775
7.7902
0.783138
8.56389
0.78649
9.41423
0.789885
10.3518
0.792936
11.3776
0.796363
12.5165
0.798716
13.7463
0.802588
15.147
0.803895
16.5886
18.4237
0.697064
0.228904
0.696922
0.241505
0.696776
0.254784
0.696648
0.268778
0.696561
0.283578
0.696603
0.299195
0.696632
0.315824
0.696138
0.333379
0.694187
0.351658
0.689892
0.370035
0.682666
0.387838
0.672593
0.404519
0.660351
0.420051
0.647207
0.434846
0.634899
0.449796
0.625479
0.466304
0.621003
0.486108
0.622938
0.511093
0.631539
0.542805
0.645493
0.581907
0.662051
0.627674
0.677417
0.678193
0.688296
0.73031
0.693466
0.781147
0.694457
0.829372
0.693878
0.876215
0.693502
0.924022
0.693713
0.974387
0.694218
1.02829
0.694768
1.08524
0.695299
1.14524
0.695864
1.20875
0.696525
1.27553
0.697281
1.34602
0.698152
1.42047
0.699123
1.49904
0.70022
1.58194
0.701443
1.66933
0.702826
1.76159
0.704369
1.85896
0.706082
1.96184
0.707976
2.07023
0.710073
2.18463
0.712356
2.30543
0.714832
2.43287
0.717532
2.56719
0.720449
2.70903
0.723584
2.8585
0.726936
3.01636
0.730516
3.18269
0.734293
3.35814
0.738257
3.54317
0.742423
3.73814
0.746763
3.94392
0.751259
4.16058
0.755892
4.38912
0.760638
4.62998
0.765485
4.88377
0.770381
5.1512
0.775296
5.43312
0.780228
5.73008
0.785135
6.04293
0.789975
6.37281
0.794794
6.72005
0.799402
7.08593
0.803974
7.47238
0.807289
5.85879
0.810798
6.44057
0.814116
7.08151
0.817608
7.78671
0.821283
8.56021
0.824737
9.41078
0.82812
10.3484
0.831319
11.3744
0.835072
12.5127
0.837623
13.7438
0.841553
15.1431
0.842947
16.5872
18.4188
0.745999
0.228999
0.745897
0.241607
0.745785
0.254896
0.745657
0.268906
0.745538
0.283697
0.745442
0.29929
0.745493
0.315773
0.745604
0.333269
0.745443
0.351819
0.744189
0.371289
0.740811
0.391215
0.734512
0.410819
0.725093
0.42947
0.713069
0.44687
0.699611
0.463254
0.686452
0.479462
0.67576
0.4968
0.66974
0.517114
0.670167
0.542378
0.677632
0.574442
0.691094
0.614212
0.707926
0.66136
0.724226
0.714009
0.736325
0.769048
0.742529
0.823168
0.744014
0.87473
0.743497
0.92454
0.743027
0.974857
0.74319
1.02813
0.743726
1.0847
0.744293
1.14467
0.744821
1.20822
0.745374
1.27498
0.746023
1.34538
0.746746
1.41975
0.747579
1.49821
0.748517
1.58101
0.749572
1.66827
0.750768
1.76039
0.752092
1.85763
0.753565
1.96037
0.755184
2.06861
0.756986
2.18283
0.758966
2.30345
0.761132
2.43071
0.763491
2.56483
0.76605
2.70648
0.768812
2.85574
0.77178
3.01339
0.774953
3.17952
0.77833
3.35477
0.781905
3.5396
0.785671
3.73438
0.789618
3.93997
0.793733
4.15647
0.797998
4.38485
0.802369
4.62561
0.806851
4.87929
0.811461
5.14659
0.816106
5.42848
0.820897
5.72529
0.825558
6.03827
0.830215
6.36815
0.834858
6.71541
0.839576
7.08121
0.84393
7.46803
0.847363
5.85536
0.850609
6.43733
0.854227
7.07789
0.857612
7.78332
0.861207
8.55662
0.864745
9.40724
0.868542
10.3446
0.87187
11.3711
0.875528
12.5091
0.878235
13.7411
0.882719
15.1386
0.884116
16.5858
18.4134
0.796831
0.229077
0.796749
0.24169
0.796674
0.254971
0.796565
0.269015
0.796453
0.283809
0.796344
0.2994
0.796239
0.315878
0.796257
0.333251
0.796417
0.351659
0.796499
0.371207
0.795837
0.391877
0.793386
0.41327
0.788121
0.434735
0.779531
0.455459
0.767828
0.474958
0.754083
0.493207
0.740014
0.510869
0.727879
0.529249
0.720141
0.550116
0.718885
0.575697
0.725098
0.608
0.738087
0.64837
0.755302
0.696795
0.772755
0.751595
0.786283
0.809641
0.793669
0.867343
0.795638
0.922571
0.794993
0.975502
0.79421
1.02891
0.794179
1.08473
0.794718
1.14413
0.795383
1.20755
0.795967
1.27439
0.796511
1.34483
0.797123
1.41914
0.79783
1.4975
0.798637
1.5802
0.799545
1.66736
0.800561
1.75937
0.801696
1.8565
0.802961
1.9591
0.80438
2.06719
0.805922
2.18128
0.807636
2.30174
0.809529
2.42881
0.811585
2.56278
0.813823
2.70424
0.816288
2.85327
0.818827
3.01085
0.821626
3.17672
0.824619
3.35177
0.827832
3.53639
0.831287
3.73092
0.834859
3.9364
0.838536
4.15279
0.842427
4.38096
0.846505
4.62153
0.85082
4.87497
0.854973
5.14244
0.859487
5.42397
0.863789
5.72098
0.868267
6.03379
0.872898
6.36352
0.877241
6.71106
0.881693
7.07676
0.886237
7.46349
0.889343
5.85225
0.892704
6.43397
0.896175
7.07442
0.89986
7.77964
0.903364
8.55312
0.906959
9.40365
0.910742
10.3408
0.914152
11.3677
0.918202
12.505
0.920968
13.7383
0.925701
15.1338
0.927214
16.5843
18.4074
0.849743
0.229142
0.849674
0.241759
0.8496
0.255045
0.849522
0.269093
0.849436
0.283895
0.849323
0.299512
0.849223
0.315978
0.849122
0.333352
0.849103
0.351678
0.849232
0.371078
0.849414
0.391695
0.849182
0.413502
0.847642
0.436276
0.843726
0.459375
0.836634
0.48205
0.826204
0.503637
0.813089
0.523984
0.798767
0.543571
0.785416
0.563467
0.775604
0.58551
0.771725
0.611879
0.775279
0.644816
0.786202
0.685872
0.802517
0.73528
0.820333
0.791824
0.835396
0.85228
0.844908
0.91306
0.848677
0.971732
0.848929
1.02866
0.848009
1.08565
0.847668
1.14447
0.84781
1.20741
0.848448
1.27376
0.849075
1.3442
0.84965
1.41856
0.850248
1.4969
0.850951
1.57949
0.851683
1.66663
0.852464
1.75859
0.853455
1.85551
0.854531
1.95803
0.855704
2.06602
0.857112
2.17988
0.858478
2.30037
0.860177
2.42711
0.861941
2.56101
0.863858
2.70232
0.865972
2.85116
0.868263
3.00856
0.870737
3.17424
0.873528
3.34898
0.876371
3.53354
0.879266
3.72803
0.882473
3.93319
0.885991
4.14927
0.889541
4.37741
0.893246
4.61782
0.896958
4.87126
0.901069
5.13833
0.905014
5.42002
0.909183
5.71681
0.913418
6.02956
0.917696
6.35925
0.922136
6.70662
0.926299
7.07259
0.930585
7.4592
0.933773
5.84906
0.937085
6.43065
0.94054
7.07096
0.944067
7.77611
0.947768
8.54941
0.951373
9.40004
0.95533
10.3368
0.958726
11.3643
0.963151
12.5006
0.965779
13.7357
0.971187
15.1284
0.972445
16.583
18.4004
1.43669
0.229757
1.43618
0.242273
1.43559
0.255629
1.43508
0.269604
1.43434
0.284636
1.43376
0.300091
1.43302
0.316718
1.43226
0.334114
1.43132
0.352617
1.43064
0.371754
1.42993
0.392406
1.42943
0.414004
1.42878
0.436923
1.42687
0.461289
1.42249
0.486426
1.41394
0.51219
1.40031
0.537614
1.38165
0.562229
1.35932
0.585803
1.33605
0.608776
1.31588
0.632045
1.30264
0.65806
1.29973
0.68878
1.30865
0.72636
1.32775
0.772722
1.35261
0.827424
1.37671
0.888957
1.3944
0.954041
1.40331
1.01975
1.40497
1.084
1.4025
1.14694
1.39922
1.2107
1.39646
1.27651
1.39438
1.34629
1.39256
1.42037
1.39056
1.4989
1.38855
1.58151
1.3863
1.66889
1.38414
1.76075
1.38173
1.85792
1.37947
1.96029
1.37709
2.0684
1.37447
2.18249
1.37202
2.30282
1.36936
2.42978
1.36675
2.56362
1.36408
2.70499
1.36121
2.85402
1.35843
3.01134
1.35559
3.17708
1.35231
3.35227
1.34911
3.53674
1.34586
3.73128
1.34228
3.93677
1.3385
4.15305
1.3345
4.38141
1.33026
4.62206
1.32564
4.87589
1.32059
5.14337
1.31523
5.42538
1.30926
5.72279
1.30277
6.03605
1.29545
6.36657
1.28754
6.71453
1.27887
7.08126
1.26928
7.4688
1.26122
5.85712
1.252
6.43987
1.24161
7.08135
1.22969
7.78804
1.2163
8.5628
1.20088
9.41546
1.18382
10.3539
1.16393
11.3842
1.14244
12.5221
1.11612
13.762
1.08999
15.1546
1.0545
16.6185
18.4271
1.536
0.230107
1.53538
0.242894
1.53476
0.256256
1.53399
0.270368
1.53349
0.28514
1.53271
0.300865
1.53193
0.317501
1.53114
0.334908
1.53032
0.35343
1.52936
0.372713
1.52855
0.393219
1.52756
0.414997
1.52686
0.437622
1.5261
0.462044
1.52498
0.487545
1.52253
0.514642
1.51723
0.542919
1.50766
0.571799
1.49309
0.600366
1.47378
0.628091
1.45114
0.654682
1.42851
0.68069
1.41002
0.707268
1.39921
0.737178
1.3994
0.772526
1.41085
0.815976
1.431
0.868808
1.45481
0.930229
1.47615
0.998411
1.49059
1.06956
1.49691
1.14061
1.49696
1.21066
1.49371
1.27976
1.48999
1.35
1.48686
1.42351
1.48446
1.5013
1.48187
1.5841
1.47945
1.6713
1.47674
1.76346
1.4738
1.86086
1.47082
1.96327
1.46771
2.07151
1.4646
2.1856
1.46136
2.30606
1.458
2.43314
1.45452
2.5671
1.45081
2.70871
1.44714
2.85769
1.44338
3.0151
1.43928
3.18118
1.4351
3.35645
1.43085
3.54099
1.42626
3.73587
1.42159
3.94143
1.41659
4.15806
1.41136
4.38663
1.40577
4.62765
1.39994
4.88172
1.39372
5.1496
1.38694
5.43216
1.37972
5.73001
1.3719
6.04387
1.36358
6.37488
1.35446
6.72366
1.34464
7.09107
1.33396
7.47947
1.32497
5.86611
1.31498
6.44986
1.30358
7.09275
1.29069
7.80093
1.27639
8.5771
1.26011
9.43174
1.24198
10.372
1.22092
11.4052
1.19835
12.5447
1.17094
13.7894
1.14341
15.1821
1.10636
16.6555
18.4545
1.63701
1.63638
0.243524
1.63575
0.256889
1.63511
0.271006
1.63433
0.285917
1.63369
0.301513
1.6329
0.318291
1.6321
0.335702
1.6313
0.354234
1.63035
0.373665
1.62924
0.394329
1.62825
0.415987
1.62715
0.438717
1.62617
0.463024
1.62525
0.488467
1.62442
0.515471
1.62306
0.544283
1.6204
0.574456
1.61457
0.606191
1.60437
0.638298
1.58892
0.670129
1.5685
0.701107
1.54515
0.730622
1.5225
0.75983
1.50478
0.790244
1.4962
0.82456
1.49891
0.866091
1.5128
0.916345
1.53405
0.977161
1.55717
1.04644
1.57621
1.12156
1.58775
1.19912
1.5913
1.27621
1.58942
1.35188
1.5853
1.42764
1.58101
1.50559
1.57758
1.58753
1.57452
1.67436
1.57141
1.76657
1.56813
1.86414
1.56456
1.96684
1.56091
2.07516
1.5571
2.18941
1.55314
2.31002
1.54904
2.43725
1.54479
2.57134
1.5404
2.71309
1.53589
2.8622
1.531
3.01999
1.52613
3.18605
1.52103
3.36155
1.5157
3.54632
1.51014
3.74143
1.50421
3.94735
1.49821
4.16407
1.49184
4.393
1.48511
4.63438
1.47787
4.88896
1.47039
5.15708
1.46237
5.44017
1.45395
5.73843
1.44495
6.05287
1.43537
6.38447
1.42503
6.734
1.41391
7.10219
1.40199
7.49139
1.39218
5.87592
1.38127
6.46077
1.36884
7.10518
1.35524
7.81452
1.33985
8.59249
1.32243
9.44916
1.30316
10.3913
1.28113
11.4273
1.2572
12.5686
1.22863
13.8179
1.19962
15.2111
1.16128
16.6939
18.483
1.74001
0.244163
1.73936
0.257532
1.73872
0.271654
1.73793
0.286707
1.73713
0.302306
1.73633
0.319091
1.73539
0.336645
1.73444
0.355183
1.73349
0.37462
1.73252
0.395296
1.7314
0.41711
1.73025
0.439861
1.7291
0.464173
1.72788
0.489689
1.7267
0.516654
1.72577
0.545214
1.72482
0.575403
1.72355
0.60746
1.72052
0.641333
1.71395
0.676698
1.70267
0.712386
1.68563
0.747661
1.66356
0.781896
1.63905
0.814752
1.61623
0.847379
1.6001
0.882226
1.5941
0.922347
1.60042
0.97084
1.61709
1.02977
1.63955
1.09911
1.66153
1.17713
1.67765
1.2601
1.68546
1.34407
1.68581
1.42729
1.68205
1.50934
1.67699
1.59259
1.67231
1.67904
1.66851
1.77037
1.6649
1.86776
1.66093
1.97081
1.65676
2.07933
1.65246
2.19372
1.64782
2.31466
1.64303
2.44204
1.63807
2.5763
1.63295
2.71821
1.62755
2.8676
1.62201
3.02554
1.61619
3.19186
1.61011
3.36763
1.60378
3.55266
1.5972
3.74801
1.59038
3.95417
1.58319
4.17126
1.57562
4.40057
1.56769
4.64231
1.55952
4.89713
1.5507
5.1659
1.54164
5.44923
1.53191
5.74816
1.52164
6.06314
1.51067
6.39544
1.49913
6.74554
1.48686
7.11446
1.47385
7.50441
1.46308
5.88669
1.45109
6.47275
1.4379
7.11838
1.42302
7.8294
1.40668
8.60884
1.38823
9.4676
1.36784
10.4117
1.34437
11.4507
1.31929
12.5937
1.2895
13.8477
1.25891
15.2417
1.21918
16.7336
18.5125
1.84627
0.244815
1.84562
0.258189
1.84482
0.272454
1.84401
0.287513
1.8432
0.303115
1.84225
0.320046
1.84143
0.337466
1.84046
0.35615
1.83935
0.375731
1.83823
0.396414
1.83724
0.418099
1.83596
0.44114
1.83466
0.465475
1.8332
0.49115
1.83189
0.517962
1.83055
0.546554
1.82931
0.576641
1.82825
0.608525
1.82731
0.642275
1.82577
0.67823
1.822
0.716157
1.81445
0.755219
1.80145
0.794887
1.78233
0.833872
1.75837
0.87134
1.73277
0.907831
1.71073
0.944391
1.69683
0.984736
1.69472
1.03188
1.70507
1.08876
1.72456
1.15764
1.74748
1.23717
1.76733
1.32422
1.77944
1.41518
1.78301
1.50577
1.78035
1.59526
1.77495
1.68444
1.76917
1.77615
1.76422
1.8727
1.75987
1.97515
1.75533
2.08387
1.75047
2.19858
1.74543
2.3197
1.74002
2.44746
1.73442
2.5819
1.72865
2.72398
1.72242
2.87383
1.71617
3.0318
1.70934
3.19869
1.70264
3.37433
1.69525
3.56004
1.68774
3.75553
1.67996
3.96195
1.67165
4.17957
1.6631
4.40912
1.65417
4.65124
1.64473
4.90657
1.63491
5.17571
1.62445
5.4597
1.6136
5.759
1.6021
6.07464
1.59007
6.40747
1.57722
6.75839
1.56368
7.128
1.54944
7.51864
1.53772
5.89841
1.52466
6.48581
1.51043
7.13261
1.49456
7.84527
1.47682
8.62657
1.45721
9.48722
1.43556
10.4333
1.41123
11.475
1.38461
12.6203
1.35343
13.8789
1.32157
15.2736
1.28027
16.7749
18.5426
1.95534
0.245479
1.95454
0.258997
1.95372
0.273267
1.9529
0.288332
1.95194
0.304079
1.95111
0.320877
1.94999
0.338583
1.94901
0.357133
1.94802
0.376721
1.94688
0.397551
1.9456
0.419382
1.94431
0.442431
1.94286
0.466918
1.94154
0.492472
1.93992
0.519587
1.93842
0.548056
1.93667
0.578387
1.93522
0.609976
1.9338
0.643697
1.93274
0.679284
1.93177
0.717126
1.9297
0.757288
1.92504
0.799553
1.91588
0.843029
1.90049
0.886727
1.87889
0.929436
1.85288
0.970396
1.82686
1.01076
1.80638
1.05235
1.79614
1.099
1.79886
1.15492
1.81351
1.22252
1.83523
1.3025
1.85759
1.39282
1.87369
1.48966
1.88107
1.58788
1.88022
1.68528
1.87485
1.78153
1.86833
1.87922
1.86218
1.98131
1.85681
2.08924
1.85158
2.20381
1.84593
2.32534
1.83995
2.45344
1.83372
2.58813
1.82717
2.73053
1.82045
2.88054
1.81328
3.03897
1.80593
3.20604
1.79813
3.38212
1.79018
3.568
1.7818
3.76391
1.77286
3.97089
1.76366
4.18877
1.75406
4.41872
1.74407
4.66123
1.73357
4.91708
1.72255
5.18673
1.71102
5.47123
1.69899
5.77103
1.68631
6.08732
1.67298
6.42079
1.659
6.77237
1.64423
7.14278
1.62852
7.53436
1.61586
5.91107
1.60204
6.49963
1.58664
7.14801
1.56949
7.86242
1.55082
8.64525
1.53004
9.50799
1.50714
10.4563
1.48124
11.5009
1.45327
12.6483
1.42074
13.9115
1.38742
15.3069
1.34464
16.8177
18.5727
2.06748
0.246162
2.06665
0.259827
2.06581
0.274103
2.06497
0.289175
2.06398
0.305068
2.06284
0.322014
2.06198
0.339445
2.06083
0.358285
2.05953
0.378021
2.05836
0.398718
2.05705
0.420697
2.05558
0.443896
2.05425
0.46825
2.05277
0.493954
2.05113
0.521226
2.04933
0.549859
2.04764
0.58008
2.04565
0.61196
2.04373
0.645616
2.04189
0.681129
2.04043
0.71858
2.03925
0.758471
2.03791
0.800897
2.03536
0.845578
2.02936
0.892726
2.01785
0.940946
1.99946
0.988786
1.97493
1.03529
1.94717
1.08012
1.92156
1.12461
1.90397
1.17251
1.89881
1.22768
1.90718
1.29414
1.92569
1.3743
1.94844
1.46691
1.96744
1.56888
1.97826
1.67446
1.97974
1.78005
1.97501
1.88394
1.96789
1.98844
1.96098
2.09614
1.95481
2.20999
1.94897
2.33118
1.943
2.45941
1.93629
2.59485
1.92905
2.73776
1.92158
2.88802
1.91379
3.04675
1.90583
3.214
1.89726
3.39069
1.88838
3.57688
1.87906
3.77323
1.86945
3.9805
1.85928
4.19894
1.8487
4.42929
1.83759
4.67234
1.82609
4.92857
1.81394
5.19889
1.80142
5.48374
1.78812
5.78433
1.77434
6.10111
1.75964
6.43549
1.74445
6.78755
1.7285
7.15873
1.71165
7.55122
1.69809
5.92463
1.68311
6.51461
1.66657
7.16455
1.64847
7.88052
1.62859
8.66512
1.6064
9.53018
1.58213
10.4805
1.55498
11.5281
1.52569
12.6776
1.49168
13.9455
1.45726
15.3413
1.41234
16.8626
18.6013
2.18178
0.247133
2.18095
0.260663
2.1801
0.274946
2.17911
0.290166
2.17811
0.306067
2.17711
0.323021
2.17595
0.3406
2.17479
0.359449
2.17361
0.379194
2.17229
0.400042
2.17096
0.422031
2.16947
0.445382
2.16797
0.469746
2.16633
0.495602
2.16467
0.522885
2.16285
0.551674
2.16102
0.581916
2.159
0.613971
2.15681
0.647805
2.15462
0.683321
2.15225
0.720952
2.15017
0.76055
2.14857
0.802497
2.14711
0.847042
2.14525
0.894583
2.14157
0.944628
2.13359
0.996762
2.11893
1.04995
2.09702
1.10202
2.06934
1.15229
2.04058
1.20127
2.01706
1.2512
2.00466
1.30654
2.00664
1.37232
2.02197
1.45159
2.04495
1.54589
2.06718
1.65223
2.08201
1.76522
2.08599
1.87996
2.08139
1.99304
2.07247
2.10506
2.06311
2.21934
2.05489
2.3394
2.04763
2.46667
2.04065
2.60183
2.03339
2.74502
2.02545
2.89596
2.01705
3.05515
2.00816
3.2229
1.99908
3.39977
1.98939
3.58657
1.97938
3.78324
1.96892
3.99096
1.95788
4.20998
1.94642
4.44075
1.93442
4.68435
1.92188
4.94111
1.90882
5.21194
1.89512
5.49744
1.88078
5.79866
1.86569
6.1162
1.85012
6.45106
1.83366
6.80401
1.81646
7.17593
1.79853
7.56915
1.78383
5.93932
1.76787
6.53058
1.75038
7.18203
1.73108
7.89982
1.70989
8.68631
1.68647
9.55361
1.66085
10.5061
1.63236
11.5566
1.60162
12.7083
1.56611
13.981
1.5305
15.3769
1.48266
16.9104
18.6249
2.30103
0.247984
2.30017
0.26152
2.29917
0.275952
2.29816
0.291179
2.29699
0.307228
2.29597
0.324048
2.29479
0.341776
2.29361
0.360633
2.29227
0.380527
2.29079
0.401524
2.2893
0.423521
2.28795
0.446738
2.2863
0.471394
2.28464
0.497257
2.28284
0.524689
2.28103
0.553484
2.27907
0.583875
2.27696
0.616083
2.27482
0.649937
2.27252
0.685627
2.27004
0.723429
2.26759
0.763
2.26503
0.805054
2.26275
0.849325
2.26121
0.89612
2.25967
0.946171
2.25741
0.999017
2.25255
1.05481
2.24206
1.11251
2.22378
1.17057
2.19735
1.2277
2.16531
1.28324
2.13331
1.33854
2.10889
1.39674
2.09739
1.46308
2.10202
1.54126
2.12006
1.6342
2.14417
1.74111
2.16595
1.85818
2.17918
1.97981
2.18231
2.10193
2.17769
2.22396
2.16938
2.3477
2.16034
2.47571
2.15144
2.61074
2.14275
2.75371
2.13405
2.90466
2.12485
3.06435
2.11526
3.23249
2.10505
3.40998
2.09468
3.59694
2.0836
3.79432
2.07223
4.00233
2.06045
4.22176
2.04799
4.45322
2.03499
4.69734
2.02148
4.95463
2.00746
5.22596
1.99268
5.51223
1.97741
5.81393
1.9614
6.13221
1.94466
6.46781
1.92718
6.82149
1.90871
7.1944
1.88938
7.58847
1.87405
5.95465
1.85691
6.54772
1.83841
7.20053
1.81797
7.92026
1.79557
8.70871
1.77089
9.57829
1.74415
10.5329
1.71379
11.587
1.68216
12.7399
1.64326
14.0199
1.60971
15.4105
1.55314
16.967
18.6352
2.41864
2.41765
2.41666
2.41565
2.41464
2.41347
2.41215
2.41082
2.40948
2.40813
2.40662
2.40495
2.40327
2.40143
2.39957
2.39755
2.39537
2.39318
2.39081
2.38827
2.38569
2.38276
2.37981
2.37678
2.3737
2.37104
2.36862
2.36572
2.36107
2.35264
2.33846
2.31821
2.29368
2.26864
2.24871
2.23798
2.23847
2.24832
2.26255
2.27486
2.281
2.28029
2.27462
2.26636
2.25761
2.24885
2.23985
2.23052
2.22062
2.2103
2.19932
2.18798
2.17589
2.16333
2.1502
2.13651
2.12214
2.10712
2.09147
2.07506
2.05806
2.0402
2.02149
2.0021
1.98175
1.96524
1.94736
1.92763
1.90607
1.88262
1.8564
1.82876
1.79572
1.76506
1.7193
1.69274
1.6151
)
;

boundaryField
{
    inlet
    {
        type            calculated;
        value           nonuniform List<scalar> 
27
(
0.456979
0.479478
0.502905
0.527355
0.553003
0.579886
0.608064
0.637574
0.668641
0.700954
0.735137
0.770908
0.80858
0.847887
0.889455
0.933207
0.979452
1.02785
1.07898
1.13277
1.18964
1.25019
1.31453
1.38376
1.45902
1.54291
1.58142
)
;
    }
    outlet
    {
        type            calculated;
        value           nonuniform List<scalar> 
78
(
0.248823
0.262508
0.276948
0.292184
0.308243
0.325214
0.343095
0.361963
0.381869
0.402879
0.425031
0.448404
0.473076
0.499097
0.526547
0.555502
0.586055
0.618282
0.652303
0.688167
0.726014
0.765922
0.808006
0.852358
0.899201
0.948833
1.00144
1.05772
1.11716
1.17899
1.24188
1.30349
1.36307
1.42178
1.48302
1.55199
1.6337
1.73127
1.84395
1.96751
2.09579
2.22467
2.35337
2.48397
2.61949
2.76247
2.91366
3.07368
3.24239
3.4203
3.60792
3.80566
4.01442
4.23431
4.46635
4.71103
4.96899
5.24098
5.52789
5.83034
6.14922
6.48567
6.84019
7.21379
7.60882
5.97116
6.5656
7.22027
7.94182
8.73215
9.60451
10.5605
11.62
12.7706
14.0656
15.437
17.0446
18.6688
)
;
    }
    walls
    {
        type            calculated;
        value           nonuniform List<scalar> 0();
    }
    frontAndBack
    {
        type            empty;
    }
    procBoundary7to3
    {
        type            processor;
        value           nonuniform List<scalar> 
16
(
-0.650015
-0.697181
-0.746095
-0.796909
-0.849809
-1.4373
-1.53635
-1.63764
0.230731
-1.74065
-1.84692
-1.95601
-2.06816
-2.18275
-2.30188
-2.41948
)
;
    }
    procBoundary7to6
    {
        type            processor;
        value           nonuniform List<scalar> 
91
(
-18.482
-0.452643
-16.5797
-0.477651
-15.1815
-0.498202
-13.7602
-11.399
-0.521804
-12.5407
-9.43726
-0.543146
-10.3745
-7.10707
-7.81221
-0.564453
-8.58539
-7.50401
-5.88133
-0.582996
-6.4634
-6.07438
-6.40337
-6.74967
-0.600341
-7.11432
-4.657
-4.9109
-5.17827
-5.45999
-0.608826
-5.75658
-3.19966
-3.37593
-3.5617
-3.75737
-3.96374
-4.1809
-0.609973
-4.40983
-1.6737
-1.76648
-1.8644
-1.96787
-2.07687
-2.1919
-2.31336
-2.44148
-2.57649
-2.71903
-2.86918
-0.605385
-3.02771
-0.228636
-0.24121
-0.254475
-0.268576
-0.28351
-0.299105
-0.31491
-0.330209
-0.344524
-0.357713
-0.370056
-0.382159
-0.395094
-0.410259
-0.429343
-0.453891
-0.484948
-0.522605
-0.565685
-0.611983
-0.658562
-0.703146
-0.745364
-0.786858
-0.829783
-0.875367
-0.923924
-0.975104
-1.02933
-1.0863
-1.14635
-1.20998
-1.27696
-1.34766
-1.42235
-1.50115
-0.608656
-1.58433
)
;
    }
}


// ************************************************************************* //
