/*--------------------------------*- C++ -*----------------------------------*\
| =========                 |                                                 |
| \\      /  F ield         | OpenFOAM: The Open Source CFD Toolbox           |
|  \\    /   O peration     | Version:  2506                                  |
|   \\  /    A nd           | Website:  www.openfoam.com                      |
|    \\/     M anipulation  |                                                 |
\*---------------------------------------------------------------------------*/
FoamFile
{
    version     2.0;
    format      ascii;
    arch        "LSB;label=32;scalar=64";
    class       volScalarField;
    location    "250";
    object      turbulenceProperties:I;
}
// * * * * * * * * * * * * * * * * * * * * * * * * * * * * * * * * * * * * * //

dimensions      [0 0 0 0 0 0 0];

internalField   nonuniform List<scalar> 
1340
(
3.02267e-05
2.64827e-05
3.04583e-05
2.60294e-05
2.60632e-05
3.04633e-05
1.682e-05
2.58682e-05
2.5782e-05
3.05342e-05
1.58782e-05
2.15256e-05
1.67427e-05
2.57399e-05
2.55402e-05
3.06457e-05
1.89204e-05
2.05209e-05
1.56414e-05
2.13319e-05
1.66624e-05
2.56243e-05
2.5343e-05
3.07589e-05
2.24361e-05
2.10334e-05
2.10464e-05
1.85438e-05
2.02392e-05
1.53887e-05
2.11412e-05
1.65843e-05
2.55255e-05
2.52005e-05
3.08652e-05
2.40886e-05
2.33474e-05
2.24126e-05
2.19524e-05
2.0566e-05
2.06596e-05
1.81531e-05
1.99504e-05
1.51232e-05
2.09581e-05
1.65079e-05
2.54464e-05
2.51106e-05
3.09629e-05
2.71003e-05
2.61724e-05
2.52511e-05
2.4344e-05
2.34228e-05
2.27424e-05
2.18425e-05
2.14499e-05
2.00825e-05
2.02589e-05
1.775e-05
1.96556e-05
1.48463e-05
2.0781e-05
1.64338e-05
2.53823e-05
2.50614e-05
3.10649e-05
3.04839e-05
2.95932e-05
2.87079e-05
2.78305e-05
2.69627e-05
2.61056e-05
2.52613e-05
2.44183e-05
2.35897e-05
2.27329e-05
2.21147e-05
2.12511e-05
2.09273e-05
1.95816e-05
1.98433e-05
1.73333e-05
1.93535e-05
1.45579e-05
2.06063e-05
1.63632e-05
2.53282e-05
2.50445e-05
3.11562e-05
3.44271e-05
3.36862e-05
3.29295e-05
3.21594e-05
3.13791e-05
3.05914e-05
2.97995e-05
2.9006e-05
2.82135e-05
2.74235e-05
2.66378e-05
2.58584e-05
2.50859e-05
2.43243e-05
2.35597e-05
2.28103e-05
2.20194e-05
2.14649e-05
2.0639e-05
2.0385e-05
1.90639e-05
1.9413e-05
1.69039e-05
1.90437e-05
1.42591e-05
2.04326e-05
1.6296e-05
2.52819e-05
2.50695e-05
3.12465e-05
3.81701e-05
3.7814e-05
3.7437e-05
3.70367e-05
3.66113e-05
3.61599e-05
3.56816e-05
3.5176e-05
3.46435e-05
3.40858e-05
3.35039e-05
3.28993e-05
3.22741e-05
3.16305e-05
3.09714e-05
3.02986e-05
2.96152e-05
2.89237e-05
2.82269e-05
2.75274e-05
2.68271e-05
2.61275e-05
2.54299e-05
2.47361e-05
2.40462e-05
2.33662e-05
2.26792e-05
2.20092e-05
2.12856e-05
2.07959e-05
2.00089e-05
1.98251e-05
1.85315e-05
1.89694e-05
1.64636e-05
1.87269e-05
1.39525e-05
2.02602e-05
1.62306e-05
2.52424e-05
2.51168e-05
3.13355e-05
6.91073e-06
1.66277e-06
0
0
0.000205766
0.000322186
0.00243527
0.00897161
0.0180813
0.0275242
0.0354615
0.0407173
0.0423512
0.0393349
0.0301168
0.00974752
0.0301083
0.0388612
0.0401011
0.0349715
0.0251557
0.0137859
0.00489078
0.000380067
0.000130203
0
0
0
5.96623e-06
2.21796e-05
3.84502e-05
3.98354e-05
3.73623e-05
3.62456e-05
3.60663e-05
3.58767e-05
3.55698e-05
3.52545e-05
3.49468e-05
3.46263e-05
3.42858e-05
3.39245e-05
3.35411e-05
3.31338e-05
3.27017e-05
3.22449e-05
3.17648e-05
3.12627e-05
3.07397e-05
3.01974e-05
2.96381e-05
2.90642e-05
2.84776e-05
2.78808e-05
2.72763e-05
2.66664e-05
2.60536e-05
2.54396e-05
2.48255e-05
2.42119e-05
2.36008e-05
2.29912e-05
2.23911e-05
2.17807e-05
2.11901e-05
2.05346e-05
2.01106e-05
1.93637e-05
1.925e-05
1.79865e-05
1.8514e-05
1.60147e-05
1.84028e-05
1.36399e-05
2.00856e-05
1.61691e-05
2.52068e-05
2.51896e-05
3.14237e-05
3.03489e-05
8.2805e-06
2.03456e-06
0
0
9.75318e-06
0.000691529
0.000782324
0.00558084
0.0134498
0.022578
0.030917
0.0370207
0.0398608
0.0384667
0.0315864
0.0155219
0.0247703
0.035231
0.037916
0.034173
0.0254888
0.0147532
0.00565293
0.000669963
0.000195502
0
0
0
4.07821e-06
1.46798e-05
3.38879e-05
3.70579e-05
3.46201e-05
3.31933e-05
3.29633e-05
3.28406e-05
3.25768e-05
3.22896e-05
3.20162e-05
3.17308e-05
3.1421e-05
3.10901e-05
3.07398e-05
3.03683e-05
2.99743e-05
2.95588e-05
2.91236e-05
2.86694e-05
2.81978e-05
2.77109e-05
2.72111e-05
2.67e-05
2.61803e-05
2.56539e-05
2.5123e-05
2.45899e-05
2.40562e-05
2.35227e-05
2.29891e-05
2.24573e-05
2.19254e-05
2.14035e-05
2.08683e-05
2.03565e-05
1.97698e-05
1.94121e-05
1.87063e-05
1.86623e-05
1.74317e-05
1.80489e-05
1.55592e-05
1.80722e-05
1.33215e-05
1.99106e-05
1.61054e-05
2.51728e-05
2.52642e-05
3.15168e-05
3.06252e-05
2.83793e-05
1.02741e-05
2.43485e-06
0
0
0
0.000352647
0.000480074
0.00290458
0.00929834
0.0177827
0.0263174
0.0331696
0.0371336
0.0372255
0.0323658
0.0203163
0.019011
0.031538
0.0356444
0.033243
0.025687
0.0155657
0.00641275
0.00107072
0.000249544
0
0
0
1.95753e-06
6.37921e-06
2.84046e-05
3.40979e-05
3.22571e-05
3.05256e-05
3.01915e-05
3.01351e-05
2.99008e-05
2.96002e-05
2.93285e-05
2.90678e-05
2.87882e-05
2.8484e-05
2.81594e-05
2.7816e-05
2.74538e-05
2.70741e-05
2.66776e-05
2.62659e-05
2.5841e-05
2.54053e-05
2.49607e-05
2.45093e-05
2.4053e-05
2.35941e-05
2.31345e-05
2.26758e-05
2.2218e-05
2.17609e-05
2.13058e-05
2.08492e-05
2.0404e-05
1.99431e-05
1.9509e-05
1.89925e-05
1.87013e-05
1.80381e-05
1.80625e-05
1.68687e-05
1.75734e-05
1.5099e-05
1.77359e-05
1.29994e-05
1.97263e-05
1.60376e-05
2.51503e-05
2.53421e-05
3.16148e-05
2.72414e-05
2.83043e-05
2.68265e-05
1.42643e-05
3.28587e-06
0
0
0
3.43388e-05
0.000729911
0.00109744
0.00588235
0.0133463
0.0217822
0.0292378
0.034239
0.0356947
0.0325893
0.0233548
0.0124803
0.027857
0.033349
0.0322132
0.0257285
0.0162158
0.00709936
0.0014537
0.000305479
0
0
0
2.29285e-07
6.03729e-06
2.22552e-05
3.07636e-05
2.99506e-05
2.79531e-05
2.73851e-05
2.74857e-05
2.74428e-05
2.71956e-05
2.69066e-05
2.66396e-05
2.63759e-05
2.60946e-05
2.57914e-05
2.547e-05
2.51337e-05
2.47835e-05
2.44209e-05
2.40473e-05
2.36656e-05
2.32775e-05
2.28852e-05
2.2491e-05
2.20965e-05
2.17038e-05
2.13139e-05
2.09272e-05
2.05425e-05
2.01606e-05
1.97768e-05
1.94057e-05
1.90176e-05
1.86599e-05
1.82128e-05
1.79887e-05
1.73681e-05
1.74604e-05
1.63025e-05
1.70972e-05
1.46333e-05
1.74001e-05
1.26509e-05
1.95532e-05
1.59416e-05
2.51272e-05
2.5432e-05
3.17463e-05
2.5747e-05
2.53907e-05
2.63414e-05
2.53234e-05
1.78508e-05
4.10151e-06
5.90777e-08
0
0
0
0.000434311
0.000514651
0.00312864
0.0091818
0.0170524
0.0248765
0.0309129
0.0338341
0.0325601
0.0258539
0.0092292
0.0236437
0.03086
0.0311698
0.0258772
0.0170761
0.00802792
0.00188676
0.00031463
8.02977e-05
0
0
0
4.91237e-06
1.73552e-05
2.72783e-05
2.88252e-05
2.68415e-05
2.52657e-05
2.48655e-05
2.48839e-05
2.47975e-05
2.45663e-05
2.42948e-05
2.40308e-05
2.37653e-05
2.34859e-05
2.31903e-05
2.28824e-05
2.25657e-05
2.22402e-05
2.19092e-05
2.15748e-05
2.12389e-05
2.09042e-05
2.05718e-05
2.02444e-05
1.99215e-05
1.96049e-05
1.92922e-05
1.89831e-05
1.8673e-05
1.83763e-05
1.80613e-05
1.77819e-05
1.74059e-05
1.72502e-05
1.66775e-05
1.68342e-05
1.57244e-05
1.65957e-05
1.41742e-05
1.70356e-05
1.23422e-05
1.93474e-05
1.58722e-05
2.50843e-05
2.55135e-05
3.18341e-05
2.44781e-05
2.3865e-05
2.36367e-05
2.38434e-05
2.34746e-05
2.06281e-05
8.83003e-06
2.05799e-06
1.92577e-08
0
0
0.000126891
0.000224858
0.000889076
0.00446204
0.0102652
0.0173252
0.0240746
0.0289426
0.0306049
0.027921
0.0193063
0.0131054
0.0249457
0.0284956
0.0261856
0.0196659
0.0115097
0.00478776
0.000783516
0.000266336
2.38225e-05
0
0
5.55799e-07
4.02186e-06
1.29763e-05
2.21543e-05
2.47988e-05
2.38285e-05
2.25396e-05
2.20481e-05
2.19943e-05
2.19178e-05
2.17207e-05
2.14752e-05
2.12293e-05
2.09816e-05
2.07253e-05
2.04607e-05
2.01887e-05
1.99143e-05
1.964e-05
1.93679e-05
1.90995e-05
1.8837e-05
1.85828e-05
1.83366e-05
1.81e-05
1.78694e-05
1.7645e-05
1.74202e-05
1.72103e-05
1.69809e-05
1.67901e-05
1.65032e-05
1.64191e-05
1.59171e-05
1.61267e-05
1.51114e-05
1.60109e-05
1.37394e-05
1.65504e-05
1.21043e-05
1.88979e-05
1.5499e-05
2.45232e-05
2.4872e-05
3.06928e-05
2.28893e-05
2.24132e-05
2.19992e-05
2.17371e-05
2.16192e-05
2.21011e-05
2.09785e-05
1.70934e-05
3.14267e-06
7.59698e-07
0
0
3.03216e-06
9.37697e-05
0.000538697
0.000743286
0.0038573
0.00901285
0.015417
0.0216536
0.0261712
0.0275835
0.0247042
0.0157157
0.0143945
0.0235239
0.0254797
0.0222604
0.0158404
0.00875988
0.00335487
0.000331817
0.000167319
0
0
0
3.55389e-07
3.37567e-06
1.14866e-05
1.96274e-05
2.17393e-05
2.06487e-05
1.953e-05
1.91725e-05
1.91222e-05
1.90084e-05
1.8803e-05
1.85766e-05
1.83573e-05
1.81389e-05
1.79174e-05
1.76968e-05
1.74793e-05
1.72701e-05
1.70702e-05
1.68821e-05
1.67083e-05
1.65479e-05
1.64033e-05
1.62685e-05
1.61442e-05
1.60207e-05
1.59136e-05
1.57866e-05
1.56987e-05
1.55143e-05
1.55159e-05
1.50934e-05
1.53706e-05
1.44459e-05
1.5412e-05
1.32471e-05
1.61206e-05
1.1843e-05
1.86555e-05
1.55253e-05
2.44798e-05
2.51641e-05
3.08289e-05
2.12709e-05
2.08422e-05
2.04631e-05
2.02196e-05
1.99345e-05
1.98386e-05
2.00731e-05
2.03768e-05
1.85089e-05
1.13574e-05
2.52103e-06
3.66874e-08
0
0
0
9.06536e-05
0.000514916
0.000599616
0.00350877
0.00835172
0.0143743
0.0201939
0.024253
0.0251339
0.0216014
0.0112222
0.0160567
0.0223946
0.0226073
0.0185266
0.0122719
0.00615167
0.0018644
0.000246782
7.46506e-05
0
0
0
5.87556e-07
1.04697e-06
1.24088e-05
1.7801e-05
1.83621e-05
1.72461e-05
1.65776e-05
1.64415e-05
1.63777e-05
1.62205e-05
1.6018e-05
1.58186e-05
1.56317e-05
1.54532e-05
1.52836e-05
1.51301e-05
1.49946e-05
1.48798e-05
1.4788e-05
1.47186e-05
1.46719e-05
1.46412e-05
1.46257e-05
1.46124e-05
1.46155e-05
1.45964e-05
1.46159e-05
1.45343e-05
1.46248e-05
1.42824e-05
1.46315e-05
1.37896e-05
1.48356e-05
1.27504e-05
1.57285e-05
1.15289e-05
1.84657e-05
1.54797e-05
2.45085e-05
2.53791e-05
3.0948e-05
1.91188e-05
1.91015e-05
1.87401e-05
1.84933e-05
1.82749e-05
1.81455e-05
1.81922e-05
1.86631e-05
1.83024e-05
1.55492e-05
5.92113e-06
1.37102e-06
0
0
0
0
8.37769e-05
0.000501768
0.000605393
0.00346176
0.00814173
0.0138728
0.0192528
0.022697
0.0227734
0.0181948
0.00474062
0.0171932
0.0209797
0.0196146
0.0148979
0.00891343
0.00388095
0.000801163
0.000214898
0
0
0
2.95788e-08
1.9978e-06
6.5244e-06
1.3751e-05
1.58455e-05
1.51724e-05
1.42779e-05
1.39498e-05
1.38636e-05
1.37433e-05
1.35724e-05
1.34047e-05
1.32578e-05
1.31317e-05
1.30334e-05
1.29643e-05
1.29279e-05
1.29254e-05
1.29551e-05
1.30148e-05
1.3095e-05
1.31939e-05
1.32937e-05
1.34078e-05
1.34938e-05
1.36147e-05
1.3628e-05
1.37994e-05
1.35344e-05
1.39469e-05
1.31863e-05
1.43011e-05
1.22964e-05
1.53714e-05
1.12407e-05
1.83111e-05
1.54134e-05
2.45688e-05
2.54975e-05
3.10583e-05
1.74183e-05
1.74581e-05
1.71535e-05
1.69726e-05
1.6828e-05
1.6682e-05
1.6537e-05
1.65124e-05
1.67163e-05
1.71083e-05
1.61474e-05
1.13047e-05
2.56944e-06
3.64231e-08
0
0
0
0
8.63854e-05
0.000503752
0.000750694
0.00366104
0.00828902
0.0137713
0.0186405
0.021283
0.0202814
0.0142344
0.00944038
0.0176751
0.0191949
0.0164428
0.0113074
0.00591114
0.00198342
0.000314198
6.62479e-05
0
0
0
2.70084e-07
2.54451e-07
8.69021e-06
1.24552e-05
1.2702e-05
1.19452e-05
1.14925e-05
1.13539e-05
1.12552e-05
1.1131e-05
1.10198e-05
1.09465e-05
1.09187e-05
1.09365e-05
1.1002e-05
1.11148e-05
1.12679e-05
1.14554e-05
1.16628e-05
1.18858e-05
1.21041e-05
1.23293e-05
1.25166e-05
1.27301e-05
1.28279e-05
1.3067e-05
1.28765e-05
1.33397e-05
1.26615e-05
1.38253e-05
1.19157e-05
1.50565e-05
1.10233e-05
1.81848e-05
1.53455e-05
2.46553e-05
2.55216e-05
3.11857e-05
1.58351e-05
1.58557e-05
1.55467e-05
1.53877e-05
1.52774e-05
1.51734e-05
1.50785e-05
1.4953e-05
1.48575e-05
1.49123e-05
1.53038e-05
1.53442e-05
1.35068e-05
5.48496e-06
1.29487e-06
1.0728e-08
0
0
0
0
9.81881e-05
0.000508385
0.00103905
0.00411389
0.00877267
0.0139864
0.0182027
0.0198052
0.0174401
0.00911663
0.0128079
0.0174329
0.0169051
0.013051
0.00785657
0.00336286
0.000638848
0.000202057
0
0
0
7.52958e-09
1.73324e-06
5.52455e-06
9.21142e-06
1.00244e-05
9.48777e-06
8.9607e-06
8.75034e-06
8.6675e-06
8.61709e-06
8.62022e-06
8.70615e-06
8.87321e-06
9.10657e-06
9.39152e-06
9.71299e-06
1.00578e-05
1.04093e-05
1.07607e-05
1.10938e-05
1.14205e-05
1.16959e-05
1.19842e-05
1.21487e-05
1.24343e-05
1.23077e-05
1.28056e-05
1.22057e-05
1.33986e-05
1.1586e-05
1.47704e-05
1.08378e-05
1.80768e-05
1.52571e-05
2.47484e-05
2.54186e-05
3.13463e-05
1.44465e-05
1.44579e-05
1.41799e-05
1.40316e-05
1.3925e-05
1.38441e-05
1.37755e-05
1.36889e-05
1.35929e-05
1.34812e-05
1.34696e-05
1.36196e-05
1.4098e-05
1.33018e-05
1.03946e-05
1.37093e-06
4.10975e-07
0
0
0
0
0
0.00022076
0.000255124
0.00146861
0.00481379
0.00953833
0.0143943
0.0177491
0.0180346
0.0139372
0.00524984
0.0145123
0.0163391
0.0140562
0.00952794
0.00478543
0.00145654
8.87072e-05
3.92828e-05
0
0
0
8.69188e-07
2.10609e-06
4.36295e-06
5.61293e-06
5.8842e-06
5.62481e-06
5.5218e-06
5.69524e-06
6.04747e-06
6.49075e-06
6.99092e-06
7.5219e-06
8.05782e-06
8.58097e-06
9.08514e-06
9.56191e-06
1.00138e-05
1.04295e-05
1.08258e-05
1.11607e-05
1.14932e-05
1.17009e-05
1.20065e-05
1.19334e-05
1.24404e-05
1.19264e-05
1.31057e-05
1.1427e-05
1.45777e-05
1.08089e-05
1.80216e-05
1.51492e-05
2.48622e-05
2.50758e-05
3.16688e-05
1.30556e-05
1.30804e-05
1.27965e-05
1.2647e-05
1.25408e-05
1.24823e-05
1.24342e-05
1.23387e-05
1.2282e-05
1.22174e-05
1.21209e-05
1.20482e-05
1.21409e-05
1.24175e-05
1.26703e-05
1.12154e-05
6.94444e-06
1.7682e-06
4.82318e-08
0
0
0
0
1.39866e-05
0.000253013
0.000180974
0.00206955
0.0057902
0.0105144
0.0148153
0.0170051
0.0156099
0.00897859
0.0106158
0.0149004
0.0142756
0.0106352
0.00598129
0.00222986
0.000244219
0.000156119
0
0
0
1.25205e-07
1.54508e-06
1.79114e-06
4.12491e-06
3.62348e-06
3.56186e-06
4.31595e-06
5.19126e-06
5.99209e-06
6.67605e-06
7.27923e-06
7.83899e-06
8.36349e-06
8.85648e-06
9.31345e-06
9.74195e-06
1.01357e-05
1.05113e-05
1.08321e-05
1.11447e-05
1.13389e-05
1.16124e-05
1.15454e-05
1.20311e-05
1.15555e-05
1.27212e-05
1.10793e-05
1.42745e-05
1.04735e-05
1.78626e-05
1.48594e-05
2.48572e-05
2.4423e-05
3.2195e-05
1.22956e-05
1.23e-05
1.2095e-05
1.19689e-05
1.18744e-05
1.18043e-05
1.1749e-05
1.16636e-05
1.15972e-05
1.15255e-05
1.14251e-05
1.13292e-05
1.12464e-05
1.12019e-05
1.12888e-05
1.15845e-05
1.1285e-05
9.51101e-06
5.01129e-06
1.51905e-06
5.45485e-08
0
0
0
0
2.25405e-05
0.000374212
0.000502358
0.00301443
0.00710331
0.0117854
0.0154394
0.016344
0.0130582
0.00503488
0.013105
0.0144955
0.0119411
0.00744484
0.00297911
0.000236298
0.000215426
0.000156276
6.82138e-05
1.01166e-05
0
2.08941e-07
2.87191e-07
6.06856e-06
8.48011e-06
8.23239e-06
7.82541e-06
7.8904e-06
8.21268e-06
8.58177e-06
8.94375e-06
9.30135e-06
9.65705e-06
1.00037e-05
1.03391e-05
1.06583e-05
1.09701e-05
1.1246e-05
1.15125e-05
1.1681e-05
1.19092e-05
1.18666e-05
1.22845e-05
1.19018e-05
1.29312e-05
1.14923e-05
1.44429e-05
1.08152e-05
1.80399e-05
1.44788e-05
2.51001e-05
2.32753e-05
3.39069e-05
1.0205e-05
1.01788e-05
1.00693e-05
1.00469e-05
1.00371e-05
1.00335e-05
1.00474e-05
1.00716e-05
1.00896e-05
1.00955e-05
1.01009e-05
1.01204e-05
1.01415e-05
1.01585e-05
1.01721e-05
1.02758e-05
1.04858e-05
1.07091e-05
1.03753e-05
9.02879e-06
4.92259e-06
1.47991e-06
0
0
0
0
0
6.76047e-05
0.000348175
0.000595401
0.00279468
0.00620186
0.00991586
0.0126306
0.013
0.00985927
0.00493254
0.0107841
0.0114323
0.00921726
0.00589213
0.00295935
0.00107774
0.000138733
0.000124285
5.05103e-05
0
1.40483e-08
1.24253e-06
5.08276e-06
8.47961e-06
9.56365e-06
9.65621e-06
9.65588e-06
9.75153e-06
9.89376e-06
1.00422e-05
1.0189e-05
1.03335e-05
1.04745e-05
1.06099e-05
1.0748e-05
1.08704e-05
1.09964e-05
1.10361e-05
1.11143e-05
1.09594e-05
1.12762e-05
1.08018e-05
1.18238e-05
1.01227e-05
1.33612e-05
8.84955e-06
1.70539e-05
1.31758e-05
2.39709e-05
2.32431e-05
3.37894e-05
)
;

boundaryField
{
    inlet
    {
        type            calculated;
        value           nonuniform List<scalar> 
27
(
7.73177e-05
7.73856e-05
7.74934e-05
7.76297e-05
7.7774e-05
7.79235e-05
7.80814e-05
7.82465e-05
7.8418e-05
7.85903e-05
7.87625e-05
7.89317e-05
7.9095e-05
7.92489e-05
7.93899e-05
7.95144e-05
7.96248e-05
7.94507e-05
7.94875e-05
7.94883e-05
7.94355e-05
7.93229e-05
7.91345e-05
7.88609e-05
7.84716e-05
7.80849e-05
7.73401e-05
)
;
    }
    outlet
    {
        type            calculated;
        value           nonuniform List<scalar> 
78
(
9.14969e-06
9.11448e-06
8.94505e-06
8.91344e-06
8.90461e-06
8.90654e-06
8.93435e-06
8.97773e-06
9.01315e-06
9.03252e-06
9.05199e-06
9.09161e-06
9.13672e-06
9.17739e-06
9.21362e-06
9.33237e-06
9.55184e-06
9.78563e-06
9.50673e-06
8.27922e-06
4.56443e-06
1.41715e-06
0
0
0
0
0
6.77626e-05
0.000348035
0.000574857
0.00278148
0.00619036
0.00990921
0.0126339
0.0130201
0.0099085
0.00474352
0.0107261
0.011401
0.00920394
0.00589037
0.00296346
0.00108426
0.000126902
0.00012097
4.90334e-05
0
1.27943e-08
1.13648e-06
4.73027e-06
7.95625e-06
8.99718e-06
9.08845e-06
9.08221e-06
9.1569e-06
9.26622e-06
9.37337e-06
9.47293e-06
9.56527e-06
9.65153e-06
9.73023e-06
9.81492e-06
9.88169e-06
9.96586e-06
9.94307e-06
1.0006e-05
9.74466e-06
1.01804e-05
9.43651e-06
1.0904e-05
8.28932e-06
1.27926e-05
4.56243e-06
1.67311e-05
1.24679e-05
2.35643e-05
2.32705e-05
3.28739e-05
)
;
    }
    walls
    {
        type            calculated;
        value           nonuniform List<scalar> 0();
    }
    frontAndBack
    {
        type            empty;
    }
    procBoundary7to3
    {
        type            processor;
        value           nonuniform List<scalar> 
16
(
3.53611e-05
3.57497e-05
3.13894e-05
2.92264e-05
2.77588e-05
2.59655e-05
2.39247e-05
2.20258e-05
1.94345e-05
1.94345e-05
1.77423e-05
1.61721e-05
1.4774e-05
1.33665e-05
1.26007e-05
1.03125e-05
)
;
    }
    procBoundary7to6
    {
        type            processor;
        value           nonuniform List<scalar> 
91
(
3.01823e-05
2.69233e-05
2.69233e-05
2.62793e-05
2.62793e-05
1.68861e-05
1.68861e-05
1.60965e-05
2.17179e-05
2.17179e-05
1.92764e-05
2.07908e-05
2.07908e-05
2.28993e-05
2.14829e-05
2.14178e-05
2.14178e-05
2.47323e-05
2.39317e-05
2.29631e-05
2.29631e-05
2.80683e-05
2.70566e-05
2.6057e-05
2.50725e-05
2.50725e-05
3.19533e-05
3.09589e-05
2.99742e-05
2.90019e-05
2.80434e-05
2.80434e-05
3.66544e-05
3.58017e-05
3.49344e-05
3.4055e-05
3.31669e-05
3.22737e-05
3.13783e-05
3.13783e-05
4.13478e-05
4.09243e-05
4.04757e-05
3.99996e-05
3.94946e-05
3.89602e-05
3.83957e-05
3.7801e-05
3.71772e-05
3.65265e-05
3.58498e-05
3.5149e-05
3.5149e-05
4.89127e-07
0
0
0.000539775
0.000539065
0.00477525
0.0130353
0.0230646
0.0325441
0.0399553
0.0443037
0.0446509
0.0398417
0.0277997
0.0173395
0.0352881
0.0424872
0.0422364
0.0356654
0.0246969
0.0127955
0.00409807
0.000765783
2.40213e-05
0
0
0
7.69971e-06
2.91068e-05
4.31475e-05
4.3167e-05
4.06282e-05
3.96777e-05
3.94783e-05
3.92145e-05
3.88614e-05
3.85127e-05
3.85127e-05
)
;
    }
}


// ************************************************************************* //
