/*--------------------------------*- C++ -*----------------------------------*\
| =========                 |                                                 |
| \\      /  F ield         | OpenFOAM: The Open Source CFD Toolbox           |
|  \\    /   O peration     | Version:  2506                                  |
|   \\  /    A nd           | Website:  www.openfoam.com                      |
|    \\/     M anipulation  |                                                 |
\*---------------------------------------------------------------------------*/
FoamFile
{
    version     2.0;
    format      ascii;
    arch        "LSB;label=32;scalar=64";
    class       volScalarField;
    location    "250";
    object      turbulenceProperties:epsilon;
}
// * * * * * * * * * * * * * * * * * * * * * * * * * * * * * * * * * * * * * //

dimensions      [0 2 -3 0 0 0 0];

internalField   nonuniform List<scalar> 
1340
(
6.72959e-10
3.88551e-10
6.92743e-10
3.65388e-10
3.64724e-10
6.92312e-10
6.3652e-11
3.56071e-10
3.49359e-10
6.98017e-10
5.07929e-11
1.71182e-10
6.24665e-11
3.48712e-10
3.36529e-10
7.07478e-10
1.02858e-10
1.41957e-10
4.77865e-11
1.64939e-10
6.12516e-11
3.4213e-10
3.26322e-10
7.17147e-10
2.04614e-10
1.57665e-10
1.57664e-10
9.4783e-11
1.34155e-10
4.47301e-11
1.58954e-10
6.00823e-11
3.36528e-10
3.19082e-10
7.26258e-10
2.73114e-10
2.40481e-10
2.03802e-10
1.87168e-10
1.43858e-10
1.46157e-10
8.69233e-11
1.26497e-10
4.1681e-11
1.53351e-10
5.89509e-11
3.32013e-10
3.14552e-10
7.34624e-10
4.39933e-10
3.82024e-10
3.30355e-10
2.84784e-10
2.43528e-10
2.16e-10
1.83448e-10
1.70274e-10
1.30565e-10
1.34923e-10
7.93408e-11
1.19026e-10
3.86696e-11
1.48065e-10
5.78631e-11
3.28319e-10
3.12066e-10
7.4348e-10
7.04747e-10
6.25721e-10
5.53821e-10
4.88751e-10
4.30118e-10
3.77483e-10
3.30458e-10
2.88013e-10
2.50398e-10
2.15529e-10
1.9267e-10
1.64015e-10
1.53965e-10
1.17803e-10
1.23978e-10
7.20422e-11
1.11719e-10
3.57114e-11
1.42983e-10
5.68381e-11
3.25165e-10
3.11172e-10
7.51376e-10
1.1352e-09
1.04204e-09
9.52678e-10
8.67507e-10
7.86956e-10
7.11275e-10
6.40654e-10
5.75155e-10
5.14749e-10
4.59294e-10
4.08622e-10
3.62541e-10
3.2077e-10
2.83186e-10
2.48848e-10
2.18306e-10
1.89237e-10
1.70602e-10
1.456e-10
1.38334e-10
1.05632e-10
1.13373e-10
6.50657e-11
1.04587e-10
3.28313e-11
1.38055e-10
5.58688e-11
3.22429e-10
3.12331e-10
7.59216e-10
1.67176e-09
1.61325e-09
1.55281e-09
1.49031e-09
1.42575e-09
1.35932e-09
1.29126e-09
1.2219e-09
1.15166e-09
1.08116e-09
1.01089e-09
9.41352e-10
8.7308e-10
8.06553e-10
7.42264e-10
6.80523e-10
6.21682e-10
5.65974e-10
5.13589e-10
4.6463e-10
4.19117e-10
3.76991e-10
3.38154e-10
3.02526e-10
2.69917e-10
2.40386e-10
2.1306e-10
1.88706e-10
1.6483e-10
1.49957e-10
1.28337e-10
1.23498e-10
9.41404e-11
1.03182e-10
5.84547e-11
9.76575e-11
3.00607e-11
1.3329e-10
5.49319e-11
3.20047e-10
3.14586e-10
7.66987e-10
1.03978e-12
1.77778e-15
0
0
4.88149e-07
9.12991e-07
0.000105009
0.00559812
0.0433364
0.140138
0.267805
0.352429
0.333062
0.211887
0.0659429
0.000696003
0.0646404
0.197524
0.27108
0.213716
0.091972
0.0172935
0.00089222
8.80753e-07
4.15232e-08
0
0
0
4.61099e-13
1.68035e-10
1.69971e-09
1.94866e-09
1.52019e-09
1.35031e-09
1.32532e-09
1.29931e-09
1.25736e-09
1.2153e-09
1.1753e-09
1.13463e-09
1.09244e-09
1.04886e-09
1.00391e-09
9.57617e-10
9.10123e-10
8.61703e-10
8.12782e-10
7.63749e-10
7.14929e-10
6.66684e-10
6.194e-10
5.73434e-10
5.29027e-10
4.86451e-10
4.45898e-10
4.07521e-10
3.71429e-10
3.37661e-10
3.06178e-10
2.76919e-10
2.49863e-10
2.2486e-10
2.02094e-10
1.80739e-10
1.61711e-10
1.42416e-10
1.30841e-10
1.12321e-10
1.09556e-10
8.33856e-11
9.34585e-11
5.22533e-11
9.09357e-11
2.74214e-11
1.28589e-10
5.40578e-11
3.17869e-10
3.18116e-10
7.74716e-10
6.4909e-10
2.43051e-12
4.5355e-15
0
0
3.25014e-12
5.49403e-06
2.30407e-06
0.00129191
0.0175511
0.0769654
0.178317
0.268876
0.285437
0.207936
0.0842703
0.00465052
0.0303066
0.134039
0.213172
0.187393
0.0904635
0.0200078
0.00130469
3.64104e-06
9.33364e-08
0
0
0
8.64025e-14
2.80915e-11
1.03027e-09
1.45796e-09
1.12122e-09
9.51115e-10
9.26048e-10
9.13223e-10
8.85401e-10
8.55791e-10
8.28308e-10
8.00271e-10
7.7057e-10
7.39685e-10
7.07922e-10
6.75281e-10
6.41811e-10
6.07798e-10
5.7354e-10
5.39276e-10
5.05264e-10
4.71786e-10
4.391e-10
4.07397e-10
3.76878e-10
3.47682e-10
3.19935e-10
2.9372e-10
2.69072e-10
2.45967e-10
2.24341e-10
2.04206e-10
1.85418e-10
1.68245e-10
1.5189e-10
1.37375e-10
1.2206e-10
1.13329e-10
9.76156e-11
9.65798e-11
7.3425e-11
8.42659e-11
4.64821e-11
8.44471e-11
2.49169e-11
1.24005e-10
5.31623e-11
3.15776e-10
3.21743e-10
7.82969e-10
6.71085e-10
4.98378e-10
6.51089e-12
1.0627e-14
0
0
0
1.42951e-06
1.37571e-06
0.000170647
0.00571069
0.0374464
0.110505
0.196133
0.236674
0.196593
0.0983159
0.0141993
0.0107759
0.0866244
0.164203
0.161825
0.0873974
0.0222651
0.0018058
1.19061e-05
1.2939e-07
0
0
0
3.3087e-15
7.00715e-13
5.08734e-10
1.0456e-09
8.44657e-10
6.80974e-10
6.52383e-10
6.47951e-10
6.28746e-10
6.04637e-10
5.83462e-10
5.63669e-10
5.42944e-10
5.20999e-10
4.98271e-10
4.74982e-10
4.51267e-10
4.27309e-10
4.0327e-10
3.79353e-10
3.55749e-10
3.32658e-10
3.10224e-10
2.88588e-10
2.67846e-10
2.48096e-10
2.2939e-10
2.11763e-10
1.95169e-10
1.79565e-10
1.6495e-10
1.51176e-10
1.38573e-10
1.2636e-10
1.15598e-10
1.0372e-10
9.74e-11
8.4219e-11
8.45798e-11
6.42673e-11
7.55966e-11
4.11552e-11
7.82137e-11
2.25638e-11
1.19319e-10
5.22216e-11
3.1426e-10
3.25552e-10
7.91733e-10
4.2514e-10
4.92287e-10
3.99624e-10
2.85412e-11
4.27474e-14
0
0
0
9.15381e-10
5.24138e-06
6.84714e-06
0.00140284
0.0157287
0.062893
0.136071
0.189834
0.179867
0.107173
0.0258437
0.00205602
0.0532524
0.124624
0.138315
0.0830356
0.0239077
0.00232046
2.55541e-05
1.88425e-07
0
0
0
2.17838e-19
5.67852e-13
1.88068e-10
6.94712e-10
6.27337e-10
4.79442e-10
4.42294e-10
4.48925e-10
4.46352e-10
4.30945e-10
4.134e-10
3.97663e-10
3.82543e-10
3.66864e-10
3.50471e-10
3.33669e-10
3.16715e-10
2.99718e-10
2.82818e-10
2.66138e-10
2.49838e-10
2.34015e-10
2.18772e-10
2.0419e-10
1.90314e-10
1.77191e-10
1.64822e-10
1.53182e-10
1.42206e-10
1.3188e-10
1.22064e-10
1.13087e-10
1.04228e-10
9.65177e-11
8.75077e-11
8.32008e-11
7.22347e-11
7.37069e-11
5.5958e-11
6.76086e-11
3.62486e-11
7.23436e-11
2.0212e-11
1.15028e-10
5.09315e-11
3.12705e-10
3.30006e-10
8.03886e-10
3.40559e-10
3.21929e-10
3.71225e-10
3.18161e-10
7.66612e-11
1.19441e-13
6.42864e-22
0
0
0
1.97707e-06
1.05396e-06
0.000198331
0.00505896
0.0302225
0.0848112
0.142903
0.158874
0.113737
0.0404409
0.000629225
0.0277916
0.0900925
0.116876
0.0797741
0.0266309
0.00322472
5.45496e-05
1.41231e-07
2.00101e-08
0
0
0
2.28018e-13
6.63731e-11
4.31527e-10
5.32213e-10
4.05843e-10
3.20521e-10
3.01047e-10
3.02009e-10
2.97982e-10
2.8728e-10
2.75057e-10
2.63538e-10
2.52305e-10
2.40855e-10
2.29154e-10
2.17404e-10
2.05778e-10
1.94303e-10
1.83117e-10
1.72298e-10
1.61904e-10
1.52006e-10
1.42618e-10
1.33784e-10
1.25467e-10
1.17679e-10
1.10334e-10
1.03402e-10
9.67682e-11
9.07127e-11
8.45909e-11
7.94129e-11
7.2841e-11
7.02085e-11
6.12889e-11
6.3565e-11
4.83437e-11
5.99134e-11
3.18572e-11
6.6365e-11
1.82856e-11
1.10104e-10
5.00014e-11
3.10143e-10
3.3408e-10
8.1158e-10
2.79127e-10
2.52266e-10
2.42685e-10
2.50832e-10
2.35681e-10
1.41051e-10
3.76082e-12
5.79406e-15
4.37227e-24
0
0
1.06609e-07
3.36911e-07
3.28106e-06
0.000562219
0.00662823
0.0294088
0.0706663
0.106562
0.104927
0.0617559
0.0128943
0.00269492
0.0377024
0.0755453
0.0717693
0.0357167
0.00826559
0.000674475
4.15601e-06
1.55949e-07
2.42583e-10
0
0
1.29278e-17
9.93566e-14
1.95423e-11
1.89541e-10
2.93733e-10
2.52252e-10
2.03157e-10
1.86285e-10
1.84523e-10
1.82022e-10
1.75678e-10
1.67999e-10
1.60553e-10
1.53294e-10
1.46037e-10
1.38808e-10
1.31652e-10
1.2471e-10
1.18038e-10
1.11681e-10
1.05656e-10
9.9993e-11
9.47236e-11
8.98099e-11
8.52611e-11
8.09879e-11
7.6976e-11
7.30994e-11
6.96038e-11
6.59259e-11
6.29654e-11
5.87227e-11
5.74903e-11
5.07389e-11
5.34185e-11
4.11514e-11
5.18025e-11
2.80747e-11
5.90193e-11
1.68907e-11
1.00068e-10
4.54101e-11
2.82914e-10
3.01514e-10
7.00309e-10
2.14205e-10
1.96952e-10
1.82838e-10
1.74274e-10
1.70404e-10
1.85492e-10
1.51223e-10
6.63319e-11
3.95147e-14
7.06001e-17
0
0
2.13882e-14
4.74807e-08
1.91577e-06
1.89181e-06
0.000353547
0.00434041
0.0199396
0.0492142
0.0749146
0.072291
0.0394286
0.00592142
0.00414471
0.0321413
0.0536552
0.0433884
0.0182399
0.00353416
0.000226293
4.10223e-07
6.07345e-08
0
0
0
1.85571e-18
4.86425e-14
1.21368e-11
1.16786e-10
1.73277e-10
1.42428e-10
1.14623e-10
1.06569e-10
1.05457e-10
1.02992e-10
9.86669e-11
9.40537e-11
8.9736e-11
8.55822e-11
8.15121e-11
7.76029e-11
7.38857e-11
7.04334e-11
6.72461e-11
6.43427e-11
6.17401e-11
5.94054e-11
5.73526e-11
5.54822e-11
5.37919e-11
5.21464e-11
5.07419e-11
4.91126e-11
4.7996e-11
4.57472e-11
4.57333e-11
4.09265e-11
4.39831e-11
3.42918e-11
4.43832e-11
2.42143e-11
5.30256e-11
1.54527e-11
9.48836e-11
4.56555e-11
2.80557e-10
3.1561e-10
7.12069e-10
1.60264e-10
1.4774e-10
1.37293e-10
1.30889e-10
1.23679e-10
1.21256e-10
1.26878e-10
1.34424e-10
9.20693e-11
1.21743e-11
1.60412e-14
8.85621e-23
0
0
0
4.48864e-08
1.87265e-06
9.51283e-07
0.000262273
0.00336661
0.0156023
0.0381484
0.056267
0.0506777
0.0235464
0.00159347
0.00678036
0.0288185
0.0379319
0.0250095
0.00842378
0.0012194
4.15837e-05
4.47185e-08
1.22634e-08
0
0
0
1.91991e-17
2.73996e-16
1.79515e-11
7.86211e-11
8.86278e-11
6.95956e-11
5.95717e-11
5.76469e-11
5.67482e-11
5.46132e-11
5.19572e-11
4.94362e-11
4.71547e-11
4.50498e-11
4.31132e-11
4.14159e-11
3.99569e-11
3.87508e-11
3.78036e-11
3.70971e-11
3.66241e-11
3.63109e-11
3.61476e-11
3.60022e-11
3.60164e-11
3.58083e-11
3.59759e-11
3.51551e-11
3.60164e-11
3.2741e-11
3.60358e-11
2.84127e-11
3.80303e-11
2.07414e-11
4.79656e-11
1.38537e-11
9.09389e-11
4.50558e-11
2.81525e-10
3.26157e-10
7.22413e-10
1.04906e-10
1.04536e-10
9.68525e-11
9.18582e-11
8.76086e-11
8.5141e-11
8.59598e-11
9.49135e-11
8.7923e-11
4.59645e-11
7.33937e-13
1.09636e-15
0
0
0
0
3.50931e-08
1.71425e-06
9.9979e-07
0.000248804
0.00303091
0.0134483
0.0312472
0.042831
0.0341364
0.0120166
5.2713e-05
0.00956085
0.0248386
0.0253327
0.0131503
0.00327345
0.000310359
3.53793e-06
6.11719e-08
0
0
0
2.9127e-23
5.18994e-15
1.12576e-12
2.82169e-11
4.89223e-11
4.15132e-11
3.27586e-11
2.98752e-11
2.91359e-11
2.8135e-11
2.6767e-11
2.54732e-11
2.4378e-11
2.34666e-11
2.27729e-11
2.22946e-11
2.2044e-11
2.20252e-11
2.22253e-11
2.26332e-11
2.319e-11
2.38898e-11
2.46105e-11
2.54537e-11
2.60981e-11
2.70284e-11
2.71156e-11
2.84876e-11
2.63472e-11
2.96895e-11
2.37094e-11
3.27759e-11
1.79078e-11
4.36776e-11
1.24977e-11
8.77935e-11
4.42207e-11
2.83939e-10
3.3188e-10
7.31927e-10
7.24623e-11
7.31314e-11
6.81621e-11
6.53355e-11
6.31435e-11
6.09852e-11
5.89006e-11
5.85257e-11
6.13827e-11
6.71566e-11
5.3551e-11
1.24929e-11
1.86498e-14
9.20456e-23
0
0
0
0
3.87944e-08
1.54594e-06
2.07045e-06
0.000288783
0.0030782
0.0124607
0.0264099
0.0322013
0.02125
0.0045692
0.000868648
0.0116681
0.020041
0.0154145
0.00590219
0.000980428
4.39379e-05
1.00909e-07
8.64411e-09
0
0
0
6.61382e-19
5.48007e-19
4.31696e-12
1.88364e-11
2.0324e-11
1.60275e-11
1.37599e-11
1.31058e-11
1.26527e-11
1.21029e-11
1.16269e-11
1.13203e-11
1.12052e-11
1.12773e-11
1.15479e-11
1.20267e-11
1.27e-11
1.35626e-11
1.45668e-11
1.57066e-11
1.68844e-11
1.81666e-11
1.92838e-11
2.06192e-11
2.12452e-11
2.28594e-11
2.15438e-11
2.47986e-11
2.01159e-11
2.8573e-11
1.57616e-11
4.01356e-11
1.15384e-11
8.52596e-11
4.33778e-11
2.87566e-10
3.32703e-10
7.43031e-10
4.96215e-11
4.98827e-11
4.61085e-11
4.42528e-11
4.29992e-11
4.18423e-11
4.08084e-11
3.94714e-11
3.84713e-11
3.90156e-11
4.31679e-11
4.36149e-11
2.63265e-11
5.59846e-13
9.07546e-16
3.76863e-25
0
0
0
0
5.71071e-08
1.27991e-06
5.95843e-06
0.000396899
0.00346152
0.0121768
0.0225103
0.0231528
0.0114535
0.000785801
0.00313611
0.0124088
0.0145136
0.00804041
0.0020614
0.000189109
1.72927e-06
5.82365e-08
0
0
0
7.21765e-26
3.26579e-15
6.43087e-13
5.67809e-12
7.87367e-12
6.3695e-12
5.08369e-12
4.62231e-12
4.44744e-12
4.34437e-12
4.35062e-12
4.52607e-12
4.88242e-12
5.41516e-12
6.12356e-12
7.00357e-12
8.04905e-12
9.23058e-12
1.05361e-11
1.18959e-11
1.33515e-11
1.46769e-11
1.61663e-11
1.70597e-11
1.87091e-11
1.79483e-11
2.10203e-11
1.734e-11
2.51583e-11
1.40623e-11
3.71039e-11
1.0762e-11
8.31133e-11
4.2316e-11
2.915e-10
3.26894e-10
7.57214e-10
3.44511e-11
3.45614e-11
3.19804e-11
3.06641e-11
2.97435e-11
2.9059e-11
2.84882e-11
2.77805e-11
2.70118e-11
2.61376e-11
2.60391e-11
2.71887e-11
3.11009e-11
2.47853e-11
9.11999e-12
1.17589e-15
5.09526e-18
0
0
0
0
0
3.52644e-07
2.13038e-07
1.79243e-05
0.000609619
0.00415956
0.0121733
0.0187176
0.0151527
0.00462432
8.96222e-05
0.00566044
0.0112255
0.00887591
0.00328695
0.00048994
1.66402e-05
8.42185e-10
1.74783e-09
0
0
0
1.61661e-16
1.07028e-14
2.85853e-13
7.73426e-13
9.41031e-13
7.89648e-13
7.33327e-13
8.28991e-13
1.05317e-12
1.39731e-12
1.88002e-12
2.51875e-12
3.31557e-12
4.26216e-12
5.35288e-12
6.56443e-12
7.89127e-12
9.27955e-12
1.07645e-11
1.21505e-11
1.36534e-11
1.46557e-11
1.62359e-11
1.58352e-11
1.86897e-11
1.57778e-11
2.29882e-11
1.3282e-11
3.51429e-11
1.06282e-11
8.19637e-11
4.10593e-11
2.96434e-10
3.09117e-10
7.8731e-10
2.30423e-11
2.32184e-11
2.12676e-11
2.02917e-11
1.96188e-11
1.92559e-11
1.89608e-11
1.83857e-11
1.80504e-11
1.76747e-11
1.71247e-11
1.6718e-11
1.72255e-11
1.88099e-11
2.03496e-11
1.2574e-11
1.6869e-12
3.81147e-15
3.1963e-22
0
0
0
0
1.90187e-11
4.09748e-07
3.53054e-08
5.14594e-05
0.000998124
0.00512433
0.011945
0.0144022
0.00813713
0.000803932
0.00160359
0.00724045
0.00825489
0.00413549
0.00086867
5.24704e-05
7.49074e-08
5.24375e-08
0
0
0
2.38424e-20
2.39615e-15
7.85206e-15
2.23491e-13
1.33128e-13
1.26499e-13
2.73612e-13
5.72359e-13
1.01488e-12
1.56269e-12
2.2077e-12
2.96774e-12
3.84315e-12
4.82956e-12
5.90217e-12
7.06056e-12
8.26686e-12
9.55429e-12
1.07659e-11
1.20526e-11
1.29033e-11
1.41829e-11
1.38495e-11
1.63194e-11
1.38793e-11
2.03691e-11
1.17151e-11
3.2247e-11
9.35124e-12
7.89591e-11
3.79334e-11
2.95607e-10
2.77722e-10
8.38109e-10
1.81575e-11
1.8184e-11
1.70018e-11
1.63044e-11
1.57952e-11
1.54258e-11
1.51387e-11
1.47039e-11
1.43715e-11
1.40198e-11
1.3538e-11
1.30896e-11
1.27126e-11
1.25086e-11
1.28848e-11
1.424e-11
1.28607e-11
6.4885e-12
4.12559e-13
1.83133e-15
5.21804e-22
0
0
0
0
1.61632e-10
7.07567e-07
6.30185e-07
0.000149921
0.00169664
0.00652614
0.0119598
0.010931
0.00372305
7.88405e-05
0.0039696
0.00759641
0.00538699
0.00161115
0.000138932
2.42751e-07
9.20448e-08
6.94863e-08
7.59598e-09
7.67345e-12
0
3.47012e-19
1.47208e-18
1.05829e-12
4.01935e-12
3.58162e-12
2.94784e-12
3.05119e-12
3.57891e-12
4.26345e-12
5.02607e-12
5.87543e-12
6.82213e-12
7.84965e-12
8.94921e-12
1.00977e-11
1.13221e-11
1.24931e-11
1.37067e-11
1.45126e-11
1.56673e-11
1.54335e-11
1.77115e-11
1.55948e-11
2.17129e-11
1.354e-11
3.37415e-11
1.06144e-11
8.20083e-11
3.41345e-11
3.06775e-10
2.2874e-10
1.02727e-09
8.64658e-12
8.55808e-12
8.1957e-12
8.123e-12
8.09137e-12
8.07985e-12
8.12461e-12
8.2029e-12
8.26161e-12
8.28099e-12
8.29858e-12
8.36275e-12
8.43279e-12
8.4897e-12
8.53547e-12
8.88301e-12
9.61351e-12
1.04303e-11
9.22539e-12
5.28127e-12
3.74767e-13
1.55581e-15
0
0
0
0
0
1.50766e-08
4.63089e-07
1.17102e-06
0.000113793
0.00106191
0.00363285
0.00607892
0.00503974
0.00140657
8.48942e-05
0.00213856
0.00345245
0.00220691
0.000663702
9.01392e-05
4.03562e-06
3.5414e-09
1.27545e-08
1.53144e-09
0
1.53993e-24
8.92969e-16
4.68558e-13
4.07745e-12
6.58056e-12
6.8335e-12
6.83431e-12
7.10579e-12
7.52342e-12
7.97815e-12
8.44753e-12
8.92865e-12
9.41672e-12
9.90316e-12
1.04179e-11
1.08885e-11
1.13898e-11
1.1542e-11
1.18611e-11
1.12045e-11
1.2547e-11
1.05572e-11
1.51417e-11
8.13111e-12
2.46482e-11
4.74738e-12
6.52903e-11
2.3373e-11
2.53953e-10
2.27771e-10
1.0012e-09
)
;

boundaryField
{
    inlet
    {
        type            calculated;
        value           nonuniform List<scalar> 
27
(
2.84165e-08
2.84916e-08
2.863e-08
2.88141e-08
2.90106e-08
2.92147e-08
2.94325e-08
2.96624e-08
2.99034e-08
3.01468e-08
3.03914e-08
3.06327e-08
3.08657e-08
3.10848e-08
3.12838e-08
3.14563e-08
3.16041e-08
3.13038e-08
3.13433e-08
3.1327e-08
3.12239e-08
3.10244e-08
3.07027e-08
3.02474e-08
2.95988e-08
2.89601e-08
2.76882e-08
)
;
    }
    outlet
    {
        type            calculated;
        value           nonuniform List<scalar> 
78
(
5.58719e-12
5.50171e-12
5.10389e-12
5.03211e-12
5.01216e-12
5.01648e-12
5.07938e-12
5.17871e-12
5.26085e-12
5.30615e-12
5.35194e-12
5.44614e-12
5.55515e-12
5.65493e-12
5.7449e-12
6.04281e-12
6.61912e-12
7.27124e-12
6.50244e-12
3.73381e-12
2.77018e-13
1.30814e-15
0
0
0
0
0
1.52167e-08
4.62302e-07
1.01748e-06
0.000111651
0.00105405
0.00362343
0.00608669
0.00507291
0.00143556
7.26464e-05
0.00209388
0.00341586
0.00219458
0.000662953
9.06413e-05
4.13393e-06
2.47918e-09
1.14467e-08
1.35998e-09
0
1.05942e-24
6.24955e-16
3.51474e-13
3.16015e-12
5.15446e-12
5.36247e-12
5.34916e-12
5.5247e-12
5.78862e-12
6.05577e-12
6.31151e-12
6.5551e-12
6.78813e-12
7.00511e-12
7.24456e-12
7.43566e-12
7.68369e-12
7.60519e-12
7.79205e-12
7.00372e-12
8.33578e-12
6.14919e-12
1.09523e-11
3.6564e-12
2.07137e-11
3.35403e-13
6.04872e-11
1.87407e-11
2.37165e-10
2.2885e-10
8.97062e-10
)
;
    }
    walls
    {
        type            calculated;
        value           nonuniform List<scalar> 0();
    }
    frontAndBack
    {
        type            empty;
    }
    procBoundary7to3
    {
        type            processor;
        value           nonuniform List<scalar> 
16
(
1.19292e-09
1.24109e-09
7.46579e-10
5.63625e-10
4.59959e-10
3.53365e-10
2.55653e-10
1.84238e-10
1.12004e-10
1.12004e-10
7.80005e-11
5.39794e-11
3.76818e-11
2.53155e-11
2.00279e-11
9.01658e-12
)
;
    }
    procBoundary7to6
    {
        type            processor;
        value           nonuniform List<scalar> 
91
(
6.69698e-10
4.14694e-10
4.14694e-10
3.80022e-10
3.80022e-10
6.46786e-11
6.46786e-11
5.36893e-11
1.77551e-10
1.77551e-10
1.10961e-10
1.49753e-10
1.49753e-10
2.22461e-10
1.71873e-10
1.69355e-10
1.69355e-10
3.04261e-10
2.66081e-10
2.25051e-10
2.25051e-10
5.08068e-10
4.37772e-10
3.75739e-10
3.21329e-10
3.21329e-10
8.54793e-10
7.52854e-10
6.61013e-10
5.78707e-10
5.05243e-10
5.05243e-10
1.4658e-09
1.336e-09
1.21265e-09
1.09614e-09
9.86931e-10
8.85253e-10
7.91199e-10
7.91199e-10
2.3052e-09
2.21704e-09
2.12611e-09
2.03232e-09
1.93589e-09
1.83724e-09
1.7368e-09
1.63511e-09
1.53292e-09
1.43116e-09
1.33045e-09
1.23154e-09
1.23154e-09
6.8345e-18
0
0
3.78124e-06
9.70877e-07
0.000885527
0.0176721
0.0912677
0.232793
0.38119
0.446898
0.378861
0.208451
0.0453844
0.00669479
0.119127
0.281168
0.339613
0.241016
0.0919867
0.0146007
0.000562654
2.62728e-06
2.4885e-10
0
0
0
1.39727e-12
5.29374e-10
2.68148e-09
2.68561e-09
2.12252e-09
1.93564e-09
1.89959e-09
1.85222e-09
1.78962e-09
1.72941e-09
1.72941e-09
)
;
    }
}


// ************************************************************************* //
