/*--------------------------------*- C++ -*----------------------------------*\
| =========                 |                                                 |
| \\      /  F ield         | OpenFOAM: The Open Source CFD Toolbox           |
|  \\    /   O peration     | Version:  2506                                  |
|   \\  /    A nd           | Website:  www.openfoam.com                      |
|    \\/     M anipulation  |                                                 |
\*---------------------------------------------------------------------------*/
FoamFile
{
    version     2.0;
    format      ascii;
    arch        "LSB;label=32;scalar=64";
    class       volVectorField;
    location    "150";
    object      momentError;
}
// * * * * * * * * * * * * * * * * * * * * * * * * * * * * * * * * * * * * * //

dimensions      [0 1 -2 0 0 0 0];

internalField   nonuniform List<vector> 
1340
(
(-0.00697169 0.0127759 -6.94225e-16)
(-0.00118896 0.00230585 -1.18071e-16)
(-0.00616639 0.0124842 -7.14874e-16)
(-0.00294175 0.00876212 3.63196e-15)
(-0.00121481 0.00224583 -7.11835e-17)
(-0.00591036 0.0122249 1.14862e-15)
(-0.00180715 0.00399542 -8.35815e-16)
(-0.00294403 0.00860833 3.79574e-15)
(-0.0011631 0.00216949 3.41318e-16)
(-0.00587958 0.0119706 -1.78081e-15)
(-0.00216063 0.00443125 -1.91366e-15)
(-0.00240255 0.0063722 -1.57456e-15)
(-0.00180336 0.00385591 -1.13908e-15)
(-0.00282698 0.00843085 -1.33864e-15)
(-0.00122228 0.00211628 -3.37536e-16)
(-0.0057111 0.0116754 -1.00012e-15)
(-0.0027078 0.00429059 -6.06367e-16)
(-0.00252322 0.00513498 4.83745e-17)
(-0.00216145 0.00428786 -4.65026e-15)
(-0.00234318 0.00621989 -2.50852e-15)
(-0.00179374 0.00373316 1.2478e-15)
(-0.00269116 0.0082325 -1.50473e-15)
(-0.00130911 0.00207184 -8.8805e-16)
(-0.0054814 0.011364 2.50108e-15)
(-0.00376013 0.00384587 -3.25774e-15)
(-0.00342563 0.00391546 -4.22113e-15)
(-0.00310152 0.00431662 -2.65983e-15)
(-0.00272405 0.00415597 -9.86245e-18)
(-0.00251963 0.0050025 -1.53415e-16)
(-0.00215875 0.00416002 1.86144e-15)
(-0.00228333 0.00607059 8.00012e-16)
(-0.00180926 0.00362268 -2.12768e-16)
(-0.00258249 0.0080318 7.41403e-16)
(-0.00136685 0.00202293 5.56206e-17)
(-0.00529187 0.0110639 -6.06705e-16)
(-0.00456645 0.00309361 -8.1746e-16)
(-0.00431883 0.00338781 1.24195e-15)
(-0.00403736 0.00350536 3.40725e-16)
(-0.00376051 0.00373223 -3.93168e-16)
(-0.00343342 0.00379536 -1.52918e-15)
(-0.0031128 0.00419532 -2.69041e-15)
(-0.00273287 0.00403209 -5.36974e-16)
(-0.00251442 0.00487542 1.41119e-16)
(-0.00217705 0.00404309 1.93459e-15)
(-0.00225367 0.00592677 4.38526e-16)
(-0.00182839 0.00352032 -1.01263e-15)
(-0.00250138 0.00783389 1.26815e-15)
(-0.00139935 0.00196913 5.30016e-16)
(-0.00513913 0.0107741 8.4025e-16)
(-0.00659035 0.00212506 -1.06238e-15)
(-0.00602946 0.00234537 2.95932e-16)
(-0.00550204 0.00255998 1.23101e-16)
(-0.00501415 0.00278674 -1.10992e-16)
(-0.00454817 0.00299405 -4.54729e-16)
(-0.00430706 0.00328744 2.17883e-15)
(-0.00402945 0.00340018 2.68371e-16)
(-0.00374487 0.0036239 8.99844e-16)
(-0.00342889 0.00368143 -1.68779e-16)
(-0.00311312 0.00407806 1.1917e-15)
(-0.00274924 0.00391423 4.99198e-16)
(-0.00251763 0.00475129 -1.66089e-16)
(-0.00219648 0.00393254 -1.35374e-15)
(-0.002231 0.00578467 -3.582e-16)
(-0.00184598 0.00342395 5.20429e-16)
(-0.00242748 0.00763515 -7.68003e-16)
(-0.00142246 0.00191395 1.4145e-16)
(-0.00498796 0.0104863 2.51199e-16)
(-0.00985066 0.000994685 -1.02165e-15)
(-0.00911525 0.00121139 -2.0373e-16)
(-0.00841679 0.0014274 1.46921e-16)
(-0.00775455 0.00164154 1.45412e-15)
(-0.00712791 0.00185474 -1.31288e-16)
(-0.00654584 0.0020628 -8.47716e-16)
(-0.00598865 0.00227393 1.61045e-15)
(-0.00546751 0.00247941 5.36045e-16)
(-0.00498572 0.00269974 1.07231e-16)
(-0.00451443 0.00290112 3.06684e-16)
(-0.0042851 0.00319207 -4.8182e-16)
(-0.00401312 0.00329968 -6.67835e-17)
(-0.00373738 0.00351966 -1.91253e-15)
(-0.00342992 0.00357281 -2.90192e-16)
(-0.00311851 0.00396491 2.17561e-16)
(-0.00276476 0.00380195 -4.55641e-16)
(-0.00252132 0.00462859 6.38809e-17)
(-0.00221454 0.00382644 -4.43619e-16)
(-0.00220951 0.00564301 -1.83289e-16)
(-0.00186209 0.00333334 2.60332e-17)
(-0.00235429 0.00743374 -9.91233e-16)
(-0.00144049 0.00186003 -1.63137e-16)
(-0.00482932 0.010203 -1.41111e-15)
(-0.015846 -0.000547603 1.22194e-16)
(-0.0148727 -0.000299555 -2.27474e-16)
(-0.0139243 -5.95601e-05 5.96897e-17)
(-0.0130142 0.000171012 -1.70825e-16)
(-0.0121433 0.000391645 -6.71945e-16)
(-0.0113088 0.000605697 2.31774e-16)
(-0.0105066 0.000813002 1.60717e-16)
(-0.00975252 0.00101595 -1.13267e-15)
(-0.00902185 0.00121588 -2.73191e-16)
(-0.00833323 0.00141495 -3.32513e-16)
(-0.00768232 0.00161338 -4.60248e-16)
(-0.00706777 0.00181213 -4.32325e-17)
(-0.00648225 0.00200843 1.1854e-15)
(-0.00593748 0.00220927 6.74718e-16)
(-0.00542588 0.00240659 -2.08124e-16)
(-0.00495233 0.00261992 2.78643e-16)
(-0.00449452 0.00281437 2.9149e-17)
(-0.00427576 0.00310173 -8.0659e-17)
(-0.00400844 0.00320392 -3.35173e-17)
(-0.00373574 0.00342013 1.08486e-15)
(-0.00343545 0.00347019 1.18398e-15)
(-0.00312744 0.00385622 4.64363e-17)
(-0.00278319 0.00369519 4.84137e-16)
(-0.00252884 0.00450846 -7.75663e-17)
(-0.0022347 0.00372584 9.55941e-16)
(-0.00219221 0.00550154 6.1952e-16)
(-0.00188038 0.00324862 1.1656e-16)
(-0.00228627 0.0072313 2.106e-16)
(-0.00145354 0.00180794 1.08359e-15)
(-0.00466789 0.00991911 4.45432e-16)
(-0.029494 -0.00405567 -2.68882e-18)
(-0.0282476 -0.0036963 3.5286e-18)
(-0.0270123 -0.00334344 -4.72886e-18)
(-0.0257858 -0.00299942 4.16432e-17)
(-0.0245628 -0.00266564 4.70132e-17)
(-0.0233494 -0.00234296 1.52639e-16)
(-0.0221647 -0.0020335 3.58427e-17)
(-0.0210115 -0.00173656 5.93478e-17)
(-0.0198815 -0.00145152 7.22926e-18)
(-0.0187683 -0.00117705 -2.35075e-16)
(-0.0176862 -0.000912562 -9.02818e-17)
(-0.0166444 -0.000659664 -2.64147e-16)
(-0.0156549 -0.000417687 -2.18561e-16)
(-0.0146794 -0.000182786 -3.7349e-16)
(-0.0137381 4.26529e-05 1.59421e-16)
(-0.0128357 0.000257154 -3.75542e-16)
(-0.0119771 0.00046292 -4.54918e-17)
(-0.011155 0.000661334 5.05835e-16)
(-0.0103686 0.000852317 -1.551e-16)
(-0.00961127 0.0010389 6.48234e-16)
(-0.00889781 0.00122321 -9.39174e-17)
(-0.00822335 0.00140505 -2.55658e-17)
(-0.00758915 0.00158726 1.37978e-16)
(-0.00699121 0.00177175 8.48539e-17)
(-0.00642638 0.00195667 -4.72383e-16)
(-0.00589415 0.00214889 -7.93042e-16)
(-0.00539336 0.00233839 1.78295e-16)
(-0.00492961 0.00254489 -5.22901e-16)
(-0.00448215 0.00273213 -1.50228e-16)
(-0.00427481 0.00301578 4.03139e-17)
(-0.00401143 0.00311335 3.92667e-17)
(-0.00374068 0.00332544 8.97033e-16)
(-0.00344669 0.00337329 -3.70157e-16)
(-0.00314203 0.00375241 5.16108e-16)
(-0.00280684 0.00359472 -6.77888e-16)
(-0.00254253 0.00439066 2.24437e-16)
(-0.00226004 0.0036302 -6.81459e-16)
(-0.00218276 0.00536102 1.03233e-15)
(-0.00190311 0.00316963 9.42021e-16)
(-0.00222767 0.00703002 -1.7377e-17)
(-0.00146454 0.00175893 -1.40468e-16)
(-0.0045136 0.00964136 7.88621e-17)
(0.102277 -0.0173746 -1.56537e-17)
(0.101084 -0.0204023 1.32551e-17)
(0.0543364 -0.025123 -3.34299e-17)
(-0.00924211 -0.0348649 -1.08963e-17)
(-0.105077 -0.0480807 3.32101e-17)
(-0.222314 -0.0646533 -3.13987e-18)
(-0.344541 -0.0837775 -5.05159e-17)
(-0.452781 -0.103465 5.8239e-18)
(-0.527397 -0.120842 2.8683e-17)
(-0.550638 -0.132777 -3.3193e-17)
(-0.509836 -0.136396 -4.14051e-17)
(-0.40171 -0.129754 -1.35881e-17)
(-0.236597 -0.112532 -3.21796e-17)
(-0.0410132 -0.0867682 4.93307e-17)
(0.14411 -0.0570278 8.08815e-17)
(0.271345 -0.0296585 -6.49032e-17)
(0.301546 -0.0109839 -1.60145e-16)
(0.223778 -0.00494946 -2.10275e-17)
(0.0727379 -0.0104745 3.50697e-17)
(-0.0773647 -0.020559 -1.7067e-17)
(-0.15785 -0.0268654 2.0419e-17)
(-0.149315 -0.0255117 -4.53569e-17)
(-0.0717445 -0.0150952 1.03617e-16)
(-0.028056 -0.0081302 -8.22238e-17)
(-0.0282419 -0.00744667 -1.18728e-16)
(-0.0419773 -0.00824304 -1.03165e-17)
(-0.0484921 -0.00883745 -1.20946e-18)
(-0.0460068 -0.00872573 -6.27643e-17)
(-0.0416845 -0.00824443 -6.16367e-18)
(-0.0395734 -0.00780714 -2.37997e-17)
(-0.0389572 -0.00744105 1.27631e-17)
(-0.038148 -0.00697158 1.01971e-16)
(-0.0367646 -0.0063753 1.04418e-17)
(-0.0352264 -0.00577137 4.20732e-17)
(-0.0338036 -0.00524711 -1.81007e-17)
(-0.0324514 -0.00479023 5.04637e-18)
(-0.031087 -0.00436591 1.34947e-17)
(-0.0297263 -0.00395639 8.97774e-18)
(-0.0283719 -0.00355332 3.84043e-18)
(-0.027061 -0.00317022 4.25409e-18)
(-0.0257748 -0.00280519 7.72105e-17)
(-0.0244987 -0.00245768 4.37045e-17)
(-0.0232392 -0.00212632 8.16457e-17)
(-0.0220131 -0.00181378 3.13459e-17)
(-0.0208286 -0.00151868 7.66546e-17)
(-0.0196757 -0.00124095 -1.1017e-16)
(-0.0185475 -0.000977764 -3.73774e-16)
(-0.0174528 -0.000729124 2.87633e-16)
(-0.0164048 -0.000494144 -3.38506e-17)
(-0.0153964 -0.00027205 1.16654e-16)
(-0.0144298 -5.86124e-05 1.06862e-16)
(-0.0134979 0.000145657 6.63517e-17)
(-0.0126079 0.000340775 1.27939e-16)
(-0.0117648 0.000528144 3.43906e-17)
(-0.0109623 0.000709593 -1.70734e-16)
(-0.0101963 0.000885048 -9.7944e-17)
(-0.00946343 0.00105707 2.39085e-16)
(-0.00876888 0.00122546 1.96451e-17)
(-0.00811355 0.00139196 2.16197e-16)
(-0.00749861 0.00155852 -5.85068e-17)
(-0.00691917 0.00172988 -2.25191e-16)
(-0.00637069 0.00190471 -6.45658e-16)
(-0.00585272 0.00208924 -5.8316e-16)
(-0.00536462 0.00227232 4.50489e-16)
(-0.00491273 0.00247215 -3.28087e-16)
(-0.00447638 0.00265261 1.57075e-16)
(-0.00428051 0.00293316 -2.89801e-16)
(-0.00402088 0.00302699 -2.1077e-16)
(-0.00375167 0.00323519 -5.64692e-16)
(-0.00346345 0.00328164 -5.12199e-16)
(-0.00316235 0.00365267 -9.17211e-16)
(-0.00283644 0.00349969 4.10207e-16)
(-0.00256348 0.00427636 -2.70129e-16)
(-0.00229132 0.00354023 7.4385e-16)
(-0.00218162 0.00522183 2.59848e-16)
(-0.00193036 0.00309647 -5.44323e-17)
(-0.00217838 0.00683152 1.59175e-16)
(-0.00147631 0.00171391 -2.94034e-16)
(-0.004366 0.00936777 -1.21032e-16)
(0.118658 -0.0310334 1.32607e-17)
(0.123472 -0.0313823 -1.48068e-17)
(0.11276 -0.031777 -3.24655e-17)
(0.119924 -0.0368146 2.58063e-19)
(0.112746 -0.0436793 1.64679e-17)
(0.0839935 -0.0517175 -6.5617e-18)
(0.0338966 -0.0610889 1.27383e-18)
(-0.0333206 -0.072063 -5.85714e-18)
(-0.110899 -0.0842602 -5.20405e-19)
(-0.189077 -0.0965285 -1.5145e-17)
(-0.255215 -0.107198 -3.70048e-17)
(-0.29537 -0.114289 3.0289e-17)
(-0.297426 -0.115778 -4.67512e-19)
(-0.255246 -0.110097 -1.74012e-17)
(-0.172855 -0.0968234 1.08116e-17)
(-0.0669423 -0.0773536 -5.10235e-17)
(0.0343098 -0.055163 2.52406e-17)
(0.097864 -0.0351999 5.30484e-17)
(0.0988308 -0.0220974 -3.81661e-17)
(0.0346056 -0.0178025 -3.96648e-17)
(-0.0672997 -0.0207349 -4.40372e-17)
(-0.14743 -0.0250407 1.32752e-17)
(-0.151085 -0.0228946 2.41709e-17)
(-0.0954511 -0.0152781 -4.36454e-17)
(-0.0412461 -0.00782468 1.33495e-17)
(-0.0258989 -0.00539414 -1.47499e-17)
(-0.0371378 -0.00664778 1.95825e-18)
(-0.0476987 -0.00826854 -3.13605e-17)
(-0.0478616 -0.008604 1.14205e-17)
(-0.043151 -0.00788236 -1.50522e-17)
(-0.0397505 -0.00689678 3.97407e-17)
(-0.0385169 -0.00612535 1.83136e-17)
(-0.0376776 -0.00554671 -1.4038e-17)
(-0.0362577 -0.00501793 -1.56967e-17)
(-0.034525 -0.00451733 -1.89192e-17)
(-0.0328943 -0.00408187 1.12414e-17)
(-0.0314191 -0.00370415 7.48759e-18)
(-0.02997 -0.00334801 -1.43864e-18)
(-0.0285241 -0.00299244 -2.63883e-18)
(-0.0271025 -0.00264654 2.64002e-18)
(-0.0257292 -0.00231967 -2.40514e-17)
(-0.0243898 -0.00201339 -2.07853e-17)
(-0.0230792 -0.00172415 -2.1826e-18)
(-0.0218058 -0.00145094 -2.17222e-18)
(-0.0205842 -0.0011934 -2.92029e-17)
(-0.0194057 -0.00095142 -1.84455e-17)
(-0.0182634 -0.000723487 1.17471e-16)
(-0.01716 -0.000508801 2.10458e-16)
(-0.0161091 -0.000306712 1.28591e-16)
(-0.0151089 -0.000116019 5.53451e-17)
(-0.0141519 6.65155e-05 -9.55387e-18)
(-0.0132328 0.000242841 4.89402e-17)
(-0.0123596 0.000413648 -1.04555e-17)
(-0.0115347 0.000579711 1.08566e-17)
(-0.0107549 0.000742905 9.8376e-17)
(-0.0100116 0.000902952 2.93186e-16)
(-0.00930321 0.00106067 -5.13216e-16)
(-0.00863136 0.00121531 7.35152e-17)
(-0.00799854 0.00136862 -1.82183e-16)
(-0.00740508 0.00152256 5.39303e-16)
(-0.00684542 0.00168331 1.79714e-18)
(-0.0063147 0.0018497 4.23408e-16)
(-0.00581232 0.00202766 7.22917e-16)
(-0.00533855 0.00220428 -3.85481e-16)
(-0.00489991 0.00239851 3.99645e-16)
(-0.00447453 0.00257393 -2.37557e-16)
(-0.00429081 0.00285233 -3.29934e-16)
(-0.00403401 0.00294315 -1.79938e-16)
(-0.00376708 0.00314726 1.12644e-16)
(-0.00348526 0.00319349 8.80115e-16)
(-0.0031872 0.00355561 9.40514e-16)
(-0.00286947 0.00340848 -4.49883e-17)
(-0.00258914 0.00416318 -3.11023e-16)
(-0.00232617 0.00345365 -5.81604e-17)
(-0.00218592 0.00508273 -1.39556e-15)
(-0.00195932 0.00302734 1.63669e-17)
(-0.00213592 0.00663422 -5.70665e-16)
(-0.0014898 0.00167363 -1.26594e-16)
(-0.00422539 0.00910257 1.72504e-16)
(0.134935 -0.0359271 -7.64293e-18)
(0.126263 -0.0339994 -6.89607e-18)
(0.101876 -0.0297883 6.37768e-18)
(0.109437 -0.0292677 -1.43613e-19)
(0.121825 -0.0309175 -1.42005e-17)
(0.133743 -0.0345549 8.39924e-18)
(0.136961 -0.0393655 5.70297e-18)
(0.126038 -0.0447486 -1.58693e-17)
(0.0988934 -0.0507936 7.64914e-18)
(0.055216 -0.0578608 -1.48917e-17)
(-0.00275177 -0.0659282 1.64182e-17)
(-0.0688562 -0.0743603 -1.00109e-17)
(-0.133066 -0.0819898 -3.86914e-17)
(-0.183155 -0.087275 1.84994e-17)
(-0.207759 -0.0885555 3.0992e-17)
(-0.200164 -0.0845307 -7.14888e-18)
(-0.161967 -0.0748822 3.65336e-17)
(-0.105182 -0.0608267 -5.91843e-17)
(-0.0510589 -0.0451915 -3.28608e-17)
(-0.0239642 -0.0317561 -4.08068e-18)
(-0.0398997 -0.0237497 2.50674e-19)
(-0.0928315 -0.0216789 2.28158e-17)
(-0.146275 -0.0221759 -7.32224e-17)
(-0.159754 -0.0211931 1.25086e-16)
(-0.114261 -0.0148601 1.95125e-17)
(-0.0517042 -0.00649234 1.172e-17)
(-0.0246538 -0.00298415 1.855e-17)
(-0.0318322 -0.00418969 3.75915e-17)
(-0.0450849 -0.00618883 8.70293e-18)
(-0.0483406 -0.00671891 1.75873e-17)
(-0.0438488 -0.0057886 -1.22405e-17)
(-0.0391184 -0.00447564 -3.6316e-17)
(-0.0370545 -0.00362068 1.77631e-18)
(-0.036245 -0.00329101 7.70502e-18)
(-0.0350488 -0.00314016 2.56255e-17)
(-0.0332988 -0.0029319 -1.32103e-17)
(-0.0315007 -0.0026547 2.30452e-18)
(-0.0299001 -0.00237017 -6.38809e-18)
(-0.0284268 -0.00210494 -3.55119e-19)
(-0.0269802 -0.00185347 2.53126e-18)
(-0.0255491 -0.00161316 -6.42659e-18)
(-0.024153 -0.00138466 3.04674e-18)
(-0.0228032 -0.00117052 8.40821e-18)
(-0.0215053 -0.000968921 -1.55216e-17)
(-0.0202656 -0.000779533 -4.29427e-18)
(-0.019077 -0.000599547 6.42209e-17)
(-0.0179313 -0.000428009 2.56338e-17)
(-0.01683 -0.000263689 -6.53347e-17)
(-0.0157844 -0.000107606 3.91359e-17)
(-0.0147956 4.14712e-05 1.65704e-17)
(-0.0138549 0.000185749 7.13661e-17)
(-0.0129553 0.00032842 -1.65426e-16)
(-0.0121026 0.000470703 8.38259e-18)
(-0.0113005 0.000613392 1.52083e-17)
(-0.0105455 0.000757015 8.38028e-17)
(-0.00982897 0.000901472 -8.99974e-17)
(-0.00914753 0.00104607 1.75876e-16)
(-0.00850136 0.00118968 7.54084e-17)
(-0.00789251 0.00133338 -1.06286e-16)
(-0.00732093 0.00147911 1.4226e-16)
(-0.0067813 0.00163248 2.81428e-17)
(-0.00626921 0.00179224 5.75285e-16)
(-0.00578392 0.00196421 -1.61962e-18)
(-0.0053252 0.00213587 -3.34937e-16)
(-0.00489794 0.00232607 5.16743e-16)
(-0.00448294 0.0024979 3.6073e-18)
(-0.0043116 0.00277515 -2.74524e-16)
(-0.00405858 0.00286388 1.82008e-16)
(-0.0037935 0.00306376 -5.46925e-17)
(-0.00351605 0.00311053 3.98115e-16)
(-0.00322098 0.00346407 2.11061e-17)
(-0.00291049 0.00332426 -3.24826e-17)
(-0.00262154 0.00405447 2.8952e-16)
(-0.00236572 0.00337241 -2.43725e-18)
(-0.00219523 0.00494601 -6.42156e-17)
(-0.00199218 0.00296464 -1.09885e-16)
(-0.00209764 0.00644027 -3.46506e-16)
(-0.00150585 0.00163826 2.44999e-16)
(-0.00408516 0.00884178 -3.23893e-16)
(0.13879 -0.0307497 7.42742e-18)
(0.121952 -0.0274667 3.71315e-18)
(0.0887341 -0.0223053 -1.07882e-17)
(0.08767 -0.0201674 -1.10147e-17)
(0.0894441 -0.0191252 1.47792e-17)
(0.0958652 -0.0195406 -9.94008e-18)
(0.108706 -0.0209661 3.81298e-18)
(0.125145 -0.0228936 2.09132e-17)
(0.138224 -0.0251471 -2.81364e-18)
(0.141069 -0.0277993 1.9078e-18)
(0.128395 -0.0312393 -7.09804e-18)
(0.0971515 -0.0359246 1.15655e-18)
(0.0480514 -0.0419403 2.81923e-17)
(-0.013479 -0.0487656 8.42219e-18)
(-0.0779441 -0.055364 -5.63848e-17)
(-0.133839 -0.0603476 -2.7921e-17)
(-0.170697 -0.062294 -3.45331e-17)
(-0.182486 -0.0601697 1.61576e-18)
(-0.170518 -0.053856 2.16119e-17)
(-0.144598 -0.0445219 -1.51743e-17)
(-0.120841 -0.0345129 1.74147e-17)
(-0.115711 -0.0265413 -4.06785e-17)
(-0.134937 -0.0221856 8.17499e-17)
(-0.163134 -0.0208132 -5.96241e-17)
(-0.166489 -0.018613 -7.23649e-17)
(-0.125027 -0.0126691 -2.174e-17)
(-0.0642182 -0.00467218 -7.35417e-18)
(-0.0256663 0.000243137 -4.85061e-18)
(-0.0242374 0.000102472 2.50315e-18)
(-0.0389946 -0.00174165 -1.089e-17)
(-0.0469534 -0.00295531 -3.04739e-18)
(-0.0442798 -0.00269598 2.54476e-17)
(-0.0383882 -0.00181058 1.45832e-17)
(-0.0348054 -0.00119204 4.04578e-18)
(-0.0336189 -0.00109677 -4.33237e-17)
(-0.0328421 -0.001255 1.58071e-18)
(-0.0314838 -0.00134411 -5.48634e-20)
(-0.0297526 -0.00126525 -5.75866e-20)
(-0.028065 -0.00109492 2.51189e-18)
(-0.0265458 -0.000922209 -8.18769e-20)
(-0.0251306 -0.000783337 -6.41473e-18)
(-0.0237545 -0.000668504 -1.80756e-18)
(-0.0224058 -0.000561948 -2.4237e-17)
(-0.0211026 -0.000453567 -3.21774e-18)
(-0.0198622 -0.000344913 7.41356e-20)
(-0.0186828 -0.000236631 -2.71361e-17)
(-0.0175523 -0.00013044 -1.60666e-18)
(-0.0164676 -2.46145e-05 -1.92424e-17)
(-0.0154386 7.93007e-05 -1.45696e-16)
(-0.0144684 0.000182309 9.60826e-17)
(-0.0135489 0.000285781 3.32059e-17)
(-0.0126726 0.000393198 -2.10943e-18)
(-0.0118421 0.000505414 1.42982e-17)
(-0.0110629 0.000623294 2.5983e-17)
(-0.0103328 0.000746769 -3.42943e-16)
(-0.00964274 0.000875308 -5.38211e-19)
(-0.00898698 0.00100762 5.30421e-17)
(-0.00836443 0.00114219 -3.20467e-17)
(-0.00777865 0.00127958 1.50379e-16)
(-0.00722858 0.0014203 -7.3375e-16)
(-0.00671045 0.00156871 2.16029e-16)
(-0.00621893 0.00172347 1.29271e-16)
(-0.00575065 0.00189056 -8.388e-16)
(-0.00530656 0.00205866 3.59056e-16)
(-0.00489232 0.00224652 -3.20039e-16)
(-0.00448788 0.00241566 8.20589e-17)
(-0.00433064 0.00269189 -1.99788e-16)
(-0.00408217 0.00277944 2.11227e-16)
(-0.00381958 0.0029759 1.51401e-16)
(-0.00354657 0.00302445 -2.23014e-16)
(-0.00325383 0.00336857 -3.49215e-16)
(-0.00294951 0.00323864 -2.10053e-17)
(-0.00265472 0.00394248 -4.83342e-16)
(-0.00240533 0.00329174 -9.01319e-17)
(-0.00220621 0.00480516 1.03997e-15)
(-0.00202428 0.00290352 -2.69488e-16)
(-0.0020617 0.00624412 7.92312e-16)
(-0.00152281 0.00160893 -6.60909e-16)
(-0.00394694 0.00858424 2.39244e-16)
(0.125142 -0.0222913 -6.1832e-18)
(0.106231 -0.0193163 1.08866e-18)
(0.0737437 -0.0149015 -1.66355e-18)
(0.070886 -0.0127998 -4.80165e-18)
(0.0690081 -0.0115327 -1.53186e-17)
(0.0680994 -0.0111223 6.995e-18)
(0.0691535 -0.0110521 2.59069e-18)
(0.0759002 -0.010887 -1.58922e-17)
(0.0917603 -0.010498 3.35992e-18)
(0.114778 -0.0101811 6.72209e-19)
(0.137499 -0.0102952 6.95969e-18)
(0.150666 -0.0109947 2.15098e-18)
(0.146425 -0.0125963 -1.98655e-17)
(0.120555 -0.0155921 -2.04818e-17)
(0.0738635 -0.0201733 -5.3343e-19)
(0.0122266 -0.0259095 1.18172e-17)
(-0.0547027 -0.0318572 5.7295e-18)
(-0.115848 -0.0368283 2.36224e-17)
(-0.16158 -0.0396847 -3.76197e-17)
(-0.186601 -0.0396695 3.31221e-18)
(-0.19208 -0.0367826 9.41975e-18)
(-0.185871 -0.0320065 2.95773e-17)
(-0.179337 -0.0269856 -3.01904e-17)
(-0.180553 -0.023136 -8.79935e-17)
(-0.186415 -0.0206211 4.2226e-17)
(-0.178259 -0.0177078 2.1045e-17)
(-0.141396 -0.0128261 5.29853e-18)
(-0.0812493 -0.00583987 -3.77828e-18)
(-0.0259614 0.00166834 5.30718e-18)
(-0.0134487 0.00398857 1.15839e-17)
(-0.0265217 0.00238691 -2.31444e-19)
(-0.0395915 0.00108117 -1.65097e-17)
(-0.042395 0.00044213 -2.2853e-17)
(-0.0381292 0.000261871 -1.46406e-17)
(-0.03334 0.000161201 3.24363e-17)
(-0.0308036 5.01887e-05 1.00049e-17)
(-0.0297458 -2.7849e-05 -4.35971e-18)
(-0.0287928 -4.52973e-05 -1.06975e-18)
(-0.0274639 -2.44793e-05 1.43973e-18)
(-0.0259372 1.74227e-06 -2.33359e-18)
(-0.0244547 1.3252e-05 -3.84978e-18)
(-0.0230891 1.68031e-05 -1.59548e-17)
(-0.0218041 2.30238e-05 -7.68594e-19)
(-0.0205666 4.12703e-05 1.16881e-17)
(-0.0193704 6.93123e-05 -1.32194e-17)
(-0.0182245 0.000105465 -1.53959e-17)
(-0.0171295 0.000146946 8.24225e-17)
(-0.0160834 0.000194756 -2.11133e-18)
(-0.0150912 0.000247495 5.41068e-18)
(-0.0141543 0.000305837 -8.94409e-17)
(-0.0132666 0.000370246 -1.03224e-17)
(-0.0124219 0.000443626 -2.71795e-17)
(-0.0116229 0.000527091 8.58766e-17)
(-0.0108728 0.000621171 3.29615e-18)
(-0.0101689 0.000725029 -2.29003e-16)
(-0.00950521 0.000838198 1.12072e-16)
(-0.00887573 0.000959657 -1.50335e-17)
(-0.00827863 0.00108752 -1.51633e-16)
(-0.00771483 0.00122143 1.51411e-16)
(-0.00718552 0.0013602 1.99754e-16)
(-0.00668791 0.00150722 2.34685e-16)
(-0.00621436 0.00166031 -6.81303e-17)
(-0.00576199 0.00182678 2.08669e-16)
(-0.00532966 0.00199472 -3.19481e-16)
(-0.00492457 0.00218262 3.15859e-17)
(-0.0045288 0.00235175 -1.32773e-16)
(-0.00438479 0.00262926 4.41469e-16)
(-0.00413738 0.00271665 1.33547e-17)
(-0.00387367 0.00291073 2.31699e-18)
(-0.0036027 0.00296348 -3.71058e-16)
(-0.00330613 0.0032994 1.27818e-16)
(-0.00300948 0.00317824 9.19013e-17)
(-0.00269887 0.00385406 5.172e-16)
(-0.0024625 0.00323428 1.17937e-16)
(-0.00221858 0.00468501 -1.07758e-15)
(-0.00207336 0.00286063 -2.88299e-16)
(-0.00201687 0.00606736 -1.3662e-16)
(-0.00155839 0.00158589 2.09256e-16)
(-0.00378964 0.00834515 3.37808e-16)
(0.093518 -0.0083646 -3.51561e-18)
(0.0797376 -0.00663735 -2.70433e-18)
(0.0523594 -0.00494832 7.77848e-18)
(0.0507096 -0.00428541 2.20083e-18)
(0.0489608 -0.00362247 -4.26309e-18)
(0.0474516 -0.00322346 -1.37096e-17)
(0.0461563 -0.00301633 -6.13964e-18)
(0.0449123 -0.00279917 1.10691e-17)
(0.0452028 -0.00238269 -6.87131e-18)
(0.050807 -0.00164667 -9.25446e-18)
(0.06483 -0.000594092 2.39822e-18)
(0.0869702 0.000523883 -1.40289e-18)
(0.111473 0.00133976 1.09822e-17)
(0.129207 0.00159252 -2.877e-18)
(0.131692 0.000982017 -1.46942e-17)
(0.114186 -0.000890956 8.72427e-18)
(0.0768698 -0.00423716 4.79151e-17)
(0.0245492 -0.00879865 -1.36961e-17)
(-0.034789 -0.0138819 2.5031e-18)
(-0.0920357 -0.0185888 1.55099e-17)
(-0.139236 -0.0220881 4.0483e-18)
(-0.171711 -0.0238695 -9.81049e-19)
(-0.18898 -0.0239096 4.92124e-18)
(-0.194392 -0.0226833 7.37261e-17)
(-0.192377 -0.0208387 2.50363e-17)
(-0.184341 -0.0186566 -5.204e-18)
(-0.166664 -0.0160689 1.13535e-17)
(-0.13193 -0.012016 7.5862e-19)
(-0.0827097 -0.00612175 1.77688e-17)
(-0.0382159 -0.000638856 1.7458e-18)
(-0.011223 0.00355026 -2.1221e-17)
(-0.00994428 0.00420417 -1.861e-17)
(-0.02007 0.00256099 1.20937e-17)
(-0.0275693 0.00108902 5.09401e-18)
(-0.0287282 0.000303607 -1.98216e-18)
(-0.026015 0.000127496 -2.12475e-18)
(-0.0229256 0.000262096 5.08862e-18)
(-0.0209911 0.000427966 3.84098e-18)
(-0.0199761 0.000472825 -2.69859e-18)
(-0.0191937 0.000409799 2.86659e-18)
(-0.0182725 0.000327698 -5.84251e-19)
(-0.0172142 0.000282169 -2.26104e-18)
(-0.0161514 0.000266064 -8.19528e-18)
(-0.0151694 0.000256053 3.59894e-18)
(-0.0142729 0.000241657 -1.24241e-17)
(-0.0134318 0.0002299 2.97316e-17)
(-0.012621 0.00022721 5.1889e-17)
(-0.011841 0.00023582 -2.07425e-17)
(-0.011103 0.000252297 2.29556e-17)
(-0.0104128 0.000274636 2.56653e-17)
(-0.00976695 0.000303321 3.84324e-17)
(-0.0091558 0.000341073 4.77972e-17)
(-0.00857758 0.000388496 -3.13029e-18)
(-0.00803667 0.000445774 2.51063e-17)
(-0.00753376 0.000512419 9.54987e-17)
(-0.00706297 0.00058838 -2.99794e-17)
(-0.00661845 0.000673601 -1.55777e-17)
(-0.00619823 0.000767128 1.65046e-16)
(-0.00580362 0.000868522 1.65572e-18)
(-0.00543532 0.000976215 1.32529e-16)
(-0.00509105 0.00109209 -3.6107e-16)
(-0.00476503 0.00121462 -1.14674e-16)
(-0.00445359 0.00134971 -2.54984e-17)
(-0.0041555 0.0014886 -2.19892e-16)
(-0.00387546 0.00164557 1.01369e-16)
(-0.00359985 0.00179127 6.58142e-17)
(-0.00355554 0.00204656 -3.82221e-18)
(-0.0033796 0.00212585 -1.66178e-16)
(-0.00318648 0.00229619 -9.09901e-17)
(-0.00299338 0.00236403 9.09066e-17)
(-0.00277493 0.002658 -5.50925e-17)
(-0.00257016 0.00260041 -4.23186e-17)
(-0.00232615 0.00318745 5.41305e-16)
(-0.0021797 0.00273682 7.86155e-17)
(-0.00196153 0.00401023 3.68407e-16)
(-0.00191746 0.00253475 4.33795e-16)
(-0.00182288 0.00543809 6.22599e-17)
(-0.00151778 0.00149738 2.95057e-16)
(-0.00357939 0.00798199 7.7489e-17)
(0.072437 0.00691573 -1.35173e-19)
(0.064702 0.00653641 -9.13679e-19)
(0.0450552 0.00505508 -1.02582e-18)
(0.0446895 0.00506188 -1.26307e-18)
(0.0439472 0.00553822 5.96184e-18)
(0.0431707 0.00589927 1.21894e-17)
(0.0424235 0.00587908 8.46856e-18)
(0.0413785 0.00556118 -3.72258e-18)
(0.0394912 0.00521923 4.0953e-18)
(0.0370092 0.00502106 1.28957e-17)
(0.0355544 0.00498422 -4.7479e-18)
(0.0383651 0.00518142 1.17798e-18)
(0.0493025 0.00575749 4.89025e-18)
(0.0697867 0.00678208 4.56244e-18)
(0.0963293 0.00801377 5.11342e-18)
(0.120335 0.00893521 7.01982e-18)
(0.131912 0.00904213 -1.41909e-17)
(0.124335 0.00791492 9.55427e-18)
(0.0959398 0.00528068 1.89914e-17)
(0.049939 0.00121853 -1.23535e-17)
(-0.0069101 -0.00376753 4.9707e-18)
(-0.0661492 -0.00891882 2.0727e-17)
(-0.119694 -0.0134847 2.54868e-18)
(-0.161724 -0.0169339 -4.60747e-17)
(-0.189634 -0.0190511 -5.04871e-17)
(-0.203861 -0.0198893 2.64091e-17)
(-0.205423 -0.0195038 3.95433e-18)
(-0.193863 -0.0178011 7.62458e-18)
(-0.166024 -0.0145405 -2.65263e-17)
(-0.122031 -0.00967658 -4.05865e-17)
(-0.0716625 -0.00396111 -7.55716e-18)
(-0.0300942 0.000781007 3.6325e-17)
(-0.0089484 0.00331355 -1.45069e-17)
(-0.00800964 0.00336915 -8.47918e-18)
(-0.0164242 0.00216035 -1.16898e-18)
(-0.0232535 0.000983234 3.77503e-18)
(-0.0246752 0.000318824 -4.61381e-18)
(-0.0224771 0.000163687 5.10667e-20)
(-0.0196985 0.000308167 1.70401e-18)
(-0.0179203 0.000479303 -2.83942e-20)
(-0.0170703 0.000515043 -9.42319e-19)
(-0.0164815 0.000434695 3.393e-18)
(-0.0157283 0.000333331 2.95943e-19)
(-0.0148086 0.000269573 -1.06761e-17)
(-0.0138922 0.000238666 -2.16192e-19)
(-0.0130775 0.000220097 -7.13368e-19)
(-0.0123463 0.000203538 -2.95372e-17)
(-0.0116483 0.000193281 -1.8598e-17)
(-0.0109666 0.000193171 -8.69885e-18)
(-0.0103174 0.000204217 3.36801e-17)
(-0.00971002 0.000224446 7.50179e-17)
(-0.00913831 0.000254601 -7.56625e-19)
(-0.00859711 0.000295424 -3.91092e-17)
(-0.00808709 0.000347895 2.51903e-17)
(-0.00760987 0.000411366 5.12138e-17)
(-0.0071632 0.000486141 -6.78558e-17)
(-0.00674067 0.000571931 1.11668e-16)
(-0.00633943 0.000668226 6.39698e-17)
(-0.00595913 0.000774114 1.4909e-17)
(-0.00560259 0.000887742 1.97387e-16)
(-0.00526788 0.00100966 7.84599e-17)
(-0.00494996 0.00113787 -1.7805e-16)
(-0.00464345 0.00127732 1.75346e-16)
(-0.00434723 0.00141954 1.17716e-16)
(-0.00406588 0.00157829 -1.79178e-16)
(-0.00378657 0.00172457 2.14325e-17)
(-0.00374908 0.00198201 -6.3195e-17)
(-0.0035646 0.002063 -1.45921e-16)
(-0.00335959 0.00223143 -6.48976e-17)
(-0.00315711 0.00230723 3.12826e-17)
(-0.00292774 0.00258886 9.15621e-17)
(-0.00271527 0.00254825 -1.00852e-16)
(-0.00245292 0.00310181 -4.14322e-16)
(-0.0022939 0.00269223 -1.08281e-16)
(-0.00204272 0.00389372 1.96259e-16)
(-0.0019859 0.00250456 -2.20503e-16)
(-0.00184516 0.00526485 -3.38647e-16)
(-0.00153085 0.00149796 -2.17768e-16)
(-0.00351764 0.00775641 -3.13451e-16)
(0.0756185 0.0196163 1.01297e-18)
(0.0752218 0.0180197 4.34652e-18)
(0.0570127 0.0139962 -4.94408e-19)
(0.0567369 0.0129641 -1.80015e-18)
(0.056293 0.0126153 -3.52118e-18)
(0.0556783 0.012554 -4.60866e-18)
(0.0548887 0.0123072 -4.36077e-18)
(0.0539599 0.0116966 -3.32186e-18)
(0.052718 0.0108936 -1.73207e-18)
(0.0507277 0.0101224 7.18795e-19)
(0.0475843 0.0093988 7.90528e-18)
(0.0435324 0.0086297 5.15223e-19)
(0.0400334 0.00780929 -2.95189e-19)
(0.0400012 0.00719286 -6.81445e-18)
(0.0470753 0.00717529 8.09994e-19)
(0.0634679 0.00795005 1.34034e-18)
(0.0871948 0.00922845 -1.14488e-17)
(0.110972 0.0103991 -4.61596e-18)
(0.124877 0.0108627 -8.27342e-18)
(0.121307 0.0101921 4.56429e-18)
(0.0977311 0.0080838 5.75062e-18)
(0.0565762 0.00449281 -8.90617e-18)
(0.0037174 -0.000229705 -1.85896e-17)
(-0.0533701 -0.00543385 -2.07382e-17)
(-0.107312 -0.0104214 4.18842e-17)
(-0.152126 -0.0146304 1.54266e-17)
(-0.183879 -0.0176837 -4.0533e-17)
(-0.200471 -0.0193409 -2.11625e-17)
(-0.200263 -0.019335 -1.08117e-17)
(-0.182231 -0.017494 2.29376e-17)
(-0.147676 -0.013944 4.18551e-17)
(-0.101792 -0.00906878 -1.92272e-17)
(-0.0551105 -0.00374174 7.24977e-18)
(-0.0203654 0.000544954 2.1671e-17)
(-0.00514582 0.00252529 8.69547e-18)
(-0.0069263 0.00220575 -8.21068e-18)
(-0.0153677 0.000828755 -3.3355e-18)
(-0.0211434 -0.000283033 -3.27282e-18)
(-0.0216944 -0.000619987 -5.63901e-19)
(-0.0192319 -0.000401891 -1.75622e-18)
(-0.0166858 -7.23441e-05 1.7744e-18)
(-0.0153292 5.1806e-05 -1.09621e-18)
(-0.0148143 -3.95183e-05 -4.81598e-19)
(-0.0143815 -0.000175142 -3.64816e-18)
(-0.0136931 -0.000230754 -7.93407e-19)
(-0.012862 -0.000205771 -4.0505e-18)
(-0.0120835 -0.00016014 -2.63634e-18)
(-0.0114144 -0.000127291 -1.27381e-17)
(-0.0108064 -0.000103441 -4.4076e-18)
(-0.0102188 -7.2267e-05 -1.67047e-17)
(-0.00964874 -2.8022e-05 -5.41819e-17)
(-0.00910779 2.75736e-05 -1.65587e-17)
(-0.00859808 9.14564e-05 1.66827e-17)
(-0.00811828 0.000163808 -5.62958e-17)
(-0.00766585 0.000245167 -7.60073e-18)
(-0.0072403 0.000335939 -2.87922e-17)
(-0.00683607 0.000436206 6.7937e-17)
(-0.00645131 0.000545886 -4.87834e-17)
(-0.00608334 0.000664741 -8.85169e-17)
(-0.00573605 0.000790977 -7.34347e-17)
(-0.00540772 0.000924906 8.03144e-17)
(-0.00509609 0.00106382 1.48106e-16)
(-0.00479421 0.00121221 1.17633e-16)
(-0.00450142 0.00136142 -1.38375e-17)
(-0.00422021 0.00152568 -3.04375e-17)
(-0.00393873 0.00167628 -2.94625e-17)
(-0.00390937 0.00193703 -1.69861e-16)
(-0.00371823 0.00202102 1.22197e-16)
(-0.00350526 0.00218826 -1.04082e-16)
(-0.00329375 0.00226936 1.43664e-17)
(-0.0030596 0.00254003 2.55104e-16)
(-0.00283554 0.00251231 1.78905e-16)
(-0.00257104 0.00303946 -1.85275e-16)
(-0.00238391 0.00266071 2.19415e-16)
(-0.00213497 0.0038031 -3.93273e-16)
(-0.00202899 0.00248214 -3.52636e-16)
(-0.00190089 0.0051256 2.99327e-17)