/*--------------------------------*- C++ -*----------------------------------*\
| =========                 |                                                 |
| \\      /  F ield         | OpenFOAM: The Open Source CFD Toolbox           |
|  \\    /   O peration     | Version:  2506                                  |
|   \\  /    A nd           | Website:  www.openfoam.com                      |
|    \\/     M anipulation  |                                                 |
\*---------------------------------------------------------------------------*/
FoamFile
{
    version     2.0;
    format      ascii;
    arch        "LSB;label=32;scalar=64";
    class       volScalarField;
    location    "150";
    object      nut;
}
// * * * * * * * * * * * * * * * * * * * * * * * * * * * * * * * * * * * * * //

dimensions      [0 2 -1 0 0 0 0];

internalField   nonuniform List<scalar> 
1340
(
6.09597e-06
6.09566e-06
6.09625e-06
6.07868e-06
6.096e-06
6.09662e-06
6.07645e-06
6.07844e-06
6.09636e-06
6.09707e-06
6.07239e-06
6.07192e-06
6.07621e-06
6.07819e-06
6.09674e-06
6.09759e-06
6.07841e-06
6.07482e-06
6.07253e-06
6.07188e-06
6.07598e-06
6.07793e-06
6.09713e-06
6.09819e-06
6.08831e-06
6.08531e-06
6.08197e-06
6.07871e-06
6.07507e-06
6.07268e-06
6.07184e-06
6.07575e-06
6.07767e-06
6.09754e-06
6.09887e-06
6.09378e-06
6.09227e-06
6.09083e-06
6.08865e-06
6.08566e-06
6.08228e-06
6.079e-06
6.07534e-06
6.07284e-06
6.07182e-06
6.07552e-06
6.07739e-06
6.09796e-06
6.09962e-06
6.09882e-06
6.0986e-06
6.09763e-06
6.09591e-06
6.09402e-06
6.09252e-06
6.09112e-06
6.08901e-06
6.08602e-06
6.0826e-06
6.07931e-06
6.07562e-06
6.07301e-06
6.0718e-06
6.0753e-06
6.07711e-06
6.09838e-06
6.10046e-06
6.09532e-06
6.09524e-06
6.09598e-06
6.09708e-06
6.0981e-06
6.09871e-06
6.09863e-06
6.09778e-06
6.09613e-06
6.09427e-06
6.09278e-06
6.09143e-06
6.08937e-06
6.08641e-06
6.08294e-06
6.07963e-06
6.07591e-06
6.0732e-06
6.0718e-06
6.07508e-06
6.07682e-06
6.09881e-06
6.10137e-06
6.11209e-06
6.10837e-06
6.10519e-06
6.10246e-06
6.10009e-06
6.09809e-06
6.09654e-06
6.09551e-06
6.0951e-06
6.09557e-06
6.09665e-06
6.09779e-06
6.09856e-06
6.09864e-06
6.09792e-06
6.09635e-06
6.09451e-06
6.09304e-06
6.09174e-06
6.08974e-06
6.08681e-06
6.0833e-06
6.07995e-06
6.07622e-06
6.07341e-06
6.07181e-06
6.07487e-06
6.07651e-06
6.09923e-06
6.10235e-06
6.20435e-06
6.20168e-06
6.19607e-06
6.18248e-06
6.16965e-06
6.16027e-06
6.15231e-06
6.14445e-06
6.137e-06
6.13044e-06
6.12473e-06
6.11959e-06
6.1149e-06
6.11073e-06
6.10713e-06
6.10404e-06
6.10135e-06
6.09903e-06
6.09716e-06
6.09583e-06
6.09511e-06
6.09522e-06
6.09619e-06
6.09741e-06
6.09836e-06
6.09861e-06
6.09804e-06
6.09656e-06
6.09476e-06
6.0933e-06
6.09205e-06
6.09012e-06
6.08722e-06
6.08368e-06
6.08029e-06
6.07654e-06
6.07363e-06
6.07185e-06
6.07467e-06
6.0762e-06
6.09964e-06
6.1034e-06
0.0212302
0.0783981
0.161558
0.252852
0.343841
0.431865
0.515726
0.594077
0.665091
0.726479
0.77554
0.809238
0.824368
0.817867
0.787419
0.732357
0.654198
0.556279
0.437568
0.300758
0.160534
0.0557077
0.0156756
0.00055066
0
0
0
3.70295e-14
3.39758e-09
6.45782e-07
7.1247e-06
1.02441e-05
7.57212e-06
5.8754e-06
5.83544e-06
6.23766e-06
6.36579e-06
6.2794e-06
6.20746e-06
6.19531e-06
6.19605e-06
6.18572e-06
6.17059e-06
6.15867e-06
6.15017e-06
6.14277e-06
6.13567e-06
6.12913e-06
6.12329e-06
6.11807e-06
6.11343e-06
6.10938e-06
6.10588e-06
6.10282e-06
6.10016e-06
6.09796e-06
6.09631e-06
6.09527e-06
6.09499e-06
6.09573e-06
6.09698e-06
6.09809e-06
6.09854e-06
6.09813e-06
6.09677e-06
6.095e-06
6.09356e-06
6.09236e-06
6.09051e-06
6.08766e-06
6.08407e-06
6.08064e-06
6.07687e-06
6.07386e-06
6.0719e-06
6.07448e-06
6.07587e-06
6.10004e-06
6.10451e-06
0.00322281
0.0129484
0.0541423
0.124604
0.21121
0.302579
0.393555
0.482082
0.566705
0.64567
0.716745
0.777272
0.824238
0.854385
0.864395
0.851271
0.81296
0.749007
0.661266
0.547128
0.4073
0.255009
0.114872
0.0214984
0.00677815
3.1988e-06
0
0
0
8.05584e-12
1.26038e-10
3.04676e-06
1.05464e-05
9.57909e-06
6.54521e-06
5.67373e-06
6.00267e-06
6.33054e-06
6.3234e-06
6.21613e-06
6.17309e-06
6.17823e-06
6.18238e-06
6.1732e-06
6.15969e-06
6.14872e-06
6.1407e-06
6.13397e-06
6.12766e-06
6.12176e-06
6.11649e-06
6.11193e-06
6.10799e-06
6.10454e-06
6.10151e-06
6.09896e-06
6.09696e-06
6.09559e-06
6.09493e-06
6.09529e-06
6.09649e-06
6.09776e-06
6.09842e-06
6.0982e-06
6.09696e-06
6.09525e-06
6.09382e-06
6.09266e-06
6.09091e-06
6.08811e-06
6.08449e-06
6.081e-06
6.07721e-06
6.07412e-06
6.07198e-06
6.0743e-06
6.07553e-06
6.10041e-06
6.10568e-06
0
0.000737218
0.00268454
0.0241592
0.0748139
0.150998
0.240828
0.334913
0.428596
0.519597
0.606082
0.685914
0.756523
0.814975
0.858075
0.88252
0.885152
0.863398
0.81598
0.742928
0.641337
0.509119
0.352838
0.193082
0.0714956
0.00124027
0.000951296
0
0
0
1.76528e-16
1.55764e-09
2.6038e-07
6.0091e-06
1.02119e-05
7.70693e-06
5.87424e-06
5.77145e-06
6.23249e-06
6.42256e-06
6.32585e-06
6.20626e-06
6.16421e-06
6.16552e-06
6.16765e-06
6.15999e-06
6.1487e-06
6.13919e-06
6.132e-06
6.12584e-06
6.1201e-06
6.11492e-06
6.11042e-06
6.10653e-06
6.10311e-06
6.10018e-06
6.09781e-06
6.09607e-06
6.09504e-06
6.09495e-06
6.09598e-06
6.09734e-06
6.09823e-06
6.09822e-06
6.09714e-06
6.09549e-06
6.09408e-06
6.09297e-06
6.0913e-06
6.08857e-06
6.08493e-06
6.08138e-06
6.07755e-06
6.07438e-06
6.07208e-06
6.07414e-06
6.07518e-06
6.10075e-06
6.10692e-06
0
0
6.31847e-07
0.00170298
0.00635803
0.0338805
0.0909992
0.172588
0.26717
0.36569
0.463281
0.557263
0.645417
0.72528
0.794018
0.848518
0.88554
0.90195
0.895046
0.86305
0.805015
0.718291
0.598644
0.44759
0.280594
0.126273
0.0246266
0.00757368
0
0
0
0
1.73027e-12
5.97235e-12
2.92406e-06
1.10538e-05
9.94852e-06
6.62125e-06
5.37126e-06
5.57917e-06
6.11126e-06
6.33964e-06
6.29637e-06
6.2042e-06
6.16108e-06
6.15508e-06
6.15476e-06
6.14827e-06
6.13871e-06
6.13031e-06
6.12379e-06
6.11828e-06
6.11331e-06
6.10886e-06
6.10497e-06
6.10162e-06
6.09886e-06
6.09675e-06
6.09534e-06
6.09478e-06
6.09548e-06
6.09685e-06
6.09796e-06
6.0982e-06
6.0973e-06
6.09573e-06
6.09434e-06
6.09327e-06
6.0917e-06
6.08905e-06
6.0854e-06
6.08177e-06
6.07792e-06
6.07467e-06
6.07221e-06
6.074e-06
6.07482e-06
6.10104e-06
6.10817e-06
1.3328e-08
1.36826e-18
0
0
1.74972e-05
0.00280729
0.0106481
0.0433204
0.105435
0.191819
0.291642
0.395719
0.498389
0.596159
0.686234
0.765782
0.831759
0.88099
0.910365
0.917132
0.899234
0.855136
0.783644
0.678972
0.538981
0.371522
0.200568
0.0718571
0.0202725
0.00146159
0
0
0
1.03972e-17
9.04703e-10
1.21348e-07
5.18104e-06
1.13482e-05
1.06782e-05
7.67153e-06
5.96883e-06
5.71258e-06
6.01233e-06
6.23958e-06
6.25948e-06
6.19799e-06
6.15635e-06
6.14569e-06
6.14349e-06
6.13753e-06
6.1292e-06
6.12197e-06
6.11637e-06
6.11159e-06
6.10723e-06
6.10338e-06
6.10017e-06
6.09765e-06
6.09583e-06
6.09483e-06
6.09503e-06
6.0963e-06
6.09758e-06
6.09809e-06
6.09741e-06
6.09594e-06
6.09458e-06
6.09355e-06
6.09209e-06
6.08954e-06
6.08588e-06
6.08218e-06
6.07829e-06
6.07496e-06
6.07236e-06
6.07388e-06
6.07446e-06
6.10132e-06
6.1095e-06
5.86742e-06
1.56673e-09
9.3701e-12
0
0
0
4.46123e-05
1.14504e-08
0.011237
0.0407392
0.0953621
0.175136
0.273054
0.379896
0.48798
0.591838
0.68738
0.771064
0.839496
0.889389
0.91773
0.922009
0.900402
0.851691
0.77301
0.659668
0.512509
0.345324
0.182582
0.0652643
0.0191526
0.00150441
6.83836e-05
0
0
1.22422e-13
7.29353e-12
4.92982e-09
6.6948e-07
5.42843e-06
9.68795e-06
8.65309e-06
6.5932e-06
5.81986e-06
5.92495e-06
6.16553e-06
6.22988e-06
6.18567e-06
6.14687e-06
6.13686e-06
6.13485e-06
6.129e-06
6.12131e-06
6.11501e-06
6.11012e-06
6.10583e-06
6.10203e-06
6.09894e-06
6.09664e-06
6.09514e-06
6.0947e-06
6.09571e-06
6.09713e-06
6.09797e-06
6.09757e-06
6.09625e-06
6.09491e-06
6.09391e-06
6.09255e-06
6.09012e-06
6.08647e-06
6.08267e-06
6.07872e-06
6.0753e-06
6.07256e-06
6.07383e-06
6.07409e-06
6.10153e-06
6.11091e-06
7.61134e-06
6.087e-06
1.65126e-06
7.76963e-09
4.07343e-16
0
0
1.37526e-17
3.38328e-05
0.000883015
0.00260241
0.0206461
0.0608788
0.12774
0.218992
0.326481
0.440599
0.553332
0.65867
0.75191
0.828994
0.886303
0.920717
0.929894
0.911818
0.865199
0.786882
0.672305
0.523251
0.354357
0.192316
0.0738358
0.00447968
0.00242438
3.61612e-07
0
0
0
4.93691e-13
1.85458e-09
2.99707e-07
4.78788e-06
9.44555e-06
8.36902e-06
6.40597e-06
5.8122e-06
6.00476e-06
6.21294e-06
6.22254e-06
6.1635e-06
6.13417e-06
6.13088e-06
6.12843e-06
6.1214e-06
6.11432e-06
6.10902e-06
6.10471e-06
6.10094e-06
6.09793e-06
6.09582e-06
6.09472e-06
6.0951e-06
6.0965e-06
6.09768e-06
6.09767e-06
6.09656e-06
6.09528e-06
6.09429e-06
6.09305e-06
6.09077e-06
6.08715e-06
6.08324e-06
6.07919e-06
6.07566e-06
6.0728e-06
6.07381e-06
6.07375e-06
6.10173e-06
6.11238e-06
6.41368e-06
7.08613e-06
7.18789e-06
4.99967e-06
7.61979e-07
3.55543e-09
1.59728e-16
0
0
0
2.32748e-07
0.00012676
0.00264327
0.00930876
0.0375148
0.0930912
0.177393
0.28443
0.403638
0.524624
0.639173
0.741126
0.825592
0.888552
0.926726
0.937652
0.919149
0.87014
0.786934
0.665322
0.510176
0.338909
0.178315
0.0640018
0.000842758
0.00111623
2.7645e-09
0
0
0
2.69267e-13
4.59381e-09
9.34939e-07
7.46971e-06
9.67586e-06
7.43387e-06
5.93037e-06
5.80991e-06
6.10748e-06
6.22863e-06
6.1855e-06
6.13824e-06
6.12757e-06
6.12655e-06
6.12052e-06
6.11298e-06
6.10748e-06
6.10343e-06
6.09988e-06
6.09698e-06
6.09511e-06
6.09467e-06
6.09579e-06
6.0972e-06
6.09763e-06
6.09682e-06
6.09562e-06
6.09466e-06
6.09351e-06
6.09141e-06
6.08785e-06
6.08383e-06
6.07967e-06
6.07603e-06
6.07308e-06
6.07384e-06
6.07341e-06
6.10184e-06
6.11383e-06
6.39677e-06
6.69027e-06
7.18185e-06
6.86701e-06
4.29492e-06
2.45558e-07
1.16678e-09
1.3468e-17
0
0
0
0
3.16001e-05
0.000864299
0.00244328
0.0234516
0.0700373
0.14806
0.254145
0.377595
0.506022
0.628904
0.738387
0.828568
0.894858
0.933713
0.942671
0.919533
0.863947
0.771797
0.640519
0.477254
0.302601
0.145784
0.0405898
0.000229025
0.000456495
0
0
0
0
2.0105e-11
7.25071e-10
2.618e-06
9.17781e-06
8.67888e-06
6.48314e-06
5.77938e-06
5.98573e-06
6.20317e-06
6.20284e-06
6.14527e-06
6.12575e-06
6.1261e-06
6.12116e-06
6.11206e-06
6.10538e-06
6.1015e-06
6.09857e-06
6.0961e-06
6.09472e-06
6.09511e-06
6.09654e-06
6.0974e-06
6.09698e-06
6.09595e-06
6.095e-06
6.09395e-06
6.09203e-06
6.08857e-06
6.08447e-06
6.08017e-06
6.07642e-06
6.07339e-06
6.0739e-06
6.07308e-06
6.10184e-06
6.11523e-06
6.39632e-06
6.40632e-06
6.51516e-06
6.85232e-06
7.31925e-06
6.47432e-06
3.74337e-06
1.68383e-08
8.96294e-11
1.5215e-18
0
0
0
0
3.43383e-07
0.000254678
0.000291463
0.0163628
0.0559419
0.129518
0.23534
0.362939
0.498243
0.628517
0.74406
0.837818
0.904601
0.940698
0.943927
0.912168
0.846494
0.741765
0.597223
0.423599
0.246668
0.104888
0.0168795
0.00527906
0
0
0
0
8.04414e-16
3.18976e-09
6.87182e-07
7.43157e-06
9.83976e-06
7.34652e-06
5.93909e-06
5.89307e-06
6.15326e-06
6.21006e-06
6.14799e-06
6.11578e-06
6.11968e-06
6.12176e-06
6.11373e-06
6.10493e-06
6.09982e-06
6.09703e-06
6.09522e-06
6.09472e-06
6.09581e-06
6.09694e-06
6.09699e-06
6.09621e-06
6.09532e-06
6.09434e-06
6.09262e-06
6.08931e-06
6.08514e-06
6.0807e-06
6.07684e-06
6.07374e-06
6.07401e-06
6.07276e-06
6.10173e-06
6.11656e-06
6.46286e-06
6.46365e-06
6.45504e-06
6.47705e-06
6.63167e-06
7.0115e-06
7.49116e-06
5.80927e-06
2.4425e-06
1.52817e-09
1.01031e-11
7.66981e-19
0
0
0
0
9.32576e-11
0.000124166
0.00325426
0.0117134
0.0478376
0.11989
0.22753
0.360198
0.502257
0.638888
0.758605
0.853253
0.917164
0.946626
0.940231
0.897084
0.816564
0.694243
0.532682
0.349452
0.176035
0.0570749
0.015759
0.000386965
0
0
0
0
5.28711e-11
4.2723e-09
3.04268e-06
9.20062e-06
8.04169e-06
6.1092e-06
5.8138e-06
6.12748e-06
6.26024e-06
6.18379e-06
6.11028e-06
6.10079e-06
6.11116e-06
6.11159e-06
6.10485e-06
6.09901e-06
6.09588e-06
6.09464e-06
6.09515e-06
6.09633e-06
6.0968e-06
6.09636e-06
6.0956e-06
6.09471e-06
6.09318e-06
6.09005e-06
6.08584e-06
6.08127e-06
6.07729e-06
6.07414e-06
6.07416e-06
6.07244e-06
6.10147e-06
6.11781e-06
6.49467e-06
6.50166e-06
6.50255e-06
6.49221e-06
6.47975e-06
6.51915e-06
6.71836e-06
7.18239e-06
7.39131e-06
5.24849e-06
1.96759e-06
6.16869e-10
4.63864e-12
4.23054e-18
0
0
0
0
0
8.16897e-05
0.00266026
0.00940946
0.0449372
0.118733
0.230793
0.36983
0.518519
0.660082
0.781483
0.873666
0.930827
0.949788
0.929468
0.870944
0.770932
0.626949
0.447156
0.260281
0.105674
0.0153565
0.00472623
0
0
0
0
6.00236e-15
6.29055e-09
1.46367e-06
8.61163e-06
9.34437e-06
6.46659e-06
5.48646e-06
5.8299e-06
6.2215e-06
6.26278e-06
6.16493e-06
6.10939e-06
6.10285e-06
6.10528e-06
6.1025e-06
6.09797e-06
6.09514e-06
6.09459e-06
6.09556e-06
6.09637e-06
6.09631e-06
6.09575e-06
6.09498e-06
6.09366e-06
6.09076e-06
6.08656e-06
6.08188e-06
6.0778e-06
6.07459e-06
6.07439e-06
6.07216e-06
6.10118e-06
6.11897e-06
6.492e-06
6.49183e-06
6.49003e-06
6.48552e-06
6.4751e-06
6.45772e-06
6.44066e-06
6.51792e-06
6.76574e-06
7.25148e-06
7.30181e-06
4.91241e-06
1.72641e-06
2.71995e-09
1.73021e-11
1.11864e-17
0
0
0
0
0
6.05763e-05
0.00268208
0.00953723
0.0474075
0.126355
0.245806
0.392759
0.547674
0.691757
0.810676
0.894928
0.93908
0.941394
0.901396
0.821548
0.696564
0.528605
0.338032
0.160478
0.0468429
0.0120531
0
0
0
0
0
8.10494e-10
1.41466e-07
5.40545e-06
1.13361e-05
8.61996e-06
6.0109e-06
5.55305e-06
5.91056e-06
6.15914e-06
6.17527e-06
6.12981e-06
6.10738e-06
6.10256e-06
6.0999e-06
6.09668e-06
6.09477e-06
6.09493e-06
6.09584e-06
6.09614e-06
6.09585e-06
6.09525e-06
6.09415e-06
6.09152e-06
6.08738e-06
6.08258e-06
6.07838e-06
6.07512e-06
6.07459e-06
6.07188e-06
6.10037e-06
6.12007e-06
6.44585e-06
6.43561e-06
6.42564e-06
6.41598e-06
6.40654e-06
6.39603e-06
6.3789e-06
6.35924e-06
6.35205e-06
6.46736e-06
6.77102e-06
7.25509e-06
7.14777e-06
4.80217e-06
1.75664e-06
5.73968e-09
3.55841e-11
1.09681e-16
0
0
0
0
0
6.92621e-05
0.003376
0.0123115
0.0556064
0.143586
0.27467
0.434064
0.599847
0.750642
0.869811
0.946438
0.974745
0.954096
0.886856
0.77192
0.608573
0.408195
0.208597
0.0500532
0.0172912
0.00292596
0.00119839
0.000369167
1.63117e-05
0
2.56271e-13
2.8217e-09
4.45354e-07
7.5157e-06
1.00507e-05
7.62779e-06
6.201e-06
5.96573e-06
6.07359e-06
6.13085e-06
6.12364e-06
6.10844e-06
6.10116e-06
6.09758e-06
6.0952e-06
6.09443e-06
6.09496e-06
6.09549e-06
6.09555e-06
6.09523e-06
6.0944e-06
6.09206e-06
6.08794e-06
6.08323e-06
6.07901e-06
6.07554e-06
6.07507e-06
6.07169e-06
6.10059e-06
6.12087e-06
6.31348e-06
6.30551e-06
6.30024e-06
6.29656e-06
6.2944e-06
6.2938e-06
6.2941e-06
6.29282e-06
6.28497e-06
6.27426e-06
6.28112e-06
6.41859e-06
6.72499e-06
7.22034e-06
7.28893e-06
5.54236e-06
2.41137e-06
4.46498e-08
1.73211e-10
0
0
0
0
0
0
0.000114399
0.00235381
0.0074206
0.0427567
0.116152
0.227675
0.367476
0.518733
0.662753
0.783052
0.867208
0.907828
0.900144
0.84196
0.732878
0.576436
0.391364
0.224679
0.107964
0.0420527
0.012402
0.00170707
0.000379274
0
0
2.35362e-11
1.13299e-09
1.60886e-06
5.80466e-06
6.79053e-06
6.40245e-06
6.15916e-06
6.11844e-06
6.12276e-06
6.11802e-06
6.10898e-06
6.10215e-06
6.09779e-06
6.09537e-06
6.09481e-06
6.09495e-06
6.09511e-06
6.09499e-06
6.09458e-06
6.0928e-06
6.08922e-06
6.08452e-06
6.08038e-06
6.07688e-06
6.07588e-06
6.07196e-06
6.09786e-06
6.12287e-06
)
;

boundaryField
{
    inlet
    {
        type            freestream;
        freestreamValue uniform 1e-05;
        value           nonuniform List<scalar> 
27
(
6.09597e-06
6.09625e-06
6.09662e-06
6.09707e-06
6.09759e-06
6.09819e-06
6.09887e-06
6.09962e-06
6.10046e-06
6.10137e-06
6.10235e-06
6.1034e-06
6.10451e-06
6.10568e-06
6.10692e-06
6.10817e-06
6.1095e-06
6.11091e-06
6.11238e-06
6.11383e-06
6.11523e-06
6.11656e-06
6.11781e-06
6.11897e-06
6.12007e-06
6.12087e-06
6.12287e-06
)
;
    }
    outlet
    {
        type            freestream;
        freestreamValue uniform 1e-05;
        value           nonuniform List<scalar> 
78
(
6.31348e-06
6.30551e-06
6.30024e-06
6.29656e-06
6.2944e-06
6.2938e-06
6.2941e-06
6.29282e-06
6.28497e-06
6.27426e-06
6.28112e-06
6.41859e-06
6.72499e-06
7.22034e-06
7.28893e-06
5.54236e-06
2.41137e-06
4.46498e-08
1.73211e-10
0
0
0
0
0
0
0.000114399
0.00235381
0.0074206
0.0427567
0.116152
0.227675
0.367476
0.518733
0.662753
0.783052
0.867208
0.907828
0.900144
0.84196
0.732878
0.576436
0.391364
0.224679
0.107964
0.0420527
0.012402
0.00170707
0.000379274
0
0
2.35362e-11
1.13299e-09
1.60886e-06
5.80466e-06
6.79053e-06
6.40245e-06
6.15916e-06
6.11844e-06
6.12276e-06
6.11802e-06
6.10898e-06
6.10215e-06
6.09779e-06
6.09537e-06
6.09481e-06
6.09495e-06
6.09511e-06
6.09499e-06
6.09458e-06
6.0928e-06
6.08922e-06
6.08452e-06
6.08038e-06
6.07688e-06
6.07588e-06
6.07196e-06
6.09786e-06
6.12287e-06
)
;
    }
    walls
    {
        type            nutUSpaldingWallFunction;
        value           nonuniform List<scalar> 0();
    }
    frontAndBack
    {
        type            empty;
    }
    procBoundary7to3
    {
        type            processor;
        value           nonuniform List<scalar> 
16
(
0.000243331
3.76868e-11
0
1.2446e-08
2.83942e-06
7.3636e-06
6.48459e-06
6.2432e-06
6.31005e-06
6.31005e-06
6.39685e-06
6.45008e-06
6.48441e-06
6.49163e-06
6.46108e-06
6.33221e-06
)
;
    }
    procBoundary7to6
    {
        type            processor;
        value           nonuniform List<scalar> 
91
(
6.0958e-06
6.09534e-06
6.09534e-06
6.07892e-06
6.07892e-06
6.07669e-06
6.07669e-06
6.07227e-06
6.07198e-06
6.07198e-06
6.07813e-06
6.07457e-06
6.07457e-06
6.08799e-06
6.08497e-06
6.08168e-06
6.08168e-06
6.09355e-06
6.09201e-06
6.09053e-06
6.09053e-06
6.0989e-06
6.09854e-06
6.09747e-06
6.0957e-06
6.0957e-06
6.09527e-06
6.09551e-06
6.0964e-06
6.09746e-06
6.09836e-06
6.09836e-06
6.10962e-06
6.10631e-06
6.1035e-06
6.10111e-06
6.09904e-06
6.09733e-06
6.09607e-06
6.09607e-06
6.20765e-06
6.19738e-06
6.18307e-06
6.17126e-06
6.16191e-06
6.15348e-06
6.14556e-06
6.1383e-06
6.1318e-06
6.12605e-06
6.12094e-06
6.11631e-06
6.11631e-06
0.0619618
0.144797
0.236507
0.327249
0.413802
0.494403
0.56733
0.630598
0.68189
0.718594
0.737915
0.737153
0.714243
0.668586
0.602204
0.519731
0.42492
0.317386
0.200755
0.0891759
0.0127004
0.00429148
0
0
0
0
2.92382e-10
3.28127e-08
4.39119e-06
1.10983e-05
9.11244e-06
6.33481e-06
5.6816e-06
6.05376e-06
6.35564e-06
6.34135e-06
6.24431e-06
6.24431e-06
)
;
    }
}


// ************************************************************************* //
