/*--------------------------------*- C++ -*----------------------------------*\
| =========                 |                                                 |
| \\      /  F ield         | OpenFOAM: The Open Source CFD Toolbox           |
|  \\    /   O peration     | Version:  2506                                  |
|   \\  /    A nd           | Website:  www.openfoam.com                      |
|    \\/     M anipulation  |                                                 |
\*---------------------------------------------------------------------------*/
FoamFile
{
    version     2.0;
    format      ascii;
    arch        "LSB;label=32;scalar=64";
    class       volSymmTensorField;
    location    "150";
    object      turbulenceProperties:R;
}
// * * * * * * * * * * * * * * * * * * * * * * * * * * * * * * * * * * * * * //

dimensions      [0 2 -2 0 0 0 0];

internalField   nonuniform List<symmTensor> 
1340
(
(6.55474e-07 1.35913e-08 -2.46815e-20 5.21292e-07 -2.58985e-21 6.23602e-07)
(4.03726e-07 -9.24374e-09 -2.43483e-20 4.98784e-07 -3.08154e-21 4.21888e-07)
(6.66242e-07 1.49342e-08 1.28286e-20 5.29186e-07 1.30812e-21 6.32184e-07)
(4.6821e-07 2.28235e-08 1.30483e-19 3.7942e-07 1.47103e-20 4.47633e-07)
(3.94154e-07 -1.00356e-08 3.40618e-23 4.80672e-07 -1.08825e-22 4.05404e-07)
(6.61963e-07 1.78711e-08 -2.70531e-22 5.30672e-07 6.37902e-23 6.34756e-07)
(1.74008e-07 1.11846e-08 -6.63449e-20 1.95218e-07 -7.93436e-21 1.67648e-07)
(4.62009e-07 2.13551e-08 2.15526e-21 3.74439e-07 4.46452e-22 4.42951e-07)
(3.87445e-07 -1.04125e-08 2.90886e-20 4.68456e-07 3.62095e-21 3.9463e-07)
(6.62672e-07 1.94246e-08 -5.83274e-20 5.33875e-07 -6.14049e-21 6.38706e-07)
(1.80844e-07 1.81365e-08 -1.58365e-19 1.62499e-07 -1.85358e-20 1.64179e-07)
(3.23013e-07 2.12377e-08 -8.66578e-20 2.64141e-07 -9.73839e-21 3.05091e-07)
(1.72829e-07 1.10391e-08 2.92814e-20 1.92596e-07 3.47959e-21 1.65556e-07)
(4.57923e-07 1.96249e-08 -4.32081e-20 3.7025e-07 -4.88474e-21 4.39004e-07)
(3.80826e-07 -1.03126e-08 -1.22582e-19 4.58559e-07 -1.52531e-20 3.86089e-07)
(6.6702e-07 2.01495e-08 5.5971e-20 5.37936e-07 5.77198e-21 6.43424e-07)
(2.62313e-07 2.15581e-08 2.34218e-20 2.19013e-07 2.72737e-21 2.37654e-07)
(3.0042e-07 2.20647e-08 -6.26107e-21 2.46368e-07 -7.52735e-22 2.7819e-07)
(1.76314e-07 1.71937e-08 6.04198e-22 1.57426e-07 -1.11687e-22 1.59259e-07)
(3.18234e-07 1.94932e-08 2.82826e-22 2.58684e-07 -4.29204e-23 3.00048e-07)
(1.71503e-07 1.08774e-08 2.06014e-20 1.89952e-07 2.49994e-21 1.63443e-07)
(4.54306e-07 1.7918e-08 -2.193e-21 3.66498e-07 -3.41011e-22 4.35478e-07)
(3.75562e-07 -1.01886e-08 7.84993e-23 4.50384e-07 -8.07216e-24 3.79034e-07)
(6.71422e-07 2.07708e-08 -2.00262e-22 5.42044e-07 4.75165e-23 6.48244e-07)
(3.73699e-07 2.3652e-08 -5.27441e-20 3.012e-07 -6.20108e-21 3.38063e-07)
(3.28645e-07 2.23577e-08 -6.72432e-20 2.66932e-07 -7.73886e-21 2.96684e-07)
(3.23314e-07 2.20344e-08 -8.4204e-20 2.62469e-07 -9.51263e-21 2.94703e-07)
(2.53495e-07 1.9916e-08 -3.42188e-20 2.10208e-07 -3.76461e-21 2.28793e-07)
(2.93496e-07 2.02817e-08 3.8015e-21 2.39023e-07 5.6361e-22 2.71143e-07)
(1.71491e-07 1.62222e-08 6.44153e-20 1.52154e-07 7.49824e-21 1.54128e-07)
(3.1347e-07 1.77951e-08 1.33537e-20 2.53465e-07 1.42494e-21 2.95169e-07)
(1.70226e-07 1.06309e-08 -4.61851e-20 1.87341e-07 -5.45372e-21 1.61334e-07)
(4.51053e-07 1.63598e-08 4.14495e-20 3.63346e-07 4.64798e-21 4.32578e-07)
(3.72138e-07 -1.01802e-08 7.29958e-23 4.44107e-07 -4.29198e-23 3.73616e-07)
(6.75134e-07 2.13382e-08 9.94157e-23 5.45986e-07 -2.22032e-23 6.52981e-07)
(4.40827e-07 2.04007e-08 -1.24658e-20 3.48222e-07 -1.21034e-21 3.94453e-07)
(4.11335e-07 2.12136e-08 6.19406e-20 3.26708e-07 6.91114e-21 3.69256e-07)
(3.78513e-07 2.12999e-08 7.20082e-21 3.02353e-07 7.24035e-22 3.40007e-07)
(3.59573e-07 2.11845e-08 4.14917e-20 2.88107e-07 4.62904e-21 3.245e-07)
(3.16086e-07 2.01855e-08 1.675e-22 2.55158e-07 -1.27488e-22 2.84504e-07)
(3.13118e-07 1.99655e-08 3.63049e-22 2.52548e-07 -2.39739e-23 2.84707e-07)
(2.44481e-07 1.82702e-08 2.86749e-20 2.0137e-07 3.25815e-21 2.19828e-07)
(2.86424e-07 1.85093e-08 -3.62164e-21 2.31732e-07 -4.5291e-22 2.64039e-07)
(1.66474e-07 1.52145e-08 -2.98136e-22 1.46757e-07 7.65905e-23 1.4885e-07)
(3.0887e-07 1.61454e-08 -5.98589e-23 2.48558e-07 1.97542e-23 2.90531e-07)
(1.68926e-07 1.03021e-08 1.32624e-22 1.8477e-07 -2.61559e-23 1.59224e-07)
(4.48375e-07 1.49146e-08 -2.16455e-22 3.60816e-07 6.04722e-23 4.30321e-07)
(3.70259e-07 -1.02402e-08 1.05841e-19 4.3975e-07 1.32851e-20 3.69876e-07)
(6.78401e-07 2.17023e-08 2.84133e-20 5.49569e-07 2.96113e-21 6.5737e-07)
(5.77012e-07 8.53998e-09 -3.42691e-20 4.46769e-07 -3.5827e-21 5.11879e-07)
(5.34175e-07 1.17348e-08 2.53711e-20 4.14713e-07 2.85928e-21 4.74431e-07)
(4.93824e-07 1.41685e-08 1.28107e-20 3.84731e-07 1.2901e-21 4.39268e-07)
(4.55524e-07 1.58694e-08 -4.75733e-21 3.56335e-07 -5.70814e-22 4.05932e-07)
(4.19187e-07 1.72658e-08 6.92843e-23 3.29581e-07 -7.886e-24 3.74307e-07)
(3.92428e-07 1.8327e-08 -2.34682e-22 3.10105e-07 4.40957e-23 3.51509e-07)
(3.61607e-07 1.86769e-08 -2.64199e-23 2.873e-07 -1.07673e-22 3.24013e-07)
(3.4515e-07 1.87741e-08 -4.52215e-20 2.75012e-07 -5.06947e-21 3.10762e-07)
(3.03342e-07 1.80526e-08 -2.1599e-20 2.43431e-07 -2.28778e-21 2.7224e-07)
(3.02711e-07 1.7921e-08 2.70493e-20 2.42649e-07 3.08515e-21 2.74591e-07)
(2.3537e-07 1.66246e-08 -2.72955e-20 1.92575e-07 -3.16329e-21 2.10833e-07)
(2.79259e-07 1.67496e-08 1.08525e-23 2.24527e-07 -2.8025e-23 2.56909e-07)
(1.61287e-07 1.41742e-08 -5.82589e-20 1.41269e-07 -6.79753e-21 1.43448e-07)
(3.04423e-07 1.45359e-08 -1.20663e-20 2.43924e-07 -1.29559e-21 2.86087e-07)
(1.67581e-07 9.909e-09 2.38965e-20 1.82277e-07 2.82688e-21 1.57145e-07)
(4.46203e-07 1.35331e-08 -3.75835e-20 3.58754e-07 -4.22538e-21 4.28529e-07)
(3.69474e-07 -1.03237e-08 -8.93318e-20 4.36952e-07 -1.11687e-20 3.67496e-07)
(6.81941e-07 2.18238e-08 -3.63011e-20 5.5317e-07 -3.7062e-21 6.61852e-07)
(7.62611e-07 -2.2342e-08 -3.18812e-20 5.94382e-07 -3.27413e-21 6.78481e-07)
(7.13735e-07 -1.56029e-08 -4.8096e-21 5.54128e-07 -3.68864e-22 6.33913e-07)
(6.6698e-07 -9.55196e-09 -4.9902e-21 5.16388e-07 -5.11076e-22 5.91662e-07)
(6.22304e-07 -4.13968e-09 -7.75059e-21 4.81005e-07 -7.60124e-22 5.51634e-07)
(5.79659e-07 6.39347e-10 -1.52019e-21 4.47839e-07 -5.55115e-23 5.13727e-07)
(5.39262e-07 4.74092e-09 2.16784e-20 4.16944e-07 2.35274e-21 4.78085e-07)
(5.01e-07 8.11466e-09 2.49547e-20 3.88087e-07 2.64122e-21 4.44526e-07)
(4.64812e-07 1.07658e-08 -5.22412e-23 3.61067e-07 -3.47843e-23 4.12922e-07)
(4.30427e-07 1.27014e-08 1.0788e-20 3.35513e-07 1.20312e-21 3.82969e-07)
(3.97347e-07 1.43233e-08 6.94533e-21 3.1112e-07 7.33602e-22 3.54144e-07)
(3.73287e-07 1.55881e-08 -1.6421e-23 2.93622e-07 -2.49873e-23 3.33698e-07)
(3.44473e-07 1.61691e-08 -1.76814e-24 2.72339e-07 8.13907e-24 3.07948e-07)
(3.30448e-07 1.64504e-08 2.67949e-22 2.61941e-07 -2.55935e-24 2.96886e-07)
(2.90414e-07 1.59827e-08 2.07399e-20 2.31767e-07 2.25583e-21 2.59918e-07)
(2.92079e-07 1.59226e-08 -2.57704e-20 2.32775e-07 -2.92062e-21 2.64361e-07)
(2.26144e-07 1.49955e-08 2.59822e-20 1.83831e-07 3.00013e-21 2.01811e-07)
(2.71979e-07 1.50154e-08 8.70556e-25 2.17401e-07 3.05437e-23 2.49743e-07)
(1.55944e-07 1.31125e-08 5.56635e-20 1.35723e-07 6.43798e-21 1.37953e-07)
(3.00039e-07 1.2967e-08 1.1629e-20 2.39484e-07 1.20885e-21 2.81747e-07)
(1.66212e-07 9.46345e-09 -2.27353e-20 1.79905e-07 -2.72257e-21 1.5513e-07)
(4.44357e-07 1.22006e-08 8.94744e-23 3.57008e-07 2.83027e-23 4.27033e-07)
(3.69532e-07 -1.04305e-08 1.51971e-19 4.35383e-07 1.89437e-20 3.66184e-07)
(6.85101e-07 2.17094e-08 1.47928e-22 5.56277e-07 -6.4996e-23 6.65809e-07)
(1.04749e-06 -8.44226e-08 -7.01403e-21 8.68456e-07 -6.97083e-22 9.58034e-07)
(9.92856e-07 -7.46298e-08 -1.60086e-20 8.15054e-07 -1.48872e-21 9.04007e-07)
(9.40109e-07 -6.5252e-08 7.41057e-21 7.64462e-07 7.28737e-22 8.5233e-07)
(8.88899e-07 -5.6279e-08 -1.39642e-20 7.16339e-07 -1.4293e-21 8.02653e-07)
(8.38992e-07 -4.77047e-08 -4.66572e-21 6.7043e-07 -3.38966e-22 7.54734e-07)
(7.90501e-07 -3.95756e-08 1.71312e-20 6.26792e-07 1.74594e-21 7.0866e-07)
(7.43706e-07 -3.19636e-08 1.78338e-21 5.85611e-07 1.21572e-22 6.64664e-07)
(6.98852e-07 -2.49373e-08 1.77212e-22 5.47022e-07 -6.993e-23 6.22932e-07)
(6.55968e-07 -1.8521e-08 -5.28113e-21 5.10945e-07 -5.69523e-22 5.83447e-07)
(6.14912e-07 -1.2691e-08 -3.87907e-21 4.77149e-07 -3.87316e-22 5.46015e-07)
(5.75585e-07 -7.41314e-09 4.56857e-23 4.45445e-07 5.15172e-24 5.10499e-07)
(5.37926e-07 -2.68147e-09 5.52905e-24 4.15698e-07 -5.83543e-24 4.76794e-07)
(5.02114e-07 1.45035e-09 -1.2888e-22 3.87952e-07 1.19132e-23 4.45019e-07)
(4.68151e-07 4.92042e-09 -4.01245e-21 3.62085e-07 -3.85698e-22 4.15104e-07)
(4.35917e-07 7.71256e-09 3.54208e-23 3.37852e-07 -2.1016e-23 3.86866e-07)
(4.05295e-07 9.81668e-09 -1.03458e-20 3.15003e-07 -1.12383e-21 3.60152e-07)
(3.75416e-07 1.16053e-08 -6.63893e-21 2.92905e-07 -7.03817e-22 3.34065e-07)
(3.53993e-07 1.30263e-08 -1.57395e-23 2.77314e-07 1.52705e-23 3.15901e-07)
(3.27175e-07 1.38028e-08 -1.70233e-24 2.57513e-07 1.10196e-22 2.91877e-07)
(3.15504e-07 1.424e-08 4.08224e-20 2.48924e-07 4.60654e-21 2.82917e-07)
(2.77331e-07 1.39996e-08 1.06876e-20 2.20193e-07 1.23953e-21 2.47571e-07)
(2.81242e-07 1.39927e-08 4.20551e-20 2.2295e-07 4.69035e-21 2.54049e-07)
(2.16843e-07 1.34015e-08 -2.47725e-20 1.7518e-07 -2.88316e-21 1.92811e-07)
(2.64583e-07 1.33225e-08 1.44785e-23 2.10359e-07 -8.75474e-24 2.42547e-07)
(1.50477e-07 1.20416e-08 -3.79441e-20 1.30162e-07 -4.31862e-21 1.32405e-07)
(2.95677e-07 1.14442e-08 3.19824e-20 2.35203e-07 3.7049e-21 2.77479e-07)
(1.64815e-07 8.97328e-09 5.52813e-20 1.77643e-07 6.49781e-21 1.53174e-07)
(4.42741e-07 1.09124e-08 -3.25129e-24 3.5551e-07 -4.13722e-23 4.25763e-07)
(3.70713e-07 -1.05714e-08 -1.04279e-22 4.35352e-07 2.38066e-23 3.66189e-07)
(6.88224e-07 2.13962e-08 8.16872e-21 5.59229e-07 8.52931e-22 6.69648e-07)
(1.73012e-06 -2.0784e-07 5.99411e-21 1.61145e-06 5.4676e-22 1.67089e-06)
(1.64284e-06 -1.9512e-07 2.28351e-22 1.52008e-06 1.83937e-23 1.58158e-06)
(1.5608e-06 -1.82883e-07 3.72623e-22 1.43386e-06 5.84473e-23 1.49746e-06)
(1.48297e-06 -1.70954e-07 1.77873e-20 1.35199e-06 1.65889e-21 1.41762e-06)
(1.41067e-06 -1.59614e-07 7.98503e-21 1.27567e-06 7.47488e-22 1.3433e-06)
(1.34362e-06 -1.48858e-07 1.25629e-20 1.20467e-06 1.16388e-21 1.27428e-06)
(1.28013e-06 -1.38449e-07 3.92489e-21 1.13744e-06 3.60463e-22 1.20891e-06)
(1.21894e-06 -1.28228e-07 7.14869e-21 1.0729e-06 6.4979e-22 1.14604e-06)
(1.16009e-06 -1.18228e-07 -4.12015e-21 1.01119e-06 -4.95124e-22 1.08575e-06)
(1.10397e-06 -1.0852e-07 -2.4693e-20 9.52711e-07 -2.31694e-21 1.02844e-06)
(1.0503e-06 -9.90859e-08 4.74086e-21 8.97238e-07 4.89545e-22 9.73856e-07)
(9.98289e-07 -8.98496e-08 -6.49741e-21 8.44099e-07 -6.52281e-22 9.21271e-07)
(9.47703e-07 -8.08094e-08 3.47301e-23 7.93116e-07 1.38332e-23 8.70476e-07)
(8.98829e-07 -7.20455e-08 4.6942e-23 7.44601e-07 -2.31421e-23 8.21772e-07)
(8.51862e-07 -6.36155e-08 -9.08098e-24 6.98735e-07 3.40856e-24 7.75349e-07)
(8.06501e-07 -5.55146e-08 4.65542e-23 6.55244e-07 -1.04372e-23 7.30913e-07)
(7.62439e-07 -4.77261e-08 1.62221e-23 6.1383e-07 -1.21952e-23 6.88166e-07)
(7.19668e-07 -4.02809e-08 -6.06829e-23 5.74468e-07 -2.00952e-23 6.47092e-07)
(6.78428e-07 -3.32461e-08 -8.93992e-21 5.37338e-07 -8.38557e-22 6.07897e-07)
(6.38927e-07 -2.66884e-08 1.80814e-20 5.02573e-07 1.89839e-21 5.70755e-07)
(6.01248e-07 -2.06461e-08 -1.50008e-21 4.70168e-07 -2.21834e-22 5.35705e-07)
(5.65198e-07 -1.51016e-08 3.7383e-21 4.39866e-07 3.94583e-22 5.02522e-07)
(5.30662e-07 -1.003e-08 1.64685e-23 4.1148e-07 -1.80021e-23 4.7106e-07)
(4.97516e-07 -5.4234e-09 -2.40374e-22 3.84838e-07 -8.21861e-23 4.41164e-07)
(4.65925e-07 -1.33847e-09 -1.94816e-20 3.59992e-07 -2.14457e-21 4.12947e-07)
(4.35939e-07 2.1539e-09 -1.90246e-20 3.36877e-07 -1.96006e-21 3.86398e-07)
(4.07408e-07 5.0197e-09 1.37888e-20 3.15239e-07 1.52658e-21 3.61305e-07)
(3.80359e-07 7.22984e-09 -1.09345e-20 2.94943e-07 -1.2249e-21 3.37658e-07)
(3.53572e-07 9.13019e-09 6.315e-21 2.75046e-07 7.11774e-22 3.1421e-07)
(3.347e-07 1.06613e-08 -4.93306e-23 2.61278e-07 -1.23978e-23 2.98241e-07)
(3.09853e-07 1.1598e-08 -2.38189e-23 2.42918e-07 -2.85814e-23 2.75913e-07)
(3.00433e-07 1.21618e-08 -1.47229e-20 2.36042e-07 -1.67186e-21 2.6895e-07)
(2.64195e-07 1.21216e-08 -2.89623e-20 2.08786e-07 -3.30287e-21 2.3529e-07)
(2.70274e-07 1.21497e-08 -4.01192e-20 2.13227e-07 -4.4228e-21 2.43715e-07)
(2.07524e-07 1.18577e-08 1.07656e-20 1.66676e-07 1.28201e-21 1.83888e-07)
(2.57106e-07 1.16834e-08 5.87881e-21 2.03428e-07 7.06435e-22 2.35354e-07)
(1.4494e-07 1.09733e-08 2.89949e-20 1.24638e-07 3.33453e-21 1.26859e-07)
(2.91339e-07 9.97054e-09 1.99435e-20 2.31074e-07 2.25905e-21 2.73282e-07)
(1.63349e-07 8.44559e-09 -7.23199e-23 1.75449e-07 -8.50502e-24 1.51242e-07)
(4.41316e-07 9.6579e-09 -3.18589e-24 3.54216e-07 -1.78196e-24 4.24673e-07)
(3.72436e-07 -1.07337e-08 -4.1956e-23 4.36176e-07 -8.61435e-24 3.66928e-07)
(6.91309e-07 2.08907e-08 -7.8006e-21 5.62016e-07 -8.01506e-22 6.73346e-07)
(0.00179538 -0.000881088 -2.51612e-18 0.00221435 -1.19878e-19 0.00203031)
(0.00305053 0.00153046 1.42694e-18 0.00513192 -1.75678e-19 0.00416613)
(0.0457379 0.0218713 1.02947e-17 0.0526747 1.11766e-18 0.0492182)
(0.150514 0.0709788 -1.81642e-17 0.167056 -1.12428e-18 0.158823)
(0.318149 0.149562 -2.73104e-17 0.350358 -3.52818e-18 0.334338)
(0.535955 0.251994 8.55061e-17 0.590546 6.97436e-18 0.563286)
(0.785239 0.369801 6.08968e-17 0.868805 7.16068e-18 0.826984)
(1.0439 0.492891 -7.15456e-17 1.16261 -6.15961e-18 1.10317)
(1.28778 0.61015 2.24206e-17 1.44707 4.26559e-19 1.36732)
(1.49136 0.70966 1.27506e-16 1.69509 1.17706e-17 1.59311)
(1.6276 0.778516 2.34463e-17 1.87645 2.79185e-18 1.75192)
(1.66705 0.802249 7.09977e-17 1.95582 7.54656e-18 1.81139)
(1.57852 0.765051 -1.00731e-16 1.89248 -6.49686e-18 1.73559)
(1.33554 0.652826 -2.99338e-16 1.64732 -2.944e-17 1.49168)
(0.932527 0.461103 8.86125e-17 1.20275 9.70659e-19 1.06799)
(0.412898 0.207839 5.19544e-16 0.598972 4.80192e-17 0.506213)
(0.114954 -0.0575425 6.29761e-17 0.188432 1.04034e-17 0.151753)
(0.60169 -0.262321 -8.15675e-17 0.566864 -7.48502e-18 0.584103)
(0.811094 -0.338905 9.88408e-18 0.711503 -8.95729e-19 0.761025)
(0.661652 -0.271008 8.18997e-17 0.562784 8.01601e-18 0.612096)
(0.318959 -0.129007 -2.38284e-17 0.266239 -2.59398e-18 0.292615)
(0.0752492 -0.0301625 2.89871e-17 0.0619947 2.99631e-18 0.0686362)
(0.0103737 -0.00414342 -1.22824e-17 0.0085037 -1.16004e-18 0.00943995)
(0.000129589 -5.28834e-05 4.65948e-19 0.0001098 3.55805e-20 0.000119795)
(0 -0 0 0 0 0)
(0 -0 0 0 0 0)
(0 -0 0 0 0 0)
(2.66865e-10 -2.70713e-15 4.41464e-29 2.66864e-10 4.10839e-30 2.66865e-10)
(7.1316e-08 -2.18798e-10 -2.62887e-25 7.12425e-08 -4.13983e-27 7.12793e-08)
(8.72274e-07 -3.64823e-08 2.3954e-22 8.60056e-07 2.39931e-23 8.66215e-07)
(2.7523e-06 -3.66393e-07 -5.89128e-21 2.62705e-06 -4.9806e-22 2.69033e-06)
(3.12223e-06 -4.89772e-07 -1.22404e-20 2.94605e-06 -1.16743e-21 3.03491e-06)
(2.47533e-06 -3.36877e-07 8.49032e-22 2.34667e-06 5.57931e-23 2.41138e-06)
(2.01453e-06 -2.42752e-07 -3.05623e-21 1.91601e-06 -2.92121e-22 1.96545e-06)
(1.87647e-06 -2.24409e-07 6.4192e-21 1.77918e-06 5.91065e-22 1.82794e-06)
(1.82639e-06 -2.24073e-07 -2.12938e-21 1.72178e-06 -1.80511e-22 1.77419e-06)
(1.73979e-06 -2.14024e-07 -6.08133e-21 1.63153e-06 -5.68473e-22 1.68578e-06)
(1.63022e-06 -1.97695e-07 -5.37858e-21 1.52146e-06 -5.07564e-22 1.57596e-06)
(1.53133e-06 -1.82994e-07 4.91284e-21 1.42155e-06 4.6166e-22 1.47657e-06)
(1.44758e-06 -1.70935e-07 9.78746e-25 1.33546e-06 -5.60524e-24 1.39164e-06)
(1.37159e-06 -1.59889e-07 -1.59026e-23 1.25668e-06 1.29366e-23 1.31425e-06)
(1.30017e-06 -1.49183e-07 -8.89064e-24 1.18253e-06 8.96716e-24 1.24147e-06)
(1.23371e-06 -1.38952e-07 -1.01903e-23 1.11336e-06 6.22976e-24 1.17365e-06)
(1.17184e-06 -1.2923e-07 -5.76747e-24 1.04877e-06 2.42223e-24 1.11041e-06)
(1.11328e-06 -1.19853e-07 -2.45162e-22 9.87608e-07 -3.16841e-23 1.05055e-06)
(1.05744e-06 -1.10741e-07 -6.66615e-21 9.2943e-07 -6.42951e-22 9.93535e-07)
(1.00454e-06 -1.01923e-07 4.95628e-23 8.74489e-07 5.33424e-23 9.39602e-07)
(9.54407e-07 -9.33937e-08 1.87805e-20 8.22684e-07 1.82927e-21 8.88626e-07)
(9.0636e-07 -8.50811e-08 2.70251e-23 7.73404e-07 -4.52564e-23 8.39952e-07)
(8.59964e-07 -7.69514e-08 4.75589e-21 7.26302e-07 4.61127e-22 7.93195e-07)
(8.1541e-07 -6.90585e-08 -1.21082e-21 6.81605e-07 -1.20813e-22 7.48561e-07)
(7.72879e-07 -6.1454e-08 8.10859e-21 6.39501e-07 8.22688e-22 7.06238e-07)
(7.32109e-07 -5.41307e-08 6.71648e-24 5.99761e-07 -2.89486e-23 6.65976e-07)
(6.92737e-07 -4.70644e-08 2.24139e-24 5.62056e-07 -8.26325e-24 6.27431e-07)
(6.54653e-07 -4.02685e-08 6.98085e-24 5.26284e-07 3.39502e-23 5.90497e-07)
(6.18021e-07 -3.37987e-08 8.55311e-21 4.92585e-07 8.00543e-22 5.55323e-07)
(5.83045e-07 -2.77211e-08 -1.89663e-20 4.61111e-07 -1.95769e-21 5.22088e-07)
(5.49811e-07 -2.20768e-08 4.79356e-21 4.31882e-07 5.63695e-22 4.9085e-07)
(5.18116e-07 -1.68595e-08 -2.82002e-23 4.04658e-07 -5.5895e-24 4.61382e-07)
(4.87801e-07 -1.20438e-08 7.37029e-23 3.79223e-07 -5.07149e-23 4.33506e-07)
(4.58702e-07 -7.62093e-09 -1.07246e-20 3.55383e-07 -1.1478e-21 4.07034e-07)
(4.30931e-07 -3.64445e-09 1.19651e-22 3.33169e-07 1.72698e-23 3.82043e-07)
(4.04591e-07 -1.90776e-10 3.59318e-21 3.12576e-07 3.40974e-22 3.58579e-07)
(3.79493e-07 2.68903e-09 -9.24919e-23 2.93338e-07 1.17211e-23 3.36398e-07)
(3.55801e-07 4.94965e-09 9.63847e-23 2.75429e-07 -2.95787e-23 3.15627e-07)
(3.31976e-07 6.91074e-09 -6.04132e-21 2.57631e-07 -6.93953e-22 2.94705e-07)
(3.15553e-07 8.50935e-09 -1.38641e-20 2.45603e-07 -1.53588e-21 2.80835e-07)
(2.92642e-07 9.57005e-09 -9.04729e-21 2.2864e-07 -9.56715e-22 2.60168e-07)
(2.85356e-07 1.02331e-08 4.5176e-21 2.23371e-07 5.66746e-22 2.55083e-07)
(2.51092e-07 1.0364e-08 2.15239e-20 1.97601e-07 2.41162e-21 2.23143e-07)
(2.59238e-07 1.04089e-08 1.93217e-20 2.03648e-07 2.08787e-21 2.33411e-07)
(1.98268e-07 1.03787e-08 -2.7474e-23 1.58381e-07 -6.93643e-23 1.75114e-07)
(2.4955e-07 1.01091e-08 -2.56452e-20 1.96603e-07 -2.90908e-21 2.28159e-07)
(1.39355e-07 9.91972e-09 -5.52706e-23 1.19184e-07 2.63495e-23 1.21344e-07)
(2.86938e-07 8.54621e-09 -1.92606e-20 2.27016e-07 -2.1202e-21 2.69063e-07)
(1.61842e-07 7.89277e-09 1.46968e-20 1.7337e-07 1.76056e-21 1.49375e-07)
(4.39996e-07 8.41866e-09 -7.60569e-23 3.5304e-07 -9.37207e-24 4.23664e-07)
(3.74785e-07 -1.09025e-08 -6.06516e-20 4.37978e-07 -7.55642e-21 3.68492e-07)
(6.94396e-07 2.01977e-08 7.43147e-21 5.6464e-07 7.79269e-22 6.76894e-07)
(0.000338354 -0.000162799 -4.64404e-22 0.000392748 -1.34421e-20 0.000369606)
(0.00108876 -0.000532964 2.39632e-18 0.00133564 2.06722e-19 0.00122354)
(0.00107114 0.000287829 3.7566e-18 0.00263441 5.59912e-19 0.00184752)
(0.0251043 0.0122641 -7.12033e-18 0.0309177 -4.34107e-19 0.028004)
(0.101379 0.0485085 -1.23422e-17 0.11691 -1.29873e-18 0.109219)
(0.239552 0.113997 1.49698e-19 0.27218 -1.30667e-19 0.255989)
(0.431338 0.205015 1.91675e-19 0.488618 -4.46215e-19 0.460079)
(0.659161 0.313417 6.07071e-17 0.747539 6.00424e-18 0.703412)
(0.900739 0.428809 -5.0992e-17 1.02493 -5.06309e-18 0.962874)
(1.13106 0.539465 1.39935e-16 1.29361 1.30822e-17 1.21236)
(1.32411 0.633125 -4.74349e-17 1.52497 -3.38806e-18 1.42453)
(1.45428 0.697595 5.79328e-19 1.6902 -1.46043e-18 1.57218)
(1.49715 0.72106 1.71877e-16 1.76069 1.61017e-17 1.62883)
(1.43025 0.692345 -3.38534e-18 1.7083 1.87869e-18 1.56921)
(1.23567 0.602083 -1.60453e-16 1.50767 -1.48023e-17 1.37168)
(0.908001 0.446539 -4.14259e-18 1.14555 1.30712e-19 1.02688)
(0.47089 0.235326 -1.60626e-16 0.641456 -1.69337e-17 0.55634)
(0.04717 -3.26809e-05 1.62178e-16 0.124427 1.31125e-17 0.0859283)
(0.467671 -0.205357 9.69576e-17 0.446256 9.69958e-18 0.45698)
(0.760487 -0.31775 5.90423e-17 0.666993 4.65779e-18 0.713655)
(0.731344 -0.299048 1.43191e-16 0.620495 1.60068e-17 0.675767)
(0.452983 -0.182761 -1.73156e-16 0.376787 -1.69218e-17 0.414825)
(0.156112 -0.0623822 7.5388e-17 0.128056 7.13992e-18 0.142098)
(0.0166521 -0.00661268 -1.61218e-17 0.0135397 -1.39147e-18 0.015097)
(0.00216363 -0.000864571 1.31063e-21 0.00177549 -4.04006e-20 0.00196812)
(1.8552e-06 -1.70365e-07 1.34356e-25 1.80757e-06 6.27479e-24 1.83116e-06)
(0 -0 -0 0 -0 0)
(0 -0 -0 0 -0 0)
(0 -0 0 0 0 0)
(3.28122e-09 -4.88476e-13 -9.67232e-28 3.28103e-09 -9.14644e-29 3.28112e-09)
(1.12575e-08 -6.62903e-12 6.45674e-27 1.1255e-08 1.72697e-28 1.12563e-08)
(1.61915e-06 -1.43431e-07 1.9452e-21 1.56438e-06 1.8382e-22 1.59205e-06)
(2.90175e-06 -4.5843e-07 7.88427e-25 2.72031e-06 1.71241e-24 2.81142e-06)
(2.56721e-06 -3.86769e-07 8.33619e-21 2.40539e-06 8.0636e-22 2.4864e-06)
(1.94224e-06 -2.44633e-07 -5.28162e-21 1.83382e-06 -4.87952e-22 1.88807e-06)
(1.67389e-06 -1.96399e-07 1.20503e-21 1.5816e-06 1.05616e-22 1.6278e-06)
(1.61241e-06 -1.93189e-07 1.49018e-24 1.51563e-06 -5.61524e-24 1.56411e-06)
(1.55701e-06 -1.89964e-07 6.67713e-21 1.45489e-06 6.36122e-22 1.50607e-06)
(1.46319e-06 -1.77029e-07 -1.83307e-21 1.36055e-06 -1.66979e-22 1.41198e-06)
(1.36466e-06 -1.62302e-07 2.32761e-21 1.26279e-06 2.22203e-22 1.31382e-06)
(1.28135e-06 -1.50266e-07 1.20963e-21 1.17891e-06 1.26912e-22 1.23022e-06)
(1.21035e-06 -1.40198e-07 -2.36309e-24 1.10627e-06 1.45745e-23 1.15839e-06)
(1.14542e-06 -1.30762e-07 6.60578e-21 1.03946e-06 6.48165e-22 1.09252e-06)
(1.08415e-06 -1.21564e-07 -2.13616e-24 9.76414e-07 -5.94125e-24 1.03035e-06)
(1.02618e-06 -1.12654e-07 2.19968e-22 9.16735e-07 4.04703e-23 9.71517e-07)
(9.71543e-07 -1.041e-07 4.79152e-21 8.60458e-07 4.65619e-22 9.16055e-07)
(9.20387e-07 -9.5922e-08 1.05865e-23 8.07754e-07 -3.19488e-23 8.64119e-07)
(8.7245e-07 -8.80796e-08 -3.70837e-23 7.58439e-07 4.27457e-23 8.15486e-07)
(8.27011e-07 -8.04834e-08 1.00156e-20 7.11884e-07 9.91472e-22 7.69481e-07)
(7.83541e-07 -7.30822e-08 -4.51538e-21 6.67647e-07 -4.81766e-22 7.25622e-07)
(7.42099e-07 -6.59044e-08 1.14715e-23 6.25831e-07 -2.71675e-23 6.83988e-07)
(7.02848e-07 -5.89934e-08 -7.75942e-21 5.8662e-07 -7.70162e-22 6.44754e-07)
(6.65569e-07 -5.23411e-08 5.87794e-24 5.49829e-07 2.49685e-23 6.07716e-07)
(6.29865e-07 -4.5915e-08 1.96844e-24 5.15109e-07 1.87691e-23 5.72502e-07)
(5.95532e-07 -3.97125e-08 7.91905e-21 4.82286e-07 8.25143e-22 5.38921e-07)
(5.62657e-07 -3.37743e-08 1.03522e-21 4.51445e-07 1.0423e-22 5.07058e-07)
(5.31427e-07 -2.81632e-08 1.66127e-21 4.22746e-07 1.36438e-22 4.77086e-07)
(5.01927e-07 -2.29203e-08 -3.16651e-21 3.96229e-07 -3.6955e-22 4.49072e-07)
(4.73964e-07 -1.80471e-08 -8.56682e-21 3.71678e-07 -8.11487e-22 4.2281e-07)
(4.4732e-07 -1.35158e-08 2.55188e-20 3.48839e-07 2.78153e-21 3.98068e-07)
(4.21797e-07 -9.31743e-09 1.04475e-20 3.27499e-07 1.08291e-21 3.74635e-07)
(3.97445e-07 -5.49525e-09 1.76758e-20 3.07654e-07 1.90983e-21 3.52536e-07)
(3.74409e-07 -2.13035e-09 2.04687e-20 2.89354e-07 2.13856e-21 3.31872e-07)
(3.52449e-07 7.12835e-10 -1.58637e-20 2.72307e-07 -1.72543e-21 3.12354e-07)
(3.31872e-07 2.97687e-09 2.1954e-20 2.56611e-07 2.43301e-21 2.94253e-07)
(3.10854e-07 4.95358e-09 -5.68667e-21 2.40799e-07 -6.89773e-22 2.75723e-07)
(2.96755e-07 6.57998e-09 -1.26463e-23 2.30415e-07 2.88269e-23 2.6384e-07)
(2.75724e-07 7.72926e-09 4.75868e-21 2.14796e-07 5.07979e-22 2.44784e-07)
(2.70424e-07 8.46585e-09 -3.98299e-21 2.11012e-07 -4.18905e-22 2.41434e-07)
(2.38163e-07 8.73911e-09 1.69046e-20 1.86737e-07 1.94721e-21 2.11247e-07)
(2.48241e-07 8.78075e-09 1.28618e-20 1.9428e-07 1.43868e-21 2.23219e-07)
(1.89145e-07 8.97668e-09 -2.24888e-24 1.50349e-07 1.78417e-24 1.66549e-07)
(2.41974e-07 8.6048e-09 1.64969e-20 1.89916e-07 1.86046e-21 2.20998e-07)
(1.33745e-07 8.8954e-09 3.84802e-24 1.13818e-07 -8.56886e-23 1.15889e-07)
(2.82541e-07 7.16342e-09 -5.57521e-20 2.2306e-07 -6.37016e-21 2.64861e-07)
(1.60155e-07 7.33207e-09 -1.40445e-20 1.71283e-07 -1.63074e-21 1.47466e-07)
(4.38748e-07 7.17602e-09 -3.59736e-20 3.51905e-07 -3.97884e-21 4.22639e-07)
(3.7703e-07 -1.10417e-08 6.1102e-20 4.39947e-07 7.62059e-21 3.70186e-07)
(6.97782e-07 1.93283e-08 -7.09251e-21 5.67282e-07 -7.34941e-22 6.80492e-07)
(0 -0 -0 0 0 0)
(6.82993e-05 -3.28877e-05 1.60355e-22 7.93976e-05 9.09746e-22 7.48949e-05)
(0.0002232 -0.000108675 -1.78154e-19 0.000270771 -2.20541e-20 0.000247703)
(0.000955175 -0.000477272 2.33252e-18 0.00154619 1.86998e-19 0.00124147)
(0.00639868 0.00321656 1.32639e-18 0.00933063 3.05759e-19 0.0078372)
(0.047131 0.0228838 -1.19733e-17 0.0568697 -1.14045e-18 0.0519733)
(0.14476 0.0694852 1.23129e-17 0.168546 9.62828e-19 0.156665)
(0.302389 0.144659 1.13864e-19 0.348679 1.39818e-19 0.325593)
(0.506941 0.242364 -1.40399e-19 0.58356 4.08817e-20 0.545321)
(0.737225 0.352649 1.27266e-18 0.84997 2.11822e-19 0.793649)
(0.967467 0.463329 -4.58792e-19 1.11916 -5.9054e-19 1.04334)
(1.16948 0.561009 7.95728e-17 1.35932 7.72718e-18 1.26441)
(1.31494 0.632156 6.71143e-19 1.53807 4.9228e-19 1.42649)
(1.37811 0.664358 -2.89436e-18 1.62528 -1.20981e-18 1.50164)
(1.33782 0.647244 1.1845e-16 1.59514 1.16488e-17 1.46642)
(1.17984 0.573541 4.96595e-18 1.42843 1.0615e-18 1.3041)
(0.901591 0.44133 7.8393e-17 1.11788 6.35308e-18 1.00977)
(0.52102 0.258204 1.38236e-16 0.678944 1.37629e-17 0.600091)
(0.0968497 0.0472005 4.38358e-19 0.174056 1.57507e-18 0.135603)
(0.341154 -0.15072 -7.70981e-17 0.329156 -6.39294e-18 0.335287)
(0.678214 -0.282791 -8.08572e-17 0.592865 -1.06583e-17 0.635538)
(0.749353 -0.305659 3.00533e-16 0.633416 3.01456e-17 0.691282)
(0.5542 -0.223039 -2.16727e-16 0.459304 -1.93052e-17 0.506697)
(0.254947 -0.101607 7.27714e-19 0.20836 -5.03878e-19 0.231647)
(0.060979 -0.0241381 -1.22215e-17 0.0493648 -1.1335e-18 0.0551683)
(0.000506314 -0.000200529 -4.74539e-22 0.000410323 -8.75891e-22 0.000458151)
(0.000152062 -6.19868e-05 -6.71759e-20 0.000128462 -6.4933e-21 0.000140259)
(0 -0 -0 0 0 0)
(0 -0 -0 0 -0 0)
(0 -0 -0 0 -0 0)
(1.45737e-11 -1.01175e-17 8.76027e-35 1.45737e-11 -7.90823e-35 1.45737e-11)
(3.73565e-08 -7.69926e-11 -2.06426e-26 3.73239e-08 -1.41735e-27 3.73403e-08)
(4.26347e-07 -1.12857e-08 -3.32238e-23 4.21665e-07 -2.48128e-24 4.24008e-07)
(1.96068e-06 -2.38165e-07 -6.79848e-21 1.86034e-06 -6.65907e-22 1.91034e-06)
(2.43631e-06 -3.76122e-07 7.83596e-21 2.26934e-06 7.35071e-22 2.3526e-06)
(1.94402e-06 -2.62727e-07 -1.55695e-21 1.81997e-06 -1.39738e-22 1.88198e-06)
(1.55648e-06 -1.8464e-07 2.28854e-24 1.46408e-06 -4.97236e-24 1.51035e-06)
(1.4322e-06 -1.67637e-07 -1.31883e-21 1.34336e-06 -1.23873e-22 1.38788e-06)
(1.39287e-06 -1.67903e-07 -2.74993e-21 1.29821e-06 -2.67982e-22 1.34565e-06)
(1.32504e-06 -1.6073e-07 -1.43164e-24 1.22801e-06 -8.64772e-25 1.27661e-06)
(1.23185e-06 -1.47038e-07 -7.42218e-24 1.13629e-06 1.41114e-23 1.18415e-06)
(1.14447e-06 -1.33965e-07 4.08092e-21 1.05035e-06 4.01082e-22 1.09748e-06)
(1.07265e-06 -1.23601e-07 -5.15588e-21 9.78492e-07 -5.01113e-22 1.02563e-06)
(1.01117e-06 -1.14825e-07 -1.2608e-21 9.16048e-07 -1.16084e-22 9.63666e-07)
(9.54328e-07 -1.06531e-07 -2.89433e-24 8.58063e-07 7.05041e-24 9.0625e-07)
(9.00296e-07 -9.84306e-08 -4.33892e-24 8.02995e-07 4.25515e-24 8.51696e-07)
(8.49531e-07 -9.06389e-08 9.2745e-24 7.51264e-07 -1.74353e-23 8.00444e-07)
(8.02418e-07 -8.32398e-08 -1.01146e-23 7.03211e-07 -1.97485e-23 7.52856e-07)
(7.58423e-07 -7.61654e-08 -9.56401e-21 6.58356e-07 -9.12168e-22 7.08426e-07)
(7.16861e-07 -6.93316e-08 1.1756e-20 6.16118e-07 1.21235e-21 6.66522e-07)
(6.77555e-07 -6.27254e-08 1.11296e-21 5.76387e-07 7.11362e-23 6.27001e-07)
(6.40627e-07 -5.63793e-08 7.05252e-24 5.39313e-07 -3.44857e-24 5.9e-07)
(6.05916e-07 -5.02888e-08 8.09332e-24 5.04769e-07 -2.60629e-24 5.55371e-07)
(5.7302e-07 -4.44147e-08 1.725e-24 4.72402e-07 -3.27169e-23 5.22739e-07)
(5.41647e-07 -3.87396e-08 -7.60795e-21 4.41968e-07 -7.68935e-22 4.91834e-07)
(5.1181e-07 -3.32895e-08 -1.00003e-21 4.13495e-07 -7.23199e-23 4.62676e-07)
(4.83653e-07 -2.81158e-08 4.82502e-22 3.87117e-07 7.7181e-23 4.35404e-07)
(4.57282e-07 -2.32634e-08 8.66236e-21 3.62913e-07 9.22023e-22 4.10113e-07)
(4.32489e-07 -1.87335e-08 3.24481e-21 3.40666e-07 2.0029e-22 3.86587e-07)
(4.09033e-07 -1.45002e-08 -3.46634e-20 3.20116e-07 -3.69288e-21 3.64583e-07)
(3.86669e-07 -1.05513e-08 -6.1126e-21 3.01015e-07 -5.43057e-22 3.43847e-07)
(3.65368e-07 -6.91637e-09 6.95752e-21 2.83306e-07 6.85388e-22 3.24339e-07)
(3.45329e-07 -3.68144e-09 -3.35567e-20 2.67099e-07 -3.59905e-21 3.0622e-07)
(3.26245e-07 -9.13194e-10 1.19234e-20 2.5207e-07 1.35795e-21 2.89146e-07)
(3.08539e-07 1.31075e-09 -6.07529e-21 2.38417e-07 -6.55926e-22 2.73502e-07)
(2.90198e-07 3.26875e-09 6.4674e-21 2.24508e-07 6.74296e-22 2.57259e-07)
(2.78299e-07 4.88381e-09 -2.01258e-20 2.15678e-07 -2.22849e-21 2.47252e-07)
(2.59106e-07 6.09155e-09 7.42353e-21 2.01369e-07 8.88417e-22 2.29773e-07)
(2.55638e-07 6.8711e-09 3.80171e-21 1.98944e-07 4.07294e-22 2.2801e-07)
(2.25406e-07 7.26458e-09 3.33097e-21 1.76177e-07 3.64582e-22 1.99604e-07)
(2.37258e-07 7.27924e-09 -1.44009e-20 1.85093e-07 -1.61624e-21 2.13123e-07)
(1.80168e-07 7.67267e-09 -2.17767e-24 1.42585e-07 1.23109e-24 1.58214e-07)
(2.34396e-07 7.17349e-09 -1.57047e-20 1.83372e-07 -1.76152e-21 2.13891e-07)
(1.28135e-07 7.92638e-09 -8.69557e-24 1.08563e-07 1.05859e-22 1.10532e-07)
(2.7795e-07 5.81029e-09 7.059e-20 2.19032e-07 7.95959e-21 2.60469e-07)
(1.58247e-07 6.8046e-09 -1.96799e-23 1.69145e-07 -3.89513e-23 1.4549e-07)
(4.37918e-07 5.90056e-09 3.43866e-20 3.51074e-07 3.76216e-21 4.21916e-07)
(3.79206e-07 -1.11083e-08 -7.41747e-20 4.42164e-07 -9.23217e-21 3.72062e-07)
(7.01455e-07 1.82893e-08 5.62955e-23 5.69939e-07 5.64444e-24 6.84124e-07)
(0 -0 -0 0 -0 0)
(0 -0 0 0 -0 0)
(5.14818e-07 -2.14432e-08 1.07684e-22 5.24173e-07 1.14641e-23 5.19602e-07)
(0.000135938 -6.56416e-05 -2.25537e-19 0.000162184 -1.75454e-20 0.000148205)
(0.000458499 -0.000224096 -3.80451e-22 0.000570402 -1.88561e-20 0.000511099)
(0.000573711 -8.67789e-05 2.5672e-18 0.00147556 3.29585e-19 0.00101304)
(0.0137279 0.00680453 -1.75325e-17 0.0179417 -1.59706e-18 0.0158187)
(0.0685134 0.0331617 4.32239e-21 0.0818046 -3.80378e-19 0.0751553)
(0.183348 0.0881293 -5.04981e-20 0.214316 2.43404e-20 0.198865)