/*--------------------------------*- C++ -*----------------------------------*\
| =========                 |                                                 |
| \\      /  F ield         | OpenFOAM: The Open Source CFD Toolbox           |
|  \\    /   O peration     | Version:  2506                                  |
|   \\  /    A nd           | Website:  www.openfoam.com                      |
|    \\/     M anipulation  |                                                 |
\*---------------------------------------------------------------------------*/
FoamFile
{
    version     2.0;
    format      ascii;
    arch        "LSB;label=32;scalar=64";
    class       volScalarField;
    location    "150";
    object      turbulenceProperties:L;
}
// * * * * * * * * * * * * * * * * * * * * * * * * * * * * * * * * * * * * * //

dimensions      [0 1 0 0 0 0 0];

internalField   nonuniform List<scalar> 
1340
(
0.227628
0.265397
0.225925
0.268352
0.269937
0.225939
0.41681
0.27001
0.273123
0.225455
0.428688
0.323319
0.419116
0.271309
0.275902
0.224653
0.360182
0.336244
0.434955
0.326123
0.421537
0.272483
0.278238
0.223848
0.303458
0.323329
0.32548
0.367004
0.340675
0.441831
0.328922
0.423965
0.273497
0.280001
0.223107
0.280749
0.290247
0.302282
0.309758
0.330155
0.331193
0.374324
0.345318
0.44927
0.331654
0.426429
0.274319
0.281182
0.222442
0.246469
0.256011
0.26606
0.27677
0.288203
0.297489
0.309642
0.316547
0.337478
0.337281
0.382124
0.350164
0.457295
0.334331
0.428911
0.274988
0.281896
0.22176
0.214078
0.221475
0.229247
0.237419
0.246023
0.25503
0.264481
0.274414
0.284946
0.296289
0.30533
0.317602
0.323875
0.34535
0.343786
0.390463
0.355237
0.465933
0.337
0.431366
0.275557
0.282236
0.221165
0.180171
0.185475
0.191012
0.196832
0.202983
0.209475
0.216295
0.223421
0.230856
0.238637
0.2468
0.255374
0.264335
0.273694
0.283505
0.293835
0.30506
0.313818
0.326217
0.331792
0.353822
0.350738
0.399359
0.360553
0.475189
0.33968
0.433801
0.27605
0.282097
0.220593
0.136467
0.140266
0.14415
0.148148
0.152185
0.156248
0.160412
0.16475
0.169258
0.173906
0.17871
0.183736
0.189018
0.194536
0.200272
0.206268
0.212575
0.219216
0.22617
0.233411
0.240924
0.248751
0.256924
0.265486
0.274408
0.283679
0.293361
0.303466
0.314548
0.322982
0.335509
0.340317
0.362904
0.358142
0.408816
0.366106
0.485039
0.342373
0.436269
0.27648
0.281703
0.220045
1.41065
3.64319
2.17132
1.89177
1.77306
1.7156
1.69078
1.6863
1.69574
1.71599
1.74687
1.79263
1.86564
1.99661
2.27192
3.06944
5.00751
2.16985
1.49526
1.14605
0.884809
0.634005
0.48104
0.15036
0
0
0
1.29777
1.37537
0.212981
0.10795
0.103643
0.114276
0.125709
0.130337
0.132448
0.135936
0.140552
0.145172
0.14953
0.15387
0.158311
0.162813
0.167379
0.172078
0.176942
0.181945
0.187087
0.192427
0.198014
0.203829
0.209844
0.216092
0.222628
0.229482
0.236636
0.244049
0.251693
0.259604
0.267821
0.276393
0.285291
0.294478
0.304027
0.31388
0.324788
0.332849
0.3455
0.349465
0.372615
0.366007
0.418813
0.371918
0.495494
0.345133
0.438716
0.276878
0.281021
0.219519
0.501634
1.10707
3.75193
2.21977
1.90585
1.78329
1.73
1.71377
1.72188
1.74832
1.79041
1.84816
1.92544
2.03344
2.20045
2.50465
3.24987
7.62185
2.91646
1.93086
1.47709
1.18039
0.90857
0.52167
0.455411
0.131051
0
0
0
10.9958
5.14735
0.140795
0.107922
0.113952
0.12853
0.138067
0.140963
0.143801
0.148511
0.153904
0.159026
0.163884
0.168755
0.173766
0.178943
0.184274
0.189726
0.195297
0.201046
0.207028
0.213232
0.219621
0.226212
0.233062
0.240211
0.247641
0.255298
0.263139
0.271186
0.279487
0.288095
0.296988
0.306096
0.315509
0.32508
0.335777
0.343407
0.356176
0.359225
0.382924
0.374313
0.429324
0.377971
0.506568
0.347934
0.441311
0.277266
0.280321
0.218976
0
0.255395
0.509044
2.03924
2.51663
1.97438
1.81408
1.75003
1.73047
1.73894
1.76907
1.81865
1.88847
1.9828
2.11258
2.30404
2.62625
3.32317
6.6089
3.82577
2.39849
1.82555
1.47778
1.19604
0.907505
0.172769
0.23958
0
0
0
0.0167945
2.0926
0.334393
0.127547
0.117676
0.12944
0.1434
0.149558
0.152081
0.156241
0.162171
0.168386
0.17416
0.179673
0.185279
0.191116
0.197133
0.203261
0.209533
0.216015
0.222715
0.229589
0.236636
0.243907
0.251451
0.25925
0.267244
0.275359
0.283611
0.292044
0.300721
0.309633
0.318664
0.327931
0.337191
0.347619
0.354751
0.367617
0.369671
0.3939
0.383123
0.440373
0.38427
0.518264
0.35091
0.444112
0.277538
0.279584
0.218419
0
0
0.275578
0.416293
0.836657
3.16162
2.15639
1.87693
1.78631
1.75619
1.75857
1.7848
1.83275
1.90356
2.00199
2.13875
2.33778
2.65875
3.29186
5.45172
5.1144
2.89672
2.17455
1.7711
1.47563
1.1729
0.705839
0.608917
0
0
0
0
8.63125
10.6844
0.16182
0.121417
0.12829
0.145551
0.159442
0.16419
0.166622
0.17118
0.177532
0.184308
0.190869
0.197315
0.203872
0.210602
0.21751
0.22461
0.231912
0.239375
0.246987
0.254791
0.26283
0.271095
0.279515
0.287993
0.296524
0.305139
0.313928
0.322879
0.331849
0.340968
0.349896
0.360024
0.366591
0.379551
0.380545
0.405334
0.392196
0.451879
0.390649
0.531355
0.353722
0.447867
0.277827
0.27873
0.217659
1.0014
0.000206409
0
0
0.113148
0.532834
1.18941
3.00499
2.028
1.85411
1.80087
1.79158
1.80899
1.84909
1.91294
2.00505
2.13525
2.32423
2.61983
3.15895
4.57727
8.29446
3.51931
2.54847
2.06554
1.73943
1.44534
1.10846
0.865848
0.360182
0
0
0
0.0014404
2.86012
0.496194
0.149975
0.131357
0.138007
0.153711
0.169805
0.178685
0.183377
0.188587
0.195353
0.202915
0.210532
0.218051
0.225647
0.233452
0.241499
0.24971
0.258038
0.266516
0.275188
0.284054
0.293024
0.301986
0.31089
0.319759
0.328705
0.3377
0.346599
0.355542
0.364043
0.373778
0.379648
0.392602
0.39243
0.417612
0.402051
0.463616
0.397609
0.543345
0.357038
0.450803
0.278314
0.277917
0.217226
0.128134
2.54955
9.41193
0
0
0
0.112107
1.20377
1.40619
2.84766
2.03207
1.88329
1.84419
1.84548
1.87169
1.92065
1.99509
2.10229
2.25638
2.48711
2.86516
3.61497
6.20061
5.72621
3.35437
2.58771
2.16672
1.86628
1.57309
1.2157
0.944782
0.381415
0.116363
0
0
1.2216
10.185
1.76265
0.307785
0.168484
0.153955
0.164222
0.182122
0.195802
0.203012
0.20908
0.21672
0.225482
0.234412
0.243265
0.252255
0.26145
0.27079
0.280227
0.289798
0.299516
0.309273
0.318938
0.328385
0.337637
0.346787
0.355837
0.364616
0.373277
0.381202
0.390243
0.395256
0.407839
0.406549
0.431254
0.413975
0.474834
0.40712
0.551313
0.364509
0.461688
0.284372
0.28529
0.22512
0.127014
0.142828
0.225686
1.62026
0.00819132
0
0
0.000746098
0.112475
0.312761
0.572884
2.6358
2.24377
1.96486
1.90293
1.89981
1.92608
1.97684
2.05459
2.16725
2.33007
2.57583
2.9812
3.79096
6.66348
5.99478
3.56292
2.77978
2.35136
2.04408
1.74814
1.39044
0.483945
0.509666
0.373704
0
0
0
2.23223
2.75263
0.446193
0.190467
0.16973
0.181881
0.202266
0.21669
0.224533
0.23226
0.241955
0.252582
0.263212
0.273751
0.28442
0.295214
0.306105
0.317057
0.327971
0.33867
0.348949
0.358781
0.368242
0.377372
0.385983
0.394231
0.401388
0.409483
0.413312
0.425323
0.422558
0.446866
0.426912
0.4881
0.415959
0.561351
0.368662
0.461747
0.284912
0.282259
0.224321
0.130598
0.133109
0.142672
0.160827
0.294619
2.16619
0.00407491
0
0
0
0.408679
0.125135
0.525666
1.22131
2.79228
2.07682
1.96037
1.94697
1.97309
2.02708
2.11032
2.23123
2.40669
2.67386
3.12077
4.03719
7.71734
5.80424
3.63739
2.88402
2.46102
2.14963
1.83633
1.43636
0.238036
0.394741
2.47855
0
0
0
1.1091
2.1622
0.329993
0.188118
0.186302
0.206703
0.229165
0.241825
0.250276
0.260605
0.272928
0.285646
0.298189
0.310672
0.32326
0.335882
0.348366
0.360466
0.371901
0.382548
0.392425
0.401628
0.409971
0.417637
0.42378
0.430697
0.432984
0.44421
0.439607
0.463592
0.440288
0.502485
0.424359
0.574347
0.371912
0.464359
0.284623
0.280158
0.223625
0.12999
0.130503
0.136409
0.142282
0.164239
0.433171
3.24925
0.000640583
0
0
0
0
0.105202
0.294844
0.547251
2.96284
2.21368
2.01125
1.98638
2.01449
2.07509
2.16771
2.30174
2.49701
2.79662
3.30907
4.41656
10.6405
5.37597
3.61102
2.92059
2.51204
2.19323
1.84442
1.32087
0.15237
0.298338
0
0
0
0
9.36934
4.71047
0.262112
0.199038
0.211537
0.238212
0.258489
0.269798
0.281027
0.294967
0.310017
0.324815
0.339362
0.353912
0.368303
0.382151
0.395034
0.406715
0.417136
0.426435
0.434452
0.441445
0.446447
0.452069
0.452653
0.462863
0.456352
0.479848
0.453234
0.516086
0.432092
0.58631
0.374456
0.467543
0.283951
0.279126
0.223013
0.122114
0.123812
0.132021
0.135236
0.136994
0.14484
0.172011
1.18298
7.95038
0.000113706
0
0
0
0
0.351323
0.16564
0.183792
2.05647
2.34695
2.04916
2.01835
2.05308
2.12445
2.23126
2.38381
2.60643
2.95261
3.56456
5.01713
24.7549
4.88663
3.51278
2.90008
2.50873
2.17363
1.79867
1.04197
0.923186
0
0
0
0
0.0101208
2.82921
0.425091
0.219743
0.217999
0.24539
0.273759
0.290371
0.303225
0.318722
0.33615
0.353466
0.370183
0.386539
0.40235
0.416973
0.429905
0.440971
0.450349
0.457957
0.464183
0.467968
0.472214
0.47104
0.479937
0.471637
0.494296
0.464885
0.527282
0.438717
0.594244
0.376343
0.470352
0.282966
0.279113
0.222312
0.114126
0.116855
0.127611
0.133526
0.137414
0.139977
0.142355
0.156277
0.206052
3.07498
8.37569
5.44025e-05
0
0
0
0
7.45327
0.128868
0.610036
1.60411
2.41992
2.06863
2.04521
2.09312
2.17992
2.30559
2.48295
2.74284
3.15621
3.92876
6.11973
8.89241
4.41612
3.36668
2.83165
2.45399
2.07929
1.60873
1.33125
0.33155
0
0
0
0
9.1739
2.87185
0.293452
0.233621
0.254617
0.289337
0.312224
0.327084
0.344029
0.364047
0.384358
0.403488
0.421426
0.437981
0.452526
0.464568
0.474189
0.481403
0.48682
0.489349
0.492187
0.489257
0.496722
0.486566
0.508312
0.476219
0.538033
0.445017
0.601435
0.377913
0.473795
0.281917
0.280499
0.221424
0.109941
0.113413
0.126182
0.133606
0.139537
0.144952
0.149664
0.153236
0.158331
0.178845
0.246874
4.78668
4.58716
0.000133427
0
0
0
0
0
0.120189
0.561471
1.44068
2.40629
2.07628
2.07319
2.13959
2.24629
2.39562
2.60525
2.91613
3.42982
4.48375
8.94095
6.27765
4.01585
3.20715
2.73309
2.35406
1.91741
1.08627
1.01426
0
0
0
0
0.0292708
2.60433
0.392595
0.252548
0.261728
0.302709
0.337742
0.355279
0.371359
0.39208
0.414735
0.436001
0.454661
0.470441
0.483122
0.492699
0.499249
0.503599
0.504864
0.506227
0.501704
0.507422
0.496104
0.516018
0.483129
0.541622
0.448362
0.598592
0.378172
0.47693
0.280589
0.284542
0.219451
0.109715
0.11425
0.129597
0.138619
0.145793
0.15268
0.159813
0.166698
0.17286
0.177827
0.185272
0.212513
0.300348
3.24059
6.51397
0.00017584
0
0
0
0
0
0.115906
0.566988
1.50514
2.36791
2.09356
2.115
2.203
2.33361
2.51327
2.76742
3.15667
3.84723
5.55768
15.3091
4.95831
3.63927
3.02048
2.60408
2.19799
1.71316
1.5774
0
0
0
0
0
5.39662
0.92337
0.298172
0.267834
0.300454
0.349956
0.383156
0.402963
0.423703
0.447308
0.470332
0.489964
0.505274
0.516304
0.523318
0.527398
0.527833
0.528266
0.522484
0.527391
0.513882
0.533894
0.497401
0.558875
0.45711
0.619069
0.381199
0.489396
0.280679
0.292561
0.216345
0.113708
0.119945
0.140016
0.152227
0.1623
0.172218
0.182549
0.19334
0.204491
0.214968
0.223953
0.23116
0.242013
0.276985
0.384702
3.13086
5.65237
0.000472068
0
0
0
0
0
0.118043
0.64477
1.99552
2.32207
2.11993
2.16596
2.275
2.42871
2.63861
2.94038
3.42341
4.37124
7.63527
6.85754
4.14323
3.23069
2.68268
2.20125
1.42852
1.35362
1.0939
0.998148
0.414182
0.183024
0
0.321992
3.99995
0.692917
0.312731
0.314505
0.357045
0.401485
0.431956
0.454659
0.475231
0.49305
0.506336
0.514804
0.519112
0.52073
0.519618
0.518371
0.511777
0.514558
0.502698
0.518781
0.48753
0.539659
0.449273
0.596083
0.375685
0.505417
0.2775
0.307225
0.205868
0.148536
0.162002
0.201696
0.228351
0.2518
0.275869
0.30134
0.327977
0.355152
0.381744
0.405918
0.423332
0.430895
0.427477
0.421787
0.438626
0.535235
2.10583
6.20284
0
0
0
0
0
0
0.137493
0.545311
1.30544
2.46984
2.1999
2.24104
2.35679
2.52243
2.74769
3.06953
3.57811
4.551
7.61245
8.26915
4.71758
3.67071
3.0919
2.7018
2.42287
2.16231
1.69015
0.739362
0.349426
0
0
5.21793
5.89834
0.48769
0.364914
0.380674
0.417566
0.453732
0.485424
0.51322
0.536355
0.553602
0.564542
0.570585
0.571616
0.572512
0.56706
0.573221
0.556085
0.579672
0.534644
0.615139
0.483752
0.745736
0.396134
0.586838
0.290471
0.308465
0.207976
)
;

boundaryField
{
    inlet
    {
        type            calculated;
        value           nonuniform List<scalar> 
27
(
0.09042
0.0903926
0.0903192
0.0902089
0.0900876
0.0899605
0.0898238
0.0896786
0.0895255
0.0893713
0.089217
0.089066
0.0889219
0.0887888
0.0886708
0.0885725
0.0884925
0.088729
0.0887301
0.0887725
0.0888784
0.0890571
0.0893298
0.0897087
0.0902493
0.0907843
0.0919317
)
;
    }
    outlet
    {
        type            calculated;
        value           nonuniform List<scalar> 
78
(
0.147237
0.160308
0.198537
0.223851
0.245819
0.268044
0.291183
0.314926
0.338628
0.361256
0.381261
0.395073
0.400487
0.396891
0.392373
0.409663
0.502219
1.98478
6.7305
0
0
0
0
0
0
0.136178
0.540354
1.29767
2.54609
2.21602
2.24901
2.36159
2.52524
2.74863
3.06799
3.57207
4.53295
7.52162
8.47814
4.75258
3.68633
3.10016
2.70557
2.42231
2.15514
1.67548
0.731535
0.346351
0
0
5.3466
5.84345
0.481597
0.360726
0.377077
0.4151
0.453635
0.489365
0.523053
0.553714
0.579325
0.598287
0.611324
0.616868
0.622528
0.617933
0.629184
0.60309
0.640685
0.571658
0.699948
0.504542
1.08922
0.405494
0.632057
0.296172
0.309277
0.213859
)
;
    }
    walls
    {
        type            calculated;
        value           nonuniform List<scalar> 0();
    }
    frontAndBack
    {
        type            empty;
    }
    procBoundary7to3
    {
        type            processor;
        value           nonuniform List<scalar> 
16
(
0.138015
8.13963
0
0.975562
0.14391
0.117743
0.129199
0.131708
0.126069
0.126069
0.11614
0.107051
0.101485
0.0999376
0.101115
0.12722
)
;
    }
    procBoundary7to6
    {
        type            processor;
        value           nonuniform List<scalar> 
91
(
0.228107
0.260989
0.260989
0.265788
0.265788
0.414805
0.414805
0.423071
0.32056
0.32056
0.353946
0.332091
0.332091
0.297642
0.317006
0.320155
0.320155
0.273853
0.283537
0.295461
0.295461
0.238589
0.248219
0.258376
0.269243
0.269243
0.205388
0.212777
0.220562
0.228762
0.237406
0.237406
0.171569
0.176723
0.182129
0.187836
0.193885
0.200283
0.207017
0.207017
0.131201
0.134659
0.138223
0.141849
0.145515
0.149247
0.153115
0.157168
0.161393
0.165766
0.170319
0.175113
0.175113
4.27995
2.36633
1.9359
1.76173
1.66634
1.6083
1.57158
1.5483
1.53495
1.53171
1.54366
1.58397
1.68467
1.94079
2.87151
2.85301
1.52684
1.0978
0.850706
0.633108
0.310874
0.281511
0
0
0
0
3.11686
0.571154
0.111562
0.0938845
0.100864
0.113155
0.120234
0.122261
0.124565
0.128325
0.132517
0.132517
)
;
    }
}


// ************************************************************************* //
