/*--------------------------------*- C++ -*----------------------------------*\
| =========                 |                                                 |
| \\      /  F ield         | OpenFOAM: The Open Source CFD Toolbox           |
|  \\    /   O peration     | Version:  2506                                  |
|   \\  /    A nd           | Website:  www.openfoam.com                      |
|    \\/     M anipulation  |                                                 |
\*---------------------------------------------------------------------------*/
FoamFile
{
    version     2.0;
    format      ascii;
    arch        "LSB;label=32;scalar=64";
    class       volScalarField;
    location    "200";
    object      magR;
}
// * * * * * * * * * * * * * * * * * * * * * * * * * * * * * * * * * * * * * //

dimensions      [0 2 -2 0 0 0 0];

internalField   nonuniform List<scalar> 
1340
(
32.1099
25.572
18.9783
4.60329
11.5034
10.2519
8.99919
9.57372
14.4206
12.5437
10.4286
11.7141
14.4981
13.7608
12.1388
13.0931
8.79918
11.3947
12.1241
13.6398
1.66176
5.31812
9.262
12.7708
0.139198
0.673041
4.29202
9.86208
0.0460794
0.0983125
0.812955
5.53925
0
0.0254695
0.127446
2.00904
0
0
0.0409884
0.487606
1.83726e-10
0
0.00230714
0.133766
3.46921e-06
0
0.000787139
0.0475197
5.34308e-05
4.95038e-07
0.00021379
0.0152943
9.60599e-05
5.04208e-06
1.54895e-05
0.00349059
8.472e-05
5.56164e-05
4.35627e-08
0.000738061
6.82974e-05
8.82462e-05
8.02412e-07
0
6.14506e-05
8.8006e-05
7.79084e-06
7.3164e-09
6.05991e-05
7.32487e-05
4.31273e-05
1.05762e-06
6.07954e-05
6.15784e-05
6.44717e-05
1.32738e-05
5.99209e-05
5.60322e-05
6.39573e-05
3.71212e-05
5.79748e-05
5.37715e-05
5.69683e-05
5.02411e-05
5.55547e-05
5.22471e-05
5.11437e-05
5.17379e-05
5.30595e-05
5.04304e-05
4.73936e-05
4.85422e-05
5.06139e-05
4.82357e-05
4.47557e-05
4.46498e-05
4.82159e-05
4.58553e-05
4.24557e-05
4.11902e-05
4.58317e-05
4.34371e-05
4.01883e-05
3.81933e-05
4.34528e-05
4.1049e-05
3.79148e-05
3.55003e-05
4.10848e-05
3.87043e-05
3.56679e-05
3.30166e-05
3.87337e-05
3.64033e-05
3.34702e-05
3.06973e-05
3.64158e-05
3.41552e-05
3.13411e-05
2.853e-05
3.4143e-05
3.19668e-05
2.92819e-05
2.65017e-05
3.19208e-05
2.98464e-05
2.73041e-05
2.46014e-05
2.97617e-05
2.77963e-05
2.54069e-05
2.28229e-05
2.93245e-05
2.76733e-05
2.5827e-05
2.35928e-05
2.11546e-05
2.71815e-05
2.56618e-05
2.3942e-05
2.18677e-05
1.95903e-05
2.51239e-05
2.37353e-05
2.21437e-05
2.02313e-05
1.81242e-05
2.31591e-05
2.18973e-05
2.0435e-05
1.86835e-05
1.67499e-05
2.12924e-05
2.01522e-05
1.8818e-05
1.72239e-05
1.54625e-05
1.95267e-05
1.85025e-05
1.72937e-05
1.58522e-05
1.42576e-05
1.78646e-05
1.69497e-05
1.5861e-05
1.4566e-05
1.31309e-05
1.63075e-05
1.54943e-05
1.45198e-05
1.33632e-05
1.20785e-05
1.4855e-05
1.41357e-05
1.32684e-05
1.22413e-05
1.10967e-05
1.35056e-05
1.28722e-05
1.21043e-05
1.11971e-05
1.01821e-05
1.22567e-05
1.17015e-05
1.10248e-05
1.02279e-05
9.33076e-06
1.1105e-05
1.06205e-05
1.0027e-05
9.33001e-06
8.54015e-06
1.03894e-05
1.00469e-05
9.62528e-06
9.10698e-06
8.50005e-06
7.80706e-06
9.3741e-06
9.07779e-06
8.71222e-06
8.26115e-06
7.73468e-06
7.12841e-06
8.44858e-06
8.19274e-06
7.87667e-06
7.48541e-06
7.03037e-06
6.50127e-06
7.60712e-06
7.38667e-06
7.11403e-06
6.77557e-06
6.38341e-06
5.92277e-06
6.84401e-06
6.65424e-06
6.41954e-06
6.12757e-06
5.79037e-06
5.39024e-06
6.15364e-06
5.99041e-06
5.78858e-06
5.5371e-06
5.24781e-06
4.9009e-06
5.53019e-06
5.38985e-06
5.21654e-06
5.00027e-06
4.75238e-06
4.45203e-06
4.96821e-06
4.84754e-06
4.69875e-06
4.51294e-06
4.30077e-06
4.04108e-06
4.46236e-06
4.35854e-06
4.23087e-06
4.07133e-06
3.88979e-06
3.6655e-06
4.07879e-06
4.0076e-06
3.91824e-06
3.80863e-06
3.67167e-06
3.51635e-06
3.32282e-06
3.66083e-06
3.59916e-06
3.52217e-06
3.42804e-06
3.31046e-06
3.17751e-06
3.01065e-06
3.28627e-06
3.23279e-06
3.16635e-06
3.08538e-06
2.98435e-06
2.87044e-06
2.72665e-06
2.95101e-06
2.90449e-06
2.847e-06
2.77721e-06
2.69027e-06
2.59254e-06
2.46867e-06
2.65111e-06
2.61051e-06
2.56063e-06
2.50035e-06
2.42542e-06
2.34137e-06
2.23462e-06
2.3827e-06
2.34722e-06
2.30388e-06
2.25171e-06
2.18701e-06
2.11458e-06
2.02258e-06
2.14203e-06
2.11102e-06
2.07338e-06
2.02825e-06
1.97238e-06
1.90987e-06
1.83062e-06
1.94751e-06
1.92538e-06
1.89838e-06
1.86579e-06
1.82683e-06
1.77868e-06
1.72477e-06
1.65669e-06
1.74942e-06
1.72998e-06
1.70652e-06
1.67832e-06
1.64474e-06
1.60335e-06
1.55696e-06
1.49873e-06
1.57131e-06
1.55411e-06
1.53353e-06
1.50901e-06
1.47999e-06
1.44437e-06
1.40445e-06
1.35475e-06
1.41223e-06
1.39674e-06
1.37844e-06
1.35687e-06
1.33157e-06
1.30074e-06
1.26625e-06
1.22386e-06
1.26995e-06
1.2557e-06
1.23909e-06
1.2198e-06
1.19738e-06
1.1703e-06
1.14014e-06
1.10361e-06
1.14796e-06
1.13499e-06
1.11996e-06
1.10262e-06
1.08261e-06
1.05845e-06
1.03161e-06
9.99377e-07
1.0507e-06
1.03876e-06
1.02512e-06
1.00948e-06
9.91442e-07
9.69592e-07
9.45338e-07
9.17791e-07
9.76506e-07
9.6686e-07
9.54938e-07
9.41707e-07
9.26964e-07
9.10182e-07
8.90126e-07
8.67558e-07
8.43017e-07
9.02015e-07
8.92435e-07
8.80676e-07
8.67643e-07
8.53288e-07
8.37134e-07
8.18223e-07
7.97469e-07
7.76942e-07
8.24116e-07
8.14248e-07
8.02464e-07
7.89537e-07
7.75487e-07
7.59841e-07
7.41531e-07
7.20504e-07
6.97995e-07
7.61189e-07
7.52212e-07
7.41335e-07
7.29175e-07
7.15782e-07
7.00955e-07
6.84214e-07
6.67017e-07
6.53333e-07
6.73165e-07
6.63152e-07
6.51826e-07
6.39695e-07
6.26756e-07
6.12388e-07
5.95153e-07
5.73499e-07
5.48726e-07
6.44782e-07
6.36477e-07
6.26434e-07
6.15071e-07
6.0269e-07
5.89601e-07
5.76529e-07
5.66729e-07
5.65542e-07
5.21834e-07
5.12287e-07
5.01861e-07
4.90649e-07
4.78469e-07
4.6425e-07
4.4524e-07
4.19206e-07
3.87315e-07
5.98224e-07
5.92391e-07
5.84884e-07
5.75686e-07
5.65778e-07
5.56596e-07
5.52367e-07
5.59765e-07
5.78226e-07
4.65404e-07
4.64596e-07
4.61194e-07
4.55128e-07
4.46736e-07
4.35345e-07
4.19696e-07
4.10343e-07
3.93616e-07
8.03695e-07
7.85343e-07
7.85661e-07
7.85755e-07
7.84778e-07
7.83594e-07
7.84732e-07
7.99415e-07
8.35392e-07
8.53425e-07
8.60932e-07
8.55926e-07
8.60985e-07
8.67135e-07
8.72336e-07
8.76955e-07
8.83481e-07
9.05429e-07
9.42617e-07
9.40595e-07
1.45927e-06
1.2333e-06
1.25064e-06
1.26548e-06
1.27435e-06
1.28454e-06
1.2981e-06
1.32471e-06
1.34777e-06
1.15195e-06
17.75
7.808
4.02003
10.9603
14.2702
14.6825
12.7309
8.74391
4.10482
1.08189
0.170113
0.0401404
0.0135188
0.00314617
3.14001e-06
1.4504e-07
0
3.09732e-07
6.41437e-06
2.82307e-05
4.20958e-05
4.4597e-05
4.19944e-05
3.84864e-05
3.53651e-05
3.27199e-05
3.038e-05
2.82416e-05
2.6255e-05
2.44071e-05
2.26883e-05
2.1089e-05
1.96017e-05
1.82143e-05
1.69182e-05
1.57073e-05
1.45735e-05
1.35113e-05
1.25159e-05
1.15826e-05
1.07074e-05
9.88704e-06
9.11921e-06
8.39978e-06
7.72739e-06
7.09989e-06
6.51493e-06
5.97058e-06
5.46489e-06
4.99608e-06
4.56238e-06
4.1618e-06
3.79271e-06
3.45321e-06
3.14156e-06
2.856e-06
2.59479e-06
2.35625e-06
2.13875e-06
1.94076e-06
1.76076e-06
1.59707e-06
1.448e-06
1.31165e-06
1.1874e-06
1.07256e-06
9.72115e-07
8.94693e-07
8.20766e-07
7.6105e-07
6.76178e-07
6.46906e-07
5.20462e-07
5.76025e-07
3.43596e-07
6.06674e-07
3.51932e-07
8.52492e-07
8.74645e-07
1.08166e-06
12.9869
12.092
5.49579
3.52781
8.44339
11.0558
11.0512
8.79186
5.08098
1.68153
0.21555
0.0183614
0.00574454
0.00181704
4.20599e-05
2.14332e-06
0
1.19629e-07
2.53696e-06
1.57619e-05
2.6392e-05
2.93338e-05
2.84538e-05
2.66702e-05
2.49991e-05
2.35596e-05
2.2257e-05
2.10266e-05
1.98462e-05
1.87162e-05
1.76375e-05
1.66096e-05
1.56324e-05
1.47014e-05
1.38137e-05
1.29683e-05
1.21615e-05
1.13923e-05
1.06585e-05
9.95879e-06
9.2918e-06
8.65663e-06
8.05303e-06
7.47876e-06
6.93419e-06
6.41892e-06
5.93203e-06
5.47305e-06
5.04141e-06
4.63646e-06
4.25769e-06
3.90416e-06
3.57515e-06
3.26971e-06
2.98686e-06
2.72558e-06
2.4848e-06
2.26339e-06
2.0602e-06
1.87413e-06
1.70406e-06
1.54864e-06
1.40652e-06
1.27606e-06
1.15679e-06
1.04628e-06
9.48811e-07
8.73321e-07
8.00038e-07
7.43626e-07
6.58339e-07
6.33595e-07
5.04456e-07
5.66114e-07
3.29144e-07
5.95474e-07
3.39625e-07
8.31601e-07
8.49952e-07
8.4652
10.1905
8.01629
3.28836
2.99298
6.99218
9.07576
8.82701
6.55496
3.27203
0.796797
0.0514302
0.00306583
0.00113939
2.07762e-08
0
0
4.54577e-08
9.51771e-07
7.61616e-06
1.51371e-05
1.81582e-05
1.82131e-05
1.74574e-05
1.67248e-05
1.61215e-05
1.55848e-05
1.50628e-05
1.45324e-05
1.39912e-05
1.34409e-05
1.28844e-05
1.2326e-05
1.17665e-05
1.12082e-05
1.06542e-05
1.01056e-05
9.56565e-06
9.03523e-06
8.51638e-06
8.01047e-06
7.51923e-06
7.04409e-06
6.58475e-06
6.143e-06
5.71966e-06
5.315e-06
4.92956e-06
4.56351e-06
4.21702e-06
3.89024e-06
3.58284e-06
3.29473e-06
3.02539e-06
2.77436e-06
2.54108e-06
2.32485e-06
2.12494e-06
1.94052e-06
1.77079e-06
1.61491e-06
1.47182e-06
1.34048e-06
1.2194e-06
1.10824e-06
1.00492e-06
9.1299e-07
8.41866e-07
7.71233e-07
7.19634e-07
6.36063e-07
6.15687e-07
4.88121e-07
5.51824e-07
3.21277e-07
5.80757e-07
3.37701e-07
8.13921e-07
5.50248
7.57088
7.78206
5.65551
2.03741
2.51183
5.7438
7.43686
7.16499
5.14266
2.37702
0.508504
0.0267783
0.000819243
0.000317353
0
0
5.39514e-11
1.07754e-09
4.56681e-06
1.15518e-05
1.47761e-05
1.51343e-05
1.44368e-05
1.36769e-05
1.30902e-05
1.26186e-05
1.21917e-05
1.17795e-05
1.13739e-05
1.0971e-05
1.05685e-05
1.01662e-05
9.76213e-06
9.35597e-06
8.94837e-06
8.53999e-06
8.13266e-06
7.72716e-06
7.32526e-06
6.92852e-06
6.53886e-06
6.15764e-06
5.78536e-06
5.42385e-06
5.07414e-06
4.73706e-06
4.41354e-06
4.10389e-06
3.80869e-06
3.52843e-06
3.26304e-06
3.01281e-06
2.77744e-06
2.55681e-06
2.35065e-06
2.15853e-06
1.97999e-06
1.81446e-06
1.66135e-06
1.52008e-06
1.38982e-06
1.26977e-06
1.15862e-06
1.05609e-06
9.60445e-07
8.74566e-07
8.08683e-07
7.41476e-07
6.94872e-07
6.13403e-07
5.973e-07
4.71985e-07
5.37545e-07
3.14218e-07
5.67319e-07
3.34749e-07
3.27582
5.21313
6.37817
6.12265
4.30475
1.48156
2.02045
4.63636
6.05983
5.85931
4.16155
1.88138
0.395098
0.0217813
0.000186999
6.47053e-05
0
0
1.19823e-08
2.4253e-07
7.31865e-06
1.21498e-05
1.27164e-05
1.22657e-05
1.16832e-05
1.11472e-05
1.07071e-05
1.03241e-05
9.95971e-06
9.6027e-06
9.25224e-06
8.90852e-06
8.57102e-06
8.23835e-06
7.90916e-06
7.58257e-06
7.25824e-06
6.93636e-06
6.61664e-06
6.29948e-06
5.98567e-06
5.67613e-06
5.37155e-06
5.07226e-06
4.77941e-06
4.49381e-06
4.21638e-06
3.94803e-06
3.68902e-06
3.44009e-06
3.2019e-06
2.97466e-06
2.75876e-06
2.55421e-06
2.36114e-06
2.17951e-06
2.00917e-06
1.84988e-06
1.70134e-06
1.56315e-06
1.43495e-06
1.31614e-06
1.20615e-06
1.10388e-06
1.00905e-06
9.20281e-07
8.39776e-07
7.78528e-07
7.14348e-07
6.7209e-07
5.9244e-07
5.80196e-07
4.56636e-07
5.24592e-07
3.06501e-07
5.56526e-07
1.56463
3.16019
4.61007
5.35425
5.01026
3.51599
1.24555
1.54846
3.73572
4.994
4.89794
3.51245
1.6181
0.362622
0.0237986
0.000149598
3.72209e-05
0
0
1.96139e-08
3.34215e-07
7.32121e-06
1.0459e-05
9.73063e-06
9.02592e-06
8.6968e-06
8.44146e-06
8.19875e-06
7.96947e-06
7.74307e-06
7.51341e-06
7.28092e-06
7.04679e-06
6.81147e-06
6.57472e-06
6.33641e-06
6.09699e-06
5.85695e-06
5.61628e-06
5.3754e-06
5.13508e-06
4.89588e-06
4.65848e-06
4.42315e-06
4.19059e-06
3.96156e-06
3.73702e-06
3.51779e-06
3.30418e-06
3.09694e-06
2.89684e-06
2.7043e-06
2.5198e-06
2.34355e-06
2.1759e-06
2.01698e-06
1.86688e-06
1.72556e-06
1.59292e-06
1.46876e-06
1.35288e-06
1.24489e-06
1.14441e-06
1.05058e-06
9.63111e-07
8.80959e-07
8.05603e-07
7.48689e-07
6.87372e-07
6.49221e-07
5.71443e-07
5.62966e-07
4.41099e-07
5.1172e-07
0.468941
1.48735
2.81725
3.97505
4.54525
4.25313
3.04978
1.18543
1.10463
2.98756
4.14599
4.16806
3.06729
1.48044
0.368957
0.031284
0.00226265
0
0
0
4.26501e-09
4.98123e-08
5.50609e-06
8.71214e-06
7.7583e-06
6.9548e-06
6.68474e-06
6.52835e-06
6.36289e-06
6.20089e-06
6.04511e-06
5.89017e-06
5.73418e-06
5.57675e-06
5.4167e-06
5.25307e-06
5.08579e-06
4.91513e-06
4.74106e-06
4.56408e-06
4.38477e-06
4.20377e-06
4.02191e-06
3.83945e-06
3.65691e-06
3.47516e-06
3.29511e-06
3.11756e-06
2.9429e-06
2.77184e-06
2.60519e-06
2.44346e-06
2.28722e-06
2.13676e-06
1.99254e-06
1.85481e-06
1.72383e-06
1.59968e-06
1.4824e-06
1.37192e-06
1.26819e-06
1.17097e-06
1.08006e-06
9.94771e-07
9.14805e-07
8.39457e-07
7.69454e-07
7.17054e-07
6.58799e-07
6.24891e-07
5.49272e-07
5.44721e-07
0.0484331
0.410558
1.27222
2.39572
3.38576
3.90129
3.7147
2.76775
1.22837
0.698394
2.34694
3.44228
3.58451
2.73837
1.40346
0.39351
0.0412076
0.00278502
4.65735e-06
0
0
4.0952e-11
2.70368e-07
4.20468e-06
7.08076e-06
6.44213e-06
5.67178e-06
5.43069e-06
5.31408e-06
5.17712e-06
5.03747e-06
4.90668e-06
4.78051e-06
4.65617e-06
4.53245e-06
4.40796e-06
4.28166e-06
4.15318e-06
4.02195e-06
3.88791e-06
3.75119e-06
3.61216e-06
3.47137e-06
3.32892e-06
3.18508e-06
3.04055e-06
2.89609e-06
2.75245e-06
2.60999e-06
2.46932e-06
2.33115e-06
2.19603e-06
2.06457e-06
1.93704e-06
1.81391e-06
1.69554e-06
1.58221e-06
1.47413e-06
1.37139e-06
1.27402e-06
1.18204e-06
1.09537e-06
1.01388e-06
9.37107e-07
8.64677e-07
7.96223e-07
7.31724e-07
6.84009e-07
6.28995e-07
0.000249554
0.0314733
0.303394
0.999901
1.95939
2.84884
3.36603
3.30165
2.58246
1.31595
0.351586
1.79293
2.84527
3.1012
2.47983
1.35857
0.428014
0.0568635
0.000658966
7.94103e-05
0
0
0
1.92408e-07
2.92612e-06
5.783e-06
5.39335e-06
4.68609e-06
4.46382e-06
4.38361e-06
4.27645e-06
4.15825e-06
4.04876e-06
3.94539e-06
3.84386e-06
3.74273e-06
3.64122e-06
3.53887e-06
3.43495e-06
3.32913e-06
3.22132e-06
3.11165e-06
3.00043e-06
2.88758e-06
2.77311e-06
2.65738e-06
2.54099e-06
2.42462e-06
2.30845e-06
2.19296e-06
2.07875e-06
1.9663e-06
1.8562e-06
1.74869e-06
1.64421e-06
1.54313e-06
1.44576e-06
1.35234e-06
1.26302e-06
1.17786e-06
1.09696e-06
1.02028e-06
9.47817e-07
8.79267e-07
8.14173e-07
7.52504e-07
5.69605e-07
0.00110896
0.0148113
0.192151
0.723829
1.53775
2.35636
2.8979
2.95698
2.44173
1.41179
0.189018
1.31267
2.33045
2.68834
2.26393
1.32698
0.469051
0.0737693
0.00159139
0.000121551
0
0
0
1.13879e-07
1.65858e-06
4.60512e-06
4.59003e-06
3.90821e-06
3.66563e-06
3.61121e-06
3.53734e-06
3.44138e-06
3.35041e-06
3.26663e-06
3.18512e-06
3.10373e-06
3.02202e-06
2.93942e-06
2.85542e-06
2.76981e-06
2.68266e-06
2.59417e-06
2.50427e-06
2.41277e-06
2.3198e-06
2.22585e-06
2.13148e-06
2.0368e-06
1.94214e-06
1.84797e-06
1.75471e-06
1.66288e-06
1.5727e-06
1.48453e-06
1.39872e-06
1.31559e-06
1.2354e-06
1.15831e-06
1.08439e-06
1.01378e-06
9.46475e-07
0
5.60328e-07
1.00513e-05
0.00477668
0.102747
0.478416
1.1488
1.90177
2.47121
2.64663
2.31559
1.49679
0.369232
0.896586
1.88092
2.32587
2.07278
1.30187
0.509011
0.0938698
0.00358976
0.000189357
0
0
0
4.55992e-08
6.06238e-07
3.50833e-06
4.04002e-06
3.40222e-06
3.07914e-06
3.00507e-06
2.94958e-06
2.87189e-06
2.79419e-06
2.7232e-06
2.6553e-06
2.58811e-06
2.5209e-06
2.45309e-06
2.38424e-06
2.31426e-06
2.24328e-06
2.1712e-06
2.09771e-06
2.02276e-06
1.9467e-06
1.87e-06
1.79278e-06
1.7152e-06
1.63764e-06
1.56045e-06
1.4841e-06
1.40875e-06
1.33471e-06
1.26227e-06
1.19175e-06
1.35664e-09
0
8.1049e-10
0.000564819
0.000605159
0.0445536
0.283568
0.807291
1.48463
2.07215
2.35123
2.18655
1.56003
0.592273
0.536185
1.48322
1.99922
1.89564
1.27493
0.546471
0.117014
0.00692704
0.000302724
7.11323e-08
0
0
5.84568e-09
5.32329e-08
2.28019e-06
3.38213e-06
2.98653e-06
2.64053e-06
2.53683e-06
2.48552e-06
2.42045e-06
2.35272e-06
2.29042e-06
2.23165e-06
2.17413e-06
2.1169e-06
2.0594e-06
2.00145e-06
1.94304e-06
1.88407e-06
1.82415e-06
1.76302e-06
1.70085e-06
1.63806e-06
1.57474e-06
1.51096e-06
8.18146e-08
3.79052e-09
0
0
0.000142852
0.000295678
0.0135772
0.144753
0.522629
1.10677
1.69396
2.05936
2.04379
1.59369
0.784714
0.231855
1.12918
1.69986
1.72599
1.24167
0.580192
0.142615
0.0119609
4.16323e-05
5.16913e-06
0
0
5.55023e-11
1.08315e-07
1.54536e-06
2.77798e-06
2.59732e-06
2.2782e-06
2.159e-06
2.10882e-06
2.05311e-06
1.9936e-06
1.93819e-06
)
;

boundaryField
{
    inlet
    {
        type            calculated;
        value           nonuniform List<scalar> 
11
(
6.44942e-06
6.11325e-06
6.25938e-06
6.395e-06
6.51525e-06
6.62204e-06
6.722e-06
6.82231e-06
6.94112e-06
6.67094e-06
7.02821e-06
)
;
    }
    outlet
    {
        type            calculated;
        value           nonuniform List<scalar> 0();
    }
    walls
    {
        type            calculated;
        value           nonuniform List<scalar> 4(0.404064 0.312701 0.223577 0.0436604);
    }
    frontAndBack
    {
        type            empty;
    }
    procBoundary6to2
    {
        type            processor;
        value           nonuniform List<scalar> 
13
(
12.5659
7.49514
4.67296
2.76077
1.31711
0.409034
0.0483927
0.000254249
0.00011503
0
3.86961e-10
1.89479e-08
1.88105e-06
)
;
    }
    procBoundary6to3
    {
        type            processor;
        value           uniform 1.9763e-06;
    }
    procBoundary6to5
    {
        type            processor;
        value           nonuniform List<scalar> 
86
(
36.9733
13.2998
16.8048
14.4483
5.07165
0.142763
0.0114271
0.00144911
0
1.17504e-08
2.41068e-07
6.56408e-05
9.18762e-05
7.73511e-05
6.97409e-05
6.93929e-05
6.94183e-05
6.77774e-05
6.52504e-05
6.26746e-05
6.02751e-05
5.79727e-05
5.56608e-05
5.32926e-05
5.08724e-05
4.84185e-05
4.59481e-05
4.34778e-05
4.10204e-05
3.85859e-05
3.61874e-05
3.38373e-05
3.15462e-05
3.15462e-05
3.08258e-05
2.85396e-05
2.63474e-05
2.42563e-05
2.22715e-05
2.03967e-05
1.86345e-05
1.69861e-05
1.54509e-05
1.40268e-05
1.27111e-05
1.15e-05
1.15e-05
1.06615e-05
9.60867e-06
8.65059e-06
7.78098e-06
6.99365e-06
6.28241e-06
5.64113e-06
5.06382e-06
4.54478e-06
4.54478e-06
4.13461e-06
3.70939e-06
3.32867e-06
2.98818e-06
2.68379e-06
2.41149e-06
2.16729e-06
2.16729e-06
1.96536e-06
1.76521e-06
1.58549e-06
1.42517e-06
1.28198e-06
1.15876e-06
1.06029e-06
1.06029e-06
9.84959e-07
9.10492e-07
8.33141e-07
7.6966e-07
6.82646e-07
6.53989e-07
5.2941e-07
6.09973e-07
4.58305e-07
4.58305e-07
7.4236e-07
8.57397e-07
1.10855e-06
)
;
    }
    procBoundary6to7
    {
        type            processor;
        value           nonuniform List<scalar> 
91
(
1.08552e-06
1.08552e-06
8.2261e-07
8.2261e-07
7.98026e-07
7.98026e-07
3.31988e-07
2.98123e-07
3.31988e-07
5.4651e-07
4.24763e-07
2.98123e-07
4.98291e-07
5.99427e-07
5.26202e-07
4.24763e-07
5.25679e-07
6.93486e-07
6.5045e-07
5.99427e-07
5.98726e-07
8.82534e-07
8.21824e-07
7.63785e-07
6.93486e-07
7.08713e-07
1.12339e-06
1.05735e-06
9.9371e-07
9.32584e-07
8.82534e-07
8.74031e-07
1.44697e-06
1.38308e-06
1.31965e-06
1.25684e-06
1.19489e-06
1.13402e-06
1.12339e-06
1.07453e-06
1.88636e-06
1.83609e-06
1.78634e-06
1.73673e-06
1.68719e-06
1.63764e-06
1.5877e-06
1.53698e-06
1.48544e-06
1.4334e-06
1.38099e-06
1.44697e-06
1.32821e-06
1.55181e-07
7.93942e-09
0
0
8.52452e-07
0.000844476
0.00240556
0.0616598
0.305238
0.776123
1.33548
1.76416
1.87925
1.59229
0.937157
0.102707
0.812674
1.42076
1.55729
1.19862
0.607735
0.170011
0.0183122
0.000275282
1.41895e-05
0
0
0
7.40263e-08
1.0383e-06
2.28041e-06
2.26168e-06
1.97348e-06
1.84618e-06
1.79678e-06
1.74826e-06
1.88636e-06
1.69577e-06
)
;
    }
}


// ************************************************************************* //
