/*--------------------------------*- C++ -*----------------------------------*\
| =========                 |                                                 |
| \\      /  F ield         | OpenFOAM: The Open Source CFD Toolbox           |
|  \\    /   O peration     | Version:  2506                                  |
|   \\  /    A nd           | Website:  www.openfoam.com                      |
|    \\/     M anipulation  |                                                 |
\*---------------------------------------------------------------------------*/
FoamFile
{
    version     2.0;
    format      ascii;
    arch        "LSB;label=32;scalar=64";
    class       volScalarField;
    location    "200";
    object      nuTilda;
}
// * * * * * * * * * * * * * * * * * * * * * * * * * * * * * * * * * * * * * //

dimensions      [0 2 -1 0 0 0 0];

internalField   nonuniform List<scalar> 
1340
(
0.0875806
0.0792127
0.0691068
0.0337365
0.150978
0.145819
0.137295
0.136804
0.199805
0.201187
0.195721
0.203775
0.205458
0.222224
0.230091
0.245605
0.161765
0.204114
0.23574
0.265689
0.0806064
0.144872
0.208413
0.262818
0.0159788
0.065052
0.148686
0.234013
0.00397912
0.0116098
0.0756815
0.180414
0
0.00317626
0.0220846
0.114814
0
0
0.00637824
0.0595188
5.93865e-08
0
0.000550958
0.0263818
8.36443e-06
0
0.000221682
0.0101224
3.37293e-05
3.20409e-06
7.39306e-05
0.0032199
4.6862e-05
1.04595e-05
1.82337e-05
0.000746208
4.43828e-05
3.59705e-05
9.92629e-07
0.000172993
4.00818e-05
4.68736e-05
4.36438e-06
0
3.84824e-05
4.75752e-05
1.38949e-05
3.87822e-07
3.88517e-05
4.37782e-05
3.38143e-05
4.85252e-06
3.96339e-05
4.06348e-05
4.27779e-05
1.78854e-05
4.00964e-05
3.94397e-05
4.35977e-05
3.13322e-05
4.0211e-05
3.94411e-05
4.19718e-05
3.81511e-05
4.01667e-05
3.97571e-05
4.06404e-05
4.02987e-05
4.01032e-05
3.99849e-05
4.00758e-05
4.05054e-05
4.00679e-05
4.00727e-05
3.99679e-05
4.02761e-05
4.00576e-05
4.00839e-05
4.00047e-05
4.01104e-05
4.00582e-05
4.00739e-05
4.00457e-05
4.00554e-05
4.00606e-05
4.00659e-05
4.00629e-05
4.00527e-05
4.0062e-05
4.00631e-05
4.00656e-05
4.00604e-05
4.00625e-05
4.0063e-05
4.00643e-05
4.0065e-05
4.00626e-05
4.00635e-05
4.00633e-05
4.00663e-05
4.00627e-05
4.00639e-05
4.00632e-05
4.00664e-05
4.0063e-05
4.00642e-05
4.00634e-05
4.00664e-05
4.00635e-05
4.00645e-05
4.00638e-05
4.00666e-05
4.00641e-05
4.00641e-05
4.0065e-05
4.00642e-05
4.00669e-05
4.0065e-05
4.0065e-05
4.00657e-05
4.00648e-05
4.00673e-05
4.0066e-05
4.00659e-05
4.00666e-05
4.00656e-05
4.00678e-05
4.0067e-05
4.00669e-05
4.00676e-05
4.00666e-05
4.00686e-05
4.00679e-05
4.0068e-05
4.00686e-05
4.00676e-05
4.00695e-05
4.00688e-05
4.00689e-05
4.00696e-05
4.00688e-05
4.00705e-05
4.00697e-05
4.00698e-05
4.00705e-05
4.00699e-05
4.00716e-05
4.00705e-05
4.00707e-05
4.00714e-05
4.00709e-05
4.00726e-05
4.00714e-05
4.00716e-05
4.00723e-05
4.00718e-05
4.00736e-05
4.00722e-05
4.00724e-05
4.00732e-05
4.00728e-05
4.00745e-05
4.0073e-05
4.00733e-05
4.0074e-05
4.00737e-05
4.00754e-05
4.00736e-05
4.0074e-05
4.00748e-05
4.00747e-05
4.00763e-05
4.00738e-05
4.00743e-05
4.00747e-05
4.00756e-05
4.00755e-05
4.00772e-05
4.00743e-05
4.00749e-05
4.00754e-05
4.00762e-05
4.00763e-05
4.0078e-05
4.00748e-05
4.00754e-05
4.00759e-05
4.00768e-05
4.0077e-05
4.00787e-05
4.00751e-05
4.00757e-05
4.00764e-05
4.00773e-05
4.00776e-05
4.00794e-05
4.00753e-05
4.0076e-05
4.00767e-05
4.00777e-05
4.00781e-05
4.00799e-05
4.00753e-05
4.00761e-05
4.00769e-05
4.0078e-05
4.00785e-05
4.00803e-05
4.00753e-05
4.00761e-05
4.0077e-05
4.00781e-05
4.00787e-05
4.00806e-05
4.0075e-05
4.0076e-05
4.00769e-05
4.00781e-05
4.00788e-05
4.00807e-05
4.00746e-05
4.00756e-05
4.00766e-05
4.00778e-05
4.00787e-05
4.00806e-05
4.0073e-05
4.0074e-05
4.0075e-05
4.00761e-05
4.00774e-05
4.00784e-05
4.00804e-05
4.00721e-05
4.00731e-05
4.00742e-05
4.00754e-05
4.00768e-05
4.00779e-05
4.00799e-05
4.00709e-05
4.0072e-05
4.00732e-05
4.00744e-05
4.00759e-05
4.00771e-05
4.00791e-05
4.00696e-05
4.00707e-05
4.00719e-05
4.00732e-05
4.00747e-05
4.00761e-05
4.00781e-05
4.0068e-05
4.00692e-05
4.00705e-05
4.00718e-05
4.00733e-05
4.00748e-05
4.00769e-05
4.00662e-05
4.00674e-05
4.00687e-05
4.00701e-05
4.00717e-05
4.00733e-05
4.00754e-05
4.00638e-05
4.00651e-05
4.00666e-05
4.00681e-05
4.00698e-05
4.00714e-05
4.00736e-05
4.00593e-05
4.00607e-05
4.00622e-05
4.00637e-05
4.00654e-05
4.00672e-05
4.00691e-05
4.00714e-05
4.00554e-05
4.00568e-05
4.00584e-05
4.006e-05
4.00618e-05
4.00638e-05
4.00659e-05
4.00684e-05
4.00508e-05
4.00523e-05
4.00538e-05
4.00555e-05
4.00574e-05
4.00595e-05
4.00617e-05
4.00644e-05
4.0046e-05
4.00474e-05
4.0049e-05
4.00506e-05
4.00524e-05
4.00545e-05
4.00568e-05
4.00596e-05
4.00412e-05
4.00425e-05
4.0044e-05
4.00455e-05
4.00472e-05
4.00492e-05
4.00514e-05
4.00541e-05
4.00364e-05
4.00377e-05
4.00391e-05
4.00406e-05
4.00423e-05
4.00442e-05
4.00462e-05
4.00487e-05
4.00319e-05
4.00332e-05
4.00347e-05
4.00362e-05
4.00379e-05
4.00398e-05
4.00418e-05
4.00442e-05
4.00259e-05
4.00272e-05
4.00285e-05
4.003e-05
4.00315e-05
4.00333e-05
4.00352e-05
4.00373e-05
4.00397e-05
4.0021e-05
4.00221e-05
4.00233e-05
4.00247e-05
4.00261e-05
4.00278e-05
4.00296e-05
4.00317e-05
4.00342e-05
4.0016e-05
4.0017e-05
4.0018e-05
4.00192e-05
4.00204e-05
4.00219e-05
4.00235e-05
4.00254e-05
4.00277e-05
4.0011e-05
4.00118e-05
4.00127e-05
4.00137e-05
4.00148e-05
4.0016e-05
4.00175e-05
4.00191e-05
4.00211e-05
4.00066e-05
4.0007e-05
4.00075e-05
4.00081e-05
4.00089e-05
4.00098e-05
4.00108e-05
4.00121e-05
4.00138e-05
4.00068e-05
4.00066e-05
4.00064e-05
4.00063e-05
4.00064e-05
4.00065e-05
4.00068e-05
4.00073e-05
4.00081e-05
4.0012e-05
4.00116e-05
4.00113e-05
4.00109e-05
4.00105e-05
4.00102e-05
4.00098e-05
4.00094e-05
4.00092e-05
4.00181e-05
4.00177e-05
4.00173e-05
4.00168e-05
4.00163e-05
4.00157e-05
4.00149e-05
4.00141e-05
4.00132e-05
4.00256e-05
4.00258e-05
4.00259e-05
4.00261e-05
4.00261e-05
4.00262e-05
4.00261e-05
4.00261e-05
4.00258e-05
4.00316e-05
4.00317e-05
4.00315e-05
4.00312e-05
4.00309e-05
4.00304e-05
4.003e-05
4.00295e-05
4.00293e-05
4.00291e-05
4.00419e-05
4.00436e-05
4.00454e-05
4.00473e-05
4.00493e-05
4.00512e-05
4.00533e-05
4.00554e-05
4.0058e-05
4.00604e-05
4.00595e-05
4.00598e-05
4.006e-05
4.006e-05
4.006e-05
4.00599e-05
4.00601e-05
4.00605e-05
4.00614e-05
4.00621e-05
0.166256
0.205787
0.244713
0.286794
0.310359
0.310639
0.286029
0.235467
0.162939
0.0863804
0.0341619
0.0119307
0.00354101
0.000764937
7.75425e-06
1.75064e-06
0
2.81896e-06
1.33523e-05
2.93365e-05
3.75537e-05
4.02989e-05
4.0626e-05
4.03586e-05
4.01455e-05
4.00674e-05
4.00585e-05
4.00664e-05
4.00718e-05
4.0073e-05
4.00726e-05
4.0072e-05
4.00717e-05
4.00715e-05
4.00715e-05
4.00717e-05
4.0072e-05
4.00725e-05
4.00732e-05
4.00741e-05
4.00749e-05
4.00756e-05
4.00763e-05
4.0077e-05
4.00777e-05
4.00784e-05
4.0079e-05
4.00795e-05
4.008e-05
4.00804e-05
4.00807e-05
4.00809e-05
4.00811e-05
4.00812e-05
4.0081e-05
4.00806e-05
4.008e-05
4.00791e-05
4.00779e-05
4.00764e-05
4.00747e-05
4.00726e-05
4.00697e-05
4.00658e-05
4.0061e-05
4.00555e-05
4.005e-05
4.00454e-05
4.0041e-05
4.00354e-05
4.00288e-05
4.00221e-05
4.00146e-05
4.00085e-05
4.0009e-05
4.00128e-05
4.00256e-05
4.00288e-05
4.0062e-05
4.00624e-05
0.205218
0.246858
0.274526
0.301753
0.328322
0.337601
0.322557
0.280737
0.213
0.128068
0.0529363
0.015458
0.00421033
0.000937372
4.00592e-05
9.09615e-06
0
2.30551e-06
1.08515e-05
2.7796e-05
3.71298e-05
4.02611e-05
4.0683e-05
4.04093e-05
4.017e-05
4.00762e-05
4.00625e-05
4.00698e-05
4.00754e-05
4.00765e-05
4.00757e-05
4.00747e-05
4.0074e-05
4.00735e-05
4.00732e-05
4.0073e-05
4.00731e-05
4.00734e-05
4.00739e-05
4.00746e-05
4.00752e-05
4.00759e-05
4.00765e-05
4.00772e-05
4.00779e-05
4.00786e-05
4.00793e-05
4.00798e-05
4.00804e-05
4.00808e-05
4.00812e-05
4.00814e-05
4.00816e-05
4.00817e-05
4.00816e-05
4.00813e-05
4.00807e-05
4.00798e-05
4.00787e-05
4.00773e-05
4.00756e-05
4.00735e-05
4.00706e-05
4.00668e-05
4.0062e-05
4.00564e-05
4.00509e-05
4.00462e-05
4.00418e-05
4.00362e-05
4.00295e-05
4.00227e-05
4.00151e-05
4.00087e-05
4.00089e-05
4.00127e-05
4.00254e-05
4.00287e-05
4.0063e-05
0.208148
0.256561
0.288553
0.309519
0.3295
0.346
0.345607
0.320717
0.268387
0.190442
0.10012
0.0309971
0.00457649
0.00111295
1.08088e-06
0
0
1.84838e-06
8.64725e-06
2.49167e-05
3.59349e-05
4.01089e-05
4.07709e-05
4.04809e-05
4.02042e-05
4.00884e-05
4.00657e-05
4.00714e-05
4.00775e-05
4.00787e-05
4.00776e-05
4.00762e-05
4.00752e-05
4.00744e-05
4.00739e-05
4.00735e-05
4.00734e-05
4.00735e-05
4.00739e-05
4.00746e-05
4.00753e-05
4.0076e-05
4.00766e-05
4.00774e-05
4.00782e-05
4.0079e-05
4.00797e-05
4.00803e-05
4.00809e-05
4.00814e-05
4.00818e-05
4.0082e-05
4.00823e-05
4.00825e-05
4.00824e-05
4.00821e-05
4.00816e-05
4.00807e-05
4.00796e-05
4.00782e-05
4.00765e-05
4.00744e-05
4.00716e-05
4.00678e-05
4.0063e-05
4.00574e-05
4.00518e-05
4.00471e-05
4.00426e-05
4.00369e-05
4.00303e-05
4.00233e-05
4.00157e-05
4.00089e-05
4.00088e-05
4.00127e-05
4.00252e-05
4.00286e-05
0.192021
0.245348
0.284819
0.310367
0.326846
0.341894
0.352211
0.346417
0.316795
0.259773
0.177419
0.0861675
0.0205023
0.00130918
0.000311584
0
0
6.70467e-08
3.11856e-07
2.07932e-05
3.40266e-05
3.94989e-05
4.0837e-05
4.06401e-05
4.02705e-05
4.01002e-05
4.00666e-05
4.00723e-05
4.0079e-05
4.00806e-05
4.00794e-05
4.00776e-05
4.00761e-05
4.00751e-05
4.00743e-05
4.00737e-05
4.00733e-05
4.00733e-05
4.00737e-05
4.00744e-05
4.00753e-05
4.00761e-05
4.00768e-05
4.00776e-05
4.00785e-05
4.00794e-05
4.00801e-05
4.00808e-05
4.00815e-05
4.0082e-05
4.00825e-05
4.00828e-05
4.00831e-05
4.00833e-05
4.00833e-05
4.0083e-05
4.00825e-05
4.00817e-05
4.00806e-05
4.00792e-05
4.00775e-05
4.00755e-05
4.00727e-05
4.00689e-05
4.00641e-05
4.00584e-05
4.00527e-05
4.0048e-05
4.00434e-05
4.00378e-05
4.0031e-05
4.00239e-05
4.00163e-05
4.00092e-05
4.00087e-05
4.00126e-05
4.00249e-05
0.161388
0.219068
0.265927
0.299877
0.321635
0.335338
0.347132
0.353931
0.345578
0.314258
0.255762
0.172259
0.0809401
0.0183808
0.000382692
9.73591e-05
0
0
1.14753e-06
5.297e-06
2.96641e-05
3.91095e-05
4.0727e-05
4.06884e-05
4.04006e-05
4.01609e-05
4.00704e-05
4.00679e-05
4.00793e-05
4.00827e-05
4.00813e-05
4.0079e-05
4.00772e-05
4.00758e-05
4.00747e-05
4.00739e-05
4.00733e-05
4.00731e-05
4.00735e-05
4.00743e-05
4.00752e-05
4.00761e-05
4.0077e-05
4.00779e-05
4.00788e-05
4.00798e-05
4.00806e-05
4.00814e-05
4.00821e-05
4.00827e-05
4.00832e-05
4.00835e-05
4.00839e-05
4.00841e-05
4.00842e-05
4.0084e-05
4.00835e-05
4.00827e-05
4.00816e-05
4.00802e-05
4.00786e-05
4.00765e-05
4.00738e-05
4.007e-05
4.00652e-05
4.00595e-05
4.00537e-05
4.00489e-05
4.00443e-05
4.00386e-05
4.00319e-05
4.00246e-05
4.00169e-05
4.00095e-05
4.00087e-05
4.00125e-05
0.118373
0.179542
0.233345
0.276395
0.307433
0.327269
0.339425
0.349047
0.353906
0.344634
0.313261
0.255034
0.171794
0.0812094
0.019004
0.000367354
8.47061e-05
0
0
1.72431e-06
7.28787e-06
3.48536e-05
4.24859e-05
4.14128e-05
4.03668e-05
4.01577e-05
4.01049e-05
4.00752e-05
4.00763e-05
4.00833e-05
4.00837e-05
4.0081e-05
4.00785e-05
4.00767e-05
4.00754e-05
4.00743e-05
4.00735e-05
4.00729e-05
4.00731e-05
4.0074e-05
4.0075e-05
4.00761e-05
4.00771e-05
4.00781e-05
4.00791e-05
4.00801e-05
4.00811e-05
4.00819e-05
4.00827e-05
4.00834e-05
4.0084e-05
4.00844e-05
4.00847e-05
4.0085e-05
4.00851e-05
4.0085e-05
4.00845e-05
4.00837e-05
4.00827e-05
4.00813e-05
4.00797e-05
4.00777e-05
4.0075e-05
4.00712e-05
4.00664e-05
4.00606e-05
4.00548e-05
4.00499e-05
4.00453e-05
4.00396e-05
4.00327e-05
4.00254e-05
4.00176e-05
4.00099e-05
0.0677417
0.128102
0.187478
0.239156
0.280475
0.310407
0.329621
0.341085
0.349205
0.353058
0.343875
0.313493
0.25667
0.174842
0.0851285
0.022138
0.00574834
0
0
0
8.96708e-07
3.15302e-06
3.40025e-05
4.39384e-05
4.19441e-05
4.02243e-05
4.00006e-05
4.00777e-05
4.00888e-05
4.00845e-05
4.00852e-05
4.00836e-05
4.00804e-05
4.00779e-05
4.00763e-05
4.00749e-05
4.00738e-05
4.0073e-05
4.00728e-05
4.00736e-05
4.00748e-05
4.0076e-05
4.00771e-05
4.00782e-05
4.00794e-05
4.00805e-05
4.00815e-05
4.00825e-05
4.00833e-05
4.00841e-05
4.00847e-05
4.00852e-05
4.00856e-05
4.00859e-05
4.00861e-05
4.0086e-05
4.00856e-05
4.00849e-05
4.00838e-05
4.00825e-05
4.00809e-05
4.00789e-05
4.00762e-05
4.00725e-05
4.00677e-05
4.00618e-05
4.00559e-05
4.0051e-05
4.00463e-05
4.00406e-05
4.00337e-05
4.00261e-05
0.0225687
0.0695823
0.129217
0.187753
0.238886
0.280049
0.310196
0.329759
0.341173
0.348258
0.351701
0.343272
0.314627
0.260002
0.180313
0.0917002
0.0260663
0.00681592
3.66349e-05
0
0
9.55593e-08
8.02211e-06
3.25716e-05
4.35941e-05
4.21859e-05
4.01384e-05
3.98978e-05
4.00662e-05
4.01029e-05
4.00889e-05
4.00845e-05
4.00832e-05
4.00801e-05
4.00774e-05
4.00757e-05
4.00743e-05
4.00732e-05
4.00726e-05
4.00731e-05
4.00743e-05
4.00757e-05
4.00771e-05
4.00783e-05
4.00795e-05
4.00808e-05
4.00819e-05
4.0083e-05
4.00839e-05
4.00848e-05
4.00855e-05
4.00861e-05
4.00865e-05
4.00869e-05
4.00871e-05
4.0087e-05
4.00867e-05
4.0086e-05
4.0085e-05
4.00837e-05
4.00821e-05
4.00801e-05
4.00775e-05
4.00738e-05
4.0069e-05
4.00631e-05
4.00571e-05
4.00521e-05
4.00474e-05
0.00104694
0.02003
0.0645357
0.123033
0.181742
0.233679
0.275963
0.307393
0.328111
0.340023
0.346433
0.349839
0.342621
0.316246
0.264468
0.187603
0.100176
0.0326759
0.00146423
0.000414296
0
0
0
7.36182e-06
2.96844e-05
4.32834e-05
4.24823e-05
4.01492e-05
3.9813e-05
4.00627e-05
4.01272e-05
4.00963e-05
4.0082e-05
4.00814e-05
4.00798e-05
4.00771e-05
4.00751e-05
4.00737e-05
4.00727e-05
4.00726e-05
4.00737e-05
4.00753e-05
4.00769e-05
4.00783e-05
4.00796e-05
4.0081e-05
4.00823e-05
4.00835e-05
4.00845e-05
4.00855e-05
4.00863e-05
4.00869e-05
4.00874e-05
4.00879e-05
4.00881e-05
4.00881e-05
4.00878e-05
4.00872e-05
4.00862e-05
4.0085e-05
4.00834e-05
4.00814e-05
4.00788e-05
4.00752e-05
4.00704e-05
4.00645e-05
1.02004e-05
0.00374543
0.0151565
0.0548088
0.111102
0.170372
0.224087
0.268543
0.302179
0.324795
0.337798
0.344203
0.347652
0.341806
0.318024
0.269523
0.195714
0.110263
0.038985
0.00307081
0.000856313
0
0
0
6.11231e-06
2.42462e-05
4.22474e-05
4.30632e-05
4.02876e-05
3.96495e-05
3.99812e-05
4.01352e-05
4.011e-05
4.00827e-05
4.0079e-05
4.00788e-05
4.00766e-05
4.00745e-05
4.0073e-05
4.00724e-05
4.00731e-05
4.00747e-05
4.00765e-05
4.00781e-05
4.00797e-05
4.00812e-05
4.00826e-05
4.00839e-05
4.00851e-05
4.00861e-05
4.00871e-05
4.00878e-05
4.00884e-05
4.00889e-05
4.00892e-05
4.00893e-05
4.0089e-05
4.00885e-05
4.00875e-05
4.00863e-05
4.00847e-05
4.00828e-05
0
1.09259e-05
4.66896e-05
0.0103599
0.0425654
0.0950689
0.154462
0.210437
0.257866
0.294538
0.319836
0.334749
0.342245
0.345627
0.341009
0.319865
0.274854
0.20469
0.120534
0.0462017
0.00592848
0.00161311
0
0
0
4.13166e-06
1.57546e-05
3.99318e-05
4.41245e-05
4.10747e-05
3.97051e-05
3.98791e-05
4.01062e-05
4.01172e-05
4.00863e-05
4.00778e-05
4.00776e-05
4.0076e-05
4.00738e-05
4.00725e-05
4.00725e-05
4.00739e-05
4.00759e-05
4.00778e-05
4.00796e-05
4.00813e-05
4.00828e-05
4.00843e-05
4.00856e-05
4.00868e-05
4.00878e-05
4.00887e-05
4.00893e-05
4.00899e-05
4.00903e-05
4.00904e-05
4.00903e-05
9.88326e-07
0
4.59134e-07
0.00138337
0.00546582
0.0299493
0.076617
0.134958
0.193113
0.244036
0.28447
0.31325
0.33094
0.340014
0.343484
0.340079
0.32161
0.280295
0.213879
0.130994
0.054332
0.00984281
0.00264022
8.44079e-06
0
0
1.57046e-06
4.99297e-06
3.4503e-05
4.37265e-05
4.18104e-05
3.99548e-05
3.9843e-05
4.00724e-05
4.01176e-05
4.00898e-05
4.00772e-05
4.00762e-05
4.00752e-05
4.00734e-05
4.00724e-05
4.00731e-05
4.0075e-05
4.00773e-05
4.00794e-05
4.00812e-05
4.0083e-05
4.00846e-05
4.00861e-05
4.00874e-05
8.00051e-06
2.08986e-06
0
0
0.000367017
0.00132878
0.0178554
0.056885
0.112402
0.172175
0.22692
0.271811
0.304851
0.326031
0.337199
0.341023
0.338861
0.323107
0.285625
0.222872
0.141615
0.0632434
0.0148248
0.000316163
0.000116515
0
0
1.61951e-07
7.58971e-06
3.04119e-05
4.27361e-05
4.21983e-05
4.01875e-05
3.98313e-05
4.00399e-05
4.01155e-05
4.00947e-05
4.00781e-05
)
;

boundaryField
{
    inlet
    {
        type            freestream;
        freestreamValue uniform 4e-05;
        value           nonuniform List<scalar> 
11
(
4.00595e-05
4.00598e-05
4.006e-05
4.006e-05
4.006e-05
4.00599e-05
4.00601e-05
4.00605e-05
4.00614e-05
4.00621e-05
4.00624e-05
)
;
    }
    outlet
    {
        type            freestream;
        freestreamValue nonuniform List<scalar> 0();
        value           nonuniform List<scalar> 0();
    }
    walls
    {
        type            fixedValue;
        value           uniform 0;
    }
    frontAndBack
    {
        type            empty;
    }
    procBoundary6to2
    {
        type            processor;
        value           nonuniform List<scalar> 
13
(
0.124392
0.14534
0.145049
0.127733
0.0963945
0.0571962
0.0204322
0.00129996
0.000265698
0
5.18695e-07
3.83222e-06
3.89452e-05
)
;
    }
    procBoundary6to3
    {
        type            processor;
        value           uniform 4.05839e-05;
    }
    procBoundary6to5
    {
        type            processor;
        value           nonuniform List<scalar> 
86
(
0.0934536
0.156329
0.196829
0.183052
0.111454
0.0311429
0.000722667
0.000167183
0
4.7476e-07
2.18569e-06
3.67488e-05
4.42991e-05
4.08537e-05
3.91782e-05
3.96316e-05
4.02381e-05
4.03647e-05
4.02306e-05
4.00948e-05
4.00372e-05
4.00339e-05
4.00472e-05
4.00578e-05
4.00621e-05
4.00627e-05
4.00623e-05
4.0062e-05
4.0062e-05
4.00621e-05
4.00624e-05
4.00628e-05
4.00634e-05
4.00634e-05
4.0064e-05
4.0065e-05
4.00659e-05
4.00668e-05
4.00677e-05
4.00686e-05
4.00694e-05
4.00702e-05
4.0071e-05
4.00718e-05
4.00725e-05
4.00732e-05
4.00732e-05
4.00733e-05
4.00738e-05
4.00742e-05
4.00745e-05
4.00746e-05
4.00746e-05
4.00745e-05
4.00742e-05
4.00737e-05
4.00737e-05
4.0072e-05
4.00711e-05
4.00699e-05
4.00685e-05
4.00669e-05
4.0065e-05
4.00625e-05
4.00625e-05
4.0058e-05
4.0054e-05
4.00494e-05
4.00447e-05
4.00399e-05
4.00352e-05
4.00306e-05
4.00306e-05
4.00248e-05
4.002e-05
4.00151e-05
4.00103e-05
4.00062e-05
4.00071e-05
4.00122e-05
4.00183e-05
4.00255e-05
4.00255e-05
4.00311e-05
4.00407e-05
4.00589e-05
)
;
    }
    procBoundary6to7
    {
        type            processor;
        value           nonuniform List<scalar> 
91
(
4.00628e-05
4.00628e-05
4.00641e-05
4.00641e-05
4.00284e-05
4.00284e-05
4.00247e-05
4.00086e-05
4.00247e-05
4.00124e-05
4.00183e-05
4.00086e-05
4.00103e-05
4.00416e-05
4.00346e-05
4.00183e-05
4.0027e-05
4.00584e-05
4.00532e-05
4.00416e-05
4.00485e-05
4.00802e-05
4.00767e-05
4.00719e-05
4.00584e-05
4.00659e-05
4.00898e-05
4.00889e-05
4.00877e-05
4.00861e-05
4.00802e-05
4.00842e-05
4.00886e-05
4.00895e-05
4.00903e-05
4.00909e-05
4.00914e-05
4.00917e-05
4.00898e-05
4.00916e-05
4.00744e-05
4.00731e-05
4.00721e-05
4.00725e-05
4.00742e-05
4.00765e-05
4.00789e-05
4.0081e-05
4.00831e-05
4.00849e-05
4.00865e-05
4.00886e-05
4.0088e-05
1.26862e-05
3.275e-06
0
0
1.38821e-05
0.00247546
0.00978769
0.0388783
0.0885735
0.148153
0.206305
0.255999
0.293924
0.319244
0.333083
0.337985
0.336948
0.323793
0.290099
0.231133
0.151991
0.0728226
0.0201217
0.00165156
0.000412888
0
0
0
6.64655e-06
2.65951e-05
4.16233e-05
4.25112e-05
4.0408e-05
3.98196e-05
3.99981e-05
4.01025e-05
4.00744e-05
4.00956e-05
)
;
    }
}


// ************************************************************************* //
