/*--------------------------------*- C++ -*----------------------------------*\
| =========                 |                                                 |
| \\      /  F ield         | OpenFOAM: The Open Source CFD Toolbox           |
|  \\    /   O peration     | Version:  2506                                  |
|   \\  /    A nd           | Website:  www.openfoam.com                      |
|    \\/     M anipulation  |                                                 |
\*---------------------------------------------------------------------------*/
FoamFile
{
    version     2.0;
    format      ascii;
    arch        "LSB;label=32;scalar=64";
    class       volScalarField;
    location    "200";
    object      turbulenceProperties:nut;
}
// * * * * * * * * * * * * * * * * * * * * * * * * * * * * * * * * * * * * * //

dimensions      [0 2 -1 0 0 0 0];

internalField   nonuniform List<scalar> 
1340
(
0.0875806
0.0792127
0.0691068
0.0337365
0.150978
0.145819
0.137295
0.136804
0.199805
0.201187
0.195721
0.203775
0.205458
0.222224
0.230091
0.245605
0.161765
0.204114
0.23574
0.265689
0.0806064
0.144872
0.208413
0.262818
0.0159788
0.065052
0.148686
0.234013
0.0039791
0.0116098
0.0756815
0.180414
0
0.00317622
0.0220846
0.114814
0
0
0.00637823
0.0595188
3.47517e-17
0
0.000549782
0.0263818
1.3654e-08
0
0.000214631
0.0101224
3.26604e-06
2.94445e-10
3.92053e-05
0.00321986
1.04653e-05
3.33334e-08
3.0369e-07
0.000745566
8.71306e-06
4.13922e-06
2.71251e-12
0.000161807
6.11174e-06
1.04739e-05
1.01348e-09
0
5.28575e-06
1.10032e-05
1.03373e-07
6.32058e-14
5.46972e-06
8.31367e-06
3.29668e-06
1.54866e-09
5.87276e-06
6.41502e-06
7.67713e-06
2.81405e-07
6.11963e-06
5.77102e-06
8.1966e-06
2.47959e-06
6.18176e-06
5.77173e-06
7.18615e-06
5.12407e-06
6.15769e-06
5.93791e-06
6.41811e-06
6.2296e-06
6.12331e-06
6.05952e-06
6.1085e-06
6.34319e-06
6.10424e-06
6.1068e-06
6.05039e-06
6.21724e-06
6.09867e-06
6.11284e-06
6.07016e-06
6.1272e-06
6.09896e-06
6.10747e-06
6.09223e-06
6.09748e-06
6.10026e-06
6.10314e-06
6.10152e-06
6.09602e-06
6.10103e-06
6.10161e-06
6.10297e-06
6.10017e-06
6.10129e-06
6.10155e-06
6.10227e-06
6.10266e-06
6.10136e-06
6.10184e-06
6.10173e-06
6.10335e-06
6.10143e-06
6.10206e-06
6.10165e-06
6.10339e-06
6.10158e-06
6.10222e-06
6.10178e-06
6.1034e-06
6.10182e-06
6.1024e-06
6.10197e-06
6.10349e-06
6.10218e-06
6.10218e-06
6.10267e-06
6.10221e-06
6.10365e-06
6.10267e-06
6.10264e-06
6.10304e-06
6.10254e-06
6.10388e-06
6.10319e-06
6.10315e-06
6.10351e-06
6.10297e-06
6.10418e-06
6.10371e-06
6.1037e-06
6.10403e-06
6.10348e-06
6.10458e-06
6.10422e-06
6.10424e-06
6.10459e-06
6.10407e-06
6.10507e-06
6.1047e-06
6.10476e-06
6.10513e-06
6.10468e-06
6.10563e-06
6.10516e-06
6.10524e-06
6.10564e-06
6.10527e-06
6.10621e-06
6.10562e-06
6.10571e-06
6.10611e-06
6.10581e-06
6.10677e-06
6.10608e-06
6.10619e-06
6.10658e-06
6.10633e-06
6.10728e-06
6.10653e-06
6.10666e-06
6.10706e-06
6.10685e-06
6.10778e-06
6.10694e-06
6.10711e-06
6.10752e-06
6.10737e-06
6.10828e-06
6.10732e-06
6.10752e-06
6.10795e-06
6.10786e-06
6.10877e-06
6.10739e-06
6.10766e-06
6.10789e-06
6.10834e-06
6.10832e-06
6.10923e-06
6.10767e-06
6.10797e-06
6.10824e-06
6.1087e-06
6.10873e-06
6.10966e-06
6.10791e-06
6.10824e-06
6.10854e-06
6.10903e-06
6.10911e-06
6.11004e-06
6.10808e-06
6.10845e-06
6.10879e-06
6.1093e-06
6.10945e-06
6.1104e-06
6.10819e-06
6.10859e-06
6.10897e-06
6.10951e-06
6.10973e-06
6.1107e-06
6.10823e-06
6.10866e-06
6.10907e-06
6.10965e-06
6.10993e-06
6.11093e-06
6.10819e-06
6.10865e-06
6.10911e-06
6.10971e-06
6.11005e-06
6.11108e-06
6.10806e-06
6.10856e-06
6.10906e-06
6.1097e-06
6.1101e-06
6.11114e-06
6.10783e-06
6.10837e-06
6.1089e-06
6.10958e-06
6.11005e-06
6.1111e-06
6.10696e-06
6.10749e-06
6.10806e-06
6.10864e-06
6.10935e-06
6.1099e-06
6.11095e-06
6.10646e-06
6.10703e-06
6.10763e-06
6.10825e-06
6.10899e-06
6.10961e-06
6.11068e-06
6.10585e-06
6.10644e-06
6.10707e-06
6.10773e-06
6.10851e-06
6.10919e-06
6.11028e-06
6.10512e-06
6.10574e-06
6.1064e-06
6.10708e-06
6.10789e-06
6.10863e-06
6.10974e-06
6.10427e-06
6.10492e-06
6.1056e-06
6.10632e-06
6.10715e-06
6.10794e-06
6.10906e-06
6.10327e-06
6.10394e-06
6.10466e-06
6.10542e-06
6.10628e-06
6.10711e-06
6.10826e-06
6.102e-06
6.10273e-06
6.1035e-06
6.1043e-06
6.10522e-06
6.10612e-06
6.10729e-06
6.09959e-06
6.10034e-06
6.10113e-06
6.10197e-06
6.10285e-06
6.10384e-06
6.10484e-06
6.10609e-06
6.09744e-06
6.09823e-06
6.09907e-06
6.09997e-06
6.10093e-06
6.102e-06
6.10312e-06
6.10447e-06
6.09498e-06
6.09578e-06
6.09662e-06
6.09754e-06
6.09854e-06
6.09967e-06
6.10088e-06
6.10233e-06
6.09241e-06
6.09317e-06
6.09399e-06
6.09489e-06
6.09587e-06
6.09699e-06
6.09822e-06
6.09972e-06
6.0898e-06
6.09052e-06
6.09129e-06
6.09214e-06
6.09307e-06
6.09414e-06
6.09532e-06
6.09677e-06
6.08722e-06
6.08794e-06
6.08869e-06
6.08951e-06
6.0904e-06
6.0914e-06
6.09251e-06
6.09386e-06
6.08478e-06
6.08551e-06
6.0863e-06
6.08714e-06
6.08804e-06
6.08904e-06
6.09014e-06
6.09143e-06
6.08158e-06
6.08225e-06
6.08298e-06
6.08376e-06
6.08461e-06
6.08553e-06
6.08657e-06
6.0877e-06
6.08902e-06
6.07892e-06
6.07953e-06
6.08019e-06
6.0809e-06
6.08169e-06
6.08256e-06
6.08357e-06
6.08469e-06
6.08602e-06
6.07624e-06
6.07676e-06
6.07733e-06
6.07795e-06
6.07863e-06
6.0794e-06
6.08028e-06
6.08129e-06
6.08252e-06
6.07356e-06
6.07399e-06
6.07447e-06
6.075e-06
6.07559e-06
6.07625e-06
6.07702e-06
6.07789e-06
6.07898e-06
6.07117e-06
6.07139e-06
6.07167e-06
6.07201e-06
6.07241e-06
6.07288e-06
6.07347e-06
6.07415e-06
6.07503e-06
6.07131e-06
6.0712e-06
6.0711e-06
6.07104e-06
6.07105e-06
6.07112e-06
6.07128e-06
6.07154e-06
6.07198e-06
6.07406e-06
6.07389e-06
6.07371e-06
6.07351e-06
6.0733e-06
6.0731e-06
6.07288e-06
6.0727e-06
6.07256e-06
6.07735e-06
6.07717e-06
6.07695e-06
6.07669e-06
6.0764e-06
6.07606e-06
6.07566e-06
6.07524e-06
6.07472e-06
6.08143e-06
6.08151e-06
6.08159e-06
6.08165e-06
6.08169e-06
6.08172e-06
6.08168e-06
6.08167e-06
6.08153e-06
6.08464e-06
6.08467e-06
6.08459e-06
6.08445e-06
6.08425e-06
6.084e-06
6.08377e-06
6.08351e-06
6.08338e-06
6.08327e-06
6.09021e-06
6.09109e-06
6.09207e-06
6.0931e-06
6.09415e-06
6.09522e-06
6.09636e-06
6.09746e-06
6.09888e-06
6.10017e-06
6.09968e-06
6.09985e-06
6.09994e-06
6.09997e-06
6.09993e-06
6.09989e-06
6.09998e-06
6.10023e-06
6.1007e-06
6.10106e-06
0.166256
0.205787
0.244713
0.286794
0.310359
0.310639
0.286029
0.235467
0.162939
0.0863804
0.0341619
0.0119307
0.00354098
0.000764326
1.00883e-08
2.62426e-11
0
1.76424e-10
8.8221e-08
1.93311e-06
4.84067e-06
6.22971e-06
6.41009e-06
6.26238e-06
6.14617e-06
6.10393e-06
6.09915e-06
6.10339e-06
6.10629e-06
6.10698e-06
6.10675e-06
6.10645e-06
6.10627e-06
6.10618e-06
6.10617e-06
6.10625e-06
6.10642e-06
6.10671e-06
6.1071e-06
6.10754e-06
6.10798e-06
6.10839e-06
6.10877e-06
6.10914e-06
6.10951e-06
6.10986e-06
6.11018e-06
6.11048e-06
6.11075e-06
6.11097e-06
6.11114e-06
6.11124e-06
6.11136e-06
6.11138e-06
6.11129e-06
6.11108e-06
6.11073e-06
6.11023e-06
6.10959e-06
6.10881e-06
6.10789e-06
6.10672e-06
6.10517e-06
6.10308e-06
6.10048e-06
6.09751e-06
6.09455e-06
6.09209e-06
6.08968e-06
6.08667e-06
6.08313e-06
6.0795e-06
6.07548e-06
6.07218e-06
6.07247e-06
6.07454e-06
6.08141e-06
6.08314e-06
6.10102e-06
6.10124e-06
0.205218
0.246858
0.274526
0.301753
0.328322
0.337601
0.322557
0.280737
0.213
0.128068
0.0529363
0.015458
0.00421031
0.000936965
6.0995e-06
1.90872e-08
0
7.89364e-11
3.86044e-08
1.57343e-06
4.64584e-06
6.20905e-06
6.44187e-06
6.29021e-06
6.15945e-06
6.10868e-06
6.10129e-06
6.10526e-06
6.10824e-06
6.10884e-06
6.1084e-06
6.10786e-06
6.10748e-06
6.10722e-06
6.10706e-06
6.10699e-06
6.10703e-06
6.10719e-06
6.10747e-06
6.10781e-06
6.10817e-06
6.10851e-06
6.10885e-06
6.10924e-06
6.10963e-06
6.11e-06
6.11034e-06
6.11066e-06
6.11094e-06
6.11119e-06
6.11137e-06
6.11149e-06
6.11163e-06
6.11169e-06
6.11164e-06
6.11145e-06
6.11113e-06
6.11065e-06
6.11003e-06
6.10927e-06
6.10836e-06
6.10721e-06
6.10568e-06
6.10361e-06
6.10101e-06
6.09801e-06
6.09502e-06
6.09253e-06
6.09011e-06
6.08709e-06
6.08352e-06
6.07983e-06
6.07578e-06
6.0723e-06
6.07242e-06
6.07448e-06
6.0813e-06
6.08308e-06
6.10156e-06
0.208148
0.256561
0.288553
0.309519
0.3295
0.346
0.345607
0.320717
0.268387
0.190442
0.10012
0.0309971
0.00457647
0.00111266
3.81353e-12
0
0
3.26124e-11
1.55939e-08
1.03231e-06
4.12425e-06
6.12636e-06
6.49104e-06
6.32965e-06
6.17807e-06
6.11528e-06
6.10302e-06
6.10612e-06
6.10937e-06
6.11007e-06
6.10947e-06
6.10871e-06
6.10813e-06
6.10772e-06
6.10742e-06
6.10723e-06
6.10716e-06
6.10722e-06
6.10745e-06
6.10781e-06
6.10819e-06
6.10856e-06
6.10892e-06
6.10934e-06
6.10977e-06
6.11018e-06
6.11056e-06
6.1109e-06
6.11121e-06
6.11149e-06
6.1117e-06
6.11184e-06
6.11199e-06
6.11208e-06
6.11205e-06
6.1119e-06
6.11159e-06
6.11113e-06
6.11052e-06
6.10977e-06
6.10887e-06
6.10774e-06
6.10622e-06
6.10416e-06
6.10156e-06
6.09853e-06
6.09551e-06
6.09299e-06
6.09055e-06
6.08751e-06
6.08392e-06
6.08015e-06
6.07608e-06
6.07243e-06
6.07237e-06
6.07444e-06
6.08117e-06
6.08302e-06
0.192021
0.245348
0.284819
0.310367
0.326846
0.341894
0.352211
0.346417
0.316795
0.259773
0.177419
0.0861675
0.0205023
0.00130897
0.00030794
0
0
5.64591e-17
2.64266e-14
5.09492e-07
3.37402e-06
5.80189e-06
6.52821e-06
6.41793e-06
6.21416e-06
6.12165e-06
6.10349e-06
6.1066e-06
6.1102e-06
6.11106e-06
6.11039e-06
6.10943e-06
6.10865e-06
6.10808e-06
6.10765e-06
6.10733e-06
6.10715e-06
6.10713e-06
6.10735e-06
6.10775e-06
6.10819e-06
6.10861e-06
6.10902e-06
6.10947e-06
6.10994e-06
6.1104e-06
6.11081e-06
6.11119e-06
6.11153e-06
6.11183e-06
6.11208e-06
6.11224e-06
6.1124e-06
6.11251e-06
6.11251e-06
6.11238e-06
6.11209e-06
6.11165e-06
6.11105e-06
6.11031e-06
6.10941e-06
6.10829e-06
6.10679e-06
6.10474e-06
6.10214e-06
6.09908e-06
6.09602e-06
6.09347e-06
6.09102e-06
6.08796e-06
6.08433e-06
6.0805e-06
6.0764e-06
6.07258e-06
6.07232e-06
6.0744e-06
6.08104e-06
0.161388
0.219068
0.265927
0.299877
0.321635
0.335338
0.347132
0.353931
0.345578
0.314258
0.255762
0.172259
0.0809401
0.0183807
0.000380263
7.01519e-05
0
0
4.84477e-12
2.19869e-09
2.0164e-06
5.60059e-06
6.46645e-06
6.44489e-06
6.28544e-06
6.15452e-06
6.10559e-06
6.10422e-06
6.11034e-06
6.1122e-06
6.11145e-06
6.11022e-06
6.10921e-06
6.10846e-06
6.10789e-06
6.10745e-06
6.10715e-06
6.10701e-06
6.10722e-06
6.10765e-06
6.10816e-06
6.10865e-06
6.10911e-06
6.1096e-06
6.11012e-06
6.11061e-06
6.11107e-06
6.11148e-06
6.11186e-06
6.1122e-06
6.11247e-06
6.11266e-06
6.11284e-06
6.11298e-06
6.113e-06
6.11289e-06
6.11262e-06
6.1122e-06
6.11161e-06
6.11087e-06
6.10998e-06
6.10887e-06
6.10739e-06
6.10536e-06
6.10275e-06
6.09967e-06
6.09656e-06
6.09397e-06
6.09151e-06
6.08843e-06
6.08478e-06
6.08088e-06
6.07674e-06
6.07276e-06
6.07228e-06
6.07435e-06
0.118373
0.179542
0.233345
0.276395
0.307433
0.327269
0.339425
0.349047
0.353906
0.344634
0.313261
0.255034
0.171794
0.0812094
0.019004
0.00036472
5.33117e-05
0
0
2.4699e-11
7.87333e-09
3.68689e-06
7.497e-06
6.8572e-06
6.26687e-06
6.15278e-06
6.1242e-06
6.10817e-06
6.10873e-06
6.11251e-06
6.11274e-06
6.11127e-06
6.10995e-06
6.10899e-06
6.10824e-06
6.10765e-06
6.10721e-06
6.10693e-06
6.10704e-06
6.10749e-06
6.10807e-06
6.10864e-06
6.10917e-06
6.1097e-06
6.11027e-06
6.11082e-06
6.11133e-06
6.11178e-06
6.1122e-06
6.11257e-06
6.11288e-06
6.1131e-06
6.1133e-06
6.11345e-06
6.11351e-06
6.11342e-06
6.11318e-06
6.11277e-06
6.11219e-06
6.11146e-06
6.11058e-06
6.10949e-06
6.10802e-06
6.10601e-06
6.1034e-06
6.10028e-06
6.09714e-06
6.09451e-06
6.09203e-06
6.08893e-06
6.08525e-06
6.08127e-06
6.0771e-06
6.07295e-06
0.0677417
0.128102
0.187478
0.239156
0.280475
0.310407
0.329621
0.341085
0.349205
0.353058
0.343875
0.313493
0.25667
0.174842
0.0851285
0.022138
0.00574833
0
0
0
1.80646e-12
2.76118e-10
3.36518e-06
8.4184e-06
7.16966e-06
6.18897e-06
6.06795e-06
6.10952e-06
6.11552e-06
6.11319e-06
6.11357e-06
6.11271e-06
6.11096e-06
6.10963e-06
6.10872e-06
6.10798e-06
6.10738e-06
6.10695e-06
6.10686e-06
6.10727e-06
6.10791e-06
6.10858e-06
6.10919e-06
6.10978e-06
6.1104e-06
6.11101e-06
6.11157e-06
6.11207e-06
6.11253e-06
6.11295e-06
6.1133e-06
6.11355e-06
6.11377e-06
6.11395e-06
6.11403e-06
6.11397e-06
6.11376e-06
6.11336e-06
6.1128e-06
6.11209e-06
6.11121e-06
6.11013e-06
6.10869e-06
6.10669e-06
6.10408e-06
6.10094e-06
6.09774e-06
6.09507e-06
6.09258e-06
6.08946e-06
6.08575e-06
6.0817e-06
0.0225687
0.0695823
0.129217
0.187753
0.238886
0.280049
0.310196
0.329759
0.341173
0.348258
0.351701
0.343272
0.314627
0.260002
0.180313
0.0917002
0.0260663
0.00681591
4.42486e-06
0
0
2.32979e-16
1.15546e-08
2.86782e-06
8.19428e-06
7.31465e-06
6.14236e-06
6.01284e-06
6.10327e-06
6.12313e-06
6.11555e-06
6.1132e-06
6.11247e-06
6.11082e-06
6.10936e-06
6.1084e-06
6.10767e-06
6.10709e-06
6.10676e-06
6.10701e-06
6.10767e-06
6.10844e-06
6.10915e-06
6.10982e-06
6.11049e-06
6.11116e-06
6.11179e-06
6.11235e-06
6.11286e-06
6.11332e-06
6.11372e-06
6.11401e-06
6.11426e-06
6.11446e-06
6.11458e-06
6.11455e-06
6.11436e-06
6.11399e-06
6.11344e-06
6.11274e-06
6.11187e-06
6.1108e-06
6.10938e-06
6.1074e-06
6.1048e-06
6.10163e-06
6.09839e-06
6.09567e-06
6.09316e-06
0.00104661
0.02003
0.0645357
0.123033
0.181742
0.233679
0.275963
0.307393
0.328111
0.340023
0.346433
0.349839
0.342621
0.316246
0.264468
0.187603
0.100176
0.0326759
0.00146406
0.000412221
0
0
0
8.19751e-09
2.02164e-06
7.99501e-06
7.49483e-06
6.14819e-06
5.96762e-06
6.10138e-06
6.13625e-06
6.11953e-06
6.11183e-06
6.11149e-06
6.11064e-06
6.10919e-06
6.10809e-06
6.10733e-06
6.10681e-06
6.10676e-06
6.10735e-06
6.10821e-06
6.10905e-06
6.10981e-06
6.11055e-06
6.11129e-06
6.11199e-06
6.11262e-06
6.11318e-06
6.11369e-06
6.11414e-06
6.11448e-06
6.11476e-06
6.11499e-06
6.11513e-06
6.11514e-06
6.11498e-06
6.11464e-06
6.11411e-06
6.11342e-06
6.11256e-06
6.11151e-06
6.11011e-06
6.10815e-06
6.10556e-06
6.10237e-06
3.01578e-08
0.00374541
0.0151565
0.0548088
0.111102
0.170372
0.224087
0.268543
0.302179
0.324795
0.337798
0.344203
0.347652
0.341806
0.318024
0.269523
0.195714
0.110263
0.038985
0.00307078
0.000855825
0
0
0
3.89735e-09
9.28621e-07
7.35183e-06
7.85564e-06
6.22351e-06
5.88101e-06
6.05754e-06
6.14059e-06
6.12697e-06
6.11218e-06
6.11022e-06
6.1101e-06
6.10893e-06
6.10776e-06
6.10699e-06
6.10664e-06
6.10701e-06
6.10788e-06
6.10885e-06
6.10973e-06
6.11057e-06
6.11138e-06
6.11215e-06
6.11286e-06
6.11348e-06
6.11405e-06
6.11455e-06
6.11495e-06
6.11527e-06
6.11553e-06
6.11571e-06
6.11576e-06
6.11563e-06
6.11532e-06
6.11481e-06
6.11413e-06
6.11329e-06
6.11225e-06
0
3.96712e-08
1.03375e-05
0.0103599
0.0425654
0.0950689
0.154462
0.210437
0.257866
0.294538
0.319836
0.334749
0.342245
0.345627
0.341009
0.319865
0.274854
0.20469
0.120534
0.0462017
0.00592847
0.00161297
0
0
0
8.14029e-10
1.70269e-07
6.03103e-06
8.5411e-06
6.66277e-06
5.91036e-06
6.00285e-06
6.1249e-06
6.13087e-06
6.11412e-06
6.10957e-06
6.10945e-06
6.10857e-06
6.10741e-06
6.10667e-06
6.10667e-06
6.10745e-06
6.10853e-06
6.10958e-06
6.11052e-06
6.11142e-06
6.11228e-06
6.11307e-06
6.11377e-06
6.11441e-06
6.11497e-06
6.11542e-06
6.11579e-06
6.11608e-06
6.1163e-06
6.11639e-06
6.1163e-06
2.66578e-12
0
1.2416e-13
0.00138318
0.00546581
0.0299493
0.076617
0.134958
0.193113
0.244036
0.28447
0.31325
0.33094
0.340014
0.343484
0.340079
0.32161
0.280295
0.213879
0.130994
0.054332
0.00984281
0.00264017
1.41589e-08
0
0
1.69955e-11
1.73584e-09
3.55197e-06
8.28e-06
7.09021e-06
6.04334e-06
5.98358e-06
6.10665e-06
6.13108e-06
6.11606e-06
6.10923e-06
6.10867e-06
6.10814e-06
6.10718e-06
6.10662e-06
6.10701e-06
6.10806e-06
6.10928e-06
6.1104e-06
6.11141e-06
6.11237e-06
6.11325e-06
6.11403e-06
6.11474e-06
1.14308e-08
5.32948e-11
0
0
0.000364379
0.00132858
0.0178554
0.056885
0.112402
0.172175
0.22692
0.271811
0.304851
0.326031
0.337199
0.341023
0.338861
0.323107
0.285625
0.222872
0.141615
0.0632434
0.0148248
0.000312622
9.50152e-05
0
0
1.92203e-15
9.25969e-09
2.21586e-06
7.65119e-06
7.32215e-06
6.16897e-06
5.97731e-06
6.08909e-06
6.12994e-06
6.11869e-06
6.10974e-06
)
;

boundaryField
{
    inlet
    {
        type            freestream;
        freestreamValue uniform 1e-05;
        value           nonuniform List<scalar> 
11
(
6.09968e-06
6.09985e-06
6.09994e-06
6.09997e-06
6.09993e-06
6.09989e-06
6.09998e-06
6.10023e-06
6.1007e-06
6.10106e-06
6.10124e-06
)
;
    }
    outlet
    {
        type            freestream;
        freestreamValue nonuniform List<scalar> 0();
        value           nonuniform List<scalar> 0();
    }
    walls
    {
        type            nutUSpaldingWallFunction;
        value           nonuniform List<scalar> 4(0.00179564 0.00159804 0.0013723 0.000651413);
    }
    frontAndBack
    {
        type            empty;
    }
    procBoundary6to2
    {
        type            processor;
        value           nonuniform List<scalar> 
13
(
0.124392
0.14534
0.145049
0.127733
0.0963945
0.0571962
0.0204322
0.00129975
0.000260723
0
2.02243e-13
6.025e-10
5.51696e-06
)
;
    }
    procBoundary6to3
    {
        type            processor;
        value           uniform 6.38668e-06;
    }
    procBoundary6to5
    {
        type            processor;
        value           nonuniform List<scalar> 
86
(
0.0934536
0.156329
0.196829
0.183052
0.111454
0.0311429
0.000721983
0.000155289
0
1.41946e-13
6.3763e-11
4.47512e-06
8.65706e-06
6.5376e-06
5.63574e-06
5.87156e-06
6.1965e-06
6.26575e-06
6.19245e-06
6.11875e-06
6.08764e-06
6.08589e-06
6.09306e-06
6.09874e-06
6.10106e-06
6.10141e-06
6.10119e-06
6.10102e-06
6.101e-06
6.10109e-06
6.10124e-06
6.10145e-06
6.10176e-06
6.10176e-06
6.10213e-06
6.10262e-06
6.10313e-06
6.10363e-06
6.10412e-06
6.10458e-06
6.10502e-06
6.10547e-06
6.10591e-06
6.10633e-06
6.10672e-06
6.10707e-06
6.10707e-06
6.10715e-06
6.1074e-06
6.10761e-06
6.10775e-06
6.10782e-06
6.10783e-06
6.10776e-06
6.1076e-06
6.10733e-06
6.10733e-06
6.10645e-06
6.10592e-06
6.10528e-06
6.10453e-06
6.10366e-06
6.10262e-06
6.10131e-06
6.10131e-06
6.09888e-06
6.0967e-06
6.09425e-06
6.0917e-06
6.08912e-06
6.08655e-06
6.08408e-06
6.08408e-06
6.08095e-06
6.07837e-06
6.07576e-06
6.07317e-06
6.07099e-06
6.07143e-06
6.07421e-06
6.07747e-06
6.08134e-06
6.08134e-06
6.08438e-06
6.08952e-06
6.09937e-06
)
;
    }
    procBoundary6to7
    {
        type            processor;
        value           nonuniform List<scalar> 
91
(
6.10146e-06
6.10146e-06
6.10214e-06
6.10214e-06
6.08293e-06
6.08293e-06
6.08091e-06
6.07225e-06
6.08091e-06
6.07429e-06
6.07748e-06
6.07225e-06
6.07318e-06
6.09003e-06
6.08628e-06
6.07748e-06
6.08216e-06
6.09907e-06
6.09631e-06
6.09003e-06
6.09377e-06
6.11087e-06
6.10894e-06
6.10636e-06
6.09907e-06
6.10314e-06
6.11602e-06
6.11554e-06
6.11488e-06
6.11405e-06
6.11087e-06
6.11302e-06
6.11537e-06
6.1159e-06
6.11631e-06
6.11665e-06
6.11691e-06
6.11704e-06
6.11602e-06
6.117e-06
6.10774e-06
6.107e-06
6.10649e-06
6.10669e-06
6.10763e-06
6.10888e-06
6.11014e-06
6.11131e-06
6.11239e-06
6.11338e-06
6.11426e-06
6.11537e-06
6.11505e-06
7.19587e-08
3.21386e-10
0
0
1.02994e-07
0.0024754
0.00978769
0.0388783
0.0885735
0.148153
0.206305
0.255999
0.293924
0.319244
0.333083
0.337985
0.336948
0.323793
0.290099
0.231133
0.151991
0.0728226
0.0201217
0.00165142
0.000410799
0
0
0
5.4482e-09
1.32796e-06
6.98e-06
7.51253e-06
6.28951e-06
5.97113e-06
6.06662e-06
6.12293e-06
6.10774e-06
6.1192e-06
)
;
    }
}


// ************************************************************************* //
