/*--------------------------------*- C++ -*----------------------------------*\
| =========                 |                                                 |
| \\      /  F ield         | OpenFOAM: The Open Source CFD Toolbox           |
|  \\    /   O peration     | Version:  2506                                  |
|   \\  /    A nd           | Website:  www.openfoam.com                      |
|    \\/     M anipulation  |                                                 |
\*---------------------------------------------------------------------------*/
FoamFile
{
    version     2.0;
    format      ascii;
    arch        "LSB;label=32;scalar=64";
    class       volScalarField;
    location    "500";
    object      turbulenceProperties:epsilon;
}
// * * * * * * * * * * * * * * * * * * * * * * * * * * * * * * * * * * * * * //

dimensions      [0 2 -3 0 0 0 0];

internalField   nonuniform List<scalar> 
1340
(
3.77902e-10
1.46189e-09
1.88298e-11
3.1628e-10
3.75597e-10
1.46625e-09
2.28792e-11
5.91618e-11
1.80857e-11
3.18671e-10
3.75885e-10
1.46769e-09
7.82579e-11
6.06483e-11
5.33826e-11
2.51697e-11
6.19326e-11
1.76536e-11
3.21259e-10
3.77975e-10
1.4676e-09
1.59971e-10
1.37409e-10
1.20225e-10
1.05262e-10
9.07253e-11
7.80172e-11
6.12458e-11
5.46281e-11
2.77477e-11
6.46598e-11
1.74823e-11
3.23957e-10
3.81279e-10
1.46684e-09
3.15058e-10
2.76913e-10
2.41284e-10
2.08918e-10
1.79443e-10
1.5377e-10
1.33104e-10
1.17327e-10
1.03442e-10
8.98377e-11
7.78521e-11
6.19881e-11
5.60412e-11
3.05976e-11
6.72709e-11
1.75448e-11
3.26531e-10
3.85316e-10
1.46562e-09
5.83537e-10
5.34589e-10
4.87972e-10
4.43953e-10
4.02557e-10
3.6357e-10
3.26573e-10
2.91278e-10
2.5771e-10
2.26182e-10
1.97384e-10
1.70899e-10
1.47642e-10
1.28862e-10
1.14466e-10
1.01651e-10
8.89944e-11
7.7738e-11
6.28594e-11
5.76038e-11
3.3709e-11
6.97096e-11
1.7823e-11
3.28931e-10
3.89704e-10
1.46338e-09
1.06037e-09
1.01231e-09
9.64097e-10
9.15965e-10
8.68184e-10
8.20905e-10
7.74333e-10
7.28609e-10
6.83819e-10
6.39914e-10
5.96881e-10
5.54704e-10
5.13525e-10
4.73552e-10
4.35107e-10
3.98447e-10
3.63626e-10
3.30509e-10
2.98792e-10
2.68294e-10
2.39083e-10
2.11479e-10
1.86107e-10
1.62513e-10
1.41626e-10
1.247e-10
1.11648e-10
9.98876e-11
8.81886e-11
7.767e-11
6.38557e-11
5.93074e-11
3.70725e-11
7.19154e-11
1.83066e-11
3.31064e-10
3.93873e-10
1.46086e-09
9.39658e-10
1.09346e-09
8.58179e-10
9.09635e-10
9.10972e-10
9.94701e-10
1.04131e-09
1.08855e-09
1.13061e-09
1.17106e-09
1.20884e-09
1.24365e-09
1.27442e-09
1.30115e-09
1.32464e-09
1.34349e-09
1.35826e-09
1.36902e-09
1.37589e-09
1.3791e-09
1.37871e-09
1.37496e-09
1.36828e-09
1.35888e-09
1.34698e-09
1.33279e-09
1.31665e-09
1.29882e-09
1.27927e-09
1.2584e-09
1.23617e-09
1.21277e-09
1.18832e-09
1.1628e-09
1.13637e-09
1.10904e-09
1.08077e-09
1.05176e-09
1.02181e-09
9.91051e-10
9.59583e-10
9.27289e-10
8.94279e-10
8.60565e-10
8.26344e-10
7.91614e-10
7.56558e-10
7.21404e-10
6.86243e-10
6.51278e-10
6.16665e-10
5.82427e-10
5.48555e-10
5.15052e-10
4.81881e-10
4.4916e-10
4.17062e-10
3.85855e-10
3.55771e-10
3.26889e-10
2.99134e-10
2.72295e-10
2.46272e-10
2.21164e-10
1.97274e-10
1.75153e-10
1.54331e-10
1.35751e-10
1.20629e-10
1.08876e-10
9.81501e-11
8.74107e-11
7.76402e-11
6.49734e-11
6.11484e-11
4.0679e-11
7.38485e-11
1.89829e-11
3.32697e-10
3.97592e-10
1.45843e-09
1.08831e-09
6.88351e-10
5.75518e-10
6.8594e-10
7.11622e-10
7.58148e-10
7.87228e-10
8.20017e-10
8.49878e-10
8.78675e-10
9.05351e-10
9.29692e-10
9.51462e-10
9.7055e-10
9.87183e-10
1.00067e-09
1.01142e-09
1.01964e-09
1.02509e-09
1.02802e-09
1.02865e-09
1.02704e-09
1.02341e-09
1.01801e-09
1.0109e-09
1.00231e-09
9.92502e-10
9.81409e-10
9.69269e-10
9.56206e-10
9.42221e-10
9.27464e-10
9.11911e-10
8.95673e-10
8.78743e-10
8.61091e-10
8.42792e-10
8.23819e-10
8.04116e-10
7.83697e-10
7.62562e-10
7.40727e-10
7.18109e-10
6.94759e-10
6.70816e-10
6.46204e-10
6.21136e-10
5.95712e-10
5.70051e-10
5.44322e-10
5.1863e-10
4.9299e-10
4.67399e-10
4.41849e-10
4.16275e-10
3.90763e-10
3.65433e-10
3.40516e-10
3.1621e-10
2.92602e-10
2.6967e-10
2.47277e-10
2.25376e-10
2.04074e-10
1.83654e-10
1.64591e-10
1.46397e-10
1.30041e-10
1.16658e-10
1.06145e-10
9.64326e-11
8.66512e-11
7.76457e-11
6.62064e-11
6.31226e-11
4.45067e-11
7.54779e-11
1.9814e-11
3.34118e-10
4.00417e-10
1.45715e-09
6.28822e-10
4.89033e-10
4.54117e-10
5.42209e-10
5.52722e-10
5.81217e-10
6.01944e-10
6.24583e-10
6.45494e-10
6.65342e-10
6.83383e-10
7.00217e-10
7.15141e-10
7.28228e-10
7.39517e-10
7.48897e-10
7.56348e-10
7.62209e-10
7.66206e-10
7.68414e-10
7.69249e-10
7.6863e-10
7.66701e-10
7.6345e-10
7.59274e-10
7.5415e-10
7.48108e-10
7.41319e-10
7.33863e-10
7.25785e-10
7.17138e-10
7.07997e-10
6.98317e-10
6.88181e-10
6.77597e-10
6.66513e-10
6.5494e-10
6.42858e-10
6.30242e-10
6.17018e-10
6.03212e-10
5.88789e-10
5.73641e-10
5.57888e-10
5.41479e-10
5.24415e-10
5.06884e-10
4.88901e-10
4.70604e-10
4.52112e-10
4.33488e-10
4.14759e-10
3.95913e-10
3.76891e-10
3.57619e-10
3.38158e-10
3.18577e-10
2.99042e-10
2.79743e-10
2.60777e-10
2.42144e-10
2.23762e-10
2.05615e-10
1.87828e-10
1.70627e-10
1.54408e-10
1.38703e-10
1.24487e-10
1.12765e-10
1.03429e-10
9.47186e-11
8.5893e-11
7.76768e-11
6.75566e-11
6.52344e-11
4.85324e-11
7.68045e-11
2.0805e-11
3.34425e-10
4.02985e-10
1.45795e-09
4.58199e-10
3.91395e-10
3.67701e-10
4.24937e-10
4.29779e-10
4.49529e-10
4.63957e-10
4.79341e-10
4.93403e-10
5.06729e-10
5.18866e-10
5.30085e-10
5.40062e-10
5.48805e-10
5.56355e-10
5.62713e-10
5.67748e-10
5.71763e-10
5.74574e-10
5.76251e-10
5.7705e-10
5.76923e-10
5.75905e-10
5.74105e-10
5.71798e-10
5.6873e-10
5.6516e-10
5.61191e-10
5.56717e-10
5.51897e-10
5.46703e-10
5.41243e-10
5.35393e-10
5.29302e-10
5.22894e-10
5.16143e-10
5.09071e-10
5.01633e-10
4.93767e-10
4.85475e-10
4.76699e-10
4.67394e-10
4.57534e-10
4.47121e-10
4.36101e-10
4.24557e-10
4.12542e-10
4.00099e-10
3.87357e-10
3.74377e-10
3.61223e-10
3.47893e-10
3.34379e-10
3.20547e-10
3.06371e-10
2.91851e-10
2.7697e-10
2.61938e-10
2.46881e-10
2.31872e-10
2.16978e-10
2.02139e-10
1.87331e-10
1.727e-10
1.58415e-10
1.44788e-10
1.3139e-10
1.1918e-10
1.09018e-10
1.00787e-10
9.30433e-11
8.51556e-11
7.77566e-11
6.90256e-11
6.74875e-11
5.26616e-11
7.78612e-11
2.17599e-11
3.34073e-10
4.04046e-10
1.465e-09
3.58693e-10
3.07388e-10
2.87156e-10
3.25756e-10
3.28844e-10
3.42248e-10
3.51776e-10
3.61895e-10
3.70935e-10
3.79708e-10
3.87629e-10
3.94861e-10
4.01424e-10
4.07057e-10
4.12018e-10
4.16286e-10
4.19649e-10
4.22309e-10
4.24337e-10
4.25653e-10
4.26416e-10
4.26581e-10
4.26224e-10
4.25476e-10
4.24296e-10
4.22708e-10
4.20948e-10
4.18842e-10
4.16417e-10
4.13789e-10
4.11111e-10
4.08143e-10
4.05046e-10
4.01664e-10
3.98161e-10
3.94642e-10
3.90623e-10
3.86445e-10
3.82022e-10
3.77289e-10
3.7209e-10
3.66573e-10
3.60578e-10
3.54053e-10
3.47171e-10
3.39738e-10
3.31932e-10
3.23806e-10
3.15339e-10
3.0673e-10
2.97909e-10
2.88891e-10
2.79705e-10
2.70125e-10
2.60121e-10
2.49736e-10
2.38842e-10
2.27622e-10
2.16263e-10
2.04727e-10
1.93153e-10
1.81536e-10
1.69787e-10
1.58067e-10
1.46505e-10
1.35335e-10
1.24134e-10
1.1387e-10
1.05222e-10
9.80796e-11
9.12994e-11
8.43733e-11
7.78726e-11
7.06359e-11
6.99605e-11
5.70184e-11
7.8629e-11
2.36176e-11
3.29913e-10
4.08259e-10
1.47288e-09
2.62399e-10
2.24864e-10
2.0935e-10
2.34629e-10
2.35695e-10
2.44055e-10
2.49411e-10
2.5483e-10
2.60607e-10
2.65276e-10
2.69717e-10
2.74285e-10
2.77865e-10
2.8096e-10
2.84107e-10
2.86818e-10
2.88491e-10
2.90448e-10
2.91809e-10
2.92799e-10
2.93642e-10
2.93865e-10
2.94187e-10
2.94272e-10
2.93914e-10
2.93578e-10
2.93134e-10
2.9251e-10
2.91792e-10
2.90817e-10
2.9009e-10
2.89211e-10
2.88145e-10
2.86856e-10
2.85865e-10
2.84686e-10
2.8314e-10
2.81532e-10
2.79854e-10
2.77937e-10
2.75603e-10
2.73211e-10
2.70202e-10
2.66974e-10
2.63525e-10
2.59448e-10
2.55248e-10
2.50832e-10
2.46015e-10
2.41239e-10
2.36241e-10
2.31015e-10
2.25746e-10
2.19995e-10
2.13786e-10
2.07193e-10
2.00066e-10
1.92435e-10
1.84609e-10
1.76512e-10
1.68243e-10
1.59854e-10
1.51223e-10
1.42509e-10
1.33763e-10
1.25139e-10
1.16267e-10
1.08097e-10
1.01048e-10
9.50627e-11
8.93564e-11
8.35292e-11
7.80892e-11
7.26762e-11
7.28025e-11
6.23647e-11
7.79943e-11
2.74589e-11
3.17526e-10
4.00826e-10
1.37588e-09
1.7669e-10
1.5487e-10
1.45308e-10
1.59503e-10
1.59605e-10
1.64109e-10
1.66399e-10
1.69104e-10
1.72107e-10
1.74163e-10
1.76485e-10
1.78867e-10
1.8051e-10
1.82046e-10
1.83924e-10
1.8532e-10
1.86142e-10
1.87524e-10
1.88217e-10
1.89099e-10
1.89898e-10
1.90075e-10
1.90743e-10
1.91341e-10
1.91439e-10
1.91836e-10
1.92058e-10
1.92323e-10
1.92682e-10
1.92803e-10
1.93055e-10
1.93442e-10
1.93573e-10
1.93701e-10
1.94157e-10
1.94269e-10
1.94354e-10
1.9441e-10
1.94421e-10
1.94215e-10
1.93882e-10
1.9337e-10
1.92496e-10
1.91637e-10
1.90371e-10
1.88866e-10
1.87332e-10
1.85598e-10
1.83681e-10
1.81808e-10
1.79858e-10
1.77698e-10
1.75508e-10
1.72912e-10
1.69899e-10
1.66469e-10
1.62539e-10
1.58125e-10
1.53465e-10
1.48525e-10
1.43372e-10
1.38026e-10
1.32413e-10
1.26612e-10
1.20607e-10
1.1451e-10
1.08016e-10
1.01971e-10
9.65502e-11
9.17788e-11
8.72367e-11
8.26438e-11
7.85014e-11
7.51833e-11
7.62242e-11
6.83345e-11
7.68938e-11
3.19934e-11
3.16965e-10
3.94408e-10
1.37234e-09
1.1784e-10
1.04643e-10
9.82173e-11
1.06421e-10
1.06249e-10
1.08182e-10
1.09347e-10
1.10971e-10
1.11815e-10
1.13077e-10
1.14415e-10
1.15319e-10
1.16171e-10
1.17098e-10
1.18162e-10
1.18707e-10
1.19494e-10
1.2026e-10
1.20657e-10
1.21469e-10
1.2212e-10
1.22403e-10
1.23087e-10
1.23704e-10
1.24045e-10
1.24806e-10
1.25283e-10
1.25824e-10
1.26579e-10
1.27197e-10
1.27817e-10
1.28687e-10
1.29341e-10
1.30084e-10
1.31036e-10
1.3175e-10
1.32524e-10
1.33337e-10
1.3406e-10
1.34659e-10
1.35274e-10
1.35668e-10
1.36003e-10
1.36281e-10
1.36256e-10
1.36267e-10
1.36247e-10
1.36117e-10
1.35999e-10
1.359e-10
1.35862e-10
1.35688e-10
1.3542e-10
1.34948e-10
1.3406e-10
1.32821e-10
1.31175e-10
1.29114e-10
1.26861e-10
1.24356e-10
1.2165e-10
1.18774e-10
1.15628e-10
1.12218e-10
1.08546e-10
1.04633e-10
1.0025e-10
9.61127e-11
9.21739e-11
8.85613e-11
8.51871e-11
8.18627e-11
7.9177e-11
7.80105e-11
8.01194e-11
7.42806e-11
7.64481e-11
3.68618e-11
3.22858e-10
3.74386e-10
1.37156e-09
7.84293e-11
6.27815e-11
6.94661e-11
6.44054e-11
7.01453e-11
6.94041e-11
7.03329e-11
7.11166e-11
7.18453e-11
7.22098e-11
7.2872e-11
7.36131e-11
7.41298e-11
7.45624e-11
7.51945e-11
7.58599e-11
7.6141e-11
7.68151e-11
7.73277e-11
7.7745e-11
7.84172e-11
7.88732e-11
7.94231e-11
7.99902e-11
8.05901e-11
8.11828e-11
8.19026e-11
8.25652e-11
8.32211e-11
8.4094e-11
8.48872e-11
8.5663e-11
8.6694e-11
8.75352e-11
8.85131e-11
8.96266e-11
9.05452e-11
9.16082e-11
9.2685e-11
9.36641e-11
9.46626e-11
9.56215e-11
9.65012e-11
9.73771e-11
9.81524e-11
9.88996e-11
9.96541e-11
1.00427e-10
1.01233e-10
1.02094e-10
1.03004e-10
1.0401e-10
1.04954e-10
1.05801e-10
1.06539e-10
1.06919e-10
1.07039e-10
1.06866e-10
1.06367e-10
1.05751e-10
1.04967e-10
1.04018e-10
1.02944e-10
1.01624e-10
1.00034e-10
9.81748e-11
9.60089e-11
9.33616e-11
9.08134e-11
8.81419e-11
8.55794e-11
8.33265e-11
8.1268e-11
8.01429e-11
8.11122e-11
8.43e-11
7.99124e-11
7.65149e-11
4.32947e-11
3.32171e-10
3.49433e-10
1.36994e-09
5.14306e-11
4.09039e-11
4.50537e-11
4.1482e-11
4.54138e-11
4.47236e-11
4.53788e-11
4.56171e-11
4.60708e-11
4.64066e-11
4.66273e-11
4.70892e-11
4.74347e-11
4.78229e-11
4.81981e-11
4.85849e-11
4.89176e-11
4.94178e-11
4.98678e-11
5.02539e-11
5.07349e-11
5.11852e-11
5.18184e-11
5.22809e-11
5.28843e-11
5.34943e-11
5.41281e-11
5.48947e-11
5.55469e-11
5.63802e-11
5.71791e-11
5.80471e-11
5.9012e-11
5.99034e-11
6.09184e-11
6.20027e-11
6.30239e-11
6.40864e-11
6.52361e-11
6.6321e-11
6.74339e-11
6.85593e-11
6.96258e-11
7.07458e-11
7.18396e-11
7.29714e-11
7.41324e-11
7.53422e-11
7.66733e-11
7.8079e-11
7.95264e-11
8.10879e-11
8.26375e-11
8.40945e-11
8.55104e-11
8.66459e-11
8.75926e-11
8.83634e-11
8.89214e-11
8.94213e-11
8.98266e-11
9.01302e-11
9.03363e-11
9.03585e-11
9.01311e-11
8.96485e-11
8.88638e-11
8.76254e-11
8.63792e-11
8.4784e-11
8.31753e-11
8.19705e-11
8.11545e-11
8.1642e-11
8.46724e-11
8.88256e-11
8.53309e-11
7.74811e-11
5.27809e-11
3.45163e-10
3.21332e-10
1.37032e-09
3.28015e-11
2.60191e-11
2.8431e-11
2.60969e-11
2.86676e-11
2.82883e-11
2.86845e-11
2.88691e-11
2.92339e-11
2.93477e-11
2.96043e-11
2.99767e-11
3.01907e-11
3.05304e-11
3.08508e-11
3.11174e-11
3.15096e-11
3.18941e-11
3.23017e-11
3.26403e-11
3.30919e-11
3.35913e-11
3.4049e-11
3.45548e-11
3.51412e-11
3.5646e-11
3.63058e-11
3.70017e-11
3.75935e-11
3.8374e-11
3.91102e-11
3.99405e-11
4.08e-11
4.16162e-11
4.25676e-11
4.35774e-11
4.44926e-11
4.55101e-11
4.65951e-11
4.76247e-11
4.87005e-11
4.9855e-11
5.09337e-11
5.20932e-11
5.33367e-11
5.45649e-11
5.59038e-11
5.72974e-11
5.88308e-11
6.04357e-11
6.20965e-11
6.38908e-11
6.56612e-11
6.73947e-11
6.91301e-11
7.06741e-11
7.21091e-11
7.34737e-11
7.47328e-11
7.59873e-11
7.71971e-11
7.8381e-11
7.95122e-11
8.0494e-11
8.12928e-11
8.18691e-11
8.217e-11
8.20722e-11
8.18719e-11
8.11926e-11
8.04864e-11
8.03202e-11
8.07701e-11
8.29257e-11
8.7847e-11
9.25709e-11
8.92388e-11
7.83424e-11
6.49201e-11
3.61697e-10
2.88357e-10
1.37818e-09
2.30328e-11
1.8502e-11
2.02128e-11
1.85096e-11
2.03758e-11
2.00912e-11
2.02584e-11
2.05074e-11
2.06947e-11
2.07593e-11
2.09892e-11
2.12285e-11
2.13915e-11
2.15921e-11
2.18671e-11
2.20646e-11
2.23804e-11
2.26756e-11
2.29287e-11
2.32322e-11
2.36189e-11
2.40122e-11
2.43306e-11
2.47355e-11
2.52717e-11
2.56543e-11
2.61803e-11
2.67488e-11
2.72718e-11
2.7887e-11
2.853e-11
2.92147e-11
2.99393e-11
3.06612e-11
3.14887e-11
3.23476e-11
3.31713e-11
3.41165e-11
3.50854e-11
3.60807e-11
3.70857e-11
3.82231e-11
3.93261e-11
4.05161e-11
4.18076e-11
4.30832e-11
4.45296e-11
4.59966e-11
4.75851e-11
4.92569e-11
5.09946e-11
5.2833e-11
5.46689e-11
5.65462e-11
5.84127e-11
6.02022e-11
6.19677e-11
6.37148e-11
6.54364e-11
6.71965e-11
6.8943e-11
7.07156e-11
7.24748e-11
7.4117e-11
7.56688e-11
7.70377e-11
7.8167e-11
7.89802e-11
7.9661e-11
7.98018e-11
7.98697e-11
8.05496e-11
8.2049e-11
8.56477e-11
9.20657e-11
9.70376e-11
9.38966e-11
8.28593e-11
8.51433e-11
3.88024e-10
2.59273e-10
1.41556e-09
1.52832e-11
1.21587e-11
1.32764e-11
1.20576e-11
1.3622e-11
1.33923e-11
1.3633e-11
1.38432e-11
1.3916e-11
1.40393e-11
1.43064e-11
1.45197e-11
1.46976e-11
1.48604e-11
1.51064e-11
1.53718e-11
1.56421e-11
1.58781e-11
1.61005e-11
1.64841e-11
1.67841e-11
1.71125e-11
1.74419e-11
1.77818e-11
1.82608e-11
1.86285e-11
1.90558e-11
1.95212e-11
2.00158e-11
2.05297e-11
2.10419e-11
2.1652e-11
2.22181e-11
2.28453e-11
2.35393e-11
2.42203e-11
2.4939e-11
2.56913e-11
2.65405e-11
2.73837e-11
2.8235e-11
2.92231e-11
3.02081e-11
3.12565e-11
3.23738e-11
3.35538e-11
3.48144e-11
3.61205e-11
3.7515e-11
3.89744e-11
4.0524e-11
4.21203e-11
4.37849e-11
4.55082e-11
4.72433e-11
4.89993e-11
5.07995e-11
5.26343e-11
5.44948e-11
5.64431e-11
5.84159e-11
6.04627e-11
6.25314e-11
6.45498e-11
6.65436e-11
6.83915e-11
7.00546e-11
7.14532e-11
7.25823e-11
7.31884e-11
7.40014e-11
7.56574e-11
7.84682e-11
8.37317e-11
9.12445e-11
9.51118e-11
9.03614e-11
8.03011e-11
9.98498e-11
4.04833e-10
2.13327e-10
1.48221e-09
1.69537e-11
1.46391e-11
1.54968e-11
1.45351e-11
1.53705e-11
1.51896e-11
1.53937e-11
1.55022e-11
1.54732e-11
1.55586e-11
1.57416e-11
1.58927e-11
1.59884e-11
1.60528e-11
1.62244e-11
1.64065e-11
1.65619e-11
1.67122e-11
1.68452e-11
1.71308e-11
1.73328e-11
1.75206e-11
1.77664e-11
1.80246e-11
1.83534e-11
1.86425e-11
1.89804e-11
1.93258e-11
1.97362e-11
2.01683e-11
2.05979e-11
2.11394e-11
2.16455e-11
2.22511e-11
2.28999e-11
2.35854e-11
2.43255e-11
2.51134e-11
2.60286e-11
2.69278e-11
2.79236e-11
2.89973e-11
3.00997e-11
3.12603e-11
3.24827e-11
3.37575e-11
3.50312e-11
3.6386e-11
3.77665e-11
3.9202e-11
4.07438e-11
4.23417e-11
4.40699e-11
4.5874e-11
4.77747e-11
4.97387e-11
5.17607e-11
5.3827e-11
5.58838e-11
5.8002e-11
6.01283e-11
6.23281e-11
6.45742e-11
6.68318e-11
6.91064e-11
7.12902e-11
7.33793e-11
7.53259e-11
7.72341e-11
7.86574e-11
7.98371e-11
8.1574e-11
8.42982e-11
8.93413e-11
9.63698e-11
9.96239e-11
9.72572e-11
9.68515e-11
1.47097e-10
4.5227e-10
2.27748e-10
1.78924e-09
9.7735e-12
1.00067e-11
9.77476e-12
1.02289e-11
1.04426e-11
1.05167e-11
1.064e-11
1.073e-11
1.08692e-11
1.10175e-11
1.11096e-11
1.12568e-11
1.14059e-11
1.15631e-11
1.17178e-11
1.18686e-11
1.20548e-11
1.2232e-11
1.24152e-11
1.26235e-11
1.28143e-11
1.304e-11
1.32535e-11
1.34854e-11
1.37399e-11
1.40034e-11
1.42737e-11
1.45495e-11
1.48651e-11
1.51741e-11
1.55115e-11
1.58707e-11
1.62321e-11
1.66408e-11
1.70509e-11
1.75025e-11
1.79693e-11
1.84635e-11
1.8992e-11
1.95209e-11
2.00955e-11
2.0675e-11
2.12641e-11
2.18621e-11
2.24828e-11
2.30952e-11
2.37187e-11
2.43818e-11
2.50668e-11
2.5822e-11
2.66401e-11
2.7542e-11
2.85416e-11
2.96054e-11
3.07634e-11
3.19791e-11
3.32747e-11
3.46324e-11
3.60502e-11
3.759e-11
3.92125e-11
4.09564e-11
4.27877e-11
4.46821e-11
4.6619e-11
4.84937e-11
5.0294e-11
5.19249e-11
5.28586e-11
5.32428e-11
5.46377e-11
5.75951e-11
6.23676e-11
6.99863e-11
7.75065e-11
7.6547e-11
6.79212e-11
7.07944e-11
1.41029e-10
3.29285e-10
1.87275e-10
1.81599e-09
)
;

boundaryField
{
    inlet
    {
        type            calculated;
        value           nonuniform List<scalar> 
23
(
2.36903e-08
2.34545e-08
2.32273e-08
2.30077e-08
2.27909e-08
2.25717e-08
2.23439e-08
2.21031e-08
2.18431e-08
2.15587e-08
2.1243e-08
2.08989e-08
2.05086e-08
1.99069e-08
1.9411e-08
1.88131e-08
1.8082e-08
1.72108e-08
1.61918e-08
1.5034e-08
1.3713e-08
1.27338e-08
1.09906e-08
)
;
    }
    outlet
    {
        type            calculated;
        value           nonuniform List<scalar> 
82
(
6.20755e-12
6.18538e-12
6.46154e-12
6.61072e-12
6.80004e-12
6.84816e-12
6.94327e-12
7.00593e-12
7.11497e-12
7.23221e-12
7.29418e-12
7.4077e-12
7.52348e-12
7.64499e-12
7.76393e-12
7.87763e-12
8.02463e-12
8.16229e-12
8.30366e-12
8.46979e-12
8.61655e-12
8.79526e-12
8.96204e-12
9.14416e-12
9.34674e-12
9.55549e-12
9.76922e-12
9.98443e-12
1.02362e-11
1.04777e-11
1.07419e-11
1.10239e-11
1.13016e-11
1.16207e-11
1.19337e-11
1.22801e-11
1.26341e-11
1.30064e-11
1.3405e-11
1.37944e-11
1.42227e-11
1.46488e-11
1.50788e-11
1.55137e-11
1.59692e-11
1.64166e-11
1.68751e-11
1.73747e-11
1.78953e-11
1.84823e-11
1.91236e-11
1.9834e-11
2.06228e-11
2.14539e-11
2.23574e-11
2.33036e-11
2.43245e-11
2.54168e-11
2.65899e-11
2.79133e-11
2.93473e-11
3.09206e-11
3.25891e-11
3.43183e-11
3.60871e-11
3.77864e-11
3.93784e-11
4.07227e-11
4.1262e-11
4.13267e-11
4.26087e-11
4.5653e-11
5.0851e-11
5.92122e-11
6.73289e-11
6.57676e-11
5.41835e-11
5.20874e-11
1.13493e-10
3.04988e-10
1.23861e-10
1.49355e-09
)
;
    }
    walls
    {
        type            calculated;
        value           nonuniform List<scalar> 0();
    }
    frontAndBack
    {
        type            empty;
    }
    procBoundary3to2
    {
        type            processor;
        value           nonuniform List<scalar> 
88
(
3.83368e-10
1.4564e-09
1.99023e-11
3.13624e-10
3.13624e-10
2.08761e-11
5.63907e-11
5.63907e-11
7.86171e-11
6.02241e-11
5.23345e-11
5.23345e-11
1.66254e-10
1.41792e-10
1.23185e-10
1.07136e-10
9.1683e-11
9.1683e-11
3.3943e-10
2.9653e-10
2.56669e-10
2.20628e-10
1.88088e-10
1.88088e-10
6.58698e-10
5.99742e-10
5.44061e-10
4.91946e-10
4.43385e-10
3.98064e-10
3.55431e-10
3.55431e-10
1.29816e-09
1.23171e-09
1.16587e-09
1.10093e-09
1.03708e-09
9.74633e-10
9.13747e-10
8.54522e-10
7.97068e-10
7.41246e-10
6.87056e-10
6.34444e-10
6.34444e-10
6.6709e-10
1.34177e-09
1.4806e-09
1.2308e-09
1.31073e-09
1.39348e-09
1.46505e-09
1.52669e-09
1.58259e-09
1.63344e-09
1.68166e-09
1.72402e-09
1.76049e-09
1.79178e-09
1.81663e-09
1.83596e-09
1.84915e-09
1.85639e-09
1.85845e-09
1.85524e-09
1.84726e-09
1.83489e-09
1.8183e-09
1.79823e-09
1.77508e-09
1.74875e-09
1.71995e-09
1.68896e-09
1.65592e-09
1.62105e-09
1.58445e-09
1.54659e-09
1.50724e-09
1.4666e-09
1.42503e-09
1.38223e-09
1.33856e-09
1.29399e-09
1.2485e-09
1.20237e-09
1.15557e-09
1.10818e-09
1.10818e-09
)
;
    }
    procBoundary3to6
    {
        type            processor;
        value           uniform 1.98638e-12;
    }
    procBoundary3to7
    {
        type            processor;
        value           nonuniform List<scalar> 
16
(
1.9724e-14
4.88247e-10
5.18849e-10
3.18444e-10
2.44376e-10
1.89561e-10
1.35567e-10
9.36356e-11
9.36356e-11
6.1556e-11
4.02649e-11
2.55504e-11
1.81251e-11
1.20929e-11
1.40884e-11
1.03215e-11
)
;
    }
}


// ************************************************************************* //
