/*--------------------------------*- C++ -*----------------------------------*\
| =========                 |                                                 |
| \\      /  F ield         | OpenFOAM: The Open Source CFD Toolbox           |
|  \\    /   O peration     | Version:  2506                                  |
|   \\  /    A nd           | Website:  www.openfoam.com                      |
|    \\/     M anipulation  |                                                 |
\*---------------------------------------------------------------------------*/
FoamFile
{
    version     2.0;
    format      ascii;
    arch        "LSB;label=32;scalar=64";
    class       volSymmTensorField;
    location    "500";
    object      turbulenceProperties:devReff;
}
// * * * * * * * * * * * * * * * * * * * * * * * * * * * * * * * * * * * * * //

dimensions      [0 2 -2 0 0 0 0];

internalField   nonuniform List<symmTensor> 
1340
(
(5.37936e-08 7.83548e-08 -1.08995e-19 -1.24337e-07 -1.41107e-20 7.05433e-08)
(-2.12354e-07 9.58357e-08 5.5125e-20 3.08588e-07 6.39378e-21 -9.62347e-08)
(-2.88006e-09 -4.73486e-09 -2.14058e-19 -1.9882e-08 -2.67798e-20 2.2762e-08)
(-1.05849e-07 2.60438e-08 -3.34988e-20 1.49203e-07 -3.78754e-21 -4.33538e-08)
(4.76664e-08 8.19755e-08 1.61181e-20 -1.18998e-07 1.74041e-21 7.13317e-08)
(-2.10974e-07 9.49117e-08 -2.21446e-19 3.08908e-07 -2.50566e-20 -9.79341e-08)
(-4.07101e-08 -3.78708e-09 -0 3.57388e-08 -1.31778e-22 4.97136e-09)
(-5.34764e-08 -1.42763e-08 -7.23723e-20 6.4518e-08 -8.54497e-21 -1.10416e-08)
(-6.37937e-09 -3.73552e-09 2.03428e-19 -1.64373e-08 2.55177e-20 2.28167e-08)
(-1.06187e-07 2.46411e-08 1.02477e-19 1.49982e-07 1.21099e-20 -4.37957e-08)
(4.13803e-08 8.5114e-08 3.44229e-23 -1.1396e-07 2.0267e-22 7.25801e-08)
(-2.08347e-07 9.34515e-08 1.8243e-19 3.08737e-07 2.04866e-20 -1.00391e-07)
(-6.987e-08 1.85038e-08 -9.23559e-20 7.01167e-08 -1.10934e-20 -2.46726e-10)
(-6.2627e-08 1.35765e-08 1.90981e-21 6.18839e-08 4.69761e-22 7.43084e-10)
(-5.85372e-08 4.27674e-09 1.26071e-20 6.05592e-08 1.50354e-21 -2.02202e-09)
(-4.22644e-08 -6.70955e-09 -0 3.73652e-08 -2.65051e-23 4.89914e-09)
(-5.42718e-08 -1.7431e-08 -3.30462e-22 6.5229e-08 -5.78757e-23 -1.09572e-08)
(-9.8948e-09 -2.85396e-09 1.45745e-21 -1.29205e-08 2.50725e-22 2.28153e-08)
(-1.06485e-07 2.37291e-08 8.56853e-22 1.50706e-07 1.58427e-22 -4.42211e-08)
(3.56179e-08 8.79116e-08 7.54802e-24 -1.09481e-07 6.55837e-24 7.38629e-08)
(-2.05847e-07 9.09633e-08 9.8468e-22 3.08673e-07 1.81241e-22 -1.02826e-07)
(-1.00521e-07 2.47362e-08 6.55341e-21 1.00551e-07 1.03042e-21 -3.03215e-11)
(-9.33475e-08 2.21181e-08 2.78108e-20 9.33803e-08 3.36688e-21 -3.27918e-11)
(-8.74707e-08 2.01591e-08 2.82607e-20 8.74302e-08 2.85832e-21 4.04889e-11)
(-8.18298e-08 1.87681e-08 -9.8339e-20 8.18641e-08 -1.17814e-20 -3.42814e-11)
(-7.60824e-08 1.71263e-08 2.56715e-20 7.60192e-08 3.32419e-21 6.3188e-11)
(-7.06976e-08 1.45073e-08 -3.91729e-20 7.09317e-08 -4.82829e-21 -2.34106e-10)
(-6.3635e-08 9.80079e-09 2.53569e-22 6.29179e-08 3.61293e-22 7.17102e-10)
(-5.94169e-08 4.17468e-10 9.31706e-20 6.13772e-08 1.13277e-20 -1.96037e-09)
(-4.37458e-08 -9.75492e-09 -0 3.89545e-08 -1.89277e-22 4.79125e-09)
(-5.49878e-08 -2.04212e-08 5.3934e-21 6.57904e-08 3.70864e-22 -1.08025e-08)
(-1.33405e-08 -2.04562e-09 -1.85954e-19 -9.38548e-09 -2.3263e-20 2.27259e-08)
(-1.06878e-07 2.31771e-08 -9.35473e-20 1.51413e-07 -1.10696e-20 -4.45345e-08)
(3.05728e-08 9.04955e-08 -6.09911e-21 -1.05588e-07 -6.02338e-22 7.5015e-08)
(-2.03859e-07 8.73933e-08 2.40771e-20 3.08903e-07 2.73424e-21 -1.05044e-07)
(-1.43535e-07 2.30266e-08 5.43496e-20 1.43529e-07 5.65771e-21 5.73617e-12)
(-1.34269e-07 2.32871e-08 -5.01976e-20 1.34265e-07 -6.12776e-21 4.25151e-12)
(-1.25153e-07 2.27081e-08 -1.30757e-20 1.25142e-07 -1.63246e-21 1.09707e-11)
(-1.16344e-07 2.15944e-08 -8.11943e-20 1.16364e-07 -9.45931e-21 -1.98339e-11)
(-1.07805e-07 2.02354e-08 -1.8781e-20 1.07756e-07 -1.81908e-21 4.89709e-11)
(-9.97594e-08 1.86844e-08 1.31665e-20 9.97839e-08 1.64181e-21 -2.44674e-11)
(-9.29568e-08 1.65548e-08 6.71978e-21 9.29817e-08 7.39943e-22 -2.48288e-11)
(-8.73877e-08 1.5064e-08 1.3821e-22 8.73424e-08 6.77894e-23 4.53073e-11)
(-8.20242e-08 1.40978e-08 1.6451e-20 8.20528e-08 1.78599e-21 -2.85549e-11)
(-7.65344e-08 1.28308e-08 -4.50506e-20 7.64724e-08 -5.18292e-21 6.19882e-11)
(-7.13349e-08 1.04823e-08 8.55612e-20 7.15506e-08 1.02943e-20 -2.15637e-10)
(-6.44829e-08 5.9473e-09 -5.55051e-20 6.38009e-08 -7.18576e-21 6.82048e-10)
(-6.01427e-08 -3.48617e-09 -8.79579e-20 6.20192e-08 -1.05065e-20 -1.87651e-09)
(-4.5125e-08 -1.29063e-08 -0 4.0482e-08 1.92738e-22 4.64303e-09)
(-5.56135e-08 -2.32371e-08 -5.1327e-21 6.6193e-08 -3.35827e-22 -1.05796e-08)
(-1.66929e-08 -1.27876e-09 1.7651e-19 -5.84854e-09 2.20202e-20 2.25415e-08)
(-1.07323e-07 2.29255e-08 8.83913e-20 1.52058e-07 1.04046e-20 -4.47354e-08)
(2.60955e-08 9.28603e-08 5.80308e-21 -1.02159e-07 5.7535e-22 7.60634e-08)
(-2.02191e-07 8.28353e-08 -2.2655e-20 3.09347e-07 -2.55381e-21 -1.07155e-07)
(-1.97485e-07 -1.17621e-08 -5.87743e-21 1.97468e-07 -9.88507e-22 1.67647e-11)
(-1.89252e-07 -6.61361e-09 -3.17898e-20 1.89236e-07 -3.85976e-21 1.58377e-11)
(-1.80922e-07 -1.84628e-09 -5.67372e-20 1.80908e-07 -5.88757e-21 1.39141e-11)
(-1.72563e-07 2.61823e-09 2.00725e-20 1.72552e-07 2.58912e-21 1.14119e-11)
(-1.64205e-07 6.72367e-09 -5.17877e-21 1.64194e-07 -5.54497e-22 1.08977e-11)
(-1.55841e-07 1.02592e-08 2.59262e-20 1.55832e-07 3.3685e-21 9.41469e-12)
(-1.47443e-07 1.29703e-08 6.69692e-20 1.47434e-07 7.44957e-21 8.51884e-12)
(-1.39003e-07 1.46729e-08 3.69741e-22 1.38996e-07 -1.10707e-22 6.72877e-12)
(-1.3056e-07 1.53795e-08 3.956e-20 1.30554e-07 4.51275e-21 6.15793e-12)
(-1.22197e-07 1.52883e-08 -3.62578e-21 1.22186e-07 -5.81166e-22 1.18135e-11)
(-1.14073e-07 1.46973e-08 3.47332e-21 1.14092e-07 5.52964e-22 -1.86496e-11)
(-1.06144e-07 1.38602e-08 3.5718e-20 1.06093e-07 4.09046e-21 5.09684e-11)
(-9.86245e-08 1.27784e-08 -1.23872e-20 9.86488e-08 -1.61429e-21 -2.43275e-11)
(-9.22359e-08 1.11067e-08 -6.22964e-21 9.22576e-08 -6.8044e-22 -2.17094e-11)
(-8.70084e-08 1.00583e-08 2.06699e-22 8.69629e-08 7.07659e-23 4.55116e-11)
(-8.19553e-08 9.48829e-09 -1.23355e-22 8.19815e-08 -1.00264e-23 -2.62752e-11)
(-7.67572e-08 8.5653e-09 -3.61227e-22 7.67012e-08 -2.12688e-22 5.60943e-11)
(-7.17657e-08 6.45592e-09 -4.66522e-20 7.19622e-08 -5.44008e-21 -1.96494e-10)
(-6.51533e-08 2.03736e-09 5.27883e-20 6.45176e-08 6.50102e-21 6.35687e-10)
(-6.07013e-08 -7.41786e-09 -3.5197e-22 6.2476e-08 -2.00818e-22 -1.77463e-09)
(-4.63855e-08 -1.61446e-08 -0 4.19312e-08 1.18697e-23 4.45431e-09)
(-5.61465e-08 -2.58642e-08 4.87305e-21 6.64383e-08 2.9801e-22 -1.02919e-08)
(-1.99575e-08 -5.36468e-10 -1.79913e-19 -2.30001e-09 -2.22419e-20 2.22575e-08)
(-1.078e-07 2.29476e-08 2.96237e-22 1.52635e-07 3.10482e-22 -4.48349e-08)
(2.20808e-08 9.49807e-08 -1.65046e-20 -9.91105e-08 -2.13023e-21 7.70297e-08)
(-2.00707e-07 7.73229e-08 -1.23906e-22 3.09875e-07 -9.04601e-24 -1.09168e-07)
(-2.38474e-07 -1.19131e-07 5.6407e-21 2.38457e-07 5.44168e-23 1.68505e-11)
(-2.36185e-07 -1.09823e-07 -3.55216e-20 2.36168e-07 -3.72103e-21 1.6189e-11)
(-2.33484e-07 -1.00512e-07 -7.10757e-22 2.33463e-07 7.93645e-22 2.05405e-11)
(-2.30382e-07 -9.12101e-08 3.22539e-20 2.30359e-07 2.91545e-21 2.2844e-11)
(-2.26881e-07 -8.19744e-08 -3.44358e-20 2.2686e-07 -3.90456e-21 2.08416e-11)
(-2.22975e-07 -7.28711e-08 6.28457e-21 2.22954e-07 1.10239e-21 2.12287e-11)
(-2.18668e-07 -6.39783e-08 2.43392e-21 2.18647e-07 1.22155e-22 2.09744e-11)
(-2.13952e-07 -5.54178e-08 -5.83991e-21 2.13931e-07 -2.2707e-22 2.10677e-11)
(-2.08825e-07 -4.73123e-08 4.08002e-20 2.08806e-07 4.9695e-21 1.87154e-11)
(-2.03283e-07 -3.97765e-08 5.7358e-20 2.03265e-07 5.78546e-21 1.7908e-11)
(-1.97339e-07 -3.28924e-08 4.2668e-21 1.97323e-07 6.21455e-23 1.64866e-11)
(-1.91023e-07 -2.6661e-08 1.508e-20 1.91007e-07 1.45821e-21 1.60628e-11)
(-1.84395e-07 -2.10057e-08 -1.6261e-20 1.84382e-07 -1.8975e-21 1.35155e-11)
(-1.77528e-07 -1.57883e-08 -1.80415e-22 1.77516e-07 7.56251e-22 1.26518e-11)
(-1.70504e-07 -1.08641e-08 8.55393e-20 1.70492e-07 9.41641e-21 1.15847e-11)
(-1.63382e-07 -6.18197e-09 1.17321e-22 1.63372e-07 -9.29245e-22 9.53764e-12)
(-1.56182e-07 -1.83318e-09 -4.86891e-20 1.56173e-07 -5.51507e-21 9.10014e-12)
(-1.48894e-07 1.95782e-09 -9.94762e-21 1.48886e-07 -1.07801e-21 7.84191e-12)
(-1.41489e-07 4.93282e-09 -4.57594e-20 1.41482e-07 -5.17026e-21 6.93044e-12)
(-1.33966e-07 6.93173e-09 -1.07599e-20 1.3396e-07 -9.66837e-22 5.25197e-12)
(-1.26369e-07 7.97867e-09 3.669e-22 1.26364e-07 -1.38437e-22 5.11531e-12)
(-1.18789e-07 8.28553e-09 -5.6412e-20 1.18778e-07 -6.49706e-21 1.04225e-11)
(-1.11382e-07 8.13702e-09 -3.71466e-21 1.11402e-07 -2.30794e-22 -1.9559e-11)
(-1.04096e-07 7.74762e-09 -1.37225e-20 1.04045e-07 -1.58707e-21 5.05718e-11)
(-9.71412e-08 7.07499e-09 -1.02843e-22 9.71673e-08 6.1723e-23 -2.6118e-11)
(-9.12026e-08 5.82481e-09 5.93137e-21 9.12225e-08 4.77487e-22 -1.99585e-11)
(-8.63458e-08 5.188e-09 -4.81111e-20 8.63018e-08 -5.53996e-21 4.40523e-11)
(-8.16315e-08 4.97926e-09 4.37368e-20 8.16566e-08 5.53719e-21 -2.50858e-11)
(-7.67544e-08 4.36338e-09 4.02292e-20 7.67061e-08 4.88405e-21 4.82829e-11)
(-7.19907e-08 2.45276e-09 7.31885e-20 7.21664e-08 8.4087e-21 -1.75697e-10)
(-6.56414e-08 -1.90936e-09 -8.51284e-20 6.50603e-08 -1.04683e-20 5.81134e-10)
(-6.10892e-08 -1.13624e-08 -1.45523e-22 6.27448e-08 1.90892e-22 -1.65553e-09)
(-4.75192e-08 -1.94493e-08 -0 4.32912e-08 -7.1407e-24 4.22803e-09)
(-5.65874e-08 -2.82863e-08 -4.59676e-21 6.6525e-08 -4.70004e-22 -9.93763e-09)
(-2.31307e-08 2.03371e-10 4.59484e-20 1.25769e-09 5.666e-21 2.1873e-08)
(-1.08316e-07 2.32069e-08 1.97308e-20 1.5313e-07 2.31441e-21 -4.48141e-08)
(1.84887e-08 9.68618e-08 -1.93441e-20 -9.63503e-08 -2.52921e-21 7.78615e-08)
(-1.9952e-07 7.08362e-08 4.97996e-24 3.10552e-07 1.71594e-23 -1.11032e-07)
(-1.91531e-07 -1.39566e-07 3.75411e-21 2.26033e-07 4.96914e-22 -3.45021e-08)
(-1.78754e-07 -1.9549e-07 4.19637e-21 1.76823e-07 2.65163e-22 1.93108e-09)
(-1.5753e-07 -1.8098e-07 -2.21718e-22 1.4319e-07 -1.03792e-22 1.43397e-08)
(-1.65813e-07 -1.81682e-07 8.90253e-22 1.69192e-07 1.21939e-22 -3.37907e-09)
(-1.6001e-07 -1.89555e-07 1.12552e-21 1.58719e-07 9.74061e-23 1.29072e-09)
(-1.62703e-07 -2.00042e-07 5.02603e-22 1.632e-07 1.97992e-23 -4.97063e-10)
(-1.6206e-07 -2.08259e-07 2.64402e-22 1.61933e-07 -8.87496e-23 1.27337e-10)
(-1.62181e-07 -2.15538e-07 -3.95736e-21 1.62315e-07 -4.17804e-22 -1.34287e-10)
(-1.62037e-07 -2.22162e-07 -1.55856e-21 1.6203e-07 4.21467e-23 6.94796e-12)
(-1.62264e-07 -2.28031e-07 3.52438e-21 1.62324e-07 3.74005e-22 -5.99483e-11)
(-1.62599e-07 -2.33307e-07 -0 1.62634e-07 -9.93787e-23 -3.50393e-11)
(-1.63181e-07 -2.37855e-07 -1.8728e-22 1.63258e-07 1.63684e-22 -7.71616e-11)
(-1.6386e-07 -2.41718e-07 7.12563e-21 1.63904e-07 6.9776e-22 -4.44267e-11)
(-1.64714e-07 -2.44848e-07 2.1389e-22 1.64727e-07 3.10801e-23 -1.29716e-11)
(-1.65837e-07 -2.47285e-07 7.31178e-21 1.65916e-07 7.10829e-22 -7.86374e-11)
(-1.67029e-07 -2.49054e-07 4.43982e-22 1.67078e-07 -8.94574e-23 -4.90299e-11)
(-1.6841e-07 -2.50121e-07 1.4306e-21 1.68461e-07 2.3966e-22 -5.04275e-11)
(-1.69933e-07 -2.50547e-07 5.2714e-21 1.69975e-07 5.24649e-22 -4.22396e-11)
(-1.71609e-07 -2.50331e-07 2.54793e-21 1.71657e-07 2.83521e-22 -4.81765e-11)
(-1.73412e-07 -2.49526e-07 6.83568e-21 1.73463e-07 4.64739e-22 -5.16097e-11)
(-1.75331e-07 -2.48136e-07 -6.05075e-21 1.75385e-07 -9.18788e-22 -5.43636e-11)
(-1.77332e-07 -2.46215e-07 -8.69766e-21 1.77369e-07 -6.41482e-22 -3.69668e-11)
(-1.79448e-07 -2.43764e-07 2.90943e-21 1.79495e-07 4.18009e-22 -4.64231e-11)
(-1.81627e-07 -2.40847e-07 -2.08094e-21 1.81674e-07 -3.88754e-22 -4.71389e-11)
(-1.83859e-07 -2.3748e-07 -5.93561e-21 1.83905e-07 -6.48076e-22 -4.64366e-11)
(-1.8612e-07 -2.33696e-07 -5.06328e-21 1.86158e-07 -1.70598e-22 -3.79436e-11)
(-1.88411e-07 -2.29511e-07 1.00812e-20 1.88455e-07 1.01407e-21 -4.31851e-11)
(-1.90695e-07 -2.24981e-07 -3.40478e-21 1.90739e-07 -4.98143e-22 -4.38538e-11)
(-1.92952e-07 -2.201e-07 1.2735e-21 1.92991e-07 1.03892e-22 -3.92423e-11)
(-1.95174e-07 -2.14906e-07 -4.41369e-21 1.95217e-07 -3.23376e-22 -4.33566e-11)
(-1.97328e-07 -2.09408e-07 6.97942e-21 1.97371e-07 8.4098e-22 -4.33743e-11)
(-1.99396e-07 -2.03631e-07 4.26577e-21 1.9944e-07 3.80577e-22 -4.39363e-11)
(-2.01352e-07 -1.97599e-07 5.0106e-21 2.01396e-07 6.34885e-22 -4.40117e-11)
(-2.03179e-07 -1.91308e-07 1.23053e-20 2.03223e-07 9.78025e-22 -4.48635e-11)
(-2.04846e-07 -1.84799e-07 -9.38785e-21 2.04889e-07 -1.22747e-21 -4.31879e-11)
(-2.06339e-07 -1.78067e-07 -5.1927e-21 2.06384e-07 -3.65818e-22 -4.54641e-11)
(-2.0762e-07 -1.71137e-07 4.39471e-22 2.07658e-07 3.45485e-23 -3.87658e-11)
(-2.08685e-07 -1.6402e-07 -6.02471e-21 2.08728e-07 -6.44665e-22 -4.26762e-11)
(-2.0949e-07 -1.56731e-07 -2.39746e-21 2.09523e-07 -3.0418e-22 -3.31879e-11)
(-2.10029e-07 -1.4927e-07 -9.55328e-21 2.10056e-07 -8.7547e-22 -2.6619e-11)
(-2.10284e-07 -1.41666e-07 3.3086e-21 2.1031e-07 5.43275e-22 -2.54936e-11)
(-2.1023e-07 -1.33912e-07 4.21081e-21 2.1025e-07 2.35525e-22 -2.03491e-11)
(-2.09851e-07 -1.26032e-07 -1.07207e-20 2.09865e-07 -1.04343e-21 -1.35035e-11)
(-2.09137e-07 -1.18019e-07 8.48941e-21 2.09143e-07 1.03307e-21 -5.46367e-12)
(-2.08085e-07 -1.09897e-07 -2.81383e-22 2.08089e-07 -1.71687e-22 -4.21185e-12)
(-2.06674e-07 -1.0168e-07 -8.2202e-27 2.06673e-07 -4.27496e-23 7.74187e-13)
(-2.049e-07 -9.33946e-08 1.7281e-22 2.04895e-07 1.53752e-22 5.78549e-12)
(-2.02762e-07 -8.50903e-08 8.56535e-21 2.02756e-07 5.64589e-22 5.62532e-12)
(-2.00239e-07 -7.68306e-08 -2.96117e-20 2.00231e-07 -3.21458e-21 8.75718e-12)
(-1.97325e-07 -6.87084e-08 1.22172e-23 1.97313e-07 3.05711e-22 1.16983e-11)
(-1.94007e-07 -6.08371e-08 7.23303e-23 1.93996e-07 -1.09775e-22 1.05486e-11)
(-1.90267e-07 -5.33479e-08 -1.13228e-20 1.90256e-07 -1.19988e-21 1.09512e-11)
(-1.86098e-07 -4.63389e-08 4.26399e-22 1.86086e-07 1.85404e-22 1.18991e-11)
(-1.8151e-07 -3.98869e-08 -1.33334e-21 1.815e-07 -1.2479e-22 1.04495e-11)
(-1.76527e-07 -3.39817e-08 4.37946e-23 1.76516e-07 -2.48166e-23 1.10559e-11)
(-1.71206e-07 -2.85368e-08 -6.31253e-21 1.71196e-07 -6.87357e-22 9.52265e-12)
(-1.65614e-07 -2.34152e-08 5.33993e-23 1.65605e-07 -2.29461e-22 9.25045e-12)
(-1.59823e-07 -1.84958e-08 -3.65293e-20 1.59814e-07 -4.00557e-21 8.72991e-12)
(-1.53881e-07 -1.3756e-08 9.17678e-24 1.53874e-07 5.44819e-22 7.47178e-12)
(-1.47799e-07 -9.31645e-09 4.09531e-20 1.47791e-07 4.55731e-21 7.19495e-12)
(-1.41558e-07 -5.41528e-09 -4.70075e-23 1.41552e-07 -1.6381e-23 6.12597e-12)
(-1.3513e-07 -2.30701e-09 4.37269e-20 1.35124e-07 4.91642e-21 5.64551e-12)
(-1.28519e-07 -1.32431e-10 -2.66436e-21 1.28515e-07 -7.38719e-22 4.34254e-12)
(-1.21775e-07 1.15192e-09 -3.63442e-20 1.21771e-07 -4.12777e-21 4.38485e-12)
(-1.14992e-07 1.7643e-09 -5.21057e-22 1.14983e-07 1.02756e-22 9.11086e-12)
(-1.08322e-07 1.9745e-09 -4.23639e-23 1.08342e-07 3.73558e-23 -1.95272e-11)
(-1.01702e-07 1.95306e-09 1.32717e-20 1.01651e-07 1.57917e-21 5.03509e-11)
(-9.53399e-08 1.62756e-09 1.1361e-20 9.53671e-08 1.2706e-21 -2.72225e-11)
(-8.98804e-08 7.57008e-10 1.10196e-22 8.98981e-08 -2.36083e-23 -1.77044e-11)
(-8.54177e-08 4.97398e-10 -3.34158e-22 8.53745e-08 -5.14183e-23 4.31484e-11)
(-8.1066e-08 6.10162e-10 2.18218e-22 8.10893e-08 -1.06884e-22 -2.32667e-11)
(-7.6533e-08 2.56923e-10 -3.81608e-20 7.64925e-08 -4.73367e-21 4.05409e-11)
(-7.20131e-08 -1.50368e-09 -5.90188e-20 7.21653e-08 -6.69532e-21 -1.52275e-10)
(-6.59457e-08 -5.87392e-09 8.40401e-20 6.54248e-08 1.03463e-20 5.20885e-10)
(-6.13072e-08 -1.53059e-08 4.04705e-20 6.28279e-08 4.66124e-21 -1.5208e-09)
(-4.85258e-08 -2.27964e-08 -0 4.45573e-08 -1.1643e-22 3.96852e-09)
(-5.69446e-08 -3.04896e-08 -1.33599e-20 6.64615e-08 -1.42199e-21 -9.51697e-09)
(-2.621e-08 9.80298e-10 1.19113e-19 4.82877e-09 1.45693e-20 2.13813e-08)
(-1.08884e-07 2.36448e-08 -9.16345e-20 1.53508e-07 -1.1272e-20 -4.46242e-08)
(1.53364e-08 9.85725e-08 4.82951e-21 -9.38466e-08 7.73504e-22 7.85101e-08)
(-1.98727e-07 6.33789e-08 4.87899e-24 3.11402e-07 -4.3391e-24 -1.12675e-07)
(-1.84407e-07 -1.61437e-07 -3.03078e-22 2.18121e-07 -2.00081e-23 -3.37139e-08)
(-1.36016e-07 -1.64462e-07 4.87204e-22 1.34136e-07 4.49798e-23 1.87981e-09)
(-1.22346e-07 -1.57091e-07 -5.60397e-22 1.11395e-07 -6.86529e-23 1.09508e-08)
(-1.34854e-07 -1.66121e-07 -2.04857e-22 1.37464e-07 -7.4107e-24 -2.6106e-09)
(-1.31831e-07 -1.74259e-07 1.55204e-24 1.30821e-07 6.41654e-24 1.01086e-09)
(-1.33164e-07 -1.81342e-07 4.4548e-25 1.33543e-07 -9.36126e-23 -3.7837e-10)
(-1.32422e-07 -1.87394e-07 -4.00066e-21 1.32301e-07 -3.45207e-22 1.21604e-10)
(-1.32547e-07 -1.9304e-07 1.61516e-21 1.32623e-07 2.49845e-22 -7.60354e-11)
(-1.32552e-07 -1.98197e-07 1.55446e-22 1.32558e-07 -8.52823e-23 -5.08919e-12)
(-1.32809e-07 -2.02844e-07 -2.56008e-21 1.32839e-07 -2.51763e-22 -2.99493e-11)
(-1.33184e-07 -2.06974e-07 -0 1.33205e-07 -5.42999e-23 -2.09272e-11)
(-1.33721e-07 -2.10546e-07 -4.87592e-21 1.3375e-07 -5.23618e-22 -2.91215e-11)
(-1.34393e-07 -2.13574e-07 -1.98366e-21 1.34417e-07 -8.12748e-23 -2.34101e-11)
(-1.35208e-07 -2.16054e-07 4.11661e-25 1.3522e-07 -6.27611e-23 -1.21971e-11)
(-1.36217e-07 -2.17989e-07 -4.99203e-21 1.36267e-07 -3.83681e-22 -4.95679e-11)
(-1.37305e-07 -2.19393e-07 4.54675e-21 1.37326e-07 6.51643e-22 -2.18867e-11)
(-1.38553e-07 -2.20259e-07 4.90062e-21 1.3857e-07 3.04026e-22 -1.73715e-11)
(-1.39961e-07 -2.2062e-07 -3.72684e-21 1.4e-07 -5.21294e-22 -3.90971e-11)
(-1.41461e-07 -2.20502e-07 -3.02871e-21 1.41489e-07 -2.55849e-22 -2.75437e-11)
(-1.43094e-07 -2.199e-07 -1.52509e-21 1.43123e-07 -9.43655e-23 -2.92453e-11)
(-1.44838e-07 -2.18857e-07 -8.50378e-22 1.44871e-07 9.88323e-23 -3.30568e-11)
(-1.46678e-07 -2.17385e-07 7.56533e-21 1.46711e-07 7.48253e-22 -3.28814e-11)
(-1.48599e-07 -2.15522e-07 5.21726e-24 1.48623e-07 -7.9062e-23 -2.43156e-11)
(-1.50617e-07 -2.13272e-07 3.28241e-21 1.50652e-07 3.96379e-22 -3.49535e-11)
(-1.5268e-07 -2.10679e-07 3.80973e-21 1.52707e-07 3.1512e-22 -2.6595e-11)
(-1.54804e-07 -2.07746e-07 4.84538e-22 1.54831e-07 -9.09311e-23 -2.64974e-11)
(-1.5697e-07 -2.04517e-07 -3.05522e-21 1.57e-07 -3.27396e-22 -3.01054e-11)
(-1.5915e-07 -2.0099e-07 -1.63051e-21 1.59175e-07 -1.05505e-22 -2.48409e-11)
(-1.6134e-07 -1.9719e-07 4.12901e-24 1.61361e-07 4.37294e-23 -2.1237e-11)
(-1.63528e-07 -1.9313e-07 8.90266e-22 1.6355e-07 8.00985e-23 -2.22973e-11)
(-1.65688e-07 -1.8882e-07 2.33515e-23 1.65707e-07 8.36277e-23 -1.9065e-11)
(-1.67809e-07 -1.84278e-07 6.11177e-21 1.67829e-07 6.15183e-22 -1.94579e-11)
(-1.69863e-07 -1.79516e-07 1.02641e-23 1.69875e-07 -9.42944e-23 -1.22243e-11)
(-1.71849e-07 -1.74531e-07 4.48374e-23 1.71863e-07 1.92691e-22 -1.45178e-11)
(-1.73732e-07 -1.69346e-07 1.05317e-20 1.73744e-07 1.10594e-21 -1.24278e-11)
(-1.75496e-07 -1.63957e-07 3.20566e-21 1.75506e-07 6.98038e-23 -9.3781e-12)
(-1.77124e-07 -1.58381e-07 -5.85589e-21 1.77132e-07 -5.79986e-22 -7.82814e-12)
(-1.78596e-07 -1.52616e-07 3.79152e-21 1.78605e-07 4.61406e-22 -9.21757e-12)
(-1.79887e-07 -1.46667e-07 -1.12507e-23 1.79895e-07 -1.21432e-22 -8.02833e-12)
(-1.80977e-07 -1.40547e-07 -4.51027e-21 1.8098e-07 -5.19902e-22 -3.37101e-12)
(-1.81854e-07 -1.34244e-07 -3.99675e-21 1.81857e-07 -3.0296e-22 -2.95934e-12)
(-1.82498e-07 -1.27772e-07 3.60399e-21 1.82504e-07 5.0463e-22 -5.45167e-12)
(-1.82883e-07 -1.21131e-07 5.78833e-21 1.82884e-07 5.71081e-22 -2.07571e-13)
(-1.83005e-07 -1.14309e-07 3.08215e-21 1.83002e-07 5.57798e-22 2.58972e-12)
(-1.82849e-07 -1.07337e-07 2.46056e-20 1.82847e-07 2.50693e-21 1.61217e-12)
(-1.82393e-07 -1.00205e-07 2.81567e-24 1.82387e-07 -3.09411e-22 5.98373e-12)
(-1.81631e-07 -9.29548e-08 1.75719e-23 1.81623e-07 -7.03915e-23 7.40357e-12)
(-1.80546e-07 -8.56254e-08 -8.47459e-21 1.80537e-07 -6.67443e-22 8.64309e-12)
(-1.79117e-07 -7.82809e-08 1.85611e-20 1.79106e-07 2.01962e-21 1.11248e-11)
(-1.77326e-07 -7.102e-08 3.14215e-22 1.77313e-07 -3.83743e-22 1.30845e-11)
(-1.75153e-07 -6.39499e-08 -2.25363e-20 1.7514e-07 -2.40033e-21 1.25091e-11)
(-1.72572e-07 -5.71915e-08 8.33276e-23 1.72558e-07 -3.41912e-23 1.36379e-11)
(-1.69571e-07 -5.08418e-08 -2.61147e-20 1.69556e-07 -2.78304e-21 1.52261e-11)
(-1.66157e-07 -4.49562e-08 1.2834e-21 1.66143e-07 4.39532e-22 1.34915e-11)
(-1.62348e-07 -3.95104e-08 8.529e-21 1.62333e-07 8.88444e-22 1.41494e-11)
(-1.58196e-07 -3.44091e-08 -5.01586e-21 1.58183e-07 -7.1814e-22 1.30354e-11)
(-1.53761e-07 -2.95215e-08 -1.44636e-20 1.53748e-07 -1.56098e-21 1.34676e-11)
(-1.49105e-07 -2.47441e-08 -3.20112e-22 1.49093e-07 3.45847e-23 1.23153e-11)
(-1.44262e-07 -2.00866e-08 8.57777e-24 1.44252e-07 -5.97718e-24 1.06241e-11)
(-1.3923e-07 -1.56948e-08 3.32715e-22 1.39219e-07 6.14851e-23 1.07971e-11)
(-1.33985e-07 -1.1817e-08 -3.16856e-23 1.33975e-07 -2.44492e-22 9.5747e-12)
(-1.28497e-07 -8.69988e-09 -4.15147e-20 1.28489e-07 -4.59938e-21 8.6926e-12)
(-1.22776e-07 -6.46327e-09 1.47773e-20 1.22769e-07 2.08946e-21 6.97711e-12)
(-1.16872e-07 -5.041e-09 3.45143e-20 1.16864e-07 4.12871e-21 7.30455e-12)
(-1.10883e-07 -4.21562e-09 5.13542e-20 1.10872e-07 5.75095e-21 1.10107e-11)
(-1.04955e-07 -3.73144e-09 -1.16991e-22 1.04972e-07 -3.86225e-22 -1.72005e-11)
(-9.90097e-08 -3.4659e-09 -3.08736e-20 9.89575e-08 -3.63416e-21 5.21602e-11)
(-9.32588e-08 -3.50928e-09 -1.07676e-20 9.32855e-08 -1.20988e-21 -2.66464e-11)
(-8.8299e-08 -4.04543e-09 -1.99263e-20 8.83131e-08 -2.13605e-21 -1.40141e-11)
(-8.42467e-08 -3.96593e-09 3.10894e-20 8.42029e-08 3.72402e-21 4.38003e-11)
(-8.02762e-08 -3.57633e-09 -9.68158e-21 8.02967e-08 -1.14483e-21 -2.0445e-11)
(-7.61042e-08 -3.72045e-09 3.72501e-20 7.60711e-08 4.79474e-21 3.31413e-11)
(-7.18405e-08 -5.38621e-09 1.01951e-19 7.19679e-08 1.21855e-20 -1.27389e-10)
(-6.60667e-08 -9.83526e-09 4.64687e-20 6.56098e-08 5.28965e-21 4.56903e-10)
(-6.13583e-08 -1.92294e-08 1.64645e-22 6.27317e-08 -9.17431e-23 -1.37341e-09)
(-4.94057e-08 -2.61524e-08 -0 4.57312e-08 3.31394e-23 3.67442e-09)
(-5.72327e-08 -3.24649e-08 1.26428e-20 6.62561e-08 1.53445e-21 -9.02336e-09)
(-2.91966e-08 1.85128e-09 4.08875e-22 8.45281e-09 1.92854e-22 2.07438e-08)
(-1.09624e-07 2.41696e-08 8.69499e-20 1.53861e-07 1.05605e-20 -4.42371e-08)
(1.27267e-08 1.00211e-07 4.94238e-20 -9.15777e-08 6.25438e-21 7.88509e-08)
(-1.98633e-07 5.49238e-08 4.85305e-24 3.12571e-07 -4.41472e-23 -1.13939e-07)
(-1.37325e-07 -1.33249e-07 1.24273e-21 1.62896e-07 1.45388e-22 -2.55705e-08)
(-1.0786e-07 -1.46277e-07 1.32202e-21 1.0606e-07 1.08563e-22 1.80009e-09)
(-1.00435e-07 -1.45209e-07 -6.86571e-23 9.15981e-08 -5.31366e-23 8.83658e-09)
(-1.11551e-07 -1.5357e-07 -1.03002e-21 1.13676e-07 -9.94204e-23 -2.12409e-09)
(-1.08579e-07 -1.5884e-07 1.22157e-22 1.07803e-07 4.18905e-23 7.75732e-10)
(-1.09445e-07 -1.63857e-07 4.1224e-22 1.09774e-07 4.43529e-23 -3.29358e-10)
(-1.08993e-07 -1.68481e-07 -5.32252e-24 1.08966e-07 -1.10816e-23 2.70247e-11)
(-1.09136e-07 -1.72814e-07 1.5114e-24 1.09212e-07 -2.94678e-24 -7.54953e-11)
(-1.09296e-07 -1.76732e-07 -5.42678e-25 1.09372e-07 7.34244e-25 -7.56975e-11)
(-1.09572e-07 -1.80296e-07 -5.26205e-24 1.09642e-07 -3.36482e-24 -7.04279e-11)
(-1.09937e-07 -1.83418e-07 -0 1.09971e-07 2.55687e-24 -3.44259e-11)
(-1.10505e-07 -1.86126e-07 -8.38629e-24 1.10585e-07 -8.27099e-24 -8.00912e-11)
(-1.11141e-07 -1.8843e-07 5.30767e-25 1.11211e-07 -1.69841e-24 -6.96754e-11)
(-1.1191e-07 -1.90301e-07 1.42276e-24 1.11978e-07 2.91589e-23 -6.82496e-11)
(-1.12801e-07 -1.91764e-07 1.16075e-21 1.12869e-07 8.95557e-23 -6.76438e-11)
(-1.13822e-07 -1.92801e-07 -9.67008e-22 1.13898e-07 -1.22099e-22 -7.54241e-11)
(-1.14924e-07 -1.93456e-07 9.49531e-24 1.14971e-07 2.99689e-23 -4.65263e-11)
(-1.16215e-07 -1.93692e-07 -1.02569e-23 1.16306e-07 5.88747e-24 -9.14273e-11)
(-1.17549e-07 -1.9359e-07 -9.26625e-24 1.17619e-07 1.64854e-23 -7.0761e-11)
(-1.18999e-07 -1.93093e-07 1.46757e-21 1.19061e-07 1.65874e-22 -6.16109e-11)
(-1.20562e-07 -1.9227e-07 7.92078e-22 1.20627e-07 4.61599e-23 -6.58772e-11)
(-1.22224e-07 -1.91109e-07 2.49766e-23 1.22303e-07 -9.14707e-24 -7.86231e-11)
(-1.23954e-07 -1.89656e-07 -8.35846e-25 1.2403e-07 3.44885e-24 -7.53332e-11)
(-1.25748e-07 -1.87901e-07 9.38531e-24 1.25806e-07 2.28295e-24 -5.87299e-11)
(-1.27638e-07 -1.8587e-07 6.89539e-24 1.2771e-07 -7.50963e-23 -7.21335e-11)
(-1.29571e-07 -1.83598e-07 -4.66975e-21 1.29642e-07 -4.62198e-22 -7.10845e-11)
(-1.3155e-07 -1.81074e-07 5.89227e-22 1.31619e-07 1.38467e-22 -6.83833e-11)
(-1.33566e-07 -1.78326e-07 -6.41106e-24 1.3363e-07 -1.29466e-23 -6.45258e-11)
(-1.35612e-07 -1.75359e-07 -6.22091e-23 1.35677e-07 -2.18848e-23 -6.46865e-11)
(-1.37672e-07 -1.72185e-07 -8.61096e-22 1.37736e-07 -9.14069e-23 -6.38116e-11)
(-1.39734e-07 -1.68813e-07 3.00083e-24 1.39796e-07 1.86208e-24 -6.16349e-11)
(-1.41787e-07 -1.65253e-07 2.30726e-23 1.4185e-07 6.25181e-23 -6.25759e-11)
(-1.43807e-07 -1.6151e-07 3.39425e-21 1.43861e-07 3.49647e-22 -5.44457e-11)
(-1.45795e-07 -1.57583e-07 5.51967e-24 1.45848e-07 -3.74273e-23 -5.33247e-11)
(-1.47729e-07 -1.53482e-07 3.06464e-23 1.47783e-07 -2.8148e-23 -5.41303e-11)
(-1.49587e-07 -1.49211e-07 -3.05904e-21 1.49636e-07 -2.26949e-22 -4.89677e-11)
(-1.51359e-07 -1.44767e-07 5.56005e-21 1.51404e-07 5.55842e-22 -4.52539e-11)
(-1.53028e-07 -1.40151e-07 -3.62846e-21 1.53071e-07 -4.46047e-22 -4.27155e-11)
(-1.54577e-07 -1.3536e-07 -2.2364e-24 1.5462e-07 9.93296e-23 -4.21257e-11)
(-1.55983e-07 -1.30395e-07 4.25914e-21 1.56018e-07 4.81149e-22 -3.5534e-11)
(-1.57237e-07 -1.25248e-07 3.78791e-21 1.57272e-07 3.28597e-22 -3.42672e-11)
(-1.5832e-07 -1.1992e-07 2.33538e-23 1.58354e-07 -3.69697e-23 -3.35213e-11)
(-1.5921e-07 -1.14396e-07 1.71806e-23 1.59237e-07 -3.75208e-23 -2.68719e-11)
(-1.59903e-07 -1.08679e-07 -2.82934e-21 1.59932e-07 -4.27291e-22 -2.82461e-11)
(-1.60374e-07 -1.02776e-07 -1.24999e-20 1.60399e-07 -1.25924e-21 -2.56404e-11)
(-1.60606e-07 -9.66821e-08 2.47639e-24 1.60626e-07 1.1928e-22 -2.00907e-11)
(-1.6059e-07 -9.04382e-08 1.55141e-23 1.6061e-07 2.6217e-23 -2.02553e-11)
(-1.603e-07 -8.40752e-08 -7.29474e-23 1.60318e-07 -5.2537e-23 -1.78994e-11)
(-1.59713e-07 -7.76668e-08 -4.70226e-21 1.59728e-07 -5.10748e-22 -1.52587e-11)
(-1.58805e-07 -7.13002e-08 -2.95489e-22 1.58819e-07 2.40195e-23 -1.38084e-11)
(-1.57545e-07 -6.50857e-08 -1.736e-22 1.57557e-07 5.23823e-23 -1.12519e-11)
(-1.55909e-07 -5.91272e-08 1.03513e-20 1.55918e-07 1.07041e-21 -9.33648e-12)
(-1.5388e-07 -5.35166e-08 -3.95606e-21 1.53888e-07 -5.16764e-22 -7.97299e-12)
(-1.51456e-07 -4.82867e-08 -1.46958e-23 1.51464e-07 -4.1321e-23 -7.32543e-12)
(-1.48658e-07 -4.33896e-08 -8.06262e-21 1.48662e-07 -7.85063e-22 -4.51752e-12)
(-1.45531e-07 -3.87322e-08 1.0295e-20 1.45536e-07 1.29098e-21 -4.47798e-12)
(-1.42128e-07 -3.41836e-08 1.36235e-20 1.42131e-07 1.65485e-21 -3.20466e-12)
(-1.38495e-07 -2.96601e-08 3.70728e-20 1.38497e-07 3.99719e-21 -2.05484e-12)
(-1.34654e-07 -2.52031e-08 -1.02798e-22 1.34656e-07 -4.59468e-22 -1.9899e-12)
(-1.30592e-07 -2.0981e-08 -3.30692e-20 1.30593e-07 -3.6485e-21 -7.27021e-13)
(-1.26277e-07 -1.7245e-08 8.77631e-21 1.26278e-07 1.18539e-21 -7.65001e-13)
(-1.21679e-07 -1.42322e-08 -3.46253e-22 1.2168e-07 -2.13476e-22 -5.45932e-13)
(-1.16808e-07 -1.20389e-08 -1.85526e-20 1.16808e-07 -2.33795e-21 4.30686e-13)
(-1.11723e-07 -1.05686e-08 -4.77608e-20 1.11723e-07 -5.53186e-21 5.86813e-13)
(-1.06517e-07 -9.62338e-09 -4.39647e-20 1.06512e-07 -4.71643e-21 4.62933e-12)
(-1.01323e-07 -8.94337e-09 2.42346e-20 1.01343e-07 2.97965e-21 -1.96632e-11)
(-9.60552e-08 -8.4751e-09 -1.9705e-21 9.60067e-08 -3.02287e-22 4.84593e-11)
(-9.09279e-08 -8.2995e-09 1.02393e-20 9.09585e-08 1.17953e-21 -3.06447e-11)
(-8.64816e-08 -8.54474e-09 -2.87235e-21 8.64948e-08 -3.75834e-22 -1.31644e-11)
(-8.28507e-08 -8.16963e-09 1.15366e-22 8.28076e-08 3.34168e-23 4.31128e-11)
(-7.92781e-08 -7.55346e-09 2.39427e-23 7.92985e-08 -1.48392e-22 -2.03749e-11)
(-7.54793e-08 -7.54544e-09 -4.23621e-20 7.54542e-08 -5.17097e-21 2.51093e-11)
(-7.14802e-08 -9.17878e-09 -4.01514e-20 7.15829e-08 -4.65324e-21 -1.02747e-10)
(-6.60107e-08 -1.37782e-08 2.19784e-22 6.56208e-08 1.469e-22 3.89968e-10)
(-6.12512e-08 -2.31243e-08 1.86436e-23 6.24655e-08 5.98219e-24 -1.21432e-09)
(-5.01693e-08 -2.94822e-08 -0 4.68195e-08 -1.75034e-23 3.34982e-09)
(-5.74746e-08 -3.42287e-08 -1.24317e-20 6.59151e-08 -1.53532e-21 -8.44049e-09)
(-3.20934e-08 2.93443e-09 1.56036e-22 1.21598e-08 -5.78173e-23 1.99336e-08)
(-1.10478e-07 2.46256e-08 -5.22388e-20 1.54014e-07 -6.35395e-21 -4.3536e-08)
(1.08411e-08 1.01994e-07 -4.69111e-20 -8.96955e-08 -5.95585e-21 7.88544e-08)
(-1.99116e-07 4.5675e-08 6.369e-22 3.14017e-07 1.61125e-22 -1.14901e-07)
(-1.11824e-07 -1.21845e-07 -1.1602e-21 1.32857e-07 -1.17824e-22 -2.10334e-08)
(-8.91512e-08 -1.35753e-07 2.53206e-24 8.72252e-08 3.07796e-23 1.92593e-09)
(-8.36038e-08 -1.34475e-07 -3.0005e-25 7.62586e-08 2.41188e-23 7.34521e-09)
(-9.24494e-08 -1.40367e-07 9.81715e-22 9.40468e-08 9.33141e-23 -1.59744e-09)
(-8.99334e-08 -1.43938e-07 -1.15428e-22 8.91871e-08 -3.80498e-23 7.46304e-10)
(-9.07488e-08 -1.47726e-07 -3.91705e-22 9.08921e-08 -3.14478e-23 -1.43268e-10)
(-9.05084e-08 -1.51198e-07 -1.26016e-24 9.03716e-08 5.51184e-24 1.36809e-10)
(-9.07244e-08 -1.54423e-07 -8.58341e-26 9.06723e-08 4.42135e-24 5.20226e-11)
(-9.09231e-08 -1.57342e-07 3.9467e-22 9.08447e-08 8.30444e-23 7.84527e-11)
(-9.12594e-08 -1.59964e-07 2.38463e-21 9.11955e-08 2.30549e-22 6.39637e-11)
(-9.16533e-08 -1.62278e-07 -0 9.15641e-08 -1.57434e-23 8.91996e-11)
(-9.21961e-08 -1.64274e-07 1.28533e-21 9.21296e-08 9.09523e-23 6.64715e-11)
(-9.28144e-08 -1.65958e-07 -1.85518e-21 9.27445e-08 -2.35063e-22 6.98715e-11)
(-9.35304e-08 -1.67323e-07 -1.49034e-21 9.34534e-08 -7.60756e-23 7.69226e-11)
(-9.43601e-08 -1.6837e-07 2.31495e-21 9.42878e-08 2.7033e-22 7.23527e-11)
(-9.52949e-08 -1.6911e-07 9.29024e-22 9.52317e-08 5.21001e-23 6.31599e-11)
(-9.62961e-08 -1.69551e-07 1.97325e-24 9.62097e-08 4.95314e-23 8.63979e-11)
(-9.74427e-08 -1.69686e-07 3.39519e-21 9.73821e-08 3.93345e-22 6.06307e-11)
(-9.86528e-08 -1.69548e-07 2.74183e-21 9.85869e-08 1.91401e-22 6.58667e-11)