/*--------------------------------*- C++ -*----------------------------------*\
| =========                 |                                                 |
| \\      /  F ield         | OpenFOAM: The Open Source CFD Toolbox           |
|  \\    /   O peration     | Version:  2506                                  |
|   \\  /    A nd           | Website:  www.openfoam.com                      |
|    \\/     M anipulation  |                                                 |
\*---------------------------------------------------------------------------*/
FoamFile
{
    version     2.0;
    format      ascii;
    arch        "LSB;label=32;scalar=64";
    class       volVectorField;
    location    "500";
    object      U;
}
// * * * * * * * * * * * * * * * * * * * * * * * * * * * * * * * * * * * * * //

dimensions      [0 1 -1 0 0 0 0];

internalField   nonuniform List<vector> 
1340
(
(25.5598 3.32915 -1.26853e-16)
(25.6222 2.89346 1.57782e-16)
(25.5177 3.17157 -3.89915e-16)
(25.5111 3.08359 -6.934e-17)
(25.5621 3.32751 2.02e-17)
(25.6357 2.89609 -6.64355e-16)
(25.5481 3.12283 0)
(25.5359 3.11858 -1.52608e-16)
(25.5211 3.16851 3.86996e-16)
(25.5187 3.08297 2.28963e-16)
(25.5654 3.32562 3.59848e-19)
(25.6493 2.89865 5.76625e-16)
(25.5574 3.07676 -2.20802e-16)
(25.5598 3.09023 4.19025e-18)
(25.5598 3.1017 2.9406e-17)
(25.554 3.11907 0)
(25.5414 3.11574 1.7229e-18)
(25.5251 3.1654 -3.3359e-18)
(25.5268 3.08274 -1.71626e-18)
(25.5699 3.32351 5.00673e-19)
(25.6628 2.90121 -7.29308e-19)
(25.5512 3.00617 1.86343e-17)
(25.5555 3.02084 7.3626e-17)
(25.5586 3.03314 7.34374e-17)
(25.5615 3.04593 -2.49879e-16)
(25.5643 3.05892 6.18297e-17)
(25.5669 3.07216 -8.7443e-17)
(25.5684 3.08596 -1.88818e-18)
(25.5675 3.09788 2.11204e-16)
(25.5605 3.11546 0)
(25.5473 3.11314 1.36537e-17)
(25.5297 3.16228 -3.72055e-16)
(25.5352 3.08288 -2.16499e-16)
(25.5755 3.32122 -7.58842e-18)
(25.6764 2.90386 7.63784e-17)
(25.5379 2.9083 1.6937e-16)
(25.5443 2.92777 -1.53149e-16)
(25.5504 2.94683 -3.9707e-17)
(25.556 2.96543 -2.39488e-16)
(25.561 2.98357 -5.30413e-17)
(25.5655 3.00109 3.56988e-17)
(25.5687 3.01584 1.5895e-17)
(25.571 3.02825 -1.20849e-18)
(25.5732 3.04119 4.76547e-17)
(25.5752 3.05438 -1.15268e-16)
(25.5769 3.06789 2.16264e-16)
(25.5776 3.08197 -1.33474e-16)
(25.5757 3.09433 -2.11263e-16)
(25.5675 3.11203 0)
(25.5537 3.11082 -9.73946e-18)
(25.5351 3.15918 3.63426e-16)
(25.544 3.08341 2.12157e-16)
(25.5822 3.31878 8.93779e-18)
(25.6902 2.90669 -7.76606e-17)
(25.53 2.76785 -2.20614e-17)
(25.5331 2.78743 -1.06625e-16)
(25.5365 2.8071 -1.80187e-16)
(25.5402 2.82679 6.55847e-17)
(25.5444 2.84648 -2.10073e-17)
(25.549 2.86611 8.26324e-17)
(25.5539 2.88562 2.10459e-16)
(25.559 2.90495 -4.87642e-18)
(25.5641 2.92402 1.23973e-16)
(25.5688 2.94278 -1.06452e-17)
(25.5732 2.96115 1.62345e-17)
(25.577 2.97916 1.0218e-16)
(25.5803 2.99662 -3.62104e-17)
(25.5826 3.01139 -1.83611e-17)
(25.584 3.02385 -1.26607e-18)
(25.5854 3.0369 3.42723e-18)
(25.5866 3.05026 8.83547e-19)
(25.5875 3.06399 -1.13655e-16)
(25.5874 3.0783 1.28823e-16)
(25.5844 3.09108 -4.14288e-19)
(25.575 3.10882 0)
(25.5604 3.1088 1.32547e-17)
(25.5411 3.15614 -3.79538e-16)
(25.5534 3.08437 -2.1001e-18)
(25.59 3.3162 -2.28349e-17)
(25.704 2.90981 -8.0234e-19)
(25.5702 2.57656 1.74926e-17)
(25.5671 2.59024 -1.00892e-16)
(25.5644 2.60444 -2.7833e-18)
(25.562 2.61915 9.64435e-17)
(25.5599 2.63436 -1.04246e-16)
(25.5583 2.65005 1.65856e-17)
(25.5571 2.66621 7.57665e-18)
(25.5564 2.68281 -2.10626e-17)
(25.5562 2.69983 1.29133e-16)
(25.5565 2.71723 1.82247e-16)
(25.5573 2.73498 1.36408e-17)
(25.5585 2.75303 4.9455e-17)
(25.56 2.77133 -5.25069e-17)
(25.5618 2.78983 1.53666e-18)
(25.564 2.8085 2.77135e-16)
(25.5666 2.82728 -1.89075e-18)
(25.5696 2.84614 -1.53403e-16)
(25.5729 2.86503 -3.33647e-17)
(25.5766 2.88389 -1.45131e-16)
(25.5805 2.90265 -3.74081e-17)
(25.5842 2.92125 -1.21262e-18)
(25.5877 2.93961 -1.63745e-16)
(25.5908 2.95769 -6.05258e-18)
(25.5935 2.97548 -4.24563e-17)
(25.5956 2.99281 -3.56337e-19)
(25.5969 3.00754 1.42809e-17)
(25.5976 3.02001 -1.26466e-16)
(25.5982 3.03313 1.15913e-16)
(25.5987 3.04659 1.0223e-16)
(25.5988 3.06051 1.872e-16)
(25.5977 3.07501 -2.08853e-16)
(25.5937 3.08817 -4.41368e-19)
(25.583 3.10587 0)
(25.5677 3.10709 -8.73277e-18)
(25.548 3.15321 1.04863e-16)
(25.5632 3.08577 4.45891e-17)
(25.599 3.31352 -2.67763e-17)
(25.7181 2.91331 -8.37683e-19)
(25.7174 2.39773 2.34449e-18)
(25.7172 2.39947 2.29736e-18)
(25.7173 2.40006 -1.52985e-19)
(25.7172 2.40154 5.63765e-19)
(25.7171 2.40282 7.59832e-19)
(25.7168 2.40427 3.51878e-19)
(25.7163 2.40576 3.83912e-20)
(25.7157 2.40734 -3.02444e-18)
(25.7149 2.40899 -1.24065e-18)
(25.714 2.41074 2.92716e-18)
(25.7129 2.41259 0)
(25.7117 2.41453 -4.71818e-19)
(25.7103 2.41659 6.66059e-18)
(25.7087 2.41877 2.10366e-19)
(25.7069 2.42106 7.47704e-18)
(25.705 2.4235 7.60696e-19)
(25.7029 2.42607 1.9053e-18)
(25.7006 2.42881 6.08846e-18)
(25.6982 2.4317 3.05016e-18)
(25.6956 2.43477 8.54439e-18)
(25.6929 2.43802 -7.86462e-18)
(25.69 2.44148 -1.16966e-17)
(25.6869 2.44515 4.45873e-18)
(25.6837 2.44905 -2.73764e-18)
(25.6804 2.45318 -8.6068e-18)
(25.677 2.45757 -8.29876e-18)
(25.6734 2.46223 1.63153e-17)
(25.6698 2.46718 -5.73021e-18)
(25.666 2.47243 2.21249e-18)
(25.6622 2.478 -7.93033e-18)
(25.6583 2.4839 1.29709e-17)
(25.6543 2.49016 8.26176e-18)
(25.6503 2.49678 9.89181e-18)
(25.6462 2.50379 2.5142e-17)
(25.6421 2.51121 -1.8491e-17)
(25.638 2.51904 -1.12641e-17)
(25.6339 2.52731 9.45858e-19)
(25.6298 2.53603 -1.33962e-17)
(25.6258 2.54521 -5.41486e-18)
(25.6218 2.55486 -2.43951e-17)
(25.6179 2.56501 8.20693e-18)
(25.6141 2.57565 1.15734e-17)
(25.6104 2.58679 -2.68871e-17)
(25.6069 2.59844 2.23435e-17)
(25.6036 2.61061 6.03227e-18)
(25.6005 2.62329 -6.23134e-19)
(25.5977 2.63649 -3.89355e-18)
(25.5952 2.6502 2.81103e-17)
(25.593 2.6644 -8.54293e-17)
(25.5913 2.6791 -2.89282e-19)
(25.59 2.69427 -2.23762e-18)
(25.5891 2.7099 -3.84043e-17)
(25.5886 2.72595 -6.51661e-18)
(25.5885 2.7424 -4.49585e-18)
(25.5887 2.75919 -6.24479e-19)
(25.5893 2.7763 -1.71608e-17)
(25.5901 2.79369 1.50266e-18)
(25.5913 2.81131 -1.19141e-16)
(25.5928 2.82912 -1.86799e-18)
(25.5946 2.84709 1.29987e-16)
(25.5969 2.86516 -5.6536e-19)
(25.5994 2.8833 1.33242e-16)
(25.6021 2.90142 -1.07907e-17)
(25.6047 2.91946 -1.07306e-16)
(25.607 2.93736 9.6308e-18)
(25.6089 2.95506 5.24981e-18)
(25.6104 2.97257 3.54265e-17)
(25.6114 2.9897 3.07969e-17)
(25.6118 3.00432 -2.10453e-18)
(25.6117 3.01677 4.03238e-18)
(25.6116 3.02989 -9.59727e-19)
(25.6113 3.04343 -9.98386e-17)
(25.6106 3.05749 -1.47996e-16)
(25.6086 3.07212 2.11923e-16)
(25.6034 3.08564 9.64465e-17)
(25.5915 3.10322 0)
(25.5754 3.10575 -2.83744e-17)
(25.5556 3.15043 2.58461e-16)
(25.5737 3.08765 -2.27e-16)
(25.609 3.31078 9.83141e-18)
(25.7324 2.9173 -8.84003e-19)
(25.7428 2.44913 -2.11638e-19)
(25.7426 2.45055 1.83957e-19)
(25.7426 2.45106 -3.03813e-19)
(25.7425 2.45228 -1.45232e-19)
(25.7422 2.45334 -3.45044e-20)
(25.7418 2.45454 -1.60117e-20)
(25.7413 2.45578 -2.61081e-18)
(25.7407 2.45709 1.17837e-18)
(25.74 2.45847 1.63679e-19)
(25.7391 2.45993 -1.94496e-18)
(25.7381 2.46147 0)
(25.7369 2.46309 -3.9974e-18)
(25.7356 2.4648 -1.96264e-18)
(25.7342 2.46662 -9.72862e-21)
(25.7326 2.46854 -4.7218e-18)
(25.7309 2.47057 4.35656e-18)
(25.729 2.47273 4.84303e-18)
(25.727 2.47501 -3.97989e-18)
(25.7249 2.47743 -3.26588e-18)
(25.7226 2.48001 -2.0479e-18)
(25.7201 2.48274 -5.62344e-19)
(25.7176 2.48564 9.33919e-18)
(25.7149 2.48873 1.43507e-19)
(25.7121 2.49201 4.49253e-18)
(25.7091 2.49549 5.67714e-18)
(25.7061 2.4992 6.90867e-19)
(25.7029 2.50313 -5.08029e-18)
(25.6997 2.50732 -2.08298e-18)
(25.6963 2.51177 -1.0346e-19)
(25.6929 2.5165 1.77741e-18)
(25.6893 2.52152 -6.04452e-19)
(25.6857 2.52685 9.79673e-18)
(25.6821 2.53251 -4.58486e-19)
(25.6783 2.53851 -1.16124e-18)
(25.6745 2.54487 2.14769e-17)
(25.6707 2.55161 6.64141e-18)
(25.6669 2.55874 -1.15168e-17)
(25.663 2.56629 8.75155e-18)
(25.6592 2.57425 4.96853e-19)
(25.6553 2.58266 -9.66386e-18)
(25.6515 2.59151 -9.18691e-18)
(25.6478 2.60084 8.39544e-18)
(25.6441 2.61064 1.57625e-17)
(25.6406 2.62093 6.01317e-18)
(25.6372 2.63171 6.55636e-17)
(25.634 2.643 -5.72598e-19)
(25.631 2.65479 -3.59535e-18)
(25.6282 2.6671 -2.03688e-17)
(25.6257 2.6799 5.40725e-17)
(25.6236 2.69321 5.70837e-19)
(25.6218 2.70701 -6.39685e-17)
(25.6204 2.72128 -1.35797e-18)
(25.6193 2.73601 -7.99721e-17)
(25.6185 2.75117 3.52407e-18)
(25.618 2.76672 2.3864e-17)
(25.6177 2.78263 -1.13802e-17)
(25.6177 2.79888 -4.05993e-17)
(25.618 2.81541 6.67539e-19)
(25.6185 2.83222 -1.83574e-18)
(25.6195 2.84925 -2.57922e-18)
(25.6207 2.86647 -5.61422e-19)
(25.6222 2.88382 -1.27418e-16)
(25.6238 2.90124 3.99299e-17)
(25.6253 2.91866 1.04177e-16)
(25.6265 2.93603 1.55745e-16)
(25.6274 2.95329 5.34946e-18)
(25.6278 2.97044 -8.9427e-17)
(25.6277 2.98731 -3.13832e-17)
(25.6272 3.00178 -5.39782e-17)
(25.6264 3.01415 8.44305e-17)
(25.6255 3.02724 -2.57512e-17)
(25.6245 3.0408 9.5073e-17)
(25.623 3.05496 2.5895e-16)
(25.6201 3.06968 1.09918e-16)
(25.6138 3.08351 -4.4331e-18)
(25.6006 3.10092 0)
(25.5836 3.10478 3.33935e-17)
(25.564 3.14785 -5.60051e-18)
(25.5848 3.09008 2.18006e-16)
(25.6202 3.30797 7.74901e-17)
(25.7471 2.92191 -9.45466e-19)
(25.7648 2.4961 4.92748e-19)
(25.7646 2.49726 5.27211e-19)
(25.7645 2.49771 -1.49276e-20)
(25.7642 2.49871 -5.18001e-19)
(25.7639 2.49961 3.30864e-20)
(25.7635 2.50061 2.06182e-19)
(25.763 2.50165 1.22967e-19)
(25.7624 2.50275 8.77261e-21)
(25.7616 2.5039 3.75507e-20)
(25.7608 2.50513 6.17871e-20)
(25.7599 2.50642 0)
(25.7588 2.50778 1.56809e-19)
(25.7576 2.50922 -1.47441e-19)
(25.7564 2.51074 -8.2092e-21)
(25.7549 2.51236 1.05543e-18)
(25.7534 2.51407 -1.0233e-18)
(25.7518 2.51589 -2.87264e-19)
(25.75 2.51781 1.17405e-19)
(25.7481 2.51986 1.82169e-19)
(25.7461 2.52203 1.25033e-18)
(25.7439 2.52434 1.21051e-18)
(25.7417 2.52679 -3.90044e-19)
(25.7393 2.5294 1.22609e-19)
(25.7369 2.53218 -8.02294e-20)
(25.7343 2.53513 1.15996e-19)
(25.7316 2.53827 -5.79825e-18)
(25.7288 2.54162 5.25898e-19)
(25.726 2.54518 4.61582e-19)
(25.723 2.54897 -1.75866e-19)
(25.7199 2.553 -1.04828e-18)
(25.7168 2.55729 -5.25126e-19)
(25.7136 2.56185 -1.32783e-18)
(25.7103 2.5667 4.98618e-18)
(25.7069 2.57185 -1.01716e-18)
(25.7035 2.57732 -1.47314e-19)
(25.7 2.58313 -5.53711e-18)
(25.6964 2.58929 1.11935e-17)
(25.6929 2.59582 -6.62671e-18)
(25.6893 2.60274 4.4244e-19)
(25.6857 2.61005 9.31779e-18)
(25.6821 2.61779 8.33889e-18)
(25.6785 2.62595 -5.20627e-19)
(25.675 2.63456 7.1565e-19)
(25.6716 2.64363 -8.2214e-18)
(25.6682 2.65317 -2.92245e-17)
(25.665 2.66319 -5.24736e-19)
(25.6619 2.6737 -3.30994e-18)
(25.659 2.68471 3.57032e-18)
(25.6564 2.69621 -1.20592e-17)
(25.654 2.70822 -1.08492e-18)
(25.6519 2.72072 3.16908e-18)
(25.6501 2.7337 2.56342e-17)
(25.6486 2.74716 -1.02297e-17)
(25.6473 2.76107 -4.34344e-19)
(25.6462 2.7754 -2.47994e-17)
(25.6453 2.79013 3.2823e-17)
(25.6446 2.80524 4.30966e-17)
(25.6441 2.8207 1.05091e-16)
(25.6439 2.83648 -1.79573e-18)
(25.644 2.85255 -9.6266e-17)
(25.6444 2.86887 2.43612e-17)
(25.6449 2.8854 2.44736e-18)
(25.6456 2.90207 -5.83581e-17)
(25.6461 2.91883 -1.36296e-16)
(25.6463 2.93561 -1.21181e-16)
(25.6461 2.95237 7.25135e-17)
(25.6455 2.96911 -3.91794e-18)
(25.6444 2.98566 2.73099e-17)
(25.643 2.99993 -6.8721e-18)
(25.6416 3.01218 1.96194e-19)
(25.64 3.02521 2.03501e-19)
(25.6382 3.03875 -1.0975e-16)
(25.6359 3.05296 -1.06784e-16)
(25.6321 3.06773 -8.25135e-18)
(25.6246 3.08183 -4.68296e-18)
(25.6103 3.099 0)
(25.5924 3.10423 -2.53614e-17)
(25.5732 3.14551 -6.00015e-18)
(25.5968 3.09313 -1.33081e-16)
(25.6324 3.30508 -7.25606e-17)
(25.7624 2.92727 -1.03172e-18)
(25.7837 2.53907 -5.59079e-19)
(25.7834 2.54002 -1.06635e-19)
(25.7833 2.5404 1.70268e-20)
(25.783 2.54125 4.63618e-19)
(25.7826 2.542 -8.32357e-20)
(25.7822 2.54284 -2.20509e-19)
(25.7817 2.54372 1.03388e-19)
(25.7811 2.54464 7.38281e-21)
(25.7804 2.54562 2.49744e-19)
(25.7796 2.54665 1.42944e-18)
(25.7788 2.54773 0)
(25.7778 2.54888 9.43807e-19)
(25.7768 2.5501 -1.3477e-18)
(25.7756 2.55139 -1.03213e-18)
(25.7744 2.55276 1.68532e-18)
(25.773 2.55421 5.87502e-19)
(25.7716 2.55575 -2.44238e-19)
(25.77 2.55738 2.87337e-18)
(25.7684 2.55911 2.49099e-18)
(25.7666 2.56096 -1.5307e-18)
(25.7648 2.56292 -4.33344e-19)
(25.7628 2.56501 -6.97245e-18)
(25.7608 2.56723 1.05177e-19)
(25.7587 2.56959 -1.98859e-18)
(25.7564 2.57211 9.9848e-20)
(25.7541 2.57479 5.25381e-19)
(25.7517 2.57764 -2.77215e-19)
(25.7492 2.58069 3.99595e-19)
(25.7466 2.58393 6.37882e-21)
(25.7439 2.58738 1.35715e-18)
(25.7411 2.59106 -4.57548e-19)
(25.7383 2.59498 -1.15967e-18)
(25.7353 2.59915 -5.60345e-18)
(25.7323 2.60359 -8.92799e-19)
(25.7293 2.60831 -1.29648e-19)
(25.7262 2.61333 1.0901e-18)
(25.723 2.61866 -8.96789e-18)
(25.7198 2.62433 6.83995e-18)
(25.7165 2.63035 3.94064e-19)
(25.7132 2.63672 -1.66996e-17)
(25.7099 2.64348 7.50889e-18)
(25.7065 2.65064 -6.89215e-18)
(25.7032 2.6582 6.46468e-19)
(25.6999 2.6662 -3.37574e-17)
(25.6967 2.67463 5.81866e-18)
(25.6936 2.68352 -4.79753e-19)
(25.6906 2.69287 -3.03914e-18)
(25.6877 2.70271 2.07509e-17)
(25.685 2.71302 1.16805e-17)
(25.6826 2.72383 4.4864e-19)
(25.6803 2.73512 5.34449e-17)
(25.6783 2.7469 -3.96659e-18)
(25.6764 2.75916 2.10094e-17)
(25.6748 2.77188 1.64663e-17)
(25.6732 2.78504 7.52614e-18)
(25.6718 2.79863 3.47875e-17)
(25.6706 2.81263 2.08704e-17)
(25.6695 2.82702 -1.18186e-16)
(25.6686 2.84178 8.27508e-17)
(25.668 2.85689 1.32788e-16)
(25.6677 2.8723 -2.3596e-17)
(25.6675 2.88799 1.21833e-16)
(25.6673 2.90388 -3.24827e-17)
(25.6669 2.91993 -2.86123e-17)
(25.6661 2.93609 2.8564e-16)
(25.665 2.95231 1.32015e-18)
(25.6635 2.9686 -1.7119e-17)
(25.6615 2.98478 -2.02684e-18)
(25.6593 2.99881 -5.7358e-17)
(25.6572 3.0109 2.02082e-19)
(25.6549 3.02381 -4.59301e-17)
(25.6525 3.03731 1.00057e-16)
(25.6495 3.05152 9.24254e-17)
(25.6447 3.0663 -2.57902e-17)
(25.636 3.08063 -4.93665e-18)
(25.6205 3.09751 0)
(25.6018 3.10415 3.07131e-16)
(25.5833 3.14343 -1.0413e-16)
(25.6097 3.09693 1.23052e-16)
(25.6454 3.30203 2.31473e-18)
(25.7783 2.93343 -4.81906e-16)
(25.8003 2.57859 3.65012e-19)
(25.8 2.57938 -9.09677e-20)
(25.7998 2.57971 1.45335e-20)
(25.7995 2.58042 -3.82912e-19)
(25.7991 2.58105 2.51837e-20)
(25.7987 2.58177 1.53178e-19)
(25.7982 2.5825 8.84677e-20)
(25.7976 2.58329 6.32162e-21)
(25.797 2.58411 6.94125e-21)
(25.7963 2.58499 -8.30055e-20)
(25.7955 2.58591 0)
(25.7947 2.58689 -6.62953e-19)
(25.7938 2.58793 1.06462e-18)
(25.7928 2.58903 1.37646e-18)
(25.7917 2.59019 5.56174e-19)
(25.7905 2.59142 -7.63444e-19)
(25.7893 2.59274 -2.10693e-19)
(25.7879 2.59413 -1.76744e-19)
(25.7865 2.59561 -8.79095e-20)
(25.785 2.59719 9.45362e-19)
(25.7834 2.59886 9.08198e-19)
(25.7817 2.60065 3.46801e-19)
(25.78 2.60255 2.83405e-18)
(25.7782 2.60457 1.79657e-18)
(25.7762 2.60673 8.69455e-20)
(25.7742 2.60903 3.16785e-18)
(25.7721 2.61147 -6.75162e-18)
(25.77 2.61409 2.3421e-18)
(25.7677 2.61687 2.86521e-18)
(25.7654 2.61984 5.76978e-18)
(25.763 2.623 -8.39602e-18)
(25.7605 2.62638 -1.3642e-17)
(25.758 2.62997 -2.24682e-18)
(25.7554 2.63381 -4.64277e-18)
(25.7527 2.63788 6.41759e-18)
(25.7499 2.64223 8.32761e-18)
(25.7471 2.64686 6.5745e-18)
(25.7442 2.65179 -2.86805e-18)
(25.7413 2.65702 1.99942e-18)
(25.7383 2.66258 1.62373e-17)
(25.7353 2.66849 -8.66956e-18)
(25.7322 2.67475 1.01309e-17)
(25.7292 2.6814 -2.9139e-18)
(25.7261 2.68844 3.12856e-17)
(25.7231 2.69589 2.28631e-17)
(25.7202 2.70377 2.97184e-17)
(25.7173 2.71208 -7.23177e-19)
(25.7145 2.72085 3.22771e-17)
(25.7119 2.73008 1.81901e-17)
(25.7095 2.73978 1.70587e-17)
(25.7072 2.74997 -1.39769e-17)
(25.705 2.76062 -4.43113e-17)
(25.703 2.77175 4.37452e-17)
(25.7011 2.78336 -1.83614e-18)
(25.6992 2.79541 -5.60495e-17)
(25.6975 2.8079 -5.50936e-17)
(25.6958 2.82084 -2.8023e-19)
(25.6942 2.83419 -1.12272e-17)
(25.6928 2.84795 -1.3119e-16)
(25.6917 2.86211 -5.68494e-18)
(25.6907 2.87661 -6.6259e-19)
(25.6898 2.89145 -2.01253e-17)
(25.6889 2.90656 2.85715e-17)
(25.6877 2.92188 1.01588e-17)
(25.6861 2.93739 -1.00274e-17)
(25.6841 2.95304 -2.66292e-18)
(25.6817 2.96883 2.00353e-17)
(25.6789 2.98461 7.04585e-17)
(25.676 2.99836 4.59771e-18)
(25.6733 3.01027 2.07641e-19)
(25.6704 3.02304 4.25496e-17)
(25.6673 3.03645 -3.69076e-18)
(25.6636 3.05064 -7.3719e-18)
(25.6579 3.0654 -8.10574e-18)
(25.648 3.07991 -5.19611e-18)
(25.6312 3.09647 0)
(25.6119 3.1046 -2.71809e-16)
(25.5941 3.14161 1.10701e-16)
(25.6239 3.10172 -7.40748e-17)
(25.6586 3.29864 -4.58466e-18)
(25.7963 2.94057 3.83007e-16)
(25.8189 2.62375 -3.95807e-20)
(25.8186 2.62441 -1.61323e-19)
(25.8183 2.62466 -1.03023e-19)
(25.818 2.62524 8.40605e-20)
(25.8177 2.62576 -7.73062e-20)
(25.8173 2.62633 1.28458e-19)
(25.8168 2.62694 9.19208e-19)
(25.8163 2.62757 1.19725e-19)
(25.8158 2.62825 3.45699e-19)
(25.8152 2.62897 -1.28898e-19)
(25.8145 2.62972 0)
(25.8138 2.63052 5.23232e-19)
(25.813 2.63137 -1.22379e-18)
(25.8122 2.63227 4.87326e-21)
(25.8113 2.63322 -1.78143e-18)
(25.8103 2.63424 -1.12589e-18)
(25.8093 2.63532 -1.35724e-18)
(25.8082 2.63646 -1.08452e-18)
(25.8071 2.63769 -4.38236e-19)
(25.8058 2.63898 -2.44118e-18)
(25.8046 2.64037 3.43164e-18)
(25.8032 2.64184 1.75041e-18)
(25.8018 2.6434 -3.24139e-19)
(25.8003 2.64508 -3.01709e-19)
(25.7987 2.64686 9.99135e-19)
(25.7971 2.64876 1.03615e-18)
(25.7954 2.65079 3.12839e-18)
(25.7936 2.65295 2.29538e-18)
(25.7918 2.65526 -3.54959e-18)
(25.7899 2.65773 -5.32516e-18)
(25.7879 2.66035 2.40387e-18)
(25.7858 2.66316 1.5656e-18)
(25.7837 2.66616 1.04159e-18)
(25.7815 2.66936 -8.46895e-18)
(25.7793 2.67276 -7.75794e-18)
(25.7769 2.67641 -1.44514e-18)
(25.7745 2.68028 5.77867e-18)
(25.7721 2.68442 3.40948e-18)
(25.7695 2.68882 -8.61656e-18)
(25.7669 2.69352 -1.22075e-17)
(25.7643 2.69851 1.06801e-18)
(25.7616 2.70383 -1.68929e-17)
(25.7589 2.70948 7.58559e-18)
(25.7562 2.71548 -1.54485e-17)
(25.7535 2.72186 1.45245e-17)
(25.7508 2.72863 -4.65224e-17)
(25.7481 2.73579 2.5281e-19)
(25.7456 2.74338 4.74006e-18)
(25.7431 2.75141 -3.84615e-17)
(25.7407 2.75987 -1.76985e-17)
(25.7384 2.7688 -2.97565e-17)
(25.7362 2.77817 -7.58965e-18)
(25.734 2.78802 -5.42025e-17)
(25.7319 2.79833 -4.33142e-17)
(25.7297 2.80909 5.18409e-17)
(25.7276 2.8203 3.86045e-17)
(25.7255 2.83197 -1.94944e-17)
(25.7234 2.8441 6.91806e-17)
(25.7215 2.85666 9.87116e-17)
(25.7198 2.86967 -1.31483e-17)
(25.7181 2.88308 3.29073e-17)
(25.7164 2.89687 -1.10081e-16)
(25.7146 2.911 -5.63679e-17)
(25.7125 2.92542 1.14787e-16)
(25.71 2.94011 -2.40501e-16)
(25.707 2.95504 -3.24468e-17)
(25.7037 2.97019 1.22861e-16)
(25.6998 2.98544 -1.07818e-16)
(25.696 2.99883 4.55481e-17)
(25.6926 3.01049 1.14633e-17)
(25.689 3.02305 -5.12503e-18)
(25.6852 3.03632 -1.37978e-16)
(25.6805 3.05043 -1.57763e-16)
(25.6736 3.06511 -1.00368e-16)
(25.6622 3.07979 -6.963e-17)
(25.644 3.0959 0)
(25.6239 3.10587 2.3836e-16)
(25.6073 3.13982 -1.54936e-16)
(25.6402 3.10822 -1.90096e-16)
(25.6749 3.29467 1.27451e-16)
(25.8136 2.94833 1.39838e-16)
(25.8382 2.67112 -1.54206e-19)
(25.8379 2.67162 -2.82101e-19)
(25.8377 2.67184 3.44812e-19)
(25.8374 2.6723 -2.60361e-20)
(25.8371 2.67271 -5.45303e-20)
(25.8368 2.67317 -3.49848e-19)
(25.8364 2.67365 -2.64181e-19)
(25.836 2.67416 1.37074e-19)
(25.8356 2.6747 -3.17651e-19)
(25.8351 2.67528 -5.34384e-19)
(25.8346 2.67588 0)
(25.834 2.67653 3.58667e-19)
(25.8334 2.67721 4.46465e-19)
(25.8328 2.67793 1.71958e-19)
(25.8321 2.6787 1.65702e-19)
(25.8313 2.67952 5.7674e-19)
(25.8306 2.68039 -3.92195e-19)
(25.8297 2.68131 -4.14934e-19)
(25.8289 2.6823 9.99855e-20)
(25.8279 2.68334 1.11888e-18)
(25.827 2.68446 -2.79522e-18)
(25.8259 2.68565 -8.63806e-19)
(25.8249 2.68691 2.53751e-19)
(25.8237 2.68826 -5.30696e-19)
(25.8225 2.68971 -2.11024e-18)
(25.8213 2.69124 -1.68079e-18)
(25.82 2.69289 -2.05104e-18)
(25.8187 2.69463 9.4531e-19)
(25.8173 2.6965 -2.41842e-18)
(25.8158 2.6985 2.02292e-18)
(25.8143 2.70063 1.92936e-18)
(25.8127 2.70291 1.10546e-18)
(25.811 2.70535 -6.63563e-19)
(25.8093 2.70794 1.05792e-18)
(25.8075 2.71072 -8.44377e-19)
(25.8056 2.71369 -3.9997e-18)
(25.8037 2.71686 -7.50675e-18)
(25.8017 2.72024 -5.32301e-18)
(25.7997 2.72385 1.14892e-17)
(25.7975 2.72771 1.87271e-17)
(25.7953 2.73182 -1.08216e-17)
(25.7931 2.73621 1.10479e-17)
(25.7908 2.74089 1.15589e-18)
(25.7885 2.74587 7.80363e-18)
(25.7862 2.75119 -1.73102e-17)
(25.7838 2.75684 2.59438e-17)
(25.7815 2.76286 -8.66223e-18)
(25.7792 2.76926 2.65148e-18)
(25.7769 2.77605 3.75258e-17)
(25.7747 2.78325 -1.27387e-17)
(25.7725 2.79087 5.73776e-18)
(25.7703 2.79892 2.94698e-17)
(25.7681 2.80741 -2.79375e-17)
(25.7658 2.81635 4.73956e-17)
(25.7634 2.82573 -3.04893e-17)
(25.761 2.83557 1.1987e-17)
(25.7585 2.84588 5.10054e-17)
(25.7561 2.85666 -5.39262e-17)
(25.7537 2.8679 -7.07339e-17)
(25.7514 2.87963 -3.74114e-17)
(25.7491 2.89179 -9.83757e-17)
(25.7466 2.9044 4.74456e-17)
(25.7439 2.9174 2.32636e-17)
(25.7409 2.93079 -5.84693e-18)
(25.7374 2.94451 1.17814e-16)
(25.7334 2.95858 -9.74397e-18)
(25.729 2.97297 -1.84347e-16)
(25.724 2.98757 9.63433e-17)
(25.7193 3.00049 6.37807e-17)
(25.7151 3.01183 -3.27845e-18)
(25.7107 3.02412 3.77087e-17)
(25.706 3.03718 -2.86355e-18)
(25.7002 3.05115 2.92271e-17)
(25.6919 3.0657 -4.38524e-17)
(25.6787 3.08048 -1.44653e-18)
(25.659 3.09614 0)
(25.638 3.10803 -2.18584e-16)
(25.6235 3.13885 1.66895e-16)
(25.6578 3.11599 3.83106e-17)
(25.6962 3.29187 -1.21552e-16)
(25.8265 2.95761 9.32026e-17)
(25.8548 2.7114 7.39332e-20)
(25.8545 2.71179 7.49318e-21)
(25.8543 2.71199 -1.68518e-19)
(25.8541 2.71235 -4.57197e-20)
(25.8539 2.71269 -2.87546e-20)
(25.8536 2.71307 -2.41793e-20)
(25.8533 2.71346 -4.65657e-20)
(25.853 2.71388 -1.93259e-19)
(25.8527 2.71432 1.8243e-19)
(25.8523 2.71479 4.44341e-19)
(25.8519 2.71529 0)
(25.8515 2.71581 -6.33838e-20)
(25.851 2.71637 2.5291e-19)
(25.8506 2.71697 -1.73966e-19)
(25.8501 2.7176 6.36688e-19)
(25.8495 2.71828 -8.25044e-19)
(25.8489 2.71899 6.79536e-19)
(25.8483 2.71975 -1.46422e-19)
(25.8477 2.72056 7.04833e-20)
(25.847 2.72142 -3.52388e-19)
(25.8463 2.72234 1.57269e-18)
(25.8456 2.72332 1.4813e-18)
(25.8448 2.72436 1.40471e-19)
(25.844 2.72548 5.93321e-19)
(25.8431 2.72666 2.05554e-18)
(25.8422 2.72793 1.68751e-18)
(25.8412 2.72929 1.08561e-18)
(25.8402 2.73073 -4.14586e-18)
(25.8392 2.73227 4.11632e-18)
(25.8381 2.73392 1.78551e-18)
(25.837 2.73569 -3.66073e-18)
(25.8358 2.73757 2.07579e-19)
(25.8345 2.73959 -1.49252e-18)
(25.8332 2.74173 4.87495e-18)
(25.8318 2.74404 3.15588e-18)
(25.8304 2.7465 -5.8144e-19)
(25.8289 2.74913 -7.73264e-19)
(25.8273 2.75194 2.32825e-18)
(25.8257 2.75495 2.21486e-19)
(25.824 2.75816 -6.70918e-18)
(25.8223 2.7616 4.29074e-18)
(25.8205 2.76528 3.27668e-18)
(25.8186 2.7692 -6.57354e-18)
(25.8167 2.7734 -2.32413e-18)
(25.8148 2.77789 -3.16274e-18)
(25.8129 2.78267 -1.02348e-18)
(25.811 2.78778 -5.44417e-18)
(25.809 2.79322 -5.98459e-18)
(25.8071 2.79903 -2.28919e-17)
(25.8051 2.8052 2.06706e-17)
(25.8031 2.81176 2.98189e-17)
(25.8011 2.81872 -2.93554e-17)
(25.7989 2.82608 3.4089e-17)
(25.7967 2.83387 -2.30291e-17)
(25.7943 2.84209 2.54756e-17)
(25.7918 2.85076 -4.24797e-17)
(25.7892 2.85989 -3.34889e-17)
(25.7865 2.86949 3.33574e-17)
(25.7839 2.87957 1.19967e-17)
(25.7812 2.89015 -1.47398e-17)
(25.7785 2.9012 9.76479e-17)
(25.7755 2.91273 -5.41134e-18)
(25.7722 2.92469 8.4971e-18)
(25.7684 2.9371 2.5294e-17)
(25.7642 2.94991 8.43655e-19)
(25.7594 2.96315 9.85079e-17)
(25.7541 2.97678 1.52242e-16)
(25.7482 2.99074 -7.55652e-17)
(25.7428 3.00319 -4.94859e-18)
(25.738 3.0142 -1.3545e-17)
(25.7329 3.02619 8.37727e-18)
(25.7274 3.03903 8.11724e-18)
(25.7206 3.05281 4.05227e-17)
(25.7109 3.06723 4.18443e-17)
(25.696 3.08203 -2.63066e-17)
(25.6748 3.09735 0)
(25.6532 3.11097 -4.70533e-17)
(25.6412 3.13921 -1.6891e-16)
(25.6766 3.12451 9.17884e-17)
(25.7197 3.29111 1.65508e-16)
(25.8383 2.96924 -8.97497e-17)
(25.8699 2.74567 -7.44107e-20)
(25.8701 2.74554 7.89714e-20)
(25.8697 2.746 -1.94055e-21)
(25.8695 2.74617 -8.11871e-21)
(25.8694 2.74647 8.33041e-20)
(25.8692 2.74676 7.68212e-20)
(25.869 2.74707 9.9498e-20)
(25.8688 2.7474 9.03032e-20)
(25.8686 2.74775 -1.30089e-19)
(25.8683 2.74813 -1.32892e-19)
(25.8681 2.74852 -3.45191e-19)
(25.8678 2.74893 0)
(25.8675 2.74938 -6.44389e-21)
(25.8672 2.74985 -3.69543e-19)
(25.8669 2.75035 -5.28422e-19)
(25.8665 2.75088 -5.66472e-19)
(25.8662 2.75145 5.27913e-19)
(25.8658 2.75204 -2.99765e-19)
(25.8654 2.75269 5.83707e-19)
(25.8649 2.75336 3.37072e-20)
(25.8645 2.75409 3.56856e-20)
(25.864 2.75486 -6.97775e-19)
(25.8635 2.75569 -4.66989e-19)
(25.8629 2.75656 -1.5156e-18)
(25.8623 2.7575 -5.30241e-20)
(25.8617 2.7585 2.31342e-20)
(25.8611 2.75956 1.13246e-18)
(25.8604 2.7607 8.19363e-19)
(25.8597 2.76192 8.01933e-19)
(25.859 2.76321 -1.9543e-18)
(25.8582 2.7646 -1.71879e-19)
(25.8574 2.76608 2.88015e-18)
(25.8565 2.76767 -2.05021e-18)
(25.8556 2.76937 -3.97763e-19)
(25.8547 2.77117 -6.23976e-19)
(25.8537 2.77312 5.60109e-19)
(25.8526 2.77519 2.07337e-18)
(25.8515 2.77741 8.10351e-19)
(25.8503 2.77979 9.94418e-19)
(25.8491 2.78233 -1.39492e-18)
(25.8478 2.78505 3.68664e-19)
(25.8465 2.78797 1.56664e-18)
(25.8451 2.79109 -4.66612e-18)
(25.8436 2.79443 7.6077e-18)
(25.8422 2.79802 1.48098e-18)
(25.8407 2.80185 3.80836e-18)
(25.8391 2.80595 -2.62238e-18)
(25.8376 2.81034 -1.00659e-17)
(25.836 2.81503 -1.08879e-17)
(25.8345 2.82005 7.12553e-18)
(25.8328 2.8254 -8.39456e-18)
(25.8311 2.8311 -1.79208e-17)
(25.8293 2.83717 7.77242e-18)
(25.8273 2.84361 -7.00657e-18)
(25.8252 2.85045 4.00492e-18)
(25.8228 2.85771 -2.30403e-17)
(25.8204 2.86539 4.03017e-17)
(25.8178 2.87353 -9.06143e-18)
(25.8152 2.88214 -1.92522e-17)
(25.8125 2.89123 -2.9096e-17)
(25.8096 2.90082 -4.70549e-19)
(25.8066 2.91089 -2.54067e-17)
(25.8033 2.92146 8.24361e-18)
(25.7996 2.9325 -3.5477e-17)
(25.7953 2.94402 -3.04637e-17)
(25.7905 2.956 8.75525e-18)
(25.7851 2.96847 -3.04062e-17)
(25.7791 2.98141 -7.27886e-17)
(25.7726 2.99477 3.80511e-17)
(25.7665 3.00677 -4.2766e-17)
(25.7612 3.01745 9.06132e-18)
(25.7556 3.02916 -4.67589e-17)
(25.7494 3.04177 1.37348e-17)
(25.7416 3.05536 -6.22897e-17)
(25.7306 3.06964 -4.93683e-17)
(25.714 3.08443 2.40097e-17)
(25.6916 3.09955 0)
(25.6697 3.11478 6.31222e-17)
(25.6607 3.14102 -4.38344e-17)
(25.6974 3.13408 1.26645e-16)
(25.7446 3.29223 -9.19933e-17)
(25.8514 2.98386 -1.11318e-16)
(25.8838 2.77455 -1.22727e-19)
(25.884 2.77441 -1.50035e-19)
(25.8837 2.77484 2.75678e-20)
(25.8836 2.77499 1.18936e-20)
(25.8835 2.77525 3.31821e-20)
(25.8834 2.7755 3.08767e-20)
(25.8833 2.77577 7.0871e-20)
(25.8832 2.77606 1.75625e-21)
(25.883 2.77636 1.22435e-19)
(25.8829 2.77669 -2.19574e-20)
(25.8827 2.77703 7.61401e-21)
(25.8826 2.77739 0)
(25.8824 2.77777 5.222e-20)
(25.8822 2.77818 2.55701e-19)
(25.882 2.77862 1.54703e-19)
(25.8818 2.77908 1.24299e-19)
(25.8816 2.77957 3.47814e-20)
(25.8814 2.78009 -9.41659e-20)
(25.8811 2.78065 -3.49681e-19)
(25.8809 2.78123 2.54424e-21)
(25.8806 2.78186 1.54342e-19)
(25.8803 2.78253 -2.49089e-19)
(25.88 2.78324 1.22096e-20)
(25.8797 2.784 -1.05205e-19)
(25.8793 2.78481 -3.63081e-19)
(25.8789 2.78567 -3.5879e-19)
(25.8785 2.78659 -1.00067e-18)
(25.8781 2.78757 -7.0125e-19)
(25.8777 2.78862 1.78927e-18)
(25.8772 2.78974 4.57397e-19)
(25.8767 2.79094 -1.60386e-18)
(25.8762 2.79221 -9.32856e-19)
(25.8756 2.79358 2.3396e-18)
(25.875 2.79503 -7.22703e-19)
(25.8744 2.79659 9.74735e-19)
(25.8737 2.79826 -9.02836e-19)
(25.873 2.80005 -8.65641e-19)
(25.8722 2.80196 3.36123e-18)
(25.8714 2.80401 4.6988e-19)
(25.8705 2.8062 -2.51324e-18)
(25.8696 2.80855 -2.64628e-18)
(25.8687 2.81107 2.49263e-18)
(25.8677 2.81377 1.47534e-18)
(25.8666 2.81666 -3.56171e-18)
(25.8656 2.81977 5.77146e-18)
(25.8645 2.8231 -5.69321e-18)
(25.8634 2.82667 -3.05046e-18)
(25.8623 2.8305 -1.22212e-18)
(25.8611 2.8346 5.5868e-19)
(25.8598 2.83899 -2.83316e-18)
(25.8585 2.84369 -1.03061e-17)
(25.8571 2.8487 1.47969e-17)
(25.8555 2.85406 -7.05898e-18)
(25.8538 2.85976 -4.08087e-18)
(25.8519 2.86583 -1.06021e-17)
(25.8497 2.8723 6.91428e-18)
(25.8474 2.87918 -1.8479e-17)
(25.845 2.8865 5.45866e-18)
(25.8425 2.89428 1.14662e-17)
(25.8398 2.90254 2.10664e-17)
(25.8369 2.91129 -4.83227e-19)
(25.8338 2.92053 -8.80963e-18)
(25.8303 2.93027 -3.03502e-18)
(25.8262 2.94051 2.83231e-17)
(25.8216 2.95126 4.61522e-17)
(25.8164 2.96252 -1.0028e-17)
(25.8106 2.9743 -5.23494e-19)
(25.8041 2.98662 -8.48516e-18)
(25.7971 2.99943 -4.54975e-17)
(25.7906 3.01103 1.82427e-17)
(25.785 3.02143 -1.23714e-18)
(25.7789 3.03287 3.8932e-18)
(25.7721 3.04528 7.07894e-17)
(25.7634 3.05869 3.19183e-17)
(25.751 3.07285 2.07894e-17)
(25.7329 3.0876 2.67318e-17)
(25.7095 3.10269 0)
(25.6879 3.11945 6.52496e-17)
(25.6822 3.14425 -3.23392e-18)
(25.7207 3.14486 -3.24701e-17)
(25.7714 3.29511 -4.22523e-17)
(25.866 3.00187 -9.49723e-17)
(25.898 2.79841 -1.83919e-20)
(25.898 2.79827 3.34907e-21)
(25.8979 2.79866 -1.02294e-19)
(25.8979 2.7988 4.19842e-20)
(25.8978 2.79903 5.81616e-21)
(25.8978 2.79924 -8.36306e-20)
(25.8977 2.79949 -1.05961e-19)
(25.8977 2.79973 -8.54715e-20)
(25.8976 2.8 -5.90271e-20)
(25.8976 2.80029 3.54229e-20)
(25.8975 2.80059 2.75806e-20)
(25.8975 2.80091 0)
(25.8974 2.80125 -1.59782e-19)
(25.8973 2.80161 -5.77016e-20)
(25.8972 2.80199 2.56977e-19)
(25.8971 2.8024 7.83506e-20)
(25.8971 2.80283 2.11188e-19)
(25.897 2.80329 2.49779e-19)
(25.8968 2.80378 7.44225e-20)
(25.8967 2.80431 -2.63314e-19)
(25.8966 2.80486 -1.35752e-19)
(25.8965 2.80545 3.00945e-19)
(25.8963 2.80608 1.86335e-19)
(25.8962 2.80675 3.08886e-19)
(25.896 2.80747 -2.29031e-20)
(25.8958 2.80823 -2.17296e-19)
(25.8957 2.80904 -8.25848e-19)
(25.8954 2.80991 5.62192e-19)
(25.8952 2.81084 -8.02956e-19)
(25.895 2.81183 3.40572e-19)
(25.8947 2.81289 -9.18063e-21)
(25.8944 2.81401 8.99533e-19)
(25.8941 2.81523 -8.63897e-19)
(25.8938 2.81651 1.39733e-18)
(25.8934 2.81789 -2.73159e-19)
(25.893 2.81937 -5.73395e-19)
(25.8926 2.82096 9.26706e-19)
(25.8921 2.82264 -4.64748e-19)
(25.8916 2.82446 1.17462e-18)
(25.8911 2.8264 1.25828e-18)
(25.8905 2.82849 1.45551e-18)
(25.8899 2.83072 -5.05744e-19)
(25.8893 2.83312 -1.28271e-18)
(25.8887 2.83568 -1.1807e-18)