/*--------------------------------*- C++ -*----------------------------------*\
| =========                 |                                                 |
| \\      /  F ield         | OpenFOAM: The Open Source CFD Toolbox           |
|  \\    /   O peration     | Version:  2506                                  |
|   \\  /    A nd           | Website:  www.openfoam.com                      |
|    \\/     M anipulation  |                                                 |
\*---------------------------------------------------------------------------*/
FoamFile
{
    version     2.0;
    format      ascii;
    arch        "LSB;label=32;scalar=64";
    class       volVectorField;
    location    "200";
    object      momentError;
}
// * * * * * * * * * * * * * * * * * * * * * * * * * * * * * * * * * * * * * //

dimensions      [0 1 -2 0 0 0 0];

internalField   nonuniform List<vector> 
1340
(
(0.00914735 0.00108681 1.37152e-15)
(0.0101561 0.00108466 -2.0911e-15)
(0.00758651 0.000706814 -1.10284e-14)
(0.0069165 0.00124895 -2.15488e-14)
(0.0110593 0.00140589 -1.63858e-15)
(0.0114732 0.00150792 -1.07266e-16)
(0.0106078 0.00172466 3.73594e-15)
(0.00580224 0.00207238 9.16281e-15)
(0.00982535 0.0012828 -8.23873e-17)
(0.00958517 0.00141733 1.4504e-14)
(0.00918759 0.00162699 8.75371e-15)
(0.00808165 0.00226365 -1.03642e-13)
(0.00876773 0.000207418 7.64674e-15)
(0.00908515 0.0033923 -1.295e-14)
(0.00839054 0.00111974 -2.98237e-14)
(0.00821949 0.00258104 -3.25636e-16)
(0.00868664 0.00231107 -6.79759e-16)
(0.00795896 -0.00131076 1.02633e-14)
(0.00766334 0.00184684 -1.09255e-14)
(0.00796459 0.00236161 5.65349e-15)
(0.00857747 0.00122929 -1.17867e-14)
(0.00753594 0.00220278 3.48873e-15)
(0.00768997 0.00113234 4.40908e-14)
(0.00812005 0.001698 3.11447e-14)
(0.00822006 0.000822919 7.19313e-15)
(0.00783664 0.00104792 -1.58738e-15)
(0.00748836 0.00133673 -2.32529e-15)
(0.00752557 0.0023466 -4.24924e-14)
(0.0082237 0.00116867 -3.42981e-15)
(0.00780999 0.00129912 -6.37697e-15)
(0.00740838 0.00137649 3.7337e-15)
(0.00720428 0.0024321 -2.27195e-14)
(0.00809866 0.00101204 -1.05759e-15)
(0.00774991 0.00112741 8.9064e-16)
(0.00735283 0.00121763 -8.14272e-15)
(0.00762026 0.00185933 7.9924e-15)
(0.00796008 0.00108868 -4.26032e-16)
(0.00766129 0.00117053 -2.28232e-14)
(0.007241 0.0012221 7.29341e-16)
(0.00751287 0.00177281 1.68351e-14)
(0.00781494 0.00104357 2.19269e-15)
(0.00756042 0.00112206 2.05279e-14)
(0.00711783 0.00117912 7.78623e-15)
(0.00743322 0.0016519 -7.16123e-14)
(0.00765775 0.0010676 7.25692e-15)
(0.00744355 0.00112641 -4.71069e-15)
(0.00697795 0.00116422 -2.27859e-14)
(0.00731271 0.00155528 4.09858e-14)
(0.00749541 0.00105124 -1.25036e-14)
(0.00731672 0.00110537 4.04048e-15)
(0.00682868 0.00113691 2.53233e-14)
(0.00717429 0.00146148 6.19415e-14)
(0.00732374 0.00104814 7.91971e-16)
(0.00717742 0.00109635 2.58986e-15)
(0.00666802 0.0011167 -1.31861e-14)
(0.00701691 0.00137209 -6.33367e-15)
(0.00714704 0.00103079 7.35222e-16)
(0.00702894 0.00108002 -6.61804e-15)
(0.00649898 0.00109814 -2.43933e-14)
(0.00684423 0.00129217 -2.48959e-14)
(0.00696767 0.00100853 -1.06636e-15)
(0.00687498 0.00106159 4.73524e-16)
(0.00632606 0.00108056 1.91904e-14)
(0.00665844 0.00122231 4.77982e-14)
(0.00678867 0.000976363 3.07186e-15)
(0.00671826 0.00103747 -4.2296e-15)
(0.00615385 0.00106167 1.71968e-14)
(0.00646761 0.00116235 -1.93486e-14)
(0.00660873 0.000936328 1.54267e-15)
(0.00656132 0.00100738 7.50861e-15)
(0.00598275 0.00103967 3.76055e-15)
(0.00627516 0.00111076 -9.96701e-15)
(0.00642742 0.000888099 5.63282e-15)
(0.00640375 0.000970547 1.58316e-14)
(0.00581158 0.00101386 -1.01036e-14)
(0.00608407 0.00106515 -3.12647e-14)
(0.00624334 0.000834039 -9.41321e-15)
(0.00624109 0.000927048 -1.78086e-14)
(0.00563876 0.000982629 -1.32158e-14)
(0.00589227 0.00102402 1.14154e-14)
(0.00605829 0.000776155 5.49248e-15)
(0.00607379 0.000877812 4.15001e-15)
(0.0054643 0.000945585 1.99348e-14)
(0.00569948 0.000984837 1.62733e-14)
(0.00587302 0.000717886 -1.98834e-15)
(0.0059042 0.000824663 2.88822e-15)
(0.00529033 0.00090348 -5.28454e-15)
(0.00550597 0.000946676 -1.26092e-14)
(0.00569027 0.000661052 -1.47301e-17)
(0.00573363 0.000769467 -3.63716e-15)
(0.00511835 0.000856712 -1.08322e-14)
(0.00531478 0.00090741 -2.16485e-15)
(0.00550757 0.000609154 1.00035e-16)
(0.00556068 0.000714926 1.72603e-15)
(0.0049474 0.000807204 1.47532e-14)
(0.00512658 0.000867152 1.78444e-14)
(0.00532704 0.000563158 2.42475e-15)
(0.00538604 0.000662554 -5.33792e-15)
(0.00477634 0.000756173 -4.50688e-15)
(0.00494 0.000824457 -1.11146e-14)
(0.00514953 0.000524626 -9.2714e-17)
(0.00521237 0.000615354 8.9514e-15)
(0.0046068 0.000706449 -1.18118e-14)
(0.00475452 0.000780707 -1.95835e-14)
(0.00497812 0.000492935 4.46716e-15)
(0.005042 0.00057383 -1.19477e-14)
(0.00444177 0.00065909 -2.31403e-15)
(0.00457325 0.000736133 2.12279e-14)
(0.0048103 0.000466767 -8.9159e-15)
(0.00487576 0.00053854 2.82144e-15)
(0.00428149 0.000615782 1.39272e-15)
(0.00439763 0.000692488 -9.66894e-15)
(0.00464681 0.000443886 7.51844e-15)
(0.00471157 0.000508181 -1.59732e-16)
(0.00412452 0.000576729 7.0566e-15)
(0.00422727 0.000649854 1.402e-14)
(0.00448512 0.0004226 -8.09763e-15)
(0.00454891 0.00048215 6.86734e-15)
(0.00397077 0.000542418 2.02189e-15)
(0.0040608 0.00060995 4.79813e-16)
(0.00432678 0.000401741 -1.74653e-15)
(0.00438993 0.000459012 2.65535e-15)
(0.00382066 0.000512713 1.09799e-15)
(0.00389893 0.000573261 -9.25376e-15)
(0.00417142 0.000380603 7.87113e-15)
(0.00423919 0.000438212 -1.49666e-15)
(0.00367611 0.000487306 -3.66515e-15)
(0.00374283 0.000541046 -1.35663e-14)
(0.00401919 0.000358526 1.32316e-15)
(0.00409151 0.00041831 -1.21133e-16)
(0.00353717 0.0004655 1.73473e-15)
(0.00359382 0.000513408 8.43078e-15)
(0.00386752 0.000334935 -6.31522e-15)
(0.00394447 0.000398743 -3.60782e-15)
(0.00340193 0.000446216 -1.61828e-15)
(0.00345074 0.00049016 9.12059e-15)
(0.00371775 0.000310302 4.00123e-15)
(0.00379868 0.000378933 4.7627e-15)
(0.00326945 0.000428597 3.62905e-15)
(0.00331268 0.000470669 -7.97956e-15)
(0.00356977 0.000284928 -2.95575e-15)
(0.0036551 0.000358579 -3.85755e-15)
(0.0031413 0.000412069 -2.10907e-15)
(0.00318063 0.000454238 1.06408e-14)
(0.00342326 0.000259331 -1.85409e-15)
(0.00351147 0.000337867 2.95278e-15)
(0.00301563 0.000396017 1.3644e-15)
(0.00305406 0.000439765 -3.05416e-15)
(0.00327758 0.000234047 -7.34815e-16)
(0.00336778 0.000316854 -3.02485e-15)
(0.0028914 0.000379982 3.65612e-15)
(0.0029307 0.000426623 -2.84509e-15)
(0.00329482 0.00010561 4.83449e-15)
(0.00358887 0.000205865 -2.39836e-16)
(0.00296127 0.000300156 2.11782e-15)
(0.00277061 0.000362452 -1.46345e-15)
(0.00281326 0.000414305 -8.1974e-15)
(0.00315384 8.85595e-05 -6.35774e-15)
(0.00341058 0.000187432 1.83518e-15)
(0.00283297 0.000279253 1.70947e-15)
(0.00265299 0.00034299 -1.13853e-14)
(0.00269945 0.000401939 1.79973e-15)
(0.00300768 7.52157e-05 1.45145e-15)
(0.00325495 0.000170448 -3.18672e-16)
(0.00270598 0.000258541 -8.74817e-16)
(0.00253474 0.000324209 1.0052e-14)
(0.00258576 0.000389627 6.38719e-15)
(0.00286625 6.52073e-05 8.89155e-16)
(0.00310384 0.000155758 -6.21498e-16)
(0.0025821 0.000240529 -2.17149e-15)
(0.00241879 0.000306898 -6.93957e-17)
(0.00247402 0.000377159 1.13897e-16)
(0.00272934 5.90356e-05 -3.5094e-15)
(0.00295504 0.00014489 -3.4776e-15)
(0.00246115 0.000225704 -3.81365e-15)
(0.00230536 0.000291234 -2.06989e-15)
(0.00236518 0.000364842 -2.48761e-15)
(0.00259513 5.61066e-05 -1.43443e-15)
(0.0028102 0.000137471 -4.16686e-16)
(0.00234241 0.000213734 3.36493e-15)
(0.00219344 0.000277311 1.11791e-15)
(0.00225792 0.00035282 -6.48939e-15)
(0.0024652 5.58972e-05 -4.26549e-15)
(0.0026695 0.000132551 3.38603e-15)
(0.00222702 0.000204618 1.86756e-15)
(0.00208397 0.000265462 -1.79309e-15)
(0.00215226 0.00034157 3.28633e-15)
(0.0023399 5.76523e-05 1.24128e-15)
(0.00253193 0.000129896 -1.66828e-15)
(0.00211589 0.000197671 -5.71723e-16)
(0.00197849 0.000255338 2.40229e-15)
(0.00205027 0.00033108 5.65498e-15)
(0.00221958 6.07005e-05 1.77583e-15)
(0.00240118 0.00012869 -1.43418e-15)
(0.0020073 0.000192409 -2.46654e-15)
(0.00187543 0.000246738 -1.55108e-16)
(0.00195072 0.00032145 -4.62283e-15)
(0.00210418 6.5164e-05 -5.80415e-16)
(0.00227193 0.000128945 8.70908e-17)
(0.00190101 0.000188812 3.18896e-15)
(0.00177448 0.000239696 -1.98563e-15)
(0.00185283 0.000312833 1.26033e-15)
(0.00199223 7.14686e-05 -2.2838e-15)
(0.00214709 0.000130762 1.5147e-16)
(0.00179795 0.000187077 3.71864e-15)
(0.00167676 0.000234488 -3.21185e-15)
(0.00175725 0.000305685 -2.50749e-15)
(0.00188359 7.98254e-05 1.71429e-15)
(0.00202449 0.000134704 4.62035e-16)
(0.00169861 0.000187347 7.59466e-16)
(0.00158285 0.000231044 6.02745e-16)
(0.0016653 0.000300152 -9.60318e-16)
(0.00177621 8.93104e-05 8.6871e-16)
(0.00190815 0.000140391 -2.27368e-15)
(0.00160201 0.000189517 -1.94674e-15)
(0.00149177 0.000229119 1.88271e-15)
(0.00157609 0.000296004 4.55648e-15)
(0.00170096 9.92913e-05 -1.11675e-15)
(0.00176761 0.000146773 3.01957e-15)
(0.00150734 0.000193344 9.00032e-17)
(0.00140309 0.000228652 -2.18748e-15)
(0.00148881 0.000293181 2.80535e-15)
(0.00167659 6.60801e-05 -2.11435e-15)
(0.00183812 0.000108948 3.53455e-16)
(0.00149558 0.000156088 1.33941e-15)
(0.00141517 0.000196977 1.37285e-16)
(0.00131832 0.000228983 -3.52367e-15)
(0.00140464 0.000291586 -3.17068e-15)
(0.00156775 8.38668e-05 1.26796e-15)
(0.00171595 0.0001229 2.97576e-15)
(0.00140141 0.000164246 6.35068e-17)
(0.00132759 0.000200516 -3.06503e-15)
(0.00123607 0.000229735 9.12995e-16)
(0.00132329 0.000290793 -2.42946e-15)
(0.00146256 0.000101709 -1.76183e-15)
(0.00160573 0.000136542 -2.27602e-15)
(0.00131184 0.000172524 1.02785e-15)
(0.00124309 0.000205027 1.46727e-15)
(0.00115679 0.000231054 -1.42581e-15)
(0.00124481 0.000290553 2.62209e-16)
(0.00136153 0.00011912 7.01568e-16)
(0.00149554 0.000150042 -2.93037e-16)
(0.00122488 0.000181491 6.40802e-17)
(0.00116132 0.000210384 -1.10859e-16)
(0.00107995 0.00023287 1.74146e-15)
(0.00116879 0.000291017 5.83275e-16)
(0.00126452 0.000135816 1.16171e-15)
(0.00138968 0.000163299 6.71304e-16)
(0.00114148 0.000190608 -2.22234e-15)
(0.00108263 0.0002162 -1.41842e-15)
(0.00100607 0.000235349 -1.07694e-15)
(0.00109516 0.000292341 2.49254e-16)
(0.00117182 0.000151603 -1.37388e-15)
(0.00128901 0.000175976 -1.87955e-15)
(0.00106117 0.000199701 -1.10951e-15)
(0.00100686 0.000222366 2.90371e-15)
(0.000934972 0.000238282 3.95443e-16)
(0.00102427 0.000294552 2.93707e-16)
(0.00108408 0.000166562 -1.67872e-16)
(0.00119027 0.00018829 1.19437e-15)
(0.000984377 0.000208735 -6.77973e-16)
(0.000934499 0.000228539 -5.52881e-16)
(0.000867296 0.00024138 3.38501e-15)
(0.000956357 0.000297255 -1.36466e-15)
(0.000999406 0.000180738 1.84241e-15)
(0.00110478 0.000200325 1.39308e-15)
(0.000911427 0.000217626 -2.43878e-15)
(0.000865661 0.000234512 7.56102e-16)
(0.000802826 0.00024424 -9.77236e-16)
(0.00089147 0.000300262 1.06484e-15)
(0.000939597 0.000193454 -1.2361e-15)
(0.00099557 0.000211572 7.96047e-16)
(0.000839815 0.00022627 1.73607e-15)
(0.000799846 0.000240278 -2.7274e-15)
(0.000741091 0.000246904 1.41103e-15)
(0.000828366 0.000303319 2.63414e-15)
(0.000871743 0.00018816 -4.95096e-16)
(0.000999509 0.000206025 4.33437e-16)
(0.000819173 0.000220924 3.69231e-16)
(0.000772772 0.00023345 -1.0105e-15)
(0.000737866 0.000245264 1.36776e-16)
(0.000682501 0.000249417 1.54685e-15)
(0.000767858 0.000306234 5.67409e-17)
(0.000796717 0.000201205 1.46115e-15)
(0.000914082 0.00021742 1.98877e-15)
(0.000751384 0.000229458 -1.82778e-15)
(0.000710049 0.000239155 -1.12337e-16)
(0.0006783 0.000249374 -6.95669e-16)
(0.000626485 0.000251371 -7.62806e-16)
(0.000709581 0.000308531 2.44444e-15)
(0.000726973 0.000212764 -1.30081e-16)
(0.000834828 0.000227241 -1.01422e-15)
(0.000688076 0.000236811 -1.21187e-15)
(0.000650836 0.000244413 2.61972e-15)
(0.000621717 0.00025277 1.13159e-15)
(0.000573579 0.000252638 -3.13347e-15)
(0.00065416 0.000309965 -2.30512e-15)
(0.000664296 0.000223664 6.40409e-16)
(0.000759355 0.000236293 -7.61635e-16)
(0.000629297 0.000243583 2.19581e-16)
(0.000595547 0.000249109 5.30777e-16)
(0.000568898 0.000255464 -1.0881e-15)
(0.000524319 0.000253131 -2.17814e-15)
(0.000601961 0.000310486 2.51261e-15)
(0.000607454 0.000234386 2.8073e-15)
(0.000703011 0.000245127 5.81832e-17)
(0.000575753 0.000250179 -1.84666e-15)
(0.00054486 0.000253535 1.47966e-16)
(0.000520213 0.000257768 1.29204e-15)
(0.000478838 0.000253212 5.94099e-16)
(0.000553302 0.000310434 -4.76636e-16)
(0.000557316 0.000244579 -3.39185e-16)
(0.000641896 0.000253946 3.25051e-16)
(0.000526809 0.000256607 -4.99267e-16)
(0.000498294 0.000257809 -7.16502e-16)
(0.000475284 0.000259991 4.84657e-16)
(0.000436691 0.000253112 -1.1282e-15)
(0.000507699 0.000310062 1.82485e-16)
(0.000528598 0.000255307 1.68042e-15)
(0.000621598 0.000263426 8.05993e-16)
(0.000495974 0.000263367 2.23287e-16)
(0.000464177 0.000261654 6.97211e-16)
(0.0004405 0.000262426 -5.72994e-17)
(0.000404977 0.000254713 8.06976e-16)
(0.000474641 0.000312753 -3.73743e-17)
(0.000494628 0.000261803 7.4649e-16)
(0.00058103 0.000269797 1.81732e-15)
(0.000466019 0.000269226 -5.73203e-16)
(0.000435124 0.000265675 -1.08453e-15)
(0.000407096 0.000261866 6.11185e-16)
(0.000371378 0.000251841 4.72265e-16)
(0.000436922 0.000309379 4.43148e-16)
(0.000460554 0.000268257 8.17917e-16)
(0.00054259 0.000277038 -8.51819e-16)
(0.000437609 0.000275884 -4.56637e-16)
(0.000408908 0.000271457 7.68478e-16)
(0.000378546 0.000263541 1.90224e-15)
(0.000340491 0.000249544 -8.07087e-16)
(0.000400995 0.000306563 -2.52895e-15)
(0.000439693 0.00027324 -1.06149e-17)
(0.000487791 0.000283499 -5.15686e-16)
(0.000406864 0.000282171 1.25004e-17)
(0.000382038 0.000277181 7.2308e-16)
(0.000353488 0.000267513 -1.37977e-16)
(0.00031335 0.000248251 -4.49391e-16)
(0.000368174 0.000303872 5.9982e-16)
(0.000397776 0.000265386 -1.43649e-15)
(0.000483935 0.000279505 -8.63642e-16)
(0.000395428 0.000284208 -5.6171e-17)
(0.000379426 0.00028673 4.65413e-16)
(0.000357868 0.000281728 4.3872e-16)
(0.000331018 0.000271443 1.29473e-15)
(0.000291572 0.000249067 -6.22008e-16)
(0.000338884 0.000301451 -1.5247e-15)
(0.000361981 0.000266292 1.54844e-16)
(0.000443051 0.000281313 -3.95849e-17)
(0.000364891 0.000286696 -5.02262e-16)
(0.000352319 0.000289643 1.22736e-15)
(0.000333483 0.000285153 3.8005e-16)
(0.000308832 0.000274664 -1.26328e-15)
(0.000271909 0.000251215 -6.341e-16)
(0.000314782 0.00030176 3.22813e-16)
(0.000329058 0.000264641 -9.3138e-16)
(0.000401057 0.000279919 4.78901e-18)
(0.000334243 0.000285929 3.78923e-16)
(0.000324988 0.000289931 -1.36693e-15)
(0.0003093 0.000286517 2.69826e-15)
(0.000287338 0.00027663 -3.02718e-16)
(0.000253251 0.000253012 -1.14524e-15)
(0.000295989 0.000308014 1.03348e-15)
(0.000297724 0.000262581 5.23072e-17)
(0.000376827 0.000276887 5.90685e-16)
(0.000304953 0.000282046 7.41606e-16)
(0.000298085 0.000285755 -1.08369e-15)
(0.000285288 0.000282289 1.20059e-15)
(0.000266191 0.00027226 -6.32216e-16)
(0.000235081 0.000248887 -1.47008e-15)
(0.000273822 0.000301299 1.68218e-15)
(0.000274504 0.000262208 1.73481e-16)
(0.000347904 0.000276777 6.60926e-16)
(0.000282596 0.000282759 1.30938e-15)
(0.000277659 0.000287597 -2.56069e-17)
(0.000267095 0.000285372 -1.88859e-15)
(0.000250376 0.000276694 5.53409e-16)
(0.000222228 0.000253485 -5.45203e-16)
(0.000267635 0.000317227 -3.59833e-16)
(0.00025368 0.000249377 -6.2351e-16)
(0.000323993 0.000258367 -9.74635e-16)
(0.000261654 0.00026081 3.05991e-16)
(0.000257926 0.000261933 1.48323e-15)
(0.000249386 0.000257043 2.81631e-16)
(0.000235212 0.000246331 -5.861e-16)
(0.000208317 0.000223173 1.3262e-16)
(0.000238563 0.000263022 8.40358e-16)
(0.000255403 0.000306845 1.58445e-15)
(0.000319019 0.000324591 4.62898e-16)
(0.000262488 0.000330254 -1.30284e-15)
(0.000258205 0.00033478 1.38786e-16)
(0.000248841 0.000330721 -9.30657e-16)
(0.000234611 0.000319487 -3.34834e-16)
(0.000211929 0.000290568 1.73111e-15)
(0.000278724 0.000380676 -1.12354e-16)
(0.000208219 0.000161123 -1.04953e-15)
(0.000268132 0.000164341 -4.71293e-16)
(0.000219981 0.00016593 1.00071e-15)
(0.00021891 0.000165147 -4.34074e-16)
(0.000212959 0.000160016 -3.61526e-16)
(0.000200893 0.000150049 1.21972e-15)
(0.000172193 0.000131408 -8.79051e-17)
(0.000173668 0.000142587 -8.51307e-16)
(0.000192077 0.000501044 -6.28598e-16)
(0.000218309 0.000521094 -1.24663e-15)
(0.000192389 0.000536923 -6.58665e-16)
(0.000188046 0.000544927 2.36259e-15)
(0.000181229 0.00054053 -1.30294e-16)
(0.000172284 0.000524439 -6.2353e-16)
(0.000165858 0.000483959 -8.58384e-16)
(0.000246376 0.000607049 -3.33858e-15)
(0.0168794 -0.00620554 -1.47298e-14)
(0.0195686 0.00136688 1.78129e-14)
(0.0130485 0.0036692 -9.4216e-14)
(0.0119648 0.00337566 1.65791e-14)
(0.0108497 0.00308652 3.69328e-14)
(0.0105633 0.00319086 -1.7849e-14)
(0.0106882 0.00280318 -5.63279e-14)
(0.0104712 0.00229309 3.65513e-15)
(0.0103772 0.00221837 4.88731e-15)
(0.0102272 0.002026 -2.55945e-14)
(0.0100278 0.00184894 -1.27134e-14)
(0.00980197 0.00168487 3.64381e-14)
(0.00955515 0.00153212 5.64239e-14)
(0.00929022 0.0013972 -3.54369e-14)
(0.00901155 0.00128242 2.21769e-14)
(0.00872514 0.00119002 9.87282e-15)
(0.00843859 0.0011167 -4.68602e-14)
(0.00815574 0.00106228 3.68819e-14)
(0.00787774 0.00102168 -5.08526e-14)
(0.00760359 0.000994335 3.02184e-14)
(0.00733285 0.000974754 -8.06423e-15)
(0.00706704 0.000961546 1.88227e-15)
(0.00680795 0.000948909 1.08609e-14)
(0.00655518 0.00093608 -9.94205e-15)
(0.00630729 0.000918817 -2.99518e-15)
(0.0060648 0.000897356 -4.25933e-15)
(0.00582981 0.000870252 1.61166e-14)
(0.0056035 0.000839104 -1.0313e-14)
(0.00538469 0.00080425 1.22232e-14)
(0.00517243 0.000767881 2.19582e-15)
(0.00496711 0.000731644 -1.40071e-14)
(0.00477028 0.000697791 -1.22699e-14)
(0.00458309 0.000667499 1.18723e-14)
(0.00440459 0.000641499 8.62072e-15)
(0.0042342 0.000620037 -2.95035e-15)
(0.00407377 0.000603028 5.97235e-15)
(0.00391458 0.000589351 -1.7064e-15)
(0.00376681 0.000578491 -1.18553e-14)
(0.00362895 0.000570158 3.51577e-15)
(0.00349667 0.000562958 -2.02001e-16)
(0.0033667 0.00055619 -7.91532e-16)
(0.00324021 0.000549113 6.55351e-15)
(0.00311708 0.000541506 -4.82707e-15)
(0.00299547 0.000532876 -8.14905e-16)
(0.00287572 0.000523674 7.6739e-16)
(0.00275903 0.000513928 5.89538e-15)
(0.00264383 0.000504109 -2.63752e-15)
(0.00252937 0.000494617 5.57007e-15)
(0.00241684 0.000486514 -1.04394e-15)
(0.00230747 0.00048005 1.47833e-15)
(0.00219897 0.000474983 1.41033e-15)
(0.00209273 0.000471215 2.87696e-16)
(0.00198949 0.000468697 1.53043e-15)
(0.00188913 0.000467243 1.86004e-15)
(0.00179156 0.000466868 -1.04213e-15)
(0.0016963 0.000467838 -3.68247e-16)
(0.00160348 0.000470386 -1.36431e-15)
(0.00151368 0.000474516 1.98549e-15)
(0.00142732 0.000480243 -3.95093e-15)
(0.00134354 0.000486966 1.2309e-15)
(0.00126149 0.000494358 -4.66559e-15)
(0.00118171 0.000501472 -2.01352e-15)
(0.00110389 0.000507549 1.70343e-16)
(0.00102888 0.000512736 3.02929e-15)
(0.000957514 0.000517069 3.47637e-15)
(0.000890239 0.000521186 -7.65357e-16)
(0.000825875 0.000525612 -2.9382e-15)
(0.000790827 0.000539892 -1.34491e-15)
(0.000740003 0.000542788 1.86578e-15)
(0.000691445 0.000546685 5.26441e-15)
(0.000646184 0.000551281 -2.38369e-15)
(0.000604708 0.000557152 2.01818e-15)
(0.000566142 0.000563363 -1.6929e-15)
(0.000534662 0.000577767 -6.99046e-16)
(0.000493495 0.000562907 -8.01973e-16)
(0.000495031 0.000608603 3.79806e-15)
(0.000431615 0.000497472 -3.96345e-16)
(0.000552101 0.000769226 2.27964e-16)
(0.000300647 0.00026948 8.92893e-16)
(0.000486349 0.00115426 9.72815e-15)
(0.0333644 -0.00329049 3.89777e-15)
(0.0233121 -0.00500991 -4.3312e-15)
(0.0133257 -0.0028211 1.90929e-14)
(0.0127543 -0.00275768 -3.99209e-15)
(0.0118986 -0.00309822 -6.12485e-15)
(0.0118173 -0.00246616 1.92495e-15)
(0.0115601 -0.00142207 1.04102e-14)
(0.0112521 -0.00161998 -6.29784e-16)
(0.0109819 -0.00140678 -7.42169e-16)
(0.010707 -0.00114683 3.53678e-15)
(0.0104212 -0.000928943 3.86896e-15)
(0.0101294 -0.000733421 -7.56892e-15)
(0.0098311 -0.000564112 -1.00778e-14)
(0.00952834 -0.00040736 6.32395e-15)
(0.00922314 -0.000264774 -3.51554e-15)
(0.00892076 -0.000131578 -2.51365e-15)
(0.0086241 -9.38582e-06 7.90688e-15)
(0.00833398 0.000104934 -6.18708e-15)
(0.00804793 0.000209924 9.16781e-15)
(0.00776631 0.000308351 -5.81878e-15)
(0.00748923 0.000398716 1.02592e-15)
(0.00721898 0.000481608 -1.89374e-16)
(0.0069555 0.000554283 -1.44241e-15)
(0.00669776 0.000616335 8.79332e-16)
(0.0064451 0.000665572 8.78443e-16)
(0.00619893 0.000702119 1.40911e-15)
(0.00596035 0.000725323 -3.24934e-15)
(0.00572875 0.000736054 2.12863e-15)
(0.00550262 0.000735406 -2.63149e-15)
(0.00528149 0.000725786 -1.36104e-16)
(0.00506651 0.000709706 2.29506e-15)
(0.0048587 0.00068964 2.40667e-15)
(0.00465893 0.000667564 -2.59054e-15)
(0.00446653 0.000645117 -1.28003e-15)
(0.00428159 0.000623831 1.29271e-15)
(0.00410636 0.000604459 -1.34856e-15)
(0.0039375 0.000587223 1.46771e-16)
(0.00375353 0.000572235 1.86854e-15)
(0.00359674 0.000559625 -4.02811e-16)
(0.00345204 0.000548711 4.41327e-16)
(0.00331326 0.000539621 6.23926e-16)
(0.00318045 0.000531642 -1.91969e-15)
(0.0030526 0.000524182 9.32994e-16)
(0.00292778 0.000516378 4.47233e-16)
(0.00280666 0.000508409 -1.11273e-15)
(0.00268936 0.000500029 -7.89694e-16)
(0.00257402 0.000491526 8.63212e-17)
(0.00246001 0.000483242 -2.06099e-16)
(0.00234877 0.000476033 -3.59849e-16)
(0.00224073 0.000469961 6.48553e-16)
(0.00213449 0.000464878 -6.77365e-16)
(0.00202252 0.000460732 1.20447e-15)
(0.00192067 0.000457488 2.58882e-16)
(0.00182221 0.00045518 -1.43616e-16)
(0.00172659 0.000454014 4.26095e-16)
(0.00163303 0.000453987 9.3086e-16)
(0.00154214 0.000455327 2.08255e-16)
(0.00145429 0.000458037 1.31201e-16)
(0.00136998 0.000462345 1.87077e-15)
(0.00128873 0.000467903 -1.40908e-15)
(0.00120701 0.000474016 -7.74753e-16)
(0.00113024 0.00048015 -1.47913e-15)
(0.00105579 0.00048565 -9.65844e-16)
(0.000984104 0.000490493 -2.73691e-15)
(0.000915945 0.000495027 -8.16132e-16)
(0.000851835 0.000499551 -2.06506e-16)
(0.000791027 0.000504353 6.67124e-16)
(0.000759743 0.000519361 5.11472e-16)
(0.000711081 0.000521803 -9.09114e-16)
(0.000665145 0.000525131 -2.92723e-16)
(0.000621196 0.000529054 8.58662e-16)
(0.000581222 0.000533844 -3.36278e-16)
(0.000542945 0.000538106 -5.05492e-16)
(0.00050982 0.000548155 7.94647e-16)
(0.000472359 0.000535426 5.85891e-17)
(0.000464457 0.000572611 -5.34552e-16)
(0.000424406 0.000488627 1.16313e-15)
(0.000491116 0.000706132 -2.36016e-16)
(0.000337817 0.000301292 -1.52461e-16)
(0.000380329 0.00105807 4.1089e-16)
(0.0568764 -0.000189069 -1.21585e-16)
(0.0354069 -0.000453091 -6.95226e-17)
(0.0196421 -0.000100298 -8.6873e-17)
(0.0173413 -0.000394819 1.09216e-16)
(0.0163587 -0.000262178 -2.4663e-16)
(0.0156593 -0.000410802 -1.72445e-16)
(0.0149989 -0.000301546 1.61054e-17)
(0.0143664 -0.000136211 -2.0776e-16)
(0.0137299 -6.87836e-05 -2.36093e-16)
(0.0131115 -3.42407e-06 1.06538e-16)
(0.0125042 4.60804e-05 -2.49042e-16)
(0.0119146 8.70257e-05 -2.07845e-16)
(0.0113412 0.000122177 1.7974e-16)
(0.0107882 0.000158651 3.57835e-16)
(0.010258 0.000194844 -1.93944e-16)
(0.00975498 0.000231829 1.92543e-16)
(0.0092789 0.000269972 1.01299e-16)
(0.0088294 0.000310733 -1.39537e-17)
(0.00840326 0.000353845 -3.79836e-17)
(0.00800036 0.000400698 1.49106e-16)
(0.00762056 0.000450514 7.14386e-16)
(0.00726449 0.00050292 -3.48054e-17)
(0.0069305 0.000555287 2.0165e-16)
(0.00661577 0.000606102 8.57947e-17)
(0.0063194 0.000652278 -1.13398e-16)
(0.00604151 0.000692258 -1.87982e-16)
(0.00578089 0.000723714 -4.92189e-16)
(0.00553425 0.000745886 -9.37862e-18)
(0.00529888 0.000758049 1.19722e-18)
(0.00507325 0.000761135 1.84166e-16)
(0.00485754 0.000756242 2.37035e-16)
(0.00465099 0.000745066 -1.0978e-15)
(0.00445295 0.000729005 -1.23792e-15)
(0.00426234 0.000709663 -6.12813e-16)
(0.00407901 0.000688473 2.36881e-16)
(0.00390429 0.000666712 6.71598e-16)
(0.00373759 0.000645254 1.23211e-18)
(0.0035643 0.000625029 1.50696e-16)
(0.00340956 0.000606835 4.89835e-16)
(0.00326409 0.000590745 5.01697e-16)
(0.00312518 0.000577184 4.36273e-17)
(0.0029935 0.000565815 -2.35546e-16)
(0.00286783 0.000556049 -1.61749e-16)
(0.00274686 0.000547054 -7.93452e-16)
(0.0026311 0.000538812 -1.39624e-15)
(0.00251985 0.00053078 -6.89978e-16)
(0.00241116 0.000522886 -2.65391e-16)
(0.00230465 0.000515218 9.34832e-16)
(0.00220147 0.000508354 1.37595e-15)
(0.0021015 0.000502173 -3.2538e-17)
(0.00200365 0.0004965 4.25721e-16)
(0.00190239 0.000491246 -1.53928e-15)
(0.00180839 0.000486644 -1.19696e-15)
(0.00171706 0.000482831 1.62823e-16)
(0.00162786 0.000479883 -8.55126e-16)
(0.00154035 0.00047779 -2.67389e-16)
(0.00145501 0.000476644 -3.00681e-16)
(0.00137232 0.000476744 6.02945e-16)
(0.00129276 0.000478452 2.96527e-15)
(0.00121612 0.000481669 5.46413e-16)
(0.00114006 0.000485904 3.29645e-15)
(0.00106825 0.00049038 1.40453e-16)
(0.000998577 0.000494603 3.42655e-16)
(0.000931532 0.000498593 -1.47248e-15)
(0.000867506 0.000502299 -2.42413e-16)
(0.000806962 0.000505878 8.23276e-16)
(0.000749743 0.000509293 -3.28362e-16)
(0.000720824 0.000523259 6.24636e-16)
(0.000674057 0.000524019 -2.14439e-16)
(0.00063049 0.000525544 -6.72809e-16)
(0.000588845 0.000527114 -9.27566e-16)
(0.000550145 0.000529099 4.84561e-16)
(0.000513199 0.000530237 1.61998e-15)
(0.00048017 0.000537647 -1.57025e-15)
(0.000447636 0.000524655 5.87381e-17)
(0.000434083 0.000559722 -1.01644e-16)
(0.000413299 0.000478457 -2.61087e-15)
(0.000442926 0.000677101 2.05571e-15)
(0.000355456 0.000292416 -2.07943e-17)
(0.000311081 0.00100567 -3.52395e-15)
(0.0569352 0.00275149 2.54398e-17)
(0.0336902 0.00254266 -3.43165e-17)
(0.0188125 0.0023325 2.54743e-18)
(0.0170778 0.00222713 -6.65947e-17)
(0.0164098 0.0022461 2.79332e-17)
(0.0156867 0.00216117 1.89367e-17)
(0.0150436 0.00214448 -1.74951e-17)
(0.0143897 0.00209192 -1.55985e-17)
(0.0137473 0.00203776 -1.57328e-16)
(0.0131232 0.0019594 -7.6831e-18)
(0.0125142 0.00187016 1.37183e-16)
(0.0119219 0.00177398 -1.16521e-17)
(0.0113464 0.00167686 5.44784e-17)
(0.010791 0.00157966 -1.44921e-17)
(0.0102583 0.00148305 9.66328e-19)
(0.00975021 0.00138765 -1.8269e-16)
(0.00926584 0.00129631 -3.46867e-16)
(0.00880336 0.00121015 -3.53426e-16)
(0.00836162 0.00113179 1.68335e-16)
(0.00794184 0.00106276 -2.84906e-17)
(0.00754472 0.00100488 5.1902e-16)
(0.00717064 0.000958627 -1.2947e-16)
(0.00681866 0.000923615 -3.67229e-16)
(0.00648788 0.000898793 2.90515e-16)
(0.00617797 0.000882154 -5.12938e-17)
(0.00588951 0.000871583 5.20546e-18)
(0.00562084 0.000864447 -1.23353e-16)
(0.0053687 0.000858556 -2.51062e-17)
(0.00513048 0.000851817 4.49283e-17)
(0.00490509 0.000843199 9.55473e-17)
(0.00469207 0.000831963 4.49647e-16)
(0.00448975 0.000817834 5.02472e-17)
(0.00429665 0.000800706 3.20589e-16)
(0.00411167 0.00078093 -2.01101e-16)
(0.00393385 0.000758995 7.83602e-18)
(0.00376353 0.00073542 7.82358e-17)
(0.00360108 0.000710947 -5.10829e-16)
(0.00343696 0.000686671 -1.93934e-16)
(0.00328521 0.000663512 4.18626e-16)
(0.0031404 0.00064196 -7.0323e-17)
(0.00300171 0.000622795 -1.77253e-16)
(0.00287 0.000606013 4.90399e-16)
(0.00274433 0.000591479 6.27608e-16)
(0.002624 0.000578744 7.61967e-16)
(0.00250962 0.000567814 4.07374e-16)
(0.00240039 0.000558049 1.88244e-16)
(0.00229453 0.000549128 9.22414e-16)
(0.00219187 0.000540895 -1.85921e-16)
(0.00209325 0.000533593 -1.83252e-16)
(0.00199818 0.00052691 -1.60238e-15)
(0.0019057 0.000520616 2.97678e-16)
(0.00181193 0.000514722 1.83432e-15)
(0.00172366 0.000509344 -1.67459e-15)
(0.00163775 0.000504661 -2.63717e-16)
(0.00155372 0.000500633 2.48984e-16)
(0.00147099 0.000497147 -7.86696e-16)
(0.00139 0.000494295 2.90495e-16)
(0.00131117 0.00049235 -1.46094e-15)
(0.00123502 0.000491881 -1.69176e-15)
(0.00116166 0.000492909 -1.52933e-16)
(0.00108965 0.000495101 -1.69152e-15)
(0.00102154 0.000498016 4.93082e-17)
(0.000955643 0.000501092 -3.88204e-16)
(0.000892253 0.000504176 3.96361e-15)
(0.000831633 0.000507158 6.31915e-16)
(0.000774063 0.000509796 -8.26443e-17)
(0.0007197 0.000511774 5.66151e-16)
(0.000692576 0.000524589 -3.02608e-16)
(0.00064722 0.000523386 7.10181e-16)
(0.000605063 0.000522785 2.03618e-15)
(0.000564872 0.000522246 1.63982e-15)
(0.000527194 0.000522092 1.22607e-15)
(0.00049108 0.00052102 4.1464e-16)
(0.000458175 0.000526604 4.65435e-17)
(0.000428107 0.000513682 -2.14084e-18)
(0.000412578 0.000546039 5.29137e-16)
(0.000397403 0.000466047 -4.09597e-15)
(0.000414846 0.000651223 -3.42171e-15)
(0.0003438 0.000282343 5.95578e-17)
(0.000288359 0.000971899 5.7538e-16)
(0.0503715 0.00238711 8.93307e-17)
(0.0266205 0.00165587 4.68737e-17)
(0.0160945 0.00130598 -6.34098e-18)
(0.0161092 0.00125938 -3.36202e-17)
(0.0153225 0.00132322 -3.35383e-16)
(0.014583 0.00134838 -8.91716e-17)
(0.0139192 0.00140116 1.39953e-16)
(0.0132658 0.00142087 -1.10676e-17)
(0.0126421 0.00143327 6.31853e-17)
(0.0120456 0.00142832 -8.81289e-17)
(0.0114736 0.00141849 -3.50337e-16)
(0.010926 0.00140435 -1.27825e-16)
(0.0104033 0.00138785 1.70588e-16)
(0.0099066 0.0013664 4.04343e-17)
(0.00943654 0.00133845 -2.5188e-16)
(0.00899109 0.00130476 -7.62592e-17)
(0.00856809 0.00126562 6.15575e-17)
(0.00816432 0.00122227 2.27883e-16)
(0.00777886 0.00117594 -2.98803e-17)
(0.007412 0.00112862 -1.0376e-16)
(0.00706374 0.00108244 -4.93378e-17)
(0.00673331 0.00103938 -1.50803e-16)
(0.00641969 0.00100106 -4.72173e-16)
(0.00612291 0.000968299 -4.85625e-18)
(0.00584341 0.000941723 -2.11102e-16)
(0.00558151 0.000920746 -1.52422e-16)
(0.0053356 0.000904544 1.45335e-16)
(0.00510311 0.000891831 -2.33979e-16)
(0.0048826 0.000881169 -2.30382e-16)
(0.00467385 0.000871461 -3.49131e-16)
(0.00447655 0.000861624 -4.655e-16)
(0.00428887 0.000850645 3.78713e-16)
(0.00410951 0.000837826 2.73119e-16)
(0.00393764 0.000822779 -3.33501e-17)
(0.00377211 0.000805332 7.76073e-16)
(0.00361264 0.00078546 -2.75582e-16)
(0.00345998 0.000763593 -1.06031e-15)
(0.0033079 0.000740514 2.84264e-16)
(0.00316388 0.000717019 -9.30699e-16)
(0.00302442 0.000693663 1.223e-16)
(0.00288992 0.000671454 -3.13697e-16)
(0.00276107 0.000650761 -4.89832e-16)
(0.00263727 0.000631962 -2.24203e-16)