/*--------------------------------*- C++ -*----------------------------------*\
| =========                 |                                                 |
| \\      /  F ield         | OpenFOAM: The Open Source CFD Toolbox           |
|  \\    /   O peration     | Version:  2506                                  |
|   \\  /    A nd           | Website:  www.openfoam.com                      |
|    \\/     M anipulation  |                                                 |
\*---------------------------------------------------------------------------*/
FoamFile
{
    version     2.0;
    format      ascii;
    arch        "LSB;label=32;scalar=64";
    class       volScalarField;
    location    "200";
    object      turbulenceProperties:k;
}
// * * * * * * * * * * * * * * * * * * * * * * * * * * * * * * * * * * * * * //

dimensions      [0 2 -2 0 0 0 0];

internalField   nonuniform List<scalar> 
1340
(
48.2804
46.146
43.6585
35.759
1.45509
1.60191
1.9313
2.69043
0.315046
0.433439
0.517911
0.885696
0.0117432
0.0385897
0.0971881
0.3526
0.00114312
0.00161589
0.00305352
0.068843
0.000169857
0.000279027
0.00070243
0.00788945
2.84236e-06
1.36788e-06
7.32261e-08
0.000246952
2.05574e-05
1.5326e-05
1.58058e-06
1.80902e-05
2.46717e-05
2.66005e-05
2.7673e-05
1.01793e-06
2.08486e-05
2.05296e-05
3.43835e-05
1.36727e-05
2.11022e-05
2.09555e-05
2.97284e-05
3.66431e-05
1.95711e-05
1.97387e-05
2.53192e-05
4.03247e-05
1.88303e-05
1.90527e-05
2.32888e-05
3.70854e-05
1.77823e-05
1.78959e-05
2.15518e-05
3.3339e-05
1.68404e-05
1.68558e-05
1.99336e-05
3.00515e-05
1.58271e-05
1.57531e-05
1.83231e-05
2.70772e-05
1.48185e-05
1.46632e-05
1.67834e-05
2.43248e-05
1.37941e-05
1.35634e-05
1.53095e-05
2.17741e-05
1.27687e-05
1.24684e-05
1.39009e-05
1.94169e-05
1.1744e-05
1.13803e-05
1.25605e-05
1.72573e-05
1.07254e-05
1.0305e-05
1.12843e-05
1.52818e-05
9.71843e-06
9.24958e-06
1.00743e-05
1.3485e-05
8.73066e-06
8.21909e-06
8.93055e-06
1.18599e-05
7.76891e-06
7.22071e-06
7.85134e-06
1.03922e-05
6.83808e-06
6.25848e-06
6.84009e-06
9.07631e-06
5.94451e-06
5.33741e-06
5.89768e-06
7.90162e-06
5.09594e-06
4.4625e-06
5.02666e-06
6.86098e-06
4.30042e-06
3.63763e-06
4.22902e-06
5.94498e-06
3.56592e-06
2.8662e-06
3.50937e-06
5.14661e-06
2.90256e-06
2.15081e-06
2.87445e-06
4.46066e-06
2.32445e-06
1.49223e-06
2.33514e-06
3.88269e-06
1.8543e-06
8.92455e-07
1.9065e-06
3.40862e-06
1.52463e-06
3.52632e-07
1.60748e-06
3.03279e-06
1.36505e-06
1.36741e-07
1.45181e-06
2.74801e-06
1.36982e-06
5.57958e-07
1.42888e-06
2.54473e-06
1.48625e-06
9.26617e-07
1.49898e-06
2.40971e-06
1.65214e-06
1.24163e-06
1.61586e-06
2.32703e-06
1.8256e-06
1.50619e-06
1.74618e-06
2.28166e-06
2.51301e-06
1.98445e-06
1.7224e-06
1.86908e-06
2.25911e-06
2.54912e-06
2.1165e-06
1.89378e-06
1.97381e-06
2.24732e-06
2.57641e-06
2.21902e-06
2.02451e-06
2.05657e-06
2.23865e-06
2.58938e-06
2.29129e-06
2.11817e-06
2.1158e-06
2.22751e-06
2.58497e-06
2.33417e-06
2.17829e-06
2.1516e-06
2.20997e-06
2.56263e-06
2.35009e-06
2.20881e-06
2.16548e-06
2.18408e-06
2.52335e-06
2.34215e-06
2.21376e-06
2.1596e-06
2.14921e-06
2.46831e-06
2.3132e-06
2.1966e-06
2.13615e-06
2.10528e-06
2.39947e-06
2.2663e-06
2.1606e-06
2.0973e-06
2.05264e-06
2.31947e-06
2.20491e-06
2.10938e-06
2.04574e-06
1.99234e-06
2.23058e-06
2.13194e-06
2.04597e-06
1.98386e-06
1.92571e-06
2.13465e-06
2.04969e-06
1.97266e-06
1.91342e-06
1.8535e-06
2.03336e-06
1.96025e-06
1.89162e-06
1.83614e-06
1.77664e-06
1.92864e-06
1.86561e-06
1.80479e-06
1.75364e-06
1.69618e-06
1.8761e-06
1.82143e-06
1.76715e-06
1.71361e-06
1.66708e-06
1.6128e-06
1.75862e-06
1.71239e-06
1.66614e-06
1.61921e-06
1.57741e-06
1.52708e-06
1.64185e-06
1.60302e-06
1.56361e-06
1.52274e-06
1.48567e-06
1.43968e-06
1.52689e-06
1.49434e-06
1.46092e-06
1.42557e-06
1.3931e-06
1.35157e-06
1.41517e-06
1.38798e-06
1.35976e-06
1.32937e-06
1.30123e-06
1.26406e-06
1.3082e-06
1.28553e-06
1.26178e-06
1.23577e-06
1.2116e-06
1.17857e-06
1.20706e-06
1.18819e-06
1.16825e-06
1.14608e-06
1.12547e-06
1.0963e-06
1.11188e-06
1.09617e-06
1.07948e-06
1.06066e-06
1.04321e-06
1.01765e-06
1.02196e-06
1.00879e-06
9.9488e-07
9.79013e-07
9.64347e-07
9.42195e-07
9.45881e-07
9.35794e-07
9.2478e-07
9.13259e-07
8.99981e-07
8.8784e-07
8.6891e-07
8.60786e-07
8.52326e-07
8.43289e-07
8.33782e-07
8.22802e-07
8.12982e-07
7.97051e-07
7.78611e-07
7.71583e-07
7.64147e-07
7.56395e-07
7.47455e-07
7.39755e-07
7.2653e-07
7.00289e-07
6.94463e-07
6.88392e-07
6.82158e-07
6.74992e-07
6.69197e-07
6.58324e-07
6.26862e-07
6.22031e-07
6.17085e-07
6.12129e-07
6.06455e-07
6.02261e-07
5.93304e-07
5.60325e-07
5.56278e-07
5.5224e-07
5.48369e-07
5.44018e-07
5.41232e-07
5.34138e-07
5.04865e-07
5.01251e-07
4.97747e-07
4.94536e-07
4.91017e-07
4.89179e-07
4.83663e-07
4.60322e-07
4.56878e-07
4.53627e-07
4.50702e-07
4.47545e-07
4.46131e-07
4.41451e-07
4.20484e-07
4.17111e-07
4.13973e-07
4.11176e-07
4.08225e-07
4.07007e-07
4.02946e-07
3.82016e-07
3.78689e-07
3.75666e-07
3.73021e-07
3.70277e-07
3.69216e-07
3.65696e-07
3.47384e-07
3.43592e-07
3.40074e-07
3.37006e-07
3.34432e-07
3.31999e-07
3.31479e-07
3.29851e-07
3.08792e-07
3.04201e-07
2.99903e-07
2.95988e-07
2.92556e-07
2.89348e-07
2.87305e-07
2.83647e-07
2.60133e-07
2.5528e-07
2.51102e-07
2.47694e-07
2.45264e-07
2.43856e-07
2.46125e-07
2.50995e-07
1.92695e-07
1.83231e-07
1.74604e-07
1.67077e-07
1.60704e-07
1.55444e-07
1.51344e-07
1.4484e-07
1.5407e-07
1.51469e-07
1.5089e-07
1.52525e-07
1.57304e-07
1.65654e-07
1.85146e-07
2.13708e-07
1.70276e-07
1.69331e-07
1.68187e-07
1.66621e-07
1.65453e-07
1.70564e-07
2.01338e-07
2.34487e-07
4.63816e-07
4.81109e-07
4.9616e-07
5.1004e-07
5.26039e-07
5.49591e-07
6.07646e-07
6.55919e-07
8.69076e-07
8.71678e-07
8.73522e-07
8.7475e-07
8.75598e-07
8.78567e-07
8.96409e-07
8.54258e-07
1.66259e-06
1.663e-06
1.66196e-06
1.66007e-06
1.65618e-06
1.65409e-06
1.64048e-06
1.52169e-06
10.2158
2.8074
0.75811
0.236676
0.0417422
0.00283352
0.000250849
2.02898e-05
1.34827e-06
2.32277e-05
4.24231e-05
4.27496e-05
3.88083e-05
3.50406e-05
3.17595e-05
2.87714e-05
2.59878e-05
2.34014e-05
2.10134e-05
1.88137e-05
1.67997e-05
1.49641e-05
1.32983e-05
1.17936e-05
1.04405e-05
9.23155e-06
8.15742e-06
7.20817e-06
6.37491e-06
5.64971e-06
5.02514e-06
4.4933e-06
4.04537e-06
3.67325e-06
3.36879e-06
3.12274e-06
2.92573e-06
2.76903e-06
2.64336e-06
2.54038e-06
2.45373e-06
2.37779e-06
2.30787e-06
2.24066e-06
2.174e-06
2.10622e-06
2.03633e-06
1.96412e-06
1.88975e-06
1.81305e-06
1.73423e-06
1.65368e-06
1.5716e-06
1.48818e-06
1.40374e-06
1.31902e-06
1.23506e-06
1.15313e-06
1.07423e-06
9.98677e-07
9.26066e-07
8.55393e-07
7.85988e-07
7.17786e-07
6.51749e-07
5.88584e-07
5.31162e-07
4.81982e-07
4.40725e-07
4.02896e-07
3.66009e-07
3.3123e-07
2.83892e-07
2.5656e-07
1.42242e-07
2.33092e-07
2.13201e-07
6.44419e-07
7.54171e-07
1.35132e-06
6.09276
1.99746
0.391683
0.063096
0.006284
0.00123534
6.77476e-08
9.88071e-08
1.84167e-06
1.98839e-05
2.50587e-05
2.4401e-05
2.29123e-05
2.15793e-05
2.03609e-05
1.91648e-05
1.79725e-05
1.67839e-05
1.56166e-05
1.44744e-05
1.33673e-05
1.23007e-05
1.12801e-05
1.03148e-05
9.40705e-06
8.56037e-06
7.77774e-06
7.05992e-06
6.40608e-06
5.81617e-06
5.28861e-06
4.82076e-06
4.4089e-06
4.04923e-06
3.73798e-06
3.4698e-06
3.23997e-06
3.0436e-06
2.87508e-06
2.72933e-06
2.60224e-06
2.48955e-06
2.3876e-06
2.29336e-06
2.20459e-06
2.11926e-06
2.03593e-06
1.95388e-06
1.87256e-06
1.79131e-06
1.70987e-06
1.62819e-06
1.5461e-06
1.46348e-06
1.38049e-06
1.29765e-06
1.21586e-06
1.13624e-06
1.05959e-06
9.86132e-07
9.15393e-07
8.46403e-07
7.78542e-07
7.11826e-07
6.47233e-07
5.85367e-07
5.2899e-07
4.8041e-07
4.39721e-07
4.02485e-07
3.65912e-07
3.31491e-07
2.84067e-07
2.58085e-07
1.40918e-07
2.4462e-07
1.86065e-07
6.47107e-07
7.46761e-07
1.38251e-06
3.79861
1.23586
0.174411
0.0120217
0.000428506
9.08148e-05
8.84208e-10
1.65142e-08
6.2903e-06
1.51949e-05
1.51287e-05
1.43516e-05
1.35556e-05
1.28976e-05
1.22954e-05
1.17112e-05
1.11453e-05
1.05938e-05
1.00547e-05
9.53565e-06
9.03088e-06
8.54144e-06
8.06419e-06
7.60334e-06
7.15758e-06
6.72566e-06
6.30959e-06
5.91074e-06
5.52921e-06
5.16732e-06
4.82632e-06
4.50719e-06
4.21069e-06
3.93733e-06
3.68733e-06
3.45981e-06
3.2541e-06
3.06886e-06
2.90203e-06
2.7515e-06
2.61561e-06
2.492e-06
2.37853e-06
2.27332e-06
2.17474e-06
2.08121e-06
1.99146e-06
1.90481e-06
1.82051e-06
1.73778e-06
1.65617e-06
1.57539e-06
1.49507e-06
1.41489e-06
1.33488e-06
1.25543e-06
1.17726e-06
1.10135e-06
1.02833e-06
9.58299e-07
8.90711e-07
8.24633e-07
7.595e-07
6.95385e-07
6.33284e-07
5.73724e-07
5.19281e-07
4.72176e-07
4.32885e-07
3.97098e-07
3.61615e-07
3.28203e-07
2.81769e-07
2.56678e-07
1.42836e-07
2.49524e-07
1.73525e-07
6.41912e-07
7.31646e-07
1.38579e-06
2.24421
0.598933
0.0457097
0.000618044
0.000138685
0
8.65272e-08
1.51485e-06
8.42093e-06
1.06143e-05
9.8815e-06
9.50773e-06
9.1402e-06
8.82984e-06
8.51876e-06
8.20302e-06
7.89174e-06
7.5831e-06
7.27865e-06
6.98429e-06
6.69571e-06
6.4169e-06
6.14578e-06
5.88226e-06
5.62726e-06
5.3795e-06
5.13809e-06
4.90333e-06
4.67477e-06
4.45279e-06
4.23752e-06
4.02911e-06
3.82839e-06
3.6357e-06
3.45171e-06
3.27701e-06
3.11188e-06
2.95659e-06
2.81087e-06
2.67433e-06
2.54686e-06
2.42769e-06
2.31578e-06
2.21053e-06
2.11107e-06
2.01642e-06
1.9258e-06
1.8388e-06
1.75476e-06
1.67299e-06
1.59305e-06
1.51455e-06
1.43705e-06
1.36017e-06
1.28382e-06
1.2083e-06
1.13424e-06
1.06242e-06
9.93385e-07
9.2711e-07
8.63001e-07
8.00161e-07
7.38091e-07
6.7689e-07
6.17572e-07
5.606e-07
5.08406e-07
4.63181e-07
4.25578e-07
3.91397e-07
3.57196e-07
3.25009e-07
2.79882e-07
2.55761e-07
1.4721e-07
2.53101e-07
1.68092e-07
6.35473e-07
7.12954e-07
1.37544e-06
1.07067
0.178943
0.00282919
0.000316942
0
1.64948e-08
3.07781e-07
4.42459e-06
7.93851e-06
7.80586e-06
7.36983e-06
7.24012e-06
7.09771e-06
6.97264e-06
6.83191e-06
6.68176e-06
6.52274e-06
6.35262e-06
6.17547e-06
5.99134e-06
5.80015e-06
5.60472e-06
5.40768e-06
5.20791e-06
5.00845e-06
4.81179e-06
4.61678e-06
4.42568e-06
4.23928e-06
4.05789e-06
3.88202e-06
3.7116e-06
3.54733e-06
3.38881e-06
3.23621e-06
3.08994e-06
2.9496e-06
2.8155e-06
2.6873e-06
2.56495e-06
2.44867e-06
2.33797e-06
2.2324e-06
2.13195e-06
2.03608e-06
1.94429e-06
1.85618e-06
1.77153e-06
1.68987e-06
1.61063e-06
1.53349e-06
1.45802e-06
1.38381e-06
1.31046e-06
1.23782e-06
1.16617e-06
1.09604e-06
1.0281e-06
9.62775e-07
8.99964e-07
8.39055e-07
7.79198e-07
7.19967e-07
6.6148e-07
6.04766e-07
5.50215e-07
5.00115e-07
4.56633e-07
4.20566e-07
3.87761e-07
3.54671e-07
3.2356e-07
2.79631e-07
2.56567e-07
1.53108e-07
2.58664e-07
1.64215e-07
6.3573e-07
7.03125e-07
1.374e-06
0.3325
0.0213703
9.13427e-05
2.06266e-05
7.09965e-11
1.32036e-09
2.58146e-06
6.14561e-06
6.67122e-06
6.18964e-06
6.02373e-06
5.96586e-06
5.88658e-06
5.80735e-06
5.71503e-06
5.61737e-06
5.51068e-06
5.39611e-06
5.27669e-06
5.15084e-06
5.01988e-06
4.88421e-06
4.7457e-06
4.60311e-06
4.45819e-06
4.3123e-06
4.1643e-06
4.01645e-06
3.86897e-06
3.72247e-06
3.57786e-06
3.43548e-06
3.29645e-06
3.16077e-06
3.02891e-06
2.9015e-06
2.77825e-06
2.65964e-06
2.54531e-06
2.43537e-06
2.33001e-06
2.22873e-06
2.13139e-06
2.03809e-06
1.94834e-06
1.86196e-06
1.77873e-06
1.69851e-06
1.62099e-06
1.54573e-06
1.47251e-06
1.40093e-06
1.33063e-06
1.26125e-06
1.19263e-06
1.12503e-06
1.05893e-06
9.949e-07
9.33258e-07
8.73866e-07
8.16106e-07
7.59196e-07
7.0277e-07
6.4699e-07
5.92878e-07
5.40739e-07
4.92694e-07
4.50919e-07
4.16365e-07
3.8488e-07
3.52883e-07
3.22814e-07
2.80098e-07
2.5822e-07
1.59779e-07
2.65371e-07
1.59571e-07
6.38539e-07
0.0393381
4.84046e-05
1.96843e-06
7.63694e-08
8.4215e-08
1.45554e-06
4.5021e-06
5.28073e-06
4.96825e-06
4.75302e-06
4.74037e-06
4.72397e-06
4.69342e-06
4.65815e-06
4.61315e-06
4.56344e-06
4.50529e-06
4.43962e-06
4.36858e-06
4.29116e-06
4.20865e-06
4.1211e-06
4.02868e-06
3.93267e-06
3.83398e-06
3.73224e-06
3.6281e-06
3.52301e-06
3.41631e-06
3.30882e-06
3.20109e-06
3.09323e-06
2.98603e-06
2.87967e-06
2.77447e-06
2.67094e-06
2.56921e-06
2.46979e-06
2.37254e-06
2.27787e-06
2.18597e-06
2.09656e-06
2.00994e-06
1.92604e-06
1.84464e-06
1.76581e-06
1.68939e-06
1.61537e-06
1.54353e-06
1.4736e-06
1.40542e-06
1.33869e-06
1.27307e-06
1.20825e-06
1.14417e-06
1.08104e-06
1.01929e-06
9.59433e-07
9.01694e-07
8.45905e-07
7.91476e-07
7.37693e-07
6.84247e-07
6.31353e-07
5.80019e-07
5.3044e-07
4.84579e-07
4.44655e-07
4.1175e-07
3.8168e-07
3.50899e-07
3.21989e-07
2.80647e-07
2.60145e-07
1.66951e-07
2.72153e-07
0.000206685
0.000109936
1.63815e-10
3.81761e-08
7.08775e-07
3.40917e-06
4.21894e-06
4.00597e-06
3.80402e-06
3.77858e-06
3.79792e-06
3.7946e-06
3.78504e-06
3.77019e-06
3.74878e-06
3.7226e-06
3.69006e-06
3.65184e-06
3.60889e-06
3.5609e-06
3.50861e-06
3.45221e-06
3.39141e-06
3.32744e-06
3.26098e-06
3.19141e-06
3.11962e-06
3.04616e-06
2.97058e-06
2.89364e-06
2.81561e-06
2.7365e-06
2.6569e-06
2.57688e-06
2.49657e-06
2.41636e-06
2.33637e-06
2.25694e-06
2.1781e-06
2.10016e-06
2.02332e-06
1.94759e-06
1.87326e-06
1.80036e-06
1.72889e-06
1.65905e-06
1.59076e-06
1.52415e-06
1.45909e-06
1.39545e-06
1.33316e-06
1.27198e-06
1.21166e-06
1.15195e-06
1.09283e-06
1.03451e-06
9.77397e-07
9.21931e-07
8.68284e-07
8.16273e-07
7.65332e-07
7.14832e-07
6.64542e-07
6.14691e-07
5.66293e-07
5.19417e-07
4.75894e-07
4.37983e-07
4.06843e-07
3.78273e-07
3.48822e-07
3.21136e-07
2.81341e-07
2.62388e-07
9.36461e-05
0
7.2992e-09
1.30526e-07
2.76549e-06
3.5036e-06
3.33004e-06
3.1492e-06
3.12086e-06
3.14985e-06
3.16579e-06
3.16958e-06
3.16986e-06
3.1648e-06
3.15474e-06
3.13964e-06
3.11925e-06
3.0944e-06
3.0652e-06
3.03177e-06
2.99445e-06
2.95369e-06
2.90985e-06
2.86284e-06
2.8138e-06
2.76274e-06
2.70957e-06
2.65462e-06
2.59802e-06
2.54017e-06
2.48104e-06
2.42083e-06
2.36002e-06
2.29822e-06
2.23582e-06
2.17308e-06
2.10989e-06
2.04655e-06
1.98314e-06
1.91973e-06
1.85648e-06
1.79357e-06
1.73104e-06
1.66908e-06
1.60773e-06
1.54719e-06
1.48746e-06
1.42872e-06
1.37094e-06
1.31408e-06
1.25813e-06
1.20291e-06
1.14825e-06
1.09396e-06
1.04006e-06
9.86766e-07
9.34448e-07
8.83487e-07
8.34026e-07
7.85874e-07
7.38517e-07
6.91415e-07
6.44381e-07
5.97679e-07
5.52315e-07
5.08224e-07
4.67096e-07
4.31294e-07
4.01972e-07
3.74925e-07
3.469e-07
0
1.60446e-10
2.97272e-09
2.19716e-06
3.03345e-06
2.77343e-06
2.64215e-06
2.61272e-06
2.64298e-06
2.6682e-06
2.68006e-06
2.6879e-06
2.69251e-06
2.69253e-06
2.68844e-06
2.68045e-06
2.66801e-06
2.65162e-06
2.63171e-06
2.60824e-06
2.58142e-06
2.55151e-06
2.51904e-06
2.48406e-06
2.44727e-06
2.40875e-06
2.3682e-06
2.3261e-06
2.28259e-06
2.23797e-06
2.19206e-06
2.14523e-06
2.09776e-06
2.04915e-06
1.99992e-06
1.95012e-06
1.89967e-06
1.84885e-06
1.79759e-06
1.74597e-06
1.69412e-06
1.64208e-06
1.58998e-06
1.5379e-06
1.48591e-06
1.43418e-06
1.38273e-06
1.33175e-06
1.28124e-06
1.23122e-06
1.18172e-06
1.1326e-06
1.08374e-06
1.03503e-06
9.86506e-07
9.38335e-07
8.90881e-07
8.44482e-07
7.9925e-07
7.55014e-07
7.11297e-07
6.67605e-07
6.23895e-07
5.80422e-07
5.38152e-07
4.96939e-07
3.35118e-10
4.97913e-09
1.71015e-06
2.64151e-06
2.37127e-06
2.22338e-06
2.22047e-06
2.24319e-06
2.26962e-06
2.28383e-06
2.29346e-06
2.30111e-06
2.30554e-06
2.3067e-06
2.30434e-06
2.29894e-06
2.29027e-06
2.2783e-06
2.26368e-06
2.24624e-06
2.22622e-06
2.2038e-06
2.17943e-06
2.15333e-06
2.12578e-06
2.0967e-06
2.06594e-06
2.03397e-06
2.0008e-06
1.96665e-06
1.93146e-06
1.89539e-06
1.85856e-06
1.82077e-06
1.78229e-06
1.74311e-06
1.70325e-06
1.66287e-06
1.62182e-06
1.58019e-06
1.53809e-06
1.49555e-06
1.45267e-06
1.4094e-06
1.36588e-06
1.32226e-06
1.27854e-06
1.23489e-06
1.19136e-06
1.14798e-06
1.10481e-06
1.06172e-06
1.01869e-06
9.75552e-07
9.32317e-07
8.89273e-07
8.4669e-07
8.04858e-07
7.63857e-07
7.23532e-07
6.83557e-07
1.64094e-08
1.51984e-06
2.34214e-06
2.06567e-06
1.9149e-06
1.91828e-06
1.94304e-06
1.96227e-06
1.97535e-06
1.98333e-06
1.99006e-06
1.99494e-06
1.99723e-06
1.99716e-06
1.99421e-06
1.98901e-06
1.98143e-06
1.97125e-06
1.95907e-06
1.94465e-06
1.92837e-06
1.91036e-06
1.89112e-06
1.87063e-06
1.849e-06
1.82622e-06
1.80222e-06
1.77738e-06
1.75171e-06
1.72532e-06
1.69815e-06
1.67032e-06
1.64181e-06
1.6125e-06
1.58261e-06
1.55206e-06
1.52087e-06
1.48914e-06
1.45665e-06
1.42354e-06
1.38993e-06
1.35562e-06
1.32061e-06
1.28521e-06
1.2493e-06
1.21298e-06
1.17633e-06
1.13947e-06
1.10247e-06
1.06538e-06
1.02826e-06
9.90958e-07
9.53505e-07
9.1598e-07
1.62098e-06
1.9796e-06
1.85725e-06
1.6903e-06
1.695e-06
1.71783e-06
1.73025e-06
1.73748e-06
1.74217e-06
1.74547e-06
1.74832e-06
1.74938e-06
1.74851e-06
1.74609e-06
1.74168e-06
1.73566e-06
1.72779e-06
1.71811e-06
1.70687e-06
1.69409e-06
1.68006e-06
1.665e-06
1.64898e-06
1.63213e-06
1.61446e-06
1.59581e-06
1.57647e-06
1.55657e-06
1.53616e-06
1.51525e-06
1.49381e-06
1.47196e-06
1.44952e-06
1.42655e-06
1.40318e-06
1.37924e-06
1.35486e-06
1.32991e-06
1.30426e-06
1.27787e-06
1.251e-06
1.22418e-06
)
;

boundaryField
{
    inlet
    {
        type            calculated;
        value           nonuniform List<scalar> 
13
(
5.59245e-06
5.66679e-06
5.73209e-06
5.79084e-06
5.84773e-06
5.90651e-06
5.98291e-06
6.00472e-06
5.94756e-06
5.91355e-06
5.86911e-06
5.83063e-06
5.79913e-06
)
;
    }
    outlet
    {
        type            calculated;
        value           nonuniform List<scalar> 0();
    }
    walls
    {
        type            calculated;
        value           uniform 0;
    }
    frontAndBack
    {
        type            empty;
    }
    procBoundary2to1
    {
        type            processor;
        value           nonuniform List<scalar> 
84
(
49.7397
1.31637
0.205923
0.00222107
0.00135313
4.25459e-07
2.412e-05
2.26462e-05
2.44821e-05
2.13829e-05
2.13779e-05
2.0179e-05
1.94807e-05
1.85413e-05
1.76595e-05
1.67227e-05
1.57795e-05
1.48188e-05
1.385e-05
1.28763e-05
1.19021e-05
1.09334e-05
9.97869e-06
9.04557e-06
8.14002e-06
7.26966e-06
6.44414e-06
5.67318e-06
4.96549e-06
4.33067e-06
3.77864e-06
3.31954e-06
2.96174e-06
2.70731e-06
2.55002e-06
2.47425e-06
2.45775e-06
2.47719e-06
2.47719e-06
3.15194e-06
3.08301e-06
3.02147e-06
2.96028e-06
2.89439e-06
2.82122e-06
2.73988e-06
2.64997e-06
2.55215e-06
2.44796e-06
2.33886e-06
2.22598e-06
2.11042e-06
1.99345e-06
1.99345e-06
1.93081e-06
1.80415e-06
1.67971e-06
1.55833e-06
1.44121e-06
1.32972e-06
1.22484e-06
1.12658e-06
1.03407e-06
1.03407e-06
9.55514e-07
8.6884e-07
7.8539e-07
7.06017e-07
6.31731e-07
5.64503e-07
5.08657e-07
4.63988e-07
4.24097e-07
3.85511e-07
3.85511e-07
3.51531e-07
3.13603e-07
2.65636e-07
2.02776e-07
1.58591e-07
1.71569e-07
4.44149e-07
8.65218e-07
1.66001e-06
)
;
    }
    procBoundary2to3
    {
        type            processor;
        value           nonuniform List<scalar> 
88
(
6.98018e-07
1.37648e-06
1.55377e-07
6.98018e-07
6.41213e-07
1.74808e-07
1.55377e-07
2.78775e-07
3.20558e-07
2.82476e-07
1.74808e-07
2.65121e-07
4.58389e-07
4.24804e-07
3.9732e-07
3.71805e-07
3.20558e-07
3.45222e-07
6.43531e-07
6.03207e-07
5.63022e-07
5.23906e-07
4.58389e-07
4.85571e-07
8.78293e-07
8.40239e-07
8.02414e-07
7.65075e-07
7.28262e-07
6.91829e-07
6.43531e-07
6.55508e-07
1.1966e-06
1.1677e-06
1.13831e-06
1.10837e-06
1.078e-06
1.04726e-06
1.01622e-06
9.84951e-07
9.53472e-07
9.21687e-07
8.89509e-07
8.78293e-07
8.57038e-07
1.8902e-06
1.61168e-06
1.5638e-06
1.53562e-06
1.55618e-06
1.55906e-06
1.55897e-06
1.55748e-06
1.55606e-06
1.55444e-06
1.55217e-06
1.54878e-06
1.54425e-06
1.53896e-06
1.53234e-06
1.52455e-06
1.51561e-06
1.50554e-06
1.49448e-06
1.48252e-06
1.46986e-06
1.45663e-06
1.44284e-06
1.42843e-06
1.41339e-06
1.39783e-06
1.38192e-06
1.36566e-06
1.34918e-06
1.33238e-06
1.31528e-06
1.29786e-06
1.28008e-06
1.262e-06
1.2436e-06
1.22484e-06
1.20577e-06
1.18617e-06
1.16604e-06
1.14538e-06
1.1236e-06
1.1966e-06
1.10129e-06
)
;
    }
    procBoundary2to6
    {
        type            processor;
        value           nonuniform List<scalar> 
13
(
14.429
10.5569
6.8813
4.47292
2.66289
1.27188
0.3812
0.0393718
0.000203109
4.93279e-07
0
1.17489e-09
7.08528e-08
)
;
    }
}


// ************************************************************************* //
