/*--------------------------------*- C++ -*----------------------------------*\
| =========                 |                                                 |
| \\      /  F ield         | OpenFOAM: The Open Source CFD Toolbox           |
|  \\    /   O peration     | Version:  2506                                  |
|   \\  /    A nd           | Website:  www.openfoam.com                      |
|    \\/     M anipulation  |                                                 |
\*---------------------------------------------------------------------------*/
FoamFile
{
    version     2.0;
    format      ascii;
    arch        "LSB;label=32;scalar=64";
    class       volScalarField;
    location    "350";
    object      magR;
}
// * * * * * * * * * * * * * * * * * * * * * * * * * * * * * * * * * * * * * //

dimensions      [0 2 -2 0 0 0 0];

internalField   nonuniform List<scalar> 
1340
(
0.02354
0.0274646
0.0324798
0.0392922
0.0473635
0.0576377
0.0707749
0.0870489
0.107713
0.134078
0.168141
0.213113
0.273443
0.356446
0.474595
0.64748
0.913745
1.32402
2.04445
3.16555
5.69353
9.51414
22.2805
43.4752
48.1654
46.0806
45.2877
46.1208
47.148
47.4053
46.7748
45.378
43.1224
40.0364
36.0507
0.0200338
0.0171899
0.0140021
0.011268
0.00868649
0.00635986
0.00448092
0.00360477
0.00358448
0.00354311
0.00344057
0.00328203
0.00309982
0.00288487
0.00264318
0.00240402
0.00216953
0.00194597
0.00179072
0.00176942
0.00194412
0.00252493
0.00397345
0.00759248
0.0159192
0.0384514
0.0942447
0.279524
0.771675
2.37219
7.59805
14.8551
22.3516
29.4217
34.4344
35.4326
32.5095
27.7053
22.8425
18.8982
15.875
13.5526
0.00357228
0.00352411
0.00342536
0.00327891
0.0030785
0.0028141
0.00241984
0.00240074
0.0023466
0.00226381
0.00217724
0.00208209
0.00198588
0.00189936
0.00182496
0.00176724
0.00172262
0.00169706
0.00169023
0.00170503
0.00171053
0.00165733
0.00140703
0.00119024
2.15503e-05
0.00168945
0.000379216
0.0014691
5.20556e-05
0.020777
0.226827
0.803498
2.03938
4.57693
9.03565
14.919
20.2302
22.838
22.3231
20.0421
17.3877
0.00243868
0.00243566
0.00242918
0.00238591
0.00230916
0.00218032
0.0020422
0.00204642
0.00203613
0.00201917
0.00198418
0.0019321
0.00186717
0.00178612
0.00169347
0.00159101
0.0014809
0.00136468
0.00124348
0.00111953
0.000993897
0.000861908
0.000729311
0.000616008
0.000471235
0.000338705
7.9285e-05
0.00014501
1.84954e-05
0.00520296
0.0268148
0.000375889
0.00490607
0.00710705
0.0510805
0.453812
1.96719
5.34339
10.0066
13.8802
15.5475
0.00202029
0.00198711
0.00193502
0.00187228
0.00179361
0.00153213
0.00152943
0.00151748
0.00149619
0.00146323
0.00141856
0.00136455
0.00130205
0.00123309
0.00116188
0.00109072
0.00102247
0.000960172
0.000905721
0.000860445
0.000822382
0.000782362
0.000731605
0.000674122
0.000588897
0.000491929
0.0002259
2.75584e-05
5.52958e-06
0
1.89069e-05
0.00107262
0.00659903
0.0331159
0.017198
0.0374388
0.0655992
0.411741
2.40132
6.16102
0.00152817
0.00151736
0.00149583
0.00146137
0.00141278
0.00125584
0.00126119
0.00126068
0.00125618
0.00124384
0.00122384
0.00119706
0.00116243
0.00112067
0.00107291
0.00101956
0.00096188
0.000901232
0.00083869
0.000775368
0.000709728
0.000638212
0.000564824
0.000495635
0.000435702
0.000396383
0.000336911
0.000273882
7.11636e-05
1.25037e-05
5.76345e-06
1.2002e-06
0
0
0.00241938
0.00894369
0.0457346
0.0087383
0.111412
0.244266
0.00124446
0.00122873
0.00120585
0.00117566
0.00101589
0.00102035
0.00102106
0.00101848
0.00101037
0.00099632
0.000976674
0.000950851
0.000919078
0.000882233
0.000840945
0.000796248
0.000749519
0.000702089
0.000655065
0.000610017
0.000569176
0.000531142
0.000492278
0.000451256
0.000412735
0.000381294
0.000358439
0.000297846
0.000197116
0.000102036
1.80496e-05
6.26788e-06
3.57608e-06
3.17362e-07
0
0
0.00112798
0.0352031
0.0267314
0.00100755
0.00099625
0.000979819
0.000957189
0.000841997
0.000847744
0.000851158
0.000852534
0.000850199
0.000843823
0.000833658
0.000818958
0.000799719
0.000776352
0.000748823
0.000717665
0.000683491
0.00064686
0.000608425
0.000568972
0.000528004
0.000484464
0.000440391
0.000398578
0.000361409
0.000332357
0.000312237
0.000298262
0.000269779
0.000224381
0.000167339
0.000110443
6.53358e-05
5.00554e-06
3.54596e-06
1.47883e-07
0
0
0.00386085
0.00083336
0.000822952
0.000809
0.000790483
0.000702371
0.000707906
0.000711939
0.000714458
0.000714366
0.000711301
0.000705333
0.000695805
0.000682631
0.000665935
0.000645662
0.000622098
0.000595659
0.000566771
0.000536062
0.000504023
0.000471387
0.000439422
0.000408243
0.000377822
0.0003486
0.000321892
0.000298831
0.000279201
0.000258336
0.000232454
0.000204221
0.000173809
0.000147302
0.000107043
7.05405e-05
2.97054e-06
1.89655e-06
0
0
0.000694784
0.000686001
0.000674652
0.0006072
0.000606779
0.000604248
0.000599048
0.000591094
0.000580378
0.000566727
0.000550273
0.000531212
0.000509755
0.000486243
0.000461014
0.000434593
0.000406934
0.000378229
0.000349715
0.000322883
0.000298821
0.000277773
0.000258132
0.000237106
0.000213105
0.000188342
0.000166533
0.00014974
0.000136166
0.000123112
8.96381e-05
3.78552e-05
3.31917e-06
0
0.000519083
0.000516471
0.000511681
0.000504681
0.000495255
0.000483438
0.0004693
0.000452931
0.000434573
0.000414499
0.00039301
0.000370594
0.00034776
0.00032496
0.000302926
0.000282229
0.000263092
0.000244529
0.000224471
0.000201804
0.000178047
0.000156508
0.000139237
0.000126804
0.000117754
0.000112511
9.86904e-05
5.73147e-05
3.78948e-06
0.000445241
0.000441039
0.000434887
0.000426763
0.000416661
0.000404604
0.000390705
0.000375129
0.000358108
0.000339993
0.000320912
0.000301287
0.000281984
0.000263663
0.000246473
0.000229667
0.000211671
0.000191526
0.000170226
0.000150228
0.000133299
0.000119723
0.00010873
0.000101685
9.84082e-05
9.48466e-05
6.18881e-05
0.000386131
0.000382254
0.000376757
0.000369586
0.000360702
0.000350172
0.00033809
0.000324592
0.000309978
0.000294472
0.00027837
0.000262199
0.000246444
0.000231209
0.000216014
0.000199791
0.000181842
0.000162894
0.00014484
0.000129167
0.000116005
0.00010477
9.54501e-05
8.9007e-05
8.65942e-05
9.12188e-05
0.000336774
0.000333229
0.000328302
0.000321933
0.000314125
0.000304919
0.000294387
0.000282759
0.000270186
0.000256839
0.000243114
0.000229496
0.000216079
0.000202526
0.000188069
0.000172178
0.000155387
0.000139189
0.00012488
0.000112659
0.000102099
9.28837e-05
8.51713e-05
7.94824e-05
7.83496e-05
0.000297192
0.000295083
0.000291823
0.000287347
0.000281622
0.000274667
0.000266525
0.00025732
0.000247219
0.000236337
0.000224884
0.000213278
0.000201604
0.000189624
0.000176818
0.000162796
0.000147941
0.000133421
0.000120358
0.00010905
9.92162e-05
9.06585e-05
8.31599e-05
7.75596e-05
6.98362e-05
0.000261657
0.000259637
0.000256599
0.000252518
0.000247368
0.000241163
0.000233963
0.000225927
0.000217096
0.000207584
0.000197736
0.000187649
0.000177167
0.000165911
0.000153605
0.000140526
0.000127579
0.000115706
0.000105262
9.60906e-05
8.81078e-05
8.10743e-05
7.58861e-05
6.90785e-05
0.000231183
0.000229243
0.000226421
0.000222682
0.000218019
0.000212454
0.000206114
0.000199018
0.000191211
0.000182937
0.000174305
0.000165219
0.000155406
0.000144661
0.000133196
0.000121708
0.000110977
0.000101375
9.28483e-05
8.5355e-05
7.88052e-05
7.35154e-05
6.94116e-05
0.000206026
0.0002049
0.000203039
0.000200401
0.00019697
0.000192736
0.000187788
0.000182139
0.000175794
0.000168896
0.000161575
0.000153773
0.000145286
0.000135962
0.000125962
0.000115822
0.000106183
9.74087e-05
8.95262e-05
8.25074e-05
7.64087e-05
7.10772e-05
6.80549e-05
0.000183213
0.000182086
0.000180304
0.000177843
0.000174687
0.000170875
0.000166428
0.000161323
0.000155625
0.000149476
0.000142841
0.000135561
0.000127519
0.000118841
0.000109939
0.000101335
9.33681e-05
8.61223e-05
7.95933e-05
7.38862e-05
6.8801e-05
6.5548e-05
0.00016391
0.000163332
0.000162208
0.000160507
0.000158207
0.00015531
0.000151853
0.000147796
0.000143143
0.000138026
0.000132433
0.000126238
0.00011935
0.000111861
0.00010409
9.64557e-05
8.92677e-05
8.26425e-05
7.6611e-05
7.12588e-05
6.65551e-05
6.28604e-05
0.000146526
0.000145903
0.000144791
0.000143167
0.000141018
0.00013838
0.000135197
0.000131443
0.000127227
0.000122558
0.000117332
0.000111471
0.000105047
9.83002e-05
9.15688e-05
8.51253e-05
7.91017e-05
7.35613e-05
6.85589e-05
6.42115e-05
6.03626e-05
0.000131474
0.000131225
0.000130569
0.000129481
0.000127933
0.000125955
0.000123491
0.000120502
0.000117069
0.000113207
0.000108839
0.000103892
9.84154e-05
9.25947e-05
8.66971e-05
8.09578e-05
7.55149e-05
7.04507e-05
6.58086e-05
6.17542e-05
5.80162e-05
0.000118021
0.000117711
0.000117035
0.000115965
0.000114517
0.000112647
0.000110306
0.000107543
0.000104383
0.000100767
9.66241e-05
9.19859e-05
8.69957e-05
8.18622e-05
7.67846e-05
7.18966e-05
6.72897e-05
6.30107e-05
5.92126e-05
5.56957e-05
0.000106139
0.000106089
0.000105732
0.00010504
0.000104017
0.00010263
0.000100833
9.86393e-05
9.60848e-05
9.31177e-05
8.96758e-05
8.57759e-05
8.15261e-05
7.70865e-05
7.26246e-05
6.82626e-05
6.40952e-05
6.0172e-05
5.66207e-05
5.333e-05
9.54517e-05
9.5593e-05
9.54774e-05
9.5081e-05
9.43949e-05
9.34014e-05
9.20488e-05
9.03322e-05
8.8291e-05
8.58858e-05
8.30539e-05
7.98007e-05
7.62062e-05
7.23932e-05
6.84971e-05
6.46297e-05
6.08805e-05
5.73015e-05
5.39987e-05
5.09118e-05
8.61167e-05
8.61826e-05
8.60124e-05
8.55915e-05
8.49115e-05
8.39252e-05
8.26079e-05
8.10025e-05
7.90743e-05
7.67648e-05
7.40712e-05
7.10519e-05
6.78003e-05
6.4422e-05
6.10142e-05
5.766e-05
5.44122e-05
5.13533e-05
4.84575e-05
7.75649e-05
7.77634e-05
7.77639e-05
7.75508e-05
7.7119e-05
7.64266e-05
7.54419e-05
7.41994e-05
7.26737e-05
7.081e-05
6.8599e-05
6.60818e-05
6.33274e-05
6.04181e-05
5.74343e-05
5.44497e-05
5.15163e-05
4.87005e-05
4.59854e-05
6.98491e-05
7.01401e-05
7.02685e-05
7.02153e-05
6.99789e-05
6.95199e-05
6.88069e-05
6.78639e-05
6.66746e-05
6.51891e-05
6.33909e-05
6.13089e-05
5.8992e-05
5.65025e-05
5.39068e-05
5.12672e-05
4.86274e-05
4.60494e-05
4.35136e-05
6.32449e-05
6.34648e-05
6.35322e-05
6.34449e-05
6.31704e-05
6.26758e-05
6.19808e-05
6.10695e-05
5.98986e-05
5.84504e-05
5.67424e-05
5.4808e-05
5.26922e-05
5.04472e-05
4.81255e-05
4.57642e-05
4.34105e-05
4.10554e-05
5.70098e-05
5.72934e-05
5.74487e-05
5.74745e-05
5.7343e-05
5.70233e-05
5.65279e-05
5.58449e-05
5.4936e-05
5.37823e-05
5.23924e-05
5.07884e-05
4.90022e-05
4.70724e-05
4.50402e-05
4.29375e-05
4.08005e-05
3.86207e-05
5.1374e-05
5.1698e-05
5.19161e-05
5.20255e-05
5.20032e-05
5.18216e-05
5.14862e-05
5.09875e-05
5.02937e-05
4.93857e-05
4.82645e-05
4.69441e-05
4.54455e-05
4.3796e-05
4.20273e-05
4.01625e-05
3.82306e-05
3.62221e-05
4.66291e-05
4.68902e-05
4.70592e-05
4.71186e-05
4.70426e-05
4.6833e-05
4.64821e-05
4.59634e-05
4.52576e-05
4.43621e-05
4.32832e-05
4.20335e-05
4.06311e-05
3.90985e-05
3.74532e-05
3.57136e-05
3.3872e-05
4.20414e-05
4.23281e-05
4.25372e-05
4.26556e-05
4.266e-05
4.25476e-05
4.23136e-05
4.1935e-05
4.13946e-05
4.06862e-05
3.98111e-05
3.87752e-05
3.75891e-05
3.62673e-05
3.4821e-05
3.32619e-05
3.15806e-05
3.78887e-05
3.81887e-05
3.84234e-05
3.8583e-05
3.86465e-05
3.86079e-05
3.8465e-05
3.81987e-05
3.77917e-05
3.72369e-05
3.6532e-05
3.56781e-05
3.46793e-05
3.3544e-05
3.22776e-05
3.0886e-05
3.44374e-05
3.46857e-05
3.48719e-05
3.4977e-05
3.49935e-05
3.49202e-05
3.47411e-05
3.44407e-05
3.4011e-05
3.34473e-05
3.27469e-05
3.19095e-05
3.09377e-05
2.98331e-05
2.85957e-05
3.10389e-05
3.12923e-05
3.14938e-05
3.16269e-05
3.1683e-05
3.16617e-05
3.15497e-05
3.13337e-05
3.10049e-05
3.05571e-05
2.9985e-05
2.92851e-05
2.84562e-05
2.74957e-05
2.63999e-05
2.79626e-05
2.82142e-05
2.84223e-05
2.85723e-05
2.86559e-05
2.86726e-05
2.86114e-05
2.84608e-05
2.82125e-05
2.78589e-05
2.73933e-05
2.68101e-05
2.61049e-05
2.52721e-05
2.43052e-05
2.518e-05
2.54253e-05
2.56331e-05
2.57914e-05
2.58925e-05
2.59355e-05
2.59119e-05
2.58116e-05
2.56266e-05
2.5349e-05
2.49713e-05
2.44864e-05
2.38875e-05
2.31674e-05
2.23172e-05
2.26644e-05
2.28994e-05
2.31021e-05
2.32625e-05
2.33737e-05
2.34343e-05
2.34377e-05
2.33752e-05
2.32394e-05
2.30226e-05
2.27167e-05
2.2314e-05
2.18062e-05
2.11848e-05
2.04397e-05
2.06138e-05
2.08083e-05
2.09664e-05
2.10817e-05
2.11528e-05
2.11745e-05
2.11399e-05
2.10421e-05
2.08734e-05
2.06259e-05
2.02914e-05
1.98614e-05
1.93261e-05
1.8675e-05
1.85478e-05
1.87316e-05
1.88837e-05
1.89984e-05
1.90749e-05
1.91089e-05
1.90943e-05
1.90251e-05
1.88942e-05
1.86939e-05
1.8416e-05
1.80517e-05
1.75914e-05
1.7024e-05
1.66812e-05
1.68528e-05
1.69969e-05
1.71082e-05
1.71861e-05
1.72273e-05
1.72265e-05
1.71785e-05
1.7077e-05
1.69146e-05
1.66834e-05
1.63748e-05
1.59793e-05
1.54862e-05
1.49965e-05
1.51552e-05
1.52896e-05
1.53953e-05
1.54716e-05
1.55161e-05
1.55246e-05
1.54922e-05
1.54134e-05
1.52813e-05
1.50885e-05
1.48269e-05
1.44874e-05
1.40597e-05
1.34769e-05
1.36223e-05
1.37464e-05
1.38452e-05
1.3918e-05
1.39633e-05
1.39774e-05
1.39562e-05
1.38946e-05
1.37867e-05
1.36254e-05
1.34034e-05
1.31121e-05
1.27418e-05
1.22397e-05
1.23531e-05
1.24441e-05
1.25123e-05
1.25563e-05
1.25734e-05
1.25599e-05
1.25115e-05
1.24228e-05
1.22874e-05
1.20986e-05
1.18487e-05
1.15288e-05
1.09937e-05
1.10964e-05
1.11793e-05
1.12419e-05
1.12835e-05
1.13017e-05
1.12936e-05
1.12551e-05
1.11816e-05
1.10674e-05
1.09066e-05
1.06922e-05
9.87182e-06
9.96418e-06
1.00388e-05
1.00956e-05
1.0134e-05
1.01521e-05
1.01473e-05
1.01163e-05
1.00548e-05
9.95808e-06
9.82079e-06
9.6367e-06
8.86235e-06
8.94493e-06
9.01168e-06
9.06255e-06
9.09726e-06
9.11438e-06
9.11166e-06
9.08614e-06
9.03425e-06
8.95193e-06
8.83441e-06
8.67628e-06
7.95487e-06
8.02832e-06
8.08755e-06
8.13261e-06
8.16352e-06
8.17909e-06
8.17744e-06
8.15606e-06
8.11188e-06
8.04141e-06
7.94058e-06
7.80463e-06
7.20464e-06
7.25686e-06
7.29647e-06
7.32358e-06
7.3373e-06
7.33609e-06
7.31781e-06
7.27984e-06
7.21918e-06
7.13239e-06
7.01544e-06
6.46506e-06
6.51084e-06
6.54535e-06
6.56884e-06
6.58066e-06
6.5795e-06
6.56353e-06
6.53057e-06
6.47809e-06
6.40315e-06
6.30238e-06
5.80152e-06
5.84142e-06
5.87127e-06
5.89139e-06
5.90132e-06
5.89992e-06
5.8857e-06
5.85685e-06
5.81121e-06
5.74634e-06
5.65936e-06
5.20659e-06
5.2412e-06
5.26681e-06
5.28385e-06
5.29195e-06
5.29019e-06
5.27733e-06
5.25185e-06
5.21198e-06
5.15566e-06
5.08048e-06
4.67345e-06
4.70329e-06
4.72515e-06
4.73942e-06
4.74584e-06
4.74369e-06
4.7319e-06
4.70923e-06
4.67422e-06
4.62516e-06
4.56004e-06
4.19594e-06
4.2216e-06
4.24013e-06
4.25193e-06
4.25682e-06
4.25424e-06
4.24332e-06
4.22302e-06
4.19214e-06
4.14926e-06
3.76848e-06
3.79047e-06
3.80606e-06
3.81569e-06
3.81925e-06
3.81627e-06
3.80605e-06
3.78775e-06
3.76037e-06
3.72278e-06
3.40485e-06
3.41787e-06
3.4256e-06
3.428e-06
3.42465e-06
3.41501e-06
3.3984e-06
3.37402e-06
3.34094e-06
3.06014e-06
3.07092e-06
3.077e-06
3.07837e-06
3.07472e-06
3.06558e-06
3.05043e-06
3.0286e-06
2.99935e-06
2.75185e-06
2.76073e-06
2.76542e-06
2.76595e-06
2.76207e-06
2.7534e-06
2.73952e-06
2.7199e-06
2.69395e-06
2.47563e-06
2.4829e-06
2.48644e-06
2.48628e-06
2.48227e-06
2.47409e-06
2.4614e-06
2.44377e-06
2.42074e-06
2.22721e-06
2.2331e-06
2.2357e-06
2.23507e-06
2.23106e-06
2.22343e-06
2.21189e-06
2.19612e-06
2.17573e-06
2.00318e-06
2.00789e-06
2.00971e-06
2.00871e-06
2.00476e-06
1.99767e-06
1.98723e-06
1.97317e-06
1.80162e-06
1.8053e-06
1.80642e-06
1.80504e-06
1.8011e-06
1.79445e-06
1.78493e-06
1.77233e-06
1.62131e-06
1.62406e-06
1.6245e-06
1.62273e-06
1.61869e-06
1.6123e-06
1.60343e-06
1.59196e-06
1.46303e-06
1.46285e-06
1.46065e-06
1.45645e-06
1.45017e-06
1.44171e-06
1.43104e-06
1.31971e-06
1.31893e-06
1.31632e-06
1.31192e-06
1.30563e-06
1.29741e-06
1.28732e-06
1.19353e-06
1.19263e-06
1.19007e-06
1.18609e-06
1.18022e-06
1.17251e-06
1.16351e-06
1.09393e-06
1.09275e-06
1.08994e-06
1.08618e-06
1.08039e-06
1.07271e-06
1.0646e-06
1.01327e-06
1.01162e-06
1.00819e-06
1.00393e-06
9.97545e-07
9.8905e-07
9.37179e-07
9.35826e-07
9.32671e-07
9.28647e-07
9.22592e-07
9.14307e-07
8.62452e-07
8.60492e-07
8.56667e-07
8.51942e-07
8.45499e-07
8.36515e-07
7.93121e-07
7.92082e-07
7.89286e-07
7.85393e-07
7.8007e-07
7.72765e-07
7.18086e-07
7.14502e-07
7.09112e-07
7.03014e-07
6.95959e-07
6.85201e-07
6.69868e-07
6.70149e-07
6.68642e-07
6.64924e-07
6.60602e-07
6.56614e-07
5.69255e-07
5.61611e-07
5.55232e-07
5.47646e-07
5.31188e-07
6.02887e-07
6.06208e-07
6.02594e-07
6.01538e-07
6.12688e-07
4.74238e-07
4.75202e-07
4.82281e-07
4.79301e-07
4.60359e-07
7.19281e-07
7.3933e-07
7.37401e-07
7.46019e-07
7.84648e-07
8.04621e-07
8.28267e-07
8.61988e-07
1.14908e-06
1.21615e-06
1.17251e-06
1.11304e-06
)
;

boundaryField
{
    inlet
    {
        type            calculated;
        value           nonuniform List<scalar> 4(5.07432e-06 5.39946e-06 5.46864e-06 5.53248e-06);
    }
    outlet
    {
        type            calculated;
        value           nonuniform List<scalar> 0();
    }
    walls
    {
        type            calculated;
        value           nonuniform List<scalar> 
42
(
1.33448
1.54955
1.79064
2.01783
2.23565
2.44259
2.61905
2.76278
2.87489
2.95059
2.99508
3.00663
2.97854
2.91168
2.80298
2.65287
2.45667
2.21311
1.91696
1.57109
1.18476
0.794045
0.464819
0.278214
0.21717
0.244671
0.308685
0.382953
0.449592
0.496784
0.52322
0.532888
0.522617
0.494626
0.449126
1.12829
0.922658
0.715166
0.505428
0.32112
0.171899
0.0725078
)
;
    }
    frontAndBack
    {
        type            empty;
    }
    procBoundary5to0
    {
        type            processor;
        value           nonuniform List<scalar> 4(0.000592119 0.000585172 0.000577519 0.000567982);
    }
    procBoundary5to1
    {
        type            processor;
        value           nonuniform List<scalar> 
13
(
0.00335202
0.00250377
0.00250377
0.00200269
0.0016906
0.0016906
0.00134394
0.00113692
0.00113692
0.000927836
0.000767281
0.000659581
0.000659581
)
;
    }
    procBoundary5to4
    {
        type            processor;
        value           nonuniform List<scalar> 
95
(
0.000597545
0.00060207
0.000605571
0.000605571
0.000518669
0.000519686
0.000519686
0.000448499
0.000447705
0.000447705
0.000388432
0.000388432
0.000338987
0.000338987
0.000298231
0.000262737
0.000262737
0.00023228
0.00023228
0.000206459
0.000183737
0.000183737
0.000163985
0.000146698
0.000146698
0.000131347
0.000117992
0.000117992
0.000105909
9.5078e-05
8.5838e-05
8.5838e-05
7.71918e-05
6.94124e-05
6.28907e-05
6.28907e-05
5.66152e-05
5.09583e-05
4.62806e-05
4.62806e-05
4.16817e-05
3.75288e-05
3.41334e-05
3.41334e-05
3.07386e-05
2.76713e-05
2.49014e-05
2.24011e-05
2.03917e-05
2.03917e-05
1.83399e-05
1.64885e-05
1.48193e-05
1.33151e-05
1.21074e-05
1.21074e-05
1.0874e-05
9.76426e-06
8.76617e-06
7.86919e-06
7.13971e-06
7.13971e-06
6.40793e-06
5.75141e-06
5.16277e-06
4.63526e-06
4.16275e-06
3.73969e-06
3.38609e-06
3.38609e-06
3.04417e-06
2.73834e-06
2.46423e-06
2.21762e-06
1.99518e-06
1.79499e-06
1.61591e-06
1.46114e-06
1.46114e-06
1.31857e-06
1.19268e-06
1.09336e-06
1.01304e-06
9.36713e-07
8.62522e-07
7.92429e-07
7.20074e-07
6.67501e-07
5.7542e-07
5.7542e-07
5.98046e-07
4.71291e-07
7.0151e-07
7.54874e-07
1.14676e-06
)
;
    }
    procBoundary5to6
    {
        type            processor;
        value           nonuniform List<scalar> 
86
(
31.2588
11.7105
14.8961
15.3211
9.98032
2.28495
0.157089
0.0664829
0
0
0
3.04574e-06
4.66684e-05
9.58147e-05
8.75789e-05
7.00496e-05
6.12118e-05
5.9515e-05
5.9947e-05
5.9565e-05
5.79138e-05
5.55701e-05
5.30561e-05
5.05822e-05
4.81724e-05
4.57895e-05
4.34169e-05
4.10558e-05
3.87111e-05
3.63991e-05
3.41318e-05
3.19148e-05
2.97602e-05
2.93585e-05
2.93585e-05
2.72148e-05
2.51564e-05
2.31907e-05
2.13231e-05
1.95565e-05
1.78936e-05
1.63356e-05
1.48819e-05
1.35312e-05
1.22812e-05
1.11283e-05
1.04162e-05
1.04162e-05
9.39885e-06
8.47147e-06
7.62835e-06
6.86373e-06
6.17188e-06
5.54698e-06
4.98366e-06
4.47656e-06
4.09273e-06
4.09273e-06
3.67361e-06
3.29802e-06
2.96177e-06
2.66092e-06
2.39167e-06
2.1502e-06
1.95518e-06
1.95518e-06
1.7564e-06
1.57768e-06
1.41803e-06
1.27523e-06
1.15266e-06
1.05493e-06
9.80569e-07
9.80569e-07
9.0582e-07
8.27488e-07
7.6429e-07
6.75708e-07
6.4739e-07
5.23625e-07
6.00903e-07
4.67562e-07
8.07774e-07
8.07774e-07
8.65782e-07
1.46536e-06
)
;
    }
}


// ************************************************************************* //
