/*--------------------------------*- C++ -*----------------------------------*\
| =========                 |                                                 |
| \\      /  F ield         | OpenFOAM: The Open Source CFD Toolbox           |
|  \\    /   O peration     | Version:  2506                                  |
|   \\  /    A nd           | Website:  www.openfoam.com                      |
|    \\/     M anipulation  |                                                 |
\*---------------------------------------------------------------------------*/
FoamFile
{
    version     2.0;
    format      ascii;
    arch        "LSB;label=32;scalar=64";
    class       volScalarField;
    location    "350";
    object      nuTilda;
}
// * * * * * * * * * * * * * * * * * * * * * * * * * * * * * * * * * * * * * //

dimensions      [0 2 -1 0 0 0 0];

internalField   nonuniform List<scalar> 
1340
(
6.2911e-05
6.61157e-05
7.02174e-05
7.53202e-05
8.16893e-05
8.97492e-05
0.000100164
0.000113487
0.000130978
0.000154087
0.000185128
0.000227469
0.000285647
0.000367542
0.000486601
0.000664707
0.000946348
0.00139553
0.00221769
0.0035895
0.006903
0.0127127
0.0339273
0.0760558
0.0937249
0.0946461
0.0956934
0.0992335
0.102751
0.104485
0.104457
0.103206
0.100838
0.0974081
0.0927896
6.00022e-05
5.7362e-05
5.46067e-05
5.1908e-05
4.91592e-05
4.6377e-05
4.36732e-05
3.80709e-05
3.78507e-05
3.76495e-05
3.74808e-05
3.72851e-05
3.71032e-05
3.69671e-05
3.6847e-05
3.67951e-05
3.68407e-05
3.69025e-05
3.75064e-05
3.96466e-05
4.42947e-05
5.3912e-05
7.20493e-05
0.00010785
0.000173877
0.00031862
0.00058895
0.00132179
0.0028303
0.00711563
0.0204812
0.0394494
0.0632215
0.0925093
0.123706
0.148761
0.162712
0.167994
0.168809
0.167221
0.16387
0.159358
3.82439e-05
3.84754e-05
3.86702e-05
3.8931e-05
3.91944e-05
3.94569e-05
4.03656e-05
4.03972e-05
4.04299e-05
4.04649e-05
4.05079e-05
4.05557e-05
4.06103e-05
4.0674e-05
4.07489e-05
4.08362e-05
4.09393e-05
4.10657e-05
4.12035e-05
4.14523e-05
4.1475e-05
4.07253e-05
3.73444e-05
3.43768e-05
4.61857e-06
4.37635e-05
2.20135e-05
5.69892e-05
2.64946e-05
0.000559982
0.00298629
0.00755549
0.0156965
0.0310637
0.0574065
0.0938409
0.132855
0.164549
0.184952
0.196788
0.203483
4.03414e-05
4.03067e-05
4.028e-05
4.02405e-05
4.02064e-05
4.01697e-05
4.00344e-05
4.003e-05
4.00289e-05
4.00296e-05
4.00313e-05
4.00362e-05
4.00453e-05
4.00578e-05
4.00764e-05
4.01016e-05
4.01348e-05
4.01781e-05
4.02343e-05
4.03057e-05
4.03999e-05
4.04978e-05
4.02809e-05
3.96769e-05
3.58891e-05
2.968e-05
1.315e-05
1.60829e-05
5.33717e-06
0.000114953
0.00062527
2.95684e-05
0.000228154
0.000846053
0.00416428
0.0136883
0.0357133
0.0728342
0.11888
0.161382
0.193273
4.00357e-05
4.004e-05
4.00458e-05
4.00499e-05
4.00569e-05
4.00809e-05
4.0082e-05
4.00825e-05
4.00841e-05
4.0087e-05
4.00906e-05
4.00955e-05
4.01022e-05
4.01109e-05
4.01223e-05
4.01372e-05
4.01567e-05
4.01823e-05
4.0215e-05
4.02597e-05
4.0311e-05
4.03901e-05
4.0413e-05
4.05333e-05
3.97891e-05
3.79066e-05
2.56013e-05
8.50851e-06
3.56946e-06
0
6.22932e-06
4.88439e-05
0.000183843
0.000935945
0.000551647
0.00167991
0.00805633
0.0296226
0.0707564
0.124182
4.0081e-05
4.00784e-05
4.00797e-05
4.00778e-05
4.00794e-05
4.00696e-05
4.00691e-05
4.00697e-05
4.00702e-05
4.00703e-05
4.00711e-05
4.00722e-05
4.00736e-05
4.00759e-05
4.0079e-05
4.00833e-05
4.00893e-05
4.00973e-05
4.01082e-05
4.01234e-05
4.01433e-05
4.01704e-05
4.01997e-05
4.02541e-05
4.04333e-05
4.12792e-05
4.01181e-05
3.6962e-05
1.84125e-05
7.60249e-06
5.16141e-06
2.35624e-06
0
0
0.000122272
0.000376944
0.00183926
0.000398148
0.00875961
0.0381142
4.00687e-05
4.00674e-05
4.00691e-05
4.00687e-05
4.007e-05
4.00704e-05
4.00707e-05
4.00708e-05
4.0071e-05
4.00712e-05
4.00715e-05
4.00721e-05
4.0073e-05
4.00743e-05
4.00763e-05
4.0079e-05
4.00828e-05
4.00881e-05
4.00954e-05
4.01058e-05
4.01194e-05
4.01349e-05
4.01508e-05
4.01443e-05
4.0307e-05
4.07919e-05
4.16545e-05
3.98383e-05
3.40227e-05
2.5969e-05
1.16663e-05
7.30552e-06
5.70161e-06
1.68755e-06
0
0
9.07978e-05
0.00205878
0.00168398
4.00691e-05
4.00672e-05
4.00679e-05
4.00673e-05
4.00692e-05
4.00695e-05
4.007e-05
4.00699e-05
4.00696e-05
4.00694e-05
4.00691e-05
4.00688e-05
4.00687e-05
4.00687e-05
4.00689e-05
4.00693e-05
4.007e-05
4.00711e-05
4.00727e-05
4.00753e-05
4.0079e-05
4.00834e-05
4.00895e-05
4.00884e-05
4.00744e-05
4.01591e-05
4.04769e-05
4.12444e-05
4.13708e-05
4.04602e-05
3.79229e-05
3.34391e-05
2.76314e-05
8.06964e-06
7.09604e-06
1.47605e-06
0
0
0.000389575
4.00681e-05
4.0066e-05
4.0066e-05
4.00652e-05
4.00691e-05
4.00693e-05
4.00696e-05
4.00692e-05
4.00689e-05
4.00684e-05
4.0068e-05
4.00677e-05
4.00675e-05
4.00674e-05
4.00674e-05
4.00676e-05
4.00681e-05
4.00688e-05
4.007e-05
4.00717e-05
4.00744e-05
4.00778e-05
4.00814e-05
4.00855e-05
4.00826e-05
4.00737e-05
4.00832e-05
4.02659e-05
4.06287e-05
4.10456e-05
4.15304e-05
4.15058e-05
4.12271e-05
3.75374e-05
3.23699e-05
6.93465e-06
5.75176e-06
0
0
4.0068e-05
4.00657e-05
4.0065e-05
4.00679e-05
4.00673e-05
4.00668e-05
4.00664e-05
4.0066e-05
4.00656e-05
4.00653e-05
4.00651e-05
4.0065e-05
4.00649e-05
4.00648e-05
4.00648e-05
4.0065e-05
4.00651e-05
4.00654e-05
4.0067e-05
4.0069e-05
4.00681e-05
4.00632e-05
4.00635e-05
4.01068e-05
4.02067e-05
4.04165e-05
4.07761e-05
4.13338e-05
4.19665e-05
4.24343e-05
3.81817e-05
2.58566e-05
7.89051e-06
0
4.00657e-05
4.00654e-05
4.0065e-05
4.00648e-05
4.00646e-05
4.00645e-05
4.00645e-05
4.00645e-05
4.00647e-05
4.00651e-05
4.00657e-05
4.00667e-05
4.00677e-05
4.00687e-05
4.007e-05
4.00706e-05
4.00705e-05
4.00689e-05
4.0065e-05
4.00592e-05
4.00571e-05
4.00981e-05
4.02252e-05
4.06344e-05
4.13508e-05
4.26576e-05
4.19556e-05
3.30218e-05
8.67314e-06
4.00641e-05
4.00639e-05
4.00637e-05
4.00635e-05
4.00634e-05
4.00634e-05
4.00634e-05
4.00634e-05
4.00636e-05
4.00638e-05
4.00642e-05
4.0065e-05
4.00662e-05
4.00676e-05
4.00689e-05
4.00706e-05
4.00729e-05
4.00733e-05
4.0064e-05
4.00436e-05
4.0013e-05
4.0037e-05
4.01476e-05
4.07581e-05
4.19999e-05
4.2957e-05
3.56424e-05
4.00632e-05
4.00631e-05
4.0063e-05
4.0063e-05
4.0063e-05
4.0063e-05
4.00631e-05
4.00633e-05
4.00637e-05
4.00641e-05
4.00647e-05
4.00655e-05
4.00665e-05
4.00676e-05
4.00688e-05
4.00711e-05
4.00749e-05
4.00783e-05
4.00763e-05
4.00605e-05
4.00304e-05
3.99852e-05
3.99891e-05
4.03248e-05
4.13141e-05
4.41084e-05
4.00627e-05
4.00627e-05
4.00627e-05
4.00627e-05
4.00627e-05
4.00628e-05
4.00629e-05
4.00631e-05
4.00634e-05
4.00638e-05
4.00644e-05
4.00652e-05
4.00662e-05
4.00674e-05
4.00688e-05
4.00712e-05
4.00751e-05
4.00799e-05
4.00828e-05
4.00771e-05
4.00578e-05
4.00021e-05
3.99622e-05
4.00258e-05
4.11187e-05
4.00625e-05
4.00625e-05
4.00625e-05
4.00626e-05
4.00626e-05
4.00627e-05
4.00629e-05
4.0063e-05
4.00633e-05
4.00636e-05
4.00641e-05
4.00646e-05
4.00654e-05
4.00664e-05
4.00676e-05
4.00691e-05
4.00715e-05
4.0075e-05
4.00799e-05
4.00846e-05
4.00865e-05
4.00798e-05
4.00198e-05
4.00734e-05
3.91935e-05
4.00625e-05
4.00626e-05
4.00627e-05
4.00627e-05
4.00628e-05
4.00629e-05
4.00631e-05
4.00632e-05
4.00635e-05
4.00639e-05
4.00643e-05
4.00649e-05
4.00657e-05
4.00667e-05
4.0068e-05
4.00697e-05
4.0072e-05
4.00752e-05
4.00797e-05
4.00836e-05
4.00959e-05
4.00639e-05
4.01819e-05
3.95254e-05
4.00627e-05
4.00628e-05
4.00629e-05
4.0063e-05
4.00631e-05
4.00632e-05
4.00634e-05
4.00636e-05
4.00639e-05
4.00642e-05
4.00647e-05
4.00653e-05
4.00662e-05
4.00673e-05
4.00688e-05
4.00706e-05
4.00728e-05
4.0076e-05
4.00787e-05
4.00874e-05
4.00834e-05
4.0106e-05
4.02288e-05
4.00628e-05
4.00629e-05
4.0063e-05
4.00632e-05
4.00633e-05
4.00634e-05
4.00635e-05
4.00637e-05
4.00639e-05
4.00643e-05
4.00647e-05
4.00652e-05
4.00659e-05
4.00668e-05
4.00681e-05
4.00697e-05
4.00716e-05
4.00739e-05
4.00767e-05
4.00787e-05
4.00947e-05
4.00294e-05
4.04489e-05
4.00631e-05
4.00632e-05
4.00633e-05
4.00634e-05
4.00635e-05
4.00637e-05
4.00638e-05
4.0064e-05
4.00643e-05
4.00646e-05
4.00651e-05
4.00656e-05
4.00665e-05
4.00675e-05
4.00689e-05
4.00706e-05
4.00725e-05
4.00756e-05
4.00748e-05
4.00948e-05
4.00251e-05
4.03265e-05
4.00632e-05
4.00634e-05
4.00635e-05
4.00636e-05
4.00638e-05
4.00639e-05
4.0064e-05
4.00642e-05
4.00644e-05
4.00647e-05
4.00651e-05
4.00656e-05
4.00662e-05
4.00672e-05
4.00683e-05
4.00699e-05
4.00715e-05
4.00743e-05
4.00741e-05
4.00874e-05
4.00551e-05
4.01571e-05
4.00636e-05
4.00637e-05
4.00639e-05
4.0064e-05
4.00641e-05
4.00643e-05
4.00644e-05
4.00646e-05
4.00649e-05
4.00652e-05
4.00656e-05
4.00662e-05
4.0067e-05
4.0068e-05
4.00693e-05
4.00708e-05
4.0073e-05
4.00742e-05
4.00796e-05
4.00787e-05
4.00676e-05
4.00637e-05
4.00639e-05
4.00641e-05
4.00642e-05
4.00643e-05
4.00645e-05
4.00647e-05
4.00649e-05
4.00651e-05
4.00653e-05
4.00657e-05
4.00662e-05
4.00669e-05
4.00678e-05
4.00689e-05
4.00702e-05
4.00719e-05
4.00741e-05
4.00753e-05
4.0086e-05
4.00498e-05
4.00641e-05
4.00643e-05
4.00645e-05
4.00646e-05
4.00648e-05
4.00649e-05
4.00651e-05
4.00653e-05
4.00656e-05
4.00659e-05
4.00663e-05
4.00669e-05
4.00677e-05
4.00686e-05
4.00699e-05
4.00713e-05
4.00735e-05
4.00739e-05
4.00837e-05
4.00607e-05
4.00643e-05
4.00645e-05
4.00647e-05
4.00648e-05
4.0065e-05
4.00652e-05
4.00654e-05
4.00656e-05
4.00658e-05
4.00661e-05
4.00665e-05
4.0067e-05
4.00677e-05
4.00685e-05
4.00696e-05
4.00709e-05
4.00728e-05
4.00737e-05
4.00794e-05
4.00729e-05
4.00645e-05
4.00647e-05
4.00649e-05
4.00651e-05
4.00653e-05
4.00655e-05
4.00657e-05
4.00659e-05
4.00661e-05
4.00663e-05
4.00667e-05
4.00671e-05
4.00677e-05
4.00685e-05
4.00695e-05
4.00706e-05
4.00722e-05
4.00736e-05
4.00765e-05
4.00784e-05
4.0065e-05
4.00652e-05
4.00654e-05
4.00656e-05
4.00658e-05
4.0066e-05
4.00662e-05
4.00664e-05
4.00666e-05
4.00669e-05
4.00674e-05
4.00679e-05
4.00686e-05
4.00694e-05
4.00705e-05
4.00718e-05
4.00734e-05
4.00751e-05
4.00791e-05
4.00652e-05
4.00654e-05
4.00656e-05
4.00658e-05
4.0066e-05
4.00663e-05
4.00665e-05
4.00667e-05
4.00669e-05
4.00672e-05
4.00676e-05
4.00681e-05
4.00687e-05
4.00695e-05
4.00704e-05
4.00716e-05
4.00731e-05
4.00746e-05
4.00779e-05
4.00654e-05
4.00656e-05
4.00659e-05
4.00661e-05
4.00663e-05
4.00666e-05
4.00668e-05
4.0067e-05
4.00673e-05
4.00675e-05
4.00679e-05
4.00683e-05
4.00689e-05
4.00696e-05
4.00704e-05
4.00715e-05
4.00729e-05
4.00743e-05
4.00768e-05
4.00659e-05
4.00661e-05
4.00664e-05
4.00666e-05
4.00669e-05
4.00671e-05
4.00673e-05
4.00676e-05
4.00679e-05
4.00682e-05
4.00686e-05
4.00691e-05
4.00697e-05
4.00705e-05
4.00715e-05
4.00727e-05
4.00742e-05
4.00761e-05
4.00661e-05
4.00664e-05
4.00666e-05
4.00669e-05
4.00672e-05
4.00674e-05
4.00677e-05
4.00679e-05
4.00682e-05
4.00685e-05
4.00689e-05
4.00694e-05
4.007e-05
4.00707e-05
4.00716e-05
4.00727e-05
4.0074e-05
4.00758e-05
4.00663e-05
4.00666e-05
4.00669e-05
4.00672e-05
4.00675e-05
4.00677e-05
4.0068e-05
4.00683e-05
4.00686e-05
4.00689e-05
4.00692e-05
4.00697e-05
4.00702e-05
4.00709e-05
4.00717e-05
4.00727e-05
4.0074e-05
4.00756e-05
4.00669e-05
4.00672e-05
4.00675e-05
4.00678e-05
4.00681e-05
4.00683e-05
4.00686e-05
4.00689e-05
4.00692e-05
4.00696e-05
4.007e-05
4.00705e-05
4.00711e-05
4.00719e-05
4.00728e-05
4.0074e-05
4.00755e-05
4.00671e-05
4.00674e-05
4.00678e-05
4.00681e-05
4.00684e-05
4.00687e-05
4.0069e-05
4.00693e-05
4.00696e-05
4.00699e-05
4.00704e-05
4.00708e-05
4.00714e-05
4.00721e-05
4.0073e-05
4.00741e-05
4.00755e-05
4.00674e-05
4.00677e-05
4.0068e-05
4.00684e-05
4.00687e-05
4.0069e-05
4.00693e-05
4.00696e-05
4.007e-05
4.00703e-05
4.00707e-05
4.00712e-05
4.00717e-05
4.00724e-05
4.00732e-05
4.00742e-05
4.0068e-05
4.00683e-05
4.00687e-05
4.0069e-05
4.00694e-05
4.00697e-05
4.007e-05
4.00703e-05
4.00707e-05
4.00711e-05
4.00715e-05
4.00721e-05
4.00727e-05
4.00735e-05
4.00744e-05
4.00682e-05
4.00686e-05
4.0069e-05
4.00693e-05
4.00697e-05
4.007e-05
4.00704e-05
4.00707e-05
4.00711e-05
4.00715e-05
4.00719e-05
4.00725e-05
4.00731e-05
4.00738e-05
4.00747e-05
4.00684e-05
4.00688e-05
4.00692e-05
4.00696e-05
4.007e-05
4.00704e-05
4.00707e-05
4.00711e-05
4.00715e-05
4.00719e-05
4.00723e-05
4.00728e-05
4.00734e-05
4.00741e-05
4.0075e-05
4.00687e-05
4.00691e-05
4.00695e-05
4.00699e-05
4.00703e-05
4.00707e-05
4.00711e-05
4.00714e-05
4.00718e-05
4.00723e-05
4.00727e-05
4.00732e-05
4.00738e-05
4.00745e-05
4.00753e-05
4.00689e-05
4.00693e-05
4.00698e-05
4.00702e-05
4.00706e-05
4.0071e-05
4.00714e-05
4.00718e-05
4.00722e-05
4.00726e-05
4.00731e-05
4.00736e-05
4.00742e-05
4.00749e-05
4.00756e-05
4.00695e-05
4.007e-05
4.00705e-05
4.00709e-05
4.00713e-05
4.00717e-05
4.00722e-05
4.00726e-05
4.0073e-05
4.00735e-05
4.0074e-05
4.00746e-05
4.00753e-05
4.0076e-05
4.00697e-05
4.00702e-05
4.00707e-05
4.00712e-05
4.00716e-05
4.00721e-05
4.00725e-05
4.00729e-05
4.00734e-05
4.00739e-05
4.00744e-05
4.0075e-05
4.00757e-05
4.00764e-05
4.00699e-05
4.00704e-05
4.00709e-05
4.00714e-05
4.00719e-05
4.00723e-05
4.00728e-05
4.00732e-05
4.00737e-05
4.00742e-05
4.00748e-05
4.00754e-05
4.00761e-05
4.00768e-05
4.007e-05
4.00706e-05
4.00711e-05
4.00716e-05
4.00721e-05
4.00726e-05
4.0073e-05
4.00735e-05
4.0074e-05
4.00746e-05
4.00751e-05
4.00758e-05
4.00764e-05
4.00772e-05
4.00701e-05
4.00706e-05
4.00712e-05
4.00717e-05
4.00722e-05
4.00727e-05
4.00732e-05
4.00738e-05
4.00743e-05
4.00749e-05
4.00754e-05
4.00761e-05
4.00768e-05
4.00775e-05
4.00707e-05
4.00713e-05
4.00718e-05
4.00724e-05
4.00729e-05
4.00734e-05
4.00739e-05
4.00745e-05
4.00751e-05
4.00757e-05
4.00764e-05
4.00771e-05
4.00778e-05
4.00706e-05
4.00712e-05
4.00718e-05
4.00724e-05
4.00729e-05
4.00735e-05
4.00741e-05
4.00747e-05
4.00753e-05
4.00759e-05
4.00766e-05
4.00773e-05
4.00705e-05
4.00711e-05
4.00718e-05
4.00723e-05
4.00729e-05
4.00735e-05
4.00741e-05
4.00747e-05
4.00754e-05
4.0076e-05
4.00768e-05
4.00775e-05
4.00703e-05
4.0071e-05
4.00716e-05
4.00722e-05
4.00728e-05
4.00734e-05
4.00741e-05
4.00747e-05
4.00754e-05
4.00761e-05
4.00768e-05
4.00776e-05
4.007e-05
4.00707e-05
4.00713e-05
4.0072e-05
4.00726e-05
4.00733e-05
4.00739e-05
4.00746e-05
4.00753e-05
4.00761e-05
4.00768e-05
4.00777e-05
4.00703e-05
4.0071e-05
4.00716e-05
4.00723e-05
4.0073e-05
4.00737e-05
4.00744e-05
4.00751e-05
4.00759e-05
4.00767e-05
4.00776e-05
4.00697e-05
4.00705e-05
4.00712e-05
4.00718e-05
4.00725e-05
4.00733e-05
4.0074e-05
4.00748e-05
4.00756e-05
4.00765e-05
4.00774e-05
4.0069e-05
4.00698e-05
4.00705e-05
4.00712e-05
4.0072e-05
4.00727e-05
4.00735e-05
4.00743e-05
4.00752e-05
4.00761e-05
4.0077e-05
4.00682e-05
4.0069e-05
4.00697e-05
4.00705e-05
4.00712e-05
4.0072e-05
4.00729e-05
4.00737e-05
4.00746e-05
4.00755e-05
4.00765e-05
4.00672e-05
4.0068e-05
4.00688e-05
4.00695e-05
4.00703e-05
4.00712e-05
4.0072e-05
4.00729e-05
4.00739e-05
4.00748e-05
4.00759e-05
4.0066e-05
4.00668e-05
4.00676e-05
4.00684e-05
4.00692e-05
4.00701e-05
4.0071e-05
4.00719e-05
4.00729e-05
4.00739e-05
4.00646e-05
4.00654e-05
4.00663e-05
4.00671e-05
4.00679e-05
4.00688e-05
4.00698e-05
4.00707e-05
4.00717e-05
4.00728e-05
4.00639e-05
4.00647e-05
4.00656e-05
4.00665e-05
4.00674e-05
4.00683e-05
4.00693e-05
4.00704e-05
4.00715e-05
4.00621e-05
4.0063e-05
4.00639e-05
4.00648e-05
4.00657e-05
4.00667e-05
4.00677e-05
4.00688e-05
4.00699e-05
4.00601e-05
4.0061e-05
4.00619e-05
4.00628e-05
4.00638e-05
4.00648e-05
4.00659e-05
4.0067e-05
4.00682e-05
4.00577e-05
4.00586e-05
4.00596e-05
4.00605e-05
4.00616e-05
4.00626e-05
4.00637e-05
4.00649e-05
4.00661e-05
4.00548e-05
4.00557e-05
4.00567e-05
4.00577e-05
4.00587e-05
4.00598e-05
4.0061e-05
4.00623e-05
4.00635e-05
4.00512e-05
4.00521e-05
4.0053e-05
4.00541e-05
4.00552e-05
4.00563e-05
4.00576e-05
4.00589e-05
4.0047e-05
4.00479e-05
4.00488e-05
4.00498e-05
4.00509e-05
4.00521e-05
4.00534e-05
4.00547e-05
4.00426e-05
4.00434e-05
4.00443e-05
4.00453e-05
4.00464e-05
4.00475e-05
4.00487e-05
4.005e-05
4.00389e-05
4.00398e-05
4.00407e-05
4.00417e-05
4.00428e-05
4.0044e-05
4.00452e-05
4.00343e-05
4.00351e-05
4.0036e-05
4.0037e-05
4.0038e-05
4.00391e-05
4.00403e-05
4.00294e-05
4.00302e-05
4.00311e-05
4.00321e-05
4.00331e-05
4.00342e-05
4.00354e-05
4.00248e-05
4.00255e-05
4.00264e-05
4.00274e-05
4.00284e-05
4.00296e-05
4.00308e-05
4.00205e-05
4.00212e-05
4.0022e-05
4.00228e-05
4.00238e-05
4.00249e-05
4.00161e-05
4.00168e-05
4.00175e-05
4.00182e-05
4.00191e-05
4.00201e-05
4.00118e-05
4.00123e-05
4.00129e-05
4.00136e-05
4.00144e-05
4.00151e-05
4.00078e-05
4.00082e-05
4.00086e-05
4.00091e-05
4.00097e-05
4.00103e-05
4.00055e-05
4.00056e-05
4.00057e-05
4.00058e-05
4.0006e-05
4.00063e-05
4.00082e-05
4.00081e-05
4.00079e-05
4.00077e-05
4.00074e-05
4.00072e-05
4.00132e-05
4.00131e-05
4.00129e-05
4.00127e-05
4.00125e-05
4.00189e-05
4.0019e-05
4.00189e-05
4.00186e-05
4.00186e-05
4.00249e-05
4.00252e-05
4.00255e-05
4.00257e-05
4.00259e-05
4.00312e-05
4.00317e-05
4.00318e-05
4.00315e-05
4.00358e-05
4.00373e-05
4.00392e-05
4.00412e-05
4.0057e-05
4.0058e-05
4.00591e-05
4.00596e-05
)
;

boundaryField
{
    inlet
    {
        type            freestream;
        freestreamValue uniform 4e-05;
        value           nonuniform List<scalar> 4(4.0057e-05 4.0058e-05 4.00591e-05 4.00596e-05);
    }
    outlet
    {
        type            freestream;
        freestreamValue nonuniform List<scalar> 0();
        value           nonuniform List<scalar> 0();
    }
    walls
    {
        type            fixedValue;
        value           uniform 0;
    }
    frontAndBack
    {
        type            empty;
    }
    procBoundary5to0
    {
        type            processor;
        value           nonuniform List<scalar> 4(4.00689e-05 4.0068e-05 4.00656e-05 4.00644e-05);
    }
    procBoundary5to1
    {
        type            processor;
        value           nonuniform List<scalar> 
13
(
4.15927e-05
3.97065e-05
3.97065e-05
4.0137e-05
4.00607e-05
4.00607e-05
4.00772e-05
4.00718e-05
4.00718e-05
4.00704e-05
4.00682e-05
4.00639e-05
4.00639e-05
)
;
    }
    procBoundary5to4
    {
        type            processor;
        value           nonuniform List<scalar> 
95
(
4.00689e-05
4.0069e-05
4.00684e-05
4.00684e-05
4.00669e-05
4.00663e-05
4.00663e-05
4.00648e-05
4.00644e-05
4.00644e-05
4.00634e-05
4.00634e-05
4.00628e-05
4.00628e-05
4.00625e-05
4.00624e-05
4.00624e-05
4.00625e-05
4.00625e-05
4.00626e-05
4.00629e-05
4.00629e-05
4.00631e-05
4.00634e-05
4.00634e-05
4.00636e-05
4.00639e-05
4.00639e-05
4.00641e-05
4.00643e-05
4.00647e-05
4.00647e-05
4.00649e-05
4.00651e-05
4.00656e-05
4.00656e-05
4.00658e-05
4.0066e-05
4.00666e-05
4.00666e-05
4.00668e-05
4.0067e-05
4.00676e-05
4.00676e-05
4.00678e-05
4.0068e-05
4.00682e-05
4.00684e-05
4.00691e-05
4.00691e-05
4.00692e-05
4.00694e-05
4.00695e-05
4.00695e-05
4.00701e-05
4.00701e-05
4.007e-05
4.00699e-05
4.00696e-05
4.00693e-05
4.00695e-05
4.00695e-05
4.0069e-05
4.00683e-05
4.00674e-05
4.00664e-05
4.00651e-05
4.00637e-05
4.0063e-05
4.0063e-05
4.00612e-05
4.00592e-05
4.00568e-05
4.00538e-05
4.00502e-05
4.00461e-05
4.00418e-05
4.00381e-05
4.00381e-05
4.00336e-05
4.00287e-05
4.0024e-05
4.00198e-05
4.00156e-05
4.00114e-05
4.00075e-05
4.00055e-05
4.00083e-05
4.00132e-05
4.00132e-05
4.00188e-05
4.00246e-05
4.00309e-05
4.00342e-05
4.00557e-05
)
;
    }
    procBoundary5to6
    {
        type            processor;
        value           nonuniform List<scalar> 
86
(
0.0869084
0.153856
0.206365
0.215412
0.175126
0.0933607
0.0217774
0.00543121
0
0
0
7.83694e-06
3.14434e-05
4.68265e-05
4.52515e-05
4.06821e-05
3.8449e-05
3.85248e-05
3.93833e-05
4.00156e-05
4.0235e-05
4.02182e-05
4.01457e-05
4.00963e-05
4.00779e-05
4.00755e-05
4.00772e-05
4.00783e-05
4.00784e-05
4.00779e-05
4.00775e-05
4.00772e-05
4.0077e-05
4.00756e-05
4.00756e-05
4.00757e-05
4.00758e-05
4.00761e-05
4.00763e-05
4.00766e-05
4.0077e-05
4.00773e-05
4.00777e-05
4.00781e-05
4.00784e-05
4.00787e-05
4.00781e-05
4.00781e-05
4.00783e-05
4.00785e-05
4.00785e-05
4.00785e-05
4.00783e-05
4.0078e-05
4.00776e-05
4.00769e-05
4.0075e-05
4.0075e-05
4.00739e-05
4.00726e-05
4.00711e-05
4.00694e-05
4.00674e-05
4.00649e-05
4.00602e-05
4.00602e-05
4.00561e-05
4.00515e-05
4.00466e-05
4.00416e-05
4.00367e-05
4.00321e-05
4.00261e-05
4.00261e-05
4.00211e-05
4.0016e-05
4.0011e-05
4.00066e-05
4.0007e-05
4.00122e-05
4.00184e-05
4.00261e-05
4.00321e-05
4.00321e-05
4.00425e-05
4.00602e-05
)
;
    }
}


// ************************************************************************* //
