/*--------------------------------*- C++ -*----------------------------------*\
| =========                 |                                                 |
| \\      /  F ield         | OpenFOAM: The Open Source CFD Toolbox           |
|  \\    /   O peration     | Version:  2506                                  |
|   \\  /    A nd           | Website:  www.openfoam.com                      |
|    \\/     M anipulation  |                                                 |
\*---------------------------------------------------------------------------*/
FoamFile
{
    version     2.0;
    format      ascii;
    arch        "LSB;label=32;scalar=64";
    class       volSymmTensorField;
    location    "350";
    object      turbulenceProperties:devReff;
}
// * * * * * * * * * * * * * * * * * * * * * * * * * * * * * * * * * * * * * //

dimensions      [0 2 -2 0 0 0 0];

internalField   nonuniform List<symmTensor> 
1340
(
(0.00163724 0.00425823 -9.4965e-22 -0.00177385 -2.23901e-20 0.000136608)
(0.00238869 0.00488053 -1.27818e-22 -0.00248664 1.40379e-19 9.79504e-05)
(0.00361134 0.00546118 -2.76442e-20 -0.00380858 -4.35029e-19 0.000197244)
(0.00524635 0.0062155 1.19077e-19 -0.00549236 8.78909e-19 0.000246003)
(0.00742554 0.00687407 -2.25936e-19 -0.0076942 -8.34309e-19 0.000268668)
(0.0104048 0.00726257 -1.72327e-19 -0.0107963 -4.50681e-19 0.000391477)
(0.0143002 0.00737527 3.26014e-19 -0.0147865 1.25261e-18 0.000486298)
(0.0191891 0.00685967 -8.31375e-19 -0.0197718 -2.26152e-18 0.000582632)
(0.0252409 0.00535206 -2.06525e-19 -0.0259876 6.04478e-19 0.00074662)
(0.0325668 0.00260652 6.13811e-19 -0.0334673 1.25957e-18 0.000900521)
(0.0413451 -0.001898 1.57989e-18 -0.0424366 5.77739e-19 0.00109156)
(0.0519632 -0.00873441 -3.55262e-18 -0.0532811 -3.29951e-18 0.0013179)
(0.0649621 -0.0188229 6.72839e-19 -0.0665554 8.68451e-19 0.00159328)
(0.0812524 -0.0337512 2.68652e-18 -0.0832073 1.27319e-18 0.00195493)
(0.102375 -0.0561724 -4.07769e-18 -0.104841 -6.36989e-18 0.0024664)
(0.130539 -0.0904098 -4.36556e-18 -0.133714 -2.58523e-18 0.00317472)
(0.169896 -0.14507 1.92143e-17 -0.174203 1.77916e-17 0.00430693)
(0.224299 -0.232441 1.78591e-17 -0.230179 3.37941e-17 0.00588081)
(0.310966 -0.388923 -3.53914e-17 -0.319582 -5.48623e-17 0.00861585)
(0.426464 -0.641762 -1.37625e-18 -0.438639 1.45548e-17 0.0121747)
(0.666949 -1.21441 -2.72263e-17 -0.686347 5.2061e-17 0.0193972)
(0.945623 -2.11454 -1.2467e-17 -0.971737 4.18975e-17 0.026114)
(1.7663 -5.13049 -1.43162e-16 -1.81844 -6.42355e-16 0.0521352)
(2.42856 -10.3111 3.3153e-16 -2.51186 5.59157e-16 0.0832949)
(1.52785 -11.6446 4.23949e-17 -1.56886 -7.12478e-16 0.0410013)
(0.526054 -11.2267 3.65739e-16 -0.514645 5.81244e-16 -0.0114089)
(-0.145936 -11.0441 -8.18602e-17 0.175675 -7.84345e-17 -0.029739)
(-0.664845 -11.228 2.74532e-16 0.689527 2.30572e-16 -0.0246822)
(-1.13605 -11.4419 7.29086e-16 1.15237 1.2087e-15 -0.0163173)
(-1.5714 -11.4539 4.00426e-16 1.57966 1.99802e-15 -0.00825379)
(-1.9575 -11.2389 -1.41144e-15 1.95573 -1.93183e-15 0.00177375)
(-2.27322 -10.8324 -4.74781e-16 2.26271 -7.26259e-16 0.0105083)
(-2.49331 -10.2192 -3.25837e-17 2.47836 -4.36829e-15 0.0149476)
(-2.60488 -9.41282 -2.58308e-15 2.58951 -7.30061e-15 0.0153721)
(-2.58904 -8.40489 1.00639e-15 2.57484 9.23302e-16 0.0142018)
(0.000968085 0.0037134 2.39271e-21 -0.00101998 5.56026e-20 5.18909e-05)
(0.000549681 0.00319746 -3.57078e-21 -0.000639717 2.90585e-23 9.00354e-05)
(0.000179261 0.00261136 -1.95577e-20 -0.000226333 -1.37164e-19 4.70724e-05)
(-6.71529e-05 0.00208992 4.97072e-21 3.3021e-05 9.36147e-20 3.41319e-05)
(-0.000179349 0.00159705 3.92158e-21 0.000161059 -1.8263e-20 1.82904e-05)
(-0.0001727 0.00116731 -3.38485e-20 0.000173091 1.10813e-19 -3.91174e-07)
(-8.40975e-05 0.000835383 -2.02274e-19 0.0001082 1.62801e-19 -2.41023e-05)
(0.000579439 -0.000460548 1.22812e-22 -0.000520052 4.00335e-21 -5.93866e-05)
(0.000492608 -0.000547375 2.90343e-20 -0.000425488 7.03559e-20 -6.71198e-05)
(0.000371415 -0.000622968 -2.69216e-20 -0.000291092 -4.74629e-20 -8.0323e-05)
(0.000250516 -0.000652194 -1.81352e-20 -0.000158582 -5.16569e-20 -9.19333e-05)
(0.000133144 -0.000645123 1.22273e-19 -3.25471e-05 2.37315e-19 -0.000100597)
(2.3135e-05 -0.000610496 4.76168e-20 8.61905e-05 7.38726e-20 -0.000109325)
(-6.02959e-05 -0.00055141 2.25816e-19 0.000177208 2.07454e-19 -0.000116912)
(-0.000116641 -0.000479013 -1.1671e-19 0.00023848 -2.24591e-20 -0.000121839)
(-0.000149306 -0.000404781 1.64901e-19 0.000274589 1.14265e-19 -0.000125283)
(-0.000158013 -0.000336005 -5.85697e-21 0.000285265 2.50113e-22 -0.000127251)
(-0.000150112 -0.00027831 -2.2301e-19 0.000277012 -1.90529e-19 -0.000126899)
(-0.000132661 -0.000239958 2.8718e-19 0.000258892 3.5751e-19 -0.000126231)
(-0.000110886 -0.000226137 1.76614e-19 0.000240759 8.87496e-20 -0.000129873)
(-8.62466e-05 -0.000245821 -3.68454e-20 0.000231122 1.99855e-20 -0.000144875)
(-4.85235e-05 -0.000344703 -2.26919e-19 0.00024149 3.7353e-20 -0.000192967)
(6.25871e-05 -0.00065883 4.77496e-19 0.000258282 5.46421e-19 -0.000320869)
(0.000455626 -0.00154902 8.55586e-19 0.000141946 -9.35538e-19 -0.000597572)
(0.00150315 -0.00355073 -4.42029e-18 -0.000499912 -5.72949e-18 -0.00100323)
(0.00420542 -0.00867526 5.0573e-19 -0.00253802 7.46339e-18 -0.0016674)
(0.0104792 -0.0211422 7.36652e-18 -0.00789758 -2.06874e-18 -0.00258164)
(0.0295541 -0.0626757 1.552e-17 -0.0251356 6.14999e-18 -0.0044185)
(0.0741112 -0.174765 -2.35696e-17 -0.0678939 -2.25748e-17 -0.00621722)
(0.195606 -0.54656 7.43756e-17 -0.187801 1.87787e-16 -0.00780417)
(0.504627 -1.7842 1.57948e-19 -0.501902 -1.54745e-16 -0.00272501)
(0.748161 -3.54282 -2.72973e-16 -0.771938 1.69519e-16 0.0237771)
(0.78925 -5.38964 -9.70706e-17 -0.843598 -6.5956e-16 0.0543485)
(0.603585 -7.14648 1.18465e-18 -0.675352 7.56704e-17 0.0717676)
(0.204462 -8.39391 -2.94544e-16 -0.279866 -4.44894e-16 0.075404)
(-0.295713 -8.63693 -4.93745e-16 0.229867 -2.83379e-15 0.0658459)
(-0.707446 -7.89846 -1.67036e-16 0.666372 -3.54817e-15 0.0410737)
(-0.931607 -6.69286 5.23064e-16 0.923314 4.8984e-15 0.00829344)
(-0.9986 -5.47892 -9.55426e-16 1.01682 -3.74462e-17 -0.018221)
(-0.984665 -4.49902 -7.18953e-15 1.01448 1.34222e-15 -0.0298175)
(-0.931038 -3.75408 8.77312e-15 0.960682 1.59556e-14 -0.0296446)
(-0.863982 -3.18687 -1.48882e-15 0.887991 -8.64123e-16 -0.0240094)
(0.000645664 -0.00034503 9.37004e-21 -0.000595433 2.31799e-20 -5.02319e-05)
(0.000684433 -0.000224631 -1.27043e-20 -0.000637479 -9.60282e-20 -4.69542e-05)
(0.00069171 -7.64115e-05 -1.86434e-20 -0.000654676 -1.11231e-19 -3.70344e-05)
(0.000654268 8.66674e-05 -7.12302e-21 -0.00062768 1.6531e-19 -2.65883e-05)
(0.0005651 0.000235291 1.92376e-21 -0.000550975 4.34631e-20 -1.41255e-05)
(0.000429299 0.000348904 3.782e-20 -0.000425639 -1.45258e-19 -3.66036e-06)
(0.000333678 -0.000312824 1.72562e-21 -0.000360069 2.38706e-21 2.63903e-05)
(0.000258353 -0.000372298 -2.72957e-20 -0.000290231 -6.63229e-20 3.18777e-05)
(0.000160841 -0.000413574 -6.02126e-21 -0.00019797 -3.03219e-21 3.71292e-05)
(5.20574e-05 -0.000426375 2.27877e-20 -9.69339e-05 4.92253e-20 4.48766e-05)
(-5.44414e-05 -0.000413087 -7.20985e-20 3.55797e-06 -1.46648e-19 5.08834e-05)
(-0.000154801 -0.000372464 -8.20751e-20 9.79221e-05 -1.34518e-19 5.68789e-05)
(-0.000238964 -0.000308493 -1.6642e-19 0.000175449 -2.45985e-19 6.35147e-05)
(-0.000300018 -0.000230744 -1.34067e-20 0.000231148 -1.99255e-21 6.88708e-05)
(-0.000337784 -0.000145417 -7.30687e-20 0.000264319 -1.74019e-19 7.34645e-05)
(-0.000352982 -6.11027e-05 3.05795e-19 0.000275468 3.4798e-19 7.75136e-05)
(-0.000348673 1.65984e-05 -5.00783e-20 0.000268547 6.81133e-20 8.01258e-05)
(-0.000331397 8.39246e-05 3.41318e-20 0.00025036 2.1003e-20 8.10374e-05)
(-0.000307338 0.000139299 -2.33533e-19 0.000227525 -2.9723e-19 7.9813e-05)
(-0.000281394 0.000184879 1.50385e-19 0.000204167 -1.39612e-20 7.72271e-05)
(-0.00025411 0.000218811 4.36519e-20 0.000181622 1.35461e-19 7.24879e-05)
(-0.000223493 0.000237252 5.33225e-20 0.000158675 2.55922e-20 6.48174e-05)
(-0.000180041 0.000227926 -2.41563e-19 0.000128098 -1.40692e-19 5.1943e-05)
(-0.000148157 0.000217065 2.02446e-19 0.000106947 1.50908e-19 4.12104e-05)
(-9.77721e-05 0.000161435 4.84413e-20 7.25691e-05 6.34105e-22 2.5203e-05)
(-0.000155709 0.000280622 -3.6005e-19 0.000120449 -5.41729e-20 3.52602e-05)
(-7.249e-05 0.000138861 2.10738e-19 5.90326e-05 -8.276e-20 1.34575e-05)
(-0.000126555 0.000250039 1.39333e-20 0.000110046 2.38857e-19 1.65095e-05)
(-1.02027e-05 1.15986e-05 4.53216e-20 1.0898e-05 -6.69345e-20 -6.95319e-07)
(0.00134084 -0.004993 -2.43097e-18 -0.00108107 -2.59759e-18 -0.000259773)
(0.0122734 -0.0542623 4.48774e-18 -0.0104321 1.58482e-17 -0.00184128)
(0.0322688 -0.193778 -2.8614e-17 -0.0280917 7.8329e-18 -0.00417712)
(0.0536668 -0.494997 1.486e-17 -0.047589 1.15518e-18 -0.00607781)
(0.0639269 -1.11484 -1.43143e-17 -0.0566834 7.64116e-17 -0.00724343)
(0.0252864 -2.20375 -4.40924e-16 -0.0184688 2.46556e-16 -0.00681767)
(-0.120233 -3.63662 2.17269e-16 0.123428 3.53623e-16 -0.00319524)
(-0.387812 -4.9188 1.56466e-15 0.382598 -5.87192e-16 0.00521375)
(-0.692421 -5.52743 -2.76594e-15 0.677983 2.16324e-15 0.0144381)
(-0.906087 -5.36952 5.13821e-16 0.890337 9.33041e-15 0.0157495)
(-0.983509 -4.78874 -4.86389e-17 0.975108 -6.3692e-15 0.00840079)
(-0.965171 -4.12938 3.05802e-15 0.963699 -2.30106e-15 0.00147237)
(0.000395295 -0.00023682 -3.54218e-21 -0.000419383 -6.74284e-21 2.40886e-05)
(0.000435599 -0.000154367 -1.3428e-20 -0.000454972 -1.90037e-20 1.93734e-05)
(0.000460054 -5.3293e-05 5.56838e-20 -0.000474982 1.20068e-19 1.49275e-05)
(0.000454772 5.43685e-05 1.1446e-20 -0.000464217 -1.35497e-20 9.4446e-06)
(0.000415699 0.00016046 7.89629e-21 -0.000421165 -8.89574e-20 5.46524e-06)
(0.000342139 0.000248046 -2.46509e-20 -0.000344121 6.37185e-20 1.98168e-06)
(0.000306282 -0.000258236 9.51592e-21 -0.000296877 1.62793e-20 -9.40507e-06)
(0.000259299 -0.000306096 -1.32548e-20 -0.000248911 -2.38943e-20 -1.03875e-05)
(0.00019591 -0.000347423 -6.02803e-21 -0.000182636 -3.3208e-21 -1.32737e-05)
(0.000125021 -0.000374224 7.16087e-20 -0.000109142 1.04799e-19 -1.58795e-05)
(5.17696e-05 -0.000382645 4.55075e-20 -3.28877e-05 8.24895e-20 -1.88819e-05)
(-2.12996e-05 -0.000372952 5.77212e-20 4.36772e-05 1.10849e-19 -2.23776e-05)
(-8.66817e-05 -0.000347092 8.81575e-20 0.000112598 1.01994e-19 -2.59168e-05)
(-0.000139546 -0.00030809 -5.05833e-20 0.000169003 -7.85545e-20 -2.94567e-05)
(-0.000178423 -0.000260566 -1.80922e-19 0.000211689 -1.79253e-19 -3.32665e-05)
(-0.00020201 -0.000209915 2.34928e-19 0.000238702 1.32303e-19 -3.66913e-05)
(-0.00021158 -0.000160038 1.97571e-19 0.000251492 1.67327e-19 -3.99125e-05)
(-0.000209296 -0.000114101 2.5571e-19 0.000251826 1.22497e-19 -4.25307e-05)
(-0.00019773 -7.42116e-05 -4.20859e-19 0.000241976 -1.34783e-19 -4.42462e-05)
(-0.000179868 -4.1231e-05 -3.5808e-19 0.000224688 -2.40543e-19 -4.48201e-05)
(-0.000157746 -1.50501e-05 4.73836e-19 0.00020222 1.49038e-19 -4.4474e-05)
(-0.000133074 7.47375e-06 9.57368e-20 0.000175228 5.89567e-20 -4.21542e-05)
(-0.000107595 2.66299e-05 -7.09842e-20 0.000145735 7.3263e-21 -3.81403e-05)
(-8.46197e-05 4.29494e-05 -2.29713e-19 0.000117608 -1.50499e-19 -3.29887e-05)
(-6.13995e-05 5.415e-05 5.13006e-20 8.61839e-05 -1.9683e-20 -2.47843e-05)
(-4.61026e-05 6.27832e-05 2.14582e-19 6.32408e-05 6.62027e-20 -1.71383e-05)
(-3.83649e-05 7.14203e-05 -2.70716e-19 4.94163e-05 -7.78676e-20 -1.10514e-05)
(-4.07985e-05 9.48709e-05 1.45414e-19 4.9091e-05 2.07721e-20 -8.29247e-06)
(-3.74497e-05 0.0001124 -4.38708e-20 4.35199e-05 -9.51253e-21 -6.07023e-06)
(-0.000264184 0.00120196 -9.33198e-19 0.000315222 4.57664e-19 -5.10382e-05)
(-0.000611023 0.00658338 3.65571e-18 0.000890692 -1.16677e-18 -0.000279669)
(3.84444e-06 9.69187e-05 -5.63554e-20 6.08985e-07 7.47776e-20 -4.45342e-06)
(0.000233339 0.0012086 1.03694e-20 -0.000167356 -2.39038e-20 -6.59826e-05)
(0.00105439 0.00144016 1.9484e-18 -0.000882876 -6.91772e-19 -0.000171518)
(0.00476759 -0.0116251 7.08068e-18 -0.00420194 1.79197e-17 -0.000565643)
(0.0101229 -0.110328 2.72686e-17 -0.00886285 -1.23445e-16 -0.00126006)
(-0.00038709 -0.479856 -6.66247e-17 0.00258503 -3.97231e-16 -0.00219794)
(-0.076993 -1.3009 2.07886e-15 0.0796924 5.52065e-16 -0.00269939)
(-0.263852 -2.42614 2.97174e-15 0.264713 6.72847e-16 -0.000861712)
(-0.514511 -3.34607 -1.64369e-15 0.511086 -2.23488e-15 0.00342527)
(-0.715842 -3.7241 -7.33484e-15 0.709879 1.42226e-15 0.00596227)
(0.000342228 -0.00019851 -1.46077e-20 -0.000335902 -2.97437e-20 -6.32599e-06)
(0.00036472 -0.000135341 -5.02312e-21 -0.000359234 2.03021e-20 -5.4866e-06)
(0.00037332 -5.72565e-05 4.83505e-20 -0.000370629 9.21931e-20 -2.69091e-06)
(0.000363939 2.51464e-05 -2.06927e-20 -0.000362619 -1.16444e-21 -1.32065e-06)
(0.000332422 0.000105536 1.80251e-20 -0.000332524 1.14224e-19 1.01788e-07)
(0.000222633 -0.000196138 -1.35347e-20 -0.000225649 -2.01615e-20 3.01607e-06)
(0.000184146 -0.000231634 2.65866e-21 -0.000188507 4.23652e-21 4.36037e-06)
(0.00013444 -0.000261257 1.61108e-20 -0.000139275 1.74972e-20 4.83475e-06)
(7.79932e-05 -0.000279195 -9.8967e-20 -8.41584e-05 -1.40671e-19 6.16526e-06)
(1.8925e-05 -0.000283326 -7.24493e-20 -2.64747e-05 -8.4734e-20 7.54961e-06)
(-4.04503e-05 -0.000273076 1.69309e-19 3.16196e-05 2.02674e-19 8.83075e-06)
(-9.48438e-05 -0.000249166 -1.79758e-19 8.42767e-05 -2.23216e-19 1.05671e-05)
(-0.000140356 -0.00021379 -8.12642e-20 0.000127937 -5.40604e-20 1.24191e-05)
(-0.000174749 -0.000169936 -1.9319e-19 0.000160485 -1.4457e-19 1.42638e-05)
(-0.000196688 -0.000121816 -3.59991e-20 0.000180326 -6.55068e-20 1.63617e-05)
(-0.000206287 -7.28658e-05 2.41762e-20 0.000187831 -8.72411e-21 1.84559e-05)
(-0.000204711 -2.62591e-05 -1.32281e-19 0.000184167 -1.75443e-19 2.05436e-05)
(-0.000193977 1.54498e-05 4.3065e-19 0.00017145 2.94952e-19 2.25268e-05)
(-0.00017647 5.07428e-05 -1.41752e-19 0.000152272 -2.47901e-20 2.41974e-05)
(-0.000154509 7.94391e-05 -3.47397e-19 0.000128938 -1.51913e-19 2.55707e-05)
(-0.000130525 0.000100457 2.30341e-19 0.000104586 4.61007e-21 2.59383e-05)
(-0.000106122 0.000113126 -1.67343e-19 8.13102e-05 -9.65197e-20 2.48115e-05)
(-8.18123e-05 0.000118095 2.28719e-21 5.91263e-05 1.22272e-19 2.2686e-05)
(-5.91069e-05 0.000116974 -3.99253e-20 3.92171e-05 -3.13667e-20 1.98898e-05)
(-3.82925e-05 0.000108233 -2.78122e-19 2.21233e-05 -1.92159e-19 1.61692e-05)
(-2.2452e-05 9.58625e-05 2.006e-19 1.04588e-05 1.9474e-19 1.19932e-05)
(-1.08737e-05 7.07712e-05 3.70141e-21 4.14457e-06 -1.14127e-19 6.72913e-06)
(-6.77463e-06 6.98751e-05 3.84162e-20 2.14125e-06 1.17546e-20 4.63338e-06)
(-2.53037e-06 7.98644e-05 1.11648e-19 -1.20879e-06 -5.00152e-21 3.73916e-06)
(3.7649e-06 8.70197e-05 -3.76464e-20 -6.74198e-06 -1.19907e-20 2.97708e-06)
(9.47059e-06 8.92626e-05 1.26798e-19 -1.15646e-05 2.02495e-20 2.09402e-06)
(2.80727e-05 0.000196116 -1.52309e-20 -3.07566e-05 3.47812e-22 2.68384e-06)
(0.000265551 0.00162405 -2.58235e-19 -0.000276187 -1.59815e-19 1.06356e-05)
(0.00149852 0.0080201 2.62501e-20 -0.00151173 2.06926e-18 1.32069e-05)
(0.000947031 0.00415936 -1.21234e-17 -0.00093846 1.00096e-18 -8.57096e-06)
(0.00278138 0.00875989 -1.11109e-17 -0.0027346 1.85787e-18 -4.67786e-05)
(0.0106401 0.012069 2.79074e-17 -0.010411 -1.62873e-16 -0.000229131)
(0.018743 -0.0987508 5.7682e-16 -0.0179121 -7.07745e-16 -0.000830948)
(-0.0257192 -0.585069 -2.98484e-15 0.0277128 1.59107e-16 -0.00199361)
(-0.182399 -1.49137 4.83697e-15 0.184214 1.81722e-15 -0.00181491)
(0.00025311 -0.000152913 8.63735e-21 -0.000256268 3.53154e-21 3.15787e-06)
(0.000274187 -0.000106581 -3.12483e-20 -0.00027596 -4.49348e-20 1.77313e-06)
(0.000285729 -4.96741e-05 3.99104e-21 -0.000287348 2.03321e-20 1.61937e-06)
(0.000283471 1.17635e-05 1.70403e-20 -0.000284295 -5.68551e-20 8.23779e-07)
(0.000264484 7.30875e-05 -1.38572e-19 -0.000265061 -1.99271e-19 5.7654e-07)
(0.00018413 -0.000161023 1.18696e-20 -0.000183019 1.37888e-20 -1.11182e-06)
(0.000155878 -0.000189729 -2.98492e-20 -0.000154871 -3.5879e-20 -1.00723e-06)
(0.000118626 -0.00021495 -2.41047e-21 -0.000117021 -4.98732e-21 -1.60493e-06)
(7.60861e-05 -0.000232397 -1.2441e-20 -7.41942e-05 -6.48705e-21 -1.89192e-06)
(3.10318e-05 -0.00023998 9.86381e-20 -2.87624e-05 1.13522e-19 -2.26941e-06)
(-1.54557e-05 -0.000237323 7.56373e-20 1.84328e-05 6.24069e-20 -2.97709e-06)
(-5.93458e-05 -0.000224515 9.6114e-22 6.29638e-05 3.05e-20 -3.61797e-06)
(-9.76987e-05 -0.00020264 1.87634e-19 0.000102088 1.81809e-19 -4.3896e-06)
(-0.000128796 -0.000173561 -2.34327e-20 0.000134182 -3.12926e-21 -5.38621e-06)
(-0.000151055 -0.000140083 -6.47908e-20 0.000157479 -3.04227e-20 -6.42401e-06)
(-0.000164119 -0.000104705 1.27244e-19 0.000171721 4.74853e-20 -7.60265e-06)
(-0.0001685 -6.98238e-05 -1.71252e-19 0.000177401 -6.63723e-20 -8.90077e-06)
(-0.000165286 -3.76044e-05 -3.02173e-19 0.000175531 -2.36209e-19 -1.02445e-05)
(-0.000155967 -9.36095e-06 -1.26176e-19 0.000167623 3.25236e-20 -1.16562e-05)
(-0.00014221 1.41217e-05 5.44204e-19 0.000155247 2.45779e-19 -1.30373e-05)
(-0.000125186 3.22713e-05 -3.9302e-19 0.000139476 -1.79138e-19 -1.429e-05)
(-0.000105663 4.62058e-05 -9.43935e-20 0.000120199 8.18576e-20 -1.45355e-05)
(-8.5084e-05 5.58725e-05 1.76323e-19 9.89729e-05 1.1493e-19 -1.38889e-05)
(-6.50403e-05 6.17418e-05 -1.11028e-19 7.75466e-05 -9.01641e-22 -1.25063e-05)
(-4.68274e-05 6.43428e-05 -3.62851e-20 5.74636e-05 9.08444e-20 -1.06362e-05)
(-3.14828e-05 6.57595e-05 5.15026e-20 4.01279e-05 -3.3084e-20 -8.64517e-06)
(-1.68478e-05 6.16989e-05 -3.66479e-19 2.29594e-05 3.54724e-20 -6.11159e-06)
(-4.77e-06 5.54063e-05 3.20539e-21 8.4527e-06 -5.37956e-20 -3.6827e-06)
(3.46681e-06 4.00049e-05 -1.60083e-19 -1.93739e-06 1.61027e-20 -1.52942e-06)
(9.17024e-06 3.89719e-05 4.2167e-20 -8.27985e-06 1.23527e-20 -8.90393e-07)
(1.29913e-05 3.78572e-05 -1.31996e-20 -1.22467e-05 -5.56326e-20 -7.4459e-07)
(1.44756e-05 3.72801e-05 -2.76899e-21 -1.37581e-05 -2.59212e-22 -7.17546e-07)
(1.47292e-05 3.90458e-05 6.52265e-21 -1.41642e-05 1.57038e-22 -5.64979e-07)
(1.50984e-05 4.33709e-05 6.65361e-20 -1.47305e-05 -2.26509e-20 -3.67913e-07)
(0.000180226 0.000554238 5.96148e-19 -0.000176929 9.60477e-19 -3.29713e-06)
(0.000669736 0.00212948 -6.21543e-19 -0.00065764 1.28419e-18 -1.20959e-05)
(0.00344607 0.0106795 -3.56234e-17 -0.00339034 1.15739e-17 -5.57273e-05)
(0.000754059 0.00204427 -1.09017e-17 -0.00074609 -7.34806e-18 -7.9691e-06)
(0.0136752 0.0235375 -9.23671e-17 -0.0135899 1.02068e-16 -8.52695e-05)
(0.0323011 -0.0501705 6.49509e-16 -0.0319791 -7.44496e-16 -0.000321922)
(0.000206328 -0.000126638 -1.3e-20 -0.000206075 -1.90258e-20 -2.5324e-07)
(0.00022151 -9.01537e-05 4.62471e-21 -0.000221024 1.27679e-21 -4.85488e-07)
(0.000229943 -4.55258e-05 1.23981e-20 -0.000230085 1.25934e-20 1.4159e-07)
(0.000228577 2.66358e-06 -1.11726e-20 -0.000228605 -5.19326e-20 2.76261e-08)
(0.000147374 -0.000131424 -5.84056e-21 -0.000147571 -5.50037e-21 1.97397e-07)
(0.000124515 -0.00015422 1.66916e-22 -0.000125116 -1.48031e-21 6.01399e-07)
(9.46613e-05 -0.000174379 4.14448e-20 -9.5175e-05 4.52003e-20 5.13667e-07)
(6.0514e-05 -0.00018844 1.62315e-21 -6.12744e-05 -8.73494e-22 7.60436e-07)
(2.41892e-05 -0.000194898 -1.4292e-19 -2.51728e-05 -1.51808e-19 9.83595e-07)
(-1.36322e-05 -0.000193279 3.28424e-20 1.25025e-05 3.87123e-20 1.12974e-06)
(-4.99381e-05 -0.000183404 3.20572e-20 4.85089e-05 1.98549e-20 1.42913e-06)
(-8.23807e-05 -0.000165936 -7.42302e-20 8.05944e-05 -1.08081e-19 1.7863e-06)
(-0.000109461 -0.000142038 -1.10912e-19 0.000107336 -6.54431e-20 2.12547e-06)
(-0.000129689 -0.00011369 4.20834e-20 0.000127096 5.54167e-20 2.59309e-06)
(-0.000142479 -8.27887e-05 -2.52057e-19 0.000139359 -2.08588e-19 3.1201e-06)
(-0.000147823 -5.12628e-05 1.67854e-19 0.000144118 1.06859e-19 3.70505e-06)
(-0.000146236 -2.10452e-05 3.41097e-19 0.000141843 1.93346e-19 4.39284e-06)
(-0.000138689 6.52317e-06 4.39607e-19 0.000133536 1.65662e-19 5.15349e-06)
(-0.000126325 3.04009e-05 -5.87929e-19 0.000120325 -4.40368e-19 6.00021e-06)
(-0.000110478 5.00233e-05 3.16244e-19 0.000103485 2.41793e-19 6.99336e-06)
(-9.2709e-05 6.48397e-05 3.38247e-19 8.50184e-05 7.8172e-20 7.6906e-06)
(-7.44902e-05 7.43495e-05 2.15744e-19 6.67403e-05 -4.70248e-20 7.74995e-06)
(-5.6739e-05 7.87628e-05 1.10175e-19 4.95541e-05 5.87628e-20 7.18488e-06)
(-4.05004e-05 7.87376e-05 -1.44207e-20 3.43103e-05 8.06378e-20 6.19011e-06)
(-2.66295e-05 7.59185e-05 1.09989e-19 2.17128e-05 -1.81412e-20 4.91669e-06)
(-1.50105e-05 7.20875e-05 3.69931e-19 1.13961e-05 1.5577e-19 3.61439e-06)
(-4.12637e-06 6.82795e-05 -1.58798e-19 1.60124e-06 -2.14038e-20 2.52514e-06)
(6.69936e-06 5.75498e-05 3.97928e-19 -8.36339e-06 9.37764e-20 1.66403e-06)
(1.35595e-05 4.09816e-05 -5.43095e-20 -1.45929e-05 2.11568e-21 1.03342e-06)
(1.58034e-05 2.73481e-05 -1.7975e-20 -1.64275e-05 1.25099e-20 6.24054e-07)
(1.56241e-05 1.88468e-05 4.77774e-21 -1.60456e-05 2.06924e-21 4.21474e-07)
(1.53682e-05 1.50866e-05 -1.76514e-20 -1.57712e-05 7.49824e-21 4.02995e-07)
(1.47795e-05 1.3673e-05 -4.25938e-20 -1.52062e-05 -2.43513e-20 4.26697e-07)
(1.44188e-05 1.4445e-05 -3.75154e-21 -1.48099e-05 2.93399e-20 3.91107e-07)
(1.44404e-05 1.75962e-05 2.66429e-21 -1.47454e-05 -2.09969e-20 3.04984e-07)
(1.49844e-05 2.34974e-05 1.54799e-19 -1.51742e-05 1.21804e-19 1.89823e-07)
(0.000115095 0.000224822 -1.77231e-18 -0.00011556 1.66503e-18 4.64791e-07)
(0.00359883 0.00784053 -1.64358e-17 -0.00359581 1.01341e-17 -3.01661e-06)
(0.0029244 0.00586742 -3.81762e-17 -0.00293122 1.48439e-18 6.81729e-06)
(0.0001655 -0.000104422 1.85114e-21 -0.000166034 6.08317e-21 5.3394e-07)
(0.000178241 -7.5758e-05 2.82461e-20 -0.000178353 2.49625e-20 1.12908e-07)
(0.00018594 -4.07006e-05 -2.81913e-20 -0.000186317 -1.01549e-20 3.76933e-07)
(0.000186055 -2.52679e-06 6.96951e-20 -0.000186167 6.73318e-20 1.12429e-07)
(0.000121489 -0.000109856 -2.61482e-22 -0.000121307 -7.60132e-22 -1.82125e-07)
(0.000103208 -0.000128536 -1.83363e-21 -0.000103202 -1.50089e-21 -5.22556e-09)
(7.93053e-05 -0.000145319 -5.40646e-21 -7.91139e-05 -4.81199e-21 -1.91425e-07)
(5.19044e-05 -0.000157463 -2.98917e-20 -5.17412e-05 -2.75689e-20 -1.63107e-07)
(2.26688e-05 -0.000163771 3.70025e-20 -2.24679e-05 4.13635e-20 -2.00846e-07)
(-8.11161e-06 -0.00016387 1.93464e-19 8.43137e-06 1.63699e-19 -3.1976e-07)
(-3.80725e-05 -0.000157522 -1.16696e-20 3.84569e-05 -3.19186e-20 -3.84341e-07)
(-6.53911e-05 -0.000145089 -8.46913e-20 6.58762e-05 -7.00811e-20 -4.85039e-07)
(-8.89648e-05 -0.000127307 2.23849e-19 8.96266e-05 2.05924e-19 -6.61804e-07)
(-0.000107467 -0.000105591 9.01137e-20 0.000108295 5.69588e-20 -8.28018e-07)
(-0.000120245 -8.13165e-05 -7.34033e-20 0.000121307 -1.25264e-20 -1.0617e-06)
(-0.000127151 -5.59473e-05 -2.7357e-19 0.000128502 -1.3281e-19 -1.35057e-06)
(-0.000128368 -3.10406e-05 -5.13258e-19 0.000130036 -3.90809e-19 -1.6681e-06)
(-0.000124468 -7.8084e-06 -5.90992e-19 0.000126527 -3.53044e-19 -2.05929e-06)
(-0.000116295 1.27672e-05 -3.34026e-20 0.000118807 1.34957e-19 -2.51259e-06)
(-0.000104887 2.99213e-05 2.9425e-20 0.000107926 -6.38599e-20 -3.03949e-06)
(-9.11372e-05 4.32519e-05 -4.43102e-19 9.47495e-05 -2.03427e-19 -3.61224e-06)
(-7.58303e-05 5.28206e-05 -2.88287e-19 7.97006e-05 -1.24187e-19 -3.87027e-06)
(-6.00163e-05 5.88636e-05 7.35407e-20 6.37956e-05 6.73658e-21 -3.77936e-06)
(-4.4841e-05 6.17594e-05 3.06107e-19 4.82017e-05 4.11906e-20 -3.36069e-06)
(-3.10697e-05 6.21981e-05 -1.2848e-19 3.38153e-05 -5.32223e-20 -2.74562e-06)
(-1.91225e-05 6.12433e-05 -8.00594e-20 2.1199e-05 -1.50833e-19 -2.07653e-06)
(-8.28289e-06 5.96881e-05 1.5295e-20 9.72709e-06 5.64995e-21 -1.44419e-06)
(2.46375e-06 5.71431e-05 -1.42912e-19 -1.57535e-06 -1.38651e-19 -8.88406e-07)
(1.2426e-05 5.02033e-05 1.0118e-19 -1.19158e-05 2.17504e-20 -5.102e-07)
(1.88822e-05 3.91842e-05 3.19773e-20 -1.84887e-05 -2.28932e-20 -3.93458e-07)
(2.02328e-05 2.6999e-05 1.27333e-21 -1.98684e-05 -8.66124e-21 -3.64429e-07)
(1.80464e-05 1.70239e-05 2.99432e-20 -1.77876e-05 9.03364e-21 -2.58781e-07)
(1.5358e-05 1.04758e-05 1.72018e-20 -1.52273e-05 1.25453e-20 -1.30702e-07)
(1.28236e-05 6.16566e-06 1.2529e-19 -1.27652e-05 6.68911e-21 -5.84545e-08)
(1.23165e-05 4.21482e-06 -5.24665e-20 -1.22863e-05 5.99218e-20 -3.01746e-08)
(1.19314e-05 3.79493e-06 1.3107e-19 -1.19322e-05 -1.76728e-19 7.8215e-10)
(1.19112e-05 5.79438e-06 3.15077e-19 -1.19379e-05 1.93563e-19 2.66812e-08)
(1.26037e-05 1.12168e-05 -6.67691e-21 -1.26072e-05 1.51859e-19 3.44879e-09)
(0.000556452 0.00078521 4.97779e-18 -0.000556597 -2.27765e-18 1.45056e-07)
(0.000135995 -8.80082e-05 -4.84434e-21 -0.000136138 -7.45105e-21 1.42794e-07)
(0.000146335 -6.48498e-05 -1.52511e-20 -0.000146263 -1.06653e-20 -7.19999e-08)
(0.000152893 -3.66163e-05 2.36999e-20 -0.000153096 8.92385e-21 2.03425e-07)
(0.000153602 -5.71921e-06 -9.81527e-20 -0.000153617 -7.16912e-20 1.53707e-08)
(0.000100425 -9.25853e-05 -9.23311e-21 -0.00010038 -6.7451e-21 -4.48993e-08)
(8.53476e-05 -0.000107949 -2.91099e-20 -8.54714e-05 -2.61272e-20 1.23841e-07)
(6.57051e-05 -0.00012184 -6.70329e-21 -6.57365e-05 -6.72464e-21 3.13516e-08)
(4.31724e-05 -0.000132029 9.9799e-20 -4.32818e-05 8.75902e-20 1.09337e-07)
(1.91499e-05 -0.000137572 -6.66532e-20 -1.92908e-05 -5.91502e-20 1.4093e-07)
(-6.30692e-06 -0.000138172 -7.02085e-20 6.17659e-06 -7.31008e-20 1.30327e-07)
(-3.13165e-05 -0.000133552 -1.72711e-19 3.11249e-05 -1.2535e-19 1.91591e-07)
(-5.44502e-05 -0.000123916 -1.18196e-19 5.41929e-05 -8.23773e-20 2.57284e-07)
(-7.48139e-05 -0.000109744 1.30402e-19 7.45295e-05 8.50732e-20 2.84456e-07)
(-9.1273e-05 -9.20405e-05 3.60556e-20 9.0899e-05 -1.69566e-21 3.73989e-07)
(-0.000103219 -7.18032e-05 5.6308e-20 0.00010276 6.35088e-20 4.59467e-07)
(-0.00011036 -5.01436e-05 5.07985e-19 0.000109806 3.09038e-19 5.5349e-07)
(-0.00011265 -2.83305e-05 -1.73614e-19 0.000111958 -1.94165e-20 6.91834e-07)
(-0.000110373 -7.40772e-06 3.80919e-19 0.000109531 3.28511e-19 8.42372e-07)
(-0.00010408 1.17027e-05 5.07883e-20 0.00010305 3.91616e-20 1.0297e-06)
(-9.44729e-05 2.82111e-05 -8.98638e-20 9.31983e-05 -4.38107e-20 1.2746e-06)
(-8.23755e-05 4.17107e-05 2.70929e-19 8.07813e-05 1.86701e-19 1.59426e-06)
(-6.88499e-05 5.174e-05 1.03128e-19 6.70123e-05 7.49957e-20 1.83755e-06)
(-5.48476e-05 5.81705e-05 4.94653e-20 5.30068e-05 -2.46525e-20 1.84081e-06)
(-4.1295e-05 6.12521e-05 -1.80675e-19 3.96259e-05 -1.57761e-19 1.66905e-06)
(-2.88432e-05 6.1608e-05 -2.0996e-21 2.7497e-05 4.03025e-21 1.34618e-06)
(-1.78038e-05 6.01275e-05 -1.01284e-19 1.68224e-05 3.54863e-21 9.81461e-07)
(-7.80466e-06 5.76056e-05 -1.49091e-19 7.13315e-06 -8.18788e-21 6.71505e-07)
(1.70196e-06 5.41129e-05 3.94062e-20 -2.20056e-06 5.09112e-20 4.98597e-07)
(1.04698e-05 4.87267e-05 -6.84787e-21 -1.08607e-05 -4.25073e-20 3.90908e-07)
(1.71789e-05 4.11878e-05 -1.18041e-19 -1.74041e-05 3.91504e-21 2.25244e-07)
(2.08898e-05 3.29699e-05 -1.13834e-20 -2.09408e-05 4.21373e-21 5.09815e-08)
(2.17369e-05 2.51492e-05 3.52911e-21 -2.17281e-05 -8.51216e-21 -8.87602e-09)
(2.12614e-05 1.85906e-05 -2.41141e-20 -2.12846e-05 4.24079e-21 2.31464e-08)
(1.82838e-05 1.16021e-05 2.795e-20 -1.83174e-05 -1.41753e-19 3.3544e-08)
(1.51341e-05 6.15199e-06 1.67642e-19 -1.51477e-05 -3.25903e-20 1.36266e-08)
(1.12107e-05 2.08699e-06 -2.78384e-19 -1.12149e-05 -1.21454e-20 4.18738e-09)
(1.05723e-05 -6.39309e-08 3.19679e-19 -1.05871e-05 -1.77387e-19 1.47999e-08)
(1.01754e-05 -8.85681e-07 3.11964e-19 -1.01925e-05 -4.2299e-21 1.71002e-08)
(1.02528e-05 1.13178e-06 -3.70715e-19 -1.0283e-05 5.51525e-20 3.01508e-08)
(0.00011244 -7.47783e-05 5.95562e-21 -0.000112599 7.88136e-21 1.58465e-07)
(0.00012114 -5.58829e-05 4.48128e-20 -0.000121116 3.03294e-20 -2.38158e-08)
(0.000126917 -3.28644e-05 -2.87344e-20 -0.0001271 -3.19156e-20 1.8273e-07)
(1.64253e-05 -0.000116922 4.18172e-20 -1.64326e-05 3.67759e-20 7.24881e-09)
(-4.79324e-06 -0.000117892 5.93803e-20 4.82644e-06 4.9713e-20 -3.31933e-08)
(-2.57773e-05 -0.000114634 2.51057e-19 2.57973e-05 1.93044e-19 -1.9997e-08)
(-4.54038e-05 -0.00010727 -4.26522e-20 4.5431e-05 -3.26485e-20 -2.72553e-08)
(-6.29883e-05 -9.61266e-05 8.76587e-20 6.30489e-05 4.21693e-20 -6.05846e-08)
(-7.75856e-05 -8.19276e-05 -1.73353e-19 7.76554e-05 -1.00349e-19 -6.98292e-08)
(-8.86384e-05 -6.54153e-05 1.28586e-19 8.8741e-05 7.1112e-20 -1.02564e-07)
(-9.58362e-05 -4.74398e-05 -3.21102e-19 9.59923e-05 -2.51029e-19 -1.56123e-07)
(-9.90466e-05 -2.89837e-05 1.12603e-20 9.92514e-05 3.39864e-20 -2.04815e-07)
(-9.83872e-05 -1.0911e-05 5.13731e-20 9.86597e-05 -2.77591e-20 -2.72453e-07)
(-9.4186e-05 5.92678e-06 8.57222e-20 9.45481e-05 1.71491e-20 -3.62105e-07)
(-8.69652e-05 2.08111e-05 1.39852e-20 8.74284e-05 1.2173e-20 -4.6316e-07)
(-7.73961e-05 3.3226e-05 -1.03642e-19 7.80033e-05 -9.67133e-20 -6.07242e-07)
(-6.6184e-05 4.27974e-05 -1.99869e-19 6.69181e-05 -6.29891e-20 -7.34138e-07)
(-5.40135e-05 4.94642e-05 -1.71871e-19 5.48233e-05 -5.02746e-20 -8.09791e-07)
(-4.17337e-05 5.33725e-05 -1.25548e-19 4.25157e-05 3.44708e-20 -7.81999e-07)
(-3.00053e-05 5.49562e-05 -7.96881e-20 3.06793e-05 -8.45458e-21 -6.73933e-07)
(-1.92456e-05 5.47288e-05 -8.53723e-21 1.97653e-05 3.71812e-20 -5.19688e-07)
(-9.35757e-06 5.31652e-05 9.76689e-20 9.71836e-06 6.16862e-20 -3.60786e-07)
(-1.16616e-07 5.01958e-05 -7.00421e-21 3.03907e-07 -3.86013e-20 -1.87291e-07)
(8.14347e-06 4.53624e-05 -5.29158e-20 -8.08352e-06 -8.15232e-21 -5.99501e-08)
(1.44552e-05 3.87664e-05 9.19254e-20 -1.44017e-05 2.71766e-20 -5.34914e-08)
(1.81451e-05 3.16554e-05 1.21299e-20 -1.80413e-05 4.41811e-21 -1.03752e-07)
(1.96853e-05 2.53949e-05 1.44179e-20 -1.95864e-05 -1.48625e-20 -9.88441e-08)
(2.02251e-05 2.03622e-05 9.99633e-21 -2.01875e-05 -4.86152e-21 -3.76073e-08)
(2.03868e-05 1.60102e-05 -2.41174e-19 -2.03886e-05 8.11166e-20 1.81944e-09)
(2.01407e-05 1.17956e-05 -2.03736e-19 -2.01391e-05 -5.8774e-20 -1.59233e-09)
(1.67234e-05 6.49368e-06 1.31793e-19 -1.67127e-05 2.7056e-19 -1.06931e-08)
(1.16863e-05 2.03686e-06 -1.68638e-19 -1.16831e-05 -2.04135e-19 -3.23577e-09)
(9.82868e-06 -6.81797e-07 4.45329e-20 -9.82208e-06 -1.21475e-19 -6.59396e-09)
(9.20171e-06 -2.85086e-06 1.96479e-19 -9.22094e-06 4.27586e-20 1.923e-08)