/*--------------------------------*- C++ -*----------------------------------*\
| =========                 |                                                 |
| \\      /  F ield         | OpenFOAM: The Open Source CFD Toolbox           |
|  \\    /   O peration     | Version:  2506                                  |
|   \\  /    A nd           | Website:  www.openfoam.com                      |
|    \\/     M anipulation  |                                                 |
\*---------------------------------------------------------------------------*/
FoamFile
{
    version     2.0;
    format      ascii;
    arch        "LSB;label=32;scalar=64";
    class       volScalarField;
    location    "350";
    object      turbulenceProperties:epsilon;
}
// * * * * * * * * * * * * * * * * * * * * * * * * * * * * * * * * * * * * * //

dimensions      [0 2 -3 0 0 0 0];

internalField   nonuniform List<scalar> 
1340
(
0.259376
0.340108
0.453005
0.623614
0.840259
1.13493
1.5309
2.03511
2.68427
3.51475
4.57824
5.96486
7.80282
10.2917
13.772
18.7592
26.2382
37.3561
56.0471
83.0161
139.643
211.734
435.096
738.982
736.026
667.131
637.318
637.404
643.306
639.557
622.825
593.284
548.353
489.321
416.493
0.194133
0.147075
0.100363
0.0666661
0.0405449
0.022173
0.0111794
0.007361
0.00727999
0.00711437
0.00670961
0.00610643
0.00544796
0.00471923
0.00396218
0.00327814
0.0026704
0.00214894
0.00182
0.00177279
0.00210517
0.00330787
0.00671219
0.0165637
0.0442154
0.138954
0.449549
1.75908
6.25748
23.5168
83.8162
166.338
234.983
278.251
285.021
250.958
193.144
135.866
91.9116
63.5083
45.7311
34.273
0.00722737
0.00703172
0.00664122
0.00608285
0.00535941
0.00447599
0.00330256
0.00325044
0.00310531
0.00288997
0.00267301
0.00244437
0.00222363
0.002034
0.00187761
0.00176051
0.0016724
0.0016226
0.00160881
0.00163563
0.00164585
0.00154857
0.00112242
0.000801009
1.12563e-07
0.00158886
7.28199e-05
0.00107857
1.45858e-06
0.0229407
0.512415
2.54109
7.87922
20.0529
42.2899
70.529
91.6015
94.2533
80.1177
60.6966
44.181
0.00335437
0.00334634
0.00332876
0.00321154
0.0030085
0.00268239
0.00235415
0.00236391
0.00234023
0.00230143
0.00222237
0.00210724
0.00196801
0.00180085
0.00161888
0.0014289
0.00123797
0.00105128
0.000872822
0.000707463
0.000557551
0.000419261
0.000300403
0.000214629
0.0001259
6.35107e-05
2.54734e-06
9.3492e-06
8.9109e-08
0.00717497
0.0342134
7.8144e-05
0.00315279
0.00177845
0.0186383
0.447396
3.22214
11.6567
25.0463
35.4989
37.1901
0.0023039
0.00222881
0.00211346
0.0019786
0.00181579
0.00132488
0.0013202
0.00129966
0.00126344
0.00120839
0.00113572
0.00105089
0.000956819
0.000858145
0.000761895
0.000671429
0.000590028
0.00052032
0.000462973
0.000417825
0.000381643
0.000345331
0.000301951
0.00025627
0.000195932
0.000137119
2.71947e-05
2.49298e-07
6.51657e-09
0
1.00562e-07
0.000619732
0.00710159
0.0348443
0.0159485
0.0248109
0.0158838
0.17018
2.42332
9.08919
0.00131803
0.00129945
0.00126284
0.00120533
0.0011265
0.000890143
0.000897751
0.000897026
0.000890632
0.00087322
0.000845368
0.00080877
0.000762651
0.00070884
0.000649707
0.0005867
0.000522192
0.000458417
0.000397
0.000339315
0.000284297
0.000229884
0.000180048
0.000138622
0.00010707
8.83821e-05
6.40668e-05
4.25168e-05
2.38833e-06
4.8547e-08
8.50969e-09
2.49464e-10
0
0
0.00145454
0.00631672
0.0338167
0.00570788
0.0421361
0.0465501
0.000874085
0.000852132
0.000820696
0.000780116
0.000582488
0.000587615
0.000588435
0.000585462
0.000576172
0.000560261
0.000538384
0.00051029
0.000476756
0.000439296
0.000399139
0.000357836
0.000317068
0.000278207
0.000242187
0.000210021
0.000182838
0.000159215
0.000136762
0.000114919
9.60935e-05
8.18946e-05
7.21606e-05
5.00991e-05
2.19457e-05
5.57178e-06
1.2471e-07
1.1961e-08
3.44263e-09
1.4762e-11
0
0
0.000429605
0.0178992
0.012618
0.000572963
0.000560188
0.00054186
0.000517121
0.000400143
0.000405625
0.000408897
0.00041022
0.000407977
0.00040188
0.000392257
0.000378545
0.00036097
0.000340183
0.000316485
0.000290696
0.00026367
0.000236165
0.000208934
0.000182715
0.00015735
0.000132469
0.000109462
8.96631e-05
7.3722e-05
6.2332e-05
5.49657e-05
5.00362e-05
4.0918e-05
2.83866e-05
1.58634e-05
6.87812e-06
2.32388e-06
8.01273e-09
3.77342e-09
2.99778e-12
0
0
0.00113885
0.000391978
0.000382249
0.000369399
0.000352683
0.000278437
0.000282843
0.000286075
0.000288103
0.000288029
0.000285563
0.000280792
0.000273257
0.000263008
0.000250299
0.000235292
0.000218431
0.000200259
0.000181306
0.00016219
0.000143381
0.000125414
0.000108982
9.40638e-05
8.05667e-05
6.85863e-05
5.84805e-05
5.03999e-05
4.39751e-05
3.76098e-05
3.04121e-05
2.34345e-05
1.6976e-05
1.22047e-05
6.49299e-06
2.79518e-06
2.61811e-09
9.72514e-10
0
0
0.000272456
0.000265612
0.000256897
0.000208094
0.000207806
0.000206076
0.000202545
0.000197202
0.000190116
0.000181278
0.000170905
0.00015927
0.000146664
0.000133446
0.000119958
0.000106602
9.34649e-05
8.07437e-05
6.90284e-05
5.88418e-05
5.03985e-05
4.35494e-05
3.76084e-05
3.17277e-05
2.56229e-05
2.00026e-05
1.56221e-05
1.26074e-05
1.04012e-05
8.48668e-06
4.55068e-06
7.65915e-07
3.48438e-09
0
0.00015208
0.000150554
0.000147774
0.000143758
0.000138439
0.000131911
0.000124309
0.000115788
0.000106592
9.69717e-05
8.71776e-05
7.75167e-05
6.82582e-05
5.96011e-05
5.17924e-05
4.4957e-05
3.90669e-05
3.37486e-05
2.84395e-05
2.29861e-05
1.78927e-05
1.3824e-05
1.09378e-05
9.06118e-06
7.79615e-06
7.08126e-06
5.46409e-06
1.84985e-06
4.75846e-09
0.00011189
0.000109788
0.000106746
0.000102796
9.79868e-05
9.23975e-05
8.61588e-05
7.94258e-05
7.23817e-05
6.52439e-05
5.81262e-05
5.12341e-05
4.48795e-05
3.92369e-05
3.42873e-05
2.97709e-05
2.52878e-05
2.07037e-05
1.6355e-05
1.27387e-05
1.00303e-05
8.09066e-06
6.6712e-06
5.82473e-06
5.43196e-06
5.02564e-06
2.16949e-06
8.4153e-05
8.24716e-05
8.01168e-05
7.70961e-05
7.34344e-05
6.92092e-05
6.45156e-05
5.94669e-05
5.42327e-05
4.89428e-05
4.37364e-05
3.88025e-05
3.42793e-05
3.01722e-05
2.63366e-05
2.25292e-05
1.86628e-05
1.49759e-05
1.18404e-05
9.41682e-06
7.5961e-06
6.19672e-06
5.14321e-06
4.46839e-06
4.21657e-06
4.62257e-06
6.40145e-05
6.26739e-05
6.08344e-05
5.8497e-05
5.5694e-05
5.24772e-05
4.89145e-05
4.51268e-05
4.12027e-05
3.72325e-05
3.33595e-05
2.97268e-05
2.63527e-05
2.31504e-05
1.99632e-05
1.6732e-05
1.36276e-05
1.09343e-05
8.80165e-06
7.16342e-06
5.88367e-06
4.8702e-06
4.09541e-06
3.56602e-06
3.45414e-06
4.98514e-05
4.91462e-05
4.80664e-05
4.66031e-05
4.47646e-05
4.25809e-05
4.00938e-05
3.73722e-05
3.44958e-05
3.15257e-05
2.85442e-05
2.56739e-05
2.29401e-05
2.02949e-05
1.76462e-05
1.49583e-05
1.23528e-05
1.00471e-05
8.17586e-06
6.71166e-06
5.55573e-06
4.63874e-06
3.9037e-06
3.39517e-06
2.75802e-06
3.86425e-05
3.80484e-05
3.71631e-05
3.59904e-05
3.45372e-05
3.28263e-05
3.08954e-05
2.88097e-05
2.66014e-05
2.43215e-05
2.20685e-05
1.98743e-05
1.77158e-05
1.55364e-05
1.33169e-05
1.11457e-05
9.18651e-06
7.55614e-06
6.25349e-06
5.21123e-06
4.38121e-06
3.70994e-06
3.24933e-06
2.6967e-06
3.01656e-05
2.96617e-05
2.89358e-05
2.7988e-05
2.6828e-05
2.54761e-05
2.39781e-05
2.23555e-05
2.0636e-05
1.88887e-05
1.71483e-05
1.5407e-05
1.36313e-05
1.18114e-05
1.00134e-05
8.36051e-06
6.95116e-06
5.80027e-06
4.86555e-06
4.11181e-06
3.50501e-06
3.05008e-06
2.71818e-06
2.39577e-05
2.36966e-05
2.32681e-05
2.26674e-05
2.18979e-05
2.09666e-05
1.99039e-05
1.87244e-05
1.74425e-05
1.61005e-05
1.47349e-05
1.33462e-05
1.19136e-05
1.04335e-05
8.95517e-06
7.5714e-06
6.36361e-06
5.35531e-06
4.52363e-06
3.84211e-06
3.29497e-06
2.85166e-06
2.61139e-06
1.89458e-05
1.87135e-05
1.8349e-05
1.78515e-05
1.72235e-05
1.648e-05
1.56334e-05
1.4689e-05
1.36697e-05
1.26108e-05
1.15161e-05
1.03721e-05
9.17804e-06
7.9713e-06
6.82182e-06
5.79579e-06
4.92026e-06
4.18619e-06
3.57554e-06
3.08101e-06
2.67197e-06
2.42337e-06
1.5164e-05
1.50571e-05
1.48507e-05
1.45408e-05
1.41271e-05
1.36145e-05
1.30152e-05
1.23289e-05
1.15649e-05
1.07527e-05
9.89903e-06
8.99455e-06
8.03974e-06
7.06246e-06
6.11522e-06
5.2511e-06
4.4976e-06
3.85474e-06
3.31262e-06
2.86584e-06
2.50019e-06
2.22972e-06
1.21181e-05
1.20151e-05
1.18326e-05
1.15687e-05
1.1224e-05
1.08081e-05
1.03166e-05
9.75155e-06
9.13603e-06
8.47773e-06
7.77014e-06
7.01332e-06
6.22817e-06
5.45387e-06
4.73249e-06
4.08987e-06
3.53153e-06
3.05414e-06
2.65284e-06
2.32707e-06
2.05652e-06
9.75625e-06
9.7193e-06
9.62236e-06
9.46261e-06
9.23772e-06
8.95424e-06
8.60739e-06
8.1958e-06
7.73535e-06
7.23342e-06
6.68603e-06
6.09209e-06
5.46668e-06
4.83914e-06
4.24233e-06
3.69922e-06
3.21853e-06
2.8013e-06
2.44429e-06
2.15233e-06
1.89983e-06
7.86175e-06
7.82044e-06
7.73098e-06
7.59022e-06
7.40181e-06
7.16202e-06
6.86747e-06
6.52774e-06
6.14982e-06
5.73105e-06
5.26949e-06
4.77573e-06
4.27162e-06
3.78235e-06
3.32768e-06
2.91749e-06
2.55557e-06
2.24087e-06
1.97882e-06
1.75085e-06
6.35842e-06
6.35244e-06
6.3097e-06
6.22738e-06
6.10675e-06
5.94499e-06
5.73858e-06
5.4916e-06
5.21084e-06
4.89398e-06
4.53887e-06
4.15267e-06
3.75137e-06
3.35391e-06
2.97688e-06
2.63002e-06
2.31869e-06
2.04352e-06
1.8094e-06
1.60522e-06
5.14241e-06
5.15765e-06
5.14518e-06
5.10254e-06
5.02917e-06
4.92386e-06
4.78228e-06
4.60557e-06
4.39978e-06
4.16333e-06
3.89329e-06
3.59426e-06
3.27776e-06
2.95795e-06
2.64813e-06
2.35753e-06
2.09193e-06
1.8532e-06
1.64571e-06
1.46292e-06
4.18576e-06
4.19216e-06
4.17562e-06
4.13485e-06
4.06941e-06
3.97542e-06
3.8516e-06
3.70335e-06
3.52913e-06
3.326e-06
3.09667e-06
2.84936e-06
2.59453e-06
2.34241e-06
2.10114e-06
1.87646e-06
1.67102e-06
1.48842e-06
1.32527e-06
3.3957e-06
3.4131e-06
3.41315e-06
3.39446e-06
3.35676e-06
3.29676e-06
3.21235e-06
3.10741e-06
2.98093e-06
2.83e-06
2.65603e-06
2.46468e-06
2.26349e-06
2.06029e-06
1.86181e-06
1.67333e-06
1.49789e-06
1.33861e-06
1.19351e-06
2.75372e-06
2.77672e-06
2.78689e-06
2.78267e-06
2.76396e-06
2.72782e-06
2.67216e-06
2.59941e-06
2.5091e-06
2.39854e-06
2.26804e-06
2.1215e-06
1.96418e-06
1.80189e-06
1.64014e-06
1.48344e-06
1.3346e-06
1.19684e-06
1.06865e-06
2.25761e-06
2.27334e-06
2.27816e-06
2.27191e-06
2.25229e-06
2.21716e-06
2.16826e-06
2.10497e-06
2.02502e-06
1.92829e-06
1.81724e-06
1.69544e-06
1.56707e-06
1.43637e-06
1.3072e-06
1.18207e-06
1.0636e-06
9.51323e-07
1.83442e-06
1.85271e-06
1.86276e-06
1.86444e-06
1.85591e-06
1.83528e-06
1.80353e-06
1.7602e-06
1.70337e-06
1.63258e-06
1.54929e-06
1.45588e-06
1.35527e-06
1.25062e-06
1.14497e-06
1.04055e-06
9.39552e-07
8.41834e-07
1.48965e-06
1.5085e-06
1.52125e-06
1.52767e-06
1.52636e-06
1.51572e-06
1.49616e-06
1.46731e-06
1.42765e-06
1.37657e-06
1.31477e-06
1.24382e-06
1.16567e-06
1.08259e-06
9.96905e-07
9.10402e-07
8.24921e-07
7.40519e-07
1.22719e-06
1.24097e-06
1.24993e-06
1.25309e-06
1.24904e-06
1.23794e-06
1.21946e-06
1.19239e-06
1.15605e-06
1.11076e-06
1.05739e-06
9.97205e-07
9.31773e-07
8.62802e-07
7.91714e-07
7.19872e-07
6.47544e-07
9.97587e-07
1.01124e-06
1.02125e-06
1.02695e-06
1.02716e-06
1.02175e-06
1.01054e-06
9.92539e-07
9.67121e-07
9.34305e-07
8.94545e-07
8.48596e-07
7.97474e-07
7.42373e-07
6.8434e-07
6.2443e-07
5.62896e-07
8.10243e-07
8.23126e-07
8.33274e-07
8.4021e-07
8.42976e-07
8.41292e-07
8.35075e-07
8.23551e-07
8.06097e-07
7.826e-07
7.53252e-07
7.18449e-07
6.78786e-07
6.35068e-07
5.88022e-07
5.38409e-07
6.69354e-07
6.79042e-07
6.86351e-07
6.90493e-07
6.91144e-07
6.88253e-07
6.81211e-07
6.69481e-07
6.52878e-07
6.31414e-07
6.05247e-07
5.74686e-07
5.40215e-07
5.02328e-07
4.61521e-07
5.4376e-07
5.52676e-07
5.59814e-07
5.64558e-07
5.66562e-07
5.65797e-07
5.61802e-07
5.54135e-07
5.42568e-07
5.27006e-07
5.07458e-07
4.84045e-07
4.57029e-07
4.26696e-07
3.93363e-07
4.41318e-07
4.49294e-07
4.55947e-07
4.6077e-07
4.63472e-07
4.6401e-07
4.6203e-07
4.5718e-07
4.49236e-07
4.38046e-07
4.23526e-07
4.05684e-07
3.84621e-07
3.60473e-07
3.33416e-07
3.57854e-07
3.64861e-07
3.7085e-07
3.75443e-07
3.78393e-07
3.79648e-07
3.78957e-07
3.7603e-07
3.70658e-07
3.62671e-07
3.51943e-07
3.38407e-07
3.22055e-07
3.0293e-07
2.81104e-07
2.89923e-07
2.95966e-07
3.01229e-07
3.05427e-07
3.08352e-07
3.09952e-07
3.10043e-07
3.08392e-07
3.0482e-07
2.99156e-07
2.91261e-07
2.81024e-07
2.68379e-07
2.53301e-07
2.35795e-07
2.39835e-07
2.44382e-07
2.48108e-07
2.50844e-07
2.52539e-07
2.53058e-07
2.52231e-07
2.49901e-07
2.45909e-07
2.40112e-07
2.32388e-07
2.22642e-07
2.10803e-07
1.96838e-07
1.94168e-07
1.98035e-07
2.01264e-07
2.03717e-07
2.05359e-07
2.06092e-07
2.05778e-07
2.04288e-07
2.01486e-07
1.97237e-07
1.91416e-07
1.83918e-07
1.74657e-07
1.63573e-07
1.57054e-07
1.60301e-07
1.63054e-07
1.65196e-07
1.66704e-07
1.67504e-07
1.67488e-07
1.66555e-07
1.64593e-07
1.61478e-07
1.57093e-07
1.51335e-07
1.44113e-07
1.35356e-07
1.26932e-07
1.29633e-07
1.31943e-07
1.33773e-07
1.35102e-07
1.35881e-07
1.3603e-07
1.35462e-07
1.34086e-07
1.31799e-07
1.28493e-07
1.24076e-07
1.18459e-07
1.11568e-07
1.02512e-07
1.04736e-07
1.06652e-07
1.0819e-07
1.09332e-07
1.10044e-07
1.10267e-07
1.09932e-07
1.08963e-07
1.07277e-07
1.04782e-07
1.01394e-07
9.70349e-08
9.16327e-08
8.45541e-08
8.61278e-08
8.74019e-08
8.83615e-08
8.89839e-08
8.92262e-08
8.90355e-08
8.83509e-08
8.71019e-08
8.52133e-08
8.2615e-08
7.92369e-08
7.50161e-08
6.82148e-08
6.94958e-08
7.05378e-08
7.13298e-08
7.18582e-08
7.20908e-08
7.19868e-08
7.14973e-08
7.05656e-08
6.91318e-08
6.71378e-08
6.45236e-08
5.50031e-08
5.6037e-08
5.68798e-08
5.75252e-08
5.79632e-08
5.81702e-08
5.81154e-08
5.77603e-08
5.70601e-08
5.59678e-08
5.44351e-08
5.24134e-08
4.43294e-08
4.51593e-08
4.58357e-08
4.63545e-08
4.67102e-08
4.68861e-08
4.68581e-08
4.65958e-08
4.60651e-08
4.52293e-08
4.40496e-08
4.24866e-08
3.57157e-08
3.63783e-08
3.6917e-08
3.73294e-08
3.76137e-08
3.77572e-08
3.7742e-08
3.75448e-08
3.71391e-08
3.64966e-08
3.55869e-08
3.43788e-08
2.92967e-08
2.97228e-08
3.00481e-08
3.02718e-08
3.03853e-08
3.03752e-08
3.0224e-08
2.99111e-08
2.94146e-08
2.87116e-08
2.77776e-08
2.35906e-08
2.39259e-08
2.41801e-08
2.43539e-08
2.44416e-08
2.44329e-08
2.43144e-08
2.40708e-08
2.36854e-08
2.31406e-08
2.24179e-08
1.89967e-08
1.92589e-08
1.94562e-08
1.95897e-08
1.96558e-08
1.96464e-08
1.95518e-08
1.93605e-08
1.90599e-08
1.86367e-08
1.80768e-08
1.53004e-08
1.55044e-08
1.56563e-08
1.57577e-08
1.58061e-08
1.57955e-08
1.57188e-08
1.55673e-08
1.53318e-08
1.50023e-08
1.45679e-08
1.23274e-08
1.24853e-08
1.26016e-08
1.26778e-08
1.27122e-08
1.27006e-08
1.26375e-08
1.25167e-08
1.23313e-08
1.20737e-08
1.17361e-08
9.93703e-09
1.00589e-08
1.01474e-08
1.02039e-08
1.02274e-08
1.0215e-08
1.01626e-08
1.00656e-08
9.91885e-09
9.71696e-09
8.01553e-09
8.10935e-09
8.17615e-09
8.21758e-09
8.23288e-09
8.22001e-09
8.17603e-09
8.09757e-09
7.98093e-09
7.82215e-09
6.5433e-09
6.59341e-09
6.62328e-09
6.63255e-09
6.61956e-09
6.58233e-09
6.51845e-09
6.42523e-09
6.29983e-09
5.28547e-09
5.32279e-09
5.34386e-09
5.34862e-09
5.33592e-09
5.30424e-09
5.25191e-09
5.17701e-09
5.07749e-09
4.27421e-09
4.30182e-09
4.31643e-09
4.31807e-09
4.30594e-09
4.27895e-09
4.23591e-09
4.17546e-09
4.09615e-09
3.45923e-09
3.47956e-09
3.48947e-09
3.48904e-09
3.47777e-09
3.45489e-09
3.41952e-09
3.37071e-09
3.30745e-09
2.79984e-09
2.81467e-09
2.82122e-09
2.81962e-09
2.8095e-09
2.79031e-09
2.76141e-09
2.72216e-09
2.67183e-09
2.26493e-09
2.27559e-09
2.27971e-09
2.27743e-09
2.26847e-09
2.25247e-09
2.22897e-09
2.19754e-09
1.83208e-09
1.83958e-09
1.84185e-09
1.83904e-09
1.83101e-09
1.81751e-09
1.79826e-09
1.77296e-09
1.48373e-09
1.48877e-09
1.48958e-09
1.48632e-09
1.47894e-09
1.46727e-09
1.45117e-09
1.43047e-09
1.20819e-09
1.20788e-09
1.20426e-09
1.19733e-09
1.18702e-09
1.17322e-09
1.15592e-09
9.83083e-10
9.81922e-10
9.78039e-10
9.71498e-10
9.62214e-10
9.50135e-10
9.35402e-10
8.04087e-10
8.02876e-10
7.99435e-10
7.94089e-10
7.86247e-10
7.76014e-10
7.64132e-10
6.75499e-10
6.74037e-10
6.70574e-10
6.65958e-10
6.58876e-10
6.49537e-10
6.39752e-10
5.79555e-10
5.77672e-10
5.73762e-10
5.68921e-10
5.61706e-10
5.52179e-10
4.9579e-10
4.94358e-10
4.91031e-10
4.86801e-10
4.80473e-10
4.71881e-10
4.19882e-10
4.17975e-10
4.14267e-10
4.09709e-10
4.03535e-10
3.95004e-10
3.55091e-10
3.54162e-10
3.51665e-10
3.48205e-10
3.435e-10
3.37097e-10
2.91083e-10
2.88185e-10
2.83854e-10
2.78993e-10
2.73422e-10
2.65033e-10
2.53304e-10
2.53517e-10
2.52379e-10
2.49581e-10
2.46348e-10
2.43386e-10
1.82932e-10
1.78054e-10
1.74036e-10
1.69317e-10
1.59294e-10
2.05207e-10
2.07483e-10
2.05021e-10
2.04309e-10
2.11977e-10
1.27077e-10
1.27611e-10
1.31455e-10
1.2986e-10
1.19837e-10
2.9244e-10
3.09002e-10
3.0741e-10
3.14666e-10
3.48596e-10
3.66586e-10
3.88413e-10
4.20757e-10
7.47652e-10
8.37459e-10
7.78519e-10
7.01696e-10
)
;

boundaryField
{
    inlet
    {
        type            calculated;
        value           nonuniform List<scalar> 4(1.4584e-08 1.65128e-08 1.6939e-08 1.73371e-08);
    }
    outlet
    {
        type            calculated;
        value           nonuniform List<scalar> 0();
    }
    walls
    {
        type            calculated;
        value           uniform 0;
    }
    frontAndBack
    {
        type            empty;
    }
    procBoundary5to0
    {
        type            processor;
        value           nonuniform List<scalar> 4(0.000197885 0.00019327 0.000188249 0.000182083);
    }
    procBoundary5to1
    {
        type            processor;
        value           nonuniform List<scalar> 
13
(
0.00631243
0.0035413
0.0035413
0.00226331
0.00161319
0.00161319
0.0010194
0.000729542
0.000729542
0.000485888
0.00033228
0.000245548
0.000245548
)
;
    }
    procBoundary5to4
    {
        type            processor;
        value           nonuniform List<scalar> 
95
(
0.000201528
0.000204592
0.000206979
0.000206979
0.000151837
0.000152433
0.000152433
0.000113533
0.000113132
0.000113132
8.51589e-05
8.51589e-05
6.48587e-05
6.48587e-05
5.02004e-05
3.89622e-05
3.89622e-05
3.04528e-05
3.04528e-05
2.40585e-05
1.90543e-05
1.90543e-05
1.51779e-05
1.21465e-05
1.21465e-05
9.73729e-06
7.85791e-06
7.85791e-06
6.33086e-06
5.10223e-06
4.15871e-06
4.15871e-06
3.36311e-06
2.7194e-06
2.2324e-06
2.2324e-06
1.80911e-06
1.46564e-06
1.20892e-06
1.20892e-06
9.80592e-07
7.94926e-07
6.57591e-07
6.57591e-07
5.33292e-07
4.32172e-07
3.4998e-07
2.83227e-07
2.34693e-07
2.34693e-07
1.8984e-07
1.53447e-07
1.23951e-07
1.00066e-07
8.27367e-08
8.27367e-08
6.67385e-08
5.38112e-08
4.33724e-08
3.49506e-08
2.8771e-08
2.8771e-08
2.31756e-08
1.867e-08
1.50439e-08
1.21268e-08
9.78047e-09
7.89354e-09
6.47139e-09
6.47139e-09
5.23047e-09
4.23235e-09
3.42744e-09
2.77577e-09
2.24688e-09
1.81863e-09
1.47387e-09
1.20507e-09
1.20507e-09
9.81388e-10
8.02944e-10
6.74793e-10
5.79293e-10
4.95297e-10
4.1995e-10
3.54473e-10
2.92697e-10
2.51516e-10
1.86913e-10
1.86913e-10
2.01919e-10
1.25485e-10
2.78157e-10
3.22675e-10
7.44747e-10
)
;
    }
    procBoundary5to6
    {
        type            processor;
        value           nonuniform List<scalar> 
86
(
334.32
26.5042
31.9731
32.4034
16.9129
1.66291
0.033695
0.0241993
0
0
0
2.92409e-09
1.21825e-06
5.01769e-06
4.23405e-06
2.76486e-06
2.1214e-06
2.00521e-06
2.03146e-06
2.00279e-06
1.89222e-06
1.74225e-06
1.58847e-06
1.44398e-06
1.30973e-06
1.18337e-06
1.0639e-06
9.51335e-07
8.45777e-07
7.47768e-07
6.57514e-07
5.74871e-07
4.99872e-07
4.86468e-07
4.86468e-07
4.18019e-07
3.57179e-07
3.0354e-07
2.56617e-07
2.15859e-07
1.80711e-07
1.5061e-07
1.24998e-07
1.03338e-07
8.51266e-08
6.98948e-08
6.12351e-08
6.12351e-08
4.98579e-08
4.05044e-08
3.28432e-08
2.65892e-08
2.1499e-08
1.73659e-08
1.40179e-08
1.13103e-08
9.45399e-09
9.45399e-09
7.61685e-09
6.13901e-09
4.95101e-09
3.9963e-09
3.2285e-09
2.6095e-09
2.15764e-09
2.15764e-09
1.74124e-09
1.40493e-09
1.13498e-09
9.17913e-10
7.49955e-10
6.28172e-10
5.42748e-10
5.42748e-10
4.6316e-10
3.86524e-10
3.29742e-10
2.57742e-10
2.36594e-10
1.54798e-10
2.03894e-10
1.23629e-10
3.68988e-10
3.68988e-10
4.24605e-10
1.21589e-09
)
;
    }
}


// ************************************************************************* //
