/*--------------------------------*- C++ -*----------------------------------*\
| =========                 |                                                 |
| \\      /  F ield         | OpenFOAM: The Open Source CFD Toolbox           |
|  \\    /   O peration     | Version:  2506                                  |
|   \\  /    A nd           | Website:  www.openfoam.com                      |
|    \\/     M anipulation  |                                                 |
\*---------------------------------------------------------------------------*/
FoamFile
{
    version     2.0;
    format      ascii;
    arch        "LSB;label=32;scalar=64";
    class       volScalarField;
    location    "350";
    object      turbulenceProperties:k;
}
// * * * * * * * * * * * * * * * * * * * * * * * * * * * * * * * * * * * * * //

dimensions      [0 2 -2 0 0 0 0];

internalField   nonuniform List<scalar> 
1340
(
0.0199798
0.0232552
0.0274201
0.0330526
0.0396758
0.0480568
0.0587129
0.0718557
0.0885113
0.109764
0.137265
0.173652
0.222557
0.289929
0.385904
0.5264
0.742825
1.07633
1.66196
2.57331
4.6283
7.73406
18.1118
35.3408
39.1533
37.4585
36.814
37.4913
38.3263
38.5354
38.0229
36.8874
35.0539
32.5453
29.3054
0.0170401
0.0146496
0.0119562
0.00963943
0.00744435
0.00545967
0.00385256
0.00310768
0.0030905
0.00305516
0.00296703
0.00283063
0.00267378
0.00248864
0.00228041
0.00207429
0.00187213
0.00167938
0.00154528
0.001526
0.00167391
0.00216432
0.00337018
0.0063254
0.0130743
0.0313667
0.0767047
0.227309
0.62735
1.92837
6.17639
12.0756
18.1696
23.9169
27.9916
28.803
26.4267
22.5214
18.5685
15.3622
12.9047
11.0169
0.0030794
0.00303758
0.00295218
0.00282562
0.00265259
0.00242448
0.00208399
0.00206754
0.00202092
0.00194965
0.00187512
0.00179321
0.00171042
0.00163597
0.00157194
0.00152227
0.00148386
0.0014618
0.00145582
0.00146834
0.00147297
0.00142754
0.00121356
0.00102761
1.86631e-05
0.00145265
0.000328216
0.00125241
4.50266e-05
0.016896
0.184404
0.653184
1.65782
3.72056
7.34501
12.1276
16.445
18.5648
18.1463
16.2921
14.1343
0.00210023
0.00209765
0.00209209
0.00205485
0.00198877
0.00187784
0.001759
0.00176264
0.00175378
0.00173918
0.00170905
0.0016642
0.0016083
0.00153849
0.00145872
0.00137048
0.00127567
0.0011756
0.00107123
0.000964495
0.000856303
0.000742621
0.000628479
0.000530981
0.000406724
0.00029281
6.86575e-05
0.000125561
1.60175e-05
0.00429316
0.0218035
0.000324931
0.00399833
0.00578246
0.0415305
0.368905
1.59912
4.3436
8.13429
11.2831
12.6384
0.00174013
0.00171154
0.00166667
0.00161262
0.00154486
0.00131963
0.0013173
0.00130701
0.00128867
0.00126029
0.00122181
0.0011753
0.00112147
0.00106208
0.00100075
0.000939475
0.000880701
0.000827059
0.000780174
0.000741186
0.0007084
0.000673905
0.000630171
0.000580616
0.000507366
0.000424144
0.000195428
2.38659e-05
4.78876e-06
0
1.63738e-05
0.000919421
0.00538742
0.0269206
0.0139825
0.0304339
0.053326
0.334703
1.95201
5.00825
0.00131622
0.0013069
0.00128837
0.00125868
0.00121683
0.00108166
0.00108627
0.00108583
0.00108196
0.00107133
0.00105411
0.00103104
0.00100121
0.000965244
0.000924108
0.00087816
0.000828482
0.000776249
0.000722387
0.000667854
0.000611327
0.000549733
0.000486522
0.000426917
0.00037526
0.000341252
0.000290198
0.000236215
6.16112e-05
1.08284e-05
4.99129e-06
1.0394e-06
0
0
0.00199199
0.0072741
0.0371775
0.00710647
0.0905656
0.198563
0.00107186
0.00105831
0.00103861
0.00101261
0.000874993
0.000878836
0.000879449
0.000877224
0.000870237
0.000858137
0.000841216
0.000818974
0.000791608
0.000759873
0.000724312
0.000685814
0.000645567
0.000604716
0.000564216
0.000525418
0.000490244
0.000457484
0.000424006
0.000388672
0.000355464
0.000328307
0.000308497
0.000256566
0.000170182
8.82659e-05
1.56306e-05
5.4281e-06
3.09697e-06
2.74844e-07
0
0
0.000939907
0.0286164
0.0217299
0.000867809
0.000858079
0.000843925
0.000824435
0.000725218
0.000730168
0.000733108
0.000734293
0.000732283
0.000726791
0.000718036
0.000705374
0.000688804
0.000668678
0.000644967
0.00061813
0.000588696
0.000557146
0.000524042
0.000490061
0.000454776
0.000417275
0.000379314
0.0003433
0.000311287
0.000286252
0.000268882
0.000256754
0.00023222
0.000193226
0.000144265
9.53691e-05
5.65014e-05
4.33488e-06
3.07087e-06
1.28071e-07
0
0
0.00313995
0.00071778
0.000708815
0.000696799
0.00068085
0.000604957
0.000609725
0.000613198
0.000615368
0.000615289
0.000612649
0.000607509
0.000599302
0.000587956
0.000573575
0.000556114
0.000535818
0.000513046
0.000488165
0.000461714
0.000434118
0.000406009
0.000378478
0.000351622
0.00032542
0.000300251
0.000277248
0.000257384
0.000240456
0.000222449
0.000200123
0.000175775
0.000149601
0.000126803
9.22982e-05
6.09326e-05
2.57255e-06
1.64245e-06
0
0
0.000598423
0.000590859
0.000581084
0.000522986
0.000522623
0.000520444
0.000515965
0.000509114
0.000499884
0.000488127
0.000473955
0.000457538
0.000439057
0.000418805
0.000397076
0.000374319
0.000350497
0.000325772
0.000301213
0.000278102
0.000257377
0.000239249
0.000222332
0.000204218
0.000183537
0.000162194
0.000143389
0.000128895
0.000117174
0.000105916
7.727e-05
3.27471e-05
2.87445e-06
0
0.00044709
0.000444841
0.000440716
0.000434686
0.000426568
0.00041639
0.000404213
0.000390114
0.000374302
0.000357011
0.000338503
0.000319196
0.000299528
0.00027989
0.000260912
0.000243086
0.000226603
0.000210615
0.000193339
0.000173816
0.000153354
0.0001348
0.000119917
0.000109188
0.000101361
9.67842e-05
8.49258e-05
4.94986e-05
3.28174e-06
0.00038349
0.000379871
0.000374572
0.000367575
0.000358874
0.000348489
0.000336518
0.000323102
0.000308442
0.000292839
0.000276404
0.000259501
0.000242876
0.000227095
0.000212289
0.000197814
0.000182313
0.000164963
0.000146617
0.000129394
0.000114815
0.00010312
9.36463e-05
8.75539e-05
8.46811e-05
8.15764e-05
5.34017e-05
0.000332578
0.000329239
0.000324504
0.000318328
0.000310676
0.000301606
0.0002912
0.000279574
0.000266987
0.000253632
0.000239762
0.000225834
0.000212264
0.000199143
0.000186055
0.000172082
0.000156621
0.000140301
0.000124752
0.000111253
9.99178e-05
9.02428e-05
8.22149e-05
7.66533e-05
7.45403e-05
7.84081e-05
0.000290067
0.000287013
0.00028277
0.000277284
0.000270559
0.00026263
0.000253558
0.000243543
0.000232714
0.000221218
0.000209396
0.000197667
0.000186111
0.000174437
0.000161985
0.000148298
0.000133836
0.000119884
0.000107559
9.7034e-05
8.79389e-05
8.00039e-05
7.33623e-05
6.84602e-05
6.74497e-05
0.000255975
0.000254158
0.00025135
0.000247495
0.000242564
0.000236573
0.000229561
0.000221632
0.000212932
0.00020356
0.000193695
0.000183698
0.000173643
0.000163325
0.000152295
0.000140217
0.000127422
0.000114916
0.000103665
9.3925e-05
8.5455e-05
7.80844e-05
7.16279e-05
6.68025e-05
6.01742e-05
0.000225367
0.000223628
0.000221011
0.000217496
0.00021306
0.000207716
0.000201514
0.000194593
0.000186987
0.000178794
0.000170312
0.000161624
0.000152595
0.000142901
0.000132301
0.000121036
0.000109885
9.96582e-05
9.06621e-05
8.2763e-05
7.5887e-05
6.98301e-05
6.53579e-05
5.95125e-05
0.00019912
0.00019745
0.000195019
0.000191798
0.000187782
0.000182989
0.000177528
0.000171416
0.000164692
0.000157565
0.000150131
0.000142304
0.000133853
0.000124598
0.000114723
0.000104828
9.55852e-05
8.73147e-05
7.99706e-05
7.35163e-05
6.78751e-05
6.33183e-05
5.97803e-05
0.000177452
0.000176483
0.00017488
0.000172608
0.000169652
0.000166005
0.000161744
0.000156878
0.000151413
0.000145472
0.000139166
0.000132446
0.000125136
0.000117105
0.000108492
9.97583e-05
9.14563e-05
8.38987e-05
7.71093e-05
7.10639e-05
6.58106e-05
6.12204e-05
5.86059e-05
0.000157803
0.000156833
0.000155298
0.000153178
0.000150459
0.000147176
0.000143346
0.000138949
0.000134041
0.000128745
0.000123031
0.00011676
0.000109833
0.000102359
9.46915e-05
8.72806e-05
8.04185e-05
7.41776e-05
6.85542e-05
6.3638e-05
5.926e-05
5.64502e-05
0.000141177
0.000140679
0.000139711
0.000138246
0.000136265
0.00013377
0.000130793
0.000127298
0.000123291
0.000118883
0.000114066
0.00010873
0.000102797
9.6347e-05
8.96533e-05
8.3078e-05
7.68869e-05
7.11804e-05
6.59855e-05
6.13752e-05
5.73247e-05
5.414e-05
0.000126205
0.000125668
0.00012471
0.000123311
0.00012146
0.000119188
0.000116447
0.000113213
0.000109582
0.00010556
0.000101059
9.60112e-05
9.04774e-05
8.46667e-05
7.88689e-05
7.3319e-05
6.81308e-05
6.33588e-05
5.905e-05
5.53056e-05
5.19908e-05
0.00011324
0.000113026
0.00011246
0.000111523
0.00011019
0.000108486
0.000106364
0.00010379
0.000100832
9.7506e-05
9.3744e-05
8.94835e-05
8.4766e-05
7.97525e-05
7.46729e-05
6.97295e-05
6.50415e-05
6.06796e-05
5.66813e-05
5.31889e-05
4.99702e-05
0.000101653
0.000101385
0.000100804
9.98818e-05
9.86344e-05
9.70235e-05
9.50075e-05
9.26277e-05
8.99064e-05
8.67914e-05
8.32231e-05
7.92282e-05
7.49301e-05
7.05085e-05
6.61351e-05
6.1925e-05
5.7957e-05
5.42714e-05
5.09999e-05
4.79713e-05
9.14184e-05
9.13754e-05
9.10675e-05
9.04716e-05
8.9591e-05
8.83965e-05
8.68483e-05
8.49589e-05
8.27586e-05
8.02031e-05
7.72385e-05
7.38795e-05
7.02191e-05
6.63952e-05
6.25521e-05
5.87951e-05
5.52056e-05
5.18265e-05
4.87676e-05
4.59335e-05
8.22134e-05
8.23351e-05
8.22356e-05
8.18941e-05
8.13032e-05
8.04475e-05
7.92824e-05
7.78039e-05
7.60458e-05
7.39742e-05
7.1535e-05
6.8733e-05
6.5637e-05
6.23528e-05
5.8997e-05
5.5666e-05
5.24367e-05
4.93541e-05
4.65094e-05
4.38505e-05
7.41731e-05
7.42298e-05
7.40833e-05
7.37207e-05
7.3135e-05
7.22855e-05
7.11509e-05
6.97681e-05
6.81073e-05
6.61182e-05
6.37981e-05
6.11975e-05
5.83969e-05
5.54871e-05
5.25519e-05
4.96629e-05
4.68655e-05
4.42308e-05
4.17366e-05
6.68074e-05
6.69783e-05
6.69787e-05
6.67952e-05
6.64232e-05
6.58269e-05
6.49787e-05
6.39086e-05
6.25945e-05
6.09892e-05
5.90849e-05
5.69168e-05
5.45443e-05
5.20385e-05
4.94685e-05
4.68978e-05
4.43713e-05
4.1946e-05
3.96074e-05
6.01616e-05
6.04123e-05
6.05228e-05
6.04771e-05
6.02734e-05
5.98781e-05
5.9264e-05
5.84518e-05
5.74273e-05
5.61479e-05
5.45991e-05
5.28059e-05
5.08102e-05
4.8666e-05
4.64303e-05
4.41567e-05
4.18831e-05
3.96626e-05
3.74784e-05
5.44734e-05
5.46628e-05
5.47208e-05
5.46457e-05
5.44092e-05
5.39832e-05
5.33846e-05
5.25997e-05
5.15912e-05
5.03438e-05
4.88727e-05
4.72065e-05
4.53842e-05
4.34505e-05
4.14508e-05
3.9417e-05
3.73897e-05
3.53612e-05
4.91031e-05
4.93473e-05
4.94811e-05
4.95033e-05
4.939e-05
4.91147e-05
4.8688e-05
4.80996e-05
4.73168e-05
4.63231e-05
4.5126e-05
4.37445e-05
4.22059e-05
4.05438e-05
3.87934e-05
3.69823e-05
3.51417e-05
3.32642e-05
4.42488e-05
4.45279e-05
4.47158e-05
4.481e-05
4.47908e-05
4.46344e-05
4.43455e-05
4.39159e-05
4.33183e-05
4.25362e-05
4.15705e-05
4.04333e-05
3.91425e-05
3.77218e-05
3.61983e-05
3.45922e-05
3.29283e-05
3.11983e-05
4.01621e-05
4.03869e-05
4.05325e-05
4.05836e-05
4.05181e-05
4.03376e-05
4.00354e-05
3.95886e-05
3.89807e-05
3.82094e-05
3.72802e-05
3.62037e-05
3.49958e-05
3.36758e-05
3.22587e-05
3.07603e-05
2.91741e-05
3.62106e-05
3.64576e-05
3.66376e-05
3.67396e-05
3.67434e-05
3.66466e-05
3.6445e-05
3.61189e-05
3.56534e-05
3.50433e-05
3.42896e-05
3.33973e-05
3.23758e-05
3.12373e-05
2.99915e-05
2.86487e-05
2.72005e-05
3.26338e-05
3.28922e-05
3.30944e-05
3.32318e-05
3.32865e-05
3.32532e-05
3.31302e-05
3.29008e-05
3.25503e-05
3.20724e-05
3.14653e-05
3.07298e-05
2.98695e-05
2.88916e-05
2.78009e-05
2.66023e-05
2.96612e-05
2.98751e-05
3.00354e-05
3.01259e-05
3.01401e-05
3.0077e-05
2.99228e-05
2.96641e-05
2.92939e-05
2.88084e-05
2.82051e-05
2.74838e-05
2.66468e-05
2.56954e-05
2.46297e-05
2.6734e-05
2.69523e-05
2.71258e-05
2.72405e-05
2.72888e-05
2.72704e-05
2.7174e-05
2.69879e-05
2.67047e-05
2.6319e-05
2.58263e-05
2.52235e-05
2.45095e-05
2.36822e-05
2.27384e-05
2.40844e-05
2.43011e-05
2.44804e-05
2.46095e-05
2.46816e-05
2.46959e-05
2.46432e-05
2.45135e-05
2.42996e-05
2.39951e-05
2.3594e-05
2.30917e-05
2.24843e-05
2.1767e-05
2.09342e-05
2.16877e-05
2.1899e-05
2.2078e-05
2.22143e-05
2.23014e-05
2.23384e-05
2.23181e-05
2.22317e-05
2.20723e-05
2.18332e-05
2.15079e-05
2.10903e-05
2.05744e-05
1.99542e-05
1.92219e-05
1.9521e-05
1.97234e-05
1.9898e-05
2.00362e-05
2.01319e-05
2.01841e-05
2.0187e-05
2.01332e-05
2.00163e-05
1.98295e-05
1.95661e-05
1.92192e-05
1.87818e-05
1.82466e-05
1.76048e-05
1.77548e-05
1.79224e-05
1.80585e-05
1.81578e-05
1.82191e-05
1.82378e-05
1.82079e-05
1.81237e-05
1.79783e-05
1.77652e-05
1.74771e-05
1.71067e-05
1.66457e-05
1.60849e-05
1.59753e-05
1.61336e-05
1.62646e-05
1.63635e-05
1.64293e-05
1.64586e-05
1.6446e-05
1.63864e-05
1.62737e-05
1.61011e-05
1.58618e-05
1.5548e-05
1.51515e-05
1.46629e-05
1.43676e-05
1.45154e-05
1.46395e-05
1.47354e-05
1.48025e-05
1.4838e-05
1.48373e-05
1.47959e-05
1.47085e-05
1.45686e-05
1.43695e-05
1.41037e-05
1.37631e-05
1.33383e-05
1.29166e-05
1.30533e-05
1.3169e-05
1.32601e-05
1.33258e-05
1.33642e-05
1.33715e-05
1.33435e-05
1.32756e-05
1.31619e-05
1.29958e-05
1.27705e-05
1.24781e-05
1.21097e-05
1.16078e-05
1.1733e-05
1.18399e-05
1.19249e-05
1.19877e-05
1.20267e-05
1.20388e-05
1.20205e-05
1.19675e-05
1.18745e-05
1.17356e-05
1.15444e-05
1.12935e-05
1.09746e-05
1.05421e-05
1.06398e-05
1.07182e-05
1.07769e-05
1.08148e-05
1.08295e-05
1.08179e-05
1.07763e-05
1.06998e-05
1.05832e-05
1.04206e-05
1.02053e-05
9.92981e-06
9.46892e-06
9.55742e-06
9.62881e-06
9.68272e-06
9.71853e-06
9.73425e-06
9.72722e-06
9.6941e-06
9.63074e-06
9.53239e-06
9.39392e-06
9.20922e-06
8.50266e-06
8.58221e-06
8.64651e-06
8.69542e-06
8.72847e-06
8.74405e-06
8.73994e-06
8.7132e-06
8.66023e-06
8.57694e-06
8.45869e-06
8.30013e-06
7.63321e-06
7.70433e-06
7.76182e-06
7.80563e-06
7.83552e-06
7.85026e-06
7.84792e-06
7.82593e-06
7.78124e-06
7.71034e-06
7.60912e-06
7.47291e-06
6.85158e-06
6.91485e-06
6.96586e-06
7.00467e-06
7.03129e-06
7.0447e-06
7.04328e-06
7.02486e-06
6.9868e-06
6.92611e-06
6.83925e-06
6.72216e-06
6.20541e-06
6.25038e-06
6.28449e-06
6.30784e-06
6.31966e-06
6.31861e-06
6.30287e-06
6.27017e-06
6.21791e-06
6.14316e-06
6.04243e-06
5.56841e-06
5.60783e-06
5.63755e-06
5.65778e-06
5.66796e-06
5.66696e-06
5.6532e-06
5.62481e-06
5.57961e-06
5.51506e-06
5.42827e-06
4.99689e-06
5.03125e-06
5.05696e-06
5.0743e-06
5.08284e-06
5.08164e-06
5.06939e-06
5.04453e-06
5.00522e-06
4.94935e-06
4.87443e-06
4.48448e-06
4.51428e-06
4.53634e-06
4.55101e-06
4.55799e-06
4.55648e-06
4.5454e-06
4.52345e-06
4.4891e-06
4.4406e-06
4.37584e-06
4.02528e-06
4.05098e-06
4.0698e-06
4.0821e-06
4.08763e-06
4.08577e-06
4.07562e-06
4.05609e-06
4.02593e-06
3.98367e-06
3.92758e-06
3.614e-06
3.6361e-06
3.65206e-06
3.66222e-06
3.66643e-06
3.66421e-06
3.6548e-06
3.63731e-06
3.61071e-06
3.57378e-06
3.24583e-06
3.26477e-06
3.27819e-06
3.28649e-06
3.28955e-06
3.28698e-06
3.27818e-06
3.26241e-06
3.23883e-06
3.20645e-06
2.93263e-06
2.94384e-06
2.9505e-06
2.95257e-06
2.94968e-06
2.94137e-06
2.92707e-06
2.90607e-06
2.87757e-06
2.63573e-06
2.64502e-06
2.65025e-06
2.65143e-06
2.64828e-06
2.64041e-06
2.62736e-06
2.60855e-06
2.58336e-06
2.3702e-06
2.37785e-06
2.38188e-06
2.38234e-06
2.37899e-06
2.37153e-06
2.35957e-06
2.34267e-06
2.32032e-06
2.13229e-06
2.13855e-06
2.14159e-06
2.14146e-06
2.13801e-06
2.13096e-06
2.12003e-06
2.10485e-06
2.085e-06
1.91832e-06
1.9234e-06
1.92564e-06
1.92509e-06
1.92164e-06
1.91507e-06
1.90513e-06
1.89154e-06
1.87397e-06
1.72537e-06
1.72942e-06
1.73099e-06
1.73013e-06
1.72672e-06
1.72062e-06
1.71163e-06
1.69952e-06
1.55176e-06
1.55494e-06
1.5559e-06
1.55471e-06
1.55131e-06
1.54559e-06
1.53738e-06
1.52653e-06
1.39646e-06
1.39883e-06
1.39921e-06
1.39768e-06
1.39421e-06
1.3887e-06
1.38106e-06
1.37118e-06
1.26014e-06
1.25998e-06
1.25809e-06
1.25447e-06
1.24905e-06
1.24177e-06
1.23258e-06
1.13669e-06
1.13602e-06
1.13378e-06
1.12998e-06
1.12457e-06
1.11749e-06
1.10879e-06
1.02801e-06
1.02724e-06
1.02504e-06
1.0216e-06
1.01655e-06
1.00991e-06
1.00215e-06
9.42232e-07
9.41212e-07
9.38792e-07
9.35556e-07
9.30569e-07
9.23951e-07
9.16966e-07
8.72753e-07
8.71334e-07
8.68381e-07
8.6471e-07
8.59211e-07
8.51893e-07
8.07219e-07
8.06053e-07
8.03336e-07
7.99869e-07
7.94654e-07
7.87517e-07
7.42856e-07
7.41167e-07
7.37872e-07
7.33803e-07
7.28253e-07
7.20514e-07
6.8314e-07
6.82245e-07
6.79837e-07
6.76484e-07
6.71899e-07
6.65607e-07
6.18511e-07
6.15424e-07
6.10782e-07
6.05529e-07
5.99454e-07
5.90186e-07
5.7698e-07
5.77222e-07
5.75925e-07
5.72724e-07
5.69002e-07
5.65571e-07
4.90327e-07
4.83746e-07
4.78256e-07
4.71728e-07
4.57552e-07
5.19325e-07
5.22197e-07
5.1909e-07
5.18188e-07
5.27823e-07
4.08675e-07
4.09534e-07
4.15656e-07
4.13127e-07
3.96863e-07
6.19963e-07
6.37277e-07
6.35634e-07
6.43091e-07
6.76878e-07
6.94124e-07
7.14492e-07
7.43646e-07
9.91303e-07
1.04915e-06
1.01156e-06
9.60356e-07
)
;

boundaryField
{
    inlet
    {
        type            calculated;
        value           nonuniform List<scalar> 4(4.37819e-06 4.65872e-06 4.71846e-06 4.77359e-06);
    }
    outlet
    {
        type            calculated;
        value           nonuniform List<scalar> 0();
    }
    walls
    {
        type            calculated;
        value           uniform 0;
    }
    frontAndBack
    {
        type            empty;
    }
    procBoundary5to0
    {
        type            processor;
        value           nonuniform List<scalar> 4(0.000509997 0.000504013 0.000497423 0.000489208);
    }
    procBoundary5to1
    {
        type            processor;
        value           nonuniform List<scalar> 
13
(
0.00288511
0.00215687
0.00215687
0.00172487
0.00145613
0.00145613
0.00115754
0.000979235
0.000979235
0.000799152
0.000660865
0.000568103
0.000568103
)
;
    }
    procBoundary5to4
    {
        type            processor;
        value           nonuniform List<scalar> 
95
(
0.00051467
0.000518567
0.000521583
0.000521583
0.000446734
0.00044761
0.00044761
0.000386296
0.000385613
0.000385613
0.00033456
0.00033456
0.000291973
0.000291973
0.000256869
0.000226298
0.000226298
0.000200065
0.000200065
0.000177825
0.000158254
0.000158254
0.000141242
0.000126353
0.000126353
0.00011313
0.000101628
0.000101628
9.122e-05
8.18915e-05
7.3933e-05
7.3933e-05
6.6486e-05
5.97855e-05
5.41683e-05
5.41683e-05
4.87632e-05
4.38908e-05
3.98619e-05
3.98619e-05
3.59008e-05
3.23239e-05
2.93994e-05
2.93994e-05
2.64754e-05
2.38335e-05
2.14478e-05
1.92943e-05
1.75635e-05
1.75635e-05
1.57963e-05
1.42017e-05
1.2764e-05
1.14684e-05
1.04282e-05
1.04282e-05
9.36589e-06
8.41003e-06
7.55036e-06
6.77779e-06
6.14948e-06
6.14948e-06
5.5192e-06
4.95373e-06
4.44673e-06
3.99239e-06
3.58541e-06
3.22103e-06
2.91647e-06
2.91647e-06
2.62197e-06
2.35857e-06
2.12247e-06
1.91006e-06
1.71848e-06
1.54606e-06
1.39181e-06
1.25851e-06
1.25851e-06
1.13571e-06
1.02728e-06
9.41739e-07
8.72555e-07
8.06817e-07
7.42916e-07
6.82545e-07
6.20223e-07
5.7494e-07
4.95634e-07
4.95634e-07
5.15148e-07
4.06107e-07
6.04634e-07
6.51226e-07
9.89374e-07
)
;
    }
    procBoundary5to6
    {
        type            processor;
        value           nonuniform List<scalar> 
86
(
25.4101
9.51939
12.1089
12.4544
8.11292
1.85742
0.127697
0.0540434
0
0
0
2.63766e-06
4.03225e-05
8.22311e-05
7.52317e-05
6.0317e-05
5.276e-05
5.12957e-05
5.16488e-05
5.1305e-05
4.98777e-05
4.78597e-05
4.5696e-05
4.35663e-05
4.14911e-05
3.94387e-05
3.73951e-05
3.53615e-05
3.3342e-05
3.13507e-05
2.93979e-05
2.74884e-05
2.56326e-05
2.52866e-05
2.52866e-05
2.34402e-05
2.16674e-05
1.99743e-05
1.83656e-05
1.68441e-05
1.54119e-05
1.40699e-05
1.28179e-05
1.16545e-05
1.05778e-05
9.58488e-06
8.97149e-06
8.97149e-06
8.09526e-06
7.29651e-06
6.57033e-06
5.91176e-06
5.31586e-06
4.77764e-06
4.29245e-06
3.85568e-06
3.52509e-06
3.52509e-06
3.1641e-06
2.84061e-06
2.55099e-06
2.29187e-06
2.05997e-06
1.85199e-06
1.68402e-06
1.68402e-06
1.51281e-06
1.35888e-06
1.22137e-06
1.09838e-06
9.92812e-07
9.0863e-07
8.44588e-07
8.44588e-07
7.80207e-07
7.12739e-07
6.58306e-07
5.82011e-07
5.57624e-07
4.5105e-07
5.17661e-07
4.03094e-07
6.96393e-07
6.96393e-07
7.4704e-07
1.26417e-06
)
;
    }
}


// ************************************************************************* //
