/*--------------------------------*- C++ -*----------------------------------*\
| =========                 |                                                 |
| \\      /  F ield         | OpenFOAM: The Open Source CFD Toolbox           |
|  \\    /   O peration     | Version:  2506                                  |
|   \\  /    A nd           | Website:  www.openfoam.com                      |
|    \\/     M anipulation  |                                                 |
\*---------------------------------------------------------------------------*/
FoamFile
{
    version     2.0;
    format      ascii;
    arch        "LSB;label=32;scalar=64";
    class       volScalarField;
    location    "43";
    object      p;
}
// * * * * * * * * * * * * * * * * * * * * * * * * * * * * * * * * * * * * * //

dimensions      [0 2 -2 0 0 0 0];

internalField   nonuniform List<scalar> 
400
(
-5.98822e-09
-0.000150502
-0.000531756
-0.00106535
-0.00172175
-0.00247744
-0.00316378
-0.00357363
-0.00354065
-0.00291126
-0.0015318
0.00062596
0.0032479
0.00551343
0.00654804
0.00596357
0.00406759
0.0022288
0.00119191
0.0011204
0.000116025
-5.74199e-05
-0.000373782
-0.000758795
-0.00123632
-0.00187586
-0.00268664
-0.00351564
-0.00404613
-0.00390408
-0.00281821
-0.000806869
0.00169875
0.00397077
0.00514845
0.00479104
0.00317714
0.00145814
0.000677541
0.000764387
0.000532243
0.000263639
-7.57619e-05
-0.000555001
-0.00133658
-0.00255844
-0.00418039
-0.00592663
-0.00733083
-0.007867
-0.0071929
-0.00540141
-0.00284278
-0.000151833
0.00183941
0.00249021
0.00178948
0.000591391
-0.000305677
-0.000307358
0.00113972
0.000732615
0.000189196
-0.000767849
-0.00242657
-0.00488641
-0.00791075
-0.0110028
-0.013559
-0.0150188
-0.0150495
-0.0136938
-0.0111658
-0.00791986
-0.00465598
-0.00211878
-0.000779764
-0.000615041
-0.00119623
-0.0018276
0.00155768
0.000955073
-2.84786e-05
-0.00190621
-0.00495186
-0.00907683
-0.013757
-0.0182723
-0.0219679
-0.0243794
-0.0252483
-0.024455
-0.0221222
-0.018536
-0.0141317
-0.00951375
-0.00547562
-0.00285067
-0.00210403
-0.00392011
0.00125924
0.000421554
-0.00119742
-0.0042625
-0.0089029
-0.0147068
-0.0208253
-0.0264003
-0.0308217
-0.033773
-0.0351268
-0.0347834
-0.0328241
-0.0293932
-0.0246279
-0.0187449
-0.0123418
-0.00682817
-0.00430282
-0.00641494
-7.99752e-05
-0.00116461
-0.00348133
-0.00771748
-0.0137704
-0.0208598
-0.0278902
-0.0339786
-0.0386309
-0.041687
-0.0431552
-0.0430567
-0.0414572
-0.0384228
-0.0339273
-0.0278509
-0.0203091
-0.0125415
-0.00773873
-0.00764941
-0.0024659
-0.00373965
-0.00665017
-0.0117871
-0.0188123
-0.026645
-0.0340604
-0.0402369
-0.0448252
-0.0477911
-0.0492251
-0.0492239
-0.0478658
-0.0451955
-0.0411601
-0.035522
-0.0280166
-0.0191523
-0.0116803
-0.00788786
-0.00552596
-0.00688349
-0.0101782
-0.0158463
-0.0233676
-0.0314764
-0.0389179
-0.0449669
-0.0493937
-0.0522407
-0.0536319
-0.0536759
-0.0524475
-0.0500023
-0.0463452
-0.0413114
-0.0344789
-0.0256635
-0.0165203
-0.00987391
-0.00869209
-0.0100231
-0.0134763
-0.019323
-0.0269432
-0.035012
-0.0423063
-0.0481801
-0.0524709
-0.055246
-0.0566249
-0.056697
-0.0555264
-0.0531822
-0.0497402
-0.0451804
-0.0391789
-0.0311813
-0.0220762
-0.0141628
-0.011438
-0.0126702
-0.0160708
-0.0218052
-0.0292298
-0.0370739
-0.0441746
-0.0499166
-0.0541446
-0.0569074
-0.0583009
-0.0583917
-0.0572313
-0.0548949
-0.0515185
-0.0472242
-0.0419375
-0.0350048
-0.0269131
-0.0189524
-0.0134695
-0.0145172
-0.0176946
-0.0230555
-0.030044
-0.0375377
-0.0444536
-0.0501523
-0.0544142
-0.0572354
-0.058673
-0.0587744
-0.0575826
-0.055174
-0.0517366
-0.0475053
-0.0427139
-0.0366799
-0.0297402
-0.0221711
-0.0147539
-0.0154661
-0.018195
-0.0229615
-0.0293245
-0.0363759
-0.0431251
-0.0488693
-0.0532678
-0.0562251
-0.0577452
-0.0578524
-0.0565852
-0.0540421
-0.0504363
-0.0460656
-0.041518
-0.0359678
-0.029966
-0.0226721
-0.0153876
-0.0156308
-0.0176413
-0.0215309
-0.0270663
-0.0335833
-0.0401715
-0.0460347
-0.0506746
-0.0538643
-0.0555315
-0.0556728
-0.0543062
-0.0515592
-0.0476884
-0.0430771
-0.0383732
-0.0328957
-0.0279042
-0.0201226
-0.0155013
-0.0152235
-0.0162347
-0.0189243
-0.0233998
-0.0292692
-0.0356843
-0.041727
-0.0467105
-0.0502403
-0.0521382
-0.0523467
-0.0509072
-0.0479115
-0.0436868
-0.0386705
-0.0335473
-0.0279471
-0.0241378
-0.0143362
-0.0152145
-0.0144942
-0.0141959
-0.0153267
-0.0185195
-0.0236344
-0.0298585
-0.0361257
-0.0415436
-0.045527
-0.0477733
-0.0481556
-0.0466988
-0.0434733
-0.038845
-0.0332756
-0.0275471
-0.0216417
-0.0181184
-0.00391535
-0.0146145
-0.0135817
-0.0116829
-0.0110526
-0.0128849
-0.0172345
-0.0232854
-0.0298098
-0.0357287
-0.0402668
-0.0429908
-0.0436775
-0.0423214
-0.0389562
-0.0339114
-0.0275816
-0.020731
-0.0134436
-0.00702334
0.0158418
-0.0145585
-0.0126426
-0.00866449
-0.0062745
-0.00693288
-0.0107076
-0.0166857
-0.0234995
-0.0299544
-0.0351132
-0.038432
-0.0395656
-0.0384617
-0.0351323
-0.0297235
-0.0222752
-0.013045
-0.000998106
0.0163184
0.0567495
-0.0117933
-0.0118426
-0.00578794
-0.00187523
-0.00185897
-0.00544712
-0.0115291
-0.0186622
-0.0256177
-0.0313449
-0.0352696
-0.0369632
-0.0363299
-0.0330957
-0.0271103
-0.0176022
-0.00338935
0.0201062
0.0602751
0.129471
-0.0295072
-0.0106588
-0.000697392
0.002953
0.00232371
-0.00163256
-0.00798885
-0.0154369
-0.0227537
-0.0288639
-0.0331677
-0.0352133
-0.0348656
-0.0317097
-0.0251136
-0.012908
0.0091986
0.0508168
0.122494
0.225761
)
;

boundaryField
{
    movingWall
    {
        type            zeroGradient;
    }
    fixedWalls
    {
        type            zeroGradient;
    }
    frontAndBack
    {
        type            empty;
    }
}


// ************************************************************************* //
