/*--------------------------------*- C++ -*----------------------------------*\
| =========                 |                                                 |
| \\      /  F ield         | OpenFOAM: The Open Source CFD Toolbox           |
|  \\    /   O peration     | Version:  2506                                  |
|   \\  /    A nd           | Website:  www.openfoam.com                      |
|    \\/     M anipulation  |                                                 |
\*---------------------------------------------------------------------------*/
FoamFile
{
    version     2.0;
    format      ascii;
    arch        "LSB;label=32;scalar=64";
    class       surfaceScalarField;
    location    "149.999038929845";
    object      ddtCorrDdt0(phi);
}
// * * * * * * * * * * * * * * * * * * * * * * * * * * * * * * * * * * * * * //

dimensions      [0 3 -2 0 0 0 0];

oriented        oriented;

internalField   nonuniform List<scalar> 
19160
(
1.96489e-05
0.000190806
4.25816e-05
0.000213339
5.24371e-05
0.000138368
7.32832e-05
0.000251959
0.000112024
0.000153751
6.34425e-05
7.49261e-05
0.000115198
0.000320178
0.000184189
0.000179794
0.000134944
8.22501e-05
7.161e-05
3.31616e-06
0.000174957
0.000418215
0.00027748
0.000226886
0.000220283
9.44558e-05
0.000151992
1.86781e-06
7.1689e-05
-6.83726e-05
0.000259733
0.000557279
0.000401641
0.000294055
0.000329633
0.000117536
0.000247249
-8.00277e-07
0.000152012
-7.84551e-05
6.47768e-05
-0.000133149
0.000379873
0.000749242
0.000569854
0.000389065
0.000473377
0.00015031
0.000368552
-3.76722e-06
0.000246921
-9.57087e-05
0.000137371
-0.000151049
5.10746e-05
-0.000184224
0.000549557
0.00100952
0.000798863
0.000520233
0.000666274
0.000196169
0.000527071
-8.20846e-06
0.00036758
-0.000124427
0.000223178
-0.000181515
0.000108485
-0.000208459
3.1847e-05
-0.00021607
0.000788162
0.00136316
0.00111173
0.000696647
0.000926597
0.00025991
0.000738613
-1.53733e-05
0.000525025
-0.000165652
0.000332488
-0.000233737
0.000176625
-0.000249655
6.79968e-05
-0.000244608
8.60801e-06
-0.000224678
0.00112253
0.00183773
0.00153885
0.000936051
0.00127902
0.000344227
0.00102285
-2.43216e-05
0.000734812
-0.000225161
0.000475479
-0.000308644
0.00026408
-0.000321191
0.000111467
-0.000293125
1.90618e-05
-0.000255062
-1.66993e-05
-0.000207978
0.00157797
0.00246036
0.00212288
0.00125371
0.00175556
0.000459504
0.00140571
-3.86388e-05
0.00101656
-0.000306067
0.000666449
-0.00041613
0.000379378
-0.000423942
0.00016841
-0.000378134
3.27009e-05
-0.000306764
-3.42679e-05
-0.000237493
-4.18698e-05
-0.000166108
0.00222251
0.00321699
0.00290421
0.00167903
0.00240089
0.000608382
0.00192093
-5.57177e-05
0.00139561
-0.000417692
0.00092383
-0.000563447
0.000534527
-0.00057128
0.000244999
-0.00050053
5.26566e-05
-0.00039809
-5.32202e-05
-0.000287811
-8.73822e-05
-0.00019198
-6.46612e-05
-0.000101447
0.00317154
0.00404892
0.00394234
0.00217885
0.00326906
0.000810865
0.00261293
-8.36113e-05
0.00190559
-0.000565692
0.00127109
-0.000764949
0.000745501
-0.000774421
0.000350028
-0.000676309
8.21262e-05
-0.00053
-7.38584e-05
-0.000377451
-0.000138915
-0.000236278
-0.000135569
-0.000121072
-8.29951e-05
-1.8451e-05
0.00480259
0.00558532
0.00530119
0.00269007
0.00440635
0.00104156
0.00353739
-0.000113602
0.00258872
-0.000766749
0.00174046
-0.00103506
0.00103252
-0.00105197
0.000495748
-0.00092014
0.000125856
-0.000720038
-9.64099e-05
-0.000507448
-0.000200369
-0.000315997
-0.0002168
-0.000155047
-0.000174428
-2.96384e-05
-9.49393e-05
7.64888e-05
0.00763994
0.00940089
0.00744913
0.00343738
0.00584789
0.00124853
0.00475022
-0.000171263
0.00350086
-0.00102574
0.00237093
-0.00139722
0.00142473
-0.00142727
0.000697802
-0.00125402
0.000191132
-0.000985416
-0.000120852
-0.000695595
-0.000275598
-0.000432218
-0.000315724
-0.000217073
-0.00027975
-4.97245e-05
-0.000199831
7.52539e-05
-9.93299e-05
0.000175819
0.0110825
0.0172883
0.0113581
0.00549192
0.00787799
0.00140728
0.00627986
-0.000281116
0.00470246
-0.00137286
0.00321696
-0.00187177
0.00195682
-0.00192931
0.000980161
-0.00170963
0.000287611
-0.0013505
-0.000145948
-0.000960321
-0.000369701
-0.000601492
-0.000439716
-0.000308226
-0.000409336
-8.7486e-05
-0.000321047
7.14919e-05
-0.000209257
0.000185182
-9.5536e-05
0.000271356
0.0127974
0.0280997
0.0177059
0.0109406
0.0111841
0.00218583
0.00824097
-0.000553832
0.00623828
-0.00181693
0.00433946
-0.00249537
0.00268076
-0.00259571
0.00137166
-0.00232081
0.000431596
-0.00185361
-0.000169454
-0.00132699
-0.000488208
-0.000841813
-0.000599
-0.000442208
-0.000573632
-0.00014393
-0.000471137
6.26041e-05
-0.000336543
0.000198778
-0.000201323
0.000290969
-8.35007e-05
0.000354857
0.0105173
0.0369371
0.0252196
0.020586
0.0169418
0.00518281
0.0111592
-0.000732382
0.00814769
-0.00246325
0.00581056
-0.00328803
0.00365445
-0.00346906
0.00191918
-0.00314324
0.000643753
-0.00253297
-0.000185342
-0.00183772
-0.00063749
-0.00117771
-0.00080604
-0.000634772
-0.000787483
-0.000228356
-0.000662791
4.77249e-05
-0.000494798
0.00022086
-0.000323941
0.000321397
-0.000175894
0.000383363
-6.42113e-05
0.000419069
0.00414299
0.0394431
0.030721
0.0314356
0.0254358
0.012092
0.0162504
9.16273e-05
0.0106739
-0.00325862
0.00767227
-0.00432496
0.00496761
-0.00460118
0.00267635
-0.00422622
0.000961293
-0.00346077
-0.000184223
-0.00253409
-0.000824007
-0.00165121
-0.00107648
-0.000907272
-0.00106974
-0.000352515
-0.000914376
2.32295e-05
-0.000697841
0.000250768
-0.000476762
0.000373681
-0.000282994
0.000428497
-0.000135081
0.000454233
-3.9144e-05
0.000458214
-0.00539293
0.0350137
0.0312018
0.0389623
0.034708
0.0221634
0.0246689
0.00367354
0.0146428
-0.00387721
0.01003
-0.00561641
0.00669024
-0.00604759
0.00373821
-0.00566305
0.00143075
-0.00469568
-0.000144548
-0.00350045
-0.00105307
-0.00230503
-0.00143053
-0.00129716
-0.00144504
-0.000531969
-0.00124971
-1.71796e-05
-0.000965927
0.000291316
-0.000673415
0.000447422
-0.000416588
0.000507276
-0.000217124
0.000510541
-8.20531e-05
0.000497143
-1.02954e-05
0.00046851
-0.0143094
0.027975
0.0255945
0.040621
0.0412782
0.0323921
0.0359248
0.0109075
0.0214617
-0.00314535
0.0132456
-0.00709279
0.00891194
-0.00783811
0.00519601
-0.00750539
0.00213794
-0.00637024
-3.34609e-05
-0.00480677
-0.00132497
-0.00322854
-0.00189107
-0.00184449
-0.00194714
-0.000795062
-0.00170089
-8.07918e-05
-0.00132567
0.00034256
-0.000934025
0.000551927
-0.000588727
0.000619561
-0.000319366
0.000609518
-0.000131512
0.000560001
-2.10887e-05
0.000507937
1.98768e-05
0.000448634
-0.0203414
0.019762
0.016967
0.0366025
0.0428627
0.0390365
0.0475645
0.0207523
0.0321124
0.00025676
0.0183481
-0.00824783
0.0117569
-0.00993779
0.00716983
-0.00981193
0.00317372
-0.00854116
0.000208166
-0.00661186
-0.0016309
-0.00450084
-0.00248528
-0.00263433
-0.00261765
-0.00117397
-0.00231295
-0.000183002
-0.00181373
0.00040727
-0.00128524
0.000693779
-0.000817236
0.000780437
-0.000451042
0.000751238
-0.000192891
0.000670898
-3.31574e-05
0.00057207
4.25707e-05
0.000485244
4.89057e-05
0.000399729
-0.0262057
0.0145518
0.00827435
0.0284546
0.0394309
0.0400343
0.0562896
0.0303114
0.0458664
0.00699831
0.0267477
-0.00814284
0.0157851
-0.012276
0.009798
-0.012566
0.0046928
-0.011331
0.000643468
-0.00897647
-0.00196019
-0.00628258
-0.00324024
-0.00374587
-0.00351289
-0.00173909
-0.00314466
-0.000342259
-0.00248216
0.00048543
-0.00176434
0.000886368
-0.00112584
0.00100239
-0.000625741
0.000955136
-0.000271669
0.000830017
-4.77086e-05
0.000685449
6.9388e-05
0.000545253
0.00010368
0.00043047
7.44678e-05
0.000325262
-0.0344288
0.0119271
0.00377193
0.0190542
0.0321782
0.0357073
0.059973
0.0363509
0.0602691
0.0159088
0.0392201
-0.00547405
0.0220245
-0.0143822
0.0134302
-0.0159082
0.00698709
-0.0148602
0.00146837
-0.0121559
-0.00230074
-0.00863591
-0.0042168
-0.00530602
-0.00470497
-0.00255379
-0.00427957
-0.000604184
-0.00340179
0.000577372
-0.00242439
0.00114548
-0.00154792
0.00130845
-0.000861626
0.00123827
-0.000375735
0.0010592
-6.59327e-05
0.000848242
0.000103351
0.000651488
0.000167595
0.000481339
0.000157325
0.000347613
9.44011e-05
0.000230862
-0.0433433
0.00933654
0.00243295
0.0132661
0.0221935
0.0290389
0.0588376
0.0368427
0.0719864
0.0246335
0.055142
-1.31574e-05
0.0316004
-0.0150499
0.0185566
-0.0195086
0.010466
-0.0193871
0.00314509
-0.016537
-0.00240986
-0.0120468
-0.00546123
-0.00739148
-0.0063372
-0.0036738
-0.00583687
-0.000996488
-0.00467623
0.000670254
-0.00333983
0.00149281
-0.00213091
0.00172847
-0.0011841
0.00163092
-0.000515732
0.00137827
-8.92376e-05
0.00108251
0.000147609
0.000803985
0.000247557
0.000571526
0.000253518
0.000385147
0.000198959
0.000243057
0.000107266
0.000123597
-0.0491764
0.00417036
0.000160093
0.0116094
0.0137386
0.021721
0.0550117
0.0328648
0.0785842
0.0302449
0.0720326
0.00774293
0.0450261
-0.0134389
0.0257356
-0.0222289
0.0152547
-0.0242973
0.00620852
-0.0224505
-0.00171015
-0.0172367
-0.00671037
-0.0107977
-0.00851171
-0.00521696
-0.00802977
-0.00148089
-0.00646084
0.000788126
-0.00462125
0.00195167
-0.00294264
0.00230454
-0.0016291
0.00217347
-0.000706071
0.00182126
-0.000119743
0.00140877
0.000207233
0.00102288
0.000350665
0.000700878
0.000373156
0.00045189
0.000319867
0.000264239
0.000225586
0.000124737
0.000112132
1.14658e-05
-0.054686
0.00271037
-0.00262626
0.00695671
0.0109653
0.0143827
0.0496952
0.0270374
0.0810546
0.0303944
0.0863641
0.0159135
0.0616184
-0.00884939
0.0354262
-0.0231294
0.0211075
-0.0280818
0.010501
-0.0285897
0.000286669
-0.0244474
-0.00739491
-0.0165521
-0.0110263
-0.00828304
-0.011006
-0.00224074
-0.009005
0.00106326
-0.00643332
0.0026002
-0.00408447
0.00309351
-0.00224838
0.00292383
-0.000967015
0.00243442
-0.000159374
0.00186089
0.000288548
0.00132746
0.000487762
0.000885788
0.000526543
0.000547491
0.000469487
0.00030227
0.000361901
0.000127925
0.000235304
1.56582e-06
0.00010851
-9.70438e-05
-0.0593382
0.0021116
-0.0058701
0.00595421
0.0106049
0.00731713
0.0433959
0.0206821
0.0817884
0.0263036
0.0960654
0.020693
0.0798307
-0.00229883
0.0482585
-0.0216818
0.0279312
-0.0299531
0.0152293
-0.0328101
0.00310207
-0.0314051
-0.00736653
-0.0244757
-0.0134608
-0.0141177
-0.0146809
-0.00460813
-0.0125453
0.0012996
-0.00900937
0.00363931
-0.00569883
0.00421455
-0.00311944
0.00396456
-0.0013271
0.00328391
-0.000210868
0.00248591
0.000401843
0.0017476
0.000672588
0.00114263
0.000729053
0.000683278
0.000660341
0.000356638
0.000529753
0.000134419
0.000376666
-1.34364e-05
0.000227155
-0.000117077
9.69129e-05
-0.000193956
-0.0632013
0.00186456
-0.00879246
0.00503396
0.0105477
0.00601135
0.0396299
0.0110831
0.0814845
0.020986
0.101732
0.0206366
0.0952939
0.00522978
0.0636383
-0.0176786
0.0361214
-0.029872
0.0200994
-0.0348232
0.00579956
-0.0355076
-0.00733813
-0.0314335
-0.016239
-0.0216975
-0.0192143
-0.00958432
-0.0173596
0.000206144
-0.0126603
0.00495053
-0.0079559
0.00589639
-0.00434007
0.00543519
-0.00182931
0.00446678
-0.000276042
0.00334908
0.000561149
0.0023266
0.000925844
0.00149434
0.00100015
0.000871535
0.000910745
0.000432874
0.000742799
0.000143594
0.000549837
-3.87513e-05
0.000362733
-0.000149014
0.000202282
-0.000222445
7.82243e-05
-0.000272179
-0.0657551
0.00212829
-0.0112215
0.00429363
0.0105903
0.00499141
0.0377879
0.00785332
0.080296
0.0122716
0.104498
0.0182204
0.106582
0.00934809
0.0801692
-0.0113011
0.0461135
-0.0276706
0.0250611
-0.0348336
0.00837811
-0.0374018
-0.00787016
-0.0349756
-0.0200071
-0.0276655
-0.0251784
-0.0157334
-0.0238907
-0.00305319
-0.0179992
0.00554505
-0.0111877
0.00818229
-0.00599366
0.00754997
-0.00251718
0.00612306
-0.000358527
0.00454927
0.000790274
0.00311996
0.00127543
0.00197702
0.00136812
0.00112637
0.00124384
0.000538438
0.00102064
0.000155036
0.000768522
-7.50915e-05
0.000527871
-0.000203889
0.000322029
-0.00026876
0.000162614
-0.000306835
5.39408e-05
-0.000326119
-0.0665433
0.00252572
-0.0123069
0.00321363
0.0109786
0.00390535
0.0378595
0.00491985
0.0795551
0.00859424
0.104034
0.0127357
0.114035
0.0107676
0.0947406
-0.00522331
0.0583202
-0.0235079
0.0304746
-0.0330842
0.0108998
-0.0373553
-0.00847796
-0.036794
-0.0244034
-0.0305792
-0.0326461
-0.0201978
-0.0328351
-0.00678899
-0.0259298
0.00487739
-0.0162457
0.0106031
-0.0083573
0.0105459
-0.00338637
0.00841915
-0.000447381
0.00621191
0.00112251
0.00421703
0.00176564
0.00262974
0.0018706
0.00147455
0.00169217
0.000678049
0.00138803
0.000171045
0.00105203
-0.000128471
0.000735286
-0.000282506
0.000466858
-0.000348718
0.000257707
-0.000363852
0.00011135
-0.000364243
2.58981e-05
-0.000352017
-0.0657827
0.00185318
-0.0116274
0.00184627
0.0118397
0.00235252
0.0396109
0.00215394
0.0792201
0.00525481
0.103246
0.00938218
0.115716
0.0110555
0.106406
-0.000897452
0.0711995
-0.0181026
0.036925
-0.0299582
0.0134667
-0.035651
-0.00876146
-0.0370718
-0.0286032
-0.0325942
-0.0407139
-0.0225114
-0.0428949
-0.0101381
-0.0366643
0.00394557
-0.024086
0.0127177
-0.012332
0.0145778
-0.00456581
0.0117254
-0.000465805
0.00843758
0.00161672
0.0057177
0.00245781
0.00352487
0.00256496
0.00193538
0.00229872
0.000867989
0.00187862
0.000187461
0.00142485
-0.00020177
0.00100257
-0.000395758
0.000647593
-0.000463241
0.000371528
-0.000462538
0.000174921
-0.000427422
5.23639e-05
-0.000390708
-3.57907e-06
-0.000348437
-0.0629699
0.000148701
-0.00967158
-0.000102661
0.0132442
0.000441769
0.0423232
-0.000359855
0.0791041
0.00227001
0.102553
0.00594772
0.115817
0.00928119
0.111854
0.00560691
0.0830991
-0.0127971
0.0445016
-0.0256792
0.0160442
-0.0325357
-0.00862842
-0.0357841
-0.0322082
-0.0334668
-0.0481862
-0.0251219
-0.0530177
-0.0123886
-0.048827
0.00202464
-0.0343115
0.014171
-0.0188478
0.0192335
-0.00677551
0.0167875
-0.000328694
0.0115883
0.00239155
0.00766275
0.00344811
0.00472739
0.00352848
0.00256135
0.003126
0.00110811
0.00253695
0.000209659
0.00191907
-0.000306759
0.00135225
-0.000551445
0.00087896
-0.000627124
0.00051223
-0.000603941
0.000249457
-0.000537073
7.99005e-05
-0.000454958
-9.52062e-06
-0.000384766
-3.21557e-05
-0.000316281
-0.0572195
-0.00219367
-0.00777957
-0.0017433
0.015088
-0.00194645
0.0454084
-0.00264338
0.079108
-0.00036378
0.101886
0.00293738
0.115303
0.00646162
0.11481
0.00632553
0.0908202
-0.00211418
0.0524444
-0.0207399
0.0189348
-0.0285699
-0.00829567
-0.0328685
-0.0350755
-0.0329168
-0.0551299
-0.0265231
-0.0630686
-0.0150709
-0.058958
-0.00225769
-0.0463743
0.0140875
-0.0275865
0.0229097
-0.0110899
0.0235479
-0.000333559
0.0167924
0.00371536
0.0102645
0.00486374
0.00624712
0.00488106
0.00337482
0.00425601
0.00143134
0.00342393
0.000221134
0.00257775
-0.000449023
0.00181281
-0.000767318
0.0011801
-0.000852583
0.000690737
-0.000805631
0.000339826
-0.00069431
0.000109754
-0.000566926
-1.96178e-05
-0.00044486
-6.95193e-05
-0.000347402
-5.74366e-05
-0.000258843
-0.0494458
-0.00469014
-0.00632024
-0.003653
0.0175006
-0.0041559
0.0483056
-0.00484364
0.079283
-0.00281832
0.101451
7.1113e-05
0.114668
0.00357163
0.115703
0.00556836
0.0969946
0.00015114
0.059082
-0.00875185
0.0218386
-0.0236436
-0.00768813
-0.0291774
-0.0369869
-0.0309571
-0.061353
-0.0266937
-0.0730783
-0.0165135
-0.0709555
-0.00307343
-0.059165
0.0105331
-0.0380863
0.0245873
-0.0179225
0.0297423
-0.00151767
0.024732
0.00582081
0.0146869
0.00704213
0.00808606
0.00674044
0.00438773
0.0058152
0.00181563
0.00461903
0.000236231
0.00345558
-0.000656694
0.00242341
-0.00105962
0.00157449
-0.00116171
0.000921629
-0.00108347
0.000452445
-0.000918249
0.000143087
-0.000727642
-3.63132e-05
-0.00055023
-0.00011595
-0.000398429
-0.000122695
-0.000282142
-7.74244e-05
-0.000181419
-0.0387187
-0.0106124
-0.00495165
-0.00605874
0.0206957
-0.0068481
0.0510721
-0.00692243
0.0796382
-0.00519891
0.101193
-0.00256033
0.114017
0.00072256
0.115756
0.00351916
0.101016
0.00154672
0.0654337
-0.00620056
0.0252275
-0.0121408
-0.0072862
-0.0240455
-0.0379538
-0.0282105
-0.0660541
-0.026256
-0.0824119
-0.0173601
-0.0832846
-0.00418434
-0.0719796
0.00974109
-0.0519753
0.0244221
-0.0267952
0.03346
-0.00492281
0.0331474
0.00813293
0.0224199
0.0106152
0.0111139
0.00940179
0.00542472
0.00791169
0.00229124
0.00623744
0.000197224
0.00462627
-0.000934465
0.00322997
-0.00146325
0.00209545
-0.00158059
0.00122233
-0.00146241
0.000596355
-0.00122738
0.00018131
-0.000956472
-6.23172e-05
-0.000701638
-0.000177531
-0.000488648
-0.000201159
-0.000319965
-0.000164816
-0.00019475
-9.05468e-05
-9.08711e-05
-0.0303204
-0.0153354
-0.00101462
-0.0145494
0.024188
-0.00955104
0.0532091
-0.00898512
0.0803128
-0.00759703
0.101142
-0.00514828
0.113515
-0.0020584
0.115246
0.00123255
0.102924
0.00161164
0.0709431
-0.00396266
0.0285156
-0.0094886
-0.00542116
-0.0140059
-0.0389669
-0.0230324
-0.0697133
-0.0245513
-0.0902106
-0.0184572
-0.0947352
-0.00590945
-0.084369
0.00820508
-0.0642724
0.0220381
-0.0367686
0.0343954
-0.010484
0.0390212
0.00923028
0.0320501
0.0157922
0.0172429
0.0135825
0.00693321
0.010752
0.00258436
0.00838546
0.000143227
0.00618135
-0.00135786
0.00429899
-0.00200349
0.00277937
-0.00214717
0.00161864
-0.0019769
0.000782075
-0.00164813
0.000227168
-0.00127324
-0.000101452
-0.000917337
-0.000260727
-0.000618442
-0.000302253
-0.000387553
-0.000268443
-0.000216338
-0.000192403
-9.28941e-05
-9.58571e-05
4.98632e-06
-0.0224503
-0.0211889
0.0049307
-0.0212807
0.0281705
-0.0185319
0.0550322
-0.0113742
0.0812817
-0.00995395
0.101199
-0.0076539
0.112845
-0.00447819
0.114365
-0.00117784
0.103303
0.000853715
0.0747693
-0.00221452
0.0311351
-0.00658221
-0.0038909
-0.0110189
-0.0373133
-0.0156594
-0.0731145
-0.0196313
-0.0977431
-0.0170187
-0.105561
-0.00763111
-0.0963879
0.0061095
-0.0755413
0.019474
-0.0471667
0.0324362
-0.0172603
0.0411717
0.00800799
0.0402435
0.0212796
0.0265627
0.0202918
0.0105335
0.0148405
0.00284476
0.0111908
-0.000221008
0.00823041
-0.00190583
0.0056959
-0.00275477
0.0036836
-0.00290772
0.00213768
-0.0026662
0.00102639
-0.00222121
0.000283488
-0.00170445
-0.000157727
-0.00121696
-0.000374517
-0.000803547
-0.000435749
-0.000484946
-0.000400456
-0.000255539
-0.000312196
-9.65442e-05
-0.000203299
1.45482e-05
-9.28288e-05
9.78155e-05
-0.0151343
-0.0265084
0.0100525
-0.0263108
0.0309562
-0.0240665
0.0560574
-0.019557
0.0819127
-0.0120052
0.101323
-0.0100784
0.111845
-0.00665352
0.113084
-0.00319731
0.102514
-0.000389588
0.0768023
-0.00117935
0.0323241
-0.00340351
-0.0024492
-0.0080239
-0.0357094
-0.0126228
-0.0722339
-0.01654
-0.103726
-0.0136483
-0.116433
-0.00614721
-0.108978
0.00495864
-0.0871922
0.0177604
-0.0575605
0.0298678
-0.0251646
0.0403406
0.00452317
0.0446566
0.0251384
0.0363847
0.0290285
0.017826
0.02158
0.00379403
0.0148704
-0.000834802
0.0108369
-0.0028275
0.00753452
-0.00374444
0.00485327
-0.00392444
0.00282505
-0.00359508
0.00134701
-0.00298682
0.000356595
-0.00229432
-0.000236602
-0.00162557
-0.000529754
-0.00106173
-0.000615314
-0.000623981
-0.000573194
-0.000312208
-0.000463805
-0.000103929
-0.000328941
2.90985e-05
-0.000196357
0.000118077
-8.19062e-05
0.000179722
-0.00915271
-0.0306462
0.0137145
-0.0301704
0.0325022
-0.0278568
0.0560956
-0.0241047
0.08014
-0.0177843
0.101054
-0.0117354
0.110287
-0.00852129
0.111022
-0.00459163
0.100782
-0.00146512
0.0766753
-0.000262503
0.0316252
-0.00048039
-0.00101601
-0.00483671
-0.0339597
-0.00977358
-0.0713988
-0.0134579
-0.103192
-0.0170741
-0.123115
-0.00696648
-0.119394
0.00426938
-0.0986902
0.0164566
-0.067625
0.0278249
-0.0332776
0.0379808
-0.000343397
0.0452071
0.0264583
0.0433367
0.0379302
0.027483
0.0315016
0.00790444
0.0205803
-0.00191588
0.0141011
-0.00409903
0.00984397
-0.00513696
0.00639064
-0.00528182
0.00371672
-0.00481611
0.00177506
-0.00402313
0.000453643
-0.00308387
-0.000343271
-0.00218765
-0.000740464
-0.00141486
-0.000858185
-0.000818855
-0.000804133
-0.000393041
-0.000661148
-0.000114865
-0.000487101
5.4231e-05
-0.000316837
0.000149578
-0.000172607
0.000208778
-6.40434e-05
0.000243766
-0.00498878
-0.0333742
0.0157073
-0.0326391
0.0328733
-0.0305414
0.0549447
-0.0267059
0.0766287
-0.0205935
0.0966542
-0.0133848
0.108341
-0.00978939
0.107788
-0.00528695
0.0978523
-0.00166175
0.0744013
0.0008088
0.0294147
0.00194797
-0.000103581
-0.00139282
-0.0320699
-0.00672651
-0.0710927
-0.0100797
-0.102437
-0.0142129
-0.123931
-0.0162583
-0.126166
-0.000194482
-0.107523
0.0131022
-0.0766819
0.0255136
-0.0405847
0.035132
-0.0055108
0.0431482
0.0256003
0.0460651
0.0450711
0.0361957
0.0438364
0.0151482
0.0295419
-0.00105719
0.0184717
-0.00628639
0.0127047
-0.00695972
0.00829513
-0.00704145
0.00488989
-0.00645498
0.0023409
-0.00538195
0.000589218
-0.0041587
-0.000483665
-0.00294347
-0.00102426
-0.00190386
-0.00118658
-0.00108646
-0.00111578
-0.000507211
-0.000924175
-0.000130014
-0.000692111
9.01458e-05
-0.000467604
0.000204999
-0.000277579
0.00025455
-0.000134206
0.000278941
-4.07344e-05
0.0002845
-0.00212534
-0.0332578
0.0157826
-0.0334495
0.0319103
-0.0316762
0.0520786
-0.0276753
0.0722835
-0.0223606
0.0901865
-0.0141259
0.102607
-0.00765043
0.103403
-0.00540408
0.0934616
-0.000896222
0.0702955
0.00244408
0.0261794
0.00404413
-0.000269244
0.00211363
-0.0299811
-0.00348161
-0.0715364
-0.00628277
-0.102191
-0.0103261
-0.124894
-0.0132498
-0.130534
-0.0118908
-0.116642
0.00892493
-0.0853587
0.021779
-0.0468884
0.0318173
-0.0101016
0.0397227
0.0235496
0.0451989
0.0494932
0.041643
0.0564267
0.0236053
0.0424585
0.00223163
0.0253474
-0.00793291
0.0160055
-0.00958719
0.0107391
-0.00940364
0.00637841
-0.00852997
0.00309821
-0.00721229
0.000783806
-0.00557654
-0.000660952
-0.00398142
-0.00140199
-0.00256574
-0.00163062
-0.00145982
-0.00153738
-0.000664865
-0.0012789
-0.000152486
-0.000964653
0.000142527
-0.000662127
0.000284669
-0.000407893
0.000335312
-0.000214713
0.000335057
-8.44422e-05
0.000322649
-1.4142e-05
0.000298642
4.43661e-05
-0.0309955
0.0145954
-0.0320706
0.0293682
-0.0309074
0.0478185
-0.0274161
0.0661958
-0.0215877
0.0826993
-0.0148735
0.0945171
-0.00603588
0.0964448
-0.000692538
0.0876239
0.000433582
0.0652127
0.00418658
0.0230563
0.00556712
-0.00100509
0.00477998
-0.0281508
0.000283272
-0.0725434
-0.00247466
-0.102454
-0.0060194
-0.1256
-0.00961951
-0.133898
-0.00988587
-0.12381
-0.00472301
-0.0951241
0.0186903
-0.0529828
0.0278733
-0.0136491
0.0353649
0.0212387
0.0420336
0.0516005
0.0430915
0.0670233
0.0310464
0.0580509
0.008013
0.0361011
-0.00852208
0.0209057
-0.0128332
0.0134291
-0.0122772
0.00829125
-0.0113165
0.00410675
-0.00953851
0.00107035
-0.00749884
-0.000873728
-0.00536376
-0.00189765
-0.00348575
-0.00222786
-0.0019685
-0.00210943
-0.000887768
-0.00175982
-0.000183944
-0.00133189
0.000214748
-0.000919825
0.000400226
-0.000574918
0.000451695
-0.000313356
0.000433955
-0.00013364
0.000384255
-2.79592e-05
0.000336466
1.34541e-05
0.000285187
0.00175795
-0.0261302
0.0126325
-0.0290326
0.0256184
-0.0283208
0.042279
-0.0253679
0.0587823
-0.0200025
0.0739521
-0.0128404
0.0845474
-0.00490369
0.0877864
0.00262246
0.0787821
0.00814928
0.0595174
0.00612892
0.0203387
0.00690422
-0.00242937
0.0069914
-0.0278726
0.00450183
-0.0735104
0.00125035
-0.103202
-0.00172648
-0.12602
-0.00559957
-0.136115
-0.00740198
-0.128643
-0.00505318
-0.102394
0.00254643
-0.0591012
0.0248087
-0.0159071
0.0301313
0.0191864
0.0374172
0.0521875
0.0414467
0.0748597
0.0352552
0.0739512
0.0151461
0.0508527
-0.00673857
0.0283395
-0.0159558
0.0169594
-0.0163635
0.0106012
-0.0145871
0.00544687
-0.0126566
0.00151378
-0.00998194
-0.00111234
-0.00726022
-0.00253622
-0.0047252
-0.00302338
-0.00269023
-0.00288043
-0.0011975
-0.00241593
-0.000231654
-0.00183048
0.000314649
-0.00126632
0.000561245
-0.000794883
0.000620191
-0.000438335
0.000576674
-0.000192192
0.000492507
-4.19602e-05
0.000398256
3.04047e-05
0.000319515
3.9733e-05
0.000245454
0.00281133
-0.0184032
0.0107041
-0.0242019
0.0206326
-0.0240468
0.0357057
-0.0217475
0.0504776
-0.0170632
0.0638972
-0.0099476
0.0742482
-0.00254124
0.0771695
0.00571326
0.0698947
0.0115098
0.0515976
0.0160691
0.0179568
0.00851078
-0.00476172
0.00923657
-0.029881
0.00899974
-0.0741646
0.00515595
-0.104343
0.00239107
-0.126382
-0.00136461
-0.137197
-0.00451784
-0.131547
-0.00449832
-0.107917
0.000470729
-0.0657511
0.0091963
-0.014813
0.0237146
0.0170195
0.0322981
0.0519609
0.0376438
0.0800745
0.0362318
0.0881207
0.0210857
0.0686309
-0.00263211
0.0393046
-0.0177036
0.0217383
-0.0207347
0.0133384
-0.0191008
0.00729473
-0.016435
0.00220025
-0.0133431
-0.00132631
-0.00976797
-0.00334145
-0.00645499
-0.00407616
-0.00367241
-0.00393589
-0.00163478
-0.00331189
-0.000301547
-0.0025126
0.000450461
-0.00173667
0.000784996
-0.00108929
0.000855654
-0.00060106
0.000782916
-0.000264361
0.000648843
-5.5856e-05
0.000506402
5.24212e-05
0.000376239
8.57713e-05
0.000273476
6.24707e-05
0.000182983
0.0028579
-0.0115679
0.00921093
-0.01691
0.0160244
-0.0195936
0.02828
-0.0166212
0.0417425
-0.0130125
0.0532147
-0.00638069
0.06351
0.000790545
0.0662079
0.00842034
0.0603988
0.0152092
0.0439451
0.0191623
0.0170673
0.0169586
-0.00805634
0.0118054
-0.033736
0.0130916
-0.0747234
0.00955858
-0.105505
0.00631852
-0.126876
0.00288506
-0.137629
-0.000932229
-0.133118
-0.00294651
-0.111655
-0.000761183
-0.0715437
0.00626329
-0.0172566
0.0116399
0.014407
0.0263271
0.0505791
0.03368
0.0836235
0.0340949
0.0996216
0.0247309
0.0870946
0.00262198
0.0544652
-0.0177928
0.0286566
-0.0246219
0.016695
-0.0240913
0.00952453
-0.0213306
0.00332622
-0.0175609
-0.00144342
-0.013226
-0.00429916
-0.00881026
-0.00545379
-0.00507736
-0.00535243
-0.00225587
-0.00453672
-0.000409946
-0.00344826
0.000634115
-0.00238053
0.00109432
-0.00148771
0.00118341
-0.000816728
0.00107132
-0.000355623
0.000874178
-6.96276e-05
0.000662615
8.37828e-05
0.00047504
0.00014157
0.00032044
0.000133485
0.000202461
7.99549e-05
0.000103027
0.00235513
-0.00739376
0.00750788
-0.00986488
0.012374
-0.0132597
0.0213022
-0.0126158
0.033494
-0.0083726
0.0442475
-0.00404522
0.0523017
0.0048277
0.055207
0.0117914
0.0502111
0.018608
0.03642
0.0227343
0.0139652
0.0222645
-0.0117144
0.0206167
-0.0386772
0.0167466
-0.0756744
0.0140426
-0.106268
0.0103212
-0.127409
0.00685181
-0.137411
0.00266654
-0.133324
-0.000726186
-0.11326
-0.001341
-0.0761522
0.00384733
-0.0199962
0.00900295
0.00931695
0.01673
0.0482789
0.0286274
0.0860164
0.031287
0.108417
0.0252996
0.104658
0.007168
0.0726758
-0.0155886
0.0388323
-0.0279685
0.0211334
-0.0290603
0.0122451
-0.0268118
0.0048848
-0.0228891
-0.00134505
-0.0176593
-0.00541172
-0.0121134
-0.00720747
-0.00705659
-0.00725309
-0.0031767
-0.00621104
-0.000581547
-0.00473909
0.00088089
-0.00326638
0.00151996
-0.00203179
0.00163841
-0.00110602
0.0014727
-0.000473372
0.00118907
-8.24038e-05
0.000886954
0.000128682
0.000617715
0.000214902
0.000401707
0.000217956
0.000235969
0.00016997
0.000112445
9.09826e-05
1.20434e-05
0.00176221
-0.00514192
0.00566228
-0.00554816
0.0094381
-0.00692895
0.0154188
-0.00737629
0.0243428
-0.00346467
0.0341055
0.00176938
0.0403121
0.00794434
0.0443672
0.0156675
0.0395392
0.0224634
0.0280926
0.0269354
0.00877097
0.0279285
-0.0158465
0.0263966
-0.0428628
0.0248023
-0.0774504
0.0185226
-0.107096
0.0148703
-0.127687
0.0105994
-0.137022
0.00646334
-0.132456
0.00179854
-0.112969
-0.00101774
-0.0787142
0.001221
-0.0226916
0.00654268
0.00554254
0.0127773
0.0421815
0.0228273
0.0875916
0.0270522
0.115864
0.0238404
0.119145
0.0108119
0.0924512
-0.0126074
0.0526109
-0.0293672
0.0272088
-0.0340439
0.0157386
-0.0325539
0.00704394
-0.028971
-0.000919042
-0.0233152
-0.00667228
-0.0163988
-0.00948031
-0.00984055
-0.00978668
-0.004523
-0.008504
-0.000883732
-0.00652303
0.00120239
-0.00449359
0.0021081
-0.00277993
0.00226811
-0.00149793
0.00203031
-0.000627101
0.00162643
-9.32258e-05
0.00119989
0.00019406
0.000821575
0.00031361
0.000519006
0.00032638
0.000293282
0.000275859
0.000130079
0.000192681
1.07462e-05
9.47752e-05
-8.27328e-05
0.00131426
-0.00373738
0.00411538
-0.00359502
0.00695298
-0.00306303
0.0110909
-0.00260106
0.0166993
0.000267238
0.0238557
0.00678505
0.0287627
0.0133188
0.030943
0.0213686
0.0285311
0.0266755
0.0189908
0.0315652
0.00234509
0.0333613
-0.0201264
0.0322084
-0.0464346
0.0299684
-0.0770212
0.0243731
-0.108235
0.0196621
-0.128126
0.0153091
-0.136447
0.0100243
-0.130599
0.00460612
-0.110958
-0.000212371
-0.0783208
-0.00141114
-0.0255769
0.00410636
0.00300046
0.00908477
0.0368141
0.0181448
0.0842686
0.0261503
0.120645
0.0222706
0.132251
0.0107342
0.111372
-0.00810894
0.0691163
-0.0291127
0.0356106
-0.0377691
0.0199528
-0.0382581
0.0100613
-0.0355712
0.00020391
-0.0300939
-0.0078887
-0.0220987
-0.0123739
-0.0135051
-0.0132788
-0.00634841
-0.0116789
-0.00134814
-0.00900334
0.00159658
-0.00620112
0.00290992
-0.00381588
0.00314405
-0.00203286
0.00280304
-0.000829966
0.00223318
-9.96179e-05
0.00163282
0.000288819
0.00110513
0.00044982
0.000685364
0.000469384
0.000376002
0.000409896
0.000159245
0.000311269
1.149e-05
0.000199919
-9.43984e-05
9.14369e-05
-0.000174171
0.000974229
-0.00267175
0.00299502
-0.00261702
0.00501498
-0.00165702
0.00797652
5.13901e-05
0.0114481
0.00265009
0.0157358
0.00838717
0.019397
0.0161508
0.0203962
0.0238656
0.0185776
0.0313221
0.00972657
0.0359397
-0.00455461
0.0384649
-0.0247784
0.0380132
-0.0491447
0.0349184
-0.0766339
0.0295811
-0.105102
0.0212398
-0.127625
0.0191611
-0.134533
0.0133948
-0.127569
0.00699504
-0.106717
0.000365663
-0.075063
-0.00347017
-0.0281869
0.0011988
0.00153364
0.00557318
0.0329394
0.0129595
0.0818971
0.0205163
0.118523
0.0282728
0.142183
0.0123389
0.128186
-0.00607973
0.0875627
-0.0265554
0.0461154
-0.0396175
0.0249285
-0.0427448
0.0135488
-0.0417456
0.00219645
-0.0375638
-0.00850632
-0.0294763
-0.0155849
-0.0188878
-0.0179007
-0.00888321
-0.0162153
-0.00181198
-0.0125233
0.00217184
-0.00859894
0.00399441
-0.00526088
0.00435492
-0.00276803
0.00387921
-0.00109908
0.00307216
-9.79621e-05
0.00223152
0.00042664
0.001495
0.000639144
0.000915809
0.000662929
0.000491818
0.000584444
0.000201452
0.000459725
1.07882e-05
0.000321578
-0.000110171
0.000191861
-0.000194824
8.14266e-05
-0.000255599
0.000710236
-0.0018745
0.00218545
-0.00186219
0.00361293
-0.00121498
0.00571373
0.000605773
0.00805122
0.00344832
0.0103764
0.00800948
0.012349
0.0154352
0.012542
0.024005
0.0099852
0.032458
0.00236772
0.0386809
-0.0107683
0.0421534
-0.0288206
0.0425072
-0.0508635
0.039732
-0.0753426
0.0336272
-0.0999715
0.0244506
-0.120134
0.0137483
-0.129217
0.0138455
-0.120733