/*--------------------------------*- C++ -*----------------------------------*\
| =========                 |                                                 |
| \\      /  F ield         | OpenFOAM: The Open Source CFD Toolbox           |
|  \\    /   O peration     | Version:  2506                                  |
|   \\  /    A nd           | Website:  www.openfoam.com                      |
|    \\/     M anipulation  |                                                 |
\*---------------------------------------------------------------------------*/
FoamFile
{
    version     2.0;
    format      ascii;
    arch        "LSB;label=32;scalar=64";
    class       surfaceScalarField;
    location    "149.999038929845";
    object      phi;
}
// * * * * * * * * * * * * * * * * * * * * * * * * * * * * * * * * * * * * * //

dimensions      [0 3 -1 0 0 0 0];

oriented        oriented;

internalField   nonuniform List<scalar> 
19160
(
-0.000538371
-0.230741
-0.00108843
-0.23072
-0.000522967
-0.230218
-0.00165056
-0.230712
-0.00105425
-0.230189
-0.000506446
-0.229712
-0.00224114
-0.230668
-0.00159567
-0.230171
-0.00101855
-0.229677
-0.000484738
-0.229227
-0.00286676
-0.230628
-0.00215833
-0.230105
-0.00153913
-0.22965
-0.000972782
-0.229189
-0.000460743
-0.228766
-0.00354523
-0.230551
-0.00274833
-0.230038
-0.00207486
-0.22957
-0.00146591
-0.229157
-0.000922504
-0.228727
-0.000436111
-0.22833
-0.00429285
-0.230427
-0.00337776
-0.229921
-0.0026314
-0.229482
-0.00196783
-0.229068
-0.0013858
-0.228694
-0.000871085
-0.228292
-0.000411987
-0.227918
-0.00513537
-0.230273
-0.004059
-0.229746
-0.00321647
-0.229336
-0.00248167
-0.228968
-0.0018514
-0.228602
-0.0013041
-0.228261
-0.000820959
-0.227883
-0.00039054
-0.227527
-0.0061046
-0.230026
-0.00480939
-0.229523
-0.00383928
-0.229123
-0.00301114
-0.228807
-0.00231979
-0.2285
-0.00173319
-0.228173
-0.00122489
-0.227857
-0.000776588
-0.227497
-0.000372953
-0.227154
-0.00724555
-0.2297
-0.00565082
-0.229184
-0.00451111
-0.228851
-0.00356066
-0.228573
-0.00279073
-0.228336
-0.00215622
-0.228077
-0.00161941
-0.227778
-0.00115516
-0.227478
-0.000740452
-0.227129
-0.000359463
-0.226795
-0.00861477
-0.229222
-0.00661205
-0.228739
-0.00524667
-0.228449
-0.00413484
-0.228277
-0.00326377
-0.2281
-0.00256918
-0.227923
-0.00200003
-0.227696
-0.00151999
-0.227414
-0.0010989
-0.22712
-0.000713111
-0.226776
-0.000351012
-0.226444
-0.0102628
-0.228508
-0.00773065
-0.228104
-0.00606316
-0.227922
-0.00473979
-0.227844
-0.00373708
-0.227803
-0.00296693
-0.227703
-0.00235949
-0.227563
-0.0018647
-0.227351
-0.00144074
-0.227072
-0.00105711
-0.226776
-0.000696464
-0.22643
-0.00034726
-0.226097
-0.0122514
-0.227434
-0.00903344
-0.227205
-0.00698306
-0.227184
-0.00538099
-0.227281
-0.0042083
-0.227373
-0.00334151
-0.227429
-0.0026884
-0.227374
-0.00217944
-0.227249
-0.00175835
-0.227034
-0.0013834
-0.226745
-0.00103271
-0.22644
-0.000689821
-0.226088
-0.000347772
-0.225749
-0.0148273
-0.225908
-0.0105229
-0.225945
-0.00802241
-0.226165
-0.00606665
-0.226498
-0.0046719
-0.226817
-0.00368244
-0.227032
-0.00297347
-0.227144
-0.00245137
-0.227102
-0.00204014
-0.226967
-0.00168385
-0.226733
-0.00135196
-0.226426
-0.0010246
-0.226105
-0.000692232
-0.225743
-0.000350962
-0.225398
-0.0185852
-0.224392
-0.0122728
-0.224158
-0.00918465
-0.224782
-0.00679838
-0.225434
-0.00512204
-0.226048
-0.00397411
-0.226526
-0.00319679
-0.226808
-0.00266286
-0.226932
-0.00227092
-0.226871
-0.00194618
-0.226705
-0.00164638
-0.226439
-0.0013449
-0.226106
-0.00103121
-0.225766
-0.000700409
-0.225394
-0.000356004
-0.225042
-0.0242865
-0.223778
-0.0146726
-0.221993
-0.0104803
-0.222863
-0.00756933
-0.224012
-0.00554544
-0.22501
-0.00419728
-0.225825
-0.00333381
-0.226389
-0.00278975
-0.226682
-0.00243003
-0.226773
-0.00215415
-0.226663
-0.00190415
-0.226447
-0.00164397
-0.22614
-0.00135977
-0.225777
-0.00104732
-0.225419
-0.000712517
-0.225037
-0.000361345
-0.224681
-0.0322943
-0.225078
-0.0184861
-0.219964
-0.0121119
-0.220361
-0.00835286
-0.222079
-0.00592634
-0.223631
-0.00432339
-0.224884
-0.0033527
-0.225806
-0.0028
-0.226378
-0.0024887
-0.226623
-0.00228575
-0.226641
-0.00210945
-0.226458
-0.00191158
-0.226179
-0.001673
-0.225826
-0.00138911
-0.225436
-0.0010698
-0.225062
-0.000725244
-0.224673
-0.000364812
-0.224316
-0.041885
-0.228048
-0.0246754
-0.218889
-0.0145977
-0.217478
-0.00920471
-0.219509
-0.00622329
-0.221782
-0.00432046
-0.223634
-0.00321061
-0.225026
-0.00265039
-0.225956
-0.00240928
-0.226458
-0.00230984
-0.226599
-0.00224079
-0.22651
-0.00213391
-0.226235
-0.00196333
-0.225889
-0.00172322
-0.225492
-0.00142793
-0.225077
-0.00109327
-0.224694
-0.000734033
-0.224304
-0.000365475
-0.22395
-0.051376
-0.230502
-0.0335196
-0.219204
-0.0187728
-0.214714
-0.0104058
-0.216277
-0.00641544
-0.219317
-0.00413538
-0.221967
-0.00285557
-0.223989
-0.00228514
-0.225391
-0.00213922
-0.226226
-0.00218568
-0.226582
-0.00226734
-0.226572
-0.00229201
-0.226352
-0.00222033
-0.225978
-0.00204563
-0.225566
-0.00178707
-0.225133
-0.0014682
-0.224703
-0.00111042
-0.224317
-0.000736826
-0.223933
-0.000362101
-0.223588
-0.0588779
-0.22955
-0.0440554
-0.219966
-0.0252903
-0.212687
-0.0126163
-0.212503
-0.00656668
-0.216126
-0.00371595
-0.219736
-0.00221854
-0.222604
-0.00163088
-0.224643
-0.00161171
-0.225919
-0.00185478
-0.226557
-0.00214841
-0.226701
-0.00235834
-0.226506
-0.00242965
-0.226143
-0.00235054
-0.225673
-0.00214726
-0.225206
-0.001853
-0.224748
-0.00149924
-0.224314
-0.00111777
-0.223936
-0.000731005
-0.223564
-0.000353278
-0.223235
-0.0632435
-0.223337
-0.0543442
-0.219262
-0.033987
-0.21127
-0.0166287
-0.208674
-0.00702946
-0.21204
-0.00302377
-0.216818
-0.00122406
-0.220731
-0.000598639
-0.223637
-0.000733662
-0.225521
-0.00124236
-0.226531
-0.00182412
-0.226881
-0.002296
-0.226763
-0.00256997
-0.226366
-0.00262987
-0.225863
-0.00250806
-0.225313
-0.00225187
-0.224807
-0.00190602
-0.224342
-0.00151558
-0.223916
-0.00111107
-0.223556
-0.000713639
-0.223203
-0.000339186
-0.222896
-0.064489
-0.211706
-0.0624844
-0.215197
-0.0437612
-0.209487
-0.02285
-0.205048
-0.00842922
-0.207274
-0.00215891
-0.212905
0.000206661
-0.218249
0.000914245
-0.222244
0.000604289
-0.224975
-0.000240892
-0.226522
-0.00121663
-0.227139
-0.00204941
-0.227127
-0.00261222
-0.226721
-0.00287117
-0.226124
-0.00286883
-0.225503
-0.00266993
-0.224895
-0.00233879
-0.224375
-0.00193784
-0.223919
-0.00151088
-0.223516
-0.00108568
-0.223184
-0.000685067
-0.222858
-0.000319753
-0.222576
-0.063233
-0.195958
-0.0673917
-0.206799
-0.0530748
-0.205883
-0.0309475
-0.20139
-0.0114425
-0.202035
-0.00143816
-0.207995
0.00212131
-0.21482
0.00301504
-0.22035
0.00253861
-0.224178
0.0012746
-0.22649
-0.000213222
-0.227526
-0.00154481
-0.227643
-0.00251133
-0.227228
-0.00305702
-0.226535
-0.00322772
-0.225765
-0.00311436
-0.225058
-0.00280779
-0.224426
-0.00239563
-0.223917
-0.00193935
-0.223491
-0.00147847
-0.223123
-0.00104206
-0.222827
-0.000645174
-0.222532
-0.000295727
-0.22228
-0.0600257
-0.178381
-0.069158
-0.194191
-0.0606729
-0.199201
-0.0398617
-0.196969
-0.0164061
-0.196427
-0.00142863
-0.202045
0.00445213
-0.210326
0.00583648
-0.217641
0.00522949
-0.22304
0.00348012
-0.226384
0.0013172
-0.228021
-0.000677971
-0.228393
-0.00220657
-0.227948
-0.00315883
-0.227127
-0.00358179
-0.226181
-0.00359446
-0.225285
-0.00332744
-0.224538
-0.00290333
-0.223918
-0.00240956
-0.223447
-0.00190141
-0.223068
-0.00141886
-0.222746
-0.000980105
-0.222492
-0.000595556
-0.222232
-0.000267689
-0.222013
-0.0553812
-0.161132
-0.0691197
-0.17842
-0.0658566
-0.189008
-0.0482809
-0.190781
-0.0230364
-0.190338
-0.00269845
-0.195157
0.00687941
-0.204472
0.00944329
-0.213933
0.00889013
-0.221302
0.00662035
-0.226181
0.00359601
-0.228662
0.000675686
-0.229374
-0.00161854
-0.228981
-0.00313865
-0.227968
-0.00392352
-0.226785
-0.00412296
-0.225653
-0.00391734
-0.224695
-0.00348112
-0.223961
-0.00293854
-0.223389
-0.00236822
-0.22298
-0.00182446
-0.222662
-0.00133203
-0.222395
-0.000902393
-0.222186
-0.000537507
-0.221963
-0.000237475
-0.221775
-0.051809
-0.098917
-0.0684624
-0.161789
-0.0683829
-0.175893
-0.0551531
-0.182135
-0.0304383
-0.18338
-0.0056454
-0.187391
0.00893132
-0.197209
0.0136811
-0.20871
0.0136328
-0.218675
0.0110102
-0.225692
0.00697387
-0.229559
0.00278378
-0.230771
-0.000642392
-0.23035
-0.00295693
-0.229162
-0.00424558
-0.227646
-0.00471549
-0.226192
-0.00460498
-0.224965
-0.00415685
-0.22402
-0.00355012
-0.223349
-0.00289686
-0.22286
-0.00227188
-0.222532
-0.0017087
-0.222286
-0.00122183
-0.222075
-0.000811151
-0.221912
-0.000474884
-0.221725
-0.000206617
-0.221569
-0.0481609
-0.0928968
-0.0675414
-0.099838
-0.0688234
-0.161349
-0.0601202
-0.170926
-0.0372545
-0.175319
-0.0100796
-0.178945
0.00997711
-0.188437
0.018203
-0.20173
0.0193066
-0.214383
0.0167552
-0.22442
0.0118683
-0.230586
0.00610159
-0.232876
0.00102315
-0.232436
-0.00254236
-0.230765
-0.0045573
-0.228851
-0.00539832
-0.226964
-0.00542795
-0.225369
-0.00496978
-0.224152
-0.00427733
-0.223292
-0.00351228
-0.222734
-0.00277828
-0.222354
-0.00212123
-0.22212
-0.00155967
-0.221948
-0.0010918
-0.221794
-0.000712539
-0.221674
-0.000410929
-0.221521
-0.000176478
-0.221392
-0.0448506
-0.0879582
-0.0664194
-0.0940188
-0.0684157
-0.100246
-0.0630677
-0.158401
-0.0426834
-0.165497
-0.0150832
-0.170316
0.00966126
-0.178629
0.0224633
-0.192698
0.0255743
-0.207998
0.023582
-0.22121
0.0183217
-0.230874
0.0110998
-0.235585
0.00390643
-0.23576
-0.00159143
-0.233387
-0.00483977
-0.230482
-0.00622911
-0.22802
-0.00644288
-0.225949
-0.00597515
-0.224364
-0.0051667
-0.223263
-0.00424906
-0.222556
-0.00336715
-0.222145
-0.00258435
-0.221891
-0.00192413
-0.221755
-0.0013828
-0.221657
-0.000950913
-0.221556
-0.000611802
-0.221473
-0.000348564
-0.221349
-0.000149023
-0.221243
-0.0422034
-0.0843411
-0.0651582
-0.0892194
-0.0677332
-0.0947013
-0.0639162
-0.0993973
-0.0464063
-0.154678
-0.0196232
-0.160958
0.00801156
-0.168666
0.02603
-0.182196
0.0320417
-0.199165
0.0310996
-0.215516
0.025893
-0.228782
0.0177102
-0.237484
0.00843637
-0.240114
0.000421329
-0.237772
-0.00485038
-0.233376
-0.00725863
-0.229453
-0.00774542
-0.226717
-0.007252
-0.224672
-0.00628441
-0.223246
-0.00515553
-0.222356
-0.00407113
-0.221852
-0.00311784
-0.221611
-0.00232623
-0.221489
-0.00168874
-0.221449
-0.00119061
-0.221417
-0.000806935
-0.221361
-0.000513724
-0.221308
-0.000291881
-0.221206
-0.000125599
-0.221117
-0.0404983
-0.0821611
-0.0638751
-0.0856241
-0.0668843
-0.0900683
-0.0638732
-0.0947443
-0.0480505
-0.0977531
-0.0230748
-0.151227
0.00583729
-0.158783
0.0283113
-0.170947
0.0382813
-0.188436
0.0389324
-0.206998
0.034174
-0.223797
0.0253701
-0.236441
0.0144384
-0.243486
0.00381951
-0.243513
-0.00414169
-0.238481
-0.00837247
-0.232263
-0.00946139
-0.227737
-0.00891765
-0.225052
-0.00772172
-0.223234
-0.00630073
-0.222101
-0.00493492
-0.221492
-0.00374934
-0.22122
-0.00278032
-0.221157
-0.00201608
-0.221161
-0.00143226
-0.221208
-0.00099412
-0.22123
-0.000667042
-0.221208
-0.000424796
-0.221175
-0.000243707
-0.221088
-0.000107431
-0.22101
-0.0396784
-0.0813407
-0.0627136
-0.0833226
-0.0659156
-0.0865928
-0.0631318
-0.0908097
-0.0485653
-0.0942294
-0.025161
-0.0956669
0.00374884
-0.149138
0.0294486
-0.15992
0.0437664
-0.176432
0.0467194
-0.196223
0.0427821
-0.215606
0.0337444
-0.232171
0.0213659
-0.243369
0.00838859
-0.248055
-0.00251631
-0.245138
-0.0093025
-0.237551
-0.0116554
-0.230069
-0.0111609
-0.225494
-0.00959994
-0.223173
-0.0077772
-0.221758
-0.00602257
-0.221013
-0.0045154
-0.220726
-0.0033068
-0.220694
-0.00237266
-0.220801
-0.00167729
-0.220916
-0.00117002
-0.221032
-0.00080366
-0.221093
-0.000540599
-0.221092
-0.000349571
-0.22107
-0.000206588
-0.220989
-9.5156e-05
-0.220915
-0.0399727
-0.0821965
-0.0615092
-0.0825451
-0.064717
-0.0845212
-0.0617958
-0.0879289
-0.0481484
-0.0912266
-0.0261358
-0.0932546
0.00167878
-0.0935968
0.0299939
-0.149683
0.0482259
-0.16438
0.0541017
-0.183815
0.0513769
-0.204818
0.0425106
-0.224372
0.0290386
-0.239844
0.013754
-0.248734
1.06903e-05
-0.250582
-0.00990864
-0.244532
-0.0142655
-0.234941
-0.0142377
-0.226992
-0.0121401
-0.222954
-0.00969499
-0.221256
-0.00741796
-0.220363
-0.0054688
-0.22006
-0.00393103
-0.220102
-0.00277025
-0.220296
-0.00192666
-0.220551
-0.00133097
-0.220755
-0.000916551
-0.220919
-0.000632134
-0.221002
-0.000434296
-0.221007
-0.000292098
-0.220984
-0.000181857
-0.220902
-8.9289e-05
-0.220826
-0.0407873
-0.0847598
-0.0604507
-0.0832549
-0.0632972
-0.0839648
-0.0599758
-0.0863412
-0.0469409
-0.0891364
-0.0261133
-0.0912492
0.000417002
-0.0919928
0.0288399
-0.0924429
0.0517315
-0.153189
0.0607677
-0.171046
0.0596317
-0.19207
0.0513382
-0.213645
0.0372262
-0.23256
0.0199409
-0.246031
0.00323106
-0.251955
-0.00989673
-0.250594
-0.0171158
-0.241682
-0.0182899
-0.230889
-0.0157563
-0.223376
-0.0122619
-0.220387
-0.00921043
-0.219463
-0.00667629
-0.219155
-0.00469054
-0.2193
-0.00322151
-0.219651
-0.00218299
-0.22004
-0.00147126
-0.220411
-0.000997319
-0.220675
-0.000689227
-0.220862
-0.000488947
-0.220947
-0.000353986
-0.220945
-0.000254557
-0.220911
-0.000170545
-0.220821
-8.96743e-05
-0.220736
-0.0417852
-0.0885012
-0.0593263
-0.0858842
-0.0614554
-0.0850967
-0.0576963
-0.0862444
-0.0450834
-0.0881986
-0.0252334
-0.0900163
8.83893e-05
-0.0909206
0.0279231
-0.0910759
0.0522032
-0.0929146
0.066517
-0.158938
0.0673086
-0.178723
0.0598531
-0.200584
0.0456199
-0.222039
0.0267602
-0.239379
0.00730256
-0.250102
-0.00894441
-0.252907
-0.0197796
-0.24793
-0.0230905
-0.236881
-0.020822
-0.225823
-0.015966
-0.219671
-0.0115536
-0.218043
-0.00820386
-0.217936
-0.00562908
-0.218217
-0.00374715
-0.218775
-0.00244624
-0.219388
-0.00158445
-0.219927
-0.00103417
-0.220374
-0.000699376
-0.220664
-0.000500959
-0.22085
-0.000382196
-0.220919
-0.000302941
-0.220897
-0.000238519
-0.220843
-0.000172325
-0.220738
-9.55448e-05
-0.22064
-0.0425238
-0.0934525
-0.0580609
-0.0897666
-0.0594311
-0.0879085
-0.0550604
-0.0877326
-0.0426954
-0.0886323
-0.0236284
-0.0898036
0.000607977
-0.0905358
0.0275437
-0.0905412
0.0524706
-0.0913434
0.0686515
-0.0950491
0.0741173
-0.165747
0.0678473
-0.186717
0.0538649
-0.208829
0.0339313
-0.22921
0.0120241
-0.244101
-0.00746953
-0.251577
-0.0214933
-0.251193
-0.0281799
-0.242841
-0.0271885
-0.230515
-0.0214155
-0.220374
-0.0148964
-0.216329
-0.0101325
-0.216115
-0.00679053
-0.216774
-0.00436524
-0.217598
-0.00272045
-0.218501
-0.00165889
-0.219313
-0.00101235
-0.219948
-0.000645703
-0.220428
-0.000454623
-0.220711
-0.000362672
-0.220869
-0.000316597
-0.220905
-0.000283318
-0.220852
-0.00024344
-0.220772
-0.000185631
-0.220648
-0.000105979
-0.220534
-0.0419039
-0.152124
-0.0565767
-0.0949367
-0.056987
-0.0922107
-0.0521333
-0.0908357
-0.0398516
-0.0905764
-0.0213929
-0.0908679
0.00191051
-0.0911062
0.0278673
-0.0908595
0.0527297
-0.0908002
0.0704422
-0.0931341
0.0772387
-0.0981705
0.0749411
-0.172841
0.0617562
-0.194608
0.0412507
-0.216149
0.0172147
-0.234401
-0.00545224
-0.246118
-0.0228733
-0.250197
-0.0329523
-0.246421
-0.0343145
-0.235715
-0.0286826
-0.223247
-0.0199966
-0.215273
-0.0127781
-0.213683
-0.00819019
-0.214715
-0.00509889
-0.216041
-0.00299923
-0.21732
-0.00168285
-0.218477
-0.00091024
-0.219415
-0.000506214
-0.220088
-0.000329194
-0.220553
-0.000277618
-0.220796
-0.000281024
-0.220905
-0.000294968
-0.220894
-0.000294301
-0.220801
-0.000266828
-0.220691
-0.000208519
-0.220545
-0.000119535
-0.220415
-0.0398908
-0.168068
-0.0525814
-0.156119
-0.0541094
-0.0978143
-0.0488991
-0.0954448
-0.0366186
-0.0940687
-0.0186143
-0.093355
0.00390781
-0.0928652
0.0289054
-0.0921442
0.0532755
-0.0914054
0.0719203
-0.0922783
0.079984
-0.0958794
0.0785936
-0.101823
0.068713
-0.179797
0.0484371
-0.201795
0.0228793
-0.221814
-0.00282556
-0.237027
-0.0237539
-0.245237
-0.0371628
-0.245987
-0.0415811
-0.239154
-0.0372045
-0.227193
-0.0272347
-0.216009
-0.0168852
-0.211166
-0.00997912
-0.211894
-0.00591671
-0.213897
-0.00328457
-0.215755
-0.00162979
-0.217373
-0.000701755
-0.218685
-0.000251288
-0.21967
-9.69512e-05
-0.22032
-0.000103817
-0.220727
-0.000177646
-0.220899
-0.000259606
-0.22094
-0.000316158
-0.220872
-0.000332308
-0.220736
-0.000305479
-0.220594
-0.000237955
-0.220427
-0.000134671
-0.22028
-0.0364652
-0.185149
-0.0472053
-0.173444
-0.0482896
-0.161939
-0.0453518
-0.101362
-0.0330601
-0.0990034
-0.0153452
-0.0973378
0.00649399
-0.0959412
0.030607
-0.0945668
0.0542637
-0.0931323
0.0731915
-0.0926766
0.0822933
-0.0945876
0.0818101
-0.099096
0.0727177
-0.105828
0.0547215
-0.186082
0.0284953
-0.207411
0.000449059
-0.225088
-0.023943
-0.236838
-0.0407518
-0.241648
-0.0483091
-0.239259
-0.0461657
-0.230193
-0.0362497
-0.218178
-0.0231322
-0.209762
-0.0127101
-0.208435
-0.00684178
-0.210969
-0.00351621
-0.213666
-0.00147883
-0.215906
-0.000345622
-0.217729
0.000157741
-0.219094
0.000277806
-0.220045
0.000190329
-0.220614
1.76151e-05
-0.220922
-0.00015927
-0.220999
-0.000296861
-0.22096
-0.00037526
-0.220829
-0.000392501
-0.220649
-0.0003545
-0.220478
-0.000270647
-0.220291
-0.000149467
-0.220131
-0.0317271
-0.201855
-0.0407575
-0.191597
-0.0416416
-0.180092
-0.0389632
-0.168327
-0.0292441
-0.105178
-0.0116725
-0.102676
0.00956818
-0.100412
0.0328509
-0.0981851
0.0556968
-0.096
0.0744611
-0.0944019
0.0841664
-0.0945497
0.0844884
-0.0972659
0.0762925
-0.102671
0.0590142
-0.11012
0.033482
-0.191069
0.00366125
-0.210623
-0.0235727
-0.225458
-0.043728
-0.233862
-0.054385
-0.235572
-0.0548764
-0.230548
-0.0461934
-0.220249
-0.0315592
-0.209751
-0.0172071
-0.205265
-0.00812635
-0.207151
-0.00365439
-0.210831
-0.00115403
-0.21399
0.000203372
-0.216455
0.000772618
-0.218344
0.000843944
-0.21966
0.000644675
-0.220499
0.000338046
-0.220935
2.92672e-05
-0.221111
-0.000220489
-0.221076
-0.000386261
-0.220949
-0.00046527
-0.220756
-0.000467674
-0.220535
-0.000408548
-0.22034
-0.000302512
-0.220138
-0.000162468
-0.219968
-0.0260757
-0.216548
-0.0336193
-0.208993
-0.0345917
-0.198647
-0.0319226
-0.187133
-0.0231038
-0.174468
-0.00782721
-0.109023
0.0129972
-0.106105
0.0354483
-0.103009
0.0574881
-0.0999763
0.0757331
-0.097272
0.0855082
-0.0957437
0.0864972
-0.0965585
0.0793894
-0.100363
0.0628005
-0.106457
0.0379543
-0.114593
0.00701679
-0.194424
-0.022941
-0.211255
-0.0461859
-0.223001
-0.0598614
-0.228386
-0.0629997
-0.227449
-0.0562175
-0.220524
-0.0414842
-0.210324
-0.0239342
-0.203024
-0.0105147
-0.202877
-0.00367319
-0.207132
-0.0005918
-0.211393
0.00102747
-0.214815
0.00166099
-0.217343
0.00166125
-0.219161
0.00131526
-0.220331
0.000825401
-0.220987
0.000338587
-0.221244
-6.64494e-05
-0.221265
-0.0003528
-0.221109
-0.000517913
-0.220896
-0.000576019
-0.220648
-0.000549875
-0.220394
-0.000461067
-0.220181
-0.000330425
-0.21997
-0.000172226
-0.219796
-0.0200258
-0.22821
-0.0262555
-0.223912
-0.0273276
-0.216257
-0.0247871
-0.205783
-0.0165906
-0.193646
-0.00268326
-0.179612
0.016533
-0.112559
0.0381838
-0.108841
0.0593744
-0.104896
0.0769591
-0.101202
0.0864543
-0.0982182
0.0878118
-0.0970583
0.081925
-0.0990941
0.0659976
-0.10356
0.0419334
-0.110436
0.0114456
-0.119021
-0.0212776
-0.196088
-0.0477748
-0.209666
-0.0646573
-0.218205
-0.0704029
-0.220982
-0.0657444
-0.217922
-0.051957
-0.210051
-0.0325955
-0.201663
-0.0146978
-0.198841
-0.00407095
-0.202479
0.000380547
-0.208104
0.00221218
-0.212578
0.00290631
-0.21606
0.0028154
-0.218498
0.00226883
-0.220115
0.00153939
-0.221045
0.000809713
-0.221458
0.000194573
-0.221505
-0.000258685
-0.221359
-0.000542462
-0.221085
-0.000677767
-0.220794
-0.000696149
-0.220501
-0.000629466
-0.220226
-0.000506958
-0.220005
-0.000351323
-0.219791
-0.000177313
-0.219619
-0.0140335
-0.235963
-0.0191008
-0.235365
-0.0201978
-0.231041
-0.0178334
-0.223211
-0.0102231
-0.21215
0.00244014
-0.198769
0.0202627
-0.183341
0.0408296
-0.115205
0.0610913
-0.110557
0.0779084
-0.105845
0.0868815
-0.101629
0.0884525
-0.0988588
0.0838399
-0.0989733
0.0684667
-0.101563
0.0452164
-0.106843
0.0154027
-0.114393
-0.0175552
-0.122744
-0.0482212
-0.195641
-0.0683987
-0.205924
-0.0769383
-0.211669
-0.074445
-0.212282
-0.0621808
-0.207698
-0.0423948
-0.200252
-0.0208515
-0.195509
-0.00544922
-0.197463
0.0015615
-0.20366
0.00393583
-0.209828
0.00462998
-0.214301
0.00439621
-0.217641
0.00360339
-0.219832
0.00255154
-0.221127
0.00150218
-0.221737
0.000599793
-0.221863
-8.04934e-05
-0.221683
-0.000528648
-0.221373
-0.000770287
-0.220992
-0.000849913
-0.220641
-0.000812066
-0.220319
-0.000698802
-0.220034
-0.000541283
-0.219815
-0.000362227
-0.219606
-0.000177254
-0.219441
-0.00849953
-0.239814
-0.0125051
-0.242558
-0.0135455
-0.242017
-0.0113452
-0.23753
-0.00446894
-0.228965
0.00722432
-0.216934
0.0233795
-0.201886
0.0428539
-0.185366
0.0624342
-0.116547
0.0784096
-0.111059
0.0868894
-0.105853
0.0886081
-0.101785
0.0848963
-0.0999153
0.0701952
-0.100702
0.0476348
-0.103982
0.0186062
-0.110046
-0.0141664
-0.117782
-0.0459216
-0.125043
-0.0712303
-0.19281
-0.0824108
-0.200452
-0.0820762
-0.204038
-0.0716239
-0.202839
-0.0524259
-0.197667
-0.0286241
-0.192479
-0.00830331
-0.192655
0.0026453
-0.198546
0.00625555
-0.20598
0.00695502
-0.212153
0.00655201
-0.216457
0.00542138
-0.219459
0.00396748
-0.221248
0.00248865
-0.222113
0.00120419
-0.222342
0.000211766
-0.222155
-0.000461252
-0.221751
-0.000850378
-0.221293
-0.00101418
-0.220828
-0.00101552
-0.220437
-0.000912749
-0.220105
-0.000750593
-0.219825
-0.0005593
-0.219617
-0.000362155
-0.219421
-0.000171692
-0.21927
-0.00400172
-0.239717
-0.00671074
-0.245609
-0.00772146
-0.248382
-0.00565341
-0.247709
0.000509531
-0.242508
0.0110923
-0.232833
0.0258601
-0.219415
0.0437269
-0.202759
0.0622468
-0.185178
0.078293
-0.116431
0.0864262
-0.110595
0.0882791
-0.105524
0.0850103
-0.101899
0.0710859
-0.100806
0.04912
-0.102187
0.0209239
-0.106299
-0.0113581
-0.112855
-0.0435486
-0.120155
-0.0705244
-0.125749
-0.0869176
-0.188303
-0.0883896
-0.194138
-0.07992
-0.195742
-0.0619773
-0.193287
-0.0372317
-0.18906
-0.012819
-0.187963
0.0030966
-0.193107
0.00912032
-0.201411
0.0100986
-0.209124
0.00938558
-0.214987
0.00788906
-0.218925
0.00590374
-0.221395
0.00387744
-0.222637
0.0020763
-0.222985
0.000663616
-0.222794
-0.000320427
-0.222296
-0.000912837
-0.221688
-0.00119337
-0.221114
-0.00124824
-0.220595
-0.00115895
-0.220191
-0.000987854
-0.219868
-0.000777955
-0.219606
-0.000559426
-0.21942
-0.000350414
-0.219242
-0.000160928
-0.219109
-0.000866071
-0.23735
-0.00214772
-0.24428
-0.00292756
-0.250403
-0.00102805
-0.253008
0.00452414
-0.251724
0.0139406
-0.245356
0.027338
-0.234311
0.0435794
-0.219267
0.060842
-0.201354
0.0759343
-0.182819
0.0854457
-0.11545
0.0873796
-0.109696
0.0841013
-0.104615
0.0710603
-0.101873
0.049663
-0.101349
0.0222434
-0.103506
-0.00926046
-0.108397
-0.0413618
-0.115041
-0.0693408
-0.121339
-0.0877525
-0.124914
-0.0932049
-0.183487
-0.0868731
-0.187185
-0.0705361
-0.187183
-0.0459075
-0.184611
-0.0186048
-0.183274
0.00243515
-0.187302
0.0121788
-0.196165
0.0141234
-0.205436
0.0131595
-0.212898
0.0111386
-0.218236
0.00854312
-0.221564
0.00579609
-0.223314
0.00332038
-0.223881
0.00133285
-0.223655
-7.60051e-05
-0.223038
-0.000950866
-0.222258
-0.00139307
-0.221488
-0.00152202
-0.22084
-0.00145043
-0.220304
-0.00126576
-0.219913
-0.00102779
-0.219618
-0.000778564
-0.219387
-0.000540621
-0.21923
-0.000327673
-0.219076
-0.000145383
-0.218963
0.00103567
-0.235064
0.000909707
-0.240408
0.000735171
-0.247942
0.00237781
-0.253808
0.00732935
-0.255813
0.0156506
-0.253434
0.0276816
-0.2457
0.0424255
-0.233157
0.0582242
-0.21665
0.072509
-0.197929
0.0822526
-0.179626
0.0857288
-0.1138
0.0821993
-0.107794
0.0698944
-0.103449
0.0492481
-0.101458
0.0225717
-0.101677
-0.0080629
-0.104704
-0.0395962
-0.110162
-0.067938
-0.116444
-0.0878953
-0.121196
-0.0948526
-0.123267
-0.0922711
-0.178089
-0.0779899
-0.179732
-0.0539396
-0.179151
-0.0250625
-0.178154
0.000549722
-0.181388
0.0150196
-0.190143
0.0188962
-0.200938
0.0179813
-0.210258
0.0154182
-0.217177
0.012062
-0.221755
0.0084422
-0.22421
0.00506753
-0.225061
0.00231049
-0.224859
0.000312954
-0.224044
-0.000952577
-0.223036
-0.00162088
-0.22203
-0.00185293
-0.221158
-0.00180534
-0.220485
-0.00160072
-0.219969
-0.00132284
-0.219618
-0.0010293
-0.219367
-0.000751047
-0.219176
-0.000504035
-0.219054
-0.000294884
-0.218926
-0.000126357
-0.218837
0.00209916
-0.233678
0.00254265
-0.236697
0.0030688
-0.242741
0.0047408
-0.250305
0.00896373
-0.255443
0.0164471
-0.256609
0.0268327
-0.252585
0.0401672
-0.243442
0.0545257
-0.229459
0.0678756
-0.212016
0.0776543
-0.193331
0.0817046
-0.175602
0.0793385
-0.110939
0.0675674
-0.105467
0.0477912
-0.101992
0.0218857
-0.100772
-0.00780935
-0.101931
-0.0384973
-0.105803
-0.0665469
-0.111554
-0.0874803
-0.116859
-0.0958273
-0.120221
-0.0949563
-0.120582
-0.0840806
-0.171999
-0.061142
-0.172529
-0.0314338
-0.17278
-0.00229817
-0.175306
0.0172214
-0.18359
0.024245
-0.195492
0.0238422
-0.206799
0.0208665
-0.215706
0.0167034
-0.221819
0.0120229
-0.225336
0.00751785
-0.226661
0.00371818
-0.226468
0.000913341
-0.225459
-0.000901548
-0.224095
-0.00188634
-0.222771
-0.00226291
-0.22162
-0.00224871
-0.220714
-0.00201545
-0.22007
-0.00168126
-0.21961
-0.00132566
-0.219322
-0.000990674
-0.219127
-0.000697239
-0.218983
-0.000451326
-0.218897
-0.000254803
-0.218798
-0.000105126
-0.218732
0.00270334
-0.232802
0.00323855
-0.234374
0.00413807
-0.237766
0.00594166
-0.243942
0.0095048
-0.250846
0.0159866
-0.254982
0.0251592
-0.254936
0.0367785
-0.249196
0.0497019
-0.238618
0.0620262
-0.223609
0.0715498
-0.205912
0.076035
-0.187661
0.0741697
-0.170433
0.0640313
-0.107403
0.0451703
-0.102846
0.0202077
-0.100314
-0.00856013
-0.100022
-0.0381437
-0.102284
-0.0654355
-0.106914
-0.0866307
-0.112403
-0.0962335
-0.116453
-0.0966226
-0.118555
-0.0882052
-0.116457
-0.0671287
-0.166012
-0.0372979
-0.166665
-0.00572541
-0.169353
0.0187088
-0.176793
0.0297526
-0.189098
0.0307371
-0.202386
0.0275411
-0.213473
0.0226408
-0.221644
0.0168028
-0.226598
0.0108865
-0.228704
0.00573287
-0.228675
0.00181868
-0.227374
-0.000765163
-0.225595
-0.00220097
-0.22378
-0.00278254
-0.222251
-0.00281497
-0.221054
-0.00254148
-0.220188
-0.00212809
-0.219623
-0.00168587
-0.21925
-0.00127227
-0.21904
-0.00091475
-0.21891
-0.000619825
-0.218815
-0.000386982
-0.218765
-0.000210156
-0.218693
-8.29913e-05
-0.218649
0.00301799
-0.232142
0.00354033
-0.233103
0.00440739
-0.234643
0.00616175
-0.237986
0.00918462
-0.243622
0.0143791
-0.249239
0.0222071
-0.25203
0.0321845
-0.250342
0.043777
-0.243271
0.0549482
-0.23154
0.0640143
-0.216074
0.0687727
-0.198649
0.0675103
-0.181002
0.0587134
-0.165115
0.0411977
-0.10343
0.0173073
-0.0999457
-0.010274
-0.0986003
-0.0386396
-0.0995256
-0.0647241
-0.102996
-0.0854165
-0.108128
-0.0960512
-0.112586
-0.0974587
-0.115617
-0.0911889
-0.115571
-0.0722471
-0.111339
-0.0424633
-0.160846
-0.00900495
-0.163386
0.0192851
-0.169929
0.0351269
-0.182167
0.0383901
-0.196751
0.0354627
-0.210308
0.0299928
-0.220825
0.0230216
-0.227862
0.0154745
-0.231186
0.00855276
-0.231524
0.00314816
-0.230005
-0.000499665
-0.227639
-0.00257417
-0.225222
-0.00345236
-0.22311
-0.00355276
-0.221513
-0.00322221
-0.220373
-0.00269804
-0.219618
-0.00213479
-0.219174
-0.00161242
-0.21891
-0.00116696
-0.218788
-0.000805722
-0.218724
-0.000525512
-0.218676
-0.000315465
-0.21866
-0.000163745
-0.218612
-6.16009e-05
-0.218587
0.00311608
-0.23164
0.00363082
-0.232232
0.00437937
-0.233075
0.00585286
-0.234334
0.00835563
-0.237157
0.0123635
-0.241606
0.018516
-0.245548
0.0268072
-0.246653
0.036713
-0.243278
0.0467849
-0.235108
0.0551817
-0.222707
0.0599964
-0.207298
0.0594418
-0.190581
0.0518947
-0.174183
0.0364108
-0.160328
0.0131794
-0.0993023
-0.0130386
-0.0971812
-0.0399316
-0.0973083
-0.064463
-0.0997868
-0.084128
-0.104284
-0.0952717
-0.108908
-0.097597
-0.112447
-0.0929834
-0.113822
-0.0759529
-0.111866
-0.0482818
-0.10552
-0.0122849
-0.157566
0.0196682
-0.163769
0.0399118
-0.174714
0.0464394
-0.190217
0.0444036
-0.205692
0.0387208
-0.219036
0.0308454
-0.228649
0.0216202
-0.234008
0.0125275
-0.235161
0.0050621
-0.233438
-7.7669e-05
-0.230427
-0.00302875
-0.227185
-0.0043257
-0.224349
-0.00452863
-0.222134
-0.00411911
-0.220617
-0.00343876
-0.219633
-0.00270686
-0.219046
-0.00203347
-0.218753
-0.00146742
-0.21861
-0.00101619
-0.218577
-0.000673217
-0.218576
-0.000420995
-0.218571
-0.000241365
-0.218582
-0.000119069
-0.218554
-4.22784e-05
-0.218545
0.00305391
-0.231253
0.00356224
-0.231572
0.00422987
-0.232083
0.005406
-0.232629
0.00736929
-0.233348
0.0104193
-0.235213
0.0149592
-0.23805
0.0213497
-0.24009
0.0293495
-0.239289
0.0379297
-0.234423
0.0454281
-0.225354
0.0500561
-0.212767
0.0500649
-0.197921
0.043883
-0.182569
0.030501
-0.168273
0.00982948
-0.156979
-0.0164216
-0.0959192
-0.0415646
-0.0955482
-0.0643827
-0.0973886
-0.0826171
-0.101298
-0.0938175
-0.105739
-0.0970873
-0.109418
-0.093525
-0.111906
-0.0782728
-0.111502
-0.0525218
-0.107625
-0.0183046
-0.0995004
0.0196458
-0.157544
0.0441456
-0.168002
0.0544341
-0.182709
0.0539768
-0.19979
0.0484999
-0.215471
0.0401082
-0.228299
0.0294808
-0.23651
0.0180844
-0.239565
0.00796383
-0.238063
0.000606979
-0.234123
-0.00364396
-0.229812
-0.00549578
-0.226015
-0.0058355
-0.223042
-0.00531768
-0.220936
-0.00441761
-0.219638
-0.00344886
-0.218891
-0.00256629
-0.218513
-0.00183396
-0.218387
-0.00126062
-0.218365
-0.000833544
-0.218417
-0.000526899
-0.21847
-0.000313187
-0.218499
-0.000170308
-0.218531
-7.89642e-05
-0.218518
-2.62371e-05
-0.218519
0.00288103
-0.230961
0.00337515
-0.231066
0.00398953
-0.231332
0.00495669
-0.231633
0.00647114
-0.23173
0.00877172
-0.2317
0.0120474
-0.232301
0.0166051
-0.233305
0.0225402
-0.233281
0.029271
-0.230631
0.0355086
-0.224503
0.0396388
-0.214937
0.0399852
-0.202687
0.0350434
-0.189081
0.0238085
-0.175877
0.0060713
-0.164515
-0.01713
-0.15627
-0.0430236
-0.0944603
-0.0639962
-0.0959346
-0.080782
-0.0992238
-0.0917587
-0.103356
-0.0957465
-0.107079
-0.0928835
-0.110059
-0.079326
-0.110852
-0.0554719
-0.108552
-0.022904
-0.103026
0.0144831
-0.0943377
0.0480394
-0.161438
0.0618712
-0.17544
0.0637622
-0.192494
0.0588874
-0.210178
0.0503368
-0.225699
0.0386808
-0.237499
0.0252618
-0.243687
0.0122851
-0.243886
0.00196762
-0.239424
-0.00438604