/*--------------------------------*- C++ -*----------------------------------*\
| =========                 |                                                 |
| \\      /  F ield         | OpenFOAM: The Open Source CFD Toolbox           |
|  \\    /   O peration     | Version:  2506                                  |
|   \\  /    A nd           | Website:  www.openfoam.com                      |
|    \\/     M anipulation  |                                                 |
\*---------------------------------------------------------------------------*/
FoamFile
{
    version     2.0;
    format      ascii;
    arch        "LSB;label=32;scalar=64";
    class       volVectorField;
    location    "149.999038929845";
    object      vorticity;
}
// * * * * * * * * * * * * * * * * * * * * * * * * * * * * * * * * * * * * * //

dimensions      [0 0 -1 0 0 0 0];

internalField   nonuniform List<vector> 
9700
(
(1.59504e-20 -9.39793e-22 7.71651e-05)
(2.47924e-20 -1.17813e-23 0.000212264)
(1.32021e-23 -2.78551e-21 9.90739e-05)
(8.08443e-22 4.42386e-22 0.000387075)
(-1.62416e-20 -1.98562e-21 0.000159194)
(1.4496e-20 -1.67962e-20 9.02044e-05)
(-2.64457e-20 1.7664e-23 0.000592567)
(-4.1796e-23 -8.53646e-21 0.000317088)
(2.98008e-20 -1.64854e-20 0.000191911)
(1.5184e-22 2.68875e-21 8.02807e-05)
(-2.19069e-20 1.71791e-22 0.000832877)
(1.71618e-20 2.08577e-22 0.000451068)
(1.52521e-20 -1.28308e-19 0.000310267)
(-1.10264e-19 -4.17297e-21 0.000184703)
(1.2288e-20 1.69385e-20 9.03271e-05)
(1.97345e-20 1.43038e-21 0.00109992)
(2.34592e-23 -3.06383e-21 0.000597921)
(-2.61891e-20 -2.0048e-20 0.000397224)
(-7.96634e-22 2.01215e-20 0.000333251)
(9.28632e-21 1.82333e-20 0.000205918)
(3.34191e-23 -2.51719e-21 6.69076e-05)
(2.15372e-19 4.40595e-21 0.00140733)
(-6.97127e-22 -3.05405e-21 0.000744754)
(-1.25727e-20 -2.16007e-20 0.000524183)
(1.12903e-19 2.14915e-20 0.000433376)
(-1.89046e-20 1.23467e-19 0.000338242)
(-1.33819e-20 -3.51671e-21 0.000206751)
(1.17324e-20 -2.47005e-20 7.29409e-05)
(-2.97738e-20 3.51655e-21 0.00162535)
(2.08945e-19 5.09642e-20 0.000919065)
(2.30921e-20 -1.50373e-20 0.000646665)
(5.68885e-22 2.78739e-21 0.000561444)
(-1.47024e-20 1.28416e-20 0.000460147)
(-1.50223e-22 -9.70899e-21 0.000348011)
(1.66815e-20 -2.51436e-20 0.000209688)
(3.71537e-21 -1.18467e-19 4.90155e-05)
(-2.37207e-19 -1.75691e-20 0.00174185)
(2.1674e-21 -1.01639e-19 0.00108096)
(1.63141e-19 2.36134e-20 0.000714685)
(2.01879e-36 2.99453e-21 0.000651893)
(-2.00968e-20 1.30316e-20 0.000577601)
(1.31238e-20 6.33603e-23 0.000454305)
(2.24151e-22 -1.55024e-21 0.000311822)
(4.19595e-21 -1.338e-19 0.00020291)
(-3.88321e-21 1.90213e-20 4.6313e-05)
(6.26696e-21 -1.54937e-20 0.00154826)
(-2.83327e-19 -1.10421e-19 0.00129343)
(1.01804e-19 -2.46533e-19 0.000751161)
(-6.11943e-22 3.67838e-21 0.000747298)
(5.03085e-21 2.25053e-20 0.000683653)
(1.01946e-22 -2.6374e-21 0.000560333)
(-1.0823e-20 -2.92026e-20 0.000434286)
(2.69486e-21 -1.65422e-20 0.000297996)
(9.2586e-20 3.9373e-20 0.000176488)
(8.26045e-21 1.1005e-19 2.25444e-05)
(-2.50306e-20 1.61161e-20 6.8723e-05)
(2.7649e-20 3.37619e-20 0.00159388)
(-2.07446e-19 -4.99782e-21 0.000830839)
(4.28597e-20 6.0569e-20 0.000847994)
(8.22128e-20 7.48111e-20 0.000786836)
(-2.41006e-21 -2.61221e-21 0.0006837)
(-6.94723e-21 -2.76927e-20 0.000549708)
(3.74167e-20 -1.27677e-19 0.000384935)
(-6.00962e-22 1.86029e-20 0.000259278)
(1.66563e-20 1.10844e-19 0.000148523)
(4.98531e-35 -8.16303e-21 1.46076e-05)
(3.56496e-20 2.00375e-20 -0.00588169)
(3.21591e-20 1.57057e-20 0.00197833)
(-1.70243e-19 2.1899e-19 0.000811096)
(1.5538e-19 1.04694e-19 0.000911435)
(-1.55689e-19 1.75434e-19 0.000891872)
(1.20504e-19 6.97082e-20 0.000795087)
(1.56994e-20 -1.86937e-20 0.00066388)
(3.50213e-20 -1.0788e-19 0.000520244)
(-9.16396e-20 2.03192e-20 0.000365957)
(2.56142e-22 -1.48908e-21 0.000250337)
(2.42747e-35 -8.47346e-21 0.000115195)
(9.59695e-21 1.26965e-20 1.22175e-05)
(-1.15066e-19 1.97953e-19 -0.0106342)
(2.39818e-19 1.74799e-19 0.00192149)
(3.65806e-20 -4.10423e-20 0.000717146)
(-4.38692e-20 -7.83845e-20 0.000912331)
(-1.2451e-20 -1.35684e-19 0.000985283)
(-4.68993e-21 -4.02055e-20 0.000870159)
(9.44154e-20 2.09451e-20 0.000777818)
(4.94024e-20 -9.85379e-20 0.000638846)
(2.0709e-24 1.95369e-20 0.00047527)
(-3.48292e-20 1.02096e-19 0.000330486)
(2.09758e-34 1.41766e-24 0.000187142)
(1.4544e-20 1.24261e-20 0.000120367)
(3.38996e-23 -1.95272e-21 -1.11382e-05)
(-5.8104e-20 -3.05253e-20 -0.00472685)
(5.62384e-21 -5.60496e-20 0.00111763)
(1.02289e-19 -8.76666e-21 0.000159868)
(-1.70434e-19 -2.08716e-19 0.000929144)
(1.96013e-19 -1.37324e-19 0.000999437)
(-1.14355e-19 -1.53668e-19 0.000942683)
(1.33436e-19 -1.34386e-19 0.000849888)
(7.18336e-20 -9.34072e-20 0.000701444)
(-3.23039e-21 1.98621e-20 0.000560602)
(-2.65876e-20 9.40277e-20 0.00038768)
(-7.66369e-36 -8.42609e-21 0.000260153)
(2.12192e-22 8.24404e-24 0.000151781)
(-1.06021e-20 -1.7798e-21 6.48666e-05)
(9.66944e-21 -1.40813e-20 -4.20397e-06)
(-9.59765e-19 3.40397e-20 0.0242619)
(-3.20762e-19 -3.26465e-19 0.00407373)
(7.40054e-19 -5.26658e-19 -0.00129288)
(-1.67917e-19 -2.49692e-19 0.000783521)
(-5.09255e-20 1.38076e-20 0.00100997)
(3.94802e-21 4.22838e-20 0.000988583)
(6.96011e-20 -1.45672e-19 0.000906133)
(1.21085e-20 -9.53002e-20 0.000776279)
(4.86212e-20 6.21143e-20 0.000634964)
(-1.51088e-20 8.46068e-20 0.000474597)
(-1.02095e-34 -8.38754e-21 0.000331983)
(-1.34946e-20 1.21564e-20 0.000209008)
(-1.49329e-22 -6.8749e-21 0.000129519)
(1.91283e-20 -1.54919e-20 3.55029e-05)
(6.40917e-22 -1.60242e-20 -1.1622e-05)
(-1.8361e-19 4.33368e-19 0.0789207)
(-1.68892e-19 -1.34246e-19 0.0246164)
(5.96068e-21 -8.61677e-20 -0.00229501)
(-1.27305e-20 6.4676e-20 0.000148782)
(-5.31986e-20 6.00891e-20 0.000934196)
(2.50502e-21 2.1169e-20 0.00100596)
(-1.81432e-19 4.41237e-20 0.000952867)
(1.54013e-19 4.92642e-20 0.000855251)
(-6.56122e-20 4.34048e-20 0.000698143)
(2.9722e-20 7.52847e-20 0.000536889)
(-1.57929e-35 -8.35806e-21 0.000413465)
(-9.10439e-21 1.14748e-20 0.000267352)
(1.00447e-20 -2.6197e-21 0.000156849)
(-3.91573e-21 -9.46909e-20 7.67686e-05)
(-8.13975e-20 -2.60968e-20 1.9788e-05)
(-5.64707e-22 2.26621e-21 -9.75339e-07)
(2.00028e-18 -8.24972e-19 0.142938)
(3.40594e-20 -5.54671e-20 0.0807601)
(-3.32311e-19 -6.14021e-19 0.00565946)
(1.75262e-19 4.6979e-19 -0.00135455)
(-8.14433e-19 1.91042e-19 0.000726203)
(2.39029e-20 1.93701e-19 0.00092918)
(3.68031e-20 -2.2791e-20 0.000980573)
(2.91896e-20 8.91252e-20 0.000882148)
(-6.10119e-20 2.76349e-20 0.000752675)
(6.17558e-21 -1.2107e-20 0.000591072)
(2.33567e-21 -8.49453e-21 0.000453402)
(7.31484e-21 8.793e-21 0.000297114)
(1.0026e-22 -1.89382e-21 0.00017248)
(-1.98947e-20 -1.26297e-20 0.000122936)
(-1.86759e-21 -2.65186e-21 5.97708e-05)
(7.97952e-21 1.65879e-20 2.30189e-05)
(1.01643e-20 1.62608e-20 -2.02633e-05)
(-9.20192e-19 1.09287e-18 0.164277)
(1.57726e-18 -9.75612e-20 0.163879)
(-1.14213e-19 1.62406e-19 0.0358485)
(7.87618e-21 2.57004e-21 -0.000139595)
(-4.80163e-20 -6.86815e-20 -0.000220613)
(1.22059e-20 -3.57243e-20 0.000875534)
(3.75719e-20 1.81819e-20 0.000881331)
(2.32407e-19 -9.35924e-20 0.000886569)
(8.43535e-20 4.3697e-20 0.000748847)
(-2.12019e-20 -2.0184e-20 0.000621579)
(-3.73152e-20 1.35066e-20 0.000455539)
(4.31321e-20 -2.24096e-21 0.000321348)
(-1.8842e-21 -1.91162e-21 0.000206008)
(-1.21915e-20 -1.17935e-20 0.000109659)
(7.77983e-20 -3.61948e-20 6.65291e-05)
(5.1592e-21 1.11436e-19 1.6487e-05)
(2.1497e-20 1.43053e-20 -3.22379e-06)
(7.23505e-22 -1.8496e-20 -8.92925e-06)
(1.44654e-18 3.9171e-20 0.0757164)
(-3.63768e-18 5.86716e-19 0.245574)
(1.29663e-18 1.92793e-19 0.0980264)
(4.78488e-32 -7.34065e-21 0.0135335)
(-1.42567e-19 -6.72909e-19 -0.0011195)
(3.76118e-20 -3.52509e-19 0.000407957)
(3.29904e-19 9.11691e-20 0.000817444)
(2.55209e-19 1.36566e-19 0.000781365)
(5.89138e-20 -6.93941e-20 0.000728379)
(-4.67203e-20 -2.82722e-20 0.000609125)
(1.19848e-21 -2.24639e-21 0.000475824)
(2.32247e-20 6.87838e-20 0.000354754)
(7.77832e-20 -3.2779e-20 0.000238754)
(5.57129e-21 -1.54654e-20 0.000135315)
(-2.70175e-21 -1.60435e-20 7.59576e-05)
(-6.98473e-21 1.72342e-20 2.52751e-05)
(-2.25971e-21 -1.10032e-19 1.52022e-05)
(-8.37082e-20 -3.30353e-20 -1.95314e-05)
(-3.4222e-23 1.99044e-21 -2.28755e-06)
(-1.63613e-18 -9.00551e-19 -0.0213654)
(-2.70884e-18 3.68627e-19 0.261631)
(1.77147e-18 -1.51897e-18 0.179196)
(-8.20092e-33 1.05057e-20 0.0537241)
(1.37202e-19 9.68953e-20 0.0017748)
(2.18911e-20 -1.77929e-19 -0.00051745)
(8.60882e-20 -2.68072e-20 0.000619879)
(4.55356e-20 4.0647e-20 0.000705235)
(-1.57671e-19 1.16913e-19 0.000643529)
(-4.52175e-20 -1.04614e-19 0.000575422)
(-2.50823e-20 -3.01308e-20 0.000460808)
(4.36726e-20 4.15874e-20 0.000357863)
(-1.86634e-21 -1.48303e-20 0.000232963)
(7.15077e-20 -4.42807e-20 0.000144244)
(-3.39314e-21 -1.63587e-20 7.85273e-05)
(6.70728e-22 2.10215e-21 4.50786e-05)
(-2.09894e-20 1.73442e-20 1.89106e-05)
(-8.53564e-22 -1.20544e-20 1.83287e-05)
(1.47056e-20 3.91502e-21 8.0418e-06)
(-5.2311e-22 1.67583e-20 1.05407e-05)
(-7.43118e-19 1.83632e-18 -0.238495)
(7.72646e-18 1.51439e-18 0.180791)
(-4.9252e-18 3.76407e-18 0.245474)
(-1.30341e-32 5.25557e-20 0.124353)
(-6.82344e-20 1.02899e-18 0.0189771)
(-2.10819e-20 4.09693e-21 -0.00147721)
(3.28128e-19 -5.23928e-19 2.01155e-05)
(4.74555e-19 3.59295e-19 0.000468218)
(-9.82511e-21 -3.0812e-20 0.000544838)
(-7.27653e-20 -1.95927e-19 0.000451894)
(8.56369e-20 1.78943e-20 0.000399494)
(-5.69938e-20 1.59121e-20 0.000282528)
(-4.7043e-20 7.27486e-20 0.000220543)
(-8.59119e-20 -1.11478e-19 0.000131445)
(-7.41203e-21 -2.98598e-20 6.04212e-05)
(-9.67259e-22 2.35074e-21 4.31988e-05)
(-1.09821e-20 1.93659e-20 3.50412e-05)
(8.91907e-20 -3.51666e-20 2.55891e-05)
(1.63509e-22 1.99695e-21 4.93876e-05)
(-8.29978e-20 2.60088e-20 -9.04071e-06)
(9.35762e-21 -8.91983e-21 8.35683e-06)
(4.76706e-19 3.67227e-18 -0.376202)
(6.6417e-19 6.08542e-20 0.0262717)
(-2.62709e-18 -6.69369e-20 0.255416)
(-1.76989e-33 -1.08665e-19 0.208157)
(-1.74595e-18 1.85295e-19 0.0638317)
(-1.86746e-19 1.04939e-18 0.00181814)
(-2.10211e-19 2.08339e-20 -0.00149219)
(5.52681e-19 4.93448e-19 -0.000271429)
(3.08408e-19 -2.60929e-19 0.000111493)
(2.01901e-21 -1.16857e-20 0.000298968)
(-3.50488e-21 -5.98861e-21 0.000264679)
(6.27439e-21 -2.07191e-21 0.000212513)
(-1.59258e-21 2.86107e-21 0.000166951)
(-3.13662e-20 8.17203e-20 0.000113415)
(-3.16534e-20 -9.78765e-20 4.42256e-05)
(1.54349e-20 1.44983e-20 9.92841e-06)
(1.48845e-20 1.77111e-20 -2.05824e-06)
(-5.67048e-22 -2.10179e-20 1.36592e-05)
(-1.58474e-20 2.79914e-21 3.1693e-05)
(-2.40955e-21 1.99902e-20 3.00187e-05)
(1.17893e-20 -9.5082e-21 3.45295e-06)
(5.27213e-21 -1.43519e-19 3.29376e-05)
(9.40581e-20 -1.19064e-18 -0.455204)
(-1.65184e-18 -3.51317e-18 -0.161256)
(5.84113e-18 -4.0799e-18 0.195572)
(-5.89881e-33 -2.04398e-20 0.271327)
(4.57371e-18 -1.38948e-18 0.137176)
(3.41291e-19 -2.05307e-18 0.021756)
(-3.41083e-19 1.03974e-18 -0.00354545)
(1.06932e-19 9.73035e-20 -0.00172747)
(-8.40105e-21 -2.82588e-21 -0.00112113)
(-5.06006e-20 -4.82351e-19 -0.000470127)
(-8.95237e-35 2.61698e-21 -8.92595e-05)
(-1.03316e-21 -3.04068e-20 8.71094e-06)
(-4.34028e-21 -1.65428e-20 5.37191e-05)
(1.33688e-19 5.5219e-20 2.26864e-05)
(8.72457e-20 -8.37678e-20 2.66617e-06)
(7.42054e-20 1.17166e-19 -6.66219e-06)
(1.10513e-19 -2.58443e-21 -1.7306e-05)
(-4.82691e-22 -2.29891e-20 1.37029e-05)
(-1.12295e-22 1.98603e-21 2.03821e-05)
(8.45242e-20 4.24489e-20 5.90485e-05)
(-5.29089e-21 3.95016e-20 6.6537e-05)
(-3.03959e-20 -1.65155e-19 4.85437e-05)
(-2.61233e-21 1.55438e-20 3.20777e-05)
(2.24073e-19 -5.78276e-19 -0.47913)
(-1.13581e-20 -4.32606e-19 -0.336897)
(2.28512e-18 1.88952e-18 0.080004)
(-2.72339e-32 1.30314e-19 0.285816)
(-5.27925e-19 -1.17568e-18 0.222976)
(-8.81187e-20 -1.39051e-18 0.0664235)
(1.38649e-18 4.88027e-19 0.00174789)
(1.11122e-18 9.91629e-19 -0.00440785)
(4.30076e-19 7.22141e-19 -0.00270937)
(4.21641e-19 -8.3722e-19 -0.00219452)
(-1.96368e-34 -2.07879e-21 -0.00129277)
(1.65645e-19 -2.2364e-19 -0.000648241)
(-5.58532e-20 -1.31674e-19 -0.000301638)
(-1.7681e-20 -7.38655e-22 -8.68977e-05)
(-4.67132e-20 7.95388e-21 -5.84823e-05)
(-1.77016e-20 -4.62299e-20 -5.21791e-05)
(-1.47744e-20 -7.01827e-21 -3.2646e-05)
(-2.95217e-22 -4.48486e-20 -1.68977e-05)
(-1.96233e-22 1.98743e-21 1.12543e-05)
(-1.36124e-21 1.99931e-20 7.75564e-05)
(-1.28125e-20 -1.35764e-20 9.93845e-05)
(2.4016e-21 -1.10033e-20 9.94785e-05)
(1.06547e-19 3.25816e-20 5.98661e-05)
(-6.36009e-21 1.20962e-19 4.89109e-05)
(3.03614e-20 -7.57427e-20 -0.474507)
(3.70244e-20 -4.93499e-19 -0.375461)
(-4.53249e-20 -1.08566e-18 -0.0630211)
(1.33379e-20 2.31939e-20 0.244912)
(-7.8085e-18 2.9707e-18 0.296343)
(9.5174e-19 4.64687e-18 0.137639)
(-3.16296e-18 -1.07712e-18 0.0202451)
(1.91172e-19 1.70051e-19 -0.0046412)
(-1.00802e-18 5.04136e-19 -0.00490412)
(-3.27648e-19 -9.70093e-19 -0.0036409)
(-1.90784e-36 5.72469e-21 -0.00294917)
(7.91064e-20 -2.55196e-20 -0.00215188)
(2.20349e-21 -9.79969e-21 -0.00142186)
(-2.85191e-20 -3.03879e-20 -0.000667259)
(-1.18779e-19 1.58849e-19 -0.000168807)
(-1.39842e-19 -1.10778e-19 -0.000121054)
(-9.12781e-20 1.04131e-19 -0.000109844)
(1.80824e-20 -1.6199e-19 -5.79192e-05)
(2.06355e-20 3.95595e-21 1.51585e-05)
(-3.94772e-21 2.23282e-20 7.52106e-05)
(-1.25895e-20 -1.19618e-20 0.000127567)
(9.73842e-20 -1.64437e-19 0.000144103)
(-2.90751e-20 1.3159e-19 0.000143067)
(3.89605e-20 1.34194e-19 9.21033e-05)
(-8.399e-22 3.82549e-21 4.90372e-05)
(1.74068e-18 -3.66622e-19 -0.449024)
(-3.68034e-20 8.67251e-18 -0.385426)
(-1.37064e-18 8.72959e-19 -0.264851)
(2.5787e-18 3.62296e-18 0.161418)
(1.16857e-18 1.94225e-18 0.337972)
(2.59029e-19 4.50978e-19 0.227341)
(-1.50057e-20 -1.74762e-18 0.060349)
(2.63497e-18 1.93058e-18 -0.00197452)
(4.63708e-19 -6.1075e-19 -0.00744032)
(-1.50102e-18 -1.03306e-18 -0.00608554)
(-3.93248e-33 4.32743e-21 -0.00338307)
(5.81453e-19 2.12797e-19 -0.00256731)
(1.79789e-19 2.50034e-19 -0.00276679)
(-6.96306e-19 9.46882e-20 -0.00235648)
(-1.5845e-19 1.89955e-19 -0.00111691)
(-2.94499e-20 2.9334e-20 -0.000270862)
(1.14375e-19 2.14935e-19 -0.000150753)
(1.68042e-19 -3.85036e-20 -9.23291e-05)
(2.43341e-20 1.12626e-20 -1.15194e-05)
(-1.14264e-20 4.55818e-20 6.99149e-05)
(1.23806e-20 -5.84971e-21 0.000135603)
(5.72434e-20 -1.72942e-19 0.000183585)
(-1.15951e-19 -2.38873e-20 0.000189214)
(-2.05623e-20 5.31932e-20 0.000193403)
(5.93995e-20 1.31196e-20 0.000109904)
(2.79201e-22 -1.42836e-21 4.66654e-05)
(1.35819e-18 8.74528e-20 -0.419339)
(-1.24009e-19 3.4305e-18 -0.361974)
(4.83766e-21 -4.47987e-20 -0.345797)
(1.83838e-20 -1.57476e-19 0.0840511)
(-1.45775e-18 -2.41893e-19 0.321767)
(-1.53444e-18 -2.40998e-18 0.318407)
(5.94459e-18 4.90755e-19 0.129777)
(3.49348e-18 2.03404e-18 0.00985516)
(1.89096e-18 -1.80591e-18 -0.0147321)
(1.8898e-19 -1.35939e-19 -0.0139013)
(-3.11678e-34 -3.56315e-21 -0.00790763)
(-1.73875e-19 1.11588e-19 -0.00108231)
(1.16236e-19 1.4848e-19 -0.000260663)
(-6.6131e-20 6.79386e-20 -0.00265568)
(-6.96668e-20 -1.84064e-21 -0.00335194)
(5.10398e-20 7.41645e-22 -0.00159735)
(2.42875e-20 4.18526e-20 -0.000293338)
(-7.20733e-20 -2.69323e-20 -0.000129505)
(4.4823e-22 2.29212e-22 -7.36391e-05)
(2.35609e-20 1.63162e-19 3.30088e-05)
(1.2145e-19 1.94592e-20 0.000146171)
(7.90196e-20 -1.89743e-19 0.000218412)
(-1.08618e-21 1.58413e-20 0.000242908)
(-1.20708e-19 1.05683e-19 0.000263287)
(5.95127e-20 -1.6316e-19 0.000230934)
(-7.90454e-20 -1.8756e-20 0.000154101)
(4.82714e-22 -8.39796e-21 7.31234e-05)
(1.08972e-19 -1.71527e-19 -0.358238)
(-6.562e-19 -6.02728e-18 -0.331687)
(2.10891e-19 -6.85198e-18 -0.306264)
(5.59912e-19 2.74681e-18 0.0189048)
(9.69121e-18 -2.75275e-18 0.301581)
(-1.67684e-19 -2.38997e-19 0.389937)
(7.36459e-19 2.15681e-18 0.220425)
(4.66159e-18 1.93071e-18 0.0392765)
(1.07334e-18 -1.84503e-18 -0.0234326)
(-1.364e-18 -3.12395e-18 -0.0343582)
(2.03473e-34 -1.72399e-20 -0.0282989)
(-1.18753e-18 -5.3549e-19 -0.0108189)
(9.1743e-21 -2.59878e-21 0.00340703)
(1.4611e-19 7.65111e-19 0.00447006)
(-1.17286e-19 -4.82458e-19 -0.00162883)
(4.37223e-19 2.49386e-19 -0.00421325)
(7.66276e-20 2.1859e-20 -0.00195299)
(-2.71811e-19 4.23778e-20 -0.00030306)
(-3.48594e-20 4.63243e-21 -0.000100432)
(1.92233e-19 2.36498e-20 -1.167e-05)
(7.40177e-20 -2.87657e-19 0.000120835)
(-7.2284e-20 -3.07544e-19 0.000222992)
(-2.10019e-21 1.57906e-20 0.000314605)
(-7.95365e-20 1.34405e-19 0.000316604)
(-6.794e-20 -1.98965e-20 0.00031292)
(-1.3939e-21 1.41291e-20 0.000268827)
(3.58817e-20 1.37454e-21 0.00020013)
(-2.23763e-22 -5.1795e-21 6.6616e-05)
(-1.42147e-19 -3.54926e-19 -0.23436)
(6.80922e-19 -5.85253e-18 -0.298957)
(5.75083e-19 2.73957e-18 -0.246518)
(3.93945e-18 -9.49731e-18 -0.0173478)
(-3.452e-18 -9.01891e-18 0.289203)
(-1.95579e-19 -3.39459e-19 0.418647)
(9.74279e-19 -6.66872e-19 0.337709)
(4.86601e-18 1.20121e-18 0.100286)
(1.63289e-18 2.28574e-18 -0.025485)
(4.73304e-20 -4.59053e-18 -0.0624939)
(-8.59296e-34 9.81169e-20 -0.0706931)
(6.54015e-19 -1.68025e-18 -0.0529287)
(-1.18016e-18 -7.35659e-19 -0.0154831)
(1.33747e-19 -2.2053e-19 0.00978479)
(-1.4845e-19 -9.24008e-21 0.0113012)
(5.56225e-20 1.04839e-19 -2.02074e-05)
(-3.12951e-19 -3.44094e-19 -0.00487661)
(-3.33869e-19 -1.45716e-21 -0.00209453)
(-4.44499e-20 6.40458e-21 -0.000246882)
(-7.48012e-20 2.81889e-20 -4.63811e-05)
(-1.09654e-19 -1.14275e-19 8.24458e-05)
(6.68208e-20 -1.26146e-19 0.000211681)
(1.45771e-19 1.1603e-19 0.000344929)
(-1.06211e-19 1.41201e-19 0.000388948)
(-9.19624e-21 3.8819e-21 0.000387045)
(7.49608e-20 4.28492e-20 0.000369707)
(-2.04353e-20 3.9779e-20 0.000306056)
(-1.75157e-20 -4.66462e-21 0.000205316)
(7.83295e-21 -5.6334e-20 6.10142e-05)
(5.83997e-19 -7.37831e-19 -0.103052)
(3.05408e-19 7.55831e-19 -0.256278)
(-7.8802e-19 5.21441e-18 -0.178333)
(1.69482e-19 -4.8203e-18 -0.024123)
(8.96794e-18 -3.08412e-18 0.295882)
(-5.41951e-19 -1.5777e-18 0.454035)
(-1.15102e-17 6.63171e-19 0.413635)
(2.42555e-18 3.92231e-18 0.197946)
(-3.28375e-18 4.53364e-18 -0.00278506)
(-3.74861e-18 -5.6662e-18 -0.0878145)
(2.24482e-33 8.37392e-20 -0.123383)
(-1.10714e-18 3.54436e-18 -0.125166)
(2.42357e-18 4.41318e-19 -0.0862816)
(-1.06807e-18 -9.32636e-19 -0.0213242)
(2.31e-18 -3.71286e-19 0.0178756)
(2.84445e-19 -9.5175e-19 0.0189508)
(1.92795e-20 1.31612e-19 0.00129407)
(-3.89818e-20 -7.36436e-20 -0.00532267)
(4.3402e-20 -1.16715e-21 -0.00196071)
(-2.97326e-19 1.90374e-20 -0.000160077)
(7.95838e-20 -2.34044e-19 3.59505e-05)
(3.54752e-19 -2.73841e-20 0.000215507)
(-6.53818e-20 2.501e-19 0.000321523)
(-1.51296e-19 1.3989e-19 0.000448182)
(-1.36263e-20 4.03665e-21 0.000480131)
(9.75289e-22 -1.37818e-21 0.000480881)
(-2.34342e-20 -3.02924e-20 0.000409051)
(1.4851e-20 -2.98113e-20 0.00032745)
(1.38232e-20 -5.39041e-20 0.000202945)
(-7.55487e-22 1.12482e-20 5.97458e-05)
(8.28129e-20 2.61313e-20 -0.0133738)
(5.27062e-19 2.80518e-19 -0.19634)
(-1.935e-19 -1.71753e-19 -0.11243)
(2.55581e-18 4.17921e-18 0.0150388)
(-6.57557e-18 4.16107e-18 0.320196)
(-1.26526e-17 2.11543e-18 0.48933)
(-1.39663e-19 2.68972e-20 0.499307)
(-7.72629e-18 -2.77468e-19 0.304793)
(-3.381e-18 5.27467e-18 0.0466646)
(-4.13289e-18 2.10922e-19 -0.0970368)
(-7.23546e-33 1.78766e-20 -0.17263)
(1.89284e-18 -1.00717e-18 -0.206672)
(1.8954e-18 -6.20415e-19 -0.190111)
(-1.62392e-18 1.20934e-18 -0.121223)
(-5.20892e-19 1.51713e-19 -0.0259886)
(-1.20754e-18 -2.61959e-19 0.0281839)
(-4.23451e-19 1.02099e-18 0.0257036)
(3.99232e-19 -4.71101e-19 0.00143387)
(7.78079e-23 2.543e-21 -0.00543889)
(-3.44322e-19 7.68808e-20 -0.00156432)
(-1.50871e-20 -1.24092e-20 -3.60963e-05)
(2.97394e-20 -2.50552e-20 0.000160447)
(1.93358e-19 -2.07339e-19 0.000329924)
(-3.03634e-19 2.08391e-20 0.000467395)
(7.58881e-20 1.16723e-19 0.000555507)
(2.01116e-22 -1.35101e-21 0.000561642)
(7.49747e-21 -6.48683e-21 0.000503742)
(8.36072e-21 1.10623e-20 0.000444346)
(-9.05957e-21 1.66125e-20 0.000326297)
(4.0902e-20 1.38159e-20 0.000230538)
(-1.81098e-21 3.75059e-20 5.15501e-05)
(-3.24659e-20 -1.95891e-18 0.123646)
(1.13295e-18 -5.33882e-19 -0.119611)
(4.6375e-19 -7.76764e-21 -0.0249035)
(1.74224e-19 -1.20843e-18 0.0908913)
(1.22647e-18 4.33408e-18 0.362486)
(-4.60752e-18 1.09007e-18 0.518084)
(-2.73691e-18 -1.31385e-18 0.575718)
(2.0023e-19 -3.22566e-18 0.414111)
(7.15949e-18 3.42345e-18 0.136773)
(-6.46442e-19 -1.84093e-18 -0.084014)
(4.10339e-20 3.78191e-20 -0.205779)
(1.41952e-18 -3.94832e-18 -0.283246)
(-5.72393e-18 3.94052e-18 -0.299044)
(4.08535e-18 -2.5359e-18 -0.250267)
(1.95418e-18 -4.83509e-19 -0.158159)
(2.50292e-19 2.08199e-22 -0.0200721)
(-9.01013e-19 -8.18113e-19 0.0409557)
(-1.04975e-19 -1.55613e-19 0.0299074)
(-7.44185e-20 2.24625e-20 0.000139715)
(-1.10216e-20 9.87479e-20 -0.00508941)
(3.60253e-20 5.74813e-21 -0.00104341)
(2.68407e-19 -4.60618e-19 0.000103439)
(-3.5244e-19 1.7404e-19 0.000314137)
(2.13438e-20 3.26392e-19 0.00048994)
(-2.54701e-20 3.33806e-21 0.000605076)
(-6.10586e-21 -1.32662e-20 0.000635253)
(9.02025e-21 -5.38039e-21 0.000612169)
(7.1847e-22 -5.06651e-21 0.000546654)
(4.359e-20 -4.35321e-20 0.000454534)
(9.40515e-21 -1.61373e-20 0.000350307)
(-1.61731e-20 3.39358e-20 0.000210775)
(4.57273e-22 -4.53491e-20 4.19991e-05)
(1.16001e-19 -1.45518e-18 0.138225)
(9.20209e-19 -2.84748e-19 -0.0323412)
(-2.54461e-19 -1.83558e-19 0.06458)
(6.28112e-18 2.00707e-18 0.198281)
(4.91457e-18 -1.76295e-18 0.419852)
(-3.33027e-18 -2.32476e-18 0.557185)
(2.03858e-18 -8.26199e-19 0.622403)
(2.09435e-18 -2.07995e-19 0.526648)
(1.53766e-18 -3.80289e-18 0.240053)
(-1.24326e-18 -1.38015e-18 -0.0344674)
(-3.07649e-18 4.37643e-18 -0.217872)
(-2.21845e-18 2.48381e-18 -0.341073)
(-7.37821e-19 7.80266e-19 -0.403433)
(1.75906e-18 -1.2058e-18 -0.380311)
(5.2547e-19 -4.80906e-20 -0.287963)
(3.02873e-19 -2.21083e-19 -0.16164)
(1.01591e-18 -1.40603e-18 0.001772)
(1.45719e-18 2.14955e-18 0.0554162)
(9.15136e-19 -4.89776e-19 0.0301673)
(5.51803e-19 2.89535e-19 -0.00215743)
(-1.85883e-19 4.81693e-19 -0.00422221)
(4.05055e-19 -5.9363e-19 -0.000507777)
(-2.89538e-19 -2.91954e-19 0.000272212)
(-1.559e-19 4.23097e-19 0.000461224)
(-2.25296e-19 9.79511e-20 0.000631808)
(-5.73055e-21 -1.58614e-20 0.000699214)
(4.33485e-20 9.71799e-20 0.000742534)
(-5.29381e-22 -4.68667e-21 0.000661101)
(5.208e-20 -2.81373e-20 0.000600319)
(-2.39685e-20 -7.40921e-21 0.00045311)
(-6.3831e-21 2.31314e-20 0.00033469)
(1.35323e-20 -4.35016e-20 0.000210071)
(-8.3975e-22 1.02538e-20 2.17134e-05)
(6.25179e-19 -1.12536e-18 0.165354)
(-6.99929e-19 -5.9862e-18 0.0995294)
(-1.74375e-20 1.09484e-20 0.169563)
(3.06948e-18 7.94756e-19 0.316722)
(7.64831e-19 -8.59033e-19 0.487799)
(2.01088e-18 -1.9075e-19 0.605134)
(-5.26418e-19 6.95243e-19 0.664042)
(-4.11064e-18 1.51146e-19 0.608669)
(3.41211e-18 8.09003e-19 0.35696)
(1.65452e-18 -2.96096e-18 0.0400283)
(-9.49628e-20 2.06324e-19 -0.199446)
(5.53237e-19 -1.20222e-18 -0.375984)
(2.76941e-18 -3.62167e-18 -0.489054)
(-5.71719e-18 2.973e-18 -0.510017)
(-4.16217e-19 1.1171e-20 -0.4324)
(2.786e-19 7.52486e-21 -0.297635)
(-2.28958e-18 -5.26031e-19 -0.104584)
(-3.68135e-19 -3.83906e-19 0.0334046)
(-2.5724e-21 -4.53074e-20 0.0683714)
(6.72938e-21 1.77868e-19 0.0256965)
(-6.41051e-20 -5.06534e-20 -0.00429913)
(-9.84391e-21 3.80431e-21 -0.00291139)
(3.95338e-19 4.70767e-19 -7.70165e-05)
(-6.16993e-19 -9.70577e-20 0.0004136)
(3.42899e-19 -1.21988e-19 0.000615661)
(-5.81506e-22 -1.30485e-21 0.000771233)
(-1.7703e-20 -1.82229e-21 0.000813084)
(-9.03658e-21 1.67516e-21 0.000802396)
(7.09065e-20 -1.46808e-21 0.000714263)
(-1.04629e-21 1.09034e-20 0.000575757)
(-1.1401e-20 2.00021e-20 0.000461955)
(-6.94665e-22 7.33652e-21 0.000312711)
(3.13179e-20 5.70496e-21 0.00017718)
(1.67335e-21 4.27634e-20 1.26336e-05)
(-3.50345e-19 -4.39e-19 0.213597)
(1.0746e-19 1.78836e-18 0.154733)
(-1.11427e-18 -1.42514e-19 0.271079)
(5.37449e-18 -1.26531e-18 0.411712)
(1.72795e-18 3.16306e-19 0.563361)
(-1.35561e-17 -1.43232e-18 0.663363)
(-2.12212e-19 2.2964e-19 0.711236)
(2.48644e-18 -4.20307e-19 0.670193)
(-1.45546e-19 -1.05513e-18 0.460824)
(-9.98851e-19 1.65448e-19 0.134062)
(2.82051e-18 -4.16247e-18 -0.154866)
(-1.14918e-18 3.23246e-18 -0.377597)
(3.04825e-19 -3.41714e-19 -0.550101)
(-2.29529e-18 2.94175e-18 -0.623344)
(1.19187e-17 -3.48291e-18 -0.582868)
(7.87318e-20 8.3777e-19 -0.426961)
(-6.13801e-19 -4.35493e-20 -0.283102)
(1.4485e-18 1.13021e-18 -0.0505865)
(8.39701e-21 9.57131e-21 0.0696056)
(2.76979e-19 -2.8602e-18 0.0745471)
(-8.60085e-19 -1.87408e-19 0.0173457)
(7.68048e-19 -9.61806e-19 -0.00524569)
(4.02831e-19 -3.12874e-19 -0.00154691)
(-6.99641e-19 6.72505e-21 0.000237972)
(-1.55978e-19 -3.44047e-19 0.000610285)
(2.48832e-21 3.42691e-20 0.000779708)
(-2.05544e-19 -8.81516e-21 0.00087282)
(4.31902e-20 1.08838e-19 0.000890339)
(7.81042e-20 5.95989e-20 0.000793857)
(-8.25551e-22 1.02941e-20 0.000703134)
(-1.93107e-20 1.27012e-21 0.000561077)
(-6.93209e-22 -2.45933e-20 0.00041392)
(5.55773e-22 -3.45228e-21 0.000271273)
(3.20686e-20 3.67298e-20 0.000154523)
(2.99854e-23 -5.48214e-21 3.54499e-06)
(1.00131e-19 2.12746e-18 0.229596)
(-1.32224e-19 8.1874e-18 0.204144)
(2.00926e-18 3.34103e-18 0.3645)
(-1.08373e-18 -4.67636e-19 0.50712)
(2.40905e-18 -2.37575e-18 0.643907)
(-5.24759e-18 5.06983e-19 0.730302)
(5.49736e-18 7.29308e-19 0.766409)
(1.40359e-17 3.1588e-19 0.727977)
(-4.08687e-18 -1.79598e-18 0.561402)
(-5.5952e-18 3.06251e-18 0.230157)
(-3.41036e-18 2.83086e-18 -0.0877031)
(-1.92018e-19 4.07107e-19 -0.354107)
(2.93188e-19 -8.31077e-19 -0.5714)
(-1.79113e-19 -7.11644e-19 -0.710797)
(-1.52781e-18 4.99875e-19 -0.719469)
(-4.88134e-18 3.31106e-19 -0.609322)
(-2.78599e-19 -4.30701e-19 -0.419741)
(4.65875e-19 2.70452e-19 -0.1993)
(5.31318e-19 -3.64838e-19 0.00716524)
(-3.39154e-20 6.05668e-19 0.10441)
(-4.81469e-19 1.58227e-18 0.0696685)
(1.63651e-18 -7.34395e-19 0.00773388)
(-5.99054e-19 -8.73945e-19 -0.004627)
(1.0892e-20 -2.84109e-21 -0.000415599)
(-5.55699e-20 4.33732e-20 0.00047187)
(4.9384e-21 3.58503e-20 0.000787593)
(-1.73242e-20 -4.70107e-21 0.000921317)
(8.37736e-22 -1.34768e-20 0.000956797)
(1.61906e-20 -3.74122e-21 0.000912395)
(-2.60721e-20 5.07793e-20 0.000815768)
(-2.37011e-20 -2.13843e-20 0.000669559)
(1.03686e-21 -1.05414e-20 0.000533943)
(-1.96957e-20 2.38596e-20 0.000384907)
(-3.59988e-21 -1.25218e-20 0.000242726)
(-1.3211e-20 -2.40001e-21 0.000111322)
(-3.5862e-22 -5.683e-21 -3.3198e-06)
(7.4133e-19 2.90614e-18 0.258641)
(-5.3914e-19 -2.49778e-18 0.235476)
(7.0441e-19 2.12558e-18 0.452128)
(4.89317e-18 9.54821e-18 0.596211)
(4.45049e-18 -7.14737e-18 0.723463)
(-1.15751e-17 -1.83759e-18 0.80289)
(5.64874e-18 7.25558e-19 0.829401)
(-2.03746e-18 -5.58153e-19 0.786551)
(-7.32041e-18 -7.11799e-19 0.635076)
(8.55257e-19 5.86849e-19 0.328584)
(2.21319e-18 -3.29887e-18 -0.0126542)
(-9.01861e-20 4.38945e-19 -0.305368)
(1.84929e-18 -3.15545e-18 -0.570746)
(8.09286e-18 -3.59468e-18 -0.758503)
(5.61721e-18 2.58672e-18 -0.828394)
(8.7834e-19 -6.7045e-19 -0.760934)
(-8.02826e-18 -3.28921e-19 -0.59114)
(-5.52506e-19 -2.99792e-19 -0.368588)
(-1.49553e-18 3.23991e-19 -0.109348)
(-8.30014e-20 -1.87372e-18 0.0790366)
(1.84942e-18 -6.09454e-19 0.126206)
(-1.7284e-18 2.1901e-18 0.0536647)
(1.08489e-18 1.63641e-18 0.000293703)
(-8.32854e-19 8.98062e-19 -0.00300825)
(8.20058e-20 -1.33012e-20 0.000283443)
(1.78407e-20 -3.7361e-19 0.00068163)
(1.18755e-19 -3.01603e-19 0.000953876)
(3.1374e-19 -7.41396e-20 0.00100255)
(2.66151e-19 1.05085e-19 0.00101669)
(9.57109e-21 6.25043e-20 0.000916418)
(-2.69662e-20 -5.23708e-20 0.000798639)
(-1.57692e-21 1.106e-20 0.000642372)
(-3.81833e-22 9.923e-21 0.000474045)
(-6.98307e-22 4.24562e-20 0.000306873)
(-1.37057e-22 3.3094e-21 0.000184111)
(2.25435e-20 -1.15724e-20 8.37044e-05)
(-8.60475e-24 9.86749e-22 -7.4885e-06)
(1.19442e-18 -2.52949e-18 0.299052)
(-2.01964e-18 -6.09301e-18 0.338085)
(-1.58685e-18 -4.45736e-18 0.539769)
(2.52197e-19 3.96689e-21 0.6725)
(1.779e-18 3.5192e-18 0.798465)
(-4.84908e-18 -4.43495e-18 0.874972)
(5.71543e-18 -1.69415e-18 0.896326)
(-1.05027e-18 2.12341e-18 0.847307)
(-6.0172e-18 -2.74953e-18 0.704722)
(-6.42223e-18 -9.05984e-19 0.422749)
(2.81823e-18 -1.1912e-18 0.0266433)
(5.24518e-19 -5.18186e-19 -0.245515)
(-3.11546e-18 4.75711e-18 -0.53556)
(-2.31589e-19 3.07118e-19 -0.793734)
(-5.35692e-18 1.50745e-18 -0.9108)
(1.41717e-18 -2.18692e-18 -0.885259)
(1.04782e-18 2.34044e-18 -0.741045)
(1.11929e-17 2.67554e-18 -0.518598)
(2.33095e-18 6.44056e-19 -0.252108)
(-1.04493e-19 -4.61457e-19 -0.00134321)
(-2.80924e-19 1.29198e-19 0.144143)
(7.70269e-19 -3.00149e-18 0.125209)
(1.03812e-18 -7.67394e-19 0.0317746)
(-1.29875e-18 5.06755e-19 -0.00307964)
(-1.11641e-19 -6.65041e-20 -0.00129797)
(-8.11105e-21 4.78921e-21 0.000666884)
(3.58295e-20 5.75492e-20 0.000853702)
(4.14137e-21 -1.99005e-20 0.00104578)
(1.18852e-20 1.91717e-20 0.00105915)
(-8.54174e-20 -1.11913e-19 0.00101181)
(-5.62699e-20 2.08021e-20 0.000895681)
(-6.04295e-21 4.37363e-20 0.000734858)
(-5.34233e-22 9.60866e-21 0.000559519)
(3.00595e-20 1.99297e-20 0.00040553)
(1.11802e-20 -1.44019e-20 0.00027062)
(6.88883e-21 1.36056e-20 0.000163495)
(9.31479e-21 -2.38879e-22 5.5308e-05)
(3.20469e-22 7.61281e-21 6.21654e-06)
(-1.31483e-18 -3.30715e-18 0.30266)
(-1.7635e-19 -1.02377e-19 0.400173)
(-2.27503e-18 7.41582e-19 0.599167)
(-2.3484e-18 -5.97571e-18 0.732812)
(-1.13043e-18 1.2323e-18 0.865374)
(-2.96464e-18 -3.31407e-18 0.937491)
(-2.23281e-18 -3.39505e-18 0.960512)
(-6.36972e-18 -3.43669e-18 0.907819)
(-1.09587e-17 -1.83583e-18 0.76772)
(1.73212e-18 -1.24065e-19 0.503249)
(-1.49808e-19 4.47238e-19 0.104161)
(4.11678e-19 -1.21157e-18 -0.176863)
(-1.21761e-18 2.12923e-18 -0.481924)
(4.21433e-19 -2.85964e-19 -0.768062)
(3.05782e-18 -8.3246e-18 -0.985327)
(-1.23063e-17 -3.13998e-18 -1.00223)
(-9.63557e-18 -7.94741e-19 -0.875714)
(-1.40914e-18 -1.58745e-19 -0.661838)
(-3.2581e-19 -4.77532e-19 -0.396952)
(2.68789e-19 4.79909e-19 -0.117593)
(-7.33609e-20 -5.59622e-21 0.107268)
(-2.64486e-18 3.53733e-18 0.18176)
(7.18164e-19 2.90883e-19 0.101256)
(2.14981e-18 -6.83594e-19 0.0120977)
(-1.72974e-19 -6.95359e-19 -0.00292465)
(-1.01301e-19 6.58032e-19 -0.000117864)
(-9.26663e-19 -3.42164e-19 0.000840849)