/*--------------------------------*- C++ -*----------------------------------*\
| =========                 |                                                 |
| \\      /  F ield         | OpenFOAM: The Open Source CFD Toolbox           |
|  \\    /   O peration     | Version:  2506                                  |
|   \\  /    A nd           | Website:  www.openfoam.com                      |
|    \\/     M anipulation  |                                                 |
\*---------------------------------------------------------------------------*/
FoamFile
{
    version     2.0;
    format      ascii;
    arch        "LSB;label=32;scalar=64";
    class       volVectorField;
    location    "160.018072304027271";
    object      ddt0(U);
}
// * * * * * * * * * * * * * * * * * * * * * * * * * * * * * * * * * * * * * //

dimensions      [0 1 -2 0 0 0 0];

internalField   nonuniform List<vector> 
9700
(
(-0.00117189 -0.000194905 -1.36172e-23)
(-0.00115368 -0.000747268 -2.98606e-24)
(-0.000496244 -0.000160988 -3.30071e-28)
(-0.00112195 -0.00126524 2.74986e-23)
(-0.000399356 -0.000647227 2.42534e-24)
(-0.000259246 -0.000121075 4.84951e-24)
(-0.00106317 -0.00195369 8.19125e-24)
(-0.000260328 -0.00107824 5.69468e-37)
(-0.000141352 -0.000515261 1.85012e-24)
(2.22026e-05 -7.0827e-05 0)
(-0.000969011 -0.00277902 -3.42888e-23)
(5.79909e-06 -0.00166052 -6.34856e-24)
(3.09543e-05 -0.000847637 9.54777e-23)
(0.00016418 -0.000343408 5.34781e-23)
(0.000151058 -1.63786e-05 2.98499e-24)
(-0.000815765 -0.00387189 -7.41277e-23)
(0.000387912 -0.00234394 3.18424e-27)
(0.00035886 -0.00130068 3.83864e-23)
(0.000375736 -0.000549219 1.72221e-36)
(0.000297493 -0.000150403 -6.97845e-24)
(0.000178173 3.73636e-05 -9.81033e-28)
(-0.000579878 -0.00529398 -1.54707e-22)
(0.000956543 -0.00324689 -4.59404e-27)
(0.000829265 -0.001826 4.92502e-23)
(0.000774643 -0.000834478 -1.37844e-22)
(0.000519748 -0.000217024 1.7186e-23)
(0.000315683 4.56913e-05 9.64822e-24)
(8.92559e-05 8.52025e-05 -2.15569e-23)
(-0.00023657 -0.00720635 -1.48427e-22)
(0.00177014 -0.00440165 -1.58693e-22)
(0.0015237 -0.00251407 1.5156e-23)
(0.00134765 -0.00115403 0)
(0.000936602 -0.000315422 2.85471e-23)
(0.000529008 0.000118957 -5.36703e-37)
(0.000202826 0.000225532 -3.19706e-23)
(-9.45945e-05 0.000122615 -2.13263e-22)
(0.000260865 -0.00972605 2.40931e-22)
(0.00288013 -0.00595655 1.35345e-22)
(0.0024994 -0.0033905 -2.13967e-22)
(0.00218946 -0.00156126 0)
(0.00153801 -0.000407144 2.61005e-23)
(0.00092663 0.000210225 -2.47165e-23)
(0.000384791 0.000425931 -1.27132e-26)
(-1.7399e-05 0.000371396 -2.53044e-22)
(-0.000350433 0.000145965 6.53434e-25)
(0.000986552 -0.0131421 2.86679e-22)
(0.00443617 -0.00800113 3.14043e-22)
(0.0038675 -0.00457109 9.94642e-22)
(0.00338018 -0.0020754 5.43477e-37)
(0.0024208 -0.000504446 -5.58221e-23)
(0.00150433 0.000350183 1.26911e-26)
(0.00072097 0.000691276 1.37681e-23)
(0.000114519 0.0006739 -3.49271e-23)
(-0.000319014 0.000468417 -4.10764e-23)
(-0.000645494 0.000152825 3.06672e-22)
(0.00197254 -0.0176593 -2.84033e-22)
(0.00656255 -0.0107936 -3.8812e-23)
(0.0057664 -0.00612394 9.6974e-23)
(0.00503004 -0.00276296 -1.7104e-22)
(0.00367228 -0.000612429 -4.53271e-22)
(0.00235309 0.000569892 -1.74555e-26)
(0.00121481 0.00104446 1.60489e-23)
(0.00035391 0.00108073 -2.76107e-22)
(-0.000251776 0.000837595 4.43046e-23)
(-0.000664758 0.000506204 3.21325e-22)
(-0.000943243 0.000142192 0)
(0.00340013 -0.0237563 -6.5421e-23)
(0.0094383 -0.0144608 -5.31576e-23)
(0.00834601 -0.00826844 -1.37749e-21)
(0.00734017 -0.00366127 -7.36633e-22)
(0.00541701 -0.000743337 -2.71975e-22)
(0.00356296 0.000879482 -6.36244e-22)
(0.0019419 0.00155752 -6.83006e-23)
(0.000712766 0.00160784 -2.68288e-22)
(-0.000136445 0.00133878 2.28509e-22)
(-0.000670737 0.000899267 -2.70952e-26)
(-0.00101296 0.000479994 -2.33436e-37)
(-0.00120615 0.000114626 4.34358e-23)
(0.0053719 -0.0316694 -3.27242e-21)
(0.0132644 -0.0195076 -4.4932e-22)
(0.011872 -0.0110988 2.60139e-22)
(0.0104799 -0.0049283 3.06596e-22)
(0.00787354 -0.000904373 7.63471e-22)
(0.00525689 0.00132651 8.57175e-23)
(0.00298563 0.00225757 -4.96348e-22)
(0.00124264 0.0023619 -3.01014e-22)
(4.70227e-05 0.0019822 -1.86624e-27)
(-0.000694651 0.00143734 4.0533e-22)
(-0.00109369 0.000850728 4.90053e-37)
(-0.00132086 0.000391281 4.0068e-23)
(-0.00139937 7.22321e-05 -2.97654e-28)
(0.00846383 -0.0420156 1.25713e-22)
(0.0182397 -0.0261202 -9.62535e-35)
(0.0165831 -0.0150791 1.4124e-22)
(0.0148186 -0.00662072 1.32061e-21)
(0.01123 -0.00115992 5.62555e-22)
(0.00766056 0.00194129 1.25547e-21)
(0.00445748 0.00325004 -1.67856e-22)
(0.00201198 0.00338638 -3.90153e-22)
(0.000319199 0.00289924 2.51233e-27)
(-0.00071021 0.00212616 4.53999e-22)
(-0.00125819 0.00136337 -2.0863e-37)
(-0.00147046 0.000694572 3.27186e-26)
(-0.00154888 0.000247567 3.23082e-24)
(-0.00149398 1.85462e-05 -4.91295e-23)
(0.0126339 -0.0547369 9.38132e-22)
(0.0246614 -0.0352331 8.91139e-22)
(0.0229568 -0.0203421 5.86201e-21)
(0.0206151 -0.00912198 1.55754e-21)
(0.0159346 -0.00152498 -3.78368e-23)
(0.0109752 0.00276855 -1.53117e-22)
(0.00656416 0.00460799 4.65722e-22)
(0.00310733 0.00483646 3.47235e-22)
(0.000726411 0.00414615 -4.11911e-22)
(-0.000731662 0.00310909 4.63773e-22)
(-0.0014767 0.00202027 0)
(-0.00176263 0.00112091 6.70764e-23)
(-0.0017545 0.000443859 -2.47468e-36)
(-0.00166444 6.17469e-05 -5.23252e-23)
(-0.00146995 -4.18072e-05 -6.4371e-23)
(0.0177813 -0.0709465 -8.90058e-21)
(0.0325334 -0.0464944 4.93873e-22)
(0.0311668 -0.0278714 8.30953e-22)
(0.0285485 -0.0125316 -1.55988e-34)
(0.0222951 -0.00222792 -3.84155e-22)
(0.01569 0.00384741 -2.05002e-22)
(0.00950662 0.00648968 2.64478e-22)
(0.00469345 0.00682925 -1.56288e-21)
(0.00131678 0.00591395 6.75038e-22)
(-0.000739591 0.00444859 2.72668e-22)
(-0.00179816 0.00296251 0)
(-0.00216721 0.00167028 7.32881e-23)
(-0.00214841 0.000730583 -7.01065e-24)
(-0.00190746 0.000121115 -3.81959e-22)
(-0.00164534 -0.000149297 -1.10371e-22)
(-0.00131789 -0.000103629 1.97558e-30)
(0.0186506 -0.0957436 3.23198e-22)
(0.0425232 -0.0604418 1.49113e-22)
(0.0411906 -0.0375331 3.74149e-21)
(0.0386665 -0.0176273 -2.8355e-21)
(0.0311153 -0.00333638 -2.55294e-21)
(0.0221485 0.00516401 -1.66144e-21)
(0.0137628 0.00900931 2.18494e-23)
(0.00694863 0.00962469 -1.34043e-21)
(0.00219357 0.00835724 7.64143e-22)
(-0.000734953 0.00635318 5.69761e-23)
(-0.00223177 0.00425007 -3.51526e-36)
(-0.00276359 0.00246726 5.04112e-23)
(-0.00270289 0.00110655 3.1336e-27)
(-0.00236688 0.000227898 -5.06934e-23)
(-0.00190324 -0.000244148 -6.79343e-23)
(-0.00148173 -0.000366554 5.08164e-23)
(-0.00103995 -0.000161552 6.50783e-23)
(0.00151872 -0.138367 -1.53655e-20)
(0.0550799 -0.0777382 -2.60804e-21)
(0.0530263 -0.0512911 -1.56081e-21)
(0.0516918 -0.0242 0)
(0.0423507 -0.005191 2.07625e-22)
(0.0310941 0.00675511 1.25537e-35)
(0.0196655 0.0123989 -3.2507e-22)
(0.010282 0.0134294 7.34397e-22)
(0.00348247 0.0118119 -1.09067e-21)
(-0.000688489 0.00899873 6.93953e-22)
(-0.00283223 0.00608819 3.54456e-22)
(-0.00358782 0.0035603 -7.36088e-23)
(-0.00351986 0.00166717 -3.50228e-27)
(-0.00301956 0.00038138 -5.66348e-23)
(-0.00238552 -0.000340726 -1.31081e-22)
(-0.0017304 -0.000618766 4.4823e-22)
(-0.00117703 -0.000570423 6.60792e-23)
(-0.000649599 -0.000210536 -6.49389e-23)
(-0.00965352 -0.194736 -5.22028e-21)
(0.0641961 -0.106185 4.86411e-21)
(0.067767 -0.0695398 -3.80135e-21)
(0.0686378 -0.0351722 2.48744e-34)
(0.0579049 -0.00786749 4.4862e-21)
(0.0426245 0.008956 2.95008e-21)
(0.027688 0.016905 -4.21075e-22)
(0.0149211 0.0187138 -1.277e-21)
(0.0054688 0.0165793 1.41412e-21)
(-0.000557236 0.0127606 1.17975e-21)
(-0.0036475 0.0086499 -4.25654e-22)
(-0.0047452 0.00513092 1.10151e-21)
(-0.00465741 0.00244184 -9.82198e-23)
(-0.00397957 0.000638066 -6.95935e-23)
(-0.00307489 -0.000437052 -7.59971e-23)
(-0.00219091 -0.000923327 5.19906e-23)
(-0.00139311 -0.000968748 -3.76014e-22)
(-0.000747419 -0.000742645 -1.20975e-22)
(-0.000169993 -0.0002463 -5.94641e-30)
(-0.0594627 -0.277166 -2.02189e-20)
(0.060868 -0.148153 2.95884e-21)
(0.0839494 -0.0962058 1.08309e-20)
(0.0910847 -0.0527584 -3.1835e-35)
(0.0800681 -0.0150954 -5.79809e-23)
(0.0604684 0.0110616 1.50722e-21)
(0.0384358 0.023546 4.27171e-22)
(0.0209227 0.0260199 -2.27978e-22)
(0.0081669 0.0233247 -1.6217e-21)
(-0.000223203 0.0180107 1.65551e-21)
(-0.00473771 0.0123076 -5.4519e-22)
(-0.00635393 0.00732263 1.23205e-21)
(-0.00626057 0.00357114 8.89187e-24)
(-0.00531995 0.00100387 -7.88743e-23)
(-0.00408612 -0.000521498 -8.26382e-23)
(-0.0028523 -0.00127292 1.97125e-28)
(-0.00178956 -0.00146691 6.41826e-23)
(-0.000910502 -0.00126272 -6.56229e-23)
(-0.000219881 -0.000867974 9.83817e-25)
(0.000367441 -0.000265549 6.49164e-23)
(-0.120905 -0.354181 -5.40362e-20)
(0.0414685 -0.214061 -3.89657e-21)
(0.0927921 -0.130837 -2.3431e-20)
(0.113687 -0.0799115 -6.45693e-35)
(0.110232 -0.0299912 -9.15763e-21)
(0.0883858 0.00912772 -4.31307e-25)
(0.0577198 0.0308989 5.51303e-21)
(0.0297644 0.036802 -2.25847e-21)
(0.0111993 0.0328659 2.77093e-22)
(4.72261e-05 0.0255315 2.01815e-21)
(-0.0061717 0.0174506 6.563e-22)
(-0.00857975 0.0104636 -1.31203e-21)
(-0.00850204 0.00514578 6.96701e-23)
(-0.00720862 0.00156634 -9.83268e-22)
(-0.00549909 -0.000612148 -1.62596e-22)
(-0.00381904 -0.00170262 -4.0205e-28)
(-0.00236172 -0.00204964 6.4349e-23)
(-0.00120678 -0.00192287 -9.47512e-23)
(-0.000314167 -0.00147482 1.35531e-35)
(0.000369775 -0.000935091 1.10437e-22)
(0.000925857 -0.000266274 -3.51732e-26)
(-0.136658 -0.392526 5.08935e-21)
(0.00186299 -0.310378 1.92754e-22)
(0.0884429 -0.175806 1.97557e-21)
(0.127594 -0.11109 0)
(0.138848 -0.0539304 -7.21174e-21)
(0.126075 -0.00018222 -1.06457e-20)
(0.0902142 0.0363197 1.33209e-21)
(0.0491319 0.0494453 -2.57456e-21)
(0.0169514 0.0467506 3.74294e-21)
(-0.000470605 0.0362568 1.02924e-22)
(-0.00847343 0.0248726 -9.66711e-37)
(-0.0116651 0.0148917 2.14037e-22)
(-0.0116356 0.00741722 -9.84477e-25)
(-0.00985157 0.00234834 2.08245e-22)
(-0.00748465 -0.000680187 -5.49101e-22)
(-0.00516993 -0.00225103 7.89877e-23)
(-0.00319437 -0.00279645 7.93509e-23)
(-0.00163754 -0.00269785 -6.56951e-23)
(-0.000483202 -0.00225148 -3.46044e-24)
(0.00035421 -0.0015862 6.4383e-23)
(0.000980263 -0.000937531 3.44199e-25)
(0.00146629 -0.000247944 -6.19687e-22)
(-0.0952617 -0.387787 -4.47355e-21)
(-0.0467432 -0.410483 5.17265e-21)
(0.0702013 -0.237004 4.0339e-20)
(0.131769 -0.146031 -3.19075e-35)
(0.154508 -0.0794904 2.30706e-20)
(0.158744 -0.0145242 2.33802e-20)
(0.132014 0.0361807 -1.23194e-20)
(0.0835594 0.0624694 -2.09018e-22)
(0.0341391 0.0642003 -3.68544e-26)
(0.00099235 0.0515964 4.42313e-21)
(-0.0125881 0.035373 -1.30789e-35)
(-0.0162802 0.0213025 2.35681e-22)
(-0.0160364 0.0106069 7.99338e-24)
(-0.0135553 0.00350521 1.08763e-21)
(-0.0102592 -0.000775123 2.04422e-22)
(-0.00705891 -0.00294773 5.29605e-22)
(-0.00435858 -0.00375978 1.75198e-22)
(-0.00226112 -0.0037058 -6.53605e-23)
(-0.000733526 -0.00316177 2.80683e-28)
(0.000328552 -0.00242407 1.25855e-22)
(0.0010468 -0.00158649 1.56367e-22)
(0.00156858 -0.000874085 -6.81365e-22)
(0.00195045 -0.000211539 4.57173e-26)
(-0.0377344 -0.347077 4.80522e-22)
(-0.082907 -0.497894 3.72588e-22)
(0.0398912 -0.311507 -3.60898e-21)
(0.123385 -0.187039 -8.41357e-35)
(0.15935 -0.10535 1.56791e-20)
(0.174543 -0.027999 1.7181e-20)
(0.164603 0.0382816 4.52364e-21)
(0.123769 0.0763122 -3.79318e-21)
(0.0660048 0.0865289 -4.88456e-21)
(0.0127091 0.0726187 9.27151e-21)
(-0.016307 0.0500961 -2.10244e-35)
(-0.0234533 0.0301621 2.56339e-21)
(-0.0223858 0.0152353 1.40283e-22)
(-0.0187742 0.00509492 -1.73893e-22)
(-0.0141356 -0.000842147 -2.44193e-22)
(-0.00969248 -0.00390766 -1.94537e-22)
(-0.00597476 -0.00502239 -2.27449e-23)
(-0.00313581 -0.00500448 -1.13933e-22)
(-0.00109339 -0.00435392 -4.58918e-28)
(0.000281944 -0.00340207 6.11446e-23)
(0.00116886 -0.00242515 -1.14046e-24)
(0.00171394 -0.00147429 -6.47857e-23)
(0.00209303 -0.000748661 -4.05651e-24)
(0.00234356 -0.000159558 6.31735e-22)
(-0.00736126 -0.302448 1.63797e-23)
(-0.0819065 -0.523285 -1.8356e-22)
(0.00635206 -0.402206 -3.51382e-21)
(0.104098 -0.236953 -1.27607e-34)
(0.154667 -0.131244 -3.89218e-20)
(0.179034 -0.0420173 -5.42502e-20)
(0.179758 0.0429015 -7.03265e-21)
(0.15244 0.0988391 -3.96374e-22)
(0.0996925 0.115387 -1.14696e-20)
(0.036477 0.103536 7.84657e-21)
(-0.0133801 0.0720556 0)
(-0.03241 0.042218 5.27615e-22)
(-0.0316412 0.0213922 9.61839e-35)
(-0.0261074 0.00742875 -1.34615e-22)
(-0.0195913 -0.00100599 -7.03761e-22)
(-0.0133418 -0.00516739 -6.45229e-22)
(-0.00822467 -0.00674772 -5.68635e-23)
(-0.00433742 -0.00672165 -2.93625e-22)
(-0.00160472 -0.00588223 1.52264e-23)
(0.000216763 -0.00468792 5.80285e-23)
(0.00133248 -0.00339835 -1.59918e-24)
(0.00197638 -0.00225301 -6.62208e-22)
(0.00230756 -0.00125682 5.68131e-22)
(0.0025162 -0.000570088 6.4347e-22)
(0.00261737 -9.58946e-05 6.74962e-23)
(0.0114758 -0.264637 3.66925e-21)
(-0.0642798 -0.529656 2.54699e-20)
(-0.0252797 -0.469341 1.78766e-21)
(0.063927 -0.296887 5.27483e-21)
(0.143458 -0.160242 -1.37192e-20)
(0.174299 -0.0568146 -4.66835e-21)
(0.186247 0.0451649 1.79568e-20)
(0.166928 0.123278 -1.4419e-21)
(0.123121 0.156495 1.03765e-20)
(0.0607644 0.147577 4.63723e-21)
(-0.00273606 0.107854 9.19449e-36)
(-0.0399187 0.061452 1.07727e-21)
(-0.0448091 0.0293133 -4.69522e-22)
(-0.0362718 0.0102888 -3.79532e-21)
(-0.0271104 -0.00116432 -1.08736e-21)
(-0.0184577 -0.00701929 -9.8788e-23)
(-0.0112992 -0.00904654 4.87535e-22)
(-0.00601426 -0.00904559 2.71396e-22)
(-0.00229439 -0.00791015 2.34841e-23)
(0.000110097 -0.00632501 9.37046e-23)
(0.0015685 -0.00468148 2.54864e-24)
(0.00234033 -0.00314958 -5.90624e-22)
(0.0026922 -0.001919 1.50215e-23)
(0.00278452 -0.000949536 3.62643e-22)
(0.002808 -0.000351395 6.46331e-23)
(0.00275269 -2.56224e-05 -4.00077e-30)
(0.0170265 -0.243557 2.90476e-21)
(-0.0319176 -0.515901 4.70944e-21)
(-0.0393538 -0.51447 -1.9211e-22)
(0.0237673 -0.378977 5.83057e-26)
(0.120346 -0.194601 -3.93976e-21)
(0.163181 -0.0739717 1.63375e-20)
(0.183924 0.0442143 1.84423e-20)
(0.177585 0.142849 -4.50236e-21)
(0.140948 0.197082 2.66492e-20)
(0.0759925 0.200765 2.31642e-21)
(0.0107299 0.161044 -6.21143e-35)
(-0.0438208 0.0955645 -1.3187e-21)
(-0.0620446 0.0425364 -3.01588e-22)
(-0.0516702 0.0133836 -5.1747e-22)
(-0.0370302 -0.0017642 -2.42461e-22)
(-0.0254076 -0.00953831 2.13817e-22)
(-0.015587 -0.0123326 5.05658e-23)
(-0.0082552 -0.0121442 -1.7456e-22)
(-0.00327233 -0.0106246 -3.07016e-37)
(-1.82427e-05 -0.00850262 2.8781e-22)
(0.00187511 -0.006302 2.95053e-23)
(0.00286088 -0.00433474 -5.56379e-22)
(0.00323129 -0.00267282 -4.46864e-28)
(0.0032636 -0.00144688 6.53833e-22)
(0.00311005 -0.000574893 -9.58677e-22)
(0.00294818 -0.000108716 2.59718e-24)
(0.0027408 4.51857e-05 -6.79243e-23)
(0.0164435 -0.230686 3.39809e-22)
(-0.0129136 -0.498835 1.20895e-21)
(-0.0375378 -0.53035 -3.3701e-20)
(0.00112619 -0.434163 1.21307e-20)
(0.0883236 -0.242693 4.43361e-20)
(0.145985 -0.0897024 5.23317e-22)
(0.174053 0.0383062 -1.3539e-20)
(0.180119 0.158627 -3.12931e-21)
(0.154035 0.233071 1.99318e-20)
(0.100799 0.248487 5.80666e-20)
(0.0301166 0.220899 -3.42364e-38)
(-0.0415465 0.145854 -2.07997e-22)
(-0.0792037 0.0688325 1.1848e-25)
(-0.0759537 0.0184445 -2.8842e-21)
(-0.0521409 -0.00344718 1.13715e-21)
(-0.0341478 -0.01336 9.08888e-22)
(-0.0213294 -0.0168023 1.80128e-22)
(-0.0113717 -0.0164871 -6.23681e-22)
(-0.00452302 -0.01424 -5.13458e-23)
(-0.000235812 -0.0113824 1.55247e-22)
(0.00231144 -0.00846428 -4.14378e-22)
(0.00355885 -0.00581799 -5.34771e-22)
(0.0039988 -0.0036721 7.34101e-28)
(0.00393918 -0.00200207 6.31497e-22)
(0.0036482 -0.000870949 8.23503e-23)
(0.0032607 -0.000160595 3.51992e-35)
(0.00292738 0.000139549 -6.69255e-23)
(0.00258472 0.000110168 0)
(0.0118487 -0.225801 5.48815e-23)
(0.00288852 -0.486025 -2.33086e-20)
(-0.0278336 -0.528764 5.15055e-20)
(-0.0170538 -0.475718 -2.79226e-20)
(0.0559489 -0.292324 -5.54461e-20)
(0.121751 -0.112159 -9.55578e-22)
(0.155798 0.0318058 4.85985e-21)
(0.174594 0.167266 -6.54554e-22)
(0.161184 0.265875 -2.50289e-20)
(0.116585 0.298065 6.15327e-20)
(0.0370548 0.272818 0)
(-0.0240071 0.20337 1.32464e-20)
(-0.0877448 0.109364 2.60878e-21)
(-0.105117 0.0323359 1.38875e-21)
(-0.0790951 -0.0070893 -3.59728e-22)
(-0.046702 -0.0190938 -1.24087e-22)
(-0.0282907 -0.023271 -2.88465e-22)
(-0.0154419 -0.0223348 -7.69488e-22)
(-0.0062833 -0.0192098 -7.37968e-23)
(-0.000438073 -0.0152211 -5.5831e-23)
(0.00285738 -0.0112875 -1.11081e-22)
(0.00452254 -0.00780628 -2.44655e-22)
(0.00503863 -0.00490917 -5.58973e-23)
(0.00489813 -0.00274059 6.14672e-22)
(0.0044107 -0.00118584 6.84414e-23)
(0.00381728 -0.000233479 -1.94018e-23)
(0.00322577 0.000261787 3.7952e-22)
(0.00274833 0.000374161 4.89804e-23)
(0.00229909 0.000163868 -6.2217e-22)
(0.00583194 -0.23034 6.28792e-21)
(0.0140764 -0.476142 2.54131e-21)
(-0.0149046 -0.521913 3.91118e-20)
(-0.0250738 -0.496993 -4.76376e-20)
(0.029759 -0.336287 9.16679e-21)
(0.0929741 -0.137349 -1.22007e-20)
(0.133842 0.0221791 -3.34072e-20)
(0.159076 0.173602 -1.21232e-20)
(0.160376 0.290973 -3.21746e-20)
(0.126133 0.347318 9.10041e-20)
(0.0633513 0.330036 -6.80384e-36)
(0.0143875 0.2689 -8.81716e-21)
(-0.0841692 0.159962 4.3831e-21)
(-0.126008 0.060575 7.18582e-21)
(-0.117577 -0.00855566 4.73847e-21)
(-0.0710818 -0.0298336 3.05904e-21)
(-0.037051 -0.0319648 -2.01979e-22)
(-0.0203099 -0.0306517 1.81973e-23)
(-0.00842596 -0.0258308 8.09434e-23)
(-0.000792411 -0.02039 -3.37621e-22)
(0.00367815 -0.015068 -5.20324e-23)
(0.00578517 -0.0103687 -1.80866e-22)
(0.00645794 -0.00657879 3.78259e-22)
(0.00620617 -0.00364043 5.93236e-22)
(0.00549118 -0.00160671 6.82518e-23)
(0.00460938 -0.00028359 1.83656e-28)
(0.00375762 0.000417233 -6.86291e-23)
(0.00300889 0.000659352 -3.10338e-22)
(0.00242592 0.00057654 -6.47214e-22)
(0.00190867 0.000202656 -2.16278e-25)
(0.00123264 -0.241522 2.56894e-21)
(0.0210519 -0.470505 3.78859e-21)
(-0.00362715 -0.512656 -3.46383e-21)
(-0.0227669 -0.504638 6.32499e-20)
(0.00860583 -0.371151 4.61123e-20)
(0.068154 -0.163367 -2.34435e-20)
(0.10727 0.0126807 -3.59848e-22)
(0.140089 0.170742 -5.59471e-21)
(0.151214 0.315126 -1.95668e-20)
(0.129178 0.389623 2.42719e-20)
(0.0758328 0.391428 1.30128e-33)
(0.00568446 0.33429 -6.22226e-21)
(-0.0710026 0.230358 -5.61782e-21)
(-0.13346 0.103823 -1.34986e-20)
(-0.152597 0.00125109 -8.21572e-22)
(-0.11261 -0.0457448 -6.88572e-22)
(-0.0546609 -0.0468116 -2.84313e-21)
(-0.0251929 -0.0412421 1.60198e-21)
(-0.011048 -0.0350955 7.32392e-37)
(-0.000971173 -0.0272434 -4.96093e-22)
(0.00468475 -0.0200469 -5.47931e-24)
(0.00753931 -0.0138315 -1.13081e-23)
(0.00834721 -0.00870202 -3.13443e-22)
(0.00798068 -0.00486768 6.52885e-22)
(0.00697379 -0.00210103 -4.81655e-23)
(0.00573136 -0.000352022 -3.45053e-28)
(0.00451807 0.000636697 -7.45602e-23)
(0.00347347 0.00103051 6.13802e-23)
(0.00262805 0.00100068 2.22862e-22)
(0.00198651 0.000730079 -1.66257e-23)
(0.00144661 0.000224663 5.7039e-22)
(-0.00621804 -0.25878 -3.56502e-21)
(0.02486 -0.468175 -4.12676e-21)
(0.00552964 -0.503864 -1.23234e-20)
(-0.0152583 -0.504909 -3.11652e-20)
(-0.0060065 -0.39577 8.32141e-20)
(0.0461701 -0.189205 8.27593e-21)
(0.0834476 0.00139948 -3.29034e-20)
(0.112765 0.168485 -2.63247e-20)
(0.139772 0.322277 -3.3351e-20)
(0.129663 0.431426 2.29716e-20)
(0.0833408 0.450337 1.97742e-34)
(0.0178591 0.39573 7.4707e-20)
(-0.0538911 0.298289 4.16344e-20)
(-0.130631 0.158123 4.5909e-20)
(-0.170439 0.027605 2.58995e-21)
(-0.15883 -0.0589204 -1.86108e-23)
(-0.0910732 -0.071932 1.04935e-21)
(-0.0345588 -0.0574634 1.3659e-22)
(-0.012577 -0.0466821 -1.60319e-22)
(-0.00129715 -0.0365878 -1.04923e-22)
(0.00632569 -0.0266873 2.67703e-23)
(0.00980053 -0.0182898 1.79072e-22)
(0.0108978 -0.0116135 2.57656e-22)
(0.0103681 -0.00640471 2.35368e-23)
(0.00897958 -0.0027898 6.97835e-23)
(0.00727982 -0.000399445 1.23469e-23)
(0.00559602 0.000929643 -7.80994e-23)
(0.00414158 0.00150352 0)
(0.00298684 0.00155742 -7.03488e-22)
(0.00211432 0.0012582 -2.83067e-22)
(0.00146695 0.000821712 5.80905e-22)
(0.000951595 0.000228987 -5.31416e-22)
(-0.00804839 -0.280935 -7.82755e-22)
(0.0267006 -0.469304 1.73013e-20)
(0.0119569 -0.497423 1.17515e-20)
(-0.00564656 -0.499148 -4.83069e-21)
(-0.0117489 -0.411261 -7.72867e-20)
(0.0252743 -0.20924 -9.65278e-20)
(0.0622405 -0.0123568 -1.51476e-20)
(0.0867411 0.164686 4.09542e-23)
(0.110824 0.334424 -2.17997e-20)
(0.122744 0.453099 2.4316e-20)
(0.092033 0.502429 -4.94749e-21)
(0.0293256 0.463522 -3.21111e-23)
(-0.0394754 0.356983 1.78678e-21)
(-0.107789 0.216104 -4.84488e-21)
(-0.16841 0.0637298 5.39072e-22)
(-0.190995 -0.0579341 4.1019e-21)
(-0.141821 -0.105375 7.0747e-21)
(-0.0591019 -0.0847777 -2.80333e-21)
(-0.0149551 -0.0627078 1.89838e-21)
(-6.79779e-06 -0.0484004 5.00022e-22)
(0.00824434 -0.0354003 -6.83511e-22)
(0.0130147 -0.0243429 6.61631e-22)
(0.0142586 -0.0152815 3.18229e-22)
(0.0135437 -0.0085605 4.31532e-23)
(0.0117025 -0.00362772 5.2324e-22)
(0.00937446 -0.000487609 2.05083e-23)
(0.00709246 0.00133942 -1.76243e-22)
(0.00509018 0.00213863 0)
(0.00350736 0.00224758 -7.48145e-22)
(0.00233636 0.00195447 -1.29522e-22)
(0.0015103 0.00141051 3.45803e-22)
(0.00091144 0.000843521 -5.21965e-22)
(0.000464636 0.000215248 -4.19554e-25)
(-0.0054176 -0.303959 2.53997e-21)
(0.0275644 -0.473239 8.69862e-21)
(0.0159677 -0.492697 4.20997e-21)
(0.00331571 -0.491962 -4.07254e-22)
(-0.0108454 -0.415882 -1.02373e-19)
(0.00829901 -0.227548 -7.06187e-22)
(0.039933 -0.0243478 4.13246e-20)
(0.0661209 0.156257 -1.13529e-21)
(0.0823608 0.33718 1.47339e-21)
(0.0951385 0.493184 -5.74667e-21)
(0.0804157 0.545913 -6.5371e-26)
(0.0364698 0.516454 9.8927e-21)
(-0.0284409 0.42096 -8.62269e-21)
(-0.0943343 0.274216 -5.31789e-20)
(-0.157197 0.109434 -1.38493e-21)
(-0.201911 -0.0408986 -1.55465e-20)
(-0.187663 -0.131641 2.74482e-21)
(-0.104583 -0.12968 8.45893e-22)
(-0.0250996 -0.0870266 -1.47314e-25)
(0.00220345 -0.0635351 -2.79526e-22)
(0.0119854 -0.0467896 -5.75121e-23)
(0.0170292 -0.0319325 -2.68014e-23)
(0.0187725 -0.0204048 -4.54355e-22)
(0.017798 -0.0112215 6.30806e-22)
(0.0153029 -0.00485935 -4.84616e-22)
(0.0122422 -0.0005519 1.19407e-36)
(0.00912083 0.00187337 7.16459e-23)
(0.00641515 0.00298189 6.51182e-23)
(0.00424794 0.00317725 -8.05696e-22)
(0.00266442 0.00280693 1.80857e-27)
(0.00157554 0.00218761 6.84037e-22)
(0.000866609 0.00144462 1.90636e-22)
(0.000367111 0.000793747 6.53041e-23)
(2.65419e-05 0.000183972 4.34402e-22)
(0.000303978 -0.327394 -1.67549e-21)
(0.0285832 -0.477329 2.81141e-21)
(0.0181724 -0.489553 3.77587e-20)
(0.00951915 -0.483974 2.98545e-20)
(-0.00721267 -0.41244 -2.56605e-21)
(-0.00357591 -0.241314 6.83404e-20)
(0.0163981 -0.0313392 1.19577e-20)
(0.0457056 0.148168 -5.37538e-20)
(0.0640438 0.33153 -2.58088e-20)
(0.0717507 0.496384 1.29456e-20)
(0.0743261 0.611603 5.63639e-21)
(0.0280545 0.588062 -1.18037e-19)
(-0.023729 0.478251 -1.00892e-21)
(-0.0838132 0.330101 7.90119e-21)
(-0.142455 0.158999 4.14687e-20)
(-0.194703 -0.0106395 2.79681e-20)
(-0.213246 -0.142728 1.35687e-21)
(-0.157217 -0.179136 -4.59603e-21)
(-0.0559319 -0.131876 1.75091e-34)
(0.00399238 -0.0835393 4.74819e-21)
(0.0170724 -0.0605246 -6.79653e-22)
(0.0228865 -0.0423495 2.0695e-21)
(0.0246458 -0.0265794 6.23396e-22)
(0.0233358 -0.0150879 3.35576e-22)
(0.0201851 -0.00635041 6.91306e-22)
(0.0160357 -0.000741151 -5.18036e-23)
(0.0119218 0.00261012 7.97217e-22)
(0.00821793 0.00411257 -4.69499e-22)
(0.0052896 0.0043953 -8.84455e-22)
(0.00313187 0.0039571 -2.10541e-27)
(0.00168134 0.00313269 6.97063e-22)
(0.000768314 0.00223617 -6.76786e-22)
(0.000237197 0.00135742 9.60777e-36)
(-0.000119688 0.000676984 4.88232e-22)
(-0.000325923 0.000137299 0)
(0.0136003 -0.351345 -1.25676e-22)
(0.0309699 -0.478326 -3.69492e-20)
(0.0192432 -0.487547 -5.2637e-20)
(0.0115068 -0.4743 9.52985e-21)
(-0.005702 -0.402327 7.56529e-20)
(-0.0146158 -0.242362 -6.75414e-20)
(0.00147668 -0.0250627 -8.21508e-20)
(0.024347 0.135776 -4.49976e-20)
(0.0475033 0.330096 -1.26323e-19)
(0.0581959 0.493397 9.01148e-20)
(0.0637113 0.605876 4.86958e-20)
(0.0423703 0.637146 -5.41177e-21)
(-0.0130312 0.548148 -1.2398e-21)
(-0.0735761 0.383547 -1.11643e-20)
(-0.128287 0.20318 -6.41048e-21)
(-0.178879 0.0238355 -3.37831e-21)
(-0.216033 -0.136086 -1.78949e-20)
(-0.197552 -0.222848 -1.78032e-21)
(-0.10316 -0.192662 1.74317e-21)
(-0.0082796 -0.119345 -1.07437e-21)
(0.0256818 -0.0777142 -2.85017e-21)
(0.0304157 -0.0541898 3.00648e-21)
(0.0322753 -0.0354858 7.74252e-22)
(0.0307473 -0.0196719 1.56111e-23)
(0.0264852 -0.00865642 -6.04583e-23)
(0.0212317 -0.000919032 -7.7461e-23)
(0.0156452 0.00351952 6.77464e-23)
(0.0107305 0.00562311 2.52622e-23)
(0.00671443 0.00604745 -8.0442e-23)
(0.00379624 0.00545761 4.33213e-23)
(0.00183119 0.00440771 7.69269e-22)
(0.000640773 0.00319482 -6.41955e-22)
(-1.69953e-05 0.00209544 -1.63155e-22)
(-0.000324438 0.00115632 -1.51682e-22)
(-0.000507971 0.000503716 -2.46405e-23)
(-0.000563637 7.91885e-05 -3.49042e-23)
(0.0446777 -0.369691 1.51094e-20)
(0.0379718 -0.480563 2.08923e-21)
(0.0219 -0.47468 1.6228e-20)
(0.00864949 -0.462726 -8.36795e-20)
(-0.00902264 -0.385974 9.67524e-20)
(-0.0244344 -0.228081 7.67107e-21)
(-0.0256469 -0.0129442 5.11813e-21)
(1.64153e-05 0.115516 5.48152e-21)
(0.0320354 0.330163 5.7546e-20)
(0.0417166 0.492346 1.2643e-20)
(0.0524482 0.614533 -3.56369e-20)
(0.040902 0.64757 -6.1842e-20)
(0.00406817 0.550764 6.5743e-20)
(-0.0533188 0.434297 7.26908e-20)
(-0.113718 0.243529 4.47077e-20)
(-0.160507 0.0554947 -3.28849e-21)
(-0.203136 -0.119346 2.08524e-20)
(-0.21582 -0.247746 2.10635e-21)
(-0.151003 -0.262721 -7.06205e-21)
(-0.038298 -0.176466 4.31068e-21)
(0.0290612 -0.102023 1.28885e-21)
(0.0416458 -0.0700192 -5.1889e-21)
(0.0423172 -0.0452655 -1.44778e-21)
(0.0399306 -0.026516 -2.0197e-21)
(0.0350262 -0.0114186 7.58424e-24)
(0.0279805 -0.00144668 8.91805e-22)
(0.0207989 0.0047448 6.05766e-22)
(0.0140962 0.00761276 -7.47361e-22)
(0.00872148 0.00824208 -1.70426e-21)
(0.00471136 0.00750629 -4.83488e-22)
(0.00205309 0.00606944 8.90834e-22)
(0.000455127 0.00448542 -7.05867e-22)
(-0.000368493 0.00298613 4.3403e-27)
(-0.000712876 0.00177746 3.62748e-22)
(-0.000770601 0.000858836 7.39468e-36)
(-0.000765801 0.000289158 5.56091e-24)
(-0.000667424 1.49186e-05 -8.35218e-29)
(0.0724425 -0.375174 1.84971e-19)
(0.0296768 -0.464244 8.71045e-22)
(0.0256922 -0.472431 -2.08329e-21)
(-0.00738174 -0.435051 2.99598e-23)
(-0.0172333 -0.365752 -1.67768e-20)
(-0.035405 -0.208256 6.25239e-20)
(-0.04108 -0.00424377 4.54253e-20)
(-0.0199804 0.0957869 -9.59763e-20)
(0.0161744 0.331229 1.69797e-19)
(0.0247585 0.492769 -4.87802e-20)
(0.0362149 0.616366 -7.26591e-20)
(0.0356649 0.669831 -9.94267e-21)
(-0.00341823 0.62143 1.54715e-20)
(-0.0379409 0.469358 -4.24813e-23)
(-0.0989576 0.283592 -2.2084e-20)
(-0.141383 0.0839052 -1.11663e-20)
(-0.182797 -0.0994272 1.66359e-20)
(-0.212441 -0.256284 -5.4424e-20)
(-0.185704 -0.322096 1.58782e-20)
(-0.0801699 -0.255537 1.29615e-21)
(0.0205991 -0.146052 -2.60807e-22)
(0.0544942 -0.0862891 6.80823e-21)
(0.0547909 -0.0594764 2.36894e-21)
(0.0523225 -0.0342256 -2.38589e-21)
(0.0455925 -0.0157807 8.36334e-23)
(0.0371832 -0.00208303 3.3599e-36)
(0.027573 0.00614381 -2.09993e-22)
(0.0188128 0.0102439 4.9354e-23)
(0.0114381 0.0112051 -1.13863e-22)
(0.00602039 0.01023 1.09534e-21)
(0.00236309 0.00834626 1.14664e-22)
(0.00020718 0.00616732 -8.31465e-22)
(-0.000877613 0.00417967 -5.81111e-27)
(-0.0012585 0.00252384 4.80241e-22)
(-0.00125958 0.00131029 6.13846e-23)
(-0.00106407 0.00049098 1.08348e-22)
(-0.000872379 5.17619e-05 6.57901e-24)
(-0.00062973 -4.98551e-05 2.56916e-23)
(0.0816269 -0.366583 -3.32301e-21)
(0.0279364 -0.436061 -1.67299e-21)
(3.70848e-05 -0.439856 3.43843e-20)
(-0.0215757 -0.417876 7.19789e-20)
(-0.028806 -0.34079 -2.04037e-21)
(-0.048544 -0.182433 1.90156e-20)
(-0.0516315 0.00407884 3.02907e-20)
(-0.0394542 0.0828421 6.63205e-20)
(-0.00205628 0.332957 1.23869e-20)
(0.00923181 0.495005 3.71373e-20)
(0.019401 0.617646 2.56329e-20)
(0.0247441 0.679528 5.61035e-20)
(0.00759292 0.65024 -2.10619e-20)
(-0.0351968 0.534984 5.07245e-21)
(-0.0901131 0.313585 -5.41716e-21)
(-0.121007 0.105529 -1.32921e-20)
(-0.158409 -0.0800014 1.72203e-20)
(-0.195649 -0.253162 7.59976e-21)
(-0.198259 -0.365791 -2.18941e-21)
(-0.122936 -0.339501 -1.61e-21)
(-0.00300587 -0.214342 -2.9396e-35)
(0.063127 -0.116844 -7.81984e-21)
(0.0719859 -0.0727646 -5.02585e-22)
(0.0665616 -0.0459173 4.09964e-21)
(0.059981 -0.0211176 1.36556e-21)
(0.0488415 -0.00358631 -1.8547e-21)
(0.036912 0.00791566 1.67459e-21)
(0.0251052 0.013618 -5.30876e-22)
(0.0153002 0.0151311 -1.72984e-21)
(0.0078192 0.0139613 -5.11211e-23)
(0.00283171 0.0113826 -3.84807e-22)
(-0.000132316 0.0084742 -4.23492e-22)
(-0.00157988 0.00573391 3.87613e-22)
(-0.00204868 0.00351546 5.05861e-22)
(-0.00195158 0.00184863 0)
(-0.00161112 0.000735037 -1.31382e-22)
(-0.00118093 8.45621e-05 -2.37782e-22)
(-0.000819736 -0.0001883 6.76085e-24)
(-0.000454958 -0.000110128 2.24869e-23)
(0.0500731 -0.334901 -1.29513e-21)
(0.019837 -0.400913 -3.84307e-21)
(-0.00316696 -0.403467 -8.95124e-20)
(-0.0300631 -0.384267 2.07297e-25)
(-0.0393767 -0.299185 1.49074e-20)
(-0.0626144 -0.150775 7.38767e-21)
(-0.0609594 0.0071069 -2.88422e-20)
(-0.0562002 0.0828586 1.38196e-19)
(-0.0238885 0.330918 -6.64084e-20)
(-0.00537414 0.498868 2.40132e-20)
(0.00378078 0.619501 1.07373e-21)
(0.0128829 0.686044 3.12535e-20)
(0.00654292 0.67096 6.51241e-20)
(-0.0218356 0.562483 -6.21252e-20)
(-0.0727235 0.360593 -8.06458e-21)
(-0.100443 0.11248 -2.76919e-20)
(-0.131365 -0.064297 -5.65141e-20)
(-0.171846 -0.244597 -2.22393e-20)
(-0.192644 -0.389582 -2.58112e-21)
(-0.151199 -0.420473 5.27394e-20)
(-0.0381719 -0.29965 -3.12943e-20)
(0.0623874 -0.163667 -1.57225e-21)
(0.0898763 -0.0938578 3.07743e-21)
(0.0859491 -0.0583576 -3.63111e-21)
(0.0767366 -0.0295607 2.18377e-22)
(0.0648026 -0.00590989 3.44788e-22)
(0.0491359 0.00965706 8.83637e-23)
(0.033934 0.0179592 2.01366e-35)
(0.0205486 0.0203804 -2.21398e-21)
(0.0104269 0.0189369 6.25037e-23)
(0.00350069 0.0155799 1.21929e-21)
(-0.000572898 0.0115597 -1.12754e-21)
(-0.00255242 0.00786287 2.09241e-22)