/*--------------------------------*- C++ -*----------------------------------*\
| =========                 |                                                 |
| \\      /  F ield         | OpenFOAM: The Open Source CFD Toolbox           |
|  \\    /   O peration     | Version:  2506                                  |
|   \\  /    A nd           | Website:  www.openfoam.com                      |
|    \\/     M anipulation  |                                                 |
\*---------------------------------------------------------------------------*/
FoamFile
{
    version     2.0;
    format      ascii;
    arch        "LSB;label=32;scalar=64";
    class       surfaceScalarField;
    location    "160.018072304027271";
    object      phi;
}
// * * * * * * * * * * * * * * * * * * * * * * * * * * * * * * * * * * * * * //

dimensions      [0 3 -1 0 0 0 0];

oriented        oriented;

internalField   nonuniform List<scalar> 
19160
(
-0.000465526
-0.230786
-0.000933278
-0.230758
-0.000438873
-0.230347
-0.00139749
-0.230744
-0.000875685
-0.230321
-0.000427535
-0.22992
-0.00186354
-0.230683
-0.00130669
-0.230313
-0.00085133
-0.229897
-0.00041601
-0.229504
-0.00232525
-0.230625
-0.00173016
-0.23026
-0.00126902
-0.229895
-0.000827358
-0.229486
-0.000409089
-0.229095
-0.00278487
-0.230522
-0.00213982
-0.230215
-0.00167544
-0.229853
-0.00123151
-0.229491
-0.000813329
-0.229082
-0.000406087
-0.228689
-0.00323631
-0.230367
-0.00253066
-0.230131
-0.00206508
-0.229825
-0.00162195
-0.229463
-0.00121019
-0.229094
-0.000807776
-0.22868
-0.000406407
-0.228282
-0.00367897
-0.230177
-0.00289277
-0.230005
-0.00242964
-0.229767
-0.00199234
-0.229455
-0.00159277
-0.22908
-0.00120267
-0.228699
-0.000809459
-0.228277
-0.000409904
-0.227872
-0.00410633
-0.229885
-0.00321536
-0.229854
-0.00275854
-0.229676
-0.00233269
-0.229426
-0.00195452
-0.229093
-0.00158439
-0.228699
-0.00120717
-0.228301
-0.000817989
-0.227869
-0.000415541
-0.227457
-0.00451278
-0.229511
-0.00348182
-0.229618
-0.0030362
-0.229576
-0.00262986
-0.229379
-0.00228489
-0.229096
-0.0019467
-0.228731
-0.00159446
-0.228311
-0.00122291
-0.227896
-0.00083115
-0.227453
-0.000421317
-0.227035
-0.00489136
-0.228972
-0.00367139
-0.229321
-0.00324218
-0.229412
-0.00286588
-0.22934
-0.00256994
-0.229094
-0.00227964
-0.228763
-0.00196615
-0.228359
-0.00162157
-0.227913
-0.00124632
-0.227481
-0.000844753
-0.22703
-0.000426387
-0.226609
-0.00523246
-0.228233
-0.00375693
-0.228886
-0.00334962
-0.229214
-0.00301507
-0.229263
-0.00279046
-0.22912
-0.0025697
-0.228804
-0.00231395
-0.228415
-0.00201046
-0.22797
-0.00166041
-0.227499
-0.00127076
-0.227055
-0.000856887
-0.226599
-0.000429037
-0.22618
-0.0055268
-0.227225
-0.00370356
-0.228287
-0.00332116
-0.228915
-0.00304444
-0.229184
-0.00291844
-0.229135
-0.00279827
-0.228891
-0.00262635
-0.228491
-0.00238398
-0.228042
-0.0020721
-0.227559
-0.00170138
-0.227068
-0.00129295
-0.226619
-0.00086391
-0.226164
-0.000428139
-0.225752
-0.00575654
-0.225854
-0.00346991
-0.227458
-0.00310971
-0.228498
-0.00290598
-0.229053
-0.00291754
-0.229185
-0.00293756
-0.228996
-0.00288731
-0.22863
-0.00273399
-0.228141
-0.00247928
-0.227634
-0.0021378
-0.227122
-0.00173926
-0.226622
-0.00130703
-0.226176
-0.000863375
-0.225729
-0.000421956
-0.22533
-0.00593654
-0.223945
-0.00300124
-0.226323
-0.00265087
-0.227917
-0.00253962
-0.228865
-0.00273291
-0.229238
-0.00295099
-0.229172
-0.0030724
-0.228811
-0.00304893
-0.228315
-0.00287825
-0.227742
-0.00258185
-0.22719
-0.00219955
-0.226662
-0.00176535
-0.226163
-0.00130893
-0.22573
-0.00085166
-0.2253
-0.000410483
-0.224919
-0.00616203
-0.221344
-0.00224411
-0.224703
-0.00187478
-0.227099
-0.00185796
-0.228599
-0.00229541
-0.229302
-0.00278176
-0.229407
-0.00314862
-0.229096
-0.00331073
-0.228549
-0.00326363
-0.22793
-0.00303492
-0.227289
-0.0026796
-0.22671
-0.00224493
-0.226182
-0.00177347
-0.225699
-0.00129291
-0.225289
-0.000828682
-0.224881
-0.000393485
-0.224526
-0.00674205
-0.217689
-0.00111284
-0.222475
-0.0007063
-0.225871
-0.000767799
-0.228189
-0.001504
-0.22939
-0.00235735
-0.229726
-0.0030635
-0.229492
-0.00349407
-0.228912
-0.00362614
-0.228186
-0.00349885
-0.227466
-0.00318597
-0.226783
-0.00275509
-0.2262
-0.00226489
-0.225691
-0.00175531
-0.225236
-0.00125869
-0.224859
-0.000793965
-0.224481
-0.000370629
-0.224155
-0.00819151
-0.213018
0.000451686
-0.219253
0.000951301
-0.224133
0.000869129
-0.227508
-0.000251192
-0.229442
-0.00157572
-0.230172
-0.00274992
-0.23004
-0.00355737
-0.229429
-0.00395195
-0.228587
-0.00397472
-0.227711
-0.00372794
-0.226924
-0.00330705
-0.226231
-0.00279522
-0.22567
-0.00224788
-0.225198
-0.00171015
-0.224785
-0.00120549
-0.224448
-0.0007469
-0.224105
-0.000343276
-0.223812
-0.0111042
-0.207125
0.00229132
-0.214858
0.00325032
-0.221552
0.00324914
-0.226513
0.00167079
-0.22943
-0.00031762
-0.2307
-0.00212163
-0.2308
-0.00344922
-0.230148
-0.0042165
-0.229165
-0.004463
-0.228098
-0.00431726
-0.227121
-0.0039168
-0.226314
-0.00337928
-0.225647
-0.0027842
-0.225134
-0.00219244
-0.224716
-0.0016369
-0.224354
-0.00113246
-0.224062
-0.000690344
-0.223758
-0.000312519
-0.223499
-0.0161392
-0.200327
0.00401523
-0.208849
0.0062127
-0.21782
0.00662589
-0.224929
0.00458427
-0.229426
0.00170833
-0.231456
-0.00105355
-0.231768
-0.00311426
-0.231135
-0.00439374
-0.229971
-0.00496054
-0.228667
-0.00496961
-0.227446
-0.00460567
-0.226432
-0.00403821
-0.225655
-0.00338126
-0.22505
-0.0027194
-0.224607
-0.00209707
-0.224256
-0.00153456
-0.223951
-0.00104412
-0.223708
-0.000626647
-0.223443
-0.000279341
-0.22322
-0.0233468
-0.193057
0.00478684
-0.201099
0.00952166
-0.212158
0.0110179
-0.222212
0.00885327
-0.229198
0.00496554
-0.232683
0.000825828
-0.233335
-0.00243071
-0.232452
-0.00446974
-0.231059
-0.00547266
-0.229459
-0.0057048
-0.227932
-0.00540339
-0.226648
-0.00480071
-0.22567
-0.00406315
-0.224974
-0.00330852
-0.224461
-0.00259879
-0.224105
-0.00196077
-0.22383
-0.00140964
-0.223586
-0.000944277
-0.223391
-0.000557965
-0.223165
-0.000245895
-0.222974
-0.0316638
-0.185054
0.00345787
-0.191728
0.0126946
-0.204272
0.0160594
-0.217199
0.014426
-0.227785
0.00986857
-0.234101
0.00409428
-0.235952
-0.000972427
-0.234794
-0.00434549
-0.232576
-0.00603048
-0.230501
-0.00655933
-0.228604
-0.00635073
-0.226984
-0.0057073
-0.225742
-0.00486278
-0.22487
-0.00398435
-0.224298
-0.00315844
-0.223901
-0.00242165
-0.223644
-0.00179248
-0.223447
-0.0012678
-0.223262
-0.000836523
-0.223112
-0.000488792
-0.222922
-0.000213731
-0.22276
-0.0392261
-0.175704
-0.000456256
-0.18114
0.0150713
-0.194105
0.0213298
-0.209542
0.0207999
-0.223573
0.0162527
-0.234169
0.00913355
-0.23914
0.00187777
-0.238802
-0.00360064
-0.235538
-0.00658896
-0.232018
-0.00760499
-0.229456
-0.00750928
-0.227446
-0.00681481
-0.225877
-0.00582665
-0.224778
-0.00478061
-0.224074
-0.00379858
-0.223658
-0.002931
-0.223392
-0.00220011
-0.223236
-0.00160034
-0.223114
-0.00111453
-0.222984
-0.000727985
-0.222873
-0.000422402
-0.222713
-0.000184588
-0.222576
-0.0444842
-0.164738
-0.00621772
-0.169942
0.0160092
-0.182078
0.0263232
-0.199098
0.02758
-0.216322
0.0235125
-0.230833
0.0156689
-0.240704
0.00639522
-0.243658
-0.00166023
-0.240742
-0.00682471
-0.235303
-0.00888221
-0.23074
-0.00897919
-0.227986
-0.00820078
-0.22606
-0.00702072
-0.224683
-0.00574433
-0.223814
-0.00455046
-0.223322
-0.00350724
-0.223081
-0.00264258
-0.222949
-0.00194563
-0.222891
-0.00139241
-0.222836
-0.000960133
-0.222752
-0.000623948
-0.222671
-0.000362418
-0.222535
-0.000159641
-0.222416
-0.0473506
-0.152174
-0.0120726
-0.158883
0.0152569
-0.16919
0.0305904
-0.186345
0.0343659
-0.205884
0.0312782
-0.224088
0.0231169
-0.238281
0.01227
-0.246579
0.00164642
-0.246964
-0.00628763
-0.241279
-0.0102537
-0.233931
-0.0108989
-0.228821
-0.0099767
-0.22621
-0.00852908
-0.224551
-0.00694285
-0.223484
-0.00545642
-0.222908
-0.00417642
-0.222653
-0.00313264
-0.222591
-0.00230923
-0.222585
-0.00166988
-0.222614
-0.00118289
-0.222614
-0.000812399
-0.222564
-0.000530185
-0.222504
-0.00031131
-0.222384
-0.000140322
-0.222276
-0.0479588
-0.0944804
-0.0167065
-0.14754
0.0131833
-0.156809
0.0336959
-0.172296
0.0408919
-0.192871
0.0391841
-0.21379
0.0312288
-0.2322
0.019115
-0.245126
0.00607873
-0.251011
-0.00479054
-0.248461
-0.0114524
-0.240081
-0.0133659
-0.231464
-0.0123618
-0.226436
-0.0104575
-0.224281
-0.00845861
-0.223036
-0.00657795
-0.222363
-0.00497195
-0.222113
-0.00368923
-0.222096
-0.00269732
-0.222203
-0.0019476
-0.222308
-0.00139203
-0.222404
-0.0009828
-0.222443
-0.000679709
-0.222414
-0.00045072
-0.222364
-0.000272006
-0.222252
-0.000127316
-0.222149
-0.0476222
-0.089417
-0.0188456
-0.0923414
0.0107754
-0.145132
0.0353321
-0.158445
0.0467637
-0.178167
0.0469804
-0.200667
0.0396754
-0.222237
0.0268089
-0.239894
0.0115605
-0.250608
-0.00232021
-0.253482
-0.0122022
-0.247712
-0.0162963
-0.23715
-0.0156858
-0.22814
-0.0130601
-0.223833
-0.010379
-0.222361
-0.00798839
-0.221625
-0.00594376
-0.221391
-0.00433415
-0.221468
-0.00312056
-0.221673
-0.00222492
-0.221926
-0.0015833
-0.222116
-0.00112734
-0.22226
-0.000803773
-0.222319
-0.000568071
-0.222297
-0.000390152
-0.222246
-0.000245922
-0.222133
-0.00012068
-0.222028
-0.0465806
-0.0849747
-0.0197176
-0.088545
0.00895879
-0.0905247
0.0359002
-0.145701
0.0515808
-0.163262
0.054364
-0.185551
0.0481523
-0.209144
0.0350706
-0.230498
0.0180743
-0.246407
0.00118753
-0.254115
-0.0120148
-0.253669
-0.0193267
-0.244681
-0.0200569
-0.232779
-0.0168501
-0.22435
-0.012933
-0.221279
-0.00975223
-0.220597
-0.00714929
-0.22042
-0.00510257
-0.220623
-0.00358808
-0.221
-0.00250372
-0.221394
-0.00174951
-0.22176
-0.00123711
-0.222007
-0.000891554
-0.222172
-0.000654413
-0.222233
-0.00048404
-0.222203
-0.000350746
-0.222141
-0.000233202
-0.222021
-0.000120351
-0.221908
-0.0449747
-0.0816104
-0.0193975
-0.0852949
0.00792882
-0.087515
0.0352227
-0.0898472
0.0552969
-0.149417
0.0610631
-0.169962
0.0562855
-0.193684
0.0435829
-0.217656
0.0253547
-0.237779
0.00583072
-0.251051
-0.0106934
-0.255437
-0.021747
-0.251249
-0.0250662
-0.239672
-0.0221961
-0.227433
-0.016717
-0.220566
-0.0120245
-0.219007
-0.00863317
-0.219113
-0.00603053
-0.219492
-0.00411921
-0.220091
-0.00278077
-0.220723
-0.0018838
-0.22126
-0.00129913
-0.221698
-0.000930095
-0.221968
-0.000696706
-0.22213
-0.000543644
-0.222173
-0.000430926
-0.222123
-0.00033279
-0.222042
-0.000233708
-0.221908
-0.000125506
-0.221782
-0.0428917
-0.07958
-0.0180096
-0.0829983
0.00786859
-0.0852346
0.0346983
-0.0869905
0.0563736
-0.0909239
0.0668432
-0.155197
0.0638873
-0.177563
0.0519307
-0.202032
0.0331015
-0.225403
0.0113229
-0.243271
-0.00856282
-0.253181
-0.0229461
-0.254238
-0.0300536
-0.246262
-0.0287954
-0.233073
-0.0223915
-0.221759
-0.0153508
-0.21724
-0.0104608
-0.217179
-0.00714821
-0.217996
-0.00472569
-0.218885
-0.00305975
-0.219812
-0.00197187
-0.220635
-0.00129825
-0.221261
-0.000901627
-0.221726
-0.000678832
-0.221986
-0.000554631
-0.222119
-0.000476115
-0.222128
-0.000409275
-0.222046
-0.000335986
-0.221939
-0.000245764
-0.221787
-0.000135039
-0.221647
-0.0403078
-0.0791616
-0.0156786
-0.081911
0.00876612
-0.0838958
0.0346405
-0.0851769
0.0571521
-0.0877691
0.0693856
-0.0934663
0.0706048
-0.161914
0.0599461
-0.185579
0.041016
-0.209946
0.0174584
-0.231539
-0.00553965
-0.246294
-0.0236589
-0.252468
-0.034318
-0.249973
-0.0359305
-0.239126
-0.0299311
-0.225533
-0.0205921
-0.216517
-0.0130152
-0.214686
-0.00844852
-0.215879
-0.00542531
-0.217296
-0.00332901
-0.218616
-0.00200239
-0.219782
-0.001211
-0.220722
-0.000783592
-0.221379
-0.000579464
-0.221825
-0.000498842
-0.222042
-0.000471711
-0.222123
-0.000452803
-0.222084
-0.000418517
-0.221964
-0.000357656
-0.221827
-0.000267058
-0.221655
-0.000147236
-0.2215
-0.0372754
-0.0806063
-0.0125311
-0.0823091
0.0105632
-0.0837081
0.0352437
-0.084499
0.0578755
-0.0859003
0.0715399
-0.0899234
0.0739245
-0.096786
0.0670224
-0.168991
0.0488792
-0.193442
0.0241531
-0.216641
-0.00171082
-0.235368
-0.0234455
-0.246507
-0.0377711
-0.249015
-0.0428981
-0.243006
-0.0386007
-0.230457
-0.0281183
-0.218007
-0.0171587
-0.212374
-0.0101174
-0.213017
-0.00616768
-0.215136
-0.00359141
-0.217034
-0.00194469
-0.218674
-0.00101164
-0.219981
-0.000545316
-0.22096
-0.000370078
-0.221588
-0.000352772
-0.221972
-0.000398835
-0.222115
-0.000449607
-0.222126
-0.000472727
-0.22203
-0.000454761
-0.221867
-0.000394056
-0.2217
-0.000293982
-0.221509
-0.000160597
-0.221339
-0.0336338
-0.0839227
-0.00874304
-0.0843944
0.0131537
-0.0848995
0.0366148
-0.0850792
0.0587852
-0.0854087
0.0733824
-0.0877427
0.0768207
-0.0928196
0.0708266
-0.10059
0.055774
-0.175885
0.0309092
-0.200198
0.00292869
-0.221281
-0.0223377
-0.236475
-0.0403608
-0.243918
-0.0489383
-0.242975
-0.0474666
-0.23414
-0.0374206
-0.221154
-0.0236536
-0.211512
-0.0128017
-0.209689
-0.00698898
-0.212195
-0.00377594
-0.214952
-0.00178179
-0.217197
-0.00065624
-0.219029
-0.000147612
-0.220379
-1.46904e-05
-0.221316
-8.38011e-05
-0.221857
-0.000233352
-0.222137
-0.000381575
-0.222183
-0.000486758
-0.222112
-0.000530494
-0.221955
-0.000512453
-0.221748
-0.000439428
-0.221555
-0.00032329
-0.221346
-0.000173375
-0.221166
-0.0293466
-0.0891273
-0.00439387
-0.0882719
0.0163897
-0.0876304
0.03871
-0.0869947
0.0600385
-0.0863325
0.0749577
-0.086984
0.079202
-0.0901241
0.0742225
-0.0962154
0.0598325
-0.104649
0.0369517
-0.181928
0.00756241
-0.204832
-0.0204565
-0.223162
-0.0421026
-0.234733
-0.0541706
-0.238685
-0.0557768
-0.234665
-0.0475066
-0.224054
-0.0324526
-0.212355
-0.0174656
-0.206848
-0.00819869
-0.20848
-0.00384678
-0.212125
-0.00143424
-0.215299
-0.000103623
-0.217749
0.000462015
-0.219639
0.00053731
-0.220931
0.000347655
-0.221747
5.91752e-05
-0.22215
-0.00022567
-0.222293
-0.000444761
-0.222225
-0.000575903
-0.222067
-0.00061821
-0.221849
-0.000583182
-0.221605
-0.000488475
-0.22139
-0.000351227
-0.221168
-0.000183594
-0.220982
-0.024535
-0.0960688
0.00038243
-0.0939036
0.0201072
-0.0919894
0.0414087
-0.0903292
0.0616867
-0.0886429
0.0764135
-0.0877884
0.0810524
-0.0888344
0.0771661
-0.0930677
0.0635068
-0.0998897
0.0412073
-0.108904
0.0122316
-0.186597
-0.0183936
-0.206895
-0.0431717
-0.222093
-0.0585792
-0.230325
-0.0632762
-0.231186
-0.0574383
-0.224733
-0.0427285
-0.213778
-0.024569
-0.205252
-0.0106683
-0.204378
-0.00381491
-0.208512
-0.000842515
-0.212716
0.000727242
-0.21613
0.00135001
-0.218637
0.00134506
-0.220446
0.00100047
-0.221584
0.000519978
-0.222208
5.17077e-05
-0.222427
-0.000326581
-0.222411
-0.000578816
-0.222222
-0.000706105
-0.221979
-0.000724119
-0.221708
-0.000658986
-0.221434
-0.000535137
-0.221206
-0.000373609
-0.220978
-0.000190042
-0.220792
-0.0161142
-0.160442
0.00533751
-0.101024
0.0241227
-0.097919
0.0444756
-0.0950563
0.0636459
-0.0922883
0.0777202
-0.0899496
0.0822947
-0.0890307
0.0795907
-0.0912589
0.0666935
-0.0962545
0.0450831
-0.103766
0.0165384
-0.113211
-0.0152764
-0.189714
-0.0433272
-0.206739
-0.0621427
-0.218529
-0.0698474
-0.223754
-0.066628
-0.221996
-0.0534093
-0.214052
-0.0337189
-0.204628
-0.0151663
-0.200754
-0.00423236
-0.203961
0.000131889
-0.209486
0.00191665
-0.213906
0.00259703
-0.217377
0.00249628
-0.219788
0.00193967
-0.221386
0.00121213
-0.222276
0.000490807
-0.222647
-0.000102261
-0.222652
-0.000523733
-0.222466
-0.000768801
-0.222159
-0.00086129
-0.221842
-0.000836722
-0.22153
-0.000730885
-0.221238
-0.000572705
-0.221007
-0.000387848
-0.22078
-0.000191514
-0.220601
-0.00736028
-0.182129
0.0127035
-0.167808
0.0281734
-0.105075
0.0476268
-0.10107
0.0657237
-0.0971341
0.0788652
-0.0934333
0.0831496
-0.0908045
0.0814371
-0.0908771
0.0693291
-0.0938945
0.0483473
-0.0995187
0.0204726
-0.1077
-0.0113915
-0.117096
-0.0422252
-0.190816
-0.0645151
-0.204367
-0.0754057
-0.212971
-0.074783
-0.215599
-0.0636204
-0.211785
-0.0439988
-0.203772
-0.0218583
-0.197936
-0.00583265
-0.199154
0.00130345
-0.205133
0.00361469
-0.211184
0.0043166
-0.215625
0.00407654
-0.218958
0.00326867
-0.221117
0.00220582
-0.222379
0.00115444
-0.22294
0.00026441
-0.223014
-0.00038714
-0.222788
-0.000797028
-0.222438
-0.000992967
-0.222027
-0.00102517
-0.221653
-0.000943232
-0.221318
-0.000789031
-0.221022
-0.00059695
-0.220798
-0.000391424
-0.22058
-0.000187445
-0.220413
0.000919527
-0.204162
0.0195825
-0.189008
0.0332841
-0.172918
0.0506137
-0.108061
0.0676234
-0.10297
0.0797158
-0.0979847
0.083579
-0.0938627
0.0825891
-0.0919564
0.0713779
-0.0929259
0.0509026
-0.0964497
0.0237489
-0.102795
-0.00785814
-0.111233
-0.0395135
-0.119808
-0.0659621
-0.189369
-0.0798596
-0.199913
-0.0817276
-0.206026
-0.0728292
-0.20639
-0.0543596
-0.201424
-0.0302988
-0.195332
-0.00917329
-0.194596
0.00222445
-0.200075
0.00589948
-0.207417
0.00662396
-0.213491
0.00623426
-0.217783
0.00508574
-0.220775
0.00361322
-0.222525
0.0021143
-0.223339
0.000830954
-0.223506
-0.000140214
-0.223261
-0.000776194
-0.222809
-0.00111727
-0.222314
-0.00122845
-0.221824
-0.00117986
-0.221417
-0.00102978
-0.221077
-0.00082709
-0.220792
-0.000603832
-0.220585
-0.00038316
-0.220385
-0.000177393
-0.220236
0.00787955
-0.224749
0.0253753
-0.209955
0.0374973
-0.193221
0.0536276
-0.175932
0.0690354
-0.109473
0.0801994
-0.103454
0.0837287
-0.0981344
0.0830688
-0.0943425
0.0727026
-0.0932811
0.0527417
-0.0947651
0.0262565
-0.0989573
-0.00482961
-0.105824
-0.0368433
-0.113903
-0.0648247
-0.120945
-0.0834161
-0.185813
-0.0873053
-0.194335
-0.0807101
-0.198146
-0.0640286
-0.196721
-0.0395458
-0.192177
-0.0143705
-0.190135
0.00228938
-0.194661
0.00862761
-0.202803
0.00971365
-0.210507
0.00907388
-0.216331
0.00756786
-0.220265
0.00555064
-0.222712
0.00348526
-0.223896
0.00166503
-0.224173
0.000263558
-0.22391
-0.000688185
-0.223349
-0.0012303
-0.222696
-0.00145256
-0.22209
-0.0014504
-0.221554
-0.00130612
-0.221141
-0.00108721
-0.220817
-0.000839165
-0.220557
-0.00059147
-0.220377
-0.000362171
-0.2202
-0.000162009
-0.220074
0.0129944
-0.24171
0.0294178
-0.228792
0.0405078
-0.212965
0.0553018
-0.194895
0.0694908
-0.176388
0.0801369
-0.109411
0.083538
-0.103263
0.0828403
-0.0979058
0.073218
-0.0948578
0.053806
-0.0943454
0.02792
-0.0964286
-0.00249794
-0.101289
-0.0343686
-0.108298
-0.0632675
-0.11546
-0.083799
-0.120562
-0.0914779
-0.18164
-0.0871151
-0.18793
-0.0724934
-0.189681
-0.0487162
-0.187551
-0.0209564
-0.185591
0.00105688
-0.188902
0.011421
-0.197454
0.0136367
-0.206726
0.0128133
-0.214246
0.010844
-0.219607
0.00821589
-0.22293
0.00539905
-0.224626
0.00287704
-0.225108
0.000881102
-0.224791
-0.000502812
-0.224095
-0.00132739
-0.223252
-0.00170498
-0.222444
-0.0017684
-0.221772
-0.00163231
-0.221227
-0.00139096
-0.220837
-0.00110728
-0.220549
-0.000822536
-0.220325
-0.000558525
-0.220181
-0.000329844
-0.220032
-0.000142066
-0.219932
0.0163761
-0.253407
0.0315339
-0.243826
0.0419195
-0.230203
0.0554964
-0.21316
0.0685601
-0.193964
0.078518
-0.174769
0.0828726
-0.108746
0.0818758
-0.102298
0.0727245
-0.0974123
0.0540569
-0.0951087
0.0287532
-0.0951786
-0.000964139
-0.0979624
-0.0323425
-0.103315
-0.0615546
-0.110011
-0.0834762
-0.115783
-0.0928067
-0.119233
-0.091904
-0.176851
-0.0796599
-0.180764
-0.0570341
-0.181363
-0.0281989
-0.180308
-0.00160959
-0.182925
0.0138461
-0.191327
0.0182461
-0.202063
0.0175873
-0.2115
0.0151367
-0.218539
0.0117783
-0.22317
0.00806404
-0.225595
0.00460323
-0.226352
0.0018084
-0.226035
-0.000181429
-0.225112
-0.00139912
-0.224024
-0.00199602
-0.222961
-0.0021522
-0.22206
-0.00202825
-0.221376
-0.00175584
-0.220863
-0.00142302
-0.220521
-0.00108624
-0.220285
-0.000775427
-0.220109
-0.000507254
-0.220003
-0.000287881
-0.219886
-0.000118516
-0.219813
0.0181385
-0.25942
0.0318613
-0.253735
0.0415799
-0.243486
0.0540791
-0.228786
0.0660817
-0.210682
0.0756426
-0.191089
0.0803783
-0.172274
0.0800578
-0.106928
0.0711534
-0.100727
0.053318
-0.0966734
0.0286809
-0.0950364
-0.000301828
-0.0958409
-0.0309792
-0.0993257
-0.0599176
-0.104952
-0.0827167
-0.110771
-0.0935083
-0.115082
-0.094002
-0.117135
-0.0853724
-0.171139
-0.0642693
-0.173528
-0.0352046
-0.174357
-0.00536889
-0.176549
0.0154093
-0.184488
0.0233086
-0.19639
0.0233638
-0.20784
0.0206114
-0.216975
0.0164845
-0.223245
0.0116835
-0.226789
0.00704416
-0.228036
0.00316778
-0.227711
0.000345373
-0.226562
-0.00143158
-0.22508
-0.002339
-0.223681
-0.00262687
-0.222486
-0.00252132
-0.221567
-0.00220616
-0.220925
-0.00180545
-0.22048
-0.00139722
-0.22021
-0.0010219
-0.220039
-0.000701238
-0.219915
-0.000440468
-0.219851
-0.000238412
-0.219766
-9.30224e-05
-0.21972
0.0183201
-0.259376
0.0305039
-0.258062
0.0394214
-0.251576
0.0509388
-0.240346
0.0620039
-0.224708
0.0711666
-0.206205
0.0761477
-0.186859
0.0758933
-0.16811
0.0685131
-0.104287
0.0514525
-0.0988617
0.0276462
-0.0956388
-0.00056777
-0.0947705
-0.0303839
-0.0964361
-0.0586768
-0.100566
-0.0816374
-0.106031
-0.0937188
-0.11056
-0.0952279
-0.113856
-0.088861
-0.113647
-0.0700762
-0.165332
-0.0414639
-0.167269
-0.00966837
-0.170058
0.0160658
-0.177205
0.0283704
-0.18955
0.0300832
-0.203109
0.0273161
-0.214544
0.0225565
-0.223047
0.0165604
-0.228122
0.0104235
-0.230168
0.00512453
-0.229993
0.00116181
-0.228528
-0.00139397
-0.226599
-0.00274935
-0.224669
-0.00322765
-0.22308
-0.00314914
-0.221858
-0.00277558
-0.220997
-0.00228085
-0.22045
-0.00177435
-0.220103
-0.00131104
-0.219921
-0.000919206
-0.219821
-0.000604268
-0.219751
-0.000361692
-0.219727
-0.000185025
-0.219674
-6.71043e-05
-0.219653
0.0166911
-0.254542
0.0274443
-0.256317
0.0354554
-0.254096
0.0460627
-0.2467
0.0562154
-0.234558
0.0649146
-0.218456
0.0700139
-0.200072
0.070056
-0.181021
0.063517
-0.163114
0.0483446
-0.10118
0.0254614
-0.0966768
-0.00178811
-0.0944184
-0.0306372
-0.0945172
-0.0579392
-0.0971738
-0.0804249
-0.101779
-0.0934204
-0.10633
-0.095774
-0.110014
-0.0912919
-0.111425
-0.0743617
-0.109361
-0.0466864
-0.160109
-0.0136999
-0.163238
0.0157065
-0.169698
0.0331304
-0.181965
0.0374629
-0.19693
0.0351946
-0.210988
0.0300935
-0.222081
0.0230197
-0.229506
0.0151361
-0.232835
0.00791583
-0.23296
0.00236801
-0.231199
-0.0012646
-0.228657
-0.00324333
-0.226105
-0.00400025
-0.223897
-0.00396522
-0.222264
-0.0035103
-0.221123
-0.00288572
-0.220392
-0.00224326
-0.219981
-0.00165978
-0.219754
-0.00117157
-0.219669
-0.000784496
-0.21964
-0.000489916
-0.219623
-0.00027672
-0.219636
-0.000130984
-0.21961
-4.24315e-05
-0.219611
0.0143424
-0.246436
0.0228691
-0.249967
0.0300311
-0.250892
0.0394313
-0.247465
0.0487567
-0.239242
0.0568925
-0.226536
0.0619876
-0.21043
0.0624861
-0.192502
0.0568206
-0.174325
0.0434492
-0.158218
0.022069
-0.0977872
-0.00405899
-0.094406
-0.0317136
-0.0933421
-0.0577321
-0.0947243
-0.0792039
-0.0983948
-0.0924898
-0.10271
-0.0957646
-0.106339
-0.0926695
-0.108637
-0.0774072
-0.108379
-0.0516161
-0.104432
-0.0174114
-0.156398
0.0151253
-0.162656
0.0371348
-0.173703
0.0451066
-0.189609
0.0439911
-0.205726
0.0389202
-0.219814
0.0311552
-0.230217
0.0215973
-0.235967
0.0120447
-0.236964
0.00421246
-0.234804
-0.00103289
-0.231431
-0.00387547
-0.228025
-0.00500894
-0.225097
-0.00504209
-0.22282
-0.00447624
-0.221298
-0.00366975
-0.220339
-0.00283971
-0.219796
-0.00209068
-0.21955
-0.00147192
-0.219454
-0.000988024
-0.219465
-0.000625718
-0.219505
-0.000366741
-0.219533
-0.000190854
-0.219576
-7.97632e-05
-0.219573
-2.05938e-05
-0.21959
0.0120289
-0.239119
0.0182822
-0.241849
0.0240985
-0.244034
0.0319476
-0.243409
0.0400734
-0.238782
0.0474259
-0.229775
0.0523239
-0.216872
0.0532079
-0.201152
0.0486112
-0.184292
0.0370148
-0.16789
0.0180404
-0.15419
-0.00714958
-0.0946966
-0.0332777
-0.0928419
-0.0578198
-0.0932544
-0.0779384
-0.0959898
-0.0910822
-0.0998024
-0.0952399
-0.103234
-0.0929332
-0.106076
-0.0792077
-0.106836
-0.0550779
-0.104917
-0.0226547
-0.0991882
0.0142256
-0.155498
0.0404821
-0.166004
0.0525447
-0.181141
0.0532923
-0.19891
0.0486576
-0.215464
0.0405748
-0.229234
0.0297998
-0.238419
0.0179097
-0.241832
0.00726712
-0.240018
-0.000461366
-0.235376
-0.0047304
-0.230576
-0.00637901
-0.226655
-0.00648468
-0.223654
-0.00576483
-0.221531
-0.00470387
-0.220264
-0.00361147
-0.219568
-0.00263539
-0.219251
-0.00183776
-0.219184
-0.00122407
-0.219218
-0.000771923
-0.219319
-0.00045499
-0.219416
-0.000242611
-0.219481
-0.000109687
-0.219546
-3.44632e-05
-0.219559
-2.99254e-06
-0.219587
0.0100754
-0.234945
0.0145452
-0.235382
0.0188131
-0.236563
0.024742
-0.236829
0.0312213
-0.234557
0.0373871
-0.228743
0.0417438
-0.219195
0.0428283
-0.206492
0.0391668
-0.191708
0.0295048
-0.176782
0.0131499
-0.163
-0.00913097
-0.152208
-0.0349856
-0.0929888
-0.0577328
-0.0929289
-0.0764171
-0.0947756
-0.0890666
-0.0980053
-0.0939789
-0.101063
-0.0921675
-0.104
-0.079757
-0.105526
-0.0572711
-0.104643
-0.0264164
-0.101156
0.00965897
-0.0946215
0.0434477
-0.158464
0.059319
-0.172778
0.0626758
-0.190524
0.058856
-0.209108
0.0507821
-0.225671
0.0390956
-0.23853
0.0253023
-0.245812
0.0117782
-0.246343
0.000967561
-0.241447
-0.00563714
-0.234469
-0.00828434
-0.228671
-0.00846744
-0.224672
-0.0075078
-0.221911
-0.00608712
-0.220148
-0.00462695
-0.219248
-0.00333487
-0.218868
-0.00229405
-0.218795
-0.00150376
-0.218905
-0.000932748
-0.219057
-0.000540095
-0.219234
-0.000283494
-0.219375
-0.000125724
-0.219465
-3.82237e-05
-0.219542
2.06636e-06
-0.219564
9.44888e-06
-0.219597
0.00852285
-0.233536
0.0118278
-0.232227
0.0148235
-0.231392
0.0188897
-0.230711
0.0234572
-0.229064
0.0280684
-0.225238
0.0314939
-0.218493
0.0324439
-0.20881
0.0295409
-0.196866
0.0216145
-0.183817
0.00794031
-0.171573
-0.0110786
-0.161052
-0.0338237
-0.15337
-0.0573152
-0.0934063
-0.0745725
-0.0947735
-0.0865676
-0.0972747
-0.0919621
-0.100022
-0.0904296
-0.102801
-0.0792311
-0.104526
-0.0583052
-0.104492
-0.0288647
-0.102195
0.00599419
-0.097491
0.0410038
-0.0921775
0.0655315
-0.164677
0.0715905
-0.181693
0.0690481
-0.200716
0.0613152
-0.219642
0.0490123
-0.235588
0.0334078
-0.246635
0.0173147
-0.251348
0.00326771
-0.248644
-0.00626468
-0.24082
-0.0107048
-0.232048
-0.0112411
-0.225897
-0.00989905
-0.222281
-0.00796075
-0.220038
-0.00598021
-0.218795
-0.00424829
-0.218335
-0.00287128
-0.218291
-0.00184355
-0.218455
-0.00111231
-0.218725
-0.00062113
-0.218976
-0.000308121
-0.219209
-0.000122721
-0.219378
-2.34134e-05
-0.21948
1.9062e-05
-0.219559
2.79173e-05
-0.219583
1.603e-05
-0.219613
0.0072701
-0.233028
0.00982464
-0.231533
0.0120672
-0.229471
0.0148061
-0.227309
0.0177142
-0.224968
0.0206753
-0.221671
0.0229052
-0.216649
0.0234144
-0.209463
0.0209812
-0.200251
0.0145288
-0.189781
0.00341473
-0.179292
-0.0125502
-0.170101
-0.0320101
-0.162866
-0.0529294
-0.157756
-0.0723172
-0.0956617
-0.0836989
-0.0976422
-0.0892278
-0.100009
-0.087963
-0.102489
-0.0777211
-0.104311
-0.0581369
-0.104694
-0.0301626
-0.103194
0.00358589
-0.0997862
0.0383152
-0.0948023
0.0660093
-0.0926553
0.0797062
-0.172792
0.0788204
-0.191465
0.0716311
-0.211032
0.0591435
-0.229773
0.0420125
-0.244192
0.0231131
-0.252434
0.00604761
-0.254128
-0.00677037
-0.248138
-0.0135219
-0.238003
-0.0150088
-0.228281
-0.0132382
-0.222558
-0.0105088
-0.219733
-0.00780552
-0.218212
-0.0054535
-0.21759
-0.00361469
-0.217591
-0.00226143
-0.217873
-0.00131766
-0.21825
-0.000695214
-0.218651
-0.000310677
-0.218973
-9.17617e-05
-0.21924
1.70185e-05
-0.219419
5.78227e-05
-0.219518
5.89413e-05
-0.21959
4.17305e-05
-0.219608
1.74677e-05
-0.21963
0.00622568
-0.232562
0.0082364
-0.231439
0.0100432
-0.229509
0.0120903
-0.226755
0.0139984
-0.223593
0.0157079
-0.220001
0.0168137
-0.21558
0.0167072
-0.209942
0.0145044
-0.202987
0.00925143
-0.194973
0.000269072
-0.186635
-0.012693
-0.179149
-0.0292487
-0.172863
-0.0476726
-0.168122
-0.0657585
-0.164315
-0.0804267
-0.0989339
-0.0859144
-0.100956
-0.084823
-0.103149
-0.0753184
-0.104892
-0.056893
-0.105555
-0.030246
-0.104611
0.00227489
-0.101883
0.0363892
-0.0978603
0.0657345
-0.0945275
0.0823121
-0.0952612
0.087604
-0.181576
0.0814535
-0.201288
0.06897
-0.220859
0.0507421
-0.238502
0.0294057
-0.250485
0.00894332
-0.25533
-0.00733784
-0.253561
-0.0168349
-0.244825
-0.0198454
-0.233166
-0.0179628
-0.223556
-0.0140261
-0.219041
-0.010256
-0.217282
-0.00706428
-0.216602
-0.0045783
-0.216626
-0.00278599
-0.217067
-0.00155368
-0.217637
-0.000759916
-0.218185
-0.000281833
-0.21868
-2.27348e-05
-0.219042
9.48057e-05
-0.219318
0.000126788
-0.219488
0.000113503
-0.219573
7.95835e-05
-0.219628
4.33447e-05
-0.219634
1.36992e-05
-0.219644
0.00533112
-0.232108
0.00693248
-0.231258
0.00840993
-0.229806
0.0100817
-0.2275
0.011567
-0.224324
0.0126751
-0.22056
0.0131143
-0.216301
0.0125423
-0.211415
0.0104224
-0.20586
0.00607457
-0.19981
-0.00111007
-0.193594
-0.0115785
-0.18775
-0.025335
-0.183063
-0.0415212
-0.179014
-0.0583199
-0.175561
-0.0729922
-0.171749
-0.0821246
-0.102724
-0.0811256
-0.104653
-0.0720183
-0.106449
-0.0544688
-0.107316
-0.0290589
-0.106742
0.00216682
-0.104503
0.035455
-0.100949
0.0652248
-0.0973507
0.0845306
-0.096746
0.0912904
-0.0989477
0.0901028
-0.190225
0.0783457
-0.210663
0.0592845
-0.229401
0.0356889
-0.244785
0.0120798
-0.253621
-0.00745992
-0.255208
-0.0206964
-0.249699
-0.0256853
-0.238985
-0.0243655
-0.226763
-0.0191132
-0.218469
-0.0135613
-0.215735
-0.00919233
-0.215154
-0.00584656
-0.215333
-0.00344433
-0.215968
-0.00183138
-0.216789
-0.000807818
-0.217589
-0.000210263
-0.218257
9.91925e-05
-0.218802
0.000223477
-0.219171
0.000239611
-0.219431
0.000200449
-0.219575
0.000140765
-0.219634
8.07073e-05
-0.219665
3.34081e-05
-0.219654
4.68137e-06
-0.219648
0.0045483
-0.231758
0.00584644
-0.231022
0.00706005
-0.229908
0.00843912
-0.228164
0.00971078
-0.225644
0.0106502
-0.222299
0.0109271
-0.218373
0.0102779
-0.214037
0.00834214
-0.209334
0.0047048
-0.20449
-0.00109142
-0.199828
-0.00947624
-0.195696
-0.0207735
-0.192311
-0.0347994
-0.189784
-0.0502401
-0.187094
-0.0646493
-0.183904
-0.074595
-0.179279
-0.076872
-0.106977
-0.067996
-0.108675
-0.0509242
-0.109994
-0.0266564
-0.109718
0.00328086
-0.107856
0.035548
-0.104596
0.0652503
-0.100975
0.0862174
-0.0990374
0.0947024
-0.100158
0.0943493
-0.103194
0.0863749
-0.198254
0.067512
-0.218891
0.042054
-0.235766
0.0150535
-0.247759
-0.00807638
-0.253005
-0.0244667
-0.251437
-0.0323832
-0.243001
-0.0322646
-0.231086
-0.0263047
-0.219572
-0.0183456
-0.213685
-0.0119683
-0.212959
-0.00748663
-0.213514
-0.00428732
-0.21449