/*--------------------------------*- C++ -*----------------------------------*\
| =========                 |                                                 |
| \\      /  F ield         | OpenFOAM: The Open Source CFD Toolbox           |
|  \\    /   O peration     | Version:  2506                                  |
|   \\  /    A nd           | Website:  www.openfoam.com                      |
|    \\/     M anipulation  |                                                 |
\*---------------------------------------------------------------------------*/
FoamFile
{
    version     2.0;
    format      ascii;
    arch        "LSB;label=32;scalar=64";
    class       volVectorField;
    location    "160.018072304027271";
    object      U;
}
// * * * * * * * * * * * * * * * * * * * * * * * * * * * * * * * * * * * * * //

dimensions      [0 1 -1 0 0 0 0];

internalField   nonuniform List<vector> 
9700
(
(1.09207 0.0011086 4.18228e-22)
(1.092 0.0037099 -1.14912e-24)
(1.0886 0.00104643 3.17153e-28)
(1.09186 0.00597645 -5.45316e-22)
(1.08852 0.0034894 -9.40822e-25)
(1.08708 0.00101918 -4.15935e-22)
(1.09163 0.0085033 -3.71861e-24)
(1.08842 0.0055999 -4.09225e-35)
(1.08702 0.00339812 -4.16276e-22)
(1.08492 0.000991873 0)
(1.09128 0.0108261 4.24337e-22)
(1.08819 0.00792709 3.16892e-24)
(1.08694 0.00544692 -3.08345e-21)
(1.08488 0.003305 -1.578e-23)
(1.08304 0.000975124 4.03972e-22)
(1.09078 0.0132771 4.35634e-22)
(1.08789 0.0100139 -1.47737e-27)
(1.08676 0.00769398 -4.26887e-22)
(1.08483 0.00529203 9.5751e-35)
(1.08302 0.00324924 4.06894e-22)
(1.0811 0.000966865 5.97529e-28)
(1.09006 0.0155999 3.00913e-23)
(1.08743 0.0121525 2.23724e-27)
(1.08654 0.00969124 -4.27996e-22)
(1.08472 0.00745978 4.32808e-23)
(1.08301 0.00520261 2.97456e-21)
(1.0811 0.00322376 -3.24123e-24)
(1.07919 0.000966924 -3.92154e-22)
(1.08906 0.0179539 6.39361e-22)
(1.08681 0.0140781 7.88103e-23)
(1.0862 0.0117106 -4.15818e-22)
(1.08458 0.0093709 0)
(1.08296 0.00732826 3.96158e-22)
(1.08112 0.00516605 -1.42009e-35)
(1.07921 0.0032288 -3.89877e-22)
(1.07726 0.000973409 -3.26227e-21)
(1.08765 0.0201927 -5.33312e-23)
(1.08592 0.0158969 -8.49184e-22)
(1.08573 0.0134894 -3.46122e-22)
(1.08437 0.0112772 0)
(1.08292 0.00919972 3.97749e-22)
(1.08114 0.00728059 7.96772e-24)
(1.07926 0.00518259 -2.66513e-25)
(1.0773 0.00325818 -3.77013e-21)
(1.07532 0.000983879 -5.97983e-25)
(1.08572 0.022383 -6.23037e-22)
(1.0847 0.0174279 -1.71122e-22)
(1.08508 0.0151087 -4.736e-21)
(1.08408 0.012917 -1.4096e-37)
(1.08286 0.0110564 4.19244e-22)
(1.0812 0.00915146 -3.54293e-27)
(1.07934 0.00731732 -4.0874e-22)
(1.07737 0.00524141 -5.08698e-22)
(1.07535 0.00330347 4.31129e-22)
(1.07334 0.000995276 3.1782e-21)
(1.08302 0.0244097 5.0118e-22)
(1.08302 0.0186549 2.23204e-23)
(1.08417 0.0163784 1.00484e-21)
(1.0837 0.014348 4.39359e-23)
(1.0828 0.0126421 5.11253e-22)
(1.08129 0.0110132 4.53811e-27)
(1.07949 0.00922706 -4.09086e-22)
(1.07749 0.00742183 -3.79471e-21)
(1.07544 0.00532791 5.02883e-22)
(1.07337 0.00335367 3.29864e-21)
(1.07133 0.00100428 0)
(1.07938 0.0263075 1.79381e-23)
(1.08066 0.0193986 3.21776e-23)
(1.08293 0.0172412 3.67797e-21)
(1.08316 0.0153734 1.86886e-22)
(1.08272 0.0140016 4.47611e-21)
(1.08144 0.012618 1.42902e-22)
(1.0797 0.0111495 -3.86418e-22)
(1.07769 0.00940294 -3.41727e-21)
(1.07557 0.00757142 2.88029e-22)
(1.07345 0.0054231 -2.57088e-25)
(1.07135 0.00339661 -2.38381e-36)
(1.06931 0.0010076 3.68791e-22)
(1.0743 0.0279514 3.63349e-21)
(1.07748 0.0195407 2.83214e-22)
(1.08117 0.0174993 -4.57841e-22)
(1.08243 0.0158921 -7.95166e-23)
(1.08262 0.0149376 -1.20016e-21)
(1.08166 0.0140089 -1.72664e-23)
(1.08004 0.0128488 -2.92475e-22)
(1.07801 0.0114327 -3.43453e-21)
(1.07581 0.00964647 8.55994e-28)
(1.07358 0.0077364 3.30474e-21)
(1.07141 0.00550594 6.16312e-36)
(1.0693 0.00342008 3.78067e-22)
(1.06728 0.0010023 1.15622e-27)
(1.06752 0.0293728 -4.85983e-23)
(1.07298 0.0188548 1.78136e-34)
(1.07877 0.0169471 -3.93954e-22)
(1.08139 0.0156854 -3.57311e-22)
(1.0825 0.0153253 -3.40752e-21)
(1.08201 0.0149953 -2.22761e-22)
(1.08054 0.0143782 -4.41601e-21)
(1.07849 0.0132907 -3.851e-21)
(1.07617 0.0118169 -1.00792e-27)
(1.07381 0.00991469 3.33287e-21)
(1.0715 0.00788378 -2.33219e-36)
(1.06933 0.00555536 2.48614e-25)
(1.06724 0.00341307 -9.46632e-24)
(1.06527 0.000986053 -3.4607e-22)
(1.0581 0.0303698 1.71195e-22)
(1.067 0.0171201 -6.02233e-22)
(1.07532 0.0153174 -6.70214e-21)
(1.07996 0.0144573 -4.46434e-22)
(1.08231 0.0149359 3.89915e-22)
(1.0825 0.0154484 2.44836e-23)
(1.08129 0.0155626 -3.5707e-21)
(1.0792 0.0150511 -3.07927e-21)
(1.07673 0.0138803 5.47926e-22)
(1.07416 0.0122408 3.3997e-21)
(1.07169 0.0101597 0)
(1.06936 0.00798042 3.47914e-22)
(1.06722 0.00555233 -1.71844e-35)
(1.06519 0.00336687 -3.37018e-22)
(1.06329 0.00095743 -4.4187e-22)
(1.04564 0.0312299 6.04366e-21)
(1.05847 0.0140074 -3.29077e-22)
(1.07065 0.0121969 -6.07919e-22)
(1.07784 0.0118974 2.1683e-34)
(1.08206 0.0134107 4.44081e-22)
(1.0832 0.0151415 3.00086e-23)
(1.08236 0.0162923 3.30402e-21)
(1.08026 0.0165634 -4.24478e-21)
(1.07756 0.0159406 2.89546e-21)
(1.07472 0.0145323 3.56413e-21)
(1.07198 0.012636 0)
(1.06946 0.0103332 3.53147e-22)
(1.06717 0.00799641 2.14791e-23)
(1.06512 0.00548186 -2.59739e-21)
(1.06318 0.00327599 -8.73483e-22)
(1.06139 0.000916005 -2.42417e-28)
(1.02892 0.032501 2.08581e-21)
(1.04681 0.00926409 -1.87391e-22)
(1.06372 0.00727997 -2.06061e-21)
(1.0749 0.00739355 9.24293e-22)
(1.08156 0.0104102 5.35256e-21)
(1.08417 0.0136925 2.26626e-22)
(1.08389 0.0163588 -3.8998e-22)
(1.08179 0.0177595 -3.99371e-22)
(1.07881 0.0178803 3.47386e-21)
(1.07556 0.0169275 -2.14475e-23)
(1.07245 0.0151499 -1.68097e-35)
(1.06963 0.0129331 4.08308e-22)
(1.06715 0.0103917 -9.77763e-27)
(1.06497 0.00790818 -3.87813e-22)
(1.06306 0.00533461 -4.47437e-22)
(1.06124 0.00313868 3.49341e-22)
(1.05958 0.000862451 4.1892e-22)
(1.00885 0.036946 8.33921e-21)
(1.02988 0.00228853 2.33765e-21)
(1.05417 8.73813e-05 9.5655e-22)
(1.07017 0.000597963 0)
(1.08074 0.00520641 2.35455e-22)
(1.0854 0.0107522 7.08598e-35)
(1.08604 0.0154052 -3.47705e-22)
(1.08401 0.0184686 -3.41527e-21)
(1.08062 0.0196903 -2.80847e-21)
(1.07684 0.0193478 8.24713e-22)
(1.07318 0.0178755 -2.11351e-22)
(1.06994 0.0156351 6.05368e-22)
(1.06715 0.0130697 1.18137e-26)
(1.06482 0.0103011 -3.91082e-22)
(1.0628 0.00770101 -5.95067e-22)
(1.06106 0.00510772 2.88211e-21)
(1.0594 0.00295721 4.33542e-22)
(1.05789 0.000798482 -4.00258e-22)
(0.984277 0.0464368 -2.49859e-20)
(1.00694 -0.00684765 -5.20754e-21)
(1.04036 -0.00991698 2.54408e-21)
(1.06338 -0.00957617 -1.27936e-34)
(1.07892 -0.00257553 -8.90657e-22)
(1.08684 0.00558996 -3.65451e-22)
(1.08892 0.0131136 -2.34383e-21)
(1.08714 0.0184089 -3.57409e-21)
(1.08329 0.0212589 3.80008e-24)
(1.07871 0.0218542 3.40971e-21)
(1.07431 0.0207737 1.8031e-22)
(1.07044 0.0186457 4.31707e-21)
(1.06723 0.0158993 3.5896e-22)
(1.06462 0.0129967 -3.28632e-22)
(1.0625 0.01004 -4.55227e-22)
(1.06071 0.00737041 2.97532e-22)
(1.05917 0.00480533 -2.367e-21)
(1.05769 0.00273768 -8.18497e-22)
(1.05634 0.000726669 -2.6711e-28)
(0.955247 0.0658078 -5.13218e-21)
(0.977365 -0.016956 -4.39105e-21)
(1.02101 -0.0237922 -4.67006e-21)
(1.05307 -0.0240914 9.79595e-36)
(1.07629 -0.0147199 -7.07177e-23)
(1.08846 -0.00228781 -1.64479e-22)
(1.09259 0.0088863 -2.84e-22)
(1.09135 0.0173496 -4.41926e-22)
(1.08706 0.0224227 2.33729e-22)
(1.08151 0.0244106 3.54879e-21)
(1.076 0.0239784 1.26851e-22)
(1.07127 0.0219608 3.35131e-21)
(1.06742 0.0191126 -3.92303e-23)
(1.06442 0.0158733 -5.73084e-23)
(1.06209 0.0126837 -4.62915e-22)
(1.06026 0.00960235 2.37446e-27)
(1.05873 0.00692279 3.77685e-22)
(1.05742 0.00443815 -4.03791e-22)
(1.05612 0.0024893 1.96137e-23)
(1.05494 0.000650338 3.70504e-22)
(0.928371 0.0994506 1.58474e-20)
(0.94069 -0.0249124 1.45902e-20)
(0.993208 -0.0406597 7.40216e-21)
(1.0373 -0.0446151 9.25007e-36)
(1.07168 -0.032819 1.93747e-21)
(1.09109 -0.0154221 3.34118e-26)
(1.09802 0.00201998 -6.38429e-23)
(1.09695 0.0149283 -2.76944e-21)
(1.09208 0.0230943 3.65812e-22)
(1.08546 0.0270021 3.50998e-21)
(1.07858 0.0275359 -6.43968e-24)
(1.07254 0.0257812 -3.51614e-21)
(1.0678 0.0227309 -4.3606e-22)
(1.06422 0.0191784 -4.27381e-21)
(1.06159 0.0155146 -8.39738e-22)
(1.05964 0.0121222 -2.97279e-27)
(1.05816 0.00899767 3.82283e-22)
(1.05691 0.00637479 -4.63319e-22)
(1.05583 0.00402222 8.10013e-35)
(1.05472 0.00222397 5.44403e-22)
(1.0537 0.000573279 4.28847e-24)
(0.899253 0.142499 -1.63735e-22)
(0.898407 -0.0247299 9.46107e-22)
(0.955879 -0.0581979 -3.98241e-21)
(1.01183 -0.0696503 0)
(1.06162 -0.0590092 -1.53494e-21)
(1.09369 -0.0360738 3.01222e-22)
(1.10697 -0.0106246 -2.58713e-23)
(1.10624 0.0102187 -1.7328e-21)
(1.09904 0.0231968 1.14192e-21)
(1.09062 0.0297162 1.19911e-22)
(1.08221 0.0315899 -2.62818e-36)
(1.07456 0.0302288 4.32791e-22)
(1.06846 0.0270084 3.71182e-23)
(1.06407 0.0229457 7.25002e-22)
(1.06097 0.0187842 -2.60647e-21)
(1.05885 0.014812 4.28712e-22)
(1.05735 0.0113259 4.83451e-22)
(1.05623 0.00825023 -4.07179e-22)
(1.05528 0.00575133 -4.62468e-23)
(1.05442 0.00357808 3.72044e-22)
(1.05349 0.00195516 1.96885e-23)
(1.05261 0.000499407 -3.22583e-21)
(0.859119 0.18664 1.54889e-21)
(0.853199 -0.0108746 -5.33503e-21)
(0.909206 -0.0735548 -5.65711e-21)
(0.974674 -0.0969533 -3.31471e-36)
(1.03979 -0.0905703 6.77094e-21)
(1.09036 -0.0662503 6.49001e-22)
(1.11794 -0.0318932 -1.53921e-21)
(1.122 -0.000232138 -5.79224e-23)
(1.11179 0.0217358 -1.211e-26)
(1.09811 0.0327642 3.46578e-21)
(1.08679 0.0363898 -1.60569e-35)
(1.07738 0.0355931 4.44722e-22)
(1.06963 0.0321217 2.84419e-23)
(1.06398 0.0274646 3.50055e-21)
(1.06025 0.0225236 5.44642e-22)
(1.05783 0.0179153 2.74876e-21)
(1.05631 0.013786 9.0802e-22)
(1.05529 0.0103295 -4.11287e-22)
(1.05454 0.00739603 2.84509e-27)
(1.05386 0.00508416 9.22174e-22)
(1.0532 0.0031288 8.65285e-22)
(1.05243 0.00169665 -3.61742e-21)
(1.05168 0.000432503 -1.11425e-24)
(0.800267 0.220322 6.91095e-21)
(0.806076 0.0149863 -4.01303e-22)
(0.854788 -0.0825092 4.39208e-21)
(0.925493 -0.124256 -3.12998e-35)
(1.00449 -0.125151 -1.16564e-22)
(1.07255 -0.102133 1.23388e-21)
(1.12187 -0.062892 4.99948e-21)
(1.14133 -0.0193669 2.18778e-21)
(1.13393 0.0154096 -9.67204e-22)
(1.11325 0.0354126 5.18389e-21)
(1.09374 0.0424042 -1.88095e-35)
(1.08073 0.0422333 3.39426e-21)
(1.07126 0.0384767 6.3074e-23)
(1.06409 0.0329345 -4.57991e-22)
(1.05936 0.0270373 -7.13427e-22)
(1.05654 0.0214468 -9.76382e-22)
(1.05493 0.0166017 -7.80183e-23)
(1.05404 0.0124857 -7.3995e-22)
(1.0535 0.00918384 -3.62144e-27)
(1.05309 0.00648055 3.70746e-22)
(1.05265 0.00440893 -4.64538e-23)
(1.05216 0.00269792 -3.40607e-22)
(1.05152 0.00146167 1.73619e-22)
(1.05087 0.000375933 2.97331e-21)
(0.730519 0.240533 5.33641e-23)
(0.75886 0.0491429 -8.08432e-23)
(0.79554 -0.0853594 -5.03681e-22)
(0.866441 -0.148777 -3.23153e-35)
(0.955052 -0.160831 -1.83844e-20)
(1.03931 -0.141534 -6.10043e-21)
(1.10836 -0.0994421 -1.56669e-20)
(1.15209 -0.0470551 8.99784e-22)
(1.16063 0.00157269 -6.53923e-21)
(1.14031 0.0350988 1.9473e-21)
(1.10952 0.0495294 0)
(1.08602 0.0508048 6.28684e-22)
(1.0729 0.0464749 1.53774e-34)
(1.06429 0.0398388 -4.37758e-22)
(1.05834 0.0325101 -1.1769e-21)
(1.05488 0.0257064 -2.89415e-21)
(1.05315 0.0197609 3.90024e-22)
(1.05239 0.0149132 -2.18994e-21)
(1.05213 0.0109826 9.37447e-23)
(1.05203 0.00795278 3.7094e-22)
(1.05191 0.00555449 -4.68779e-23)
(1.05166 0.00376192 -3.37912e-21)
(1.05129 0.00230788 2.82057e-21)
(1.05075 0.00126192 3.12385e-21)
(1.05017 0.00033233 3.02608e-22)
(0.671363 0.24878 3.52654e-20)
(0.706292 0.0757441 -6.95739e-21)
(0.740238 -0.0728877 0)
(0.803268 -0.169309 1.60181e-21)
(0.893996 -0.195653 -1.9322e-21)
(0.99019 -0.182533 -7.61893e-22)
(1.07785 -0.140199 3.29344e-21)
(1.14293 -0.0799825 1.64651e-20)
(1.17741 -0.018683 4.28592e-21)
(1.1726 0.0297159 -7.20415e-21)
(1.13892 0.0564739 -1.23683e-35)
(1.10027 0.0620347 2.64667e-21)
(1.07559 0.0568534 4.83254e-22)
(1.06396 0.0485626 -7.53479e-21)
(1.057 0.039461 -1.6044e-21)
(1.05277 0.0308285 -1.25313e-22)
(1.0508 0.0235418 3.11612e-21)
(1.05022 0.0175661 8.21692e-22)
(1.0503 0.0129491 1.1386e-22)
(1.05061 0.00936502 6.58865e-22)
(1.05088 0.00670704 5.97361e-23)
(1.05099 0.00466922 -3.23954e-21)
(1.05087 0.00317766 -4.16195e-22)
(1.05057 0.00197847 1.69522e-21)
(1.05009 0.00110657 3.88783e-22)
(1.04955 0.000303296 1.93578e-28)
(0.629336 0.249663 1.8958e-20)
(0.662575 0.0937302 -8.13299e-21)
(0.688091 -0.063112 9.42783e-23)
(0.741342 -0.180149 7.13148e-26)
(0.825227 -0.228519 -2.87499e-21)
(0.928448 -0.223555 4.38642e-21)
(1.02977 -0.183387 3.4571e-20)
(1.11608 -0.118076 2.52051e-20)
(1.17296 -0.0441036 1.82435e-20)
(1.19431 0.0200168 1.60181e-21)
(1.17458 0.0618684 -1.82195e-35)
(1.12894 0.0762128 -1.3256e-21)
(1.0862 0.071093 4.58153e-22)
(1.06349 0.0598103 -5.57557e-22)
(1.05468 0.0482133 -6.77413e-22)
(1.04997 0.0373297 5.55887e-22)
(1.04775 0.028001 4.7666e-22)
(1.04736 0.0206884 -7.50539e-22)
(1.04789 0.0150027 -7.31744e-36)
(1.04873 0.0108306 2.33986e-21)
(1.04951 0.00772999 5.36068e-22)
(1.05005 0.00551807 -3.20396e-21)
(1.0503 0.00387345 1.05829e-26)
(1.05025 0.00268661 2.76149e-21)
(1.04998 0.00172509 -4.22183e-21)
(1.0495 0.00100138 -1.4317e-22)
(1.04897 0.000289268 -2.81247e-22)
(0.593284 0.246865 6.21134e-22)
(0.631389 0.101471 1.70196e-20)
(0.648463 -0.0513114 2.46115e-20)
(0.683357 -0.186383 -5.90258e-21)
(0.756566 -0.256432 3.55769e-20)
(0.85799 -0.263344 4.77988e-22)
(0.9677 -0.227889 -4.02757e-21)
(1.07018 -0.15952 3.59946e-20)
(1.15051 -0.0755818 1.25411e-20)
(1.19543 0.00445163 -6.0025e-21)
(1.20016 0.0646578 -7.16832e-39)
(1.16543 0.0924301 -7.9568e-21)
(1.11124 0.0911319 -2.18932e-25)
(1.06886 0.0754613 3.32687e-22)
(1.051 0.0593561 -1.09556e-21)
(1.04581 0.0454301 4.15902e-21)
(1.04369 0.0336232 6.79511e-22)
(1.04359 0.0242427 -1.59394e-21)
(1.04471 0.0173418 -1.61387e-22)
(1.04623 0.0122379 8.95407e-22)
(1.04768 0.00868914 -3.43288e-21)
(1.0488 0.00617442 -4.2954e-21)
(1.04951 0.00445342 -1.33901e-26)
(1.04982 0.00320998 2.93704e-21)
(1.04976 0.00231249 9.38764e-23)
(1.04946 0.00155735 1.44608e-34)
(1.04897 0.000948487 -2.06379e-22)
(1.04841 0.000289371 0)
(0.565911 0.240632 9.05398e-22)
(0.603834 0.103055 3.52693e-20)
(0.62349 -0.0434923 -4.7388e-21)
(0.643358 -0.186007 5.69422e-20)
(0.693769 -0.27884 2.38097e-20)
(0.78582 -0.300121 7.66275e-22)
(0.895355 -0.271181 7.50044e-21)
(1.00877 -0.20389 3.6573e-20)
(1.10789 -0.111129 1.31387e-20)
(1.17772 -0.0170137 6.15699e-21)
(1.20526 0.0601409 0)
(1.19575 0.10792 7.18506e-21)
(1.146 0.116372 -7.7174e-21)
(1.08762 0.0989669 7.21056e-22)
(1.05039 0.0746257 -8.76413e-22)
(1.03936 0.0555993 4.68101e-22)
(1.03802 0.040483 -3.25936e-21)
(1.03858 0.0286657 -2.02205e-21)
(1.0405 0.019835 -1.89413e-22)
(1.04295 0.0137302 4.17079e-23)
(1.04526 0.00945033 -1.32818e-21)
(1.04716 0.00665545 -1.81391e-21)
(1.04847 0.00478939 8.34304e-22)
(1.04922 0.00357247 2.87474e-21)
(1.04949 0.00271212 2.90641e-22)
(1.04936 0.00207016 3.26254e-22)
(1.04899 0.00147861 1.51064e-21)
(1.04844 0.000946023 1.69471e-22)
(1.04783 0.000301524 -2.48536e-21)
(0.548528 0.231693 7.6859e-21)
(0.583634 0.0991184 -8.91193e-21)
(0.603294 -0.0411265 -4.71465e-20)
(0.620252 -0.182743 2.78468e-20)
(0.649901 -0.291838 3.93271e-20)
(0.717981 -0.332763 3.55764e-21)
(0.820313 -0.312451 -5.6527e-20)
(0.935029 -0.247564 7.04582e-21)
(1.04823 -0.151311 -3.62394e-20)
(1.13892 -0.0426227 -3.2892e-20)
(1.19412 0.0508816 -8.12699e-36)
(1.20688 0.117066 -1.00874e-20)
(1.17773 0.143237 2.14355e-20)
(1.118 0.130801 -6.9345e-21)
(1.06071 0.0984855 1.17326e-20)
(1.03312 0.0689251 4.82307e-22)
(1.02954 0.0490063 5.20637e-22)
(1.0318 0.0338435 -5.41995e-22)
(1.03492 0.0228612 1.70487e-22)
(1.03858 0.0150954 -8.86003e-22)
(1.0421 0.0100918 -1.91284e-21)
(1.04496 0.00681445 -3.79186e-22)
(1.0471 0.00485191 2.99359e-21)
(1.04844 0.00365456 2.71075e-21)
(1.04911 0.00292154 2.83499e-22)
(1.04926 0.00240069 -2.03014e-27)
(1.04901 0.00196491 -4.40049e-22)
(1.04852 0.00148537 -1.19504e-21)
(1.04789 0.000988174 -2.52559e-21)
(1.04722 0.000322798 -6.56486e-25)
(0.542467 0.219801 -7.57318e-21)
(0.57281 0.0896381 -1.2391e-20)
(0.589867 -0.0429877 5.67046e-22)
(0.604295 -0.181898 -2.22007e-20)
(0.624118 -0.2975 -4.66815e-20)
(0.669845 -0.355352 -4.85729e-20)
(0.748454 -0.349715 -4.33119e-23)
(0.857788 -0.290923 -4.79335e-20)
(0.97434 -0.191071 -3.28778e-20)
(1.08189 -0.0743904 -4.26882e-20)
(1.15948 0.0385238 -2.85862e-35)
(1.19739 0.121859 2.14276e-20)
(1.19524 0.168032 1.88175e-20)
(1.14836 0.167425 -8.65954e-21)
(1.08363 0.133347 -2.42183e-21)
(1.03403 0.0900019 -5.67467e-21)
(1.01899 0.0593911 -3.53484e-22)
(1.0221 0.0402584 3.47799e-22)
(1.02747 0.0260949 2.52538e-35)
(1.03286 0.0166436 -6.3232e-22)
(1.03786 0.0103464 -4.4525e-23)
(1.04212 0.00665711 -3.01105e-22)
(1.04527 0.00449177 -2.46619e-21)
(1.04743 0.00338572 1.79595e-21)
(1.04864 0.00283197 9.41759e-22)
(1.04912 0.0025298 2.49019e-27)
(1.04906 0.00228303 -2.69717e-22)
(1.04864 0.00199149 2.94382e-22)
(1.04802 0.00156745 8.43812e-22)
(1.0473 0.00106563 -9.56896e-23)
(1.04655 0.000349772 2.33948e-21)
(0.550108 0.205247 -4.25007e-21)
(0.573315 0.0755533 2.38811e-20)
(0.584931 -0.0498622 1.70256e-20)
(0.595807 -0.183285 2.20566e-20)
(0.607789 -0.302461 -3.10025e-20)
(0.640059 -0.369266 -1.66584e-20)
(0.69645 -0.376876 -6.47353e-21)
(0.781739 -0.330005 3.7726e-21)
(0.896275 -0.233981 5.8528e-20)
(1.00979 -0.105693 -6.97536e-21)
(1.1059 0.019318 -1.89706e-35)
(1.16709 0.123688 1.08352e-20)
(1.18733 0.188123 -6.99273e-20)
(1.16623 0.205351 2.40599e-20)
(1.1102 0.176676 8.74878e-21)
(1.04683 0.12313 9.82005e-22)
(1.01124 0.0754534 -4.79846e-21)
(1.009 0.0472893 -6.6348e-22)
(1.01727 0.0301231 -2.19839e-22)
(1.0252 0.0178564 3.95868e-22)
(1.03238 0.0104336 1.79099e-22)
(1.03829 0.00589186 -2.91639e-21)
(1.04292 0.00363876 1.73802e-21)
(1.04608 0.00262257 2.57804e-21)
(1.04804 0.00234091 2.4326e-22)
(1.04897 0.00236087 -6.18439e-23)
(1.04916 0.00240777 -2.62814e-22)
(1.04885 0.0023516 0)
(1.04823 0.00213421 -2.52581e-21)
(1.04746 0.00170878 -1.07414e-21)
(1.04665 0.00116618 2.35794e-21)
(1.04583 0.000378817 -2.26856e-21)
(0.570003 0.187712 -5.84265e-21)
(0.586445 0.0575352 -1.74835e-20)
(0.590179 -0.061058 -1.12774e-20)
(0.596 -0.188194 1.23362e-20)
(0.601014 -0.306988 4.31988e-20)
(0.620163 -0.381151 9.12458e-21)
(0.662669 -0.395324 7.25072e-21)
(0.725378 -0.359221 8.76348e-21)
(0.81559 -0.271547 1.22014e-21)
(0.932226 -0.144662 -1.23403e-20)
(1.03748 -0.000238376 -3.1388e-20)
(1.11769 0.119877 -2.71397e-20)
(1.16125 0.203636 -7.39587e-21)
(1.16458 0.23938 2.13763e-20)
(1.12865 0.223522 2.63127e-21)
(1.06659 0.167974 -6.61279e-23)
(1.01259 0.102272 9.35725e-22)
(0.994905 0.0575424 8.50014e-21)
(1.00323 0.0337517 1.9734e-21)
(1.0151 0.0193854 2.45434e-21)
(1.025 0.00971151 1.80242e-21)
(1.0334 0.00461771 -2.80559e-21)
(1.03975 0.0020054 -1.6566e-21)
(1.04437 0.00122283 3.3952e-21)
(1.04725 0.00131677 2.10507e-21)
(1.04881 0.0017715 -7.11678e-23)
(1.04933 0.00225556 2.4669e-22)
(1.04915 0.00254523 0)
(1.04855 0.00258408 -2.49269e-21)
(1.04772 0.00236821 -4.1911e-22)
(1.04682 0.00188854 1.34373e-21)
(1.04592 0.00127574 -2.26616e-21)
(1.04504 0.000406253 -6.37552e-25)
(0.603135 0.166365 -5.22114e-20)
(0.61324 0.0360906 -4.11585e-20)
(0.607135 -0.0759539 1.39631e-21)
(0.606011 -0.196953 -4.55497e-21)
(0.604116 -0.312298 3.79987e-20)
(0.61111 -0.390815 2.80006e-21)
(0.638267 -0.4107 -1.30156e-21)
(0.687548 -0.380504 -1.47158e-20)
(0.75421 -0.30089 2.1943e-20)
(0.846735 -0.174559 1.50902e-23)
(0.959904 -0.030491 3.89683e-25)
(1.05316 0.113217 7.12576e-21)
(1.11599 0.215262 3.56804e-20)
(1.14237 0.268445 -3.62896e-20)
(1.13009 0.268667 -2.68078e-21)
(1.08295 0.219669 6.89249e-21)
(1.02242 0.142735 -7.73807e-21)
(0.985507 0.0750806 -1.61787e-21)
(0.985896 0.0386225 -1.06142e-25)
(1.00125 0.0197282 4.24776e-22)
(1.01553 0.00877659 -2.38946e-22)
(1.02674 0.00216688 5.57671e-23)
(1.03574 -0.000455537 2.14043e-21)
(1.04205 -0.00107701 6.4288e-22)
(1.04628 -0.000442402 -2.04484e-21)
(1.04862 0.000646204 2.89733e-36)
(1.0496 0.00169839 1.71378e-22)
(1.04961 0.00250254 2.26288e-22)
(1.04902 0.0029112 -2.39679e-21)
(1.04813 0.00294503 5.31135e-27)
(1.04711 0.00266099 2.45057e-21)
(1.04609 0.00208283 7.76401e-22)
(1.04511 0.00137969 9.72978e-23)
(1.04419 0.000428477 2.12406e-21)
(0.649292 0.141063 3.0539e-20)
(0.653233 0.0121559 3.67074e-21)
(0.636396 -0.0941315 -8.22315e-21)
(0.626892 -0.20899 -4.40163e-20)
(0.617355 -0.319461 1.33866e-22)
(0.613363 -0.398742 -1.58558e-20)
(0.624597 -0.422628 4.24163e-22)
(0.658776 -0.398583 -2.59163e-21)
(0.712712 -0.324081 -9.12815e-21)
(0.780862 -0.203089 -4.91355e-21)
(0.872709 -0.0458829 3.77577e-21)
(0.975132 0.0979191 -2.92288e-21)
(1.05443 0.22223 2.75616e-21)
(1.10083 0.293877 -2.83979e-20)
(1.11167 0.309922 6.69175e-20)
(1.08617 0.272603 -1.38892e-20)
(1.03346 0.193547 -2.03172e-21)
(0.98354 0.105829 5.33457e-21)
(0.968557 0.0462712 -1.61773e-34)
(0.983493 0.0201155 -5.03962e-21)
(1.00257 0.00605832 -2.2131e-21)
(1.01839 -0.00107108 -2.25577e-21)
(1.03022 -0.0043512 -1.0246e-21)
(1.03917 -0.00447743 7.28015e-22)
(1.04497 -0.00316797 -9.66323e-22)
(1.04845 -0.00125721 8.7357e-23)
(1.05001 0.000640139 1.8822e-21)
(1.05028 0.00210497 -4.90179e-22)
(1.04972 0.00306012 -2.14619e-21)
(1.04872 0.00345599 -6.06162e-27)
(1.04755 0.00338807 2.36974e-21)
(1.04636 0.00297519 -2.44046e-21)
(1.04526 0.00226685 4.11126e-35)
(1.04424 0.00146402 2.2352e-21)
(1.0433 0.000442259 0)
(0.722854 0.105988 1.42566e-21)
(0.70508 -0.0144182 4.07814e-20)
(0.677928 -0.113998 2.19982e-20)
(0.659124 -0.223749 -6.1527e-22)
(0.640769 -0.328288 -2.74115e-20)
(0.62621 -0.405527 9.74729e-21)
(0.623284 -0.430877 2.45134e-21)
(0.640331 -0.413493 1.63422e-20)
(0.680359 -0.343225 -7.19652e-20)
(0.73663 -0.227672 2.32815e-20)
(0.805119 -0.075042 6.25725e-21)
(0.892145 0.097276 0)
(0.97906 0.224086 2.81595e-21)
(1.04275 0.314237 1.10257e-21)
(1.07417 0.346713 -9.22863e-21)
(1.07159 0.322799 -2.17697e-20)
(1.03642 0.249339 6.85961e-21)
(0.985984 0.148709 1.52237e-21)
(0.95538 0.0641634 3.63925e-22)
(0.962191 0.019372 8.87866e-22)
(0.986204 0.00264617 2.17102e-21)
(1.00685 -0.00650553 3.38085e-22)
(1.02339 -0.00961369 -2.77692e-21)
(1.03513 -0.00948658 -2.83244e-23)
(1.04338 -0.0071925 2.49383e-22)
(1.04822 -0.00413722 9.25726e-23)
(1.05063 -0.00117732 1.67958e-22)
(1.05124 0.00127881 5.03693e-23)
(1.05072 0.00293593 -2.12005e-22)
(1.04958 0.00386084 1.38901e-22)
(1.04819 0.00411413 2.35805e-21)
(1.0468 0.00385976 -2.32326e-21)
(1.0455 0.00327204 -2.1673e-22)
(1.04435 0.00241683 -7.30383e-22)
(1.04331 0.00151671 -3.583e-23)
(1.0424 0.000445121 -2.08318e-22)
(0.825871 0.0610923 -8.09661e-21)
(0.78394 -0.0479258 -3.34857e-22)
(0.730426 -0.134926 2.3841e-21)
(0.702368 -0.239355 2.58831e-20)
(0.673963 -0.338295 -4.54703e-20)
(0.649036 -0.411042 1.54083e-20)
(0.632149 -0.435504 -7.1515e-22)
(0.633322 -0.424954 -7.79592e-22)
(0.658231 -0.359072 3.67881e-21)
(0.700836 -0.247146 2.11349e-20)
(0.758815 -0.0989596 -3.8298e-20)
(0.825579 0.0678647 -7.88708e-22)
(0.900072 0.22954 6.62965e-21)
(0.973176 0.329589 4.95622e-20)
(1.02055 0.377919 1.46475e-20)
(1.03882 0.368036 7.4566e-21)
(1.02502 0.304484 -3.56815e-20)
(0.985442 0.200696 -1.60558e-21)
(0.947168 0.092842 -1.16965e-22)
(0.941088 0.024444 -2.54277e-21)
(0.964613 -0.00409195 2.15545e-21)
(0.992704 -0.013388 1.57281e-21)
(1.01382 -0.0173402 4.35616e-21)
(1.03017 -0.0163714 1.81672e-21)
(1.0411 -0.0129375 -8.63628e-23)
(1.04804 -0.00841759 -7.32162e-22)
(1.0515 -0.00391831 -7.55656e-22)
(1.0526 -0.000223002 -2.07114e-21)
(1.05213 0.00249081 -3.33419e-21)
(1.0508 0.00409986 -1.03084e-21)
(1.04913 0.00481499 2.36907e-21)
(1.04742 0.00480991 -2.32819e-21)
(1.04587 0.00430455 5.16888e-27)
(1.04452 0.00351442 2.06748e-21)
(1.04338 0.00251223 3.52972e-35)
(1.04237 0.00152874 -1.4567e-22)
(1.04149 0.000435601 -1.59655e-28)
(0.93512 0.0149206 -8.11226e-20)
(0.885635 -0.0844232 7.8922e-21)
(0.808918 -0.161925 0)
(0.752698 -0.254778 -1.10856e-24)
(0.71607 -0.347536 1.42044e-21)
(0.68067 -0.415099 7.0628e-21)
(0.651887 -0.437707 -1.70441e-21)
(0.637588 -0.4325 -2.69901e-20)
(0.646883 -0.371505 6.07324e-20)
(0.674961 -0.262687 -7.19798e-20)
(0.719428 -0.11828 -3.83639e-20)
(0.777288 0.0485866 -5.52944e-21)
(0.836666 0.211415 7.72151e-21)
(0.90025 0.342361 -5.89952e-22)
(0.956167 0.403863 -2.75693e-20)
(0.990428 0.40714 1.80694e-20)
(0.997323 0.355298 -9.74202e-21)
(0.975314 0.255429 4.27146e-20)
(0.939519 0.133454 -2.22042e-21)
(0.922867 0.035897 -6.4401e-22)
(0.940256 -0.00943088 -2.25222e-22)
(0.973266 -0.0241633 -3.01758e-21)
(1.00226 -0.0274019 1.77619e-23)
(1.0231 -0.0259395 -1.2031e-23)
(1.03832 -0.0209363 -1.0328e-22)
(1.04769 -0.0144592 2.21434e-35)
(1.05276 -0.00805184 -8.04953e-23)
(1.05449 -0.00252685 -2.65873e-23)
(1.0541 0.0015156 -1.61338e-22)
(1.05253 0.00415507 1.95069e-21)
(1.05045 0.00547346 1.16264e-23)
(1.04834 0.0058181 -2.37041e-21)
(1.04641 0.00546455 -5.97392e-27)
(1.04479 0.00466922 2.21409e-21)
(1.04345 0.00367044 8.03862e-23)
(1.04237 0.00253771 6.77852e-22)
(1.04143 0.0014948 1.20909e-23)
(1.04063 0.000413397 1.90492e-22)
(1.04082 -0.0255734 2.20303e-21)
(0.986648 -0.118688 1.5607e-21)
(0.904175 -0.184902 -1.64216e-20)
(0.824593 -0.273688 5.10547e-21)
(0.765113 -0.355714 5.81771e-21)
(0.720081 -0.417024 7.37181e-21)
(0.680871 -0.437813 8.69836e-21)
(0.652859 -0.43559 2.67469e-20)
(0.646293 -0.380068 6.87478e-21)
(0.659891 -0.274201 3.07911e-20)
(0.689479 -0.133452 4.07815e-20)
(0.735131 0.031053 -2.16117e-21)
(0.788876 0.198128 1.16559e-20)
(0.83797 0.341007 2.13227e-21)
(0.886926 0.426183 2.38554e-20)
(0.931628 0.440112 -3.89385e-20)
(0.95516 0.399929 -3.91701e-20)
(0.952017 0.308129 -6.21798e-21)
(0.927387 0.180336 6.88043e-22)
(0.905881 0.0590148 5.79325e-22)
(0.915478 -0.0138474 5.00843e-36)
(0.949747 -0.0370236 4.37195e-22)
(0.986211 -0.0413095 1.05809e-21)
(1.0145 -0.0386998 1.41425e-21)
(1.03421 -0.0318377 -8.83327e-22)
(1.04734 -0.0229786 5.92721e-22)
(1.05439 -0.013889 7.89889e-22)
(1.05711 -0.00609656 2.00759e-22)
(1.05685 -7.17036e-05 -1.80833e-21)
(1.05493 0.00387838 -1.15177e-22)
(1.05232 0.00610515 -7.19962e-22)
(1.04962 0.00691188 -4.52172e-22)
(1.04721 0.00676092 3.27482e-22)
(1.04519 0.00600262 2.24378e-21)
(1.0436 0.00490816 0)
(1.04234 0.00371644 -3.54963e-22)
(1.04137 0.00248424 -1.73996e-21)
(1.04052 0.00141372 1.50534e-22)
(1.03982 0.000379286 1.81306e-22)
(1.12665 -0.0581142 -6.25386e-22)
(1.07848 -0.144537 -1.49732e-20)
(1.0002 -0.204311 3.86977e-21)
(0.919597 -0.284386 3.42868e-25)
(0.834259 -0.361346 9.30973e-21)
(0.765433 -0.416882 1.62776e-20)
(0.717622 -0.436246 -1.36481e-20)
(0.678151 -0.434674 3.50294e-20)
(0.656124 -0.384103 -1.78912e-20)
(0.655238 -0.28131 1.72091e-20)
(0.670434 -0.14416 -1.3434e-21)
(0.701929 0.0170973 5.7902e-21)
(0.74618 0.184929 1.85032e-21)
(0.792637 0.333316 -5.07854e-22)
(0.82887 0.436036 9.78336e-23)
(0.867833 0.465976 -1.33591e-20)
(0.903474 0.437473 8.42045e-20)
(0.916128 0.355758 9.40988e-21)
(0.906255 0.229262 1.59019e-21)
(0.888216 0.0897092 -1.34822e-20)
(0.890167 -0.00995068 2.55065e-22)
(0.923356 -0.0529166 0)
(0.966034 -0.0594339 3.00194e-21)
(1.00245 -0.055457 -3.5806e-21)
(1.02909 -0.0466317 1.71995e-22)
(1.04655 -0.0345848 -4.3431e-23)
(1.05662 -0.0222542 2.3665e-23)
(1.06064 -0.0111891 1.01499e-35)
(1.06064 -0.00267584 -1.52797e-21)
(1.0583 0.00324088 4.7506e-23)
(1.05492 0.00663916 2.14519e-21)
(1.05146 0.0081426 -3.22868e-21)
(1.04833 0.0082629 1.35925e-22)
(1.04578 0.00753854 2.25224e-21)
(1.0438 0.00635972 0)
(1.04233 0.00498774 -2.13512e-22)
(1.04123 0.00363877 -2.79172e-23)
(1.04041 0.00234995 1.04048e-21)
(1.03968 0.00128846 2.49726e-22)
(1.03909 0.000334889 1.61159e-28)
(1.18423 -0.0782554 2.62838e-21)
(1.15263 -0.160626 -3.38086e-21)
(1.08573 -0.216181 1.5535e-20)
(1.00985 -0.289388 -2.32912e-20)
(0.920369 -0.360015 -5.33155e-20)
(0.830488 -0.412829 -7.58675e-21)
(0.759927 -0.432875 -2.38534e-20)
(0.71161 -0.430219 -1.55144e-20)
(0.675467 -0.382928 -1.9226e-20)
(0.660369 -0.284095 -1.10399e-19)
(0.661955 -0.150156 4.14985e-20)
(0.679519 0.00750684 -8.05533e-20)
(0.711476 0.173362 -1.8387e-20)
(0.751902 0.326096 -1.61041e-20)
(0.788882 0.436196 -9.11902e-22)
(0.815048 0.479214 3.80238e-20)
(0.847241 0.465796 -3.50669e-20)
(0.871219 0.396788 -1.98299e-20)
(0.875495 0.27539 9.77512e-21)
(0.865707 0.1273 1.86524e-21)
(0.86527 -0.00119983 -2.79153e-25)
(0.894265 -0.0654866 1.04355e-23)
(0.94204 -0.0820686 -2.48712e-23)
(0.986832 -0.0774899 3.81782e-21)
(1.02154 -0.0658855 -1.90604e-22)
(1.04546 -0.0505743 -2.16951e-27)
(1.05938 -0.0337706 5.03447e-22)
(1.06542 -0.0186597 4.95238e-22)
(1.06584 -0.00648608 -1.13405e-22)
(1.06294 0.00194899 -7.61768e-22)
(1.0586 0.00710925 2.27627e-21)
(1.05401 0.00952304 -8.24054e-23)
(1.04994 0.0100567 3.00106e-35)
(1.04662 0.00938014 -2.70682e-21)
(1.04413 0.00806152 -4.15393e-22)
(1.04232 0.00648894 -2.17187e-22)
(1.04106 0.00488895 1.69666e-27)
(1.04016 0.00343496 2.85648e-22)
(1.03952 0.00214003 -9.85497e-22)
(1.03893 0.00112569 -1.20965e-22)
(1.03848 0.000282496 -1.6318e-22)
(1.21913 -0.0914433 -5.10568e-21)
(1.20366 -0.16665 -3.85252e-22)
(1.15289 -0.218929 -1.23528e-21)
(1.08751 -0.286527 8.7033e-35)
(1.00294 -0.351193 4.6544e-20)
(0.910784 -0.401468 2.06216e-20)
(0.820589 -0.425337 3.14174e-22)
(0.750079 -0.421736 1.57738e-20)
(0.702861 -0.376326 2.40891e-20)
(0.673781 -0.281812 -8.18579e-20)
(0.663287 -0.151636 2.91983e-20)
(0.667688 0.0021526 -1.56659e-19)
(0.686977 0.165245 -3.98118e-20)
(0.718022 0.317799 -1.40348e-20)
(0.752349 0.435294 1.21299e-20)
(0.779956 0.48602 -2.75661e-20)
(0.800402 0.484029 4.94375e-20)
(0.822358 0.427945 2.87893e-20)
(0.836269 0.316821 2.12238e-20)
(0.83788 0.164598 -2.8497e-20)
(0.838034 0.017663 -6.58814e-21)
(0.862935 -0.0780157 4.63495e-21)
(0.913291 -0.107085 5.70625e-21)
(0.966925 -0.104984 -4.42137e-22)
(1.01113 -0.0911414 -6.08256e-21)
(1.04303 -0.0715683 -5.68152e-22)
(1.06274 -0.0498797 -9.51704e-25)
(1.07173 -0.0291195 0)
(1.07293 -0.0123018 -3.7392e-22)
(1.0694 -9.97294e-05 9.36134e-22)
(1.06367 0.00737185 1.90984e-21)