/*--------------------------------*- C++ -*----------------------------------*\
| =========                 |                                                 |
| \\      /  F ield         | OpenFOAM: The Open Source CFD Toolbox           |
|  \\    /   O peration     | Version:  2506                                  |
|   \\  /    A nd           | Website:  www.openfoam.com                      |
|    \\/     M anipulation  |                                                 |
\*---------------------------------------------------------------------------*/
FoamFile
{
    version     2.0;
    format      ascii;
    arch        "LSB;label=32;scalar=64";
    class       volVectorField;
    location    "160.018072304027271";
    object      U_0;
}
// * * * * * * * * * * * * * * * * * * * * * * * * * * * * * * * * * * * * * //

dimensions      [0 1 -1 0 0 0 0];

internalField   nonuniform List<vector> 
9700
(
(1.09213 0.0011179 4.19383e-22)
(1.09205 0.00374568 -1.01713e-24)
(1.08863 0.00105394 3.31158e-28)
(1.09191 0.00603695 -5.4724e-22)
(1.08854 0.00351975 -1.03534e-24)
(1.08709 0.00102471 -4.16703e-22)
(1.09168 0.00859671 -4.0922e-24)
(1.08843 0.00565036 -4.10039e-35)
(1.08702 0.00342188 -4.16927e-22)
(1.08492 0.000994939 0)
(1.09132 0.0109589 4.26377e-22)
(1.08819 0.00800478 3.42046e-24)
(1.08693 0.00548589 -3.09164e-21)
(1.08487 0.00332031 -1.79812e-23)
(1.08303 0.000975567 4.04416e-22)
(1.09081 0.013462 4.3949e-22)
(1.08786 0.0101234 -1.60471e-27)
(1.08675 0.00775374 -4.29065e-22)
(1.08481 0.00531632 9.58135e-35)
(1.083 0.0032552 4.07742e-22)
(1.08109 0.000964753 6.38715e-28)
(1.09008 0.0158526 3.71558e-23)
(1.08738 0.0123042 2.42715e-27)
(1.0865 0.009775 -4.30637e-22)
(1.08468 0.0074966 4.89953e-23)
(1.08298 0.00521083 2.97797e-21)
(1.08109 0.00322036 -3.63406e-24)
(1.07919 0.000962578 -3.91841e-22)
(1.08906 0.0182976 6.46705e-22)
(1.08671 0.0142835 8.52619e-23)
(1.08612 0.0118257 -4.17035e-22)
(1.08451 0.00942158 0)
(1.08292 0.00733996 3.9553e-22)
(1.0811 0.00515825 -1.41988e-35)
(1.0792 0.00321697 -3.89142e-22)
(1.07727 0.000967359 -3.25841e-21)
(1.08762 0.0206565 -6.44121e-23)
(1.08577 0.0161747 -8.55743e-22)
(1.0856 0.0136445 -3.37508e-22)
(1.08426 0.0113455 0)
(1.08285 0.00921425 3.97207e-22)
(1.0811 0.00726721 8.9794e-24)
(1.07925 0.00516039 -2.66368e-25)
(1.0773 0.00323966 -3.76533e-21)
(1.07534 0.000976825 -6.24173e-25)
(1.08565 0.0230097 -6.36535e-22)
(1.08447 0.017801 -1.84252e-22)
(1.08489 0.0153175 -4.78488e-21)
(1.08392 0.0130073 -1.64057e-37)
(1.08275 0.0110735 4.22108e-22)
(1.08113 0.00912983 -4.06492e-27)
(1.07931 0.00728136 -4.09829e-22)
(1.07737 0.00520785 -5.08006e-22)
(1.07537 0.00328071 4.33257e-22)
(1.07337 0.000988023 3.1708e-21)
(1.0829 0.0252516 5.14436e-22)
(1.08269 0.0191583 2.39733e-23)
(1.08388 0.0166579 1.00192e-21)
(1.08345 0.0144677 5.12898e-23)
(1.08262 0.0126615 5.3094e-22)
(1.08118 0.0109789 5.26244e-27)
(1.07943 0.00917282 -4.10251e-22)
(1.07748 0.00736801 -3.78872e-21)
(1.07545 0.00528721 5.01829e-22)
(1.07341 0.00332957 3.29075e-21)
(1.07138 0.000997671 0)
(1.07917 0.0274403 2.10127e-23)
(1.08018 0.0200733 3.44787e-23)
(1.08251 0.0176187 3.74267e-21)
(1.0828 0.0155314 2.18887e-22)
(1.08246 0.0140233 4.49277e-21)
(1.08127 0.012566 1.69551e-22)
(1.07961 0.0110688 -3.84109e-22)
(1.07767 0.00932285 -3.41083e-21)
(1.07558 0.00750633 2.79642e-22)
(1.07349 0.00538026 -2.56388e-25)
(1.0714 0.00337426 -2.3781e-36)
(1.06937 0.00100244 3.67667e-22)
(1.07399 0.0294621 3.7854e-21)
(1.07681 0.0204521 3.02773e-22)
(1.08058 0.0180062 -4.6984e-22)
(1.08192 0.0161045 -9.29807e-23)
(1.08225 0.0149617 -1.23423e-21)
(1.08141 0.0139314 -2.08945e-23)
(1.0799 0.012732 -2.72431e-22)
(1.07796 0.011315 -3.4264e-21)
(1.07581 0.00955001 9.28588e-28)
(1.07362 0.00766785 3.29337e-21)
(1.07147 0.00546628 6.15205e-36)
(1.06937 0.00340246 3.77054e-22)
(1.06735 0.00099928 1.16686e-27)
(1.06705 0.0313818 -5.41784e-23)
(1.07206 0.0200769 1.82405e-34)
(1.07795 0.0176371 -4.00648e-22)
(1.08066 0.0159708 -4.15919e-22)
(1.08196 0.0153543 -3.43483e-21)
(1.08164 0.0148828 -2.76499e-22)
(1.08034 0.0142101 -4.41322e-21)
(1.0784 0.0131219 -3.83912e-21)
(1.07616 0.0116756 -1.10604e-27)
(1.07385 0.00981316 3.31935e-21)
(1.07157 0.0078201 -2.32699e-36)
(1.0694 0.00552399 2.47722e-25)
(1.06732 0.00340273 -9.57746e-24)
(1.06534 0.000985685 -3.44751e-22)
(1.05741 0.0329932 1.32841e-22)
(1.06575 0.0187734 -6.41323e-22)
(1.07417 0.0162505 -6.9716e-21)
(1.07895 0.0148517 -5.16167e-22)
(1.08155 0.0149726 3.91807e-22)
(1.08198 0.0152885 3.11158e-23)
(1.08099 0.0153242 -3.5929e-21)
(1.07907 0.0148099 -3.09583e-21)
(1.07671 0.0136782 5.64436e-22)
(1.07421 0.0120921 3.38528e-21)
(1.07176 0.0100651 0)
(1.06945 0.00792962 3.4593e-22)
(1.06731 0.00553367 -1.71166e-35)
(1.06527 0.00336572 -3.35592e-22)
(1.06336 0.000959997 -4.40137e-22)
(1.0447 0.0346363 6.4616e-21)
(1.05682 0.0161973 -3.50947e-22)
(1.0691 0.0134797 -6.46001e-22)
(1.07644 0.0124419 2.23926e-34)
(1.08098 0.0134677 4.614e-22)
(1.08245 0.0149193 3.90067e-23)
(1.08192 0.0159562 3.29421e-21)
(1.08006 0.0162225 -4.18281e-21)
(1.07752 0.0156519 2.87062e-21)
(1.07477 0.0143192 3.55609e-21)
(1.07207 0.012497 0)
(1.06957 0.0102572 3.50925e-22)
(1.06728 0.00796539 2.16998e-23)
(1.06521 0.00547917 -2.58701e-21)
(1.06326 0.00328512 -8.70574e-22)
(1.06145 0.000921537 -2.42695e-28)
(1.02783 0.0370574 2.11647e-21)
(1.04466 0.0121296 -1.94713e-22)
(1.06166 0.00901266 -2.24063e-21)
(1.073 0.00816383 1.05019e-21)
(1.08006 0.0105029 5.46806e-21)
(1.08311 0.013392 3.00586e-22)
(1.08325 0.0158916 -3.90929e-22)
(1.08148 0.0172783 -3.4367e-22)
(1.07873 0.0174719 3.44436e-21)
(1.07561 0.0166228 -2.35871e-23)
(1.07257 0.0149502 -1.66911e-35)
(1.06977 0.0128205 4.06751e-22)
(1.06729 0.0103443 -9.86807e-27)
(1.06509 0.00790203 -3.86413e-22)
(1.06315 0.00534969 -4.45607e-22)
(1.06131 0.00315823 3.47983e-22)
(1.05963 0.000870719 4.17132e-22)
(1.00853 0.0435231 8.93624e-21)
(1.0271 0.00598642 2.42524e-21)
(1.05151 0.00247356 1.03445e-21)
(1.06762 0.00166148 0)
(1.07868 0.00536133 2.25681e-22)
(1.08392 0.0103544 7.02271e-35)
(1.08512 0.0147602 -3.33226e-22)
(1.08355 0.0177961 -3.44483e-21)
(1.08048 0.0191122 -2.76402e-21)
(1.0769 0.0189157 7.98416e-22)
(1.07333 0.0175889 -2.23546e-22)
(1.07012 0.0154721 6.07388e-22)
(1.06733 0.0129976 1.19001e-26)
(1.06496 0.0102896 -3.89452e-22)
(1.06292 0.00772252 -5.91628e-22)
(1.06114 0.00514076 2.8701e-21)
(1.05945 0.0029864 4.31768e-22)
(1.05792 0.000809019 -3.98425e-22)
(0.984389 0.0556624 -2.51455e-20)
(1.00363 -0.0017957 -5.55926e-21)
(1.03694 -0.00664135 2.72596e-21)
(1.05998 -0.00800302 -1.39766e-34)
(1.0761 -0.00232206 -1.11007e-21)
(1.0848 0.00505369 -5.01117e-22)
(1.08763 0.0122299 -2.32115e-21)
(1.08647 0.0174695 -3.51497e-21)
(1.08306 0.0204462 -5.33994e-23)
(1.07877 0.0212405 3.36206e-21)
(1.07451 0.0203658 1.94732e-22)
(1.07068 0.0184101 4.27914e-21)
(1.06746 0.015793 3.60722e-22)
(1.06481 0.0129755 -3.26727e-22)
(1.06265 0.0100683 -4.5317e-22)
(1.06081 0.00741985 2.96166e-22)
(1.05923 0.00485489 -2.35691e-21)
(1.05772 0.00277484 -8.15427e-22)
(1.05634 0.000738808 -2.67905e-28)
(0.957467 0.0789501 -4.19547e-21)
(0.9741 -0.00994341 -4.64756e-21)
(1.01677 -0.0192144 -5.26325e-21)
(1.04852 -0.0216749 1.13751e-35)
(1.07235 -0.0141475 -6.2707e-23)
(1.08554 -0.00296056 -2.36944e-22)
(1.09079 0.00764995 -3.02295e-22)
(1.09041 0.0160391 -4.30829e-22)
(1.08672 0.0212769 2.99102e-22)
(1.08156 0.0235431 3.47923e-21)
(1.07626 0.0233972 1.44994e-22)
(1.07159 0.0216238 3.30847e-21)
(1.06773 0.018956 -3.92655e-23)
(1.06468 0.015838 -5.64197e-23)
(1.06228 0.0127189 -4.60667e-22)
(1.06039 0.00967067 2.36651e-27)
(1.05881 0.00699789 3.75983e-22)
(1.05746 0.00450131 -4.02005e-22)
(1.05613 0.00253208 1.9668e-23)
(1.05491 0.000663263 3.68523e-22)
(0.933717 0.116513 1.78793e-20)
(0.938223 -0.0149031 1.46493e-20)
(0.988485 -0.0344345 8.48353e-21)
(1.03162 -0.0408892 1.25176e-35)
(1.06623 -0.0315521 2.40015e-21)
(1.08678 -0.0160474 5.51039e-26)
(1.09528 0.000392071 -3.30265e-22)
(1.09559 0.0130713 -2.654e-21)
(1.09162 0.0214761 3.52888e-22)
(1.08552 0.0257703 3.42112e-21)
(1.07892 0.0267106 -2.79258e-23)
(1.07298 0.0252986 -3.46646e-21)
(1.06823 0.0225041 -4.33783e-22)
(1.06457 0.0191209 -4.24327e-21)
(1.06186 0.0155578 -8.35272e-22)
(1.05982 0.0122139 -2.95483e-27)
(1.05826 0.00910263 3.80683e-22)
(1.05696 0.00647099 -4.60357e-22)
(1.05584 0.00409488 8.06213e-35)
(1.0547 0.0022695 5.40426e-22)
(1.05365 0.000586087 4.31684e-24)
(0.905687 0.161709 -3.77707e-22)
(0.897725 -0.0102361 9.2819e-22)
(0.951295 -0.0498942 -4.09067e-21)
(1.00545 -0.0644424 0)
(1.05474 -0.0566341 -1.1924e-21)
(1.08751 -0.0362993 8.37292e-22)
(1.10262 -0.0125653 6.35993e-24)
(1.10395 0.00771576 -1.5935e-21)
(1.09833 0.0208932 9.84235e-22)
(1.09074 0.0279649 1.15301e-22)
(1.08268 0.0304121 -2.5792e-36)
(1.07516 0.0295409 4.24607e-22)
(1.06904 0.0266802 3.64965e-23)
(1.06455 0.0228571 7.217e-22)
(1.06133 0.0188357 -2.59231e-21)
(1.0591 0.0149337 4.26417e-22)
(1.0575 0.0114692 4.81481e-22)
(1.05631 0.00838517 -4.05567e-22)
(1.05529 0.00586223 -4.63192e-23)
(1.05439 0.00365526 3.70163e-22)
(1.05344 0.00200027 1.98264e-23)
(1.05254 0.000511182 -3.2047e-21)
(0.863959 0.205966 1.81222e-21)
(0.854855 0.00848101 -5.6279e-21)
(0.90543 -0.0624659 -7.69608e-21)
(0.968093 -0.0901183 -1.7646e-36)
(1.03216 -0.0870271 5.67408e-21)
(1.0826 -0.065888 -5.24753e-22)
(1.11157 -0.0339156 -9.27618e-22)
(1.11805 -0.00342745 -3.04106e-23)
(1.11028 0.0185591 -1.05593e-26)
(1.09818 0.0302723 3.26601e-21)
(1.08749 0.0347148 -1.54842e-35)
(1.07822 0.0346079 4.34038e-22)
(1.07042 0.0316512 2.71868e-23)
(1.06464 0.0273296 3.46474e-21)
(1.06074 0.0225866 5.33193e-22)
(1.05817 0.0180752 2.73539e-21)
(1.05651 0.0139787 9.02472e-22)
(1.05539 0.0105148 -4.0983e-22)
(1.05457 0.0075517 2.84632e-27)
(1.05383 0.00520209 9.20124e-22)
(1.05314 0.00320511 8.60452e-22)
(1.05235 0.0017382 -3.59499e-21)
(1.05158 0.000442387 -1.12605e-24)
(0.802137 0.237858 6.90207e-21)
(0.809607 0.0387896 -4.23446e-22)
(0.85238 -0.0679724 4.60636e-21)
(0.919287 -0.115556 -2.71694e-35)
(0.996641 -0.120429 -9.07856e-22)
(1.06404 -0.101239 3.67608e-22)
(1.11396 -0.0651642 4.80628e-21)
(1.13547 -0.0233387 2.41867e-21)
(1.13092 0.011086 -6.83718e-22)
(1.11282 0.0318895 4.78659e-21)
(1.09465 0.0400348 -1.78773e-35)
(1.08194 0.0408394 3.28765e-21)
(1.07237 0.0377994 4.94699e-23)
(1.06501 0.032736 -4.51715e-22)
(1.06004 0.0271129 -7.03691e-22)
(1.057 0.0216594 -9.71853e-22)
(1.05521 0.0168593 -7.70795e-23)
(1.05418 0.0127359 -7.37774e-22)
(1.05354 0.00939815 -3.61773e-27)
(1.05307 0.00664596 3.69185e-22)
(1.05259 0.00452554 -4.67668e-23)
(1.05207 0.00276795 -3.38469e-22)
(1.05141 0.00149671 1.75685e-22)
(1.05075 0.000383199 2.94889e-21)
(0.730966 0.255999 5.24173e-23)
(0.762595 0.0744858 -7.60939e-23)
(0.794691 -0.0666405 -5.36564e-22)
(0.861041 -0.137791 -2.90767e-35)
(0.947435 -0.154932 -1.65039e-20)
(1.03057 -0.140067 -3.35915e-21)
(1.09973 -0.102083 -1.53972e-20)
(1.14489 -0.0522637 9.26716e-22)
(1.15606 -0.00426789 -5.98513e-21)
(1.13881 0.0300285 1.57149e-21)
(1.11036 0.0461096 0)
(1.08769 0.0488583 6.08399e-22)
(1.07447 0.045525 1.50057e-34)
(1.06556 0.0395466 -4.34751e-22)
(1.05928 0.0326069 -1.14329e-21)
(1.05551 0.0259882 -2.87803e-21)
(1.05353 0.0201069 3.96573e-22)
(1.05258 0.0152492 -2.18683e-21)
(1.05219 0.0112719 9.3483e-23)
(1.052 0.00818062 3.69658e-22)
(1.05184 0.0057178 -4.71751e-23)
(1.05156 0.00386891 -3.35669e-21)
(1.05118 0.00236665 2.80044e-21)
(1.05062 0.00128798 3.10029e-21)
(1.05004 0.000336451 2.99833e-22)
(0.670832 0.262443 3.52591e-20)
(0.709419 0.101564 -8.33923e-21)
(0.740988 -0.0506826 0)
(0.799783 -0.155656 1.92314e-21)
(0.886913 -0.188449 -1.25783e-21)
(0.981684 -0.180432 -5.23431e-22)
(1.06887 -0.143067 2.38035e-21)
(1.13501 -0.0865029 1.66595e-20)
(1.17176 -0.0266037 3.77569e-21)
(1.17001 0.0224127 -7.55629e-21)
(1.13935 0.0513174 -1.29216e-35)
(1.10238 0.0591968 2.62224e-21)
(1.07782 0.0555576 5.1743e-22)
(1.06572 0.048159 -7.39809e-21)
(1.05831 0.0395841 -1.55535e-21)
(1.05364 0.0312115 -1.20483e-22)
(1.05133 0.0240056 3.11031e-21)
(1.05049 0.0180179 8.11491e-22)
(1.05039 0.013338 1.13291e-22)
(1.05059 0.00967221 6.57322e-22)
(1.05079 0.00693191 6.00842e-23)
(1.05087 0.00481868 -3.22193e-21)
(1.05074 0.00326736 -4.2151e-22)
(1.05044 0.00202179 1.68143e-21)
(1.04995 0.00112182 3.87392e-22)
(1.04941 0.000303997 1.96239e-28)
(0.628503 0.262291 1.89162e-20)
(0.664152 0.119015 -8.52838e-21)
(0.689758 -0.0386592 1.0331e-22)
(0.739755 -0.162706 7.70192e-26)
(0.819183 -0.219807 -2.69117e-21)
(0.920484 -0.220691 3.52853e-21)
(1.02087 -0.186313 3.38287e-20)
(1.10763 -0.125655 2.55938e-20)
(1.16639 -0.0540453 1.69992e-20)
(1.19098 0.0100961 1.49013e-21)
(1.17445 0.0541338 -1.55574e-35)
(1.13134 0.0717714 -1.27129e-21)
(1.08932 0.0692154 4.78647e-22)
(1.066 0.059295 -5.35232e-22)
(1.05645 0.0483908 -6.70122e-22)
(1.05117 0.0378504 5.48387e-22)
(1.04848 0.0286325 4.77313e-22)
(1.04773 0.0212945 -7.4584e-22)
(1.04803 0.0155246 -7.3452e-36)
(1.04871 0.0112433 2.33806e-21)
(1.0494 0.00803246 5.38853e-22)
(1.0499 0.00572365 -3.18903e-21)
(1.05014 0.00399825 1.0723e-26)
(1.05009 0.00275257 2.73411e-21)
(1.04982 0.00174992 -4.18276e-21)
(1.04936 0.0010048 -1.4558e-22)
(1.04883 0.000286571 -2.78109e-22)
(0.592442 0.258841 6.1052e-22)
(0.632051 0.125952 1.69368e-20)
(0.65018 -0.0259165 2.61936e-20)
(0.682963 -0.166255 -6.49483e-21)
(0.752012 -0.245598 3.33863e-20)
(0.850867 -0.259784 4.46813e-22)
(0.959263 -0.230613 -3.30644e-21)
(1.06157 -0.167973 3.63636e-20)
(1.14328 -0.0873702 1.15732e-20)
(1.19098 -0.00776742 -8.95909e-21)
(1.19897 0.0540142 -5.80475e-39)
(1.16779 0.0856315 -7.95171e-21)
(1.11528 0.0880646 -2.26588e-25)
(1.07258 0.0747678 4.80936e-22)
(1.05348 0.0596484 -1.16427e-21)
(1.04742 0.0461569 4.14343e-21)
(1.04467 0.0344824 6.74757e-22)
(1.0441 0.0250643 -1.57094e-21)
(1.0449 0.0180407 -1.59693e-22)
(1.04621 0.0127899 8.93482e-22)
(1.04755 0.00909519 -3.43023e-21)
(1.04862 0.00645012 -4.29225e-21)
(1.04931 0.00462477 -1.35754e-26)
(1.04962 0.0033011 2.9141e-21)
(1.04958 0.00235001 8.74592e-23)
(1.0493 0.00156199 1.43046e-34)
(1.04882 0.000939944 -2.01983e-22)
(1.04828 0.000283604 0)
(0.565263 0.25234 8.90514e-22)
(0.603719 0.126902 3.64787e-20)
(0.624837 -0.0180731 -7.33878e-21)
(0.643918 -0.163816 5.83282e-20)
(0.690782 -0.265756 2.65321e-20)
(0.779846 -0.295593 8.06442e-22)
(0.887797 -0.273656 7.26578e-21)
(1.00039 -0.212861 3.67997e-20)
(1.10029 -0.124613 1.45092e-20)
(1.17241 -0.0316945 3.08276e-21)
(1.20373 0.0469216 0)
(1.1974 0.0983992 6.59772e-21)
(1.15052 0.111431 -7.89641e-21)
(1.09282 0.0977105 6.60228e-22)
(1.05417 0.0751542 -8.6555e-22)
(1.04155 0.0566281 4.78149e-22)
(1.03933 0.0416703 -3.26866e-21)
(1.03927 0.0297769 -1.99547e-21)
(1.04076 0.0207764 -1.86782e-22)
(1.04294 0.0144678 4.47476e-23)
(1.0451 0.0099913 -1.3316e-21)
(1.04692 0.0070252 -1.81082e-21)
(1.04821 0.00501822 8.46435e-22)
(1.04898 0.00369705 2.85333e-21)
(1.04927 0.00276294 2.8792e-22)
(1.04918 0.00207662 3.32705e-22)
(1.04883 0.00146292 1.4931e-21)
(1.04831 0.000926326 1.66305e-22)
(1.04772 0.000293265 -2.45334e-21)
(0.548155 0.243582 7.43307e-21)
(0.582966 0.122451 -9.03893e-21)
(0.604056 -0.0159941 -4.91907e-20)
(0.621302 -0.159416 3.01907e-20)
(0.648187 -0.276727 3.89051e-20)
(0.713376 -0.327151 4.18429e-21)
(0.813812 -0.314503 -5.50114e-20)
(0.927368 -0.256945 7.83834e-21)
(1.04064 -0.166117 -3.46045e-20)
(1.13313 -0.0597894 -3.76652e-20)
(1.19147 0.0348631 -7.81591e-36)
(1.20634 0.104261 -9.7361e-21)
(1.18216 0.135907 2.13144e-20)
(1.12432 0.128293 -7.31986e-21)
(1.0664 0.099199 1.15956e-20)
(1.03645 0.0705123 3.35551e-22)
(1.03124 0.0506297 5.34903e-22)
(1.03271 0.0353653 -5.46952e-22)
(1.03527 0.0241253 1.67442e-22)
(1.03858 0.0160821 -8.74715e-22)
(1.04189 0.0108136 -1.92279e-21)
(1.04466 0.00730513 -3.67574e-22)
(1.04677 0.00515841 2.99153e-21)
(1.04813 0.00381975 2.69024e-21)
(1.04885 0.00299015 2.80842e-22)
(1.04903 0.00240756 -2.07478e-27)
(1.04882 0.00194004 -4.40042e-22)
(1.04837 0.00145079 -1.17987e-21)
(1.04778 0.000959014 -2.49205e-21)
(1.04713 0.000312784 -6.56646e-25)
(0.542314 0.232187 -7.67322e-21)
(0.571794 0.112653 -1.25874e-20)
(0.590098 -0.0182837 7.47317e-22)
(0.605332 -0.158096 -2.53712e-20)
(0.623448 -0.280731 -4.89291e-20)
(0.666432 -0.348608 -4.74444e-20)
(0.743245 -0.351356 -2.60423e-23)
(0.851006 -0.300212 -4.77643e-20)
(0.967138 -0.207162 -3.17184e-20)
(1.07592 -0.0937147 -4.41343e-20)
(1.15619 0.0195091 -9.32575e-35)
(1.19752 0.105838 2.18409e-20)
(1.19944 0.157357 1.91823e-20)
(1.15508 0.162904 -8.09939e-21)
(1.0911 0.133747 -2.40162e-21)
(1.03935 0.092444 -5.68401e-21)
(1.02148 0.0617479 -2.16515e-22)
(1.02322 0.0423004 2.68928e-22)
(1.02793 0.0278086 2.54055e-35)
(1.03285 0.0179605 -6.11104e-22)
(1.0376 0.0113055 -4.45839e-23)
(1.04173 0.0073115 -3.02559e-22)
(1.04485 0.00489681 -2.46423e-21)
(1.04703 0.00360642 1.76331e-21)
(1.0483 0.00292122 9.55556e-22)
(1.04884 0.00253728 2.55228e-27)
(1.04884 0.00224561 -2.66274e-22)
(1.04847 0.00193748 2.9325e-22)
(1.04789 0.00151692 8.32316e-22)
(1.04721 0.00102948 -9.24917e-23)
(1.04649 0.000338825 2.30696e-21)
(0.550313 0.218425 -4.10335e-21)
(0.572115 0.098414 2.41567e-20)
(0.584717 -0.0255982 1.7612e-20)
(0.596549 -0.159388 2.36375e-20)
(0.607881 -0.284482 -3.54105e-20)
(0.637706 -0.361371 -1.70338e-20)
(0.692413 -0.378036 -4.74718e-21)
(0.776289 -0.339235 4.87852e-21)
(0.88958 -0.250494 6.04106e-20)
(1.00372 -0.127124 -8.27351e-21)
(1.10221 -0.00263001 -3.00178e-35)
(1.16661 0.104747 7.24201e-21)
(1.19029 0.174191 -7.22165e-20)
(1.17274 0.198357 2.20634e-20)
(1.11863 0.175967 8.69714e-21)
(1.05444 0.12637 9.90055e-22)
(1.01542 0.0790593 -4.88545e-21)
(1.01051 0.050115 -6.75484e-22)
(1.01778 0.032399 -2.13381e-22)
(1.02519 0.0196212 4.04417e-22)
(1.03202 0.0117099 1.7912e-22)
(1.03778 0.00675627 -2.948e-21)
(1.04237 0.00417931 1.73473e-21)
(1.04556 0.00291256 2.60006e-21)
(1.0476 0.00245908 2.40379e-22)
(1.04861 0.00236723 -6.36304e-23)
(1.04889 0.00235356 -2.59212e-22)
(1.04865 0.002273 0)
(1.04808 0.00205559 -2.48999e-21)
(1.04736 0.00164654 -1.05875e-21)
(1.04658 0.0011261 2.32398e-21)
(1.04578 0.000367796 -2.23658e-21)
(0.570307 0.201913 -5.81826e-21)
(0.585162 0.0804051 -1.82685e-20)
(0.589647 -0.0371281 -1.18109e-20)
(0.596323 -0.164535 1.26114e-20)
(0.601469 -0.288223 4.72579e-20)
(0.618847 -0.372338 1.4109e-20)
(0.659678 -0.39587 8.10805e-21)
(0.721215 -0.36829 8.73415e-21)
(0.810298 -0.288794 2.09823e-21)
(0.926506 -0.167261 -1.3593e-20)
(1.03335 -0.024721 -3.07771e-20)
(1.11664 0.0976705 -2.74329e-20)
(1.16352 0.186881 -7.50795e-21)
(1.17012 0.229678 2.16663e-20)
(1.13706 0.221186 2.63204e-21)
(1.07586 0.17136 -2.51658e-22)
(1.01922 0.107605 6.22108e-22)
(0.997504 0.0616761 8.70464e-21)
(1.00382 0.0367946 1.89537e-21)
(1.015 0.0217182 2.44887e-21)
(1.02453 0.011401 1.85312e-21)
(1.03273 0.00576839 -2.86063e-21)
(1.03903 0.00271609 -1.68726e-21)
(1.0437 0.00161049 3.42359e-21)
(1.04667 0.00146983 2.08766e-21)
(1.04835 0.0017775 -7.36066e-23)
(1.04899 0.00217822 2.66482e-22)
(1.04891 0.00243359 0)
(1.04838 0.00247073 -2.45445e-21)
(1.04761 0.00227154 -4.17734e-22)
(1.04675 0.00181979 1.3239e-21)
(1.04588 0.00123515 -2.23329e-21)
(1.04502 0.000396032 -6.24955e-25)
(0.603339 0.181631 -5.2388e-20)
(0.611932 0.0591057 -4.17893e-20)
(0.606409 -0.0522823 1.25359e-21)
(0.605923 -0.17364 -4.62991e-21)
(0.604622 -0.293236 4.25631e-20)
(0.610673 -0.38132 2.82846e-21)
(0.636373 -0.410806 -3.02482e-21)
(0.684385 -0.389188 -1.45868e-20)
(0.750285 -0.318289 2.19495e-20)
(0.842253 -0.199288 2.04265e-22)
(0.956354 -0.0572748 3.81573e-25)
(1.05179 0.088432 6.52242e-21)
(1.11773 0.195472 3.61173e-20)
(1.14725 0.255953 -3.40728e-20)
(1.13797 0.26421 -2.63622e-21)
(1.09285 0.222404 7.63266e-21)
(1.03134 0.149522 -7.92998e-21)
(0.990223 0.0814136 -1.67059e-21)
(0.986875 0.042807 -9.99792e-26)
(1.00103 0.0227815 4.42764e-22)
(1.01486 0.0110096 -2.38056e-22)
(1.02586 0.00367408 5.77226e-23)
(1.0348 0.000494203 2.18566e-21)
(1.04117 -0.000569089 6.10764e-22)
(1.04553 -0.000237335 -2.03e-21)
(1.04803 0.00064937 2.84121e-36)
(1.04916 0.00159068 1.67742e-22)
(1.04931 0.00234716 2.24019e-22)
(1.04882 0.00275105 -2.35408e-21)
(1.04801 0.00280627 5.36027e-27)
(1.04704 0.00255439 2.41312e-21)
(1.04605 0.00201334 7.64834e-22)
(1.04509 0.00134202 9.56537e-23)
(1.04419 0.000419892 2.09456e-21)
(0.649255 0.157402 3.06509e-20)
(0.651894 0.0353399 3.56823e-21)
(0.63557 -0.070658 -9.78432e-21)
(0.626523 -0.186088 -4.59679e-20)
(0.61776 -0.300527 2.64153e-22)
(0.613521 -0.388759 -1.79205e-20)
(0.623837 -0.422404 7.14042e-24)
(0.656572 -0.406771 3.04834e-22)
(0.70964 -0.341223 -7.86318e-21)
(0.777436 -0.22793 -5.60685e-21)
(0.869358 -0.075783 3.56339e-21)
(0.974058 0.0695712 2.49775e-21)
(1.05591 0.199663 2.76679e-21)
(1.10519 0.278755 -2.87846e-20)
(1.11881 0.30316 6.54531e-20)
(1.09576 0.274014 -1.52022e-20)
(1.04373 0.201098 -2.11128e-21)
(0.990801 0.114672 5.59098e-21)
(0.970896 0.0525737 -1.71449e-34)
(0.98312 0.0241073 -5.32429e-21)
(1.00164 0.008941 -2.19909e-21)
(1.01721 0.000929061 -2.38778e-21)
(1.02898 -0.00311457 -1.06628e-21)
(1.03801 -0.00379357 7.22028e-22)
(1.04398 -0.00290027 -1.01856e-21)
(1.04767 -0.00125298 9.18396e-23)
(1.04944 0.000490937 1.84566e-21)
(1.04989 0.0018908 -4.54648e-22)
(1.04948 0.00283872 -2.09323e-21)
(1.04858 0.00326044 -6.13415e-27)
(1.04748 0.00323548 2.32939e-21)
(1.04633 0.00286766 -2.40257e-21)
(1.04525 0.00220246 4.05049e-35)
(1.04424 0.00143246 2.20337e-21)
(1.04332 0.000436029 0)
(0.722198 0.123439 1.45579e-21)
(0.703664 0.00875434 4.31289e-20)
(0.67707 -0.0906507 2.47286e-20)
(0.658681 -0.201364 -1.01789e-21)
(0.641141 -0.309842 -3.05307e-20)
(0.626957 -0.395572 1.28318e-20)
(0.623348 -0.430595 2.12783e-21)
(0.639105 -0.42107 1.9009e-20)
(0.678072 -0.360311 -6.51787e-20)
(0.733833 -0.252415 1.87085e-20)
(0.802114 -0.104707 3.6933e-21)
(0.890619 0.0670132 0)
(0.979901 0.198295 2.83274e-21)
(1.04657 0.296611 1.53521e-21)
(1.08059 0.337901 -8.99521e-21)
(1.08041 0.322649 -2.17811e-20)
(1.04691 0.256767 7.68737e-21)
(0.995279 0.159881 1.61703e-21)
(0.95991 0.0734146 2.92428e-22)
(0.962286 0.0250078 9.49329e-22)
(0.984834 0.00634483 2.33893e-21)
(1.00529 -0.00394888 1.80532e-22)
(1.02176 -0.00796113 -2.84418e-21)
(1.03361 -0.00859403 -2.94836e-23)
(1.04208 -0.00682602 2.55623e-22)
(1.04719 -0.00413463 9.86084e-23)
(1.04989 -0.00137863 1.65416e-22)
(1.05073 0.000986251 4.91304e-23)
(1.0504 0.00263135 -2.08947e-22)
(1.04941 0.00359121 1.4842e-22)
(1.04811 0.00389949 2.31337e-21)
(1.04677 0.00370619 -2.28377e-21)
(1.0455 0.00317269 -2.12615e-22)
(1.04437 0.00236294 -7.19879e-22)
(1.04334 0.00149387 -3.49553e-23)
(1.04242 0.00044176 -2.05587e-22)
(0.823557 0.0793341 -8.81348e-21)
(0.782246 -0.0246722 -5.29203e-22)
(0.729712 -0.112171 1.90901e-21)
(0.702086 -0.217573 3.11142e-20)
(0.674525 -0.320555 -5.07094e-20)
(0.650316 -0.401638 1.47607e-20)
(0.633374 -0.435718 -8.48621e-22)
(0.63323 -0.4317 -1.06181e-21)
(0.656697 -0.376186 6.12641e-22)
(0.698837 -0.271851 2.05371e-20)
(0.756333 -0.129139 -3.67048e-20)
(0.823759 0.0366238 8.49797e-22)
(0.899793 0.203526 5.20613e-21)
(0.976038 0.309577 4.59652e-20)
(1.02624 0.367234 1.28327e-20)
(1.04673 0.366423 7.633e-21)
(1.03493 0.311246 -3.69189e-20)
(0.995743 0.213315 -1.71647e-21)
(0.954009 0.105598 1.73316e-22)
(0.942485 0.032757 -2.7726e-21)
(0.962997 0.000709798 2.11918e-21)
(0.990591 -0.0100779 1.86485e-21)
(1.01169 -0.0152299 4.4774e-21)
(1.02819 -0.0151655 1.95534e-21)
(1.03939 -0.0124523 -8.87653e-23)
(1.04669 -0.00840342 -7.95295e-22)
(1.05051 -0.00418934 -8.08401e-22)
(1.05193 -0.000619355 -2.05271e-21)
(1.05172 0.00207576 -3.25396e-21)
(1.05059 0.00372902 -9.98328e-22)
(1.04904 0.0045195 2.31831e-21)
(1.04741 0.00459439 -2.28455e-21)
(1.04589 0.00416304 5.05788e-27)
(1.04455 0.00343164 2.03792e-21)
(1.04342 0.00247333 3.47904e-35)
(1.04241 0.00151649 -1.44523e-22)
(1.04152 0.000435365 -1.55916e-28)
(0.931672 0.0333224 -9.10563e-20)
(0.884436 -0.0620526 7.78488e-21)
(0.808188 -0.139434 0)
(0.753378 -0.234249 -1.09026e-24)
(0.717095 -0.330739 3.55862e-21)
(0.682507 -0.406812 4.31246e-21)
(0.653925 -0.438302 -4.70649e-21)
(0.638473 -0.43836 -2.17836e-20)
(0.646108 -0.388699 5.30213e-20)
(0.673794 -0.287413 -6.94831e-20)
(0.717714 -0.148598 -3.49228e-20)
(0.775709 0.0162605 -5.0971e-21)
(0.836649 0.181575 5.74149e-21)
(0.902468 0.320551 -5.91052e-22)
(0.961129 0.391369 -2.67042e-20)
(0.997367 0.404211 1.84942e-20)
(1.00626 0.361183 -1.04424e-20)
(0.98555 0.268676 4.55714e-20)
(0.948131 0.149295 -2.88879e-21)
(0.92619 0.0480023 -7.12388e-22)
(0.938909 -0.00260908 -2.18089e-22)
(0.970492 -0.0200995 -3.41318e-21)
(0.999521 -0.024622 -1.14821e-22)
(1.0205 -0.024377 1.30008e-22)
(1.03608 -0.0202605 -1.07823e-22)
(1.04589 -0.0144313 2.25695e-35)
(1.05144 -0.00840506 -6.87624e-23)
(1.0536 -0.00306037 -3.09254e-23)
(1.05357 0.000950907 -1.55474e-22)
(1.05226 0.00364962 1.89082e-21)
(1.05035 0.00506714 1.82656e-23)
(1.04834 0.00552185 -2.32034e-21)
(1.04646 0.0052666 -5.82001e-27)
(1.04486 0.00455179 2.17946e-21)
(1.04351 0.00361118 7.81879e-23)
(1.04242 0.00251696 6.68929e-22)
(1.04147 0.0014941 1.17988e-23)
(1.04065 0.00041627 1.88164e-22)
(1.03708 -0.00766268 2.40675e-21)
(0.98557 -0.0977432 1.65078e-21)
(0.90435 -0.16401 -2.05205e-20)
(0.825407 -0.254351 2.31006e-21)
(0.766751 -0.340191 6.24505e-21)
(0.722544 -0.410053 6.64742e-21)
(0.683459 -0.438678 6.80996e-21)
(0.654686 -0.440891 2.37194e-20)
(0.646379 -0.397371 6.53129e-21)
(0.659489 -0.299028 2.90059e-20)
(0.688558 -0.163861 3.95746e-20)
(0.734025 -0.00183372 -4.79708e-21)
(0.788676 0.167199 1.25008e-20)
(0.839933 0.316202 1.90987e-21)
(0.891432 0.41244 2.35252e-20)
(0.937526 0.436234 -3.8758e-20)
(0.962903 0.404924 -4.02686e-20)
(0.961496 0.321375 -6.61692e-21)
(0.936733 0.198557 7.80545e-22)
(0.911267 0.0752519 6.53763e-22)
(0.915132 -0.00386016 7.59237e-36)
(0.946471 -0.0315668 8.57563e-22)
(0.982627 -0.0378943 1.10094e-21)
(1.01121 -0.0365945 1.18499e-21)
(1.03126 -0.0309236 -9.67935e-22)
(1.04497 -0.0229009 7.08472e-22)
(1.05262 -0.0143465 7.2235e-22)
(1.05592 -0.00680744 2.46223e-22)
(1.05615 -0.000834702 -1.72e-21)
(1.05458 0.00318819 -1.20592e-22)
(1.05221 0.00555095 -6.97862e-22)
(1.04965 0.0065049 -4.41107e-22)
(1.0473 0.00648949 3.16905e-22)
(1.04529 0.00583921 2.20644e-21)
(1.04369 0.00482469 0)
(1.04242 0.00368556 -3.48198e-22)
(1.04143 0.00248326 -1.71825e-21)
(1.04056 0.00142454 1.49126e-22)
(1.03984 0.000385019 1.79152e-22)
(1.12464 -0.0418574 -5.96478e-22)
(1.07782 -0.125361 -1.48394e-20)
(1.00062 -0.185215 8.18032e-21)
(0.921267 -0.266523 3.37737e-25)
(0.83647 -0.34763 8.30396e-21)
(0.768533 -0.411114 1.60378e-20)
(0.720635 -0.437178 -1.24252e-20)
(0.680834 -0.43991 2.83974e-20)
(0.657229 -0.401355 -1.41347e-20)
(0.655546 -0.306307 1.6112e-20)
(0.670255 -0.174666 -1.39654e-21)
(0.701352 -0.0161481 4.31383e-21)
(0.745974 0.152945 -1.15906e-21)
(0.793882 0.307113 3.06298e-21)
(0.832517 0.420272 3.78382e-22)
(0.872674 0.461663 -1.24185e-20)
(0.90993 0.441716 8.68909e-20)
(0.924483 0.3687 1.07017e-20)
(0.915437 0.248858 1.6969e-21)
(0.895042 0.110081 -1.59868e-20)
(0.891418 0.0040337 1.84726e-21)
(0.919968 -0.0453637 0)
(0.961551 -0.055045 2.89335e-21)
(0.998207 -0.052757 -3.40812e-21)
(1.02532 -0.0453366 1.59661e-22)
(1.0434 -0.0344203 -6.38249e-23)
(1.05426 -0.0228211 1.55109e-23)
(1.05904 -0.0121288 9.40182e-36)
(1.05969 -0.00370519 -1.41391e-21)
(1.05784 0.00230412 2.0031e-23)
(1.05479 0.00588035 2.05711e-21)
(1.05151 0.00758746 -3.1378e-21)
(1.04847 0.00789085 1.29991e-22)
(1.04594 0.00731549 2.21263e-21)
(1.04395 0.00624474 0)
(1.04245 0.0049451 -2.10688e-22)
(1.04131 0.00363867 -2.71864e-23)
(1.04046 0.00236865 1.02816e-21)
(1.03971 0.00130982 2.463e-22)
(1.0391 0.000343059 1.58843e-28)
(1.18201 -0.0638002 3.17081e-21)
(1.15241 -0.143683 -3.39323e-21)
(1.08666 -0.199169 1.61092e-20)
(1.01229 -0.273669 -2.37503e-20)
(0.923737 -0.348132 -5.23488e-20)
(0.834277 -0.407841 -7.23017e-21)
(0.76335 -0.433962 -2.31451e-20)
(0.71504 -0.436018 -1.4465e-20)
(0.67776 -0.400086 -2.01284e-20)
(0.661408 -0.309245 -1.04617e-19)
(0.662448 -0.180723 4.05122e-20)
(0.679475 -0.0259327 -7.95646e-20)
(0.711399 0.140779 -1.87192e-20)
(0.75264 0.298638 -1.42507e-20)
(0.79148 0.418685 -2.77365e-21)
(0.818933 0.47502 3.81995e-20)
(0.852313 0.469541 -3.43415e-20)
(0.878465 0.409247 -2.10722e-20)
(0.883844 0.295829 1.00055e-20)
(0.873194 0.150754 2.26494e-21)
(0.868073 0.0177779 -2.71355e-25)
(0.891297 -0.0548158 4.56461e-24)
(0.936906 -0.0764329 -1.90992e-22)
(0.98152 -0.0740232 3.42631e-21)
(1.01671 -0.0640917 2.01664e-23)
(1.04136 -0.0502327 4.62327e-28)
(1.0562 -0.0344434 3.76219e-22)
(1.06325 -0.0198806 3.56259e-22)
(1.06454 -0.00786467 -9.91109e-23)
(1.06232 0.000673045 -6.86446e-22)
(1.05843 0.00607503 2.16566e-21)
(1.05409 0.008762 -8.64007e-23)
(1.05015 0.00954997 2.93944e-35)
(1.04686 0.00907583 -2.6425e-21)
(1.04434 0.00790607 -3.97984e-22)
(1.04249 0.00643188 -2.14318e-22)
(1.04118 0.00489042 1.64852e-27)
(1.04024 0.0034654 2.81269e-22)
(1.03955 0.00217671 -9.74324e-22)
(1.03894 0.00115578 -1.19038e-22)
(1.03846 0.000292542 -1.61281e-22)
(1.2171 -0.0788578 -5.39149e-21)
(1.20412 -0.151849 -3.96922e-22)
(1.15453 -0.20429 -9.38543e-22)
(1.09072 -0.273072 7.93e-35)
(1.00731 -0.34114 4.52666e-20)
(0.915432 -0.397119 2.00392e-20)
(0.824689 -0.427019 3.04131e-22)
(0.754271 -0.42854 1.56282e-20)
(0.70637 -0.393444 2.05814e-20)
(0.675718 -0.307066 -7.72122e-20)
(0.66443 -0.182266 2.73534e-20)
(0.668173 -0.0312993 -1.54344e-19)
(0.687152 0.132436 -4.1022e-20)
(0.71838 0.289587 -1.80191e-20)
(0.754014 0.416541 1.81329e-20)
(0.783028 0.480942 -2.78494e-20)
(0.804391 0.486487 4.66281e-20)
(0.828389 0.440064 2.78172e-20)
(0.843702 0.337573 2.11874e-20)
(0.845105 0.19066 -3.08691e-20)
(0.842107 0.0411447 -6.61575e-21)
(0.861191 -0.0631105 4.23112e-21)
(0.907711 -0.0993524 5.05644e-21)
(0.960616 -0.10058 -2.99946e-22)
(1.00511 -0.088696 -5.68836e-21)
(1.03773 -0.070934 -4.15011e-22)
(1.05854 -0.0506425 -9.42375e-25)
(1.06876 -0.0306797 0)
(1.07113 -0.0141351 -2.16081e-22)