/*--------------------------------*- C++ -*----------------------------------*\
| =========                 |                                                 |
| \\      /  F ield         | OpenFOAM: The Open Source CFD Toolbox           |
|  \\    /   O peration     | Version:  2506                                  |
|   \\  /    A nd           | Website:  www.openfoam.com                      |
|    \\/     M anipulation  |                                                 |
\*---------------------------------------------------------------------------*/
FoamFile
{
    version     2.0;
    format      ascii;
    arch        "LSB;label=32;scalar=64";
    class       surfaceScalarField;
    location    "90.013419639809229";
    object      ddtCorrDdt0(phi);
}
// * * * * * * * * * * * * * * * * * * * * * * * * * * * * * * * * * * * * * //

dimensions      [0 3 -2 0 0 0 0];

oriented        oriented;

internalField   nonuniform List<scalar> 
19160
(
0.000143868
0.000615317
0.000299347
0.000613337
0.000139436
0.000475881
0.000474198
0.000602868
0.00028956
0.000463213
0.000124682
0.000351198
0.000683826
0.000589607
0.000458251
0.000434176
0.000258509
0.000329386
0.000103387
0.000247811
0.000942986
0.000567656
0.000659978
0.00038788
0.000408918
0.000283766
0.000213972
0.000218801
7.61522e-05
0.000171659
0.00127086
0.000535635
0.000908667
0.000318968
0.000588311
0.000208487
0.000337684
0.000160054
0.000157155
0.000137798
4.52485e-05
0.00012641
0.0016922
0.000489009
0.00122295
0.000221347
0.000808852
9.84271e-05
0.000484636
6.15349e-05
0.000246869
7.03393e-05
9.26929e-05
9.03532e-05
1.2877e-05
0.000113532
0.00224026
0.000422328
0.00162572
8.62407e-05
0.00108709
-5.68907e-05
0.000664619
-8.15565e-05
0.000352446
-4.40426e-05
0.000143737
1.92944e-05
2.51548e-05
7.8075e-05
-1.84192e-05
0.000131951
0.00295554
0.000328241
0.00214668
-9.86256e-05
0.00144323
-0.000269903
0.000891106
-0.000283378
0.000480563
-0.000209673
0.000202088
-0.000102394
3.55551e-05
8.8936e-06
-4.02122e-05
9.98674e-05
-4.62632e-05
0.000178214
0.00387883
0.000189601
0.0028245
-0.000349584
0.00190307
-0.000558461
0.00118073
-0.00055953
0.000640721
-0.000443537
0.000270759
-0.000278345
4.40212e-05
-0.00011086
-6.93256e-05
3.80065e-05
-9.84799e-05
0.000152084
-6.83519e-05
0.000246565
0.00506212
-7.71852e-06
0.00370141
-0.000687306
0.00249896
-0.00094548
0.00155523
-0.000932958
0.00084485
-0.000763659
0.000354547
-0.000527325
4.95464e-05
-0.000283871
-0.000109668
-7.05183e-05
-0.000163009
0.000102535
-0.000144838
0.000228569
-8.29283e-05
0.000329493
0.00656729
-0.000283362
0.00482841
-0.00113472
0.00327168
-0.00146002
0.0020428
-0.00143306
0.00110889
-0.001197
0.000459685
-0.000868797
5.16461e-05
-0.000529425
-0.00016636
-0.000227179
-0.00024744
1.39128e-05
-0.000237732
0.000195428
-0.000175586
0.000321227
-8.87268e-05
0.000418219
0.00846488
-0.000677602
0.00626663
-0.00172159
0.00427334
-0.00213638
0.00267843
-0.00209565
0.00145445
-0.00177862
0.000595138
-0.00133245
5.00083e-05
-0.00086716
-0.000245442
-0.000450343
-0.000360795
-0.000113826
-0.000357823
0.000134004
-0.000287486
0.000307328
-0.000188008
0.000420507
-8.52318e-05
0.00050345
0.0109159
-0.00125049
0.00807081
-0.00248179
0.00556664
-0.00301488
0.00351055
-0.0029685
0.0019103
-0.00255149
0.000774032
-0.00195751
4.52799e-05
-0.00132772
-0.000354273
-0.000758329
-0.000514554
-0.000296584
-0.000517456
4.58064e-05
-0.000431846
0.000278362
-0.000307817
0.000427136
-0.000180955
0.000516229
-7.25132e-05
0.000575962
0.014353
-0.00187317
0.0102764
-0.00345608
0.00722724
-0.00414239
0.00459969
-0.00410402
0.00251833
-0.00357654
0.00101563
-0.00279309
3.98923e-05
-0.00195212
-0.000501507
-0.00118049
-0.000723118
-0.000549766
-0.000732927
-8.1113e-05
-0.000623424
0.000237385
-0.000462748
0.000433292
-0.0002968
0.000542981
-0.000154518
0.000598233
-5.16654e-05
0.000627627
0.0195407
-0.00197234
0.0130115
-0.0046083
0.00932105
-0.00554989
0.00602389
-0.0055666
0.0033328
-0.00491849
0.00135075
-0.00391166
4.05794e-05
-0.00279378
-0.000697078
-0.00175655
-0.00100479
-0.000898813
-0.00102498
-0.000257714
-0.000882191
0.000177653
-0.000668777
0.000443414
-0.000447506
0.000583998
-0.000254516
0.000642978
-0.000110976
0.000657542
-2.42905e-05
0.000651916
0.0268748
-0.000748261
0.0168348
-0.00579561
0.0119219
-0.00720913
0.00785176
-0.00737775
0.00442686
-0.00666065
0.00182045
-0.00538819
6.13381e-05
-0.00393242
-0.000949939
-0.00254092
-0.00138273
-0.00137862
-0.00142097
-0.000502823
-0.00123382
9.39122e-05
-0.000947907
0.000456783
-0.000648896
0.000644803
-0.000386092
0.000715573
-0.000184628
0.000716629
-5.36986e-05
0.000686949
7.45733e-06
0.000644458
0.0360717
0.00270089
0.0225291
-0.00644253
0.0151828
-0.00905654
0.0101711
-0.00952851
0.00587068
-0.00882158
0.00247616
-0.00731636
0.000120984
-0.00544784
-0.00126893
-0.00361343
-0.00188382
-0.00203983
-0.00195669
-0.000842895
-0.00171297
-2.36719e-05
-0.0013286
0.000474608
-0.000923034
0.00073092
-0.000563475
0.000822185
-0.000283867
0.000814811
-9.25847e-05
0.000755514
1.27687e-05
0.000681637
4.09945e-05
0.000603463
0.0460471
0.00921693
0.0309715
-0.00574154
0.019628
-0.0108877
0.0131199
-0.0120053
0.00779041
-0.0114482
0.00338595
-0.00973136
0.000236056
-0.00743143
-0.00166877
-0.005048
-0.00254413
-0.00295312
-0.00267758
-0.00131894
-0.00236599
-0.000189876
-0.00184991
0.000497633
-0.00129854
0.000850114
-0.000806694
0.000974139
-0.000420051
0.000958369
-0.000148899
0.000871125
1.42559e-05
0.000754026
8.29674e-05
0.000639663
7.37193e-05
0.000529743
0.0534797
0.0159237
0.0430737
-0.00288527
0.0260492
-0.0121627
0.0169638
-0.0147317
0.0103893
-0.0146042
0.00474698
-0.0128093
0.000472188
-0.0099675
-0.0021805
-0.0069197
-0.0034209
-0.00417123
-0.0036483
-0.0019824
-0.00325502
-0.000429917
-0.00256482
0.000525038
-0.00181501
0.0010141
-0.00114168
0.0011851
-0.000609289
0.00116338
-0.000230124
0.00103959
7.90161e-06
0.000877479
0.000127042
0.00070995
0.000151416
0.000561965
0.000102929
0.000426813
0.0558939
0.0198377
0.0570303
0.00196709
0.0351234
-0.0119594
0.0221207
-0.0173196
0.013908
-0.0182503
0.00688421
-0.0167414
0.00111197
-0.0134491
-0.00272542
-0.00942258
-0.00459271
-0.00574788
-0.00497047
-0.00284906
-0.00447079
-0.000766622
-0.00354714
0.000552395
-0.0025267
0.00123673
-0.00160437
0.00147678
-0.000872272
0.00144808
-0.000346978
0.00128023
-9.28406e-06
0.00105678
0.000173378
0.000831142
0.000236916
0.000624449
0.000212459
0.000452434
0.000126438
0.000300374
0.052491
0.0193923
0.0694314
0.00743654
0.0469059
-0.00981544
0.0291215
-0.0189603
0.0183877
-0.0217994
0.0100562
-0.0214224
0.00257094
-0.0182004
-0.00295425
-0.0132202
-0.00597516
-0.00804013
-0.00675792
-0.00396043
-0.00615211
-0.00116774
-0.00490489
0.000591134
-0.00351095
0.00153665
-0.00224423
0.00187659
-0.00123752
0.00184203
-0.000512957
0.00161406
-4.17409e-05
0.00131268
0.000223629
0.00100653
0.000334427
0.000733631
0.000334788
0.000502119
0.00026156
0.000317311
0.000142383
0.00015799
0.0459333
0.0155806
0.0771404
0.0116833
0.060065
-0.00572251
0.0383161
-0.01901
0.0237776
-0.0243501
0.0140912
-0.0258343
0.00504328
-0.0238947
-0.00244735
-0.0187073
-0.0072099
-0.0119855
-0.00892918
-0.00586887
-0.00844529
-0.00166726
-0.00679438
0.000721751
-0.00487847
0.00195865
-0.00313252
0.00242494
-0.00174424
0.00238331
-0.000746307
0.00207538
-9.46463e-05
0.00166696
0.000279824
0.00125649
0.000449968
0.000890984
0.000477715
0.000590702
0.0004134
0.000350278
0.000294895
0.000164799
0.000149594
8.39436e-06
0.0387108
0.00982172
0.080008
0.012713
0.0723387
-0.000590403
0.0496493
-0.0170557
0.0302099
-0.0254424
0.0185262
-0.0287851
0.00815742
-0.0289485
-0.00123691
-0.0251051
-0.00802146
-0.0178957
-0.0112949
-0.00961981
-0.0113666
-0.00294758
-0.00938666
0.00092502
-0.00677596
0.00261924
-0.00436651
0.00319264
-0.00244891
0.00312961
-0.0010718
0.0027088
-0.000174402
0.00215513
0.000345232
0.00160156
0.000591593
0.00111486
0.000650971
0.000717728
0.000592665
0.000411436
0.000466695
0.000178477
0.000310082
4.30944e-06
0.000147257
-0.000138864
0.03208
0.00449696
0.079275
0.0105547
0.0811083
0.00394344
0.0624394
-0.0133805
0.0381143
-0.0249601
0.0231397
-0.0300558
0.0113912
-0.032019
0.000124093
-0.0303095
-0.00875972
-0.0243669
-0.0137854
-0.0154052
-0.0148678
-0.00611858
-0.0128484
0.000514167
-0.00938452
0.00353358
-0.00605914
0.00431186
-0.00342371
0.00416744
-0.00152449
0.0035823
-0.000289098
0.0028235
0.000425349
0.00207502
0.00077026
0.00142289
0.000867647
0.000898186
0.000811881
0.000498511
0.00067057
0.00020756
0.000490953
-2.39539e-06
0.000305435
-0.000153869
0.000135719
-0.000274584
0.0286143
0.000843638
0.0765959
0.00717612
0.0859324
0.00573055
0.0741394
-0.00775654
0.0476155
-0.0228817
0.0280865
-0.0299069
0.0145413
-0.0332059
0.00137611
-0.033271
-0.00997348
-0.0290957
-0.0169973
-0.021155
-0.019261
-0.011012
-0.0174867
-0.00148025
-0.013041
0.00417068
-0.00837458
0.00584903
-0.00473673
0.00562488
-0.00214506
0.00478801
-0.000448728
0.00374193
0.000528586
0.00272026
0.00100206
0.00184321
0.00114495
0.00114559
0.00108788
0.000622187
0.000920787
0.000248292
0.000706179
-7.66687e-06
0.000483587
-0.000180549
0.000281603
-0.000299755
0.000115716
-0.000390302
0.0265677
-0.000503639
0.0741048
0.00333472
0.0876018
0.00550675
0.0831182
-0.00324819
0.0583299
-0.0184709
0.0335386
-0.0283339
0.0174929
-0.0328585
0.00259146
-0.0344212
-0.0114178
-0.0318266
-0.0212739
-0.0248192
-0.0249335
-0.0154825
-0.0238673
-0.00463142
-0.0183911
0.00386985
-0.0117613
0.00755744
-0.00650964
0.00762195
-0.00295581
0.00643563
-0.000660473
0.00499976
0.000669672
0.00360084
0.00130961
0.00241272
0.00150724
0.00148092
0.00144229
0.000791169
0.00123647
0.000306508
0.000970693
-1.62235e-05
0.000695911
-0.000219992
0.000445716
-0.000344663
0.000240017
-0.000424057
8.83727e-05
-0.000478676
0.0258651
-0.00136248
0.0722537
0.00134738
0.0868175
0.004119
0.0891488
-0.000523876
0.0684832
-0.0134015
0.040335
-0.0252673
0.0203411
-0.0311821
0.00374921
-0.0340163
-0.0127863
-0.0330527
-0.0256654
-0.0274351
-0.0320751
-0.0176776
-0.0317691
-0.00758069
-0.0260723
0.0030497
-0.017006
0.00911452
-0.00921077
0.0102586
-0.00400938
0.00867551
-0.000905457
0.00668062
0.000872551
0.00479688
0.0017284
0.00318204
0.00198761
0.00193235
0.00190498
0.00101823
0.00164177
0.000385863
0.00130448
-2.72772e-05
0.000956971
-0.000277285
0.000641507
-0.000415784
0.000379673
-0.00048432
0.000182968
-0.000518653
5.55931e-05
-0.00053427
0.0262585
-0.00188979
0.071055
-0.000163778
0.0855656
0.00259936
0.0908215
0.00244627
0.0769483
-0.00898898
0.0479842
-0.0210507
0.0234215
-0.0283477
0.00482731
-0.0322602
-0.0138719
-0.0329307
-0.0298718
-0.0288463
-0.0392116
-0.0202986
-0.0403129
-0.00913379
-0.0357422
0.00208921
-0.0244569
0.0105005
-0.0136478
0.0135516
-0.00567015
0.0119193
-0.00114907
0.00891913
0.00118798
0.00636518
0.0023077
0.00421758
0.00263602
0.00253363
0.00251544
0.00132189
0.00216921
0.000490786
0.00173245
-4.21137e-05
0.00128626
-0.000356573
0.00088228
-0.000518059
0.000546408
-0.00058252
0.000289116
-0.000590469
0.000114503
-0.000577564
1.93444e-05
-0.000553616
0.0277607
-0.00204197
0.0704539
-0.00128865
0.084369
0.00103276
0.0910944
0.00232641
0.0812395
-0.00184494
0.0554059
-0.0164107
0.0270599
-0.0246892
0.00572281
-0.0292432
-0.0146635
-0.0314686
-0.0335746
-0.0292278
-0.0459753
-0.0220826
-0.0491962
-0.0114153
-0.0448471
-2.88774e-05
-0.0337525
0.0113849
-0.020093
0.0169457
-0.00870377
0.0165852
-0.00152853
0.0122988
0.00172331
0.0083838
0.00312
0.00555288
0.00351888
0.00333472
0.00333107
0.001718
0.00286103
0.00063007
0.00228731
-6.40737e-05
0.00170789
-0.000463739
0.0011859
-0.00066019
0.000751516
-0.000723169
0.000415908
-0.000709313
0.000180441
-0.000656409
3.89263e-05
-0.000597147
-1.8107e-05
-0.00053551
0.0300821
-0.00215279
0.070547
-0.00213509
0.0834343
-0.00035393
0.090618
0.00150924
0.0839435
-0.000377635
0.0603772
-0.00681618
0.0309734
-0.0203241
0.0066558
-0.0256222
-0.0152835
-0.0286231
-0.0367363
-0.028307
-0.052317
-0.0228862
-0.0581164
-0.0131623
-0.0538473
-0.002415
-0.0439766
0.0101952
-0.0280809
0.0193727
-0.0136833
0.0219253
-0.00259588
0.0176526
0.00260341
0.0114187
0.00430367
0.00720013
0.00472292
0.00434883
0.00442655
0.00223924
0.00377583
0.000803197
0.00301116
-9.3778e-05
0.0022527
-0.000608885
0.00157432
-0.000852166
0.00101023
-0.000918903
0.000571991
-0.000879254
0.000259204
-0.000788077
6.0431e-05
-0.000677915
-3.88471e-05
-0.000576408
-5.4221e-05
-0.00048129
0.0332194
-0.00206639
0.0710458
-0.00265154
0.0828455
-0.00154626
0.089849
0.000415044
0.0852204
0.000232345
0.0646824
-0.00468283
0.0343128
-0.0101556
0.00753637
-0.0212047
-0.0156043
-0.0253014
-0.0391207
-0.0262387
-0.0580826
-0.0225413
-0.0669417
-0.0140609
-0.0648461
-0.00216359
-0.054973
0.00858144
-0.0381635
0.0202778
-0.0204815
0.0261709
-0.00513031
0.0244597
0.00365464
0.0166013
0.00617329
0.00954907
0.00637694
0.00554611
0.005897
0.00287839
0.0049887
0.00102637
0.00395923
-0.000144871
0.00296051
-0.00080159
0.00207516
-0.00110972
0.00134129
-0.00118323
0.000769099
-0.00111601
0.000356264
-0.000976315
8.60228e-05
-0.00081367
-6.31521e-05
-0.000653612
-0.000113556
-0.000517075
-8.64155e-05
-0.000394876
0.0368222
-0.00218837
0.0720426
-0.00306325
0.0826602
-0.00246627
0.0890515
-0.000748772
0.0855347
0.00010073
0.0677691
-0.0028544
0.0376689
-0.0080389
0.00896778
-0.011587
-0.0161405
-0.0206684
-0.0406523
-0.0237698
-0.0625989
-0.0217224
-0.0750812
-0.0144018
-0.0753186
-0.00358839
-0.0655531
0.00841647
-0.0498035
0.0202215
-0.0285608
0.0283571
-0.00943423
0.0304748
0.00412446
0.0239899
0.00898859
0.013786
0.00885201
0.007074
0.00784429
0.00359882
0.00659566
0.00127143
0.0052021
-0.0002165
0.00388041
-0.00106477
0.00272437
-0.0014508
0.00176801
-0.00153644
0.0010218
-0.00143593
0.000479175
-0.00123892
0.000117556
-0.00100785
-9.24979e-05
-0.000784326
-0.000181948
-0.000585221
-0.000180151
-0.000423341
-0.000112367
-0.000282511
0.0406013
-0.00251127
0.0732177
-0.00336344
0.0827252
-0.00312823
0.0883857
-0.00180042
0.0852276
-0.00044162
0.0695281
-0.00165831
0.0408839
-0.00606942
0.0102207
-0.00929185
-0.0154913
-0.0122363
-0.0423171
-0.0190036
-0.0663502
-0.0200185
-0.0819438
-0.0148598
-0.08504
-0.00468046
-0.0761187
0.00697724
-0.0592698
0.0178827
-0.0370546
0.0287153
-0.0150547
0.0339776
0.00315909
0.0314402
0.0123139
0.0206645
0.0127363
0.00990173
0.0105767
0.00434164
0.0086781
0.00151637
0.00682754
-0.000354011
0.0050765
-0.00141259
0.00356388
-0.00190429
0.00232125
-0.00200404
0.00134825
-0.0018629
0.000637513
-0.00159427
0.000157888
-0.00127926
-0.000128949
-0.000971399
-0.000264339
-0.000701936
-0.000287902
-0.000477471
-0.000234111
-0.000301598
-0.000130064
-0.000152448
0.0442625
-0.00313314
0.074438
-0.00373157
0.0829379
-0.00357622
0.087883
-0.00262554
0.0845418
-0.00111468
0.0702598
-0.00117328
0.0433904
-0.00416483
0.0108259
-0.0066746
-0.0148929
-0.0098902
-0.0420776
-0.0124759
-0.0696527
-0.015701
-0.08881
-0.0131523
-0.0942112
-0.00568864
-0.0862793
0.00548009
-0.0690239
0.0167313
-0.0460239
0.026852
-0.0212708
0.0349314
0.000489832
0.0366468
0.0149508
0.0288033
0.0181763
0.0152245
0.0147718
0.00570657
0.0114307
0.00158909
0.00891181
-0.000567906
0.00662091
-0.00189842
0.00465088
-0.0024996
0.00303583
-0.00261887
0.00177298
-0.00242877
0.000843591
-0.00206898
0.000210898
-0.00164728
-0.000174669
-0.00123354
-0.000366751
-0.000868989
-0.000417876
-0.000571963
-0.000373778
-0.000337806
-0.000271202
-0.000160462
-0.00013853
-1.39194e-05
0.0487864
-0.00575441
0.0753768
-0.00407191
0.0831753
-0.00396888
0.0873662
-0.00305942
0.0835259
-0.00160965
0.070031
-0.000885914
0.0443415
-0.00212431
0.0104419
-0.00378083
-0.0139277
-0.00763987
-0.0420415
-0.00992626
-0.069614
-0.0125146
-0.0936848
-0.0108262
-0.103389
-0.00397433
-0.0966665
0.0046986
-0.0788351
0.0152914
-0.0547338
0.0254413
-0.0283643
0.0339454
-0.00344891
0.0388702
0.0159705
0.0356271
0.0241331
0.0228465
0.0211649
0.0088314
0.015385
0.00175224
0.0115516
-0.00105074
0.00859395
-0.00254095
0.0060407
-0.00328824
0.00396132
-0.00342509
0.00232409
-0.00316998
0.00111429
-0.00269947
0.000282117
-0.0021402
-0.000232013
-0.00158993
-0.00049647
-0.00110382
-0.000579771
-0.000707095
-0.00054257
-0.000403172
-0.000432779
-0.00017623
-0.000289053
-9.94106e-06
-0.000137195
0.000123274
0.0518771
-0.00785929
0.075561
-0.00593866
0.0830983
-0.00399497
0.0865351
-0.00313777
0.0821826
-0.00171603
0.0688548
-0.000433439
0.0436533
-0.000197765
0.00912444
-0.000806833
-0.0124168
-0.00529163
-0.0422597
-0.00742172
-0.0694271
-0.0101132
-0.0938097
-0.0123896
-0.108755
-0.00546084
-0.10471
0.00406909
-0.0880791
0.0139426
-0.0631004
0.023658
-0.0350853
0.0321623
-0.00800455
0.038501
0.0153197
0.039521
0.029248
0.0305121
0.0293853
0.0146261
0.0215341
0.00268225
0.0150462
-0.00174232
0.0110351
-0.00349185
0.0078154
-0.00431565
0.00514201
-0.00446892
0.00304193
-0.00414293
0.00147068
-0.00352636
0.000379866
-0.00279722
-0.000303075
-0.00206914
-0.000662383
-0.00142402
-0.000785811
-0.000897783
-0.000753265
-0.000496402
-0.000628409
-0.000207544
-0.000461071
-4.21312e-06
-0.000286212
0.000139074
-0.000126216
0.000249489
0.053144
-0.00968776
0.0741767
-0.00647492
0.0808723
-0.0037126
0.0854606
-0.00292047
0.0802501
-0.00120527
0.0666637
0.000475106
0.0415917
0.00162814
0.0071601
0.00176658
-0.0104574
-0.00276632
-0.0426446
-0.0049067
-0.0695027
-0.00734608
-0.0936285
-0.0102944
-0.109552
-0.0115923
-0.110458
0.000287633
-0.0947442
0.0107342
-0.0705218
0.0213639
-0.0412165
0.0297892
-0.0123846
0.0365424
0.013547
0.0402738
0.0326573
0.0361118
0.0381403
0.0217571
0.0303684
0.00579185
0.0202007
-0.00247224
0.0140855
-0.00479281
0.00999062
-0.00566707
0.00665342
-0.00582706
0.0039665
-0.0053935
0.00194253
-0.00461478
0.000516249
-0.00366275
-0.000389367
-0.00271093
-0.000874819
-0.0018567
-0.0010511
-0.00115873
-0.00102248
-0.00062857
-0.000873046
-0.000251766
-0.000669612
9.95714e-07
-0.000456279
0.000165852
-0.000262992
0.000275848
-0.000106167
0.000355655
0.0522919
-0.0110273
0.0709536
-0.0064647
0.0772618
-0.00286449
0.0814982
0.000249784
0.0776612
-0.000331661
0.0636746
0.00178386
0.0386447
0.00342208
0.00513598
0.00365226
-0.00872146
3.06749e-05
-0.0430678
-0.00234316
-0.0700291
-0.00438028
-0.0935631
-0.00741149
-0.110342
-0.00950483
-0.113701
-0.0083499
-0.102124
0.00766753
-0.0776168
0.0178293
-0.046728
0.0268755
-0.0162311
0.0336357
0.0114201
0.0386693
0.034295
0.038636
0.0459274
0.0283247
0.041234
0.0108915
0.0280658
-0.00207324
0.0181301
-0.00651679
0.012645
-0.00744715
0.00852093
-0.00753457
0.00515945
-0.00702001
0.00256639
-0.00601736
0.000709183
-0.00480772
-0.000490113
-0.003562
-0.0011462
-0.00243955
-0.00139482
-0.00151299
-0.00137113
-0.000810087
-0.00118666
-0.00031496
-0.000930742
9.36226e-06
-0.00066255
0.000207265
-0.000418865
0.000321723
-0.000220732
0.000390412
-7.87146e-05
0.000434368
0.0491158
-0.0116448
0.0661196
-0.0061933
0.0722406
-0.0014435
0.0759479
0.00268583
0.0727616
0.00514944
0.0598031
0.00353983
0.0349973
0.00543134
0.00358121
0.00497685
-0.00821992
0.00315072
-0.0432881
0.000250967
-0.0708775
-0.00149479
-0.0936725
-0.00427083
-0.110867
-0.00688636
-0.116166
-0.00703943
-0.107199
-0.00327466
-0.0850422
0.0150929
-0.0523894
0.0234906
-0.0192573
0.0299016
0.0094589
0.0355969
0.034778
0.0381863
0.051837
0.0327264
0.0526646
0.016894
0.0388268
0.000130514
0.0242225
-0.00816564
0.0158695
-0.00974131
0.0108231
-0.00974928
0.00666973
-0.00904486
0.00339201
-0.00784563
0.000987381
-0.00629556
-0.000601606
-0.00469622
-0.00148945
-0.00321875
-0.00184061
-0.00199376
-0.00182584
-0.00105828
-0.00159455
-0.000402198
-0.00126632
2.06179e-05
-0.000920987
0.000267798
-0.000607791
0.00039619
-0.00035097
0.00045196
-0.000163049
0.000474745
-4.58781e-05
0.000480244
0.0443708
-0.0110799
0.0595743
-0.00509941
0.0658463
0.000200983
0.0694907
0.00501364
0.0661652
0.00928223
0.0540595
0.010893
0.031212
0.00732513
0.00288037
0.00613218
-0.00942328
0.00618022
-0.0433497
0.00321239
-0.0720356
0.00140902
-0.0940492
-0.00111813
-0.111104
-0.00403311
-0.117687
-0.00536524
-0.1106
-0.00363923
-0.0901843
0.00186743
-0.0574653
0.0201688
-0.0209053
0.0251387
0.00794239
0.0314181
0.0346376
0.0357373
0.055869
0.0341543
0.0631647
0.0222264
0.051854
0.00386682
0.033106
-0.008753
0.0202494
-0.0125456
0.0135093
-0.0124275
0.00857419
-0.0116537
0.00448948
-0.0101423
0.00139081
-0.00824906
-0.000709739
-0.00618742
-0.00191862
-0.00426706
-0.00241673
-0.00264264
-0.00242193
-0.00139767
-0.00213
-0.00052283
-0.00170422
3.57013e-05
-0.00125356
0.000353184
-0.000844372
0.000504377
-0.000508459
0.000553678
-0.000258409
0.000547318
-9.42195e-05
0.000523085
-1.00819e-05
0.000490324
0.0383908
-0.00968417
0.0520357
-0.00354134
0.0585374
0.00220953
0.0619291
0.00776258
0.0588426
0.0123362
0.0482036
0.0151381
0.0274512
0.0146538
0.00259005
0.00761545
-0.0122582
0.00896712
-0.043829
0.00665948
-0.0730459
0.00422275
-0.0946857
0.00204549
-0.111226
-0.000996567
-0.118436
-0.0032841
-0.112773
-0.00319142
-0.0939833
0.000159761
-0.0623118
0.00671391
-0.0204114
0.0196749
0.00654011
0.026541
0.0340952
0.0319605
0.058392
0.0332144
0.0717092
0.0256097
0.0657318
0.00834859
0.0449926
-0.00801978
0.0267323
-0.0152359
0.0168279
-0.0158642
0.0108955
-0.0147488
0.00594358
-0.0131078
0.00199838
-0.0107499
-0.000788323
-0.00817048
-0.00244135
-0.00566469
-0.00315864
-0.00352515
-0.00320346
-0.00186111
-0.00283739
-0.000690277
-0.00228183
5.47803e-05
-0.00168839
0.000470531
-0.00114878
0.000657587
-0.000705209
0.000701125
-0.000373103
0.00066837
-0.000148089
0.000601186
-1.93269e-05
0.000532328
2.59191e-05
0.000464404
0.0328798
-0.00803575
0.0439025
-0.001551
0.0503782
0.00461787
0.0538134
0.0103253
0.0510865
0.0155187
0.0416792
0.0188607
0.0241679
0.0184214
0.00209793
0.0151459
-0.0162564
0.0116137
-0.0449707
0.0101088
-0.0736858
0.00729933
-0.0954739
0.00501096
-0.111204
0.0020237
-0.118596
-0.000836759
-0.113796
-0.0022611
-0.0963194
-0.000855341
-0.0664622
0.00431017
-0.022682
0.00898453
0.00528533
0.0209297
0.0326248
0.0280114
0.0599907
0.0303618
0.0781777
0.0267459
0.0786929
0.0126487
0.0593087
-0.0059675
0.0356991
-0.0169866
0.0212668
-0.0196747
0.0136667
-0.0186355
0.00786474
-0.01667
0.00290191
-0.0140114
-0.000767524
-0.0107707
-0.00305524
-0.00755658
-0.00410156
-0.00472178
-0.00422869
-0.00249992
-0.00377447
-0.000924021
-0.00304964
7.75287e-05
-0.00226369
0.000630079
-0.00154691
0.000868665
-0.000957782
0.000910159
-0.000515547
0.000843567
-0.000211926
0.000732205
-2.82256e-05
0.000610083
5.58686e-05
0.000502377
5.95236e-05
0.000404878
0.0263033
-0.00549023
0.0368124
-0.000945652
0.0421386
0.00668858
0.0453672
0.0130641
0.0428244
0.0185873
0.03482
0.0223779
0.0198856
0.023143
-0.000303904
0.0208232
-0.0206405
0.0195299
-0.0466717
0.0133147
-0.0742054
0.0106285
-0.0960039
0.00782933
-0.111286
0.005093
-0.11815
0.00157748
-0.113796
-0.000837635
-0.0972215
-0.00135902
-0.0691546
0.00183704
-0.0251668
0.00679495
0.00243038
0.0118395
0.0300334
0.0235211
0.0607814
0.0272207
0.0830883
0.0254511
0.0899369
0.0155019
0.0745936
-0.00263625
0.0474287
-0.0176971
0.0272602
-0.02298
0.016917
-0.0229249
0.0102
-0.0209707
0.00422297
-0.0179911
-0.000578179
-0.0142007
-0.00372547
-0.0101005
-0.00527955
-0.00637859
-0.00556418
-0.00338629
-0.00502138
-0.00125302
-0.00407663
0.000102964
-0.00303139
0.000845229
-0.00207419
0.00115736
-0.00128745
0.00119833
-0.000697256
0.00109187
-0.000289883
0.000921523
-3.70706e-05
0.000741049
9.19028e-05
0.000574047
0.000125924
0.000435974
8.83775e-05
0.000316499
0.0193197
-0.00251989
0.0278921
0.00343011
0.0320793
0.00911365
0.0361249
0.0159308
0.0343072
0.0215813
0.0274367
0.0259707
0.0147093
0.0275542
-0.00333648
0.0261756
-0.0239622
0.0241449
-0.0475525
0.0204107
-0.0749733
0.0140826
-0.0964595
0.0110841
-0.111212
0.00775538
-0.117339
0.00428241
-0.11292
0.000702208
-0.0967055
-0.00135362
-0.0698294
-0.000684145
-0.0281626
0.00483281
0.000511501
0.00871383
0.0248323
0.0170405
0.0613602
0.0229423
0.0869893
0.0233198
0.0989109
0.0164771
0.0896698
0.000425721
0.0616573
-0.0168649
0.0353113
-0.0257482
0.0209806
-0.0270436
0.0128921
-0.025617
0.00591921
-0.022667
-0.000165892
-0.0184033
-0.00446025
-0.0134659
-0.00672668
-0.00865334
-0.00729205
-0.00465073
-0.00667576
-0.00173191
-0.0054539
0.000124256
-0.00406267
0.00113425
-0.00277884
0.00154988
-0.00172326
0.00159317
-0.000932922
0.00143399
-0.000387489
0.00118947
-4.54919e-05
0.000929942
0.000137807
0.000695143
0.000203552
0.000496417
0.000185953
0.000338397
0.000110316
0.000206181
0.0138177
-0.000454176
0.0197081
0.00566412
0.0232688
0.0122407
0.0256779
0.0195606
0.0251747
0.0250633
0.0196228
0.0293952
0.0089145
0.0317654
-0.00711585
0.0313336
-0.0266687
0.0288821
-0.0487779
0.0253703
-0.073671
0.0191083
-0.0968298
0.014453
-0.11096
0.0108317
-0.116481
0.00689712
-0.111028
0.00239005
-0.0949373
-0.001066
-0.0688167
-0.00236632
-0.0312827
0.00243595
-0.000665677
0.00600999
0.0201068
0.0134393
0.0586782
0.0197225
0.0895976
0.020334
0.106642
0.0155886
0.102699
0.00344741
0.0772334
-0.0151504
0.0458259
-0.0273795
0.0261204
-0.0308881
0.0160541
-0.0302056
0.00799746
-0.0276953
0.000474148
-0.023307
-0.00530076
-0.0175628
-0.00857745
-0.0116152
-0.00954883
-0.00639656
-0.00887383
-0.00245266
-0.00730727
0.000121454
-0.00545742
0.001519
-0.00372783
0.00208323
-0.00230468
0.0021313
-0.00124238
0.00190263
-0.000511609
0.00155811
-5.26912e-05
0.00119667
0.000198298
0.000869449
0.000299883
0.00059881
0.000298916
0.000383451
0.000231522
0.000217189
0.000124066
8.21133e-05
0.00996326
0.000957319
0.0135719
0.00568198
0.016394
0.0125389
0.0179618
0.0199568
0.0175604
0.0271749
0.0124685
0.0322176
0.00296293
0.0353468
-0.0111733
0.0358229
-0.0291398
0.0338047
-0.0496189
0.0297231
-0.0719884
0.0236877
-0.0937406
0.0160191
-0.109963
0.0134564
-0.114257
0.00860785
-0.10788
0.00374875
-0.0914707
-0.00107653
-0.0661871
-0.00369566
-0.0328489
-0.00080008
-0.00178793
0.00355821
0.0167713
0.00934554
0.0565511
0.0155664
0.0877384
0.0215817
0.111885
0.0150911
0.114482
0.00380625
0.0927151
-0.0120343
0.0582984
-0.0276229
0.032648
-0.033907
0.0196611
-0.034495
0.0105475
-0.0327556
0.00151366
-0.0287348
-0.0061521
-0.0224557
-0.0109338
-0.0152065
-0.0126046
-0.00855938
-0.0118709
-0.0033995
-0.00982383
6.39022e-05
-0.00735071
0.00201474
-0.00501445
0.00280562
-0.00308653
0.00286508
-0.00165225
0.00254117
-0.000671044
0.00206206
-5.73045e-05
0.00156272
0.000280219
0.00111475
0.00042344
0.00074589
0.000437796
0.000459929
0.000370966
0.000244005
0.000259916
8.13361e-05
0.000128984
-4.68729e-05
0.00732464
0.00137986
0.00955026
0.00497896
0.0112465
0.0108295
0.0121458
0.0183549
0.0111314
0.0263858
0.00669132
0.0329521
-0.00208454
0.037265
-0.0146595
0.0388329
-0.0309109
0.037594
-0.0495685
0.0337543
-0.0695853
0.0273199
-0.0888336
0.0187807
-0.103728
0.00978379
-0.109938
0.00913709
-0.102639
0.00336696
-0.0857543
-0.00196769
-0.0619497
-0.00531389
-0.0324931
-0.00405146
-0.00346247
0.000874459
0.0154392
0.00489027
0.0548164
0.0110803
0.0861389
0.0171659
0.111262
0.022205
0.123981
0.00559172
0.106528
-0.0100067
0.0723611
-0.026097
0.040546
-0.0355209
0.0236577
-0.0379036
0.0133642
-0.0373117
0.00308885
-0.0343308
-0.0066354
-0.0282515
-0.0135285
-0.019861
-0.016529
-0.0112822
-0.0160295
-0.00440075
-0.0133384
0.000115045
-0.00996058
0.00267378
-0.00677238
0.00377266
-0.00414504
0.00386413
-0.00219892
0.00341176
-0.00087712
0.00274724
-5.66117e-05
0.00206137
0.0003927
0.00145024
0.000586295
0.000951888
0.000614106
0.000569578
0.000541397
0.000289496
0.000415479
8.84407e-05
0.00026942
-5.9102e-05
0.000124183
-0.000171058
0.00541759
0.00110541
0.00697911
0.003951
0.00793254
0.00829289
0.00817813
0.0147972
0.00678403
0.0227022
0.00270984
0.0303673
-0.00519197
0.0360596
-0.0164825
0.039088
-0.030984
0.0389061
-0.0477498
0.0357753
-0.0653804
0.0295495
-0.0822783
0.0207646
-0.0949901
0.0100428
-0.100009
-0.000145421
-0.095249
0.00174747
-0.0787161
-0.00367115
-0.0566063
-0.00731116
-0.030932
-0.00687499
-0.00500381
-0.00251012
0.016121
0.000192631
0.0532196
0.00648704
0.0842841
0.0129351
0.110497
0.0179307
0.126133
0.0200529
0.120302
-0.00818177
0.0857276
-0.0233732
0.0499654
-0.0355164
0.027999
-0.0398622
0.0160799
-0.0406193
0.00479265
-0.0390155
-0.00670484
-0.0342614
-0.0159201
-0.0258599
-0.0208472
-0.0155427
-0.0213077
-0.00600398
-0.0182434
0.000504318
-0.0136518
0.00380629
-0.00921495
0.00511635
-0.00559459
0.00522222
-0.00293274
0.00459795
-0.00114404
0.00367867
-4.61218e-05
0.00273675
0.00054915
0.00190491
0.000804173
0.00123236
0.000843951
0.000722041
0.000756339
0.000354635
0.000604689
0.000100284
0.000429976
-7.21172e-05
0.000259249
-0.00019417
0.000113915
-0.000284976
0.00400142
0.000696976
0.00518396
0.00290057
0.00585254
0.006031
0.00579359
0.0106774
0.00439343
0.0171878
0.000797324
0.0246147
-0.00594627
0.0311216
-0.015863
0.0354401
-0.0285618
0.0366657
-0.043266
0.0344223
-0.0586035
0.0289984
-0.0728822
0.0201533
-0.0839416
0.0097161
-0.0881583
-0.0018075
-0.0838908
-0.0115036
-0.0709306
-0.00603805
-0.0508327
-0.00944476
-0.028665
-0.00957823
-0.00552036
-0.00635844
0.0174705
-0.00385958
0.0512678
0.00214438
0.0822729
0.0084983
0.109492
0.0139397
0.127036
0.0170285
0.126586
0.0137685
0.0988521
-0.0213063
0.0598028
-0.0332106
0.0327056
-0.0402231
0.0184747
-0.0422569
0.0061948
-0.0420215
-0.00707477
-0.0386456
-0.0183957
-0.0317857
-0.0254122
-0.0212949
-0.0272185
-0.00963196
-0.0244137
0.000166312
-0.0187202
0.00557268
-0.0126389
0.00723026
-0.00760556
0.00712732
-0.00393189
0.00622136
-0.00149074
0.00494465
-1.7282e-05
0.00364983
0.000768468
0.00251743
0.0010993
0.00160979
0.00114801
0.000928301
0.00103447
0.000443911
0.000842121
0.000117201
0.000624239
-9.39813e-05
0.000413414
-0.000226284
0.000231708
-0.000311966
9.13783e-05
-0.000376356
0.00295415
0.000426291
0.00384168
0.00203926
0.0043943
0.0043588
0.00434812
0.00747646
0.00321591
0.011855
0.00040105
0.0175841
-0.00490933
0.0235778
-0.0130562
0.0283148
-0.0237061
0.0305844
-0.0361565
0.0295562
-0.0491813
0.0250001
-0.0610353
0.0171515
-0.0702572
0.00646888
-0.0740429
-0.00439933
-0.0712789
-0.0144194
-0.0614841
-0.0209501
-0.0453762