/*--------------------------------*- C++ -*----------------------------------*\
| =========                 |                                                 |
| \\      /  F ield         | OpenFOAM: The Open Source CFD Toolbox           |
|  \\    /   O peration     | Version:  2506                                  |
|   \\  /    A nd           | Website:  www.openfoam.com                      |
|    \\/     M anipulation  |                                                 |
\*---------------------------------------------------------------------------*/
FoamFile
{
    version     2.0;
    format      ascii;
    arch        "LSB;label=32;scalar=64";
    class       volScalarField;
    location    "90.013419639809229";
    object      mag(vorticity);
}
// * * * * * * * * * * * * * * * * * * * * * * * * * * * * * * * * * * * * * //

dimensions      [0 0 -1 0 0 0 0];

internalField   nonuniform List<scalar> 
9700
(
0.000181879
0.000402334
0.000173051
0.000358551
0.000372479
5.90481e-05
0.000107104
0.000635941
5.49218e-05
7.84339e-05
0.00129232
0.000894663
9.56316e-05
0.000125038
2.80083e-05
0.00185106
0.00123646
9.03922e-05
0.00015225
8.40747e-05
7.63269e-06
0.00256281
0.00160542
0.000102561
0.000219004
0.000138468
5.86197e-05
1.53667e-05
0.00352251
0.00204092
8.34374e-05
0.000276815
0.000156363
0.000114455
4.1781e-05
3.34759e-05
0.00481793
0.00261821
1.67445e-05
0.000324299
0.000186955
0.000144676
8.91477e-05
3.55979e-05
5.6825e-05
0.00660785
0.00334132
7.15487e-05
0.000381006
0.000208789
0.000159566
0.000115399
6.09128e-05
1.08396e-05
4.85396e-05
0.00901511
0.0042708
0.000213581
0.000415184
0.000217507
0.000182593
0.000118305
9.07236e-05
8.42887e-05
9.33395e-06
5.18378e-05
0.0122343
0.00546814
0.000466799
0.000430803
0.000220071
0.000184685
0.000159641
0.000137722
9.47163e-05
7.29224e-05
2.17335e-05
4.86906e-05
0.0166419
0.006972
0.000801399
0.000449065
0.00020944
0.000204495
0.000160137
0.000133804
0.000121126
0.000105814
7.519e-05
1.04599e-05
3.88111e-05
0.02258
0.00885504
0.00125718
0.000417109
0.000136218
0.000168496
0.000133845
0.000137697
0.000130683
0.000116247
0.000115703
0.00010754
2.89886e-06
8.08099e-06
0.0285529
0.0110089
0.00189335
0.000345493
1.95841e-05
8.41333e-05
0.00012262
0.000134765
0.000132863
0.000157631
0.0001566
0.000150793
0.000128734
2.00488e-05
8.55089e-06
0.0288257
0.0132407
0.00279635
0.000247212
0.000121566
6.59275e-06
3.06634e-05
6.34411e-05
0.000131854
0.00014646
0.000155306
0.000163555
0.000197882
0.00013362
2.91723e-05
3.77124e-05
0.0218786
0.0178412
0.0044755
0.000206419
0.000480475
0.000163814
7.308e-05
3.04351e-06
5.57797e-05
0.00011268
0.00017866
0.000205415
0.000224072
0.000226181
0.000176545
6.29127e-05
5.76726e-05
0.00504774
0.0333864
0.00731009
0.00160772
0.00150153
0.000739147
0.000336159
0.000120255
1.56256e-06
9.53652e-05
0.000175737
0.000220501
0.000238615
0.000281127
0.000258072
0.000184162
7.87404e-05
7.76206e-05
0.033221
0.0672445
0.0096476
0.00388475
0.00380744
0.00238025
0.00127943
0.000569417
0.000156641
3.34259e-05
0.000119319
0.000209971
0.000263119
0.0003132
0.000298886
0.000277158
0.000240936
0.00010231
0.000106841
0.0697027
0.12686
0.0050683
0.0064285
0.00720509
0.00540792
0.00356737
0.00197846
0.000925111
0.000249084
6.97984e-05
0.000196496
0.000275565
0.000339303
0.000380034
0.000385142
0.000349769
0.000261594
0.000111446
0.000123502
0.0693188
0.210631
0.0132711
0.00685234
0.0116307
0.00935185
0.00686739
0.004547
0.00278096
0.00138127
0.000326352
0.000130252
0.000279179
0.000332421
0.000427315
0.000451319
0.000440793
0.000370108
0.000278204
0.000155977
0.0001225
0.0248146
0.296565
0.0532392
0.00125627
0.0170401
0.0152549
0.011056
0.00707244
0.00478264
0.0034335
0.00192416
0.000455777
0.000222897
0.000350211
0.000426622
0.000482464
0.000490554
0.000475132
0.000420203
0.000301468
0.000170476
0.00013165
0.0619572
0.361051
0.117081
0.0172945
0.0230034
0.0258721
0.0200618
0.011269
0.0052048
0.00376073
0.00376048
0.00244914
0.000580851
0.000309367
0.000442519
0.000513479
0.000543032
0.000566506
0.000520677
0.00042057
0.000323772
0.000188084
0.000133342
0.20558
0.379863
0.199423
0.0573037
0.0241793
0.0419857
0.0405268
0.0260211
0.00991675
0.00091413
0.00111302
0.00362369
0.00292482
0.0006105
0.000392933
0.000561611
0.000617446
0.000629229
0.000605972
0.000568184
0.000441712
0.000321492
0.000199776
0.000127698
0.285791
0.367487
0.284618
0.122034
0.011538
0.0581805
0.0716283
0.0623408
0.0343237
0.00733481
0.00553748
0.00287196
0.00312311
0.00318132
0.000524142
0.000522695
0.000642686
0.000666358
0.000690459
0.000662787
0.000574083
0.000447823
0.00032726
0.000225519
0.00010096
0.262702
0.350967
0.350277
0.211779
0.0234031
0.0676164
0.104252
0.114557
0.0919202
0.0456135
0.00392581
0.0136641
0.00737645
0.00260657
0.00319557
0.000370312
0.000620657
0.000728109
0.000756898
0.000738961
0.000667854
0.000583195
0.000464074
0.000335988
0.000196343
0.000103622
0.194819
0.349842
0.400028
0.29637
0.0901818
0.0605694
0.130827
0.167841
0.168729
0.126452
0.0583551
0.00093828
0.0224085
0.0111229
0.00240744
0.00295849
6.58249e-05
0.00072858
0.000799083
0.000822516
0.000769133
0.000696187
0.00058922
0.000435436
0.000304971
0.000213906
7.6523e-05
0.123165
0.366078
0.441712
0.377888
0.174781
0.0281387
0.142974
0.213812
0.24512
0.226411
0.159186
0.069348
0.00915509
0.0306931
0.013113
0.00257136
0.00243217
0.000262433
0.000814634
0.000855943
0.000863956
0.000787506
0.000684936
0.000535424
0.000415908
0.000271214
0.000195918
7.07423e-05
0.0452591
0.399067
0.473623
0.452037
0.270809
0.0336697
0.137366
0.244575
0.313718
0.325025
0.275838
0.184379
0.0683415
0.0219633
0.0376212
0.0127333
0.00294275
0.00169243
0.000553818
0.000872939
0.000917455
0.000863936
0.000768801
0.000646239
0.000526924
0.000378238
0.000256049
0.000182415
4.2725e-05
0.0287334
0.447705
0.509144
0.503065
0.364808
0.113816
0.104279
0.25615
0.365006
0.416865
0.393449
0.304445
0.216955
0.0397991
0.0379268
0.0418507
0.010091
0.00313693
0.000855849
0.000778765
0.000932119
0.000962619
0.000858358
0.000772869
0.000619446
0.000474276
0.000330737
0.000216421
0.000169134
1.23351e-05
0.0941934
0.511456
0.552858
0.547609
0.43978
0.202631
0.0489804
0.242862
0.395026
0.491074
0.506601
0.437604
0.282315
0.175041
0.0108506
0.0553375
0.0416403
0.00602727
0.00281968
0.000119509
0.000910704
0.000968882
0.000951245
0.000838672
0.000705775
0.000573194
0.000422354
0.000291901
0.000184834
0.000129903
1.19958e-06
0.203014
0.583978
0.603542
0.594257
0.50412
0.285107
0.020572
0.208083
0.39595
0.542261
0.603222
0.568171
0.449398
0.270155
0.108551
0.0234857
0.069874
0.0361249
0.00191891
0.00197276
0.000444203
0.000955372
0.000969081
0.000908017
0.000793467
0.000668929
0.000520956
0.000358699
0.000240113
0.000173332
0.000109702
2.97807e-05
0.285661
0.662453
0.661018
0.643694
0.563477
0.364338
0.0921924
0.156836
0.375637
0.559057
0.675159
0.683369
0.591856
0.442378
0.24861
0.0570958
0.0629556
0.0760793
0.0263736
0.000898568
0.000894325
0.000748925
0.000993173
0.000954005
0.000866836
0.000724883
0.000577672
0.000446967
0.000304353
0.000205594
0.000124376
8.14711e-05
5.68387e-05
0.381186
0.743224
0.721672
0.697309
0.619195
0.438062
0.167776
0.100325
0.336303
0.558183
0.7132
0.772006
0.718814
0.573665
0.388262
0.169885
0.00982848
0.0964416
0.0706668
0.0152113
0.00191734
2.66426e-05
0.000894916
0.000973825
0.000890916
0.000762638
0.000619854
0.00051141
0.000372299
0.000239801
0.000173103
9.71993e-05
6.29559e-05
5.95233e-05
0.471171
0.814176
0.782506
0.75341
0.673096
0.504638
0.241588
0.0374677
0.288993
0.527276
0.743742
0.837627
0.819384
0.703626
0.514175
0.294965
0.0781062
0.0767313
0.113598
0.0548749
0.00601439
0.00149837
0.000581892
0.00089368
0.000897575
0.000793666
0.000683934
0.000540261
0.000424853
0.000303744
0.000195599
0.000125387
7.59092e-05
2.13e-05
5.26529e-05
0.548336
0.877066
0.835411
0.808766
0.724651
0.56268
0.307642
0.0294482
0.235081
0.482353
0.715622
0.899879
0.911355
0.81233
0.638962
0.41821
0.185467
0.0184222
0.128855
0.109595
0.0342203
0.000740216
0.000595342
0.000805138
0.000838974
0.000832463
0.000715022
0.00056141
0.000428304
0.00033295
0.000229244
0.000153059
8.63696e-05
6.15293e-05
1.34116e-05
5.30297e-05
0.5939
0.916997
0.881562
0.855349
0.770086
0.610733
0.362226
0.0681097
0.174104
0.431774
0.670831
0.865024
0.976666
0.912783
0.746277
0.5307
0.293992
0.0644267
0.107928
0.154798
0.0870273
0.0157429
0.000940721
0.000152989
0.000793741
0.000773459
0.000710213
0.000578713
0.000446527
0.000338545
0.000234781
0.000182048
0.000109064
9.43342e-05
4.62485e-05
4.22219e-06
4.67027e-05
0.598643
0.933824
0.904789
0.886632
0.803833
0.646585
0.403151
0.0978473
0.0876438
0.37759
0.622001
0.82854
0.949009
0.946969
0.833003
0.624825
0.390295
0.152463
0.0574512
0.174319
0.149304
0.055148
0.00408006
0.000749239
0.000494154
0.000638783
0.000642586
0.000559217
0.000459005
0.000344683
0.000243561
0.000176272
0.000114885
7.1354e-05
7.99989e-05
3.56159e-05
1.06737e-05
3.6381e-05
0.569714
0.887943
0.887821
0.90843
0.814238
0.668472
0.432389
0.138664
0.0109449
0.321908
0.570574
0.786049
0.932078
0.96143
0.857262
0.693235
0.468148
0.231554
0.00568376
0.163292
0.202596
0.117534
0.025656
0.00057983
0.00020166
0.000468155
0.000479438
0.000469673
0.000418828
0.000322151
0.000259433
0.000166098
0.000145188
8.18999e-05
7.65999e-05
7.64374e-05
4.79918e-05
1.49979e-05
2.62562e-05
0.49292
0.804707
0.824357
0.865272
0.824197
0.675553
0.443676
0.176592
0.101224
0.267165
0.519497
0.735456
0.898617
0.96198
0.904807
0.733675
0.522663
0.29333
0.065661
0.132215
0.2337
0.187499
0.0740694
0.0065992
0.00112539
7.3829e-05
0.000319924
0.000315034
0.000316988
0.000262481
0.000215478
0.000157656
0.000141846
0.000108556
8.88057e-05
9.17489e-05
9.97012e-05
6.74252e-05
8.33509e-06
6.20735e-06
0.369152
0.683303
0.729673
0.796195
0.780649
0.668559
0.455486
0.230117
0.149663
0.213411
0.471397
0.682651
0.851551
0.937921
0.909829
0.77262
0.551301
0.33149
0.111372
0.0958321
0.242274
0.252977
0.140044
0.0351634
0.00109254
0.000459394
6.61736e-05
0.000135705
0.000116869
0.000144106
0.00012308
0.000115354
9.26902e-05
8.70955e-05
7.16542e-05
8.64356e-05
0.000106562
0.000125342
9.1619e-05
1.40054e-05
3.29917e-05
0.243857
0.539698
0.604038
0.691125
0.703246
0.631554
0.463621
0.284379
0.164674
0.164788
0.427813
0.631149
0.799472
0.895861
0.893908
0.775558
0.556795
0.342669
0.137193
0.0669807
0.236911
0.302584
0.219606
0.0844655
0.0108938
0.00235166
2.21584e-05
3.87679e-05
7.12468e-05
5.45053e-05
1.48335e-06
3.58681e-05
2.42335e-05
4.26011e-05
6.42796e-05
9.11703e-05
0.000108765
0.000133518
0.000160849
0.000134595
5.38233e-05
3.73826e-05
0.13845
0.364069
0.461382
0.558778
0.595708
0.564267
0.438068
0.292648
0.164857
0.12987
0.386726
0.585709
0.739907
0.844888
0.856754
0.764191
0.555166
0.287266
0.145406
0.0515511
0.231058
0.335419
0.298173
0.152326
0.0402594
0.000644578
0.00135981
5.78078e-05
0.000208655
0.000209099
0.000192774
0.000108036
5.92718e-05
1.06012e-05
5.00352e-05
7.73465e-05
0.000127536
0.000154861
0.000186416
0.000178731
0.000158329
6.48398e-05
4.78862e-05
0.0395924
0.227841
0.30406
0.416693
0.465217
0.466051
0.399062
0.271705
0.126715
0.107374
0.348975
0.547131
0.693373
0.788673
0.805927
0.73265
0.544213
0.269821
0.144711
0.0502784
0.23188
0.362925
0.367738
0.235389
0.0814163
0.0130046
0.00103443
0.00106651
0.000723754
0.000559689
0.000350669
0.000285418
0.000187371
0.000121826
3.48712e-05
3.11693e-05
0.000108346
0.000162451
0.000191775
0.000215275
0.000215064
0.000194066
7.2497e-05
7.47523e-05
0.0661571
0.127014
0.158754
0.256135
0.32001
0.344138
0.312307
0.221877
0.0855806
0.0958867
0.318579
0.511421
0.653418
0.733098
0.749112
0.683209
0.520526
0.249948
0.135056
0.0545717
0.251329
0.386373
0.434481
0.325639
0.14603
0.0319322
4.98553e-06
0.0030695
0.00322405
0.00254286
0.00139036
0.000625909
0.000321692
0.000227451
0.000148038
3.94228e-05
6.28992e-05
0.000139568
0.000226504
0.000257456
0.000277717
0.000279889
0.000227781
0.000128309
8.22163e-05
0.0680538
0.00446116
0.0224448
0.10307
0.170496
0.206977
0.202126
0.146007
0.0416027
0.102284
0.292457
0.481922
0.61762
0.69115
0.69133
0.624
0.481309
0.222543
0.117696
0.0485219
0.270387
0.437467
0.483912
0.421312
0.230737
0.0677358
0.00525497
0.0069315
0.0090308
0.00865455
0.00606842
0.00308523
0.00117511
0.000366042
0.000171177
9.63742e-05
1.24936e-05
0.000119781
0.000229048
0.000293009
0.00035159
0.00035748
0.0003393
0.00027386
0.000146008
8.33372e-05
0.0466664
0.0328368
0.0474649
0.0106916
0.0370514
0.0716528
0.081104
0.0511065
0.0212975
0.131494
0.272813
0.442664
0.580192
0.645659
0.637184
0.557596
0.425186
0.202979
0.081475
0.0328482
0.291367
0.470013
0.571605
0.500273
0.329103
0.125925
0.0179382
0.0101436
0.0176238
0.0201165
0.0171691
0.0113105
0.00576868
0.00215095
0.000509904
7.97911e-05
5.56731e-05
5.04356e-05
0.000200609
0.000316597
0.000385926
0.000399428
0.000420017
0.000366913
0.000282698
0.000185789
9.3716e-05
0.0230858
0.0218827
0.060486
0.0645646
0.0533204
0.0362941
0.0299338
0.0459478
0.0935403
0.172981
0.278052
0.393703
0.513073
0.581817
0.564995
0.479968
0.354814
0.178666
0.0355202
0.0506835
0.316598
0.494869
0.627478
0.612578
0.431631
0.201256
0.0455737
0.0119875
0.0285512
0.0363186
0.035673
0.0272982
0.0172018
0.00897082
0.00363517
0.000813562
1.0273e-05
4.1082e-05
0.000133035
0.000305939
0.000385791
0.000454586
0.000476223
0.000465754
0.000417707
0.000331532
0.000194353
0.000108137
0.0111125
0.00029136
0.0371391
0.0642372
0.0855101
0.095143
0.104694
0.121479
0.155762
0.210219
0.285237
0.368184
0.435966
0.48177
0.476079
0.395566
0.277407
0.133723
0.0099316
0.0942833
0.350863
0.523299
0.652773
0.713798
0.542687
0.30117
0.0873329
0.00733477
0.0424634
0.0590408
0.0631196
0.0530894
0.0361617
0.021519
0.0117423
0.0053465
0.00121281
0.000110668
0.000150325
0.000237113
0.000397941
0.000509622
0.000555835
0.000556072
0.000534396
0.000418345
0.000318595
0.000218019
0.000154114
0.00838345
0.00854579
0.0102933
0.0341584
0.0678437
0.0985767
0.126389
0.153495
0.185683
0.227147
0.27495
0.331524
0.375241
0.390073
0.365813
0.304642
0.199141
0.07629
0.060121
0.170252
0.389457
0.55605
0.683826
0.748544
0.707169
0.383266
0.157279
0.00548483
0.0549619
0.0896915
0.104415
0.0964325
0.0692135
0.0406223
0.0219141
0.0130303
0.00690188
0.00160868
0.000168417
0.000243616
0.000382154
0.000530385
0.000618108
0.00063028
0.000612326
0.000566985
0.00045175
0.000340186
0.000241911
0.000126776
0.00747299
0.00671129
0.000900107
0.00703591
0.0310676
0.064055
0.100344
0.136619
0.171884
0.20797
0.244111
0.274282
0.298295
0.300319
0.275959
0.211986
0.126231
0.0176174
0.108482
0.225063
0.424315
0.591068
0.721993
0.783242
0.748603
0.535652
0.219131
0.0381742
0.0632321
0.121158
0.159303
0.163303
0.134217
0.0819443
0.0388233
0.0172754
0.0124139
0.00793416
0.001798
0.000256264
0.000358409
0.000495608
0.000627269
0.000703019
0.000698885
0.000669413
0.000595971
0.000473922
0.000356525
0.000234175
8.65656e-05
0.00602986
0.00359681
0.000882998
0.00257494
0.00519857
0.0243765
0.053628
0.0881702
0.123515
0.15672
0.185482
0.206748
0.218737
0.209444
0.182366
0.138181
0.06161
0.0333241
0.151733
0.291799
0.464074
0.630063
0.764842
0.834444
0.781556
0.643268
0.311846
0.076926
0.0595177
0.149716
0.215778
0.247379
0.230414
0.173005
0.0911551
0.0307864
0.00864481
0.0105786
0.0082532
0.00163716
0.000334673
0.000474781
0.000609122
0.000765729
0.000779967
0.000750363
0.000709638
0.000602758
0.000454576
0.000335025
0.000229194
6.50102e-05
0.00457817
0.00207242
0.000749595
0.00176079
0.00229671
0.00244773
0.01624
0.0384922
0.0654838
0.0928273
0.116602
0.132444
0.13829
0.135937
0.109229
0.0692687
0.0139217
0.0747798
0.189404
0.336364
0.504951
0.673493
0.811804
0.886476
0.859341
0.698925
0.424853
0.133279
0.0457575
0.167591
0.270123
0.333433
0.342312
0.295241
0.221842
0.0900651
0.0176002
0.00151424
0.00882775
0.00790287
0.00116616
0.000445357
0.000618766
0.000773659
0.000856073
0.00087184
0.000812439
0.000719018
0.00058735
0.000445624
0.000329489
0.000217075
4.15499e-05
0.00345874
0.00138546
0.00112179
4.05323e-05
0.00110065
0.00216384
0.000224629
0.00851371
0.0226409
0.0397318
0.056376
0.069066
0.0740432
0.0689211
0.0578845
0.0276129
0.0210522
0.0974291
0.216679
0.369403
0.545208
0.71449
0.857927
0.937159
0.922092
0.785011
0.528812
0.208451
0.0121723
0.174921
0.30981
0.418711
0.458736
0.426949
0.343153
0.217946
0.0792167
0.00033774
0.0103139
0.0080747
0.00682067
0.000552823
0.000579011
0.000723366
0.00088557
0.000933193
0.000912349
0.000830839
0.000708671
0.000566387
0.000413481
0.000279554
0.00019535
2.02021e-05
0.00263156
0.000919368
0.000966427
0.000562759
0.000404755
0.000618665
0.00166022
0.00100628
0.00288902
0.0100932
0.018488
0.0260146
0.0306856
0.0298551
0.0206556
0.00349964
0.0342004
0.105588
0.221248
0.386413
0.579772
0.7502
0.897373
0.982416
0.974988
0.853572
0.613774
0.295133
0.0340429
0.155298
0.339702
0.484125
0.574162
0.570881
0.465992
0.356857
0.186928
0.0570919
0.0211861
0.0151715
0.008272
0.00516958
2.22531e-05
0.00065175
0.000879331
0.000971242
0.000985125
0.000929955
0.000831223
0.000687243
0.000523623
0.000379563
0.000262683
0.000184183
2.62641e-05
0.00194931
0.000572505
0.000813559
0.000571921
0.000757843
0.000585073
6.09347e-05
0.000937857
0.00115516
2.80932e-05
0.00266277
0.0055861
0.0076571
0.00815844
0.00410919
0.00659395
0.0355008
0.0976742
0.210687
0.373727
0.586344
0.790003
0.910181
1.02204
1.0175
0.910512
0.687022
0.379726
0.0895076
0.122418
0.331989
0.548609
0.669566
0.708327
0.647129
0.507075
0.342762
0.163899
0.0216085
0.0410107
0.0145655
0.00852339
0.00324867
0.000454845
0.000795334
0.000999373
0.00103293
0.00101327
0.000923652
0.000795462
0.000657047
0.000499796
0.000347404
0.000217701
0.000131812
4.49029e-05
0.0011704
0.000343035
0.000694915
0.000539992
0.000733244
0.00082141
0.000770188
0.000405362
0.00021247
0.000680191
0.000734802
0.000262716
0.000252197
9.09276e-05
0.00201728
0.00944509
0.0285823
0.0807523
0.18347
0.346334
0.546515
0.794105
0.944531
1.01387
1.04791
0.953248
0.749055
0.454268
0.15067
0.0853304
0.302708
0.55393
0.78281
0.837251
0.794574
0.675918
0.50372
0.292603
0.111733
0.0230805
0.0539968
0.00909268
0.00778471
0.00145494
0.000699582
0.000926873
0.00107714
0.00107929
0.00102259
0.000901967
0.000750713
0.00058664
0.000423105
0.000298025
0.000201618
0.000102248
6.57593e-05
0.000357919
0.000201353
0.000557173
0.000481128
0.000665433
0.00075862
0.000869519
0.000863452
0.000675746
0.000326076
5.53295e-05
0.000455893
0.000672095
0.000835602
0.00242692
0.00731532
0.0208252
0.0583672
0.146893
0.29619
0.500259
0.715831
0.961145
1.00988
1.05267
0.971814
0.793155
0.512115
0.204038
0.0449865
0.26978
0.522205
0.788818
0.989123
0.952407
0.816948
0.639009
0.423027
0.21301
0.0398017
0.0659117
0.0553059
0.00143836
0.00571217
0.000226159
0.000865299
0.00105268
0.00113275
0.0011089
0.000985208
0.000828657
0.000670016
0.000524303
0.000365683
0.000257675
0.000126564
8.50781e-05
1.20899e-05
7.31733e-05
0.000136553
0.000427905
0.00040796
0.000598767
0.000714604
0.000799463
0.000897193
0.000914407
0.000838798
0.00063898
0.000388668
3.25395e-05
0.000354012
0.000843188
0.00416957
0.0134349
0.0376408
0.103867
0.235512
0.42462
0.646566
0.855077
1.02065
1.00302
0.986941
0.810809
0.546272
0.216205
0.00271329
0.232197
0.486398
0.753764
0.968525
1.07834
0.97796
0.767853
0.543326
0.314352
0.115915
0.0357555
0.0948114
0.0444066
0.00468093
0.0030146
0.000437537
0.000985084
0.00112509
0.00113391
0.00104597
0.000926573
0.000758966
0.000608653
0.000426614
0.000303364
0.000200348
0.000111572
4.2287e-05
4.28602e-06
6.08528e-05
0.000128281
0.000290183
0.00035109
0.000497648
0.000625077
0.000752337
0.000839586
0.000918707
0.000915735
0.000881417
0.000730127
0.000510567
0.000127357
0.000191548
0.00147936
0.00775654
0.0227082
0.0639597
0.166891
0.337056
0.548665
0.757629
0.936446
0.969532
0.938405
0.810399
0.560427
0.224816
0.0158677
0.147922
0.450421
0.718835
0.95199
1.05078
1.02183
0.893621
0.651237
0.410176
0.190462
0.012467
0.101645
0.10117
0.0264232
0.00682929
0.000786682
0.00073417
0.00104637
0.00114406
0.00110785
0.000988098
0.000825821
0.000668323
0.000508035
0.00034208
0.000252468
0.000139159
7.93205e-05
5.18412e-05
1.5391e-05
3.92227e-05
8.56142e-05
0.000250609
0.000385439
0.000525845
0.00065459
0.000752186
0.00084669
0.000893461
0.000880725
0.000814898
0.000662833
0.000430262
8.53141e-05
0.000395806
0.00345397
0.0134603
0.035567
0.101576
0.24192
0.435172
0.645827
0.814315
0.933621
0.868594
0.783379
0.558128
0.250182
0.061803
0.0837945
0.419664
0.685049
0.930449
1.08822
1.05933
0.914468
0.738584
0.490961
0.25748
0.0592306
0.0854931
0.145106
0.0840056
0.00905324
0.00501246
0.000380863
0.000893117
0.00109599
0.00112355
0.00101417
0.000893712
0.000704498
0.000562444
0.000401957
0.000287004
0.000170428
0.00012329
5.96148e-05
2.05925e-05
4.05907e-05
3.09294e-05
6.12505e-05
0.000287768
0.000410273
0.000543881
0.000659106
0.000765388
0.000837692
0.000870704
0.000824264
0.000743006
0.000558918
0.000245729
6.41938e-05
0.00111849
0.0066949
0.0202628
0.0526037
0.14969
0.316505
0.511692
0.696847
0.810041
0.838268
0.730219
0.546627
0.256924
0.0934544
0.0546659
0.396051
0.65127
0.910779
1.09014
1.12884
1.01728
0.787019
0.552015
0.310357
0.0980532
0.0685005
0.163846
0.155684
0.0540139
0.00254643
0.00159645
0.000735875
0.000968344
0.00107782
0.00102621
0.000913031
0.000744445
0.00059439
0.000469604
0.000313896
0.000215221
0.00011684
7.00915e-05
4.87324e-05
1.16414e-05
3.46629e-05
4.18741e-05
0.000101138
0.000293819
0.000434818
0.000581444
0.000671469
0.000768197
0.000807018
0.000813798
0.000749457
0.000627065
0.000421019
7.16802e-05
0.000278345
0.00250926
0.0107378
0.0269073
0.0747827
0.202197
0.374879
0.552516
0.691271
0.741544
0.686155
0.532317
0.288114
0.0982084
0.0651223
0.367882
0.623447
0.875557
1.08864
1.17431
1.07855
0.869444
0.591089
0.343208
0.124364
0.0575799
0.179184
0.207418
0.131653
0.0273177
0.00632123
5.08469e-05
0.000785435
0.000986343
0.000991355
0.000901587
0.000777171
0.000634777
0.000458735
0.000335366
0.000247987
0.000130042
8.49534e-05
4.77157e-05
3.59203e-05
9.8726e-06
3.27703e-05
7.49569e-05
0.000137267
0.000329684
0.00044395
0.000577248
0.000667891
0.000723154
0.00076823
0.000736653
0.000637365
0.000516537
0.000258202
7.91043e-05
0.000665124
0.00458397
0.0143908
0.0324968
0.101447
0.248149
0.38451
0.558657
0.63046
0.615459
0.504499
0.309338
0.100584
0.103083
0.345759
0.599768
0.838821
1.05082
1.1637
1.12867
0.920639
0.627616
0.354663
0.133701
0.0553605
0.197762
0.256649
0.205762
0.0847181
0.0103401
0.00422124
0.000526818
0.000781317
0.000922214
0.000880522
0.00075946
0.000629633
0.000478865
0.000344739
0.000246792
0.000156504
0.000103187
4.705e-05
3.88497e-05
2.5765e-05
1.00149e-05
2.46831e-05
0.000104227
0.000141384
0.000307682
0.00044131
0.000548908
0.000647946
0.000695805
0.000680425
0.000649311
0.000536609
0.000359615
0.000115053
0.000204739
0.00134659
0.00707847
0.0161524
0.0368419
0.128073
0.282909
0.402283
0.510051
0.523231
0.453756
0.302768
0.100148
0.105589
0.336666
0.577188
0.804382
1.00803
1.1276
1.10495
0.952656
0.663245
0.326144
0.130576
0.0633272
0.221785
0.306931
0.284501
0.162257
0.037716
0.0020918
0.00124798
0.00055281
0.000708773
0.000756192
0.000694662
0.000582802
0.000491808
0.000346869
0.000225012
0.000160399
9.71434e-05
8.22812e-05
4.88789e-05
3.6322e-05
6.28606e-05
5.90586e-06
3.17993e-05
0.000112486
0.000160548
0.000316953
0.000436104
0.000532017
0.000588408
0.000618591
0.000610346
0.000555064
0.00041706
0.000227292
1.8689e-05
0.000376102
0.00243223
0.00914823
0.0148325
0.0395216
0.146971
0.282153
0.381045
0.415733
0.382956
0.273925
0.100605
0.10176
0.32563
0.561095
0.772314
0.960062
1.08038
1.07803
0.939242
0.682273
0.362547
0.134176
0.076602
0.250714
0.364199
0.364666
0.254716
0.0976969
0.00866017
0.000665736
6.8911e-05
0.00042897
0.000534552
0.000583102
0.00049758
0.000426576
0.000321408
0.000232543
0.0001433
7.90826e-05
6.32841e-05
5.56772e-05
6.99612e-05
6.95115e-05
6.86377e-05
5.39653e-06
2.73328e-05
0.000140259
0.000177897
0.000332602
0.000426362
0.000485706
0.000561689
0.000547757
0.000517066
0.000445428
0.000293455
9.00983e-05
0.00011855
0.000604272
0.00388856
0.00968421
0.0100604
0.0387429
0.126937
0.232698
0.297892
0.295216
0.224259
0.0883307
0.092423
0.308609
0.542941
0.748913
0.907516
1.01869
1.02377
0.904398
0.678815
0.374186
0.134749
0.0776084
0.288507
0.420314
0.460184
0.35511
0.18
0.0402982
0.00193216
0.000685408
1.69794e-05
0.000230861
0.00029456
0.00034789
0.000281193
0.000262827
0.000194039
0.000122777
7.86436e-05
4.39425e-05
5.42894e-05
7.92557e-05
7.4515e-05
8.96323e-05
0.000103837
3.60727e-05
5.18183e-07
0.000151684
0.000178612
0.000337839
0.00039896
0.000457511
0.000497253
0.000473321
0.000436769
0.000324061
0.000181645
1.07409e-05
0.000202523
0.00104877
0.00538982
0.00770243
0.00234184
0.0311926
0.101115
0.177579
0.196712
0.158823
0.0590114
0.0915649
0.275358
0.507542
0.727729
0.86953
0.942539
0.94841
0.840865
0.642197
0.359577
0.134905
0.0719828
0.301254
0.506374
0.540811
0.48095
0.282274
0.0943304
0.0077159
0.00252588
0.000343532
0.000304679
9.06926e-05
4.46403e-06
0.000100703
0.000126678
0.000104606
9.20639e-05
6.07038e-05
4.94139e-05
3.67975e-05
5.47968e-05
6.90496e-05
0.000111002
0.000139175
0.000135285
5.52669e-05
2.36973e-05
0.000143191
0.000175976
0.000324218
0.000354039
0.000418564
0.000418346
0.000385503
0.000340203
0.000253331
9.57222e-05
8.85124e-05
0.000279673
0.00170518
0.00642505
0.00304413
0.00760804
0.0155417
0.0687966
0.100244
0.0842874
0.0166557
0.101152
0.256292
0.432947
0.658097
0.828588
0.879464
0.856843
0.755317
0.57514
0.343168
0.0634294
0.0480103
0.302941
0.541188
0.694796
0.586446
0.411831
0.176031
0.0319661
0.00152894
0.000469708
4.31097e-05
0.000433098
0.00034414
0.000264342
0.000116603
5.94934e-05
1.66096e-05
3.16383e-06
6.7357e-07
1.41621e-05
3.21408e-05
8.99094e-05
0.000139539
0.000176367
0.000167083
0.000157022
9.54772e-05
8.2846e-05
0.000128488
0.000188188
0.000291917
0.000328063
0.000356539
0.00034299
0.000320548
0.000271405
0.000159617
2.0657e-05
9.26755e-05
0.00036153
0.00259532
0.00656108
0.00326855
0.0192039
0.00769944
0.0164175
0.0125796
0.0308938
0.118195
0.24174
0.390493
0.533382
0.72603
0.785125
0.736734
0.650666
0.486639
0.296366
0.0541615
0.0241565
0.292806
0.556296
0.769861
0.790882
0.548265
0.280179
0.0804686
0.00505816
0.000462996
0.00108297
0.000561089
0.000320883
0.000416029
0.000456481
0.000328857
0.000207707
0.000131773
7.52164e-05
1.17338e-05
2.08264e-05
0.000104111
0.000142022
0.000187396
0.000222167
0.00024576
0.000190336
0.000127375
7.28147e-05
0.000122729
0.00019127
0.00024982
0.000275367
0.000320681
0.000282887
0.000239066
0.000175661
0.000110982
1.17299e-05
0.000113791
0.000499481
0.00355019
0.00581445
0.00954142
0.0315706
0.0371159
0.042833
0.0722721
0.134575
0.228897
0.343087
0.467897
0.5557
0.65393
0.627902
0.524633
0.383473
0.227819
0.0486913
0.036372
0.301526
0.559412
0.795424
0.928882
0.771647
0.410474
0.145728
0.0256889
0.0016088
0.00212012
0.000112833
0.000124263
0.000304722
0.000237095
0.000356054
0.000413769
0.000325346
0.00019165
9.10935e-05
5.37619e-06
5.70566e-05
0.000135582
0.000210493
0.000278059
0.000301755
0.000290875
0.000259376
0.000145054
8.30274e-05
0.000110853
0.000166339
0.000214862
0.000231678
0.000254717
0.000216248
0.000184986
0.000129183
4.16907e-05
2.57958e-05
7.76478e-05
0.000700544
0.00437865
0.00470617
0.014109
0.0422348
0.0654805
0.0936597
0.140417
0.209157
0.295703
0.382548
0.461573
0.489077
0.443373
0.380453
0.274658
0.154363
0.0220581
0.129817
0.326745
0.575411
0.810828
0.976285
0.888916
0.547683
0.250045
0.0552806
0.00669491
0.00109014
0.00601213
0.00896291
0.00520088
0.00172678
2.36303e-05
2.20667e-05
0.000358646
0.000371518
0.000218126
6.4883e-05
2.04389e-05
0.000121875
0.000238064
0.000300848
0.000346556
0.000361958
0.000345768
0.000282987
0.000164454
8.5792e-05
9.47277e-05
0.00017039
0.000187279
0.000194462
0.000206566
0.0001767
0.000138175
9.0435e-05
5.91239e-05
2.53908e-05
1.5953e-05
0.000954118
0.00492421
0.00394245
0.0156049
0.0476918
0.0834808
0.124004
0.17794
0.238819
0.30252
0.348829
0.370549
0.350295
0.260786
0.179531
0.0877399
0.0209758
0.163281
0.350861
0.59219
0.835244
1.01396
1.03731
0.768854
0.321702
0.116861
0.0126144
0.00852726
0.0244548
0.0334952
0.031846
0.0185763
0.00644311
0.000464492
0.000607919
0.000135464
0.000382062
0.00021742
1.65469e-05
0.000118147
0.000206175
0.000320924
0.000388116
0.00041588
0.000435606
0.000393755
0.000311766
0.000211203
7.26493e-05
7.72437e-05
0.000170077
0.000149803
0.00016806
0.00015865
0.00013035
0.000122682
7.15015e-05
3.87669e-05
2.8795e-05
6.36757e-05
0.00114116
0.00509276
0.00394195
0.0135443
0.0452418
0.085018
0.126599
0.17679
0.218089
0.249717
0.257501
0.236201
0.197182
0.114725
0.0350138
0.0606378
0.196478
0.381044
0.610912
0.858217
1.06315
1.11282
0.954115
0.498879
0.160578
0.0340167
0.0216758
0.0549801
0.0822881
0.0859703
0.0706035
0.0412972
0.0155872
0.00229226
0.00103623
0.000116827
0.000365965
0.000167436
6.12703e-05
0.00021028
0.000318659
0.000436943
0.000519487
0.000506752
0.000502061
0.000429838
0.000349282
0.000222276
8.04574e-05
6.21196e-05
0.000135681
0.000136684
0.000136581
0.000118443
0.000109972
9.97236e-05
9.60174e-05
6.65598e-05
0.000102721
0.000148827
0.00115107
0.00483856
0.00447084
0.0086309
0.0348929
0.0705185
0.103146
0.141023
0.15966
0.162991
0.149162
0.114843
0.075528
0.000928135
0.0948113
0.230022
0.414727
0.638769
0.883014
1.10252
1.19633
1.06342
0.699835
0.250693
0.0553935
0.0301567
0.0956813
0.149789
0.173563
0.15645
0.116643
0.068139
0.027912
0.00575114
0.00104526
0.000331359
0.000305037
9.01076e-05
0.000170736
0.000310557
0.000459392
0.000557018
0.000583525
0.000592818
0.000557587
0.000461957
0.000356661
0.000231443
6.22456e-05
3.80787e-05
0.000110906
8.99931e-05
0.000108316
8.94187e-05
0.00011145
0.000120528
0.000109837
0.000128217
0.0001886
0.000234362
0.000974819
0.004171
0.00497804
0.00287748
0.0203473
0.0466004
0.0673169
0.0875213
0.0906556
0.0807446
0.0644078
0.0342375
0.0129575
0.114202
0.260218
0.450997
0.669501
0.904953
1.13537
1.25621
1.17595
0.858623
0.39199
0.095089
0.0341511
0.132551
0.228883
0.281818