/*--------------------------------*- C++ -*----------------------------------*\
| =========                 |                                                 |
| \\      /  F ield         | OpenFOAM: The Open Source CFD Toolbox           |
|  \\    /   O peration     | Version:  2506                                  |
|   \\  /    A nd           | Website:  www.openfoam.com                      |
|    \\/     M anipulation  |                                                 |
\*---------------------------------------------------------------------------*/
FoamFile
{
    version     2.0;
    format      ascii;
    arch        "LSB;label=32;scalar=64";
    class       surfaceScalarField;
    location    "90.013419639809229";
    object      phi_0;
}
// * * * * * * * * * * * * * * * * * * * * * * * * * * * * * * * * * * * * * //

dimensions      [0 3 -1 0 0 0 0];

oriented        oriented;

internalField   nonuniform List<scalar> 
19160
(
-0.000509749
-0.231361
-0.00102435
-0.23132
-0.000466289
-0.230894
-0.00154008
-0.231274
-0.000932582
-0.230853
-0.000443447
-0.230451
-0.00206496
-0.231168
-0.00139554
-0.230811
-0.000885008
-0.230412
-0.000418825
-0.230032
-0.00259786
-0.231043
-0.00185625
-0.230708
-0.00132101
-0.230375
-0.000833772
-0.229997
-0.000399132
-0.229633
-0.00314499
-0.230851
-0.00231105
-0.230588
-0.00174863
-0.23028
-0.0012402
-0.229969
-0.000793115
-0.229603
-0.000384344
-0.229249
-0.00370911
-0.23058
-0.00275854
-0.230404
-0.00216342
-0.230173
-0.00163264
-0.229887
-0.00117638
-0.229585
-0.000762686
-0.229225
-0.000374751
-0.228874
-0.00429732
-0.230239
-0.00319464
-0.230143
-0.00256001
-0.230007
-0.00200438
-0.229801
-0.00154148
-0.229522
-0.00112893
-0.229219
-0.000743231
-0.228856
-0.00037101
-0.228503
-0.00491594
-0.229757
-0.00361535
-0.229818
-0.00293112
-0.229772
-0.00234659
-0.229665
-0.00188004
-0.229463
-0.00147435
-0.229177
-0.00109929
-0.228863
-0.000736034
-0.228491
-0.000372761
-0.22813
-0.00557227
-0.22914
-0.00401471
-0.229358
-0.00326724
-0.229482
-0.00264787
-0.229471
-0.00218062
-0.229364
-0.00178941
-0.229148
-0.00143365
-0.228843
-0.00108939
-0.22851
-0.000740374
-0.228123
-0.000378569
-0.227751
-0.00627507
-0.228301
-0.00438489
-0.228769
-0.00355566
-0.22907
-0.0028932
-0.229237
-0.00242862
-0.229223
-0.00206094
-0.229093
-0.00173643
-0.228845
-0.00142206
-0.22851
-0.00109815
-0.228152
-0.000753337
-0.227749
-0.000387744
-0.227364
-0.00703622
-0.227178
-0.00471568
-0.22797
-0.00377987
-0.228545
-0.00306279
-0.2289
-0.00260458
-0.229061
-0.00227209
-0.229012
-0.00199377
-0.228835
-0.00172463
-0.228542
-0.00143808
-0.22817
-0.00112104
-0.227784
-0.000773435
-0.227363
-0.000398499
-0.226965
-0.00786959
-0.225712
-0.0049944
-0.2269
-0.00391908
-0.227831
-0.00313071
-0.228477
-0.00268274
-0.228822
-0.00240028
-0.228933
-0.00218786
-0.228818
-0.00198367
-0.228576
-0.00175209
-0.228228
-0.00147546
-0.227816
-0.00115557
-0.227402
-0.000796958
-0.226965
-0.000409257
-0.226556
-0.00880397
-0.223743
-0.00520374
-0.225503
-0.00394696
-0.226872
-0.0030635
-0.227898
-0.00262948
-0.22853
-0.00241532
-0.228807
-0.00229462
-0.228826
-0.00218184
-0.22862
-0.00202832
-0.2283
-0.00181057
-0.227893
-0.00153029
-0.227441
-0.00119581
-0.227003
-0.00082058
-0.226553
-0.000417542
-0.226138
-0.00995109
-0.221167
-0.00531162
-0.223635
-0.00383174
-0.225618
-0.00281859
-0.227117
-0.00240038
-0.228127
-0.00227747
-0.228668
-0.00228157
-0.22882
-0.00229548
-0.228712
-0.00225143
-0.228397
-0.00211726
-0.227993
-0.00189426
-0.227529
-0.00159397
-0.227043
-0.00123635
-0.226587
-0.000839156
-0.226132
-0.000422265
-0.225716
-0.0116044
-0.217872
-0.00528742
-0.221191
-0.00353518
-0.223932
-0.00234261
-0.226094
-0.0019386
-0.227579
-0.00193315
-0.228472
-0.00210537
-0.228845
-0.00229232
-0.228823
-0.00240022
-0.228564
-0.00238364
-0.22813
-0.00224202
-0.227646
-0.00199121
-0.227132
-0.00165844
-0.226621
-0.00126902
-0.226158
-0.000850317
-0.225704
-0.000421974
-0.225294
-0.0142275
-0.213888
-0.00517616
-0.217983
-0.00302445
-0.221702
-0.00157392
-0.224701
-0.00117199
-0.22686
-0.00131333
-0.228198
-0.00170657
-0.22887
-0.00212855
-0.229008
-0.00244544
-0.228778
-0.00259303
-0.228354
-0.00256636
-0.227806
-0.00238632
-0.22725
-0.00208985
-0.2267
-0.00171187
-0.226178
-0.00128983
-0.225718
-0.000851002
-0.225275
-0.000414943
-0.224879
-0.0182406
-0.209338
-0.00522102
-0.213843
-0.00228047
-0.218727
-0.000452619
-0.222823
-2.06424e-05
-0.225852
-0.000329342
-0.227844
-0.00100822
-0.228897
-0.00174321
-0.229256
-0.00234655
-0.229107
-0.00272208
-0.228649
-0.00285692
-0.228064
-0.00277765
-0.227414
-0.00253389
-0.226806
-0.00217374
-0.226239
-0.00174805
-0.22572
-0.00129383
-0.225275
-0.000837629
-0.224852
-0.000401252
-0.224478
-0.0239817
-0.204609
-0.00577023
-0.208788
-0.00135717
-0.214767
0.00107373
-0.220253
0.00160217
-0.224446
0.00111749
-0.227299
8.82058e-05
-0.228941
-0.00105734
-0.229583
-0.00204651
-0.229556
-0.0027376
-0.229092
-0.00309879
-0.228407
-0.00316244
-0.227679
-0.00299478
-0.226954
-0.00266228
-0.226318
-0.00223361
-0.225753
-0.00175963
-0.225254
-0.00127535
-0.224837
-0.000810301
-0.224443
-0.000380831
-0.224097
-0.0311353
-0.199788
-0.00750729
-0.202872
-0.000442389
-0.209703
0.00303685
-0.21673
0.00379207
-0.222443
0.0031507
-0.226479
0.00169837
-0.228909
2.87842e-05
-0.230027
-0.00147242
-0.230157
-0.00259261
-0.229701
-0.00326997
-0.22892
-0.00353614
-0.228033
-0.00347796
-0.227196
-0.00318736
-0.226429
-0.00275785
-0.225794
-0.00225894
-0.225254
-0.00173844
-0.224791
-0.00123442
-0.224413
-0.000768873
-0.224055
-0.000353594
-0.223744
-0.0386374
-0.194148
-0.0110244
-0.196271
8.05283e-05
-0.203395
0.0053842
-0.21205
0.00663853
-0.219576
0.00592277
-0.225215
0.00399499
-0.228776
0.00164565
-0.230526
-0.000534128
-0.230965
-0.00222957
-0.23052
-0.00333937
-0.229631
-0.00389102
-0.228566
-0.0039901
-0.227521
-0.00376226
-0.226621
-0.00333548
-0.225851
-0.00280585
-0.225247
-0.00223845
-0.224754
-0.00168427
-0.224341
-0.00117082
-0.224011
-0.000713216
-0.223695
-0.000321145
-0.223422
-0.045098
-0.186929
-0.0162184
-0.188954
-0.000254838
-0.195936
0.00786202
-0.205873
0.0101449
-0.215557
0.00958091
-0.223234
0.00720867
-0.228429
0.00402747
-0.231158
0.000913156
-0.231973
-0.00157809
-0.231617
-0.00327351
-0.230586
-0.00421652
-0.229306
-0.00453943
-0.228016
-0.00440457
-0.226879
-0.00398651
-0.22597
-0.00341858
-0.225238
-0.00279098
-0.224694
-0.00217146
-0.224267
-0.00159681
-0.223915
-0.00108446
-0.22364
-0.000646644
-0.22337
-0.000284711
-0.223138
-0.0495154
-0.177597
-0.0222639
-0.180883
-0.00178267
-0.187426
0.0101099
-0.198184
0.0141504
-0.209878
0.014126
-0.220102
0.0115423
-0.227568
0.0074909
-0.231892
0.0031671
-0.233412
-0.000483652
-0.233068
-0.00303065
-0.23186
-0.00450917
-0.230293
-0.00513807
-0.228707
-0.00513816
-0.227283
-0.00473782
-0.226127
-0.00412204
-0.225266
-0.00341616
-0.224613
-0.00271179
-0.224154
-0.00205757
-0.223806
-0.00147611
-0.223523
-0.000980562
-0.223306
-0.000571736
-0.223083
-0.000246154
-0.222892
-0.0517582
-0.166462
-0.0279313
-0.171929
-0.00446195
-0.178204
0.011698
-0.189014
0.0183876
-0.202421
0.0193563
-0.215108
0.0169588
-0.225518
0.0122696
-0.232347
0.00661831
-0.235344
0.00139849
-0.235294
-0.00246097
-0.233637
-0.00476317
-0.231606
-0.00581376
-0.229617
-0.00599679
-0.227849
-0.00562672
-0.226394
-0.00494982
-0.2253
-0.00414139
-0.224541
-0.00332549
-0.223999
-0.00256777
-0.223644
-0.00189717
-0.223385
-0.00132967
-0.223174
-0.000863311
-0.223015
-0.000492359
-0.222836
-0.000207033
-0.222684
-0.0522185
-0.154511
-0.0321894
-0.162204
-0.00766121
-0.16873
0.0123025
-0.178808
0.0224877
-0.193114
0.0250006
-0.208065
0.0231643
-0.221314
0.0182505
-0.231499
0.01148
-0.237208
0.00449579
-0.238441
-0.00120044
-0.236555
-0.00485967
-0.233541
-0.00660136
-0.230818
-0.00703509
-0.228579
-0.00670472
-0.226771
-0.00594886
-0.225395
-0.00500364
-0.224437
-0.00404002
-0.223827
-0.0031461
-0.223421
-0.00236002
-0.223181
-0.00170057
-0.223014
-0.00116367
-0.222874
-0.000738873
-0.222768
-0.000411784
-0.222632
-0.000169714
-0.222515
-0.0517017
-0.0967637
-0.0347559
-0.151945
-0.0106008
-0.159264
0.0119988
-0.168426
0.0261105
-0.182431
0.0307725
-0.198886
0.0298401
-0.214741
0.0250612
-0.228125
0.0175438
-0.237563
0.00894261
-0.241655
0.00115257
-0.240794
-0.00447399
-0.23694
-0.00744718
-0.232695
-0.0083274
-0.229526
-0.00804553
-0.227238
-0.00718273
-0.225537
-0.00605452
-0.224344
-0.00489222
-0.223585
-0.00381769
-0.223155
-0.00288032
-0.222901
-0.00210244
-0.222779
-0.00147656
-0.222701
-0.000987066
-0.222626
-0.000612542
-0.222567
-0.000334903
-0.222466
-0.000135997
-0.222379
-0.0507256
-0.092323
-0.0354932
-0.0960264
-0.012749
-0.149796
0.0111237
-0.158389
0.0288699
-0.171186
0.0364221
-0.188081
0.0367107
-0.205757
0.0323736
-0.222053
0.0244258
-0.235007
0.0144603
-0.243081
0.00464567
-0.245148
-0.00328463
-0.241983
-0.0081369
-0.23625
-0.00991146
-0.231111
-0.00975517
-0.227816
-0.00873524
-0.225686
-0.00736296
-0.224228
-0.0059331
-0.223303
-0.00461604
-0.222787
-0.00347883
-0.222556
-0.00254678
-0.222456
-0.0018073
-0.222448
-0.00123757
-0.22245
-0.000807683
-0.22243
-0.000492041
-0.22241
-0.000265481
-0.222337
-0.000107333
-0.222271
-0.049467
-0.0886353
-0.0353452
-0.092471
-0.0138167
-0.0949587
0.0102525
-0.148925
0.0307316
-0.160251
0.0415423
-0.176306
0.0435207
-0.194891
0.039889
-0.213272
0.0318457
-0.229473
0.0207617
-0.241308
0.00895709
-0.247392
-0.0012389
-0.247194
-0.00847283
-0.241647
-0.0117294
-0.234433
-0.0119715
-0.228894
-0.0107306
-0.225821
-0.00901401
-0.224035
-0.00723025
-0.222931
-0.00558677
-0.222332
-0.00418312
-0.222083
-0.00304859
-0.222055
-0.00216254
-0.222101
-0.00149156
-0.222194
-0.000994702
-0.222263
-0.000636579
-0.222286
-0.000383352
-0.222292
-0.000206595
-0.222238
-8.52683e-05
-0.222186
-0.048019
-0.0859547
-0.0344635
-0.089517
-0.0140315
-0.0922562
0.00931669
-0.0940229
0.0320371
-0.150231
0.0458855
-0.164594
0.0499999
-0.182785
0.0473394
-0.202341
0.0395196
-0.220946
0.0276415
-0.236353
0.0140258
-0.246377
0.00136771
-0.249999
-0.00835186
-0.247315
-0.0136849
-0.239692
-0.0148061
-0.231598
-0.0133934
-0.226232
-0.0111318
-0.223703
-0.00886262
-0.222402
-0.00679018
-0.221728
-0.00502964
-0.221486
-0.00362773
-0.221503
-0.00255064
-0.221666
-0.00175044
-0.221842
-0.00117058
-0.222018
-0.000763056
-0.222137
-0.000482412
-0.222187
-0.000291419
-0.222208
-0.000161468
-0.222162
-7.0649e-05
-0.222116
-0.0464532
-0.0844614
-0.0329612
-0.087457
-0.0134771
-0.0900714
0.00895433
-0.0918939
0.0319016
-0.0938874
0.0494599
-0.153805
0.0559152
-0.170509
0.0544555
-0.189901
0.0471661
-0.209988
0.0348738
-0.228178
0.0197339
-0.242061
0.00466548
-0.249675
-0.00761316
-0.250737
-0.0156316
-0.245368
-0.0182264
-0.236272
-0.0170042
-0.227987
-0.0139867
-0.223377
-0.0109364
-0.221629
-0.00829366
-0.220899
-0.00606673
-0.220691
-0.00430921
-0.220804
-0.00298279
-0.221071
-0.00201568
-0.221401
-0.00133152
-0.221681
-0.000864497
-0.221917
-0.000554594
-0.222065
-0.000352436
-0.222126
-0.000221293
-0.222148
-0.00013187
-0.2221
-6.39738e-05
-0.222052
-0.0446473
-0.0842393
-0.0309606
-0.086462
-0.0122582
-0.0886758
0.00924248
-0.0903596
0.0319005
-0.0918928
0.0505594
-0.0949869
0.0610901
-0.15898
0.0610674
-0.177121
0.0544739
-0.197209
0.042178
-0.217292
0.0258932
-0.234338
0.00865677
-0.246052
-0.00629463
-0.250993
-0.0170484
-0.249321
-0.0220105
-0.241584
-0.0216361
-0.23164
-0.0180009
-0.223973
-0.013712
-0.220601
-0.0101752
-0.219748
-0.00734627
-0.219619
-0.00512662
-0.219873
-0.00347168
-0.220315
-0.00228951
-0.220797
-0.00147225
-0.221261
-0.000932232
-0.221613
-0.000589428
-0.221882
-0.000379484
-0.222038
-0.000253842
-0.222093
-0.000175813
-0.222104
-0.000118791
-0.222046
-6.51056e-05
-0.221986
-0.0427178
-0.0855796
-0.0284515
-0.0867484
-0.010461
-0.0882593
0.0101594
-0.0895928
0.0322543
-0.0907134
0.0514762
-0.0928096
0.0632818
-0.0971786
0.066952
-0.164865
0.0612961
-0.183943
0.0492489
-0.20428
0.0322387
-0.223637
0.0131238
-0.238805
-0.00453702
-0.24781
-0.0178974
-0.250144
-0.0257542
-0.245577
-0.0270217
-0.236198
-0.023414
-0.226227
-0.0176847
-0.22
-0.0126362
-0.21814
-0.00891723
-0.218177
-0.00611361
-0.218632
-0.00403517
-0.21931
-0.00257256
-0.220032
-0.00158632
-0.220683
-0.00095479
-0.221238
-0.00057393
-0.221629
-0.000359273
-0.221902
-0.000247479
-0.222044
-0.000190785
-0.222078
-0.000156549
-0.222066
-0.000121906
-0.221989
-7.35662e-05
-0.221913
-0.0404909
-0.088359
-0.0256245
-0.0884065
-0.00819958
-0.0890098
0.0116767
-0.0897765
0.0330665
-0.090405
0.0523953
-0.0916324
0.0652445
-0.0947723
0.0697404
-0.099967
0.0673293
-0.170898
0.0559613
-0.190655
0.0385742
-0.210616
0.0178925
-0.228406
-0.00228258
-0.241059
-0.0186184
-0.247089
-0.0291439
-0.246754
-0.0327487
-0.23985
-0.0299936
-0.229619
-0.0232764
-0.220635
-0.0161522
-0.216484
-0.0108977
-0.21616
-0.00729544
-0.216995
-0.00468711
-0.21798
-0.00286731
-0.219015
-0.00166328
-0.219955
-0.000917665
-0.220721
-0.000491241
-0.221321
-0.000275316
-0.221713
-0.000186915
-0.221963
-0.000164407
-0.22207
-0.000165532
-0.222069
-0.000163049
-0.222025
-0.000140167
-0.221922
-8.82669e-05
-0.221825
-0.0379015
-0.0925773
-0.0224657
-0.0915178
-0.00555173
-0.0910544
0.0136995
-0.0910326
0.0343473
-0.0910573
0.053436
-0.0914457
0.0669888
-0.0933768
0.0722612
-0.0972931
0.0703648
-0.103003
0.0618173
-0.176754
0.0447365
-0.196818
0.0229297
-0.215653
0.000413209
-0.231102
-0.0187985
-0.240879
-0.0321518
-0.244081
-0.038439
-0.241064
-0.037213
-0.232631
-0.0303999
-0.222495
-0.0212856
-0.215502
-0.013657
-0.213725
-0.00871161
-0.214744
-0.0054347
-0.216247
-0.00316817
-0.217679
-0.00169134
-0.218987
-0.00080078
-0.220072
-0.000319748
-0.220892
-0.000106396
-0.22149
-5.3145e-05
-0.221847
-8.03444e-05
-0.222047
-0.00013342
-0.222103
-0.000177568
-0.222055
-0.00019361
-0.221971
-0.000171353
-0.221839
-0.000107521
-0.221717
-0.034942
-0.0981485
-0.0190388
-0.0960042
-0.00261917
-0.0944503
0.0161332
-0.0934881
0.0360711
-0.0927565
0.0547196
-0.0923409
0.0686033
-0.0930602
0.0744392
-0.0955548
0.0731329
-0.100061
0.065047
-0.106232
0.0500395
-0.182057
0.0278565
-0.201745
0.00357013
-0.21881
-0.0184392
-0.231461
-0.0346905
-0.23834
-0.0435667
-0.238954
-0.0445481
-0.233729
-0.0385269
-0.224504
-0.0281913
-0.21559
-0.0177903
-0.211368
-0.0105808
-0.211856
-0.00626147
-0.213917
-0.00346679
-0.215949
-0.00164784
-0.217723
-0.000579388
-0.219208
-3.12356e-05
-0.220361
0.000174942
-0.221173
0.000178224
-0.221721
8.17758e-05
-0.222009
-4.38668e-05
-0.222136
-0.000154053
-0.222126
-0.000224383
-0.222024
-0.000244707
-0.221898
-0.000212045
-0.221734
-0.000129608
-0.221587
-0.0292687
-0.160307
-0.0154367
-0.101751
0.000532254
-0.0991556
0.018851
-0.0971681
0.0381544
-0.0955714
0.0562398
-0.0942767
0.0700773
-0.0938149
0.0762363
-0.0948573
0.0755209
-0.0979428
0.0679431
-0.102957
0.053353
-0.109546
0.0321624
-0.186363
0.00656986
-0.204744
-0.017628
-0.219621
-0.0366949
-0.229457
-0.0482767
-0.23363
-0.051539
-0.231963
-0.0470253
-0.22523
-0.0364908
-0.216204
-0.0237078
-0.209672
-0.0133941
-0.208555
-0.00724681
-0.21087
-0.00371511
-0.213668
-0.00150826
-0.216088
-0.000217264
-0.218085
0.000410492
-0.21965
0.000603565
-0.220789
0.000539013
-0.221534
0.000348165
-0.221987
0.000123597
-0.222176
-7.72461e-05
-0.222213
-0.000222787
-0.222128
-0.000300924
-0.221968
-0.000310939
-0.221799
-0.000258677
-0.221605
-0.00015247
-0.221435
-0.0229301
-0.17815
-0.0094991
-0.166245
0.00374949
-0.104968
0.021734
-0.102039
0.0404692
-0.0994828
0.0579644
-0.097296
0.0715302
-0.0957296
0.0776833
-0.0952619
0.0774488
-0.0967852
0.0704898
-0.100489
0.056305
-0.105909
0.0355326
-0.112916
0.00957065
-0.189364
-0.0167727
-0.2056
-0.0382628
-0.218053
-0.0524565
-0.225277
-0.0580728
-0.227096
-0.0553618
-0.223626
-0.0455169
-0.216204
-0.0312984
-0.208614
-0.0177159
-0.20535
-0.00867966
-0.207122
-0.003901
-0.210685
-0.00120997
-0.213967
0.000327743
-0.216633
0.00105227
-0.218727
0.00122527
-0.220272
0.00106924
-0.22132
0.000753221
-0.221939
0.00039546
-0.222259
7.20351e-05
-0.222326
-0.000175716
-0.22226
-0.000332724
-0.222096
-0.000399475
-0.221879
-0.000386566
-0.221671
-0.000306936
-0.221451
-0.000174157
-0.221261
-0.0163638
-0.196863
-0.00344912
-0.1842
0.00850525
-0.171
0.0246036
-0.107838
0.0428252
-0.104395
0.0597134
-0.101232
0.0727949
-0.0985607
0.0787201
-0.0967664
0.0788928
-0.0967058
0.0726376
-0.0989329
0.0588118
-0.102996
0.0385789
-0.108956
0.0129283
-0.116274
-0.0151085
-0.191028
-0.039183
-0.204679
-0.0560308
-0.214479
-0.063997
-0.219353
-0.0632138
-0.219244
-0.0545987
-0.214544
-0.0400073
-0.207495
-0.023739
-0.202591
-0.0111034
-0.202926
-0.00410479
-0.206918
-0.000696009
-0.211199
0.00112486
-0.214764
0.00195361
-0.217534
0.00209582
-0.219597
0.00182215
-0.221025
0.00134041
-0.221907
0.000806724
-0.22235
0.000318812
-0.222506
-6.66301e-05
-0.222435
-0.00033013
-0.222263
-0.000473343
-0.222022
-0.000511617
-0.221754
-0.000464709
-0.221514
-0.000352684
-0.221272
-0.000192444
-0.221068
-0.0100491
-0.214844
0.00222123
-0.202534
0.0131095
-0.188804
0.0280722
-0.174469
0.0450007
-0.110013
0.0613041
-0.105985
0.0738226
-0.10226
0.0793884
-0.099229
0.0798002
-0.0976738
0.074338
-0.0984063
0.0608284
-0.10095
0.0411054
-0.105523
0.0159622
-0.11199
-0.0121207
-0.119261
-0.0391051
-0.191106
-0.0586476
-0.202063
-0.069166
-0.20931
-0.0703599
-0.212207
-0.0632473
-0.210596
-0.0491201
-0.205432
-0.0311808
-0.200053
-0.0149261
-0.198768
-0.00469208
-0.202339
9.31137e-05
-0.207707
0.00225415
-0.212328
0.00318821
-0.215998
0.00328978
-0.218728
0.00286168
-0.220637
0.00216793
-0.221852
0.00140211
-0.222502
0.000696424
-0.222728
0.000126232
-0.222699
-0.000280511
-0.222484
-0.000526513
-0.22221
-0.000632816
-0.221901
-0.00062735
-0.221592
-0.000538733
-0.221328
-0.000391259
-0.221074
-0.000205897
-0.220862
-0.00446337
-0.230749
0.00714232
-0.219765
0.0170183
-0.206442
0.030995
-0.191727
0.0469181
-0.176386
0.0624872
-0.111196
0.0744341
-0.106597
0.0796752
-0.102546
0.0802439
-0.0996727
0.075464
-0.0987998
0.0622497
-0.0998275
0.043003
-0.102847
0.0184614
-0.108022
-0.0094339
-0.114676
-0.0370668
-0.1213
-0.0604566
-0.189297
-0.0733942
-0.197834
-0.0766109
-0.203059
-0.0711375
-0.204317
-0.0579999
-0.201716
-0.0394517
-0.197161
-0.0201944
-0.194785
-0.00611073
-0.197349
0.001022
-0.203268
0.00382348
-0.209277
0.00485325
-0.213993
0.00488879
-0.217597
0.00427443
-0.220141
0.00330661
-0.221776
0.00224193
-0.222692
0.00124806
-0.223054
0.000432186
-0.223034
-0.000167086
-0.222812
-0.000551332
-0.222459
-0.000748608
-0.222094
-0.000797225
-0.221731
-0.000736947
-0.221393
-0.000601207
-0.221118
-0.000419638
-0.22086
-0.000213226
-0.220649
7.26564e-05
-0.243099
0.0109277
-0.234535
0.0200601
-0.222807
0.033061
-0.208508
0.0478053
-0.192614
0.0626478
-0.176547
0.0745063
-0.111268
0.079588
-0.10651
0.0802321
-0.102534
0.0759291
-0.100138
0.0631214
-0.0996715
0.0442573
-0.101082
0.02031
-0.104696
-0.00715831
-0.110298
-0.0350257
-0.116717
-0.0595859
-0.12217
-0.0767737
-0.185917
-0.0817688
-0.192677
-0.0780042
-0.196192
-0.0662006
-0.196116
-0.0478568
-0.193311
-0.0266103
-0.190745
-0.00862258
-0.192273
0.00176557
-0.198093
0.00587348
-0.205318
0.007062
-0.211486
0.00700868
-0.216113
0.0061549
-0.219478
0.00485256
-0.221687
0.00340141
-0.222935
0.00203263
-0.223477
0.000889762
-0.223511
3.29934e-05
-0.223234
-0.000537513
-0.222826
-0.000857024
-0.222351
-0.000977437
-0.221914
-0.0009529
-0.221515
-0.000829613
-0.221165
-0.000647253
-0.22089
-0.000435137
-0.220638
-0.000213261
-0.220436
0.00364229
-0.250901
0.0134717
-0.245643
0.0219784
-0.236453
0.0340511
-0.223797
0.0477261
-0.208429
0.0615702
-0.191537
0.0730011
-0.175042
0.0790802
-0.11076
0.0797316
-0.106009
0.0755687
-0.102174
0.0632851
-0.100302
0.0448007
-0.100215
0.0214562
-0.102228
-0.0054351
-0.106419
-0.0331757
-0.112147
-0.0583318
-0.117971
-0.0770308
-0.121913
-0.0857706
-0.181915
-0.0836253
-0.187055
-0.0734035
-0.188989
-0.0558501
-0.188123
-0.0336091
-0.186312
-0.0122797
-0.187088
0.002033
-0.192541
0.00829884
-0.200518
0.00993739
-0.208193
0.00975697
-0.214234
0.00863759
-0.218595
0.00691604
-0.221541
0.00498348
-0.223269
0.00312562
-0.224028
0.0015523
-0.224139
0.000350363
-0.223829
-0.000470847
-0.223301
-0.000955354
-0.222728
-0.00117196
-0.222157
-0.00119414
-0.221672
-0.00108481
-0.22126
-0.000898138
-0.220914
-0.000672588
-0.220652
-0.000435356
-0.220416
-0.000206049
-0.22023
0.00603747
-0.253808
0.0150182
-0.252447
0.0226845
-0.246349
0.0338932
-0.236295
0.0464907
-0.222562
0.0593863
-0.206245
0.0703792
-0.188915
0.0769809
-0.172942
0.0786325
-0.109661
0.074357
-0.104797
0.0626723
-0.101561
0.0446646
-0.100165
0.021845
-0.100604
-0.0043754
-0.103288
-0.0316899
-0.107905
-0.0569934
-0.113486
-0.0767051
-0.118297
-0.0868976
-0.120786
-0.0878158
-0.177725
-0.0794763
-0.180983
-0.0630178
-0.181821
-0.0406242
-0.181108
-0.0168428
-0.181749
0.00156205
-0.186617
0.0108604
-0.195102
0.0135498
-0.204131
0.0132932
-0.21173
0.0118435
-0.21744
0.00965101
-0.22133
0.00711376
-0.223672
0.00463237
-0.224776
0.0024901
-0.224966
0.000827988
-0.224617
-0.000331861
-0.223968
-0.00103954
-0.223217
-0.00138613
-0.222514
-0.00147034
-0.22188
-0.00137818
-0.221379
-0.00118271
-0.220975
-0.000936279
-0.22065
-0.000673435
-0.220414
-0.000420396
-0.220202
-0.000191749
-0.220038
0.00755784
-0.253284
0.0155977
-0.254387
0.0223914
-0.252154
0.0325513
-0.245007
0.044118
-0.233922
0.0560668
-0.219242
0.0665567
-0.202423
0.0735204
-0.185454
0.0756217
-0.169932
0.0722983
-0.107603
0.0611579
-0.103283
0.0437524
-0.100649
0.0214855
-0.099806
-0.00401064
-0.100968
-0.0307001
-0.104278
-0.0557434
-0.109155
-0.0759457
-0.114245
-0.0874385
-0.117756
-0.0894034
-0.119199
-0.0842666
-0.172935
-0.0692601
-0.17474
-0.0471073
-0.175338
-0.0218676
-0.176083
0.000213822
-0.1804
0.013293
-0.18905
0.0177447
-0.199297
0.01773
-0.208567
0.0159395
-0.215826
0.0132051
-0.220994
0.00996413
-0.224181
0.00668871
-0.225728
0.00380434
-0.22609
0.00152467
-0.225663
-9.25431e-05
-0.224856
-0.00110365
-0.223904
-0.00162679
-0.222976
-0.0017946
-0.222189
-0.00172431
-0.221534
-0.00151525
-0.221047
-0.00123788
-0.220674
-0.000938637
-0.220385
-0.000649962
-0.220185
-0.000390622
-0.220003
-0.000171234
-0.219867
0.00813428
-0.249227
0.0149923
-0.252678
0.0212687
-0.253264
0.0301165
-0.24972
0.0406542
-0.241543
0.0515999
-0.229455
0.0615315
-0.214217
0.0685928
-0.197495
0.0711898
-0.181022
0.0683673
-0.166001
0.0586907
-0.105135
0.0419541
-0.101485
0.0203833
-0.0995468
-0.00440762
-0.099409
-0.0302527
-0.101416
-0.0546995
-0.105321
-0.0748701
-0.11023
-0.0874105
-0.114273
-0.0902771
-0.116883
-0.0869923
-0.116473
-0.074326
-0.167869
-0.0528899
-0.168958
-0.0268096
-0.170396
-0.00180814
-0.174061
0.015283
-0.18239
0.0223502
-0.193655
0.0230108
-0.204578
0.0210247
-0.213653
0.0177415
-0.220362
0.0137039
-0.224734
0.00947435
-0.226966
0.00563013
-0.227554
0.00252823
-0.227094
0.000287511
-0.226043
-0.00113867
-0.224821
-0.00190304
-0.223627
-0.00218436
-0.222586
-0.00214301
-0.221771
-0.00191403
-0.221135
-0.00159338
-0.220691
-0.00124294
-0.220369
-0.000905454
-0.22013
-0.000602819
-0.219973
-0.000347879
-0.219826
-0.000145489
-0.219721
0.0080318
-0.243698
0.0135112
-0.247746
0.0189254
-0.250335
0.0266834
-0.249831
0.0359915
-0.245057
0.0460577
-0.236001
0.0553184
-0.223242
0.062296
-0.20792
0.0653414
-0.191647
0.0631381
-0.175793
0.0547149
-0.162025
0.0391755
-0.102357
0.0183886
-0.0994901
-0.00552821
-0.0984263
-0.0304257
-0.099236
-0.0540269
-0.102088
-0.0736997
-0.106492
-0.0867849
-0.110856
-0.090574
-0.113976
-0.0888215
-0.115053
-0.0779742
-0.112825
-0.0576722
-0.163086
-0.0313409
-0.164426
-0.00425705
-0.167947
0.0167627
-0.175541
0.027105
-0.187145
0.0290555
-0.1997
0.0270938
-0.210647
0.0233538
-0.219265
0.0184976
-0.225156
0.0131628
-0.228422
0.0081344
-0.229471
0.00395581
-0.228981
0.000871817
-0.227678
-0.0011281
-0.226053
-0.0022261
-0.224498
-0.00266329
-0.223148
-0.00266085
-0.222068
-0.00240386
-0.221281
-0.0020232
-0.220706
-0.00160271
-0.220331
-0.00119823
-0.220077
-0.000837799
-0.219895
-0.000535004
-0.219786
-0.000294249
-0.219677
-0.000116384
-0.219605
0.00748784
-0.239269
0.0118089
-0.241995
0.0161246
-0.244945
0.0226053
-0.246257
0.0305638
-0.244404
0.039533
-0.238532
0.0480579
-0.228741
0.0547739
-0.21572
0.0581243
-0.200703
0.0566803
-0.185189
0.049427
-0.170505
0.0355999
-0.158449
0.0154918
-0.09946
-0.00740421
-0.0976141
-0.0312234
-0.0976286
-0.0536418
-0.0996211
-0.0725025
-0.103286
-0.0856361
-0.107641
-0.0903812
-0.111049
-0.0897904
-0.113007
-0.0805913
-0.112436
-0.0619567
-0.10854
-0.0353398
-0.159087
-0.00660962
-0.162074
0.0175747
-0.168759
0.0317585
-0.180194
0.0356844
-0.193774
0.0341032
-0.206709
0.0300583
-0.217352
0.0244566
-0.225224
0.01793
-0.229923
0.0114761
-0.231764
0.00593411
-0.231449
0.0017376
-0.229847
-0.00104335
-0.227763
-0.00260803
-0.225671
-0.00326311
-0.223898
-0.00331419
-0.222495
-0.00301809
-0.221454
-0.00255498
-0.220749
-0.00203878
-0.22027
-0.00154376
-0.219986
-0.00110546
-0.219809
-0.000740116
-0.21969
-0.00044993
-0.21963
-0.00023362
-0.21956
-8.56562e-05
-0.219519
0.00677602
-0.236733
0.0101629
-0.237623
0.013506
-0.239377
0.018563
-0.240903
0.0249898
-0.240683
0.0325571
-0.237428
0.0400945
-0.230569
0.0463278
-0.220294
0.0497938
-0.20739
0.0490449
-0.193068
0.0430499
-0.178812
0.0309982
-0.165904
0.0129184
-0.155876
-0.00987461
-0.0969896
-0.0323704
-0.0964671
-0.0534882
-0.0977821
-0.0712735
-0.10085
-0.084012
-0.10491
-0.0897225
-0.108299
-0.0899527
-0.110887
-0.0821509
-0.111448
-0.0650915
-0.109302
-0.0400646
-0.103815
-0.00900207
-0.156695
0.018212
-0.162711
0.0359582
-0.172959
0.0426091
-0.187119
0.041893
-0.201564
0.0377937
-0.214445
0.0316244
-0.224519
0.0239407
-0.231234
0.0158628
-0.23431
0.00859909
-0.234429
0.00294527
-0.232657
-0.000868328
-0.230022
-0.00306297
-0.227308
-0.00402463
-0.22491
-0.00415247
-0.22306
-0.00380237
-0.221711
-0.00322582
-0.220783
-0.00257921
-0.220209
-0.00196159
-0.219852
-0.00141916
-0.219672
-0.00097096
-0.219578
-0.000617535
-0.219522
-0.000353814
-0.21951
-0.00016967
-0.219476
-5.50418e-05
-0.219464
0.00607367
-0.235401
0.00871908
-0.235289
0.0113142
-0.235431
0.0150869
-0.235901
0.0199365
-0.23585
0.0258679
-0.233994
0.0321057
-0.229439
0.0375402
-0.221781
0.0408625
-0.211363
0.0406398
-0.198985
0.0358329
-0.185851
0.0256112
-0.173425
0.00986174
-0.162847
-0.010583
-0.155167
-0.0335856
-0.0957745
-0.0532757
-0.0966797
-0.0698413
-0.0992143
-0.0820421
-0.10282
-0.08841
-0.106222
-0.0891955
-0.109057
-0.0826208
-0.110417
-0.0671411
-0.109398
-0.043605
-0.105761
-0.013791
-0.0990265
0.018474
-0.156957
0.0397086
-0.166461
0.0494674
-0.179817
0.0501776
-0.195403
0.0463504
-0.210121
0.0398875
-0.222708
0.0312656
-0.231844
0.021541
-0.236913
0.0122215
-0.237932
0.0046144
-0.236098
-0.000623413
-0.232902
-0.00364503
-0.22944
-0.00500637
-0.226326
-0.00524252
-0.22382
-0.00481913
-0.222043
-0.00408631
-0.22085
-0.00326147
-0.220101
-0.00247787
-0.219692
-0.00179571
-0.219475
-0.00123785
-0.219405
-0.000802145
-0.219393
-0.000479115
-0.219397
-0.000252533
-0.219427
-0.000106147
-0.219425
-2.62734e-05
-0.219438
0.00541886
-0.234523
0.0075026
-0.234185
0.00955438
-0.23353
0.012383
-0.232727
0.0158844
-0.231849
0.0202009
-0.230183
0.0249318
-0.22682
0.0292716
-0.22117
0.0321199
-0.213039
0.0321819
-0.202905
0.0283845
-0.191536
0.019945
-0.180184
0.00651257
-0.170076
-0.0112059
-0.162224
-0.0317465
-0.157006
-0.0527749
-0.0962753
-0.0681396
-0.0983814
-0.0797143
-0.101542
-0.086438
-0.104792
-0.0877313
-0.107686
-0.0821439
-0.109533
-0.0681187
-0.109439
-0.0460974
-0.106906
-0.0174524
-0.1021
0.0145059
-0.0950584
0.043119
-0.160368
0.0558692
-0.172863
0.0586214
-0.188261
0.0554122
-0.204465
0.0489504
-0.219184
0.0396926
-0.231135
0.0285699
-0.238873
0.0171129
-0.241804
0.00709721
-0.240415
-0.000195253
-0.236526
-0.00445302
-0.232094
-0.00632806
-0.228118
-0.00668143
-0.224887
-0.00615489
-0.222484
-0.00520563
-0.220924
-0.00413626
-0.219976
-0.0031273
-0.219452
-0.00225732
-0.219231
-0.00155368
-0.219159
-0.00101036
-0.219197
-0.000611651
-0.219261
-0.000333453
-0.219316
-0.000152039
-0.219381
-4.71549e-05
-0.219404
-1.06736e-06
-0.219437
0.00479955
-0.233795
0.00646929
-0.23349
0.00812081
-0.232751
0.0103202
-0.231467
0.0128996
-0.229742
0.0159302
-0.227578
0.0192383
-0.224489
0.0223635
-0.219912
0.0244802
-0.213531
0.0245314
-0.205388
0.0215192
-0.19604
0.0146598
-0.186251
0.00353364
-0.177205
-0.0116014
-0.16968
-0.0294795
-0.164491
-0.0484449
-0.161336
-0.0661469
-0.0982679
-0.0770717
-0.101024
-0.0838835
-0.104097
-0.0855941
-0.106929
-0.0808427
-0.108988
-0.0681291
-0.109523
-0.0475205
-0.108016
-0.0201066
-0.104252
0.0110905
-0.0986844
0.04104
-0.0929794
0.0618044
-0.166303
0.0667455
-0.180987
0.0646059
-0.197455
0.0584459
-0.213961
0.0488578
-0.228349
0.0365891
-0.239154
0.0232462
-0.245007
0.010694
-0.245401
0.000809074
-0.241419
-0.00538632
-0.235593
-0.00815128
-0.23027
-0.00863475
-0.226165
-0.00793314
-0.223109
-0.00668075
-0.221009
-0.0052726
-0.219787
-0.00395619
-0.219147
-0.00283322
-0.218876
-0.00193517
-0.218849
-0.00125032
-0.218919
-0.00075396
-0.219055
-0.000411494
-0.219183
-0.000189279
-0.219278
-5.8898e-05
-0.219369
3.91423e-06
-0.219409
1.84879e-05
-0.219456
0.00420687
-0.233214
0.00556972
-0.232895
0.00692035
-0.232289
0.00867915
-0.23111
0.0106895
-0.229257
0.0129075
-0.22672
0.0151764
-0.223516
0.0172489
-0.219375
0.0185925
-0.214024
0.0184296
-0.207429
0.0159448
-0.199814
0.0103818
-0.191762
0.00133566
-0.184053
-0.0112499
-0.177557
-0.0266262
-0.172533
-0.0435001
-0.169436
-0.0600624
-0.167421
-0.074198
-0.101142
-0.0809082
-0.103999
-0.0829561
-0.106735
-0.0788416
-0.10893
-0.0671822
-0.109935
-0.0478521
-0.109191
-0.0217501
-0.106373
0.0086578
-0.101819
0.038769
-0.0964134
0.062242
-0.093417
0.074242
-0.173799
0.0735217
-0.189903
0.0679156
-0.206925
0.0583684
-0.223471
0.0452325
-0.236992
0.0300864
-0.245994
0.0152505
-0.249563
0.0025709
-0.247163
-0.00609699
-0.240709
-0.0104282
-0.233316
-0.0113127
-0.227592
-0.0103387
-0.22376
-0.00864615
-0.221144
-0.00676715
-0.219514
-0.00502712
-0.218716
-0.00356163