/*--------------------------------*- C++ -*----------------------------------*\
| =========                 |                                                 |
| \\      /  F ield         | OpenFOAM: The Open Source CFD Toolbox           |
|  \\    /   O peration     | Version:  2506                                  |
|   \\  /    A nd           | Website:  www.openfoam.com                      |
|    \\/     M anipulation  |                                                 |
\*---------------------------------------------------------------------------*/
FoamFile
{
    version     2.0;
    format      ascii;
    arch        "LSB;label=32;scalar=64";
    class       pointScalarField;
    location    "90.013419639809229";
    object      streamFunction;
}
// * * * * * * * * * * * * * * * * * * * * * * * * * * * * * * * * * * * * * //

dimensions      [0 3 -1 0 0 0 0];

internalField   nonuniform List<scalar> 
19880
(
0
-0.0712203
-0.144594
-0.213463
-0.271063
-0.309665
0
-0.0673828
-0.140534
-0.206059
-0.255845
-0.281404
0
-0.0519288
-0.113154
-0.164891
-0.197481
-0.204944
0
-0.0300475
-0.0721878
-0.103633
-0.114419
-0.0976415
0
-0.0130147
-0.0347202
-0.0444959
-0.0270834
0.0255801
0
-0.00869825
-0.0132727
0.010645
0.0742292
0.169136
0
-0.0712203
-0.144594
-0.213463
-0.271063
-0.309665
0
-0.0673828
-0.140534
-0.206059
-0.255845
-0.281404
0
-0.0519288
-0.113154
-0.164891
-0.197481
-0.204944
0
-0.0300475
-0.0721878
-0.103633
-0.114419
-0.0976415
0
-0.0130147
-0.0347202
-0.0444959
-0.0270834
0.0255801
0
-0.00869825
-0.0132727
0.010645
0.0742292
0.169136
3e-07
1.38778e-17
0
-3.4e-08
0
0.107136
0.0702085
0.0293588
0.0006927
-0.0106842
0.24673
0.201859
0.138907
0.0708174
0.0149582
0.381743
0.336722
0.269713
0.183811
0.0896646
0.515011
0.470644
0.401799
0.309178
0.19549
0.645067
0.601738
0.532032
0.435693
0.313758
3e-07
1.38778e-17
0
-3.4e-08
0
0.107136
0.0702085
0.0293588
0.0006927
-0.0106842
0.24673
0.201859
0.138907
0.0708174
0.0149582
0.381743
0.336722
0.269713
0.183811
0.0896646
0.515011
0.470644
0.401799
0.309178
0.19549
0.645067
0.601738
0.532032
0.435693
0.313758
-2.92e-07
8e-09
1.78e-07
2.6e-07
3e-07
0.119401
0.131939
0.139394
0.140386
0.130433
0.2276
0.253571
0.270863
0.278455
0.271354
0.328172
0.367751
0.395561
0.409099
0.405186
0.423148
0.476051
0.514223
0.534938
0.535985
0.514321
0.580433
0.628994
0.657282
0.663179
-2.92e-07
8e-09
1.78e-07
2.6e-07
3e-07
0.119401
0.131939
0.139394
0.140386
0.130433
0.2276
0.253571
0.270863
0.278455
0.271354
0.328172
0.367751
0.395561
0.409099
0.405186
0.423148
0.476051
0.514223
0.534938
0.535985
0.514321
0.580433
0.628994
0.657282
0.663179
0.0249934
0.0214047
0.0173233
0.0126119
0.00727421
-9.2e-08
0.134939
0.111928
0.0876021
0.0612896
0.0320039
-9.2e-08
0.241903
0.199946
0.155961
0.108828
0.0573018
-9.2e-08
0.342857
0.282916
0.220346
0.153706
0.0815726
8e-09
0.43487
0.3583
0.27855
0.193892
0.102484
-3.92e-07
0.0249934
0.0214047
0.0173233
0.0126119
0.00727421
-9.2e-08
0.134939
0.111928
0.0876021
0.0612896
0.0320039
-9.2e-08
0.241903
0.199946
0.155961
0.108828
0.0573018
-9.2e-08
0.342857
0.282916
0.220346
0.153706
0.0815726
8e-09
0.43487
0.3583
0.27855
0.193892
0.102484
-3.92e-07
-0.459193
-0.376072
-0.290269
-0.20032
-0.104647
-8.4e-07
-0.381585
-0.312854
-0.241957
-0.167557
-0.0882618
-9.2e-08
-0.291049
-0.238688
-0.184726
-0.128063
-0.0676257
8e-09
-0.191153
-0.156568
-0.120999
-0.083654
-0.0436092
-9.2e-08
-0.0847746
-0.0690026
-0.0529345
-0.03621
-0.0181136
-9.2e-08
-0.459193
-0.376072
-0.290269
-0.20032
-0.104647
-8.4e-07
-0.381585
-0.312854
-0.241957
-0.167557
-0.0882618
-9.2e-08
-0.291049
-0.238688
-0.184726
-0.128063
-0.0676257
8e-09
-0.191153
-0.156568
-0.120999
-0.083654
-0.0436092
-9.2e-08
-0.0847746
-0.0690026
-0.0529345
-0.03621
-0.0181136
-9.2e-08
-0.522649
-0.568191
-0.593321
-0.5964
-0.576142
-0.426801
-0.46242
-0.480526
-0.479679
-0.457743
-0.32813
-0.3537
-0.365
-0.36034
-0.336899
-0.224972
-0.240117
-0.244778
-0.238412
-0.214547
-0.116281
-0.121607
-0.118971
-0.109866
-0.0882673
1.6e-07
-4.4e-07
9e-08
9e-08
9e-08
-0.522649
-0.568191
-0.593321
-0.5964
-0.576142
-0.426801
-0.46242
-0.480526
-0.479679
-0.457743
-0.32813
-0.3537
-0.365
-0.36034
-0.336899
-0.224972
-0.240117
-0.244778
-0.238412
-0.214547
-0.116281
-0.121607
-0.118971
-0.109866
-0.0882673
1.6e-07
-4.4e-07
9e-08
9e-08
9e-08
-0.531735
-0.462893
-0.37136
-0.264892
-0.159611
-0.413677
-0.346738
-0.260516
-0.16635
-0.0862524
-0.292871
-0.227811
-0.149534
-0.0747777
-0.0251698
-0.170339
-0.110057
-0.0510572
-0.00849593
0.00886507
-0.0540504
-0.0183729
0.00363913
0.012947
0.0121819
9e-08
9e-08
9e-08
9e-08
9e-08
-0.531735
-0.462893
-0.37136
-0.264892
-0.159611
-0.413677
-0.346738
-0.260516
-0.16635
-0.0862524
-0.292871
-0.227811
-0.149534
-0.0747777
-0.0251698
-0.170339
-0.110057
-0.0510572
-0.00849593
0.00886507
-0.0540504
-0.0183729
0.00363913
0.012947
0.0121819
9e-08
9e-08
9e-08
9e-08
9e-08
9e-08
0.00336
0.0013555
-0.0181918
-0.0581563
-0.10922
9e-08
-0.01497
-0.0330254
-0.0606292
-0.0987454
-0.140652
9e-08
-0.0397765
-0.0821148
-0.129316
-0.177981
-0.219774
0
-0.0613252
-0.123397
-0.185279
-0.24129
-0.284378
9e-08
0.00336
0.0013555
-0.0181918
-0.0581563
-0.10922
9e-08
-0.01497
-0.0330254
-0.0606292
-0.0987454
-0.140652
9e-08
-0.0397765
-0.0821148
-0.129316
-0.177981
-0.219774
0
-0.0613252
-0.123397
-0.185279
-0.24129
-0.284378
-0.31448
-0.213249
-0.0390186
0.147221
0.325253
0.492215
0.627082
0.685401
0.649498
0.538068
0.391444
0.241275
0.0952845
-0.0455345
-0.184938
-0.320731
-0.437523
-0.508231
-0.51571
-0.459472
-0.353911
-0.22297
-0.0879534
0.0453536
0.175887
0.304896
0.429321
0.536771
0.60963
0.635022
0.610122
0.540841
0.438952
0.318103
0.191475
0.0648475
-0.0599835
-0.179945
-0.287241
-0.369938
-0.416605
-0.421197
-0.38459
-0.313416
-0.217273
-0.10593
0.0116996
0.129779
0.24509
0.351614
0.440292
0.501269
0.527289
0.516095
0.47063
0.397533
0.30491
0.200515
0.091773
-0.016403
-0.1194
-0.209192
-0.277203
-0.316256
-0.322618
-0.296718
-0.242663
-0.166857
-0.0763351
0.0219539
0.12137
0.217781
0.303945
0.371873
0.414996
0.429431
0.414589
0.373042
0.309734
0.230775
0.142817
0.0530553
-0.034064
-0.111356
-0.171287
-0.208292
-0.21936
-0.20429
-0.165531
-0.107518
-0.0358989
0.0421592
0.120142
0.192378
0.250847
0.28989
0.306567
0.300829
0.273976
0.395172
-0.2695
-0.154642
0.0295628
0.218099
0.389693
0.548258
0.687465
0.765667
0.753743
0.660932
0.52408
0.376783
0.230348
0.0873085
-0.0539785
-0.190357
-0.306399
-0.376551
-0.38475
-0.329972
-0.225675
-0.0950614
0.0396386
0.171234
0.2986
0.424108
0.545964
0.652943
0.727366
0.755784
0.734097
0.667639
0.568062
0.44916
0.323603
0.196988
0.0713325
-0.0497515
-0.157626
-0.240388
-0.287186
-0.29246
-0.256998
-0.18728
-0.0927464
0.0168726
0.132677
0.24877
0.361665
0.466441
0.554862
0.616854
0.644681
0.635513
0.591803
0.519973
0.427952
0.323447
0.21412
0.105139
0.000902
-0.0897718
-0.158236
-0.197616
-0.204361
-0.179003
-0.12563
-0.0506645
0.0386129
0.135254
0.233165
0.327801
0.412604
0.479979
0.523137
0.537923
0.523515
0.482333
0.419126
0.339806
0.251086
0.160709
0.072562
-0.0059508
-0.0669614
-0.104958
-0.117076
-0.103146
-0.0656236
-0.0089885
0.0609694
0.137462
0.214078
0.284792
0.341933
0.379706
0.394911
0.387414
0.358561
0.312231
-0.183464
-0.0679695
0.108938
0.289178
0.449848
0.593627
0.727194
0.82173
0.838486
0.774297
0.656636
0.518215
0.375467
0.233763
0.0936612
-0.0411988
-0.156643
-0.229724
-0.244242
-0.197036
-0.100004
0.025379
0.157032
0.285018
0.407472
0.527306
0.644571
0.750401
0.82798
0.862737
0.848968
0.790383
0.697694
0.584314
0.462213
0.337522
0.212958
0.0923842
-0.0155818
-0.0993479
-0.148495
-0.157338
-0.126313
-0.0614369
0.0286212
0.134372
0.246834
0.359585
0.469056
0.571345
0.659354
0.723267
0.754652
0.74983
0.710407
0.642135
0.552666
0.449833
0.341303
0.232456
0.127875
0.0364533
-0.0330269
-0.0737987
-0.0823747
-0.0592368
-0.00820859
0.0644562
0.151449
0.245669
0.341227
0.433453
0.516711
0.583788
0.627649
0.643779
0.630982
0.591276
0.529154
0.450404
0.361921
0.271416
0.182796
0.103272
0.0410583
0.00163351
-0.0121618
-6.219e-05
0.035568
0.0902125
0.158053
0.232533
0.307362
0.376353
0.432342
0.469274
0.483602
0.474942
0.444627
0.396833
-0.0701185
0.0391785
0.196786
0.359649
0.50731
0.636983
0.756889
0.857252
0.901899
0.872143
0.782186
0.660075
0.525901
0.38906
0.252653
0.120805
0.0055113
-0.0728742
-0.0972444
-0.0627281
0.0217806
0.137793
0.263837
0.386947
0.503712
0.616654
0.727487
0.83069
0.911877
0.955394
0.95322
0.906775
0.825089
0.720518
0.604477
0.483801
0.362062
0.243443
0.135885
0.0503762
-0.00277679
-0.0174562
0.00623891
0.0632878
0.146316
0.246385
0.354234
0.462773
0.568061
0.667038
0.754207
0.820541
0.856869
0.858336
0.825373
0.762892
0.678042
0.57861
0.47216
0.3644
0.260413
0.168592
0.0978224
0.0548661
0.0430468
0.0623915
0.109583
0.178718
0.262471
0.353568
0.446085
0.535456
0.616814
0.683696
0.728925
0.747307
0.73711
0.699937
0.639963
0.562868
0.475529
0.385419
0.296906
0.216785
0.153366
0.112216
0.0962398
0.105879
0.138982
0.191121
0.256429
0.328474
0.40108
0.468183
0.523072
0.559562
0.57362
0.564473
0.533349
0.484343
0.062361
0.157144
0.287946
0.428402
0.561451
0.680342
0.78632
0.880914
0.944709
0.949681
0.893463
0.7952
0.675453
0.547239
0.416699
0.288846
0.173824
0.0895268
0.0523559
0.0699427
0.138217
0.242024
0.360249
0.477542
0.58853
0.694564
0.798076
0.896821
0.98042
1.03368
1.0458
1.01469
0.947231
0.854319
0.74682
0.632181
0.514867
0.399329
0.292779
0.205461
0.14749
0.125018
0.13888
0.185808
0.259994
0.352944
0.455131
0.558851
0.659591
0.754676
0.840158
0.908642
0.950799
0.960259
0.935666
0.88085
0.802492
0.708165
0.605189
0.499578
0.396972
0.305201
0.23312
0.187418
0.171237
0.185484
0.227596
0.292206
0.371919
0.459291
0.548304
0.63446
0.713482
0.779902
0.826912
0.848477
0.841869
0.808264
0.751508
0.677142
0.591875
0.502786
0.414929
0.33471
0.270255
0.227259
0.208749
0.215413
0.245465
0.29464
0.35705
0.426298
0.496318
0.561294
0.615027
0.651349
0.665738
0.656872
0.625708
0.575845
0.202272
0.273634
0.376428
0.493593
0.610747
0.71971
0.816637
0.901725
0.970385
1.00064
0.979504
0.911727
0.813403
0.699078
0.577625
0.455459
0.341783
0.251825
0.201235
0.200303
0.250051
0.338701
0.44643
0.556722
0.662113
0.762125
0.85878
0.951882
1.03513
1.09638
1.12286
1.1093
1.05889
0.980492
0.884131
0.777711
0.666491
0.555192
0.450516
0.361864
0.298816
0.267632
0.270344
0.305861
0.369772
0.454182
0.549648
0.648016
0.744131
0.835247
0.918303
0.987797
1.03543
1.0533
1.03876
0.993589
0.92357
0.835991
0.737969
0.635724
0.535252
0.444169
0.370928
0.321955
0.300911
0.30929
0.345674
0.405034
0.479966
0.56306
0.64828
0.73104
0.807467
0.872878
0.921298
0.946416
0.944446
0.915581
0.863204
0.792627
0.710354
0.623052
0.536422
0.45673
0.391692
0.346949
0.325657
0.329024
0.355716
0.401576
0.460745
0.526924
0.594085
0.656702
0.709067
0.745272
0.760481
0.752715
0.722427
0.479447
-0.31448
-0.213249
-0.0390186
0.147221
0.325253
0.492215
0.627082
0.685401
0.649498
0.538068
0.391444
0.241275
0.0952845
-0.0455345
-0.184938
-0.320731
-0.437523
-0.508231
-0.51571
-0.459472
-0.353911
-0.22297
-0.0879534
0.0453536
0.175887
0.304896
0.429321
0.536771
0.60963
0.635022
0.610122
0.540841
0.438952
0.318103
0.191475
0.0648475
-0.0599835
-0.179945
-0.287241
-0.369938
-0.416605
-0.421197
-0.38459
-0.313416
-0.217273
-0.10593
0.0116996
0.129779
0.24509
0.351614
0.440292
0.501269
0.527289
0.516095
0.47063
0.397533
0.30491
0.200515
0.091773
-0.016403
-0.1194
-0.209192
-0.277203
-0.316256
-0.322618
-0.296718
-0.242663
-0.166857
-0.0763351
0.0219539
0.12137
0.217781
0.303945
0.371873
0.414996
0.429431
0.414589
0.373042
0.309734
0.230775
0.142817
0.0530553
-0.034064
-0.111356
-0.171287
-0.208292
-0.21936
-0.20429
-0.165531
-0.107518
-0.0358989
0.0421592
0.120142
0.192378
0.250847
0.28989
0.306567
0.300829
0.273976
0.395172
-0.2695
-0.154642
0.0295628
0.218099
0.389693
0.548258
0.687465
0.765667
0.753743
0.660932
0.52408
0.376783
0.230348
0.0873085
-0.0539785
-0.190357
-0.306399
-0.376551
-0.38475
-0.329972
-0.225675
-0.0950614
0.0396386
0.171234
0.2986
0.424108
0.545964
0.652943
0.727366
0.755784
0.734097
0.667639
0.568062
0.44916
0.323603
0.196988
0.0713325
-0.0497515
-0.157626
-0.240388
-0.287186
-0.29246
-0.256998
-0.18728
-0.0927464
0.0168726
0.132677
0.24877
0.361665
0.466441
0.554862
0.616854
0.644681
0.635513
0.591803
0.519973
0.427952
0.323447
0.21412
0.105139
0.000902
-0.0897718
-0.158236
-0.197616
-0.204361
-0.179003
-0.12563
-0.0506645
0.0386129
0.135254
0.233165
0.327801
0.412604
0.479979
0.523137
0.537923
0.523515
0.482333
0.419126
0.339806
0.251086
0.160709
0.072562
-0.0059508
-0.0669614
-0.104958
-0.117076
-0.103146
-0.0656236
-0.0089885
0.0609694
0.137462
0.214078
0.284792
0.341933
0.379706
0.394911
0.387414
0.358561
0.312231
-0.183464
-0.0679695
0.108938
0.289178
0.449848
0.593627
0.727194
0.82173
0.838486
0.774297
0.656636
0.518215
0.375467
0.233763
0.0936612
-0.0411988
-0.156643
-0.229724
-0.244242
-0.197036
-0.100004
0.025379
0.157032
0.285018
0.407472
0.527306
0.644571
0.750401
0.82798
0.862737
0.848968
0.790383
0.697694
0.584314
0.462213
0.337522
0.212958
0.0923842
-0.0155818
-0.0993479
-0.148495
-0.157338
-0.126313
-0.0614369
0.0286212
0.134372
0.246834
0.359585
0.469056
0.571345
0.659354
0.723267
0.754652
0.74983
0.710407
0.642135
0.552666
0.449833
0.341303
0.232456
0.127875
0.0364533
-0.0330269
-0.0737987
-0.0823747
-0.0592368
-0.00820859
0.0644562
0.151449
0.245669
0.341227
0.433453
0.516711
0.583788
0.627649
0.643779
0.630982
0.591276
0.529154
0.450404
0.361921
0.271416
0.182796
0.103272
0.0410583
0.00163351
-0.0121618
-6.219e-05
0.035568
0.0902125
0.158053
0.232533
0.307362
0.376353
0.432342
0.469274
0.483602
0.474942
0.444627
0.396833
-0.0701185
0.0391785
0.196786
0.359649
0.50731
0.636983
0.756889
0.857252
0.901899
0.872143
0.782186
0.660075
0.525901
0.38906
0.252653
0.120805
0.0055113
-0.0728742
-0.0972444
-0.0627281
0.0217806
0.137793
0.263837
0.386947
0.503712
0.616654
0.727487
0.83069
0.911877
0.955394
0.95322
0.906775
0.825089
0.720518
0.604477
0.483801
0.362062
0.243443
0.135885
0.0503762
-0.00277679
-0.0174562
0.00623891
0.0632878
0.146316
0.246385
0.354234
0.462773
0.568061
0.667038
0.754207
0.820541
0.856869
0.858336
0.825373
0.762892
0.678042
0.57861
0.47216
0.3644
0.260413
0.168592
0.0978224
0.0548661
0.0430468
0.0623915
0.109583
0.178718
0.262471
0.353568
0.446085
0.535456
0.616814
0.683696
0.728925
0.747307
0.73711
0.699937
0.639963
0.562868
0.475529
0.385419
0.296906
0.216785
0.153366
0.112216
0.0962398
0.105879
0.138982
0.191121
0.256429
0.328474
0.40108
0.468183
0.523072
0.559562
0.57362
0.564473
0.533349
0.484343
0.062361
0.157144
0.287946
0.428402
0.561451
0.680342
0.78632
0.880914
0.944709
0.949681
0.893463
0.7952
0.675453
0.547239
0.416699
0.288846
0.173824
0.0895268
0.0523559
0.0699427
0.138217
0.242024
0.360249
0.477542
0.58853
0.694564
0.798076
0.896821
0.98042
1.03368
1.0458
1.01469
0.947231
0.854319
0.74682
0.632181
0.514867
0.399329
0.292779
0.205461
0.14749
0.125018
0.13888
0.185808
0.259994
0.352944
0.455131
0.558851
0.659591
0.754676
0.840158
0.908642
0.950799
0.960259
0.935666
0.88085
0.802492
0.708165
0.605189
0.499578
0.396972
0.305201
0.23312
0.187418
0.171237
0.185484
0.227596
0.292206
0.371919
0.459291
0.548304
0.63446
0.713482
0.779902
0.826912
0.848477
0.841869
0.808264
0.751508
0.677142
0.591875
0.502786
0.414929
0.33471
0.270255
0.227259
0.208749
0.215413
0.245465
0.29464
0.35705
0.426298
0.496318
0.561294
0.615027
0.651349
0.665738
0.656872
0.625708
0.575845
0.202272
0.273634
0.376428
0.493593
0.610747
0.71971
0.816637
0.901725
0.970385
1.00064
0.979504
0.911727
0.813403
0.699078
0.577625
0.455459
0.341783
0.251825
0.201235
0.200303
0.250051
0.338701
0.44643
0.556722
0.662113
0.762125
0.85878
0.951882
1.03513
1.09638
1.12286
1.1093
1.05889
0.980492
0.884131
0.777711
0.666491
0.555192
0.450516
0.361864
0.298816
0.267632
0.270344
0.305861
0.369772
0.454182
0.549648
0.648016
0.744131
0.835247
0.918303
0.987797
1.03543
1.0533
1.03876
0.993589
0.92357
0.835991
0.737969
0.635724
0.535252
0.444169
0.370928
0.321955
0.300911
0.30929
0.345674
0.405034
0.479966
0.56306
0.64828
0.73104
0.807467
0.872878
0.921298
0.946416
0.944446
0.915581
0.863204
0.792627
0.710354
0.623052
0.536422
0.45673
0.391692
0.346949
0.325657
0.329024
0.355716
0.401576
0.460745
0.526924
0.594085
0.656702
0.709067
0.745272
0.760481
0.752715
0.722427
0.479447
0.481534
0.511935
0.567744
0.643212
0.728743
0.815329
0.896984
0.969535
1.02883
1.07137
1.09138
1.07941
1.0328
0.958031
0.864774
0.761779
0.657248
0.560985
0.486163
0.447235
0.454915
0.506084
0.586899
0.68066
0.775084
0.865125
0.950428
1.03199
1.10939
1.17813
1.2294
1.25364
1.2447
1.20409
1.13797
1.05424
0.959906
0.860401
0.760851
0.667758
0.58918
0.53287
0.504479
0.50685
0.539037
0.596531
0.672073
0.757255
0.844696
0.929592
1.00946
1.08183
1.14244
1.18491
1.2025
1.19132
1.1523
1.08979
1.01008
0.919718
0.824905
0.73189
0.647971
0.580393
0.534841
0.51506
0.52292
0.556621
0.611079
0.67945
0.755016
0.832214
0.90682
0.975535
1.03455
1.07885
1.10292
1.10275
1.07756
1.0298
0.964236
0.88687
0.80386
0.721181
0.645122
0.5823
0.537904
0.515277
0.515946
0.53862
0.57938
0.632799
0.692982
0.754225
0.811479
0.859879
0.894301
0.910018
0.904277
0.876686
0.634532
0.774695
0.799426
0.840836
0.895503
0.957532
1.02091
1.08088
1.13377
1.17576
1.20195
1.20892
1.19554
1.16089
1.10586
1.03412
0.951872
0.8672
0.790171
0.733715
0.711594
0.728251
0.777102
0.845833
0.922246
0.998774
1.07263
1.14324
1.2105
1.27365
1.32964
1.37201
1.39274
1.38725
1.35534
1.30094
1.23
1.14851
1.06174
0.974892
0.894005
0.825919
0.777292
0.75334
0.756144
0.784384
0.834205
0.899519
0.973076
1.04838
1.12117
1.18934
1.25108
1.30308
1.33998
1.35602
1.34766
1.3148
1.26043
1.18966
1.10835
1.02248
0.938251
0.862376
0.801256
0.760269
0.743088
0.750617
0.780714
0.82891
0.889377
0.956213
1.02437
1.09
1.15034
1.20244
1.24226
1.2649
1.2664
1.24526
1.20303
1.14364
1.07241
0.995105
0.91767
0.846119
0.786313
0.743216
0.720172
0.718358
0.736517
0.771353
0.818161
0.871549
0.926141
0.977305
1.02097
1.05297
1.06903
1.06592
1.0426
0.465989
1.04823
1.0678
1.09875
1.13857
1.18364
1.22996
1.27382
1.31195
1.3412
1.35807
1.35932
1.34356
1.31227
1.2679
1.21266
1.15027
1.08726
1.033
0.998345
0.990114
1.00903
1.04976
1.10361
1.16289
1.22337
1.28297
1.34046
1.3948
1.44487
1.48887
1.52294
1.54134
1.53907
1.51476
1.47089
1.41201
1.34322
1.26942
1.19561
1.1272
1.06991
1.02922
1.00931
1.01166
1.03529
1.07725
1.13234
1.19425
1.25743
1.31825
1.37493
1.42611
1.46945
1.50089
1.51558
1.50987
1.48291
1.43671
1.37536
1.30399
1.22817
1.15374
1.08681
1.03304
0.997189
0.982176
0.988493
1.01427
1.05573
1.10786
1.16549
1.2242
1.28055
1.33222
1.37698
1.41184
1.4328
1.43597
1.41923
1.38317
1.33083
1.26682
1.19646
1.12543
1.05934
1.00351
0.962485
0.939218
0.934772
0.948306
0.977082
1.01697
1.0631
1.11054
1.15508
1.19327
1.22194
1.23765
1.2372
1.21933
0.647483
1.3079
1.32299
1.34615
1.37547
1.40852
1.44246
1.47448
1.50192
1.52231
1.53324
1.5325
1.51873
1.49268
1.4568
1.41399
1.36801
1.32424
1.2897
1.27062
1.26947
1.28574
1.31632
1.35626
1.40123
1.44838
1.49578
1.54185
1.58518
1.6244
1.65802
1.68389
1.69863
1.69847
1.68116
1.64733
1.60006
1.54359
1.48242
1.42117
1.36459
1.31748
1.28408
1.26742
1.26916
1.28886
1.32365
1.3689
1.41947
1.47096
1.52049
1.56654
1.60798
1.6431
1.66894
1.6817
1.67813
1.65685
1.61885
1.56723
1.50632
1.44116
1.37703
1.31932
1.27294
1.242
1.22901
1.2341
1.25551
1.29009
1.33365
1.38188
1.43106
1.47824
1.52139
1.55882
1.58837
1.60699
1.61131
1.59892
1.56946
1.52494
1.46912
1.40675
1.34306
1.28322
1.23202
1.19355
1.17049
1.16391
1.17315
1.19593
1.22872
1.26726
1.30721
1.34479
1.37706
1.40161
1.41601
1.41753
1.40521
0.455009
1.55804
1.56954
1.58683
1.60845
1.63263
1.65736
1.68052
1.7001
1.71428
1.72142
1.72023
1.70997
1.69093
1.66462
1.6336
1.60126
1.57182
1.54971
1.53822
1.53852
1.55036
1.57226
1.60167
1.63588
1.67261
1.71001
1.74649
1.78064
1.81108
1.83647
1.85535
1.86593
1.86603
1.85379
1.82875
1.7924
1.74776
1.69862
1.64907
1.60327
1.56527
1.53846
1.52506
1.52646
1.54244
1.57036
1.60634
1.6464
1.68727
1.72671
1.76337
1.7962
1.82392
1.84449
1.85514
1.85313
1.83688
1.80665
1.76459
1.7142
1.65979
1.60597
1.55744
1.51836
1.49224
1.48096
1.48445
1.50134
1.52909
1.56429
1.60344
1.64349
1.68197
1.71713
1.74759
1.77183
1.78768
1.79249
1.78389
1.76091
1.72452
1.67753
1.6239
1.56829
1.51534
1.46933
1.43394
1.41165
1.40342
1.40871
1.42571
1.4515
1.48246
1.51484
1.5454
1.57164
1.59167
1.60387
1.60619
1.59832
0.655427
1.8012
1.80984
1.82266
1.83854
1.85619
1.87417
1.89091
1.90492
1.91483
1.91951
1.91818
1.91056
1.89702
1.87867
1.8573
1.83533
1.81558
1.80082
1.79318
1.79375
1.80266
1.81906
1.84133
1.86762
1.89616
1.92543
1.95405
1.98073
2.00424
2.02337
2.03691
2.04368
2.04262
2.03288
2.01409
1.98686
1.95291
1.91494
1.87621
1.84019
1.81025
1.7892
1.77896
1.78046
1.79315
1.81488
1.84266
1.87359
1.90533
1.93617
1.96488
1.99042
2.01173
2.02742
2.0357
2.03455
2.02251
1.99932
1.96627
1.92598
1.88195
1.8381
1.79842
1.76642
1.74457
1.73431
1.7361
1.7488
1.77017
1.79758
1.82836
1.86007
1.89066
1.91861
1.94276
1.96197
1.97476
1.97925
1.9735
1.9563
1.92781
1.8898
1.84533
1.79829
1.7527
1.71232
1.68046
1.65948
1.65012
1.65195
1.66364
1.68281
1.70645
1.73148
1.7552
1.77555
1.791
1.80046
1.80247
1.79733
0.449735
2.03915
2.04554
2.05496
2.06658
2.07944
2.09248
2.10456
2.11456
2.12152
2.12466
2.12347
2.11786
2.1082
2.09537
2.08067
2.06577
2.05256
2.04287
2.0382
2.03937
2.04652
2.05915
2.07622
2.09648
2.11865
2.14148
2.1638
2.18452
2.20259
2.217
2.22679
2.23102
2.22898
2.22037
2.20534
2.18446
2.15882
2.13018
2.1009
2.07363
2.05103
2.03537
2.02811
2.0297
2.03947
2.05578
2.0766
2.09997
2.12423
2.14802
2.17021
2.1898
2.20585
2.21738
2.22323
2.22217
2.21317
2.19583
2.17076
2.13973
2.10534
2.07071
2.0391
2.01334
1.99538
1.98634
1.98654
1.99522
2.0108
2.03135
2.05482
2.07929
2.10304
2.12475
2.1434
2.1581
2.16785
2.17142
2.16746
2.15486
2.13333
2.10379
2.06834
2.03
1.99208
1.95784
1.93001
1.91052
1.90036
1.89939
1.90644
1.91958
1.93646
1.95462
1.97197
1.98685
1.998
2.0046
2.0056
2.00153
0.659098
2.27322
2.27785
2.28471
2.29316
2.30249
2.31192
2.32062
2.32778
2.3327
2.33486
2.33392
2.32989
2.32308
2.31415
2.30406
2.294
2.28528
2.27914
2.27659
2.27821
2.28415
2.29409
2.30736
2.3231
2.34035
2.35813
2.37549
2.39154
2.40539
2.41624
2.42332
2.42599
2.42374
2.41642
2.40427
2.3879
2.36826
2.3467
2.32494
2.30489
2.28848
2.27728
2.27222
2.27349
2.28058
2.29244
2.30777
2.32523
2.34359
2.36174
2.37869
2.39352
2.40541
2.41357
2.41727
2.41581
2.40867
2.39561
2.37693
2.3537
2.32771
2.30122
2.2767
2.25631
2.24165
2.23368
2.23267
2.23817
2.24914
2.26417
2.28167
2.30014
2.31816
2.33464
2.34867
2.35953
2.36651
2.36886
2.36572
2.35632
2.34029
2.31801
2.29077
2.26067
2.23027
2.20219
2.17866
2.16117
2.15079
2.1477
2.15086
2.15876
2.16967
2.1818
2.19357
2.20368
2.21108
2.21505
2.21478
2.2108
0.446332
2.50435
2.50763
2.51256
2.51865
2.52538
2.53218
2.53843
2.54356
2.54707
2.54859
2.54792
2.5451
2.54038
2.53426
2.52743
2.52075
2.51513
2.51141
2.51029
2.51219
2.5172
2.52515
2.53558
2.54788
2.56133
2.57518
2.58867
2.60107
2.61169
2.61989
2.62509
2.62684
2.62481
2.61893
2.60941
2.59677
2.58184
2.56567
2.54957
2.53491
2.52297
2.5148
2.51098
2.51168
2.5166
2.52509
2.53631
2.5493
2.56311
2.57684
2.58964
2.60074
2.60944
2.6151
2.61723
2.61538
2.60932
2.59904
2.58484
2.56744
2.54802
2.52812
2.50947
2.49366
2.48195
2.47515
2.47356
2.47693
2.48454
2.49534
2.50814
2.52179
2.53519
2.54745
2.55779
2.56559
2.57029
2.57138
2.5684
2.56093
2.54874
2.53202
2.5115
2.48855
2.46494
2.44261
2.4233
2.40827
2.39832
2.39365
2.39367
2.39733
2.40344
2.41074
2.41805
2.42432
2.42867
2.43047
2.42903
2.42479
0.662534
2.73327
2.73552
2.739
2.74335
2.74817
2.75305
2.75754
2.76121
2.76372
2.76483
2.7644
2.76248
2.75928
2.75516
2.75063
2.7463
2.7428
2.74073
2.74056
2.74258
2.74687
2.75332
2.7616
2.77128
2.78181
2.79262
2.80311
2.81271
2.82086
2.82707
2.83092
2.83208
2.83036
2.82576
2.81846
2.80888
2.79766
2.78561
2.77368
2.76283
2.75396
2.7478
2.74477
2.74504
2.74844
2.75455
2.76278
2.77242
2.78274
2.79303
2.80262
2.81086
2.81719
2.8211
2.82218
2.82015
2.8149
2.80653
2.79538
2.78204
2.76734
2.75236
2.73827
2.72621
2.71711
2.7116
2.70994
2.71195
2.71713
2.72474
2.73392
2.74381
2.75359
2.76253
2.77
2.77545
2.7784
2.77849
2.77543
2.76905
2.75931
2.7464
2.7308
2.71338
2.6953
2.67786
2.66233
2.64967
2.64049
2.63502
2.63295
2.63367
2.63639
2.64021
2.64423
2.64762
2.64963
2.64974
2.64737
2.64281
0.443144
2.9605
2.96197
2.96438
2.96743
2.97085
2.97433
2.97754
2.98017
2.98199
2.98282
2.98258
2.98133
2.97921
2.97651
2.9736
2.97089
2.96885
2.96788
2.96832
2.97036
2.97406
2.97934
2.98598
2.99363
3.00191
3.01037
3.01854
3.02598
3.03226
3.03699
3.03987
3.04067
3.03926
3.03569
3.03011
3.02286
3.01444
3.00543
2.99654
2.98845
2.98181
2.97713
2.97475
2.97479
2.97715
2.98156
2.98758
2.9947
3.00236
3.01002
3.01713
3.02318
3.02771
3.03036
3.0308
3.02883
3.02441
3.01764
3.00883
2.99845
2.98716
2.97575
2.96505
2.95586
2.94883
2.94442
2.94279
2.94384
2.94723
2.95245
2.9589
2.96594
2.97294
2.97932
2.98457
2.98822
2.9899
2.9893
2.98624
2.98062
2.97252
2.96214
2.94989
2.93636
2.92233
2.90866
2.8962
2.88565
2.87747
2.87188
2.86876
2.86774
2.86829
2.86975
2.87144
2.87272
2.87301
2.87187
2.86885
2.86411
0.6654
3.18641
3.1873
3.1889
3.19101
3.19341
3.19587
3.19815
3.20004
3.20136
3.202
3.20191
3.20114
3.19979
3.19809
3.1963
3.19471
3.19365
3.19341
3.19421
3.19619
3.1994
3.20376
3.20911
3.21521
3.22175
3.22839
3.23477
3.24056
3.24541
3.24904
3.25122
3.25178
3.25067
3.24791
3.24365
3.23816
3.23182
3.22506
3.21841
3.21235
3.20736
3.20381
3.20195
3.20187
3.20351
3.20667
3.21107
3.2163
3.22196
3.22762
3.23284
3.23724
3.24045
3.24218
3.2422
3.24039
3.23672
3.23129
3.22436
3.21629
3.20759
3.19883
3.19063
3.18354
3.17802
3.1744
3.1728
3.17316
3.17525
3.17874
3.18317
3.18809
3.193
3.19744
3.20101
3.20333
3.20409
3.20305
3.20009
3.19515
3.18831
3.17977
3.16986
3.15905
3.14788
3.13695
3.12685
3.11807
3.11094
3.10565
3.10213
3.10015
3.09933
3.09922
3.0993
3.09909
3.09815
3.09613
3.0927
3.08795
0.440769
3.41129
3.41176
3.41278
3.4142
3.41585
3.41756
3.41918
3.42053
3.4215
3.42201
3.42202
3.42159
3.42079
3.41978
3.41876
3.41793
3.41752
3.41774
3.41874
3.42061
3.42339
3.42701
3.43136
3.43624
3.44142
3.44666
3.45166
3.45617
3.45994
3.46274
3.46441
3.46483
3.46397
3.46185
3.45862
3.45447
3.44968
3.4446
3.43961
3.43506
3.4313
3.42859
3.42713
3.42698
3.42811
3.43037
3.43357
3.43739
3.44154
3.44568
3.44948
3.45263
3.45486
3.45595
3.45572
3.45408
3.45105
3.4467
3.44124
3.43495
3.42822
3.42145
3.41509
3.40955
3.40515
3.40213
3.40059
3.40049
3.40169
3.40393
3.4069
3.41024
3.41359
3.41658
3.41889
3.42022
3.42034
3.41906
3.41627
3.41196
3.40619
3.39912
3.39103
3.38225
3.37321
3.36432
3.35603
3.34867
3.34247
3.33758
3.33395
3.33143
3.32974
3.32857
3.32756
3.32633
3.32457
3.322
3.31836
3.31371
0.667261
3.63535
3.63552
3.63612
3.63703
3.63814
3.63932
3.64046
3.64142
3.64213
3.64254
3.64263
3.64243
3.64201
3.64147
3.64097
3.64064
3.64066
3.64115
3.64223
3.64397
3.64637
3.64939
3.65293
3.65686
3.66099
3.66513
3.66907
3.6726
3.67554
3.67772
3.67901
3.67934
3.67868
3.67707
3.67462
3.67148
3.66787
3.66404
3.66028
3.65685
3.65401
3.65194
3.65079
3.65061
3.65137
3.65298
3.65529
3.65807
3.66109
3.66409
3.66683
3.66906
3.67057
3.6712
3.67081
3.66936
3.66685
3.66335
3.65903
3.6541
3.64885
3.64358
3.6386
3.63423
3.63069
3.62816
3.62671
3.62633
3.62691
3.62827
3.63018
3.63237
3.63457
3.63649
3.63788
3.6385
3.63818
3.63677
3.6342
3.63045
3.62558
3.61972
3.61307
3.60591
3.59853
3.59123
3.58435
3.57812
3.5727
3.56821
3.56461
3.56181
3.5596
3.55778
3.55606
3.55419
3.55192
3.54905
3.54537
3.54092
0.439378
3.85877
3.85873
3.85903
3.85959
3.86031
3.8611
3.86189
3.86257
3.8631
3.86344
3.86357
3.86352
3.86335
3.86313
3.86297
3.86297
3.86324
3.86388
3.86497
3.86655
3.86862
3.87114
3.87404
3.8772
3.88051
3.88379
3.8869
3.88968
3.89198
3.89368
3.8947
3.89496
3.89447
3.89326
3.8914
3.88903
3.88631
3.88342
3.88059
3.878
3.87584
3.87425
3.87334
3.87315
3.87365
3.87479
3.87644
3.87844
3.88062
3.88278
3.88472
3.88627
3.88727
3.88758
3.88712
3.88584
3.88376
3.88094
3.8775
3.87362
3.86949
3.86535
3.86144
3.85796
3.85509
3.85296
3.85163
3.85108
3.85124
3.85198
3.85313
3.8545
3.85586
3.857
3.85773
3.85786
3.85726
3.85581
3.85346
3.85021
3.84609
3.84122
3.83574
3.82985
3.82379
3.81776
3.812
3.8067
3.80196
3.79787
3.79441
3.79152
3.78906
3.78687
3.78476
3.78253
3.78
3.77701
3.77341
3.76923
0.668325
4.08166
4.08148
4.08158
4.08189
4.08233
4.08286
4.08339
4.08387
4.08426
4.08454
4.0847
4.08475
4.08474
4.08472
4.08478
4.08497
4.08539
4.08609
4.08714
4.08854
4.09031
4.09242
4.09479
4.09735
4.1
4.10261
4.10507
4.10726
4.10907
4.11041
4.11121
4.11143
4.11107
4.11016
4.10876
4.10698
4.10492
4.10275
4.10061
4.09865
4.09701
4.09579
4.09506
4.09487
4.0952
4.09599
4.09716
4.09859
4.10014
4.10168
4.10304
4.10409
4.10472
4.10482
4.10432
4.10321
4.10149
4.09921
4.09646
4.09339
4.09013
4.08687
4.08376
4.08098
4.07864
4.07685
4.07564
4.075
4.07489
4.07521
4.07584
4.07661
4.07738
4.07797
4.07824
4.07805
4.07728
4.07586
4.07374
4.07092
4.06744
4.06338
4.05884
4.05399
4.04898
4.04397
4.03914
4.03462
4.03049
4.02681
4.02357
4.02074
4.0182
4.01587
4.01358
4.0112
4.0086
4.00565
4.00222
3.99837
0.438585
4.30411
4.30386
4.30382
4.30396
4.30421
4.30454
4.3049
4.30523
4.30552
4.30575
4.30591
4.30603
4.30611
4.30622
4.3064
4.3067
4.30718
4.30789
4.30885
4.31009
4.31159
4.31334
4.31528
4.31735
4.31947
4.32155
4.3235
4.32523
4.32665
4.32771
4.32835
4.32854
4.32828
4.3276
4.32655
4.32521
4.32366
4.32202
4.32041
4.31892
4.31767
4.31673
4.31616
4.31598
4.31618
4.31672
4.31754
4.31855
4.31965
4.32072
4.32166
4.32236
4.32272
4.32268
4.3222
4.32123
4.31981
4.31797
4.31578
4.31333
4.31076
4.30817
4.30571
4.30347
4.30156
4.30005
4.29897
4.29831
4.29803
4.29807
4.29834
4.29871
4.29907
4.29929
4.29925
4.29886
4.29802
4.29667
4.29479
4.29236
4.28942
4.28603
4.28228
4.27826
4.27412
4.26996
4.26591
4.26206
4.25848
4.25522
4.25226
4.24959
4.24712
4.24479
4.2425
4.24013
4.23758
4.23477
4.23161
4.22811
0.668908