/*--------------------------------*- C++ -*----------------------------------*\
| =========                 |                                                 |
| \\      /  F ield         | OpenFOAM: The Open Source CFD Toolbox           |
|  \\    /   O peration     | Version:  2506                                  |
|   \\  /    A nd           | Website:  www.openfoam.com                      |
|    \\/     M anipulation  |                                                 |
\*---------------------------------------------------------------------------*/
FoamFile
{
    version     2.0;
    format      ascii;
    arch        "LSB;label=32;scalar=64";
    class       volSymmTensorField;
    location    "150";
    object      turbulenceProperties:devReff;
}
// * * * * * * * * * * * * * * * * * * * * * * * * * * * * * * * * * * * * * //

dimensions      [0 2 -2 0 0 0 0];

internalField   nonuniform List<symmTensor> 
1340
(
(-3.6226 14.3463 1.05424e-15 3.58678 1.53259e-16 0.0358117)
(-3.86506 13.6028 1.48839e-15 3.83242 2.61364e-16 0.0326326)
(-4.01158 12.7652 -2.97593e-16 3.98087 -3.95089e-17 0.0307091)
(-3.73941 10.3243 -4.67458e-15 3.73307 -8.05342e-16 0.00634137)
(-0.11216 0.43174 -5.07293e-16 0.13779 -7.67584e-17 -0.0256298)
(-0.133051 0.472 -1.26895e-15 0.156286 -4.72902e-16 -0.0232348)
(-0.151661 0.570261 -2.58833e-15 0.179363 -3.50125e-17 -0.0277019)
(-0.213756 0.802088 -2.08311e-15 0.202128 1.32443e-15 0.0116274)
(-0.0126661 0.100403 2.24511e-16 0.0123142 -5.53827e-18 0.000351928)
(-0.0208439 0.136103 -1.20978e-15 0.0209209 1.5984e-16 -7.70276e-05)
(-0.0106033 0.162319 3.05849e-15 0.0115108 5.45838e-16 -0.000907509)
(-0.0407278 0.276448 4.78458e-15 0.0325177 9.74836e-16 0.0082101)
(0.000958308 0.00392705 -1.89428e-16 -0.00105566 -2.74553e-17 9.73492e-05)
(0.00161898 0.0126379 7.97624e-16 -0.00217692 1.166e-16 0.00055794)
(0.00701944 0.0305881 -5.19709e-16 -0.00758351 -1.70375e-16 0.000564072)
(-0.00364148 0.111777 -3.54209e-16 -0.00136546 -1.41168e-15 0.00500693)
(0.000130954 -0.000109872 -2.05547e-18 -0.000150697 5.26203e-19 1.97432e-05)
(0.000409503 -0.000150367 -2.03272e-17 -0.000439423 -1.46714e-17 2.99202e-05)
(0.00109861 0.000261003 6.58032e-17 -0.00106882 5.03862e-18 -2.97881e-05)
(0.00399443 0.0214305 -3.09329e-16 -0.00545855 5.10162e-17 0.00146412)
(1.22116e-05 -1.70286e-05 1.81078e-18 -4.85508e-06 1.75426e-19 -7.35652e-06)
(7.37951e-05 -4.13806e-05 -1.36406e-17 -5.52175e-05 -4.97297e-19 -1.85776e-05)
(0.000270833 -3.31682e-05 -1.91903e-17 -0.000236762 -5.96384e-18 -3.40703e-05)
(0.00109479 0.00229901 8.2299e-18 -0.00128244 5.04709e-17 0.000187654)
(3.6541e-06 -2.27315e-06 -2.09459e-19 -4.52585e-06 -2.55103e-20 8.7175e-07)
(4.0362e-06 -1.305e-06 3.47831e-19 -4.78923e-06 8.43904e-20 7.5303e-07)
(5.64399e-06 -2.67955e-07 6.15845e-21 -5.97412e-06 7.16524e-20 3.30132e-07)
(5.95535e-05 8.37685e-05 4.75907e-18 -7.33186e-05 4.34975e-19 1.37651e-05)
(3.09986e-06 -3.57224e-06 3.27959e-19 -2.20663e-06 5.36135e-20 -8.93228e-07)
(3.41437e-06 -1.72366e-06 -1.34607e-19 -2.87357e-06 -5.15417e-20 -5.40794e-07)
(4.47256e-06 -9.26268e-08 2.89061e-20 -3.99641e-06 6.68976e-21 -4.76147e-07)
(5.05334e-06 7.72299e-06 4.04783e-21 -5.77562e-06 -1.48441e-19 7.22275e-07)
(4.59856e-06 -3.44933e-06 -1.37458e-20 -5.0347e-06 -1.1636e-20 4.36142e-07)
(5.66826e-06 -1.90604e-06 9.14192e-20 -6.17068e-06 8.73511e-20 5.02423e-07)
(6.55946e-06 2.07993e-07 6.21017e-20 -6.62395e-06 -5.92783e-20 6.44909e-08)
(3.90595e-06 5.89058e-06 -3.41853e-20 -4.63513e-06 3.48838e-20 7.29179e-07)
(3.7461e-06 -3.46573e-06 1.06297e-19 -3.48289e-06 1.37615e-20 -2.63213e-07)
(4.60947e-06 -1.80133e-06 5.94889e-19 -4.49799e-06 1.1111e-20 -1.11484e-07)
(7.82409e-06 3.20199e-07 -5.45936e-19 -7.48685e-06 3.9955e-20 -3.37239e-07)
(3.62759e-06 5.67107e-06 1.47041e-19 -4.21338e-06 6.63678e-20 5.85787e-07)
(3.90723e-06 -3.24981e-06 1.02441e-20 -3.9714e-06 -1.80331e-20 6.41726e-08)
(4.67227e-06 -1.59033e-06 -6.77828e-19 -4.82157e-06 -1.0391e-19 1.49302e-07)
(6.83107e-06 4.69507e-07 7.78413e-19 -6.71393e-06 1.18297e-19 -1.17136e-07)
(4.52547e-06 7.10575e-06 2.77378e-19 -5.25314e-06 -9.94934e-20 7.27671e-07)
(3.5925e-06 -3.13343e-06 -2.5233e-19 -3.51769e-06 -1.4672e-20 -7.48104e-08)
(4.42341e-06 -1.50349e-06 4.30803e-19 -4.45986e-06 6.18026e-20 3.6454e-08)
(5.88434e-06 5.4363e-07 -3.86809e-19 -5.73477e-06 -1.62584e-19 -1.49572e-07)
(4.68125e-06 7.45415e-06 -4.82606e-19 -5.39447e-06 -2.59453e-19 7.13219e-07)
(3.47884e-06 -2.97321e-06 2.91161e-19 -3.47027e-06 3.50699e-20 -8.57201e-09)
(4.27689e-06 -1.37135e-06 -6.0219e-19 -4.35836e-06 -7.91272e-20 8.14751e-08)
(5.39332e-06 6.34222e-07 -3.95388e-20 -5.28791e-06 5.95089e-20 -1.05417e-07)
(4.26538e-06 6.87085e-06 -7.69148e-19 -4.89191e-06 7.62816e-20 6.2653e-07)
(3.27556e-06 -2.83847e-06 -2.145e-19 -3.24427e-06 -3.72596e-20 -3.12843e-08)
(4.03577e-06 -1.25954e-06 3.94705e-19 -4.09329e-06 1.13461e-19 5.75158e-08)
(4.96268e-06 7.05095e-07 6.22684e-20 -4.86415e-06 4.98528e-20 -9.85324e-08)
(3.79875e-06 6.21179e-06 4.52587e-19 -4.32929e-06 1.49853e-19 5.30534e-07)
(3.10209e-06 -2.69079e-06 4.52483e-20 -3.08525e-06 1.75203e-20 -1.68345e-08)
(3.81355e-06 -1.14592e-06 1.69891e-19 -3.87522e-06 -3.13626e-20 6.16689e-08)
(4.55999e-06 7.61377e-07 3.22625e-19 -4.48087e-06 -1.6749e-20 -7.91227e-08)
(3.38488e-06 5.62225e-06 -2.22963e-19 -3.83532e-06 -1.36486e-19 4.50448e-07)
(2.90708e-06 -2.54256e-06 2.96382e-20 -2.88936e-06 4.79494e-22 -1.77266e-08)
(3.57461e-06 -1.04001e-06 -2.49556e-19 -3.6286e-06 -3.37479e-20 5.39885e-08)
(4.16207e-06 8.02505e-07 -4.27228e-19 -4.09528e-06 -1.06371e-19 -6.67863e-08)
(3.00521e-06 5.08738e-06 -2.51023e-19 -3.38461e-06 8.84882e-20 3.79398e-07)
(2.71298e-06 -2.39191e-06 -1.13895e-20 -2.70012e-06 3.3325e-21 -1.28512e-08)
(3.33561e-06 -9.39738e-07 1.33882e-19 -3.38593e-06 5.90743e-21 5.03197e-08)
(3.78234e-06 8.2991e-07 -1.73684e-19 -3.72863e-06 5.26515e-20 -5.3708e-08)
(2.65319e-06 4.59279e-06 6.04134e-19 -2.97049e-06 4.61424e-20 3.17293e-07)
(2.51355e-06 -2.24499e-06 1.09807e-19 -2.50297e-06 -4.56231e-21 -1.05762e-08)
(3.09289e-06 -8.492e-07 -3.92531e-19 -3.138e-06 -4.90521e-20 4.5118e-08)
(3.42079e-06 8.41978e-07 2.60699e-19 -3.37816e-06 6.78845e-20 -4.26341e-08)
(2.32633e-06 4.13472e-06 -4.63606e-19 -2.58865e-06 -4.49629e-20 2.62322e-07)
(2.31303e-06 -2.102e-06 -3.05737e-19 -2.30524e-06 -3.09986e-20 -7.78995e-09)
(2.85013e-06 -7.68581e-07 9.59e-20 -2.89065e-06 6.06727e-20 4.05181e-08)
(3.07843e-06 8.37665e-07 1.94096e-19 -3.04522e-06 -2.18065e-20 -3.32122e-08)
(2.0251e-06 3.70906e-06 7.5092e-19 -2.23912e-06 9.29487e-20 2.14029e-07)
(2.11118e-06 -1.96183e-06 1.5515e-19 -2.10562e-06 3.07693e-20 -5.55746e-09)
(2.60782e-06 -6.96106e-07 3.04068e-19 -2.64369e-06 1.21644e-20 3.58753e-08)
(2.75533e-06 8.19926e-07 -1.89259e-19 -2.7305e-06 -4.93948e-20 -2.4835e-08)
(1.75001e-06 3.31574e-06 -4.5116e-19 -1.92323e-06 -1.26874e-19 1.73218e-07)
(1.90918e-06 -1.82293e-06 -4.18581e-20 -1.90564e-06 -1.19599e-20 -3.53677e-09)
(2.36717e-06 -6.29163e-07 -2.32749e-19 -2.3986e-06 -4.40634e-20 3.14281e-08)
(2.45008e-06 7.92746e-07 -1.09895e-19 -2.43208e-06 1.63518e-20 -1.80012e-08)
(1.49853e-06 2.95404e-06 8.61866e-20 -1.63669e-06 5.84083e-20 1.38157e-07)
(1.70825e-06 -1.68549e-06 1.23942e-20 -1.70643e-06 8.54444e-21 -1.82658e-09)
(2.12983e-06 -5.66811e-07 3.59582e-20 -2.15717e-06 2.00882e-20 2.73424e-08)
(2.16293e-06 7.58162e-07 1.3115e-19 -2.15064e-06 3.70887e-20 -1.22839e-08)
(1.26949e-06 2.62404e-06 4.73608e-21 -1.37822e-06 -2.04445e-20 1.08726e-07)
(1.51019e-06 -1.55187e-06 8.73222e-20 -1.50977e-06 4.94127e-21 -4.22875e-10)
(1.89753e-06 -5.09974e-07 8.3627e-21 -1.92104e-06 -5.72152e-21 2.35124e-08)
(1.89364e-06 7.17472e-07 1.76474e-19 -1.886e-06 -1.68134e-20 -7.6427e-09)
(1.0618e-06 2.3245e-06 -1.26917e-19 -1.14631e-06 -6.85085e-21 8.45096e-08)
(1.3165e-06 -1.42305e-06 -6.9635e-20 -1.31721e-06 -9.16387e-21 7.09323e-10)
(1.67209e-06 -4.59236e-07 -6.29469e-20 -1.69221e-06 1.42104e-21 2.01158e-08)
(1.64212e-06 6.70138e-07 -3.4827e-19 -1.63793e-06 -4.18948e-20 -4.19394e-09)
(8.74257e-07 2.05164e-06 7.17153e-20 -9.38761e-07 2.41701e-20 6.45034e-08)
(1.12809e-06 -1.29731e-06 4.99252e-20 -1.12966e-06 1.94998e-21 1.5619e-09)
(1.45434e-06 -4.12178e-07 1.39203e-19 -1.47141e-06 1.91691e-20 1.70718e-08)
(1.40775e-06 6.1956e-07 1.30751e-19 -1.40623e-06 5.53922e-20 -1.5223e-09)
(7.05721e-07 1.80433e-06 7.45327e-20 -7.54361e-07 9.86932e-21 4.864e-08)
(9.46099e-07 -1.17362e-06 -1.28977e-19 -9.48287e-07 -1.02635e-20 2.18801e-09)
(1.24531e-06 -3.66877e-07 -5.87742e-21 -1.25967e-06 -4.08347e-21 1.43551e-08)
(1.18976e-06 5.68848e-07 2.33906e-19 -1.1901e-06 4.04255e-21 3.34687e-10)
(5.53974e-07 1.58202e-06 1.19747e-19 -5.89952e-07 -1.22947e-20 3.59775e-08)
(7.72089e-07 -1.05376e-06 1.11029e-19 -7.74714e-07 1.80732e-20 2.62521e-09)
(1.04647e-06 -3.23823e-07 8.93117e-20 -1.05848e-06 8.20305e-21 1.20144e-08)
(9.88035e-07 5.18942e-07 -1.77599e-19 -9.89619e-07 -2.57807e-20 1.58442e-09)
(4.17792e-07 1.38364e-06 -2.84202e-19 -4.44065e-07 -2.55593e-20 2.62731e-08)
(6.07423e-07 -9.39414e-07 5.69107e-21 -6.10311e-07 -5.22589e-21 2.888e-09)
(8.58992e-07 -2.84291e-07 -2.89201e-20 -8.6897e-07 -1.25645e-20 9.97742e-09)
(8.02354e-07 4.69324e-07 1.30235e-19 -8.04621e-07 1.36312e-20 2.26768e-09)
(2.96006e-07 1.20618e-06 1.85616e-19 -3.14838e-07 2.40047e-20 1.88321e-08)
(4.531e-07 -8.30379e-07 -7.75803e-21 -4.56078e-07 -2.31763e-21 2.97762e-09)
(6.83801e-07 -2.47564e-07 -8.59154e-20 -6.92045e-07 -1.05106e-20 8.24334e-09)
(6.32334e-07 4.20828e-07 -1.91382e-19 -6.34904e-07 -2.25776e-20 2.57071e-09)
(1.87624e-07 1.04718e-06 -2.29486e-19 -2.00929e-07 -3.61583e-20 1.33051e-08)
(3.09838e-07 -7.25744e-07 -2.52139e-20 -3.12803e-07 -3.42866e-21 2.96489e-09)
(5.21359e-07 -2.12276e-07 -5.97279e-20 -5.28205e-07 -2.58728e-21 6.84594e-09)
(4.7731e-07 3.75382e-07 9.29986e-20 -4.79883e-07 2.11797e-20 2.57299e-09)
(9.12811e-08 9.05688e-07 -2.14032e-20 -1.00534e-07 2.35447e-20 9.25273e-09)
(1.7819e-07 -6.2499e-07 -2.46259e-20 -1.81045e-07 -2.69595e-21 2.85412e-09)
(3.71897e-07 -1.77337e-07 -1.54672e-20 -3.77513e-07 5.0966e-21 5.61588e-09)
(3.36726e-07 3.34744e-07 8.56081e-21 -3.39147e-07 -2.69038e-21 2.42082e-09)
(5.62092e-09 7.81338e-07 2.21676e-19 -1.20055e-08 3.45248e-20 6.38461e-09)
(5.87805e-08 -5.2867e-07 -3.3727e-20 -6.14719e-08 -2.87798e-21 2.69142e-09)
(2.35898e-07 -1.42703e-07 8.12989e-20 -2.40513e-07 7.85643e-21 4.61465e-09)
(2.10093e-07 2.99372e-07 3.26025e-20 -2.12187e-07 -1.22181e-21 2.0941e-09)
(-7.04415e-08 6.73323e-07 2.21194e-19 6.60368e-08 1.35191e-21 4.40465e-09)
(-4.78407e-08 -4.38014e-07 -1.00294e-20 4.53338e-08 2.86379e-21 2.50685e-09)
(1.13662e-07 -1.09332e-07 -2.62627e-20 -1.17465e-07 -4.81945e-21 3.8024e-09)
(9.71525e-08 2.68496e-07 -7.79711e-20 -9.88777e-08 -9.53107e-21 1.72517e-09)
(-1.37479e-07 5.79675e-07 -1.93219e-19 1.3438e-07 -3.6368e-20 3.09873e-09)
(-1.41626e-07 -3.52921e-07 6.17636e-20 1.3928e-07 6.23439e-21 2.34631e-09)
(5.13586e-09 -7.70527e-08 3.6171e-20 -8.28727e-09 -1.62974e-22 3.1514e-09)
(-2.67743e-09 2.42143e-07 4.8415e-22 1.31847e-09 8.14349e-21 1.35896e-09)
(-1.96108e-07 4.98715e-07 -1.39058e-19 1.93859e-07 -2.13503e-21 2.24866e-09)
(-2.22742e-07 -2.72699e-07 -1.31477e-20 2.20607e-07 -2.91921e-21 2.13552e-09)
(-9.00216e-08 -4.50219e-08 -1.23769e-19 8.74127e-08 -1.12294e-20 2.60888e-09)
(-9.00732e-08 2.21142e-07 9.48667e-20 8.90551e-08 4.65173e-21 1.01809e-09)
(-2.47147e-07 4.29975e-07 6.6574e-20 2.45389e-07 7.73975e-21 1.75712e-09)
(-2.91301e-07 -1.98224e-07 2.1133e-20 2.89352e-07 1.89812e-21 1.94906e-09)
(-1.72018e-07 -1.38725e-08 7.8996e-20 1.69866e-07 1.17131e-20 2.15264e-09)
(-1.65499e-07 2.04915e-07 -1.16762e-19 1.648e-07 -1.35022e-20 6.99432e-10)
(-2.90999e-07 3.72393e-07 -1.24951e-19 2.89495e-07 -1.39432e-20 1.50421e-09)
(-3.47657e-07 -1.30106e-07 -1.99259e-20 3.45896e-07 -1.58569e-21 1.76138e-09)
(-2.41268e-07 1.56619e-08 -3.75992e-20 2.39475e-07 -6.62242e-21 1.79225e-09)
(-2.29562e-07 1.92503e-07 5.84016e-20 2.29123e-07 7.99719e-21 4.39212e-10)
(-3.27991e-07 3.24158e-07 3.75003e-20 3.2661e-07 1.49118e-20 1.38067e-09)
(-3.9295e-07 -6.60026e-08 3.45621e-20 3.91408e-07 4.66193e-21 1.54127e-09)
(-2.98722e-07 4.51254e-08 9.26762e-21 2.97164e-07 9.05347e-22 1.55838e-09)
(-2.83142e-07 1.84854e-07 -7.39635e-20 2.82853e-07 -5.46327e-21 2.89338e-10)
(-3.58877e-07 2.85221e-07 1.7307e-19 3.57481e-07 1.50757e-20 1.39652e-09)
(-5.53955e-07 -5.26082e-08 -2.34444e-20 5.52596e-07 -3.38077e-22 1.35893e-09)
(-4.28095e-07 -9.21273e-09 1.01768e-20 4.2665e-07 -3.42599e-21 1.44454e-09)
(-3.44282e-07 7.2903e-08 -4.37451e-20 3.43205e-07 3.68526e-22 1.07715e-09)
(-3.26492e-07 1.80582e-07 1.26613e-19 3.26364e-07 1.59352e-20 1.27674e-10)
(-3.83678e-07 2.54316e-07 -2.46267e-20 3.82226e-07 -8.13576e-21 1.452e-09)
(-5.58241e-07 1.69178e-08 6.34958e-20 5.57085e-07 6.91558e-21 1.15595e-09)
(-4.52132e-07 3.98497e-08 -1.03084e-19 4.51003e-07 -1.066e-20 1.12907e-09)
(-3.79698e-07 9.77484e-08 1.57824e-19 3.7873e-07 1.50163e-20 9.67147e-10)
(-3.60584e-07 1.7788e-07 9.95045e-21 3.60517e-07 -7.83227e-21 6.75788e-11)
(-4.02626e-07 2.29062e-07 7.96255e-21 4.01089e-07 1.66602e-21 1.5372e-09)
(-5.55385e-07 7.70852e-08 -1.78606e-20 5.54358e-07 -4.49014e-21 1.02663e-09)
(-4.67379e-07 8.47197e-08 2.02172e-20 4.66338e-07 7.10915e-21 1.04148e-09)
(-4.05591e-07 1.21381e-07 -8.7799e-20 4.04769e-07 -1.46791e-20 8.2174e-10)
(-3.86263e-07 1.7782e-07 -1.4484e-19 3.86307e-07 -1.37432e-20 -4.41531e-11)
(-4.16346e-07 2.0957e-07 -4.59232e-21 4.14731e-07 -3.45108e-21 1.61476e-09)
(-5.46529e-07 1.28762e-07 -2.51572e-20 5.45617e-07 -1.06426e-21 9.12408e-10)
(-4.74783e-07 1.24086e-07 6.09969e-20 4.73881e-07 7.32947e-21 9.01919e-10)
(-4.22899e-07 1.43328e-07 -1.68992e-20 4.22232e-07 2.27432e-21 6.67251e-10)
(-4.04238e-07 1.80116e-07 5.33728e-20 4.0435e-07 1.05116e-20 -1.11808e-10)
(-4.25227e-07 1.9561e-07 -9.18978e-20 4.23491e-07 -6.90805e-21 1.7356e-09)
(-5.32452e-07 1.71617e-07 4.08356e-20 5.31657e-07 5.24718e-21 7.95573e-10)
(-4.75123e-07 1.57385e-07 5.02399e-20 4.7435e-07 3.29609e-21 7.73323e-10)
(-4.32395e-07 1.62626e-07 4.82092e-20 4.31831e-07 4.15651e-21 5.64015e-10)
(-4.15185e-07 1.83272e-07 1.51068e-20 4.15335e-07 1.8049e-21 -1.49764e-10)
(-4.29484e-07 1.85489e-07 8.93111e-20 4.27649e-07 1.29323e-20 1.83579e-09)
(-5.14174e-07 2.06593e-07 6.37262e-21 5.13481e-07 -4.8344e-22 6.92483e-10)
(-4.695e-07 1.85205e-07 -1.41173e-20 4.68828e-07 -4.29808e-21 6.72231e-10)
(-4.35145e-07 1.79366e-07 -5.62366e-20 4.34656e-07 -6.37332e-21 4.88859e-10)
(-4.19969e-07 1.86921e-07 6.5267e-20 4.20146e-07 5.17185e-21 -1.767e-10)
(-4.29538e-07 1.78321e-07 4.4626e-20 4.27634e-07 2.01428e-21 1.90408e-09)
(-4.92704e-07 2.3483e-07 -2.85329e-21 4.92109e-07 -1.17743e-22 5.94929e-10)
(-4.58976e-07 2.08368e-07 -6.1459e-20 4.58402e-07 -6.03131e-21 5.74539e-10)
(-4.3218e-07 1.94046e-07 3.91551e-20 4.3175e-07 5.10285e-21 4.30051e-10)
(-4.19398e-07 1.9122e-07 -4.7764e-20 4.19597e-07 -8.08958e-21 -1.99172e-10)
(-4.25903e-07 1.73991e-07 -1.69018e-20 4.23931e-07 -5.04639e-21 1.97238e-09)
(-4.6872e-07 2.56327e-07 1.31098e-20 4.68213e-07 1.34433e-21 5.07813e-10)
(-4.4437e-07 2.26555e-07 1.24489e-20 4.43877e-07 4.12038e-21 4.93089e-10)
(-4.2433e-07 2.06024e-07 -2.35177e-20 4.23959e-07 -3.53687e-21 3.71818e-10)
(-4.14153e-07 1.95263e-07 -5.35873e-20 4.14375e-07 -3.08034e-21 -2.2257e-10)
(-4.18884e-07 1.71511e-07 -9.84109e-20 4.16869e-07 -8.785e-21 2.0151e-09)
(-4.42935e-07 2.7159e-07 -1.24523e-20 4.42506e-07 -1.32647e-21 4.28745e-10)
(-4.2652e-07 2.39937e-07 5.93136e-20 4.26101e-07 5.34004e-21 4.19202e-10)
(-4.12421e-07 2.15086e-07 -3.83718e-21 4.12095e-07 -2.14029e-23 3.26134e-10)
(-4.04948e-07 1.98417e-07 6.06544e-20 4.0518e-07 8.20377e-21 -2.32191e-10)
(-4.0885e-07 1.699e-07 6.19737e-20 4.0681e-07 6.85595e-21 2.04054e-09)
(-4.16155e-07 2.81909e-07 1.94061e-20 4.15785e-07 3.11e-21 3.70389e-10)
(-4.06334e-07 2.49543e-07 -4.63463e-20 4.05972e-07 -7.58502e-21 3.62294e-10)
(-3.97385e-07 2.21921e-07 -7.05125e-21 3.97083e-07 -3.02233e-22 3.01841e-10)
(-3.92554e-07 2.01054e-07 2.24444e-20 3.9278e-07 2.47097e-21 -2.26704e-10)
(-3.96329e-07 1.69157e-07 -9.57975e-20 3.94268e-07 -1.14246e-20 2.06109e-09)
(-3.8899e-07 2.87996e-07 3.75216e-20 3.88675e-07 3.5903e-21 3.14643e-10)
(-3.84557e-07 2.55826e-07 -6.06914e-20 3.84249e-07 -5.86189e-21 3.07732e-10)
(-3.79996e-07 2.26738e-07 1.68647e-20 3.7972e-07 1.30526e-21 2.76688e-10)
(-3.77655e-07 2.03133e-07 6.43176e-20 3.77884e-07 7.0949e-21 -2.2917e-10)
(-3.81847e-07 1.69147e-07 1.02352e-20 3.79786e-07 2.56019e-21 2.06145e-09)
(-3.6181e-07 2.90044e-07 -2.14073e-20 3.61547e-07 -2.76274e-21 2.62918e-10)
(-3.6173e-07 2.58751e-07 2.73283e-21 3.61478e-07 1.9538e-21 2.51991e-10)
(-3.60853e-07 2.2924e-07 -3.56796e-20 3.60597e-07 -4.40149e-21 2.55521e-10)
(-3.60774e-07 2.041e-07 2.35353e-20 3.60989e-07 1.29562e-22 -2.14689e-10)
(-3.65684e-07 1.69176e-07 -2.39491e-20 3.63618e-07 -3.41687e-21 2.06631e-09)
(-3.34966e-07 2.88439e-07 2.1551e-20 3.34738e-07 2.70034e-21 2.27657e-10)
(-3.38339e-07 2.58496e-07 3.25901e-20 3.38129e-07 2.7751e-21 2.09494e-10)
(-3.40492e-07 2.29379e-07 -2.25981e-21 3.40253e-07 1.69213e-21 2.39642e-10)
(-3.42427e-07 2.03622e-07 -7.00744e-20 3.42637e-07 -9.2353e-21 -2.10721e-10)
(-3.4818e-07 1.68623e-07 -3.83972e-20 3.4614e-07 -3.64025e-21 2.04038e-09)
(-3.08934e-07 2.84208e-07 -8.41368e-21 3.08756e-07 -1.48987e-21 1.77792e-10)
(-3.14845e-07 2.55779e-07 -5.83401e-20 3.14681e-07 -7.43055e-21 1.64114e-10)
(-3.19474e-07 2.27613e-07 7.88296e-20 3.19221e-07 9.55777e-21 2.5251e-10)
(-3.23129e-07 2.01973e-07 -5.90155e-20 3.23333e-07 -4.22649e-21 -2.03357e-10)
(-3.29769e-07 1.67558e-07 1.49449e-20 3.27767e-07 2.02203e-21 2.00209e-09)
(-2.7428e-07 3.03366e-07 5.02383e-21 2.74198e-07 1.75464e-22 8.26442e-11)
(-2.84105e-07 2.77255e-07 -1.18604e-20 2.83926e-07 -2.102e-21 1.79294e-10)
(-2.91438e-07 2.50897e-07 -1.23528e-20 2.9143e-07 6.92981e-22 8.22595e-12)
(-2.9816e-07 2.24055e-07 3.3801e-20 2.97898e-07 1.99202e-21 2.62216e-10)
(-3.03248e-07 1.99072e-07 7.82268e-20 3.03448e-07 1.07008e-20 -1.99621e-10)
(-3.10751e-07 1.65825e-07 -1.09619e-20 3.08811e-07 -1.78185e-21 1.94002e-09)
(-2.49058e-07 2.9186e-07 -1.31535e-20 2.49017e-07 -1.24211e-21 4.19599e-11)
(-2.60027e-07 2.67968e-07 -6.46356e-20 2.59923e-07 -7.29108e-21 1.04128e-10)
(-2.68859e-07 2.43905e-07 9.18727e-20 2.68847e-07 1.03303e-20 1.16156e-11)
(-2.76935e-07 2.1864e-07 -4.60405e-20 2.76674e-07 -5.42089e-21 2.60845e-10)
(-2.83164e-07 1.94703e-07 5.99969e-20 2.83362e-07 5.56893e-21 -1.97813e-10)
(-2.91413e-07 1.6308e-07 -2.30037e-20 2.8955e-07 -2.22774e-21 1.8632e-09)
(-2.25557e-07 2.78541e-07 3.47797e-20 2.25509e-07 4.44129e-21 4.79274e-11)
(-2.3721e-07 2.57105e-07 1.53782e-20 2.37104e-07 2.47485e-21 1.06362e-10)
(-2.46987e-07 2.35085e-07 -4.62855e-20 2.46996e-07 -6.48448e-21 -8.8625e-12)
(-2.56017e-07 2.11573e-07 3.05877e-20 2.55793e-07 3.84746e-21 2.24631e-10)
(-2.63147e-07 1.88977e-07 -7.18359e-21 2.63341e-07 -1.8987e-21 -1.9406e-10)
(-2.7198e-07 1.59243e-07 1.7657e-20 2.70211e-07 2.30966e-21 1.76953e-09)
(-2.03752e-07 2.63952e-07 9.86971e-21 2.03725e-07 4.36318e-22 2.77419e-11)
(-2.15698e-07 2.44779e-07 -1.06384e-20 2.15634e-07 -9.97559e-22 6.41843e-11)
(-2.26033e-07 2.24812e-07 1.14578e-20 2.2607e-07 2.10831e-21 -3.70116e-11)
(-2.35682e-07 2.03175e-07 -2.80595e-20 2.35483e-07 -3.16172e-21 1.98962e-10)
(-2.43481e-07 1.8208e-07 -1.91956e-20 2.4366e-07 -2.25307e-21 -1.79274e-10)
(-2.52712e-07 1.54378e-07 -1.20811e-21 2.51044e-07 -1.0269e-22 1.66829e-09)
(-1.83653e-07 2.48731e-07 -3.79344e-20 1.8364e-07 -4.5229e-21 1.33976e-11)
(-1.95613e-07 2.31677e-07 4.31577e-20 1.95561e-07 5.77003e-21 5.26842e-11)
(-2.06178e-07 2.13687e-07 1.84561e-20 2.06216e-07 1.64871e-21 -3.80878e-11)
(-2.16146e-07 1.93924e-07 4.3935e-20 2.15962e-07 5.13659e-21 1.8365e-10)
(-2.24387e-07 1.74413e-07 -1.07903e-20 2.24549e-07 -8.26172e-22 -1.62107e-10)
(-2.3385e-07 1.48792e-07 2.39332e-20 2.32286e-07 2.27718e-21 1.56392e-09)
(-1.65266e-07 2.3341e-07 1.78721e-20 1.6525e-07 2.46977e-21 1.61654e-11)
(-1.76999e-07 2.18283e-07 4.74719e-20 1.76953e-07 5.10614e-21 4.5559e-11)
(-1.87542e-07 2.02151e-07 -4.06615e-20 1.87584e-07 -4.62764e-21 -4.27987e-11)
(-1.97601e-07 1.84221e-07 -3.62657e-20 1.97441e-07 -5.3858e-21 1.60615e-10)
(-2.06098e-07 1.66331e-07 1.53371e-20 2.0625e-07 1.82409e-21 -1.52099e-10)
(-2.15654e-07 1.42801e-07 -5.01891e-20 2.14202e-07 -5.4956e-21 1.45149e-09)
(-1.48525e-07 2.18344e-07 -6.91839e-21 1.48509e-07 -1.57682e-21 1.58231e-11)
(-1.59877e-07 2.04972e-07 -2.12758e-20 1.59848e-07 -2.47182e-21 2.97157e-11)
(-1.70221e-07 1.90575e-07 4.49274e-20 1.70276e-07 5.68948e-21 -5.44002e-11)
(-1.80186e-07 1.74408e-07 -6.44187e-20 1.80049e-07 -7.19255e-21 1.37066e-10)
(-1.88758e-07 1.5813e-07 -1.4156e-20 1.88906e-07 -1.85928e-21 -1.47616e-10)
(-1.98301e-07 1.3666e-07 6.56575e-20 1.96953e-07 7.6935e-21 1.34804e-09)
(-1.33324e-07 2.03617e-07 -7.2536e-20 1.33298e-07 -8.64604e-21 2.60234e-11)
(-1.4418e-07 1.91793e-07 6.01272e-20 1.4416e-07 7.02086e-21 2.03703e-11)
(-1.54183e-07 1.79011e-07 -1.2107e-20 1.54253e-07 -1.55656e-21 -6.92519e-11)
(-1.63913e-07 1.64526e-07 1.28685e-20 1.63799e-07 2.21583e-21 1.14003e-10)
(-1.7242e-07 1.49809e-07 5.85687e-21 1.72559e-07 1.4376e-22 -1.38487e-10)
(-1.81842e-07 1.30343e-07 -4.9865e-20 1.8059e-07 -6.16503e-21 1.25172e-09)
(-1.19514e-07 1.89268e-07 2.2742e-20 1.19498e-07 3.20086e-21 1.63805e-11)
(-1.29753e-07 1.78754e-07 -6.32277e-20 1.29756e-07 -8.10771e-21 -2.42046e-12)
(-1.39377e-07 1.67465e-07 4.09398e-20 1.39431e-07 5.16217e-21 -5.47087e-11)
(-1.4876e-07 1.5456e-07 1.50025e-20 1.48652e-07 1.46722e-21 1.07637e-10)
(-1.57083e-07 1.41318e-07 -7.32059e-20 1.5721e-07 -8.8924e-21 -1.27453e-10)
(-1.66303e-07 1.23767e-07 3.3113e-20 1.65144e-07 4.4492e-21 1.15865e-09)
(-9.69543e-08 1.83137e-07 7.85023e-22 9.69136e-08 -3.59301e-22 4.07093e-11)
(-1.07015e-07 1.7495e-07 -1.49593e-20 1.06993e-07 -1.80914e-21 2.18706e-11)
(-1.1642e-07 1.65739e-07 1.10789e-20 1.16488e-07 1.97706e-21 -6.77719e-11)
(-1.25686e-07 1.55757e-07 1.3268e-20 1.25708e-07 1.26264e-21 -2.2282e-11)
(-1.34632e-07 1.44283e-07 -3.1472e-20 1.34523e-07 -3.57066e-21 1.09475e-10)
(-1.42687e-07 1.32427e-07 -1.45094e-20 1.42802e-07 -1.49968e-21 -1.14429e-10)
(-1.51609e-07 1.1671e-07 1.81492e-20 1.5055e-07 1.74856e-21 1.05979e-09)
(-8.60857e-08 1.6783e-07 -7.08041e-20 8.60571e-08 -8.80354e-21 2.86516e-11)
(-9.54407e-08 1.60582e-07 2.58608e-20 9.54313e-08 3.63525e-21 9.3925e-12)
(-1.0428e-07 1.52576e-07 2.22787e-20 1.04327e-07 2.41708e-21 -4.63654e-11)
(-1.12992e-07 1.43732e-07 -7.55226e-21 1.12997e-07 -1.2809e-21 -5.55378e-12)
(-1.21448e-07 1.33539e-07 4.44866e-20 1.21348e-07 5.8942e-21 9.92564e-11)
(-1.29201e-07 1.22962e-07 -4.5769e-20 1.29305e-07 -4.70259e-21 -1.04545e-10)
(-1.37724e-07 1.08966e-07 -2.38783e-20 1.36784e-07 -3.20447e-21 9.40187e-10)
(-7.61724e-08 1.52729e-07 -1.87692e-21 7.61298e-08 2.88789e-22 4.25295e-11)
(-8.4837e-08 1.46392e-07 4.98097e-20 8.48033e-08 5.99819e-21 3.37502e-11)
(-9.30661e-08 1.39349e-07 -3.90081e-20 9.30958e-08 -4.98962e-21 -2.97162e-11)
(-1.01219e-07 1.31531e-07 -4.51559e-20 1.01215e-07 -5.49257e-21 3.6556e-12)
(-1.0917e-07 1.22503e-07 3.63874e-20 1.09082e-07 4.49709e-21 8.85035e-11)
(-1.166e-07 1.13086e-07 9.541e-20 1.16682e-07 1.17861e-20 -8.22616e-11)
(-1.24638e-07 1.00677e-07 -3.29528e-20 1.23818e-07 -4.30653e-21 8.19981e-10)
(-6.71745e-08 1.38081e-07 1.75215e-20 6.71484e-08 2.03873e-21 2.60651e-11)
(-7.51687e-08 1.32525e-07 -2.2452e-21 7.51507e-08 -3.37159e-22 1.7988e-11)
(-8.28033e-08 1.26331e-07 -4.1164e-21 8.28429e-08 -2.20042e-22 -3.95998e-11)
(-9.04032e-08 1.19431e-07 -2.24718e-21 9.04106e-08 -1.24056e-22 -7.40091e-12)
(-9.78362e-08 1.11448e-07 6.37156e-20 9.77793e-08 7.36497e-21 5.69176e-11)
(-1.04929e-07 1.03071e-07 -1.04709e-20 1.05003e-07 -1.8419e-21 -7.38031e-11)
(-1.12428e-07 9.20955e-08 -8.87454e-20 1.11751e-07 -1.04679e-20 6.76201e-10)
(-5.89922e-08 1.24185e-07 -3.62593e-20 5.89499e-08 -4.53795e-21 4.22273e-11)
(-6.63709e-08 1.19299e-07 4.35933e-20 6.63236e-08 5.32958e-21 4.72817e-11)
(-7.34084e-08 1.13844e-07 1.10959e-20 7.34252e-08 1.67699e-21 -1.68173e-11)
(-8.04667e-08 1.07751e-07 -2.3766e-20 8.04572e-08 -3.19511e-21 9.43521e-12)
(-8.73874e-08 1.00695e-07 -3.12452e-20 8.73312e-08 -3.8252e-21 5.62038e-11)
(-9.4142e-08 9.32396e-08 1.1302e-20 9.41669e-08 1.22882e-21 -2.4888e-11)
(-1.01081e-07 8.35307e-08 8.62825e-21 1.00496e-07 1.92529e-21 5.85044e-10)
(-5.16999e-08 1.11449e-07 1.57443e-20 5.16919e-08 1.90293e-21 8.01159e-12)
(-5.84832e-08 1.07145e-07 -2.51523e-20 5.84705e-08 -3.33317e-21 1.26899e-11)
(-6.49796e-08 1.02324e-07 6.47415e-20 6.50224e-08 7.7703e-21 -4.28317e-11)
(-7.15232e-08 9.69549e-08 -5.15993e-20 7.15388e-08 -6.23306e-21 -1.56191e-11)
(-7.79617e-08 9.07427e-08 7.23334e-20 7.79416e-08 8.91077e-21 2.00486e-11)
(-8.43499e-08 8.41501e-08 -3.94516e-20 8.43792e-08 -4.98608e-21 -2.93357e-11)
(-9.07973e-08 7.56145e-08 8.03047e-20 9.03384e-08 9.79468e-21 4.5895e-10)
(-4.60406e-08 1.00461e-07 -4.1095e-20 4.60331e-08 -5.51977e-21 7.49423e-12)
(-5.23239e-08 9.65449e-08 -1.02793e-21 5.23179e-08 -3.00068e-23 6.04691e-12)
(-5.83314e-08 9.21658e-08 -2.86014e-20 5.83866e-08 -3.67141e-21 -5.52767e-11)
(-6.44484e-08 8.7284e-08 -1.67009e-21 6.44639e-08 9.6271e-23 -1.55689e-11)
(-7.04673e-08 8.16378e-08 -1.24914e-20 7.04611e-08 -2.1298e-21 6.12214e-12)
(-7.65566e-08 7.55974e-08 -2.06213e-20 7.65761e-08 -2.23927e-21 -1.94945e-11)
(-8.25416e-08 6.79422e-08 2.87192e-20 8.22045e-08 2.76883e-21 3.37096e-10)
(-4.14202e-08 9.17561e-08 -5.95559e-20 4.14027e-08 -7.22683e-21 1.75156e-11)
(-4.72861e-08 8.812e-08 -9.12272e-21 4.72735e-08 -9.69351e-22 1.25288e-11)
(-5.29148e-08 8.40748e-08 3.45322e-20 5.2947e-08 4.38191e-21 -3.22592e-11)
(-5.86505e-08 7.95472e-08 3.29995e-23 5.86308e-08 -1.29828e-22 1.97004e-11)
(-6.42717e-08 7.43053e-08 -2.99643e-20 6.42356e-08 -3.9124e-21 3.61099e-11)
(-7.0057e-08 6.86689e-08 2.9627e-21 7.00203e-08 1.24971e-21 3.67361e-11)
(-7.55873e-08 6.1658e-08 -4.50323e-20 7.5285e-08 -6.06561e-21 3.02274e-10)
(-3.71276e-08 8.42593e-08 8.53349e-21 3.71223e-08 1.48289e-21 5.27034e-12)
(-4.26132e-08 8.08961e-08 2.60856e-20 4.26052e-08 3.26027e-21 8.08882e-12)
(-4.78905e-08 7.71684e-08 -2.03082e-20 4.79097e-08 -2.70066e-21 -1.91547e-11)
(-5.32435e-08 7.29815e-08 -2.86338e-20 5.32094e-08 -3.76942e-21 3.40939e-11)
(-5.84868e-08 6.81163e-08 -5.44101e-20 5.84339e-08 -6.23246e-21 5.29266e-11)
(-6.39008e-08 6.2884e-08 1.15504e-19 6.38516e-08 1.38814e-20 4.91846e-11)
(-6.90379e-08 5.64626e-08 -7.71045e-20 6.8796e-08 -8.76519e-21 2.41942e-10)
(-3.29986e-08 7.69576e-08 2.43763e-20 3.30316e-08 3.08933e-21 -3.30211e-11)
(-3.80823e-08 7.38209e-08 -8.49825e-21 3.81332e-08 -1.25412e-21 -5.0961e-11)
(-4.30429e-08 7.04028e-08 7.80106e-21 4.31155e-08 1.01439e-21 -7.26777e-11)
(-4.80394e-08 6.65548e-08 -4.48474e-20 4.80754e-08 -5.57687e-21 -3.60586e-11)
(-5.29441e-08 6.20514e-08 6.79661e-20 5.29638e-08 8.59168e-21 -1.96585e-11)
(-5.8014e-08 5.72065e-08 -6.64143e-20 5.80277e-08 -8.4932e-21 -1.37589e-11)
(-6.27902e-08 5.13867e-08 9.14798e-20 6.26288e-08 1.14511e-20 1.61456e-10)
(-2.41414e-08 7.20953e-08 3.3122e-20 2.40521e-08 4.22043e-21 8.92237e-11)
(-2.89218e-08 6.95725e-08 1.69886e-20 2.88335e-08 2.12924e-21 8.83206e-11)
(-3.34904e-08 6.66851e-08 -1.46246e-20 3.34526e-08 -1.92622e-21 3.78162e-11)
(-3.81511e-08 6.35316e-08 -1.31851e-20 3.80939e-08 -1.78506e-21 5.71335e-11)
(-4.27809e-08 5.99914e-08 -2.91998e-20 4.27129e-08 -3.36349e-21 6.79757e-11)
(-4.73597e-08 5.58593e-08 -2.90121e-20 4.73163e-08 -3.72691e-21 4.34146e-11)
(-5.2136e-08 5.1423e-08 7.51232e-20 5.21307e-08 9.61115e-21 5.3682e-12)
(-5.67335e-08 4.62737e-08 -4.22218e-20 5.67113e-08 -5.49428e-21 2.2255e-11)
(-2.06468e-08 6.42698e-08 -1.66569e-20 2.08286e-08 -2.05068e-21 -1.81792e-10)
(-2.50372e-08 6.17409e-08 2.80861e-20 2.51962e-08 3.2907e-21 -1.59019e-10)
(-2.92363e-08 5.89482e-08 -2.91491e-20 2.93868e-08 -3.39132e-21 -1.50506e-10)
(-3.34623e-08 5.58563e-08 -2.58047e-20 3.35401e-08 -3.35637e-21 -7.77944e-11)
(-3.76511e-08 5.2418e-08 2.39925e-20 3.76467e-08 2.90554e-21 4.34814e-12)
(-4.17961e-08 4.84666e-08 4.78732e-20 4.1709e-08 6.43099e-21 8.70733e-11)
(-4.61994e-08 4.40012e-08 -8.72649e-21 4.59343e-08 -1.65647e-21 2.65077e-10)
(-5.00618e-08 3.90502e-08 2.20301e-20 4.95039e-08 3.02586e-21 5.579e-10)
(-1.59191e-08 5.44242e-08 5.38272e-20 1.57143e-08 6.87679e-21 2.04785e-10)
(-1.99936e-08 5.20519e-08 -6.32836e-20 1.9945e-08 -8.2486e-21 4.86205e-11)
(-2.3978e-08 4.94274e-08 7.33961e-20 2.41309e-08 9.44415e-21 -1.529e-10)
(-2.80557e-08 4.65173e-08 -5.7937e-20 2.83668e-08 -7.24116e-21 -3.11167e-10)
(-3.21353e-08 4.32928e-08 -6.64529e-20 3.26252e-08 -8.51041e-21 -4.89859e-10)
(-3.61592e-08 3.96507e-08 9.55751e-20 3.69285e-08 1.21026e-20 -7.69391e-10)
(-4.03566e-08 3.60593e-08 -5.9387e-20 4.15666e-08 -7.55114e-21 -1.21009e-09)
(-4.47335e-08 3.2302e-08 4.68034e-20 4.66042e-08 5.76164e-21 -1.8707e-09)
(-1.0601e-08 4.04731e-08 8.0395e-21 9.84207e-09 7.80227e-22 7.58879e-10)
(-1.37766e-08 3.75566e-08 -5.6235e-20 1.26381e-08 -6.99876e-21 1.13845e-09)
(-1.67726e-08 3.45218e-08 3.66364e-20 1.53002e-08 4.31327e-21 1.47238e-09)
(-1.98387e-08 3.13574e-08 -9.88025e-21 1.79867e-08 -8.71317e-22 1.85203e-09)
(-2.29883e-08 2.79174e-08 -4.06793e-20 2.0727e-08 -4.86133e-21 2.26133e-09)
(-2.63079e-08 2.39107e-08 1.07744e-19 2.35032e-08 1.30957e-20 2.80475e-09)
(-3.05411e-08 1.8116e-08 -5.60033e-20 2.64931e-08 -6.56495e-21 4.048e-09)
(-3.26026e-08 1.24951e-08 1.13235e-20 2.74963e-08 9.88532e-22 5.1063e-09)
(-7.98055e-09 3.08962e-08 -2.81083e-20 1.25833e-08 -3.51099e-21 -4.60278e-09)
(-1.21311e-08 2.84585e-08 -2.85118e-20 1.7422e-08 -3.43228e-21 -5.29089e-09)
(-1.6214e-08 2.56631e-08 -4.61029e-20 2.21528e-08 -5.99397e-21 -5.93882e-09)
(-2.02823e-08 2.25063e-08 7.93398e-20 2.67977e-08 9.93502e-21 -6.51541e-09)
(-2.40796e-08 1.9242e-08 1.32717e-20 3.13022e-08 1.79904e-21 -7.2226e-09)
(-2.69701e-08 1.62402e-08 -2.57234e-20 3.55677e-08 -3.48151e-21 -8.59758e-09)
(-2.94018e-08 1.59375e-08 6.68766e-20 4.0499e-08 8.40794e-21 -1.10972e-08)