/*--------------------------------*- C++ -*----------------------------------*\
| =========                 |                                                 |
| \\      /  F ield         | OpenFOAM: The Open Source CFD Toolbox           |
|  \\    /   O peration     | Version:  2506                                  |
|   \\  /    A nd           | Website:  www.openfoam.com                      |
|    \\/     M anipulation  |                                                 |
\*---------------------------------------------------------------------------*/
FoamFile
{
    version     2.0;
    format      ascii;
    arch        "LSB;label=32;scalar=64";
    class       volVectorField;
    location    "150";
    object      U;
}
// * * * * * * * * * * * * * * * * * * * * * * * * * * * * * * * * * * * * * //

dimensions      [0 1 -1 0 0 0 0];

internalField   nonuniform List<vector> 
1340
(
(23.271 2.65933 1.43451e-16)
(22.5729 2.96161 6.95898e-16)
(21.6118 3.16974 2.02762e-15)
(18.9607 3.35594 2.27039e-15)
(24.8969 3.22037 -6.75015e-17)
(24.3181 3.46874 -5.36672e-16)
(23.7514 3.6907 -2.11572e-15)
(21.7182 3.75729 -2.34562e-15)
(25.6078 3.07642 7.26899e-17)
(25.0708 3.41466 -7.89915e-16)
(24.4624 3.66907 4.03658e-15)
(22.6232 3.77117 1.03604e-14)
(25.9129 3.29485 -4.00559e-16)
(25.4702 3.56634 2.18279e-15)
(24.9267 3.7418 -1.84658e-15)
(23.2633 3.80683 -2.03387e-15)
(25.8547 3.03734 -1.38535e-16)
(25.4584 3.369 -7.35635e-16)
(24.9933 3.59117 2.65541e-15)
(23.5924 3.70708 -3.0145e-15)
(25.8255 3.21381 4.9157e-16)
(25.4351 3.49186 -2.19962e-15)
(24.9668 3.63786 -3.07839e-15)
(23.7282 3.67591 1.05762e-15)
(25.7908 3.04323 -4.65418e-16)
(25.4109 3.33601 1.59391e-15)
(24.9445 3.50016 1.76979e-16)
(23.802 3.5465 5.48862e-15)
(25.7518 3.09716 5.21032e-16)
(25.382 3.36626 -5.43832e-16)
(24.9261 3.48846 2.51599e-16)
(23.8655 3.47701 -2.98196e-16)
(25.7169 3.02471 -1.44256e-17)
(25.3585 3.28956 2.82696e-16)
(24.9151 3.40845 3.08546e-16)
(23.9336 3.3842 -4.04487e-16)
(25.6781 3.01484 2.15702e-16)
(25.3318 3.2644 1.87639e-15)
(24.9026 3.36046 -2.40443e-15)
(24.0006 3.30481 1.9296e-15)
(25.6405 2.97448 2.60684e-17)
(25.3072 3.21436 -2.1943e-15)
(24.8923 3.29965 3.92907e-15)
(24.066 3.22608 2.09333e-15)
(25.6017 2.94748 -4.9818e-16)
(25.2822 3.17442 1.43263e-15)
(24.8832 3.24503 -2.21138e-15)
(24.1293 3.1521 -3.93719e-15)
(25.563 2.91399 6.35623e-16)
(25.258 3.12936 -2.08481e-15)
(24.8758 3.18902 -1.96769e-16)
(24.1903 3.08146 -5.36031e-15)
(25.5239 2.88304 -4.84615e-16)
(25.234 3.08612 1.42657e-15)
(24.8697 3.13505 3.91978e-16)
(24.249 3.01488 3.41658e-15)
(25.4847 2.85096 1.21956e-16)
(25.2106 3.04206 6.21715e-16)
(24.8649 3.08194 1.65279e-15)
(24.3051 2.95231 -1.71729e-15)
(25.4456 2.81953 7.27326e-17)
(25.1878 2.99858 -9.60046e-16)
(24.8615 3.0304 -2.34969e-15)
(24.3587 2.89371 -1.49457e-15)
(25.4068 2.7883 -1.61697e-17)
(25.1657 2.95551 5.04115e-16)
(24.8595 2.98044 -8.26989e-16)
(24.4097 2.83925 4.12336e-15)
(25.3685 2.7577 3.22045e-16)
(25.1444 2.91324 -1.55845e-15)
(24.8587 2.93224 1.42507e-15)
(24.4582 2.78879 -3.09539e-15)
(25.3306 2.72787 -9.50757e-16)
(25.1238 2.872 4.16371e-16)
(24.859 2.88599 1.07444e-15)
(24.5042 2.74242 4.93245e-15)
(25.2934 2.69904 5.06802e-16)
(25.104 2.83203 1.23091e-15)
(24.8603 2.84184 -1.11075e-15)
(24.5476 2.70004 -3.02198e-15)
(25.2569 2.67142 -1.52089e-16)
(25.0849 2.79362 -1.00894e-15)
(24.8624 2.79992 -5.47849e-16)
(24.5884 2.66152 6.20153e-16)
(25.2214 2.64525 4.51751e-17)
(25.0666 2.75699 1.66703e-16)
(24.8652 2.76043 7.3252e-16)
(24.6266 2.62686 -9.73665e-18)
(25.187 2.62077 3.31484e-16)
(25.0493 2.72241 3.40521e-17)
(24.8686 2.72348 9.20261e-16)
(24.6624 2.59583 -7.93623e-16)
(25.1538 2.59816 -2.70958e-16)
(25.0328 2.6901 -3.07322e-16)
(24.8725 2.68923 -1.90607e-15)
(24.6958 2.56843 4.92869e-16)
(25.1219 2.57767 2.117e-16)
(25.0171 2.66028 6.5727e-16)
(24.8768 2.65779 7.5407e-16)
(24.7268 2.54445 4.35736e-16)
(25.0915 2.55946 -5.46114e-16)
(25.0025 2.63314 -3.65125e-18)
(24.8812 2.62929 1.28534e-15)
(24.7557 2.52378 6.61202e-16)
(25.0629 2.54375 4.96802e-16)
(24.9889 2.60888 4.15853e-16)
(24.886 2.60383 -1.02765e-15)
(24.7824 2.50631 -1.68204e-15)
(25.036 2.53066 1.59794e-17)
(24.9764 2.58762 -1.37841e-16)
(24.8909 2.58149 7.3977e-16)
(24.8073 2.49191 1.09274e-15)
(25.0111 2.52034 -3.04447e-17)
(24.965 2.56949 -4.4807e-16)
(24.8959 2.56233 -1.0885e-15)
(24.8303 2.48047 -1.33905e-15)
(24.9882 2.51286 -1.33657e-16)
(24.9547 2.55457 -2.98491e-16)
(24.9009 2.54639 5.35704e-16)
(24.8515 2.47187 -8.72988e-17)
(24.9674 2.5083 -1.23707e-16)
(24.9456 2.54292 -7.53633e-17)
(24.906 2.5337 6.05096e-17)
(24.871 2.466 1.30003e-15)
(24.949 2.50668 -1.59684e-16)
(24.9378 2.53456 4.33503e-16)
(24.9111 2.52423 1.86526e-16)
(24.8891 2.46278 1.23292e-15)
(24.9329 2.508 -5.37038e-17)
(24.9314 2.52949 -1.48928e-16)
(24.9165 2.51799 -4.62119e-16)
(24.906 2.46213 -1.13192e-15)
(24.9194 2.51218 3.17136e-16)
(24.9264 2.52764 1.89821e-16)
(24.922 2.51488 -2.51166e-18)
(24.9216 2.46395 -7.79189e-16)
(24.9083 2.51917 -7.20312e-17)
(24.9229 2.52895 -6.72483e-16)
(24.9278 2.51485 5.56208e-16)
(24.9363 2.46817 3.77408e-16)
(24.8999 2.52882 1.15003e-16)
(24.9209 2.53329 4.31845e-16)
(24.934 2.51778 -6.95709e-16)
(24.9501 2.47469 -6.92099e-16)
(24.8941 2.54099 -1.13428e-16)
(24.9206 2.54052 -2.06049e-16)
(24.9407 2.52354 3.48273e-16)
(24.9633 2.48341 2.32098e-16)
(24.8909 2.55548 1.93999e-16)
(24.9219 2.55047 4.55806e-17)
(24.9478 2.53198 -4.19563e-16)
(24.976 2.49423 9.79726e-16)
(24.8487 2.57547 -1.20615e-16)
(24.8906 2.57215 5.18112e-17)
(24.925 2.56296 -2.32235e-16)
(24.9558 2.54294 7.48654e-16)
(24.9884 2.50707 -1.60556e-16)
(24.8498 2.59924 3.40283e-16)
(24.8926 2.59075 -5.70087e-16)
(24.9298 2.57773 9.12851e-16)
(24.9645 2.55619 3.62806e-17)
(25.0007 2.52176 4.06245e-17)
(24.8539 2.62404 -1.00897e-16)
(24.8972 2.611 1.13346e-16)
(24.9363 2.59457 -5.23552e-16)
(24.9739 2.57156 -8.43307e-16)
(25.013 2.53819 -2.20153e-17)
(24.8611 2.64965 -1.33435e-16)
(24.9042 2.63267 3.46323e-16)
(24.9445 2.61324 -9.62861e-17)
(24.9843 2.58884 3.1764e-16)
(25.0254 2.5562 -5.09176e-16)
(24.8711 2.67585 2.29898e-16)
(24.9137 2.65552 2.78142e-16)
(24.9545 2.63349 2.72702e-16)
(24.9956 2.60779 9.20673e-17)
(25.0381 2.57566 5.00599e-16)
(24.8837 2.7024 3.18041e-17)
(24.9253 2.67929 -9.26482e-17)
(24.9661 2.65505 -3.19003e-16)
(25.008 2.62819 3.86607e-16)
(25.0512 2.59638 2.32279e-16)
(24.8987 2.72912 -2.35814e-17)
(24.939 2.70376 -3.39508e-16)
(24.9794 2.67769 2.24289e-16)
(25.0214 2.64982 -2.89096e-16)
(25.0648 2.61821 -9.83156e-17)
(24.916 2.75582 7.62145e-17)
(24.9548 2.72869 7.17681e-17)
(24.9943 2.70116 -1.3792e-16)
(25.036 2.67244 -3.08807e-16)
(25.079 2.64097 -5.36464e-16)
(24.9353 2.78232 -5.93117e-17)
(24.9723 2.75387 3.24136e-16)
(25.0106 2.72522 -2.74308e-17)
(25.0515 2.69583 3.59054e-16)
(25.0939 2.66449 3.3177e-16)
(24.9564 2.80846 1.00712e-16)
(24.9915 2.7791 -2.59782e-16)
(25.0284 2.74966 -3.16354e-17)
(25.0682 2.71978 1.25419e-16)
(25.1095 2.68857 -5.20282e-16)
(24.979 2.83411 1.9356e-16)
(25.0122 2.8042 -3.25383e-16)
(25.0474 2.77427 1.02127e-16)
(25.0858 2.74409 3.66534e-16)
(25.1258 2.71307 5.49211e-17)
(25.0031 2.85916 -1.09699e-16)
(25.0343 2.82903 1.95454e-17)
(25.0677 2.79887 -1.9098e-16)
(25.1045 2.76858 1.29449e-16)
(25.1429 2.73781 -1.28373e-16)
(25.0283 2.88352 1.10295e-16)
(25.0575 2.85344 1.68392e-16)
(25.0891 2.82329 -1.10128e-17)
(25.1241 2.79306 -3.96014e-16)
(25.1608 2.76263 -1.87235e-16)
(25.0545 2.90709 -4.76919e-17)
(25.0817 2.8773 -2.98932e-16)
(25.1114 2.8474 4.1987e-16)
(25.1446 2.81738 -3.25003e-16)
(25.1794 2.78738 8.40905e-17)
(25.0586 2.95931 1.98226e-17)
(25.0816 2.92984 -6.0736e-17)
(25.1067 2.90053 -5.57729e-17)
(25.1344 2.87104 1.78458e-16)
(25.1658 2.84141 4.30299e-16)
(25.1987 2.81192 -5.42936e-17)
(25.0879 2.98045 -6.11055e-17)
(25.109 2.95171 -3.00259e-16)
(25.1322 2.92303 4.54516e-16)
(25.1581 2.89412 -2.43626e-16)
(25.1875 2.865 3.21288e-16)
(25.2185 2.83613 -1.1933e-16)
(25.1173 3.00052 1.55252e-16)
(25.1367 2.97264 6.93957e-17)
(25.1582 2.94473 -2.27418e-16)
(25.1822 2.91654 1.54124e-16)
(25.2097 2.88806 -4.49121e-17)
(25.2387 2.85989 8.73522e-17)
(25.1467 3.01953 4.29971e-17)
(25.1644 2.99261 -4.94142e-17)
(25.1842 2.96559 5.30086e-17)
(25.2065 2.93822 -1.43154e-16)
(25.2321 2.91047 -1.03433e-16)
(25.2591 2.8831 -6.2613e-18)
(25.1757 3.0375 -1.5878e-16)
(25.1919 3.0116 1.95748e-16)
(25.2101 2.98555 8.32452e-17)
(25.2307 2.95909 2.09477e-16)
(25.2544 2.93217 -5.7786e-17)
(25.2797 2.90564 1.12194e-16)
(25.2043 3.05445 7.46728e-17)
(25.2191 3.02962 1.98985e-16)
(25.2357 3.00459 -1.93155e-16)
(25.2547 2.9791 -1.74758e-16)
(25.2767 2.95308 7.76155e-17)
(25.3001 2.92747 -2.27397e-16)
(25.2323 3.07041 -3.26457e-17)
(25.2458 3.04668 -9.25461e-17)
(25.261 3.02271 1.9782e-16)
(25.2785 2.99825 -3.06693e-16)
(25.2988 2.97319 -6.15459e-17)
(25.3205 2.94853 2.91558e-16)
(25.2597 3.08542 -2.85591e-16)
(25.272 3.06281 2.49034e-16)
(25.286 3.03993 -5.76826e-17)
(25.302 3.01653 5.74782e-17)
(25.3208 2.99246 2.71407e-17)
(25.3408 2.9688 -2.20634e-16)
(25.2865 3.09951 8.70015e-17)
(25.2977 3.07802 -2.56137e-16)
(25.3105 3.05625 1.7755e-16)
(25.3251 3.03392 5.95608e-17)
(25.3424 3.01087 -3.43507e-16)
(25.3608 2.98824 1.47197e-16)
(25.3035 3.13304 3.20822e-18)
(25.3125 3.11275 -5.61064e-17)
(25.3227 3.09236 4.90628e-17)
(25.3344 3.07168 5.30676e-17)
(25.3478 3.05043 -1.38561e-16)
(25.3637 3.02842 -6.09711e-17)
(25.3806 3.00684 7.54904e-17)
(25.3293 3.14434 -2.52064e-16)
(25.3376 3.12513 1.0015e-16)
(25.3468 3.10582 8.54413e-17)
(25.3574 3.08621 -3.0954e-17)
(25.3697 3.06605 1.92162e-16)
(25.3843 3.04509 -2.07318e-16)
(25.3999 3.02456 -9.58904e-17)
(25.3539 3.15481 -3.48442e-18)
(25.3613 3.13666 1.80265e-16)
(25.3697 3.1184 -1.50502e-16)
(25.3794 3.09987 -1.78027e-16)
(25.3907 3.08078 1.56217e-16)
(25.4041 3.06087 4.24436e-16)
(25.4184 3.0414 -1.33294e-16)
(25.3769 3.16448 6.2696e-17)
(25.3836 3.14734 -7.6596e-18)
(25.3913 3.13012 -1.24129e-17)
(25.4001 3.11263 -7.02891e-18)
(25.4104 3.09459 2.55962e-16)
(25.4226 3.07574 -5.83986e-17)
(25.4358 3.05732 -3.41096e-16)
(25.3981 3.17338 -1.19423e-16)
(25.4043 3.15723 1.5143e-16)
(25.4112 3.14101 3.77747e-17)
(25.4192 3.12454 -9.35554e-17)
(25.4286 3.10755 -1.2107e-16)
(25.4399 3.08973 4.84842e-17)
(25.452 3.07237 3.20395e-17)
(25.4177 3.18148 4.98626e-17)
(25.4232 3.16629 -8.54147e-17)
(25.4295 3.15105 2.24748e-16)
(25.4368 3.13557 -1.91288e-16)
(25.4454 3.11959 2.77216e-16)
(25.4557 3.1028 -1.68735e-16)
(25.4668 3.08646 2.91563e-16)
(25.4329 3.18775 -1.30767e-16)
(25.4379 3.17336 -4.72672e-18)
(25.4438 3.15893 -9.63219e-17)
(25.4505 3.1443 -6.15695e-18)
(25.4585 3.1292 -5.13228e-17)
(25.4681 3.1133 -8.53543e-17)
(25.4786 3.09791 9.65836e-17)
(25.4444 3.19271 -1.85278e-16)
(25.4492 3.17898 -2.7131e-17)
(25.4546 3.16525 1.16024e-16)
(25.461 3.15133 -1.54576e-18)
(25.4685 3.13698 -1.11188e-16)
(25.4776 3.12188 1.31094e-17)
(25.4876 3.1073 -1.56703e-16)
(25.4559 3.19756 2.9245e-17)
(25.4603 3.18452 8.12641e-17)
(25.4654 3.17149 -6.86837e-17)
(25.4713 3.15831 -9.92236e-17)
(25.4784 3.14474 -1.93676e-16)
(25.487 3.13047 4.66829e-16)
(25.4963 3.11676 -2.68658e-16)
(25.4671 3.20228 7.36793e-17)
(25.4712 3.18993 -2.79692e-17)
(25.4759 3.17763 2.32173e-17)
(25.4814 3.16519 -1.47668e-16)
(25.488 3.15241 2.42349e-16)
(25.496 3.13898 -2.64992e-16)
(25.5048 3.12614 3.09049e-16)
(25.475 3.21861 9.78909e-17)
(25.4781 3.20682 4.85364e-17)
(25.4818 3.1952 -4.55614e-17)
(25.4861 3.18365 -4.272e-17)
(25.4912 3.17201 -9.41373e-17)
(25.4973 3.16006 -1.00747e-16)
(25.5048 3.1475 2.94171e-16)
(25.5129 3.13555 -1.43896e-16)
(25.4857 3.22209 -4.78587e-17)
(25.4885 3.21096 8.16357e-17)
(25.4918 3.20004 -8.62759e-17)
(25.4957 3.18924 -7.77262e-17)
(25.5004 3.17838 7.8776e-17)
(25.506 3.16729 1.60274e-16)
(25.5129 3.15567 -3.44702e-17)
(25.5205 3.14479 6.85127e-17)
(25.4954 3.22557 1.53432e-16)
(25.4977 3.21515 -1.8171e-16)
(25.5006 3.20493 2.12865e-16)
(25.504 3.19483 -1.74389e-16)
(25.5081 3.18469 -2.03887e-16)
(25.5131 3.17432 3.14085e-16)
(25.5192 3.16344 -2.21493e-16)
(25.5259 3.153 1.45739e-16)
(25.502 3.22724 2.19359e-17)
(25.5039 3.21769 -1.5839e-16)
(25.5062 3.20845 1.04686e-16)
(25.509 3.19943 -2.91469e-17)
(25.5125 3.19047 -1.19989e-16)
(25.5169 3.18145 3.45431e-16)
(25.5224 3.17216 -2.06111e-16)
(25.5291 3.16424 3.52284e-17)
(25.5025 3.22813 -7.86485e-17)
(25.5033 3.21843 -7.95792e-17)
(25.5046 3.20898 -1.27526e-16)
(25.5065 3.19971 2.27537e-16)
(25.509 3.1905 3.89552e-17)
(25.5121 3.1811 -8.09714e-17)
(25.5157 3.1711 2.37583e-16)
(25.5192 3.16048 -3.04876e-16)
(25.4995 3.2351 9.99476e-17)
(25.4997 3.22833 3.24645e-17)
(25.5004 3.22191 -1.48482e-16)
(25.5014 3.21574 -1.01775e-16)
(25.503 3.20974 4.33913e-17)
(25.5056 3.20402 5.29899e-17)
(25.5106 3.19884 -1.31574e-16)
(25.5186 3.19732 1.22019e-17)
(25.4862 3.19353 -1.33306e-16)
(25.4864 3.18287 1.05495e-16)
(25.4874 3.17273 9.34842e-17)
(25.4891 3.16304 -7.2348e-17)
(25.4912 3.15366 3.08421e-16)
(25.493 3.14395 -4.29156e-16)
(25.492 3.13294 1.71472e-16)
(25.4874 3.11822 -2.62529e-16)
(25.524 3.32876 1.50961e-16)
(25.525 3.32726 -1.17869e-16)
(25.526 3.32581 9.99673e-18)
(25.5272 3.32446 6.29699e-17)
(25.5296 3.32341 -8.35031e-17)
(25.5346 3.32336 -1.46838e-16)
(25.5479 3.32574 1.67154e-16)
(25.5683 3.3346 -3.97531e-17)
(25.5704 2.97709 1.16224e-16)
(25.5757 2.96543 1.41634e-16)
(25.5817 2.95438 -1.13377e-16)
(25.588 2.9437 -3.0188e-16)
(25.593 2.93292 4.04089e-16)
(25.5949 2.92192 -3.43142e-16)
(25.5854 2.90954 8.32765e-16)
(25.5676 2.90166 -5.23638e-16)
(18.9579 1.42533 8.23403e-19)
(21.4596 1.29714 1.5804e-17)
(22.3809 1.37632 7.75254e-19)
(22.9088 1.47204 -3.51495e-19)
(23.1894 1.53899 1.3715e-18)
(23.3214 1.62409 9.45409e-19)
(23.413 1.68159 -2.0443e-20)
(23.5025 1.75651 1.85278e-19)
(23.5947 1.81567 2.28875e-19)
(23.6854 1.8753 0)
(23.774 1.92916 -2.07033e-17)
(23.8601 1.97872 3.01443e-19)
(23.9435 2.02399 -9.69348e-20)
(24.024 2.06502 -8.76537e-20)
(24.1014 2.10199 3.52241e-20)
(24.1755 2.13502 2.79737e-17)
(24.2462 2.16451 4.5875e-17)
(24.3135 2.19046 -2.80352e-20)
(24.3774 2.21336 2.0501e-20)
(24.4376 2.23345 -2.46306e-20)
(24.4941 2.25105 -4.75495e-21)
(24.5471 2.26654 4.71381e-21)
(24.5965 2.28021 6.70002e-20)
(24.6425 2.29246 4.03612e-20)
(24.6851 2.30359 2.37201e-19)
(24.7245 2.31391 -3.40387e-20)
(24.7609 2.32371 4.54174e-19)
(24.7944 2.33327 3.28181e-19)
(24.8253 2.34283 3.45256e-20)
(24.8535 2.35257 2.41858e-19)
(24.8794 2.3627 -6.25099e-19)
(24.9031 2.37336 -8.00713e-17)
(24.925 2.38472 -3.12008e-17)
(24.945 2.39685 1.94783e-18)
(24.9635 2.40988 -1.94098e-18)
(24.9807 2.42387 -1.48172e-18)
(24.9968 2.43888 2.83081e-18)
(25.0118 2.45492 5.78638e-19)
(25.0262 2.47205 4.92503e-19)
(25.0399 2.49022 -2.11612e-18)
(25.0532 2.50943 -1.11611e-16)
(25.0663 2.52964 2.41228e-18)
(25.0792 2.55079 -2.99631e-17)
(25.0922 2.5728 -8.58325e-17)
(25.1054 2.59559 2.32113e-18)
(25.119 2.61906 -7.35321e-17)
(25.1329 2.6431 1.53392e-18)
(25.1473 2.66758 1.38716e-18)
(25.1623 2.69239 1.30008e-16)
(25.1779 2.71739 2.9584e-19)
(25.1942 2.74247 1.81206e-18)
(25.2111 2.76749 -2.09491e-16)
(25.2285 2.79233 -4.8436e-19)
(25.2466 2.81688 1.30566e-17)
(25.265 2.84104 -7.47933e-20)
(25.2836 2.86468 -3.28334e-19)
(25.3024 2.88773 -1.42206e-18)
(25.3212 2.91011 5.30957e-17)
(25.3399 2.93177 1.21009e-17)
(25.3586 2.95267 1.241e-16)
(25.3772 2.97278 2.26891e-16)
(25.3957 2.99206 1.43828e-16)
(25.4136 3.0105 5.32305e-17)
(25.4309 3.02806 2.10366e-19)
(25.4472 3.04472 2.46848e-18)
(25.4624 3.0605 5.63871e-17)
(25.4762 3.07532 -4.76522e-17)
(25.4873 3.08742 -1.10965e-18)
(25.4957 3.09737 2.15787e-18)
(25.5039 3.10743 -1.36392e-16)
(25.5118 3.11743 -1.37962e-16)
(25.5194 3.12746 8.57094e-19)
(25.5265 3.13746 9.74288e-17)
(25.5311 3.1461 -1.24122e-16)
(25.5339 3.15884 0)
(25.5223 3.15386 -1.98534e-17)
(25.5233 3.19583 -1.22349e-17)
(25.4874 3.11005 2.47742e-16)
(25.5778 3.33959 -5.76626e-18)
(25.5657 2.90074 -2.75622e-16)
(21.467 1.27008 -5.71775e-18)
(23.1882 1.2544 -4.64897e-18)
(23.8944 1.33094 8.86206e-18)
(24.1913 1.36859 -4.00537e-18)
(24.3023 1.40017 2.82431e-17)
(24.329 1.43163 1.3351e-17)
(24.344 1.46045 -3.32518e-19)
(24.3635 1.49608 3.50376e-18)
(24.3859 1.52934 5.29008e-18)
(24.4094 1.56674 0)
(24.4335 1.60455 2.36773e-17)
(24.4585 1.6437 1.41318e-17)
(24.4842 1.68373 -6.6421e-18)
(24.5105 1.72429 -1.02961e-17)
(24.5375 1.76506 3.66762e-17)
(24.5649 1.80579 -3.62045e-17)
(24.5928 1.84616 -4.55758e-17)
(24.621 1.88587 4.66266e-18)
(24.6494 1.92466 3.06352e-17)
(24.6778 1.96232 6.39831e-18)
(24.706 1.99861 -5.73861e-18)
(24.7338 2.03347 1.84655e-17)
(24.7612 2.06669 -9.17228e-18)
(24.788 2.09829 1.19352e-18)
(24.814 2.12824 4.49395e-18)
(24.8391 2.15659 -1.15722e-17)
(24.8633 2.1834 4.31951e-18)
(24.8866 2.20881 2.36024e-18)
(24.9088 2.23296 1.93764e-19)
(24.9298 2.25601 1.08801e-18)
(24.9497 2.27814 -2.30793e-18)
(24.9685 2.29954 7.92517e-17)
(24.9863 2.32042 9.42821e-17)
(25.003 2.34092 4.49174e-18)
(25.0188 2.36125 -4.77523e-17)
(25.0337 2.38154 -2.63302e-17)
(25.0478 2.40195 3.03134e-17)
(25.0613 2.42259 9.00299e-19)
(25.0742 2.44356 9.29554e-18)
(25.0867 2.46493 -5.00462e-17)
(25.0988 2.48677 3.18682e-17)
(25.1107 2.50909 9.96492e-17)
(25.1226 2.53193 2.94404e-17)
(25.1344 2.55526 9.01567e-17)
(25.1463 2.57906 1.21686e-16)
(25.1586 2.6033 6.44286e-17)
(25.1712 2.62791 7.20843e-17)
(25.1841 2.65281 -8.7816e-17)
(25.1975 2.67794 -1.25172e-16)
(25.2116 2.70319 -8.54947e-17)
(25.2262 2.72847 2.08564e-18)
(25.2414 2.75367 1.46279e-16)
(25.2572 2.77871 1.1333e-17)
(25.2735 2.80347 -2.83268e-17)
(25.2902 2.82786 -8.72844e-20)
(25.3071 2.85178 -9.55435e-17)
(25.3242 2.87514 7.45488e-18)
(25.3414 2.89787 -1.04127e-16)
(25.3586 2.91992 -2.34802e-16)
(25.3758 2.94124 -2.59021e-17)
(25.393 2.9618 -2.22947e-16)
(25.4101 2.98157 1.20112e-17)
(25.4268 3.00051 -7.75685e-19)
(25.4429 3.01859 2.95959e-16)
(25.4581 3.03577 3.60202e-17)
(25.4722 3.05209 -6.16385e-17)
(25.4851 3.06745 4.57109e-17)
(25.4954 3.08002 -5.69485e-17)
(25.5031 3.09037 6.36053e-17)
(25.5107 3.10088 1.35623e-16)
(25.518 3.11134 1.34903e-16)
(25.525 3.12184 1.02791e-18)
(25.5315 3.13239 -9.90729e-17)
(25.5356 3.1414 1.21022e-16)
(25.5374 3.15505 0)
(25.5256 3.14979 2.06621e-17)
(25.5244 3.19402 1.33019e-18)
(25.4932 3.1067 -3.35484e-16)
(25.5756 3.34 5.54678e-18)
(25.5789 2.90465 2.73882e-16)
(23.184 1.38097 4.24698e-18)
(24.3089 1.42348 9.14069e-18)
(24.7957 1.47795 1.261e-18)
(24.9408 1.5074 -1.17168e-18)
(24.9699 1.53891 -4.93496e-18)
(24.9667 1.56615 4.41716e-18)
(24.9651 1.59447 -1.18177e-19)
(24.966 1.6224 2.99528e-18)
(24.9669 1.64942 1.73789e-17)
(24.9673 1.67682 0)
(24.9673 1.70331 -8.76747e-18)
(24.9671 1.72989 7.19677e-18)
(24.9668 1.75618 -3.62527e-18)
(24.9667 1.78239 -1.48177e-17)
(24.9667 1.80852 -1.79331e-17)
(24.9671 1.83475 7.58353e-18)
(24.9681 1.861 3.23388e-17)
(24.9696 1.88748 2.4329e-17)
(24.9718 1.91402 -3.61237e-17)
(24.9747 1.94077 5.42651e-18)
(24.9784 1.96761 -6.10817e-17)
(24.9828 1.99459 -2.62124e-17)
(24.988 2.02159 5.53973e-18)
(24.994 2.04856 -1.55343e-17)
(25.0008 2.07545 4.82454e-18)
(25.0082 2.10217 1.51239e-17)
(25.0163 2.12864 4.80543e-17)
(25.025 2.15481 2.77413e-18)
(25.0341 2.18062 2.32327e-19)
(25.0435 2.20604 -7.72197e-18)
(25.0532 2.23106 -3.57037e-17)
(25.0631 2.25568 1.34863e-17)
(25.073 2.27995 -1.82645e-18)
(25.083 2.30388 5.5379e-17)
(25.093 2.32757 3.85661e-17)
(25.1029 2.35105 -4.4784e-17)
(25.1128 2.37442 -1.96865e-17)
(25.1225 2.39776 1.05169e-18)
(25.1323 2.42113 -7.04748e-17)
(25.142 2.4446 2.82742e-18)
(25.1516 2.46822 -4.48233e-17)
(25.1612 2.49205 -9.23936e-17)
(25.1709 2.51612 -2.99684e-17)
(25.1808 2.54044 -5.30581e-17)
(25.1909 2.56502 -2.76163e-18)
(25.2014 2.58984 -4.91238e-18)
(25.2122 2.61488 -7.80275e-17)
(25.2233 2.64009 5.60886e-18)
(25.235 2.66542 2.24018e-18)
(25.2473 2.69082 1.49838e-16)
(25.2601 2.71621 -3.12975e-17)
(25.2735 2.7415 -1.09122e-16)
(25.2875 2.76663 1.64226e-16)
(25.302 2.79149 2.51261e-17)
(25.317 2.81601 7.30444e-17)
(25.3321 2.84008 1.62681e-16)
(25.3475 2.86364 -2.02122e-18)
(25.363 2.88661 1.00703e-16)
(25.3786 2.90893 4.27482e-18)
(25.3942 2.93058 -4.20313e-19)
(25.41 2.9515 1.76123e-18)
(25.4257 2.97166 -7.47419e-19)
(25.441 2.99102 -8.08555e-19)
(25.4558 3.00954 -2.7913e-16)
(25.4698 3.02718 -2.9682e-17)
(25.4828 3.04398 -3.14518e-18)
(25.4947 3.05982 -4.61212e-17)
(25.5041 3.07282 -4.7409e-19)
(25.5112 3.08355 -5.79508e-17)
(25.5181 3.09447 -1.66445e-16)
(25.5247 3.10536 -1.33637e-16)
(25.5311 3.11632 -7.95159e-17)
(25.5369 3.12739 -6.04052e-17)
(25.5405 3.13682 -1.67538e-18)
(25.5411 3.1512 0)
(25.5296 3.14605 -5.19003e-17)
(25.5252 3.19168 4.17157e-16)
(25.5006 3.10449 3.32495e-16)
(25.5722 3.33921 -5.18808e-18)
(25.5948 2.90882 -8.79658e-19)
(24.1845 1.50579 -4.11618e-19)
(24.8861 1.54298 -6.11163e-18)
(25.1539 1.57023 1.34685e-18)
(25.1947 1.58849 -2.48577e-19)
(25.1911 1.60881 7.52249e-18)
(25.1847 1.62769 9.30503e-19)
(25.1828 1.64893 -2.54189e-20)
(25.1817 1.67 1.51324e-19)
(25.1802 1.69202 -8.22381e-19)
(25.1783 1.71452 0)
(25.176 1.73729 1.1631e-18)
(25.1736 1.76058 1.94222e-18)
(25.1709 1.78405 -1.04134e-18)
(25.1681 1.80775 -9.22625e-19)
(25.1652 1.83159 2.13406e-17)
(25.1623 1.85552 9.03547e-18)
(25.1596 1.87946 -3.39051e-18)
(25.157 1.90344 -9.43949e-19)
(25.1545 1.92734 2.15155e-17)
(25.1522 1.95122 2.54597e-18)
(25.1501 1.97505 3.94467e-18)
(25.1484 1.99884 2.17464e-17)
(25.1471 2.0226 4.67788e-17)
(25.1462 2.04636 -1.20364e-17)
(25.1458 2.07011 3.17487e-18)
(25.146 2.09391 -8.49975e-19)
(25.1467 2.11774 -3.87726e-17)
(25.148 2.14163 2.16869e-18)
(25.1498 2.16555 1.90896e-19)
(25.1522 2.18952 2.00725e-18)
(25.1551 2.21353 4.95343e-19)
(25.1586 2.23757 -1.55639e-18)
(25.1626 2.26162 -2.21578e-17)
(25.167 2.28568 -1.51393e-17)
(25.1718 2.30976 -6.75336e-17)
(25.177 2.33385 1.46518e-18)
(25.1825 2.35796 1.18281e-16)
(25.1884 2.38211 1.09079e-18)
(25.1946 2.40632 6.30446e-17)
(25.201 2.43061 -1.7395e-17)
(25.2077 2.45499 6.50919e-17)
(25.2146 2.4795 8.81751e-17)
(25.2219 2.50414 -2.34206e-17)
(25.2294 2.52892 6.05217e-18)
(25.2374 2.55386 -3.88563e-17)
(25.2457 2.57894 -5.0422e-18)
(25.2544 2.60414 2.40681e-18)
(25.2636 2.62944 5.72027e-18)
(25.2734 2.65481 2.27894e-18)
(25.2838 2.6802 -2.47767e-18)
(25.2948 2.70556 3.60951e-18)
(25.3063 2.73081 3.30784e-18)
(25.3185 2.7559 -1.57307e-19)
(25.3311 2.78075 -1.56993e-18)
(25.3442 2.80527 -1.06667e-16)
(25.3576 2.8294 -1.56323e-16)
(25.3712 2.85304 -7.81615e-17)
(25.385 2.87614 -1.52818e-18)
(25.399 2.89864 2.08915e-16)
(25.4131 2.92052 -4.2803e-19)
(25.4274 2.94171 2.07741e-16)
(25.4417 2.96218 -7.63601e-19)
(25.4557 2.98188 -8.27592e-19)
(25.4692 3.00078 -7.74196e-20)
(25.482 3.01883 3.27389e-18)
(25.4938 3.03605 -3.23906e-18)
(25.5047 3.05234 -2.09791e-19)
(25.5132 3.06575 -4.90676e-19)
(25.5196 3.07682 2.90493e-18)
(25.5258 3.08814 2.57321e-18)
(25.5318 3.09945 4.7417e-19)
(25.5376 3.11084 2.36587e-18)
(25.5427 3.12243 -3.01237e-19)
(25.5456 3.13229 -1.79765e-18)
(25.5451 3.14734 0)
(25.5337 3.1425 1.26216e-18)
(25.5266 3.18914 -1.61908e-17)
(25.5075 3.10272 -8.84607e-17)
(25.5712 3.33829 -2.072e-19)
(25.6082 2.91215 -6.2324e-19)
(24.9215 1.65118 -6.16564e-18)
(25.2949 1.67166 9.27844e-19)
(25.3845 1.68562 1.13293e-18)
(25.3743 1.6965 -2.96165e-19)
(25.3646 1.70818 6.65776e-18)
(25.3591 1.72006 1.54355e-17)
(25.3557 1.73321 -8.68728e-18)
(25.3517 1.7465 8.22458e-19)
(25.347 1.76073 -1.29778e-18)
(25.3419 1.77547 0)
(25.3364 1.79092 1.45633e-17)
(25.3306 1.80709 2.04223e-17)
(25.3246 1.82391 -8.09072e-18)
(25.3185 1.84144 -8.75806e-18)
(25.3124 1.85966 2.80825e-19)
(25.3064 1.87851 -1.06043e-18)
(25.3004 1.89801 -4.28438e-19)
(25.2946 1.91808 -8.99834e-19)
(25.289 1.93867 -3.23778e-17)
(25.2835 1.95975 3.32985e-18)
(25.2784 1.98125 2.96463e-18)
(25.2735 2.0031 -1.20318e-17)
(25.269 2.02526 -2.18921e-18)
(25.2649 2.04769 3.8507e-18)
(25.2611 2.07032 2.58554e-17)
(25.2578 2.09312 6.58591e-18)
(25.255 2.11607 3.64223e-17)
(25.2527 2.13914 2.17274e-17)
(25.2508 2.1623 2.71889e-17)
(25.2493 2.18555 1.61104e-17)
(25.2484 2.20889 5.29297e-17)
(25.2479 2.23231 -2.37304e-17)
(25.248 2.25582 -2.57994e-17)
(25.2486 2.27943 3.2495e-17)
(25.2496 2.30312 -9.24037e-18)
(25.2511 2.32691 1.91448e-17)
(25.2531 2.3508 -2.84696e-18)
(25.2556 2.3748 -3.8463e-17)
(25.2586 2.39892 1.44654e-17)
(25.2619 2.42315 1.23768e-17)
(25.2657 2.4475 -3.5184e-17)
(25.2699 2.47198 -8.34731e-17)
(25.2746 2.49658 5.20849e-17)
(25.2797 2.5213 6.23591e-18)
(25.2853 2.54615 -6.58141e-17)
(25.2914 2.5711 -5.19518e-18)
(25.298 2.59616 1.91539e-18)
(25.3051 2.62127 4.63738e-17)
(25.3128 2.64645 5.33561e-17)
(25.3212 2.67163 4.58015e-17)
(25.3303 2.69677 7.22658e-19)
(25.3399 2.72182 2.23784e-16)
(25.3502 2.74672 -1.62399e-19)
(25.361 2.77141 -2.50621e-17)
(25.3723 2.79582 1.00477e-16)
(25.3839 2.81986 4.13036e-17)
(25.3957 2.84346 -1.10976e-16)
(25.4078 2.86658 -1.59318e-18)
(25.4202 2.88916 9.80996e-18)
(25.4327 2.91116 2.19883e-17)
(25.4455 2.93253 -4.20522e-18)
(25.4583 2.95323 -1.21501e-17)
(25.471 2.97319 -2.03673e-16)
(25.4832 2.99239 2.57821e-16)
(25.4947 3.01078 1.38032e-16)
(25.5054 3.02837 -3.45181e-18)
(25.5152 3.04506 -2.24221e-19)
(25.5228 3.05884 -9.71218e-17)
(25.5285 3.07024 3.11804e-18)
(25.534 3.08193 3.62622e-17)
(25.5393 3.09364 5.11706e-19)
(25.5445 3.10546 2.16957e-16)
(25.5489 3.11753 -3.27207e-19)
(25.5512 3.12784 -1.17534e-16)
(25.5495 3.14349 0)
(25.538 3.13908 -1.77333e-17)
(25.5287 3.18654 1.22054e-17)
(25.5142 3.10124 8.61012e-17)
(25.5722 3.33734 1.13555e-19)
(25.6205 2.91513 -5.94397e-19)
(25.4262 1.78219 -4.43512e-19)
(25.5569 1.78992 8.65578e-19)
(25.5525 1.79899 -7.67197e-19)
(25.5364 1.80676 -5.60683e-19)
(25.5303 1.81553 -2.99543e-19)
(25.5259 1.82475 -1.21414e-17)
(25.5214 1.83445 1.54983e-17)
(25.5158 1.84445 -1.24507e-18)
(25.5096 1.85495 -9.6503e-18)
(25.5027 1.86582 0)
(25.4953 1.87719 -5.57933e-18)
(25.4874 1.889 -6.80344e-19)
(25.4791 1.90131 -7.85242e-20)
(25.4705 1.91415 -2.04568e-18)
(25.4616 1.92751 -2.00665e-19)
(25.4526 1.94142 -7.34699e-18)
(25.4434 1.95593 -1.9663e-18)
(25.4343 1.97099 -1.33177e-17)
(25.4251 1.98666 2.20197e-19)
(25.416 2.00294 4.20205e-19)
(25.4071 2.01981 3.65729e-17)
(25.3984 2.03728 2.59402e-19)
(25.39 2.05532 -2.09205e-17)
(25.3819 2.07394 2.55627e-17)
(25.3743 2.09308 -1.36687e-18)
(25.3671 2.11274 -1.71623e-17)
(25.3605 2.13287 -7.94149e-19)
(25.3543 2.15342 -4.01606e-19)
(25.3486 2.17436 -1.69942e-17)
(25.3435 2.19566 -1.23086e-17)
(25.339 2.21727 -5.1179e-17)
(25.335 2.23917 2.05295e-17)
(25.3316 2.26132 2.65041e-18)
(25.3287 2.28371 -4.98262e-17)
(25.3265 2.30631 1.0051e-17)
(25.3248 2.32911 -1.60395e-17)
(25.3236 2.3521 -2.82475e-18)
(25.3231 2.37529 4.0174e-17)
(25.3231 2.39865 -1.25593e-17)
(25.3236 2.42219 -1.18507e-17)
(25.3246 2.44589 -9.99575e-18)
(25.3262 2.46976 7.90325e-17)
(25.3284 2.49379 -1.94119e-19)
(25.331 2.51797 3.31429e-17)
(25.3343 2.5423 3.1799e-18)
(25.3382 2.56675 -5.30815e-18)
(25.3426 2.59131 -4.30942e-17)
(25.3476 2.61595 -3.41179e-17)
(25.3533 2.64066 -4.82046e-17)
(25.3597 2.6654 -1.73708e-16)
(25.3668 2.69012 6.36054e-17)
(25.3745 2.71478 -7.72566e-17)
(25.3829 2.73933 -1.36199e-16)
(25.3918 2.7637 -6.38145e-19)
(25.4013 2.78783 -6.66244e-17)
(25.4111 2.81165 -3.51856e-17)
(25.4212 2.83509 1.11602e-16)
(25.4315 2.85811 -1.67077e-18)
(25.4422 2.88064 -1.41568e-17)
(25.4532 2.90265 -2.28033e-17)
(25.4645 2.9241 -4.45137e-18)
(25.4758 2.94492 -5.04902e-19)
(25.4871 2.96506 2.0103e-16)
(25.4979 2.98448 -2.70971e-16)
(25.5082 3.00313 -1.30317e-16)
(25.5177 3.02103 -3.71243e-18)
(25.5263 3.03807 4.15725e-17)
(25.5331 3.05217 1.46128e-16)
(25.538 3.06387 3.3758e-18)
(25.5428 3.07589 2.31961e-18)
(25.5474 3.08798 2.00394e-18)
(25.5519 3.1002 -1.3499e-16)
(25.5556 3.11274 5.57478e-17)
(25.5571 3.12351 1.13117e-16)
(25.5543 3.13968 0)
(25.5426 3.13583 5.19379e-17)
(25.5314 3.18387 -3.88902e-16)
(25.5212 3.10011 -1.27022e-18)
(25.6854 1.8923 -3.07177e-19)
(25.6876 1.8941 5.69481e-19)
(25.6666 1.90107 5.17968e-19)
(25.6586 1.90697 -2.20321e-19)
(25.6546 1.91398 -1.91251e-19)
(25.65 1.92116 9.08045e-19)
(25.6446 1.92869 -1.11268e-18)
(25.6383 1.93654 2.67977e-19)
(25.6314 1.94478 4.33238e-19)
(25.6239 1.95335 0)
(25.6159 1.96233 1.98653e-19)
(25.6074 1.97169 -4.56411e-19)
(25.5985 1.98147 -5.33729e-20)
(25.5892 1.99169 4.8797e-19)
(25.5796 2.00232 -1.40672e-19)
(25.5696 2.01341 9.67808e-20)
(25.5595 2.02496 -1.42957e-18)
(25.5492 2.03698 1.05146e-18)
(25.5387 2.04947 1.66676e-19)
(25.5281 2.06246 3.45587e-18)
(25.5176 2.07595 -1.54372e-18)
(25.507 2.08996 1.53725e-17)
(25.4966 2.10449 -1.05033e-17)
(25.4864 2.11955 5.53652e-19)
(25.4765 2.13516 -2.40864e-20)
(25.4669 2.15132 5.18942e-19)
(25.4576 2.16801 -7.00852e-19)
(25.4487 2.18524 -3.59429e-19)
(25.4403 2.203 -9.28161e-19)
(25.4323 2.22128 1.61944e-18)
(25.4249 2.24006 4.09352e-19)
(25.418 2.25932 -1.31852e-18)
(25.4118 2.27903 2.49212e-18)
(25.4061 2.29918 5.19593e-17)
(25.401 2.31972 4.46563e-19)
(25.3965 2.34064 1.36769e-18)
(25.3926 2.36192 -2.72209e-18)
(25.3894 2.38354 1.0604e-18)
(25.3868 2.40546 8.50944e-19)
(25.3847 2.42766 1.90883e-19)
(25.3833 2.45015 1.29902e-18)
(25.3825 2.47289 -1.78538e-18)
(25.3822 2.49586 -1.92489e-19)
(25.3826 2.51905 4.44689e-18)
(25.3837 2.54245 3.17642e-18)
(25.3854 2.56604 -5.31962e-18)
(25.3877 2.58977 5.44676e-18)
(25.3907 2.61364 6.08637e-18)
(25.3944 2.63763 2.43489e-18)
(25.3989 2.66169 4.25791e-18)
(25.404 2.68577 8.18635e-19)
(25.4098 2.70985 -3.60634e-18)
(25.4164 2.73386 6.64347e-18)
(25.4235 2.75775 -6.5378e-19)
(25.4311 2.78146 -3.62823e-17)
(25.4391 2.80491 3.78827e-17)
(25.4475 2.82805 6.52733e-19)
(25.4561 2.85082 -1.73267e-18)
(25.4652 2.87319 -2.35009e-18)
(25.4746 2.8951 2.0167e-17)
(25.4843 2.91651 -1.7548e-16)
(25.4942 2.93735 9.99935e-18)
(25.504 2.95758 -9.82215e-19)
(25.5135 2.97714 3.31413e-19)
(25.5224 2.99597 3.95774e-18)
(25.5307 3.01411 -3.95123e-18)
(25.5382 3.03143 -1.33811e-18)
(25.5441 3.04581 -1.85044e-18)
(25.5481 3.05777 3.62162e-18)
(25.5522 3.0701 -2.93298e-17)
(25.5561 3.08252 -8.42008e-19)
(25.5598 3.09513 -2.03353e-16)
(25.5628 3.1081 1.7486e-16)