/*--------------------------------*- C++ -*----------------------------------*\
| =========                 |                                                 |
| \\      /  F ield         | OpenFOAM: The Open Source CFD Toolbox           |
|  \\    /   O peration     | Version:  2506                                  |
|   \\  /    A nd           | Website:  www.openfoam.com                      |
|    \\/     M anipulation  |                                                 |
\*---------------------------------------------------------------------------*/
FoamFile
{
    version     2.0;
    format      ascii;
    arch        "LSB;label=32;scalar=64";
    class       volScalarField;
    location    "70.020198564267872";
    object      p;
}
// * * * * * * * * * * * * * * * * * * * * * * * * * * * * * * * * * * * * * //

dimensions      [0 2 -2 0 0 0 0];

internalField   nonuniform List<scalar> 
9700
(
0.000358833
0.000356828
0.00119732
0.000347278
0.00120193
0.00190022
0.000338357
0.00120747
0.00189641
0.00262717
0.000321963
0.00122194
0.00188634
0.00261678
0.00335551
0.00030502
0.00123884
0.0018764
0.00259847
0.0033371
0.00409491
0.000282897
0.00126731
0.00185996
0.00257241
0.0033078
0.00406885
0.00485023
0.000259908
0.00130553
0.00184486
0.00253583
0.00326119
0.00402907
0.00481704
0.00562561
0.000235295
0.00136197
0.0018287
0.00249219
0.00319783
0.0039626
0.00476706
0.00558635
0.00642607
0.000215397
0.00144296
0.00181815
0.00244016
0.00311633
0.00387303
0.00468157
0.00552725
0.00638267
0.00725422
0.000203162
0.00156902
0.00181841
0.0023822
0.00301535
0.00375401
0.00456629
0.00542513
0.00631589
0.0072101
0.00811448
0.000191341
0.00174204
0.0018437
0.0023196
0.00289257
0.00360366
0.00441042
0.0052868
0.00620072
0.00713746
0.00806924
0.00900743
0.000174536
0.00193301
0.00188932
0.00225318
0.00274548
0.00341464
0.00421079
0.00509775
0.00604362
0.0070137
0.00799492
0.00896215
0.00993152
0.000162962
0.00213565
0.00193111
0.00217806
0.00256927
0.00318008
0.0039551
0.00485304
0.00582742
0.00684382
0.00786785
0.00889012
0.00988966
0.0108847
0.000155564
0.00237619
0.00196688
0.00208769
0.00235454
0.00288853
0.00363157
0.0045357
0.00554509
0.00660876
0.00769258
0.00876556
0.00982286
0.0108484
0.0118624
0.000158502
0.00264388
0.00200902
0.00197177
0.00208906
0.00252272
0.00322161
0.00412878
0.0051756
0.00629958
0.00744887
0.00859319
0.00970711
0.0107903
0.0118338
0.0128596
0.000192394
0.00295121
0.00205211
0.00181792
0.00175062
0.0020612
0.00269836
0.00360623
0.00469696
0.00589195
0.00712631
0.00835236
0.00954619
0.0106895
0.0117874
0.0128405
0.0138689
0.000267159
0.00329837
0.00209374
0.00162766
0.00131324
0.00146755
0.00202833
0.00293078
0.00407597
0.00535952
0.00669837
0.00803186
0.00932047
0.0105485
0.0117072
0.0128083
0.0138609
0.0148825
0.000397421
0.00364687
0.00212395
0.00136009
0.00074585
0.00069705
0.00115507
0.00205529
0.00326514
0.00466287
0.00613537
0.00760415
0.00901833
0.0103499
0.0115939
0.0127535
0.0138447
0.0148862
0.0158927
0.000593112
0.00395472
0.00211325
0.000978308
-7.17979e-06
-0.000324747
8.44641e-06
0.0009012
0.00220336
0.00374562
0.00539351
0.00703781
0.0086128
0.0100822
0.0114334
0.0126743
0.0138188
0.0148873
0.0159083
0.0168913
0.000760419
0.00418155
0.00201826
0.000439896
-0.00100078
-0.0016635
-0.00151967
-0.000628088
0.000790289
0.00253371
0.00440983
0.00628695
0.00807263
0.00972075
0.011215
0.0125612
0.0137785
0.0148921
0.0159269
0.016918
0.0178701
0.00097728
0.00412823
0.00177291
-0.000324968
-0.00229861
-0.00340156
-0.00351309
-0.00267376
-0.00109643
0.000907784
0.00310006
0.00528537
0.00735198
0.00923616
0.0109178
0.0124047
0.0137197
0.0148936
0.0159628
0.0169536
0.0179069
0.0188227
0.00109937
0.00390253
0.00123812
-0.00139463
-0.00400742
-0.00564529
-0.00609773
-0.00533849
-0.00362676
-0.00127935
0.00133063
0.00394271
0.00638523
0.00858499
0.0105156
0.0121887
0.0136344
0.0148931
0.0160068
0.0170193
0.0179579
0.0188678
0.0197436
0.00104367
0.00337193
0.000431962
-0.00284894
-0.00621224
-0.00857313
-0.00945971
-0.00882639
-0.0069247
-0.00421892
-0.0010651
0.00211739
0.00508099
0.0077058
0.00997033
0.0118918
0.0135123
0.0148845
0.0160654
0.0171043
0.0180506
0.0189321
0.019795
0.0206285
0.000860152
0.00257661
-0.000702147
-0.00466547
-0.00899072
-0.0122913
-0.0138882
-0.0134593
-0.0113205
-0.0080794
-0.00428783
-0.000363159
0.00329733
0.00651139
0.00922762
0.0114831
0.0133374
0.0148635
0.0161348
0.0172197
0.0181729
0.0190476
0.0198697
0.0206838
0.0214745
0.00049593
0.00178567
-0.00208068
-0.00681312
-0.012218
-0.0168547
-0.0194876
-0.0196489
-0.017276
-0.013357
-0.00859224
-0.00369265
0.000866871
0.00486772
0.00820945
0.0109181
0.0130879
0.0148206
0.0162169
0.0173643
0.0183399
0.0192015
0.0200025
0.0207653
0.0215312
0.0222813
6.88368e-05
0.00110341
-0.00358314
-0.00905394
-0.0157694
-0.0219817
-0.0262787
-0.0274567
-0.0252915
-0.0205823
-0.0146341
-0.0082086
-0.00239424
0.00261775
0.00679699
0.0101321
0.0127305
0.0147432
0.0163084
0.0175456
0.0185529
0.0194122
0.0201808
0.0209093
0.0216158
0.0223367
0.0230493
-0.000511128
0.000429169
-0.00476418
-0.0112254
-0.0191514
-0.0273843
-0.033776
-0.0368804
-0.0354933
-0.0304213
-0.0231416
-0.0146373
-0.00685699
-0.000418183
0.00484955
0.00902679
0.0122168
0.0146104
0.0164061
0.0177664
0.0188242
0.0196832
0.0204252
0.0211035
0.0217643
0.0224205
0.0231013
0.0237811
-0.00121002
-0.000526696
-0.00553068
-0.012504
-0.0220935
-0.0321952
-0.0414875
-0.0471733
-0.0479155
-0.0430088
-0.0353939
-0.0240265
-0.0132656
-0.00461994
0.00220044
0.00748451
0.0114717
0.0143908
0.0165014
0.0180325
0.0191625
0.020031
0.0207409
0.0213698
0.0219653
0.0225666
0.0231803
0.0238273
0.0244806
-0.0020161
-0.00150932
-0.00639054
-0.013025
-0.0233104
-0.0360378
-0.0480541
-0.0576098
-0.0613196
-0.058389
-0.0500701
-0.0374001
-0.0226455
-0.0107903
-0.00151732
0.00536325
0.0104036
0.0140331
0.0165796
0.0183464
0.0195813
0.0204689
0.0211476
0.0217148
0.0222406
0.0227649
0.0233175
0.0238982
0.0245195
0.0251533
-0.00313206
-0.00248331
-0.00711077
-0.0134412
-0.0233673
-0.03706
-0.0530115
-0.0662028
-0.0747492
-0.0748801
-0.0671557
-0.0532707
-0.0346418
-0.0198172
-0.00709324
0.00234622
0.00889973
0.0134728
0.0166117
0.0187088
0.0200929
0.0210171
0.0216626
0.0221601
0.0225981
0.0230362
0.0235038
0.0240204
0.0245791
0.0251835
0.0258051
-0.00420491
-0.00375825
-0.00766337
-0.0134064
-0.0230107
-0.0364701
-0.0539205
-0.0724234
-0.0855713
-0.0913236
-0.0860333
-0.0722106
-0.0514062
-0.0317599
-0.0153793
-0.00224314
0.0067105
0.0126265
0.0165593
0.0191104
0.0207113
0.0216962
0.0223108
0.0227259
0.02306
0.0233887
0.0237583
0.0241863
0.0246812
0.0252296
0.0258257
0.0264423
-0.00538783
-0.00470564
-0.00797385
-0.0127382
-0.0219016
-0.0352154
-0.0530723
-0.0729428
-0.0932253
-0.104286
-0.105247
-0.0927199
-0.0723227
-0.0482576
-0.027272
-0.00915801
0.0032921
0.0113144
0.0163663
0.0195364
0.0214434
0.0225305
0.0231194
0.0234403
0.023648
0.0238444
0.0240888
0.0244122
0.0248195
0.0253079
0.0258569
0.0264531
0.0270719
-0.00632557
-0.00538827
-0.00764672
-0.0113276
-0.0199176
-0.0331783
-0.0504678
-0.0711984
-0.0933829
-0.113175
-0.119654
-0.11397
-0.0937344
-0.0679471
-0.0419884
-0.0189694
-0.00202478
0.00912906
0.0159152
0.0199529
0.0222946
0.0235399
0.0241208
0.0243352
0.0243919
0.024425
0.0245158
0.024705
0.0250069
0.025413
0.025909
0.0264691
0.0270735
0.0277
-0.00676883
-0.00561622
-0.00666261
-0.00945189
-0.0174096
-0.0299414
-0.046082
-0.0671842
-0.0908999
-0.113117
-0.129622
-0.128676
-0.1155
-0.0889098
-0.0591726
-0.0316156
-0.00971686
0.0055114
0.01492
0.0202916
0.0232481
0.0247461
0.0253439
0.0254481
0.0253263
0.0251605
0.0250598
0.0250824
0.0252483
0.025554
0.0259777
0.0264945
0.0270747
0.0276934
0.0283319
-0.00607915
-0.00540392
-0.00511044
-0.00748823
-0.0144108
-0.0252279
-0.0404689
-0.0611848
-0.0853633
-0.110078
-0.129703
-0.140634
-0.130236
-0.109401
-0.0783628
-0.0466754
-0.0198416
-2.98107e-06
0.0129436
0.0203579
0.024271
0.0261447
0.0268234
0.0268148
0.0264916
0.0260858
0.025749
0.0255623
0.0255579
0.0257334
0.0260674
0.0265255
0.0270745
0.0276815
0.0283189
0.028972
-0.00369904
-0.00459691
-0.00320858
-0.00524303
-0.0103797
-0.0193686
-0.0336945
-0.0535165
-0.0774691
-0.103104
-0.12609
-0.141096
-0.143486
-0.124446
-0.0968989
-0.0634015
-0.0321473
-0.00753469
0.00952639
0.0198307
0.0252272
0.0277268
0.0285629
0.0284787
0.0279275
0.0272419
0.0266169
0.0261695
0.0259494
0.0259607
0.0261778
0.0265623
0.0270693
0.0276587
0.0282961
0.0289545
0.0296232
-0.00102947
-0.00213643
-0.000591604
-0.00191278
-0.00536317
-0.0129226
-0.0259432
-0.044417
-0.0675403
-0.0933591
-0.118211
-0.136443
-0.143896
-0.136829
-0.111455
-0.0796192
-0.0460058
-0.0170297
0.00441692
0.0182628
0.0258938
0.029387
0.0305706
0.0304483
0.0296823
0.0286704
0.027702
0.0269334
0.0264423
0.0262438
0.0263131
0.0266011
0.0270551
0.027621
0.0282551
0.0289241
0.0296036
0.0302862
0.00116471
0.00015161
0.00348092
0.00324679
0.000175907
-0.00604288
-0.0174478
-0.0341795
-0.055943
-0.0812838
-0.107015
-0.12835
-0.139498
-0.13744
-0.12308
-0.0932592
-0.0598253
-0.0280807
-0.00251235
0.0152846
0.0258537
0.0309724
0.03275
0.0327452
0.0317683
0.0304197
0.0290453
0.0278876
0.0270593
0.0265957
0.0264739
0.0266402
0.0270244
0.0275612
0.0281909
0.0288704
0.0295691
0.0302671
0.0309602
0.00294364
0.00284573
0.00792934
0.00941525
0.00731095
0.00108858
-0.00847059
-0.0232519
-0.0431744
-0.067354
-0.0931533
-0.116367
-0.131742
-0.134941
-0.124373
-0.104283
-0.0723388
-0.0397404
-0.0110907
0.0105704
0.0246543
0.0321067
0.034991
0.0352695
0.034216
0.0325058
0.0306914
0.0290692
0.027827
0.0270294
0.0266655
0.0266728
0.0269696
0.0274679
0.028094
0.0287877
0.0295093
0.0302321
0.0309439
0.0316431
0.004567
0.00599168
0.012156
0.0154131
0.0152013
0.0102559
0.000585025
-0.0119993
-0.0298398
-0.0522509
-0.0773054
-0.101388
-0.119869
-0.127998
-0.123491
-0.106736
-0.0826706
-0.0512752
-0.0209912
0.00403681
0.0217677
0.0323131
0.036948
0.0379356
0.0369202
0.0349605
0.0326593
0.030515
0.0287728
0.0275612
0.0268882
0.0266939
0.0268758
0.0273279
0.0279495
0.0286649
0.0294169
0.0301729
0.0309121
0.0316318
0.0323312
0.00577432
0.00797814
0.0157842
0.0204191
0.0225593
0.0199238
0.0120439
-0.000998488
-0.016393
-0.0367414
-0.0602839
-0.084316
-0.104787
-0.117162
-0.118137
-0.107411
-0.0868273
-0.0612918
-0.0318104
-0.00448881
0.0168635
0.0308811
0.0381683
0.0404013
0.039812
0.0376788
0.0349721
0.0322433
0.0299235
0.0282038
0.027145
0.0266897
0.0267275
0.0271187
0.0277396
0.0284843
0.0292812
0.0300806
0.0308601
0.0316064
0.0323265
0.0330196
0.00639698
0.0091726
0.0182072
0.0242019
0.0283389
0.0285565
0.0234484
0.0126934
-0.00356211
-0.0213005
-0.0430355
-0.0660109
-0.0875175
-0.10304
-0.109124
-0.104268
-0.0893193
-0.0678699
-0.041808
-0.0148666
0.00941704
0.0272467
0.0378187
0.0422572
0.0425308
0.0405954
0.0375347
0.0342625
0.0312875
0.0289687
0.0274277
0.0266465
0.0264948
0.0268139
0.0274347
0.0282249
0.0290823
0.0299455
0.0307769
0.0315672
0.0323102
0.0330226
0.0337033
0.00655075
0.00966538
0.0193798
0.0265003
0.0322937
0.0349969
0.0332694
0.0257043
0.0121944
-0.0068297
-0.0259976
-0.0474554
-0.0690297
-0.0866703
-0.0968933
-0.0977273
-0.0887891
-0.0722019
-0.050599
-0.0251579
-0.000742699
0.0206893
0.0351553
0.0426197
0.0447468
0.0433253
0.0402603
0.0364872
0.032855
0.0298431
0.0277262
0.0265291
0.026145
0.0263679
0.0269983
0.0278518
0.0287978
0.0297473
0.0306557
0.0315014
0.0322884
0.0330171
0.0337145
0.034377
0.00615552
0.00967945
0.0194847
0.0273091
0.0344007
0.0390667
0.0402878
0.0366052
0.0266832
0.0106523
-0.0103076
-0.0295581
-0.0505045
-0.0691832
-0.0824258
-0.0881669
-0.0852598
-0.0738722
-0.0570022
-0.0362082
-0.0114963
0.0105952
0.0293792
0.040597
0.0455219
0.045588
0.0427682
0.0387977
0.0345377
0.0307926
0.027992
0.0262985
0.0256105
0.0257272
0.0263706
0.0273207
0.0283898
0.0294637
0.0304763
0.0314059
0.0322464
0.0330158
0.0337208
0.0343963
0.0350357
0.00552875
0.00907303
0.0187517
0.0268505
0.0347725
0.0409572
0.0444446
0.0441062
0.038537
0.0264468
0.00832603
-0.0135154
-0.0326721
-0.0517904
-0.0668852
-0.0764967
-0.0790186
-0.0732191
-0.0617274
-0.0445016
-0.0247224
-0.000646071
0.0192482
0.0355221
0.0436434
0.0464581
0.0446976
0.0408424
0.0361856
0.0317054
0.0281559
0.0258536
0.0248167
0.0247895
0.0254789
0.0265606
0.0278096
0.0290568
0.030219
0.0312615
0.0321857
0.0330021
0.0337412
0.0344145
0.0350623
0.0356746
0.00477255
0.00822894
0.0173487
0.0254518
0.0337186
0.0408963
0.0461352
0.0482974
0.0464229
0.0390702
0.025107
0.0055277
-0.0166363
-0.0344964
-0.0509949
-0.0636795
-0.0707607
-0.0707236
-0.0645339
-0.051878
-0.0348209
-0.0158684
0.00753185
0.0252917
0.0391056
0.0444499
0.0452447
0.0421639
0.0374676
0.032403
0.0280592
0.0250783
0.0235928
0.0234391
0.0241839
0.025476
0.0269803
0.028477
0.0298481
0.0310529
0.0320891
0.0329822
0.0337578
0.0344565
0.0350917
0.0357075
0.0362905
0.00404842
0.00729982
0.015612
0.0233808
0.0316672
0.0392901
0.0457147
0.0498257
0.0506181
0.0472248
0.0382481
0.0227214
0.00222373
-0.0194493
-0.0352213
-0.0501939
-0.0611347
-0.0663922
-0.0650111
-0.057829
-0.0447335
-0.0276641
-0.00945662
0.013061
0.0287592
0.0400915
0.0430691
0.0420644
0.0378951
0.032546
0.0274836
0.0237373
0.021763
0.0214256
0.022336
0.0238944
0.025795
0.0276476
0.0293174
0.0307488
0.0319465
0.0329416
0.0337814
0.0345032
0.0351535
0.0357466
0.0363283
0.0368806
0.00342163
0.00641151
0.0138361
0.021029
0.0289826
0.0367059
0.0436772
0.0491599
0.0522139
0.051494
0.0465554
0.0361362
0.0194718
-0.00148594
-0.0222361
-0.0370872
-0.0506702
-0.0603122
-0.0637492
-0.0621796
-0.0537646
-0.0400534
-0.0228316
-0.00533771
0.0158881
0.0295987
0.0384343
0.0393953
0.0368409
0.031649
0.0260355
0.0215397
0.0189702
0.0185086
0.0195938
0.0216875
0.0240771
0.0264578
0.0285552
0.03031
0.0317332
0.032876
0.0338002
0.0345694
0.0352278
0.0358253
0.0363751
0.0369217
0.0374432
0.0028912
0.0056296
0.0121941
0.0187004
0.0260987
0.0335515
0.0407198
0.0468339
0.0514132
0.0532343
0.0510252
0.0445294
0.0327586
0.0152038
-0.00592334
-0.0261037
-0.0403813
-0.0531463
-0.0615256
-0.065067
-0.0617497
-0.0521672
-0.0376511
-0.0201206
-0.00338008
0.0160295
0.0277676
0.0341086
0.033224
0.0291508
0.0232511
0.0179624
0.0147681
0.0141333
0.0156504
0.0183478
0.0215943
0.0247291
0.027456
0.0296749
0.0314191
0.0327683
0.0338159
0.0346463
0.035333
0.0359232
0.036467
0.0369739
0.037486
0.0379778
0.00246651
0.00497404
0.0107485
0.0165629
0.0232932
0.0302822
0.0372465
0.0436969
0.0488357
0.0524433
0.0527142
0.0492718
0.0412781
0.0282005
0.00977723
-0.011726
-0.0316337
-0.0457934
-0.0580547
-0.0664334
-0.068558
-0.0637574
-0.0529032
-0.0372589
-0.0192882
-0.00350113
0.0136178
0.0232337
0.0269542
0.0241684
0.0186559
0.0125804
0.00840872
0.00758244
0.00966086
0.0135106
0.0179305
0.0222056
0.0258506
0.0287505
0.0309567
0.0325987
0.0338189
0.0347407
0.0354624
0.0360611
0.036583
0.0370747
0.0375412
0.0380208
0.0384849
0.00213618
0.00444645
0.00950535
0.0146751
0.0207195
0.0271272
0.0337226
0.0400458
0.0456984
0.0497717
0.0521432
0.0510376
0.0463167
0.0368361
0.0223582
0.00283039
-0.0194225
-0.0394783
-0.0539318
-0.0662283
-0.0742625
-0.0744247
-0.0683432
-0.0555747
-0.0384673
-0.0200474
-0.00582901
0.00866588
0.0157003
0.0165627
0.0117078
0.00505105
-0.000408339
-0.00219232
0.000633276
0.00594791
0.0124892
0.0185103
0.0234919
0.0273885
0.0302714
0.0323359
0.0337996
0.0348501
0.0356274
0.0362343
0.0367458
0.0372029
0.0376465
0.0380768
0.0385267
0.0389653
0.00187799
0.00402343
0.00845721
0.0130432
0.0184322
0.0242317
0.0303246
0.0363887
0.0419945
0.0467607
0.0497581
0.0507904
0.0484363
0.0422211
0.0311294
0.0149637
-0.00608576
-0.0296147
-0.0503176
-0.0651579
-0.0785497
-0.0840434
-0.0834147
-0.074883
-0.0595645
-0.040741
-0.0221497
-0.0103095
0.000909892
0.00476466
0.00232327
-0.00467003
-0.0118228
-0.0152901
-0.0128287
-0.00562205
0.00372685
0.0129396
0.0200366
0.0253681
0.0292457
0.0319259
0.0337428
0.0349739
0.0358311
0.0364572
0.0369517
0.0373817
0.0377807
0.0381824
0.0385815
0.039005
0.0394205
0.00167349
0.00368131
0.00758757
0.0116565
0.0164428
0.0216471
0.0272013
0.0328491
0.0383098
0.0431255
0.0469359
0.0488645
0.0485682
0.0448006
0.0369253
0.0239375
0.00562215
-0.0175587
-0.0431313
-0.0642706
-0.0810648
-0.092493
-0.0977079
-0.0943811
-0.0824395
-0.0640096
-0.0435836
-0.02578
-0.0171686
-0.0101273
-0.0102206
-0.0164427
-0.0252659
-0.0315794
-0.0307224
-0.0231783
-0.0104435
0.00378166
0.0147615
0.0223841
0.0276983
0.0312874
0.0336146
0.0351111
0.03608
0.0367374
0.0372171
0.0376082
0.0379667
0.0383168
0.0386839
0.0390569
0.0394576
0.0398527
0.00151569
0.00340189
0.00687648
0.0104946
0.014742
0.0193902
0.0244013
0.0295904
0.034723
0.0395067
0.0434791
0.0462783
0.0470871
0.0454
0.0400617
0.0302505
0.0149191
-0.00621276
-0.0323466
-0.0603043
-0.0825252
-0.0995693
-0.111045
-0.11342
-0.105953
-0.0896896
-0.0679448
-0.0468984
-0.0310426
-0.026725
-0.0251172
-0.0300033
-0.0402069
-0.0497239
-0.0528671
-0.0457241
-0.0328065
-0.0117369
0.00585369
0.0177281
0.0253794
0.030283
0.0333683
0.0352443
0.0363846
0.0370858
0.0375521
0.0378993
0.0382015
0.0385016
0.0388133
0.0391533
0.0395056
0.0398869
0.0402638
0.00138976
0.00318162
0.00629685
0.00953526
0.0133086
0.0174517
0.0219475
0.0266579
0.0314149
0.0359616
0.0400095
0.0430948
0.0448272
0.0444299
0.041238
0.0340887
0.0219325
0.00361258
-0.0212292
-0.0510599
-0.0816822
-0.105257
-0.122833
-0.131635
-0.12926
-0.11637
-0.0950003
-0.071283
-0.050788
-0.0384693
-0.0395903
-0.0448738
-0.0551255
-0.0687084
-0.0765864
-0.0736664
-0.0597397
-0.0350831
-0.00945476
0.0095567
0.0216586
0.0287269
0.0329053
0.0353571
0.0367386
0.0375215
0.0379703
0.0382661
0.0385017
0.0387333
0.0389897
0.0392738
0.0395942
0.0399305
0.0402953
0.0406557
0.00130166
0.00300173
0.00583705
0.00874868
0.012118
0.0158101
0.0198314
0.0240801
0.028427
0.0326847
0.0365904
0.0398496
0.042003
0.0426073
0.0408883
0.036004
0.0266967
0.011628
-0.0105591
-0.0401121
-0.0743448
-0.109623
-0.131685
-0.148035
-0.151586
-0.142988
-0.123674
-0.0984813
-0.0738354
-0.055775
-0.0488088
-0.0564039
-0.0698857
-0.0855098
-0.100332
-0.103135
-0.0912503
-0.0654177
-0.0309414
-0.00475196
0.014934
0.0261133
0.0320983
0.035379
0.0371504
0.0380436
0.0384956
0.0387228
0.0388776
0.039027
0.0392084
0.0394362
0.0397032
0.0400106
0.0403347
0.0406852
0.0410298
0.00122827
0.00287543
0.0054679
0.00812002
0.011138
0.0144398
0.0180325
0.021849
0.025793
0.029714
0.0334193
0.0366362
0.0390583
0.0402247
0.0396221
0.0364177
0.0295842
0.0176618
-0.00109132
-0.0282147
-0.0635662
-0.103702
-0.140358
-0.159832
-0.171946
-0.168085
-0.15228
-0.126995
-0.0995301
-0.0761035
-0.0628997
-0.0628237
-0.0778259
-0.100692
-0.119667
-0.13198
-0.125288
-0.101134
-0.061756
-0.0261559
0.00281293
0.0212302
0.0305527
0.0352324
0.0375643
0.0386797
0.0391286
0.0392952
0.0393428
0.0393912
0.0394823
0.0396342
0.0398477
0.0401071
0.0404068
0.0407212
0.0410584
0.0413869
0.00119606
0.00276656
0.0052002
0.00761593
0.0103508
0.0133078
0.0165248
0.019946
0.0235058
0.0270884
0.0305343
0.0336407
0.0361265
0.0376647
0.0377775
0.0358544
0.0309637
0.0218536
0.00671161
-0.016692
-0.0499387
-0.0919686
-0.136075
-0.172811
-0.18604
-0.191083
-0.178469
-0.155575
-0.126102
-0.0983618
-0.0796087
-0.0730889
-0.0814098
-0.104332
-0.136145
-0.154467
-0.159295
-0.138606
-0.101099
-0.0559797
-0.0167096
0.0120608
0.0274373
0.0346033
0.0379434
0.0393745
0.0399099
0.0399827
0.0399216
0.0398377
0.039817
0.0398779
0.0400201
0.0402323
0.0404913
0.0407868
0.0410923
0.0414159
0.041727
0.00116636
0.00272179
0.00498529
0.00724526
0.0097198
0.0123944
0.0152756
0.0183457
0.0215496
0.0248018
0.0279777
0.0309062
0.0333737
0.0350881
0.0356942
0.0346672
0.0312848
0.024476
0.0126785
-0.00643764
-0.0355897
-0.0758619
-0.123947
-0.170108
-0.202751
-0.206271
-0.202329
-0.181351
-0.152404
-0.121612
-0.0974597
-0.0853177
-0.0870815
-0.104934
-0.135949
-0.172538
-0.184668
-0.176879
-0.141034
-0.0924073
-0.0439895
-0.00329928
0.0211499
0.0329677
0.0380185
0.0401296
0.0407739
0.0408323
0.0406118
0.0403862
0.0402214
0.040169
0.0402266
0.0403767
0.0405979
0.0408613
0.041154
0.0414494
0.0417579
0.0420491
0.00266842
0.00487939
0.00695375
0.00925154
0.0116617
0.0142639
0.0170162
0.0198996
0.0228413
0.0257451
0.028476
0.0308519
0.0326455
0.0335505
0.0331667
0.0309024
0.0259075
0.0169242
0.00195172
-0.0220331
-0.0578388
-0.104985
-0.157293
-0.201496
-0.227092
-0.21735
-0.203932
-0.175973
-0.143934
-0.115747
-0.098049
-0.0939109
-0.10547
-0.134301
-0.168585
-0.204336
-0.203064
-0.180325
-0.132049
-0.0758407
-0.0255813
0.00990171
0.0292028
0.0374567
0.0406788
0.041767
0.0417667
0.0414583
0.0410333
0.0407086
0.040513
0.0404649
0.040543
0.0407152
0.0409523
0.041222
0.0415107
0.0417932
0.0420834
0.0423511
0.00478596
0.00680161
0.00888793
0.0111144
0.0134516
0.0159361
0.0185258
0.0211834
0.023827
0.0263487
0.028603
0.0303966
0.0314874
0.0315425
0.0301087
0.0265065
0.0197487
0.00833286
-0.0104148
-0.0400942
-0.0826365
-0.135136
-0.188078
-0.227583
-0.240749
-0.218282
-0.195503
-0.163452
-0.132799
-0.110438
-0.100624
-0.106439
-0.128976
-0.164784
-0.19907
-0.226592
-0.206458
-0.169252
-0.11249
-0.0537082
-0.00721363
0.0217846
0.0355073
0.0407875
0.0425713
0.0428736
0.0423801
0.0418138
0.0412738
0.0409147
0.0407359
0.0407243
0.0408422
0.0410464
0.0413023
0.0415768
0.0418579
0.0421228
0.0423901
0.0426298
0.00667771
0.00869122
0.0106925
0.0128415
0.0150682
0.0174067
0.0198004
0.0222011
0.0245171
0.0266294
0.0283823
0.0295711
0.0299322
0.0291016
0.0265606
0.0215319
0.0128986
-0.00124782
-0.0244054
-0.0599489
-0.108104
-0.163032
-0.211217
-0.242764
-0.238461
-0.207906
-0.178523
-0.146876
-0.120978
-0.106294
-0.107248
-0.122976
-0.154285
-0.193715
-0.22234
-0.235208
-0.196545
-0.14638
-0.0857828
-0.0300602
0.00950509
0.0310386
0.0398963
0.0430539
0.0437562
0.0434751
0.0426528
0.0419364
0.0413671
0.0410358
0.0409163
0.0409677
0.0411392
0.0413798
0.041653
0.0419276
0.042195
0.042436
0.0426747
0.0428811
0.00853993
0.010459
0.0123739
0.0144133
0.0165066
0.0186712
0.0208428
0.0229614
0.0249266
0.0266087
0.0278428
0.028409
0.0280216
0.0262781
0.022585
0.0160861
0.00549664
-0.0117199
-0.0393991
-0.0800285
-0.131387
-0.18449
-0.222547
-0.239401
-0.222587
-0.186798
-0.156299
-0.128098
-0.110047
-0.107113
-0.116589
-0.141994
-0.179065
-0.215323
-0.231033
-0.226244
-0.1739
-0.115872
-0.0568464
-0.00807606
0.0227455
0.037251
0.0426489
0.0445519
0.0443239
0.0436186
0.0426332
0.041872
0.0413533
0.0411062
0.0410814
0.0412152
0.0414471
0.0417227
0.0420074
0.0422742
0.0425196
0.0427293
0.042933
0.0431002
0.0102857
0.0121106
0.0139137
0.0158248
0.0177621
0.0197312
0.0216598
0.023477
0.0250742
0.0263132
0.0270173
0.0269525
0.0258089
0.0231385
0.0182855
0.0103301
-0.00226114
-0.0225627
-0.054098
-0.0984108
-0.148865
-0.195112
-0.220552
-0.21979
-0.196366
-0.159408
-0.131044
-0.111616
-0.10463
-0.108964
-0.128895
-0.161593
-0.198565
-0.224629
-0.222782
-0.202768
-0.142718
-0.0837002
-0.0298182
0.00975621
0.031697
0.0408364
0.0442758
0.0452751
0.0443638
0.0433832
0.0423743
0.0416726
0.0412765
0.0411619
0.0412586
0.0414853
0.041777
0.0420803
0.042366
0.0426142
0.042828
0.042998
0.0431597
0.0432819
0.0119203
0.0136282
0.015307
0.0170713
0.0188356
0.0205924
0.0222624
0.0237644
0.0249841
0.0257732
0.0259458
0.0252533
0.0233598
0.0197785
0.0138098
0.00449561
-0.00997952
-0.0328491
-0.0680029
-0.112485
-0.157259
-0.192506
-0.2044
-0.190481
-0.162505
-0.129789
-0.110215
-0.0993113
-0.09921
-0.114435
-0.142453
-0.17793
-0.20854
-0.21994
-0.201563
-0.169486
-0.110426
-0.0539833
-0.00754858
0.0220879
0.036734
0.042567
0.0449819
0.0450742
0.0439338
0.0428537
0.0419409
0.0413936
0.0411837
0.0412395
0.0414732
0.0417932
0.0421351
0.0424534
0.0427261
0.0429431
0.0431146
0.0432365
0.0433492
0.0434207
0.0134263
0.0150065
0.0165483
0.0181535
0.0197319
0.0212639
0.0226649
0.0238449
0.0246838
0.0250256
0.0246762
0.0233729
0.0207611
0.0163252
0.00936181
-0.00108294
-0.0171083
-0.0425975
-0.079491
-0.118662
-0.155197
-0.177241
-0.175865
-0.154451
-0.127721
-0.104477
-0.0908677
-0.0881887
-0.0975484
-0.121447
-0.153965
-0.187126
-0.206936
-0.203149
-0.172709
-0.133389
-0.0793748
-0.0292657
0.00808279
0.0290638
0.0389544
0.0431626
0.0447179
0.0442575
0.0431104
0.0421035
0.0414014
0.0410954
0.0411231
0.0413735
0.0417469
0.042149
0.0425247
0.0428394
0.0430825
0.0432545
0.0433729
0.0434384
0.0434957
0.0435113
0.0147994
0.0162391
0.0176372
0.0190751
0.0204588
0.0217584
0.022886
0.0237433
0.0242062
0.0241135
0.0232641
0.0213879
0.0181208
0.012942
0.00521052
-0.00607226
-0.0232946
-0.0508737
-0.0817718
-0.116343
-0.142395
-0.151332
-0.140113
-0.118141
-0.0944825
-0.079935
-0.0747979
-0.0807095
-0.098801
-0.127391
-0.160437
-0.186667
-0.194032
-0.177536
-0.14065
-0.100339
-0.0533514
-0.0117359
0.0168958
0.0320603
0.0395295
0.0429412
0.0437007
0.0430383
0.0419884
0.0412113
0.0408317
0.040841
0.0411421
0.0415944
0.042095
0.042558
0.0429429
0.0432321
0.0434275
0.0435407
0.0435955
0.0435973
0.0435933
0.0435487
0.0160369
0.0173295
0.0185777
0.0198422
0.0210273
0.0220921
0.0229477
0.0234886
0.0235897
0.023086
0.0217759
0.0193895
0.0155695
0.00982743
0.00162544
-0.0101542
-0.0277368
-0.0517575
-0.0788514
-0.106017
-0.120338
-0.118748
-0.102767
-0.0826438
-0.0638538
-0.0602586
-0.0625025
-0.0760347
-0.100384
-0.130696
-0.15996
-0.176591
-0.172902
-0.147683
-0.116702
-0.0703897
-0.0360648
-0.00135323
0.0203822
0.0327883
0.0391586
0.0418646
0.0421169
0.0414267
0.0406613
0.0402691
0.0403134
0.0406944
0.0412837
0.0419248
0.0425239
0.0430167
0.0433819
0.0436216
0.0437513
0.0437926
0.043775
0.0437069
0.0436368
0.0435287
0.0171343
0.0182831
0.0193761
0.0204649
0.0214516
0.0222846
0.0228753
0.0231144
0.022877
0.0219999
0.0202875
0.0174818
0.0132561
0.00718788
-0.00113209
-0.012638
-0.0287795
-0.0486588
-0.0728472
-0.0881782
-0.0925139
-0.0840701
-0.067341
-0.051
-0.0386688
-0.0446506
-0.0534197
-0.0730732
-0.100103
-0.129699
-0.152224
-0.159762
-0.148107
-0.124156
-0.0936131
-0.0513264
-0.0266492
0.00354498
0.0208639
0.0323309
0.0379073
0.0399172
0.0399853
0.0395191
0.0392385
0.0393797
0.0399325
0.0407166
0.0415815
0.0423761
0.0430323
0.0435156
0.0438292
0.0439957
0.0440428
0.0440013
0.0439037
0.0437614
0.0436217
0.043448
0.0180905
0.0190994
0.0200413
0.0209558
0.0217489
0.0223582
0.0226982
0.0226576
0.0221163
0.0209182
0.0188826
0.0157786
0.0113337
0.00523855
-0.00268962
-0.0129034
-0.0269696
-0.0440615
-0.0588669
-0.0656587
-0.0626957
-0.050789
-0.0356668
-0.0246459
-0.0183225
-0.0329884
-0.0471014
-0.0705453
-0.0979722
-0.123629
-0.13935
-0.140221
-0.124315
-0.104597
-0.0815584
-0.0424581
-0.0222889
0.00494877
0.0204271
0.0309659
0.0356402
0.0371778
0.037395
0.0374374
0.0378473
0.0386579
0.0397768
0.0409583
0.0420538
0.0429473
0.0436078
0.0440387
0.0442689
0.0443402
0.0442907
0.0441577
0.0439751
0.0437557
0.0435437
0.0433044
0.0189177
0.0197882
0.0205844
0.0213306
0.0219389
0.0223383
0.0224483
0.0221593
0.0213601
0.0199083
0.0176495
0.0143959
0.00995578
0.00420814
-0.00279265
-0.011358
-0.0226069
-0.0338266
-0.0411531
-0.0414023
-0.0337951
-0.0209828
-0.0088873
-0.00351446
-0.00336604
-0.0251725
-0.0428576
-0.0677373
-0.0935967
-0.114373
-0.125062
-0.120075
-0.11141
-0.0941901
-0.0782949
-0.0401739
-0.021265
0.00438636
0.0193431
0.028425
0.0322831
0.0337187
0.0344675
0.0353259
0.0366364
0.0382317
0.0399249
0.0414487
0.0427021
0.0436227
0.0442292
0.0445647
0.0446825
0.0446406
0.0444837
0.0442537
0.0439832
0.0436856
0.0433999
0.0430939
0.0196214
0.0203594
0.0210192
0.0216068
0.0220437
0.0222528
0.0221603
0.0216629
0.0206628
0.0190395
0.0166756
0.0134445
0.00926637
0.00422473
-0.00143612
-0.008025
-0.0152249
-0.0209019
-0.0224875
-0.0177458
-0.00784037
0.00412032
0.0125751
0.0121807
0.00578751
-0.0206752
-0.0397307
-0.064359
-0.0878069
-0.104993
-0.111383
-0.112327
-0.105
-0.0920953
-0.0788047
-0.0435892
-0.0205415
0.00335491
0.0169019
0.0243862
0.0277894
0.0296139
0.0313685
0.0333737
0.0357907
0.0382246
0.0404272
0.0421954
0.0435063
0.0443737
0.0448679
0.0450693
0.0450511
0.0448827
0.0446119
0.0442824
0.0439234
0.0435479
0.0431902
0.0428159
0.0202131
0.0208269
0.0213617
0.0218043
0.0220878
0.0221313
0.021871
0.0212133
0.0200795
0.018379
0.0160416
0.0130196
0.0093526
0.00529711
0.00119593
-0.00282862
-0.00613161
-0.00725715
-0.00415571
0.00349038
0.013924
0.0238339
0.0284248
0.0225892
0.00975495
-0.0188492
-0.0378262
-0.0614573
-0.0830264
-0.0981482
-0.107748
-0.110373
-0.10555
-0.094429
-0.0807837
-0.0467165
-0.0201265
0.00098209
0.0124146
0.0185763
0.022106
0.0250102
0.0283093
0.0318552
0.0355126
0.0387178
0.0412908
0.0431706
0.0444278
0.0451617
0.0454913
0.0455274
0.0453564
0.0450538
0.0446669
0.0442385
0.0437926
0.043341
0.0429137
0.0424713
0.0207048
0.0212061
0.0216298
0.0219448
0.0220969
0.022005
0.0216173
0.0208547
0.0196625
0.0179868
0.0158139
0.0131779
0.0102293
0.00734742
0.00502307
0.00357226
0.00357287
0.00619472
0.0122507
0.021186
0.0308269
0.0378236
0.0387109
0.0280772
0.00983078
-0.0191508
-0.0381504
-0.0611563
-0.0821182
-0.0990543
-0.110894
-0.114267
-0.111057
-0.0976366
-0.0811969
-0.0452359
-0.0212165
-0.00405044
0.00531602
0.0107391
0.0153925
0.0201298
0.0256531
0.0311104
0.0359448
0.0397293
0.0424877
0.0443214
0.0454133
0.0459421
0.0460658
0.0459152
0.0455824
0.0451438
0.0446423
0.0441181
0.0435888
0.0430643
0.0425686
0.0420619
0.0211106
0.0215136
0.0218431
0.0220512
0.0220978
0.0219051
0.0214354
0.0206284
0.0194572
0.0179106
0.016032
0.0139305
0.0118507
0.0102635
0.00969129
0.0104749
0.0131462
0.0182678
0.0258401
0.0347881
0.0426417
0.0462413
0.0438039
0.0291516
0.00709101
-0.0219995
-0.0421791
-0.0657889
-0.0879921
-0.106937
-0.119243
-0.123318
-0.117257
-0.0975137
-0.0768942
-0.0456712
-0.0255869
-0.012637
-0.00489948
0.00110568
0.00807151
0.0155553
0.0240241
0.0313741
0.037127
0.0412253
0.0439448
0.0455729
0.046401
0.0466694
0.0465599
0.0462118
0.045716
0.0451448
0.044534
0.0439195
0.0433111
0.0427187
0.0421557
0.0415883
0.0214467
0.0217681
0.0220222
0.0221468
0.0221171
0.0218615
0.0213587
0.0205698
0.0194994
0.0181786
0.0167034
0.0152464
0.014121
0.013812
0.0147862
0.0173711
0.0218598
0.0283429
0.0362647
0.0442072
0.0499252
0.0498736
0.0442149
0.0261785
0.000869096