/*--------------------------------*- C++ -*----------------------------------*\
| =========                 |                                                 |
| \\      /  F ield         | OpenFOAM: The Open Source CFD Toolbox           |
|  \\    /   O peration     | Version:  2506                                  |
|   \\  /    A nd           | Website:  www.openfoam.com                      |
|    \\/     M anipulation  |                                                 |
\*---------------------------------------------------------------------------*/
FoamFile
{
    version     2.0;
    format      ascii;
    arch        "LSB;label=32;scalar=64";
    class       volVectorField;
    location    "70.020198564267872";
    object      U;
}
// * * * * * * * * * * * * * * * * * * * * * * * * * * * * * * * * * * * * * //

dimensions      [0 1 -1 0 0 0 0];

internalField   nonuniform List<vector> 
9700
(
(1.07857 -0.000255302 1.54553e-22)
(1.07837 -0.000693652 -1.77869e-24)
(1.07938 -0.000403354 9.24411e-29)
(1.07796 -0.00128301 -1.95105e-22)
(1.07924 -0.00119056 -8.32904e-25)
(1.08011 -0.00044614 -1.5383e-22)
(1.07724 -0.00193061 1.84684e-24)
(1.07899 -0.00210444 -1.84689e-35)
(1.08002 -0.00135823 -1.54007e-22)
(1.081 -0.000483795 0)
(1.07626 -0.00279208 1.41565e-22)
(1.07849 -0.00313697 2.56976e-24)
(1.07986 -0.00237388 -1.10363e-21)
(1.08097 -0.00150966 1.72088e-23)
(1.08193 -0.000491066 1.56646e-22)
(1.07494 -0.00386141 1.29183e-22)
(1.07784 -0.00440647 -1.36879e-27)
(1.07952 -0.00353577 -1.42772e-22)
(1.08092 -0.00261334 3.75853e-35)
(1.08197 -0.00156569 1.51447e-22)
(1.08287 -0.000474319 -5.20491e-28)
(1.07325 -0.00524703 -2.81009e-23)
(1.07695 -0.00596015 2.01147e-27)
(1.07907 -0.00493585 -1.37082e-22)
(1.08077 -0.00389081 -3.75368e-23)
(1.08203 -0.00269101 1.13463e-21)
(1.08297 -0.0015425 5.36808e-24)
(1.08377 -0.000434106 -1.66172e-22)
(1.07112 -0.00700669 1.64309e-22)
(1.07581 -0.00790054 7.72321e-23)
(1.07846 -0.00664818 -1.34406e-22)
(1.08059 -0.0054043 0)
(1.08207 -0.0040083 1.61415e-22)
(1.08315 -0.00263543 -5.69821e-36)
(1.08393 -0.00143864 -1.72318e-22)
(1.08459 -0.000373232 -1.41748e-21)
(1.06845 -0.00923952 1.95614e-23)
(1.07436 -0.0103255 -3.7657e-22)
(1.07767 -0.00876854 -1.38049e-22)
(1.08033 -0.00725564 0)
(1.08215 -0.00555115 1.55749e-22)
(1.08338 -0.00392908 -1.27183e-23)
(1.08421 -0.00244474 -1.08682e-25)
(1.0848 -0.00126069 -1.62898e-21)
(1.08527 -0.000294779 6.6637e-25)
(1.06511 -0.0120504 -1.2133e-22)
(1.07252 -0.0133513 -1.75836e-22)
(1.07666 -0.0114137 -1.20261e-21)
(1.08 -0.00953224 9.96203e-38)
(1.08224 -0.00744175 1.20825e-22)
(1.08372 -0.00543072 6.25834e-27)
(1.08462 -0.00364965 -1.36252e-22)
(1.08517 -0.00213074 -2.16797e-22)
(1.08552 -0.00101731 1.00359e-22)
(1.08579 -0.000202366 1.51614e-21)
(1.06095 -0.0155649 8.83082e-23)
(1.07015 -0.0171347 1.64291e-23)
(1.07539 -0.0147067 2.3233e-22)
(1.07957 -0.0123698 -2.54642e-23)
(1.08237 -0.00975756 -8.57827e-24)
(1.08416 -0.00727567 -8.07921e-27)
(1.0852 -0.00503793 -1.29905e-22)
(1.08574 -0.00318691 -1.57989e-21)
(1.08597 -0.00170834 2.25371e-22)
(1.08607 -0.000720669 1.55974e-21)
(1.08612 -9.46811e-05 0)
(1.05581 -0.0199203 -1.40837e-24)
(1.06712 -0.0218459 1.34559e-23)
(1.07377 -0.0188167 6.1506e-22)
(1.07901 -0.0158984 -8.76519e-23)
(1.08251 -0.0126458 1.23858e-21)
(1.08474 -0.00952983 -2.75217e-22)
(1.08598 -0.00674965 -1.73556e-22)
(1.08654 -0.00439542 -1.37626e-21)
(1.08668 -0.00256277 3.63937e-22)
(1.08658 -0.00119751 -1.21782e-25)
(1.08642 -0.00038585 -1.1281e-36)
(1.08623 2.65769e-05 1.92591e-22)
(1.04949 -0.0252462 4.58702e-22)
(1.0634 -0.027672 9.07211e-23)
(1.07171 -0.0239253 -4.88773e-23)
(1.07828 -0.0203099 2.98861e-23)
(1.08268 -0.0162378 -8.13719e-23)
(1.08546 -0.0123451 3.44848e-23)
(1.08699 -0.00883746 -4.06639e-22)
(1.08762 -0.00589257 -1.31949e-21)
(1.08767 -0.00353278 -1.86671e-27)
(1.0874 -0.00180733 1.58449e-21)
(1.08697 -0.000621723 2.61875e-36)
(1.08654 -2.86436e-05 1.83687e-22)
(1.08613 0.000143946 -8.35567e-28)
(1.04172 -0.0316948 2.42636e-25)
(1.05879 -0.0348113 3.88017e-35)
(1.06909 -0.0302748 -1.01851e-23)
(1.07732 -0.0258024 1.12435e-22)
(1.08287 -0.0207385 -5.70398e-22)
(1.08637 -0.0158486 4.6897e-22)
(1.08827 -0.01145 -1.27278e-21)
(1.08902 -0.00771619 -1.38585e-21)
(1.089 -0.00474314 2.49196e-27)
(1.08853 -0.00249106 1.5693e-21)
(1.08785 -0.000956406 -9.81092e-37)
(1.08711 -7.83217e-06 1.32598e-25)
(1.08643 0.000335898 8.86011e-24)
(1.0858 0.000253381 -2.09269e-22)
(1.03214 -0.0394394 6.84705e-23)
(1.053 -0.0435332 -1.45913e-22)
(1.06572 -0.038119 2.22132e-22)
(1.07604 -0.0326519 1.23244e-22)
(1.08304 -0.0263566 4.84157e-23)
(1.08749 -0.0202504 -5.34199e-23)
(1.08989 -0.0147043 -5.21623e-22)
(1.09081 -0.0100035 -4.53559e-22)
(1.09073 -0.00621522 -3.03389e-22)
(1.09006 -0.00335572 1.46547e-21)
(1.08908 -0.00131956 0)
(1.08803 -4.95664e-05 2.29541e-22)
(1.08699 0.000614929 -9.92274e-36)
(1.0861 0.000691682 -2.19446e-22)
(1.08527 0.000352509 -2.75485e-22)
(1.02038 -0.0486295 3.99391e-22)
(1.04569 -0.0541296 -6.99357e-23)
(1.06144 -0.0477931 5.31304e-23)
(1.07433 -0.0411639 -1.35654e-35)
(1.08319 -0.0334 -5.21104e-23)
(1.08884 -0.0257608 -6.7191e-23)
(1.0919 -0.0188047 6.43759e-22)
(1.09307 -0.0128554 -1.88504e-21)
(1.09295 -0.00806728 1.22952e-21)
(1.09205 -0.00440492 1.04301e-21)
(1.09074 -0.00179615 0)
(1.0893 -7.32402e-05 2.33237e-22)
(1.08791 0.000871546 -2.25529e-23)
(1.08663 0.00121832 -1.55744e-21)
(1.08554 0.00102305 -4.49063e-22)
(1.08455 0.000438356 6.36273e-29)
(1.00586 -0.0593601 2.117e-23)
(1.0364 -0.066832 -4.2293e-23)
(1.05586 -0.0596697 5.13239e-23)
(1.0721 -0.0517598 -2.05073e-22)
(1.08326 -0.0422095 -7.80216e-22)
(1.09046 -0.0327071 -5.18687e-22)
(1.0944 -0.0239521 -1.50514e-23)
(1.09591 -0.0164586 -9.61e-22)
(1.09577 -0.0103778 1.14427e-21)
(1.0946 -0.00573115 7.61602e-23)
(1.0929 -0.0023714 -8.3905e-36)
(1.09101 -0.000138059 1.55392e-22)
(1.08917 0.00118998 1.1603e-26)
(1.0875 0.00176491 -1.89792e-22)
(1.08602 0.0017764 -2.83308e-22)
(1.08479 0.00131648 2.1384e-22)
(1.08367 0.000507316 2.81808e-22)
(0.988083 -0.0714894 6.97846e-22)
(1.0243 -0.0817122 3.41864e-22)
(1.04838 -0.073975 -2.1651e-22)
(1.06883 -0.0648531 0)
(1.08317 -0.0532869 -3.84265e-23)
(1.09242 -0.0414539 -6.40787e-36)
(1.0975 -0.0304781 -1.24751e-22)
(1.09947 -0.020993 5.2675e-22)
(1.09932 -0.0133044 -1.06802e-21)
(1.09784 -0.00738555 9.58302e-22)
(1.09567 -0.00310668 6.98171e-22)
(1.09324 -0.000211621 -2.44015e-22)
(1.09086 0.00154068 -1.58361e-26)
(1.08869 0.00241181 -1.92485e-22)
(1.08681 0.00259092 -6.27777e-22)
(1.0852 0.00226654 1.91897e-21)
(1.08387 0.00156064 2.8349e-22)
(1.08267 0.000557638 -2.8242e-22)
(0.966539 -0.084807 -2.17067e-21)
(1.00865 -0.0986191 -4.82858e-22)
(1.03808 -0.0906766 2.62168e-22)
(1.06375 -0.0806099 8.42444e-35)
(1.08234 -0.0669906 6.83287e-22)
(1.09462 -0.0525383 8.77886e-22)
(1.10134 -0.0387483 4.27925e-22)
(1.10395 -0.0267746 -1.80046e-22)
(1.10379 -0.0169941 1.31554e-21)
(1.10194 -0.00948567 1.18218e-21)
(1.09918 -0.00402206 -8.87277e-22)
(1.0961 -0.000320458 2.337e-21)
(1.09306 0.00197156 -5.74026e-22)
(1.0903 0.00316139 -2.65332e-22)
(1.08789 0.00353746 -2.97086e-22)
(1.08589 0.00331526 2.42507e-22)
(1.0842 0.00266991 -1.6485e-21)
(1.08282 0.00174712 -5.10867e-22)
(1.08157 0.000588839 -5.16865e-29)
(0.941055 -0.0988584 -7.20015e-22)
(0.988756 -0.117398 -2.02966e-22)
(1.02413 -0.109624 2.43377e-21)
(1.05575 -0.0989469 -1.238e-35)
(1.07968 -0.0833728 2.78282e-22)
(1.0962 -0.0661766 4.37597e-22)
(1.10572 -0.0492718 3.58033e-22)
(1.10954 -0.0341407 5.09009e-23)
(1.10947 -0.0217254 -1.62455e-21)
(1.10713 -0.0121356 1.11249e-21)
(1.10364 -0.00518673 -1.21386e-21)
(1.09973 -0.000451904 2.45101e-21)
(1.09588 0.00249238 7.70067e-23)
(1.09237 0.00407409 -6.12551e-22)
(1.08935 0.00464997 -3.08921e-22)
(1.08681 0.0045195 -9.61859e-28)
(1.08476 0.0039095 3.05913e-22)
(1.08306 0.00297309 -2.92398e-22)
(1.08167 0.00187114 3.61747e-24)
(1.08042 0.000601098 2.7603e-22)
(0.911955 -0.113184 6.40783e-21)
(0.96425 -0.137827 0)
(1.00589 -0.130698 -5.75229e-21)
(1.04401 -0.119876 -2.38077e-35)
(1.07413 -0.102389 -2.00737e-21)
(1.09595 -0.0823169 -1.17995e-25)
(1.1095 -0.0620413 2.62005e-21)
(1.11585 -0.0434983 1.13839e-21)
(1.11657 -0.0277743 6.09172e-25)
(1.11376 -0.0155535 5.99324e-22)
(1.10931 -0.00665359 1.55636e-21)
(1.10433 -0.000621905 -1.75916e-21)
(1.09945 0.00314816 1.12405e-21)
(1.09502 0.00519476 -2.64561e-21)
(1.09121 0.00599791 -5.7511e-22)
(1.08805 0.00594234 1.34767e-27)
(1.0855 0.00531877 3.18316e-22)
(1.08347 0.00435329 -5.27936e-22)
(1.08182 0.00316888 6.06804e-35)
(1.08047 0.00193153 4.58654e-22)
(1.07926 0.000595524 2.00386e-24)
(0.878979 -0.127243 1.93283e-22)
(0.935539 -0.159398 -3.00492e-23)
(0.983011 -0.15372 -3.09867e-22)
(1.02784 -0.143493 0)
(1.06501 -0.124434 -4.31786e-21)
(1.09311 -0.101178 -2.67137e-21)
(1.1116 -0.0770485 -8.7708e-22)
(1.12151 -0.0546085 1.9397e-21)
(1.12438 -0.0353816 2.90832e-21)
(1.12198 -0.0199244 1.72088e-23)
(1.11656 -0.00856106 1.1003e-36)
(1.1102 -0.000826499 2.68022e-22)
(1.10397 0.00397708 -1.37136e-22)
(1.09837 0.00659862 1.24045e-21)
(1.09357 0.00765779 -2.09692e-21)
(1.08963 0.0076583 2.21871e-22)
(1.08648 0.00698581 3.14019e-22)
(1.08401 0.00590742 -3.1151e-22)
(1.08208 0.00463559 -8.46387e-24)
(1.08054 0.00325606 2.85325e-22)
(1.07926 0.00193084 9.31241e-24)
(1.07811 0.00057422 -2.47202e-21)
(0.843081 -0.140455 1.30192e-22)
(0.902274 -0.181673 6.76884e-22)
(0.955117 -0.178152 9.15937e-21)
(1.00661 -0.169675 -1.07983e-35)
(1.05154 -0.149894 1.09722e-20)
(1.08724 -0.123767 5.61284e-21)
(1.11192 -0.0950329 -3.40661e-21)
(1.12601 -0.0677436 4.68377e-22)
(1.13158 -0.0441614 -2.87692e-26)
(1.1308 -0.0252876 4.43116e-22)
(1.12542 -0.0109784 -2.91436e-36)
(1.11769 -0.00111057 -4.55838e-23)
(1.10974 0.00504172 -1.84437e-22)
(1.1026 0.00837457 2.35019e-21)
(1.09655 0.0097308 -6.4362e-22)
(1.09162 0.00977046 1.99472e-21)
(1.08772 0.00898598 2.22066e-22)
(1.08471 0.00774311 -3.27795e-22)
(1.08241 0.00627063 5.13096e-28)
(1.08065 0.00475446 6.08376e-22)
(1.07925 0.00323963 6.75243e-22)
(1.07808 0.00187511 -2.79722e-21)
(1.07702 0.000540133 -7.90931e-25)
(0.805832 -0.15283 5.66056e-22)
(0.865781 -0.203987 1.0875e-22)
(0.922454 -0.20324 -3.97395e-22)
(0.97969 -0.19767 -3.2605e-35)
(1.0326 -0.178678 4.43363e-21)
(1.07722 -0.150661 4.43765e-21)
(1.11014 -0.117709 6.44423e-21)
(1.13015 -0.0843375 5.33229e-21)
(1.13867 -0.0548941 2.13973e-21)
(1.13926 -0.031271 3.96672e-21)
(1.13473 -0.0137544 -1.70703e-36)
(1.12669 -0.0014154 1.48527e-21)
(1.11709 0.00639704 -1.51777e-21)
(1.10797 0.0106415 -2.54791e-22)
(1.10028 0.0123497 -1.30996e-22)
(1.09409 0.0123997 -7.87747e-22)
(1.08925 0.0114423 2.31691e-23)
(1.08556 0.00993229 -6.19385e-22)
(1.08281 0.00819468 -6.39804e-28)
(1.08076 0.00640624 3.02935e-22)
(1.07922 0.00471732 -2.27727e-23)
(1.07799 0.00313038 -2.68342e-22)
(1.07695 0.00177334 1.26318e-22)
(1.076 0.00049691 2.28457e-21)
(0.768725 -0.164485 6.27029e-24)
(0.827728 -0.226085 1.69697e-22)
(0.885792 -0.228306 1.89457e-21)
(0.947172 -0.226462 -4.84304e-35)
(1.00702 -0.209702 -1.81533e-20)
(1.06111 -0.181611 -1.63828e-20)
(1.10429 -0.145484 -1.46238e-20)
(1.13326 -0.106628 1.07237e-21)
(1.14733 -0.0696392 -7.39751e-21)
(1.1492 -0.039226 -2.26949e-21)
(1.14422 -0.0166873 0)
(1.13598 -0.00145436 6.77992e-22)
(1.12572 0.00822287 1.02175e-34)
(1.11478 0.0135514 -5.6563e-22)
(1.10501 0.0156834 7.47303e-22)
(1.09716 0.0157134 -2.2603e-21)
(1.09113 0.0144879 1.02644e-21)
(1.0866 0.0126105 -2.15034e-21)
(1.08328 0.0104723 1.60214e-23)
(1.08088 0.00833813 3.18013e-22)
(1.07914 0.00632506 -2.3679e-23)
(1.07784 0.00454036 -2.75978e-21)
(1.07681 0.00294409 2.2258e-21)
(1.0759 0.00163709 2.4293e-21)
(1.07507 0.000448669 2.30925e-22)
(0.739161 -0.173619 1.7505e-21)
(0.79002 -0.247333 -1.80209e-21)
(0.846867 -0.252493 -1.51544e-20)
(0.909814 -0.254852 -4.3468e-21)
(0.974678 -0.241647 -6.37434e-21)
(1.03706 -0.215089 -1.77411e-21)
(1.0914 -0.177735 5.17101e-21)
(1.13199 -0.13434 1.50115e-20)
(1.15577 -0.0906994 3.58098e-21)
(1.16277 -0.0515149 -1.13884e-20)
(1.15712 -0.0215029 -3.42572e-35)
(1.14622 -0.0012501 5.49878e-21)
(1.13454 0.0108576 2.78799e-21)
(1.12262 0.0173784 -5.39154e-21)
(1.11094 0.0199684 5.56337e-22)
(1.10102 0.0199199 1.42397e-22)
(1.09342 0.0183139 2.92624e-21)
(1.08782 0.015915 -8.14742e-23)
(1.0838 0.0132436 1.83444e-23)
(1.08096 0.0106037 5.99358e-22)
(1.07899 0.00818855 3.10985e-23)
(1.0776 0.00604998 -2.71601e-21)
(1.07656 0.00424721 -3.18845e-22)
(1.07573 0.00270078 1.32985e-21)
(1.07496 0.00147976 3.13018e-22)
(1.07423 0.000399735 1.84925e-28)
(0.718658 -0.181021 1.42007e-22)
(0.760359 -0.263727 -6.62366e-22)
(0.807787 -0.27534 1.52214e-23)
(0.869607 -0.281665 8.28049e-26)
(0.936146 -0.272725 -1.55246e-21)
(1.00469 -0.249529 9.19273e-21)
(1.06895 -0.212504 2.57014e-20)
(1.12234 -0.166423 2.05172e-20)
(1.15881 -0.116754 1.5823e-20)
(1.17626 -0.0699441 1.17824e-21)
(1.17535 -0.0304509 5.87349e-36)
(1.16171 -0.00250618 -1.12549e-21)
(1.14508 0.0141337 1.43213e-21)
(1.13055 0.0224402 3.32166e-24)
(1.11761 0.0255382 -5.80432e-22)
(1.10579 0.0253193 2.77392e-22)
(1.09624 0.0231538 5.34765e-22)
(1.08926 0.0200491 -4.17053e-22)
(1.08435 0.016642 -1.00186e-35)
(1.08098 0.0133404 2.1466e-21)
(1.07872 0.0103477 2.89875e-22)
(1.07722 0.00777719 -2.82008e-21)
(1.07619 0.00561413 8.46572e-27)
(1.07542 0.00386792 2.18953e-21)
(1.07476 0.0024235 -3.27012e-21)
(1.07412 0.00131571 -1.42824e-22)
(1.07349 0.0003545 -2.09606e-22)
(0.701954 -0.188547 1.36432e-22)
(0.739196 -0.275926 4.27647e-21)
(0.776894 -0.292674 3.55956e-21)
(0.82869 -0.30596 -1.77593e-21)
(0.893603 -0.301558 3.06915e-20)
(0.964415 -0.282676 8.15237e-22)
(1.03641 -0.248239 -7.44108e-21)
(1.10137 -0.200698 2.76788e-20)
(1.15202 -0.146513 1.0996e-20)
(1.18274 -0.0921629 -1.33053e-20)
(1.19299 -0.0443357 6.5292e-39)
(1.18346 -0.00694985 -1.04648e-20)
(1.16222 0.0167718 -4.16729e-25)
(1.14075 0.0285809 4.38387e-21)
(1.12429 0.0326652 -3.9224e-21)
(1.11103 0.0322767 4.1761e-21)
(1.09967 0.0293453 4.89286e-22)
(1.09096 0.0252547 -2.85813e-22)
(1.08491 0.0208716 -2.03702e-23)
(1.08087 0.0166699 3.30884e-22)
(1.07827 0.0129296 -3.4109e-21)
(1.07664 0.00974612 -3.82843e-21)
(1.07563 0.007149 -1.12176e-26)
(1.07495 0.00505944 2.41507e-21)
(1.07442 0.00343709 3.06237e-23)
(1.07393 0.00213682 1.09512e-34)
(1.07339 0.00115966 -1.33315e-22)
(1.07284 0.000317185 0)
(0.689395 -0.195939 1.26364e-21)
(0.721274 -0.2879 1.97758e-21)
(0.754823 -0.30539 2.02606e-20)
(0.796192 -0.323567 2.9653e-20)
(0.849391 -0.326443 9.45549e-21)
(0.91868 -0.312931 8.99722e-22)
(0.993887 -0.282182 6.73422e-21)
(1.06842 -0.235929 2.77966e-20)
(1.13236 -0.177918 1.12151e-20)
(1.17816 -0.116994 -8.91488e-22)
(1.20205 -0.060422 0)
(1.20395 -0.014048 2.19654e-21)
(1.1857 0.0179127 -1.05725e-20)
(1.15821 0.035209 -9.8594e-23)
(1.13335 0.0413507 -7.97923e-22)
(1.11609 0.0410345 8.89992e-22)
(1.10328 0.0372685 -3.77793e-21)
(1.09293 0.0318825 -7.31588e-22)
(1.08546 0.0261669 -1.82892e-23)
(1.08058 0.0207864 3.19562e-22)
(1.07756 0.0160384 -1.12888e-21)
(1.07579 0.0120674 -1.84054e-21)
(1.07481 0.00885884 7.40072e-22)
(1.07427 0.00636062 2.45678e-21)
(1.07392 0.00443409 2.32673e-22)
(1.07359 0.00299169 3.53214e-22)
(1.07323 0.00186585 1.12474e-21)
(1.07276 0.00102567 1.13632e-22)
(1.07226 0.000291589 -1.81018e-21)
(0.68196 -0.203829 4.20708e-22)
(0.708112 -0.299154 -1.49046e-21)
(0.73617 -0.317637 -6.56151e-21)
(0.772652 -0.335734 1.53361e-21)
(0.813987 -0.343488 3.03291e-20)
(0.869964 -0.337884 1.96313e-21)
(0.944192 -0.312747 -4.30236e-20)
(1.02315 -0.268729 -1.41691e-21)
(1.09873 -0.210297 -3.62242e-20)
(1.1595 -0.142829 -3.94054e-20)
(1.1989 -0.0780126 -6.92155e-36)
(1.2136 -0.0222899 -1.01848e-21)
(1.20724 0.0189365 2.31249e-20)
(1.18171 0.0423113 -1.07974e-20)
(1.14968 0.0518169 1.06339e-20)
(1.12319 0.0518082 -3.45671e-21)
(1.10644 0.0471577 1.0372e-21)
(1.0948 0.0403154 -7.18343e-22)
(1.08594 0.0328691 8.93753e-24)
(1.08002 0.0259038 4.13029e-23)
(1.07649 0.0198486 -2.3637e-21)
(1.07457 0.014822 -8.91112e-22)
(1.07365 0.0108323 2.9743e-21)
(1.07329 0.00776086 2.42926e-21)
(1.07317 0.00547711 2.33377e-22)
(1.07309 0.0037895 -2.35337e-27)
(1.07292 0.00256954 -3.90243e-22)
(1.07264 0.0016346 -8.7044e-22)
(1.07221 0.000926195 -1.82667e-21)
(1.07172 0.000280872 -4.63902e-25)
(0.682837 -0.211735 -2.09922e-21)
(0.700495 -0.309715 -2.44804e-21)
(0.721806 -0.329064 -2.18037e-21)
(0.752405 -0.346862 1.55936e-20)
(0.787968 -0.354469 -2.30015e-20)
(0.830495 -0.354193 -4.14784e-20)
(0.88994 -0.336909 -2.32667e-23)
(0.968979 -0.297975 -3.81314e-20)
(1.05029 -0.239358 -3.62562e-20)
(1.12482 -0.169678 -4.41543e-20)
(1.18041 -0.0957363 -2.50418e-34)
(1.21062 -0.0316667 2.05673e-20)
(1.21635 0.019325 1.91588e-20)
(1.20255 0.0507216 -3.71324e-21)
(1.17179 0.0646062 -2.07293e-21)
(1.13697 0.0655711 -6.41088e-21)
(1.1109 0.0593843 3.48945e-21)
(1.09591 0.0507943 -2.34963e-21)
(1.08604 0.0413522 2.8738e-35)
(1.07908 0.0323358 5.6463e-22)
(1.07493 0.0245434 -2.71549e-23)
(1.07283 0.0181572 -3.81822e-22)
(1.07201 0.0131237 -2.73837e-21)
(1.07191 0.00932251 1.60015e-21)
(1.07211 0.00653801 1.05438e-21)
(1.07235 0.00456785 3.12634e-27)
(1.07248 0.00317841 -1.99138e-22)
(1.0724 0.00220694 2.46497e-22)
(1.07214 0.00146435 6.02957e-22)
(1.07171 0.000871395 -6.51353e-23)
(1.0712 0.000287162 1.70257e-21)
(0.690319 -0.219994 -3.27706e-22)
(0.698943 -0.31938 1.61553e-21)
(0.712595 -0.33938 5.63478e-21)
(0.736339 -0.356622 -7.11251e-22)
(0.765182 -0.363656 9.39739e-21)
(0.800945 -0.364024 -1.2987e-20)
(0.845508 -0.352202 -7.12508e-21)
(0.908481 -0.319997 7.39934e-21)
(0.991544 -0.265382 4.86649e-20)
(1.07309 -0.192007 -7.09792e-21)
(1.14401 -0.114247 -4.93265e-35)
(1.19255 -0.0394224 -6.67208e-21)
(1.21371 0.0191084 -7.45762e-20)
(1.21424 0.0601933 9.67433e-21)
(1.19066 0.0796345 6.763e-21)
(1.15632 0.0833342 1.098e-21)
(1.12092 0.0754444 -7.15521e-21)
(1.09734 0.0637284 -1.03281e-21)
(1.08508 0.051871 1.98698e-23)
(1.07748 0.0404312 6.77076e-22)
(1.0727 0.0303954 1.10212e-22)
(1.07041 0.0222177 -4.21253e-21)
(1.06976 0.0158462 2.3227e-21)
(1.07 0.0110704 2.92922e-21)
(1.07063 0.00764973 2.11973e-22)
(1.07131 0.00528179 -8.57482e-23)
(1.07181 0.00370427 -1.92786e-22)
(1.07205 0.00265155 0)
(1.072 0.00193617 -1.76945e-21)
(1.07171 0.00137246 -7.57894e-22)
(1.07122 0.000868398 1.70253e-21)
(1.07067 0.000311012 -1.67348e-21)
(0.706338 -0.228398 -4.5248e-22)
(0.704365 -0.327804 -2.81992e-21)
(0.709505 -0.348447 -7.45611e-22)
(0.725242 -0.364816 2.3848e-20)
(0.746517 -0.370748 5.5061e-21)
(0.774635 -0.371109 -1.5769e-20)
(0.811764 -0.361016 4.80634e-21)
(0.858428 -0.333414 7.95662e-21)
(0.92433 -0.283459 8.26983e-21)
(1.01007 -0.212991 -1.23405e-20)
(1.08936 -0.12708 -3.29764e-20)
(1.15386 -0.046798 -2.87971e-20)
(1.19381 0.022377 -7.7824e-21)
(1.20893 0.071344 2.23637e-20)
(1.19887 0.0977867 1.73451e-21)
(1.17227 0.10467 -2.04039e-21)
(1.13618 0.0968456 -4.2697e-21)
(1.10282 0.0808358 1.40912e-20)
(1.08347 0.0647724 -4.35275e-22)
(1.07455 0.0504604 1.91718e-21)
(1.06953 0.0377097 3.50257e-21)
(1.06709 0.0272268 -4.97357e-21)
(1.06667 0.019101 -1.85377e-21)
(1.06739 0.0130791 4.22929e-21)
(1.06859 0.00880641 2.06404e-21)
(1.06985 0.00593305 -1.09979e-22)
(1.07087 0.00408665 5.74062e-22)
(1.07153 0.00295539 0)
(1.07179 0.00225432 -1.68847e-21)
(1.07169 0.00178382 -3.21351e-22)
(1.07131 0.00137105 9.45628e-22)
(1.07073 0.000920701 -1.67537e-21)
(1.07008 0.000351385 -2.39688e-26)
(0.729578 -0.236888 -1.67435e-21)
(0.716959 -0.334689 -2.86907e-21)
(0.712907 -0.35619 -3.06719e-21)
(0.719749 -0.371527 1.02504e-20)
(0.732752 -0.375655 -1.4868e-20)
(0.752703 -0.375593 3.35637e-21)
(0.781396 -0.367046 3.98728e-21)
(0.820106 -0.341126 -1.40562e-20)
(0.868087 -0.294044 1.97471e-20)
(0.935764 -0.22454 5.80908e-21)
(1.02223 -0.141639 4.55904e-25)
(1.09709 -0.0485547 5.26931e-21)
(1.15312 0.0274979 3.80511e-20)
(1.18432 0.0854948 -1.68924e-20)
(1.19133 0.119614 -1.74153e-21)
(1.17688 0.12973 1.25137e-20)
(1.14855 0.12304 -9.8165e-21)
(1.113 0.104113 -2.82883e-21)
(1.0841 0.0816904 5.31797e-26)
(1.07013 0.0626679 9.56114e-22)
(1.06482 0.0467644 -1.47113e-22)
(1.06256 0.0334285 1.23602e-22)
(1.06249 0.0230568 2.51417e-21)
(1.06384 0.0154024 9.78317e-22)
(1.06581 0.0100398 -2.23486e-21)
(1.06783 0.00648491 2.22273e-36)
(1.06954 0.00429584 1.09864e-22)
(1.07077 0.00304433 1.80634e-22)
(1.07146 0.00238346 -1.51155e-21)
(1.07165 0.00202439 4.93765e-27)
(1.07141 0.00176875 1.64889e-21)
(1.07089 0.00146581 5.52024e-22)
(1.07018 0.00102777 2.81534e-24)
(1.06941 0.000406223 1.66484e-21)
(0.760059 -0.244297 0)
(0.735965 -0.339226 1.69967e-22)
(0.722658 -0.361706 -4.64939e-21)
(0.720099 -0.375735 2.55853e-20)
(0.724482 -0.378349 2.44112e-21)
(0.735997 -0.377802 -1.68912e-20)
(0.755722 -0.369808 1.87379e-21)
(0.785327 -0.345113 -4.78595e-21)
(0.824963 -0.300508 -6.30877e-21)
(0.873405 -0.231707 -6.91856e-21)
(0.941239 -0.142823 1.01052e-20)
(1.02541 -0.0553207 1.62172e-20)
(1.09472 0.0363683 2.96062e-21)
(1.14231 0.10176 -2.92355e-20)
(1.16578 0.143322 4.41725e-20)
(1.16664 0.158653 -2.22404e-20)
(1.14991 0.153001 -2.56953e-21)
(1.12122 0.133124 9.52329e-21)
(1.08857 0.105013 -4.11646e-34)
(1.06612 0.0783534 -1.2869e-20)
(1.05803 0.0577213 -1.34168e-21)
(1.05632 0.0410887 -6.60434e-21)
(1.05689 0.0278857 -2.59822e-21)
(1.05909 0.018151 1.72064e-21)
(1.06205 0.011355 -1.85759e-21)
(1.06507 0.0069236 1.76347e-22)
(1.06769 0.0042651 1.34627e-21)
(1.06969 0.00285877 2.14722e-22)
(1.07096 0.00223833 -1.06238e-21)
(1.07155 0.00204075 -6.42473e-27)
(1.07156 0.00198891 1.50694e-21)
(1.07113 0.00190038 -1.61152e-21)
(1.07041 0.00165544 2.96399e-35)
(1.06954 0.00118479 1.67714e-21)
(1.06863 0.000472369 0)
(0.804967 -0.252709 -2.62962e-22)
(0.760941 -0.341209 -4.66625e-21)
(0.738192 -0.364299 -2.73964e-21)
(0.726263 -0.377363 -4.26453e-22)
(0.722066 -0.379189 2.14272e-20)
(0.725071 -0.378204 -2.60747e-20)
(0.73557 -0.369542 5.25395e-21)
(0.755402 -0.3455 2.13308e-20)
(0.785636 -0.302681 -6.57691e-20)
(0.826255 -0.237374 4.74004e-21)
(0.874488 -0.147708 -7.75863e-21)
(0.941082 -0.0425261 -1.02117e-21)
(1.01874 0.0399752 2.97765e-21)
(1.08239 0.119654 4.00317e-21)
(1.12262 0.168763 -6.1456e-21)
(1.13961 0.189923 -1.74376e-20)
(1.13666 0.18649 1.29932e-20)
(1.11925 0.166119 2.61443e-21)
(1.09213 0.134811 -1.11918e-21)
(1.06462 0.10004 2.52754e-21)
(1.05003 0.0714218 6.82899e-21)
(1.04765 0.050333 -5.14737e-21)
(1.04942 0.0338139 -3.6399e-21)
(1.05276 0.0214209 -8.10803e-23)
(1.05701 0.0128005 4.65e-22)
(1.06133 0.00720455 2.21142e-22)
(1.06516 0.0039337 1.46405e-22)
(1.06816 0.00230381 2.8393e-23)
(1.07022 0.00173282 -1.52339e-22)
(1.07136 0.00173974 3.16535e-22)
(1.07172 0.00196574 1.36583e-21)
(1.07147 0.00216193 -1.47873e-21)
(1.07078 0.00217757 5.59467e-24)
(1.06984 0.00193129 -5.53719e-22)
(1.06879 0.00138287 1.22723e-23)
(1.06772 0.000545649 -1.80617e-22)
(0.862833 -0.254614 -4.15192e-21)
(0.799973 -0.339485 1.51248e-21)
(0.759418 -0.36389 -2.30176e-21)
(0.738297 -0.376983 -1.77591e-20)
(0.725656 -0.378647 4.32148e-20)
(0.720192 -0.376103 -1.40116e-20)
(0.721371 -0.36609 7.50874e-21)
(0.731189 -0.342637 -2.46691e-21)
(0.7515 -0.30129 -5.28362e-21)
(0.782911 -0.238328 1.91446e-20)
(0.824603 -0.152593 -2.33488e-20)
(0.873154 -0.0490392 3.52528e-21)
(0.935338 0.0639123 1.14093e-21)
(1.0054 0.135118 2.69069e-20)
(1.06205 0.19486 -1.11136e-21)
(1.09546 0.222838 7.54017e-21)
(1.10762 0.222825 -3.86906e-20)
(1.1032 0.202299 -2.54156e-21)
(1.08692 0.168953 4.78892e-21)
(1.06304 0.128605 -8.3177e-21)
(1.04278 0.0901432 1.0991e-21)
(1.03657 0.0615778 9.97809e-21)
(1.03934 0.0409605 6.0941e-21)
(1.04441 0.0253729 6.06214e-21)
(1.05031 0.0143964 -2.59625e-22)
(1.05632 0.00730986 -2.10669e-21)
(1.0617 0.00320806 -2.07767e-21)
(1.06604 0.00127228 -2.05034e-21)
(1.06914 0.000746994 -1.7854e-21)
(1.07105 0.00101407 -3.0032e-22)
(1.07189 0.00160209 1.1955e-21)
(1.0719 0.00217936 -1.33789e-21)
(1.0713 0.00254274 -3.89482e-28)
(1.07032 0.00258799 1.63433e-21)
(1.06913 0.00227767 2.618e-35)
(1.06789 0.00160964 -2.07831e-22)
(1.06667 0.000621122 6.53597e-29)
(0.926376 -0.251006 -3.11104e-21)
(0.85384 -0.330823 4.68606e-21)
(0.794104 -0.359294 5.61117e-21)
(0.755747 -0.374959 -1.36214e-24)
(0.735035 -0.376187 -1.24012e-20)
(0.721252 -0.371651 1.89612e-20)
(0.713363 -0.360081 3.02983e-20)
(0.713314 -0.336717 -3.9982e-20)
(0.723534 -0.296615 5.45181e-20)
(0.745031 -0.235836 -7.26787e-20)
(0.778056 -0.152942 -2.18381e-20)
(0.82057 -0.0512772 -2.55694e-21)
(0.867642 0.0551263 0)
(0.923828 0.157648 -6.21603e-22)
(0.987417 0.21878 -2.00236e-20)
(1.03551 0.255407 1.82402e-20)
(1.06297 0.260542 -1.34627e-20)
(1.07244 0.241027 6.15406e-20)
(1.0685 0.205868 -1.07534e-20)
(1.05458 0.162027 -2.24145e-21)
(1.0357 0.11556 -5.0892e-23)
(1.02438 0.0765163 -1.3175e-20)
(1.02616 0.0494623 -3.98832e-21)
(1.03337 0.0301139 4.70141e-21)
(1.0415 0.0162219 -4.28844e-23)
(1.04964 0.00718523 6.1699e-35)
(1.05703 0.00199901 1.08855e-22)
(1.0631 -0.000376712 -1.41074e-22)
(1.0676 -0.000869558 -4.61722e-23)
(1.07053 -0.00027644 6.20736e-22)
(1.07206 0.000776961 1.69863e-22)
(1.07245 0.00185612 -1.15495e-21)
(1.072 0.00268244 8.99895e-28)
(1.071 0.00311473 1.51936e-21)
(1.0697 0.00310839 -3.60594e-23)
(1.06827 0.00267284 5.77151e-22)
(1.06684 0.00185003 -5.74959e-24)
(1.06547 0.000693336 1.87078e-22)
(0.989667 -0.240622 2.56869e-21)
(0.910906 -0.316185 1.30129e-22)
(0.842698 -0.347897 1.00365e-20)
(0.785511 -0.368916 1.22492e-20)
(0.749361 -0.371147 -4.57285e-21)
(0.727824 -0.364872 1.24638e-20)
(0.711486 -0.351719 2.04285e-20)
(0.702162 -0.328078 2.24179e-20)
(0.702419 -0.288852 -1.07626e-20)
(0.713815 -0.230189 3.11041e-20)
(0.737067 -0.150108 3.49181e-20)
(0.771711 -0.0514433 -8.1494e-21)
(0.813719 0.0571442 1.12435e-20)
(0.856136 0.160178 1.22096e-21)
(0.908348 0.242886 1.84838e-20)
(0.964013 0.285357 -3.43945e-20)
(1.00447 0.297217 -4.08915e-20)
(1.02774 0.280669 -8.39638e-21)
(1.03644 0.244714 1.5984e-21)
(1.03429 0.197973 2.1439e-21)
(1.02377 0.146426 4.15679e-35)
(1.01179 0.0972243 1.12847e-20)
(1.01026 0.0603136 1.87857e-21)
(1.01894 0.0356564 -5.81141e-21)
(1.02995 0.0183394 -2.44688e-21)
(1.04082 0.00681813 3.13426e-21)
(1.05075 0.000178417 7.35087e-22)
(1.05909 -0.00280725 1.47533e-21)
(1.06542 -0.0033021 -1.63389e-22)
(1.06973 -0.00231913 -3.40768e-22)
(1.07218 -0.00066359 -1.80906e-22)
(1.07311 0.00106695 -1.37079e-22)
(1.07291 0.00250596 -8.77722e-23)
(1.07193 0.00345387 1.40698e-21)
(1.07051 0.00384567 0)
(1.06889 0.00370603 -9.70761e-23)
(1.06722 0.00309028 -1.59056e-21)
(1.06564 0.00208715 2.06574e-22)
(1.06413 0.000756866 1.89899e-22)
(1.04708 -0.225294 3.07033e-22)
(0.967059 -0.298027 -4.99429e-21)
(0.895282 -0.330219 -1.81998e-20)
(0.828152 -0.35533 2.27243e-25)
(0.77472 -0.361536 1.30872e-20)
(0.739103 -0.35598 5.22744e-21)
(0.715443 -0.341374 -1.30226e-20)
(0.69768 -0.316995 6.73871e-20)
(0.688504 -0.278446 -4.85954e-20)
(0.689957 -0.221509 1.78213e-20)
(0.703249 -0.144364 -1.74509e-21)
(0.728571 -0.0487956 1.77678e-21)
(0.764025 0.0577221 -3.85677e-21)
(0.803886 0.162249 1.00478e-20)
(0.84188 0.253617 1.35405e-21)
(0.887791 0.313276 -8.17879e-21)
(0.93653 0.33101 8.84974e-20)
(0.971233 0.318953 1.79468e-20)
(0.992067 0.284013 2.34528e-21)
(1.00139 0.235268 -5.10082e-20)
(1.00188 0.179982 1.75657e-20)
(0.995919 0.123721 2.1011e-21)
(0.992696 0.0753616 -8.82796e-22)
(1.00073 0.0424449 2.11531e-21)
(1.01493 0.020719 -2.42402e-22)
(1.02925 0.00619138 -4.84983e-22)
(1.04241 -0.00236685 -3.11095e-22)
(1.05361 -0.00622168 1.07458e-35)
(1.06236 -0.00679016 5.83369e-22)
(1.0685 -0.00533873 -9.90787e-22)
(1.07222 -0.00293385 -2.4137e-22)
(1.07391 -0.000347801 -7.34993e-22)
(1.07407 0.00189427 -6.30801e-23)
(1.07316 0.00352598 1.27732e-21)
(1.07162 0.00445053 0)
(1.06978 0.00468946 -1.7181e-22)
(1.06786 0.00434069 1.61519e-23)
(1.066 0.00350041 1.02519e-21)
(1.06428 0.00230368 1.63721e-22)
(1.06268 0.000807268 -3.76528e-29)
(1.09339 -0.205565 -3.50223e-21)
(1.01771 -0.273686 -9.1653e-22)
(0.947524 -0.307107 3.38331e-21)
(0.875137 -0.335302 -1.0832e-20)
(0.812014 -0.345567 -2.28813e-20)
(0.76085 -0.342758 -1.04086e-20)
(0.724429 -0.329063 -7.33621e-21)
(0.699529 -0.304029 -1.33956e-20)
(0.681712 -0.265639 8.72784e-23)
(0.673806 -0.210378 -1.06265e-19)
(0.677312 -0.135827 4.73943e-20)
(0.69303 -0.0435582 -7.32282e-20)
(0.720129 0.0600694 -1.77336e-20)
(0.755121 0.164774 -1.15654e-20)
(0.791934 0.256503 -8.97312e-21)
(0.824691 0.327419 3.89336e-20)
(0.864847 0.360807 -2.07428e-20)
(0.907403 0.353995 -2.58285e-20)
(0.937914 0.321817 1.0005e-20)
(0.957613 0.272673 6.80178e-21)
(0.968461 0.214553 -4.78393e-25)
(0.972313 0.153472 -1.44864e-21)
(0.97251 0.0958723 -3.26639e-21)
(0.979367 0.0515943 -6.05011e-21)
(0.995683 0.0235221 4.19728e-21)
(1.01423 0.00522983 5.23254e-26)
(1.03137 -0.00576017 -2.55145e-21)
(1.04624 -0.0108466 -2.25787e-21)
(1.05808 -0.0116112 1.22121e-22)
(1.06666 -0.00964532 1.95646e-21)
(1.0721 -0.0062894 -4.99657e-22)
(1.07486 -0.00261531 8.95762e-24)
(1.07554 0.000692332 1.1722e-35)
(1.07477 0.00322924 -7.22195e-22)
(1.07311 0.00486007 3.63315e-22)
(1.07101 0.0056095 -1.66306e-22)
(1.06878 0.00558899 -1.1436e-27)
(1.06661 0.00496712 1.37456e-22)
(1.0646 0.00387307 -1.04721e-21)
(1.06279 0.00248343 3.76762e-23)
(1.06114 0.000840799 -1.92733e-22)
(1.12565 -0.183125 5.19849e-22)
(1.05923 -0.245268 -7.5015e-23)
(0.995171 -0.279529 -2.48388e-21)
(0.922724 -0.310179 6.35703e-35)
(0.854191 -0.324071 1.96096e-20)
(0.794016 -0.32432 1.82791e-20)
(0.743817 -0.312539 2.75683e-22)
(0.706796 -0.289089 8.27289e-21)
(0.681767 -0.251144 4.43213e-20)
(0.665191 -0.196968 -9.07008e-20)
(0.659648 -0.125134 3.83917e-20)
(0.6659 -0.0361414 -1.49677e-19)
(0.68412 0.0644205 -3.99009e-20)
(0.712285 0.166887 -1.9663e-20)
(0.745785 0.260351 3.99759e-20)
(0.779225 0.332492 -3.18701e-20)
(0.806856 0.377098 1.85377e-20)
(0.841353 0.383561 1.71211e-20)
(0.878384 0.356248 1.82521e-20)
(0.905812 0.308674 -5.06523e-20)
(0.925333 0.24909 -8.32546e-21)
(0.938441 0.184388 -3.26524e-21)
(0.946676 0.120215 -8.79471e-21)
(0.954987 0.0650699 2.37111e-21)