/*--------------------------------*- C++ -*----------------------------------*\
| =========                 |                                                 |
| \\      /  F ield         | OpenFOAM: The Open Source CFD Toolbox           |
|  \\    /   O peration     | Version:  2506                                  |
|   \\  /    A nd           | Website:  www.openfoam.com                      |
|    \\/     M anipulation  |                                                 |
\*---------------------------------------------------------------------------*/
FoamFile
{
    version     2.0;
    format      ascii;
    arch        "LSB;label=32;scalar=64";
    class       volScalarField;
    location    "250";
    object      magR;
}
// * * * * * * * * * * * * * * * * * * * * * * * * * * * * * * * * * * * * * //

dimensions      [0 2 -2 0 0 0 0];

internalField   nonuniform List<scalar> 
1340
(
0.000592099
0.000585152
0.000577499
0.000567962
0.000555431
0.000502711
0.000496487
0.00048986
0.000481858
0.000471369
0.000459284
0.000429701
0.000424131
0.000418325
0.000411548
0.000402713
0.00039275
0.000381782
0.000369349
0.000364394
0.000359295
0.000353503
0.000346032
0.000337753
0.000328831
0.000319177
0.000319054
0.000314626
0.000310151
0.000305148
0.000298803
0.000291879
0.000284522
0.00027658
0.000268045
0.000276798
0.000272831
0.000268894
0.000264554
0.000259127
0.000253302
0.000247164
0.000240577
0.000233587
0.000226417
0.000241042
0.000237499
0.00023401
0.000230233
0.000225568
0.000220639
0.000215468
0.000209955
0.000204188
0.000198332
0.0002106
0.000207444
0.000204348
0.000201035
0.000197009
0.000192813
0.000188419
0.000183771
0.00017898
0.000174163
0.000169293
0.000184547
0.000181729
0.00017898
0.000176062
0.00017257
0.000168981
0.000165218
0.000161275
0.000157263
0.000153269
0.000149264
0.000162141
0.000159622
0.000157175
0.000154597
0.00015156
0.000148465
0.000145227
0.000141859
0.000138481
0.000135143
0.000131826
0.000128507
0.000142785
0.000140533
0.00013835
0.000136068
0.000133419
0.000130729
0.00012793
0.00012504
0.000122171
0.000119363
0.000116597
0.000113849
0.000125999
0.000123986
0.000122035
0.000120011
0.000117694
0.000115343
0.000112909
0.000110418
0.000107969
0.000105591
0.000103267
0.000100972
0.000111393
0.000109594
0.000107844
0.000106047
0.000104013
0.00010195
9.98257e-05
9.76681e-05
9.55643e-05
9.35366e-05
9.15676e-05
8.96418e-05
8.77414e-05
9.86422e-05
9.70344e-05
9.54658e-05
9.38654e-05
9.20741e-05
9.02567e-05
8.83966e-05
8.65172e-05
8.4701e-05
8.29615e-05
8.12833e-05
7.96518e-05
7.80531e-05
8.74821e-05
8.60412e-05
8.46381e-05
8.3209e-05
8.16273e-05
8.00219e-05
7.83866e-05
7.67434e-05
7.51653e-05
7.36633e-05
7.2223e-05
7.08335e-05
6.94802e-05
6.81358e-05
7.76881e-05
7.63963e-05
7.51401e-05
7.38619e-05
7.24625e-05
7.10411e-05
6.95975e-05
6.81565e-05
6.67797e-05
6.54749e-05
6.42315e-05
6.30388e-05
6.18829e-05
6.07403e-05
6.90719e-05
6.79158e-05
6.67894e-05
6.56441e-05
6.44043e-05
6.31429e-05
6.18648e-05
6.05971e-05
5.93895e-05
5.82509e-05
5.71705e-05
5.61405e-05
5.51473e-05
5.41702e-05
6.14774e-05
6.04429e-05
5.9433e-05
5.84054e-05
5.73047e-05
5.61833e-05
5.50484e-05
5.39294e-05
5.28675e-05
5.18691e-05
5.09249e-05
5.00288e-05
4.91697e-05
4.83289e-05
4.74855e-05
5.47716e-05
5.38443e-05
5.29394e-05
5.20177e-05
5.10383e-05
5.00399e-05
4.90313e-05
4.80399e-05
4.71025e-05
4.6223e-05
4.53937e-05
4.46099e-05
4.38615e-05
4.31324e-05
4.24054e-05
4.88392e-05
4.80077e-05
4.71977e-05
4.6371e-05
4.54971e-05
4.46076e-05
4.37103e-05
4.28299e-05
4.19997e-05
4.1222e-05
4.04908e-05
3.98017e-05
3.91459e-05
3.85101e-05
3.78785e-05
4.35831e-05
4.28378e-05
4.21125e-05
4.13714e-05
4.05903e-05
3.97975e-05
3.8998e-05
3.8215e-05
3.74776e-05
3.67879e-05
3.61401e-05
3.55312e-05
3.49545e-05
3.43971e-05
3.38454e-05
3.32886e-05
3.89203e-05
3.82521e-05
3.76022e-05
3.69382e-05
3.62401e-05
3.55324e-05
3.48196e-05
3.41223e-05
3.34659e-05
3.28524e-05
3.22767e-05
3.17374e-05
3.12265e-05
3.07348e-05
3.02516e-05
2.97656e-05
3.4179e-05
3.35972e-05
3.30019e-05
3.23779e-05
3.17461e-05
3.11101e-05
3.04885e-05
2.99035e-05
2.93568e-05
2.88437e-05
2.83636e-05
2.79104e-05
2.74753e-05
2.70489e-05
2.66224e-05
2.61846e-05
3.05571e-05
3.00368e-05
2.95031e-05
2.8945e-05
2.83811e-05
2.78135e-05
2.72589e-05
2.67372e-05
2.62492e-05
2.57913e-05
2.5363e-05
2.49593e-05
2.45726e-05
2.41953e-05
2.38197e-05
2.34356e-05
2.73329e-05
2.68677e-05
2.63896e-05
2.58907e-05
2.53876e-05
2.48811e-05
2.43864e-05
2.39204e-05
2.34843e-05
2.30752e-05
2.26921e-05
2.23319e-05
2.19878e-05
2.16527e-05
2.13206e-05
2.09834e-05
2.446e-05
2.40442e-05
2.36163e-05
2.31705e-05
2.27217e-05
2.227e-05
2.18287e-05
2.14126e-05
2.1023e-05
2.0657e-05
2.03143e-05
1.99922e-05
1.96848e-05
1.93869e-05
1.90929e-05
1.87955e-05
1.84871e-05
2.18978e-05
2.15263e-05
2.11438e-05
2.07458e-05
2.03457e-05
1.99433e-05
1.95497e-05
1.91786e-05
1.88304e-05
1.8503e-05
1.81962e-05
1.7908e-05
1.76335e-05
1.7368e-05
1.71069e-05
1.68442e-05
1.65734e-05
1.9611e-05
1.92792e-05
1.89375e-05
1.85827e-05
1.82265e-05
1.78681e-05
1.75176e-05
1.71866e-05
1.6876e-05
1.65832e-05
1.63087e-05
1.60508e-05
1.58052e-05
1.55687e-05
1.53371e-05
1.51047e-05
1.48664e-05
1.75684e-05
1.72721e-05
1.69673e-05
1.66515e-05
1.63347e-05
1.60161e-05
1.57044e-05
1.54098e-05
1.51327e-05
1.48711e-05
1.46258e-05
1.43952e-05
1.41759e-05
1.3965e-05
1.37591e-05
1.35537e-05
1.33439e-05
1.31246e-05
1.57425e-05
1.54784e-05
1.52065e-05
1.4926e-05
1.46449e-05
1.4362e-05
1.40853e-05
1.38236e-05
1.35769e-05
1.33437e-05
1.31247e-05
1.29186e-05
1.2723e-05
1.25351e-05
1.23524e-05
1.21708e-05
1.19862e-05
1.17941e-05
1.41093e-05
1.38741e-05
1.36321e-05
1.33833e-05
1.31343e-05
1.28838e-05
1.26387e-05
1.24067e-05
1.21877e-05
1.19803e-05
1.1785e-05
1.16013e-05
1.1427e-05
1.12599e-05
1.10978e-05
1.09374e-05
1.07753e-05
1.06072e-05
1.26477e-05
1.24384e-05
1.22235e-05
1.20032e-05
1.17833e-05
1.15619e-05
1.13454e-05
1.11404e-05
1.09464e-05
1.07624e-05
1.05888e-05
1.04254e-05
1.02704e-05
1.01221e-05
9.97872e-06
9.83742e-06
9.69499e-06
9.54795e-06
9.39228e-06
1.1339e-05
1.11529e-05
1.09624e-05
1.0768e-05
1.05741e-05
1.03791e-05
1.01885e-05
1.00079e-05
9.8368e-06
9.67394e-06
9.52015e-06
9.37522e-06
9.23769e-06
9.10643e-06
8.97982e-06
8.85545e-06
8.73071e-06
8.60273e-06
8.46762e-06
1.01665e-05
1.00013e-05
9.83271e-06
9.6617e-06
9.49139e-06
9.32014e-06
9.15296e-06
8.99447e-06
8.84407e-06
8.70061e-06
8.56477e-06
8.43668e-06
8.31505e-06
8.19915e-06
8.08771e-06
7.97862e-06
7.86967e-06
7.75836e-06
7.64128e-06
9.11556e-06
8.96913e-06
8.82032e-06
8.67042e-06
8.52128e-06
8.37148e-06
8.22551e-06
8.08711e-06
7.95558e-06
7.82965e-06
7.71007e-06
7.59719e-06
7.4901e-06
7.38818e-06
7.29046e-06
7.19498e-06
7.10006e-06
7.00359e-06
6.90266e-06
6.794e-06
8.17318e-06
8.04359e-06
7.91271e-06
7.78168e-06
7.65166e-06
7.52123e-06
7.3945e-06
7.27434e-06
7.15974e-06
7.04967e-06
6.94498e-06
6.84591e-06
6.75194e-06
6.66262e-06
6.57721e-06
6.49407e-06
6.41179e-06
6.3285e-06
6.24163e-06
6.14839e-06
7.32782e-06
7.21331e-06
7.09862e-06
6.98462e-06
6.87177e-06
6.75881e-06
6.64944e-06
6.54574e-06
6.44652e-06
6.35083e-06
6.25951e-06
6.17299e-06
6.09089e-06
6.01298e-06
5.93868e-06
5.86662e-06
5.79554e-06
5.72384e-06
5.64939e-06
5.5699e-06
6.56921e-06
6.46823e-06
6.36809e-06
6.26945e-06
6.17196e-06
6.07477e-06
5.98113e-06
5.89229e-06
5.80694e-06
5.72419e-06
5.64495e-06
5.56977e-06
5.49843e-06
5.43081e-06
5.36644e-06
5.30425e-06
5.24316e-06
5.1818e-06
5.11837e-06
5.05083e-06
4.97665e-06
5.88823e-06
5.79936e-06
5.71232e-06
5.62749e-06
5.5438e-06
5.46079e-06
5.38135e-06
5.30588e-06
5.23297e-06
5.16188e-06
5.09352e-06
5.02857e-06
4.96694e-06
4.90859e-06
4.85316e-06
4.79984e-06
4.74766e-06
4.69538e-06
4.64153e-06
4.58441e-06
4.52189e-06
5.27672e-06
5.19874e-06
5.12342e-06
5.05101e-06
4.97969e-06
4.90947e-06
4.84284e-06
4.77935e-06
4.71758e-06
4.65696e-06
4.59839e-06
4.54263e-06
4.48975e-06
4.43976e-06
4.39239e-06
4.34692e-06
4.30257e-06
4.25833e-06
4.21295e-06
4.1649e-06
4.11244e-06
4.72742e-06
4.65924e-06
4.59445e-06
4.53317e-06
4.47288e-06
4.41421e-06
4.35911e-06
4.30635e-06
4.25451e-06
4.20323e-06
4.15347e-06
4.10601e-06
4.06101e-06
4.01851e-06
3.97833e-06
3.93986e-06
3.90244e-06
3.86522e-06
3.82718e-06
3.78702e-06
3.74328e-06
4.2339e-06
4.17448e-06
4.11917e-06
4.0678e-06
4.01739e-06
3.96916e-06
3.9244e-06
3.88119e-06
3.8382e-06
3.79529e-06
3.75343e-06
3.71344e-06
3.67549e-06
3.6397e-06
3.60591e-06
3.57363e-06
3.54229e-06
3.51121e-06
3.47949e-06
3.4461e-06
3.40976e-06
3.36881e-06
3.7904e-06
3.7388e-06
3.692e-06
3.64947e-06
3.60792e-06
3.56909e-06
3.5336e-06
3.49883e-06
3.46372e-06
3.42828e-06
3.39352e-06
3.36023e-06
3.32861e-06
3.29878e-06
3.27061e-06
3.2437e-06
3.21763e-06
3.19185e-06
3.16557e-06
3.13792e-06
3.10789e-06
3.07406e-06
3.39174e-06
3.34715e-06
3.30799e-06
3.27332e-06
3.23967e-06
3.20935e-06
3.18213e-06
3.15481e-06
3.12668e-06
3.09793e-06
3.06954e-06
3.04223e-06
3.0162e-06
2.99157e-06
2.9683e-06
2.94606e-06
2.9245e-06
2.90317e-06
2.88145e-06
2.85863e-06
2.83384e-06
2.80587e-06
3.03334e-06
2.99499e-06
2.96271e-06
2.93501e-06
2.90841e-06
2.8858e-06
2.86592e-06
2.84512e-06
2.82321e-06
2.80047e-06
2.77775e-06
2.75571e-06
2.73455e-06
2.7144e-06
2.69526e-06
2.6769e-06
2.65908e-06
2.64143e-06
2.62349e-06
2.60462e-06
2.58411e-06
2.561e-06
2.71108e-06
2.6783e-06
2.65221e-06
2.63063e-06
2.61037e-06
2.59474e-06
2.58131e-06
2.56621e-06
2.54987e-06
2.53251e-06
2.51479e-06
2.4973e-06
2.48024e-06
2.46379e-06
2.44802e-06
2.43281e-06
2.418e-06
2.40332e-06
2.38837e-06
2.37267e-06
2.3556e-06
2.33636e-06
2.31401e-06
2.42127e-06
2.39347e-06
2.37292e-06
2.35673e-06
2.34218e-06
2.33288e-06
2.32505e-06
2.3149e-06
2.3036e-06
2.29104e-06
2.27761e-06
2.26389e-06
2.25013e-06
2.23658e-06
2.22343e-06
2.21065e-06
2.19817e-06
2.1858e-06
2.1732e-06
2.15999e-06
2.14566e-06
2.12955e-06
2.11082e-06
2.16063e-06
2.13725e-06
2.12169e-06
2.1102e-06
2.10082e-06
2.09724e-06
2.0942e-06
2.08838e-06
2.0817e-06
2.07335e-06
2.06344e-06
2.05263e-06
2.04135e-06
2.02995e-06
2.01871e-06
2.00775e-06
1.99704e-06
1.98645e-06
1.97572e-06
1.9645e-06
1.95238e-06
1.93879e-06
1.92304e-06
1.9262e-06
1.90678e-06
1.89566e-06
1.88826e-06
1.8836e-06
1.88518e-06
1.88614e-06
1.88415e-06
1.88178e-06
1.87697e-06
1.86969e-06
1.86094e-06
1.85137e-06
1.84146e-06
1.83164e-06
1.82206e-06
1.81275e-06
1.80361e-06
1.79441e-06
1.78485e-06
1.77459e-06
1.76316e-06
1.74998e-06
1.71535e-06
1.69945e-06
1.6923e-06
1.68845e-06
1.68812e-06
1.69428e-06
1.69847e-06
1.69998e-06
1.70166e-06
1.69965e-06
1.69405e-06
1.68658e-06
1.67813e-06
1.6693e-06
1.66058e-06
1.65218e-06
1.64411e-06
1.63627e-06
1.62845e-06
1.62041e-06
1.61185e-06
1.60235e-06
1.59143e-06
1.52571e-06
1.51297e-06
1.50933e-06
1.50854e-06
1.51225e-06
1.5224e-06
1.52911e-06
1.53392e-06
1.53941e-06
1.53927e-06
1.53445e-06
1.5277e-06
1.52011e-06
1.51224e-06
1.50461e-06
1.49739e-06
1.49055e-06
1.48399e-06
1.47751e-06
1.47089e-06
1.46387e-06
1.4561e-06
1.44719e-06
1.43702e-06
1.35514e-06
1.34522e-06
1.34469e-06
1.34655e-06
1.35407e-06
1.36758e-06
1.3762e-06
1.3843e-06
1.39328e-06
1.39393e-06
1.38914e-06
1.38296e-06
1.37632e-06
1.36958e-06
1.36316e-06
1.35719e-06
1.35159e-06
1.34626e-06
1.34099e-06
1.33562e-06
1.32992e-06
1.32358e-06
1.31629e-06
1.30792e-06
1.20175e-06
1.19436e-06
1.19652e-06
1.20065e-06
1.21178e-06
1.22799e-06
1.23805e-06
1.24972e-06
1.26184e-06
1.26201e-06
1.25679e-06
1.25144e-06
1.24611e-06
1.24069e-06
1.23553e-06
1.23073e-06
1.22621e-06
1.22186e-06
1.21753e-06
1.21306e-06
1.20828e-06
1.20293e-06
1.19673e-06
1.18956e-06
1.0639e-06
1.05876e-06
1.06322e-06
1.06928e-06
1.08377e-06
1.10188e-06
1.11304e-06
1.12858e-06
1.14361e-06
1.14233e-06
1.13663e-06
1.13261e-06
1.12886e-06
1.12466e-06
1.12044e-06
1.11643e-06
1.11257e-06
1.10875e-06
1.10488e-06
1.10085e-06
1.09651e-06
1.09164e-06
1.08597e-06
1.07941e-06
9.40114e-07
9.37054e-07
9.43434e-07
9.51173e-07
9.6881e-07
9.87993e-07
9.99836e-07
1.01898e-06
1.03666e-06
1.03382e-06
1.02826e-06
1.02596e-06
1.02356e-06
1.02001e-06
1.01609e-06
1.01222e-06
1.0084e-06
1.00457e-06
1.00068e-06
9.96646e-07
9.92338e-07
9.87545e-07
9.82002e-07
9.75652e-07
8.29016e-07
8.27862e-07
8.35892e-07
8.45243e-07
8.6588e-07
8.85524e-07
8.97844e-07
9.20079e-07
9.39683e-07
9.3519e-07
9.30555e-07
9.30065e-07
9.28236e-07
9.2444e-07
9.20162e-07
9.15944e-07
9.11764e-07
9.0761e-07
9.03438e-07
8.99175e-07
8.94706e-07
8.89821e-07
8.84252e-07
8.77976e-07
7.2947e-07
7.29899e-07
7.39209e-07
7.50154e-07
7.7353e-07
7.93249e-07
8.0627e-07
8.33132e-07
8.54709e-07
8.45606e-07
8.41149e-07
8.42545e-07
8.40631e-07
8.35877e-07
8.30893e-07
8.26222e-07
8.21672e-07
8.17205e-07
8.12797e-07
8.08388e-07
8.03818e-07
7.98889e-07
7.93356e-07
7.8719e-07
7.80654e-07
6.41734e-07
6.43321e-07
6.53132e-07
6.6517e-07
6.90249e-07
7.08849e-07
7.21947e-07
7.55544e-07
7.83581e-07
7.65791e-07
7.58768e-07
7.62591e-07
7.60992e-07
7.55299e-07
7.49706e-07
7.44797e-07
7.40086e-07
7.35441e-07
7.30934e-07
7.26484e-07
7.21909e-07
7.17011e-07
7.11577e-07
7.05543e-07
6.99162e-07
5.71035e-07
5.7312e-07
5.82156e-07
5.93668e-07
6.17902e-07
6.32017e-07
6.41778e-07
6.81836e-07
7.1724e-07
6.92741e-07
6.8413e-07
6.91277e-07
6.91613e-07
6.86372e-07
6.81006e-07
6.76441e-07
6.72032e-07
6.67603e-07
6.63254e-07
6.58939e-07
6.5452e-07
6.49775e-07
6.44497e-07
6.3863e-07
6.32427e-07
5.1502e-07
5.17081e-07
5.2456e-07
5.34411e-07
5.5549e-07
5.62904e-07
5.69407e-07
6.05909e-07
6.46076e-07
6.23676e-07
6.1743e-07
6.27191e-07
6.30452e-07
6.27176e-07
6.22845e-07
6.1905e-07
6.1534e-07
6.11528e-07
6.07663e-07
6.03756e-07
5.99724e-07
5.95369e-07
5.90454e-07
5.84928e-07
5.79062e-07
4.63759e-07
4.65758e-07
4.7178e-07
4.80467e-07
4.98357e-07
5.00224e-07
5.0631e-07
5.34446e-07
5.74714e-07
5.59739e-07
5.57033e-07
5.67576e-07
5.73149e-07
5.72117e-07
5.69051e-07
5.66032e-07
5.63019e-07
5.59841e-07
5.56547e-07
5.53164e-07
5.49627e-07
5.45767e-07
5.41354e-07
5.36301e-07
5.30889e-07
4.13683e-07
4.15587e-07
4.20208e-07
4.28242e-07
4.42712e-07
4.40976e-07
4.48136e-07
4.68267e-07
5.09048e-07
5.02182e-07
5.02543e-07
5.12497e-07
5.1914e-07
5.19829e-07
5.17953e-07
5.15745e-07
5.13459e-07
5.10889e-07
5.08085e-07
5.05144e-07
5.02036e-07
4.98604e-07
4.94661e-07
4.90043e-07
4.84988e-07
3.66072e-07
3.67787e-07
3.71124e-07
3.78792e-07
3.89565e-07
3.86321e-07
3.9457e-07
4.07594e-07
4.49409e-07
4.50052e-07
4.53459e-07
4.62705e-07
4.69772e-07
4.71538e-07
4.70443e-07
4.68912e-07
4.6745e-07
4.65721e-07
4.63578e-07
4.61115e-07
4.58368e-07
4.55268e-07
4.5162e-07
4.47279e-07
4.42414e-07
3.21131e-07
3.22448e-07
3.24554e-07
3.31848e-07
3.38739e-07
3.36365e-07
3.44725e-07
3.52602e-07
3.96529e-07
4.03624e-07
4.09548e-07
4.18267e-07
4.25825e-07
4.28618e-07
4.27887e-07
4.2613e-07
4.24514e-07
4.2305e-07
4.21461e-07
4.19565e-07
4.17243e-07
4.14389e-07
4.10774e-07
4.06338e-07
4.01242e-07
2.79423e-07
2.80018e-07
2.8081e-07
2.87185e-07
2.90066e-07
2.90821e-07
2.97462e-07
3.03462e-07
3.50729e-07
3.63324e-07
3.71284e-07
3.78921e-07
3.86029e-07
3.89842e-07
3.90504e-07
3.89169e-07
3.8679e-07
3.83972e-07
3.81134e-07
3.78419e-07
3.75671e-07
3.72533e-07
3.68489e-07
3.63113e-07
3.56452e-07
2.41352e-07
2.40969e-07
2.40331e-07
2.44725e-07
2.43408e-07
2.48303e-07
2.50148e-07
2.59347e-07
3.11777e-07
3.28757e-07
3.39817e-07
3.46465e-07
3.50054e-07
3.50588e-07
3.50302e-07
3.50292e-07
3.49926e-07
3.48085e-07
3.44546e-07
3.39858e-07
3.34546e-07
3.28755e-07
3.22212e-07
3.14557e-07
3.0572e-07
2.95852e-07
2.06895e-07
2.05434e-07
2.03336e-07
2.04659e-07
1.99478e-07
2.07521e-07
2.00607e-07
2.20811e-07
2.79718e-07
2.96668e-07
3.1181e-07
3.1997e-07
3.20953e-07
3.15391e-07
3.06918e-07
2.99754e-07
2.95887e-07
2.94509e-07
2.93507e-07
2.91196e-07
2.86787e-07
2.80123e-07
2.71221e-07
2.60495e-07
2.48654e-07
2.36452e-07
1.76144e-07
1.73153e-07
1.68892e-07
1.66249e-07
1.58931e-07
1.689e-07
1.53293e-07
1.97305e-07
2.57499e-07
2.68341e-07
2.84217e-07
2.89906e-07
2.91633e-07
2.90599e-07
2.82244e-07
2.6665e-07
2.49739e-07
2.3754e-07
2.32645e-07
2.34273e-07
2.39871e-07
2.46496e-07
2.50482e-07
2.4842e-07
2.40614e-07
2.30669e-07
1.51307e-07
1.45466e-07
1.36502e-07
1.27588e-07
1.1915e-07
1.31048e-07
1.19249e-07
1.99451e-07
2.47605e-07
2.66593e-07
3.05214e-07
3.15176e-07
3.03485e-07
2.84243e-07
2.71602e-07
2.73955e-07
2.86136e-07
2.97456e-07
3.02788e-07
3.03176e-07
3.01365e-07
3.00257e-07
3.04297e-07
3.18943e-07
3.44336e-07
3.7474e-07
1.36218e-07
1.26776e-07
1.10622e-07
9.08742e-08
7.59869e-08
8.66872e-08
9.78874e-08
2.02076e-07
2.20777e-07
2.57841e-07
3.29221e-07
3.90583e-07
4.52477e-07
5.15981e-07
5.73956e-07
6.21864e-07
6.58487e-07
6.88323e-07
7.17309e-07
7.48987e-07
7.84371e-07
8.22737e-07
8.62196e-07
8.97951e-07
9.25111e-07
9.4621e-07
1.29273e-07
1.18086e-07
9.72731e-08
6.71522e-08
3.56962e-08
4.26877e-08
8.74511e-08
1.52593e-07
2.20623e-07
4.82866e-07
7.3734e-07
9.66058e-07
1.1476e-06
1.27877e-06
1.36602e-06
1.42425e-06
1.46874e-06
1.51062e-06
1.5536e-06
1.59706e-06
1.6388e-06
1.67847e-06
1.71772e-06
1.76229e-06
1.80776e-06
1.84632e-06
)
;

boundaryField
{
    inlet
    {
        type            calculated;
        value           nonuniform List<scalar> 
26
(
1.30167e-07
1.19181e-07
9.82179e-08
6.6661e-08
3.07333e-08
4.37758e-08
1.03822e-07
1.11273e-07
4.98135e-07
1.02022e-06
1.61288e-06
2.20407e-06
2.74233e-06
3.20574e-06
3.58406e-06
3.88659e-06
4.12884e-06
4.32743e-06
4.49784e-06
4.65271e-06
4.80162e-06
4.95484e-06
5.12449e-06
5.31961e-06
5.52707e-06
5.72522e-06
)
;
    }
    outlet
    {
        type            calculated;
        value           nonuniform List<scalar> 0();
    }
    walls
    {
        type            calculated;
        value           nonuniform List<scalar> 0();
    }
    frontAndBack
    {
        type            empty;
    }
    procBoundary0to1
    {
        type            processor;
        value           nonuniform List<scalar> 
94
(
0.000659556
0.000540615
0.000540615
0.000445607
0.000445607
0.000369908
0.000369908
0.000308667
0.000308667
0.000259189
0.000259189
0.000219047
0.000192367
0.000192367
0.000164342
0.000145225
0.000145225
0.000125168
0.000111102
9.86946e-05
9.86946e-05
8.58324e-05
7.64564e-05
7.64564e-05
6.6764e-05
5.95833e-05
5.31853e-05
5.31853e-05
4.66194e-05
4.1663e-05
3.7238e-05
3.7238e-05
3.27113e-05
2.92641e-05
2.92641e-05
2.5724e-05
2.30345e-05
2.0632e-05
2.0632e-05
1.81602e-05
1.62877e-05
1.4616e-05
1.4616e-05
1.2889e-05
1.15887e-05
1.04282e-05
1.04282e-05
9.22287e-06
8.32103e-06
7.51479e-06
7.51479e-06
6.67355e-06
6.04555e-06
5.48242e-06
5.48242e-06
4.89265e-06
4.45124e-06
4.05326e-06
3.69393e-06
3.69393e-06
3.32132e-06
3.03477e-06
2.77343e-06
2.53414e-06
2.53414e-06
2.28809e-06
2.08916e-06
1.9049e-06
1.73484e-06
1.57896e-06
1.57896e-06
1.42584e-06
1.2987e-06
1.18164e-06
1.07218e-06
9.68759e-07
8.71281e-07
8.71281e-07
7.74067e-07
6.9281e-07
6.26263e-07
5.73226e-07
5.25448e-07
4.79786e-07
4.37244e-07
3.95748e-07
3.48997e-07
3.48997e-07
2.8509e-07
2.24421e-07
2.21499e-07
4.05529e-07
9.64985e-07
1.87693e-06
)
;
    }
    procBoundary0to4
    {
        type            processor;
        value           nonuniform List<scalar> 
72
(
0.00059752
0.000507791
0.000434435
0.000373707
0.000323032
0.000280405
0.000244312
0.000213564
0.000187227
0.000164554
0.000144959
0.00012796
0.000113159
0.000100234
8.89151e-05
7.89781e-05
7.02349e-05
6.25254e-05
5.57147e-05
4.9689e-05
4.43491e-05
3.96099e-05
3.47781e-05
3.47781e-05
3.10941e-05
2.78142e-05
2.48913e-05
2.22842e-05
1.99568e-05
1.78774e-05
1.60184e-05
1.43556e-05
1.28673e-05
1.15344e-05
1.03402e-05
9.26978e-06
8.30989e-06
7.44877e-06
6.67601e-06
5.98233e-06
5.35945e-06
4.80001e-06
4.29743e-06
3.84584e-06
3.43998e-06
3.07517e-06
2.74722e-06
2.45237e-06
2.18726e-06
1.94888e-06
1.73455e-06
1.54184e-06
1.3686e-06
1.21287e-06
1.07294e-06
9.47334e-07
8.34661e-07
7.33794e-07
6.45066e-07
5.7383e-07
5.17484e-07
4.65879e-07
4.15478e-07
3.67582e-07
3.22446e-07
2.80664e-07
2.42661e-07
2.08414e-07
1.78118e-07
1.54079e-07
1.39838e-07
1.33253e-07
)
;
    }
    procBoundary0to5
    {
        type            processor;
        value           nonuniform List<scalar> 4(0.000702337 0.000694755 0.000685974 0.000674628);
    }
}


// ************************************************************************* //
