/*--------------------------------*- C++ -*----------------------------------*\
| =========                 |                                                 |
| \\      /  F ield         | OpenFOAM: The Open Source CFD Toolbox           |
|  \\    /   O peration     | Version:  2506                                  |
|   \\  /    A nd           | Website:  www.openfoam.com                      |
|    \\/     M anipulation  |                                                 |
\*---------------------------------------------------------------------------*/
FoamFile
{
    version     2.0;
    format      ascii;
    arch        "LSB;label=32;scalar=64";
    class       surfaceScalarField;
    location    "250";
    object      phi;
}
// * * * * * * * * * * * * * * * * * * * * * * * * * * * * * * * * * * * * * //

dimensions      [0 3 -1 0 0 0 0];

oriented        oriented;

internalField   nonuniform List<scalar> 
2582
(
-0.1891
-0.245262
-0.159382
-0.24767
-0.128741
-0.259938
-0.0901332
-0.319986
-0.325993
-0.18981
-0.277002
-0.158416
-0.279064
-0.126264
-0.29209
-0.0855782
-0.360672
-0.0454855
-0.366086
-0.378494
-0.19083
-0.310544
-0.157796
-0.312098
-0.123914
-0.325972
-0.0810904
-0.403495
-0.0389014
-0.408275
0.00400212
-0.421397
-0.434791
-0.192341
-0.345799
-0.157388
-0.347052
-0.121841
-0.361518
-0.0766477
-0.448688
-0.0322635
-0.452659
0.0128881
-0.466549
0.0591008
-0.481004
-0.464949
-0.19409
-0.383002
-0.157352
-0.38379
-0.119761
-0.399109
-0.0721836
-0.496266
-0.0254203
-0.499422
0.0220498
-0.514019
0.0706004
-0.529554
0.116719
-0.511068
-0.459148
-0.196147
-0.422314
-0.157403
-0.422534
-0.11793
-0.438583
-0.0676891
-0.546506
-0.0184376
-0.548674
0.0315277
-0.563984
0.0826507
-0.580677
0.131067
-0.559484
0.173139
-0.501221
-0.442594
-0.198566
-0.463787
-0.157655
-0.463445
-0.116033
-0.480205
-0.0630859
-0.599453
-0.0112012
-0.600559
0.0414139
-0.616599
0.0952294
-0.634493
0.146149
-0.610404
0.1903
-0.545372
-0.480215
-0.201194
-0.507484
-0.158057
-0.506581
-0.114222
-0.524041
-0.0584031
-0.655272
-0.00368107
-0.655281
0.0517134
-0.671994
0.108342
-0.691121
0.161973
-0.664034
0.208315
-0.591715
0.247774
-0.519674
-0.455111
-0.204143
-0.553585
-0.158662
-0.552062
-0.112442
-0.570261
-0.0535375
-0.714176
0.00409559
-0.712914
0.062486
-0.730384
0.122131
-0.750766
0.178508
-0.720411
0.227282
-0.640488
0.268653
-0.561045
-0.490196
-0.207321
-0.602218
-0.159369
-0.600014
-0.110644
-0.618987
-0.0485192
-0.776301
0.0121854
-0.773618
0.0737189
-0.791918
0.136557
-0.813605
0.195944
-0.779797
0.247198
-0.691743
0.290647
-0.604494
0.327392
-0.526941
-0.443559
-0.210788
-0.653471
-0.160189
-0.650613
-0.108831
-0.670344
-0.043306
-0.841826
0.0206991
-0.837623
0.0854963
-0.856715
0.1517
-0.879808
0.214235
-0.842332
0.268166
-0.745674
0.313824
-0.650153
0.352381
-0.565498
-0.474517
-0.214417
-0.707578
-0.161123
-0.703907
-0.106985
-0.724482
-0.0379153
-0.910895
0.0295725
-0.905111
0.0978817
-0.925024
0.167637
-0.949563
0.233527
-0.908222
0.290275
-0.802422
0.338248
-0.698126
0.378691
-0.605941
-0.506944
-0.218399
-0.764599
-0.162173
-0.760133
-0.105126
-0.78153
-0.0322732
-0.983747
0.0388477
-0.976232
0.110881
-0.997057
0.184393
-1.02308
0.253768
-0.977597
0.313513
-0.862167
0.36397
-0.748583
0.406486
-0.648457
0.440422
-0.540881
-0.451385
-0.222608
-0.824697
-0.163261
-0.81948
-0.103136
-0.841655
-0.0263674
-1.06052
0.0486633
-1.05126
0.124557
-1.07295
0.202027
-1.10055
0.275134
-1.0507
0.337994
-0.925026
0.3911
-0.801689
0.435739
-0.693095
0.471355
-0.576497
-0.479515
-0.227056
-0.888081
-0.164548
-0.881987
-0.101108
-0.905095
-0.0201014
-1.14152
0.058962
-1.13033
0.138933
-1.15292
0.220565
-1.18218
0.29757
-1.12771
0.363835
-0.991291
0.419687
-0.857542
0.46664
-0.740048
0.504006
-0.613863
0.533454
-0.508963
-0.432775
-0.231753
-0.954965
-0.165797
-0.947944
-0.0990001
-0.971892
-0.013608
-1.22692
0.0697461
-1.21368
0.154048
-1.23722
0.24012
-1.26825
0.321295
-1.20888
0.391049
-1.06104
0.449835
-0.916328
0.499187
-0.7894
0.538439
-0.653114
0.569285
-0.53981
-0.457612
-0.236748
-1.02545
-0.16724
-1.01745
-0.096776
-1.04236
-0.00675113
-1.31694
0.0811234
-1.30156
0.170004
-1.3261
0.260691
-1.35894
0.346231
-1.29442
0.419737
-1.13455
0.481631
-0.978222
0.53355
-0.841319
0.574756
-0.694321
0.607124
-0.572177
-0.483606
-0.242008
-1.09975
-0.16872
-1.09074
-0.0944567
-1.11662
0.000504169
-1.4119
0.0931198
-1.39417
0.186818
-1.4198
0.282416
-1.45454
0.372555
-1.38456
0.449977
-1.21197
0.51516
-1.04341
0.569771
-0.895929
0.613098
-0.737648
0.647013
-0.606092
0.674214
-0.510807
-0.432196
-0.247577
-1.17809
-0.170273
-1.16804
-0.0919702
-1.19492
0.00811606
-1.51199
0.105771
-1.49183
0.204541
-1.51857
0.305313
-1.55531
0.400321
-1.47957
0.481876
-1.29353
0.550498
-1.11203
0.607981
-0.953413
0.653586
-0.783252
0.689139
-0.641645
0.717609
-0.539277
-0.454769
-0.253387
-1.26069
-0.171927
-1.2495
-0.0894051
-1.27744
0.0161252
-1.61752
0.119099
-1.5948
0.223205
-1.62268
0.329449
-1.66155
0.429565
-1.57969
0.515499
-1.37946
0.587823
-1.18435
0.648347
-1.01394
0.69615
-0.831055
0.733657
-0.679152
0.763442
-0.569062
-0.478402
-0.259554
-1.34776
-0.173684
-1.33537
-0.0866423
-1.36449
0.0246346
-1.72879
0.133185
-1.70335
0.242925
-1.73242
0.354928
-1.77355
0.460425
-1.68518
0.551004
-1.47004
0.62711
-1.26046
0.690811
-1.07764
0.741336
-0.88158
0.780583
-0.7184
0.811788
-0.600267
0.836432
-0.503045
-0.431216
-0.266008
-0.175455
-1.42593
-0.083757
-1.45618
0.0335884
-1.84614
0.148007
-1.81777
0.263722
-1.84813
0.381742
-1.89157
0.493016
-1.79646
0.588458
-1.56548
0.668607
-1.34061
0.735755
-1.14479
0.788652
-0.934476
0.829954
-0.759703
0.862949
-0.633261
0.888709
-0.528806
-0.451796
-0.177348
-1.5214
-0.0806402
-1.55289
0.0430184
-1.9698
0.163686
-1.93844
0.285658
-1.97011
0.410108
-2.01603
0.527329
-1.91368
0.627962
-1.66612
0.712488
-1.42513
0.78316
-1.21546
0.838954
-0.99027
0.88232
-0.803069
0.916695
-0.667636
0.943828
-0.555938
0.965244
-0.473212
-0.416415
-0.17933
-1.62204
-0.0773972
-1.65482
0.0530271
-2.10022
0.180223
-2.06563
0.308827
-2.09871
0.440028
-2.14723
0.563688
-2.03734
0.66962
-1.77205
0.758613
-1.51413
0.833046
-1.28989
0.891768
-1.04899
0.937437
-0.848737
0.973697
-0.703897
1.00202
-0.58426
1.02449
-0.495687
-0.434804
-0.181364
-1.72815
-0.073906
-1.76228
0.0635959
-2.23772
0.1977
-2.19974
0.333273
-2.23428
0.471579
-2.28553
0.601817
-2.16758
0.713604
-1.88383
0.807446
-1.60797
0.885812
-1.36826
0.94765
-1.11083
0.995709
-0.896796
1.03361
-0.741801
1.06338
-0.614028
1.08688
-0.519184
-0.454078
-0.183536
-1.84002
-0.0702316
-1.87559
0.0747358
-2.38269
0.216114
-2.34111
0.359054
-2.37722
0.504939
-2.43142
0.642213
-2.30485
0.759984
-2.00161
0.858847
-1.70683
0.941354
-1.45076
1.00653
-1.176
1.057
-0.94727
1.0971
-0.781896
1.12822
-0.64515
1.15294
-0.543909
1.17281
-0.473946
-0.421983
-0.185749
-1.95795
-0.0663125
-1.99502
0.0865651
-2.53557
0.235629
-2.49018
0.386347
-2.52794
0.540009
-2.58508
0.684902
-2.44974
0.808927
-2.12563
0.913145
-1.81105
1.00015
-1.53777
1.06865
-1.24451
1.12192
-1.00054
1.16385
-0.82382
1.1967
-0.678003
1.2225
-0.569708
1.24346
-0.494902
-0.439173
-0.188064
-2.08229
-0.0621341
-2.12095
0.0990151
-2.69672
0.256192
-2.64736
0.41505
-2.6868
0.577192
-2.74722
0.729812
-2.60236
0.860717
-2.25654
0.970556
-1.92089
1.06214
-1.62935
1.13435
-1.31672
1.19022
-1.05641
1.23452
-0.868125
1.2689
-0.712379
1.29588
-0.596686
1.31795
-0.516974
-0.457043
-0.190481
-2.21341
-0.0577594
-2.25368
0.112197
-2.86668
0.277902
-2.81306
0.445474
-2.85437
0.616346
-2.91809
0.777325
-2.76334
0.915235
-2.39445
1.03089
-2.03654
1.12755
-1.72601
1.20363
-1.3928
1.26249
-1.11527
1.30896
-0.914601
1.34514
-0.748555
1.37358
-0.625122
1.39643
-0.53983
1.41536
-0.475976
-0.432527
-0.193038
-2.3516
-0.0530466
-2.39367
0.126103
-3.04582
0.300851
-2.98781
0.477512
-3.03103
0.657611
-3.09819
0.827346
-2.93308
0.972796
-2.5399
1.09477
-2.15852
1.19664
-1.82788
1.27664
-1.47281
1.33879
-1.17741
1.38768
-0.96349
1.4257
-0.786574
1.4555
-0.654921
1.4795
-0.563833
1.49906
-0.495538
-0.449154
-0.195619
-2.49733
-0.0480596
-2.54123
0.140881
-3.23477
0.325111
-3.17204
0.511324
-3.21724
0.7014
-3.28827
0.88026
-3.11194
1.03354
-2.69318
1.16218
-2.28715
1.26936
-1.93506
1.35383
-1.55728
1.41907
-1.24265
1.47057
-1.01499
1.51056
-0.826562
1.54188
-0.686246
1.56721
-0.589162
1.58775
-0.516077
-0.466343
-0.198364
-2.65096
-0.0427492
-2.69684
0.156423
-3.43394
0.350727
-3.36634
0.54709
-3.41361
0.747351
-3.48853
0.936143
-3.30073
1.09768
-2.85471
1.2333
-2.42278
1.34637
-2.04813
1.43523
-1.64614
1.50409
-1.31151
1.55821
-1.06911
1.60025
-0.868598
1.63322
-0.719222
1.65964
-0.615585
1.68108
-0.537514
1.69913
-0.484393
-0.450682
-0.201209
-2.81295
-0.0371735
-2.86088
0.172916
-3.64403
0.377697
-3.57112
0.584812
-3.62072
0.796094
-3.69981
0.994975
-3.49961
1.16548
-3.02522
1.30823
-2.56552
1.4274
-2.1673
1.52118
-1.73992
1.59362
-1.38394
1.65078
-1.12628
1.69497
-0.912787
1.72953
-0.753789
1.75731
-0.643365
1.77993
-0.560131
1.79871
-0.503173
-0.466949
-0.204172
-2.98376
-0.0311929
-3.03386
0.190293
-3.86551
0.406355
-3.78719
0.624735
-3.8391
0.847563
-3.92264
1.05722
-3.70927
1.23676
-3.20476
1.38762
-2.71638
1.51317
-2.29286
1.61196
-1.83871
1.6882
-1.46018
1.74835
-1.18642
1.79489
-0.95933
1.83131
-0.790209
1.86049
-0.672543
1.88405
-0.583693
1.90383
-0.52295
-0.484058
-0.20727
-3.16385
-0.0248627
-3.21626
0.20868
-4.09906
0.436467
-4.01497
0.666764
-4.0694
0.901591
-4.15747
1.12278
-3.93046
1.3124
-3.39438
1.47117
-2.87515
1.60355
-2.42523
1.70765
-1.94281
1.78817
-1.5407
1.85132
-1.24958
1.90048
-1.00849
1.93854
-0.828266
1.96928
-0.703281
1.99417
-0.608588
2.01489
-0.543661
2.03274
-0.501912
-0.478026
-0.210501
-3.35374
-0.0181705
-3.40859
0.228124
-4.34535
0.468328
-4.25518
0.711218
-4.31229
0.958962
-4.40521
1.19221
-4.16371
1.39191
-3.59408
1.5594
-3.04264
1.69907
-2.5649
1.80864
-2.05237
1.89349
-1.62555
1.96018
-1.31627
2.01176
-1.06008
2.05199
-0.868501
2.08419
-0.735481
2.11034
-0.634736
2.13199
-0.565312
2.15072
-0.52064
-0.494846
-0.213881
-3.55398
-0.0110905
-3.61138
0.248666
-4.60511
0.50202
-4.50853
0.758058
-4.56833
1.01924
-4.66639
1.26527
-4.40974
1.47596
-3.80477
1.65254
-3.21922
1.79978
-2.71214
1.91544
-2.16803
2.00475
-1.71486
2.07495
-1.38647
2.12936
-1.11448
2.17168
-0.910819
2.20559
-0.769393
2.23291
-0.662054
2.25563
-0.588032
2.27531
-0.540317
-0.512549
-0.217396
-3.76512
-0.00353559
-3.82525
0.270408
-4.87905
0.537468
-4.77559
0.807628
-4.83849
1.0831
-4.94187
1.34252
-4.66916
1.56471
-4.02695
1.75091
-3.40543
1.90609
-2.86732
2.0281
-2.29003
2.12214
-1.8089
2.19622
-1.46055
2.25339
-1.17165
2.29806
-0.955486
2.33364
-0.804969
2.36251
-0.690933
2.38636
-0.611879
2.40694
-0.5609
2.42533
-0.530934
-0.517001
-0.221095
-3.98775
0.0044123
-4.05075
0.293279
-5.16792
0.574976
-5.05729
0.859894
-5.1234
1.15048
-5.23245
1.42409
-4.94277
1.65844
-4.26131
1.85477
-3.60175
2.01836
-3.03092
2.14694
-2.41861
2.2462
-1.90816
2.32413
-1.53848
2.38435
-1.23187
2.43132
-1.00246
2.46893
-0.842583
2.49915
-0.721151
2.52427
-0.636998
2.54585
-0.58248
2.56527
-0.550359
-0.535151
-0.224948
-4.22255
0.0128777
-4.28858
0.317441
-5.47248
0.614729
-5.35458
0.915051
-5.42373
1.22165
-5.53905
1.51019
-5.23132
1.75722
-4.50834
1.96437
-3.8089
2.13691
-3.20346
2.27238
-2.55408
2.37697
-2.01274
2.45917
-1.62068
2.52272
-1.29543
2.57216
-1.0519
2.61163
-0.882048
2.64345
-0.752976
2.66987
-0.663414
2.69245
-0.605063
2.71283
-0.570741
-0.55428
-0.228968
-4.47015
0.0218299
-4.53938
0.343074
-5.79372
0.656478
-5.66798
0.97324
-5.74049
1.29655
-5.86236
1.60092
-5.53568
1.86159
-4.76901
2.07992
-4.02723
2.2619
-3.38543
2.40473
-2.69692
2.51519
-2.12321
2.6017
-1.70719
2.66868
-1.36241
2.72071
-1.10393
2.76246
-0.923792
2.79582
-0.786342
2.8237
-0.691291
2.84754
-0.628903
2.86882
-0.592017
-0.574117
-0.233241
-4.73122
0.0312446
-4.80386
0.370099
-6.13258
0.700636
-5.99852
1.03492
-6.07477
1.37572
-6.20316
1.69685
-5.85681
1.97165
-5.04381
2.20213
-4.25771
2.39402
-3.57732
2.54466
-2.84756
2.66084
-2.23938
2.75226
-1.79861
2.82281
-1.43296
2.87766
-1.15878
2.92143
-0.967557
2.95673
-0.821645
2.98585
-0.720404
3.01089
-0.653952
3.0333
-0.614423
3.0544
-0.595215
-0.595018
-0.237635
-5.0066
0.0412908
-5.08279
0.398657
-6.48995
0.747161
-6.34702
1.0997
-6.42731
1.45946
-6.56293
1.79796
-6.19531
2.08802
-5.33386
2.33088
-4.50057
2.53328
-3.77972
2.69222
-3.00649
2.81481
-2.36197
2.91107
-1.89488
2.98538
-1.50727
3.04319
-1.2166
3.08942
-1.01379
3.1266
-0.858819
3.15725
-0.751059
3.1836
-0.680305
3.20722
-0.638033
3.22912
-0.617119
-0.616772
-0.242327
-5.29695
0.0518564
-5.37697
0.428831
-6.86692
0.796494
-6.71468
1.16835
-6.79917
1.54768
-6.94226
1.90486
-6.55249
2.21064
-5.63964
2.46688
-4.75682
2.6803
-3.99314
2.84786
-3.17405
2.9772
-2.49131
3.07862
-1.9963
3.15712
-1.58577
3.21808
-1.27756
3.26659
-1.0623
3.30578
-0.898011
3.33822
-0.783492
3.36586
-0.707948
3.39066
-0.662838
3.41375
-0.640207
-0.639645
-0.247227
-5.60317
0.0630535
-5.68725
0.460641
-7.26451
0.848427
-7.10247
1.24065
-7.19139
1.64076
-7.34237
2.0176
-6.92933
2.34024
-5.96228
2.61052
-5.02709
2.83565
-4.21828
3.01233
-3.35073
3.14864
-2.62762
3.25577
-2.10344
3.33833
-1.66832
3.4026
-1.34183
3.45393
-1.11363
3.49503
-0.939118
3.52909
-0.817546
3.55836
-0.737222
3.58431
-0.688785
3.60876
-0.664661
-0.663484
-0.252328
-5.92617
0.0748999
-6.01448
0.494192
-7.6838
0.903338
-7.51162
1.31707
-7.60513
1.73916
-7.76445
2.13654
-7.32671
2.47682
-6.30257
2.76207
-5.31234
2.99948
-4.45568
3.18586
-3.53711
3.32971
-2.77146
3.44245
-2.21618
3.52968
-1.75555
3.59738
-1.40953
3.65142
-1.16767
3.6949
-0.982607
3.73071
-0.85335
3.76142
-0.767936
3.78889
-0.716253
3.81447
-0.690236
3.83975
-0.688768
-0.708232
-0.257778
-6.26677
0.0873353
-6.35959
0.529653
-8.12612
0.961209
-7.94317
1.39762
-8.04153
1.8429
-8.20974
2.26222
-7.74603
2.62114
-6.66148
2.92181
-5.61302
3.17235
-4.70622
3.36908
-3.73384
3.52058
-2.92297
3.63972
-2.33532
3.73163
-1.84746
3.80299
-1.48088
3.85994
-1.22462
3.90571
-1.02837
3.94355
-0.89119
3.97588
-0.800268
4.00476
-0.745136
4.03167
-0.717145
4.05812
-0.71522
-0.73586
-0.263437
-6.62603
0.100619
-6.72365
0.567026
-8.59252
1.02225
-8.3984
1.48259
-8.50187
1.95249
-8.67964
2.39474
-8.18828
2.7735
-7.04024
3.09073
-5.93025
3.35501
-4.9705
3.56234
-3.94117
3.72235
-3.08297
3.84785
-2.46082
3.94471
-1.94432
4.0201
-1.55628
4.08002
-1.28454
4.12833
-1.07668
4.16815
-0.931011
4.20224
-0.83436
4.23261
-0.775506
4.26094
-0.745481
4.28888
-0.743157
-0.764674
-0.269453
-7.00492
0.114447
-7.10755
0.606695
-9.08477
1.08679
-8.8785
1.57252
-8.9876
2.06803
-9.17515
2.53459
-8.65484
2.93416
-7.43981
3.26886
-6.26495
3.54757
-5.24921
3.76635
-4.15994
3.9351
-3.25173
4.06754
-2.59326
4.16973
-2.04651
4.24905
-1.63559
4.31236
-1.34785
4.36317
-1.12749
4.40522
-0.973063
4.44098
-0.870123
4.47311
-0.807629
4.50294
-0.775313
4.53227
-0.772491
-0.795051
-0.275741
-7.40454
0.12933
-7.51262
0.648238
-9.60368
1.15485
-9.38512
1.66714
-9.49988
2.18993
-9.69794
2.68226
-9.14717
3.10377
-7.86131
3.45697
-6.61816
3.75101
-5.54325
3.98173
-4.39066
4.15971
-3.42971
4.29934
-2.73288
4.40714
-2.15431
4.49082
-1.71928
4.55757
-1.4146
4.61103
-1.18095
4.65526
-1.01729
4.6931
-0.907967
4.72689
-0.841417
4.75826
-0.806677
4.78913
-0.803367
-0.827206
-0.282429
-7.82605
0.144696
-7.93974
0.692339
-10.1513
1.2267
-9.91947
1.7673
-10.0405
2.31881
-10.2494
2.83816
-9.66653
3.28274
-8.30589
3.65526
-6.99067
3.9655
-5.85349
4.20895
-4.63412
4.39675
-3.6175
4.544
-2.88013
4.65751
-2.26782
4.74576
-1.80753
4.81613
-1.48497
4.87268
-1.23751
4.91926
-1.06387
4.95923
-0.94793
4.99461
-0.876798
5.02779
-0.839862
5.06028
-0.835857
5.09397
-0.860892
-0.867516
-0.289449
-8.27062
0.161169
-8.39036
0.738811
-10.729
1.30241
-10.4831
1.87272
-10.6108
2.45474
-10.8315
3.00253
-10.2143
3.4718
-8.77516
3.86481
-7.38368
4.19207
-6.18075
4.44886
-4.89091
4.64682
-3.81547
4.80205
-3.03536
4.92197
-2.38774
5.01502
-1.90057
5.08919
-1.55914
5.14864
-1.29696
5.19783
-1.11306
5.23973
-0.989832
5.27735
-0.914421
5.31202
-0.874528
5.34642
-0.870251
5.38185
-0.896324
-0.90345
-0.296863
-8.73948
0.17837
-8.8656
0.787638
-11.3382
1.38249
-11.0779
1.98408
-11.2124
2.59801
-11.4454
3.17608
-10.7924
3.67111
-9.27019
4.08582
-7.79838
4.43109
-6.52603
4.70187
-5.16169
4.91065
-4.02424
5.07447
-3.19919
5.20077
-2.51403
5.29888
-1.99869
5.37711
-1.63736
5.43998
-1.35983
5.49176
-1.16484
5.53602
-1.03409
5.57544
-0.953839
5.61214
-0.911236
5.64821
-0.906318
5.6857
-0.933808
-0.941384
-0.304621
-9.23419
0.196782
-9.367
0.839488
-11.9809
1.46684
-11.7053
2.1016
-11.8472
2.74918
-12.093
3.35915
-11.4023
3.88157
-9.79262
4.3191
-8.23592
4.6832
-6.89014
4.96897
-5.44745
5.18906
-4.24433
5.36184
-3.37198
5.49513
-2.64732
5.59857
-2.10212
5.68097
-1.71976
5.74715
-1.42602
5.8018
-1.21949
5.84843
-1.08072
5.89007
-0.995481
5.92887
-0.950033
5.96693
-0.944375
6.00622
-0.973105
-0.981273
-0.312934
-9.75589
0.215837
-9.89577
0.894045
-12.6591
1.55593
-12.3672
2.22554
-12.5168
2.90891
-12.7763
3.55235
-12.0458
4.10353
-10.3438
4.56524
-8.69763
4.9493
-7.27419
5.2505
-5.74865
5.48293
-4.47676
5.66505
-3.5541
5.80556
-2.78783
5.91466
-2.21123
6.00172
-1.80681
6.07145
-1.49575
6.12902
-1.27706
6.17825
-1.12995
6.22202
-1.03925
6.26279
-0.990806
6.30288
-0.984468
6.34445
-1.01467
-1.02339
-0.321758
-10.3061
0.236287
-10.4538
0.951487
-13.3743
1.64974
-13.0654
2.3562
-13.2232
3.07738
-13.4975
3.75631
-12.7247
4.338
-10.9255
4.82476
-9.1844
5.23
-7.67943
5.54779
-6.06644
5.79273
-4.7217
5.98497
-3.74634
6.1333
-2.93615
6.24824
-2.32617
6.3399
-1.89848
6.41352
-1.56937
6.47431
-1.33784
6.52599
-1.18164
6.5727
-1.08596
6.61551
-1.03361
6.65729
-1.02625
6.70065
-1.05802
-1.06869
-0.331007
-10.8865
0.257361
-11.0422
1.01207
-14.1291
1.74889
-13.8022
2.49447
-13.9688
3.25498
-14.258
3.9715
-13.4412
4.58529
-11.5393
5.09887
-9.69797
5.52611
-8.10667
5.86136
-6.40168
6.11984
-4.98018
6.32253
-3.94903
6.47915
-3.09277
6.60076
-2.44778
6.69645
-1.99418
6.77464
-1.64755
6.83779
-1.40099
6.89302
-1.23686
6.94144
-1.13438
6.98708
-1.07925
7.03108
-1.07026
7.07742
-1.10436
7.12367
-1.11494
-1.02804
-0.340668
-11.4989
0.280123
-11.663
1.07621
-14.9251
1.85346
-14.5795
2.63991
-14.7553
3.44267
-15.0608
4.19838
-14.1969
4.84615
-12.1871
5.38776
-10.2396
5.8385
-8.55742
6.19223
-6.75541
6.46502
-5.25297
6.6779
-4.16191
6.84236
-3.25724
6.97012
-2.57554
7.07367
-2.09773
7.15508
-1.72897
7.22306
-1.46897
7.27999
-1.29379
7.33064
-1.18503
7.37853
-1.12714
7.4261
-1.11784
7.47484
-1.1531
7.52362
-1.16371
-1.07328
-0.244874
-11.9387
0.212003
-12.1199
0.841171
-15.5543
1.54008
-15.2784
2.38615
-15.6013
3.47745
-16.1521
4.8454
-15.5649
6.22031
-13.562
6.11908
-10.1383
5.98874
-8.42708
5.88089
-6.64756
5.79641
-5.16849
5.73102
-4.09652
5.6823
-3.20852
5.64436
-2.5376
5.61561
-2.06897
5.59268
-1.70604
5.57602
-1.45231
5.56179
-1.27956
5.54982
-1.17306
5.53844
-1.11576
5.52998
-1.10938
5.52426
-1.14737
5.52132
-1.16078
-1.07392
-0.264809
-12.4228
0.23806
-12.6227
0.930471
-16.2467
1.6997
-16.0476
2.63135
-16.533
3.83348
-17.3542
5.34122
-17.0726
6.85639
-15.0771
6.74214
-10.0241
6.59714
-8.28207
6.47745
-6.52788
6.38238
-5.07342
6.31006
-4.0242
6.25432
-3.15278
6.21479
-2.49808
6.18253
-2.03671
6.15812
-1.68164
6.13705
-1.43123
6.12076
-1.26328
6.10786
-1.16015
6.09678
-1.10468
6.08734
-1.09994
6.0808
-1.14083
6.07721
-1.15719
-1.07644
-0.286586
-12.955
0.266621
-13.1759
1.02885
-17.009
1.87609
-16.8949
2.90196
-17.5589
4.22621
-18.6785
5.88719
-18.7336
7.55641
-16.7464
7.42625
-9.89394
7.26616
-8.12198
7.13096
-6.39268
7.02757
-4.97003
6.94755
-3.94418
6.88651
-3.09174
6.84064
-2.4522
6.80511
-2.00118
6.77817
-1.65469
6.75673
-1.4098
6.73851
-1.24506
6.72356
-1.1452
6.71164
-1.09276
6.70012
-1.08843
6.6917
-1.13241
6.68888
-1.15437
-1.07849
-0.309596
-13.5407
0.299064
-13.7846
1.13793
-17.8478
2.07032
-17.8272
3.20008
-18.6886
4.6586
-20.137
6.48844
-20.5634
8.32838
-18.5863
8.18249
-9.74805
8.00232
-7.94181
7.85398
-6.24433
7.73797
-4.85402
7.64834
-3.85454
7.58116
-3.02457
7.52931
-2.40034
7.49082
-1.96269
7.46033
-1.6242
7.43745
-1.38692
7.41753
-1.22515
7.40068
-1.12835
7.38551
-1.07758
7.37593
-1.07885
7.36701
-1.12349
7.36267
-1.15003
-1.08024
-0.334642
-14.1848
0.335219
-14.4544
1.25821
-18.7708
2.28503
-18.8541
3.52867
-19.9322
5.13494
-21.7433
7.14993
-22.5784
9.17506
-20.6114
9.01212
-9.58511
8.8127
-7.74239
8.64853
-6.08015
8.5208
-4.7263
8.41969
-3.75342
8.34566
-2.95054
8.28949
-2.34417
8.2471
-1.9203
8.21334
-1.59043
8.18545
-1.35904
8.16398
-1.20367
8.14546
-1.10983
8.1298
-1.06192
8.1172
-1.06625
8.10678
-1.11307
8.10367
-1.14691
-1.08062
-0.361196
-14.8935
0.375373
-15.191
1.39149
-19.7869
2.52139
-19.984
3.89066
-21.3015
5.65944
-23.512
7.87943
-24.7984
10.1095
-22.8415
9.92618
-9.40182
9.70408
-7.52029
9.52176
-5.89783
9.3795
-4.58405
9.27021
-3.64413
9.18735
-2.86768
9.1248
-2.28163
9.07636
-1.87186
9.03963
-1.5537
9.01077
-1.33018
8.9868
-1.1797
8.96547
-1.0885
8.94952
-1.04597
8.93288
-1.04961
8.92369
-1.10387
8.9182
-1.14143
-1.08247
-0.390289
-15.673
0.420526
-16.0018
1.53855
-20.905
2.78209
-21.2275
4.2894
-22.8088
6.23646
-25.4591
8.68021
-27.2422
11.1343
-25.2955
10.931
-9.19858
10.686
-7.27529
10.4833
-5.69513
10.3264
-4.42713
10.2047
-3.52242
10.1124
-2.77537
10.0452
-2.21443
9.99109
-1.81776
9.95043
-1.51303
9.91713
-1.29688
9.88953
-1.1521
9.86826
-1.06723
9.84837
-1.02609
9.83297
-1.03421
9.82144
-1.09234
9.8151
-1.13509
-1.08471
-0.421212
-16.5303
0.470605
-16.8936
1.70074
-22.1351
3.06924
-22.596
4.728
-24.4676
6.87176
-27.6029
9.56093
-29.9313
12.2608
-27.9954
12.037
-8.97478
11.7655
-7.00378
11.5416
-5.47122
11.3674
-4.25298
11.233
-3.38801
11.1333
-2.67561
11.0556
-2.13679
10.9988
-1.76093
10.9519
-1.46618
10.9156
-1.26058
10.8872
-1.12368
10.861
-1.04103
10.84
-1.00506
10.8222
-1.01641
10.8085
-1.07864
10.8028
-1.12939
10.8044
-1.08626
-1.00048
-0.454622
-17.4735
0.526293
-17.8746
1.87967
-23.4885
3.38553
-24.1019
5.21091
-26.293
7.57036
-29.9623
10.5275
-32.8884
13.5009
-30.9689
13.2534
-8.7273
12.9536
-6.70393
12.7077
-5.22533
12.5136
-4.05884
12.3658
-3.24026
12.2528
-2.56259
12.1691
-2.05309
12.1037
-1.69554
12.0549
-1.41742
12.0147
-1.22033
11.9805
-1.08951
11.9521
-1.01263
11.9287
-0.981675
11.9086
-0.996306
11.8942
-1.06418
11.8854
-1.12065
11.8877
-1.08857
-1.01061
-0.490445
-18.5108
0.588592
-18.9536
2.07732
-24.9772
3.73369
-25.7582
5.7418
-28.3011
8.33611
-32.5566
11.5906
-36.143
14.8598
-34.238
14.5915
-8.45898
14.2604
-6.37292
13.9887
-4.95357
13.7757
-3.84583
13.6099
-3.07453
13.4849
-2.43752
13.3911
-1.95926
13.3196
-1.62402
13.2627
-1.36054
13.2176
-1.17523
13.1819
-1.05389
13.1505
-0.981146
13.1238
-0.955003
13.1029
-0.97544
13.0854
-1.04661
13.0763
-1.11159
13.077
-1.08928
-1.02024
-0.529169
-19.6517
0.657832
-20.1406
2.29513
-26.6145
4.11681
-27.5799
6.32509
-30.5093
9.17776
-35.4093
12.7555
-39.7208
16.3536
-37.8361
16.0618
-8.16714
15.6995
-6.01061
15.3979
-4.65202
15.1624
-3.61029
14.9779
-2.88999
14.8396
-2.29925
14.7351
-1.85473
14.6535
-1.54247
14.5904
-1.29746
14.5411
-1.12595
14.4986
-1.01137
14.4654
-0.947971
14.436
-0.925597
14.4102
-0.949575
14.3916
-1.02804
14.3827
-1.10264
14.3818
-1.08838
-1.03176
-0.570288
-20.9062
0.734578
-21.4455
2.53492
-28.4148
4.53746
-29.5825
6.96559
-32.9375
10.1022
-38.5459
14.0342
-43.6527
17.9957
-41.7976
17.68
-7.85146
17.2849
-5.61549
16.9494
-4.31651
16.6849
-3.34583
16.4795
-2.6845
16.3278
-2.14758
16.2131
-1.74007
16.1259
-1.45521
16.0594
-1.23097
16.0035
-1.07011
15.9592
-0.967047
15.9192
-0.907935
15.886
-0.892387
15.8576
-0.921233
15.8367
-1.00712
15.8265
-1.09247
15.8307
-1.09252
-1.04574
-0.613782
0.820818
2.7989
4.99922
7.66538
11.11
15.4348
19.7871
19.4572
19.0313
18.6688
18.3804
18.1529
17.978
17.8479
17.7488
17.6737
17.6179
17.5729
17.5386
17.509
17.4863
17.4668
17.4542
17.4533
)
;

boundaryField
{
    inlet
    {
        type            calculated;
        value           nonuniform List<scalar> 
26
(
-22.2858
-22.8801
-30.3929
-31.7828
-35.6036
-41.9905
-47.9776
-46.1499
-7.52158
-5.18957
-3.954
-3.05748
-2.45696
-1.97269
-1.60994
-1.3561
-1.15589
-1.01435
-0.922053
-0.873562
-0.862831
-0.898524
-0.987592
-1.07996
-1.0916
-1.05809
)
;
    }
    outlet
    {
        type            calculated;
        value           nonuniform List<scalar> 0();
    }
    walls
    {
        type            calculated;
        value           nonuniform List<scalar> 0();
    }
    frontAndBack
    {
        type            empty;
    }
    procBoundary0to1
    {
        type            processor;
        value           nonuniform List<scalar> 
94
(
0.287835
-0.0519755
0.337637
-0.0046288
0.390848
0.047945
0.421099
0.102951
0.419062
0.156805
0.40668
0.209053
0.227921
0.421621
0.281264
0.303739
0.413969
0.356982
0.383339
0.411117
0.424473
0.467335
0.499485
0.409006
0.557223
0.594122
0.633118
0.410649
0.69576
0.740182
0.787074
0.411447
0.856202
0.909289
0.398738
0.982921
1.04288
1.10615
0.405333
1.18946
1.26065
1.33582
0.416811
1.43108
1.51569
1.60494
0.434868
1.71494
1.81498
1.92094
0.46196
2.04881
2.16754
2.29301
0.49965
2.44268
2.58342
2.73196
2.88865
0.574414
3.075
3.25087
3.43662
3.6326
0.682252
3.86573
4.08575
4.3177
4.56265
4.82129
0.833261
5.12822
5.41778
5.72363
6.04611
6.38657
6.74594
0.985336
7.16637
7.56886
5.52196
6.07973
6.69093
7.36442
8.10405
8.92005
9.81734
0.990891
10.8139
11.8978
13.0866
14.3933
15.8447
17.4657
)
;
    }
    procBoundary0to4
    {
        type            processor;
        value           nonuniform List<scalar> 
72
(
0.219267
0.22155
0.224372
0.227597
0.231293
0.235459
0.240039
0.244891
0.250244
0.255954
0.262041
0.268524
0.27542
0.282705
0.29044
0.298637
0.307238
0.3163
0.325918
0.33599
0.346625
0.357811
-1.43956
0.272823
0.279968
0.287475
0.29541
0.303677
0.3124
0.321603
0.331226
0.34135
0.352
0.363196
0.374985
0.387359
0.400391
0.414119
0.428535
0.443724
0.45975
0.476573
0.494302
0.513017
0.532684
0.553445
0.575324
0.598382
0.622694
0.648339
0.675369
0.703938
0.734015
0.765725
0.799324
0.834635
0.871975
0.91144
0.952999
0.684669
0.748898
0.818858
0.895266
0.978743
1.06992
1.16975
1.27856
1.39776
1.52777
1.67005
1.82478
1.99343
)
;
    }
    procBoundary0to5
    {
        type            processor;
        value           nonuniform List<scalar> 4(0.215095 0.217951 0.229297 0.281379);
    }
}


// ************************************************************************* //
