/*--------------------------------*- C++ -*----------------------------------*\
| =========                 |                                                 |
| \\      /  F ield         | OpenFOAM: The Open Source CFD Toolbox           |
|  \\    /   O peration     | Version:  2506                                  |
|   \\  /    A nd           | Website:  www.openfoam.com                      |
|    \\/     M anipulation  |                                                 |
\*---------------------------------------------------------------------------*/
FoamFile
{
    version     2.0;
    format      ascii;
    arch        "LSB;label=32;scalar=64";
    class       volSymmTensorField;
    location    "250";
    object      turbulenceProperties:R;
}
// * * * * * * * * * * * * * * * * * * * * * * * * * * * * * * * * * * * * * //

dimensions      [0 2 -2 0 0 0 0];

internalField   nonuniform List<symmTensor> 
1340
(
(0.000371785 -2.99042e-05 -1.14141e-21 0.000308214 -4.42175e-22 0.000339961)
(0.000371594 -2.43234e-05 8.56529e-21 0.000300366 8.52285e-21 0.000336032)
(0.000369986 -1.84002e-05 1.88197e-20 0.000293234 1.0737e-20 0.00033159)
(0.00036643 -1.11954e-05 -2.9993e-20 0.000285772 -3.33294e-20 0.00032618)
(0.000359736 -3.24265e-06 -4.21987e-20 0.000278136 -3.58128e-20 0.000318925)
(0.000315381 -2.56768e-05 3.949e-21 0.000261955 3.48366e-21 0.000288642)
(0.000315021 -2.10279e-05 1.12839e-20 0.000255126 5.99199e-21 0.00028511)
(0.000313607 -1.60816e-05 -2.64406e-20 0.000248964 -1.86458e-20 0.000281271)
(0.000310713 -1.0075e-05 3.81201e-21 0.000242614 6.81025e-21 0.00027673)
(0.000305234 -3.4164e-06 3.99043e-20 0.000236104 1.58317e-20 0.000270653)
(0.000297406 3.42185e-06 -2.96611e-20 0.00023006 -3.52747e-20 0.000263705)
(0.000269331 -2.22003e-05 -2.01859e-21 0.000224156 -1.87202e-21 0.000246723)
(0.000268877 -1.82961e-05 -8.44799e-21 0.000218185 -5.62437e-21 0.000243553)
(0.000267609 -1.41299e-05 -1.19376e-21 0.000212809 1.78491e-22 0.000240197)
(0.000265233 -9.07693e-06 1.56555e-20 0.000207359 1.02953e-20 0.000236349)
(0.000260719 -3.45299e-06 -9.44504e-21 0.000201775 -7.60505e-22 0.000231227)
(0.000254375 2.33965e-06 3.45525e-20 0.00019668 2.67357e-20 0.000225504)
(0.000246198 8.00845e-06 5.75941e-20 0.000192257 2.54052e-20 0.00021921)
(0.00023128 -1.93046e-05 2.64552e-21 0.000192894 1.86289e-21 0.000212072)
(0.000230801 -1.60021e-05 3.7244e-21 0.000187663 2.60236e-21 0.000209247)
(0.000229672 -1.24703e-05 9.9135e-21 0.000182955 3.3975e-21 0.000206302)
(0.000227699 -8.18687e-06 -2.70619e-20 0.000178239 -1.83922e-20 0.000203013)
(0.00022397 -3.40377e-06 -1.34293e-20 0.000173432 -9.87629e-21 0.000198679)
(0.000218787 1.5395e-06 -3.35923e-20 0.000169105 -2.08474e-20 0.000193927)
(0.000212188 6.41256e-06 -4.1252e-20 0.000165452 -1.13073e-20 0.00018881)
(0.000204114 1.08987e-05 3.47431e-20 0.000162429 6.6308e-21 0.000183279)
(0.000199587 -1.68715e-05 2.86432e-21 0.000166827 1.48632e-21 0.000183194)
(0.000199098 -1.40575e-05 6.06069e-22 0.000162214 3.89288e-23 0.000180668)
(0.000198104 -1.10475e-05 -8.09219e-21 0.000158084 -2.32522e-21 0.000178083)
(0.000196443 -7.39138e-06 2.49412e-20 0.000153969 1.66797e-20 0.000175243)
(0.000193351 -3.29825e-06 4.61937e-20 0.000149814 2.10117e-20 0.000171559)
(0.000189091 9.46351e-07 1.0424e-21 0.000146117 5.19413e-21 0.000167588)
(0.000183698 5.15576e-06 8.79187e-20 0.000143053 3.67531e-20 0.000163371)
(0.000177067 9.06301e-06 -2.56821e-20 0.000140557 -2.49663e-20 0.000158819)
(0.000169395 1.22651e-05 -4.34422e-20 0.000138433 -1.33448e-20 0.000153912)
(0.000172975 -1.48072e-05 2.71328e-21 0.00014491 1.27363e-21 0.000158932)
(0.00017249 -1.23983e-05 -4.86507e-21 0.000140828 -2.8624e-21 0.000156666)
(0.000171618 -9.81597e-06 -1.91363e-21 0.000137188 -1.30665e-21 0.000154395)
(0.000170213 -6.68209e-06 -3.52687e-21 0.000133584 1.31776e-21 0.000151929)
(0.00016763 -3.15864e-06 3.49919e-20 0.000129969 1.33256e-20 0.000148779)
(0.00016411 5.04149e-07 -3.8177e-20 0.000126794 -1.91575e-20 0.000145439)
(0.000159656 4.1594e-06 4.00743e-21 0.000124192 3.00896e-21 0.000141923)
(0.000154167 7.57275e-06 1.54878e-20 0.00012211 -1.85824e-21 0.000138146)
(0.000147842 1.04e-05 -1.10529e-19 0.000120414 -3.0955e-20 0.000134126)
(0.000141058 1.2502e-05 2.65351e-20 0.000118966 1.50976e-20 0.000130007)
(0.000150472 -1.30419e-05 -3.94427e-21 0.000126349 -1.50092e-21 0.000138403)
(0.00015001 -1.09726e-05 3.2763e-21 0.000122735 2.80794e-21 0.000136376)
(0.000149236 -8.74637e-06 2.20357e-20 0.000119509 1.12752e-20 0.000134366)
(0.000148046 -6.04481e-06 6.23184e-21 0.00011634 1.4009e-22 0.000132219)
(0.000145877 -2.99859e-06 -2.64605e-20 0.000113182 -1.06722e-20 0.00012951)
(0.000142953 1.76548e-07 2.46636e-20 0.000110439 1.25221e-20 0.000126685)
(0.00013924 3.36259e-06 -6.69464e-21 0.000108206 -1.80181e-21 0.000123724)
(0.000134661 6.35388e-06 6.15817e-20 0.00010645 2.30158e-20 0.000120561)
(0.000129409 8.85517e-06 2.02193e-20 0.000105083 9.31888e-21 0.000117245)
(0.000123792 1.07426e-05 -1.21963e-20 0.000103979 -4.63157e-21 0.00011388)
(0.000131327 -1.15236e-05 4.04293e-22 0.000110533 -7.11511e-23 0.000120924)
(0.0001309 -9.73837e-06 -9.999e-22 0.000107329 -1.34505e-21 0.000119117)
(0.000130215 -7.81293e-06 -1.88151e-20 0.000104465 -1.06877e-20 0.000117334)
(0.000129195 -5.4737e-06 -3.06936e-20 0.000101662 -1.5705e-20 0.00011545)
(0.000127368 -2.8281e-06 -3.77849e-20 9.88914e-05 -1.05728e-20 0.000113113)
(0.000124925 -6.52835e-08 5.46614e-20 9.65102e-05 2.01697e-20 0.000110709)
(0.000121805 2.72133e-06 -5.03754e-20 9.45758e-05 -2.11751e-20 0.000108194)
(0.00011796 5.35032e-06 1.21195e-20 9.30818e-05 9.84542e-21 0.000105526)
(0.000113573 7.56673e-06 3.0258e-20 9.19711e-05 9.44352e-21 0.000102771)
(0.00010889 9.26043e-06 2.10213e-20 9.11235e-05 7.98619e-21 0.000100003)
(0.000104032 1.04424e-05 1.98737e-20 9.03878e-05 5.56643e-21 9.72094e-05)
(0.000114953 -1.02107e-05 5.03602e-21 9.69857e-05 2.78273e-21 0.000105965)
(0.000114563 -8.66454e-06 7.78926e-21 9.41371e-05 4.23603e-21 0.000104351)
(0.000113957 -6.99361e-06 2.15827e-20 9.159e-05 8.80364e-21 0.000102768)
(0.000113079 -4.96045e-06 -4.86998e-21 8.91019e-05 -2.32999e-21 0.000101108)
(0.000111531 -2.65413e-06 1.83092e-20 8.66603e-05 3.93967e-21 9.90815e-05)
(0.000109482 -2.41844e-07 -5.97325e-20 8.45838e-05 -2.09681e-20 9.70255e-05)
(0.000106841 2.20304e-06 5.15448e-20 8.2895e-05 2.78681e-20 9.48716e-05)
(0.000103594 4.5195e-06 6.98256e-20 8.16131e-05 1.74603e-20 9.26083e-05)
(9.99043e-05 6.48583e-06 -4.31539e-21 8.07001e-05 -6.42894e-21 9.03011e-05)
(9.5974e-05 8.0057e-06 2.94446e-20 8.00449e-05 -3.30619e-22 8.8006e-05)
(9.19043e-05 9.08599e-06 2.09006e-20 7.95129e-05 4.66707e-21 8.57081e-05)
(0.000100883 -9.06936e-06 -6.02267e-21 8.53239e-05 -2.51954e-21 9.30997e-05)
(0.000100527 -7.72624e-06 7.15602e-21 8.27855e-05 2.5665e-21 9.16561e-05)
(9.99913e-05 -6.27117e-06 -1.916e-20 8.05142e-05 -9.30724e-21 9.02476e-05)
(9.92323e-05 -4.49855e-06 -1.56519e-20 7.82994e-05 -5.91707e-21 8.87802e-05)
(9.79186e-05 -2.48217e-06 -4.16694e-21 7.61426e-05 2.19958e-21 8.70187e-05)
(9.61849e-05 -3.68541e-07 6.21018e-20 7.43183e-05 2.24044e-20 8.52465e-05)
(9.39408e-05 1.78129e-06 -7.31332e-21 7.28376e-05 -8.96483e-21 8.33924e-05)
(9.11818e-05 3.82765e-06 -4.95948e-20 7.17287e-05 -2.25818e-20 8.14592e-05)
(8.80622e-05 5.57526e-06 -4.12495e-20 7.09715e-05 -1.59207e-20 7.9516e-05)
(8.47429e-05 6.93788e-06 -1.40608e-19 7.04589e-05 -3.23035e-20 7.75981e-05)
(8.13146e-05 7.92226e-06 1.9152e-20 7.00771e-05 1.14773e-20 7.56956e-05)
(7.78731e-05 8.54223e-06 7.689e-20 6.97074e-05 1.21065e-20 7.37889e-05)
(8.8738e-05 -8.07229e-06 3.78239e-21 7.52395e-05 1.65467e-21 8.19861e-05)
(8.84159e-05 -6.90282e-06 1.3282e-21 7.29745e-05 1.22038e-21 8.06947e-05)
(8.79417e-05 -5.63218e-06 2.28126e-20 7.09442e-05 1.02019e-20 7.94382e-05)
(8.72851e-05 -4.08242e-06 3.55966e-20 6.89689e-05 1.26333e-20 7.81388e-05)
(8.61682e-05 -2.31453e-06 -1.30505e-20 6.70595e-05 -8.58856e-21 7.66035e-05)
(8.46884e-05 -4.57072e-07 -5.20431e-20 6.54451e-05 -1.8539e-20 7.5063e-05)
(8.2773e-05 1.43755e-06 8.43978e-21 6.4141e-05 1.38948e-21 7.34601e-05)
(8.04193e-05 3.24838e-06 -5.87531e-20 6.31762e-05 -1.5461e-20 7.18013e-05)
(7.77643e-05 4.80359e-06 2.79621e-20 6.25391e-05 1.66745e-20 7.01511e-05)
(7.49455e-05 6.02572e-06 6.11683e-20 6.21344e-05 2.16182e-20 6.85377e-05)
(7.204e-05 6.92057e-06 -3.6539e-20 6.18617e-05 -1.18331e-20 6.69505e-05)
(6.91303e-05 7.49925e-06 -5.43188e-20 6.16163e-05 -1.60859e-20 6.53716e-05)
(7.82153e-05 -7.19817e-06 -4.33889e-21 6.64854e-05 -1.18838e-21 7.23484e-05)
(7.79259e-05 -6.17756e-06 1.37767e-20 6.44616e-05 5.42079e-21 7.11929e-05)
(7.75056e-05 -5.06515e-06 -7.19545e-21 6.26434e-05 -3.30458e-21 7.00703e-05)
(7.69371e-05 -3.70717e-06 -5.55164e-21 6.08791e-05 -2.34688e-21 6.89179e-05)
(7.59844e-05 -2.15324e-06 -1.23432e-20 5.91835e-05 -5.91389e-21 6.75752e-05)
(7.47146e-05 -5.17113e-07 -3.77433e-20 5.77486e-05 -1.22575e-20 6.62288e-05)
(7.30708e-05 1.15653e-06 -2.26939e-20 5.65935e-05 -8.17661e-21 6.4835e-05)
(7.10543e-05 2.76221e-06 -2.19664e-21 5.57494e-05 4.01818e-21 6.34047e-05)
(6.87848e-05 4.14806e-06 2.5973e-20 5.52091e-05 1.32956e-20 6.1996e-05)
(6.63783e-05 5.24421e-06 2.71012e-20 5.48857e-05 6.87563e-21 6.06299e-05)
(6.39025e-05 6.05562e-06 6.04238e-20 5.46909e-05 7.99787e-21 5.92965e-05)
(6.14274e-05 6.59171e-06 -1.25926e-20 5.45316e-05 -6.70333e-21 5.79783e-05)
(6.90663e-05 -6.42907e-06 -3.29062e-21 5.88592e-05 -1.73515e-21 6.39616e-05)
(6.88092e-05 -5.53693e-06 -2.01304e-20 5.70505e-05 -7.71988e-21 6.29285e-05)
(6.84345e-05 -4.56074e-06 -1.26103e-20 5.54177e-05 -4.71464e-21 6.19225e-05)
(6.79414e-05 -3.36822e-06 -1.07547e-20 5.38389e-05 -3.83422e-21 6.08985e-05)
(6.71263e-05 -1.99928e-06 -8.23931e-21 5.23292e-05 -1.59378e-21 5.97203e-05)
(6.60324e-05 -5.55154e-07 2.37563e-20 5.10498e-05 4.47784e-21 5.85392e-05)
(6.46166e-05 9.25904e-07 -1.06247e-19 5.0023e-05 -3.22682e-20 5.73224e-05)
(6.28818e-05 2.35196e-06 7.33787e-21 4.92799e-05 1.4282e-20 5.60835e-05)
(6.09321e-05 3.58801e-06 1.40678e-19 4.88158e-05 3.55028e-20 5.48734e-05)
(5.88668e-05 4.57148e-06 4.18118e-20 4.85533e-05 8.81791e-22 5.37082e-05)
(5.67443e-05 5.30662e-06 -1.05949e-19 4.84136e-05 -3.13865e-20 5.25786e-05)
(5.46299e-05 5.80108e-06 -7.95949e-20 4.83172e-05 -1.13851e-20 5.14721e-05)
(5.25694e-05 6.08286e-06 1.55619e-20 4.81954e-05 9.07007e-21 5.03806e-05)
(6.10874e-05 -5.75048e-06 3.62116e-21 5.21952e-05 1.19059e-21 5.66405e-05)
(6.08603e-05 -4.96891e-06 -5.77845e-21 5.05763e-05 -1.54612e-21 5.57169e-05)
(6.0527e-05 -4.11114e-06 2.17403e-20 4.91095e-05 6.15306e-21 5.48147e-05)
(6.00981e-05 -3.06154e-06 -5.48715e-20 4.76935e-05 -2.08263e-20 5.39029e-05)
(5.93979e-05 -1.85323e-06 -4.16073e-20 4.63456e-05 -1.24436e-20 5.28654e-05)
(5.84517e-05 -5.76151e-07 -2.19686e-20 4.52013e-05 -3.7489e-21 5.18252e-05)
(5.72285e-05 7.3669e-07 5.02768e-20 4.42858e-05 2.17772e-20 5.07595e-05)
(5.5729e-05 2.00513e-06 6.53993e-20 4.36272e-05 1.12232e-20 4.96802e-05)
(5.40472e-05 3.10875e-06 -6.92813e-20 4.32252e-05 -2.27369e-20 4.86356e-05)
(5.22667e-05 3.99123e-06 5.63575e-20 4.30085e-05 1.353e-20 4.76362e-05)
(5.04393e-05 4.6562e-06 5.51395e-21 4.29078e-05 6.2742e-21 4.66735e-05)
(4.86219e-05 5.11001e-06 -1.99793e-20 4.28522e-05 3.39134e-21 4.5736e-05)
(4.68562e-05 5.3774e-06 6.75369e-20 4.27824e-05 1.56709e-20 4.48177e-05)
(5.41101e-05 -5.15009e-06 -3.71069e-21 4.6356e-05 -1.54754e-21 5.02323e-05)
(5.39083e-05 -4.46403e-06 -8.00067e-21 4.49034e-05 -2.33765e-21 4.94046e-05)
(5.36148e-05 -3.70948e-06 1.4983e-20 4.35868e-05 6.23425e-21 4.85977e-05)
(5.32402e-05 -2.78399e-06 2.74561e-20 4.23143e-05 1.00515e-20 4.77831e-05)
(5.26374e-05 -1.71536e-06 4.37812e-20 4.11082e-05 1.49294e-20 4.68673e-05)
(5.18165e-05 -5.84517e-07 2.93551e-20 4.00825e-05 1.10227e-20 4.59485e-05)
(5.07556e-05 5.81182e-07 8.67488e-20 3.92632e-05 1.89007e-20 4.50116e-05)
(4.94554e-05 1.71046e-06 -1.30033e-19 3.86766e-05 -3.65487e-20 4.4068e-05)
(4.79975e-05 2.69679e-06 1.14533e-20 3.83238e-05 5.89108e-21 4.31601e-05)
(4.64551e-05 3.48925e-06 -2.45133e-20 3.81418e-05 -3.83747e-21 4.22972e-05)
(4.48742e-05 4.09029e-06 5.00703e-20 3.8068e-05 1.09511e-20 4.14708e-05)
(4.3306e-05 4.50573e-06 1.85356e-20 3.80411e-05 2.4311e-21 4.06724e-05)
(4.17865e-05 4.75696e-06 3.76234e-20 3.80067e-05 -3.42224e-23 3.98951e-05)
(4.03147e-05 4.87638e-06 1.73096e-20 3.79341e-05 -1.52637e-22 3.91236e-05)
(4.79931e-05 -4.61735e-06 3.66907e-21 4.12253e-05 1.50949e-21 4.46087e-05)
(4.78142e-05 -4.01457e-06 1.26281e-20 3.99212e-05 3.54428e-21 4.38664e-05)
(4.75558e-05 -3.34959e-06 -2.89362e-20 3.87379e-05 -9.32333e-21 4.31441e-05)
(4.72279e-05 -2.53245e-06 1.10723e-20 3.75928e-05 5.20705e-21 4.24154e-05)
(4.67081e-05 -1.58618e-06 3.5812e-20 3.6512e-05 1.01672e-20 4.16054e-05)
(4.59942e-05 -5.834e-07 -8.90739e-21 3.55909e-05 -5.27749e-21 4.07919e-05)
(4.50705e-05 4.53218e-07 -4.69095e-20 3.48549e-05 -1.08374e-20 3.99648e-05)
(4.39401e-05 1.46016e-06 1.02746e-19 3.43309e-05 2.76912e-20 3.91369e-05)
(4.26721e-05 2.34244e-06 -8.63734e-20 3.4019e-05 -2.2692e-20 3.83451e-05)
(4.13306e-05 3.05377e-06 7.05233e-20 3.38626e-05 1.88654e-20 3.75955e-05)
(3.99574e-05 3.59669e-06 -2.66574e-20 3.38072e-05 -1.22995e-20 3.68822e-05)
(3.85976e-05 3.97596e-06 -2.95433e-20 3.37979e-05 -5.60328e-21 3.61967e-05)
(3.72825e-05 4.2103e-06 -6.4765e-20 3.37857e-05 -1.11066e-20 3.55328e-05)
(3.60121e-05 4.32854e-06 6.71502e-21 3.37436e-05 2.10155e-21 3.4877e-05)
(4.26172e-05 -4.14355e-06 -2.01434e-23 3.67061e-05 -1.00517e-23 3.96615e-05)
(4.24604e-05 -3.61362e-06 3.26109e-21 3.55359e-05 7.09688e-22 3.89969e-05)
(4.22325e-05 -3.02688e-06 -1.7427e-20 3.44711e-05 -4.92403e-21 3.83492e-05)
(4.19448e-05 -2.30417e-06 3.18136e-20 3.34389e-05 9.25185e-21 3.76962e-05)
(4.14962e-05 -1.46525e-06 -4.12241e-20 3.24693e-05 -1.1703e-20 3.69788e-05)
(4.0874e-05 -5.74864e-07 5.20001e-20 3.16407e-05 1.68428e-20 3.62568e-05)
(4.00673e-05 3.47917e-07 4.81906e-20 3.09778e-05 1.05344e-20 3.55246e-05)
(3.90819e-05 1.2465e-06 -4.61347e-20 3.05079e-05 -1.48411e-20 3.47963e-05)
(3.79748e-05 2.03625e-06 -5.91093e-21 3.02293e-05 2.91806e-21 3.41016e-05)
(3.6804e-05 2.67528e-06 6.56478e-21 3.00929e-05 -5.27959e-21 3.34475e-05)
(3.56061e-05 3.16553e-06 -3.428e-20 3.00496e-05 -5.59326e-21 3.28276e-05)
(3.44223e-05 3.51112e-06 4.41497e-20 3.0051e-05 1.00423e-20 3.22357e-05)
(3.328e-05 3.72844e-06 2.78695e-20 3.00528e-05 9.9709e-21 3.16652e-05)
(3.21794e-05 3.84334e-06 3.86796e-21 3.00311e-05 -4.49476e-21 3.11044e-05)
(3.78835e-05 -3.72156e-06 -6.45632e-22 3.27181e-05 -2.64022e-22 3.53008e-05)
(3.7747e-05 -3.25512e-06 2.78118e-21 3.16673e-05 8.12035e-22 3.47059e-05)
(3.75465e-05 -2.73693e-06 -1.04298e-21 3.07087e-05 -8.58024e-22 3.41253e-05)
(3.72936e-05 -2.09707e-06 -1.8365e-20 2.97775e-05 -6.62625e-21 3.35393e-05)
(3.69056e-05 -1.35241e-06 -4.36517e-20 2.89062e-05 -1.28292e-20 3.29026e-05)
(3.63623e-05 -5.6085e-07 -3.03673e-20 2.81597e-05 -8.99012e-21 3.22606e-05)
(3.5656e-05 2.61425e-07 -5.18638e-20 2.75613e-05 -1.42731e-20 3.16104e-05)
(3.47944e-05 1.06429e-06 2.05735e-20 2.71383e-05 6.58119e-21 3.09675e-05)
(3.38258e-05 1.77154e-06 1.01198e-20 2.68884e-05 9.74661e-22 3.03567e-05)
(3.28005e-05 2.34571e-06 -1.05989e-19 2.67674e-05 -2.0514e-20 2.97831e-05)
(3.17517e-05 2.78816e-06 -2.02126e-20 2.67314e-05 9.54415e-22 2.92414e-05)
(3.07166e-05 3.10251e-06 -4.35003e-20 2.67378e-05 -8.26461e-21 2.87264e-05)
(2.97204e-05 3.30318e-06 7.63642e-20 2.67475e-05 1.05451e-20 2.8233e-05)
(2.87633e-05 3.41331e-06 -7.90154e-20 2.67388e-05 -1.22772e-20 2.77504e-05)
(2.78375e-05 3.45122e-06 -3.22133e-20 2.66958e-05 -3.24524e-21 2.72663e-05)
(3.37082e-05 -3.34504e-06 3.83281e-21 2.91923e-05 1.43855e-21 3.14503e-05)
(3.35889e-05 -2.93407e-06 1.32798e-20 2.82475e-05 4.32461e-21 3.0917e-05)
(3.34132e-05 -2.47603e-06 2.3859e-20 2.73845e-05 7.37925e-21 3.03967e-05)
(3.31915e-05 -1.90893e-06 2.37296e-20 2.65442e-05 7.25533e-21 2.98711e-05)
(3.28551e-05 -1.24733e-06 3.67793e-20 2.576e-05 1.06059e-20 2.93047e-05)
(3.238e-05 -5.42849e-07 3.59083e-20 2.50868e-05 6.98126e-21 2.8733e-05)
(3.1761e-05 1.90471e-07 -9.13579e-20 2.45463e-05 -2.38583e-20 2.81552e-05)
(3.10053e-05 9.08306e-07 -4.53808e-20 2.41638e-05 -6.9658e-21 2.75856e-05)
(3.01554e-05 1.54219e-06 6.29387e-20 2.39382e-05 1.5551e-20 2.70464e-05)
(2.92547e-05 2.0582e-06 1.23971e-19 2.3829e-05 3.04741e-20 2.65412e-05)
(2.83335e-05 2.45743e-06 6.02886e-20 2.37975e-05 9.33903e-21 2.60653e-05)
(2.74255e-05 2.743e-06 -1.08927e-20 2.38057e-05 -2.62161e-21 2.56148e-05)
(2.6553e-05 2.92768e-06 -2.49245e-20 2.38189e-05 -6.16637e-21 2.5185e-05)
(2.57171e-05 3.03209e-06 9.42999e-20 2.38173e-05 1.71356e-20 2.47665e-05)
(2.49111e-05 3.07296e-06 -1.65548e-20 2.37881e-05 -3.68767e-21 2.43493e-05)
(3.00185e-05 -3.00843e-06 3.12048e-21 2.60691e-05 8.23791e-22 2.80439e-05)
(2.99143e-05 -2.64613e-06 -2.6252e-21 2.52191e-05 -1.08424e-21 2.75656e-05)
(2.97614e-05 -2.241e-06 -9.30476e-21 2.44425e-05 -2.86138e-21 2.70999e-05)
(2.95672e-05 -1.73804e-06 -9.03601e-21 2.3684e-05 -4.34906e-21 2.66285e-05)
(2.92744e-05 -1.14959e-06 -9.86653e-20 2.29767e-05 -2.68293e-20 2.61233e-05)
(2.88589e-05 -5.22218e-07 -1.83802e-20 2.23694e-05 -1.7658e-21 2.56139e-05)
(2.83159e-05 1.32455e-07 4.89287e-20 2.18807e-05 1.43025e-20 2.50997e-05)
(2.76518e-05 7.74694e-07 4.2781e-20 2.15342e-05 8.76217e-21 2.45939e-05)
(2.69041e-05 1.3431e-06 -1.01836e-19 2.13293e-05 -2.22052e-20 2.41163e-05)
(2.61108e-05 1.80702e-06 1.59723e-20 2.12296e-05 -1.61282e-22 2.36696e-05)
(2.52997e-05 2.16726e-06 -9.73633e-21 2.12007e-05 -1.86315e-21 2.325e-05)
(2.45008e-05 2.42638e-06 2.20074e-21 2.12086e-05 2.1766e-21 2.2854e-05)
(2.37342e-05 2.59581e-06 -2.93834e-20 2.12221e-05 -2.95907e-21 2.24774e-05)
(2.30017e-05 2.69409e-06 -5.49415e-20 2.12244e-05 -1.24659e-20 2.21124e-05)
(2.22971e-05 2.73622e-06 4.27329e-22 2.12035e-05 3.10944e-22 2.17499e-05)
(2.6753e-05 -2.70717e-06 -8.72927e-22 2.32983e-05 -1.88243e-22 2.50259e-05)
(2.66627e-05 -2.38764e-06 9.01272e-21 2.25336e-05 2.55666e-21 2.45971e-05)
(2.65296e-05 -2.02902e-06 8.56382e-21 2.18342e-05 2.25884e-21 2.41801e-05)
(2.63602e-05 -1.58263e-06 3.01988e-21 2.11497e-05 7.1644e-22 2.37574e-05)
(2.61048e-05 -1.05876e-06 1.24129e-20 2.0511e-05 5.52802e-21 2.3306e-05)
(2.57413e-05 -4.9965e-07 8.058e-20 1.99629e-05 1.91949e-20 2.28518e-05)
(2.52644e-05 8.5237e-08 -4.68359e-20 1.95207e-05 -1.27833e-20 2.23938e-05)
(2.468e-05 6.60163e-07 3.20516e-20 1.92063e-05 1.18989e-20 2.19439e-05)
(2.40208e-05 1.17014e-06 1.12301e-19 1.90193e-05 2.17137e-20 2.15197e-05)
(2.33206e-05 1.5873e-06 -8.3906e-20 1.89275e-05 -1.73004e-20 2.11236e-05)
(2.26043e-05 1.91223e-06 6.79397e-20 1.88996e-05 1.37846e-20 2.07518e-05)
(2.18993e-05 2.14727e-06 4.75916e-20 1.89058e-05 5.59838e-21 2.04019e-05)
(2.12243e-05 2.30241e-06 8.20805e-20 1.89186e-05 1.23775e-20 2.00706e-05)
(2.05804e-05 2.39436e-06 -8.30795e-21 1.89222e-05 -1.39764e-21 1.97508e-05)
(1.99628e-05 2.43657e-06 -3.432e-20 1.89061e-05 -4.14186e-21 1.9434e-05)
(1.93669e-05 2.43918e-06 -4.06722e-20 1.88627e-05 -3.69679e-21 1.91143e-05)
(2.38594e-05 -2.43723e-06 9.93016e-22 2.0837e-05 -2.68051e-25 2.23485e-05)
(2.37813e-05 -2.15526e-06 -2.26046e-20 2.01487e-05 -5.89684e-21 2.19639e-05)
(2.36655e-05 -1.83765e-06 2.76742e-20 1.95185e-05 7.62599e-21 2.15904e-05)
(2.35182e-05 -1.44122e-06 -8.78993e-21 1.89007e-05 -1.64628e-21 2.12116e-05)
(2.32957e-05 -9.74613e-07 7.34187e-20 1.83241e-05 1.81968e-20 2.08083e-05)
(2.29772e-05 -4.75938e-07 -4.87957e-20 1.78289e-05 -1.34322e-20 2.04028e-05)
(2.25581e-05 4.68844e-08 7.68963e-21 1.74285e-05 4.64752e-21 1.99944e-05)
(2.20433e-05 5.61912e-07 1.18489e-19 1.71429e-05 2.14972e-20 1.95938e-05)
(2.14611e-05 1.01969e-06 -1.35467e-19 1.69719e-05 -2.98642e-20 1.92162e-05)
(2.08419e-05 1.39495e-06 5.56486e-20 1.68866e-05 1.44385e-20 1.88638e-05)
(2.02081e-05 1.68802e-06 -8.4918e-20 1.68592e-05 -2.07604e-20 1.85334e-05)
(1.95849e-05 1.90105e-06 -1.06493e-19 1.68632e-05 -1.91842e-20 1.82235e-05)
(1.89882e-05 2.04276e-06 -5.50447e-20 1.68732e-05 -9.96885e-21 1.79301e-05)
(1.84203e-05 2.12836e-06 1.99189e-20 1.68764e-05 5.98814e-21 1.76479e-05)
(1.78779e-05 2.16998e-06 5.52127e-20 1.68638e-05 8.05616e-21 1.73705e-05)
(1.73559e-05 2.17665e-06 2.47373e-20 1.68277e-05 5.11273e-21 1.70914e-05)
(2.12245e-05 -1.94613e-06 -7.98756e-21 1.80278e-05 -2.29614e-21 1.96252e-05)
(2.11243e-05 -1.66477e-06 -9.02967e-21 1.74601e-05 -2.34852e-21 1.92908e-05)
(2.09963e-05 -1.31245e-06 -3.45367e-21 1.69024e-05 -1.65793e-21 1.89512e-05)
(2.08026e-05 -8.96624e-07 -5.35346e-20 1.63815e-05 -1.21032e-20 1.85908e-05)
(2.05237e-05 -4.51607e-07 8.6458e-20 1.59341e-05 2.09601e-20 1.82287e-05)
(2.01552e-05 1.6008e-08 -3.56085e-20 1.55715e-05 -1.19278e-20 1.78643e-05)
(1.97012e-05 4.77636e-07 -1.53193e-19 1.53119e-05 -3.28613e-20 1.75072e-05)
(1.91867e-05 8.88629e-07 1.3336e-19 1.51553e-05 3.34251e-20 1.71707e-05)
(1.86383e-05 1.2263e-06 1.90512e-20 1.50758e-05 3.33134e-22 1.68567e-05)
(1.80765e-05 1.49065e-06 4.13288e-20 1.50483e-05 1.34643e-20 1.65622e-05)
(1.75239e-05 1.6837e-06 4.86872e-20 1.50497e-05 1.073e-20 1.62863e-05)
(1.6996e-05 1.81308e-06 -4.667e-21 1.50572e-05 2.74532e-21 1.6026e-05)
(1.64943e-05 1.8924e-06 1.08113e-20 1.50591e-05 -6.11687e-22 1.57763e-05)
(1.6016e-05 1.93276e-06 -5.70726e-20 1.50477e-05 -9.30617e-21 1.55316e-05)
(1.55573e-05 1.94233e-06 3.11177e-20 1.50166e-05 3.30214e-21 1.52866e-05)
(1.51083e-05 1.92743e-06 -5.85761e-20 1.49627e-05 -8.58296e-21 1.50354e-05)
(1.89533e-05 -1.75776e-06 -5.73694e-21 1.61395e-05 -1.29963e-21 1.75455e-05)
(1.88672e-05 -1.50845e-06 1.46989e-20 1.56283e-05 3.25498e-21 1.72465e-05)
(1.8756e-05 -1.19522e-06 -4.39491e-20 1.51247e-05 -1.10601e-20 1.6942e-05)
(1.85875e-05 -8.24407e-07 1.15006e-20 1.46541e-05 2.32324e-21 1.66197e-05)
(1.83436e-05 -4.27096e-07 -8.25931e-20 1.425e-05 -1.98418e-20 1.62966e-05)
(1.80195e-05 -8.63232e-09 1.89491e-20 1.39215e-05 5.27339e-21 1.59713e-05)
(1.76189e-05 4.05312e-07 5.52252e-21 1.36854e-05 3.42466e-21 1.56526e-05)
(1.71637e-05 7.74525e-07 -6.92318e-21 1.35419e-05 -4.67351e-21 1.53525e-05)
(1.66775e-05 1.07844e-06 -1.96257e-20 1.34677e-05 -2.0361e-21 1.50723e-05)
(1.6179e-05 1.31692e-06 1.06999e-19 1.34403e-05 1.79221e-20 1.48095e-05)
(1.56886e-05 1.49174e-06 -1.26229e-20 1.3439e-05 -4.48062e-21 1.45633e-05)
(1.52204e-05 1.60966e-06 9.5609e-20 1.34437e-05 1.34155e-20 1.43315e-05)
(1.4776e-05 1.683e-06 -3.03681e-20 1.34438e-05 -5.5715e-21 1.41095e-05)
(1.43536e-05 1.72175e-06 3.37424e-20 1.34329e-05 7.25909e-21 1.38929e-05)
(1.39497e-05 1.73334e-06 -2.69528e-20 1.34054e-05 -5.15875e-21 1.36773e-05)
(1.35555e-05 1.72346e-06 4.44937e-20 1.33585e-05 8.76018e-21 1.34569e-05)
(1.69336e-05 -1.58798e-06 -2.82418e-20 1.44565e-05 -7.1172e-21 1.56942e-05)
(1.68598e-05 -1.36696e-06 -3.53039e-21 1.39961e-05 1.61847e-22 1.54269e-05)
(1.67638e-05 -1.0884e-06 7.13196e-20 1.35415e-05 1.74796e-20 1.51541e-05)
(1.66175e-05 -7.57617e-07 6.17317e-22 1.31164e-05 -1.27916e-22 1.4866e-05)
(1.64043e-05 -4.02689e-07 5.16782e-20 1.27514e-05 1.16793e-20 1.45776e-05)
(1.61194e-05 -2.80691e-08 -6.02098e-20 1.24539e-05 -1.4394e-20 1.42874e-05)
(1.57661e-05 3.43222e-07 8.27264e-21 1.22394e-05 3.02408e-21 1.40032e-05)
(1.5363e-05 6.75031e-07 -2.45636e-20 1.21077e-05 -3.44193e-21 1.37351e-05)
(1.49317e-05 9.48597e-07 2.1226e-20 1.20384e-05 2.83958e-21 1.34847e-05)
(1.44889e-05 1.16377e-06 -5.68585e-20 1.20112e-05 -1.56908e-20 1.32499e-05)
(1.40529e-05 1.32208e-06 -3.01513e-20 1.20074e-05 -2.56393e-21 1.30297e-05)
(1.36372e-05 1.42952e-06 -1.06899e-19 1.20095e-05 -1.80225e-20 1.28228e-05)
(1.32434e-05 1.49721e-06 3.05984e-20 1.2008e-05 7.31978e-21 1.26254e-05)
(1.28696e-05 1.53407e-06 1.47501e-20 1.19969e-05 9.669e-22 1.2433e-05)
(1.25131e-05 1.54697e-06 -1.11924e-20 1.1972e-05 -1.78321e-22 1.22423e-05)
(1.21669e-05 1.54111e-06 -1.36602e-20 1.19309e-05 -1.83473e-21 1.20488e-05)
(1.51359e-05 -1.43482e-06 2.02981e-20 1.29549e-05 5.34998e-21 1.40446e-05)
(1.5073e-05 -1.23885e-06 3.35385e-20 1.25403e-05 7.72574e-21 1.38057e-05)
(1.49904e-05 -9.91049e-07 -3.01297e-20 1.21301e-05 -8.57697e-21 1.35615e-05)
(1.48637e-05 -6.95905e-07 -7.99495e-20 1.17462e-05 -1.77916e-20 1.33042e-05)
(1.46775e-05 -3.78723e-07 7.15036e-21 1.14165e-05 1.59208e-21 1.30469e-05)
(1.44274e-05 -4.32057e-08 -1.63894e-20 1.11474e-05 -2.44226e-21 1.27881e-05)
(1.41158e-05 2.90012e-07 5.02674e-20 1.09525e-05 1.15731e-20 1.25345e-05)
(1.37589e-05 5.8829e-07 6.94512e-20 1.08319e-05 1.23537e-20 1.22951e-05)
(1.33761e-05 8.34618e-07 -4.44627e-20 1.07673e-05 -8.56403e-21 1.20714e-05)
(1.29826e-05 1.02882e-06 -6.6837e-20 1.07404e-05 -8.56842e-21 1.18614e-05)
(1.25949e-05 1.17213e-06 1.30336e-19 1.07347e-05 2.26549e-20 1.16644e-05)
(1.22254e-05 1.26994e-06 6.66131e-20 1.07344e-05 1.23472e-20 1.14795e-05)
(1.18755e-05 1.33225e-06 -1.94878e-20 1.07311e-05 -6.20474e-21 1.1303e-05)
(1.15444e-05 1.3672e-06 7.83363e-21 1.072e-05 8.44178e-22 1.11319e-05)
(1.12297e-05 1.38088e-06 5.68404e-20 1.0697e-05 8.99632e-21 1.09631e-05)
(1.09248e-05 1.3781e-06 5.01705e-20 1.06604e-05 7.18174e-21 1.07925e-05)
(1.06235e-05 1.36169e-06 7.72974e-21 1.06075e-05 6.98785e-22 1.06154e-05)
(1.35343e-05 -1.29657e-06 -4.86221e-21 1.1614e-05 -1.41861e-21 1.25734e-05)
(1.3481e-05 -1.12278e-06 -3.78376e-20 1.12407e-05 -8.9037e-21 1.236e-05)
(1.34104e-05 -9.02287e-07 5.60626e-21 1.08707e-05 2.85028e-21 1.21416e-05)
(1.3301e-05 -6.38841e-07 1.21747e-19 1.05242e-05 2.65461e-20 1.1912e-05)
(1.31388e-05 -3.55278e-07 -9.22487e-20 1.02266e-05 -2.11063e-20 1.16826e-05)
(1.29195e-05 -5.47124e-08 8.23945e-21 9.98331e-06 2.64384e-21 1.1452e-05)
(1.26447e-05 2.44392e-07 -4.17535e-21 9.8063e-06 -1.16609e-21 1.12258e-05)
(1.2329e-05 5.12608e-07 -4.57437e-20 9.69614e-06 -7.35917e-21 1.10124e-05)
(1.19893e-05 7.34457e-07 1.26599e-19 9.63606e-06 2.23019e-20 1.08124e-05)
(1.16394e-05 9.0979e-07 7.57363e-21 9.60988e-06 -2.60834e-21 1.06246e-05)
(1.12946e-05 1.03952e-06 -1.26134e-19 9.60254e-06 -2.37556e-20 1.04482e-05)
(1.09658e-05 1.12858e-06 3.25806e-20 9.60031e-06 4.5956e-21 1.02827e-05)
(1.06552e-05 1.18588e-06 -5.95919e-20 9.59569e-06 -9.5988e-21 1.01252e-05)
(1.03615e-05 1.2188e-06 -5.50523e-20 9.58432e-06 -8.99432e-21 9.97274e-06)
(1.00832e-05 1.23287e-06 -2.55569e-20 9.56289e-06 -4.39917e-21 9.8228e-06)
(9.81426e-06 1.23251e-06 9.26264e-21 9.53002e-06 5.6324e-22 9.67209e-06)
(9.54976e-06 1.22028e-06 7.04726e-21 9.48359e-06 5.79025e-22 9.51654e-06)
(1.21064e-05 -1.17173e-06 -1.3454e-20 1.04156e-05 -2.90708e-21 1.12604e-05)
(1.20615e-05 -1.01757e-06 2.43069e-20 1.00795e-05 5.87932e-21 1.10698e-05)
(1.20016e-05 -8.21343e-07 1.69201e-20 9.74595e-06 2.27835e-21 1.08747e-05)
(1.19077e-05 -5.86167e-07 -1.32435e-19 9.43338e-06 -2.87221e-20 1.067e-05)
(1.17667e-05 -3.32617e-07 9.59235e-20 9.16502e-06 2.21271e-20 1.04657e-05)
(1.15746e-05 -6.32454e-08 -3.43947e-20 8.94513e-06 -6.39742e-21 1.02604e-05)
(1.13326e-05 2.05371e-07 1.07976e-19 8.78477e-06 2.18253e-20 1.0059e-05)
(1.10533e-05 4.46627e-07 7.63214e-20 8.68424e-06 1.14059e-20 9.8686e-06)
(1.07521e-05 6.46504e-07 -1.90192e-19 8.62872e-06 -3.68875e-20 9.69019e-06)
(1.04411e-05 8.04783e-07 -8.74047e-20 8.60342e-06 -1.2866e-20 9.52217e-06)
(1.01344e-05 9.22249e-07 3.6507e-20 8.59508e-06 9.39786e-21 9.3644e-06)
(9.84197e-06 1.00331e-06 -1.3909e-20 8.59133e-06 -3.1218e-21 9.21631e-06)
(9.56566e-06 1.05594e-06 4.33537e-20 8.58552e-06 9.24271e-21 9.07534e-06)
(9.30532e-06 1.08688e-06 -3.41795e-20 8.57426e-06 -4.21801e-21 8.93957e-06)
(9.05913e-06 1.10108e-06 -1.15876e-20 8.55438e-06 -1.61167e-21 8.80657e-06)
(8.82194e-06 1.10254e-06 -7.6623e-21 8.52465e-06 -2.15278e-22 8.67322e-06)
(8.58932e-06 1.09369e-06 -7.46671e-21 8.48361e-06 -1.49328e-21 8.53638e-06)
(1.08325e-05 -1.05891e-06 1.1672e-21 9.34378e-06 5.11551e-22 1.00875e-05)
(1.07949e-05 -9.22187e-07 2.83819e-20 9.04116e-06 6.20832e-21 9.91736e-06)
(1.07443e-05 -7.47512e-07 -3.13455e-20 8.74058e-06 -6.58058e-21 9.74329e-06)
(1.06642e-05 -5.37536e-07 7.15345e-20 8.45892e-06 1.58265e-20 9.56113e-06)
(1.05421e-05 -3.10734e-07 -3.69076e-20 8.2171e-06 -8.37759e-21 9.37948e-06)
(1.03742e-05 -6.92668e-08 5.61589e-20 8.0187e-06 1.09295e-20 9.1969e-06)
(1.01614e-05 1.72005e-07 -1.0215e-19 7.8736e-06 -2.27581e-20 9.01779e-06)
(9.91481e-06 3.89061e-07 -1.11448e-20 7.78224e-06 -1.82457e-21 8.84833e-06)
(9.64772e-06 5.69216e-07 1.58439e-19 7.73111e-06 3.31606e-20 8.68923e-06)
(9.37142e-06 7.12115e-07 -8.67356e-21 7.70693e-06 5.37577e-24 8.53908e-06)
(9.09872e-06 8.18506e-07 -2.32464e-20 7.69802e-06 -3.73211e-21 8.39806e-06)
(8.83862e-06 8.9228e-07 -6.60653e-21 7.69327e-06 3.651e-22 8.26566e-06)
(8.59319e-06 9.40608e-07 5.72043e-20 7.68683e-06 9.13821e-21 8.13979e-06)
(8.36215e-06 9.69579e-07 3.40888e-20 7.67563e-06 5.36598e-21 8.01872e-06)
(8.14419e-06 9.83685e-07 -3.59167e-20 7.65714e-06 -5.84118e-21 7.9005e-06)
(7.93498e-06 9.8656e-07 5.43582e-20 7.63036e-06 8.48697e-21 7.7826e-06)
(7.73037e-06 9.80429e-07 9.41385e-21 7.59404e-06 1.14538e-21 7.66212e-06)
(7.5259e-06 9.66589e-07 -4.60601e-20 7.54666e-06 -5.78619e-21 7.53624e-06)
(9.69498e-06 -9.56922e-07 -3.42336e-21 8.38431e-06 -1.08076e-21 9.03911e-06)
(9.6639e-06 -8.35663e-07 -4.35649e-20 8.11207e-06 -9.51559e-21 8.88741e-06)
(9.62164e-06 -6.8016e-07 1.01375e-20 7.84129e-06 2.61034e-21 8.7322e-06)
(9.55374e-06 -4.92669e-07 7.17223e-21 7.58775e-06 7.85408e-22 8.5704e-06)
(9.44839e-06 -2.89766e-07 -4.48273e-20 7.3701e-06 -9.1979e-21 8.40917e-06)
(9.30202e-06 -7.32603e-08 -4.60097e-20 7.19128e-06 -8.97314e-21 8.24706e-06)
(9.11533e-06 1.43516e-07 -4.91789e-20 7.0603e-06 -9.87619e-21 8.08806e-06)
(8.89784e-06 3.38867e-07 -1.1752e-19 6.97756e-06 -2.05965e-20 7.93754e-06)
(8.66132e-06 5.01273e-07 5.74775e-20 6.93076e-06 9.77902e-21 7.79589e-06)
(8.41617e-06 6.30341e-07 1.15699e-19 6.9081e-06 1.84743e-20 7.66203e-06)
(8.17382e-06 7.26747e-07 4.14389e-20 6.89905e-06 5.32093e-21 7.53614e-06)
(7.94254e-06 7.93869e-07 5.26483e-21 6.89363e-06 1.42754e-22 7.4178e-06)
(7.72454e-06 8.38241e-07 1.9045e-20 6.8869e-06 1.13667e-21 7.30553e-06)
(7.5196e-06 8.65307e-07 3.31591e-20 6.87603e-06 4.10988e-21 7.19764e-06)