/*--------------------------------*- C++ -*----------------------------------*\
| =========                 |                                                 |
| \\      /  F ield         | OpenFOAM: The Open Source CFD Toolbox           |
|  \\    /   O peration     | Version:  2506                                  |
|   \\  /    A nd           | Website:  www.openfoam.com                      |
|    \\/     M anipulation  |                                                 |
\*---------------------------------------------------------------------------*/
FoamFile
{
    version     2.0;
    format      ascii;
    arch        "LSB;label=32;scalar=64";
    class       volScalarField;
    location    "40";
    object      p;
}
// * * * * * * * * * * * * * * * * * * * * * * * * * * * * * * * * * * * * * //

dimensions      [0 2 -2 0 0 0 0];

internalField   nonuniform List<scalar> 
400
(
-1.01107e-08
-0.00015019
-0.000530033
-0.00106179
-0.00171602
-0.00246889
-0.00315293
-0.00356139
-0.00352781
-0.00289892
-0.00152181
0.000631639
0.0032494
0.00551368
0.00655205
0.00597588
0.00408859
0.00225488
0.00121898
0.00114661
0.000116032
-5.68875e-05
-0.000371946
-0.000755798
-0.00123202
-0.00186927
-0.00267653
-0.00350159
-0.00402916
-0.00388657
-0.00280307
-0.000796067
0.00170528
0.00397583
0.00515672
0.00480658
0.00320136
0.00148594
0.000705814
0.000791212
0.000530339
0.000263106
-7.48346e-05
-0.000552396
-0.00133089
-0.00254731
-0.00416176
-0.00589999
-0.00729806
-0.00783213
-0.00716032
-0.00537325
-0.00281985
-0.000132637
0.00185831
0.00251235
0.00181666
0.000621214
-0.000275379
-0.000278571
0.00113405
0.000728664
0.000188146
-0.000764168
-0.00241463
-0.00486245
-0.00787276
-0.0109514
-0.0134977
-0.0149531
-0.0149848
-0.0136338
-0.0111132
-0.0078752
-0.00461776
-0.00208458
-0.000747714
-0.000584155
-0.00116538
-0.00179685
0.00154619
0.000946797
-3.06824e-05
-0.00189761
-0.00492684
-0.00903121
-0.0136901
-0.0181868
-0.0218691
-0.0242736
-0.025142
-0.0243546
-0.022032
-0.0184582
-0.0140666
-0.00946074
-0.00543331
-0.00281648
-0.00207397
-0.00388663
0.00124442
0.000411499
-0.00119699
-0.00424362
-0.00885839
-0.0146333
-0.0207246
-0.0262773
-0.0306831
-0.0336261
-0.0349792
-0.0346427
-0.0326958
-0.0292806
-0.0245329
-0.0186683
-0.0122835
-0.00678575
-0.00426901
-0.0063779
-9.32819e-05
-0.00117156
-0.00347303
-0.00768327
-0.0137024
-0.0207565
-0.0277554
-0.0338185
-0.038453
-0.0414993
-0.0429663
-0.042875
-0.0412898
-0.0382745
-0.0338012
-0.0277485
-0.0202305
-0.0124855
-0.00769856
-0.00761629
-0.00247199
-0.00373814
-0.00662941
-0.0117345
-0.01872
-0.0265128
-0.0338932
-0.0400415
-0.044609
-0.0475626
-0.048994
-0.0489999
-0.0476577
-0.0450103
-0.041002
-0.0353926
-0.0279157
-0.0190791
-0.0116319
-0.00785602
-0.00552073
-0.00687
-0.0101428
-0.0157751
-0.0232526
-0.0313183
-0.0387217
-0.0447392
-0.0491419
-0.0519738
-0.0533605
-0.0534115
-0.0522008
-0.0497818
-0.0461564
-0.0411561
-0.034356
-0.0255716
-0.0164574
-0.00983229
-0.00867478
-0.00999734
-0.0134272
-0.0192359
-0.02681
-0.0348332
-0.0420867
-0.0479259
-0.0521897
-0.0549472
-0.0563206
-0.0563998
-0.0552481
-0.0529326
-0.0495258
-0.0450037
-0.039038
-0.0310729
-0.0219965
-0.0141033
-0.0114112
-0.0126348
-0.0160117
-0.0217076
-0.0290851
-0.0368822
-0.0439399
-0.0496448
-0.0538437
-0.0565875
-0.0579747
-0.0580728
-0.0569325
-0.0546268
-0.0512881
-0.0470341
-0.0417859
-0.0348867
-0.0268218
-0.018878
-0.0134375
-0.0144768
-0.0176311
-0.0229547
-0.0298969
-0.0373429
-0.0442146
-0.0498748
-0.0541063
-0.0569074
-0.0583384
-0.0584474
-0.0572767
-0.0549003
-0.0515023
-0.0473135
-0.0425623
-0.036562
-0.029647
-0.0220911
-0.0147207
-0.0154259
-0.0181338
-0.0228657
-0.0291847
-0.0361895
-0.0428942
-0.0485992
-0.0529664
-0.0559032
-0.0574163
-0.0575314
-0.0562862
-0.0537765
-0.0502116
-0.045885
-0.0413788
-0.0358625
-0.0298819
-0.022599
-0.0153558
-0.0155949
-0.0175884
-0.0214482
-0.026944
-0.0334168
-0.0399614
-0.0457852
-0.0503933
-0.0535621
-0.055222
-0.0553703
-0.054027
-0.0513147
-0.0474864
-0.0429205
-0.0382597
-0.0328155
-0.0278393
-0.0200697
-0.0154723
-0.0151942
-0.0161946
-0.0188616
-0.023304
-0.0291333
-0.0355063
-0.0415098
-0.0464611
-0.0499695
-0.0518602
-0.052077
-0.0506591
-0.0476989
-0.0435184
-0.0385491
-0.03347
-0.0279028
-0.0241037
-0.0143165
-0.0151898
-0.0144722
-0.0141707
-0.0152886
-0.0184568
-0.0235371
-0.0297215
-0.0359497
-0.0413347
-0.0452958
-0.0475336
-0.0479228
-0.0464885
-0.0432995
-0.0387167
-0.033196
-0.0275124
-0.0216393
-0.0181334
-0.00393695
-0.0145958
-0.0135674
-0.0116734
-0.0110414
-0.0128585
-0.0171795
-0.0231932
-0.0296789
-0.0355638
-0.0400778
-0.0427914
-0.0434834
-0.0421484
-0.0388204
-0.0338224
-0.0275436
-0.0207408
-0.0134903
-0.00709382
0.015778
-0.0145487
-0.0126368
-0.00867043
-0.00628921
-0.00694067
-0.0106921
-0.0166356
-0.023411
-0.0298308
-0.0349637
-0.03827
-0.0394073
-0.0383236
-0.0350282
-0.0296656
-0.0222711
-0.0130948
-0.00109192
0.0162009
0.05665
-0.0117926
-0.0118472
-0.00581168
-0.00191294
-0.00189337
-0.00546127
-0.0115101
-0.0186047
-0.0255237
-0.0312232
-0.0351329
-0.036827
-0.0362101
-0.0330087
-0.0270709
-0.0176184
-0.00346269
0.0199862
0.060138
0.129357
-0.0295037
-0.0106705
-0.000731479
0.00290481
0.00227793
-0.00165887
-0.00798261
-0.0153921
-0.0226718
-0.0287529
-0.0330401
-0.0350844
-0.0347517
-0.0316267
-0.0250741
-0.0129206
0.00912923
0.0507043
0.122371
0.225657
)
;

boundaryField
{
    movingWall
    {
        type            zeroGradient;
    }
    fixedWalls
    {
        type            zeroGradient;
    }
    frontAndBack
    {
        type            empty;
    }
}


// ************************************************************************* //
