/*--------------------------------*- C++ -*----------------------------------*\
| =========                 |                                                 |
| \\      /  F ield         | OpenFOAM: The Open Source CFD Toolbox           |
|  \\    /   O peration     | Version:  2506                                  |
|   \\  /    A nd           | Website:  www.openfoam.com                      |
|    \\/     M anipulation  |                                                 |
\*---------------------------------------------------------------------------*/
FoamFile
{
    version     2.0;
    format      ascii;
    arch        "LSB;label=32;scalar=64";
    class       surfaceScalarField;
    location    "40";
    object      phi;
}
// * * * * * * * * * * * * * * * * * * * * * * * * * * * * * * * * * * * * * //

dimensions      [0 3 -1 0 0 0 0];

oriented        oriented;

internalField   nonuniform List<scalar> 
760
(
1.53319e-05
-1.53318e-05
2.87693e-05
-1.34374e-05
3.02678e-05
-1.49855e-06
1.7658e-05
1.26098e-05
-1.25448e-05
3.02028e-05
-6.66296e-05
5.40848e-05
-0.000147759
8.11298e-05
-0.000247398
9.96385e-05
-0.000345646
9.82478e-05
-0.000419403
7.37568e-05
-0.000451978
3.25754e-05
-0.000433673
-1.83044e-05
-0.000358723
-7.495e-05
-0.000238389
-0.000120335
-9.54858e-05
-0.000142903
3.27183e-05
-0.000128204
0.000107141
-7.44229e-05
0.000102207
4.93452e-06
4.57144e-05
5.64923e-05
4.57145e-05
1.20389e-05
-2.73707e-05
6.63402e-06
-8.03254e-06
-3.04258e-05
3.55612e-05
-0.000107985
9.01694e-05
-0.000230512
0.000152729
-0.00039013
0.000213703
-0.000562197
0.000253197
-0.000715725
0.000253166
-0.000828313
0.000210836
-0.000888923
0.000134367
-0.000892802
3.64542e-05
-0.000837631
-7.34752e-05
-0.000726512
-0.000186069
-0.000562668
-0.000284179
-0.000360359
-0.000345212
-0.000149846
-0.000338717
1.64056e-05
-0.000240674
8.472e-05
-6.33799e-05
5.20962e-05
8.9116e-05
9.78108e-05
-1.30828e-05
-1.4288e-05
-6.36258e-05
4.25105e-05
-0.000161963
0.000133899
-0.000312164
0.00024037
-0.000501944
0.000342509
-0.000701851
0.000413611
-0.000880653
0.000431999
-0.00102033
0.00039284
-0.00111561
0.000306121
-0.00116571
0.000184465
-0.00116558
3.63246e-05
-0.00112032
-0.000118732
-0.00102801
-0.00027838
-0.000883206
-0.000428985
-0.000683855
-0.000544563
-0.000438774
-0.000583799
-0.000187653
-0.000491794
-9.11923e-06
-0.000241914
2.92484e-05
5.07484e-05
0.000127059
-4.98452e-05
3.55573e-05
-0.000155038
0.000147703
-0.000309524
0.000288386
-0.000503818
0.000434664
-0.000712361
0.000551051
-0.00090472
0.00060597
-0.00106072
0.000588003
-0.00117599
0.000508103
-0.00125326
0.00038339
-0.00129601
0.000227222
-0.00130286
4.31694e-05
-0.00127943
-0.000142156
-0.001222
-0.000335816
-0.00112035
-0.000530632
-0.000961368
-0.000703546
-0.000732584
-0.000812583
-0.000437823
-0.000786556
-0.000137527
-0.00054221
1.1861e-05
-9.86394e-05
0.00013892
-8.54222e-05
0.000120979
-0.000233968
0.000296249
-0.00041922
0.000473637
-0.000622043
0.000637488
-0.000814703
0.000743711
-0.000975046
0.000766312
-0.00109528
0.000708234
-0.00117794
0.000590763
-0.0012292
0.00043465
-0.00125636
0.00025439
-0.00126848
5.52829e-05
-0.00126441
-0.000146228
-0.00124316
-0.000357065
-0.00119675
-0.000577042
-0.00110649
-0.000793799
-0.00094362
-0.000975456
-0.00067836
-0.00105182
-0.000320679
-0.000899891
-2.62213e-05
-0.000393097
0.000112699
-0.000107451
0.00022843
-0.00027543
0.000464228
-0.000462908
0.000661115
-0.000647018
0.000821598
-0.000805526
0.000902219
-0.000925275
0.000886061
-0.00100568
0.000788642
-0.00105317
0.00063825
-0.00107678
0.000458258
-0.00108658
0.00026419
-0.00109475
6.34585e-05
-0.00110027
-0.000140709
-0.00110458
-0.000352761
-0.00110464
-0.000576977
-0.00108495
-0.000813493
-0.00101267
-0.00104773
-0.000838512
-0.00122598
-0.000521252
-0.00121715
-0.00011531
-0.000799039
-2.61122e-06
-0.000109637
0.000338067
-0.00027262
0.000627211
-0.000440701
0.000829197
-0.000592863
0.000973759
-0.000713163
0.00102252
-0.000795223
0.000968121
-0.000842629
0.000836048
-0.000864011
0.000659631
-0.000869776
0.000464023
-0.000869797
0.000264211
-0.000872541
6.62018e-05
-0.000880031
-0.000133218
-0.000894211
-0.000338582
-0.000916129
-0.000555059
-0.000939879
-0.000789743
-0.000942037
-0.00104557
-0.000870575
-0.00129744
-0.000650098
-0.00143763
-0.000240825
-0.00120831
-0.000243436
-9.22657e-05
0.000430333
-0.000231849
0.000766794
-0.000369195
0.000966542
-0.000485992
0.00109056
-0.000572117
0.00110864
-0.000625725
0.00102173
-0.000652376
0.000862698
-0.000661132
0.000668388
-0.000661725
0.000464617
-0.000661661
0.000264148
-0.000664746
6.92869e-05
-0.000672788
-0.000125176
-0.000687942
-0.000323428
-0.000713236
-0.000529765
-0.000750207
-0.000752772
-0.000789381
-0.0010064
-0.000789393
-0.00129743
-0.000668505
-0.00155852
-0.000356361
-0.00152046
-0.000599797
-6.15378e-05
0.000491871
-0.000166581
0.000871838
-0.00026887
0.00106883
-0.000351914
0.0011736
-0.000410094
0.00116682
-0.0004443
0.00105594
-0.000460316
0.000878714
-0.000465997
0.000674069
-0.000468701
0.000467321
-0.000472974
0.00026842
-0.000479944
7.62577e-05
-0.000490332
-0.000114789
-0.00050519
-0.00030857
-0.000527436
-0.000507518
-0.000562559
-0.00071765
-0.000611657
-0.000957302
-0.000652364
-0.00125672
-0.000610284
-0.0016006
-0.000390564
-0.00174018
-0.00099036
-2.27891e-05
0.00051466
-8.80663e-05
0.000937115
-0.000154537
0.0011353
-0.000206891
0.00122595
-0.000242279
0.00120221
-0.000263061
0.00107672
-0.000274026
0.000889678
-0.000280529
0.000680572
-0.000287146
0.000473938
-0.000296176
0.00027745
-0.000307927
8.80081e-05
-0.000322403
-0.000100312
-0.000339677
-0.000291297
-0.000361054
-0.000486141
-0.00039177
-0.000686934
-0.000439968
-0.000909104
-0.000499902
-0.00119679
-0.000510793
-0.0015897
-0.000354781
-0.00189619
-0.00134514
1.62622e-05
0.000498397
-6.74131e-06
0.000960119
-3.96645e-05
0.00116822
-6.44255e-05
0.00125071
-7.95568e-05
0.00121734
-8.81409e-05
0.0010853
-9.41437e-05
0.000895681
-0.000100794
0.000687223
-0.000109797
0.00048294
-0.000121927
0.00028958
-0.000137404
0.000103485
-0.000156445
-8.12712e-05
-0.000178968
-0.000268774
-0.000204849
-0.00046026
-0.000237003
-0.00065478
-0.000284866
-0.000861241
-0.000354544
-0.00112711
-0.000401787
-0.00154246
-0.000302088
-0.00199589
-0.00164723
4.95051e-05
0.000448892
6.91378e-05
0.000940486
7.34381e-05
0.00116392
7.70496e-05
0.0012471
8.16614e-05
0.00121273
8.46883e-05
0.00108228
8.40925e-05
0.000896277
7.90169e-05
0.000692298
6.96392e-05
0.000492318
5.61782e-05
0.000303041
3.82031e-05
0.00012146
1.5088e-05
-5.81561e-05
-1.33925e-05
-0.000240293
-4.79174e-05
-0.000425735
-8.90675e-05
-0.00061363
-0.000141581
-0.000808727
-0.000220167
-0.00104852
-0.000295581
-0.00146705
-0.000246204
-0.00204526
-0.00189343
7.46261e-05
0.000374266
0.000133805
0.000881307
0.00017274
0.00112499
0.000205476
0.00121437
0.000232693
0.00118551
0.000251272
0.0010637
0.000260291
0.000887257
0.00026081
0.000691779
0.00025431
0.000498819
0.000241626
0.000315725
0.000222149
0.000140938
0.000194485
-3.04925e-05
0.000158521
-0.000204329
0.000113759
-0.000380973
5.96545e-05
-0.000559526
-9.17332e-06
-0.000739899
-9.6659e-05
-0.000961035
-0.000193029
-0.00137068
-0.00019305
-0.00204524
-0.00208648
8.58323e-05
0.000288434
0.000178755
0.000788385
0.000252247
0.0010515
0.000315854
0.00115076
0.000370265
0.0011311
0.000411062
0.0010229
0.000436554
0.000861765
0.000448123
0.00068021
0.000448166
0.000498776
0.000438327
0.000325564
0.000418495
0.000160769
0.000386004
1.99879e-06
0.000341999
-0.000160325
0.000284367
-0.00032334
0.000213026
-0.000488185
0.000129599
-0.000656472
2.47797e-05
-0.000856216
-9.75111e-05
-0.00124839
-0.000143524
-0.00199923
-0.00223001
7.94297e-05
0.000209004
0.000192795
0.00067502
0.000296044
0.000948247
0.00039261
0.0010542
0.0004797
0.00104401
0.000550641
0.000951959
0.000601434
0.000810973
0.000632355
0.00064929
0.000645591
0.000485539
0.000643116
0.000328039
0.000624968
0.000178917
0.000590507
3.64597e-05
0.000537156
-0.000106973
0.000465141
-0.000251326
0.000373668
-0.000396712
0.000265526
-0.00054833
0.000136322
-0.000727012
-1.69272e-05
-0.00109514
-9.24138e-05
-0.00192374
-0.00232242
5.68451e-05
0.000152159
0.000173462
0.000558403
0.000305964
0.000815745
0.000439912
0.000920248
0.000565581
0.000918344
0.000673081
0.000844459
0.000755812
0.000728242
0.000812481
0.00059262
0.000844396
0.000453625
0.000853371
0.000319064
0.000840152
0.000192136
0.000804576
7.20356e-05
0.000742336
-4.47331e-05
0.000655038
-0.000164027
0.000541362
-0.000283036
0.000405398
-0.000412366
0.000253826
-0.00057544
9.32138e-05
-0.000934526
-1.55955e-05
-0.00181493
-0.00233802
1.46937e-05
0.000137466
0.000102015
0.000471082
0.000248242
0.000669517
0.000418992
0.000749498
0.000589905
0.000747431
0.000742276
0.000692088
0.000865803
0.000604715
0.000957503
0.00050092
0.00101691
0.000394215
0.00104531
0.000290663
0.00104335
0.000194103
0.00101165
0.000103735
0.000946078
2.08351e-05
0.000848121
-6.60701e-05
0.00071724
-0.000152156
0.00055841
-0.000253536
0.000387407
-0.000404437
0.00022184
-0.000768959
6.44533e-05
-0.00165755
-0.00227356
-5.13377e-05
0.000188803
1.93568e-05
0.000400388
0.000173224
0.00051565
0.000377749
0.000544973
0.00059158
0.0005336
0.000786253
0.000497415
0.000948095
0.000442873
0.001073
0.000376019
0.00115921
0.000308004
0.00120847
0.000241401
0.00122125
0.000181322
0.00119961
0.000125378
0.00114563
7.48148e-05
0.00105688
2.26797e-05
0.000933723
-2.90001e-05
0.00078298
-0.000102792
0.000623227
-0.000244684
0.000443794
-0.000589527
0.000204781
-0.00141853
-0.00206878
-0.000417508
0.000606311
-0.000363965
0.000346846
-0.000125581
0.000277266
0.000152717
0.000266675
0.000425048
0.000261269
0.000676972
0.000245491
0.00089733
0.000222515
0.00108018
0.000193169
0.00122376
0.000164423
0.0013308
0.000134361
0.00140303
0.000109093
0.00144488
8.35253e-05
0.00145525
6.44472e-05
0.00143521
4.27152e-05
0.00138371
2.25038e-05
0.00130223
-2.13168e-05
0.00118993
-0.000132374
0.00101031
-0.000409911
0.000563407
-0.000971632
-0.00150538
0.000606311
0.000953156
0.00123042
0.0014971
0.00175837
0.00200386
0.00222637
0.00241954
0.00258396
0.00271833
0.00282742
0.00291094
0.00297539
0.00301811
0.00304061
0.00301929
0.00288692
0.00247701
0.00150538
)
;

boundaryField
{
    movingWall
    {
        type            calculated;
        value           uniform 0;
    }
    fixedWalls
    {
        type            calculated;
        value           uniform 0;
    }
    frontAndBack
    {
        type            empty;
    }
}


// ************************************************************************* //
