/*--------------------------------*- C++ -*----------------------------------*\
| =========                 |                                                 |
| \\      /  F ield         | OpenFOAM: The Open Source CFD Toolbox           |
|  \\    /   O peration     | Version:  2506                                  |
|   \\  /    A nd           | Website:  www.openfoam.com                      |
|    \\/     M anipulation  |                                                 |
\*---------------------------------------------------------------------------*/
FoamFile
{
    version     2.0;
    format      ascii;
    arch        "LSB;label=32;scalar=64";
    class       pointScalarField;
    location    "1.3";
    object      streamFunction;
}
// * * * * * * * * * * * * * * * * * * * * * * * * * * * * * * * * * * * * * //

dimensions      [0 3 -1 0 0 0 0];

internalField   nonuniform List<scalar> 
882
(
0
0
0
0
0
0
0
0
0
0
0
0
0
0
0
0
0
0
0
0
0
0
1.25258e-06
-2.86807e-06
-1.22553e-05
-2.50799e-05
-3.96449e-05
-5.45709e-05
-6.86656e-05
-8.0738e-05
-8.9552e-05
-9.39175e-05
-9.28299e-05
-8.5815e-05
-7.3183e-05
-5.6284e-05
-3.74154e-05
-1.95559e-05
-5.6904e-06
1.9545e-06
2.96933e-06
0
0
-3.0531e-06
-2.32747e-05
-5.90255e-05
-0.000105112
-0.000156385
-0.000208279
-0.000256626
-0.000297332
-0.000326332
-0.00033988
-0.000335117
-0.00031086
-0.000268436
-0.000212161
-0.00014916
-8.8473e-05
-3.91881e-05
-8.119e-06
2.83692e-06
0
0
-1.40913e-05
-6.35662e-05
-0.000142117
-0.000239611
-0.00034619
-0.000452916
-0.000551473
-0.000633731
-0.000691773
-0.000718475
-0.000708563
-0.000659987
-0.000575343
-0.000462712
-0.000335444
-0.000210614
-0.000105749
-3.4516e-05
-2.00201e-06
0
0
-3.14498e-05
-0.000122875
-0.000259812
-0.000425326
-0.000603737
-0.000780917
-0.000943678
-0.00107917
-0.00117495
-0.0012199
-0.00120573
-0.001129
-0.000993227
-0.000810282
-0.000600433
-0.000390385
-0.000208616
-7.86809e-05
-1.17528e-05
0
0
-5.44086e-05
-0.000199321
-0.00040883
-0.000657384
-0.000922516
-0.00118437
-0.00142451
-0.001625
-0.00176847
-0.00183917
-0.00182503
-0.00172019
-0.00152802
-0.00126339
-0.000953469
-0.000635952
-0.000353245
-0.000142992
-2.67355e-05
0
0
-8.20939e-05
-0.00029038
-0.000584725
-0.000929408
-0.00129443
-0.00165394
-0.00198416
-0.002262
-0.0024649
-0.00257194
-0.00256626
-0.00243807
-0.00218879
-0.00183452
-0.00140841
-0.000959913
-0.000548665
-0.00023199
-4.80397e-05
0
0
-0.00011345
-0.000392901
-0.000781876
-0.0012333
-0.00170917
-0.0021776
-0.00260969
-0.0029774
-0.00325296
-0.00340986
-0.00342533
-0.00328399
-0.00298274
-0.00253616
-0.00198107
-0.00137829
-0.000807577
-0.000352809
-7.77146e-05
0
0
-0.000147219
-0.00050311
-0.000993452
-0.00155902
-0.00215359
-0.00273947
-0.00328312
-0.00375204
-0.00411359
-0.00433559
-0.00438855
-0.00424969
-0.00390868
-0.0033748
-0.00268462
-0.00190774
-0.00114533
-0.000515153
-0.00011888
0
0
-0.000181994
-0.000616754
-0.00121159
-0.00189469
-0.00261158
-0.0033192
-0.00398011
-0.00455826
-0.00501692
-0.00531864
-0.00542706
-0.0053108
-0.00494969
-0.00434348
-0.00352287
-0.00256072
-0.00157754
-0.000730825
-0.000175844
0
0
-0.000216377
-0.000729519
-0.00142802
-0.0022272
-0.00306454
-0.00389226
-0.00467
-0.00535938
-0.00592093
-0.00631314
-0.00649352
-0.00642187
-0.00606665
-0.00541406
-0.00448226
-0.00333871
-0.00211598
-0.00101256
-0.000254241
0
0
-0.000249301
-0.000837823
-0.00163519
-0.00254367
-0.00349302
-0.00443158
-0.0053174
-0.00611137
-0.00677309
-0.00725899
-0.00752237
-0.00751521
-0.00719502
-0.00653163
-0.00552429
-0.00422414
-0.00276253
-0.00137165
-0.000361133
0
0
-0.000280561
-0.000940056
-0.00182809
-0.00283351
-0.00387904
-0.00491042
-0.00588565
-0.00676686
-0.00751498
-0.00808691
-0.00843448
-0.00850536
-0.00824701
-0.00761358
-0.00658101
-0.00517309
-0.00350168
-0.00181387
-0.000504827
0
0
-0.000311662
-0.00103837
-0.00200653
-0.00309112
-0.00420917
-0.00530578
-0.00634106
-0.00728055
-0.00808895
-0.00872647
-0.00914691
-0.00929729
-0.00911948
-0.00855487
-0.0075559
-0.00611114
-0.00429306
-0.00233334
-0.000693854
0
0
-0.000347246
-0.00114117
-0.00217784
-0.00331828
-0.00447679
-0.00560107
-0.00665616
-0.00761343
-0.00844376
-0.00911334
-0.00958119
-0.00979793
-0.00970537
-0.00923823
-0.00833041
-0.00693401
-0.00506597
-0.00290481
-0.000934099
0
0
-0.000397557
-0.00126627
-0.00235882
-0.00352466
-0.00468148
-0.00578481
-0.00680827
-0.00773174
-0.00853435
-0.00919038
-0.00966679
-0.00992146
-0.00990185
-0.00954388
-0.00877282
-0.00751181
-0.00571624
-0.00347466
-0.00122261
0
0
-0.000482367
-0.00144331
-0.00257315
-0.00372043
-0.00481827
-0.00583773
-0.00676547
-0.00759236
-0.00830739
-0.00889429
-0.00932959
-0.00958118
-0.00960678
-0.00935112
-0.0087431
-0.00769285
-0.00610389
-0.00395053
-0.00153715
0
0
-0.000634782
-0.00170573
-0.00282785
-0.00388183
-0.004837
-0.00568945
-0.00644285
-0.00710044
-0.00766128
-0.00811857
-0.0084588
-0.00866105
-0.00869623
-0.00852333
-0.00808612
-0.00730143
-0.00604592
-0.00418743
-0.00182246
0
0
-0.000893462
-0.00202796
-0.00301352
-0.00383707
-0.00452837
-0.00511188
-0.00560625
-0.00602407
-0.0063716
-0.00664913
-0.00685151
-0.00696838
-0.00698439
-0.00687491
-0.00660618
-0.00611995
-0.00530501
-0.00396118
-0.00194208
0
0
-0.00115681
-0.00203522
-0.0025908
-0.00299357
-0.00330239
-0.00354377
-0.00373567
-0.00388971
-0.00401216
-0.00410532
-0.0041686
-0.00419935
-0.0041933
-0.00413996
-0.0040298
-0.00383916
-0.0035082
-0.00286846
-0.00162366
0
0
0
0
0
0
0
0
0
0
0
0
0
0
0
0
0
0
0
0
0
0
0
0
0
0
0
0
0
0
0
0
0
0
0
0
0
0
0
0
0
0
0
0
1.25258e-06
-2.86807e-06
-1.22553e-05
-2.50799e-05
-3.96449e-05
-5.45709e-05
-6.86656e-05
-8.0738e-05
-8.9552e-05
-9.39175e-05
-9.28299e-05
-8.5815e-05
-7.3183e-05
-5.6284e-05
-3.74154e-05
-1.95559e-05
-5.6904e-06
1.9545e-06
2.96933e-06
0
0
-3.0531e-06
-2.32747e-05
-5.90255e-05
-0.000105112
-0.000156385
-0.000208279
-0.000256626
-0.000297332
-0.000326332
-0.00033988
-0.000335117
-0.00031086
-0.000268436
-0.000212161
-0.00014916
-8.8473e-05
-3.91881e-05
-8.119e-06
2.83692e-06
0
0
-1.40913e-05
-6.35662e-05
-0.000142117
-0.000239611
-0.00034619
-0.000452916
-0.000551473
-0.000633731
-0.000691773
-0.000718475
-0.000708563
-0.000659987
-0.000575343
-0.000462712
-0.000335444
-0.000210614
-0.000105749
-3.4516e-05
-2.00201e-06
0
0
-3.14498e-05
-0.000122875
-0.000259812
-0.000425326
-0.000603737
-0.000780917
-0.000943678
-0.00107917
-0.00117495
-0.0012199
-0.00120573
-0.001129
-0.000993227
-0.000810282
-0.000600433
-0.000390385
-0.000208616
-7.86809e-05
-1.17528e-05
0
0
-5.44086e-05
-0.000199321
-0.00040883
-0.000657384
-0.000922516
-0.00118437
-0.00142451
-0.001625
-0.00176847
-0.00183917
-0.00182503
-0.00172019
-0.00152802
-0.00126339
-0.000953469
-0.000635952
-0.000353245
-0.000142992
-2.67355e-05
0
0
-8.20939e-05
-0.00029038
-0.000584725
-0.000929408
-0.00129443
-0.00165394
-0.00198416
-0.002262
-0.0024649
-0.00257194
-0.00256626
-0.00243807
-0.00218879
-0.00183452
-0.00140841
-0.000959913
-0.000548665
-0.00023199
-4.80397e-05
0
0
-0.00011345
-0.000392901
-0.000781876
-0.0012333
-0.00170917
-0.0021776
-0.00260969
-0.0029774
-0.00325296
-0.00340986
-0.00342533
-0.00328399
-0.00298274
-0.00253616
-0.00198107
-0.00137829
-0.000807577
-0.000352809
-7.77146e-05
0
0
-0.000147219
-0.00050311
-0.000993452
-0.00155902
-0.00215359
-0.00273947
-0.00328312
-0.00375204
-0.00411359
-0.00433559
-0.00438855
-0.00424969
-0.00390868
-0.0033748
-0.00268462
-0.00190774
-0.00114533
-0.000515153
-0.00011888
0
0
-0.000181994
-0.000616754
-0.00121159
-0.00189469
-0.00261158
-0.0033192
-0.00398011
-0.00455826
-0.00501692
-0.00531864
-0.00542706
-0.0053108
-0.00494969
-0.00434348
-0.00352287
-0.00256072
-0.00157754
-0.000730825
-0.000175844
0
0
-0.000216377
-0.000729519
-0.00142802
-0.0022272
-0.00306454
-0.00389226
-0.00467
-0.00535938
-0.00592093
-0.00631314
-0.00649352
-0.00642187
-0.00606665
-0.00541406
-0.00448226
-0.00333871
-0.00211598
-0.00101256
-0.000254241
0
0
-0.000249301
-0.000837823
-0.00163519
-0.00254367
-0.00349302
-0.00443158
-0.0053174
-0.00611137
-0.00677309
-0.00725899
-0.00752237
-0.00751521
-0.00719502
-0.00653163
-0.00552429
-0.00422414
-0.00276253
-0.00137165
-0.000361133
0
0
-0.000280561
-0.000940056
-0.00182809
-0.00283351
-0.00387904
-0.00491042
-0.00588565
-0.00676686
-0.00751498
-0.00808691
-0.00843448
-0.00850536
-0.00824701
-0.00761358
-0.00658101
-0.00517309
-0.00350168
-0.00181387
-0.000504827
0
0
-0.000311662
-0.00103837
-0.00200653
-0.00309112
-0.00420917
-0.00530578
-0.00634106
-0.00728055
-0.00808895
-0.00872647
-0.00914691
-0.00929729
-0.00911948
-0.00855487
-0.0075559
-0.00611114
-0.00429306
-0.00233334
-0.000693854
0
0
-0.000347246
-0.00114117
-0.00217784
-0.00331828
-0.00447679
-0.00560107
-0.00665616
-0.00761343
-0.00844376
-0.00911334
-0.00958119
-0.00979793
-0.00970537
-0.00923823
-0.00833041
-0.00693401
-0.00506597
-0.00290481
-0.000934099
0
0
-0.000397557
-0.00126627
-0.00235882
-0.00352466
-0.00468148
-0.00578481
-0.00680827
-0.00773174
-0.00853435
-0.00919038
-0.00966679
-0.00992146
-0.00990185
-0.00954388
-0.00877282
-0.00751181
-0.00571624
-0.00347466
-0.00122261
0
0
-0.000482367
-0.00144331
-0.00257315
-0.00372043
-0.00481827
-0.00583773
-0.00676547
-0.00759236
-0.00830739
-0.00889429
-0.00932959
-0.00958118
-0.00960678
-0.00935112
-0.0087431
-0.00769285
-0.00610389
-0.00395053
-0.00153715
0
0
-0.000634782
-0.00170573
-0.00282785
-0.00388183
-0.004837
-0.00568945
-0.00644285
-0.00710044
-0.00766128
-0.00811857
-0.0084588
-0.00866105
-0.00869623
-0.00852333
-0.00808612
-0.00730143
-0.00604592
-0.00418743
-0.00182246
0
0
-0.000893462
-0.00202796
-0.00301352
-0.00383707
-0.00452837
-0.00511188
-0.00560625
-0.00602407
-0.0063716
-0.00664913
-0.00685151
-0.00696838
-0.00698439
-0.00687491
-0.00660618
-0.00611995
-0.00530501
-0.00396118
-0.00194208
0
0
-0.00115681
-0.00203522
-0.0025908
-0.00299357
-0.00330239
-0.00354377
-0.00373567
-0.00388971
-0.00401216
-0.00410532
-0.0041686
-0.00419935
-0.0041933
-0.00413996
-0.0040298
-0.00383916
-0.0035082
-0.00286846
-0.00162366
0
0
0
0
0
0
0
0
0
0
0
0
0
0
0
0
0
0
0
0
0
0
)
;

boundaryField
{
    movingWall
    {
        type            calculated;
    }
    fixedWalls
    {
        type            calculated;
    }
    frontAndBack
    {
        type            empty;
    }
}


// ************************************************************************* //
