/*--------------------------------*- C++ -*----------------------------------*\
| =========                 |                                                 |
| \\      /  F ield         | OpenFOAM: The Open Source CFD Toolbox           |
|  \\    /   O peration     | Version:  2506                                  |
|   \\  /    A nd           | Website:  www.openfoam.com                      |
|    \\/     M anipulation  |                                                 |
\*---------------------------------------------------------------------------*/
FoamFile
{
    version     2.0;
    format      ascii;
    arch        "LSB;label=32;scalar=64";
    class       volScalarField;
    location    "500";
    object      nuTilda;
}
// * * * * * * * * * * * * * * * * * * * * * * * * * * * * * * * * * * * * * //

dimensions      [0 2 -1 0 0 0 0];

internalField   nonuniform List<scalar> 
1340
(
6.29092e-05
6.61137e-05
7.02153e-05
7.53178e-05
8.16866e-05
8.97462e-05
0.000100161
0.000113483
0.000130973
0.000154081
0.00018512
0.000227459
0.000285633
0.000367523
0.000486575
0.000664671
0.000946283
0.00139545
0.00221745
0.00358935
0.00690158
0.0127123
0.0339144
0.0760475
0.0937333
0.0946591
0.0957039
0.0992413
0.102758
0.104491
0.104463
0.103211
0.100843
0.0974125
0.0927939
6.00005e-05
5.73604e-05
5.46052e-05
5.19066e-05
4.91579e-05
4.63757e-05
4.36718e-05
3.8071e-05
3.78508e-05
3.76496e-05
3.74809e-05
3.72852e-05
3.71033e-05
3.69672e-05
3.68471e-05
3.67951e-05
3.68408e-05
3.69025e-05
3.75059e-05
3.96453e-05
4.42921e-05
5.39069e-05
7.20406e-05
0.000107832
0.000173851
0.000318539
0.000588863
0.00132127
0.00282979
0.00711222
0.0204722
0.0394353
0.0632005
0.09248
0.123672
0.148728
0.162685
0.16797
0.168786
0.167199
0.163849
0.159339
3.8244e-05
3.84755e-05
3.86703e-05
3.89311e-05
3.91945e-05
3.9457e-05
4.03655e-05
4.03971e-05
4.04297e-05
4.04648e-05
4.05077e-05
4.05556e-05
4.06102e-05
4.06739e-05
4.07487e-05
4.0836e-05
4.09392e-05
4.10655e-05
4.12033e-05
4.1452e-05
4.14749e-05
4.07256e-05
3.73454e-05
3.43788e-05
4.62379e-06
4.37601e-05
2.20014e-05
5.68805e-05
2.64292e-05
0.000558957
0.00298292
0.00754872
0.0156843
0.0310417
0.0573706
0.0937917
0.1328
0.164497
0.184905
0.196744
0.20344
4.03413e-05
4.03065e-05
4.02799e-05
4.02404e-05
4.02063e-05
4.01696e-05
4.00344e-05
4.00299e-05
4.00288e-05
4.00295e-05
4.00312e-05
4.00361e-05
4.00452e-05
4.00577e-05
4.00763e-05
4.01015e-05
4.01347e-05
4.01781e-05
4.02342e-05
4.03056e-05
4.03998e-05
4.04978e-05
4.0281e-05
3.96774e-05
3.5891e-05
2.96867e-05
1.31484e-05
1.60638e-05
5.32401e-06
0.000114743
0.000624533
2.88258e-05
0.000226741
0.000843274
0.00415736
0.0136719
0.0356798
0.0727803
0.118812
0.161313
0.193208
4.00356e-05
4.004e-05
4.00458e-05
4.00498e-05
4.00569e-05
4.00808e-05
4.00819e-05
4.00824e-05
4.0084e-05
4.00869e-05
4.00905e-05
4.00955e-05
4.01021e-05
4.01108e-05
4.01222e-05
4.01371e-05
4.01566e-05
4.01822e-05
4.02149e-05
4.02596e-05
4.03109e-05
4.039e-05
4.04129e-05
4.05332e-05
3.97894e-05
3.79081e-05
2.56136e-05
8.50959e-06
3.57461e-06
0
6.07288e-06
4.85415e-05
0.000183239
0.000934348
0.000549471
0.00167425
0.00804139
0.0295863
0.0706932
0.124102
4.00809e-05
4.00784e-05
4.00797e-05
4.00777e-05
4.00793e-05
4.00695e-05
4.00691e-05
4.00696e-05
4.00701e-05
4.00703e-05
4.0071e-05
4.00721e-05
4.00736e-05
4.00758e-05
4.0079e-05
4.00833e-05
4.00892e-05
4.00973e-05
4.01082e-05
4.01233e-05
4.01432e-05
4.01703e-05
4.01996e-05
4.02541e-05
4.04332e-05
4.12786e-05
4.01203e-05
3.6964e-05
1.84391e-05
7.60572e-06
5.16407e-06
2.36391e-06
0
0
0.00012179
0.000375674
0.0018357
0.000392116
0.00873893
0.0380627
4.00686e-05
4.00673e-05
4.0069e-05
4.00686e-05
4.00699e-05
4.00703e-05
4.00706e-05
4.00707e-05
4.00709e-05
4.00711e-05
4.00714e-05
4.00721e-05
4.0073e-05
4.00743e-05
4.00762e-05
4.00789e-05
4.00827e-05
4.0088e-05
4.00953e-05
4.01057e-05
4.01193e-05
4.01348e-05
4.01507e-05
4.01442e-05
4.03068e-05
4.07915e-05
4.16535e-05
3.98414e-05
3.40322e-05
2.59824e-05
1.17043e-05
7.31017e-06
5.70462e-06
1.69731e-06
0
0
8.94222e-05
0.00205371
0.00167158
4.00691e-05
4.00671e-05
4.00678e-05
4.00672e-05
4.00691e-05
4.00694e-05
4.00699e-05
4.00699e-05
4.00696e-05
4.00693e-05
4.0069e-05
4.00687e-05
4.00686e-05
4.00687e-05
4.00688e-05
4.00692e-05
4.00699e-05
4.0071e-05
4.00727e-05
4.00752e-05
4.00789e-05
4.00834e-05
4.00895e-05
4.00883e-05
4.00744e-05
4.01589e-05
4.04765e-05
4.12437e-05
4.13709e-05
4.04609e-05
3.79292e-05
3.34539e-05
2.7646e-05
8.1163e-06
7.10059e-06
1.49014e-06
0
0
0.000386707
4.0068e-05
4.00659e-05
4.00659e-05
4.00652e-05
4.0069e-05
4.00693e-05
4.00695e-05
4.00692e-05
4.00688e-05
4.00683e-05
4.00679e-05
4.00677e-05
4.00674e-05
4.00673e-05
4.00674e-05
4.00676e-05
4.0068e-05
4.00687e-05
4.00699e-05
4.00716e-05
4.00743e-05
4.00777e-05
4.00813e-05
4.00854e-05
4.00826e-05
4.00736e-05
4.00831e-05
4.02657e-05
4.06282e-05
4.10442e-05
4.15289e-05
4.1508e-05
4.12296e-05
3.75453e-05
3.23836e-05
7.00088e-06
5.76474e-06
0
0
4.00679e-05
4.00656e-05
4.0065e-05
4.00678e-05
4.00673e-05
4.00667e-05
4.00663e-05
4.00659e-05
4.00656e-05
4.00653e-05
4.00651e-05
4.00649e-05
4.00648e-05
4.00648e-05
4.00648e-05
4.00649e-05
4.00651e-05
4.00654e-05
4.00669e-05
4.0069e-05
4.0068e-05
4.00631e-05
4.00634e-05
4.01068e-05
4.02064e-05
4.04152e-05
4.0775e-05
4.13339e-05
4.1965e-05
4.24325e-05
3.81896e-05
2.59074e-05
7.9001e-06
0
4.00657e-05
4.00653e-05
4.0065e-05
4.00647e-05
4.00646e-05
4.00644e-05
4.00644e-05
4.00645e-05
4.00647e-05
4.0065e-05
4.00656e-05
4.00666e-05
4.00676e-05
4.00687e-05
4.00699e-05
4.00705e-05
4.00704e-05
4.00687e-05
4.0065e-05
4.00593e-05
4.00566e-05
4.00973e-05
4.02256e-05
4.06343e-05
4.13484e-05
4.26513e-05
4.19588e-05
3.30592e-05
8.6818e-06
4.00641e-05
4.00638e-05
4.00636e-05
4.00635e-05
4.00633e-05
4.00633e-05
4.00633e-05
4.00634e-05
4.00635e-05
4.00637e-05
4.00642e-05
4.00649e-05
4.00661e-05
4.00675e-05
4.00688e-05
4.00705e-05
4.00728e-05
4.00733e-05
4.00639e-05
4.00431e-05
4.0013e-05
4.00376e-05
4.01474e-05
4.0755e-05
4.19935e-05
4.29588e-05
3.56774e-05
4.00632e-05
4.00631e-05
4.0063e-05
4.00629e-05
4.00629e-05
4.0063e-05
4.00631e-05
4.00633e-05
4.00636e-05
4.00641e-05
4.00646e-05
4.00654e-05
4.00664e-05
4.00675e-05
4.00687e-05
4.00709e-05
4.00748e-05
4.00782e-05
4.0076e-05
4.00602e-05
4.00305e-05
3.99858e-05
3.99888e-05
4.03222e-05
4.13087e-05
4.41109e-05
4.00626e-05
4.00626e-05
4.00626e-05
4.00626e-05
4.00626e-05
4.00627e-05
4.00628e-05
4.0063e-05
4.00633e-05
4.00637e-05
4.00643e-05
4.00651e-05
4.00661e-05
4.00672e-05
4.00687e-05
4.00711e-05
4.0075e-05
4.00798e-05
4.00825e-05
4.00769e-05
4.0058e-05
4.00025e-05
3.99618e-05
4.00237e-05
4.11132e-05
4.00624e-05
4.00624e-05
4.00625e-05
4.00625e-05
4.00626e-05
4.00627e-05
4.00628e-05
4.0063e-05
4.00632e-05
4.00635e-05
4.0064e-05
4.00646e-05
4.00653e-05
4.00663e-05
4.00675e-05
4.0069e-05
4.00714e-05
4.00749e-05
4.00797e-05
4.00843e-05
4.00863e-05
4.00799e-05
4.00199e-05
4.00729e-05
3.91921e-05
4.00624e-05
4.00625e-05
4.00626e-05
4.00627e-05
4.00628e-05
4.00629e-05
4.0063e-05
4.00632e-05
4.00634e-05
4.00638e-05
4.00642e-05
4.00648e-05
4.00656e-05
4.00666e-05
4.00679e-05
4.00696e-05
4.00719e-05
4.0075e-05
4.00795e-05
4.00834e-05
4.00958e-05
4.0064e-05
4.01816e-05
3.95264e-05
4.00626e-05
4.00627e-05
4.00628e-05
4.00629e-05
4.0063e-05
4.00631e-05
4.00633e-05
4.00635e-05
4.00638e-05
4.00642e-05
4.00646e-05
4.00653e-05
4.00661e-05
4.00672e-05
4.00687e-05
4.00705e-05
4.00727e-05
4.00758e-05
4.00785e-05
4.00872e-05
4.00834e-05
4.01057e-05
4.02291e-05
4.00627e-05
4.00629e-05
4.0063e-05
4.00631e-05
4.00632e-05
4.00633e-05
4.00635e-05
4.00636e-05
4.00639e-05
4.00642e-05
4.00646e-05
4.00651e-05
4.00658e-05
4.00667e-05
4.0068e-05
4.00695e-05
4.00714e-05
4.00738e-05
4.00766e-05
4.00785e-05
4.00945e-05
4.00292e-05
4.04483e-05
4.0063e-05
4.00632e-05
4.00633e-05
4.00634e-05
4.00635e-05
4.00636e-05
4.00638e-05
4.0064e-05
4.00642e-05
4.00646e-05
4.0065e-05
4.00656e-05
4.00664e-05
4.00674e-05
4.00688e-05
4.00705e-05
4.00724e-05
4.00755e-05
4.00747e-05
4.00946e-05
4.0025e-05
4.03257e-05
4.00632e-05
4.00633e-05
4.00635e-05
4.00636e-05
4.00637e-05
4.00638e-05
4.0064e-05
4.00641e-05
4.00644e-05
4.00646e-05
4.0065e-05
4.00655e-05
4.00661e-05
4.00671e-05
4.00682e-05
4.00698e-05
4.00714e-05
4.00742e-05
4.0074e-05
4.00872e-05
4.0055e-05
4.01566e-05
4.00635e-05
4.00637e-05
4.00638e-05
4.00639e-05
4.00641e-05
4.00642e-05
4.00644e-05
4.00646e-05
4.00648e-05
4.00651e-05
4.00655e-05
4.00661e-05
4.00669e-05
4.00679e-05
4.00692e-05
4.00706e-05
4.00728e-05
4.00741e-05
4.00794e-05
4.00786e-05
4.00674e-05
4.00637e-05
4.00639e-05
4.0064e-05
4.00642e-05
4.00643e-05
4.00644e-05
4.00646e-05
4.00648e-05
4.0065e-05
4.00653e-05
4.00656e-05
4.00661e-05
4.00668e-05
4.00677e-05
4.00688e-05
4.00701e-05
4.00718e-05
4.00739e-05
4.00751e-05
4.00858e-05
4.00496e-05
4.00641e-05
4.00642e-05
4.00644e-05
4.00646e-05
4.00647e-05
4.00649e-05
4.00651e-05
4.00653e-05
4.00655e-05
4.00658e-05
4.00662e-05
4.00668e-05
4.00676e-05
4.00686e-05
4.00698e-05
4.00712e-05
4.00734e-05
4.00737e-05
4.00835e-05
4.00606e-05
4.00643e-05
4.00645e-05
4.00646e-05
4.00648e-05
4.0065e-05
4.00651e-05
4.00653e-05
4.00655e-05
4.00657e-05
4.0066e-05
4.00664e-05
4.00669e-05
4.00676e-05
4.00684e-05
4.00695e-05
4.00708e-05
4.00727e-05
4.00736e-05
4.00793e-05
4.00728e-05
4.00645e-05
4.00647e-05
4.00649e-05
4.00651e-05
4.00652e-05
4.00654e-05
4.00656e-05
4.00658e-05
4.0066e-05
4.00663e-05
4.00666e-05
4.00671e-05
4.00677e-05
4.00684e-05
4.00694e-05
4.00705e-05
4.00721e-05
4.00735e-05
4.00763e-05
4.00783e-05
4.00649e-05
4.00651e-05
4.00653e-05
4.00655e-05
4.00657e-05
4.00659e-05
4.00661e-05
4.00663e-05
4.00666e-05
4.00669e-05
4.00673e-05
4.00678e-05
4.00685e-05
4.00693e-05
4.00704e-05
4.00717e-05
4.00733e-05
4.0075e-05
4.00789e-05
4.00651e-05
4.00654e-05
4.00656e-05
4.00658e-05
4.0066e-05
4.00662e-05
4.00664e-05
4.00667e-05
4.00669e-05
4.00672e-05
4.00676e-05
4.0068e-05
4.00686e-05
4.00694e-05
4.00703e-05
4.00715e-05
4.0073e-05
4.00744e-05
4.00778e-05
4.00654e-05
4.00656e-05
4.00658e-05
4.00661e-05
4.00663e-05
4.00665e-05
4.00667e-05
4.0067e-05
4.00672e-05
4.00675e-05
4.00678e-05
4.00683e-05
4.00688e-05
4.00695e-05
4.00704e-05
4.00714e-05
4.00728e-05
4.00742e-05
4.00767e-05
4.00658e-05
4.00661e-05
4.00663e-05
4.00666e-05
4.00668e-05
4.00671e-05
4.00673e-05
4.00675e-05
4.00678e-05
4.00681e-05
4.00685e-05
4.00691e-05
4.00697e-05
4.00705e-05
4.00714e-05
4.00726e-05
4.00741e-05
4.0076e-05
4.00661e-05
4.00663e-05
4.00666e-05
4.00669e-05
4.00671e-05
4.00674e-05
4.00676e-05
4.00679e-05
4.00682e-05
4.00685e-05
4.00689e-05
4.00693e-05
4.00699e-05
4.00706e-05
4.00715e-05
4.00726e-05
4.0074e-05
4.00757e-05
4.00663e-05
4.00666e-05
4.00669e-05
4.00672e-05
4.00674e-05
4.00677e-05
4.0068e-05
4.00682e-05
4.00685e-05
4.00688e-05
4.00692e-05
4.00696e-05
4.00702e-05
4.00708e-05
4.00716e-05
4.00727e-05
4.00739e-05
4.00755e-05
4.00668e-05
4.00671e-05
4.00674e-05
4.00677e-05
4.0068e-05
4.00683e-05
4.00686e-05
4.00689e-05
4.00692e-05
4.00695e-05
4.007e-05
4.00705e-05
4.00711e-05
4.00718e-05
4.00728e-05
4.00739e-05
4.00754e-05
4.00671e-05
4.00674e-05
4.00677e-05
4.0068e-05
4.00683e-05
4.00686e-05
4.00689e-05
4.00692e-05
4.00695e-05
4.00699e-05
4.00703e-05
4.00708e-05
4.00714e-05
4.00721e-05
4.0073e-05
4.0074e-05
4.00754e-05
4.00673e-05
4.00677e-05
4.0068e-05
4.00683e-05
4.00687e-05
4.0069e-05
4.00693e-05
4.00696e-05
4.00699e-05
4.00703e-05
4.00707e-05
4.00711e-05
4.00717e-05
4.00724e-05
4.00732e-05
4.00742e-05
4.00679e-05
4.00683e-05
4.00686e-05
4.0069e-05
4.00693e-05
4.00696e-05
4.007e-05
4.00703e-05
4.00706e-05
4.0071e-05
4.00715e-05
4.0072e-05
4.00727e-05
4.00734e-05
4.00744e-05
4.00682e-05
4.00686e-05
4.00689e-05
4.00693e-05
4.00697e-05
4.007e-05
4.00703e-05
4.00707e-05
4.0071e-05
4.00714e-05
4.00719e-05
4.00724e-05
4.0073e-05
4.00737e-05
4.00746e-05
4.00684e-05
4.00688e-05
4.00692e-05
4.00696e-05
4.007e-05
4.00703e-05
4.00707e-05
4.0071e-05
4.00714e-05
4.00718e-05
4.00723e-05
4.00728e-05
4.00734e-05
4.00741e-05
4.00749e-05
4.00686e-05
4.00691e-05
4.00695e-05
4.00699e-05
4.00703e-05
4.00707e-05
4.0071e-05
4.00714e-05
4.00718e-05
4.00722e-05
4.00727e-05
4.00732e-05
4.00738e-05
4.00744e-05
4.00752e-05
4.00689e-05
4.00693e-05
4.00698e-05
4.00702e-05
4.00706e-05
4.0071e-05
4.00714e-05
4.00718e-05
4.00722e-05
4.00726e-05
4.00731e-05
4.00736e-05
4.00742e-05
4.00748e-05
4.00756e-05
4.00695e-05
4.007e-05
4.00705e-05
4.00709e-05
4.00713e-05
4.00717e-05
4.00721e-05
4.00726e-05
4.0073e-05
4.00735e-05
4.0074e-05
4.00746e-05
4.00752e-05
4.0076e-05
4.00697e-05
4.00702e-05
4.00707e-05
4.00712e-05
4.00716e-05
4.0072e-05
4.00725e-05
4.00729e-05
4.00734e-05
4.00739e-05
4.00744e-05
4.0075e-05
4.00756e-05
4.00764e-05
4.00699e-05
4.00704e-05
4.00709e-05
4.00714e-05
4.00719e-05
4.00723e-05
4.00728e-05
4.00732e-05
4.00737e-05
4.00742e-05
4.00748e-05
4.00754e-05
4.0076e-05
4.00767e-05
4.007e-05
4.00705e-05
4.00711e-05
4.00716e-05
4.00721e-05
4.00725e-05
4.0073e-05
4.00735e-05
4.0074e-05
4.00745e-05
4.00751e-05
4.00757e-05
4.00764e-05
4.00771e-05
4.00701e-05
4.00706e-05
4.00712e-05
4.00717e-05
4.00722e-05
4.00727e-05
4.00732e-05
4.00737e-05
4.00743e-05
4.00748e-05
4.00754e-05
4.00761e-05
4.00767e-05
4.00775e-05
4.00707e-05
4.00712e-05
4.00718e-05
4.00723e-05
4.00729e-05
4.00734e-05
4.00739e-05
4.00745e-05
4.00751e-05
4.00757e-05
4.00763e-05
4.0077e-05
4.00778e-05
4.00706e-05
4.00712e-05
4.00718e-05
4.00724e-05
4.00729e-05
4.00735e-05
4.0074e-05
4.00746e-05
4.00752e-05
4.00759e-05
4.00766e-05
4.00773e-05
4.00705e-05
4.00711e-05
4.00717e-05
4.00723e-05
4.00729e-05
4.00735e-05
4.00741e-05
4.00747e-05
4.00754e-05
4.0076e-05
4.00767e-05
4.00775e-05
4.00703e-05
4.00709e-05
4.00716e-05
4.00722e-05
4.00728e-05
4.00734e-05
4.0074e-05
4.00747e-05
4.00754e-05
4.00761e-05
4.00768e-05
4.00776e-05
4.007e-05
4.00707e-05
4.00713e-05
4.0072e-05
4.00726e-05
4.00732e-05
4.00739e-05
4.00746e-05
4.00753e-05
4.0076e-05
4.00768e-05
4.00776e-05
4.00703e-05
4.0071e-05
4.00716e-05
4.00723e-05
4.00729e-05
4.00736e-05
4.00744e-05
4.00751e-05
4.00759e-05
4.00767e-05
4.00776e-05
4.00697e-05
4.00704e-05
4.00711e-05
4.00718e-05
4.00725e-05
4.00733e-05
4.0074e-05
4.00748e-05
4.00756e-05
4.00765e-05
4.00774e-05
4.0069e-05
4.00698e-05
4.00705e-05
4.00712e-05
4.0072e-05
4.00727e-05
4.00735e-05
4.00743e-05
4.00752e-05
4.00761e-05
4.0077e-05
4.00682e-05
4.0069e-05
4.00697e-05
4.00705e-05
4.00712e-05
4.0072e-05
4.00728e-05
4.00737e-05
4.00746e-05
4.00755e-05
4.00765e-05
4.00672e-05
4.0068e-05
4.00688e-05
4.00695e-05
4.00703e-05
4.00712e-05
4.0072e-05
4.00729e-05
4.00738e-05
4.00748e-05
4.00758e-05
4.0066e-05
4.00668e-05
4.00676e-05
4.00684e-05
4.00692e-05
4.00701e-05
4.0071e-05
4.00719e-05
4.00729e-05
4.00739e-05
4.00646e-05
4.00654e-05
4.00663e-05
4.00671e-05
4.00679e-05
4.00688e-05
4.00698e-05
4.00707e-05
4.00717e-05
4.00728e-05
4.00639e-05
4.00647e-05
4.00656e-05
4.00665e-05
4.00674e-05
4.00683e-05
4.00693e-05
4.00704e-05
4.00715e-05
4.00621e-05
4.0063e-05
4.00639e-05
4.00648e-05
4.00657e-05
4.00667e-05
4.00677e-05
4.00688e-05
4.00699e-05
4.00601e-05
4.0061e-05
4.00619e-05
4.00628e-05
4.00638e-05
4.00648e-05
4.00659e-05
4.0067e-05
4.00682e-05
4.00577e-05
4.00586e-05
4.00596e-05
4.00605e-05
4.00615e-05
4.00626e-05
4.00637e-05
4.00649e-05
4.00661e-05
4.00548e-05
4.00557e-05
4.00566e-05
4.00577e-05
4.00587e-05
4.00598e-05
4.0061e-05
4.00622e-05
4.00635e-05
4.00512e-05
4.00521e-05
4.0053e-05
4.00541e-05
4.00552e-05
4.00563e-05
4.00576e-05
4.00589e-05
4.0047e-05
4.00479e-05
4.00488e-05
4.00498e-05
4.00509e-05
4.00521e-05
4.00534e-05
4.00547e-05
4.00426e-05
4.00434e-05
4.00443e-05
4.00453e-05
4.00464e-05
4.00475e-05
4.00487e-05
4.005e-05
4.00389e-05
4.00398e-05
4.00407e-05
4.00417e-05
4.00428e-05
4.0044e-05
4.00452e-05
4.00343e-05
4.00351e-05
4.0036e-05
4.0037e-05
4.0038e-05
4.00391e-05
4.00403e-05
4.00294e-05
4.00302e-05
4.00311e-05
4.00321e-05
4.00331e-05
4.00342e-05
4.00354e-05
4.00248e-05
4.00255e-05
4.00264e-05
4.00274e-05
4.00284e-05
4.00296e-05
4.00308e-05
4.00205e-05
4.00212e-05
4.0022e-05
4.00228e-05
4.00238e-05
4.00249e-05
4.00161e-05
4.00168e-05
4.00175e-05
4.00182e-05
4.00191e-05
4.00201e-05
4.00118e-05
4.00123e-05
4.00129e-05
4.00136e-05
4.00144e-05
4.00151e-05
4.00078e-05
4.00082e-05
4.00086e-05
4.00091e-05
4.00097e-05
4.00103e-05
4.00055e-05
4.00056e-05
4.00057e-05
4.00058e-05
4.0006e-05
4.00063e-05
4.00082e-05
4.00081e-05
4.00079e-05
4.00077e-05
4.00074e-05
4.00072e-05
4.00132e-05
4.00131e-05
4.00129e-05
4.00127e-05
4.00125e-05
4.00189e-05
4.0019e-05
4.00189e-05
4.00186e-05
4.00186e-05
4.00249e-05
4.00252e-05
4.00255e-05
4.00257e-05
4.00259e-05
4.00312e-05
4.00317e-05
4.00318e-05
4.00315e-05
4.00358e-05
4.00373e-05
4.00392e-05
4.00412e-05
4.0057e-05
4.0058e-05
4.00591e-05
4.00596e-05
)
;

boundaryField
{
    inlet
    {
        type            freestream;
        freestreamValue uniform 4e-05;
        value           nonuniform List<scalar> 4(4.0057e-05 4.0058e-05 4.00591e-05 4.00596e-05);
    }
    outlet
    {
        type            freestream;
        freestreamValue nonuniform List<scalar> 0();
        value           nonuniform List<scalar> 0();
    }
    walls
    {
        type            fixedValue;
        value           uniform 0;
    }
    frontAndBack
    {
        type            empty;
    }
    procBoundary5to0
    {
        type            processor;
        value           nonuniform List<scalar> 4(4.00689e-05 4.00679e-05 4.00656e-05 4.00644e-05);
    }
    procBoundary5to1
    {
        type            processor;
        value           nonuniform List<scalar> 
13
(
4.15912e-05
3.97066e-05
3.97066e-05
4.01369e-05
4.00606e-05
4.00606e-05
4.00771e-05
4.00718e-05
4.00718e-05
4.00703e-05
4.00682e-05
4.00639e-05
4.00639e-05
)
;
    }
    procBoundary5to4
    {
        type            processor;
        value           nonuniform List<scalar> 
95
(
4.00689e-05
4.00689e-05
4.00684e-05
4.00684e-05
4.00669e-05
4.00662e-05
4.00662e-05
4.00648e-05
4.00644e-05
4.00644e-05
4.00634e-05
4.00634e-05
4.00627e-05
4.00627e-05
4.00624e-05
4.00623e-05
4.00623e-05
4.00625e-05
4.00625e-05
4.00626e-05
4.00629e-05
4.00629e-05
4.0063e-05
4.00634e-05
4.00634e-05
4.00635e-05
4.00639e-05
4.00639e-05
4.00641e-05
4.00643e-05
4.00647e-05
4.00647e-05
4.00649e-05
4.00651e-05
4.00656e-05
4.00656e-05
4.00658e-05
4.0066e-05
4.00665e-05
4.00665e-05
4.00668e-05
4.0067e-05
4.00676e-05
4.00676e-05
4.00678e-05
4.0068e-05
4.00682e-05
4.00684e-05
4.00691e-05
4.00691e-05
4.00692e-05
4.00693e-05
4.00694e-05
4.00695e-05
4.00701e-05
4.00701e-05
4.007e-05
4.00698e-05
4.00696e-05
4.00693e-05
4.00695e-05
4.00695e-05
4.0069e-05
4.00683e-05
4.00674e-05
4.00664e-05
4.00651e-05
4.00637e-05
4.0063e-05
4.0063e-05
4.00612e-05
4.00592e-05
4.00568e-05
4.00538e-05
4.00502e-05
4.00461e-05
4.00418e-05
4.00381e-05
4.00381e-05
4.00336e-05
4.00287e-05
4.0024e-05
4.00198e-05
4.00156e-05
4.00114e-05
4.00075e-05
4.00055e-05
4.00083e-05
4.00132e-05
4.00132e-05
4.00188e-05
4.00245e-05
4.00309e-05
4.00342e-05
4.00557e-05
)
;
    }
    procBoundary5to6
    {
        type            processor;
        value           nonuniform List<scalar> 
86
(
0.0869128
0.153838
0.206324
0.215349
0.175043
0.0932775
0.0217345
0.00542026
0
0
0
7.84678e-06
3.14841e-05
4.68275e-05
4.52397e-05
4.06739e-05
3.84483e-05
3.85276e-05
3.93856e-05
4.00164e-05
4.02349e-05
4.02178e-05
4.01453e-05
4.00961e-05
4.00777e-05
4.00753e-05
4.00771e-05
4.00782e-05
4.00782e-05
4.00778e-05
4.00773e-05
4.00771e-05
4.00769e-05
4.00755e-05
4.00755e-05
4.00756e-05
4.00758e-05
4.0076e-05
4.00763e-05
4.00766e-05
4.00769e-05
4.00773e-05
4.00776e-05
4.0078e-05
4.00784e-05
4.00787e-05
4.00781e-05
4.00781e-05
4.00783e-05
4.00784e-05
4.00785e-05
4.00785e-05
4.00783e-05
4.0078e-05
4.00776e-05
4.00769e-05
4.0075e-05
4.0075e-05
4.00739e-05
4.00726e-05
4.00711e-05
4.00694e-05
4.00674e-05
4.00649e-05
4.00602e-05
4.00602e-05
4.00561e-05
4.00515e-05
4.00466e-05
4.00416e-05
4.00367e-05
4.00321e-05
4.00261e-05
4.00261e-05
4.00211e-05
4.0016e-05
4.0011e-05
4.00066e-05
4.0007e-05
4.00122e-05
4.00184e-05
4.00261e-05
4.00321e-05
4.00321e-05
4.00425e-05
4.00602e-05
)
;
    }
}


// ************************************************************************* //
