/*--------------------------------*- C++ -*----------------------------------*\
| =========                 |                                                 |
| \\      /  F ield         | OpenFOAM: The Open Source CFD Toolbox           |
|  \\    /   O peration     | Version:  2506                                  |
|   \\  /    A nd           | Website:  www.openfoam.com                      |
|    \\/     M anipulation  |                                                 |
\*---------------------------------------------------------------------------*/
FoamFile
{
    version     2.0;
    format      ascii;
    arch        "LSB;label=32;scalar=64";
    class       volSymmTensorField;
    location    "500";
    object      turbulenceProperties:devReff;
}
// * * * * * * * * * * * * * * * * * * * * * * * * * * * * * * * * * * * * * //

dimensions      [0 2 -2 0 0 0 0];

internalField   nonuniform List<symmTensor> 
1340
(
(0.00163714 0.0042578 -9.50056e-22 -0.00177373 -2.23883e-20 0.000136594)
(0.00238853 0.00488003 -1.24417e-22 -0.00248647 1.40368e-19 9.79405e-05)
(0.00361106 0.00546063 -2.76481e-20 -0.00380828 -4.34988e-19 0.000197225)
(0.00524592 0.00621488 1.19073e-19 -0.0054919 8.78824e-19 0.00024598)
(0.00742492 0.00687341 -2.25916e-19 -0.00769356 -8.34225e-19 0.000268644)
(0.010404 0.00726188 -1.72317e-19 -0.0107954 -4.50646e-19 0.000391442)
(0.014299 0.00737459 3.25998e-19 -0.0147853 1.25251e-18 0.000486258)
(0.0191876 0.00685905 -8.31323e-19 -0.0197702 -2.26133e-18 0.000582586)
(0.0252391 0.00535157 -2.0651e-19 -0.0259856 6.04419e-19 0.000746565)
(0.0325645 0.00260624 6.13778e-19 -0.0334649 1.25948e-18 0.000900456)
(0.0413422 -0.00189799 1.57979e-18 -0.0424337 5.77706e-19 0.00109149)
(0.0519596 -0.008734 -3.5524e-18 -0.0532775 -3.29928e-18 0.00131783)
(0.0649577 -0.0188219 6.72791e-19 -0.0665509 8.68396e-19 0.00159319)
(0.0812469 -0.0337492 2.68636e-18 -0.0832018 1.27312e-18 0.00195483)
(0.102368 -0.056169 -4.07746e-18 -0.104834 -6.36945e-18 0.00246626)
(0.13053 -0.0904044 -4.36536e-18 -0.133705 -2.58501e-18 0.00317454)
(0.169882 -0.14506 1.92126e-17 -0.174189 1.779e-17 0.00430665)
(0.224284 -0.232429 1.78591e-17 -0.230164 3.3791e-17 0.00588054)
(0.310931 -0.388886 -3.53876e-17 -0.319546 -5.48544e-17 0.00861514)
(0.426445 -0.641749 -1.37781e-18 -0.43862 1.45538e-17 0.0121748)
(0.666816 -1.21421 -2.72235e-17 -0.686211 5.20476e-17 0.0193953)
(0.945617 -2.11462 -1.24422e-17 -0.971734 4.18867e-17 0.026118)
(1.76575 -5.12909 -1.43151e-16 -1.81787 -6.4194e-16 0.052128)
(2.42861 -10.3115 3.31444e-16 -2.51193 5.58943e-16 0.0833225)
(1.52833 -11.6477 4.23739e-17 -1.56938 -7.12357e-16 0.0410498)
(0.52636 -11.2303 3.65825e-16 -0.51498 5.81117e-16 -0.0113796)
(-0.145859 -11.0474 -8.18356e-17 0.175581 -7.84281e-17 -0.0297216)
(-0.664931 -11.231 2.74527e-16 0.689603 2.30544e-16 -0.0246715)
(-1.13626 -11.4446 7.29169e-16 1.15257 1.20858e-15 -0.0163095)
(-1.5717 -11.4563 4.00599e-16 1.57995 1.99786e-15 -0.00824929)
(-1.95786 -11.2411 -1.41157e-15 1.95608 -1.93169e-15 0.00177487)
(-2.27361 -10.8343 -4.74897e-16 2.2631 -7.2621e-16 0.0105085)
(-2.49371 -10.2209 -3.23544e-17 2.47876 -4.36845e-15 0.0149495)
(-2.6053 -9.41435 -2.58328e-15 2.58992 -7.30016e-15 0.0153757)
(-2.58947 -8.40627 1.00637e-15 2.57526 9.23258e-16 0.0142052)
(0.000968053 0.00371302 2.394e-21 -0.00101994 5.55972e-20 5.18855e-05)
(0.000549691 0.00319714 -3.57156e-21 -0.000639717 2.56642e-23 9.00255e-05)
(0.000179308 0.0026111 -1.95661e-20 -0.000226375 -1.37148e-19 4.70667e-05)
(-6.70785e-05 0.00208971 4.98109e-21 3.29504e-05 9.36021e-20 3.4128e-05)
(-0.00017926 0.0015969 3.91897e-21 0.000160972 -1.82535e-20 1.82875e-05)
(-0.000172607 0.0011672 -3.38577e-20 0.000173003 1.10833e-19 -3.95982e-07)
(-8.40102e-05 0.000835304 -2.02266e-19 0.000108118 1.62794e-19 -2.4108e-05)
(0.000579433 -0.000460528 1.22858e-22 -0.00052005 4.00306e-21 -5.93829e-05)
(0.000492605 -0.000547355 2.90331e-20 -0.000425489 7.03537e-20 -6.7116e-05)
(0.000371416 -0.000622949 -2.69199e-20 -0.000291097 -4.74604e-20 -8.03188e-05)
(0.000250519 -0.000652178 -1.81361e-20 -0.00015859 -5.16564e-20 -9.1929e-05)
(0.00013315 -0.00064511 1.2227e-19 -3.25566e-05 2.37308e-19 -0.000100593)
(2.31411e-05 -0.000610486 4.76159e-20 8.61802e-05 7.38713e-20 -0.000109321)
(-6.029e-05 -0.000551403 2.2581e-19 0.000177198 2.07449e-19 -0.000116908)
(-0.000116636 -0.000479008 -1.16705e-19 0.000238471 -2.24588e-20 -0.000121835)
(-0.000149303 -0.000404777 1.64896e-19 0.000274582 1.14263e-19 -0.000125279)
(-0.000158011 -0.000336002 -5.85657e-21 0.000285259 2.50064e-22 -0.000127247)
(-0.000150112 -0.000278307 -2.23006e-19 0.000277009 -1.90525e-19 -0.000126896)
(-0.000132662 -0.00023995 2.87171e-19 0.00025889 3.57498e-19 -0.000126228)
(-0.000110888 -0.00022612 1.76603e-19 0.000240754 8.87439e-20 -0.000129866)
(-8.62528e-05 -0.000245788 -3.68422e-20 0.000231114 1.99825e-20 -0.000144861)
(-4.85453e-05 -0.000344621 -2.26873e-19 0.000241477 3.73461e-20 -0.000192932)
(6.2497e-05 -0.000658623 4.77381e-19 0.000258298 5.46285e-19 -0.000320795)
(0.000455311 -0.00154848 8.55336e-19 0.000142121 -9.35305e-19 -0.000597432)
(0.00150239 -0.00354968 -4.41954e-18 -0.000499305 -5.72833e-18 -0.00100309)
(0.00420312 -0.00867181 5.05739e-19 -0.00253606 7.46128e-18 -0.00166706)
(0.0104747 -0.0211357 7.36547e-18 -0.00789323 -2.06852e-18 -0.00258147)
(0.0295343 -0.0626405 1.55139e-17 -0.0251168 6.14803e-18 -0.00441746)
(0.0740767 -0.174701 -2.35671e-17 -0.0678589 -2.25678e-17 -0.00621786)
(0.19546 -0.546204 7.43486e-17 -0.187655 1.8766e-16 -0.00780544)
(0.504292 -1.78316 1.58293e-19 -0.501552 -1.54642e-16 -0.00274003)
(0.747753 -3.5411 -2.72877e-16 -0.771494 1.69401e-16 0.0237404)
(0.788885 -5.38728 -9.70808e-17 -0.843191 -6.59182e-16 0.0543059)
(0.603373 -7.14359 1.17748e-18 -0.675104 7.56354e-17 0.0717318)
(0.204488 -8.39103 -2.94479e-16 -0.279862 -4.44693e-16 0.0753741)
(-0.295497 -8.63473 -4.93701e-16 0.229673 -2.83283e-15 0.065824)
(-0.707189 -7.89708 -1.67052e-16 0.666121 -3.54715e-15 0.0410674)
(-0.93139 -6.69198 5.23005e-16 0.923089 4.8973e-15 0.00830056)
(-0.998423 -5.47823 -9.55297e-16 1.01663 -3.75761e-17 -0.0182114)
(-0.984519 -4.49846 -7.18936e-15 1.01433 1.34211e-15 -0.0298149)
(-0.930915 -3.75361 8.77244e-15 0.960564 1.59523e-14 -0.029649)
(-0.863879 -3.18648 -1.48871e-15 0.887894 -8.6377e-16 -0.024015)
(0.000645655 -0.00034501 9.36998e-21 -0.000595427 2.31774e-20 -5.02283e-05)
(0.00068442 -0.000224612 -1.27043e-20 -0.00063747 -9.60292e-20 -4.69503e-05)
(0.000691694 -7.63944e-05 -1.86441e-20 -0.000654664 -1.11219e-19 -3.70304e-05)
(0.000654249 8.6681e-05 -7.12347e-21 -0.000627664 1.65311e-19 -2.65843e-05)
(0.000565078 0.000235301 1.92654e-21 -0.000550957 4.34555e-20 -1.41215e-05)
(0.000429276 0.000348908 3.78248e-20 -0.000425619 -1.45276e-19 -3.65733e-06)
(0.000333681 -0.000312807 1.72579e-21 -0.000360069 2.38758e-21 2.63878e-05)
(0.00025836 -0.000372282 -2.7296e-20 -0.000290235 -6.63199e-20 3.1875e-05)
(0.00016085 -0.000413559 -6.02087e-21 -0.000197977 -3.03305e-21 3.71263e-05)
(5.20706e-05 -0.000426362 2.27884e-20 -9.69438e-05 4.92238e-20 4.48733e-05)
(-5.44256e-05 -0.000413077 -7.20971e-20 3.54558e-06 -1.46642e-19 5.088e-05)
(-0.000154783 -0.000372457 -8.20729e-20 9.79079e-05 -1.34513e-19 5.68754e-05)
(-0.000238945 -0.000308489 -1.66416e-19 0.000175434 -2.45977e-19 6.35111e-05)
(-0.0003 -0.000230744 -1.34057e-20 0.000231132 -1.99282e-21 6.88671e-05)
(-0.000337765 -0.000145421 -7.30691e-20 0.000264305 -1.74013e-19 7.34608e-05)
(-0.000352964 -6.11088e-05 3.05788e-19 0.000275454 3.47969e-19 7.75099e-05)
(-0.000348657 1.659e-05 -5.00762e-20 0.000268535 6.81113e-20 8.01224e-05)
(-0.000331381 8.39149e-05 3.41326e-20 0.000250346 2.10023e-20 8.10348e-05)
(-0.000307321 0.000139288 -2.33528e-19 0.00022751 -2.97221e-19 7.98114e-05)
(-0.000281376 0.000184867 1.50381e-19 0.00020415 -1.39607e-20 7.72259e-05)
(-0.000254093 0.000218801 4.36506e-20 0.000181604 1.35458e-19 7.24883e-05)
(-0.000223478 0.000237245 5.33224e-20 0.000158659 2.55915e-20 6.48194e-05)
(-0.000180031 0.000227925 -2.41566e-19 0.000128085 -1.40694e-19 5.19464e-05)
(-0.000148151 0.000217072 2.02454e-19 0.000106936 1.50916e-19 4.1215e-05)
(-9.77614e-05 0.000161435 4.84397e-20 7.25562e-05 6.32973e-22 2.52052e-05)
(-0.000155674 0.0002806 -3.6e-19 0.000120413 -5.41623e-20 3.52611e-05)
(-7.24764e-05 0.000138864 2.10708e-19 5.9017e-05 -8.27522e-20 1.34594e-05)
(-0.000126101 0.000249229 1.38793e-20 0.000109642 2.37962e-19 1.64594e-05)
(-1.02151e-05 1.16738e-05 4.52677e-20 1.09054e-05 -6.68589e-20 -6.9032e-07)
(0.00133675 -0.00497742 -2.42654e-18 -0.0010776 -2.59288e-18 -0.000259146)
(0.0122512 -0.0541588 4.48378e-18 -0.0104125 1.58293e-17 -0.00183875)
(0.0322232 -0.193487 -2.8588e-17 -0.0280498 7.82269e-18 -0.00417333)
(0.0536019 -0.49436 1.48484e-17 -0.0475275 1.15374e-18 -0.00607441)
(0.0638608 -1.11359 -1.42997e-17 -0.0566193 7.63529e-17 -0.0072415)
(0.0252743 -2.20164 -4.40662e-16 -0.0184559 2.46385e-16 -0.00681836)
(-0.120109 -3.63379 2.17112e-16 0.123309 3.53425e-16 -0.00320044)
(-0.38752 -4.9159 1.56414e-15 0.382318 -5.86948e-16 0.0052025)
(-0.692046 -5.5251 -2.76516e-15 0.67762 2.16265e-15 0.0144265)
(-0.905738 -5.36789 5.13811e-16 0.88999 9.32806e-15 0.0157473)
(-0.983226 -4.78759 -4.865e-17 0.974819 -6.36782e-15 0.0084071)
(-0.964944 -4.1285 3.05763e-15 0.963466 -2.30087e-15 0.00147801)
(0.000395295 -0.000236804 -3.54253e-21 -0.000419381 -6.74349e-21 2.40862e-05)
(0.000435596 -0.000154352 -1.34281e-20 -0.000454967 -1.89998e-20 1.93711e-05)
(0.000460048 -5.32794e-05 5.56879e-20 -0.000474973 1.20065e-19 1.49256e-05)
(0.000454763 5.43797e-05 1.14453e-20 -0.000464206 -1.35569e-20 9.44312e-06)
(0.000415687 0.000160468 7.89577e-21 -0.000421152 -8.89555e-20 5.46418e-06)
(0.000342125 0.00024805 -2.46539e-20 -0.000344105 6.37276e-20 1.98094e-06)
(0.00030628 -0.000258223 9.51568e-21 -0.000296876 1.62784e-20 -9.40393e-06)
(0.000259298 -0.000306082 -1.32542e-20 -0.000248912 -2.38931e-20 -1.03863e-05)
(0.000195911 -0.00034741 -6.02783e-21 -0.000182639 -3.32171e-21 -1.32724e-05)
(0.000125024 -0.000374211 7.16065e-20 -0.000109146 1.04795e-19 -1.5878e-05)
(5.17748e-05 -0.000382635 4.5507e-20 -3.28945e-05 8.24867e-20 -1.88803e-05)
(-2.12931e-05 -0.000372943 5.77213e-20 4.36689e-05 1.10845e-19 -2.23758e-05)
(-8.66744e-05 -0.000347085 8.81562e-20 0.000112589 1.01992e-19 -2.59149e-05)
(-0.000139539 -0.000308085 -5.05818e-20 0.000168993 -7.85516e-20 -2.94547e-05)
(-0.000178415 -0.000260562 -1.80919e-19 0.00021168 -1.79248e-19 -3.32644e-05)
(-0.000202004 -0.000209912 2.34922e-19 0.000238693 1.323e-19 -3.66891e-05)
(-0.000211574 -0.000160037 1.97567e-19 0.000251484 1.67323e-19 -3.99103e-05)
(-0.000209291 -0.000114101 2.55705e-19 0.00025182 1.22495e-19 -4.25287e-05)
(-0.000197727 -7.42119e-05 -4.2085e-19 0.000241972 -1.34781e-19 -4.42447e-05)
(-0.000179866 -4.12316e-05 -3.58074e-19 0.000224685 -2.40538e-19 -4.4819e-05)
(-0.000157745 -1.50515e-05 4.73827e-19 0.000202218 1.49034e-19 -4.44735e-05)
(-0.000133075 7.47098e-06 9.57356e-20 0.000175229 5.89553e-20 -4.21545e-05)
(-0.000107595 2.66257e-05 -7.09839e-20 0.000145737 7.32643e-21 -3.81415e-05)
(-8.462e-05 4.29437e-05 -2.29714e-19 0.000117611 -1.50499e-19 -3.29908e-05)
(-6.13995e-05 5.41443e-05 5.13041e-20 8.6187e-05 -1.96843e-20 -2.47875e-05)
(-4.61021e-05 6.27805e-05 2.14608e-19 6.32445e-05 6.62108e-20 -1.71425e-05)
(-3.83542e-05 7.14056e-05 -2.70709e-19 4.94071e-05 -7.78654e-20 -1.10529e-05)
(-4.07807e-05 9.48443e-05 1.45399e-19 4.90739e-05 2.07687e-20 -8.29319e-06)
(-3.74369e-05 0.000112384 -4.38699e-20 4.3508e-05 -9.51228e-21 -6.0711e-06)
(-0.000263425 0.0011988 -9.30744e-19 0.000314331 4.56486e-19 -5.09057e-05)
(-0.000610231 0.00657666 3.65137e-18 0.000889539 -1.16543e-18 -0.000279308)
(3.7833e-06 9.54728e-05 -5.54897e-20 6.013e-07 7.3632e-20 -4.3846e-06)
(0.000231782 0.00120199 1.03065e-20 -0.000166232 -2.37471e-20 -6.55503e-05)
(0.00105088 0.00144148 1.94204e-18 -0.000879932 -6.89528e-19 -0.000170951)
(0.00476026 -0.0115685 7.06985e-18 -0.00419554 1.78895e-17 -0.000564721)
(0.010117 -0.110054 2.72296e-17 -0.00885832 -1.23302e-16 -0.00125867)
(-0.000358114 -0.479022 -6.65707e-17 0.0025542 -3.96863e-16 -0.00219609)
(-0.0768554 -1.29923 2.07741e-15 0.0795536 5.51664e-16 -0.00269816)
(-0.263555 -2.42389 2.97032e-15 0.264419 6.72533e-16 -0.000864315)
(-0.51412 -3.34392 -1.64323e-15 0.5107 -2.23416e-15 0.00341957)
(-0.715473 -3.72244 -7.33279e-15 0.709513 1.422e-15 0.00595973)
(0.000342224 -0.000198497 -1.46076e-20 -0.000335899 -2.97426e-20 -6.32501e-06)
(0.000364714 -0.000135329 -5.0237e-21 -0.000359228 2.03041e-20 -5.48568e-06)
(0.000373312 -5.72454e-05 4.83501e-20 -0.000370622 9.21873e-20 -2.69013e-06)
(0.00036393 2.51556e-05 -2.06946e-20 -0.00036261 -1.16219e-21 -1.32004e-06)
(0.000332411 0.000105542 1.80246e-20 -0.000332513 1.1422e-19 1.02046e-07)
(0.000222634 -0.000196128 -1.35347e-20 -0.000225649 -2.01606e-20 3.01561e-06)
(0.000184148 -0.000231624 2.65854e-21 -0.000188508 4.23596e-21 4.35983e-06)
(0.000134444 -0.000261248 1.61108e-20 -0.000139278 1.74974e-20 4.83417e-06)
(7.79987e-05 -0.000279187 -9.89662e-20 -8.41632e-05 -1.40665e-19 6.16454e-06)
(1.8932e-05 -0.000283319 -7.24487e-20 -2.64809e-05 -8.47329e-20 7.54883e-06)
(-4.04422e-05 -0.00027307 1.69306e-19 3.16123e-05 2.02667e-19 8.8299e-06)
(-9.48349e-05 -0.000249163 -1.79755e-19 8.42688e-05 -2.23209e-19 1.05661e-05)
(-0.000140347 -0.000213788 -8.1262e-20 0.000127929 -5.40597e-20 1.24181e-05)
(-0.00017474 -0.000169936 -1.93186e-19 0.000160477 -1.44566e-19 1.42627e-05)
(-0.00019668 -0.000121817 -3.59989e-20 0.000180319 -6.55051e-20 1.63605e-05)
(-0.000206279 -7.2869e-05 2.41759e-20 0.000187824 -8.7237e-21 1.84546e-05)
(-0.000204704 -2.62633e-05 -1.32279e-19 0.000184162 -1.75438e-19 2.05423e-05)
(-0.000193971 1.5445e-05 4.30642e-19 0.000171446 2.94944e-19 2.25255e-05)
(-0.000176465 5.07376e-05 -1.41749e-19 0.000152269 -2.47892e-20 2.41962e-05)
(-0.000154505 7.94337e-05 -3.47391e-19 0.000128935 -1.5191e-19 2.55695e-05)
(-0.000130521 0.000100453 2.30336e-19 0.000104583 4.60944e-21 2.59379e-05)
(-0.000106119 0.000113123 -1.6734e-19 8.1307e-05 -9.65176e-20 2.48116e-05)
(-8.18097e-05 0.000118093 2.28682e-21 5.91231e-05 1.22271e-19 2.26866e-05)
(-5.91045e-05 0.000116973 -3.99253e-20 3.92137e-05 -3.13666e-20 1.98908e-05)
(-3.82898e-05 0.000108234 -2.78121e-19 2.21189e-05 -1.92159e-19 1.61709e-05)
(-2.24477e-05 9.58655e-05 2.00607e-19 1.04522e-05 1.9475e-19 1.19954e-05)
(-1.08686e-05 7.07784e-05 3.70256e-21 4.13696e-06 -1.1415e-19 6.73162e-06)
(-6.76569e-06 6.98619e-05 3.84163e-20 2.13138e-06 1.17547e-20 4.63431e-06)
(-2.52116e-06 7.98441e-05 1.11644e-19 -1.21884e-06 -5.00181e-21 3.74e-06)
(3.77225e-06 8.69957e-05 -3.76453e-20 -6.75021e-06 -1.19908e-20 2.97796e-06)
(9.47515e-06 8.92349e-05 1.26789e-19 -1.157e-05 2.02486e-20 2.09487e-06)
(2.77722e-05 0.00019392 -1.50644e-20 -3.04288e-05 3.44078e-22 2.65659e-06)
(0.00026463 0.00161787 -2.57292e-19 -0.000275244 -1.59241e-19 1.06136e-05)
(0.00149613 0.00800578 2.6108e-20 -0.00150938 2.06575e-18 1.32489e-05)
(0.000943437 0.00414354 -1.20758e-17 -0.000934923 9.97035e-19 -8.51316e-06)
(0.00277263 0.00873537 -1.10731e-17 -0.00272605 1.85166e-18 -4.65844e-05)
(0.0106254 0.0120893 2.78539e-17 -0.0103968 -1.62578e-16 -0.000228607)
(0.018749 -0.0984173 5.76091e-16 -0.0179194 -7.06917e-16 -0.000829563)
(-0.0256072 -0.584013 -2.98217e-15 0.0275987 1.58945e-16 -0.00199153)
(-0.182122 -1.48965 4.83409e-15 0.183937 1.81628e-15 -0.00181553)
(0.000253108 -0.000152903 8.63746e-21 -0.000256266 3.53071e-21 3.15744e-06)
(0.000274184 -0.000106572 -3.12486e-20 -0.000275956 -4.49325e-20 1.77281e-06)
(0.000285724 -4.96654e-05 3.99008e-21 -0.000287343 2.03317e-20 1.61917e-06)
(0.000283464 1.1771e-05 1.70416e-20 -0.000284288 -5.68581e-20 8.23691e-07)
(0.000264476 7.30934e-05 -1.38576e-19 -0.000265053 -1.99266e-19 5.76423e-07)
(0.00018413 -0.000161014 1.18696e-20 -0.000183018 1.37883e-20 -1.11164e-06)
(0.000155879 -0.000189721 -2.9849e-20 -0.000154872 -3.58774e-20 -1.00703e-06)
(0.000118628 -0.000214942 -2.41029e-21 -0.000117023 -4.98743e-21 -1.60468e-06)
(7.60892e-05 -0.00023239 -1.24403e-20 -7.41975e-05 -6.48758e-21 -1.89168e-06)
(3.1036e-05 -0.000239974 9.86365e-20 -2.87669e-05 1.13518e-19 -2.26912e-06)
(-1.54506e-05 -0.000237317 7.56357e-20 1.84274e-05 6.24058e-20 -2.97673e-06)
(-5.93402e-05 -0.00022451 9.61774e-22 6.29578e-05 3.04985e-20 -3.61756e-06)
(-9.76928e-05 -0.000202637 1.87631e-19 0.000102082 1.81804e-19 -4.38913e-06)
(-0.00012879 -0.000173559 -2.34317e-20 0.000134176 -3.12881e-21 -5.38569e-06)
(-0.000151049 -0.000140082 -6.47896e-20 0.000157472 -3.04222e-20 -6.42342e-06)
(-0.000164113 -0.000104705 1.27242e-19 0.000171715 4.74845e-20 -7.60199e-06)
(-0.000168495 -6.98243e-05 -1.71248e-19 0.000177395 -6.63708e-20 -8.90002e-06)
(-0.000165282 -3.76053e-05 -3.02169e-19 0.000175526 -2.36204e-19 -1.02437e-05)
(-0.000155964 -9.36206e-06 -1.26175e-19 0.000167619 3.25222e-20 -1.16554e-05)
(-0.000142208 1.41206e-05 5.44196e-19 0.000155244 2.45774e-19 -1.30364e-05)
(-0.000125184 3.22702e-05 -3.93014e-19 0.000139473 -1.79134e-19 -1.42893e-05)
(-0.000105662 4.62046e-05 -9.43923e-20 0.000120198 8.18569e-20 -1.45352e-05)
(-8.50837e-05 5.58713e-05 1.7632e-19 9.89728e-05 1.14928e-19 -1.38891e-05)
(-6.50402e-05 6.17409e-05 -1.11026e-19 7.7547e-05 -9.00994e-22 -1.25068e-05)
(-4.68269e-05 6.4342e-05 -3.62848e-20 5.74639e-05 9.08447e-20 -1.0637e-05)
(-3.1481e-05 6.57577e-05 5.15006e-20 4.01272e-05 -3.30846e-20 -8.64612e-06)
(-1.68469e-05 6.17013e-05 -3.66502e-19 2.29602e-05 3.54785e-20 -6.11326e-06)
(-4.76771e-06 5.54043e-05 3.20617e-21 8.45183e-06 -5.3799e-20 -3.68413e-06)
(3.46932e-06 4.00042e-05 -1.60108e-19 -1.93877e-06 1.61062e-20 -1.53055e-06)
(9.17167e-06 3.89606e-05 4.21664e-20 -8.28051e-06 1.23527e-20 -8.91164e-07)
(1.2992e-05 3.78426e-05 -1.31989e-20 -1.22468e-05 -5.56327e-20 -7.45252e-07)
(1.44759e-05 3.72627e-05 -2.7689e-21 -1.37579e-05 -2.59243e-22 -7.18059e-07)
(1.47291e-05 3.90256e-05 6.52257e-21 -1.41637e-05 1.57188e-22 -5.65375e-07)
(1.50977e-05 4.3348e-05 6.65344e-20 -1.47295e-05 -2.26509e-20 -3.68185e-07)
(0.000179246 0.000550998 5.92921e-19 -0.000175965 9.55366e-19 -3.28053e-06)
(0.000667435 0.0021215 -6.19495e-19 -0.00065538 1.27996e-18 -1.20546e-05)
(0.00343925 0.0106563 -3.55539e-17 -0.00338363 1.15516e-17 -5.56221e-05)
(0.000742769 0.00201369 -1.07376e-17 -0.000734916 -7.23808e-18 -7.85264e-06)
(0.0136473 0.023508 -9.21369e-17 -0.0135622 1.01837e-16 -8.50848e-05)
(0.0322943 -0.0499006 6.48588e-16 -0.0319732 -7.43564e-16 -0.000321149)
(0.000206326 -0.000126629 -1.3e-20 -0.000206073 -1.90252e-20 -2.53123e-07)
(0.000221507 -9.01459e-05 4.62526e-21 -0.000221021 1.27759e-21 -4.85377e-07)
(0.000229939 -4.55186e-05 1.2398e-20 -0.000230081 1.25919e-20 1.41689e-07)
(0.000228572 2.66983e-06 -1.11714e-20 -0.0002286 -5.19315e-20 2.77052e-08)
(0.000147374 -0.000131417 -5.84064e-21 -0.000147571 -5.50012e-21 1.97341e-07)
(0.000124516 -0.000154214 1.67075e-22 -0.000125117 -1.48062e-21 6.01323e-07)
(9.46633e-05 -0.000174373 4.14445e-20 -9.51769e-05 4.51987e-20 5.1359e-07)
(6.05169e-05 -0.000188434 1.62329e-21 -6.12772e-05 -8.72429e-22 7.60306e-07)
(2.4193e-05 -0.000194893 -1.42919e-19 -2.51765e-05 -1.51803e-19 9.83461e-07)
(-1.36277e-05 -0.000193275 3.28421e-20 1.24981e-05 3.87103e-20 1.1296e-06)
(-4.9933e-05 -0.000183401 3.2057e-20 4.8504e-05 1.98549e-20 1.42896e-06)
(-8.23753e-05 -0.000165934 -7.42299e-20 8.05892e-05 -1.08077e-19 1.78609e-06)
(-0.000109456 -0.000142037 -1.10911e-19 0.00010733 -6.5442e-20 2.12523e-06)
(-0.000129683 -0.00011369 4.20834e-20 0.000127091 5.54151e-20 2.59282e-06)
(-0.000142474 -8.27895e-05 -2.52053e-19 0.000139355 -2.08582e-19 3.11978e-06)
(-0.000147819 -5.12644e-05 1.6785e-19 0.000144114 1.06856e-19 3.70468e-06)
(-0.000146232 -2.10474e-05 3.41091e-19 0.00014184 1.93342e-19 4.39242e-06)
(-0.000138686 6.52065e-06 4.39601e-19 0.000133533 1.65659e-19 5.15301e-06)
(-0.000126322 3.03982e-05 -5.8792e-19 0.000120323 -4.40357e-19 5.99968e-06)
(-0.000110476 5.00204e-05 3.16238e-19 0.000103483 2.41788e-19 6.99277e-06)
(-9.27074e-05 6.48373e-05 3.38242e-19 8.50172e-05 7.81706e-20 7.69024e-06)
(-7.44887e-05 7.43477e-05 2.15741e-19 6.67389e-05 -4.70257e-20 7.74983e-06)
(-5.67374e-05 7.87618e-05 1.10174e-19 4.95524e-05 5.87615e-20 7.18502e-06)
(-4.04983e-05 7.87374e-05 -1.44208e-20 3.43078e-05 8.06374e-20 6.19048e-06)
(-2.66265e-05 7.59183e-05 1.09988e-19 2.17092e-05 -1.81417e-20 4.91725e-06)
(-1.50066e-05 7.20864e-05 3.69921e-19 1.13916e-05 1.55765e-19 3.61504e-06)
(-4.12276e-06 6.82759e-05 -1.58791e-19 1.59706e-06 -2.14018e-20 2.5257e-06)
(6.70218e-06 5.75536e-05 3.97964e-19 -8.36687e-06 9.37838e-20 1.66469e-06)
(1.35636e-05 4.09895e-05 -5.43231e-20 -1.45976e-05 2.11632e-21 1.03402e-06)
(1.58067e-05 2.7351e-05 -1.79785e-20 -1.64311e-05 1.25125e-20 6.24405e-07)
(1.56248e-05 1.88446e-05 4.77798e-21 -1.60465e-05 2.06936e-21 4.21674e-07)
(1.53679e-05 1.50817e-05 -1.76512e-20 -1.5771e-05 7.49821e-21 4.0313e-07)
(1.4779e-05 1.36658e-05 -4.2593e-20 -1.52058e-05 -2.43514e-20 4.26781e-07)
(1.44179e-05 1.44347e-05 -3.75192e-21 -1.48091e-05 2.93395e-20 3.91174e-07)
(1.44389e-05 1.75821e-05 2.66408e-21 -1.4744e-05 -2.09968e-20 3.05061e-07)
(1.49823e-05 2.34792e-05 1.54795e-19 -1.51722e-05 1.21808e-19 1.89936e-07)
(0.000112121 0.000218907 -1.72677e-18 -0.000112575 1.62233e-18 4.53748e-07)
(0.00358957 0.00781805 -1.63958e-17 -0.00358657 1.01103e-17 -3.00062e-06)
(0.0029031 0.00582481 -3.7896e-17 -0.00290987 1.47262e-18 6.76291e-06)
(0.000165499 -0.000104416 1.85118e-21 -0.000166032 6.08345e-21 5.33872e-07)
(0.000178238 -7.57516e-05 2.82461e-20 -0.000178351 2.4961e-20 1.12874e-07)
(0.000185937 -4.06947e-05 -2.81916e-20 -0.000186314 -1.01532e-20 3.76933e-07)
(0.000186051 -2.52158e-06 6.96958e-20 -0.000186163 6.73277e-20 1.12433e-07)
(0.000121489 -0.00010985 -2.61492e-22 -0.000121307 -7.60166e-22 -1.82099e-07)
(0.000103208 -0.000128531 -1.83374e-21 -0.000103203 -1.50081e-21 -5.19827e-09)
(7.93067e-05 -0.000145313 -5.40665e-21 -7.91153e-05 -4.81166e-21 -1.91378e-07)
(5.19065e-05 -0.000157459 -2.98911e-20 -5.17434e-05 -2.75683e-20 -1.6309e-07)
(2.26716e-05 -0.000163767 3.70022e-20 -2.24708e-05 4.13613e-20 -2.00811e-07)
(-8.10813e-06 -0.000163866 1.93461e-19 8.42783e-06 1.63695e-19 -3.197e-07)
(-3.80686e-05 -0.000157519 -1.16696e-20 3.84529e-05 -3.19166e-20 -3.84281e-07)
(-6.53869e-05 -0.000145087 -8.46907e-20 6.58719e-05 -7.00796e-20 -4.84968e-07)
(-8.89604e-05 -0.000127306 2.23846e-19 8.96221e-05 2.05918e-19 -6.61713e-07)
(-0.000107463 -0.00010559 9.01128e-20 0.000108291 5.69578e-20 -8.27909e-07)
(-0.000120241 -8.13165e-05 -7.34013e-20 0.000121302 -1.25263e-20 -1.06157e-06)
(-0.000127148 -5.59479e-05 -2.73565e-19 0.000128498 -1.32807e-19 -1.35041e-06)
(-0.000128365 -3.10416e-05 -5.13251e-19 0.000130033 -3.90799e-19 -1.66791e-06)
(-0.000124465 -7.80959e-06 -5.90985e-19 0.000126524 -3.53037e-19 -2.05906e-06)
(-0.000116292 1.27659e-05 -3.34023e-20 0.000118805 1.34953e-19 -2.51232e-06)
(-0.000104885 2.99201e-05 2.94246e-20 0.000107924 -6.38584e-20 -3.03917e-06)
(-9.11358e-05 4.32508e-05 -4.43097e-19 9.47477e-05 -2.03423e-19 -3.61195e-06)
(-7.58292e-05 5.28198e-05 -2.88284e-19 7.96993e-05 -1.24185e-19 -3.8701e-06)
(-6.00152e-05 5.8863e-05 7.35405e-20 6.37946e-05 6.73646e-21 -3.77934e-06)
(-4.48397e-05 6.1759e-05 3.06103e-19 4.82005e-05 4.11881e-20 -3.36082e-06)
(-3.10678e-05 6.21976e-05 -1.28479e-19 3.38136e-05 -5.32216e-20 -2.74585e-06)
(-1.91198e-05 6.12417e-05 -8.00573e-20 2.11966e-05 -1.50831e-19 -2.07679e-06)
(-8.28017e-06 5.9685e-05 1.52946e-20 9.72465e-06 5.64984e-21 -1.44448e-06)
(2.46548e-06 5.71386e-05 -1.42906e-19 -1.5768e-06 -1.38647e-19 -8.88679e-07)
(1.24265e-05 5.02007e-05 1.01179e-19 -1.19161e-05 2.175e-20 -5.10437e-07)
(1.8882e-05 3.91832e-05 3.19775e-20 -1.84883e-05 -2.28937e-20 -3.93648e-07)
(2.02359e-05 2.70036e-05 1.27356e-21 -1.98713e-05 -8.66289e-21 -3.64629e-07)
(1.80528e-05 1.70303e-05 2.99546e-20 -1.77938e-05 9.03713e-21 -2.58984e-07)
(1.53615e-05 1.04782e-05 1.72063e-20 -1.52307e-05 1.25486e-20 -1.30841e-07)
(1.28234e-05 6.16492e-06 1.25291e-19 -1.27649e-05 6.68931e-21 -5.85444e-08)
(1.23158e-05 4.21265e-06 -5.24658e-20 -1.22856e-05 5.99218e-20 -3.02515e-08)
(1.19305e-05 3.79029e-06 1.31068e-19 -1.19312e-05 -1.7673e-19 7.16302e-10)
(1.19097e-05 5.78572e-06 3.15071e-19 -1.19363e-05 1.93567e-19 2.66407e-08)
(1.26014e-05 1.12028e-05 -6.68084e-21 -1.26048e-05 1.51863e-19 3.45973e-09)
(0.000552271 0.000778787 4.94142e-18 -0.000552415 -2.2609e-18 1.4377e-07)
(0.000135994 -8.80028e-05 -4.84431e-21 -0.000136137 -7.45095e-21 1.42797e-07)
(0.000146334 -6.48445e-05 -1.52512e-20 -0.000146262 -1.06644e-20 -7.19898e-08)
(0.00015289 -3.66114e-05 2.37002e-20 -0.000153094 8.92252e-21 2.03453e-07)
(0.000153599 -5.71482e-06 -9.81545e-20 -0.000153614 -7.1689e-20 1.53774e-08)
(0.000100425 -9.25808e-05 -9.23309e-21 -0.00010038 -6.74464e-21 -4.49073e-08)
(8.53481e-05 -0.000107944 -2.91098e-20 -8.54719e-05 -2.61263e-20 1.2383e-07)
(6.57063e-05 -0.000121836 -6.70308e-21 -6.57377e-05 -6.72507e-21 3.13602e-08)
(4.31743e-05 -0.000132025 9.97984e-20 -4.32836e-05 8.75875e-20 1.09302e-07)
(1.91523e-05 -0.000137568 -6.66524e-20 -1.92932e-05 -5.91477e-20 1.40902e-07)
(-6.30394e-06 -0.000138169 -7.02081e-20 6.17364e-06 -7.30983e-20 1.30306e-07)
(-3.13131e-05 -0.00013355 -1.72708e-19 3.11215e-05 -1.25347e-19 1.91562e-07)
(-5.44465e-05 -0.000123915 -1.18195e-19 5.41893e-05 -8.23756e-20 2.57251e-07)
(-7.48102e-05 -0.000109743 1.30399e-19 7.45257e-05 8.5071e-20 2.84415e-07)
(-9.12692e-05 -9.204e-05 3.60547e-20 9.08953e-05 -1.69519e-21 3.73938e-07)
(-0.000103215 -7.18033e-05 5.63068e-20 0.000102756 6.35068e-20 4.59407e-07)
(-0.000110356 -5.01442e-05 5.07978e-19 0.000109803 3.09031e-19 5.53419e-07)
(-0.000112647 -2.83315e-05 -1.73611e-19 0.000111955 -1.94163e-20 6.91748e-07)
(-0.00011037 -7.40901e-06 3.80914e-19 0.000109528 3.28503e-19 8.42269e-07)
(-0.000104077 1.17012e-05 5.07883e-20 0.000103048 3.91608e-20 1.02957e-06)
(-9.44711e-05 2.82096e-05 -8.98627e-20 9.31967e-05 -4.38097e-20 1.27444e-06)
(-8.23741e-05 4.17092e-05 2.70926e-19 8.078e-05 1.86697e-19 1.59407e-06)
(-6.88486e-05 5.17387e-05 1.03127e-19 6.70112e-05 7.49948e-20 1.83741e-06)
(-5.48463e-05 5.81695e-05 4.94645e-20 5.30055e-05 -2.46528e-20 1.84075e-06)
(-4.12934e-05 6.12515e-05 -1.80672e-19 3.96243e-05 -1.57759e-19 1.66908e-06)
(-2.88411e-05 6.16074e-05 -2.09948e-21 2.74948e-05 4.03045e-21 1.34628e-06)
(-1.78012e-05 6.01263e-05 -1.01283e-19 1.68196e-05 3.54935e-21 9.81599e-07)
(-7.80196e-06 5.76034e-05 -1.49088e-19 7.13033e-06 -8.18685e-21 6.71627e-07)
(1.70399e-06 5.41096e-05 3.94055e-20 -2.20267e-06 5.09105e-20 4.98677e-07)
(1.04706e-05 4.87227e-05 -6.84766e-21 -1.08616e-05 -4.25062e-20 3.90969e-07)
(1.71781e-05 4.11832e-05 -1.18033e-19 -1.74034e-05 3.91507e-21 2.25299e-07)
(2.08884e-05 3.29665e-05 -1.13825e-20 -2.09394e-05 4.21351e-21 5.10529e-08)
(2.1738e-05 2.51502e-05 3.52931e-21 -2.17292e-05 -8.51273e-21 -8.81326e-09)
(2.12627e-05 1.85919e-05 -2.41157e-20 -2.12859e-05 4.24113e-21 2.31757e-08)
(1.82879e-05 1.16053e-05 2.79566e-20 -1.83215e-05 -1.41788e-19 3.35631e-08)
(1.5139e-05 6.15479e-06 1.67697e-19 -1.51527e-05 -3.26015e-20 1.36386e-08)
(1.12108e-05 2.08752e-06 -2.78386e-19 -1.12149e-05 -1.21459e-20 4.18332e-09)
(1.0572e-05 -6.42172e-08 3.19675e-19 -1.05868e-05 -1.77389e-19 1.4782e-08)
(1.01747e-05 -8.88261e-07 3.11957e-19 -1.01918e-05 -4.22919e-21 1.70864e-08)
(1.02515e-05 1.12433e-06 -3.70709e-19 -1.02816e-05 5.51519e-20 3.015e-08)
(0.000112439 -7.47738e-05 5.95573e-21 -0.000112598 7.88154e-21 1.58455e-07)
(0.000121139 -5.58784e-05 4.48132e-20 -0.000121115 3.0328e-20 -2.38202e-08)
(0.000126915 -3.28602e-05 -2.87348e-20 -0.000127098 -3.1916e-20 1.82747e-07)
(1.64274e-05 -0.000116919 4.18178e-20 -1.64346e-05 3.67742e-20 7.24382e-09)
(-4.79076e-06 -0.000117889 5.93797e-20 4.82395e-06 4.97112e-20 -3.31925e-08)
(-2.57744e-05 -0.000114632 2.51055e-19 2.57944e-05 1.93038e-19 -1.99809e-08)
(-4.54007e-05 -0.000107268 -4.26514e-20 4.54279e-05 -3.26473e-20 -2.72461e-08)
(-6.29851e-05 -9.61254e-05 8.76576e-20 6.30457e-05 4.21686e-20 -6.05716e-08)
(-7.75824e-05 -8.19269e-05 -1.73351e-19 7.76523e-05 -1.00347e-19 -6.98147e-08)
(-8.86353e-05 -6.54151e-05 1.28584e-19 8.87378e-05 7.11103e-20 -1.02545e-07)
(-9.58333e-05 -4.744e-05 -3.21099e-19 9.59894e-05 -2.51023e-19 -1.56098e-07)
(-9.90439e-05 -2.89843e-05 1.12597e-20 9.92487e-05 3.39853e-20 -2.04783e-07)
(-9.83849e-05 -1.09118e-05 5.1372e-20 9.86573e-05 -2.77582e-20 -2.72412e-07)
(-9.41839e-05 5.92579e-06 8.5721e-20 9.4546e-05 1.71488e-20 -3.62053e-07)
(-8.69635e-05 2.081e-05 1.39852e-20 8.74266e-05 1.21727e-20 -4.63096e-07)
(-7.73946e-05 3.3225e-05 -1.03641e-19 7.80018e-05 -9.67111e-20 -6.07155e-07)
(-6.61827e-05 4.27966e-05 -1.99867e-19 6.69168e-05 -6.29882e-20 -7.34057e-07)
(-5.40123e-05 4.94636e-05 -1.71869e-19 5.4822e-05 -5.02733e-20 -8.09734e-07)
(-4.17322e-05 5.3372e-05 -1.25546e-19 4.25142e-05 3.44715e-20 -7.81979e-07)
(-3.00035e-05 5.49555e-05 -7.9687e-20 3.06775e-05 -8.45393e-21 -6.73946e-07)
(-1.92435e-05 5.47276e-05 -8.53704e-21 1.97632e-05 3.71812e-20 -5.1972e-07)
(-9.35541e-06 5.31632e-05 9.76672e-20 9.71625e-06 6.16852e-20 -3.60836e-07)
(-1.1496e-07 5.0193e-05 -7.00417e-21 3.02314e-07 -3.8601e-20 -1.87354e-07)
(8.14432e-06 4.53595e-05 -5.2915e-20 -8.08432e-06 -8.15207e-21 -6.00038e-08)
(1.44551e-05 3.87632e-05 9.1923e-20 -1.44016e-05 2.71759e-20 -5.35224e-08)
(1.8144e-05 3.16517e-05 1.21292e-20 -1.80402e-05 4.41785e-21 -1.03753e-07)
(1.96842e-05 2.53922e-05 1.44172e-20 -1.95854e-05 -1.48619e-20 -9.88343e-08)
(2.02248e-05 2.03608e-05 9.99602e-21 -2.01872e-05 -4.86151e-21 -3.76104e-08)
(2.03853e-05 1.60084e-05 -2.41157e-19 -2.03871e-05 8.11118e-20 1.81772e-09)
(2.01391e-05 1.17945e-05 -2.03719e-19 -2.01375e-05 -5.87702e-20 -1.58253e-09)
(1.67275e-05 6.49569e-06 1.31825e-19 -1.67168e-05 2.7063e-19 -1.06869e-08)
(1.16958e-05 2.03927e-06 -1.68773e-19 -1.16925e-05 -2.04303e-19 -3.23743e-09)
(9.82874e-06 -6.80901e-07 4.45324e-20 -9.82214e-06 -1.21477e-19 -6.59466e-09)
(9.2016e-06 -2.85072e-06 1.96476e-19 -9.22083e-06 4.27608e-20 1.92249e-08)