/*--------------------------------*- C++ -*----------------------------------*\
| =========                 |                                                 |
| \\      /  F ield         | OpenFOAM: The Open Source CFD Toolbox           |
|  \\    /   O peration     | Version:  2506                                  |
|   \\  /    A nd           | Website:  www.openfoam.com                      |
|    \\/     M anipulation  |                                                 |
\*---------------------------------------------------------------------------*/
FoamFile
{
    version     2.0;
    format      ascii;
    arch        "LSB;label=32;scalar=64";
    class       volScalarField;
    location    "500";
    object      turbulenceProperties:epsilon;
}
// * * * * * * * * * * * * * * * * * * * * * * * * * * * * * * * * * * * * * //

dimensions      [0 2 -3 0 0 0 0];

internalField   nonuniform List<scalar> 
1340
(
0.259337
0.340059
0.452943
0.623532
0.840155
1.1348
1.53073
2.0349
2.68401
3.51442
4.57783
5.96434
7.80216
10.2908
13.7709
18.7578
26.236
37.3537
56.0414
83.015
139.623
211.754
435.02
739.113
736.35
667.472
637.629
637.687
643.566
639.793
623.033
593.466
548.511
489.458
416.61
0.194102
0.147051
0.100346
0.0666541
0.040537
0.0221683
0.011177
0.00736068
0.00727969
0.00711408
0.00670935
0.0061062
0.00544777
0.00471907
0.00396206
0.00327805
0.00267032
0.00214888
0.00181988
0.00177255
0.00210474
0.00330688
0.00670987
0.0165569
0.0441966
0.138873
0.449318
1.75771
6.25384
23.4969
83.7539
166.235
234.855
278.114
284.905
250.884
193.107
135.849
91.9008
63.5006
45.7255
34.269
0.00722705
0.00703141
0.00664091
0.00608257
0.00535916
0.00447577
0.00330241
0.00325028
0.00310516
0.00288981
0.00267285
0.00244421
0.00222347
0.00203384
0.00187745
0.00176035
0.00167223
0.00162242
0.00160863
0.00163541
0.00164566
0.00154845
0.00112242
0.00080112
1.13131e-07
0.00158847
7.26633e-05
0.00107374
1.45812e-06
0.0228386
0.511039
2.53573
7.86511
20.0219
42.2352
70.4565
91.5312
94.2035
80.0893
60.681
44.1714
0.00335422
0.0033462
0.00332863
0.00321141
0.00300838
0.00268226
0.00235402
0.00236378
0.0023401
0.0023013
0.00222225
0.00210713
0.0019679
0.00180075
0.0016188
0.00142883
0.00123791
0.00105123
0.00087279
0.000707443
0.000557543
0.000419263
0.000300408
0.000214633
0.000125911
6.35519e-05
2.54493e-06
9.29613e-06
8.8098e-08
0.0071559
0.0341825
7.04605e-05
0.003138
0.00178252
0.0185043
0.44572
3.21396
11.6355
25.0141
35.4682
37.1693
0.00230377
0.00222869
0.00211335
0.0019785
0.0018157
0.00132482
0.00132014
0.0012996
0.00126338
0.00120834
0.00113567
0.00105084
0.000956771
0.000858101
0.000761855
0.000671392
0.000589994
0.000520287
0.000462941
0.000417794
0.000381615
0.000345308
0.000301937
0.000256265
0.000195937
0.000137134
2.72446e-05
2.49344e-07
6.5557e-09
0
8.96503e-08
0.000607251
0.00707308
0.0347787
0.0158884
0.024753
0.0159249
0.169283
2.41672
9.07399
0.00131797
0.00129939
0.00126279
0.00120527
0.00112645
0.000890099
0.000897706
0.000896981
0.000890587
0.000873176
0.000845325
0.000808729
0.000762612
0.000708804
0.000649674
0.00058667
0.000522166
0.000458395
0.000396982
0.0003393
0.000284287
0.000229879
0.000180046
0.00013862
0.000107069
8.83768e-05
6.40752e-05
4.25173e-05
2.40262e-06
4.86134e-08
8.52363e-09
2.52932e-10
0
0
0.0014455
0.00629041
0.0337359
0.00562121
0.0421131
0.0462531
0.000874042
0.00085209
0.000820657
0.000780079
0.000582461
0.000587588
0.000588408
0.000585434
0.000576144
0.000560235
0.000538358
0.000510266
0.000476733
0.000439275
0.000399121
0.000357819
0.000317053
0.000278194
0.000242175
0.000210011
0.000182829
0.000159207
0.000136756
0.000114916
9.60904e-05
8.189e-05
7.21515e-05
5.01103e-05
2.19672e-05
5.58299e-06
1.26505e-07
1.19912e-08
3.44903e-09
1.51385e-11
0
0
0.000417796
0.017842
0.0125264
0.000572936
0.000560162
0.000541835
0.000517097
0.000400124
0.000405605
0.000408877
0.0004102
0.000407957
0.000401861
0.000392238
0.000378527
0.000360952
0.000340167
0.00031647
0.000290682
0.000263657
0.000236154
0.000208924
0.000182707
0.000157344
0.000132464
0.000109459
8.96605e-05
7.37195e-05
6.23274e-05
5.49591e-05
5.00279e-05
4.09142e-05
2.83857e-05
1.5872e-05
6.88965e-06
2.32879e-06
8.2218e-09
3.7835e-09
3.1276e-12
0
0
0.00112888
0.000391959
0.000382231
0.000369382
0.000352666
0.000278424
0.00028283
0.000286062
0.000288089
0.000288015
0.000285549
0.000280778
0.000273243
0.000262995
0.000250287
0.00023528
0.00021842
0.000200249
0.000181297
0.000162183
0.000143375
0.000125409
0.000108977
9.40598e-05
8.05633e-05
6.85831e-05
5.84768e-05
5.03954e-05
4.39697e-05
3.76037e-05
3.04051e-05
2.34295e-05
1.69781e-05
1.22069e-05
6.49799e-06
2.79988e-06
2.7323e-09
9.82359e-10
0
0
0.000272443
0.000265599
0.000256885
0.000208084
0.000207795
0.000206066
0.000202535
0.000197192
0.000190107
0.00018127
0.000170897
0.000159263
0.000146657
0.00013344
0.000119952
0.000106597
9.34612e-05
8.07406e-05
6.90256e-05
5.88389e-05
5.03953e-05
4.35455e-05
3.76041e-05
3.1724e-05
2.5619e-05
1.99979e-05
1.56191e-05
1.26064e-05
1.03991e-05
8.48507e-06
4.5542e-06
7.72288e-07
3.50341e-09
0
0.000152072
0.000150546
0.000147767
0.000143751
0.000138432
0.000131905
0.000124303
0.000115783
0.000106587
9.69673e-05
8.71737e-05
7.75132e-05
6.82552e-05
5.95983e-05
5.17896e-05
4.49541e-05
3.90636e-05
3.3745e-05
2.84364e-05
2.29835e-05
1.78898e-05
1.38216e-05
1.0937e-05
9.06027e-06
7.7939e-06
7.07715e-06
5.46543e-06
1.85816e-06
4.77986e-09
0.000111884
0.000109782
0.000106741
0.000102791
9.7982e-05
9.2393e-05
8.61547e-05
7.9422e-05
7.23783e-05
6.52408e-05
5.81235e-05
5.12315e-05
4.4877e-05
3.92342e-05
3.42844e-05
2.97678e-05
2.5285e-05
2.07014e-05
1.63531e-05
1.2737e-05
1.00292e-05
8.09031e-06
6.6705e-06
5.8227e-06
5.42869e-06
5.02616e-06
2.1777e-06
8.41487e-05
8.24674e-05
8.01128e-05
7.70923e-05
7.34307e-05
6.92058e-05
6.45125e-05
5.9464e-05
5.423e-05
4.89404e-05
4.37341e-05
3.88002e-05
3.4277e-05
3.01698e-05
2.63341e-05
2.25267e-05
1.86607e-05
1.49744e-05
1.1839e-05
9.41567e-06
7.59553e-06
6.19649e-06
5.1427e-06
4.46706e-06
4.2144e-06
4.62341e-06
6.40112e-05
6.26707e-05
6.08313e-05
5.8494e-05
5.56911e-05
5.24745e-05
4.89121e-05
4.51245e-05
4.12005e-05
3.72304e-05
3.33575e-05
2.97248e-05
2.63505e-05
2.31482e-05
1.99611e-05
1.67302e-05
1.36262e-05
1.09332e-05
8.80065e-06
7.1627e-06
5.88333e-06
4.87002e-06
4.09505e-06
3.56518e-06
3.45245e-06
4.98488e-05
4.91436e-05
4.80639e-05
4.66007e-05
4.47623e-05
4.25787e-05
4.00918e-05
3.73702e-05
3.44939e-05
3.1524e-05
2.85424e-05
2.56722e-05
2.29383e-05
2.02931e-05
1.76445e-05
1.49568e-05
1.23516e-05
1.00461e-05
8.17503e-06
6.71097e-06
5.55525e-06
4.63849e-06
3.90353e-06
3.39488e-06
2.75761e-06
3.86405e-05
3.80464e-05
3.71611e-05
3.59885e-05
3.45354e-05
3.28246e-05
3.08938e-05
2.88081e-05
2.65999e-05
2.432e-05
2.2067e-05
1.98728e-05
1.77143e-05
1.55349e-05
1.33156e-05
1.11446e-05
9.18563e-06
7.55543e-06
6.25289e-06
5.21076e-06
4.38089e-06
3.70978e-06
3.24912e-06
2.6969e-06
3.0164e-05
2.96601e-05
2.89343e-05
2.79865e-05
2.68266e-05
2.54747e-05
2.39768e-05
2.23541e-05
2.06347e-05
1.88874e-05
1.7147e-05
1.54057e-05
1.363e-05
1.18103e-05
1.00124e-05
8.35973e-06
6.95053e-06
5.79976e-06
4.86514e-06
4.11149e-06
3.50482e-06
3.04991e-06
2.71824e-06
2.39564e-05
2.36953e-05
2.32668e-05
2.26662e-05
2.18967e-05
2.09654e-05
1.99028e-05
1.87233e-05
1.74414e-05
1.60993e-05
1.47338e-05
1.33452e-05
1.19126e-05
1.04326e-05
8.95436e-06
7.57072e-06
6.36306e-06
5.35487e-06
4.52327e-06
3.84183e-06
3.29477e-06
2.85155e-06
2.61124e-06
1.89448e-05
1.87125e-05
1.8348e-05
1.78505e-05
1.72225e-05
1.6479e-05
1.56324e-05
1.4688e-05
1.36687e-05
1.26099e-05
1.15152e-05
1.03712e-05
9.17724e-06
7.9706e-06
6.82123e-06
5.7953e-06
4.91987e-06
4.18588e-06
3.5753e-06
3.08082e-06
2.67189e-06
2.42318e-06
1.51632e-05
1.50563e-05
1.48499e-05
1.454e-05
1.41263e-05
1.36137e-05
1.30144e-05
1.23282e-05
1.15641e-05
1.07519e-05
9.89827e-06
8.99383e-06
8.03907e-06
7.06187e-06
6.11471e-06
5.25067e-06
4.49725e-06
3.85446e-06
3.31241e-06
2.86567e-06
2.5001e-06
2.22961e-06
1.21174e-05
1.20145e-05
1.1832e-05
1.1568e-05
1.12233e-05
1.08074e-05
1.03159e-05
9.75089e-06
9.13538e-06
8.4771e-06
7.76954e-06
7.01276e-06
6.22767e-06
5.45344e-06
4.73212e-06
4.08957e-06
3.53128e-06
3.05395e-06
2.6527e-06
2.32698e-06
2.05646e-06
9.7557e-06
9.71874e-06
9.62181e-06
9.46205e-06
9.23717e-06
8.95369e-06
8.60684e-06
8.19525e-06
7.73481e-06
7.23289e-06
6.68552e-06
6.09162e-06
5.46625e-06
4.83877e-06
4.24201e-06
3.69896e-06
3.21832e-06
2.80113e-06
2.44417e-06
2.15225e-06
1.8998e-06
7.8613e-06
7.81999e-06
7.73052e-06
7.58976e-06
7.40135e-06
7.16156e-06
6.86702e-06
6.5273e-06
6.14938e-06
5.73063e-06
5.26909e-06
4.77537e-06
4.2713e-06
3.78208e-06
3.32745e-06
2.9173e-06
2.55542e-06
2.24077e-06
1.97875e-06
1.75082e-06
6.35805e-06
6.35207e-06
6.30932e-06
6.227e-06
6.10637e-06
5.9446e-06
5.7382e-06
5.49122e-06
5.21047e-06
4.89363e-06
4.53854e-06
4.15237e-06
3.7511e-06
3.35368e-06
2.97668e-06
2.62986e-06
2.31856e-06
2.04343e-06
1.80934e-06
1.6052e-06
5.14211e-06
5.15734e-06
5.14488e-06
5.10223e-06
5.02886e-06
4.92355e-06
4.78197e-06
4.60526e-06
4.39948e-06
4.16304e-06
3.89302e-06
3.59401e-06
3.27753e-06
2.95775e-06
2.64795e-06
2.35739e-06
2.09182e-06
1.85312e-06
1.64566e-06
1.4629e-06
4.18551e-06
4.19191e-06
4.17537e-06
4.13459e-06
4.06915e-06
3.97516e-06
3.85135e-06
3.7031e-06
3.52889e-06
3.32577e-06
3.09646e-06
2.84917e-06
2.59436e-06
2.34226e-06
2.10102e-06
1.87637e-06
1.67095e-06
1.48837e-06
1.32525e-06
3.3955e-06
3.41289e-06
3.41294e-06
3.39425e-06
3.35655e-06
3.29654e-06
3.21214e-06
3.1072e-06
2.98073e-06
2.8298e-06
2.65585e-06
2.46451e-06
2.26334e-06
2.06017e-06
1.86171e-06
1.67325e-06
1.49783e-06
1.33857e-06
1.19349e-06
2.75356e-06
2.77655e-06
2.78672e-06
2.7825e-06
2.76379e-06
2.72765e-06
2.67198e-06
2.59924e-06
2.50893e-06
2.39838e-06
2.26789e-06
2.12137e-06
1.96406e-06
1.80179e-06
1.64005e-06
1.48337e-06
1.33455e-06
1.19681e-06
1.06863e-06
2.25747e-06
2.2732e-06
2.27802e-06
2.27177e-06
2.25215e-06
2.21702e-06
2.16812e-06
2.10483e-06
2.02489e-06
1.92816e-06
1.81712e-06
1.69534e-06
1.56698e-06
1.4363e-06
1.30714e-06
1.18202e-06
1.06357e-06
9.51308e-07
1.83431e-06
1.85259e-06
1.86265e-06
1.86432e-06
1.85579e-06
1.83516e-06
1.80341e-06
1.76009e-06
1.70326e-06
1.63248e-06
1.54919e-06
1.45579e-06
1.35519e-06
1.25056e-06
1.14491e-06
1.04051e-06
9.39526e-07
8.41822e-07
1.48956e-06
1.50841e-06
1.52116e-06
1.52758e-06
1.52627e-06
1.51562e-06
1.49607e-06
1.46722e-06
1.42756e-06
1.37648e-06
1.31469e-06
1.24375e-06
1.16561e-06
1.08253e-06
9.96861e-07
9.10368e-07
8.24898e-07
7.40507e-07
1.22712e-06
1.2409e-06
1.24985e-06
1.25301e-06
1.24897e-06
1.23786e-06
1.21938e-06
1.19232e-06
1.15598e-06
1.11069e-06
1.05733e-06
9.97152e-07
9.31727e-07
8.62765e-07
7.91685e-07
7.19852e-07
6.47534e-07
9.97528e-07
1.01118e-06
1.02119e-06
1.02688e-06
1.0271e-06
1.02169e-06
1.01048e-06
9.9248e-07
9.67064e-07
9.34251e-07
8.94496e-07
8.48552e-07
7.97436e-07
7.42341e-07
6.84315e-07
6.24412e-07
5.62887e-07
8.10195e-07
8.23076e-07
8.33224e-07
8.40159e-07
8.42924e-07
8.41241e-07
8.35025e-07
8.23502e-07
8.0605e-07
7.82556e-07
7.53212e-07
7.18413e-07
6.78754e-07
6.35041e-07
5.88001e-07
5.38394e-07
6.69314e-07
6.79002e-07
6.8631e-07
6.90451e-07
6.91103e-07
6.88213e-07
6.81172e-07
6.69443e-07
6.52842e-07
6.31381e-07
6.05217e-07
5.74659e-07
5.40193e-07
5.0231e-07
4.61508e-07
5.43729e-07
5.52643e-07
5.59781e-07
5.64525e-07
5.66529e-07
5.65765e-07
5.6177e-07
5.54104e-07
5.42538e-07
5.26978e-07
5.07433e-07
4.84023e-07
4.5701e-07
4.26681e-07
3.93352e-07
4.41292e-07
4.49268e-07
4.5592e-07
4.60743e-07
4.63445e-07
4.63983e-07
4.62004e-07
4.57155e-07
4.49212e-07
4.38024e-07
4.23505e-07
4.05666e-07
3.84605e-07
3.6046e-07
3.33407e-07
3.57833e-07
3.64839e-07
3.70828e-07
3.75421e-07
3.78371e-07
3.79627e-07
3.78936e-07
3.7601e-07
3.70638e-07
3.62652e-07
3.51926e-07
3.38392e-07
3.22042e-07
3.02919e-07
2.81096e-07
2.89906e-07
2.95949e-07
3.01212e-07
3.05409e-07
3.08335e-07
3.09935e-07
3.10026e-07
3.08375e-07
3.04803e-07
2.99141e-07
2.91247e-07
2.81012e-07
2.68368e-07
2.53292e-07
2.35788e-07
2.3982e-07
2.44368e-07
2.48093e-07
2.50829e-07
2.52525e-07
2.53044e-07
2.52217e-07
2.49888e-07
2.45897e-07
2.40101e-07
2.32378e-07
2.22632e-07
2.10795e-07
1.96832e-07
1.94157e-07
1.98024e-07
2.01253e-07
2.03705e-07
2.05348e-07
2.06081e-07
2.05767e-07
2.04278e-07
2.01476e-07
1.97227e-07
1.91407e-07
1.83911e-07
1.74651e-07
1.63568e-07
1.57045e-07
1.60292e-07
1.63044e-07
1.65187e-07
1.66695e-07
1.67494e-07
1.67479e-07
1.66547e-07
1.64585e-07
1.6147e-07
1.57086e-07
1.51329e-07
1.44108e-07
1.35352e-07
1.26925e-07
1.29626e-07
1.31935e-07
1.33765e-07
1.35094e-07
1.35874e-07
1.36022e-07
1.35455e-07
1.34079e-07
1.31792e-07
1.28487e-07
1.24071e-07
1.18455e-07
1.11564e-07
1.02506e-07
1.0473e-07
1.06646e-07
1.08184e-07
1.09325e-07
1.10038e-07
1.10261e-07
1.09926e-07
1.08958e-07
1.07272e-07
1.04777e-07
1.0139e-07
9.70312e-08
9.16296e-08
8.45492e-08
8.6123e-08
8.7397e-08
8.83566e-08
8.8979e-08
8.92215e-08
8.90309e-08
8.83464e-08
8.70977e-08
8.52095e-08
8.26115e-08
7.92339e-08
7.50135e-08
6.8211e-08
6.94919e-08
7.05339e-08
7.13259e-08
7.18544e-08
7.2087e-08
7.19831e-08
7.14937e-08
7.05622e-08
6.91286e-08
6.71349e-08
6.4521e-08
5.5e-08
5.60339e-08
5.68767e-08
5.7522e-08
5.796e-08
5.81671e-08
5.81124e-08
5.77574e-08
5.70573e-08
5.59652e-08
5.44327e-08
5.24113e-08
4.43269e-08
4.51568e-08
4.58332e-08
4.6352e-08
4.67077e-08
4.68836e-08
4.68557e-08
4.65935e-08
4.60628e-08
4.52272e-08
4.40476e-08
4.24849e-08
3.57137e-08
3.63763e-08
3.6915e-08
3.73274e-08
3.76116e-08
3.77552e-08
3.774e-08
3.75429e-08
3.71373e-08
3.64948e-08
3.55853e-08
3.43773e-08
2.9295e-08
2.97212e-08
3.00464e-08
3.02701e-08
3.03837e-08
3.03736e-08
3.02224e-08
2.99096e-08
2.94132e-08
2.87102e-08
2.77765e-08
2.35893e-08
2.39246e-08
2.41788e-08
2.43526e-08
2.44403e-08
2.44316e-08
2.43132e-08
2.40696e-08
2.36843e-08
2.31395e-08
2.24169e-08
1.89957e-08
1.92578e-08
1.94551e-08
1.95887e-08
1.96547e-08
1.96454e-08
1.95508e-08
1.93595e-08
1.9059e-08
1.86359e-08
1.8076e-08
1.52996e-08
1.55036e-08
1.56555e-08
1.57569e-08
1.58052e-08
1.57947e-08
1.5718e-08
1.55665e-08
1.53311e-08
1.50016e-08
1.45672e-08
1.23267e-08
1.24846e-08
1.26009e-08
1.26771e-08
1.27115e-08
1.26999e-08
1.26369e-08
1.25161e-08
1.23307e-08
1.20731e-08
1.17356e-08
9.93647e-09
1.00584e-08
1.01468e-08
1.02034e-08
1.02268e-08
1.02144e-08
1.01621e-08
1.0065e-08
9.91834e-09
9.71648e-09
8.01508e-09
8.10889e-09
8.1757e-09
8.21712e-09
8.23242e-09
8.21956e-09
8.17559e-09
8.09714e-09
7.98051e-09
7.82175e-09
6.54293e-09
6.59304e-09
6.62291e-09
6.63217e-09
6.61919e-09
6.58197e-09
6.5181e-09
6.42489e-09
6.2995e-09
5.28518e-09
5.32249e-09
5.34356e-09
5.34832e-09
5.33562e-09
5.30395e-09
5.25163e-09
5.17673e-09
5.07722e-09
4.27396e-09
4.30157e-09
4.31618e-09
4.31782e-09
4.3057e-09
4.27871e-09
4.23568e-09
4.17523e-09
4.09593e-09
3.45903e-09
3.47936e-09
3.48927e-09
3.48884e-09
3.47758e-09
3.45469e-09
3.41933e-09
3.37053e-09
3.30727e-09
2.79968e-09
2.8145e-09
2.82105e-09
2.81946e-09
2.80934e-09
2.79015e-09
2.76125e-09
2.72201e-09
2.67168e-09
2.2648e-09
2.27545e-09
2.27958e-09
2.27729e-09
2.26834e-09
2.25233e-09
2.22884e-09
2.19741e-09
1.83197e-09
1.83947e-09
1.84174e-09
1.83893e-09
1.8309e-09
1.8174e-09
1.79815e-09
1.77285e-09
1.48365e-09
1.48868e-09
1.48949e-09
1.48624e-09
1.47885e-09
1.46719e-09
1.45108e-09
1.43038e-09
1.20812e-09
1.20781e-09
1.20419e-09
1.19726e-09
1.18695e-09
1.17315e-09
1.15585e-09
9.83024e-10
9.81863e-10
9.7798e-10
9.71438e-10
9.62155e-10
9.50076e-10
9.35345e-10
8.04039e-10
8.02828e-10
7.99387e-10
7.94041e-10
7.86199e-10
7.75966e-10
7.64085e-10
6.75458e-10
6.73996e-10
6.70533e-10
6.65917e-10
6.58835e-10
6.49497e-10
6.39712e-10
5.7952e-10
5.77636e-10
5.73727e-10
5.68885e-10
5.61671e-10
5.52144e-10
4.95761e-10
4.94328e-10
4.91e-10
4.86771e-10
4.80443e-10
4.71851e-10
4.19858e-10
4.1795e-10
4.14242e-10
4.09684e-10
4.0351e-10
3.94979e-10
3.5507e-10
3.54141e-10
3.51644e-10
3.48183e-10
3.43479e-10
3.37075e-10
2.91066e-10
2.88168e-10
2.83837e-10
2.78976e-10
2.73406e-10
2.65017e-10
2.53289e-10
2.53501e-10
2.52363e-10
2.49565e-10
2.46332e-10
2.43371e-10
1.82922e-10
1.78044e-10
1.74026e-10
1.69308e-10
1.59285e-10
2.05193e-10
2.07468e-10
2.05007e-10
2.04294e-10
2.11961e-10
1.27068e-10
1.27602e-10
1.31445e-10
1.2985e-10
1.19827e-10
2.92415e-10
3.08976e-10
3.07384e-10
3.14639e-10
3.48563e-10
3.66551e-10
3.88376e-10
4.20715e-10
7.47597e-10
8.37397e-10
7.78461e-10
7.01644e-10
)
;

boundaryField
{
    inlet
    {
        type            calculated;
        value           nonuniform List<scalar> 4(1.45826e-08 1.65112e-08 1.69374e-08 1.73354e-08);
    }
    outlet
    {
        type            calculated;
        value           nonuniform List<scalar> 0();
    }
    walls
    {
        type            calculated;
        value           uniform 0;
    }
    frontAndBack
    {
        type            empty;
    }
    procBoundary5to0
    {
        type            processor;
        value           nonuniform List<scalar> 4(0.000197876 0.00019326 0.00018824 0.000182074);
    }
    procBoundary5to1
    {
        type            processor;
        value           nonuniform List<scalar> 
13
(
0.00631145
0.00354115
0.00354115
0.00226319
0.00161311
0.00161311
0.00101935
0.000729507
0.000729507
0.000485864
0.000332264
0.000245536
0.000245536
)
;
    }
    procBoundary5to4
    {
        type            processor;
        value           nonuniform List<scalar> 
95
(
0.000201518
0.000204582
0.000206969
0.000206969
0.00015183
0.000152426
0.000152426
0.000113528
0.000113126
0.000113126
8.51547e-05
8.51547e-05
6.48555e-05
6.48555e-05
5.01978e-05
3.89602e-05
3.89602e-05
3.04512e-05
3.04512e-05
2.40572e-05
1.90533e-05
1.90533e-05
1.51771e-05
1.21458e-05
1.21458e-05
9.73676e-06
7.85747e-06
7.85747e-06
6.3305e-06
5.10193e-06
4.15847e-06
4.15847e-06
3.36292e-06
2.71924e-06
2.23227e-06
2.23227e-06
1.809e-06
1.46556e-06
1.20884e-06
1.20884e-06
9.80534e-07
7.94879e-07
6.57553e-07
6.57553e-07
5.33261e-07
4.32146e-07
3.4996e-07
2.8321e-07
2.34679e-07
2.34679e-07
1.89829e-07
1.53438e-07
1.23944e-07
1.0006e-07
8.2732e-08
8.2732e-08
6.67347e-08
5.38082e-08
4.337e-08
3.49486e-08
2.87694e-08
2.87694e-08
2.31743e-08
1.86689e-08
1.50431e-08
1.21261e-08
9.77993e-09
7.8931e-09
6.47103e-09
6.47103e-09
5.23018e-09
4.23211e-09
3.42725e-09
2.77562e-09
2.24676e-09
1.81853e-09
1.47379e-09
1.205e-09
1.205e-09
9.81331e-10
8.02898e-10
6.74753e-10
5.79259e-10
4.95269e-10
4.19927e-10
3.54453e-10
2.92681e-10
2.51502e-10
1.86903e-10
1.86903e-10
2.01905e-10
1.25477e-10
2.78134e-10
3.22646e-10
7.44692e-10
)
;
    }
    procBoundary5to6
    {
        type            processor;
        value           nonuniform List<scalar> 
86
(
334.42
26.5015
31.9667
32.3909
16.8956
1.65814
0.0337218
0.0241372
0
0
0
2.94061e-09
1.22461e-06
5.01806e-06
4.23042e-06
2.7629e-06
2.12131e-06
2.0058e-06
2.03195e-06
2.00298e-06
1.89223e-06
1.74222e-06
1.58846e-06
1.44398e-06
1.30974e-06
1.18337e-06
1.06391e-06
9.51339e-07
8.45779e-07
7.4777e-07
6.57515e-07
5.74871e-07
4.99871e-07
4.86459e-07
4.86459e-07
4.18012e-07
3.57172e-07
3.03534e-07
2.56612e-07
2.15854e-07
1.80706e-07
1.50607e-07
1.24995e-07
1.03335e-07
8.51242e-08
6.98928e-08
6.1233e-08
6.1233e-08
4.98561e-08
4.05029e-08
3.2842e-08
2.65882e-08
2.14982e-08
1.73652e-08
1.40173e-08
1.13098e-08
9.45354e-09
9.45354e-09
7.61648e-09
6.1387e-09
4.95076e-09
3.99609e-09
3.22833e-09
2.60936e-09
2.15751e-09
2.15751e-09
1.74114e-09
1.40484e-09
1.13491e-09
9.17856e-10
7.49909e-10
6.28134e-10
5.42714e-10
5.42714e-10
4.6313e-10
3.86499e-10
3.29721e-10
2.57726e-10
2.36578e-10
1.54789e-10
2.03878e-10
1.23618e-10
3.68954e-10
3.68954e-10
4.24561e-10
1.2158e-09
)
;
    }
}


// ************************************************************************* //
