/*--------------------------------*- C++ -*----------------------------------*\
| =========                 |                                                 |
| \\      /  F ield         | OpenFOAM: The Open Source CFD Toolbox           |
|  \\    /   O peration     | Version:  2506                                  |
|   \\  /    A nd           | Website:  www.openfoam.com                      |
|    \\/     M anipulation  |                                                 |
\*---------------------------------------------------------------------------*/
FoamFile
{
    version     2.0;
    format      ascii;
    arch        "LSB;label=32;scalar=64";
    class       volVectorField;
    location    "500";
    object      U;
}
// * * * * * * * * * * * * * * * * * * * * * * * * * * * * * * * * * * * * * //

dimensions      [0 1 -1 0 0 0 0];

internalField   nonuniform List<vector> 
1340
(
(0.227305 27.647 6.74497e-18)
(1.96454 29.9432 -5.62202e-17)
(4.13734 32.1617 2.12831e-16)
(6.63499 33.8946 -4.10314e-16)
(9.39108 35.2248 3.1465e-16)
(12.3373 36.1102 2.00365e-16)
(15.3188 36.4524 -3.61643e-16)
(18.2397 36.286 1.24239e-15)
(21.0151 35.6757 -8.39335e-16)
(23.5619 34.6566 -5.80901e-16)
(25.8434 33.3238 3.00297e-16)
(27.8127 31.7263 1.67794e-15)
(29.4229 29.8609 6.52296e-16)
(30.6576 27.7678 5.97807e-16)
(31.4739 25.4622 1.43021e-15)
(31.8438 22.9751 1.24024e-15)
(31.6969 20.3078 -2.52892e-15)
(30.9558 17.4968 -8.97272e-15)
(29.4862 14.5542 6.68071e-15)
(27.1602 11.5446 -3.12732e-16)
(23.8373 8.53233 -1.30835e-15)
(19.5672 5.67763 -2.42336e-15)
(14.8907 3.22864 8.27082e-15)
(11.4419 1.44082 -2.14888e-15)
(10.0584 0.260704 1.47844e-15)
(10.698 -0.359223 -3.15943e-15)
(12.1197 -0.599531 1.89342e-16)
(13.6279 -0.719455 -1.37248e-15)
(14.8707 -0.870911 -5.45142e-15)
(15.693 -1.08625 -7.68095e-15)
(16.1255 -1.34657 7.72249e-15)
(16.2629 -1.62009 2.69362e-15)
(16.0621 -1.86596 1.10774e-15)
(15.5555 -2.06064 3.71549e-14)
(14.7264 -2.17973 -5.57769e-15)
(-1.1427 25.1966 7.66917e-18)
(-2.24857 22.436 1.16854e-17)
(-3.01404 19.3293 -9.05212e-17)
(-3.31647 15.7331 8.60577e-17)
(-2.99629 12.0183 -2.86092e-16)
(-2.02376 8.32073 7.07939e-16)
(-0.48668 4.95178 1.88663e-15)
(7.15396 23.9923 -3.54616e-18)
(9.04435 25.7194 -2.15988e-17)
(11.3477 27.2835 1.50531e-17)
(14.0035 28.58 6.46881e-17)
(16.8651 29.5493 -3.30531e-16)
(19.9374 30.1312 -1.76097e-16)
(23.108 30.2789 -5.82001e-16)
(26.2441 30.014 1.1448e-16)
(29.292 29.3461 -4.871e-16)
(32.1687 28.327 -8.47211e-17)
(34.8181 27.0096 1.21731e-15)
(37.2334 25.4924 -1.62227e-15)
(39.4232 23.8655 -9.2797e-16)
(41.3993 22.1613 -1.6827e-17)
(43.1487 20.4109 5.617e-16)
(44.6308 18.6527 -1.17259e-15)
(45.8266 16.9103 -6.08669e-16)
(46.6992 15.2127 3.57363e-15)
(47.1876 13.5671 -5.87839e-16)
(47.1791 11.9783 -1.20878e-15)
(46.48 10.3966 -1.70155e-15)
(44.861 8.72369 1.47967e-15)
(42.1804 6.82157 -2.19518e-15)
(38.6431 4.7577 -2.05699e-16)
(35.1122 2.86637 1.18641e-15)
(31.9607 1.34608 1.13904e-15)
(29.1593 0.240577 8.54951e-17)
(26.7756 -0.54982 5.74305e-16)
(24.9194 -1.15011 1.34885e-15)
(23.5666 -1.62191 1.07688e-15)
(22.5397 -1.99159 -1.04681e-15)
(21.6143 -2.278 -1.23126e-16)
(20.6911 -2.50251 1.44811e-14)
(19.6855 -2.67129 -1.09649e-14)
(18.5073 -2.76953 1.7364e-15)
(5.55902 22.1531 3.08212e-17)
(4.17397 20.1084 -9.58632e-17)
(2.96018 17.7146 -4.80016e-16)
(2.03959 14.9945 4.47339e-16)
(1.5918 12.0367 6.06264e-16)
(1.70557 8.98112 -2.53139e-17)
(8.30381 22.0997 2.14498e-18)
(9.64535 23.6254 9.99691e-18)
(11.2778 25.1114 5.0978e-18)
(13.1539 26.4854 -5.36106e-17)
(15.2214 27.6287 1.44072e-16)
(17.4794 28.518 2.15193e-16)
(19.8536 29.1144 5.84718e-16)
(22.2694 29.3803 2.46048e-17)
(24.6698 29.3158 6.10348e-16)
(26.9969 28.9329 -1.19568e-15)
(29.1975 28.2514 -1.30082e-16)
(31.2377 27.2963 -3.34415e-16)
(33.0901 26.0977 1.51168e-15)
(34.7378 24.6883 -3.3328e-16)
(36.179 23.1023 -4.38905e-16)
(37.4729 21.3507 -6.31107e-16)
(38.6497 19.4639 1.95108e-15)
(39.7296 17.498 -1.555e-15)
(40.773 15.5026 -9.24668e-16)
(41.8253 13.5514 2.37263e-15)
(42.9476 11.6857 -1.87407e-15)
(44.0595 9.89369 -3.57745e-16)
(44.8713 8.03528 -4.50347e-16)
(44.9382 6.02642 6.38558e-16)
(44.1672 4.02937 -3.69347e-16)
(42.8124 2.28427 5.95247e-16)
(41.0973 0.902641 -1.14574e-16)
(39.0729 -0.182925 -8.58179e-17)
(36.6967 -1.07305 1.53184e-15)
(34.0086 -1.80055 2.17484e-16)
(31.2184 -2.36351 -3.02839e-15)
(28.6124 -2.76908 3.15998e-15)
(26.3426 -3.03944 -7.69399e-16)
(24.3394 -3.19787 1.52583e-16)
(22.4121 -3.25684 -3.40915e-15)
(7.20963 20.4926 3.83899e-18)
(6.25004 18.7378 -8.46964e-17)
(5.45267 16.6726 2.92104e-16)
(4.81236 14.3623 2.30236e-16)
(4.48419 11.8814 -6.55634e-16)
(4.5138 9.29942 -6.21898e-16)
(10.905 20.2245 1.19702e-17)
(12.1614 21.5194 -1.40375e-17)
(13.6681 22.7806 1.64237e-17)
(15.4018 23.9338 -2.30606e-17)
(17.3162 24.8886 -6.94239e-17)
(19.4176 25.6263 -1.78958e-16)
(21.65 26.1028 -2.87117e-16)
(23.9531 26.2832 1.03981e-16)
(26.2804 26.1596 6.91527e-16)
(28.5767 25.7336 -4.55387e-16)
(30.791 25.0185 -7.6657e-16)
(32.8839 24.0371 -1.16233e-15)
(34.8196 22.8239 1.31936e-15)
(36.5717 21.416 2.22662e-15)
(38.1296 19.8462 -1.98815e-15)
(39.4538 18.1664 -8.58703e-16)
(40.4986 16.4346 1.08875e-16)
(41.2604 14.6875 1.74581e-15)
(41.7488 12.9621 1.00845e-16)
(42.0124 11.2931 -2.52586e-15)
(42.1494 9.70729 3.36234e-15)
(42.3133 8.19888 -1.57223e-15)
(42.6085 6.68406 3.38235e-16)
(42.8882 5.07452 1.34214e-15)
(42.8478 3.43635 -8.00869e-16)
(42.3979 1.95672 6.69902e-16)
(41.7002 0.742619 7.42342e-17)
(40.906 -0.253756 -3.78721e-16)
(39.9987 -1.12303 -3.02645e-16)
(38.8188 -1.89604 -4.32117e-16)
(37.1766 -2.55661 4.84352e-16)
(34.9687 -3.07723 -4.98697e-15)
(32.2964 -3.43993 -5.14475e-15)
(29.4573 -3.64629 1.44364e-15)
(26.6833 -3.7089 5.6911e-15)
(9.84986 18.8697 -5.22603e-17)
(8.90317 17.4008 -2.10355e-17)
(8.07696 15.6681 3.58818e-16)
(7.38578 13.711 -1.58917e-16)
(6.96046 11.5991 9.40729e-16)
(12.4356 18.8257 -2.29766e-17)
(13.4919 19.975 7.30657e-18)
(14.7658 21.117 7.24335e-19)
(16.2229 22.1895 6.15064e-17)
(17.8231 23.1099 1.1195e-16)
(19.5872 23.8733 -3.03331e-16)
(21.4685 24.4402 4.33672e-16)
(23.4199 24.7754 1.92194e-16)
(25.4109 24.8687 5.37698e-16)
(27.395 24.7135 2.80595e-16)
(29.331 24.3115 -8.40403e-17)
(31.1841 23.6743 9.63133e-16)
(32.9203 22.8211 -2.01713e-15)
(34.5125 21.7733 1.41183e-16)
(35.94 20.5547 2.09185e-15)
(37.1823 19.1889 -1.03649e-15)
(38.2516 17.6716 1.07028e-15)
(39.1423 16.0257 -2.17234e-16)
(39.847 14.2843 6.94772e-17)
(40.3587 12.4938 2.56152e-15)
(40.6838 10.6938 -1.7539e-15)
(40.8485 8.91486 7.15467e-17)
(40.8957 7.14915 -3.84971e-16)
(40.818 5.39073 -1.76716e-15)
(40.5225 3.71113 6.44723e-16)
(39.9709 2.23096 -2.16206e-15)
(39.2736 1.00762 -8.18241e-17)
(38.5779 -0.00785346 2.69934e-16)
(37.9469 -0.895516 -2.23039e-16)
(37.3598 -1.69012 4.05471e-15)
(36.7509 -2.39467 1.55335e-15)
(35.9826 -3.0053 -7.22053e-16)
(34.8197 -3.50419 -4.10951e-15)
(33.0173 -3.85318 6.54036e-15)
(30.5262 -4.01659 -4.82228e-15)
(11.5428 17.6298 1.21312e-17)
(10.7393 16.3464 -1.52234e-16)
(10.0176 14.8316 5.98203e-17)
(9.38608 13.1241 3.82068e-17)
(8.96069 11.2879 -1.34035e-15)
(13.9267 17.5917 1.59567e-17)
(14.8866 18.6088 -2.81718e-17)
(16.0396 19.6253 5.55591e-18)
(17.3538 20.5825 4.95928e-18)
(18.7905 21.4074 -7.22708e-17)
(20.3794 22.1004 -8.80729e-17)
(22.0803 22.6231 -2.73515e-17)
(23.8553 22.9437 -4.37132e-16)
(25.6838 23.0488 -3.89772e-17)
(27.5275 22.9272 2.02767e-16)
(29.3511 22.5746 -3.45969e-16)
(31.125 21.9943 4.24867e-16)
(32.8157 21.1968 1.45031e-15)
(34.3952 20.1966 7.55182e-16)
(35.8391 19.0125 -2.99581e-15)
(37.1279 17.6657 2.00449e-15)
(38.2344 16.1964 6.39943e-16)
(39.1311 14.6553 -1.3423e-15)
(39.8079 13.0823 5.86733e-16)
(40.2722 11.5068 1.4496e-16)
(40.5418 9.94902 -5.4624e-16)
(40.6418 8.40649 2.87151e-15)
(40.5817 6.84783 1.30937e-16)
(40.3343 5.25412 2.35836e-15)
(39.8531 3.6883 -5.06627e-16)
(39.1399 2.26992 2.25449e-16)
(38.2852 1.07392 7.25903e-17)
(37.4045 0.0777918 -2.38011e-17)
(36.5571 -0.784088 -1.27601e-15)
(35.7533 -1.54809 -1.03537e-15)
(35.001 -2.22211 1.14722e-16)
(34.3245 -2.81054 3.68282e-15)
(33.7077 -3.31776 4.62537e-15)
(33.0174 -3.73751 2.34735e-15)
(31.9166 -4.03425 -2.5754e-15)
(13.107 16.5371 -3.7198e-17)
(12.3658 15.4123 -2.64406e-17)
(11.6863 14.081 8.90681e-17)
(11.0782 12.5764 -2.31485e-16)
(15.126 16.5487 -1.16274e-17)
(15.9878 17.462 -1.8692e-18)
(17.0228 18.3823 6.67217e-18)
(18.1971 19.2552 -1.86415e-17)
(19.4723 20.0152 1.12623e-16)
(20.8834 20.6687 -4.39013e-17)
(22.3938 21.1825 -8.03827e-17)
(23.9714 21.5275 1.85442e-16)
(25.6037 21.6923 2.47812e-16)
(27.2582 21.6653 -2.20574e-16)
(28.9064 21.4394 9.56539e-16)
(30.5241 21.0143 -5.01749e-16)
(32.081 20.3949 -1.36e-15)
(33.5502 19.5907 -2.40324e-15)
(34.908 18.6157 3.53196e-15)
(36.1302 17.4894 -1.60154e-15)
(37.1972 16.2325 -2.14396e-15)
(38.1009 14.8546 -1.32561e-15)
(38.8327 13.3785 -9.82813e-16)
(39.3887 11.8369 -1.41186e-16)
(39.7731 10.2616 -4.8404e-16)
(39.9942 8.67744 -3.32031e-15)
(40.0491 7.08561 1.34628e-15)
(39.9014 5.48691 -3.70717e-15)
(39.502 3.93381 2.97398e-16)
(38.8529 2.52208 3.19564e-16)
(38.0323 1.31668 -8.14489e-17)
(37.1404 0.303608 2.6981e-16)
(36.2277 -0.572653 8.39616e-16)
(35.2967 -1.34514 1.56487e-16)
(34.3477 -2.02026 1.0974e-16)
(33.4072 -2.60141 -3.16489e-15)
(32.5179 -3.09392 5.20036e-15)
(31.7344 -3.50197 1.77822e-15)
(31.0434 -3.82246 3.2448e-15)
(14.3842 15.6039 -1.28996e-19)
(13.7103 14.6026 1.01007e-16)
(13.0802 13.4153 -1.04691e-16)
(12.5035 12.0724 5.51498e-16)
(16.1811 15.63 -8.41389e-20)
(16.9712 16.4539 2.65041e-18)
(17.9185 17.2878 3.24428e-18)
(18.9894 18.0804 -2.51616e-20)
(20.1454 18.7725 -2.4736e-17)
(21.4244 19.3744 -2.15857e-16)
(22.7932 19.8551 1.41776e-17)
(24.2239 20.1887 2.33104e-16)
(25.7097 20.365 -5.68743e-16)
(27.2238 20.3715 -3.21244e-16)
(28.7429 20.1993 6.41867e-17)
(30.2478 19.8446 7.7196e-16)
(31.7122 19.3074 2.19739e-15)
(33.112 18.5914 3.1301e-15)
(34.4237 17.7049 8.84892e-17)
(35.6236 16.6607 -1.8717e-16)
(36.6917 15.4745 2.7381e-15)
(37.6061 14.1755 2.37462e-15)
(38.3494 12.7986 -1.23532e-17)
(38.9156 11.3728 -2.36039e-15)
(39.3089 9.92147 8.03247e-16)
(39.5394 8.45711 9.71277e-16)
(39.6105 6.97777 -1.75639e-16)
(39.4994 5.48357 1.44211e-15)
(39.1651 4.01649 -8.03177e-16)
(38.6003 2.65879 -3.80359e-16)
(37.863 1.47457 -1.27432e-17)
(37.037 0.463296 -4.18368e-16)
(36.1682 -0.416823 -1.34402e-16)
(35.257 -1.19364 -2.57448e-15)
(34.2934 -1.87168 1.12652e-15)
(33.28 -2.45133 -2.59935e-15)
(32.2291 -2.93488 -5.86815e-15)
(31.1764 -3.32378 3.09865e-16)
(30.1754 -3.61546 -1.90179e-15)
(15.4962 14.7793 -1.63318e-17)
(14.8723 13.8813 -5.80609e-17)
(14.2801 12.8145 1.0608e-16)
(13.7295 11.6058 -4.32549e-16)
(17.092 14.8184 -1.39057e-17)
(17.8198 15.5665 -2.59233e-17)
(18.6912 16.3266 1.07595e-17)
(19.6724 17.0508 7.96583e-18)
(20.7254 17.6846 3.54135e-17)
(21.8889 18.2414 1.0026e-16)
(23.1323 18.6935 2.39846e-16)
(24.4306 19.0174 2.6156e-16)
(25.781 19.2055 -2.56596e-16)
(27.1605 19.2458 -6.08932e-17)
(28.5503 19.1294 -1.19092e-16)
(29.9356 18.8512 -1.95503e-15)
(31.2938 18.4088 5.00943e-16)
(32.6034 17.8031 -2.03103e-15)
(33.8429 17.0389 -5.43462e-16)
(34.9894 16.1254 6.65089e-16)
(36.0213 15.0775 -1.84187e-15)
(36.9204 13.9115 -1.00427e-15)
(37.6728 12.6452 -4.81744e-16)
(38.2687 11.3017 1.56116e-15)
(38.7051 9.90584 1.18433e-16)
(38.9826 8.47908 7.15987e-16)
(39.0986 7.03322 1.35565e-15)
(39.035 5.57987 -2.75672e-16)
(38.7615 4.1565 -8.16466e-18)
(38.272 2.82941 1.17782e-15)
(37.6128 1.6549 2.18006e-16)
(36.8563 0.639427 -4.35615e-17)
(36.0477 -0.248789 2.895e-16)
(35.1917 -1.03417 -2.60725e-16)
(34.2797 -1.72123 -2.97191e-15)
(33.3081 -2.3094 5.58509e-15)
(32.2725 -2.79899 -5.90394e-15)
(31.1718 -3.1875 -6.15511e-15)
(30.0013 -3.46793 5.72645e-15)
(16.4572 14.0468 8.58831e-18)
(15.8772 13.2353 1.2248e-16)
(15.3195 12.2692 -4.23379e-17)
(21.2522 16.7108 -1.01325e-17)
(22.32 17.2236 -3.78512e-17)
(23.459 17.6437 -3.68674e-16)
(24.6465 17.9507 6.43795e-17)
(25.8825 18.1381 -1.83957e-16)
(27.1472 18.1949 4.30693e-16)
(28.4256 18.1123 -4.3796e-16)
(29.7064 17.8847 1.2419e-15)
(30.9705 17.5077 -8.76456e-17)
(32.1998 16.9792 -7.44273e-17)
(33.3748 16.3008 -3.71659e-16)
(34.474 15.478 -1.7404e-16)
(35.4767 14.5204 6.47277e-16)
(36.3642 13.4417 1.31188e-15)
(37.1183 12.2637 1.346e-15)
(37.7258 11.0099 8.89743e-16)
(38.1806 9.70193 7.01026e-16)
(38.4808 8.3576 1.44253e-16)
(38.6224 6.9887 -9.14296e-16)
(38.5908 5.60841 -2.11058e-17)
(38.3628 4.24935 5.91359e-16)
(37.9325 2.96727 -8.82383e-16)
(37.3358 1.8143 -1.89207e-16)
(36.6345 0.804015 -1.52096e-16)
(35.8722 -0.0855038 -2.955e-16)
(35.0588 -0.874594 2.57492e-15)
(34.1908 -1.56733 2.43454e-15)
(33.2671 -2.16271 -1.32608e-15)
(32.2841 -2.66033 2.40797e-15)
(31.2345 -3.05639 -8.72829e-16)
(30.0871 -3.34104 -2.96993e-15)
(23.7557 16.6983 1.34219e-16)
(24.8464 16.9874 2.05393e-16)
(25.9812 17.1705 1.49206e-16)
(27.1429 17.238 -5.44211e-16)
(28.3194 17.1822 9.31874e-17)
(29.5024 16.9968 -4.15462e-16)
(30.6758 16.677 -1.18689e-16)
(31.8242 16.2193 -3.57419e-16)
(32.9306 15.6231 2.72898e-16)
(33.9754 14.891 4.69106e-16)
(34.939 14.0298 -1.07514e-16)
(35.8025 13.0509 -1.43304e-15)
(36.5489 11.9683 -7.87211e-16)
(37.1638 10.8001 -8.68553e-16)
(37.6374 9.56605 -3.23445e-16)
(37.9637 8.28546 -6.80554e-16)
(38.1358 6.97497 -1.18021e-16)
(38.1405 5.65225 1.08223e-15)
(37.9592 4.34714 2.51983e-17)
(37.5862 3.10561 5.53427e-16)
(37.0492 1.97391 1.05276e-16)
(36.4001 0.969888 5.01913e-16)
(35.6795 0.079926 5.17457e-16)
(34.9009 -0.712011 -2.95587e-15)
(34.0645 -1.40923 -1.00173e-15)
(33.1726 -2.01023 -4.86436e-15)
(32.2256 -2.51411 5.10393e-15)
(31.2218 -2.91689 3.60284e-16)
(30.1334 -3.20866 2.39398e-15)
(26.0821 16.2829 4.40913e-16)
(27.1529 16.3548 2.35756e-16)
(28.2385 16.3167 3.45866e-16)
(29.3331 16.1626 -1.82814e-16)
(30.4229 15.8874 -7.21882e-16)
(31.4954 15.4863 1.57359e-15)
(32.536 14.9572 -6.4821e-16)
(33.5269 14.3004 -6.77331e-16)
(34.4502 13.52 -4.44163e-16)
(35.2876 12.6239 1.29946e-15)
(36.0219 11.6238 1.55939e-15)
(36.6371 10.5365 4.33001e-16)
(37.1208 9.37993 -1.81423e-15)
(37.4648 8.17206 4.03275e-16)
(37.6607 6.92984 -8.19252e-17)
(37.6965 5.67205 3.34779e-16)
(37.5573 4.42575 -1.54911e-16)
(37.2374 3.22936 1.15632e-16)
(36.7575 2.12409 4.62447e-17)
(36.1599 1.13107 -2.6916e-16)
(35.4815 0.244199 4.48823e-16)
(34.7374 -0.548176 1.91517e-15)
(33.9305 -1.24809 4.62695e-17)
(33.0642 -1.85321 5.01044e-15)
(32.141 -2.36183 2.12941e-15)
(31.1634 -2.76938 -2.36922e-15)
(30.1113 -3.06667 -3.31346e-15)
(27.1687 15.541 4.27985e-16)
(28.1724 15.5151 -8.81959e-16)
(29.186 15.3854 -6.09153e-17)
(30.1981 15.1466 1.12505e-15)
(31.1984 14.7936 -5.35081e-16)
(32.1746 14.3231 5.9627e-16)
(33.111 13.734 1.09432e-15)
(33.9912 13.0281 -2.42801e-15)
(34.7978 12.2109 -8.39562e-16)
(35.5141 11.2913 -1.79654e-15)
(36.124 10.2821 -5.41302e-16)
(36.6134 9.19914 1.46673e-15)
(36.9718 8.05979 -5.96527e-17)
(37.1891 6.88187 -3.70463e-16)
(37.2542 5.68549 -1.0193e-15)
(37.1544 4.4956 6.56673e-17)
(36.8843 3.34424 -5.63294e-16)
(36.4587 2.26757 -1.62249e-17)
(35.9121 1.28859 -8.12011e-17)
(35.277 0.407352 -8.06793e-16)
(34.5693 -0.383484 -3.35011e-16)
(33.7936 -1.08461 2.37893e-16)
(32.9542 -1.69279 7.61514e-16)
(32.0539 -2.20527 -3.10822e-15)
(31.0962 -2.61658 -4.12074e-15)
(30.0658 -2.91794 -1.68059e-16)
(28.1183 14.7698 8.39838e-17)
(29.0584 14.6584 -2.03196e-16)
(29.9989 14.4487 -4.21027e-16)
(30.9316 14.1354 5.24136e-16)
(31.8463 13.7145 -2.33842e-15)
(32.7293 13.1837 -3.45809e-16)
(33.5657 12.5433 9.25091e-16)
(34.3392 11.7963 -4.31309e-16)
(35.034 10.9495 4.1572e-16)
(35.634 10.0134 -5.06792e-18)
(36.1239 9.00205 -4.34452e-16)
(36.4916 7.93142 4.14031e-16)
(36.7262 6.81899 2.26037e-16)
(36.8169 5.68491 5.68379e-16)
(36.7527 4.55214 1.19509e-16)
(36.5282 3.44736 2.47362e-17)
(36.1537 2.40233 -8.32324e-17)
(35.6564 1.44098 1.39089e-16)
(35.0647 0.568384 2.0963e-16)
(34.3945 -0.218709 3.867e-16)
(33.6518 -0.919411 -1.45927e-15)
(32.8415 -1.52947 -1.93655e-15)
(31.9665 -2.04507 1.18376e-15)
(31.0304 -2.45967 1.22087e-14)
(30.0207 -2.76428 2.42041e-15)
(28.0723 14.0764 -3.10966e-16)
(28.9454 13.9789 -1.22285e-16)
(29.82 13.7926 2.85087e-16)
(30.6896 13.5124 -6.23918e-16)
(31.5458 13.1341 5.17255e-16)
(32.3765 12.6544 -4.33251e-16)
(33.1687 12.0724 1.02644e-15)
(33.9074 11.3895 2.69065e-15)
(34.5775 10.6106 1.7643e-15)
(35.1637 9.74344 2.85369e-16)
(35.65 8.80036 -3.33827e-16)
(36.0231 7.79605 -3.4075e-17)
(36.2715 6.74736 -9.71783e-16)
(36.3846 5.67422 2.32343e-17)
(36.3526 4.59771 4.08435e-16)
(36.1698 3.54002 7.06257e-17)
(35.8431 2.52874 2.06003e-17)
(35.3933 1.58797 5.10198e-18)
(34.8445 0.726774 -8.193e-16)
(34.2123 -0.0543842 -1.6628e-15)
(33.5036 -0.752952 4.16363e-16)
(32.7237 -1.36361 2.98364e-16)
(31.8761 -1.88142 -2.81833e-15)
(30.9644 -2.29886 -1.13319e-14)
(29.9781 -2.6063 -2.74404e-15)
(28.8441 13.3426 3.49864e-16)
(29.6581 13.1752 -2.7341e-16)
(30.469 12.9227 -8.66211e-17)
(31.2697 12.5806 4.96618e-16)
(32.0502 12.1454 2.12608e-15)
(32.7986 11.6151 -2.65507e-15)
(33.5018 10.9897 1.08852e-16)
(34.1451 10.2728 -1.27056e-15)
(34.7143 9.46988 1.95193e-16)
(35.1933 8.5917 -1.25801e-15)
(35.5681 7.65154 -3.28414e-16)
(35.8268 6.66535 -6.21502e-17)
(35.9589 5.65228 2.25876e-16)
(35.9553 4.63152 -5.40288e-16)
(35.8105 3.62151 5.41094e-17)
(35.528 2.64606 3.14334e-17)
(35.1235 1.72881 -1.05444e-16)
(34.617 0.881838 7.92271e-16)
(34.0229 0.1089 8.19935e-16)
(33.3488 -0.585687 1.49437e-15)
(32.6003 -1.19556 9.45731e-16)
(31.7813 -1.71455 1.9347e-15)
(30.8957 -2.13424 4.23689e-15)
(29.9349 -2.44417 3.02172e-15)
(29.5101 12.5946 -1.58877e-16)
(30.2663 12.3651 3.60549e-17)
(31.015 12.0541 7.93676e-16)
(31.7473 11.6575 -6.33561e-16)
(32.453 11.173 2.30066e-15)
(33.1202 10.5995 -1.1334e-15)
(33.7354 9.93922 4.84044e-16)
(34.285 9.19622 3.45366e-16)
(34.7537 8.37931 1.78974e-15)
(35.1269 7.50054 4.14435e-16)
(35.3926 6.57486 8.51044e-16)
(35.5403 5.6204 -2.26795e-16)
(35.5618 4.65449 -5.10252e-16)
(35.4511 3.69228 3.47617e-16)
(35.2094 2.75423 2.34143e-17)
(34.8479 1.86305 -3.17469e-16)
(34.3827 1.03296 -5.43295e-16)
(33.8266 0.270535 1.62521e-15)
(33.1875 -0.418182 -1.04977e-15)
(32.4712 -1.02574 -5.84517e-16)
(31.6817 -1.54484 -2.19278e-15)
(30.8235 -1.96605 4.36442e-16)
(29.8895 -2.27811 4.87404e-16)
(29.3737 12.0481 1.89535e-16)
(30.0793 11.8379 1.15533e-16)
(30.7791 11.5534 -1.28055e-15)
(31.4655 11.1906 5.83247e-16)
(32.1298 10.7465 -2.09693e-15)
(32.7613 10.2197 8.06053e-16)
(33.3474 9.61098 -8.8847e-16)
(33.8756 8.9235 -8.76877e-16)
(34.3314 8.16418 2.91837e-16)
(34.7002 7.34393 -1.63279e-15)
(34.9697 6.47662 -9.5812e-16)
(35.13 5.57912 4.63449e-16)
(35.1729 4.66703 7.11246e-16)
(35.0927 3.75258 8.36379e-17)
(34.8884 2.85316 9.95745e-18)
(34.5674 1.9903 2.5129e-16)
(34.1422 1.17959 -1.09997e-16)
(33.6238 0.429955 -1.19876e-15)
(33.02 -0.250963 -2.25335e-16)
(32.3364 -0.854634 -8.46362e-16)
(31.5773 -1.37263 -4.74768e-17)
(30.7476 -1.79453 -3.50633e-16)
(29.8417 -2.10833 -3.15018e-16)
(29.9055 11.3399 2.41659e-16)
(30.5595 11.0782 3.86122e-16)
(31.2025 10.7448 -1.98905e-16)
(31.8269 10.3366 2.1192e-15)
(32.4231 9.85159 -5.07865e-16)
(32.9799 9.28977 8.20191e-16)
(33.4855 8.65342 -9.20373e-16)
(33.9264 7.94795 4.21981e-16)
(34.2883 7.18316 1.54295e-15)
(34.5589 6.37172 8.67148e-16)
(34.7286 5.52925 -5.07759e-16)
(34.7897 4.66966 -2.57608e-16)
(34.7363 3.80263 -4.59688e-16)
(34.5659 2.94276 1.37063e-17)
(34.2828 2.11017 -1.57641e-16)
(33.8961 1.32119 3.78633e-16)
(33.4149 0.586557 2.78574e-16)
(32.8464 -0.0846143 5.66752e-16)
(32.1961 -0.682768 5.02282e-16)
(31.4683 -1.1984 -4.20379e-16)
(30.668 -1.6201 -6.64735e-17)
(29.7913 -1.93514 -2.29273e-15)
(29.7428 10.8694 1.23972e-15)
(30.3541 10.6273 -2.99247e-16)
(30.9561 10.3197 5.88669e-16)
(31.5423 9.94326 -6.4089e-16)
(32.1043 9.4957 -7.34745e-16)
(32.6319 8.97647 -1.09238e-15)
(33.1141 8.38719 1.74758e-15)
(33.5385 7.73192 -1.52857e-15)
(33.8914 7.0194 8.99165e-16)
(34.1607 6.26116 -7.62374e-16)
(34.3369 5.47165 1.9148e-17)
(34.413 4.66312 -2.45739e-17)
(34.383 3.84292 9.64905e-17)
(34.2433 3.02317 3.12786e-17)
(33.9953 2.22244 3.63634e-17)
(33.6452 1.45728 -3.11807e-16)
(33.2004 0.739769 2.27952e-18)
(32.667 0.0802834 -6.4499e-16)
(32.0503 -0.510668 1.48862e-16)
(31.3545 -1.02258 2.22091e-15)
(30.5846 -1.44314 -1.07596e-17)
(29.7384 -1.75886 -4.337e-16)
(30.1613 10.1998 -8.25881e-17)
(30.7247 9.91474 -1.15501e-15)
(31.2746 9.56656 1.79722e-16)
(31.8034 9.15271 1.13813e-16)
(32.3021 8.67221 1.74372e-16)
(32.7604 8.12606 5.6501e-16)
(33.1672 7.51741 1.17697e-15)
(33.5094 6.85396 -2.26122e-15)
(33.7752 6.14616 5.11798e-16)
(33.9555 5.40729 -7.63878e-17)
(34.0436 4.64812 7.50067e-16)
(34.0338 3.87395 3.06204e-17)
(33.9213 3.09456 -1.7942e-17)
(33.7057 2.32696 2.81634e-16)
(33.3903 1.58749 4.5278e-16)
(32.9808 0.889078 4.36326e-16)
(32.4822 0.243161 -2.486e-17)
(31.8993 -0.338912 -1.32268e-15)
(31.236 -0.845731 -2.4568e-15)
(30.4975 -1.26413 7.71694e-16)
(29.6827 -1.5799 1.56631e-15)
(29.9797 9.79484 -7.99317e-16)
(30.5067 9.52968 2.09604e-16)
(31.022 9.20658 7.78539e-16)
(31.5189 8.82295 -9.56252e-16)
(31.9893 8.37754 3.26931e-16)
(32.4239 7.87083 -6.13704e-16)
(32.8122 7.30539 -1.84136e-15)
(33.1424 6.68786 2.33138e-16)
(33.4028 6.0277 -1.89802e-16)
(33.5849 5.33711 -2.36843e-16)
(33.6822 4.62548 -6.48702e-16)
(33.6894 3.89627 -2.06266e-16)
(33.6012 3.15721 7.10452e-17)
(33.415 2.42367 -1.19912e-16)
(33.1324 1.71146 -4.3588e-16)
(32.7569 1.034 -1.9319e-16)
(32.2925 0.403457 1.28971e-15)
(31.7433 -0.168043 1.46387e-15)
(31.1131 -0.668357 3.85919e-15)
(30.4067 -1.08357 -5.15417e-16)
(29.6242 -1.39874 -1.54452e-16)
(30.3008 9.16373 -9.01341e-16)
(30.7833 8.86299 -3.61971e-16)
(31.2497 8.50652 -1.58068e-16)
(31.6927 8.09297 2.6379e-16)
(32.1036 7.62236 1.00176e-15)
(32.4731 7.09687 7.37787e-16)
(32.7901 6.52218 5.43233e-16)
(33.0436 5.90684 7.33004e-16)
(33.2254 5.26208 5.94457e-16)
(33.3296 4.59601 5.69216e-16)
(33.3509 3.91053 1.2296e-16)
(33.2838 3.21148 -6.64187e-17)
(33.1244 2.51261 -1.78475e-16)
(32.8723 1.82897 4.58727e-16)
(32.5294 1.17406 -5.26585e-16)
(32.0984 0.560643 -4.9662e-16)
(31.5828 0.00133809 6.77956e-16)
(30.9858 -0.491044 1.43268e-15)
(30.3121 -0.90196 1.51684e-15)
(29.5628 -1.21584 -1.39948e-15)
(30.1056 8.81639 7.33243e-16)
(30.5573 8.53562 -4.06524e-16)
(30.9946 8.20363 3.86057e-16)
(31.411 7.81899 -4.69325e-16)
(31.7986 7.38142 -9.37436e-16)
(32.1491 6.89276 3.96841e-16)
(32.4522 6.35792 2.40831e-16)
(32.6976 5.78459 -6.74683e-16)
(32.8773 5.18312 -4.67522e-17)
(32.986 4.56056 -2.53649e-16)
(33.0189 3.91739 -9.97144e-17)
(32.9701 3.25778 1.27628e-17)
(32.8349 2.59386 1.80262e-16)
(32.611 1.93981 -2.05617e-16)
(32.299 1.30891 6.90711e-16)
(31.9005 0.714205 -8.60226e-17)
(31.418 0.168621 -3.83012e-16)
(30.8543 -0.314407 -3.35863e-15)
(30.2138 -0.719918 -1.35816e-15)
(29.4985 -1.03177 1.35237e-15)
(29.9202 8.48692 2.50429e-16)
(30.3428 8.22405 -3.51818e-16)
(30.7524 7.91416 9.70067e-16)
(31.1432 7.55574 -4.14622e-16)
(31.5083 7.14839 6.3694e-16)
(31.8398 6.69366 -2.82897e-16)
(32.1285 6.19575 -7.20634e-16)
(32.3647 5.66178 1.82511e-16)
(32.5409 5.10118 -3.46392e-17)
(32.6522 4.52004 5.13327e-17)
(32.6942 3.91764 1.16801e-16)
(32.6611 3.29663 -9.77597e-18)
(32.5473 2.66769 -9.98447e-17)
(32.3495 2.04392 -1.65866e-16)
(32.0667 1.43826 -6.55542e-16)
(31.6994 0.863633 -2.77313e-16)
(31.2494 0.333322 9.56274e-17)
(30.719 -0.139019 1.09672e-16)
(30.112 -0.537982 8.44305e-16)
(29.4312 -0.847053 9.41101e-16)
(30.1387 7.92796 1.08913e-15)
(30.5221 7.63806 1.82771e-16)
(30.8886 7.30352 3.44986e-16)
(31.2317 6.9238 -6.01111e-16)
(31.5445 6.50031 -1.60899e-17)
(31.8185 6.03665 6.94793e-16)
(32.0448 5.53937 3.53996e-16)
(32.2162 5.01717 -2.8122e-16)
(32.3283 4.47526 -2.45779e-16)
(32.3773 3.91195 -4.65293e-17)
(32.3574 3.32853 4.21269e-17)
(32.2625 2.73433 1.67372e-16)
(32.0885 2.14132 1.56744e-17)
(31.8331 1.56179 6.66133e-16)
(31.4959 1.00854 -7.86941e-16)
(31.0777 0.494817 -1.69228e-15)
(30.5802 0.0344952 2.23217e-16)
(30.0069 -0.356783 -1.05978e-15)
(29.3608 -0.66232 -1.74949e-15)
(29.9444 7.64679 -3.22566e-16)
(30.303 7.37502 -8.95525e-17)
(30.6461 7.06224 8.20347e-16)
(30.9682 6.70782 -4.94096e-16)
(31.2626 6.31305 8.31545e-17)
(31.5218 5.88115 -3.80943e-16)
(31.7376 5.41806 -2.39948e-16)
(31.9032 4.93184 7.49676e-17)
(32.0147 4.42704 2.59546e-16)
(32.0688 3.90104 -1.31365e-17)
(32.0599 3.35409 -5.32055e-17)
(31.9816 2.79411 -1.13724e-16)
(31.8291 2.23204 8.66677e-17)
(31.5992 1.67936 -9.22513e-17)
(31.2906 1.14853 1.23726e-15)
(30.9033 0.652638 1.4398e-15)
(30.4382 0.205586 -6.90972e-17)
(29.8986 -0.177001 -4.47138e-16)
(29.2876 -0.478163 4.00013e-16)
(29.759 7.38017 -3.65672e-16)
(30.0941 7.1249 -1.69063e-15)
(30.4151 6.83199 -3.46012e-16)
(30.7169 6.50079 -3.05822e-16)
(30.9935 6.13241 9.14499e-16)
(31.2379 5.72988 9.67278e-16)
(31.4429 5.29859 -2.99809e-16)
(31.6019 4.84605 -1.5796e-16)
(31.7116 4.37618 1.37862e-16)
(31.7691 3.88571 -2.11755e-16)
(31.7691 3.37386 3.69292e-17)
(31.7053 2.84745 1.28821e-16)
(31.5722 2.3162 -1.66592e-16)
(31.3659 1.79087 -3.36994e-16)
(31.0844 1.2833 -5.69555e-17)
(30.7268 0.806265 -1.533e-15)
(30.2936 0.37361 -9.04231e-16)
(29.7874 0.000807571 3.7083e-16)
(29.2115 -0.295259 1.3235e-15)
(29.8948 6.88734 6.38686e-17)
(30.1948 6.61257 6.01405e-16)
(30.4772 6.30268 3.22615e-16)
(30.7365 5.95863 -1.10469e-15)
(30.9665 5.58322 -3.6985e-16)
(31.1603 5.18151 5.67439e-16)
(31.3123 4.76042 -1.46992e-16)
(31.4191 4.32337 -1.11689e-16)
(31.4786 3.8666 5.70456e-17)
(31.4858 3.38848 -3.29714e-17)
(31.4343 2.89471 2.35391e-19)
(31.3185 2.39402 -1.28531e-16)
(31.134 1.89623 2.56613e-16)
(30.878 1.41254 -4.02659e-16)
(30.5489 0.955317 6.61094e-16)
(30.1468 0.538023 -5.74954e-16)
(29.6736 0.175969 2.50267e-16)
(29.1326 -0.114189 -1.03997e-15)
(29.7045 6.66203 3.56406e-16)
(29.9846 6.4039 -7.84518e-16)
(30.2484 6.11358 4.73648e-16)
(30.4911 5.79194 6.53862e-16)
(30.7069 5.44166 -3.18827e-17)
(30.8897 5.06738 2.52622e-16)
(31.034 4.6756 -1.59895e-16)
(31.1372 4.26937 8.991e-17)
(31.1975 3.84444 -3.58484e-17)
(31.2102 3.39854 1.5137e-17)
(31.1693 2.9364 -2.75632e-17)
(31.0688 2.46574 -1.04474e-16)
(30.9043 1.99547 2.78718e-16)
(30.6721 1.53609 -4.48654e-17)
(30.3703 1.09935 -6.27158e-16)
(29.9983 0.698337 2.45073e-15)
(29.5575 0.347883 -9.6318e-16)
(29.0511 0.0644099 -6.34456e-17)
(29.5224 6.44855 -2.32099e-16)
(29.7838 6.20573 2.74474e-16)
(30.03 5.93345 -2.3334e-16)
(30.2567 5.6325 -4.51031e-16)
(30.4587 5.30546 7.96201e-17)
(30.6305 4.95666 -7.99572e-16)
(30.767 4.59218 3.77826e-16)
(30.866 4.21476 -1.80988e-16)
(30.9259 3.81987 -1.07684e-16)
(30.9429 3.40462 4.28646e-18)
(30.9108 2.97295 -5.14059e-17)
(30.824 2.53164 1.46292e-16)
(30.6775 2.08868 -3.41702e-16)
(30.4675 1.6538 -1.95035e-17)
(30.1916 1.23806 2.80165e-16)
(29.8486 0.85402 5.92202e-16)
(29.4395 0.515998 4.05232e-16)
(28.9671 0.239891 8.30931e-16)
(29.5918 6.01792 -3.95137e-16)
(29.8214 5.76225 -4.30752e-16)
(30.0328 5.4804 1.18405e-15)
(30.2215 5.17485 1.38402e-16)
(30.3825 4.84969 -1.24842e-16)
(30.511 4.51064 -3.72024e-18)
(30.6053 4.16014 -9.33601e-17)
(30.6641 3.79347 1.00615e-16)
(30.6841 3.40731 -1.26201e-17)
(30.6594 3.00486 3.79057e-17)
(30.5845 2.59202 -1.02254e-16)
(30.4544 2.17596 -6.79642e-17)
(30.265 1.76555 3.10802e-17)
(30.0135 1.37117 9.41798e-16)
(29.6983 1.00466 -1.66315e-15)
(29.3199 0.679738 -2.71034e-17)
(28.8809 0.411676 -6.54123e-16)
(29.4082 5.8401 9.9338e-17)
(29.622 5.5998 5.46079e-16)
(29.819 5.33562 -4.82594e-16)
(29.9949 5.04999 1.40061e-16)
(30.1452 4.74675 6.84685e-16)
(30.2658 4.43134 3.19439e-16)
(30.355 4.10596 1.47843e-16)
(30.4121 3.76578 -7.91205e-17)
(30.4341 3.40713 7.28142e-18)
(30.4155 3.03256 3.47728e-17)
(30.351 2.64724 2.3462e-17)
(30.2356 2.25748 1.63437e-16)
(30.0652 1.87136 4.86404e-16)
(29.8366 1.49844 -7.68246e-16)
(29.5479 1.14988 1.55198e-15)
(29.1992 0.838615 -4.32393e-16)
(28.7926 0.579211 5.31305e-16)
(29.2326 5.67203 -2.48607e-15)
(29.4315 5.44596 2.03013e-16)
(29.6146 5.19817 2.98501e-16)
(29.7783 4.931 -5.57185e-16)
(29.9184 4.6481 2.51997e-16)
(30.0311 4.35468 -3.05939e-16)
(30.1151 4.05272 8.25128e-18)
(30.17 3.73732 -3.96432e-17)
(30.193 3.40459 -3.37897e-18)
(30.1794 3.05655 2.95336e-17)
(30.1239 2.69764 9.17031e-17)
(30.0218 2.33345 2.10742e-16)
(29.8687 1.97121 -4.63518e-16)
(29.6615 1.61973 8.62703e-17)
(29.3979 1.28934 9.12912e-17)
(29.0777 0.99218 1.47618e-16)
(29.2493 5.30053 -3.64016e-16)
(29.4194 5.06793 -7.18993e-16)
(29.5714 4.81791 7.07462e-17)
(29.7016 4.55391 -4.19898e-16)
(29.8066 4.28091 3.70556e-16)
(29.8853 4.00074 -1.80136e-16)
(29.9375 3.7085 4.73509e-17)
(29.9611 3.40015 -4.31192e-19)
(29.9514 3.07723 -6.51773e-17)
(29.9037 2.74358 -1.12328e-16)
(29.8134 2.40408 5.17701e-18)
(29.6762 2.0652 -3.42697e-16)
(29.4889 1.73493 2.61784e-16)
(29.249 1.42279 -1.20188e-15)
(28.9559 1.14003 3.67832e-16)
(29.075 5.16328 4.58762e-16)
(29.2329 4.94481 7.69849e-16)
(29.3738 4.7107 -5.99388e-16)
(29.4945 4.46426 3.50331e-16)
(29.592 4.21025 -3.43178e-16)
(29.6654 3.95036 2.82342e-17)
(29.7148 3.67972 -1.9016e-17)
(29.7382 3.39423 -2.25078e-17)
(29.7317 3.09502 2.66723e-17)
(29.6907 2.78541 -3.39996e-17)
(29.6109 2.46963 7.01126e-17)
(29.4882 2.15342 4.92955e-16)
(29.3192 1.84399 -6.30856e-17)
(29.1016 1.55001 3.08227e-16)
(28.8342 1.28183 -4.8035e-16)
(28.9083 5.03396 5.77396e-16)
(29.0546 4.82866 -4.69182e-16)
(29.1851 4.60935 8.17798e-16)
(29.2968 4.37923 -7.20881e-16)
(29.3871 4.14286 -1.65693e-16)
(29.4552 3.90182 -5.70219e-18)
(29.5015 3.65132 -1.57088e-16)
(29.5245 3.3872 -2.83728e-18)
(29.5204 3.11031 5.98344e-17)
(29.4852 2.82347 -3.22665e-17)
(29.4147 2.53035 -1.21633e-16)
(29.305 2.23603 -3.97805e-16)
(29.153 1.94693 -4.70022e-16)
(28.9561 1.67088 6.44942e-16)
(28.713 1.41735 2.64121e-16)
(28.7489 4.91232 -1.47337e-15)
(28.8843 4.71928 -1.15243e-16)
(29.0049 4.51374 -4.61641e-16)
(29.1081 4.29881 4.5837e-16)
(29.1914 4.07883 1.22594e-16)
(29.2544 3.85531 2.51264e-16)
(29.2977 3.62354 1.48271e-16)
(29.3198 3.37938 -2.74263e-17)
(29.3176 3.12342 -1.70339e-17)
(29.2873 2.85809 9.07066e-17)