/*--------------------------------*- C++ -*----------------------------------*\
| =========                 |                                                 |
| \\      /  F ield         | OpenFOAM: The Open Source CFD Toolbox           |
|  \\    /   O peration     | Version:  2506                                  |
|   \\  /    A nd           | Website:  www.openfoam.com                      |
|    \\/     M anipulation  |                                                 |
\*---------------------------------------------------------------------------*/
FoamFile
{
    version     2.0;
    format      ascii;
    arch        "LSB;label=32;scalar=64";
    class       volScalarField;
    location    "7";
    object      p;
}
// * * * * * * * * * * * * * * * * * * * * * * * * * * * * * * * * * * * * * //

dimensions      [0 2 -2 0 0 0 0];

internalField   nonuniform List<scalar> 
400
(
3.40173e-10
-4.15491e-05
-1.38121e-05
7.10838e-05
0.000210243
0.000407976
0.000673619
0.00102092
0.0014665
0.00202626
0.00270785
0.00349921
0.00435457
0.00516902
0.00580631
0.00614033
0.00614076
0.00590283
0.00556441
0.00541604
4.91059e-05
7.39099e-06
4.66809e-05
0.000139876
0.000281531
0.00047685
0.000734722
0.00106745
0.00149035
0.00201975
0.00266654
0.00342401
0.00425512
0.00506296
0.0056978
0.00602115
0.00599952
0.00573672
0.00541275
0.00526781
-1.20497e-05
-6.32223e-05
-2.36178e-05
6.67839e-05
0.000199264
0.000378537
0.000612889
0.000914536
0.00130059
0.001793
0.00241365
0.00317091
0.00404186
0.00491848
0.00561859
0.00595909
0.00589167
0.00554413
0.00513534
0.00495621
-0.000200908
-0.000261386
-0.000228525
-0.000150585
-3.8715e-05
0.000110767
0.000305205
0.000556841
0.000885167
0.00131943
0.00189723
0.00264956
0.00356931
0.00455619
0.00537384
0.00576178
0.00564371
0.00518392
0.00464366
0.00440725
-0.000535174
-0.000603069
-0.000582964
-0.000527202
-0.00044835
-0.000344228
-0.000209451
-3.34263e-05
0.000202606
0.000530098
0.00099964
0.00167212
0.00257065
0.00365733
0.00464542
0.00517573
0.00510089
0.00457211
0.00390953
0.00350422
-0.00101877
-0.00109363
-0.0010929
-0.00107005
-0.00103886
-0.001
-0.000952726
-0.000892818
-0.000811401
-0.000694017
-0.000504488
-0.000152591
0.000480494
0.00145234
0.00258001
0.00347965
0.00386544
0.00364227
0.00304315
0.00214215
-0.00164215
-0.00172437
-0.00174989
-0.00177165
-0.00180532
-0.00185698
-0.00193572
-0.00205313
-0.00222806
-0.00250354
-0.00293681
-0.00347567
-0.00380395
-0.00354649
-0.00254904
-0.000983489
0.000725195
0.00186829
0.00192162
0.000412777
-0.00238539
-0.00247531
-0.00253326
-0.00261088
-0.00272718
-0.00289735
-0.00314769
-0.00352009
-0.00408867
-0.00501152
-0.00654929
-0.00878696
-0.0111168
-0.012351
-0.011892
-0.00960333
-0.00592814
-0.00211555
-0.000128003
-0.00105706
-0.00322052
-0.00331767
-0.00341165
-0.00355285
-0.00376535
-0.00407722
-0.00453949
-0.00523985
-0.00633615
-0.00814469
-0.0111722
-0.0156248
-0.0205753
-0.0238122
-0.0241301
-0.0212367
-0.0157776
-0.00902174
-0.00357847
-0.00116596
-0.00411394
-0.00421623
-0.00434477
-0.00454918
-0.00485989
-0.00531973
-0.00600722
-0.00706113
-0.00872846
-0.011466
-0.0159442
-0.0223487
-0.0294723
-0.0345577
-0.0352602
-0.0321366
-0.0259508
-0.0175097
-0.008809
-0.0023747
-0.00502987
-0.00513314
-0.00528724
-0.005542
-0.00593447
-0.00652043
-0.00739985
-0.00874853
-0.0108704
-0.0142843
-0.019675
-0.0270984
-0.0352046
-0.0408912
-0.0419436
-0.0389515
-0.033057
-0.024822
-0.0152814
-0.00643431
-0.00593495
-0.00603268
-0.00619391
-0.00647133
-0.00690849
-0.00756917
-0.00856185
-0.0100728
-0.0124101
-0.0160726
-0.0216512
-0.0291055
-0.0371986
-0.042857
-0.0440479
-0.0412725
-0.0360103
-0.0288497
-0.020316
-0.0111901
-0.0068042
-0.0068882
-0.00702901
-0.00728745
-0.00771573
-0.0083808
-0.00938459
-0.0109013
-0.0131784
-0.0166974
-0.0218584
-0.0285943
-0.0357549
-0.0408356
-0.0420903
-0.03963
-0.0350731
-0.0291462
-0.0221539
-0.0136345
-0.00762545
-0.00768315
-0.00776366
-0.00794975
-0.00830901
-0.00890748
-0.00981782
-0.01121
-0.0132766
-0.0163325
-0.0206497
-0.0261257
-0.031868
-0.0360118
-0.0371304
-0.0351048
-0.0313107
-0.0263567
-0.0211784
-0.0131559
-0.00841148
-0.00842742
-0.00840013
-0.00845126
-0.00867994
-0.009146
-0.009924
-0.0111146
-0.0128571
-0.0153374
-0.0186953
-0.0228149
-0.0270724
-0.030179
-0.0311107
-0.0294144
-0.0262681
-0.0220558
-0.018908
-0.0101366
-0.00920192
-0.00913419
-0.00890087
-0.00874892
-0.0088095
-0.00912541
-0.00974223
-0.0107186
-0.0121403
-0.0141046
-0.0166627
-0.019692
-0.0227526
-0.0249401
-0.0254273
-0.0240932
-0.0214493
-0.0177452
-0.0162907
-0.00402626
-0.0100258
-0.00991419
-0.00938705
-0.0089395
-0.00878025
-0.00892759
-0.00938081
-0.010165
-0.0113303
-0.0129231
-0.0149494
-0.0172816
-0.0195951
-0.0212243
-0.0215379
-0.0201672
-0.0176118
-0.0138754
-0.0115134
0.00969063
-0.0118701
-0.0108491
-0.00946467
-0.00870106
-0.00841998
-0.00847976
-0.0088341
-0.00949576
-0.0105077
-0.0118916
-0.0136484
-0.0156398
-0.0176193
-0.0190179
-0.0193149
-0.0178416
-0.0146258
-0.00846498
0.00307287
0.0435192
-0.0108871
-0.0125538
-0.0104449
-0.00905567
-0.00841811
-0.00830129
-0.0085117
-0.0090405
-0.00994333
-0.0112067
-0.0128664
-0.014743
-0.0166658
-0.0180094
-0.0182279
-0.0159213
-0.00958179
0.00633984
0.0413129
0.111394
-0.0284874
-0.0130648
-0.00759063
-0.0063811
-0.00622135
-0.00631648
-0.00668136
-0.00735066
-0.00841463
-0.00981894
-0.0116138
-0.013611
-0.0156472
-0.0170128
-0.0166364
-0.011782
0.0022898
0.0360689
0.103562
0.207529
)
;

boundaryField
{
    movingWall
    {
        type            zeroGradient;
    }
    fixedWalls
    {
        type            zeroGradient;
    }
    frontAndBack
    {
        type            empty;
    }
}


// ************************************************************************* //
