/*--------------------------------*- C++ -*----------------------------------*\
| =========                 |                                                 |
| \\      /  F ield         | OpenFOAM: The Open Source CFD Toolbox           |
|  \\    /   O peration     | Version:  2506                                  |
|   \\  /    A nd           | Website:  www.openfoam.com                      |
|    \\/     M anipulation  |                                                 |
\*---------------------------------------------------------------------------*/
FoamFile
{
    version     2.0;
    format      ascii;
    arch        "LSB;label=32;scalar=64";
    class       surfaceScalarField;
    location    "7";
    object      phi;
}
// * * * * * * * * * * * * * * * * * * * * * * * * * * * * * * * * * * * * * //

dimensions      [0 3 -1 0 0 0 0];

oriented        oriented;

internalField   nonuniform List<scalar> 
760
(
-3.96034e-06
3.96035e-06
-1.3723e-05
9.7627e-06
-2.58329e-05
1.21099e-05
-3.88437e-05
1.30107e-05
-5.25314e-05
1.36877e-05
-6.70078e-05
1.44764e-05
-8.23217e-05
1.53139e-05
-9.82447e-05
1.59231e-05
-0.000114062
1.58174e-05
-0.000128333
1.42705e-05
-0.000138722
1.03889e-05
-0.000142146
3.42466e-06
-0.000134989
-7.15738e-06
-0.000115511
-1.94776e-05
-8.5017e-05
-3.04943e-05
-4.94081e-05
-3.56088e-05
-1.79014e-05
-3.15068e-05
1.12566e-06
-1.90271e-05
5.50486e-06
-4.3792e-06
5.5049e-06
-1.16079e-05
1.55682e-05
-3.33351e-05
3.14899e-05
-5.92466e-05
3.80214e-05
-8.70844e-05
4.08485e-05
-0.00011619
4.27931e-05
-0.000146349
4.46355e-05
-0.00017718
4.61453e-05
-0.000207764
4.65066e-05
-0.00023634
4.43935e-05
-0.000260066
3.79962e-05
-0.000274964
2.52872e-05
-0.00027643
4.89075e-06
-0.000259853
-2.37347e-05
-0.000222689
-5.66415e-05
-0.00016772
-8.54635e-05
-0.000104192
-9.91362e-05
-4.6557e-05
-8.91422e-05
-8.5579e-06
-5.70262e-05
3.87756e-06
-1.68146e-05
9.38246e-06
-1.62315e-05
3.17997e-05
-4.50102e-05
6.02686e-05
-7.87339e-05
7.17451e-05
-0.00011473
7.68445e-05
-0.00015215
8.02132e-05
-0.000190596
8.30817e-05
-0.000229456
8.50047e-05
-0.000267522
8.45731e-05
-0.000302715
7.95859e-05
-0.000331843
6.71244e-05
-0.0003505
4.39449e-05
-0.0003535
7.89051e-06
-0.000334769
-4.24657e-05
-0.000290226
-0.000101185
-0.000221349
-0.000154341
-0.000138529
-0.000181956
-6.08903e-05
-0.000166781
-9.31331e-06
-0.000108603
6.60472e-06
-3.27326e-05
1.59872e-05
-1.84587e-05
5.02584e-05
-5.09184e-05
9.27283e-05
-8.87429e-05
0.00010957
-0.000129021
0.000117123
-0.00017091
0.000122102
-0.000214095
0.000126267
-0.000258117
0.000129026
-0.000302021
0.000128477
-0.000344112
0.000121677
-0.000381673
0.000104686
-0.000410528
7.28002e-05
-0.000424743
2.21056e-05
-0.0004163
-5.09092e-05
-0.000375708
-0.000141777
-0.000299562
-0.000230487
-0.000196552
-0.000284966
-8.9941e-05
-0.000273392
-1.25282e-05
-0.000186016
1.1783e-05
-5.70438e-05
2.77702e-05
-1.91031e-05
6.93615e-05
-5.29324e-05
0.000126558
-9.24675e-05
0.000149105
-0.000134734
0.000159389
-0.000179049
0.000166417
-0.000225429
0.000172648
-0.00027395
0.000177547
-0.000324455
0.000178982
-0.000376381
0.000173603
-0.000428494
0.000156798
-0.000477902
0.000122208
-0.000517703
6.19072e-05
-0.000537633
-3.09791e-05
-0.000517543
-0.000161867
-0.000445636
-0.000302393
-0.000324703
-0.000405899
-0.000176347
-0.000421748
-4.42044e-05
-0.000318159
1.3467e-05
-0.000114715
4.12372e-05
-1.86424e-05
8.8004e-05
-5.22168e-05
0.000160132
-9.18177e-05
0.000188706
-0.000134542
0.000202114
-0.000179972
0.000211846
-0.000228647
0.000221323
-0.000281509
0.000230409
-0.000339751
0.000237224
-0.000404788
0.000238641
-0.000478064
0.000230074
-0.000559327
0.000203472
-0.000640963
0.000143543
-0.000704166
3.22238e-05
-0.000720179
-0.000145854
-0.000667022
-0.00035555
-0.000541231
-0.00053169
-0.00035178
-0.000611199
-0.000138643
-0.000531295
-2.84438e-06
-0.000250514
3.83928e-05
-1.73426e-05
0.000105347
-4.94154e-05
0.000192205
-8.77742e-05
0.000227064
-0.000129647
0.000243987
-0.000174901
0.0002571
-0.000224675
0.000271097
-0.000280979
0.000286713
-0.000346778
0.000303023
-0.000426146
0.000318009
-0.000523736
0.000327664
-0.000641316
0.000321052
-0.000768733
0.000270959
-0.000873725
0.000137216
-0.000922473
-9.71066e-05
-0.000897539
-0.000380485
-0.000792617
-0.000636612
-0.000594183
-0.000809633
-0.000314982
-0.000810496
-5.46967e-05
-0.000510799
-1.63039e-05
-1.5364e-05
0.000120711
-4.48846e-05
0.000221725
-8.0797e-05
0.000262977
-0.000120431
0.000283621
-0.000163846
0.000300514
-0.000212684
0.000319935
-0.00026994
0.000343969
-0.000340254
0.000373338
-0.000429987
0.000407741
-0.000545298
0.000442974
-0.000685618
0.000461372
-0.000833861
0.000419202
-0.000956828
0.000260183
-0.00101316
-4.07747e-05
-0.00101961
-0.00037403
-0.00096213
-0.000694095
-0.000812992
-0.000958772
-0.000538983
-0.00108451
-0.000167334
-0.000882449
-0.000183638
-1.28502e-05
0.000133561
-3.89157e-05
0.000247791
-7.12137e-05
0.000295275
-0.000107057
0.000319465
-0.00014647
0.000339927
-0.000191246
0.000364712
-0.000244769
0.000397491
-0.000312252
0.000440821
-0.00040025
0.000495739
-0.000512974
0.000555698
-0.000644445
0.000592843
-0.000773346
0.000548103
-0.0008735
0.000360337
-0.000933635
1.93603e-05
-0.000958504
-0.000349161
-0.00095049
-0.000702109
-0.000883133
-0.00102613
-0.000691728
-0.00127591
-0.000316052
-0.00125812
-0.000499689
-1.00069e-05
0.000143568
-3.19351e-05
0.000269719
-5.95716e-05
0.000322911
-9.00424e-05
0.000349936
-0.000123021
0.000372905
-0.00015991
0.000401601
-0.000203498
0.000441079
-0.00025782
0.000495144
-0.000327124
0.000565043
-0.00041214
0.000640714
-0.000504637
0.000685341
-0.000588061
0.000631526
-0.000651019
0.000423296
-0.000704854
7.31951e-05
-0.00073897
-0.000315046
-0.00076243
-0.000678649
-0.000765197
-0.00102336
-0.000681103
-0.00136
-0.000414099
-0.00152513
-0.000913788
-7.15376e-06
0.000150722
-2.46406e-05
0.000287206
-4.68822e-05
0.000345153
-7.06588e-05
0.000373712
-9.50268e-05
0.000397273
-0.000120518
0.000427092
-0.000148507
0.000469068
-0.000180715
0.000527352
-0.000218325
0.000602653
-0.000260235
0.000682624
-0.000302361
0.000727467
-0.000340116
0.000669282
-0.000375732
0.000458912
-0.000418071
0.000115534
-0.000461025
-0.000272091
-0.000506171
-0.000633503
-0.00055649
-0.000973042
-0.000558684
-0.00135781
-0.000388929
-0.00169488
-0.00130272
-4.76167e-06
0.000155483
-1.80788e-05
0.000300523
-3.47086e-05
0.000361783
-5.10328e-05
0.000390036
-6.54527e-05
0.000411693
-7.75034e-05
0.000439142
-8.69586e-05
0.000478523
-9.31193e-05
0.000533513
-9.47518e-05
0.000604285
-9.07059e-05
0.000678578
-8.43474e-05
0.000721108
-8.48891e-05
0.000669823
-9.92174e-05
0.00047324
-0.000134548
0.000150865
-0.000190582
-0.000216057
-0.000258411
-0.000565674
-0.000345434
-0.00088602
-0.000410289
-0.00129296
-0.000313441
-0.00179173
-0.00161616
-3.42545e-06
0.000158909
-1.35976e-05
0.000310695
-2.51151e-05
0.0003733
-3.39821e-05
0.000398903
-3.81955e-05
0.000415906
-3.66072e-05
0.000437554
-2.77234e-05
0.00046964
-8.98449e-06
0.000514774
2.22048e-05
0.000573096
6.50692e-05
0.000635714
0.00011408
0.000672098
0.00015308
0.000630823
0.000162204
0.000464117
0.000130523
0.000182546
6.63341e-05
-0.000151869
-2.48546e-05
-0.000474486
-0.000148064
-0.00076281
-0.000265434
-0.00117559
-0.000240409
-0.00181676
-0.00185657
-4.0306e-06
0.000162939
-1.295e-05
0.000319615
-2.03471e-05
0.000380697
-2.22467e-05
0.000400803
-1.68794e-05
0.000410539
-2.99872e-06
0.000423674
2.11616e-05
0.000445479
5.75668e-05
0.000478369
0.000110064
0.000520598
0.000180825
0.000564952
0.000262701
0.000590222
0.000334514
0.00055901
0.000367686
0.000430945
0.000346221
0.000204011
0.00027076
-7.64079e-05
0.000161876
-0.000365601
1.8255e-05
-0.000619189
-0.000135577
-0.00102175
-0.000170573
-0.00178176
-0.00202714
-7.70039e-06
0.00017064
-1.84547e-05
0.000330369
-2.35355e-05
0.000385778
-1.91479e-05
0.000396415
-4.9575e-06
0.000396348
1.92623e-05
0.000399454
5.45562e-05
0.000410185
0.00010375
0.000429174
0.000169724
0.000454625
0.000253786
0.00048089
0.000349807
0.0004942
0.000438632
0.000470185
0.000490291
0.000379286
0.00048431
0.000209992
0.000412211
-4.30857e-06
0.000290632
-0.000244023
0.000128203
-0.00045676
-4.60368e-05
-0.000847514
-0.000117011
-0.00171079
-0.00214415
-1.58281e-05
0.000186468
-3.18188e-05
0.00034636
-3.53155e-05
0.000389275
-2.52228e-05
0.000386323
-3.37034e-06
0.000374496
2.92735e-05
0.00036681
7.32396e-05
0.000366219
0.000130225
0.000372189
0.000201993
0.000382858
0.000288941
0.000393942
0.00038606
0.000397081
0.000478551
0.000377694
0.000539779
0.000318059
0.000545158
0.000204613
0.000488991
5.18584e-05
0.000368263
-0.000123295
0.000207255
-0.000295752
3.0899e-05
-0.000671158
-5.48866e-05
-0.001625
-0.00219904
-3.56369e-05
0.000222105
-6.86903e-05
0.000379413
-6.84692e-05
0.000389054
-4.61147e-05
0.000363968
-1.26984e-05
0.00034108
2.9019e-05
0.000325092
7.98814e-05
0.000315357
0.000141568
0.000310503
0.000215019
0.000309406
0.000300038
0.000308923
0.000391916
0.000305204
0.000480183
0.000289426
0.000543677
0.000254565
0.000559646
0.000188644
0.000512202
9.93023e-05
0.000408069
-1.91616e-05
0.000269414
-0.000157097
0.000135514
-0.000537258
2.40888e-05
-0.00151358
-0.00217495
-3.82407e-05
0.000260345
-7.90674e-05
0.00042024
-8.8129e-05
0.000398115
-7.23506e-05
0.00034819
-3.91865e-05
0.000307916
5.65383e-06
0.000280252
6.11879e-05
0.000259823
0.00012771
0.00024398
0.000204007
0.00023311
0.000289486
0.000223444
0.000378673
0.000216017
0.000464976
0.000203123
0.000533086
0.000186455
0.000567013
0.000154716
0.000552585
0.00011373
0.000492148
4.12752e-05
0.000419311
-8.42594e-05
0.000324517
-0.000442465
0.000154456
-0.00134351
-0.00202049
-0.00039208
0.000652426
-0.000370779
0.000398939
-0.000244398
0.000271735
-0.000119722
0.000223514
-5.02018e-06
0.000193213
0.000106839
0.000168393
0.000217149
0.000149513
0.000327671
0.000133458
0.000437725
0.000123056
0.000548289
0.000112879
0.000656747
0.000107559
0.000760713
9.91575e-05
0.000852245
9.4923e-05
0.000924408
8.2553e-05
0.000970647
6.74912e-05
0.000982501
2.94215e-05
0.000965284
-6.70427e-05
0.000893756
-0.000370936
0.000517272
-0.000967031
-0.00150322
0.000652426
0.00105136
0.0013231
0.00154661
0.00173983
0.00190822
0.00205773
0.00219119
0.00231425
0.00242713
0.00253468
0.00263384
0.00272876
0.00281132
0.00287881
0.00290823
0.00284119
0.00247025
0.00150322
)
;

boundaryField
{
    movingWall
    {
        type            calculated;
        value           uniform 0;
    }
    fixedWalls
    {
        type            calculated;
        value           uniform 0;
    }
    frontAndBack
    {
        type            empty;
    }
}


// ************************************************************************* //
