/*--------------------------------*- C++ -*----------------------------------*\
| =========                 |                                                 |
| \\      /  F ield         | OpenFOAM: The Open Source CFD Toolbox           |
|  \\    /   O peration     | Version:  2506                                  |
|   \\  /    A nd           | Website:  www.openfoam.com                      |
|    \\/     M anipulation  |                                                 |
\*---------------------------------------------------------------------------*/
FoamFile
{
    version     2.0;
    format      ascii;
    arch        "LSB;label=32;scalar=64";
    class       volVectorField;
    location    "7";
    object      U;
}
// * * * * * * * * * * * * * * * * * * * * * * * * * * * * * * * * * * * * * //

dimensions      [0 1 -1 0 0 0 0];

internalField   nonuniform List<vector> 
400
(
(-0.000245763 0.000192878 0)
(-0.00155888 0.000662475 0)
(-0.00388171 0.000852437 0)
(-0.00644032 0.000917265 0)
(-0.00911644 0.000971253 0)
(-0.0119351 0.00104749 0)
(-0.0149234 0.00114391 0)
(-0.0180701 0.00124123 0)
(-0.0212872 0.00130181 0)
(-0.0243629 0.00126344 0)
(-0.026917 0.00104102 0)
(-0.0283875 0.000548256 0)
(-0.028074 -0.000261687 0)
(-0.0253934 -0.00131433 0)
(-0.020286 -0.00229422 0)
(-0.0134951 -0.00278198 0)
(-0.00653152 -0.00246386 0)
(-0.00106501 -0.0014037 0)
(0.001382 -0.000160767 0)
(0.000829598 0.000643153 0)
(-0.00089586 0.00166816 0)
(-0.0041041 0.00365969 0)
(-0.00909857 0.00447876 0)
(-0.014574 0.00481837 0)
(-0.0202897 0.00506693 0)
(-0.0262331 0.00533399 0)
(-0.0323679 0.00559519 0)
(-0.0385769 0.00575084 0)
(-0.0446011 0.00563085 0)
(-0.049978 0.00499053 0)
(-0.0540074 0.00353934 0)
(-0.0557907 0.00103631 0)
(-0.0543463 -0.00253986 0)
(-0.0488984 -0.00672451 0)
(-0.0394693 -0.0103965 0)
(-0.0272878 -0.0120963 0)
(-0.0147208 -0.01077 0)
(-0.00462902 -0.00669543 0)
(0.000644912 -0.00171597 0)
(0.000922452 0.00154509 0)
(-0.00129084 0.00462263 0)
(-0.00563625 0.00896244 0)
(-0.0121763 0.0107308 0)
(-0.0192752 0.0115127 0)
(-0.0266463 0.0120403 0)
(-0.0342604 0.0125114 0)
(-0.0420422 0.0128587 0)
(-0.0498238 0.0128609 0)
(-0.0572852 0.0121677 0)
(-0.0638942 0.0103108 0)
(-0.0688712 0.00676951 0)
(-0.071207 0.00114802 0)
(-0.0697211 -0.0065074 0)
(-0.0633502 -0.0152975 0)
(-0.0518073 -0.0230544 0)
(-0.0362662 -0.0267912 0)
(-0.0195578 -0.0241508 0)
(-0.005708 -0.0154977 0)
(0.00132739 -0.00463402 0)
(0.00134348 0.00241246 0)
(-0.00146861 0.00816302 0)
(-0.00639081 0.0152139 0)
(-0.0137481 0.0180295 0)
(-0.0216961 0.0192865 0)
(-0.0299395 0.020111 0)
(-0.0384704 0.0207968 0)
(-0.0472366 0.0212359 0)
(-0.0561102 0.0210928 0)
(-0.0648368 0.01985 0)
(-0.072975 0.0168258 0)
(-0.0798244 0.011243 0)
(-0.0843501 0.00244278 0)
(-0.085116 -0.00967442 0)
(-0.0803307 -0.0240805 0)
(-0.0686308 -0.0375211 0)
(-0.0504926 -0.0449831 0)
(-0.028688 -0.0418029 0)
(-0.00842914 -0.0273915 0)
(0.00258606 -0.00816208 0)
(0.00219302 0.00431104 0)
(-0.00150486 0.0119522 0)
(-0.00662122 0.0218992 0)
(-0.0143059 0.0258231 0)
(-0.0226229 0.0275926 0)
(-0.0312942 0.0287717 0)
(-0.0403669 0.0297741 0)
(-0.0498731 0.0304778 0)
(-0.0598148 0.0304696 0)
(-0.0701315 0.0291087 0)
(-0.0806581 0.025537 0)
(-0.0910036 0.018679 0)
(-0.100267 0.00735023 0)
(-0.106658 -0.00921497 0)
(-0.107057 -0.030222 0)
(-0.0980909 -0.0517978 0)
(-0.0790034 -0.066393 0)
(-0.0515198 -0.0659453 0)
(-0.0205709 -0.0465416 0)
(0.0016438 -0.0148807 0)
(0.00332332 0.00716629 0)
(-0.00144321 0.0157509 0)
(-0.00648389 0.0286788 0)
(-0.0141526 0.0337757 0)
(-0.0225123 0.0361256 0)
(-0.0313189 0.0377715 0)
(-0.0406968 0.0392898 0)
(-0.0508117 0.0405984 0)
(-0.0618755 0.0412774 0)
(-0.0741513 0.0406563 0)
(-0.0879837 0.0378083 0)
(-0.103651 0.0313739 0)
(-0.120574 0.019221 0)
(-0.136006 -0.00117361 0)
(-0.144674 -0.030218 0)
(-0.141105 -0.0633727 0)
(-0.123802 -0.089944 0)
(-0.092662 -0.098222 0)
(-0.0497131 -0.078827 0)
(-0.00643759 -0.0306346 0)
(0.00457617 0.00899473 0)
(-0.00130732 0.0193693 0)
(-0.00606651 0.0352771 0)
(-0.0134522 0.041607 0)
(-0.0215882 0.0446198 0)
(-0.0302643 0.0468722 0)
(-0.0396865 0.0491613 0)
(-0.0501767 0.0515259 0)
(-0.0622076 0.0536574 0)
(-0.076452 0.0550159 0)
(-0.0939267 0.0547661 0)
(-0.115838 0.0511762 0)
(-0.141838 0.0402727 0)
(-0.166982 0.0160326 0)
(-0.182893 -0.0242245 0)
(-0.184534 -0.0729045 0)
(-0.171993 -0.115517 0)
(-0.142569 -0.138842 0)
(-0.0940772 -0.128097 0)
(-0.0306292 -0.0671047 0)
(0.00405964 0.00504624 0)
(-0.00111219 0.0226568 0)
(-0.0054208 0.0414669 0)
(-0.0122916 0.0490696 0)
(-0.0199439 0.0528111 0)
(-0.0281843 0.0557875 0)
(-0.0372754 0.0590817 0)
(-0.0476742 0.0629526 0)
(-0.0600922 0.0673503 0)
(-0.0755544 0.072031 0)
(-0.0955877 0.076234 0)
(-0.122006 0.077205 0)
(-0.154042 0.0677357 0)
(-0.183965 0.037788 0)
(-0.201137 -0.015664 0)
(-0.205478 -0.080762 0)
(-0.199882 -0.139545 0)
(-0.179322 -0.18206 0)
(-0.138396 -0.190353 0)
(-0.0731818 -0.134275 0)
(-0.00227098 -0.0131368 0)
(-0.000872704 0.025492 0)
(-0.00459213 0.0470538 0)
(-0.0107391 0.0559282 0)
(-0.0176403 0.0604084 0)
(-0.025082 0.0641398 0)
(-0.0333236 0.0685459 0)
(-0.042865 0.074188 0)
(-0.0545046 0.0813779 0)
(-0.0693309 0.0901846 0)
(-0.0888413 0.099529 0)
(-0.11471 0.104693 0)
(-0.145267 0.0949675 0)
(-0.171763 0.0586873 0)
(-0.185386 -0.00465353 0)
(-0.190199 -0.0802925 0)
(-0.190732 -0.150541 0)
(-0.182887 -0.21104 0)
(-0.159247 -0.246285 0)
(-0.110427 -0.215531 0)
(-0.0200865 -0.054358 0)
(-0.000610994 0.0277865 0)
(-0.00364604 0.0518774 0)
(-0.00889796 0.0619602 0)
(-0.0147944 0.0670974 0)
(-0.0210539 0.0714673 0)
(-0.027851 0.0768538 0)
(-0.0355852 0.0841327 0)
(-0.0448971 0.0939453 0)
(-0.0565582 0.106503 0)
(-0.0715188 0.12003 0)
(-0.0910603 0.127784 0)
(-0.113522 0.116882 0)
(-0.13145 0.0760731 0)
(-0.139922 0.00796934 0)
(-0.144046 -0.0703693 0)
(-0.148389 -0.144773 0)
(-0.151392 -0.215099 0)
(-0.144851 -0.276582 0)
(-0.117115 -0.287717 0)
(-0.0366378 -0.137842 0)
(-0.000360995 0.0295019 0)
(-0.00268571 0.0558308 0)
(-0.00694296 0.0669764 0)
(-0.0116405 0.072574 0)
(-0.0163902 0.0772901 0)
(-0.0212153 0.0832384 0)
(-0.026296 0.0915327 0)
(-0.0319286 0.102988 0)
(-0.038387 0.117786 0)
(-0.0460129 0.13355 0)
(-0.0560499 0.142354 0)
(-0.0681134 0.130594 0)
(-0.0776749 0.0880823 0)
(-0.0824397 0.0188261 0)
(-0.086343 -0.0589704 0)
(-0.0935951 -0.132754 0)
(-0.104906 -0.203632 0)
(-0.111398 -0.280328 0)
(-0.102916 -0.335036 0)
(-0.0334929 -0.234267 0)
(-0.00017184 0.0306802 0)
(-0.00186357 0.0589121 0)
(-0.00513625 0.0708925 0)
(-0.00854541 0.0766399 0)
(-0.0115919 0.0812532 0)
(-0.0141377 0.0871167 0)
(-0.0161213 0.0954612 0)
(-0.0174659 0.10711 0)
(-0.0179878 0.122154 0)
(-0.0175427 0.138063 0)
(-0.017512 0.147139 0)
(-0.0190886 0.136222 0)
(-0.0212719 0.0952958 0)
(-0.0242611 0.0282136 0)
(-0.030411 -0.047812 0)
(-0.040768 -0.119426 0)
(-0.0590552 -0.186541 0)
(-0.0753263 -0.268509 0)
(-0.0841118 -0.355093 0)
(-0.0214126 -0.30011 0)
(-0.000105979 0.0314604 0)
(-0.00137168 0.0612058 0)
(-0.00381745 0.0736541 0)
(-0.00599059 0.0791342 0)
(-0.00730966 0.0831292 0)
(-0.0075396 0.0882066 0)
(-0.0064558 0.0955803 0)
(-0.00371769 0.105922 0)
(0.00109084 0.119308 0)
(0.00856772 0.13364 0)
(0.0175641 0.142312 0)
(0.0252815 0.133722 0)
(0.0298188 0.0975527 0)
(0.0295738 0.0361918 0)
(0.0215254 -0.0350003 0)
(0.00837424 -0.101624 0)
(-0.0164861 -0.163018 0)
(-0.0403187 -0.246665 0)
(-0.066628 -0.362323 0)
(-0.0113279 -0.351375 0)
(-0.000262195 0.0321655 0)
(-0.00148124 0.0631302 0)
(-0.00338579 0.0756656 0)
(-0.00446137 0.0803535 0)
(-0.00415278 0.083127 0)
(-0.00226365 0.0867297 0)
(0.00144349 0.0922943 0)
(0.00749164 0.100326 0)
(0.0164713 0.110727 0)
(0.0288843 0.121989 0)
(0.0439088 0.129052 0)
(0.0584617 0.122945 0)
(0.0686795 0.0942316 0)
(0.0717505 0.0428262 0)
(0.0639795 -0.0206323 0)
(0.0492501 -0.0811381 0)
(0.018162 -0.134701 0)
(-0.00930533 -0.215436 0)
(-0.0514311 -0.35627 0)
(-0.000323382 -0.39001 0)
(-0.000764565 0.0331919 0)
(-0.00253258 0.0647779 0)
(-0.00439852 0.0763733 0)
(-0.00460738 0.0796835 0)
(-0.00277572 0.0809112 0)
(0.00102564 0.0827325 0)
(0.0069475 0.0861452 0)
(0.0154086 0.0914814 0)
(0.0269308 0.0984158 0)
(0.0419295 0.105758 0)
(0.0598175 0.110151 0)
(0.078012 0.105499 0)
(0.0920409 0.0844467 0)
(0.0982801 0.0448418 0)
(0.0919642 -0.00671743 0)
(0.0767175 -0.0582945 0)
(0.0419124 -0.105009 0)
(0.0151891 -0.184425 0)
(-0.0407393 -0.35014 0)
(0.0102986 -0.423381 0)
(-0.00186034 0.0352121 0)
(-0.00483632 0.0680337 0)
(-0.00703642 0.0786479 0)
(-0.00654657 0.0794204 0)
(-0.00333386 0.0780581 0)
(0.00213626 0.0774873 0)
(0.00979942 0.0784359 0)
(0.0198979 0.0808982 0)
(0.0327528 0.0844693 0)
(0.0485884 0.0881474 0)
(0.0669248 0.0897952 0)
(0.085893 0.0856782 0)
(0.101462 0.0711197 0)
(0.109679 0.0432501 0)
(0.105662 0.0056689 0)
(0.0919849 -0.0348964 0)
(0.0568741 -0.0731362 0)
(0.0350407 -0.151126 0)
(-0.0312472 -0.342906 0)
(0.0242307 -0.45245 0)
(-0.00394697 0.0427538 0)
(-0.0112953 0.0709305 0)
(-0.0144543 0.0749219 0)
(-0.0120344 0.07332 0)
(-0.00633919 0.0707134 0)
(0.00123295 0.0687698 0)
(0.0104895 0.0679679 0)
(0.0217325 0.0682024 0)
(0.0352301 0.0691773 0)
(0.0510434 0.0701614 0)
(0.0686807 0.0699318 0)
(0.0867972 0.0663129 0)
(0.102108 0.0569846 0)
(0.111622 0.0394449 0)
(0.109042 0.0155947 0)
(0.0977005 -0.0130403 0)
(0.0655382 -0.0449816 0)
(0.0506168 -0.125661 0)
(-0.0178043 -0.336956 0)
(0.0458011 -0.469207 0)
(-0.00324918 0.0367192 0)
(-0.0104066 0.0839457 0)
(-0.0183438 0.0863676 0)
(-0.017675 0.0768697 0)
(-0.0119876 0.0690368 0)
(-0.00391707 0.0638462 0)
(0.00622555 0.0602749 0)
(0.0184735 0.0577588 0)
(0.0328075 0.0561091 0)
(0.0490036 0.0546547 0)
(0.0663371 0.0530619 0)
(0.0841216 0.0497838 0)
(0.0990763 0.044422 0)
(0.111122 0.034713 0)
(0.111507 0.0220482 0)
(0.108559 0.00358076 0)
(0.0828697 -0.0252084 0)
(0.0760502 -0.110903 0)
(0.0195116 -0.313386 0)
(0.0858373 -0.446485 0)
(-0.0979368 0.0960102 0)
(-0.0737206 0.07632 0)
(-0.0613521 0.0587774 0)
(-0.0362813 0.0511035 0)
(-0.0127667 0.0455232 0)
(0.0103325 0.041026 0)
(0.032274 0.0374225 0)
(0.0549529 0.0344493 0)
(0.076139 0.0324525 0)
(0.0993766 0.030621 0)
(0.119193 0.029498 0)
(0.142882 0.0277409 0)
(0.158171 0.0262075 0)
(0.179488 0.0231065 0)
(0.182755 0.0188192 0)
(0.197349 0.00884265 0)
(0.174774 -0.0162409 0)
(0.1815 -0.0823696 0)
(0.134893 -0.226866 0)
(0.167291 -0.339171 0)
(0.135197 0.109094 0)
(0.17067 0.0863639 0)
(0.230387 0.0647242 0)
(0.285923 0.0507576 0)
(0.328989 0.0417824 0)
(0.367044 0.0350023 0)
(0.396409 0.0300424 0)
(0.427158 0.0256884 0)
(0.44912 0.0226923 0)
(0.476978 0.0196541 0)
(0.493153 0.0179602 0)
(0.520141 0.0156081 0)
(0.530085 0.014842 0)
(0.556146 0.0126678 0)
(0.555666 0.0124115 0)
(0.575333 0.00853442 0)
(0.548665 0.00408439 0)
(0.539061 -0.0148195 0)
(0.437089 -0.0472745 0)
(0.338836 -0.0994377 0)
)
;

boundaryField
{
    movingWall
    {
        type            fixedValue;
        value           uniform (1 0 0);
    }
    fixedWalls
    {
        type            noSlip;
    }
    frontAndBack
    {
        type            empty;
    }
}


// ************************************************************************* //
