/*--------------------------------*- C++ -*----------------------------------*\
| =========                 |                                                 |
| \\      /  F ield         | OpenFOAM: The Open Source CFD Toolbox           |
|  \\    /   O peration     | Version:  2506                                  |
|   \\  /    A nd           | Website:  www.openfoam.com                      |
|    \\/     M anipulation  |                                                 |
\*---------------------------------------------------------------------------*/
FoamFile
{
    version     2.0;
    format      ascii;
    arch        "LSB;label=32;scalar=64";
    class       volScalarField;
    location    "150";
    object      p;
}
// * * * * * * * * * * * * * * * * * * * * * * * * * * * * * * * * * * * * * //

dimensions      [0 2 -2 0 0 0 0];

internalField   nonuniform List<scalar> 
1340
(
-7.83391
-1.22927
-7.57079
-5.6692
-1.29089
-7.39616
-3.87983
-5.55746
-1.30748
-7.26739
-5.30915
-5.46737
-3.80564
-5.43634
-1.32009
-7.12485
-6.19144
-5.92963
-5.15809
-5.32148
-3.7258
-5.30246
-1.33107
-6.96351
-7.10806
-6.75259
-6.43288
-5.96971
-5.7324
-4.99878
-5.16651
-3.63831
-5.16082
-1.33214
-6.79637
-7.59111
-7.31812
-7.05577
-6.7846
-6.46048
-6.17084
-5.7395
-5.5263
-4.83124
-5.0035
-3.54186
-5.01373
-1.32056
-6.62864
-7.98631
-7.82695
-7.63484
-7.41254
-7.16276
-6.92567
-6.69399
-6.45346
-6.16029
-5.90015
-5.50079
-5.31143
-4.65535
-4.83216
-3.43665
-4.86018
-1.29847
-6.45833
-7.4074
-7.48216
-7.51677
-7.51168
-7.46801
-7.38718
-7.27093
-7.12148
-6.94109
-6.73191
-6.52896
-6.32671
-6.11574
-5.85283
-5.62148
-5.25401
-5.08792
-4.47118
-4.65257
-3.32262
-4.69967
-1.26684
-6.28362
-5.00136
-5.32589
-5.62514
-5.89643
-6.13739
-6.34589
-6.52026
-6.65911
-6.76156
-6.8271
-6.85572
-6.84776
-6.80414
-6.72596
-6.61489
-6.47279
-6.30122
-6.13027
-5.95596
-5.77316
-5.53957
-5.33593
-4.99996
-4.85649
-4.27904
-4.46468
-3.20016
-4.53174
-1.22645
-6.1039
0.0161333
-0.335383
-0.694218
-1.05908
-1.42844
-1.80056
-2.17352
-2.54519
-2.9132
-3.27507
-3.62814
-3.96967
-4.29687
-4.60693
-4.89709
-5.16468
-5.40724
-5.62249
-5.80846
-5.96345
-6.08612
-6.17551
-6.23106
-6.25263
-6.24054
-6.19537
-6.11821
-6.01052
-5.87328
-5.73197
-5.58382
-5.42757
-5.22196
-5.04482
-4.73959
-4.61774
-4.07935
-4.26902
-3.06926
-4.35682
-1.17775
-5.91949
5.56122
5.50367
5.44399
5.38084
5.31355
5.2427
5.16859
5.09107
5.00986
4.92477
4.83579
4.7431
4.64753
4.55058
4.4545
4.36119
4.27094
4.18115
4.08642
3.98024
3.85911
3.72371
3.57651
3.41831
3.24991
3.0732
2.88871
2.69484
2.49015
2.27429
2.04756
1.81023
1.56253
1.30462
1.03664
0.758778
0.471331
0.174764
-0.130259
-0.442914
-0.762227
-1.08703
-1.41596
-1.74749
-2.0799
-2.41126
-2.73948
-3.06232
-3.37741
-3.68226
-3.97435
-4.2511
-4.50998
-4.74856
-4.96453
-5.15576
-5.32036
-5.45673
-5.56353
-5.63984
-5.68508
-5.69906
-5.6819
-5.63412
-5.55684
-5.45049
-5.33622
-5.21228
-5.08068
-4.90153
-4.74931
-4.47383
-4.37256
-3.87265
-4.06565
-2.93055
-4.17445
-1.122
-5.72917
4.93303
4.88291
4.83131
4.77662
4.71744
4.65405
4.58723
4.51746
4.4449
4.36964
4.29181
4.21147
4.12863
4.04336
3.95604
3.86755
3.77905
3.69138
3.60411
3.51476
3.41888
3.31188
3.1928
3.06353
2.92479
2.77603
2.61818
2.45219
2.27732
2.09266
1.89833
1.69492
1.48274
1.26176
1.03181
0.792818
0.544924
0.288411
0.0237543
-0.248459
-0.527517
-0.812554
-1.1025
-1.39619
-1.6922
-1.98901
-2.28487
-2.57791
-2.86612
-3.14736
-3.41936
-3.67982
-3.9264
-4.1568
-4.36876
-4.56012
-4.7289
-4.87335
-4.99192
-5.08342
-5.14689
-5.18176
-5.18774
-5.16488
-5.11398
-5.03496
-4.94499
-4.84306
-4.73408
-4.57959
-4.45064
-4.20368
-4.12156
-3.65959
-3.85507
-2.78454
-3.98448
-1.0605
-5.53151
4.41759
4.37365
4.32905
4.28291
4.23396
4.18148
4.12497
4.06435
4.00009
3.93264
3.86229
3.78926
3.71374
3.63595
3.55605
3.47426
3.39104
3.30708
3.22311
3.13933
3.05465
2.96596
2.86935
2.7626
2.646
2.52043
2.3855
2.2412
2.0888
1.92895
1.76134
1.58592
1.40296
1.21245
1.01405
0.807488
0.592767
0.370076
0.139793
-0.0976874
-0.341789
-0.591899
-0.847188
-1.10679
-1.3696
-1.63441
-1.89979
-2.16423
-2.42601
-2.68331
-2.93419
-3.17662
-3.40848
-3.62765
-3.83197
-4.01938
-4.18789
-4.3357
-4.46114
-4.56282
-4.63955
-4.69043
-4.71491
-4.71265
-4.68407
-4.62874
-4.56019
-4.47799
-4.38936
-4.25769
-4.15003
-3.93016
-3.86562
-3.44108
-3.63701
-2.6327
-3.78556
-0.995455
-5.32311
3.94334
3.90514
3.86687
3.82785
3.78687
3.74328
3.69658
3.6463
3.59206
3.534
3.47254
3.40815
3.34105
3.27153
3.19981
3.12622
3.05098
2.97437
2.89673
2.81839
2.73946
2.65936
2.57624
2.48706
2.38932
2.28275
2.16821
2.04537
1.91379
1.77496
1.63042
1.47986
1.32248
1.158
0.986464
0.807617
0.621268
0.427444
0.226592
0.0191147
-0.194511
-0.413923
-0.638517
-0.867691
-1.10054
-1.33612
-1.57325
-1.81072
-2.04712
-2.28093
-2.51046
-2.73399
-2.94961
-3.15543
-3.34949
-3.52983
-3.69454
-3.84179
-3.96995
-4.07749
-4.16305
-4.22558
-4.26427
-4.27849
-4.26837
-4.2331
-4.18308
-4.1183
-4.04779
-3.93683
-3.84836
-3.65438
-3.60485
-3.21834
-3.41093
-2.47716
-3.57456
-0.930736
-5.09878
3.55049
3.5168
3.48288
3.44831
3.41223
3.37397
3.3332
3.28975
3.24358
3.19417
3.14072
3.08259
3.01993
2.95313
2.88266
2.8088
2.73209
2.65309
2.57265
2.49147
2.41049
2.33052
2.25233
2.17586
2.09968
2.02119
1.93771
1.8464
1.74401
1.62802
1.50017
1.36617
1.22997
1.09028
0.943928
0.789209
0.626669
0.457393
0.282255
0.101354
-0.0852072
-0.277389
-0.474648
-0.676504
-0.882133
-1.09087
-1.30175
-1.51383
-1.72594
-1.93684
-2.14507
-2.34917
-2.54751
-2.73841
-2.92009
-3.09076
-3.24866
-3.39201
-3.51922
-3.62872
-3.71911
-3.78919
-3.838
-3.86469
-3.86919
-3.85037
-3.81591
-3.76621
-3.71122
-3.61916
-3.5469
-3.37824
-3.33951
-2.99388
-3.17477
-2.32202
-3.34762
-0.873263
-4.85255
3.05268
3.02482
2.99634
2.96677
2.93559
2.90264
2.8678
2.83091
2.79196
2.75105
2.70834
2.66357
2.61607
2.56514
2.5109
2.45377
2.39447
2.33327
2.27065
2.20681
2.14229
2.07707
2.01129
1.94435
1.87553
1.80317
1.72527
1.64033
1.54946
1.45448
1.35563
1.25064
1.13821
1.01892
0.894178
0.764005
0.628382
0.48718
0.340707
0.188774
0.0315937
-0.130788
-0.297831
-0.469349
-0.644718
-0.823593
-1.00518
-1.18886
-1.37361
-1.55859
-1.74254
-1.92439
-2.1027
-2.27613
-2.44307
-2.60204
-2.75135
-2.88944
-3.01467
-3.12554
-3.22058
-3.29853
-3.35821
-3.39856
-3.41923
-3.41903
-3.4019
-3.36992
-3.33188
-3.26305
-3.20693
-3.072
-3.03887
-2.75106
-2.9042
-2.16435
-3.08559
-0.831392
-4.577
2.56359
2.54333
2.5217
2.49864
2.47439
2.44909
2.42266
2.39478
2.36533
2.33435
2.30216
2.26899
2.23504
2.20006
2.16372
2.12517
2.08419
2.04074
1.99536
1.94797
1.89866
1.84692
1.79267
1.73518
1.67419
1.60918
1.54042
1.46794
1.39228
1.31376
1.23315
1.14954
1.06083
0.964954
0.862654
0.755791
0.645487
0.530741
0.411033
0.286205
0.156963
0.023378
-0.114256
-0.256094
-0.401772
-0.551118
-0.703496
-0.858516
-1.01538
-1.17356
-1.33213
-1.49028
-1.64684
-1.80083
-1.95089
-2.0958
-2.23409
-2.36439
-2.4852
-2.59509
-2.69261
-2.77647
-2.84538
-2.89813
-2.9341
-2.952
-2.95258
-2.93803
-2.91862
-2.87194
-2.83702
-2.73051
-2.7173
-2.46911
-2.63094
-1.95518
-2.85324
-0.719888
-4.3965
2.15224
2.13709
2.12073
2.1029
2.08384
2.06394
2.04326
2.02159
1.99857
1.97408
1.94816
1.92085
1.89205
1.86154
1.82941
1.79564
1.7601
1.7221
1.68115
1.63724
1.59117
1.54355
1.495
1.44557
1.39577
1.34549
1.29478
1.243
1.18944
1.13245
1.07081
1.00383
0.932629
0.857825
0.779056
0.694955
0.605694
0.511981
0.414676
0.313572
0.208935
0.100472
-0.0116906
-0.127882
-0.247721
-0.371088
-0.497382
-0.626424
-0.757606
-0.89065
-1.0248
-1.15952
-1.29384
-1.42709
-1.55811
-1.686
-1.80948
-1.92749
-2.03862
-2.14171
-2.23535
-2.31838
-2.38946
-2.44749
-2.49161
-2.52058
-2.53301
-2.53082
-2.52508
-2.49544
-2.47745
-2.39413
-2.39878
-2.18326
-2.35762
-1.73337
-2.62563
-0.586997
-4.22636
1.72571
1.71486
1.70188
1.68733
1.672
1.65624
1.63977
1.62222
1.60341
1.58343
1.56234
1.54003
1.51629
1.491
1.46415
1.43586
1.40633
1.37534
1.34233
1.30655
1.26798
1.22721
1.18513
1.14222
1.09885
1.05509
1.01116
0.966693
0.921293
0.87393
0.823601
0.769282
0.711192
0.649806
0.585174
0.515902
0.441776
0.363991
0.28407
0.201645
0.115977
0.0263745
-0.0668643
-0.163537
-0.26309
-0.365454
-0.470266
-0.577467
-0.686555
-0.797269
-0.908929
-1.02107
-1.13294
-1.24388
-1.35297
-1.45943
-1.56219
-1.66026
-1.75248
-1.8378
-1.91503
-1.98309
-2.04081
-2.08747
-2.12168
-2.14099
-2.14678
-2.15036
-2.13332
-2.12798
-2.06378
-2.08213
-1.89658
-2.07882
-1.50681
-2.38602
-0.44985
-4.02378
1.41696
1.40691
1.39632
1.38508
1.37315
1.36053
1.34708
1.33268
1.31728
1.3009
1.28354
1.26513
1.24552
1.22462
1.20235
1.17872
1.15377
1.12759
1.10027
1.07171
1.04136
1.00844
0.972693
0.93475
0.895603
0.855901
0.816006
0.776042
0.736036
0.695734
0.654636
0.611896
0.566523
0.517896
0.466418
0.412618
0.356381
0.296921
0.234447
0.169714
0.102864
0.033124
-0.0396786
-0.115345
-0.193419
-0.273855
-0.356503
-0.441356
-0.528099
-0.616526
-0.706171
-0.79671
-0.887592
-0.978362
-1.06831
-1.15686
-1.24316
-1.32644
-1.40573
-1.48017
-1.54873
-1.61048
-1.66436
-1.7097
-1.74516
-1.76772
-1.77831
-1.78789
-1.77998
-1.78388
-1.73521
-1.76405
-1.60492
-1.79236
-1.26972
-2.13195
-0.300827
-3.78901
1.02526
1.01907
1.01169
1.00345
0.994731
0.985874
0.976719
0.967094
0.956685
0.945562
0.933616
0.920971
0.907444
0.893095
0.877695
0.861352
0.843935
0.825597
0.806177
0.785874
0.764635
0.742513
0.718741
0.692624
0.663652
0.632647
0.600551
0.568286
0.535971
0.503816
0.471576
0.439169
0.406006
0.371493
0.334786
0.2958
0.25507
0.212779
0.168
0.120103
0.0696637
0.0174158
-0.0366976
-0.0930051
-0.1515
-0.212031
-0.274458
-0.338698
-0.404623
-0.472079
-0.540827
-0.610621
-0.681108
-0.751974
-0.822721
-0.892925
-0.961958
-1.02926
-1.09406
-1.15568
-1.21327
-1.26608
-1.3132
-1.35405
-1.38743
-1.4102
-1.42277
-1.43537
-1.43337
-1.44331
-1.40665
-1.4429
-1.30653
-1.49632
-1.0186
-1.86046
-0.132097
-3.51807
0.712252
0.706041
0.699954
0.693718
0.686932
0.679756
0.672078
0.664009
0.655325
0.646149
0.636337
0.626083
0.61523
0.603888
0.591829
0.579166
0.565731
0.551681
0.53683
0.521313
0.504959
0.487953
0.470224
0.451847
0.432076
0.410256
0.385938
0.36004
0.333475
0.307174
0.281176
0.255754
0.230758
0.206329
0.182071
0.157589
0.132262
0.106216
0.0793692
0.0511229
0.0204445
-0.0123877
-0.0466324
-0.0822405
-0.12003
-0.160272
-0.202788
-0.24716
-0.293244
-0.340948
-0.390201
-0.440818
-0.492516
-0.54499
-0.597841
-0.650719
-0.703153
-0.754723
-0.804836
-0.852965
-0.898466
-0.940767
-0.979128
-1.01311
-1.04172
-1.06211
-1.07421
-1.08726
-1.08827
-1.10135
-1.07336
-1.11406
-0.996379
-1.18588
-0.748017
-1.56288
0.0599245
-3.1734
0.495747
0.492857
0.488747
0.483808
0.478487
0.473302
0.468209
0.463081
0.457563
0.451629
0.445165
0.438434
0.43142
0.424288
0.416863
0.409236
0.401205
0.392889
0.38411
0.374994
0.365323
0.355226
0.344528
0.333468
0.321985
0.310174
0.29712
0.282049
0.264378
0.245109
0.225154
0.205425
0.185712
0.166037
0.14596
0.125432
0.103883
0.0811172
0.0571955
0.0331737
0.00909843
-0.0158988
-0.0423886
-0.0693977
-0.0964712
-0.123823
-0.152047
-0.181135
-0.211073
-0.241841
-0.273599
-0.306325
-0.339879
-0.374088
-0.408736
-0.443666
-0.478594
-0.513286
-0.547316
-0.58035
-0.611924
-0.64166
-0.668995
-0.69363
-0.714832
-0.730515
-0.739738
-0.750588
-0.751694
-0.764909
-0.742093
-0.784166
-0.68078
-0.866101
-0.463341
-1.23723
0.267273
-2.71072
0.0710454
0.0633584
0.0564725
0.050042
0.0433598
0.0364087
0.0290374
0.0214868
0.0135747
0.00552343
-0.00291765
-0.0114499
-0.0202989
-0.0291783
-0.0384675
-0.0479375
-0.0580445
-0.0685323
-0.0798773
-0.0918169
-0.104896
-0.118889
-0.134348
-0.151025
-0.169446
-0.189322
-0.211123
-0.234725
-0.261032
-0.289804
-0.319507
-0.345106
-0.360868
-0.36121
-0.343561
-0.307223
-0.254317
-0.188762
-0.117811
-0.0505948
0.00349982
0.0385245
0.0527132
0.0491819
0.0354161
0.0197086
0.0054075
-0.00898431
-0.0259764
-0.0461572
-0.068447
-0.0916468
-0.115152
-0.138953
-0.162941
-0.18697
-0.210689
-0.233922
-0.256374
-0.277913
-0.29828
-0.31734
-0.334775
-0.35051
-0.364077
-0.374174
-0.380044
-0.388184
-0.388576
-0.400952
-0.382234
-0.423096
-0.335117
-0.504342
-0.159379
-0.818787
0.423173
-1.89659
0.365195
0.362971
0.361465
0.360184
0.35886
0.357451
0.356203
0.355166
0.354561
0.354329
0.35458
0.355223
0.356432
0.358149
0.360542
0.363537
0.367291
0.371754
0.377106
0.383329
0.390639
0.399055
0.408836
0.420139
0.433453
0.449578
0.469971
0.496691
0.532025
0.577005
0.629427
0.682662
0.726552
0.749991
0.743562
0.700771
0.619067
0.500682
0.354268
0.19547
0.045388
-0.0746034
-0.150313
-0.181682
-0.182969
-0.17398
-0.167745
-0.166372
-0.165557
-0.161844
-0.155101
-0.147372
-0.140147
-0.134032
-0.128823
-0.124582
-0.121248
-0.119001
-0.117667
-0.117219
-0.117414
-0.118179
-0.119287
-0.120748
-0.122405
-0.124511
-0.123823
-0.12529
-0.12161
-0.127726
-0.112168
-0.140182
-0.0799126
-0.190274
0.0242537
-0.354026
0.34816
-0.822831
)
;

boundaryField
{
    inlet
    {
        type            freestreamPressure;
        freestreamValue uniform 0;
        value           nonuniform List<scalar> 
27
(
-3.44907
-3.33327
-3.2565
-3.19997
-3.13739
-3.06653
-2.99313
-2.91946
-2.84466
-2.76791
-2.68895
-2.60789
-2.52422
-2.43728
-2.34558
-2.24682
-2.13838
-2.01696
-1.93739
-1.86236
-1.77297
-1.66935
-1.54973
-1.3976
-1.19345
-0.834698
-0.36191
)
;
    }
    outlet
    {
        type            freestreamPressure;
        freestreamValue uniform 0;
        value           nonuniform List<scalar> 
78
(
0.00105524
0.00104881
0.00104436
0.00104058
0.00103672
0.00103268
0.00102915
0.00102626
0.00102463
0.00102409
0.00102496
0.00102697
0.00103061
0.00103573
0.00104278
0.00105157
0.00106253
0.00107552
0.00109105
0.00110909
0.00113025
0.00115463
0.00118294
0.0012156
0.00125388
0.00129978
0.00135714
0.00143154
0.00152938
0.00165391
0.00179973
0.0019494
0.00207566
0.00214777
0.00213823
0.00202631
0.0018015
0.00146687
0.00104501
0.000580828
0.00013769
-0.000218522
-0.000443317
-0.00053575
-0.000538746
-0.000511714
-0.000493428
-0.000490039
-0.000488609
-0.000478652
-0.000459637
-0.000437624
-0.000417076
-0.000399821
-0.000385262
-0.000373583
-0.000364627
-0.000358959
-0.000356086
-0.000355957
-0.000357866
-0.000361622
-0.000366555
-0.000372719
-0.00037967
-0.000387911
-0.000387414
-0.000393631
-0.000384351
-0.000405195
-0.000359338
-0.000448869
-0.000261396
-0.000611017
8.23655e-05
-0.00111011
0.00129688
-0.00229579
)
;
    }
    walls
    {
        type            zeroGradient;
    }
    frontAndBack
    {
        type            empty;
    }
    procBoundary7to3
    {
        type            processor;
        value           nonuniform List<scalar> 
16
(
5.61431
4.97981
4.45883
3.97947
3.58209
3.07901
2.58227
2.16627
1.73624
1.73624
1.42556
1.03137
0.718061
0.499819
0.0786739
0.368385
)
;
    }
    procBoundary7to6
    {
        type            processor;
        value           nonuniform List<scalar> 
91
(
-7.99385
-1.08967
-1.08967
-5.79997
-5.79997
-3.94655
-3.94655
-5.45132
-5.60243
-5.60243
-6.40399
-6.11741
-6.11741
-7.42333
-7.0363
-6.68622
-6.68622
-8.01495
-7.70461
-7.41069
-7.41069
-8.59748
-8.39031
-8.15155
-7.88404
-7.88404
-8.20681
-8.24578
-8.24164
-8.19587
-8.10998
-8.10998
-5.80617
-6.13992
-6.44222
-6.71055
-6.94273
-7.13708
-7.2922
-7.2922
-0.202883
-0.607174
-1.01812
-1.43397
-1.85275
-2.2722
-2.68992
-3.10325
-3.50938
-3.90532
-4.28803
-4.65439
-4.65439
6.37571
6.31083
6.24405
6.17364
6.09858
6.01858
5.93315
5.84169
5.74392
5.64014
5.53159
5.42057
5.31043
5.20441
5.10385
5.00654
4.90703
4.79832
4.67461
4.53429
4.37932
4.21079
4.02809
3.8337
3.6308
3.4196
3.19867
2.96688
2.72362
2.46853
2.20146
1.92247
1.63178
1.32972
1.01662
0.692939
0.359201
0.359201
)
;
    }
}


// ************************************************************************* //
