/*--------------------------------*- C++ -*----------------------------------*\
| =========                 |                                                 |
| \\      /  F ield         | OpenFOAM: The Open Source CFD Toolbox           |
|  \\    /   O peration     | Version:  2506                                  |
|   \\  /    A nd           | Website:  www.openfoam.com                      |
|    \\/     M anipulation  |                                                 |
\*---------------------------------------------------------------------------*/
FoamFile
{
    version     2.0;
    format      ascii;
    arch        "LSB;label=32;scalar=64";
    class       surfaceScalarField;
    location    "150";
    object      phi;
}
// * * * * * * * * * * * * * * * * * * * * * * * * * * * * * * * * * * * * * //

dimensions      [0 3 -1 0 0 0 0];

oriented        oriented;

internalField   nonuniform List<scalar> 
2574
(
18.4477
0.480525
16.5775
18.4429
0.506548
15.1652
0.504273
16.5798
18.4381
0.528505
13.7532
0.531063
15.1627
0.529245
16.5816
18.4334
0.551455
11.3911
0.553412
12.5301
0.554121
13.7525
0.556791
15.16
0.555368
16.5831
18.4288
0.573797
9.42905
0.576039
10.3656
0.57793
11.3893
0.580056
12.5279
0.580979
13.7516
0.583771
15.1572
0.58274
16.5841
18.4241
0.593178
7.09859
0.59597
7.8037
0.598658
8.57674
0.601189
9.42652
0.603634
10.3632
0.6057
11.3872
0.608004
12.5256
0.609148
13.7505
0.612074
15.1543
0.611405
16.5848
18.4195
0.61233
7.49247
0.615393
5.873
0.618441
6.45493
0.621437
7.0956
0.624386
7.80075
0.627244
8.57388
0.629962
9.4238
0.632565
10.3606
0.634813
11.3849
0.637326
12.5231
0.638676
13.7491
0.641764
15.1512
0.641476
16.5851
18.4149
0.622008
6.06034
0.627335
6.38989
0.632387
6.73679
0.637152
7.10203
0.641654
7.48797
0.644827
5.86983
0.647998
6.45176
0.651159
7.09244
0.654256
7.79766
0.657279
8.57086
0.660137
9.42094
0.662942
10.3578
0.665377
11.3825
0.668101
12.5204
0.669666
13.7475
0.672918
15.1479
0.672995
16.585
18.4102
0.623265
4.64051
0.629406
4.89481
0.635453
5.16261
0.641379
5.44479
0.647123
5.74191
0.652674
6.05479
0.657997
6.38457
0.663104
6.73168
0.66798
7.09716
0.672573
7.48337
0.67584
5.86656
0.679119
6.44848
0.68239
7.08917
0.685625
7.79442
0.688804
8.56768
0.691857
9.41789
0.694847
10.3548
0.697471
11.3799
0.700362
12.5175
0.702193
13.7457
0.705584
15.1446
0.705889
16.5847
18.4056
0.615738
3.18168
0.621225
3.35807
0.626852
3.54401
0.632619
3.73984
0.638484
3.94643
0.644417
4.16385
0.650385
4.39307
0.656356
4.63454
0.662311
4.88886
0.668177
5.15675
0.673961
5.43901
0.67962
5.73625
0.685125
6.04929
0.690465
6.37923
0.695594
6.72655
0.700495
7.09226
0.705197
7.47867
0.70854
5.86322
0.711911
6.44511
0.715278
7.0858
0.718653
7.79105
0.721979
8.56435
0.725162
9.41471
0.728331
10.3516
0.731174
11.377
0.734218
12.5145
0.736318
13.7436
0.739869
15.141
0.740621
16.584
18.4008
0.608992
1.65502
0.611571
1.74786
0.614321
1.84585
0.617265
1.94937
0.620414
2.05842
0.623763
2.17352
0.627343
2.29502
0.631145
2.42319
0.635182
2.55825
0.639428
2.70085
0.64388
2.8511
0.648555
3.00971
0.653428
3.17681
0.658485
3.35301
0.66371
3.53878
0.669081
3.73447
0.674576
3.94094
0.680166
4.15826
0.685837
4.3874
0.69152
4.62885
0.697224
4.88315
0.702918
5.15105
0.708544
5.43338
0.71407
5.73072
0.719494
6.04386
0.724776
6.37395
0.729896
6.72143
0.734848
7.08731
0.739574
7.47394
0.742975
5.85982
0.746422
6.44166
0.749912
7.08231
0.753371
7.78759
0.756832
8.56089
0.760211
9.41133
0.763583
10.3482
0.76654
11.3741
0.76984
12.5112
0.772134
13.7413
0.775853
15.1373
0.77693
16.5829
18.396
0.651278
0.231853
0.651043
0.24466
0.650566
0.258072
0.649751
0.271983
0.648456
0.286292
0.64657
0.300905
0.64398
0.315796
0.640576
0.330854
0.636253
0.346067
0.630864
0.361479
0.624358
0.377073
0.616716
0.392937
0.608126
0.409251
0.599048
0.426332
0.590477
0.444633
0.583866
0.464916
0.580955
0.488226
0.583155
0.515769
0.590672
0.54853
0.601939
0.586771
0.613758
0.629578
0.622851
0.674849
0.627833
0.720301
0.629658
0.764839
0.630351
0.809095
0.631265
0.854705
0.63272
0.902969
0.634402
0.95416
0.636061
1.00863
0.637623
1.0659
0.639202
1.12613
0.640845
1.18991
0.642565
1.25704
0.644362
1.32789
0.646246
1.40272
0.648234
1.48167
0.650342
1.56498
0.652593
1.65277
0.654963
1.74549
0.657499
1.84332
0.660201
1.94667
0.663079
2.05555
0.666143
2.17046
0.669402
2.29176
0.672873
2.41972
0.676524
2.5546
0.680392
2.69699
0.684479
2.84701
0.688755
3.00543
0.693215
3.17235
0.697873
3.34835
0.702717
3.53394
0.707708
3.72948
0.712838
3.93581
0.718085
4.15301
0.723412
4.38207
0.728833
4.62343
0.734266
4.87772
0.739725
5.14559
0.745165
5.42794
0.750571
5.72532
0.755884
6.03855
0.761078
6.36875
0.766158
6.71635
0.771089
7.08237
0.77587
7.46916
0.779297
5.85639
0.782759
6.4382
0.786355
7.07871
0.789984
7.78396
0.79348
8.55739
0.796971
9.40784
0.80048
10.3447
0.803665
11.3709
0.807163
12.5077
0.809688
13.7388
0.813592
15.1334
0.815119
16.5814
18.391
0.698323
0.232006
0.698141
0.244852
0.697846
0.258374
0.697277
0.272559
0.696207
0.287365
0.694516
0.302601
0.692066
0.318247
0.688796
0.334128
0.684616
0.350247
0.679558
0.366539
0.673588
0.383043
0.666763
0.399764
0.659165
0.41685
0.651029
0.434471
0.642756
0.452905
0.635043
0.472631
0.628978
0.49429
0.625969
0.518779
0.627317
0.547182
0.633566
0.580524
0.64391
0.619234
0.655804
0.662956
0.666096
0.710009
0.672638
0.758298
0.675598
0.806135
0.676685
0.853619
0.677611
0.902043
0.679056
0.952715
0.680858
1.00682
0.682696
1.06406
0.684423
1.1244
0.686102
1.18823
0.687838
1.2553
0.689647
1.32608
0.691536
1.40083
0.693486
1.47972
0.695521
1.56294
0.697649
1.65065
0.699903
1.74323
0.702286
1.84093
0.704805
1.94415
0.707472
2.05288
0.710311
2.16762
0.713307
2.28877
0.716466
2.41656
0.719821
2.55124
0.723362
2.69345
0.727093
2.84328
0.731013
3.00151
0.735135
3.16823
0.739425
3.34406
0.743876
3.52949
0.748504
3.72485
0.753281
3.93103
0.758191
4.1481
0.763212
4.37705
0.768323
4.61832
0.773515
4.87253
0.778735
5.14037
0.783955
5.42272
0.789174
5.7201
0.794349
6.03338
0.799441
6.36366
0.804495
6.7113
0.809323
7.07755
0.814103
7.46438
0.817566
5.85293
0.821227
6.43454
0.824696
7.07524
0.828349
7.78031
0.832188
8.55355
0.83581
9.40422
0.839332
10.3412
0.842692
11.3675
0.846539
12.5038
0.849285
13.736
0.853254
15.1294
0.85488
16.5797
18.3858
0.746621
0.232169
0.74647
0.245017
0.7463
0.258553
0.746035
0.272833
0.745516
0.287888
0.744494
0.303628
0.742794
0.319948
0.740205
0.336722
0.736648
0.353804
0.732074
0.371117
0.726485
0.388632
0.719957
0.406296
0.712608
0.424198
0.704641
0.442441
0.696338
0.461209
0.68813
0.480842
0.680661
0.50176
0.674802
0.524641
0.671717
0.550267
0.672554
0.57969
0.677951
0.613838
0.687536
0.653373
0.699376
0.69817
0.710602
0.747075
0.718672
0.798067
0.722914
0.849379
0.724603
0.900355
0.725598
0.951722
0.726998
1.00542
0.728899
1.06216
0.730922
1.12238
0.732832
1.18632
0.73464
1.25349
0.736465
1.32426
0.738329
1.39897
0.740279
1.47777
0.742292
1.56093
0.744376
1.64856
0.746558
1.74105
0.748827
1.83867
0.751207
1.94177
0.753697
2.05039
0.756333
2.16498
0.759112
2.28599
0.762043
2.41363
0.765135
2.54815
0.768393
2.69019
0.771822
2.83985
0.775426
2.99791
0.779206
3.16445
0.783159
3.34011
0.787282
3.52536
0.791569
3.72057
0.79601
3.92659
0.800591
4.14352
0.805298
4.37234
0.810085
4.61353
0.81496
4.86765
0.819943
5.13539
0.82494
5.41772
0.830064
5.71497
0.835039
6.0284
0.83999
6.35871
0.84491
6.70638
0.849892
7.07256
0.854491
7.45978
0.858102
5.84932
0.861527
6.43111
0.865331
7.07144
0.868905
7.77673
0.872693
8.54977
0.876433
9.40048
0.880403
10.3372
0.883924
11.364
0.887693
12.5
0.890624
13.7331
0.895159
15.1249
0.896807
16.5781
18.3802
0.796715
0.232317
0.796564
0.245169
0.796431
0.258687
0.796279
0.272988
0.796093
0.288075
0.795739
0.303985
0.79495
0.320739
0.793498
0.338177
0.791118
0.356184
0.787636
0.374602
0.782952
0.393316
0.777064
0.412186
0.77005
0.431212
0.762099
0.450393
0.753442
0.469866
0.744496
0.48979
0.735749
0.510506
0.727874
0.532518
0.721723
0.556416
0.718328
0.583088
0.71871
0.613455
0.723556
0.648529
0.732686
0.689039
0.744668
0.735095
0.756843
0.785891
0.766518
0.839705
0.772243
0.894629
0.774715
0.949252
0.775777
1.00436
0.776948
1.06099
0.778746
1.12058
0.780902
1.18417
0.783023
1.25137
0.784988
1.3223
0.786891
1.39707
0.788817
1.47584
0.790809
1.55893
0.792867
1.6465
0.79499
1.73893
0.797182
1.83647
0.799459
1.9395
0.801843
2.048
0.804312
2.16251
0.806912
2.28339
0.809655
2.41089
0.812523
2.54528
0.815536
2.68717
0.818741
2.83664
0.821987
2.99466
0.825459
3.16097
0.829093
3.33648
0.832916
3.52154
0.836952
3.71653
0.841076
3.92247
0.845277
4.13932
0.849665
4.36795
0.854214
4.60899
0.858977
4.86289
0.863553
5.13081
0.86847
5.41281
0.873154
5.71029
0.877994
6.02356
0.882969
6.35373
0.887635
6.70171
0.892394
7.06781
0.897231
7.45495
0.900545
5.846
0.904121
6.42754
0.907809
7.06775
0.911722
7.77282
0.915451
8.54604
0.919288
9.39664
0.923272
10.3332
0.926918
11.3604
0.931097
12.4959
0.934132
13.7301
0.938909
15.1201
0.940715
16.5763
18.3739
0.849134
0.232424
0.849043
0.24528
0.848953
0.2588
0.848859
0.273096
0.848781
0.288169
0.848679
0.304096
0.848515
0.320915
0.848055
0.338641
0.847061
0.357187
0.845232
0.376434
0.84231
0.396243
0.838092
0.416406
0.832488
0.436819
0.825518
0.457365
0.81733
0.478056
0.808203
0.498918
0.798558
0.520153
0.788959
0.542119
0.780132
0.565245
0.772963
0.590258
0.768453
0.617967
0.767602
0.649381
0.771156
0.685487
0.779212
0.72704
0.790591
0.774512
0.803164
0.827132
0.814359
0.883434
0.822175
0.941436
0.826466
1.00007
0.828325
1.05913
0.829643
1.11927
0.831069
1.18274
0.833093
1.24935
0.835261
1.32013
0.837385
1.39494
0.839433
1.47379
0.841476
1.55689
0.843469
1.64451
0.845462
1.73693
0.847619
1.83431
0.849816
1.9373
0.852056
2.04576
0.854484
2.16008
0.856823
2.28105
0.859454
2.40826
0.86211
2.54263
0.86488
2.6844
0.867808
2.83372
0.870877
2.99159
0.874092
3.15776
0.877592
3.33298
0.88111
3.51802
0.884647
3.71299
0.888469
3.91865
0.892572
4.13522
0.896679
4.36385
0.900914
4.60475
0.905129
4.85867
0.909721
5.12622
0.914123
5.4084
0.91873
5.70568
0.923382
6.01891
0.928056
6.34906
0.932875
6.69689
0.937395
7.06328
0.942024
7.45032
0.945457
5.84257
0.949023
6.42397
0.952732
7.06404
0.956527
7.76903
0.96049
8.54207
0.964385
9.39275
0.968573
10.3291
0.972259
11.3567
0.97682
12.4913
0.979779
13.7271
0.985204
15.1147
0.986824
16.5747
18.3667
1.43665
0.233026
1.43613
0.245775
1.43554
0.259366
1.43503
0.273588
1.4343
0.288881
1.43377
0.304617
1.43312
0.321554
1.43245
0.3393
1.43144
0.358195
1.43014
0.377724
1.42772
0.398656
1.42391
0.420207
1.41823
0.4425
1.4101
0.465485
1.39961
0.488551
1.38658
0.511936
1.37143
0.535305
1.3547
0.558842
1.33721
0.582737
1.32007
0.607389
1.30496
0.633087
1.29318
0.661154
1.28648
0.692183
1.28635
0.727167
1.29325
0.767609
1.30656
0.813816
1.3238
0.866197
1.34131
0.923918
1.35553
0.985856
1.36459
1.05007
1.36856
1.1153
1.36952
1.18177
1.3694
1.24948
1.3694
1.32012
1.36982
1.39452
1.37029
1.47333
1.37075
1.55643
1.37082
1.64444
1.37079
1.73696
1.37036
1.83474
1.36999
1.93767
1.36942
2.04633
1.36854
2.16097
1.36773
2.28186
1.36662
2.40937
1.36549
2.54376
1.36422
2.68568
1.36268
2.83525
1.36115
2.99312
1.35951
3.1594
1.35736
3.33513
1.35522
3.52015
1.35297
3.71524
1.35034
3.92128
1.34744
4.13811
1.34428
4.36701
1.34082
4.60821
1.33691
4.86258
1.33254
5.13059
1.32781
5.41313
1.32242
5.71108
1.31646
6.02487
1.30963
6.35589
1.30216
6.70436
1.29389
7.07156
1.28464
7.45957
1.27681
5.8504
1.26781
6.43297
1.25761
7.07424
1.24587
7.78077
1.23262
8.55532
1.21735
9.40803
1.20032
10.3461
1.18049
11.3765
1.15881
12.513
1.13249
13.7534
1.10589
15.1413
1.07038
16.6102
18.3938
1.53798
0.23332
1.53739
0.246337
1.53681
0.259933
1.53608
0.274295
1.53563
0.28933
1.53489
0.305337
1.53417
0.322273
1.53345
0.340003
1.53276
0.358884
1.53189
0.378576
1.531
0.399553
1.52936
0.421831
1.52699
0.444872
1.52306
0.469409
1.51717
0.494444
1.50881
0.520283
1.4976
0.546525
1.48349
0.572938
1.467
0.599241
1.44877
0.625606
1.42966
0.652207
1.41127
0.67953
1.39545
0.70801
1.38348
0.739125
1.37758
0.773516
1.37864
0.812746
1.38686
0.857987
1.40107
0.909698
1.4185
0.968435
1.43558
1.03298
1.44917
1.10172
1.4576
1.17332
1.46111
1.24598
1.46161
1.31961
1.46097
1.39516
1.46058
1.47372
1.46025
1.55675
1.46038
1.64431
1.46022
1.73712
1.45962
1.83534
1.45877
1.93853
1.45762
2.04746
1.4564
2.16219
1.45497
2.28329
1.45333
2.41101
1.45147
2.54561
1.44931
2.68785
1.4471
2.83746
1.44473
2.99548
1.44194
3.16219
1.43901
3.33807
1.43594
3.52322
1.43248
3.71871
1.42887
3.92488
1.42487
4.14212
1.42058
4.37129
1.41589
4.61291
1.41089
4.86757
1.40545
5.13603
1.39941
5.41918
1.39288
5.71761
1.38569
6.03205
1.37796
6.36362
1.36937
6.71295
1.36004
7.08088
1.3498
7.46981
1.3411
5.8591
1.3314
6.44268
1.32025
7.08538
1.3076
7.79342
1.29351
8.56942
1.27743
9.42411
1.25938
10.3641
1.23841
11.3975
1.21569
12.5357
1.1883
13.7808
1.1603
15.1693
1.12323
16.6473
18.4217
1.6427
1.6421
0.246905
1.64151
0.260515
1.64089
0.274888
1.64014
0.290071
1.63951
0.305956
1.63873
0.323045
1.63793
0.340785
1.63714
0.359668
1.63623
0.379477
1.63522
0.400563
1.63433
0.422706
1.6332
0.445996
1.63169
0.470911
1.62925
0.49689
1.62538
0.524136
1.61932
0.552596
1.61066
0.58158
1.59864
0.611272
1.58341
0.640821
1.56539
0.670238
1.54522
0.699684
1.52424
0.729003
1.50419
0.759167
1.48694
0.790769
1.47464
0.825038
1.46886
0.863776
1.47089
0.907657
1.48037
0.958957
1.49584
1.0175
1.51409
1.08347
1.53147
1.15593
1.54459
1.23287
1.55209
1.3121
1.55461
1.39264
1.55401
1.47431
1.55271
1.55806
1.55165
1.64536
1.55099
1.73779
1.55042
1.8359
1.54945
1.9395
1.54811
2.0488
1.54639
2.16392
1.54439
2.28528
1.54218
2.41322
1.53974
2.54804
1.53707
2.69052
1.53417
2.84035
1.53082
2.99885
1.5274
3.1656
1.52368
3.34179
1.51966
3.52724
1.51535
3.72302
1.51061
3.92962
1.50573
4.147
1.50043
4.37659
1.49471
4.61862
1.48842
4.87385
1.48185
5.14261
1.47468
5.42634
1.46706
5.72523
1.45881
6.0403
1.44992
6.37251
1.44023
6.72264
1.4297
7.09141
1.41832
7.48119
1.40887
5.86855
1.39831
6.45323
1.38621
7.09749
1.37293
7.8067
1.3578
8.58454
1.34064
9.44127
1.32152
10.3833
1.29962
11.4194
1.27559
12.5597
1.24704
13.8094
1.21758
15.1988
1.17918
16.6857
18.4508
1.75021
0.247518
1.74949
0.261147
1.74878
0.275536
1.74791
0.290873
1.74705
0.306773
1.74617
0.323883
1.74514
0.341781
1.74409
0.360685
1.74304
0.380509
1.74198
0.401598
1.74082
0.423856
1.7397
0.447098
1.73863
0.471976
1.73736
0.498143
1.73567
0.525818
1.73323
0.555027
1.72924
0.58557
1.72313
0.617367
1.71387
0.650085
1.70074
0.683361
1.68404
0.71638
1.66393
0.749105
1.64144
0.781664
1.6181
0.814092
1.59598
0.847164
1.5776
0.882145
1.56481
0.920454
1.55996
0.963796
1.56361
1.01386
1.57524
1.07183
1.59259
1.13859
1.61193
1.21351
1.6292
1.29483
1.64112
1.38071
1.64699
1.46845
1.64776
1.55727
1.64597
1.64716
1.64406
1.73969
1.64269
1.83728
1.6415
1.94068
1.64022
2.05009
1.63851
2.16562
1.63617
2.28763
1.63346
2.41592
1.63051
2.551
1.62732
2.69371
1.62375
2.84393
1.61991
3.00267
1.61573
3.16978
1.6112
3.34632
1.60635
3.5321
1.60117
3.7282
1.59569
3.9351
1.58977
4.15292
1.58341
4.38294
1.57663
4.62541
1.56956
4.88093
1.56178
5.15039
1.55371
5.43441
1.54491
5.73403
1.53552
6.04968
1.52538
6.38265
1.5146
6.73341
1.50304
7.10297
1.49067
7.49355
1.48035
5.87887
1.46879
6.46479
1.45601
7.11027
1.44152
7.8212
1.42551
8.60054
1.40739
9.45939
1.38721
10.4034
1.36393
11.4427
1.3388
12.5849
1.30903
13.8392
1.278
15.2298
1.23819
16.7255
18.4809
1.86204
0.248225
1.86135
0.261874
1.8605
0.276421
1.85962
0.291779
1.85872
0.307697
1.85765
0.324968
1.85669
0.342748
1.85557
0.361816
1.85428
0.381805
1.85297
0.402919
1.85177
0.425058
1.85029
0.448582
1.84883
0.473435
1.84729
0.499682
1.84596
0.527143
1.8445
0.556485
1.84268
0.587392
1.84001
0.620039
1.83585
0.654245
1.82921
0.689994
1.81885
0.726742
1.80434
0.763611
1.78554
0.800462
1.76287
0.836754
1.73764
0.872395
1.71165
0.908133
1.68776
0.94435
1.66826
0.983287
1.65588
1.02625
1.65259
1.0751
1.65872
1.13246
1.6731
1.19912
1.69262
1.27531
1.71272
1.36061
1.72913
1.45205
1.73902
1.54737
1.7423
1.64388
1.74089
1.74109
1.73803
1.84014
1.73561
1.94309
1.73374
2.05197
1.73194
2.16741
1.72982
2.28976
1.72694
2.4188
1.72363
2.55432
1.72002
2.69732
1.71589
2.84806
1.71163
3.00694
1.70668
3.17474
1.70175
3.35125
1.69604
3.53781
1.69013
3.73411
1.68389
3.94135
1.67704
4.15976
1.66989
4.3901
1.66228
4.63301
1.65411
4.8891
1.6455
5.159
1.63618
5.44373
1.62643
5.74378
1.61596
6.06015
1.6049
6.39371
1.59295
6.74536
1.58025
7.11567
1.56679
7.50701
1.5556
5.89006
1.54307
6.47732
1.52933
7.12401
1.51393
7.8366
1.49662
8.61785
1.4774
9.47861
1.45603
10.4248
1.43194
11.4668
1.40531
12.6115
1.37418
13.8703
1.34186
15.2621
1.30047
16.7669
18.5118
1.97507
0.249016
1.97414
0.262831
1.97317
0.277399
1.97221
0.292777
1.97107
0.308853
1.97006
0.326004
1.96874
0.344084
1.96755
0.363032
1.96632
0.383041
1.96494
0.40432
1.96338
0.426623
1.9618
0.450173
1.96005
0.475187
1.95844
0.501295
1.95658
0.529006
1.95494
0.55813
1.95313
0.589209
1.95152
0.621653
1.94945
0.656312
1.94667
0.692778
1.94226
0.731154
1.93476
0.771113
1.92312
0.812103
1.90666
0.853208
1.88516
0.893901
1.85952
0.933766
1.83118
0.972692
1.80269
1.01177
1.77716
1.05178
1.75745
1.09481
1.74645
1.14347
1.74584
1.19972
1.75547
1.26569
1.7735
1.34258
1.79507
1.43048
1.81549
1.52695
1.8299
1.62948
1.83662
1.73436
1.83694
1.83983
1.83377
1.94625
1.83034
2.0554
1.82767
2.17007
1.82529
2.29214
1.82256
2.42152
1.81914
2.55774
1.81501
2.70145
1.81057
2.85251
1.80564
3.01187
1.80047
3.17991
1.79474
3.35698
1.78873
3.54381
1.7822
3.74064
1.77504
3.94851
1.76753
4.16727
1.75956
4.39808
1.75113
4.64144
1.7421
4.89813
1.73249
5.16861
1.72231
5.45391
1.71156
5.75453
1.70009
6.07162
1.68791
6.40589
1.67501
6.75826
1.66123
7.12945
1.64643
7.52181
1.63441
5.90208
1.62121
6.49052
1.6064
7.13881
1.58982
7.85319
1.57166
8.63602
1.55136
9.49891
1.52882
10.4474
1.50322
11.4924
1.47527
12.6395
1.44281
13.9028
1.40902
15.2959
1.36612
16.8098
18.5429
2.09056
0.249884
2.08956
0.263863
2.08853
0.278449
2.08748
0.293844
2.08625
0.310079
2.08488
0.327389
2.08376
0.3452
2.08236
0.364447
2.08078
0.384613
2.07934
0.405764
2.07773
0.428225
2.07598
0.451933
2.07433
0.476826
2.07254
0.503096
2.07057
0.530966
2.06848
0.560229
2.06656
0.591125
2.06447
0.623752
2.06251
0.65826
2.06054
0.694753
2.05842
0.733271
2.05538
0.774154
2.05032
0.817165
2.04195
0.86158
2.02858
0.90727
2.00947
0.952878
1.98466
0.997498
1.95545
1.04098
1.9238
1.08344
1.89288
1.12573
1.86622
1.17014
1.84731
1.21863
1.83894
1.27406
1.84205
1.33946
1.85612
1.41641
1.87693
1.50614
1.89955
1.60686
1.91784
1.71607
1.9283
1.82937
1.93063
1.94392
1.92785
2.05819
1.92361
2.17431
1.92026
2.29549
1.91798
2.4238
1.91537
2.56036
1.91179
2.70502
1.90734
2.85696
1.9022
3.01701
1.89676
3.18535
1.89067
3.36307
1.88416
3.55032
1.87708
3.74773
1.86957
3.95602
1.8614
4.17544
1.85274
4.40674
1.84345
4.65073
1.83369
4.90789
1.82319
5.17911
1.81224
5.46486
1.80044
5.76633
1.78807
6.08399
1.7747
6.41926
1.76077
6.7722
1.74598
7.14424
1.7302
7.5376
1.71739
5.91489
1.70314
6.50477
1.6873
7.15465
1.66987
7.87062
1.65059
8.65529
1.62896
9.52055
1.60512
10.4712
1.57833
11.5192
1.54911
12.6687
1.5152
13.9367
1.48027
15.3308
1.43523
16.8548
18.5727
2.20394
0.251089
2.20285
0.264942
2.20173
0.279543
2.20049
0.295094
2.19923
0.311342
2.19798
0.328664
2.19655
0.346628
2.19513
0.365887
2.19369
0.386062
2.1921
0.407365
2.1905
0.429836
2.18875
0.453696
2.18697
0.478598
2.18506
0.505023
2.18311
0.532909
2.18102
0.562334
2.17889
0.593247
2.17664
0.626013
2.17428
0.660615
2.17206
0.696985
2.16973
0.735597
2.16757
0.776326
2.16523
0.819498
2.16166
0.865154
2.15563
0.913303
2.14556
0.962955
2.12968
1.01337
2.10701
1.06365
2.07819
1.11226
2.04472
1.15921
2.00976
1.2051
1.97724
1.25116
1.95129
1.30001
1.93578
1.35497
1.93337
1.41882
1.94423
1.49528
1.96528
1.58581
1.99128
1.69007
2.01467
1.80598
2.02995
1.92864
2.03483
2.05332
2.03158
2.17756
2.02479
2.30228
2.01833
2.43026
2.01364
2.56505
2.00997
2.70869
2.00588
2.86106
2.0009
3.02199
1.99499
3.19127
1.98866
3.36939
1.98167
3.55733
1.97427
3.75513
1.96632
3.96397
1.95767
4.18409
1.9485
4.41593
1.93866
4.66057
1.9282
4.91835
1.91711
5.1902
1.90529
5.47669
1.89272
5.7789
1.8793
6.09742
1.86531
6.43326
1.85032
6.78719
1.83449
7.16007
1.81783
7.55427
1.804
5.92873
1.78889
6.51988
1.77223
7.17131
1.7537
7.88915
1.73323
8.67577
1.71045
9.54333
1.68536
10.4963
1.65729
11.5472
1.62668
12.6993
1.59129
13.9721
1.5551
15.367
1.50722
16.9027
18.5982
2.32111
0.252161
2.32012
0.266009
2.31897
0.280747
2.31781
0.296291
2.31649
0.312672
2.31534
0.32984
2.31403
0.347934
2.31276
0.367176
2.31133
0.387476
2.30982
0.408901
2.30829
0.431348
2.30697
0.45504
2.30535
0.4802
2.3038
0.506595
2.30209
0.534593
2.30047
0.563987
2.29868
0.595015
2.29682
0.627897
2.29495
0.662466
2.29303
0.69892
2.29105
0.737556
2.28934
0.778064
2.28761
0.821206
2.28606
0.866728
2.28449
0.914854
2.28139
0.96607
2.27527
1.01948
2.26416
1.07478
2.24571
1.1307
2.21897
1.18595
2.18423
1.23983
2.14344
1.29196
2.10025
1.34319
2.06003
1.3952
2.02743
1.45142
2.00804
1.51468
2.00478
1.58907
2.01731
1.67754
2.04188
1.78141
2.07137
1.89915
2.09766
2.02703
2.11474
2.16047
2.12153
2.2955
2.12087
2.43091
2.1167
2.56923
2.11201
2.71338
2.10773
2.86535
2.10311
3.0266
2.0978
3.19659
2.09136
3.37583
2.08438
3.56432
2.07642
3.76308
2.06801
3.9724
2.05898
4.19311
2.04912
4.42581
2.03856
4.67113
2.02736
4.92957
2.01553
5.20203
2.00281
5.48942
1.9895
5.79221
1.97534
6.11159
1.96034
6.44827
1.9445
6.80303
1.92754
7.17703
1.90961
7.5722
1.89526
5.94308
1.87908
6.53607
1.8615
7.18889
1.84194
7.90872
1.82033
8.69738
1.79639
9.56728
1.77021
10.5225
1.7404
11.5771
1.70882
12.7309
1.67027
14.0106
1.63573
15.4016
1.57971
16.9587
18.6115
2.42504
2.42396
2.42289
2.42182
2.42077
2.41957
2.41825
2.41693
2.41564
2.41434
2.41292
2.41136
2.40982
2.40814
2.40649
2.40468
2.40276
2.40083
2.39877
2.39654
2.39433
2.39185
2.38947
2.38714
2.38474
2.38238
2.37929
2.37413
2.36537
2.35137
2.33093
2.30424
2.27264
2.23844
2.20561
2.17785
2.15913
2.15204
2.15697
2.17102
2.18901
2.2051
2.21497
2.21749
2.2151
2.21052
2.2055
2.20056
2.19523
2.18928
2.18238
2.17486
2.16642
2.15735
2.14754
2.13698
2.12558
2.11336
2.10034
2.0864
2.07172
2.05602
2.03934
2.02182
2.0032
1.98787
1.97115
1.95252
1.93203
1.90951
1.88422
1.85718
1.82497
1.79416
1.74933
1.721
1.64552
)
;

boundaryField
{
    inlet
    {
        type            calculated;
        value           nonuniform List<scalar> 
27
(
0.46244
0.485283
0.509095
0.533958
0.560038
0.587378
0.616042
0.646066
0.677679
0.710563
0.745354
0.781766
0.820112
0.860126
0.902438
0.946969
0.994033
1.04328
1.09534
1.15012
1.20801
1.26961
1.33505
1.40538
1.48173
1.56643
1.6052
)
;
    }
    outlet
    {
        type            calculated;
        value           nonuniform List<scalar> 
78
(
0.25312
0.267081
0.281812
0.29735
0.313724
0.331026
0.349254
0.368487
0.388777
0.410191
0.43277
0.456594
0.481742
0.508269
0.536256
0.565783
0.596945
0.629824
0.664539
0.701143
0.73978
0.780545
0.823591
0.86907
0.917262
0.968441
1.02258
1.07995
1.13946
1.19997
1.26028
1.31866
1.3748
1.42941
1.48427
1.54245
1.6078
1.68464
1.7765
1.88513
2.00905
2.1444
2.28566
2.42841
2.57165
2.71797
2.8704
3.03156
3.20195
3.3818
3.57125
3.77062
3.98087
4.2022
4.43565
4.6817
4.94099
5.21428
5.50246
5.80616
6.12628
6.46397
6.81973
7.19456
7.59082
5.95842
6.5528
7.20752
7.92921
8.7199
9.59256
10.5495
11.6093
12.7617
14.0555
15.4299
17.0342
18.6518
)
;
    }
    walls
    {
        type            calculated;
        value           nonuniform List<scalar> 0();
    }
    frontAndBack
    {
        type            empty;
    }
    procBoundary7to3
    {
        type            processor;
        value           nonuniform List<scalar> 
16
(
-0.651443
-0.698451
-0.746752
-0.796844
-0.8492
-1.4373
-1.53833
-1.64329
0.233883
-1.75116
-1.86252
-1.97599
-2.09122
-2.20554
-2.32173
-2.42601
)
;
    }
    procBoundary7to6
    {
        type            processor;
        value           nonuniform List<scalar> 
91
(
-18.4522
-0.457971
-16.575
-0.483101
-15.1677
-0.504068
-13.7537
-11.3929
-0.527987
-12.532
-9.43141
-0.549734
-10.3678
-7.10146
-7.8065
-0.571438
-8.57943
-7.49685
-5.87607
-0.590315
-6.45798
-6.06591
-6.39522
-6.74184
-0.607944
-7.1068
-4.64673
-4.90095
-5.16866
-5.45072
-0.616447
-5.74765
-3.187
-3.36356
-3.54963
-3.74561
-3.9523
-4.16978
-0.617041
-4.39904
-1.65742
-1.75043
-1.8486
-1.95232
-2.06157
-2.17687
-2.2986
-2.42699
-2.56228
-2.7051
-2.85555
-0.610415
-3.01438
-0.231696
-0.244424
-0.257597
-0.271168
-0.284998
-0.299018
-0.313207
-0.32745
-0.341744
-0.356089
-0.370565
-0.385295
-0.40066
-0.417253
-0.43606
-0.458305
-0.485312
-0.51797
-0.556044
-0.598037
-0.641394
-0.683942
-0.725279
-0.766664
-0.809785
-0.855619
-0.904422
-0.955842
-1.01028
-1.06746
-1.12771
-1.19155
-1.25876
-1.32969
-1.40461
-1.48365
-0.606598
-1.56708
)
;
    }
}


// ************************************************************************* //
