/*--------------------------------*- C++ -*----------------------------------*\
| =========                 |                                                 |
| \\      /  F ield         | OpenFOAM: The Open Source CFD Toolbox           |
|  \\    /   O peration     | Version:  2506                                  |
|   \\  /    A nd           | Website:  www.openfoam.com                      |
|    \\/     M anipulation  |                                                 |
\*---------------------------------------------------------------------------*/
FoamFile
{
    version     2.0;
    format      ascii;
    arch        "LSB;label=32;scalar=64";
    class       volScalarField;
    location    "150";
    object      turbulenceProperties:k;
}
// * * * * * * * * * * * * * * * * * * * * * * * * * * * * * * * * * * * * * //

dimensions      [0 2 -2 0 0 0 0];

internalField   nonuniform List<scalar> 
1340
(
9.00184e-07
6.62199e-07
9.13806e-07
6.47631e-07
6.40115e-07
9.13696e-07
2.68437e-07
6.397e-07
6.25266e-07
9.17626e-07
2.5376e-07
4.46123e-07
2.6549e-07
6.33588e-07
6.12737e-07
9.2419e-07
3.5949e-07
4.12489e-07
2.46499e-07
4.38483e-07
2.62449e-07
6.28141e-07
6.0249e-07
9.30855e-07
5.06481e-07
4.4613e-07
4.40243e-07
3.46248e-07
4.01831e-07
2.38887e-07
4.31052e-07
2.5945e-07
6.23488e-07
5.9493e-07
9.37051e-07
5.91751e-07
5.5365e-07
5.10436e-07
4.86089e-07
4.27874e-07
4.25186e-07
3.32839e-07
3.91097e-07
2.31041e-07
4.2398e-07
2.5646e-07
6.19756e-07
5.89943e-07
9.4267e-07
7.6783e-07
7.11659e-07
6.58911e-07
6.08896e-07
5.61538e-07
5.27021e-07
4.8646e-07
4.65461e-07
4.09507e-07
4.09976e-07
3.19389e-07
3.80348e-07
2.23002e-07
4.17217e-07
2.53501e-07
6.16743e-07
5.86961e-07
9.48482e-07
1.01774e-06
9.50888e-07
8.87515e-07
8.27472e-07
7.70613e-07
7.17146e-07
6.66807e-07
6.19401e-07
5.74454e-07
5.31305e-07
5.00303e-07
4.6238e-07
4.44637e-07
3.91049e-07
3.94608e-07
3.05893e-07
3.69562e-07
2.1481e-07
4.10635e-07
2.50623e-07
6.14199e-07
5.8555e-07
9.53594e-07
1.43699e-06
1.35596e-06
1.27845e-06
1.20395e-06
1.13208e-06
1.06298e-06
9.9699e-07
9.34403e-07
8.75181e-07
8.19038e-07
7.65764e-07
7.15209e-07
6.67543e-07
6.2267e-07
5.80317e-07
5.40225e-07
5.01193e-07
4.73604e-07
4.38283e-07
4.23673e-07
3.72547e-07
3.79121e-07
2.92417e-07
3.58744e-07
2.06522e-07
4.0418e-07
2.47816e-07
6.12007e-07
5.86127e-07
9.5855e-07
2.50623e-06
2.37225e-06
2.24606e-06
2.12629e-06
2.01482e-06
1.91128e-06
1.81324e-06
1.71894e-06
1.62851e-06
1.54256e-06
1.4607e-06
1.38183e-06
1.30565e-06
1.2326e-06
1.16297e-06
1.09633e-06
1.03222e-06
9.70614e-07
9.11832e-07
8.56127e-07
8.03561e-07
7.53793e-07
7.06601e-07
6.6176e-07
6.19432e-07
5.79607e-07
5.41976e-07
5.0648e-07
4.71414e-07
4.4711e-07
4.14342e-07
4.02713e-07
3.54136e-07
3.63608e-07
2.79044e-07
3.47944e-07
1.98219e-07
3.97847e-07
2.4502e-07
6.10102e-07
5.8777e-07
9.63336e-07
0.00302002
0.00617429
0.0738154
0.238197
0.501423
0.844894
1.24051
1.65484
2.05109
2.38978
2.62799
2.71713
2.6033
2.23727
1.60164
0.759042
0.227569
0.876328
1.14181
0.918266
0.438907
0.10294
0.0141587
0.000179592
0
0
0
4.00297e-10
1.06919e-07
1.29927e-06
4.03485e-06
4.5516e-06
3.61669e-06
2.948e-06
2.7418e-06
2.66118e-06
2.52855e-06
2.36382e-06
2.21472e-06
2.08734e-06
1.97126e-06
1.86208e-06
1.76036e-06
1.66551e-06
1.57572e-06
1.4902e-06
1.40931e-06
1.33286e-06
1.25986e-06
1.18973e-06
1.12279e-06
1.05931e-06
9.98923e-07
9.41112e-07
8.85717e-07
8.32964e-07
7.83122e-07
7.36271e-07
6.92078e-07
6.50265e-07
6.1056e-07
5.73071e-07
5.37873e-07
5.04615e-07
4.73428e-07
4.42156e-07
4.20996e-07
3.90725e-07
3.81905e-07
3.35917e-07
3.48149e-07
2.65881e-07
3.37156e-07
1.89941e-07
3.91508e-07
2.42294e-07
6.0835e-07
5.90628e-07
9.67965e-07
0.000550354
0.00182397
0.00277653
0.0420129
0.163754
0.383861
0.690018
1.05506
1.44427
1.81851
2.1368
2.35833
2.44334
2.35388
2.05751
1.54022
0.834343
0.128763
0.685454
1.07057
1.0138
0.622298
0.213133
0.0226444
0.00295362
2.74697e-06
0
0
0
4.92168e-09
1.68844e-08
2.38779e-06
4.21674e-06
3.7295e-06
2.83207e-06
2.44165e-06
2.34608e-06
2.25899e-06
2.11786e-06
1.97063e-06
1.84525e-06
1.73751e-06
1.6387e-06
1.54546e-06
1.45721e-06
1.37403e-06
1.29613e-06
1.22319e-06
1.15419e-06
1.08841e-06
1.02596e-06
9.67111e-07
9.11557e-07
8.58738e-07
8.0837e-07
7.6058e-07
7.1563e-07
6.73614e-07
6.34226e-07
5.97113e-07
5.61966e-07
5.28818e-07
4.97817e-07
4.68555e-07
4.41368e-07
4.13688e-07
3.95505e-07
3.67652e-07
3.61435e-07
3.18073e-07
3.3287e-07
2.53021e-07
3.26444e-07
1.81726e-07
3.85231e-07
2.39452e-07
6.06646e-07
5.93582e-07
9.72778e-07
0
0.000111296
0.000370837
0.00187141
0.0117833
0.077987
0.234985
0.488331
0.817911
1.19042
1.56498
1.89661
2.13975
2.25252
2.19969
1.95618
1.51462
0.900028
0.203254
0.502799
0.953309
1.03703
0.760101
0.347477
0.082756
0.000687394
0.000210392
0
0
0
2.18606e-11
5.60104e-08
6.3601e-07
2.86568e-06
3.52912e-06
2.82299e-06
2.26545e-06
2.08172e-06
2.01837e-06
1.91483e-06
1.77615e-06
1.64615e-06
1.53839e-06
1.44544e-06
1.35932e-06
1.27749e-06
1.20062e-06
1.12924e-06
1.0626e-06
9.9975e-07
9.40472e-07
8.8497e-07
8.33028e-07
7.8408e-07
7.37725e-07
6.93991e-07
6.53087e-07
6.15154e-07
5.79871e-07
5.46866e-07
5.15765e-07
4.86506e-07
4.59324e-07
4.3373e-07
4.1023e-07
3.85983e-07
3.70615e-07
3.45124e-07
3.41296e-07
3.00594e-07
3.17737e-07
2.40483e-07
3.15829e-07
1.73615e-07
3.78725e-07
2.36441e-07
6.05454e-07
5.96716e-07
9.77759e-07
0
0
7.79297e-07
0.000223164
0.00077
0.00153116
0.0237442
0.112737
0.298264
0.578122
0.925362
1.29981
1.65354
1.9356
2.09737
2.09865
1.91315
1.53444
0.985708
0.334152
0.330336
0.819835
1.0105
0.851557
0.482107
0.154539
0.0162307
0.00206271
0
0
0
0
1.80746e-09
2.86298e-09
1.81309e-06
3.35735e-06
2.95793e-06
2.20973e-06
1.82906e-06
1.72589e-06
1.6802e-06
1.59426e-06
1.48177e-06
1.374e-06
1.28081e-06
1.19844e-06
1.1226e-06
1.05195e-06
9.86132e-07
9.24731e-07
8.6738e-07
8.14108e-07
7.64676e-07
7.18534e-07
6.75234e-07
6.34675e-07
5.97004e-07
5.62365e-07
5.30468e-07
5.00933e-07
4.73278e-07
4.47404e-07
4.23548e-07
4.01195e-07
3.8098e-07
3.59841e-07
3.47062e-07
3.23762e-07
3.22069e-07
2.83874e-07
3.03206e-07
2.28392e-07
3.05599e-07
1.65165e-07
3.72727e-07
2.32492e-07
6.04197e-07
6.00381e-07
9.846e-07
1.43753e-07
1.16421e-12
0
0
4.31042e-06
0.000370122
0.00106861
0.00277102
0.036039
0.142709
0.349682
0.650491
1.01205
1.38595
1.71585
1.9449
2.02319
1.91568
1.61
1.12387
0.514601
0.141721
0.661093
0.946421
0.907856
0.608268
0.256758
0.056032
0.00730922
0.000219607
0
0
0
4.25142e-12
3.4212e-08
3.43467e-07
2.0665e-06
2.88162e-06
2.58381e-06
2.00111e-06
1.61647e-06
1.458e-06
1.38639e-06
1.31265e-06
1.22345e-06
1.13352e-06
1.0527e-06
9.81288e-07
9.16324e-07
8.56044e-07
7.99904e-07
7.48129e-07
7.00593e-07
6.56713e-07
6.15957e-07
5.78091e-07
5.43232e-07
5.11458e-07
4.82577e-07
4.56174e-07
4.31682e-07
4.08994e-07
3.88263e-07
3.68978e-07
3.51944e-07
3.33845e-07
3.23598e-07
3.02594e-07
3.02857e-07
2.67427e-07
2.88524e-07
2.16973e-07
2.94993e-07
1.57955e-07
3.65836e-07
2.29473e-07
6.02083e-07
6.03899e-07
9.88537e-07
2.83733e-06
3.75895e-08
2.30006e-09
0
0
0
6.99439e-06
1.03261e-07
0.000851442
0.0027289
0.0293637
0.115308
0.292298
0.565
0.90631
1.26604
1.58273
1.79364
1.84566
1.70503
1.36795
0.867361
0.281154
0.294963
0.708086
0.866479
0.745995
0.456499
0.179616
0.0384272
0.00547939
0.000207475
9.34406e-06
0
0
3.84734e-10
2.62191e-09
5.92834e-08
6.17887e-07
1.63824e-06
2.04632e-06
1.77357e-06
1.41107e-06
1.21481e-06
1.13064e-06
1.06743e-06
9.93906e-07
9.17908e-07
8.49093e-07
7.88368e-07
7.33168e-07
6.82479e-07
6.36184e-07
5.94031e-07
5.55424e-07
5.19955e-07
4.87651e-07
4.58537e-07
4.32526e-07
4.09143e-07
3.87835e-07
3.68359e-07
3.50837e-07
3.34746e-07
3.20971e-07
3.06268e-07
2.98546e-07
2.80405e-07
2.82186e-07
2.50775e-07
2.72142e-07
2.06842e-07
2.81372e-07
1.53421e-07
3.50993e-07
2.18779e-07
5.76701e-07
5.73087e-07
9.20435e-07
2.92883e-06
2.2863e-06
9.90715e-07
6.26864e-08
1.35452e-11
0
0
2.74205e-12
5.81041e-06
0.00010639
0.000275154
0.000818064
0.00981553
0.0563549
0.176583
0.393762
0.697714
1.04464
1.37033
1.60492
1.68772
1.57859
1.27177
0.802247
0.249663
0.27773
0.650347
0.77992
0.660267
0.400706
0.161368
0.0375984
0.00114247
0.00030171
4.7441e-07
0
0
0
5.84966e-10
3.08603e-08
3.4642e-07
1.28124e-06
1.67792e-06
1.44078e-06
1.14241e-06
9.9185e-07
9.24684e-07
8.65265e-07
7.97359e-07
7.31403e-07
6.73393e-07
6.2253e-07
5.76692e-07
5.35268e-07
4.97835e-07
4.6402e-07
4.33641e-07
4.06665e-07
3.83052e-07
3.6234e-07
3.43958e-07
3.27516e-07
3.13067e-07
3.00106e-07
2.89498e-07
2.78162e-07
2.7303e-07
2.57825e-07
2.61208e-07
2.33558e-07
2.55898e-07
1.95751e-07
2.69541e-07
1.47983e-07
3.4313e-07
2.18723e-07
5.74515e-07
5.85463e-07
9.27011e-07
2.74045e-06
2.65279e-06
2.31131e-06
1.7968e-06
6.58273e-07
4.25106e-08
8.50403e-12
0
0
0
4.36488e-07
1.73383e-05
0.000337146
0.000774592
0.00240673
0.026789
0.109179
0.284559
0.557994
0.893084
1.22315
1.47107
1.56903
1.4724
1.17576
0.719223
0.189136
0.299658
0.624073
0.709587
0.572991
0.331417
0.125722
0.0264725
0.000167332
0.00010667
3.45105e-08
0
0
0
3.60626e-10
4.00227e-08
5.05934e-07
1.3332e-06
1.39717e-06
1.10383e-06
8.87328e-07
7.96371e-07
7.44687e-07
6.87347e-07
6.26502e-07
5.71789e-07
5.24662e-07
4.83341e-07
4.46415e-07
4.13474e-07
3.84356e-07
3.58976e-07
3.37233e-07
3.18716e-07
3.0287e-07
2.89147e-07
2.77499e-07
2.67408e-07
2.59711e-07
2.51435e-07
2.48783e-07
2.36365e-07
2.4134e-07
2.17008e-07
2.40585e-07
1.84702e-07
2.58975e-07
1.4136e-07
3.37159e-07
2.1627e-07
5.7568e-07
5.94278e-07
9.32803e-07
2.7658e-06
2.75022e-06
2.52828e-06
2.31716e-06
1.72596e-06
3.83939e-07
2.4762e-08
2.47702e-12
0
0
0
0
6.39244e-06
0.0001147
0.000265788
0.000835348
0.0133465
0.0722579
0.218263
0.46845
0.792874
1.12229
1.37213
1.4681
1.36515
1.06158
0.607422
0.0995752
0.344349
0.609095
0.6413
0.481266
0.253812
0.0832991
0.0125908
3.18068e-05
3.145e-05
0
0
0
0
2.53151e-09
1.28826e-08
6.97394e-07
1.2157e-06
1.06925e-06
8.24108e-07
6.96903e-07
6.40369e-07
5.9098e-07
5.36438e-07
4.85442e-07
4.42165e-07
4.0507e-07
3.72436e-07
3.43879e-07
3.19394e-07
2.98894e-07
2.81965e-07
2.68048e-07
2.56482e-07
2.47104e-07
2.39338e-07
2.34006e-07
2.2822e-07
2.2763e-07
2.17697e-07
2.23953e-07
2.02553e-07
2.27037e-07
1.75095e-07
2.49788e-07
1.35649e-07
3.32594e-07
2.13334e-07
5.78407e-07
5.98682e-07
9.37936e-07
3.13405e-06
3.04892e-06
2.68368e-06
2.56457e-06
2.51009e-06
2.22897e-06
1.58085e-06
9.72203e-08
6.54983e-09
7.82349e-13
0
0
0
0
5.42703e-07
3.28228e-05
3.44696e-05
0.000844131
0.00757539
0.0532661
0.181275
0.416674
0.733379
1.05797
1.299
1.37767
1.25153
0.928598
0.47196
0.0181036
0.400098
0.594523
0.565449
0.380137
0.17171
0.0453404
0.00349905
0.000435988
0
0
0
0
1.55965e-11
2.54628e-08
3.22323e-07
9.76681e-07
1.02279e-06
7.82517e-07
6.21815e-07
5.52568e-07
5.07459e-07
4.59475e-07
4.12903e-07
3.73364e-07
3.4041e-07
3.12214e-07
2.88144e-07
2.68272e-07
2.52366e-07
2.39854e-07
2.29965e-07
2.22387e-07
2.16462e-07
2.12975e-07
2.09162e-07
2.10205e-07
2.02481e-07
2.09671e-07
1.90884e-07
2.158e-07
1.67737e-07
2.42301e-07
1.3205e-07
3.29268e-07
2.10793e-07
5.82441e-07
5.98737e-07
9.43868e-07
3.58986e-06
3.42415e-06
2.87107e-06
2.62276e-06
2.47941e-06
2.39719e-06
2.32864e-06
1.90691e-06
1.13579e-06
2.58789e-08
1.9212e-09
4.78584e-13
0
0
0
0
7.79739e-09
1.58556e-05
0.000379439
0.000710945
0.00521043
0.0447856
0.165023
0.394851
0.707797
1.02382
1.24461
1.2903
1.1259
0.774078
0.314734
0.135696
0.455866
0.566969
0.471841
0.270377
0.0955668
0.0167827
0.00186845
1.8384e-05
0
0
0
0
3.07545e-09
2.29434e-08
5.49713e-07
8.82688e-07
7.3233e-07
5.57192e-07
4.77738e-07
4.36054e-07
3.9449e-07
3.52123e-07
3.15745e-07
2.86498e-07
2.62642e-07
2.43161e-07
2.27771e-07
2.16107e-07
2.07421e-07
2.0125e-07
1.96795e-07
1.94768e-07
1.92528e-07
1.94841e-07
1.89027e-07
1.97e-07
1.80502e-07
2.0565e-07
1.611e-07
2.3549e-07
1.28911e-07
3.26538e-07
2.0774e-07
5.86782e-07
5.92832e-07
9.51459e-07
3.8693e-06
3.63616e-06
2.93753e-06
2.61993e-06
2.40173e-06
2.22628e-06
2.09158e-06
2.00349e-06
1.88051e-06
1.45333e-06
8.09861e-07
1.29873e-08
1.01989e-09
8.70379e-13
0
0
0
0
0
1.05778e-05
0.00029933
0.000568764
0.00465001
0.0436022
0.165236
0.398365
0.710454
1.01228
1.19972
1.19678
0.98205
0.598286
0.144092
0.25664
0.491377
0.509523
0.356901
0.163
0.0404986
0.00266467
0.000289517
0
0
0
0
3.16608e-11
2.53997e-08
3.329e-07
7.49542e-07
7.04658e-07
5.10274e-07
4.0775e-07
3.6899e-07
3.38473e-07
3.03723e-07
2.71275e-07
2.45372e-07
2.25633e-07
2.10752e-07
1.99829e-07
1.9213e-07
1.87118e-07
1.83898e-07
1.82978e-07
1.81995e-07
1.85292e-07
1.81138e-07
1.89498e-07
1.7515e-07
1.99809e-07
1.58972e-07
2.3199e-07
1.30139e-07
3.26091e-07
2.05018e-07
5.92351e-07
5.76106e-07
9.68648e-07
3.88516e-06
3.58284e-06
2.78446e-06
2.43373e-06
2.19996e-06
2.00571e-06
1.83043e-06
1.68331e-06
1.56854e-06
1.48869e-06
1.37213e-06
1.02909e-06
5.5611e-07
2.00847e-08
1.45499e-09
1.04622e-12
0
0
0
0
0
8.39089e-06
0.000298366
0.00053534
0.00534444
0.048568
0.180096
0.4238
0.734391
1.01011
1.14416
1.07166
0.794417
0.382556
0.0462242
0.366047
0.488464
0.408367
0.224671
0.0710752
0.00996854
0.000778488
0
0
0
0
0
9.20674e-09
9.5685e-08
5.23039e-07
6.92991e-07
5.29629e-07
3.80659e-07
3.16886e-07
2.86941e-07
2.59903e-07
2.33217e-07
2.10881e-07
1.94292e-07
1.82689e-07
1.74963e-07
1.703e-07
1.67673e-07
1.67397e-07
1.67123e-07
1.70844e-07
1.67678e-07
1.76611e-07
1.63616e-07
1.88507e-07
1.49307e-07
2.23195e-07
1.2167e-07
3.20934e-07
1.94705e-07
5.91967e-07
5.44952e-07
9.96673e-07
3.61584e-06
3.24936e-06
2.38436e-06
2.01706e-06
1.77431e-06
1.57572e-06
1.40224e-06
1.24991e-06
1.11726e-06
1.01184e-06
9.34517e-07
8.8103e-07
8.02952e-07
6.05823e-07
3.38206e-07
1.78321e-08
1.28726e-09
2.02092e-12
0
0
0
0
0
9.19663e-06
0.000365547
0.000507512
0.00764607
0.061167
0.214417
0.48538
0.813332
1.07908
1.16676
1.01907
0.662997
0.208197
0.223001
0.462812
0.473121
0.3087
0.119733
0.0163693
0.0021757
9.53968e-05
1.92275e-05
1.07409e-05
1.6134e-06
0
1.56881e-10
1.28042e-08
1.3211e-07
4.82631e-07
4.92899e-07
3.707e-07
2.89543e-07
2.49785e-07
2.25597e-07
2.06557e-07
1.91886e-07
1.8193e-07
1.75985e-07
1.73072e-07
1.71996e-07
1.72732e-07
1.73565e-07
1.78068e-07
1.76148e-07
1.84559e-07
1.7329e-07
1.96219e-07
1.60133e-07
2.31051e-07
1.31238e-07
3.30426e-07
1.82556e-07
6.0561e-07
4.94171e-07
1.10071e-06
2.11702e-06
1.77959e-06
1.14803e-06
8.9563e-07
7.36574e-07
6.1365e-07
5.14293e-07
4.34144e-07
3.70226e-07
3.20418e-07
2.83401e-07
2.60813e-07
2.52334e-07
2.57529e-07
2.64702e-07
2.41792e-07
1.68525e-07
2.4024e-08
1.53573e-09
0
0
0
0
0
0
1.23801e-05
0.000248438
0.000430829
0.00399586
0.0371697
0.137616
0.324157
0.56388
0.775724
0.867713
0.783208
0.530558
0.186429
0.138229
0.321784
0.328807
0.213624
0.0922053
0.0264749
0.00504301
0.000717918
7.10867e-05
1.59115e-05
0
0
1.17736e-09
6.67311e-09
2.12896e-07
3.4972e-07
3.23487e-07
2.68034e-07
2.26636e-07
1.97957e-07
1.77096e-07
1.62141e-07
1.52185e-07
1.46337e-07
1.43249e-07
1.42731e-07
1.42284e-07
1.45034e-07
1.41932e-07
1.50816e-07
1.38789e-07
1.63156e-07
1.23238e-07
1.99288e-07
8.38323e-08
2.97192e-07
1.35405e-07
5.5273e-07
4.902e-07
1.07852e-06
)
;

boundaryField
{
    inlet
    {
        type            calculated;
        value           nonuniform List<scalar> 
27
(
5.70499e-06
5.70846e-06
5.71776e-06
5.73176e-06
5.74723e-06
5.76349e-06
5.78107e-06
5.79983e-06
5.81972e-06
5.83985e-06
5.86011e-06
5.88003e-06
5.89913e-06
5.91688e-06
5.93267e-06
5.9459e-06
5.95671e-06
5.92504e-06
5.92494e-06
5.91934e-06
5.90529e-06
5.88167e-06
5.84586e-06
5.79661e-06
5.72742e-06
5.66014e-06
5.5198e-06
)
;
    }
    outlet
    {
        type            calculated;
        value           nonuniform List<scalar> 
78
(
2.15453e-06
1.81742e-06
1.18485e-06
9.32005e-07
7.72853e-07
6.50004e-07
5.50799e-07
4.70874e-07
4.07239e-07
3.57795e-07
3.21245e-07
2.99461e-07
2.92109e-07
2.98755e-07
3.05879e-07
2.77193e-07
1.91414e-07
2.70837e-08
1.72604e-09
0
0
0
0
0
0
1.26204e-05
0.000253017
0.000436001
0.0037601
0.0366308
0.136643
0.322841
0.562626
0.775192
0.868582
0.78586
0.53479
0.190959
0.131499
0.317062
0.326027
0.212487
0.091949
0.026487
0.00507664
0.000730543
7.26159e-05
1.61952e-05
0
0
1.20462e-09
6.84325e-09
2.18318e-07
3.57887e-07
3.29688e-07
2.71229e-07
2.26734e-07
1.94781e-07
1.705e-07
1.52132e-07
1.38968e-07
1.30291e-07
1.24788e-07
1.22553e-07
1.20333e-07
1.2213e-07
1.178e-07
1.28217e-07
1.13606e-07
1.42707e-07
9.5172e-08
1.832e-07
3.92438e-08
2.8363e-07
1.16718e-07
5.31655e-07
4.87628e-07
1.01999e-06
)
;
    }
    walls
    {
        type            calculated;
        value           nonuniform List<scalar> 0();
    }
    frontAndBack
    {
        type            empty;
    }
    procBoundary7to3
    {
        type            processor;
        value           nonuniform List<scalar> 
16
(
4.33959e-05
8.18065e-09
0
1.54055e-07
2.29773e-06
3.39948e-06
2.80153e-06
2.69127e-06
2.93875e-06
2.93875e-06
3.46477e-06
4.07964e-06
4.54056e-06
4.68254e-06
4.57313e-06
2.88622e-06
)
;
    }
    procBoundary7to6
    {
        type            processor;
        value           nonuniform List<scalar> 
91
(
8.96405e-07
6.84757e-07
6.84757e-07
6.60188e-07
6.60188e-07
2.71038e-07
2.71038e-07
2.60544e-07
4.53835e-07
4.53835e-07
3.72269e-07
4.22871e-07
4.22871e-07
5.26467e-07
4.64105e-07
4.55011e-07
4.55011e-07
6.21928e-07
5.80163e-07
5.34276e-07
5.34276e-07
8.19387e-07
7.57038e-07
6.98684e-07
6.43417e-07
6.43417e-07
1.10569e-06
1.03023e-06
9.58791e-07
8.91293e-07
8.27571e-07
8.27571e-07
1.58468e-06
1.49356e-06
1.40619e-06
1.32202e-06
1.24081e-06
1.16279e-06
1.08835e-06
1.08835e-06
2.7115e-06
2.57386e-06
2.44262e-06
2.31916e-06
2.20365e-06
2.09471e-06
1.9901e-06
1.88871e-06
1.79105e-06
1.69774e-06
1.60813e-06
1.52124e-06
1.52124e-06
0.00279453
0.0499235
0.199005
0.460061
0.822238
1.25998
1.73755
2.21174
2.63137
2.93461
3.04682
2.88775
2.39662
1.58233
0.586413
0.442476
1.03267
1.11448
0.742529
0.264533
0.0222537
0.0030986
0
0
0
0
3.82109e-08
3.54354e-07
3.73888e-06
5.6191e-06
4.72978e-06
3.64843e-06
3.21977e-06
3.11962e-06
3.01107e-06
2.83691e-06
2.65854e-06
2.65854e-06
)
;
    }
}


// ************************************************************************* //
