/*--------------------------------*- C++ -*----------------------------------*\
| =========                 |                                                 |
| \\      /  F ield         | OpenFOAM: The Open Source CFD Toolbox           |
|  \\    /   O peration     | Version:  2506                                  |
|   \\  /    A nd           | Website:  www.openfoam.com                      |
|    \\/     M anipulation  |                                                 |
\*---------------------------------------------------------------------------*/
FoamFile
{
    version     2.0;
    format      ascii;
    arch        "LSB;label=32;scalar=64";
    class       volScalarField;
    location    "150";
    object      turbulenceProperties:nuEff;
}
// * * * * * * * * * * * * * * * * * * * * * * * * * * * * * * * * * * * * * //

dimensions      [0 2 -1 0 0 0 0];

internalField   nonuniform List<scalar> 
1340
(
1.6096e-05
1.60957e-05
1.60963e-05
1.60787e-05
1.6096e-05
1.60966e-05
1.60764e-05
1.60784e-05
1.60964e-05
1.60971e-05
1.60724e-05
1.60719e-05
1.60762e-05
1.60782e-05
1.60967e-05
1.60976e-05
1.60784e-05
1.60748e-05
1.60725e-05
1.60719e-05
1.6076e-05
1.60779e-05
1.60971e-05
1.60982e-05
1.60883e-05
1.60853e-05
1.6082e-05
1.60787e-05
1.60751e-05
1.60727e-05
1.60718e-05
1.60758e-05
1.60777e-05
1.60975e-05
1.60989e-05
1.60938e-05
1.60923e-05
1.60908e-05
1.60887e-05
1.60857e-05
1.60823e-05
1.6079e-05
1.60753e-05
1.60728e-05
1.60718e-05
1.60755e-05
1.60774e-05
1.6098e-05
1.60996e-05
1.60988e-05
1.60986e-05
1.60976e-05
1.60959e-05
1.6094e-05
1.60925e-05
1.60911e-05
1.6089e-05
1.6086e-05
1.60826e-05
1.60793e-05
1.60756e-05
1.6073e-05
1.60718e-05
1.60753e-05
1.60771e-05
1.60984e-05
1.61005e-05
1.60953e-05
1.60952e-05
1.6096e-05
1.60971e-05
1.60981e-05
1.60987e-05
1.60986e-05
1.60978e-05
1.60961e-05
1.60943e-05
1.60928e-05
1.60914e-05
1.60894e-05
1.60864e-05
1.60829e-05
1.60796e-05
1.60759e-05
1.60732e-05
1.60718e-05
1.60751e-05
1.60768e-05
1.60988e-05
1.61014e-05
1.61121e-05
1.61084e-05
1.61052e-05
1.61025e-05
1.61001e-05
1.60981e-05
1.60965e-05
1.60955e-05
1.60951e-05
1.60956e-05
1.60966e-05
1.60978e-05
1.60986e-05
1.60986e-05
1.60979e-05
1.60963e-05
1.60945e-05
1.6093e-05
1.60917e-05
1.60897e-05
1.60868e-05
1.60833e-05
1.608e-05
1.60762e-05
1.60734e-05
1.60718e-05
1.60749e-05
1.60765e-05
1.60992e-05
1.61023e-05
1.62043e-05
1.62017e-05
1.61961e-05
1.61825e-05
1.61696e-05
1.61603e-05
1.61523e-05
1.61444e-05
1.6137e-05
1.61304e-05
1.61247e-05
1.61196e-05
1.61149e-05
1.61107e-05
1.61071e-05
1.6104e-05
1.61013e-05
1.6099e-05
1.60972e-05
1.60958e-05
1.60951e-05
1.60952e-05
1.60962e-05
1.60974e-05
1.60984e-05
1.60986e-05
1.6098e-05
1.60966e-05
1.60948e-05
1.60933e-05
1.6092e-05
1.60901e-05
1.60872e-05
1.60837e-05
1.60803e-05
1.60765e-05
1.60736e-05
1.60718e-05
1.60747e-05
1.60762e-05
1.60996e-05
1.61034e-05
0.0212402
0.0784081
0.161568
0.252862
0.343851
0.431875
0.515736
0.594087
0.665101
0.726489
0.77555
0.809248
0.824378
0.817877
0.787429
0.732367
0.654208
0.556289
0.437578
0.300768
0.160544
0.0557177
0.0156856
0.00056066
1e-05
1e-05
1e-05
1e-05
1.00034e-05
1.06458e-05
1.71247e-05
2.02441e-05
1.75721e-05
1.58754e-05
1.58354e-05
1.62377e-05
1.63658e-05
1.62794e-05
1.62075e-05
1.61953e-05
1.61961e-05
1.61857e-05
1.61706e-05
1.61587e-05
1.61502e-05
1.61428e-05
1.61357e-05
1.61291e-05
1.61233e-05
1.61181e-05
1.61134e-05
1.61094e-05
1.61059e-05
1.61028e-05
1.61002e-05
1.6098e-05
1.60963e-05
1.60953e-05
1.6095e-05
1.60957e-05
1.6097e-05
1.60981e-05
1.60985e-05
1.60981e-05
1.60968e-05
1.6095e-05
1.60936e-05
1.60924e-05
1.60905e-05
1.60877e-05
1.60841e-05
1.60806e-05
1.60769e-05
1.60739e-05
1.60719e-05
1.60745e-05
1.60759e-05
1.61e-05
1.61045e-05
0.00323281
0.0129584
0.0541523
0.124614
0.21122
0.302589
0.393565
0.482092
0.566715
0.64568
0.716755
0.777282
0.824248
0.854395
0.864405
0.851281
0.81297
0.749017
0.661276
0.547138
0.40731
0.255019
0.114882
0.0215084
0.00678815
1.31988e-05
1e-05
1e-05
1e-05
1e-05
1.00001e-05
1.30468e-05
2.05464e-05
1.95791e-05
1.65452e-05
1.56737e-05
1.60027e-05
1.63305e-05
1.63234e-05
1.62161e-05
1.61731e-05
1.61782e-05
1.61824e-05
1.61732e-05
1.61597e-05
1.61487e-05
1.61407e-05
1.6134e-05
1.61277e-05
1.61218e-05
1.61165e-05
1.61119e-05
1.6108e-05
1.61045e-05
1.61015e-05
1.6099e-05
1.6097e-05
1.60956e-05
1.60949e-05
1.60953e-05
1.60965e-05
1.60978e-05
1.60984e-05
1.60982e-05
1.6097e-05
1.60952e-05
1.60938e-05
1.60927e-05
1.60909e-05
1.60881e-05
1.60845e-05
1.6081e-05
1.60772e-05
1.60741e-05
1.6072e-05
1.60743e-05
1.60755e-05
1.61004e-05
1.61057e-05
1e-05
0.000747218
0.00269454
0.0241692
0.0748239
0.151008
0.240838
0.334923
0.428606
0.519607
0.606092
0.685924
0.756533
0.814985
0.858085
0.88253
0.885162
0.863408
0.81599
0.742938
0.641347
0.509129
0.352848
0.193092
0.0715056
0.00125027
0.000961296
1e-05
1e-05
1e-05
1e-05
1.00016e-05
1.02604e-05
1.60091e-05
2.02119e-05
1.77069e-05
1.58742e-05
1.57715e-05
1.62325e-05
1.64226e-05
1.63258e-05
1.62063e-05
1.61642e-05
1.61655e-05
1.61677e-05
1.616e-05
1.61487e-05
1.61392e-05
1.6132e-05
1.61258e-05
1.61201e-05
1.61149e-05
1.61104e-05
1.61065e-05
1.61031e-05
1.61002e-05
1.60978e-05
1.60961e-05
1.6095e-05
1.60949e-05
1.6096e-05
1.60973e-05
1.60982e-05
1.60982e-05
1.60971e-05
1.60955e-05
1.60941e-05
1.6093e-05
1.60913e-05
1.60886e-05
1.60849e-05
1.60814e-05
1.60776e-05
1.60744e-05
1.60721e-05
1.60741e-05
1.60752e-05
1.61008e-05
1.61069e-05
1e-05
1e-05
1.06318e-05
0.00171298
0.00636803
0.0338905
0.0910092
0.172598
0.26718
0.3657
0.463291
0.557273
0.645427
0.72529
0.794028
0.848528
0.88555
0.90196
0.895056
0.86306
0.805025
0.718301
0.598654
0.4476
0.280604
0.126283
0.0246366
0.00758368
1e-05
1e-05
1e-05
1e-05
1e-05
1e-05
1.29241e-05
2.10538e-05
1.99485e-05
1.66212e-05
1.53713e-05
1.55792e-05
1.61113e-05
1.63396e-05
1.62964e-05
1.62042e-05
1.61611e-05
1.61551e-05
1.61548e-05
1.61483e-05
1.61387e-05
1.61303e-05
1.61238e-05
1.61183e-05
1.61133e-05
1.61089e-05
1.6105e-05
1.61016e-05
1.60989e-05
1.60968e-05
1.60953e-05
1.60948e-05
1.60955e-05
1.60969e-05
1.6098e-05
1.60982e-05
1.60973e-05
1.60957e-05
1.60943e-05
1.60933e-05
1.60917e-05
1.60891e-05
1.60854e-05
1.60818e-05
1.60779e-05
1.60747e-05
1.60722e-05
1.6074e-05
1.60748e-05
1.6101e-05
1.61082e-05
1.00133e-05
1e-05
1e-05
1e-05
2.74972e-05
0.00281729
0.0106581
0.0433304
0.105445
0.191829
0.291652
0.395729
0.498399
0.596169
0.686244
0.765792
0.831769
0.881
0.910375
0.917142
0.899244
0.855146
0.783654
0.678982
0.538991
0.371532
0.200578
0.0718671
0.0202825
0.00147159
1e-05
1e-05
1e-05
1e-05
1.00009e-05
1.01213e-05
1.5181e-05
2.13482e-05
2.06782e-05
1.76715e-05
1.59688e-05
1.57126e-05
1.60123e-05
1.62396e-05
1.62595e-05
1.6198e-05
1.61564e-05
1.61457e-05
1.61435e-05
1.61375e-05
1.61292e-05
1.6122e-05
1.61164e-05
1.61116e-05
1.61072e-05
1.61034e-05
1.61002e-05
1.60976e-05
1.60958e-05
1.60948e-05
1.6095e-05
1.60963e-05
1.60976e-05
1.60981e-05
1.60974e-05
1.60959e-05
1.60946e-05
1.60936e-05
1.60921e-05
1.60895e-05
1.60859e-05
1.60822e-05
1.60783e-05
1.6075e-05
1.60724e-05
1.60739e-05
1.60745e-05
1.61013e-05
1.61095e-05
1.58674e-05
1.00016e-05
1e-05
1e-05
1e-05
1e-05
5.46123e-05
1.00115e-05
0.011247
0.0407492
0.0953721
0.175146
0.273064
0.379906
0.48799
0.591848
0.68739
0.771074
0.839506
0.889399
0.91774
0.922019
0.900412
0.851701
0.77302
0.659678
0.512519
0.345334
0.182592
0.0652743
0.0191626
0.00151441
7.83836e-05
1e-05
1e-05
1e-05
1e-05
1.00049e-05
1.06695e-05
1.54284e-05
1.9688e-05
1.86531e-05
1.65932e-05
1.58199e-05
1.59249e-05
1.61655e-05
1.62299e-05
1.61857e-05
1.61469e-05
1.61369e-05
1.61349e-05
1.6129e-05
1.61213e-05
1.6115e-05
1.61101e-05
1.61058e-05
1.6102e-05
1.60989e-05
1.60966e-05
1.60951e-05
1.60947e-05
1.60957e-05
1.60971e-05
1.6098e-05
1.60976e-05
1.60962e-05
1.60949e-05
1.60939e-05
1.60926e-05
1.60901e-05
1.60865e-05
1.60827e-05
1.60787e-05
1.60753e-05
1.60726e-05
1.60738e-05
1.60741e-05
1.61015e-05
1.61109e-05
1.76113e-05
1.6087e-05
1.16513e-05
1.00078e-05
1e-05
1e-05
1e-05
1e-05
4.38328e-05
0.000893015
0.00261241
0.0206561
0.0608888
0.12775
0.219002
0.326491
0.440609
0.553342
0.65868
0.75192
0.829004
0.886313
0.920727
0.929904
0.911828
0.865209
0.786892
0.672315
0.523261
0.354367
0.192326
0.0738458
0.00448968
0.00243438
1.03616e-05
1e-05
1e-05
1e-05
1e-05
1.00019e-05
1.02997e-05
1.47879e-05
1.94456e-05
1.8369e-05
1.6406e-05
1.58122e-05
1.60048e-05
1.62129e-05
1.62225e-05
1.61635e-05
1.61342e-05
1.61309e-05
1.61284e-05
1.61214e-05
1.61143e-05
1.6109e-05
1.61047e-05
1.61009e-05
1.60979e-05
1.60958e-05
1.60947e-05
1.60951e-05
1.60965e-05
1.60977e-05
1.60977e-05
1.60966e-05
1.60953e-05
1.60943e-05
1.6093e-05
1.60908e-05
1.60872e-05
1.60832e-05
1.60792e-05
1.60757e-05
1.60728e-05
1.60738e-05
1.60737e-05
1.61017e-05
1.61124e-05
1.64137e-05
1.70861e-05
1.71879e-05
1.49997e-05
1.0762e-05
1.00036e-05
1e-05
1e-05
1e-05
1e-05
1.02327e-05
0.00013676
0.00265327
0.00931876
0.0375248
0.0931012
0.177403
0.28444
0.403648
0.524634
0.639183
0.741136
0.825602
0.888562
0.926736
0.937662
0.919159
0.87015
0.786944
0.665332
0.510186
0.338919
0.178325
0.0640118
0.000852758
0.00112623
1.00028e-05
1e-05
1e-05
1e-05
1e-05
1.00046e-05
1.09349e-05
1.74697e-05
1.96759e-05
1.74339e-05
1.59304e-05
1.58099e-05
1.61075e-05
1.62286e-05
1.61855e-05
1.61382e-05
1.61276e-05
1.61266e-05
1.61205e-05
1.6113e-05
1.61075e-05
1.61034e-05
1.60999e-05
1.6097e-05
1.60951e-05
1.60947e-05
1.60958e-05
1.60972e-05
1.60976e-05
1.60968e-05
1.60956e-05
1.60947e-05
1.60935e-05
1.60914e-05
1.60879e-05
1.60838e-05
1.60797e-05
1.6076e-05
1.60731e-05
1.60738e-05
1.60734e-05
1.61018e-05
1.61138e-05
1.63968e-05
1.66903e-05
1.71818e-05
1.6867e-05
1.42949e-05
1.02456e-05
1.00012e-05
1e-05
1e-05
1e-05
1e-05
1e-05
4.16001e-05
0.000874299
0.00245328
0.0234616
0.0700473
0.14807
0.254155
0.377605
0.506032
0.628914
0.738397
0.828578
0.894868
0.933723
0.942681
0.919543
0.863957
0.771807
0.640529
0.477264
0.302611
0.145794
0.0405998
0.000239025
0.000466495
1e-05
1e-05
1e-05
1e-05
1e-05
1.00007e-05
1.2618e-05
1.91778e-05
1.86789e-05
1.64831e-05
1.57794e-05
1.59857e-05
1.62032e-05
1.62028e-05
1.61453e-05
1.61257e-05
1.61261e-05
1.61212e-05
1.61121e-05
1.61054e-05
1.61015e-05
1.60986e-05
1.60961e-05
1.60947e-05
1.60951e-05
1.60965e-05
1.60974e-05
1.6097e-05
1.60959e-05
1.6095e-05
1.60939e-05
1.6092e-05
1.60886e-05
1.60845e-05
1.60802e-05
1.60764e-05
1.60734e-05
1.60739e-05
1.60731e-05
1.61018e-05
1.61152e-05
1.63963e-05
1.64063e-05
1.65152e-05
1.68523e-05
1.73193e-05
1.64743e-05
1.37434e-05
1.00168e-05
1.00001e-05
1e-05
1e-05
1e-05
1e-05
1e-05
1.03434e-05
0.000264678
0.000301463
0.0163728
0.0559519
0.129528
0.23535
0.362949
0.498253
0.628527
0.74407
0.837828
0.904611
0.940708
0.943937
0.912178
0.846504
0.741775
0.597233
0.423609
0.246678
0.104898
0.0168895
0.00528906
1e-05
1e-05
1e-05
1e-05
1e-05
1.00032e-05
1.06872e-05
1.74316e-05
1.98398e-05
1.73465e-05
1.59391e-05
1.58931e-05
1.61533e-05
1.62101e-05
1.6148e-05
1.61158e-05
1.61197e-05
1.61218e-05
1.61137e-05
1.61049e-05
1.60998e-05
1.6097e-05
1.60952e-05
1.60947e-05
1.60958e-05
1.60969e-05
1.6097e-05
1.60962e-05
1.60953e-05
1.60943e-05
1.60926e-05
1.60893e-05
1.60851e-05
1.60807e-05
1.60768e-05
1.60737e-05
1.6074e-05
1.60728e-05
1.61017e-05
1.61166e-05
1.64629e-05
1.64637e-05
1.6455e-05
1.6477e-05
1.66317e-05
1.70115e-05
1.74912e-05
1.58093e-05
1.24425e-05
1.00015e-05
1e-05
1e-05
1e-05
1e-05
1e-05
1e-05
1.00001e-05
0.000134166
0.00326426
0.0117234
0.0478476
0.1199
0.22754
0.360208
0.502267
0.638898
0.758615
0.853263
0.917174
0.946636
0.940241
0.897094
0.816574
0.694253
0.532692
0.349462
0.176045
0.0570849
0.015769
0.000396965
1e-05
1e-05
1e-05
1e-05
1.00001e-05
1.00043e-05
1.30427e-05
1.92006e-05
1.80417e-05
1.61092e-05
1.58138e-05
1.61275e-05
1.62602e-05
1.61838e-05
1.61103e-05
1.61008e-05
1.61112e-05
1.61116e-05
1.61048e-05
1.6099e-05
1.60959e-05
1.60946e-05
1.60951e-05
1.60963e-05
1.60968e-05
1.60964e-05
1.60956e-05
1.60947e-05
1.60932e-05
1.609e-05
1.60858e-05
1.60813e-05
1.60773e-05
1.60741e-05
1.60742e-05
1.60724e-05
1.61015e-05
1.61178e-05
1.64947e-05
1.65017e-05
1.65026e-05
1.64922e-05
1.64798e-05
1.65192e-05
1.67184e-05
1.71824e-05
1.73913e-05
1.52485e-05
1.19676e-05
1.00006e-05
1e-05
1e-05
1e-05
1e-05
1e-05
1e-05
1e-05
9.16897e-05
0.00267026
0.00941946
0.0449472
0.118743
0.230803
0.36984
0.518529
0.660092
0.781493
0.873676
0.930837
0.949798
0.929478
0.870954
0.770942
0.626959
0.447166
0.260291
0.105684
0.0153665
0.00473623
1e-05
1e-05
1e-05
1e-05
1e-05
1.00063e-05
1.14637e-05
1.86116e-05
1.93444e-05
1.64666e-05
1.54865e-05
1.58299e-05
1.62215e-05
1.62628e-05
1.61649e-05
1.61094e-05
1.61028e-05
1.61053e-05
1.61025e-05
1.6098e-05
1.60951e-05
1.60946e-05
1.60956e-05
1.60964e-05
1.60963e-05
1.60957e-05
1.6095e-05
1.60937e-05
1.60908e-05
1.60866e-05
1.60819e-05
1.60778e-05
1.60746e-05
1.60744e-05
1.60722e-05
1.61012e-05
1.6119e-05
1.6492e-05
1.64918e-05
1.649e-05
1.64855e-05
1.64751e-05
1.64577e-05
1.64407e-05
1.65179e-05
1.67657e-05
1.72515e-05
1.73018e-05
1.49124e-05
1.17264e-05
1.00027e-05
1e-05
1e-05
1e-05
1e-05
1e-05
1e-05
1e-05
7.05763e-05
0.00269208
0.00954723
0.0474175
0.126365
0.245816
0.392769
0.547684
0.691767
0.810686
0.894938
0.93909
0.941404
0.901406
0.821558
0.696574
0.528615
0.338042
0.160488
0.0468529
0.0120631
1e-05
1e-05
1e-05
1e-05
1e-05
1.00008e-05
1.01415e-05
1.54055e-05
2.13361e-05
1.862e-05
1.60109e-05
1.5553e-05
1.59106e-05
1.61591e-05
1.61753e-05
1.61298e-05
1.61074e-05
1.61026e-05
1.60999e-05
1.60967e-05
1.60948e-05
1.60949e-05
1.60958e-05
1.60961e-05
1.60958e-05
1.60952e-05
1.60942e-05
1.60915e-05
1.60874e-05
1.60826e-05
1.60784e-05
1.60751e-05
1.60746e-05
1.60719e-05
1.61004e-05
1.61201e-05
1.64459e-05
1.64356e-05
1.64256e-05
1.6416e-05
1.64065e-05
1.6396e-05
1.63789e-05
1.63592e-05
1.6352e-05
1.64674e-05
1.6771e-05
1.72551e-05
1.71478e-05
1.48022e-05
1.17566e-05
1.00057e-05
1e-05
1e-05
1e-05
1e-05
1e-05
1e-05
1e-05
7.92621e-05
0.003386
0.0123215
0.0556164
0.143596
0.27468
0.434074
0.599857
0.750652
0.869821
0.946448
0.974755
0.954106
0.886866
0.77193
0.608583
0.408205
0.208607
0.0500632
0.0173012
0.00293596
0.00120839
0.000379167
2.63117e-05
1e-05
1e-05
1.00028e-05
1.04454e-05
1.75157e-05
2.00507e-05
1.76278e-05
1.6201e-05
1.59657e-05
1.60736e-05
1.61308e-05
1.61236e-05
1.61084e-05
1.61012e-05
1.60976e-05
1.60952e-05
1.60944e-05
1.6095e-05
1.60955e-05
1.60956e-05
1.60952e-05
1.60944e-05
1.60921e-05
1.60879e-05
1.60832e-05
1.6079e-05
1.60755e-05
1.60751e-05
1.60717e-05
1.61006e-05
1.61209e-05
1.63135e-05
1.63055e-05
1.63002e-05
1.62966e-05
1.62944e-05
1.62938e-05
1.62941e-05
1.62928e-05
1.6285e-05
1.62743e-05
1.62811e-05
1.64186e-05
1.6725e-05
1.72203e-05
1.72889e-05
1.55424e-05
1.24114e-05
1.00446e-05
1.00002e-05
1e-05
1e-05
1e-05
1e-05
1e-05
1e-05
0.000124399
0.00236381
0.0074306
0.0427667
0.116162
0.227685
0.367486
0.518743
0.662763
0.783062
0.867218
0.907838
0.900154
0.84197
0.732888
0.576446
0.391374
0.224689
0.107974
0.0420627
0.012412
0.00171707
0.000389274
1e-05
1e-05
1e-05
1.00011e-05
1.16089e-05
1.58047e-05
1.67905e-05
1.64024e-05
1.61592e-05
1.61184e-05
1.61228e-05
1.6118e-05
1.6109e-05
1.61022e-05
1.60978e-05
1.60954e-05
1.60948e-05
1.6095e-05
1.60951e-05
1.6095e-05
1.60946e-05
1.60928e-05
1.60892e-05
1.60845e-05
1.60804e-05
1.60769e-05
1.60759e-05
1.6072e-05
1.60979e-05
1.61229e-05
)
;

boundaryField
{
    inlet
    {
        type            calculated;
        value           nonuniform List<scalar> 
27
(
1.6096e-05
1.60963e-05
1.60966e-05
1.60971e-05
1.60976e-05
1.60982e-05
1.60989e-05
1.60996e-05
1.61005e-05
1.61014e-05
1.61023e-05
1.61034e-05
1.61045e-05
1.61057e-05
1.61069e-05
1.61082e-05
1.61095e-05
1.61109e-05
1.61124e-05
1.61138e-05
1.61152e-05
1.61166e-05
1.61178e-05
1.6119e-05
1.61201e-05
1.61209e-05
1.61229e-05
)
;
    }
    outlet
    {
        type            calculated;
        value           nonuniform List<scalar> 
78
(
1.63135e-05
1.63055e-05
1.63002e-05
1.62966e-05
1.62944e-05
1.62938e-05
1.62941e-05
1.62928e-05
1.6285e-05
1.62743e-05
1.62811e-05
1.64186e-05
1.6725e-05
1.72203e-05
1.72889e-05
1.55424e-05
1.24114e-05
1.00446e-05
1.00002e-05
1e-05
1e-05
1e-05
1e-05
1e-05
1e-05
0.000124399
0.00236381
0.0074306
0.0427667
0.116162
0.227685
0.367486
0.518743
0.662763
0.783062
0.867218
0.907838
0.900154
0.84197
0.732888
0.576446
0.391374
0.224689
0.107974
0.0420627
0.012412
0.00171707
0.000389274
1e-05
1e-05
1e-05
1.00011e-05
1.16089e-05
1.58047e-05
1.67905e-05
1.64024e-05
1.61592e-05
1.61184e-05
1.61228e-05
1.6118e-05
1.6109e-05
1.61022e-05
1.60978e-05
1.60954e-05
1.60948e-05
1.6095e-05
1.60951e-05
1.6095e-05
1.60946e-05
1.60928e-05
1.60892e-05
1.60845e-05
1.60804e-05
1.60769e-05
1.60759e-05
1.6072e-05
1.60979e-05
1.61229e-05
)
;
    }
    walls
    {
        type            calculated;
        value           nonuniform List<scalar> 0();
    }
    frontAndBack
    {
        type            empty;
    }
    procBoundary7to3
    {
        type            processor;
        value           nonuniform List<scalar> 
16
(
0.000253331
1e-05
1e-05
1.00124e-05
1.28394e-05
1.73636e-05
1.64846e-05
1.62432e-05
1.631e-05
1.631e-05
1.63968e-05
1.64501e-05
1.64844e-05
1.64916e-05
1.64611e-05
1.63322e-05
)
;
    }
    procBoundary7to6
    {
        type            processor;
        value           nonuniform List<scalar> 
91
(
1.60958e-05
1.60953e-05
1.60953e-05
1.60789e-05
1.60789e-05
1.60767e-05
1.60767e-05
1.60723e-05
1.6072e-05
1.6072e-05
1.60781e-05
1.60746e-05
1.60746e-05
1.6088e-05
1.6085e-05
1.60817e-05
1.60817e-05
1.60936e-05
1.6092e-05
1.60905e-05
1.60905e-05
1.60989e-05
1.60985e-05
1.60975e-05
1.60957e-05
1.60957e-05
1.60953e-05
1.60955e-05
1.60964e-05
1.60975e-05
1.60984e-05
1.60984e-05
1.61096e-05
1.61063e-05
1.61035e-05
1.61011e-05
1.6099e-05
1.60973e-05
1.60961e-05
1.60961e-05
1.62077e-05
1.61974e-05
1.61831e-05
1.61713e-05
1.61619e-05
1.61535e-05
1.61456e-05
1.61383e-05
1.61318e-05
1.61261e-05
1.61209e-05
1.61163e-05
1.61163e-05
0.0619718
0.144807
0.236517
0.327259
0.413812
0.494413
0.56734
0.630608
0.6819
0.718604
0.737925
0.737163
0.714253
0.668596
0.602214
0.519741
0.42493
0.317396
0.200765
0.0891859
0.0127104
0.00430148
1e-05
1e-05
1e-05
1e-05
1.00003e-05
1.00328e-05
1.43912e-05
2.10983e-05
1.91124e-05
1.63348e-05
1.56816e-05
1.60538e-05
1.63556e-05
1.63414e-05
1.62443e-05
1.62443e-05
)
;
    }
}


// ************************************************************************* //
