/*--------------------------------*- C++ -*----------------------------------*\
| =========                 |                                                 |
| \\      /  F ield         | OpenFOAM: The Open Source CFD Toolbox           |
|  \\    /   O peration     | Version:  2506                                  |
|   \\  /    A nd           | Website:  www.openfoam.com                      |
|    \\/     M anipulation  |                                                 |
\*---------------------------------------------------------------------------*/
FoamFile
{
    version     2.0;
    format      ascii;
    arch        "LSB;label=32;scalar=64";
    class       volSymmTensorField;
    location    "150";
    object      turbulenceProperties:devReff;
}
// * * * * * * * * * * * * * * * * * * * * * * * * * * * * * * * * * * * * * //

dimensions      [0 2 -2 0 0 0 0];

internalField   nonuniform List<symmTensor> 
1340
(
(1.46151e-07 3.58868e-08 -6.51696e-20 -2.08147e-07 -6.8383e-21 6.19965e-08)
(-9.96527e-08 -2.44082e-08 -6.42919e-20 1.51349e-07 -8.13684e-21 -5.16959e-08)
(1.50601e-07 3.94315e-08 3.38721e-20 -2.11277e-07 3.45391e-21 6.06755e-08)
(9.64276e-08 6.03702e-08 3.45141e-19 -1.38429e-07 3.891e-20 4.20018e-08)
(-8.60502e-08 -2.64981e-08 8.99374e-23 1.42396e-07 -2.87342e-22 -5.63457e-08)
(1.39492e-07 4.71842e-08 -7.14271e-22 -2.0715e-07 1.68422e-22 6.76576e-08)
(-1.30971e-08 2.95912e-08 -1.75529e-19 4.30201e-08 -2.09919e-20 -2.9923e-08)
(9.40147e-08 5.64877e-08 5.70102e-21 -1.37619e-07 1.18094e-21 4.36048e-08)
(-7.76215e-08 -2.74924e-08 7.68034e-20 1.36274e-07 9.56048e-21 -5.86528e-08)
(1.3444e-07 5.12835e-08 -1.53992e-19 -2.05604e-07 -1.62117e-20 7.11643e-08)
(3.08881e-08 4.80036e-08 -4.19161e-19 -1.76675e-08 -4.90604e-20 -1.32207e-08)
(6.77558e-08 5.62146e-08 -2.29377e-19 -8.80731e-08 -2.57768e-20 2.03174e-08)
(-1.10184e-08 2.92067e-08 7.74716e-20 4.128e-08 9.20615e-21 -3.02616e-08)
(9.3987e-08 5.19123e-08 -1.14295e-19 -1.37929e-07 -1.29212e-20 4.39421e-08)
(-7.30417e-08 -2.72275e-08 -3.23643e-19 1.32189e-07 -4.02717e-20 -5.91477e-08)
(1.34358e-07 5.31944e-08 1.47763e-19 -2.06423e-07 1.5238e-20 7.20648e-08)
(5.99218e-08 5.70246e-08 6.19544e-20 -5.46152e-08 7.21434e-21 -5.30657e-09)
(6.72831e-08 5.83862e-08 -1.65677e-20 -7.57441e-08 -1.99184e-21 8.46105e-09)
(3.17114e-08 4.55076e-08 1.59917e-21 -1.82814e-08 -2.95608e-22 -1.34301e-08)
(6.85874e-08 5.15972e-08 7.48621e-22 -8.90371e-08 -1.13608e-22 2.04497e-08)
(-9.1622e-09 2.87796e-08 5.45077e-20 3.96504e-08 6.6144e-21 -3.04882e-08)
(9.40277e-08 4.73985e-08 -5.80113e-21 -1.38251e-07 -9.02075e-22 4.4223e-08)
(-6.89017e-08 -2.68992e-08 2.07247e-22 1.28637e-07 -2.13114e-23 -5.97351e-08)
(1.34241e-07 5.48315e-08 -5.28657e-22 -2.07296e-07 1.25436e-22 7.30547e-08)
(9.52484e-08 6.25003e-08 -1.39376e-19 -9.63298e-08 -1.63863e-20 1.08143e-09)
(8.25355e-08 5.90981e-08 -1.77744e-19 -8.05884e-08 -2.04561e-20 -1.94715e-09)
(7.8847e-08 5.82634e-08 -2.22652e-19 -8.2041e-08 -2.51533e-20 3.19398e-09)
(5.99443e-08 5.26794e-08 -9.05117e-20 -5.45513e-08 -9.95772e-21 -5.39302e-09)
(6.77622e-08 5.36668e-08 1.0059e-20 -7.63769e-08 1.49135e-21 8.61469e-09)
(3.2377e-08 4.29356e-08 1.70489e-19 -1.88013e-08 1.98458e-20 -1.35758e-08)
(6.90912e-08 4.71027e-08 3.53465e-20 -8.97395e-08 3.77173e-21 2.06483e-08)
(-7.25201e-09 2.81282e-08 -1.22201e-19 3.80321e-08 -1.44299e-20 -3.07801e-08)
(9.36309e-08 4.32777e-08 1.09649e-19 -1.38388e-07 1.22956e-20 4.47569e-08)
(-6.46335e-08 -2.68759e-08 1.92709e-22 1.25365e-07 -1.13308e-22 -6.0731e-08)
(1.33126e-07 5.63254e-08 2.62423e-22 -2.07777e-07 -5.86087e-23 7.46516e-08)
(1.22348e-07 5.38786e-08 -3.29223e-20 -1.22222e-07 -3.19652e-21 -1.25603e-10)
(1.11561e-07 5.6034e-08 1.63612e-19 -1.11974e-07 1.82553e-20 4.12788e-10)
(1.00975e-07 5.62704e-08 1.90232e-20 -1.00225e-07 1.91276e-21 -7.49844e-10)
(9.38398e-08 5.59778e-08 1.09638e-19 -9.50023e-08 1.22318e-20 1.16249e-09)
(8.15084e-08 5.33544e-08 4.42737e-22 -7.95369e-08 -3.36976e-22 -1.97148e-09)
(7.84262e-08 5.2791e-08 9.59944e-22 -8.17287e-08 -6.339e-23 3.30253e-09)
(5.97461e-08 4.83248e-08 7.58454e-20 -5.42842e-08 8.61783e-21 -5.46191e-09)
(6.79816e-08 4.89757e-08 -9.58286e-21 -7.67342e-08 -1.1984e-21 8.75262e-09)
(3.29431e-08 4.02677e-08 -7.8907e-22 -1.92406e-08 2.0271e-22 -1.37025e-08)
(6.93939e-08 4.27362e-08 -1.58444e-22 -9.02468e-08 5.22883e-23 2.08529e-08)
(-5.41656e-09 2.72587e-08 3.50916e-22 3.65041e-08 -6.92072e-23 -3.10875e-08)
(9.31311e-08 3.94556e-08 -5.72618e-22 -1.38501e-07 1.59976e-22 4.53704e-08)
(-6.08122e-08 -2.70331e-08 2.79409e-19 1.22636e-07 3.50712e-20 -6.1824e-08)
(1.31852e-07 5.72821e-08 7.49953e-20 -2.08194e-07 7.81574e-21 7.63419e-08)
(1.71908e-07 2.25427e-08 -9.04587e-20 -1.71887e-07 -9.4571e-21 -2.10929e-11)
(1.57685e-07 3.09766e-08 6.69725e-20 -1.57662e-07 7.54771e-21 -2.34833e-11)
(1.44011e-07 3.74046e-08 3.38201e-20 -1.43994e-07 3.40584e-21 -1.68897e-11)
(1.3095e-07 4.19022e-08 -1.25615e-20 -1.30954e-07 -1.5072e-21 4.46292e-12)
(1.18391e-07 4.55982e-08 1.82976e-22 -1.18254e-07 -2.08266e-23 -1.37064e-10)
(1.08509e-07 4.84083e-08 -6.1988e-22 -1.08936e-07 1.16473e-22 4.27223e-10)
(9.85364e-08 4.93393e-08 -6.97943e-23 -9.77609e-08 -2.84443e-22 -7.7546e-10)
(9.20633e-08 4.96068e-08 -1.19489e-19 -9.32629e-08 -1.33951e-20 1.1996e-09)
(8.01846e-08 4.7715e-08 -5.70885e-20 -7.81654e-08 -6.04684e-21 -2.01916e-09)
(7.77188e-08 4.73838e-08 7.15193e-20 -8.10868e-08 8.15725e-21 3.36799e-09)
(5.93634e-08 4.39707e-08 -7.21944e-20 -5.38267e-08 -8.36665e-21 -5.53677e-09)
(6.79845e-08 4.43181e-08 2.8715e-23 -7.68332e-08 -7.4152e-23 8.84863e-09)
(3.33975e-08 3.75137e-08 -1.5419e-19 -1.95829e-08 -1.79905e-20 -1.38146e-08)
(6.95572e-08 3.8476e-08 -3.1939e-20 -9.05795e-08 -3.42938e-21 2.10222e-08)
(-3.75762e-09 2.62193e-08 6.32305e-20 3.5129e-08 7.47995e-21 -3.13714e-08)
(9.27011e-08 3.58022e-08 -9.94279e-20 -1.38646e-07 -1.11783e-20 4.59451e-08)
(-5.7634e-08 -2.72522e-08 -2.35816e-19 1.20492e-07 -2.94828e-20 -6.28576e-08)
(1.30959e-07 5.75979e-08 -9.58065e-20 -2.08898e-07 -9.78149e-21 7.79388e-08)
(2.22127e-07 -5.89963e-08 -8.41857e-20 -2.221e-07 -8.64567e-21 -2.7333e-11)
(2.10747e-07 -4.12014e-08 -1.27003e-20 -2.10714e-07 -9.74031e-22 -3.21464e-11)
(1.98834e-07 -2.52212e-08 -1.31763e-20 -1.98793e-07 -1.34946e-21 -4.01156e-11)
(1.86542e-07 -1.09293e-08 -2.04626e-20 -1.86506e-07 -2.00683e-21 -3.61437e-11)
(1.74012e-07 1.68778e-09 -4.01308e-21 -1.73973e-07 -1.46542e-22 -3.82138e-11)
(1.61457e-07 1.25146e-08 5.72243e-20 -1.61426e-07 6.21049e-21 -3.08482e-11)
(1.49044e-07 2.14203e-08 6.58732e-20 -1.49013e-07 6.97206e-21 -3.12428e-11)
(1.36956e-07 2.8421e-08 -1.37914e-22 -1.36925e-07 -9.18286e-23 -3.11063e-11)
(1.25305e-07 3.35366e-08 2.84844e-20 -1.25304e-07 3.17671e-21 -9.48783e-13)
(1.13937e-07 3.78261e-08 1.83418e-20 -1.13779e-07 1.93736e-21 -1.5752e-10)
(1.04995e-07 4.11727e-08 -4.33726e-23 -1.05423e-07 -6.59987e-23 4.28639e-10)
(9.56795e-08 4.2713e-08 -4.67081e-24 -9.48733e-08 2.15006e-23 -8.06168e-10)
(8.98953e-08 4.34653e-08 7.07978e-22 -9.11142e-08 -6.76233e-24 1.21891e-09)
(7.8536e-08 4.22423e-08 5.48157e-20 -7.6469e-08 5.96218e-21 -2.06701e-09)
(7.66927e-08 4.20985e-08 -6.81355e-20 -8.01019e-08 -7.72195e-21 3.40923e-09)
(5.87573e-08 3.96606e-08 6.87187e-20 -5.31557e-08 7.93486e-21 -5.60166e-09)
(6.77464e-08 3.97285e-08 2.30335e-24 -7.66598e-08 8.08138e-23 8.91344e-09)
(3.37107e-08 3.47032e-08 1.47318e-19 -1.98066e-08 1.70386e-20 -1.3904e-08)
(6.95682e-08 3.43232e-08 3.07814e-20 -9.07187e-08 3.19977e-21 2.11505e-08)
(-2.30221e-09 2.50409e-08 -6.01591e-20 3.39293e-08 -7.2041e-21 -3.16271e-08)
(9.23068e-08 3.22778e-08 2.36713e-22 -1.38782e-07 7.48775e-23 4.64755e-08)
(-5.4996e-08 -2.7533e-08 4.01152e-19 1.1883e-07 5.0005e-20 -6.38337e-08)
(1.30292e-07 5.72907e-08 3.90379e-22 -2.09673e-07 -1.71523e-22 7.93811e-08)
(2.35915e-07 -2.22547e-07 -1.84897e-20 -2.36025e-07 -1.83758e-21 1.10007e-10)
(2.34394e-07 -1.96806e-07 -4.22163e-20 -2.34486e-07 -3.9259e-21 9.17605e-11)
(2.31634e-07 -1.72132e-07 1.95487e-20 -2.31713e-07 1.92237e-21 7.85102e-11)
(2.27636e-07 -1.48502e-07 -3.68472e-20 -2.27696e-07 -3.77146e-21 5.98876e-11)
(2.22424e-07 -1.25908e-07 -1.23143e-20 -2.22466e-07 -8.94639e-22 4.18798e-11)
(2.16073e-07 -1.04474e-07 4.52239e-20 -2.16097e-07 4.60904e-21 2.39081e-11)
(2.08703e-07 -8.43927e-08 4.70861e-21 -2.08712e-07 3.20983e-22 9.32776e-12)
(2.00463e-07 -6.58481e-08 4.67937e-22 -2.00454e-07 -1.84654e-22 -8.49527e-12)
(1.91487e-07 -4.89076e-08 -1.39457e-20 -1.9147e-07 -1.50392e-21 -1.6658e-11)
(1.81899e-07 -3.3511e-08 -1.02428e-20 -1.81871e-07 -1.02272e-21 -2.79939e-11)
(1.71815e-07 -1.95725e-08 1.20622e-22 -1.71787e-07 1.36018e-23 -2.8123e-11)
(1.61353e-07 -7.07893e-09 1.45964e-23 -1.61321e-07 -1.54052e-23 -3.19507e-11)
(1.50691e-07 3.82855e-09 -3.40208e-22 -1.50665e-07 3.14477e-23 -2.54021e-11)
(1.40006e-07 1.29885e-08 -1.05917e-20 -1.3998e-07 -1.01813e-21 -2.54275e-11)
(1.29458e-07 2.03604e-08 9.35076e-23 -1.29426e-07 -5.54801e-23 -3.27852e-11)
(1.19198e-07 2.59192e-08 -2.73164e-20 -1.19202e-07 -2.96727e-21 4.86156e-12)
(1.09032e-07 3.06474e-08 -1.75322e-20 -1.08863e-07 -1.85866e-21 -1.6877e-10)
(1.01045e-07 3.44053e-08 -4.15713e-23 -1.01481e-07 4.03328e-23 4.35288e-10)
(9.24202e-08 3.64611e-08 -4.49683e-24 -9.15962e-08 2.91089e-22 -8.2396e-10)
(8.73357e-08 3.76236e-08 1.07857e-19 -8.85742e-08 1.2171e-20 1.23856e-09)
(7.65538e-08 3.69996e-08 2.82463e-20 -7.44556e-08 3.27595e-21 -2.09819e-09)
(7.53366e-08 3.69945e-08 1.11187e-19 -7.87783e-08 1.24006e-20 3.44169e-09)
(5.7915e-08 3.54436e-08 -6.55169e-20 -5.22723e-08 -7.62523e-21 -5.6427e-09)
(6.7254e-08 3.52482e-08 3.83066e-23 -7.62085e-08 -2.31629e-23 8.95442e-09)
(3.38649e-08 3.18683e-08 -1.0042e-19 -1.99e-08 -1.14293e-20 -1.39649e-08)
(6.94142e-08 3.02924e-08 8.4656e-20 -9.06593e-08 9.80669e-21 2.12451e-08)
(-1.04695e-09 2.37444e-08 1.46281e-19 3.2898e-08 1.7194e-20 -3.18511e-08)
(9.19013e-08 2.88706e-08 -8.60187e-24 -1.38884e-07 -1.09458e-22 4.69822e-08)
(-5.28917e-08 -2.79039e-08 -2.75249e-22 1.17726e-07 6.28388e-23 -6.48347e-08)
(1.298e-07 5.64584e-08 2.15549e-20 -2.10582e-07 2.25064e-21 8.0782e-08)
(1.54885e-07 -5.42832e-07 1.56553e-20 -1.55068e-07 1.42801e-21 1.8281e-10)
(1.60256e-07 -5.09745e-07 5.96559e-22 -1.60466e-07 4.8053e-23 2.10738e-10)
(1.65792e-07 -4.78043e-07 9.7401e-22 -1.66015e-07 1.52777e-22 2.23606e-10)
(1.71303e-07 -4.47466e-07 4.65578e-20 -1.71534e-07 4.34211e-21 2.31058e-10)
(1.76782e-07 -4.18321e-07 2.09275e-20 -1.77017e-07 1.95905e-21 2.3525e-10)
(1.82147e-07 -3.90499e-07 3.29562e-20 -1.82378e-07 3.05322e-21 2.30976e-10)
(1.87201e-07 -3.63484e-07 1.03044e-20 -1.87421e-07 9.46362e-22 2.19763e-10)
(1.91749e-07 -3.36917e-07 1.87831e-20 -1.91961e-07 1.70731e-21 2.12237e-10)
(1.95666e-07 -3.10876e-07 -1.08338e-20 -1.95858e-07 -1.30191e-21 1.92484e-10)
(1.98914e-07 -2.85538e-07 -6.49723e-20 -1.99089e-07 -6.09636e-21 1.75376e-10)
(2.01403e-07 -2.60866e-07 1.24814e-20 -2.01558e-07 1.28884e-21 1.55191e-10)
(2.03007e-07 -2.36672e-07 -1.71148e-20 -2.03143e-07 -1.71817e-21 1.35278e-10)
(2.03637e-07 -2.12961e-07 9.15259e-23 -2.03754e-07 3.64553e-23 1.16679e-10)
(2.03259e-07 -1.89946e-07 1.23761e-22 -2.03359e-07 -6.10134e-23 9.9815e-11)
(2.01886e-07 -1.67781e-07 -2.39505e-23 -2.01974e-07 8.98985e-24 8.80274e-11)
(1.99491e-07 -1.46462e-07 1.22822e-22 -1.99563e-07 -2.75361e-23 7.20356e-11)
(1.9606e-07 -1.25948e-07 4.28098e-23 -1.96116e-07 -3.21829e-23 5.60321e-11)
(1.91614e-07 -1.06326e-07 -1.60179e-22 -1.91656e-07 -5.30434e-23 4.12661e-11)
(1.86233e-07 -8.77732e-08 -2.36023e-20 -1.86257e-07 -2.21388e-21 2.41027e-11)
(1.80014e-07 -7.04699e-08 4.77432e-20 -1.80023e-07 5.01264e-21 8.7456e-12)
(1.73071e-07 -5.45192e-08 -3.96121e-21 -1.73067e-07 -5.85789e-22 -4.56783e-12)
(1.65486e-07 -3.98777e-08 9.87147e-21 -1.65468e-07 1.04195e-21 -1.76907e-11)
(1.57351e-07 -2.64829e-08 4.34829e-23 -1.57331e-07 -4.75323e-23 -1.99309e-11)
(1.48749e-07 -1.4318e-08 -6.34597e-22 -1.48726e-07 -2.16974e-22 -2.32162e-11)
(1.39829e-07 -3.53327e-09 -5.14272e-20 -1.3981e-07 -5.66121e-21 -1.9367e-11)
(1.30756e-07 5.68569e-09 -5.02194e-20 -1.30739e-07 -5.17401e-21 -1.75508e-11)
(1.21673e-07 1.32514e-08 3.64008e-20 -1.2164e-07 4.02999e-21 -3.30101e-11)
(1.12754e-07 1.90887e-08 -2.887e-20 -1.12767e-07 -3.23406e-21 1.24608e-11)
(1.03772e-07 2.41106e-08 1.66764e-20 -1.03598e-07 1.87962e-21 -1.73833e-10)
(9.67364e-08 2.81582e-08 -1.30289e-22 -9.71806e-08 -3.27443e-23 4.44161e-10)
(8.88195e-08 3.06359e-08 -6.29172e-23 -8.79875e-08 -7.54974e-23 -8.31946e-10)
(8.44341e-08 3.21316e-08 -3.88979e-20 -8.56893e-08 -4.41705e-21 1.25518e-09)
(7.42756e-08 3.20349e-08 -7.65411e-20 -7.21611e-08 -8.72878e-21 -2.11456e-09)
(7.36773e-08 3.21207e-08 -1.06065e-19 -7.71395e-08 -1.16928e-20 3.46219e-09)
(5.68466e-08 3.13596e-08 2.84714e-20 -5.11831e-08 3.39047e-21 -5.66345e-09)
(6.65209e-08 3.09103e-08 1.55534e-20 -7.54934e-08 1.869e-21 8.97248e-09)
(3.38603e-08 2.90404e-08 7.67338e-20 -1.98696e-08 8.82472e-21 -1.39907e-08)
(6.91049e-08 2.63915e-08 5.27894e-20 -9.04142e-08 5.97959e-21 2.13092e-08)
(6.76006e-12 2.23486e-08 -1.91371e-22 3.2024e-08 -2.25058e-23 -3.20307e-08)
(9.14925e-08 2.55525e-08 -8.42912e-24 -1.38952e-07 -4.71466e-24 4.74592e-08)
(-5.12334e-08 -2.83311e-08 -1.1074e-22 1.17006e-07 -2.27371e-23 -6.57722e-08)
(1.29508e-07 5.51188e-08 -2.05813e-20 -2.11622e-07 -2.11472e-21 8.21145e-08)
(-0.000218064 -0.000881503 -2.51731e-18 0.000201095 -1.19934e-19 1.6969e-05)
(-0.0010658 0.00153066 1.42713e-18 0.00101586 -1.75701e-19 4.99398e-05)
(-0.0034726 0.0218727 1.02953e-17 0.00346463 1.11773e-18 7.97184e-06)
(-0.00828402 0.0709816 -1.81649e-17 0.00825868 -1.12433e-18 2.53437e-05)
(-0.016133 0.149567 -2.73112e-17 0.0160765 -3.52828e-18 5.65328e-05)
(-0.0273083 0.252 8.5508e-17 0.0272847 6.97452e-18 2.35766e-05)
(-0.0417714 0.369808 6.0898e-17 0.0417966 7.16082e-18 -2.52566e-05)
(-0.0593318 0.492899 -7.15468e-17 0.0593855 -6.15971e-18 -5.37042e-05)
(-0.079613 0.610159 2.24209e-17 0.0796814 4.26565e-19 -6.84172e-05)
(-0.101827 0.70967 1.27508e-16 0.101903 1.17708e-17 -7.5429e-05)
(-0.124392 0.778526 2.34466e-17 0.12446 2.79189e-18 -6.80469e-05)
(-0.144373 0.802259 7.09986e-17 0.1444 7.54666e-18 -2.73091e-05)
(-0.157012 0.76506 -1.00733e-16 0.156953 -6.49694e-18 5.90777e-05)
(-0.155973 0.652834 -2.99342e-16 0.155806 -2.94404e-17 0.00016753)
(-0.135233 0.461109 8.86136e-17 0.134997 9.70671e-19 0.000235748)
(-0.0931309 0.207842 5.19551e-16 0.0929456 4.80199e-17 0.000185324)
(-0.0367597 -0.0575434 6.2977e-17 0.0367195 1.04035e-17 4.01546e-05)
(0.0174711 -0.262326 -8.1569e-17 -0.0173555 -7.48515e-18 -0.000115627)
(0.049888 -0.338912 9.88431e-18 -0.0497056 -8.95749e-19 -0.000182368)
(0.0494765 -0.271017 8.19024e-17 -0.049395 8.01627e-18 -8.14678e-05)
(0.0263564 -0.129015 -2.38299e-17 -0.0263667 -2.59415e-18 1.02906e-05)
(0.0066237 -0.0301679 2.89923e-17 -0.00663319 2.99685e-18 9.48702e-06)
(0.000935215 -0.00414606 -1.22902e-17 -0.00093603 -1.16078e-18 8.15648e-07)
(1.00404e-05 -5.38438e-05 4.7441e-19 -1.01086e-05 3.62266e-20 6.81674e-08)
(3.45096e-08 -4.9432e-07 5.29421e-21 -3.6045e-08 5.50291e-22 1.53543e-09)
(5.5174e-08 -6.09039e-07 1.00412e-21 -5.48875e-08 1.27516e-22 -2.86418e-10)
(1.03627e-07 -7.42863e-07 1.56398e-21 -1.02087e-07 7.51636e-23 -1.54015e-09)
(1.19098e-07 -7.31073e-07 1.19219e-20 -1.18046e-07 1.10949e-21 -1.05138e-09)
(1.08272e-07 -6.442e-07 -7.74012e-22 -1.08237e-07 -1.21888e-23 -3.51184e-11)
(1.00433e-07 -6.01414e-07 3.94884e-21 -1.00986e-07 3.95529e-22 5.53174e-10)
(1.50002e-07 -8.80649e-07 -1.41601e-20 -1.51052e-07 -1.19712e-21 1.04998e-09)
(1.7358e-07 -9.67874e-07 -2.41892e-20 -1.74587e-07 -2.30705e-21 1.00688e-09)
(1.48991e-07 -7.81769e-07 1.97029e-21 -1.49576e-07 1.29475e-22 5.85285e-10)
(1.32947e-07 -6.55918e-07 -8.25796e-21 -1.33258e-07 -7.89316e-22 3.10554e-10)
(1.31914e-07 -6.08973e-07 1.74196e-20 -1.32112e-07 1.60395e-21 1.98198e-10)
(1.36069e-07 -5.83298e-07 -5.54314e-21 -1.36249e-07 -4.69899e-22 1.80544e-10)
(1.3907e-07 -5.50234e-07 -1.56345e-20 -1.39269e-07 -1.46149e-21 1.98575e-10)
(1.40875e-07 -5.12526e-07 -1.3944e-20 -1.4109e-07 -1.31586e-21 2.14776e-10)
(1.43216e-07 -4.77791e-07 1.28273e-20 -1.43434e-07 1.20538e-21 2.18403e-10)
(1.4644e-07 -4.46846e-07 2.55857e-24 -1.46649e-07 -1.46528e-23 2.09131e-10)
(1.50081e-07 -4.17938e-07 -4.15683e-23 -1.50285e-07 3.38154e-23 2.04004e-10)
(1.53814e-07 -3.90356e-07 -2.32635e-23 -1.54015e-07 2.34637e-23 2.00536e-10)
(1.57598e-07 -3.64137e-07 -2.67045e-23 -1.57796e-07 1.63257e-23 1.98334e-10)
(1.61349e-07 -3.39066e-07 -1.51323e-23 -1.61539e-07 6.35528e-24 1.90683e-10)
(1.64908e-07 -3.14732e-07 -6.43788e-22 -1.65093e-07 -8.32015e-23 1.84958e-10)
(1.68119e-07 -2.9102e-07 -1.75182e-20 -1.68291e-07 -1.68963e-21 1.71846e-10)
(1.70922e-07 -2.68038e-07 1.30341e-22 -1.71079e-07 1.40281e-22 1.5628e-10)
(1.73248e-07 -2.45771e-07 4.94218e-20 -1.73388e-07 4.81383e-21 1.40447e-10)
(1.74981e-07 -2.24028e-07 7.116e-23 -1.75105e-07 -1.19165e-22 1.23219e-10)
(1.76011e-07 -2.02729e-07 1.25294e-20 -1.76121e-07 1.21484e-21 1.09974e-10)
(1.76291e-07 -1.8202e-07 -3.19142e-21 -1.76386e-07 -3.18433e-22 9.51108e-11)
(1.75805e-07 -1.62044e-07 2.13809e-20 -1.75889e-07 2.16929e-21 8.44213e-11)
(1.74514e-07 -1.42784e-07 1.77165e-23 -1.74587e-07 -7.63598e-23 7.2807e-11)
(1.72376e-07 -1.24184e-07 5.9141e-24 -1.72438e-07 -2.18033e-23 6.13234e-11)
(1.69377e-07 -1.06281e-07 1.84246e-23 -1.69426e-07 8.96047e-23 4.96372e-11)
(1.65551e-07 -8.9225e-08 2.25793e-20 -1.65586e-07 2.11335e-21 3.47876e-11)
(1.60965e-07 -7.3193e-08 -5.00775e-20 -1.60983e-07 -5.16896e-21 1.84096e-11)
(1.557e-07 -5.82964e-08 1.26579e-20 -1.55705e-07 1.4885e-21 4.92897e-12)
(1.49808e-07 -4.45207e-08 -7.4468e-23 -1.498e-07 -1.47601e-23 -8.75418e-12)
(1.43356e-07 -3.18015e-08 1.94612e-22 -1.43344e-07 -1.33912e-22 -1.13156e-11)
(1.36396e-07 -2.01204e-08 -2.83146e-20 -1.36382e-07 -3.03038e-21 -1.39541e-11)
(1.29045e-07 -9.62083e-09 3.15861e-22 -1.29032e-07 4.55898e-23 -1.24805e-11)
(1.21451e-07 -5.03598e-10 9.48505e-21 -1.21442e-07 9.00081e-22 -8.98208e-12)
(1.13734e-07 7.09863e-09 -2.44164e-22 -1.13703e-07 3.0942e-23 -3.0759e-11)
(1.06088e-07 1.30681e-08 2.54476e-22 -1.06111e-07 -7.80941e-23 2.22971e-11)
(9.82488e-08 1.82491e-08 -1.59533e-20 -9.80747e-08 -1.83251e-21 -1.74125e-10)
(9.21452e-08 2.24738e-08 -3.66162e-20 -9.25987e-08 -4.05637e-21 4.53436e-10)
(8.49443e-08 2.52783e-08 -2.38975e-20 -8.4112e-08 -2.52707e-21 -8.32233e-10)
(8.12453e-08 2.70348e-08 1.1935e-20 -8.25126e-08 1.49728e-21 1.26729e-09)
(7.17396e-08 2.73887e-08 5.68805e-20 -6.96192e-08 6.37312e-21 -2.12045e-09)
(7.1746e-08 2.75174e-08 5.10795e-20 -7.52149e-08 5.51957e-21 3.46891e-09)
(5.55718e-08 2.74471e-08 -7.26569e-23 -4.99119e-08 -1.83438e-22 -5.65995e-09)
(6.55566e-08 2.67444e-08 -6.78466e-20 -7.45192e-08 -7.69623e-21 8.96263e-09)
(3.36821e-08 2.62515e-08 -1.46268e-22 -1.96992e-08 6.97312e-23 -1.3983e-08)
(6.86407e-08 2.26212e-08 -5.09814e-20 -8.99681e-08 -5.61202e-21 2.13274e-08)
(8.28403e-10 2.08861e-08 3.88911e-20 3.13343e-08 4.65884e-21 -3.21627e-08)
(9.1095e-08 2.22745e-08 -2.01236e-22 -1.38978e-07 -2.47971e-23 4.78828e-08)
(-5.00596e-08 -2.87754e-08 -1.6008e-19 1.16729e-07 -1.99439e-20 -6.66696e-08)
(1.29494e-07 5.32843e-08 1.96052e-20 -2.12818e-07 2.05582e-21 8.33239e-08)
(-2.86374e-05 -0.000163304 -4.65845e-22 2.59256e-05 -1.34838e-20 2.71175e-06)
(-0.000127321 -0.000533375 2.39817e-18 0.000119758 2.06881e-19 7.56335e-06)
(-0.000780024 0.000287882 3.7573e-18 0.00078353 5.60015e-19 -3.50684e-06)
(-0.0029046 0.0122651 -7.1209e-18 0.00290927 -4.34142e-19 -4.67109e-06)
(-0.00779089 0.0485108 -1.23428e-17 0.00774136 -1.29879e-18 4.95273e-05)
(-0.0163559 0.114 1.49703e-19 0.0162736 -1.30671e-19 8.23458e-05)
(-0.0286742 0.20502 1.9168e-19 0.0286072 -4.46227e-19 6.7004e-05)
(-0.0442106 0.313424 6.07084e-17 0.0441693 6.00437e-18 4.12344e-05)
(-0.062108 0.428816 -5.09929e-17 0.0620799 -5.06318e-18 2.80923e-05)
(-0.0812852 0.539473 1.39937e-16 0.081269 1.30824e-17 1.62152e-05)
(-0.100432 0.633133 -4.74356e-17 0.10044 -3.38811e-18 -7.91237e-06)
(-0.117943 0.697604 5.79336e-19 0.117981 -1.46045e-18 -3.7885e-05)
(-0.131744 0.721068 1.71879e-16 0.1318 1.61019e-17 -5.6019e-05)
(-0.139003 0.692353 -3.38538e-18 0.139048 1.87871e-18 -4.47676e-05)
(-0.136008 0.60209 -1.60455e-16 0.136004 -1.48025e-17 3.95598e-06)
(-0.11881 0.446544 -4.14264e-18 0.118738 1.30713e-19 7.25267e-05)
(-0.0853395 0.235329 -1.60628e-16 0.0852284 -1.69339e-17 0.000111154)
(-0.0386723 -3.26813e-05 1.6218e-16 0.0385859 1.31127e-17 8.64819e-05)
(0.0107023 -0.20536 9.69591e-17 -0.0107134 9.69972e-18 1.11168e-05)
(0.046776 -0.317756 5.90433e-17 -0.0467194 4.65787e-18 -5.66519e-05)
(0.0554771 -0.299055 1.43194e-16 -0.0553753 1.60072e-17 -0.000101735)
(0.0381192 -0.182768 -1.73163e-16 -0.0380793 -1.69225e-17 -3.98859e-05)
(0.0140244 -0.0623876 7.53946e-17 -0.0140338 7.14054e-18 9.43397e-06)
(0.00155659 -0.00661575 -1.61293e-17 -0.00155727 -1.39212e-18 6.829e-07)
(0.000194839 -0.000865846 1.31257e-21 -0.000193879 -4.04602e-20 -9.59639e-07)
(9.85795e-08 -7.02956e-07 5.54374e-25 -9.79591e-08 2.58908e-23 -6.20413e-10)
(5.24058e-08 -5.03648e-07 -2.85257e-21 -5.23304e-08 -2.36158e-22 -7.54585e-11)
(9.57997e-08 -6.40328e-07 -4.7729e-21 -9.52964e-08 -4.66603e-22 -5.03342e-10)
(1.21165e-07 -6.72468e-07 5.93869e-22 -1.21229e-07 3.45842e-23 6.45476e-11)
(1.15651e-07 -6.06363e-07 -1.20066e-21 -1.16524e-07 -1.13538e-22 8.72484e-10)
(9.98977e-08 -5.25964e-07 5.12293e-22 -1.00897e-07 1.37022e-23 9.99274e-10)
(1.16863e-07 -6.14197e-07 8.32971e-21 -1.17675e-07 7.8715e-22 8.11367e-10)
(1.76492e-07 -8.93109e-07 1.53601e-24 -1.77001e-07 3.33611e-24 5.08558e-10)
(1.65309e-07 -7.90534e-07 1.70387e-20 -1.65451e-07 1.64815e-21 1.41218e-10)
(1.36997e-07 -6.18391e-07 -1.33511e-20 -1.37062e-07 -1.23346e-21 6.47552e-11)
(1.27422e-07 -5.42555e-07 3.3289e-21 -1.27533e-07 2.91765e-22 1.10526e-10)
(1.28924e-07 -5.15029e-07 3.97271e-24 -1.29096e-07 -1.49698e-23 1.71512e-10)
(1.31617e-07 -4.90039e-07 1.72246e-20 -1.31817e-07 1.64097e-21 1.99678e-10)
(1.32386e-07 -4.56987e-07 -4.73194e-21 -1.32579e-07 -4.31045e-22 1.9307e-10)
(1.32794e-07 -4.234e-07 6.07207e-21 -1.32963e-07 5.79665e-22 1.69321e-10)
(1.34116e-07 -3.93686e-07 3.16916e-21 -1.34271e-07 3.32501e-22 1.54254e-10)
(1.36207e-07 -3.67121e-07 -6.18795e-24 -1.36348e-07 3.81646e-23 1.41364e-10)
(1.38607e-07 -3.4227e-07 1.72906e-20 -1.38737e-07 1.69657e-21 1.29333e-10)
(1.41071e-07 -3.18485e-07 -5.59654e-24 -1.41189e-07 -1.55655e-23 1.18324e-10)
(1.43503e-07 -2.95544e-07 5.77077e-22 -1.43611e-07 1.06172e-22 1.07618e-10)
(1.45826e-07 -2.73404e-07 1.25842e-20 -1.45923e-07 1.22288e-21 9.70073e-11)
(1.47984e-07 -2.52129e-07 2.78264e-23 -1.48069e-07 -8.39768e-23 8.47638e-11)
(1.49903e-07 -2.31673e-07 -9.754e-23 -1.49975e-07 1.12432e-22 7.23763e-11)
(1.51474e-07 -2.11828e-07 2.63605e-20 -1.51534e-07 2.6095e-21 6.00087e-11)
(1.52579e-07 -1.92463e-07 -1.18913e-20 -1.52628e-07 -1.26874e-21 4.96243e-11)
(1.53158e-07 -1.73653e-07 3.02264e-23 -1.53198e-07 -7.15843e-23 4.08019e-11)
(1.53179e-07 -1.55515e-07 -2.04549e-20 -1.53215e-07 -2.03026e-21 3.60757e-11)
(1.52599e-07 -1.38034e-07 1.55013e-23 -1.5263e-07 6.5847e-23 3.03664e-11)
(1.51358e-07 -1.21129e-07 5.19299e-24 -1.51384e-07 4.95151e-23 2.63668e-11)
(1.49415e-07 -1.04799e-07 2.08979e-20 -1.49435e-07 2.1775e-21 1.9995e-11)
(1.46772e-07 -8.91516e-08 2.73258e-21 -1.46784e-07 2.75127e-22 1.19842e-11)
(1.43467e-07 -7.43554e-08 4.38602e-21 -1.43466e-07 3.60218e-22 -5.2019e-13)
(1.39554e-07 -6.05219e-08 -8.36126e-21 -1.39544e-07 -9.75808e-22 -9.99252e-12)
(1.35064e-07 -4.76571e-08 -2.26225e-20 -1.35044e-07 -2.1429e-21 -1.99002e-11)
(1.30035e-07 -3.56899e-08 6.73851e-20 -1.30015e-07 7.34493e-21 -2.0731e-11)
(1.24498e-07 -2.46007e-08 2.75844e-20 -1.24475e-07 2.85919e-21 -2.25815e-11)
(1.18533e-07 -1.45072e-08 4.66631e-20 -1.18509e-07 5.04186e-21 -2.31118e-11)
(1.12271e-07 -5.62363e-09 5.40325e-20 -1.12255e-07 5.64529e-21 -1.61339e-11)
(1.05802e-07 1.88176e-09 -4.18774e-20 -1.0576e-07 -4.55483e-21 -4.21156e-11)
(9.93414e-08 7.85943e-09 5.79621e-20 -9.93608e-08 6.42354e-21 1.94424e-11)
(9.25857e-08 1.30805e-08 -1.50163e-20 -9.24029e-08 -1.82143e-21 -1.82801e-10)
(8.73782e-08 1.73778e-08 -3.33988e-23 -8.78273e-08 7.61321e-23 4.49025e-10)
(8.08844e-08 2.04154e-08 1.25692e-20 -8.0047e-08 1.34173e-21 -8.37429e-10)
(7.78471e-08 2.2365e-08 -1.05222e-20 -7.9108e-08 -1.10666e-21 1.26081e-09)
(6.90089e-08 2.30935e-08 4.46713e-20 -6.68887e-08 5.1456e-21 -2.1202e-09)
(6.95972e-08 2.32121e-08 3.40003e-20 -7.30502e-08 3.80318e-21 3.45302e-09)
(5.41176e-08 2.37385e-08 -5.94707e-24 -4.84793e-08 4.71818e-24 -5.63833e-09)
(6.44032e-08 2.27639e-08 4.36425e-20 -7.33148e-08 4.92183e-21 8.91164e-09)
(3.33294e-08 2.35402e-08 1.01831e-23 -1.94055e-08 -2.2676e-22 -1.39239e-08)
(6.80787e-08 1.89609e-08 -1.47571e-19 -8.93609e-08 -1.68612e-20 2.12822e-08)
(1.37779e-09 1.94027e-08 -3.71656e-20 3.08249e-08 -4.3154e-21 -3.22027e-08)
(9.08021e-08 1.89874e-08 -9.51841e-20 -1.3898e-07 -1.05278e-20 4.81776e-08)
(-4.93314e-08 -2.91417e-08 1.61263e-19 1.16723e-07 2.01125e-20 -6.7392e-08)
(1.29948e-07 5.09845e-08 -1.87087e-20 -2.14288e-07 -1.93864e-21 8.43393e-08)
(-8.17889e-08 -4.61028e-07 -5.55969e-25 7.14394e-08 1.28276e-23 1.03495e-08)
(-5.97797e-06 -3.33338e-05 1.6253e-22 5.27089e-06 9.22086e-22 7.0708e-07)
(-2.41143e-05 -0.00010908 -1.78818e-19 2.36341e-05 -2.21362e-20 4.80182e-07)
(-0.000292556 -0.00047747 2.33349e-18 0.0002987 1.87075e-19 -6.14433e-06)
(-0.00145701 0.00321699 1.32656e-18 0.00147532 3.058e-19 -1.83104e-05)
(-0.00486062 0.0228853 -1.19741e-17 0.00487866 -1.14053e-18 -1.80441e-05)
(-0.0118972 0.069488 1.23134e-17 0.0118895 9.62868e-19 7.72099e-06)
(-0.023165 0.144664 1.13868e-19 0.0231254 1.39822e-19 3.95789e-05)
(-0.0383338 0.24237 -1.40402e-19 0.0382872 4.08827e-20 4.65429e-05)
(-0.0563906 0.352656 1.27269e-18 0.0563561 2.11826e-19 3.44822e-05)
(-0.0758564 0.463336 -4.588e-19 0.0758345 -5.9055e-19 2.18666e-05)
(-0.0949257 0.561017 7.9574e-17 0.0949197 7.72729e-18 5.92915e-06)
(-0.111559 0.632164 6.71152e-19 0.111573 4.92286e-19 -1.44978e-05)
(-0.123572 0.664366 -2.89439e-18 0.123606 -1.20983e-18 -3.47494e-05)
(-0.12864 0.647251 1.18451e-16 0.12868 1.16489e-17 -4.02523e-05)
(-0.124288 0.573548 4.96601e-18 0.124307 1.06151e-18 -1.84066e-05)
(-0.108158 0.441335 7.83939e-17 0.108133 6.35315e-18 2.45575e-05)
(-0.0789992 0.258207 1.38237e-16 0.0789265 1.3763e-17 7.27533e-05)
(-0.0386537 0.047201 4.38363e-19 0.0385535 1.57509e-18 0.000100206)
(0.0059549 -0.150722 -7.70991e-17 -0.00604305 -6.39303e-18 8.81469e-05)
(0.0426753 -0.282795 -8.08585e-17 -0.0426747 -1.06585e-17 -6.09138e-07)
(0.0580037 -0.305665 3.00539e-16 -0.0579354 3.01462e-17 -6.82289e-05)
(0.0474677 -0.223046 -2.16734e-16 -0.047431 -1.93058e-17 -3.67831e-05)
(0.0232973 -0.101612 7.27752e-19 -0.023293 -5.03904e-19 -4.28733e-06)
(0.00580909 -0.0241415 -1.22232e-17 -0.00580669 -1.13365e-18 -2.40128e-06)
(4.84385e-05 -0.000202146 -4.78365e-22 -4.83261e-05 -8.82953e-22 -1.12354e-07)
(1.19248e-05 -6.26384e-05 -6.7882e-20 -1.19233e-05 -6.56156e-21 -1.5341e-09)
(5.50372e-08 -4.46113e-07 -4.48635e-24 -5.60253e-08 1.26478e-23 9.88054e-10)
(8.57402e-08 -5.4814e-07 -2.69563e-21 -8.66368e-08 -2.57852e-22 8.96594e-10)
(1.18936e-07 -6.13778e-07 -1.56495e-24 -1.19648e-07 -1.3792e-23 7.1207e-10)
(1.20742e-07 -5.7314e-07 4.96254e-24 -1.21482e-07 -4.47988e-24 7.39407e-10)
(1.04418e-07 -4.94367e-07 -1.32546e-22 -1.04912e-07 -9.10073e-24 4.94155e-10)
(9.22289e-08 -4.44717e-07 -1.3092e-21 -9.22807e-08 -9.7776e-23 5.18211e-11)
(1.33816e-07 -6.34505e-07 -1.81121e-20 -1.33514e-07 -1.77407e-21 -3.01308e-10)
(1.65391e-07 -7.44439e-07 1.55093e-20 -1.65092e-07 1.45489e-21 -2.9868e-10)
(1.42509e-07 -6.03624e-07 -3.57714e-21 -1.4249e-07 -3.21052e-22 -1.93958e-11)
(1.24778e-07 -4.98963e-07 6.18443e-24 -1.24909e-07 -1.3437e-23 1.31424e-10)
(1.21291e-07 -4.58096e-07 -3.60393e-21 -1.21473e-07 -3.38504e-22 1.82313e-10)
(1.23183e-07 -4.37304e-07 -7.16219e-21 -1.23364e-07 -6.97958e-22 1.80669e-10)
(1.2397e-07 -4.10987e-07 -3.66073e-24 -1.24125e-07 -2.21123e-24 1.55043e-10)
(1.23251e-07 -3.79478e-07 -1.91553e-23 -1.23379e-07 3.64189e-23 1.28163e-10)
(1.22827e-07 -3.49819e-07 1.06564e-20 -1.22941e-07 1.04734e-21 1.13659e-10)
(1.23401e-07 -3.24116e-07 -1.35201e-20 -1.23503e-07 -1.31405e-21 1.02423e-10)
(1.24653e-07 -3.01063e-07 -3.30571e-21 -1.24751e-07 -3.04364e-22 9.819e-11)
(1.26125e-07 -2.79256e-07 -7.58708e-24 -1.26219e-07 1.84817e-23 9.4524e-11)
(1.27584e-07 -2.58221e-07 -1.13826e-23 -1.27672e-07 1.11629e-23 8.7815e-11)
(1.29003e-07 -2.3805e-07 2.43582e-23 -1.29084e-07 -4.57913e-23 8.11495e-11)
(1.30365e-07 -2.18827e-07 -2.65901e-23 -1.30438e-07 -5.19163e-23 7.25211e-11)
(1.31596e-07 -2.00375e-07 -2.51609e-20 -1.31661e-07 -2.39972e-21 6.47901e-11)
(1.3257e-07 -1.8251e-07 3.09468e-20 -1.32627e-07 3.19143e-21 5.70605e-11)
(1.33209e-07 -1.65216e-07 2.9315e-21 -1.33262e-07 1.8737e-22 5.28108e-11)
(1.33473e-07 -1.48579e-07 1.85858e-23 -1.33525e-07 -9.08818e-24 5.23757e-11)
(1.33314e-07 -1.32589e-07 2.13384e-23 -1.33364e-07 -6.8716e-24 5.03078e-11)
(1.32669e-07 -1.17148e-07 4.54985e-24 -1.3272e-07 -8.62937e-23 5.02375e-11)
(1.31479e-07 -1.02215e-07 -2.00736e-20 -1.31526e-07 -2.02884e-21 4.69066e-11)
(1.29721e-07 -8.78609e-08 -2.63937e-21 -1.29763e-07 -1.90874e-22 4.17969e-11)
(1.27407e-07 -7.42238e-08 1.27377e-21 -1.2744e-07 2.03753e-22 3.32075e-11)
(1.24573e-07 -6.14248e-08 2.28721e-20 -1.246e-07 2.43451e-21 2.68481e-11)
(1.21229e-07 -4.94692e-08 8.56849e-21 -1.21246e-07 5.28901e-22 1.70546e-11)
(1.17395e-07 -3.82908e-08 -9.15358e-20 -1.1741e-07 -9.75181e-21 1.47243e-11)
(1.13077e-07 -2.786e-08 -1.61398e-20 -1.13087e-07 -1.4339e-21 1.01407e-11)
(1.08323e-07 -1.82596e-08 1.83683e-20 -1.08326e-07 1.80946e-21 2.70125e-12)
(1.03251e-07 -9.71835e-09 -8.85836e-20 -1.03262e-07 -9.50084e-21 1.1373e-11)
(9.79145e-08 -2.41067e-09 3.14755e-20 -9.78941e-08 3.58474e-21 -2.03943e-11)
(9.25441e-08 3.46052e-09 -1.60394e-20 -9.25866e-08 -1.73172e-21 4.25005e-11)
(8.68122e-08 8.63132e-09 1.70775e-20 -8.66472e-08 1.78052e-21 -1.64929e-10)
(8.24565e-08 1.28978e-08 -5.3151e-20 -8.292e-08 -5.8853e-21 4.63498e-10)