/*--------------------------------*- C++ -*----------------------------------*\
| =========                 |                                                 |
| \\      /  F ield         | OpenFOAM: The Open Source CFD Toolbox           |
|  \\    /   O peration     | Version:  2506                                  |
|   \\  /    A nd           | Website:  www.openfoam.com                      |
|    \\/     M anipulation  |                                                 |
\*---------------------------------------------------------------------------*/
FoamFile
{
    version     2.0;
    format      ascii;
    arch        "LSB;label=32;scalar=64";
    class       volVectorField;
    location    "150";
    object      U;
}
// * * * * * * * * * * * * * * * * * * * * * * * * * * * * * * * * * * * * * //

dimensions      [0 1 -1 0 0 0 0];

internalField   nonuniform List<vector> 
1340
(
(26.0348 2.71157 9.81302e-17)
(25.8594 3.24546 1.60408e-17)
(26.0251 2.70963 -5.32883e-17)
(25.943 2.91442 -4.1966e-16)
(25.8632 3.24369 2.62738e-19)
(26.0171 2.70691 -4.41943e-19)
(25.921 3.09172 1.52442e-16)
(25.9376 2.90823 -4.41896e-18)
(25.8655 3.24195 -2.28567e-17)
(26.0103 2.70362 2.48637e-16)
(25.9607 3.02149 5.17512e-16)
(25.9511 2.97027 2.9347e-16)
(25.919 3.08819 -7.0276e-17)
(25.932 2.90225 1.49325e-16)
(25.8673 3.24005 1.01851e-16)
(26.0034 2.70011 -2.49189e-16)
(25.9936 2.97754 -8.98146e-17)
(25.9775 2.97137 2.3824e-17)
(25.9555 3.01626 -7.54348e-18)
(25.9455 2.9638 -3.39038e-18)
(25.9166 3.08451 -5.0544e-17)
(25.9261 2.89656 9.85709e-18)
(25.8687 3.23791 4.05372e-19)
(25.9961 2.69644 -4.74899e-19)
(26.0358 2.92356 2.46114e-16)
(26.0194 2.93999 3.01348e-16)
(26.0034 2.94859 3.58774e-16)
(25.9855 2.9713 1.37903e-16)
(25.9702 2.96474 -1.47427e-17)
(25.9499 3.01106 -2.22051e-16)
(25.9396 2.95758 -4.97086e-17)
(25.9139 3.08069 1.13813e-16)
(25.92 2.89113 -1.43009e-16)
(25.8695 3.23558 -3.35913e-19)
(25.9887 2.69256 -4.83698e-19)
(26.0667 2.87184 6.64877e-17)
(26.0518 2.88898 -3.03182e-16)
(26.0381 2.90379 -3.43072e-17)
(26.0238 2.91688 -1.91988e-16)
(26.0085 2.93351 -4.21941e-18)
(25.9937 2.94198 -7.40298e-18)
(25.9771 2.96529 -1.13444e-16)
(25.9626 2.95838 1.38837e-17)
(25.9439 3.00593 -8.54465e-19)
(25.9333 2.95163 -2.24127e-18)
(25.9107 3.07677 -2.64977e-18)
(25.9138 2.88597 5.74857e-18)
(25.8696 3.23308 -1.01357e-16)
(25.9814 2.6885 -1.341e-16)
(26.1016 2.77589 1.87157e-16)
(26.0905 2.80027 -1.44341e-16)
(26.0781 2.82346 -6.91239e-17)
(26.0646 2.8455 2.33749e-17)
(26.0504 2.86628 -5.5929e-20)
(26.037 2.88312 8.13581e-18)
(26.0245 2.89782 8.82433e-19)
(26.0113 2.91073 2.0656e-16)
(25.9973 2.92746 8.94164e-17)
(25.9836 2.93576 -1.21013e-16)
(25.9683 2.95955 1.11251e-16)
(25.9546 2.95233 -4.36965e-19)
(25.9375 3.0009 1.97014e-16)
(25.9267 2.94598 4.04998e-17)
(25.9071 3.07277 -6.36585e-17)
(25.9074 2.88109 1.41252e-16)
(25.8692 3.23043 8.71438e-17)
(25.9741 2.68431 1.76108e-16)
(26.0965 2.64749 1.69689e-16)
(26.0967 2.67394 2.76817e-17)
(26.0949 2.7 2.69367e-17)
(26.0911 2.72554 3.41073e-17)
(26.0854 2.75043 8.2791e-18)
(26.0779 2.77454 -1.23659e-16)
(26.0687 2.79779 -1.29418e-16)
(26.0581 2.82006 2.29879e-18)
(26.0463 2.84134 -5.65886e-17)
(26.0338 2.86155 -3.40199e-17)
(26.0218 2.878 8.16592e-18)
(26.0106 2.89248 8.89858e-19)
(25.9986 2.90515 -6.49066e-18)
(25.9857 2.92189 -9.78143e-17)
(25.973 2.92998 1.05259e-16)
(25.9591 2.95411 -1.03069e-16)
(25.9462 2.94663 -4.52306e-19)
(25.9308 2.99599 -1.98356e-16)
(25.9198 2.94065 -4.52049e-17)
(25.903 3.06871 5.7559e-17)
(25.9008 2.87649 1.62343e-18)
(25.8682 3.22763 -1.52434e-16)
(25.9667 2.68007 -1.70798e-18)
(25.998 2.49236 2.17317e-17)
(26.0132 2.51434 6.16961e-17)
(26.0266 2.53699 -3.03526e-17)
(26.0382 2.56022 6.02979e-17)
(26.0479 2.5839 2.12727e-17)
(26.0556 2.60792 -8.05034e-17)
(26.0613 2.63215 -8.76922e-18)
(26.065 2.65644 -7.68262e-18)
(26.0667 2.68068 2.61775e-17)
(26.0665 2.70473 1.80149e-17)
(26.0644 2.72846 -8.98379e-18)
(26.0604 2.75174 -3.35013e-19)
(26.0546 2.77443 -2.32915e-18)
(26.0471 2.79647 2.88667e-17)
(26.0382 2.81771 2.25311e-18)
(26.0281 2.83813 5.10639e-17)
(26.0171 2.85766 3.37926e-17)
(26.0065 2.87362 8.14644e-18)
(25.9964 2.88783 8.9211e-19)
(25.9855 2.90018 -1.85428e-16)
(25.9738 2.91683 -5.03709e-17)
(25.9622 2.92468 -1.81813e-16)
(25.9495 2.94902 1.00769e-16)
(25.9374 2.94131 -4.66185e-19)
(25.9236 2.99125 1.28111e-16)
(25.9126 2.93567 -1.1702e-16)
(25.8985 3.06463 -1.46235e-16)
(25.8941 2.87221 1.6915e-18)
(25.8666 3.2247 2.8287e-18)
(25.9593 2.67583 -4.23754e-17)
(25.6831 2.35295 -1.07862e-19)
(25.7121 2.36257 -3.07589e-19)
(25.7402 2.37288 -4.29242e-19)
(25.7674 2.38392 -1.33273e-17)
(25.7936 2.39573 -8.03459e-18)
(25.8188 2.40835 -1.71584e-17)
(25.8431 2.42181 -6.11047e-18)
(25.8663 2.43612 -1.31355e-17)
(25.8883 2.4513 9.06472e-18)
(25.9092 2.46733 5.93224e-17)
(25.9288 2.48422 -1.70446e-17)
(25.9471 2.50194 1.92768e-17)
(25.9639 2.52045 -4.63124e-18)
(25.9791 2.53971 -3.86472e-18)
(25.9928 2.55964 1.83112e-18)
(26.0049 2.58019 -3.5064e-18)
(26.0152 2.60126 -1.1915e-18)
(26.0237 2.62275 4.34074e-18)
(26.0304 2.64455 3.85888e-17)
(26.0352 2.66656 -8.69507e-17)
(26.0382 2.68865 4.94751e-18)
(26.0393 2.71072 -2.02332e-17)
(26.0386 2.73262 -8.49024e-18)
(26.0361 2.75426 6.96346e-19)
(26.0319 2.77549 9.11667e-17)
(26.0259 2.79624 9.90471e-17)
(26.0185 2.81637 -6.35753e-17)
(26.0099 2.83584 4.91752e-17)
(26.0004 2.85461 -2.93605e-17)
(25.9911 2.87001 8.07859e-18)
(25.9821 2.88386 8.89251e-19)
(25.9722 2.89583 6.72636e-17)
(25.9617 2.9123 1.19444e-16)
(25.951 2.91988 1.65234e-16)
(25.9396 2.9443 -4.24889e-17)
(25.9283 2.93641 -2.30841e-17)
(25.9161 2.9867 -1.05403e-16)
(25.9051 2.93107 -6.92747e-17)
(25.8936 3.06055 2.61157e-18)
(25.8871 2.86826 1.75921e-18)
(25.8645 3.22167 3.31162e-18)
(25.9517 2.67168 3.87561e-17)
(26.0634 2.40162 -8.97267e-19)
(26.067 2.40128 2.09049e-19)
(26.0522 2.4001 5.09814e-19)
(26.0085 2.39783 -3.87632e-19)
(25.9288 2.39408 -3.97928e-19)
(25.8095 2.38831 9.68117e-19)
(25.6493 2.3801 5.49786e-19)
(25.4488 2.36907 -5.13065e-19)
(25.2104 2.3548 1.25818e-19)
(24.938 2.33688 9.09922e-19)
(24.6377 2.31491 1.48511e-19)
(24.3182 2.28866 4.53425e-19)
(23.9929 2.25837 -5.83099e-19)
(23.6822 2.22518 -2.14531e-18)
(23.4165 2.19168 7.22048e-19)
(23.2366 2.16238 4.99507e-18)
(23.1888 2.14346 7.43343e-19)
(23.3107 2.14135 -1.03332e-18)
(23.6079 2.15981 2.97291e-19)
(24.0352 2.19668 2.7845e-18)
(24.4943 2.24268 -1.63141e-18)
(24.8646 2.28374 6.03626e-18)
(25.0778 2.30955 -9.21913e-18)
(25.1581 2.32009 9.78681e-18)
(25.1829 2.323 6.07703e-18)
(25.2101 2.32535 1.06442e-18)
(25.2537 2.3298 1.46779e-18)
(25.3038 2.33576 1.1749e-17)
(25.3504 2.34196 -8.35164e-19)
(25.3917 2.34788 3.22142e-18)
(25.4297 2.35369 -6.4946e-18)
(25.4663 2.35968 -8.41448e-18)
(25.5017 2.36594 6.90932e-19)
(25.5356 2.37245 -2.70795e-18)
(25.5682 2.37924 4.60747e-18)
(25.5996 2.38638 -1.05484e-18)
(25.6299 2.39393 -1.83727e-18)
(25.6593 2.40196 -6.40951e-19)
(25.6876 2.41049 -3.61254e-19)
(25.715 2.41956 -1.62881e-19)
(25.7414 2.42923 1.47554e-18)
(25.7668 2.43953 8.4069e-19)
(25.7913 2.4505 6.37887e-19)
(25.8148 2.46217 5.33487e-19)
(25.8373 2.47457 1.40396e-18)
(25.8588 2.48772 1.06267e-17)
(25.8791 2.50162 -4.40217e-18)
(25.8983 2.51628 -4.33399e-17)
(25.9162 2.5317 -1.31881e-18)
(25.9329 2.54785 -1.66112e-17)
(25.9481 2.5647 1.62188e-19)
(25.962 2.58222 -2.38208e-17)
(25.9743 2.60036 -3.10812e-18)
(25.985 2.61904 -1.0652e-18)
(25.9942 2.6382 3.91356e-18)
(26.0016 2.65775 -3.74795e-17)
(26.0072 2.67759 7.97949e-17)
(26.0112 2.69763 -2.29119e-17)
(26.0134 2.71776 -1.04309e-18)
(26.0139 2.73787 -7.97375e-18)
(26.0127 2.75786 4.82524e-17)
(26.0097 2.77761 -1.03724e-17)
(26.0052 2.79703 -1.61891e-17)
(25.9992 2.816 7.43349e-18)
(25.9919 2.83445 -6.52694e-18)
(25.9838 2.85238 2.91398e-17)
(25.9756 2.86716 6.76158e-17)
(25.9676 2.88058 3.94514e-17)
(25.9588 2.89213 -1.85406e-17)
(25.9493 2.90834 -9.71301e-17)
(25.9396 2.91561 -8.51194e-17)
(25.9294 2.93998 1.35532e-18)
(25.9189 2.93195 9.74876e-17)
(25.9082 2.98237 -2.31082e-18)
(25.8972 2.92687 7.43029e-17)
(25.8882 3.0565 -3.53731e-17)
(25.8799 2.86469 1.82932e-18)
(25.8619 3.21856 6.42428e-17)
(25.944 2.66769 -3.97801e-17)
(26.0906 2.45224 4.77519e-20)
(26.0992 2.452 1.32367e-18)
(26.1035 2.45129 5.35711e-19)
(26.0939 2.44981 -2.99509e-19)
(26.0582 2.4471 -2.74112e-19)
(25.9875 2.44246 -3.50633e-20)
(25.8769 2.43531 -3.02747e-20)
(25.7249 2.42529 6.05281e-19)
(25.5325 2.41221 -4.10829e-19)
(25.3033 2.39596 9.16721e-19)
(25.0424 2.37651 -2.87745e-19)
(24.7575 2.35392 -2.21721e-20)
(24.4582 2.32842 1.03679e-18)
(24.1574 2.3005 1.11104e-19)
(23.8722 2.27117 -9.65332e-19)
(23.6264 2.24234 -2.83814e-19)
(23.4506 2.21719 -1.18166e-18)
(23.3809 2.20021 1.58501e-18)
(23.4499 2.19654 1.0641e-18)
(23.6716 2.21006 6.99335e-19)
(24.023 2.24079 2.95568e-18)
(24.434 2.28253 -6.29006e-18)
(24.8048 2.32412 6.61037e-18)
(25.0542 2.35457 -7.77089e-18)
(25.1694 2.3698 -1.58266e-19)
(25.2071 2.37481 -6.88917e-20)
(25.2309 2.37726 -2.81413e-18)
(25.2684 2.38133 -4.66778e-18)
(25.3162 2.38734 4.13255e-19)
(25.3632 2.394 -1.01981e-18)
(25.4048 2.40035 5.91486e-19)
(25.4424 2.40636 4.44547e-18)
(25.478 2.41237 -1.72637e-20)
(25.5123 2.4186 4.48717e-18)
(25.5454 2.42507 -3.47958e-18)
(25.5769 2.43177 7.0433e-19)
(25.6071 2.43876 -1.19409e-19)
(25.6362 2.44609 1.2976e-18)
(25.6643 2.45381 2.1925e-19)
(25.6913 2.46195 -4.17062e-19)
(25.7172 2.47056 7.5869e-19)
(25.7421 2.47967 6.6564e-19)
(25.7661 2.48932 -4.32921e-18)
(25.789 2.49955 4.33731e-19)
(25.811 2.51038 5.62359e-19)
(25.832 2.52185 -8.97747e-18)
(25.8519 2.53397 -3.69005e-18)
(25.8706 2.54675 3.9447e-18)
(25.8883 2.56019 -2.23735e-17)
(25.9047 2.57431 9.0481e-18)
(25.9199 2.58907 -3.414e-18)
(25.9337 2.60445 2.66199e-17)
(25.9462 2.62044 -2.74255e-18)
(25.9572 2.63697 -9.47628e-19)
(25.9667 2.65401 -2.38683e-17)
(25.9747 2.67147 -3.47198e-18)
(25.981 2.68929 -1.27735e-17)
(25.9857 2.70738 1.23517e-17)
(25.9888 2.72566 3.4036e-17)
(25.9903 2.74403 -1.14606e-16)
(25.9902 2.76241 -4.95949e-17)
(25.9884 2.78067 -8.63427e-17)
(25.985 2.79874 -8.86593e-17)
(25.9802 2.81652 7.6814e-17)
(25.9742 2.83391 -1.02423e-16)
(25.9673 2.85095 2.47635e-17)
(25.9602 2.86504 3.34057e-18)
(25.9531 2.87799 -2.14036e-17)
(25.9453 2.88907 1.78748e-17)
(25.9368 2.90493 -7.12076e-17)
(25.928 2.91188 -5.39556e-17)
(25.919 2.93607 1.37046e-18)
(25.9092 2.92796 -6.60818e-17)
(25.9 2.97828 -2.36888e-18)
(25.8891 2.9231 2.00299e-16)
(25.8824 3.0525 4.08997e-17)
(25.8725 2.86152 1.35372e-16)
(25.8589 3.21536 -5.96641e-17)
(25.9362 2.66393 3.59078e-17)
(26.1186 2.49701 3.97041e-20)
(26.1262 2.49682 -7.30385e-20)
(26.1334 2.49645 -3.88243e-19)
(26.14 2.49573 6.74212e-19)
(26.139 2.49445 1.67675e-19)
(26.1178 2.49197 -4.58794e-19)
(26.0643 2.48753 2.16006e-19)
(25.9709 2.48047 -1.64409e-21)
(25.8343 2.47028 1.35901e-20)
(25.6548 2.45669 -8.73289e-20)
(25.4354 2.43963 2.28641e-20)
(25.1818 2.41926 4.5362e-19)
(24.9023 2.39588 -2.11693e-20)
(24.6079 2.37002 9.16509e-20)
(24.3123 2.34248 6.87101e-19)
(24.0323 2.31442 -1.69983e-19)
(23.7894 2.28758 5.3133e-19)
(23.6092 2.26452 8.72961e-19)
(23.5215 2.24875 -5.25132e-20)
(23.5537 2.24436 -7.95595e-19)
(23.7213 2.25482 -1.02939e-18)
(24.0126 2.28092 4.53405e-18)
(24.3793 2.31891 -4.96354e-18)
(24.741 2.36007 2.97787e-19)
(25.0152 2.39371 -1.59335e-18)
(25.1664 2.41358 -5.8948e-20)
(25.2242 2.42154 -5.44577e-19)
(25.2493 2.42464 -6.56068e-20)
(25.2814 2.42841 -2.20997e-18)
(25.3261 2.43434 -3.65188e-21)
(25.3732 2.44131 1.75736e-19)
(25.4156 2.44803 -1.16787e-19)
(25.4528 2.45417 -7.42297e-19)
(25.4875 2.46009 -5.81626e-18)
(25.521 2.46619 3.33409e-18)
(25.5533 2.47257 -7.11783e-19)
(25.5841 2.47919 -7.36816e-20)
(25.6134 2.48604 -2.4218e-19)
(25.6415 2.49315 -2.56818e-19)
(25.6684 2.50056 1.26477e-19)
(25.6942 2.50833 1.04132e-18)
(25.7189 2.51649 -1.04759e-18)
(25.7426 2.52508 4.52926e-18)
(25.7652 2.53413 1.33348e-18)
(25.7868 2.54367 7.27421e-19)
(25.8074 2.55375 -6.65153e-19)
(25.827 2.56437 -3.08941e-18)
(25.8454 2.57555 3.33116e-18)
(25.8628 2.58732 2.006e-17)
(25.8791 2.59967 -2.74652e-17)
(25.8941 2.61261 -5.50475e-18)
(25.9079 2.62613 1.22842e-18)
(25.9204 2.6402 -2.41122e-18)
(25.9316 2.65482 -8.39725e-19)
(25.9414 2.66992 3.0304e-17)
(25.9497 2.68548 4.15478e-18)
(25.9565 2.70142 -7.05032e-18)
(25.9618 2.71769 -3.33496e-17)
(25.9656 2.73422 -1.68346e-17)
(25.9679 2.75093 1.39881e-16)
(25.9686 2.76774 2.43819e-17)
(25.9678 2.78455 -3.05617e-17)
(25.9655 2.80128 1.48409e-16)
(25.9617 2.81786 -4.90282e-17)
(25.9568 2.83416 2.72938e-17)
(25.9509 2.85026 -2.90136e-17)
(25.9448 2.86364 8.38862e-17)
(25.9387 2.87606 -2.99593e-17)
(25.9317 2.88665 -1.4554e-17)
(25.9241 2.90209 -1.17759e-17)
(25.9162 2.90871 5.52998e-17)
(25.9083 2.9326 1.37958e-18)
(25.8992 2.92445 5.58363e-17)
(25.8915 2.97447 -2.41519e-18)
(25.8806 2.9198 -2.54455e-16)
(25.8763 3.04857 2.95594e-18)
(25.8648 2.85882 -1.3115e-16)
(25.8555 3.21209 7.59364e-17)
(25.9279 2.6605 -2.06643e-18)
(26.1457 2.53775 3.31403e-20)
(26.1527 2.53758 -6.11472e-20)
(26.1579 2.53723 1.08839e-18)
(26.1642 2.53669 -8.10549e-19)
(26.1721 2.53609 4.93054e-20)
(26.1776 2.53524 4.62447e-19)
(26.1705 2.53353 -1.12626e-18)
(26.1372 2.53013 -3.04094e-21)
(26.0663 2.52417 1.39042e-20)
(25.9513 2.51493 -8.61847e-20)
(25.7902 2.50196 2.18492e-20)
(25.5846 2.48507 -5.17384e-19)
(25.3398 2.46439 2.70189e-20)
(25.064 2.44032 6.77561e-19)
(24.7689 2.41358 1.06582e-18)
(24.4692 2.38519 -1.48409e-19)
(24.1829 2.35654 4.5337e-19)
(23.9308 2.32949 -9.92269e-19)
(23.7375 2.30647 4.274e-19)
(23.6291 2.29055 -7.26545e-20)
(23.6302 2.28521 -1.17207e-18)
(23.7559 2.2935 1.44286e-19)
(24.0008 2.31655 2.57441e-19)
(24.3301 2.35192 4.6726e-18)
(24.679 2.3927 2.44269e-18)
(24.9711 2.42935 8.7983e-19)
(25.1552 2.45403 6.17966e-19)
(25.2362 2.46557 -6.14147e-20)
(25.2659 2.46957 1.54655e-18)
(25.2926 2.47256 7.487e-19)
(25.3329 2.47752 1.67061e-19)
(25.38 2.48415 -3.33343e-18)
(25.4241 2.4911 6.90969e-19)
(25.4622 2.49753 5.41037e-18)
(25.4963 2.50353 8.20697e-19)
(25.5287 2.50952 6.96818e-19)
(25.5602 2.51573 -3.2403e-20)
(25.5903 2.5222 5.03821e-19)
(25.619 2.52887 -3.78655e-19)
(25.6462 2.53573 9.25352e-20)
(25.6721 2.54283 7.89467e-19)
(25.6969 2.55021 1.95955e-18)
(25.7205 2.55793 -1.23377e-18)
(25.743 2.56601 -6.83366e-19)
(25.7645 2.57449 7.56257e-19)
(25.7848 2.5834 3.84681e-18)
(25.8042 2.59276 -2.56425e-18)
(25.8224 2.6026 4.50164e-18)
(25.8396 2.61293 3.58948e-18)
(25.8557 2.62378 1.41754e-17)
(25.8706 2.63514 -5.74155e-18)
(25.8843 2.64703 7.93145e-18)
(25.8968 2.65943 -8.03772e-18)
(25.908 2.67233 -7.39397e-19)
(25.918 2.68571 4.94597e-17)
(25.9266 2.69953 -2.20923e-17)
(25.9338 2.71377 1.49676e-18)
(25.9395 2.72836 5.19718e-17)
(25.9438 2.74325 -2.61467e-17)
(25.9467 2.75838 -2.59163e-17)
(25.9482 2.7737 -9.37495e-17)
(25.9482 2.7891 1.09207e-18)
(25.9467 2.80453 -9.07578e-18)
(25.9439 2.8199 1.56038e-17)
(25.9398 2.83512 1.16197e-17)
(25.9349 2.85027 2.47622e-17)
(25.9297 2.86291 -7.69881e-17)
(25.9244 2.87477 -5.31156e-18)
(25.9181 2.88484 -1.35512e-17)
(25.9114 2.8998 7.19547e-17)
(25.9043 2.90608 -1.10312e-17)
(25.8974 2.92955 1.38108e-18)
(25.889 2.92144 -5.13546e-18)
(25.8827 2.97091 2.27291e-17)
(25.8719 2.91701 1.59479e-16)
(25.8699 3.04468 7.30309e-17)
(25.8567 2.85666 2.13578e-18)
(25.8519 3.20869 4.05181e-17)
(25.9192 2.65754 -6.88936e-17)
(26.1694 2.57555 2.81621e-20)
(26.1762 2.57561 -5.20083e-20)
(26.1809 2.5755 -3.21429e-20)
(26.1852 2.57516 9.58402e-19)
(26.1906 2.57477 4.3425e-20)
(26.1982 2.57445 -4.51153e-19)
(26.2068 2.57411 1.11879e-18)
(26.2102 2.57335 -3.27245e-21)
(26.1966 2.57137 1.52643e-20)
(26.1518 2.56725 -9.33163e-20)
(26.0649 2.56016 2.29399e-20)
(25.9299 2.54942 4.30147e-19)
(25.7456 2.53455 -6.85571e-20)
(25.5153 2.51539 -4.13322e-19)
(25.2463 2.49221 -9.52977e-19)
(24.9503 2.46565 -1.3232e-19)
(24.6424 2.43678 -3.95551e-19)
(24.3416 2.4071 8.4782e-19)
(24.0699 2.37856 -4.82992e-19)
(23.8522 2.35362 -5.74883e-20)
(23.7143 2.33522 -4.99746e-19)
(23.6801 2.32658 -9.18599e-19)
(23.7656 2.33057 1.78614e-18)
(23.9697 2.34863 -3.07004e-18)
(24.2671 2.3794 -2.89565e-18)
(24.6051 2.41786 -7.16537e-19)
(24.9138 2.45596 -3.72791e-19)
(25.1329 2.48551 -5.24732e-20)
(25.2469 2.50295 -2.62409e-18)
(25.2894 2.51091 -9.48728e-19)
(25.311 2.51491 1.77587e-18)
(25.3417 2.51898 5.79195e-18)
(25.3841 2.5243 -2.28016e-20)
(25.4288 2.53051 -3.79421e-18)
(25.469 2.53697 -5.24625e-18)
(25.504 2.54329 -6.64027e-19)
(25.536 2.54944 6.98219e-19)
(25.5664 2.55556 -9.17687e-19)
(25.5957 2.56175 6.93671e-19)
(25.6236 2.56811 -5.39969e-20)
(25.6501 2.57465 6.088e-19)
(25.6752 2.5814 1.41669e-18)
(25.699 2.58839 2.44873e-18)
(25.7216 2.59564 -2.56832e-18)
(25.7431 2.60321 3.95748e-18)
(25.7634 2.61113 -5.74155e-18)
(25.7827 2.6194 -1.84247e-17)
(25.8008 2.62808 3.1961e-18)
(25.8179 2.63717 -5.0677e-18)
(25.8338 2.6467 -1.01554e-18)
(25.8486 2.65669 4.76837e-18)
(25.8623 2.66713 -5.87369e-18)
(25.8748 2.67804 -1.09599e-17)
(25.8861 2.68942 -6.54064e-19)
(25.8961 2.70124 3.71823e-19)
(25.9049 2.7135 3.08888e-18)
(25.9123 2.72617 -4.94869e-18)
(25.9184 2.73921 -4.36404e-17)
(25.9232 2.75258 -3.62345e-18)
(25.9266 2.76624 5.22235e-18)
(25.9286 2.78014 8.97475e-17)
(25.9292 2.7942 1.02438e-18)
(25.9285 2.80836 -3.78332e-18)
(25.9264 2.82257 6.94964e-17)
(25.9232 2.83671 -3.24364e-17)
(25.9192 2.8509 -1.96037e-18)
(25.9147 2.8628 3.07666e-18)
(25.9101 2.87408 9.32401e-18)
(25.9046 2.88363 1.66199e-17)
(25.8987 2.89805 -3.39079e-18)
(25.8922 2.90402 -3.16668e-18)
(25.8863 2.92695 -2.43252e-17)
(25.8785 2.91899 -1.49211e-16)
(25.8737 2.96762 -5.07967e-17)
(25.8625 2.91481 -4.02688e-18)
(25.8634 3.04086 -3.72688e-17)
(25.8479 2.85512 2.32412e-18)
(25.8485 3.20529 -1.04412e-16)
(25.9094 2.65481 9.9581e-19)
(26.1901 2.62262 2.61419e-19)
(26.1965 2.62259 -2.53478e-19)
(26.2012 2.62249 -2.29912e-19)
(26.2054 2.62229 -1.11969e-19)
(26.2095 2.62208 6.80925e-19)
(26.2142 2.6219 4.83466e-19)
(26.2202 2.62179 -4.26294e-19)
(26.228 2.62174 -2.3014e-19)
(26.2358 2.62161 9.47943e-19)
(26.2376 2.62093 -2.82521e-19)
(26.2231 2.61899 6.96525e-20)
(26.1791 2.61485 -4.8278e-19)
(26.0935 2.60766 6.77685e-20)
(25.9586 2.59663 3.93799e-19)
(25.7721 2.5812 -2.31091e-19)
(25.5368 2.56116 -1.33568e-18)
(25.2611 2.53678 -3.67744e-19)
(24.9582 2.50886 1.49008e-19)
(24.646 2.47874 -3.44455e-19)
(24.3466 2.44827 -2.09759e-19)
(24.0851 2.41986 2.64694e-19)
(23.8883 2.39639 -5.032e-19)
(23.7821 2.38103 -9.66845e-19)
(23.786 2.3768 -5.55309e-19)
(23.9076 2.38577 8.13181e-19)
(24.1347 2.40801 -9.65597e-19)
(24.4318 2.44068 7.73822e-19)
(24.7436 2.47789 -1.05284e-18)
(25.0108 2.51231 2.10635e-18)
(25.1933 2.53793 -2.29555e-19)
(25.2897 2.55303 2.62415e-18)
(25.3314 2.5604 -3.34144e-18)
(25.3564 2.5645 9.23718e-19)
(25.3864 2.56858 2.33233e-18)
(25.4247 2.57376 3.87007e-18)
(25.4654 2.57985 -1.3999e-18)
(25.5034 2.58622 -5.7451e-19)
(25.5371 2.5924 3.32177e-20)
(25.5677 2.5983 -1.98811e-19)
(25.5963 2.60412 -6.86973e-19)
(25.6235 2.61003 5.09183e-20)
(25.6494 2.61611 -5.59668e-19)
(25.6739 2.62236 4.9821e-19)
(25.697 2.62878 1.67352e-18)
(25.7187 2.63541 -1.20804e-18)
(25.7393 2.64227 -1.67575e-18)
(25.7586 2.64942 5.28657e-18)
(25.7768 2.65688 3.00271e-18)
(25.7939 2.66466 -3.17549e-18)
(25.8098 2.67281 -7.50294e-18)
(25.8246 2.68133 -2.25525e-17)
(25.8382 2.69023 1.64815e-18)
(25.8507 2.69954 1.18801e-17)
(25.8621 2.70927 -1.60286e-17)
(25.8722 2.71941 -2.09618e-17)
(25.8812 2.72996 1.41001e-17)
(25.8889 2.7409 -5.38097e-18)
(25.8953 2.75223 7.41099e-18)
(25.9005 2.7639 -9.17679e-18)
(25.9044 2.77591 -7.5735e-17)
(25.907 2.7882 1.16017e-17)
(25.9083 2.80073 4.64027e-17)
(25.9083 2.81345 -1.69086e-17)
(25.9071 2.82631 -3.77983e-18)
(25.9048 2.83921 2.25291e-17)
(25.9016 2.85228 -2.24381e-17)
(25.898 2.86333 -4.62107e-18)
(25.8942 2.87389 5.26107e-17)
(25.8894 2.88288 3.17958e-18)
(25.8844 2.89659 -1.24349e-17)
(25.8787 2.90231 1.23669e-17)
(25.874 2.92439 5.31183e-17)
(25.8667 2.91691 3.85288e-17)
(25.8637 2.96414 4.11571e-17)
(25.8524 2.91317 -8.26422e-17)
(25.856 3.03655 -3.88735e-17)
(25.8388 2.85453 3.09582e-18)
(25.8442 3.20089 6.47348e-17)
(25.9001 2.65353 -1.5937e-17)
(26.205 2.67337 7.96407e-20)
(26.211 2.67337 1.25985e-20)
(26.2158 2.67338 1.22391e-19)
(26.2203 2.67341 -1.66819e-19)
(26.2248 2.67342 -6.84485e-19)
(26.2292 2.67334 -5.27004e-19)
(26.2337 2.67321 -7.06433e-20)
(26.2388 2.67309 1.57625e-19)
(26.2455 2.67305 -1.10276e-18)
(26.2543 2.67304 1.08769e-19)
(26.2643 2.67289 6.66434e-20)
(26.2713 2.67222 -1.6383e-19)
(26.2666 2.67041 -5.37093e-19)
(26.2375 2.6666 -8.87428e-20)
(26.1701 2.65979 9.71072e-20)
(26.053 2.64905 5.41451e-19)
(25.8803 2.63367 1.22161e-19)
(25.6528 2.61334 -6.84855e-19)
(25.3783 2.5883 4.78226e-19)
(25.0706 2.55945 1.12416e-19)
(24.7494 2.52834 2.23378e-19)
(24.4391 2.49716 7.02612e-19)
(24.1677 2.46864 1.63484e-18)
(23.9644 2.44596 1.33759e-18)
(23.8559 2.43236 -6.02304e-20)
(23.8612 2.43059 -3.59313e-19)
(23.9847 2.44209 2.30217e-19)
(24.2103 2.46601 3.23733e-19)
(24.4998 2.49879 1.35169e-18)
(24.7988 2.5345 2.29669e-18)
(25.0528 2.56658 -3.95573e-18)
(25.2277 2.59024 5.30836e-19)
(25.3231 2.60441 5.75127e-19)
(25.3662 2.61156 -1.56276e-18)
(25.391 2.61552 -2.48093e-18)
(25.419 2.61926 2.09362e-18)
(25.4549 2.62407 1.19841e-19)
(25.4939 2.62985 2.92424e-20)
(25.5306 2.63592 -9.30366e-20)
(25.563 2.64173 7.49378e-19)
(25.5919 2.6472 -1.86408e-19)
(25.6187 2.65256 6.12683e-20)
(25.6442 2.65799 1.18539e-19)
(25.6683 2.66358 1.61287e-18)
(25.6909 2.66932 1.3393e-18)
(25.7121 2.67521 4.38124e-19)
(25.7318 2.68126 7.05915e-19)
(25.7503 2.68752 4.95538e-18)
(25.7676 2.69402 2.79901e-18)
(25.7837 2.7008 -3.01677e-18)
(25.7987 2.70786 3.45159e-18)
(25.8124 2.71524 -4.10551e-18)
(25.825 2.72296 -6.82499e-19)
(25.8365 2.73103 1.3322e-17)
(25.8468 2.73946 2.7234e-19)
(25.8559 2.74827 1.04592e-17)
(25.8639 2.75745 -4.48693e-17)
(25.8707 2.767 -2.24506e-17)
(25.8762 2.77691 1.29408e-17)
(25.8806 2.78718 1.49336e-17)
(25.8838 2.79778 -2.77906e-17)
(25.8858 2.80868 2.62876e-18)
(25.8866 2.81983 -5.15095e-17)
(25.8862 2.83123 -6.60872e-18)
(25.8847 2.84277 2.99787e-17)
(25.8825 2.85459 1.60261e-17)
(25.8797 2.86469 3.69364e-17)
(25.8767 2.87446 -2.70212e-17)
(25.8728 2.88281 3.72806e-17)
(25.8687 2.8957 -1.0646e-17)
(25.8639 2.90115 -6.38849e-17)
(25.8602 2.92224 -3.34357e-17)
(25.854 2.91529 6.55359e-17)
(25.8522 2.96092 -5.20681e-17)
(25.8418 2.91199 7.32002e-17)
(25.847 3.03244 1.20816e-16)
(25.8302 2.85449 8.11396e-17)
(25.8379 3.19685 -5.14858e-17)
(25.8929 2.65292 1.34633e-16)
(26.215 2.7198 -1.96007e-19)
(26.2214 2.71981 -5.04607e-20)
(26.2268 2.71973 7.72691e-20)
(26.232 2.71973 1.99776e-19)
(26.2372 2.71975 3.80394e-19)
(26.2425 2.7197 2.34068e-19)
(26.2476 2.71956 2.65566e-19)
(26.2527 2.71934 1.06236e-19)
(26.2579 2.71913 3.80356e-19)
(26.2638 2.71895 -6.88345e-19)
(26.2715 2.71882 3.20118e-20)
(26.2817 2.71871 -1.18654e-19)
(26.2941 2.71853 5.34704e-19)
(26.3057 2.71804 2.21525e-19)
(26.3091 2.71667 -1.90816e-19)
(26.2922 2.7135 2.94518e-19)
(26.2392 2.7074 8.39474e-19)
(26.1353 2.69719 -1.61719e-19)
(25.9713 2.68199 -1.72945e-19)
(25.746 2.66137 -5.56142e-19)
(25.4668 2.6355 -2.61948e-20)
(25.1491 2.60536 -3.16051e-19)
(24.815 2.57273 -3.07553e-19)
(24.4922 2.54012 -3.3168e-19)
(24.2119 2.51065 -7.35148e-19)
(24.0063 2.4878 1.33297e-18)
(23.9031 2.47499 -7.93067e-20)
(23.9202 2.47487 -2.34133e-20)
(24.0578 2.48843 -2.26082e-18)
(24.2941 2.51422 -1.64081e-18)
(24.586 2.54805 4.21627e-19)
(24.8782 2.58372 4.4395e-19)
(25.1193 2.61481 -2.13124e-18)
(25.2801 2.63689 -7.86754e-19)
(25.3642 2.64934 2.84267e-19)
(25.4005 2.65503 1.62062e-19)
(25.4226 2.65814 8.488e-19)
(25.4503 2.66168 2.58816e-19)
(25.4863 2.66659 7.49091e-20)
(25.5244 2.67233 -3.24455e-19)
(25.5592 2.67802 -1.08324e-19)
(25.5892 2.68326 2.33214e-19)
(25.616 2.68818 -5.29101e-20)
(25.6409 2.69309 -1.23766e-19)
(25.6646 2.69814 -1.33082e-18)
(25.6868 2.70332 1.34625e-18)
(25.7074 2.70859 3.14199e-19)
(25.7265 2.71396 8.50163e-20)
(25.7442 2.71949 -1.20111e-18)
(25.7606 2.72521 1.00514e-17)
(25.7758 2.73115 9.12615e-18)
(25.7898 2.73734 8.15043e-18)
(25.8025 2.74379 -6.63127e-18)
(25.8141 2.75054 6.64068e-18)
(25.8245 2.7576 -5.15156e-18)
(25.8338 2.76498 6.15727e-18)
(25.8419 2.77271 2.80287e-17)
(25.8488 2.78078 4.54813e-17)
(25.8546 2.78921 9.95752e-19)
(25.8593 2.79799 -9.12077e-18)
(25.8629 2.80712 1.92689e-18)
(25.8653 2.81659 -5.43864e-17)
(25.8666 2.82637 3.33271e-17)
(25.8668 2.83645 -1.66954e-18)
(25.866 2.84675 -2.21428e-17)
(25.8644 2.85742 -1.07088e-17)
(25.8623 2.86662 1.77808e-17)
(25.8599 2.87562 -1.01878e-17)
(25.8568 2.88336 -1.23736e-17)
(25.8534 2.89545 -6.51972e-19)
(25.8493 2.90061 -5.86419e-18)
(25.8465 2.92071 8.72298e-18)
(25.8412 2.91426 -1.75966e-17)
(25.8404 2.9583 2.98751e-18)
(25.831 2.91134 5.05822e-18)
(25.8372 3.02891 -6.62734e-17)
(25.8217 2.85496 -1.35187e-16)
(25.8306 3.19361 4.15129e-17)
(25.8859 2.65327 -7.71949e-17)
(26.2313 2.76107 -3.19187e-20)
(26.2385 2.76067 -1.58653e-19)
(26.2449 2.76041 1.7521e-20)
(26.2511 2.7603 -6.70369e-20)
(26.2573 2.76015 1.51122e-20)
(26.2635 2.75989 -2.96015e-19)
(26.2696 2.75955 6.18721e-21)
(26.2755 2.75919 5.26564e-20)
(26.2813 2.75882 2.69886e-19)
(26.2871 2.75845 2.71494e-20)
(26.2936 2.75806 3.41318e-19)
(26.3017 2.75771 -4.43384e-19)
(26.3125 2.75747 -1.49843e-19)
(26.3262 2.75728 1.71751e-19)
(26.3408 2.75693 -1.94453e-19)
(26.35 2.75587 -3.81039e-19)
(26.3417 2.75316 5.98201e-19)
(26.2987 2.74753 -5.51256e-19)
(26.2032 2.73759 4.07021e-19)
(26.0425 2.72223 8.30149e-20)
(25.8139 2.70085 8.61073e-20)
(25.5252 2.67363 -3.84093e-19)
(25.1939 2.64171 1.17531e-19)
(24.8455 2.60715 8.71323e-19)
(24.5116 2.5729 -2.30815e-19)
(24.2272 2.54253 -6.66656e-19)
(24.0268 2.51988 2.86859e-19)
(23.9386 2.50857 1.59929e-19)
(23.9776 2.51107 -5.36206e-19)
(24.1384 2.52785 8.95664e-19)
(24.3925 2.55655 -7.19621e-19)
(24.6913 2.59215 9.91803e-19)
(24.9772 2.62788 8.16316e-19)
(25.2012 2.65729 -3.92671e-19)
(25.3403 2.67666 -5.60618e-19)
(25.4057 2.68644 -3.00669e-19)
(25.4321 2.69047 -8.34585e-19)
(25.4525 2.6931 -2.73013e-19)
(25.4821 2.69679 -1.46316e-19)
(25.5191 2.70184 2.08308e-19)
(25.5558 2.70741 -1.81427e-19)
(25.5877 2.71268 -1.66092e-20)
(25.6149 2.71748 -2.12794e-19)
(25.6394 2.72205 -3.83263e-19)
(25.6624 2.72665 -1.93845e-18)
(25.6841 2.73135 -6.4107e-19)
(25.7042 2.73612 3.0965e-19)
(25.7227 2.74096 -1.59196e-19)
(25.7396 2.74591 -5.35693e-18)
(25.7552 2.751 2.19228e-19)
(25.7694 2.75629 -2.52792e-18)
(25.7824 2.76178 -6.61869e-19)
(25.7941 2.7675 -3.99646e-18)
(25.8047 2.77348 3.87554e-18)
(25.814 2.77974 -9.99642e-18)
(25.8223 2.78631 -1.0976e-17)
(25.8293 2.79318 -5.85678e-18)
(25.8353 2.80039 -9.36348e-18)
(25.8401 2.80795 -1.20434e-17)
(25.8439 2.81585 -1.25211e-17)
(25.8466 2.8241 2.7468e-17)
(25.8482 2.83269 -8.4283e-18)
(25.8488 2.84163 -3.91294e-18)
(25.8484 2.85084 3.7408e-18)
(25.8473 2.86049 -1.06111e-18)
(25.8456 2.86887 -1.80455e-17)
(25.8437 2.87716 -1.13189e-17)
(25.8411 2.88435 -2.64061e-17)
(25.8384 2.89567 -3.09464e-17)
(25.8349 2.90059 2.53343e-17)
(25.8327 2.9197 6.41031e-17)
(25.8282 2.91375 -2.02107e-17)
(25.8283 2.95621 2.53955e-19)
(25.82 2.91121 -6.33539e-17)
(25.827 3.02595 4.73438e-19)
(25.8127 2.85604 3.00122e-17)
(25.8227 3.19108 3.47853e-18)
(25.8778 2.65494 -2.14416e-16)
(26.2469 2.79758 4.7622e-20)
(26.2554 2.7976 7.99735e-20)
(26.2628 2.79743 -9.12413e-20)
(26.2699 2.7972 -1.19007e-19)
(26.277 2.79691 -8.2459e-20)
(26.284 2.79657 7.78086e-20)
(26.2909 2.79618 4.23016e-20)
(26.2978 2.79576 -1.37854e-19)
(26.3044 2.7953 -2.22379e-19)
(26.3108 2.7948 1.03552e-19)
(26.3169 2.79424 -1.07149e-19)
(26.3228 2.79364 2.78469e-19)
(26.3292 2.79305 -8.35078e-20)
(26.3371 2.79253 6.14096e-21)
(26.3478 2.79215 -8.30578e-20)
(26.362 2.79188 8.5645e-20)
(26.3785 2.79154 -1.78829e-19)
(26.3915 2.7906 1.8273e-19)
(26.3887 2.7881 -9.1346e-20)
(26.3515 2.7826 -1.83104e-19)
(26.2589 2.77249 5.27102e-20)
(26.0957 2.75641 2.18274e-20)
(25.8578 2.73366 1.17442e-19)
(25.5545 2.70451 -3.3039e-19)
(25.2064 2.67032 -8.23741e-20)
(24.8433 2.63359 5.85029e-19)
(24.5013 2.59777 3.1174e-19)
(24.219 2.56695 2.43633e-19)
(24.0329 2.54535 4.80815e-19)
(23.9702 2.53665 9.8166e-21)
(24.0417 2.54298 8.09565e-19)
(24.2346 2.56396 -3.23074e-19)
(24.5118 2.59615 6.18628e-19)
(24.8177 2.63345 3.62719e-19)
(25.0921 2.66843 5.13122e-19)
(25.2895 2.69483 3.12381e-19)
(25.3981 2.71016 8.46147e-19)
(25.4414 2.71654 1.38907e-19)
(25.4596 2.71882 6.43239e-19)
(25.4816 2.7212 3.71418e-19)
(25.5146 2.72531 -6.7442e-20)
(25.5519 2.73063 1.6924e-20)
(25.5859 2.736 1.81134e-19)
(25.6143 2.74081 3.99093e-20)
(25.6388 2.74519 8.58936e-19)
(25.6613 2.74949 -3.59811e-19)
(25.6824 2.75387 -9.91893e-19)
(25.7019 2.75833 -2.37293e-18)
(25.7197 2.76282 1.12174e-18)
(25.7358 2.76735 -2.69294e-18)
(25.7505 2.772 2.69109e-18)
(25.7638 2.7768 2.30735e-19)
(25.7758 2.78178 -5.84345e-18)
(25.7865 2.78696 -2.15573e-18)
(25.796 2.79238 -5.65422e-18)
(25.8043 2.79805 4.61091e-18)
(25.8115 2.80399 -2.06179e-17)
(25.8175 2.81024 -3.67482e-18)
(25.8224 2.81681 -3.78565e-18)
(25.8263 2.82372 9.56945e-18)
(25.8292 2.83098 -2.11122e-17)
(25.831 2.83858 1.50879e-17)
(25.8318 2.84655 -1.03531e-17)
(25.8317 2.85483 -2.62242e-17)
(25.831 2.86359 -1.52188e-17)
(25.8296 2.87126 1.32926e-17)
(25.8281 2.87892 1.53587e-17)
(25.8259 2.88562 2.58995e-18)
(25.8236 2.89624 3.70343e-17)
(25.8206 2.90096 -1.10751e-18)
(25.8189 2.91914 -4.61282e-17)
(25.8152 2.9137 -2.36656e-17)
(25.8159 2.95462 -1.81312e-17)
(25.8086 2.91159 4.26957e-17)
(25.8163 3.02353 -1.60567e-18)
(25.8032 2.85776 8.74778e-17)
(25.8141 3.18912 -6.6989e-19)
(25.8685 2.65813 2.06153e-16)
(26.2707 2.82651 -2.02065e-20)
(26.2806 2.82606 -8.43076e-20)
(26.2888 2.82569 -8.0194e-23)
(26.2965 2.8254 6.73289e-20)
(26.304 2.82507 -3.1015e-20)
(26.3114 2.82465 5.68979e-20)
(26.3187 2.82414 -1.04825e-19)
(26.3259 2.82358 -7.43649e-20)
(26.3329 2.82301 1.83158e-19)
(26.3398 2.82243 -1.79962e-19)
(26.3464 2.82181 -3.82639e-20)
(26.3526 2.82115 -3.67111e-20)
(26.3584 2.82045 2.40417e-19)