/*--------------------------------*- C++ -*----------------------------------*\
| =========                 |                                                 |
| \\      /  F ield         | OpenFOAM: The Open Source CFD Toolbox           |
|  \\    /   O peration     | Version:  2506                                  |
|   \\  /    A nd           | Website:  www.openfoam.com                      |
|    \\/     M anipulation  |                                                 |
\*---------------------------------------------------------------------------*/
FoamFile
{
    version     2.0;
    format      ascii;
    arch        "LSB;label=32;scalar=64";
    class       volScalarField;
    location    "100";
    object      nut;
}
// * * * * * * * * * * * * * * * * * * * * * * * * * * * * * * * * * * * * * //

dimensions      [0 2 -1 0 0 0 0];

internalField   nonuniform List<scalar> 
10720
(
1.94575e-05
2.23557e-05
2.62561e-05
3.13567e-05
3.80536e-05
4.68468e-05
5.84427e-05
7.32486e-05
9.21479e-05
0.000115943
0.000145908
0.000184535
0.000235893
0.000306246
0.000405319
0.000551287
0.000772156
0.0011322
0.0017118
0.00282837
0.00468115
0.00946593
0.0177047
0.0478474
0.0874272
0.103174
0.104232
0.103849
0.104526
0.10477
0.103327
0.100217
0.0957658
0.0899832
0.082286
0.0732868
0.0633564
0.0524382
0.0266768
1.69786e-05
1.48281e-05
1.27513e-05
1.08556e-05
9.1393e-06
7.71964e-06
6.91701e-06
8.40038e-06
1.11857e-05
1.56953e-05
2.28691e-05
3.41112e-05
5.10143e-05
7.5164e-05
0.000107756
0.000151084
0.000210252
0.000295441
0.000425573
0.000632687
0.000984541
0.00158873
0.00274762
0.00488133
0.00969456
0.0191952
0.0430549
0.0790371
0.103014
0.112101
0.114629
0.115322
0.115282
0.114684
0.113638
0.112298
0.110315
0.108513
0.094825
5.32235e-06
5.22406e-06
5.12956e-06
5.04302e-06
4.94242e-06
4.84295e-06
4.75506e-06
4.66636e-06
4.59548e-06
4.5432e-06
4.50622e-06
4.52182e-06
4.54589e-06
4.91571e-06
6.7194e-06
1.22941e-05
3.08747e-05
8.13688e-05
0.000171141
0.000353814
0.000679296
0.00162836
0.00338154
0.00909934
0.0219322
0.0391778
0.0612154
0.0868849
0.11205
0.130549
0.140041
0.143413
0.143814
0.142489
0.140002
0.135907
0.131504
0.117704
0.147081
5.39681e-06
5.49871e-06
5.5915e-06
5.71055e-06
5.82484e-06
5.93116e-06
6.01946e-06
5.93899e-06
5.78802e-06
5.59968e-06
5.38654e-06
5.15352e-06
4.90203e-06
4.63117e-06
4.32614e-06
3.98523e-06
3.5788e-06
3.10374e-06
2.52335e-06
1.84472e-06
1.09034e-06
4.35806e-07
8.25433e-08
8.49005e-09
4.21648e-06
0.000179178
0.00109044
0.00641408
0.0182906
0.0340629
0.0492942
0.0602289
0.0664638
0.0697813
0.071787
0.073437
0.0747755
0.0780711
0.0772123
6.19952e-06
6.21877e-06
6.23764e-06
6.25772e-06
6.28133e-06
6.30689e-06
6.33512e-06
6.3671e-06
6.40343e-06
6.44447e-06
6.49204e-06
6.54738e-06
6.61169e-06
6.69311e-06
6.77289e-06
6.96514e-06
6.44517e-06
5.57646e-06
1.61902e-06
3.30526e-10
0.000127761
7.90291e-05
8.02296e-05
0.00190923
0.000422809
0.00235618
0.00658661
0.0152547
0.0315655
0.0575123
0.0904433
0.122359
0.146369
0.16219
0.172884
0.18006
0.186989
0.17911
0.24335
6.18507e-06
6.17139e-06
6.1633e-06
6.15243e-06
6.14619e-06
6.13585e-06
6.12123e-06
6.12495e-06
6.13764e-06
6.15617e-06
6.17695e-06
6.20263e-06
6.23232e-06
6.26489e-06
6.30139e-06
6.34152e-06
6.38678e-06
6.43811e-06
6.49879e-06
6.57177e-06
6.66355e-06
6.78239e-06
6.93816e-06
7.12204e-06
7.24961e-06
6.97536e-06
6.41776e-06
3.00667e-06
0.000198204
0.0011888
0.00403294
0.00932719
0.0167533
0.0254482
0.0344123
0.0428248
0.0500626
0.0560985
0.0654142
6.07044e-06
6.06834e-06
6.06883e-06
6.06986e-06
6.07094e-06
6.07341e-06
6.07788e-06
6.08394e-06
6.09278e-06
6.10436e-06
6.11918e-06
6.13802e-06
6.16186e-06
6.19198e-06
6.22918e-06
6.28116e-06
6.33036e-06
6.28617e-06
5.77377e-06
3.81537e-06
9.39658e-07
1.63323e-10
1.13221e-06
0
5.87057e-05
0.000499198
0.00142338
2.19279e-05
0.000791785
0.005559
0.0186437
0.0451101
0.0847396
0.127408
0.163748
0.193065
0.219644
0.224956
0.324761
6.07562e-06
6.08435e-06
6.09165e-06
6.09728e-06
6.10429e-06
6.10695e-06
6.10523e-06
6.09957e-06
6.09305e-06
6.08734e-06
6.08235e-06
6.07791e-06
6.0745e-06
6.07236e-06
6.07103e-06
6.0705e-06
6.07069e-06
6.07145e-06
6.0726e-06
6.07401e-06
6.07537e-06
6.0765e-06
6.07709e-06
6.07856e-06
6.07992e-06
6.09676e-06
6.07206e-06
6.28156e-06
5.51783e-06
8.80632e-06
8.20772e-07
4.14001e-06
0.000330569
0.0013609
0.00368105
0.00781338
0.0142809
0.0223003
0.0407618
6.10028e-06
6.09681e-06
6.09558e-06
6.09423e-06
6.09351e-06
6.0937e-06
6.09526e-06
6.09826e-06
6.10265e-06
6.10852e-06
6.11596e-06
6.12519e-06
6.13653e-06
6.15045e-06
6.16784e-06
6.18956e-06
6.21826e-06
6.25504e-06
6.33697e-06
6.44893e-06
5.70182e-06
3.0863e-06
6.23666e-07
1.16184e-08
7.99001e-10
0
0
7.70398e-08
0.000163563
0.00124025
0.00430931
0.00349612
0.0185082
0.0553063
0.110421
0.169247
0.225187
0.252145
0.386061
6.10746e-06
6.11319e-06
6.11671e-06
6.11665e-06
6.11759e-06
6.11719e-06
6.11371e-06
6.10971e-06
6.10643e-06
6.1041e-06
6.10222e-06
6.10109e-06
6.10087e-06
6.10135e-06
6.10278e-06
6.10505e-06
6.10817e-06
6.11207e-06
6.11667e-06
6.12186e-06
6.12755e-06
6.13368e-06
6.14031e-06
6.14756e-06
6.15654e-06
6.16458e-06
6.18527e-06
6.15982e-06
6.35454e-06
5.60226e-06
9.60518e-06
8.41937e-10
5.43759e-05
2.49898e-08
0.000862972
2.79576e-07
0.000958014
0.00158073
0.0130528
6.10838e-06
6.10396e-06
6.1013e-06
6.09849e-06
6.09578e-06
6.09391e-06
6.09296e-06
6.09298e-06
6.0942e-06
6.09649e-06
6.09979e-06
6.10422e-06
6.10982e-06
6.1168e-06
6.12549e-06
6.13635e-06
6.1504e-06
6.16756e-06
6.18489e-06
6.23981e-06
6.29087e-06
6.5555e-06
5.89684e-06
3.90005e-06
5.15699e-07
1.19476e-08
3.56234e-09
3.94806e-10
0
0
0
0.000823067
0.00109903
0.00825215
0.0419536
0.112334
0.200412
0.257836
0.425898
6.11383e-06
6.11658e-06
6.11693e-06
6.11482e-06
6.11339e-06
6.11441e-06
6.11327e-06
6.11136e-06
6.10961e-06
6.10785e-06
6.106e-06
6.10421e-06
6.10263e-06
6.10126e-06
6.1004e-06
6.10003e-06
6.10021e-06
6.10089e-06
6.10204e-06
6.10354e-06
6.1053e-06
6.10719e-06
6.10899e-06
6.11128e-06
6.11391e-06
6.11691e-06
6.12002e-06
6.12436e-06
6.12731e-06
6.13365e-06
6.15052e-06
6.15248e-06
5.0738e-06
2.05515e-06
1.75832e-08
3.34918e-08
0.00022046
0.000401971
0.00161273
6.11596e-06
6.11288e-06
6.11022e-06
6.10675e-06
6.10325e-06
6.10022e-06
6.09779e-06
6.09606e-06
6.09512e-06
6.09479e-06
6.09511e-06
6.09626e-06
6.09824e-06
6.10103e-06
6.10467e-06
6.10923e-06
6.1151e-06
6.12203e-06
6.13004e-06
6.13873e-06
6.15176e-06
6.21352e-06
6.56006e-06
6.81162e-06
6.00886e-06
4.00039e-06
1.99756e-06
2.20615e-07
1.04904e-08
8.04459e-10
0
0
0.000245134
0.00197113
0.00289104
0.047227
0.148935
0.239396
0.441764
6.11625e-06
6.11411e-06
6.11054e-06
6.1071e-06
6.10477e-06
6.10733e-06
6.10882e-06
6.10984e-06
6.11057e-06
6.11052e-06
6.10979e-06
6.10863e-06
6.10727e-06
6.10582e-06
6.1046e-06
6.1037e-06
6.10328e-06
6.10337e-06
6.10404e-06
6.10525e-06
6.10699e-06
6.10922e-06
6.11192e-06
6.11508e-06
6.11877e-06
6.1231e-06
6.1281e-06
6.13398e-06
6.1402e-06
6.15005e-06
6.1474e-06
6.20462e-06
6.21122e-06
5.78598e-06
4.61407e-06
1.63976e-06
1.74683e-08
4.55102e-13
0.000383733
6.11453e-06
6.11442e-06
6.11354e-06
6.11152e-06
6.10909e-06
6.10675e-06
6.10467e-06
6.103e-06
6.10185e-06
6.10115e-06
6.101e-06
6.10148e-06
6.1026e-06
6.10437e-06
6.10687e-06
6.11011e-06
6.11431e-06
6.11961e-06
6.1255e-06
6.13099e-06
6.13739e-06
6.1357e-06
6.19053e-06
6.3618e-06
6.71843e-06
6.91315e-06
6.825e-06
5.53015e-06
3.62235e-06
4.11908e-07
1.30289e-08
8.64728e-12
0
0
0.000782194
0.00486879
0.0862692
0.197666
0.431972
6.10886e-06
6.10224e-06
6.09587e-06
6.09265e-06
6.09128e-06
6.0952e-06
6.09928e-06
6.10321e-06
6.1062e-06
6.10804e-06
6.10895e-06
6.1091e-06
6.10869e-06
6.10782e-06
6.1068e-06
6.10576e-06
6.10488e-06
6.10426e-06
6.10401e-06
6.10413e-06
6.10466e-06
6.10556e-06
6.10682e-06
6.1084e-06
6.11024e-06
6.11237e-06
6.11476e-06
6.11733e-06
6.12001e-06
6.1226e-06
6.12544e-06
6.1267e-06
6.13655e-06
6.14821e-06
6.30742e-06
5.17775e-06
4.63084e-06
1.75587e-10
2.02717e-17
6.10459e-06
6.10954e-06
6.11147e-06
6.11167e-06
6.11114e-06
6.11018e-06
6.10919e-06
6.10808e-06
6.10689e-06
6.10571e-06
6.10469e-06
6.10395e-06
6.10352e-06
6.10346e-06
6.10381e-06
6.10452e-06
6.10554e-06
6.1067e-06
6.1083e-06
6.11091e-06
6.11531e-06
6.11841e-06
6.11855e-06
6.13067e-06
6.20745e-06
6.38029e-06
6.65622e-06
7.04443e-06
7.36701e-06
6.06896e-06
4.13638e-06
4.21006e-09
2.80112e-10
0
0
0.00195719
0.0366872
0.140365
0.396466
6.0944e-06
6.08523e-06
6.07833e-06
6.07669e-06
6.0767e-06
6.08117e-06
6.0871e-06
6.09277e-06
6.09755e-06
6.10122e-06
6.10395e-06
6.10579e-06
6.10685e-06
6.1072e-06
6.10709e-06
6.10665e-06
6.10609e-06
6.10551e-06
6.10509e-06
6.10488e-06
6.10498e-06
6.1054e-06
6.10621e-06
6.10741e-06
6.10904e-06
6.11116e-06
6.11381e-06
6.11698e-06
6.1207e-06
6.12498e-06
6.12992e-06
6.1353e-06
6.14073e-06
6.14854e-06
6.19421e-06
6.30184e-06
6.1056e-06
7.85969e-06
1.05083e-08
6.08837e-06
6.09977e-06
6.10345e-06
6.10532e-06
6.1082e-06
6.10855e-06
6.10956e-06
6.1096e-06
6.10932e-06
6.10889e-06
6.10831e-06
6.1077e-06
6.1072e-06
6.10694e-06
6.10704e-06
6.10757e-06
6.1086e-06
6.1102e-06
6.11232e-06
6.1147e-06
6.1174e-06
6.12075e-06
6.12355e-06
6.12282e-06
6.11848e-06
6.13208e-06
6.18294e-06
6.34077e-06
6.65919e-06
7.14447e-06
7.69718e-06
5.79821e-06
1.02531e-07
2.61477e-10
0
0.000120578
0.00581523
0.0795445
0.33844
6.07702e-06
6.06858e-06
6.06412e-06
6.06483e-06
6.06526e-06
6.06913e-06
6.0748e-06
6.08103e-06
6.08672e-06
6.09157e-06
6.09576e-06
6.09917e-06
6.10177e-06
6.10355e-06
6.10471e-06
6.10529e-06
6.10549e-06
6.10544e-06
6.10527e-06
6.10508e-06
6.105e-06
6.10508e-06
6.10541e-06
6.10602e-06
6.10693e-06
6.10822e-06
6.10992e-06
6.11202e-06
6.11452e-06
6.1174e-06
6.12062e-06
6.1243e-06
6.12786e-06
6.13464e-06
6.1319e-06
6.23097e-06
5.89481e-06
8.15406e-06
2.08756e-06
6.07132e-06
6.08342e-06
6.08905e-06
6.09281e-06
6.09592e-06
6.09883e-06
6.10357e-06
6.10471e-06
6.10659e-06
6.10772e-06
6.10822e-06
6.10837e-06
6.10833e-06
6.10824e-06
6.10822e-06
6.10833e-06
6.10868e-06
6.10931e-06
6.11026e-06
6.11173e-06
6.11392e-06
6.11702e-06
6.12095e-06
6.12533e-06
6.12682e-06
6.1245e-06
6.11848e-06
6.12406e-06
6.15365e-06
6.35969e-06
6.66144e-06
8.15935e-06
7.40064e-06
6.77011e-08
5.17351e-14
0
0.00197217
0.0274358
0.264434
6.06285e-06
6.05871e-06
6.05877e-06
6.06142e-06
6.06082e-06
6.06244e-06
6.06642e-06
6.07134e-06
6.07654e-06
6.08155e-06
6.08638e-06
6.09076e-06
6.09451e-06
6.09752e-06
6.09987e-06
6.10158e-06
6.10278e-06
6.10356e-06
6.10405e-06
6.10433e-06
6.10452e-06
6.1047e-06
6.10498e-06
6.10542e-06
6.10608e-06
6.10706e-06
6.10842e-06
6.1102e-06
6.11242e-06
6.11512e-06
6.11832e-06
6.12208e-06
6.12624e-06
6.13143e-06
6.13403e-06
6.15802e-06
6.08407e-06
6.40632e-06
6.02033e-06
6.05967e-06
6.06776e-06
6.07348e-06
6.0782e-06
6.08244e-06
6.08657e-06
6.09044e-06
6.09383e-06
6.09916e-06
6.10236e-06
6.10441e-06
6.10596e-06
6.1071e-06
6.10792e-06
6.10854e-06
6.10907e-06
6.10967e-06
6.11041e-06
6.1114e-06
6.11261e-06
6.11415e-06
6.11624e-06
6.1191e-06
6.12301e-06
6.1277e-06
6.13184e-06
6.13322e-06
6.13065e-06
6.11501e-06
6.12222e-06
6.14036e-06
6.38848e-06
8.88508e-06
5.94153e-06
9.65566e-09
0
0
0.0104447
0.184996
6.05753e-06
6.05953e-06
6.064e-06
6.06713e-06
6.06474e-06
6.06364e-06
6.06412e-06
6.06667e-06
6.06993e-06
6.07385e-06
6.07824e-06
6.0826e-06
6.08663e-06
6.09019e-06
6.0933e-06
6.0959e-06
6.09803e-06
6.09971e-06
6.10101e-06
6.10199e-06
6.10272e-06
6.10329e-06
6.1038e-06
6.10433e-06
6.10493e-06
6.10572e-06
6.10677e-06
6.10813e-06
6.10984e-06
6.11193e-06
6.11445e-06
6.11739e-06
6.12089e-06
6.12486e-06
6.12998e-06
6.13408e-06
6.15186e-06
6.08787e-06
6.39904e-06
6.05815e-06
6.05864e-06
6.06245e-06
6.06658e-06
6.0707e-06
6.07503e-06
6.07941e-06
6.08358e-06
6.08716e-06
6.09272e-06
6.09704e-06
6.10034e-06
6.10284e-06
6.10475e-06
6.10628e-06
6.10757e-06
6.10874e-06
6.10987e-06
6.11102e-06
6.11228e-06
6.11374e-06
6.11553e-06
6.11786e-06
6.12093e-06
6.12493e-06
6.12994e-06
6.13554e-06
6.14065e-06
6.14401e-06
6.12548e-06
6.13972e-06
5.99728e-06
6.2703e-06
1.06063e-05
2.10392e-06
1.78098e-12
0
0.00257325
0.112075
6.06307e-06
6.06991e-06
6.07628e-06
6.07842e-06
6.07476e-06
6.07135e-06
6.06936e-06
6.06813e-06
6.06866e-06
6.07044e-06
6.07322e-06
6.07646e-06
6.07981e-06
6.08313e-06
6.08636e-06
6.08934e-06
6.09204e-06
6.0944e-06
6.09641e-06
6.09809e-06
6.09947e-06
6.10061e-06
6.10159e-06
6.10247e-06
6.10331e-06
6.10421e-06
6.10525e-06
6.1065e-06
6.10802e-06
6.10986e-06
6.11208e-06
6.1147e-06
6.11783e-06
6.12143e-06
6.12595e-06
6.12956e-06
6.143e-06
6.1164e-06
6.21321e-06
6.06711e-06
6.05981e-06
6.06017e-06
6.06218e-06
6.06483e-06
6.06801e-06
6.07155e-06
6.07522e-06
6.07909e-06
6.08204e-06
6.08835e-06
6.09271e-06
6.09603e-06
6.09884e-06
6.10136e-06
6.10364e-06
6.10573e-06
6.10764e-06
6.10944e-06
6.11122e-06
6.11302e-06
6.1149e-06
6.11702e-06
6.11962e-06
6.12288e-06
6.127e-06
6.13232e-06
6.13797e-06
6.1482e-06
6.14665e-06
6.15248e-06
6.19075e-06
5.57135e-06
7.97587e-06
8.91861e-06
2.18788e-09
0
0.00132385
0.0550182
6.07606e-06
6.0837e-06
6.08847e-06
6.08942e-06
6.08581e-06
6.08146e-06
6.07801e-06
6.07555e-06
6.07287e-06
6.07158e-06
6.07219e-06
6.07369e-06
6.07568e-06
6.07806e-06
6.0807e-06
6.08341e-06
6.08612e-06
6.0887e-06
6.09111e-06
6.09327e-06
6.09519e-06
6.09686e-06
6.09834e-06
6.09967e-06
6.10088e-06
6.10206e-06
6.10327e-06
6.10458e-06
6.10605e-06
6.10774e-06
6.1097e-06
6.112e-06
6.1147e-06
6.11791e-06
6.12171e-06
6.12611e-06
6.13212e-06
6.13617e-06
6.14727e-06
6.08143e-06
6.07025e-06
6.06708e-06
6.06619e-06
6.0665e-06
6.06762e-06
6.06936e-06
6.07152e-06
6.0741e-06
6.07671e-06
6.08031e-06
6.0843e-06
6.088e-06
6.09146e-06
6.09475e-06
6.09782e-06
6.10069e-06
6.10334e-06
6.10582e-06
6.10822e-06
6.11061e-06
6.11297e-06
6.11536e-06
6.11792e-06
6.12088e-06
6.1244e-06
6.12902e-06
6.13394e-06
6.14147e-06
6.15391e-06
6.1334e-06
6.26619e-06
5.90757e-06
5.74583e-06
1.22889e-05
2.99722e-07
2.47925e-13
0.000414642
0.0165253
6.08909e-06
6.09313e-06
6.09395e-06
6.09468e-06
6.09257e-06
6.08927e-06
6.08595e-06
6.083e-06
6.08067e-06
6.07632e-06
6.07503e-06
6.07469e-06
6.07506e-06
6.07603e-06
6.07753e-06
6.0794e-06
6.08155e-06
6.08384e-06
6.08616e-06
6.08841e-06
6.09054e-06
6.09251e-06
6.09434e-06
6.09604e-06
6.09762e-06
6.09914e-06
6.10062e-06
6.10214e-06
6.10373e-06
6.10545e-06
6.10737e-06
6.10954e-06
6.11204e-06
6.11496e-06
6.11835e-06
6.12255e-06
6.12686e-06
6.13499e-06
6.13694e-06
6.09307e-06
6.08404e-06
6.07903e-06
6.07577e-06
6.07392e-06
6.07297e-06
6.07268e-06
6.07298e-06
6.0738e-06
6.07519e-06
6.07665e-06
6.07866e-06
6.08176e-06
6.08508e-06
6.08844e-06
6.0917e-06
6.09487e-06
6.09794e-06
6.10094e-06
6.10387e-06
6.10688e-06
6.10988e-06
6.11281e-06
6.11568e-06
6.11866e-06
6.12192e-06
6.12593e-06
6.13075e-06
6.13515e-06
6.151e-06
6.13187e-06
6.19933e-06
6.2685e-06
5.28417e-06
9.60678e-06
4.33897e-06
4.80427e-12
0
0.00692481
6.09503e-06
6.09349e-06
6.09051e-06
6.09194e-06
6.09216e-06
6.09123e-06
6.08973e-06
6.08779e-06
6.08577e-06
6.08312e-06
6.08015e-06
6.07827e-06
6.07726e-06
6.07684e-06
6.07704e-06
6.07779e-06
6.07902e-06
6.08057e-06
6.08235e-06
6.08424e-06
6.08618e-06
6.08812e-06
6.09003e-06
6.0919e-06
6.09372e-06
6.09549e-06
6.09725e-06
6.099e-06
6.10079e-06
6.10265e-06
6.10463e-06
6.10679e-06
6.10921e-06
6.11196e-06
6.11512e-06
6.11898e-06
6.12305e-06
6.13004e-06
6.13381e-06
6.09578e-06
6.09353e-06
6.08939e-06
6.08549e-06
6.08267e-06
6.08061e-06
6.07901e-06
6.0779e-06
6.07727e-06
6.07709e-06
6.07756e-06
6.07809e-06
6.07878e-06
6.08104e-06
6.08368e-06
6.08645e-06
6.08937e-06
6.09241e-06
6.09555e-06
6.09872e-06
6.1021e-06
6.10564e-06
6.10921e-06
6.11267e-06
6.11604e-06
6.11943e-06
6.12311e-06
6.12788e-06
6.13128e-06
6.14314e-06
6.14404e-06
6.12809e-06
6.36739e-06
5.5883e-06
6.84663e-06
1.04155e-05
4.83229e-10
0
0.00028766
6.09128e-06
6.08577e-06
6.08126e-06
6.08336e-06
6.08554e-06
6.08707e-06
6.08793e-06
6.08803e-06
6.08732e-06
6.08658e-06
6.08441e-06
6.08239e-06
6.08072e-06
6.07937e-06
6.07857e-06
6.07831e-06
6.07854e-06
6.07916e-06
6.08012e-06
6.08135e-06
6.08279e-06
6.08437e-06
6.08608e-06
6.08786e-06
6.0897e-06
6.09159e-06
6.09349e-06
6.09542e-06
6.09739e-06
6.09941e-06
6.10153e-06
6.10376e-06
6.1062e-06
6.10892e-06
6.11197e-06
6.11562e-06
6.11953e-06
6.12563e-06
6.13006e-06
6.08898e-06
6.09396e-06
6.09285e-06
6.09029e-06
6.08813e-06
6.08633e-06
6.08464e-06
6.08316e-06
6.08192e-06
6.08095e-06
6.08032e-06
6.08018e-06
6.07963e-06
6.08018e-06
6.08148e-06
6.08333e-06
6.08557e-06
6.08811e-06
6.09091e-06
6.09389e-06
6.09718e-06
6.10082e-06
6.10471e-06
6.10868e-06
6.11255e-06
6.11637e-06
6.12016e-06
6.12478e-06
6.12875e-06
6.13516e-06
6.15121e-06
6.10541e-06
6.30129e-06
6.0109e-06
5.55154e-06
1.23791e-05
2.57987e-08
2.58892e-14
0
6.0812e-06
6.07544e-06
6.07203e-06
6.07389e-06
6.07666e-06
6.07952e-06
6.08209e-06
6.08404e-06
6.08514e-06
6.08547e-06
6.08592e-06
6.08499e-06
6.08348e-06
6.08202e-06
6.08088e-06
6.08004e-06
6.07952e-06
6.07933e-06
6.07949e-06
6.07998e-06
6.08077e-06
6.08181e-06
6.08309e-06
6.08456e-06
6.0862e-06
6.08797e-06
6.08985e-06
6.09181e-06
6.09384e-06
6.09596e-06
6.09817e-06
6.10048e-06
6.10298e-06
6.10571e-06
6.10873e-06
6.11229e-06
6.11609e-06
6.12172e-06
6.1261e-06
6.07776e-06
6.08624e-06
6.08846e-06
6.08835e-06
6.0879e-06
6.08739e-06
6.08667e-06
6.08584e-06
6.08495e-06
6.08404e-06
6.08322e-06
6.08263e-06
6.08239e-06
6.08148e-06
6.08168e-06
6.08261e-06
6.08399e-06
6.08575e-06
6.08787e-06
6.09032e-06
6.09313e-06
6.09642e-06
6.10017e-06
6.10425e-06
6.10842e-06
6.11263e-06
6.11678e-06
6.1213e-06
6.1262e-06
6.12938e-06
6.14864e-06
6.11537e-06
6.20079e-06
6.29125e-06
5.13589e-06
1.15185e-05
1.36822e-06
1.72564e-12
0
6.07139e-06
6.06852e-06
6.06747e-06
6.06816e-06
6.06999e-06
6.07257e-06
6.07547e-06
6.07822e-06
6.08046e-06
6.08197e-06
6.08315e-06
6.08483e-06
6.08439e-06
6.08357e-06
6.08268e-06
6.08178e-06
6.08097e-06
6.08034e-06
6.07997e-06
6.07986e-06
6.08005e-06
6.08052e-06
6.08127e-06
6.08229e-06
6.08355e-06
6.08503e-06
6.0867e-06
6.08851e-06
6.09046e-06
6.09255e-06
6.09475e-06
6.0971e-06
6.0996e-06
6.10235e-06
6.10536e-06
6.10887e-06
6.11263e-06
6.11797e-06
6.12229e-06
6.06905e-06
6.07585e-06
6.07978e-06
6.08174e-06
6.08295e-06
6.08387e-06
6.08446e-06
6.08476e-06
6.08482e-06
6.08464e-06
6.08434e-06
6.08397e-06
6.08376e-06
6.08339e-06
6.08316e-06
6.08332e-06
6.08391e-06
6.08493e-06
6.08635e-06
6.08815e-06
6.09033e-06
6.093e-06
6.09624e-06
6.1e-06
6.10412e-06
6.10846e-06
6.11292e-06
6.11747e-06
6.12295e-06
6.12559e-06
6.14077e-06
6.13178e-06
6.12819e-06
6.40883e-06
5.13572e-06
9.78953e-06
4.72133e-06
7.72471e-12
0
6.06721e-06
6.06796e-06
6.06866e-06
6.06797e-06
6.06804e-06
6.06917e-06
6.07108e-06
6.07338e-06
6.07564e-06
6.07767e-06
6.07922e-06
6.08195e-06
6.08285e-06
6.08308e-06
6.0829e-06
6.08244e-06
6.08185e-06
6.08124e-06
6.0807e-06
6.0803e-06
6.0801e-06
6.08013e-06
6.08042e-06
6.08098e-06
6.08181e-06
6.08289e-06
6.08421e-06
6.08574e-06
6.08747e-06
6.08939e-06
6.09148e-06
6.09376e-06
6.09621e-06
6.09892e-06
6.1019e-06
6.10538e-06
6.10913e-06
6.11428e-06
6.11861e-06
6.06713e-06
6.06891e-06
6.0722e-06
6.07473e-06
6.07667e-06
6.07835e-06
6.07982e-06
6.08104e-06
6.08202e-06
6.08271e-06
6.08318e-06
6.08347e-06
6.08362e-06
6.08386e-06
6.08404e-06
6.08404e-06
6.08433e-06
6.08493e-06
6.08585e-06
6.08711e-06
6.08871e-06
6.09073e-06
6.0933e-06
6.09646e-06
6.10017e-06
6.10431e-06
6.10882e-06
6.11343e-06
6.11906e-06
6.12264e-06
6.13218e-06
6.14205e-06
6.09285e-06
6.41965e-06
5.30916e-06
8.19381e-06
8.26652e-06
8.63253e-11
0
6.06972e-06
6.07249e-06
6.07344e-06
6.0719e-06
6.07042e-06
6.0699e-06
6.07026e-06
6.07129e-06
6.07268e-06
6.07426e-06
6.07579e-06
6.07776e-06
6.07968e-06
6.0809e-06
6.08151e-06
6.08171e-06
6.08163e-06
6.08137e-06
6.081e-06
6.08063e-06
6.08033e-06
6.08015e-06
6.08015e-06
6.08036e-06
6.0808e-06
6.08149e-06
6.08242e-06
6.0836e-06
6.08502e-06
6.08666e-06
6.08853e-06
6.09063e-06
6.09294e-06
6.09553e-06
6.09844e-06
6.10185e-06
6.10558e-06
6.11058e-06
6.11501e-06
6.07148e-06
6.06839e-06
6.06944e-06
6.07103e-06
6.07256e-06
6.07408e-06
6.07561e-06
6.07708e-06
6.07847e-06
6.07969e-06
6.08074e-06
6.08161e-06
6.08229e-06
6.08287e-06
6.08364e-06
6.08409e-06
6.08449e-06
6.08498e-06
6.08567e-06
6.08659e-06
6.08778e-06
6.08929e-06
6.09123e-06
6.09373e-06
6.09682e-06
6.10048e-06
6.10473e-06
6.10928e-06
6.11472e-06
6.11954e-06
6.12487e-06
6.14457e-06
6.08213e-06
6.38062e-06
5.53477e-06
6.95917e-06
1.06116e-05
5.28388e-10
7.92164e-16
6.07596e-06
6.07846e-06
6.07857e-06
6.07692e-06
6.07479e-06
6.07324e-06
6.07234e-06
6.07204e-06
6.07224e-06
6.07284e-06
6.07383e-06
6.07467e-06
6.07658e-06
6.07807e-06
6.07915e-06
6.07992e-06
6.08039e-06
6.08058e-06
6.08058e-06
6.08046e-06
6.0803e-06
6.08013e-06
6.08003e-06
6.08005e-06
6.08022e-06
6.08061e-06
6.08121e-06
6.08205e-06
6.08313e-06
6.08446e-06
6.08604e-06
6.08788e-06
6.08996e-06
6.09235e-06
6.09509e-06
6.09834e-06
6.102e-06
6.10683e-06
6.11138e-06
6.07822e-06
6.07302e-06
6.07184e-06
6.07183e-06
6.07229e-06
6.07301e-06
6.0739e-06
6.07495e-06
6.07609e-06
6.07726e-06
6.07841e-06
6.07949e-06
6.08048e-06
6.08135e-06
6.08211e-06
6.08329e-06
6.08402e-06
6.08464e-06
6.08531e-06
6.08612e-06
6.08711e-06
6.08831e-06
6.08981e-06
6.09175e-06
6.09421e-06
6.09727e-06
6.10101e-06
6.10528e-06
6.1103e-06
6.11592e-06
6.11904e-06
6.14157e-06
6.08367e-06
6.32126e-06
5.77464e-06
6.09758e-06
1.16193e-05
3.84409e-07
7.00943e-13
6.08173e-06
6.08261e-06
6.08186e-06
6.08054e-06
6.07864e-06
6.07694e-06
6.07554e-06
6.07445e-06
6.07371e-06
6.07336e-06
6.07346e-06
6.07388e-06
6.07437e-06
6.07549e-06
6.07674e-06
6.07781e-06
6.07859e-06
6.07912e-06
6.07947e-06
6.07966e-06
6.07974e-06
6.07973e-06
6.07969e-06
6.07969e-06
6.07978e-06
6.08001e-06
6.0804e-06
6.08099e-06
6.08178e-06
6.08281e-06
6.08408e-06
6.08562e-06
6.08742e-06
6.08954e-06
6.09204e-06
6.09504e-06
6.09851e-06
6.1031e-06
6.10769e-06
6.08334e-06
6.0791e-06
6.0769e-06
6.07564e-06
6.0751e-06
6.07491e-06
6.07491e-06
6.07517e-06
6.07566e-06
6.07633e-06
6.07714e-06
6.07803e-06
6.07896e-06
6.07989e-06
6.08073e-06
6.08199e-06
6.08297e-06
6.0838e-06
6.08461e-06
6.08549e-06
6.08647e-06
6.08758e-06
6.08887e-06
6.09044e-06
6.0924e-06
6.09489e-06
6.09804e-06
6.10186e-06
6.10631e-06
6.11212e-06
6.11445e-06
6.13555e-06
6.09113e-06
6.2525e-06
6.00884e-06
5.53992e-06
1.10624e-05
2.28356e-06
5.25002e-12
6.08453e-06
6.08394e-06
6.08292e-06
6.08199e-06
6.08069e-06
6.07943e-06
6.07823e-06
6.07702e-06
6.07589e-06
6.07498e-06
6.07439e-06
6.07423e-06
6.07408e-06
6.07418e-06
6.07504e-06
6.07592e-06
6.07668e-06
6.07734e-06
6.0779e-06
6.07834e-06
6.07866e-06
6.07886e-06
6.07899e-06
6.07911e-06
6.07925e-06
6.07946e-06
6.07977e-06
6.0802e-06
6.08079e-06
6.08158e-06
6.08258e-06
6.08383e-06
6.08534e-06
6.08717e-06
6.08937e-06
6.09206e-06
6.09526e-06
6.09952e-06
6.10401e-06
6.08515e-06
6.08335e-06
6.08147e-06
6.07983e-06
6.07882e-06
6.07805e-06
6.07738e-06
6.07694e-06
6.07675e-06
6.0768e-06
6.07708e-06
6.07755e-06
6.07817e-06
6.0789e-06
6.07967e-06
6.08062e-06
6.08166e-06
6.08265e-06
6.08362e-06
6.08461e-06
6.08565e-06
6.08676e-06
6.08796e-06
6.08931e-06
6.09093e-06
6.09295e-06
6.09555e-06
6.09886e-06
6.10274e-06
6.10832e-06
6.11067e-06
6.12823e-06
6.10146e-06
6.18393e-06
6.20115e-06
5.28837e-06
9.71614e-06
5.71816e-06
4.88549e-10
6.08449e-06
6.08344e-06
6.08266e-06
6.08194e-06
6.08114e-06
6.08042e-06
6.07968e-06
6.07879e-06
6.07776e-06
6.07674e-06
6.07586e-06
6.07521e-06
6.07481e-06
6.07413e-06
6.0743e-06
6.07471e-06
6.07524e-06
6.07582e-06
6.07639e-06
6.07691e-06
6.07736e-06
6.07772e-06
6.07801e-06
6.07827e-06
6.07852e-06
6.07878e-06
6.07909e-06
6.07947e-06
6.07995e-06
6.08058e-06
6.08138e-06
6.0824e-06
6.08366e-06
6.0852e-06
6.0871e-06
6.08946e-06
6.09233e-06
6.09618e-06
6.10045e-06
6.08448e-06
6.08467e-06
6.08375e-06
6.08249e-06
6.08157e-06
6.08073e-06
6.07984e-06
6.07908e-06
6.0785e-06
6.07811e-06
6.07794e-06
6.07797e-06
6.0782e-06
6.0786e-06
6.07916e-06
6.07974e-06
6.08056e-06
6.08155e-06
6.08256e-06
6.08358e-06
6.08464e-06
6.08576e-06
6.08694e-06
6.0882e-06
6.0896e-06
6.09128e-06
6.09339e-06
6.09616e-06
6.09947e-06
6.10446e-06
6.10725e-06
6.12039e-06
6.11141e-06
6.12724e-06
6.31274e-06
5.31436e-06
8.10155e-06
9.09886e-06
2.83203e-08
6.08334e-06
6.08271e-06
6.08221e-06
6.08152e-06
6.08093e-06
6.08051e-06
6.08013e-06
6.07961e-06
6.07889e-06
6.07805e-06
6.0772e-06
6.07642e-06
6.07583e-06
6.075e-06
6.07454e-06
6.07442e-06
6.07457e-06
6.07489e-06
6.07529e-06
6.07571e-06
6.07613e-06
6.07653e-06
6.07689e-06
6.07723e-06
6.07756e-06
6.0779e-06
6.07825e-06
6.07864e-06
6.0791e-06
6.07965e-06
6.08034e-06
6.0812e-06
6.08227e-06
6.08358e-06
6.08521e-06
6.08726e-06
6.08978e-06
6.0932e-06
6.09711e-06
6.08322e-06
6.08402e-06
6.08391e-06
6.08327e-06
6.08275e-06
6.0822e-06
6.0815e-06
6.08082e-06
6.08019e-06
6.07965e-06
6.07924e-06
6.07898e-06
6.07889e-06
6.07896e-06
6.07921e-06
6.07958e-06
6.07997e-06
6.08073e-06
6.08161e-06
6.08256e-06
6.08359e-06
6.08472e-06
6.08592e-06
6.08717e-06
6.08851e-06
6.09001e-06
6.09179e-06
6.09407e-06
6.09683e-06
6.10096e-06
6.10423e-06
6.11272e-06
6.11836e-06
6.09107e-06
6.33537e-06
5.53491e-06
6.73156e-06
1.05408e-05
7.87754e-07
6.08263e-06
6.08258e-06
6.08211e-06
6.08138e-06
6.08078e-06
6.08041e-06
6.08016e-06
6.07986e-06
6.0794e-06
6.07881e-06
6.07815e-06
6.07746e-06
6.0768e-06
6.0763e-06
6.0752e-06
6.07472e-06
6.07457e-06
6.07459e-06
6.07471e-06
6.07492e-06
6.0752e-06
6.0755e-06
6.07583e-06
6.07617e-06
6.07653e-06
6.07691e-06
6.07731e-06
6.07774e-06
6.07821e-06
6.07875e-06
6.07939e-06
6.08016e-06
6.08109e-06
6.08224e-06
6.08365e-06
6.08543e-06
6.08764e-06
6.09062e-06
6.09409e-06
6.08264e-06
6.08304e-06
6.08319e-06
6.08303e-06
6.08291e-06
6.08271e-06
6.08235e-06
6.08195e-06
6.08151e-06
6.08104e-06
6.08061e-06
6.08023e-06
6.07995e-06
6.0798e-06
6.07978e-06
6.07993e-06
6.08001e-06
6.08044e-06
6.08106e-06
6.08183e-06
6.08275e-06
6.08378e-06
6.08492e-06
6.08614e-06
6.08743e-06
6.08884e-06
6.09044e-06
6.0924e-06
6.09476e-06
6.09806e-06
6.10167e-06
6.10625e-06
6.12072e-06
6.07672e-06
6.29151e-06
5.82465e-06
5.86661e-06
1.01637e-05
3.43057e-06
6.08277e-06
6.08291e-06
6.08225e-06
6.08147e-06
6.08086e-06
6.08047e-06
6.0802e-06
6.07995e-06
6.07962e-06
6.07921e-06
6.07874e-06
6.07821e-06
6.07761e-06
6.07712e-06
6.0761e-06
6.0755e-06
6.0751e-06
6.07483e-06
6.07467e-06
6.07463e-06
6.07469e-06
6.07482e-06
6.07503e-06
6.07529e-06
6.07561e-06
6.07598e-06
6.07639e-06
6.07683e-06
6.07732e-06
6.07786e-06
6.07847e-06
6.07919e-06
6.08004e-06
6.08108e-06
6.08233e-06
6.0839e-06
6.08584e-06
6.08844e-06
6.09145e-06
6.08289e-06
6.0827e-06
6.08272e-06
6.08274e-06
6.08282e-06
6.08283e-06
6.08273e-06
6.08259e-06
6.08239e-06
6.08209e-06
6.08176e-06
6.08142e-06
6.0811e-06
6.08085e-06
6.08068e-06
6.08063e-06
6.08074e-06
6.08064e-06
6.08095e-06
6.08149e-06
6.0822e-06
6.08305e-06
6.08401e-06
6.08509e-06
6.08627e-06
6.08758e-06
6.08906e-06
6.09079e-06
6.09286e-06
6.09552e-06
6.09921e-06
6.1014e-06
6.11816e-06
6.07973e-06
6.21672e-06
6.07386e-06
5.51091e-06
8.80561e-06
6.26796e-06
6.08326e-06
6.08315e-06
6.08229e-06
6.08149e-06
6.08094e-06
6.08057e-06
6.08028e-06
6.08003e-06
6.07974e-06
6.07943e-06
6.07908e-06
6.07869e-06
6.07822e-06
6.07775e-06
6.07705e-06
6.07639e-06
6.07581e-06
6.07534e-06
6.07499e-06
6.07474e-06
6.0746e-06
6.07455e-06
6.07458e-06
6.07471e-06
6.07493e-06
6.07523e-06
6.07559e-06
6.076e-06
6.07647e-06
6.07698e-06
6.07757e-06
6.07825e-06
6.07905e-06
6.08e-06
6.08113e-06
6.08253e-06
6.08425e-06
6.08653e-06
6.08913e-06
6.0834e-06
6.083e-06
6.08281e-06
6.08279e-06
6.08288e-06
6.08294e-06
6.08296e-06
6.08297e-06
6.08293e-06
6.08279e-06
6.08261e-06
6.08238e-06
6.08212e-06
6.08188e-06
6.08167e-06
6.08151e-06
6.08151e-06
6.08123e-06
6.08132e-06
6.08162e-06
6.08209e-06
6.0827e-06
6.08344e-06
6.08432e-06
6.08534e-06
6.0865e-06
6.08784e-06
6.08938e-06
6.09122e-06
6.09336e-06
6.09678e-06
6.09808e-06
6.11212e-06
6.09101e-06
6.14483e-06
6.22121e-06
5.52541e-06
7.38677e-06
7.6883e-06
6.08351e-06
6.08306e-06
6.08214e-06
6.08131e-06
6.08083e-06
6.08052e-06
6.08027e-06
6.08003e-06
6.07978e-06
6.07952e-06
6.07926e-06
6.07896e-06
6.07862e-06
6.07819e-06
6.07785e-06
6.07706e-06
6.07648e-06
6.07599e-06
6.07555e-06
6.07516e-06
6.07485e-06
6.07463e-06
6.0745e-06
6.07448e-06
6.07456e-06
6.07474e-06
6.075e-06
6.07534e-06
6.07573e-06
6.0762e-06
6.07674e-06
6.07736e-06
6.07811e-06
6.07898e-06
6.08001e-06
6.08127e-06
6.08282e-06
6.08485e-06
6.08708e-06
6.08363e-06
6.0834e-06
6.08313e-06
6.08309e-06
6.08312e-06
6.08315e-06
6.0832e-06
6.08326e-06
6.08329e-06
6.08326e-06
6.0832e-06
6.08308e-06
6.08293e-06
6.08275e-06
6.08258e-06
6.08241e-06
6.08234e-06
6.08209e-06
6.08205e-06
6.08214e-06
6.08238e-06
6.08278e-06
6.08329e-06
6.08392e-06
6.08471e-06
6.08567e-06
6.08684e-06
6.08821e-06
6.08985e-06
6.09167e-06
6.09458e-06
6.09597e-06
6.10512e-06
6.10144e-06
6.09883e-06
6.25794e-06
5.72627e-06
6.40896e-06
7.7018e-06
6.08341e-06
6.08288e-06
6.08203e-06
6.0811e-06
6.08059e-06
6.08031e-06
6.08009e-06
6.07989e-06
6.07968e-06
6.07948e-06
6.07929e-06
6.07907e-06
6.07881e-06
6.0785e-06
6.07817e-06
6.07767e-06
6.07718e-06
6.07667e-06
6.07617e-06
6.07571e-06
6.0753e-06
6.07497e-06
6.07473e-06
6.07458e-06
6.07453e-06
6.07457e-06
6.0747e-06
6.07491e-06
6.07521e-06
6.07558e-06
6.07604e-06
6.07659e-06
6.07726e-06
6.07805e-06
6.07899e-06
6.08013e-06
6.08153e-06
6.08336e-06
6.08528e-06
6.0836e-06
6.08354e-06
6.08337e-06
6.0834e-06
6.08342e-06
6.08345e-06
6.0835e-06
6.08357e-06
6.08362e-06
6.08364e-06
6.08365e-06
6.08362e-06
6.08355e-06
6.08345e-06
6.08333e-06
6.08321e-06
6.08309e-06
6.08309e-06
6.08284e-06
6.08278e-06
6.08287e-06
6.08308e-06
6.08337e-06
6.08375e-06
6.08428e-06
6.08499e-06
6.08593e-06
6.08709e-06
6.08854e-06
6.09016e-06
6.09254e-06
6.09442e-06
6.09916e-06
6.10614e-06
6.08226e-06
6.21957e-06
5.95414e-06
5.95398e-06
7.0853e-06
6.08331e-06
6.08301e-06
6.08226e-06
6.08119e-06
6.08053e-06
6.08015e-06
6.07987e-06
6.07967e-06
6.07948e-06
6.07933e-06
6.07919e-06
6.07903e-06
6.07884e-06
6.07863e-06
6.07834e-06
6.07812e-06
6.07763e-06
6.07716e-06
6.07671e-06
6.07628e-06
6.07588e-06
6.07551e-06
6.07519e-06
6.07494e-06
6.07477e-06
6.07469e-06
6.07468e-06
6.07477e-06
6.07494e-06
6.0752e-06
6.07555e-06
6.076e-06
6.07658e-06
6.07727e-06
6.07811e-06
6.07913e-06
6.0804e-06
6.08205e-06