/*--------------------------------*- C++ -*----------------------------------*\
| =========                 |                                                 |
| \\      /  F ield         | OpenFOAM: The Open Source CFD Toolbox           |
|  \\    /   O peration     | Version:  2506                                  |
|   \\  /    A nd           | Website:  www.openfoam.com                      |
|    \\/     M anipulation  |                                                 |
\*---------------------------------------------------------------------------*/
FoamFile
{
    version     2.0;
    format      ascii;
    arch        "LSB;label=32;scalar=64";
    class       volScalarField;
    location    "100";
    object      p;
}
// * * * * * * * * * * * * * * * * * * * * * * * * * * * * * * * * * * * * * //

dimensions      [0 2 -2 0 0 0 0];

internalField   nonuniform List<scalar> 
10720
(
88.7697
30.3622
-39.504
-111.338
-181.242
-254.022
-321.391
-381.016
-434.936
-479.969
-517.159
-547.281
-570.491
-587.48
-598.956
-604.523
-604.827
-598.63
-586.866
-568.765
-546.086
-519.87
-493.778
-467.156
-434.806
-395.704
-354.405
-315.383
-280.099
-246.756
-213.738
-180.602
-147.225
-113.262
-79.2014
-44.2674
-15.4227
15.7133
20.7796
144.334
193.738
242.865
285.788
317.642
334.185
337.942
331.48
313.194
287.256
258.979
231.347
205.338
181.632
160.601
141.381
123.749
107.091
91.0647
75.0611
59.0348
42.6364
25.991
9.58674
-4.44969
-15.0196
-23.3794
-29.8333
-34.2643
-36.8137
-37.6976
-37.1021
-35.1351
-31.8406
-27.258
-21.088
-12.9565
0.476365
22.6558
144.052
100.152
49.6187
-5.65312
-63.9403
-124.966
-185.771
-244.361
-299.849
-350.498
-395.698
-435.058
-468.429
-495.896
-517.338
-532.425
-541.058
-543.06
-539.109
-529.134
-514.412
-496.071
-476.511
-454.706
-426.369
-390.553
-351.341
-313.444
-278.678
-245.631
-212.811
-179.801
-146.543
-112.718
-78.7892
-43.9587
-15.1988
15.9085
19.8259
182.6
218.308
252.537
283.549
307.756
322.294
326.892
321.688
307.219
286.562
262.886
238.364
214.193
191.213
169.925
150.118
131.649
114.174
97.3908
80.8622
64.4549
47.9253
31.3694
15.2816
1.32537
-9.50246
-18.0757
-24.9165
-30.0571
-33.4063
-34.9676
-34.9042
-33.3559
-30.3936
-26.0661
-20.0833
-12.0824
1.26837
22.6445
147.364
108.2
62.8834
11.874
-42.3955
-99.4886
-157.881
-215.282
-270.204
-321.488
-367.835
-408.675
-443.659
-472.399
-494.597
-510.458
-520.145
-523.598
-521.069
-512.683
-499.285
-481.908
-462.33
-440.422
-413.505
-380.409
-343.955
-308.167
-274.793
-242.77
-210.777
-178.41
-145.607
-112.076
-78.3315
-43.6286
-14.9267
16.1586
19.5016
181.748
213.853
244.434
271.699
292.728
306.023
311.252
308.145
297.174
280.257
259.611
237.21
214.418
192.185
171.131
151.375
132.835
115.289
98.4662
82.012
65.7327
49.4502
33.2312
17.5118
3.59779
-7.54026
-16.4005
-23.4275
-28.644
-31.9954
-33.5603
-33.5543
-32.1236
-29.3123
-25.133
-19.2763
-11.3635
1.86311
22.5
152.219
119.265
80.7764
37.5498
-8.80172
-58.3655
-109.695
-161.216
-211.75
-260.135
-305.242
-346.301
-382.693
-413.926
-439.612
-459.66
-474.163
-482.712
-485.299
-482.007
-473.37
-460.207
-443.781
-424.251
-399.874
-369.713
-336.017
-302.291
-270.261
-239.231
-208.088
-176.45
-144.266
-111.246
-77.8486
-43.3716
-14.7192
16.3494
19.7819
181.086
207.93
233.829
257.332
275.788
288.181
293.935
292.574
284.488
270.996
253.758
234.382
214.047
193.637
173.782
154.749
136.573
119.169
102.36
85.8985
69.6185
53.4067
37.3313
21.7925
7.8574
-3.56255
-12.7263
-20.0516
-25.6075
-29.3677
-31.3841
-31.8064
-30.7386
-28.2117
-24.2382
-18.5216
-10.6969
2.38523
22.309
148.744
119.549
85.2983
46.656
5.15506
-39.6698
-86.6232
-134.336
-181.929
-228.295
-272.346
-313.26
-350.283
-382.785
-410.251
-432.384
-448.882
-459.493
-464.098
-462.862
-456.233
-444.973
-430.109
-411.939
-389.229
-361.154
-329.469
-297.22
-266.129
-235.813
-205.341
-174.339
-142.743
-110.268
-77.3212
-43.1806
-14.5839
16.4763
20.3861
174.366
198.077
221.076
242.049
258.691
270.405
276.543
276.569
270.81
260.168
245.87
229.194
211.121
192.452
173.817
155.57
137.865
120.726
104.072
87.7477
71.6222
55.622
39.8174
24.5659
10.734
-0.852805
-10.2665
-17.8501
-23.6701
-27.6893
-29.9239
-30.5173
-29.5824
-27.1691
-23.2948
-17.6666
-9.92031
2.98112
22.1582
143.678
117.798
87.3412
53.0112
16.1993
-23.7967
-65.8962
-109.001
-152.483
-195.365
-236.733
-275.835
-311.903
-344.256
-372.325
-395.666
-413.876
-426.826
-434.296
-436.289
-433.038
-425.063
-413.077
-397.337
-376.984
-351.394
-322.016
-291.539
-261.659
-232.237
-202.513
-172.171
-141.187
-109.291
-76.8462
-43.1161
-14.5649
16.5386
21.1419
166.431
187.446
208.016
226.945
242.161
253.313
259.708
260.784
256.839
248.519
236.76
222.585
206.787
190.05
172.95
155.856
138.98
122.421
106.174
90.1612
74.3034
58.567
43.0349
28.0372
14.3023
2.5754
-7.07365
-14.9008
-20.9718
-25.254
-27.7592
-28.6235
-27.955
-25.7932
-22.1396
-16.6952
-9.09781
3.56109
21.9692
136.969
113.646
86.1477
55.1556
22.0196
-14.1316
-52.3434
-91.6666
-131.691
-171.564
-210.513
-247.883
-282.921
-314.947
-343.358
-367.613
-387.257
-401.933
-411.355
-415.386
-414.195
-408.225
-398.051
-383.961
-365.426
-341.965
-314.703
-285.926
-257.243
-228.71
-199.732
-170.034
-139.63
-108.316
-76.4376
-43.2047
-14.7143
16.4763
21.9501
157.513
176.456
195.132
212.438
226.516
237.177
243.72
245.59
243.057
236.611
226.982
214.994
201.278
186.395
170.85
154.986
139.041
123.168
107.424
91.8003
76.2726
60.8477
45.6235
30.9053
17.3126
5.51491
-4.31858
-12.359
-18.6639
-23.2031
-25.9758
-27.0926
-26.6504
-24.6826
-21.1863
-15.8681
-8.37623
4.04447
21.7031
129.741
108.564
83.57
55.4403
25.4751
-7.2875
-41.9738
-77.7572
-114.379
-151.12
-187.325
-222.451
-255.821
-286.79
-314.754
-339.145
-359.437
-375.214
-386.208
-392.235
-393.308
-389.69
-381.75
-369.708
-353.233
-331.988
-306.879
-279.865
-252.467
-224.909
-196.754
-167.772
-137.997
-107.282
-76.0249
-43.3764
-15.054
16.2177
22.7116
148.436
165.66
182.763
198.719
211.857
222.07
228.67
231.14
229.704
224.76
216.899
206.797
194.957
181.832
167.847
153.299
138.424
123.398
108.318
93.227
78.1459
63.1179
48.2556
33.8463
20.4335
8.62224
-1.3517
-9.57693
-16.0948
-20.8733
-23.8977
-25.2608
-25.0528
-23.3023
-19.999
-14.8525
-7.51791
4.5908
21.4637
122.296
102.907
80.0106
54.2801
26.9795
-2.89776
-34.5597
-67.2591
-100.858
-134.738
-168.357
-201.285
-232.92
-262.67
-289.966
-314.231
-334.912
-351.561
-363.799
-371.374
-374.167
-372.35
-366.189
-355.872
-341.214
-321.98
-298.885
-273.583
-247.48
-220.923
-193.619
-165.387
-136.278
-106.18
-75.5701
-43.5585
-15.5287
15.7155
23.3326
139.449
155.248
171.035
185.85
198.188
207.985
214.579
217.494
216.91
213.171
206.77
198.272
188.083
176.567
164.071
150.839
137.085
122.987
108.661
94.185
79.621
65.0432
50.5783
36.5022
23.301
11.5254
1.45382
-6.92825
-13.64
-18.6447
-21.9162
-23.5261
-23.5537
-22.0183
-18.903
-13.9222
-6.74283
5.04097
21.1447
114.913
97.0526
75.9592
52.2933
27.2894
-0.0783948
-29.0779
-59.0281
-89.8752
-121.078
-152.195
-182.889
-212.636
-240.926
-267.226
-290.971
-311.62
-328.687
-341.76
-350.571
-354.899
-354.796
-350.401
-341.841
-329.005
-311.738
-290.614
-267.028
-242.261
-216.75
-190.335
-162.885
-134.475
-105.016
-75.0505
-43.7395
-16.0979
14.9877
23.7207
130.75
145.334
159.995
173.833
185.467
194.872
201.417
204.654
204.732
201.961
196.762
189.618
180.866
170.798
159.693
147.746
135.135
122.023
108.532
94.7602
80.7953
66.7354
52.7209
39.0169
26.0696
14.385
4.26762
-4.23443
-11.1119
-16.3218
-19.8251
-21.6726
-21.9325
-20.6163
-17.6992
-12.9028
-5.90632
5.5031
20.8152
107.724
91.1835
71.6522
49.7774
26.76
1.57555
-25.0857
-52.6108
-80.9933
-109.759
-138.552
-167.109
-194.982
-221.736
-246.893
-269.928
-290.309
-307.548
-321.194
-330.95
-336.507
-337.821
-334.95
-327.971
-316.821
-301.393
-282.147
-260.24
-236.824
-212.393
-186.899
-160.264
-132.587
-103.806
-74.4737
-43.9044
-16.7299
14.071
23.8284
122.424
135.962
149.645
162.629
173.64
182.671
189.131
192.596
193.19
191.196
186.984
180.98
173.469
164.685
154.856
144.129
132.643
120.539
107.931
94.922
81.6165
68.129
54.6068
41.3075
28.6499
17.1036
6.98644
-1.60134
-8.62028
-14.017
-17.7406
-19.8208
-20.312
-19.2161
-16.5002
-11.8943
-5.09279
5.91883
20.4499
100.813
85.4296
67.2698
46.9668
25.6874
2.42295
-22.1767
-47.5414
-73.7009
-100.247
-126.885
-153.409
-179.437
-204.612
-228.513
-250.658
-270.545
-287.694
-301.638
-312.058
-318.609
-321.149
-319.659
-314.164
-304.614
-290.934
-273.485
-253.224
-231.171
-207.851
-183.311
-157.524
-130.608
-102.545
-73.8617
-44.0393
-17.4221
13.0198
23.6453
114.521
127.144
139.966
152.192
162.64
171.317
177.665
181.283
182.276
180.908
177.509
172.463
166.015
158.361
149.686
140.096
129.695
118.595
106.894
94.692
82.0977
69.2332
56.2471
43.3909
31.0622
19.7032
9.63597
1.00235
-6.12747
-11.687
-15.6134
-17.915
-18.6321
-17.7574
-15.2489
-10.8472
-4.26284
6.31676
20.0602
94.2259
79.8629
62.918
44.0062
24.2608
2.69467
-20.0744
-43.5104
-67.6797
-92.2099
-116.861
-141.488
-165.751
-189.356
-211.952
-233.105
-252.35
-269.223
-283.26
-294.115
-301.432
-304.981
-304.686
-300.528
-292.457
-280.411
-264.665
-246.003
-225.314
-203.13
-179.574
-154.665
-128.541
-101.228
-73.2345
-44.1346
-18.1383
11.8504
23.2098
107.052
118.869
130.919
142.467
152.402
160.74
166.961
170.672
171.971
171.107
168.38
164.136
158.598
151.931
144.288
135.742
126.367
116.247
105.457
94.0866
82.2387
70.0351
57.6229
45.2453
33.2828
22.1553
12.1847
3.54441
-3.66607
-9.36472
-13.4765
-15.9896
-16.9279
-16.2742
-13.9772
-9.78833
-3.43712
6.6868
19.6494
87.9806
74.5282
58.669
40.9988
22.6192
2.5671
-18.5687
-40.2791
-62.6547
-85.3605
-108.185
-131.04
-153.636
-175.714
-196.989
-217.085
-235.571
-252.015
-265.96
-277.044
-284.922
-289.292
-290.028
-287.074
-280.369
-269.847
-255.713
-238.597
-219.265
-198.233
-175.686
-151.684
-126.382
-99.8429
-72.5878
-44.207
-18.8559
10.5626
22.5523
100.018
111.114
122.471
133.404
142.866
150.878
156.957
160.719
162.25
161.793
159.62
156.051
151.289
145.48
138.753
131.156
122.737
113.556
103.664
93.1312
82.0512
70.5381
58.7327
46.8669
35.3064
24.4535
14.6258
6.01976
-1.23827
-7.04936
-11.3262
-14.0371
-15.1888
-14.7548
-12.6732
-8.70882
-2.61048
7.03336
19.2177
82.0821
69.4493
54.5671
38.0143
20.8584
2.16301
-17.505
-37.6653
-58.4221
-79.4675
-100.622
-121.833
-142.861
-163.484
-183.456
-202.46
-220.114
-236.013
-249.726
-260.876
-269.13
-274.144
-275.751
-273.858
-268.395
-259.283
-246.662
-231.031
-213.037
-193.17
-171.652
-148.584
-124.135
-98.3948
-71.9119
-44.2671
-19.5373
9.13646
21.7043
93.408
103.853
114.581
124.955
133.976
141.674
147.601
151.378
153.085
152.954
151.238
148.236
144.137
139.073
133.154
126.414
118.878
110.581
101.557
91.8539
81.5499
70.7474
59.5747
48.2493
37.1232
26.5847
16.9437
8.41272
1.14103
-4.75474
-9.17506
-12.069
-13.4256
-13.2087
-11.3457
-7.61464
-1.78572
7.35941
18.7744
76.5255
64.6369
50.6406
35.0999
19.0471
1.57721
-16.7659
-35.5271
-54.8173
-74.3531
-93.9847
-113.675
-133.228
-152.473
-171.186
-189.093
-205.866
-221.138
-234.501
-245.578
-254.051
-259.552
-261.878
-260.911
-256.564
-248.748
-237.541
-223.328
-206.648
-187.947
-167.476
-145.363
-121.795
-96.8806
-71.1951
-44.3285
-20.1884
7.60333
20.6752
87.2064
97.0596
107.213
117.07
125.68
133.077
138.844
142.609
144.445
144.575
143.239
140.714
137.182
132.762
127.554
121.58
114.849
107.379
99.1818
90.2879
80.7562
70.6726
60.1501
49.3896
38.7284
28.5404
19.1274
10.7114
3.46095
-2.49046
-7.03073
-10.091
-11.6421
-11.6384
-9.99638
-6.50856
-0.966689
7.66345
18.3177
71.303
60.0929
46.9039
32.2867
17.2341
0.876831
-16.2657
-33.757
-51.7154
-69.8786
-88.114
-106.405
-124.583
-142.522
-160.031
-176.86
-192.73
-207.317
-220.242
-231.137
-239.69
-245.539
-248.444
-248.269
-244.916
-238.279
-228.385
-215.518
-200.116
-182.579
-163.165
-142.027
-119.365
-95.3046
-70.4345
-44.3838
-20.8062
5.9905
19.4894
81.3933
90.7063
100.331
109.708
117.933
125.039
130.641
134.373
136.3
136.641
135.616
133.492
130.446
126.585
122.001
116.708
110.708
104.002
96.5846
88.4691
79.695
70.3292
60.4668
50.2891
40.1177
30.3129
21.1663
12.9041
5.71019
-0.266852
-4.90214
-8.11026
-9.84404
-10.0481
-8.62848
-5.39122
-0.151057
7.95235
17.858
66.4016
55.8135
43.3674
29.5937
15.4556
0.111454
-15.9359
-32.2726
-49.0167
-65.9256
-82.8821
-99.8858
-116.79
-133.499
-149.86
-165.645
-180.611
-194.475
-206.895
-217.519
-226.038
-232.111
-235.469
-235.961
-233.481
-227.909
-219.225
-207.628
-193.463
-177.076
-158.725
-138.577
-116.844
-93.6621
-69.6283
-44.4308
-21.4193
4.34609
18.1629
75.9479
84.7638
93.8988
102.83
110.69
117.517
122.951
126.632
128.622
129.13
128.363
126.58
123.948
120.572
116.534
111.846
106.504
100.497
93.8081
86.4326
78.3923
69.7346
60.5343
50.9514
41.29
31.8965
23.0507
14.9793
7.87641
1.90442
-2.80024
-6.1362
-8.03946
-8.44436
-7.24788
-4.26876
0.654979
8.22336
17.3939
61.8063
51.7927
40.0304
27.0352
13.7339
-0.68067
-15.7267
-31.0062
-46.6421
-62.4031
-78.1868
-94.0042
-109.731
-125.285
-140.553
-155.338
-169.415
-182.54
-194.408
-204.692
-213.084
-219.274
-222.97
-224.012
-222.289
-217.671
-210.095
-199.689
-186.712
-171.457
-154.168
-135.021
-114.234
-91.9559
-68.7764
-44.4552
-22.0285
2.68044
16.7215
70.8498
79.2056
87.8863
96.3984
103.914
110.473
115.737
119.354
121.381
122.021
121.471
119.973
117.697
114.741
111.182
107.03
102.278
96.9078
90.8928
84.2144
76.8767
68.9088
60.3644
51.3825
42.2471
33.2883
24.774
16.9277
9.94975
4.01359
-0.733572
-4.17604
-6.23387
-6.83113
-5.85681
-3.1408
1.45517
8.48438
16.9365
57.5026
48.0216
36.8927
24.6163
12.0867
-1.47341
-15.5984
-29.91
-44.5285
-59.2369
-73.9422
-88.6665
-103.3
-117.779
-132.013
-145.842
-159.058
-171.443
-182.729
-192.618
-200.811
-207.026
-210.959
-212.444
-211.368
-207.594
-201.027
-191.728
-179.885
-165.736
-149.503
-131.363
-111.536
-90.1822
-67.8778
-44.4576
-22.6532
1.01595
15.1639
66.0785
74.0073
82.2638
90.3823
97.5701
103.871
108.964
112.507
114.553
115.296
114.926
113.672
111.7
109.108
105.968
102.291
98.0658
93.2726
87.8767
81.8482
75.1771
67.8745
59.9742
51.5925
42.9922
34.4864
26.3299
18.7397
11.9189
6.04883
1.28621
-2.24074
-4.43701
-5.2169
-4.46268
-2.01458
2.24301
8.73211
16.4838
53.4748
44.4893
33.9497
22.3409
10.5243
-2.24634
-15.5228
-28.9428
-42.6261
-56.3661
-70.0801
-83.7959
-97.4186
-110.898
-124.158
-137.073
-149.461
-161.117
-171.805
-181.261
-189.197
-195.359
-199.44
-201.272
-200.742
-197.709
-192.051
-183.777
-173.009
-159.933
-144.743
-127.612
-108.756
-88.3438
-66.9313
-44.427
-23.2806
-0.656497
13.4971
61.6154
69.1448
77.0037
84.7512
91.6279
97.6793
102.602
106.064
108.112
108.936
108.715
107.668
105.958
103.682
100.91
97.6521
93.8975
89.6245
84.7937
79.3671
73.3225
66.6557
59.3815
51.5931
43.5314
35.492
27.7151
20.4088
13.7755
8.00115
3.25045
-0.337806
-2.65508
-3.60613
-3.06812
-0.889784
3.02258
8.97482
16.0467
49.7079
41.1852
31.1951
20.2083
9.05378
-2.98529
-15.4763
-28.0741
-40.893
-53.7409
-66.541
-79.3264
-92.0126
-104.562
-116.914
-128.959
-140.551
-151.498
-161.586
-170.583
-178.218
-184.262
-188.416
-190.508
-190.43
-188.04
-183.197
-175.865
-166.109
-154.067
-139.902
-123.775
-105.896
-86.4394
-65.9365
-44.3676
-23.9198
-2.31779
11.7362
57.4409
64.5957
72.0806
79.4777
86.058
91.8698
96.6241
99.9991
102.037
102.921
102.824
101.955
100.47
98.4688
96.0211
93.1338
89.7977
85.9916
81.674
76.8012
71.3414
65.2766
58.6046
51.3971
43.8728
36.308
28.9274
21.9288
15.5102
9.85969
5.14751
1.5213
-0.898939
-2.00857
-1.68173
0.225498
3.78724
9.20937
15.6237
46.1872
38.0976
28.6221
18.2171
7.67761
-3.68047
-15.443
-27.2784
-39.2997
-51.3222
-63.2779
-75.2025
-87.0214
-98.7059
-110.21
-121.435
-132.264
-142.527
-152.022
-160.545
-167.848
-173.721
-177.884
-180.163
-180.451
-178.612
-174.492
-168.02
-159.213
-148.16
-134.997
-119.864
-102.963
-84.4718
-64.8919
-44.2683
-24.5506
-3.97246
9.92228
53.5368
60.3409
67.4732
74.5374
80.8353
86.416
91.0042
94.2874
96.3045
97.2347
97.2407
96.5229
95.2337
93.4726
91.3078
88.7486
85.7853
82.3975
78.5439
74.1781
69.2604
63.7615
57.6643
51.0209
44.0271
36.9398
29.9678
23.296
17.1168
11.6168
6.96931
3.32881
0.824987
-0.429326
-0.30647
1.33161
4.54132
9.44327
15.2247
42.8984
35.2155
26.2232
16.3632
6.39837
-4.32503
-15.4096
-26.538
-37.8185
-49.0781
-60.2528
-71.3806
-82.3947
-93.2751
-103.985
-114.442
-124.545
-134.148
-143.063
-151.107
-158.058
-163.72
-167.838
-170.237
-170.815
-169.445
-165.963
-160.27
-152.344
-142.234
-130.041
-115.888
-99.9629
-82.4425
-63.7981
-44.1327
-25.1769
-5.59558
8.08086
49.8871
56.3604
63.1601
69.9088
75.9365
81.2938
85.7182
88.9072
90.8965
91.8592
91.9506
91.3625
90.2445
88.6916
86.7754
84.5075
81.8759
78.862
75.4272
71.5229
67.1045
62.134
56.5816
50.4807
44.0059
37.3939
30.8373
24.508
18.5888
13.2631
8.70515
5.07346
2.50527
1.12091
1.04837
2.42037
5.27824
9.67295
14.848
39.8274
32.5279
23.9902
14.6421
5.21557
-4.91494
-15.3667
-25.8363
-36.4298
-46.9811
-57.4312
-67.8202
-78.0884
-88.2218
-98.1921
-107.927
-117.342
-126.313
-134.667
-142.234
-148.819
-154.24
-158.269
-160.732
-161.534
-160.555
-157.631
-152.64
-145.53
-136.311
-125.053
-111.862
-96.9039
-80.3546
-62.6539
-43.9495
-25.7779
-7.18837
6.23224
46.4761
52.6374
59.1218
65.5698
71.3391
76.4807
80.7454
83.8388
85.7941
86.7783
86.9405
86.4642
85.4953
84.126
82.4288
80.4173
78.0802
75.4012
72.3428
68.8571
64.8965
60.416
55.3759
49.7938
43.8223
37.6794
31.5408
25.5646
19.923
14.7934
10.3481
6.74792
4.13554
2.63691
2.37954
3.4916
6.00196
9.90528
14.5024
36.9615
30.0239
21.9149
13.0484
4.12697
-5.44781
-15.308
-25.1636
-35.1165
-45.0092
-54.7875
-64.4904
-74.0653
-83.5045
-92.7839
-101.845
-110.609
-118.975
-126.789
-133.89
-140.103
-145.262
-149.166
-151.647
-152.614
-151.958
-149.517
-145.155
-138.792
-130.411
-120.052
-107.796
-93.793
-78.2123
-61.4589
-43.7221
-26.3552
-8.72806
4.38231
43.2888
49.1549
55.3401
61.5013
67.0233
71.9573
76.0652
79.0631
80.9794
81.9768
82.1975
81.8177
80.9796
79.772
78.2673
76.4816
74.4074
72.0277
69.3073
66.2001
62.6572
58.6287
54.0672
48.9764
43.4899
37.8057
32.0831
26.4663
21.1157
16.2003
11.8888
8.34171
5.70489
4.10802
3.67745
4.53687
6.70588
10.1366
14.1852
34.2886
27.6927
19.9892
11.5769
3.13043
-5.92279
-15.2289
-24.51
-33.8658
-43.1448
-52.2979
-61.3638
-70.2953
-79.0875
-87.7244
-96.1525
-104.306
-112.097
-119.392
-126.039
-131.88
-136.764
-140.516
-142.974
-144.057
-143.665
-141.64
-137.836
-132.157
-124.558
-115.055
-103.706
-90.6406
-76.0189
-60.2137
-43.4403
-26.8914
-10.2167
2.54637
40.3112
45.8977
51.7984
57.6863
62.9714
67.7054
71.6605
74.562
76.4363
77.44
77.7093
77.4128
76.6888
75.6252
74.2895
72.7042
70.8644
68.7523
66.3343
63.5683
60.4046
56.7913
52.6745
48.047
43.0238
37.7841
32.4717
27.2168
22.1669
17.4811
13.3222
9.84869
7.20701
5.52903
4.93874
5.55585
7.39376
10.3723
13.9036
31.7964
25.5245
18.2045
10.2217
2.22231
-6.34001
-15.1258
-23.8702
-32.667
-41.374
-49.945
-58.4184
-66.7507
-74.942
-82.9781
-90.816
-98.3958
-105.642
-112.44
-118.65
-124.125
-128.726
-132.306
-134.71
-135.864
-135.683
-134.012
-130.703
-125.643
-118.772
-110.079
-99.6046
-87.4558
-73.78
-58.9184
-43.106
-27.3882
-11.6336
0.732478
37.53
42.8515
48.4818
54.1086
59.1666
63.708
67.5139
70.3201
72.1494
73.1538
73.4631
73.2391
72.6164
71.6789
70.4957
69.0869
67.4552
65.5804
63.4347
60.975
58.1548
54.9211
51.2157
47.0216
42.4378
37.626
32.7145
27.8196
23.0759
18.6315
14.6417
11.2597
8.6317
6.88971
6.15405
6.54064
8.05899
10.6083
13.6541
29.4736
23.5096
16.5531
8.97683
1.39916
-6.70127
-14.9976
-23.2378
-31.5123
-39.6849
-47.7121
-55.6338
-63.409
-71.0394
-78.5172
-85.8023
-92.8467
-99.5768
-105.901
-111.692
-116.809
-121.126
-124.518
-126.844
-128.036
-128.018
-126.647
-123.772
-119.273
-113.074
-105.146
-95.5083
-84.2489
-71.5022
-57.5741
-42.7124
-27.8302
-12.9804
-1.04227
34.9334
40.003
45.3754
50.7525
55.5933
59.9488
63.6103
66.3215
68.1044
69.105
69.4475
69.2865
68.7523
67.9292
66.8781
65.6287
64.1798
62.5191
60.6163
58.4321
55.9222
53.0335
49.7061
45.9159
41.7466
37.3434
32.8206
28.281
23.8457
19.6513
15.8438
12.5705
9.97401
8.18531
7.32025
7.49049
8.70474
10.849
13.442
27.3109
21.6385
15.0277
7.83597
0.656695
-7.0073
-14.8432
-22.6101
-30.3941
-38.0665
-45.5871
-52.9935
-60.2495
-67.3584
-74.3143
-81.0847
-87.6252
-93.8731
-99.7469
-105.136
-109.907
-113.943
-117.139
-119.366
-120.566
-120.673
-119.553
-117.057
-113.062
-107.481
-100.27
-91.4305
-81.0307
-69.19
-56.1826
-42.2596
-28.2167
-14.2396
-2.76813
32.5095
37.3395
42.4662
47.6049
52.2371
56.4137
59.9347
62.5529
64.2879
65.281
65.6504
65.5445
65.0895
64.3664
63.4378
62.3269
61.0409
59.5715
57.8858
55.9492
53.7182
51.1422
48.1612
44.7451
40.9643
36.9489
32.7999
28.607
24.4787
20.5393
16.9247
13.7742
11.2254
9.40651
8.42859
8.39813
9.32452
11.0895
13.2624
25.2972
19.9026
13.62
6.79347
-0.00913955
-7.26131
-14.6628
-21.9842
-29.3086
-36.5128
-43.5587
-50.4847
-57.2564
-63.8786
-70.349
-76.6373
-82.7083
-88.503
-93.9499
-98.9553
-103.395
-107.156
-110.151
-112.265
-113.449
-113.648
-112.737
-110.571
-107.028
-102.012
-95.4695
-87.3865
-77.8128
-66.8519
-54.7464
-41.7436
-28.5374
-15.412
-4.42821
30.248
34.85
39.742
44.6525
49.0848
53.0887
56.4738
59.0006
60.6876
61.6702
62.0617
62.0039
61.6189
60.9853
60.1646
59.1785
58.0399
56.7382
55.2478
53.5327
51.5523
49.2593
46.5942
43.5228
40.1045
36.4549
32.6626
28.8057
24.98
21.2977
17.8835
14.8682
12.3824
10.5497
9.47632
9.2626
9.92074
11.3332
13.1188
23.4249
18.2933
12.3227
5.84291
-0.602925
-7.4653
-14.4571
-21.3597
-28.2516
-35.0165
-41.6191
-48.0955
-54.4153
-60.5838
-66.6004
-72.4409
-78.0709
-83.443
-88.487
-93.1262
-97.2489
-100.744
-103.537
-105.529
-106.679
-106.941
-106.202
-104.323
-101.182
-96.682
-90.76
-83.3903
-74.6054
-64.4943
-53.2672
-41.1654
-28.7886
-16.4848
-6.01264
28.1386
32.5236
37.1913
41.8832
46.1236
49.9617
53.2146
55.6527
57.2909
58.261
58.6703
58.655
58.3326
57.779
57.0539
56.1834
55.1726
54.0211
52.7049
51.1879
49.4329
47.3954
45.0174
42.2625
39.1802
35.8732
32.4191
28.8849
25.3546
21.9281
18.7192
15.8485
13.4387
11.6075
10.4558
10.0774
10.4873
11.5746
13.0053
21.6839
16.8033
11.1289
4.97882
-1.12873
-7.62241
-14.2269
-20.7341
-27.22
-33.5725
-39.7595
-45.8161
-51.7138
-57.4592
-63.0536
-68.4742
-73.6944
-78.6684
-83.3369
-87.6281
-91.4472
-94.6875
-97.2822
-99.146
-100.248
-100.55
-99.9507
-98.3185
-95.5359
-91.5048
-86.1564
-79.4555
-71.4207
-62.1248
-51.7502
-40.5226
-28.9642
-17.4578
-7.50625
26.1721
30.3499
34.8033
39.2857
43.3423
47.0204
50.1463
52.4968
54.0872
55.0428
55.4668
55.4884
55.2213
54.7401
54.1012
53.3315
52.4386
51.4204
50.2589
48.9185
47.3666
45.5586
43.4409
40.9753
38.2031
35.2154
32.0799
28.8535
25.609
22.435
19.4334
16.7146
14.3926
12.5775
11.3649
10.8412
11.0258
11.8159
12.9236
20.0664
15.4248
10.0324
4.1955
-1.59099
-7.73531
-13.9737
-20.1087
-26.2111
-32.1765
-37.9743
-43.6376
-49.1409
-54.4918
-59.6915
-64.7226
-69.5583
-74.1623
-78.4768
-82.4402
-85.9705
-88.9678
-91.3691
-93.1024
-94.1457
-94.4706
-93.9837
-92.564
-90.0987
-86.4919
-81.6711
-75.5947
-68.2685
-59.7514
-50.1975
-39.8175
-29.0602
-18.3219
-8.90146
24.3395
28.3197
32.5682
36.8501
40.7297
44.2544
47.2565
49.5228
51.0652
52.0052
52.4404
52.495
52.278
51.8612
51.2998
50.6218
49.832
48.9347
47.9091
46.7284
45.3573
43.7566
41.8738
39.6714
37.1842
34.4926
31.6553
28.7203
25.7502
22.8222
20.0273
17.4654
15.2403
13.4546
12.1978
11.5488
11.5302
12.0512
12.8668
18.5647
14.1507
9.02671
3.48789
-1.99395
-7.80733
-13.6995
-19.4822
-25.2247
-30.8259
-36.2579
-41.5536
-46.6885
-51.6704
-56.5032
-61.169
-65.6482
-69.9043
-73.8903
-77.5447
-80.8002
-83.5667
-85.7822
-87.3857
-88.3632
-88.6953
-88.2989
-87.0617
-84.877
-81.6526
-77.3157
-71.8196
-65.1598
-57.382
-48.6151
-39.0506
-29.0742
-19.078
-10.1881
22.6324
26.4238
30.4764
34.566
38.2763
41.6526
44.5361
46.7196
48.2151
49.1381
49.5829
49.6663
49.4942
49.1354
48.6448
48.0469
47.3532
46.5596
45.6567
44.6178
43.4097
41.9947
40.3235
38.3601
36.1335
33.7151
31.1553
28.4945
25.7856
23.0958
20.5051
18.1025
15.9823
14.2384
12.9533
12.199
12.0015
12.2817
12.8355
17.1711
12.9742
8.1061
2.85068
-2.34183
-7.84105
-13.4053
-18.8562
-24.2586
-29.5173
-34.6068
-39.5575
-44.3477
-48.9859
-53.4751
-57.8025
-61.947
-65.8805
-69.5575
-72.9253
-75.9211
-78.467
-80.5046
-81.9813
-82.8897
-83.2179
-82.893
-81.8118
-79.8749
-76.9946
-73.0995
-68.1402
-62.1039
-55.0242
-47.0078
-38.2239
-29.0038
-19.7206
-11.3613
21.043
24.6542
28.5193
32.4248
35.9719
39.2062
41.9741
44.0781
45.527
46.4328
46.8843
46.9937
46.8619
46.5561
46.1278
45.6039
44.9932
44.2961
43.5013
42.5884
41.5251
40.2766
38.7967
37.0495
35.06
32.8922
30.5896
28.185
25.7232
23.2616
20.8701
18.6274
16.6177
14.9258
13.6274
12.7879
12.4343
12.5013
12.8222
15.879
11.8892
7.26469
2.27914
-2.63851
-7.84012
-13.094
-18.2307
-23.313
-28.2495
-33.0164
-37.6444
-42.1122
-46.4287
-50.5989
-54.6088
-58.4438
-62.075
-65.4648
-68.5638
-71.3166
-73.6539
-75.5223
-76.877
-77.7145
-78.0303
-77.7611
-76.8132
-75.0947
-72.5235
-69.0307
-64.5658
-59.1099
-52.6863
-45.3802
-37.3406
-28.849
-20.2517
-12.4154
19.5638
23.0029
26.6885
30.4173
33.8085
36.9052
39.5626
41.5885
42.9922
43.8797
44.3368
44.4689
44.3735
44.1151
43.7441
43.2856
42.7509
42.1376
41.441
40.6389
39.7056
38.6069
37.2981
35.7461
33.9718
32.033
29.9671
27.8008
25.571
23.3267
21.1281
19.0439
17.1486
15.5179
14.2205
13.3146
12.8291
12.7102
12.8263
14.6818
10.8895
6.49726
1.76856
-2.88804
-7.8069
-12.7669
-17.6072
-22.3866
-27.0199
-31.4848
-35.8098
-39.976
-43.9925
-47.8638
-51.5799
-55.1246
-58.476
-61.5969
-64.446
-66.9718
-69.1131
-70.8218
-72.0591
-72.8256
-73.1232
-72.8973
-72.0633
-70.5371
-68.2429
-65.1152
-61.1039
-56.1859
-50.3748
-43.7391
-36.4047
-28.6103
-20.6693
-13.348
18.1878
21.4625
24.9763
28.5362
31.777
34.7423
37.2919
39.2431
40.6018
41.471
41.9312
42.0836
42.0213
41.806
41.4863
41.0875
40.6193
40.0848
39.472
38.7694
37.9522
36.9866
35.8321
34.4554
32.8758
31.1456
29.2969
27.3507
25.3374
23.2982
21.2845
19.3556
17.5767
16.0145
14.7296
13.7768
13.1813
12.9026
12.8404
13.5732
9.96924
5.79854
1.3146
-3.09403
-7.74466
-12.4262
-16.9857
-21.4804
-25.8282
-30.0086
-34.0498
-37.9338
-41.6699
-45.2637
-48.7041
-51.9808
-55.0701
-57.9425
-60.5579
-62.8709
-64.8301
-66.3891
-67.515
-68.2119
-68.4872
-68.2944
-67.5579
-66.2011
-64.1547
-61.3574
-57.761
-53.339
-48.0979
-42.0893
-35.4207
-28.2904
-20.9766
-14.1575
16.9085
20.0261
23.3755
26.7729
29.8703
32.7083
35.1551
37.0328
38.3481
39.1983
39.6608
39.8308
39.7979
39.6217
39.3485
39.0029
38.5958
38.1286
37.5944
36.9795
36.2642
35.4184
34.4012
33.1823
31.7786
30.2378
28.5869
26.843
25.0306
23.1837
21.3459
19.568
17.9059
16.418
15.1583
14.174
13.4908
13.0781
12.863
12.5474
9.12324
5.16379
0.912799
-3.26006
-7.65595
-12.0737
-16.3684
-20.5934
-24.6724
-28.5861
-32.361
-35.9811
-39.4556
-42.7893
-45.9752
-49.0005
-51.8484
-54.4882
-56.8877
-59.0034
-60.7908
-62.2102
-63.2315
-63.8615
-64.1122
-63.9449
-63.2919
-62.0844
-60.2595
-57.7607
-54.5419
-50.5755
-45.8611
-40.4384
-34.3934
-27.8919
-21.1747
-14.844
15.7197
18.6871
21.8792
25.1214
28.0802
30.7968
33.1434
34.9509
36.2233
37.0544
37.5172
37.7029
37.6967
37.5556
37.3241
37.0268
36.6733
36.2683
35.8017
35.2663
34.6421
33.9016
33.0076
31.9306
30.6862
29.316
27.845
26.2859
24.6586
22.991
21.3193
19.6864
18.1402
16.7307
15.5056
14.5043
13.7538
13.2311
12.8873
11.599
8.34637
4.58832
0.559308
-3.38953
-7.54384
-11.7114
-15.7553
-19.7266
-23.5525
-27.2151
-30.7407
-34.1137
-37.3435
-40.4362
-43.3831
-46.177
-48.7986
-51.2245
-53.423
-55.356
-56.9837
-58.2722
-59.1956
-59.7626
-59.9882
-59.8403
-59.259
-58.1833
-56.556
-54.3261
-51.4503
-47.9003
-43.6715
-38.7906
-33.3288
-27.4195
-21.2684
-15.409
14.6155
17.4393
20.481
23.574
26.4006
28.9996
31.2506
32.9894
34.2203
35.032
35.4945
35.6935
35.7107
35.6014
35.4077
35.153
34.8491
34.4975
34.0949
33.6273
33.0831
32.4367
31.6529
30.7044
29.6021
28.3863
27.0775
25.6866
24.2292
22.7276
21.2117
19.7171
18.2846
16.9565
15.7736
14.77
13.9714
13.3613
12.9112
10.7227
7.63377
4.06786
0.250138
-3.48569
-7.4105
-11.3411
-15.1483
-18.8796
-22.4672
-25.8946
-29.1859
-32.3279
-35.3296
-38.1965
-40.9232
-43.5
-45.9138
-48.14
-50.1528
-51.9167
-53.3963
-54.5634
-55.396
-55.9043
-56.1049
-55.9717
-55.4523
-54.4927
-53.0419
-51.0538
-48.4883
-45.3178
-41.5334
-37.1536
-32.2324
-26.8778
-21.2612
-15.8557
13.5903
16.277
19.1746
22.1251
24.8242
27.311
29.469
31.1422
32.3321
33.1245
33.585
33.7956
33.8342
33.7531
33.5931
33.3774
33.1162
32.8142
32.4654
32.0613
31.5873
31.0239
30.339
29.5041
28.5314
27.4534
26.2906
25.0522
23.75
22.4013
21.0304
19.667
18.3446
17.0991
15.9653
14.971
14.141
13.4639
12.9282
9.91363
6.9809
3.59825
-0.0182183
-3.55144
-7.25868
-10.9649
-14.5477
-18.0532
-21.4163
-24.6221
-27.6945
-30.6204
-33.4089
-36.0666
-38.5867
-40.9641
-43.1835
-45.2265
-47.0666
-48.6749
-50.0177
-51.0726
-51.8217
-52.2751
-52.4512
-52.3295
-51.8639
-51.0069
-49.7135
-47.9425
-45.6573
-42.831
-39.4523
-35.5316
-31.1104
-26.2729
-21.1595
-16.1884
12.6391
15.1948
17.9544
20.768
23.3455
25.7237
27.7932
29.4018
30.5524
31.3253
31.7835
32.0037
32.0607
32.0051
31.8754
31.6935
31.4718
31.212
30.9133
30.5625
30.1527
29.6634
29.0649
28.3343
27.4756
26.5213
25.4901
24.3894
23.228
22.0194
20.783
19.5427
18.3264
17.1638
16.0836
15.1097
14.2637
13.5385
12.9365
9.16718
6.38348
3.17561
-0.249233
-3.59003
-7.09046
-10.584
-13.9551
-17.247
-20.399
-23.3972
-26.2639
-28.9879
-31.578
-34.0397
-36.3696
-38.5603
-40.6015
-42.4735
-44.1557
-45.6194
-46.8366
-47.789
-48.4612
-48.8639
-49.0169
-48.9039
-48.4854
-47.7194
-46.5664
-44.9898
-42.9569
-40.4416
-37.4315
-33.9309
-29.969
-25.6111
-20.969
-16.412
11.7568
14.1873
16.8149
19.4976
21.9577
24.2324
26.2156
27.7632
28.8747
29.6284
30.0828
30.3114
30.3852
30.352
30.249
30.0982
29.9096
29.6895
29.4323
29.133
28.7773
28.3525
27.8334
27.1927
26.437
25.5939
24.6811
23.7042
22.6703
21.5894
20.4768
19.3517
18.2366
17.1557
16.133
15.1876
14.3386
13.5817
12.9307
8.47898
5.83757
2.79625
-0.446043
-3.60397
-6.90823
-10.2004
-13.371
-16.4619
-19.4151
-22.2179
-24.8923
-27.4276
-29.8322
-32.113
-34.2646
-36.284
-38.1587
-39.8745
-41.4098
-42.7422
-43.8439
-44.7015
-45.3031
-45.6596
-45.7911
-45.6854
-45.3082
-44.6228
-43.5948
-42.1924
-40.3857
-38.1512
-35.4744
-32.3556
-28.8148