/*--------------------------------*- C++ -*----------------------------------*\
| =========                 |                                                 |
| \\      /  F ield         | OpenFOAM: The Open Source CFD Toolbox           |
|  \\    /   O peration     | Version:  2506                                  |
|   \\  /    A nd           | Website:  www.openfoam.com                      |
|    \\/     M anipulation  |                                                 |
\*---------------------------------------------------------------------------*/
FoamFile
{
    version     2.0;
    format      ascii;
    arch        "LSB;label=32;scalar=64";
    class       volScalarField;
    location    "100";
    object      turbulenceProperties:k;
}
// * * * * * * * * * * * * * * * * * * * * * * * * * * * * * * * * * * * * * //

dimensions      [0 2 -2 0 0 0 0];

internalField   nonuniform List<scalar> 
10720
(
0.0140388
0.016506
0.0196817
0.0239675
0.029085
0.035611
0.0439665
0.0543474
0.0675296
0.0843276
0.105863
0.134253
0.172763
0.225942
0.300857
0.410485
0.573923
0.834722
1.24197
1.99826
3.17435
6.04785
10.4158
25.4863
42.6242
47.3485
45.9255
44.2221
43.0269
41.6078
39.4191
36.434
32.7245
28.3186
22.9608
17.3885
11.0987
6.64529
0.619755
0.0118397
0.0100458
0.00809636
0.00642565
0.004898
0.00369152
0.00311957
0.00360807
0.00488671
0.00700117
0.0101401
0.0146113
0.0208647
0.0295259
0.0414548
0.0581945
0.0824317
0.118967
0.176598
0.270636
0.433566
0.719211
1.27644
2.32073
4.69686
9.42977
21.3578
39.4483
51.5792
56.1609
57.3091
57.3896
56.9606
56.1237
54.9357
53.4983
51.4567
49.4219
39.6397
0.00281757
0.00281579
0.00279011
0.00271999
0.00260976
0.00247699
0.0023162
0.00213274
0.00194669
0.00175934
0.00157952
0.00142253
0.00128353
0.00120786
0.00129194
0.00164309
0.00267158
0.00530767
0.0114611
0.029043
0.0729998
0.229762
0.609962
1.96225
5.10412
9.00923
13.1335
16.7982
19.0159
18.967
17.0842
14.6173
12.3987
10.6361
9.26115
7.94659
6.62047
4.61615
6.89259
0.00278219
0.00273012
0.00264841
0.00252594
0.00235287
0.00214907
0.00195892
0.00175462
0.00153438
0.00132283
0.00113106
0.000960424
0.000809248
0.000676263
0.000561734
0.000465456
0.000384041
0.000315622
0.000255474
0.000199941
0.000143717
8.69219e-05
3.69944e-05
1.18865e-05
0.000277471
0.00306438
0.0192606
0.11692
0.32566
0.580628
0.82663
1.03219
1.19553
1.3317
1.45298
1.57325
1.69019
1.96228
2.48624
0.00193093
0.00190528
0.0018537
0.00177879
0.00169838
0.00160846
0.00151478
0.00142834
0.00135194
0.00129034
0.00124322
0.0012098
0.00118725
0.00117799
0.00118117
0.00120727
0.00117098
0.00109635
0.000584247
8.17062e-06
0.00701375
0.0042516
0.00317797
0.0283341
0.00331491
0.0670352
0.314428
0.997249
2.53922
5.24198
8.6322
11.324
12.2683
11.6943
10.5115
9.11498
7.88704
5.7286
7.71408
0.00195002
0.00195284
0.00194732
0.00190765
0.00182629
0.00170356
0.00156914
0.00143421
0.00127752
0.00110305
0.000926397
0.000762292
0.000617519
0.000494276
0.000395633
0.00031965
0.00026366
0.00022381
0.000196877
0.000179295
0.000168587
0.000163513
0.000163236
0.000166555
0.000170965
0.000172861
0.000173369
0.00011691
0.00143458
0.00655502
0.0160596
0.0331643
0.0755996
0.153006
0.260456
0.384497
0.516569
0.593519
0.93994
0.001575
0.00157785
0.00157021
0.00155634
0.00152997
0.00149103
0.00144263
0.00138284
0.00131447
0.00123891
0.00115793
0.00107423
0.000989939
0.000904195
0.000817816
0.000730583
0.000636426
0.000540871
0.000444123
0.000322702
0.00015885
2.38472e-06
0.000244147
0
0.00251846
0.0153607
0.0377712
0.000853748
0.00831356
0.0299738
0.399128
1.75193
4.46764
7.55875
9.492
9.84728
9.44279
7.296
8.88259
0.00156049
0.00153963
0.00150701
0.00146161
0.00139934
0.00132092
0.0012362
0.00113842
0.00102641
0.000909187
0.000795699
0.000691962
0.000599765
0.000519281
0.000451024
0.000393784
0.000346698
0.000308257
0.000277485
0.000252406
0.000231994
0.000214679
0.000198828
0.00018149
0.000163213
0.000148239
0.000136743
0.00012981
0.000110952
0.000122362
2.81458e-05
4.3486e-05
0.000448992
0.000637062
0.00337828
0.014845
0.0445618
0.0976124
0.366468
0.00120387
0.0012001
0.00118983
0.00117195
0.00114549
0.00110998
0.00106693
0.00101685
0.000961321
0.000903295
0.000844804
0.000788142
0.000735396
0.000688068
0.000647089
0.000613868
0.000587646
0.000561684
0.000530547
0.000492339
0.000416965
0.000275041
0.000116244
1.6249e-05
4.53746e-06
0
0
5.11283e-05
0.00386978
0.0276286
0.0814249
0.0369843
0.117757
1.336
4.4147
7.7668
9.74324
8.57373
10.2018
0.00120121
0.00119366
0.00117724
0.00114733
0.00110486
0.00105109
0.000991943
0.000923563
0.000845726
0.000762713
0.000678069
0.000595391
0.00051703
0.000444418
0.00037921
0.000322232
0.000273762
0.000233603
0.000201309
0.000175806
0.000156082
0.000140838
0.000128705
0.000117306
0.000105294
9.38497e-05
8.52341e-05
7.98255e-05
7.87387e-05
7.26266e-05
9.29181e-05
7.72682e-07
0.000205724
3.19909e-06
0.00173834
7.52819e-06
0.00120954
0.00243901
0.0549092
0.000975508
0.00097824
0.000977056
0.000972243
0.000962075
0.000946276
0.000925302
0.000898626
0.000866721
0.000830439
0.000790157
0.00074675
0.000701143
0.000654041
0.000606254
0.000558744
0.000510453
0.000458045
0.000404093
0.000353634
0.000307461
0.000272437
0.000227224
0.000167507
5.655e-05
8.15411e-06
4.28668e-06
1.43824e-06
0
0
0
0.0127897
0.0163543
0.0622953
0.505112
3.45309
7.88538
9.02557
11.4982
0.000968071
0.000957889
0.000942282
0.000917579
0.000885922
0.00084825
0.00080616
0.000756943
0.00070114
0.000641391
0.000579823
0.000519029
0.000460924
0.000406754
0.000357644
0.000314329
0.000277037
0.00024554
0.000219409
0.000197894
0.000180126
0.000164981
0.000151227
0.000137063
0.000121661
0.000106553
9.32184e-05
8.2036e-05
7.26633e-05
6.48712e-05
5.7989e-05
5.07686e-05
3.89296e-05
2.00076e-05
1.45009e-06
1.65495e-06
0.000205913
0.000577198
0.00417323
0.00079069
0.000793356
0.000793504
0.000790729
0.000784081
0.000773143
0.000757959
0.000738134
0.000713828
0.000685626
0.000653952
0.000619624
0.000583543
0.000546603
0.000509723
0.000473734
0.000439655
0.000409254
0.000381039
0.000352481
0.000322466
0.000292673
0.000269611
0.000244716
0.00020213
0.000142361
8.59156e-05
2.45652e-05
4.80475e-06
1.26354e-06
0
0
0.00225535
0.0232922
0.02359
0.536791
4.40478
8.0976
12.3627
0.000784353
0.000776205
0.000764223
0.000745047
0.000721395
0.000694264
0.000663392
0.00062734
0.000586929
0.00054348
0.000498109
0.00045229
0.00040726
0.000363932
0.000323183
0.000285798
0.000252225
0.000222703
0.000197265
0.000175624
0.00015737
0.000141811
0.000128057
0.000114778
0.000101117
8.78488e-05
7.60746e-05
6.62911e-05
5.8266e-05
5.18753e-05
4.72656e-05
4.43656e-05
4.20123e-05
3.8386e-05
3.22044e-05
1.81952e-05
1.78338e-06
1.04867e-08
0.000960422
0.000652214
0.000656032
0.000658311
0.000658631
0.0006565
0.000651401
0.000643388
0.00063205
0.000617327
0.000599524
0.000578635
0.000555007
0.000529122
0.000501327
0.000472132
0.000441996
0.000411503
0.000380132
0.000347154
0.000314119
0.000282956
0.000254938
0.000232249
0.0002146
0.000199553
0.00017933
0.000154264
0.000118517
8.24061e-05
2.42987e-05
3.97141e-06
9.86067e-08
0
0
0.00695353
0.0240652
1.44203
5.82432
12.2783
0.000645556
0.000637972
0.000627939
0.000612672
0.000594665
0.000574544
0.000551496
0.000524652
0.000494874
0.00046285
0.000429105
0.000394596
0.000360209
0.000326535
0.000294286
0.000264198
0.000236701
0.000212141
0.000190634
0.000172034
0.000156006
0.000141979
0.000129194
0.000116637
0.000103689
9.09396e-05
7.9256e-05
6.89968e-05
5.99588e-05
5.1961e-05
4.50049e-05
3.89007e-05
3.3559e-05
2.89916e-05
2.53883e-05
2.06556e-05
1.72375e-05
1.37548e-07
7.60338e-11
0.000542291
0.000546298
0.000549402
0.000550902
0.000550694
0.000548345
0.000543717
0.000536475
0.000526529
0.00051394
0.000498691
0.000480946
0.000460995
0.000439114
0.000415745
0.000391353
0.000366324
0.000341258
0.000316859
0.00029302
0.000269669
0.000246999
0.000225763
0.000206491
0.000188785
0.000171385
0.000154118
0.000138387
0.00012384
9.86757e-05
7.2183e-05
2.07093e-06
5.215e-07
0
0
0.0132159
0.233379
3.16761
10.9436
0.000536207
0.000529593
0.00052136
0.000509236
0.000495417
0.000480083
0.000462568
0.000442304
0.000420055
0.000396188
0.000370912
0.000344814
0.000318424
0.000292113
0.000266384
0.000241732
0.000218604
0.000197341
0.000178127
0.000160998
0.000145815
0.000132246
0.000119765
0.000107669
9.55174e-05
8.36457e-05
7.27771e-05
6.32165e-05
5.4924e-05
4.7711e-05
4.15696e-05
3.65799e-05
3.26545e-05
2.9708e-05
2.77166e-05
2.72348e-05
2.63005e-05
3.54468e-05
1.76582e-06
0.000455066
0.000459225
0.000462738
0.000465127
0.000466343
0.000465992
0.000464047
0.000460134
0.000454129
0.000446083
0.000435861
0.000423531
0.000409202
0.000393039
0.000375273
0.000356191
0.000336056
0.000315294
0.000293661
0.000271451
0.000249559
0.000228823
0.000209845
0.000192543
0.000175816
0.000158866
0.000142019
0.000127285
0.000116068
0.000108069
0.000101588
7.95596e-05
9.58485e-06
4.97463e-07
0
0.000524456
0.0200062
1.19678
8.55151
0.000449538
0.000443827
0.000437019
0.0004273
0.000416517
0.000404564
0.000390965
0.000375496
0.000358684
0.000340659
0.000321566
0.000301749
0.000281481
0.000260986
0.000240607
0.000220706
0.000201669
0.000183798
0.000167304
0.000152286
0.000138708
0.000126353
0.000114833
0.00010367
9.25198e-05
8.1608e-05
7.14883e-05
6.24357e-05
5.44343e-05
4.73017e-05
4.09962e-05
3.55235e-05
3.08264e-05
2.69432e-05
2.38122e-05
2.23624e-05
2.02794e-05
2.94614e-05
2.18171e-05
0.000384694
0.000388638
0.000392185
0.000394928
0.000396817
0.000397658
0.000397304
0.000395387
0.000391908
0.000386767
0.000379788
0.000371026
0.000360524
0.000348312
0.000334535
0.000319413
0.000303127
0.000286054
0.000268412
0.00025054
0.00023268
0.000215288
0.000198699
0.000183015
0.000167591
0.000151745
0.000135671
0.000120707
0.000108129
9.93249e-05
9.28356e-05
9.49003e-05
8.3045e-05
7.46102e-06
6.97564e-09
0
0.00697011
0.242645
5.74167
0.000379847
0.000375057
0.000369489
0.000361621
0.000353029
0.000343521
0.000332773
0.000320773
0.000307888
0.000294171
0.000279618
0.000264474
0.000248871
0.000232924
0.000216805
0.000200792
0.000185151
0.00017011
0.000155913
0.000142659
0.000130382
0.000118974
0.000108194
9.77266e-05
8.73506e-05
7.72455e-05
6.77978e-05
5.93007e-05
5.17309e-05
4.50407e-05
3.916e-05
3.41402e-05
2.99718e-05
2.66731e-05
2.41313e-05
2.29966e-05
2.18443e-05
2.59087e-05
3.48679e-05
0.000327504
0.000331048
0.000334483
0.000337326
0.000339567
0.000341132
0.000341787
0.000341304
0.000339623
0.000336593
0.000332149
0.00032618
0.000318755
0.000309834
0.000299476
0.00028778
0.000274947
0.000261168
0.000246652
0.000231427
0.000215896
0.000200639
0.000186008
0.000172029
0.000158286
0.000144195
0.000129827
0.000116135
0.000104089
9.43337e-05
8.64202e-05
8.1589e-05
8.97662e-05
6.91034e-05
2.7556e-06
0
0
0.0519945
3.23954
0.000323378
0.000319368
0.00031479
0.000308319
0.000301366
0.000293655
0.000285021
0.000275588
0.000265593
0.000255019
0.000243836
0.000232191
0.000220146
0.00020771
0.000194988
0.000182174
0.000169406
0.00015689
0.000144799
0.000133275
0.000122391
0.000112102
0.00010224
9.26147e-05
8.31121e-05
7.38519e-05
6.51453e-05
5.723e-05
5.01078e-05
4.37469e-05
3.81007e-05
3.32072e-05
2.90034e-05
2.55705e-05
2.28174e-05
2.13389e-05
2.00552e-05
2.27137e-05
3.22761e-05
0.000280627
0.000283682
0.000286879
0.000289636
0.000292023
0.000293919
0.000295173
0.000295586
0.000295054
0.000293483
0.000290752
0.000286831
0.000281611
0.000275124
0.000267364
0.00025837
0.000248257
0.000237146
0.0002253
0.000212794
0.000199868
0.000186934
0.000174242
0.000161855
0.000149538
0.000136902
0.000124036
0.000111678
0.000100711
9.13325e-05
8.37452e-05
7.66271e-05
7.29356e-05
9.03922e-05
3.84308e-05
3.6537e-08
0
0.0084033
1.48595
0.000277145
0.00027372
0.000269907
0.000264507
0.000258804
0.000252491
0.000245496
0.00023798
0.000230137
0.000221905
0.00021324
0.000204213
0.00019486
0.000185149
0.000175111
0.00016486
0.000154478
0.000144111
0.000133894
0.000123948
0.000114351
0.000105094
9.61053e-05
8.72774e-05
7.85604e-05
7.0069e-05
6.20267e-05
5.46396e-05
4.79756e-05
4.19749e-05
3.66417e-05
3.19992e-05
2.80441e-05
2.48227e-05
2.22635e-05
2.08241e-05
1.95825e-05
2.14556e-05
2.87406e-05
0.00024186
0.000244462
0.000247371
0.000249966
0.000252322
0.000254384
0.000255959
0.000256893
0.000257114
0.000256545
0.000255054
0.000252578
0.000249044
0.000244438
0.000238734
0.000231962
0.000224112
0.000215308
0.000205751
0.000195472
0.000184617
0.000173583
0.000162598
0.000151735
0.000140799
0.000129567
0.000118108
0.000107001
9.70259e-05
8.84225e-05
8.11858e-05
7.547e-05
6.67392e-05
7.53129e-05
7.69153e-05
1.22063e-06
0
0.00340683
0.519505
0.000238855
0.000235838
0.000232546
0.000228048
0.000223333
0.000218141
0.000212448
0.000206421
0.000200184
0.000193731
0.000186966
0.000179929
0.000172627
0.000165012
0.000157093
0.000148905
0.000140492
0.000131945
0.000123377
0.000114859
0.000106465
9.82305e-05
9.01223e-05
8.21156e-05
7.41907e-05
6.6455e-05
5.90815e-05
5.22447e-05
4.60166e-05
4.03864e-05
3.53483e-05
3.09047e-05
2.70966e-05
2.39279e-05
2.1377e-05
1.98274e-05
1.8447e-05
1.97665e-05
2.55986e-05
0.00020943
0.000211708
0.00021433
0.000216726
0.000218988
0.000221063
0.000222763
0.000224011
0.000224701
0.000224768
0.00022414
0.000222675
0.000220407
0.000217187
0.000213049
0.000207988
0.000201989
0.000195078
0.000187442
0.000179086
0.000170133
0.000160851
0.000151454
0.000142001
0.00013237
0.000122423
0.000112237
0.000102269
9.31804e-05
8.53224e-05
7.83804e-05
7.34864e-05
6.67343e-05
6.17639e-05
8.69503e-05
1.35227e-05
9.9401e-09
0.000873097
0.105384
0.000206726
0.00020401
0.000201117
0.000197349
0.000193432
0.000189175
0.000184538
0.00017969
0.000174723
0.000169598
0.000164316
0.000158784
0.000153061
0.000147077
0.000140812
0.000134284
0.00012748
0.000120461
0.000113292
0.00010603
9.87635e-05
9.15001e-05
8.42491e-05
7.70141e-05
6.98317e-05
6.27901e-05
5.60533e-05
4.97486e-05
4.39565e-05
3.86728e-05
3.39234e-05
2.97281e-05
2.60968e-05
2.30694e-05
2.05949e-05
1.90265e-05
1.75887e-05
1.83143e-05
2.28597e-05
0.000181983
0.000184086
0.000186452
0.000188631
0.000190778
0.000192803
0.00019455
0.00019595
0.000196924
0.000197422
0.000197376
0.000196637
0.000195227
0.000193084
0.000190155
0.000186431
0.00018191
0.00017656
0.000170507
0.000163783
0.000156444
0.000148675
0.000140686
0.000132533
0.000124153
0.000115399
0.000106396
9.75171e-05
8.92696e-05
8.20657e-05
7.56216e-05
7.06127e-05
6.65313e-05
5.7501e-05
7.31929e-05
4.95998e-05
4.65372e-08
0
0.0289478
0.000179493
0.000176996
0.000174465
0.000171295
0.000168039
0.000164543
0.000160754
0.000156857
0.000152879
0.000148847
0.000144666
0.000140336
0.000135837
0.00013111
0.000126153
0.000120925
0.000115431
0.000109681
0.000103712
9.75702e-05
9.13087e-05
8.49489e-05
7.85101e-05
7.20238e-05
6.55587e-05
5.91943e-05
5.30607e-05
4.72712e-05
4.19095e-05
3.69881e-05
3.25203e-05
2.85541e-05
2.50982e-05
2.21733e-05
1.97476e-05
1.81071e-05
1.66028e-05
1.68403e-05
2.03165e-05
0.000158517
0.00016051
0.000162675
0.00016469
0.000166704
0.000168642
0.000170386
0.000171859
0.000172996
0.000173772
0.000174086
0.000173918
0.000173109
0.000171758
0.000169745
0.000167051
0.000163677
0.000159588
0.00015483
0.000149475
0.000143517
0.000137078
0.000130348
0.000123397
0.00011615
0.000108526
0.000100618
9.2747e-05
8.53103e-05
7.87031e-05
7.28589e-05
6.76918e-05
6.46752e-05
5.73293e-05
5.91219e-05
7.42553e-05
4.7064e-07
0
0.000820011
0.000156235
0.00015397
0.000151765
0.000149095
0.00014637
0.000143467
0.000140372
0.000137231
0.000134057
0.000130848
0.000127562
0.000124182
0.000120611
0.000116883
0.000112945
0.00010878
0.000104333
9.96381e-05
9.46908e-05
8.9521e-05
8.41567e-05
7.86202e-05
7.29419e-05
6.71725e-05
6.13743e-05
5.56389e-05
5.00736e-05
4.47828e-05
3.98267e-05
3.52606e-05
3.10893e-05
2.73411e-05
2.40572e-05
2.12475e-05
1.88914e-05
1.7222e-05
1.56667e-05
1.54739e-05
1.79863e-05
0.000138367
0.000140238
0.000142235
0.000144123
0.000146007
0.000147855
0.00014956
0.000151049
0.000152283
0.000153224
0.000153809
0.000153989
0.000153704
0.000152889
0.000151589
0.000149684
0.000147195
0.000144117
0.000140429
0.000136208
0.000131405
0.000126115
0.000120494
0.000114615
0.00010839
0.000101806
9.49068e-05
8.7963e-05
8.13281e-05
7.52865e-05
6.99863e-05
6.50117e-05
6.19049e-05
5.74267e-05
5.12436e-05
7.70853e-05
3.36607e-06
2.33913e-09
0
0.000136311
0.000134305
0.000132399
0.00013013
0.000127825
0.000125393
0.000122851
0.000120296
0.000117746
0.000115182
0.000112602
0.000109949
0.000107146
0.000104197
0.000101068
9.77343e-05
9.41473e-05
9.03269e-05
8.62389e-05
8.18988e-05
7.73345e-05
7.25601e-05
6.7591e-05
6.24736e-05
5.72945e-05
5.215e-05
4.71253e-05
4.2308e-05
3.77624e-05
3.35246e-05
2.96392e-05
2.61221e-05
2.30048e-05
2.03159e-05
1.80156e-05
1.63178e-05
1.47081e-05
1.41623e-05
1.58471e-05
0.000121036
0.000122742
0.000124603
0.000126349
0.000128112
0.000129872
0.00013151
0.000132986
0.00013427
0.000135306
0.000136066
0.000136485
0.000136574
0.000136186
0.000135397
0.000134111
0.000132329
0.000130039
0.000127227
0.000123931
0.000120105
0.000115792
0.000111145
0.000106191
0.000100917
9.52537e-05
8.9275e-05
8.32004e-05
7.73066e-05
7.18294e-05
6.69923e-05
6.24558e-05
5.89643e-05
5.65088e-05
4.75231e-05
7.0301e-05
2.37414e-05
2.04101e-08
0
0.000119246
0.000117496
0.000115849
0.000113894
0.000111919
0.000109863
0.000107745
0.00010565
0.000103589
0.000101538
9.94775e-05
9.7393e-05
9.52165e-05
9.28672e-05
9.03909e-05
8.77269e-05
8.48458e-05
8.17335e-05
7.83621e-05
7.47499e-05
7.08763e-05
6.67627e-05
6.24381e-05
5.79338e-05
5.33423e-05
4.87486e-05
4.4224e-05
3.98551e-05
3.57028e-05
3.17993e-05
2.81722e-05
2.48802e-05
2.19379e-05
1.937e-05
1.71308e-05
1.5409e-05
1.37596e-05
1.29232e-05
1.38983e-05
0.00010613
0.000107652
0.000109341
0.000110949
0.000112599
0.000114253
0.000115807
0.000117248
0.000118532
0.000119625
0.000120486
0.000121088
0.00012141
0.000121386
0.000120963
0.000120172
0.000118929
0.000117268
0.000115146
0.000112612
0.000109597
0.000106121
0.0001023
9.8178e-05
9.37283e-05
8.89023e-05
8.37696e-05
7.84715e-05
7.32655e-05
6.83507e-05
6.39228e-05
5.98681e-05
5.61695e-05
5.46681e-05
4.57598e-05
6.12664e-05
4.24664e-05
4.48522e-08
0
0.000104598
0.000103083
0.000101643
9.99615e-05
9.82469e-05
9.64778e-05
9.46973e-05
9.29599e-05
9.1279e-05
8.96214e-05
8.79762e-05
8.63224e-05
8.46061e-05
8.27681e-05
8.07991e-05
7.86654e-05
7.63534e-05
7.38241e-05
7.10563e-05
6.80437e-05
6.47807e-05
6.1272e-05
5.75178e-05
5.35765e-05
4.95234e-05
4.54417e-05
4.139e-05
3.74368e-05
3.36478e-05
3.00632e-05
2.67111e-05
2.36344e-05
2.08559e-05
1.84008e-05
1.62373e-05
1.44985e-05
1.28227e-05
1.17525e-05
1.21303e-05
9.33041e-05
9.46249e-05
9.61431e-05
9.76222e-05
9.91353e-05
0.000100664
0.000102128
0.000103504
0.00010476
0.000105864
0.000106789
0.000107507
0.000107985
0.000108204
0.000108084
0.000107655
0.000106844
0.000105674
0.000104119
0.000102207
9.98636e-05
9.70938e-05
9.39819e-05
9.05833e-05
8.68542e-05
8.27794e-05
7.8385e-05
7.38069e-05
6.9241e-05
6.48624e-05
6.08266e-05
5.71931e-05
5.35452e-05
5.22872e-05
4.46755e-05
5.31174e-05
5.36807e-05
1.50039e-07
0
9.19781e-05
9.06607e-05
8.9392e-05
8.79337e-05
8.64396e-05
8.4909e-05
8.34009e-05
8.19431e-05
8.05544e-05
7.92133e-05
7.78757e-05
7.65542e-05
7.51926e-05
7.37462e-05
7.21767e-05
7.04811e-05
6.86181e-05
6.65633e-05
6.43002e-05
6.18008e-05
5.90582e-05
5.60734e-05
5.28491e-05
4.9417e-05
4.58506e-05
4.22318e-05
3.86222e-05
3.50697e-05
3.16299e-05
2.83456e-05
2.52585e-05
2.23902e-05
1.97741e-05
1.74302e-05
1.53449e-05
1.36025e-05
1.1911e-05
1.065e-05
1.05314e-05
8.22126e-05
8.3364e-05
8.4727e-05
8.60574e-05
8.74364e-05
8.88432e-05
9.01976e-05
9.14927e-05
9.27014e-05
9.37878e-05
9.47306e-05
9.55112e-05
9.60984e-05
9.64643e-05
9.65886e-05
9.6417e-05
9.59623e-05
9.51718e-05
9.40641e-05
9.26498e-05
9.08668e-05
8.86875e-05
8.61855e-05
8.33954e-05
8.03183e-05
7.6896e-05
7.31631e-05
6.92298e-05
6.52496e-05
6.13768e-05
5.77181e-05
5.44499e-05
5.10178e-05
4.96824e-05
4.36483e-05
4.64812e-05
5.76688e-05
3.60233e-07
4.57742e-10
8.10564e-05
7.98862e-05
7.87607e-05
7.74892e-05
7.61871e-05
7.48689e-05
7.3582e-05
7.23512e-05
7.11905e-05
7.00842e-05
6.90057e-05
6.79271e-05
6.68438e-05
6.57077e-05
6.44522e-05
6.30955e-05
6.15935e-05
5.99291e-05
5.80701e-05
5.60037e-05
5.37152e-05
5.11915e-05
4.84163e-05
4.54463e-05
4.23343e-05
3.91417e-05
3.59335e-05
3.2751e-05
2.96402e-05
2.66472e-05
2.37997e-05
2.11415e-05
1.86849e-05
1.64715e-05
1.44503e-05
1.2716e-05
1.10133e-05
9.61578e-06
9.09904e-06
7.25627e-05
7.35948e-05
7.48127e-05
7.60075e-05
7.7256e-05
7.85359e-05
7.97821e-05
8.09881e-05
8.21309e-05
8.31761e-05
8.41113e-05
8.49166e-05
8.5566e-05
8.60331e-05
8.63126e-05
8.63452e-05
8.6147e-05
8.56635e-05
8.4904e-05
8.38862e-05
8.25659e-05
8.0881e-05
7.88878e-05
7.66367e-05
7.41081e-05
7.12614e-05
6.81161e-05
6.47542e-05
6.13005e-05
5.78963e-05
5.46173e-05
5.16689e-05
4.85264e-05
4.70155e-05
4.25157e-05
4.13228e-05
5.69492e-05
9.267e-06
1.30798e-08
7.15344e-05
7.04942e-05
6.94981e-05
6.83816e-05
6.7248e-05
6.61125e-05
6.50053e-05
6.39667e-05
6.2995e-05
6.20797e-05
6.11895e-05
6.03117e-05
5.94429e-05
5.85271e-05
5.75367e-05
5.64377e-05
5.52253e-05
5.38698e-05
5.23538e-05
5.06519e-05
4.87424e-05
4.66065e-05
4.42469e-05
4.16868e-05
3.8972e-05
3.61741e-05
3.33336e-05
3.04935e-05
2.76926e-05
2.49681e-05
2.23561e-05
1.98939e-05
1.76017e-05
1.54986e-05
1.35558e-05
1.18418e-05
1.01403e-05
8.64472e-06
7.81919e-06
6.41365e-05
6.50747e-05
6.61644e-05
6.72354e-05
6.83649e-05
6.95282e-05
7.06671e-05
7.17839e-05
7.28466e-05
7.38426e-05
7.47473e-05
7.55423e-05
7.62213e-05
7.67528e-05
7.71327e-05
7.73202e-05
7.73055e-05
7.70598e-05
7.65719e-05
7.58649e-05
7.49088e-05
7.36419e-05
7.20789e-05
7.02781e-05
6.82177e-05
6.58677e-05
6.3238e-05
6.03906e-05
5.74209e-05
5.44514e-05
5.15375e-05
4.88648e-05
4.60459e-05
4.43396e-05
4.12095e-05
3.73611e-05
5.21967e-05
2.14248e-05
3.36387e-08
6.3203e-05
6.22761e-05
6.13974e-05
6.04138e-05
5.94254e-05
5.8447e-05
5.75001e-05
5.66193e-05
5.58011e-05
5.50349e-05
5.4301e-05
5.35883e-05
5.28714e-05
5.21326e-05
5.13421e-05
5.04484e-05
4.94688e-05
4.8373e-05
4.71327e-05
4.57254e-05
4.41343e-05
4.23442e-05
4.0341e-05
3.81351e-05
3.57817e-05
3.33313e-05
3.08286e-05
2.83027e-05
2.57921e-05
2.33266e-05
2.09434e-05
1.86656e-05
1.65303e-05
1.4537e-05
1.26736e-05
1.09857e-05
9.30139e-06
7.73442e-06
6.67765e-06
5.67473e-05
5.75981e-05
5.85823e-05
5.95516e-05
6.05711e-05
6.16283e-05
6.26694e-05
6.36954e-05
6.46844e-05
6.56139e-05
6.64769e-05
6.7253e-05
6.79328e-05
6.84986e-05
6.89352e-05
6.92277e-05
6.93431e-05
6.92936e-05
6.90178e-05
6.8547e-05
6.78842e-05
6.69533e-05
6.57486e-05
6.43234e-05
6.26709e-05
6.07504e-05
5.85663e-05
5.6171e-05
5.3636e-05
5.10597e-05
4.84816e-05
4.60736e-05
4.35705e-05
4.17046e-05
3.96435e-05
3.45556e-05
4.58298e-05
3.21219e-05
3.00084e-07
5.59002e-05
5.50781e-05
5.43008e-05
5.34369e-05
5.25746e-05
5.17224e-05
5.09104e-05
5.01558e-05
4.94631e-05
4.88207e-05
4.82213e-05
4.7628e-05
4.70385e-05
4.64403e-05
4.57955e-05
4.50803e-05
4.4285e-05
4.33865e-05
4.23678e-05
4.12099e-05
3.98879e-05
3.83821e-05
3.66799e-05
3.47957e-05
3.2766e-05
3.06301e-05
2.84289e-05
2.61916e-05
2.39451e-05
2.17237e-05
1.95531e-05
1.74595e-05
1.54643e-05
1.35939e-05
1.18161e-05
1.0159e-05
8.49933e-06
6.89513e-06
5.66924e-06
5.02465e-05
5.10244e-05
5.19181e-05
5.27916e-05
5.37158e-05
5.46754e-05
5.56285e-05
5.657e-05
5.74827e-05
5.83489e-05
5.91626e-05
5.99075e-05
6.05765e-05
6.11531e-05
6.16191e-05
6.19822e-05
6.21962e-05
6.22713e-05
6.21645e-05
6.18874e-05
6.14502e-05
6.07885e-05
5.98803e-05
5.87721e-05
5.74604e-05
5.591e-05
5.41117e-05
5.2112e-05
4.99595e-05
4.77319e-05
4.54684e-05
4.33066e-05
4.10997e-05
3.91485e-05
3.77498e-05
3.27072e-05
3.91253e-05
3.82818e-05
2.09305e-06
4.949e-05
4.87669e-05
4.80766e-05
4.73199e-05
4.65586e-05
4.5817e-05
4.51053e-05
4.44645e-05
4.38747e-05
4.33365e-05
4.28309e-05
4.23435e-05
4.18548e-05
4.13671e-05
4.08443e-05
4.02628e-05
3.96115e-05
3.88726e-05
3.80414e-05
3.70831e-05
3.59793e-05
3.47178e-05
3.32829e-05
3.16709e-05
2.99186e-05
2.80674e-05
2.61409e-05
2.41626e-05
2.2161e-05
2.01626e-05
1.81949e-05
1.62723e-05
1.44257e-05
1.26663e-05
1.09714e-05
9.36508e-06
7.73633e-06
6.12188e-06
4.78192e-06
4.4536e-05
4.52398e-05
4.6045e-05
4.68337e-05
4.76695e-05
4.85457e-05
4.94167e-05
5.02758e-05
5.11179e-05
5.19253e-05
5.26859e-05
5.33938e-05
5.40348e-05
5.46093e-05
5.50984e-05
5.54892e-05
5.57731e-05
5.59388e-05
5.59558e-05
5.58202e-05
5.55583e-05
5.51032e-05
5.44399e-05
5.35956e-05
5.25674e-05
5.13279e-05
4.98665e-05
4.82079e-05
4.6397e-05
4.44856e-05
4.25161e-05
4.05808e-05
3.86398e-05
3.67023e-05
3.55754e-05
3.14287e-05
3.3297e-05
3.86719e-05
1.01248e-05
4.38605e-05
4.32231e-05
4.26102e-05
4.19395e-05
4.12675e-05
4.06171e-05
4.00013e-05
3.94465e-05
3.89439e-05
3.84816e-05
3.80582e-05
3.76528e-05
3.72496e-05
3.68424e-05
3.64125e-05
3.59456e-05
3.54028e-05
3.48053e-05
3.41154e-05
3.33171e-05
3.24044e-05
3.13506e-05
3.01344e-05
2.87585e-05
2.72557e-05
2.56502e-05
2.3968e-05
2.22291e-05
2.04497e-05
1.86565e-05
1.6874e-05
1.51188e-05
1.34126e-05
1.17671e-05
1.01555e-05
8.60134e-06
7.01891e-06
5.40992e-06
4.00659e-06
3.95132e-05
4.01453e-05
4.08683e-05
4.15791e-05
4.23345e-05
4.31338e-05
4.39271e-05
4.47144e-05
4.54869e-05
4.62318e-05
4.69395e-05
4.76057e-05
4.82192e-05
4.87746e-05
4.92651e-05
4.96792e-05
5.00016e-05
5.0223e-05
5.03443e-05
5.0315e-05
5.01784e-05
4.98935e-05
4.94226e-05
4.87919e-05
4.79999e-05
4.70261e-05
4.58403e-05
4.44762e-05
4.29629e-05
4.13339e-05
3.96326e-05
3.79124e-05
3.61928e-05
3.43723e-05
3.32448e-05
3.02605e-05
2.89859e-05
3.54293e-05
1.95165e-05
3.8913e-05
3.83448e-05
3.78038e-05
3.72015e-05
3.66137e-05
3.60376e-05
3.55021e-05
3.50135e-05
3.45777e-05
3.41894e-05
3.38292e-05
3.34889e-05
3.31538e-05
3.28068e-05
3.24574e-05
3.20701e-05
3.16283e-05
3.1131e-05
3.05562e-05
2.9903e-05
2.91445e-05
2.82559e-05
2.7226e-05
2.60591e-05
2.4771e-05
2.33806e-05
2.19126e-05
2.03868e-05
1.88108e-05
1.72102e-05
1.55982e-05
1.40023e-05
1.24248e-05
1.08877e-05
9.373e-06
7.87902e-06
6.34618e-06
4.76811e-06
3.34012e-06
3.50874e-05
3.56547e-05
3.62991e-05
3.69405e-05
3.76269e-05
3.83487e-05
3.90667e-05
3.97901e-05
4.04979e-05
4.11838e-05
4.18379e-05
4.24571e-05
4.30406e-05
4.35736e-05
4.40533e-05
4.4472e-05
4.48274e-05
4.50839e-05
4.52626e-05
4.53236e-05
4.52841e-05
4.51274e-05
4.48129e-05
4.43518e-05
4.37543e-05
4.29927e-05
4.20499e-05
4.09325e-05
3.96757e-05
3.82928e-05
3.68287e-05
3.53093e-05
3.37864e-05
3.21346e-05
3.08929e-05
2.89052e-05
2.61527e-05
3.06151e-05
2.43856e-05
3.45461e-05
3.40442e-05
3.35597e-05
3.30287e-05
3.25047e-05
3.19985e-05
3.1526e-05
3.11001e-05
3.07196e-05
3.03845e-05
3.0077e-05
2.97865e-05
2.94988e-05
2.92135e-05
2.89244e-05
2.85983e-05
2.82382e-05
2.78204e-05
2.73524e-05
2.68067e-05
2.61706e-05
2.54241e-05
2.45564e-05
2.35666e-05
2.2457e-05
2.1257e-05
1.99808e-05
1.86435e-05
1.72528e-05
1.58238e-05
1.43777e-05
1.29225e-05
1.14781e-05
1.00441e-05
8.623e-06
7.19581e-06
5.72656e-06
4.19341e-06
2.77045e-06
3.1181e-05
3.16916e-05
3.22677e-05
3.28427e-05
3.34623e-05
3.41163e-05
3.47698e-05
3.54233e-05
3.60706e-05
3.67e-05
3.73065e-05
3.78787e-05
3.8424e-05
3.89313e-05
3.93955e-05
3.98083e-05
4.01692e-05
4.04574e-05
4.0671e-05
4.07968e-05
4.08309e-05
4.07633e-05
4.05671e-05
4.0248e-05
3.98037e-05
3.92182e-05
3.84739e-05
3.75769e-05
3.65363e-05
3.5375e-05
3.41172e-05
3.27873e-05
3.143e-05
2.99692e-05
2.86261e-05
2.72699e-05
2.43353e-05
2.59576e-05
2.48695e-05
3.06951e-05
3.0246e-05
2.98155e-05
2.93419e-05
2.88724e-05
2.84276e-05
2.80107e-05
2.76373e-05
2.73057e-05
2.70137e-05
2.67488e-05
2.64956e-05
2.62544e-05
2.6015e-05
2.57608e-05
2.5494e-05
2.51997e-05
2.48471e-05
2.44553e-05
2.39991e-05
2.34694e-05
2.28437e-05
2.21145e-05
2.12624e-05
2.0316e-05
1.92824e-05
1.81725e-05
1.70034e-05
1.57797e-05
1.45065e-05
1.32067e-05
1.18917e-05
1.05656e-05
9.24133e-06
7.90793e-06
6.55578e-06
5.15999e-06
3.68231e-06
2.29506e-06
2.7726e-05
2.81862e-05
2.87001e-05
2.92185e-05
2.97785e-05
3.0367e-05
3.0956e-05
3.15525e-05
3.21418e-05
3.2714e-05
3.32723e-05
3.38037e-05
3.4307e-05
3.47854e-05
3.52271e-05
3.5629e-05
3.59877e-05
3.62909e-05
3.65234e-05
3.66977e-05
3.67875e-05
3.67876e-05
3.66775e-05
3.64652e-05
3.61485e-05
3.57041e-05
3.51214e-05
3.44032e-05
3.35472e-05
3.25799e-05
3.15103e-05
3.03578e-05
2.91419e-05
2.78595e-05
2.64986e-05
2.54128e-05
2.29649e-05
2.23433e-05
2.28233e-05
2.7291e-05
2.68913e-05
2.65046e-05
2.60849e-05
2.56638e-05
2.52687e-05
2.48973e-05
2.45702e-05
2.42789e-05
2.40222e-05
2.37893e-05
2.35738e-05
2.33644e-05
2.31598e-05
2.29445e-05
2.27211e-05
2.24635e-05
2.21751e-05
2.18452e-05
2.14697e-05
2.10223e-05
2.04972e-05
1.98753e-05
1.91522e-05
1.83434e-05
1.74506e-05
1.64898e-05
1.54659e-05
1.43879e-05
1.32632e-05
1.20979e-05
1.09072e-05
9.6977e-06
8.47824e-06
7.2386e-06
5.97126e-06
4.64583e-06
3.23743e-06
1.911e-06
2.46646e-05
2.508e-05
2.55382e-05
2.60053e-05
2.65102e-05
2.70403e-05
2.75763e-05
2.81147e-05
2.86486e-05
2.91742e-05
2.96829e-05
3.01694e-05
3.06361e-05
3.10837e-05
3.15017e-05
3.18832e-05
3.22298e-05
3.25404e-05
3.27909e-05
3.29877e-05
3.31189e-05
3.31699e-05
3.31242e-05
3.29958e-05
3.27778e-05
3.24461e-05
3.1999e-05
3.14238e-05
3.07299e-05
2.99255e-05
2.90147e-05
2.80161e-05
2.6933e-05
2.58036e-05
2.45149e-05
2.3461e-05
2.16517e-05
1.98691e-05
2.00179e-05
2.4273e-05
2.39217e-05
2.35741e-05
2.31978e-05
2.28284e-05
2.24742e-05
2.21422e-05
2.18531e-05
2.15946e-05
2.13653e-05
2.11608e-05
2.09736e-05
2.07918e-05
2.0617e-05
2.0431e-05
2.02344e-05
2.0018e-05
1.97809e-05
1.95034e-05
1.91855e-05
1.88071e-05
1.83665e-05
1.78406e-05
1.72262e-05
1.65287e-05
1.57619e-05
1.49287e-05
1.40339e-05
1.30863e-05
1.20894e-05
1.10518e-05
9.97766e-06
8.87795e-06
7.75417e-06
6.61123e-06
5.42506e-06
4.18514e-06
2.86235e-06
1.61822e-06
2.19521e-05
2.23243e-05
2.27366e-05
2.31581e-05
2.36136e-05
2.40898e-05
2.45741e-05
2.50603e-05
2.55447e-05
2.60204e-05
2.64818e-05
2.69326e-05
2.73643e-05
2.7774e-05
2.81642e-05
2.85309e-05
2.88625e-05
2.91624e-05
2.94235e-05
2.96336e-05
2.97909e-05
2.98766e-05
2.98806e-05
2.98135e-05
2.96691e-05
2.94337e-05
2.90894e-05
2.86393e-05
2.80783e-05
2.74079e-05
2.66364e-05
2.57747e-05