/*--------------------------------*- C++ -*----------------------------------*\
| =========                 |                                                 |
| \\      /  F ield         | OpenFOAM: The Open Source CFD Toolbox           |
|  \\    /   O peration     | Version:  2506                                  |
|   \\  /    A nd           | Website:  www.openfoam.com                      |
|    \\/     M anipulation  |                                                 |
\*---------------------------------------------------------------------------*/
FoamFile
{
    version     2.0;
    format      ascii;
    arch        "LSB;label=32;scalar=64";
    class       volSymmTensorField;
    location    "100";
    object      turbulenceProperties:R;
}
// * * * * * * * * * * * * * * * * * * * * * * * * * * * * * * * * * * * * * //

dimensions      [0 2 -2 0 0 0 0];

internalField   nonuniform List<symmTensor> 
10720
(
(0.0102642 0.00183155 -1.95557e-21 0.0084003 -1.13884e-20 0.00941308)
(0.0123034 0.00220507 1.13428e-20 0.0096658 7.4122e-20 0.0110428)
(0.0150864 0.00259366 -3.59621e-20 0.0110669 -2.1769e-19 0.0132101)
(0.0188962 0.00310759 8.43294e-20 0.0129421 4.454e-19 0.0160966)
(0.0236561 0.00361851 -1.20213e-19 0.0149867 -4.25075e-19 0.0195271)
(0.0299481 0.00401316 -1.20334e-19 0.0173186 -2.83781e-19 0.0239553)
(0.0382028 0.00426445 2.57531e-19 0.0201371 7.59774e-19 0.0295931)
(0.0486634 0.00411428 -5.99325e-19 0.0234435 -1.41389e-18 0.0365879)
(0.0620126 0.00325727 -1.37608e-19 0.0275467 3.14615e-19 0.0454998)
(0.0788922 0.00144591 4.86324e-19 0.0329424 8.75469e-19 0.0568206)
(0.100125 -0.00176864 1.15141e-18 0.0402699 5.04181e-19 0.0713322)
(0.127391 -0.00688993 -2.61664e-18 0.0506623 -2.36959e-18 0.0904534)
(0.163365 -0.0146687 4.75048e-19 0.0657966 6.06592e-19 0.116365)
(0.211726 -0.026311 2.07625e-18 0.0880398 1.0177e-18 0.152117)
(0.278128 -0.0437932 -3.27366e-18 0.121115 -4.67836e-18 0.202471)
(0.373047 -0.0706007 -3.67423e-18 0.171811 -1.95001e-18 0.276113)
(0.511131 -0.112436 1.38409e-17 0.250767 1.23707e-17 0.385948)
(0.726875 -0.18113 1.65737e-17 0.381442 2.32716e-17 0.561126)
(1.05513 -0.29252 -2.57199e-17 0.594094 -3.51861e-17 0.834709)
(1.65409 -0.502162 -4.42125e-18 0.999984 9.35885e-18 1.34245)
(2.55698 -0.839765 -2.02758e-17 1.66002 2.85738e-17 2.13169)
(4.73868 -1.66492 1.71367e-17 3.29873 1.97395e-17 4.0583)
(7.92585 -2.95899 -9.89181e-17 5.9212 -2.03659e-16 6.98456)
(18.7716 -7.42319 1.50205e-16 15.1181 2.21995e-16 17.0829)
(30.3081 -12.6358 1.66765e-17 26.401 -4.43386e-16 28.5393)
(32.5549 -14.1668 4.25673e-16 30.499 3.94347e-16 31.6432)
(30.6854 -13.7773 -4.99514e-17 30.5196 -6.30617e-17 30.6461)
(28.8635 -13.2524 2.37822e-16 30.0903 1.78796e-16 29.4905)
(27.5193 -12.8557 7.21458e-16 29.8436 9.41506e-16 28.691)
(26.1256 -12.3782 5.26891e-16 29.3436 1.54993e-15 27.7465)
(24.3315 -11.6651 -1.31901e-15 28.216 -1.46763e-15 26.2907)
(22.1261 -10.7156 -4.95121e-16 26.4365 -5.31143e-16 24.3054)
(19.5667 -9.55837 2.65485e-16 24.0464 -3.24157e-15 21.8357)
(16.6907 -8.21128 -2.08113e-15 21.0491 -5.0476e-15 18.8973)
(13.3553 -6.60835 6.69295e-16 17.2422 5.86078e-16 15.3241)
(10.0014 -4.9696 8.01854e-16 13.1734 5.02544e-16 11.6022)
(6.31727 -3.15098 5.75254e-17 8.46889 -1.76727e-16 7.41132)
(3.77223 -1.88111 -5.04748e-16 5.0925 1.02025e-15 4.42585)
(0.265628 -0.103728 -2.99034e-16 0.572276 -1.33148e-15 0.401607)
(0.00847504 0.00152156 5.53783e-21 0.00729479 2.34624e-20 0.00790954)
(0.0070847 0.00123825 -4.72742e-21 0.00628056 -9.78018e-21 0.00672624)
(0.00562743 0.000950725 -3.4702e-20 0.00515514 -4.3001e-20 0.00541015)
(0.00441888 0.000708281 3.05754e-20 0.00414183 2.10371e-20 0.00429058)
(0.00336102 0.000498879 -9.667e-21 0.00317384 2.02095e-20 0.00326115)
(0.00255762 0.000341143 -2.57793e-20 0.00238038 9.70744e-20 0.00244504)
(0.00220395 0.000257423 -2.9258e-20 0.0019728 2.20003e-20 0.0020624)
(0.00262317 0.000289082 7.31483e-20 0.00219713 -7.02912e-20 0.00239585)
(0.00365081 0.000394366 9.28768e-20 0.00286522 -3.6983e-20 0.00325739)
(0.0053579 0.000621233 -5.83615e-20 0.00396975 4.30942e-21 0.00467469)
(0.00793222 0.00107142 -3.1895e-20 0.00557105 1.09099e-19 0.00677688)
(0.0116633 0.00190449 2.37154e-19 0.00778768 2.5373e-20 0.00977158)
(0.0169308 0.00334482 4.1701e-19 0.0108353 -7.99116e-20 0.0139633)
(0.0242074 0.00565149 -9.30519e-20 0.0150751 -1.71065e-19 0.0197694)
(0.0340945 0.00906119 7.61081e-20 0.0210603 -1.70853e-19 0.0277547)
(0.0476573 0.0139416 2.02655e-19 0.0297708 -8.91926e-20 0.0389609)
(0.0669071 0.0209463 -3.38741e-19 0.0427858 5.65138e-19 0.0551706)
(0.0954527 0.0314009 8.00361e-19 0.0628791 1.45359e-19 0.0796013)
(0.139963 0.0478169 3.76802e-19 0.0951094 -9.408e-19 0.118124)
(0.21176 0.074693 -1.70113e-18 0.14852 -9.49543e-20 0.180993)
(0.334862 0.121528 -5.57864e-18 0.242364 -9.41281e-19 0.289906)
(0.54783 0.204386 -3.37564e-18 0.409697 -3.95121e-19 0.480895)
(0.957562 0.367394 7.92965e-18 0.741777 -1.28307e-18 0.85355)
(1.71 0.676226 -1.32991e-17 1.37909 1.83595e-18 1.55237)
(3.39267 1.3834 5.54601e-18 2.85842 6.04444e-19 3.14263)
(6.67642 2.80006 -1.71355e-16 5.87319 1.71415e-17 6.30994)
(14.8224 6.37754 -1.01098e-16 13.5992 -6.55126e-18 14.294)
(26.8367 11.8189 8.32373e-17 25.66 -9.08725e-18 26.4)
(34.3975 15.4726 1.01505e-17 34.2572 1.31762e-18 34.5036)
(36.7322 16.8348 5.55996e-17 38.0433 -3.46887e-17 37.5462)
(36.7933 17.1376 -4.9933e-16 39.5318 1.86857e-17 38.2931)
(36.2019 17.0974 1.62015e-16 40.2464 4.84622e-17 38.331)
(35.338 16.888 -2.18802e-15 40.5503 -3.14094e-16 38.0328)
(34.2759 16.5463 -3.88575e-15 40.5059 4.67099e-16 37.4655)
(33.0525 16.0937 1.27623e-15 40.1522 2.87664e-16 36.6667)
(31.7258 15.5631 1.17587e-15 39.5675 3.15852e-17 35.7032)
(30.0697 14.8496 1.66831e-15 38.5046 1.67938e-16 34.3391)
(28.4749 14.1404 -3.2216e-16 37.3911 -7.61245e-17 32.9778)
(22.3649 11.1772 -5.09397e-15 30.4859 -9.05042e-16 26.4286)
(0.0020705 -0.00012757 1.38193e-22 0.00170036 7.30279e-22 0.00186428)
(0.00204245 -0.000157291 7.76275e-21 0.00172846 2.06778e-20 0.00186066)
(0.00198771 -0.000183062 -5.99891e-21 0.00175277 -1.14838e-20 0.00183974)
(0.00190241 -0.000194612 -8.29776e-21 0.00174793 -1.72934e-20 0.00178965)
(0.00179088 -0.000194255 3.62996e-20 0.00171502 6.58934e-20 0.00171361)
(0.00166657 -0.000184692 1.3887e-20 0.00166484 2.18885e-20 0.00162258)
(0.00153158 -0.000167236 6.34654e-20 0.00158759 6.0591e-20 0.00151322)
(0.00138987 -0.000145158 -2.94646e-20 0.00148606 -6.96508e-21 0.00138954)
(0.0012538 -0.000122283 4.40452e-20 0.00137507 3.28486e-20 0.00126452)
(0.00112413 -0.000100849 3.21655e-22 0.00125549 4.27051e-22 0.00113905)
(0.00100452 -8.22355e-05 -6.30666e-20 0.00113547 -5.36908e-20 0.00101905)
(0.000903085 -6.77607e-05 8.08509e-20 0.00102778 9.55483e-20 0.000914195)
(0.000815878 -5.7097e-05 4.65981e-20 0.00092949 2.42246e-20 0.0008217)
(0.000769716 -5.43539e-05 -8.38298e-21 0.000876497 4.10872e-21 0.000769511)
(0.000824741 -6.98064e-05 -5.11552e-20 0.000944656 6.94978e-21 0.00081449)
(0.00105369 -0.000128648 1.19853e-19 0.00121845 1.28195e-19 0.00101404)
(0.00174923 -0.000355876 2.38146e-19 0.00200654 -2.69172e-19 0.0015874)
(0.00366515 -0.00111855 -2.04431e-18 0.00389264 -2.31602e-18 0.00305755)
(0.00839226 -0.00297972 4.27851e-19 0.00782729 3.32618e-18 0.00670255)
(0.0219886 -0.00807122 4.14266e-18 0.0184884 -1.08935e-18 0.0176089)
(0.0558491 -0.0206641 7.51858e-18 0.0443964 3.24217e-18 0.0457541)
(0.175209 -0.0656499 -1.4331e-17 0.136785 -9.71368e-18 0.147531)
(0.459256 -0.176023 3.90149e-17 0.362687 6.14401e-17 0.39798)
(1.44961 -0.572835 8.53903e-19 1.18246 -4.61158e-17 1.29243)
(3.6926 -1.50523 -1.44306e-16 3.13414 5.66165e-17 3.38151)
(6.3832 -2.6771 -8.75287e-17 5.64079 -2.87655e-16 5.99447)
(9.11034 -3.9237 -4.13381e-18 8.39379 3.86394e-17 8.76278)
(11.3984 -5.03496 -2.03379e-16 10.9773 -2.36026e-16 11.2207)
(12.6075 -5.70434 -3.91887e-16 12.7209 -1.68477e-15 12.7033)
(12.2788 -5.67886 -1.65406e-16 12.9914 -2.22926e-15 12.6639)
(10.8057 -5.09215 3.9651e-16 11.9689 3.2304e-15 11.3937)
(9.05983 -4.33027 -6.61198e-16 10.4429 -6.69019e-17 9.73187)
(7.56705 -3.6509 -6.12892e-15 8.98846 1.01722e-15 8.24183)
(6.42969 -3.11866 6.71916e-15 7.77727 1.02797e-14 7.06534)
(5.56552 -2.70852 -1.14682e-15 6.8021 -5.6262e-16 6.15468)
(4.78548 -2.32622 2.76732e-15 5.82731 -2.48254e-15 5.28038)
(3.97247 -1.93523 -1.06992e-15 4.86555 5.55917e-16 4.40292)
(2.80445 -1.35334 8.94035e-16 3.38349 -3.18629e-15 3.04437)
(3.72224 -1.89447 3.40965e-15 5.31387 6.90025e-15 4.74908)
(0.00206596 -8.84699e-05 3.26931e-21 0.00165482 3.37946e-21 0.0018436)
(0.00204143 -4.76753e-05 -4.60576e-21 0.0016083 -3.75771e-20 0.00181051)
(0.00198572 2.12065e-06 -8.34799e-21 0.00155151 -1.59164e-20 0.00175959)
(0.00188686 5.60273e-05 -4.35334e-21 0.00148347 6.45643e-20 0.00168156)
(0.00173566 0.000103396 7.73222e-21 0.00140059 1.38312e-21 0.00156949)
(0.00155276 0.000134705 1.03148e-20 0.00130995 -8.35047e-20 0.00143542)
(0.00137956 0.000148099 -7.65526e-21 0.0012279 -6.68006e-20 0.00131038)
(0.00119678 0.000145197 -1.06089e-19 0.00113873 3.67935e-20 0.00117374)
(0.00100899 0.000127296 2.05428e-20 0.00103553 4.41086e-20 0.00102424)
(0.000841469 0.000100372 -1.04466e-20 0.000924274 -2.47368e-20 0.00087992)
(0.000702481 7.32278e-05 -1.72998e-20 0.000810179 -1.87822e-20 0.000749462)
(0.000587983 5.08424e-05 -1.72757e-20 0.000698797 -1.57609e-20 0.000634069)
(0.000491998 3.41969e-05 -1.92765e-21 0.000594047 5.65285e-21 0.000532452)
(0.000410588 2.28492e-05 9.37182e-21 0.000498376 2.05052e-20 0.000443562)
(0.000341916 1.56502e-05 1.77629e-20 0.000414099 3.31851e-21 0.000367452)
(0.000284682 1.11947e-05 -2.77627e-20 0.000342391 2.41412e-21 0.000303838)
(0.000236453 8.41314e-06 2.53919e-20 0.000281269 -1.1245e-21 0.000250361)
(0.000195886 6.5753e-06 -4.01078e-21 0.000229683 -3.65392e-21 0.000205674)
(0.000160071 5.08412e-06 -8.70871e-21 0.000184264 7.59319e-21 0.000166613)
(0.000126686 3.6602e-06 -5.04608e-21 0.000142518 3.05978e-21 0.000130679)
(9.22969e-05 2.16929e-06 -7.55366e-21 0.000100842 4.45497e-21 9.42957e-05)
(5.66558e-05 8.73525e-07 -4.16907e-21 5.98483e-05 1.31147e-21 5.73397e-05)
(2.44342e-05 1.65637e-07 -1.07599e-21 2.50113e-05 1.32156e-22 2.45433e-05)
(7.90234e-06 1.73753e-08 5.3183e-23 7.95966e-06 -3.52026e-24 7.91108e-06)
(0.000174856 9.52382e-06 -2.21872e-21 0.000202286 -3.35951e-22 0.0001778)
(0.00163903 0.000471757 9.60157e-19 0.00277556 -1.89574e-19 0.00171417)
(0.0104544 0.00334427 5.59921e-18 0.0173621 -8.71403e-20 0.0107048)
(0.0646862 0.0222687 1.25679e-18 0.103736 1.72175e-18 0.0654173)
(0.184017 0.0697655 -6.29999e-19 0.28201 -6.32756e-19 0.185295)
(0.335571 0.139567 6.63836e-17 0.486518 1.33678e-17 0.339167)
(0.487218 0.216717 4.82401e-16 0.668093 -3.3189e-17 0.497949)
(0.616089 0.284842 2.89604e-16 0.809261 2.77833e-17 0.639029)
(0.71685 0.338442 2.0278e-15 0.918808 6.31587e-17 0.755404)
(0.797206 0.381095 2.88064e-15 1.01314 -4.43167e-16 0.853048)
(0.864396 0.416923 -7.01107e-16 1.10264 1.64098e-16 0.938924)
(0.929255 0.451026 -5.71842e-16 1.19535 2.20453e-17 1.02189)
(0.985635 0.481749 -1.4641e-15 1.29298 4.84868e-17 1.10176)
(1.15082 0.561404 -2.72579e-15 1.49437 -3.76369e-16 1.27937)
(1.44494 0.714803 -1.89559e-15 1.871 3.83615e-16 1.65656)
(0.00142229 -9.25043e-05 1.07604e-21 0.00114611 2.16618e-21 0.00129346)
(0.00138185 -0.000116432 -1.16867e-20 0.00115064 -2.01371e-20 0.00127808)
(0.00131566 -0.000135311 -1.65836e-21 0.0011463 -3.2621e-21 0.00124544)
(0.00122897 -0.000144852 1.08443e-20 0.00113066 1.66965e-20 0.00119796)
(0.00113793 -0.000145234 -2.62905e-20 0.00111239 -4.48235e-20 0.00114644)
(0.00104135 -0.00013574 -2.79501e-20 0.00108689 -4.38209e-20 0.00108868)
(0.000946889 -0.000117244 -5.99724e-20 0.00105403 -8.24645e-20 0.00102864)
(0.000864565 -9.27942e-05 -3.91611e-21 0.00101902 -1.65687e-21 0.000973096)
(0.00079674 -6.45262e-05 -3.17875e-20 0.000983079 -5.88395e-20 0.000924071)
(0.00074682 -3.54734e-05 1.09265e-19 0.00094908 1.17289e-19 0.000884771)
(0.000713724 -7.8662e-06 -1.38638e-20 0.000917966 2.25691e-20 0.000854759)
(0.000695417 1.70028e-05 1.51352e-20 0.000890554 8.17158e-21 0.000833627)
(0.000688565 3.83201e-05 -8.66827e-20 0.000866463 -1.02649e-19 0.00081947)
(0.00069264 5.59132e-05 5.15158e-20 0.000849699 -3.27798e-21 0.000813634)
(0.000705567 7.01275e-05 1.69397e-20 0.000841431 4.66141e-20 0.000815338)
(0.000731743 8.29765e-05 2.23564e-20 0.000850508 9.82635e-21 0.000832289)
(0.000721747 8.42617e-05 -9.74679e-20 0.000815875 -5.51082e-20 0.00080433)
(0.000686366 7.77634e-05 7.6779e-20 0.000756742 5.69688e-20 0.000749588)
(0.000378202 2.35708e-05 7.33905e-21 0.000395978 1.09274e-23 0.000394315)
(5.44507e-06 4.88399e-09 -6.00488e-24 5.44825e-06 -8.92413e-25 5.44792e-06)
(0.00401277 0.00183406 2.32579e-18 0.00508048 -9.02768e-19 0.00493425)
(0.00251069 0.00101312 3.78428e-20 0.00304461 5.75696e-19 0.0029479)
(0.00191642 0.000772248 2.69919e-19 0.00225502 -4.04295e-19 0.0021845)
(0.0179471 0.00843189 -7.62737e-18 0.0192671 -7.77096e-18 0.0194541)
(0.0027492 -0.000837382 7.65778e-19 0.00168926 1.84404e-18 0.00219136)
(0.0498228 -0.019494 -8.28092e-18 0.0400571 1.35442e-18 0.0441905)
(0.22437 -0.0932611 5.77551e-18 0.196495 2.79543e-19 0.207991)
(0.691227 -0.298108 -3.94248e-18 0.64171 3.10454e-17 0.661561)
(1.71992 -0.761332 -2.33477e-16 1.67053 1.10524e-16 1.68799)
(3.47934 -1.57247 9.21364e-17 3.51489 1.79671e-16 3.48971)
(5.61767 -2.58598 1.06993e-15 5.89375 -3.37474e-16 5.75299)
(7.22655 -3.38203 -1.9516e-15 7.86746 1.33008e-15 7.5539)
(7.68998 -3.64847 3.22961e-16 8.65869 5.7254e-15 8.188)
(7.23609 -3.46381 3.26091e-17 8.34972 -3.85854e-15 7.80278)
(6.45921 -3.10573 2.52116e-15 7.55227 -1.33668e-15 7.01158)
(5.63305 -2.69817 -1.04252e-14 6.52152 6.06161e-16 6.07538)
(4.87983 -2.33558 3.20374e-15 5.63758 -6.49862e-16 5.25667)
(3.61378 -1.7044 3.38509e-15 4.0484 1.35601e-15 3.79502)
(4.23338 -2.12915 -4.77418e-15 6.04702 2.13332e-15 5.14778)
(0.00145264 -6.3377e-05 -2.23483e-21 0.00114204 -4.068e-21 0.00130535)
(0.00146457 -3.30003e-05 -5.24129e-21 0.00113534 6.31408e-22 0.00130578)
(0.00146412 3.35098e-06 3.08876e-20 0.00112947 4.19989e-20 0.00130105)
(0.00142977 4.07938e-05 2.46887e-21 0.00111239 -2.10339e-20 0.00127314)
(0.00135476 7.55254e-05 1.63822e-21 0.00107994 -3.24071e-20 0.00121788)
(0.00124144 0.000100902 -1.20925e-20 0.00103001 3.66794e-20 0.00113566)
(0.00111545 0.000115053 5.40182e-20 0.000976294 7.40786e-20 0.00104654)
(0.000988628 0.000118502 5.45627e-20 0.000923242 3.59132e-20 0.000956558)
(0.000851504 0.000109607 2.80478e-20 0.000851491 -3.80199e-20 0.000852041)
(0.000711434 9.17988e-05 2.29052e-20 0.000758515 2.37816e-20 0.000736153)
(0.000580064 7.07082e-05 -3.17012e-20 0.000653581 1.00306e-20 0.000619149)
(0.000465303 5.06955e-05 -6.05997e-22 0.000548678 1.90454e-20 0.000510604)
(0.000368981 3.37334e-05 1.28043e-20 0.000451119 -2.25669e-20 0.000414938)
(0.000290387 2.05027e-05 5.03382e-20 0.000364599 -2.85693e-20 0.000333565)
(0.00022962 1.0993e-05 -1.63398e-21 0.000293261 -2.03593e-21 0.000268385)
(0.00018413 4.40809e-06 -3.8653e-21 0.000236991 1.39158e-20 0.000218178)
(0.000151485 4.75914e-08 3.99544e-20 0.000194697 -3.008e-20 0.000181138)
(0.000128858 -2.80962e-06 4.38903e-21 0.000164016 2.81132e-21 0.000154746)
(0.00011401 -4.7215e-06 4.25707e-20 0.000142898 -5.77093e-21 0.000136847)
(0.000104738 -6.16162e-06 4.47655e-20 0.000128702 1.7791e-21 0.000125151)
(9.95428e-05 -7.39001e-06 1.14993e-19 0.00011963 -1.73663e-20 0.000118003)
(9.78462e-05 -8.67917e-06 1.44009e-19 0.00011453 -2.2082e-20 0.00011465)
(9.94267e-05 -1.01892e-05 8.17761e-20 0.000112485 -3.29816e-21 0.000114561)
(0.000104146 -1.17185e-05 1.79409e-20 0.000111846 -1.81787e-21 0.000117117)
(0.000110407 -1.23994e-05 -2.10486e-20 0.000110934 3.02889e-21 0.000120589)
(0.000115001 -1.15083e-05 7.96618e-20 0.00010862 -2.79453e-21 0.000122102)
(0.000117889 -9.63326e-06 -2.09234e-20 0.00010643 2.69635e-21 0.00012242)
(7.98462e-05 -3.69658e-06 -7.85789e-21 7.27533e-05 -2.37282e-23 8.12209e-05)
(0.00110239 -0.000163359 6.4632e-20 0.00061178 5.72768e-21 0.001155)
(0.00517041 -0.000361261 -2.32865e-18 0.0026056 2.24928e-19 0.00533403)
(0.0127232 0.000992513 -1.26758e-17 0.00636785 4.45247e-18 0.0130282)
(0.0248138 0.00736134 -7.23372e-17 0.0160363 -3.16059e-18 0.0254786)
(0.0518018 0.0219131 -1.70879e-16 0.0456767 3.19363e-17 0.0537208)
(0.0993576 0.0457497 -4.10824e-16 0.102374 3.29699e-17 0.10428)
(0.164076 0.0775923 -9.69425e-16 0.182289 -2.52816e-16 0.174547)
(0.23869 0.11397 2.31619e-16 0.274243 1.06219e-16 0.256061)
(0.31583 0.152245 -1.19564e-15 0.373664 -4.1385e-16 0.343644)
(0.375049 0.176709 3.36388e-15 0.41834 5.1552e-16 0.393649)
(0.570412 0.27671 5.12341e-15 0.67797 9.60135e-16 0.631498)
(0.00116249 -7.49199e-05 3.19804e-21 0.000939347 4.47968e-21 0.00104815)
(0.00114991 -9.33949e-05 -3.90308e-21 0.000956046 -6.83198e-21 0.00104974)
(0.00112456 -0.000110092 -1.98863e-21 0.000972047 -3.39225e-21 0.00104382)
(0.00109174 -0.000121968 2.28654e-20 0.000987168 3.21753e-20 0.00103377)
(0.00104903 -0.000127633 1.65311e-20 0.000995641 2.64065e-20 0.00101528)
(0.000997295 -0.000126989 2.34112e-20 0.000996537 3.43688e-20 0.000988237)
(0.000941226 -0.000120391 3.16173e-20 0.000989211 3.47562e-20 0.000954829)
(0.000881383 -0.000108746 -1.6279e-20 0.000970499 -2.33835e-20 0.000913789)
(0.000820349 -9.35557e-05 -6.38939e-20 0.00094166 -6.05549e-20 0.000866921)
(0.000759725 -7.66482e-05 7.65868e-20 0.000902737 4.43174e-20 0.000815352)
(0.00070042 -5.9475e-05 6.83331e-20 0.000855252 5.64865e-20 0.000760196)
(0.000643503 -4.32549e-05 8.99141e-20 0.000801654 4.47095e-20 0.000703306)
(0.000589571 -2.88628e-05 -1.41265e-19 0.000744191 -4.83931e-20 0.000646115)
(0.000537238 -1.66441e-05 -1.28967e-19 0.000682986 -8.37942e-20 0.000588165)
(0.000486209 -6.78471e-06 1.64027e-19 0.000619353 5.30054e-20 0.00053007)
(0.000435749 6.34245e-07 3.58834e-20 0.000553771 2.06258e-20 0.000471646)
(0.000381538 6.75108e-06 -2.46128e-20 0.000481984 2.54535e-21 0.00040933)
(0.000326998 1.15452e-05 -8.50463e-20 0.00040799 -5.39752e-20 0.000346755)
(0.000272424 1.46998e-05 1.88145e-20 0.000331129 -7.37894e-21 0.000284695)
(0.000203232 1.26245e-05 6.3475e-20 0.000233553 1.9535e-20 0.000208619)
(0.000103564 4.0916e-06 -2.33131e-20 0.000109559 -6.64334e-21 0.000104576)
(1.58945e-06 9.48835e-10 2.16194e-24 1.59036e-06 2.87935e-25 1.58963e-06)
(0.000160444 8.62972e-06 -4.42696e-21 0.000166028 -9.8419e-22 0.000161822)
(0 0 -0 0 0 0)
(0.00163124 0.000568758 3.09697e-19 0.00175421 -9.39679e-20 0.00165148)
(0.0102568 0.00458961 -2.12392e-18 0.0104173 2.71918e-18 0.0100472)
(0.0261336 0.011287 3.33467e-20 0.0246752 -1.23858e-19 0.0247337)
(0.000591959 0.000130026 4.62207e-20 0.000551571 -1.54002e-20 0.000563965)
(0.00647916 0.00232741 1.35214e-18 0.00473729 2.87828e-18 0.00541066)
(0.0259721 -0.00690959 9.23849e-18 0.0146152 -4.29967e-17 0.0193602)
(0.278374 -0.119157 -3.65953e-17 0.255152 -1.71506e-16 0.264729)
(1.16423 -0.52555 1.20941e-15 1.17357 2.68388e-16 1.16606)
(2.88994 -1.33735 2.03281e-15 3.06749 3.39366e-16 2.97786)
(4.79687 -2.2548 -1.10474e-15 5.2784 -1.23863e-15 5.04222)
(5.94778 -2.82257 -5.60549e-15 6.70098 8.51492e-16 6.33524)
(6.17936 -2.92921 3.39612e-15 6.9459 2.19356e-15 6.56931)
(5.93001 -2.80953 -6.9575e-15 6.65507 3.89597e-16 6.3005)
(4.67293 -2.17966 -7.75399e-15 5.07002 1.72118e-15 4.84906)
(5.19271 -2.56343 5.42133e-15 6.64849 -2.87704e-15 5.92397)
(0.00116313 -5.28229e-05 -5.55914e-21 0.000918504 -9.3048e-21 0.00103935)
(0.00115486 -3.00021e-05 -3.16638e-21 0.000898714 1.22906e-20 0.00102568)
(0.00113345 -2.57379e-06 1.77914e-20 0.000875836 2.42692e-20 0.00100473)
(0.0010967 2.56153e-05 -1.22152e-20 0.000851986 4.10906e-21 0.000974536)
(0.00104072 5.20246e-05 6.35346e-21 0.000825008 3.66035e-20 0.000932945)
(0.000967035 7.29191e-05 -1.74995e-21 0.000794228 -4.06062e-20 0.000880571)
(0.000884911 8.65374e-05 1.81473e-20 0.000763191 -1.44306e-21 0.000824303)
(0.000792287 9.14386e-05 -4.53098e-20 0.000725281 -2.48408e-20 0.00075928)
(0.000692211 8.73774e-05 -2.02381e-20 0.000675944 2.03215e-21 0.000684657)
(0.000593902 7.67567e-05 5.71657e-20 0.000618025 8.20063e-21 0.000606447)
(0.000504665 6.29028e-05 1.9147e-20 0.000556192 -2.59953e-21 0.000530541)
(0.000428012 4.871e-05 2.75154e-20 0.000494914 -1.53054e-20 0.000460997)
(0.000363739 3.5919e-05 -5.36819e-20 0.000436691 -1.31902e-20 0.0003991)
(0.000310473 2.53707e-05 -5.41262e-20 0.000383081 1.31955e-20 0.000345007)
(0.000267215 1.73487e-05 8.53728e-21 0.000335772 9.03114e-21 0.000299062)
(0.00023209 1.15182e-05 1.49099e-20 0.000294952 -4.28388e-21 0.000260525)
(0.000203857 7.44337e-06 -4.51856e-20 0.000260715 2.40971e-21 0.000228824)
(0.00018116 4.63674e-06 1.00448e-21 0.000232393 -4.61033e-21 0.000202961)
(0.000163169 2.65951e-06 -1.53699e-20 0.000209531 -5.77065e-22 0.00018227)
(0.000148583 1.1285e-06 3.65528e-20 0.00019078 -1.42073e-20 0.00016545)
(0.000136775 -1.87141e-07 -4.13326e-20 0.000175433 -3.23643e-21 0.00015178)
(0.000126834 -1.47955e-06 -7.74328e-20 0.000162317 1.68542e-21 0.000140208)
(0.000117868 -2.85588e-06 7.47354e-21 0.000150166 -5.26919e-21 0.000129621)
(0.000108195 -4.18541e-06 2.25155e-20 0.00013672 -5.12663e-21 0.000118064)
(9.80907e-05 -4.98435e-06 6.03366e-20 0.000122525 -4.69613e-21 0.000105811)
(8.99044e-05 -5.1644e-06 -5.90532e-20 0.00011096 4.66612e-21 9.56129e-05)
(8.36799e-05 -4.99437e-06 -8.87907e-21 0.000102084 -1.0978e-21 8.77225e-05)
(7.99574e-05 -4.866e-06 6.2209e-21 9.68717e-05 -1.2428e-21 8.27911e-05)
(6.91365e-05 -3.91544e-06 -2.64687e-21 8.20987e-05 2.18105e-22 7.06685e-05)
(7.54954e-05 -5.48562e-06 -5.80216e-21 9.25024e-05 -3.76189e-21 7.67259e-05)
(1.83675e-05 -4.19508e-07 -8.46873e-22 1.95268e-05 -4.73932e-22 1.83972e-05)
(2.78258e-05 -1.52773e-06 1.47704e-20 3.14682e-05 1.04046e-21 2.7678e-05)
(0.000262011 -6.43057e-05 2.99927e-18 0.000399962 6.92128e-19 0.000236011)
(0.000434393 2.14732e-05 2.61173e-17 0.000536917 3.95772e-19 0.000302814)
(0.00251336 0.00098269 9.9657e-17 0.00204853 -2.96212e-18 0.00219467)
(0.0106995 0.00435019 -2.05211e-16 0.00889143 -1.69339e-17 0.010099)
(0.0306395 0.0132586 8.58029e-16 0.0280358 1.13464e-16 0.0304483)
(0.0701308 0.028784 -5.64837e-16 0.0594794 -8.48891e-17 0.0656146)
(0.235464 0.109527 -5.14741e-16 0.248546 -6.81282e-16 0.248926)
(0.000887858 -5.73242e-05 -5.21703e-21 0.000716745 -5.91945e-21 0.000803138)
(0.000873587 -7.11355e-05 7.49027e-22 0.000725636 4.24355e-22 0.000800967)
(0.000850907 -8.34436e-05 6.41129e-21 0.000734497 7.50725e-21 0.000794263)
(0.000820345 -9.19728e-05 -3.67663e-20 0.000740875 -4.22684e-20 0.000782689)
(0.000782615 -9.58728e-05 -2.70739e-20 0.000742921 -3.11955e-20 0.000765448)
(0.000738153 -9.4849e-05 6.04896e-20 0.000739656 6.55047e-20 0.000742155)
(0.000689823 -8.88996e-05 -6.25071e-20 0.000730076 -6.95313e-20 0.000713966)
(0.000639409 -7.86225e-05 -2.62883e-20 0.000713155 -1.97991e-20 0.000681145)
(0.000588853 -6.49685e-05 -6.60866e-20 0.000689096 -4.88674e-20 0.000644692)
(0.000540775 -4.93077e-05 -1.46269e-20 0.000659145 -2.17963e-20 0.000606671)
(0.000496627 -3.28611e-05 8.7276e-21 0.000624636 -2.10405e-21 0.000568346)
(0.000457656 -1.67536e-05 -5.01247e-20 0.000587374 -5.84674e-20 0.000531255)
(0.000424702 -1.87712e-06 1.50182e-19 0.000549297 1.00093e-19 0.000496793)
(0.000398089 1.11632e-05 -4.60982e-20 0.000512104 -7.83695e-21 0.000465942)
(0.00037771 2.1974e-05 -1.22503e-19 0.000477192 -5.39987e-20 0.000439276)
(0.000363734 3.05185e-05 7.92925e-20 0.000446268 3.33732e-21 0.000417734)
(0.00035487 3.66564e-05 -5.92067e-20 0.000419836 -3.29467e-20 0.000400588)
(0.000345981 4.01648e-05 1.09056e-21 0.000394273 4.17497e-20 0.000383113)
(0.000333232 4.14563e-05 -1.40414e-20 0.000366032 -1.08886e-20 0.00036183)
(0.000315187 4.07639e-05 -1.05931e-19 0.000333921 -7.03956e-20 0.00033557)
(0.000272298 3.34145e-05 7.12245e-20 0.00027818 6.72451e-20 0.000283452)
(0.000182654 1.65393e-05 9.80436e-22 0.000181692 -2.85422e-20 0.000185737)
(7.76668e-05 3.18408e-06 2.23293e-21 7.69515e-05 6.78556e-22 7.78695e-05)
(1.084e-05 6.09561e-08 1.19409e-22 1.08198e-05 -4.22033e-24 1.08382e-05)
(3.02575e-06 4.4461e-09 -2.79121e-24 3.02389e-06 -8.83897e-25 3.02529e-06)
(0 0 0 0 0 0)
(0 0 -0 0 0 0)
(3.42034e-05 4.88908e-07 -9.96893e-23 3.39552e-05 -5.96988e-23 3.4098e-05)
(0.00283951 0.0010786 1.3102e-20 0.00230393 3.03058e-19 0.00259613)
(0.0204654 0.00802278 -2.46055e-17 0.016313 1.85164e-18 0.0184789)
(0.0614049 0.0233566 -2.64932e-17 0.0471001 4.06131e-18 0.0543449)
(0.0297964 0.00983457 1.10628e-17 0.0195231 -5.73076e-17 0.0246491)
(0.0966478 -0.0303554 3.45011e-16 0.0605096 -3.4471e-16 0.0783557)
(0.898967 -0.400717 -2.14009e-15 0.88282 1.28333e-16 0.890204)
(2.85255 -1.32136 3.73111e-15 3.03216 9.47353e-16 2.94469)
(4.96997 -2.32082 -8.05147e-16 5.38413 1.59127e-16 5.17949)
(6.2036 -2.9086 -1.8892e-15 6.7825 1.26644e-15 6.50037)
(5.54838 -2.56612 4.3062e-17 5.89706 -1.31794e-15 5.70203)
(6.31691 -3.0235 -1.21351e-14 7.26409 4.06217e-15 6.82253)
(0.000894743 -4.10975e-05 3.60114e-21 0.000706256 -3.35248e-22 0.000801428)
(0.000894953 -2.41344e-05 -1.2778e-20 0.000696297 -1.27561e-20 0.000796075)
(0.000885393 -3.79411e-06 -6.14653e-22 0.000683858 7.05531e-21 0.000785231)
(0.000861556 1.7433e-05 9.49405e-21 0.000668117 -2.86213e-20 0.000764993)
(0.000823437 3.77025e-05 -6.40529e-20 0.000649811 -6.70009e-20 0.000736477)
(0.000772429 5.45442e-05 -5.3308e-20 0.000629159 4.48216e-20 0.000700583)
(0.0007141 6.65354e-05 8.2134e-20 0.000608475 2.58721e-20 0.000661311)
(0.000647799 7.22476e-05 -3.38821e-20 0.000583552 -5.24739e-20 0.000615775)
(0.000576057 7.13359e-05 -2.7225e-20 0.0005515 8.09169e-21 0.000563894)
(0.000504 6.51178e-05 -1.72847e-20 0.000512844 -3.09489e-20 0.000508581)
(0.000435337 5.55777e-05 3.55796e-21 0.000468621 1.14186e-20 0.000452179)
(0.000372584 4.47927e-05 -1.70648e-20 0.000421089 -1.30577e-20 0.00039711)
(0.000316606 3.42883e-05 -3.61788e-20 0.000372488 3.53389e-20 0.000344966)
(0.000267406 2.49728e-05 4.06134e-20 0.000324736 9.09196e-21 0.000296694)
(0.000225108 1.73345e-05 2.84862e-20 0.000279938 -1.14849e-20 0.000253375)
(0.000189361 1.13878e-05 -5.82566e-21 0.000239543 -7.91415e-21 0.00021556)
(0.000159706 6.92907e-06 1.67394e-20 0.000204395 1.09583e-21 0.000183423)
(0.000135594 3.64771e-06 -2.76187e-20 0.000174794 6.68289e-21 0.000156818)
(0.000116491 1.22641e-06 1.95643e-20 0.000150693 -1.85311e-21 0.000135433)
(0.000101614 -6.3957e-07 -2.38576e-20 0.000131443 -5.0542e-21 0.000118555)
(9.03085e-05 -2.17532e-06 2.5533e-20 0.000116357 -9.62681e-22 0.000105498)
(8.18168e-05 -3.55724e-06 3.03265e-20 0.000104455 1.325e-21 9.54051e-05)
(7.5395e-05 -4.87884e-06 -4.74378e-21 9.46529e-05 1.91815e-21 8.73631e-05)
(6.97161e-05 -6.04979e-06 -5.99716e-20 8.50682e-05 3.6454e-21 7.98278e-05)
(6.38769e-05 -6.74051e-06 -2.02552e-20 7.48121e-05 -6.16252e-22 7.18988e-05)
(5.8322e-05 -6.84075e-06 -6.35209e-21 6.50457e-05 9.20274e-24 6.43317e-05)
(5.43779e-05 -6.60633e-06 2.42903e-20 5.73853e-05 -1.02686e-21 5.87049e-05)
(5.23228e-05 -6.14123e-06 4.34864e-22 5.20738e-05 3.32949e-22 5.52543e-05)
(5.2904e-05 -5.76675e-06 -1.14085e-21 4.98161e-05 -3.24177e-22 5.47572e-05)
(4.96987e-05 -4.53181e-06 1.43431e-20 4.50638e-05 1.23551e-21 5.04906e-05)
(6.51324e-05 -6.85774e-06 1.64321e-20 5.53463e-05 9.33306e-22 6.53575e-05)
(5.15439e-07 -5.31973e-10 -7.81934e-24 5.14543e-07 -8.5565e-25 5.15383e-07)
(0.000157855 -3.05281e-05 -1.22879e-18 0.00010309 -7.1708e-20 0.000150503)
(2.1418e-06 -1.2442e-08 -1.08542e-22 2.1193e-06 6.39807e-23 2.13708e-06)
(0.00144888 -0.000372257 2.2436e-18 0.000775242 2.45938e-18 0.00125257)
(5.11087e-06 -9.83216e-08 -1.38264e-21 4.91238e-06 -1.49792e-21 5.03314e-06)
(0.00110439 -0.000191366 -1.93115e-17 0.000490381 3.30578e-18 0.000824315)
(0.00237828 -1.55337e-05 5.30525e-17 0.000922695 7.21396e-18 0.00157704)
(0.0394673 0.0160616 -2.9093e-16 0.0327667 -7.95606e-18 0.0375845)
(0.000719564 -4.68369e-05 4.75009e-21 0.000581297 4.41642e-21 0.000650155)
(0.000712693 -5.78997e-05 -1.12291e-20 0.000591779 -1.05687e-20 0.000652009)
(0.000700022 -6.80789e-05 -4.99654e-22 0.000603013 -2.21103e-21 0.000651077)
(0.000682753 -7.57114e-05 -3.27017e-21 0.000613954 -3.89785e-21 0.000647779)
(0.000660675 -8.00344e-05 3.45257e-20 0.000622567 3.54116e-20 0.000640907)
(0.000633955 -8.08578e-05 2.5556e-20 0.000628409 2.19609e-20 0.000630188)
(0.00060428 -7.80254e-05 1.9875e-21 0.000630296 8.06394e-21 0.000616027)
(0.000572374 -7.18238e-05 6.61313e-20 0.000626849 5.95548e-20 0.000598028)
(0.000539225 -6.28256e-05 -6.42301e-21 0.000617745 1.95231e-22 0.000576473)
(0.000506061 -5.19278e-05 -2.21488e-20 0.000602837 -1.12358e-20 0.000551981)
(0.000473362 -3.99992e-05 4.32529e-20 0.000582174 1.75019e-20 0.000524777)
(0.000441637 -2.78813e-05 -5.64033e-20 0.000556413 -2.27235e-20 0.000495449)
(0.00041122 -1.63532e-05 -1.0692e-19 0.000526428 -7.9375e-20 0.000464638)
(0.00038215 -5.9758e-06 -4.58099e-20 0.000493137 6.54029e-21 0.000432795)
(0.000354433 2.86577e-06 1.91813e-19 0.00045761 8.60699e-20 0.000400465)
(0.000328125 9.95131e-06 -1.36481e-19 0.000421058 -6.12468e-20 0.000368305)
(0.000302125 1.5201e-05 -3.37729e-20 0.000383157 2.56221e-20 0.000335623)
(0.000274021 1.8917e-05 6.30026e-20 0.000341567 3.93519e-20 0.000300502)
(0.000245123 2.12395e-05 -3.91004e-20 0.000298395 -4.82445e-22 0.000264667)
(0.000218178 2.24214e-05 -1.29303e-20 0.000257678 3.13906e-20 0.000231412)
(0.000193595 2.24848e-05 1.84372e-20 0.000220091 -1.13402e-20 0.000201238)
(0.000175437 2.2358e-05 -1.38963e-19 0.000190935 1.28484e-20 0.000178502)
(0.000150185 1.87146e-05 1.22124e-21 0.000154889 -1.94522e-20 0.000149373)
(0.00011317 1.14122e-05 -5.6483e-20 0.000111153 5.08966e-21 0.000110691)
(3.81478e-05 1.37572e-06 1.99222e-21 3.73429e-05 5.69722e-22 3.76092e-05)
(5.45038e-06 2.86081e-08 -1.41924e-23 5.42339e-06 -5.83331e-23 5.43444e-06)
(2.86261e-06 7.82417e-09 -9.40896e-25 2.85336e-06 -9.48434e-26 2.85738e-06)
(9.59374e-07 8.65774e-10 2.22225e-25 9.5831e-07 1.0017e-26 9.58788e-07)
(0 0 0 0 -0 0)
(0 0 0 0 0 0)
(0 0 -0 0 0 0)