/*--------------------------------*- C++ -*----------------------------------*\
| =========                 |                                                 |
| \\      /  F ield         | OpenFOAM: The Open Source CFD Toolbox           |
|  \\    /   O peration     | Version:  2506                                  |
|   \\  /    A nd           | Website:  www.openfoam.com                      |
|    \\/     M anipulation  |                                                 |
\*---------------------------------------------------------------------------*/
FoamFile
{
    version     2.0;
    format      ascii;
    arch        "LSB;label=32;scalar=64";
    class       volScalarField;
    location    "100";
    object      turbulenceProperties:L;
}
// * * * * * * * * * * * * * * * * * * * * * * * * * * * * * * * * * * * * * //

dimensions      [0 1 0 0 0 0 0];

internalField   nonuniform List<scalar> 
10720
(
0.00201737
0.00190909
0.00180971
0.00171449
0.00164734
0.00159962
0.00157563
0.00158023
0.00161479
0.00168176
0.00178513
0.00193024
0.00212492
0.00238089
0.00271256
0.00314862
0.00372464
0.00452615
0.00560918
0.00730611
0.00959392
0.014055
0.0200314
0.0346078
0.0488976
0.0547503
0.0561621
0.0570232
0.0581867
0.0593088
0.0600938
0.0606258
0.0611285
0.0617441
0.0627049
0.0641747
0.0694421
0.074278
0.123735
0.00214908
0.00228979
0.00250629
0.00277114
0.00313493
0.00357974
0.00387861
0.00363524
0.00318576
0.0027635
0.00244685
0.00224825
0.00215989
0.00217333
0.00227995
0.00247621
0.00276735
0.00316951
0.00371481
0.00444709
0.00546183
0.00684116
0.0088804
0.0117003
0.0163341
0.022825
0.0340184
0.0459501
0.0523755
0.0546213
0.0552907
0.0555859
0.0557755
0.0558984
0.0559842
0.0560624
0.0561543
0.0563627
0.0549955
0.00406214
0.00406305
0.00408145
0.00413359
0.00421997
0.00433171
0.00447978
0.00466889
0.00488734
0.0051414
0.00542652
0.00571796
0.00601936
0.00620301
0.00602193
0.00554269
0.00511393
0.0053536
0.00618991
0.00764085
0.00919097
0.0124055
0.0158102
0.0237193
0.0354479
0.0476613
0.0616795
0.0774073
0.093826
0.109457
0.123716
0.13697
0.149136
0.159536
0.167985
0.176044
0.186622
0.200042
0.204567
0.00408824
0.00412766
0.00419151
0.00429292
0.00444915
0.00465657
0.00487851
0.00515357
0.00550899
0.00593084
0.00641183
0.00695664
0.00757829
0.00829168
0.00910311
0.0100122
0.0110477
0.0122383
0.0137177
0.0157735
0.0193278
0.0270763
0.0500266
0.116452
0.0129563
0.0124526
0.0286982
0.0684953
0.117035
0.163231
0.197975
0.216468
0.22196
0.220803
0.217463
0.213789
0.21002
0.203507
0.178807
0.00491641
0.00494968
0.00501839
0.0051233
0.00524359
0.00538864
0.00555329
0.00571951
0.00587964
0.00601925
0.00613332
0.00621877
0.00627912
0.00630581
0.00629939
0.00623613
0.00631861
0.00651443
0.0093059
0.210444
0.00625831
0.00588516
0.00686423
0.0414185
0.0269403
0.0332306
0.0428915
0.0557791
0.0723322
0.0917239
0.112405
0.132772
0.15259
0.173183
0.194711
0.217775
0.243124
0.273253
0.319933
0.00489206
0.00488831
0.00489511
0.00494558
0.00505444
0.00523319
0.00545248
0.00570325
0.00604315
0.00650389
0.00709742
0.00782482
0.00869463
0.00971937
0.010865
0.0120892
0.0133132
0.0144525
0.0154129
0.0161554
0.0166666
0.0169315
0.0169573
0.0168017
0.0165937
0.0164812
0.0164197
0.0201311
0.0198912
0.053627
0.116205
0.187019
0.22249
0.23756
0.246216
0.252184
0.254342
0.265891
0.246372
0.00544151
0.00543656
0.00544977
0.00547403
0.005521
0.00559267
0.00568579
0.00580753
0.0059568
0.00613597
0.00634717
0.00659019
0.00686554
0.00718438
0.00755516
0.00799487
0.00856732
0.00929195
0.0102393
0.0120344
0.0186154
0.425393
0.0147837
0
0.00659648
0.0147494
0.0267463
0.00836238
0.0317319
0.117246
0.107757
0.124447
0.146392
0.169216
0.194074
0.224654
0.260999
0.304106
0.39789
0.00546683
0.00550388
0.00556325
0.00564909
0.00577353
0.00594249
0.0061427
0.00640095
0.00674107
0.00716233
0.00765596
0.00820971
0.00881808
0.00947677
0.0101686
0.0108825
0.011598
0.0123
0.0129641
0.0135929
0.0141784
0.0147391
0.0153154
0.0160304
0.0169042
0.0177383
0.0184675
0.0189667
0.0204758
0.0197907
0.0447538
0.0327361
0.0575146
0.196909
0.231258
0.234163
0.247027
0.260632
0.24587
0.00622455
0.00623426
0.00626107
0.00630862
0.00638105
0.00648233
0.00661184
0.00677276
0.00696573
0.0071861
0.00743087
0.00769357
0.00796497
0.0082347
0.00849191
0.00871925
0.00891248
0.00911723
0.00938354
0.00974471
0.0105659
0.0131126
0.0225921
0.0958104
0.252927
0
0
0.0429038
0.0102523
0.0272508
0.0551443
0.0663821
0.196943
0.17472
0.191898
0.221753
0.263427
0.314438
0.441355
0.00623156
0.00625135
0.00629486
0.00637638
0.00649779
0.00666194
0.00685759
0.00710684
0.00742661
0.00782027
0.00829398
0.00885111
0.00949818
0.0102448
0.0110907
0.0120315
0.0130533
0.014131
0.0152225
0.0162895
0.0172885
0.0182004
0.0190393
0.0199434
0.0210509
0.022298
0.0233994
0.0241772
0.0243591
0.0253118
0.0228337
0.608924
0.0223283
0.196519
0.0756206
0.0964417
0.100625
0.116885
0.2034
0.00691501
0.00690526
0.00690938
0.0069264
0.00696285
0.0070207
0.00709981
0.00720441
0.00733584
0.00749443
0.00768317
0.00790342
0.00815655
0.00844533
0.00877209
0.00913773
0.00956061
0.0100933
0.0107466
0.0114897
0.0123244
0.0131051
0.0143194
0.0166964
0.0330008
0.134784
0.21599
0.49058
0
0
0
0.0265921
0.0313893
0.120728
0.215548
0.220738
0.260604
0.313383
0.458628
0.00694163
0.00697848
0.00703605
0.00713009
0.00725633
0.00741573
0.00760683
0.0078502
0.00815656
0.00852798
0.00896928
0.00947997
0.0100597
0.0107086
0.0114202
0.0121816
0.0129756
0.0137828
0.0145805
0.0153527
0.0160922
0.0168147
0.0175628
0.0184481
0.0195812
0.0209236
0.0223703
0.0238466
0.0253382
0.0268173
0.0283655
0.0303158
0.0345521
0.0495433
0.304752
0.263635
0.0578181
0.061426
0.0911658
0.00768094
0.00766796
0.00766719
0.00768055
0.00771296
0.00776726
0.00784461
0.00794922
0.00808339
0.00824797
0.00844536
0.00867617
0.00894043
0.00923767
0.00956613
0.00992298
0.0103006
0.0106765
0.011065
0.0115048
0.0120288
0.0126287
0.0131739
0.0138418
0.0151868
0.0181027
0.0239475
0.0548025
0.178431
0.478892
0
0
0.0192774
0.0471628
0.0687332
0.235373
0.259122
0.307191
0.458778
0.00771192
0.00775224
0.0078127
0.00791251
0.00804113
0.0081968
0.0083854
0.008623
0.00891493
0.00926444
0.00967716
0.0101555
0.0107021
0.0113213
0.0120138
0.0127753
0.013599
0.0144723
0.0153772
0.0162971
0.0172165
0.0181365
0.0190858
0.0201599
0.0214788
0.0230441
0.0247636
0.0265286
0.0282971
0.0299904
0.0314186
0.032435
0.0333318
0.0348297
0.0379973
0.0526872
0.275026
12.4387
0.0454948
0.00845709
0.00843244
0.00841781
0.00841572
0.00842931
0.00846217
0.00851466
0.00859063
0.00869244
0.00882054
0.00897835
0.00916748
0.00938907
0.00964589
0.00993973
0.0102731
0.0106471
0.0110779
0.0115923
0.0121868
0.0128406
0.0135278
0.0141756
0.0147554
0.0153224
0.0161767
0.0174348
0.0198119
0.0238425
0.0515102
0.191078
3.01848
0
0
0.0342772
0.114603
0.262324
0.299074
0.450149
0.00850045
0.00855065
0.00861853
0.00872516
0.00885625
0.00901009
0.00919655
0.00942899
0.00970862
0.0100389
0.0104262
0.0108726
0.0113797
0.0119521
0.0125899
0.0132874
0.014038
0.0148283
0.0156424
0.0164663
0.0172915
0.0181256
0.0190014
0.0199982
0.0212101
0.0226484
0.0242605
0.0260019
0.0278931
0.0299632
0.0321959
0.0346301
0.0372856
0.0401167
0.0428912
0.0474372
0.0519354
1.75494
0.10892
0.00927443
0.00924048
0.00921439
0.00920185
0.00920358
0.00922324
0.00926239
0.00932466
0.00941228
0.00952683
0.00967136
0.00984814
0.010059
0.0103065
0.0105923
0.0109174
0.0112842
0.0116913
0.0121332
0.0126172
0.0131523
0.0137428
0.0143746
0.015031
0.0157238
0.0165123
0.0174309
0.0184258
0.0195083
0.0217396
0.0254091
0.304361
0.850371
0
0
0.0621691
0.277302
0.28798
0.437619
0.00932661
0.00938441
0.00945802
0.00956991
0.00970245
0.00985632
0.0100414
0.010269
0.0105376
0.0108505
0.0112142
0.0116309
0.0121033
0.0126366
0.0132328
0.0138912
0.0146075
0.0153743
0.0161822
0.0170213
0.0178856
0.0187807
0.0197351
0.0208143
0.0220988
0.0236151
0.0253173
0.0271647
0.0291436
0.0312695
0.0335003
0.0357127
0.0377989
0.0396301
0.0410349
0.0414108
0.0421136
0.0365597
0.294267
0.0101238
0.0100782
0.01004
0.0100142
0.0100013
0.0100051
0.010026
0.0100686
0.0101349
0.0102259
0.0103451
0.0104946
0.0106767
0.010894
0.0111489
0.0114437
0.0117816
0.0121633
0.0126035
0.013109
0.013672
0.0142782
0.01491
0.0155655
0.0162889
0.0171366
0.0181274
0.0191578
0.0200861
0.0208606
0.0215765
0.0241937
0.0957995
0.878192
0
0.0219323
0.150125
0.265505
0.4226
0.0101856
0.0102506
0.01033
0.0104469
0.0105812
0.0107365
0.0109218
0.0111447
0.0114031
0.0117011
0.0120436
0.0124329
0.0128728
0.0133688
0.0139235
0.0145377
0.0152084
0.0159307
0.0166975
0.0175015
0.018338
0.0192137
0.0201545
0.0212119
0.0224538
0.0239079
0.0255442
0.0273336
0.0292738
0.0314037
0.0337328
0.0362386
0.038902
0.0416119
0.0442628
0.0456894
0.0479317
0.0401699
0.0474022
0.0110104
0.0109548
0.0109053
0.0108675
0.0108417
0.0108303
0.0108353
0.0108616
0.0109097
0.010982
0.0110825
0.0112126
0.0113747
0.0115724
0.0118083
0.0120846
0.012405
0.0127698
0.0131829
0.013645
0.0141591
0.01472
0.0153224
0.0159656
0.0166843
0.0175336
0.0185429
0.0196591
0.0207729
0.0216887
0.0224594
0.0223824
0.0238269
0.114055
17.5785
0
0.0862609
0.203377
0.402965
0.0110801
0.0111505
0.0112342
0.0113559
0.0114932
0.0116513
0.0118381
0.0120576
0.0123075
0.0125914
0.0129151
0.0132799
0.01369
0.014151
0.0146677
0.0152414
0.0158722
0.0165591
0.0172966
0.0180823
0.0189145
0.0198006
0.0207635
0.0218473
0.0231085
0.0245737
0.0262301
0.0280466
0.0300288
0.0321821
0.0345144
0.0369652
0.0394526
0.0418217
0.0439695
0.0450446
0.046207
0.0424729
0.0365665
0.0119327
0.0118689
0.011808
0.0117583
0.0117196
0.0116928
0.0116817
0.0116901
0.0117192
0.0117719
0.0118505
0.0119585
0.012097
0.01227
0.0124804
0.0127315
0.0130252
0.0133644
0.0137521
0.0141973
0.0146992
0.0152479
0.0158364
0.0164675
0.0171677
0.0179872
0.0189565
0.0200427
0.0211697
0.0222378
0.023235
0.0239327
0.0231179
0.0259689
0.23804
0
0
0.167258
0.37531
0.0120085
0.0120837
0.0121714
0.0122986
0.0124396
0.0126018
0.0127913
0.0130084
0.0132511
0.0135231
0.01383
0.0141727
0.0145554
0.014985
0.0154662
0.0160011
0.0165932
0.0172425
0.017948
0.0187079
0.0195221
0.0203984
0.0213595
0.0224421
0.0236904
0.0251318
0.0267587
0.0285493
0.0305111
0.0326542
0.0349904
0.0374803
0.0401051
0.042713
0.0452171
0.0467579
0.0482339
0.0453145
0.0380525
0.0128908
0.0128212
0.0127497
0.012689
0.0126372
0.0125965
0.0125699
0.0125613
0.0125727
0.0126065
0.0126658
0.0127522
0.0128699
0.0130208
0.0132085
0.0134365
0.0137075
0.014025
0.014389
0.0148059
0.0152772
0.0157969
0.0163623
0.016977
0.0176626
0.01846
0.0193941
0.0204393
0.0215237
0.0226005
0.0236031
0.0246648
0.0253024
0.0233201
0.0356999
6.01347
0
0.102503
0.335719
0.0129717
0.0130529
0.013145
0.0132786
0.0134239
0.0135906
0.0137828
0.0139987
0.0142352
0.0144969
0.0147886
0.0151121
0.0154707
0.0158714
0.0163201
0.01682
0.0173762
0.0179904
0.0186643
0.0193988
0.0201965
0.0210674
0.0220306
0.023118
0.0243669
0.0258012
0.027423
0.0292181
0.0311815
0.0333361
0.03568
0.0381809
0.040785
0.0433511
0.0457757
0.0473318
0.0488113
0.0466281
0.0402997
0.0138859
0.0138115
0.01373
0.0136587
0.0135949
0.0135398
0.0134982
0.0134738
0.0134681
0.0134832
0.0135228
0.0135891
0.0136853
0.0138138
0.0139779
0.0141806
0.0144269
0.014719
0.015057
0.0154479
0.0158956
0.0163931
0.016938
0.0175339
0.0182023
0.0189751
0.0198747
0.0208811
0.0219289
0.0229708
0.0239732
0.0248674
0.0264032
0.0250982
0.0249801
0.430086
0
0.0828325
0.278728
0.0139733
0.0140627
0.0141621
0.0143011
0.0144512
0.0146219
0.0148164
0.015031
0.0152633
0.0155153
0.0157936
0.0160995
0.0164366
0.0168117
0.0172303
0.0176979
0.0182202
0.0188012
0.0194432
0.0201514
0.0209309
0.0217906
0.0227499
0.0238333
0.025074
0.0264933
0.028098
0.0298801
0.0318381
0.0339852
0.0363267
0.0388509
0.0414915
0.0441538
0.0467146
0.0485064
0.0502894
0.0485825
0.0426925
0.0149229
0.0148419
0.0147507
0.0146689
0.014593
0.0145244
0.0144689
0.0144287
0.0144066
0.0144046
0.0144249
0.0144724
0.0145468
0.0146544
0.0147962
0.0149753
0.0151962
0.0154631
0.0157751
0.016139
0.0165583
0.0170295
0.01755
0.0181249
0.0187729
0.0195208
0.0203877
0.0213584
0.0223764
0.023385
0.024397
0.025207
0.0264235
0.0274555
0.0240934
0.0714162
13.5916
0.0514939
0.185879
0.0150205
0.0151204
0.0152288
0.0153735
0.0155283
0.0157019
0.0158978
0.0161107
0.016338
0.0165827
0.0168471
0.0171381
0.0174555
0.0178072
0.018199
0.0186362
0.0191272
0.0196768
0.0202899
0.0209733
0.0217313
0.0225775
0.0235292
0.0246097
0.0258445
0.0272553
0.0288468
0.0306203
0.0325754
0.0347297
0.0370815
0.0396119
0.0422784
0.0449674
0.0475928
0.0495162
0.0515009
0.0504717
0.0451763
0.0160093
0.0159172
0.0158156
0.0157239
0.0156351
0.0155527
0.0154827
0.0154273
0.0153891
0.0153698
0.0153716
0.0154006
0.0154562
0.0155419
0.0156613
0.0158171
0.0160126
0.0162535
0.0165397
0.0168759
0.0172674
0.017713
0.0182091
0.018761
0.019384
0.0201059
0.0209396
0.0218724
0.0228608
0.0238442
0.024838
0.0257092
0.026492
0.028434
0.0257275
0.0306338
4.71802
0
0.148617
0.0161201
0.0162333
0.0163505
0.0165012
0.0166603
0.0168363
0.0170335
0.0172436
0.0174665
0.0177013
0.0179551
0.0182299
0.0185293
0.0188603
0.0192273
0.0196386
0.0201006
0.0206208
0.021206
0.0218634
0.0226008
0.0234316
0.0243737
0.0254477
0.0266731
0.0280706
0.0296488
0.0314121
0.0333612
0.0355116
0.0378726
0.0404177
0.043111
0.0458667
0.0486026
0.0507572
0.0530075
0.0526335
0.04792
0.0171535
0.0170466
0.0169326
0.0168285
0.0167264
0.0166299
0.0165445
0.0164734
0.0164191
0.0163824
0.0163677
0.0163756
0.0164139
0.0164784
0.0165759
0.0167092
0.0168807
0.0170957
0.0173566
0.0176649
0.018028
0.0184468
0.0189172
0.0194429
0.0200405
0.0207327
0.0215323
0.0224276
0.023385
0.0243477
0.0253054
0.0262522
0.0268785
0.0284886
0.0281654
0.0256928
0.836208
0
0.0372102
0.0172781
0.0174045
0.0175302
0.0176866
0.0178506
0.0180303
0.0182281
0.0184355
0.0186524
0.0188798
0.0191213
0.0193796
0.0196643
0.0199754
0.0203206
0.0207059
0.0211426
0.021635
0.0221931
0.022825
0.0235413
0.0243562
0.0252866
0.0263503
0.0275671
0.0289532
0.03052
0.0322727
0.0342221
0.0363707
0.0387341
0.0413042
0.0440335
0.0468549
0.0496913
0.0520446
0.0545674
0.0549073
0.0509291
0.0183598
0.0182372
0.0181086
0.0179895
0.0178729
0.0177608
0.0176592
0.0175718
0.0175004
0.0174466
0.0174133
0.0174031
0.0174192
0.0174656
0.0175404
0.0176518
0.0178005
0.0179897
0.0182245
0.018505
0.0188403
0.0192316
0.0196753
0.0201738
0.0207453
0.0214058
0.0221705
0.0230292
0.0239505
0.0248934
0.0258201
0.026786
0.0274671
0.0284923
0.0301309
0.0256074
0.190837
12.7456
0
0.0184972
0.0186346
0.0187681
0.0189311
0.0191012
0.0192857
0.0194843
0.0196903
0.0199024
0.0201227
0.0203519
0.0205959
0.0208635
0.0211566
0.0214816
0.0218448
0.022257
0.0227228
0.0232552
0.0238634
0.0245576
0.0253527
0.0262683
0.027323
0.0285314
0.0299057
0.0314599
0.0332028
0.0351447
0.0373001
0.0396699
0.0422565
0.0450289
0.0479166
0.0508843
0.0534665
0.0563171
0.057393
0.0542571
0.0196296
0.0194932
0.0193472
0.019213
0.0190803
0.0189506
0.0188322
0.0187273
0.0186375
0.018566
0.018514
0.0184856
0.0184795
0.0185058
0.0185596
0.0186484
0.0187737
0.0189383
0.0191466
0.0193997
0.0197064
0.0200703
0.0204858
0.0209584
0.0214994
0.0221295
0.0228588
0.0236789
0.0245654
0.025485
0.0263906
0.0273294
0.0281344
0.0287477
0.0312733
0.0266301
0.0467185
7.98484
0
0.019776
0.0199226
0.0200636
0.0202351
0.020413
0.0206032
0.020805
0.0210104
0.0212185
0.0214319
0.0216528
0.0218833
0.022132
0.0224102
0.022715
0.0230572
0.0234454
0.0238876
0.024396
0.0249785
0.025652
0.0264305
0.0273306
0.0283732
0.0295692
0.0309312
0.0324751
0.034209
0.0361438
0.0382982
0.0406893
0.0432979
0.0461104
0.0490721
0.0521814
0.05502
0.0582251
0.0600808
0.0579356
0.0209623
0.020814
0.0206529
0.0205027
0.020352
0.0202042
0.0200682
0.0199445
0.0198362
0.0197454
0.0196747
0.0196257
0.0195997
0.0196016
0.0196358
0.0197004
0.0198031
0.0199429
0.0201259
0.0203511
0.0206293
0.0209646
0.0213528
0.0217967
0.0223083
0.0229061
0.0235978
0.0243817
0.0252335
0.0261252
0.0270161
0.0279152
0.0288193
0.0292396
0.0318702
0.0281567
0.0330853
4.52866
0
0.0211151
0.0212698
0.0214199
0.0215993
0.021787
0.0219859
0.0221917
0.0223983
0.0226037
0.0228119
0.0230244
0.0232441
0.0234787
0.023738
0.0240255
0.0243491
0.024715
0.0251347
0.0256195
0.0261805
0.0268317
0.0275893
0.0284755
0.0295043
0.030688
0.0320367
0.0335683
0.0352963
0.0372308
0.0393882
0.0417869
0.0444239
0.0472909
0.0503474
0.0535973
0.0567207
0.0603141
0.0630014
0.0620134
0.0223565
0.0222001
0.0220243
0.021857
0.0216897
0.0215244
0.0213697
0.0212272
0.0210997
0.0209894
0.0208984
0.0208285
0.0207823
0.0207613
0.0207729
0.0208142
0.020893
0.0210084
0.0211647
0.0213619
0.0216112
0.0219174
0.0222775
0.0226918
0.023174
0.0237379
0.0243945
0.02514
0.0259562
0.0268182
0.0276944
0.0285615
0.029514
0.029899
0.032259
0.0299234
0.0297789
1.83621
0
0.0225173
0.0226805
0.0228409
0.0230294
0.0232275
0.0234359
0.0236469
0.0238564
0.0240612
0.0242641
0.0244718
0.0246822
0.0249048
0.0251479
0.02542
0.0257239
0.0260708
0.0264701
0.0269319
0.027471
0.0281017
0.0288399
0.0297066
0.0307209
0.0318933
0.0332318
0.0347501
0.0364678
0.0383998
0.0405636
0.0429713
0.0456411
0.0485668
0.0517297
0.0551332
0.0585585
0.0625793
0.0661815
0.066554
0.0238172
0.023652
0.023461
0.0232791
0.0230949
0.0229114
0.0227388
0.0225774
0.0224299
0.0222996
0.0221885
0.0220977
0.0220301
0.0219883
0.0219742
0.0219938
0.0220459
0.0221373
0.0222673
0.0224366
0.0226558
0.0229325
0.0232632
0.0236493
0.0240983
0.0246289
0.0252498
0.0259575
0.0267379
0.027569
0.0284298
0.0292723
0.0302352
0.0306686
0.0326465
0.0317809
0.0291973
0.945187
1.59114
0.0239868
0.024162
0.0243341
0.0245328
0.0247414
0.0249581
0.0251754
0.0253886
0.0255947
0.025796
0.0259969
0.0262025
0.0264142
0.0266416
0.0268999
0.0271877
0.0275172
0.0278967
0.0283397
0.0288579
0.0294661
0.0301837
0.0310367
0.0320348
0.0331914
0.0345185
0.0360266
0.0377365
0.0396675
0.0418361
0.0442683
0.0469693
0.0499619
0.0532133
0.0568136
0.0605648
0.065079
0.0696488
0.0716002
0.025352
0.0251732
0.0249674
0.0247704
0.0245694
0.0243685
0.0241775
0.0239969
0.0238294
0.0236793
0.0235474
0.0234355
0.0233465
0.0232831
0.0232454
0.0232411
0.0232679
0.0233335
0.0234377
0.0235795
0.0237673
0.0240137
0.0243153
0.0246699
0.0250875
0.0255839
0.0261682
0.0268392
0.0275854
0.0283852
0.0292252
0.0300495
0.0310018
0.0315199
0.0330941
0.0335969
0.0296112
0.0840124
10.8514
0.0255338
0.0257216
0.0259052
0.0261157
0.0263348
0.0265599
0.026785
0.0270015
0.0272089
0.0274087
0.0276074
0.0278076
0.0280101
0.0282285
0.0284705
0.0287464
0.0290603
0.0294237
0.0298467
0.030344
0.0309327
0.0316335
0.0324661
0.0334481
0.0345935
0.0359065
0.0374051
0.0391083
0.0410385
0.0432198
0.045675
0.0484194
0.0514758
0.0548577
0.0586577
0.0627598
0.0678221
0.0734557
0.0772372
0.0269664
0.026771
0.0265494
0.026337
0.0261185
0.0258991
0.0256895
0.0254889
0.0253024
0.0251312
0.0249787
0.024847
0.0247361
0.0246504
0.0245897
0.02456
0.0245624
0.0246016
0.0246798
0.0247946
0.0249525
0.0251662
0.0254377
0.0257617
0.026148
0.0266106
0.0271585
0.0277917
0.0285017
0.029269
0.0300853
0.0308991
0.0318266
0.0324496
0.0336345
0.0352869
0.0307954
0.0476027
5.47416
0.0271649
0.0273663
0.0275613
0.0277847
0.0280147
0.0282481
0.0284797
0.0287003
0.0289098
0.0291102
0.0293063
0.0295005
0.0296998
0.0299095
0.0301389
0.0304048
0.0307045
0.0310503
0.0314563
0.0319367
0.0325073
0.0331874
0.0340014
0.034971
0.0361027
0.0374063
0.038895
0.0405936
0.0425235
0.0447144
0.0471901
0.0499869
0.0531176
0.0566427
0.0606642
0.0651586
0.0708137
0.0776574
0.0835777
0.0286685
0.0284559
0.0282157
0.0279849
0.0277484
0.0275092
0.0272798
0.0270591
0.0268514
0.0266606
0.026487
0.0263337
0.0262017
0.0260933
0.0260106
0.0259557
0.0259341
0.0259435
0.0259953
0.0260845
0.0262116
0.0263933
0.0266341
0.0269277
0.0272805
0.0277085
0.0282207
0.0288164
0.0294898
0.0302252
0.0310186
0.0318206
0.0327192
0.0334516
0.0343121
0.036679
0.0325381
0.0380689
1.04576
0.0288849
0.0290995
0.029307
0.0295429
0.0297841
0.0300284
0.0302669
0.0304936
0.0307063
0.0309076
0.031099
0.0312921
0.0314875
0.0316896
0.0319119
0.0321641
0.0324517
0.032786
0.0331779
0.0336408
0.0341938
0.0348581
0.0356578
0.0366105
0.0377275
0.0390208
0.0405033
0.0421978
0.044133
0.0463346
0.0488389
0.0516843
0.0549175
0.0585742
0.0628265
0.0677576
0.074079
0.0822472
0.0907058
0.0304666
0.0302335
0.0299721
0.029723
0.0294661
0.0292063
0.0289549
0.0287129
0.028484
0.0282718
0.0280766
0.0279016
0.0277471
0.027616
0.0275114
0.0274307
0.0273836
0.0273671
0.0273907
0.0274521
0.0275496
0.0276993
0.0279086
0.0281706
0.0284904
0.0288829
0.0293591
0.0299174
0.0305554
0.0312607
0.0320296
0.0328206
0.0336894
0.0345204
0.0351751
0.0377022
0.0348469
0.0354505
0.239269
0.0306985
0.0309252
0.0311464
0.0313944
0.0316499
0.031905
0.0321557
0.0323865
0.0326034
0.0328051
0.0329981
0.0331874
0.0333806
0.0335767
0.0337908
0.034034
0.0343126
0.0346372
0.0350136
0.0354632
0.0360031
0.0366514
0.0374332
0.0383741
0.0394819
0.0407631
0.0422386
0.0439337
0.0458749
0.0480948
0.0506287
0.0535364
0.0568599
0.0606807
0.0651999
0.0705708
0.0776455
0.0872862
0.0987625
0.0323609
0.0321082
0.0318263
0.031557
0.0312791
0.0309955
0.0307211
0.0304574
0.0302054
0.0299696
0.0297525
0.0295546
0.0293788
0.0292238
0.0290938
0.0289912
0.0289174
0.0288746
0.0288703
0.0289054
0.0289735
0.0290931
0.0292698
0.0294996
0.0297868
0.0301445
0.0305831
0.031105
0.0317065
0.0323809
0.0331227
0.0339042
0.0347459
0.0356483
0.0362369
0.038473
0.0375125
0.0356356
0.0748951
0.032609
0.0328486
0.0330839
0.0333474
0.0336177
0.0338858
0.0341456
0.0343849
0.0346059
0.0348131
0.0350062
0.0351941
0.035384
0.0355789
0.0357882
0.0360198
0.0362949
0.0366051
0.0369734
0.0374138
0.037937
0.0385694
0.0393401
0.0402702
0.0413656
0.0426405
0.0441115
0.0458044
0.0477557
0.0499982
0.0525729
0.0555409
0.0589679
0.0629565
0.0677681
0.0736368
0.0815166
0.0928516
0.107895
0.0343561
0.0340846
0.0337818
0.0334918
0.0331916
0.0328826
0.0325843
0.0322961
0.0320206
0.0317616
0.0315212
0.0312999
0.0311001
0.0309225
0.0307682
0.0306397
0.0305407
0.0304734
0.0304367
0.0304456
0.0304871
0.0305742
0.0307195
0.0309176
0.0311717
0.031493
0.0318978
0.0323835
0.0329491
0.0335924
0.0343062
0.0350764
0.0359015
0.0368352
0.03748
0.0392318
0.0400891
0.0371266
0.0490621
0.0346201
0.0348756
0.0351242
0.0354073
0.0356903
0.0359744
0.0362447
0.0364967
0.036726
0.0369339
0.0371299
0.037318
0.0375061
0.0377039
0.0379061
0.0381343
0.0383997
0.0387051
0.0390674
0.0394918
0.0400024
0.0406266
0.0413879
0.0423044
0.0433905
0.0446621
0.0461339
0.0478291
0.0497926
0.0520566
0.0546804
0.0577125
0.061267
0.0654492
0.0705399
0.0769379
0.0857281
0.0989028
0.11817
0.0364586
0.0361673
0.0358449
0.0355323
0.0352068
0.0348738
0.0345518
0.0342363
0.0339358
0.033652
0.0333878
0.0331435
0.032918
0.032716
0.0325374
0.0323839
0.0322553
0.0321633
0.0320998
0.0320783
0.0320923
0.0321481
0.0322608
0.0324282
0.0326489
0.032937
0.0333043
0.033756
0.0342867
0.0349006
0.035588
0.0363458
0.0371578
0.0380964
0.0388709
0.0401676
0.0421739
0.0395652
0.0437583
0.0367431
0.037013
0.0372791
0.0375775
0.0378791
0.0381774
0.0384625
0.038725
0.038964
0.0391782
0.0393779
0.0395695
0.0397619
0.0399555
0.0401546
0.0403828
0.0406394
0.0409434
0.0412921
0.0417103
0.0422141
0.0428293
0.0435795
0.0444852
0.045571
0.0468397
0.0483125
0.0500152
0.051992
0.054289
0.056954
0.0600753
0.0637434
0.0681421
0.0735434
0.0805072
0.0902464
0.105462
0.12975
0.0386751
0.0383622
0.0380181
0.0376839
0.0373334
0.0369738
0.0366247
0.0362853
0.0359583
0.0356485
0.0353576
0.0350895
0.0348396
0.0346118
0.0344073
0.0342284
0.0340743
0.0339527
0.0338634
0.0338112
0.0337971
0.0338252
0.0339069
0.0340412
0.0342308
0.0344855
0.0348176
0.0352308
0.0357292
0.0363111
0.0369748
0.0377174
0.0385249
0.0394501
0.0403715
0.0413731
0.0437214
0.0426148
0.0436061
0.03898
0.0392682
0.0395506
0.0398684
0.0401912
0.0405044
0.0408047
0.0410794
0.041328
0.0415507
0.041756
0.0419549
0.0421472
0.0423407
0.0425489
0.0427709
0.0430199
0.043324
0.0436696
0.0440826
0.0445773
0.0451837
0.0459225
0.0468337
0.0479121
0.0491795
0.0506592
0.0523718
0.0543646
0.0567003
0.0594252
0.0626248
0.0664389
0.07104
0.0767963
0.0843453
0.0950716
0.112543
0.142555
0.0410141
0.0406778
0.040312
0.0399527
0.0395753
0.03919
0.0388153
0.0384467
0.0380926
0.037758
0.0374399
0.0371444
0.0368709
0.0366164
0.0363862
0.0361803
0.0359996
0.0358489
0.0357345
0.0356496
0.0356061
0.0356061
0.0356595
0.0357633
0.0359197
0.0361426
0.0364413
0.0368199
0.0372869
0.0378365
0.0384737
0.0391974
0.0400078
0.0409178
0.041955
0.0428634
0.0450243
0.0457367
0.0455222
0.0413396
0.0416456
0.0419482
0.0422842
0.0426297
0.0429616
0.0432809
0.0435679
0.0438285
0.0440621
0.0442772
0.0444791
0.0446779
0.0448748
0.0450848
0.0453058
0.0455648
0.0458601
0.0462049
0.0466072
0.0471005
0.0476999
0.0484404
0.0493463
0.0504225
0.0516962
0.0531811
0.0549132
0.0569334
0.0592981
0.0620885
0.0653897
0.069348
0.0741679
0.0802681
0.0883769
0.100194
0.120026
0.156224
0.0434849
0.0431233
0.0427347
0.0423492
0.041944
0.0415307
0.0411252
0.0407295
0.0403482
0.0399831
0.039639
0.0393181
0.0390175
0.0387355
0.0384777
0.0382467
0.0380406
0.0378586
0.0377136
0.037601
0.0375264
0.0374976
0.0375235
0.0375965
0.0377213
0.0379138
0.0381778
0.0385257
0.0389585
0.0394788
0.0400939
0.0408024
0.0416153
0.0425172
0.0436173
0.0446051
0.046395
0.0484316
0.0484558
0.0438343
0.0441549
0.0444792
0.0448383
0.0451995
0.0455543
0.0458944
0.046197
0.0464727
0.0467214
0.0469466
0.0471556
0.0473613
0.0475617
0.0477777
0.0480092
0.0482679
0.0485562
0.0489004
0.0493037
0.0497972
0.050391
0.0511282
0.0520319
0.0531184
0.0543952
0.0558925
0.0576468
0.0596974
0.0621102
0.0649605
0.0683678
0.0724788
0.0775533
0.08399
0.0927188
0.105564
0.127647
0.169768
0.0460934
0.0457075
0.0452912
0.044877
0.0444421
0.0440007
0.043565
0.0431403
0.0427293
0.042337
0.0419665
0.0416138
0.0412843
0.0409786
0.0406938
0.0404314
0.0401985
0.0399912
0.0398133
0.0396719
0.0395671
0.0395103
0.0395077
0.0395521
0.0396483
0.0398066
0.0400415
0.0403551
0.0407563
0.041252
0.0418454
0.0425394
0.0433476
0.0442585
0.045384
0.0465244
0.0480378
0.0506453
0.0517208
0.0464655
0.0468074
0.047145
0.0475319
0.0479145
0.0482928
0.0486506
0.0489784
0.049265
0.049533
0.0497663
0.0499926
0.050204
0.0504128
0.0506375
0.0508792
0.0511379
0.0514273
0.0517772
0.0521824
0.0526687
0.0532629
0.0540018
0.0549091
0.0560039
0.0572981
0.0588135
0.0605841
0.0626681
0.0651338
0.0680635
0.0715735
0.0758536
0.0811513
0.0879705
0.0972645
0.111145
0.135245
0.182135
0.0488449
0.0484349
0.0479901
0.0475471
0.047084
0.0466081
0.046143
0.0456894
0.0452452
0.0448213
0.0444222
0.0440442
0.0436857
0.043348
0.0430359
0.0427471
0.0424832
0.042247
0.0420442
0.0418734
0.0417357
0.0416497
0.04162
0.0416388
0.0417078
0.0418337
0.0420369
0.0423233
0.0426963
0.0431623
0.043733
0.0444135
0.0452212
0.0461499
0.0472825
0.0485702
0.0500048
0.0526594
0.0548061
0.0492383
0.0496031
0.049965
0.0503734
0.0507803
0.051186
0.051566
0.0519115
0.052223
0.052502
0.0527582
0.0529954
0.0532184
0.0534421
0.0536758
0.0539221
0.0541853
0.0544908
0.0548358
0.0552437
0.0557324
0.0563265
0.0570754
0.0579949
0.0590957
0.0604011
0.0619315
0.0637418
0.0658729
0.0683892
0.071399
0.0750162
0.0794685
0.0849923
0.0921703
0.102026
0.116835
0.142698
0.191622
0.0517542
0.0513143
0.0508428
0.0503692
0.0498737
0.0493645
0.0488682
0.0483777
0.0479038
0.047451
0.0470175
0.0466097
0.0462243
0.0458588
0.0455181
0.0452002
0.0449054
0.0446399
0.044404
0.044208
0.04404
0.0439247
0.0438707
0.043862
0.043905
0.0440033
0.0441737
0.0444336
0.0447783
0.04522
0.0457741
0.04644
0.0472471
0.0481924
0.0493399
0.0507337
0.0522496
0.0547783
0.057603
0.0521732
0.0525577
0.0529427
0.0533798
0.0538139
0.0542378
0.0546468
0.0550141
0.0553544
0.0556467
0.0559228
0.056174
0.0564179
0.056658
0.0568933
0.0571544
0.0574396
0.0577424
0.0580863
0.0585148
0.0589952
0.0596015
0.0603565
0.061283
0.0624046
0.0637306
0.0652839
0.0671272
0.0693046
0.0718779
0.074975
0.0787214
0.0833187
0.0891077
0.0966303
0.10699
0.122459
0.149556
0.19726
0.0548252
0.0543591
0.0538544
0.0533487
0.0528196
0.0522762
0.0517458
0.0512248
0.0507136
0.0502274
0.0497668
0.0493274
0.048908
0.0485126
0.0481434
0.0477986
0.0474737
0.0471795
0.0469123
0.0466828
0.0464886
0.0463448
0.0462638
0.0462345
0.0462473
0.0463203
0.0464654
0.0466962
0.047016
0.0474358
0.0479713
0.0486269
0.0494342
0.0504013
0.0515731
0.0530331
0.0547016
0.0571534
0.0602862
0.0552702
0.0556807
0.056087
0.0565527
0.0570172
0.0574639
0.057903
0.0583006
0.0586504
0.058983
0.059271
0.059545
0.0597998
0.0600544
0.0603176
0.0605999
0.0608831
0.0611935
0.0615578
0.0619773
0.0624793
0.0630963
0.0638588
0.0648017
0.0659307
0.0672787
0.0688767
0.0707559
0.0729797
0.0756298
0.0787994
0.0826703
0.0874425
0.0934418
0.101306
0.112057
0.128129
0.15556
0.19952
0.0580666
0.0575745
0.057034
0.0564995
0.0559354
0.0553587
0.0547901
0.0542283
0.0536861
0.053165
0.0526692
0.0521974
0.0517472
0.0513247
0.0509213
0.0505445
0.050194
0.0498713
0.0495736
0.049316
0.049089
0.048917
0.048813
0.0487637
0.048752
0.048799
0.0489212
0.0491205
0.0494179
0.0498204
0.0503348
0.0509874
0.0517948
0.05278
0.0539877
0.055501
0.0573233
0.0598092
0.0630653
0.0585455
0.0589819
0.0594114
0.0598966
0.0603935
0.0608765
0.0613409
0.0617643
0.0621415
0.0624971
0.0628161
0.0631111
0.0633929
0.0636656
0.0639581
0.0642413
0.0645437
0.0648694
0.0652432
0.0656778
0.0661917
0.066811
0.0675865
0.0685435
0.0697005
0.0710864
0.0727131
0.0746384
0.0769202
0.07964
0.0829039
0.0868692
0.0918206
0.0980367
0.106147
0.117256
0.133715
0.160801
0.199611
0.0615025
0.0609733
0.0604005
0.0598352
0.0592316
0.0586119
0.0580034
0.0574074
0.0568307
0.056278
0.0557434
0.0552343
0.0547526
0.054298
0.0538667
0.0534568
0.0530722
0.052721
0.0523967
0.0521091
0.0518572
0.0516564
0.0515315
0.0514619
0.0514272
0.0514487
0.0515445
0.0517245
0.0519996
0.052384
0.0528858
0.0535317
0.054343
0.055348
0.0565955
0.05816
0.060114
0.0627122
0.0660612
0.0619997
0.0624712
0.0629344
0.0634448
0.0639658
0.0644823
0.0649729
0.065428
0.0658446
0.066213
0.0665601
0.0668855
0.0671924
0.0674939
0.067796
0.0681036
0.0684321
0.0687791
0.0691622
0.0695942
0.0701462
0.0707752
0.071565
0.0725401
0.0737248