/*--------------------------------*- C++ -*----------------------------------*\
| =========                 |                                                 |
| \\      /  F ield         | OpenFOAM: The Open Source CFD Toolbox           |
|  \\    /   O peration     | Version:  2506                                  |
|   \\  /    A nd           | Website:  www.openfoam.com                      |
|    \\/     M anipulation  |                                                 |
\*---------------------------------------------------------------------------*/
FoamFile
{
    version     2.0;
    format      ascii;
    arch        "LSB;label=32;scalar=64";
    class       volScalarField;
    location    "100";
    object      p;
}
// * * * * * * * * * * * * * * * * * * * * * * * * * * * * * * * * * * * * * //

dimensions      [0 2 -2 0 0 0 0];

internalField   nonuniform List<scalar> 
1340
(
3.19339
8.69896
4.78067
5.79746
3.17572
8.51429
5.22786
5.25697
4.6972
5.6706
3.1483
8.33029
5.53989
5.40309
5.28574
5.10119
5.13176
4.60656
5.53726
3.11076
8.1477
5.97387
5.84622
5.73294
5.61453
5.49282
5.36948
5.24352
5.13589
4.96708
4.9982
4.50841
5.39672
3.06583
7.96096
6.29771
6.20342
6.10098
5.98983
5.87081
5.74438
5.63092
5.52903
5.42123
5.3094
5.19529
5.07918
4.98004
4.82636
4.85696
4.40291
5.24764
3.01443
7.76829
6.31745
6.29061
6.25573
6.21312
6.16318
6.10601
6.04185
5.97065
5.89297
5.80819
5.71601
5.61597
5.50828
5.40986
5.32009
5.22364
5.12255
5.01821
4.9115
4.81957
4.67993
4.70865
4.29017
5.0898
2.95595
7.56897
5.68063
5.71689
5.75083
5.7828
5.81201
5.83858
5.86179
5.88155
5.89711
5.9081
5.91333
5.91182
5.90328
5.88778
5.8651
5.83476
5.7972
5.75278
5.70157
5.64385
5.5806
5.51138
5.43582
5.35427
5.2654
5.18262
5.10571
5.0213
4.93126
4.83696
4.73967
4.65444
4.52785
4.5535
4.17029
4.92307
2.89041
7.36287
3.82578
3.85322
3.87722
3.90122
3.92452
3.9476
3.97037
3.9932
4.01602
4.03923
4.0627
4.08683
4.11136
4.13669
4.16248
4.18913
4.21623
4.24426
4.27275
4.30228
4.33234
4.36356
4.39538
4.42845
4.46213
4.49706
4.5325
4.56909
4.60601
4.64394
4.68204
4.72095
4.75989
4.79959
4.83924
4.87962
4.91993
4.96092
5.00179
5.04319
5.08421
5.125
5.16438
5.20309
5.24082
5.27795
5.31362
5.34769
5.37944
5.40867
5.43478
5.45744
5.4761
5.4902
5.49844
5.50012
5.49564
5.48407
5.46495
5.43845
5.40533
5.36609
5.32107
5.27037
5.214
5.15262
5.0863
5.01415
4.94626
4.88225
4.81034
4.73221
4.64851
4.56126
4.48305
4.36936
4.39128
4.04298
4.74771
2.81838
7.14759
3.30678
3.33647
3.36378
3.39156
3.41894
3.44619
3.473
3.49957
3.52577
3.55187
3.57781
3.60395
3.63024
3.65704
3.68421
3.71212
3.74053
3.7698
3.7996
3.83031
3.86157
3.89378
3.92657
3.96038
3.99479
4.03027
4.06631
4.1034
4.14096
4.17948
4.21832
4.25797
4.29776
4.33823
4.37872
4.41972
4.46064
4.50205
4.54341
4.58523
4.62693
4.66903
4.71042
4.75126
4.79165
4.83161
4.8704
4.90801
4.94377
4.97751
5.00864
5.03689
5.06179
5.08312
5.10021
5.11221
5.11788
5.11623
5.10702
5.09037
5.06685
5.0372
5.0019
4.96109
4.91527
4.86509
4.81139
4.75281
4.69818
4.64634
4.58729
4.5216
4.44962
4.37352
4.30342
4.20294
4.22118
3.908
4.56306
2.74126
6.92004
2.91219
2.94109
2.96847
2.99665
3.02501
3.05359
3.08208
3.11038
3.13827
3.16577
3.19272
3.2193
3.24543
3.27141
3.29722
3.3232
3.34931
3.37593
3.40294
3.4307
3.45903
3.48829
3.51824
3.54925
3.58102
3.61395
3.64766
3.68257
3.71824
3.75508
3.79258
3.83115
3.87022
3.9102
3.95052
3.99161
4.03286
4.0747
4.11666
4.15923
4.20183
4.24511
4.28857
4.33241
4.37558
4.41792
4.45893
4.49879
4.537
4.57351
4.60783
4.63978
4.66889
4.69493
4.71747
4.73581
4.74865
4.75504
4.75451
4.74676
4.73191
4.71049
4.68312
4.6505
4.61335
4.57267
4.52908
4.48188
4.43848
4.39773
4.35069
4.29775
4.23822
4.17431
4.11346
4.02695
4.0421
3.7648
4.36784
2.66095
6.67558
2.53605
2.56129
2.58552
2.61096
2.63732
2.66484
2.69326
2.72257
2.75241
2.7827
2.81304
2.84341
2.87347
2.9033
2.93267
2.96179
2.99052
3.01916
3.04762
3.07623
3.10492
3.13403
3.16344
3.19352
3.22408
3.25549
3.28751
3.32049
3.35416
3.38885
3.42423
3.46064
3.49769
3.53571
3.57428
3.61372
3.65356
3.69408
3.73485
3.77624
3.81768
3.85958
3.90162
3.94406
3.98616
4.02792
4.06886
4.10908
4.14807
4.18579
4.22177
4.25588
4.28759
4.31659
4.34249
4.36481
4.38274
4.39551
4.40242
4.40275
4.39621
4.38297
4.36354
4.33881
4.30966
4.27708
4.24203
4.20405
4.17001
4.1384
4.10212
4.06086
4.01368
3.96226
3.91167
3.83978
3.85233
3.61346
4.15843
2.58227
6.40634
2.28783
2.30839
2.32721
2.34627
2.36565
2.3858
2.40688
2.42911
2.4525
2.47707
2.50267
2.52919
2.55636
2.58404
2.61197
2.64004
2.66806
2.69603
2.72383
2.7516
2.77927
2.80707
2.83497
2.86324
2.89185
2.92107
2.95082
2.98137
3.01257
3.04469
3.07752
3.11131
3.14579
3.18121
3.21731
3.25429
3.2918
3.33008
3.36877
3.4081
3.44758
3.48745
3.52738
3.56763
3.60776
3.64788
3.6876
3.72697
3.76553
3.80331
3.83986
3.8751
3.90854
3.93985
3.96865
3.99459
4.01706
4.03539
4.04886
4.05658
4.05809
4.05325
4.04226
4.02577
4.00455
3.97954
3.95184
3.92142
3.89465
3.87044
3.84275
3.81171
3.77576
3.73642
3.69634
3.63987
3.64949
3.45436
3.93047
2.51098
6.10659
1.93627
1.95827
1.97846
1.99811
2.01715
2.03577
2.05421
2.07267
2.09147
2.11077
2.13082
2.15171
2.17354
2.19627
2.21991
2.24432
2.2694
2.29504
2.32112
2.34754
2.37425
2.40123
2.4285
2.45611
2.48408
2.51255
2.54151
2.57113
2.60136
2.63235
2.66402
2.69646
2.72952
2.76335
2.79779
2.83294
2.86859
2.90492
2.94172
2.97915
3.01688
3.05507
3.09344
3.13217
3.17092
3.20976
3.24838
3.28682
3.32472
3.36222
3.39893
3.43492
3.46977
3.50331
3.53514
3.56501
3.5923
3.61644
3.63671
3.65239
3.6629
3.66787
3.66711
3.66085
3.64947
3.63375
3.61474
3.59281
3.57368
3.55668
3.53772
3.51674
3.4927
3.46648
3.4387
3.40188
3.40625
3.27302
3.65132
2.45042
5.74146
1.59319
1.61407
1.634
1.65374
1.67306
1.6919
1.71023
1.72804
1.74552
1.76274
1.78001
1.79746
1.81542
1.83399
1.85346
1.8738
1.8952
1.91755
1.9409
1.96506
1.99005
2.01567
2.04198
2.06883
2.09627
2.12426
2.15285
2.18207
2.21195
2.24251
2.27375
2.30566
2.33815
2.37123
2.4048
2.43883
2.47319
2.50795
2.54299
2.57838
2.61394
2.64977
2.68569
2.7218
2.75782
2.7938
2.82952
2.865
2.90002
2.9347
2.96885
3.00258
3.0357
3.06815
3.09967
3.13006
3.15882
3.18545
3.20935
3.22989
3.24647
3.25856
3.26574
3.26782
3.26484
3.25734
3.24626
3.23195
3.21953
3.20887
3.197
3.18462
3.17084
3.15669
3.14153
3.12286
3.13086
3.0423
3.38043
2.29081
5.50872
1.30982
1.33058
1.35143
1.37289
1.39476
1.41674
1.43871
1.46038
1.48166
1.50237
1.52257
1.54217
1.56139
1.58027
1.59911
1.61796
1.63715
1.65668
1.6768
1.69744
1.71873
1.74054
1.76297
1.7859
1.80941
1.83343
1.85803
1.8832
1.90904
1.93557
1.96287
1.99093
2.01974
2.04927
2.07946
2.11023
2.14145
2.17309
2.205
2.23716
2.26943
2.30182
2.33418
2.3665
2.39861
2.43053
2.4621
2.49332
2.52408
2.55447
2.58444
2.61411
2.64343
2.67248
2.7011
2.72922
2.75648
2.78252
2.80688
2.82903
2.84838
2.86436
2.87636
2.88394
2.88686
2.88546
2.88038
2.87174
2.8642
2.8579
2.85098
2.84454
2.83826
2.83324
2.82848
2.82532
2.83848
2.78934
3.10339
2.10525
5.27966
1.05515
1.03193
1.07649
1.09803
1.12021
1.14313
1.16672
1.19088
1.21545
1.24019
1.26496
1.2895
1.31367
1.33731
1.36037
1.38281
1.40469
1.42607
1.44709
1.46783
1.48844
1.50896
1.52947
1.54997
1.5705
1.59104
1.6116
1.63215
1.65272
1.67337
1.69415
1.71517
1.73651
1.75826
1.78049
1.80327
1.82661
1.85053
1.87501
1.9
1.92547
1.95133
1.97751
2.00394
2.0305
2.05709
2.08364
2.11004
2.13622
2.1621
2.18768
2.21298
2.23806
2.263
2.28788
2.31272
2.3375
2.36206
2.38613
2.40944
2.43153
2.45186
2.46985
2.48485
2.49626
2.50367
2.50718
2.50714
2.50333
2.49983
2.49702
2.49384
2.4918
2.49106
2.49278
2.49661
2.50619
2.52494
2.51173
2.80262
1.90502
4.98789
0.788481
0.76698
0.810255
0.831597
0.853087
0.874816
0.896934
0.91955
0.94267
0.9663
0.99032
1.01466
1.0391
1.0635
1.08761
1.11132
1.13443
1.15695
1.17876
1.19995
1.22051
1.24061
1.26026
1.27964
1.29873
1.31772
1.33655
1.35535
1.374
1.39264
1.41117
1.42972
1.44821
1.4668
1.48543
1.50427
1.52326
1.54259
1.5622
1.58224
1.60262
1.62344
1.64458
1.66612
1.68789
1.7099
1.73199
1.75414
1.77621
1.79815
1.81984
1.84136
1.86267
1.88391
1.90518
1.92656
1.94813
1.96988
1.99167
2.01332
2.03451
2.05475
2.0735
2.09013
2.104
2.11457
2.1218
2.12575
2.12591
2.12573
2.12577
2.12538
2.12646
2.12935
2.13567
2.14534
2.16438
2.18688
2.20439
2.47084
1.67319
4.64129
0.738766
0.717733
0.758794
0.777561
0.795502
0.812753
0.829451
0.845888
0.862149
0.878538
0.895078
0.912004
0.929173
0.94671
0.964335
0.982079
0.99957
1.01681
1.03339
1.04938
1.06444
1.07873
1.092
1.10452
1.11613
1.1272
1.13759
1.1477
1.15736
1.16702
1.17646
1.18608
1.19569
1.20565
1.21577
1.22641
1.23734
1.24894
1.26103
1.27392
1.28742
1.30181
1.31684
1.33272
1.34919
1.36634
1.38388
1.40186
1.41999
1.43828
1.45648
1.47466
1.49266
1.51065
1.52865
1.54682
1.56524
1.58405
1.60318
1.62258
1.64199
1.66109
1.67937
1.69625
1.71114
1.72342
1.73295
1.73955
1.74249
1.74485
1.74698
1.74853
1.75135
1.75624
1.76447
1.77742
1.80115
1.82507
1.8652
2.10622
1.39868
4.23989
0.387713
0.36708
0.405493
0.422236
0.438245
0.453422
0.467807
0.481451
0.494484
0.507072
0.519448
0.531862
0.544524
0.557673
0.571405
0.58585
0.600922
0.616616
0.632674
0.649037
0.665344
0.681517
0.697182
0.712392
0.726837
0.740652
0.75361
0.765987
0.777574
0.788736
0.799286
0.80962
0.819536
0.82945
0.839173
0.849116
0.859069
0.869492
0.880198
0.891625
0.903602
0.916544
0.930232
0.944982
0.960521
0.977017
0.994151
1.01196
1.03007
1.04847
1.0668
1.08503
1.10293
1.12058
1.13792
1.1551
1.17223
1.18946
1.20687
1.2245
1.24228
1.25996
1.27722
1.29355
1.30851
1.32141
1.33212
1.34028
1.345
1.34905
1.35275
1.35554
1.35933
1.36467
1.37301
1.38584
1.41001
1.42967
1.48347
1.69618
1.06146
3.74272
0.150969
0.150866
0.154504
0.157941
0.162035
0.166266
0.170424
0.1746
0.178362
0.182058
0.1853
0.188657
0.191869
0.195704
0.19996
0.205421
0.211798
0.219786
0.228966
0.239852
0.251797
0.265162
0.279251
0.294362
0.309793
0.325804
0.34179
0.35811
0.374239
0.390564
0.40665
0.422916
0.438938
0.455117
0.471074
0.487159
0.503021
0.519009
0.534812
0.550744
0.566563
0.582606
0.598643
0.614952
0.631306
0.647901
0.664468
0.681095
0.69747
0.713632
0.729288
0.744433
0.758877
0.772691
0.785848
0.798513
0.810864
0.823078
0.835398
0.847943
0.860857
0.873987
0.887222
0.90015
0.912446
0.923437
0.933044
0.940683
0.945314
0.949901
0.953883
0.956549
0.959699
0.963927
0.970153
0.981098
1.00179
1.01462
1.07068
1.2533
0.674149
3.10819
-0.93066
-0.938052
-0.925691
-0.918875
-0.910957
-0.901402
-0.890604
-0.87856
-0.865547
-0.851814
-0.837578
-0.823016
-0.808133
-0.79292
-0.777169
-0.76068
-0.743072
-0.724074
-0.703337
-0.680736
-0.656079
-0.629476
-0.600874
-0.570543
-0.538678
-0.505672
-0.471691
-0.437107
-0.40209
-0.366903
-0.331674
-0.296577
-0.261673
-0.227058
-0.1928
-0.158969
-0.125573
-0.0926208
-0.0601673
-0.0281949
0.00328662
0.0343572
0.0649772
0.0952054
0.124956
0.154217
0.182803
0.210623
0.237418
0.263003
0.287125
0.309553
0.330171
0.348801
0.365547
0.380378
0.393665
0.40551
0.416472
0.426707
0.436744
0.446523
0.456346
0.465908
0.475175
0.483471
0.490926
0.496857
0.500189
0.503651
0.507286
0.509656
0.512524
0.515587
0.518807
0.52321
0.533402
0.527529
0.561041
0.707308
0.188346
2.11849
0.44365
0.435191
0.452765
0.46212
0.47088
0.479665
0.488189
0.496866
0.505402
0.513851
0.521898
0.5294
0.535951
0.541288
0.545161
0.547467
0.548217
0.547473
0.545517
0.542571
0.539054
0.535069
0.531136
0.527251
0.523683
0.520218
0.517049
0.513792
0.510539
0.506865
0.502766
0.497837
0.492144
0.48531
0.477389
0.468047
0.457451
0.445385
0.432066
0.417366
0.401636
0.384922
0.36767
0.34999
0.332395
0.314995
0.298263
0.282227
0.267279
0.253291
0.240557
0.228799
0.218239
0.208476
0.199753
0.191637
0.184489
0.177907
0.17241
0.167648
0.16417
0.161531
0.160138
0.15949
0.159705
0.160182
0.161215
0.161978
0.16147
0.163303
0.164144
0.162523
0.160249
0.157778
0.156304
0.158802
0.169542
0.174101
0.198029
0.269734
-0.00244355
0.888439
)
;

boundaryField
{
    inlet
    {
        type            freestreamPressure;
        freestreamValue uniform 0;
        value           nonuniform List<scalar> 
23
(
4.92043
4.81602
4.71199
4.60876
4.50319
4.39427
4.2816
4.1651
4.04344
3.91484
3.7767
3.62455
3.45515
3.24876
3.11733
2.98803
2.82328
2.62753
2.40076
2.11976
1.7609
1.20057
0.503736
)
;
    }
    outlet
    {
        type            freestreamPressure;
        freestreamValue uniform 0;
        value           nonuniform List<scalar> 
82
(
0.00156636
0.00158822
0.00154879
0.00161183
0.00163342
0.00165578
0.00167778
0.00170105
0.00172455
0.00174852
0.00177175
0.00179371
0.00181286
0.00182818
0.00183869
0.00184395
0.00184401
0.00183905
0.00183016
0.00181812
0.00180456
0.00178985
0.00177592
0.00176275
0.00175139
0.001741
0.0017323
0.00172385
0.00171597
0.00170706
0.00169711
0.00168456
0.00166963
0.00165089
0.0016285
0.00160118
0.00156947
0.00153252
0.00149104
0.00144451
0.00139412
0.00133998
0.00128365
0.00122549
0.00116732
0.00110952
0.00105379
0.00100024
0.000950271
0.000903445
0.00086084
0.000821461
0.000786138
0.000753431
0.000724249
0.000697036
0.000673153
0.000651163
0.000633018
0.000617485
0.000606655
0.000598941
0.000595909
0.000595751
0.00059896
0.000603309
0.000609911
0.000615713
0.000616917
0.000626627
0.000632474
0.000629043
0.000623404
0.000617262
0.000615415
0.000629687
0.000677665
0.000703066
0.000807635
0.00111353
-1.03282e-05
0.00360918
)
;
    }
    walls
    {
        type            zeroGradient;
    }
    frontAndBack
    {
        type            empty;
    }
    procBoundary3to2
    {
        type            processor;
        value           nonuniform List<scalar> 
88
(
3.2109
8.87084
4.85809
5.91628
5.91628
5.34675
5.37343
5.37343
5.70518
5.55657
5.42845
5.42845
6.19635
6.0559
5.93231
5.80398
5.67264
5.67264
6.62005
6.5078
6.38617
6.25574
6.11744
6.11744
6.7392
6.69974
6.65182
6.59588
6.53229
6.46144
6.38304
6.38304
6.18074
6.21297
6.24244
6.2692
6.29277
6.31301
6.32948
6.34177
6.34937
6.35146
6.34723
6.33603
6.33603
4.28477
4.30447
4.32519
4.34633
4.36821
4.39091
4.41437
4.43874
4.46384
4.48983
4.51646
4.54388
4.57182
4.60054
4.62974
4.65977
4.69031
4.72181
4.75387
4.78702
4.82072
4.85555
4.89083
4.92721
4.96386
5.0015
5.03924
5.07787
5.11646
5.15589
5.19521
5.23538
5.27539
5.31623
5.35688
5.39829
5.43941
5.48109
5.52225
5.56349
5.60342
5.64305
5.64305
)
;
    }
    procBoundary3to6
    {
        type            processor;
        value           uniform 4.26292;
    }
    procBoundary3to7
    {
        type            processor;
        value           nonuniform List<scalar> 
16
(
3.79305
3.27348
2.87994
2.50816
2.2636
1.91163
1.57078
1.2893
1.2893
1.01355
0.747115
0.695677
0.346093
0.139864
-0.935778
0.432966
)
;
    }
}


// ************************************************************************* //
