/*--------------------------------*- C++ -*----------------------------------*\
| =========                 |                                                 |
| \\      /  F ield         | OpenFOAM: The Open Source CFD Toolbox           |
|  \\    /   O peration     | Version:  2506                                  |
|   \\  /    A nd           | Website:  www.openfoam.com                      |
|    \\/     M anipulation  |                                                 |
\*---------------------------------------------------------------------------*/
FoamFile
{
    version     2.0;
    format      ascii;
    arch        "LSB;label=32;scalar=64";
    class       volSymmTensorField;
    location    "100";
    object      turbulenceProperties:R;
}
// * * * * * * * * * * * * * * * * * * * * * * * * * * * * * * * * * * * * * //

dimensions      [0 2 -2 0 0 0 0];

internalField   nonuniform List<symmTensor> 
1340
(
(3.35665e-07 2.18762e-08 -4.14667e-20 2.9015e-07 -5.52873e-21 3.39684e-07)
(5.58192e-07 2.44435e-08 2.0736e-20 6.8871e-07 2.57048e-21 5.87333e-07)
(8.83746e-08 -4.46885e-09 -8.12106e-20 7.82772e-08 -1.05923e-20 9.21225e-08)
(2.54914e-07 6.37816e-09 -1.26721e-20 3.17757e-07 -1.55378e-21 2.69802e-07)
(3.34021e-07 2.29439e-08 6.17302e-21 2.91449e-07 7.35441e-22 3.39819e-07)
(5.58686e-07 2.425e-08 -8.39039e-20 6.88656e-07 -1.02579e-20 5.8693e-07)
(6.55582e-08 -6.78071e-09 -0 7.75744e-08 -3.10877e-23 7.3632e-08)
(1.09713e-07 -8.88808e-09 -2.75705e-20 1.33464e-07 -3.47404e-21 1.17266e-07)
(8.31024e-08 -3.93036e-09 7.75134e-20 7.47954e-08 1.01305e-20 8.77824e-08)
(2.56395e-07 6.2889e-09 3.89888e-20 3.19566e-07 4.90721e-21 2.71271e-07)
(3.33299e-07 2.38745e-08 8.13009e-24 2.93691e-07 5.2251e-23 3.41085e-07)
(5.58905e-07 2.38941e-08 6.93779e-20 6.87913e-07 8.44783e-21 5.85752e-07)
(8.96426e-08 -1.04384e-09 -3.52578e-20 1.15978e-07 -4.49635e-21 1.02943e-07)
(8.02811e-08 -2.10745e-09 8.21878e-22 1.0354e-07 1.59888e-22 9.24352e-08)
(8.39905e-08 -4.59802e-09 4.86289e-21 1.06595e-07 6.1794e-22 9.46176e-08)
(6.98983e-08 -7.36404e-09 -0 8.24138e-08 -6.00259e-24 7.82296e-08)
(1.12683e-07 -9.49834e-09 -7.75796e-23 1.3658e-07 -1.39237e-23 1.20378e-07)
(7.8289e-08 -3.40818e-09 3.41826e-22 7.1831e-08 5.89569e-23 8.39172e-08)
(2.57978e-07 6.32946e-09 2.08312e-22 3.21448e-07 3.88197e-23 2.72824e-07)
(3.33294e-07 2.46907e-08 1.68483e-24 2.96303e-07 1.50656e-24 3.42866e-07)
(5.58806e-07 2.32463e-08 2.48352e-22 6.87027e-07 4.57731e-23 5.84401e-07)
(1.17944e-07 -1.25531e-09 2.51924e-21 1.52558e-07 3.7414e-22 1.3504e-07)
(1.10812e-07 -1.06626e-09 1.06036e-20 1.43357e-07 1.3593e-21 1.26894e-07)
(1.05054e-07 -9.32563e-10 1.07629e-20 1.35933e-07 1.25612e-21 1.20393e-07)
(9.98326e-08 -1.04494e-09 -3.7433e-20 1.2916e-07 -4.7685e-21 1.14446e-07)
(9.43668e-08 -1.15715e-09 9.73919e-21 1.2207e-07 1.29479e-21 1.08276e-07)
(8.95581e-08 -1.59448e-09 -1.47824e-20 1.15737e-07 -1.9119e-21 1.02697e-07)
(8.12165e-08 -2.73721e-09 5.63927e-23 1.04459e-07 8.15262e-23 9.331e-08)
(8.61015e-08 -5.34662e-09 3.54265e-20 1.0864e-07 4.54561e-21 9.67196e-08)
(7.40682e-08 -7.93224e-09 -0 8.70434e-08 -4.29399e-23 8.26012e-08)
(1.1529e-07 -1.00411e-08 2.05311e-21 1.39282e-07 1.96165e-22 1.23112e-07)
(7.40114e-08 -2.92167e-09 -7.06493e-20 6.94035e-08 -9.2175e-21 8.055e-08)
(2.59608e-07 6.44136e-09 -3.55224e-20 3.23438e-07 -4.47517e-21 2.74513e-07)
(3.33811e-07 2.5434e-08 -2.31801e-21 2.99079e-07 -2.63366e-22 3.44916e-07)
(5.58462e-07 2.23171e-08 9.11044e-21 6.86171e-07 1.11662e-21 5.83056e-07)
(1.47651e-07 -2.7445e-09 2.06738e-20 1.90692e-07 2.46603e-21 1.69407e-07)
(1.41818e-07 -2.33245e-09 -1.90929e-20 1.83252e-07 -2.46157e-21 1.62706e-07)
(1.35414e-07 -2.14343e-09 -4.97924e-21 1.75007e-07 -6.50517e-22 1.55288e-07)
(1.28604e-07 -2.0557e-09 -3.09165e-20 1.66204e-07 -3.88874e-21 1.47373e-07)
(1.21653e-07 -1.99687e-09 -7.09107e-21 1.5721e-07 -8.12708e-22 1.39302e-07)
(1.14933e-07 -1.96382e-09 4.99798e-21 1.485e-07 6.51055e-22 1.31477e-07)
(1.08428e-07 -1.69519e-09 2.53081e-21 1.40136e-07 3.0863e-22 1.24017e-07)
(1.03155e-07 -1.48341e-09 2.98352e-23 1.33361e-07 1.52114e-23 1.18049e-07)
(9.84058e-08 -1.54144e-09 6.33985e-21 1.27197e-07 7.67374e-22 1.12625e-07)
(9.34902e-08 -1.61381e-09 -1.71681e-20 1.20816e-07 -2.13929e-21 1.07069e-07)
(8.93299e-08 -2.07514e-09 3.25699e-20 1.15275e-07 4.15667e-21 1.02226e-07)
(8.21409e-08 -3.31614e-09 -2.11006e-20 1.05319e-07 -2.80672e-21 9.40901e-08)
(8.82035e-08 -6.06298e-09 -3.35701e-20 1.10603e-07 -4.26622e-21 9.87423e-08)
(7.82189e-08 -8.51739e-09 -0 9.15985e-08 4.38928e-23 8.68731e-08)
(1.17563e-07 -1.05209e-08 -1.95355e-21 1.41604e-07 -1.8315e-22 1.25488e-07)
(7.01652e-08 -2.44055e-09 6.71483e-20 6.74025e-08 8.74721e-21 7.75621e-08)
(2.61158e-07 6.61719e-09 3.36684e-20 3.25378e-07 4.23027e-21 2.76199e-07)
(3.34687e-07 2.61175e-08 2.20645e-21 3.01988e-07 2.51148e-22 3.4718e-07)
(5.57968e-07 2.11464e-08 -8.60716e-21 6.85306e-07 -1.05066e-21 5.81671e-07)
(1.58806e-07 -8.65161e-09 -2.23785e-21 2.01596e-07 -3.4227e-22 1.80211e-07)
(1.57928e-07 -7.82186e-09 -1.20841e-20 2.01177e-07 -1.56074e-21 1.79541e-07)
(1.56405e-07 -6.98685e-09 -2.14937e-20 1.99842e-07 -2.57756e-21 1.78101e-07)
(1.54106e-07 -6.11232e-09 7.63669e-21 1.97453e-07 1.01424e-21 1.75796e-07)
(1.51144e-07 -5.20908e-09 -1.97952e-21 1.94146e-07 -2.39048e-22 1.72725e-07)
(1.47752e-07 -4.36181e-09 9.84739e-21 1.90178e-07 1.31356e-21 1.69094e-07)
(1.4407e-07 -3.67738e-09 2.53963e-20 1.85705e-07 3.13116e-21 1.65063e-07)
(1.39913e-07 -3.19701e-09 7.44694e-23 1.80507e-07 -2.06826e-23 1.60438e-07)
(1.34943e-07 -2.93418e-09 1.5104e-20 1.7416e-07 1.88333e-21 1.54758e-07)
(1.29526e-07 -2.84482e-09 -1.41336e-21 1.6717e-07 -2.11063e-22 1.485e-07)
(1.23609e-07 -2.80556e-09 1.39432e-21 1.59508e-07 2.0678e-22 1.41621e-07)
(1.17573e-07 -2.72833e-09 1.36032e-20 1.51697e-07 1.69578e-21 1.34572e-07)
(1.11804e-07 -2.65029e-09 -4.72808e-21 1.44223e-07 -6.30724e-22 1.27785e-07)
(1.06076e-07 -2.30684e-09 -2.3744e-21 1.36901e-07 -2.88481e-22 1.21182e-07)
(1.01361e-07 -2.01768e-09 4.42542e-23 1.30881e-07 1.5471e-23 1.15827e-07)
(9.71593e-08 -2.025e-09 -2.57733e-23 1.25428e-07 -2.32874e-24 1.1101e-07)
(9.27763e-08 -2.07978e-09 -7.92163e-23 1.1973e-07 -4.70432e-23 1.0604e-07)
(8.9123e-08 -2.57138e-09 -1.77635e-20 1.14786e-07 -2.22968e-21 1.01745e-07)
(8.31592e-08 -3.89694e-09 2.00818e-20 1.06232e-07 2.59618e-21 9.49078e-08)
(9.04109e-08 -6.76383e-09 -8.02173e-23 1.12627e-07 -4.51928e-23 1.00813e-07)
(8.2325e-08 -9.1009e-09 -0 9.60854e-08 2.81091e-24 9.10407e-08)
(1.19383e-07 -1.09168e-08 1.858e-21 1.43436e-07 1.69394e-22 1.27399e-07)
(6.66904e-08 -1.9258e-09 -6.84996e-20 6.57837e-08 -8.87544e-21 7.48973e-08)
(2.62648e-07 6.87184e-09 7.18926e-23 3.27256e-07 7.31075e-23 2.77867e-07)
(3.35742e-07 2.67312e-08 -6.28882e-21 3.04902e-07 -8.3741e-22 3.49518e-07)
(5.57243e-07 1.97446e-08 -3.11375e-23 6.84259e-07 -2.43919e-24 5.801e-07)
(1.14541e-07 -1.37926e-08 2.13477e-21 1.29211e-07 1.63223e-22 1.22164e-07)
(1.19636e-07 -1.38578e-08 -1.34932e-20 1.37449e-07 -1.65724e-21 1.28759e-07)
(1.23732e-07 -1.37129e-08 -2.65671e-22 1.44434e-07 1.28601e-22 1.34257e-07)
(1.27433e-07 -1.34347e-08 1.22505e-20 1.50873e-07 1.41356e-21 1.39289e-07)
(1.30643e-07 -1.30329e-08 -1.30626e-20 1.56621e-07 -1.65174e-21 1.43742e-07)
(1.33428e-07 -1.2507e-08 2.34174e-21 1.61792e-07 3.68105e-22 1.47708e-07)
(1.35824e-07 -1.18919e-08 9.2484e-22 1.66363e-07 8.77635e-23 1.51186e-07)
(1.38048e-07 -1.12489e-08 -2.19815e-21 1.7055e-07 -1.93863e-22 1.54391e-07)
(1.40112e-07 -1.06214e-08 1.54876e-20 1.74332e-07 2.01413e-21 1.57314e-07)
(1.41704e-07 -9.94894e-09 2.1741e-20 1.77405e-07 2.59537e-21 1.5962e-07)
(1.42803e-07 -9.21826e-09 1.61817e-21 1.7977e-07 1.23036e-22 1.61279e-07)
(1.44181e-07 -8.57521e-09 5.72129e-21 1.82307e-07 6.68532e-22 1.63173e-07)
(1.44964e-07 -7.93419e-09 -6.1771e-21 1.83983e-07 -7.83907e-22 1.64404e-07)
(1.44678e-07 -7.26696e-09 -3.45739e-23 1.84205e-07 1.47923e-22 1.64342e-07)
(1.4405e-07 -6.59042e-09 3.25383e-20 1.83929e-07 4.0118e-21 1.63866e-07)
(1.42677e-07 -5.84837e-09 2.25013e-23 1.82675e-07 -1.83002e-22 1.62578e-07)
(1.40688e-07 -5.10566e-09 -1.8473e-20 1.8056e-07 -2.3035e-21 1.60593e-07)
(1.38013e-07 -4.40387e-09 -3.80904e-21 1.77474e-07 -4.65821e-22 1.5777e-07)
(1.35037e-07 -3.8135e-09 -1.74306e-20 1.739e-07 -2.16779e-21 1.54557e-07)
(1.31952e-07 -3.47299e-09 -4.09991e-21 1.70054e-07 -4.58583e-22 1.51142e-07)
(1.28134e-07 -3.37424e-09 7.50849e-23 1.65147e-07 -2.85851e-23 1.46788e-07)
(1.23735e-07 -3.39614e-09 -2.14573e-20 1.59433e-07 -2.68773e-21 1.41734e-07)
(1.18899e-07 -3.45177e-09 -1.41138e-21 1.53129e-07 -1.36878e-22 1.36128e-07)
(1.13851e-07 -3.44239e-09 -5.24503e-21 1.46566e-07 -6.57513e-22 1.30226e-07)
(1.08886e-07 -3.37416e-09 -2.20355e-23 1.40123e-07 1.31313e-23 1.24342e-07)
(1.03877e-07 -2.96458e-09 2.26021e-21 1.33788e-07 2.38175e-22 1.18558e-07)
(9.97823e-08 -2.60018e-09 -1.83095e-20 1.28618e-07 -2.28592e-21 1.13893e-07)
(9.62089e-08 -2.55197e-09 1.66461e-20 1.23989e-07 2.18636e-21 1.09766e-07)
(9.2454e-08 -2.58346e-09 1.52837e-20 1.19099e-07 1.96223e-21 1.05475e-07)
(8.92909e-08 -3.0981e-09 2.785e-20 1.14725e-07 3.46793e-21 1.01708e-07)
(8.45157e-08 -4.50174e-09 -3.23915e-20 1.07502e-07 -4.18469e-21 9.60936e-08)
(9.28005e-08 -7.4521e-09 -3.28938e-23 1.14831e-07 4.25989e-23 1.0307e-07)
(8.63473e-08 -9.66132e-09 -0 1.00501e-07 -1.62098e-24 9.51032e-08)
(1.20686e-07 -1.12106e-08 -1.75835e-21 1.44748e-07 -2.04943e-22 1.28806e-07)
(6.37073e-08 -1.36519e-09 1.76272e-20 6.468e-08 2.28198e-21 7.26847e-08)
(2.64095e-07 7.20754e-09 7.45433e-21 3.2908e-07 9.34623e-22 2.79524e-07)
(3.36722e-07 2.72761e-08 -7.3526e-21 3.07583e-07 -9.86741e-22 3.5165e-07)
(5.56397e-07 1.81038e-08 1.24015e-24 6.83191e-07 4.0921e-24 5.78504e-07)
(1.37055e-06 1.78637e-07 1.50667e-21 1.42244e-06 2.14117e-22 1.40283e-06)
(1.5087e-06 1.96523e-07 1.45218e-21 1.54869e-06 1.57134e-22 1.53578e-06)
(1.56755e-06 2.03617e-07 -8.07664e-23 1.5895e-06 -2.48461e-23 1.58959e-06)
(1.5687e-06 2.04116e-07 3.40504e-22 1.59706e-06 4.90709e-23 1.58595e-06)
(1.56729e-06 2.03589e-07 4.32734e-22 1.58528e-06 5.16264e-23 1.57991e-06)
(1.54864e-06 2.00812e-07 1.91619e-22 1.56115e-06 1.83316e-23 1.55686e-06)
(1.51915e-06 1.96567e-07 9.90144e-23 1.52418e-06 -1.00089e-23 1.52326e-06)
(1.47873e-06 1.90891e-07 -1.50578e-21 1.47689e-06 -1.93464e-22 1.47903e-06)
(1.42896e-06 1.83941e-07 -5.93488e-22 1.42021e-06 -3.70976e-23 1.42577e-06)
(1.37135e-06 1.75948e-07 1.3414e-21 1.35619e-06 1.72503e-22 1.36501e-06)
(1.30754e-06 1.67133e-07 -0 1.28648e-06 -1.88568e-23 1.29838e-06)
(1.23896e-06 1.57695e-07 -7.31432e-23 1.21264e-06 2.45447e-23 1.22733e-06)
(1.16698e-06 1.47832e-07 2.71391e-21 1.13617e-06 3.37102e-22 1.15322e-06)
(1.09293e-06 1.37726e-07 8.15039e-23 1.05841e-06 1.21003e-23 1.07735e-06)
(1.01785e-06 1.27528e-07 2.78294e-21 9.80437e-07 3.44239e-22 1.00079e-06)
(9.42893e-07 1.17381e-07 1.70817e-22 9.03242e-07 -3.42634e-24 9.2466e-07)
(8.68723e-07 1.07379e-07 5.45633e-22 8.27486e-07 8.72156e-23 8.496e-07)
(7.962e-07 9.76341e-08 2.00615e-21 7.53959e-07 2.49853e-22 7.76465e-07)
(7.25928e-07 8.82169e-08 9.67635e-22 6.83164e-07 1.26031e-22 7.05832e-07)
(6.58421e-07 7.91925e-08 2.6008e-21 6.15563e-07 2.82328e-22 6.38206e-07)
(5.94077e-07 7.06108e-08 -2.3021e-21 5.51509e-07 -3.45918e-22 5.73956e-07)
(5.33184e-07 6.25137e-08 -3.30147e-21 4.91278e-07 -3.66896e-22 5.13362e-07)
(4.75798e-07 5.49108e-08 1.10527e-21 4.34906e-07 1.61735e-22 4.56449e-07)
(4.22073e-07 4.78279e-08 -7.88639e-22 3.8253e-07 -1.31575e-22 4.03362e-07)
(3.7198e-07 4.126e-08 -2.25268e-21 3.34081e-07 -2.8876e-22 3.54042e-07)
(3.25433e-07 3.52067e-08 -1.92192e-21 2.89476e-07 -1.74696e-22 3.08398e-07)
(2.82311e-07 2.9657e-08 3.82551e-21 2.48568e-07 4.73664e-22 2.66278e-07)
(2.42525e-07 2.46013e-08 -1.29439e-21 2.11232e-07 -1.89485e-22 2.27593e-07)
(2.05991e-07 2.00107e-08 4.83354e-22 1.77302e-07 5.51797e-23 1.92231e-07)
(1.7245e-07 1.58509e-08 -1.67457e-21 1.46506e-07 -1.83966e-22 1.59933e-07)
(1.41861e-07 1.21097e-08 2.64803e-21 1.1877e-07 3.52316e-22 1.30634e-07)
(1.14083e-07 8.75051e-09 1.62533e-21 9.39225e-08 1.91024e-22 1.04195e-07)
(8.92495e-08 5.73124e-09 1.89621e-21 7.20235e-08 2.57328e-22 8.07274e-08)
(6.76074e-08 3.02183e-09 4.66343e-21 5.33248e-08 5.23554e-22 6.04838e-08)
(5.026e-08 6.34458e-10 -3.55035e-21 3.8902e-08 -4.87155e-22 4.45516e-08)
(3.92038e-08 -1.47132e-09 -1.96707e-21 3.07388e-08 -2.1136e-22 3.493e-08)
(3.66481e-08 -3.30495e-09 1.63441e-22 3.10336e-08 1.80881e-23 3.38157e-08)
(4.12541e-08 -4.91505e-09 -2.28395e-21 3.84661e-08 -2.85741e-22 3.9873e-08)
(4.94323e-08 -6.33673e-09 -9.10139e-22 4.94255e-08 -1.22392e-22 4.95001e-08)
(6.06604e-08 -7.83386e-09 -3.61968e-21 6.34017e-08 -4.24691e-22 6.21606e-08)
(6.97049e-08 -8.88078e-09 1.2522e-21 7.50769e-08 1.91007e-22 7.24647e-08)
(7.51334e-08 -9.32461e-09 1.59882e-21 8.3073e-08 1.59099e-22 7.90994e-08)
(8.47075e-08 -1.01609e-08 -4.06172e-21 9.57023e-08 -4.85128e-22 9.01259e-08)
(9.11973e-08 -1.0508e-08 3.21594e-21 1.04981e-07 4.2189e-22 9.81035e-08)
(9.41502e-08 -1.03329e-08 -4.75023e-23 1.10242e-07 -3.08043e-23 1.02314e-07)
(1.00252e-07 -1.05138e-08 -4.6359e-25 1.18851e-07 -7.68558e-24 1.09631e-07)
(1.05399e-07 -1.05139e-08 2.93038e-23 1.26361e-07 2.81529e-23 1.15948e-07)
(1.09917e-07 -1.03725e-08 3.27982e-21 1.33135e-07 3.38898e-22 1.21581e-07)
(1.13854e-07 -1.00931e-08 -1.12233e-20 1.39219e-07 -1.39098e-21 1.26582e-07)
(1.17365e-07 -9.73435e-09 2.11217e-24 1.44713e-07 5.74254e-23 1.3108e-07)
(1.20588e-07 -9.34268e-09 1.24337e-23 1.49739e-07 -2.08705e-23 1.35206e-07)
(1.23589e-07 -8.97129e-09 -4.33954e-21 1.54335e-07 -5.30672e-22 1.39014e-07)
(1.26257e-07 -8.6108e-09 7.77849e-23 1.58392e-07 3.52285e-23 1.4238e-07)
(1.27809e-07 -8.12349e-09 -5.09483e-22 1.61043e-07 -5.89994e-23 1.44425e-07)
(1.29013e-07 -7.51458e-09 8.12583e-24 1.63295e-07 -4.82045e-24 1.46105e-07)
(1.31093e-07 -7.06895e-09 -2.38171e-21 1.66475e-07 -2.93007e-22 1.48676e-07)
(1.32256e-07 -6.6711e-09 1.10749e-23 1.68351e-07 -4.51424e-23 1.50084e-07)
(1.32231e-07 -6.09828e-09 -1.39586e-20 1.68786e-07 -1.71967e-21 1.50264e-07)
(1.31706e-07 -5.47057e-09 1.05677e-24 1.68562e-07 1.07608e-22 1.49895e-07)
(1.30649e-07 -4.86864e-09 1.56087e-20 1.67583e-07 1.93173e-21 1.48924e-07)
(1.28837e-07 -4.31957e-09 -9.64396e-24 1.65552e-07 -2.59739e-24 1.4708e-07)
(1.26617e-07 -3.88291e-09 1.66287e-20 1.62905e-07 2.06395e-21 1.4473e-07)
(1.24266e-07 -3.68949e-09 -9.96403e-22 1.59954e-07 -2.11942e-22 1.42124e-07)
(1.21557e-07 -3.70643e-09 -1.37944e-20 1.56438e-07 -1.7171e-21 1.39061e-07)
(1.18293e-07 -3.8433e-09 -1.04843e-22 1.52137e-07 2.03464e-23 1.35329e-07)
(1.14658e-07 -4.0069e-09 -7.40313e-24 1.47323e-07 7.26612e-24 1.31124e-07)
(1.10749e-07 -4.09465e-09 5.03695e-21 1.42178e-07 6.40824e-22 1.26552e-07)
(1.06652e-07 -4.07913e-09 4.31508e-21 1.36831e-07 5.31559e-22 1.21704e-07)
(1.02206e-07 -3.64156e-09 2.29612e-23 1.31281e-07 -4.77659e-24 1.16601e-07)
(9.86734e-08 -3.22277e-09 -7.10541e-23 1.26898e-07 -1.11873e-23 1.12577e-07)
(9.57112e-08 -3.12896e-09 4.72437e-23 1.23078e-07 -2.34996e-23 1.09118e-07)
(9.256e-08 -3.12653e-09 -1.45235e-20 1.18971e-07 -1.88664e-21 1.05471e-07)
(8.98874e-08 -3.65453e-09 -2.24426e-20 1.15164e-07 -2.77595e-21 1.02212e-07)
(8.63477e-08 -5.13749e-09 3.20717e-20 1.09304e-07 4.14721e-21 9.78318e-08)
(9.54679e-08 -8.13862e-09 1.54145e-20 1.17346e-07 1.92076e-21 1.05654e-07)
(9.03956e-08 -1.02065e-08 -0 1.04983e-07 -2.63581e-23 9.92056e-08)
(1.21508e-07 -1.14037e-08 -5.07533e-21 1.45607e-07 -6.0389e-22 1.2977e-07)
(6.13948e-08 -7.54842e-10 4.52732e-20 6.42807e-08 5.82781e-21 7.11096e-08)
(2.65411e-07 7.6091e-09 -3.48194e-20 3.30758e-07 -4.48904e-21 2.81094e-07)
(3.37555e-07 2.77754e-08 1.86391e-21 3.09948e-07 2.84522e-22 3.53471e-07)
(5.55502e-07 1.62246e-08 1.21594e-24 6.82221e-07 -9.27658e-25 5.77015e-07)
(8.78107e-07 1.11921e-07 -1.03344e-22 9.55278e-07 -1.19898e-23 9.19719e-07)
(9.40292e-07 1.21495e-07 1.79223e-22 1.00078e-06 2.1459e-23 9.77917e-07)
(1.02277e-06 1.32864e-07 -2.13245e-22 1.0627e-06 -2.88721e-23 1.05646e-06)
(1.05959e-06 1.37907e-07 -7.87437e-23 1.10468e-06 -7.62821e-24 1.08936e-06)
(1.09355e-06 1.42402e-07 2.96662e-25 1.13023e-06 1.02318e-24 1.11935e-06)
(1.1146e-06 1.45118e-07 8.08687e-26 1.14748e-06 -1.76228e-23 1.13652e-06)
(1.12514e-06 1.46409e-07 -1.51819e-21 1.15274e-06 -1.79047e-22 1.14327e-06)
(1.12476e-06 1.46233e-07 6.14417e-22 1.14749e-06 9.37014e-23 1.13925e-06)
(1.11419e-06 1.44684e-07 5.95906e-23 1.13171e-06 -1.15223e-23 1.12522e-06)
(1.09423e-06 1.41873e-07 -9.73898e-22 1.10646e-06 -1.20824e-22 1.102e-06)
(1.06603e-06 1.37952e-07 -0 1.07288e-06 -1.03775e-23 1.07077e-06)
(1.03062e-06 1.33061e-07 -1.85393e-21 1.03211e-06 -2.38069e-22 1.03258e-06)
(9.8922e-07 1.27362e-07 -7.5728e-22 9.85579e-07 -7.29434e-23 9.88665e-07)
(9.43043e-07 1.21024e-07 5.84941e-26 9.3465e-07 -1.19564e-23 9.40237e-07)
(8.93174e-07 1.14198e-07 -1.90078e-21 8.80524e-07 -2.1463e-22 8.88384e-07)
(8.40701e-07 1.07033e-07 1.72861e-21 8.24309e-07 2.52416e-22 8.34196e-07)
(7.86478e-07 9.96565e-08 1.86266e-21 7.66958e-07 1.95536e-22 7.78515e-07)
(7.31461e-07 9.22043e-08 -1.41888e-21 7.09453e-07 -2.04679e-22 7.22297e-07)
(6.7645e-07 8.47814e-08 -1.15195e-21 6.52511e-07 -1.33831e-22 6.66323e-07)
(6.2208e-07 7.74748e-08 -5.8273e-22 5.96733e-07 -6.17145e-23 6.11227e-07)
(5.689e-07 7.03588e-08 -3.19098e-22 5.42629e-07 -3.45425e-24 5.57535e-07)
(5.17355e-07 6.34936e-08 2.87687e-21 4.90602e-07 3.54348e-22 5.05688e-07)
(4.67737e-07 5.69148e-08 1.26882e-24 4.40886e-07 -1.4825e-23 4.55951e-07)
(4.20311e-07 5.06603e-08 1.24732e-21 3.93724e-07 1.67208e-22 4.08586e-07)
(3.75271e-07 4.47533e-08 1.4497e-21 3.49261e-07 1.66874e-22 3.63758e-07)
(3.32675e-07 3.92101e-08 1.84626e-22 3.0756e-07 -3.7972e-24 3.21524e-07)
(2.92594e-07 3.40431e-08 -1.16495e-21 2.68668e-07 -1.48252e-22 2.81925e-07)
(2.55047e-07 2.92583e-08 -6.15492e-22 2.32575e-07 -6.42432e-23 2.44982e-07)
(2.19974e-07 2.48443e-08 6.11342e-25 1.99173e-07 8.16377e-24 2.10602e-07)
(1.87278e-07 2.07889e-08 3.4021e-22 1.68334e-07 4.03742e-23 1.78695e-07)
(1.56891e-07 1.70832e-08 3.4918e-24 1.39961e-07 1.52154e-23 1.49158e-07)
(1.28647e-07 1.3713e-08 2.31073e-21 1.13886e-07 2.82753e-22 1.21835e-07)
(1.02526e-07 1.06493e-08 1.28218e-24 8.99857e-08 -1.81837e-23 9.66742e-08)
(7.83982e-08 7.87578e-09 6.88175e-24 6.81217e-08 3.52703e-23 7.3561e-08)
(5.63081e-08 5.39923e-09 3.99611e-21 4.83266e-08 4.97837e-22 5.25105e-08)
(3.60035e-08 3.19221e-09 1.21615e-21 3.03684e-08 1.01144e-22 3.32885e-08)
(1.77881e-08 1.24533e-09 -2.21371e-21 1.44823e-08 -2.6793e-22 1.61703e-08)
(5.98858e-09 -4.91441e-10 1.43926e-21 4.98156e-09 1.90612e-22 5.50364e-09)
(1.63875e-08 -2.09083e-09 -1.58895e-24 1.76242e-08 -2.24789e-23 1.70294e-08)
(3.07018e-08 -3.78713e-09 -1.69814e-21 3.41216e-08 -2.18289e-22 3.24581e-08)
(4.42406e-08 -5.36316e-09 -1.51381e-21 4.97264e-08 -1.65044e-22 4.70835e-08)
(5.09995e-08 -5.96224e-09 1.36157e-21 5.83714e-08 1.91346e-22 5.4758e-08)
(5.46293e-08 -5.87391e-09 2.20343e-21 6.43557e-08 2.65059e-22 5.95886e-08)
(6.4971e-08 -6.52748e-09 1.15651e-21 7.77937e-08 1.85563e-22 7.15015e-08)
(7.52596e-08 -7.4101e-09 9.31882e-21 9.04505e-08 1.1305e-21 8.27871e-08)
(8.15466e-08 -7.6995e-09 1.14839e-25 9.87526e-08 -5.78273e-23 9.00818e-08)
(8.72465e-08 -7.85934e-09 8.22421e-25 1.06434e-07 -1.40393e-23 9.67741e-08)
(9.2432e-08 -7.89668e-09 -3.21427e-21 1.13562e-07 -3.51343e-22 1.0293e-07)
(9.70669e-08 -7.81491e-09 7.0595e-21 1.20064e-07 8.76392e-22 1.08497e-07)
(1.01318e-07 -7.6671e-09 1.18424e-22 1.26073e-07 -6.42858e-23 1.1363e-07)
(1.05259e-07 -7.49252e-09 -8.54117e-21 1.31635e-07 -1.04714e-21 1.18386e-07)
(1.09008e-07 -7.34732e-09 4.60304e-23 1.36852e-07 -2.59233e-24 1.22877e-07)
(1.12429e-07 -7.24809e-09 -9.90769e-21 1.41543e-07 -1.21201e-21 1.26943e-07)
(1.146e-07 -6.98863e-09 4.87402e-22 1.44726e-07 1.17476e-22 1.29629e-07)
(1.16255e-07 -6.58433e-09 3.22686e-21 1.47336e-07 3.89681e-22 1.31751e-07)
(1.18512e-07 -6.33806e-09 -1.88535e-21 1.50539e-07 -2.65292e-22 1.34363e-07)
(1.2037e-07 -6.05401e-09 -5.47466e-21 1.5323e-07 -6.70164e-22 1.36546e-07)
(1.21126e-07 -5.58379e-09 -6.24727e-23 1.54605e-07 6.67508e-24 1.3757e-07)
(1.21495e-07 -5.06515e-09 9.76962e-25 1.55469e-07 -1.17658e-24 1.38156e-07)
(1.21338e-07 -4.58101e-09 6.5059e-23 1.55587e-07 1.22283e-23 1.38146e-07)
(1.20431e-07 -4.15764e-09 -6.50458e-24 1.54668e-07 -4.90817e-23 1.37299e-07)
(1.1904e-07 -3.85969e-09 -1.58112e-20 1.53038e-07 -1.94957e-21 1.35881e-07)
(1.1748e-07 -3.796e-09 5.60045e-21 1.51058e-07 7.81338e-22 1.34189e-07)
(1.15693e-07 -3.93139e-09 1.31181e-20 1.48679e-07 1.67692e-21 1.32195e-07)
(1.13512e-07 -4.18717e-09 1.95046e-20 1.45708e-07 2.41026e-21 1.29701e-07)
(1.11005e-07 -4.45798e-09 -2.27331e-23 1.4228e-07 -8.02637e-23 1.26794e-07)
(1.08153e-07 -4.64025e-09 -1.17573e-20 1.38435e-07 -1.488e-21 1.23453e-07)
(1.04901e-07 -4.68939e-09 -4.09911e-21 1.34139e-07 -5.06522e-22 1.19618e-07)
(1.00999e-07 -4.26556e-09 -7.58307e-21 1.29327e-07 -9.13599e-22 1.15188e-07)
(9.79213e-08 -3.82545e-09 1.18288e-20 1.25587e-07 1.50816e-21 1.11705e-07)
(9.55153e-08 -3.7115e-09 -3.68317e-21 1.22505e-07 -4.65892e-22 1.08869e-07)
(9.29536e-08 -3.69437e-09 1.4168e-20 1.1916e-07 1.87884e-21 1.05847e-07)
(9.08265e-08 -4.24778e-09 3.88014e-20 1.15977e-07 4.93788e-21 1.03142e-07)
(8.86231e-08 -5.81445e-09 1.76351e-20 1.11584e-07 2.18437e-21 1.00081e-07)
(9.84414e-08 -8.83615e-09 3.6136e-23 1.20198e-07 -2.0401e-23 1.086e-07)
(9.45242e-08 -1.07426e-08 -0 1.096e-07 7.69331e-24 1.03419e-07)
(1.21888e-07 -1.15023e-08 4.81638e-21 1.46072e-07 6.17029e-22 1.30351e-07)
(5.99063e-08 -8.68662e-11 9.43862e-23 6.47561e-08 4.59624e-23 7.03249e-08)
(2.66724e-07 8.04913e-09 3.30949e-20 3.3249e-07 4.23633e-21 2.82758e-07)
(3.38118e-07 2.82582e-08 1.87955e-20 3.11862e-07 2.47243e-21 3.54805e-07)
(5.54721e-07 1.4104e-08 1.21116e-24 6.81638e-07 -1.0188e-23 5.75919e-07)
(5.29597e-07 6.33565e-08 4.65029e-22 6.0185e-07 6.05632e-23 5.71112e-07)
(5.52449e-07 6.82028e-08 5.02412e-22 6.15564e-07 5.75573e-23 5.91717e-07)
(6.21125e-07 7.91512e-08 -2.59946e-23 6.67086e-07 -1.13292e-23 6.57915e-07)
(6.66585e-07 8.55311e-08 -3.89744e-22 7.1487e-07 -4.7686e-23 7.00745e-07)
(7.11416e-07 9.19063e-08 4.6127e-23 7.52311e-07 1.09055e-23 7.42784e-07)
(7.49528e-07 9.71603e-08 1.55925e-22 7.87161e-07 1.99934e-23 7.78005e-07)
(7.80872e-07 1.0143e-07 -1.07745e-24 8.14826e-07 -1.35493e-24 8.06402e-07)
(8.0444e-07 1.04606e-07 2.85655e-25 8.35553e-07 -6.27205e-25 8.27011e-07)
(8.20017e-07 1.06679e-07 -9.65103e-26 8.48311e-07 3.671e-25 8.39655e-07)
(8.27432e-07 1.07638e-07 -9.66968e-25 8.52861e-07 -3.88559e-25 8.44201e-07)
(8.26988e-07 1.07536e-07 -0 8.49329e-07 5.34308e-25 8.40985e-07)
(8.18921e-07 1.06411e-07 -1.45697e-24 8.3798e-07 -1.00174e-24 8.30274e-07)
(8.03838e-07 1.04349e-07 -6.74551e-26 8.1935e-07 -9.99202e-25 8.12702e-07)
(7.82489e-07 1.01449e-07 2.57903e-25 7.94271e-07 5.63469e-24 7.89036e-07)
(7.55684e-07 9.78198e-08 4.42612e-22 7.63701e-07 4.98799e-23 7.60105e-07)
(7.24312e-07 9.35797e-08 -3.6872e-22 7.28648e-07 -5.10527e-23 7.26807e-07)
(6.89286e-07 8.88514e-08 1.36408e-24 6.90129e-07 4.91269e-24 6.90063e-07)
(6.51541e-07 8.37631e-08 -1.76957e-24 6.492e-07 1.55365e-24 6.50812e-07)
(6.11929e-07 7.84318e-08 -1.46679e-24 6.06762e-07 3.60499e-24 6.09904e-07)
(5.71136e-07 7.29534e-08 5.56369e-22 5.63543e-07 7.16288e-23 5.68023e-07)
(5.29806e-07 6.74199e-08 3.01762e-22 5.20224e-07 3.16165e-23 5.25805e-07)
(4.88503e-07 6.19081e-08 4.11555e-24 4.77339e-07 -2.63345e-24 4.83807e-07)
(4.47663e-07 5.64789e-08 4.74152e-26 4.35315e-07 9.33531e-25 4.42453e-07)
(4.07693e-07 5.11878e-08 1.66085e-24 3.94529e-07 2.80213e-25 4.0214e-07)
(3.68877e-07 4.60771e-08 1.50361e-24 3.55266e-07 -1.41468e-23 3.63138e-07)
(3.31485e-07 4.11831e-08 -1.76941e-21 3.17758e-07 -2.15728e-22 3.25708e-07)
(2.95714e-07 3.65342e-08 2.23787e-22 2.82184e-07 4.2263e-23 2.90032e-07)
(2.6168e-07 3.21484e-08 -5.30117e-25 2.48637e-07 -1.81061e-24 2.56217e-07)
(2.29419e-07 2.80317e-08 -2.37616e-23 2.17127e-07 -5.99229e-24 2.2428e-07)
(1.98941e-07 2.41855e-08 -3.25607e-22 1.87632e-07 -4.05256e-23 1.94225e-07)
(1.70264e-07 2.06116e-08 -1.31995e-25 1.60141e-07 -1.95417e-25 1.6605e-07)
(1.43435e-07 1.73144e-08 2.65858e-24 1.34671e-07 1.04865e-23 1.39799e-07)
(1.18388e-07 1.428e-08 1.28184e-21 1.11115e-07 1.57539e-22 1.15387e-07)
(9.51142e-08 1.15069e-08 -1.54818e-25 8.94632e-08 -8.02031e-24 9.2807e-08)
(7.37497e-08 9.00115e-09 5.59251e-24 6.98118e-08 -5.489e-24 7.21804e-08)
(5.43458e-08 6.75235e-09 -1.1586e-21 5.21996e-08 -1.25794e-22 5.35625e-08)
(3.71776e-08 4.74837e-09 2.10559e-21 3.68688e-08 2.5579e-22 3.72088e-08)
(2.2776e-08 2.92321e-09 -1.37234e-21 2.42861e-08 -1.81763e-22 2.36453e-08)
(1.39922e-08 1.17161e-09 -3.67048e-27 1.72427e-08 1.89777e-23 1.56848e-08)
(1.74679e-08 -6.82505e-10 1.61073e-21 2.23933e-08 2.05341e-22 1.99626e-08)
(2.84239e-08 -2.41187e-09 1.43786e-21 3.49642e-08 1.64404e-22 3.17428e-08)
(3.52736e-08 -2.96616e-09 3.95497e-24 4.34409e-08 -7.20956e-24 3.94872e-08)
(4.04628e-08 -2.95528e-09 3.76346e-24 5.05236e-08 -6.74821e-24 4.56852e-08)
(5.01595e-08 -3.908e-09 -1.08346e-21 6.22603e-08 -1.58186e-22 5.6231e-08)
(6.00311e-08 -4.90703e-09 -4.74613e-21 7.4134e-08 -5.72392e-22 6.70048e-08)
(6.65752e-08 -5.29354e-09 1.09421e-25 8.24554e-08 2.24569e-23 7.44437e-08)
(7.27711e-08 -5.57189e-09 7.79688e-25 9.04544e-08 4.00162e-24 8.15249e-08)
(7.84692e-08 -5.746e-09 -1.15488e-23 9.79117e-08 -9.28478e-24 8.80923e-08)
(8.36036e-08 -5.82153e-09 -1.79138e-21 1.04721e-07 -2.21975e-22 9.4066e-08)
(8.83528e-08 -5.84309e-09 -1.1238e-22 1.11055e-07 -3.36627e-24 9.96143e-08)
(9.27655e-08 -5.84851e-09 -3.12581e-23 1.16936e-07 1.05017e-23 1.04772e-07)
(9.69605e-08 -5.89168e-09 3.91649e-21 1.22469e-07 4.73147e-22 1.09646e-07)
(1.00837e-07 -5.9862e-09 -1.47232e-21 1.27516e-07 -1.97825e-22 1.1412e-07)
(1.03582e-07 -5.90404e-09 -3.02635e-24 1.31241e-07 -8.04027e-24 1.17393e-07)
(1.05702e-07 -5.68749e-09 -3.06244e-21 1.34254e-07 -3.59396e-22 1.19985e-07)
(1.08182e-07 -5.59251e-09 3.91828e-21 1.37606e-07 5.15384e-22 1.22842e-07)
(1.10438e-07 -5.43456e-09 5.18621e-21 1.40708e-07 6.71489e-22 1.25474e-07)
(1.11903e-07 -5.1065e-09 1.40333e-20 1.42891e-07 1.71504e-21 1.27243e-07)
(1.12975e-07 -4.70953e-09 -2.08485e-23 1.44581e-07 -9.05462e-23 1.28562e-07)
(1.1351e-07 -4.33239e-09 -1.25212e-20 1.45529e-07 -1.54324e-21 1.29273e-07)
(1.13356e-07 -4.00695e-09 3.32549e-21 1.45534e-07 4.52632e-22 1.29224e-07)
(1.12714e-07 -3.81111e-09 -6.8633e-23 1.44822e-07 -4.28811e-23 1.28609e-07)
(1.11847e-07 -3.85028e-09 -7.0699e-21 1.4369e-07 -9.28385e-22 1.27681e-07)
(1.108e-07 -4.09333e-09 -1.81797e-20 1.42205e-07 -2.28722e-21 1.26504e-07)
(1.09508e-07 -4.45872e-09 -1.66799e-20 1.40307e-07 -2.01937e-21 1.24997e-07)
(1.07907e-07 -4.82259e-09 9.21832e-21 1.37973e-07 1.19298e-21 1.23115e-07)
(1.05954e-07 -5.09347e-09 -7.31079e-22 1.35214e-07 -1.06883e-22 1.20803e-07)
(1.03488e-07 -5.21424e-09 3.90043e-21 1.31876e-07 4.87981e-22 1.17894e-07)
(1.00088e-07 -4.81714e-09 -1.09223e-21 1.27733e-07 -1.46013e-22 1.1409e-07)
(9.73949e-08 -4.38277e-09 2.48731e-23 1.24531e-07 7.13735e-24 1.11086e-07)
(9.55364e-08 -4.2817e-09 5.07661e-24 1.22161e-07 -3.23898e-23 1.08876e-07)
(9.35817e-08 -4.2832e-09 -1.61123e-20 1.19587e-07 -2.07478e-21 1.06512e-07)
(9.20784e-08 -4.88623e-09 -1.53163e-20 1.17107e-07 -1.91764e-21 1.04443e-07)
(9.13532e-08 -6.54664e-09 4.73394e-23 1.14333e-07 3.22651e-23 1.02844e-07)
(1.01788e-07 -9.5639e-09 3.21407e-24 1.2345e-07 1.30132e-24 1.11979e-07)
(9.87945e-08 -1.12792e-08 -0 1.14416e-07 -4.01709e-24 1.07819e-07)
(1.21935e-07 -1.1528e-08 -4.67561e-21 1.4626e-07 -6.04734e-22 1.30678e-07)
(5.94755e-08 6.55306e-10 3.56167e-23 6.63479e-08 -1.43085e-23 7.05644e-08)
(2.67608e-07 8.4746e-09 -1.98928e-20 3.33796e-07 -2.54884e-21 2.84114e-07)
(3.38728e-07 2.87747e-08 -1.78666e-20 3.13564e-07 -2.35521e-21 3.55923e-07)
(5.54286e-07 1.17906e-08 1.58919e-22 6.81622e-07 3.9563e-23 5.75389e-07)
(3.9445e-07 4.30192e-08 -4.41676e-22 4.63951e-07 -5.54658e-23 4.29919e-07)
(3.94089e-07 4.32711e-08 8.03466e-25 4.62575e-07 4.85682e-24 4.29048e-07)
(4.18404e-07 4.99567e-08 -1.04088e-25 4.75374e-07 4.65854e-24 4.52466e-07)
(4.46852e-07 5.40918e-08 3.70543e-22 5.04459e-07 4.47278e-23 4.79777e-07)
(4.72117e-07 5.88954e-08 -4.36201e-23 5.21913e-07 -1.03932e-23 5.03656e-07)
(5.00538e-07 6.34011e-08 -1.48111e-22 5.45404e-07 -1.67566e-23 5.30471e-07)
(5.28433e-07 6.76234e-08 -3.9305e-25 5.68209e-07 1.61716e-24 5.5657e-07)
(5.54402e-07 7.13864e-08 -2.48733e-26 5.90151e-07 7.46601e-25 5.80594e-07)
(5.77049e-07 7.45964e-08 1.49379e-22 6.0941e-07 2.65697e-23 6.01181e-07)
(5.95362e-07 7.71593e-08 9.02683e-22 6.24946e-07 1.09426e-22 6.17358e-07)
(6.08719e-07 7.90171e-08 -0 6.3592e-07 -2.78747e-24 6.28535e-07)
(6.16734e-07 8.01326e-08 4.86876e-22 6.41791e-07 5.30848e-23 6.34364e-07)
(6.1926e-07 8.04957e-08 -7.028e-22 6.42199e-07 -9.60099e-23 6.3473e-07)
(6.16345e-07 8.01205e-08 -5.6442e-22 6.37077e-07 -5.53078e-23 6.2971e-07)
(6.08223e-07 7.90439e-08 8.77277e-22 6.26627e-07 1.14775e-22 6.19566e-07)
(5.95254e-07 7.73184e-08 3.51936e-22 6.11211e-07 3.48895e-23 6.04681e-07)
(5.77957e-07 7.50152e-08 1.48288e-25 5.91352e-07 8.74678e-24 5.85593e-07)
(5.56909e-07 7.2213e-08 1.28715e-21 5.67718e-07 1.68157e-22 5.62897e-07)
(5.32731e-07 6.89947e-08 1.03958e-21 5.40987e-07 1.11659e-22 5.37222e-07)
(5.05991e-07 6.54376e-08 -5.29729e-22 5.11805e-07 -7.5067e-23 5.09145e-07)
(4.77318e-07 6.16266e-08 -2.87233e-22 4.80874e-07 -5.19864e-23 4.79298e-07)
(4.47259e-07 5.76358e-08 -2.61149e-21 4.48769e-07 -3.18612e-22 4.48226e-07)
(4.16336e-07 5.3537e-08 -6.50797e-25 4.16055e-07 1.49808e-23 4.16451e-07)
(3.85027e-07 4.93967e-08 -6.97148e-22 3.83245e-07 -8.55122e-23 3.84445e-07)
(3.53752e-07 4.52741e-08 1.30015e-26 3.50787e-07 6.63231e-24 3.52624e-07)
(3.22884e-07 4.12189e-08 -2.17967e-24 3.19018e-07 -1.41035e-24 3.21351e-07)
(2.9268e-07 3.72695e-08 1.72743e-24 2.88219e-07 5.83116e-27 2.90879e-07)
(2.63363e-07 3.34574e-08 -4.11001e-25 2.58602e-07 4.79329e-25 2.61418e-07)
(2.35076e-07 2.98029e-08 2.18517e-23 2.30289e-07 4.55028e-24 2.33103e-07)