/*--------------------------------*- C++ -*----------------------------------*\
| =========                 |                                                 |
| \\      /  F ield         | OpenFOAM: The Open Source CFD Toolbox           |
|  \\    /   O peration     | Version:  2506                                  |
|   \\  /    A nd           | Website:  www.openfoam.com                      |
|    \\/     M anipulation  |                                                 |
\*---------------------------------------------------------------------------*/
FoamFile
{
    version     2.0;
    format      ascii;
    arch        "LSB;label=32;scalar=64";
    class       volScalarField;
    location    "50";
    object      nuTilda;
}
// * * * * * * * * * * * * * * * * * * * * * * * * * * * * * * * * * * * * * //

dimensions      [0 2 -1 0 0 0 0];

internalField   nonuniform List<scalar> 
1340
(
4.68817e-05
5.14754e-05
5.75534e-05
6.56744e-05
7.66495e-05
9.16049e-05
0.000112393
0.000141649
0.000183801
0.00024597
0.000340083
0.000488262
0.00072678
0.00113063
0.00183755
0.00320037
0.00563657
0.0112321
0.0224846
0.0498848
0.0859176
0.107754
0.115564
0.117722
0.118318
0.118185
0.117462
0.116235
3.98754e-05
3.96094e-05
3.92707e-05
3.88824e-05
3.84572e-05
3.79956e-05
3.74931e-05
3.69442e-05
3.63058e-05
3.5564e-05
3.46166e-05
3.34113e-05
3.1726e-05
2.93552e-05
2.58452e-05
2.06782e-05
1.52658e-05
1.09378e-05
5.83228e-05
0.000255141
0.00158228
0.00794328
0.0207855
0.0370867
0.0523048
0.0628786
0.0687263
0.0718126
0.0737371
4.01622e-05
4.01895e-05
4.02228e-05
4.02588e-05
4.02986e-05
4.03456e-05
4.0399e-05
4.04569e-05
4.05217e-05
4.05929e-05
4.06734e-05
4.07647e-05
4.08724e-05
4.10008e-05
4.11593e-05
4.13659e-05
4.1608e-05
4.19301e-05
4.20351e-05
4.15958e-05
3.96597e-05
3.96493e-05
0.000283455
0.0014697
0.0046846
0.0104073
0.0181926
0.0271232
0.0361883
4.00983e-05
4.0097e-05
4.00921e-05
4.00855e-05
4.00797e-05
4.00743e-05
4.00696e-05
4.0066e-05
4.00643e-05
4.00643e-05
4.0066e-05
4.00691e-05
4.00736e-05
4.00791e-05
4.00855e-05
4.00923e-05
4.00993e-05
4.01065e-05
4.01151e-05
4.01273e-05
4.01642e-05
4.01279e-05
4.05526e-05
3.92116e-05
4.09392e-05
1.10244e-05
4.04426e-05
0.000410374
0.00159536
0.00415209
4.00937e-05
4.00946e-05
4.00949e-05
4.00951e-05
4.00959e-05
4.0097e-05
4.0098e-05
4.00997e-05
4.01031e-05
4.01083e-05
4.01149e-05
4.01232e-05
4.0133e-05
4.01444e-05
4.01573e-05
4.01717e-05
4.01877e-05
4.02057e-05
4.02266e-05
4.02524e-05
4.02803e-05
4.03279e-05
4.03232e-05
4.05584e-05
4.03454e-05
4.23996e-05
1.91188e-05
0.000103465
3.28983e-05
0.000977027
4.00802e-05
4.00842e-05
4.00854e-05
4.00856e-05
4.00856e-05
4.00858e-05
4.00865e-05
4.00873e-05
4.00882e-05
4.00896e-05
4.00913e-05
4.00933e-05
4.00961e-05
4.00996e-05
4.01038e-05
4.01086e-05
4.0114e-05
4.01199e-05
4.01263e-05
4.01338e-05
4.01422e-05
4.01512e-05
4.01607e-05
4.01721e-05
4.01838e-05
4.01941e-05
4.02533e-05
4.00504e-05
3.74218e-05
3.31232e-05
8.96257e-06
4.00739e-05
4.00776e-05
4.00794e-05
4.00802e-05
4.00808e-05
4.00816e-05
4.00827e-05
4.00838e-05
4.00851e-05
4.00865e-05
4.0088e-05
4.00898e-05
4.00921e-05
4.00955e-05
4.00999e-05
4.01053e-05
4.01116e-05
4.01189e-05
4.01273e-05
4.0137e-05
4.01484e-05
4.0162e-05
4.01782e-05
4.01974e-05
4.02195e-05
4.02491e-05
4.02649e-05
4.04611e-05
4.03166e-05
3.8744e-05
3.69376e-05
4.00674e-05
4.00712e-05
4.00733e-05
4.00747e-05
4.00756e-05
4.00768e-05
4.00782e-05
4.00796e-05
4.00811e-05
4.00828e-05
4.00845e-05
4.00862e-05
4.0088e-05
4.00899e-05
4.00922e-05
4.0095e-05
4.00987e-05
4.01033e-05
4.01086e-05
4.01146e-05
4.01214e-05
4.01291e-05
4.01379e-05
4.01478e-05
4.01589e-05
4.01713e-05
4.01852e-05
4.02011e-05
4.02349e-05
4.02278e-05
4.0652e-05
4.00578e-05
4.00615e-05
4.00652e-05
4.00677e-05
4.00695e-05
4.00709e-05
4.00724e-05
4.00739e-05
4.00756e-05
4.00774e-05
4.00793e-05
4.00812e-05
4.00831e-05
4.00849e-05
4.00867e-05
4.00885e-05
4.00906e-05
4.00934e-05
4.00969e-05
4.01014e-05
4.01068e-05
4.01133e-05
4.01211e-05
4.01304e-05
4.01415e-05
4.01546e-05
4.01701e-05
4.01882e-05
4.02091e-05
4.02349e-05
4.02691e-05
4.03815e-05
4.00558e-05
4.00596e-05
4.00622e-05
4.00643e-05
4.0066e-05
4.00679e-05
4.00696e-05
4.00716e-05
4.00736e-05
4.00758e-05
4.00779e-05
4.00801e-05
4.00821e-05
4.00841e-05
4.0086e-05
4.00878e-05
4.00896e-05
4.00916e-05
4.00941e-05
4.00977e-05
4.01022e-05
4.01079e-05
4.01147e-05
4.01229e-05
4.01326e-05
4.01438e-05
4.01567e-05
4.01719e-05
4.01898e-05
4.02155e-05
4.02182e-05
4.00543e-05
4.00572e-05
4.00594e-05
4.00613e-05
4.00634e-05
4.00655e-05
4.00676e-05
4.00698e-05
4.00722e-05
4.00745e-05
4.00769e-05
4.00792e-05
4.00815e-05
4.00835e-05
4.00853e-05
4.00869e-05
4.00884e-05
4.00899e-05
4.00921e-05
4.00955e-05
4.01e-05
4.01058e-05
4.0113e-05
4.01217e-05
4.01321e-05
4.01443e-05
4.01588e-05
4.01757e-05
4.01964e-05
4.02127e-05
4.00524e-05
4.00548e-05
4.00568e-05
4.0059e-05
4.00614e-05
4.00637e-05
4.0066e-05
4.00684e-05
4.00709e-05
4.00734e-05
4.00759e-05
4.00783e-05
4.00806e-05
4.00825e-05
4.00842e-05
4.00856e-05
4.00867e-05
4.00879e-05
4.00899e-05
4.00932e-05
4.00976e-05
4.01033e-05
4.01103e-05
4.01188e-05
4.01288e-05
4.01406e-05
4.01548e-05
4.01719e-05
4.01917e-05
4.00506e-05
4.00527e-05
4.00549e-05
4.00574e-05
4.00598e-05
4.00622e-05
4.00647e-05
4.00672e-05
4.00697e-05
4.00723e-05
4.00748e-05
4.00771e-05
4.00793e-05
4.00811e-05
4.00827e-05
4.00839e-05
4.00847e-05
4.00858e-05
4.00881e-05
4.00914e-05
4.0096e-05
4.01018e-05
4.01089e-05
4.01176e-05
4.0128e-05
4.01403e-05
4.01553e-05
4.01731e-05
4.0049e-05
4.00513e-05
4.00536e-05
4.0056e-05
4.00585e-05
4.0061e-05
4.00635e-05
4.00661e-05
4.00686e-05
4.00711e-05
4.00735e-05
4.00759e-05
4.0078e-05
4.00798e-05
4.00813e-05
4.00823e-05
4.00831e-05
4.00842e-05
4.00864e-05
4.00896e-05
4.00941e-05
4.00997e-05
4.01068e-05
4.01153e-05
4.01257e-05
4.01387e-05
4.01542e-05
4.00482e-05
4.00501e-05
4.00525e-05
4.0055e-05
4.00576e-05
4.00601e-05
4.00626e-05
4.0065e-05
4.00676e-05
4.00701e-05
4.00726e-05
4.0075e-05
4.00773e-05
4.00791e-05
4.00805e-05
4.00813e-05
4.00818e-05
4.00828e-05
4.00848e-05
4.0088e-05
4.00923e-05
4.0098e-05
4.0105e-05
4.01137e-05
4.01247e-05
4.01381e-05
4.00454e-05
4.00472e-05
4.00494e-05
4.00519e-05
4.00545e-05
4.00569e-05
4.00593e-05
4.00618e-05
4.00643e-05
4.0067e-05
4.00697e-05
4.00723e-05
4.00748e-05
4.00769e-05
4.00785e-05
4.00796e-05
4.008e-05
4.00802e-05
4.00812e-05
4.00833e-05
4.00865e-05
4.0091e-05
4.00966e-05
4.01039e-05
4.01132e-05
4.01246e-05
4.00452e-05
4.0047e-05
4.00492e-05
4.00517e-05
4.00541e-05
4.00564e-05
4.00588e-05
4.00613e-05
4.0064e-05
4.00667e-05
4.00694e-05
4.00719e-05
4.00741e-05
4.00758e-05
4.0077e-05
4.00776e-05
4.00775e-05
4.0078e-05
4.00794e-05
4.0082e-05
4.00856e-05
4.00904e-05
4.00965e-05
4.01045e-05
4.01143e-05
4.00436e-05
4.0045e-05
4.0047e-05
4.00494e-05
4.00516e-05
4.00538e-05
4.0056e-05
4.00585e-05
4.00611e-05
4.00637e-05
4.00663e-05
4.00686e-05
4.00707e-05
4.00724e-05
4.00738e-05
4.00745e-05
4.00746e-05
4.00748e-05
4.00759e-05
4.0078e-05
4.0081e-05
4.00851e-05
4.00905e-05
4.00974e-05
4.01059e-05
4.00439e-05
4.00455e-05
4.00474e-05
4.00494e-05
4.00515e-05
4.00536e-05
4.00559e-05
4.00583e-05
4.00607e-05
4.00631e-05
4.00654e-05
4.00674e-05
4.00692e-05
4.00706e-05
4.00716e-05
4.0072e-05
4.00721e-05
4.00729e-05
4.00744e-05
4.00769e-05
4.00803e-05
4.00848e-05
4.00908e-05
4.00982e-05
4.00431e-05
4.00443e-05
4.00459e-05
4.00477e-05
4.00497e-05
4.00518e-05
4.00538e-05
4.0056e-05
4.00581e-05
4.00603e-05
4.00625e-05
4.00645e-05
4.00664e-05
4.0068e-05
4.00693e-05
4.00701e-05
4.00702e-05
4.00706e-05
4.00716e-05
4.00734e-05
4.00761e-05
4.00798e-05
4.00848e-05
4.0091e-05
4.00429e-05
4.00436e-05
4.00449e-05
4.00466e-05
4.00485e-05
4.00503e-05
4.00521e-05
4.0054e-05
4.00559e-05
4.00579e-05
4.006e-05
4.00621e-05
4.0064e-05
4.00657e-05
4.00671e-05
4.00681e-05
4.00685e-05
4.00687e-05
4.00693e-05
4.00706e-05
4.00727e-05
4.00758e-05
4.00799e-05
4.00851e-05
4.00434e-05
4.00444e-05
4.00458e-05
4.00474e-05
4.00491e-05
4.00507e-05
4.00523e-05
4.0054e-05
4.00559e-05
4.00579e-05
4.00599e-05
4.00618e-05
4.00634e-05
4.00647e-05
4.00656e-05
4.00662e-05
4.00663e-05
4.00668e-05
4.00678e-05
4.00697e-05
4.00724e-05
4.00759e-05
4.00805e-05
4.00436e-05
4.00442e-05
4.00453e-05
4.00466e-05
4.00481e-05
4.00496e-05
4.00511e-05
4.00526e-05
4.00543e-05
4.00561e-05
4.00579e-05
4.00595e-05
4.00609e-05
4.00621e-05
4.00629e-05
4.00635e-05
4.00637e-05
4.00641e-05
4.00651e-05
4.00668e-05
4.00692e-05
4.00724e-05
4.00766e-05
4.00442e-05
4.0045e-05
4.00461e-05
4.00475e-05
4.00488e-05
4.00502e-05
4.00516e-05
4.0053e-05
4.00544e-05
4.00559e-05
4.00573e-05
4.00586e-05
4.00598e-05
4.00607e-05
4.00613e-05
4.00616e-05
4.00621e-05
4.0063e-05
4.00644e-05
4.00664e-05
4.00693e-05
4.0073e-05
4.00444e-05
4.0045e-05
4.0046e-05
4.00471e-05
4.00484e-05
4.00496e-05
4.00507e-05
4.00518e-05
4.0053e-05
4.00543e-05
4.00556e-05
4.00569e-05
4.00581e-05
4.0059e-05
4.00597e-05
4.00601e-05
4.00605e-05
4.00611e-05
4.00623e-05
4.00641e-05
4.00667e-05
4.007e-05
4.0045e-05
4.00454e-05
4.0046e-05
4.0047e-05
4.00481e-05
4.0049e-05
4.005e-05
4.00509e-05
4.0052e-05
4.00532e-05
4.00545e-05
4.00556e-05
4.00566e-05
4.00573e-05
4.00578e-05
4.0058e-05
4.00582e-05
4.00588e-05
4.00599e-05
4.00616e-05
4.00641e-05
4.00673e-05
4.00457e-05
4.00461e-05
4.00469e-05
4.00478e-05
4.00487e-05
4.00496e-05
4.00505e-05
4.00514e-05
4.00524e-05
4.00533e-05
4.00541e-05
4.00548e-05
4.00552e-05
4.00554e-05
4.00554e-05
4.00555e-05
4.00561e-05
4.00572e-05
4.00589e-05
4.00614e-05
4.00646e-05
4.00461e-05
4.00464e-05
4.00471e-05
4.00478e-05
4.00487e-05
4.00495e-05
4.00502e-05
4.0051e-05
4.00516e-05
4.00522e-05
4.00526e-05
4.00529e-05
4.00531e-05
4.00531e-05
4.0053e-05
4.00531e-05
4.00537e-05
4.00548e-05
4.00565e-05
4.00589e-05
4.0062e-05
4.00465e-05
4.00468e-05
4.00473e-05
4.0048e-05
4.00487e-05
4.00494e-05
4.00501e-05
4.00505e-05
4.00509e-05
4.00512e-05
4.00513e-05
4.00514e-05
4.00514e-05
4.00513e-05
4.00512e-05
4.00513e-05
4.00519e-05
4.00529e-05
4.00546e-05
4.00569e-05
4.00597e-05
4.0047e-05
4.00474e-05
4.0048e-05
4.00487e-05
4.00494e-05
4.00499e-05
4.00503e-05
4.00504e-05
4.00504e-05
4.00504e-05
4.00503e-05
4.00502e-05
4.005e-05
4.00498e-05
4.00499e-05
4.00504e-05
4.00514e-05
4.00529e-05
4.00551e-05
4.00577e-05
4.0047e-05
4.00475e-05
4.00481e-05
4.00487e-05
4.00493e-05
4.00498e-05
4.005e-05
4.005e-05
4.00499e-05
4.00498e-05
4.00496e-05
4.00492e-05
4.00489e-05
4.00485e-05
4.00484e-05
4.00488e-05
4.00496e-05
4.00511e-05
4.00532e-05
4.00557e-05
4.00473e-05
4.00479e-05
4.00485e-05
4.0049e-05
4.00495e-05
4.00497e-05
4.00497e-05
4.00496e-05
4.00493e-05
4.00488e-05
4.00482e-05
4.00476e-05
4.0047e-05
4.00468e-05
4.0047e-05
4.00478e-05
4.00492e-05
4.00511e-05
4.00536e-05
4.00466e-05
4.00473e-05
4.0048e-05
4.00486e-05
4.00491e-05
4.00494e-05
4.00495e-05
4.00492e-05
4.00486e-05
4.00479e-05
4.00471e-05
4.00463e-05
4.00456e-05
4.00454e-05
4.00455e-05
4.00462e-05
4.00475e-05
4.00494e-05
4.00517e-05
4.00457e-05
4.00466e-05
4.00473e-05
4.0048e-05
4.00486e-05
4.00489e-05
4.00488e-05
4.00484e-05
4.00478e-05
4.00471e-05
4.00463e-05
4.00454e-05
4.00447e-05
4.00443e-05
4.00444e-05
4.0045e-05
4.00462e-05
4.00479e-05
4.00501e-05
4.00457e-05
4.00465e-05
4.00472e-05
4.00477e-05
4.0048e-05
4.0048e-05
4.00477e-05
4.00472e-05
4.00464e-05
4.00455e-05
4.00445e-05
4.00436e-05
4.00431e-05
4.00431e-05
4.00436e-05
4.00446e-05
4.00462e-05
4.00483e-05
4.00447e-05
4.00455e-05
4.00462e-05
4.00467e-05
4.00471e-05
4.00472e-05
4.00469e-05
4.00463e-05
4.00454e-05
4.00444e-05
4.00432e-05
4.00423e-05
4.00417e-05
4.00416e-05
4.0042e-05
4.0043e-05
4.00445e-05
4.00466e-05
4.00439e-05
4.00446e-05
4.00452e-05
4.00457e-05
4.00461e-05
4.00461e-05
4.00457e-05
4.0045e-05
4.00441e-05
4.00431e-05
4.00419e-05
4.00411e-05
4.00405e-05
4.00404e-05
4.00408e-05
4.00417e-05
4.00431e-05
4.00451e-05
4.00439e-05
4.00443e-05
4.00447e-05
4.0045e-05
4.00449e-05
4.00445e-05
4.00438e-05
4.0043e-05
4.0042e-05
4.00408e-05
4.00399e-05
4.00393e-05
4.00391e-05
4.00394e-05
4.00402e-05
4.00415e-05
4.00435e-05
4.00434e-05
4.00437e-05
4.00439e-05
4.0044e-05
4.00438e-05
4.00434e-05
4.00427e-05
4.00418e-05
4.00407e-05
4.00394e-05
4.00384e-05
4.00377e-05
4.00374e-05
4.00377e-05
4.00384e-05
4.00396e-05
4.00433e-05
4.00433e-05
4.00433e-05
4.00432e-05
4.00429e-05
4.00423e-05
4.00415e-05
4.00404e-05
4.00392e-05
4.00378e-05
4.00368e-05
4.00361e-05
4.00358e-05
4.00361e-05
4.00368e-05
4.0038e-05
4.00431e-05
4.00429e-05
4.00426e-05
4.0042e-05
4.00413e-05
4.00403e-05
4.00392e-05
4.0038e-05
4.00366e-05
4.00356e-05
4.00348e-05
4.00345e-05
4.00346e-05
4.00352e-05
4.00363e-05
4.00428e-05
4.00425e-05
4.0042e-05
4.00414e-05
4.00405e-05
4.00395e-05
4.00383e-05
4.00369e-05
4.00355e-05
4.00343e-05
4.00334e-05
4.00329e-05
4.00329e-05
4.00334e-05
4.00344e-05
4.00423e-05
4.0042e-05
4.00415e-05
4.00407e-05
4.00397e-05
4.00385e-05
4.00371e-05
4.00357e-05
4.00341e-05
4.00328e-05
4.00319e-05
4.00313e-05
4.00313e-05
4.00317e-05
4.00326e-05
4.00411e-05
4.00406e-05
4.00398e-05
4.00387e-05
4.00374e-05
4.0036e-05
4.00345e-05
4.0033e-05
4.00317e-05
4.00308e-05
4.00302e-05
4.003e-05
4.00303e-05
4.00311e-05
4.00394e-05
4.00392e-05
4.00384e-05
4.00374e-05
4.00362e-05
4.00349e-05
4.00335e-05
4.0032e-05
4.00307e-05
4.00296e-05
4.00289e-05
4.00286e-05
4.00287e-05
4.00293e-05
4.00372e-05
4.00372e-05
4.00367e-05
4.00358e-05
4.00347e-05
4.00335e-05
4.00321e-05
4.00305e-05
4.00292e-05
4.00281e-05
4.00273e-05
4.00269e-05
4.0027e-05
4.00275e-05
4.00347e-05
4.00345e-05
4.00337e-05
4.00327e-05
4.00316e-05
4.00303e-05
4.00289e-05
4.00276e-05
4.00267e-05
4.0026e-05
4.00257e-05
4.00258e-05
4.00262e-05
4.00319e-05
4.00318e-05
4.00313e-05
4.00304e-05
4.00294e-05
4.00284e-05
4.00273e-05
4.00263e-05
4.00255e-05
4.00249e-05
4.00247e-05
4.00248e-05
4.00252e-05
4.00292e-05
4.00291e-05
4.00287e-05
4.0028e-05
4.00272e-05
4.00264e-05
4.00255e-05
4.00247e-05
4.00239e-05
4.00235e-05
4.00233e-05
4.00233e-05
4.00237e-05
4.0027e-05
4.00268e-05
4.00263e-05
4.00256e-05
4.00249e-05
4.00241e-05
4.00233e-05
4.00226e-05
4.00219e-05
4.00215e-05
4.00214e-05
4.00215e-05
4.00219e-05
4.00249e-05
4.00242e-05
4.00235e-05
4.00227e-05
4.00219e-05
4.00211e-05
4.00205e-05
4.00199e-05
4.00197e-05
4.00197e-05
4.00199e-05
4.00204e-05
4.00237e-05
4.00228e-05
4.00218e-05
4.00209e-05
4.002e-05
4.00193e-05
4.00187e-05
4.00183e-05
4.00182e-05
4.00182e-05
4.00186e-05
4.00192e-05
4.00231e-05
4.00219e-05
4.00208e-05
4.00197e-05
4.00187e-05
4.00179e-05
4.00173e-05
4.00169e-05
4.00168e-05
4.00168e-05
4.00171e-05
4.0023e-05
4.00216e-05
4.00202e-05
4.0019e-05
4.00178e-05
4.00169e-05
4.00161e-05
4.00156e-05
4.00154e-05
4.00154e-05
4.00156e-05
4.00212e-05
4.00198e-05
4.00184e-05
4.00172e-05
4.00162e-05
4.00154e-05
4.00148e-05
4.00145e-05
4.00145e-05
4.00147e-05
4.00204e-05
4.00192e-05
4.0018e-05
4.00169e-05
4.0016e-05
4.00153e-05
4.00149e-05
4.00147e-05
4.00147e-05
4.0015e-05
4.0019e-05
4.00182e-05
4.00174e-05
4.00166e-05
4.0016e-05
4.00156e-05
4.00154e-05
4.00154e-05
4.00156e-05
4.0016e-05
4.0017e-05
4.00167e-05
4.00163e-05
4.0016e-05
4.00159e-05
4.00159e-05
4.0016e-05
4.00162e-05
4.00166e-05
4.00171e-05
4.00149e-05
4.00149e-05
4.00149e-05
4.00151e-05
4.00154e-05
4.00157e-05
4.00161e-05
4.00167e-05
4.00173e-05
4.00179e-05
4.00134e-05
4.00137e-05
4.00142e-05
4.00148e-05
4.00154e-05
4.00161e-05
4.00169e-05
4.00177e-05
4.00185e-05
4.00131e-05
4.00135e-05
4.00141e-05
4.00149e-05
4.00158e-05
4.00167e-05
4.00177e-05
4.00187e-05
4.00197e-05
4.00145e-05
4.00151e-05
4.0016e-05
4.0017e-05
4.00181e-05
4.00192e-05
4.00203e-05
4.00213e-05
4.00181e-05
4.00191e-05
4.00204e-05
4.00217e-05
4.00229e-05
4.00241e-05
4.00252e-05
4.00262e-05
4.00235e-05
4.0025e-05
4.00265e-05
4.0028e-05
4.00295e-05
4.00308e-05
4.0032e-05
4.00331e-05
4.0029e-05
4.00311e-05
4.00331e-05
4.00349e-05
4.00366e-05
4.00382e-05
4.00396e-05
4.00408e-05
4.00364e-05
4.00388e-05
4.0041e-05
4.00431e-05
4.0045e-05
4.00466e-05
4.00481e-05
4.00407e-05
4.00435e-05
4.0046e-05
4.00483e-05
4.00504e-05
4.00522e-05
4.00538e-05
4.00441e-05
4.0047e-05
4.00496e-05
4.0052e-05
4.00541e-05
4.0056e-05
4.00576e-05
4.00463e-05
4.00492e-05
4.00518e-05
4.00543e-05
4.00565e-05
4.00585e-05
4.00602e-05
4.00484e-05
4.00511e-05
4.00537e-05
4.00561e-05
4.00584e-05
4.00605e-05
4.00623e-05
4.005e-05
4.00524e-05
4.00548e-05
4.00571e-05
4.00593e-05
4.00613e-05
4.00633e-05
4.00514e-05
4.00537e-05
4.00559e-05
4.00581e-05
4.00602e-05
4.00622e-05
4.00533e-05
4.00556e-05
4.00579e-05
4.00601e-05
4.00624e-05
4.00645e-05
4.00569e-05
4.00596e-05
4.00623e-05
4.00649e-05
4.00675e-05
4.007e-05
4.00663e-05
4.00696e-05
4.00727e-05
4.00758e-05
4.00788e-05
4.00726e-05
4.0076e-05
4.00792e-05
4.00823e-05
4.00852e-05
4.00706e-05
4.00731e-05
4.00753e-05
4.00773e-05
4.00792e-05
4.00547e-05
4.00562e-05
4.00577e-05
4.00591e-05
4.00605e-05
4.00403e-05
4.00437e-05
4.00474e-05
4.00514e-05
4.00555e-05
4.00398e-05
4.00425e-05
4.00451e-05
4.00475e-05
4.00498e-05
)
;

boundaryField
{
    inlet
    {
        type            freestream;
        freestreamValue uniform 4e-05;
        value           uniform 4e-05;
    }
    outlet
    {
        type            freestream;
        freestreamValue nonuniform List<scalar> 0();
        value           nonuniform List<scalar> 0();
    }
    walls
    {
        type            fixedValue;
        value           uniform 0;
    }
    frontAndBack
    {
        type            empty;
    }
    procBoundary1to0
    {
        type            processor;
        value           nonuniform List<scalar> 
94
(
4.00527e-05
4.00527e-05
4.00507e-05
4.00507e-05
4.00495e-05
4.00495e-05
4.00481e-05
4.00481e-05
4.00469e-05
4.00469e-05
4.00458e-05
4.00458e-05
4.00437e-05
4.00435e-05
4.00435e-05
4.00424e-05
4.00427e-05
4.00427e-05
4.00423e-05
4.00421e-05
4.00429e-05
4.00429e-05
4.0043e-05
4.0044e-05
4.0044e-05
4.00443e-05
4.00447e-05
4.00458e-05
4.00458e-05
4.0046e-05
4.00461e-05
4.00467e-05
4.00467e-05
4.00462e-05
4.00465e-05
4.00465e-05
4.00457e-05
4.00447e-05
4.00448e-05
4.00448e-05
4.00439e-05
4.00432e-05
4.00436e-05
4.00436e-05
4.00434e-05
4.00433e-05
4.00435e-05
4.00435e-05
4.00431e-05
4.00422e-05
4.00412e-05
4.00412e-05
4.00392e-05
4.00366e-05
4.00344e-05
4.00344e-05
4.00316e-05
4.00291e-05
4.00271e-05
4.00258e-05
4.00258e-05
4.00249e-05
4.00246e-05
4.00242e-05
4.00227e-05
4.00227e-05
4.00215e-05
4.00195e-05
4.00171e-05
4.00149e-05
4.00134e-05
4.00134e-05
4.00131e-05
4.00144e-05
4.00174e-05
4.00218e-05
4.00266e-05
4.00333e-05
4.00333e-05
4.00374e-05
4.00407e-05
4.00431e-05
4.00455e-05
4.00475e-05
4.0049e-05
4.00508e-05
4.00539e-05
4.00626e-05
4.00626e-05
4.00687e-05
4.00675e-05
4.0053e-05
4.00373e-05
4.00371e-05
)
;
    }
    procBoundary1to2
    {
        type            processor;
        value           nonuniform List<scalar> 
84
(
0.114658
0.0754779
0.0446751
0.00862572
0.000146361
3.7862e-05
1.53655e-05
3.62527e-05
4.04444e-05
4.0423e-05
4.03067e-05
4.02251e-05
4.01947e-05
4.01737e-05
4.01556e-05
4.01398e-05
4.01275e-05
4.01175e-05
4.01084e-05
4.00999e-05
4.00928e-05
4.00872e-05
4.00826e-05
4.00785e-05
4.00749e-05
4.00719e-05
4.0069e-05
4.00662e-05
4.00636e-05
4.00613e-05
4.00591e-05
4.00569e-05
4.00548e-05
4.0053e-05
4.00511e-05
4.00492e-05
4.00476e-05
4.00458e-05
4.00414e-05
4.00414e-05
4.00396e-05
4.00378e-05
4.00357e-05
4.00338e-05
4.00322e-05
4.00302e-05
4.00284e-05
4.00271e-05
4.0026e-05
4.00244e-05
4.00226e-05
4.00212e-05
4.002e-05
4.00177e-05
4.00177e-05
4.00161e-05
4.00152e-05
4.00154e-05
4.00165e-05
4.00178e-05
4.00188e-05
4.00196e-05
4.00209e-05
4.00224e-05
4.00224e-05
4.00271e-05
4.00341e-05
4.00421e-05
4.00496e-05
4.00555e-05
4.00593e-05
4.00621e-05
4.00645e-05
4.00654e-05
4.00645e-05
4.00645e-05
4.00669e-05
4.00729e-05
4.00821e-05
4.00884e-05
4.00813e-05
4.00624e-05
4.00602e-05
4.00521e-05
)
;
    }
    procBoundary1to5
    {
        type            processor;
        value           nonuniform List<scalar> 
13
(
4.34369e-05
4.34369e-05
4.00245e-05
4.01463e-05
4.01463e-05
4.00901e-05
4.00903e-05
4.00903e-05
4.00746e-05
4.00692e-05
4.00633e-05
4.00633e-05
4.0064e-05
)
;
    }
}


// ************************************************************************* //
