/*--------------------------------*- C++ -*----------------------------------*\
| =========                 |                                                 |
| \\      /  F ield         | OpenFOAM: The Open Source CFD Toolbox           |
|  \\    /   O peration     | Version:  2506                                  |
|   \\  /    A nd           | Website:  www.openfoam.com                      |
|    \\/     M anipulation  |                                                 |
\*---------------------------------------------------------------------------*/
FoamFile
{
    version     2.0;
    format      ascii;
    arch        "LSB;label=32;scalar=64";
    class       volScalarField;
    location    "50";
    object      turbulenceProperties:k;
}
// * * * * * * * * * * * * * * * * * * * * * * * * * * * * * * * * * * * * * //

dimensions      [0 2 -2 0 0 0 0];

internalField   nonuniform List<scalar> 
1340
(
0.00481962
0.00669269
0.00947517
0.0134424
0.0189603
0.026526
0.0368484
0.0509665
0.070804
0.0996546
0.143268
0.212448
0.325369
0.519516
0.865276
1.54217
2.77264
5.61749
11.3788
25.4465
44.0371
55.3576
59.3737
60.3395
60.3509
59.8312
58.8613
57.4683
0.00187637
0.00167913
0.00148082
0.0012936
0.00111701
0.000953653
0.000805671
0.000674579
0.000561821
0.000467816
0.00038885
0.00032301
0.000264944
0.000210921
0.00015566
9.71373e-05
5.25298e-05
2.72857e-05
0.000692717
0.00447933
0.0296688
0.151207
0.381603
0.649627
0.901158
1.10615
1.26724
1.40467
1.53222
0.00150011
0.00136396
0.00120236
0.00102939
0.000857749
0.000700009
0.000562975
0.000448983
0.000360909
0.000296012
0.000250398
0.000219367
0.000199293
0.000187082
0.000180486
0.000178856
0.000181352
0.000187753
0.000193549
0.000196452
0.000187191
0.00018393
0.00218118
0.00877245
0.0198827
0.0383287
0.0840607
0.166886
0.279888
0.00125042
0.00117121
0.00107505
0.000969549
0.000862986
0.000760557
0.000666313
0.000581723
0.000507258
0.000443749
0.00039007
0.000345626
0.000309229
0.000280269
0.000256886
0.00023793
0.000221513
0.000205766
0.000187704
0.000168292
0.000152384
0.000140515
0.00013369
0.000114825
0.000106681
6.33045e-06
5.44705e-05
0.000553516
0.000680963
0.00367903
0.000992002
0.000937349
0.000871404
0.000797939
0.000720167
0.000640412
0.000561665
0.000486362
0.000416367
0.000353565
0.000298924
0.000252927
0.000215432
0.000186055
0.000163672
0.00014715
0.00013506
0.000125946
0.000117532
0.000108307
9.91919e-05
9.24782e-05
8.85791e-05
8.76594e-05
8.53567e-05
8.95543e-05
1.78873e-05
0.000296826
4.10766e-05
0.0023568
0.000831469
0.000799232
0.000759971
0.000712986
0.000660793
0.000605358
0.000548293
0.000491748
0.000437554
0.000387021
0.000341277
0.000301069
0.000266621
0.000237729
0.000213975
0.000194583
0.00017862
0.000164917
0.000152227
0.000138839
0.000124077
0.000109711
9.74297e-05
8.75769e-05
7.95974e-05
7.27418e-05
6.56091e-05
5.63062e-05
4.07321e-05
2.50931e-05
1.42966e-06
0.00067694
0.000653334
0.000624511
0.000590568
0.000552962
0.000512648
0.000470487
0.000427675
0.00038536
0.000344465
0.000305905
0.000270492
0.000238729
0.00021088
0.000187027
0.000166959
0.000150285
0.000136362
0.00012427
0.000112613
0.000100382
8.8241e-05
7.73809e-05
6.83452e-05
6.10618e-05
5.55832e-05
5.22074e-05
5.10442e-05
4.99186e-05
4.56117e-05
4.04441e-05
0.000557994
0.000540364
0.000518834
0.000493782
0.000466178
0.000436529
0.000405259
0.000373186
0.000341077
0.000309585
0.000279407
0.00025127
0.000225654
0.000202886
0.000183103
0.000166185
0.000151797
0.000139353
0.000128017
0.00011667
0.000104604
9.24076e-05
8.10831e-05
7.10452e-05
6.21534e-05
5.42254e-05
4.72012e-05
4.09288e-05
3.53561e-05
3.05481e-05
2.70086e-05
0.000475969
0.00046485
0.000451386
0.000435112
0.000416413
0.000395851
0.000373778
0.000350406
0.000326182
0.000301576
0.000276988
0.000252874
0.000229777
0.000208152
0.000188319
0.0001705
0.000154741
0.000140915
0.000128658
0.000117399
0.00010636
9.50289e-05
8.3729e-05
7.32558e-05
6.4054e-05
5.61182e-05
4.93271e-05
4.36848e-05
3.92787e-05
3.58948e-05
3.33791e-05
3.14378e-05
0.000390654
0.000380254
0.000367805
0.000353687
0.000338233
0.000321598
0.000303969
0.000285625
0.000266798
0.000247705
0.000228674
0.000210113
0.000192381
0.000175803
0.000160585
0.000146838
0.000134511
0.00012336
0.000112956
0.000102755
9.23603e-05
8.19947e-05
7.22617e-05
6.35294e-05
5.57892e-05
4.89047e-05
4.2799e-05
3.7466e-05
3.28032e-05
2.8915e-05
2.55789e-05
0.000322634
0.000313048
0.00030226
0.00029054
0.000277959
0.000264549
0.000250565
0.000236125
0.000221315
0.000206309
0.000191392
0.00017683
0.000162881
0.000149762
0.000137594
0.000126388
0.000116018
0.000106211
9.66093e-05
8.69453e-05
7.73702e-05
6.83211e-05
6.01286e-05
5.28318e-05
4.63529e-05
4.06532e-05
3.58154e-05
3.17873e-05
2.86484e-05
2.6195e-05
0.000267966
0.000259711
0.000250748
0.000241155
0.00023091
0.000220193
0.000209092
0.000197604
0.000185827
0.000173924
0.000162074
0.000150485
0.000139332
0.000128761
0.000118826
0.000109459
0.000100478
9.16397e-05
8.27993e-05
7.40451e-05
6.57066e-05
5.80581e-05
5.11646e-05
4.49724e-05
3.94401e-05
3.46055e-05
3.04205e-05
2.70053e-05
2.42015e-05
0.000224125
0.000217294
0.000209951
0.000202088
0.000193826
0.000185256
0.000176362
0.000167128
0.000157656
0.000148052
0.000138469
0.000129048
0.000119916
0.000111141
0.000102698
9.44792e-05
8.63495e-05
7.82318e-05
7.02027e-05
6.25045e-05
5.53733e-05
4.88946e-05
4.30468e-05
3.78032e-05
3.32068e-05
2.92521e-05
2.60407e-05
2.33923e-05
0.000188916
0.000183329
0.000177267
0.000170889
0.000164257
0.000157348
0.000150132
0.000142624
0.000134875
0.000127002
0.000119111
0.000111305
0.000103638
9.61235e-05
8.87016e-05
8.13136e-05
7.39292e-05
6.66132e-05
5.95548e-05
5.29496e-05
4.68902e-05
4.13755e-05
3.6385e-05
3.19429e-05
2.80624e-05
2.48348e-05
2.20867e-05
0.000160441
0.000155851
0.000150893
0.000145737
0.000140361
0.000134715
0.000128784
0.000122569
0.000116133
0.000109562
0.00010293
9.62952e-05
8.9669e-05
8.30249e-05
7.63354e-05
6.96288e-05
6.29701e-05
5.65076e-05
5.03997e-05
4.47453e-05
3.95586e-05
3.48328e-05
3.05929e-05
2.68723e-05
2.37489e-05
2.10582e-05
0.000140741
0.00013722
0.000133418
0.000129408
0.000125204
0.000120784
0.000116097
0.000111127
0.000105897
0.000100466
9.48836e-05
8.91868e-05
8.33911e-05
7.74877e-05
7.14874e-05
6.54417e-05
5.94173e-05
5.35291e-05
4.79128e-05
4.26633e-05
3.78067e-05
3.33455e-05
2.93059e-05
2.57182e-05
2.26488e-05
1.99482e-05
0.000120996
0.000118121
0.000114968
0.000111678
0.000108211
0.000104521
0.000100561
9.63399e-05
9.18777e-05
8.72091e-05
8.2351e-05
7.73171e-05
7.21098e-05
6.67645e-05
6.13464e-05
5.59195e-05
5.05791e-05
4.544e-05
4.05868e-05
3.60577e-05
3.18612e-05
2.80279e-05
2.45876e-05
2.15935e-05
1.89091e-05
0.000106846
0.00010464
0.000102208
9.96178e-05
9.68902e-05
9.39842e-05
9.08447e-05
8.74522e-05
8.38054e-05
7.99154e-05
7.57979e-05
7.14638e-05
6.69145e-05
6.21847e-05
5.73515e-05
5.24893e-05
4.76721e-05
4.29918e-05
3.85277e-05
3.43209e-05
3.03894e-05
2.67624e-05
2.34694e-05
2.05477e-05
1.78742e-05
9.27561e-05
9.09108e-05
8.88518e-05
8.67066e-05
8.44264e-05
8.19482e-05
7.92285e-05
7.62558e-05
7.30316e-05
6.9561e-05
6.58478e-05
6.1896e-05
5.77432e-05
5.34664e-05
4.91301e-05
4.48009e-05
4.0553e-05
3.64614e-05
3.25662e-05
2.88941e-05
2.54715e-05
2.2329e-05
1.94882e-05
1.68411e-05
8.2279e-05
8.08564e-05
7.92644e-05
7.75826e-05
7.57847e-05
7.38219e-05
7.16462e-05
6.92286e-05
6.65667e-05
6.36611e-05
6.05072e-05
5.70999e-05
5.34766e-05
4.97087e-05
4.58559e-05
4.19775e-05
3.81376e-05
3.44002e-05
3.08075e-05
2.73876e-05
2.41668e-05
2.11726e-05
1.84166e-05
1.5803e-05
7.30279e-05
7.1933e-05
7.07233e-05
6.93984e-05
6.79675e-05
6.64077e-05
6.46739e-05
6.27216e-05
6.05383e-05
5.81177e-05
5.54581e-05
5.25438e-05
4.94013e-05
4.60933e-05
4.26843e-05
3.92251e-05
3.577e-05
3.23708e-05
2.90706e-05
2.58964e-05
2.28735e-05
2.00259e-05
1.73597e-05
1.47858e-05
6.40085e-05
6.31119e-05
6.20416e-05
6.09048e-05
5.96711e-05
5.82909e-05
5.67199e-05
5.49396e-05
5.29422e-05
5.0712e-05
4.82306e-05
4.55169e-05
4.26321e-05
3.96317e-05
3.65609e-05
3.34655e-05
3.03892e-05
2.73704e-05
2.44361e-05
2.16077e-05
1.8905e-05
1.63334e-05
1.38054e-05
5.69768e-05
5.62689e-05
5.5456e-05
5.45495e-05
5.35612e-05
5.24605e-05
5.1205e-05
4.97663e-05
4.8127e-05
4.62649e-05
4.41602e-05
4.18295e-05
3.93264e-05
3.67002e-05
3.3986e-05
3.12255e-05
2.84536e-05
2.57036e-05
2.30012e-05
2.03633e-05
1.78056e-05
1.53359e-05
1.28629e-05
5.0169e-05
4.95619e-05
4.88119e-05
4.80203e-05
4.71542e-05
4.61635e-05
4.50071e-05
4.36611e-05
4.2108e-05
4.03304e-05
3.83402e-05
3.61805e-05
3.38909e-05
3.15036e-05
2.90496e-05
2.65596e-05
2.40627e-05
2.15811e-05
1.91295e-05
1.67198e-05
1.43554e-05
1.19477e-05
4.47284e-05
4.42449e-05
4.36542e-05
4.30316e-05
4.23501e-05
4.15634e-05
4.06268e-05
3.9522e-05
3.82347e-05
3.67471e-05
3.50601e-05
3.32076e-05
3.12184e-05
2.91241e-05
2.69487e-05
2.47199e-05
2.24615e-05
2.01923e-05
1.79241e-05
1.56662e-05
1.34127e-05
1.10788e-05
3.98668e-05
3.94858e-05
3.90459e-05
3.8545e-05
3.79876e-05
3.73545e-05
3.66048e-05
3.57127e-05
3.46582e-05
3.3419e-05
3.19922e-05
3.04053e-05
2.86843e-05
2.68533e-05
2.49351e-05
2.29504e-05
2.09188e-05
1.88561e-05
1.67698e-05
1.46646e-05
1.25294e-05
1.02817e-05
3.5235e-05
3.49173e-05
3.44812e-05
3.40223e-05
3.35222e-05
3.29381e-05
3.22294e-05
3.13698e-05
3.03359e-05
2.91293e-05
2.77732e-05
2.629e-05
2.46978e-05
2.30144e-05
2.12556e-05
1.94377e-05
1.75718e-05
1.56633e-05
1.37118e-05
1.17029e-05
9.55777e-06
3.14377e-05
3.11709e-05
3.08182e-05
3.04543e-05
3.00643e-05
2.96097e-05
2.90443e-05
2.8341e-05
2.74777e-05
2.64585e-05
2.53046e-05
2.40324e-05
2.2654e-05
2.11828e-05
1.96301e-05
1.80089e-05
1.63271e-05
1.45881e-05
1.27874e-05
1.09089e-05
8.88156e-06
2.80257e-05
2.78001e-05
2.75473e-05
2.72581e-05
2.69426e-05
2.65795e-05
2.613e-05
2.55571e-05
2.4838e-05
2.39791e-05
2.30003e-05
2.19145e-05
2.07262e-05
1.94454e-05
1.80798e-05
1.66391e-05
1.51291e-05
1.35513e-05
1.18979e-05
1.01545e-05
8.25798e-06
2.47931e-05
2.46178e-05
2.4367e-05
2.41082e-05
2.38246e-05
2.34748e-05
2.30104e-05
2.2412e-05
2.16908e-05
2.08651e-05
1.99413e-05
1.89211e-05
1.78099e-05
1.66136e-05
1.53389e-05
1.39897e-05
1.2566e-05
1.10569e-05
9.45159e-06
7.69753e-06
2.21117e-05
2.19421e-05
2.17629e-05
2.15639e-05
2.13409e-05
2.10622e-05
2.06863e-05
2.01937e-05
1.95929e-05
1.88994e-05
1.81151e-05
1.72411e-05
1.62803e-05
1.5237e-05
1.41159e-05
1.29185e-05
1.1644e-05
1.02783e-05
8.81646e-06
7.21579e-06
1.95623e-05
1.94442e-05
1.92671e-05
1.90807e-05
1.88633e-05
1.85732e-05
1.81782e-05
1.76803e-05
1.70953e-05
1.64284e-05
1.56805e-05
1.48536e-05
1.39494e-05
1.29701e-05
1.1915e-05
1.07819e-05
9.55666e-06
8.24036e-06
6.80089e-06
1.74458e-05
1.73347e-05
1.71866e-05
1.70442e-05
1.68851e-05
1.66646e-05
1.63454e-05
1.59298e-05
1.54353e-05
1.48701e-05
1.42344e-05
1.35278e-05
1.27492e-05
1.18982e-05
1.09734e-05
9.97255e-06
8.88312e-06
7.7117e-06
6.43434e-06
1.55389e-05
1.54356e-05
1.53386e-05
1.52309e-05
1.51025e-05
1.49257e-05
1.4669e-05
1.43269e-05
1.39153e-05
1.34414e-05
1.29047e-05
1.23033e-05
1.16352e-05
1.0899e-05
1.00935e-05
9.21594e-06
8.25729e-06
7.22693e-06
6.10663e-06
1.37496e-05
1.36935e-05
1.359e-05
1.34771e-05
1.3342e-05
1.31468e-05
1.28741e-05
1.25348e-05
1.21366e-05
1.16826e-05
1.1172e-05
1.06025e-05
9.97147e-06
9.27658e-06
8.51567e-06
7.68323e-06
6.78844e-06
5.82126e-06
1.2252e-05
1.21919e-05
1.21028e-05
1.20177e-05
1.1921e-05
1.17758e-05
1.15591e-05
1.1276e-05
1.09392e-05
1.05557e-05
1.01256e-05
9.64484e-06
9.10843e-06
8.51396e-06
7.86009e-06
7.1441e-06
6.37535e-06
5.55084e-06
1.08983e-05
1.08366e-05
1.07825e-05
1.07203e-05
1.06452e-05
1.05322e-05
1.03582e-05
1.01248e-05
9.84376e-06
9.52363e-06
9.1646e-06
8.76108e-06
8.30769e-06
7.80295e-06
7.24596e-06
6.63664e-06
5.98331e-06
5.28922e-06
9.63647e-06
9.61018e-06
9.55056e-06
9.48212e-06
9.39711e-06
9.26707e-06
9.08135e-06
8.85044e-06
8.58419e-06
8.28446e-06
7.94668e-06
7.56674e-06
7.14274e-06
6.67443e-06
6.16367e-06
5.6158e-06
5.04713e-06
8.57454e-06
8.54098e-06
8.48529e-06
8.43693e-06
8.38211e-06
8.28611e-06
8.13748e-06
7.94665e-06
7.72423e-06
7.47398e-06
7.19352e-06
6.87939e-06
6.52845e-06
6.14096e-06
5.71924e-06
5.26669e-06
7.61227e-06
7.57257e-06
7.54504e-06
7.51618e-06
7.47196e-06
7.39471e-06
7.27713e-06
7.12229e-06
6.93834e-06
6.73137e-06
6.50122e-06
6.24453e-06
5.95749e-06
5.64004e-06
5.29515e-06
4.92683e-06
6.72132e-06
6.71533e-06
6.68529e-06
6.64205e-06
6.58413e-06
6.4981e-06
6.37708e-06
6.22735e-06
6.05709e-06
5.86903e-06
5.66112e-06
5.42913e-06
5.173e-06
4.89548e-06
4.6e-06
5.97181e-06
5.95777e-06
5.92815e-06
5.89825e-06
5.86001e-06
5.79827e-06
5.70478e-06
5.58212e-06
5.44134e-06
5.28855e-06
5.12227e-06
4.93816e-06
4.7353e-06
4.51615e-06
4.28444e-06
5.28985e-06
5.26984e-06
5.25889e-06
5.24093e-06
5.21152e-06
5.16502e-06
5.09191e-06
4.9931e-06
4.87936e-06
4.75725e-06
4.62613e-06
4.48214e-06
4.32357e-06
4.15312e-06
3.97442e-06
4.66408e-06
4.66554e-06
4.65069e-06
4.62413e-06
4.58829e-06
4.53589e-06
4.46145e-06
4.37172e-06
4.27444e-06
4.17117e-06
4.05906e-06
3.93689e-06
3.80605e-06
3.67045e-06
4.12983e-06
4.1288e-06
4.11635e-06
4.09685e-06
4.07334e-06
4.03753e-06
3.98162e-06
3.90989e-06
3.83077e-06
3.74888e-06
3.66296e-06
3.57119e-06
3.47372e-06
3.37461e-06
3.65033e-06
3.64477e-06
3.64298e-06
3.63152e-06
3.6116e-06
3.58391e-06
3.54162e-06
3.48433e-06
3.42074e-06
3.35731e-06
3.29291e-06
3.2254e-06
3.15459e-06
3.08336e-06
3.21817e-06
3.22509e-06
3.21246e-06
3.18978e-06
3.16872e-06
3.14038e-06
3.09835e-06
3.04957e-06
3.00071e-06
2.95248e-06
2.9028e-06
2.85153e-06
2.80074e-06
2.8444e-06
2.84724e-06
2.8319e-06
2.81201e-06
2.7997e-06
2.783e-06
2.7526e-06
2.7149e-06
2.67734e-06
2.64026e-06
2.60368e-06
2.56713e-06
2.53187e-06
2.50477e-06
2.50753e-06
2.49634e-06
2.48226e-06
2.47354e-06
2.46113e-06
2.43926e-06
2.41081e-06
2.38039e-06
2.35137e-06
2.32531e-06
2.30064e-06
2.2778e-06
2.20086e-06
2.20178e-06
2.20027e-06
2.19011e-06
2.17908e-06
2.16937e-06
2.15445e-06
2.13187e-06
2.1071e-06
2.08498e-06
2.06698e-06
2.05099e-06
2.03676e-06
1.93428e-06
1.93891e-06
1.92715e-06
1.91257e-06
1.90457e-06
1.89527e-06
1.87917e-06
1.86009e-06
1.84302e-06
1.83017e-06
1.81913e-06
1.81037e-06
1.70193e-06
1.70265e-06
1.68865e-06
1.67449e-06
1.66937e-06
1.66485e-06
1.6538e-06
1.63877e-06
1.6247e-06
1.61423e-06
1.60655e-06
1.60123e-06
1.49019e-06
1.49106e-06
1.47888e-06
1.46656e-06
1.46181e-06
1.45854e-06
1.45031e-06
1.43764e-06
1.42545e-06
1.41535e-06
1.40914e-06
1.30162e-06
1.30016e-06
1.2931e-06
1.2828e-06
1.27561e-06
1.27091e-06
1.26409e-06
1.25324e-06
1.24201e-06
1.2331e-06
1.22825e-06
1.13173e-06
1.128e-06
1.11663e-06
1.10484e-06
1.09871e-06
1.09416e-06
1.08598e-06
1.07591e-06
1.06726e-06
1.06212e-06
9.84448e-07
9.78972e-07
9.64582e-07
9.51142e-07
9.45998e-07
9.43578e-07
9.36781e-07
9.27804e-07
9.1972e-07
9.1458e-07
8.51848e-07
8.45427e-07
8.30913e-07
8.17866e-07
8.12652e-07
8.10198e-07
8.05177e-07
7.97522e-07
7.89016e-07
7.82707e-07
7.34206e-07
7.279e-07
7.15158e-07
7.02809e-07
6.96494e-07
6.9417e-07
6.89613e-07
6.82378e-07
6.7427e-07
6.67736e-07
6.3159e-07
6.23713e-07
6.14119e-07
6.03197e-07
5.95148e-07
5.90627e-07
5.86793e-07
5.81098e-07
5.72896e-07
5.65172e-07
5.33367e-07
5.26139e-07
5.14308e-07
5.02095e-07
4.96805e-07
4.946e-07
4.90563e-07
4.83351e-07
4.75868e-07
4.55771e-07
4.46651e-07
4.32295e-07
4.19614e-07
4.14951e-07
4.14481e-07
4.12585e-07
4.06518e-07
3.99291e-07
3.86195e-07
3.75436e-07
3.60807e-07
3.47975e-07
3.43617e-07
3.44343e-07
3.42852e-07
3.37962e-07
3.24416e-07
3.13257e-07
2.9848e-07
2.86096e-07
2.81563e-07
2.82376e-07
2.82591e-07
2.80244e-07
2.70194e-07
2.58129e-07
2.44856e-07
2.33648e-07
2.2895e-07
2.29771e-07
2.31165e-07
2.3083e-07
2.21088e-07
2.09014e-07
1.98086e-07
1.8824e-07
1.81885e-07
1.81045e-07
1.83918e-07
1.87543e-07
1.66686e-07
1.57407e-07
1.46562e-07
1.3756e-07
1.35332e-07
1.39318e-07
1.46261e-07
1.36137e-07
1.2638e-07
1.15157e-07
1.05176e-07
1.00757e-07
1.02956e-07
1.10261e-07
1.1399e-07
1.04957e-07
9.49228e-08
8.57854e-08
7.97349e-08
7.76046e-08
8.05607e-08
9.48172e-08
8.63982e-08
7.79909e-08
7.10004e-08
6.61065e-08
6.33325e-08
6.39368e-08
7.61311e-08
6.85243e-08
6.10624e-08
5.54879e-08
5.21652e-08
5.02362e-08
5.0615e-08
5.97002e-08
5.2598e-08
4.50969e-08
3.89712e-08
3.53102e-08
3.35981e-08
3.44665e-08
4.69672e-08
4.19909e-08
3.52901e-08
2.77716e-08
2.12442e-08
1.7645e-08
3.60739e-08
3.48115e-08
3.17078e-08
2.57762e-08
1.75687e-08
1.01591e-08
2.44603e-08
2.47168e-08
2.53757e-08
2.44937e-08
2.15378e-08
1.92288e-08
3.02076e-08
3.39222e-08
3.86482e-08
4.37248e-08
4.9004e-08
5.58665e-08
5.8112e-08
6.1609e-08
6.55576e-08
6.84119e-08
1.56543e-07
1.6658e-07
1.75716e-07
1.83624e-07
1.89993e-07
1.41836e-07
1.49693e-07
1.58988e-07
1.68703e-07
1.77341e-07
4.6489e-07
4.70084e-07
4.74178e-07
4.77473e-07
4.80169e-07
8.79251e-07
8.85805e-07
8.89099e-07
8.89719e-07
8.88661e-07
)
;

boundaryField
{
    inlet
    {
        type            calculated;
        value           nonuniform List<scalar> 5(2.83574e-06 2.89297e-06 2.94237e-06 2.98456e-06 3.02038e-06);
    }
    outlet
    {
        type            calculated;
        value           nonuniform List<scalar> 0();
    }
    walls
    {
        type            calculated;
        value           uniform 0;
    }
    frontAndBack
    {
        type            empty;
    }
    procBoundary1to0
    {
        type            processor;
        value           nonuniform List<scalar> 
94
(
0.000399314
0.000399314
0.000330768
0.000330768
0.000275428
0.000275428
0.000230537
0.000230537
0.000194188
0.000194188
0.000164737
0.000164737
0.000144069
0.000123696
0.000123696
0.00010892
9.44495e-05
9.44495e-05
8.35842e-05
7.40331e-05
6.48403e-05
6.48403e-05
5.76035e-05
5.07094e-05
5.07094e-05
4.51377e-05
4.01796e-05
3.55209e-05
3.55209e-05
3.16471e-05
2.81865e-05
2.4964e-05
2.4964e-05
2.22354e-05
1.96941e-05
1.96941e-05
1.75386e-05
1.56119e-05
1.38264e-05
1.38264e-05
1.22997e-05
1.09364e-05
9.68219e-06
9.68219e-06
8.59884e-06
7.6318e-06
6.74782e-06
6.74782e-06
5.98058e-06
5.29706e-06
4.67709e-06
4.67709e-06
4.13285e-06
3.64891e-06
3.22073e-06
3.22073e-06
2.83864e-06
2.49802e-06
2.1938e-06
1.92998e-06
1.92998e-06
1.69181e-06
1.4799e-06
1.29222e-06
1.13182e-06
1.13182e-06
9.81777e-07
8.49757e-07
7.32719e-07
6.3155e-07
5.40927e-07
5.40927e-07
4.62435e-07
3.94255e-07
3.33217e-07
2.79516e-07
2.31133e-07
1.77306e-07
1.77306e-07
1.45115e-07
1.22309e-07
1.02295e-07
8.24345e-08
6.40989e-08
4.85482e-08
3.49952e-08
2.32731e-08
2.74952e-08
2.74952e-08
5.42455e-08
1.45926e-07
1.34365e-07
4.58511e-07
8.69101e-07
)
;
    }
    procBoundary1to2
    {
        type            processor;
        value           nonuniform List<scalar> 
84
(
55.7586
1.67073
0.408799
0.0166028
0.0002963
2.12258e-05
7.08742e-06
2.01791e-05
3.0824e-05
2.43571e-05
2.56417e-05
2.31909e-05
2.23186e-05
2.07593e-05
1.96216e-05
1.83404e-05
1.71566e-05
1.59761e-05
1.48211e-05
1.36785e-05
1.25725e-05
1.15161e-05
1.05152e-05
9.56512e-06
8.68045e-06
7.89412e-06
7.21317e-06
6.61876e-06
6.10895e-06
5.6958e-06
5.38758e-06
5.16811e-06
5.00616e-06
4.88266e-06
4.79247e-06
4.70149e-06
4.59947e-06
4.4947e-06
4.80709e-06
4.80709e-06
4.55344e-06
4.30821e-06
4.06199e-06
3.80664e-06
3.54545e-06
3.28471e-06
3.02068e-06
2.75726e-06
2.50268e-06
2.26005e-06
2.02699e-06
1.80487e-06
1.59717e-06
1.40736e-06
1.40736e-06
1.22796e-06
1.06231e-06
9.13807e-07
7.81226e-07
6.64925e-07
5.61371e-07
4.71032e-07
3.93259e-07
3.33368e-07
3.33368e-07
2.77578e-07
2.30886e-07
1.91792e-07
1.55097e-07
1.2136e-07
8.96078e-08
7.03875e-08
5.55464e-08
3.78702e-08
1.88344e-08
1.88344e-08
1.01985e-08
2.13603e-08
5.56637e-08
7.08758e-08
1.95165e-07
1.84221e-07
4.82571e-07
8.86333e-07
)
;
    }
    procBoundary1to5
    {
        type            processor;
        value           nonuniform List<scalar> 
13
(
0.00368222
0.00368222
0.00204614
0.00160991
0.00160991
0.0013156
0.00103754
0.00103754
0.000858819
0.000696716
0.000572626
0.000572626
0.000486754
)
;
    }
}


// ************************************************************************* //
