/*--------------------------------*- C++ -*----------------------------------*\
| =========                 |                                                 |
| \\      /  F ield         | OpenFOAM: The Open Source CFD Toolbox           |
|  \\    /   O peration     | Version:  2506                                  |
|   \\  /    A nd           | Website:  www.openfoam.com                      |
|    \\/     M anipulation  |                                                 |
\*---------------------------------------------------------------------------*/
FoamFile
{
    version     2.0;
    format      ascii;
    arch        "LSB;label=32;scalar=64";
    class       volSymmTensorField;
    location    "50";
    object      turbulenceProperties:devReff;
}
// * * * * * * * * * * * * * * * * * * * * * * * * * * * * * * * * * * * * * //

dimensions      [0 2 -2 0 0 0 0];

internalField   nonuniform List<symmTensor> 
1340
(
(0.000812102 0.000654282 1.37343e-19 -0.000806511 -1.47209e-19 -5.59106e-06)
(0.00117577 0.000844138 1.43074e-19 -0.00118234 -4.16202e-20 6.57188e-06)
(0.00169374 0.00124055 -7.32188e-20 -0.00171336 -4.42821e-21 1.96183e-05)
(0.00243457 0.00196727 -5.07634e-20 -0.0024728 1.49883e-19 3.82318e-05)
(0.00348595 0.00319721 3.65634e-19 -0.00354637 -1.87452e-20 6.04187e-05)
(0.00490652 0.00516133 5.43842e-19 -0.00499829 -1.16566e-19 9.17656e-05)
(0.00672464 0.00810562 -1.77215e-19 -0.00685645 -1.52121e-19 0.000131804)
(0.00897404 0.0122659 1.93484e-19 -0.00914326 -1.99689e-19 0.000169218)
(0.0117373 0.0181045 3.45125e-19 -0.0119601 -1.1887e-19 0.000222812)
(0.0153316 0.0264566 -4.64666e-19 -0.0156127 5.60037e-19 0.000281048)
(0.0202661 0.0389433 9.07785e-19 -0.0206327 8.04336e-20 0.000366586)
(0.0275428 0.0586583 4.31616e-19 -0.0280298 -8.52781e-19 0.000486975)
(0.0384675 0.0909505 -2.02674e-18 -0.0391687 4.02072e-20 0.000701203)
(0.0557176 0.146793 -6.53909e-18 -0.056773 -4.03491e-19 0.00105544)
(0.083107 0.247093 -3.61187e-18 -0.0848418 -1.55285e-19 0.0017348)
(0.129759 0.445101 9.33603e-18 -0.132887 -1.74059e-18 0.00312713)
(0.19565 0.809172 -1.69358e-17 -0.201789 2.26356e-18 0.00613854)
(0.314006 1.65587 6.69468e-18 -0.327295 4.1215e-18 0.0132887)
(0.472189 3.38015 -2.05563e-16 -0.499808 2.4566e-17 0.0276194)
(0.697545 7.59989 -1.17907e-16 -0.762449 -1.37514e-17 0.0649047)
(0.600685 13.1953 9.29607e-17 -0.711321 -1.22893e-17 0.110636)
(0.0111667 16.6076 1.08531e-17 -0.1354 1.68345e-18 0.124234)
(-0.749298 17.7994 5.63441e-17 0.637514 -4.26933e-17 0.111784)
(-1.4872 18.0454 -5.27743e-16 1.39403 2.43308e-17 0.0931687)
(-2.16439 17.9811 1.69687e-16 2.08912 5.50484e-17 0.0752754)
(-2.77134 17.74 -2.30332e-15 2.71254 -3.44712e-16 0.0588007)
(-3.29887 17.3531 -4.078e-15 3.25487 5.33091e-16 0.0439968)
(-3.74379 16.8342 1.33934e-15 3.71128 3.00769e-16 0.0325061)
(0.000149766 0.000394857 -3.67008e-20 -0.000160981 -1.1654e-19 1.12152e-05)
(2.35819e-05 0.000380447 -2.36929e-19 -2.78178e-05 1.12083e-19 4.23589e-06)
(-7.5948e-05 0.000328546 7.31689e-20 8.13239e-05 7.6021e-20 -5.37591e-06)
(-0.000136189 0.000259236 -4.22721e-20 0.00015019 -4.44153e-20 -1.40014e-05)
(-0.000160418 0.000191142 -3.60178e-20 0.000180918 -4.39422e-20 -2.05008e-05)
(-0.000159952 0.000134938 -4.8282e-20 0.000184793 -3.05869e-20 -2.48405e-05)
(-0.000145959 9.31506e-05 -3.63177e-21 0.000173278 1.62728e-20 -2.73185e-05)
(-0.000125989 6.50461e-05 2.64606e-20 0.000154243 4.91486e-20 -2.82543e-05)
(-0.000105337 4.78566e-05 5.72596e-20 0.00013327 4.7857e-21 -2.79326e-05)
(-8.69586e-05 3.78047e-05 -1.01421e-19 0.000113722 1.45744e-20 -2.67636e-05)
(-7.13535e-05 3.23242e-05 1.04046e-19 9.64414e-05 -1.00453e-20 -2.50879e-05)
(-5.87044e-05 2.95569e-05 -2.03099e-20 8.1866e-05 -9.99875e-21 -2.31616e-05)
(-4.86064e-05 2.79807e-05 -4.78897e-20 6.96933e-05 3.17915e-20 -2.10869e-05)
(-4.06323e-05 2.68069e-05 -3.56447e-20 5.97048e-05 1.67128e-20 -1.90725e-05)
(-3.43888e-05 2.55973e-05 -8.4105e-20 5.17057e-05 3.70045e-20 -1.73169e-05)
(-2.98771e-05 2.442e-05 -1.06139e-19 4.60223e-05 2.69214e-20 -1.61453e-05)
(-2.72284e-05 2.37786e-05 -1.35861e-19 4.33045e-05 1.82737e-20 -1.60761e-05)
(-2.54336e-05 2.40649e-05 6.58811e-20 4.24677e-05 -7.22308e-21 -1.70342e-05)
(-7.28196e-05 8.09877e-05 -1.77766e-20 0.000129297 -8.09311e-21 -5.64779e-05)
(-0.000580755 0.00078611 1.4289e-18 0.00108975 -4.40307e-19 -0.000509)
(-0.00344539 0.0055195 8.3851e-18 0.00670942 -2.56795e-20 -0.00326403)
(-0.0159661 0.030633 1.47697e-18 0.0316949 2.79526e-18 -0.0157289)
(-0.0357016 0.0863762 -6.62922e-19 0.0710372 -8.99823e-19 -0.0353356)
(-0.0523786 0.162904 7.49296e-17 0.101886 1.68172e-17 -0.0495069)
(-0.0633065 0.242588 5.25718e-16 0.115943 -4.39719e-17 -0.0526368)
(-0.0717108 0.309458 3.11269e-16 0.119861 3.08812e-17 -0.0481504)
(-0.0815838 0.360694 2.15116e-15 0.123515 5.83231e-17 -0.041931)
(-0.0940897 0.402363 3.03762e-15 0.131 -5.04667e-16 -0.0369103)
(-0.109356 0.43936 -7.37232e-16 0.14244 1.67866e-16 -0.033084)
(0.000143164 0.00030621 5.53688e-20 -0.000144309 1.11707e-19 1.14496e-06)
(4.91977e-05 0.000303421 1.27238e-19 -5.01817e-05 6.32858e-20 9.84001e-07)
(-2.82316e-05 0.000269538 8.12455e-20 2.62257e-05 -9.06487e-20 2.00585e-06)
(-8.13194e-05 0.000217822 3.33505e-20 7.69884e-05 6.16563e-20 4.33099e-06)
(-0.000109338 0.000161203 -8.46995e-20 0.000102179 3.00339e-20 7.15993e-06)
(-0.000117299 0.000109357 3.43026e-21 0.000107453 4.02424e-20 9.84542e-06)
(-0.000112064 6.67912e-05 4.74413e-20 9.98528e-05 -5.8027e-20 1.22108e-05)
(-9.93908e-05 3.47494e-05 1.41064e-19 8.51512e-05 -7.31103e-20 1.42395e-05)
(-8.43424e-05 1.26511e-05 -1.05262e-20 6.87465e-05 -1.9452e-21 1.55959e-05)
(-6.98389e-05 -1.96217e-06 -8.8229e-21 5.33124e-05 2.90438e-20 1.65265e-05)
(-5.72537e-05 -1.10749e-05 1.13392e-19 4.02563e-05 -7.03686e-20 1.69973e-05)
(-4.69929e-05 -1.6565e-05 1.03062e-20 2.9833e-05 5.47415e-21 1.71599e-05)
(-3.91531e-05 -1.99032e-05 1.15636e-19 2.2144e-05 -1.82755e-20 1.70091e-05)
(-3.31702e-05 -2.23205e-05 1.19468e-19 1.63937e-05 -2.55582e-21 1.67764e-05)
(-2.85491e-05 -2.44552e-05 3.03839e-19 1.21123e-05 -4.77727e-20 1.64368e-05)
(-2.45437e-05 -2.69099e-05 3.70842e-19 8.371e-06 -5.72691e-20 1.61727e-05)
(-2.02024e-05 -2.98982e-05 2.03652e-19 4.17677e-06 -1.65722e-20 1.60256e-05)
(-1.39406e-05 -3.2845e-05 4.30318e-20 -2.59875e-06 -2.99326e-21 1.65394e-05)
(-5.76558e-06 -3.3571e-05 -5.14274e-20 -1.18115e-05 2.62988e-21 1.7577e-05)
(2.20269e-06 -3.14558e-05 2.00424e-19 -2.08199e-05 -1.09656e-21 1.86172e-05)
(8.30221e-06 -2.64317e-05 -5.42986e-20 -2.70812e-05 9.32916e-21 1.87789e-05)
(1.23404e-05 -2.13513e-05 -4.24928e-20 -3.13226e-05 -2.9476e-22 1.89822e-05)
(0.000245266 -0.000258927 9.79265e-20 -0.000558859 1.05152e-20 0.000313593)
(0.00110831 -0.00050519 -2.98917e-18 -0.00239115 3.54115e-19 0.00128284)
(0.00257102 0.0011273 -1.52218e-17 -0.00543386 6.1344e-18 0.00286284)
(0.00327772 0.00841797 -8.29452e-17 -0.00718029 -3.38178e-18 0.00390257)
(0.00162885 0.0244505 -1.906e-16 -0.00512096 4.0105e-17 0.00349211)
(-0.00297978 0.0499695 -4.48534e-16 0.00120329 3.99082e-17 0.0017765)
(-0.0104242 0.0833158 -1.04312e-15 0.0107817 -2.71106e-16 -0.000357491)
(0.000196716 0.000202278 8.12262e-20 -0.000196811 -6.42954e-20 9.51756e-08)
(0.000128452 0.000230761 4.21088e-20 -0.000129324 3.39519e-21 8.71992e-07)
(5.80392e-05 0.000235465 -1.03584e-19 -5.9e-05 -5.6901e-20 9.60782e-07)
(-3.63517e-06 0.000218813 -4.11551e-20 2.95494e-06 3.36758e-21 6.80238e-07)
(-5.08706e-05 0.000188054 1.62681e-19 5.07854e-05 6.88707e-22 8.5214e-08)
(-8.14203e-05 0.000150893 4.56356e-20 8.23765e-05 -7.82981e-21 -9.56174e-07)
(-9.68082e-05 0.000114096 7.32713e-20 9.91303e-05 -3.90792e-20 -2.32214e-06)
(-0.000100708 8.18022e-05 -1.5782e-19 0.000104478 -1.48839e-20 -3.76989e-06)
(-9.70658e-05 5.59106e-05 -1.46103e-19 0.000102233 3.96871e-20 -5.16718e-06)
(-8.94053e-05 3.68515e-05 2.74981e-20 9.58992e-05 1.76965e-20 -6.49383e-06)
(-8.03478e-05 2.34498e-05 3.80691e-20 8.79043e-05 -1.0799e-20 -7.55654e-06)
(-7.1456e-05 1.44437e-05 -1.26743e-19 7.98317e-05 1.34225e-20 -8.37575e-06)
(-6.34976e-05 8.50829e-06 5.70252e-21 7.24495e-05 -1.03209e-20 -8.95195e-06)
(-5.68531e-05 4.47136e-06 -4.10748e-20 6.62043e-05 1.17374e-21 -9.35122e-06)
(-5.14096e-05 1.29787e-06 1.0217e-19 6.09432e-05 -3.33383e-20 -9.53358e-06)
(-4.6919e-05 -1.60656e-06 -1.16581e-19 5.65066e-05 5.8486e-22 -9.58759e-06)
(-4.29234e-05 -4.70525e-06 -2.10881e-19 5.24346e-05 1.46258e-20 -9.51119e-06)
(-3.88145e-05 -8.18247e-06 2.38548e-20 4.81753e-05 -8.79971e-21 -9.36076e-06)
(-3.38096e-05 -1.15668e-05 6.33541e-20 4.29357e-05 -8.96429e-21 -9.12613e-06)
(-2.82253e-05 -1.34716e-05 1.64367e-19 3.73169e-05 -1.31784e-20 -9.0916e-06)
(-2.34102e-05 -1.36574e-05 -1.62174e-19 3.28837e-05 1.80802e-20 -9.47353e-06)
(-1.97427e-05 -1.30363e-05 -2.36196e-20 2.97096e-05 -5.49937e-21 -9.96693e-06)
(-1.71304e-05 -1.2368e-05 1.67291e-20 2.7608e-05 -4.27897e-21 -1.04776e-05)
(-1.37491e-05 -1.08682e-05 -7.79453e-21 2.36407e-05 8.12505e-22 -9.89164e-06)
(-1.14157e-05 -1.02833e-05 -1.121e-20 2.08857e-05 -8.54481e-21 -9.47e-06)
(-4.74474e-06 -5.26421e-06 -1.05196e-20 9.32518e-06 -6.71601e-21 -4.58044e-06)
(-4.24713e-06 -6.48967e-06 5.98875e-20 9.44749e-06 4.33842e-21 -5.20037e-06)
(-3.37818e-05 -9.71747e-05 3.88728e-18 0.000112519 9.51507e-19 -7.87373e-05)
(8.27534e-05 -3.59853e-05 3.15324e-17 5.17729e-05 3.69318e-19 -0.000134526)
(0.00052629 0.000981509 1.15316e-16 -0.000488546 -3.03168e-18 -3.77439e-05)
(0.000163746 0.000152788 -1.69706e-19 -0.000163547 1.17683e-19 -1.9888e-07)
(0.000113433 0.000178516 2.27396e-19 -0.000113587 3.68546e-20 1.53833e-07)
(6.01839e-05 0.000187201 -1.08564e-19 -6.03563e-05 -1.04923e-19 1.72339e-07)
(1.14932e-05 0.000179711 -6.45423e-20 -1.16586e-05 1.95919e-20 1.65402e-07)
(-2.8098e-05 0.000160108 -3.90593e-20 2.7807e-05 -7.15307e-20 2.90987e-07)
(-5.59452e-05 0.000133361 3.54143e-21 5.54591e-05 2.99819e-20 4.86076e-07)
(-7.20768e-05 0.000104527 -4.83901e-20 7.13069e-05 -2.60907e-20 7.69873e-07)
(-7.84836e-05 7.73087e-05 -1.03528e-19 7.73011e-05 8.72258e-20 1.18247e-06)
(-7.78062e-05 5.38472e-05 1.18653e-19 7.61057e-05 1.06985e-20 1.70056e-06)
(-7.26755e-05 3.51421e-05 7.68247e-20 7.04135e-05 -2.94208e-20 2.26204e-06)
(-6.53875e-05 2.09717e-05 -1.5766e-20 6.25315e-05 -1.68175e-20 2.85594e-06)
(-5.75395e-05 1.0657e-05 4.49502e-20 5.41013e-05 -2.60704e-22 3.43821e-06)
(-5.00978e-05 3.29852e-06 -7.72998e-20 4.61434e-05 1.84083e-20 3.95435e-06)
(-4.35841e-05 -1.97273e-06 5.46583e-20 3.92252e-05 -6.65308e-21 4.35897e-06)
(-3.80781e-05 -5.98658e-06 -6.47695e-20 3.33981e-05 -7.53871e-21 4.68e-06)
(-3.34287e-05 -9.34155e-06 7.15393e-20 2.85085e-05 -5.53007e-21 4.92016e-06)
(-2.92498e-05 -1.24764e-05 8.14932e-20 2.41238e-05 -1.4692e-21 5.12596e-06)
(-2.50155e-05 -1.55665e-05 -1.50157e-20 1.97198e-05 4.3666e-21 5.2957e-06)
(-2.00224e-05 -1.82967e-05 -1.63573e-19 1.45044e-05 1.282e-20 5.51801e-06)
(-1.43474e-05 -1.97291e-05 -5.36016e-20 8.60334e-06 4.71391e-21 5.74408e-06)
(-9.00842e-06 -1.96127e-05 -1.71138e-20 3.14894e-06 -6.59375e-21 5.85947e-06)
(-4.49495e-06 -1.86723e-05 6.57797e-20 -1.55282e-06 -3.64942e-21 6.04777e-06)
(-7.44836e-07 -1.73768e-05 9.19371e-22 -5.56706e-06 1.18035e-21 6.3119e-06)
(2.3457e-06 -1.60654e-05 -2.91023e-21 -8.91898e-06 -1.0637e-21 6.57329e-06)
(4.68835e-06 -1.44923e-05 4.27829e-20 -1.12076e-05 4.1859e-21 6.51922e-06)
(6.56706e-06 -1.41051e-05 3.02042e-20 -1.30484e-05 1.77832e-21 6.48139e-06)
(4.32783e-06 -7.61494e-06 -9.89991e-20 -7.62961e-06 -1.13316e-20 3.30178e-06)
(3.76598e-05 -5.86044e-05 -2.04116e-18 -6.00172e-05 -1.14916e-19 2.23574e-05)
(5.49429e-06 -7.68366e-06 -5.7609e-20 -7.9181e-06 3.59644e-20 2.42381e-06)
(0.000407314 -0.000502017 2.63462e-18 -0.000534275 2.83918e-18 0.000126961)
(0.000167116 8.57896e-05 -1.81888e-20 -0.000166746 4.95889e-20 -3.69458e-07)
(0.000136924 0.000117526 1.40404e-19 -0.000136804 6.65992e-20 -1.19267e-07)
(9.90578e-05 0.000140012 -8.43038e-20 -9.9144e-05 -9.99699e-20 8.62285e-08)
(5.81435e-05 0.00015004 2.49925e-21 -5.82414e-05 6.53461e-20 9.78712e-08)
(1.94364e-05 0.000147871 -6.51701e-20 -1.95353e-05 9.04428e-21 9.88871e-08)
(-1.36409e-05 0.000135961 -1.37333e-19 1.35033e-05 1.03922e-20 1.37587e-07)
(-3.87378e-05 0.000117553 1.27463e-19 3.86353e-05 -7.16446e-21 1.02441e-07)
(-5.52635e-05 9.6252e-05 -4.28723e-20 5.52746e-05 3.01626e-20 -1.11037e-08)
(-6.41967e-05 7.4973e-05 7.34177e-20 6.43675e-05 1.64862e-20 -1.70856e-07)
(-6.71302e-05 5.56515e-05 2.22103e-20 6.75222e-05 -3.51493e-20 -3.92006e-07)
(-6.58185e-05 3.94381e-05 -2.24248e-20 6.64914e-05 -1.95834e-20 -6.72904e-07)
(-6.20311e-05 2.65496e-05 -7.83127e-20 6.30271e-05 2.48791e-20 -9.96022e-07)
(-5.70926e-05 1.67435e-05 -7.97968e-20 5.84289e-05 2.90679e-20 -1.3363e-06)
(-5.19079e-05 9.46837e-06 3.85362e-20 5.35862e-05 -6.287e-21 -1.67831e-06)
(-4.70162e-05 4.08925e-06 -1.84923e-20 4.90207e-05 -4.92691e-21 -2.00453e-06)
(-4.26307e-05 -6.88858e-08 -7.17706e-20 4.49159e-05 6.11321e-21 -2.28513e-06)
(-3.87198e-05 -3.53525e-06 -7.43093e-20 4.12225e-05 -1.57428e-21 -2.50277e-06)
(-3.50568e-05 -6.73118e-06 -5.97965e-20 3.77004e-05 7.07378e-21 -2.64361e-06)
(-3.12774e-05 -9.85699e-06 7.28651e-20 3.40058e-05 -1.56283e-20 -2.72844e-06)
(-2.69359e-05 -1.26988e-05 -2.5262e-20 2.97127e-05 7.18458e-21 -2.77684e-06)
(-2.21058e-05 -1.45022e-05 -9.99472e-20 2.49813e-05 7.97573e-21 -2.8755e-06)
(-1.75752e-05 -1.49551e-05 1.39134e-19 2.07104e-05 -6.59715e-21 -3.13521e-06)
(-1.38484e-05 -1.45824e-05 8.08842e-21 1.73224e-05 4.27693e-21 -3.47395e-06)
(-1.09143e-05 -1.38572e-05 1.91378e-21 1.47537e-05 5.51672e-22 -3.8394e-06)
(-8.58139e-06 -1.2947e-05 3.93068e-21 1.28012e-05 -2.00169e-22 -4.21984e-06)
(-6.69366e-06 -1.18894e-05 -5.00961e-20 1.12597e-05 2.56017e-21 -4.56606e-06)
(-5.01666e-06 -1.07238e-05 -2.59428e-20 9.6964e-06 9.77646e-21 -4.67974e-06)
(-3.33068e-06 -9.36315e-06 1.47351e-19 7.7246e-06 -2.76186e-20 -4.39392e-06)
(-1.52412e-06 -7.33329e-06 1.02111e-19 5.01236e-06 -3.69712e-20 -3.48824e-06)
(4.30248e-08 -5.33784e-06 -7.49662e-20 2.38509e-06 -2.41257e-20 -2.42811e-06)
(1.03745e-06 -3.22706e-06 6.39939e-20 2.76336e-07 6.7857e-21 -1.31378e-06)
(0.000138112 6.57019e-05 2.80552e-21 -0.00013783 -2.09981e-20 -2.82275e-07)
(0.000115301 9.20054e-05 -4.22066e-20 -0.000115224 1.32357e-20 -7.68743e-08)
(8.62295e-05 0.000111514 6.97693e-20 -8.62528e-05 1.56312e-20 2.33544e-08)
(5.43099e-05 0.000121741 1.16776e-19 -5.43174e-05 2.38452e-20 7.49859e-09)
(2.33291e-05 0.000122619 7.14728e-20 -2.333e-05 -8.88209e-21 9.79524e-10)
(-4.13565e-06 0.000115644 -5.20188e-20 4.08397e-06 3.03394e-20 5.16797e-08)
(-2.60639e-05 0.00010296 -9.54847e-20 2.59937e-05 -2.084e-20 7.02645e-08)
(-4.16291e-05 8.71152e-05 8.59329e-20 4.15504e-05 2.4137e-20 7.8734e-08)
(-5.12341e-05 7.0331e-05 7.51597e-21 5.11234e-05 -4.21189e-20 1.10651e-07)
(-5.57834e-05 5.42375e-05 1.33228e-21 5.56295e-05 -1.72614e-20 1.53938e-07)
(-5.63999e-05 3.99713e-05 -6.9098e-20 5.61944e-05 2.34461e-20 2.05504e-07)
(-5.43981e-05 2.79806e-05 5.07593e-20 5.41202e-05 1.58853e-20 2.77888e-07)
(-5.08529e-05 1.83318e-05 1.60424e-19 5.04714e-05 -7.33299e-21 3.81513e-07)
(-4.66067e-05 1.07697e-05 -7.29237e-20 4.60963e-05 7.99799e-21 5.1044e-07)
(-4.22381e-05 4.8934e-06 -1.2913e-20 4.15832e-05 2.92496e-22 6.54855e-07)
(-3.806e-05 2.23397e-07 -9.58435e-20 3.72503e-05 3.51706e-20 8.09673e-07)
(-3.41633e-05 -3.66375e-06 -6.0032e-20 3.31982e-05 7.89939e-21 9.65059e-07)
(-3.04409e-05 -7.11216e-06 6.86405e-20 2.93316e-05 2.45619e-21 1.10926e-06)
(-2.66288e-05 -1.02914e-05 -1.74061e-19 2.53945e-05 1.89933e-20 1.23423e-06)
(-2.23689e-05 -1.30603e-05 6.61176e-20 2.1016e-05 -4.46658e-21 1.3529e-06)
(-1.7658e-05 -1.48712e-05 1.09753e-19 1.62032e-05 -7.10615e-21 1.45482e-06)
(-1.3091e-05 -1.54409e-05 -4.93918e-20 1.1618e-05 4.99659e-21 1.473e-06)
(-9.10816e-06 -1.51461e-05 -4.94804e-20 7.62443e-06 1.56443e-21 1.48373e-06)
(-5.73354e-06 -1.43975e-05 -1.10626e-20 4.16786e-06 -2.27259e-22 1.56567e-06)
(-2.82198e-06 -1.33673e-05 -1.14552e-21 1.07883e-06 7.17874e-23 1.74315e-06)
(-2.73492e-07 -1.21235e-05 4.82081e-21 -1.75246e-06 -5.32037e-21 2.02595e-06)
(1.92563e-06 -1.07495e-05 -7.43442e-20 -4.32302e-06 -1.065e-20 2.39739e-06)
(3.73415e-06 -9.39463e-06 1.76748e-19 -6.49307e-06 5.55862e-20 2.75892e-06)
(5.08788e-06 -7.92096e-06 4.4322e-21 -8.07987e-06 2.53331e-20 2.99199e-06)
(5.80182e-06 -6.20633e-06 1.15506e-19 -8.7031e-06 1.07538e-21 2.90128e-06)
(6.07949e-06 -4.6715e-06 4.90921e-20 -8.71962e-06 2.59581e-20 2.64012e-06)
(0.000115243 5.11135e-05 -3.18627e-21 -0.000115036 1.3515e-20 -2.07304e-07)
(9.76794e-05 7.31062e-05 -1.27342e-20 -9.76345e-05 -4.94238e-20 -4.49172e-08)
(7.49848e-05 8.99735e-05 -2.28477e-19 -7.49913e-05 -4.50982e-20 6.5182e-09)
(4.97257e-05 9.97658e-05 6.25336e-20 -4.97118e-05 4.74205e-20 -1.3975e-08)
(2.47244e-05 0.000102292 -1.42047e-20 -2.47061e-05 5.28748e-21 -1.8366e-08)
(1.9188e-06 9.85222e-05 1.24625e-19 -1.94657e-06 1.22145e-20 2.77732e-08)
(-1.7028e-05 8.98855e-05 -2.7173e-20 1.69897e-05 3.73724e-20 3.83667e-08)
(-3.1297e-05 7.82151e-05 5.91582e-20 3.12699e-05 -1.99931e-20 2.71067e-08)
(-4.09836e-05 6.51822e-05 -6.64328e-20 4.09611e-05 2.19461e-20 2.25035e-08)
(-4.65868e-05 5.20869e-05 -8.28927e-20 4.6583e-05 2.42234e-20 3.85836e-09)
(-4.87957e-05 3.9933e-05 3.13878e-20 4.88315e-05 1.92347e-21 -3.57366e-08)
(-4.85398e-05 2.92591e-05 4.13382e-20 4.86287e-05 -1.29901e-20 -8.88524e-08)
(-4.66382e-05 2.02964e-05 4.31765e-20 4.67861e-05 -4.13521e-20 -1.47959e-07)
(-4.38026e-05 1.29865e-05 4.21548e-20 4.40178e-05 6.28783e-21 -2.15227e-07)
(-4.05588e-05 7.12137e-06 -4.17752e-20 4.08507e-05 1.62695e-20 -2.9186e-07)
(-3.72392e-05 2.36612e-06 1.66668e-19 3.76145e-05 -1.01374e-20 -3.75323e-07)
(-3.39821e-05 -1.60916e-06 -4.52315e-20 3.44423e-05 1.36224e-20 -4.60241e-07)
(-3.07486e-05 -5.09506e-06 8.5451e-20 3.12926e-05 -1.82796e-20 -5.44014e-07)
(-2.73588e-05 -8.24652e-06 1.1315e-19 2.79795e-05 -5.91006e-21 -6.20686e-07)
(-2.35619e-05 -1.09837e-05 3.36902e-22 2.42413e-05 -6.88319e-21 -6.79402e-07)
(-1.93675e-05 -1.28944e-05 -3.09221e-20 2.01025e-05 -1.04346e-21 -7.35055e-07)
(-1.52326e-05 -1.37104e-05 -2.85615e-20 1.60725e-05 6.27598e-22 -8.39958e-07)
(-1.15689e-05 -1.36819e-05 6.72649e-21 1.25328e-05 -1.1847e-21 -9.63863e-07)
(-8.46546e-06 -1.31673e-05 1.20731e-20 9.51984e-06 -6.14305e-22 -1.05439e-06)
(-5.85259e-06 -1.23514e-05 4.95375e-21 6.96788e-06 1.82965e-22 -1.11528e-06)
(-3.67215e-06 -1.13294e-05 1.47107e-20 4.83419e-06 9.74553e-22 -1.16204e-06)
(-1.91291e-06 -1.01771e-05 4.98007e-20 3.12523e-06 -7.8084e-21 -1.21231e-06)
(-4.7274e-07 -8.97919e-06 -3.14586e-19 1.6854e-06 -1.12687e-21 -1.21266e-06)
(7.09407e-07 -7.77028e-06 -1.17198e-19 4.56244e-07 -2.98094e-20 -1.16565e-06)
(1.73579e-06 -6.57297e-06 -1.29727e-20 -6.24577e-07 4.47118e-20 -1.11121e-06)
(2.6312e-06 -5.45038e-06 -1.67391e-19 -1.56629e-06 -1.39368e-20 -1.06492e-06)
(0.000105748 1.97468e-05 -9.27465e-20 -0.000105531 -4.36604e-20 -2.17358e-07)
(9.69793e-05 4.03054e-05 -5.78042e-20 -9.68338e-05 -2.09203e-20 -1.45539e-07)
(8.3248e-05 5.88073e-05 -2.41504e-20 -8.32132e-05 1.72055e-20 -3.4799e-08)
(6.52609e-05 7.34221e-05 2.03727e-20 -6.52588e-05 7.18222e-20 -2.08546e-09)
(4.50206e-05 8.25344e-05 8.58099e-20 -4.49958e-05 2.07205e-20 -2.47767e-08)
(2.46741e-05 8.58959e-05 6.25454e-20 -2.46435e-05 -3.95597e-20 -3.06099e-08)
(5.68162e-06 8.41889e-05 -5.99102e-20 -5.68896e-06 -3.07598e-20 7.33391e-09)
(-1.05835e-05 7.83928e-05 1.74093e-19 1.05653e-05 -2.13906e-20 1.82149e-08)
(-2.33736e-05 6.98269e-05 -1.48664e-20 2.33591e-05 -4.81421e-20 1.44898e-08)
(-3.26494e-05 5.97424e-05 1.45293e-19 3.26276e-05 1.28574e-21 2.18044e-08)
(-3.86521e-05 4.91564e-05 9.13737e-20 3.86259e-05 2.13797e-21 2.62213e-08)
(-4.17759e-05 3.89079e-05 -5.3903e-20 4.17541e-05 -6.36796e-21 2.17139e-08)
(-4.26586e-05 2.95148e-05 7.27914e-21 4.26384e-05 -1.41704e-20 2.0136e-08)
(-4.18914e-05 2.12936e-05 -1.32341e-19 4.18699e-05 1.55257e-20 2.15768e-08)
(-4.00393e-05 1.431e-05 -6.46409e-21 4.00092e-05 -8.96724e-21 3.00557e-08)
(-3.75579e-05 8.48757e-06 8.96789e-20 3.7512e-05 -4.23282e-21 4.59754e-08)
(-3.47684e-05 3.63427e-06 3.39482e-21 3.47019e-05 -1.18864e-20 6.65851e-08)
(-3.18449e-05 -4.76314e-07 7.30026e-20 3.17538e-05 1.82542e-21 9.10347e-08)
(-2.88095e-05 -4.06676e-06 -9.06003e-20 2.86882e-05 3.99938e-22 1.21358e-07)
(-2.55606e-05 -7.25233e-06 -6.55025e-20 2.53996e-05 -9.88986e-22 1.61012e-07)
(-2.19338e-05 -9.97814e-06 -1.31357e-19 2.17171e-05 8.45276e-21 2.16649e-07)
(-1.79452e-05 -1.19413e-05 -9.54498e-20 1.76625e-05 7.18644e-21 2.82718e-07)
(-1.39462e-05 -1.29077e-05 -9.13148e-21 1.36219e-05 -2.49496e-23 3.24272e-07)
(-1.03086e-05 -1.30419e-05 -3.684e-20 9.96269e-06 5.8725e-22 3.45877e-07)
(-7.15526e-06 -1.2647e-05 -5.36294e-22 6.76577e-06 5.75868e-22 3.8949e-07)
(-4.45394e-06 -1.19098e-05 -4.686e-21 3.99639e-06 3.15891e-22 4.57553e-07)
(-2.15897e-06 -1.09305e-05 -1.0515e-21 1.61749e-06 1.44197e-21 5.41482e-07)
(-2.38736e-07 -9.79879e-06 3.79468e-20 -4.11767e-07 8.86207e-21 6.50503e-07)
(1.32449e-06 -8.61061e-06 5.17796e-21 -2.08691e-06 -2.0438e-20 7.62415e-07)
(2.56769e-06 -7.40075e-06 2.46658e-19 -3.42435e-06 6.48968e-21 8.5666e-07)
(3.58285e-06 -6.20899e-06 -4.00298e-19 -4.46638e-06 -6.47327e-20 8.83536e-07)
(4.38192e-06 -5.01647e-06 3.25975e-20 -5.24247e-06 -2.74235e-20 8.60549e-07)
(8.21853e-05 3.21642e-05 -1.62736e-19 -8.20853e-05 1.67812e-20 -1.00004e-07)
(7.1308e-05 4.78381e-05 2.42493e-19 -7.128e-05 1.06264e-19 -2.80143e-08)
(5.68805e-05 6.05066e-05 1.49599e-19 -5.68745e-05 -1.13068e-20 -6.02924e-09)
(4.04787e-05 6.88408e-05 9.64453e-20 -4.04524e-05 -2.37169e-20 -2.63034e-08)
(2.37765e-05 7.25723e-05 -1.8403e-19 -2.37409e-05 -2.39491e-20 -3.5587e-08)
(7.9025e-06 7.21739e-05 -1.14209e-19 -7.89979e-06 3.25248e-21 -2.71486e-09)
(-6.02464e-06 6.83589e-05 -2.24599e-19 6.01653e-06 -1.86163e-20 8.11696e-09)
(-1.73497e-05 6.21036e-05 -2.25165e-19 1.73422e-05 3.37536e-20 7.48531e-09)
(-2.59772e-05 5.43416e-05 -8.96175e-20 2.59648e-05 -1.74042e-20 1.23908e-08)
(-3.20182e-05 4.58475e-05 3.47479e-20 3.2005e-05 -1.515e-21 1.32296e-08)
(-3.56796e-05 3.73055e-05 -2.78183e-20 3.56757e-05 6.7665e-21 3.9129e-09)
(-3.73848e-05 2.91826e-05 -5.56624e-20 3.73903e-05 1.86496e-20 -5.46964e-09)
(-3.7548e-05 2.17986e-05 6.13077e-20 3.7566e-05 1.99418e-21 -1.8033e-08)
(-3.65966e-05 1.52999e-05 -7.86737e-20 3.66302e-05 -5.91436e-21 -3.35347e-08)
(-3.48969e-05 9.70905e-06 -9.43805e-22 3.49455e-05 -1.03e-20 -4.86224e-08)
(-3.2742e-05 4.92234e-06 2.90705e-20 3.28074e-05 -1.16867e-20 -6.54563e-08)
(-3.03071e-05 8.05715e-07 7.5449e-20 3.03898e-05 -2.05004e-20 -8.26545e-08)
(-2.76514e-05 -2.79083e-06 -3.533e-20 2.77513e-05 2.45861e-21 -9.99073e-08)
(-2.47313e-05 -5.95282e-06 -2.05165e-20 2.48437e-05 1.49381e-20 -1.12401e-07)
(-2.14562e-05 -8.64922e-06 -1.97373e-20 2.1575e-05 1.09946e-20 -1.18784e-07)
(-1.78535e-05 -1.06537e-05 7.20474e-20 1.79727e-05 -1.41752e-21 -1.19253e-07)
(-1.42041e-05 -1.17678e-05 -2.63663e-21 1.43475e-05 1.19833e-21 -1.43391e-07)
(-1.08312e-05 -1.20958e-05 2.44219e-20 1.10267e-05 -1.09091e-21 -1.95487e-07)
(-7.88144e-06 -1.18828e-05 -3.82807e-21 8.12951e-06 -6.57356e-23 -2.48067e-07)
(-5.35484e-06 -1.13096e-05 -2.72172e-21 5.65011e-06 -2.50687e-22 -2.95271e-07)
(-3.22329e-06 -1.04821e-05 -1.01113e-20 3.56736e-06 -4.04519e-22 -3.4407e-07)
(-1.47146e-06 -9.48775e-06 -4.14962e-20 1.86707e-06 -1.67127e-22 -3.95603e-07)
(-4.6243e-08 -8.419e-06 -1.05826e-19 4.74296e-07 -8.41694e-21 -4.28053e-07)
(1.11024e-06 -7.31152e-06 1.24889e-20 -6.77334e-07 1.85427e-20 -4.32907e-07)
(2.10257e-06 -6.20309e-06 3.70392e-19 -1.66272e-06 -8.04887e-21 -4.39844e-07)
(2.93879e-06 -5.03815e-06 2.52638e-19 -2.51577e-06 5.50758e-20 -4.23025e-07)
(6.13631e-05 3.9279e-05 -2.16326e-19 -6.13473e-05 -6.66953e-20 -1.58545e-08)
(4.96637e-05 5.02992e-05 -1.5979e-19 -4.96589e-05 -3.03624e-21 -4.81227e-09)
(3.62381e-05 5.78386e-05 1.33121e-19 -3.62131e-05 5.9874e-20 -2.50357e-08)
(2.24175e-05 6.16563e-05 2.09016e-19 -2.23794e-05 8.52366e-21 -3.80768e-08)
(9.09513e-06 6.20946e-05 3.49792e-20 -9.0845e-06 -7.49539e-21 -1.06239e-08)
(-2.81987e-06 5.96608e-05 1.53641e-19 2.8173e-06 5.88813e-20 2.56354e-09)
(-1.27774e-05 5.51069e-05 1.8495e-19 1.27747e-05 4.11127e-20 2.69227e-09)
(-2.06565e-05 4.91435e-05 -7.82788e-20 2.065e-05 -6.90009e-21 6.54085e-09)
(-2.64865e-05 4.23663e-05 5.02333e-20 2.64779e-05 -5.22598e-21 8.67108e-09)
(-3.037e-05 3.53103e-05 -1.426e-20 3.03671e-05 5.7435e-21 2.9115e-09)
(-3.25939e-05 2.83587e-05 1.11297e-19 3.25948e-05 -5.20184e-21 -9.62328e-10)
(-3.34208e-05 2.18217e-05 -5.26835e-20 3.34256e-05 5.03188e-21 -4.74413e-09)
(-3.31612e-05 1.58697e-05 -1.13011e-19 3.31685e-05 3.22294e-20 -7.27039e-09)
(-3.20996e-05 1.05843e-05 -4.10635e-20 3.21091e-05 5.10036e-21 -9.52932e-09)
(-3.04776e-05 5.94372e-06 -9.91004e-20 3.04881e-05 1.50285e-20 -1.05244e-08)
(-2.84609e-05 1.88129e-06 -1.00136e-19 2.84685e-05 5.31484e-21 -7.56558e-09)
(-2.613e-05 -1.69549e-06 -1.01301e-19 2.61318e-05 1.45092e-20 -1.83401e-09)
(-2.34832e-05 -4.83828e-06 1.84512e-19 2.34741e-05 -1.71137e-20 9.01382e-09)
(-2.04808e-05 -7.51412e-06 1.32307e-19 2.04562e-05 -7.26959e-21 2.46144e-08)
(-1.71637e-05 -9.55176e-06 2.31109e-20 1.7117e-05 -4.9544e-21 4.67096e-08)
(-1.37577e-05 -1.07868e-05 9.02094e-20 1.37013e-05 -4.11308e-21 5.64126e-08)
(-1.05385e-05 -1.12744e-05 1.88381e-20 1.04918e-05 -1.88441e-24 4.66707e-08)
(-7.66205e-06 -1.12093e-05 5.5708e-21 7.62398e-06 -1.99131e-22 3.80709e-08)
(-5.15383e-06 -1.07569e-05 -5.53954e-22 5.11425e-06 -2.3581e-22 3.95754e-08)
(-3.00218e-06 -1.00229e-05 -1.6517e-22 2.95481e-06 -7.28838e-22 4.73661e-08)
(-1.19399e-06 -9.09486e-06 2.05615e-20 1.12855e-06 -1.63629e-21 6.54405e-08)
(3.00525e-07 -8.06751e-06 2.97446e-20 -4.02595e-07 -5.65427e-21 1.0207e-07)
(1.52018e-06 -6.98253e-06 5.90533e-20 -1.67517e-06 5.78521e-21 1.54991e-07)
(2.55932e-06 -5.87903e-06 1.16638e-19 -2.75177e-06 5.13427e-20 1.92448e-07)
(3.42941e-06 -4.70289e-06 -4.64965e-19 -3.67002e-06 -3.29391e-20 2.40612e-07)
(4.34423e-05 4.21199e-05 4.719e-20 -4.34419e-05 2.16779e-20 -3.98859e-10)
(3.23473e-05 4.89216e-05 8.09962e-20 -3.23259e-05 -4.78438e-20 -2.14767e-08)
(2.08357e-05 5.26511e-05 -2.69294e-19 -2.08019e-05 -7.26776e-20 -3.3832e-08)
(9.6044e-06 5.35979e-05 -2.12398e-19 -9.58733e-06 2.03616e-20 -1.7065e-08)
(-6.05796e-07 5.21316e-05 6.45116e-20 6.12031e-07 -1.64924e-20 -6.2348e-09)
(-9.32132e-06 4.88322e-05 1.90965e-19 9.32299e-06 -4.06196e-20 -1.67277e-09)
(-1.64209e-05 4.42593e-05 -6.75763e-20 1.6415e-05 1.73527e-20 5.88407e-09)
(-2.1906e-05 3.88646e-05 -2.55584e-20 2.18987e-05 -4.55128e-22 7.33804e-09)
(-2.58137e-05 3.30683e-05 -7.22694e-21 2.58155e-05 -7.42982e-21 -1.82124e-09)
(-2.83296e-05 2.71819e-05 -3.43296e-20 2.83353e-05 1.89069e-21 -5.62486e-09)
(-2.96219e-05 2.14673e-05 9.34518e-20 2.96315e-05 -1.08567e-21 -9.61523e-09)
(-2.99057e-05 1.60992e-05 1.60243e-19 2.99187e-05 1.41876e-20 -1.29945e-08)
(-2.93853e-05 1.11903e-05 2.25352e-20 2.94006e-05 5.99093e-21 -1.53266e-08)
(-2.82553e-05 6.77025e-06 1.1811e-19 2.82737e-05 5.34035e-22 -1.8359e-08)
(-2.66603e-05 2.83098e-06 4.77596e-20 2.66819e-05 4.99116e-21 -2.16098e-08)
(-2.4685e-05 -6.74283e-07 7.75003e-20 2.47094e-05 -1.2177e-21 -2.44001e-08)
(-2.23521e-05 -3.76433e-06 -1.1701e-19 2.23763e-05 -3.39538e-21 -2.42277e-08)
(-1.96564e-05 -6.4066e-06 -1.46335e-20 1.96765e-05 -9.89775e-21 -2.00929e-08)
(-1.66544e-05 -8.46376e-06 -7.10932e-20 1.66683e-05 2.17974e-21 -1.3935e-08)
(-1.35311e-05 -9.79595e-06 -9.56364e-20 1.35471e-05 2.89012e-21 -1.60222e-08)
(-1.05234e-05 -1.04296e-05 -4.16967e-20 1.05582e-05 5.21078e-22 -3.47461e-08)
(-7.78982e-06 -1.05128e-05 1.11652e-20 7.84654e-06 1.84409e-22 -5.67148e-08)
(-5.37944e-06 -1.01946e-05 4.90498e-21 5.45432e-06 1.92186e-22 -7.48736e-08)
(-3.29774e-06 -9.57879e-06 4.95623e-21 3.39015e-06 -4.75605e-22 -9.24052e-08)
(-1.54272e-06 -8.7513e-06 -9.35182e-22 1.65155e-06 1.71085e-21 -1.08831e-07)
(-9.02869e-08 -7.80238e-06 -6.33831e-21 2.01563e-07 -3.77413e-21 -1.11276e-07)
(1.1002e-06 -6.77751e-06 -1.27915e-20 -1.00778e-06 1.60974e-20 -9.24242e-08)
(2.12481e-06 -5.71859e-06 -2.22453e-19 -2.05139e-06 -3.12466e-20 -7.34221e-08)
(2.99667e-06 -4.56753e-06 2.82847e-20 -2.96893e-06 -3.19426e-20 -2.77415e-08)
(2.88316e-05 4.15999e-05 -2.90089e-19 -2.88168e-05 -7.05238e-20 -1.48016e-08)
(1.91612e-05 4.51765e-05 6.32971e-20 -1.91318e-05 6.41541e-20 -2.94408e-08)
(9.65777e-06 4.64145e-05 1.52215e-19 -9.63967e-06 7.90216e-21 -1.80929e-08)
(9.02589e-07 4.56214e-05 -2.04013e-19 -8.91465e-07 -3.93113e-20 -1.11243e-08)
(-6.70353e-06 4.32462e-05 -1.8397e-19 6.70942e-06 -3.12991e-22 -5.89784e-09)
(-1.30567e-05 3.97374e-05 1.20265e-19 1.30535e-05 7.18911e-21 3.25654e-09)
(-1.81294e-05 3.54523e-05 4.98506e-20 1.81241e-05 -3.3686e-21 5.34535e-09)
(-2.19195e-05 3.07113e-05 -9.98088e-20 2.1921e-05 3.6016e-21 -1.476e-09)
(-2.45615e-05 2.57562e-05 9.07139e-20 2.45674e-05 -3.84546e-21 -5.88871e-09)
(-2.61504e-05 2.08089e-05 -5.64487e-20 2.61591e-05 -1.48582e-20 -8.71854e-09)
(-2.68297e-05 1.60308e-05 1.58184e-19 2.68401e-05 -2.75353e-20 -1.04622e-08)
(-2.67422e-05 1.15396e-05 5.55959e-20 2.67535e-05 -8.73538e-21 -1.12594e-08)
(-2.60335e-05 7.39374e-06 -5.81417e-21 2.60454e-05 -1.25322e-20 -1.19189e-08)
(-2.48183e-05 3.62528e-06 2.36869e-20 2.48296e-05 -6.77397e-21 -1.12686e-08)
(-2.31753e-05 2.29317e-07 -2.23662e-20 2.31846e-05 -6.1726e-21 -9.34447e-09)
(-2.11408e-05 -2.78504e-06 -1.14374e-20 2.11452e-05 7.1378e-21 -4.44643e-09)
(-1.87345e-05 -5.37942e-06 -1.41603e-19 1.87322e-05 1.13523e-20 2.31446e-09)
(-1.60192e-05 -7.442e-06 5.58858e-21 1.60069e-05 2.30314e-21 1.23158e-08)
(-1.31528e-05 -8.84951e-06 6.58231e-20 1.31344e-05 6.61238e-22 1.84696e-08)
(-1.03382e-05 -9.60539e-06 -8.96041e-22 1.03253e-05 1.40977e-22 1.29232e-08)
(-7.73041e-06 -9.82073e-06 -1.23328e-20 7.72592e-06 7.72962e-23 4.49029e-09)
(-5.39551e-06 -9.62443e-06 -6.15624e-21 5.39664e-06 -2.79016e-23 -1.12993e-09)
(-3.35366e-06 -9.11505e-06 2.14084e-20 3.35918e-06 1.36201e-21 -5.51699e-09)
(-1.61168e-06 -8.37473e-06 -1.32998e-20 1.62065e-06 -2.08664e-22 -8.97476e-09)