/*--------------------------------*- C++ -*----------------------------------*\
| =========                 |                                                 |
| \\      /  F ield         | OpenFOAM: The Open Source CFD Toolbox           |
|  \\    /   O peration     | Version:  2506                                  |
|   \\  /    A nd           | Website:  www.openfoam.com                      |
|    \\/     M anipulation  |                                                 |
\*---------------------------------------------------------------------------*/
FoamFile
{
    version     2.0;
    format      ascii;
    arch        "LSB;label=32;scalar=64";
    class       volScalarField;
    location    "300";
    object      p;
}
// * * * * * * * * * * * * * * * * * * * * * * * * * * * * * * * * * * * * * //

dimensions      [0 2 -2 0 0 0 0];

internalField   nonuniform List<scalar> 
1340
(
6.9873
15.2328
29.1563
52.8471
7.88948
16.0022
29.8471
52.607
8.59747
16.6219
30.3324
52.2105
9.27372
17.1994
30.7367
51.7658
10.0102
17.8438
31.1718
51.3124
10.8543
18.5328
31.5918
50.8195
11.5763
19.1292
31.9145
50.252
12.4366
19.8193
32.2634
49.6827
13.2371
20.4457
32.5303
49.0536
14.0918
21.1002
32.7782
48.3943
14.9392
21.7331
32.9779
47.6994
15.8057
22.3639
33.142
46.974
16.6754
22.9807
33.2663
46.2206
17.5517
23.5857
33.3545
45.443
18.4289
24.1748
33.407
44.6452
19.3054
24.7469
33.4262
43.8311
20.1772
25.2999
33.4142
43.0045
21.0412
25.832
33.3735
42.1706
21.8936
26.3417
33.3066
41.3337
22.7309
26.8276
33.2163
40.4982
23.5491
27.2883
33.1053
39.6687
24.3445
27.7225
32.9762
38.8499
25.113
28.1291
32.8317
38.0457
25.8507
28.5072
32.6741
37.2601
26.5535
28.8557
32.5056
36.4966
27.2175
29.1736
32.3279
35.7582
27.8386
29.4598
32.1426
35.0473
28.4132
29.7133
31.9507
34.3657
28.9374
29.933
31.753
33.7144
29.4078
30.1177
31.5495
33.0938
29.8212
30.2661
31.3401
32.5035
30.1746
30.3768
31.1241
31.9424
30.4653
30.4485
30.9005
31.4088
30.6912
30.4798
30.6679
30.9002
30.8507
30.4692
30.4244
30.4139
30.9424
30.4155
30.1682
29.9464
30.9658
30.3176
29.897
29.4942
30.9209
30.1746
29.6088
29.0533
31.8284
30.8082
29.9857
29.3013
28.6197
31.6568
30.6288
29.7506
28.9724
28.1897
31.4074
30.3846
29.4694
28.6203
27.7592
31.0842
30.078
29.1426
28.2434
27.3248
30.692
29.7119
28.7711
27.8404
26.8831
30.2357
29.2896
28.3563
27.4105
26.4313
29.7209
28.815
27.8999
26.9533
25.967
29.1533
28.2922
27.4041
26.4689
25.4881
28.5387
27.7257
26.8715
25.9578
24.9934
27.883
27.12
26.3051
25.4209
24.4818
27.1919
26.4798
25.7081
24.8597
23.9532
26.4711
25.8098
25.0836
24.2758
23.4075
25.726
25.1148
24.4354
23.6713
22.8454
24.9619
24.3992
23.7669
23.0486
22.2679
24.6411
24.1835
23.6674
23.0818
22.4102
21.6764
23.8099
23.3955
22.9237
22.3835
21.7586
21.0725
22.9764
22.6019
22.172
21.6756
21.0966
20.4582
22.1445
21.8068
21.4159
20.9613
20.427
19.8353
21.3175
21.0134
20.659
20.2438
19.7523
19.2062
20.4984
20.225
19.9042
19.526
19.0754
18.5729
19.6899
19.4444
19.1545
18.8108
18.3987
17.9377
18.8942
18.674
18.4125
18.1007
17.7246
17.3028
18.1133
17.9159
17.6804
17.398
17.0555
16.6703
17.4956
17.3489
17.1722
16.9601
16.7048
16.3934
16.0424
16.7329
16.6024
16.4443
16.2537
16.023
15.7403
15.4211
15.991
15.875
15.7337
15.5625
15.3545
15.0981
14.8083
15.2709
15.168
15.0419
14.8883
14.7008
14.4685
14.2059
14.5731
14.4819
14.3695
14.2319
14.0632
13.853
13.6152
13.899
13.8184
13.7184
13.5953
13.4437
13.2537
13.0388
13.3516
13.2782
13.1865
13.073
12.9328
12.7564
12.5569
12.8955
12.8268
12.7405
12.6334
12.5008
12.3332
12.1438
12.4273
12.3634
12.2826
12.182
12.0569
11.8984
11.7193
11.9489
11.8901
11.8151
11.7212
11.6039
11.4545
11.2856
11.5022
11.4626
11.409
11.3399
11.2528
11.1436
11.0035
10.8453
11.0086
10.9746
10.9266
10.8637
10.7835
10.6819
10.5504
10.4005
10.505
10.4778
10.4377
10.3837
10.3133
10.2231
10.1058
9.9758
10.0178
9.99234
9.95394
9.90215
9.83511
9.74852
9.63067
9.48543
9.54757
9.54649
9.53217
9.50344
9.45897
9.39921
9.3272
9.27574
8.88142
8.85586
8.82292
8.78257
8.73068
8.65352
8.51637
8.27703
9.22581
9.26993
9.29188
9.29359
9.2828
9.2841
9.35209
9.59542
6.21004
6.19987
6.19769
6.19872
6.18498
6.10325
5.84553
5.23596
12.5382
12.6164
12.6628
12.6936
12.7413
12.8882
13.2593
14.0586
106.583
103.458
99.9184
96.1995
92.3923
88.582
84.8315
81.1889
77.6375
74.2048
70.8911
67.7069
64.6585
61.7516
58.9902
56.3767
53.912
51.596
49.4268
47.401
45.5144
43.7617
42.1368
40.6331
39.2434
37.9606
36.7772
35.686
34.6799
33.752
32.8955
32.104
31.3711
30.6907
30.0569
29.4638
28.9056
28.3768
27.8721
27.386
26.9137
26.4505
25.992
25.5341
25.0734
24.6069
24.132
23.6466
23.1494
22.6393
22.116
21.5795
21.0302
20.469
19.8971
19.316
18.7273
18.1329
17.5348
16.935
16.3354
15.7381
15.1449
14.5579
13.979
13.4096
12.853
12.3849
11.9811
11.5662
11.142
10.7119
10.2734
9.86791
9.35647
9.23581
8.06734
9.76801
4.82117
14.3952
47.3283
47.5335
47.9182
48.2622
48.5352
48.7103
48.7772
48.7296
48.5646
48.2913
47.91
47.4279
46.8517
46.189
45.4492
44.6422
43.7782
42.8682
41.9237
40.9558
39.9754
38.9926
38.0168
37.0566
36.1192
35.2104
34.3351
33.4966
32.6971
31.9377
31.2184
30.5384
29.8962
29.2895
28.7159
28.1724
27.6556
27.1622
26.6884
26.2308
25.7855
25.3491
24.9181
24.489
24.059
23.6252
23.1851
22.7369
22.2787
21.8094
21.3282
20.8348
20.3292
19.8117
19.2833
18.745
18.198
17.644
17.0846
16.5216
15.9569
15.3923
14.83
14.2716
13.7194
13.1746
12.6408
12.1908
11.8021
11.4021
10.9922
10.5764
10.1508
9.76027
9.25899
9.15264
8.00587
9.65627
4.90854
14.0558
29.4238
29.5132
29.5994
29.6758
29.7715
29.8875
30.0263
30.183
30.3552
30.5373
30.7225
30.9051
31.078
31.2349
31.3695
31.4757
31.5484
31.5829
31.5756
31.5243
31.4276
31.2854
31.0987
30.87
30.6024
30.2999
29.9671
29.6092
29.2312
28.8381
28.4347
28.0253
27.6135
27.2023
26.7941
26.3904
25.9921
25.5996
25.2125
24.83
24.4511
24.0742
23.6976
23.3196
22.9382
22.5516
22.1581
21.7561
21.3442
20.9214
20.4869
20.0402
19.5811
19.11
18.6272
18.1336
17.6303
17.1184
16.5995
16.0753
15.5473
15.0175
14.4878
13.96
13.4363
12.9179
12.4086
11.9783
11.6062
11.2225
10.8285
10.4284
10.0177
9.64161
9.1571
9.05035
7.96178
9.49342
5.04719
13.6657
27.9832
28.0751
28.1411
28.1848
28.2116
28.2214
28.2163
28.1964
28.1642
28.1205
28.0675
28.007
27.9404
27.8696
27.7955
27.719
27.6406
27.5603
27.4776
27.3914
27.3006
27.2034
27.098
26.9825
26.8553
26.7146
26.5591
26.3882
26.2013
25.9987
25.7809
25.549
25.3041
25.0478
24.7817
24.5073
24.2258
23.9384
23.646
23.3489
23.0473
22.741
22.4296
22.1123
21.7881
21.4562
21.1154
20.7647
20.4031
20.0298
19.6441
19.2456
18.834
18.4096
17.9726
17.5237
17.0637
16.5937
16.115
15.6291
15.1376
14.6423
14.145
13.6475
13.1519
12.6597
12.1746
11.7635
11.4072
11.0392
10.6604
10.2755
9.87926
9.51716
9.04759
8.94513
7.89615
9.36431
5.08806
13.4159
23.7527
23.866
23.9802
24.0901
24.197
24.3002
24.3984
24.49
24.5738
24.6479
24.7113
24.7628
24.8014
24.8264
24.8372
24.8337
24.816
24.7845
24.7399
24.683
24.6146
24.5359
24.4479
24.3515
24.2474
24.1363
24.0185
23.8941
23.7632
23.6254
23.4806
23.3283
23.1683
23.0003
22.824
22.6393
22.4463
22.245
22.0352
21.8172
21.5907
21.3556
21.1117
20.8585
20.5956
20.3222
20.0378
19.7417
19.4332
19.1116
18.7766
18.4277
18.0648
17.688
17.2975
16.8938
16.4776
16.05
15.612
15.1651
14.7106
14.2504
13.7861
13.3196
12.853
12.3877
11.9275
11.536
11.1958
10.8439
10.4808
10.1114
9.73001
9.38203
8.92739
8.8319
7.81332
9.24407
5.07723
13.2112
19.0784
19.1713
19.2692
19.367
19.4681
19.5723
19.6796
19.7897
19.9021
20.0165
20.1321
20.2483
20.3641
20.4785
20.5903
20.6983
20.8012
20.8975
20.9861
21.0658
21.1353
21.1937
21.2404
21.2747
21.2964
21.3054
21.3018
21.2857
21.2576
21.2179
21.167
21.1052
21.0329
20.9504
20.8577
20.755
20.6422
20.5192
20.3859
20.242
20.0875
19.9219
19.7449
19.5562
19.3555
19.1421
18.9158
18.6758
18.4219
18.1536
17.8705
17.5723
17.2591
16.9307
16.5874
16.2298
15.8583
15.4739
15.0776
14.6706
14.2543
13.8304
13.4004
12.9662
12.5299
12.0928
11.659
11.2883
10.9655
10.6307
10.2845
9.93163
9.56626
9.23303
8.79527
8.70543
7.7219
9.10604
15.9292
16.0156
16.1067
16.1985
16.2935
16.3908
16.4907
16.5929
16.6973
16.8039
16.9127
17.0235
17.1361
17.2502
17.3658
17.4824
17.5997
17.717
17.8339
17.9496
18.0633
18.174
18.2807
18.3825
18.4781
18.5665
18.6465
18.7174
18.7781
18.828
18.8665
18.8931
18.9075
18.9096
18.8992
18.8762
18.8406
18.7925
18.7316
18.658
18.5715
18.4718
18.3589
18.2323
18.0918
17.9371
17.7677
17.5833
17.3835
17.168
16.9365
16.689
16.4251
16.1451
15.8492
15.5376
15.211
14.8701
14.5158
14.1493
13.7718
13.3849
12.9901
12.5891
12.1841
11.7764
11.37
11.0213
10.7167
10.4
10.0716
9.73622
9.38798
9.07003
8.65105
8.56491
13.7127
13.7934
13.8795
13.9672
14.0583
14.152
14.2487
14.3479
14.4497
14.554
14.6605
14.7691
14.8795
14.9916
15.105
15.2197
15.3352
15.4513
15.5677
15.6841
15.8001
15.9154
16.0294
16.1417
16.2519
16.3591
16.4628
16.5621
16.6563
16.7445
16.8258
16.8993
16.9642
17.0196
17.0648
17.099
17.1217
17.1324
17.1304
17.1155
17.0873
17.0453
16.9891
16.9186
16.8331
16.7326
16.6164
16.4844
16.336
16.1712
15.9895
15.7908
15.5751
15.3423
15.0926
14.8263
14.5438
14.2459
13.9334
13.6072
13.2685
12.9187
12.5594
12.1922
11.819
11.4413
11.0631
10.7369
10.4511
10.1531
9.84321
9.52586
9.19552
8.89313
11.8855
11.9573
12.0343
12.1134
12.1959
12.2814
12.3701
12.462
12.557
12.6551
12.7563
12.8604
12.9673
13.077
13.1892
13.3036
13.4201
13.5384
13.658
13.7788
13.9002
14.022
14.1436
14.2646
14.3845
14.5029
14.6192
14.7329
14.8434
14.9501
15.0523
15.1495
15.2408
15.3255
15.4028
15.472
15.5321
15.5825
15.6223
15.6508
15.6672
15.671
15.6614
15.6378
15.5997
15.5466
15.4779
15.3932
15.292
15.174
15.0388
14.8862
14.7161
14.5284
14.3231
14.1005
13.861
13.605
13.3333
13.0468
12.7465
12.4336
12.1097
11.7763
11.4352
11.0879
10.7383
10.4351
10.1686
9.88975
9.59884
10.3587
10.4222
10.4901
10.5601
10.6334
10.7096
10.789
10.8714
10.957
11.0459
11.1379
11.2332
11.3317
11.4333
11.5381
11.6459
11.7565
11.87
11.986
12.1045
12.225
12.3473
12.471
12.5958
12.7212
12.8467
12.9718
13.096
13.2187
13.3392
13.4569
13.5711
13.6812
13.7865
13.8862
13.9796
14.0659
14.1444
14.2141
14.2744
14.3243
14.3632
14.3901
14.4044
14.4053
14.392
14.3639
14.3204
14.261
14.185
14.092
13.9817
13.8539
13.7083
13.5449
13.3638
13.1652
12.9496
12.7174
12.4695
12.2068
11.9303
11.6415
11.3417
11.0328
10.716
9.1072
9.16344
9.22347
9.28559
9.35067
9.41849
9.48924
9.56294
9.63965
9.71944
9.80234
9.8884
9.97762
10.07
10.1656
10.2644
10.3662
10.4711
10.579
10.6897
10.8032
10.9192
11.0375
11.1579
11.2802
11.4038
11.5286
11.654
11.7795
11.9047
12.0289
12.1516
12.272
12.3894
12.5031
12.6124
12.7164
12.8144
12.9055
12.9888
13.0636
13.129
13.184
13.228
13.26
13.2791
13.2847
13.276
13.2523
13.2128
13.1572
13.0847
12.9951
12.888
12.7633
12.6208
12.4607
12.2832
12.0888
11.878
11.6516
8.06756
8.11726
8.1702
8.22514
8.28277
8.34293
8.4058
8.47142
8.53987
8.61121
8.68552
8.76284
8.84322
8.9267
9.01329
9.10304
9.19591
9.2919
9.39097
9.49306
9.5981
9.70598
9.81657
9.9297
10.0452
10.1628
10.2822
10.4033
10.5255
10.6485
10.7718
10.895
11.0175
11.1387
11.258
11.3746
11.4878
11.5969
11.7009
11.7991
11.8907
11.9746
12.05
12.1161
12.1718
12.2164
12.2489
12.2685
12.2744
12.2659
12.2421
12.2026
12.1467
12.0739
7.18587
7.22963
7.27617
7.32459
7.37542
7.42857
7.48419
7.54232
7.60306
7.66649
7.73268
7.80169
7.87358
7.94842
8.02626
8.10714
8.19108
8.27809
8.36819
8.46137
8.55759
8.65679
8.7589
8.86383
8.97144
9.08156
9.19401
9.30856
9.42496
9.54289
9.66199
9.78189
9.90213
10.0222
10.1417
10.2599
10.3761
10.4898
10.6002
10.7064
10.8077
10.9033
)
;

boundaryField
{
    inlet
    {
        type            freestreamPressure;
        freestreamValue uniform 0;
        value           nonuniform List<scalar> 
13
(
7.07619
7.11893
7.14382
7.15988
7.18547
7.26704
7.47497
7.92481
8.11444
7.92335
7.70363
7.56298
7.44771
)
;
    }
    outlet
    {
        type            freestreamPressure;
        freestreamValue nonuniform List<scalar> 0();
        value           nonuniform List<scalar> 0();
    }
    walls
    {
        type            zeroGradient;
    }
    frontAndBack
    {
        type            empty;
    }
    procBoundary2to1
    {
        type            processor;
        value           nonuniform List<scalar> 
84
(
1.17631
2.25539
3.07686
3.88894
4.71226
5.72475
6.57258
7.59429
8.55558
9.58718
10.6192
11.683
12.7596
13.8536
14.9583
16.0712
17.1876
18.3031
19.4125
20.5108
21.5922
22.6509
23.681
24.6762
25.6302
26.5368
27.39
28.184
28.913
29.572
30.1564
30.6623
31.0862
31.4257
31.6791
31.8455
31.925
31.9187
31.9187
33.0471
32.835
32.5382
32.1623
31.7133
31.1976
30.6219
29.993
29.3176
28.6022
27.8534
27.0773
26.2796
25.4659
25.4659
25.0471
24.1741
23.3027
22.4363
21.5782
20.7312
19.8975
19.0792
18.2781
18.2781
17.6158
16.839
16.0845
15.3532
14.6453
13.9621
13.4086
12.9484
12.4759
11.9929
11.9929
11.528
11.0291
10.5198
10.0301
9.53637
8.89805
9.1606
6.22717
12.4214
)
;
    }
    procBoundary2to3
    {
        type            processor;
        value           nonuniform List<scalar> 
88
(
5.06311
12.9784
7.62241
5.06311
8.94879
8.4943
7.62241
8.41058
9.30004
8.98825
8.4943
8.70168
10.3952
10.1155
9.86845
9.6092
9.30004
9.33775
11.4105
11.156
10.8894
10.6123
10.3952
10.3259
11.9841
11.8769
11.7523
11.6103
11.4512
11.2755
11.4105
11.0837
10.9921
11.0734
11.1462
11.2096
11.2626
11.3043
11.3339
11.3505
11.3533
11.3416
11.3146
11.9841
11.2718
6.42922
6.4677
6.50859
6.5512
6.59595
6.6428
6.69188
6.74323
6.79697
6.85316
6.91187
6.97317
7.03715
7.10388
7.17341
7.24579
7.32108
7.39933
7.48055
7.56477
7.65199
7.74221
7.83539
7.93148
8.03041
8.13208
8.23637
8.34312
8.45214
8.56321
8.67604
8.79034
8.90576
9.02191
9.13833
9.25453
9.36998
9.48407
9.59617
9.7056
9.8116
10.9921
9.91338
)
;
    }
    procBoundary2to6
    {
        type            processor;
        value           nonuniform List<scalar> 
13
(
106.942
47.0067
29.2682
27.8535
23.6049
18.9557
15.8235
13.6194
11.8047
10.2888
9.04629
8.01442
7.13952
)
;
    }
}


// ************************************************************************* //
