/*--------------------------------*- C++ -*----------------------------------*\
| =========                 |                                                 |
| \\      /  F ield         | OpenFOAM: The Open Source CFD Toolbox           |
|  \\    /   O peration     | Version:  2506                                  |
|   \\  /    A nd           | Website:  www.openfoam.com                      |
|    \\/     M anipulation  |                                                 |
\*---------------------------------------------------------------------------*/
FoamFile
{
    version     2.0;
    format      ascii;
    arch        "LSB;label=32;scalar=64";
    class       volScalarField;
    location    "300";
    object      turbulenceProperties:epsilon;
}
// * * * * * * * * * * * * * * * * * * * * * * * * * * * * * * * * * * * * * //

dimensions      [0 2 -3 0 0 0 0];

internalField   nonuniform List<scalar> 
1340
(
978.8
912.755
836.824
619.278
1.34779
1.59517
2.20728
4.09731
0.110603
0.176944
0.222034
0.549745
0.000864192
0.00493124
0.0189465
0.139764
3.45337e-05
7.74312e-05
0.000256343
0.0150688
2.29323e-06
9.61883e-06
5.13621e-05
0.00112365
3.19254e-08
6.60326e-10
8.82118e-13
2.66359e-05
2.62498e-07
1.39417e-07
1.12886e-09
1.91267e-07
4.56452e-07
5.24105e-07
5.97389e-07
3.95414e-10
3.23613e-07
3.14129e-07
8.75462e-07
1.35779e-07
3.31652e-07
3.28887e-07
6.58922e-07
1.03264e-06
2.85419e-07
2.91829e-07
4.81987e-07
1.2305e-06
2.6409e-07
2.71657e-07
4.08738e-07
1.03879e-06
2.35501e-07
2.39735e-07
3.50334e-07
8.40828e-07
2.11182e-07
2.12705e-07
2.99844e-07
6.84134e-07
1.86576e-07
1.85861e-07
2.53535e-07
5.55996e-07
1.63583e-07
1.61086e-07
2.1287e-07
4.49105e-07
1.41753e-07
1.37865e-07
1.77255e-07
3.60173e-07
1.21432e-07
1.16515e-07
1.46249e-07
2.86689e-07
1.02682e-07
9.70646e-08
1.19502e-07
2.26713e-07
8.56072e-08
7.95847e-08
9.65329e-08
1.77993e-07
7.0256e-08
6.41126e-08
7.70072e-08
1.38765e-07
5.66589e-08
5.06116e-08
6.05705e-08
1.07465e-07
4.48127e-08
3.90449e-08
4.68676e-08
8.26294e-08
3.46701e-08
2.93139e-08
3.56189e-08
6.31274e-08
2.61618e-08
2.13046e-08
2.65199e-08
4.79205e-08
1.91879e-08
1.48772e-08
1.92998e-08
3.61848e-08
1.36248e-08
9.86931e-09
1.36949e-08
2.72131e-08
9.32948e-09
6.11128e-09
9.46514e-09
2.04351e-08
6.14846e-09
3.42712e-09
6.38352e-09
1.5385e-08
3.91973e-09
1.6383e-09
4.24262e-09
1.16803e-08
2.48185e-09
5.77757e-10
2.85256e-09
9.01555e-09
1.67803e-09
8.64247e-11
2.04579e-09
7.14351e-09
1.36096e-09
2.03788e-11
1.67616e-09
5.86649e-09
1.39721e-09
2.52836e-10
1.61776e-09
5.02627e-09
1.66983e-09
6.75648e-10
1.76608e-09
4.49873e-09
2.08035e-09
1.19951e-09
2.03653e-09
4.18649e-09
2.54882e-09
1.75411e-09
2.36275e-09
4.01438e-09
4.81935e-09
3.0139e-09
2.28627e-09
2.69501e-09
3.92578e-09
4.96628e-09
3.43148e-09
2.75862e-09
2.99781e-09
3.87877e-09
5.07783e-09
3.77254e-09
3.14778e-09
3.2481e-09
3.84388e-09
5.13115e-09
4.02132e-09
3.44139e-09
3.43248e-09
3.80094e-09
5.11505e-09
4.17261e-09
3.63668e-09
3.54612e-09
3.73805e-09
5.02777e-09
4.22905e-09
3.73728e-09
3.58966e-09
3.64891e-09
4.87428e-09
4.19925e-09
3.75197e-09
3.56796e-09
3.53135e-09
4.66376e-09
4.09531e-09
3.69271e-09
3.48954e-09
3.3872e-09
4.40778e-09
3.93105e-09
3.57241e-09
3.36347e-09
3.21967e-09
4.11888e-09
3.72089e-09
3.40476e-09
3.19989e-09
3.03325e-09
3.80874e-09
3.47814e-09
3.20252e-09
3.00876e-09
2.83341e-09
3.48803e-09
3.21474e-09
2.97683e-09
2.79869e-09
2.62479e-09
3.16539e-09
2.94081e-09
2.73753e-09
2.57748e-09
2.41204e-09
2.84751e-09
2.66401e-09
2.49217e-09
2.35128e-09
2.19885e-09
2.6955e-09
2.5395e-09
2.39057e-09
2.24683e-09
2.12506e-09
1.98824e-09
2.36852e-09
2.24514e-09
2.12517e-09
2.00624e-09
1.90288e-09
1.78281e-09
2.06474e-09
1.96774e-09
1.87187e-09
1.77458e-09
1.68832e-09
1.58492e-09
1.78611e-09
1.71035e-09
1.6344e-09
1.55566e-09
1.48483e-09
1.39726e-09
1.53461e-09
1.47581e-09
1.41612e-09
1.35302e-09
1.29571e-09
1.22249e-09
1.31155e-09
1.26616e-09
1.21955e-09
1.16937e-09
1.12354e-09
1.06293e-09
1.11666e-09
1.08173e-09
1.0455e-09
1.00584e-09
9.69539e-10
9.19823e-10
9.47605e-10
9.20785e-10
8.92725e-10
8.6156e-10
8.33064e-10
7.92685e-10
8.00545e-10
7.80002e-10
7.58387e-10
7.34092e-10
7.11967e-10
6.79623e-10
6.86142e-10
6.71325e-10
6.5566e-10
6.39146e-10
6.2045e-10
6.03583e-10
5.78136e-10
5.68336e-10
5.57099e-10
5.4526e-10
5.32827e-10
5.18703e-10
5.06188e-10
4.86577e-10
4.65052e-10
4.56576e-10
4.47735e-10
4.38532e-10
4.28075e-10
4.19118e-10
4.04311e-10
3.76193e-10
3.69851e-10
3.63334e-10
3.56638e-10
3.4905e-10
3.42922e-10
3.3192e-10
3.0145e-10
2.96724e-10
2.91956e-10
2.87159e-10
2.81738e-10
2.77711e-10
2.69563e-10
2.40901e-10
2.37347e-10
2.33852e-10
2.30469e-10
2.26709e-10
2.24259e-10
2.18459e-10
1.95775e-10
1.92906e-10
1.90163e-10
1.87611e-10
1.8484e-10
1.83327e-10
1.79247e-10
1.62862e-10
1.60374e-10
1.58045e-10
1.55916e-10
1.53643e-10
1.52556e-10
1.49411e-10
1.3584e-10
1.33616e-10
1.31551e-10
1.29692e-10
1.27756e-10
1.26901e-10
1.2443e-10
1.12099e-10
1.10137e-10
1.08315e-10
1.06709e-10
1.05068e-10
1.04381e-10
1.02437e-10
9.27738e-11
9.06978e-11
8.88369e-11
8.71701e-11
8.57688e-11
8.44563e-11
8.41178e-11
8.3336e-11
7.33349e-11
7.11299e-11
6.90919e-11
6.72373e-11
6.56181e-11
6.41129e-11
6.31234e-11
6.15358e-11
5.20947e-11
5.01307e-11
4.84653e-11
4.71034e-11
4.612e-11
4.55237e-11
4.63182e-11
4.82052e-11
2.8598e-11
2.58233e-11
2.34129e-11
2.13859e-11
1.97211e-11
1.83759e-11
1.73233e-11
1.5815e-11
1.83088e-11
1.76511e-11
1.7466e-11
1.77906e-11
1.88717e-11
2.08978e-11
2.61449e-11
3.49382e-11
2.27898e-11
2.25535e-11
2.22624e-11
2.18556e-11
2.15396e-11
2.28303e-11
3.16403e-11
4.27621e-11
1.65411e-10
1.77964e-10
1.89262e-10
2.00005e-10
2.12792e-10
2.32405e-10
2.84435e-10
3.31705e-10
5.83569e-10
5.87212e-10
5.89834e-10
5.91612e-10
5.9284e-10
5.96846e-10
6.21192e-10
5.64099e-10
2.12973e-09
2.13119e-09
2.12888e-09
2.12443e-09
2.11492e-09
2.11006e-09
2.07584e-09
1.78672e-09
38.7288
4.31401
0.46427
0.0823093
0.0085273
0.00037055
2.69553e-05
2.53678e-07
7.35388e-10
4.15707e-07
1.36962e-06
1.37502e-06
1.13357e-06
9.26005e-07
7.61846e-07
6.25926e-07
5.11164e-07
4.14885e-07
3.34891e-07
2.6877e-07
2.14567e-07
1.70438e-07
1.34761e-07
1.06124e-07
8.32762e-08
6.51816e-08
5.09454e-08
3.9817e-08
3.11765e-08
2.45124e-08
1.94073e-08
1.55227e-08
1.25842e-08
1.03754e-08
8.72307e-09
7.49014e-09
6.56971e-09
5.87815e-09
5.35077e-09
4.93857e-09
4.6044e-09
4.32074e-09
4.06839e-09
3.83366e-09
3.60771e-09
3.3856e-09
3.16484e-09
2.94459e-09
2.72576e-09
2.50913e-09
2.2963e-09
2.08843e-09
1.8866e-09
1.692e-09
1.50586e-09
1.33e-09
1.16643e-09
1.01704e-09
8.82773e-10
7.63126e-10
6.56352e-10
5.60151e-10
4.73072e-10
3.94581e-10
3.25296e-10
2.65286e-10
2.16041e-10
1.78015e-10
1.48935e-10
1.24427e-10
1.0265e-10
8.40827e-11
6.16757e-11
5.04021e-11
1.52296e-11
4.15489e-11
3.54002e-11
3.19901e-10
4.40311e-10
1.40874e-09
11.8507
2.14885
0.155238
0.0094063
0.000480637
2.39666e-05
2.9615e-06
3.13389e-12
2.24451e-09
3.05376e-07
4.69099e-07
4.43341e-07
3.91683e-07
3.482e-07
3.10492e-07
2.75458e-07
2.42561e-07
2.11819e-07
1.83633e-07
1.57974e-07
1.34915e-07
1.14393e-07
9.63213e-08
8.06453e-08
6.71577e-08
5.56716e-08
4.60003e-08
3.79365e-08
3.12653e-08
2.57949e-08
2.13417e-08
1.77405e-08
1.48439e-08
1.2524e-08
1.06731e-08
9.196e-09
8.0172e-09
7.07228e-09
6.30865e-09
5.68469e-09
5.16667e-09
4.72759e-09
4.34776e-09
4.011e-09
3.70601e-09
3.42464e-09
3.16117e-09
2.91194e-09
2.67471e-09
2.44796e-09
2.23109e-09
2.02355e-09
1.82501e-09
1.63558e-09
1.45578e-09
1.28674e-09
1.12999e-09
9.87061e-10
8.58536e-10
7.43783e-10
6.41067e-10
5.48235e-10
4.63979e-10
3.87911e-10
3.20686e-10
2.62303e-10
2.14209e-10
1.76797e-10
1.48205e-10
1.24133e-10
1.0257e-10
8.42e-11
6.17458e-11
5.09845e-11
1.49476e-11
4.57126e-11
2.71356e-11
3.22275e-10
4.32346e-10
1.47405e-09
4.68118
0.918471
0.0459484
0.000792771
1.77985e-05
2.85871e-06
4.09632e-08
2.15694e-13
3.02268e-08
1.74408e-07
1.69825e-07
1.52923e-07
1.36646e-07
1.23866e-07
1.1269e-07
1.0235e-07
9.28122e-08
8.39673e-08
7.57471e-08
6.82283e-08
6.12851e-08
5.49006e-08
4.90064e-08
4.36248e-08
3.87079e-08
3.42145e-08
3.01422e-08
2.64775e-08
2.31914e-08
2.02716e-08
1.76958e-08
1.54409e-08
1.34825e-08
1.17932e-08
1.03458e-08
9.11029e-09
8.0603e-09
7.16856e-09
6.4105e-09
5.76363e-09
5.20865e-09
4.72789e-09
4.30749e-09
3.93513e-09
3.6013e-09
3.29866e-09
3.0211e-09
2.76453e-09
2.52558e-09
2.30178e-09
2.09141e-09
1.89295e-09
1.70528e-09
1.52774e-09
1.36032e-09
1.20366e-09
1.05879e-09
9.26877e-10
8.08215e-10
7.02052e-10
6.06687e-10
5.20171e-10
4.41369e-10
3.70035e-10
3.06873e-10
2.51856e-10
2.06321e-10
1.70703e-10
1.43548e-10
1.20757e-10
1.00113e-10
8.24808e-11
6.07042e-11
5.03716e-11
1.5336e-11
4.75084e-11
2.36522e-11
3.17024e-10
4.15179e-10
1.48137e-09
1.90133
0.290293
0.00654577
1.15274e-05
2.3409e-06
1.00165e-13
3.23785e-12
2.07414e-09
5.47417e-08
8.48667e-08
7.36927e-08
6.8336e-08
6.32217e-08
5.90336e-08
5.49573e-08
5.09646e-08
4.7173e-08
4.3558e-08
4.01324e-08
3.69528e-08
3.39626e-08
3.11945e-08
2.86168e-08
2.62179e-08
2.39962e-08
2.19315e-08
2.00098e-08
1.82268e-08
1.65712e-08
1.50381e-08
1.36217e-08
1.23169e-08
1.11226e-08
1.0033e-08
9.04467e-09
8.15371e-09
7.35369e-09
6.63843e-09
6.00113e-09
5.43359e-09
4.92872e-09
4.47885e-09
4.07628e-09
3.71482e-09
3.38851e-09
3.09227e-09
2.82157e-09
2.57313e-09
2.34382e-09
2.13116e-09
1.93321e-09
1.74801e-09
1.57421e-09
1.41079e-09
1.25735e-09
1.11425e-09
9.82201e-10
8.62008e-10
7.538e-10
6.56757e-10
5.69249e-10
4.89529e-10
4.16645e-10
3.50445e-10
2.91688e-10
2.40339e-10
1.97662e-10
1.64162e-10
1.38647e-10
1.17227e-10
9.76045e-11
8.08122e-11
5.98313e-11
4.99438e-11
1.62606e-11
4.88291e-11
2.21653e-11
3.1069e-10
3.94292e-10
1.45976e-09
0.602317
0.0486112
0.000128257
5.64676e-06
0
3.48618e-14
2.39932e-11
1.6247e-08
4.72353e-08
4.5041e-08
4.04607e-08
3.9119e-08
3.76522e-08
3.63878e-08
3.4978e-08
3.34991e-08
3.19607e-08
3.03483e-08
2.87083e-08
2.70466e-08
2.53689e-08
2.37055e-08
2.20821e-08
2.04913e-08
1.89594e-08
1.75054e-08
1.61197e-08
1.48166e-08
1.35977e-08
1.24611e-08
1.1406e-08
1.04281e-08
9.52713e-09
8.69608e-09
7.93194e-09
7.23259e-09
6.59169e-09
6.00692e-09
5.47386e-09
4.98835e-09
4.54748e-09
4.1467e-09
3.78185e-09
3.45012e-09
3.14765e-09
2.87131e-09
2.61809e-09
2.3856e-09
2.17142e-09
1.97342e-09
1.7898e-09
1.61865e-09
1.45862e-09
1.30863e-09
1.16811e-09
1.03725e-09
9.16624e-10
8.06769e-10
7.07692e-10
6.18559e-10
5.3785e-10
4.6401e-10
3.96256e-10
3.34512e-10
2.79579e-10
2.31397e-10
1.91164e-10
1.59458e-10
1.35308e-10
1.14978e-10
9.6159e-11
8.00278e-11
5.96676e-11
5.02007e-11
1.75705e-11
5.09716e-11
2.11176e-11
3.10966e-10
3.83563e-10
1.45703e-09
0.10956
0.00241269
1.21223e-06
2.93952e-07
5.65299e-17
4.12785e-14
5.09707e-09
2.77891e-08
3.21282e-08
2.7756e-08
2.64405e-08
2.59743e-08
2.5336e-08
2.47071e-08
2.39757e-08
2.321e-08
2.23803e-08
2.15008e-08
2.06e-08
1.96672e-08
1.87152e-08
1.77492e-08
1.67857e-08
1.58178e-08
1.486e-08
1.39226e-08
1.29995e-08
1.21064e-08
1.12451e-08
1.04191e-08
9.63335e-09
8.88859e-09
8.18938e-09
7.53383e-09
6.92239e-09
6.35572e-09
5.83005e-09
5.34534e-09
4.89821e-09
4.48645e-09
4.10851e-09
3.76079e-09
3.44109e-09
3.14773e-09
2.87781e-09
2.62962e-09
2.40103e-09
2.19033e-09
1.99581e-09
1.81577e-09
1.64875e-09
1.49307e-09
1.34759e-09
1.21128e-09
1.0836e-09
9.64708e-10
8.55048e-10
7.55034e-10
6.64582e-10
5.82888e-10
5.08573e-10
4.40277e-10
3.77362e-10
3.19853e-10
2.68553e-10
2.23371e-10
1.85426e-10
1.55393e-10
1.32524e-10
1.13194e-10
9.51226e-11
7.95982e-11
5.98159e-11
5.07988e-11
1.91233e-11
5.36353e-11
1.99128e-11
3.13748e-10
0.00572441
1.43925e-06
2.61012e-07
7.01558e-10
2.79347e-12
1.60983e-09
1.48639e-08
1.95464e-08
1.7386e-08
1.60306e-08
1.60143e-08
1.59463e-08
1.57904e-08
1.56019e-08
1.53476e-08
1.50618e-08
1.47205e-08
1.43328e-08
1.39152e-08
1.34617e-08
1.29822e-08
1.24782e-08
1.19533e-08
1.1417e-08
1.08754e-08
1.0327e-08
9.77708e-09
9.23504e-09
8.69847e-09
8.17247e-09
7.66007e-09
7.16206e-09
6.68241e-09
6.22183e-09
5.78158e-09
5.36331e-09
4.9669e-09
4.59376e-09
4.24259e-09
3.91372e-09
3.60684e-09
3.32012e-09
3.05346e-09
2.80555e-09
2.57496e-09
2.36114e-09
2.16257e-09
1.97835e-09
1.80732e-09
1.64831e-09
1.50028e-09
1.36194e-09
1.23235e-09
1.11065e-09
9.96513e-10
8.90035e-10
7.91626e-10
7.01652e-10
6.19965e-10
5.45837e-10
4.7805e-10
4.15445e-10
3.57521e-10
3.04395e-10
2.56872e-10
2.14808e-10
1.79253e-10
1.50998e-10
1.29502e-10
1.11235e-10
9.39859e-11
7.9126e-11
5.99947e-11
5.15069e-11
2.08783e-11
5.64048e-11
5.34476e-06
3.39947e-06
7.28856e-16
5.89348e-13
4.19375e-10
8.34075e-09
1.19857e-08
1.08408e-08
9.89187e-09
9.82834e-09
9.98415e-09
1.0019e-08
1.00222e-08
9.99409e-09
9.9279e-09
9.83372e-09
9.70399e-09
9.54351e-09
9.35784e-09
9.1453e-09
8.91066e-09
8.65621e-09
8.38157e-09
8.09382e-09
7.79652e-09
7.48704e-09
7.17113e-09
6.85279e-09
6.53095e-09
6.20956e-09
5.89024e-09
5.57349e-09
5.26239e-09
4.95756e-09
4.65985e-09
4.37094e-09
4.09127e-09
3.82215e-09
3.56364e-09
3.31649e-09
3.08119e-09
2.85747e-09
2.64582e-09
2.44586e-09
2.25732e-09
2.08034e-09
1.91409e-09
1.7584e-09
1.61264e-09
1.47616e-09
1.3483e-09
1.22819e-09
1.11515e-09
1.00856e-09
9.08237e-10
8.14351e-10
7.27273e-10
6.47351e-10
5.7444e-10
5.07904e-10
4.4669e-10
3.89845e-10
3.37009e-10
2.88356e-10
2.44701e-10
2.05838e-10
1.72762e-10
1.46384e-10
1.26327e-10
1.09167e-10
9.28017e-11
7.86523e-11
6.02493e-11
5.23534e-11
3.84013e-06
0
3.08509e-15
2.06126e-12
5.4221e-09
7.84784e-09
7.07958e-09
6.44227e-09
6.3974e-09
6.57218e-09
6.69438e-09
6.76557e-09
6.81955e-09
6.84713e-09
6.84998e-09
6.82828e-09
6.7815e-09
6.71354e-09
6.62453e-09
6.51516e-09
6.38758e-09
6.24481e-09
6.08871e-09
5.91875e-09
5.73999e-09
5.55303e-09
5.35858e-09
5.15917e-09
4.9558e-09
4.75027e-09
4.54281e-09
4.33469e-09
4.12824e-09
3.9224e-09
3.71894e-09
3.51904e-09
3.32248e-09
3.13051e-09
2.94347e-09
2.76173e-09
2.58591e-09
2.41639e-09
2.25328e-09
2.09699e-09
1.94763e-09
1.8055e-09
1.67034e-09
1.54239e-09
1.42141e-09
1.30712e-09
1.19921e-09
1.09707e-09
1.00034e-09
9.08625e-10
8.21836e-10
7.40226e-10
6.64178e-10
5.93998e-10
5.296e-10
4.70447e-10
4.15654e-10
3.64464e-10
3.1665e-10
2.72427e-10
2.32607e-10
1.96925e-10
1.66332e-10
1.41858e-10
1.23241e-10
1.07184e-10
9.17233e-11
0
0
5.47018e-12
2.65239e-09
5.60975e-09
4.56877e-09
4.24086e-09
4.22031e-09
4.37364e-09
4.51317e-09
4.60885e-09
4.68894e-09
4.75481e-09
4.8014e-09
4.83095e-09
4.84443e-09
4.83935e-09
4.81751e-09
4.78032e-09
4.72789e-09
4.66158e-09
4.58272e-09
4.49317e-09
4.39281e-09
4.28448e-09
4.16919e-09
4.04684e-09
3.91974e-09
3.78859e-09
3.6545e-09
3.51717e-09
3.3783e-09
3.23917e-09
3.0985e-09
2.9583e-09
2.8189e-09
2.68027e-09
2.54341e-09
2.40838e-09
2.27569e-09
2.14577e-09
2.01885e-09
1.89533e-09
1.77546e-09
1.65946e-09
1.54777e-09
1.44035e-09
1.33753e-09
1.23933e-09
1.14566e-09
1.05643e-09
9.7129e-10
8.90052e-10
8.12454e-10
7.38576e-10
6.6866e-10
6.0311e-10
5.42227e-10
4.85956e-10
4.33881e-10
3.85285e-10
3.39589e-10
2.9667e-10
2.56789e-10
2.20729e-10
1.88173e-10
0
1.55373e-12
1.17202e-09
3.70396e-09
3.06551e-09
2.7515e-09
2.81648e-09
2.92983e-09
3.05351e-09
3.14597e-09
3.22462e-09
3.29507e-09
3.35361e-09
3.40045e-09
3.4346e-09
3.45775e-09
3.4685e-09
3.46657e-09
3.45427e-09
3.43128e-09
3.3986e-09
3.35664e-09
3.30661e-09
3.2491e-09
3.18544e-09
3.11602e-09
3.04107e-09
2.96228e-09
2.87971e-09
2.79408e-09
2.70549e-09
2.6148e-09
2.52267e-09
2.42871e-09
2.33396e-09
2.23855e-09
2.14263e-09
2.04686e-09
1.95116e-09
1.85602e-09
1.76178e-09
1.66855e-09
1.57674e-09
1.48652e-09
1.39821e-09
1.31219e-09
1.22851e-09
1.14757e-09
1.06946e-09
9.94234e-10
9.21916e-10
8.52304e-10
7.85326e-10
7.20838e-10
6.58979e-10
6.00001e-10
5.44298e-10
4.92163e-10
4.43583e-10
3.98244e-10
3.55592e-10
1.29725e-12
6.21198e-10
2.5531e-09
2.06593e-09
1.83293e-09
1.89978e-09
2.00519e-09
2.09715e-09
2.17735e-09
2.24486e-09
2.30736e-09
2.36317e-09
2.41057e-09
2.45033e-09
2.4806e-09
2.50321e-09
2.51735e-09
2.52243e-09
2.52045e-09
2.5108e-09
2.49441e-09
2.47138e-09
2.44294e-09
2.40916e-09
2.37089e-09
2.32863e-09
2.28242e-09
2.23335e-09
2.18142e-09
2.12703e-09
2.07031e-09
2.01182e-09
1.95172e-09
1.88988e-09
1.82698e-09
1.76294e-09
1.6979e-09
1.63227e-09
1.56588e-09
1.49912e-09
1.43225e-09
1.36525e-09
1.29841e-09
1.23197e-09
1.16614e-09
1.10121e-09
1.03737e-09
9.7492e-10
9.14033e-10
8.54806e-10
7.97346e-10
7.41517e-10
6.87318e-10
6.34691e-10
6.66046e-10
1.36071e-09
1.48659e-09
1.23467e-09
1.31501e-09
1.39785e-09
1.46882e-09
1.52981e-09
1.58529e-09
1.63579e-09
1.68365e-09
1.72568e-09
1.76183e-09
1.79284e-09
1.81745e-09
1.83655e-09
1.84956e-09
1.85664e-09
1.85856e-09
1.85524e-09
1.84717e-09
1.83473e-09
1.81809e-09
1.79797e-09
1.7748e-09
1.74846e-09
1.71966e-09
1.68868e-09
1.65565e-09
1.6208e-09
1.58423e-09
1.54639e-09
1.50707e-09
1.46647e-09
1.42494e-09
1.38217e-09
1.33853e-09
1.294e-09
1.24853e-09
1.20244e-09
1.15567e-09
1.1083e-09
)
;

boundaryField
{
    inlet
    {
        type            calculated;
        value           nonuniform List<scalar> 
13
(
2.2212e-08
2.28105e-08
2.33434e-08
2.38286e-08
2.43037e-08
2.47996e-08
2.54505e-08
2.56421e-08
2.51631e-08
2.48804e-08
2.45128e-08
2.41976e-08
2.39418e-08
)
;
    }
    outlet
    {
        type            calculated;
        value           nonuniform List<scalar> 0();
    }
    walls
    {
        type            calculated;
        value           uniform 0;
    }
    frontAndBack
    {
        type            empty;
    }
    procBoundary2to1
    {
        type            processor;
        value           nonuniform List<scalar> 
84
(
1025.26
1.13435
0.0598206
6.8038e-05
1.0772e-05
1.54537e-07
4.25076e-07
3.75288e-07
4.4768e-07
3.40702e-07
3.4021e-07
3.03136e-07
2.8232e-07
2.55705e-07
2.31939e-07
2.08041e-07
1.85283e-07
1.63421e-07
1.42728e-07
1.23336e-07
1.05358e-07
8.88925e-08
7.40196e-08
6.07856e-08
4.91942e-08
3.92189e-08
3.08018e-08
2.38541e-08
1.82583e-08
1.38809e-08
1.05714e-08
8.17128e-09
6.52343e-09
5.47519e-09
4.88525e-09
4.62541e-09
4.58567e-09
4.67451e-09
4.67451e-09
7.57771e-09
7.26012e-09
6.97995e-09
6.70385e-09
6.41155e-09
6.09332e-09
5.74714e-09
5.37635e-09
4.9877e-09
4.58915e-09
4.18877e-09
3.79404e-09
3.41087e-09
3.04369e-09
3.04369e-09
2.85579e-09
2.49355e-09
2.16176e-09
1.861e-09
1.5921e-09
1.35549e-09
1.15015e-09
9.73119e-10
8.19991e-10
8.19991e-10
7.00342e-10
5.79177e-10
4.73321e-10
3.82488e-10
3.0625e-10
2.44589e-10
1.98801e-10
1.65529e-10
1.38243e-10
1.14237e-10
1.14237e-10
9.50343e-11
7.56776e-11
5.43554e-11
3.16978e-11
1.94349e-11
2.3115e-11
1.51687e-10
5.7826e-10
2.12275e-09
)
;
    }
    procBoundary2to3
    {
        type            processor;
        value           nonuniform List<scalar> 
88
(
3.78095e-10
1.46253e-09
1.88396e-11
3.78095e-10
3.16405e-10
2.28807e-11
1.88396e-11
5.91758e-11
7.82909e-11
6.06718e-11
2.28807e-11
5.34002e-11
1.60042e-10
1.37469e-10
1.20277e-10
1.05307e-10
7.82909e-11
9.07631e-11
3.15199e-10
2.77037e-10
2.41391e-10
2.0901e-10
1.60042e-10
1.79521e-10
5.83764e-10
5.34801e-10
4.8817e-10
4.44136e-10
4.02726e-10
3.63724e-10
3.15199e-10
3.26714e-10
1.06049e-09
1.01245e-09
9.64259e-10
9.1614e-10
8.68371e-10
8.21102e-10
7.74536e-10
7.28815e-10
6.84026e-10
6.4012e-10
5.97084e-10
5.83764e-10
5.54902e-10
1.0857e-09
8.71846e-10
9.16201e-10
9.14983e-10
9.99089e-10
1.04562e-09
1.09237e-09
1.13391e-09
1.17392e-09
1.21133e-09
1.24578e-09
1.2762e-09
1.30261e-09
1.32582e-09
1.34442e-09
1.35896e-09
1.36952e-09
1.37622e-09
1.37928e-09
1.37877e-09
1.37493e-09
1.36816e-09
1.3587e-09
1.34675e-09
1.33252e-09
1.31636e-09
1.29852e-09
1.27897e-09
1.2581e-09
1.23588e-09
1.2125e-09
1.18806e-09
1.16257e-09
1.13617e-09
1.10887e-09
1.08063e-09
1.05165e-09
1.02173e-09
9.90994e-10
9.59554e-10
9.27296e-10
1.06049e-09
8.94321e-10
)
;
    }
    procBoundary2to6
    {
        type            processor;
        value           nonuniform List<scalar> 
13
(
59.5356
25.2623
10.5388
4.87301
2.10787
0.695728
0.125759
0.00581985
4.00426e-06
1.83992e-06
0
0
1.97325e-12
)
;
    }
}


// ************************************************************************* //
