/*--------------------------------*- C++ -*----------------------------------*\
| =========                 |                                                 |
| \\      /  F ield         | OpenFOAM: The Open Source CFD Toolbox           |
|  \\    /   O peration     | Version:  2506                                  |
|   \\  /    A nd           | Website:  www.openfoam.com                      |
|    \\/     M anipulation  |                                                 |
\*---------------------------------------------------------------------------*/
FoamFile
{
    version     2.0;
    format      ascii;
    arch        "LSB;label=32;scalar=64";
    class       volScalarField;
    location    "300";
    object      turbulenceProperties:k;
}
// * * * * * * * * * * * * * * * * * * * * * * * * * * * * * * * * * * * * * //

dimensions      [0 2 -2 0 0 0 0];

internalField   nonuniform List<scalar> 
1340
(
48.1463
46.0232
43.5504
35.6701
1.44787
1.59451
1.92181
2.67276
0.311966
0.429875
0.514595
0.878413
0.0115054
0.037891
0.0959057
0.349043
0.00049058
0.00133966
0.00315312
0.0677459
6.4246e-05
0.000229896
0.000721639
0.00771995
7.12698e-06
1.25944e-06
6.81045e-08
0.000235006
1.85578e-05
1.3601e-05
1.58493e-06
1.6844e-05
2.44981e-05
2.62713e-05
2.79993e-05
1.0569e-06
2.06263e-05
2.03115e-05
3.41488e-05
1.42456e-05
2.08805e-05
2.07843e-05
2.949e-05
3.68203e-05
1.93692e-05
1.95837e-05
2.51736e-05
4.02199e-05
1.8631e-05
1.88964e-05
2.31766e-05
3.69597e-05
1.75936e-05
1.77514e-05
2.14579e-05
3.32462e-05
1.66605e-05
1.67205e-05
1.98521e-05
2.9987e-05
1.56599e-05
1.56298e-05
1.82549e-05
2.70331e-05
1.46632e-05
1.45509e-05
1.6727e-05
2.4296e-05
1.36498e-05
1.34613e-05
1.52637e-05
2.17578e-05
1.26335e-05
1.23752e-05
1.38646e-05
1.94118e-05
1.16173e-05
1.12951e-05
1.25328e-05
1.72623e-05
1.06075e-05
1.02276e-05
1.12641e-05
1.52954e-05
9.6095e-06
9.17975e-06
1.00606e-05
1.35051e-05
8.62965e-06
8.15613e-06
8.92257e-06
1.18849e-05
7.67467e-06
7.16377e-06
7.84867e-06
1.04214e-05
6.7505e-06
6.2072e-06
6.84226e-06
9.10895e-06
5.86398e-06
5.29171e-06
5.90398e-06
7.93634e-06
5.02196e-06
4.422e-06
5.03657e-06
6.8964e-06
4.23178e-06
3.60166e-06
4.24266e-06
5.98065e-06
3.50177e-06
2.83416e-06
3.52714e-06
5.18259e-06
2.84277e-06
2.12238e-06
2.8966e-06
4.49684e-06
2.26979e-06
1.46742e-06
2.36143e-06
3.91819e-06
1.80612e-06
8.71426e-07
1.93631e-06
3.44235e-06
1.4851e-06
3.37037e-07
1.63979e-06
3.06418e-06
1.33746e-06
1.63662e-07
1.48428e-06
2.77682e-06
1.35515e-06
5.7647e-07
1.45819e-06
2.57028e-06
1.48147e-06
9.42361e-07
1.52357e-06
2.43166e-06
1.65358e-06
1.25562e-06
1.63607e-06
2.34575e-06
1.83032e-06
1.5184e-06
1.76224e-06
2.29703e-06
2.51681e-06
1.99031e-06
1.73348e-06
1.88207e-06
2.27154e-06
2.55488e-06
2.12371e-06
1.90415e-06
1.98499e-06
2.25789e-06
2.58341e-06
2.22675e-06
2.03403e-06
2.06619e-06
2.24771e-06
2.59694e-06
2.299e-06
2.12677e-06
2.12402e-06
2.23512e-06
2.59286e-06
2.34184e-06
2.18628e-06
2.15889e-06
2.21655e-06
2.57064e-06
2.35762e-06
2.21631e-06
2.1721e-06
2.18996e-06
2.53109e-06
2.3493e-06
2.22066e-06
2.16552e-06
2.15439e-06
2.47582e-06
2.32004e-06
2.20305e-06
2.14159e-06
2.10995e-06
2.40691e-06
2.27303e-06
2.16687e-06
2.10255e-06
2.05711e-06
2.3267e-06
2.21143e-06
2.11541e-06
2.05078e-06
1.99666e-06
2.23738e-06
2.13808e-06
2.05162e-06
1.98858e-06
1.92977e-06
2.14111e-06
2.05552e-06
1.978e-06
1.91791e-06
1.85736e-06
2.03968e-06
1.96599e-06
1.89683e-06
1.84055e-06
1.7805e-06
1.93455e-06
1.87118e-06
1.80983e-06
1.75793e-06
1.69999e-06
1.8822e-06
1.82693e-06
1.77255e-06
1.71843e-06
1.67122e-06
1.61652e-06
1.76435e-06
1.71778e-06
1.67126e-06
1.62382e-06
1.58144e-06
1.53073e-06
1.64732e-06
1.60816e-06
1.56849e-06
1.52719e-06
1.48961e-06
1.44328e-06
1.53214e-06
1.49929e-06
1.46562e-06
1.42988e-06
1.39695e-06
1.35513e-06
1.42017e-06
1.3927e-06
1.36424e-06
1.33351e-06
1.30496e-06
1.26755e-06
1.3129e-06
1.28999e-06
1.26602e-06
1.2397e-06
1.21517e-06
1.18194e-06
1.21143e-06
1.19234e-06
1.1722e-06
1.14975e-06
1.12881e-06
1.09949e-06
1.11597e-06
1.10007e-06
1.08317e-06
1.0641e-06
1.04635e-06
1.02068e-06
1.02573e-06
1.01248e-06
9.98356e-07
9.82234e-07
9.67319e-07
9.45091e-07
9.49616e-07
9.39307e-07
9.28283e-07
9.16518e-07
9.03014e-07
8.90655e-07
8.71677e-07
8.64261e-07
8.55674e-07
8.46533e-07
8.36827e-07
8.25661e-07
8.1564e-07
7.99684e-07
7.81798e-07
7.74642e-07
7.67105e-07
7.5918e-07
7.50074e-07
7.42186e-07
7.28958e-07
7.03156e-07
6.97204e-07
6.91034e-07
6.84638e-07
6.77316e-07
6.71344e-07
6.60487e-07
6.29443e-07
6.2449e-07
6.19453e-07
6.14343e-07
6.08517e-07
6.04152e-07
5.95224e-07
5.62691e-07
5.58526e-07
5.54399e-07
5.50375e-07
5.45867e-07
5.4291e-07
5.35843e-07
5.07262e-07
5.03532e-07
4.9994e-07
4.96574e-07
4.92893e-07
4.90872e-07
4.85379e-07
4.62663e-07
4.59116e-07
4.5577e-07
4.5269e-07
4.49379e-07
4.47786e-07
4.43147e-07
4.22542e-07
4.1907e-07
4.15819e-07
4.12871e-07
4.09777e-07
4.08404e-07
4.04408e-07
3.83847e-07
3.80473e-07
3.77313e-07
3.74506e-07
3.71616e-07
3.70399e-07
3.66933e-07
3.49197e-07
3.45268e-07
3.41708e-07
3.38487e-07
3.35756e-07
3.33177e-07
3.32509e-07
3.30961e-07
3.10466e-07
3.05763e-07
3.01351e-07
2.9728e-07
2.93679e-07
2.90291e-07
2.88043e-07
2.84397e-07
2.61673e-07
2.56693e-07
2.52393e-07
2.48822e-07
2.46212e-07
2.44615e-07
2.46741e-07
2.51717e-07
1.9388e-07
1.84235e-07
1.75426e-07
1.67661e-07
1.61003e-07
1.55415e-07
1.50899e-07
1.4418e-07
1.55131e-07
1.52319e-07
1.51519e-07
1.52921e-07
1.57499e-07
1.65738e-07
1.85382e-07
2.14301e-07
1.73076e-07
1.72177e-07
1.71062e-07
1.69492e-07
1.68263e-07
1.73231e-07
2.03934e-07
2.37083e-07
4.66277e-07
4.83647e-07
4.98765e-07
5.12725e-07
5.28862e-07
5.52699e-07
6.11446e-07
6.60303e-07
8.75816e-07
8.78549e-07
8.80512e-07
8.81843e-07
8.82762e-07
8.85744e-07
9.03634e-07
8.61112e-07
1.67312e-06
1.67369e-06
1.67279e-06
1.67104e-06
1.6673e-06
1.66539e-06
1.65183e-06
1.53249e-06
10.4376
2.82241
0.748306
0.231686
0.0405185
0.00251117
0.000241697
1.92692e-05
1.39547e-06
2.3929e-05
4.23946e-05
4.25285e-05
3.86085e-05
3.48891e-05
3.16445e-05
2.8683e-05
2.59205e-05
2.33522e-05
2.09804e-05
1.87954e-05
1.67936e-05
1.49674e-05
1.33089e-05
1.18105e-05
1.04621e-05
9.25598e-06
8.183e-06
7.23426e-06
6.40137e-06
5.67613e-06
5.05059e-06
4.51693e-06
4.06697e-06
3.69284e-06
3.38605e-06
3.13764e-06
2.93854e-06
2.77957e-06
2.65195e-06
2.54775e-06
2.46004e-06
2.38306e-06
2.31242e-06
2.24471e-06
2.17755e-06
2.10946e-06
2.03952e-06
1.96727e-06
1.89275e-06
1.81598e-06
1.73726e-06
1.65676e-06
1.57467e-06
1.49124e-06
1.40682e-06
1.32212e-06
1.23815e-06
1.15614e-06
1.07712e-06
1.00147e-06
9.2877e-07
8.58012e-07
7.88508e-07
7.20134e-07
6.53863e-07
5.90483e-07
5.32869e-07
4.83708e-07
4.42441e-07
4.04405e-07
3.67315e-07
3.32441e-07
2.84721e-07
2.57389e-07
1.41487e-07
2.33698e-07
2.15712e-07
6.48449e-07
7.60787e-07
1.36077e-06
6.28213
2.03517
0.385956
0.0604768
0.00616512
0.000381024
6.87899e-05
1.14854e-07
2.12805e-06
2.00502e-05
2.48321e-05
2.41492e-05
2.2693e-05
2.13939e-05
2.02019e-05
1.90281e-05
1.78557e-05
1.66858e-05
1.5536e-05
1.44097e-05
1.33166e-05
1.2262e-05
1.12518e-05
1.02956e-05
9.39526e-06
8.55416e-06
7.77572e-06
7.06137e-06
6.41049e-06
5.82273e-06
5.29631e-06
4.82883e-06
4.41706e-06
4.05724e-06
3.74545e-06
3.47662e-06
3.24616e-06
3.04886e-06
2.87956e-06
2.73344e-06
2.60592e-06
2.49273e-06
2.39049e-06
2.29605e-06
2.20702e-06
2.12159e-06
2.03834e-06
1.95633e-06
1.87495e-06
1.79371e-06
1.71241e-06
1.63082e-06
1.54875e-06
1.46616e-06
1.38322e-06
1.30044e-06
1.21865e-06
1.13897e-06
1.06223e-06
9.88696e-07
9.17892e-07
8.48838e-07
7.80894e-07
7.14021e-07
6.49214e-07
5.87155e-07
5.30606e-07
4.82052e-07
4.41356e-07
4.03927e-07
3.67173e-07
3.32672e-07
2.84883e-07
2.58872e-07
1.40171e-07
2.45128e-07
1.8886e-07
6.50851e-07
7.53877e-07
1.39196e-06
3.96639
1.28456
0.173623
0.0112162
0.00044576
8.27835e-05
7.57128e-06
3.29876e-08
6.53417e-06
1.51383e-05
1.49474e-05
1.41814e-05
1.34027e-05
1.27599e-05
1.21706e-05
1.15988e-05
1.10451e-05
1.05056e-05
9.97813e-06
9.46994e-06
8.97515e-06
8.49477e-06
8.02582e-06
7.57232e-06
7.13283e-06
6.70604e-06
6.29432e-06
5.89928e-06
5.52108e-06
5.16184e-06
4.82275e-06
4.50501e-06
4.20964e-06
3.93709e-06
3.68757e-06
3.46039e-06
3.25487e-06
3.06954e-06
2.90271e-06
2.75236e-06
2.61649e-06
2.49281e-06
2.3794e-06
2.27423e-06
2.17562e-06
2.0822e-06
1.99267e-06
1.90617e-06
1.82193e-06
1.73933e-06
1.65794e-06
1.57731e-06
1.49708e-06
1.417e-06
1.3371e-06
1.25775e-06
1.17963e-06
1.1037e-06
1.03063e-06
9.60559e-07
8.9294e-07
8.26826e-07
7.6163e-07
6.97375e-07
6.35078e-07
5.75344e-07
5.20745e-07
4.7367e-07
4.34366e-07
3.98397e-07
3.62749e-07
3.29259e-07
2.8247e-07
2.57312e-07
1.41981e-07
2.49897e-07
1.76322e-07
6.45529e-07
7.3876e-07
1.39541e-06
2.38961
0.643801
0.0466479
0.00045197
0.000102015
2.23549e-08
1.04647e-07
1.85878e-06
8.47871e-06
1.05768e-05
9.84512e-06
9.4788e-06
9.11616e-06
8.80892e-06
8.49934e-06
8.18476e-06
7.87438e-06
7.56663e-06
7.26298e-06
6.9693e-06
6.68137e-06
6.40328e-06
6.13301e-06
5.87032e-06
5.61608e-06
5.36903e-06
5.12841e-06
4.89458e-06
4.667e-06
4.44587e-06
4.23131e-06
4.02357e-06
3.82351e-06
3.6314e-06
3.44791e-06
3.27368e-06
3.10893e-06
2.95387e-06
2.8085e-06
2.67239e-06
2.54521e-06
2.42627e-06
2.31466e-06
2.20965e-06
2.11037e-06
2.016e-06
1.92574e-06
1.839e-06
1.75515e-06
1.67363e-06
1.594e-06
1.51573e-06
1.4384e-06
1.36169e-06
1.28551e-06
1.21014e-06
1.13617e-06
1.06438e-06
9.95332e-07
9.29056e-07
8.64951e-07
8.02103e-07
7.39991e-07
6.78665e-07
6.19167e-07
5.62035e-07
5.09701e-07
4.64507e-07
4.26887e-07
3.92531e-07
3.58175e-07
3.25912e-07
2.80432e-07
2.56217e-07
1.46198e-07
2.53347e-07
1.7069e-07
6.39049e-07
7.19939e-07
1.3852e-06
1.18199
0.204557
0.00284117
0.000295899
0
1.3466e-08
2.45435e-07
4.65969e-06
7.89053e-06
7.7027e-06
7.29351e-06
7.17121e-06
7.03508e-06
6.91597e-06
6.78065e-06
6.63573e-06
6.48155e-06
6.31592e-06
6.14287e-06
5.96243e-06
5.77453e-06
5.58199e-06
5.38746e-06
5.18977e-06
4.99201e-06
4.79676e-06
4.60298e-06
4.41301e-06
4.2276e-06
4.04706e-06
3.87193e-06
3.70223e-06
3.53868e-06
3.38082e-06
3.22886e-06
3.08323e-06
2.94345e-06
2.80986e-06
2.68228e-06
2.56056e-06
2.44479e-06
2.33457e-06
2.2295e-06
2.12947e-06
2.03398e-06
1.94264e-06
1.855e-06
1.77072e-06
1.68936e-06
1.6105e-06
1.53374e-06
1.45856e-06
1.38458e-06
1.31146e-06
1.23904e-06
1.16758e-06
1.09758e-06
1.02971e-06
9.64411e-07
9.01633e-07
8.40758e-07
7.80917e-07
7.21658e-07
6.63059e-07
6.06179e-07
5.51481e-07
5.01254e-07
4.57805e-07
4.21717e-07
3.88746e-07
3.55513e-07
3.24326e-07
2.80049e-07
2.56876e-07
1.51973e-07
2.58846e-07
1.66608e-07
6.39334e-07
7.10078e-07
1.3839e-06
0.397628
0.0284364
9.3024e-05
2.30227e-05
7.55411e-10
1.41309e-08
2.66591e-06
6.04465e-06
6.51282e-06
6.0423e-06
5.89542e-06
5.84331e-06
5.7709e-06
5.69886e-06
5.61385e-06
5.52346e-06
5.42381e-06
5.31614e-06
5.20357e-06
5.08438e-06
4.95979e-06
4.83008e-06
4.69714e-06
4.55971e-06
4.41949e-06
4.27782e-06
4.13356e-06
3.98904e-06
3.84452e-06
3.70063e-06
3.55836e-06
3.41804e-06
3.28084e-06
3.14679e-06
3.01639e-06
2.89029e-06
2.76819e-06
2.65061e-06
2.53733e-06
2.42834e-06
2.3238e-06
2.22329e-06
2.12668e-06
2.03401e-06
1.94484e-06
1.85909e-06
1.77644e-06
1.69671e-06
1.61961e-06
1.54483e-06
1.47207e-06
1.40084e-06
1.33084e-06
1.26174e-06
1.19338e-06
1.12601e-06
1.06008e-06
9.96148e-07
9.34575e-07
8.7525e-07
8.17555e-07
7.60684e-07
7.04244e-07
6.48368e-07
5.94106e-07
5.41833e-07
4.93674e-07
4.51931e-07
4.17356e-07
3.85719e-07
3.53592e-07
3.23455e-07
2.80397e-07
2.58402e-07
1.58546e-07
2.65523e-07
1.61785e-07
6.42189e-07
0.0572944
0.000168757
2.14164e-05
1.05588e-06
8.89912e-08
1.53291e-06
4.41812e-06
5.08308e-06
4.78479e-06
4.5904e-06
4.5881e-06
4.5784e-06
4.5559e-06
4.52864e-06
4.49155e-06
4.44951e-06
4.39878e-06
4.34045e-06
4.27674e-06
4.20647e-06
4.13085e-06
4.04986e-06
3.96376e-06
3.87382e-06
3.78082e-06
3.68425e-06
3.58482e-06
3.48402e-06
3.3813e-06
3.27746e-06
3.17305e-06
3.06817e-06
2.96365e-06
2.85969e-06
2.75666e-06
2.65507e-06
2.55506e-06
2.45721e-06
2.36142e-06
2.26805e-06
2.17731e-06
2.08897e-06
2.00333e-06
1.92028e-06
1.83967e-06
1.76163e-06
1.68592e-06
1.61251e-06
1.54124e-06
1.47187e-06
1.40423e-06
1.33791e-06
1.27267e-06
1.20819e-06
1.14442e-06
1.08155e-06
1.02e-06
9.60288e-07
9.02658e-07
8.46976e-07
7.92642e-07
7.38923e-07
6.8548e-07
6.32507e-07
5.81042e-07
5.31346e-07
4.85388e-07
4.45496e-07
4.12571e-07
3.82368e-07
3.51474e-07
3.22495e-07
2.80816e-07
2.60197e-07
1.65662e-07
2.72292e-07
0.000594781
0.000236592
2.26218e-09
4.30185e-08
8.10694e-07
3.30882e-06
3.98299e-06
3.78008e-06
3.60629e-06
3.59414e-06
3.62277e-06
3.62906e-06
3.62962e-06
3.62452e-06
3.61247e-06
3.59528e-06
3.57147e-06
3.5418e-06
3.50716e-06
3.4671e-06
3.42232e-06
3.3731e-06
3.31915e-06
3.26168e-06
3.20121e-06
3.13702e-06
3.07013e-06
3.00121e-06
2.92988e-06
2.85688e-06
2.78245e-06
2.7066e-06
2.62998e-06
2.55267e-06
2.47483e-06
2.39689e-06
2.31893e-06
2.24137e-06
2.16424e-06
2.08784e-06
2.01241e-06
1.93797e-06
1.86481e-06
1.79296e-06
1.72247e-06
1.65356e-06
1.58611e-06
1.52024e-06
1.45586e-06
1.39289e-06
1.3312e-06
1.27052e-06
1.21064e-06
1.15132e-06
1.09256e-06
1.03454e-06
9.77666e-07
9.22381e-07
8.68885e-07
8.17016e-07
7.66202e-07
7.15794e-07
6.65526e-07
6.15618e-07
5.67111e-07
5.20134e-07
4.76518e-07
4.38636e-07
4.07482e-07
3.78798e-07
3.49253e-07
3.21528e-07
2.81412e-07
2.62327e-07
0.000261686
0
4.07259e-09
7.31462e-08
2.6682e-06
3.22585e-06
3.0558e-06
2.91061e-06
2.89966e-06
2.9392e-06
2.96649e-06
2.98218e-06
2.99404e-06
3.00007e-06
3.00068e-06
2.99591e-06
2.98562e-06
2.97061e-06
2.95084e-06
2.92637e-06
2.89757e-06
2.865e-06
2.82896e-06
2.7892e-06
2.74675e-06
2.70164e-06
2.65392e-06
2.60407e-06
2.55222e-06
2.49874e-06
2.44356e-06
2.38693e-06
2.3294e-06
2.27058e-06
2.2109e-06
2.15066e-06
2.08973e-06
2.02846e-06
1.96693e-06
1.90523e-06
1.84359e-06
1.78213e-06
1.72093e-06
1.66017e-06
1.59995e-06
1.54047e-06
1.48168e-06
1.4238e-06
1.36682e-06
1.31072e-06
1.25544e-06
1.20079e-06
1.14663e-06
1.0928e-06
1.03929e-06
9.86337e-07
9.34294e-07
8.83553e-07
8.34284e-07
7.86312e-07
7.39106e-07
6.92102e-07
6.45111e-07
5.98374e-07
5.5292e-07
5.08749e-07
4.67567e-07
4.31803e-07
4.02475e-07
3.75342e-07
3.47218e-07
0
0
1.10367e-07
1.86569e-06
2.73358e-06
2.45486e-06
2.36162e-06
2.35512e-06
2.39765e-06
2.43573e-06
2.4614e-06
2.48267e-06
2.50003e-06
2.51224e-06
2.51994e-06
2.52345e-06
2.52211e-06
2.51641e-06
2.50667e-06
2.49288e-06
2.47533e-06
2.4543e-06
2.43019e-06
2.4029e-06
2.37308e-06
2.34093e-06
2.30633e-06
2.26982e-06
2.23152e-06
2.19168e-06
2.1501e-06
2.10722e-06
2.06337e-06
2.01807e-06
1.97189e-06
1.92486e-06
1.87693e-06
1.82838e-06
1.77919e-06
1.72947e-06
1.67938e-06
1.62895e-06
1.57833e-06
1.5276e-06
1.47686e-06
1.42629e-06
1.3759e-06
1.32588e-06
1.27628e-06
1.2271e-06
1.17834e-06
1.12986e-06
1.08157e-06
1.03335e-06
9.8524e-07
9.37445e-07
8.90307e-07
8.44172e-07
7.99168e-07
7.55136e-07
7.11594e-07
6.68067e-07
6.24427e-07
5.80946e-07
5.38618e-07
4.97317e-07
0
6.04261e-08
1.24592e-06
2.22321e-06
2.01121e-06
1.90198e-06
1.92395e-06
1.96236e-06
2.00349e-06
2.0336e-06
2.05884e-06
2.0812e-06
2.09959e-06
2.11419e-06
2.12477e-06
2.13191e-06
2.13521e-06
2.13461e-06
2.13082e-06
2.12371e-06
2.11357e-06
2.10048e-06
2.08476e-06
2.06655e-06
2.0462e-06
2.02378e-06
1.99929e-06
1.97322e-06
1.94552e-06
1.91638e-06
1.88576e-06
1.85388e-06
1.82092e-06
1.78669e-06
1.75149e-06
1.71531e-06
1.67816e-06
1.64022e-06
1.60142e-06
1.56188e-06
1.52172e-06
1.4809e-06
1.43958e-06
1.39779e-06
1.35563e-06
1.31326e-06
1.2707e-06
1.22812e-06
1.18559e-06
1.14313e-06
1.10077e-06
1.05839e-06
1.01595e-06
9.73341e-07
9.30637e-07
8.88012e-07
8.45785e-07
8.04257e-07
7.63531e-07
7.2346e-07
6.83623e-07
5.51998e-08
9.07126e-07
1.84397e-06
1.65166e-06
1.55209e-06
1.58008e-06
1.62345e-06
1.66035e-06
1.69182e-06
1.71783e-06
1.74156e-06
1.76249e-06
1.78007e-06
1.79468e-06
1.80573e-06
1.81393e-06
1.81904e-06
1.82087e-06
1.82015e-06
1.81666e-06
1.81072e-06
1.80234e-06
1.79193e-06
1.7795e-06
1.76531e-06
1.7495e-06
1.73205e-06
1.71333e-06
1.69329e-06
1.67205e-06
1.64961e-06
1.62613e-06
1.60166e-06
1.57608e-06
1.54963e-06
1.52222e-06
1.49388e-06
1.46472e-06
1.43462e-06
1.40371e-06
1.37204e-06
1.33956e-06
1.30635e-06
1.27249e-06
1.23803e-06
1.20307e-06
1.16767e-06
1.13198e-06
1.09606e-06
1.05995e-06
1.0237e-06
9.8721e-07
9.50444e-07
9.13329e-07
9.36331e-07
1.34343e-06
1.40082e-06
1.27377e-06
1.31451e-06
1.3555e-06
1.38954e-06
1.41811e-06
1.44358e-06
1.46638e-06
1.48767e-06
1.50611e-06
1.5218e-06
1.53513e-06
1.54562e-06
1.55372e-06
1.55921e-06
1.56219e-06
1.56299e-06
1.56159e-06
1.55819e-06
1.55293e-06
1.54587e-06
1.53729e-06
1.52735e-06
1.51597e-06
1.50343e-06
1.48983e-06
1.47519e-06
1.45958e-06
1.44302e-06
1.42568e-06
1.40744e-06
1.38835e-06
1.36854e-06
1.34785e-06
1.3264e-06
1.30415e-06
1.28103e-06
1.25716e-06
1.23246e-06
1.20694e-06
)
;

boundaryField
{
    inlet
    {
        type            calculated;
        value           nonuniform List<scalar> 
13
(
5.62883e-06
5.70416e-06
5.7704e-06
5.83007e-06
5.88789e-06
5.94767e-06
6.02521e-06
6.04785e-06
5.9911e-06
5.95735e-06
5.91317e-06
5.87504e-06
5.84389e-06
)
;
    }
    outlet
    {
        type            calculated;
        value           nonuniform List<scalar> 0();
    }
    walls
    {
        type            calculated;
        value           uniform 0;
    }
    frontAndBack
    {
        type            empty;
    }
    procBoundary2to1
    {
        type            processor;
        value           nonuniform List<scalar> 
84
(
49.5976
1.30926
0.203504
0.00214385
0.000150388
1.44259e-05
2.36921e-05
2.22128e-05
2.42587e-05
2.11611e-05
2.11459e-05
1.99608e-05
1.92633e-05
1.83328e-05
1.74601e-05
1.65361e-05
1.56055e-05
1.46559e-05
1.36966e-05
1.27322e-05
1.17677e-05
1.08092e-05
9.86353e-06
8.93839e-06
8.04111e-06
7.1797e-06
6.36277e-06
5.59939e-06
4.89878e-06
4.27136e-06
3.72756e-06
3.2772e-06
2.92817e-06
2.68261e-06
2.53396e-06
2.46565e-06
2.45504e-06
2.4787e-06
2.4787e-06
3.15591e-06
3.08906e-06
3.02887e-06
2.96835e-06
2.90292e-06
2.82996e-06
2.74839e-06
2.65825e-06
2.56036e-06
2.45593e-06
2.34635e-06
2.23306e-06
2.11729e-06
2.00008e-06
2.00008e-06
1.93736e-06
1.81032e-06
1.68558e-06
1.56393e-06
1.44653e-06
1.33471e-06
1.22947e-06
1.1309e-06
1.03811e-06
1.03811e-06
9.59391e-07
8.72464e-07
7.88718e-07
7.09014e-07
6.34434e-07
5.66983e-07
5.11166e-07
4.66436e-07
4.26263e-07
3.87489e-07
3.87489e-07
3.53425e-07
3.15386e-07
2.6729e-07
2.04117e-07
1.5983e-07
1.74306e-07
4.46515e-07
8.71818e-07
1.67037e-06
)
;
    }
    procBoundary2to3
    {
        type            processor;
        value           nonuniform List<scalar> 
88
(
7.05001e-07
1.38651e-06
1.57365e-07
7.05001e-07
6.44904e-07
1.73425e-07
1.57365e-07
2.78901e-07
3.20789e-07
2.82397e-07
1.73425e-07
2.64937e-07
4.58643e-07
4.25071e-07
3.97606e-07
3.72041e-07
3.20789e-07
3.45396e-07
6.43629e-07
6.03412e-07
5.6326e-07
5.24125e-07
4.58643e-07
4.85749e-07
8.75917e-07
8.38376e-07
8.00989e-07
7.64008e-07
7.27519e-07
6.91395e-07
6.43629e-07
6.55278e-07
1.18062e-06
1.15357e-06
1.12577e-06
1.09732e-06
1.06833e-06
1.03885e-06
1.00896e-06
9.78723e-07
9.48171e-07
9.17233e-07
8.8586e-07
8.75917e-07
8.53992e-07
1.19844e-06
1.07227e-06
1.0973e-06
1.09646e-06
1.14598e-06
1.17241e-06
1.19833e-06
1.22089e-06
1.24223e-06
1.26186e-06
1.27967e-06
1.2952e-06
1.30853e-06
1.32013e-06
1.32935e-06
1.33652e-06
1.3417e-06
1.34497e-06
1.34646e-06
1.34621e-06
1.34433e-06
1.34102e-06
1.33637e-06
1.33048e-06
1.32343e-06
1.31538e-06
1.30643e-06
1.29656e-06
1.28594e-06
1.27454e-06
1.26242e-06
1.24963e-06
1.23615e-06
1.22204e-06
1.20726e-06
1.19179e-06
1.1757e-06
1.15885e-06
1.14129e-06
1.12303e-06
1.10399e-06
1.18062e-06
1.08419e-06
)
;
    }
    procBoundary2to6
    {
        type            processor;
        value           nonuniform List<scalar> 
13
(
15.0996
10.9495
7.14088
4.68376
2.84359
1.41787
0.469102
0.0621971
0.000533795
0.000131025
0
0
6.67382e-08
)
;
    }
}


// ************************************************************************* //
