/*--------------------------------*- C++ -*----------------------------------*\
| =========                 |                                                 |
| \\      /  F ield         | OpenFOAM: The Open Source CFD Toolbox           |
|  \\    /   O peration     | Version:  2506                                  |
|   \\  /    A nd           | Website:  www.openfoam.com                      |
|    \\/     M anipulation  |                                                 |
\*---------------------------------------------------------------------------*/
FoamFile
{
    version     2.0;
    format      ascii;
    arch        "LSB;label=32;scalar=64";
    class       volVectorField;
    location    "300";
    object      U;
}
// * * * * * * * * * * * * * * * * * * * * * * * * * * * * * * * * * * * * * //

dimensions      [0 1 -1 0 0 0 0];

internalField   nonuniform List<vector> 
1340
(
(23.0068 2.62714 2.3137e-16)
(22.3164 2.92652 8.28312e-16)
(21.3661 3.13404 2.18633e-15)
(18.7635 3.3115 2.34146e-15)
(24.6035 3.18315 -1.09186e-16)
(24.0349 3.42877 -6.37255e-16)
(23.472 3.64792 -2.27674e-15)
(21.4966 3.71634 -2.42449e-15)
(25.2944 3.03907 1.0396e-16)
(24.7687 3.37336 -9.26322e-16)
(24.1682 3.62591 4.35057e-15)
(22.3685 3.72712 1.0712e-14)
(25.5764 3.2511 -5.67299e-16)
(25.1451 3.52003 2.55422e-15)
(24.613 3.6958 -1.9908e-15)
(22.9837 3.75901 -2.10659e-15)
(25.5231 3.00261 -1.75194e-16)
(25.1345 3.32886 -8.61546e-16)
(24.676 3.54882 2.85393e-15)
(23.3002 3.66072 -3.12354e-15)
(25.4941 3.1695 6.65259e-16)
(25.1115 3.4449 -2.53224e-15)
(24.6501 3.59178 -3.3047e-15)
(23.4311 3.62845 1.09391e-15)
(25.4647 3.00987 -6.04843e-16)
(25.0921 3.29785 1.83326e-15)
(24.6324 3.4604 1.91234e-16)
(23.5059 3.5035 5.68532e-15)
(25.4304 3.05749 6.70178e-16)
(25.0678 3.32337 -6.19265e-16)
(24.6188 3.44629 2.69584e-16)
(23.572 3.43444 -3.0676e-16)
(25.4013 2.99141 -2.03951e-17)
(25.0497 3.25218 3.23413e-16)
(24.6129 3.37042 3.29748e-16)
(23.6435 3.34491 -4.17821e-16)
(25.3689 2.97998 2.61845e-16)
(25.0292 3.22614 2.11498e-15)
(24.6064 3.32261 -2.56964e-15)
(23.7146 3.26725 2.0048e-15)
(25.3379 2.94276 2.71302e-17)
(25.0109 3.17898 -2.46911e-15)
(24.6023 3.2642 4.19667e-15)
(23.7846 3.19093 2.17796e-15)
(25.3059 2.91642 -6.00398e-16)
(24.9925 3.14 1.60439e-15)
(24.5997 3.21089 -2.3606e-15)
(23.8529 3.11898 -4.08819e-15)
(25.2743 2.88495 7.53079e-16)
(24.9751 3.09694 -2.32546e-15)
(24.5988 3.15673 -2.10219e-16)
(23.9192 3.05045 -5.57716e-15)
(25.2424 2.85542 -5.72502e-16)
(24.9582 3.05524 1.58723e-15)
(24.5995 3.10437 4.18166e-16)
(23.9835 2.98583 3.55407e-15)
(25.2106 2.8251 1.4199e-16)
(24.9419 3.01298 6.87103e-16)
(24.6018 3.05297 1.76235e-15)
(24.0456 2.92518 -1.79044e-15)
(25.1789 2.79531 8.3511e-17)
(24.9263 2.97121 -1.06049e-15)
(24.6054 3.00309 -2.5046e-15)
(24.1053 2.8684 -1.56184e-15)
(25.1475 2.76578 -1.98824e-17)
(24.9113 2.92988 5.54885e-16)
(24.6103 2.95477 -8.81412e-16)
(24.1625 2.81567 4.30224e-15)
(25.1164 2.73687 3.64604e-16)
(24.897 2.88934 -1.70981e-15)
(24.6163 2.90818 1.51818e-15)
(24.2173 2.76683 -3.23495e-15)
(25.0858 2.70874 -1.07437e-15)
(24.8834 2.84982 4.58844e-16)
(24.6234 2.8635 1.14459e-15)
(24.2695 2.72198 5.1581e-15)
(25.0557 2.68161 5.71019e-16)
(24.8706 2.81156 1.34545e-15)
(24.6314 2.82091 -1.18314e-15)
(24.3191 2.68103 -3.1617e-15)
(25.0264 2.6557 -1.698e-16)
(24.8584 2.77484 -1.09988e-15)
(24.6401 2.78051 -5.83785e-16)
(24.3662 2.64386 6.49414e-16)
(24.9979 2.63122 5.03453e-17)
(24.847 2.73988 1.82264e-16)
(24.6495 2.74252 7.80368e-16)
(24.4108 2.61047 -9.92243e-18)
(24.9705 2.6084 3.66305e-16)
(24.8363 2.70695 3.76322e-17)
(24.6594 2.70701 9.80448e-16)
(24.4528 2.58064 -8.33299e-16)
(24.9441 2.58744 -2.99402e-16)
(24.8264 2.67625 -3.32354e-16)
(24.6697 2.67419 -2.02976e-15)
(24.4924 2.55436 5.17649e-16)
(24.919 2.56857 2.32307e-16)
(24.8174 2.64801 7.11091e-16)
(24.6803 2.64413 8.03124e-16)
(24.5297 2.53145 4.58928e-16)
(24.8954 2.55194 -5.97221e-16)
(24.8092 2.62241 -4.34693e-18)
(24.691 2.61697 1.36823e-15)
(24.5647 2.5118 6.96794e-16)
(24.8732 2.53776 5.41809e-16)
(24.8019 2.59962 4.47835e-16)
(24.7018 2.59281 -1.09344e-15)
(24.5976 2.4953 -1.77165e-15)
(24.8528 2.52615 1.7006e-17)
(24.7956 2.57979 -1.48719e-16)
(24.7126 2.57171 7.87422e-16)
(24.6283 2.48182 1.15216e-15)
(24.8342 2.51724 -3.33546e-17)
(24.7902 2.56303 -4.81345e-16)
(24.7234 2.55375 -1.15792e-15)
(24.6571 2.47125 -1.41289e-15)
(24.8175 2.51111 -1.44352e-16)
(24.7859 2.54942 -3.19479e-16)
(24.7342 2.53897 5.7002e-16)
(24.6841 2.46349 -9.2821e-17)
(24.8029 2.50783 -1.33132e-16)
(24.7828 2.53902 -8.0189e-17)
(24.745 2.52738 6.44987e-17)
(24.7094 2.45844 1.37299e-15)
(24.7905 2.50742 -1.71178e-16)
(24.7808 2.53184 4.63859e-16)
(24.7558 2.51896 1.98529e-16)
(24.7331 2.45601 1.3032e-15)
(24.7803 2.50985 -5.67241e-17)
(24.78 2.52787 -1.58854e-16)
(24.7666 2.5137 -4.90655e-16)
(24.7554 2.45612 -1.19582e-15)
(24.7725 2.51507 3.39777e-16)
(24.7806 2.52705 2.02215e-16)
(24.7775 2.51153 -2.6718e-18)
(24.7765 2.45867 -8.23449e-16)
(24.7672 2.52299 -7.66161e-17)
(24.7826 2.5293 -7.15488e-16)
(24.7886 2.51237 5.89928e-16)
(24.7965 2.46358 3.98799e-16)
(24.7644 2.5335 1.22713e-16)
(24.7861 2.53451 4.59351e-16)
(24.8 2.5161 -7.37361e-16)
(24.8155 2.47076 -7.31413e-16)
(24.7641 2.54644 -1.20335e-16)
(24.791 2.54254 -2.18493e-16)
(24.8118 2.52261 3.6883e-16)
(24.8338 2.48011 2.45292e-16)
(24.7663 2.56161 2.05984e-16)
(24.7976 2.55319 4.86917e-17)
(24.824 2.53173 -4.44077e-16)
(24.8516 2.49153 1.03472e-15)
(24.7292 2.58573 -1.27723e-16)
(24.771 2.57883 5.47377e-17)
(24.8057 2.56629 -2.45318e-16)
(24.8368 2.5433 7.91576e-16)
(24.8689 2.50491 -1.69627e-16)
(24.7356 2.60981 3.59819e-16)
(24.7782 2.59786 -6.0273e-16)
(24.8154 2.5816 9.64946e-16)
(24.8503 2.55711 3.81402e-17)
(24.886 2.52011 4.28098e-17)
(24.745 2.63483 -1.06567e-16)
(24.7879 2.61846 1.20082e-16)
(24.8268 2.5989 -5.53028e-16)
(24.8645 2.57298 -8.89904e-16)
(24.903 2.53701 -2.32483e-17)
(24.7572 2.66055 -1.40573e-16)
(24.7998 2.6404 3.65211e-16)
(24.8399 2.61794 -1.01501e-16)
(24.8795 2.59067 3.35084e-16)
(24.92 2.55545 -5.36567e-16)
(24.7721 2.68676 2.41918e-16)
(24.8141 2.66342 2.92594e-16)
(24.8545 2.63847 2.87092e-16)
(24.8955 2.60997 9.69889e-17)
(24.9372 2.57528 5.27328e-16)
(24.7896 2.71325 3.34162e-17)
(24.8304 2.68728 -9.77399e-17)
(24.8708 2.66024 -3.35618e-16)
(24.9123 2.63066 4.06719e-16)
(24.9548 2.59633 2.44282e-16)
(24.8093 2.7398 -2.48066e-17)
(24.8487 2.71174 -3.56542e-16)
(24.8885 2.683 2.35547e-16)
(24.9301 2.6525 -3.04017e-16)
(24.9727 2.61844 -1.03704e-16)
(24.831 2.76625 7.9759e-17)
(24.8689 2.73658 7.53052e-17)
(24.9077 2.70651 -1.44992e-16)
(24.9488 2.67526 -3.24223e-16)
(24.9911 2.64141 -5.63676e-16)
(24.8547 2.79242 -6.1998e-17)
(24.8907 2.7616 3.39428e-16)
(24.9283 2.73055 -2.87184e-17)
(24.9686 2.69872 3.76984e-16)
(25.0101 2.66508 3.48365e-16)
(24.8799 2.81817 1.0516e-16)
(24.9141 2.78659 -2.71871e-16)
(24.9501 2.75488 -3.32778e-17)
(24.9892 2.72268 1.31527e-16)
(25.0297 2.68927 -5.45702e-16)
(24.9066 2.84337 2.01533e-16)
(24.9388 2.8114 -3.40045e-16)
(24.9732 2.77932 1.06774e-16)
(25.0108 2.74695 3.83825e-16)
(25.0499 2.71381 5.75941e-17)
(24.9346 2.86791 -1.14203e-16)
(24.9647 2.83585 2.05098e-17)
(24.9973 2.80369 -1.99598e-16)
(25.0333 2.77132 1.35208e-16)
(25.0708 2.73854 -1.34389e-16)
(24.9636 2.89171 1.14752e-16)
(24.9917 2.85984 1.75537e-16)
(25.0224 2.82783 -1.14872e-17)
(25.0566 2.79563 -4.13969e-16)
(25.0924 2.76329 -1.95853e-16)
(24.9934 2.91468 -4.96015e-17)
(25.0195 2.88323 -3.11475e-16)
(25.0482 2.85159 4.37951e-16)
(25.0806 2.81974 -3.39128e-16)
(25.1145 2.78793 8.81293e-17)
(25.0018 2.96767 2.06451e-17)
(25.0237 2.93679 -6.30241e-17)
(25.048 2.90595 -5.81068e-17)
(25.0748 2.87485 1.85815e-16)
(25.1052 2.84349 4.49142e-16)
(25.1373 2.81232 -5.65882e-17)
(25.0344 2.988 -6.32761e-17)
(25.0545 2.95797 -3.11608e-16)
(25.0769 2.9279 4.72607e-16)
(25.1018 2.89751 -2.53623e-16)
(25.1303 2.86678 3.34902e-16)
(25.1604 2.83632 -1.24372e-16)
(25.067 3.00726 1.60859e-16)
(25.0854 2.97821 7.19962e-17)
(25.106 2.94903 -2.36391e-16)
(25.1291 2.91946 1.60265e-16)
(25.1557 2.88948 -4.68594e-17)
(25.1839 2.85983 9.10522e-17)
(25.0994 3.02547 4.45396e-17)
(25.1162 2.99747 -5.11653e-17)
(25.1351 2.96928 5.50758e-17)
(25.1565 2.94065 -1.48807e-16)
(25.1812 2.91151 -1.0768e-16)
(25.2074 2.88275 -6.51445e-18)
(25.1313 3.04263 -1.64332e-16)
(25.1467 3.01575 2.02702e-16)
(25.164 2.98863 8.63078e-17)
(25.1837 2.96101 2.17531e-16)
(25.2066 2.9328 -6.01613e-17)
(25.231 2.90499 1.16753e-16)
(25.1627 3.05877 7.72009e-17)
(25.1766 3.03305 2.05959e-16)
(25.1925 3.00705 -2.00249e-16)
(25.2106 2.9805 -1.81539e-16)
(25.2318 2.95328 8.05663e-17)
(25.2544 2.92648 -2.36434e-16)
(25.1933 3.07394 -3.3778e-17)
(25.2061 3.04939 -9.58353e-17)
(25.2206 3.02454 2.05001e-16)
(25.2372 2.9991 -3.18023e-16)
(25.2568 2.97293 -6.37549e-17)
(25.2776 2.94718 3.03136e-16)
(25.2233 3.08817 -2.95178e-16)
(25.2349 3.06481 2.57555e-16)
(25.2481 3.04111 -5.9593e-17)
(25.2633 3.01682 5.97726e-17)
(25.2814 2.99173 2.83812e-17)
(25.3006 2.96706 -2.29238e-16)
(25.2525 3.10151 8.99386e-17)
(25.263 3.07932 -2.64764e-16)
(25.2751 3.0568 1.83756e-16)
(25.289 3.03365 6.17068e-17)
(25.3056 3.00966 -3.56246e-16)
(25.3233 2.9861 1.52598e-16)
(25.2724 3.13487 3.31005e-18)
(25.2807 3.11399 -5.7982e-17)
(25.2903 3.09296 5.06658e-17)
(25.3013 3.07159 5.48311e-17)
(25.314 3.0496 -1.43442e-16)
(25.3292 3.02672 -6.31665e-17)
(25.3455 3.00428 7.81342e-17)
(25.3003 3.14539 -2.60076e-16)
(25.3079 3.12563 1.03322e-16)
(25.3166 3.10574 8.821e-17)
(25.3266 3.08551 -3.20935e-17)
(25.3382 3.06465 1.98799e-16)
(25.3522 3.0429 -2.14687e-16)
(25.3671 3.02158 -9.94778e-17)
(25.3269 3.1551 -3.6274e-18)
(25.3337 3.13644 1.86009e-16)
(25.3416 3.11766 -1.55329e-16)
(25.3507 3.09854 -1.83959e-16)
(25.3613 3.07882 1.61496e-16)
(25.3741 3.05818 4.39344e-16)
(25.3878 3.03798 -1.38011e-16)
(25.3517 3.16403 6.46278e-17)
(25.3579 3.14643 -7.89833e-18)
(25.365 3.12871 -1.28196e-17)
(25.3733 3.11069 -7.34459e-18)
(25.383 3.09207 2.64565e-16)
(25.3946 3.07253 -6.02208e-17)
(25.4073 3.05345 -3.53089e-16)
(25.3747 3.17221 -1.23055e-16)
(25.3803 3.15563 1.56156e-16)
(25.3867 3.13896 3.90251e-17)
(25.3942 3.12199 -9.65316e-17)
(25.403 3.10446 -1.25038e-16)
(25.4137 3.08601 5.00802e-17)
(25.4253 3.06803 3.31795e-17)
(25.3958 3.1796 5.14047e-17)
(25.4009 3.164 -8.80372e-17)
(25.4067 3.14834 2.31819e-16)
(25.4135 3.1324 -1.97339e-16)
(25.4215 3.11592 2.86253e-16)
(25.4313 3.09854 -1.74384e-16)
(25.4419 3.08164 3.01525e-16)
(25.4123 3.18531 -1.34708e-16)
(25.4169 3.17052 -4.89077e-18)
(25.4222 3.1557 -9.93171e-17)
(25.4285 3.14063 -6.38245e-18)
(25.436 3.12504 -5.30002e-17)
(25.4451 3.1086 -8.81633e-17)
(25.4551 3.09267 9.98392e-17)
(25.425 3.18977 -1.90838e-16)
(25.4293 3.17567 -2.79914e-17)
(25.4343 3.16155 1.19564e-16)
(25.4402 3.14722 -1.62938e-18)
(25.4473 3.13241 -1.14774e-16)
(25.4559 3.11678 1.34801e-17)
(25.4654 3.1017 -1.62006e-16)
(25.4375 3.19413 3.01359e-17)
(25.4415 3.18073 8.37346e-17)
(25.4462 3.16734 -7.07597e-17)
(25.4517 3.15377 -1.02298e-16)
(25.4583 3.13976 -1.99868e-16)
(25.4664 3.12499 4.8183e-16)
(25.4754 3.11079 -2.77446e-16)
(25.4497 3.19832 7.58872e-17)
(25.4534 3.18563 -2.88001e-17)
(25.4577 3.17297 2.39264e-17)
(25.4629 3.16017 -1.52208e-16)
(25.4691 3.14698 2.49923e-16)
(25.4766 3.13306 -2.73479e-16)
(25.485 3.11976 3.19085e-16)
(25.459 3.21443 1.0073e-16)
(25.4617 3.20232 4.99697e-17)
(25.465 3.19037 -4.68923e-17)
(25.469 3.17848 -4.398e-17)
(25.4737 3.16648 -9.69978e-17)
(25.4795 3.15414 -1.03935e-16)
(25.4865 3.14112 3.03493e-16)
(25.4943 3.12872 -1.48528e-16)
(25.4707 3.21732 -4.92521e-17)
(25.4731 3.20588 8.40278e-17)
(25.476 3.19464 -8.88264e-17)
(25.4796 3.18351 -8.00818e-17)
(25.4839 3.17232 8.11102e-17)
(25.4892 3.16087 1.65159e-16)
(25.4957 3.14883 -3.55429e-17)
(25.503 3.13757 7.06952e-17)
(25.4812 3.22021 1.57879e-16)
(25.4832 3.20947 -1.8701e-16)
(25.4857 3.19893 2.19141e-16)
(25.4888 3.1885 -1.79554e-16)
(25.4925 3.17802 -2.10069e-16)
(25.4972 3.16728 3.23682e-16)
(25.5029 3.15597 -2.28392e-16)
(25.5093 3.14511 1.50385e-16)
(25.4887 3.22129 2.25802e-17)
(25.4902 3.21145 -1.62963e-16)
(25.4922 3.20191 1.07721e-16)
(25.4947 3.1926 -3.00058e-17)
(25.4978 3.18334 -1.23594e-16)
(25.5018 3.17401 3.55841e-16)
(25.5071 3.16438 -2.12346e-16)
(25.5135 3.15621 3.63439e-17)
(25.4898 3.22134 -8.09115e-17)
(25.4902 3.2113 -8.19027e-17)
(25.4912 3.20149 -1.31308e-16)
(25.4927 3.19186 2.34256e-16)
(25.4948 3.18228 4.01362e-17)
(25.4976 3.17248 -8.34443e-17)
(25.5007 3.16202 2.45103e-16)
(25.5038 3.15092 -3.14548e-16)
(25.4875 3.22803 1.02756e-16)
(25.4873 3.22102 3.33955e-17)
(25.4876 3.21436 -1.52711e-16)
(25.4882 3.20796 -1.04725e-16)
(25.4894 3.20172 4.4628e-17)
(25.4916 3.19577 5.45292e-17)
(25.4963 3.19037 -1.35511e-16)
(25.5041 3.1888 1.26051e-17)
(25.474 3.18388 -1.3722e-16)
(25.4737 3.17273 1.08611e-16)
(25.4743 3.16208 9.62928e-17)
(25.4755 3.15189 -7.45192e-17)
(25.4771 3.14199 3.18049e-16)
(25.4784 3.13172 -4.42589e-16)
(25.4767 3.12006 1.77015e-16)
(25.4712 3.10458 -2.71189e-16)
(25.5134 3.32258 1.5505e-16)
(25.514 3.32096 -1.2107e-16)
(25.5146 3.31939 1.02565e-17)
(25.5154 3.31792 6.46853e-17)
(25.5174 3.31676 -8.58012e-17)
(25.5221 3.31662 -1.50926e-16)
(25.5353 3.31896 1.71799e-16)
(25.5559 3.328 -4.0853e-17)
(25.561 2.95952 1.19484e-16)
(25.5661 2.94712 1.45733e-16)
(25.572 2.93534 -1.16691e-16)
(25.5781 2.92392 -3.10963e-16)
(25.5829 2.91238 4.1629e-16)
(25.5844 2.90058 -3.53841e-16)
(25.5742 2.88732 8.59292e-16)
(25.5554 2.87875 -5.40432e-16)
(18.568 1.40389 7.98183e-19)
(21.2054 1.30923 1.57521e-17)
(22.129 1.3776 7.79396e-19)
(22.6359 1.472 -3.54544e-19)
(22.9045 1.53803 1.38568e-18)
(23.0327 1.62135 9.57683e-19)
(23.1252 1.67844 -2.08039e-20)
(23.2168 1.75164 1.8965e-19)
(23.3117 1.81017 2.36376e-19)
(23.4058 1.86869 0)
(23.4983 1.92184 -2.11435e-17)
(23.5888 1.97066 3.31701e-19)
(23.6769 2.01535 -1.13076e-19)
(23.7625 2.05585 -1.16092e-19)
(23.8453 2.09241 6.9855e-20)
(23.925 2.1251 2.88055e-17)
(24.0015 2.15432 4.73335e-17)
(24.0747 2.18007 -5.75461e-21)
(24.1444 2.20285 1.5004e-21)
(24.2106 2.22287 1.66042e-20)
(24.2732 2.24048 -5.27396e-20)
(24.3323 2.25604 9.73782e-21)
(24.3879 2.26983 1.0307e-19)
(24.44 2.28226 5.47543e-20)
(24.4887 2.29362 3.00474e-19)
(24.5342 2.30421 -4.13332e-20)
(24.5766 2.31433 5.36026e-19)
(24.616 2.32423 3.79559e-19)
(24.6527 2.33416 3.93255e-20)
(24.6867 2.34431 2.72227e-19)
(24.7183 2.35488 -6.96822e-19)
(24.7477 2.366 -8.42471e-17)
(24.775 2.37783 -3.28022e-17)
(24.8005 2.39046 2.12639e-18)
(24.8243 2.40399 -2.10757e-18)
(24.8467 2.41848 -1.6012e-18)
(24.8678 2.43398 3.04562e-18)
(24.8878 2.45052 6.20077e-19)
(24.907 2.46811 5.25824e-19)
(24.9255 2.48674 -2.25157e-18)
(24.9435 2.50639 -1.17529e-16)
(24.9611 2.52701 2.55064e-18)
(24.9785 2.54854 -3.1517e-17)
(24.9959 2.5709 -9.02314e-17)
(25.0134 2.59399 2.43501e-18)
(25.031 2.61772 -7.71905e-17)
(25.049 2.64196 1.60201e-18)
(25.0674 2.66661 1.44581e-18)
(25.0862 2.69153 1.36191e-16)
(25.1055 2.7166 3.07207e-19)
(25.1254 2.74169 1.87841e-18)
(25.1458 2.76668 -2.18948e-16)
(25.1667 2.79144 -5.62349e-19)
(25.188 2.81587 1.36375e-17)
(25.2096 2.83986 -7.70711e-20)
(25.2314 2.8633 -3.3795e-19)
(25.2532 2.88612 -1.46212e-18)
(25.275 2.90823 5.5249e-17)
(25.2965 2.9296 1.26049e-17)
(25.318 2.95018 1.28928e-16)
(25.3392 2.96995 2.35582e-16)
(25.3601 2.98889 1.4922e-16)
(25.3804 3.00695 5.51981e-17)
(25.3999 3.02413 2.15718e-19)
(25.4182 3.04037 2.53292e-18)
(25.4353 3.05573 5.83892e-17)
(25.4509 3.0701 -4.92953e-17)
(25.4634 3.08182 -1.14191e-18)
(25.4731 3.09142 2.22375e-18)
(25.4826 3.10113 -1.40939e-16)
(25.4917 3.11075 -1.42502e-16)
(25.5004 3.12034 8.87335e-19)
(25.5086 3.12999 1.00534e-16)
(25.5142 3.13792 -1.28093e-16)
(25.518 3.15062 0)
(25.5064 3.14396 -2.04713e-17)
(25.5084 3.18723 -1.2531e-17)
(25.4707 3.09586 2.55927e-16)
(25.5652 3.33307 -5.89342e-18)
(25.5532 2.87731 -2.8443e-16)
(21.0226 1.29122 -5.20036e-18)
(22.8565 1.28472 -4.90241e-18)
(23.5981 1.35012 8.58205e-18)
(23.8818 1.38745 -3.87204e-18)
(23.986 1.41653 2.8153e-17)
(24.0137 1.44613 1.29116e-17)
(24.0325 1.47337 -3.21858e-19)
(24.0564 1.50714 3.39552e-18)
(24.0838 1.5389 5.14301e-18)
(24.1127 1.57457 0)
(24.1426 1.61084 2.40247e-17)
(24.1737 1.64842 1.3769e-17)
(24.2058 1.68696 -6.48096e-18)
(24.2388 1.72609 -1.00615e-17)
(24.2725 1.76551 3.75827e-17)
(24.3069 1.80496 -3.73698e-17)
(24.3417 1.84415 -4.71854e-17)
(24.3768 1.88277 4.58965e-18)
(24.4121 1.92057 3.22515e-17)
(24.4473 1.95734 6.32807e-18)
(24.4824 1.99287 -5.65576e-18)
(24.517 2.02706 1.93159e-17)
(24.5511 2.05974 -9.7903e-18)
(24.5846 2.09089 1.19581e-18)
(24.6171 2.1205 4.52106e-18)
(24.6488 2.14861 -1.21332e-17)
(24.6793 2.17527 4.38573e-18)
(24.7088 2.20063 2.40848e-18)
(24.737 2.2248 1.98751e-19)
(24.764 2.24794 1.12189e-18)
(24.7897 2.27025 -2.39214e-18)
(24.8143 2.29188 8.33814e-17)
(24.8376 2.31303 9.92565e-17)
(24.8598 2.33386 4.71964e-18)
(24.8809 2.35454 -5.03057e-17)
(24.901 2.37522 -2.77479e-17)
(24.9202 2.39603 3.19617e-17)
(24.9386 2.41709 9.5546e-19)
(24.9563 2.43847 9.79515e-18)
(24.9735 2.46026 -5.2715e-17)
(24.9902 2.4825 3.35489e-17)
(25.0066 2.50522 1.04857e-16)
(25.0228 2.52843 3.09664e-17)
(25.0389 2.55212 9.48035e-17)
(25.0551 2.57624 1.2783e-16)
(25.0713 2.60076 6.76162e-17)
(25.0879 2.6256 7.56259e-17)
(25.1047 2.65071 -9.20457e-17)
(25.1219 2.67599 -1.31134e-16)
(25.1396 2.70135 -8.9492e-17)
(25.1577 2.72669 2.18775e-18)
(25.1764 2.75192 1.52904e-16)
(25.1955 2.77693 1.18463e-17)
(25.2151 2.80162 -2.95654e-17)
(25.2349 2.8259 -9.10925e-20)
(25.255 2.84967 -9.95666e-17)
(25.2751 2.87285 7.76242e-18)
(25.2951 2.89537 -1.08352e-16)
(25.3151 2.91717 -2.44155e-16)
(25.3351 2.93823 -2.69153e-17)
(25.3549 2.9585 -2.31508e-16)
(25.3744 2.97796 1.24632e-17)
(25.3934 2.99657 -8.06393e-19)
(25.4117 3.0143 3.0671e-16)
(25.4289 3.03111 3.73208e-17)
(25.4449 3.04704 -6.3826e-17)
(25.4596 3.06197 4.72843e-17)
(25.4713 3.07417 -5.88991e-17)
(25.4804 3.08419 6.57754e-17)
(25.4892 3.09436 1.40144e-16)
(25.4978 3.10446 1.39317e-16)
(25.5059 3.11453 1.08334e-18)
(25.5135 3.12474 -1.02264e-16)
(25.5185 3.13305 1.24832e-16)
(25.5213 3.14668 0)
(25.5097 3.13969 2.13458e-17)
(25.5093 3.18532 1.46831e-18)
(25.4763 3.09221 -3.46343e-16)
(25.5627 3.33343 5.72718e-18)
(25.5667 2.88099 2.82616e-16)
(22.7071 1.37977 4.46849e-18)
(23.9182 1.42368 9.27487e-18)
(24.4572 1.47398 1.12436e-18)
(24.5981 1.50399 -1.13214e-18)
(24.6266 1.53398 -5.61902e-18)
(24.6281 1.56096 4.28239e-18)
(24.6323 1.58883 -1.14764e-19)
(24.6393 1.6164 3.0863e-18)
(24.6467 1.64312 1.84794e-17)
(24.6541 1.67019 0)
(24.6614 1.69643 -9.48895e-18)
(24.6687 1.72275 7.04628e-18)
(24.6763 1.7488 -3.55511e-18)
(24.684 1.77478 -1.5308e-17)
(24.6921 1.80071 -1.91869e-17)
(24.7006 1.82673 7.91749e-18)
(24.7095 1.85278 3.41372e-17)
(24.719 1.87906 2.55956e-17)
(24.729 1.90542 -3.76631e-17)
(24.7397 1.932 5.38847e-18)
(24.7511 1.95869 -6.43564e-17)
(24.7631 1.98554 -2.75993e-17)
(24.7758 2.01244 5.53971e-18)
(24.7891 2.03934 -1.64975e-17)
(24.8029 2.06619 4.85135e-18)
(24.8173 2.0929 1.59328e-17)
(24.8322 2.1194 5.05379e-17)
(24.8474 2.14563 2.8167e-18)
(24.8628 2.17156 2.36727e-19)
(24.8785 2.19713 -8.1932e-18)
(24.8942 2.22234 -3.75927e-17)
(24.91 2.2472 1.4237e-17)
(24.9256 2.27173 -1.88805e-18)
(24.9412 2.29597 5.83079e-17)
(24.9565 2.31998 4.06889e-17)
(24.9717 2.34382 -4.71924e-17)
(24.9866 2.36757 -2.07815e-17)
(25.0013 2.39129 1.10177e-18)
(25.0157 2.41505 -7.42333e-17)
(25.03 2.43891 2.9789e-18)
(25.0442 2.46293 -4.71762e-17)
(25.0583 2.48714 -9.72001e-17)
(25.0723 2.51158 -3.15122e-17)
(25.0864 2.53625 -5.57622e-17)
(25.1006 2.56115 -2.90008e-18)
(25.115 2.58627 -5.15482e-18)
(25.1296 2.61156 -8.18524e-17)
(25.1446 2.637 5.87472e-18)
(25.1599 2.66252 2.34393e-18)
(25.1758 2.68806 1.56853e-16)
(25.1921 2.71355 -3.27449e-17)
(25.2089 2.7389 -1.14067e-16)
(25.2261 2.76404 1.71529e-16)
(25.2438 2.78888 2.62278e-17)
(25.2618 2.81333 7.61857e-17)
(25.2801 2.8373 1.69542e-16)
(25.2984 2.86072 -2.09921e-18)
(25.3168 2.88352 1.04796e-16)
(25.3351 2.90565 4.43368e-18)
(25.3535 2.92707 -4.35726e-19)
(25.3718 2.94774 1.82545e-18)
(25.3899 2.96763 -7.74765e-19)
(25.4076 2.98669 -8.38414e-19)
(25.4246 3.0049 -2.89273e-16)
(25.4406 3.0222 -3.07338e-17)
(25.4554 3.03863 -3.26763e-18)
(25.4691 3.05407 -4.77124e-17)
(25.4799 3.06673 -4.94153e-19)
(25.4883 3.07714 -5.98662e-17)
(25.4965 3.08773 -1.71928e-16)
(25.5044 3.09827 -1.37996e-16)
(25.5119 3.1088 -8.20417e-17)
(25.5188 3.11955 -6.23242e-17)
(25.5232 3.12827 -1.77064e-18)
(25.5248 3.14267 0)
(25.5134 3.13574 -5.3484e-17)
(25.5097 3.18284 4.29098e-16)
(25.4836 3.08972 3.43179e-16)
(25.5589 3.33254 -5.28266e-18)
(25.583 2.8849 -9.10124e-19)
(23.7049 1.48678 -5.0746e-19)
(24.4885 1.52377 -6.31127e-18)
(24.8104 1.55057 1.48999e-18)
(24.8513 1.56912 -2.9552e-19)
(24.8505 1.58904 8.22491e-18)
(24.8497 1.60835 1.08387e-18)
(24.8534 1.62972 -2.92829e-20)
(24.8584 1.65109 1.7239e-19)
(24.8633 1.67339 -9.30528e-19)
(24.8682 1.69621 0)
(24.873 1.71932 1.28248e-18)
(24.8779 1.74297 2.12066e-18)
(24.8827 1.76682 -1.1268e-18)
(24.8876 1.79091 -9.90205e-19)
(24.8925 1.81515 2.27986e-17)
(24.8975 1.83949 9.64742e-18)
(24.9025 1.86384 -3.59002e-18)
(24.9077 1.88822 -9.88779e-19)
(24.9129 1.91254 2.29489e-17)
(24.9183 1.93684 2.64669e-18)
(24.9239 1.96107 4.10111e-18)
(24.9297 1.98527 2.30794e-17)
(24.9358 2.00943 4.96002e-17)
(24.9422 2.03358 -1.28601e-17)
(24.949 2.05773 3.27096e-18)
(24.9561 2.08191 -8.75323e-19)
(24.9635 2.10611 -4.10619e-17)
(24.9714 2.13036 2.23377e-18)
(24.9797 2.15466 1.9673e-19)
(24.9883 2.179 2.0702e-18)
(24.9973 2.20337 5.11374e-19)
(25.0067 2.22778 -1.60857e-18)
(25.0164 2.25221 -2.3377e-17)
(25.0263 2.27667 -1.60197e-17)
(25.0365 2.30113 -7.12196e-17)
(25.0469 2.32562 1.52196e-18)
(25.0575 2.35013 1.24703e-16)
(25.0683 2.37468 1.13555e-18)
(25.0791 2.39929 6.63972e-17)
(25.0902 2.42397 -1.83181e-17)
(25.1013 2.44875 6.85283e-17)
(25.1126 2.47364 9.27802e-17)
(25.1241 2.49865 -2.46516e-17)
(25.1358 2.52378 6.31413e-18)
(25.1477 2.54905 -4.08072e-17)
(25.1599 2.57443 -5.25625e-18)
(25.1725 2.5999 2.50751e-18)
(25.1854 2.62545 5.95553e-18)
(25.1988 2.65102 2.37093e-18)
(25.2126 2.67658 -2.5757e-18)
(25.227 2.70206 3.7495e-18)
(25.2418 2.72741 3.43368e-18)
(25.2572 2.75254 -1.63184e-19)
(25.273 2.7774 -1.62754e-18)
(25.2892 2.80189 -1.11264e-16)
(25.3056 2.82595 -1.62946e-16)
(25.3222 2.8495 -8.14069e-17)
(25.3388 2.87247 -1.58038e-18)
(25.3555 2.89481 2.17275e-16)
(25.3723 2.9165 -4.42269e-19)
(25.3891 2.93748 2.15756e-16)
(25.4058 2.95771 -7.88854e-19)
(25.4221 2.97715 -8.55119e-19)
(25.4378 2.99577 -8.00184e-20)
(25.4526 3.0135 3.38553e-18)
(25.4663 3.03039 -3.35215e-18)
(25.4789 3.0463 -2.17393e-19)
(25.4889 3.05939 -5.09247e-19)
(25.4966 3.07016 3.0198e-18)
(25.5041 3.08116 2.68006e-18)
(25.5113 3.09214 4.9477e-19)
(25.5182 3.10311 2.47324e-18)
(25.5244 3.11439 -3.1533e-19)
(25.5283 3.12355 -1.88538e-18)
(25.5286 3.13862 0)
(25.5174 3.13197 1.32754e-18)
(25.5108 3.18013 -1.67231e-17)
(25.4904 3.08767 -9.12782e-17)
(25.5576 3.3315 -1.79002e-19)
(25.5967 2.88796 -6.42929e-19)
(24.4625 1.62785 -6.14145e-18)
(24.9192 1.64965 9.68886e-19)
(25.0496 1.66425 1.21516e-18)
(25.0389 1.67515 -3.23535e-19)
(25.0343 1.68695 7.17063e-18)
(25.0341 1.69922 1.6608e-17)
(25.0361 1.71259 -9.33386e-18)
(25.0379 1.72623 8.8462e-19)
(25.0394 1.74077 -1.40032e-18)
(25.0408 1.75586 0)
(25.042 1.77166 1.5611e-17)
(25.0432 1.78819 2.1876e-17)
(25.0443 1.80538 -8.66071e-18)
(25.0455 1.8233 -9.36715e-18)
(25.0467 1.8419 3.0002e-19)
(25.0479 1.86114 -1.13203e-18)
(25.0493 1.88102 -4.54411e-19)
(25.0508 1.90147 -9.57145e-19)
(25.0525 1.92246 -3.44995e-17)
(25.0543 1.94394 3.53433e-18)
(25.0564 1.96584 3.13446e-18)
(25.0587 1.98811 -1.27943e-17)
(25.0613 2.01068 -2.30535e-18)
(25.0641 2.03353 4.04726e-18)
(25.0672 2.05658 2.74375e-17)
(25.0706 2.07981 7.00482e-18)
(25.0743 2.10318 3.86129e-17)
(25.0783 2.12666 2.3021e-17)
(25.0827 2.15025 2.88285e-17)
(25.0873 2.17393 1.70443e-17)
(25.0923 2.19769 5.60632e-17)
(25.0977 2.22154 -2.51015e-17)
(25.1033 2.24547 -2.73061e-17)
(25.1093 2.2695 3.43275e-17)
(25.1157 2.29361 -9.77698e-18)
(25.1223 2.31782 2.02086e-17)
(25.1293 2.34214 -2.96559e-18)
(25.1366 2.36655 -4.06179e-17)
(25.1442 2.39107 1.52508e-17)
(25.1521 2.4157 1.3049e-17)
(25.1603 2.44044 -3.70591e-17)
(25.1688 2.4653 -8.79029e-17)
(25.1776 2.49026 5.47968e-17)
(25.1868 2.51533 6.49917e-18)
(25.1963 2.5405 -6.9185e-17)
(25.2062 2.56576 -5.41054e-18)
(25.2165 2.59109 1.98873e-18)
(25.2273 2.61646 4.86029e-17)
(25.2386 2.64185 5.592e-17)
(25.2504 2.66721 4.80067e-17)
(25.2627 2.69249 7.24851e-19)
(25.2756 2.71766 2.34067e-16)
(25.2891 2.74263 -1.68414e-19)
(25.303 2.76736 -2.6163e-17)
(25.3173 2.79176 1.04851e-16)
(25.3319 2.81577 4.30495e-17)
(25.3466 2.83931 -1.1564e-16)
(25.3616 2.86234 -1.64768e-18)
(25.3766 2.88479 1.02203e-17)
(25.3918 2.90663 2.28617e-17)
(25.4071 2.92782 -4.34515e-18)
(25.4223 2.94831 -1.26082e-17)
(25.4373 2.96805 -2.11258e-16)
(25.4516 2.98699 2.67232e-16)
(25.4652 3.00509 1.4296e-16)
(25.4777 3.02238 -3.57041e-18)
(25.4892 3.03872 -2.32173e-19)
(25.4984 3.05219 -1.00401e-16)
(25.5054 3.06331 3.23763e-18)
(25.5121 3.0747 3.7468e-17)
(25.5187 3.08608 5.3325e-19)
(25.5249 3.0975 2.23855e-16)
(25.5304 3.10927 -3.42154e-19)
(25.5336 3.11889 -1.21185e-16)
(25.5328 3.13458 0)
(25.5215 3.12833 -1.82445e-17)
(25.5126 3.17734 1.24791e-17)
(25.4969 3.0859 8.88055e-17)
(25.5582 3.33042 1.41987e-19)
(25.6092 2.89064 -6.14904e-19)
(25.0065 1.75804 -4.24404e-19)
(25.2066 1.76806 8.6109e-19)
(25.2202 1.77735 -8.50331e-19)
(25.2047 1.78515 -5.86721e-19)
(25.2047 1.79422 -3.09396e-19)
(25.2055 1.8037 -1.31059e-17)
(25.2065 1.81366 1.67145e-17)
(25.2069 1.82398 -1.35298e-18)
(25.2068 1.8348 -1.03763e-17)
(25.2064 1.84602 0)
(25.2057 1.85773 -5.9874e-18)
(25.2047 1.86992 -7.0268e-19)
(25.2034 1.88261 -8.11168e-20)
(25.2019 1.89583 -2.21216e-18)
(25.2002 1.90958 -2.07403e-19)
(25.1983 1.92389 -7.84897e-18)
(25.1964 1.93878 -2.03394e-18)
(25.1944 1.95424 -1.42474e-17)
(25.1924 1.97031 2.27999e-19)
(25.1904 1.98697 3.73369e-19)
(25.1885 2.00424 3.9012e-17)
(25.1868 2.0221 2.69063e-19)
(25.1853 2.04054 -2.22681e-17)
(25.1841 2.05955 2.71572e-17)
(25.1831 2.07908 -1.45159e-18)
(25.1825 2.09913 -1.82385e-17)
(25.1822 2.11965 -8.26043e-19)
(25.1823 2.14059 -4.17929e-19)
(25.1827 2.16193 -1.80001e-17)
(25.1836 2.18362 -1.30774e-17)
(25.1849 2.20563 -5.42221e-17)
(25.1865 2.22793 2.17601e-17)
(25.1886 2.25048 2.7627e-18)
(25.1911 2.27327 -5.27809e-17)
(25.1941 2.29627 1.06195e-17)
(25.1974 2.31948 -1.69686e-17)
(25.2011 2.34288 -2.94651e-18)
(25.2053 2.36645 4.2395e-17)
(25.2099 2.39021 -1.32612e-17)
(25.2148 2.41412 -1.24987e-17)
(25.2202 2.4382 -1.05487e-17)
(25.226 2.46244 8.32635e-17)
(25.2323 2.48681 -2.02425e-19)
(25.2389 2.51133 3.48245e-17)
(25.246 2.53597 3.3137e-18)
(25.2536 2.56071 -5.52896e-18)
(25.2617 2.58554 -4.52945e-17)
(25.2703 2.61043 -3.58495e-17)
(25.2795 2.63535 -5.05611e-17)
(25.2892 2.66027 -1.82027e-16)
(25.2996 2.68515 6.65817e-17)
(25.3105 2.70993 -8.07884e-17)
(25.322 2.73456 -1.42422e-16)
(25.334 2.75899 -6.61241e-19)
(25.3464 2.78314 -6.95316e-17)
(25.3592 2.80695 -3.67167e-17)
(25.3721 2.83035 1.16286e-16)
(25.3853 2.8533 -1.72735e-18)
(25.3987 2.87573 -1.47134e-17)
(25.4123 2.89762 -2.37037e-17)
(25.4261 2.91891 -4.59808e-18)
(25.4398 2.93955 -5.21407e-19)
(25.4533 2.9595 2.08529e-16)
(25.4663 2.97869 -2.80867e-16)
(25.4786 2.99709 -1.34991e-16)
(25.4899 3.01471 -3.83631e-18)
(25.5003 3.03141 4.30009e-17)
(25.5085 3.04523 1.51061e-16)
(25.5147 3.05666 3.49874e-18)
(25.5208 3.0684 2.40766e-18)
(25.5267 3.08017 2.07232e-18)
(25.5322 3.09201 -1.39251e-16)
(25.537 3.10426 5.74584e-17)
(25.5394 3.11433 1.16567e-16)
(25.5374 3.13056 0)
(25.5259 3.12485 5.35411e-17)
(25.5149 3.17446 -3.99619e-16)
(25.5037 3.08449 -1.33518e-18)
(25.3142 1.87052 -3.0477e-19)
(25.3514 1.87357 5.86789e-19)
(25.3333 1.88028 5.40293e-19)
(25.3293 1.88628 -2.29748e-19)
(25.3313 1.89345 -1.99399e-19)
(25.332 1.90076 9.46588e-19)
(25.3324 1.90846 -1.1597e-18)
(25.3322 1.91651 2.79245e-19)
(25.3316 1.92496 4.51349e-19)
(25.3307 1.93377 0)
(25.3294 1.943 2.06847e-19)
(25.3278 1.95265 -4.75096e-19)
(25.3259 1.96273 -5.55408e-20)
(25.3237 1.97325 5.07635e-19)
(25.3211 1.98421 -1.46297e-19)
(25.3183 1.99564 1.00622e-19)
(25.3153 2.00755 -1.48593e-18)
(25.3121 2.01992 1.09267e-18)
(25.3087 2.03279 1.73178e-19)
(25.3052 2.04617 3.64491e-18)
(25.3016 2.06005 -1.58491e-18)
(25.298 2.07446 1.64902e-17)
(25.2944 2.08939 -1.12789e-17)
(25.2909 2.10486 5.75254e-19)
(25.2876 2.12087 -2.50308e-20)
(25.2844 2.13744 5.39423e-19)
(25.2814 2.15453 -7.28722e-19)
(25.2787 2.17217 -3.73847e-19)
(25.2763 2.19034 -9.65727e-19)
(25.2743 2.20902 1.6856e-18)
(25.2726 2.2282 4.26229e-19)
(25.2713 2.24786 -1.37337e-18)
(25.2704 2.26796 2.5966e-18)
(25.27 2.28849 5.50465e-17)
(25.27 2.30942 4.65524e-19)
(25.2705 2.33073 1.42601e-18)
(25.2714 2.35238 -2.83849e-18)
(25.2728 2.37436 1.10579e-18)
(25.2747 2.39665 8.87344e-19)
(25.277 2.41921 1.99028e-19)
(25.2799 2.44204 1.3542e-18)
(25.2832 2.46511 -1.86076e-18)
(25.287 2.4884 -2.00551e-19)
(25.2913 2.51191 4.63133e-18)
(25.2961 2.5356 3.30665e-18)
(25.3015 2.55945 -5.53483e-18)
(25.3074 2.58344 5.66387e-18)
(25.3139 2.60754 6.32508e-18)
(25.321 2.63172 2.52876e-18)
(25.3287 2.65595 4.41902e-18)
(25.3371 2.68018 8.48994e-19)
(25.3461 2.70437 -3.7372e-18)
(25.3557 2.72847 6.87899e-18)
(25.3658 2.75242 -6.76406e-19)
(25.3764 2.77616 -3.78972e-17)
(25.3873 2.79962 3.95041e-17)
(25.3985 2.82274 6.73942e-19)
(25.41 2.84547 -1.78821e-18)
(25.4217 2.86776 -2.42461e-18)
(25.4337 2.88956 2.0982e-17)
(25.4459 2.91084 -1.82346e-16)
(25.4581 2.93153 1.03884e-17)
(25.4702 2.95158 -1.01232e-18)
(25.4818 2.97094 3.41567e-19)
(25.4927 2.98955 4.07972e-18)
(25.5028 3.00743 -4.07449e-18)
(25.512 3.02444 -1.38057e-18)
(25.5193 3.03855 -1.91026e-18)
(25.5248 3.05026 3.74123e-18)
(25.5301 3.06232 -3.02811e-17)
(25.5352 3.07445 -8.66786e-19)
(25.54 3.08668 -2.09721e-16)
(25.544 3.09937 1.80198e-16)