/*--------------------------------*- C++ -*----------------------------------*\
| =========                 |                                                 |
| \\      /  F ield         | OpenFOAM: The Open Source CFD Toolbox           |
|  \\    /   O peration     | Version:  2506                                  |
|   \\  /    A nd           | Website:  www.openfoam.com                      |
|    \\/     M anipulation  |                                                 |
\*---------------------------------------------------------------------------*/
FoamFile
{
    version     2.0;
    format      ascii;
    arch        "LSB;label=32;scalar=64";
    class       volScalarField;
    location    "16";
    object      p;
}
// * * * * * * * * * * * * * * * * * * * * * * * * * * * * * * * * * * * * * //

dimensions      [0 2 -2 0 0 0 0];

internalField   nonuniform List<scalar> 
400
(
-3.25199e-09
-0.000108727
-0.000318851
-0.000613967
-0.00098162
-0.00138907
-0.00176204
-0.0019708
-0.00186112
-0.00130119
-0.000213239
0.001392
0.00334666
0.00509878
0.00606784
0.00594727
0.00480816
0.00354224
0.00272577
0.00259843
0.000108175
-9.15296e-06
-0.000172923
-0.000398409
-0.000682972
-0.00102529
-0.00141242
-0.0017756
-0.00195516
-0.00172695
-0.000896212
0.000574188
0.00241485
0.00415805
0.00520944
0.00520645
0.00427528
0.00302411
0.00236771
0.00233755
0.000322601
0.000161502
-8.98404e-06
-0.000263987
-0.000659906
-0.00125647
-0.00206695
-0.00298668
-0.00376828
-0.00406742
-0.0035867
-0.00228105
-0.0003989
0.00162724
0.00319614
0.00379379
0.00335907
0.0024162
0.00161351
0.0015041
0.000511687
0.000289875
5.90437e-05
-0.000362992
-0.00112324
-0.00234398
-0.00401811
-0.00592369
-0.00765776
-0.0087577
-0.00887122
-0.00793831
-0.00612882
-0.0037481
-0.00130674
0.000596418
0.00151729
0.00145047
0.000804345
0.000225757
0.000473474
0.000178046
-0.000198376
-0.000976123
-0.00240343
-0.00461845
-0.00750623
-0.0106586
-0.0135171
-0.0155661
-0.0164643
-0.0160813
-0.0144758
-0.0118374
-0.00851387
-0.00503407
-0.00209427
-0.000352416
-7.82058e-05
-0.0015838
-3.34545e-06
-0.000393045
-0.00101192
-0.00232392
-0.00464911
-0.00806822
-0.0122716
-0.0166172
-0.020427
-0.0232112
-0.0247128
-0.024809
-0.0234974
-0.0209155
-0.0172126
-0.0126184
-0.00769033
-0.00359679
-0.00189261
-0.00381144
-0.00105594
-0.00155617
-0.00248488
-0.00441989
-0.0076913
-0.0122521
-0.0175512
-0.0227395
-0.0270934
-0.0302008
-0.0319144
-0.0322173
-0.0311565
-0.0288481
-0.0253224
-0.0204973
-0.0144883
-0.00838038
-0.00481402
-0.00533056
-0.00267714
-0.00328402
-0.00452715
-0.00703972
-0.0111022
-0.0165262
-0.0225434
-0.028176
-0.0327306
-0.0359007
-0.0376301
-0.0379681
-0.0370258
-0.0349389
-0.0317505
-0.0272733
-0.0212275
-0.0140703
-0.00826944
-0.0057249
-0.00470021
-0.00537581
-0.00687334
-0.00981102
-0.0143971
-0.0203394
-0.0267286
-0.032538
-0.0371391
-0.0403094
-0.0420306
-0.0423612
-0.0414236
-0.0393924
-0.0364192
-0.0324175
-0.0269353
-0.0197454
-0.0123247
-0.00709828
-0.00685441
-0.00753237
-0.00918268
-0.0123435
-0.0171616
-0.0233107
-0.0298295
-0.0356933
-0.0403248
-0.0435361
-0.0452994
-0.0456364
-0.044644
-0.0425242
-0.0395598
-0.0358657
-0.0311002
-0.0245924
-0.0169918
-0.0102777
-0.00886007
-0.00947179
-0.0111516
-0.0143267
-0.0191092
-0.0252077
-0.0316871
-0.0375539
-0.0422421
-0.0455448
-0.0473915
-0.0477525
-0.0466786
-0.0443916
-0.0412848
-0.037692
-0.0335453
-0.0279813
-0.0211726
-0.0141262
-0.0105052
-0.0109924
-0.0125748
-0.0155556
-0.0200675
-0.025881
-0.0321681
-0.0379928
-0.0427528
-0.0461696
-0.0481098
-0.0485001
-0.0473407
-0.0448767
-0.0415702
-0.0379389
-0.0342579
-0.0295395
-0.0237222
-0.016843
-0.0117189
-0.0120093
-0.0133333
-0.0159247
-0.0199551
-0.0252698
-0.0312144
-0.0369268
-0.0417408
-0.0452695
-0.0472987
-0.047717
-0.0465054
-0.0439067
-0.0404234
-0.0366605
-0.0333038
-0.0291297
-0.0241387
-0.0174009
-0.0125055
-0.0125502
-0.0134432
-0.0154205
-0.0187444
-0.0233827
-0.0288535
-0.0343691
-0.0391971
-0.0428308
-0.0449607
-0.0454272
-0.0442238
-0.0415523
-0.0379581
-0.0341293
-0.0308126
-0.0268925
-0.0227438
-0.0156219
-0.0129176
-0.0127033
-0.0130117
-0.014175
-0.0166084
-0.020429
-0.0253096
-0.0305388
-0.0353343
-0.0390729
-0.0413437
-0.0419272
-0.0407984
-0.0381387
-0.034515
-0.0306239
-0.0271996
-0.0233656
-0.0203808
-0.0115297
-0.0130603
-0.0126075
-0.0121303
-0.0123074
-0.0137584
-0.0167158
-0.0209629
-0.0258583
-0.0305969
-0.0344578
-0.03693
-0.0377214
-0.0367901
-0.0342555
-0.0306723
-0.026691
-0.0230445
-0.0191252
-0.0170552
-0.00377897
-0.0130061
-0.0123843
-0.0109416
-0.0100703
-0.0105757
-0.0127582
-0.0164504
-0.0210504
-0.0257553
-0.0297771
-0.0325231
-0.033609
-0.0329509
-0.0306739
-0.0271621
-0.0229563
-0.0187075
-0.0139803
-0.0098355
0.0128181
-0.0137314
-0.0122024
-0.00931259
-0.00741732
-0.0072056
-0.00889145
-0.0122648
-0.0167234
-0.0214963
-0.0257572
-0.0288769
-0.0303801
-0.0301182
-0.0280781
-0.0245522
-0.0197325
-0.0138558
-0.00526921
0.00936877
0.0505144
-0.0117656
-0.0124934
-0.00816007
-0.0051525
-0.00439356
-0.00586441
-0.00917314
-0.0136655
-0.0186161
-0.0231642
-0.0266954
-0.0286536
-0.0288562
-0.0270677
-0.0232678
-0.0167582
-0.0063529
0.0132055
0.0511016
0.121407
-0.0294233
-0.0121196
-0.00411558
-0.00131118
-0.00116811
-0.00299209
-0.0065288
-0.0112287
-0.0163987
-0.0211857
-0.0249777
-0.0272209
-0.0276965
-0.0259946
-0.0215343
-0.0122694
0.00602423
0.0439626
0.113963
0.218048
)
;

boundaryField
{
    movingWall
    {
        type            zeroGradient;
    }
    fixedWalls
    {
        type            zeroGradient;
    }
    frontAndBack
    {
        type            empty;
    }
}


// ************************************************************************* //
