/*--------------------------------*- C++ -*----------------------------------*\
| =========                 |                                                 |
| \\      /  F ield         | OpenFOAM: The Open Source CFD Toolbox           |
|  \\    /   O peration     | Version:  2506                                  |
|   \\  /    A nd           | Website:  www.openfoam.com                      |
|    \\/     M anipulation  |                                                 |
\*---------------------------------------------------------------------------*/
FoamFile
{
    version     2.0;
    format      ascii;
    arch        "LSB;label=32;scalar=64";
    class       volVectorField;
    location    "16";
    object      U;
}
// * * * * * * * * * * * * * * * * * * * * * * * * * * * * * * * * * * * * * //

dimensions      [0 1 -1 0 0 0 0];

internalField   nonuniform List<vector> 
400
(
(0.000690074 -0.000780765 0)
(0.00158514 -0.000675984 0)
(0.00145084 -0.000393732 0)
(7.0429e-05 -4.45002e-05 0)
(-0.00304682 0.000513082 0)
(-0.0086462 0.00146246 0)
(-0.0174332 0.00296327 0)
(-0.0295229 0.00490629 0)
(-0.0437233 0.00658542 0)
(-0.0572434 0.0068586 0)
(-0.0666091 0.00506801 0)
(-0.0691223 0.00170318 0)
(-0.0634242 -0.0021096 0)
(-0.0493676 -0.00575649 0)
(-0.0298346 -0.00790165 0)
(-0.0082396 -0.0073618 0)
(0.00905341 -0.00420722 0)
(0.0159041 0.00128715 0)
(0.0112694 0.00428484 0)
(0.00324791 0.00331685 0)
(0.000137963 -0.00151635 0)
(-0.00122413 -2.88387e-05 0)
(-0.00565358 0.00217412 0)
(-0.0135077 0.00509942 0)
(-0.0260892 0.00925007 0)
(-0.0444395 0.0147196 0)
(-0.0680543 0.0206765 0)
(-0.0939456 0.024976 0)
(-0.117417 0.0250376 0)
(-0.134283 0.0197116 0)
(-0.142057 0.0098962 0)
(-0.139774 -0.00241923 0)
(-0.127822 -0.0152911 0)
(-0.106392 -0.0267337 0)
(-0.0776412 -0.0335207 0)
(-0.0442208 -0.0323105 0)
(-0.0112867 -0.0214917 0)
(0.0110623 -0.00318083 0)
(0.0130127 0.010836 0)
(0.00441508 0.010763 0)
(-0.00118304 0.000371651 0)
(-0.00661488 0.00565163 0)
(-0.017342 0.012011 0)
(-0.0332161 0.0204142 0)
(-0.0555993 0.0311105 0)
(-0.0842254 0.0423303 0)
(-0.115873 0.0505198 0)
(-0.145611 0.0519912 0)
(-0.169385 0.0451579 0)
(-0.185108 0.0310063 0)
(-0.191925 0.0116816 0)
(-0.189831 -0.0105947 0)
(-0.179167 -0.0337039 0)
(-0.159664 -0.0545391 0)
(-0.131323 -0.0687479 0)
(-0.0946234 -0.0705614 0)
(-0.0519987 -0.0545344 0)
(-0.0112615 -0.0212499 0)
(0.00774064 0.0112504 0)
(0.0039096 0.0177814 0)
(-0.00284369 0.0060949 0)
(-0.0129778 0.0174559 0)
(-0.0302783 0.0292215 0)
(-0.0534499 0.0440158 0)
(-0.0831166 0.0607109 0)
(-0.117237 0.0748744 0)
(-0.151073 0.0813078 0)
(-0.180053 0.0770715 0)
(-0.201928 0.0627599 0)
(-0.216215 0.0408337 0)
(-0.223044 0.0135847 0)
(-0.22302 -0.0171745 0)
(-0.216437 -0.0493914 0)
(-0.202552 -0.0800972 0)
(-0.179809 -0.104671 0)
(-0.146188 -0.115684 0)
(-0.100482 -0.103237 0)
(-0.0456469 -0.0599697 0)
(-0.000648825 -0.000933286 0)
(0.00444787 0.0219778 0)
(-0.0043762 0.0156679 0)
(-0.0186984 0.0349227 0)
(-0.0412869 0.0524746 0)
(-0.0693579 0.0730513 0)
(-0.102569 0.0935942 0)
(-0.137454 0.107539 0)
(-0.168874 0.109668 0)
(-0.193532 0.098975 0)
(-0.210883 0.0780052 0)
(-0.221687 0.0499018 0)
(-0.227152 0.0168517 0)
(-0.228504 -0.0197308 0)
(-0.226134 -0.0584069 0)
(-0.219376 -0.0972985 0)
(-0.206168 -0.133011 0)
(-0.182494 -0.15821 0)
(-0.143641 -0.159845 0)
(-0.0865005 -0.12046 0)
(-0.0175113 -0.0346361 0)
(0.0061931 0.0215937 0)
(-0.00527794 0.0281559 0)
(-0.022246 0.0563265 0)
(-0.0476687 0.0791369 0)
(-0.0772843 0.103875 0)
(-0.109931 0.125755 0)
(-0.141372 0.137121 0)
(-0.166944 0.133784 0)
(-0.18485 0.116771 0)
(-0.195875 0.0900938 0)
(-0.201752 0.0574319 0)
(-0.204506 0.0211491 0)
(-0.205716 -0.0175069 0)
(-0.206019 -0.0581307 0)
(-0.205489 -0.100705 0)
(-0.202587 -0.144278 0)
(-0.192539 -0.183992 0)
(-0.168052 -0.206892 0)
(-0.121631 -0.188479 0)
(-0.0507113 -0.100096 0)
(0.00461485 0.0114135 0)
(-0.00519006 0.041893 0)
(-0.0226257 0.0791876 0)
(-0.0479702 0.106108 0)
(-0.0758677 0.13301 0)
(-0.104766 0.154086 0)
(-0.130355 0.16144 0)
(-0.148969 0.152241 0)
(-0.160207 0.129319 0)
(-0.165753 0.0978521 0)
(-0.167755 0.0619909 0)
(-0.168194 0.0242352 0)
(-0.168358 -0.0142986 0)
(-0.169068 -0.0537656 0)
(-0.171385 -0.0954133 0)
(-0.175134 -0.140716 0)
(-0.176716 -0.18912 0)
(-0.168154 -0.231926 0)
(-0.139638 -0.243839 0)
(-0.0853687 -0.17916 0)
(-0.00645975 -0.0133246 0)
(-0.00404225 0.0549075 0)
(-0.0197078 0.100989 0)
(-0.0423894 0.130822 0)
(-0.0662153 0.158167 0)
(-0.0896606 0.177047 0)
(-0.108906 0.179857 0)
(-0.121483 0.165093 0)
(-0.128052 0.137064 0)
(-0.130727 0.101822 0)
(-0.131536 0.063702 0)
(-0.13174 0.0249578 0)
(-0.131701 -0.0135332 0)
(-0.131895 -0.0517361 0)
(-0.133833 -0.0906192 0)
(-0.138948 -0.132813 0)
(-0.146272 -0.182097 0)
(-0.149293 -0.236994 0)
(-0.137093 -0.277247 0)
(-0.10203 -0.247479 0)
(-0.0254856 -0.0633775 0)
(-0.00208099 0.0653087 0)
(-0.0141594 0.119466 0)
(-0.0323203 0.151293 0)
(-0.0507392 0.177894 0)
(-0.0681802 0.194057 0)
(-0.0816338 0.192763 0)
(-0.0897659 0.173565 0)
(-0.0938429 0.141814 0)
(-0.0959287 0.104073 0)
(-0.0975162 0.0645485 0)
(-0.0989294 0.0249703 0)
(-0.0996884 -0.0141092 0)
(-0.09982 -0.0522412 0)
(-0.100519 -0.0891783 0)
(-0.104117 -0.126993 0)
(-0.112347 -0.172002 0)
(-0.121763 -0.23069 0)
(-0.120949 -0.29288 0)
(-0.100923 -0.302643 0)
(-0.0339821 -0.139909 0)
(0.000260419 0.0716621 0)
(-0.00699136 0.133079 0)
(-0.0194671 0.166547 0)
(-0.0318615 0.191989 0)
(-0.0432624 0.20571 0)
(-0.0516177 0.201408 0)
(-0.056517 0.179345 0)
(-0.0593477 0.145477 0)
(-0.0617079 0.106567 0)
(-0.064408 0.0664998 0)
(-0.0671202 0.0263836 0)
(-0.0690661 -0.0136018 0)
(-0.0700424 -0.0526601 0)
(-0.0705837 -0.0892142 0)
(-0.0727803 -0.123715 0)
(-0.0797214 -0.162469 0)
(-0.0919836 -0.218286 0)
(-0.0986108 -0.294046 0)
(-0.0918501 -0.340958 0)
(-0.0300305 -0.216137 0)
(0.00250137 0.0730725 0)
(0.000620889 0.140669 0)
(-0.0056086 0.175831 0)
(-0.0118129 0.200047 0)
(-0.017296 0.211919 0)
(-0.0208927 0.206009 0)
(-0.0229124 0.182873 0)
(-0.0245638 0.148564 0)
(-0.0268018 0.10968 0)
(-0.0298634 0.069745 0)
(-0.0332052 0.0294627 0)
(-0.0362359 -0.011177 0)
(-0.038719 -0.0512278 0)
(-0.0407083 -0.0882965 0)
(-0.043502 -0.121247 0)
(-0.0497402 -0.154487 0)
(-0.06353 -0.204089 0)
(-0.0747362 -0.286621 0)
(-0.0799982 -0.36504 0)
(-0.0229343 -0.279182 0)
(0.00426834 0.0698117 0)
(0.00773206 0.142079 0)
(0.00777623 0.179228 0)
(0.00768431 0.202648 0)
(0.00808772 0.213512 0)
(0.00934562 0.20723 0)
(0.0105868 0.184425 0)
(0.010807 0.150874 0)
(0.00961133 0.112783 0)
(0.00716738 0.0734502 0)
(0.00400961 0.033532 0)
(0.000264467 -0.00695134 0)
(-0.00388451 -0.0469934 0)
(-0.00839237 -0.0842311 0)
(-0.0139262 -0.116455 0)
(-0.0214216 -0.145719 0)
(-0.037434 -0.188141 0)
(-0.0517204 -0.272425 0)
(-0.0686192 -0.377775 0)
(-0.0152219 -0.332091 0)
(0.00510075 0.0628088 0)
(0.013191 0.137434 0)
(0.0191106 0.17632 0)
(0.0248131 0.198952 0)
(0.0309286 0.209218 0)
(0.0372973 0.203653 0)
(0.0426948 0.182604 0)
(0.0460155 0.151066 0)
(0.0470363 0.114651 0)
(0.0460886 0.0765781 0)
(0.0437007 0.037725 0)
(0.0396202 -0.00186637 0)
(0.0339831 -0.0407252 0)
(0.0265485 -0.0769182 0)
(0.0168833 -0.108032 0)
(0.00594989 -0.134375 0)
(-0.0136486 -0.17052 0)
(-0.0293608 -0.253137 0)
(-0.0580008 -0.380807 0)
(-0.00730956 -0.374915 0)
(0.00475736 0.053589 0)
(0.0160363 0.127601 0)
(0.0271779 0.168099 0)
(0.0383432 0.190271 0)
(0.0500774 0.200069 0)
(0.0618313 0.195773 0)
(0.0721678 0.177397 0)
(0.0797082 0.148836 0)
(0.0840419 0.11492 0)
(0.0853767 0.0788344 0)
(0.0841434 0.0419072 0)
(0.080065 0.00450742 0)
(0.0730587 -0.0318719 0)
(0.0627554 -0.0657548 0)
(0.0487272 -0.094969 0)
(0.0328324 -0.11888 0)
(0.00805458 -0.149672 0)
(-0.00724048 -0.229512 0)
(-0.0482702 -0.377899 0)
(0.00117743 -0.411496 0)
(0.00324018 0.0442749 0)
(0.015295 0.114357 0)
(0.0299175 0.154198 0)
(0.0456277 0.174796 0)
(0.062769 0.183535 0)
(0.0802773 0.180512 0)
(0.0963342 0.165493 0)
(0.10916 0.141094 0)
(0.117917 0.111137 0)
(0.122464 0.0785558 0)
(0.122985 0.0450564 0)
(0.119355 0.011417 0)
(0.111017 -0.0210903 0)
(0.0981415 -0.0511912 0)
(0.079665 -0.0772128 0)
(0.0586831 -0.0991108 0)
(0.0284317 -0.12602 0)
(0.0148358 -0.203416 0)
(-0.0390519 -0.372302 0)
(0.0112532 -0.443572 0)
(0.000762581 0.0367073 0)
(0.0110884 0.10046 0)
(0.0277248 0.13863 0)
(0.047054 0.157158 0)
(0.0689444 0.16394 0)
(0.0918534 0.161165 0)
(0.113609 0.149001 0)
(0.132012 0.128997 0)
(0.145693 0.103876 0)
(0.154117 0.0760673 0)
(0.156937 0.0473271 0)
(0.154406 0.018752 0)
(0.145276 -0.00867757 0)
(0.130518 -0.0336503 0)
(0.108168 -0.0552521 0)
(0.0830542 -0.074695 0)
(0.0481232 -0.0997346 0)
(0.0358949 -0.176911 0)
(-0.0290965 -0.366254 0)
(0.0252714 -0.47034 0)
(-0.00292228 0.036489 0)
(0.000379466 0.0888669 0)
(0.0150526 0.116788 0)
(0.0377119 0.130469 0)
(0.0646054 0.135023 0)
(0.0931832 0.132523 0)
(0.120772 0.123345 0)
(0.144982 0.108336 0)
(0.163922 0.0892989 0)
(0.176771 0.0679973 0)
(0.182535 0.0460345 0)
(0.181748 0.0243926 0)
(0.172748 0.00401508 0)
(0.157814 -0.0145026 0)
(0.133275 -0.0305876 0)
(0.10687 -0.0474685 0)
(0.0693335 -0.0731853 0)
(0.0567155 -0.152875 0)
(-0.0123339 -0.355418 0)
(0.0481608 -0.48235 0)
(-0.00806547 0.0273523 0)
(-0.00807703 0.0867898 0)
(0.003044 0.107056 0)
(0.0265136 0.110861 0)
(0.0565019 0.109288 0)
(0.0888206 0.104793 0)
(0.120509 0.0972115 0)
(0.148776 0.0862646 0)
(0.171674 0.073086 0)
(0.188443 0.0584243 0)
(0.19725 0.0437828 0)
(0.199998 0.0295462 0)
(0.193229 0.0169602 0)
(0.182542 0.00535476 0)
(0.160519 -0.00489477 0)
(0.140787 -0.0196251 0)
(0.103984 -0.0479705 0)
(0.0906309 -0.131009 0)
(0.0289615 -0.322181 0)
(0.0892418 -0.452864 0)
(-0.102031 0.0888146 0)
(-0.0757876 0.0722408 0)
(-0.054261 0.0651982 0)
(-0.0136666 0.0637865 0)
(0.0277848 0.0621146 0)
(0.0699449 0.0593296 0)
(0.109609 0.0553606 0)
(0.147187 0.0496981 0)
(0.177995 0.0433464 0)
(0.206201 0.0361797 0)
(0.224065 0.029468 0)
(0.241301 0.0228897 0)
(0.244998 0.0176716 0)
(0.25216 0.0127302 0)
(0.240818 0.00799506 0)
(0.23896 -0.00179894 0)
(0.205802 -0.0264731 0)
(0.202659 -0.0898408 0)
(0.144871 -0.228818 0)
(0.169579 -0.341132 0)
(0.132567 0.106193 0)
(0.163983 0.0806927 0)
(0.220523 0.0587831 0)
(0.277289 0.0456869 0)
(0.324945 0.0381795 0)
(0.370437 0.0329333 0)
(0.408357 0.0293009 0)
(0.448046 0.0258294 0)
(0.477637 0.0232947 0)
(0.511048 0.0202779 0)
(0.530248 0.0183562 0)
(0.556878 0.0155594 0)
(0.564619 0.0143866 0)
(0.585324 0.0117516 0)
(0.579742 0.0111628 0)
(0.59211 0.00687316 0)
(0.560537 0.00212514 0)
(0.545585 -0.0166273 0)
(0.438097 -0.0494807 0)
(0.338671 -0.101009 0)
)
;

boundaryField
{
    movingWall
    {
        type            fixedValue;
        value           uniform (1 0 0);
    }
    fixedWalls
    {
        type            noSlip;
    }
    frontAndBack
    {
        type            empty;
    }
}


// ************************************************************************* //
