/*--------------------------------*- C++ -*----------------------------------*\
| =========                 |                                                 |
| \\      /  F ield         | OpenFOAM: The Open Source CFD Toolbox           |
|  \\    /   O peration     | Version:  2506                                  |
|   \\  /    A nd           | Website:  www.openfoam.com                      |
|    \\/     M anipulation  |                                                 |
\*---------------------------------------------------------------------------*/
FoamFile
{
    version     2.0;
    format      ascii;
    arch        "LSB;label=32;scalar=64";
    class       volScalarField;
    location    "200";
    object      turbulenceProperties:L;
}
// * * * * * * * * * * * * * * * * * * * * * * * * * * * * * * * * * * * * * //

dimensions      [0 1 0 0 0 0 0];

internalField   nonuniform List<scalar> 
1340
(
0.056085
0.056209
0.0564348
0.0565566
0.212326
0.207346
0.198238
0.17513
0.258672
0.261594
0.273153
0.245736
0.234114
0.245846
0.257616
0.242238
0.0784646
0.114005
0.111173
0.192372
0.0486663
0.0650363
0.0608696
0.0995159
0.191997
0.331192
3.13669
0.0223573
0.0476229
0.0553026
0.291431
0.056598
0.0434921
0.0419643
0.0410019
0.464947
0.0473123
0.0476324
0.0373335
0.0670093
0.0470242
0.0471474
0.0397824
0.0356445
0.048822
0.0486053
0.0429367
0.0340161
0.0497705
0.0494812
0.0447471
0.0354828
0.0512158
0.0510548
0.0465191
0.0374099
0.0526287
0.0526052
0.0483735
0.0393981
0.0542872
0.0544148
0.050455
0.0415048
0.0561042
0.0564007
0.0527184
0.0437901
0.0581498
0.0586426
0.0551975
0.0462839
0.0604395
0.0611633
0.0579265
0.0490127
0.0630212
0.0640204
0.0609387
0.0519891
0.0659458
0.0672776
0.0642922
0.055247
0.0692779
0.0710121
0.0680436
0.0588125
0.0730919
0.0753323
0.0722696
0.0627127
0.077484
0.0803716
0.0770765
0.0669946
0.0825895
0.0863292
0.0825777
0.0716867
0.0885796
0.0934817
0.0889308
0.0768307
0.0956708
0.102236
0.0963281
0.0824517
0.104145
0.113235
0.10502
0.0885762
0.114368
0.127567
0.115286
0.0951989
0.126766
0.147262
0.127384
0.102257
0.141655
0.176797
0.14133
0.109604
0.1586
0.228611
0.156413
0.116978
0.174908
0.363686
0.170341
0.124014
0.184849
0.583998
0.179241
0.130281
0.184527
0.289127
0.180673
0.135385
0.177152
0.224358
0.176398
0.139126
0.168022
0.193818
0.169898
0.141576
0.159841
0.175975
0.163435
0.142977
0.136236
0.15331
0.16456
0.157971
0.143688
0.135267
0.14845
0.156937
0.153722
0.144065
0.134549
0.14498
0.151785
0.150597
0.144343
0.134211
0.142675
0.148391
0.148474
0.144703
0.134325
0.141358
0.146328
0.147233
0.145276
0.134909
0.140878
0.145314
0.14676
0.146134
0.135955
0.141116
0.145151
0.14696
0.147315
0.137462
0.141996
0.145716
0.147764
0.148843
0.139419
0.143457
0.146925
0.149126
0.15074
0.141803
0.14544
0.148697
0.150993
0.153003
0.144601
0.147908
0.150984
0.153329
0.155627
0.147814
0.150846
0.153763
0.156125
0.158629
0.15145
0.154249
0.157022
0.159377
0.162024
0.155507
0.158112
0.160754
0.163082
0.165822
0.157669
0.160018
0.162457
0.164975
0.167262
0.170053
0.162849
0.165033
0.167308
0.169716
0.171949
0.17476
0.16854
0.170569
0.172705
0.175008
0.177178
0.179986
0.174769
0.176662
0.178671
0.180873
0.182968
0.185758
0.181535
0.183304
0.185197
0.187302
0.189316
0.19208
0.18881
0.190467
0.192252
0.194265
0.196192
0.198923
0.196561
0.198115
0.199799
0.201722
0.203561
0.206251
0.204801
0.206263
0.207852
0.209687
0.211434
0.214073
0.213622
0.215012
0.216509
0.218256
0.21991
0.22248
0.222047
0.223241
0.224566
0.225978
0.227639
0.22919
0.231673
0.232765
0.233918
0.235168
0.236505
0.238078
0.239511
0.241893
0.244742
0.245855
0.247048
0.248311
0.249792
0.251088
0.253363
0.258069
0.259149
0.260289
0.261476
0.262861
0.263996
0.266168
0.272767
0.273825
0.27492
0.276031
0.27732
0.278284
0.280377
0.288511
0.289559
0.290616
0.291641
0.292805
0.293558
0.295501
0.303948
0.305042
0.306114
0.307107
0.308206
0.308784
0.31054
0.318316
0.319514
0.320657
0.321697
0.32283
0.323341
0.325051
0.333055
0.334399
0.335665
0.336805
0.338021
0.338527
0.340229
0.349423
0.350955
0.352365
0.353612
0.35492
0.355431
0.357138
0.366427
0.368443
0.370345
0.372028
0.373457
0.374823
0.375118
0.376043
0.388651
0.391574
0.39437
0.396971
0.399293
0.401501
0.402927
0.405518
0.423446
0.427453
0.430995
0.433951
0.436096
0.437355
0.435336
0.431093
0.491996
0.504542
0.516856
0.528369
0.538745
0.547784
0.555155
0.567482
0.550219
0.554923
0.555989
0.553004
0.544542
0.530646
0.501943
0.467205
0.523382
0.524842
0.526624
0.529094
0.530959
0.522947
0.481332
0.446018
0.317125
0.311374
0.306616
0.302416
0.297783
0.291334
0.277069
0.26668
0.231678
0.231334
0.231092
0.230932
0.230822
0.230434
0.228132
0.233695
0.167501
0.167481
0.167534
0.16763
0.167827
0.167933
0.168629
0.175088
0.14211
0.180846
0.229189
0.222666
0.157693
0.0586663
0.0229583
0.0529644
0.378592
0.0472039
0.0331037
0.0330572
0.0346852
0.0364893
0.0383243
0.040265
0.0423665
0.0446462
0.0471146
0.0497925
0.0526925
0.0558308
0.0592243
0.0628886
0.0668397
0.0710816
0.0756166
0.0804416
0.0855373
0.0908614
0.0963426
0.101885
0.107377
0.112685
0.117667
0.122215
0.126262
0.129786
0.132835
0.135501
0.137872
0.140056
0.142161
0.144278
0.146473
0.14881
0.151342
0.154098
0.157101
0.160389
0.163993
0.167939
0.172268
0.17703
0.182275
0.188037
0.194321
0.201106
0.208359
0.216097
0.224409
0.233497
0.24359
0.254902
0.267507
0.281499
0.296328
0.311082
0.325319
0.34025
0.356985
0.37526
0.405343
0.426394
0.572641
0.44736
0.467752
0.269049
0.248721
0.185798
0.215005
0.221364
0.254908
0.260706
0.164304
0.0899883
3.05937
2.29082
0.25376
0.0485542
0.0431462
0.0437577
0.0451336
0.046496
0.0478649
0.0493357
0.0509457
0.0527184
0.0546529
0.0567681
0.0590718
0.0615792
0.0643045
0.067246
0.0704156
0.0738157
0.0774404
0.0812819
0.0853291
0.0895518
0.0939122
0.0983637
0.102856
0.107326
0.111705
0.115942
0.119983
0.123793
0.12737
0.130726
0.13388
0.136876
0.139768
0.14261
0.145453
0.148351
0.151357
0.154502
0.15782
0.16136
0.165157
0.169249
0.173683
0.178517
0.183804
0.189578
0.195849
0.202595
0.209793
0.217467
0.225714
0.234734
0.244752
0.255967
0.268439
0.282272
0.296936
0.311591
0.325691
0.340425
0.357034
0.375113
0.405219
0.425133
0.575327
0.436693
0.500696
0.268491
0.249953
0.18369
0.271751
0.258098
0.260707
0.250221
0.0842079
0.0440233
4.06892
7.52582
0.0933105
0.0553748
0.0555798
0.0570429
0.0586694
0.060141
0.0615954
0.0631127
0.0646948
0.0663567
0.068112
0.0699407
0.0718684
0.0738984
0.0760534
0.078324
0.0807259
0.0832775
0.0859793
0.0888327
0.0918463
0.0950081
0.0983071
0.101728
0.105249
0.108841
0.11247
0.116109
0.119723
0.123283
0.126777
0.130199
0.133537
0.136809
0.140034
0.143237
0.146447
0.149701
0.153037
0.156479
0.16006
0.163826
0.167813
0.172061
0.176622
0.181557
0.186917
0.19274
0.199034
0.205779
0.212958
0.220602
0.22882
0.237812
0.247801
0.258976
0.27138
0.285122
0.2997
0.314297
0.328253
0.342726
0.359149
0.376988
0.406868
0.426298
0.571454
0.432382
0.518471
0.269576
0.252523
0.183473
0.311344
0.287676
0.255816
0.158268
0.0828179
0
1.98279
0.233187
0.0743803
0.0664832
0.068754
0.0700652
0.071443
0.0726854
0.0740003
0.0754105
0.0768827
0.078431
0.0800539
0.081723
0.083465
0.0852586
0.0871185
0.0890482
0.0910432
0.093116
0.0952782
0.0975323
0.099888
0.102348
0.104915
0.107594
0.110379
0.113266
0.116245
0.119304
0.122428
0.125602
0.128816
0.132064
0.135328
0.138609
0.141918
0.145257
0.14864
0.152088
0.155624
0.159263
0.163032
0.166968
0.171106
0.175483
0.180152
0.185172
0.190598
0.196462
0.202774
0.209514
0.216672
0.224282
0.232464
0.241421
0.25137
0.26249
0.274811
0.28844
0.302888
0.317335
0.331059
0.345214
0.361364
0.378836
0.408239
0.427063
0.562903
0.429317
0.526783
0.270939
0.255813
0.184163
0.340169
0.305628
0.206579
0.152732
0
6.2331
0.705037
0.10506
0.0768491
0.0774838
0.0795784
0.0802792
0.081071
0.081795
0.0826327
0.0835553
0.0845668
0.0856909
0.0869106
0.0882355
0.0896773
0.091227
0.0928738
0.094638
0.0965037
0.0984558
0.100514
0.102661
0.104893
0.107212
0.109614
0.112102
0.114668
0.117319
0.120053
0.122862
0.125751
0.128711
0.131745
0.13485
0.138014
0.141244
0.144545
0.14791
0.151352
0.154883
0.158516
0.162259
0.166133
0.17017
0.174397
0.178853
0.183585
0.188652
0.194107
0.19998
0.206277
0.212982
0.220089
0.22764
0.235758
0.244648
0.254514
0.265531
0.277705
0.29115
0.305389
0.319602
0.333027
0.346829
0.362648
0.379684
0.408423
0.426393
0.55196
0.424676
0.532963
0.270886
0.257596
0.184259
0.362194
0.316613
0.112335
0.0608279
0.0982693
6.57986
0.143823
0.0871297
0.0839982
0.0868817
0.0880042
0.0884324
0.0890209
0.0896269
0.090347
0.091128
0.092005
0.0929758
0.0940213
0.0951624
0.0963951
0.0977243
0.0991398
0.100663
0.102286
0.104002
0.105833
0.107764
0.109798
0.111938
0.114178
0.11652
0.118952
0.121478
0.124094
0.126789
0.129571
0.132428
0.13537
0.138391
0.141485
0.144664
0.14793
0.151278
0.154722
0.15827
0.16193
0.16571
0.169626
0.173705
0.177971
0.18246
0.187217
0.192297
0.19775
0.203604
0.20986
0.216507
0.223542
0.231014
0.23905
0.24785
0.25761
0.268488
0.280476
0.293691
0.307681
0.321621
0.334703
0.348125
0.363567
0.380123
0.408083
0.425027
0.540318
0.419277
0.540663
0.27029
0.376165
0.150321
0.180428
1.79753
1.64251
0.202108
0.101659
0.0945323
0.0970848
0.0990723
0.0992022
0.0993765
0.0996968
0.100074
0.100559
0.101105
0.101754
0.102503
0.103332
0.10426
0.105276
0.106388
0.107601
0.108906
0.110299
0.111792
0.113385
0.115063
0.116846
0.118729
0.12071
0.122797
0.124982
0.127269
0.129659
0.132148
0.134739
0.137424
0.140212
0.143096
0.146072
0.149154
0.152334
0.155616
0.159012
0.162522
0.166157
0.169921
0.173829
0.177906
0.182169
0.186654
0.191403
0.196469
0.201894
0.207704
0.213902
0.220472
0.227421
0.234801
0.242741
0.251436
0.261074
0.271793
0.283569
0.296529
0.310247
0.323879
0.336574
0.349582
0.364593
0.380611
0.407685
0.423454
0.52859
0.414021
0.330176
0.112224
0.343844
2.75591
0.318839
0.116772
0.105889
0.108229
0.110767
0.111101
0.110832
0.110879
0.111018
0.111236
0.111551
0.111942
0.112433
0.113019
0.113689
0.114452
0.115301
0.116238
0.117275
0.118397
0.119597
0.120893
0.122276
0.123742
0.125306
0.126961
0.128708
0.130556
0.132497
0.134538
0.136685
0.138935
0.141293
0.143758
0.146336
0.149027
0.15183
0.154753
0.157793
0.160956
0.164249
0.16767
0.17123
0.174932
0.178789
0.18282
0.187041
0.191486
0.196194
0.201213
0.206582
0.212323
0.218438
0.224912
0.231755
0.239025
0.246853
0.255425
0.264916
0.275452
0.286985
0.299659
0.313066
0.326338
0.338598
0.351153
0.365678
0.381117
0.407183
0.421642
0.100261
0
8.37251
1.04612
0.129643
0.116372
0.118796
0.121764
0.122243
0.121695
0.121395
0.121319
0.121313
0.121408
0.1216
0.121891
0.122288
0.122777
0.12336
0.124037
0.124807
0.125665
0.126608
0.127643
0.12875
0.129934
0.131203
0.132554
0.13399
0.135507
0.137112
0.138807
0.140584
0.142461
0.144436
0.146506
0.148684
0.150967
0.153361
0.155873
0.158505
0.161261
0.164147
0.167166
0.170325
0.173625
0.177076
0.180679
0.184447
0.188395
0.192538
0.196907
0.201538
0.206476
0.211758
0.2174
0.223401
0.229753
0.236467
0.243604
0.251295
0.259715
0.269029
0.279345
0.290595
0.302942
0.316002
0.328859
0.340644
0.352718
0.36669
0
0.333189
10.388
0.145439
0.125433
0.130174
0.132948
0.133597
0.132845
0.13223
0.131935
0.13174
0.131627
0.131625
0.131724
0.131918
0.132225
0.132632
0.133132
0.133729
0.134421
0.135206
0.136075
0.137029
0.138055
0.139155
0.140341
0.141605
0.142948
0.144366
0.14587
0.147454
0.149113
0.150871
0.152717
0.154654
0.156694
0.158833
0.161082
0.163445
0.165927
0.168536
0.171274
0.174149
0.17717
0.180336
0.18366
0.187142
0.190795
0.194631
0.198665
0.202927
0.207449
0.212274
0.21743
0.222939
0.228798
0.234999
0.241557
0.248533
0.256058
0.264306
0.273411
0.283468
0.294394
0.306363
0.995923
9.07379
0.165196
0.13485
0.140803
0.144887
0.144917
0.144191
0.14337
0.142924
0.14262
0.142381
0.142243
0.142206
0.142278
0.142443
0.142712
0.143085
0.143546
0.144102
0.144748
0.145482
0.146293
0.147176
0.148127
0.14915
0.150257
0.151433
0.152683
0.154003
0.1554
0.156872
0.158418
0.160054
0.161772
0.16358
0.165483
0.16748
0.169586
0.171805
0.17414
0.176599
0.179186
0.181915
0.18479
0.187813
0.190997
0.194343
0.197861
0.201564
0.205464
0.20959
0.21397
0.218648
0.223659
0.229006
0.234693
0.240714
0.24709
0.253883
0.261202
4.30244
0.1749
0.143102
0.150921
0.156062
0.155902
0.154929
0.154186
0.153679
0.153366
0.153104
0.152915
0.152826
0.152828
0.15294
0.153138
0.15343
0.153825
0.154302
0.154872
0.155525
0.156256
0.157048
0.157906
0.158827
0.159814
0.160875
0.161995
0.163178
0.164421
0.165731
0.167107
0.168551
0.170076
0.171675
0.173356
0.175124
0.17698
0.178943
0.181011
0.183186
0.18549
0.187932
0.190502
0.19322
0.196091
0.199122
0.202317
0.205683
0.209231
0.212975
0.216945
0.221163
0.225646
0.169402
0.15545
0.159059
0.166093
0.165825
0.164776
0.164198
0.16386
0.163636
0.163478
0.163344
0.163293
0.163333
0.163445
0.163651
0.163933
0.164305
0.164767
0.165309
0.165931
0.166622
0.167373
0.168184
0.16905
0.169972
0.170962
0.172008
0.173104
0.174251
0.175449
0.176703
0.178011
0.179383
0.180821
0.182321
0.183896
0.185544
0.187275
0.189108
0.19105
0.193091
0.195194
)
;

boundaryField
{
    inlet
    {
        type            calculated;
        value           nonuniform List<scalar> 
13
(
0.0991125
0.0984603
0.0978979
0.0974
0.0969251
0.0964416
0.0958238
0.0956496
0.0961082
0.0963842
0.0967484
0.0970671
0.0973304
)
;
    }
    outlet
    {
        type            calculated;
        value           nonuniform List<scalar> 0();
    }
    walls
    {
        type            calculated;
        value           uniform 0;
    }
    frontAndBack
    {
        type            empty;
    }
    procBoundary2to1
    {
        type            processor;
        value           nonuniform List<scalar> 
84
(
0.0559827
0.216917
0.251936
0.23825
0.0731459
0.743034
0.0441551
0.0454151
0.0436523
0.0467036
0.0467095
0.0480782
0.0489327
0.0501568
0.0513936
0.0528134
0.0543687
0.0561033
0.0580323
0.0601863
0.0626011
0.0653154
0.0683684
0.0718082
0.075697
0.0801004
0.0850764
0.0906731
0.0969194
0.10378
0.111103
0.118537
0.125493
0.131257
0.135244
0.1373
0.13776
0.137218
0.137218
0.121647
0.122999
0.124245
0.125522
0.126942
0.128578
0.130472
0.132667
0.135185
0.138031
0.141214
0.14475
0.148659
0.152958
0.152958
0.155419
0.160781
0.166629
0.172996
0.179887
0.187276
0.195129
0.20346
0.212367
0.212367
0.220925
0.231684
0.243684
0.257019
0.271714
0.287441
0.302812
0.317055
0.331633
0.347834
0.347834
0.364258
0.385658
0.419036
0.47961
0.542319
0.521405
0.324069
0.232192
0.167631
)
;
    }
    procBoundary2to3
    {
        type            processor;
        value           nonuniform List<scalar> 
88
(
0.258538
0.184093
0.547911
0.258538
0.269727
0.516578
0.547911
0.409075
0.381461
0.406366
0.516578
0.419464
0.318989
0.331362
0.342633
0.354196
0.381461
0.367581
0.269205
0.27806
0.287816
0.298371
0.318989
0.309929
0.230435
0.235593
0.241081
0.246893
0.253056
0.259635
0.269205
0.266732
0.19743
0.199857
0.202421
0.205136
0.208005
0.211036
0.214233
0.217607
0.221169
0.224949
0.22898
0.230435
0.233276
0.158647
0.170546
0.172675
0.174218
0.173119
0.172981
0.172985
0.173065
0.173141
0.17323
0.173356
0.173544
0.173798
0.174095
0.174471
0.174915
0.17543
0.176015
0.176665
0.177375
0.178137
0.178944
0.179797
0.180701
0.18166
0.182669
0.183717
0.184808
0.185933
0.187102
0.188315
0.189574
0.190886
0.192249
0.193666
0.195143
0.19668
0.198298
0.200002
0.201797
0.203743
0.19743
0.205796
)
;
    }
    procBoundary2to6
    {
        type            processor;
        value           nonuniform List<scalar> 
13
(
0.159819
0.23063
0.289739
0.33153
0.36113
0.383266
0.400635
0.415321
0.268241
0.489096
0
5.48492
1.45317
)
;
    }
}


// ************************************************************************* //
