/*--------------------------------*- C++ -*----------------------------------*\
| =========                 |                                                 |
| \\      /  F ield         | OpenFOAM: The Open Source CFD Toolbox           |
|  \\    /   O peration     | Version:  2506                                  |
|   \\  /    A nd           | Website:  www.openfoam.com                      |
|    \\/     M anipulation  |                                                 |
\*---------------------------------------------------------------------------*/
FoamFile
{
    version     2.0;
    format      ascii;
    arch        "LSB;label=32;scalar=64";
    class       volScalarField;
    location    "200";
    object      turbulenceProperties:nut;
}
// * * * * * * * * * * * * * * * * * * * * * * * * * * * * * * * * * * * * * //

dimensions      [0 2 -1 0 0 0 0];

internalField   nonuniform List<scalar> 
1340
(
0.106724
0.104569
0.10212
0.0926203
0.0701422
0.0718695
0.075447
0.0786688
0.039762
0.0471652
0.053835
0.0633347
0.00694784
0.013226
0.0219943
0.0393925
0.000725847
0.00125482
0.00168228
0.013823
0.00016249
0.000293519
0.00043998
0.00242067
4.92189e-08
1.13444e-08
2.08506e-11
6.66945e-05
6.02302e-06
3.57955e-06
1.78159e-08
7.0619e-07
6.18459e-06
6.70081e-06
4.44792e-06
2.42588e-09
6.18647e-06
5.84073e-06
8.80308e-06
5.23818e-07
6.16632e-06
5.85448e-06
7.19254e-06
4.2968e-06
6.11948e-06
6.05786e-06
6.21588e-06
6.15495e-06
6.10223e-06
6.11704e-06
6.05399e-06
6.26297e-06
6.10089e-06
6.11254e-06
6.08139e-06
6.14988e-06
6.10143e-06
6.10481e-06
6.10217e-06
6.10852e-06
6.10088e-06
6.10187e-06
6.10539e-06
6.1028e-06
6.09996e-06
6.10077e-06
6.10383e-06
6.10289e-06
6.09911e-06
6.09996e-06
6.10226e-06
6.10238e-06
6.0984e-06
6.0992e-06
6.10113e-06
6.10144e-06
6.09781e-06
6.09851e-06
6.10023e-06
6.10054e-06
6.09728e-06
6.0979e-06
6.09943e-06
6.09975e-06
6.09682e-06
6.09735e-06
6.09868e-06
6.09903e-06
6.09644e-06
6.09688e-06
6.09802e-06
6.09835e-06
6.09615e-06
6.0965e-06
6.09748e-06
6.09776e-06
6.09595e-06
6.09622e-06
6.09704e-06
6.09726e-06
6.09588e-06
6.09606e-06
6.09671e-06
6.09685e-06
6.09589e-06
6.09599e-06
6.0965e-06
6.09654e-06
6.09593e-06
6.09597e-06
6.09638e-06
6.09632e-06
6.09596e-06
6.09595e-06
6.09627e-06
6.0962e-06
6.09599e-06
6.09595e-06
6.09616e-06
6.09614e-06
6.09603e-06
6.09596e-06
6.09608e-06
6.0961e-06
6.09605e-06
6.09596e-06
6.096e-06
6.09607e-06
6.09598e-06
6.09597e-06
6.09595e-06
6.09607e-06
6.09584e-06
6.0959e-06
6.09585e-06
6.09603e-06
6.09566e-06
6.09578e-06
6.09573e-06
6.09597e-06
6.0954e-06
6.09557e-06
6.09557e-06
6.09588e-06
6.09507e-06
6.09526e-06
6.09531e-06
6.0957e-06
6.09467e-06
6.0949e-06
6.09498e-06
6.09543e-06
6.09399e-06
6.09419e-06
6.09445e-06
6.09456e-06
6.09507e-06
6.09342e-06
6.09362e-06
6.09389e-06
6.09403e-06
6.09459e-06
6.09277e-06
6.09298e-06
6.09326e-06
6.09342e-06
6.094e-06
6.09207e-06
6.09229e-06
6.09258e-06
6.09274e-06
6.09335e-06
6.0913e-06
6.09151e-06
6.09181e-06
6.09199e-06
6.09261e-06
6.09048e-06
6.09069e-06
6.09098e-06
6.09117e-06
6.09179e-06
6.08965e-06
6.08985e-06
6.09014e-06
6.09033e-06
6.09094e-06
6.08879e-06
6.08899e-06
6.08928e-06
6.08947e-06
6.09007e-06
6.08793e-06
6.08813e-06
6.0884e-06
6.08859e-06
6.08917e-06
6.08708e-06
6.08728e-06
6.08755e-06
6.08773e-06
6.0883e-06
6.08626e-06
6.08645e-06
6.08672e-06
6.08691e-06
6.08745e-06
6.08541e-06
6.0856e-06
6.08587e-06
6.08607e-06
6.0866e-06
6.0845e-06
6.08469e-06
6.08495e-06
6.08515e-06
6.08568e-06
6.08345e-06
6.08364e-06
6.0839e-06
6.0841e-06
6.08463e-06
6.08205e-06
6.0822e-06
6.08238e-06
6.08263e-06
6.08284e-06
6.08336e-06
6.08055e-06
6.08068e-06
6.08084e-06
6.08108e-06
6.08128e-06
6.0818e-06
6.07878e-06
6.07888e-06
6.07901e-06
6.07923e-06
6.0794e-06
6.07991e-06
6.07681e-06
6.07687e-06
6.07697e-06
6.07714e-06
6.07728e-06
6.07774e-06
6.07481e-06
6.07484e-06
6.0749e-06
6.07502e-06
6.07512e-06
6.0755e-06
6.07305e-06
6.07306e-06
6.07308e-06
6.07316e-06
6.0732e-06
6.07347e-06
6.07189e-06
6.07189e-06
6.07189e-06
6.07191e-06
6.07193e-06
6.07207e-06
6.07171e-06
6.07174e-06
6.07176e-06
6.07177e-06
6.0718e-06
6.07181e-06
6.0725e-06
6.07256e-06
6.07261e-06
6.07263e-06
6.07268e-06
6.0726e-06
6.07392e-06
6.07404e-06
6.07414e-06
6.07423e-06
6.07428e-06
6.07435e-06
6.07423e-06
6.07616e-06
6.07634e-06
6.0765e-06
6.07663e-06
6.07672e-06
6.07684e-06
6.07672e-06
6.07912e-06
6.07937e-06
6.07959e-06
6.07979e-06
6.07994e-06
6.08011e-06
6.08003e-06
6.08264e-06
6.08296e-06
6.08326e-06
6.08352e-06
6.08374e-06
6.08399e-06
6.08397e-06
6.08647e-06
6.08686e-06
6.08722e-06
6.08756e-06
6.08785e-06
6.08818e-06
6.08825e-06
6.09037e-06
6.09081e-06
6.09122e-06
6.09162e-06
6.09197e-06
6.09236e-06
6.09251e-06
6.09359e-06
6.09409e-06
6.09457e-06
6.09503e-06
6.09548e-06
6.09596e-06
6.09623e-06
6.09581e-06
6.09635e-06
6.09687e-06
6.0974e-06
6.09792e-06
6.09851e-06
6.09893e-06
6.09752e-06
6.09807e-06
6.0986e-06
6.09915e-06
6.09971e-06
6.10033e-06
6.10085e-06
6.09885e-06
6.09939e-06
6.09994e-06
6.1005e-06
6.10108e-06
6.10173e-06
6.1023e-06
6.09952e-06
6.10009e-06
6.10067e-06
6.10124e-06
6.10183e-06
6.10244e-06
6.10312e-06
6.10372e-06
6.10149e-06
6.10218e-06
6.10287e-06
6.10356e-06
6.10426e-06
6.10498e-06
6.10579e-06
6.10645e-06
6.10534e-06
6.10627e-06
6.1072e-06
6.10814e-06
6.10909e-06
6.11006e-06
6.11117e-06
6.11206e-06
6.11121e-06
6.11242e-06
6.11363e-06
6.11485e-06
6.11609e-06
6.11739e-06
6.11884e-06
6.12013e-06
6.11598e-06
6.1172e-06
6.11841e-06
6.11963e-06
6.12089e-06
6.12221e-06
6.1237e-06
6.12513e-06
6.11386e-06
6.11461e-06
6.11535e-06
6.11609e-06
6.11683e-06
6.11763e-06
6.11841e-06
6.11932e-06
6.10662e-06
6.10758e-06
6.10858e-06
6.10962e-06
6.11073e-06
6.1119e-06
6.11334e-06
6.11448e-06
6.1133e-06
6.11625e-06
6.11926e-06
6.12235e-06
6.12557e-06
6.129e-06
6.13285e-06
6.13645e-06
6.10981e-06
6.11106e-06
6.11221e-06
6.11325e-06
6.11422e-06
6.11512e-06
6.11608e-06
6.1169e-06
0.124392
0.0829835
0.0546501
0.0296661
0.00882328
0.00085474
7.14277e-05
7.78314e-07
4.08801e-09
1.37937e-06
5.29154e-06
6.33975e-06
6.25385e-06
6.14158e-06
6.11131e-06
6.10814e-06
6.1077e-06
6.10638e-06
6.1048e-06
6.10337e-06
6.10212e-06
6.10099e-06
6.09998e-06
6.0991e-06
6.09836e-06
6.09774e-06
6.09726e-06
6.0969e-06
6.09667e-06
6.09653e-06
6.09644e-06
6.09637e-06
6.09632e-06
6.09626e-06
6.09617e-06
6.09606e-06
6.09586e-06
6.09558e-06
6.09521e-06
6.0947e-06
6.0941e-06
6.09343e-06
6.09268e-06
6.09185e-06
6.091e-06
6.09012e-06
6.08922e-06
6.08835e-06
6.0875e-06
6.08665e-06
6.08573e-06
6.08467e-06
6.08339e-06
6.08179e-06
6.07986e-06
6.07766e-06
6.07542e-06
6.07344e-06
6.0721e-06
6.07192e-06
6.07275e-06
6.07443e-06
6.077e-06
6.08038e-06
6.08439e-06
6.08871e-06
6.09302e-06
6.09678e-06
6.09948e-06
6.10139e-06
6.10282e-06
6.10426e-06
6.10713e-06
6.11299e-06
6.1213e-06
6.12604e-06
6.11986e-06
6.11551e-06
6.13883e-06
6.11768e-06
0.14534
0.0856794
0.04369
0.0179342
0.00356692
0.000865708
3.47232e-11
7.80492e-11
2.95457e-08
3.57336e-06
6.11877e-06
6.35697e-06
6.20225e-06
6.12816e-06
6.11394e-06
6.11256e-06
6.11115e-06
6.10906e-06
6.10699e-06
6.10516e-06
6.10356e-06
6.10214e-06
6.1009e-06
6.09983e-06
6.09894e-06
6.09821e-06
6.09764e-06
6.09721e-06
6.09693e-06
6.09676e-06
6.09664e-06
6.09655e-06
6.09648e-06
6.0964e-06
6.09631e-06
6.09618e-06
6.09597e-06
6.09567e-06
6.09528e-06
6.09475e-06
6.09414e-06
6.09346e-06
6.09269e-06
6.09186e-06
6.091e-06
6.09013e-06
6.08923e-06
6.08837e-06
6.08753e-06
6.08668e-06
6.08575e-06
6.08467e-06
6.08336e-06
6.08172e-06
6.07974e-06
6.07751e-06
6.07526e-06
6.07331e-06
6.07207e-06
6.07199e-06
6.0729e-06
6.07466e-06
6.0773e-06
6.08076e-06
6.08484e-06
6.0892e-06
6.09353e-06
6.0973e-06
6.09997e-06
6.10183e-06
6.10323e-06
6.10471e-06
6.10772e-06
6.1138e-06
6.12225e-06
6.12664e-06
6.12023e-06
6.11647e-06
6.14036e-06
6.11816e-06
0.145049
0.0785778
0.0298175
0.0075134
0.000475811
9.21125e-05
1.61945e-14
6.21154e-12
9.67788e-07
5.90413e-06
6.39585e-06
6.28479e-06
6.15662e-06
6.12112e-06
6.11668e-06
6.11535e-06
6.11306e-06
6.11049e-06
6.10814e-06
6.10609e-06
6.10429e-06
6.10271e-06
6.10133e-06
6.10017e-06
6.09921e-06
6.09843e-06
6.09783e-06
6.09738e-06
6.09709e-06
6.0969e-06
6.09678e-06
6.09669e-06
6.09661e-06
6.09653e-06
6.09643e-06
6.09629e-06
6.09607e-06
6.09576e-06
6.09535e-06
6.09481e-06
6.09419e-06
6.0935e-06
6.09272e-06
6.09188e-06
6.09102e-06
6.09014e-06
6.08926e-06
6.0884e-06
6.08757e-06
6.08672e-06
6.08578e-06
6.08468e-06
6.08333e-06
6.08164e-06
6.07961e-06
6.07735e-06
6.07509e-06
6.07317e-06
6.07203e-06
6.07206e-06
6.07306e-06
6.07491e-06
6.07765e-06
6.08119e-06
6.08533e-06
6.08973e-06
6.09409e-06
6.09786e-06
6.10049e-06
6.1023e-06
6.10367e-06
6.10519e-06
6.10837e-06
6.11468e-06
6.12326e-06
6.12724e-06
6.12062e-06
6.11759e-06
6.14193e-06
6.11863e-06
0.127733
0.060971
0.0149783
0.00107724
0.000262161
0
4.21646e-10
1.35912e-07
4.183e-06
6.88155e-06
6.32414e-06
6.20715e-06
6.13066e-06
6.11999e-06
6.11876e-06
6.11661e-06
6.11371e-06
6.1109e-06
6.10843e-06
6.10628e-06
6.10439e-06
6.10275e-06
6.10134e-06
6.10017e-06
6.0992e-06
6.09843e-06
6.09784e-06
6.09742e-06
6.09715e-06
6.09698e-06
6.09687e-06
6.0968e-06
6.09672e-06
6.09665e-06
6.09655e-06
6.0964e-06
6.09617e-06
6.09586e-06
6.09542e-06
6.09487e-06
6.09424e-06
6.09353e-06
6.09275e-06
6.09191e-06
6.09105e-06
6.09017e-06
6.08929e-06
6.08845e-06
6.08762e-06
6.08677e-06
6.08581e-06
6.08469e-06
6.08329e-06
6.08155e-06
6.07947e-06
6.07717e-06
6.07491e-06
6.07303e-06
6.07199e-06
6.07215e-06
6.07324e-06
6.07519e-06
6.07802e-06
6.08165e-06
6.08586e-06
6.09029e-06
6.09469e-06
6.09846e-06
6.10103e-06
6.10279e-06
6.10413e-06
6.1057e-06
6.10906e-06
6.11564e-06
6.12432e-06
6.12785e-06
6.12102e-06
6.11885e-06
6.14357e-06
6.11906e-06
0.0963945
0.0354064
0.00300914
0.000744
0
2.90481e-11
1.04831e-08
2.15997e-06
6.80222e-06
6.75492e-06
6.19483e-06
6.1596e-06
6.12108e-06
6.12159e-06
6.11986e-06
6.11686e-06
6.11365e-06
6.11076e-06
6.10825e-06
6.10605e-06
6.10414e-06
6.1025e-06
6.10111e-06
6.09996e-06
6.09903e-06
6.0983e-06
6.09775e-06
6.09737e-06
6.09714e-06
6.09701e-06
6.09693e-06
6.09687e-06
6.09681e-06
6.09675e-06
6.09666e-06
6.09651e-06
6.09627e-06
6.09594e-06
6.09549e-06
6.09493e-06
6.09429e-06
6.09357e-06
6.09278e-06
6.09194e-06
6.09108e-06
6.09021e-06
6.08933e-06
6.0885e-06
6.08768e-06
6.08682e-06
6.08585e-06
6.08469e-06
6.08325e-06
6.08145e-06
6.07931e-06
6.07698e-06
6.07472e-06
6.07289e-06
6.07196e-06
6.07225e-06
6.07344e-06
6.07548e-06
6.07842e-06
6.08215e-06
6.08642e-06
6.09089e-06
6.09531e-06
6.09908e-06
6.1016e-06
6.1033e-06
6.10461e-06
6.10624e-06
6.10981e-06
6.11666e-06
6.12542e-06
6.12848e-06
6.12145e-06
6.12024e-06
6.14529e-06
6.11945e-06
0.0571962
0.0126755
0.000289933
3.60491e-05
8.24159e-16
2.96405e-13
1.12736e-06
6.13941e-06
7.23817e-06
6.35848e-06
6.12984e-06
6.13871e-06
6.1202e-06
6.1231e-06
6.11981e-06
6.11636e-06
6.11308e-06
6.11021e-06
6.10772e-06
6.10555e-06
6.10367e-06
6.10207e-06
6.10073e-06
6.09964e-06
6.09877e-06
6.0981e-06
6.09761e-06
6.09728e-06
6.0971e-06
6.09701e-06
6.09696e-06
6.09693e-06
6.09689e-06
6.09684e-06
6.09676e-06
6.0966e-06
6.09636e-06
6.09602e-06
6.09555e-06
6.09498e-06
6.09433e-06
6.09361e-06
6.09281e-06
6.09197e-06
6.09111e-06
6.09024e-06
6.08938e-06
6.08856e-06
6.08774e-06
6.08688e-06
6.08589e-06
6.08469e-06
6.0832e-06
6.08133e-06
6.07914e-06
6.07677e-06
6.07452e-06
6.07275e-06
6.07195e-06
6.07236e-06
6.07366e-06
6.07581e-06
6.07885e-06
6.08268e-06
6.08701e-06
6.09152e-06
6.09598e-06
6.09973e-06
6.10219e-06
6.10383e-06
6.10511e-06
6.10683e-06
6.11061e-06
6.11777e-06
6.12656e-06
6.12912e-06
6.12189e-06
6.12178e-06
0.0204322
0.000282108
4.24181e-07
1.52567e-09
2.12683e-09
6.16921e-07
5.58033e-06
7.49193e-06
6.65995e-06
6.13066e-06
6.12289e-06
6.1308e-06
6.12198e-06
6.12313e-06
6.11875e-06
6.11526e-06
6.11206e-06
6.10929e-06
6.10688e-06
6.10479e-06
6.10299e-06
6.10148e-06
6.10023e-06
6.09922e-06
6.09844e-06
6.09784e-06
6.09742e-06
6.09717e-06
6.09705e-06
6.097e-06
6.09699e-06
6.09698e-06
6.09696e-06
6.09693e-06
6.09685e-06
6.09669e-06
6.09645e-06
6.09609e-06
6.0956e-06
6.09503e-06
6.09437e-06
6.09363e-06
6.09283e-06
6.092e-06
6.09114e-06
6.09027e-06
6.08942e-06
6.08861e-06
6.0878e-06
6.08693e-06
6.08591e-06
6.08468e-06
6.08313e-06
6.0812e-06
6.07895e-06
6.07655e-06
6.07431e-06
6.07261e-06
6.07195e-06
6.0725e-06
6.0739e-06
6.07616e-06
6.07932e-06
6.08324e-06
6.08765e-06
6.09219e-06
6.09667e-06
6.10042e-06
6.1028e-06
6.10438e-06
6.10565e-06
6.10745e-06
6.11149e-06
6.11895e-06
6.12775e-06
6.12978e-06
0.00129975
0.000318832
8.56014e-15
7.88231e-10
2.45394e-07
5.25362e-06
7.71982e-06
6.90268e-06
6.20063e-06
6.08846e-06
6.1316e-06
6.12702e-06
6.1231e-06
6.12155e-06
6.11699e-06
6.1137e-06
6.11067e-06
6.10806e-06
6.10578e-06
6.10382e-06
6.10215e-06
6.10076e-06
6.09963e-06
6.09873e-06
6.09803e-06
6.09752e-06
6.09719e-06
6.09702e-06
6.09697e-06
6.09697e-06
6.09699e-06
6.09701e-06
6.09702e-06
6.097e-06
6.09693e-06
6.09677e-06
6.09652e-06
6.09614e-06
6.09565e-06
6.09506e-06
6.0944e-06
6.09365e-06
6.09285e-06
6.09202e-06
6.09116e-06
6.0903e-06
6.08947e-06
6.08867e-06
6.08787e-06
6.08698e-06
6.08594e-06
6.08466e-06
6.08304e-06
6.08104e-06
6.07873e-06
6.07631e-06
6.07409e-06
6.07249e-06
6.07198e-06
6.07266e-06
6.07417e-06
6.07655e-06
6.07983e-06
6.08385e-06
6.08832e-06
6.0929e-06
6.09741e-06
6.10113e-06
6.10344e-06
6.10495e-06
6.10621e-06
6.10812e-06
6.11243e-06
6.12022e-06
0.000260723
0
4.17679e-11
1.38289e-08
5.16999e-06
7.98784e-06
7.07147e-06
6.26228e-06
6.07103e-06
6.1147e-06
6.13332e-06
6.12444e-06
6.1223e-06
6.11887e-06
6.1148e-06
6.11178e-06
6.10898e-06
6.10657e-06
6.10446e-06
6.10267e-06
6.10116e-06
6.09992e-06
6.09893e-06
6.09816e-06
6.09758e-06
6.09718e-06
6.09694e-06
6.09686e-06
6.09687e-06
6.09693e-06
6.09699e-06
6.09704e-06
6.09707e-06
6.09706e-06
6.09699e-06
6.09684e-06
6.09657e-06
6.09618e-06
6.09568e-06
6.09508e-06
6.09441e-06
6.09366e-06
6.09286e-06
6.09203e-06
6.09118e-06
6.09034e-06
6.08952e-06
6.08873e-06
6.08792e-06
6.08702e-06
6.08595e-06
6.08462e-06
6.08293e-06
6.08086e-06
6.0785e-06
6.07605e-06
6.07386e-06
6.07237e-06
6.07203e-06
6.07284e-06
6.07447e-06
6.07698e-06
6.08038e-06
6.0845e-06
6.08904e-06
6.09366e-06
6.09819e-06
6.10188e-06
6.10411e-06
6.10555e-06
6.1068e-06
0
3.88389e-14
1.02409e-11
4.8905e-06
8.47874e-06
7.07403e-06
6.29192e-06
6.05822e-06
6.09635e-06
6.13252e-06
6.12839e-06
6.12207e-06
6.11967e-06
6.11569e-06
6.11231e-06
6.10953e-06
6.10699e-06
6.10481e-06
6.10292e-06
6.10133e-06
6.10002e-06
6.09896e-06
6.09814e-06
6.09752e-06
6.09707e-06
6.0968e-06
6.09668e-06
6.09669e-06
6.09677e-06
6.09687e-06
6.09697e-06
6.09705e-06
6.09711e-06
6.09711e-06
6.09705e-06
6.09689e-06
6.09661e-06
6.0962e-06
6.09569e-06
6.09509e-06
6.09441e-06
6.09366e-06
6.09286e-06
6.09204e-06
6.0912e-06
6.09037e-06
6.08957e-06
6.08879e-06
6.08798e-06
6.08706e-06
6.08595e-06
6.08456e-06
6.0828e-06
6.08065e-06
6.07823e-06
6.07577e-06
6.07363e-06
6.07226e-06
6.07211e-06
6.07305e-06
6.0748e-06
6.07744e-06
6.08097e-06
6.0852e-06
6.0898e-06
6.09446e-06
2.02243e-13
5.10438e-11
3.9595e-06
8.98002e-06
7.10862e-06
6.20306e-06
6.05701e-06
6.08057e-06
6.12812e-06
6.13086e-06
6.12258e-06
6.11899e-06
6.11587e-06
6.11226e-06
6.10944e-06
6.10694e-06
6.10471e-06
6.10283e-06
6.10123e-06
6.09992e-06
6.09885e-06
6.09801e-06
6.09734e-06
6.09685e-06
6.09654e-06
6.09641e-06
6.09642e-06
6.09652e-06
6.09666e-06
6.09681e-06
6.09695e-06
6.09706e-06
6.09714e-06
6.09715e-06
6.09709e-06
6.09692e-06
6.09663e-06
6.09621e-06
6.09569e-06
6.09509e-06
6.0944e-06
6.09365e-06
6.09285e-06
6.09204e-06
6.09121e-06
6.09039e-06
6.08962e-06
6.08885e-06
6.08803e-06
6.08709e-06
6.08593e-06
6.08448e-06
6.08263e-06
6.08041e-06
6.07794e-06
6.07548e-06
6.07339e-06
6.07217e-06
6.07222e-06
6.07329e-06
6.07517e-06
6.025e-10
4.65248e-06
8.86641e-06
7.19429e-06
6.08013e-06
6.02838e-06
6.08127e-06
6.12163e-06
6.13097e-06
6.12258e-06
6.11753e-06
6.11473e-06
6.11152e-06
6.10865e-06
6.10632e-06
6.10423e-06
6.10247e-06
6.101e-06
6.09978e-06
6.09876e-06
6.09792e-06
6.09722e-06
6.09668e-06
6.09628e-06
6.09606e-06
6.09602e-06
6.09614e-06
6.09634e-06
6.09654e-06
6.09674e-06
6.09691e-06
6.09705e-06
6.09715e-06
6.09718e-06
6.09711e-06
6.09693e-06
6.09662e-06
6.09619e-06
6.09567e-06
6.09506e-06
6.09437e-06
6.09363e-06
6.09285e-06
6.09204e-06
6.09122e-06
6.09043e-06
6.08967e-06
6.08891e-06
6.08808e-06
6.08711e-06
6.0859e-06
6.08437e-06
6.08244e-06
6.08014e-06
5.51696e-06
8.66179e-06
7.05474e-06
6.05015e-06
5.96953e-06
6.08981e-06
6.11988e-06
6.12779e-06
6.12112e-06
6.11529e-06
6.11255e-06
6.10997e-06
6.10742e-06
6.10538e-06
6.10364e-06
6.10211e-06
6.10081e-06
6.0997e-06
6.09875e-06
6.09792e-06
6.09721e-06
6.09662e-06
6.09616e-06
6.09583e-06
6.09568e-06
6.09572e-06
6.09592e-06
6.09621e-06
6.09647e-06
6.0967e-06
6.09691e-06
6.09708e-06
6.09719e-06
6.09722e-06
6.09714e-06
6.09695e-06
6.09662e-06
6.09618e-06
6.09564e-06
6.09503e-06
6.09434e-06
6.09358e-06
)
;

boundaryField
{
    inlet
    {
        type            freestream;
        freestreamValue uniform 1e-05;
        value           uniform 1e-05;
    }
    outlet
    {
        type            freestream;
        freestreamValue nonuniform List<scalar> 0();
        value           nonuniform List<scalar> 0();
    }
    walls
    {
        type            nutUSpaldingWallFunction;
        value           nonuniform List<scalar> 4(0.00273045 0.00266596 0.00257476 0.00231701);
    }
    frontAndBack
    {
        type            empty;
    }
    procBoundary2to1
    {
        type            processor;
        value           nonuniform List<scalar> 
84
(
0.108128
0.0681575
0.0313093
0.00307496
0.000736211
1.86653e-09
3.36968e-06
6.31652e-06
6.12586e-06
6.08906e-06
6.09276e-06
6.10036e-06
6.10329e-06
6.10225e-06
6.10091e-06
6.09984e-06
6.09902e-06
6.09833e-06
6.09774e-06
6.09724e-06
6.09679e-06
6.09642e-06
6.09612e-06
6.09591e-06
6.09579e-06
6.0958e-06
6.09587e-06
6.09596e-06
6.09602e-06
6.09606e-06
6.09607e-06
6.09602e-06
6.09591e-06
6.09574e-06
6.09554e-06
6.09526e-06
6.0949e-06
6.09448e-06
6.09448e-06
6.0938e-06
6.09322e-06
6.09258e-06
6.09188e-06
6.09111e-06
6.09029e-06
6.08946e-06
6.08861e-06
6.08775e-06
6.08691e-06
6.08608e-06
6.08524e-06
6.08433e-06
6.08329e-06
6.08329e-06
6.08193e-06
6.08046e-06
6.07872e-06
6.07678e-06
6.07481e-06
6.07307e-06
6.07191e-06
6.07169e-06
6.07243e-06
6.07243e-06
6.07378e-06
6.07596e-06
6.07884e-06
6.08228e-06
6.08605e-06
6.08989e-06
6.09307e-06
6.09526e-06
6.09697e-06
6.0983e-06
6.0983e-06
6.09893e-06
6.10078e-06
6.10439e-06
6.10998e-06
6.11475e-06
6.11309e-06
6.10571e-06
6.1104e-06
6.10844e-06
)
;
    }
    procBoundary2to3
    {
        type            processor;
        value           nonuniform List<scalar> 
88
(
6.1471e-06
6.11979e-06
6.12237e-06
6.1471e-06
6.12348e-06
6.12898e-06
6.12237e-06
6.13045e-06
6.10885e-06
6.11346e-06
6.12898e-06
6.12158e-06
6.09902e-06
6.10266e-06
6.1048e-06
6.10617e-06
6.10885e-06
6.10743e-06
6.07796e-06
6.08162e-06
6.08595e-06
6.09061e-06
6.09902e-06
6.09531e-06
6.07761e-06
6.07515e-06
6.07316e-06
6.07212e-06
6.07236e-06
6.07357e-06
6.07796e-06
6.07559e-06
6.09277e-06
6.09198e-06
6.09119e-06
6.09042e-06
6.08969e-06
6.08894e-06
6.08809e-06
6.08709e-06
6.08583e-06
6.08421e-06
6.0822e-06
6.07761e-06
6.07982e-06
8.21533e-06
6.78686e-06
6.03867e-06
5.96849e-06
6.08269e-06
6.12541e-06
6.12291e-06
6.11798e-06
6.11264e-06
6.11022e-06
6.10833e-06
6.10635e-06
6.10466e-06
6.10324e-06
6.10195e-06
6.10081e-06
6.09979e-06
6.09886e-06
6.09803e-06
6.09728e-06
6.09662e-06
6.09607e-06
6.09563e-06
6.09533e-06
6.09519e-06
6.09525e-06
6.09551e-06
6.09588e-06
6.09622e-06
6.0965e-06
6.09675e-06
6.09695e-06
6.09708e-06
6.09712e-06
6.09704e-06
6.09683e-06
6.09649e-06
6.09605e-06
6.09553e-06
6.09492e-06
6.09424e-06
6.09277e-06
6.0935e-06
)
;
    }
    procBoundary2to6
    {
        type            processor;
        value           nonuniform List<scalar> 
13
(
0.166256
0.205218
0.208148
0.192021
0.161388
0.118373
0.0677417
0.0225687
0.00104661
3.01578e-08
0
2.66578e-12
1.14308e-08
)
;
    }
}


// ************************************************************************* //
