/*--------------------------------*- C++ -*----------------------------------*\
| =========                 |                                                 |
| \\      /  F ield         | OpenFOAM: The Open Source CFD Toolbox           |
|  \\    /   O peration     | Version:  2506                                  |
|   \\  /    A nd           | Website:  www.openfoam.com                      |
|    \\/     M anipulation  |                                                 |
\*---------------------------------------------------------------------------*/
FoamFile
{
    version     2.0;
    format      ascii;
    arch        "LSB;label=32;scalar=64";
    class       volSymmTensorField;
    location    "200";
    object      turbulenceProperties:devReff;
}
// * * * * * * * * * * * * * * * * * * * * * * * * * * * * * * * * * * * * * //

dimensions      [0 2 -2 0 0 0 0];

internalField   nonuniform List<symmTensor> 
1340
(
(-3.54718 14.0488 1.02762e-15 3.51189 1.63839e-16 0.0352953)
(-3.78497 13.3222 1.45431e-15 3.75286 2.669e-16 0.0321119)
(-3.92847 12.5005 -2.91305e-16 3.89843 -3.66327e-17 0.0300444)
(-3.64926 10.0903 -4.56555e-15 3.64277 -7.85429e-16 0.00649306)
(-0.108891 0.417634 -4.92744e-16 0.134104 -8.57458e-17 -0.0252132)
(-0.129298 0.458301 -1.22955e-15 0.152135 -5.14333e-16 -0.0228366)
(-0.147867 0.55508 -2.53319e-15 0.174824 -4.39613e-18 -0.0269577)
(-0.208544 0.781061 -2.04761e-15 0.197992 1.36499e-15 0.0105516)
(-0.0114606 0.0938669 2.16757e-16 0.0109734 -1.67016e-17 0.000487247)
(-0.0192472 0.128629 -1.1783e-15 0.0192227 2.09397e-16 2.44668e-05)
(-0.00963323 0.155072 2.96004e-15 0.0104742 5.35152e-16 -0.000840987)
(-0.0376787 0.263334 4.6537e-15 0.0296236 9.54281e-16 0.00805509)
(0.00089118 0.00340441 -1.75397e-16 -0.000951339 -2.6684e-17 6.016e-05)
(0.00159051 0.0114161 7.50437e-16 -0.00207846 1.10907e-16 0.000487949)
(0.00679939 0.0282955 -4.90424e-16 -0.00729702 -1.69564e-16 0.000497628)
(-0.00285835 0.105558 -3.31168e-16 -0.00196438 -1.41898e-15 0.00482273)
(0.000253048 -0.000205897 -4.02965e-18 -0.000293421 1.56465e-18 4.03734e-05)
(0.000441937 -0.000157178 -2.1598e-17 -0.000477191 -1.78679e-17 3.52536e-05)
(0.00090734 0.000209871 5.41075e-17 -0.000885994 3.86923e-18 -2.13461e-05)
(0.003878 0.0200457 -2.93572e-16 -0.00527452 5.28902e-17 0.00139652)
(2.88459e-05 -3.96822e-05 4.38467e-18 -1.11531e-05 3.92797e-19 -1.76928e-05)
(7.84148e-05 -4.21349e-05 -1.46893e-17 -5.82779e-05 -3.01386e-19 -2.0137e-05)
(0.000223554 -2.33739e-05 -1.59236e-17 -0.00019518 -5.1758e-18 -2.83747e-05)
(0.000997254 0.00210011 7.04774e-18 -0.00116797 4.82243e-17 0.000170715)
(3.48554e-06 -2.05557e-06 -2.0464e-19 -4.31461e-06 -2.57256e-20 8.29069e-07)
(3.93029e-06 -1.13523e-06 3.42899e-19 -4.66129e-06 8.93316e-20 7.31007e-07)
(5.5292e-06 -9.85472e-08 5.17682e-21 -5.84799e-06 7.66029e-20 3.18781e-07)
(3.62324e-05 5.24346e-05 2.93132e-18 -4.46509e-05 2.5988e-19 8.41849e-06)
(3.20929e-06 -3.49149e-06 3.44282e-19 -2.31221e-06 6.07684e-20 -8.97085e-07)
(3.65191e-06 -1.64692e-06 -1.44464e-19 -3.09425e-06 -6.13451e-20 -5.57662e-07)
(4.39372e-06 7.71159e-08 2.84502e-20 -3.93748e-06 6.7608e-21 -4.56238e-07)
(4.23907e-06 6.71177e-06 4.55983e-21 -4.86124e-06 -1.31954e-19 6.22175e-07)
(4.38003e-06 -3.09989e-06 -1.31737e-20 -4.77439e-06 -1.45377e-20 3.94355e-07)
(5.44219e-06 -1.58233e-06 8.81942e-20 -5.90644e-06 9.55497e-20 4.64244e-07)
(6.56403e-06 4.68493e-07 6.39477e-20 -6.61331e-06 -6.53871e-20 4.92746e-08)
(3.79628e-06 5.9797e-06 -3.40945e-20 -4.51146e-06 3.64308e-20 7.15179e-07)
(3.61406e-06 -3.1187e-06 1.04358e-19 -3.37676e-06 1.37814e-20 -2.37294e-07)
(4.46557e-06 -1.48697e-06 5.87424e-19 -4.37354e-06 2.62807e-21 -9.20296e-08)
(7.59176e-06 6.63679e-07 -5.36159e-19 -7.2757e-06 4.76702e-20 -3.16063e-07)
(3.56032e-06 5.8348e-06 1.46201e-19 -4.14877e-06 6.85262e-20 5.88448e-07)
(3.73626e-06 -2.91114e-06 1.08872e-20 -3.78733e-06 -2.15539e-20 5.10708e-08)
(4.50906e-06 -1.28805e-06 -6.68983e-19 -4.64671e-06 -1.05088e-19 1.37644e-07)
(6.58794e-06 7.74537e-07 7.59889e-19 -6.46745e-06 1.16738e-19 -1.20493e-07)
(4.42088e-06 7.31998e-06 2.78493e-19 -5.14521e-06 -1.05581e-19 7.24329e-07)
(3.44779e-06 -2.80027e-06 -2.49493e-19 -3.38068e-06 -1.18695e-20 -6.71076e-08)
(4.27567e-06 -1.19988e-06 4.2469e-19 -4.31695e-06 6.24125e-20 4.12868e-08)
(5.70898e-06 8.27722e-07 -3.78027e-19 -5.56517e-06 -1.68068e-19 -1.43812e-07)
(4.51369e-06 7.6086e-06 -4.74028e-19 -5.21829e-06 -2.65085e-19 7.04599e-07)
(3.32901e-06 -2.65162e-06 2.87992e-19 -3.31715e-06 3.53246e-20 -1.18636e-08)
(4.12294e-06 -1.07515e-06 -5.93122e-19 -4.20087e-06 -7.87609e-20 7.79283e-08)
(5.23543e-06 9.07481e-07 -3.97507e-20 -5.13009e-06 6.33537e-20 -1.05342e-07)
(4.0991e-06 7.02226e-06 -7.58185e-19 -4.71647e-06 8.33135e-20 6.17377e-07)
(3.13609e-06 -2.52476e-06 -2.11547e-19 -3.1067e-06 -3.9168e-20 -2.93861e-08)
(3.89114e-06 -9.7036e-07 3.87773e-19 -3.94928e-06 1.19289e-19 5.81366e-08)
(4.8165e-06 9.71412e-07 6.09274e-20 -4.71969e-06 5.21843e-20 -9.68093e-08)
(3.6481e-06 6.37362e-06 4.44855e-19 -4.17244e-06 1.51941e-19 5.24342e-07)
(2.96598e-06 -2.38978e-06 4.41374e-20 -2.9484e-06 1.94138e-20 -1.7586e-08)
(3.67372e-06 -8.67993e-07 1.68191e-19 -3.73417e-06 -3.66924e-20 6.04551e-08)
(4.42164e-06 1.01813e-06 3.19269e-19 -4.34277e-06 -2.04973e-20 -7.88728e-08)
(3.24652e-06 5.79108e-06 -2.18503e-19 -3.69232e-06 -1.39845e-19 4.45808e-07)
(2.77882e-06 -2.25737e-06 2.96445e-20 -2.76129e-06 4.86737e-23 -1.75291e-08)
(3.44312e-06 -7.76402e-07 -2.45767e-19 -3.49677e-06 -3.37344e-20 5.3644e-08)
(4.03411e-06 1.04628e-06 -4.21031e-19 -3.96753e-06 -1.08842e-19 -6.65762e-08)
(2.87832e-06 5.25832e-06 -2.4909e-19 -3.25462e-06 9.30365e-20 3.76297e-07)
(2.59137e-06 -2.12438e-06 -1.16008e-20 -2.57813e-06 3.83813e-21 -1.32384e-08)
(3.21172e-06 -6.9254e-07 1.32497e-19 -3.26141e-06 5.03284e-21 4.96935e-08)
(3.66448e-06 1.05818e-06 -1.72739e-19 -3.61042e-06 5.70897e-20 -5.40528e-08)
(2.53757e-06 4.7615e-06 5.96061e-19 -2.85293e-06 4.42122e-20 3.15354e-07)
(2.39876e-06 -1.99308e-06 1.0896e-19 -2.38788e-06 -6.54556e-21 -1.08746e-08)
(2.97655e-06 -6.1689e-07 -3.88007e-19 -3.02123e-06 -4.88919e-20 4.46742e-08)
(3.31235e-06 1.05553e-06 2.57063e-19 -3.2691e-06 6.96192e-20 -4.32507e-08)
(2.22147e-06 4.29893e-06 -4.57539e-19 -2.48286e-06 -4.38167e-20 2.61386e-07)
(2.20427e-06 -1.86314e-06 -3.0237e-19 -2.19611e-06 -3.05048e-20 -8.16222e-09)
(2.74054e-06 -5.48663e-07 9.3507e-20 -2.78066e-06 6.46921e-20 4.01127e-08)
(2.97816e-06 1.03904e-06 1.91824e-19 -2.94407e-06 -2.4663e-20 -3.40954e-08)
(1.92974e-06 3.86879e-06 7.41838e-19 -2.14366e-06 9.22468e-20 2.13914e-07)
(2.00827e-06 -1.73509e-06 1.53205e-19 -2.0023e-06 3.23023e-20 -5.97045e-09)
(2.50462e-06 -4.87367e-07 3.01435e-19 -2.54015e-06 1.00035e-20 3.55294e-08)
(2.66236e-06 1.01088e-06 -1.86134e-19 -2.63644e-06 -5.06903e-20 -2.5921e-08)
(1.66278e-06 3.47169e-06 -4.45315e-19 -1.83653e-06 -1.29332e-19 1.73751e-07)
(1.8122e-06 -1.60878e-06 -4.12982e-20 -1.8082e-06 -1.27963e-20 -3.99908e-09)
(2.27036e-06 -4.31869e-07 -2.30022e-19 -2.3015e-06 -4.5335e-20 3.11361e-08)
(2.36403e-06 9.73408e-07 -1.09388e-19 -2.3448e-06 1.80895e-20 -1.92329e-08)
(1.41851e-06 3.10603e-06 8.46722e-20 -1.55772e-06 6.02646e-20 1.39207e-07)
(1.61733e-06 -1.48443e-06 1.22064e-20 -1.61504e-06 9.23699e-21 -2.29339e-09)
(2.03944e-06 -3.81524e-07 3.52483e-20 -2.06657e-06 2.13419e-20 2.71249e-08)
(2.08354e-06 9.27924e-07 1.29588e-19 -2.06993e-06 3.8252e-20 -1.36108e-08)
(1.19618e-06 2.77088e-06 5.01598e-21 -1.30635e-06 -2.13163e-20 1.10174e-07)
(1.42503e-06 -1.36273e-06 8.64777e-20 -1.42415e-06 4.47633e-21 -8.7758e-10)
(1.81323e-06 -3.3586e-07 8.28448e-21 -1.83659e-06 -6.25226e-21 2.33643e-08)
(1.82036e-06 8.76777e-07 1.75273e-19 -1.81133e-06 -1.90605e-20 -9.03058e-09)
(9.94621e-07 2.46525e-06 -1.25543e-19 -1.08085e-06 -6.42494e-21 8.62294e-08)
(1.2367e-06 -1.24406e-06 -6.88778e-20 -1.23697e-06 -9.316e-21 2.71251e-10)
(1.59335e-06 -2.94558e-07 -6.22238e-20 -1.61336e-06 2.07246e-21 2.00125e-08)
(1.57421e-06 8.20664e-07 -3.45134e-19 -1.56862e-06 -4.1853e-20 -5.5927e-09)
(8.12382e-07 2.18661e-06 7.05339e-20 -8.78806e-07 2.48078e-20 6.64245e-08)
(1.0536e-06 -1.12823e-06 4.93132e-20 -1.05475e-06 1.67595e-21 1.15028e-09)
(1.38099e-06 -2.5649e-07 1.3786e-19 -1.398e-06 1.93766e-20 1.70068e-08)
(1.34482e-06 7.62126e-07 1.29209e-19 -1.34191e-06 5.76778e-20 -2.9104e-09)
(6.48423e-07 1.93402e-06 7.39529e-20 -6.99095e-07 9.93778e-21 5.06727e-08)
(8.7707e-07 -1.01535e-06 -1.27852e-19 -8.78901e-07 -9.97672e-21 1.8306e-09)
(1.17741e-06 -2.21026e-07 -6.15071e-21 -1.19176e-06 -4.39269e-21 1.43492e-08)
(1.1317e-06 7.02754e-07 2.32081e-19 -1.13069e-06 2.66896e-21 -1.00781e-09)
(5.00973e-07 1.70579e-06 1.19182e-19 -5.39042e-07 -1.35081e-20 3.80693e-08)
(7.08363e-07 -9.05911e-07 1.09841e-19 -7.10684e-07 1.85743e-20 2.32089e-09)
(9.83828e-07 -1.87712e-07 8.89456e-20 -9.95889e-07 8.11462e-21 1.20617e-08)
(9.34549e-07 6.43926e-07 -1.75783e-19 -9.34859e-07 -2.60437e-20 3.09947e-10)
(3.68888e-07 1.50053e-06 -2.82056e-19 -3.9724e-07 -2.52087e-20 2.83516e-08)
(5.48641e-07 -8.00301e-07 5.92166e-21 -5.51297e-07 -5.68019e-21 2.65569e-09)
(8.0119e-07 -1.56398e-07 -2.8709e-20 -8.11277e-07 -1.32045e-20 1.00878e-08)
(7.52948e-07 5.86634e-07 1.29088e-19 -7.5404e-07 1.35551e-20 1.09124e-09)
(2.50749e-07 1.31638e-06 1.84239e-19 -2.71617e-07 2.41245e-20 2.08679e-08)
(3.98919e-07 -6.98626e-07 -7.75433e-21 -4.0174e-07 -2.42753e-21 2.82087e-09)
(6.30407e-07 -1.26439e-07 -8.51158e-20 -6.38815e-07 -1.05499e-20 8.40784e-09)
(5.86539e-07 5.32013e-07 -1.89885e-19 -5.88037e-07 -2.26342e-20 1.49813e-09)
(1.45418e-07 1.15178e-06 -2.27852e-19 -1.60689e-07 -3.66855e-20 1.52712e-08)
(2.60098e-07 -6.00956e-07 -2.48007e-20 -2.62985e-07 -3.45341e-21 2.88623e-09)
(4.72143e-07 -9.74189e-08 -5.94995e-20 -4.79213e-07 -2.33467e-21 7.06996e-09)
(4.34867e-07 4.81111e-07 9.22058e-20 -4.36489e-07 2.18025e-20 1.62229e-09)
(5.16904e-08 1.00548e-06 -2.14679e-20 -6.28338e-08 2.4829e-20 1.11434e-08)
(1.32821e-07 -5.07401e-07 -2.44437e-20 -1.35664e-07 -2.69518e-21 2.84244e-09)
(3.26756e-07 -6.89803e-08 -1.54899e-20 -3.32645e-07 5.51535e-21 5.88905e-09)
(2.97522e-07 4.34781e-07 8.36213e-21 -2.9911e-07 -2.91558e-21 1.58788e-09)
(-3.14904e-08 8.7622e-07 2.20099e-19 2.33088e-08 3.50493e-20 8.1816e-09)
(1.76868e-08 -4.18257e-07 -3.37206e-20 -2.04464e-08 -2.85012e-21 2.75967e-09)
(1.94713e-07 -4.09373e-08 8.075e-20 -1.9965e-07 7.80315e-21 4.93631e-09)
(1.74009e-07 3.93452e-07 3.23729e-20 -1.75397e-07 -1.49027e-21 1.38826e-09)
(-1.05085e-07 7.6284e-07 2.20117e-19 9.89846e-08 2.25425e-22 6.1002e-09)
(-8.49411e-08 -3.33938e-07 -1.00087e-20 8.23098e-08 3.11649e-21 2.63134e-09)
(7.61625e-08 -1.34095e-08 -2.60261e-20 -8.03202e-08 -4.95134e-21 4.15776e-09)
(6.39339e-08 3.57198e-07 -7.73793e-20 -6.50787e-08 -9.58871e-21 1.14479e-09)
(-1.69816e-07 6.63993e-07 -1.91973e-19 1.65122e-07 -3.71725e-20 4.69425e-09)
(-1.74976e-07 -2.54584e-07 6.14914e-20 1.72501e-07 6.24017e-21 2.47496e-09)
(-2.89204e-08 1.3703e-08 3.60793e-20 2.54059e-08 -3.79031e-22 3.51453e-09)
(-3.32294e-08 3.26183e-07 5.36797e-22 3.23447e-08 8.60265e-21 8.84676e-10)
(-2.26347e-07 5.78468e-07 -1.38433e-19 2.22593e-07 -1.4965e-21 3.75337e-09)
(-2.52451e-07 -1.80285e-07 -1.30609e-20 2.50191e-07 -3.02413e-21 2.26053e-09)
(-1.20736e-07 4.04297e-08 -1.23268e-19 1.17752e-07 -1.11537e-20 2.98369e-09)
(-1.18016e-07 3.00419e-07 9.42863e-20 1.17375e-07 4.35183e-21 6.40565e-10)
(-2.75295e-07 5.05218e-07 6.62944e-20 2.72125e-07 7.78623e-21 3.17029e-09)
(-3.17608e-07 -1.11354e-07 2.10188e-20 3.15557e-07 1.88694e-21 2.05065e-09)
(-1.99594e-07 6.65851e-08 7.87069e-20 1.97054e-07 1.19394e-20 2.53997e-09)
(-1.90995e-07 2.79588e-07 -1.1603e-19 1.90584e-07 -1.35644e-20 4.11871e-10)
(-3.17146e-07 4.43135e-07 -1.24462e-19 3.14328e-07 -1.39996e-20 2.81806e-09)
(-3.70868e-07 -4.8034e-08 -1.97815e-20 3.69045e-07 -1.55981e-21 1.82298e-09)
(-2.65959e-07 9.18818e-08 -3.74832e-20 2.63781e-07 -6.78866e-21 2.17779e-09)
(-2.52758e-07 2.63263e-07 5.8061e-20 2.52526e-07 8.1013e-21 2.3201e-10)
(-3.52294e-07 3.91036e-07 3.72452e-20 3.49663e-07 1.54735e-20 2.63128e-09)
(-4.12914e-07 9.96206e-09 3.43966e-20 4.11322e-07 4.72802e-21 1.5919e-09)
(-3.20508e-07 1.16391e-07 9.30932e-21 3.1863e-07 9.17786e-22 1.87759e-09)
(-3.04001e-07 2.51175e-07 -7.37909e-20 3.03912e-07 -5.36617e-21 8.90459e-11)
(-3.81198e-07 3.47987e-07 1.72322e-19 3.78651e-07 1.49238e-20 2.54754e-09)
(-5.67614e-07 2.47977e-08 -2.34231e-20 5.66255e-07 -2.39859e-22 1.35854e-09)
(-4.44504e-07 6.19576e-08 1.01872e-20 4.43118e-07 -3.66135e-21 1.38652e-09)
(-3.63807e-07 1.39583e-07 -4.37207e-20 3.62242e-07 6.0677e-22 1.56505e-09)
(-3.45326e-07 2.42653e-07 1.26079e-19 3.4535e-07 1.6087e-20 -2.39846e-11)
(-4.04142e-07 3.12907e-07 -2.43665e-20 4.01615e-07 -8.41044e-21 2.5275e-09)
(-5.69248e-07 8.92625e-08 6.33771e-20 5.68108e-07 6.96481e-21 1.14087e-09)
(-4.66182e-07 1.07898e-07 -1.02792e-19 4.65026e-07 -1.06851e-20 1.1567e-09)
(-3.96825e-07 1.6109e-07 1.57164e-19 3.95464e-07 1.49565e-20 1.36101e-09)
(-3.77487e-07 2.36929e-07 1.01201e-20 3.77579e-07 -8.27163e-21 -9.19987e-11)
(-4.21449e-07 2.84551e-07 7.93936e-21 4.18907e-07 1.70961e-21 2.54245e-09)
(-5.64028e-07 1.44616e-07 -1.77979e-20 5.63076e-07 -4.63327e-21 9.51958e-10)
(-4.79118e-07 1.48382e-07 2.01636e-20 4.78143e-07 7.37686e-21 9.74499e-10)
(-4.20419e-07 1.80949e-07 -8.73145e-20 4.19258e-07 -1.49642e-20 1.16064e-09)
(-4.01264e-07 2.33669e-07 -1.44414e-19 4.01429e-07 -1.36906e-20 -1.64911e-10)
(-4.3353e-07 2.62113e-07 -4.633e-21 4.30968e-07 -3.60363e-21 2.56182e-09)
(-5.52956e-07 1.91329e-07 -2.51254e-20 5.52174e-07 -9.97629e-22 7.81731e-10)
(-4.84286e-07 1.83277e-07 6.07851e-20 4.83486e-07 7.38271e-21 8.00074e-10)
(-4.35506e-07 1.98912e-07 -1.68674e-20 4.34518e-07 2.47508e-21 9.87716e-10)
(-4.17393e-07 2.32363e-07 5.31968e-20 4.17588e-07 1.07666e-20 -1.95681e-10)
(-4.40718e-07 2.44796e-07 -9.15979e-20 4.38112e-07 -6.77848e-21 2.60556e-09)
(-5.36964e-07 2.29765e-07 4.06866e-20 5.36332e-07 5.3028e-21 6.31638e-10)
(-4.82661e-07 2.12627e-07 5.0104e-20 4.82018e-07 3.20473e-21 6.42827e-10)
(-4.43026e-07 2.14668e-07 4.80957e-20 4.42189e-07 4.12309e-21 8.37391e-10)
(-4.26659e-07 2.32286e-07 1.50341e-20 4.26885e-07 1.80957e-21 -2.26453e-10)
(-4.43386e-07 2.31567e-07 8.90218e-20 4.40757e-07 1.31098e-20 2.62858e-09)
(-5.1701e-07 2.60562e-07 6.38453e-21 5.16507e-07 -5.34847e-22 5.03463e-10)
(-4.75267e-07 2.36718e-07 -1.40034e-20 4.74763e-07 -4.42919e-21 5.04165e-10)
(-4.43967e-07 2.28096e-07 -5.61263e-20 4.43262e-07 -6.4105e-21 7.04676e-10)
(-4.29853e-07 2.3297e-07 6.50315e-20 4.30102e-07 5.08983e-21 -2.49158e-10)
(-4.41929e-07 2.21633e-07 4.4588e-20 4.39291e-07 1.89094e-21 2.63835e-09)
(-4.94009e-07 2.84441e-07 -2.76324e-21 4.93611e-07 -1.02748e-22 3.9819e-10)
(-4.63096e-07 2.55948e-07 -6.13274e-20 4.62708e-07 -6.02112e-21 3.87346e-10)
(-4.39291e-07 2.39247e-07 3.90361e-20 4.38684e-07 5.15184e-21 6.06556e-10)
(-4.27746e-07 2.34073e-07 -4.75703e-20 4.28003e-07 -8.2302e-21 -2.56744e-10)
(-4.36761e-07 2.1437e-07 -1.68485e-20 4.34114e-07 -5.20179e-21 2.6469e-09)
(-4.68746e-07 3.01958e-07 1.30543e-20 4.68437e-07 1.34372e-21 3.08923e-10)
(-4.47066e-07 2.70531e-07 1.24253e-20 4.46773e-07 4.25e-21 2.92555e-10)
(-4.2992e-07 2.47965e-07 -2.34031e-20 4.29412e-07 -3.58236e-21 5.07812e-10)
(-4.21115e-07 2.35129e-07 -5.3435e-20 4.21389e-07 -2.95873e-21 -2.73233e-10)
(-4.28317e-07 2.09068e-07 -9.82074e-20 4.25686e-07 -8.71667e-21 2.63097e-09)
(-4.41963e-07 3.13766e-07 -1.24725e-20 4.41728e-07 -1.33324e-21 2.34478e-10)
(-4.28044e-07 2.808e-07 5.91782e-20 4.27833e-07 5.30413e-21 2.10808e-10)
(-4.1671e-07 2.54245e-07 -3.8309e-21 4.16283e-07 -5.1975e-24 4.26608e-10)
(-4.10676e-07 2.35771e-07 6.04535e-20 4.1096e-07 8.28193e-21 -2.84211e-10)
(-4.17014e-07 2.05102e-07 6.18653e-20 4.14412e-07 6.87758e-21 2.60165e-09)
(-4.14345e-07 3.20662e-07 1.93818e-20 4.14163e-07 3.1553e-21 1.82107e-10)
(-4.06835e-07 2.87289e-07 -4.62109e-20 4.06687e-07 -7.69939e-21 1.4755e-10)
(-4.00502e-07 2.5828e-07 -7.07871e-21 4.00134e-07 -2.88111e-22 3.68844e-10)
(-3.97138e-07 2.35883e-07 2.24406e-20 3.97422e-07 2.47708e-21 -2.83789e-10)
(-4.03304e-07 2.02074e-07 -9.5571e-20 4.00734e-07 -1.14802e-20 2.56948e-09)
(-3.86458e-07 3.23283e-07 3.74943e-20 3.86323e-07 3.58226e-21 1.34839e-10)
(-3.84151e-07 2.90376e-07 -6.05629e-20 3.84059e-07 -5.83686e-21 9.22962e-11)
(-3.82045e-07 2.60175e-07 1.67622e-20 3.81735e-07 1.27896e-21 3.10172e-10)
(-3.81179e-07 2.35268e-07 6.41888e-20 3.81476e-07 7.1032e-21 -2.97135e-10)
(-3.87653e-07 1.99601e-07 1.02222e-20 3.85146e-07 2.6278e-21 2.50728e-09)
(-3.58737e-07 3.22181e-07 -2.13806e-20 3.58635e-07 -2.78401e-21 1.01752e-10)
(-3.60581e-07 2.90377e-07 2.72334e-21 3.60528e-07 2.02278e-21 5.35594e-11)
(-3.61968e-07 2.59971e-07 -3.56188e-20 3.61706e-07 -4.42586e-21 2.62512e-10)
(-3.63358e-07 2.33727e-07 2.35057e-20 3.63656e-07 2.7992e-23 -2.98317e-10)
(-3.70427e-07 1.97287e-07 -2.38879e-20 3.67978e-07 -3.45082e-21 2.44883e-09)
(-3.31555e-07 3.17846e-07 2.14863e-20 3.31476e-07 2.71235e-21 7.8707e-11)
(-3.36631e-07 2.8761e-07 3.25504e-20 3.36608e-07 2.74841e-21 2.36294e-11)
(-3.40845e-07 2.5777e-07 -2.2166e-21 3.40616e-07 1.77548e-21 2.28879e-10)
(-3.44207e-07 2.31101e-07 -6.99226e-20 3.44509e-07 -9.29872e-21 -3.02355e-10)
(-3.52014e-07 1.94753e-07 -3.83763e-20 3.49641e-07 -3.62042e-21 2.37299e-09)
(-3.05234e-07 3.1084e-07 -8.3587e-21 3.05175e-07 -1.50719e-21 5.9542e-11)
(-3.12715e-07 2.82447e-07 -5.82827e-20 3.12719e-07 -7.47849e-21 -3.92939e-12)
(-3.1917e-07 2.53719e-07 7.86933e-20 3.18966e-07 9.59522e-21 2.04143e-10)
(-3.24199e-07 2.27346e-07 -5.89094e-20 3.24502e-07 -4.13319e-21 -3.03609e-10)
(-3.32777e-07 1.91784e-07 1.4905e-20 3.30489e-07 2.04007e-21 2.28797e-09)
(-2.68748e-07 3.27672e-07 5.0372e-21 2.68714e-07 1.65262e-22 3.37966e-11)
(-2.80007e-07 3.01465e-07 -1.18317e-20 2.79952e-07 -2.12898e-21 5.4835e-11)
(-2.89136e-07 2.75167e-07 -1.23659e-20 2.89181e-07 7.66139e-22 -4.45346e-11)
(-2.97327e-07 2.47939e-07 3.37183e-20 2.97138e-07 1.92086e-21 1.88573e-10)
(-3.03718e-07 2.2239e-07 7.81069e-20 3.04015e-07 1.07841e-20 -2.97761e-10)
(-3.13016e-07 1.88153e-07 -1.09093e-20 3.10825e-07 -1.79971e-21 2.191e-09)
(-2.43644e-07 3.13771e-07 -1.31201e-20 2.43624e-07 -1.23372e-21 2.01211e-11)
(-2.55896e-07 2.9008e-07 -6.4591e-20 2.55863e-07 -7.30191e-21 3.25294e-11)
(-2.66249e-07 2.65979e-07 9.17347e-20 2.66297e-07 1.03356e-20 -4.88385e-11)
(-2.7565e-07 2.40502e-07 -4.59558e-20 2.75479e-07 -5.43252e-21 1.70378e-10)
(-2.83117e-07 2.1615e-07 5.99059e-20 2.83408e-07 5.52382e-21 -2.91706e-10)
(-2.9301e-07 1.83652e-07 -2.29504e-20 2.90929e-07 -2.21275e-21 2.08159e-09)
(-2.20304e-07 2.98379e-07 3.47317e-20 2.20286e-07 4.46032e-21 1.81619e-11)
(-2.33085e-07 2.77144e-07 1.53872e-20 2.33053e-07 2.50516e-21 3.26377e-11)
(-2.44189e-07 2.55185e-07 -4.62181e-20 2.44241e-07 -6.5325e-21 -5.16043e-11)
(-2.54398e-07 2.31608e-07 3.05272e-20 2.54246e-07 3.86083e-21 1.51738e-10)
(-2.62673e-07 2.08714e-07 -7.1581e-21 2.62948e-07 -1.94018e-21 -2.74164e-10)
(-2.73002e-07 1.78211e-07 1.76267e-20 2.71039e-07 2.32164e-21 1.9631e-09)
(-1.98707e-07 2.81958e-07 9.85373e-21 1.98692e-07 4.14218e-22 1.52406e-11)
(-2.11647e-07 2.63008e-07 -1.06256e-20 2.11624e-07 -9.91582e-22 2.30163e-11)
(-2.23133e-07 2.4315e-07 1.14454e-20 2.23187e-07 2.13711e-21 -5.47263e-11)
(-2.33817e-07 2.21528e-07 -2.80046e-20 2.33682e-07 -3.16052e-21 1.35446e-10)
(-2.42659e-07 2.00238e-07 -1.91751e-20 2.4292e-07 -2.2572e-21 -2.61226e-10)
(-2.53251e-07 1.7188e-07 -1.21399e-21 2.51419e-07 -1.02884e-22 1.83225e-09)
(-1.78837e-07 2.65022e-07 -3.78995e-20 1.78824e-07 -4.53075e-21 1.3475e-11)
(-1.9166e-07 2.48187e-07 4.30737e-20 1.91641e-07 5.79339e-21 1.98094e-11)
(-2.03231e-07 2.30336e-07 1.84319e-20 2.03286e-07 1.6323e-21 -5.44996e-11)
(-2.14115e-07 2.10659e-07 4.38804e-20 2.13994e-07 5.14016e-21 1.21053e-10)
(-2.23302e-07 1.91051e-07 -1.07679e-20 2.23543e-07 -8.11244e-22 -2.4122e-10)
(-2.33991e-07 1.64893e-07 2.38976e-20 2.32288e-07 2.26013e-21 1.70245e-09)
(-1.60679e-07 2.48071e-07 1.7841e-20 1.60668e-07 2.48107e-21 1.07798e-11)
(-1.73176e-07 2.33169e-07 4.74276e-20 1.73158e-07 5.09424e-21 1.77063e-11)
(-1.84602e-07 2.17205e-07 -4.05703e-20 1.84654e-07 -4.62155e-21 -5.1605e-11)
(-1.95462e-07 1.99414e-07 -3.62196e-20 1.95353e-07 -5.42726e-21 1.09417e-10)
(-2.04803e-07 1.81497e-07 1.5317e-20 2.05023e-07 1.82614e-21 -2.20181e-10)
(-2.15449e-07 1.57521e-07 -5.01167e-20 2.13879e-07 -5.48294e-21 1.5701e-09)
(-1.44181e-07 2.31489e-07 -6.89548e-21 1.44172e-07 -1.599e-21 8.90855e-12)
(-1.562e-07 2.18338e-07 -2.12594e-20 1.56185e-07 -2.47414e-21 1.50205e-11)
(-1.67312e-07 2.04125e-07 4.48723e-20 1.67362e-07 5.70389e-21 -4.94075e-11)
(-1.77977e-07 1.88126e-07 -6.43e-20 1.77877e-07 -7.17649e-21 9.96195e-11)
(-1.87305e-07 1.71866e-07 -1.41763e-20 1.87509e-07 -1.86877e-21 -2.041e-10)
(-1.97801e-07 1.5002e-07 6.55503e-20 1.96356e-07 7.69148e-21 1.44501e-09)
(-1.29239e-07 2.15422e-07 -7.24526e-20 1.29231e-07 -8.64795e-21 8.35402e-12)
(-1.40676e-07 2.03838e-07 6.00239e-20 1.40663e-07 7.01421e-21 1.33148e-11)
(-1.51351e-07 1.9123e-07 -1.20759e-20 1.51399e-07 -1.55891e-21 -4.79746e-11)
(-1.61689e-07 1.76915e-07 1.28377e-20 1.616e-07 2.23714e-21 8.88018e-11)
(-1.70868e-07 1.6225e-07 5.86649e-21 1.71055e-07 1.28852e-22 -1.87041e-10)
(-1.81122e-07 1.4246e-07 -4.97926e-20 1.79794e-07 -6.17523e-21 1.3282e-09)
(-1.15695e-07 1.99816e-07 2.27277e-20 1.15688e-07 3.21699e-21 7.34925e-12)
(-1.26471e-07 1.89611e-07 -6.31445e-20 1.26461e-07 -8.1229e-21 9.36165e-12)
(-1.36635e-07 1.78462e-07 4.08584e-20 1.36676e-07 5.1662e-21 -4.05181e-11)
(-1.46548e-07 1.65711e-07 1.50165e-20 1.46466e-07 1.45993e-21 8.24042e-11)
(-1.55476e-07 1.52545e-07 -7.31022e-20 1.55648e-07 -8.89478e-21 -1.72087e-10)
(-1.6541e-07 1.34723e-07 3.3024e-20 1.64198e-07 4.45929e-21 1.21161e-09)
(-9.28516e-08 1.92474e-07 7.91982e-22 9.28396e-08 -3.7073e-22 1.20228e-11)
(-1.03375e-07 1.84424e-07 -1.49427e-20 1.03365e-07 -1.80966e-21 9.7549e-12)
(-1.13415e-07 1.75465e-07 1.10539e-20 1.13419e-07 1.99491e-21 -4.22287e-12)
(-1.23033e-07 1.65618e-07 1.32647e-20 1.23063e-07 1.25302e-21 -2.94696e-11)
(-1.32455e-07 1.54297e-07 -3.14218e-20 1.32376e-07 -3.56234e-21 7.86729e-11)
(-1.41059e-07 1.42527e-07 -1.45047e-20 1.41211e-07 -1.49145e-21 -1.51605e-10)
(-1.50586e-07 1.2658e-07 1.81147e-20 1.49487e-07 1.73154e-21 1.09891e-09)
(-8.23183e-08 1.76181e-07 -7.07283e-20 8.23105e-08 -8.80694e-21 7.73807e-12)
(-9.20628e-08 1.69116e-07 2.58063e-20 9.20583e-08 3.64524e-21 4.47035e-12)
(-1.01421e-07 1.61265e-07 2.22612e-20 1.01426e-07 2.40916e-21 -4.79476e-12)
(-1.10439e-07 1.52576e-07 -7.54646e-21 1.10466e-07 -1.29231e-21 -2.74612e-11)
(-1.19328e-07 1.42547e-07 4.44353e-20 1.19261e-07 5.90873e-21 6.65252e-11)
(-1.27572e-07 1.32057e-07 -4.56972e-20 1.27705e-07 -4.67248e-21 -1.33523e-10)
(-1.36604e-07 1.17861e-07 -2.38604e-20 1.35635e-07 -3.21523e-21 9.69474e-10)
(-7.26885e-08 1.60166e-07 -1.88398e-21 7.26741e-08 3.02341e-22 1.44473e-11)
(-8.16814e-08 1.53976e-07 4.97631e-20 8.16665e-08 5.9946e-21 1.48921e-11)
(-9.03549e-08 1.4708e-07 -3.89402e-20 9.03505e-08 -4.99112e-21 4.38944e-12)
(-9.87669e-08 1.39421e-07 -4.51204e-20 9.87798e-08 -5.49213e-21 -1.28955e-11)
(-1.07098e-07 1.30557e-07 3.63083e-20 1.07033e-07 4.49229e-21 6.51005e-11)
(-1.14967e-07 1.21225e-07 9.53072e-20 1.15062e-07 1.1788e-20 -9.49133e-11)
(-1.23428e-07 1.08642e-07 -3.28883e-20 1.22577e-07 -4.31036e-21 8.50828e-10)
(-6.39403e-08 1.44679e-07 1.74976e-20 6.39438e-08 2.03424e-21 -3.56696e-12)
(-7.22125e-08 1.39251e-07 -2.2383e-21 7.22165e-08 -3.38178e-22 -3.94485e-12)
(-8.02258e-08 1.33191e-07 -4.11339e-21 8.0239e-08 -2.11504e-22 -1.32641e-11)
(-8.80454e-08 1.26439e-07 -2.25975e-21 8.80694e-08 -1.21622e-22 -2.39891e-11)
(-9.581e-08 1.18611e-07 6.36474e-20 9.57732e-08 7.34824e-21 3.68197e-11)
(-1.03297e-07 1.10311e-07 -1.04238e-20 1.03375e-07 -1.85468e-21 -7.77143e-11)
(-1.11135e-07 9.91757e-08 -8.86507e-20 1.10436e-07 -1.04515e-20 6.98982e-10)
(-5.59703e-08 1.30052e-07 -3.62464e-20 5.5952e-08 -4.53935e-21 1.83584e-11)
(-6.35773e-08 1.25286e-07 4.35415e-20 6.35534e-08 5.32398e-21 2.39654e-11)
(-7.09559e-08 1.19959e-07 1.10974e-20 7.09452e-08 1.6864e-21 1.07347e-11)
(-7.8202e-08 1.14008e-07 -2.37316e-20 7.81994e-08 -3.19953e-21 2.54284e-12)
(-8.54086e-08 1.07096e-07 -3.12203e-20 8.53609e-08 -3.82322e-21 4.76844e-11)
(-9.25124e-08 9.97066e-08 1.12836e-20 9.25266e-08 1.22201e-21 -1.41625e-11)
(-9.97171e-08 8.98394e-08 8.61259e-21 9.911e-08 1.95012e-21 6.07079e-10)
(-4.89111e-08 1.16704e-07 1.57346e-20 4.89252e-08 1.90076e-21 -1.40472e-11)
(-5.58914e-08 1.12507e-07 -2.51389e-20 5.58986e-08 -3.33826e-21 -7.22878e-12)
(-6.26808e-08 1.07812e-07 6.46878e-20 6.26974e-08 7.75889e-21 -1.66444e-11)
(-6.93742e-08 1.02575e-07 -5.15532e-20 6.93961e-08 -6.22492e-21 -2.18395e-11)
(-7.60464e-08 9.6493e-08 7.22612e-20 7.60362e-08 8.90307e-21 1.0115e-11)
(-8.27322e-08 8.99565e-08 -3.94124e-20 8.27555e-08 -4.98635e-21 -2.32725e-11)
(-8.93639e-08 8.12675e-08 8.02224e-20 8.89021e-08 9.78402e-21 4.6175e-10)
(-4.34325e-08 1.05409e-07 -4.10658e-20 4.34452e-08 -5.52693e-21 -1.26578e-11)
(-4.98846e-08 1.01602e-07 -1.02841e-21 4.98983e-08 -2.79418e-23 -1.37266e-11)
(-5.61765e-08 9.73453e-08 -2.85763e-20 5.62029e-08 -3.67194e-21 -2.64272e-11)
(-6.24262e-08 9.25861e-08 -1.67151e-21 6.24488e-08 1.04085e-22 -2.25727e-11)
(-6.8653e-08 8.70628e-08 -1.24727e-20 6.86583e-08 -2.14462e-21 -5.33091e-12)
(-7.50049e-08 8.10835e-08 -2.06104e-20 7.50201e-08 -2.22951e-21 -1.52673e-11)
(-8.11319e-08 7.32946e-08 2.86941e-20 8.07978e-08 2.74258e-21 3.34062e-10)
(-3.89881e-08 9.6358e-08 -5.95102e-20 3.89736e-08 -7.21503e-21 1.45061e-11)
(-4.50048e-08 9.28339e-08 -9.13143e-21 4.49934e-08 -9.66234e-22 1.14029e-11)
(-5.08818e-08 8.88987e-08 3.4503e-20 5.08811e-08 4.38036e-21 7.17326e-13)
(-5.67372e-08 8.44878e-08 4.54166e-23 5.67272e-08 -1.31963e-22 9.99438e-12)
(-6.25565e-08 7.93711e-08 -2.99384e-20 6.25378e-08 -3.91418e-21 1.86114e-11)
(-6.85824e-08 7.37992e-08 2.95956e-21 6.85438e-08 1.27362e-21 3.85323e-11)
(-7.42271e-08 6.66883e-08 -4.49908e-20 7.39311e-08 -6.07456e-21 2.95993e-10)
(-3.48314e-08 8.83251e-08 8.517e-21 3.48294e-08 1.49174e-21 1.99787e-12)
(-4.04366e-08 8.5061e-08 2.60715e-20 4.04301e-08 3.25814e-21 6.51379e-12)
(-4.59232e-08 8.14154e-08 -2.02835e-20 4.59147e-08 -2.70157e-21 8.56397e-12)
(-5.13782e-08 7.73329e-08 -2.86051e-20 5.13601e-08 -3.77041e-21 1.81511e-11)
(-5.68089e-08 7.25932e-08 -5.43944e-20 5.67846e-08 -6.21454e-21 2.42958e-11)
(-6.24627e-08 6.74224e-08 1.15418e-19 6.24217e-08 1.38547e-20 4.09882e-11)
(-6.76803e-08 6.09128e-08 -7.70199e-20 6.74708e-08 -8.72984e-21 2.09563e-10)
(-3.08131e-08 8.05601e-08 2.43581e-20 3.08357e-08 3.08692e-21 -2.26072e-11)
(-3.60156e-08 7.75408e-08 -8.48951e-21 3.60479e-08 -1.25772e-21 -3.23419e-11)
(-4.1132e-08 7.41696e-08 7.80155e-21 4.11675e-08 1.01507e-21 -3.55004e-11)
(-4.62153e-08 7.03985e-08 -4.48262e-20 4.62474e-08 -5.57146e-21 -3.21246e-11)
(-5.12846e-08 6.60127e-08 6.79212e-20 5.13107e-08 8.58615e-21 -2.61553e-11)
(-5.6584e-08 6.12145e-08 -6.63684e-20 5.65835e-08 -8.49085e-21 5.17717e-13)
(-6.13904e-08 5.52894e-08 9.14123e-20 6.12457e-08 1.14406e-20 1.44611e-10)
(-2.19278e-08 7.53197e-08 3.31073e-20 2.18434e-08 4.21805e-21 8.44348e-11)
(-2.68076e-08 7.28152e-08 1.69855e-20 2.6719e-08 2.12748e-21 8.85586e-11)
(-3.15677e-08 7.00105e-08 -1.46114e-20 3.149e-08 -1.92589e-21 7.76424e-11)
(-3.62954e-08 6.68939e-08 -1.31743e-20 3.62219e-08 -1.7864e-21 7.34258e-11)
(-4.10166e-08 6.34154e-08 -2.91792e-20 4.09523e-08 -3.35132e-21 6.43025e-11)
(-4.57458e-08 5.9389e-08 -2.90078e-20 4.57175e-08 -3.72794e-21 2.82789e-11)
(-5.07298e-08 5.50155e-08 7.50741e-20 5.07389e-08 9.60653e-21 -9.11164e-12)
(-5.53512e-08 4.97866e-08 -4.21809e-20 5.54084e-08 -5.49322e-21 -5.72168e-11)
(-1.85567e-08 6.71773e-08 -1.66512e-20 1.87413e-08 -2.04751e-21 -1.84634e-10)
(-2.30179e-08 6.46809e-08 2.80728e-20 2.31712e-08 3.28079e-21 -1.53295e-10)
(-2.73657e-08 6.19091e-08 -2.91257e-20 2.74712e-08 -3.37915e-21 -1.0543e-10)
(-3.1645e-08 5.88456e-08 -2.57963e-20 3.16847e-08 -3.35641e-21 -3.96766e-11)
(-3.59169e-08 5.54438e-08 2.39683e-20 3.58704e-08 2.89782e-21 4.64282e-11)
(-4.0185e-08 5.15533e-08 4.78481e-20 4.00471e-08 6.43459e-21 1.37921e-10)
(-4.47823e-08 4.7084e-08 -8.71615e-21 4.44298e-08 -1.66943e-21 3.52542e-10)
(-4.86137e-08 4.2017e-08 2.20098e-20 4.80104e-08 3.02825e-21 6.03338e-10)
(-1.39387e-08 5.70676e-08 5.38087e-20 1.37811e-08 6.87134e-21 1.57634e-10)
(-1.80838e-08 5.47188e-08 -6.3254e-20 1.80857e-08 -8.2452e-21 -1.88846e-12)
(-2.21984e-08 5.21195e-08 7.33571e-20 2.23774e-08 9.43682e-21 -1.79e-10)
(-2.63243e-08 4.92324e-08 -5.78879e-20 2.6681e-08 -7.22768e-21 -3.5667e-10)
(-3.04847e-08 4.60282e-08 -6.6436e-20 3.10315e-08 -8.50564e-21 -5.46858e-10)
(-3.46143e-08 4.24373e-08 9.55213e-20 3.54584e-08 1.20877e-20 -8.44146e-10)
(-3.89651e-08 3.89014e-08 -5.93474e-20 4.02674e-08 -7.54214e-21 -1.30227e-09)
(-4.33373e-08 3.50965e-08 4.6777e-20 4.53978e-08 5.75018e-21 -2.06051e-09)
(-8.60297e-09 4.26988e-08 8.04072e-21 7.80479e-09 7.73816e-22 7.98187e-10)
(-1.18057e-08 3.97706e-08 -5.62125e-20 1.06134e-08 -6.98688e-21 1.19232e-09)
(-1.48907e-08 3.67243e-08 3.66141e-20 1.33193e-08 4.29838e-21 1.57142e-09)
(-1.79565e-08 3.35435e-08 -9.86645e-21 1.60048e-08 -8.59114e-22 1.95167e-09)
(-2.11603e-08 3.00683e-08 -4.06739e-20 1.87719e-08 -4.84905e-21 2.38838e-09)
(-2.45849e-08 2.6028e-08 1.07692e-19 2.1604e-08 1.30641e-20 2.98094e-09)
(-2.90143e-08 2.00883e-08 -5.59648e-20 2.46897e-08 -6.54092e-21 4.32451e-09)
(-3.09591e-08 1.42859e-08 1.13113e-20 2.56075e-08 9.74057e-22 5.35156e-09)
(-6.09729e-09 3.2956e-08 -2.80937e-20 1.08663e-08 -3.50407e-21 -4.769e-09)
(-1.02869e-08 3.05158e-08 -2.84974e-20 1.57718e-08 -3.42222e-21 -5.48491e-09)
(-1.44645e-08 2.77067e-08 -4.60947e-20 2.05988e-08 -5.9902e-21 -6.13429e-09)
(-1.85424e-08 2.45298e-08 7.92979e-20 2.52978e-08 9.91574e-21 -6.75537e-09)
(-2.23853e-08 2.12387e-08 1.32774e-20 2.98774e-08 1.80107e-21 -7.49206e-09)
(-2.53061e-08 1.8236e-08 -2.57179e-20 3.42245e-08 -3.4829e-21 -8.91833e-09)