/*--------------------------------*- C++ -*----------------------------------*\
| =========                 |                                                 |
| \\      /  F ield         | OpenFOAM: The Open Source CFD Toolbox           |
|  \\    /   O peration     | Version:  2506                                  |
|   \\  /    A nd           | Website:  www.openfoam.com                      |
|    \\/     M anipulation  |                                                 |
\*---------------------------------------------------------------------------*/
FoamFile
{
    version     2.0;
    format      ascii;
    arch        "LSB;label=32;scalar=64";
    class       volScalarField;
    location    "50";
    object      div(phi);
}
// * * * * * * * * * * * * * * * * * * * * * * * * * * * * * * * * * * * * * //

dimensions      [0 0 -1 0 0 0 0];

internalField   nonuniform List<scalar> 
1340
(
0.000191533
-0.000355063
1.02081e-05
0.000257315
-0.000146063
0.000168015
-0.000837868
-0.000453374
-0.000265072
0.000128495
0.000269077
0.000233703
0.000109219
-5.10563e-05
-0.000129833
-0.000228354
-0.000227359
-0.000316658
-0.000225807
-0.000350806
5.648e-05
-4.56709e-05
0.00118198
0.000691349
8.19076e-05
-0.00147004
0.000421504
0.000612812
0.00304594
0.0113068
-0.00293626
-0.0254267
0.0283033
0.0225041
0.0531503
-3.14128e-05
-0.000327665
-0.000397522
-0.000449995
-0.00184814
0.000978434
-0.00188385
-0.000264702
-0.000140415
-3.7844e-05
0.00013815
-4.59514e-05
-0.000370864
-0.000515512
-0.000573779
-0.000128184
0.000175555
0.000240356
0.000160437
-4.8917e-06
-0.000126906
-0.000192702
-0.000248062
-0.00021947
-0.000224005
-8.48277e-05
5.4982e-06
0.000415889
0.000750207
0.00162417
0.00195509
0.00192987
0.00169131
0.00112571
0.000656084
0.000911216
0.00326083
0.000963118
-0.00512473
0.00456956
0.00557466
0.0190251
3.67631e-06
-0.000298541
-0.000142574
-0.000730071
-0.000167845
-0.00140367
-0.000428423
7.1567e-05
-0.000144322
3.00505e-05
-0.00010426
-0.00038119
-0.000586814
-0.000349304
-6.07228e-05
0.000139435
0.000236029
0.000182746
5.54582e-05
-3.45004e-05
-0.000165602
-0.000206852
-0.000288501
-0.00028339
-0.000338123
-0.000297583
-0.000293676
-0.000215727
-0.000197154
-0.000364
-0.00090483
-0.000845854
-0.000766487
-0.000166776
0.000728813
0.00272221
-0.00144443
-0.00678571
0.00826943
0.00706954
0.0178885
-0.000240668
-1.18746e-05
-0.000712425
-0.000237152
-0.000817927
0.000297919
-0.00020509
-0.000156895
1.21664e-05
-2.42786e-05
-0.000169575
-0.000407467
-0.000413726
-0.000221072
-2.82094e-05
0.000164737
0.000196583
5.55161e-05
-5.07463e-05
-0.000174682
-0.000238739
-0.00026698
-0.000294009
-0.000236029
-0.000173502
4.78527e-06
0.000255835
0.000639384
0.00113729
0.00142121
0.00141808
0.00134124
0.000956295
0.000591716
0.000521508
0.00150567
0.000955668
-0.00148486
0.00112721
0.00187114
0.00803121
-0.000196894
-0.000597836
-6.47319e-05
-0.000835852
6.81636e-05
6.15593e-05
-0.000195522
0.000118199
-9.81978e-05
-0.000324894
-0.000291332
-0.000274433
-0.000278666
1.54744e-05
0.000147215
0.000135407
8.27946e-05
5.89806e-06
-8.87192e-05
-0.00014004
-0.000237989
-0.000253407
-0.000307222
-0.00027935
-0.000309912
-0.000250206
-0.000271494
-0.000230153
-0.000470963
-0.000768227
-0.000980196
-0.000865307
-0.000653851
0.000382443
0.00196476
-0.00133831
-0.00504395
0.00600496
0.00587662
0.0131913
-0.000289414
-9.51119e-05
-0.000735694
0.000101998
-0.00097837
-0.000332372
0.00027058
-0.00013004
-0.000258077
-0.000199953
-0.00041334
-0.000383871
-1.4657e-05
-1.11661e-05
0.000138465
5.64753e-05
-1.54447e-05
-0.000142319
-0.000188507
-0.000256176
-0.000282447
-0.000279508
-0.000265652
-0.000154599
-3.10911e-05
0.000225932
0.000521219
0.000940456
0.00122219
0.00139634
0.00138313
0.00113819
0.000722168
0.000608824
0.00106254
0.00095432
-0.000717422
0.000442848
0.00128006
0.005942
-0.000254955
-0.000363448
0.000127117
-0.000828233
-0.000101055
-4.58348e-05
7.34247e-08
-0.000220804
-0.00045648
-0.000234703
-0.000110812
-0.00030902
7.17147e-05
1.84529e-05
2.58347e-05
-4.39378e-05
-7.49439e-05
-0.00010244
-0.000155647
-0.000182053
-0.000244743
-0.000225878
-0.000242881
-0.000181083
-0.000196805
-0.000125756
-0.000217879
-0.000304666
-0.000674489
-0.000851398
-0.00118967
-0.00084829
-0.000143125
0.001639
-0.00124038
-0.00438238
0.00511444
0.00553865
0.0124756
-1.38742e-06
-4.07997e-05
-0.00020742
0.000184885
0.000111973
0.000100785
-0.000277573
-0.000185029
-0.00015447
-0.000325737
-0.000365775
6.98467e-05
-9.90541e-05
3.72205e-05
-4.85533e-05
-0.00014919
-0.000154858
-0.000222801
-0.000230819
-0.000256807
-0.000259881
-0.000222799
-0.000156491
-9.01802e-06
0.000168882
0.000432004
0.000726419
0.000996596
0.00121287
0.00129112
0.00118696
0.00087279
0.000731473
0.00104136
0.000960044
-0.000388518
0.000225676
0.00121264
0.00554008
-0.000104284
1.75732e-05
-5.70869e-05
-8.51959e-05
-0.000212673
-0.000243313
0.000129021
-0.000367476
-0.000151547
-5.06866e-05
-7.78492e-05
-0.000375275
1.17155e-05
-8.5095e-05
-0.000117504
-0.000126607
-0.000143289
-0.000122197
-0.000120902
-0.000159719
-0.000160025
-0.000180953
-0.000119839
-0.000106195
-3.45997e-05
-3.87662e-05
-3.32366e-05
-0.000159229
-0.00037959
-0.000664783
-0.00104635
-0.00107067
-0.000481704
0.00118228
-0.00130375
-0.00415109
0.00450633
0.00606247
0.0128714
-6.05787e-05
-0.0003927
-1.95118e-05
-0.000241257
-0.000442483
-0.000216776
0.000142601
-0.000224183
5.00367e-05
-0.000107908
-0.000152118
-0.000198531
-0.000173388
-0.000212736
-0.000204405
-0.000207259
-0.000185936
-0.000116218
-9.83987e-06
0.000143268
0.000333269
0.000561216
0.000772813
0.000984948
0.0010915
0.00110367
0.000875443
0.000831916
0.000974033
0.000946819
-0.000309061
0.00019179
0.0014639
0.0063777
-0.000295332
-0.000630203
0.000397013
-0.000159732
-0.000214977
-0.000197678
-0.00013852
-0.000120047
-0.000102163
-9.74401e-05
-0.000106165
-7.50251e-05
-4.74602e-05
1.83091e-05
5.99261e-05
9.10235e-05
0.000109674
3.2557e-06
-7.94536e-05
-0.000440007
-0.000632985
-0.0010767
-0.000533899
0.00042341
-0.00132312
-0.00462646
0.00399587
0.00676536
0.0143884
-0.000849047
0.000151236
-7.08191e-05
-0.000251028
-0.000158362
-0.000176305
-0.000143316
-0.000152539
-0.000144046
-0.00012953
-8.47177e-05
6.35869e-06
0.000111053
0.000265788
0.00040984
0.000596256
0.000742566
0.00088693
0.000923123
0.000820352
0.000803486
0.000897229
0.000789621
-0.000218987
9.45932e-05
0.00179699
0.00807052
-0.000488362
-0.000289142
-0.000138173
-0.000153237
-9.55957e-05
-7.38645e-05
-4.00968e-05
-1.68441e-05
8.61382e-06
4.8696e-05
9.72416e-05
0.000137731
0.000190235
0.000179713
0.000187002
5.69954e-05
-7.04717e-05
-0.000391125
-0.000622524
-0.000596709
0.00010291
-0.00142081
-0.00383618
0.00297818
0.00744076
0.0152338
-7.41444e-05
-0.000162643
-0.000162349
-0.000104557
-9.53861e-05
-6.66741e-05
-6.67663e-05
-7.47712e-05
-3.20595e-05
1.23358e-05
0.000109362
0.000187725
0.000322917
0.000416608
0.000572062
0.000653019
0.000749443
0.000680568
0.000737314
0.000764359
0.000672537
-8.35459e-05
6.2583e-06
0.00181421
0.0085451
-0.000374825
1.92051e-05
-9.36402e-05
-8.34862e-05
-3.22187e-06
3.61368e-05
7.16419e-05
9.06704e-05
0.000117994
0.000147624
0.000189451
0.00021335
0.000257776
0.000229017
0.00024227
7.81578e-05
5.72529e-06
-0.000369966
-0.000209807
-0.000119584
-0.000999712
-0.00304634
0.00222606
0.00776882
0.0137788
-0.000364283
1.63301e-05
-4.7923e-05
2.50276e-06
3.71232e-05
-4.45481e-06
-8.01749e-07
-5.56477e-06
5.27118e-05
7.80004e-05
0.00017157
0.00021069
0.00033603
0.000380712
0.000517824
0.000523979
0.000574582
0.00057812
0.000674705
0.000483685
1.20638e-05
-4.47327e-05
0.00170987
0.00747434
-0.00018923
-1.72539e-05
6.87674e-05
0.000101649
0.00012808
0.000129204
0.000146978
0.000164896
0.000194291
0.000220834
0.000258278
0.00027349
0.000293
0.000240971
0.000196429
-2.69648e-05
7.50342e-05
4.84854e-05
-0.000436467
-0.00190007
0.00201158
0.00693659
0.0120839
-3.78498e-05
6.4001e-05
5.5525e-05
9.82824e-05
5.19673e-05
5.13977e-06
4.45424e-05
4.91085e-05
9.75283e-05
0.000114281
0.000185589
0.000222268
0.000306893
0.000354787
0.00040361
0.000419745
0.000469377
0.000532675
0.000384047
5.81001e-05
-2.24063e-05
0.00146249
0.00632137
-1.04796e-05
0.000103533
0.000107069
0.000112359
0.000130863
0.000128365
0.000170879
0.000165812
0.000215553
0.000217475
0.000289399
0.000275035
0.000344564
0.000258245
0.000265943
0.000213168
0.000407822
-4.67972e-05
-0.000549583
0.00157002
0.00606826
0.010518
7.10783e-05
7.90849e-05
0.000120505
2.4505e-05
2.81379e-05
5.22852e-05
8.17215e-05
8.73289e-05
0.000106445
0.000136743
0.00017806
0.00022767
0.000270803
0.000293502
0.000322776
0.000351675
0.000431849
0.000284354
9.15458e-05
-3.38908e-05
0.00139174
0.00506788
0.000163128
9.53074e-06
7.35193e-05
8.08393e-05
0.000133179
0.000141788
0.000169331
0.000159412
0.000207734
0.000216798
0.000283442
0.000293887
0.000333373
0.000310777
0.000382386
0.000494265
0.000378566
6.05292e-05
0.00145252
0.00485498
0.00886392
-0.000119351
0.000308856
9.15083e-05
6.42801e-05
9.74836e-05
0.000108436
9.28464e-05
9.68933e-05
0.000106311
0.000141503
0.000176277
0.000207134
0.000224184
0.000241727
0.000272552
0.000328906
0.000211163
6.3082e-05
1.81149e-05
0.00130809
0.00380784
-0.000161591
-3.58112e-05
9.49361e-05
0.000135992
0.000157954
0.00014474
0.000142123
0.000144818
0.000181318
0.000207211
0.000261041
0.000273714
0.000332528
0.000354914
0.000548534
0.0004332
0.000415671
0.0011556
0.00365537
0.00693897
0.00029474
-1.54689e-05
2.96587e-05
0.000116824
0.000122506
0.000103938
7.96999e-05
8.95715e-05
0.000102014
0.000142724
0.000150298
0.000182542
0.000172298
0.00022358
0.000233636
0.000158732
4.92332e-05
4.28579e-05
0.00127995
0.00266304
-0.000344069
-2.08873e-06
5.6613e-05
0.000149597
0.000151767
0.000135001
0.000107162
0.000108665
0.000120949
0.000154433
0.000180661
0.000225584
0.000251565
0.000324189
0.000436737
0.000422389
0.000451826
0.000819874
0.00281826
0.0050767
-0.000237862
0.000126447
0.000139898
0.000134127
9.45793e-05
8.00422e-05
5.9249e-05
8.83841e-05
9.31512e-05
0.000129133
0.00012561
0.000145923
0.000167307
0.000178002
0.000129271
2.54493e-05
0.000133876
0.00122697
0.00183664
0.000155053
9.69129e-05
0.000155676
0.000135167
0.000115204
8.0716e-05
7.80947e-05
7.89499e-05
0.000104472
0.000122252
0.000159879
0.000184065
0.000250948
0.000318943
0.000344589
0.000351789
0.000610308
0.00222305
0.00326601
-0.000109701
0.000284717
0.000134145
0.000125483
0.000102501
6.43644e-05
5.98243e-05
5.71487e-05
7.97234e-05
8.96186e-05
0.000103777
0.000111663
0.00013677
0.000138982
0.000106464
3.05405e-05
0.000256708
0.00106094
0.00126063
5.30021e-07
0.000135416
0.00011242
9.16285e-05
7.87967e-05
5.09836e-05
6.44108e-05
6.11722e-05
9.02077e-05
0.00010044
0.000138038
0.000172379
0.00022741
0.00024319
0.000258112
0.000506815
0.00168449
0.00183167
0.000344453
7.93796e-05
9.23979e-05
9.31096e-05
6.54033e-05
5.39232e-05
4.90962e-05
6.07415e-05
6.99589e-05
7.88195e-05
9.14899e-05
0.000107826
0.000114219
8.77636e-05
5.73588e-05
0.000348235
0.00078301
0.000652756
2.76562e-06
0.000134685
8.97894e-05
8.77308e-05
6.25399e-05
5.33427e-05
4.23171e-05
5.16563e-05
5.37555e-05
7.43536e-05
8.877e-05
0.000123142
0.000148871
0.000165094
0.000206472
0.000424119
0.00118451
0.000907792
6.01912e-05
0.000104593
8.39878e-05
6.93749e-05
4.92323e-05
4.70511e-05
4.57338e-05
5.45989e-05
5.75779e-05
7.24259e-05
8.49944e-05
9.23873e-05
7.75338e-05
8.77585e-05
0.000369186
0.000510616
0.000387238
0.000186184
9.29769e-05
8.72315e-05
6.65136e-05
4.9718e-05
4.1328e-05
3.67855e-05
3.92963e-05
4.54395e-05
6.12902e-05
8.00385e-05
9.91774e-05
0.000111519
0.000180609
0.000358368
0.000895854
0.000377505
0.000104966
0.000130277
9.20035e-05
6.96359e-05
5.66042e-05
4.10002e-05
4.06192e-05
3.46025e-05
4.34571e-05
5.26778e-05
6.82449e-05
7.45821e-05
7.42738e-05
0.000116943
0.000379637
0.000296873
0.000115033
9.15519e-05
7.21168e-05
5.04465e-05
4.10714e-05
2.79199e-05
2.60967e-05
2.80016e-05
4.08847e-05
5.43593e-05
6.79141e-05
8.38804e-05
0.000177263
0.000287705
0.000735724
0.00019244
5.39734e-05
7.29382e-05
5.62402e-05
4.43027e-05
2.73145e-05
2.53236e-05
2.78385e-05
4.11322e-05
5.51595e-05
6.25878e-05
7.96764e-05
0.000131042
0.000353563
0.000181985
8.8836e-05
0.000122595
5.76233e-05
6.01826e-05
3.75626e-05
2.9052e-05
1.65539e-05
2.27542e-05
3.15184e-05
4.31663e-05
5.39089e-05
7.27088e-05
0.000167445
0.000219543
0.000506004
0.000224747
2.93268e-05
9.16042e-05
7.02981e-05
4.51348e-05
2.61192e-05
1.77985e-05
2.26072e-05
3.36549e-05
4.71464e-05
5.48403e-05
8.1268e-05
0.000130464
0.000283311
0.000106735
8.95409e-05
0.000174145
9.17734e-05
6.69617e-05
5.01729e-05
2.52532e-05
2.07834e-05
2.13562e-05
3.12646e-05
3.92944e-05
4.74853e-05
6.83795e-05
0.000140058
0.000155201
0.000336226
9.42366e-05
0.000118353
8.5152e-05
4.95478e-05
2.64917e-05
1.71972e-05
1.84607e-05
3.00947e-05
3.84554e-05
4.70674e-05
7.35012e-05
0.000114637
0.000206293
8.5831e-05
0.000196579
9.78335e-05
7.34799e-05
4.25543e-05
2.75558e-05
1.43478e-05
2.01659e-05
2.59436e-05
3.26605e-05
3.9804e-05
6.75677e-05
0.000103471
0.000113431
0.000187682
0.00013254
8.06554e-05
5.95895e-05
4.4393e-05
1.64606e-05
6.39214e-06
1.22315e-05
2.08487e-05
2.78571e-05
4.21686e-05
5.3188e-05
9.60043e-05
9.19076e-05
8.51073e-05
3.33499e-05
4.75349e-05
5.58371e-05
2.25266e-05
4.09119e-06
3.79862e-06
3.7643e-06
1.63695e-05
2.39076e-05
2.58193e-05
6.21692e-05
3.45716e-05
0.000109962
8.48926e-05
5.55642e-05
4.90899e-05
3.06593e-05
2.40654e-05
1.81148e-06
-9.51193e-06
-6.25222e-07
9.00629e-06
1.52933e-05
3.464e-05
1.90852e-05
9.0375e-05
2.85229e-05
8.98545e-05
4.15057e-05
4.21456e-05
1.0347e-05
-5.52371e-07
-8.89379e-06
-1.78284e-06
4.6412e-06
1.4912e-05
1.1598e-05
5.14524e-05
3.48768e-06
0.00010907
1.47621e-05
6.65141e-05
2.07012e-05
1.85373e-05
1.98751e-06
-1.97888e-06
-4.84139e-06
4.16997e-06
1.06061e-05
2.38512e-05
4.08138e-06
7.97273e-05
-1.0719e-06
3.93099e-06
2.92884e-05
1.36374e-05
8.96695e-06
-3.82586e-07
4.7823e-06
1.24325e-05
9.88323e-06
7.72292e-06
3.8263e-05
2.65475e-06
7.87369e-05
7.24826e-05
7.78397e-06
1.68912e-05
9.62465e-06
1.12712e-05
1.26003e-05
6.56526e-06
1.58144e-05
1.90871e-05
6.81391e-06
5.781e-05
1.50193e-05
-1.22779e-05
3.4156e-05
1.89041e-05
1.45367e-05
1.52191e-05
8.00326e-06
2.20139e-05
1.5101e-05
1.9166e-05
3.18278e-05
1.39857e-05
5.48606e-05
6.595e-06
1.07519e-05
1.52741e-05
3.23409e-06
1.58598e-05
7.40061e-06
2.02723e-05
1.19293e-05
1.73215e-05
3.73873e-05
2.06094e-05
3.15091e-05
9.61586e-06
-1.10241e-06
5.03013e-06
-2.09512e-06
9.07208e-06
-1.3265e-06
1.76182e-05
1.40503e-05
2.00195e-05
4.10195e-05
3.51486e-06
3.33984e-06
-1.18737e-06
-3.76839e-06
2.35492e-08
-4.81747e-06
1.09173e-05
-1.47428e-06
1.38913e-05
3.00065e-05
2.12096e-05
2.81621e-05
-7.05888e-07
5.90095e-07
-1.95292e-06
-9.51985e-07
2.57806e-06
-2.09022e-06
3.26016e-06
1.2886e-05
1.37275e-05
3.51242e-05
2.77807e-06
5.3198e-06
-2.34954e-06
8.45753e-07
-1.34652e-06
-4.53105e-07
-2.13903e-06
-4.80827e-07
2.10754e-06
1.91274e-05
7.73633e-07
2.21064e-05
4.97565e-07
-2.92451e-06
1.31558e-06
-5.90183e-06
1.2855e-06
-6.06353e-06
-7.66531e-07
7.68017e-06
-8.9182e-06
1.58304e-05
-2.87116e-06
2.11604e-06
-8.4519e-06
3.19699e-06
-6.97863e-06
2.17393e-06
2.20931e-06
-3.50267e-06
1.12212e-05
7.52566e-06
-4.95401e-07
7.88651e-07
-2.63061e-06
2.05658e-06
7.32414e-07
2.3495e-06
5.1264e-06
-4.48965e-06
1.0761e-05
9.44305e-07
2.31169e-07
2.29785e-06
7.22414e-07
4.7309e-06
6.62148e-06
1.58862e-06
4.96899e-07
1.15939e-05
1.89605e-06
3.083e-06
1.48712e-06
4.50058e-06
5.72927e-06
2.28391e-06
5.97354e-06
-2.19658e-06
6.74234e-06
1.86953e-06
1.39118e-06
3.90841e-06
1.62382e-06
2.56399e-06
6.10723e-06
-1.01642e-06
6.69027e-06
1.03452e-05
1.0541e-06
3.5373e-06
1.11131e-06
2.18372e-06
4.68418e-06
-4.6616e-09
9.68489e-06
-9.87237e-06
2.70321e-06
2.95419e-06
2.11085e-06
2.64996e-06
3.00105e-06
3.16109e-06
4.09616e-06
-1.75386e-06
7.84338e-06
1.35003e-06
1.57161e-06
2.41085e-06
2.54225e-06
2.23222e-07
5.499e-06
-2.44854e-06
3.00273e-06
-1.7373e-06
2.12446e-06
-1.56577e-06
7.55156e-07
4.91291e-06
-1.12113e-08
3.40583e-06
9.43637e-07
-2.24748e-06
-2.71221e-07
3.56111e-06
-3.44671e-06
5.93498e-06
-4.88139e-06
3.00848e-06
9.56009e-08
5.08118e-07
-3.76253e-06
4.15732e-06
-4.20379e-06
3.92025e-06
1.63699e-07
6.53412e-07
-8.89364e-07
4.48525e-06
-2.61439e-06
4.26232e-06
-4.75503e-06
4.91576e-06
1.48422e-06
2.0756e-06
3.29687e-07
5.7232e-08
-9.53836e-07
-3.63862e-06
1.66618e-06
1.08445e-06
8.27865e-07
1.07018e-06
6.30848e-07
-1.47149e-06
2.75041e-06
1.4051e-06
1.81776e-06
1.61017e-06
1.72773e-07
1.32961e-06
3.39966e-06
1.49044e-06
1.52608e-06
1.25378e-06
1.83792e-06
1.76239e-07
-1.10866e-06
2.43631e-06
1.33373e-06
1.9477e-06
3.25517e-07
1.57412e-06
1.03391e-05
-6.86411e-07
2.66676e-06
-1.94371e-06
1.80539e-06
-1.64818e-06
-7.22903e-06
5.99951e-06
-3.49015e-06
2.67694e-06
-3.00874e-06
3.85764e-06
-1.09149e-06
2.82446e-06
-1.33719e-06
1.3811e-06
-2.141e-06
7.62785e-06
2.11304e-06
-4.20258e-07
-2.74068e-07
-4.03499e-06
4.67868e-07
2.30776e-06
4.67069e-06
-5.31949e-06
5.00986e-06
1.26296e-05
6.0746e-06
3.12944e-06
6.51501e-06
9.55403e-06
1.89791e-05
9.85078e-06
1.81012e-05
4.6643e-05
1.9047e-05
1.46177e-05
1.79464e-05
)
;

boundaryField
{
    inlet
    {
        type            extrapolatedCalculated;
        value           nonuniform List<scalar> 4(4.6643e-05 1.9047e-05 1.46177e-05 1.79464e-05);
    }
    outlet
    {
        type            extrapolatedCalculated;
        value           nonuniform List<scalar> 0();
    }
    walls
    {
        type            extrapolatedCalculated;
        value           nonuniform List<scalar> 
42
(
0.000191533
-0.000355063
1.02081e-05
0.000257315
-0.000146063
0.000168015
-0.000837868
-0.000453374
-0.000265072
0.000128495
0.000269077
0.000233703
0.000109219
-5.10563e-05
-0.000129833
-0.000228354
-0.000227359
-0.000316658
-0.000225807
-0.000350806
5.648e-05
-4.56709e-05
0.00118198
0.000691349
8.19076e-05
-0.00147004
0.000421504
0.000612812
0.00304594
0.0113068
-0.00293626
-0.0254267
0.0283033
0.0225041
0.0531503
-3.14128e-05
-0.000327665
-0.000397522
-0.000449995
-0.00184814
0.000978434
-0.00188385
)
;
    }
    frontAndBack
    {
        type            empty;
    }
    procBoundary5to0
    {
        type            processor;
        value           nonuniform List<scalar> 4(-0.000192828 -0.00059028 -0.000223189 -0.000766699);
    }
    procBoundary5to1
    {
        type            processor;
        value           nonuniform List<scalar> 
13
(
-4.41745e-05
0.000493024
0.000493024
-0.000892227
-0.00125575
-0.00125575
-7.09507e-05
7.41303e-05
7.41303e-05
-0.000413247
-0.000155599
-0.000631805
-0.000631805
)
;
    }
    procBoundary5to4
    {
        type            processor;
        value           nonuniform List<scalar> 
95
(
-0.00021467
-0.000646699
9.16182e-05
9.16182e-05
-0.000326329
8.14286e-05
8.14286e-05
-0.00048039
0.000433046
0.000433046
0.00055996
0.00055996
5.83527e-05
5.83527e-05
8.21266e-05
0.000231099
0.000231099
0.000111726
0.000111726
-5.1981e-05
8.76022e-06
8.76022e-06
3.05341e-05
6.43423e-05
6.43423e-05
0.000154036
0.000462731
0.000462731
-0.000184032
0.000264409
0.000175138
0.000175138
-0.000175057
0.000126532
0.000361646
0.000361646
1.91995e-06
0.000249649
0.000318469
0.000318469
7.19755e-05
0.000134051
0.000228332
0.000228332
8.65922e-05
0.000151553
0.00010454
0.000131781
0.00026655
0.00026655
7.73437e-05
6.15697e-05
7.42548e-05
-1.57235e-05
3.12402e-05
3.12402e-05
1.1519e-05
4.97269e-05
-8.82054e-06
5.21381e-05
6.79637e-05
6.79637e-05
6.59142e-06
2.77444e-05
4.69986e-07
2.37455e-05
7.09622e-06
1.53576e-05
1.19416e-05
1.19416e-05
8.99246e-06
3.59343e-06
8.43822e-06
3.15085e-08
7.95625e-06
-1.65141e-06
3.35917e-06
1.82957e-06
1.82957e-06
-1.50687e-06
4.90627e-06
-7.15573e-07
4.05297e-06
-8.45294e-09
7.32738e-07
4.64354e-06
-4.04428e-06
1.08265e-05
1.17514e-05
1.17514e-05
1.4809e-06
1.19768e-05
-2.52822e-06
2.87694e-05
1.87921e-05
)
;
    }
    procBoundary5to6
    {
        type            processor;
        value           nonuniform List<scalar> 
86
(
-0.0573766
-0.0115079
-0.0252305
-0.00201153
-0.0193134
4.39696e-05
-0.0187497
2.78665e-05
-0.0192118
-0.00037745
-0.0216509
-0.00151917
-0.0245654
-0.00194234
-0.0230716
-0.0015234
-0.0201499
-0.00130552
-0.016687
-0.00120493
-0.0143017
-0.00130858
-0.0111333
-0.00108007
-0.00812629
-0.000881316
-0.00512258
-0.000576551
-0.00276143
-0.000319186
-0.00133876
-0.000179227
-0.000533114
0.00114852
0.00114852
0.000205703
0.000460744
6.47961e-05
0.000318398
4.87816e-05
0.000238437
6.45019e-05
0.000139423
6.91714e-05
9.15513e-05
4.63752e-05
0.000162649
0.000162649
3.71063e-05
7.64637e-05
3.47009e-05
5.71224e-05
3.22101e-05
5.56943e-05
2.4981e-05
4.10476e-05
3.84591e-05
3.84591e-05
-1.28241e-05
1.37267e-06
-6.95433e-07
1.49194e-06
-6.48193e-06
9.82251e-06
6.9821e-06
6.9821e-06
3.27784e-06
5.46094e-07
4.51956e-06
-3.66536e-06
2.18726e-06
-1.4942e-06
-1.17909e-06
-1.17909e-06
3.75146e-07
2.02701e-06
1.56839e-06
2.52216e-06
-1.75892e-06
4.61966e-07
-1.10833e-06
-8.15199e-06
2.6008e-06
2.6008e-06
1.98311e-05
3.55919e-05
)
;
    }
}


// ************************************************************************* //
