/*--------------------------------*- C++ -*----------------------------------*\
| =========                 |                                                 |
| \\      /  F ield         | OpenFOAM: The Open Source CFD Toolbox           |
|  \\    /   O peration     | Version:  2506                                  |
|   \\  /    A nd           | Website:  www.openfoam.com                      |
|    \\/     M anipulation  |                                                 |
\*---------------------------------------------------------------------------*/
FoamFile
{
    version     2.0;
    format      ascii;
    arch        "LSB;label=32;scalar=64";
    class       volScalarField;
    location    "50";
    object      magR;
}
// * * * * * * * * * * * * * * * * * * * * * * * * * * * * * * * * * * * * * //

dimensions      [0 2 -2 0 0 0 0];

internalField   nonuniform List<scalar> 
1340
(
0.0128486
0.0152463
0.0183757
0.0226069
0.0277453
0.034377
0.0429811
0.0538289
0.06775
0.0855892
0.108439
0.138438
0.178639
0.234347
0.312473
0.425061
0.594047
0.850665
1.28259
1.92389
3.3288
5.05992
10.6539
19.6105
14.226
8.46248
5.06153
3.23642
2.98559
2.44765
1.82892
1.97404
1.86866
0.53103
3.31028
0.0107445
0.00905026
0.00725907
0.00571837
0.00443802
0.00376463
0.00428224
0.00304658
0.00304699
0.00301876
0.00294531
0.00283199
0.00269272
0.00252289
0.00232828
0.00212826
0.00192475
0.00172765
0.00155094
0.00139834
0.00126759
0.00129487
0.00158963
0.00268486
0.00567343
0.0146949
0.0396451
0.141063
0.474637
1.65165
7.69815
17.3728
27.0833
34.4366
34.062
29.1982
24.0004
19.3241
13.785
8.51665
7.94115
10.2078
0.0030121
0.00295739
0.00286987
0.00272769
0.00254999
0.00237555
0.0021427
0.00210573
0.00204194
0.00195179
0.00185346
0.0017427
0.00162573
0.00151573
0.00141667
0.00133531
0.0012733
0.00122968
0.00120295
0.00118831
0.00119186
0.00122847
0.00118195
0.00107751
0.000729308
0.00405186
0.0020377
0.00576278
0.0017245
0.205826
2.14322
8.61622
22.6687
37.2969
41.1558
37.2089
31.1958
23.1624
16.1857
17.2098
21.1078
0.0021677
0.00217407
0.00216066
0.00209604
0.0019934
0.00186921
0.00170395
0.00170303
0.00169171
0.00167217
0.00164042
0.00159596
0.00154179
0.00147626
0.00140194
0.00132044
0.00123339
0.00114327
0.00105245
0.000960529
0.000867367
0.000771808
0.000663476
0.000559241
0.000434684
0.000298645
2.72597e-05
0.000772811
0.000250925
0.0136219
1.91278e-05
0.269309
3.07912
14.363
32.6264
42.7618
41.0421
32.6326
24.8731
25.3283
28.7085
0.00169234
0.001675
0.00164466
0.00159254
0.00152746
0.00131384
0.00130773
0.00129465
0.00127248
0.00124147
0.001201
0.00115203
0.00109501
0.00103168
0.000964961
0.000897195
0.000831042
0.000768943
0.000712712
0.000663212
0.000623064
0.00059141
0.000559048
0.000514233
0.000467272
0.000323215
0.000143196
1.47445e-05
0
3.81532e-06
0.0203479
0.06218
0.728203
8.0829
25.9918
39.4183
38.7853
33.3863
33.4893
35.7427
0.00131142
0.00130383
0.00128575
0.00124964
0.00120462
0.00105541
0.00105613
0.00105291
0.00104491
0.00103172
0.00101286
0.000988307
0.000957581
0.000921222
0.000880174
0.000834935
0.000786451
0.000735686
0.000683197
0.000629566
0.000575927
0.000519669
0.000456607
0.000391159
0.000326518
0.000273127
0.00022007
0.000112348
9.58414e-06
0
0
0
0.0367831
0.136717
4.82057
20.4323
34.0713
38.0842
40.312
41.6876
0.00104902
0.00103991
0.0010244
0.000997114
0.0008545
0.000855711
0.000854508
0.000849572
0.000840901
0.000827807
0.000809985
0.000787061
0.000759216
0.000727063
0.000691084
0.000652038
0.000610903
0.000568435
0.000525555
0.000482917
0.000442173
0.000404852
0.000368401
0.000328791
0.000286741
0.000247239
0.000223287
9.99523e-05
8.20245e-06
0
0
0
0.026035
0.0161172
3.32472
17.176
33.5094
43.2227
45.6942
0.00084893
0.000841515
0.000829558
0.000808906
0.000702686
0.000705102
0.000706277
0.000704736
0.000700962
0.000694178
0.000684054
0.000670257
0.000652785
0.000631942
0.000607721
0.000580508
0.000550749
0.000518747
0.000484928
0.000449706
0.000413661
0.000375238
0.000334356
0.000293045
0.000254543
0.00021981
0.000204908
0.00018988
0.000106377
7.63014e-06
2.91821e-08
0
0
0.00928974
6.75845e-05
3.1069
19.113
38.3061
45.8873
0.000697132
0.000690491
0.000680851
0.000664832
0.000583496
0.000586227
0.000588412
0.000588292
0.000586736
0.000583063
0.000576735
0.000567538
0.000555382
0.000540314
0.000522312
0.000501552
0.000478303
0.000452812
0.000425458
0.00039658
0.000366564
0.000336087
0.000305639
0.000274928
0.000244503
0.000215957
0.000192581
0.000186299
0.000178807
0.000116189
5.0709e-07
1.51164e-08
0
0
1.1858e-05
0.106957
5.19706
24.5348
39.3948
0.00057854
0.000572811
0.000565132
0.00049564
0.000494063
0.000490696
0.000485132
0.000477283
0.00046715
0.000454591
0.000439703
0.000422619
0.000403442
0.00038235
0.00035951
0.000335281
0.000309818
0.000282761
0.000254944
0.000227824
0.000203683
0.000183543
0.000169749
0.000167392
0.000164331
0.000111332
1.6654e-07
8.67843e-09
0
0
0.012693
0.276879
9.17122
25.4357
0.000419201
0.000415834
0.000410824
0.000403902
0.000394934
0.000383971
0.000371077
0.000356281
0.000339669
0.000321367
0.000301538
0.000280566
0.000258596
0.000236113
0.000213892
0.000193287
0.000176091
0.000162097
0.00015183
0.000148269
0.000150944
9.85394e-05
1.29022e-07
6.57342e-09
0
0
0.0742265
1.23717
9.79923
0.000355179
0.000350552
0.00034446
0.00033656
0.000326995
0.000315818
0.000303021
0.000288647
0.000272796
0.000255829
0.000237642
0.000218618
0.000199657
0.000181917
0.000166825
0.000154679
0.000143828
0.000133974
0.00013022
0.000132736
7.83585e-05
1.0011e-07
1.55203e-10
0
0.0048888
0.0739656
1.28905
0.000305128
0.000300865
0.000295288
0.000288203
0.000279713
0.000269808
0.000258507
0.000245842
0.000232099
0.000217299
0.000201712
0.000185983
0.000170988
0.000157728
0.000146762
0.000137068
0.000127055
0.000117106
0.000112954
0.000114169
6.31168e-05
2.28694e-06
0
0
0.0391477
0.182201
0.000263455
0.000259505
0.000254416
0.000248057
0.000240452
0.000231654
0.000221666
0.000210668
0.000198737
0.000185944
0.000172833
0.000160152
0.000148644
0.000138755
0.000129994
0.000121121
0.000111624
0.000101515
9.66318e-05
0.000102516
3.43487e-05
4.50899e-08
0
0.000193436
0.0127177
0.000231081
0.000228445
0.000224892
0.000220134
0.000214311
0.000207506
0.000199702
0.000190956
0.000181408
0.00017105
0.000160249
0.000149613
0.000139716
0.000130901
0.000122935
0.000114955
0.000106678
9.76914e-05
8.55813e-05
8.99957e-05
8.27912e-05
2.51496e-06
0
0
0.00210017
0.000201416
0.000198898
0.000195494
0.00019111
0.00018588
0.000179799
0.000172887
0.000165288
0.000156946
0.000148105
0.000139251
0.000130825
0.000123098
0.000115937
0.000108798
0.00010124
9.38477e-05
8.36002e-05
7.44992e-05
8.74024e-05
3.82938e-05
9.81139e-08
0
0
0.000176127
0.000173688
0.000170468
0.00016648
0.000161766
0.000156339
0.000150342
0.000143681
0.000136505
0.000129189
0.00012207
0.000115378
0.000109028
0.000102691
9.59016e-05
8.90277e-05
8.19992e-05
7.00819e-05
7.1359e-05
7.62485e-05
1.6015e-07
3.25069e-10
0
0.000156036
0.000154411
0.000152164
0.000149147
0.000145525
0.000141306
0.000136619
0.00013136
0.000125587
0.000119581
0.000113606
0.000107857
0.000102289
9.66806e-05
9.07398e-05
8.4325e-05
7.84595e-05
6.98997e-05
6.18218e-05
7.16542e-05
3.61324e-05
1.76836e-06
0
0.000137359
0.000135774
0.000133604
0.000130876
0.000127626
0.000123979
0.000119878
0.000115286
0.000110412
0.000105452
0.000100567
9.57473e-05
9.08246e-05
8.56547e-05
7.99929e-05
7.43852e-05
6.86192e-05
5.99057e-05
5.92868e-05
6.36981e-05
2.62327e-05
1.97145e-06
0.000122201
0.000121202
0.00011973
0.000117678
0.000115188
0.000112369
0.000109211
0.000105615
0.000101708
9.76387e-05
9.35383e-05
8.94179e-05
8.51555e-05
8.06618e-05
7.58163e-05
7.06618e-05
6.5939e-05
5.98084e-05
5.42589e-05
6.06854e-05
6.37541e-05
3.06663e-05
0.000108214
0.000107208
0.000105752
0.000103896
0.000101746
9.93348e-05
9.65483e-05
9.34488e-05
9.01533e-05
8.67624e-05
8.32935e-05
7.96613e-05
7.57969e-05
7.16765e-05
6.72276e-05
6.29704e-05
5.87791e-05
5.36634e-05
5.50027e-05
6.83474e-05
6.9711e-05
9.65754e-05
9.6005e-05
9.50545e-05
9.36792e-05
9.20546e-05
9.02387e-05
8.81123e-05
8.56832e-05
8.30446e-05
8.02746e-05
7.73962e-05
7.43475e-05
7.10761e-05
6.759e-05
6.38671e-05
6.01643e-05
5.69345e-05
5.35408e-05
5.33978e-05
6.33937e-05
7.35047e-05
8.59588e-05
8.5335e-05
8.43888e-05
8.32065e-05
8.18598e-05
8.02496e-05
7.83646e-05
7.62812e-05
7.4057e-05
7.17103e-05
6.91953e-05
6.64774e-05
6.35718e-05
6.05025e-05
5.74566e-05
5.48613e-05
5.2693e-05
5.33314e-05
6.01266e-05
6.66396e-05
7.6877e-05
7.65573e-05
7.59745e-05
7.51251e-05
7.41297e-05
7.29256e-05
7.14899e-05
6.98763e-05
6.81253e-05
6.62492e-05
6.42142e-05
6.20008e-05
5.96299e-05
5.71444e-05
5.4737e-05
5.27509e-05
5.13026e-05
5.28536e-05
5.8312e-05
6.12997e-05
6.8758e-05
6.86654e-05
6.83583e-05
6.77877e-05
6.71039e-05
6.62543e-05
6.51965e-05
6.39721e-05
6.26088e-05
6.11232e-05
5.94915e-05
5.7709e-05
5.58069e-05
5.38355e-05
5.19933e-05
5.05723e-05
4.96373e-05
5.16707e-05
5.65414e-05
5.78526e-05
6.1582e-05
6.14486e-05
6.11122e-05
6.06731e-05
6.00967e-05
5.93344e-05
5.84294e-05
5.73996e-05
5.62544e-05
5.49784e-05
5.35773e-05
5.20917e-05
5.05762e-05
4.92275e-05
4.82775e-05
4.77893e-05
5.00064e-05
5.43757e-05
5.49029e-05
5.51471e-05
5.51729e-05
5.50345e-05
5.47661e-05
5.43826e-05
5.38453e-05
5.31934e-05
5.24364e-05
5.15849e-05
5.06261e-05
4.95704e-05
4.84598e-05
4.73492e-05
4.64281e-05
4.58669e-05
4.57617e-05
4.80415e-05
5.19624e-05
5.20381e-05
4.93659e-05
4.95077e-05
4.95175e-05
4.93955e-05
4.91879e-05
4.8848e-05
4.84016e-05
4.78564e-05
4.72326e-05
4.6527e-05
4.57518e-05
4.4953e-05
4.41807e-05
4.36118e-05
4.33726e-05
4.35666e-05
4.58824e-05
4.94759e-05
4.92522e-05
4.44199e-05
4.45157e-05
4.45187e-05
4.4443e-05
4.42477e-05
4.39509e-05
4.35756e-05
4.31419e-05
4.26501e-05
4.21117e-05
4.15721e-05
4.10784e-05
4.07926e-05
4.08176e-05
4.12445e-05
4.35702e-05
4.69407e-05
4.65329e-05
3.97788e-05
3.99561e-05
4.00598e-05
4.0068e-05
3.99573e-05
3.97567e-05
3.95073e-05
3.9234e-05
3.89319e-05
3.86036e-05
3.82877e-05
3.80277e-05
3.79697e-05
3.82142e-05
3.88185e-05
4.1103e-05
4.43281e-05
4.38612e-05
3.55982e-05
3.58249e-05
3.59931e-05
3.60729e-05
3.60423e-05
3.59226e-05
3.57696e-05
3.56148e-05
3.54551e-05
3.52864e-05
3.51421e-05
3.50618e-05
3.51737e-05
3.55887e-05
3.63079e-05
3.85133e-05
4.16058e-05
4.12087e-05
3.21132e-05
3.23141e-05
3.24527e-05
3.24849e-05
3.24261e-05
3.23414e-05
3.22721e-05
3.22169e-05
3.21641e-05
3.21453e-05
3.21968e-05
3.24277e-05
3.29602e-05
3.37504e-05
3.58095e-05
3.88524e-05
3.84776e-05
2.87251e-05
2.89532e-05
2.91372e-05
2.92072e-05
2.91789e-05
2.91303e-05
2.91173e-05
2.91397e-05
2.91786e-05
2.92577e-05
2.94118e-05
2.97281e-05
3.03343e-05
3.11769e-05
3.30113e-05
3.61358e-05
3.55341e-05
2.56646e-05
2.58963e-05
2.60986e-05
2.62028e-05
2.62067e-05
2.61853e-05
2.62078e-05
2.62788e-05
2.63757e-05
2.6517e-05
2.67377e-05
2.71039e-05
2.77412e-05
2.86122e-05
3.02046e-05
3.33276e-05
2.31587e-05
2.33628e-05
2.34907e-05
2.35162e-05
2.35132e-05
2.35523e-05
2.36453e-05
2.37702e-05
2.39426e-05
2.41969e-05
2.45817e-05
2.52144e-05
2.60816e-05
2.74591e-05
3.03871e-05
2.06664e-05
2.0875e-05
2.1019e-05
2.10527e-05
2.10522e-05
2.10904e-05
2.11867e-05
2.13221e-05
2.15081e-05
2.1777e-05
2.21623e-05
2.27656e-05
2.3609e-05
2.47924e-05
2.74317e-05
1.84131e-05
1.86025e-05
1.87485e-05
1.879e-05
1.87903e-05
1.88205e-05
1.89078e-05
1.90386e-05
1.92213e-05
1.94853e-05
1.98543e-05
2.04088e-05
2.12113e-05
2.22216e-05
2.45578e-05
1.63831e-05
1.65534e-05
1.66926e-05
1.67324e-05
1.67213e-05
1.67335e-05
1.68054e-05
1.69242e-05
1.70935e-05
1.73371e-05
1.76753e-05
1.81659e-05
1.89069e-05
1.97711e-05
2.17842e-05
1.45597e-05
1.47116e-05
1.48322e-05
1.48599e-05
1.4833e-05
1.4825e-05
1.48806e-05
1.49847e-05
1.51338e-05
1.53458e-05
1.56411e-05
1.6059e-05
1.67131e-05
1.74577e-05
1.91461e-05
1.30639e-05
1.31581e-05
1.31708e-05
1.31276e-05
1.31021e-05
1.31383e-05
1.32196e-05
1.33389e-05
1.35094e-05
1.3752e-05
1.40938e-05
1.46443e-05
1.52914e-05
1.66297e-05
1.15737e-05
1.165e-05
1.1647e-05
1.15859e-05
1.15422e-05
1.15548e-05
1.16057e-05
1.16881e-05
1.18126e-05
1.19984e-05
1.22672e-05
1.27072e-05
1.32691e-05
1.42657e-05
1.02341e-05
1.02854e-05
1.0265e-05
1.01905e-05
1.01307e-05
1.01182e-05
1.0136e-05
1.01792e-05
1.02569e-05
1.03846e-05
1.05828e-05
1.09137e-05
1.13891e-05
1.2106e-05
9.03682e-06
9.0635e-06
9.02852e-06
8.94374e-06
8.86464e-06
8.82275e-06
8.80696e-06
8.81284e-06
8.84626e-06
8.91754e-06
9.04554e-06
9.27603e-06
9.65424e-06
1.01785e-05
7.96932e-06
7.97308e-06
7.92188e-06
7.82794e-06
7.73174e-06
7.66275e-06
7.61576e-06
7.58812e-06
7.58139e-06
7.59959e-06
7.66089e-06
7.80016e-06
8.07237e-06
8.46603e-06
7.00883e-06
6.93745e-06
6.83282e-06
6.72321e-06
6.63333e-06
6.55916e-06
6.49996e-06
6.45474e-06
6.42388e-06
6.42236e-06
6.48033e-06
6.64787e-06
6.93977e-06
6.15582e-06
6.07092e-06
5.9511e-06
5.82794e-06
5.72282e-06
5.62687e-06
5.53731e-06
5.45438e-06
5.37813e-06
5.32088e-06
5.30875e-06
5.38225e-06
5.40308e-06
5.30459e-06
5.17248e-06
5.0402e-06
4.92519e-06
4.81105e-06
4.69363e-06
4.57589e-06
4.45872e-06
4.35233e-06
4.27778e-06
4.27189e-06
4.73951e-06
4.63158e-06
4.49419e-06
4.35967e-06
4.23622e-06
4.10489e-06
3.96374e-06
3.81725e-06
3.6653e-06
3.51506e-06
3.38549e-06
3.30901e-06
4.16072e-06
4.04606e-06
3.90587e-06
3.77329e-06
3.64608e-06
3.50291e-06
3.34529e-06
3.17885e-06
3.00011e-06
2.81274e-06
2.63166e-06
2.4892e-06
3.54059e-06
3.39758e-06
3.26733e-06
3.13979e-06
2.99333e-06
2.82935e-06
2.65208e-06
2.45629e-06
2.24126e-06
2.01653e-06
1.8101e-06
3.10682e-06
2.96553e-06
2.83426e-06
2.70783e-06
2.56494e-06
2.40234e-06
2.2224e-06
2.0203e-06
1.79134e-06
1.53633e-06
1.27354e-06
2.73503e-06
2.59818e-06
2.4705e-06
2.34998e-06
2.21511e-06
2.05863e-06
1.88279e-06
1.68355e-06
1.45392e-06
1.18867e-06
8.89442e-07
2.41593e-06
2.28837e-06
2.17016e-06
2.05955e-06
1.93561e-06
1.79051e-06
1.62598e-06
1.4393e-06
1.22445e-06
9.73343e-07
6.78427e-07
2.14477e-06
2.02977e-06
1.92333e-06
1.82411e-06
1.71378e-06
1.58482e-06
1.43913e-06
1.27604e-06
1.09145e-06
8.81888e-07
6.47835e-07
1.91391e-06
1.8123e-06
1.71993e-06
1.63503e-06
1.54069e-06
1.43052e-06
1.30838e-06
1.17539e-06
1.0316e-06
8.78543e-07
1.71757e-06
1.62988e-06
1.55156e-06
1.48394e-06
1.4086e-06
1.31914e-06
1.22129e-06
1.11969e-06
1.0169e-06
9.15895e-07
1.47548e-06
1.41061e-06
1.36034e-06
1.30482e-06
1.23736e-06
1.16363e-06
1.09087e-06
1.02247e-06
9.61552e-07
1.34576e-06
1.29389e-06
1.25581e-06
1.21707e-06
1.17006e-06
1.11881e-06
1.07041e-06
1.02912e-06
9.97381e-07
1.23523e-06
1.1951e-06
1.16777e-06
1.1426e-06
1.11235e-06
1.07921e-06
1.04946e-06
1.02787e-06
1.01582e-06
1.13917e-06
1.10971e-06
1.0924e-06
1.07856e-06
1.06152e-06
1.04241e-06
1.02671e-06
1.01862e-06
1.01954e-06
1.05492e-06
1.03449e-06
1.02505e-06
1.01987e-06
1.01321e-06
1.00497e-06
1.00009e-06
1.00165e-06
1.01131e-06
9.79984e-07
9.66688e-07
9.63138e-07
9.64301e-07
9.65117e-07
9.65437e-07
9.68946e-07
9.77543e-07
9.12608e-07
9.04924e-07
9.05451e-07
9.10836e-07
9.16977e-07
9.23212e-07
9.3281e-07
9.46984e-07
8.50266e-07
8.46862e-07
8.50304e-07
8.58988e-07
8.68663e-07
8.78531e-07
8.91641e-07
9.09174e-07
7.90829e-07
7.95618e-07
8.06712e-07
8.19195e-07
8.31773e-07
8.47337e-07
8.66964e-07
7.36678e-07
7.41868e-07
7.52755e-07
7.66588e-07
7.8149e-07
7.99356e-07
8.20908e-07
6.81834e-07
6.8637e-07
6.95867e-07
7.08802e-07
7.23726e-07
7.42033e-07
7.6392e-07
6.45766e-07
6.50588e-07
6.59393e-07
6.71433e-07
6.85178e-07
7.01693e-07
7.21316e-07
6.17506e-07
6.246e-07
6.35064e-07
6.48663e-07
6.63806e-07
6.80527e-07
5.81553e-07
5.89986e-07
6.01068e-07
6.15325e-07
6.31516e-07
6.49416e-07
5.47494e-07
5.55459e-07
5.64799e-07
5.76583e-07
5.90654e-07
6.06159e-07
5.16578e-07
5.25033e-07
5.33083e-07
5.41991e-07
5.52791e-07
5.64291e-07
4.8486e-07
4.93716e-07
5.01017e-07
5.08234e-07
5.16994e-07
5.2514e-07
4.6019e-07
4.71402e-07
4.79087e-07
4.83976e-07
4.89721e-07
4.94924e-07
4.34071e-07
4.42937e-07
4.49739e-07
4.55612e-07
4.56676e-07
4.34438e-07
4.45385e-07
4.49486e-07
4.54764e-07
4.60881e-07
3.85704e-07
4.00054e-07
4.14632e-07
4.23154e-07
4.21194e-07
4.53928e-07
4.77295e-07
4.87104e-07
5.04357e-07
4.30062e-07
4.49815e-07
4.74649e-07
4.97978e-07
6.06526e-07
6.56188e-07
6.68494e-07
6.62282e-07
)
;

boundaryField
{
    inlet
    {
        type            calculated;
        value           nonuniform List<scalar> 4(2.16589e-06 2.37963e-06 2.48676e-06 2.59089e-06);
    }
    outlet
    {
        type            calculated;
        value           nonuniform List<scalar> 0();
    }
    walls
    {
        type            calculated;
        value           nonuniform List<scalar> 
42
(
0.624316
0.780165
0.961925
1.14852
1.34032
1.53308
1.71203
1.87253
2.01234
2.12623
2.2149
2.28042
2.32159
2.34073
2.32344
2.26595
2.16102
2.00369
1.78351
1.49245
1.12353
0.700644
0.309762
0.0856164
0.0153921
0.00529724
0.000154477
2.44323e-06
3.87255e-05
1.01902e-05
4.76675e-05
0.00141155
0.00477405
0.00663652
0.0552604
0.484439
0.352908
0.231194
0.127113
0.0602676
0.0377973
0.063113
)
;
    }
    frontAndBack
    {
        type            empty;
    }
    procBoundary5to0
    {
        type            processor;
        value           nonuniform List<scalar> 4(0.000489224 0.000484657 0.000479659 0.000473496);
    }
    procBoundary5to1
    {
        type            processor;
        value           nonuniform List<scalar> 
13
(
0.00561595
0.00217831
0.00217831
0.00174175
0.00145179
0.00145179
0.00115175
0.000965362
0.000965362
0.000785947
0.000647845
0.00055261
0.00055261
)
;
    }
    procBoundary5to4
    {
        type            processor;
        value           nonuniform List<scalar> 
95
(
0.000492031
0.000494733
0.000495784
0.000495784
0.000421266
0.000421033
0.000421033
0.000360168
0.00035839
0.00035839
0.000308113
0.000308113
0.000266274
0.000266274
0.000232838
0.000203099
0.000203099
0.000177766
0.000177766
0.000157049
0.000138366
0.000138366
0.000122765
0.000108776
0.000108776
9.683e-05
8.62238e-05
8.62238e-05
7.69531e-05
6.86841e-05
6.15036e-05
6.15036e-05
5.49867e-05
4.91428e-05
4.41902e-05
4.41902e-05
3.95266e-05
3.53313e-05
3.18461e-05
3.18461e-05
2.84662e-05
2.54195e-05
2.29175e-05
2.29175e-05
2.04474e-05
1.82227e-05
1.62172e-05
1.44149e-05
1.29264e-05
1.29264e-05
1.14631e-05
1.01522e-05
8.97888e-06
7.93406e-06
7.02321e-06
7.02321e-06
6.18634e-06
5.44729e-06
4.79537e-06
4.22416e-06
3.65827e-06
3.65827e-06
3.22201e-06
2.84532e-06
2.51976e-06
2.23911e-06
1.99785e-06
1.79078e-06
1.55111e-06
1.55111e-06
1.40778e-06
1.284e-06
1.17691e-06
1.08297e-06
9.99826e-07
9.25379e-07
8.57692e-07
7.92052e-07
7.92052e-07
7.35495e-07
6.79593e-07
6.42097e-07
6.10706e-07
5.72803e-07
5.38188e-07
5.05755e-07
4.72974e-07
4.45238e-07
4.22062e-07
4.22062e-07
4.18914e-07
3.67513e-07
4.29619e-07
4.02753e-07
5.84414e-07
)
;
    }
    procBoundary5to6
    {
        type            processor;
        value           nonuniform List<scalar> 
86
(
4.4759
12.3657
21.3626
28.1166
33.6721
37.9991
40.9219
41.7812
39.1343
31.0892
17.8971
5.31824
0.456556
0.12273
0.0258673
0
0
0
1.13537e-07
2.5463e-06
5.15333e-05
8.57648e-05
8.6317e-05
8.62668e-05
8.69828e-05
8.45938e-05
8.10166e-05
7.7226e-05
7.33122e-05
6.92027e-05
6.47282e-05
5.96906e-05
5.4253e-05
3.25546e-05
3.25546e-05
2.9804e-05
2.72241e-05
2.48169e-05
2.23672e-05
1.99848e-05
1.77311e-05
1.5585e-05
1.34379e-05
1.13051e-05
9.30337e-06
7.52184e-06
5.57562e-06
5.57562e-06
4.37356e-06
3.32719e-06
2.43217e-06
1.67611e-06
1.05813e-06
5.86384e-07
3.31776e-07
4.12281e-07
7.25306e-07
7.25306e-07
8.27057e-07
9.15579e-07
9.79521e-07
1.01666e-06
1.03148e-06
1.02999e-06
9.92754e-07
9.92754e-07
9.65897e-07
9.3077e-07
8.90325e-07
8.46021e-07
7.89691e-07
7.4518e-07
6.9899e-07
6.9899e-07
6.68477e-07
6.23521e-07
5.77289e-07
5.36026e-07
4.9969e-07
4.62999e-07
4.55818e-07
4.33527e-07
5.39262e-07
5.39262e-07
4.9742e-07
8.27389e-07
)
;
    }
}


// ************************************************************************* //
