/*--------------------------------*- C++ -*----------------------------------*\
| =========                 |                                                 |
| \\      /  F ield         | OpenFOAM: The Open Source CFD Toolbox           |
|  \\    /   O peration     | Version:  2506                                  |
|   \\  /    A nd           | Website:  www.openfoam.com                      |
|    \\/     M anipulation  |                                                 |
\*---------------------------------------------------------------------------*/
FoamFile
{
    version     2.0;
    format      ascii;
    arch        "LSB;label=32;scalar=64";
    class       surfaceScalarField;
    location    "50";
    object      phi;
}
// * * * * * * * * * * * * * * * * * * * * * * * * * * * * * * * * * * * * * //

dimensions      [0 3 -1 0 0 0 0];

oriented        oriented;

internalField   nonuniform List<scalar> 
2558
(
-0.149042
0.169688
-0.020646
0.192366
-0.0226779
0.213372
-0.021006
0.232892
-0.0195201
0.251711
-0.0188187
0.267943
-0.0162322
0.281749
-0.0138073
0.293649
-0.0119007
0.302809
-0.0091605
0.309983
-0.00717407
0.315313
-0.00532953
0.318638
-0.00332412
0.320328
-0.00168934
0.320016
0.000312048
0.316846
0.00316878
0.310515
0.0063308
0.300187
0.0103266
0.284977
0.0152094
0.263213
0.0217625
0.232788
0.0304238
0.190804
0.041984
0.137791
0.0530124
0.0822228
0.0555763
0.0380911
0.0441367
0.0128275
0.0252642
0.00214566
0.010669
-0.00132215
0.00347186
-0.000509124
-0.000806539
0.00153316
-0.00200685
0.00166509
1.27337e-05
-0.00087774
0.00250151
-0.0032489
0.00197766
-0.00483537
0.00206822
-0.0192092
0.0147951
0.0198159
-0.126156
-0.0228862
-0.102025
-0.024131
-0.0737337
-0.0282919
-0.0436822
-0.030052
-0.0128566
-0.0308279
0.0180433
-0.0308986
-0.136311
0.157211
-0.0415462
0.178796
-0.0442638
0.201666
-0.0438755
0.223274
-0.0411278
0.24455
-0.040095
0.26466
-0.0363424
0.283097
-0.0322449
0.30007
-0.0288754
0.315227
-0.0243173
0.32858
-0.0205273
0.340162
-0.016911
0.350009
-0.0131706
0.358235
-0.00991531
0.365339
-0.0067924
0.371876
-0.00336827
0.377641
0.000564947
0.382428
0.0055381
0.385921
0.0117156
0.386863
0.0208201
0.383651
0.0336354
0.372087
0.0535509
0.345994
0.0791096
0.29947
0.102112
0.236345
0.107277
0.170624
0.0910016
0.116842
0.0644666
0.0826591
0.0376664
0.0638848
0.0179751
0.0514617
0.0104275
0.0414975
0.010021
0.0348941
0.00911928
0.0306221
0.00616578
0.0179092
0.0148634
-0.005101
0.0379156
0.0360658
-0.115151
-0.0440463
-0.0924444
-0.0468376
-0.0658717
-0.0548647
-0.0378598
-0.058065
-0.00815944
-0.0605285
-0.0617141
-0.132629
0.154174
-0.0630923
0.176124
-0.0662138
0.199964
-0.0677155
0.221995
-0.0631584
0.243272
-0.0613728
0.26384
-0.056911
0.282462
-0.0508683
0.299472
-0.0458855
0.314454
-0.0392993
0.327542
-0.0336151
0.338733
-0.0281016
0.348123
-0.02256
0.355518
-0.0173097
0.361169
-0.0124437
0.364758
-0.00695819
0.366909
-0.00158633
0.367736
0.00470983
0.368124
0.0113256
0.368726
0.0202169
0.37093
0.0314298
0.376072
0.0484073
0.382432
0.0727477
0.381648
0.102895
0.362903
0.126018
0.322514
0.131383
0.265356
0.121616
0.203517
0.0994969
0.15159
0.0699009
0.115489
0.0465378
0.0909649
0.0345839
0.0739456
0.0261158
0.0605304
0.0194636
0.0415065
0.0340445
0.0172145
0.0623553
0.0513815
-0.111078
-0.0655975
-0.087858
-0.0700575
-0.060288
-0.0824358
-0.031874
-0.0864794
-0.00233072
-0.0900732
-0.128605
0.150849
-0.085337
0.173369
-0.0887339
0.19825
-0.0925963
0.22106
-0.0859688
0.243372
-0.0836844
0.264959
-0.0784992
0.284904
-0.0708142
0.303144
-0.0641259
0.319791
-0.0559469
0.33461
-0.048433
0.347701
-0.041192
0.359034
-0.0338928
0.368603
-0.0268792
0.376395
-0.0202361
0.382663
-0.0132275
0.387172
-0.00609667
0.389865
0.00201511
0.390397
0.010793
0.388999
0.021614
0.386004
0.034425
0.383157
0.0512556
0.383916
0.0719938
0.38977
0.0970496
0.395712
0.120088
0.392124
0.134985
0.370675
0.143079
0.327583
0.142599
0.268534
0.128958
0.208721
0.106358
0.160701
0.0826266
0.125809
0.061024
0.0981838
0.0470616
0.0704383
0.0618127
0.0438208
0.089014
0.0664421
-0.106592
-0.0876109
-0.083176
-0.0934743
-0.0548537
-0.110758
-0.0259709
-0.115364
-0.119946
-0.126604
0.149722
-0.108456
0.173143
-0.112155
0.199362
-0.118815
0.222915
-0.109522
0.246119
-0.106889
0.268641
-0.101022
0.289312
-0.0914862
0.308318
-0.0831322
0.325845
-0.0734743
0.341319
-0.0639066
0.355062
-0.0549341
0.366986
-0.0458168
0.377285
-0.0371784
0.385646
-0.0285973
0.392179
-0.0197611
0.396852
-0.0107709
0.399762
-0.000895887
0.40101
0.00954351
0.400475
0.0221473
0.398534
0.0363637
0.395419
0.0543691
0.39241
0.0750006
0.391949
0.097508
0.395636
0.116397
0.401793
0.12882
0.4048
0.140061
0.395802
0.151587
0.36599
0.158761
0.314085
0.158268
0.2523
0.144444
0.195814
0.117487
0.148739
0.0940383
0.108572
0.102108
0.0771522
0.120571
0.0831974
-0.103609
-0.110606
-0.079498
-0.117585
-0.0499813
-0.140276
-0.020223
-0.145122
-0.125219
0.149331
-0.132567
0.173921
-0.136744
0.201426
-0.14632
0.226015
-0.134113
0.2501
-0.130974
0.273738
-0.124662
0.295174
-0.112923
0.315157
-0.103115
0.333421
-0.0917389
0.34981
-0.0802949
0.364545
-0.0696692
0.37745
-0.0587216
0.38868
-0.0484088
0.398196
-0.0381147
0.405853
-0.0274193
0.411897
-0.0168165
0.416016
-0.00501633
0.418266
0.00729192
0.418775
0.0216372
0.417537
0.0376024
0.414902
0.0570056
0.411468
0.0784386
0.407811
0.101173
0.40499
0.11923
0.404573
0.129252
0.40743
0.13722
0.411079
0.147953
0.408473
0.161377
0.388465
0.178285
0.343512
0.189415
0.280579
0.180437
0.214948
0.159654
0.158774
0.158292
0.11912
0.160257
0.103607
-0.10126
-0.134567
-0.0762987
-0.142547
-0.0454387
-0.171136
-0.176046
-0.124615
0.149992
-0.157945
0.175639
-0.162391
0.204635
-0.175316
0.230399
-0.159876
0.255615
-0.156191
0.280239
-0.149287
0.302669
-0.135353
0.323372
-0.123819
0.342481
-0.110848
0.359611
-0.0974249
0.374993
-0.0850508
0.388719
-0.0724474
0.400664
-0.0603542
0.410868
-0.0483192
0.419349
-0.0359011
0.425946
-0.0234151
0.430767
-0.00983875
0.43374
0.00431825
0.434962
0.0204127
0.434564
0.0379995
0.432911
0.0586566
0.430458
0.0808905
0.427506
0.104123
0.423581
0.123152
0.418958
0.133867
0.415187
0.140981
0.414038
0.149085
0.415688
0.159715
0.415873
0.178098
0.40176
0.203558
0.359386
0.222786
0.291943
0.227003
0.222419
0.227937
0.17167
0.21115
0.130864
-0.0994815
-0.1597
-0.0734383
-0.16859
-0.0411046
-0.203471
-0.208305
-0.124487
0.15117
-0.184628
0.178173
-0.189395
0.208777
-0.205921
0.235696
-0.186796
0.262108
-0.182604
0.287874
-0.175054
0.311212
-0.158692
0.332934
-0.145541
0.352731
-0.130645
0.370609
-0.115304
0.386821
-0.101263
0.401224
-0.0868508
0.413867
-0.0729983
0.424844
-0.0592976
0.43408
-0.0451379
0.441523
-0.03086
0.447193
-0.0155104
0.451043
0.000466971
0.453056
0.018398
0.453377
0.0376784
0.452361
0.0596749
0.450406
0.0828491
0.447928
0.106609
0.444664
0.126428
0.439883
0.138662
0.433622
0.14726
0.427024
0.1557
0.422171
0.164581
0.421522
0.17876
0.422619
0.202482
0.40948
0.235945
0.363758
0.272716
0.295538
0.296163
0.235726
0.270995
0.166921
-0.0981236
-0.186064
-0.0709077
-0.195806
-0.0368782
-0.2375
-0.124899
0.152947
0.18136
0.213627
0.241877
0.26966
-0.210388
0.296692
-0.202086
0.321136
-0.183137
0.343671
-0.168077
0.364418
-0.151393
0.383
-0.133886
0.399795
-0.118058
0.414858
-0.101915
0.428196
-0.0863366
0.439827
-0.0709291
0.449735
-0.0550473
0.457932
-0.0390583
0.464305
-0.0218842
0.468821
-0.00405057
0.471536
0.015682
0.47255
0.0366637
0.472168
0.0600562
0.470746
0.0842713
0.468648
0.108706
0.465879
0.129195
0.461863
0.142673
0.456059
0.153055
0.448341
0.163403
0.439474
0.173429
0.431949
0.186277
0.429746
0.204708
0.43047
0.235192
0.414103
0.288983
0.3668
0.343585
0.308408
0.329564
0.21129
-0.0970963
-0.06854
0.277979
0.306393
0.331929
-0.208673
0.355494
-0.191642
0.377119
-0.173019
0.396458
-0.153225
0.413972
-0.135572
0.429754
-0.117697
0.443668
-0.100252
0.455888
-0.0831495
0.466514
-0.0656749
0.475313
-0.0478591
0.482367
-0.0289398
0.487574
-0.00925872
0.491042
0.0122126
0.492804
0.0349019
0.492978
0.0598836
0.492059
0.0851937
0.490274
0.110499
0.48773
0.131748
0.484082
0.146335
0.478893
0.15826
0.471884
0.170429
0.462885
0.182444
0.45239
0.196788
0.443126
0.213993
0.440752
0.237588
0.440867
0.28886
0.422543
0.361914
0.380707
0.371445
0.256576
0.343779
0.368468
0.391035
-0.195584
0.411207
-0.173397
0.429408
-0.153774
0.445732
-0.134023
0.460311
-0.114833
0.47323
-0.0960694
0.484351
-0.0767961
0.493811
-0.05732
0.501494
-0.0366242
0.507407
-0.0151722
0.511484
0.00813514
0.513862
0.0325238
0.514677
0.0590693
0.5142
0.0856717
0.512762
0.111938
0.510448
0.134062
0.507
0.149781
0.502144
0.163109
0.495669
0.176893
0.487425
0.190668
0.4774
0.206803
0.465501
0.225901
0.455906
0.247151
0.456021
0.288619
0.457186
0.360869
0.439892
0.388959
0.29218
0.406064
0.427056
-0.194388
0.446047
-0.172766
0.463117
-0.151095
0.478226
-0.129943
0.491672
-0.109517
0.503445
-0.08857
0.513492
-0.0673689
0.52175
-0.0448829
0.528228
-0.0216516
0.532924
0.00343825
0.535928
0.02952
0.53733
0.057668
0.537372
0.0856339
0.536297
0.113018
0.534226
0.136143
0.530955
0.153062
0.526256
0.167824
0.519987
0.18318
0.512176
0.198495
0.502987
0.216009
0.49184
0.23707
0.479015
0.259996
0.472614
0.295014
0.477438
0.356048
0.47799
0.388468
0.311158
0.444118
0.463871
-0.19252
0.481598
-0.168823
0.497413
-0.145759
0.511467
-0.123571
0.52377
-0.100874
0.534331
-0.0779302
0.543172
-0.0537239
0.550261
-0.0287404
0.555543
-0.00184322
0.559052
0.0260115
0.560988
0.0557337
0.561466
0.0851584
0.560743
0.113744
0.558978
0.137911
0.556002
0.156039
0.551485
0.172339
0.54538
0.189277
0.537687
0.206175
0.52878
0.224902
0.518702
0.247151
0.506333
0.272326
0.495645
0.305585
0.495437
0.356355
0.500065
0.384111
0.319682
0.482982
-0.213163
0.50142
-0.187262
0.51787
-0.16221
0.53252
-0.138222
0.545301
-0.113656
0.556452
-0.089082
0.565833
-0.0631059
0.573442
-0.0363496
0.579293
-0.00769524
0.583383
0.0219218
0.585803
0.0533157
0.586746
0.0842173
0.586395
0.1141
0.584904
0.139409
0.582156
0.158798
0.577849
0.176659
0.571948
0.195193
0.564408
0.21373
0.555516
0.233812
0.545782
0.256905
0.534628
0.283499
0.523283
0.316927
0.518256
0.361383
0.518977
0.383459
0.327103
0.503376
0.522603
-0.206489
0.539641
-0.17925
0.554894
-0.153476
0.568333
-0.127095
0.579979
-0.100728
0.589883
-0.0730091
0.597987
-0.0444521
0.604261
-0.0139685
0.608837
0.0173481
0.611761
0.0503942
0.613084
0.0828974
0.613095
0.114094
0.611899
0.140609
0.609426
0.161275
0.605409
0.180678
0.599691
0.200911
0.592346
0.221066
0.583552
0.242601
0.573778
0.266676
0.563238
0.294008
0.552621
0.327441
0.545706
0.36838
0.542135
0.387347
0.337915
0.545072
0.562899
-0.197076
0.578723
-0.169301
0.592684
-0.141055
0.604844
-0.112887
0.615229
-0.0833942
0.623815
-0.0530383
0.63065
-0.020803
0.635661
0.0123375
0.638975
0.047082
0.640736
0.0811387
0.641061
0.113772
0.640155
0.141522
0.637923
0.163514
0.634154
0.184458
0.628697
0.20638
0.621571
0.228207
0.612924
0.251264
0.603125
0.276495
0.59267
0.304479
0.582571
0.337541
0.575258
0.375691
0.56943
0.39325
0.350973
0.587524
-0.215628
0.604012
-0.185789
0.618513
-0.155556
0.63121
-0.125582
0.642073
-0.0942559
0.65115
-0.0621131
0.65838
-0.0280308
0.663856
0.0068635
0.667562
0.0433798
0.669651
0.0790533
0.670324
0.113105
0.669688
0.142164
0.667748
0.16546
0.66421
0.188001
0.658984
0.211612
0.652078
0.235112
0.643613
0.259731
0.63392
0.286189
0.623414
0.31497
0.613307
0.347575
0.60568
0.383402
0.598719
0.400528
0.365576
0.613595
0.630755
-0.202948
0.645926
-0.170726
0.65911
-0.138765
0.670481
-0.105626
0.679991
-0.0716233
0.687691
-0.0357305
0.693531
0.00102455
0.697599
0.0393138
0.700067
0.0765874
0.700987
0.112189
0.700615
0.14254
0.698899
0.167183
0.695606
0.191303
0.690631
0.216598
0.68395
0.241805
0.675713
0.267983
0.666143
0.295777
0.655646
0.325481
0.645307
0.357917
0.636997
0.39171
0.628974
0.408621
0.380839
0.659185
-0.220825
0.674934
-0.186473
0.688671
-0.152501
0.700503
-0.117455
0.710434
-0.0815525
0.718499
-0.043793
0.724726
-0.00519947
0.729175
0.034868
0.731884
0.0738834
0.733084
0.110993
0.732979
0.142652
0.731497
0.168673
0.728476
0.194333
0.723734
0.221347
0.717262
0.248285
0.709186
0.276065
0.699775
0.305203
0.689331
0.335923
0.678752
0.368473
0.669577
0.400959
0.660239
0.418268
0.397279
0.689257
0.705615
-0.20283
0.719942
-0.166826
0.73223
-0.129744
0.742581
-0.091903
0.751069
-0.0522799
0.757617
-0.0117456
0.762343
0.0301442
0.765344
0.0708847
0.766784
0.109556
0.7669
0.142541
0.765655
0.169924
0.762838
0.197158
0.758319
0.225875
0.752102
0.254513
0.744218
0.283961
0.734907
0.314531
0.724494
0.346348
0.713718
0.379253
0.703677
0.410998
0.692928
0.429093
0.414532
0.738065
-0.219862
0.752942
-0.181702
0.765746
-0.142546
0.776559
-0.102715
0.785365
-0.0610827
0.792259
-0.0186361
0.797239
0.0251682
0.800487
0.0676398
0.802189
0.10786
0.802405
0.14233
0.801386
0.170951
0.7988
0.199752
0.794433
0.230253
0.788492
0.260465
0.780783
0.291685
0.771608
0.323726
0.761204
0.356768
0.750202
0.390258
0.739328
0.421948
0.727216
0.441483
0.433165
0.772389
0.787849
-0.197156
0.801167
-0.155862
0.812388
-0.113935
0.821552
-0.0702445
0.828731
-0.0258128
0.834
0.0199018
0.837406
0.0642363
0.83928
0.105989
0.83972
0.141894
0.838805
0.171871
0.836449
0.202114
0.832367
0.234344
0.826596
0.266244
0.819082
0.29921
0.809899
0.332922
0.799522
0.367155
0.788313
0.40147
0.776654
0.433608
0.763196
0.455021
0.452612
0.824732
-0.213276
0.838551
-0.169682
0.850194
-0.125576
0.859698
-0.0797457
0.86721
-0.0333201
0.872718
0.0143971
0.876338
0.0606207
0.878245
0.104087
0.878834
0.14131
0.878155
0.172557
0.875939
0.204338
0.872028
0.238265
0.866302
0.271983
0.858983
0.306545
0.849947
0.341983
0.839603
0.377521
0.827909
0.413186
0.815476
0.446109
0.8009
0.469832
0.473363
0.863596
-0.229955
0.878052
-0.184137
0.890123
-0.137646
0.900066
-0.0896855
0.907692
-0.0409432
0.913496
0.00859662
0.917275
0.0568443
0.919339
0.102025
0.920071
0.140582
0.919418
0.173215
0.917281
0.206481
0.913508
0.242045
0.907953
0.277546
0.900653
0.313855
0.89189
0.350758
0.881263
0.388156
0.869491
0.424961
0.856251
0.459352
0.840467
0.485704
0.494877
0.904769
0.919693
-0.199062
0.932137
-0.150088
0.942467
-0.100011
0.95048
-0.048951
0.956329
0.00275184
0.960301
0.052876
0.962435
0.0998948
0.963203
0.139818
0.962701
0.173723
0.96075
0.208439
0.957081
0.245723
0.951667
0.282971
0.944512
0.321025
0.935549
0.359744
0.925057
0.398672
0.912756
0.437288
0.898742
0.473421
0.882119
0.50253
0.517869
0.963597
-0.214442
0.976746
-0.163233
0.98723
-0.110491
0.99561
-0.0573264
1.00157
-0.0032077
1.0056
0.0488499
1.00794
0.0975568
1.00861
0.139154
1.00821
0.174121
1.00616
0.210499
1.00271
0.249175
0.997407
0.288284
0.990367
0.328075
0.981331
0.368789
0.970515
0.409496
0.958116
0.44969
0.943505
0.488042
0.925534
0.520595
0.5415
1.01016
-0.230599
1.02359
-0.176662
1.0345
-0.121389
1.04307
-0.0658978
1.04929
-0.00942057
1.05333
0.0448131
1.05558
0.0953079
1.05656
0.138185
1.05591
0.174771
1.0541
0.212311
1.05039
0.2529
1.0453
0.293381
1.03819
0.335196
1.02935
0.377651
1.01848
0.420387
1.0054
0.462797
0.99023
0.503256
0.971389
0.539617
0.566652
1.05904
1.07299
-0.190599
1.08435
-0.132743
1.09305
-0.0745919
1.09961
-0.0159799
1.1037
0.0407226
1.10602
0.0929935
1.10676
0.137449
1.10628
0.175253
1.10428
0.214317
1.10084
0.25634
1.09548
0.298746
1.08842
0.342269
1.07944
0.386633
1.06836
0.431481
1.05516
0.475991
1.03905
0.51939
1.0194
0.559356
0.592574
1.1252
-0.20517
1.13705
-0.144586
1.14606
-0.0835909
1.15243
-0.0223476
1.15678
0.0363731
1.15887
0.0909106
1.15952
0.136797
1.15904
0.17574
1.15693
0.216434
1.15343
0.259838
1.14821
0.303976
1.14101
0.349485
1.13187
0.395784
1.12069
0.442677
1.10711
0.489598
1.09065
0.535883
1.06985
0.580312
0.619404
1.18036
-0.220166
1.19238
-0.156602
1.20172
-0.0929235
1.20839
-0.0290183
1.21246
0.0323066
1.21481
0.0885644
1.21548
0.136133
1.21462
0.176601
1.21265
0.218413
1.20891
0.263583
1.20348
0.309408
1.19638
0.356589
1.1872
0.404976
1.17576
0.454122
1.16164
0.503721
1.14448
0.553077
1.12316
0.601703
0.647153
1.23843
1.25095
-0.169117
1.26047
-0.102431
1.26724
-0.0357855
1.27158
0.0279667
1.27352
0.0866246
1.27398
0.135674
1.27335
0.17724
1.271
0.220761
1.26711
0.267477
1.26172
0.314808
1.25426
0.364064
1.24485
0.414397
1.23313
0.465848
1.21892
0.517951
1.20123
0.570804
1.17908
0.623976
0.675697
1.31251
-0.182022
1.3225
-0.112409
1.32927
-0.042546
1.33355
0.0236882
1.33566
0.0845141
1.33592
0.135413
1.33495
0.178221
1.33254
0.223173
1.3286
0.271421
1.32277
0.320636
1.31533
0.371511
1.30567
0.424071
1.29381
0.477715
1.27895
0.532819
1.26094
0.588852
1.23819
0.646779
0.704823
1.37779
-0.195566
1.38774
-0.12235
1.39483
-0.049636
1.39915
0.0193754
1.40091
0.0827604
1.40108
0.135243
1.39981
0.179498
1.39725
0.225736
1.39308
0.275595
1.38721
0.326509
1.37933
0.379398
1.36952
0.433887
1.35722
0.490025
1.34229
0.547762
1.32374
0.607448
1.30052
0.6701
1.44623
1.45682
-0.132931
1.4639
-0.0567075
1.46811
0.0151703
1.46997
0.0809043
1.46985
0.135372
1.46845
0.180894
1.46559
0.228603
1.461
0.280187
1.4549
0.332614
1.44682
0.38748
1.4367
0.444013
1.42424
0.502495
1.40885
0.563167
1.38995
0.62639
0.6937
1.52947
-0.143587
1.53689
-0.0641238
1.54095
0.0111153
1.54252
0.0793423
1.54236
0.135534
1.54059
0.182663
1.53738
0.231817
1.53262
0.284944
1.52612
0.339125
1.51796
0.395641
1.50751
0.454467
1.49461
0.515408
1.47892
0.57887
1.45974
0.64561
0.717674
1.6063
-0.15465
1.61364
-0.0714558
1.61789
0.00686502
1.61936
0.0778827
1.6187
0.136195
1.61679
0.184577
1.61332
0.235283
1.60823
0.290039
1.60143
0.345927
1.59275
0.404328
1.58196
0.465264
1.5689
0.528481
1.55296
0.594827
1.53342
0.665192
0.741496
1.68708
-0.165999
1.69484
-0.0792041
1.69888
0.00283313
1.70014
0.0766216
1.69938
0.136964
1.69704
0.186921
1.69331
0.239012
1.68785
0.2955
1.68073
0.353046
1.67165
0.413419
1.66064
0.476273
1.64729
0.541847
1.63099
0.611142
1.61144
0.684775
0.765562
1.77263
-0.177668
1.78033
-0.0868978
1.7844
-0.00122781
1.78546
0.0755617
1.78459
0.137845
1.78191
0.189601
1.77774
0.24318
1.7719
0.301346
1.76445
0.360499
1.75508
0.422792
1.74373
0.487634
1.72982
0.555767
1.71349
0.627492
1.69373
0.704572
0.789408
1.86278
1.8706
-0.0946948
1.87477
-0.00539548
1.87576
0.0745801
1.8743
0.139316
1.87138
0.192523
1.86692
0.247635
1.86067
0.3076
1.85273
0.368443
1.84294
0.432585
1.83124
0.499343
1.81735
0.569667
1.80062
0.644247
1.78075
0.724465
0.813025
1.96599
-0.102694
1.96999
-0.00938237
1.97069
0.0738865
1.96907
0.140949
1.96592
0.195672
1.96098
0.252579
1.95444
0.31414
1.946
0.376884
1.93592
0.44267
1.92374
0.511526
1.90949
0.58393
1.89281
0.660943
1.87306
0.744249
0.836372
2.06662
-0.111094
2.07055
-0.0133018
2.07126
0.0731942
2.0693
0.142907
2.06561
0.199368
2.06032
0.257869
2.05336
0.321109
2.04455
0.385693
2.03404
0.45318
2.02168
0.523899
2.00722
0.598395
1.99024
0.677939
1.97069
0.763822
0.859387
2.17284
-0.119626
2.1769
-0.0173521
2.17716
0.0729432
2.17497
0.145106
2.17102
0.203324
2.16526
0.263626
2.15786
0.328514
2.14882
0.394734
2.1379
0.464109
2.12508
0.536721
2.11032
0.613164
2.09348
0.694794
2.07393
0.783394
0.881935
2.28483
-0.128223
2.28892
-0.0214354
2.28912
0.0727573
2.28656
0.147666
2.28234
0.207546
2.27634
0.269626
2.26836
0.336488
2.25883
0.404271
2.2475
0.475443
2.23453
0.549694
2.2195
0.628209
2.20258
0.711719
2.18321
0.802783
0.903823
2.40323
2.4073
-0.0255002
2.40725
0.0728152
2.40458
0.150342
2.39991
0.212213
2.39344
0.276099
2.38516
0.344766
2.37513
0.4143
2.36354
0.487036
2.35004
0.563206
2.33503
0.643222
2.31794
0.728823
2.29908
0.82165
0.925253
2.53239
-0.0296411
2.53227
0.072943
2.52919
0.153427
2.52409
0.217309
2.51723
0.282957
2.50851
0.353487
2.49812
0.424687
2.48615
0.499013
2.47253
0.57683
2.45717
0.658587
2.44035
0.745644
2.42138
0.840644
2.66425
-0.0338173
2.6641
0.0730923
2.66063
0.156898
2.65536
0.222578
2.64813
0.290191
2.63897
0.362649
2.62823
0.435422
2.61574
0.511503
2.60175
0.590832
2.58646
0.673878
2.5694
0.762718
0.85905
2.80379
-0.0381794
2.80324
0.0736406
2.79974
0.160406
2.79403
0.228283
2.78628
0.297941
2.77682
0.372114
2.7656
0.446642
2.75288
0.524229
2.73865
0.605061
2.72291
0.689625
2.70615
0.779484
0.877295
2.95077
-0.0423861
2.95043
0.0739737
2.94649
0.164351
2.94047
0.234303
2.93249
0.305931
2.92259
0.382013
2.9109
0.458335
2.89768
0.537447
2.88324
0.61951
2.86758
0.705284
2.85046
0.796623
0.895099
3.10636
3.10559
0.0747532
3.1016
0.168345
3.09521
0.240692
3.08687
0.314281
3.07653
0.392352
3.0645
0.470367
3.05107
0.550888
3.03614
0.63444
3.02018
0.721254
3.00335
0.81346
0.913031
3.26972
0.0754577
3.26524
0.172822
3.25869
0.247249
3.24993
0.323038
3.23915
0.403135
3.22678
0.482746
3.21271
0.564958
3.1977
0.649452
3.18156
0.737405
3.16462
0.830413
0.930576
3.44296
0.0760364
3.43843
0.177354
3.43139
0.254291
3.42222
0.332208
3.41098
0.414372
3.39811
0.495614
3.38381
0.579266
3.36829
0.664974
3.3518
0.753897
3.33484
0.847385
0.948058
3.62572
0.0768657
3.62094
0.182138
3.61353
0.261696
3.6041
0.341637
3.59253
0.425941
3.57917
0.50898
3.56446
0.593972
3.54855
0.680889
3.53195
0.770504
3.51464
0.864696
0.965674
3.81875
0.0776078
3.81371
0.187175
3.80619
0.269217
3.79634
0.35149
3.78416
0.438118
3.77041
0.522732
3.75517
0.609214
3.73883
0.697225
3.72182
0.787521
3.70426
0.882259
0.983244
4.02246
0.0783815
4.01727
0.192364
4.00933
0.277155
3.99903
0.361792
3.98661
0.450532
3.97219
0.537155
3.95651
0.624891
3.93973
0.714009
3.92226
0.804988
3.90453
0.899998
4.23746
0.0791397
4.23206
0.197762
4.22384
0.285377
4.21306
0.372569
4.20012
0.463474
4.18539
0.551881
4.16898
0.641302
4.15184
0.731149
4.13374
0.823089
0.918103
4.46439
4.45879
0.203365
4.45022
0.293943
4.43906
0.383726
4.42541
0.477121
4.41008
0.567209
4.3933
0.65809
4.37535
0.749094
4.35696
0.841483
0.936786
4.69796
0.209266
4.68916
0.302735
4.67745
0.395445
4.66336
0.491212
4.64725
0.583318
4.62978
0.675562
4.61124
0.767626
4.59223
0.860498
0.95611
4.95031
0.215334
4.94094
0.312101
4.92892
0.407465
4.91416
0.50598
4.89748
0.599991
4.87927
0.693779
4.85996
0.786941
4.84013
0.880328
0.976025
5.21654
0.221626
5.20682
0.321816
5.19415
0.420136
5.17884
0.521298
5.16141
0.617419
5.14239
0.7128
5.12223
0.807104
5.10151
0.901051
0.996747
5.49734
0.227996
5.48713
0.332022
5.47392
0.433356
5.45785
0.537369
5.43962
0.635646
5.41975
0.732675
5.39881
0.828048
5.37725
0.922605
1.01836
5.7934
0.234833
5.78277
0.342657
5.76893
0.447197
5.75204
0.554256
5.73309
0.654604
5.71216
0.753604
5.69024
0.849965
5.66766
0.945195
6.10554
0.241959
6.0945
0.353699
6.08001
0.461697
6.0624
0.571867
6.04238
0.674622
6.0206
0.775383
5.99738
0.87319
0.968755
6.43488
0.24934
6.4233
0.365277
6.4079
0.477096
6.38949
0.590278
6.36836
0.695761
6.34552
0.798219
6.32132
0.897398
0.993756
6.78191
6.76966
0.377524
6.75375
0.493008
6.73431
0.609712
6.71224
0.717832
6.68802
0.822441
6.6625
0.922926
1.02001
7.13516
0.389859
7.11807
0.510098
7.09744
0.630347
7.07475
0.74052
7.04894
0.848251
7.02255
0.949319
1.04798
7.52017
0.404329
7.50249
0.527769
7.48092
0.651918
7.4557
0.76574
7.42939
0.874563
7.40074
0.977966
1.07629
7.92651
0.417638
7.90745
0.546826
7.88462
0.67475
7.85951
0.79086
7.83076
0.903303
7.80108
1.00766
1.1082
5.74465
0.451133
5.71685
0.574619
5.7007
0.690902
5.68051
0.811053
5.66016
0.92365
5.67987
0.987957
6.31488
0.487949
6.28392
0.605582
6.26471
0.710113
6.2455
0.830258
6.22365
0.945502
0.968418
6.94183
0.52836
6.90749
0.639924
6.88759
0.730019
6.86523
0.852615
6.83906
0.971673
0.944041
7.63069
0.572598
7.59272
0.677899
7.57192
0.750816
7.5449
0.879642
7.5181
0.998473
0.91897
8.38783
0.622173
8.34603
0.719705
8.32152
0.775331
8.29484
0.906324
8.26462
1.02869
0.892093
9.21957
0.676109
9.17363
0.765648
9.14645
0.802517
9.11593
0.936837
9.08333
1.06129
0.861075
10.1338
10.0849
0.814565
10.0548
0.832586
10.0216
0.970041
9.98387
1.09901
0.828665
11.0835
0.87093
11.0514
0.864706
11.0137
1.00771
10.973
1.13973
0.792767
12.1855
0.930627
12.1488
0.901338
12.1082
1.04838
12.0634
1.1845
0.751811
13.3877
0.99896
13.3478
0.941193
13.3029
1.09331
13.2527
1.2347
14.7249
1.07171
14.6821
0.983946
14.632
1.14348
1.28568
16.1636
1.15324
16.1136
1.03406
16.0577
1.19942
1.34892
17.8137
17.7645
17.7101
)
;

boundaryField
{
    inlet
    {
        type            calculated;
        value           nonuniform List<scalar> 4(1.2379 1.08334 1.25392 1.40583);
    }
    outlet
    {
        type            calculated;
        value           nonuniform List<scalar> 0();
    }
    walls
    {
        type            calculated;
        value           uniform 0;
    }
    frontAndBack
    {
        type            empty;
    }
    procBoundary5to0
    {
        type            processor;
        value           nonuniform List<scalar> 4(-0.212676 -0.213867 -0.224364 -0.273319);
    }
    procBoundary5to1
    {
        type            processor;
        value           nonuniform List<scalar> 
13
(
0.0485427
-0.0305022
0.0226538
0.0280818
-0.0921261
0.00390213
0.0104003
-0.150572
-0.0145168
-0.00884491
-0.00308809
-0.242095
-0.0327213
)
;
    }
    procBoundary5to4
    {
        type            processor;
        value           nonuniform List<scalar> 
95
(
-0.217809
-0.238188
-0.215047
-0.248928
-0.23944
-0.230501
-0.317136
-0.235317
-0.216335
-0.382503
-0.219151
-0.422213
-0.216296
-0.462341
-0.481897
-0.234646
-0.525022
-0.226542
-0.568975
-0.594323
-0.2349
-0.641309
-0.670638
-0.239442
-0.72103
-0.754578
-0.237675
-0.808616
-0.84691
-0.887303
-0.24743
-0.948223
-0.994
-1.04226
-0.247382
-1.11063
-1.16535
-1.22271
-0.235892
-1.29961
-1.36424
-1.43247
-0.209319
-1.5188
-1.59522
-1.67572
-1.76094
-1.8506
-0.189835
-1.95798
-2.0582
-2.16429
-2.27623
-2.39415
-0.137288
-2.52824
-2.66006
-2.79942
-2.94654
-3.10162
-0.0471308
-3.27042
-3.44353
-3.62655
-3.81948
-4.02323
-4.23821
-4.46503
0.0797825
-4.70385
-4.95637
-5.22282
-5.5037
-5.80023
-6.11267
-6.44225
-6.78963
0.257069
-7.1475
-7.53463
-7.93982
-5.77814
-6.35169
-6.98224
-7.67493
-8.43741
-9.27349
-10.1936
0.735898
-11.1399
-12.2451
-13.456
-14.7976
-16.2451
-17.8981
)
;
    }
    procBoundary5to6
    {
        type            processor;
        value           nonuniform List<scalar> 
86
(
-0.0379306
-0.0209371
0.00230983
0.0289551
0.0607352
0.0988714
0.14477
0.199837
0.26445
0.335636
0.404802
0.459317
0.49215
0.511917
0.531937
0.556725
0.58472
0.614045
0.644388
0.675975
0.709138
0.744002
0.780635
0.819151
0.859526
0.902055
0.946525
0.993598
1.0432
1.09548
1.15064
1.20911
1.27081
0.734576
1.36639
1.43586
1.50962
1.58745
1.6699
1.75719
1.84973
1.94771
2.0514
2.16134
2.27767
2.40061
0.946028
2.551
2.68792
2.83266
2.98543
3.14708
3.31737
3.49704
3.68671
3.88682
1.00096
4.11563
4.33828
4.57291
4.82021
5.08079
5.35565
5.64495
1.04106
5.97382
6.29632
6.63625
6.99458
7.37243
7.76916
5.6837
1.10437
6.24319
6.86344
7.54317
8.2915
9.11435
10.0163
11.0089
12.1043
13.2947
0.709873
14.581
15.9945
17.6532
)
;
    }
}


// ************************************************************************* //
