/*--------------------------------*- C++ -*----------------------------------*\
| =========                 |                                                 |
| \\      /  F ield         | OpenFOAM: The Open Source CFD Toolbox           |
|  \\    /   O peration     | Version:  2506                                  |
|   \\  /    A nd           | Website:  www.openfoam.com                      |
|    \\/     M anipulation  |                                                 |
\*---------------------------------------------------------------------------*/
FoamFile
{
    version     2.0;
    format      ascii;
    arch        "LSB;label=32;scalar=64";
    class       volScalarField;
    location    "50";
    object      turbulenceProperties:nut;
}
// * * * * * * * * * * * * * * * * * * * * * * * * * * * * * * * * * * * * * //

dimensions      [0 2 -1 0 0 0 0];

internalField   nonuniform List<scalar> 
1340
(
1.61976e-05
1.86889e-05
2.20283e-05
2.63938e-05
3.21771e-05
3.98614e-05
5.01593e-05
6.35444e-05
8.08874e-05
0.000102931
0.000130709
0.000166385
0.000213151
0.000277358
0.000367361
0.000498078
0.000697861
0.00100993
0.00155615
0.00242694
0.00449407
0.0076868
0.0198379
0.0495145
0.0524191
0.0458279
0.0432582
0.0376996
0.0424996
0.0439645
0.042837
0.0391983
0.0337831
0.0330963
0.0392175
1.40873e-05
1.22755e-05
1.05582e-05
8.99186e-06
7.62164e-06
6.72561e-06
8.09312e-06
5.49923e-06
5.39871e-06
5.30087e-06
5.20686e-06
5.09746e-06
4.98599e-06
4.88142e-06
4.77318e-06
4.67779e-06
4.59523e-06
4.52532e-06
4.48589e-06
4.5098e-06
4.52524e-06
5.68813e-06
9.93056e-06
2.73048e-05
7.77256e-05
0.000188295
0.000376536
0.000924964
0.00214648
0.00546717
0.0214255
0.0476661
0.085479
0.134142
0.176913
0.203984
0.215234
0.213841
0.197364
0.169217
0.165992
0.188659
5.58139e-06
5.68642e-06
5.77834e-06
5.88792e-06
5.98757e-06
6.08083e-06
6.22076e-06
6.2366e-06
6.25113e-06
6.2671e-06
6.28673e-06
6.30816e-06
6.33189e-06
6.35898e-06
6.38993e-06
6.42518e-06
6.4664e-06
6.51465e-06
6.57125e-06
6.64289e-06
6.70869e-06
6.914e-06
6.1771e-06
4.98108e-06
2.29747e-06
5.22167e-05
2.13004e-05
0.000186102
8.49625e-05
0.00221505
0.0122777
0.0368288
0.0904409
0.168665
0.238644
0.287141
0.314278
0.317293
0.314336
0.344404
0.387966
6.20395e-06
6.18645e-06
6.17391e-06
6.15971e-06
6.15418e-06
6.14661e-06
6.1126e-06
6.11116e-06
6.11046e-06
6.10916e-06
6.10738e-06
6.10644e-06
6.10692e-06
6.10862e-06
6.11276e-06
6.11947e-06
6.12938e-06
6.14337e-06
6.16238e-06
6.18785e-06
6.21963e-06
6.26986e-06
6.29313e-06
6.34411e-06
5.36504e-06
3.00101e-06
2.02202e-08
8.29335e-06
6.23194e-07
0.000453646
9.48553e-08
0.00402263
0.0233027
0.0811974
0.179859
0.278421
0.347725
0.381873
0.411805
0.476651
0.538864
6.11002e-06
6.10805e-06
6.10961e-06
6.10954e-06
6.11619e-06
6.12517e-06
6.12581e-06
6.12592e-06
6.12588e-06
6.12642e-06
6.12669e-06
6.12709e-06
6.12809e-06
6.12991e-06
6.13294e-06
6.13742e-06
6.14361e-06
6.15184e-06
6.16256e-06
6.17637e-06
6.19523e-06
6.21763e-06
6.23843e-06
6.23788e-06
6.53014e-06
4.28426e-06
1.01559e-06
6.94602e-09
0
1.75668e-10
0.000846976
0.0054308
0.0112676
0.0690973
0.185248
0.306311
0.388922
0.462371
0.565409
0.649601
6.12288e-06
6.11807e-06
6.11638e-06
6.11287e-06
6.11629e-06
6.11913e-06
6.11922e-06
6.11883e-06
6.11818e-06
6.11758e-06
6.11695e-06
6.11646e-06
6.11639e-06
6.11713e-06
6.11877e-06
6.12142e-06
6.12523e-06
6.13022e-06
6.13665e-06
6.14489e-06
6.15546e-06
6.17025e-06
6.18409e-06
6.21624e-06
6.24676e-06
6.60766e-06
6.53902e-06
2.00284e-06
8.12914e-09
0
0
0
0.00263136
0.00533365
0.0642139
0.192623
0.328589
0.459318
0.608011
0.719924
6.11803e-06
6.11358e-06
6.11141e-06
6.10785e-06
6.11665e-06
6.11707e-06
6.11641e-06
6.11609e-06
6.11571e-06
6.11478e-06
6.11381e-06
6.11324e-06
6.11327e-06
6.11399e-06
6.11532e-06
6.11713e-06
6.11937e-06
6.12198e-06
6.12502e-06
6.12858e-06
6.13309e-06
6.13756e-06
6.14385e-06
6.13456e-06
6.19024e-06
6.46791e-06
7.57358e-06
2.02661e-06
1.14127e-08
0
0
0
0.00123339
0.00207384
0.0659093
0.207751
0.394279
0.597773
0.745876
6.11571e-06
6.11132e-06
6.10858e-06
6.10492e-06
6.11368e-06
6.11415e-06
6.11349e-06
6.11296e-06
6.11233e-06
6.11126e-06
6.1104e-06
6.11012e-06
6.11072e-06
6.11204e-06
6.11397e-06
6.1165e-06
6.11952e-06
6.12305e-06
6.12716e-06
6.13193e-06
6.13765e-06
6.14435e-06
6.15182e-06
6.1524e-06
6.17284e-06
6.09446e-06
6.72173e-06
7.28286e-06
3.03356e-06
1.69792e-08
1.65762e-13
0
0
0.000452592
2.90323e-06
0.0765909
0.27278
0.527328
0.720762
6.1125e-06
6.10832e-06
6.10527e-06
6.10173e-06
6.11055e-06
6.11131e-06
6.11068e-06
6.11001e-06
6.10942e-06
6.10846e-06
6.10771e-06
6.1075e-06
6.10801e-06
6.10906e-06
6.11055e-06
6.11246e-06
6.11469e-06
6.11723e-06
6.12009e-06
6.12324e-06
6.12671e-06
6.13034e-06
6.13567e-06
6.14019e-06
6.1534e-06
6.15126e-06
6.08416e-06
6.7316e-06
7.55039e-06
4.3379e-06
1.06617e-10
8.79331e-14
0
0
7.43751e-09
0.0211505
0.130445
0.398163
0.637026
6.10927e-06
6.10534e-06
6.10213e-06
6.1065e-06
6.10553e-06
6.10516e-06
6.10514e-06
6.10564e-06
6.10661e-06
6.10797e-06
6.10972e-06
6.11183e-06
6.11429e-06
6.11715e-06
6.12045e-06
6.12429e-06
6.12877e-06
6.13391e-06
6.13982e-06
6.14355e-06
6.16627e-06
6.12455e-06
6.10031e-06
6.76322e-06
7.81957e-06
4.84662e-06
1.50726e-11
4.59948e-14
0
0
0.000972073
0.0296424
0.237253
0.493582
6.10272e-06
6.10263e-06
6.10319e-06
6.10406e-06
6.10522e-06
6.10674e-06
6.10857e-06
6.11072e-06
6.11322e-06
6.11609e-06
6.11942e-06
6.12322e-06
6.12773e-06
6.13351e-06
6.13883e-06
6.1489e-06
6.16625e-06
6.11058e-06
6.12878e-06
6.7214e-06
8.32968e-06
4.82428e-06
1.18692e-11
3.69222e-14
0
0
0.00969543
0.097994
0.30929
6.10071e-06
6.10152e-06
6.10252e-06
6.10385e-06
6.10552e-06
6.10753e-06
6.10992e-06
6.11267e-06
6.11587e-06
6.11956e-06
6.12391e-06
6.12907e-06
6.13516e-06
6.14098e-06
6.15563e-06
6.16148e-06
6.11747e-06
6.12388e-06
6.75402e-06
8.53112e-06
4.10169e-06
9.61209e-12
3.0664e-17
0
0.000558751
0.0169203
0.13525
6.0988e-06
6.09974e-06
6.10092e-06
6.10242e-06
6.10431e-06
6.10657e-06
6.10916e-06
6.11214e-06
6.11559e-06
6.11963e-06
6.12447e-06
6.13029e-06
6.13671e-06
6.14487e-06
6.15917e-06
6.16296e-06
6.1271e-06
6.10876e-06
6.81367e-06
8.66479e-06
3.62638e-06
7.44743e-09
0
0
0.0048614
0.0345364
6.0972e-06
6.09822e-06
6.09953e-06
6.10122e-06
6.10325e-06
6.10557e-06
6.10826e-06
6.11143e-06
6.11516e-06
6.11967e-06
6.12503e-06
6.13146e-06
6.13858e-06
6.14846e-06
6.16309e-06
6.1654e-06
6.13971e-06
6.0926e-06
6.83318e-06
9.44935e-06
1.60518e-06
5.61035e-12
0
1.73766e-05
0.00164506
6.0948e-06
6.09567e-06
6.09682e-06
6.09821e-06
6.09987e-06
6.10185e-06
6.1042e-06
6.10701e-06
6.11034e-06
6.11441e-06
6.11932e-06
6.12522e-06
6.13225e-06
6.14021e-06
6.15299e-06
6.16116e-06
6.1806e-06
6.16912e-06
5.84469e-06
7.95952e-06
8.63988e-06
1.54355e-08
0
0
0.000362269
6.09349e-06
6.09442e-06
6.09554e-06
6.0969e-06
6.0986e-06
6.1007e-06
6.10322e-06
6.10624e-06
6.10991e-06
6.11436e-06
6.11964e-06
6.12616e-06
6.13343e-06
6.14364e-06
6.1547e-06
6.16013e-06
6.23678e-06
6.00852e-06
5.94905e-06
1.00154e-05
2.99048e-06
3.3915e-11
0
0
6.09261e-06
6.09347e-06
6.09459e-06
6.09604e-06
6.09785e-06
6.10002e-06
6.10265e-06
6.10589e-06
6.10988e-06
6.11463e-06
6.12048e-06
6.12742e-06
6.13546e-06
6.14882e-06
6.14846e-06
6.1882e-06
6.26686e-06
5.64297e-06
7.2503e-06
1.07205e-05
6.73525e-11
2.01631e-16
0
6.09132e-06
6.09195e-06
6.09288e-06
6.094e-06
6.0954e-06
6.09716e-06
6.09937e-06
6.10211e-06
6.10556e-06
6.10974e-06
6.11487e-06
6.12137e-06
6.12841e-06
6.13983e-06
6.14853e-06
6.14557e-06
6.27466e-06
6.01502e-06
5.82561e-06
9.67633e-06
2.96235e-06
5.28106e-09
0
6.09102e-06
6.09164e-06
6.09248e-06
6.09363e-06
6.09507e-06
6.09691e-06
6.09921e-06
6.10209e-06
6.10562e-06
6.10994e-06
6.11558e-06
6.12219e-06
6.13061e-06
6.14434e-06
6.13903e-06
6.19169e-06
6.24836e-06
5.78099e-06
6.91566e-06
8.53901e-06
1.12119e-06
3.91258e-09
6.0904e-06
6.0908e-06
6.09152e-06
6.09241e-06
6.0935e-06
6.09494e-06
6.09681e-06
6.09918e-06
6.10209e-06
6.10566e-06
6.11032e-06
6.11632e-06
6.12312e-06
6.13513e-06
6.14155e-06
6.14514e-06
6.24613e-06
6.07952e-06
5.95854e-06
7.7576e-06
6.46908e-06
9.98672e-07
6.09036e-06
6.09077e-06
6.09142e-06
6.09231e-06
6.09349e-06
6.09502e-06
6.09699e-06
6.09936e-06
6.10224e-06
6.10597e-06
6.11101e-06
6.11703e-06
6.12597e-06
6.13786e-06
6.13555e-06
6.18424e-06
6.2203e-06
5.96429e-06
6.43125e-06
7.62289e-06
5.36524e-06
6.09013e-06
6.09034e-06
6.0909e-06
6.09158e-06
6.09241e-06
6.09356e-06
6.09513e-06
6.09704e-06
6.09931e-06
6.10226e-06
6.10632e-06
6.11159e-06
6.11871e-06
6.12976e-06
6.13377e-06
6.15023e-06
6.21464e-06
6.10728e-06
6.1027e-06
6.82095e-06
6.40316e-06
6.09031e-06
6.09051e-06
6.09085e-06
6.09147e-06
6.09244e-06
6.09378e-06
6.09539e-06
6.09719e-06
6.09946e-06
6.10261e-06
6.1069e-06
6.11303e-06
6.12177e-06
6.12869e-06
6.13995e-06
6.17976e-06
6.14514e-06
6.18013e-06
6.38887e-06
5.72016e-06
6.09033e-06
6.09033e-06
6.09069e-06
6.09134e-06
6.09224e-06
6.09342e-06
6.09475e-06
6.09613e-06
6.09778e-06
6.10008e-06
6.10333e-06
6.10853e-06
6.11546e-06
6.12183e-06
6.13489e-06
6.16022e-06
6.12184e-06
6.26095e-06
6.30913e-06
5.27111e-06
6.09058e-06
6.0906e-06
6.09093e-06
6.09137e-06
6.09193e-06
6.09275e-06
6.09371e-06
6.09471e-06
6.09588e-06
6.09755e-06
6.09997e-06
6.10428e-06
6.11004e-06
6.11499e-06
6.12903e-06
6.15038e-06
6.09586e-06
6.281e-06
6.31228e-06
5.14089e-06
6.09091e-06
6.09094e-06
6.09108e-06
6.09146e-06
6.09216e-06
6.093e-06
6.09377e-06
6.09453e-06
6.09559e-06
6.09719e-06
6.10052e-06
6.10521e-06
6.10864e-06
6.12313e-06
6.13994e-06
6.08358e-06
6.27599e-06
6.29705e-06
5.10652e-06
6.09115e-06
6.09104e-06
6.09121e-06
6.09165e-06
6.09236e-06
6.09317e-06
6.09383e-06
6.0943e-06
6.09483e-06
6.09566e-06
6.09796e-06
6.10149e-06
6.10338e-06
6.11796e-06
6.12894e-06
6.07795e-06
6.26742e-06
6.26808e-06
5.08369e-06
6.09156e-06
6.09148e-06
6.09169e-06
6.09202e-06
6.09249e-06
6.09306e-06
6.09352e-06
6.09377e-06
6.094e-06
6.09433e-06
6.09587e-06
6.09844e-06
6.0991e-06
6.11308e-06
6.11989e-06
6.07083e-06
6.26234e-06
6.24487e-06
5.05911e-06
6.09196e-06
6.09191e-06
6.09198e-06
6.09226e-06
6.09271e-06
6.09309e-06
6.09323e-06
6.09323e-06
6.09317e-06
6.09406e-06
6.09586e-06
6.0955e-06
6.10811e-06
6.11299e-06
6.06313e-06
6.25732e-06
6.22811e-06
5.03549e-06
6.0924e-06
6.0922e-06
6.09227e-06
6.09258e-06
6.09304e-06
6.09339e-06
6.09346e-06
6.09331e-06
6.09295e-06
6.09321e-06
6.09434e-06
6.09296e-06
6.10335e-06
6.10887e-06
6.05633e-06
6.24655e-06
6.21554e-06
5.02366e-06
6.09307e-06
6.09288e-06
6.09297e-06
6.09322e-06
6.09349e-06
6.09362e-06
6.09352e-06
6.09331e-06
6.0929e-06
6.09284e-06
6.09366e-06
6.09153e-06
6.09926e-06
6.10785e-06
6.04887e-06
6.23263e-06
6.20424e-06
5.0381e-06
6.09365e-06
6.09348e-06
6.09349e-06
6.09358e-06
6.09355e-06
6.09331e-06
6.09306e-06
6.09274e-06
6.09257e-06
6.09336e-06
6.09097e-06
6.09622e-06
6.10807e-06
6.04388e-06
6.21131e-06
6.21405e-06
5.06161e-06
6.09441e-06
6.09409e-06
6.09402e-06
6.09409e-06
6.09402e-06
6.09367e-06
6.09329e-06
6.09296e-06
6.09269e-06
6.09345e-06
6.09122e-06
6.09429e-06
6.10803e-06
6.04538e-06
6.17732e-06
6.26616e-06
5.04511e-06
6.09543e-06
6.0951e-06
6.09502e-06
6.09499e-06
6.09474e-06
6.09424e-06
6.0938e-06
6.09352e-06
6.09319e-06
6.0939e-06
6.09212e-06
6.09316e-06
6.10811e-06
6.0509e-06
6.145e-06
6.31874e-06
6.09622e-06
6.09589e-06
6.09564e-06
6.09521e-06
6.0947e-06
6.09434e-06
6.09422e-06
6.09399e-06
6.09461e-06
6.09352e-06
6.09256e-06
6.10862e-06
6.0579e-06
6.12117e-06
6.33978e-06
6.0973e-06
6.0969e-06
6.09656e-06
6.09607e-06
6.09556e-06
6.09531e-06
6.09529e-06
6.09512e-06
6.09552e-06
6.09521e-06
6.0926e-06
6.10859e-06
6.06753e-06
6.09775e-06
6.35195e-06
6.09854e-06
6.09811e-06
6.09772e-06
6.09719e-06
6.09682e-06
6.09666e-06
6.09671e-06
6.09668e-06
6.09683e-06
6.09711e-06
6.09358e-06
6.10704e-06
6.08101e-06
6.07124e-06
6.36613e-06
6.09979e-06
6.09942e-06
6.09899e-06
6.09854e-06
6.09824e-06
6.09816e-06
6.09827e-06
6.0984e-06
6.09844e-06
6.09918e-06
6.09571e-06
6.10443e-06
6.09608e-06
6.04833e-06
6.3657e-06
6.10101e-06
6.10078e-06
6.10038e-06
6.09995e-06
6.09972e-06
6.09975e-06
6.09997e-06
6.10028e-06
6.10038e-06
6.10125e-06
6.09901e-06
6.10227e-06
6.10881e-06
6.03679e-06
6.34351e-06
6.10198e-06
6.1017e-06
6.10146e-06
6.1014e-06
6.10158e-06
6.10191e-06
6.10233e-06
6.10258e-06
6.10329e-06
6.10267e-06
6.10173e-06
6.11633e-06
6.04413e-06
6.28173e-06
6.10297e-06
6.10293e-06
6.10293e-06
6.10307e-06
6.10338e-06
6.1038e-06
6.10428e-06
6.10468e-06
6.10517e-06
6.10573e-06
6.10297e-06
6.11782e-06
6.06681e-06
6.19082e-06
6.10383e-06
6.10395e-06
6.10412e-06
6.10443e-06
6.10491e-06
6.10548e-06
6.10607e-06
6.10662e-06
6.10703e-06
6.10796e-06
6.10568e-06
6.11493e-06
6.0937e-06
6.11165e-06
6.10453e-06
6.10481e-06
6.10513e-06
6.10561e-06
6.10625e-06
6.10698e-06
6.10773e-06
6.10844e-06
6.10895e-06
6.1098e-06
6.10897e-06
6.11181e-06
6.11336e-06
6.0726e-06
6.10508e-06
6.10551e-06
6.10596e-06
6.10657e-06
6.10737e-06
6.10829e-06
6.10925e-06
6.11016e-06
6.11091e-06
6.11169e-06
6.11202e-06
6.11146e-06
6.12116e-06
6.0745e-06
6.10604e-06
6.10663e-06
6.10741e-06
6.10838e-06
6.10947e-06
6.11062e-06
6.11173e-06
6.11273e-06
6.1136e-06
6.11452e-06
6.11364e-06
6.12129e-06
6.09577e-06
6.10647e-06
6.10718e-06
6.10811e-06
6.10922e-06
6.11045e-06
6.11173e-06
6.11298e-06
6.11415e-06
6.11519e-06
6.1163e-06
6.11633e-06
6.11992e-06
6.10687e-06
6.10763e-06
6.10864e-06
6.10985e-06
6.11118e-06
6.11258e-06
6.11395e-06
6.11525e-06
6.11643e-06
6.11758e-06
6.11833e-06
6.11969e-06
6.10727e-06
6.10805e-06
6.10909e-06
6.11034e-06
6.11173e-06
6.11321e-06
6.1147e-06
6.11612e-06
6.11742e-06
6.11862e-06
6.11966e-06
6.12044e-06
6.10768e-06
6.10847e-06
6.1095e-06
6.11075e-06
6.11217e-06
6.1137e-06
6.11529e-06
6.11684e-06
6.11828e-06
6.11958e-06
6.12075e-06
6.12158e-06
6.10891e-06
6.10992e-06
6.11115e-06
6.11255e-06
6.11409e-06
6.11571e-06
6.11736e-06
6.11895e-06
6.12042e-06
6.12174e-06
6.12279e-06
6.10927e-06
6.11029e-06
6.11149e-06
6.11283e-06
6.11431e-06
6.11589e-06
6.11753e-06
6.11918e-06
6.12079e-06
6.1223e-06
6.12363e-06
6.10951e-06
6.11056e-06
6.11174e-06
6.11305e-06
6.11446e-06
6.11597e-06
6.11753e-06
6.11913e-06
6.12073e-06
6.1223e-06
6.12379e-06
6.10954e-06
6.11065e-06
6.11186e-06
6.11315e-06
6.11453e-06
6.11597e-06
6.11746e-06
6.11898e-06
6.12051e-06
6.12204e-06
6.12352e-06
6.1093e-06
6.11051e-06
6.11177e-06
6.11308e-06
6.11444e-06
6.11585e-06
6.11728e-06
6.11874e-06
6.1202e-06
6.12167e-06
6.1231e-06
6.10878e-06
6.11009e-06
6.11142e-06
6.11278e-06
6.11416e-06
6.11555e-06
6.11695e-06
6.11835e-06
6.11976e-06
6.12116e-06
6.10802e-06
6.10939e-06
6.1108e-06
6.11223e-06
6.11366e-06
6.11507e-06
6.11647e-06
6.11784e-06
6.11919e-06
6.12053e-06
6.10848e-06
6.10993e-06
6.1114e-06
6.11289e-06
6.11436e-06
6.11578e-06
6.11717e-06
6.11851e-06
6.11981e-06
6.10747e-06
6.10889e-06
6.11035e-06
6.11184e-06
6.11333e-06
6.1148e-06
6.11622e-06
6.11758e-06
6.11889e-06
6.10643e-06
6.10776e-06
6.10916e-06
6.11061e-06
6.11208e-06
6.11354e-06
6.11497e-06
6.11635e-06
6.11767e-06
6.10538e-06
6.10661e-06
6.10791e-06
6.10928e-06
6.1107e-06
6.11213e-06
6.11354e-06
6.11491e-06
6.11622e-06
6.10435e-06
6.10546e-06
6.10664e-06
6.10791e-06
6.10923e-06
6.11059e-06
6.11196e-06
6.11331e-06
6.11461e-06
6.10329e-06
6.10432e-06
6.10539e-06
6.10653e-06
6.10774e-06
6.10901e-06
6.1103e-06
6.11159e-06
6.10214e-06
6.10313e-06
6.10411e-06
6.10516e-06
6.10626e-06
6.10741e-06
6.1086e-06
6.10982e-06
6.10075e-06
6.10175e-06
6.10272e-06
6.1037e-06
6.10472e-06
6.10577e-06
6.10687e-06
6.10799e-06
6.09994e-06
6.10098e-06
6.10198e-06
6.10297e-06
6.10397e-06
6.105e-06
6.10606e-06
6.09757e-06
6.09875e-06
6.09983e-06
6.10085e-06
6.10184e-06
6.10283e-06
6.10384e-06
6.09463e-06
6.09599e-06
6.0972e-06
6.09829e-06
6.09929e-06
6.10024e-06
6.10118e-06
6.09193e-06
6.09347e-06
6.09486e-06
6.09606e-06
6.09709e-06
6.09799e-06
6.09883e-06
6.08914e-06
6.09081e-06
6.09237e-06
6.09379e-06
6.09501e-06
6.09605e-06
6.08589e-06
6.08747e-06
6.08904e-06
6.09055e-06
6.09196e-06
6.09318e-06
6.08288e-06
6.08419e-06
6.08556e-06
6.08696e-06
6.08834e-06
6.08957e-06
6.08018e-06
6.08118e-06
6.08227e-06
6.08344e-06
6.08467e-06
6.08579e-06
6.07778e-06
6.07844e-06
6.07922e-06
6.08011e-06
6.08111e-06
6.08206e-06
6.07566e-06
6.07602e-06
6.07648e-06
6.07708e-06
6.07781e-06
6.07853e-06
6.07387e-06
6.07408e-06
6.07438e-06
6.07481e-06
6.07524e-06
6.07198e-06
6.07194e-06
6.07198e-06
6.07212e-06
6.07226e-06
6.07049e-06
6.07049e-06
6.07053e-06
6.07065e-06
6.07066e-06
6.06946e-06
6.06969e-06
6.06988e-06
6.07001e-06
6.06991e-06
6.07058e-06
6.07139e-06
6.07223e-06
6.07367e-06
6.07431e-06
6.07509e-06
6.07584e-06
)
;

boundaryField
{
    inlet
    {
        type            freestream;
        freestreamValue uniform 1e-05;
        value           nonuniform List<scalar> 4(6.07367e-06 6.07431e-06 6.07509e-06 6.07584e-06);
    }
    outlet
    {
        type            freestream;
        freestreamValue nonuniform List<scalar> 0();
        value           nonuniform List<scalar> 0();
    }
    walls
    {
        type            nutUSpaldingWallFunction;
        value           nonuniform List<scalar> 
42
(
0.00226296
0.00251025
0.00276777
0.00298984
0.00320267
0.00339711
0.00356112
0.00369877
0.00381129
0.00389695
0.00396096
0.0040056
0.00403
0.00403853
0.00401951
0.00396917
0.00388046
0.0037457
0.00354866
0.00326909
0.00286989
0.0023124
0.00159564
0.000892006
0.000412741
0.000253067
4.97584e-05
2.42988e-06
2.16832e-05
1.04776e-05
2.87357e-05
0.000139024
0.000237617
0.000278902
0.00072801
0.00200577
0.00171846
0.00139737
0.00102403
0.000672502
0.000504084
0.000708006
)
;
    }
    frontAndBack
    {
        type            empty;
    }
    procBoundary5to0
    {
        type            processor;
        value           nonuniform List<scalar> 4(6.10734e-06 6.10605e-06 6.10247e-06 6.09921e-06);
    }
    procBoundary5to1
    {
        type            processor;
        value           nonuniform List<scalar> 
13
(
1.04799e-05
6.00086e-06
6.00086e-06
6.15525e-06
6.12061e-06
6.12061e-06
6.11814e-06
6.11087e-06
6.11087e-06
6.10744e-06
6.10396e-06
6.09877e-06
6.09877e-06
)
;
    }
    procBoundary5to4
    {
        type            processor;
        value           nonuniform List<scalar> 
95
(
6.10843e-06
6.10768e-06
6.10696e-06
6.10696e-06
6.10345e-06
6.10271e-06
6.10271e-06
6.10007e-06
6.10006e-06
6.10006e-06
6.09807e-06
6.09807e-06
6.0961e-06
6.0961e-06
6.0942e-06
6.09283e-06
6.09283e-06
6.09183e-06
6.09183e-06
6.09101e-06
6.09061e-06
6.09061e-06
6.09035e-06
6.09023e-06
6.09023e-06
6.09027e-06
6.09033e-06
6.09033e-06
6.09061e-06
6.09093e-06
6.09111e-06
6.09111e-06
6.09155e-06
6.09199e-06
6.09228e-06
6.09228e-06
6.09291e-06
6.09359e-06
6.09412e-06
6.09412e-06
6.09503e-06
6.09603e-06
6.0968e-06
6.0968e-06
6.09794e-06
6.0991e-06
6.1002e-06
6.10119e-06
6.10216e-06
6.10216e-06
6.10299e-06
6.10369e-06
6.10424e-06
6.10466e-06
6.10556e-06
6.10556e-06
6.10593e-06
6.1063e-06
6.10668e-06
6.10708e-06
6.10814e-06
6.10814e-06
6.10844e-06
6.10859e-06
6.1085e-06
6.10814e-06
6.10753e-06
6.10673e-06
6.10709e-06
6.10709e-06
6.10613e-06
6.10518e-06
6.10423e-06
6.10327e-06
6.10224e-06
6.10106e-06
6.09955e-06
6.09874e-06
6.09874e-06
6.09618e-06
6.09307e-06
6.09023e-06
6.08742e-06
6.08437e-06
6.08166e-06
6.0793e-06
6.07724e-06
6.0754e-06
6.07374e-06
6.07374e-06
6.07204e-06
6.07049e-06
6.06926e-06
6.06929e-06
6.07305e-06
)
;
    }
    procBoundary5to6
    {
        type            processor;
        value           nonuniform List<scalar> 
86
(
0.0435156
0.203268
0.39024
0.535557
0.64632
0.724017
0.766677
0.769502
0.725116
0.625317
0.468166
0.270821
0.0986786
0.0163002
0.00372129
0
0
0
1.03087e-11
5.57716e-09
2.39274e-06
6.82078e-06
7.35745e-06
7.88609e-06
8.67695e-06
8.98568e-06
9.0701e-06
9.08936e-06
9.08317e-06
9.0758e-06
9.06205e-06
8.99401e-06
8.87084e-06
5.01046e-06
5.01046e-06
5.02568e-06
5.08761e-06
5.22607e-06
5.37118e-06
5.55891e-06
5.80566e-06
6.08257e-06
6.27245e-06
6.30993e-06
6.23948e-06
6.1543e-06
6.11387e-06
6.11387e-06
6.12173e-06
6.12331e-06
6.1234e-06
6.12397e-06
6.12478e-06
6.12513e-06
6.12493e-06
6.12448e-06
6.12255e-06
6.12255e-06
6.12185e-06
6.12107e-06
6.12015e-06
6.11893e-06
6.11746e-06
6.11584e-06
6.11286e-06
6.11286e-06
6.11102e-06
6.10911e-06
6.10712e-06
6.1049e-06
6.1022e-06
6.09973e-06
6.09711e-06
6.09711e-06
6.09447e-06
6.0909e-06
6.08701e-06
6.0831e-06
6.07932e-06
6.07571e-06
6.07242e-06
6.07071e-06
6.07027e-06
6.07027e-06
6.073e-06
6.07654e-06
)
;
    }
}


// ************************************************************************* //
