/*--------------------------------*- C++ -*----------------------------------*\
| =========                 |                                                 |
| \\      /  F ield         | OpenFOAM: The Open Source CFD Toolbox           |
|  \\    /   O peration     | Version:  2506                                  |
|   \\  /    A nd           | Website:  www.openfoam.com                      |
|    \\/     M anipulation  |                                                 |
\*---------------------------------------------------------------------------*/
FoamFile
{
    version     2.0;
    format      ascii;
    arch        "LSB;label=32;scalar=64";
    class       volScalarField;
    location    "50";
    object      turbulenceProperties:I;
}
// * * * * * * * * * * * * * * * * * * * * * * * * * * * * * * * * * * * * * //

dimensions      [0 0 0 0 0 0 0];

internalField   nonuniform List<scalar> 
1340
(
0.00472119
0.00453397
0.00443016
0.00445702
0.00453517
0.00469022
0.00493559
0.00525638
0.00566588
0.00617572
0.00679546
0.00755682
0.00850418
0.00970309
0.0112575
0.0133189
0.0161658
0.0201651
0.0263878
0.0356148
0.0546775
0.0871531
0.197273
0.538822
1
1
1
1
1
1
1
1
0.806696
0.364737
0.283036
0.00499
0.00550634
0.00634439
0.00817446
0.0119735
0.0156547
0.0110155
0.00246902
0.00219759
0.00196071
0.00175266
0.00157223
0.00141579
0.00127811
0.001156
0.00104945
0.000955105
0.000872065
0.000801239
0.000741795
0.000692105
0.000686845
0.0007479
0.000954262
0.00135913
0.0021556
0.0035355
0.00677091
0.0129991
0.0269093
0.0705823
0.14183
0.256437
0.426662
0.563837
0.653091
0.742568
0.832089
0.719405
0.606271
1
0.960561
0.00279001
0.00321569
0.00384762
0.00478191
0.00593191
0.00647939
0.00208735
0.00187337
0.00167379
0.00149328
0.00133943
0.00120419
0.00108704
0.000989402
0.000908832
0.000844725
0.00079536
0.000758551
0.000732467
0.000714709
0.000706491
0.000711563
0.000695361
0.000663321
0.000545892
0.0012629
0.000894248
0.00144604
0.000783715
0.00866427
0.0303764
0.0714507
0.147873
0.255891
0.3591
0.439881
0.504922
0.507628
0.514867
1
1
0.00233268
0.00262858
0.00301451
0.00346871
0.003876
0.00402078
0.00182902
0.00168021
0.00153758
0.00140789
0.001292
0.00118652
0.00109247
0.00100823
0.000932718
0.000864878
0.000803637
0.0007482
0.000697977
0.000651655
0.000608152
0.000565927
0.000520012
0.000475538
0.000419977
0.000350578
0.000106989
0.000570312
0.000322718
0.00225462
8.63214e-05
0.0102078
0.0377341
0.0964051
0.185053
0.277555
0.350402
0.38898
0.436882
0.702287
1
0.0019872
0.00216788
0.00238196
0.00260892
0.00278917
0.00156574
0.00145538
0.00134523
0.00124026
0.00114394
0.00105372
0.000970827
0.00089521
0.00082621
0.000763982
0.000708246
0.000658837
0.000615725
0.000578834
0.000547888
0.000523553
0.000505222
0.000488649
0.000468154
0.000447473
0.000374844
0.000251971
8.13679e-05
0
4.05536e-05
0.00282259
0.00494599
0.0177204
0.0664073
0.145492
0.22955
0.293519
0.361196
0.522875
0.777049
0.00167818
0.00179879
0.00193169
0.00205972
0.00215363
0.00136251
0.00128377
0.00120255
0.00112366
0.00105014
0.000980088
0.000914824
0.000854475
0.000798604
0.000747234
0.000699941
0.000656356
0.000616202
0.000579036
0.000544448
0.000512331
0.000480874
0.000447325
0.000412666
0.00037734
0.000346569
0.000313241
0.000226145
6.66552e-05
0
0
0
0.0039355
0.00774539
0.0500803
0.122386
0.200709
0.283746
0.404025
0.540342
0.00143975
0.00151946
0.00160397
0.00168136
0.00119084
0.00113246
0.00107064
0.00100897
0.000950418
0.000893265
0.000838822
0.000787504
0.000739021
0.000693601
0.000651111
0.000611384
0.00057442
0.000540064
0.00050825
0.000478831
0.0004522
0.000428818
0.000407039
0.000384088
0.000359407
0.000335105
0.000320069
0.000216244
6.26388e-05
0
0
0
0.00345311
0.00273603
0.0419781
0.112276
0.202994
0.30996
0.404185
0.0012463
0.00130172
0.00135875
0.00140881
0.00105046
0.00100704
0.000960147
0.000912342
0.000866522
0.000821035
0.000777126
0.000735299
0.000695361
0.000657597
0.000621866
0.000588068
0.000556182
0.000526044
0.00049752
0.000470465
0.000444799
0.000419233
0.000393149
0.00036701
0.000342179
0.000318876
0.000309074
0.000299068
0.000226144
6.14324e-05
3.86076e-06
0
0
0.00214834
0.000188802
0.0418176
0.12399
0.225697
0.306904
0.00109073
0.00113007
0.00116992
0.00120387
0.000933148
0.00090024
0.000864137
0.000826456
0.000790015
0.000753303
0.000717291
0.000682544
0.000648905
0.000616632
0.00058569
0.000556003
0.000527602
0.000500422
0.00047443
0.000449558
0.000425724
0.000402981
0.000381291
0.000360066
0.000339155
0.000319162
0.000302317
0.00029857
0.000294337
0.000240069
1.61341e-05
2.84058e-06
0
0
8.19391e-05
0.00751481
0.056683
0.147208
0.225296
0.000963146
0.000991872
0.00102075
0.000722545
0.000692885
0.000663571
0.000634984
0.000607019
0.000579946
0.000553725
0.000528324
0.000503797
0.000480096
0.000457186
0.000435005
0.000413556
0.000392666
0.000371788
0.000351054
0.000331014
0.00031299
0.000297714
0.000287367
0.000286941
0.000286694
0.000239287
9.43644e-06
2.20096e-06
0
0
0.00265559
0.0124594
0.0784696
0.150459
0.000614151
0.000590485
0.000567183
0.000544354
0.000521995
0.000500101
0.000478737
0.000457873
0.000437486
0.000417559
0.000398055
0.000379026
0.000360331
0.000342021
0.000324321
0.000307951
0.000294221
0.000283111
0.000275404
0.000274266
0.000279667
0.000229695
8.48579e-06
1.95968e-06
0
0
0.00650389
0.027042
0.0824018
0.000530283
0.000511072
0.000492215
0.000473478
0.000455022
0.000436869
0.000418982
0.000401344
0.000383935
0.000366878
0.000349911
0.000333089
0.000316816
0.000301759
0.000288986
0.000278852
0.000270083
0.000262556
0.000261474
0.000267402
0.000209281
7.63953e-06
3.08517e-07
0
0.00171133
0.00657661
0.0282201
0.000479854
0.000463808
0.000447851
0.000431925
0.000416117
0.000400411
0.000384813
0.000369296
0.000353998
0.000338792
0.000323735
0.000309132
0.000295502
0.000283588
0.000273919
0.000265689
0.000257453
0.000249529
0.000248103
0.000253143
0.000191914
3.73522e-05
0
0
0.00487441
0.0105744
0.000437069
0.000423448
0.000409828
0.00039614
0.000382417
0.000368714
0.000355015
0.000341421
0.0003279
0.000314401
0.000301226
0.000288858
0.000277856
0.000268624
0.000260774
0.000253139
0.000245118
0.0002365
0.000234056
0.00024484
0.000144782
5.36254e-06
0
0.000356509
0.00284161
0.000411812
0.000400295
0.000388706
0.000376853
0.000364889
0.000352905
0.000340885
0.000328863
0.000316901
0.00030492
0.000293139
0.000281983
0.000271892
0.000263168
0.000255616
0.000248389
0.00024114
0.000233241
0.00022131
0.000230367
0.000224699
4.00314e-05
0
0
0.00117042
0.000378353
0.000368433
0.000358313
0.000347952
0.000337504
0.000326977
0.000316388
0.000305844
0.000295245
0.000284753
0.000274737
0.000265549
0.000257426
0.000250237
0.000243419
0.000236443
0.000229872
0.000219709
0.000210521
0.000231431
0.000156261
8.0423e-06
0
0
0.000349151
0.000340485
0.000331582
0.000322501
0.000313302
0.000304014
0.000294766
0.000285441
0.00027615
0.000267203
0.000258884
0.000251396
0.000244638
0.00023825
0.000231655
0.000225184
0.000218611
0.000204977
0.00020997
0.000220314
1.02935e-05
4.69908e-07
0
0.000330728
0.000323411
0.000315863
0.000307988
0.000299985
0.000291881
0.000283819
0.000275672
0.000267493
0.000259536
0.000252038
0.000245178
0.000238891
0.000232912
0.000226862
0.000220458
0.000214909
0.000205504
0.000196162
0.000214215
0.000154814
3.47705e-05
0
0.000307083
0.000300638
0.000293929
0.000287022
0.000279981
0.00027296
0.000265892
0.000258745
0.000251725
0.000245024
0.000238797
0.000233014
0.00022746
0.00022193
0.000216026
0.000210351
0.000204469
0.00019376
0.000195615
0.000205661
0.000134365
3.76556e-05
0.000291431
0.000286045
0.000280404
0.000274431
0.000268322
0.000262228
0.000256138
0.00024995
0.00024381
0.000237873
0.000232277
0.000227017
0.000221926
0.000216867
0.000211618
0.000206126
0.000201346
0.000194299
0.000187788
0.000201423
0.000209815
0.000149178
0.000272033
0.000267247
0.000262186
0.000256947
0.000251683
0.000246449
0.000241121
0.000235784
0.000230573
0.000225604
0.000220883
0.000216287
0.000211707
0.000207064
0.000202174
0.000197703
0.00019338
0.000187391
0.00019251
0.000218028
0.000225587
0.000258531
0.000254601
0.000250392
0.000245891
0.000241358
0.000236884
0.000232331
0.000227725
0.000223188
0.000218818
0.000214634
0.000210543
0.000206462
0.000202371
0.000198183
0.00019421
0.000191133
0.000187862
0.000190399
0.000210935
0.000232651
0.000242419
0.000238876
0.000235105
0.000231258
0.000227451
0.000223565
0.000219608
0.000215693
0.000211899
0.000208245
0.000204661
0.000201092
0.000197545
0.000194021
0.000190768
0.000188467
0.000187111
0.000191019
0.000206352
0.000222611
0.000230599
0.000227724
0.000224637
0.000221367
0.000218117
0.000214813
0.000211448
0.00020811
0.000204865
0.000201727
0.000198642
0.000195584
0.000192581
0.000189685
0.000187188
0.000185678
0.000185411
0.000190939
0.000204107
0.000214498
0.000219279
0.000216979
0.000214482
0.000211751
0.00020905
0.000206311
0.000203498
0.000200688
0.000197932
0.000195255
0.000192621
0.000190029
0.000187536
0.000185225
0.000183431
0.000182692
0.000183188
0.000189594
0.000201857
0.000209283
0.000206656
0.000204619
0.000202397
0.000200181
0.000197931
0.000195595
0.000193261
0.000190968
0.000188733
0.000186532
0.000184388
0.000182385
0.000180628
0.000179479
0.000179398
0.000180571
0.000187329
0.000198804
0.000204719
0.000196616
0.000195037
0.000193289
0.000191464
0.000189604
0.000187673
0.000185756
0.000183878
0.000182062
0.000180289
0.000178594
0.000177072
0.000175844
0.000175285
0.000175762
0.00017753
0.000184424
0.000195165
0.000200095
0.000186972
0.000185785
0.000184447
0.000182992
0.000181526
0.00017999
0.000178448
0.000176925
0.000175462
0.000174057
0.000172753
0.00017166
0.000170902
0.000170851
0.000171807
0.000174046
0.000181033
0.000191228
0.000195403
0.000176908
0.000175882
0.000174782
0.000173656
0.000172448
0.000171213
0.000170004
0.000168864
0.000167801
0.000166856
0.000166148
0.000165801
0.00016618
0.000167546
0.000170159
0.000177196
0.000187016
0.00019061
0.000168251
0.000167539
0.000166764
0.000165899
0.000164922
0.000163911
0.00016296
0.000162124
0.000161399
0.00016081
0.000160467
0.000160494
0.000161238
0.000162967
0.000165873
0.000172862
0.000182445
0.000185665
0.000159921
0.000159462
0.000158946
0.00015833
0.000157588
0.000156788
0.000156059
0.000155473
0.000155027
0.000154733
0.000154693
0.000155028
0.000156061
0.00015809
0.000161184
0.000168048
0.00017741
0.000180493
0.000151716
0.000151396
0.000151012
0.000150484
0.000149865
0.000149315
0.00014893
0.000148712
0.000148653
0.000148853
0.00014943
0.000150675
0.000152921
0.00015613
0.000162718
0.000172035
0.000174856
0.000144159
0.000144027
0.000143855
0.000143489
0.000142988
0.000142553
0.000142321
0.000142295
0.000142443
0.000142852
0.000143637
0.000145048
0.00014744
0.000150743
0.000156858
0.000166445
0.0001684
0.000136867
0.000136863
0.000136838
0.000136631
0.000136258
0.000135923
0.000135806
0.000135919
0.000136218
0.000136775
0.000137708
0.000139224
0.000141684
0.000145042
0.000150611
0.00016032
0.000130013
0.00013009
0.000130022
0.000129755
0.000129502
0.000129457
0.000129652
0.000130039
0.000130682
0.000131701
0.000133259
0.00013571
0.000139059
0.000144113
0.000153498
0.000123347
0.000123535
0.000123588
0.00012339
0.000123175
0.000123155
0.000123385
0.000123821
0.000124514
0.00012558
0.000127145
0.00012953
0.000132829
0.000137389
0.000146197
0.000116905
0.000117126
0.000117259
0.00011713
0.000116945
0.000116926
0.000117156
0.0001176
0.0001183
0.000119367
0.000120898
0.000123162
0.000126373
0.000130465
0.000138625
0.0001107
0.000110944
0.000111126
0.000111033
0.000110836
0.000110781
0.000110985
0.000111414
0.000112092
0.000113114
0.000114567
0.00011666
0.000119725
0.0001234
0.000130804
0.000104742
0.000105
0.000105183
0.000105087
0.000104854
0.000104744
0.000104914
0.000105314
0.000105945
0.000106882
0.000108214
0.000110095
0.000112925
0.000116242
0.00012282
9.93114e-05
9.94549e-05
9.93352e-05
9.90547e-05
9.88903e-05
9.90061e-05
9.93434e-05
9.98852e-05
0.000100693
0.000101858
0.000103495
0.000106015
0.000109031
0.000114612
9.38028e-05
9.39271e-05
9.37713e-05
9.34246e-05
9.31904e-05
9.32247e-05
9.34585e-05
9.38712e-05
9.4516e-05
9.54808e-05
9.68636e-05
9.90195e-05
0.000101764
0.000106266
8.84982e-05
8.85613e-05
8.83504e-05
8.79436e-05
8.76362e-05
8.75686e-05
8.76704e-05
8.79264e-05
8.83842e-05
8.91197e-05
9.0231e-05
9.19878e-05
9.44416e-05
9.79751e-05
8.3419e-05
8.34059e-05
8.31392e-05
8.26749e-05
8.2267e-05
8.20611e-05
8.20083e-05
8.20932e-05
8.23501e-05
8.28346e-05
8.36422e-05
8.49897e-05
8.70813e-05
8.98957e-05
7.8566e-05
7.84674e-05
7.81246e-05
7.75976e-05
7.70838e-05
7.67289e-05
7.65096e-05
7.64173e-05
7.64653e-05
7.66803e-05
7.71606e-05
7.80869e-05
7.97318e-05
8.20247e-05
7.37803e-05
7.33259e-05
7.27176e-05
7.21012e-05
7.16079e-05
7.12186e-05
7.09333e-05
7.0751e-05
7.06786e-05
7.08039e-05
7.12986e-05
7.24384e-05
7.4291e-05
6.933e-05
6.87836e-05
6.80557e-05
6.73207e-05
6.67008e-05
6.61473e-05
6.56467e-05
6.52032e-05
6.48201e-05
6.45757e-05
6.4634e-05
6.52457e-05
6.51157e-05
6.44617e-05
6.36142e-05
6.27712e-05
6.20406e-05
6.13217e-05
6.05887e-05
5.98608e-05
5.91444e-05
5.85091e-05
5.81017e-05
5.81802e-05
6.11287e-05
6.03784e-05
5.94411e-05
5.85225e-05
5.76772e-05
5.67769e-05
5.58051e-05
5.479e-05
5.37273e-05
5.26672e-05
5.17543e-05
5.12475e-05
5.73996e-05
5.65589e-05
5.55392e-05
5.4568e-05
5.3629e-05
5.25631e-05
5.13739e-05
5.00961e-05
4.86933e-05
4.71834e-05
4.56835e-05
4.44823e-05
5.30178e-05
5.19081e-05
5.08845e-05
4.98696e-05
4.86875e-05
4.73373e-05
4.58395e-05
4.41309e-05
4.21768e-05
4.00335e-05
3.79604e-05
4.97599e-05
4.85898e-05
4.74844e-05
4.6401e-05
4.51529e-05
4.36965e-05
4.20317e-05
4.00831e-05
3.77556e-05
3.498e-05
3.18645e-05
4.67719e-05
4.55632e-05
4.44125e-05
4.33028e-05
4.20329e-05
4.05162e-05
3.87465e-05
3.66415e-05
3.4056e-05
3.07997e-05
2.66494e-05
4.40328e-05
4.28327e-05
4.1695e-05
4.06054e-05
3.93545e-05
3.78435e-05
3.60586e-05
3.39237e-05
3.12894e-05
2.7898e-05
2.32922e-05
4.15537e-05
4.04036e-05
3.93138e-05
3.82729e-05
3.7086e-05
3.56544e-05
3.39693e-05
3.19816e-05
2.95741e-05
2.65806e-05
2.27789e-05
3.93118e-05
3.82344e-05
3.72315e-05
3.62873e-05
3.52128e-05
3.392e-05
3.24308e-05
3.07308e-05
2.8783e-05
2.65556e-05
3.7293e-05
3.63098e-05
3.54112e-05
3.46172e-05
3.37143e-05
3.26145e-05
3.13711e-05
3.00284e-05
2.86076e-05
2.71405e-05
3.45929e-05
3.38089e-05
3.31873e-05
3.24899e-05
3.16264e-05
3.06578e-05
2.96728e-05
2.87162e-05
2.78362e-05
3.30788e-05
3.24204e-05
3.19264e-05
3.14167e-05
3.0791e-05
3.00964e-05
2.94259e-05
2.88401e-05
2.83788e-05
3.17294e-05
3.11956e-05
3.08236e-05
3.04762e-05
3.00567e-05
2.95924e-05
2.91685e-05
2.88535e-05
2.86695e-05
3.0506e-05
3.00952e-05
2.98466e-05
2.96437e-05
2.93951e-05
2.91158e-05
2.88821e-05
2.87541e-05
2.8752e-05
2.9389e-05
2.90898e-05
2.89442e-05
2.8858e-05
2.87503e-05
2.86197e-05
2.85363e-05
2.85443e-05
2.86663e-05
2.83567e-05
2.8151e-05
2.80871e-05
2.80915e-05
2.80904e-05
2.80818e-05
2.81192e-05
2.82294e-05
2.73936e-05
2.72659e-05
2.72621e-05
2.73311e-05
2.74105e-05
2.74907e-05
2.762e-05
2.78152e-05
2.64687e-05
2.64042e-05
2.64467e-05
2.657e-05
2.67073e-05
2.68463e-05
2.70332e-05
2.72844e-05
2.55418e-05
2.56086e-05
2.57758e-05
2.59633e-05
2.61503e-05
2.63819e-05
2.66732e-05
2.46765e-05
2.47536e-05
2.49246e-05
2.51423e-05
2.53747e-05
2.56521e-05
2.59841e-05
2.37633e-05
2.38333e-05
2.39885e-05
2.4201e-05
2.44448e-05
2.47421e-05
2.50941e-05
2.31445e-05
2.32222e-05
2.33702e-05
2.35738e-05
2.38049e-05
2.4081e-05
2.4406e-05
2.2648e-05
2.27695e-05
2.29512e-05
2.31872e-05
2.34478e-05
2.37327e-05
2.19943e-05
2.21454e-05
2.23448e-05
2.26005e-05
2.28882e-05
2.32027e-05
2.13558e-05
2.15033e-05
2.16763e-05
2.18943e-05
2.2153e-05
2.24353e-05
2.07592e-05
2.09216e-05
2.10748e-05
2.12439e-05
2.14484e-05
2.16646e-05
2.01269e-05
2.03035e-05
2.0447e-05
2.05882e-05
2.07595e-05
2.09175e-05
1.9623e-05
1.98545e-05
2.001e-05
2.01066e-05
2.02206e-05
2.03235e-05
1.90679e-05
1.92567e-05
1.93995e-05
1.95216e-05
1.95409e-05
1.90901e-05
1.93242e-05
1.94085e-05
1.95178e-05
1.96452e-05
1.80069e-05
1.83352e-05
1.8663e-05
1.88509e-05
1.88051e-05
1.95457e-05
2.00384e-05
2.02394e-05
2.05909e-05
1.90649e-05
1.94953e-05
2.00232e-05
2.05074e-05
2.26181e-05
2.35198e-05
2.37331e-05
2.36147e-05
)
;

boundaryField
{
    inlet
    {
        type            calculated;
        value           nonuniform List<scalar> 4(4.28262e-05 4.48842e-05 4.58745e-05 4.68135e-05);
    }
    outlet
    {
        type            calculated;
        value           nonuniform List<scalar> 0();
    }
    walls
    {
        type            calculated;
        value           uniform 0;
    }
    frontAndBack
    {
        type            empty;
    }
    procBoundary5to0
    {
        type            processor;
        value           nonuniform List<scalar> 4(0.000834772 0.000857359 0.000878723 0.000900234);
    }
    procBoundary5to1
    {
        type            processor;
        value           nonuniform List<scalar> 
13
(
0.00770936
0.00549735
0.00549735
0.00372591
0.00285042
0.00285042
0.0021838
0.00173663
0.00173663
0.00144425
0.00122802
0.00104477
0.00104477
)
;
    }
    procBoundary5to4
    {
        type            processor;
        value           nonuniform List<scalar> 
95
(
0.000809465
0.000781408
0.0007517
0.0007517
0.000662399
0.000638345
0.000638345
0.000569407
0.000549827
0.000549827
0.00049603
0.00049603
0.000450637
0.000450637
0.000423234
0.000388086
0.000388086
0.000357534
0.000357534
0.000337798
0.000313231
0.000313231
0.000296576
0.000276514
0.000276514
0.000262241
0.000245645
0.000245645
0.000233265
0.000221439
0.000208459
0.000208459
0.000198057
0.000188089
0.000177752
0.000177752
0.000168875
0.00016035
0.000151943
0.000151943
0.000144268
0.000136883
0.000129881
0.000129881
0.000123172
0.00011672
0.000110508
0.000104542
9.9037e-05
9.9037e-05
9.35695e-05
8.83306e-05
8.33133e-05
7.85324e-05
7.39573e-05
7.39573e-05
6.95896e-05
6.54579e-05
6.15545e-05
5.7894e-05
5.39318e-05
5.39318e-05
5.07101e-05
4.77383e-05
4.4999e-05
4.24853e-05
4.01901e-05
3.81032e-05
3.54866e-05
3.54866e-05
3.38499e-05
3.23663e-05
3.1023e-05
2.97922e-05
2.86567e-05
2.75981e-05
2.65968e-05
2.55724e-05
2.55724e-05
2.46669e-05
2.37337e-05
2.30877e-05
2.25316e-05
2.18363e-05
2.11812e-05
2.05479e-05
1.98854e-05
1.93079e-05
1.88075e-05
1.88075e-05
1.8751e-05
1.75809e-05
1.90195e-05
1.84525e-05
2.2209e-05
)
;
    }
    procBoundary5to6
    {
        type            processor;
        value           nonuniform List<scalar> 
86
(
0.26712
0.879136
1
1
0.839944
0.567474
0.423395
0.328153
0.254056
0.187711
0.123057
0.0612235
0.017424
0.00912875
0.00425691
0
0
0
9.37448e-06
4.45878e-05
0.000201233
0.000260158
0.000261938
0.000262767
0.000264706
0.000261907
0.000257136
0.000251804
0.000246003
0.000239558
0.000232106
0.000223189
0.00021296
0.000161469
0.000161469
0.000154704
0.000147998
0.000141391
0.000134279
0.000126939
0.00011955
0.000112043
0.000103992
9.53345e-05
8.64368e-05
7.76783e-05
6.66103e-05
6.66103e-05
5.90108e-05
5.14835e-05
4.40296e-05
3.65624e-05
2.90615e-05
2.16439e-05
1.6289e-05
1.81687e-05
2.41223e-05
2.41223e-05
2.57811e-05
2.71504e-05
2.81093e-05
2.86658e-05
2.89037e-05
2.89135e-05
2.8433e-05
2.8433e-05
2.80769e-05
2.75926e-05
2.70171e-05
2.63666e-05
2.55031e-05
2.47968e-05
2.40439e-05
2.40439e-05
2.35331e-05
2.27479e-05
2.19073e-05
2.11288e-05
2.04174e-05
1.96729e-05
1.9534e-05
1.90768e-05
2.12884e-05
2.12884e-05
2.04956e-05
2.63873e-05
)
;
    }
}


// ************************************************************************* //
