/*--------------------------------*- C++ -*----------------------------------*\
| =========                 |                                                 |
| \\      /  F ield         | OpenFOAM: The Open Source CFD Toolbox           |
|  \\    /   O peration     | Version:  2506                                  |
|   \\  /    A nd           | Website:  www.openfoam.com                      |
|    \\/     M anipulation  |                                                 |
\*---------------------------------------------------------------------------*/
FoamFile
{
    version     2.0;
    format      ascii;
    arch        "LSB;label=32;scalar=64";
    class       volScalarField;
    location    "50";
    object      turbulenceProperties:epsilon;
}
// * * * * * * * * * * * * * * * * * * * * * * * * * * * * * * * * * * * * * //

dimensions      [0 2 -3 0 0 0 0];

internalField   nonuniform List<scalar> 
1340
(
0.085272
0.117032
0.164264
0.237809
0.338184
0.482384
0.686808
0.961518
1.3294
1.81211
2.4341
3.24739
4.32959
5.80991
7.85715
10.7613
15.0244
21.3011
31.4334
45.352
73.3219
99.0457
170.141
230.957
114.806
46.4671
17.6106
8.26175
6.23666
4.05207
2.32214
2.95613
3.07402
0.253362
8.30919
0.0609191
0.0440017
0.0287694
0.0180984
0.0110169
0.00797344
0.0102219
0.00525162
0.00525481
0.00515953
0.00491293
0.00454352
0.00410884
0.00360782
0.0030734
0.00256857
0.00210126
0.00169329
0.00136492
0.00110986
0.000912265
0.00095032
0.00139356
0.00335861
0.0097103
0.0332186
0.124133
0.640686
3.12238
14.8386
82.2471
188.283
255.167
262.879
195.011
124.278
79.5805
51.9261
28.6316
12.7459
11.2992
16.4245
0.0051319
0.00494523
0.00465517
0.00420344
0.00367205
0.00318551
0.00258987
0.00250112
0.00235173
0.00214856
0.00193741
0.00171268
0.00149046
0.00129557
0.00113174
0.00100549
0.000914237
0.000852608
0.000815806
0.000795845
0.000800294
0.000849104
0.00078896
0.000658179
0.000296392
0.00601051
0.00203721
0.00511847
0.000836527
0.5687
11.1249
59.9412
168.953
245.244
211.052
143.376
92.078
50.2799
24.7828
25.573
34.1492
0.00265088
0.00266669
0.00263406
0.00247903
0.00224224
0.00197162
0.00163867
0.00163693
0.00161523
0.00157817
0.00151882
0.00143762
0.00134171
0.00123009
0.00110937
0.000984148
0.000858679
0.00073779
0.000625243
0.000520802
0.000424688
0.000336266
0.000248531
0.00017658
0.000107102
5.02483e-05
2.53852e-07
0.000332469
3.18164e-05
0.0121285
1.50615e-07
0.536153
12.0984
75.5489
175.989
195.294
144.046
82.921
44.673
40.0219
45.4804
0.00161644
0.00158349
0.00152664
0.00143141
0.00131677
0.000974173
0.000965137
0.000945928
0.000913803
0.000869809
0.000814023
0.000749001
0.000676689
0.000600675
0.0005255
0.000454284
0.000389764
0.000333693
0.000286678
0.000248244
0.000219102
0.000197401
0.000176376
0.000149231
0.000123029
5.92181e-05
1.08217e-05
6.50911e-08
0
2.75581e-09
0.014529
0.021173
1.39944
28.1159
108.442
150.838
115.014
71.6845
58.9836
58.48
0.000970596
0.000959424
0.000933003
0.000881349
0.000818978
0.000628651
0.000629504
0.000625675
0.000616201
0.000600752
0.000578987
0.000551258
0.000517515
0.00047896
0.000437226
0.000393433
0.000349063
0.00030545
0.000263416
0.00022368
0.000187187
0.000152403
0.000117659
8.63377e-05
6.01513e-05
4.20059e-05
2.72786e-05
6.98293e-06
2.80436e-08
0
0
0
0.0152896
0.104208
10.7608
64.447
105.052
93.8976
79.4768
71.7804
0.000621061
0.000610332
0.000592276
0.000561149
0.000412092
0.00041326
0.000412101
0.000407354
0.000399082
0.000386752
0.00037028
0.000349619
0.000325318
0.000298346
0.000269548
0.000239948
0.000210626
0.000182358
0.000155882
0.000131614
0.000110342
9.25022e-05
7.65939e-05
6.10114e-05
4.63903e-05
3.44393e-05
2.78962e-05
5.53053e-06
2.14209e-08
0
0
0
0.0163389
0.00372455
4.98702
42.2261
84.6853
92.9335
83.2405
0.00040674
0.000399673
0.000388401
0.000369309
0.000278676
0.000280595
0.000281532
0.000280305
0.000277312
0.000271971
0.000264097
0.000253552
0.000240504
0.00022539
0.000208442
0.00019019
0.000171188
0.000151869
0.00013271
0.00011413
9.65657e-05
7.94574e-05
6.30851e-05
4.84593e-05
3.65584e-05
2.72719e-05
2.36213e-05
2.02128e-05
6.37334e-06
1.94662e-08
6.75007e-14
0
0
0.00565177
2.56897e-06
3.74763
39.8223
82.7446
86.8706
0.00027429
0.000269094
0.000261636
0.000249474
0.000192158
0.00019396
0.00019541
0.000195331
0.000194299
0.000191875
0.000187733
0.000181794
0.000174089
0.00016477
0.000153973
0.000141975
0.000129116
0.000115719
0.000102159
8.87602e-05
7.58315e-05
6.37453e-05
5.27171e-05
4.26543e-05
3.37338e-05
2.63168e-05
2.09346e-05
1.95245e-05
1.78915e-05
7.65082e-06
4.57362e-11
1.67323e-14
0
0
4.24584e-08
0.0160837
6.15703
44.9563
72.4436
0.000188909
0.000185189
0.000180261
0.000138651
0.000137771
0.0001359
0.000132836
0.000128571
0.00012317
0.000116635
0.00010912
0.000100804
9.18624e-05
8.25072e-05
7.29433e-05
6.34413e-05
5.417e-05
4.51207e-05
3.66788e-05
2.92897e-05
2.34087e-05
1.90122e-05
1.62637e-05
1.57595e-05
1.50831e-05
7.02358e-06
3.86318e-12
5.0858e-15
0
0
0.00492688
0.0769098
10.5421
38.9767
9.91843e-05
9.75977e-05
9.52598e-05
9.20762e-05
8.80325e-05
8.32124e-05
7.77168e-05
7.16422e-05
6.51163e-05
5.82873e-05
5.13156e-05
4.4425e-05
3.7739e-05
3.14613e-05
2.58175e-05
2.10819e-05
1.74961e-05
1.48297e-05
1.30094e-05
1.23675e-05
1.26773e-05
5.50237e-06
2.25041e-12
2.83878e-15
0
0
0.0168989
0.464496
9.232
7.12031e-05
6.93596e-05
6.69695e-05
6.39324e-05
6.03498e-05
5.62941e-05
5.18238e-05
4.70233e-05
4.19998e-05
3.69372e-05
3.18714e-05
2.69722e-05
2.24957e-05
1.86753e-05
1.57041e-05
1.35002e-05
1.16749e-05
1.01297e-05
9.538e-06
9.78796e-06
3.47867e-06
1.31961e-12
6.52031e-19
0
0.0012698
0.00962009
0.365328
5.25497e-05
5.10915e-05
4.92148e-05
4.6881e-05
4.41593e-05
4.10866e-05
3.77165e-05
3.41108e-05
3.04032e-05
2.6649e-05
2.29624e-05
1.95203e-05
1.64991e-05
1.40388e-05
1.21537e-05
1.0601e-05
9.11023e-06
7.74006e-06
7.17376e-06
7.23349e-06
2.25339e-06
1.57951e-09
0
0
0.00937524
0.0285842
3.91763e-05
3.80102e-05
3.65337e-05
3.47301e-05
3.26328e-05
3.02882e-05
2.77323e-05
2.50483e-05
2.22911e-05
1.95132e-05
1.68579e-05
1.44745e-05
1.24687e-05
1.08643e-05
9.53505e-06
8.27762e-06
7.0313e-06
5.8167e-06
5.24974e-06
5.79441e-06
6.44107e-07
2.50275e-13
0
1.90954e-05
0.00292346
3.014e-05
2.94562e-05
2.85468e-05
2.73515e-05
2.59235e-05
2.43031e-05
2.25092e-05
2.05805e-05
1.85735e-05
1.65127e-05
1.44929e-05
1.26326e-05
1.10162e-05
9.66965e-06
8.528e-06
7.45652e-06
6.42083e-06
5.38486e-06
4.13859e-06
4.5191e-06
3.80457e-06
2.09018e-09
0
0
0.000359809
2.28985e-05
2.23295e-05
2.15715e-05
2.06147e-05
1.95016e-05
1.82464e-05
1.68703e-05
1.54197e-05
1.39023e-05
1.23799e-05
1.09437e-05
9.65899e-06
8.55147e-06
7.58508e-06
6.67932e-06
5.78342e-06
4.96782e-06
3.94641e-06
3.13476e-06
4.19116e-06
8.25536e-07
1.48384e-12
0
0
1.75094e-05
1.70278e-05
1.64022e-05
1.56436e-05
1.477e-05
1.37956e-05
1.27573e-05
1.16518e-05
1.05168e-05
9.41941e-06
8.40968e-06
7.51265e-06
6.70818e-06
5.95072e-06
5.18987e-06
4.47169e-06
3.79204e-06
2.77746e-06
2.85534e-06
3.16949e-06
4.30745e-12
3.61958e-18
0
1.37427e-05
1.34579e-05
1.3069e-05
1.25559e-05
1.19533e-05
1.12701e-05
1.05349e-05
9.73926e-06
8.90188e-06
8.07071e-06
7.28409e-06
6.56529e-06
5.90478e-06
5.27474e-06
4.64623e-06
4.01258e-06
3.47158e-06
2.75883e-06
2.15979e-06
2.8253e-06
7.34756e-07
9.0498e-10
0
1.06497e-05
1.04054e-05
1.00753e-05
9.66808e-06
9.19379e-06
8.67576e-06
8.11114e-06
7.50163e-06
6.88061e-06
6.27618e-06
5.70799e-06
5.17383e-06
4.65531e-06
4.14015e-06
3.611e-06
3.12168e-06
2.65574e-06
2.02835e-06
1.97514e-06
2.25393e-06
3.66071e-07
1.08364e-09
8.42896e-06
8.29166e-06
8.09148e-06
7.81647e-06
7.48915e-06
7.12708e-06
6.73205e-06
6.29589e-06
5.83862e-06
5.38068e-06
4.93813e-06
4.51253e-06
4.09245e-06
3.67171e-06
3.24373e-06
2.81761e-06
2.45235e-06
2.01916e-06
1.66275e-06
2.05786e-06
2.28988e-06
4.95615e-07
6.6099e-06
6.48745e-06
6.31245e-06
6.09287e-06
5.84322e-06
5.56951e-06
5.26138e-06
4.92894e-06
4.58736e-06
4.24869e-06
3.91566e-06
3.58149e-06
3.24231e-06
2.89922e-06
2.55051e-06
2.23719e-06
1.94895e-06
1.6264e-06
1.70471e-06
2.61279e-06
2.75067e-06
5.26451e-06
5.2025e-06
5.09998e-06
4.95345e-06
4.78311e-06
4.59625e-06
4.38215e-06
4.14383e-06
3.8925e-06
3.63711e-06
3.38089e-06
3.11971e-06
2.85111e-06
2.57815e-06
2.30192e-06
2.04258e-06
1.82859e-06
1.61793e-06
1.60933e-06
2.25955e-06
3.04494e-06
4.17066e-06
4.11034e-06
4.01969e-06
3.90784e-06
3.78235e-06
3.63499e-06
3.46621e-06
3.28432e-06
3.09555e-06
2.90243e-06
2.70236e-06
2.49417e-06
2.28081e-06
2.06582e-06
1.86295e-06
1.69813e-06
1.56681e-06
1.60474e-06
2.03758e-06
2.51058e-06
3.33593e-06
3.30824e-06
3.25807e-06
3.18561e-06
3.10173e-06
3.00178e-06
2.88473e-06
2.75595e-06
2.61955e-06
2.47723e-06
2.32734e-06
2.16961e-06
2.00679e-06
1.84292e-06
1.69081e-06
1.57015e-06
1.48538e-06
1.57549e-06
1.91724e-06
2.12748e-06
2.66852e-06
2.66134e-06
2.63758e-06
2.59372e-06
2.54165e-06
2.4777e-06
2.3992e-06
2.30992e-06
2.21251e-06
2.10873e-06
1.99762e-06
1.87967e-06
1.75776e-06
1.63573e-06
1.5256e-06
1.4432e-06
1.39069e-06
1.5056e-06
1.80255e-06
1.89555e-06
2.14057e-06
2.13131e-06
2.10804e-06
2.07785e-06
2.03855e-06
1.98715e-06
1.92699e-06
1.85966e-06
1.78619e-06
1.70606e-06
1.62019e-06
1.53155e-06
1.44371e-06
1.36764e-06
1.31526e-06
1.28914e-06
1.41021e-06
1.66724e-06
1.70731e-06
1.71659e-06
1.7182e-06
1.70959e-06
1.69295e-06
1.66932e-06
1.6365e-06
1.59711e-06
1.55196e-06
1.50197e-06
1.44665e-06
1.38693e-06
1.32545e-06
1.26538e-06
1.21655e-06
1.18725e-06
1.1821e-06
1.30162e-06
1.52275e-06
1.53386e-06
1.37555e-06
1.38346e-06
1.38401e-06
1.37719e-06
1.36564e-06
1.34683e-06
1.32232e-06
1.2927e-06
1.25922e-06
1.22187e-06
1.18149e-06
1.14058e-06
1.10172e-06
1.07346e-06
1.06168e-06
1.07145e-06
1.18729e-06
1.38066e-06
1.37409e-06
1.11372e-06
1.11853e-06
1.11868e-06
1.11488e-06
1.1051e-06
1.09032e-06
1.07178e-06
1.05055e-06
1.02674e-06
1.00097e-06
9.75475e-07
9.52445e-07
9.39185e-07
9.40316e-07
9.6031e-07
1.07066e-06
1.2429e-06
1.2266e-06
8.93147e-07
9.0113e-07
9.05812e-07
9.06181e-07
9.01179e-07
8.9215e-07
8.80993e-07
8.68847e-07
8.55519e-07
8.4115e-07
8.27436e-07
8.1624e-07
8.13714e-07
8.24207e-07
8.50687e-07
9.52894e-07
1.10846e-06
1.08982e-06
7.15276e-07
7.2442e-07
7.31237e-07
7.34479e-07
7.33234e-07
7.28373e-07
7.22179e-07
7.15943e-07
7.09541e-07
7.02805e-07
6.97065e-07
6.9389e-07
6.983e-07
7.14849e-07
7.44236e-07
8.36657e-07
9.76553e-07
9.61967e-07
5.82082e-07
5.89391e-07
5.94456e-07
5.95637e-07
5.93483e-07
5.90385e-07
5.87861e-07
5.85849e-07
5.83933e-07
5.83247e-07
5.85126e-07
5.93532e-07
6.13153e-07
6.43094e-07
7.23385e-07
8.51537e-07
8.38646e-07
4.65734e-07
4.73161e-07
4.79195e-07
4.81501e-07
4.80567e-07
4.7897e-07
4.78543e-07
4.79281e-07
4.80562e-07
4.83168e-07
4.88277e-07
4.98827e-07
5.19345e-07
5.48758e-07
6.1485e-07
7.36425e-07
7.15264e-07
3.71776e-07
3.78521e-07
3.84458e-07
3.87533e-07
3.87651e-07
3.87017e-07
3.87684e-07
3.8979e-07
3.92668e-07
3.96887e-07
4.03523e-07
4.14652e-07
4.3435e-07
4.62175e-07
5.14824e-07
6.2625e-07
3.0272e-07
3.0808e-07
3.11461e-07
3.1214e-07
3.1206e-07
3.13099e-07
3.15578e-07
3.18921e-07
3.23563e-07
3.30474e-07
3.4107e-07
3.58825e-07
3.84023e-07
4.25532e-07
5.2056e-07
2.41068e-07
2.45959e-07
2.49365e-07
2.50167e-07
2.50156e-07
2.51064e-07
2.53361e-07
2.5661e-07
2.61106e-07
2.67677e-07
2.77236e-07
2.92514e-07
3.14648e-07
3.46934e-07
4.24198e-07
1.91364e-07
1.95322e-07
1.984e-07
1.99281e-07
1.99287e-07
1.99929e-07
2.01787e-07
2.04588e-07
2.08534e-07
2.14301e-07
2.22499e-07
2.35085e-07
2.53967e-07
2.78748e-07
3.39947e-07
1.51495e-07
1.54661e-07
1.57272e-07
1.58024e-07
1.57815e-07
1.58045e-07
1.59406e-07
1.61669e-07
1.64918e-07
1.69652e-07
1.76338e-07
1.86256e-07
2.01769e-07
2.20684e-07
2.67495e-07
1.19649e-07
1.22158e-07
1.2417e-07
1.24635e-07
1.24184e-07
1.24049e-07
1.24982e-07
1.26735e-07
1.29271e-07
1.32918e-07
1.38083e-07
1.45558e-07
1.57652e-07
1.72069e-07
2.06653e-07
9.63267e-08
9.77208e-08
9.79095e-08
9.72682e-08
9.68915e-08
9.74276e-08
9.86363e-08
1.00424e-07
1.03007e-07
1.06742e-07
1.12113e-07
1.21034e-07
1.32011e-07
1.55952e-07
7.56042e-08
7.66034e-08
7.65645e-08
7.57632e-08
7.51924e-08
7.53565e-08
7.60224e-08
7.7105e-08
7.87562e-08
8.12535e-08
8.49353e-08
9.11316e-08
9.93933e-08
1.14816e-07
5.91144e-08
5.97086e-08
5.94725e-08
5.86126e-08
5.79262e-08
5.77828e-08
5.79862e-08
5.84815e-08
5.93776e-08
6.08647e-08
6.32115e-08
6.72228e-08
7.32149e-08
8.27142e-08
4.60921e-08
4.63646e-08
4.60074e-08
4.51473e-08
4.43521e-08
4.39337e-08
4.37765e-08
4.38348e-08
4.41678e-08
4.48823e-08
4.61802e-08
4.85629e-08
5.26034e-08
5.84832e-08
3.58457e-08
3.58794e-08
3.542e-08
3.45849e-08
3.37399e-08
3.31403e-08
3.2735e-08
3.24977e-08
3.24399e-08
3.25958e-08
3.31237e-08
3.4339e-08
3.67759e-08
4.04591e-08
2.77258e-08
2.71638e-08
2.63506e-08
2.55118e-08
2.48341e-08
2.42817e-08
2.38452e-08
2.35145e-08
2.32901e-08
2.3279e-08
2.37012e-08
2.49417e-08
2.71834e-08
2.13877e-08
2.08017e-08
1.99886e-08
1.91698e-08
1.84843e-08
1.78696e-08
1.73052e-08
1.67906e-08
1.63244e-08
1.59786e-08
1.59058e-08
1.6349e-08
1.64768e-08
1.58815e-08
1.51003e-08
1.43377e-08
1.36908e-08
1.30635e-08
1.24335e-08
1.18175e-08
1.122e-08
1.06909e-08
1.03277e-08
1.02992e-08
1.26782e-08
1.21073e-08
1.13996e-08
1.07273e-08
1.01283e-08
9.51002e-09
8.86715e-09
8.22381e-09
7.58206e-09
6.97319e-09
6.46855e-09
6.17958e-09
9.77072e-09
9.23959e-09
8.61036e-09
8.03567e-09
7.50296e-09
6.92523e-09
6.31597e-09
5.70309e-09
5.07975e-09
4.46504e-09
3.90861e-09
3.49689e-09
7.07518e-09
6.51515e-09
6.02516e-09
5.56393e-09
5.0569e-09
4.51801e-09
3.96955e-09
3.40506e-09
2.83496e-09
2.29492e-09
1.84912e-09
5.44774e-09
4.96349e-09
4.53378e-09
4.13831e-09
3.71305e-09
3.25719e-09
2.78749e-09
2.30354e-09
1.811e-09
1.33207e-09
9.15336e-10
4.22193e-09
3.80997e-09
3.4447e-09
3.11679e-09
2.76928e-09
2.39182e-09
2.00067e-09
1.59963e-09
1.19301e-09
7.97408e-10
4.46469e-10
3.29422e-09
2.95554e-09
2.65805e-09
2.39399e-09
2.11452e-09
1.80937e-09
1.4921e-09
1.16914e-09
8.46143e-10
5.34678e-10
2.59756e-10
2.59625e-09
2.32529e-09
2.0878e-09
1.87794e-09
1.65761e-09
1.41753e-09
1.16888e-09
9.18963e-10
6.72308e-10
4.38922e-10
2.36857e-10
2.06743e-09
1.85372e-09
1.66956e-09
1.5088e-09
1.3397e-09
1.15494e-09
9.66139e-10
7.797e-10
6.00607e-10
4.35599e-10
1.66501e-09
1.49932e-09
1.35869e-09
1.24283e-09
1.11984e-09
9.82099e-10
8.41799e-10
7.07567e-10
5.83606e-10
4.73428e-10
1.22873e-09
1.12305e-09
1.04442e-09
9.60907e-10
8.64111e-10
7.64189e-10
6.71613e-10
5.90021e-10
5.21807e-10
1.02218e-09
9.44886e-10
8.90091e-10
8.36006e-10
7.72669e-10
7.06455e-10
6.46656e-10
5.97719e-10
5.61421e-10
8.61165e-10
8.06114e-10
7.69669e-10
7.36834e-10
6.9833e-10
6.57339e-10
6.21591e-10
5.96282e-10
5.82377e-10
7.3244e-10
6.9504e-10
6.73526e-10
6.56558e-10
6.35974e-10
6.13272e-10
5.94934e-10
5.85601e-10
5.86646e-10
6.28108e-10
6.04012e-10
5.9304e-10
5.87055e-10
5.79408e-10
5.70019e-10
5.64489e-10
5.66252e-10
5.77222e-10
5.42046e-10
5.27435e-10
5.23565e-10
5.24828e-10
5.25713e-10
5.26059e-10
5.29886e-10
5.39328e-10
4.70077e-10
4.62193e-10
4.62728e-10
4.68247e-10
4.74579e-10
4.81052e-10
4.91104e-10
5.06139e-10
4.08049e-10
4.04787e-10
4.08082e-10
4.16458e-10
4.25891e-10
4.35619e-10
4.48715e-10
4.66533e-10
3.52997e-10
3.57283e-10
3.67314e-10
3.78768e-10
3.90487e-10
4.05235e-10
4.24224e-10
3.06313e-10
3.10643e-10
3.19825e-10
3.31686e-10
3.44705e-10
3.60645e-10
3.80352e-10
2.62406e-10
2.65907e-10
2.73315e-10
2.83569e-10
2.95634e-10
3.10778e-10
3.2938e-10
2.35381e-10
2.38908e-10
2.45417e-10
2.54459e-10
2.64983e-10
2.7791e-10
2.93669e-10
2.15234e-10
2.20205e-10
2.27644e-10
2.37496e-10
2.48713e-10
2.614e-10
1.90903e-10
1.96478e-10
2.03927e-10
2.13714e-10
2.25109e-10
2.3805e-10
1.692e-10
1.74157e-10
1.80062e-10
1.87653e-10
1.96925e-10
2.07399e-10
1.50634e-10
1.55603e-10
1.6041e-10
1.65815e-10
1.72489e-10
1.7974e-10
1.32706e-10
1.37596e-10
1.41694e-10
1.45806e-10
1.50877e-10
1.5567e-10
1.19548e-10
1.25443e-10
1.29565e-10
1.32221e-10
1.35378e-10
1.38269e-10
1.0636e-10
1.1075e-10
1.14179e-10
1.17185e-10
1.17735e-10
1.06552e-10
1.1199e-10
1.1406e-10
1.16751e-10
1.19915e-10
8.39941e-11
9.0365e-11
9.70783e-11
1.01123e-10
1.00203e-10
1.16397e-10
1.28699e-10
1.34048e-10
1.43715e-10
1.04617e-10
1.14455e-10
1.27434e-10
1.40303e-10
2.08151e-10
2.43644e-10
2.52867e-10
2.48203e-10
)
;

boundaryField
{
    inlet
    {
        type            calculated;
        value           nonuniform List<scalar> 4(2.65697e-09 3.20725e-09 3.50258e-09 3.80209e-09);
    }
    outlet
    {
        type            calculated;
        value           nonuniform List<scalar> 0();
    }
    walls
    {
        type            calculated;
        value           uniform 0;
    }
    frontAndBack
    {
        type            empty;
    }
    procBoundary5to0
    {
        type            processor;
        value           nonuniform List<scalar> 4(0.000135084 0.000132575 0.000129857 0.000126543);
    }
    procBoundary5to1
    {
        type            processor;
        value           nonuniform List<scalar> 
13
(
0.0172315
0.00267945
0.00267945
0.00171183
0.00118952
0.00118952
0.000748663
0.000525973
0.000525973
0.000348639
0.000236885
0.000172363
0.000172363
)
;
    }
    procBoundary5to4
    {
        type            processor;
        value           nonuniform List<scalar> 
95
(
0.000136638
0.000138143
0.000138732
0.000138732
0.000100164
0.000100054
0.000100054
7.32177e-05
7.24962e-05
7.24962e-05
5.35832e-05
5.35832e-05
4.00192e-05
4.00192e-05
3.06002e-05
2.32827e-05
2.32827e-05
1.78369e-05
1.78369e-05
1.39218e-05
1.08065e-05
1.08065e-05
8.50692e-06
6.67871e-06
6.67871e-06
5.2923e-06
4.19642e-06
4.19642e-06
3.34253e-06
2.66278e-06
2.13513e-06
2.13513e-06
1.70662e-06
1.36314e-06
1.10223e-06
1.10223e-06
8.81855e-07
7.04592e-07
5.7244e-07
5.7244e-07
4.57376e-07
3.64709e-07
2.96445e-07
2.96445e-07
2.35985e-07
1.87426e-07
1.48442e-07
1.17281e-07
9.43102e-08
9.43102e-08
7.41651e-08
5.8172e-08
4.5503e-08
3.55293e-08
2.78397e-08
2.78397e-08
2.16003e-08
1.67476e-08
1.29788e-08
1.0071e-08
7.55336e-09
7.55336e-09
5.85925e-09
4.5693e-09
3.58348e-09
2.82969e-09
2.25275e-09
1.81e-09
1.35792e-09
1.35792e-09
1.11857e-09
9.30511e-10
7.81771e-10
6.61954e-10
5.64221e-10
4.83328e-10
4.15211e-10
3.54091e-10
3.54091e-10
3.05332e-10
2.60685e-10
2.32716e-10
2.10521e-10
1.85204e-10
1.63499e-10
1.44389e-10
1.2628e-10
1.11906e-10
1.00557e-10
1.00557e-10
9.90732e-11
7.62553e-11
1.0426e-10
9.17558e-11
1.93276e-10
)
;
    }
    procBoundary5to6
    {
        type            processor;
        value           nonuniform List<scalar> 
86
(
13.6903
22.3691
34.7742
43.8932
52.1639
59.3029
64.9496
67.4573
62.8038
45.9618
20.3446
3.10563
0.0628288
0.0274783
0.00534675
0
0
0
1.71221e-12
1.8891e-09
1.48231e-06
4.13571e-06
4.17494e-06
4.15467e-06
4.19835e-06
3.96093e-06
3.63048e-06
3.29817e-06
2.97249e-06
2.64875e-06
2.31757e-06
1.97198e-06
1.63071e-06
6.00385e-07
6.00385e-07
5.03201e-07
4.19803e-07
3.48734e-07
2.83173e-07
2.25927e-07
1.77679e-07
1.37105e-07
1.01837e-07
7.20627e-08
4.88194e-08
3.19257e-08
1.75454e-08
1.75454e-08
1.07952e-08
6.24761e-09
3.33844e-09
1.58547e-09
6.31873e-10
1.94052e-10
6.21227e-11
9.59277e-11
2.96894e-10
2.96894e-10
3.86039e-10
4.73101e-10
5.41491e-10
5.83335e-10
6.00467e-10
5.98743e-10
5.56239e-10
5.56239e-10
5.26555e-10
4.88957e-10
4.47391e-10
4.03977e-10
3.51977e-10
3.13421e-10
2.75775e-10
2.75775e-10
2.52229e-10
2.1945e-10
1.88117e-10
1.62193e-10
1.40945e-10
1.21026e-10
1.1729e-10
1.06174e-10
1.64324e-10
1.64324e-10
1.40039e-10
3.87436e-10
)
;
    }
}


// ************************************************************************* //
