/*--------------------------------*- C++ -*----------------------------------*\
| =========                 |                                                 |
| \\      /  F ield         | OpenFOAM: The Open Source CFD Toolbox           |
|  \\    /   O peration     | Version:  2506                                  |
|   \\  /    A nd           | Website:  www.openfoam.com                      |
|    \\/     M anipulation  |                                                 |
\*---------------------------------------------------------------------------*/
FoamFile
{
    version     2.0;
    format      ascii;
    arch        "LSB;label=32;scalar=64";
    class       volScalarField;
    location    "500";
    object      div(phi);
}
// * * * * * * * * * * * * * * * * * * * * * * * * * * * * * * * * * * * * * //

dimensions      [0 0 -1 0 0 0 0];

internalField   nonuniform List<scalar> 
1340
(
-1.29407e-08
-1.97717e-08
-3.64031e-09
-2.12121e-08
-3.31534e-09
-5.16187e-09
-1.44413e-08
-1.00312e-09
-7.2533e-09
-1.79757e-09
-9.11851e-09
-1.52909e-08
2.11609e-09
-7.1424e-09
-9.98885e-10
-3.70441e-09
1.09018e-08
-2.0817e-08
1.65309e-09
2.25695e-09
-6.25811e-09
8.43531e-10
-5.13299e-09
-7.35303e-10
-2.72631e-09
8.65138e-09
-2.98636e-09
4.01015e-09
6.06252e-09
-3.39504e-09
-7.35292e-09
2.2108e-09
-5.11138e-09
3.91207e-10
-2.59767e-09
-7.79507e-09
2.03789e-08
-8.29542e-09
2.98713e-09
1.82347e-09
1.13235e-08
1.34992e-09
-6.16633e-09
6.51479e-10
2.4659e-09
-6.00605e-09
1.88748e-09
-3.80182e-09
-1.01866e-10
-3.36595e-08
1.0956e-08
1.36758e-08
-1.8822e-08
1.6301e-08
-7.00024e-10
3.35601e-09
-8.40019e-10
6.93957e-09
-3.2168e-09
2.61368e-09
6.24955e-09
-3.04511e-09
-7.29777e-09
2.5435e-09
-4.53229e-09
1.1214e-09
-2.02069e-09
-1.89844e-08
5.06265e-08
-5.00103e-08
4.28807e-08
-3.05212e-08
1.59654e-08
-1.14311e-08
-7.167e-09
1.30986e-08
-3.91707e-10
7.84005e-09
-5.04451e-09
1.63822e-09
-1.41605e-09
9.63452e-09
1.79651e-09
-5.64265e-09
5.45948e-11
3.07562e-09
-6.22393e-09
2.2928e-09
-3.11228e-09
2.50618e-10
2.49938e-08
2.01064e-08
2.21519e-08
3.16995e-08
1.42412e-08
3.24402e-08
1.25314e-08
2.10934e-08
-6.18779e-09
1.64506e-08
-1.93055e-08
1.0976e-08
-2.22486e-08
1.12659e-09
-5.71497e-09
-9.90008e-09
4.73682e-09
-5.58245e-09
1.52755e-09
-1.67572e-09
7.3451e-09
-3.57254e-09
1.53963e-09
6.27218e-09
-2.35596e-09
-7.01239e-09
2.95807e-09
-4.00652e-09
1.46195e-09
-1.44755e-09
2.97368e-07
-9.56677e-08
1.21493e-07
-5.21337e-08
9.31692e-08
-3.392e-08
5.5385e-08
-1.99392e-08
4.69824e-08
-1.47643e-09
4.07702e-08
6.27703e-09
2.81109e-08
1.55326e-08
2.54141e-08
2.42375e-08
1.61773e-08
2.34323e-08
1.14811e-08
7.04729e-09
7.3204e-09
-9.51568e-09
1.5493e-09
-1.84062e-08
4.37864e-09
-1.98169e-08
-1.3277e-08
-8.23173e-09
-6.57187e-09
5.29016e-10
-6.63503e-09
7.12739e-10
-7.5229e-09
7.79522e-09
2.72987e-09
-5.38699e-09
-1.87282e-10
3.60101e-09
-5.59009e-09
2.53252e-09
-2.52851e-09
4.5073e-10
3.34834e-07
-1.47179e-06
-4.86293e-07
-1.00418e-06
-2.42744e-07
-7.95725e-07
-1.08263e-07
-6.35127e-07
7.85982e-09
-5.14829e-07
4.40731e-08
-4.54662e-07
7.99318e-08
-4.20698e-07
8.26928e-08
-4.02771e-07
1.07713e-07
-3.87011e-07
1.11153e-07
-3.89067e-07
1.31254e-07
-3.9408e-07
1.49508e-07
-3.82644e-07
1.6193e-07
-3.50134e-07
1.79716e-07
-3.05065e-07
1.72648e-07
-2.38814e-07
1.97197e-07
-1.69542e-07
2.07621e-07
-1.22861e-07
1.93282e-07
-8.2116e-08
1.52964e-07
-5.33195e-08
1.18293e-07
-3.64993e-08
8.76629e-08
-1.99815e-08
6.30037e-08
-4.24494e-10
5.4972e-08
1.22041e-08
4.50072e-08
2.05653e-08
3.18625e-08
2.72682e-08
2.75337e-08
2.44801e-08
2.25139e-08
2.28418e-08
1.49514e-08
1.79953e-08
1.06951e-08
3.44696e-09
2.14824e-09
-4.62235e-09
2.76347e-09
-1.49706e-08
-7.01322e-09
-1.31645e-08
-9.21399e-09
-4.68864e-09
-1.06801e-08
-3.23503e-09
-1.06139e-08
4.9851e-09
-7.04058e-09
-5.85474e-10
5.43506e-09
-1.03622e-09
-6.10513e-09
3.50571e-09
-3.77424e-09
1.61223e-09
-1.18964e-09
1.68755e-06
-7.55819e-07
3.83457e-07
-5.49479e-07
3.89909e-07
-4.61491e-07
3.73697e-07
-3.9708e-07
3.64177e-07
-3.34115e-07
3.1807e-07
-2.84468e-07
2.90904e-07
-2.51894e-07
2.59794e-07
-2.40838e-07
2.43014e-07
-2.33322e-07
2.15659e-07
-2.26783e-07
1.99968e-07
-2.22622e-07
1.86904e-07
-2.1715e-07
1.73405e-07
-2.00751e-07
1.59779e-07
-1.73745e-07
1.40441e-07
-1.45893e-07
1.51447e-07
-1.19737e-07
1.24704e-07
-9.02581e-08
1.2966e-07
-6.31862e-08
1.18059e-07
-4.07691e-08
9.61037e-08
-2.01643e-08
8.22352e-08
-5.33741e-09
6.77756e-08
3.12508e-09
5.00138e-08
1.40507e-08
3.80011e-08
2.06471e-08
3.35586e-08
1.98708e-08
2.3547e-08
2.39425e-08
1.78174e-08
1.90807e-08
1.70806e-08
1.6271e-08
1.19113e-08
9.75478e-09
7.85641e-09
4.82298e-09
-6.8421e-11
1.2562e-10
-4.87111e-09
-5.56688e-09
-5.02419e-09
-6.37908e-09
-3.61228e-09
-9.79361e-09
-1.3408e-09
-1.36527e-08
4.1736e-09
2.03103e-09
-4.15358e-09
-1.04963e-09
4.19604e-09
-5.15532e-09
2.7652e-09
-2.30456e-09
5.21643e-10
1.73618e-06
-7.80298e-07
2.30355e-07
-4.69953e-07
3.16276e-07
-3.62445e-07
3.44314e-07
-3.18134e-07
3.35297e-07
-2.90433e-07
3.18964e-07
-2.57457e-07
2.82932e-07
-2.30799e-07
2.57837e-07
-2.11941e-07
2.35163e-07
-1.96624e-07
2.16908e-07
-1.79402e-07
1.97955e-07
-1.64164e-07
1.81917e-07
-1.55269e-07
1.71949e-07
-1.4388e-07
1.49096e-07
-1.29297e-07
1.36132e-07
-1.0226e-07
1.11389e-07
-6.86356e-08
1.28665e-07
-4.43517e-08
1.1893e-07
-3.45022e-08
1.01525e-07
-3.35298e-08
8.34686e-08
-3.42786e-08
5.54552e-08
-2.77036e-08
3.6522e-08
-1.10118e-08
3.32365e-08
3.20509e-10
3.05611e-08
8.73488e-09
2.13558e-08
1.69715e-08
2.02487e-08
1.54744e-08
1.74834e-08
1.68248e-08
1.28721e-08
1.55205e-08
1.27458e-08
1.16911e-08
9.30893e-09
7.96999e-09
4.92357e-09
3.12404e-09
9.53892e-10
-8.80814e-10
-1.78107e-09
-1.89588e-09
-4.54374e-09
-2.55386e-09
-1.16854e-08
4.45826e-09
-6.14158e-09
-1.18248e-09
1.36877e-10
-1.26039e-10
-5.36862e-09
3.94089e-09
-3.20198e-09
1.76362e-09
-8.5423e-10
1.76301e-06
-4.97309e-07
4.10959e-07
-3.62875e-07
3.7527e-07
-3.0486e-07
3.57359e-07
-2.6696e-07
3.33453e-07
-2.49169e-07
3.14052e-07
-2.34388e-07
2.72283e-07
-2.15509e-07
2.35839e-07
-1.95914e-07
2.06626e-07
-1.81859e-07
1.87393e-07
-1.66412e-07
1.67508e-07
-1.50161e-07
1.52919e-07
-1.36213e-07
1.40525e-07
-1.23968e-07
1.27529e-07
-1.09996e-07
1.12891e-07
-9.57854e-08
9.79477e-08
-8.38055e-08
8.44171e-08
-6.78124e-08
7.06979e-08
-5.17411e-08
7.31973e-08
-3.60331e-08
6.17017e-08
-2.32868e-08
5.58013e-08
-1.41155e-08
4.84791e-08
-1.20179e-08
3.22037e-08
-4.80791e-09
2.12468e-08
3.72841e-09
2.19191e-08
7.47879e-09
1.61225e-08
1.4454e-08
1.32991e-08
1.46662e-08
1.38697e-08
1.35654e-08
1.07093e-08
1.08108e-08
8.42762e-09
7.01641e-09
5.36223e-09
3.50487e-09
2.35639e-09
1.32154e-09
-1.74629e-11
8.46717e-11
5.40912e-10
-3.846e-09
2.39597e-09
-1.0454e-08
2.27466e-09
-4.45034e-09
-3.62033e-09
-7.3366e-09
2.6263e-09
-4.3802e-09
3.04348e-09
-1.75627e-09
6.70653e-10
1.60409e-06
-6.35959e-07
1.67466e-07
-3.60024e-07
2.53847e-07
-2.55652e-07
2.56854e-07
-2.0404e-07
2.58645e-07
-1.78173e-07
2.46814e-07
-1.66125e-07
2.36669e-07
-1.54999e-07
2.08781e-07
-1.43457e-07
1.85245e-07
-1.33668e-07
1.64626e-07
-1.26481e-07
1.45867e-07
-1.18802e-07
1.28638e-07
-1.10373e-07
1.14228e-07
-1.03644e-07
1.03103e-07
-9.44601e-08
9.03835e-08
-8.40658e-08
7.83777e-08
-7.21434e-08
6.69691e-08
-6.4076e-08
6.265e-08
-5.90682e-08
4.52486e-08
-5.66943e-08
3.67301e-08
-5.34415e-08
2.41225e-08
-4.76605e-08
9.82372e-09
-3.16573e-08
1.1574e-08
-1.60061e-08
1.68045e-08
-3.50317e-09
1.33206e-08
8.24484e-09
1.53984e-08
1.04493e-08
1.35077e-08
1.17053e-08
8.9165e-09
1.07348e-08
7.79073e-09
8.25646e-09
5.79372e-09
5.43978e-09
4.36032e-09
2.43306e-09
3.34343e-09
1.11142e-09
1.66283e-09
6.35376e-10
2.35263e-09
1.23609e-09
-8.56357e-09
2.85628e-09
-8.48621e-09
-3.49409e-09
-8.54152e-09
-1.78529e-09
-7.35133e-09
3.29685e-09
-2.74669e-09
1.9102e-09
-7.00548e-10
1.31633e-06
-5.51975e-07
2.22155e-07
-3.85176e-07
2.5596e-07
-3.08035e-07
2.46432e-07
-2.54698e-07
2.43042e-07
-2.16791e-07
2.26941e-07
-1.98477e-07
2.12468e-07
-1.90392e-07
1.87984e-07
-1.80325e-07
1.60115e-07
-1.64863e-07
1.35554e-07
-1.52198e-07
1.17065e-07
-1.40728e-07
1.01607e-07
-1.30593e-07
9.05101e-08
-1.21123e-07
8.27834e-08
-1.13299e-07
7.77212e-08
-1.0311e-07
7.25745e-08
-9.2503e-08
6.48616e-08
-8.14565e-08
6.07575e-08
-7.14006e-08
5.16133e-08
-6.14807e-08
4.81564e-08
-4.93778e-08
3.66493e-08
-3.46159e-08
4.35836e-08
-2.27969e-08
3.94961e-08
-1.36056e-08
2.90827e-08
-5.01573e-09
3.07272e-08
-1.24808e-09
2.04378e-08
2.78553e-09
1.223e-08
5.39178e-09
1.0463e-08
7.17399e-09
6.10775e-09
7.25802e-09
3.92797e-09
5.9053e-09
2.165e-09
3.9051e-09
1.42993e-09
2.63354e-09
4.6804e-10
1.57286e-09
2.09411e-09
-4.76022e-09
2.0275e-09
-7.469e-09
-2.09534e-09
-6.05268e-09
-4.71917e-09
-7.8509e-09
-1.60473e-10
-4.97605e-09
2.65887e-09
-1.65946e-09
7.17741e-10
1.3147e-06
-6.24979e-07
1.3424e-07
-4.13679e-07
1.66298e-07
-3.3155e-07
1.5555e-07
-2.81659e-07
1.46145e-07
-2.44765e-07
1.31555e-07
-2.16854e-07
1.24161e-07
-1.96181e-07
1.16496e-07
-1.78628e-07
1.12996e-07
-1.5843e-07
1.02949e-07
-1.39402e-07
9.25016e-08
-1.23946e-07
8.10789e-08
-1.12724e-07
7.3522e-08
-1.03305e-07
6.55136e-08
-9.68517e-08
5.9146e-08
-9.13106e-08
5.32913e-08
-8.4275e-08
4.71953e-08
-7.55255e-08
4.2303e-08
-6.58144e-08
3.82286e-08
-5.56443e-08
3.46743e-08
-4.66891e-08
3.17454e-08
-4.01306e-08
2.4611e-08
-3.16189e-08
1.79478e-08
-2.33934e-08
2.23594e-08
-1.67681e-08
1.22637e-08
-9.58604e-09
1.1394e-08
-4.12267e-09
1.04342e-08
-5.67388e-11
5.16345e-09
2.25712e-09
3.66407e-09
3.18626e-09
1.38244e-09
3.01942e-09
1.02958e-10
2.12555e-09
2.12362e-10
1.63174e-09
-6.56306e-11
1.35166e-09
1.09939e-09
9.27066e-12
-3.37508e-10
-1.66588e-09
-3.63005e-10
-4.80189e-09
-4.92512e-09
-3.62885e-09
-7.13738e-09
1.41594e-09
-3.27685e-09
1.67357e-09
-6.50415e-10
1.15438e-06
-7.11434e-07
1.30615e-07
-4.66686e-07
1.7427e-07
-3.51381e-07
1.7955e-07
-2.76495e-07
1.74635e-07
-2.23402e-07
1.6962e-07
-1.84847e-07
1.59412e-07
-1.5671e-07
1.49147e-07
-1.36548e-07
1.40494e-07
-1.19247e-07
1.305e-07
-1.01628e-07
1.18691e-07
-8.40212e-08
1.0572e-07
-6.87124e-08
9.55677e-08
-5.55558e-08
8.73831e-08
-4.52241e-08
8.00622e-08
-3.76603e-08
7.36366e-08
-3.33021e-08
6.56989e-08
-3.04939e-08
5.67705e-08
-2.92525e-08
4.82781e-08
-2.7944e-08
4.04236e-08
-2.69425e-08
3.32025e-08
-2.52926e-08
2.76788e-08
-2.58097e-08
2.25342e-08
-2.62324e-08
1.09941e-08
-2.46212e-08
1.00739e-08
-2.13891e-08
6.25601e-09
-1.72521e-08
2.2582e-09
-1.27668e-08
1.64664e-09
-7.90945e-09
-3.40878e-10
-3.75465e-09
-9.79106e-10
-1.52218e-10
-1.21694e-09
2.38975e-09
-1.15996e-09
3.89849e-09
-1.69184e-09
4.92437e-09
-2.20244e-09
6.2972e-09
-2.00123e-09
4.23056e-09
-2.05835e-09
-3.99032e-10
-3.49296e-09
-6.25051e-09
-7.5765e-10
-5.70019e-09
2.1216e-09
-1.76816e-09
6.62412e-10
2.86793e-09
-5.23891e-07
-3.22038e-08
-4.12045e-07
2.55717e-08
-3.28285e-07
6.62243e-08
-2.62019e-07
8.9777e-08
-2.1017e-07
1.06347e-07
-1.69024e-07
1.12574e-07
-1.36601e-07
1.15409e-07
-1.10949e-07
1.14986e-07
-9.14944e-08
1.12668e-07
-7.53008e-08
1.04838e-07
-6.09236e-08
9.47784e-08
-4.88604e-08
8.46715e-08
-4.07748e-08
7.51813e-08
-3.52902e-08
6.61175e-08
-3.17261e-08
5.72002e-08
-2.96233e-08
4.9013e-08
-2.84408e-08
3.9927e-08
-2.7233e-08
3.36605e-08
-2.55657e-08
2.62677e-08
-2.29254e-08
2.24151e-08
-1.8051e-08
1.67155e-08
-1.19294e-08
2.2278e-08
-8.89408e-09
1.74406e-08
-9.12631e-09
1.0954e-08
-9.6948e-09
6.67083e-09
-9.34709e-09
6.50619e-10
-6.5592e-09
-1.68071e-10
-2.21795e-09
8.27417e-10
1.42347e-09
1.73096e-09
3.61674e-09
2.12608e-09
4.36526e-09
2.17533e-09
4.37593e-09
1.66494e-09
5.7976e-09
1.78868e-09
3.68276e-09
1.24539e-09
1.70572e-09
-5.95839e-10
-2.63983e-09
-1.61125e-09
-6.50071e-09
1.60185e-09
-3.47979e-09
1.41726e-09
-6.83638e-10
3.27307e-07
-3.79327e-07
-8.58003e-10
-3.20001e-07
2.00884e-08
-2.66996e-07
4.6193e-08
-2.18056e-07
6.45027e-08
-1.77154e-07
7.86729e-08
-1.43747e-07
8.41945e-08
-1.17344e-07
8.84706e-08
-9.65207e-08
8.6443e-08
-8.1494e-08
8.23158e-08
-7.12295e-08
7.52604e-08
-6.34516e-08
6.60886e-08
-5.62563e-08
5.60889e-08
-5.04929e-08
4.64979e-08
-4.57429e-08
3.84574e-08
-4.18601e-08
3.16493e-08
-3.88182e-08
2.65274e-08
-3.59747e-08
2.25272e-08
-3.26077e-08
1.92051e-08
-2.88901e-08
1.65199e-08
-2.50413e-08
1.37375e-08
-2.19008e-08
1.22701e-08
-2.0109e-08
7.77783e-09
-1.76264e-08
4.15074e-09
-1.50394e-08
4.04133e-09
-1.10918e-08
1.51505e-09
-7.1081e-09
2.78595e-09
-2.88287e-09
3.55536e-09
3.04086e-10
3.71498e-09
2.65969e-09
3.53964e-09
3.92425e-09
3.27818e-09
4.25108e-09
2.83448e-09
3.99837e-09
2.29955e-09
4.97745e-09
2.13987e-09
3.02157e-09
1.57023e-09
1.16804e-09
3.28337e-10
-7.833e-10
-4.72176e-09
7.91502e-10
-5.2631e-09
1.84689e-09
-1.93186e-09
6.07208e-10
2.285e-08
-1.93573e-07
6.19053e-08
-1.56146e-07
8.44791e-08
-1.37396e-07
8.61214e-08
-1.23465e-07
8.36375e-08
-1.10337e-07
7.87578e-08
-9.81297e-08
7.38613e-08
-8.70356e-08
6.80898e-08
-7.6771e-08
6.41941e-08
-6.70505e-08
5.98405e-08
-5.89306e-08
5.59379e-08
-5.27095e-08
5.19642e-08
-4.65692e-08
4.65656e-08
-3.9282e-08
4.10778e-08
-3.23043e-08
3.67026e-08
-2.75866e-08
3.29542e-08
-2.45973e-08
2.95024e-08
-2.21229e-08
2.62234e-08
-1.96228e-08
2.27551e-08
-1.76248e-08
1.91703e-08
-1.59159e-08
1.56733e-08
-1.46406e-08
1.20846e-08
-1.35544e-08
9.65587e-09
-1.40837e-08
6.12365e-09
-1.45942e-08
8.58457e-10
-1.44793e-08
-1.31706e-09
-1.22465e-08
-2.96897e-09
-8.51179e-09
-2.13229e-09
-4.20388e-09
-4.88511e-10
-7.43207e-10
7.88199e-10
1.32971e-09
1.19445e-09
2.25698e-09
1.19259e-09
2.55554e-09
9.78339e-10
3.30401e-09
1.08764e-09
1.72928e-09
7.91528e-10
4.01861e-10
9.30078e-11
-2.01343e-09
1.17232e-10
-5.77032e-09
1.87631e-09
-3.41658e-09
1.13992e-09
-1.51985e-10
3.95542e-07
-2.09012e-07
4.54504e-08
-1.76543e-07
4.30547e-08
-1.4885e-07
4.47009e-08
-1.23305e-07
4.90299e-08
-1.01346e-07
5.11908e-08
-8.35036e-08
5.14362e-08
-6.92263e-08
4.93714e-08
-5.84227e-08
4.65063e-08
-5.02919e-08
4.19052e-08
-4.43083e-08
3.71895e-08
-3.99432e-08
3.19798e-08
-3.71697e-08
2.64507e-08
-3.45861e-08
2.08376e-08
-3.22386e-08
1.55476e-08
-3.0681e-08
1.14662e-08
-2.98367e-08
8.17978e-09
-2.84214e-08
6.34136e-09
-2.64538e-08
5.00111e-09
-2.38052e-08
4.94119e-09
-2.09439e-08
4.25856e-09
-1.77768e-08
5.02436e-09
-1.4552e-08
3.81464e-09
-1.05404e-08
5.63279e-09
-6.82763e-09
6.53075e-09
-4.12673e-09
6.21739e-09
-2.51497e-09
5.47843e-09
-1.81437e-09
3.64704e-09
-1.50053e-09
1.84876e-09
-9.52015e-10
6.00448e-10
-2.9513e-10
-1.13519e-11
1.25486e-10
-2.89875e-10
3.93376e-10
-5.80988e-10
7.69238e-10
-7.0055e-10
5.56313e-10
-3.52568e-10
-2.71301e-10
-6.10648e-10
-3.98285e-10
-4.53465e-09
1.73167e-09
-4.26105e-09
9.03083e-10
-1.20824e-09
-5.69717e-11
-3.06943e-08
-1.56133e-07
2.78969e-08
-1.2044e-07
4.87305e-08
-9.87967e-08
5.47714e-08
-8.28542e-08
5.50985e-08
-6.9675e-08
5.30166e-08
-5.85296e-08
4.8546e-08
-4.93261e-08
4.34098e-08
-4.20029e-08
3.77374e-08
-3.6792e-08
3.17609e-08
-3.32847e-08
2.49332e-08
-3.08546e-08
1.88107e-08
-2.92118e-08
1.36995e-08
-2.80553e-08
9.57665e-09
-2.68248e-08
6.65969e-09
-2.53162e-08
4.31865e-09
-2.39864e-08
2.85341e-09
-2.256e-08
1.82819e-09
-2.10355e-08
1.60778e-09
-1.93055e-08
1.43272e-09
-1.74246e-08
1.68796e-09
-1.53361e-08
1.33343e-09
-1.3311e-08
1.47339e-09
-1.19506e-08
1.73214e-09
-1.15147e-08
-5.71718e-10
-1.13473e-08
-1.60141e-09
-1.06127e-08
-3.20874e-09
-9.17762e-09
-3.88735e-09
-6.94489e-09
-3.4471e-09
-4.73677e-09
-2.80635e-09
-3.03934e-09
-2.36175e-09
-1.77108e-09
-1.95073e-09
-7.58081e-10
-1.66694e-09
-4.16865e-10
-1.44995e-09
-3.4037e-10
-1.00581e-09
-8.97227e-10
-6.14846e-10
-2.53102e-09
1.35414e-09
-3.77656e-09
1.19008e-10
-2.33131e-09
-9.73897e-10
-4.69962e-10
2.94767e-07
-5.48482e-08
5.1731e-08
-5.39681e-08
4.03501e-08
-5.07149e-08
3.30291e-08
-4.56828e-08
2.82593e-08
-4.0594e-08
2.44154e-08
-3.6298e-08
2.09783e-08
-3.27668e-08
1.84255e-08
-3.00299e-08
1.58255e-08
-2.80903e-08
1.3486e-08
-2.64468e-08
1.12722e-08
-2.49771e-08
1.00754e-08
-2.32464e-08
8.87396e-09
-2.10973e-08
8.47794e-09
-1.89855e-08
8.34956e-09
-1.75394e-08
8.13124e-09
-1.56133e-08
7.11947e-09
-1.26758e-08
6.43301e-09
-1.07507e-08
5.73243e-09
-1.05129e-08
4.76105e-09
-1.04902e-08
4.19342e-09
-9.59989e-09
3.20754e-09
-8.41223e-09
3.16173e-09
-6.88052e-09
2.03989e-09
-5.13683e-09
2.64556e-09
-3.31029e-09
2.93841e-09
-2.10168e-09
2.5724e-09
-1.60933e-09
2.00927e-09
-1.77057e-09
5.51656e-10
-2.09278e-09
-8.2324e-10
-2.03526e-09
-1.46306e-09
-1.70389e-09
-1.58679e-09
-1.30338e-09
-1.53521e-09
-1.50671e-09
-1.92844e-09
-9.76055e-10
-1.48646e-09
-5.74236e-10
-1.10454e-09
5.18586e-10
-2.18914e-09
-4.53969e-10
-2.16343e-09
-1.33428e-09
-7.00872e-10
-1.73161e-10
4.76084e-08
-1.42306e-08
3.49514e-09
-1.70117e-08
-2.84734e-09
-1.83694e-08
-6.18604e-09
-1.89263e-08
-9.29301e-09
-1.9925e-08
-1.03565e-08
-2.15671e-08
-1.24952e-08
-2.41002e-08
-1.30197e-08
-2.66685e-08
-1.43367e-08
-2.91141e-08
-1.33232e-08
-3.07176e-08
-1.30406e-08
-3.17906e-08
-1.09827e-08
-3.1846e-08
-9.63597e-09
-3.12173e-08
-7.26745e-09
-2.97134e-08
-5.16826e-09
-2.77296e-08
-3.06885e-09
-2.45439e-08
-1.35136e-09
-2.06312e-08
-4.15506e-10
-1.72323e-08
5.14704e-10
-1.46086e-08
5.76795e-10
-1.2099e-08
7.24077e-10
-9.50962e-09
6.63108e-10
-7.17169e-09
1.25155e-10
-5.50591e-09
-4.1313e-11
-4.8616e-09
-6.60224e-10
-5.16993e-09
-2.34375e-09
-5.85961e-09
-3.48986e-09
-6.18246e-09
-4.60643e-09
-5.8602e-09
-4.70858e-09
-4.868e-09
-3.97399e-09
-3.65101e-09
-3.05315e-09
-2.53602e-09
-2.22624e-09
-1.55641e-09
-1.82556e-09
-1.64123e-09
-1.53623e-09
-7.41318e-10
-7.29921e-10
-4.64178e-10
-2.42059e-10
-6.14299e-10
-3.62494e-10
-9.02164e-10
-6.69073e-10
-3.50519e-10
-1.05936e-10
-4.55258e-16
)
;

boundaryField
{
    inlet
    {
        type            extrapolatedCalculated;
        value           nonuniform List<scalar> 
27
(
-1.29407e-08
-3.64031e-09
-5.16187e-09
-1.79757e-09
-3.70441e-09
-7.35303e-10
-2.59767e-09
-1.01866e-10
-2.02069e-09
2.50618e-10
-1.44755e-09
4.5073e-10
-1.18964e-09
5.21643e-10
-8.5423e-10
6.70653e-10
-7.00548e-10
7.17741e-10
-6.50415e-10
6.62412e-10
-6.83638e-10
6.07208e-10
-1.51985e-10
-5.69717e-11
-4.69962e-10
-1.73161e-10
-4.55258e-16
)
;
    }
    outlet
    {
        type            extrapolatedCalculated;
        value           nonuniform List<scalar> 
78
(
4.76084e-08
-1.42306e-08
3.49514e-09
-1.70117e-08
-2.84734e-09
-1.83694e-08
-6.18604e-09
-1.89263e-08
-9.29301e-09
-1.9925e-08
-1.03565e-08
-2.15671e-08
-1.24952e-08
-2.41002e-08
-1.30197e-08
-2.66685e-08
-1.43367e-08
-2.91141e-08
-1.33232e-08
-3.07176e-08
-1.30406e-08
-3.17906e-08
-1.09827e-08
-3.1846e-08
-9.63597e-09
-3.12173e-08
-7.26745e-09
-2.97134e-08
-5.16826e-09
-2.77296e-08
-3.06885e-09
-2.45439e-08
-1.35136e-09
-2.06312e-08
-4.15506e-10
-1.72323e-08
5.14704e-10
-1.46086e-08
5.76795e-10
-1.2099e-08
7.24077e-10
-9.50962e-09
6.63108e-10
-7.17169e-09
1.25155e-10
-5.50591e-09
-4.1313e-11
-4.8616e-09
-6.60224e-10
-5.16993e-09
-2.34375e-09
-5.85961e-09
-3.48986e-09
-6.18246e-09
-4.60643e-09
-5.8602e-09
-4.70858e-09
-4.868e-09
-3.97399e-09
-3.65101e-09
-3.05315e-09
-2.53602e-09
-2.22624e-09
-1.55641e-09
-1.82556e-09
-1.64123e-09
-1.53623e-09
-7.41318e-10
-7.29921e-10
-4.64178e-10
-2.42059e-10
-6.14299e-10
-3.62494e-10
-9.02164e-10
-6.69073e-10
-3.50519e-10
-1.05936e-10
-4.55258e-16
)
;
    }
    walls
    {
        type            extrapolatedCalculated;
        value           nonuniform List<scalar> 0();
    }
    frontAndBack
    {
        type            empty;
    }
    procBoundary7to3
    {
        type            processor;
        value           nonuniform List<scalar> 
16
(
-5.23767e-06
-2.28348e-06
-1.63458e-06
-1.57003e-06
-1.27221e-06
-1.12876e-06
-1.39823e-06
-1.56608e-06
-6.79693e-07
-6.79693e-07
-5.12505e-07
-2.70444e-07
-3.13592e-07
-2.09509e-07
-9.15359e-08
-2.69061e-08
)
;
    }
    procBoundary7to6
    {
        type            processor;
        value           nonuniform List<scalar> 
91
(
-6.06714e-09
-5.12787e-09
-5.12787e-09
-1.71397e-09
-1.71397e-09
4.87629e-09
4.87629e-09
6.80025e-09
5.55271e-09
5.55271e-09
3.05593e-09
1.03069e-08
1.03069e-08
1.06171e-08
6.70088e-09
1.76613e-08
1.76613e-08
3.53164e-08
-2.06514e-09
1.57532e-08
1.57532e-08
3.44533e-08
-3.07794e-09
-1.40918e-08
3.44476e-08
3.44476e-08
2.90081e-08
-2.89912e-08
3.99018e-08
-4.18107e-08
4.59983e-08
4.59983e-08
1.26608e-08
2.07381e-08
1.82279e-08
1.38317e-08
2.87023e-08
-7.45489e-09
4.56396e-08
4.56396e-08
1.08658e-07
-1.1578e-07
8.36212e-08
-5.3086e-08
6.69187e-08
-2.11349e-08
4.34219e-08
-1.64624e-09
2.57602e-08
1.05464e-08
2.20826e-08
1.20906e-09
1.20906e-09
-1.45679e-06
1.69684e-06
-1.09586e-06
1.82942e-06
-9.90172e-07
1.69573e-06
-8.95689e-07
1.49685e-06
-7.72624e-07
1.30994e-06
-6.87507e-07
1.18128e-06
-6.24847e-07
1.06918e-06
-5.75364e-07
9.55154e-07
-5.2159e-07
8.58242e-07
-4.86519e-07
7.77757e-07
-4.62064e-07
7.08841e-07
-4.33395e-07
6.05187e-07
-3.91534e-07
5.22308e-07
-3.48114e-07
4.33346e-07
-3.02437e-07
3.71339e-07
-2.60084e-07
2.94292e-07
-2.04307e-07
2.4281e-07
-1.63323e-07
2.85445e-07
-3.47122e-07
-3.47122e-07
)
;
    }
}


// ************************************************************************* //
