/*--------------------------------*- C++ -*----------------------------------*\
| =========                 |                                                 |
| \\      /  F ield         | OpenFOAM: The Open Source CFD Toolbox           |
|  \\    /   O peration     | Version:  2506                                  |
|   \\  /    A nd           | Website:  www.openfoam.com                      |
|    \\/     M anipulation  |                                                 |
\*---------------------------------------------------------------------------*/
FoamFile
{
    version     2.0;
    format      ascii;
    arch        "LSB;label=32;scalar=64";
    class       volScalarField;
    location    "500";
    object      nut;
}
// * * * * * * * * * * * * * * * * * * * * * * * * * * * * * * * * * * * * * //

dimensions      [0 2 -1 0 0 0 0];

internalField   nonuniform List<scalar> 
1340
(
6.10199e-06
6.10274e-06
6.10233e-06
6.08333e-06
6.10338e-06
6.10276e-06
6.08133e-06
6.08325e-06
6.10405e-06
6.10328e-06
6.07231e-06
6.07456e-06
6.08121e-06
6.08314e-06
6.10476e-06
6.10389e-06
6.07744e-06
6.07309e-06
6.07228e-06
6.07449e-06
6.0811e-06
6.08301e-06
6.1055e-06
6.10459e-06
6.09024e-06
6.08641e-06
6.08221e-06
6.07784e-06
6.07333e-06
6.07225e-06
6.07442e-06
6.08099e-06
6.08286e-06
6.10627e-06
6.10539e-06
6.09963e-06
6.09674e-06
6.0941e-06
6.09085e-06
6.08698e-06
6.0827e-06
6.07828e-06
6.0736e-06
6.07224e-06
6.07433e-06
6.08087e-06
6.08268e-06
6.10707e-06
6.10629e-06
6.11213e-06
6.11002e-06
6.10728e-06
6.10389e-06
6.10039e-06
6.09744e-06
6.09477e-06
6.09149e-06
6.08759e-06
6.08323e-06
6.07874e-06
6.07391e-06
6.07224e-06
6.07423e-06
6.08075e-06
6.08246e-06
6.10788e-06
6.10729e-06
6.11858e-06
6.11782e-06
6.1169e-06
6.11583e-06
6.11457e-06
6.11301e-06
6.11092e-06
6.10818e-06
6.10477e-06
6.10119e-06
6.09818e-06
6.09548e-06
6.09218e-06
6.08824e-06
6.0838e-06
6.07923e-06
6.07425e-06
6.07227e-06
6.07412e-06
6.08063e-06
6.08222e-06
6.10871e-06
6.10839e-06
6.12113e-06
6.12111e-06
6.12108e-06
6.121e-06
6.12082e-06
6.12052e-06
6.12009e-06
6.1195e-06
6.11874e-06
6.11782e-06
6.11674e-06
6.11549e-06
6.11393e-06
6.11186e-06
6.10913e-06
6.10569e-06
6.10205e-06
6.09897e-06
6.09623e-06
6.09291e-06
6.08893e-06
6.08441e-06
6.07976e-06
6.07463e-06
6.07232e-06
6.07401e-06
6.0805e-06
6.08195e-06
6.10955e-06
6.10959e-06
6.12267e-06
6.12345e-06
6.12326e-06
6.12302e-06
6.1228e-06
6.12252e-06
6.1223e-06
6.12218e-06
6.12212e-06
6.1221e-06
6.12208e-06
6.12206e-06
6.12203e-06
6.12201e-06
6.12198e-06
6.12191e-06
6.12175e-06
6.12146e-06
6.12104e-06
6.12046e-06
6.11971e-06
6.11879e-06
6.11771e-06
6.11645e-06
6.1149e-06
6.11285e-06
6.11013e-06
6.10667e-06
6.10296e-06
6.09981e-06
6.09703e-06
6.09369e-06
6.08966e-06
6.08506e-06
6.08033e-06
6.07505e-06
6.0724e-06
6.07388e-06
6.08036e-06
6.08164e-06
6.11039e-06
6.11089e-06
6.71736e-10
3.09533e-12
0
0
0.000146267
0.000467616
0.016114
0.0551947
0.112664
0.176087
0.23551
0.285618
0.324075
0.350415
0.365813
0.372618
0.373749
0.362752
0.330895
0.272103
0.188974
0.0998838
0.0338936
0.00195437
0.000540742
0
0
0
1.86155e-09
4.40462e-07
6.26331e-06
8.04543e-06
6.46416e-06
5.90795e-06
6.0332e-06
6.14175e-06
6.14191e-06
6.1281e-06
6.12593e-06
6.12557e-06
6.12416e-06
6.12341e-06
6.12337e-06
6.12336e-06
6.12322e-06
6.12309e-06
6.12304e-06
6.12303e-06
6.12301e-06
6.12298e-06
6.12296e-06
6.12293e-06
6.12287e-06
6.12272e-06
6.12245e-06
6.12204e-06
6.12147e-06
6.12072e-06
6.1198e-06
6.11872e-06
6.11746e-06
6.11593e-06
6.11389e-06
6.11119e-06
6.10772e-06
6.10393e-06
6.1007e-06
6.09788e-06
6.09452e-06
6.09045e-06
6.08577e-06
6.08094e-06
6.07552e-06
6.07251e-06
6.07375e-06
6.08021e-06
6.08131e-06
6.11122e-06
6.11229e-06
6.09688e-06
3.42597e-09
1.69249e-11
0
0
1.64255e-09
0.00209094
0.00821682
0.036684
0.0875599
0.150378
0.213178
0.26828
0.31193
0.342839
0.361581
0.370722
0.372994
0.36436
0.336088
0.281254
0.201228
0.111943
0.0398324
0.0035526
0.00099208
0
0
0
3.1027e-10
6.04831e-08
5.11593e-06
8.73321e-06
6.97364e-06
5.9835e-06
5.99283e-06
6.12087e-06
6.13259e-06
6.11862e-06
6.12142e-06
6.12679e-06
6.12671e-06
6.12486e-06
6.12407e-06
6.12408e-06
6.12413e-06
6.12408e-06
6.12403e-06
6.12401e-06
6.12398e-06
6.12395e-06
6.12393e-06
6.12387e-06
6.12374e-06
6.12348e-06
6.12309e-06
6.12253e-06
6.12179e-06
6.12088e-06
6.11979e-06
6.11853e-06
6.117e-06
6.11499e-06
6.11231e-06
6.10883e-06
6.10497e-06
6.10165e-06
6.09878e-06
6.0954e-06
6.09129e-06
6.08652e-06
6.08159e-06
6.07603e-06
6.07266e-06
6.07362e-06
6.08006e-06
6.08097e-06
6.11204e-06
6.11378e-06
7.93633e-06
6.17792e-06
5.81523e-08
2.75928e-10
0
0
0
0.000622985
0.00228856
0.0211213
0.0633269
0.122978
0.187861
0.247788
0.297033
0.333188
0.356237
0.368288
0.371875
0.365531
0.340758
0.289973
0.213236
0.124016
0.0475974
0.00671659
0.00180951
0
0
0
1.59104e-12
5.86891e-11
2.77463e-06
8.24477e-06
7.3018e-06
6.07796e-06
5.99581e-06
6.16688e-06
6.18337e-06
6.13367e-06
6.11466e-06
6.12071e-06
6.12664e-06
6.12689e-06
6.12557e-06
6.12502e-06
6.12503e-06
6.12509e-06
6.12507e-06
6.12503e-06
6.125e-06
6.12497e-06
6.12492e-06
6.1248e-06
6.12457e-06
6.12419e-06
6.12364e-06
6.12292e-06
6.12201e-06
6.12092e-06
6.11965e-06
6.11813e-06
6.11615e-06
6.1135e-06
6.11e-06
6.10608e-06
6.10267e-06
6.09974e-06
6.09633e-06
6.09218e-06
6.08733e-06
6.0823e-06
6.0766e-06
6.07286e-06
6.07348e-06
6.07989e-06
6.08063e-06
6.11283e-06
6.11537e-06
6.23308e-06
7.72246e-06
6.18237e-06
4.61666e-07
2.15535e-09
0
0
0
8.78253e-06
4.91006e-05
0.0107534
0.0420693
0.0955819
0.160489
0.224652
0.279761
0.321737
0.349651
0.364946
0.36995
0.365757
0.344423
0.297761
0.224282
0.13521
0.0555103
0.0102176
0.00269864
0
0
0
8.35921e-17
7.91791e-09
1.93382e-06
7.90363e-06
7.6947e-06
6.00464e-06
5.67765e-06
5.98225e-06
6.18131e-06
6.18062e-06
6.13512e-06
6.11897e-06
6.12258e-06
6.12673e-06
6.12713e-06
6.12638e-06
6.12608e-06
6.12611e-06
6.12615e-06
6.12611e-06
6.12608e-06
6.12603e-06
6.12593e-06
6.12571e-06
6.12535e-06
6.12482e-06
6.1241e-06
6.12319e-06
6.1221e-06
6.12084e-06
6.11933e-06
6.11737e-06
6.11474e-06
6.11125e-06
6.10726e-06
6.10375e-06
6.10076e-06
6.09732e-06
6.09314e-06
6.0882e-06
6.08306e-06
6.07721e-06
6.0731e-06
6.07335e-06
6.07971e-06
6.08027e-06
6.11357e-06
6.11701e-06
6.01805e-06
6.21381e-06
7.42076e-06
6.42882e-06
1.83024e-06
8.39634e-09
4.38052e-16
0
0
1.94154e-12
0.00097184
0.0036425
0.024432
0.0683012
0.129658
0.196607
0.258185
0.307622
0.342151
0.362036
0.369473
0.367091
0.3489
0.306459
0.236536
0.148136
0.0650874
0.0135426
0.00395201
0.000114458
0
0
0
3.101e-09
6.99202e-07
6.87539e-06
9.73132e-06
7.60326e-06
6.04589e-06
5.79173e-06
6.00581e-06
6.15313e-06
6.16345e-06
6.13562e-06
6.12365e-06
6.12509e-06
6.12759e-06
6.12785e-06
6.1274e-06
6.12723e-06
6.12724e-06
6.12724e-06
6.1272e-06
6.1271e-06
6.1269e-06
6.12656e-06
6.12605e-06
6.12535e-06
6.12445e-06
6.12336e-06
6.12209e-06
6.12058e-06
6.11865e-06
6.11606e-06
6.11258e-06
6.10852e-06
6.10491e-06
6.10185e-06
6.09838e-06
6.09416e-06
6.08914e-06
6.08388e-06
6.07789e-06
6.07341e-06
6.07323e-06
6.07951e-06
6.07992e-06
6.11431e-06
6.11879e-06
6.13539e-06
6.06399e-06
6.19513e-06
6.76306e-06
6.64123e-06
4.5709e-06
1.75327e-07
8.45752e-10
2.29349e-18
0
0
0.000158506
0.000575843
0.00992353
0.0352143
0.0805921
0.14052
0.205016
0.264251
0.311544
0.343842
0.361344
0.364861
0.354173
0.322601
0.265221
0.186305
0.102708
0.0405633
0.00590208
0.00197085
1.56514e-05
0
0
5.92775e-13
1.98112e-09
2.66418e-07
4.53639e-06
8.41385e-06
7.637e-06
6.28217e-06
5.88048e-06
5.99755e-06
6.13274e-06
6.15586e-06
6.13567e-06
6.12548e-06
6.12673e-06
6.1289e-06
6.12911e-06
6.12876e-06
6.12863e-06
6.12863e-06
6.12859e-06
6.12842e-06
6.1281e-06
6.12761e-06
6.12693e-06
6.12604e-06
6.12494e-06
6.12366e-06
6.12216e-06
6.12025e-06
6.1177e-06
6.11423e-06
6.1101e-06
6.10636e-06
6.10319e-06
6.09967e-06
6.09541e-06
6.09028e-06
6.08487e-06
6.07872e-06
6.07381e-06
6.07309e-06
6.0793e-06
6.07956e-06
6.11496e-06
6.12068e-06
6.13876e-06
6.13512e-06
6.07951e-06
6.13019e-06
6.39013e-06
7.24141e-06
6.07565e-06
3.08082e-06
1.56078e-09
9.79209e-12
0
0
1.06331e-09
4.71275e-05
0.00231909
0.0085874
0.0315982
0.0738267
0.131391
0.195286
0.255495
0.30448
0.338421
0.356342
0.358316
0.342489
0.30291
0.238036
0.158251
0.0823177
0.0297249
0.00260527
0.00094759
2.86498e-07
0
0
1.3002e-13
2.0349e-09
3.75847e-07
5.13835e-06
8.5177e-06
7.38727e-06
6.13912e-06
5.8917e-06
6.05125e-06
6.15553e-06
6.15359e-06
6.13233e-06
6.12721e-06
6.12973e-06
6.13107e-06
6.13087e-06
6.13056e-06
6.13042e-06
6.13026e-06
6.12998e-06
6.12953e-06
6.12886e-06
6.12798e-06
6.12688e-06
6.12558e-06
6.12406e-06
6.12217e-06
6.11966e-06
6.11622e-06
6.112e-06
6.1081e-06
6.10479e-06
6.10119e-06
6.09687e-06
6.09163e-06
6.08604e-06
6.0797e-06
6.07433e-06
6.07297e-06
6.07906e-06
6.07922e-06
6.11561e-06
6.12269e-06
6.12739e-06
6.1327e-06
6.12703e-06
6.10581e-06
6.09554e-06
6.28371e-06
6.77838e-06
7.27058e-06
5.28271e-06
9.61113e-07
4.52471e-09
1.59413e-16
0
0
0
3.82091e-05
0.00202581
0.0074223
0.0294699
0.0707349
0.127818
0.191955
0.252953
0.302743
0.336809
0.352896
0.350751
0.326839
0.27728
0.206165
0.127502
0.0595506
0.0163968
0.000835528
0.000336371
0
0
0
2.27573e-13
6.44116e-09
1.40709e-06
7.08099e-06
8.27047e-06
6.68022e-06
5.9067e-06
5.94478e-06
6.1162e-06
6.16148e-06
6.142e-06
6.12944e-06
6.12993e-06
6.13204e-06
6.1325e-06
6.13242e-06
6.1323e-06
6.13202e-06
6.13155e-06
6.13089e-06
6.13002e-06
6.12892e-06
6.1276e-06
6.12607e-06
6.12419e-06
6.12172e-06
6.11831e-06
6.11404e-06
6.10998e-06
6.10651e-06
6.10282e-06
6.09844e-06
6.09309e-06
6.08731e-06
6.08078e-06
6.07496e-06
6.0729e-06
6.0788e-06
6.07888e-06
6.11617e-06
6.12471e-06
6.12536e-06
6.12787e-06
6.12682e-06
6.11744e-06
6.0899e-06
6.16666e-06
6.4164e-06
7.20091e-06
6.79014e-06
4.21766e-06
8.60156e-08
4.1788e-10
0
0
0
0
3.03083e-05
0.00201268
0.00740002
0.0295916
0.0712371
0.128959
0.193893
0.255425
0.304719
0.336661
0.347865
0.33847
0.304601
0.24581
0.170576
0.0946961
0.0381791
0.00666782
0.00196894
1.10708e-05
0
0
0
6.03293e-10
1.10524e-07
4.46282e-06
8.62496e-06
7.54363e-06
6.16478e-06
5.89989e-06
6.06199e-06
6.15861e-06
6.15438e-06
6.13734e-06
6.13391e-06
6.13466e-06
6.1344e-06
6.13398e-06
6.13389e-06
6.13365e-06
6.13306e-06
6.13219e-06
6.13107e-06
6.12974e-06
6.12819e-06
6.12631e-06
6.12388e-06
6.12053e-06
6.11622e-06
6.11202e-06
6.10837e-06
6.10456e-06
6.10012e-06
6.09467e-06
6.0887e-06
6.08195e-06
6.07571e-06
6.07288e-06
6.07851e-06
6.07851e-06
6.1166e-06
6.12673e-06
6.12386e-06
6.1245e-06
6.12547e-06
6.12757e-06
6.11855e-06
6.10576e-06
6.08394e-06
6.25358e-06
6.67094e-06
7.33665e-06
6.03501e-06
1.58028e-06
7.47667e-09
2.56832e-16
0
0
0
0
3.46127e-05
0.00225389
0.00837578
0.0319622
0.0754819
0.134992
0.200994
0.262158
0.308918
0.335918
0.340343
0.321258
0.276307
0.208645
0.131412
0.0628951
0.0188875
0.00209576
0.000615125
0
0
0
8.30409e-14
6.55433e-09
1.45909e-06
7.51913e-06
8.1733e-06
6.55222e-06
5.9142e-06
5.99594e-06
6.12916e-06
6.14756e-06
6.13393e-06
6.13348e-06
6.13762e-06
6.13803e-06
6.1366e-06
6.13567e-06
6.13515e-06
6.13443e-06
6.13335e-06
6.132e-06
6.13042e-06
6.12854e-06
6.12616e-06
6.12287e-06
6.11855e-06
6.11422e-06
6.11038e-06
6.10642e-06
6.10191e-06
6.09636e-06
6.0902e-06
6.08324e-06
6.07658e-06
6.07293e-06
6.07819e-06
6.07813e-06
6.11691e-06
6.12873e-06
6.12375e-06
6.12397e-06
6.12422e-06
6.12511e-06
6.12606e-06
6.12431e-06
6.11055e-06
6.08538e-06
6.12535e-06
6.34452e-06
7.0711e-06
6.97439e-06
4.53134e-06
1.10173e-07
5.45153e-10
6.32395e-20
0
0
0
0
0.000108109
0.000173871
0.0101928
0.0366224
0.0835997
0.145889
0.21274
0.271992
0.314087
0.333371
0.328504
0.297509
0.240534
0.166104
0.0913508
0.0359281
0.00561448
0.00164078
0
0
0
0
1.7534e-09
3.93499e-07
5.6555e-06
8.60307e-06
7.09155e-06
6.05726e-06
6.00961e-06
6.16269e-06
6.18164e-06
6.14212e-06
6.12748e-06
6.13343e-06
6.13873e-06
6.13907e-06
6.13784e-06
6.13676e-06
6.1357e-06
6.13439e-06
6.1328e-06
6.13091e-06
6.12856e-06
6.12535e-06
6.12105e-06
6.11661e-06
6.11258e-06
6.10844e-06
6.10385e-06
6.0982e-06
6.09186e-06
6.08466e-06
6.07761e-06
6.07309e-06
6.07785e-06
6.0777e-06
6.11703e-06
6.1307e-06
6.12409e-06
6.12428e-06
6.12447e-06
6.12463e-06
6.1252e-06
6.1259e-06
6.12698e-06
6.11802e-06
6.10193e-06
6.07153e-06
6.20348e-06
6.56187e-06
7.40726e-06
5.74383e-06
2.39313e-06
2.18787e-11
3.11736e-13
0
0
0
0
3.275e-11
0.000162494
0.000276592
0.0132499
0.0446581
0.0963762
0.161815
0.228557
0.283697
0.318287
0.3272
0.310097
0.2653
0.197227
0.120551
0.0545787
0.0145865
0.00397002
3.62052e-05
0
0
0
1.16628e-10
1.88108e-08
3.15094e-06
8.23646e-06
7.40072e-06
5.92868e-06
5.7523e-06
6.05609e-06
6.20907e-06
6.18831e-06
6.14677e-06
6.13545e-06
6.1381e-06
6.14002e-06
6.13952e-06
6.13826e-06
6.13685e-06
6.13524e-06
6.13335e-06
6.13103e-06
6.12789e-06
6.12364e-06
6.11913e-06
6.1149e-06
6.11055e-06
6.10586e-06
6.10013e-06
6.09361e-06
6.08617e-06
6.07872e-06
6.07334e-06
6.07754e-06
6.07728e-06
6.11711e-06
6.13259e-06
6.12469e-06
6.12486e-06
6.12504e-06
6.12521e-06
6.12541e-06
6.12563e-06
6.12656e-06
6.12728e-06
6.12605e-06
6.11133e-06
6.08696e-06
6.09273e-06
6.35361e-06
6.92873e-06
7.29565e-06
4.46253e-06
6.29723e-07
2.9816e-09
7.38152e-16
0
0
0
0
2.23534e-10
0.000600544
0.00194758
0.0186793
0.0564639
0.114167
0.182318
0.246889
0.294777
0.317933
0.313732
0.280874
0.221301
0.145999
0.0740384
0.025054
0.00295491
0.000720663
0
0
0
1.8147e-14
6.52796e-09
1.5397e-06
9.09492e-06
9.7216e-06
6.97314e-06
5.7744e-06
5.8145e-06
6.07177e-06
6.16814e-06
6.16103e-06
6.14524e-06
6.14135e-06
6.14152e-06
6.14104e-06
6.13972e-06
6.13806e-06
6.13614e-06
6.13384e-06
6.13079e-06
6.12661e-06
6.12207e-06
6.11766e-06
6.11307e-06
6.10823e-06
6.1024e-06
6.09572e-06
6.08799e-06
6.08021e-06
6.07385e-06
6.0771e-06
6.07675e-06
6.11656e-06
6.13454e-06
6.12516e-06
6.12534e-06
6.12552e-06
6.12572e-06
6.12592e-06
6.1261e-06
6.12631e-06
6.12687e-06
6.12784e-06
6.12879e-06
6.12193e-06
6.10193e-06
6.07183e-06
6.19619e-06
6.57982e-06
7.41644e-06
6.5431e-06
3.39749e-06
1.9894e-07
9.87211e-10
6.79123e-16
0
0
0
0
6.27559e-07
0.00153153
0.00564871
0.0284749
0.0743063
0.139093
0.210455
0.272568
0.3126
0.322597
0.301587
0.249459
0.173993
0.0944352
0.0304863
0.00155981
0.00142901
0.00045129
0.000138464
2.20755e-06
0
1.96321e-12
1.14952e-08
2.2974e-06
8.59964e-06
8.35482e-06
6.6897e-06
6.06187e-06
6.05009e-06
6.12656e-06
6.15036e-06
6.14776e-06
6.14424e-06
6.14293e-06
6.14181e-06
6.14023e-06
6.1383e-06
6.136e-06
6.13303e-06
6.12893e-06
6.12439e-06
6.11982e-06
6.11501e-06
6.11002e-06
6.10415e-06
6.09729e-06
6.08942e-06
6.08118e-06
6.07426e-06
6.07703e-06
6.07642e-06
6.11716e-06
6.13597e-06
6.12569e-06
6.12591e-06
6.12614e-06
6.12638e-06
6.12663e-06
6.12689e-06
6.12714e-06
6.12742e-06
6.12773e-06
6.12871e-06
6.12974e-06
6.13045e-06
6.11576e-06
6.09532e-06
6.07921e-06
6.30966e-06
6.84485e-06
7.41317e-06
6.31032e-06
3.26366e-06
1.46069e-07
5.5839e-10
0
0
0
0
0
3.09924e-05
0.00173176
0.00594187
0.0276422
0.0690099
0.125971
0.188265
0.242908
0.278907
0.288043
0.267678
0.219455
0.153476
0.0897006
0.0436376
0.0175839
0.00562512
0.00106559
0.000235732
0
0
2.28423e-09
4.698e-07
3.83851e-06
6.32605e-06
6.51091e-06
6.24298e-06
6.14143e-06
6.13992e-06
6.14847e-06
6.14968e-06
6.14834e-06
6.14689e-06
6.14528e-06
6.14334e-06
6.14102e-06
6.13813e-06
6.1342e-06
6.12975e-06
6.12502e-06
6.11978e-06
6.11443e-06
6.10828e-06
6.10127e-06
6.09282e-06
6.08429e-06
6.07561e-06
6.077e-06
6.07569e-06
6.11447e-06
6.13951e-06
)
;

boundaryField
{
    inlet
    {
        type            freestream;
        freestreamValue uniform 1e-05;
        value           nonuniform List<scalar> 
27
(
6.10199e-06
6.10233e-06
6.10276e-06
6.10328e-06
6.10389e-06
6.10459e-06
6.10539e-06
6.10629e-06
6.10729e-06
6.10839e-06
6.10959e-06
6.11089e-06
6.11229e-06
6.11378e-06
6.11537e-06
6.11701e-06
6.11879e-06
6.12068e-06
6.12269e-06
6.12471e-06
6.12673e-06
6.12873e-06
6.1307e-06
6.13259e-06
6.13454e-06
6.13597e-06
6.13951e-06
)
;
    }
    outlet
    {
        type            freestream;
        freestreamValue uniform 1e-05;
        value           nonuniform List<scalar> 
78
(
6.12569e-06
6.12591e-06
6.12614e-06
6.12638e-06
6.12663e-06
6.12689e-06
6.12714e-06
6.12742e-06
6.12773e-06
6.12871e-06
6.12974e-06
6.13045e-06
6.11576e-06
6.09532e-06
6.07921e-06
6.30966e-06
6.84485e-06
7.41317e-06
6.31032e-06
3.26366e-06
1.46069e-07
5.5839e-10
0
0
0
0
0
3.09924e-05
0.00173176
0.00594187
0.0276422
0.0690099
0.125971
0.188265
0.242908
0.278907
0.288043
0.267678
0.219455
0.153476
0.0897006
0.0436376
0.0175839
0.00562512
0.00106559
0.000235732
0
0
2.28423e-09
4.698e-07
3.83851e-06
6.32605e-06
6.51091e-06
6.24298e-06
6.14143e-06
6.13992e-06
6.14847e-06
6.14968e-06
6.14834e-06
6.14689e-06
6.14528e-06
6.14334e-06
6.14102e-06
6.13813e-06
6.1342e-06
6.12975e-06
6.12502e-06
6.11978e-06
6.11443e-06
6.10828e-06
6.10127e-06
6.09282e-06
6.08429e-06
6.07561e-06
6.077e-06
6.07569e-06
6.11447e-06
6.13951e-06
)
;
    }
    walls
    {
        type            nutUSpaldingWallFunction;
        value           nonuniform List<scalar> 0();
    }
    frontAndBack
    {
        type            empty;
    }
    procBoundary7to3
    {
        type            processor;
        value           nonuniform List<scalar> 
16
(
5.29108e-06
8.06757e-06
6.31503e-06
6.02191e-06
6.13121e-06
6.14564e-06
6.13117e-06
6.12614e-06
6.12454e-06
6.12454e-06
6.12368e-06
6.12354e-06
6.12391e-06
6.12453e-06
6.12499e-06
6.12548e-06
)
;
    }
    procBoundary7to6
    {
        type            processor;
        value           nonuniform List<scalar> 
91
(
6.10177e-06
6.10214e-06
6.10214e-06
6.08339e-06
6.08339e-06
6.08144e-06
6.08144e-06
6.07236e-06
6.07461e-06
6.07461e-06
6.07706e-06
6.07287e-06
6.07287e-06
6.08966e-06
6.08588e-06
6.08175e-06
6.08175e-06
6.09892e-06
6.09609e-06
6.09346e-06
6.09346e-06
6.1113e-06
6.10917e-06
6.10642e-06
6.10307e-06
6.10307e-06
6.11772e-06
6.11695e-06
6.11603e-06
6.11496e-06
6.11371e-06
6.11371e-06
6.12027e-06
6.12025e-06
6.12022e-06
6.12013e-06
6.11994e-06
6.11963e-06
6.11918e-06
6.11918e-06
6.1236e-06
6.123e-06
6.12241e-06
6.122e-06
6.1217e-06
6.12149e-06
6.12135e-06
6.12127e-06
6.12122e-06
6.12119e-06
6.12118e-06
6.12116e-06
6.12116e-06
3.48362e-18
0
2.85456e-11
0.00121849
0.00475906
0.0288122
0.07632
0.137215
0.199169
0.254605
0.299951
0.333765
0.356179
0.368979
0.374735
0.374524
0.360826
0.325199
0.262508
0.176657
0.0877697
0.02602
0.00282241
0.000696522
0
0
0
4.32643e-09
1.05634e-06
7.01976e-06
7.67298e-06
6.303e-06
5.96447e-06
6.08796e-06
6.14846e-06
6.13461e-06
6.12301e-06
6.12301e-06
)
;
    }
}


// ************************************************************************* //
