/*--------------------------------*- C++ -*----------------------------------*\
| =========                 |                                                 |
| \\      /  F ield         | OpenFOAM: The Open Source CFD Toolbox           |
|  \\    /   O peration     | Version:  2506                                  |
|   \\  /    A nd           | Website:  www.openfoam.com                      |
|    \\/     M anipulation  |                                                 |
\*---------------------------------------------------------------------------*/
FoamFile
{
    version     2.0;
    format      ascii;
    arch        "LSB;label=32;scalar=64";
    class       volScalarField;
    location    "500";
    object      nuTilda;
}
// * * * * * * * * * * * * * * * * * * * * * * * * * * * * * * * * * * * * * //

dimensions      [0 2 -1 0 0 0 0];

internalField   nonuniform List<scalar> 
1340
(
4.00638e-05
4.00652e-05
4.00644e-05
4.00292e-05
4.00664e-05
4.00652e-05
4.00255e-05
4.0029e-05
4.00676e-05
4.00662e-05
4.00087e-05
4.00129e-05
4.00252e-05
4.00288e-05
4.00689e-05
4.00673e-05
4.00182e-05
4.00101e-05
4.00086e-05
4.00128e-05
4.0025e-05
4.00286e-05
4.00703e-05
4.00686e-05
4.0042e-05
4.00349e-05
4.00271e-05
4.0019e-05
4.00106e-05
4.00086e-05
4.00126e-05
4.00248e-05
4.00283e-05
4.00717e-05
4.00701e-05
4.00594e-05
4.00541e-05
4.00492e-05
4.00431e-05
4.0036e-05
4.0028e-05
4.00198e-05
4.00111e-05
4.00086e-05
4.00125e-05
4.00246e-05
4.0028e-05
4.00732e-05
4.00718e-05
4.00826e-05
4.00787e-05
4.00736e-05
4.00673e-05
4.00608e-05
4.00554e-05
4.00504e-05
4.00443e-05
4.00371e-05
4.0029e-05
4.00206e-05
4.00117e-05
4.00086e-05
4.00123e-05
4.00244e-05
4.00276e-05
4.00747e-05
4.00736e-05
4.00945e-05
4.00931e-05
4.00914e-05
4.00894e-05
4.00871e-05
4.00842e-05
4.00803e-05
4.00752e-05
4.00689e-05
4.00623e-05
4.00567e-05
4.00517e-05
4.00456e-05
4.00383e-05
4.003e-05
4.00216e-05
4.00123e-05
4.00086e-05
4.00121e-05
4.00242e-05
4.00271e-05
4.00762e-05
4.00756e-05
4.00992e-05
4.00992e-05
4.00991e-05
4.0099e-05
4.00986e-05
4.00981e-05
4.00973e-05
4.00962e-05
4.00948e-05
4.00931e-05
4.00911e-05
4.00888e-05
4.00859e-05
4.00821e-05
4.0077e-05
4.00706e-05
4.00639e-05
4.00582e-05
4.00531e-05
4.0047e-05
4.00396e-05
4.00312e-05
4.00225e-05
4.0013e-05
4.00087e-05
4.00119e-05
4.00239e-05
4.00266e-05
4.00778e-05
4.00779e-05
4.01021e-05
4.01035e-05
4.01032e-05
4.01027e-05
4.01023e-05
4.01018e-05
4.01014e-05
4.01012e-05
4.01011e-05
4.0101e-05
4.0101e-05
4.01009e-05
4.01009e-05
4.01008e-05
4.01008e-05
4.01007e-05
4.01004e-05
4.00998e-05
4.0099e-05
4.0098e-05
4.00966e-05
4.00949e-05
4.00929e-05
4.00906e-05
4.00877e-05
4.00839e-05
4.00789e-05
4.00725e-05
4.00656e-05
4.00597e-05
4.00546e-05
4.00484e-05
4.00409e-05
4.00324e-05
4.00236e-05
4.00138e-05
4.00089e-05
4.00116e-05
4.00237e-05
4.0026e-05
4.00794e-05
4.00803e-05
3.93788e-06
1.02594e-06
0
0
0.000159233
0.000469236
0.016114
0.0551947
0.112664
0.176087
0.23551
0.285618
0.324075
0.350415
0.365813
0.372618
0.373749
0.362752
0.330895
0.272103
0.188974
0.0998838
0.0338936
0.00195446
0.000541958
0
0
0
5.08104e-06
2.00371e-05
4.03603e-05
4.33624e-05
4.07229e-05
3.97006e-05
3.99359e-05
4.01373e-05
4.01376e-05
4.01121e-05
4.01081e-05
4.01074e-05
4.01048e-05
4.01034e-05
4.01034e-05
4.01033e-05
4.01031e-05
4.01029e-05
4.01028e-05
4.01027e-05
4.01027e-05
4.01026e-05
4.01026e-05
4.01025e-05
4.01024e-05
4.01022e-05
4.01017e-05
4.01009e-05
4.00998e-05
4.00985e-05
4.00968e-05
4.00948e-05
4.00924e-05
4.00896e-05
4.00858e-05
4.00808e-05
4.00744e-05
4.00674e-05
4.00614e-05
4.00562e-05
4.00499e-05
4.00424e-05
4.00337e-05
4.00247e-05
4.00147e-05
4.00091e-05
4.00114e-05
4.00234e-05
4.00254e-05
4.00809e-05
4.00829e-05
4.00543e-05
5.91838e-06
1.56883e-06
0
0
4.92447e-06
0.00209102
0.00821682
0.036684
0.0875599
0.150378
0.213178
0.26828
0.31193
0.342839
0.361581
0.370722
0.372994
0.36436
0.336088
0.281254
0.201228
0.111943
0.0398324
0.00355263
0.000992443
0
0
0
3.2463e-06
1.21449e-05
3.81342e-05
4.44129e-05
4.16125e-05
3.98429e-05
3.98603e-05
4.00987e-05
4.01204e-05
4.00946e-05
4.00998e-05
4.01097e-05
4.01095e-05
4.01061e-05
4.01047e-05
4.01047e-05
4.01048e-05
4.01047e-05
4.01046e-05
4.01045e-05
4.01045e-05
4.01044e-05
4.01044e-05
4.01043e-05
4.0104e-05
4.01036e-05
4.01028e-05
4.01018e-05
4.01004e-05
4.00987e-05
4.00967e-05
4.00944e-05
4.00916e-05
4.00879e-05
4.00829e-05
4.00764e-05
4.00693e-05
4.00632e-05
4.00578e-05
4.00516e-05
4.00439e-05
4.00351e-05
4.0026e-05
4.00156e-05
4.00094e-05
4.00111e-05
4.00231e-05
4.00248e-05
4.00824e-05
4.00856e-05
4.3191e-05
4.02039e-05
1.20257e-05
3.15248e-06
0
0
0
0.000623903
0.00228863
0.0211213
0.0633269
0.122978
0.187861
0.247788
0.297033
0.333188
0.356237
0.368288
0.371875
0.365531
0.340758
0.289973
0.213236
0.124016
0.0475974
0.0067166
0.00180962
0
0
0
8.68689e-07
2.14085e-06
3.2285e-05
4.36722e-05
4.21646e-05
4.00192e-05
3.98659e-05
4.01836e-05
4.0214e-05
4.01224e-05
4.00873e-05
4.00984e-05
4.01094e-05
4.01099e-05
4.01074e-05
4.01064e-05
4.01064e-05
4.01065e-05
4.01065e-05
4.01064e-05
4.01064e-05
4.01063e-05
4.01062e-05
4.0106e-05
4.01056e-05
4.01049e-05
4.01039e-05
4.01025e-05
4.01008e-05
4.00988e-05
4.00965e-05
4.00937e-05
4.009e-05
4.00851e-05
4.00786e-05
4.00714e-05
4.0065e-05
4.00596e-05
4.00533e-05
4.00456e-05
4.00366e-05
4.00273e-05
4.00167e-05
4.00097e-05
4.00109e-05
4.00228e-05
4.00242e-05
4.00839e-05
4.00886e-05
4.03051e-05
4.28507e-05
4.02121e-05
2.0278e-05
5.27069e-06
0
0
0
4.44863e-05
8.1529e-05
0.0107534
0.0420693
0.0955819
0.160489
0.224652
0.279761
0.321737
0.349651
0.364946
0.36995
0.365757
0.344423
0.297761
0.224282
0.13521
0.0555103
0.0102176
0.00269869
0
0
0
7.3958e-08
7.29817e-06
2.93394e-05
4.31393e-05
4.28061e-05
3.98825e-05
3.92596e-05
3.98405e-05
4.02102e-05
4.02089e-05
4.01251e-05
4.00952e-05
4.01019e-05
4.01096e-05
4.01103e-05
4.01089e-05
4.01084e-05
4.01084e-05
4.01085e-05
4.01084e-05
4.01084e-05
4.01083e-05
4.01081e-05
4.01077e-05
4.0107e-05
4.0106e-05
4.01047e-05
4.0103e-05
4.0101e-05
4.00987e-05
4.00959e-05
4.00923e-05
4.00874e-05
4.00809e-05
4.00735e-05
4.0067e-05
4.00615e-05
4.00551e-05
4.00474e-05
4.00382e-05
4.00287e-05
4.00178e-05
4.00102e-05
4.00106e-05
4.00224e-05
4.00235e-05
4.00852e-05
4.00916e-05
3.99076e-05
4.02698e-05
4.2361e-05
4.06596e-05
2.89181e-05
7.4061e-06
1.11899e-07
0
0
9.13021e-07
0.000972218
0.00364252
0.024432
0.0683012
0.129658
0.196607
0.258185
0.307622
0.342151
0.362036
0.369473
0.367091
0.3489
0.306459
0.236536
0.148136
0.0650874
0.0135426
0.00395203
0.000132192
0
0
0
5.77268e-06
2.25432e-05
4.14441e-05
4.58549e-05
4.26586e-05
3.99595e-05
3.94794e-05
3.98847e-05
4.01583e-05
4.01773e-05
4.0126e-05
4.01039e-05
4.01065e-05
4.01112e-05
4.01116e-05
4.01108e-05
4.01105e-05
4.01105e-05
4.01105e-05
4.01104e-05
4.01102e-05
4.01099e-05
4.01093e-05
4.01083e-05
4.0107e-05
4.01054e-05
4.01033e-05
4.0101e-05
4.00982e-05
4.00946e-05
4.00898e-05
4.00834e-05
4.00759e-05
4.00692e-05
4.00635e-05
4.00571e-05
4.00493e-05
4.004e-05
4.00302e-05
4.00191e-05
4.00107e-05
4.00104e-05
4.00221e-05
4.00228e-05
4.00866e-05
4.00949e-05
4.01256e-05
3.99932e-05
4.02356e-05
4.12498e-05
4.10368e-05
3.69637e-05
1.58713e-05
4.17135e-06
3.01001e-08
0
0
0.000170044
0.000576917
0.00992353
0.0352143
0.0805921
0.14052
0.205016
0.264251
0.311544
0.343842
0.361344
0.364861
0.354173
0.322601
0.265221
0.186305
0.102708
0.0405633
0.00590209
0.00197094
5.30892e-05
0
0
6.78682e-07
5.16075e-06
1.76395e-05
3.68866e-05
4.39314e-05
4.27132e-05
4.03947e-05
3.96485e-05
3.98692e-05
4.01207e-05
4.01633e-05
4.01261e-05
4.01073e-05
4.01096e-05
4.01136e-05
4.0114e-05
4.01133e-05
4.01131e-05
4.01131e-05
4.0113e-05
4.01127e-05
4.01121e-05
4.01112e-05
4.01099e-05
4.01083e-05
4.01063e-05
4.01039e-05
4.01011e-05
4.00976e-05
4.00929e-05
4.00865e-05
4.00788e-05
4.00719e-05
4.0066e-05
4.00595e-05
4.00516e-05
4.00421e-05
4.0032e-05
4.00206e-05
4.00115e-05
4.00102e-05
4.00217e-05
4.00222e-05
4.00878e-05
4.00984e-05
4.01318e-05
4.01251e-05
4.00221e-05
4.0116e-05
4.05901e-05
4.20641e-05
4.00149e-05
3.32034e-05
4.86199e-06
1.36824e-06
0
0
4.41708e-06
8.00321e-05
0.00231915
0.0085874
0.0315982
0.0738267
0.131391
0.195286
0.255495
0.30448
0.338421
0.356342
0.358316
0.342489
0.30291
0.238036
0.158251
0.0823177
0.0297249
0.00260533
0.000947988
1.79667e-05
0
0
4.64458e-07
5.19544e-06
1.92459e-05
3.81806e-05
4.40892e-05
4.23059e-05
4.01325e-05
3.96698e-05
3.99695e-05
4.01627e-05
4.01592e-05
4.01199e-05
4.01105e-05
4.01151e-05
4.01176e-05
4.01172e-05
4.01166e-05
4.01164e-05
4.01161e-05
4.01156e-05
4.01147e-05
4.01135e-05
4.01119e-05
4.01099e-05
4.01074e-05
4.01046e-05
4.01011e-05
4.00965e-05
4.00901e-05
4.00823e-05
4.00751e-05
4.0069e-05
4.00623e-05
4.00543e-05
4.00446e-05
4.00342e-05
4.00224e-05
4.00125e-05
4.00099e-05
4.00213e-05
4.00215e-05
4.0089e-05
4.01021e-05
4.01108e-05
4.01206e-05
4.01101e-05
4.00709e-05
4.00518e-05
4.03975e-05
4.12764e-05
4.21127e-05
3.84763e-05
2.44618e-05
6.34481e-06
8.6911e-08
0
0
0
7.31489e-05
0.00202589
0.0074223
0.0294699
0.0707349
0.127818
0.191955
0.252953
0.302743
0.336809
0.352896
0.350751
0.326839
0.27728
0.206165
0.127502
0.0595506
0.0163968
0.00083604
0.000339449
0
0
0
5.34225e-07
6.93084e-06
2.69983e-05
4.17948e-05
4.37118e-05
4.11052e-05
3.96982e-05
3.97701e-05
4.00901e-05
4.01737e-05
4.01378e-05
4.01146e-05
4.01155e-05
4.01194e-05
4.01202e-05
4.01201e-05
4.01199e-05
4.01193e-05
4.01185e-05
4.01173e-05
4.01157e-05
4.01136e-05
4.01112e-05
4.01084e-05
4.01049e-05
4.01003e-05
4.0094e-05
4.00861e-05
4.00786e-05
4.00722e-05
4.00653e-05
4.00572e-05
4.00473e-05
4.00366e-05
4.00244e-05
4.00136e-05
4.00098e-05
4.00208e-05
4.00209e-05
4.009e-05
4.01058e-05
4.0107e-05
4.01117e-05
4.01097e-05
4.00924e-05
4.00414e-05
4.01832e-05
4.06373e-05
4.19965e-05
4.12968e-05
3.61559e-05
1.32677e-05
3.49719e-06
0
0
0
0
6.67623e-05
0.00201277
0.00740002
0.0295916
0.0712371
0.128959
0.193893
0.255425
0.304719
0.336661
0.347865
0.33847
0.304601
0.24581
0.170576
0.0946961
0.0381791
0.00666783
0.00196903
4.76635e-05
0
0
0
3.83348e-06
1.41306e-05
3.6721e-05
4.42509e-05
4.25618e-05
4.01798e-05
3.96853e-05
3.99895e-05
4.01684e-05
4.01606e-05
4.01292e-05
4.01228e-05
4.01242e-05
4.01237e-05
4.0123e-05
4.01228e-05
4.01224e-05
4.01213e-05
4.01197e-05
4.01176e-05
4.01151e-05
4.01123e-05
4.01088e-05
4.01043e-05
4.00981e-05
4.00901e-05
4.00824e-05
4.00756e-05
4.00685e-05
4.00603e-05
4.00502e-05
4.00391e-05
4.00266e-05
4.0015e-05
4.00098e-05
4.00202e-05
4.00202e-05
4.00908e-05
4.01096e-05
4.01043e-05
4.01054e-05
4.01072e-05
4.01111e-05
4.00945e-05
4.00708e-05
4.00303e-05
4.03426e-05
4.1089e-05
4.22223e-05
3.99392e-05
2.78276e-05
7.19422e-06
9.79165e-08
0
0
0
0
7.02879e-05
0.00225396
0.00837578
0.0319622
0.0754819
0.134992
0.200994
0.262158
0.308918
0.335918
0.340343
0.321258
0.276307
0.208645
0.131412
0.0628951
0.0188875
0.00209584
0.000616066
0
0
0
4.15209e-07
6.9611e-06
2.72545e-05
4.2522e-05
4.35616e-05
4.08797e-05
3.97124e-05
3.98662e-05
4.01141e-05
4.0148e-05
4.01229e-05
4.0122e-05
4.01297e-05
4.01304e-05
4.01278e-05
4.01261e-05
4.01251e-05
4.01238e-05
4.01218e-05
4.01193e-05
4.01164e-05
4.01129e-05
4.01085e-05
4.01024e-05
4.00944e-05
4.00864e-05
4.00793e-05
4.0072e-05
4.00636e-05
4.00534e-05
4.00419e-05
4.0029e-05
4.00166e-05
4.00099e-05
4.00196e-05
4.00195e-05
4.00914e-05
4.01133e-05
4.01041e-05
4.01045e-05
4.01049e-05
4.01066e-05
4.01083e-05
4.01051e-05
4.00796e-05
4.0033e-05
4.0107e-05
4.05078e-05
4.17781e-05
4.16138e-05
3.68753e-05
1.41193e-05
3.73757e-06
1.22657e-08
0
0
0
0
0.000126999
0.00018388
0.0101928
0.0366224
0.0835997
0.145889
0.21274
0.271992
0.314087
0.333371
0.328504
0.297509
0.240534
0.166104
0.0913508
0.0359281
0.00561449
0.00164091
0
0
0
0
5.00555e-06
1.94714e-05
3.92166e-05
4.4218e-05
4.18126e-05
3.99807e-05
3.98918e-05
4.01759e-05
4.02108e-05
4.0138e-05
4.0111e-05
4.01219e-05
4.01317e-05
4.01324e-05
4.01301e-05
4.01281e-05
4.01262e-05
4.01237e-05
4.01208e-05
4.01173e-05
4.0113e-05
4.0107e-05
4.00991e-05
4.00909e-05
4.00834e-05
4.00757e-05
4.00672e-05
4.00568e-05
4.0045e-05
4.00316e-05
4.00185e-05
4.00101e-05
4.0019e-05
4.00187e-05
4.00916e-05
4.01169e-05
4.01047e-05
4.0105e-05
4.01054e-05
4.01057e-05
4.01067e-05
4.0108e-05
4.011e-05
4.00935e-05
4.00637e-05
4.00072e-05
4.02509e-05
4.08968e-05
4.23388e-05
3.93874e-05
3.10382e-05
1.67283e-06
5.7795e-07
0
0
0
0
1.85033e-06
0.000173609
0.000281051
0.0132499
0.0446581
0.0963762
0.161815
0.228557
0.283697
0.318287
0.3272
0.310097
0.2653
0.197227
0.120551
0.0545787
0.0145865
0.00397004
7.15629e-05
0
0
0
2.54185e-06
9.06298e-06
3.34049e-05
4.36593e-05
4.2328e-05
3.97397e-05
3.94038e-05
3.99785e-05
4.02611e-05
4.02231e-05
4.01466e-05
4.01257e-05
4.01306e-05
4.01341e-05
4.01332e-05
4.01309e-05
4.01283e-05
4.01253e-05
4.01218e-05
4.01175e-05
4.01117e-05
4.01039e-05
4.00955e-05
4.00877e-05
4.00796e-05
4.00709e-05
4.00603e-05
4.00482e-05
4.00344e-05
4.00206e-05
4.00106e-05
4.00184e-05
4.00179e-05
4.00918e-05
4.01204e-05
4.01058e-05
4.01061e-05
4.01065e-05
4.01068e-05
4.01071e-05
4.01075e-05
4.01093e-05
4.01106e-05
4.01083e-05
4.00811e-05
4.00359e-05
4.00466e-05
4.05242e-05
4.15357e-05
4.21544e-05
3.67204e-05
2.19478e-05
5.71627e-06
1.27491e-07
0
0
0
0
2.9908e-06
0.000601532
0.00194767
0.0186793
0.0564639
0.114167
0.182318
0.246889
0.294777
0.317933
0.313732
0.280874
0.221301
0.145999
0.0740384
0.025054
0.00295495
0.000721351
0
0
0
2.83887e-07
6.95409e-06
2.76392e-05
4.4946e-05
4.58413e-05
4.16116e-05
3.94462e-05
3.9523e-05
4.00077e-05
4.01859e-05
4.01729e-05
4.01438e-05
4.01366e-05
4.01369e-05
4.0136e-05
4.01336e-05
4.01305e-05
4.0127e-05
4.01227e-05
4.01171e-05
4.01093e-05
4.0101e-05
4.00928e-05
4.00843e-05
4.00753e-05
4.00645e-05
4.00522e-05
4.00378e-05
4.00234e-05
4.00116e-05
4.00176e-05
4.00169e-05
4.00908e-05
4.0124e-05
4.01067e-05
4.0107e-05
4.01073e-05
4.01077e-05
4.01081e-05
4.01084e-05
4.01088e-05
4.01098e-05
4.01116e-05
4.01134e-05
4.01007e-05
4.00637e-05
4.00078e-05
4.02375e-05
4.09285e-05
4.23539e-05
4.08635e-05
3.40904e-05
1.63851e-05
4.33582e-06
1.24862e-07
0
0
0
0
2.19286e-05
0.00153168
0.00564872
0.0284749
0.0743063
0.139093
0.210455
0.272568
0.3126
0.322597
0.301587
0.249459
0.173993
0.0944352
0.0304863
0.00155996
0.00142919
0.000453028
0.000152451
3.03817e-05
0
9.15558e-07
8.01178e-06
3.07041e-05
4.42128e-05
4.38413e-05
4.11218e-05
3.99893e-05
3.99674e-05
4.01093e-05
4.01532e-05
4.01484e-05
4.01419e-05
4.01395e-05
4.01374e-05
4.01345e-05
4.01309e-05
4.01267e-05
4.01212e-05
4.01136e-05
4.01052e-05
4.00968e-05
4.00879e-05
4.00787e-05
4.00678e-05
4.00551e-05
4.00405e-05
4.00252e-05
4.00123e-05
4.00175e-05
4.00163e-05
4.00919e-05
4.01266e-05
4.01076e-05
4.0108e-05
4.01085e-05
4.01089e-05
4.01094e-05
4.01099e-05
4.01103e-05
4.01108e-05
4.01114e-05
4.01132e-05
4.01151e-05
4.01164e-05
4.00893e-05
4.00514e-05
4.00215e-05
4.04446e-05
4.13915e-05
4.23485e-05
4.04458e-05
3.37226e-05
1.51578e-05
3.76006e-06
0
0
0
0
0
6.73315e-05
0.00173188
0.00594188
0.0276422
0.0690099
0.125971
0.188265
0.242908
0.278907
0.288043
0.267678
0.219455
0.153476
0.0897006
0.0436376
0.0175839
0.00562513
0.0010659
0.000241706
0
0
5.3478e-06
2.03683e-05
3.52376e-05
4.04743e-05
4.08063e-05
4.03232e-05
4.01367e-05
4.01339e-05
4.01497e-05
4.01519e-05
4.01495e-05
4.01468e-05
4.01438e-05
4.01402e-05
4.0136e-05
4.01306e-05
4.01234e-05
4.01151e-05
4.01064e-05
4.00967e-05
4.00868e-05
4.00754e-05
4.00625e-05
4.00468e-05
4.00309e-05
4.00148e-05
4.00174e-05
4.0015e-05
4.00869e-05
4.01332e-05
)
;

boundaryField
{
    inlet
    {
        type            freestream;
        freestreamValue uniform 4e-05;
        value           nonuniform List<scalar> 
27
(
4.00638e-05
4.00644e-05
4.00652e-05
4.00662e-05
4.00673e-05
4.00686e-05
4.00701e-05
4.00718e-05
4.00736e-05
4.00756e-05
4.00779e-05
4.00803e-05
4.00829e-05
4.00856e-05
4.00886e-05
4.00916e-05
4.00949e-05
4.00984e-05
4.01021e-05
4.01058e-05
4.01096e-05
4.01133e-05
4.01169e-05
4.01204e-05
4.0124e-05
4.01266e-05
4.01332e-05
)
;
    }
    outlet
    {
        type            freestream;
        freestreamValue uniform 4e-05;
        value           nonuniform List<scalar> 
78
(
4.01076e-05
4.0108e-05
4.01085e-05
4.01089e-05
4.01094e-05
4.01099e-05
4.01103e-05
4.01108e-05
4.01114e-05
4.01132e-05
4.01151e-05
4.01164e-05
4.00893e-05
4.00514e-05
4.00215e-05
4.04446e-05
4.13915e-05
4.23485e-05
4.04458e-05
3.37226e-05
1.51578e-05
3.76006e-06
0
0
0
0
0
6.73315e-05
0.00173188
0.00594188
0.0276422
0.0690099
0.125971
0.188265
0.242908
0.278907
0.288043
0.267678
0.219455
0.153476
0.0897006
0.0436376
0.0175839
0.00562513
0.0010659
0.000241706
0
0
5.3478e-06
2.03683e-05
3.52376e-05
4.04743e-05
4.08063e-05
4.03232e-05
4.01367e-05
4.01339e-05
4.01497e-05
4.01519e-05
4.01495e-05
4.01468e-05
4.01438e-05
4.01402e-05
4.0136e-05
4.01306e-05
4.01234e-05
4.01151e-05
4.01064e-05
4.00967e-05
4.00868e-05
4.00754e-05
4.00625e-05
4.00468e-05
4.00309e-05
4.00148e-05
4.00174e-05
4.0015e-05
4.00869e-05
4.01332e-05
)
;
    }
    walls
    {
        type            fixedValue;
        value           nonuniform List<scalar> 0();
    }
    frontAndBack
    {
        type            empty;
    }
    procBoundary7to3
    {
        type            processor;
        value           nonuniform List<scalar> 
16
(
3.84932e-05
4.3397e-05
4.04543e-05
3.99148e-05
4.01178e-05
4.01445e-05
4.01178e-05
4.01085e-05
4.01055e-05
4.01055e-05
4.01039e-05
4.01037e-05
4.01044e-05
4.01055e-05
4.01064e-05
4.01073e-05
)
;
    }
    procBoundary7to6
    {
        type            processor;
        value           nonuniform List<scalar> 
91
(
4.00634e-05
4.00641e-05
4.00641e-05
4.00293e-05
4.00293e-05
4.00257e-05
4.00257e-05
4.00088e-05
4.0013e-05
4.0013e-05
4.00175e-05
4.00097e-05
4.00097e-05
4.00409e-05
4.00339e-05
4.00262e-05
4.00262e-05
4.00581e-05
4.00528e-05
4.0048e-05
4.0048e-05
4.0081e-05
4.00771e-05
4.0072e-05
4.00658e-05
4.00658e-05
4.00929e-05
4.00915e-05
4.00898e-05
4.00878e-05
4.00855e-05
4.00855e-05
4.00976e-05
4.00976e-05
4.00975e-05
4.00974e-05
4.0097e-05
4.00964e-05
4.00956e-05
4.00956e-05
4.01038e-05
4.01027e-05
4.01016e-05
4.01008e-05
4.01003e-05
4.00999e-05
4.00996e-05
4.00995e-05
4.00994e-05
4.00993e-05
4.00993e-05
4.00993e-05
4.00993e-05
3.34158e-08
0
1.78785e-06
0.00121873
0.00475907
0.0288122
0.07632
0.137215
0.199169
0.254605
0.299951
0.333765
0.356179
0.368979
0.374735
0.374524
0.360826
0.325199
0.262508
0.176657
0.0877697
0.02602
0.00282245
0.000697257
0
0
0
6.2741e-06
2.50651e-05
4.1691e-05
4.27712e-05
4.04325e-05
3.98071e-05
4.00378e-05
4.01497e-05
4.01241e-05
4.01027e-05
4.01027e-05
)
;
    }
}


// ************************************************************************* //
