/*--------------------------------*- C++ -*----------------------------------*\
| =========                 |                                                 |
| \\      /  F ield         | OpenFOAM: The Open Source CFD Toolbox           |
|  \\    /   O peration     | Version:  2506                                  |
|   \\  /    A nd           | Website:  www.openfoam.com                      |
|    \\/     M anipulation  |                                                 |
\*---------------------------------------------------------------------------*/
FoamFile
{
    version     2.0;
    format      ascii;
    arch        "LSB;label=32;scalar=64";
    class       surfaceScalarField;
    location    "500";
    object      phi;
}
// * * * * * * * * * * * * * * * * * * * * * * * * * * * * * * * * * * * * * //

dimensions      [0 3 -1 0 0 0 0];

oriented        oriented;

internalField   nonuniform List<scalar> 
2574
(
18.4773
0.474954
16.5824
18.4726
0.500839
15.1787
0.498346
16.5849
18.468
0.522372
13.7595
0.524964
15.1761
0.52294
16.5869
18.4634
0.544983
11.3971
0.546947
12.5385
0.547583
13.7589
0.550283
15.1734
0.548658
16.5885
18.459
0.566933
9.43476
0.569167
10.3721
0.571039
11.3953
0.57317
12.5364
0.57401
13.7581
0.576831
15.1706
0.575597
16.5898
18.4546
0.585977
7.10411
0.58874
7.80931
0.591397
8.58259
0.593902
9.43226
0.59633
10.3696
0.598367
11.3932
0.60067
12.5341
0.601723
13.757
0.604673
15.1676
0.603802
16.5906
18.4502
0.604835
7.49954
0.607862
5.87819
0.610873
6.46027
0.613829
7.10115
0.616736
7.8064
0.619552
8.57977
0.622231
9.42958
0.624808
10.3671
0.627014
11.391
0.62952
12.5316
0.630769
13.7558
0.633874
15.1645
0.633384
16.5911
18.4458
0.614467
6.06881
0.619697
6.39802
0.624661
6.74457
0.629347
7.1095
0.633778
7.4951
0.636901
5.87507
0.640021
6.45715
0.64313
7.09805
0.646171
7.80336
0.649138
8.57681
0.651942
9.42677
0.654708
10.3643
0.657087
11.3886
0.659794
12.5289
0.661249
13.7543
0.664508
15.1613
0.664384
16.5912
18.4414
0.616223
4.6509
0.622177
4.90486
0.628052
5.1723
0.633817
5.45412
0.639415
5.75087
0.644833
6.06339
0.650035
6.39281
0.655031
6.73958
0.659805
7.10473
0.664307
7.4906
0.667508
5.87187
0.670722
6.45394
0.673926
7.09484
0.677088
7.80019
0.680195
8.5737
0.683176
9.42379
0.686111
10.3614
0.688664
11.3861
0.691528
12.526
0.693235
13.7526
0.696625
15.1579
0.696728
16.5911
18.437
0.61063
3.19471
0.615764
3.37078
0.621058
3.55639
0.626511
3.75188
0.632082
3.95813
0.63774
4.17519
0.643452
4.40406
0.649184
4.64517
0.654916
4.89913
0.660575
5.16664
0.666168
5.44853
0.671649
5.74539
0.676991
6.05805
0.682182
6.38762
0.687173
6.73459
0.691947
7.09995
0.696532
7.48602
0.699793
5.86861
0.703081
6.45065
0.706363
7.09156
0.709647
7.79691
0.712883
8.57046
0.715973
9.4207
0.719071
10.3583
0.721823
11.3833
0.724827
12.523
0.726789
13.7506
0.730328
15.1543
0.730874
16.5906
18.4326
0.610806
1.67216
0.612693
1.76472
0.614778
1.86243
0.617081
1.96567
0.619613
2.07443
0.62237
2.18923
0.62538
2.31042
0.628637
2.43829
0.632153
2.57302
0.635901
2.71531
0.639879
2.86523
0.644101
3.02351
0.648546
3.19026
0.653197
3.36613
0.658038
3.55154
0.663047
3.74687
0.6682
3.95297
0.67347
4.16992
0.678841
4.39869
0.684244
4.63977
0.689686
4.89368
0.695136
5.16119
0.700534
5.44313
0.705848
5.74007
0.711076
6.05282
0.716177
6.38252
0.721129
6.72963
0.725925
7.09516
0.730507
7.48144
0.733806
5.86531
0.737149
6.44731
0.740533
7.08818
0.74388
7.79356
0.747229
8.56711
0.750491
9.41744
0.753771
10.355
0.756617
11.3805
0.759862
12.5197
0.762001
13.7485
0.765697
15.1506
0.766562
16.5897
18.4281
0.65018
0.228712
0.65003
0.241283
0.64987
0.254552
0.649801
0.268558
0.649818
0.283394
0.649668
0.299132
0.648685
0.315726
0.645963
0.332717
0.640761
0.349485
0.632767
0.365475
0.622299
0.380341
0.61013
0.394213
0.597525
0.407648
0.586134
0.42162
0.577946
0.437453
0.574802
0.45683
0.577891
0.481473
0.587241
0.512696
0.601397
0.550888
0.617598
0.595232
0.632221
0.64366
0.642201
0.693234
0.646673
0.74122
0.647309
0.786643
0.646672
0.830812
0.646311
0.876067
0.646524
0.924016
0.646993
0.974926
0.6475
1.0291
0.647986
1.08608
0.648538
1.14605
0.649181
1.20958
0.649926
1.27644
0.650783
1.34701
0.651764
1.42156
0.65288
1.50022
0.654145
1.58323
0.655583
1.67073
0.657169
1.76313
0.65895
1.86065
0.660926
1.96369
0.663106
2.07225
0.6655
2.18683
0.668114
2.30781
0.670967
2.43543
0.674027
2.56997
0.677331
2.71201
0.680878
2.86168
0.684641
3.01974
0.688613
3.18629
0.692808
3.36193
0.697214
3.54714
0.701789
3.7423
0.706527
3.94824
0.711405
4.16504
0.716386
4.3937
0.721482
4.63467
0.726611
4.88855
0.731784
5.15602
0.736956
5.43796
0.742111
5.73492
0.747191
6.04774
0.752168
6.37755
0.757046
6.72476
0.761789
7.09041
0.766394
7.47683
0.769696
5.86201
0.773031
6.44397
0.776498
7.08471
0.77999
7.79007
0.783351
8.56375
0.7867
9.41409
0.790093
10.3516
0.793142
11.3774
0.796565
12.5163
0.798917
13.7461
0.802786
15.1468
0.804092
16.5884
18.4234
0.697374
0.228828
0.697234
0.241423
0.697091
0.254695
0.696967
0.268682
0.696884
0.283476
0.696928
0.299088
0.696944
0.31571
0.696414
0.333247
0.694411
0.351488
0.690077
0.369809
0.682861
0.387556
0.672863
0.404212
0.660744
0.419767
0.647733
0.434631
0.635515
0.449671
0.626095
0.466251
0.621501
0.486067
0.623222
0.510975
0.631584
0.542527
0.64538
0.581436
0.661973
0.627068
0.677601
0.677606
0.688877
0.729944
0.69438
0.781141
0.695501
0.829691
0.694878
0.876689
0.694402
0.924493
0.694537
0.974791
0.694997
1.02864
0.695516
1.08557
0.696014
1.14555
0.696546
1.20905
0.697176
1.27581
0.697904
1.34629
0.698748
1.42072
0.699695
1.49927
0.700769
1.58216
0.70197
1.66953
0.703334
1.76177
0.704858
1.85912
0.706554
1.962
0.708431
2.07037
0.710512
2.18475
0.71278
2.30554
0.715242
2.43297
0.71793
2.56728
0.720834
2.7091
0.723957
2.85856
0.727299
3.0164
0.730868
3.18272
0.734635
3.35816
0.738589
3.54318
0.742746
3.73814
0.747077
3.94391
0.751566
4.16056
0.756191
4.38908
0.760929
4.62993
0.76577
4.88371
0.770659
5.15113
0.775568
5.43305
0.780494
5.72999
0.785396
6.04284
0.790231
6.37271
0.795045
6.71994
0.799648
7.08581
0.804216
7.47226
0.807528
5.85869
0.811033
6.44047
0.814349
7.08139
0.817838
7.78658
0.82151
8.56008
0.824961
9.41064
0.828341
10.3482
0.831538
11.3742
0.835288
12.5126
0.837836
13.7436
0.841762
15.1429
0.843155
16.587
18.4185
0.746302
0.228923
0.746202
0.241524
0.746091
0.254806
0.745965
0.268808
0.745849
0.283592
0.745759
0.299178
0.745814
0.315654
0.745919
0.333143
0.745728
0.351679
0.744419
0.371118
0.740986
0.390989
0.734671
0.410527
0.725305
0.429132
0.713401
0.446534
0.700094
0.462978
0.687062
0.479283
0.676413
0.496715
0.670314
0.517073
0.670547
0.542294
0.677766
0.574217
0.691039
0.613794
0.707862
0.660783
0.724391
0.713415
0.736886
0.768646
0.743454
0.823123
0.745105
0.875039
0.744557
0.92504
0.74398
0.975369
0.744055
1.02857
0.744539
1.08508
0.745074
1.14502
0.745568
1.20855
0.746086
1.27529
0.746701
1.34567
0.747393
1.42003
0.748198
1.49846
0.749111
1.58124
0.750142
1.66849
0.751316
1.7606
0.752618
1.85782
0.754071
1.96054
0.755673
2.06877
0.757458
2.18297
0.759421
2.30358
0.761572
2.43082
0.763918
2.56493
0.766463
2.70656
0.769212
2.85581
0.772168
3.01345
0.77533
3.17956
0.778696
3.3548
0.782261
3.53962
0.786018
3.73439
0.789956
3.93997
0.794062
4.15645
0.798319
4.38482
0.802682
4.62557
0.807157
4.87924
0.811759
5.14653
0.816398
5.42841
0.821182
5.72521
0.825838
6.03819
0.830489
6.36806
0.835127
6.71531
0.83984
7.0811
0.844189
7.46791
0.847618
5.85526
0.850861
6.43722
0.854476
7.07778
0.857857
7.7832
0.861449
8.55649
0.864984
9.40711
0.868778
10.3444
0.872103
11.3709
0.875757
12.5089
0.878461
13.7409
0.882941
15.1384
0.884337
16.5856
18.4131
0.797124
0.228999
0.797043
0.241605
0.796969
0.25488
0.796861
0.268916
0.796751
0.283702
0.796645
0.299284
0.796545
0.315754
0.796569
0.333119
0.796728
0.35152
0.796788
0.371057
0.796075
0.391702
0.793558
0.413044
0.788251
0.434439
0.779685
0.4551
0.768086
0.474577
0.754503
0.492866
0.740596
0.510623
0.728554
0.529114
0.720788
0.55006
0.719369
0.575636
0.725335
0.607828
0.738105
0.648014
0.755259
0.69626
0.7729
0.751005
0.786817
0.809206
0.794601
0.867254
0.796782
0.92286
0.796129
0.976021
0.795231
1.02947
0.79509
1.08522
0.795563
1.14455
0.796192
1.20792
0.796744
1.27474
0.797252
1.34516
0.797829
1.41945
0.798502
1.49779
0.79928
1.58047
0.800161
1.66761
0.801152
1.7596
0.802264
1.85671
0.803508
1.9593
0.804906
2.06737
0.806429
2.18144
0.808126
2.30188
0.810003
2.42894
0.812044
2.56289
0.814267
2.70434
0.816718
2.85336
0.819245
3.01092
0.822031
3.17677
0.825013
3.35182
0.828215
3.53642
0.83166
3.73094
0.835221
3.93641
0.838889
4.15278
0.842771
4.38094
0.846841
4.6215
0.851148
4.87493
0.855294
5.14238
0.8598
5.4239
0.864096
5.72091
0.868567
6.03371
0.873191
6.36343
0.877529
6.71097
0.881976
7.07665
0.886514
7.46338
0.889616
5.85216
0.892973
6.43387
0.896441
7.07431
0.900122
7.77952
0.903622
8.55299
0.907213
9.40351
0.910993
10.3406
0.914399
11.3675
0.918445
12.5049
0.921209
13.7381
0.925937
15.1336
0.927448
16.5841
18.4072
0.850025
0.229064
0.849956
0.241674
0.849883
0.254952
0.849806
0.268994
0.849721
0.283787
0.849609
0.299396
0.849511
0.315852
0.849414
0.333216
0.849401
0.351533
0.849532
0.370925
0.849701
0.391532
0.84943
0.413316
0.847825
0.436044
0.843852
0.459073
0.83675
0.481679
0.826387
0.50323
0.813412
0.523598
0.799262
0.543264
0.786049
0.563273
0.776276
0.58541
0.772301
0.611803
0.775652
0.644663
0.786354
0.685559
0.802561
0.734797
0.820492
0.791276
0.835882
0.851864
0.845779
0.912963
0.849805
0.971995
0.850112
1.02916
0.849111
1.08622
0.848656
1.145
0.848711
1.20787
0.849294
1.27416
0.849884
1.34457
0.850423
1.41891
0.850986
1.49723
0.851655
1.5798
0.852355
1.66691
0.853107
1.75885
0.854071
1.85575
0.855124
1.95825
0.856273
2.06622
0.857661
2.18006
0.859007
2.30054
0.860688
2.42726
0.862435
2.56114
0.864336
2.70244
0.866436
2.85126
0.868713
3.00864
0.871173
3.17431
0.873951
3.34904
0.876783
3.53358
0.879666
3.72806
0.882863
3.93321
0.88637
4.14927
0.889911
4.3774
0.893607
4.6178
0.897311
4.87123
0.901413
5.13828
0.90535
5.41997
0.909512
5.71675
0.91374
6.02949
0.918011
6.35916
0.922444
6.70653
0.926602
7.07249
0.930882
7.45909
0.934065
5.84898
0.937373
6.43056
0.940824
7.07086
0.944346
7.776
0.948043
8.54929
0.951644
9.39991
0.955597
10.3367
0.958989
11.3641
0.963409
12.5005
0.966035
13.7355
0.971436
15.1282
0.972693
16.5829
18.4002
1.4371
0.229679
1.43659
0.242188
1.436
0.255537
1.43549
0.269504
1.43475
0.284528
1.43417
0.299974
1.43343
0.316592
1.43267
0.333977
1.43173
0.352469
1.43107
0.371595
1.43036
0.392237
1.42985
0.413823
1.42917
0.436727
1.42718
0.461065
1.4227
0.486154
1.41408
0.511852
1.40047
0.53721
1.38194
0.561788
1.35984
0.585376
1.33683
0.608419
1.31684
0.631791
1.30361
0.657897
1.30052
0.688645
1.30916
0.726165
1.32803
0.772404
1.3529
0.826994
1.37733
0.88853
1.39554
0.953785
1.40491
1.01979
1.40679
1.08434
1.40432
1.14748
1.40089
1.2113
1.39797
1.27707
1.39576
1.34678
1.39387
1.4208
1.39181
1.49929
1.38973
1.58187
1.38742
1.66922
1.38522
1.76106
1.38276
1.85821
1.38045
1.96056
1.37803
2.06864
1.37537
2.18271
1.37289
2.30302
1.37019
2.42996
1.36755
2.56378
1.36485
2.70514
1.36195
2.85415
1.35914
3.01145
1.35628
3.17717
1.35298
3.35235
1.34976
3.53681
1.34648
3.73133
1.34289
3.93681
1.33908
4.15308
1.33507
4.38142
1.33081
4.62205
1.32617
4.87587
1.3211
5.14335
1.31573
5.42534
1.30974
5.72274
1.30323
6.03599
1.2959
6.3665
1.28798
6.71445
1.2793
7.08117
1.26969
7.4687
1.26163
5.85704
1.2524
6.43979
1.242
7.08126
1.23006
7.78794
1.21666
8.56269
1.20123
9.41534
1.18415
10.3538
1.16426
11.384
1.14275
12.522
1.11642
13.7618
1.09027
15.1544
1.05478
16.6184
18.4268
1.53637
0.230029
1.53575
0.242809
1.53512
0.256163
1.53436
0.270268
1.53385
0.285032
1.53308
0.300749
1.53229
0.317375
1.5315
0.334771
1.53069
0.353282
1.52973
0.372553
1.52892
0.393047
1.52793
0.414812
1.52723
0.437425
1.52647
0.461833
1.5253
0.487315
1.52278
0.514379
1.51738
0.542602
1.50776
0.57141
1.49323
0.599906
1.47406
0.627591
1.45165
0.654199
1.42926
0.680285
1.41093
0.706977
1.40011
0.736983
1.40016
0.77236
1.4114
0.815752
1.43145
0.86848
1.4554
0.929836
1.47711
0.998083
1.49199
1.06945
1.49867
1.1408
1.49884
1.21113
1.49553
1.28039
1.49166
1.35065
1.48836
1.4241
1.48585
1.5018
1.48318
1.58454
1.4807
1.6717
1.47793
1.76383
1.47493
1.86121
1.4719
1.96358
1.46874
2.0718
1.46558
2.18587
1.4623
2.3063
1.4589
2.43336
1.45539
2.56729
1.45164
2.70888
1.44794
2.85785
1.44416
3.01524
1.44003
3.1813
1.43582
3.35655
1.43154
3.54108
1.42693
3.73594
1.42225
3.94149
1.41722
4.15811
1.41197
4.38666
1.40636
4.62766
1.40051
4.88172
1.39427
5.14959
1.38748
5.43213
1.38024
5.72997
1.3724
6.04383
1.36407
6.37483
1.35493
6.72359
1.3451
7.091
1.3344
7.4794
1.3254
5.86605
1.3154
6.44979
1.30399
7.09267
1.29109
7.80084
1.27678
8.577
1.26048
9.43164
1.24234
10.3719
1.22126
11.4051
1.19868
12.5445
1.17126
13.7892
1.14371
15.1819
1.10665
16.6554
18.4542
1.63734
1.63671
0.243439
1.63608
0.256797
1.63544
0.270907
1.63466
0.28581
1.63401
0.301396
1.63322
0.318165
1.63243
0.335566
1.63162
0.354087
1.63067
0.373506
1.62956
0.394156
1.62857
0.4158
1.62748
0.438515
1.62651
0.462808
1.62558
0.488237
1.62474
0.515226
1.62333
0.544014
1.62059
0.574146
1.61468
0.605818
1.60442
0.637845
1.58902
0.669602
1.56876
0.700543
1.54566
0.730086
1.52325
0.759386
1.50569
0.789922
1.49711
0.824334
1.4997
0.86589
1.51344
0.916092
1.53469
0.976837
1.55802
1.04612
1.57746
1.12137
1.5894
1.19918
1.59321
1.27659
1.59137
1.35248
1.58712
1.42834
1.58266
1.50627
1.57908
1.58812
1.57592
1.67486
1.57272
1.76702
1.56938
1.86455
1.56575
1.96721
1.56204
2.07551
1.55818
2.18973
1.55417
2.31031
1.55002
2.43751
1.54573
2.57158
1.54131
2.71331
1.53677
2.86239
1.53184
3.02017
1.52694
3.1862
1.52181
3.36168
1.51645
3.54644
1.51086
3.74153
1.50492
3.94744
1.49889
4.16413
1.4925
4.39305
1.48575
4.63442
1.47849
4.88898
1.47099
5.15709
1.46295
5.44017
1.45451
5.73842
1.4455
6.05285
1.43589
6.38444
1.42553
6.73395
1.4144
7.10214
1.40246
7.49133
1.39264
5.87587
1.38172
6.46071
1.36927
7.10512
1.35567
7.81445
1.34026
8.59241
1.32283
9.44907
1.30354
10.3912
1.2815
11.4271
1.25755
12.5685
1.22897
13.8178
1.19994
15.211
1.16158
16.6938
18.4828
1.7403
0.244079
1.73966
0.257441
1.73901
0.271554
1.73822
0.2866
1.73743
0.30219
1.73663
0.318965
1.73568
0.336509
1.73473
0.355037
1.73378
0.374461
1.73281
0.395124
1.73169
0.416925
1.73054
0.43966
1.72939
0.463956
1.72818
0.489455
1.727
0.516404
1.72607
0.544946
1.7251
0.575116
1.72377
0.607143
1.72065
0.640967
1.71399
0.676259
1.70268
0.711859
1.6857
0.747058
1.66383
0.781263
1.63959
0.814161
1.61702
0.846897
1.60104
0.881876
1.59504
0.922094
1.60126
0.970613
1.61787
1.02951
1.64042
1.09882
1.66269
1.17691
1.67921
1.26007
1.68735
1.34434
1.68785
1.42785
1.68404
1.51008
1.67881
1.59336
1.67394
1.67973
1.67
1.77095
1.6663
1.86826
1.66226
1.97125
1.65802
2.07974
1.65365
2.1941
1.64896
2.315
1.64411
2.44236
1.63911
2.57659
1.63395
2.71846
1.6285
2.86784
1.62292
3.02575
1.61707
3.19205
1.61096
3.3678
1.6046
3.5528
1.59799
3.74814
1.59115
3.95428
1.58393
4.17135
1.57634
4.40064
1.56838
4.64237
1.56019
4.89717
1.55134
5.16593
1.54226
5.44925
1.53251
5.74817
1.52222
6.06314
1.51124
6.39542
1.49968
6.74551
1.48739
7.11443
1.47435
7.50436
1.46357
5.88665
1.45157
6.47271
1.43837
7.11832
1.42348
7.82934
1.40711
8.60877
1.38866
9.46753
1.36824
10.4116
1.34476
11.4506
1.31966
12.5936
1.28985
13.8476
1.25924
15.2416
1.2195
16.7335
18.5123
1.84654
0.244732
1.84588
0.258098
1.84508
0.272355
1.84427
0.287406
1.84346
0.303
1.8425
0.319922
1.84168
0.337332
1.84071
0.356005
1.8396
0.375574
1.83848
0.396244
1.83749
0.417915
1.83621
0.440941
1.83491
0.465259
1.83344
0.490917
1.83214
0.517709
1.8308
0.546281
1.82957
0.57635
1.8285
0.608213
1.82753
0.641939
1.82593
0.677857
1.82207
0.715723
1.81442
0.754701
1.80141
0.794273
1.78239
0.833181
1.75866
0.870632
1.73335
0.907186
1.71157
0.943876
1.69781
0.984365
1.69571
1.03161
1.70601
1.08853
1.72552
1.1574
1.74863
1.23696
1.76883
1.32414
1.78131
1.41537
1.78511
1.50627
1.78247
1.596
1.77693
1.68527
1.77094
1.77694
1.76582
1.87338
1.76136
1.97572
1.75674
2.08437
1.75181
2.19903
1.7467
2.32011
1.74122
2.44784
1.73556
2.58224
1.72974
2.72429
1.72347
2.87411
1.71717
3.03205
1.7103
3.19892
1.70357
3.37453
1.69614
3.56023
1.68859
3.75569
1.68078
3.96209
1.67245
4.17969
1.66387
4.40922
1.65491
4.65133
1.64545
4.90664
1.63561
5.17577
1.62512
5.45974
1.61425
5.75903
1.60273
6.07466
1.59068
6.40747
1.5778
6.75839
1.56424
7.12799
1.54999
7.51862
1.53825
5.89839
1.52518
6.48578
1.51093
7.13257
1.49504
7.84523
1.47729
8.62652
1.45766
9.48716
1.43599
10.4333
1.41164
11.475
1.38501
12.6202
1.3538
13.8788
1.32192
15.2735
1.28061
16.7748
18.5424
1.95558
0.245396
1.95477
0.258906
1.95396
0.27317
1.95314
0.288227
1.95217
0.303965
1.95134
0.320754
1.95022
0.338449
1.94924
0.356989
1.94825
0.376565
1.94711
0.397383
1.94583
0.4192
1.94453
0.442234
1.94309
0.466705
1.94176
0.492241
1.94013
0.519337
1.93863
0.547785
1.93689
0.578094
1.93544
0.60966
1.93402
0.643358
1.93296
0.678922
1.93195
0.716732
1.9298
0.756847
1.92504
0.799039
1.9158
0.842416
1.90042
0.88601
1.87896
0.928648
1.85322
0.969611
1.82752
1.01007
1.80731
1.05182
1.79721
1.09863
1.79995
1.15465
1.81461
1.22231
1.83644
1.30231
1.85907
1.39273
1.87555
1.4898
1.88322
1.58833
1.88247
1.68602
1.87699
1.78242
1.87026
1.8801
1.8639
1.98208
1.85839
2.08988
1.85305
2.20436
1.84733
2.32583
1.84128
2.45389
1.83498
2.58854
1.82837
2.7309
1.82159
2.88088
1.81437
3.03927
1.80698
3.20632
1.79914
3.38237
1.79114
3.56822
1.78273
3.7641
1.77376
3.97106
1.76452
4.18892
1.75489
4.41885
1.74488
4.66135
1.73434
4.91718
1.7233
5.18682
1.71174
5.47129
1.69968
5.77109
1.68698
6.08736
1.67363
6.42082
1.65963
6.77239
1.64484
7.14279
1.6291
7.53436
1.61643
5.91106
1.60259
6.49962
1.58717
7.14799
1.57
7.8624
1.55131
8.64521
1.53052
9.50795
1.5076
10.4562
1.48168
11.5009
1.45368
12.6482
1.42114
13.9114
1.38779
15.3068
1.345
16.8176
18.5726
2.06767
0.246079
2.06684
0.259737
2.06601
0.274006
2.06516
0.28907
2.06417
0.304955
2.06303
0.321892
2.06217
0.339313
2.06102
0.358142
2.05972
0.377866
2.05855
0.398551
2.05723
0.420517
2.05577
0.443701
2.05443
0.468039
2.05295
0.493726
2.0513
0.520978
2.0495
0.549591
2.0478
0.579789
2.04582
0.611645
2.0439
0.645275
2.04206
0.680762
2.04061
0.718187
2.0394
0.758049
2.03801
0.800436
2.03537
0.845056
2.02926
0.892113
2.01769
0.94022
1.99935
0.987951
1.97503
1.03439
1.94758
1.07926
1.92232
1.12389
1.905
1.17198
1.89998
1.22733
1.90839
1.2939
1.92699
1.37414
1.94995
1.46684
1.96929
1.56899
1.98045
1.67486
1.9821
1.78077
1.97733
1.88487
1.97
1.98941
1.96288
2.09701
1.95652
2.21072
1.95057
2.33179
1.94452
2.45995
1.93772
2.59534
1.9304
2.73821
1.92286
2.88843
1.915
3.04712
1.90698
3.21433
1.89837
3.39099
1.88944
3.57715
1.88008
3.77347
1.87042
3.98071
1.86021
4.19913
1.8496
4.42946
1.83845
4.67249
1.82692
4.92871
1.81474
5.199
1.80219
5.48384
1.78887
5.78441
1.77506
6.10118
1.76033
6.43555
1.74512
6.7876
1.72915
7.15876
1.71227
7.55124
1.6987
5.92464
1.68369
6.51462
1.66714
7.16455
1.64901
7.88052
1.62912
8.66511
1.6069
9.53017
1.58262
10.4805
1.55544
11.5281
1.52612
12.6775
1.4921
13.9454
1.45765
15.3413
1.41271
16.8626
18.6012
2.18196
0.247051
2.18113
0.260574
2.18028
0.27485
2.17929
0.290062
2.17829
0.305954
2.17728
0.3229
2.17613
0.340469
2.17496
0.359307
2.17379
0.379041
2.17246
0.399876
2.17113
0.421852
2.16964
0.445188
2.16814
0.469537
2.16649
0.495376
2.16483
0.52264
2.16301
0.551409
2.16117
0.581629
2.15916
0.613659
2.15697
0.647467
2.15477
0.682955
2.1524
0.720556
2.15033
0.760124
2.14873
0.80204
2.14723
0.846548
2.14531
0.894038
2.14152
0.944005
2.13345
0.996029
2.11875
1.04909
2.09696
1.10105
2.06956
1.15129
2.04118
1.20035
2.01805
1.25046
2.00591
1.30603
2.00804
1.37202
2.02345
1.45143
2.04658
1.54585
2.06908
1.65237
2.08423
1.76562
2.08841
1.88069
2.0838
1.99402
2.07469
2.10612
2.06508
2.22032
2.05665
2.34022
2.04925
2.46734
2.04218
2.60241
2.03485
2.74554
2.02684
2.89644
2.01838
3.05558
2.00943
3.22329
2.00029
3.40012
1.99055
3.58689
1.98049
3.78353
1.96998
3.99122
1.9589
4.21021
1.9474
4.44096
1.93536
4.68454
1.92278
4.94128
1.90969
5.21209
1.89596
5.49758
1.88159
5.79878
1.86646
6.1163
1.85087
6.45115
1.83438
6.80408
1.81715
7.17599
1.79919
7.56919
1.78448
5.93935
1.76849
6.5306
1.75098
7.18206
1.73166
7.89984
1.71045
8.68632
1.687
9.55361
1.66137
10.5061
1.63284
11.5566
1.60208
12.7083
1.56655
13.9809
1.53091
15.3769
1.48305
16.9104
18.6249
2.30111
0.247904
2.30025
0.261432
2.29925
0.275857
2.29823
0.291076
2.29707
0.307118
2.29604
0.323928
2.29486
0.341647
2.29368
0.360493
2.29234
0.380376
2.29086
0.401361
2.28936
0.423345
2.288
0.446547
2.28635
0.471188
2.2847
0.497034
2.28289
0.524448
2.28107
0.553224
2.27911
0.583594
2.27699
0.615778
2.27485
0.649606
2.27254
0.685269
2.27005
0.72304
2.2676
0.762578
2.26504
0.804599
2.26275
0.848835
2.2612
0.895593
2.2596
0.945598
2.25725
0.998378
2.25226
1.05408
2.24166
1.11165
2.22338
1.16958
2.19711
1.22662
2.16541
1.28216
2.13385
1.33759
2.10987
1.396
2.09872
1.46257
2.10361
1.54096
2.12189
1.63409
2.14632
1.7412
2.16845
1.85855
2.18197
1.98051
2.18518
2.10291
2.18042
2.22508
2.17185
2.34879
2.16252
2.47667
2.15338
2.61155
2.14452
2.7544
2.13569
2.90527
2.12637
3.0649
2.11669
3.23298
2.10639
3.41042
2.09595
3.59733
2.0848
3.79468
2.07338
4.00264
2.06155
4.22205
2.04903
4.45348
2.03599
4.69758
2.02244
4.95483
2.00839
5.22615
1.99356
5.5124
1.97827
5.81408
1.96223
6.13235
1.94545
6.46792
1.92795
6.82159
1.90944
7.19449
1.89009
7.58855
1.87474
5.9547
1.85757
6.54777
1.83905
7.20058
1.81858
7.9203
1.79616
8.70874
1.77145
9.57832
1.74469
10.5329
1.71431
11.587
1.68265
12.74
1.64373
14.0199
1.61013
15.4105
1.55356
16.967
18.6352
2.41875
2.41776
2.41676
2.41576
2.41474
2.41358
2.41226
2.41093
2.40958
2.40823
2.40672
2.40505
2.40337
2.40152
2.39966
2.39765
2.39546
2.39326
2.39089
2.38835
2.38576
2.38284
2.37989
2.37686
2.37378
2.37111
2.36867
2.36571
2.36098
2.35248
2.33829
2.31816
2.29389
2.2692
2.24963
2.23922
2.23996
2.25003
2.26454
2.27712
2.28348
2.28283
2.27706
2.26862
2.25968
2.25076
2.24164
2.23222
2.22223
2.21182
2.20076
2.18935
2.17719
2.16457
2.15138
2.13764
2.12322
2.10815
2.09245
2.076
2.05896
2.04106
2.02231
2.00289
1.9825
1.96597
1.94807
1.92831
1.90672
1.88325
1.857
1.82933
1.79627
1.76557
1.71979
1.69318
1.61555
)
;

boundaryField
{
    inlet
    {
        type            calculated;
        value           nonuniform List<scalar> 
27
(
0.457075
0.479579
0.503012
0.527469
0.553123
0.580013
0.608199
0.637716
0.668792
0.701114
0.735306
0.771088
0.80877
0.848089
0.889668
0.933433
0.97969
1.02811
1.07924
1.13305
1.18993
1.25049
1.31485
1.38409
1.45936
1.54326
1.58176
)
;
    }
    outlet
    {
        type            calculated;
        value           nonuniform List<scalar> 
78
(
0.248742
0.262421
0.276854
0.292082
0.308132
0.325095
0.342967
0.361824
0.381719
0.402717
0.424856
0.448215
0.472871
0.498876
0.526307
0.555243
0.585775
0.617979
0.651974
0.687811
0.725628
0.765503
0.807551
0.851865
0.898671
0.948264
1.00082
1.05704
1.11639
1.17808
1.24081
1.3023
1.36186
1.42068
1.48214
1.55138
1.63334
1.73113
1.84405
1.96792
2.09656
2.22573
2.35456
2.48512
2.62049
2.76332
2.91439
3.07432
3.24296
3.42082
3.60839
3.80609
4.01481
4.23466
4.46667
4.71132
4.96925
5.24122
5.5281
5.83053
6.14939
6.48582
6.84033
7.21392
7.60893
5.97124
6.56568
7.22034
7.94189
8.73222
9.60457
10.5606
11.62
12.7707
14.0656
15.4371
17.0446
18.669
)
;
    }
    walls
    {
        type            calculated;
        value           nonuniform List<scalar> 0();
    }
    frontAndBack
    {
        type            empty;
    }
    procBoundary7to3
    {
        type            processor;
        value           nonuniform List<scalar> 
16
(
-0.650328
-0.69749
-0.746396
-0.797201
-0.85009
-1.43771
-1.53672
-1.63796
0.230653
-1.74094
-1.84719
-1.95625
-2.06836
-2.18293
-2.30196
-2.41959
)
;
    }
    procBoundary7to6
    {
        type            processor;
        value           nonuniform List<scalar> 
91
(
-18.4816
-0.452744
-16.5796
-0.477754
-15.1812
-0.498314
-13.76
-11.3988
-0.521922
-12.5405
-9.43711
-0.543271
-10.3743
-7.10695
-7.81207
-0.564588
-8.58525
-7.50387
-5.88122
-0.583143
-6.46328
-6.07426
-6.40325
-6.74954
-0.600503
-7.11419
-4.65692
-4.91081
-5.17818
-5.45989
-0.609013
-5.75647
-3.19966
-3.37591
-3.56168
-3.75734
-3.9637
-4.18085
-0.610199
-4.40977
-1.67384
-1.76661
-1.86451
-1.96797
-2.07696
-2.19198
-2.31343
-2.44154
-2.57654
-2.71906
-2.86921
-0.605681
-3.02773
-0.228564
-0.241133
-0.254393
-0.268489
-0.283411
-0.298981
-0.314743
-0.329995
-0.344283
-0.357481
-0.369872
-0.382044
-0.395043
-0.410229
-0.429265
-0.453686
-0.484562
-0.522045
-0.565045
-0.611433
-0.658283
-0.703214
-0.745693
-0.787279
-0.830175
-0.875706
-0.924229
-0.975395
-1.02961
-1.08657
-1.14661
-1.21022
-1.27719
-1.34787
-1.42254
-1.50133
-0.609128
-1.5845
)
;
    }
}


// ************************************************************************* //
