/*--------------------------------*- C++ -*----------------------------------*\
| =========                 |                                                 |
| \\      /  F ield         | OpenFOAM: The Open Source CFD Toolbox           |
|  \\    /   O peration     | Version:  2506                                  |
|   \\  /    A nd           | Website:  www.openfoam.com                      |
|    \\/     M anipulation  |                                                 |
\*---------------------------------------------------------------------------*/
FoamFile
{
    version     2.0;
    format      ascii;
    arch        "LSB;label=32;scalar=64";
    class       volScalarField;
    location    "500";
    object      turbulenceProperties:nuEff;
}
// * * * * * * * * * * * * * * * * * * * * * * * * * * * * * * * * * * * * * //

dimensions      [0 2 -1 0 0 0 0];

internalField   nonuniform List<scalar> 
1340
(
1.6102e-05
1.61027e-05
1.61023e-05
1.60833e-05
1.61034e-05
1.61028e-05
1.60813e-05
1.60832e-05
1.6104e-05
1.61033e-05
1.60723e-05
1.60746e-05
1.60812e-05
1.60831e-05
1.61048e-05
1.61039e-05
1.60774e-05
1.60731e-05
1.60723e-05
1.60745e-05
1.60811e-05
1.6083e-05
1.61055e-05
1.61046e-05
1.60902e-05
1.60864e-05
1.60822e-05
1.60778e-05
1.60733e-05
1.60723e-05
1.60744e-05
1.6081e-05
1.60829e-05
1.61063e-05
1.61054e-05
1.60996e-05
1.60967e-05
1.60941e-05
1.60908e-05
1.6087e-05
1.60827e-05
1.60783e-05
1.60736e-05
1.60722e-05
1.60743e-05
1.60809e-05
1.60827e-05
1.61071e-05
1.61063e-05
1.61121e-05
1.611e-05
1.61073e-05
1.61039e-05
1.61004e-05
1.60974e-05
1.60948e-05
1.60915e-05
1.60876e-05
1.60832e-05
1.60787e-05
1.60739e-05
1.60722e-05
1.60742e-05
1.60808e-05
1.60825e-05
1.61079e-05
1.61073e-05
1.61186e-05
1.61178e-05
1.61169e-05
1.61158e-05
1.61146e-05
1.6113e-05
1.61109e-05
1.61082e-05
1.61048e-05
1.61012e-05
1.60982e-05
1.60955e-05
1.60922e-05
1.60882e-05
1.60838e-05
1.60792e-05
1.60743e-05
1.60723e-05
1.60741e-05
1.60806e-05
1.60822e-05
1.61087e-05
1.61084e-05
1.61211e-05
1.61211e-05
1.61211e-05
1.6121e-05
1.61208e-05
1.61205e-05
1.61201e-05
1.61195e-05
1.61187e-05
1.61178e-05
1.61167e-05
1.61155e-05
1.61139e-05
1.61119e-05
1.61091e-05
1.61057e-05
1.6102e-05
1.6099e-05
1.60962e-05
1.60929e-05
1.60889e-05
1.60844e-05
1.60798e-05
1.60746e-05
1.60723e-05
1.6074e-05
1.60805e-05
1.60819e-05
1.61096e-05
1.61096e-05
1.61227e-05
1.61235e-05
1.61233e-05
1.6123e-05
1.61228e-05
1.61225e-05
1.61223e-05
1.61222e-05
1.61221e-05
1.61221e-05
1.61221e-05
1.61221e-05
1.6122e-05
1.6122e-05
1.6122e-05
1.61219e-05
1.61217e-05
1.61215e-05
1.6121e-05
1.61205e-05
1.61197e-05
1.61188e-05
1.61177e-05
1.61164e-05
1.61149e-05
1.61129e-05
1.61101e-05
1.61067e-05
1.6103e-05
1.60998e-05
1.6097e-05
1.60937e-05
1.60897e-05
1.60851e-05
1.60803e-05
1.60751e-05
1.60724e-05
1.60739e-05
1.60804e-05
1.60816e-05
1.61104e-05
1.61109e-05
1.00007e-05
1e-05
1e-05
1e-05
0.000156267
0.000477616
0.016124
0.0552047
0.112674
0.176097
0.23552
0.285628
0.324085
0.350425
0.365823
0.372628
0.373759
0.362762
0.330905
0.272113
0.188984
0.0998938
0.0339036
0.00196437
0.000550742
1e-05
1e-05
1e-05
1.00019e-05
1.04405e-05
1.62633e-05
1.80454e-05
1.64642e-05
1.59079e-05
1.60332e-05
1.61418e-05
1.61419e-05
1.61281e-05
1.61259e-05
1.61256e-05
1.61242e-05
1.61234e-05
1.61234e-05
1.61234e-05
1.61232e-05
1.61231e-05
1.6123e-05
1.6123e-05
1.6123e-05
1.6123e-05
1.6123e-05
1.61229e-05
1.61229e-05
1.61227e-05
1.61224e-05
1.6122e-05
1.61215e-05
1.61207e-05
1.61198e-05
1.61187e-05
1.61175e-05
1.61159e-05
1.61139e-05
1.61112e-05
1.61077e-05
1.61039e-05
1.61007e-05
1.60979e-05
1.60945e-05
1.60905e-05
1.60858e-05
1.60809e-05
1.60755e-05
1.60725e-05
1.60737e-05
1.60802e-05
1.60813e-05
1.61112e-05
1.61123e-05
1.60969e-05
1.00034e-05
1e-05
1e-05
1e-05
1.00016e-05
0.00210094
0.00822682
0.036694
0.0875699
0.150388
0.213188
0.26829
0.31194
0.342849
0.361591
0.370732
0.373004
0.36437
0.336098
0.281264
0.201238
0.111953
0.0398424
0.0035626
0.00100208
1e-05
1e-05
1e-05
1.00003e-05
1.00605e-05
1.51159e-05
1.87332e-05
1.69736e-05
1.59835e-05
1.59928e-05
1.61209e-05
1.61326e-05
1.61186e-05
1.61214e-05
1.61268e-05
1.61267e-05
1.61249e-05
1.61241e-05
1.61241e-05
1.61241e-05
1.61241e-05
1.6124e-05
1.6124e-05
1.6124e-05
1.6124e-05
1.61239e-05
1.61239e-05
1.61237e-05
1.61235e-05
1.61231e-05
1.61225e-05
1.61218e-05
1.61209e-05
1.61198e-05
1.61185e-05
1.6117e-05
1.6115e-05
1.61123e-05
1.61088e-05
1.6105e-05
1.61017e-05
1.60988e-05
1.60954e-05
1.60913e-05
1.60865e-05
1.60816e-05
1.6076e-05
1.60727e-05
1.60736e-05
1.60801e-05
1.6081e-05
1.6112e-05
1.61138e-05
1.79363e-05
1.61779e-05
1.00582e-05
1.00003e-05
1e-05
1e-05
1e-05
0.000632985
0.00229856
0.0211313
0.0633369
0.122988
0.187871
0.247798
0.297043
0.333198
0.356247
0.368298
0.371885
0.365541
0.340768
0.289983
0.213246
0.124026
0.0476074
0.00672659
0.00181951
1e-05
1e-05
1e-05
1e-05
1.00001e-05
1.27746e-05
1.82448e-05
1.73018e-05
1.6078e-05
1.59958e-05
1.61669e-05
1.61834e-05
1.61337e-05
1.61147e-05
1.61207e-05
1.61266e-05
1.61269e-05
1.61256e-05
1.6125e-05
1.6125e-05
1.61251e-05
1.61251e-05
1.6125e-05
1.6125e-05
1.6125e-05
1.61249e-05
1.61248e-05
1.61246e-05
1.61242e-05
1.61236e-05
1.61229e-05
1.6122e-05
1.61209e-05
1.61197e-05
1.61181e-05
1.61162e-05
1.61135e-05
1.611e-05
1.61061e-05
1.61027e-05
1.60997e-05
1.60963e-05
1.60922e-05
1.60873e-05
1.60823e-05
1.60766e-05
1.60729e-05
1.60735e-05
1.60799e-05
1.60806e-05
1.61128e-05
1.61154e-05
1.62331e-05
1.77225e-05
1.61824e-05
1.04617e-05
1.00022e-05
1e-05
1e-05
1e-05
1.87825e-05
5.91006e-05
0.0107634
0.0420793
0.0955919
0.160499
0.224662
0.279771
0.321747
0.349661
0.364956
0.36996
0.365767
0.344433
0.297771
0.224292
0.13522
0.0555203
0.0102276
0.00270864
1e-05
1e-05
1e-05
1e-05
1.00079e-05
1.19338e-05
1.79036e-05
1.76947e-05
1.60046e-05
1.56777e-05
1.59822e-05
1.61813e-05
1.61806e-05
1.61351e-05
1.6119e-05
1.61226e-05
1.61267e-05
1.61271e-05
1.61264e-05
1.61261e-05
1.61261e-05
1.61261e-05
1.61261e-05
1.61261e-05
1.6126e-05
1.61259e-05
1.61257e-05
1.61253e-05
1.61248e-05
1.61241e-05
1.61232e-05
1.61221e-05
1.61208e-05
1.61193e-05
1.61174e-05
1.61147e-05
1.61113e-05
1.61073e-05
1.61037e-05
1.61008e-05
1.60973e-05
1.60931e-05
1.60882e-05
1.60831e-05
1.60772e-05
1.60731e-05
1.60734e-05
1.60797e-05
1.60803e-05
1.61136e-05
1.6117e-05
1.60181e-05
1.62138e-05
1.74208e-05
1.64288e-05
1.18302e-05
1.00084e-05
1e-05
1e-05
1e-05
1e-05
0.00098184
0.0036525
0.024442
0.0683112
0.129668
0.196617
0.258195
0.307632
0.342161
0.362046
0.369483
0.367101
0.34891
0.306469
0.236546
0.148146
0.0650974
0.0135526
0.00396201
0.000124458
1e-05
1e-05
1e-05
1.00031e-05
1.06992e-05
1.68754e-05
1.97313e-05
1.76033e-05
1.60459e-05
1.57917e-05
1.60058e-05
1.61531e-05
1.61634e-05
1.61356e-05
1.61237e-05
1.61251e-05
1.61276e-05
1.61278e-05
1.61274e-05
1.61272e-05
1.61272e-05
1.61272e-05
1.61272e-05
1.61271e-05
1.61269e-05
1.61266e-05
1.6126e-05
1.61253e-05
1.61244e-05
1.61234e-05
1.61221e-05
1.61206e-05
1.61187e-05
1.61161e-05
1.61126e-05
1.61085e-05
1.61049e-05
1.61019e-05
1.60984e-05
1.60942e-05
1.60891e-05
1.60839e-05
1.60779e-05
1.60734e-05
1.60732e-05
1.60795e-05
1.60799e-05
1.61143e-05
1.61188e-05
1.61354e-05
1.6064e-05
1.61951e-05
1.67631e-05
1.66412e-05
1.45709e-05
1.01753e-05
1.00008e-05
1e-05
1e-05
1e-05
0.000168506
0.000585843
0.00993353
0.0352243
0.0806021
0.14053
0.205026
0.264261
0.311554
0.343852
0.361354
0.364871
0.354183
0.322611
0.265231
0.186315
0.102718
0.0405733
0.00591208
0.00198085
2.56514e-05
1e-05
1e-05
1e-05
1.0002e-05
1.02664e-05
1.45364e-05
1.84138e-05
1.7637e-05
1.62822e-05
1.58805e-05
1.59975e-05
1.61327e-05
1.61559e-05
1.61357e-05
1.61255e-05
1.61267e-05
1.61289e-05
1.61291e-05
1.61288e-05
1.61286e-05
1.61286e-05
1.61286e-05
1.61284e-05
1.61281e-05
1.61276e-05
1.61269e-05
1.6126e-05
1.61249e-05
1.61237e-05
1.61222e-05
1.61202e-05
1.61177e-05
1.61142e-05
1.61101e-05
1.61064e-05
1.61032e-05
1.60997e-05
1.60954e-05
1.60903e-05
1.60849e-05
1.60787e-05
1.60738e-05
1.60731e-05
1.60793e-05
1.60796e-05
1.6115e-05
1.61207e-05
1.61388e-05
1.61351e-05
1.60795e-05
1.61302e-05
1.63901e-05
1.72414e-05
1.60757e-05
1.30808e-05
1.00016e-05
1e-05
1e-05
1e-05
1.00011e-05
5.71275e-05
0.00232909
0.0085974
0.0316082
0.0738367
0.131401
0.195296
0.255505
0.30449
0.338431
0.356352
0.358326
0.342499
0.30292
0.238046
0.158261
0.0823277
0.0297349
0.00261527
0.00095759
1.02865e-05
1e-05
1e-05
1e-05
1.0002e-05
1.03758e-05
1.51384e-05
1.85177e-05
1.73873e-05
1.61391e-05
1.58917e-05
1.60512e-05
1.61555e-05
1.61536e-05
1.61323e-05
1.61272e-05
1.61297e-05
1.61311e-05
1.61309e-05
1.61306e-05
1.61304e-05
1.61303e-05
1.613e-05
1.61295e-05
1.61289e-05
1.6128e-05
1.61269e-05
1.61256e-05
1.61241e-05
1.61222e-05
1.61197e-05
1.61162e-05
1.6112e-05
1.61081e-05
1.61048e-05
1.61012e-05
1.60969e-05
1.60916e-05
1.6086e-05
1.60797e-05
1.60743e-05
1.6073e-05
1.60791e-05
1.60792e-05
1.61156e-05
1.61227e-05
1.61274e-05
1.61327e-05
1.6127e-05
1.61058e-05
1.60955e-05
1.62837e-05
1.67784e-05
1.72706e-05
1.52827e-05
1.09611e-05
1.00045e-05
1e-05
1e-05
1e-05
1e-05
4.82091e-05
0.00203581
0.0074323
0.0294799
0.0707449
0.127828
0.191965
0.252963
0.302753
0.336819
0.352906
0.350761
0.326849
0.27729
0.206175
0.127512
0.0595606
0.0164068
0.000845528
0.000346371
1e-05
1e-05
1e-05
1e-05
1.00064e-05
1.14071e-05
1.7081e-05
1.82705e-05
1.66802e-05
1.59067e-05
1.59448e-05
1.61162e-05
1.61615e-05
1.6142e-05
1.61294e-05
1.61299e-05
1.6132e-05
1.61325e-05
1.61324e-05
1.61323e-05
1.6132e-05
1.61315e-05
1.61309e-05
1.613e-05
1.61289e-05
1.61276e-05
1.61261e-05
1.61242e-05
1.61217e-05
1.61183e-05
1.6114e-05
1.611e-05
1.61065e-05
1.61028e-05
1.60984e-05
1.60931e-05
1.60873e-05
1.60808e-05
1.6075e-05
1.60729e-05
1.60788e-05
1.60789e-05
1.61162e-05
1.61247e-05
1.61254e-05
1.61279e-05
1.61268e-05
1.61174e-05
1.60899e-05
1.61667e-05
1.64164e-05
1.72009e-05
1.67901e-05
1.42177e-05
1.0086e-05
1.00004e-05
1e-05
1e-05
1e-05
1e-05
4.03083e-05
0.00202268
0.00741002
0.0296016
0.0712471
0.128969
0.193903
0.255435
0.304729
0.336671
0.347875
0.33848
0.304611
0.24582
0.170586
0.0947061
0.0381891
0.00667782
0.00197894
2.10708e-05
1e-05
1e-05
1e-05
1.00006e-05
1.01105e-05
1.44628e-05
1.8625e-05
1.75436e-05
1.61648e-05
1.58999e-05
1.6062e-05
1.61586e-05
1.61544e-05
1.61373e-05
1.61339e-05
1.61347e-05
1.61344e-05
1.6134e-05
1.61339e-05
1.61337e-05
1.61331e-05
1.61322e-05
1.61311e-05
1.61297e-05
1.61282e-05
1.61263e-05
1.61239e-05
1.61205e-05
1.61162e-05
1.6112e-05
1.61084e-05
1.61046e-05
1.61001e-05
1.60947e-05
1.60887e-05
1.6082e-05
1.60757e-05
1.60729e-05
1.60785e-05
1.60785e-05
1.61166e-05
1.61267e-05
1.61239e-05
1.61245e-05
1.61255e-05
1.61276e-05
1.61186e-05
1.61058e-05
1.60839e-05
1.62536e-05
1.66709e-05
1.73367e-05
1.6035e-05
1.15803e-05
1.00075e-05
1e-05
1e-05
1e-05
1e-05
1e-05
4.46127e-05
0.00226389
0.00838578
0.0319722
0.0754919
0.135002
0.201004
0.262168
0.308928
0.335928
0.340353
0.321268
0.276317
0.208655
0.131422
0.0629051
0.0188975
0.00210576
0.000625125
1e-05
1e-05
1e-05
1e-05
1.00066e-05
1.14591e-05
1.75191e-05
1.81733e-05
1.65522e-05
1.59142e-05
1.59959e-05
1.61292e-05
1.61476e-05
1.61339e-05
1.61335e-05
1.61376e-05
1.6138e-05
1.61366e-05
1.61357e-05
1.61351e-05
1.61344e-05
1.61334e-05
1.6132e-05
1.61304e-05
1.61285e-05
1.61262e-05
1.61229e-05
1.61185e-05
1.61142e-05
1.61104e-05
1.61064e-05
1.61019e-05
1.60964e-05
1.60902e-05
1.60832e-05
1.60766e-05
1.60729e-05
1.60782e-05
1.60781e-05
1.61169e-05
1.61287e-05
1.61238e-05
1.6124e-05
1.61242e-05
1.61251e-05
1.61261e-05
1.61243e-05
1.61105e-05
1.60854e-05
1.61253e-05
1.63445e-05
1.70711e-05
1.69744e-05
1.45313e-05
1.01102e-05
1.00005e-05
1e-05
1e-05
1e-05
1e-05
1e-05
0.000118109
0.000183871
0.0102028
0.0366324
0.0836097
0.145899
0.21275
0.272002
0.314097
0.333381
0.328514
0.297519
0.240544
0.166114
0.0913608
0.0359381
0.00562448
0.00165078
1e-05
1e-05
1e-05
1e-05
1.00018e-05
1.03935e-05
1.56555e-05
1.86031e-05
1.70915e-05
1.60573e-05
1.60096e-05
1.61627e-05
1.61816e-05
1.61421e-05
1.61275e-05
1.61334e-05
1.61387e-05
1.61391e-05
1.61378e-05
1.61368e-05
1.61357e-05
1.61344e-05
1.61328e-05
1.61309e-05
1.61286e-05
1.61253e-05
1.6121e-05
1.61166e-05
1.61126e-05
1.61084e-05
1.61038e-05
1.60982e-05
1.60919e-05
1.60847e-05
1.60776e-05
1.60731e-05
1.60778e-05
1.60777e-05
1.6117e-05
1.61307e-05
1.61241e-05
1.61243e-05
1.61245e-05
1.61246e-05
1.61252e-05
1.61259e-05
1.6127e-05
1.6118e-05
1.61019e-05
1.60715e-05
1.62035e-05
1.65619e-05
1.74073e-05
1.57438e-05
1.23931e-05
1e-05
1e-05
1e-05
1e-05
1e-05
1e-05
1e-05
0.000172494
0.000286592
0.0132599
0.0446681
0.0963862
0.161825
0.228567
0.283707
0.318297
0.32721
0.310107
0.26531
0.197237
0.120561
0.0545887
0.0145965
0.00398002
4.62052e-05
1e-05
1e-05
1e-05
1.00001e-05
1.00188e-05
1.31509e-05
1.82365e-05
1.74007e-05
1.59287e-05
1.57523e-05
1.60561e-05
1.62091e-05
1.61883e-05
1.61468e-05
1.61354e-05
1.61381e-05
1.614e-05
1.61395e-05
1.61383e-05
1.61368e-05
1.61352e-05
1.61334e-05
1.6131e-05
1.61279e-05
1.61236e-05
1.61191e-05
1.61149e-05
1.61106e-05
1.61059e-05
1.61001e-05
1.60936e-05
1.60862e-05
1.60787e-05
1.60733e-05
1.60775e-05
1.60773e-05
1.61171e-05
1.61326e-05
1.61247e-05
1.61249e-05
1.6125e-05
1.61252e-05
1.61254e-05
1.61256e-05
1.61266e-05
1.61273e-05
1.61261e-05
1.61113e-05
1.6087e-05
1.60927e-05
1.63536e-05
1.69287e-05
1.72957e-05
1.44625e-05
1.06297e-05
1.0003e-05
1e-05
1e-05
1e-05
1e-05
1e-05
1.00002e-05
0.000610544
0.00195758
0.0186893
0.0564739
0.114177
0.182328
0.246899
0.294787
0.317943
0.313742
0.280884
0.221311
0.146009
0.0740484
0.025064
0.00296491
0.000730663
1e-05
1e-05
1e-05
1e-05
1.00065e-05
1.15397e-05
1.90949e-05
1.97216e-05
1.69731e-05
1.57744e-05
1.58145e-05
1.60718e-05
1.61681e-05
1.6161e-05
1.61452e-05
1.61413e-05
1.61415e-05
1.6141e-05
1.61397e-05
1.61381e-05
1.61361e-05
1.61338e-05
1.61308e-05
1.61266e-05
1.61221e-05
1.61177e-05
1.61131e-05
1.61082e-05
1.61024e-05
1.60957e-05
1.6088e-05
1.60802e-05
1.60739e-05
1.60771e-05
1.60767e-05
1.61166e-05
1.61345e-05
1.61252e-05
1.61253e-05
1.61255e-05
1.61257e-05
1.61259e-05
1.61261e-05
1.61263e-05
1.61269e-05
1.61278e-05
1.61288e-05
1.61219e-05
1.61019e-05
1.60718e-05
1.61962e-05
1.65798e-05
1.74164e-05
1.65431e-05
1.33975e-05
1.01989e-05
1.0001e-05
1e-05
1e-05
1e-05
1e-05
1e-05
1.06276e-05
0.00154153
0.00565871
0.0284849
0.0743163
0.139103
0.210465
0.272578
0.31261
0.322607
0.301597
0.249469
0.174003
0.0944452
0.0304963
0.00156981
0.00143901
0.00046129
0.000148464
1.22075e-05
1e-05
1e-05
1.00115e-05
1.22974e-05
1.85996e-05
1.83548e-05
1.66897e-05
1.60619e-05
1.60501e-05
1.61266e-05
1.61504e-05
1.61478e-05
1.61442e-05
1.61429e-05
1.61418e-05
1.61402e-05
1.61383e-05
1.6136e-05
1.6133e-05
1.61289e-05
1.61244e-05
1.61198e-05
1.6115e-05
1.611e-05
1.61041e-05
1.60973e-05
1.60894e-05
1.60812e-05
1.60743e-05
1.6077e-05
1.60764e-05
1.61172e-05
1.6136e-05
1.61257e-05
1.61259e-05
1.61261e-05
1.61264e-05
1.61266e-05
1.61269e-05
1.61271e-05
1.61274e-05
1.61277e-05
1.61287e-05
1.61297e-05
1.61304e-05
1.61158e-05
1.60953e-05
1.60792e-05
1.63097e-05
1.68449e-05
1.74132e-05
1.63103e-05
1.32637e-05
1.01461e-05
1.00006e-05
1e-05
1e-05
1e-05
1e-05
1e-05
4.09924e-05
0.00174176
0.00595187
0.0276522
0.0690199
0.125981
0.188275
0.242918
0.278917
0.288053
0.267688
0.219465
0.153486
0.0897106
0.0436476
0.0175939
0.00563512
0.00107559
0.000245732
1e-05
1e-05
1.00023e-05
1.04698e-05
1.38385e-05
1.63261e-05
1.65109e-05
1.6243e-05
1.61414e-05
1.61399e-05
1.61485e-05
1.61497e-05
1.61483e-05
1.61469e-05
1.61453e-05
1.61433e-05
1.6141e-05
1.61381e-05
1.61342e-05
1.61297e-05
1.6125e-05
1.61198e-05
1.61144e-05
1.61083e-05
1.61013e-05
1.60928e-05
1.60843e-05
1.60756e-05
1.6077e-05
1.60757e-05
1.61145e-05
1.61395e-05
)
;

boundaryField
{
    inlet
    {
        type            calculated;
        value           nonuniform List<scalar> 
27
(
1.6102e-05
1.61023e-05
1.61028e-05
1.61033e-05
1.61039e-05
1.61046e-05
1.61054e-05
1.61063e-05
1.61073e-05
1.61084e-05
1.61096e-05
1.61109e-05
1.61123e-05
1.61138e-05
1.61154e-05
1.6117e-05
1.61188e-05
1.61207e-05
1.61227e-05
1.61247e-05
1.61267e-05
1.61287e-05
1.61307e-05
1.61326e-05
1.61345e-05
1.6136e-05
1.61395e-05
)
;
    }
    outlet
    {
        type            calculated;
        value           nonuniform List<scalar> 
78
(
1.61257e-05
1.61259e-05
1.61261e-05
1.61264e-05
1.61266e-05
1.61269e-05
1.61271e-05
1.61274e-05
1.61277e-05
1.61287e-05
1.61297e-05
1.61304e-05
1.61158e-05
1.60953e-05
1.60792e-05
1.63097e-05
1.68449e-05
1.74132e-05
1.63103e-05
1.32637e-05
1.01461e-05
1.00006e-05
1e-05
1e-05
1e-05
1e-05
1e-05
4.09924e-05
0.00174176
0.00595187
0.0276522
0.0690199
0.125981
0.188275
0.242918
0.278917
0.288053
0.267688
0.219465
0.153486
0.0897106
0.0436476
0.0175939
0.00563512
0.00107559
0.000245732
1e-05
1e-05
1.00023e-05
1.04698e-05
1.38385e-05
1.63261e-05
1.65109e-05
1.6243e-05
1.61414e-05
1.61399e-05
1.61485e-05
1.61497e-05
1.61483e-05
1.61469e-05
1.61453e-05
1.61433e-05
1.6141e-05
1.61381e-05
1.61342e-05
1.61297e-05
1.6125e-05
1.61198e-05
1.61144e-05
1.61083e-05
1.61013e-05
1.60928e-05
1.60843e-05
1.60756e-05
1.6077e-05
1.60757e-05
1.61145e-05
1.61395e-05
)
;
    }
    walls
    {
        type            calculated;
        value           nonuniform List<scalar> 0();
    }
    frontAndBack
    {
        type            empty;
    }
    procBoundary7to3
    {
        type            processor;
        value           nonuniform List<scalar> 
16
(
1.52911e-05
1.80676e-05
1.6315e-05
1.60219e-05
1.61312e-05
1.61456e-05
1.61312e-05
1.61261e-05
1.61245e-05
1.61245e-05
1.61237e-05
1.61235e-05
1.61239e-05
1.61245e-05
1.6125e-05
1.61255e-05
)
;
    }
    procBoundary7to6
    {
        type            processor;
        value           nonuniform List<scalar> 
91
(
1.61018e-05
1.61021e-05
1.61021e-05
1.60834e-05
1.60834e-05
1.60814e-05
1.60814e-05
1.60724e-05
1.60746e-05
1.60746e-05
1.60771e-05
1.60729e-05
1.60729e-05
1.60897e-05
1.60859e-05
1.60817e-05
1.60817e-05
1.60989e-05
1.60961e-05
1.60935e-05
1.60935e-05
1.61113e-05
1.61092e-05
1.61064e-05
1.61031e-05
1.61031e-05
1.61177e-05
1.6117e-05
1.6116e-05
1.6115e-05
1.61137e-05
1.61137e-05
1.61203e-05
1.61202e-05
1.61202e-05
1.61201e-05
1.61199e-05
1.61196e-05
1.61192e-05
1.61192e-05
1.61236e-05
1.6123e-05
1.61224e-05
1.6122e-05
1.61217e-05
1.61215e-05
1.61214e-05
1.61213e-05
1.61212e-05
1.61212e-05
1.61212e-05
1.61212e-05
1.61212e-05
1e-05
1e-05
1e-05
0.00122849
0.00476906
0.0288222
0.07633
0.137225
0.199179
0.254615
0.299961
0.333775
0.356189
0.368989
0.374745
0.374534
0.360836
0.325209
0.262518
0.176667
0.0877797
0.02603
0.00283241
0.000706522
1e-05
1e-05
1e-05
1.00043e-05
1.10563e-05
1.70198e-05
1.7673e-05
1.6303e-05
1.59645e-05
1.6088e-05
1.61485e-05
1.61346e-05
1.6123e-05
1.6123e-05
)
;
    }
}


// ************************************************************************* //
