/*--------------------------------*- C++ -*----------------------------------*\
| =========                 |                                                 |
| \\      /  F ield         | OpenFOAM: The Open Source CFD Toolbox           |
|  \\    /   O peration     | Version:  2506                                  |
|   \\  /    A nd           | Website:  www.openfoam.com                      |
|    \\/     M anipulation  |                                                 |
\*---------------------------------------------------------------------------*/
FoamFile
{
    version     2.0;
    format      ascii;
    arch        "LSB;label=32;scalar=64";
    class       volScalarField;
    location    "500";
    object      turbulenceProperties:I;
}
// * * * * * * * * * * * * * * * * * * * * * * * * * * * * * * * * * * * * * //

dimensions      [0 0 0 0 0 0 0];

internalField   nonuniform List<scalar> 
1340
(
3.02095e-05
2.6468e-05
3.04409e-05
2.60157e-05
2.60488e-05
3.04458e-05
1.6809e-05
2.58545e-05
2.57678e-05
3.05166e-05
1.58702e-05
2.15151e-05
1.67317e-05
2.57262e-05
2.55262e-05
3.06279e-05
1.89125e-05
2.05118e-05
1.56333e-05
2.13214e-05
1.66515e-05
2.56106e-05
2.53291e-05
3.0741e-05
2.24272e-05
2.10249e-05
2.10376e-05
1.85359e-05
2.02301e-05
1.53805e-05
2.11307e-05
1.65735e-05
2.55118e-05
2.51868e-05
3.08472e-05
2.40793e-05
2.33383e-05
2.24036e-05
2.19434e-05
2.05574e-05
2.06508e-05
1.81451e-05
1.99412e-05
1.5115e-05
2.09475e-05
1.64972e-05
2.54326e-05
2.5097e-05
3.09447e-05
2.70891e-05
2.61617e-05
2.52409e-05
2.43342e-05
2.34133e-05
2.2733e-05
2.18333e-05
2.14408e-05
2.00738e-05
2.025e-05
1.77419e-05
1.96464e-05
1.4838e-05
2.07703e-05
1.6423e-05
2.53684e-05
2.50479e-05
3.10466e-05
3.0466e-05
2.9577e-05
2.86931e-05
2.78169e-05
2.69501e-05
2.60939e-05
2.52502e-05
2.44077e-05
2.35796e-05
2.27231e-05
2.21051e-05
2.12417e-05
2.09179e-05
1.95728e-05
1.98342e-05
1.73251e-05
1.93441e-05
1.45495e-05
2.05956e-05
1.63526e-05
2.53143e-05
2.50311e-05
3.11378e-05
3.4381e-05
3.36457e-05
3.28939e-05
3.21279e-05
3.13513e-05
3.05668e-05
2.97777e-05
2.89866e-05
2.8196e-05
2.74076e-05
2.66233e-05
2.58451e-05
2.50735e-05
2.43127e-05
2.35486e-05
2.27997e-05
2.20093e-05
2.1455e-05
2.06293e-05
2.03754e-05
1.90548e-05
1.94037e-05
1.68956e-05
1.90342e-05
1.42507e-05
2.04218e-05
1.62855e-05
2.52679e-05
2.50561e-05
3.12278e-05
3.79235e-05
3.75971e-05
3.72463e-05
3.68694e-05
3.64645e-05
3.60307e-05
3.55677e-05
3.50758e-05
3.45556e-05
3.40087e-05
3.34362e-05
3.28398e-05
3.2222e-05
3.15849e-05
3.09314e-05
3.02634e-05
2.95843e-05
2.88965e-05
2.8203e-05
2.75061e-05
2.6808e-05
2.61104e-05
2.54143e-05
2.47219e-05
2.40331e-05
2.33539e-05
2.26676e-05
2.19982e-05
2.12751e-05
2.07857e-05
1.9999e-05
1.98152e-05
1.85222e-05
1.89599e-05
1.6455e-05
1.87172e-05
1.39439e-05
2.02493e-05
1.62201e-05
2.52283e-05
2.51035e-05
3.13167e-05
2.85023e-06
7.04048e-07
0
0
0.000199576
0.000286761
0.00262966
0.00938138
0.0185806
0.027985
0.0358397
0.0410286
0.0426424
0.0396661
0.0305649
0.010017
0.0299882
0.0390901
0.040663
0.0358171
0.0261279
0.0146601
0.00544734
0.000539173
0.000181728
0
0
0
5.28896e-06
1.95517e-05
3.73515e-05
3.94326e-05
3.68892e-05
3.56988e-05
3.55968e-05
3.54982e-05
3.52446e-05
3.49656e-05
3.46919e-05
3.4403e-05
3.40902e-05
3.37533e-05
3.33912e-05
3.30022e-05
3.25863e-05
3.21439e-05
3.16765e-05
3.11854e-05
3.06721e-05
3.01383e-05
2.95865e-05
2.90192e-05
2.84381e-05
2.78463e-05
2.72461e-05
2.66399e-05
2.60301e-05
2.54188e-05
2.48068e-05
2.41951e-05
2.35855e-05
2.29771e-05
2.2378e-05
2.17684e-05
2.11785e-05
2.05235e-05
2.00999e-05
1.93533e-05
1.92398e-05
1.79768e-05
1.85042e-05
1.60059e-05
1.83929e-05
1.36312e-05
2.00745e-05
1.61588e-05
2.51926e-05
2.51764e-05
3.14048e-05
2.82602e-05
3.98614e-06
1.02965e-06
0
0
8.52506e-06
0.00070874
0.000943412
0.00592472
0.0139246
0.0230596
0.0313261
0.0373486
0.0401438
0.0387613
0.0319602
0.0161705
0.0245812
0.0353966
0.0384067
0.0349539
0.0264355
0.0155966
0.00615971
0.000834262
0.000240918
0
0
0
3.14444e-06
1.09494e-05
3.23934e-05
3.67872e-05
3.43677e-05
3.27232e-05
3.24781e-05
3.24336e-05
3.22326e-05
3.19871e-05
3.17507e-05
3.15003e-05
3.12211e-05
3.09158e-05
3.05871e-05
3.02347e-05
2.98577e-05
2.94573e-05
2.9035e-05
2.8592e-05
2.81304e-05
2.76523e-05
2.71601e-05
2.66555e-05
2.61414e-05
2.56199e-05
2.50934e-05
2.45639e-05
2.40332e-05
2.35021e-05
2.29706e-05
2.24407e-05
2.19102e-05
2.13895e-05
2.08552e-05
2.03442e-05
1.97582e-05
1.94009e-05
1.86954e-05
1.86516e-05
1.74216e-05
1.80387e-05
1.55501e-05
1.80621e-05
1.33127e-05
1.98993e-05
1.60952e-05
2.51585e-05
2.5251e-05
3.14977e-05
2.8723e-05
2.64692e-05
7.83802e-06
1.90348e-06
0
0
0
0.000391214
0.000500294
0.00318341
0.0097459
0.0182839
0.0267662
0.0335278
0.0374227
0.0374977
0.0326842
0.0207841
0.0187355
0.0316447
0.0360675
0.0339609
0.0265947
0.0164199
0.0069669
0.00128996
0.000295172
0
0
0
7.77046e-07
1.76509e-06
2.51616e-05
3.30489e-05
3.18161e-05
3.00563e-05
2.96978e-05
2.97144e-05
2.95508e-05
2.92935e-05
2.90558e-05
2.88295e-05
2.85823e-05
2.83057e-05
2.80043e-05
2.76808e-05
2.73364e-05
2.69721e-05
2.65888e-05
2.61887e-05
2.57741e-05
2.53473e-05
2.49102e-05
2.44653e-05
2.40147e-05
2.35609e-05
2.31054e-05
2.26502e-05
2.21953e-05
2.17406e-05
2.12876e-05
2.08327e-05
2.03889e-05
1.9929e-05
1.94959e-05
1.89801e-05
1.86894e-05
1.80267e-05
1.80513e-05
1.68582e-05
1.75628e-05
1.50896e-05
1.77255e-05
1.29905e-05
1.97149e-05
1.60275e-05
2.51359e-05
2.53289e-05
3.15956e-05
2.53507e-05
2.66114e-05
2.53193e-05
1.24298e-05
2.90523e-06
0
0
0
7.44721e-05
0.000117371
0.00128088
0.00623914
0.0138284
0.0222592
0.0296326
0.0345459
0.0359558
0.0328655
0.023721
0.0120804
0.0279092
0.0337087
0.0328704
0.0265888
0.0170626
0.00769173
0.00171159
0.000346872
0
0
0
6.35125e-08
5.58824e-06
2.07524e-05
2.95705e-05
2.94499e-05
2.7477e-05
2.68499e-05
2.70061e-05
2.70591e-05
2.6882e-05
2.66358e-05
2.64011e-05
2.6167e-05
2.59129e-05
2.56338e-05
2.53335e-05
2.50155e-05
2.46809e-05
2.43318e-05
2.39702e-05
2.35989e-05
2.32196e-05
2.28349e-05
2.24474e-05
2.20587e-05
2.16709e-05
2.12851e-05
2.09017e-05
2.05199e-05
2.01404e-05
1.97586e-05
1.93892e-05
1.90024e-05
1.86457e-05
1.81995e-05
1.7976e-05
1.73559e-05
1.74486e-05
1.62914e-05
1.70861e-05
1.46234e-05
1.73893e-05
1.26418e-05
1.95416e-05
1.59317e-05
2.51126e-05
2.54189e-05
3.17269e-05
2.37046e-05
2.36046e-05
2.49804e-05
2.38836e-05
1.64567e-05
3.80877e-06
5.54453e-08
0
0
1.38343e-06
0.00046228
0.000491225
0.00340171
0.00960893
0.0175349
0.0253119
0.0312578
0.0341055
0.0328095
0.0261451
0.00971951
0.0236431
0.0311561
0.0317571
0.0266834
0.0179127
0.00865966
0.002204
0.000331844
0.000104262
0
0
0
4.30815e-06
1.49517e-05
2.57044e-05
2.82005e-05
2.6509e-05
2.48651e-05
2.44077e-05
2.44594e-05
2.44436e-05
2.42756e-05
2.40487e-05
2.38174e-05
2.35796e-05
2.33251e-05
2.30515e-05
2.27624e-05
2.24618e-05
2.21504e-05
2.18317e-05
2.15079e-05
2.1181e-05
2.08541e-05
2.05286e-05
2.02069e-05
1.98889e-05
1.95763e-05
1.92669e-05
1.89606e-05
1.86529e-05
1.83582e-05
1.80447e-05
1.77667e-05
1.73917e-05
1.72367e-05
1.66646e-05
1.68218e-05
1.57126e-05
1.65841e-05
1.41638e-05
1.70244e-05
1.2333e-05
1.93356e-05
1.58625e-05
2.50695e-05
2.55003e-05
3.18147e-05
2.22284e-05
2.18823e-05
2.21007e-05
2.24499e-05
2.20075e-05
1.9386e-05
7.82693e-06
1.87787e-06
1.33008e-08
0
0
0.000159323
0.000277173
0.00104844
0.00475106
0.0106677
0.0177651
0.0244764
0.0292719
0.0308736
0.0281693
0.019585
0.01298
0.0251319
0.0289435
0.0268575
0.0204332
0.0121816
0.00521716
0.000965967
0.000313832
4.61836e-05
0
0
4.76067e-07
3.34842e-06
1.03797e-05
2.04063e-05
2.39124e-05
2.34034e-05
2.21955e-05
2.1681e-05
2.16337e-05
2.16001e-05
2.14528e-05
2.12473e-05
2.10327e-05
2.08117e-05
2.05789e-05
2.03345e-05
2.00801e-05
1.98211e-05
1.95598e-05
1.9299e-05
1.90402e-05
1.8786e-05
1.8539e-05
1.82988e-05
1.80671e-05
1.78406e-05
1.76197e-05
1.73977e-05
1.71902e-05
1.69628e-05
1.67735e-05
1.64878e-05
1.64045e-05
1.59032e-05
1.61134e-05
1.5099e-05
1.59986e-05
1.37285e-05
1.65388e-05
1.20949e-05
1.88859e-05
1.54896e-05
2.45086e-05
2.48593e-05
3.06738e-05
2.04225e-05
2.02329e-05
2.02828e-05
2.01715e-05
2.00971e-05
2.05962e-05
1.94866e-05
1.56207e-05
2.06279e-06
5.48032e-07
0
0
4.97428e-06
0.000101015
0.000552491
0.000879548
0.00411653
0.00937711
0.0158261
0.02204
0.026497
0.0278509
0.0249408
0.0159551
0.0144125
0.0238028
0.0259881
0.0229311
0.0165316
0.00931069
0.00367757
0.000473454
0.000219124
1.48086e-05
0
0
2.81994e-07
2.90002e-06
9.69929e-06
1.8116e-05
2.07247e-05
2.00916e-05
1.91084e-05
1.87776e-05
1.87643e-05
1.87033e-05
1.8547e-05
1.83591e-05
1.81709e-05
1.79789e-05
1.77801e-05
1.75793e-05
1.73791e-05
1.71845e-05
1.69971e-05
1.68197e-05
1.66552e-05
1.65026e-05
1.63644e-05
1.62348e-05
1.61149e-05
1.5995e-05
1.58909e-05
1.57663e-05
1.56803e-05
1.54974e-05
1.55e-05
1.50784e-05
1.53563e-05
1.44325e-05
1.53989e-05
1.32355e-05
1.61085e-05
1.18335e-05
1.86433e-05
1.55161e-05
2.44651e-05
2.51514e-05
3.08099e-05
1.8603e-05
1.8478e-05
1.86038e-05
1.85106e-05
1.82842e-05
1.82198e-05
1.84814e-05
1.87721e-05
1.68756e-05
1.00141e-05
2.31593e-06
3.29306e-08
0
0
0
9.92204e-05
0.000534111
0.000722996
0.00375018
0.00869168
0.0147601
0.0205635
0.0245688
0.025394
0.0218241
0.0114173
0.0162054
0.0227672
0.0231666
0.0191794
0.0128781
0.00658415
0.00210129
0.000118991
0.0001377
0
0
0
2.79404e-07
3.2219e-06
1.12937e-05
1.67431e-05
1.76372e-05
1.67697e-05
1.61644e-05
1.6055e-05
1.60372e-05
1.59317e-05
1.57739e-05
1.56113e-05
1.54553e-05
1.53034e-05
1.51565e-05
1.50226e-05
1.49036e-05
1.4803e-05
1.47233e-05
1.46642e-05
1.46258e-05
1.46018e-05
1.4592e-05
1.45831e-05
1.459e-05
1.45738e-05
1.45955e-05
1.45157e-05
1.46075e-05
1.42661e-05
1.46161e-05
1.37752e-05
1.48217e-05
1.2738e-05
1.57158e-05
1.15193e-05
1.84531e-05
1.54709e-05
2.44936e-05
2.53663e-05
3.09289e-05
1.67389e-05
1.68969e-05
1.68591e-05
1.67083e-05
1.65471e-05
1.64602e-05
1.65446e-05
1.70131e-05
1.66496e-05
1.40866e-05
4.71994e-06
1.19924e-06
0
0
0
0
9.35514e-05
0.000521078
0.000728261
0.00369277
0.00846589
0.0142402
0.0196051
0.0229981
0.0230191
0.0183896
0.0048309
0.0174564
0.0214298
0.0201988
0.0155063
0.00943294
0.00419591
0.000908121
0.000245951
3.91752e-05
0
0
0
1.65532e-06
5.2447e-06
1.23948e-05
1.47857e-05
1.45035e-05
1.37786e-05
1.35168e-05
1.34848e-05
1.34204e-05
1.32987e-05
1.31724e-05
1.30616e-05
1.29672e-05
1.2896e-05
1.28497e-05
1.28326e-05
1.28465e-05
1.28899e-05
1.29606e-05
1.30496e-05
1.31555e-05
1.32609e-05
1.33795e-05
1.3469e-05
1.35925e-05
1.36079e-05
1.37806e-05
1.35168e-05
1.39303e-05
1.31709e-05
1.42863e-05
1.22833e-05
1.5358e-05
1.12309e-05
1.82981e-05
1.54048e-05
2.45536e-05
2.54847e-05
3.10391e-05
1.50439e-05
1.52225e-05
1.52048e-05
1.51083e-05
1.50204e-05
1.49159e-05
1.4822e-05
1.48336e-05
1.50538e-05
1.54456e-05
1.45137e-05
9.67211e-06
2.29434e-06
3.32079e-08
0
0
0
0
9.63279e-05
0.000518516
0.000874942
0.00389177
0.00861164
0.0141308
0.0189798
0.0215682
0.0205047
0.0143766
0.00962472
0.018032
0.0196996
0.0170267
0.0118541
0.00629366
0.00216585
0.000217049
0.000177681
0
0
0
1.64772e-07
2.33622e-06
7.73517e-06
1.13746e-05
1.18652e-05
1.1312e-05
1.09562e-05
1.08954e-05
1.08727e-05
1.08129e-05
1.0754e-05
1.07256e-05
1.07375e-05
1.07891e-05
1.08828e-05
1.10188e-05
1.11907e-05
1.1393e-05
1.16117e-05
1.18434e-05
1.20684e-05
1.22988e-05
1.249e-05
1.27064e-05
1.28064e-05
1.30469e-05
1.28576e-05
1.33219e-05
1.26451e-05
1.38095e-05
1.19017e-05
1.50424e-05
1.10132e-05
1.81713e-05
1.53371e-05
2.46398e-05
2.5509e-05
3.11665e-05
1.34184e-05
1.35946e-05
1.35914e-05
1.35214e-05
1.34625e-05
1.33928e-05
1.33444e-05
1.32575e-05
1.32002e-05
1.32717e-05
1.3688e-05
1.36563e-05
1.19174e-05
4.32541e-06
1.15964e-06
4.31731e-09
0
0
0
0
0.000138694
0.000130818
0.00114866
0.00432842
0.00907672
0.0143265
0.0185199
0.0200652
0.0176253
0.00914825
0.0130963
0.0178645
0.0174454
0.0136002
0.00830976
0.00365072
0.00072478
0.000233756
0
0
0
0
1.46761e-06
4.51772e-06
8.00156e-06
9.0394e-06
8.73421e-06
8.30935e-06
8.17574e-06
8.18705e-06
8.23147e-06
8.31547e-06
8.46823e-06
8.69016e-06
8.96711e-06
9.28538e-06
9.63153e-06
9.99419e-06
1.03585e-05
1.0719e-05
1.10589e-05
1.13905e-05
1.16696e-05
1.19605e-05
1.21269e-05
1.24137e-05
1.22882e-05
1.27871e-05
1.21887e-05
1.3382e-05
1.15715e-05
1.47555e-05
1.08276e-05
1.80629e-05
1.52489e-05
2.47326e-05
2.5406e-05
3.13269e-05
1.23077e-05
1.24498e-05
1.24727e-05
1.24155e-05
1.23588e-05
1.2316e-05
1.22922e-05
1.22394e-05
1.21804e-05
1.21029e-05
1.2124e-05
1.22809e-05
1.27089e-05
1.18719e-05
9.22186e-06
4.97585e-07
1.99336e-07
0
0
0
0
2.53247e-06
0.000158299
0.00012873
0.00157444
0.00504788
0.00983798
0.0147165
0.0180391
0.0182585
0.0140577
0.0055509
0.0148855
0.0168271
0.0145944
0.0100017
0.0050969
0.0015866
6.58345e-05
5.17046e-05
0
0
0
5.71207e-07
1.08957e-06
3.27782e-06
4.0687e-06
4.50325e-06
4.56486e-06
4.68742e-06
5.10232e-06
5.66374e-06
6.24794e-06
6.83314e-06
7.41441e-06
7.98084e-06
8.52297e-06
9.03916e-06
9.52376e-06
9.981e-06
1.04007e-05
1.07998e-05
1.11369e-05
1.14709e-05
1.16798e-05
1.19858e-05
1.19137e-05
1.24212e-05
1.19088e-05
1.30883e-05
1.14118e-05
1.45621e-05
1.07982e-05
1.80071e-05
1.51411e-05
2.48462e-05
2.50634e-05
3.16493e-05
1.11159e-05
1.12803e-05
1.12957e-05
1.12372e-05
1.11843e-05
1.11724e-05
1.11806e-05
1.11118e-05
1.10961e-05
1.10733e-05
1.10095e-05
1.09738e-05
1.10901e-05
1.13316e-05
1.15003e-05
1.00929e-05
6.08742e-06
1.75406e-06
4.79181e-08
0
0
0
0
4.11671e-06
0.000277712
0.000181108
0.00221911
0.00602983
0.0108126
0.0151166
0.0172591
0.0157789
0.0089639
0.01095
0.015338
0.0147871
0.0111238
0.00633871
0.00241152
0.000283026
0.000188983
0
0
0
8.4187e-08
1.23182e-06
2.82602e-06
6.06278e-06
5.48504e-06
4.64626e-06
4.84116e-06
5.49386e-06
6.18107e-06
6.7962e-06
7.35458e-06
7.88428e-06
8.38845e-06
8.8675e-06
9.31499e-06
9.73708e-06
1.01267e-05
1.04995e-05
1.08185e-05
1.11296e-05
1.13229e-05
1.15952e-05
1.15284e-05
1.20135e-05
1.15394e-05
1.27043e-05
1.10649e-05
1.42586e-05
1.04637e-05
1.78479e-05
1.48518e-05
2.4841e-05
2.44109e-05
3.21753e-05
1.15437e-05
1.16254e-05
1.16196e-05
1.15576e-05
1.14983e-05
1.14581e-05
1.14343e-05
1.13711e-05
1.13291e-05
1.128e-05
1.12032e-05
1.1135e-05
1.10834e-05
1.10693e-05
1.11466e-05
1.13929e-05
1.09414e-05
9.25159e-06
4.8027e-06
1.53124e-06
5.26199e-08
0
0
0
0
2.98056e-05
0.000389029
0.00059096
0.00318952
0.00736204
0.0120871
0.0157263
0.0165637
0.0131508
0.00535432
0.0135238
0.0149927
0.0124445
0.00785266
0.00322713
0.000381326
0.000252946
0.000171916
7.75283e-05
1.35208e-05
0
1.48319e-07
1.46878e-06
6.52561e-06
9.27199e-06
8.9339e-06
8.34018e-06
8.24239e-06
8.45553e-06
8.75111e-06
9.06037e-06
9.37918e-06
9.70647e-06
1.00328e-05
1.03539e-05
1.06631e-05
1.09679e-05
1.12391e-05
1.15019e-05
1.16679e-05
1.18937e-05
1.18505e-05
1.22672e-05
1.18858e-05
1.29138e-05
1.14777e-05
1.44262e-05
1.0805e-05
1.80244e-05
1.44717e-05
2.50832e-05
2.32635e-05
3.38861e-05
1.06704e-05
1.07063e-05
1.07216e-05
1.0743e-05
1.07571e-05
1.07715e-05
1.07991e-05
1.08323e-05
1.08601e-05
1.08761e-05
1.08914e-05
1.09189e-05
1.09431e-05
1.09687e-05
1.0991e-05
1.11117e-05
1.1321e-05
1.14696e-05
1.09639e-05
9.53193e-06
4.84255e-06
1.44451e-06
0
0
0
0
0
7.53852e-05
0.000357627
0.000672627
0.00294502
0.00641604
0.0101629
0.0128679
0.0131825
0.00991155
0.0053456
0.011202
0.0118918
0.00964442
0.0062092
0.00313665
0.00113875
0.000160949
0.00014958
6.15131e-05
0
0
1.31135e-06
5.14173e-06
8.87652e-06
1.00603e-05
1.0091e-05
9.99224e-06
1.00046e-05
1.00847e-05
1.0186e-05
1.02959e-05
1.04114e-05
1.05297e-05
1.0648e-05
1.07729e-05
1.08853e-05
1.10032e-05
1.10371e-05
1.11098e-05
1.09528e-05
1.12655e-05
1.07924e-05
1.18094e-05
1.01132e-05
1.33451e-05
8.84622e-06
1.70385e-05
1.31718e-05
2.39544e-05
2.32311e-05
3.37691e-05
)
;

boundaryField
{
    inlet
    {
        type            calculated;
        value           nonuniform List<scalar> 
27
(
7.7275e-05
7.73429e-05
7.74505e-05
7.75867e-05
7.77308e-05
7.78801e-05
7.80379e-05
7.82028e-05
7.83741e-05
7.85461e-05
7.87181e-05
7.88871e-05
7.90501e-05
7.92038e-05
7.93445e-05
7.94688e-05
7.9579e-05
7.94048e-05
7.94414e-05
7.94419e-05
7.9389e-05
7.92764e-05
7.90879e-05
7.88143e-05
7.84251e-05
7.80385e-05
7.72941e-05
)
;
    }
    outlet
    {
        type            calculated;
        value           nonuniform List<scalar> 
78
(
9.61168e-06
9.66745e-06
9.69621e-06
9.7331e-06
9.76075e-06
9.78869e-06
9.83464e-06
9.88778e-06
9.93384e-06
9.96444e-06
9.9944e-06
1.00396e-05
1.00831e-05
1.01284e-05
1.01686e-05
1.02966e-05
1.04982e-05
1.06282e-05
1.01543e-05
8.873e-06
4.58875e-06
1.39978e-06
0
0
0
0
0
7.55617e-05
0.000357219
0.000653278
0.00293185
0.00640463
0.0101565
0.0128718
0.0132038
0.0099631
0.00516833
0.0111432
0.0118599
0.00963097
0.00620775
0.00314135
0.001146
0.000130682
0.000146089
5.99861e-05
0
0
1.22616e-06
4.8513e-06
8.4135e-06
9.54425e-06
9.5662e-06
9.4569e-06
9.44471e-06
9.4883e-06
9.54468e-06
9.60365e-06
9.6634e-06
9.72373e-06
9.78228e-06
9.85095e-06
9.90552e-06
9.97925e-06
9.94917e-06
1.00049e-05
9.74088e-06
1.01706e-05
9.42812e-06
1.08895e-05
8.2797e-06
1.27767e-05
4.57559e-06
1.67161e-05
1.24648e-05
2.35483e-05
2.32592e-05
3.28543e-05
)
;
    }
    walls
    {
        type            calculated;
        value           nonuniform List<scalar> 0();
    }
    frontAndBack
    {
        type            empty;
    }
    procBoundary7to3
    {
        type            processor;
        value           nonuniform List<scalar> 
16
(
3.33111e-05
3.46087e-05
3.00804e-05
2.77607e-05
2.6094e-05
2.41113e-05
2.18211e-05
1.97038e-05
1.68217e-05
1.68217e-05
1.51033e-05
1.34796e-05
1.23712e-05
1.1131e-05
1.16548e-05
1.0588e-05
)
;
    }
    procBoundary7to6
    {
        type            processor;
        value           nonuniform List<scalar> 
91
(
3.01653e-05
2.69084e-05
2.69084e-05
2.62655e-05
2.62655e-05
1.68751e-05
1.68751e-05
1.60885e-05
2.17074e-05
2.17074e-05
1.92685e-05
2.07818e-05
2.07818e-05
2.28905e-05
2.14745e-05
2.14092e-05
2.14092e-05
2.47232e-05
2.39227e-05
2.29543e-05
2.29543e-05
2.80576e-05
2.70463e-05
2.60471e-05
2.5063e-05
2.5063e-05
3.19367e-05
3.09438e-05
2.99604e-05
2.89891e-05
2.80315e-05
2.80315e-05
3.66134e-05
3.57655e-05
3.49025e-05
3.40266e-05
3.31418e-05
3.22513e-05
3.13584e-05
3.13584e-05
4.11385e-05
4.07393e-05
4.03125e-05
3.98559e-05
3.9368e-05
3.88484e-05
3.82968e-05
3.77138e-05
3.71004e-05
3.64589e-05
3.57902e-05
3.50965e-05
3.50965e-05
2.53414e-08
0
2.89222e-06
0.000584038
0.000550457
0.0051175
0.0135175
0.0235562
0.0329669
0.0403003
0.0446038
0.0449588
0.0402207
0.0283512
0.0167416
0.0352285
0.0427811
0.0428696
0.0365728
0.025699
0.0136155
0.00453776
0.000554984
0.000199635
0
0
0
7.0301e-06
2.6576e-05
4.22465e-05
4.27563e-05
4.01825e-05
3.92094e-05
3.90725e-05
3.8866e-05
3.85495e-05
3.82335e-05
3.82335e-05
)
;
    }
}


// ************************************************************************* //
