/*--------------------------------*- C++ -*----------------------------------*\
| =========                 |                                                 |
| \\      /  F ield         | OpenFOAM: The Open Source CFD Toolbox           |
|  \\    /   O peration     | Version:  2506                                  |
|   \\  /    A nd           | Website:  www.openfoam.com                      |
|    \\/     M anipulation  |                                                 |
\*---------------------------------------------------------------------------*/
FoamFile
{
    version     2.0;
    format      ascii;
    arch        "LSB;label=32;scalar=64";
    class       volVectorField;
    location    "90.013419639809229";
    object      ddt0(U);
}
// * * * * * * * * * * * * * * * * * * * * * * * * * * * * * * * * * * * * * //

dimensions      [0 1 -2 0 0 0 0];

internalField   nonuniform List<vector> 
9700
(
(-0.00353037 -0.000340955 -8.90973e-23)
(-0.00357092 -0.00114616 -3.59693e-24)
(-0.00245313 -0.000319837 -4.68051e-28)
(-0.00360555 -0.00196191 1.29175e-22)
(-0.00240841 -0.00111661 3.44477e-24)
(-0.0019628 -0.000277734 7.66183e-23)
(-0.00369326 -0.00295282 1.11536e-23)
(-0.00229773 -0.00189159 7.72704e-36)
(-0.00188189 -0.00100289 7.26915e-23)
(-0.00137521 -0.000220605 0)
(-0.00380381 -0.00413949 -1.16968e-22)
(-0.00212662 -0.00285383 -8.52443e-24)
(-0.00170638 -0.00168774 6.4805e-22)
(-0.00125193 -0.000837061 7.49161e-23)
(-0.000958617 -0.000150495 -6.36693e-23)
(-0.00394952 -0.00563856 -1.6792e-22)
(-0.00186743 -0.00398899 4.29219e-27)
(-0.00142112 -0.00254849 1.22481e-22)
(-0.000999137 -0.0013933 -1.40335e-35)
(-0.000807396 -0.000623369 -7.81016e-23)
(-0.000665244 -7.2949e-05 -1.40596e-27)
(-0.00413322 -0.00754082 -2.02959e-22)
(-0.00150118 -0.00542791 -5.89741e-27)
(-0.00100115 -0.00355643 1.37142e-22)
(-0.000578328 -0.00210452 -1.88536e-22)
(-0.000503983 -0.00101879 -4.785e-22)
(-0.000496853 -0.000379583 1.37467e-23)
(-0.000529168 6.45423e-06 3.61524e-23)
(-0.00436414 -0.0100069 -2.97186e-22)
(-0.000989346 -0.00724844 -2.12277e-22)
(-0.000407262 -0.00483246 9.19104e-23)
(3.43935e-05 -0.00292656 0)
(7.68643e-06 -0.00153782 -2.92722e-23)
(-0.000163218 -0.000594046 1.66747e-36)
(-0.000357026 -0.000123606 2.16496e-23)
(-0.000544864 8.15786e-05 2.5199e-22)
(-0.00464033 -0.013231 3.19168e-22)
(-0.000282032 -0.0096039 3.15768e-22)
(0.000409379 -0.00644387 -2.03629e-22)
(0.000898187 -0.0039678 0)
(0.000749403 -0.00212349 -3.33439e-23)
(0.000405169 -0.000892964 -3.4501e-23)
(-1.93414e-05 -0.000150078 2.74036e-26)
(-0.000382234 0.000125127 2.84481e-22)
(-0.000703412 0.000146449 1.00392e-24)
(-0.00482015 -0.0174166 4.6524e-22)
(0.000683143 -0.0126543 4.43978e-22)
(0.00151842 -0.00852654 2.08868e-21)
(0.00208054 -0.00527784 7.12582e-37)
(0.00179575 -0.00286346 -1.44714e-22)
(0.0012274 -0.00120876 1.75623e-26)
(0.00056185 -0.00021658 8.75833e-23)
(-6.6547e-05 0.000279587 3.72435e-23)
(-0.000563189 0.000347524 -1.29621e-22)
(-0.000982152 0.000195685 -1.07611e-22)
(-0.00478084 -0.0227728 -4.02258e-22)
(0.00195331 -0.0166245 -5.96796e-23)
(0.0030119 -0.0112122 -7.28773e-23)
(0.00367918 -0.00697206 -2.19525e-22)
(0.00322719 -0.00378728 -6.6849e-22)
(0.00238933 -0.00160216 -2.37987e-26)
(0.00140174 -0.000247492 9.12982e-23)
(0.000483238 0.000440626 2.59306e-22)
(-0.000294709 0.000661878 -2.27906e-23)
(-0.000875811 0.000525895 -1.06695e-22)
(-0.00134928 0.000225119 0)
(-0.00444039 -0.0296375 -1.17587e-22)
(0.00361841 -0.0217327 -8.91865e-23)
(0.00502383 -0.014706 -2.32089e-21)
(0.00581891 -0.00916218 -9.27336e-22)
(0.00516223 -0.00498119 -1.15255e-21)
(0.00398105 -0.00208043 -8.52572e-22)
(0.00259187 -0.000271849 -2.51373e-23)
(0.0012772 0.00068898 2.11487e-22)
(0.00018028 0.00102824 2.6857e-22)
(-0.000676459 0.000966155 5.25077e-27)
(-0.00128598 0.00064556 7.39999e-38)
(-0.00176552 0.000232229 -2.3603e-24)
(-0.003584 -0.0382911 -4.92564e-21)
(0.00582057 -0.0283063 -7.52643e-22)
(0.00767988 -0.0192227 3.81e-22)
(0.00864745 -0.0120274 3.75682e-22)
(0.00775521 -0.00652629 1.15563e-21)
(0.00613764 -0.00269315 1.12396e-22)
(0.00422641 -0.000272749 -6.08528e-22)
(0.00240613 0.00102993 1.80273e-22)
(0.000865585 0.00152902 -2.7567e-27)
(-0.00031481 0.00149908 1.45631e-23)
(-0.00117251 0.00116706 -3.31531e-37)
(-0.00175114 0.00069629 -7.25306e-24)
(-0.00218732 0.000216282 -4.72745e-28)
(-0.00174754 -0.0489779 1.13815e-22)
(0.00871434 -0.03663 -1.20485e-34)
(0.0111324 -0.0250914 2.16651e-22)
(0.0123628 -0.0157518 1.55485e-21)
(0.0111928 -0.00856566 1.3497e-21)
(0.00903796 -0.00348617 1.60377e-21)
(0.00644966 -0.000256556 5.95137e-22)
(0.00396168 0.00150546 1.53456e-22)
(0.00184398 0.00220385 3.70931e-27)
(0.000205842 0.00220484 7.97064e-23)
(-0.00095461 0.00181361 9.08608e-38)
(-0.00173354 0.00124708 3.95113e-27)
(-0.00222377 0.000673176 4.717e-24)
(-0.00257006 0.000178399 -5.57127e-24)
(-0.000921757 -0.0629043 5.49092e-22)
(0.0126116 -0.0469535 1.08108e-21)
(0.0155595 -0.0326271 6.98049e-21)
(0.0171851 -0.0206545 1.72953e-21)
(0.0157323 -0.0112529 -1.29223e-22)
(0.0128994 -0.00454909 -1.89359e-22)
(0.00945547 -0.000226511 1.30241e-21)
(0.00608796 0.00215639 1.04961e-21)
(0.00319714 0.00311914 -6.81629e-22)
(0.000952866 0.00315456 7.84031e-23)
(-0.000642944 0.00265894 0)
(-0.00167862 0.00194405 3.47386e-23)
(-0.00230419 0.00119813 -5.12858e-37)
(-0.00265477 0.000577363 -1.0267e-23)
(-0.00287189 0.00012145 -6.84909e-24)
(-0.00636231 -0.0839416 4.89359e-21)
(0.0176193 -0.0594807 3.77248e-22)
(0.0211084 -0.0422987 8.67735e-22)
(0.0233694 -0.0270385 -2.10512e-34)
(0.0216517 -0.0148694 -5.17487e-22)
(0.0180421 -0.00599163 -2.43626e-22)
(0.0134876 -0.000203318 -3.86655e-22)
(0.00898068 0.00302853 -1.23469e-21)
(0.00505725 0.00436309 4.02798e-22)
(0.00199032 0.00443602 -2.49094e-22)
(-0.000192301 0.00379979 0)
(-0.00160404 0.00285025 4.51175e-23)
(-0.00241815 0.00187697 -1.05572e-23)
(-0.00282712 0.00102274 -8.01459e-23)
(-0.002998 0.000416125 -1.54942e-23)
(-0.0030575 4.97841e-05 -2.16955e-29)
(-0.0223642 -0.116204 -1.90283e-21)
(0.0229858 -0.0754836 1.15436e-22)
(0.0275239 -0.0543414 3.48368e-21)
(0.0310541 -0.0354138 -2.58046e-21)
(0.0293009 -0.0196956 -4.23893e-21)
(0.024801 -0.00802206 -1.88072e-21)
(0.0189136 -0.00023742 1.24457e-22)
(0.0128979 0.00418116 -1.68085e-21)
(0.00760573 0.00603408 3.4824e-22)
(0.00342556 0.00618052 8.93946e-23)
(0.00043689 0.00533962 -2.24863e-36)
(-0.00149185 0.00407963 6.51651e-24)
(-0.00258917 0.00275836 5.00961e-27)
(-0.00310142 0.00161546 -1.15958e-23)
(-0.00324832 0.000734218 -1.3642e-23)
(-0.0032144 0.000202183 8.11589e-24)
(-0.00310061 -3.10409e-05 4.26591e-24)
(-0.0401748 -0.159467 5.786e-21)
(0.0233455 -0.0988705 -1.91254e-21)
(0.0343549 -0.0692084 -1.56204e-21)
(0.0401609 -0.0459933 0)
(0.0387617 -0.0262121 6.26128e-23)
(0.0336055 -0.0108605 -1.54137e-35)
(0.0261093 -0.000420685 -2.7671e-22)
(0.0182277 0.00564429 1.87577e-21)
(0.0110959 0.00827631 -8.58445e-22)
(0.00540817 0.0085375 8.73196e-22)
(0.00131463 0.0074436 6.02054e-22)
(-0.00133198 0.00574285 -2.19504e-22)
(-0.00282914 0.00396307 -6.17922e-27)
(-0.00350532 0.00238695 -2.14503e-23)
(-0.00366055 0.00117942 -2.81642e-23)
(-0.00352212 0.000355347 7.40285e-23)
(-0.00327499 -4.72035e-05 8.74606e-24)
(-0.00298643 -0.000114738 -7.45445e-25)
(-0.0829562 -0.216434 -2.79018e-20)
(0.014517 -0.134042 2.02202e-21)
(0.0407648 -0.0881568 -2.1001e-21)
(0.0504934 -0.0594681 2.6967e-34)
(0.0500356 -0.0346582 3.87846e-21)
(0.0445616 -0.0148184 2.94601e-21)
(0.0355274 -0.000857328 4.76376e-22)
(0.02535 0.00748586 -3.98195e-22)
(0.0158964 0.011219 2.00364e-21)
(0.00816124 0.0117315 9.15899e-22)
(0.0025418 0.0103036 -7.48486e-22)
(-0.00110168 0.00802524 9.31161e-22)
(-0.00315968 0.00559859 -1.99636e-22)
(-0.00408 0.00345359 -4.36953e-23)
(-0.00426411 0.00176438 -3.0822e-23)
(-0.00403804 0.000603652 5.48176e-24)
(-0.00361471 -8.32275e-05 -4.12563e-23)
(-0.00316354 -0.000311883 -3.01134e-23)
(-0.00271265 -0.000194858 -5.75543e-29)
(-0.117656 -0.26624 2.36015e-21)
(-0.00533533 -0.18744 -3.59611e-22)
(0.0431018 -0.11537 9.62192e-21)
(0.0613459 -0.0764993 -3.28291e-35)
(0.0631886 -0.0461093 1.92731e-22)
(0.0580837 -0.0202809 1.39404e-21)
(0.047398 -0.00159939 6.16882e-22)
(0.0346667 0.00978066 -8.2909e-23)
(0.0223276 0.0151157 -2.38643e-21)
(0.0119862 0.0160029 1.4026e-21)
(0.0042813 0.014211 -1.00076e-21)
(-0.000762612 0.0111447 1.35653e-21)
(-0.00361024 0.00785343 2.32778e-23)
(-0.00487742 0.00490889 -8.19075e-23)
(-0.00512582 0.00259042 -4.49057e-23)
(-0.00479068 0.00094099 5.69526e-28)
(-0.00419137 -6.47493e-05 -6.48658e-25)
(-0.00350731 -0.000545957 -2.73618e-24)
(-0.0028777 -0.000570808 5.28154e-24)
(-0.0022897 -0.000265136 -5.17833e-24)
(-0.12471 -0.291103 -9.92542e-20)
(-0.037091 -0.259194 -1.66242e-21)
(0.0361358 -0.15469 -2.15664e-20)
(0.0711519 -0.0994282 -5.91375e-35)
(0.0780986 -0.0615837 -6.80529e-21)
(0.0747312 -0.0289257 -3.54585e-25)
(0.06297 -0.00332495 5.88652e-21)
(0.0467659 0.0127814 -6.04745e-22)
(0.0306876 0.0202903 1.71059e-22)
(0.0170637 0.0217896 1.594e-21)
(0.00671844 0.0195129 1.25968e-21)
(-0.000240267 0.0154355 -1.36541e-21)
(-0.00421264 0.0109485 2.91272e-22)
(-0.00597787 0.00692653 -8.76843e-22)
(-0.00632315 0.0037273 -1.13545e-22)
(-0.00586622 0.00144458 -9.0599e-28)
(-0.0050299 -1.48715e-05 2.43916e-24)
(-0.00409714 -0.000771074 7.20874e-23)
(-0.00319749 -0.000995942 -4.66166e-37)
(-0.00242916 -0.000803451 -3.89774e-23)
(-0.00173983 -0.000320002 7.18744e-25)
(-0.0944156 -0.287535 4.09598e-21)
(-0.0679564 -0.331443 1.62191e-22)
(0.0202132 -0.209506 -1.67133e-22)
(0.0758809 -0.129985 0)
(0.0927191 -0.0826501 -6.99706e-21)
(0.0942833 -0.0424126 -7.54184e-21)
(0.0834846 -0.00824727 -1.21954e-21)
(0.06411 0.0154117 -6.27845e-22)
(0.0422247 0.0272598 4.51217e-21)
(0.0236053 0.0296897 8.61391e-23)
(0.00982203 0.0268094 -1.81971e-37)
(0.000494811 0.0213227 2.55521e-22)
(-0.00499931 0.015228 -2.96831e-23)
(-0.00748236 0.00970511 2.67319e-22)
(-0.00797954 0.00531755 -4.58321e-22)
(-0.00735994 0.00215325 6.79415e-23)
(-0.00622769 0.000112954 4.41768e-23)
(-0.00495187 -0.00102392 -7.1895e-24)
(-0.0037526 -0.00145863 -1.49475e-23)
(-0.00269921 -0.00139745 -6.33192e-24)
(-0.00184244 -0.000991621 4.38138e-24)
(-0.00109501 -0.000355088 8.806e-23)
(-0.0487283 -0.256085 2.74496e-22)
(-0.0870585 -0.387267 1.88421e-21)
(-0.00311345 -0.276476 3.0199e-20)
(0.0718445 -0.171744 -2.36297e-35)
(0.103444 -0.107908 1.84614e-20)
(0.113175 -0.0618175 1.46628e-20)
(0.108164 -0.0184521 -8.78837e-21)
(0.0885183 0.0151265 -1.74751e-24)
(0.0606901 0.0347629 -2.77347e-26)
(0.0337769 0.040394 3.72369e-21)
(0.0137675 0.0369339 -1.31527e-35)
(0.00116771 0.0295083 2.00008e-22)
(-0.0061096 0.0211435 -3.26101e-23)
(-0.00953285 0.0135617 1.2963e-21)
(-0.0102555 0.00751425 2.54263e-22)
(-0.00942563 0.00316577 4.33591e-22)
(-0.00788843 0.000323155 2.57262e-22)
(-0.00617132 -0.00129215 -1.03093e-23)
(-0.00455391 -0.00200439 1.04729e-27)
(-0.00317545 -0.00207276 6.63876e-23)
(-0.00204132 -0.00171913 -2.40906e-23)
(-0.00115236 -0.00112087 1.0038e-22)
(-0.000394458 -0.000367621 -5.82686e-26)
(-0.0172232 -0.219671 7.3394e-22)
(-0.0828507 -0.412529 -1.57396e-24)
(-0.0306969 -0.347659 -6.4512e-21)
(0.0572032 -0.22571 -5.77779e-35)
(0.1076 -0.138456 9.13687e-21)
(0.126552 -0.0840393 1.02458e-20)
(0.130953 -0.0338192 7.16434e-21)
(0.117725 0.0101575 1.42963e-21)
(0.088189 0.0400624 -2.26807e-21)
(0.0523677 0.0523161 9.75993e-21)
(0.0215855 0.0505623 -2.26846e-35)
(0.00191941 0.0409074 3.13779e-21)
(-0.00803097 0.0293997 -2.05279e-22)
(-0.0124152 0.0189125 -2.19996e-22)
(-0.0133881 0.0105737 -2.92497e-22)
(-0.0122659 0.0045722 -1.87671e-22)
(-0.0101801 0.000663297 -4.48591e-23)
(-0.00785774 -0.00160514 -2.49691e-23)
(-0.00569518 -0.00265557 -1.5176e-27)
(-0.00385977 -0.00287804 -9.94037e-24)
(-0.0024017 -0.00256577 -1.20795e-23)
(-0.00126452 -0.00193651 1.24715e-23)
(-0.000401298 -0.00118115 1.86948e-23)
(0.000317838 -0.000356816 -9.83922e-23)
(0.00655546 -0.182567 7.50776e-25)
(-0.0609684 -0.416229 -4.29968e-22)
(-0.0453996 -0.404129 1.1548e-20)
(0.0351681 -0.288026 -1.02734e-34)
(0.103524 -0.174909 -2.79167e-20)
(0.132722 -0.107791 -3.16408e-20)
(0.145502 -0.0505432 -1.57072e-20)
(0.142838 0.00275866 5.41187e-22)
(0.119525 0.0429538 -1.15938e-20)
(0.0808323 0.0647572 4.31092e-21)
(0.0385829 0.0670492 0)
(0.00616632 0.0563313 8.22106e-22)
(-0.0107286 0.0408035 1.33495e-34)
(-0.0167429 0.0263593 -2.50037e-22)
(-0.0177634 0.0148201 -8.32486e-22)
(-0.0161849 0.00654269 -7.8405e-22)
(-0.0133251 0.00115122 -2.6946e-22)
(-0.0101763 -0.00196804 2.56061e-23)
(-0.00726835 -0.0034709 4.55723e-23)
(-0.00483264 -0.00386822 -1.35572e-23)
(-0.00291644 -0.00357741 -1.3643e-23)
(-0.00148158 -0.00290065 1.9603e-22)
(-0.000418006 -0.00203312 -1.19945e-22)
(0.000363433 -0.00116739 -1.11255e-22)
(0.000996794 -0.000323926 -9.75989e-24)
(0.0169324 -0.156455 -1.48499e-21)
(-0.0356592 -0.405967 1.50517e-20)
(-0.0473028 -0.435336 -8.50666e-20)
(0.0137677 -0.359725 -3.75245e-22)
(0.0891856 -0.217406 -6.15687e-21)
(0.132353 -0.131617 -2.64657e-21)
(0.151421 -0.0673201 9.81535e-21)
(0.157439 -0.00377906 9.56049e-21)
(0.143697 0.0478955 7.29167e-21)
(0.110496 0.0780246 -6.22296e-21)
(0.0648717 0.086985 -1.28369e-35)
(0.0190619 0.0767262 3.22127e-21)
(-0.0111413 0.0563966 1.67691e-22)
(-0.0226894 0.0364567 -5.75188e-21)
(-0.0240182 0.0206862 -1.34891e-21)
(-0.0216177 0.00926491 -1.40467e-22)
(-0.0176567 0.0018575 4.92985e-22)
(-0.0133456 -0.00243472 5.82576e-22)
(-0.00942039 -0.0045045 6.4065e-23)
(-0.00616881 -0.00512391 -3.37694e-23)
(-0.00364736 -0.0048373 1.93521e-23)
(-0.00178852 -0.00405098 2.0403e-22)
(-0.000475255 -0.00305267 -5.21948e-23)
(0.000443695 -0.00200144 -7.62102e-23)
(0.00109317 -0.00107967 -1.51914e-23)
(0.00159998 -0.000271784 -3.38321e-29)
(0.0179323 -0.143126 1.33444e-20)
(-0.0145558 -0.390765 8.03106e-21)
(-0.0336638 -0.453402 -1.15817e-22)
(-0.00982378 -0.411099 -1.10653e-25)
(0.0630875 -0.275571 -3.09902e-21)
(0.124682 -0.158749 8.7818e-21)
(0.150404 -0.0828922 2.68638e-20)
(0.162776 -0.0101867 1.46316e-20)
(0.157318 0.055743 2.35808e-20)
(0.13045 0.0982456 1.93995e-21)
(0.089697 0.112323 -5.71653e-35)
(0.0389125 0.104167 -2.23595e-21)
(-0.00532679 0.0786944 4.88109e-23)
(-0.028293 0.0503526 -6.43354e-22)
(-0.0325999 0.0284297 -4.28794e-22)
(-0.0291402 0.0129817 3.29837e-22)
(-0.0236142 0.00280867 6.035e-23)
(-0.0176873 -0.00303274 -2.79914e-22)
(-0.0123459 -0.00587233 2.2588e-36)
(-0.0079852 -0.00674065 -3.87403e-23)
(-0.00464749 -0.00643883 1.96918e-22)
(-0.00222495 -0.00549323 2.78118e-22)
(-0.00055226 -0.00426516 1.47919e-27)
(0.000551154 -0.00301048 -1.82398e-22)
(0.00126509 -0.001843 1.83851e-22)
(0.00174164 -0.000923108 1.8585e-23)
(0.00208948 -0.000204082 6.52154e-24)
(0.0139728 -0.13644 5.10611e-22)
(-4.5373e-07 -0.381603 8.48747e-22)
(-0.0204168 -0.45496 -1.85972e-20)
(-0.0166526 -0.449633 1.1177e-20)
(0.0402919 -0.331027 3.46796e-20)
(0.108712 -0.188558 2.075e-22)
(0.143314 -0.0980997 -6.00189e-21)
(0.160599 -0.0161116 1.95323e-20)
(0.162948 0.0630038 1.57637e-20)
(0.142652 0.122377 8.31143e-21)
(0.105051 0.147111 -3.03458e-38)
(0.0567258 0.142761 -5.5114e-21)
(0.00423199 0.111662 -2.54734e-26)
(-0.0312452 0.0715444 -1.88854e-21)
(-0.0431475 0.0390664 6.33548e-22)
(-0.0394344 0.0176681 1.91475e-21)
(-0.0316593 0.00406279 3.0755e-22)
(-0.0236096 -0.00389551 -1.16522e-21)
(-0.0163186 -0.00768558 -1.22969e-22)
(-0.0104385 -0.00888005 5.14182e-22)
(-0.00599649 -0.00850939 3.87842e-22)
(-0.00282014 -0.00732424 1.69063e-22)
(-0.000664729 -0.0057918 -2.03307e-27)
(0.000709562 -0.00420547 -2.30273e-22)
(0.00153074 -0.00277629 -5.14418e-24)
(0.00199402 -0.00156778 -5.36646e-36)
(0.00226695 -0.000707623 -7.98809e-24)
(0.00243474 -0.000124681 0)
(0.0101482 -0.135667 -6.19636e-22)
(0.00998278 -0.374722 -9.83496e-21)
(-0.00831911 -0.449983 3.40855e-20)
(-0.0167203 -0.470412 -2.47862e-20)
(0.0213047 -0.377808 -4.87068e-20)
(0.0861487 -0.22942 -8.4588e-22)
(0.130431 -0.112212 4.28094e-21)
(0.15208 -0.0223283 1.89328e-20)
(0.16138 0.0700414 -1.92861e-21)
(0.149402 0.144409 2.96575e-20)
(0.117188 0.185232 0)
(0.0641747 0.187529 2.73869e-20)
(0.0132838 0.159267 2.29304e-21)
(-0.0328591 0.104731 1.48541e-21)
(-0.0548917 0.0564169 -7.94021e-22)
(-0.0538292 0.0239172 -1.65909e-23)
(-0.0425216 0.00535235 -8.39541e-22)
(-0.0314416 -0.00512573 -1.43506e-21)
(-0.0216903 -0.0102113 -1.68721e-22)
(-0.0137289 -0.0117155 -2.76466e-22)
(-0.00780604 -0.0112363 -1.78801e-22)
(-0.00361389 -0.00969329 3.12167e-22)
(-0.000817952 -0.00772466 1.41563e-22)
(0.000927244 -0.0057151 -3.12353e-22)
(0.00191402 -0.00387633 -2.19878e-23)
(0.00240078 -0.0023649 -5.10762e-23)
(0.00258379 -0.00119341 -4.46712e-23)
(0.00263518 -0.000447303 6.98108e-24)
(0.00261442 -3.73771e-05 1.7957e-23)
(0.00478154 -0.140751 7.21593e-21)
(0.016343 -0.371043 3.52383e-22)
(0.00173068 -0.445367 1.47408e-20)
(-0.0121209 -0.47635 -2.84747e-20)
(0.00764678 -0.413092 7.64823e-21)
(0.0633338 -0.266977 -1.02608e-20)
(0.112728 -0.130611 -3.59342e-20)
(0.138141 -0.0270412 6.01717e-21)
(0.153453 0.074174 -2.44957e-20)
(0.150179 0.165857 2.26148e-20)
(0.123322 0.221229 -5.52723e-36)
(0.0780368 0.23092 -6.31025e-20)
(0.0155108 0.209408 -7.54418e-21)
(-0.0325935 0.14931 1.04623e-21)
(-0.0663072 0.0850786 1.27871e-20)
(-0.0732666 0.0349277 3.98553e-21)
(-0.0587734 0.00661697 -1.72952e-22)
(-0.0417148 -0.00716326 -2.09681e-23)
(-0.0286695 -0.0136782 1.77256e-22)
(-0.0181346 -0.0156032 -1.03667e-21)
(-0.0101913 -0.0148335 4.9581e-22)
(-0.00467105 -0.0127933 9.20226e-22)
(-0.00101334 -0.0102252 -4.48471e-22)
(0.0012217 -0.00762041 -4.32111e-22)
(0.00244611 -0.00527059 -2.97499e-23)
(0.00298398 -0.00329941 3.67377e-28)
(0.00310515 -0.00180274 5.17405e-23)
(0.00299664 -0.000743869 2.17082e-23)
(0.00282317 -0.000159354 1.20224e-23)
(0.00261718 5.35676e-05 1.62719e-25)
(0.00111975 -0.151168 2.32938e-21)
(0.0200856 -0.370443 1.64554e-21)
(0.00930549 -0.440466 -2.77956e-21)
(-0.00423489 -0.476822 4.13597e-20)
(-0.000583319 -0.434043 2.90705e-20)
(0.0442577 -0.30071 -1.18786e-20)
(0.0915496 -0.14903 -3.58238e-22)
(0.121187 -0.0323408 -2.34465e-20)
(0.138978 0.0784939 -1.12073e-20)
(0.144527 0.182646 -3.48184e-21)
(0.126281 0.256317 7.08935e-34)
(0.0856132 0.2779 6.18324e-21)
(0.0209304 0.254163 8.77819e-21)
(-0.0132792 0.199515 -8.6785e-21)
(-0.0745288 0.122669 -3.02025e-21)
(-0.0941778 0.0554463 -4.22478e-21)
(-0.0834002 0.00936806 -4.19908e-21)
(-0.0573791 -0.0106468 2.61982e-21)
(-0.0374519 -0.0186279 3.7446e-36)
(-0.0237646 -0.0208591 -1.34859e-21)
(-0.0133481 -0.0196944 -2.679e-23)
(-0.00602378 -0.0168619 1.0647e-22)
(-0.0012698 -0.0134747 7.2851e-22)
(0.00162585 -0.0100857 -6.10617e-22)
(0.00316525 -0.00702514 -1.08558e-22)
(0.00379526 -0.00448849 -5.47553e-28)
(0.00385066 -0.00251195 1.31358e-23)
(0.00359841 -0.00112601 -3.34273e-23)
(0.00320635 -0.000247895 -4.3677e-24)
(0.00281983 0.000137053 -2.63129e-23)
(0.00244309 0.000142291 1.62829e-23)
(-0.00421782 -0.165485 -4.952e-21)
(0.0221062 -0.371798 2.67302e-21)
(0.0145237 -0.436971 -7.2053e-21)
(0.00296618 -0.474503 -2.7973e-20)
(-0.00209695 -0.444925 6.44274e-20)
(0.0280043 -0.328327 5.41624e-21)
(0.0731214 -0.168811 -3.08207e-20)
(0.100903 -0.035677 -2.53086e-20)
(0.121775 0.0797504 1.82184e-20)
(0.132206 0.198914 6.00829e-21)
(0.123216 0.286353 1.11867e-34)
(0.0894988 0.325538 5.97515e-20)
(0.0363568 0.307253 -4.51951e-20)
(0.00483729 0.256817 7.05135e-21)
(-0.079432 0.169116 1.16673e-20)
(-0.109683 0.0862976 8.458e-22)
(-0.112906 0.0177426 -6.05852e-22)
(-0.0832894 -0.0162055 3.12323e-23)
(-0.0504456 -0.0259196 -3.25767e-22)
(-0.0305298 -0.028087 -1.81975e-22)
(-0.0172926 -0.0261824 1.21294e-22)
(-0.0077866 -0.02228 1.36239e-21)
(-0.00154915 -0.0177237 -1.13496e-21)
(0.00216472 -0.0132686 -4.06184e-22)
(0.00413333 -0.00929787 -5.38852e-23)
(0.00489098 -0.0059813 1.6521e-23)
(0.00488884 -0.00341942 1.75772e-23)
(0.00445818 -0.00156428 0)
(0.00384879 -0.000378248 1.63385e-23)
(0.00319938 0.00026239 -8.39666e-24)
(0.00262701 0.000422007 3.33813e-23)
(0.00210466 0.000220953 -2.23616e-23)
(-0.00574299 -0.18337 -1.58336e-21)
(0.0231912 -0.375648 1.25957e-20)
(0.0174788 -0.435066 5.03893e-21)
(0.00934112 -0.470483 -6.84059e-21)
(0.000116983 -0.450318 -6.71261e-20)
(0.0154029 -0.34881 -6.24682e-20)
(0.0565653 -0.18888 -1.07265e-20)
(0.0831924 -0.0416642 3.10038e-21)
(0.100392 0.083022 -2.64337e-20)
(0.118154 0.206585 2.7527e-21)
(0.115988 0.316555 -1.18216e-20)
(0.0892092 0.368697 -6.5061e-21)
(0.0418856 0.362952 -2.01367e-21)
(-0.016083 0.313747 1.52709e-21)
(-0.0805541 0.228904 5.52176e-21)
(-0.116899 0.125799 6.57241e-21)
(-0.137269 0.0355205 1.04908e-20)
(-0.118012 -0.0214779 -1.16333e-21)
(-0.073463 -0.0379333 3.86138e-21)
(-0.0397144 -0.0379925 1.55425e-21)
(-0.0218255 -0.0349407 -1.36939e-21)
(-0.00987518 -0.0294293 2.11803e-21)
(-0.00189074 -0.0233002 -4.26308e-22)
(0.00292869 -0.0174241 -1.03475e-21)
(0.00541692 -0.0122165 -6.68688e-22)
(0.00635671 -0.00791999 2.36185e-23)
(0.00629119 -0.00455661 -2.00654e-22)
(0.00565691 -0.00213111 0)
(0.00476697 -0.000516614 1.30451e-23)
(0.00383966 0.00039192 7.57283e-23)
(0.00297642 0.000752809 2.54372e-23)
(0.00225902 0.00067637 -3.98177e-23)
(0.00162643 0.000281914 -6.00128e-26)
(-0.00398003 -0.201841 -6.56373e-21)
(0.0242724 -0.380755 -5.43497e-21)
(0.0188947 -0.433944 6.24023e-21)
(0.0139317 -0.466895 -5.51896e-21)
(0.00369491 -0.450218 -8.55236e-20)
(0.00849461 -0.362678 -1.26974e-21)
(0.0401525 -0.20496 2.17666e-20)
(0.0672517 -0.0507284 -5.54992e-21)
(0.0814682 0.0831782 1.25373e-20)
(0.0959536 0.216221 -1.65757e-20)
(0.10723 0.332625 -1.20058e-27)
(0.0891429 0.410975 9.87868e-21)
(0.0454847 0.417546 7.7639e-21)
(-0.00917167 0.365953 -7.03704e-20)
(-0.0634637 0.283482 -3.98382e-21)
(-0.118377 0.169395 -1.19427e-20)
(-0.149791 0.062351 -4.68126e-21)
(-0.150394 -0.0211589 3.94098e-22)
(-0.108486 -0.0550135 -3.17787e-25)
(-0.0566918 -0.0536965 -3.7312e-22)
(-0.0270641 -0.0463669 -2.12426e-22)
(-0.0121391 -0.0389413 -6.31231e-23)
(-0.00211282 -0.0305982 6.09667e-22)
(0.00394942 -0.0228046 -1.57065e-21)
(0.00714053 -0.0160314 9.87503e-22)
(0.00829738 -0.0104014 -7.73371e-37)
(0.00816229 -0.00604082 -1.78038e-23)
(0.00727774 -0.00283981 -3.15582e-23)
(0.00604917 -0.000704435 -1.87681e-23)
(0.00475538 0.000563674 -2.39124e-27)
(0.00357115 0.00113309 5.72334e-23)
(0.00255293 0.00118952 2.03963e-23)
(0.00174109 0.000882978 1.18118e-23)
(0.00104339 0.0003206 -9.93904e-25)
(0.00167784 -0.221349 3.60714e-21)
(0.0255859 -0.384863 3.21868e-21)
(0.0196055 -0.43468 3.01128e-20)
(0.0168947 -0.463212 4.36913e-21)
(0.00728537 -0.447251 -2.92096e-21)
(0.00571768 -0.369656 6.04941e-20)
(0.0258823 -0.223895 7.51687e-21)
(0.0499521 -0.0574696 -6.64808e-20)
(0.0655522 0.0789983 -2.33878e-20)
(0.0746093 0.220758 7.65563e-21)
(0.0841348 0.356208 -1.64728e-20)
(0.0818955 0.438142 -8.1033e-20)
(0.0501827 0.464813 2.53477e-22)
(-0.00246146 0.424074 -1.48723e-21)
(-0.0574203 0.33179 1.04589e-19)
(-0.107262 0.215 1.6355e-20)
(-0.151135 0.092712 -3.7647e-23)
(-0.170766 -0.0115994 -1.5729e-21)
(-0.146443 -0.0723865 2.61217e-34)
(-0.0865911 -0.078208 6.13468e-21)
(-0.0367736 -0.0632249 -2.39337e-21)
(-0.0139104 -0.0510214 3.93298e-21)
(-0.00215678 -0.0401426 1.66555e-21)
(0.00547308 -0.0298253 -2.07229e-21)
(0.00940785 -0.0209155 1.35911e-22)
(0.0108587 -0.0136578 -4.55357e-23)
(0.0106408 -0.00793939 -3.98731e-22)
(0.0094402 -0.0037744 -2.79246e-22)
(0.00778608 -0.000936018 -1.74964e-22)
(0.00603701 0.000769949 3.65589e-27)
(0.00442209 0.00160488 1.17461e-22)
(0.00306083 0.00179458 -8.93032e-23)
(0.00195809 0.00154192 1.18893e-36)
(0.00110904 0.00102718 3.5857e-23)
(0.000397663 0.000335871 0)
(0.0112868 -0.242168 -8.73341e-22)
(0.0274702 -0.391299 -2.54834e-20)
(0.020912 -0.433022 -3.79594e-20)
(0.017758 -0.459465 8.12714e-21)
(0.00942852 -0.44256 4.91254e-20)
(0.00454496 -0.370599 -5.0337e-20)
(0.0141278 -0.234275 -3.1515e-20)
(0.0311474 -0.0577737 -5.30738e-20)
(0.0488926 0.075987 -1.16055e-19)
(0.0591239 0.218592 9.33549e-20)
(0.0623958 0.364075 4.16524e-20)
(0.0634811 0.48338 7.49401e-22)
(0.0398133 0.508986 4.72192e-22)
(0.000971206 0.469796 -1.23033e-20)
(-0.0508128 0.384334 -1.41753e-20)
(-0.101779 0.261565 -2.79279e-20)
(-0.146261 0.128283 -1.47316e-20)
(-0.177835 0.00610078 -6.87777e-22)
(-0.175246 -0.0825419 4.01566e-21)
(-0.125417 -0.110007 -1.58291e-21)
(-0.0571208 -0.0898617 -3.60256e-21)
(-0.017081 -0.0674332 6.52492e-21)
(-0.0010665 -0.0521998 -1.15402e-21)
(0.00753976 -0.0388108 6.44541e-23)
(0.0124761 -0.0273084 -2.25086e-22)
(0.0142176 -0.017798 -6.08129e-23)
(0.0138879 -0.0104504 -6.50623e-23)
(0.0123091 -0.00497438 -5.78153e-24)
(0.0101076 -0.0012559 3.38921e-23)
(0.00777735 0.00103619 -2.87628e-22)
(0.00561657 0.00219481 1.74215e-22)
(0.0037873 0.00253568 -1.59458e-22)
(0.0023427 0.00233025 -1.86388e-23)
(0.00123375 0.00178465 -1.61853e-23)
(0.000407604 0.00109825 -1.66912e-23)
(-0.000265105 0.000328132 8.31171e-24)
(0.0273372 -0.263664 -2.68974e-21)
(0.0325568 -0.389664 5.60424e-22)
(0.0203894 -0.434502 6.3149e-21)
(0.0178449 -0.455705 -6.52292e-20)
(0.0091338 -0.434892 6.70788e-20)
(0.00212237 -0.366635 2.82759e-20)
(0.00368983 -0.233913 -8.97351e-21)
(0.0114669 -0.0525846 1.33456e-21)
(0.0308567 0.0696843 2.48589e-20)
(0.0453255 0.21979 2.59848e-20)
(0.0492405 0.362101 -5.67827e-20)
(0.0491352 0.488141 -1.86744e-20)
(0.0387147 0.565279 2.97056e-21)
(-0.00376188 0.532102 9.88955e-20)
(-0.0469965 0.431211 7.50434e-20)
(-0.0947867 0.305494 1.63176e-21)
(-0.138717 0.165325 -1.78523e-20)
(-0.173997 0.0294018 4.37461e-22)
(-0.189263 -0.0832391 -1.35732e-20)
(-0.160898 -0.14014 6.7173e-21)
(-0.0902362 -0.129371 4.61303e-21)
(-0.0262551 -0.0920945 -7.20597e-21)
(0.000565586 -0.0674562 2.6661e-21)
(0.0110157 -0.0502881 -3.73621e-21)
(0.01648 -0.0353091 2.58239e-22)
(0.0186028 -0.0232619 6.37391e-22)
(0.0181464 -0.0136444 9.07483e-22)
(0.0160639 -0.00658745 9.74249e-22)
(0.0131966 -0.00167373 3.00712e-22)
(0.0101116 0.00136217 -2.5758e-22)
(0.0072432 0.00294872 2.29609e-22)
(0.00481074 0.00347255 -2.39133e-22)
(0.00289194 0.00329056 2.27048e-28)
(0.00146643 0.00270102 6.46749e-23)
(0.00043156 0.00189997 1.07348e-36)
(-0.000312799 0.00109071 4.50442e-23)
(-0.000898243 0.000298135 -1.06736e-28)
(0.0439502 -0.274284 1.77527e-20)
(0.03862 -0.392963 7.91321e-21)
(0.0259841 -0.424363 3.72643e-21)
(0.0149865 -0.44561 -2.14536e-23)
(0.00548473 -0.426627 -3.06111e-20)
(-0.00339624 -0.356565 6.45993e-20)
(-0.00686793 -0.22519 4.74126e-20)
(-0.00645102 -0.0438862 -7.83936e-20)
(0.010468 0.0617292 8.08626e-20)
(0.0320639 0.223057 -7.14821e-20)
(0.0361102 0.363232 -7.34483e-20)
(0.0406653 0.488999 -1.29308e-20)
(0.0378256 0.564058 5.73799e-21)
(0.00290203 0.560651 2.07652e-21)
(-0.0357901 0.484572 -4.09265e-20)
(-0.0857135 0.347029 -1.80072e-21)
(-0.128929 0.198016 1.71416e-20)
(-0.16466 0.0532893 -7.12093e-21)
(-0.18924 -0.0758009 2.37143e-20)
(-0.183544 -0.163245 2.14858e-21)
(-0.126984 -0.175181 -8.12812e-22)
(-0.0478485 -0.131001 6.19097e-21)
(0.000932486 -0.0885161 3.5974e-21)
(0.0159223 -0.0641012 -5.61068e-21)
(0.0219843 -0.045723 -2.45104e-22)
(0.0243078 -0.0300107 -6.20097e-35)
(0.0236258 -0.0179091 3.55615e-23)
(0.0209976 -0.00866209 8.17091e-23)
(0.0172526 -0.00227516 3.86769e-24)
(0.0132306 0.00177242 2.01735e-22)
(0.00943493 0.00391283 -3.37131e-22)
(0.00620922 0.00467104 -3.302e-22)
(0.00366905 0.00451271 1.17678e-28)
(0.00179716 0.00381353 1.77613e-22)
(0.000494339 0.00287881 3.9109e-23)
(-0.000391069 0.00187939 -1.17649e-23)
(-0.00100001 0.00100496 8.77197e-24)
(-0.00145672 0.000247477 -2.16255e-23)
(0.068386 -0.277331 -4.55906e-22)
(0.0409808 -0.376585 -7.52787e-22)
(0.0244691 -0.41447 8.45489e-20)
(0.00468156 -0.438332 2.88031e-21)
(-0.00182633 -0.406692 -1.46628e-20)
(-0.0129438 -0.341938 3.19733e-20)
(-0.0193659 -0.210961 4.51267e-20)
(-0.0210183 -0.0316644 3.54098e-20)
(-0.00751538 0.0486341 5.22227e-21)
(0.0184122 0.225278 3.04385e-20)
(0.0231507 0.366009 4.52856e-20)
(0.0287328 0.490438 2.54789e-20)
(0.031277 0.575341 9.16576e-21)
(0.0138774 0.584197 8.86835e-21)
(-0.0125212 0.485833 -4.81156e-20)
(-0.0677846 0.385964 -7.21338e-20)
(-0.116501 0.228415 -1.99392e-20)
(-0.151917 0.0743773 8.50756e-22)
(-0.179977 -0.0649649 -2.6513e-21)
(-0.190549 -0.175612 -2.16992e-21)
(-0.157071 -0.220242 -5.05754e-35)
(-0.0782666 -0.183793 -1.03384e-20)
(-0.00685628 -0.12058 1.24625e-21)
(0.0224569 -0.0819383 6.25771e-21)
(0.0293432 -0.0578955 -7.27007e-22)
(0.0315781 -0.0389547 -1.02903e-21)
(0.0307493 -0.0232047 -2.21703e-21)
(0.0273361 -0.0114959 -9.76983e-22)
(0.022602 -0.00308252 1.39431e-22)
(0.01735 0.00225102 3.36875e-22)
(0.0123797 0.00515035 -1.44949e-22)
(0.00810277 0.00622262 1.76999e-22)
(0.0047349 0.00607933 -4.32006e-23)
(0.00226779 0.00523616 2.84989e-22)
(0.00058062 0.00406393 0)
(-0.000503487 0.00284958 -9.47471e-23)
(-0.00117483 0.00172414 9.19479e-23)
(-0.00160414 0.00084753 -5.31886e-23)
(-0.00190086 0.000179413 -2.9482e-23)
(0.0811048 -0.267141 1.62463e-21)
(0.0411136 -0.358073 5.04936e-22)
(0.0195979 -0.389586 -6.83907e-20)
(-0.00357502 -0.403991 7.23085e-25)
(-0.00912207 -0.399271 2.27797e-20)
(-0.024767 -0.321292 1.72777e-20)
(-0.0340713 -0.194837 -1.91524e-20)
(-0.0323324 -0.0221694 7.04038e-20)
(-0.0248295 0.0411231 -9.03628e-20)
(0.00333683 0.228662 1.58772e-20)
(0.0109868 0.370027 -1.20113e-21)
(0.015658 0.491558 1.75645e-20)
(0.0212173 0.580466 3.83157e-20)
(0.0130735 0.602518 -5.5239e-20)
(-0.0129194 0.553651 1.60813e-20)
(-0.054198 0.413252 -2.16492e-21)
(-0.101691 0.257712 1.71085e-20)
(-0.136201 0.0931579 -2.08146e-21)
(-0.165113 -0.0541645 -2.42714e-21)
(-0.184607 -0.180397 5.15793e-20)
(-0.173758 -0.25615 -2.95543e-20)
(-0.110001 -0.243569 4.1759e-21)
(-0.0248486 -0.170452 9.76063e-21)
(0.026475 -0.105856 -8.19264e-21)
(0.0391702 -0.0733569 4.57282e-22)
(0.0410602 -0.0493272 1.05835e-22)
(0.0396114 -0.0303161 3.70988e-22)
(0.0355766 -0.0151073 -2.77126e-35)
(0.029518 -0.00429002 1.18447e-22)
(0.0228175 0.00281889 1.16608e-21)
(0.0162986 0.00672141 1.25498e-21)
(0.0106644 0.00823192 -1.38247e-21)
(0.0061867 0.00812352 -4.27867e-23)