/*--------------------------------*- C++ -*----------------------------------*\
| =========                 |                                                 |
| \\      /  F ield         | OpenFOAM: The Open Source CFD Toolbox           |
|  \\    /   O peration     | Version:  2506                                  |
|   \\  /    A nd           | Website:  www.openfoam.com                      |
|    \\/     M anipulation  |                                                 |
\*---------------------------------------------------------------------------*/
FoamFile
{
    version     2.0;
    format      ascii;
    arch        "LSB;label=32;scalar=64";
    class       surfaceScalarField;
    location    "90.013419639809229";
    object      phi;
}
// * * * * * * * * * * * * * * * * * * * * * * * * * * * * * * * * * * * * * //

dimensions      [0 3 -1 0 0 0 0];

oriented        oriented;

internalField   nonuniform List<scalar> 
19160
(
-0.000501602
-0.231326
-0.0010074
-0.231286
-0.000458514
-0.230868
-0.00151322
-0.231241
-0.000916437
-0.230828
-0.000436566
-0.230431
-0.00202624
-0.231136
-0.00137
-0.230787
-0.000870741
-0.230394
-0.000413205
-0.230018
-0.00254446
-0.231012
-0.00181947
-0.230687
-0.00129845
-0.23036
-0.000822145
-0.229985
-0.00039509
-0.229623
-0.00307302
-0.230823
-0.00226041
-0.230571
-0.00171618
-0.230269
-0.00122186
-0.22996
-0.00078478
-0.229595
-0.000382067
-0.229241
-0.00361328
-0.230555
-0.00269039
-0.230393
-0.00211882
-0.230169
-0.00160634
-0.229884
-0.0011633
-0.229581
-0.000758033
-0.229219
-0.000374299
-0.228867
-0.00417046
-0.230219
-0.00310406
-0.230141
-0.00250009
-0.230012
-0.00196833
-0.229807
-0.00152285
-0.229525
-0.00112175
-0.229218
-0.000742386
-0.228851
-0.000372299
-0.228494
-0.00474861
-0.229744
-0.00349575
-0.229828
-0.00285158
-0.22979
-0.00229829
-0.229682
-0.00185468
-0.229475
-0.00146431
-0.229182
-0.00109821
-0.228862
-0.000738826
-0.228485
-0.000375573
-0.228119
-0.00535265
-0.229136
-0.00385738
-0.229383
-0.00316236
-0.229517
-0.00258391
-0.229504
-0.00214686
-0.22939
-0.00177605
-0.229163
-0.00143253
-0.228848
-0.00109415
-0.228506
-0.000746356
-0.228114
-0.00038256
-0.227736
-0.00598838
-0.228311
-0.00417867
-0.228815
-0.00341791
-0.229127
-0.00280898
-0.229292
-0.00238418
-0.229267
-0.00204358
-0.229122
-0.00173557
-0.22886
-0.00142951
-0.228513
-0.00110804
-0.228145
-0.000761796
-0.227735
-0.000392476
-0.227344
-0.00666419
-0.227207
-0.00444649
-0.228043
-0.00359947
-0.228633
-0.00295216
-0.228984
-0.00254633
-0.22913
-0.00224974
-0.229061
-0.00199354
-0.228864
-0.00173582
-0.228554
-0.00145308
-0.228168
-0.00113493
-0.227772
-0.000783459
-0.227344
-0.000403467
-0.22694
-0.00738998
-0.225766
-0.00464467
-0.227009
-0.00368328
-0.227959
-0.00298561
-0.2286
-0.00260639
-0.228924
-0.00237153
-0.229008
-0.00218872
-0.228866
-0.00200003
-0.2286
-0.00177394
-0.228233
-0.00149637
-0.227806
-0.00117199
-0.227383
-0.000807494
-0.226939
-0.000413937
-0.226526
-0.00818653
-0.223834
-0.00475252
-0.225658
-0.00363946
-0.227053
-0.00287314
-0.228072
-0.0025292
-0.228677
-0.00237813
-0.228917
-0.00229707
-0.2289
-0.00220531
-0.22866
-0.00205947
-0.228314
-0.00184082
-0.227888
-0.00155497
-0.227423
-0.00121307
-0.226978
-0.000830526
-0.226523
-0.00042142
-0.226105
-0.00914284
-0.2213
-0.00473631
-0.22385
-0.00343188
-0.225866
-0.00256882
-0.227357
-0.00226806
-0.228333
-0.00222878
-0.228827
-0.00228611
-0.228928
-0.00232857
-0.228776
-0.00229521
-0.228425
-0.00216013
-0.227995
-0.00192993
-0.227513
-0.00161995
-0.227016
-0.00125268
-0.226555
-0.000847431
-0.226097
-0.000424895
-0.22568
-0.0105104
-0.218023
-0.00455963
-0.221477
-0.00301853
-0.224264
-0.00201488
-0.22642
-0.00176315
-0.227862
-0.00186832
-0.228694
-0.00211224
-0.229
-0.00233823
-0.228919
-0.00246108
-0.22861
-0.00244365
-0.228141
-0.00229255
-0.227632
-0.00202881
-0.227104
-0.00168311
-0.226586
-0.00128268
-0.22612
-0.000855986
-0.225666
-0.000423008
-0.225257
-0.0127245
-0.213988
-0.00423993
-0.218342
-0.00236255
-0.222133
-0.0011458
-0.225133
-0.000938389
-0.227245
-0.0012256
-0.228505
-0.00171545
-0.22909
-0.00219118
-0.229147
-0.00252927
-0.228851
-0.00267632
-0.228378
-0.00263712
-0.227796
-0.00243969
-0.227222
-0.00212569
-0.226662
-0.00173264
-0.226136
-0.0012993
-0.225677
-0.000853331
-0.225235
-0.000414159
-0.224843
-0.0162173
-0.209273
-0.00397515
-0.214253
-0.00143696
-0.219268
0.000103574
-0.223382
0.000290021
-0.226361
-0.000209368
-0.228261
-0.00101801
-0.229202
-0.0018272
-0.229454
-0.00246095
-0.229216
-0.00283693
-0.22869
-0.00295529
-0.22806
-0.00285256
-0.227384
-0.00258496
-0.226762
-0.00220415
-0.22619
-0.0017627
-0.225673
-0.00129793
-0.225232
-0.000836152
-0.224813
-0.000398575
-0.224444
-0.021377
-0.204203
-0.00406728
-0.209181
-0.000269287
-0.215421
0.00179417
-0.220959
0.00201695
-0.225109
0.00128296
-0.227854
7.90886e-05
-0.229358
-0.00116859
-0.229861
-0.00220144
-0.229714
-0.00289504
-0.229158
-0.00323485
-0.22841
-0.00326689
-0.227645
-0.00306674
-0.226902
-0.00270593
-0.22626
-0.00225541
-0.225698
-0.0017664
-0.225204
-0.00127333
-0.224795
-0.000804862
-0.224407
-0.000376334
-0.224068
-0.0280663
-0.199003
-0.00514012
-0.20313
0.000993994
-0.210444
0.00397186
-0.217598
0.00435055
-0.223292
0.00338697
-0.227213
0.00169544
-0.22947
-0.000117835
-0.230409
-0.00168153
-0.230381
-0.00280763
-0.229801
-0.00345747
-0.228935
-0.00368116
-0.227996
-0.0035787
-0.227133
-0.00324928
-0.226358
-0.00278964
-0.225726
-0.00226965
-0.225194
-0.00173623
-0.224741
-0.00122604
-0.224374
-0.000759627
-0.224024
-0.0003475
-0.22372
-0.0353717
-0.193113
-0.00786383
-0.196279
0.00200826
-0.204145
0.00660333
-0.213075
0.00739414
-0.220642
0.00627488
-0.22618
0.00402066
-0.229538
0.00146037
-0.231048
-0.000815853
-0.231274
-0.00252335
-0.230665
-0.00359741
-0.229661
-0.00409189
-0.228524
-0.00413054
-0.227444
-0.00384947
-0.226533
-0.0033812
-0.225767
-0.00282232
-0.225174
-0.00223651
-0.224694
-0.00167273
-0.224295
-0.00115633
-0.223977
-0.000700633
-0.223671
-0.000313796
-0.223407
-0.0419688
-0.185877
-0.0123184
-0.188658
0.00231645
-0.196587
0.00945978
-0.207001
0.0111506
-0.216832
0.010108
-0.224475
0.00730938
-0.229469
0.00382022
-0.231898
0.000545589
-0.23241
-0.0019786
-0.231819
-0.0036293
-0.230633
-0.00449471
-0.229258
-0.00473486
-0.22792
-0.00452677
-0.226767
-0.00405162
-0.225863
-0.00344331
-0.225146
-0.00278997
-0.22462
-0.00215638
-0.224211
-0.00157631
-0.223875
-0.00106462
-0.223613
-0.00063144
-0.223353
-0.00027655
-0.22313
-0.0467242
-0.176739
-0.0178701
-0.180325
0.00152533
-0.187867
0.0122005
-0.199328
0.0154512
-0.211302
0.0148753
-0.221599
0.0117733
-0.228939
0.00730136
-0.23295
0.00271921
-0.234072
-0.0010151
-0.233373
-0.0035198
-0.231929
-0.00489497
-0.230233
-0.00540994
-0.228583
-0.00530899
-0.227138
-0.00482986
-0.225989
-0.00415844
-0.225148
-0.00341692
-0.224519
-0.00269263
-0.224084
-0.0020299
-0.223757
-0.00144777
-0.223491
-0.000956528
-0.223288
-0.000554832
-0.223075
-0.000237683
-0.222892
-0.0493571
-0.16591
-0.0233244
-0.171284
-0.000443197
-0.178357
0.0143978
-0.190065
0.0200321
-0.203909
0.0203471
-0.216773
0.0173519
-0.227178
0.0121319
-0.233769
0.00610938
-0.23634
0.000723174
-0.23581
-0.00312113
-0.233772
-0.00529667
-0.231527
-0.0061915
-0.229451
-0.00623513
-0.227657
-0.00575623
-0.226211
-0.00500254
-0.225145
-0.00414503
-0.224419
-0.00330145
-0.22391
-0.00253128
-0.223583
-0.00185852
-0.223346
-0.0012952
-0.223153
-0.000836558
-0.223006
-0.000474798
-0.222838
-0.000198791
-0.222694
-0.0501831
-0.154259
-0.0275911
-0.161643
-0.00311106
-0.168617
0.0157048
-0.179664
0.0245469
-0.194579
0.0262385
-0.2098
0.0237239
-0.223145
0.0181667
-0.233213
0.0109058
-0.238566
0.00366138
-0.239278
-0.00207068
-0.23686
-0.00559234
-0.233476
-0.00712463
-0.230594
-0.00736576
-0.228321
-0.00688601
-0.226527
-0.00602429
-0.22519
-0.00501154
-0.224278
-0.00400985
-0.223711
-0.00309845
-0.223343
-0.00230845
-0.223133
-0.00165333
-0.222988
-0.00112523
-0.222864
-0.000711069
-0.22277
-0.000394688
-0.222642
-0.000162216
-0.222531
-0.0498631
-0.0967183
-0.0302885
-0.151562
-0.0057413
-0.159013
0.0160631
-0.168975
0.0286692
-0.183786
0.0322687
-0.20061
0.0305616
-0.216638
0.0250233
-0.230002
0.0168717
-0.239179
0.00790056
-0.242805
1.38268e-05
-0.241363
-0.00547896
-0.236974
-0.00817641
-0.232424
-0.00878425
-0.229175
-0.00829624
-0.22691
-0.0072892
-0.225263
-0.00606836
-0.224133
-0.00485407
-0.223434
-0.00375552
-0.223054
-0.00281221
-0.222839
-0.00203912
-0.222747
-0.00142376
-0.222689
-0.000947072
-0.222628
-0.000585477
-0.222579
-0.000319345
-0.222485
-0.000129709
-0.222402
-0.0490068
-0.0923574
-0.0311638
-0.0958429
-0.00776633
-0.149537
0.0157166
-0.158666
0.0320003
-0.172306
0.0381976
-0.189715
0.0375829
-0.207631
0.0323816
-0.223996
0.0236427
-0.236773
0.0131469
-0.244425
0.00316604
-0.245957
-0.00466866
-0.242173
-0.00917154
-0.235979
-0.0105546
-0.230654
-0.0100993
-0.227372
-0.00888189
-0.225318
-0.00738452
-0.223946
-0.00588403
-0.223103
-0.0045346
-0.222655
-0.00338911
-0.222477
-0.00246281
-0.222416
-0.0017364
-0.222434
-0.0011826
-0.222454
-0.000768736
-0.222445
-0.00046742
-0.222431
-0.000252442
-0.222362
-0.000102654
-0.222299
-0.0477941
-0.0887198
-0.0311239
-0.0923973
-0.00886562
-0.0947436
0.0152092
-0.149029
0.0344223
-0.161088
0.0436624
-0.177771
0.0445359
-0.196668
0.0399434
-0.215193
0.0309585
-0.231312
0.01917
-0.242796
0.00704749
-0.248306
-0.00309255
-0.247533
-0.00994596
-0.241399
-0.0126638
-0.233869
-0.0124593
-0.228294
-0.0109288
-0.225325
-0.0090436
-0.223659
-0.00716572
-0.222665
-0.00547914
-0.222158
-0.00406477
-0.221979
-0.00293769
-0.222002
-0.0020684
-0.222084
-0.00141768
-0.222199
-0.000941147
-0.222282
-0.000601144
-0.222311
-0.00036273
-0.222321
-0.000196914
-0.222268
-8.24856e-05
-0.222217
-0.0463297
-0.0860696
-0.0303152
-0.0895285
-0.0091465
-0.0921164
0.0143882
-0.0939227
0.036205
-0.150812
0.0484004
-0.165826
0.0511641
-0.184399
0.0474391
-0.204164
0.0385478
-0.222782
0.0257874
-0.237929
0.0116936
-0.247442
-0.000969031
-0.25043
-0.0103777
-0.247102
-0.0150324
-0.23903
-0.0155332
-0.230796
-0.0136732
-0.22555
-0.0111669
-0.223202
-0.00877494
-0.222049
-0.00664645
-0.221497
-0.00487272
-0.22135
-0.00348133
-0.221436
-0.00242629
-0.221644
-0.00165234
-0.221849
-0.0010986
-0.222042
-0.000714325
-0.222168
-0.000452737
-0.222221
-0.000276127
-0.222242
-0.000155747
-0.222194
-6.99359e-05
-0.222147
-0.0446846
-0.0845854
-0.028853
-0.0875318
-0.0086601
-0.0900149
0.0140574
-0.0917856
0.0363222
-0.0940398
0.052365
-0.154777
0.057254
-0.171916
0.0545918
-0.191552
0.0461299
-0.211746
0.0327866
-0.229781
0.0169995
-0.243235
0.00182276
-0.250234
-0.0101597
-0.250648
-0.0174914
-0.244643
-0.0193059
-0.235257
-0.0174377
-0.227031
-0.0140301
-0.222686
-0.0108113
-0.221166
-0.00809966
-0.220596
-0.00585745
-0.220513
-0.00411548
-0.220716
-0.00281885
-0.221043
-0.00188619
-0.22141
-0.00123596
-0.221711
-0.000798999
-0.221957
-0.000513782
-0.222107
-0.000330442
-0.222167
-0.000212287
-0.222185
-0.000130461
-0.222134
-6.53734e-05
-0.222081
-0.0427536
-0.0843693
-0.0268537
-0.0865848
-0.00749696
-0.0886949
0.0143278
-0.0902853
0.0364904
-0.0919538
0.0537334
-0.0954082
0.0626172
-0.16014
0.0612423
-0.178567
0.0533886
-0.198811
0.0398894
-0.218849
0.0227776
-0.235559
0.00528859
-0.246701
-0.00935925
-0.251035
-0.0194968
-0.248642
-0.023532
-0.240417
-0.0223304
-0.230365
-0.0180833
-0.222978
-0.0135259
-0.219972
-0.00990888
-0.219356
-0.00706583
-0.219388
-0.00486949
-0.219759
-0.0032555
-0.22028
-0.00211912
-0.22081
-0.00134623
-0.2213
-0.000845285
-0.221665
-0.000534566
-0.221936
-0.000349239
-0.222089
-0.000240912
-0.222138
-0.000173655
-0.222142
-0.000121766
-0.222078
-6.85148e-05
-0.222013
-0.0406535
-0.0857032
-0.0243233
-0.0868997
-0.0057376
-0.0883441
0.0152049
-0.089572
0.0369323
-0.0907272
0.054889
-0.0931095
0.0649759
-0.0977669
0.0671608
-0.166058
0.0601843
-0.185362
0.0468078
-0.205729
0.0287757
-0.224847
0.00923825
-0.239509
-0.00822815
-0.247832
-0.0209779
-0.249553
-0.0278276
-0.244347
-0.0280803
-0.234667
-0.0236107
-0.224837
-0.0174195
-0.219084
-0.0122566
-0.217624
-0.00853978
-0.217882
-0.00577159
-0.218486
-0.00374987
-0.219264
-0.00234868
-0.22005
-0.00142075
-0.220735
-0.000840192
-0.221305
-0.000501085
-0.221699
-0.000318603
-0.221967
-0.000229715
-0.2221
-0.000187739
-0.222124
-0.000161357
-0.222102
-0.000129037
-0.222017
-7.87375e-05
-0.221934
-0.0382306
-0.0884867
-0.0214467
-0.0885797
-0.00349143
-0.0891459
0.0166769
-0.0898161
0.0377733
-0.090413
0.0559894
-0.0918276
0.0671026
-0.0952361
0.0700203
-0.100626
0.0661796
-0.172054
0.0534182
-0.191973
0.0348357
-0.211789
0.0135327
-0.229141
-0.00657454
-0.241163
-0.0222882
-0.246522
-0.0318566
-0.245524
-0.0342417
-0.238186
-0.0304028
-0.227874
-0.0229548
-0.219302
-0.0155998
-0.215741
-0.0103766
-0.215787
-0.00684157
-0.216812
-0.00431047
-0.217925
-0.00257343
-0.21904
-0.00144637
-0.220024
-0.00076723
-0.220808
-0.000395213
-0.221411
-0.000221273
-0.221796
-0.000163022
-0.222033
-0.00016027
-0.222127
-0.000172553
-0.222113
-0.000174467
-0.222057
-0.000150946
-0.221945
-9.48262e-05
-0.221839
-0.0354361
-0.0927193
-0.0182284
-0.0917051
-0.00084451
-0.0912266
0.0186593
-0.0911283
0.0390426
-0.0910854
0.0571405
-0.0915641
0.0689908
-0.0937158
0.0726065
-0.0978223
0.0692481
-0.103695
0.0591685
-0.177804
0.0407594
-0.197897
0.0181582
-0.216414
-0.00444412
-0.231272
-0.0230577
-0.240393
-0.0353928
-0.242985
-0.0403872
-0.239379
-0.0379141
-0.230674
-0.0300981
-0.220731
-0.0205207
-0.214381
-0.0129104
-0.213207
-0.00810247
-0.214526
-0.00494003
-0.216183
-0.00278297
-0.217715
-0.00140774
-0.219078
-0.000604023
-0.220188
-0.000193648
-0.22101
-3.50625e-05
-0.221597
-2.13447e-05
-0.221938
-7.48009e-05
-0.222119
-0.000143189
-0.222157
-0.000194154
-0.222093
-0.000210833
-0.221997
-0.000185021
-0.221855
-0.000114987
-0.221724
-0.0322785
-0.0983202
-0.0147382
-0.0962094
0.00209581
-0.0946454
0.02106
-0.0936273
0.0407291
-0.0928148
0.0584695
-0.0924144
0.0707138
-0.093287
0.0748294
-0.0959387
0.0720447
-0.100619
0.0624095
-0.106936
0.0458598
-0.182904
0.0226735
-0.202412
-0.0018131
-0.219046
-0.0232688
-0.23106
-0.0384745
-0.237311
-0.0460087
-0.237364
-0.0455835
-0.23171
-0.0383435
-0.222429
-0.0272428
-0.214009
-0.0167221
-0.210569
-0.00973533
-0.211574
-0.00561213
-0.213854
-0.00296463
-0.216001
-0.00127832
-0.217845
-0.000322668
-0.21936
0.000133723
-0.220515
0.000268802
-0.221314
0.000220342
-0.221839
8.91992e-05
-0.222102
-5.70939e-05
-0.222205
-0.000177065
-0.222174
-0.000249384
-0.222055
-0.000266529
-0.221916
-0.000227616
-0.221742
-0.000137451
-0.221587
-0.0263637
-0.160614
-0.0110882
-0.10197
0.00525559
-0.0993692
0.0237425
-0.097328
0.0427528
-0.0956511
0.0599726
-0.094318
0.0722357
-0.0939363
0.0766168
-0.0950744
0.0744794
-0.0983734
0.0653078
-0.103517
0.0491747
-0.110251
0.0266918
-0.186922
0.000670118
-0.204895
-0.0230451
-0.219269
-0.0410228
-0.228512
-0.0511952
-0.232125
-0.0529525
-0.229995
-0.0470372
-0.223016
-0.0354456
-0.214226
-0.0222757
-0.208456
-0.0121856
-0.208119
-0.00637822
-0.210808
-0.00306563
-0.213753
-0.001029
-0.21625
0.000116056
-0.218284
0.000625813
-0.219852
0.000726706
-0.220973
0.000594732
-0.221688
0.000358181
-0.222108
0.000106003
-0.222265
-0.000108408
-0.222274
-0.000257481
-0.222166
-0.000332607
-0.221989
-0.000335788
-0.221807
-0.000275043
-0.221604
-0.000160134
-0.221427
-0.0198636
-0.178568
-0.00515614
-0.166546
0.00846059
-0.105175
0.0265701
-0.102197
0.0449852
-0.0995604
0.0616251
-0.0973036
0.0736554
-0.0957377
0.0779829
-0.0953024
0.0764922
-0.0970873
0.0678406
-0.100906
0.0521392
-0.106482
0.0300521
-0.113611
0.00336767
-0.18962
-0.0226279
-0.205312
-0.0430959
-0.217196
-0.0558285
-0.223879
-0.0598442
-0.225233
-0.0556068
-0.221425
-0.0444725
-0.213989
-0.0295386
-0.206963
-0.0160302
-0.204611
-0.00747159
-0.207026
-0.00305883
-0.210815
-0.000595267
-0.214187
0.000758891
-0.216893
0.0013319
-0.21899
0.00138663
-0.220512
0.00114296
-0.221521
0.000766917
-0.222097
0.000372388
-0.222374
3.04348e-05
-0.222404
-0.000222759
-0.222308
-0.000376721
-0.222121
-0.000435563
-0.221889
-0.000412673
-0.22167
-0.000322922
-0.221442
-0.000181101
-0.221246
-0.0132423
-0.197366
0.000801897
-0.184526
0.0130821
-0.171168
0.0293659
-0.107971
0.0472227
-0.104434
0.063251
-0.101186
0.0748001
-0.0984483
0.0789031
-0.0966579
0.0780581
-0.0968683
0.0699579
-0.0992046
0.0546445
-0.103411
0.0331032
-0.109533
0.00666458
-0.116908
-0.0212932
-0.190955
-0.0443949
-0.204013
-0.0598071
-0.213218
-0.0660928
-0.21763
-0.0636857
-0.217154
-0.0536257
-0.212272
-0.0380131
-0.205515
-0.0215309
-0.201462
-0.00940046
-0.202682
-0.00298273
-0.207102
8.69154e-05
-0.211497
0.00167598
-0.215104
0.00231564
-0.217877
0.00230658
-0.21991
0.00191983
-0.221288
0.00135946
-0.222114
0.000776875
-0.222502
0.000263808
-0.222608
-0.000129596
-0.222497
-0.000389876
-0.222295
-0.000523492
-0.222034
-0.000549538
-0.221752
-0.000490196
-0.221502
-0.000367151
-0.221256
-0.000198168
-0.221047
-0.00699432
-0.215415
0.00627632
-0.202841
0.0174664
-0.18891
0.0326103
-0.174412
0.0492431
-0.109991
0.0646764
-0.10586
0.0756444
-0.102031
0.079467
-0.0990121
0.0790813
-0.0976811
0.0716196
-0.09853
0.0566351
-0.101195
0.0356302
-0.105938
0.00963909
-0.112507
-0.0185108
-0.11969
-0.0447422
-0.190608
-0.0628229
-0.200997
-0.0715506
-0.20776
-0.0710306
-0.210285
-0.0623731
-0.208407
-0.046996
-0.203289
-0.0284929
-0.198553
-0.0126019
-0.198261
-0.00314162
-0.202523
0.00109513
-0.20811
0.0029517
-0.212773
0.00365239
-0.216441
0.00356446
-0.219135
0.0029913
-0.220981
0.00219488
-0.222124
0.00136409
-0.222701
0.000624239
-0.222862
4.26142e-05
-0.22278
-0.000360671
-0.222526
-0.000594702
-0.222224
-0.000685537
-0.221898
-0.000664362
-0.221578
-0.000561773
-0.221308
-0.000403157
-0.221051
-0.000210002
-0.220837
-0.00159856
-0.231342
0.0109088
-0.220048
0.0210855
-0.20646
0.03521
-0.19151
0.0508744
-0.176044
0.0656431
-0.110958
0.0760438
-0.106259
0.0796929
-0.102256
0.0795705
-0.0995013
0.0727131
-0.0987746
0.0580127
-0.0999077
0.0375221
-0.103087
0.0120996
-0.108399
-0.0159765
-0.115042
-0.0429956
-0.121437
-0.0650382
-0.188392
-0.0760589
-0.196489
-0.0774348
-0.201356
-0.0703592
-0.202299
-0.0558197
-0.199583
-0.0363853
-0.195397
-0.0171998
-0.193955
-0.00396542
-0.197437
0.00234958
-0.203778
0.00469718
-0.209856
0.00544372
-0.214564
0.00524497
-0.218121
0.0044467
-0.22059
0.00334553
-0.222132
0.00219442
-0.222954
0.00115403
-0.223231
0.000321716
-0.223141
-0.00027391
-0.222867
-0.000643004
-0.222478
-0.000820359
-0.222089
-0.000848683
-0.221713
-0.00077038
-0.221369
-0.00062012
-0.221091
-0.000428135
-0.220832
-0.000215431
-0.220622
0.00269676
-0.243659
0.014315
-0.234748
0.0237588
-0.222721
0.0369056
-0.208156
0.0513958
-0.192031
0.0654851
-0.175885
0.0759337
-0.110848
0.0795829
-0.106149
0.0794927
-0.102179
0.0731594
-0.0999476
0.0588234
-0.0995852
0.0387589
-0.101144
0.0139303
-0.104918
-0.0137953
-0.11058
-0.0411501
-0.116887
-0.0644549
-0.12202
-0.0796918
-0.184759
-0.082679
-0.191245
-0.0773052
-0.19441
-0.0640081
-0.194111
-0.0445229
-0.191446
-0.0229826
-0.189614
-0.00574311
-0.192177
0.00357253
-0.19866
0.0069821
-0.206063
0.00780057
-0.212212
0.00746835
-0.216788
0.00638466
-0.220059
0.00490967
-0.222154
0.00334367
-0.223281
0.00191111
-0.223711
0.000744492
-0.223653
-0.000108836
-0.223306
-0.000660047
-0.22285
-0.000953626
-0.222344
-0.00104749
-0.22189
-0.000999349
-0.221484
-0.000857011
-0.221132
-0.000660712
-0.220858
-0.000439654
-0.220608
-0.000213428
-0.220409
0.00587188
-0.251361
0.0164169
-0.245761
0.025261
-0.23625
0.0374677
-0.223283
0.0509061
-0.207666
0.0640911
-0.190637
0.0742708
-0.174223
0.0790393
-0.110304
0.0788282
-0.105485
0.072778
-0.101797
0.0589312
-0.100055
0.0392729
-0.100099
0.0150694
-0.102284
-0.0121181
-0.106595
-0.0394248
-0.112305
-0.0634181
-0.117924
-0.0802187
-0.121493
-0.0866302
-0.180808
-0.0830094
-0.185541
-0.0712267
-0.187191
-0.0523414
-0.186292
-0.0294537
-0.184975
-0.00859917
-0.186758
0.00448715
-0.193092
0.00975114
-0.201429
0.0108569
-0.209119
0.0103444
-0.215088
0.00894461
-0.219348
0.00700203
-0.222152
0.00491607
-0.223727
0.00297025
-0.22434
0.00136204
-0.224329
0.000162521
-0.223925
-0.00063421
-0.223332
-0.00108476
-0.222719
-0.00126634
-0.222126
-0.00125734
-0.221632
-0.00112281
-0.221218
-0.00091756
-0.220875
-0.00067967
-0.220618
-0.000435608
-0.220386
-0.000204193
-0.220204
0.0079468
-0.254206
0.0175176
-0.252462
0.0255095
-0.246009
0.0368497
-0.235632
0.0492388
-0.221616
0.0615481
-0.205123
0.0714917
-0.187858
0.0768781
-0.172061
0.0775059
-0.108982
0.071519
-0.104226
0.0582798
-0.101146
0.039099
-0.0998815
0.0154633
-0.100493
-0.0110676
-0.103334
-0.0379965
-0.108023
-0.062214
-0.11351
-0.0801214
-0.118021
-0.0878576
-0.120266
-0.0873015
-0.176516
-0.0773659
-0.179401
-0.0593917
-0.180141
-0.0360596
-0.179686
-0.0123971
-0.181177
0.00480889
-0.18708
0.0127887
-0.196129
0.014705
-0.205277
0.0140333
-0.212808
0.0122542
-0.218398
0.00978167
-0.222127
0.00704096
-0.224277
0.00443664
-0.225193
0.00224237
-0.225221
0.000579619
-0.224746
-0.000549413
-0.22401
-0.00121261
-0.223204
-0.00151272
-0.222472
-0.00155545
-0.221827
-0.00142978
-0.221325
-0.00120953
-0.220926
-0.000946387
-0.220609
-0.000673693
-0.22038
-0.000416424
-0.220174
-0.000188031
-0.220016
0.00907395
-0.253518
0.0176599
-0.254348
0.0247284
-0.251681
0.0350311
-0.244191
0.0464044
-0.232798
0.0578544
-0.217922
0.0674608
-0.201092
0.0732821
-0.184262
0.0742469
-0.168802
0.0693815
-0.106845
0.0567352
-0.102681
0.0381612
-0.100208
0.0151073
-0.0995255
-0.0106751
-0.100886
-0.0370047
-0.104326
-0.0610106
-0.109227
-0.079524
-0.114107
-0.0885131
-0.117366
-0.0890886
-0.118479
-0.0822734
-0.171609
-0.065563
-0.17323
-0.0422295
-0.173971
-0.0167433
-0.17534
0.00432677
-0.180695
0.0158484
-0.190139
0.0192158
-0.20064
0.0186472
-0.209891
0.0164771
-0.217031
0.0134026
-0.222019
0.00989349
-0.22498
0.00644745
-0.226287
0.00348427
-0.226435
0.00119717
-0.225838
-0.000382327
-0.224913
-0.00133517
-0.223887
-0.00179638
-0.22292
-0.00190874
-0.222119
-0.00179365
-0.221464
-0.0015515
-0.220983
-0.00125167
-0.220621
-0.000938794
-0.220344
-0.000643473
-0.220153
-0.000382771
-0.219979
-0.000165946
-0.21985
0.00924348
-0.249294
0.0165432
-0.252401
0.0230277
-0.252647
0.0320619
-0.248711
0.0424583
-0.240245
0.0529837
-0.227927
0.0621602
-0.212621
0.0681854
-0.195995
0.0696187
-0.179634
0.0654297
-0.16485
0.0542284
-0.104338
0.0363408
-0.100861
0.014015
-0.0991157
-0.0110192
-0.0991814
-0.0365026
-0.101388
-0.0599313
-0.105405
-0.0785128
-0.110238
-0.0886201
-0.114
-0.0901104
-0.116344
-0.0852669
-0.115485
-0.0705774
-0.166594
-0.0477597
-0.1677
-0.0211379
-0.169576
0.00317634
-0.17419
0.0186127
-0.183459
0.0242435
-0.195167
0.0241462
-0.206139
0.0217094
-0.215123
0.018026
-0.221654
0.0136451
-0.225771
0.00918071
-0.227713
0.00521994
-0.228023
0.0020978
-0.227336
-9.83981e-05
-0.226122
-0.00144873
-0.224799
-0.00213044
-0.223553
-0.00233729
-0.222492
-0.0022358
-0.221677
-0.00196249
-0.221053
-0.00161174
-0.220623
-0.00124282
-0.220317
-0.000895795
-0.220091
-0.000590152
-0.219946
-0.000336762
-0.219808
-0.00013904
-0.219711
0.00882013
-0.243667
0.0146059
-0.247356
0.0201937
-0.249567
0.0280689
-0.248655
0.0373084
-0.243562
0.0470144
-0.234275
0.0556354
-0.221402
0.0616864
-0.206122
0.0636203
-0.189997
0.0601577
-0.174362
0.0503416
-0.160964
0.0335499
-0.101547
0.0120469
-0.0988925
-0.012077
-0.0980578
-0.0365566
-0.0991274
-0.0591497
-0.102169
-0.0772923
-0.106626
-0.0881473
-0.11071
-0.0905049
-0.113606
-0.0873386
-0.114272
-0.0743667
-0.111696
-0.0523766
-0.161977
-0.0251953
-0.163642
0.00149474
-0.167895
0.0209526
-0.17653
0.029551
-0.188766
0.030462
-0.201483
0.0279516
-0.212381
0.0237474
-0.220845
0.0184615
-0.22647
0.0128069
-0.229397
0.00760721
-0.2301
0.00338964
-0.229315
0.000357603
-0.227792
-0.00154406
-0.226027
-0.00253176
-0.224398
-0.00286849
-0.223022
-0.00278492
-0.221943
-0.00246833
-0.221171
-0.00204734
-0.220617
-0.00160204
-0.220264
-0.00118444
-0.220028
-0.000819175
-0.219862
-0.000517152
-0.219765
-0.000280721
-0.219667
-0.00010925
-0.219602
0.00805364
-0.239179
0.0125608
-0.241622
0.0170153
-0.244178
0.0235629
-0.245061
0.0314606
-0.242807
0.0401055
-0.236653
0.0480591
-0.226699
0.0539526
-0.213669
0.0562787
-0.198781
0.0536771
-0.183516
0.0451765
-0.169197
0.0301722
-0.157586
0.00923106
-0.0987311
-0.0138
-0.0971695
-0.0371496
-0.0974648
-0.0585553
-0.0997218
-0.0759396
-0.103522
-0.087119
-0.107654
-0.090377
-0.110838
-0.0884823
-0.112462
-0.0770947
-0.111544
-0.0567559
-0.107317
-0.0288651
-0.158308
-0.000161101
-0.161987
0.0226416
-0.169584
0.0348658
-0.181845
0.0374291
-0.195733
0.0351564
-0.208688
0.0305888
-0.219223
0.0244662
-0.22685
0.0175093
-0.231173
0.0107996
-0.232589
0.00518299
-0.231894
0.00104738
-0.230005
-0.00160365
-0.227732
-0.00302008
-0.225538
-0.00353919
-0.223727
-0.00348029
-0.222326
-0.00310372
-0.221307
-0.00258648
-0.220632
-0.00203711
-0.220182
-0.00152442
-0.219924
-0.00107922
-0.219768
-0.000714003
-0.219665
-0.000428271
-0.219618
-0.000218677
-0.219557
-7.83467e-05
-0.219524
0.00719135
-0.236632
0.0106907
-0.237309
0.0141161
-0.238723
0.0192027
-0.239818
0.0255434
-0.239144
0.0328225
-0.235524
0.039837
-0.22843
0.045337
-0.218083
0.047875
-0.205265
0.0460766
-0.19118
0.0389698
-0.17731
0.0258813
-0.164906
0.0070446
-0.1554
-0.0159951
-0.0965361
-0.0379768
-0.0963423
-0.0580701
-0.09795
-0.0744767
-0.101185
-0.0855373
-0.105104
-0.089762
-0.108269
-0.0887195
-0.110601
-0.0787508
-0.110806
-0.0599738
-0.108326
-0.0336047
-0.102577
-0.00196992
-0.156499
0.0240649
-0.16341
0.0398221
-0.17454
0.0447595
-0.189175
0.0431569
-0.203734
0.0384752
-0.216574
0.0317101
-0.226467
0.0234757
-0.232816
0.0150226
-0.235396
0.00761152
-0.235018
0.00201041
-0.232857
-0.00163102
-0.229977
-0.00362202
-0.22713
-0.00439764
-0.22468
-0.00437544
-0.222832
-0.00391616
-0.221514
-0.00326674
-0.220627
-0.00257583
-0.220093
-0.00193471
-0.219772
-0.00138292
-0.219621
-0.00093438
-0.219548
-0.000585954
-0.219508
-0.000329941
-0.219507
-0.00015439
-0.219481
-4.80723e-05
-0.219476
0.00638092
-0.235323
0.00910497
-0.235047
0.0117445
-0.234937
0.0155156
-0.235036
0.0202644
-0.234539
0.0259364
-0.232258
0.0317043
-0.227391
0.0364834
-0.219577
0.0389782
-0.209187
0.0378153
-0.197004
0.0320362
-0.184247
0.0209067
-0.172335
0.00451541
-0.162377
-0.0161183
-0.155276
-0.0387603
-0.0957525
-0.0574626
-0.0969498
-0.0727643
-0.0996624
-0.0835234
-0.103199
-0.0884694
-0.106396
-0.087958
-0.109031
-0.0793204
-0.110032
-0.0621215
-0.108658
-0.037173
-0.104758
-0.00660779
-0.0979392
0.0251182
-0.157552
0.0443013
-0.167889
0.0521001
-0.18188
0.051663
-0.197681
0.0471746
-0.212433
0.0400532
-0.224917
0.0307764
-0.233767
0.0205454
-0.238339
0.0109745
-0.238759
0.0033704
-0.236378
-0.00166721
-0.232821
-0.00441178
-0.229187
-0.00551415
-0.226014
-0.00554337
-0.223512
-0.00497063
-0.221778
-0.00413928
-0.220641
-0.00325526
-0.219948
-0.0024406
-0.219587
-0.00174615
-0.219408
-0.00118766
-0.219367
-0.000758072
-0.219376
-0.000444396
-0.219393
-0.000228155
-0.219433
-9.16325e-05
-0.219438
-2.00403e-05
-0.219456
0.00564585
-0.234472
0.00778975
-0.234008
0.00987257
-0.233175
0.0126875
-0.232109
0.0160952
-0.230867
0.0201892
-0.228792
0.0245213
-0.225075
0.0282896
-0.219197
0.0304168
-0.211015
0.029658
-0.201029
0.0250223
-0.18999
0.0158173
-0.179157
0.00182785
-0.169647
-0.0160543
-0.162441
-0.0362867
-0.15775
-0.0565377
-0.0966774
-0.0707641
-0.09895
-0.0810961
-0.10209
-0.0865088
-0.105159
-0.0864722
-0.107882
-0.078959
-0.109392
-0.0632066
-0.108946
-0.0397059
-0.106125
-0.0101978
-0.101168
0.021565
-0.0943859
0.0484194
-0.16167
0.0590134
-0.174802
0.0603371
-0.190554
0.0563574
-0.206864
0.0491766
-0.221557
0.0391552
-0.233296
0.0274069
-0.240629
0.0155853
-0.24295
0.00550441
-0.240893
-0.00159147
-0.236453
-0.00550377
-0.231729
-0.00702401
-0.227678
-0.00709014
-0.224467
-0.0063576
-0.222125
-0.00527402
-0.220643
-0.00412538
-0.219771
-0.00307558
-0.219313
-0.00218976
-0.219144
-0.00148552
-0.219111
-0.00095015
-0.219175
-0.000563342
-0.219257
-0.000298088
-0.219323
-0.000128905
-0.219396
-3.43783e-05
-0.219423
4.00261e-06
-0.21946
0.00496713
-0.233763
0.00668238
-0.233365
0.0083603
-0.232495
0.0105499
-0.231037
0.0130563
-0.229071
0.0159165
-0.226594
0.0189139
-0.223184
0.0215735
-0.218359
0.0230905
-0.211871
0.0224514
-0.203809
0.0187304
-0.194738
0.0112414
-0.185414
-0.000353394
-0.176976
-0.0156426
-0.170059
-0.0333196
-0.165408
-0.0517077
-0.16258
-0.0684923
-0.0989492
-0.078334
-0.101712
-0.0839536
-0.104645
-0.084311
-0.107321
-0.0777595
-0.109082
-0.0633079
-0.109291
-0.0411826
-0.10747
-0.0127971
-0.103526
0.0183828
-0.097986
0.0470099
-0.0929764
0.0654111
-0.168068
0.0687148
-0.18318
0.065631
-0.199828
0.0587031
-0.21639
0.0482391
-0.230641
0.0351914
-0.24108
0.0213734
-0.246417
0.00868324
-0.246129
-0.00101362
-0.241471
-0.00679767
-0.235159
-0.0090999
-0.229653
-0.00918962
-0.225578
-0.00820532
-0.222619
-0.00676908
-0.22063
-0.00525417
-0.219514
-0.00388414
-0.218963
-0.00274118
-0.218761
-0.00184302
-0.218786
-0.00116897
-0.218892
-0.000688201
-0.21905
-0.000362412
-0.219193
-0.000155803
-0.219296
-3.86093e-05
-0.219391
1.40334e-05
-0.219433
2.16501e-05
-0.219481
0.00433053
-0.233193
0.00572733
-0.232808
0.00709956
-0.232104
0.0088549
-0.2308
0.0108149
-0.228796
0.012913
-0.226067
0.0149611
-0.222641
0.0166889
-0.2183
0.0175689
-0.212837
0.0168584
-0.206278
0.0138013
-0.19888
0.00771976
-0.191216
-0.00171593
-0.184051
-0.0144674
-0.178151
-0.02973
-0.173649
-0.0462352
-0.17088
-0.06215
-0.168922
-0.0753361
-0.101947
-0.0809526
-0.104713
-0.0816461
-0.10731
-0.0758157
-0.109264
-0.0624155
-0.109974
-0.0415469
-0.108926
-0.0144072
-0.10586
0.0161295
-0.101273
0.0452285
-0.0962047
0.0664201
-0.0939854
0.0764269
-0.17578
0.074606
-0.192155
0.0681554
-0.20928
0.0576364
-0.225788
0.0435557
-0.239005
0.0277537
-0.247461
0.012704
-0.250438
0.00019205
-0.247334
-0.00797118
-0.240297
-0.0117127
-0.232547
-0.0120609
-0.226781
-0.0106992
-0.223084
-0.00875926
-0.220629
-0.00673659
-0.219147
-0.00492629
-0.218472
-0.00343598