/*--------------------------------*- C++ -*----------------------------------*\
| =========                 |                                                 |
| \\      /  F ield         | OpenFOAM: The Open Source CFD Toolbox           |
|  \\    /   O peration     | Version:  2506                                  |
|   \\  /    A nd           | Website:  www.openfoam.com                      |
|    \\/     M anipulation  |                                                 |
\*---------------------------------------------------------------------------*/
FoamFile
{
    version     2.0;
    format      ascii;
    arch        "LSB;label=32;scalar=64";
    class       volVectorField;
    location    "90.013419639809229";
    object      U;
}
// * * * * * * * * * * * * * * * * * * * * * * * * * * * * * * * * * * * * * //

dimensions      [0 1 -1 0 0 0 0];

internalField   nonuniform List<vector> 
9700
(
(1.09477 0.00122982 4.23351e-22)
(1.09464 0.00396487 -5.78036e-25)
(1.09108 0.00112059 3.65154e-28)
(1.09438 0.00648783 -5.55651e-22)
(1.09093 0.00361978 -1.61716e-24)
(1.08951 0.00106584 -4.11708e-22)
(1.09396 0.00919445 -5.83664e-24)
(1.09067 0.00588913 -3.95701e-35)
(1.08937 0.00344747 -4.11975e-22)
(1.08733 0.00100854 0)
(1.09334 0.0118196 4.3529e-22)
(1.09022 0.00829792 4.46288e-24)
(1.08914 0.00559535 -3.06605e-21)
(1.08722 0.00326143 -2.47955e-23)
(1.08549 0.000964979 3.96405e-22)
(1.09248 0.0145586 4.56171e-22)
(1.08958 0.0105649 -2.18562e-27)
(1.08874 0.00785581 -4.29033e-22)
(1.08702 0.00527815 9.38303e-35)
(1.08539 0.00311678 4.01668e-22)
(1.08364 0.000934243 6.42416e-28)
(1.09131 0.0173061 7.53799e-23)
(1.08869 0.0128547 3.24934e-27)
(1.08817 0.00994808 -4.32475e-22)
(1.08667 0.00737914 6.71654e-23)
(1.08525 0.00503549 2.92401e-21)
(1.08357 0.0030103 -4.38136e-24)
(1.08187 0.000917818 -3.82818e-22)
(1.08973 0.0201565 6.81047e-22)
(1.08747 0.0150298 1.21088e-22)
(1.08738 0.0120161 -4.12156e-22)
(1.08619 0.00928606 0)
(1.08499 0.00701508 3.84667e-22)
(1.08348 0.00486024 -1.38857e-35)
(1.08183 0.00294834 -3.80006e-22)
(1.08011 0.000915218 -3.18172e-21)
(1.08761 0.0230868 -1.26615e-22)
(1.08583 0.0171369 -8.48329e-22)
(1.0863 0.013912 -2.85239e-22)
(1.08551 0.0111185 0)
(1.08463 0.00878439 3.85355e-22)
(1.08332 0.00675386 1.11429e-23)
(1.0818 0.00476348 -2.60253e-25)
(1.0801 0.00293038 -3.68128e-21)
(1.07835 0.000924893 -5.30624e-25)
(1.08477 0.0261503 -7.07848e-22)
(1.08364 0.0190944 -2.7062e-22)
(1.08485 0.0156556 -4.87547e-21)
(1.0846 0.0127179 -2.62867e-37)
(1.08413 0.0104423 4.20481e-22)
(1.0831 0.0084303 -5.4031e-27)
(1.08174 0.00661293 -4.01574e-22)
(1.08013 0.00474381 -4.9581e-22)
(1.07836 0.00295284 4.21037e-22)
(1.07656 0.000944122 3.10148e-21)
(1.08096 0.0293502 5.87019e-22)
(1.08072 0.0208836 3.55773e-23)
(1.08291 0.0171403 9.42334e-22)
(1.08338 0.0140754 8.47094e-23)
(1.08346 0.0118243 5.93153e-22)
(1.0828 0.00997184 7.33294e-27)
(1.08167 0.00824891 -4.01399e-22)
(1.08016 0.00659084 -3.68569e-21)
(1.07844 0.00479467 4.89836e-22)
(1.0766 0.00300822 3.22184e-21)
(1.07473 0.000969257 0)
(1.07589 0.0327396 3.95906e-23)
(1.07684 0.0224281 5.13193e-23)
(1.08033 0.018305 3.92395e-21)
(1.08175 0.015058 3.75141e-22)
(1.08257 0.0128987 4.39259e-21)
(1.08241 0.0112125 2.57567e-22)
(1.08158 0.009743 -3.66456e-22)
(1.08024 0.00823881 -3.30278e-21)
(1.07857 0.00667819 2.7718e-22)
(1.07671 0.00490267 -2.50596e-25)
(1.07478 0.00308592 -2.32754e-36)
(1.07285 0.000996036 3.60933e-22)
(1.06914 0.0363631 4.68299e-21)
(1.07171 0.0236613 4.48402e-22)
(1.07687 0.0190287 -5.11861e-22)
(1.07958 0.0155599 -1.61799e-22)
(1.08139 0.0135118 -1.33824e-21)
(1.0819 0.0121043 -3.40876e-23)
(1.0815 0.0109328 -2.05123e-22)
(1.08037 0.00975527 -3.29564e-21)
(1.07877 0.00838717 8.79899e-28)
(1.07691 0.00685504 3.2096e-21)
(1.07492 0.00504901 5.98068e-36)
(1.0729 0.00317295 3.69217e-22)
(1.07092 0.00101994 8.87918e-28)
(1.06016 0.0402675 -1.01964e-22)
(1.06491 0.0244905 1.9701e-34)
(1.07229 0.0191765 -4.07507e-22)
(1.07669 0.015411 -7.24029e-22)
(1.07983 0.0135215 -3.37999e-21)
(1.08125 0.0124805 -4.90831e-22)
(1.0814 0.0117626 -4.20876e-21)
(1.08057 0.0109866 -3.65804e-21)
(1.07909 0.00999214 -1.07085e-27)
(1.07721 0.00866597 3.21695e-21)
(1.07515 0.00709297 -2.25462e-36)
(1.07304 0.00521078 2.43663e-25)
(1.07096 0.00325502 -7.48817e-24)
(1.06894 0.00103657 -3.42292e-22)
(1.04825 0.0445414 -1.66028e-22)
(1.05595 0.0247776 -9.40634e-22)
(1.06617 0.0185828 -7.95046e-21)
(1.07283 0.0143961 -8.85116e-22)
(1.07773 0.0127177 3.74953e-22)
(1.08038 0.0121724 5.93558e-23)
(1.08131 0.0120615 -3.48151e-21)
(1.08089 0.0118794 -2.98036e-21)
(1.07955 0.0113536 5.47371e-22)
(1.07767 0.0104157 3.24957e-21)
(1.07552 0.00903483 0)
(1.07329 0.00735708 3.45127e-22)
(1.07108 0.0053629 -1.69421e-35)
(1.06897 0.00331765 -3.36107e-22)
(1.06694 0.001042 -4.37661e-22)
(1.03327 0.0498911 7.38255e-21)
(1.04407 0.0243063 -4.96742e-22)
(1.05807 0.0170263 -8.09282e-22)
(1.06766 0.0122632 2.42764e-34)
(1.07493 0.0108157 5.14932e-22)
(1.07923 0.0109386 7.89968e-23)
(1.08122 0.0116481 3.03904e-21)
(1.08136 0.012269 -3.75413e-21)
(1.08024 0.0124306 2.67529e-21)
(1.07835 0.0119834 3.35704e-21)
(1.07607 0.0109701 0)
(1.07367 0.00944378 3.48866e-22)
(1.07131 0.00760887 1.6154e-23)
(1.06905 0.00548008 -2.5692e-21)
(1.06694 0.00334753 -8.53234e-22)
(1.06493 0.00103315 -2.03551e-28)
(1.01634 0.0583054 1.90555e-21)
(1.02837 0.0229501 -2.16302e-22)
(1.04729 0.0142967 -3.0735e-21)
(1.06076 0.00865236 1.67223e-21)
(1.07114 0.00749008 5.50579e-21)
(1.07769 0.00843819 6.37467e-22)
(1.08111 0.0102636 -3.63004e-22)
(1.08203 0.0119781 -1.41193e-22)
(1.08122 0.013076 3.14629e-21)
(1.07932 0.0133505 -1.93338e-23)
(1.07687 0.0128006 -1.5964e-35)
(1.07424 0.0115858 3.86978e-22)
(1.07166 0.00983739 -7.03805e-27)
(1.06922 0.00780931 -3.76306e-22)
(1.06697 0.00553917 -4.44789e-22)
(1.0649 0.00333372 3.46085e-22)
(1.06294 0.00100798 4.1661e-22)
(0.996757 0.0719596 8.90752e-21)
(1.0081 0.0210483 3.09243e-21)
(1.03307 0.0102246 1.3164e-21)
(1.05137 0.00325257 0)
(1.06597 0.00226362 1.4025e-22)
(1.07556 0.00428421 5.88093e-35)
(1.08098 0.0075342 -2.34735e-22)
(1.08299 0.0107478 -3.21486e-21)
(1.0826 0.0131348 -2.42118e-21)
(1.08071 0.0143983 7.41785e-22)
(1.07804 0.0145376 -1.36248e-22)
(1.07509 0.0137094 5.07612e-22)
(1.07219 0.0121848 7.93892e-27)
(1.06949 0.0101593 -3.78393e-22)
(1.06706 0.00792257 -6.33667e-22)
(1.06487 0.00552129 2.87819e-21)
(1.06287 0.00326857 4.31772e-22)
(1.06102 0.000965755 -3.98877e-22)
(0.976225 0.0939713 -1.29747e-20)
(0.983645 0.0200333 -6.2839e-21)
(1.01429 0.00466071 3.29144e-21)
(1.03863 -0.00429978 -1.74091e-34)
(1.05871 -0.00524605 -2.07796e-21)
(1.07249 -0.00209457 -1.10319e-21)
(1.08071 0.00303621 -1.89914e-21)
(1.08429 0.00820299 -2.85758e-21)
(1.08455 0.0123697 -1.70997e-22)
(1.08268 0.0150123 2.96034e-21)
(1.0797 0.0161009 9.03687e-23)
(1.07631 0.0158612 4.0815e-21)
(1.07297 0.0146018 2.16912e-22)
(1.06991 0.0126876 -3.35361e-22)
(1.0672 0.0103577 -4.53618e-22)
(1.06484 0.00791929 3.04774e-22)
(1.06277 0.00541342 -2.3723e-21)
(1.06091 0.00314844 -8.13783e-22)
(1.05918 0.000907004 -2.60475e-28)
(0.958183 0.126321 -3.0361e-21)
(0.955529 0.0219963 -4.14265e-21)
(0.990185 -0.0019015 -6.77432e-21)
(1.02133 -0.0143074 1.59436e-35)
(1.04852 -0.0156468 1.93384e-23)
(1.06785 -0.0111787 -5.33088e-22)
(1.08004 -0.00384448 -3.2365e-22)
(1.08594 0.00392075 -3.15642e-22)
(1.0872 0.0104425 4.01491e-22)
(1.08544 0.0150005 2.90752e-21)
(1.08205 0.0174319 9.76657e-24)
(1.07807 0.0180059 3.19712e-21)
(1.07412 0.0171721 -1.96065e-23)
(1.07054 0.0153668 -1.70098e-22)
(1.06744 0.0130208 -4.62015e-22)
(1.06483 0.0103902 1.9154e-27)
(1.06263 0.00777916 3.85818e-22)
(1.06074 0.00520965 -4.05574e-22)
(1.05904 0.00297393 1.95107e-23)
(1.05746 0.000833592 3.68102e-22)
(0.936223 0.164615 3.94858e-20)
(0.924981 0.0312732 1.15792e-20)
(0.960648 -0.00844849 1.19877e-20)
(0.99845 -0.0268915 2.25912e-35)
(1.03414 -0.0294684 3.88611e-21)
(1.0609 -0.0239081 1.35721e-25)
(1.07854 -0.0137217 -1.32424e-21)
(1.08778 -0.00269626 -1.55373e-21)
(1.09063 0.00698042 2.39883e-22)
(1.0892 0.0141011 2.62949e-21)
(1.08537 0.0184069 1.35648e-22)
(1.08057 0.0201514 -3.14977e-21)
(1.07578 0.019907 -1.44022e-22)
(1.07148 0.0183158 -4.15943e-21)
(1.06784 0.0159016 -8.39044e-22)
(1.06486 0.0131241 -2.29818e-27)
(1.06245 0.0102273 3.93598e-22)
(1.06047 0.00749277 -4.89423e-22)
(1.05879 0.00491151 8.13879e-35)
(1.05729 0.00275 5.38702e-22)
(1.0559 0.000748555 4.60357e-24)
(0.903932 0.202492 -1.1628e-21)
(0.892397 0.0503068 6.39873e-22)
(0.925995 -0.0124971 -3.42269e-21)
(0.968697 -0.0416167 0)
(1.01416 -0.0472134 -9.07976e-23)
(1.05037 -0.0411293 2.73531e-21)
(1.07574 -0.0279685 8.7828e-23)
(1.08984 -0.0124482 -3.44491e-22)
(1.09494 0.00146463 4.00743e-22)
(1.09411 0.0120479 7.72348e-23)
(1.08988 0.0188757 -1.79181e-36)
(1.08411 0.0222605 3.81407e-22)
(1.07817 0.0228855 5.37884e-25)
(1.07285 0.0215892 8.83396e-22)
(1.06845 0.0191489 -2.66854e-21)
(1.06495 0.0161222 4.14085e-22)
(1.06223 0.012956 4.83339e-22)
(1.06011 0.00985568 -4.14547e-22)
(1.05841 0.00706223 -4.5306e-23)
(1.05699 0.00452813 3.7308e-22)
(1.0557 0.00248547 2.15317e-23)
(1.0545 0.000655834 -3.17045e-21)
(0.85504 0.232811 2.05199e-21)
(0.857306 0.0771252 -4.78002e-21)
(0.886769 -0.0115056 -1.46769e-20)
(0.93204 -0.0565903 3.95105e-36)
(0.986586 -0.068472 1.45626e-21)
(1.03428 -0.0636491 -4.65428e-21)
(1.07026 -0.0478421 1.53308e-21)
(1.09201 -0.0271885 1.85232e-22)
(1.10083 -0.00713722 -5.1097e-27)
(1.10064 0.0084453 1.70836e-21)
(1.09577 0.0187295 -1.06031e-35)
(1.08889 0.0243192 3.09177e-22)
(1.08156 0.0261643 -2.18647e-23)
(1.07486 0.025333 3.36171e-21)
(1.06938 0.022852 2.7056e-22)
(1.06514 0.0195544 2.78083e-21)
(1.06197 0.0159706 8.26916e-22)
(1.05963 0.0124975 -4.23308e-22)
(1.05788 0.00927848 2.76253e-27)
(1.0565 0.00650127 9.3807e-22)
(1.05536 0.00407532 8.63852e-22)
(1.05429 0.00219222 -3.58227e-21)
(1.05328 0.000559992 -1.29484e-24)
(0.79489 0.251673 6.14044e-21)
(0.817735 0.107718 -2.38043e-22)
(0.843668 -0.00488206 2.18334e-21)
(0.888956 -0.0698892 -7.16735e-36)
(0.950705 -0.0918228 -3.20231e-21)
(1.00973 -0.0905629 -2.66962e-21)
(1.05909 -0.0742673 4.16407e-21)
(1.09261 -0.0485623 4.05612e-21)
(1.10862 -0.0210949 1.21362e-21)
(1.11036 0.00202764 2.33015e-21)
(1.10404 0.0177229 -9.80357e-36)
(1.09514 0.0264003 2.51104e-21)
(1.08608 0.0298718 -3.57799e-22)
(1.07773 0.0296935 -4.15744e-22)
(1.07077 0.0272131 -5.93635e-22)
(1.0655 0.0235324 -1.00655e-21)
(1.06169 0.019452 -5.92453e-23)
(1.05903 0.0154207 -7.72097e-22)
(1.05716 0.0117532 -3.46133e-27)
(1.05582 0.00851556 3.78403e-22)
(1.05479 0.00583382 -5.06023e-23)
(1.05392 0.00357409 -3.37636e-22)
(1.05307 0.00188437 2.06046e-22)
(1.05225 0.00046589 2.86853e-21)
(0.731939 0.259885 4.79978e-23)
(0.772435 0.133921 1.24735e-22)
(0.798969 0.00887375 -1.11243e-21)
(0.841655 -0.0798315 -3.01245e-36)
(0.906374 -0.115965 -7.64596e-21)
(0.975682 -0.120351 6.1626e-21)
(1.03816 -0.105674 -1.29657e-20)
(1.08708 -0.0772649 1.06868e-21)
(1.11591 -0.0422925 -3.51489e-21)
(1.12403 -0.00961839 -1.43556e-21)
(1.11726 0.0145284 0)
(1.10439 0.0284549 5.44241e-22)
(1.09196 0.0342521 1.29414e-34)
(1.0815 0.0349261 -4.86817e-22)
(1.0728 0.0324507 -6.34377e-22)
(1.06611 0.0282976 -2.95024e-21)
(1.06141 0.0235193 6.07099e-22)
(1.05826 0.018806 -2.3754e-21)
(1.05622 0.0144793 8.81629e-23)
(1.0549 0.0107508 3.84157e-22)
(1.054 0.00760131 -5.1088e-23)
(1.0533 0.00509172 -3.35129e-21)
(1.05269 0.00304913 2.76881e-21)
(1.05205 0.00157742 3.04811e-21)
(1.05141 0.000378233 2.88594e-22)
(0.681442 0.260413 2.97629e-20)
(0.723282 0.151581 -1.1284e-20)
(0.754294 0.0237788 5.72298e-21)
(0.793494 -0.083545 0)
(0.856062 -0.138941 6.36311e-22)
(0.931871 -0.151677 2.67473e-22)
(1.00625 -0.140328 -1.20163e-21)
(1.07005 -0.111078 1.7e-20)
(1.11615 -0.0707684 1.47599e-21)
(1.13788 -0.0284542 -9.10143e-21)
(1.13641 0.00681122 -2.28092e-35)
(1.12026 0.0293841 3.48995e-21)
(1.10122 0.0395054 1.31256e-21)
(1.08631 0.0414036 -6.76353e-21)
(1.0754 0.0389181 -9.26282e-22)
(1.06706 0.0341145 -4.41508e-23)
(1.06112 0.0284331 3.36657e-21)
(1.05731 0.0227652 6.55948e-22)
(1.055 0.0176274 1.04379e-22)
(1.05367 0.0131857 6.95666e-22)
(1.05291 0.00953835 6.48706e-23)
(1.05244 0.00658118 -3.26489e-21)
(1.05206 0.00431237 -4.97631e-22)
(1.05169 0.00252732 1.6439e-21)
(1.05122 0.00128705 3.97861e-22)
(1.05072 0.000301145 2.37752e-28)
(0.646974 0.257854 1.5526e-20)
(0.68281 0.16046 -8.60356e-21)
(0.709568 0.0353404 1.17784e-22)
(0.747378 -0.0827005 1.15663e-25)
(0.803236 -0.158729 -1.35196e-21)
(0.880549 -0.182842 9.53433e-22)
(0.963293 -0.176572 2.57716e-20)
(1.04041 -0.14835 2.42861e-20)
(1.10303 -0.103997 9.50663e-21)
(1.14329 -0.0535313 7.32782e-22)
(1.15602 -0.00714381 1.14558e-35)
(1.14369 0.0272112 -9.92526e-22)
(1.11828 0.0450678 9.09134e-22)
(1.09445 0.0495955 -3.07254e-22)
(1.07855 0.0470589 -6.68512e-22)
(1.06817 0.0413984 4.96571e-22)
(1.06086 0.034471 5.45839e-22)
(1.05612 0.0275572 -7.26938e-22)
(1.05343 0.0212881 -8.74351e-36)
(1.05206 0.0159712 2.51466e-21)
(1.05146 0.0116063 5.81606e-22)
(1.05125 0.00817889 -3.27525e-21)
(1.05118 0.00550824 1.27734e-26)
(1.05108 0.00353647 2.62716e-21)
(1.05089 0.00203557 -4.03616e-21)
(1.05057 0.00102782 -1.81969e-22)
(1.05018 0.000238079 -2.61678e-22)
(0.618796 0.253319 5.09569e-22)
(0.654512 0.162883 1.46627e-20)
(0.675162 0.0435777 2.74726e-20)
(0.70311 -0.0810009 -7.92999e-21)
(0.752008 -0.172912 1.94116e-20)
(0.824809 -0.213155 3.72758e-22)
(0.911748 -0.21314 -8.45888e-22)
(0.998326 -0.187315 3.25079e-20)
(1.07588 -0.14092 5.45868e-21)
(1.1339 -0.0826663 -1.85047e-20)
(1.16586 -0.0256064 1.34928e-38)
(1.16773 0.020892 -1.01388e-20)
(1.14394 0.0497062 -3.45951e-25)
(1.11085 0.0596696 2.57791e-21)
(1.08448 0.0575762 -2.43694e-21)
(1.06927 0.0506061 4.48251e-21)
(1.06035 0.0420739 6.74483e-22)
(1.05462 0.0334386 -1.31354e-21)
(1.05139 0.0257005 -1.38146e-22)
(1.04996 0.0191668 8.79524e-22)
(1.04955 0.0139294 -3.71591e-21)
(1.04967 0.00982757 -4.58213e-21)
(1.04996 0.00674557 -1.62944e-26)
(1.05022 0.00443996 2.87191e-21)
(1.05033 0.00280481 2.39776e-23)
(1.05029 0.00159865 1.35494e-34)
(1.05006 0.000812616 -1.6733e-22)
(1.04975 0.000191658 0)
(0.598684 0.246941 1.16462e-21)
(0.630867 0.160957 3.4462e-20)
(0.652543 0.0472898 -1.5032e-20)
(0.671807 -0.0773788 5.31586e-20)
(0.705306 -0.184531 3.44885e-20)
(0.769948 -0.239372 9.47393e-22)
(0.854542 -0.248668 5.40713e-21)
(0.946426 -0.226779 3.17416e-20)
(1.03485 -0.17971 1.85328e-20)
(1.10954 -0.115894 -1.18169e-20)
(1.15997 -0.0473947 0)
(1.18051 0.0114817 1.24073e-21)
(1.17059 0.0531674 -9.93484e-21)
(1.13638 0.0713513 8.1058e-23)
(1.09835 0.0714336 -8.48436e-22)
(1.07213 0.0625778 7.00858e-22)
(1.05922 0.0516602 -3.79939e-21)
(1.0525 0.0408429 -1.7488e-21)
(1.04875 0.0310707 -1.54522e-22)
(1.0472 0.0229777 1.18774e-22)
(1.04705 0.0165293 -1.45921e-21)
(1.04757 0.0116198 -1.94473e-21)
(1.04833 0.00794902 1.02828e-21)
(1.04903 0.0053172 2.83333e-21)
(1.04955 0.0034336 2.78231e-22)
(1.04981 0.00215494 4.26479e-22)
(1.04985 0.00123827 1.39967e-21)
(1.04968 0.000651499 1.43202e-22)
(1.0494 0.00016362 -2.26458e-21)
(0.58702 0.239623 5.36927e-21)
(0.614089 0.155697 -8.11819e-21)
(0.634109 0.0466189 -4.7269e-20)
(0.652789 -0.0742176 3.32839e-20)
(0.67314 -0.189675 3.03005e-20)
(0.719568 -0.262486 6.05581e-21)
(0.79673 -0.281818 -3.98863e-20)
(0.887663 -0.264967 8.09442e-21)
(0.982705 -0.219607 -2.34217e-20)
(1.0701 -0.151167 -5.67086e-20)
(1.13842 -0.0736504 -5.87559e-36)
(1.17853 -0.00124949 5.51974e-21)
(1.18471 0.0543088 2.4184e-20)
(1.16364 0.0844214 -1.02923e-20)
(1.12158 0.0893369 1.1127e-20)
(1.08178 0.0789591 -1.81725e-21)
(1.05856 0.0640636 8.14803e-22)
(1.04921 0.0501111 -6.77604e-22)
(1.04515 0.0377966 1.2991e-22)
(1.0436 0.027538 -7.14003e-22)
(1.04376 0.0195684 -2.2548e-21)
(1.04482 0.0135374 -3.53326e-22)
(1.04617 0.00917646 3.2255e-21)
(1.04745 0.00607681 2.68103e-21)
(1.04847 0.00397206 2.71976e-22)
(1.04915 0.00254178 -2.72444e-27)
(1.04948 0.00161989 -4.69271e-22)
(1.04954 0.000971305 -1.09106e-21)
(1.04937 0.000550903 -2.29313e-21)
(1.04909 0.000154829 -6.65653e-25)
(0.583603 0.230669 -7.86597e-21)
(0.605611 0.147086 -1.13209e-20)
(0.621868 0.0426935 1.24509e-21)
(0.638396 -0.074616 -3.32184e-20)
(0.654496 -0.190676 -4.70866e-20)
(0.684417 -0.277048 -3.60913e-20)
(0.742707 -0.311887 5.66128e-23)
(0.827555 -0.301051 -3.90021e-20)
(0.922259 -0.258147 -2.36691e-20)
(1.01818 -0.188535 -4.56527e-20)
(1.10106 -0.102119 -4.62312e-34)
(1.15976 -0.017775 1.98379e-20)
(1.1851 0.0511685 2.05547e-20)
(1.18259 0.0966265 -3.14056e-21)
(1.14749 0.110634 -2.19275e-21)
(1.10065 0.101494 -6.50673e-21)
(1.06279 0.0812751 1.82333e-21)
(1.04509 0.0619383 -9.01648e-22)
(1.03999 0.0461176 2.97156e-35)
(1.03878 0.0331896 -2.82939e-22)
(1.03945 0.0230978 -4.65534e-23)
(1.04122 0.0156936 -3.53409e-22)
(1.04334 0.0103714 -2.68837e-21)
(1.04537 0.00674084 1.56706e-21)
(1.04703 0.00431561 1.18563e-21)
(1.04823 0.0027819 3.44836e-27)
(1.04897 0.00181064 -2.45739e-22)
(1.0493 0.00122539 2.99121e-22)
(1.04932 0.000808545 7.60974e-22)
(1.0491 0.000513355 -7.04957e-23)
(1.04878 0.000165005 2.11409e-21)
(0.592114 0.220186 -2.71267e-21)
(0.606707 0.135588 2.10565e-20)
(0.617125 0.0353576 1.63555e-20)
(0.629892 -0.0774428 2.51868e-20)
(0.642056 -0.193077 -4.50092e-20)
(0.663379 -0.284592 -1.54579e-20)
(0.704307 -0.332945 2.73247e-21)
(0.770222 -0.333754 1.06895e-20)
(0.859737 -0.295121 5.72893e-20)
(0.956385 -0.224595 -1.29462e-20)
(1.0499 -0.133755 -8.709e-35)
(1.12464 -0.036373 -1.77972e-20)
(1.1708 0.0460949 -7.23771e-20)
(1.18571 0.105472 9.27072e-21)
(1.16663 0.133222 6.78098e-21)
(1.1235 0.129658 1.15332e-21)
(1.07536 0.106004 -6.70102e-21)
(1.0435 0.0782022 -9.1414e-22)
(1.03292 0.0565339 -1.31408e-22)
(1.03213 0.0400532 5.59676e-22)
(1.03374 0.027391 1.82852e-22)
(1.03648 0.0180572 -3.66471e-21)
(1.03964 0.0115948 1.92324e-21)
(1.04262 0.00721909 3.07073e-21)
(1.04513 0.00445149 2.27832e-22)
(1.04702 0.00276097 -8.93432e-23)
(1.04827 0.00180967 -2.36182e-22)
(1.04897 0.00127617 0)
(1.04921 0.00098793 -2.25335e-21)
(1.04913 0.000754215 -9.60543e-22)
(1.04884 0.000537228 2.12169e-21)
(1.04844 0.000192347 -2.05463e-21)
(0.609895 0.208295 -4.8556e-21)
(0.617986 0.121572 -1.79642e-20)
(0.621091 0.0252393 -1.15284e-20)
(0.628583 -0.0833297 9.97371e-21)
(0.636072 -0.196515 5.36402e-20)
(0.649754 -0.291566 2.7216e-20)
(0.680114 -0.346189 1.1027e-20)
(0.728695 -0.357672 7.43479e-21)
(0.798813 -0.328121 7.38019e-21)
(0.891925 -0.260758 -1.66355e-20)
(0.987708 -0.163972 -2.23714e-20)
(1.07477 -0.0590903 -2.43789e-20)
(1.13807 0.0396661 -7.03727e-21)
(1.17016 0.112787 2.3155e-20)
(1.17233 0.155409 1.76937e-21)
(1.14122 0.161144 -2.16538e-21)
(1.09319 0.138545 -3.60998e-21)
(1.04846 0.102237 1.2467e-20)
(1.02602 0.0704058 8.60489e-22)
(1.02293 0.048466 2.47509e-21)
(1.02607 0.0324359 2.69987e-21)
(1.03026 0.0208273 -3.8958e-21)
(1.03478 0.0127419 -2.12841e-21)
(1.03905 0.00751845 4.05933e-21)
(1.04264 0.0042619 2.07934e-21)
(1.04542 0.00243437 -1.07949e-22)
(1.04735 0.00149653 5.21158e-22)
(1.04852 0.00110461 0)
(1.04908 0.000961583 -2.17961e-21)
(1.04917 0.000914085 -4.15161e-22)
(1.04894 0.000805452 1.19751e-21)
(1.04853 0.000616812 -2.05069e-21)
(1.04804 0.000233456 -4.19685e-25)
(0.6377 0.193921 -4.71296e-20)
(0.640119 0.105388 -3.8319e-20)
(0.634833 0.0127652 2.78437e-22)
(0.63552 -0.0920131 -4.44581e-21)
(0.637443 -0.201714 5.38524e-20)
(0.643829 -0.297903 3.07985e-21)
(0.663536 -0.357955 -1.0944e-20)
(0.70133 -0.373937 -1.22983e-20)
(0.753876 -0.352804 1.78493e-20)
(0.82708 -0.292326 2.35506e-21)
(0.92237 -0.197245 2.80936e-25)
(1.01363 -0.0803148 1.74937e-21)
(1.09016 0.0287687 3.32122e-20)
(1.13999 0.118532 -1.18892e-20)
(1.15844 0.175126 -1.78942e-21)
(1.14679 0.193932 1.38532e-20)
(1.10846 0.176481 -1.0093e-20)
(1.05939 0.135532 -2.57168e-21)
(1.02309 0.0911266 -1.21547e-26)
(1.01194 0.0590659 7.15509e-22)
(1.01558 0.038483 -2.26018e-22)
(1.02203 0.0238521 8.84562e-23)
(1.02845 0.0139344 2.75637e-21)
(1.03436 0.00747583 4.09234e-22)
(1.0394 0.00369983 -2.06377e-21)
(1.04332 0.00166326 2.43308e-36)
(1.04613 0.000799701 1.37502e-22)
(1.04794 0.000587911 2.13159e-22)
(1.0489 0.000698774 -2.01184e-21)
(1.04923 0.000876312 5.94374e-27)
(1.04911 0.000999728 2.14895e-21)
(1.0487 0.000952237 6.93589e-22)
(1.04815 0.000742729 6.52698e-23)
(1.04755 0.000283801 1.9589e-21)
(0.675291 0.176966 2.76351e-20)
(0.67261 0.0877915 2.99616e-21)
(0.658616 -0.00198913 -1.41039e-20)
(0.651615 -0.102954 -4.45867e-20)
(0.646851 -0.209054 7.4993e-22)
(0.645975 -0.304195 -2.9803e-20)
(0.655407 -0.368051 -1.77008e-21)
(0.681149 -0.388055 1.13047e-20)
(0.723244 -0.370601 -7.66415e-22)
(0.778148 -0.316601 -7.70412e-21)
(0.853285 -0.224281 2.89123e-21)
(0.947947 -0.108082 3.501e-20)
(1.03126 0.0183435 2.42877e-21)
(1.09465 0.120957 -2.67705e-20)
(1.13061 0.192208 4.11838e-20)
(1.1365 0.224578 -2.48476e-20)
(1.11402 0.216666 -2.73536e-21)
(1.07041 0.176337 9.05319e-21)
(1.02573 0.121332 -3.31902e-34)
(1.00202 0.0747025 -9.36675e-21)
(1.00209 0.0454831 -1.94376e-21)
(1.01102 0.0273568 -4.30082e-21)
(1.02013 0.0148931 -1.71376e-21)
(1.02829 0.00713043 8.57114e-22)
(1.03515 0.00256111 -1.67826e-21)
(1.04059 0.000349662 1.51616e-22)
(1.04454 -0.000434303 1.56218e-21)
(1.04718 -0.000365531 -5.67444e-23)
(1.04869 7.83133e-05 -1.60247e-21)
(1.04933 0.000605656 -7.06065e-27)
(1.04936 0.00101486 2.01977e-21)
(1.04898 0.00122998 -2.12861e-21)
(1.04838 0.00117803 3.69282e-35)
(1.04768 0.000902382 2.0378e-21)
(1.04695 0.000338451 0)
(0.733785 0.152844 1.58808e-21)
(0.714745 0.067289 4.43093e-20)
(0.692264 -0.0172643 2.99344e-20)
(0.677308 -0.116183 -2.41908e-21)
(0.664967 -0.218168 -3.83333e-20)
(0.656476 -0.311114 2.12445e-20)
(0.656084 -0.376558 6.83625e-21)
(0.669283 -0.399459 2.35133e-20)
(0.699383 -0.385747 -2.54118e-20)
(0.744254 -0.33535 -5.90868e-21)
(0.800056 -0.247113 -8.73644e-21)
(0.875104 -0.125649 -3.05809e-22)
(0.964655 -0.000273305 2.14977e-21)
(1.03791 0.121505 4.49121e-21)
(1.08783 0.207244 -5.25765e-21)
(1.11065 0.25258 -1.74675e-20)
(1.10526 0.256017 1.49155e-20)
(1.07466 0.221158 2.59979e-21)
(1.03059 0.160785 -1.01541e-21)
(0.995954 0.0985299 1.8267e-21)
(0.987101 0.0553869 4.51861e-21)
(0.99653 0.0307978 -2.0685e-21)
(1.00923 0.0158242 -3.55647e-21)
(1.02032 0.00611108 -4.86703e-23)
(1.02967 0.000795522 3.53265e-22)
(1.03702 -0.00173671 1.765e-22)
(1.04249 -0.00234797 1.49849e-22)
(1.04619 -0.00191774 3.78119e-23)
(1.04842 -0.00100321 -1.85753e-22)
(1.04949 -1.33094e-05 2.59272e-22)
(1.04972 0.000818513 1.93306e-21)
(1.04939 0.00135664 -1.98612e-21)
(1.04874 0.00158014 -1.34282e-22)
(1.04793 0.00146065 -6.67444e-22)
(1.04709 0.00108078 -1.87297e-23)
(1.04625 0.00039255 -1.98475e-22)
(0.81633 0.120416 -8.90278e-21)
(0.777615 0.0426344 -1.76408e-21)
(0.734661 -0.0362299 1.40624e-21)
(0.712573 -0.129624 4.29686e-20)
(0.691864 -0.228894 -6.24434e-20)
(0.675356 -0.31863 8.14523e-21)
(0.665386 -0.383766 -9.06336e-22)
(0.666651 -0.407744 -9.71323e-22)
(0.683419 -0.398192 -1.27823e-20)
(0.71723 -0.350748 1.39895e-20)
(0.763284 -0.266683 -2.13206e-20)
(0.81878 -0.147207 9.18139e-21)
(0.891527 -0.00440354 2.24417e-21)
(0.970834 0.116262 1.12787e-20)
(1.03294 0.218956 -5.67437e-21)
(1.0703 0.278495 7.65058e-21)
(1.08154 0.293263 -4.0378e-20)
(1.06696 0.266549 -2.59467e-21)
(1.03191 0.206409 5.24215e-21)
(0.993028 0.132244 -6.16253e-21)
(0.9733 0.0708519 1.2854e-21)
(0.978887 0.0352692 5.54606e-21)
(0.994863 0.0159167 5.53577e-21)
(1.01008 0.00455904 3.71381e-21)
(1.02248 -0.00201157 -1.38249e-22)
(1.03244 -0.0047386 -1.56368e-21)
(1.0398 -0.00518771 -1.50925e-21)
(1.04492 -0.00424569 -2.00102e-21)
(1.04808 -0.00271005 -2.49085e-21)
(1.04972 -0.00108651 -6.61903e-22)
(1.05023 0.000305261 1.83963e-21)
(1.04998 0.00130991 -1.91568e-21)
(1.04928 0.00186708 2.95946e-27)
(1.04836 0.00201688 1.91567e-21)
(1.04735 0.00177393 3.21305e-35)
(1.04638 0.00126166 -1.67338e-22)
(1.04544 0.000441435 -8.77859e-29)
(0.904895 0.0855062 -1.21133e-19)
(0.863503 0.0105334 4.42084e-21)
(0.798644 -0.0549865 -3.82292e-21)
(0.755364 -0.146083 1.70401e-24)
(0.727362 -0.239627 1.11554e-20)
(0.702189 -0.326357 -9.47431e-21)
(0.682857 -0.389593 -1.31629e-20)
(0.672302 -0.413178 5.89013e-22)
(0.676225 -0.407658 1.30521e-20)
(0.698035 -0.363599 -4.72768e-20)
(0.733342 -0.281919 -1.23207e-20)
(0.780079 -0.167244 -8.9718e-22)
(0.834889 -0.0264321 1.23205e-20)
(0.900783 0.122814 0)
(0.968366 0.226969 -1.44429e-20)
(1.01809 0.300591 1.80227e-20)
(1.04397 0.327685 -1.5506e-20)
(1.04561 0.310173 6.32333e-20)
(1.02439 0.254399 -1.28683e-20)
(0.989516 0.173858 -1.74168e-21)
(0.962045 0.0951918 -2.86834e-23)
(0.959655 0.0421255 -7.41707e-21)
(0.976777 0.0157107 -1.75665e-21)
(0.996599 0.00158467 1.91014e-21)
(1.01334 -0.00585078 -1.33591e-22)
(1.0264 -0.0090756 3.24086e-35)
(1.03635 -0.00918167 5.5071e-23)
(1.04326 -0.00760603 -8.73699e-23)
(1.04767 -0.00524081 -9.37381e-23)
(1.05005 -0.00277328 1.2551e-21)
(1.05093 -0.000623489 8.23646e-23)
(1.0508 0.000998614 -1.8413e-21)
(1.05004 0.00203318 -2.98772e-27)
(1.04898 0.00249931 1.96063e-21)
(1.0478 0.00250054 3.62799e-23)
(1.04663 0.00208971 6.45831e-22)
(1.04555 0.00142868 6.3723e-24)
(1.04454 0.000480752 1.88529e-22)
(0.993299 0.051541 2.53723e-21)
(0.951854 -0.0191117 1.68266e-21)
(0.88333 -0.0811513 -2.47655e-20)
(0.819322 -0.1601 0)
(0.769096 -0.250921 4.23204e-21)
(0.736321 -0.333216 -7.06367e-22)
(0.707531 -0.393799 -9.07939e-22)
(0.686593 -0.415843 5.2118e-21)
(0.67772 -0.414125 -5.6458e-22)
(0.687189 -0.373612 1.71052e-20)
(0.711148 -0.293998 2.69406e-20)
(0.747328 -0.18233 -1.67164e-20)
(0.79452 -0.0447983 1.39104e-20)
(0.846106 0.102665 -1.70411e-22)
(0.9024 0.236989 1.351e-20)
(0.958179 0.318717 -2.68612e-20)
(0.995244 0.357893 -3.91421e-20)
(1.01135 0.35046 -8.5266e-21)
(1.00533 0.30141 1.97883e-21)
(0.98066 0.220155 1.76315e-21)
(0.951962 0.127881 2.6656e-35)
(0.941132 0.055201 5.64546e-21)
(0.955085 0.0151693 1.24738e-21)
(0.979615 -0.00255729 -1.54883e-21)
(1.00132 -0.0115553 -1.74942e-21)
(1.01874 -0.0149133 1.93534e-21)
(1.03178 -0.0147438 1.69714e-22)
(1.04113 -0.0122951 8.1974e-22)
(1.04714 -0.00885661 -7.72743e-22)
(1.05052 -0.00527911 -2.06092e-22)
(1.0519 -0.00211397 -4.51716e-22)
(1.05192 0.000341167 -2.82463e-22)
(1.0511 0.00200515 1.27435e-22)
(1.04985 0.00292425 1.93409e-21)
(1.04845 0.00319727 0)
(1.04706 0.00298826 -2.63693e-22)
(1.04577 0.00237983 -1.69918e-21)
(1.04462 0.00156653 1.6691e-22)
(1.04357 0.000506776 1.82586e-22)
(1.07469 0.0203331 -7.1307e-22)
(1.03516 -0.0461366 -1.2018e-20)
(0.967429 -0.100709 2.31378e-20)
(0.901482 -0.178226 2.20314e-25)
(0.828216 -0.261168 1.9711e-21)
(0.776051 -0.339013 1.12484e-20)
(0.738593 -0.395649 -6.10009e-21)
(0.708328 -0.416423 -2.52749e-21)
(0.688036 -0.417 -3.11901e-21)
(0.684772 -0.380411 9.30073e-21)
(0.697246 -0.302828 -1.40767e-21)
(0.721908 -0.19404 -3.82925e-21)
(0.759287 -0.0590934 -1.8477e-20)
(0.80484 0.0883037 2.69501e-20)
(0.849522 0.22807 1.94486e-21)
(0.896708 0.334914 -7.16089e-21)
(0.939643 0.383865 8.13326e-20)
(0.966693 0.386166 1.34799e-20)
(0.974732 0.34511 2.91675e-21)
(0.963152 0.26711 -4.41273e-20)
(0.939677 0.167374 1.36789e-20)
(0.92386 0.0753162 9.2554e-23)
(0.93179 0.0172238 4.44504e-23)
(0.958168 -0.0087748 -9.58531e-22)
(0.986307 -0.0190859 1.56268e-23)
(1.00865 -0.0229705 -2.62254e-22)
(1.02596 -0.0222082 -8.72874e-23)
(1.03828 -0.0187289 3.23892e-36)
(1.04647 -0.0139003 -1.57066e-22)
(1.05115 -0.0088608 -3.67021e-22)
(1.05322 -0.00436264 9.97347e-22)
(1.05345 -0.000786796 -2.13413e-21)
(1.05256 0.00172734 2.76661e-23)
(1.05107 0.00323923 1.89056e-21)
(1.04937 0.00390605 0)
(1.04769 0.00390021 -2.01912e-22)
(1.04615 0.00343696 -1.29741e-23)
(1.04479 0.00261801 1.04158e-21)
(1.04361 0.00166229 2.28667e-22)
(1.04256 0.000516787 1.26406e-28)
(1.13801 -0.00512155 2.9529e-21)
(1.1066 -0.0671834 -2.86138e-21)
(1.04672 -0.117965 1.50247e-20)
(0.981992 -0.1883 -2.05482e-20)
(0.907456 -0.26676 -3.56229e-20)
(0.832862 -0.341848 -3.75147e-21)
(0.774715 -0.395356 -1.65523e-20)
(0.736478 -0.41529 -7.47313e-21)
(0.706565 -0.416449 -1.73674e-20)
(0.690701 -0.383718 -6.51259e-20)
(0.69153 -0.308048 3.0289e-20)
(0.704794 -0.20212 -6.03381e-20)
(0.731041 -0.0703172 -1.67775e-20)
(0.768178 0.0761677 2.54595e-21)
(0.809386 0.218342 -1.3571e-20)
(0.845283 0.337557 3.01672e-20)
(0.881682 0.406561 -2.04164e-20)
(0.915948 0.416912 -2.42671e-20)
(0.934934 0.384132 1.23783e-20)
(0.936085 0.311642 6.05307e-21)
(0.922143 0.209782 -6.73615e-25)
(0.90623 0.102825 -6.96606e-22)
(0.908518 0.0237302 3.46742e-22)
(0.933272 -0.015822 -6.9594e-22)
(0.966918 -0.0296078 1.63628e-21)
(0.996112 -0.033471 2.32263e-26)
(1.01824 -0.0322059 -9.13829e-22)
(1.03462 -0.0273756 -8.73953e-22)
(1.04553 -0.0207968 5.2441e-23)
(1.052 -0.0138841 3.42838e-22)
(1.05498 -0.00760909 7.97776e-22)
(1.05552 -0.00255588 -1.55585e-22)
(1.05454 0.00110584 2.34501e-35)
(1.05274 0.00342153 -1.86199e-21)
(1.05065 0.00459674 -6.75067e-23)
(1.04858 0.00489446 -2.04016e-22)
(1.04671 0.00454693 6.93679e-28)
(1.04509 0.00380647 2.42986e-22)
(1.04372 0.00278212 -1.00955e-21)
(1.04256 0.00170642 -8.98731e-23)
(1.04153 0.000509292 -1.68313e-22)
(1.17529 -0.0234262 -6.37337e-21)
(1.16076 -0.0812955 -3.82568e-22)
(1.11357 -0.128887 4.82707e-22)
(1.05624 -0.194509 3.66515e-35)
(0.984135 -0.266877 3.19855e-20)
(0.905359 -0.337354 1.61424e-20)
(0.827485 -0.391066 1.9455e-22)
(0.769541 -0.412542 1.1557e-20)
(0.731927 -0.413285 5.89527e-21)
(0.704417 -0.382608 -4.90584e-20)
(0.693641 -0.309678 1.63142e-20)
(0.695953 -0.206141 -1.18937e-19)
(0.711076 -0.0777463 -3.97959e-20)
(0.738195 0.0662208 -4.15244e-20)
(0.773149 0.209827 6.29339e-20)
(0.808254 0.332665 -2.32218e-20)
(0.834323 0.416846 1.5433e-20)
(0.863203 0.441524 1.9278e-20)
(0.890191 0.417457 2.20005e-20)
(0.901238 0.352097 -5.25384e-20)
(0.89756 0.251721 -1.13636e-20)
(0.886445 0.135267 2.52929e-21)
(0.88512 0.0356682 1.1387e-21)
(0.906826 -0.0212601 0)
(0.943436 -0.0431308 -1.2086e-21)
(0.979749 -0.0474186 7.51763e-22)
(1.00856 -0.0452478 -7.67764e-25)
(1.02966 -0.0388522 0)