/*--------------------------------*- C++ -*----------------------------------*\
| =========                 |                                                 |
| \\      /  F ield         | OpenFOAM: The Open Source CFD Toolbox           |
|  \\    /   O peration     | Version:  2506                                  |
|   \\  /    A nd           | Website:  www.openfoam.com                      |
|    \\/     M anipulation  |                                                 |
\*---------------------------------------------------------------------------*/
FoamFile
{
    version     2.0;
    format      ascii;
    arch        "LSB;label=32;scalar=64";
    class       volScalarField;
    location    "100";
    object      nut;
}
// * * * * * * * * * * * * * * * * * * * * * * * * * * * * * * * * * * * * * //

dimensions      [0 2 -1 0 0 0 0];

internalField   nonuniform List<scalar> 
1340
(
0.112298
0.110315
0.108513
0.094825
0.073437
0.0747755
0.0780711
0.0772123
0.0428248
0.0500626
0.0560985
0.0654142
0.00781338
0.0142809
0.0223003
0.0407618
2.79576e-07
0.000958014
0.00158073
0.0130528
3.34918e-08
0.00022046
0.000401971
0.00161273
1.63976e-06
1.74683e-08
4.55102e-13
0.000383733
5.17775e-06
4.63084e-06
1.75587e-10
2.02717e-17
6.30184e-06
6.1056e-06
7.85969e-06
1.05083e-08
6.23097e-06
5.89481e-06
8.15406e-06
2.08756e-06
6.15802e-06
6.08407e-06
6.40632e-06
6.02033e-06
6.13408e-06
6.15186e-06
6.08787e-06
6.39904e-06
6.12956e-06
6.143e-06
6.1164e-06
6.21321e-06
6.12611e-06
6.13212e-06
6.13617e-06
6.14727e-06
6.12255e-06
6.12686e-06
6.13499e-06
6.13694e-06
6.11898e-06
6.12305e-06
6.13004e-06
6.13381e-06
6.11562e-06
6.11953e-06
6.12563e-06
6.13006e-06
6.11229e-06
6.11609e-06
6.12172e-06
6.1261e-06
6.10887e-06
6.11263e-06
6.11797e-06
6.12229e-06
6.10538e-06
6.10913e-06
6.11428e-06
6.11861e-06
6.10185e-06
6.10558e-06
6.11058e-06
6.11501e-06
6.09834e-06
6.102e-06
6.10683e-06
6.11138e-06
6.09504e-06
6.09851e-06
6.1031e-06
6.10769e-06
6.09206e-06
6.09526e-06
6.09952e-06
6.10401e-06
6.08946e-06
6.09233e-06
6.09618e-06
6.10045e-06
6.08726e-06
6.08978e-06
6.0932e-06
6.09711e-06
6.08543e-06
6.08764e-06
6.09062e-06
6.09409e-06
6.0839e-06
6.08584e-06
6.08844e-06
6.09145e-06
6.08253e-06
6.08425e-06
6.08653e-06
6.08913e-06
6.08127e-06
6.08282e-06
6.08485e-06
6.08708e-06
6.08013e-06
6.08153e-06
6.08336e-06
6.08528e-06
6.07913e-06
6.0804e-06
6.08205e-06
6.08371e-06
6.07826e-06
6.07938e-06
6.08087e-06
6.08232e-06
6.07753e-06
6.0785e-06
6.07982e-06
6.08106e-06
6.07695e-06
6.07777e-06
6.07892e-06
6.07996e-06
6.07652e-06
6.07719e-06
6.07818e-06
6.07901e-06
6.0762e-06
6.07673e-06
6.07756e-06
6.07821e-06
6.07596e-06
6.07639e-06
6.07708e-06
6.07755e-06
6.07549e-06
6.07574e-06
6.07608e-06
6.07668e-06
6.07701e-06
6.07532e-06
6.07553e-06
6.07581e-06
6.07633e-06
6.07655e-06
6.07509e-06
6.07528e-06
6.07552e-06
6.07598e-06
6.07613e-06
6.0748e-06
6.07497e-06
6.07518e-06
6.0756e-06
6.07571e-06
6.07443e-06
6.07459e-06
6.07478e-06
6.07518e-06
6.07525e-06
6.07404e-06
6.07417e-06
6.07434e-06
6.07471e-06
6.07475e-06
6.07362e-06
6.07373e-06
6.07388e-06
6.07422e-06
6.07423e-06
6.0732e-06
6.07328e-06
6.0734e-06
6.0737e-06
6.0737e-06
6.07282e-06
6.07287e-06
6.07295e-06
6.0732e-06
6.07316e-06
6.07248e-06
6.0725e-06
6.07255e-06
6.07274e-06
6.07269e-06
6.07215e-06
6.07215e-06
6.07219e-06
6.07233e-06
6.07228e-06
6.07183e-06
6.07182e-06
6.07184e-06
6.07195e-06
6.07192e-06
6.07152e-06
6.07152e-06
6.07154e-06
6.07164e-06
6.07162e-06
6.07125e-06
6.07126e-06
6.07129e-06
6.07138e-06
6.0714e-06
6.07102e-06
6.07101e-06
6.07104e-06
6.07109e-06
6.07119e-06
6.07124e-06
6.07083e-06
6.07085e-06
6.0709e-06
6.07098e-06
6.0711e-06
6.07116e-06
6.07081e-06
6.07087e-06
6.07095e-06
6.07106e-06
6.07121e-06
6.07127e-06
6.07109e-06
6.0712e-06
6.07134e-06
6.07148e-06
6.07166e-06
6.07171e-06
6.07175e-06
6.07194e-06
6.07214e-06
6.07233e-06
6.07257e-06
6.07261e-06
6.07273e-06
6.073e-06
6.07326e-06
6.0735e-06
6.0738e-06
6.07384e-06
6.07392e-06
6.07424e-06
6.07455e-06
6.07484e-06
6.07519e-06
6.07526e-06
6.07528e-06
6.07565e-06
6.07599e-06
6.07632e-06
6.07669e-06
6.0768e-06
6.07687e-06
6.07727e-06
6.07764e-06
6.078e-06
6.0784e-06
6.07852e-06
6.07839e-06
6.07885e-06
6.07928e-06
6.0797e-06
6.08009e-06
6.08052e-06
6.08066e-06
6.08076e-06
6.08128e-06
6.08176e-06
6.08223e-06
6.08267e-06
6.08314e-06
6.08332e-06
6.08357e-06
6.08414e-06
6.08469e-06
6.08522e-06
6.08572e-06
6.08625e-06
6.0865e-06
6.08668e-06
6.08731e-06
6.08792e-06
6.08852e-06
6.08909e-06
6.0897e-06
6.09003e-06
6.08987e-06
6.09056e-06
6.09122e-06
6.09188e-06
6.09252e-06
6.0932e-06
6.09362e-06
6.0929e-06
6.09362e-06
6.09432e-06
6.09501e-06
6.09569e-06
6.09642e-06
6.09692e-06
6.09526e-06
6.096e-06
6.09671e-06
6.09743e-06
6.09814e-06
6.0989e-06
6.09947e-06
6.09672e-06
6.09748e-06
6.09822e-06
6.09897e-06
6.09972e-06
6.10053e-06
6.10117e-06
6.09778e-06
6.09855e-06
6.09931e-06
6.10008e-06
6.10087e-06
6.10172e-06
6.10244e-06
6.09846e-06
6.09922e-06
6.09998e-06
6.10076e-06
6.10156e-06
6.10243e-06
6.10319e-06
6.09835e-06
6.09914e-06
6.09992e-06
6.10071e-06
6.10152e-06
6.10235e-06
6.10325e-06
6.10403e-06
6.09971e-06
6.10062e-06
6.10152e-06
6.10243e-06
6.10335e-06
6.1043e-06
6.10532e-06
6.10618e-06
6.10279e-06
6.10393e-06
6.10507e-06
6.10622e-06
6.10739e-06
6.1086e-06
6.10992e-06
6.11102e-06
6.10756e-06
6.10895e-06
6.11034e-06
6.11174e-06
6.11317e-06
6.11467e-06
6.11629e-06
6.11776e-06
6.11098e-06
6.11232e-06
6.11366e-06
6.11501e-06
6.11639e-06
6.11783e-06
6.11939e-06
6.1209e-06
6.10788e-06
6.10871e-06
6.10952e-06
6.11033e-06
6.11113e-06
6.11197e-06
6.11278e-06
6.11367e-06
6.09978e-06
6.10059e-06
6.10144e-06
6.10231e-06
6.10323e-06
6.1042e-06
6.10532e-06
6.10624e-06
6.1026e-06
6.10491e-06
6.10726e-06
6.10968e-06
6.11221e-06
6.11491e-06
6.11792e-06
6.12078e-06
6.09859e-06
6.09951e-06
6.10035e-06
6.1011e-06
6.1018e-06
6.10245e-06
6.10312e-06
6.1037e-06
0.268461
0.117306
0.0501338
0.0232404
0.00551985
9.88465e-05
1.68393e-06
2.24867e-10
7.00658e-08
4.51391e-06
6.40753e-06
6.32452e-06
6.18303e-06
6.14846e-06
6.14251e-06
6.1384e-06
6.13374e-06
6.12921e-06
6.12497e-06
6.12099e-06
6.11714e-06
6.11332e-06
6.1095e-06
6.1057e-06
6.102e-06
6.0985e-06
6.0953e-06
6.09244e-06
6.0899e-06
6.08766e-06
6.0857e-06
6.08401e-06
6.08251e-06
6.08117e-06
6.07999e-06
6.07897e-06
6.07809e-06
6.07737e-06
6.07679e-06
6.07629e-06
6.07584e-06
6.07541e-06
6.07495e-06
6.07447e-06
6.07398e-06
6.07347e-06
6.07297e-06
6.07253e-06
6.07214e-06
6.0718e-06
6.07156e-06
6.07139e-06
6.07126e-06
6.07122e-06
6.07138e-06
6.07186e-06
6.0728e-06
6.07409e-06
6.07554e-06
6.07712e-06
6.0789e-06
6.0811e-06
6.08383e-06
6.08709e-06
6.09069e-06
6.09434e-06
6.09766e-06
6.10019e-06
6.10187e-06
6.10314e-06
6.10389e-06
6.10477e-06
6.10709e-06
6.11219e-06
6.11914e-06
6.12199e-06
6.11428e-06
6.10718e-06
6.1228e-06
6.1043e-06
0.324984
0.125321
0.0249996
0.00727538
0.000819704
0.000189037
4.76878e-11
1.85155e-08
2.75989e-06
6.16195e-06
6.37807e-06
6.21869e-06
6.16229e-06
6.14948e-06
6.14467e-06
6.13957e-06
6.13445e-06
6.12969e-06
6.1253e-06
6.1212e-06
6.11728e-06
6.11342e-06
6.10959e-06
6.1058e-06
6.10214e-06
6.09871e-06
6.09554e-06
6.09266e-06
6.09007e-06
6.08777e-06
6.08576e-06
6.08401e-06
6.08246e-06
6.08108e-06
6.07987e-06
6.07881e-06
6.0779e-06
6.07715e-06
6.07654e-06
6.07602e-06
6.07555e-06
6.07512e-06
6.07469e-06
6.07425e-06
6.07379e-06
6.07332e-06
6.07287e-06
6.07246e-06
6.07209e-06
6.07178e-06
6.07158e-06
6.07145e-06
6.07136e-06
6.07135e-06
6.07155e-06
6.07209e-06
6.07306e-06
6.07437e-06
6.07584e-06
6.07745e-06
6.07927e-06
6.08153e-06
6.08434e-06
6.08767e-06
6.09134e-06
6.09502e-06
6.09834e-06
6.10083e-06
6.10249e-06
6.10373e-06
6.10447e-06
6.10539e-06
6.10787e-06
6.1132e-06
6.12027e-06
6.12276e-06
6.11471e-06
6.10802e-06
6.12414e-06
6.10465e-06
0.22454
0.0613547
0.00387969
0.00089624
0.000222239
0
9.80592e-09
2.64589e-06
5.99311e-06
6.38584e-06
6.25019e-06
6.16685e-06
6.15586e-06
6.14925e-06
6.14414e-06
6.13869e-06
6.13356e-06
6.12885e-06
6.12451e-06
6.12046e-06
6.11659e-06
6.11283e-06
6.10919e-06
6.1056e-06
6.1021e-06
6.09877e-06
6.09565e-06
6.09276e-06
6.09014e-06
6.08781e-06
6.08577e-06
6.08397e-06
6.08239e-06
6.08098e-06
6.07975e-06
6.07866e-06
6.07772e-06
6.07696e-06
6.07633e-06
6.0758e-06
6.07532e-06
6.0749e-06
6.0745e-06
6.07409e-06
6.07367e-06
6.07324e-06
6.07284e-06
6.07245e-06
6.0721e-06
6.07183e-06
6.07167e-06
6.07157e-06
6.07151e-06
6.07154e-06
6.07178e-06
6.07235e-06
6.07336e-06
6.07468e-06
6.07617e-06
6.07781e-06
6.07969e-06
6.08202e-06
6.0849e-06
6.08831e-06
6.09205e-06
6.09575e-06
6.09908e-06
6.10153e-06
6.10315e-06
6.10436e-06
6.10508e-06
6.10607e-06
6.10872e-06
6.1143e-06
6.12146e-06
6.12353e-06
6.11515e-06
6.10899e-06
6.12549e-06
6.10497e-06
0.0763551
0.00949761
0.00235747
9.09578e-08
0
6.46749e-09
1.73911e-06
6.70124e-06
6.39369e-06
6.26337e-06
6.17698e-06
6.15482e-06
6.15329e-06
6.14737e-06
6.14211e-06
6.1368e-06
6.13189e-06
6.12737e-06
6.1232e-06
6.1193e-06
6.11558e-06
6.11199e-06
6.10852e-06
6.10516e-06
6.10187e-06
6.09868e-06
6.09564e-06
6.09278e-06
6.09016e-06
6.08781e-06
6.08574e-06
6.08392e-06
6.0823e-06
6.08088e-06
6.07963e-06
6.07853e-06
6.07759e-06
6.07682e-06
6.07619e-06
6.07565e-06
6.07518e-06
6.07477e-06
6.07439e-06
6.07401e-06
6.07362e-06
6.07323e-06
6.07287e-06
6.0725e-06
6.07217e-06
6.07194e-06
6.07182e-06
6.07173e-06
6.07169e-06
6.07175e-06
6.07203e-06
6.07265e-06
6.07367e-06
6.07501e-06
6.07654e-06
6.07822e-06
6.08014e-06
6.08254e-06
6.0855e-06
6.08899e-06
6.09279e-06
6.09653e-06
6.09985e-06
6.10227e-06
6.10384e-06
6.10502e-06
6.10573e-06
6.10679e-06
6.10964e-06
6.11548e-06
6.12271e-06
6.1243e-06
6.1156e-06
6.11005e-06
6.12687e-06
6.10523e-06
0.00752898
3.98453e-08
1.39519e-10
0
6.18858e-09
1.65625e-06
6.81596e-06
6.82379e-06
6.1916e-06
6.19786e-06
6.1545e-06
6.15488e-06
6.15076e-06
6.14523e-06
6.14002e-06
6.13498e-06
6.13031e-06
6.12598e-06
6.12198e-06
6.11825e-06
6.1147e-06
6.11128e-06
6.10797e-06
6.10473e-06
6.10154e-06
6.09843e-06
6.09544e-06
6.09263e-06
6.09004e-06
6.0877e-06
6.08563e-06
6.08379e-06
6.08218e-06
6.08076e-06
6.07952e-06
6.07842e-06
6.07749e-06
6.07673e-06
6.0761e-06
6.07557e-06
6.07512e-06
6.07473e-06
6.07436e-06
6.07401e-06
6.07364e-06
6.0733e-06
6.07296e-06
6.07261e-06
6.0723e-06
6.07211e-06
6.072e-06
6.07192e-06
6.0719e-06
6.07199e-06
6.07231e-06
6.07295e-06
6.07399e-06
6.07538e-06
6.07695e-06
6.07866e-06
6.08063e-06
6.0831e-06
6.08614e-06
6.08972e-06
6.09358e-06
6.09735e-06
6.10066e-06
6.10304e-06
6.10457e-06
6.10571e-06
6.10641e-06
6.10755e-06
6.11063e-06
6.11673e-06
6.12399e-06
6.12508e-06
6.11606e-06
6.11121e-06
6.12828e-06
6.10545e-06
0.000616197
9.34134e-16
0
6.75029e-09
1.76245e-06
6.68589e-06
6.98787e-06
6.27371e-06
6.15091e-06
6.17555e-06
6.15481e-06
6.15583e-06
6.14959e-06
6.14439e-06
6.13917e-06
6.13425e-06
6.12965e-06
6.12539e-06
6.12145e-06
6.11778e-06
6.11431e-06
6.11099e-06
6.10776e-06
6.10461e-06
6.10149e-06
6.09843e-06
6.09545e-06
6.09264e-06
6.09003e-06
6.08767e-06
6.08558e-06
6.08372e-06
6.0821e-06
6.08068e-06
6.07944e-06
6.07836e-06
6.07745e-06
6.07671e-06
6.07609e-06
6.07558e-06
6.07515e-06
6.07478e-06
6.07443e-06
6.07409e-06
6.07375e-06
6.07344e-06
6.07311e-06
6.07277e-06
6.07249e-06
6.07232e-06
6.07222e-06
6.07214e-06
6.07213e-06
6.07226e-06
6.07261e-06
6.07328e-06
6.07435e-06
6.07578e-06
6.07739e-06
6.07912e-06
6.08115e-06
6.08368e-06
6.08681e-06
6.09048e-06
6.09441e-06
6.0982e-06
6.10151e-06
6.10384e-06
6.10533e-06
6.10642e-06
6.10711e-06
6.10835e-06
6.11167e-06
6.11806e-06
6.12531e-06
6.12585e-06
6.11651e-06
6.11248e-06
0
4.01821e-17
1.0425e-08
2.7101e-06
6.85313e-06
6.93995e-06
6.3372e-06
6.14814e-06
6.1715e-06
6.16973e-06
6.161e-06
6.15742e-06
6.15101e-06
6.14564e-06
6.14024e-06
6.13518e-06
6.13043e-06
6.12604e-06
6.12198e-06
6.11822e-06
6.11469e-06
6.11134e-06
6.10811e-06
6.10496e-06
6.10185e-06
6.09878e-06
6.0958e-06
6.09297e-06
6.09034e-06
6.08795e-06
6.08582e-06
6.08393e-06
6.08227e-06
6.08082e-06
6.07956e-06
6.07848e-06
6.07757e-06
6.07682e-06
6.07621e-06
6.07571e-06
6.0753e-06
6.07494e-06
6.0746e-06
6.07427e-06
6.07395e-06
6.07365e-06
6.07333e-06
6.073e-06
6.07273e-06
6.07257e-06
6.07247e-06
6.07239e-06
6.0724e-06
6.07255e-06
6.07292e-06
6.07361e-06
6.07473e-06
6.07622e-06
6.07786e-06
6.07962e-06
6.0817e-06
6.08431e-06
6.08753e-06
6.09128e-06
6.09528e-06
6.0991e-06
6.10239e-06
6.10467e-06
6.10611e-06
6.10716e-06
6.10785e-06
6.10921e-06
6.11278e-06
6.11946e-06
6.12664e-06
6.12661e-06
1.07715e-11
2.51717e-09
3.02211e-06
7.45617e-06
6.8194e-06
6.27283e-06
6.18796e-06
6.17044e-06
6.18224e-06
6.17311e-06
6.16715e-06
6.16092e-06
6.15468e-06
6.14884e-06
6.14313e-06
6.13776e-06
6.13271e-06
6.12802e-06
6.1237e-06
6.1197e-06
6.11599e-06
6.11249e-06
6.10915e-06
6.10591e-06
6.10273e-06
6.09961e-06
6.09658e-06
6.0937e-06
6.09102e-06
6.08857e-06
6.08637e-06
6.08442e-06
6.0827e-06
6.08121e-06
6.0799e-06
6.07879e-06
6.07786e-06
6.07711e-06
6.0765e-06
6.076e-06
6.07559e-06
6.07522e-06
6.07487e-06
6.07454e-06
6.07424e-06
6.07394e-06
6.07361e-06
6.07328e-06
6.07303e-06
6.07287e-06
6.07276e-06
6.07267e-06
6.07269e-06
6.07286e-06
6.07325e-06
6.07397e-06
6.07515e-06
6.07669e-06
6.07835e-06
6.08014e-06
6.08228e-06
6.08496e-06
6.08828e-06
6.09213e-06
6.09618e-06
6.10002e-06
6.1033e-06
6.10553e-06
6.10691e-06
6.10791e-06
6.10861e-06
6.11009e-06
6.11394e-06
6.12093e-06
6.04825e-08
5.07978e-06
7.57329e-06
6.78244e-06
6.18308e-06
6.18631e-06
6.19985e-06
6.18907e-06
6.18739e-06
6.17925e-06
6.1726e-06
6.16581e-06
6.15945e-06
6.15321e-06
6.14721e-06
6.1415e-06
6.1361e-06
6.13108e-06
6.12642e-06
6.12212e-06
6.11814e-06
6.11441e-06
6.11088e-06
6.10748e-06
6.10417e-06
6.10095e-06
6.09783e-06
6.09486e-06
6.09209e-06
6.08956e-06
6.08727e-06
6.08522e-06
6.08342e-06
6.08184e-06
6.08047e-06
6.07931e-06
6.07835e-06
6.07757e-06
6.07695e-06
6.07644e-06
6.07601e-06
6.07562e-06
6.07526e-06
6.07492e-06
6.0746e-06
6.07429e-06
6.07395e-06
6.07362e-06
6.07337e-06
6.07321e-06
6.07307e-06
6.07298e-06
6.07301e-06
6.07319e-06
6.0736e-06
6.07436e-06
6.07559e-06
6.07718e-06
6.07886e-06
6.08068e-06
6.08288e-06
6.08566e-06
6.08908e-06
6.09302e-06
6.09713e-06
6.10098e-06
6.10422e-06
6.1064e-06
6.10771e-06
6.10866e-06
6.10939e-06
5.78612e-06
7.63835e-06
6.72269e-06
6.14504e-06
6.15865e-06
6.22363e-06
6.20489e-06
6.19647e-06
6.19168e-06
6.18417e-06
6.17727e-06
6.17063e-06
6.16416e-06
6.15778e-06
6.15162e-06
6.14568e-06
6.14004e-06
6.13472e-06
6.12977e-06
6.12518e-06
6.12091e-06
6.11694e-06
6.11318e-06
6.10959e-06
6.10612e-06
6.10275e-06
6.09952e-06
6.09644e-06
6.09356e-06
6.0909e-06
6.08849e-06
6.08633e-06
6.08441e-06
6.08273e-06
6.08127e-06
6.08005e-06
6.07904e-06
6.07822e-06
6.07757e-06
6.07703e-06
6.07656e-06
6.07613e-06
6.07574e-06
6.07538e-06
6.07505e-06
6.07471e-06
6.07435e-06
6.07401e-06
6.07376e-06
6.07358e-06
6.07342e-06
6.07333e-06
6.07336e-06
6.07356e-06
6.07398e-06
6.07477e-06
6.07607e-06
6.07769e-06
6.0794e-06
6.08125e-06
6.08352e-06
6.08638e-06
6.0899e-06
6.09393e-06
6.09809e-06
6.10197e-06
7.19985e-06
6.59468e-06
6.1558e-06
6.1444e-06
6.22377e-06
6.22137e-06
6.20329e-06
6.19937e-06
6.19354e-06
6.18675e-06
6.18039e-06
6.17412e-06
6.16785e-06
6.16165e-06
6.15555e-06
6.1496e-06
6.14388e-06
6.13842e-06
6.13328e-06
6.12848e-06
6.12399e-06
6.1198e-06
6.11584e-06
6.11206e-06
6.10843e-06
6.10493e-06
6.10156e-06
6.09836e-06
6.09535e-06
6.09256e-06
6.09001e-06
6.08771e-06
6.08566e-06
6.08386e-06
6.0823e-06
6.08099e-06
6.07992e-06
6.07905e-06
6.07835e-06
6.07776e-06
6.07724e-06
6.07677e-06
6.07633e-06
6.07594e-06
6.07558e-06
6.0752e-06
6.07481e-06
6.07447e-06
6.0742e-06
6.07399e-06
6.07381e-06
6.07371e-06
6.07374e-06
6.07393e-06
6.07435e-06
6.07518e-06
6.07654e-06
6.0782e-06
6.07993e-06
6.08183e-06
6.08419e-06
6.41832e-06
6.186e-06
6.14955e-06
6.21148e-06
6.22405e-06
6.20762e-06
6.20095e-06
6.19759e-06
6.19208e-06
6.18653e-06
6.18104e-06
6.17544e-06
6.16976e-06
6.16403e-06
6.15829e-06
6.15259e-06
6.14701e-06
6.14162e-06
6.13648e-06
6.13161e-06
6.12702e-06
6.1227e-06
6.11861e-06
6.1147e-06
6.11095e-06
6.10734e-06
6.10386e-06
6.10055e-06
6.09742e-06
6.0945e-06
6.09182e-06
6.08938e-06
6.08719e-06
6.08525e-06
6.08357e-06
6.08216e-06
6.08101e-06
6.08006e-06
6.07929e-06
6.07862e-06
6.07803e-06
6.07748e-06
6.07697e-06
6.07654e-06
6.07613e-06
6.07571e-06
6.07529e-06
6.07494e-06
6.07465e-06
6.07441e-06
6.07421e-06
6.07409e-06
6.07412e-06
6.07436e-06
6.20539e-06
6.16861e-06
6.19541e-06
6.21294e-06
6.20483e-06
6.19768e-06
6.19548e-06
6.1922e-06
6.18808e-06
6.18387e-06
6.17943e-06
6.17477e-06
6.1699e-06
6.16485e-06
6.15967e-06
6.15441e-06
6.14917e-06
6.14402e-06
6.13902e-06
6.13423e-06
6.12966e-06
6.12531e-06
6.12117e-06
6.1172e-06
6.11338e-06
6.10969e-06
6.10613e-06
6.10272e-06
6.09949e-06
6.09646e-06
6.09365e-06
6.09108e-06
6.08876e-06
6.0867e-06
6.08491e-06
6.08341e-06
6.08217e-06
6.08115e-06
6.08029e-06
6.07953e-06
6.07886e-06
6.07838e-06
)
;

boundaryField
{
    inlet
    {
        type            freestream;
        freestreamValue uniform 1e-05;
        value           uniform 1e-05;
    }
    outlet
    {
        type            freestream;
        freestreamValue nonuniform List<scalar> 0();
        value           nonuniform List<scalar> 0();
    }
    walls
    {
        type            nutUSpaldingWallFunction;
        value           nonuniform List<scalar> 4(0.00285519 0.00279956 0.00272741 0.00249867);
    }
    frontAndBack
    {
        type            empty;
    }
    procBoundary2to1
    {
        type            processor;
        value           nonuniform List<scalar> 
84
(
0.113638
0.071787
0.0344123
0.00368105
0.000862972
1.75832e-08
4.61407e-06
6.30742e-06
6.19421e-06
6.1319e-06
6.13403e-06
6.12998e-06
6.12595e-06
6.12171e-06
6.11835e-06
6.11512e-06
6.11197e-06
6.10873e-06
6.10536e-06
6.1019e-06
6.09844e-06
6.09509e-06
6.09204e-06
6.08937e-06
6.0871e-06
6.08521e-06
6.08365e-06
6.08233e-06
6.08113e-06
6.08001e-06
6.07899e-06
6.07811e-06
6.07737e-06
6.07678e-06
6.07634e-06
6.07604e-06
6.07583e-06
6.07568e-06
6.07568e-06
6.07537e-06
6.07522e-06
6.07501e-06
6.07472e-06
6.07437e-06
6.074e-06
6.07362e-06
6.07322e-06
6.07286e-06
6.07254e-06
6.07222e-06
6.07189e-06
6.07158e-06
6.0713e-06
6.0713e-06
6.07109e-06
6.07087e-06
6.07079e-06
6.07098e-06
6.07155e-06
6.07245e-06
6.07357e-06
6.07488e-06
6.07644e-06
6.07644e-06
6.07788e-06
6.0802e-06
6.08294e-06
6.08598e-06
6.08912e-06
6.09213e-06
6.09445e-06
6.09591e-06
6.09697e-06
6.09766e-06
6.09766e-06
6.09751e-06
6.09877e-06
6.10161e-06
6.10611e-06
6.10957e-06
6.10699e-06
6.09896e-06
6.10031e-06
6.09757e-06
)
;
    }
    procBoundary2to3
    {
        type            processor;
        value           nonuniform List<scalar> 
88
(
6.12976e-06
6.10561e-06
6.11699e-06
6.12976e-06
6.11388e-06
6.12806e-06
6.11699e-06
6.12739e-06
6.11108e-06
6.11524e-06
6.12806e-06
6.12251e-06
6.10524e-06
6.10735e-06
6.1086e-06
6.1095e-06
6.11108e-06
6.11024e-06
6.0872e-06
6.09083e-06
6.09495e-06
6.09916e-06
6.10524e-06
6.10304e-06
6.07488e-06
6.07571e-06
6.07713e-06
6.07882e-06
6.08056e-06
6.08251e-06
6.0872e-06
6.08495e-06
6.07799e-06
6.07747e-06
6.07699e-06
6.07651e-06
6.07605e-06
6.07566e-06
6.07533e-06
6.07503e-06
6.07479e-06
6.07467e-06
6.07469e-06
6.07488e-06
6.07489e-06
6.17824e-06
6.17461e-06
6.18725e-06
6.18833e-06
6.18411e-06
6.1827e-06
6.18187e-06
6.18009e-06
6.17788e-06
6.17536e-06
6.17252e-06
6.16938e-06
6.16592e-06
6.16216e-06
6.15813e-06
6.15388e-06
6.14947e-06
6.145e-06
6.14052e-06
6.13612e-06
6.13185e-06
6.12772e-06
6.12375e-06
6.11992e-06
6.11621e-06
6.11261e-06
6.10911e-06
6.10572e-06
6.10245e-06
6.09934e-06
6.09641e-06
6.09368e-06
6.09118e-06
6.08894e-06
6.08699e-06
6.08532e-06
6.08393e-06
6.08278e-06
6.08179e-06
6.08093e-06
6.08018e-06
6.07799e-06
6.07947e-06
)
;
    }
    procBoundary2to6
    {
        type            processor;
        value           nonuniform List<scalar> 
13
(
0.451824
0.53793
0.423534
0.220123
0.0513252
0.00220653
1.00416e-06
0
2.52898e-10
3.39126e-07
6.04249e-06
6.64163e-06
6.22063e-06
)
;
    }
}


// ************************************************************************* //
