/*--------------------------------*- C++ -*----------------------------------*\
| =========                 |                                                 |
| \\      /  F ield         | OpenFOAM: The Open Source CFD Toolbox           |
|  \\    /   O peration     | Version:  2506                                  |
|   \\  /    A nd           | Website:  www.openfoam.com                      |
|    \\/     M anipulation  |                                                 |
\*---------------------------------------------------------------------------*/
FoamFile
{
    version     2.0;
    format      ascii;
    arch        "LSB;label=32;scalar=64";
    class       volScalarField;
    location    "100";
    object      turbulenceProperties:I;
}
// * * * * * * * * * * * * * * * * * * * * * * * * * * * * * * * * * * * * * //

dimensions      [0 0 0 0 0 0 0];

internalField   nonuniform List<scalar> 
1340
(
0.244213
0.245183
0.247881
0.246389
0.0392039
0.0414215
0.0453751
0.05493
0.0188483
0.0222068
0.0242232
0.0325426
0.00365291
0.00641084
0.00963487
0.0197573
8.26072e-05
0.00105867
0.00152273
0.00756508
3.8726e-05
0.000436825
0.000741234
0.00207673
0.000128739
4.07367e-05
3.16546e-06
0.000995154
0.000137303
0.000126744
1.14731e-05
2.79544e-07
0.000157938
0.000156777
0.000184407
4.25327e-05
0.000143364
0.000137831
0.000168287
0.000149254
0.000145558
0.000143254
0.000157953
0.000188399
0.000140446
0.000137426
0.000148032
0.000181001
0.000139022
0.000135973
0.00014401
0.000170584
0.000135867
0.000132137
0.000138329
0.000160771
0.000133299
0.000129194
0.000133264
0.00015175
0.000130298
0.000125693
0.000127882
0.000142907
0.000127294
0.000122244
0.000122671
0.000134329
0.00012411
0.000118594
0.000117441
0.000125979
0.000120824
0.000114862
0.000112265
0.000117859
0.000117425
0.000111033
0.000107131
0.000110045
0.000113933
0.000107135
0.000102045
0.000102488
0.000110341
0.000103152
9.70169e-05
9.52055e-05
0.000106674
9.91119e-05
9.205e-05
8.82068e-05
0.000102941
9.50438e-05
8.71435e-05
8.14894e-05
9.9165e-05
9.09672e-05
8.23238e-05
7.50717e-05
9.53581e-05
8.68968e-05
7.76104e-05
6.89386e-05
9.15547e-05
8.28681e-05
7.30255e-05
6.31068e-05
8.7766e-05
7.89065e-05
6.85971e-05
5.76086e-05
8.40208e-05
7.50423e-05
6.43592e-05
5.2469e-05
8.03356e-05
7.1307e-05
6.03626e-05
4.77727e-05
7.67496e-05
6.77398e-05
5.66569e-05
4.35994e-05
7.32783e-05
6.43681e-05
5.32929e-05
4.01069e-05
6.99494e-05
6.12174e-05
5.03073e-05
3.74056e-05
6.67705e-05
5.83007e-05
4.77358e-05
3.55889e-05
6.37663e-05
5.56418e-05
4.55877e-05
3.45775e-05
6.09347e-05
5.3231e-05
4.38387e-05
3.41916e-05
5.82953e-05
5.1071e-05
4.2446e-05
3.41844e-05
5.58328e-05
4.91294e-05
4.13368e-05
3.43507e-05
5.89346e-05
5.35413e-05
4.73903e-05
4.04468e-05
3.45546e-05
5.63661e-05
5.14191e-05
4.58258e-05
3.96924e-05
3.47021e-05
5.39617e-05
4.94587e-05
4.44156e-05
3.90288e-05
3.47548e-05
5.17028e-05
4.7628e-05
4.31059e-05
3.83896e-05
3.46835e-05
4.95802e-05
4.59122e-05
4.18785e-05
3.77561e-05
3.45004e-05
4.75742e-05
4.42885e-05
4.07021e-05
3.70964e-05
3.41964e-05
4.5672e-05
4.27433e-05
3.95644e-05
3.64102e-05
3.38003e-05
4.38615e-05
4.12593e-05
3.84446e-05
3.56793e-05
3.33066e-05
4.21345e-05
3.98257e-05
3.73338e-05
3.49051e-05
3.27334e-05
4.04828e-05
3.84386e-05
3.62321e-05
3.40933e-05
3.20884e-05
3.88983e-05
3.70914e-05
3.51384e-05
3.32548e-05
3.13973e-05
3.73754e-05
3.57797e-05
3.40514e-05
3.23895e-05
3.06578e-05
3.59169e-05
3.45077e-05
3.29751e-05
3.15056e-05
2.98883e-05
3.45151e-05
3.32704e-05
3.19135e-05
3.06114e-05
2.90939e-05
3.41713e-05
3.31628e-05
3.20586e-05
3.08546e-05
2.97004e-05
2.82785e-05
3.27237e-05
3.1835e-05
3.08649e-05
2.98019e-05
2.87864e-05
2.74535e-05
3.13119e-05
3.05368e-05
2.96864e-05
2.87531e-05
2.78619e-05
2.66197e-05
2.99404e-05
2.92607e-05
2.85203e-05
2.77056e-05
2.6931e-05
2.57779e-05
2.86045e-05
2.80171e-05
2.73721e-05
2.66602e-05
2.59882e-05
2.49244e-05
2.73194e-05
2.68032e-05
2.62401e-05
2.56197e-05
2.50417e-05
2.40623e-05
2.60752e-05
2.56257e-05
2.51343e-05
2.45927e-05
2.40969e-05
2.31969e-05
2.4884e-05
2.44854e-05
2.40518e-05
2.35823e-05
2.31613e-05
2.23371e-05
2.37259e-05
2.33739e-05
2.29937e-05
2.25883e-05
2.22294e-05
2.14743e-05
2.28747e-05
2.25873e-05
2.22762e-05
2.19429e-05
2.15907e-05
2.1288e-05
2.05915e-05
2.16913e-05
2.14369e-05
2.11703e-05
2.08869e-05
2.05864e-05
2.03268e-05
1.96881e-05
2.04884e-05
2.02754e-05
2.00524e-05
1.98124e-05
1.9556e-05
1.93399e-05
1.87562e-05
1.92759e-05
1.90975e-05
1.89131e-05
1.87146e-05
1.85023e-05
1.83334e-05
1.78015e-05
1.80618e-05
1.79158e-05
1.77664e-05
1.76078e-05
1.74406e-05
1.73198e-05
1.68387e-05
1.6913e-05
1.67865e-05
1.66654e-05
1.65432e-05
1.6419e-05
1.63451e-05
1.59118e-05
1.59326e-05
1.58223e-05
1.57259e-05
1.56378e-05
1.55511e-05
1.55163e-05
1.51229e-05
1.51005e-05
1.49924e-05
1.49067e-05
1.48418e-05
1.47909e-05
1.47941e-05
1.44545e-05
1.43143e-05
1.41988e-05
1.41076e-05
1.40468e-05
1.40142e-05
1.40454e-05
1.375e-05
1.35524e-05
1.3435e-05
1.33394e-05
1.32802e-05
1.3256e-05
1.3306e-05
1.30505e-05
1.28491e-05
1.27199e-05
1.2607e-05
1.25092e-05
1.2452e-05
1.24372e-05
1.25095e-05
1.23415e-05
1.19303e-05
1.1781e-05
1.16515e-05
1.15393e-05
1.14633e-05
1.14284e-05
1.1482e-05
1.12867e-05
1.04794e-05
1.033e-05
1.02277e-05
1.01646e-05
1.01662e-05
1.02428e-05
1.04805e-05
1.06506e-05
7.80389e-06
7.4115e-06
7.12176e-06
6.96415e-06
7.04049e-06
7.38749e-06
8.31294e-06
8.72287e-06
6.6821e-06
6.97861e-06
7.46024e-06
8.03102e-06
8.65667e-06
9.28087e-06
9.94479e-06
1.08048e-05
1.11785e-05
1.13256e-05
1.14295e-05
1.15056e-05
1.16186e-05
1.19596e-05
1.31545e-05
1.41707e-05
1.74416e-05
1.77609e-05
1.80346e-05
1.82803e-05
1.85547e-05
1.89555e-05
1.99132e-05
2.06883e-05
2.44769e-05
2.44896e-05
2.4497e-05
2.44982e-05
2.44924e-05
2.45113e-05
2.47091e-05
2.40382e-05
3.37632e-05
3.37088e-05
3.3642e-05
3.35649e-05
3.34644e-05
3.33748e-05
3.31613e-05
3.19168e-05
0.185484
0.07238
0.0274406
0.0126451
0.00448358
0.000541741
0.00015739
1.6567e-05
6.5303e-05
0.000179378
0.000185012
0.00017466
0.000163556
0.000153713
0.000144187
0.000134973
0.000125979
0.000117268
0.000108846
0.000100688
9.28058e-05
8.51956e-05
7.78536e-05
7.07636e-05
6.39074e-05
5.72554e-05
5.07896e-05
4.44734e-05
3.82857e-05
3.22203e-05
2.64093e-05
2.16166e-05
1.99077e-05
2.1677e-05
2.43198e-05
2.66566e-05
2.84893e-05
2.98715e-05
3.08749e-05
3.15604e-05
3.19787e-05
3.217e-05
3.21792e-05
3.20281e-05
3.17572e-05
3.13735e-05
3.08986e-05
3.03474e-05
2.97464e-05
2.90952e-05
2.8413e-05
2.77015e-05
2.69723e-05
2.62334e-05
2.54896e-05
2.47354e-05
2.39708e-05
2.31936e-05
2.24097e-05
2.16235e-05
2.08298e-05
2.00158e-05
1.91821e-05
1.83231e-05
1.74431e-05
1.65508e-05
1.56916e-05
1.49427e-05
1.43136e-05
1.3653e-05
1.29914e-05
1.23439e-05
1.12988e-05
1.0936e-05
8.90197e-06
1.15016e-05
1.37643e-05
2.04663e-05
2.26063e-05
3.01021e-05
0.116376
0.0508926
0.0119724
0.00323283
0.000906004
0.000428297
7.18455e-06
3.07908e-05
0.000104444
0.000124473
0.000120652
0.000115641
0.000110747
0.000106267
0.000101677
9.71074e-05
9.24501e-05
8.77256e-05
8.29393e-05
7.80787e-05
7.3162e-05
6.81835e-05
6.31598e-05
5.8105e-05
5.30436e-05
4.79863e-05
4.29701e-05
3.8024e-05
3.32343e-05
2.87492e-05
2.49962e-05
2.27109e-05
2.24207e-05
2.35151e-05
2.50531e-05
2.65218e-05
2.77487e-05
2.87153e-05
2.94338e-05
2.99327e-05
3.02376e-05
3.03759e-05
3.03737e-05
3.02496e-05
3.00303e-05
2.97202e-05
2.93338e-05
2.88871e-05
2.83966e-05
2.78628e-05
2.72982e-05
2.67044e-05
2.60873e-05
2.54547e-05
2.48069e-05
2.41408e-05
2.34555e-05
2.27518e-05
2.2036e-05
2.1315e-05
2.05795e-05
1.98209e-05
1.904e-05
1.82282e-05
1.73905e-05
1.65366e-05
1.57121e-05
1.49824e-05
1.43655e-05
1.37233e-05
1.3078e-05
1.24513e-05
1.14142e-05
1.11583e-05
8.82897e-06
1.21133e-05
1.30395e-05
2.05534e-05
2.25677e-05
3.04511e-05
0.0604625
0.0207994
0.00216675
0.0006974
0.00034315
0
1.9503e-05
7.71277e-05
9.33552e-05
9.20961e-05
8.90902e-05
8.61839e-05
8.34249e-05
8.06647e-05
7.77953e-05
7.48846e-05
7.18897e-05
6.88537e-05
6.57473e-05
6.26331e-05
5.94905e-05
5.63531e-05
5.32275e-05
5.0164e-05
4.71779e-05
4.42985e-05
4.15578e-05
3.90163e-05
3.67095e-05
3.47032e-05
3.30332e-05
3.17359e-05
3.07992e-05
3.01921e-05
2.98368e-05
2.96636e-05
2.95925e-05
2.9574e-05
2.95579e-05
2.95222e-05
2.94437e-05
2.93152e-05
2.91322e-05
2.88969e-05
2.86148e-05
2.82797e-05
2.78983e-05
2.74811e-05
2.70361e-05
2.65618e-05
2.60654e-05
2.55461e-05
2.50071e-05
2.44534e-05
2.38809e-05
2.32878e-05
2.26714e-05
2.20353e-05
2.13862e-05
2.07283e-05
2.00568e-05
1.93618e-05
1.8639e-05
1.78821e-05
1.70975e-05
1.62942e-05
1.55175e-05
1.48198e-05
1.42267e-05
1.36182e-05
1.29997e-05
1.2402e-05
1.1385e-05
1.11993e-05
8.85313e-06
1.23965e-05
1.25618e-05
2.04834e-05
2.2361e-05
3.0439e-05
0.0185159
0.00293044
0.000841172
2.79219e-05
0
1.17116e-05
4.67648e-05
6.53963e-05
6.37308e-05
6.20944e-05
6.08425e-05
5.94918e-05
5.82476e-05
5.69123e-05
5.55555e-05
5.41635e-05
5.27618e-05
5.13532e-05
4.99355e-05
4.85168e-05
4.70857e-05
4.56626e-05
4.42412e-05
4.28298e-05
4.14264e-05
4.00509e-05
3.87069e-05
3.74217e-05
3.61981e-05
3.50652e-05
3.40201e-05
3.30884e-05
3.22601e-05
3.15484e-05
3.09315e-05
3.04126e-05
2.99616e-05
2.95776e-05
2.92297e-05
2.89116e-05
2.86032e-05
2.82985e-05
2.79831e-05
2.76581e-05
2.7318e-05
2.6952e-05
2.65638e-05
2.61604e-05
2.57445e-05
2.53115e-05
2.48661e-05
2.44058e-05
2.39323e-05
2.34455e-05
2.29397e-05
2.24116e-05
2.18598e-05
2.12862e-05
2.07008e-05
2.01094e-05
1.95015e-05
1.88698e-05
1.82085e-05
1.75074e-05
1.67764e-05
1.60253e-05
1.52963e-05
1.46356e-05
1.40737e-05
1.35041e-05
1.29164e-05
1.23517e-05
1.13681e-05
1.1232e-05
9.03256e-06
1.25566e-05
1.22542e-05
2.03887e-05
2.21092e-05
3.02854e-05
0.00138309
2.19746e-05
4.53676e-06
0
9.07904e-06
3.62913e-05
5.22514e-05
5.19321e-05
5.0118e-05
4.96151e-05
4.88767e-05
4.82013e-05
4.7429e-05
4.65941e-05
4.57183e-05
4.48017e-05
4.38698e-05
4.29141e-05
4.19539e-05
4.09887e-05
4.00321e-05
3.909e-05
3.81647e-05
3.72601e-05
3.63839e-05
3.55454e-05
3.4738e-05
3.39698e-05
3.32389e-05
3.25541e-05
3.19034e-05
3.12966e-05
3.07258e-05
3.01979e-05
2.96992e-05
2.92389e-05
2.88027e-05
2.84013e-05
2.80158e-05
2.7655e-05
2.73052e-05
2.6965e-05
2.66242e-05
2.62891e-05
2.5948e-05
2.55935e-05
2.52301e-05
2.48638e-05
2.44933e-05
2.41137e-05
2.37289e-05
2.33346e-05
2.29315e-05
2.25154e-05
2.20789e-05
2.16182e-05
2.11304e-05
2.06221e-05
2.01013e-05
1.95719e-05
1.90276e-05
1.8459e-05
1.78544e-05
1.72069e-05
1.6527e-05
1.58243e-05
1.51418e-05
1.45176e-05
1.39878e-05
1.3458e-05
1.29022e-05
1.23683e-05
1.14304e-05
1.13382e-05
9.33968e-06
1.27561e-05
1.19893e-05
2.04149e-05
2.19935e-05
3.024e-05
0.000364775
2.15674e-07
0
1.0145e-05
3.835e-05
5.11658e-05
4.92651e-05
4.59297e-05
4.41675e-05
4.2984e-05
4.20076e-05
4.12675e-05
4.06308e-05
4.01016e-05
3.95947e-05
3.90919e-05
3.85823e-05
3.80477e-05
3.74744e-05
3.68575e-05
3.62143e-05
3.55458e-05
3.48567e-05
3.41571e-05
3.3466e-05
3.27834e-05
3.21168e-05
3.1476e-05
3.08691e-05
3.02947e-05
2.97486e-05
2.92351e-05
2.87529e-05
2.83003e-05
2.78723e-05
2.74722e-05
2.70889e-05
2.67308e-05
2.63835e-05
2.60569e-05
2.57388e-05
2.54297e-05
2.51224e-05
2.48237e-05
2.45187e-05
2.4206e-05
2.38905e-05
2.35783e-05
2.32652e-05
2.29471e-05
2.26278e-05
2.23032e-05
2.19717e-05
2.16258e-05
2.12583e-05
2.08643e-05
2.04418e-05
1.99955e-05
1.9536e-05
1.90688e-05
1.85825e-05
1.80708e-05
1.75207e-05
1.69238e-05
1.62914e-05
1.56369e-05
1.49991e-05
1.44134e-05
1.39184e-05
1.3428e-05
1.29068e-05
1.24076e-05
1.15266e-05
1.14866e-05
9.69794e-06
1.29899e-05
1.16905e-05
2.04842e-05
0
1.1725e-07
1.39099e-05
5.2655e-05
6.24148e-05
5.86436e-05
5.36273e-05
4.98867e-05
4.68661e-05
4.40929e-05
4.16071e-05
3.94484e-05
3.76194e-05
3.61219e-05
3.49127e-05
3.39537e-05
3.32186e-05
3.26616e-05
3.22078e-05
3.18156e-05
3.14608e-05
3.11239e-05
3.07853e-05
3.04171e-05
3.00339e-05
2.96337e-05
2.92186e-05
2.87897e-05
2.83618e-05
2.79319e-05
2.75039e-05
2.70865e-05
2.66868e-05
2.6303e-05
2.5938e-05
2.5591e-05
2.52575e-05
2.49431e-05
2.46405e-05
2.43601e-05
2.40884e-05
2.38265e-05
2.357e-05
2.33222e-05
2.30675e-05
2.28093e-05
2.25521e-05
2.23005e-05
2.20474e-05
2.1792e-05
2.1538e-05
2.12811e-05
2.10176e-05
2.07385e-05
2.04378e-05
2.01074e-05
1.97459e-05
1.93611e-05
1.89614e-05
1.85478e-05
1.81159e-05
1.76569e-05
1.71567e-05
1.66079e-05
1.60232e-05
1.54159e-05
1.48243e-05
1.42777e-05
1.38168e-05
1.33671e-05
1.28847e-05
1.24257e-05
1.16108e-05
1.16371e-05
1.00574e-05
1.32212e-05
2.97874e-06
1.10581e-05
6.10143e-05
7.27621e-05
6.68318e-05
6.15363e-05
5.75926e-05
5.39876e-05
5.06033e-05
4.7368e-05
4.43182e-05
4.1478e-05
3.88621e-05
3.64868e-05
3.4369e-05
3.25286e-05
3.09738e-05
2.96999e-05
2.86855e-05
2.79118e-05
2.73264e-05
2.68798e-05
2.65451e-05
2.6278e-05
2.60457e-05
2.5827e-05
2.56204e-05
2.5409e-05
2.51947e-05
2.49659e-05
2.47275e-05
2.44792e-05
2.42322e-05
2.39793e-05
2.37285e-05
2.34787e-05
2.32306e-05
2.29918e-05
2.2763e-05
2.25518e-05
2.2347e-05
2.21522e-05
2.19623e-05
2.1778e-05
2.15859e-05
2.13926e-05
2.12013e-05
2.10152e-05
2.08266e-05
2.06366e-05
2.04491e-05
2.02598e-05
2.00626e-05
1.9848e-05
1.96107e-05
1.93427e-05
1.9043e-05
1.87167e-05
1.83721e-05
1.80122e-05
1.76303e-05
1.72206e-05
1.67683e-05
1.6266e-05
1.57288e-05
1.51695e-05
1.4622e-05
1.41151e-05
1.36898e-05
1.32783e-05
1.28336e-05
1.24173e-05
1.16781e-05
1.1786e-05
2.52697e-05
7.40149e-05
7.77039e-05
7.19305e-05
6.65931e-05
6.31231e-05
5.97139e-05
5.63375e-05
5.30712e-05
4.99065e-05
4.68576e-05
4.39312e-05
4.11413e-05
3.8497e-05
3.6008e-05
3.36924e-05
3.15619e-05
2.96343e-05
2.79298e-05
2.64726e-05
2.52576e-05
2.42758e-05
2.35178e-05
2.2967e-05
2.25658e-05
2.22719e-05
2.20705e-05
2.19295e-05
2.18231e-05
2.17231e-05
2.16301e-05
2.15349e-05
2.1439e-05
2.13323e-05
2.12244e-05
2.11059e-05
2.09801e-05
2.08538e-05
2.07322e-05
2.06188e-05
2.05054e-05
2.03962e-05
2.02882e-05
2.01813e-05
2.00642e-05
1.99466e-05
1.98307e-05
1.97177e-05
1.95992e-05
1.94799e-05
1.93626e-05
1.92417e-05
1.91113e-05
1.8963e-05
1.87896e-05
1.85828e-05
1.83429e-05
1.80758e-05
1.77861e-05
1.7476e-05
1.7142e-05
1.67788e-05
1.63722e-05
1.59189e-05
1.5429e-05
1.49154e-05
1.44128e-05
1.39454e-05
1.3553e-05
1.31818e-05
1.27797e-05
7.61972e-05
7.94163e-05
7.34323e-05
6.88497e-05
6.5831e-05
6.29867e-05
5.98982e-05
5.68705e-05
5.38839e-05
5.09437e-05
4.8063e-05
4.52547e-05
4.25285e-05
3.98918e-05
3.73503e-05
3.49123e-05
3.25919e-05
3.04005e-05
2.83475e-05
2.64547e-05
2.47393e-05
2.32294e-05
2.19351e-05
2.08736e-05
2.00406e-05
1.94332e-05
1.90175e-05
1.87501e-05
1.86023e-05
1.85325e-05
1.85147e-05
1.85231e-05
1.85537e-05
1.85839e-05
1.86132e-05
1.86263e-05
1.86275e-05
1.86225e-05
1.86183e-05
1.86148e-05
1.86087e-05
1.86012e-05
1.85861e-05
1.85645e-05
1.85319e-05
1.84984e-05
1.84635e-05
1.84275e-05
1.83836e-05
1.83383e-05
1.82922e-05
1.82407e-05
1.81759e-05
1.80895e-05
1.79775e-05
1.78327e-05
1.76542e-05
1.74438e-05
1.72069e-05
1.69446e-05
1.6655e-05
1.63359e-05
1.59776e-05
1.55706e-05
1.51337e-05
1.4673e-05
7.48411e-05
7.16078e-05
6.78373e-05
6.55609e-05
6.33432e-05
6.08725e-05
5.83057e-05
5.57523e-05
5.31785e-05
5.06057e-05
4.80464e-05
4.55146e-05
4.30206e-05
4.05724e-05
3.81806e-05
3.58494e-05
3.35904e-05
3.14108e-05
2.93112e-05
2.73061e-05
2.54034e-05
2.362e-05
2.19642e-05
2.0459e-05
1.91255e-05
1.80004e-05
1.7093e-05
1.64059e-05
1.59467e-05
1.56914e-05
1.55895e-05
1.55963e-05
1.56809e-05
1.58042e-05
1.59487e-05
1.60876e-05
1.62217e-05
1.63523e-05
1.64825e-05
1.66031e-05
1.67083e-05
1.6802e-05
1.68897e-05
1.69637e-05
1.7022e-05
1.70777e-05
1.7128e-05
1.71719e-05
1.72037e-05
1.72311e-05
1.72543e-05
1.72685e-05
1.72636e-05
1.72346e-05
1.71825e-05
1.70971e-05
1.69756e-05
1.68191e-05
1.66307e-05
1.64197e-05
1.61784e-05
6.57924e-05
6.43454e-05
6.2507e-05
6.1075e-05
5.93104e-05
5.7396e-05
5.54115e-05
5.3368e-05
5.12629e-05
4.91208e-05
4.69512e-05
4.47674e-05
4.2583e-05
4.04082e-05
3.82554e-05
3.61286e-05
3.40415e-05
3.20001e-05
3.00063e-05
2.80705e-05
2.61959e-05
2.43876e-05
2.26486e-05
2.09916e-05
1.94198e-05
1.79481e-05
1.65974e-05
1.54003e-05
1.43922e-05
1.36083e-05
1.30826e-05
1.28153e-05
1.27832e-05
1.29121e-05
1.31422e-05
1.34136e-05
1.37029e-05
1.39945e-05
1.42833e-05
1.45579e-05
1.48082e-05
1.503e-05
1.52239e-05
1.54006e-05
1.55644e-05
1.57174e-05
1.58553e-05
1.59784e-05
1.60835e-05
1.61794e-05
1.62626e-05
1.6331e-05
1.63884e-05
1.64144e-05
5.7371e-05
5.71725e-05
5.63561e-05
5.54805e-05
5.43483e-05
5.30875e-05
5.17103e-05
5.02224e-05
4.864e-05
4.69818e-05
4.52587e-05
4.34865e-05
4.16786e-05
3.98461e-05
3.80015e-05
3.61514e-05
3.43077e-05
3.24778e-05
3.0667e-05
2.88833e-05
2.71304e-05
2.54112e-05
2.37307e-05
2.20878e-05
2.04811e-05
1.89133e-05
1.73873e-05
1.59129e-05
1.44938e-05
1.31525e-05
1.19457e-05
1.0953e-05
1.029e-05
1.00198e-05
1.0122e-05
1.0467e-05
1.09426e-05
1.14753e-05
1.1988e-05
1.2475e-05
1.29506e-05
1.32302e-05
)
;

boundaryField
{
    inlet
    {
        type            calculated;
        value           nonuniform List<scalar> 
13
(
6.20814e-05
6.2382e-05
6.26344e-05
6.28509e-05
6.30535e-05
6.32594e-05
6.35451e-05
6.35458e-05
6.32023e-05
6.29954e-05
6.27295e-05
6.24992e-05
6.23057e-05
)
;
    }
    outlet
    {
        type            calculated;
        value           nonuniform List<scalar> 0();
    }
    walls
    {
        type            calculated;
        value           uniform 0;
    }
    frontAndBack
    {
        type            empty;
    }
    procBoundary2to1
    {
        type            processor;
        value           nonuniform List<scalar> 
84
(
0.243417
0.0371729
0.0153572
0.00173015
0.00124758
3.60196e-05
0.000170217
0.000151337
0.000158386
0.00014709
0.000148342
0.000144509
0.000143019
0.000140408
0.000138105
0.000135499
0.000132821
0.000129983
0.000127016
0.000123922
0.000120713
0.000117385
0.000113953
0.000110428
0.000106827
0.000103161
9.9454e-05
9.57224e-05
9.19868e-05
8.82611e-05
8.45811e-05
8.0963e-05
7.74338e-05
7.40024e-05
7.06969e-05
6.75202e-05
6.44928e-05
6.16361e-05
6.16361e-05
6.37243e-05
6.08043e-05
5.80329e-05
5.5408e-05
5.2929e-05
5.05855e-05
4.83689e-05
4.62651e-05
4.42719e-05
4.2379e-05
4.0576e-05
3.88565e-05
3.72241e-05
3.56645e-05
3.56645e-05
3.51093e-05
3.35442e-05
3.20287e-05
3.057e-05
2.91546e-05
2.78014e-05
2.65014e-05
2.52591e-05
2.40558e-05
2.40558e-05
2.31509e-05
2.19308e-05
2.06918e-05
1.9447e-05
1.82086e-05
1.70457e-05
1.60577e-05
1.52242e-05
1.44451e-05
1.36791e-05
1.36791e-05
1.29947e-05
1.20995e-05
1.06785e-05
8.27951e-06
6.67691e-06
1.10039e-05
1.70731e-05
2.44502e-05
3.3797e-05
)
;
    }
    procBoundary2to3
    {
        type            processor;
        value           nonuniform List<scalar> 
88
(
2.19478e-05
3.02388e-05
1.13816e-05
2.19478e-05
2.05484e-05
1.04043e-05
1.13816e-05
1.34252e-05
1.24037e-05
1.17376e-05
1.04043e-05
1.19286e-05
1.42135e-05
1.37785e-05
1.34184e-05
1.30817e-05
1.24037e-05
1.27209e-05
1.58991e-05
1.5583e-05
1.52263e-05
1.48369e-05
1.42135e-05
1.44289e-05
1.64001e-05
1.63705e-05
1.63052e-05
1.61983e-05
1.60542e-05
1.58829e-05
1.58991e-05
1.56907e-05
1.34836e-05
1.38464e-05
1.41412e-05
1.44058e-05
1.46359e-05
1.48374e-05
1.50118e-05
1.51705e-05
1.53139e-05
1.5427e-05
1.55096e-05
1.64001e-05
1.56026e-05
4.81036e-05
4.88895e-05
4.89038e-05
4.87924e-05
4.84388e-05
4.79036e-05
4.71931e-05
4.63221e-05
4.53099e-05
4.41752e-05
4.29341e-05
4.16031e-05
4.0198e-05
3.87313e-05
3.72179e-05
3.56653e-05
3.40867e-05
3.24909e-05
3.08871e-05
2.92833e-05
2.76869e-05
2.61001e-05
2.4529e-05
2.29747e-05
2.14377e-05
1.99165e-05
1.84106e-05
1.69184e-05
1.54311e-05
1.39467e-05
1.2457e-05
1.09666e-05
9.49448e-06
8.15072e-06
7.21803e-06
7.10065e-06
7.70745e-06
8.58427e-06
9.61741e-06
1.03876e-05
1.08566e-05
1.34836e-05
1.15919e-05
)
;
    }
    procBoundary2to6
    {
        type            processor;
        value           nonuniform List<scalar> 
13
(
0.351613
0.189238
0.10802
0.0484409
0.0108446
0.000580476
3.66706e-05
0
6.24657e-06
3.59601e-05
6.92508e-05
6.42897e-05
5.5656e-05
)
;
    }
}


// ************************************************************************* //
