/*--------------------------------*- C++ -*----------------------------------*\
| =========                 |                                                 |
| \\      /  F ield         | OpenFOAM: The Open Source CFD Toolbox           |
|  \\    /   O peration     | Version:  2506                                  |
|   \\  /    A nd           | Website:  www.openfoam.com                      |
|    \\/     M anipulation  |                                                 |
\*---------------------------------------------------------------------------*/
FoamFile
{
    version     2.0;
    format      ascii;
    arch        "LSB;label=32;scalar=64";
    class       volSymmTensorField;
    location    "100";
    object      turbulenceProperties:R;
}
// * * * * * * * * * * * * * * * * * * * * * * * * * * * * * * * * * * * * * //

dimensions      [0 2 -2 0 0 0 0];

internalField   nonuniform List<symmTensor> 
1340
(
(31.7258 15.5631 1.19265e-15 39.5675 3.33489e-17 35.7032)
(30.0697 14.8496 1.66831e-15 38.5046 1.67938e-16 34.3391)
(28.475 14.1404 -3.22162e-16 37.3913 -7.61247e-17 32.9779)
(22.3648 11.1772 -5.09397e-15 30.4858 -9.05041e-16 26.4286)
(0.929264 0.451031 -5.68062e-16 1.19536 2.2511e-17 1.0219)
(0.98561 0.481736 -1.4641e-15 1.29295 4.84867e-17 1.10173)
(1.1508 0.561393 -2.72579e-15 1.49434 -3.76369e-16 1.27934)
(1.44496 0.714816 -1.8956e-15 1.87102 3.83615e-16 1.65659)
(0.238683 0.113967 2.31327e-16 0.274236 1.06187e-16 0.256053)
(0.315813 0.152237 -1.19564e-15 0.373644 -4.13849e-16 0.343625)
(0.375035 0.176703 3.36387e-15 0.418327 5.15519e-16 0.393635)
(0.570394 0.276701 5.12341e-15 0.677951 9.60134e-16 0.631479)
(0.0107004 0.00435054 -2.0603e-16 0.0088922 -1.70336e-17 0.0100997)
(0.0306399 0.0132588 8.58028e-16 0.0280364 1.13464e-16 0.0304487)
(0.070137 0.0287873 -5.64835e-16 0.0594869 -8.48889e-17 0.0656219)
(0.235465 0.109528 -5.14741e-16 0.248548 -6.81281e-16 0.248928)
(5.10986e-06 -9.82793e-08 -1.42822e-21 4.91137e-06 -1.50291e-21 5.03214e-06)
(0.00110415 -0.000191225 -1.93115e-17 0.000490191 3.30577e-18 0.000824117)
(0.0023782 -1.5547e-05 5.30526e-17 0.000922662 7.21397e-18 0.00157698)
(0.0394689 0.0160624 -2.90932e-16 0.0327686 -7.95607e-18 0.0375863)
(1.10751e-06 -8.6725e-09 8.63911e-22 1.10271e-06 1.41585e-22 1.09918e-06)
(0.00018394 -3.95171e-05 -1.12039e-17 0.000107693 -2.14824e-18 0.000120273)
(0.000558713 -5.03579e-05 -1.51805e-17 0.000241884 -2.51726e-18 0.000353968)
(0.00337509 0.00107197 9.28667e-18 0.00210615 1.51066e-17 0.00286482)
(1.27108e-05 -4.14167e-07 -3.46235e-20 1.13855e-05 -3.05664e-21 1.23014e-05)
(1.19574e-06 -3.05473e-09 6.54115e-22 1.18084e-06 5.2294e-23 1.19065e-06)
(6.99122e-09 -4.37281e-14 8.01285e-28 6.99073e-09 4.84023e-28 6.991e-09)
(0.000815002 0.000196605 1.55341e-17 0.000419997 2.06705e-18 0.000685875)
(1.46275e-05 -1.37415e-06 1.18979e-19 1.33003e-05 6.33216e-21 1.33817e-05)
(1.25165e-05 -8.4109e-07 -5.6222e-20 1.07393e-05 -8.36611e-22 1.12146e-05)
(9.17515e-08 -1.46316e-11 5.55127e-25 9.163e-08 9.69829e-26 9.16733e-08)
(5.06905e-11 9.53411e-18 -1.96199e-32 5.06905e-11 -1.1257e-31 5.06905e-11)
(1.98466e-05 -1.49143e-06 -6.57265e-21 1.62372e-05 6.53909e-21 1.83862e-05)
(1.94293e-05 -9.267e-07 4.01846e-20 1.53917e-05 -3.10468e-21 1.77718e-05)
(2.69809e-05 -4.32273e-07 3.03366e-20 2.01978e-05 -2.37584e-21 2.37157e-05)
(1.18101e-06 4.72955e-09 -3.39192e-23 1.17259e-06 1.34816e-23 1.17801e-06)
(1.61735e-05 -1.51115e-06 4.44495e-20 1.37983e-05 4.92267e-21 1.47751e-05)
(1.49887e-05 -9.23337e-07 2.23165e-19 1.21295e-05 3.63322e-20 1.34349e-05)
(2.25913e-05 -4.5563e-07 -2.41432e-19 1.6914e-05 -2.44727e-20 1.94234e-05)
(1.5197e-05 8.44365e-07 3.2619e-20 1.37908e-05 8.94377e-21 1.46426e-05)
(1.66914e-05 -1.40539e-06 9.31625e-22 1.39177e-05 6.16163e-21 1.53662e-05)
(1.61792e-05 -8.64894e-07 -2.6892e-19 1.2878e-05 -3.22551e-20 1.46369e-05)
(1.95428e-05 -2.7224e-07 3.05518e-19 1.50399e-05 4.30496e-20 1.72298e-05)
(2.50186e-05 2.21355e-06 1.1447e-19 2.11755e-05 -1.00549e-20 2.35353e-05)
(1.54469e-05 -1.37497e-06 -9.65784e-20 1.30356e-05 -1.51538e-20 1.41806e-05)
(1.48687e-05 -8.49748e-07 1.71727e-19 1.18719e-05 1.93762e-20 1.33692e-05)
(1.71052e-05 -2.26337e-07 -1.60727e-19 1.32564e-05 -3.0102e-20 1.50643e-05)
(2.32273e-05 2.11347e-06 -2.06388e-19 1.95548e-05 -6.4441e-20 2.17667e-05)
(1.50933e-05 -1.31814e-06 1.11844e-19 1.26826e-05 1.16072e-20 1.38867e-05)
(1.45182e-05 -7.98215e-07 -2.40546e-19 1.15611e-05 -2.94627e-20 1.30864e-05)
(1.61562e-05 -1.84557e-07 -1.28965e-20 1.25014e-05 3.2986e-21 1.42587e-05)
(2.06888e-05 1.83904e-06 -2.99475e-19 1.74223e-05 -1.17141e-20 1.93787e-05)
(1.43501e-05 -1.27604e-06 -8.46665e-20 1.21047e-05 -6.51085e-21 1.32038e-05)
(1.36757e-05 -7.62587e-07 1.61563e-19 1.09039e-05 1.72009e-20 1.23133e-05)
(1.48876e-05 -1.57009e-07 2.69725e-20 1.15138e-05 7.37576e-21 1.31302e-05)
(1.84379e-05 1.61979e-06 1.83231e-19 1.5515e-05 4.123e-20 1.72434e-05)
(1.37572e-05 -1.22703e-06 1.97438e-20 1.16112e-05 -4.39197e-22 1.26737e-05)
(1.30374e-05 -7.24467e-07 6.52268e-20 1.03935e-05 1.01057e-20 1.17461e-05)
(1.37927e-05 -1.32303e-07 1.23706e-19 1.06634e-05 1.11351e-20 1.21753e-05)
(1.64868e-05 1.43124e-06 -9.42e-20 1.38431e-05 -3.12097e-20 1.53906e-05)
(1.30849e-05 -1.18059e-06 1.0306e-20 1.10713e-05 1.71808e-21 1.20658e-05)
(1.23055e-05 -6.91353e-07 -1.01004e-19 9.81828e-06 -1.23041e-20 1.10868e-05)
(1.26806e-05 -1.14735e-07 -1.71756e-19 9.80309e-06 -2.74726e-20 1.11973e-05)
(1.46743e-05 1.25819e-06 -9.30593e-20 1.22917e-05 7.83494e-21 1.36697e-05)
(1.2431e-05 -1.13286e-06 -3.22901e-21 1.05409e-05 -5.88781e-22 1.14777e-05)
(1.16048e-05 -6.59612e-07 5.18837e-20 9.26735e-06 5.59528e-21 1.04602e-05)
(1.16491e-05 -1.02251e-07 -6.35494e-20 9.00519e-06 -1.1938e-21 1.02928e-05)
(1.30122e-05 1.0984e-06 2.39333e-19 1.08686e-05 2.72914e-20 1.20943e-05)
(1.17588e-05 -1.0856e-06 4.16959e-20 1.00001e-05 5.51338e-21 1.08724e-05)
(1.08878e-05 -6.30279e-07 -1.54598e-19 8.70686e-06 -1.88169e-20 9.81851e-06)
(1.066e-05 -9.45796e-08 1.04787e-19 8.24078e-06 1.72361e-20 9.42381e-06)
(1.14858e-05 9.51959e-07 -1.84359e-19 9.56328e-06 -2.24891e-20 1.06494e-05)
(1.10875e-05 -1.0381e-06 -1.20391e-19 9.46005e-06 -1.34142e-20 1.02688e-05)
(1.01792e-05 -6.02645e-07 4.25847e-20 8.15461e-06 6.30172e-21 9.18605e-06)
(9.72548e-06 -9.12796e-08 7.70685e-20 7.51912e-06 5.16027e-21 8.6027e-06)
(1.00891e-05 8.17986e-07 2.9679e-19 8.37015e-06 3.90923e-20 9.32917e-06)
(1.04159e-05 -9.90863e-07 6.22752e-20 8.92141e-06 5.98305e-21 9.66533e-06)
(9.47807e-06 -5.76739e-07 1.17358e-19 7.61e-06 1.33591e-20 8.56118e-06)
(8.84226e-06 -9.16904e-08 -7.89527e-20 6.83771e-06 -1.27822e-20 7.82625e-06)
(8.82738e-06 6.96633e-07 -1.80757e-19 7.29325e-06 -3.54463e-20 8.13897e-06)
(9.75002e-06 -9.43946e-07 -1.70973e-20 8.38841e-06 -1.49508e-21 9.06743e-06)
(8.7907e-06 -5.52512e-07 -9.29398e-20 7.07801e-06 -1.15509e-20 7.9498e-06)
(8.00957e-06 -9.53472e-08 -4.08049e-20 6.19605e-06 -1.88637e-21 7.09395e-06)
(7.68478e-06 5.86675e-07 3.64057e-20 6.31948e-06 1.26121e-20 7.06319e-06)
(9.08986e-06 -8.97287e-07 5.12855e-21 7.86132e-06 6.98974e-22 8.47486e-06)
(8.11593e-06 -5.29598e-07 1.54732e-20 6.55768e-06 2.52515e-21 7.35028e-06)
(7.22734e-06 -1.01475e-07 5.25815e-20 5.59422e-06 8.99381e-21 6.40588e-06)
(6.65651e-06 4.87663e-07 4.99032e-22 5.44486e-06 -3.39218e-21 6.09709e-06)
(8.44162e-06 -8.5104e-07 3.44494e-20 7.34473e-06 3.66139e-21 7.89326e-06)
(7.45956e-06 -5.0766e-07 3.31593e-21 6.05319e-06 -3.48548e-23 6.76794e-06)
(6.49434e-06 -1.09185e-07 6.74963e-20 5.03137e-06 3.86596e-21 5.76117e-06)
(5.73585e-06 3.99074e-07 -5.03447e-20 4.6639e-06 -5.03107e-21 5.23444e-06)
(7.8081e-06 -8.0517e-07 -2.78327e-20 6.84065e-06 -2.98162e-21 7.32508e-06)
(6.8268e-06 -4.86452e-07 -2.54873e-20 5.56836e-06 -2.18079e-21 6.20753e-06)
(5.80879e-06 -1.18151e-07 -1.36788e-19 4.50642e-06 -1.67356e-20 5.15809e-06)
(4.91499e-06 3.20096e-07 3.01831e-20 3.96991e-06 6.32808e-21 4.46742e-06)
(7.19359e-06 -7.59779e-07 2.02959e-20 6.35238e-06 1.82024e-21 6.77411e-06)
(6.22075e-06 -4.65891e-07 5.52528e-20 5.10566e-06 6.68066e-21 5.6717e-06)
(5.17212e-06 -1.27686e-07 5.29294e-20 4.02068e-06 1.13489e-20 4.59842e-06)
(4.18833e-06 2.50195e-07 2.88778e-20 3.35822e-06 3.75738e-21 3.79089e-06)
(6.60075e-06 -7.14851e-07 -5.08943e-20 5.88186e-06 -5.16112e-21 6.24266e-06)
(5.64346e-06 -4.45768e-07 -1.08436e-21 4.66671e-06 -2.91692e-22 5.16207e-06)
(4.58445e-06 -1.37207e-07 9.14116e-20 3.57445e-06 8.099e-21 4.08239e-06)
(3.54671e-06 1.88535e-07 4.51473e-20 2.82124e-06 1.34573e-21 3.1957e-06)
(6.03463e-06 -6.70623e-07 4.46962e-20 5.43309e-06 5.26431e-21 5.73528e-06)
(5.09908e-06 -4.25935e-07 3.38453e-20 4.2546e-06 3.67307e-21 4.68241e-06)
(4.04552e-06 -1.46291e-07 -7.13022e-20 3.16781e-06 -9.14864e-21 3.61007e-06)
(2.98442e-06 1.34528e-07 -1.10666e-19 2.35425e-06 -1.24145e-20 2.6766e-06)
(5.49659e-06 -6.26958e-07 1.32808e-21 5.00676e-06 -3.13149e-22 5.25311e-06)
(4.58976e-06 -4.06141e-07 -1.12584e-20 3.87078e-06 -2.32821e-21 4.23461e-06)
(3.5553e-06 -1.54427e-07 5.18028e-20 2.80093e-06 5.87405e-21 3.18155e-06)
(2.49691e-06 8.75989e-08 7.24777e-20 1.95348e-06 9.25555e-21 2.2291e-06)
(4.98979e-06 -5.83986e-07 -2.90015e-21 4.60524e-06 -4.99941e-22 4.79888e-06)
(4.11754e-06 -3.86266e-07 -3.44139e-20 3.51672e-06 -4.10725e-21 3.8204e-06)
(3.11359e-06 -1.61274e-07 -7.55413e-20 2.47384e-06 -9.00288e-21 2.79691e-06)
(2.07822e-06 4.72071e-08 -8.96529e-20 1.61421e-06 -1.24565e-20 1.84767e-06)
(4.51541e-06 -5.4165e-07 -1.07047e-20 4.22896e-06 -1.29098e-21 4.37355e-06)
(3.68397e-06 -3.66173e-07 -2.27769e-20 3.19335e-06 -2.15995e-21 3.44114e-06)
(2.72111e-06 -1.66529e-07 3.70347e-20 2.18718e-06 5.8124e-21 2.45699e-06)
(1.72639e-06 1.28515e-08 -7.58574e-21 1.33484e-06 3.2896e-21 1.53032e-06)
(4.07652e-06 -5.00278e-07 -9.73684e-21 3.88058e-06 -1.11041e-21 3.97983e-06)
(3.2905e-06 -3.46015e-07 -5.6557e-21 2.90203e-06 2.67846e-22 3.09801e-06)
(2.37741e-06 -1.70149e-07 3.9395e-21 1.94079e-06 -3.39508e-23 2.16154e-06)
(1.43734e-06 -1.60885e-08 8.70389e-20 1.11228e-06 1.20227e-20 1.27331e-06)
(3.67306e-06 -4.59846e-07 -1.25384e-20 3.55958e-06 -1.29461e-21 3.61754e-06)
(2.93704e-06 -3.25634e-07 3.19999e-20 2.64216e-06 3.47663e-21 2.79081e-06)
(2.08159e-06 -1.71933e-07 1.29239e-20 1.73383e-06 7.51373e-22 1.90975e-06)
(1.21075e-06 -4.00286e-08 8.52532e-20 9.46389e-07 6.34917e-21 1.0763e-06)
(3.3058e-06 -4.20544e-07 -3.83598e-21 3.26653e-06 1.34844e-22 3.28726e-06)
(2.62273e-06 -3.05071e-07 -1.05939e-20 2.41297e-06 -1.43151e-21 2.51861e-06)
(1.83108e-06 -1.71852e-07 -3.10197e-20 1.5642e-06 -3.75194e-21 1.69929e-06)
(1.0422e-06 -5.93713e-08 -7.57799e-20 8.33557e-07 -1.14804e-20 9.3516e-07)
(2.97321e-06 -3.82357e-07 2.39258e-20 2.99969e-06 2.55555e-21 2.9875e-06)
(2.34564e-06 -2.84244e-07 1.37704e-20 2.21227e-06 8.8843e-22 2.27948e-06)
(1.62349e-06 -1.69835e-07 -2.86456e-23 1.42937e-06 1.26851e-21 1.52783e-06)
(9.27558e-07 -7.44835e-08 -5.36551e-20 7.69588e-07 -4.1758e-21 8.45694e-07)
(2.67519e-06 -3.45531e-07 -5.24347e-21 2.759e-06 -7.91062e-22 2.71803e-06)
(2.10445e-06 -2.63372e-07 -4.78428e-20 2.03906e-06 -5.04441e-21 2.07205e-06)
(1.4547e-06 -1.66094e-07 3.73645e-20 1.32586e-06 3.38081e-21 1.39143e-06)
(8.5632e-07 -8.58511e-08 2.56631e-20 7.44712e-07 3.07571e-21 7.97601e-07)
(2.40908e-06 -3.10075e-07 8.30016e-21 2.54184e-06 8.42294e-22 2.47637e-06)
(1.89548e-06 -2.42408e-07 3.04518e-20 1.88964e-06 3.90817e-21 1.89276e-06)
(1.31945e-06 -1.60631e-07 -4.61226e-20 1.24842e-06 -5.43763e-21 1.28495e-06)
(8.16981e-07 -9.37698e-08 -4.82097e-20 7.47279e-07 -5.71414e-21 7.79311e-07)
(2.17397e-06 -2.76248e-07 -7.9668e-21 2.34785e-06 -7.81123e-22 2.26163e-06)
(1.71619e-06 -2.21573e-07 -1.44575e-20 1.76183e-06 -2.04579e-21 1.73912e-06)
(1.21221e-06 -1.53681e-07 2.30234e-20 1.19195e-06 2.90129e-21 1.20301e-06)
(7.97043e-07 -9.86312e-08 1.48589e-20 7.6514e-07 3.63443e-21 7.78493e-07)
(1.96628e-06 -2.4401e-07 1.35224e-20 2.17372e-06 1.664e-21 2.07047e-06)
(1.56189e-06 -2.00855e-07 3.293e-21 1.65141e-06 3.28719e-22 1.60667e-06)
(1.12672e-06 -1.45393e-07 -2.82276e-20 1.15058e-06 -2.77328e-21 1.13951e-06)
(7.87045e-07 -1.008e-07 6.72367e-20 7.88881e-07 7.26098e-21 7.85605e-07)
(2.11157e-06 -2.29876e-07 -8.86524e-21 2.47776e-06 -5.63895e-22 2.29467e-06)
(1.78349e-06 -2.13543e-07 3.77721e-21 2.01707e-06 -4.04468e-22 1.90066e-06)
(1.42968e-06 -1.80509e-07 -1.64694e-20 1.55559e-06 -9.4087e-22 1.4926e-06)
(1.05804e-06 -1.36053e-07 4.92905e-20 1.11962e-06 6.07304e-21 1.08964e-06)
(7.80698e-07 -1.00676e-07 -1.01414e-20 8.12465e-07 -2.14659e-21 7.94482e-07)
(1.91093e-06 -1.94649e-07 2.42504e-20 2.28053e-06 2.68659e-21 2.09577e-06)
(1.62343e-06 -1.85032e-07 -3.97048e-20 1.87639e-06 -4.37137e-21 1.75024e-06)
(1.31605e-06 -1.60691e-07 6.15393e-20 1.47151e-06 6.62647e-21 1.39367e-06)
(1.00079e-06 -1.25824e-07 3.1155e-21 1.09403e-06 -1.25987e-21 1.04816e-06)
(7.73737e-07 -9.856e-08 3.07882e-21 8.31525e-07 4.97856e-22 8.00788e-07)
(1.73416e-06 -1.62704e-07 -6.92931e-21 2.10227e-06 -1.25941e-21 1.91817e-06)
(1.48372e-06 -1.58603e-07 7.76067e-21 1.75e-06 1.79585e-21 1.61704e-06)
(1.21837e-06 -1.41646e-07 -3.46986e-20 1.39706e-06 -4.90966e-21 1.30745e-06)
(9.51917e-07 -1.15007e-07 -5.58334e-20 1.07138e-06 -6.11532e-21 1.01225e-06)
(7.64168e-07 -9.47711e-08 -1.56496e-21 8.44523e-07 -7.40733e-22 8.02701e-07)
(1.57789e-06 -1.33883e-07 -9.57636e-21 1.94023e-06 -7.43307e-22 1.75894e-06)
(1.3606e-06 -1.34192e-07 2.36828e-20 1.63469e-06 2.83753e-21 1.49774e-06)
(1.13239e-06 -1.23391e-07 -6.45603e-21 1.32835e-06 3.50121e-23 1.23007e-06)
(9.07705e-07 -1.03776e-07 2.06542e-20 1.04799e-06 3.26583e-21 9.784e-07)
(7.50741e-07 -8.96152e-08 -3.5545e-20 8.49976e-07 -3.60501e-21 7.98928e-07)
(1.43972e-06 -1.08125e-07 1.58976e-20 1.79267e-06 1.95252e-21 1.61597e-06)
(1.25183e-06 -1.11859e-07 1.93987e-20 1.52889e-06 1.79847e-21 1.39032e-06)
(1.05621e-06 -1.06101e-07 1.85363e-20 1.26419e-06 1.91715e-21 1.15981e-06)
(8.66839e-07 -9.24005e-08 5.9436e-21 1.02323e-06 7.4244e-22 9.45495e-07)
(7.33862e-07 -8.34219e-08 3.45587e-20 8.48723e-07 4.68261e-21 7.9004e-07)
(1.31682e-06 -8.5297e-08 2.35363e-21 1.65731e-06 2.88024e-23 1.48681e-06)
(1.15484e-06 -9.15744e-08 -5.71873e-21 1.43065e-06 -1.20252e-21 1.29265e-06)
(9.87407e-07 -8.98542e-08 -2.15441e-20 1.20268e-06 -2.52321e-21 1.09463e-06)
(8.27564e-07 -8.10499e-08 2.53936e-20 9.95661e-07 2.59177e-21 9.12014e-07)
(7.13231e-07 -7.64265e-08 1.68943e-20 8.40447e-07 1.45668e-21 7.75753e-07)
(1.20707e-06 -6.52942e-08 -1.41453e-21 1.53266e-06 -1.23074e-22 1.36961e-06)
(1.0679e-06 -7.34022e-08 -2.36149e-20 1.33887e-06 -2.57924e-21 1.20324e-06)
(9.24786e-07 -7.4839e-08 1.51723e-20 1.1432e-06 1.92439e-21 1.03355e-06)
(7.89706e-07 -7.00285e-08 -1.86722e-20 9.65551e-07 -2.75799e-21 8.77978e-07)
(6.90151e-07 -6.90035e-08 -6.52628e-21 8.26727e-07 -1.40761e-21 7.57513e-07)
(1.10856e-06 -4.78725e-08 5.14882e-21 1.41751e-06 5.67086e-22 1.2628e-06)
(9.8915e-07 -5.71758e-08 4.7726e-21 1.2524e-06 1.11843e-21 1.12062e-06)
(8.66742e-07 -6.09924e-08 -9.27143e-21 1.0848e-06 -1.28246e-21 9.75352e-07)
(7.52217e-07 -5.93674e-08 -2.07286e-20 9.32347e-07 -1.88886e-21 8.42613e-07)
(6.64456e-07 -6.12819e-08 -3.77491e-20 8.07573e-07 -4.07323e-21 7.35237e-07)
(1.01982e-06 -3.27819e-08 -4.61411e-21 1.31095e-06 -5.26989e-22 1.16518e-06)
(9.17312e-07 -4.27764e-08 2.28545e-20 1.17059e-06 2.40777e-21 1.04379e-06)
(8.12439e-07 -4.83165e-08 -1.46764e-21 1.02723e-06 -8.31845e-23 9.1944e-07)
(7.15051e-07 -4.91772e-08 2.35675e-20 8.96489e-07 3.09566e-21 8.06085e-07)
(6.36919e-07 -5.34182e-08 2.3707e-20 7.84149e-07 2.8131e-21 7.09911e-07)
(9.39531e-07 -1.98656e-08 7.40683e-21 1.21214e-06 1.07203e-21 1.07567e-06)
(8.51564e-07 -3.01413e-08 -1.79762e-20 1.09315e-06 -2.62536e-21 9.72232e-07)
(7.61538e-07 -3.68612e-08 -2.5454e-21 9.70695e-07 -1.99327e-22 8.65785e-07)
(6.78382e-07 -3.96078e-08 8.45621e-21 8.58562e-07 1.00832e-21 7.68805e-07)
(6.08009e-07 -4.56279e-08 -3.68992e-20 7.57031e-07 -4.56433e-21 6.82056e-07)
(8.66567e-07 -8.99866e-09 1.42533e-20 1.12032e-06 1.5374e-21 9.93319e-07)
(7.91091e-07 -1.92629e-08 -2.33749e-20 1.01971e-06 -2.56417e-21 9.05299e-07)
(7.13723e-07 -2.67243e-08 6.75127e-21 9.15311e-07 6.75302e-22 8.1422e-07)
(6.42607e-07 -3.08575e-08 2.47123e-20 8.19359e-07 2.93695e-21 7.3131e-07)
(5.78824e-07 -3.81779e-08 3.90308e-21 7.27625e-07 7.54453e-22 6.52901e-07)
(7.99998e-07 3.60081e-11 -8.17529e-21 1.03492e-06 -1.0424e-21 9.1736e-07)
(7.35199e-07 -9.97013e-09 1.06491e-21 9.50037e-07 4.81259e-22 8.42531e-07)
(6.68607e-07 -1.78017e-08 -1.36827e-20 8.61189e-07 -1.71914e-21 7.64644e-07)
(6.07573e-07 -2.28772e-08 8.98805e-21 7.79156e-07 5.45003e-22 6.93699e-07)
(5.4927e-07 -3.10908e-08 -9.25603e-21 6.96076e-07 -1.26876e-21 6.22482e-07)
(7.39371e-07 7.49787e-09 8.38774e-21 9.55891e-07 1.05868e-21 8.47523e-07)
(6.83638e-07 -2.06853e-09 1.24468e-20 8.84339e-07 1.28197e-21 7.83894e-07)
(6.26104e-07 -9.98469e-09 -1.02347e-21 8.08695e-07 2.94476e-22 7.17165e-07)
(5.73506e-07 -1.56523e-08 -2.69973e-20 7.3858e-07 -3.54342e-21 6.56365e-07)
(5.20008e-07 -2.44097e-08 -1.45465e-20 6.63442e-07 -1.61957e-21 5.91656e-07)
(6.83848e-07 1.35301e-08 -3.39505e-21 8.82547e-07 -5.26025e-22 7.83069e-07)
(6.35835e-07 4.51998e-09 -2.223e-20 8.2229e-07 -2.84085e-21 7.28954e-07)
(5.86134e-07 -3.26504e-09 3.02647e-20 7.58091e-07 3.78076e-21 6.71892e-07)
(5.40629e-07 -9.24043e-09 -2.26737e-20 6.9818e-07 -2.21057e-21 6.19724e-07)
(4.91243e-07 -1.82519e-08 5.77286e-21 6.30093e-07 7.67961e-22 5.60708e-07)
(6.7261e-07 2.72899e-08 1.83398e-21 8.61232e-07 1.28276e-22 7.66775e-07)
(6.32676e-07 1.81935e-08 -4.59308e-21 8.1431e-07 -7.21366e-22 7.23374e-07)
(5.91118e-07 9.80682e-09 -4.60287e-21 7.6341e-07 -8.21421e-23 6.7713e-07)
(5.48053e-07 2.30732e-09 1.30821e-20 7.08891e-07 1.17255e-21 6.28253e-07)
(5.08628e-07 -3.75065e-09 2.99551e-20 6.578e-07 4.03009e-21 5.83514e-07)
(4.631e-07 -1.2772e-08 -4.34477e-21 5.9632e-07 -6.49345e-22 5.29831e-07)
(6.189e-07 2.9807e-08 -5.10615e-21 7.88986e-07 -5.52464e-22 7.03781e-07)
(5.84577e-07 2.15979e-08 -2.45594e-20 7.49852e-07 -2.93881e-21 6.67048e-07)
(5.48946e-07 1.38973e-08 3.52159e-20 7.07347e-07 4.22088e-21 6.27952e-07)
(5.11806e-07 6.82568e-09 -1.77024e-20 6.61359e-07 -2.17972e-21 5.86343e-07)
(4.77874e-07 8.50025e-10 2.29775e-20 6.18215e-07 2.52037e-21 5.48309e-07)
(4.35907e-07 -8.006e-09 -8.88631e-21 5.62773e-07 -9.94665e-22 4.99494e-07)
(5.687e-07 3.13323e-08 1.33131e-20 7.21518e-07 1.71252e-21 6.44957e-07)
(5.39478e-07 2.39835e-08 5.75549e-21 6.89287e-07 8.55365e-22 6.14236e-07)
(5.08996e-07 1.69886e-08 -1.77185e-20 6.53936e-07 -2.41773e-21 5.81281e-07)
(4.77149e-07 1.04173e-08 1.17761e-20 6.1545e-07 1.51142e-21 5.4607e-07)
(4.48015e-07 4.65154e-09 -2.80583e-21 5.79218e-07 -5.79489e-22 5.13827e-07)
(4.09596e-07 -3.90272e-09 6.77171e-21 5.29598e-07 8.92587e-22 4.69733e-07)
(5.21944e-07 3.2052e-08 3.78564e-21 6.58841e-07 2.96135e-22 5.90272e-07)
(4.96952e-07 2.55151e-08 -4.06276e-21 6.32197e-07 -4.39031e-22 5.6444e-07)
(4.71039e-07 1.92094e-08 4.3655e-21 6.03066e-07 7.13802e-22 5.36889e-07)
(4.43888e-07 1.316e-08 -1.07878e-20 5.7113e-07 -1.30112e-21 5.07299e-07)
(4.19096e-07 7.68338e-09 -7.30364e-21 5.41081e-07 -9.03286e-22 4.80267e-07)
(3.84117e-07 -4.47962e-10 -4.30194e-22 4.96925e-07 -4.26934e-23 4.4063e-07)
(4.78271e-07 3.21219e-08 -1.44201e-20 6.00537e-07 -1.78842e-21 5.39311e-07)
(4.57163e-07 2.63462e-08 1.65988e-20 5.78895e-07 2.20959e-21 5.17953e-07)
(4.35122e-07 2.0689e-08 7.04281e-21 5.54934e-07 7.50626e-22 4.94921e-07)
(4.1195e-07 1.51629e-08 1.67472e-20 5.28465e-07 2.06852e-21 4.70045e-07)
(3.90892e-07 1.00355e-08 -4.1461e-21 5.03676e-07 -4.14968e-22 4.47448e-07)
(3.5929e-07 2.38768e-09 9.1395e-21 4.64696e-07 1.01651e-21 4.1209e-07)
(4.3801e-07 3.17366e-08 6.85597e-21 5.46993e-07 9.31999e-22 4.92451e-07)
(4.1991e-07 2.66318e-08 1.80291e-20 5.29133e-07 2.11898e-21 4.74474e-07)
(4.01114e-07 2.15713e-08 -1.5666e-20 5.09425e-07 -1.90253e-21 4.55192e-07)
(3.81383e-07 1.65484e-08 -1.38037e-20 4.87612e-07 -1.97006e-21 4.34371e-07)
(3.6362e-07 1.17807e-08 5.84308e-21 4.67411e-07 7.28965e-22 4.15688e-07)
(3.35174e-07 4.6684e-09 -1.91382e-20 4.33123e-07 -2.29273e-21 3.8425e-07)
(4.00653e-07 3.09777e-08 -2.69822e-21 4.97558e-07 -5.13415e-22 4.49054e-07)
(3.85244e-07 2.64835e-08 -8.05261e-21 4.83001e-07 -9.86505e-22 4.34091e-07)
(3.69217e-07 2.19733e-08 1.7098e-20 4.66845e-07 2.21395e-21 4.17973e-07)
(3.52378e-07 1.74332e-08 -2.46782e-20 4.48875e-07 -2.9774e-21 4.00521e-07)
(3.37416e-07 1.30486e-08 -5.22683e-21 4.3252e-07 -6.94442e-22 3.85142e-07)
(3.11884e-07 6.47373e-09 2.50607e-20 4.02459e-07 3.1218e-21 3.57296e-07)
(3.66403e-07 2.99847e-08 -2.75959e-20 4.52426e-07 -3.44267e-21 4.09358e-07)
(3.53071e-07 2.60241e-08 2.30253e-20 4.4034e-07 2.84396e-21 3.96661e-07)
(3.39254e-07 2.20055e-08 -4.68824e-21 4.26959e-07 -6.10169e-22 3.83034e-07)
(3.2496e-07 1.79277e-08 4.95278e-21 4.12309e-07 7.82317e-22 3.68544e-07)
(3.12444e-07 1.39309e-08 2.14588e-21 3.99257e-07 1.41826e-22 3.56052e-07)
(2.89632e-07 7.91517e-09 -1.8987e-20 3.73035e-07 -2.43577e-21 3.31498e-07)
(3.34469e-07 2.87222e-08 8.59591e-21 4.10678e-07 1.18998e-21 3.72472e-07)
(3.22985e-07 2.5253e-08 -2.41052e-20 4.00705e-07 -3.14951e-21 3.61751e-07)
(3.11139e-07 2.16994e-08 1.57268e-20 3.89719e-07 2.03906e-21 3.50337e-07)
(2.9904e-07 1.80686e-08 5.5646e-21 3.77853e-07 6.23386e-22 3.38383e-07)
(2.88506e-07 1.44344e-08 -2.78988e-20 3.67439e-07 -3.54652e-21 3.28219e-07)
(2.68149e-07 8.96741e-09 1.28073e-20 3.44583e-07 1.72704e-21 3.06591e-07)
(3.13883e-07 3.01301e-08 2.61154e-22 3.79044e-07 -7.79192e-23 3.46338e-07)
(3.04313e-07 2.71895e-08 -5.6911e-21 3.71697e-07 -7.17983e-22 3.37872e-07)
(2.94449e-07 2.41756e-08 4.27492e-21 3.63473e-07 6.89372e-22 3.28818e-07)
(2.84317e-07 2.10528e-08 4.99701e-21 3.54481e-07 5.50716e-22 3.19274e-07)
(2.74017e-07 1.78205e-08 -1.20334e-20 3.44837e-07 -1.46825e-21 3.09382e-07)
(2.65219e-07 1.45203e-08 -5.46416e-21 3.36683e-07 -6.36071e-22 3.01234e-07)
(2.46999e-07 9.56826e-09 6.9663e-21 3.16657e-07 7.80208e-22 2.82094e-07)
(2.83281e-07 2.79193e-08 -2.69594e-20 3.40433e-07 -3.46195e-21 3.11721e-07)
(2.75083e-07 2.53786e-08 9.97603e-21 3.34413e-07 1.38201e-21 3.04569e-07)
(2.66845e-07 2.27737e-08 8.44915e-21 3.27925e-07 1.00102e-21 2.97184e-07)
(2.58414e-07 2.00506e-08 -2.85915e-21 3.2086e-07 -4.50336e-22 2.8947e-07)
(2.49797e-07 1.71834e-08 1.69331e-20 3.13228e-07 2.26652e-21 2.81447e-07)
(2.42341e-07 1.41746e-08 -1.75008e-20 3.06768e-07 -2.02739e-21 2.74819e-07)
(2.26194e-07 9.71311e-09 -9.03287e-21 2.89362e-07 -1.22259e-21 2.58018e-07)
(2.53533e-07 2.55101e-08 -6.70115e-22 3.03434e-07 3.9128e-23 2.78356e-07)
(2.46829e-07 2.33371e-08 1.89405e-20 2.98894e-07 2.38858e-21 2.72677e-07)
(2.40104e-07 2.11031e-08 -1.49818e-20 2.93965e-07 -1.96217e-21 2.66806e-07)
(2.33139e-07 1.87322e-08 -1.71278e-20 2.8849e-07 -2.17701e-21 2.60599e-07)
(2.25956e-07 1.61873e-08 1.40335e-20 2.82504e-07 1.80503e-21 2.54093e-07)
(2.19792e-07 1.34536e-08 3.62935e-20 2.77611e-07 4.6673e-21 2.48892e-07)
(2.0561e-07 9.46077e-09 -1.26655e-20 2.62576e-07 -1.68721e-21 2.3425e-07)
(2.24998e-07 2.30084e-08 6.70668e-21 2.68373e-07 8.27957e-22 2.4662e-07)
(2.1954e-07 2.11535e-08 -8.78321e-22 2.64997e-07 -1.27311e-22 2.42103e-07)
(2.14113e-07 1.92356e-08 -1.56171e-21 2.61364e-07 -1.32433e-22 2.37491e-07)
(2.08485e-07 1.71722e-08 -7.81468e-22 2.57304e-07 -6.4223e-23 2.32619e-07)
(2.02665e-07 1.4933e-08 2.42646e-20 2.52823e-07 2.99958e-21 2.27514e-07)
(1.97816e-07 1.24768e-08 -4.15828e-21 2.49458e-07 -6.61986e-22 2.23719e-07)
(1.85459e-07 8.91334e-09 -3.37698e-20 2.3655e-07 -4.23355e-21 2.11032e-07)
(1.98023e-07 2.0563e-08 -1.37088e-20 2.35406e-07 -1.77177e-21 2.16763e-07)
(1.93631e-07 1.89697e-08 1.66551e-20 2.3304e-07 2.12507e-21 2.13269e-07)
(1.89326e-07 1.73264e-08 4.16286e-21 2.30501e-07 6.08776e-22 2.09719e-07)
(1.84904e-07 1.5546e-08 -9.10664e-21 2.27681e-07 -1.23288e-21 2.06021e-07)
(1.80381e-07 1.35992e-08 -1.18695e-20 2.24594e-07 -1.5179e-21 2.02214e-07)
(1.7678e-07 1.14161e-08 4.33852e-21 2.22637e-07 5.19193e-22 1.99716e-07)
(1.66136e-07 8.24771e-09 3.3135e-21 2.11691e-07 6.31533e-22 1.88817e-07)
(1.74031e-07 1.83228e-08 5.97519e-21 2.0622e-07 7.57531e-22 1.90236e-07)
(1.70336e-07 1.69343e-08 -9.53565e-21 2.04442e-07 -1.2786e-21 1.87373e-07)
(1.66897e-07 1.55184e-08 2.46318e-20 2.02711e-07 3.11243e-21 1.84639e-07)
(1.63503e-07 1.39926e-08 -1.96483e-20 2.00909e-07 -2.4922e-21 1.81935e-07)
(1.60125e-07 1.23254e-08 2.7568e-20 1.99006e-07 3.54367e-21 1.79257e-07)
(1.5765e-07 1.04174e-08 -1.50295e-20 1.98271e-07 -1.96307e-21 1.77891e-07)
(1.48536e-07 7.61852e-09 3.0593e-20 1.89053e-07 3.91528e-21 1.68564e-07)
(1.54708e-07 1.64595e-08 -1.56283e-20 1.82856e-07 -2.11599e-21 1.68943e-07)
(1.51533e-07 1.52155e-08 -3.82582e-22 1.81528e-07 -2.50592e-23 1.66587e-07)
(1.48775e-07 1.39704e-08 -1.08957e-20 1.80433e-07 -1.43475e-21 1.64513e-07)
(1.46235e-07 1.26401e-08 -6.19095e-22 1.79482e-07 -6.37636e-24 1.62648e-07)
(1.43773e-07 1.11921e-08 -4.79149e-21 1.78506e-07 -7.58164e-22 1.60863e-07)
(1.42174e-07 9.51103e-09 -7.8146e-21 1.78675e-07 -9.32507e-22 1.60343e-07)
(1.34289e-07 7.02705e-09 1.0928e-20 1.70793e-07 1.22495e-21 1.52246e-07)
(1.39138e-07 1.49141e-08 -2.26795e-20 1.64144e-07 -2.88361e-21 1.51862e-07)
(1.36162e-07 1.37597e-08 -3.39015e-21 1.62915e-07 -3.97593e-22 1.49683e-07)
(1.33737e-07 1.26168e-08 1.31597e-20 1.62091e-07 1.72053e-21 1.47931e-07)
(1.31753e-07 1.14187e-08 -4.75411e-23 1.61673e-07 -3.96301e-23 1.46614e-07)
(1.30071e-07 1.01334e-08 -1.14128e-20 1.61499e-07 -1.52175e-21 1.45605e-07)
(1.29247e-07 8.6321e-09 1.13429e-21 1.62459e-07 3.59616e-22 1.45838e-07)
(1.22706e-07 6.43799e-09 -1.71513e-20 1.56054e-07 -2.33498e-21 1.39113e-07)
(1.25273e-07 1.3567e-08 3.30015e-21 1.47366e-07 5.30131e-22 1.36478e-07)
(1.22297e-07 1.24741e-08 9.905e-21 1.46037e-07 1.28341e-21 1.34296e-07)
(1.1988e-07 1.13897e-08 -7.78262e-21 1.45133e-07 -1.04831e-21 1.32559e-07)
(1.18055e-07 1.02727e-08 -1.09362e-20 1.44802e-07 -1.46542e-21 1.31401e-07)
(1.16769e-07 9.09489e-09 -2.05831e-20 1.44999e-07 -2.53412e-21 1.30787e-07)
(1.16461e-07 7.71269e-09 4.39502e-20 1.46478e-07 5.57323e-21 1.31514e-07)
(1.11022e-07 5.74686e-09 -2.9466e-20 1.41268e-07 -3.6193e-21 1.25909e-07)
(1.12605e-07 1.23685e-08 9.2869e-21 1.31908e-07 1.2147e-21 1.22326e-07)
(1.09742e-07 1.13583e-08 -3.25075e-21 1.30606e-07 -4.68257e-22 1.20226e-07)
(1.07347e-07 1.033e-08 2.93932e-21 1.29668e-07 3.90736e-22 1.18523e-07)
(1.05612e-07 9.27516e-09 -1.70192e-20 1.29385e-07 -2.20162e-21 1.17479e-07)
(1.04509e-07 8.17671e-09 2.58543e-20 1.29726e-07 3.37956e-21 1.17059e-07)
(1.04515e-07 6.89702e-09 -2.52679e-20 1.31487e-07 -3.32918e-21 1.18069e-07)
(1.00011e-07 5.14663e-09 3.48156e-20 1.27287e-07 4.52936e-21 1.13443e-07)
(1.02518e-07 1.20086e-08 1.25783e-20 1.17315e-07 1.64881e-21 1.09966e-07)
(9.95035e-08 1.11098e-08 6.42695e-21 1.1596e-07 8.34902e-22 1.07781e-07)
(9.68779e-08 1.01998e-08 -5.58869e-21 1.1482e-07 -7.48641e-22 1.05883e-07)
(9.457e-08 9.24447e-09 -5.03173e-21 1.13908e-07 -6.85857e-22 1.04254e-07)
(9.29314e-08 8.25176e-09 -1.11213e-20 1.13688e-07 -1.37351e-21 1.03329e-07)
(9.20065e-08 7.21878e-09 -1.09627e-20 1.14185e-07 -1.44705e-21 1.03101e-07)
(9.23369e-08 6.03126e-09 2.85816e-20 1.16248e-07 3.76686e-21 1.04411e-07)
(8.94197e-08 4.51366e-09 -1.6125e-20 1.13883e-07 -2.14909e-21 1.0145e-07)
(8.86864e-08 1.04959e-08 -6.31905e-21 1.00981e-07 -8.10911e-22 9.47247e-08)
(8.55684e-08 9.64105e-09 1.06728e-20 9.93938e-08 1.32867e-21 9.23856e-08)
(8.2867e-08 8.76876e-09 -1.11252e-20 9.80743e-08 -1.38058e-21 9.0381e-08)
(8.04955e-08 7.85017e-09 -9.78075e-21 9.69915e-08 -1.30226e-21 8.8677e-08)
(7.86795e-08 6.87197e-09 9.18308e-21 9.64696e-08 1.16847e-21 8.75726e-08)
(7.75147e-08 5.84133e-09 1.81982e-20 9.65687e-08 2.47324e-21 8.70995e-08)
(7.75046e-08 4.59109e-09 -3.34613e-21 9.81132e-08 -5.72808e-22 8.80924e-08)
(7.44772e-08 3.14301e-09 8.41396e-21 9.53666e-08 1.16111e-21 8.50576e-08)
(6.87003e-08 8.26643e-09 2.04312e-20 7.76052e-08 2.686e-21 7.31601e-08)
(6.59014e-08 7.48824e-09 -2.40606e-20 7.63296e-08 -3.20545e-21 7.10391e-08)
(6.38154e-08 6.69054e-09 2.79265e-20 7.56901e-08 3.69135e-21 6.95804e-08)
(6.22915e-08 5.82617e-09 -2.21396e-20 7.55748e-08 -2.87433e-21 6.86749e-08)
(6.16137e-08 4.88095e-09 -2.51841e-20 7.63501e-08 -3.32063e-21 6.86732e-08)
(6.19832e-08 3.88697e-09 3.63744e-20 7.81536e-08 4.76472e-21 6.96671e-08)
(6.4435e-08 2.85359e-09 -2.26315e-20 8.23352e-08 -2.97338e-21 7.29352e-08)
(6.6486e-08 1.78367e-09 1.78072e-20 8.54834e-08 2.29414e-21 7.49874e-08)
(3.80917e-08 4.63379e-09 3.03155e-21 4.27857e-08 3.36378e-22 4.08264e-08)
(3.36019e-08 3.72642e-09 -2.13765e-20 3.92247e-08 -2.7657e-21 3.69505e-08)
(3.03548e-08 2.83874e-09 1.39678e-20 3.67858e-08 1.74592e-21 3.42275e-08)
(2.8458e-08 1.92061e-09 -3.80623e-21 3.56501e-08 -4.03288e-22 3.28312e-08)
(2.86781e-08 9.13854e-10 -1.54032e-20 3.67359e-08 -1.94503e-21 3.36729e-08)
(3.14575e-08 -2.21121e-10 4.09979e-20 4.04552e-08 5.23503e-21 3.71983e-08)
(4.01863e-08 -1.97544e-09 -2.1372e-20 5.06305e-08 -2.66984e-21 4.73714e-08)
(4.50363e-08 -3.61151e-09 4.34247e-21 5.49701e-08 4.59025e-22 5.21905e-08)
(2.82975e-08 2.45563e-09 -1.0709e-20 3.25125e-08 -1.38801e-21 2.83785e-08)
(3.01677e-08 1.6937e-09 -1.08582e-20 3.62204e-08 -1.3758e-21 3.08879e-08)
(3.40136e-08 8.78756e-10 -1.74786e-20 4.18171e-08 -2.32704e-21 3.53344e-08)
(3.91712e-08 -2.43364e-11 3.02304e-20 4.86155e-08 3.92855e-21 4.10409e-08)
(4.54327e-08 -9.54703e-10 4.99072e-21 5.64503e-08 6.82778e-22 4.78045e-08)
(5.24584e-08 -1.77846e-09 -9.76013e-21 6.47109e-08 -1.33356e-21 5.48939e-08)
(6.05369e-08 -1.92419e-09 2.54146e-20 7.42352e-08 3.31449e-21 6.28013e-08)
(7.18424e-08 -2.00207e-09 -3.84139e-20 8.75462e-08 -4.97608e-21 7.3847e-08)
(8.88754e-08 -2.25236e-09 1.41342e-20 7.29349e-08 1.84269e-21 8.76422e-08)
(9.09079e-08 -2.68583e-09 4.71302e-21 7.50671e-08 6.47537e-22 9.00698e-08)
(9.23255e-08 -3.00764e-09 -2.09564e-20 7.66172e-08 -2.69995e-21 9.18092e-08)
(9.32149e-08 -3.33095e-09 -1.42986e-20 7.78631e-08 -1.92618e-21 9.31498e-08)
(9.43433e-08 -3.87703e-09 5.53792e-21 7.98799e-08 7.75579e-22 9.52187e-08)