/*--------------------------------*- C++ -*----------------------------------*\
| =========                 |                                                 |
| \\      /  F ield         | OpenFOAM: The Open Source CFD Toolbox           |
|  \\    /   O peration     | Version:  2506                                  |
|   \\  /    A nd           | Website:  www.openfoam.com                      |
|    \\/     M anipulation  |                                                 |
\*---------------------------------------------------------------------------*/
FoamFile
{
    version     2.0;
    format      ascii;
    arch        "LSB;label=32;scalar=64";
    class       volScalarField;
    location    "200";
    object      div(phi);
}
// * * * * * * * * * * * * * * * * * * * * * * * * * * * * * * * * * * * * * //

dimensions      [0 0 -1 0 0 0 0];

internalField   nonuniform List<scalar> 
1340
(
0.000115671
0.000145192
-0.00010533
0.000142588
5.07445e-05
9.19466e-05
5.29504e-05
0.000163856
7.22674e-05
6.87975e-05
-0.000101026
4.50966e-05
3.41677e-05
5.70588e-05
3.7877e-05
0.000122298
6.97522e-05
5.93224e-05
-0.000105182
2.3208e-05
3.33931e-05
4.66443e-05
2.44799e-05
9.39477e-05
7.40243e-05
6.56941e-05
-0.000113669
2.03401e-05
3.18318e-05
4.42518e-05
1.28929e-05
7.14525e-05
6.78866e-05
6.70017e-05
-0.000121072
1.87984e-05
2.60179e-05
3.62417e-05
5.14984e-06
5.28951e-05
5.64715e-05
6.39112e-05
-0.000116643
1.92657e-05
2.11268e-05
2.86363e-05
3.8256e-07
3.75729e-05
4.6019e-05
5.81899e-05
-0.000105366
1.71924e-05
1.72656e-05
2.17066e-05
-2.7983e-06
2.64171e-05
3.62647e-05
5.36848e-05
-9.37852e-05
1.46136e-05
1.36365e-05
1.68766e-05
-4.29319e-06
1.96041e-05
2.8663e-05
4.75523e-05
-8.03847e-05
1.23082e-05
9.39203e-06
1.0966e-05
-4.704e-06
1.4858e-05
2.13461e-05
4.17745e-05
-6.87458e-05
8.88092e-06
5.75712e-06
5.31144e-06
-5.0509e-06
1.21135e-05
1.70989e-05
3.75412e-05
-5.53534e-05
6.56832e-06
3.40542e-06
1.2746e-06
-5.48387e-06
1.01186e-05
1.37578e-05
2.94561e-05
-4.4156e-05
5.35488e-06
2.01837e-06
-1.02633e-06
-5.72533e-06
8.67398e-06
1.00067e-05
2.12e-05
-3.13556e-05
4.11978e-06
2.03554e-06
-9.39357e-07
-4.80967e-06
7.2802e-06
7.37388e-06
1.3108e-05
-2.1847e-05
3.83051e-06
2.19308e-06
1.96099e-07
-3.31066e-06
5.83578e-06
4.88278e-06
6.42958e-06
-1.37547e-05
3.35108e-06
3.22129e-06
1.1287e-06
-1.16324e-06
4.17223e-06
1.65855e-06
2.54865e-06
-7.7419e-06
2.13624e-06
3.17817e-06
1.78885e-06
3.83086e-07
2.91182e-06
3.70109e-07
7.13058e-07
-4.07018e-06
1.11162e-06
-4.90119e-06
2.5846e-06
1.79376e-06
1.25922e-06
1.94589e-06
3.52941e-06
1.54928e-07
5.52694e-08
-2.116e-06
5.11169e-07
-2.02477e-06
1.94223e-06
1.57948e-06
1.46562e-06
1.33769e-06
3.26084e-06
2.359e-08
-2.11127e-07
-9.49092e-07
-1.139e-08
-2.02546e-06
1.27983e-06
1.21918e-06
1.25243e-06
9.54973e-07
3.10832e-06
-6.99326e-08
-1.70513e-07
-5.41561e-07
-1.3619e-07
-2.01659e-06
7.86976e-07
8.22211e-07
8.96193e-07
6.8843e-07
2.79923e-06
-7.20153e-08
-1.3628e-07
-3.56445e-07
-1.52346e-07
-1.04656e-06
4.8563e-07
4.79697e-07
5.7354e-07
4.84174e-07
1.03972e-06
-2.09898e-07
-1.04596e-07
-2.46744e-07
-1.14095e-07
-8.7576e-07
2.13351e-07
2.26199e-07
3.63063e-07
3.156e-07
5.07454e-07
-1.20932e-07
-3.30016e-08
-1.36172e-07
-7.11806e-08
-8.98124e-07
-6.67769e-07
1.60585e-07
1.37053e-07
2.16812e-07
2.36537e-07
1.55479e-07
6.29275e-07
-3.69562e-09
3.92385e-08
-3.46571e-08
-4.7005e-08
-1.19754e-07
-4.00074e-07
1.64433e-07
1.02469e-07
1.41643e-07
1.69612e-07
1.73288e-07
5.18028e-07
5.86026e-08
8.53816e-08
3.87288e-09
-9.67677e-09
5.1688e-08
-2.46806e-07
1.41107e-07
5.93686e-08
9.48312e-08
1.101e-07
-9.36234e-08
3.47135e-07
4.32858e-08
8.5291e-08
3.41082e-08
-1.06515e-08
3.03033e-08
-1.7056e-07
9.54634e-08
4.67752e-08
5.18694e-08
7.81451e-08
-1.79591e-07
1.83972e-07
3.53737e-08
6.89461e-08
5.2173e-08
7.22531e-09
1.02884e-07
-1.14515e-07
-2.03332e-08
5.47617e-09
2.15768e-08
8.51414e-08
-1.70664e-08
-1.94382e-07
-8.7512e-08
-8.68941e-09
8.31613e-09
9.33194e-08
4.28167e-08
-1.40923e-07
-9.49002e-08
-2.51762e-08
-6.36454e-08
9.39181e-09
2.51365e-08
1.32358e-07
1.1455e-07
-8.70207e-09
-7.42678e-08
1.48102e-08
2.12256e-08
9.30064e-08
6.05769e-08
-4.96282e-08
-1.93209e-08
4.58255e-08
6.11885e-09
-1.6687e-08
-2.78777e-08
9.20917e-08
1.87419e-07
3.73532e-08
1.3077e-08
-4.31989e-08
-6.63044e-08
3.22394e-08
-2.47676e-08
-7.73193e-08
5.68721e-08
-3.48424e-09
-3.70165e-08
2.70974e-08
-6.97295e-08
9.33277e-08
1.64287e-07
3.61078e-08
2.80153e-08
7.13116e-08
-2.009e-08
9.55846e-08
4.263e-08
1.19235e-07
4.33716e-08
5.53085e-08
8.59094e-08
7.57464e-09
1.07094e-07
4.05072e-08
6.65685e-08
7.59983e-08
5.21817e-08
5.86219e-08
2.67337e-08
8.315e-08
1.36568e-08
7.81538e-08
8.78361e-09
4.60906e-08
3.4909e-08
3.42513e-08
5.02905e-08
3.42247e-08
4.91669e-08
3.31946e-08
7.00118e-08
1.04591e-07
1.19436e-08
2.43431e-08
2.78665e-08
3.13792e-08
2.09714e-08
4.32654e-08
4.48506e-08
-8.39553e-08
-1.17839e-08
-9.38427e-09
8.11302e-09
-1.08238e-08
7.79164e-08
-1.91038e-10
4.01402e-08
-1.36458e-08
-1.66249e-08
-3.17187e-08
-4.15034e-09
1.16262e-07
-3.83791e-09
5.54304e-08
1.27041e-08
-2.80511e-08
-4.91785e-08
9.22311e-09
1.15429e-07
3.54024e-09
8.35939e-08
-1.6407e-09
-4.7134e-08
-3.21395e-08
-5.19662e-09
-1.02251e-08
5.38477e-08
3.99561e-10
5.48154e-08
-1.61647e-08
-7.12174e-08
-5.00981e-09
-7.05168e-09
-2.81337e-09
1.07356e-08
3.97106e-09
1.75047e-08
-8.56537e-09
-4.65963e-08
-4.34767e-09
-2.11378e-08
1.86138e-08
8.98015e-09
8.22822e-09
1.4012e-08
8.26194e-09
-2.44738e-09
9.61293e-10
1.33918e-08
2.05482e-08
4.27198e-09
-2.0769e-09
1.4918e-08
1.50947e-08
1.31187e-08
1.52813e-08
2.37776e-08
9.77667e-09
3.28564e-08
7.16067e-09
-1.81878e-09
6.34819e-09
7.75741e-09
1.28573e-08
1.35823e-08
1.65746e-08
5.1953e-09
1.92048e-08
-1.62978e-08
-1.28893e-08
6.80828e-09
-1.22512e-09
1.15274e-09
-3.72571e-12
1.23706e-08
-1.98136e-08
1.57225e-08
7.80223e-09
-2.59827e-08
1.20069e-09
-1.98448e-08
-1.62866e-09
-1.77565e-08
-4.82062e-09
-3.02764e-08
8.86901e-09
-4.5698e-08
-4.20577e-08
-1.65067e-08
-3.03945e-08
-3.16321e-08
-2.38258e-08
-2.4954e-08
-3.46743e-08
1.13277e-08
-4.13084e-08
-6.04913e-08
9.15601e-09
-7.72147e-08
3.01636e-08
-7.97366e-08
5.34543e-08
-5.47725e-08
-2.68161e-08
2.34378e-08
1.77975e-08
4.51508e-08
1.76651e-08
6.0604e-08
1.73997e-08
8.31647e-08
3.57935e-08
4.57231e-08
2.31896e-08
1.9774e-07
1.5487e-07
1.65794e-07
1.48468e-07
1.81362e-07
1.5634e-07
1.98136e-07
1.78567e-07
1.33544e-07
9.22758e-08
3.10965e-07
1.7427e-07
1.79012e-07
1.61206e-07
1.68949e-07
1.85685e-07
2.13565e-07
1.25911e-07
1.62276e-07
-1.42953e-08
0.000361548
-5.68431e-05
6.64988e-05
-5.52086e-06
4.70781e-05
1.41162e-05
3.04493e-05
1.83152e-05
2.2119e-05
1.58902e-05
1.52783e-05
1.07468e-05
9.96093e-06
7.10452e-06
8.18665e-06
5.48497e-06
7.24723e-06
4.64892e-06
7.52398e-06
3.50091e-06
6.23691e-06
2.48934e-06
4.14879e-06
1.61979e-06
2.89235e-06
1.08752e-06
1.52891e-06
9.58826e-07
8.44151e-07
1.28569e-06
9.4061e-07
1.28469e-06
8.1049e-07
1.24036e-06
4.38154e-07
1.0403e-06
3.33908e-07
7.99215e-07
1.71289e-07
5.88789e-07
1.14834e-07
4.09088e-07
9.63631e-08
2.91734e-07
9.22925e-08
1.67664e-07
1.08751e-07
1.01593e-07
6.51576e-08
7.1131e-08
2.66062e-08
5.63559e-08
-7.5276e-08
4.90202e-08
-3.26295e-08
1.02106e-07
8.16956e-08
1.09414e-07
1.1007e-07
-5.63609e-08
8.69875e-08
6.92762e-08
1.46066e-07
5.69029e-08
5.30794e-08
9.65073e-09
-1.10634e-08
8.09136e-09
-3.91615e-08
3.66915e-08
4.04524e-08
1.99014e-09
-2.0969e-09
-5.46682e-08
-6.62566e-08
-1.45305e-07
-1.59026e-10
-1.56227e-07
2.15133e-07
3.67789e-07
7.82459e-05
-6.39292e-05
1.53736e-05
-5.24042e-05
2.04513e-05
-3.8596e-05
2.00728e-05
-2.63505e-05
2.11168e-05
-1.84375e-05
1.90236e-05
-1.39228e-05
1.65717e-05
-1.03133e-05
1.1535e-05
-7.54743e-06
9.22127e-06
-5.17372e-06
6.19124e-06
-2.30932e-06
5.67713e-06
2.46682e-07
5.33576e-06
1.87115e-06
4.49382e-06
2.49263e-06
3.83932e-06
2.16077e-06
2.94078e-06
1.31209e-06
1.71333e-06
8.81418e-07
9.14606e-07
6.34445e-07
5.67226e-07
5.90687e-07
2.66549e-07
5.74681e-07
2.01423e-07
5.00978e-07
1.61124e-07
3.86584e-07
1.44631e-07
2.43797e-07
1.37408e-07
1.72974e-07
1.02374e-07
9.99982e-08
9.31794e-08
4.3986e-08
5.23436e-08
-1.83164e-08
1.43652e-08
-9.33482e-08
2.35061e-08
-5.26408e-08
5.96862e-08
1.26457e-08
-2.04623e-08
1.48783e-07
3.2237e-08
7.22377e-08
3.53568e-09
1.00703e-07
5.63642e-08
3.40578e-08
1.8993e-08
-3.9209e-08
1.14317e-08
2.76059e-09
3.59865e-08
5.62943e-08
2.83967e-08
3.56624e-08
3.01867e-08
5.70053e-08
-1.67991e-07
1.21061e-07
-6.49505e-08
-5.63983e-06
-7.52749e-05
-5.47065e-06
-6.94829e-05
2.19335e-07
-6.10845e-05
3.19552e-06
-5.17844e-05
6.1277e-06
-4.62921e-05
7.61373e-06
-4.1146e-05
1.16209e-05
-3.08586e-05
1.23033e-05
-2.0747e-05
1.24143e-05
-1.24854e-05
1.05473e-05
-7.07512e-06
9.11647e-06
-4.05398e-06
6.06422e-06
-2.6422e-06
4.48404e-06
-2.0874e-06
2.75226e-06
-1.68684e-06
1.53302e-06
-8.91101e-07
1.16613e-06
-3.17726e-07
8.4129e-07
1.11865e-07
4.6177e-07
3.10901e-07
3.39151e-07
3.65918e-07
2.01332e-07
3.53055e-07
1.46345e-07
2.99902e-07
1.16416e-07
2.55958e-07
1.05785e-07
1.59011e-07
1.14238e-07
9.62685e-08
8.01805e-08
5.3498e-08
6.63788e-08
2.717e-08
-2.97625e-08
6.28472e-09
-1.01223e-07
-5.47102e-09
-8.8832e-08
1.60135e-08
6.94652e-08
-6.65431e-08
5.87713e-08
3.31765e-08
1.21273e-07
3.90217e-08
3.91998e-08
-9.94329e-10
-3.65423e-08
2.50858e-09
-1.33507e-08
2.63501e-08
3.6632e-08
-2.239e-08
6.31596e-08
-2.80521e-08
-5.29986e-08
-1.55676e-07
1.4827e-07
-2.6374e-07
-0.00025082
-0.000164363
-6.22829e-05
-0.000115667
-2.17787e-05
-8.28057e-05
2.57451e-09
-5.88375e-05
9.22286e-06
-4.46524e-05
1.47196e-05
-3.64353e-05
1.61648e-05
-2.85882e-05
1.70505e-05
-2.06129e-05
1.41254e-05
-1.46391e-05
1.24929e-05
-9.73916e-06
9.05146e-06
-5.69875e-06
7.39455e-06
-2.45358e-06
5.43176e-06
-3.85411e-07
3.75641e-06
6.20182e-07
2.7488e-06
5.58399e-07
1.49702e-06
3.06957e-07
6.85554e-07
1.16093e-07
3.6631e-07
1.1777e-07
1.36867e-07
2.04035e-07
1.12001e-07
2.64066e-07
9.78226e-08
2.66764e-07
9.99835e-08
1.93213e-07
9.42102e-08
1.56144e-07
7.07212e-08
9.82557e-08
7.70237e-08
5.77775e-08
5.90376e-08
3.41275e-08
4.12509e-08
-2.49324e-08
-9.14475e-09
-9.22883e-08
-9.09635e-09
-8.96188e-08
-9.09802e-08
8.85851e-08
9.75894e-09
5.29715e-08
-7.12384e-09
6.38409e-08
1.04737e-08
6.83903e-09
2.63811e-09
-4.10371e-08
-4.80356e-09
1.39345e-08
5.7882e-09
7.56818e-08
-7.26004e-09
-4.48766e-08
4.57968e-08
1.36032e-07
-2.78608e-07
0.000190706
3.67045e-05
4.45448e-05
1.30097e-05
2.60648e-05
-1.09014e-06
1.54577e-05
-9.10152e-06
1.02049e-05
-1.29424e-05
8.07419e-06
-1.55233e-05
7.75231e-06
-1.6458e-05
8.45354e-06
-1.46797e-05
8.26776e-06
-1.18415e-05
8.29967e-06
-8.58068e-06
7.18534e-06
-5.66028e-06
6.65991e-06
-3.40773e-06
4.8185e-06
-2.0305e-06
3.75042e-06
-1.21893e-06
2.20589e-06
-6.04814e-07
1.39003e-06
-1.9235e-07
9.06189e-07
9.29039e-08
4.97086e-07
2.00689e-07
3.41286e-07
2.10269e-07
1.788e-07
1.93156e-07
1.02096e-07
1.71545e-07
5.72443e-08
1.79948e-07
5.06834e-08
1.26899e-07
6.47899e-08
8.75221e-08
4.91779e-08
5.1921e-08
5.76204e-08
3.92555e-08
4.10479e-08
2.27422e-08
-1.86881e-08
-2.33833e-09
-1.27091e-07
-4.0795e-08
2.54814e-08
-7.42665e-08
5.67457e-09
-2.18187e-08
6.79383e-08
-2.04078e-10
1.77614e-08
-1.33831e-08
-4.9548e-08
2.5835e-09
-2.51517e-08
1.13264e-09
3.92311e-08
-4.16927e-08
5.40461e-08
8.00661e-09
-1.05368e-07
-2.70659e-07
5.45306e-05
-1.32061e-05
1.27799e-05
-1.02692e-05
1.09682e-05
-9.83916e-06
9.85165e-06
-9.70551e-06
8.37133e-06
-9.4756e-06
7.49288e-06
-9.69489e-06
7.22697e-06
-1.02629e-05
6.99514e-06
-1.01848e-05
7.05062e-06
-9.05495e-06
6.24561e-06
-7.61047e-06
6.21928e-06
-5.6344e-06
5.09034e-06
-3.39785e-06
4.70709e-06
-1.16016e-06
3.7903e-06
3.32852e-07
3.01779e-06
8.48048e-07
2.02248e-06
7.49797e-07
1.10646e-06
3.90789e-07
5.69952e-07
1.53593e-07
1.92226e-07
8.94237e-08
8.64911e-08
1.13449e-07
4.3995e-08
1.45738e-07
4.5903e-08
1.14258e-07
3.89654e-08
1.07125e-07
2.27621e-08
7.41899e-08
3.59265e-08
5.04442e-08
3.27218e-08
3.04599e-08
4.59505e-08
2.9011e-08
3.30513e-08
-3.50637e-08
1.07846e-08
-7.57364e-08
-1.12337e-07
-1.84791e-08
-6.13216e-08
6.59131e-09
-3.72987e-08
3.05852e-08
-3.26833e-08
-4.35033e-08
1.08251e-08
-4.57762e-08
-2.06239e-08
7.25458e-09
-1.11467e-08
9.4464e-08
-6.82016e-08
-1.20584e-07
2.26317e-05
-1.71145e-05
6.54616e-06
-1.30728e-05
6.77256e-06
-1.15123e-05
6.95994e-06
-1.06029e-05
6.56253e-06
-9.6918e-06
6.15715e-06
-8.80824e-06
5.91028e-06
-8.55698e-06
5.8627e-06
-8.29824e-06
5.94279e-06
-7.321e-06
5.46921e-06
-6.01741e-06
5.26429e-06
-4.42081e-06
4.49258e-06
-2.82898e-06
4.13648e-06
-1.55756e-06
3.04259e-06
-7.03519e-07
2.11655e-06
-1.03436e-07
1.36928e-06
1.15676e-07
8.49664e-07
2.06258e-07
4.60477e-07
1.86655e-07
3.14077e-07
1.25973e-07
1.5231e-07
7.58301e-08
6.66954e-08
5.29262e-08
8.58655e-09
8.4919e-08
2.66267e-10
7.16039e-08
1.59214e-08
5.84416e-08
1.02277e-08
3.33589e-08
2.52419e-08
2.79615e-08
3.26114e-08
2.95479e-08
3.51569e-08
2.78441e-08
-7.82072e-08
-7.95263e-08
-6.52939e-08
-1.33524e-07
-6.1001e-08
-9.32595e-08
2.21678e-08
-3.84623e-08
-2.92316e-08
-1.95342e-08
-4.2353e-08
-1.25421e-08
-1.34659e-08
-1.55241e-08
4.72309e-08
-1.07661e-07
-2.73306e-05
-3.23677e-05
-9.18645e-06
-1.82903e-05
-7.73904e-07
-1.22572e-05
2.42926e-06
-9.43406e-06
4.08947e-06
-7.73147e-06
4.61513e-06
-6.42194e-06
4.82336e-06
-5.66372e-06
5.04315e-06
-5.29713e-06
4.96766e-06
-4.91529e-06
4.87547e-06
-4.24173e-06
4.19562e-06
-3.52329e-06
3.97995e-06
-2.51746e-06
3.19149e-06
-1.27292e-06
2.85413e-06
-9.99357e-08
2.47344e-06
4.47304e-07
1.75963e-06
5.28856e-07
1.10691e-06
2.70774e-07
6.04549e-07
1.04936e-08
1.86424e-07
-9.44008e-08
4.37034e-08
-6.73372e-08
-7.06544e-09
3.90492e-09
2.90657e-09
2.15356e-08
-3.25864e-10
4.45447e-08
-1.32681e-08
3.78443e-08
1.13233e-10
3.33532e-08
7.5788e-09
2.73715e-08
1.7826e-08
3.27911e-08
2.08879e-08
9.6715e-09
-3.72211e-08
-6.28386e-08
-1.65322e-07
-5.98625e-08
-1.56246e-07
-1.43204e-08
-6.75983e-08
9.07748e-10
-4.22421e-08
-5.02864e-08
7.70934e-09
-1.26017e-08
-4.03369e-08
9.19427e-05
1.77337e-05
2.23569e-05
8.1328e-06
1.30787e-05
3.16323e-06
8.48511e-06
5.98837e-07
6.15115e-06
-9.17541e-07
4.54306e-06
-1.83004e-06
3.66086e-06
-2.3208e-06
3.10247e-06
-2.78725e-06
2.87755e-06
-3.16393e-06
2.72157e-06
-3.18973e-06
2.43564e-06
-2.9113e-06
2.3143e-06
-2.33408e-06
1.97051e-06
-1.69027e-06
1.87669e-06
-1.10117e-06
1.15312e-06
-5.61183e-07
9.26752e-07
-2.39848e-07
6.16533e-07
-1.02517e-07
3.28326e-07
-6.30902e-08
2.4503e-07
-6.66961e-08
1.25224e-07
-7.76215e-08
5.62708e-08
-7.2542e-08
-4.15884e-09
-1.86978e-08
-2.28243e-08
4.20722e-09
-1.5214e-08
2.22067e-08
-1.50128e-08
2.25623e-08
1.24015e-08
1.74751e-08
3.26853e-08
9.10446e-09
8.68811e-08
-1.90537e-08
3.31477e-08
-1.4003e-07
2.03185e-09
-1.8582e-07
-1.18892e-08
-1.16107e-07
6.6262e-08
-5.72468e-08
-2.43927e-08
-1.6759e-08
1.25487e-05
-5.2218e-06
3.6605e-06
-3.9038e-06
3.43755e-06
-3.17476e-06
3.38429e-06
-2.66621e-06
3.19862e-06
-2.4353e-06
3.16281e-06
-2.35589e-06
2.86916e-06
-2.3169e-06
2.65113e-06
-2.39677e-06
2.49575e-06
-2.59758e-06
2.27739e-06
-2.73073e-06
2.15589e-06
-2.61847e-06
1.77026e-06
-2.36354e-06
1.68016e-06
-1.78355e-06
1.28367e-06
-1.0384e-06
1.39152e-06
-4.64328e-07
1.08601e-06
-1.96341e-07
7.09409e-07
-1.84397e-07
4.43063e-07
-2.76446e-07
1.1758e-07
-3.19913e-07
-2.20333e-09
-2.55204e-07
-3.74009e-08
-1.4333e-07
-1.99243e-08
-7.93501e-08
-2.1316e-08
-2.36475e-08
-3.39943e-08
2.39818e-09
-1.04689e-08
2.50182e-08
1.5139e-09
3.71695e-08
1.26018e-08
9.59912e-08
1.60521e-09
1.07297e-07
-9.8989e-08
1.10943e-07
-1.55806e-07
6.1198e-08
-1.69018e-07
8.10073e-08
2.07317e-05
3.98106e-06
5.50253e-06
2.61945e-06
3.40175e-06
1.3819e-06
2.27849e-06
6.99222e-07
1.52145e-06
1.54771e-07
1.17442e-06
-3.47213e-07
7.15545e-07
-8.33121e-07
5.47587e-07
-1.25951e-06
3.22581e-07
-1.74537e-06
2.88711e-07
-2.17462e-06
2.80645e-07
-2.35876e-06
3.56453e-07
-2.31093e-06
4.79716e-07
-2.05837e-06
5.30019e-07
-1.68279e-06
5.28277e-07
-1.20403e-06
4.16311e-07
-7.82953e-07
4.46638e-07
-4.97495e-07
2.68329e-07
-3.52171e-07
2.02432e-07
-2.51806e-07
1.21626e-07
-1.91426e-07
7.30902e-08
-1.58218e-07
1.19941e-08
-9.78908e-08
-2.31135e-08
-5.73381e-08
-2.34238e-08
9.1711e-09
-3.75299e-08
3.36378e-08
-3.6762e-08
1.99247e-08
3.14535e-08
2.72039e-08
7.13386e-08
-4.68382e-08
1.38955e-07
-2.46736e-05
-1.48353e-05
-9.00579e-06
-9.83937e-06
-4.13909e-06
-6.08792e-06
-1.3205e-06
-3.67518e-06
1.5932e-07
-2.38645e-06
7.03074e-07
-1.74579e-06
1.05803e-06
-1.4268e-06
1.10106e-06
-1.28072e-06
1.16187e-06
-1.27231e-06
1.12757e-06
-1.39011e-06
1.10437e-06
-1.51459e-06
1.05188e-06
-1.54178e-06
9.57483e-07
-1.49153e-06
9.11463e-07
-1.30698e-06
7.91227e-07
-1.08075e-06
7.67017e-07
-9.16068e-07
4.90806e-07
-8.15732e-07
3.42765e-07
-6.90494e-07
1.73264e-07
-5.33084e-07
4.42795e-08
-4.27622e-07
3.13542e-08
-2.55553e-07
2.98426e-08
-1.65203e-07
-1.77918e-09
-7.49378e-08
-6.37148e-09
-4.47351e-08
2.13225e-08
-1.04481e-07
2.26636e-05
6.79294e-06
5.58299e-06
3.86828e-06
2.79433e-06
1.91825e-06
9.76902e-07
6.73879e-07
1.21957e-07
1.56551e-08
-3.4304e-07
-4.18132e-07
-3.80413e-07
-7.67224e-07
-4.79244e-07
-1.09129e-06
-3.13724e-07
-1.33054e-06
-2.2216e-07
-1.58495e-06
7.92878e-09
-1.76792e-06
2.13558e-07
-1.80521e-06
4.48916e-07
-1.68806e-06
6.34209e-07
-1.51967e-06
7.65727e-07
-1.30839e-06
8.47993e-07
-1.08763e-06
7.76782e-07
-6.78968e-07
7.1737e-07
-5.72649e-07
7.17394e-07
-1.2386e-06
)
;

boundaryField
{
    inlet
    {
        type            extrapolatedCalculated;
        value           nonuniform List<scalar> 
11
(
3.10965e-07
1.7427e-07
1.79012e-07
1.61206e-07
1.68949e-07
1.85685e-07
2.13565e-07
1.25911e-07
1.62276e-07
-1.42953e-08
3.67789e-07
)
;
    }
    outlet
    {
        type            extrapolatedCalculated;
        value           nonuniform List<scalar> 0();
    }
    walls
    {
        type            extrapolatedCalculated;
        value           nonuniform List<scalar> 4(0.000115671 0.000145192 -0.00010533 0.000142588);
    }
    frontAndBack
    {
        type            empty;
    }
    procBoundary6to2
    {
        type            processor;
        value           nonuniform List<scalar> 
13
(
-0.000201686
-0.000126555
-0.000124498
-0.000367747
0.000167706
-3.29484e-05
-3.72025e-05
-7.87089e-05
6.11713e-05
-1.21624e-05
8.23206e-06
-3.14479e-05
2.0534e-05
)
;
    }
    procBoundary6to3
    {
        type            processor;
        value           uniform -8.18614e-05;
    }
    procBoundary6to5
    {
        type            processor;
        value           nonuniform List<scalar> 
86
(
-1.76418e-05
3.17807e-06
-1.76025e-05
6.41242e-06
-1.9309e-05
8.38256e-06
-2.31618e-05
9.4065e-06
-2.371e-05
9.13342e-06
-2.23068e-05
8.51473e-06
-2.18627e-05
5.81067e-06
-1.93787e-05
1.67638e-06
-2.02117e-05
-2.93448e-06
-1.97263e-05
-6.42919e-06
-1.76768e-05
-7.14918e-06
-1.44713e-05
-5.24414e-06
-9.8074e-06
-5.90877e-07
-5.92536e-06
3.73292e-06
-1.66916e-06
3.65518e-07
6.2102e-07
-3.18193e-06
3.65137e-06
3.65137e-06
2.59029e-06
-1.99901e-06
2.42886e-06
-1.69445e-06
2.36324e-06
-1.63122e-06
2.48816e-06
-8.03872e-07
1.29644e-06
-2.66652e-07
-3.86915e-07
2.87764e-07
2.87764e-07
6.66957e-07
-5.82631e-07
4.79495e-07
-3.61097e-07
2.97375e-07
-2.29932e-07
-3.2619e-08
-7.06524e-08
5.66138e-08
5.66138e-08
1.23225e-07
9.86752e-08
-9.8041e-08
1.75171e-07
-9.85846e-08
1.80127e-07
-8.15961e-08
-8.15961e-08
-1.09803e-08
8.81518e-09
7.24307e-08
-8.90242e-08
5.31001e-08
-8.34783e-08
-1.05717e-07
-1.05717e-07
-4.99491e-08
9.50673e-09
-1.97141e-08
-1.5666e-09
-3.21792e-08
1.96296e-09
-5.5263e-08
-5.58667e-08
-3.51515e-08
-3.51515e-08
2.23339e-08
1.57789e-07
2.00472e-07
)
;
    }
    procBoundary6to7
    {
        type            processor;
        value           nonuniform List<scalar> 
91
(
2.3606e-07
2.3606e-07
3.78734e-07
3.78734e-07
1.01033e-07
1.01033e-07
1.37936e-07
8.10735e-09
1.37936e-07
1.14922e-07
3.58052e-08
8.10735e-09
-2.87689e-10
-3.87574e-09
-3.03621e-08
3.58052e-08
8.61073e-08
-3.88891e-08
-4.21522e-08
-3.87574e-09
-1.94465e-08
-1.6259e-07
1.91095e-08
-6.70999e-08
-3.88891e-08
-4.22023e-08
-1.4366e-07
8.56365e-08
-2.16458e-07
3.58521e-08
-1.6259e-07
-1.28224e-07
8.29283e-09
-4.02832e-08
3.17467e-08
1.28721e-08
2.29542e-08
1.84259e-08
-1.4366e-07
1.79603e-08
5.43566e-07
-4.67981e-07
1.51218e-07
-3.09656e-07
1.0497e-07
-2.46619e-07
3.64429e-08
-1.65505e-07
3.0935e-08
-6.48419e-08
-4.64005e-09
8.29283e-09
-2.65149e-08
-5.97313e-05
-3.24026e-05
-1.78298e-05
-2.27812e-05
-9.15986e-06
-1.61587e-05
-3.87509e-06
-1.10933e-05
-6.3434e-07
-7.51341e-06
7.15086e-07
-5.49268e-06
1.17746e-06
-4.35176e-06
1.26263e-06
-3.62352e-06
1.18877e-06
-3.08565e-06
1.05633e-06
-2.76689e-06
8.95032e-07
-2.57283e-06
8.0971e-07
-2.35681e-06
6.59052e-07
-2.10153e-06
6.43037e-07
-1.7863e-06
5.13902e-07
-1.37451e-06
5.82392e-07
-9.67947e-07
5.0684e-07
-6.76621e-07
4.41374e-07
-4.86004e-07
5.43566e-07
2.70371e-07
)
;
    }
}


// ************************************************************************* //
