/*--------------------------------*- C++ -*----------------------------------*\
| =========                 |                                                 |
| \\      /  F ield         | OpenFOAM: The Open Source CFD Toolbox           |
|  \\    /   O peration     | Version:  2506                                  |
|   \\  /    A nd           | Website:  www.openfoam.com                      |
|    \\/     M anipulation  |                                                 |
\*---------------------------------------------------------------------------*/
FoamFile
{
    version     2.0;
    format      ascii;
    arch        "LSB;label=32;scalar=64";
    class       volScalarField;
    location    "200";
    object      turbulenceProperties:epsilon;
}
// * * * * * * * * * * * * * * * * * * * * * * * * * * * * * * * * * * * * * //

dimensions      [0 2 -3 0 0 0 0];

internalField   nonuniform List<scalar> 
1340
(
350.065
245.478
154.979
18.6773
26.0628
21.4328
17.5408
19.9271
30.9482
23.2557
16.5232
20.024
30.4214
25.3382
19.0428
20.7552
14.2323
18.9154
18.5416
20.8224
1.01869
5.80512
12.2395
18.4529
0.0360581
0.207062
3.68414
12.3591
0.0158674
0.0247558
0.259677
5.05741
0
0.00607309
0.0218714
1.0455
0
0
0.00783314
0.118866
9.28116e-19
0
0.000287426
0.0201986
3.91762e-09
0
8.35315e-05
0.00664272
1.6112e-06
4.94863e-11
1.87715e-05
0.00216247
5.04219e-06
9.23185e-09
1.12683e-07
0.000485977
3.98157e-06
1.75258e-06
2.13323e-13
9.45962e-05
2.63263e-06
4.25495e-06
1.51712e-10
0
2.13788e-06
4.21129e-06
2.52398e-08
3.76121e-15
2.07791e-06
2.98572e-06
1.04996e-06
2.77878e-10
2.08826e-06
2.13687e-06
2.32399e-06
8.20739e-08
2.02638e-06
1.77459e-06
2.27834e-06
7.70355e-07
1.89633e-06
1.63428e-06
1.82057e-06
1.42965e-06
1.74151e-06
1.54187e-06
1.47401e-06
1.50993e-06
1.58885e-06
1.43573e-06
1.26773e-06
1.3284e-06
1.44589e-06
1.31319e-06
1.13084e-06
1.12461e-06
1.31216e-06
1.18675e-06
1.01751e-06
9.575e-07
1.1856e-06
1.06491e-06
9.11633e-07
8.23351e-07
1.06571e-06
9.5105e-07
8.11371e-07
7.11342e-07
9.52718e-07
8.4551e-07
7.18048e-07
6.15275e-07
8.46798e-07
7.47969e-07
6.32291e-07
5.31864e-07
7.48483e-07
6.58439e-07
5.54407e-07
4.59411e-07
6.57968e-07
5.76764e-07
4.8395e-07
3.9641e-07
5.75109e-07
5.02787e-07
4.20783e-07
3.416e-07
4.9994e-07
4.36089e-07
3.64338e-07
2.93995e-07
4.85357e-07
4.32236e-07
3.76484e-07
3.14167e-07
2.52585e-07
4.17009e-07
3.71684e-07
3.23534e-07
2.69902e-07
2.1661e-07
3.56266e-07
3.17971e-07
2.76756e-07
2.31018e-07
1.85401e-07
3.0272e-07
2.70631e-07
2.35693e-07
1.97021e-07
1.5835e-07
2.55885e-07
2.29213e-07
1.99868e-07
1.6744e-07
1.34944e-07
2.15205e-07
1.93222e-07
1.68799e-07
1.41832e-07
1.14732e-07
1.80128e-07
1.6215e-07
1.41988e-07
1.1975e-07
9.73156e-08
1.50096e-07
1.355e-07
1.1899e-07
1.00788e-07
8.23416e-08
1.24549e-07
1.12779e-07
9.93632e-08
8.4576e-08
6.94991e-08
1.02948e-07
9.35181e-08
8.26931e-08
7.07622e-08
5.85143e-08
8.47882e-08
7.72817e-08
6.86014e-08
5.90416e-08
4.91385e-08
6.96025e-08
6.3662e-08
5.67453e-08
4.91307e-08
4.1164e-08
6.09216e-08
5.69704e-08
5.22896e-08
4.68098e-08
4.07785e-08
3.44002e-08
4.95962e-08
4.65102e-08
4.28396e-08
3.85183e-08
3.37654e-08
2.86794e-08
4.02862e-08
3.78832e-08
3.50165e-08
3.16241e-08
2.7896e-08
2.38551e-08
3.26609e-08
3.07954e-08
2.85639e-08
2.59106e-08
2.2998e-08
1.97985e-08
2.64368e-08
2.4991e-08
2.32592e-08
2.11915e-08
1.89233e-08
1.63983e-08
2.13724e-08
2.02535e-08
1.89117e-08
1.73041e-08
1.55432e-08
1.35561e-08
1.72611e-08
1.63961e-08
1.53586e-08
1.41114e-08
1.2747e-08
1.11866e-08
1.39312e-08
1.32627e-08
1.24609e-08
1.14948e-08
1.04394e-08
9.21674e-09
1.12388e-08
1.07219e-08
1.01029e-08
9.35528e-09
8.53958e-09
7.58312e-09
9.38974e-09
9.06478e-09
8.66502e-09
8.18699e-09
7.60875e-09
6.97862e-09
6.23156e-09
7.56397e-09
7.31125e-09
7.00182e-09
6.63254e-09
6.18532e-09
5.69847e-09
5.11568e-09
6.09535e-09
5.89858e-09
5.65859e-09
5.37285e-09
5.02673e-09
4.65033e-09
4.19608e-09
4.91514e-09
4.76137e-09
4.57473e-09
4.3532e-09
4.08489e-09
3.79349e-09
3.43962e-09
3.96689e-09
3.84631e-09
3.70072e-09
3.52852e-09
3.3202e-09
3.09407e-09
2.81835e-09
3.20434e-09
3.10961e-09
2.99582e-09
2.86168e-09
2.69957e-09
2.52371e-09
2.30887e-09
2.58971e-09
2.51527e-09
2.42637e-09
2.32187e-09
2.19571e-09
2.05873e-09
1.89142e-09
2.14074e-09
2.09236e-09
2.03408e-09
1.96484e-09
1.88363e-09
1.78563e-09
1.67903e-09
1.54909e-09
1.72741e-09
1.68924e-09
1.64372e-09
1.58985e-09
1.52686e-09
1.45096e-09
1.36822e-09
1.26777e-09
1.3936e-09
1.36325e-09
1.32739e-09
1.28527e-09
1.2363e-09
1.17751e-09
1.11332e-09
1.0359e-09
1.12572e-09
1.10116e-09
1.07248e-09
1.03918e-09
1.00079e-09
9.54969e-10
9.05e-10
8.45418e-10
9.10327e-10
8.90012e-10
8.66624e-10
8.39837e-10
8.09256e-10
7.73061e-10
7.33715e-10
6.87451e-10
7.43849e-10
7.27126e-10
7.08004e-10
6.86243e-10
6.61553e-10
6.32352e-10
6.00688e-10
5.63737e-10
6.23145e-10
6.09063e-10
5.93173e-10
5.75211e-10
5.54834e-10
5.30646e-10
5.04428e-10
4.75456e-10
5.3826e-10
5.27676e-10
5.14742e-10
5.00575e-10
4.85022e-10
4.67617e-10
4.47234e-10
4.24842e-10
4.01144e-10
4.59277e-10
4.49573e-10
4.37801e-10
4.24938e-10
4.10991e-10
3.95576e-10
3.77904e-10
3.58974e-10
3.4073e-10
3.83381e-10
3.74253e-10
3.63498e-10
3.5188e-10
3.39467e-10
3.25906e-10
3.10387e-10
2.93032e-10
2.75009e-10
3.27072e-10
3.19402e-10
3.10232e-10
3.00137e-10
2.89212e-10
2.77354e-10
2.64263e-10
2.51146e-10
2.40945e-10
2.55805e-10
2.48252e-10
2.39844e-10
2.31e-10
2.21749e-10
2.11698e-10
1.99951e-10
1.85665e-10
1.69976e-10
2.34691e-10
2.28686e-10
2.21528e-10
2.13565e-10
2.05054e-10
1.96245e-10
1.87642e-10
1.81323e-10
1.80566e-10
1.53741e-10
1.48168e-10
1.422e-10
1.3592e-10
1.29258e-10
1.21694e-10
1.11942e-10
9.92511e-11
8.47505e-11
2.02079e-10
1.98167e-10
1.93183e-10
1.87159e-10
1.80779e-10
1.74968e-10
1.72343e-10
1.77036e-10
1.88918e-10
1.2249e-10
1.22067e-10
1.20291e-10
1.17159e-10
1.12898e-10
1.07246e-10
9.97577e-11
9.54936e-11
8.79586e-11
3.6527e-10
3.48739e-10
3.49029e-10
3.49129e-10
3.48277e-10
3.47252e-10
3.48314e-10
3.61614e-10
3.95109e-10
4.12328e-10
4.19862e-10
4.14934e-10
4.19823e-10
4.2583e-10
4.30962e-10
4.35582e-10
4.42187e-10
4.64723e-10
5.04056e-10
5.01824e-10
1.20581e-09
8.60878e-10
8.85456e-10
9.06703e-10
9.19398e-10
9.34166e-10
9.54149e-10
9.94146e-10
1.02985e-09
7.52666e-10
56.3519
8.80942
1.96522
12.4572
19.5125
20.6377
16.8512
9.65694
3.07609
0.40336
0.0253237
0.00406058
0.00154624
0.000386688
3.09167e-09
3.14038e-12
0
1.81716e-11
1.67931e-08
4.40056e-07
1.00422e-06
1.12196e-06
9.93901e-07
8.35405e-07
7.05789e-07
6.04272e-07
5.20944e-07
4.50178e-07
3.89063e-07
3.36223e-07
2.90536e-07
2.51019e-07
2.1686e-07
1.87248e-07
1.61547e-07
1.3925e-07
1.19873e-07
1.03036e-07
8.84125e-08
7.57183e-08
6.47078e-08
5.51722e-08
4.69355e-08
3.98218e-08
3.37016e-08
2.84504e-08
2.39554e-08
2.01195e-08
1.68557e-08
1.40878e-08
1.1748e-08
9.77563e-09
8.11862e-09
6.73023e-09
5.57024e-09
4.60362e-09
3.80004e-09
3.13349e-09
2.5817e-09
2.12584e-09
1.74981e-09
1.43961e-09
1.1834e-09
9.71039e-10
7.95794e-10
6.49319e-10
5.33403e-10
4.51828e-10
3.80248e-10
3.26937e-10
2.58084e-10
2.36234e-10
1.52911e-10
1.87334e-10
6.6696e-11
2.07938e-10
7.02787e-11
4.11058e-10
4.33245e-10
6.62589e-10
24.4385
17.6136
3.2721
1.22691
6.45732
10.7666
11.2593
8.18777
3.6044
0.656706
0.0261698
0.000662831
0.000235318
0.00010504
9.98611e-07
1.55825e-09
0
2.45159e-12
2.37926e-09
1.35453e-07
3.94768e-07
4.85416e-07
4.56183e-07
4.01102e-07
3.52639e-07
3.13274e-07
2.79599e-07
2.49535e-07
2.22302e-07
1.97706e-07
1.75574e-07
1.55707e-07
1.37925e-07
1.21985e-07
1.07698e-07
9.49196e-08
8.34772e-08
7.32504e-08
6.41185e-08
5.5976e-08
4.8729e-08
4.22946e-08
3.6602e-08
3.15678e-08
2.71379e-08
2.32546e-08
1.98605e-08
1.69061e-08
1.43445e-08
1.21327e-08
1.02313e-08
8.60273e-09
7.21388e-09
6.03391e-09
5.03512e-09
4.19276e-09
3.4847e-09
2.89136e-09
2.39553e-09
1.98238e-09
1.63892e-09
1.3536e-09
1.11657e-09
9.19046e-10
7.55283e-10
6.17884e-10
5.0813e-10
4.30495e-10
3.61283e-10
3.12133e-10
2.44647e-10
2.26606e-10
1.43657e-10
1.80928e-10
6.12036e-11
2.00263e-10
6.53436e-11
3.90815e-10
4.08509e-10
10.2372
12.0359
6.62215
1.03884
0.808406
4.20172
7.08697
7.22408
4.76055
1.67167
0.188566
0.00254089
6.17169e-05
3.48546e-05
5.06329e-14
0
0
3.16968e-13
2.99732e-10
3.06545e-08
1.29838e-07
1.86106e-07
1.86879e-07
1.71834e-07
1.5783e-07
1.4669e-07
1.37091e-07
1.28059e-07
1.19197e-07
1.10484e-07
1.01963e-07
9.36956e-08
8.57496e-08
7.81417e-08
7.09025e-08
6.40664e-08
5.76392e-08
5.16439e-08
4.60753e-08
4.09354e-08
3.62163e-08
3.19105e-08
2.80051e-08
2.44717e-08
2.12983e-08
1.84639e-08
1.59437e-08
1.37151e-08
1.17538e-08
1.00367e-08
8.54147e-09
7.24494e-09
6.12661e-09
5.16587e-09
4.34417e-09
3.64434e-09
3.05051e-09
2.54846e-09
2.12529e-09
1.76977e-09
1.47192e-09
1.22265e-09
1.01418e-09
8.39243e-10
6.93223e-10
5.69995e-10
4.70486e-10
4.00042e-10
3.35734e-10
2.92316e-10
2.2837e-10
2.13977e-10
1.34504e-10
1.7191e-10
5.83118e-11
1.90486e-10
6.45882e-11
3.74363e-10
4.68863
6.94684
6.32264
3.06441
0.377656
0.548745
2.78531
4.74743
4.81872
3.02733
0.946996
0.0892364
0.00104079
1.52887e-05
9.63718e-06
0
0
8.50375e-20
7.3158e-17
1.03344e-08
7.53719e-08
1.23392e-07
1.28997e-07
1.17451e-07
1.05522e-07
9.67063e-08
8.98713e-08
8.38919e-08
7.83134e-08
7.30137e-08
6.79319e-08
6.30401e-08
5.83318e-08
5.3787e-08
4.94045e-08
4.51936e-08
4.11628e-08
3.73297e-08
3.37e-08
3.02855e-08
2.70937e-08
2.41319e-08
2.14e-08
1.88906e-08
1.66035e-08
1.45314e-08
1.26649e-08
1.0994e-08
9.50544e-09
8.18715e-09
7.02655e-09
6.00931e-09
5.12298e-09
4.35381e-09
3.68957e-09
3.11858e-09
2.62964e-09
2.21262e-09
1.85813e-09
1.55777e-09
1.30412e-09
1.09019e-09
9.09992e-10
7.57669e-10
6.29515e-10
5.20657e-10
4.31716e-10
3.69126e-10
3.10325e-10
2.72545e-10
2.12388e-10
2.01389e-10
1.25757e-10
1.63132e-10
5.57801e-11
1.81791e-10
6.34902e-11
1.97719
3.68889
4.54892
3.71717
1.71321
0.19464
0.349687
1.80598
3.15975
3.24851
2.01351
0.611012
0.0573488
0.000767524
2.72062e-06
1.31737e-06
0
0
1.73529e-14
1.52648e-11
2.96433e-08
8.34931e-08
9.11041e-08
8.47708e-08
7.69738e-08
7.01184e-08
6.47048e-08
6.01594e-08
5.59859e-08
5.20436e-08
4.83143e-08
4.47914e-08
4.14621e-08
3.83061e-08
3.53061e-08
3.24506e-08
2.9734e-08
2.71553e-08
2.47095e-08
2.23975e-08
2.02215e-08
1.81841e-08
1.62849e-08
1.45207e-08
1.28924e-08
1.13976e-08
1.00337e-08
8.79713e-09
7.68075e-09
6.67913e-09
5.78622e-09
4.99407e-09
4.29543e-09
3.68206e-09
3.14645e-09
2.681e-09
2.2783e-09
1.93138e-09
1.63366e-09
1.37906e-09
1.16214e-09
9.77667e-10
8.21086e-10
6.87758e-10
5.74675e-10
4.7802e-10
3.98051e-10
3.4211e-10
2.88032e-10
2.54967e-10
1.98119e-10
1.9002e-10
1.17711e-10
1.55368e-10
5.30792e-11
1.74952e-10
0.614962
1.65402
2.70828
3.08422
2.42799
1.12323
0.135912
0.204265
1.17257
2.15188
2.27719
1.43847
0.453192
0.0481482
0.000886232
1.81391e-06
5.01068e-07
0
0
5.69958e-14
3.39671e-11
3.03274e-08
6.12383e-08
5.32251e-08
4.59448e-08
4.2679e-08
4.02152e-08
3.79388e-08
3.58464e-08
3.38381e-08
3.18606e-08
2.99195e-08
2.80264e-08
2.61859e-08
2.43973e-08
2.26608e-08
2.09808e-08
1.93613e-08
1.78028e-08
1.63084e-08
1.48827e-08
1.35285e-08
1.22483e-08
1.1042e-08
9.91139e-09
8.85759e-09
7.88192e-09
6.98427e-09
6.1618e-09
5.41308e-09
4.73618e-09
4.1275e-09
3.58351e-09
3.09973e-09
2.6721e-09
2.29605e-09
1.96703e-09
1.68051e-09
1.43208e-09
1.21753e-09
1.033e-09
8.7467e-10
7.39186e-10
6.22949e-10
5.2354e-10
4.38042e-10
3.66313e-10
3.16387e-10
2.66689e-10
2.3791e-10
1.84324e-10
1.78902e-10
1.09838e-10
1.47838e-10
0.0965298
0.513507
1.25887
1.96463
2.19028
1.73286
0.839074
0.12251
0.103904
0.751733
1.48639
1.64785
1.08997
0.372747
0.0475505
0.00131457
2.64835e-05
0
0
0
1.94348e-15
4.97045e-13
1.71225e-08
4.22034e-08
3.37693e-08
2.72892e-08
2.52255e-08
2.40543e-08
2.28498e-08
2.17013e-08
2.06246e-08
1.9581e-08
1.85578e-08
1.75528e-08
1.65598e-08
1.55745e-08
1.45985e-08
1.36351e-08
1.26865e-08
1.1757e-08
1.08513e-08
9.97392e-09
9.12958e-09
8.31998e-09
7.54764e-09
6.81602e-09
6.12802e-09
5.4854e-09
4.88799e-09
4.33627e-09
3.83051e-09
3.36966e-09
2.95251e-09
2.57683e-09
2.24072e-09
1.94168e-09
1.67712e-09
1.44425e-09
1.24024e-09
1.06227e-09
9.07713e-10
7.73889e-10
6.58385e-10
5.58518e-10
4.72339e-10
3.97741e-10
3.34175e-10
2.90214e-10
2.44977e-10
2.20412e-10
1.70299e-10
1.67494e-10
0.00309083
0.0720325
0.372465
0.908996
1.42692
1.61607
1.32279
0.690773
0.13151
0.0416464
0.465704
1.02644
1.21434
0.857604
0.324827
0.0502133
0.00193711
3.38386e-05
1.22937e-08
0
0
5.84929e-20
2.3309e-11
9.93914e-09
2.79258e-08
2.32613e-08
1.81533e-08
1.66529e-08
1.59387e-08
1.51264e-08
1.43218e-08
1.35879e-08
1.28982e-08
1.2236e-08
1.15945e-08
1.09664e-08
1.0347e-08
9.73534e-09
9.12984e-09
8.53145e-09
7.94195e-09
7.36412e-09
6.80125e-09
6.25449e-09
5.72563e-09
5.21777e-09
4.73373e-09
4.27582e-09
3.84466e-09
3.44138e-09
3.06703e-09
2.72179e-09
2.40567e-09
2.11763e-09
1.85699e-09
1.62252e-09
1.41288e-09
1.22644e-09
1.06145e-09
9.16068e-10
7.88585e-10
6.77182e-10
5.80175e-10
4.95641e-10
4.2199e-10
3.57825e-10
3.02205e-10
2.64081e-10
2.23313e-10
1.77317e-06
0.00147057
0.0424124
0.241641
0.628151
1.03275
1.22085
1.0545
0.604401
0.151442
0.0106102
0.273236
0.702602
0.904301
0.69143
0.29255
0.0543787
0.00294251
8.81865e-06
4.52965e-07
0
0
0
1.13142e-11
4.73921e-09
1.86552e-08
1.62841e-08
1.23916e-08
1.12533e-08
1.08459e-08
1.03204e-08
9.75855e-09
9.25174e-09
8.78537e-09
8.3391e-09
7.90613e-09
7.48312e-09
7.06835e-09
6.65937e-09
6.25537e-09
5.85675e-09
5.46476e-09
5.08104e-09
4.70602e-09
4.34028e-09
3.98556e-09
3.64408e-09
3.31792e-09
3.00758e-09
2.71417e-09
2.43882e-09
2.18209e-09
1.94458e-09
1.72584e-09
1.52577e-09
1.34394e-09
1.17968e-09
1.03216e-09
9.00324e-10
7.83008e-10
6.79141e-10
5.87521e-10
5.07029e-10
4.36345e-10
3.74133e-10
3.19608e-10
1.16392e-10
9.76527e-06
0.000430395
0.0200315
0.140226
0.412718
0.736793
0.929889
0.860421
0.545837
0.175453
0.00308651
0.147382
0.472476
0.67575
0.565468
0.267536
0.0593323
0.00415079
2.45232e-05
5.131e-07
0
0
0
3.61398e-12
1.44096e-09
1.18837e-08
1.17644e-08
8.61592e-09
7.59148e-09
7.36202e-09
7.06114e-09
6.68365e-09
6.33543e-09
6.0226e-09
5.72579e-09
5.43694e-09
5.15446e-09
4.87656e-09
4.60183e-09
4.33004e-09
4.06181e-09
3.79824e-09
3.53955e-09
3.28561e-09
3.03727e-09
2.79622e-09
2.56412e-09
2.34139e-09
2.12881e-09
1.92737e-09
1.73774e-09
1.56061e-09
1.39593e-09
1.24379e-09
1.10417e-09
9.76822e-10
8.61374e-10
7.57222e-10
6.63664e-10
5.80045e-10
5.0559e-10
0
1.16448e-10
5.52696e-08
6.54903e-05
0.00737494
0.0715899
0.254065
0.511061
0.70421
0.70717
0.498509
0.199011
0.0118451
0.0691599
0.308497
0.502899
0.464817
0.246216
0.0639178
0.00567116
6.46348e-05
6.60975e-07
0
0
0
4.76722e-13
1.61897e-10
6.94933e-09
9.06662e-09
6.51411e-09
5.35591e-09
5.09928e-09
4.90992e-09
4.65453e-09
4.40644e-09
4.18546e-09
3.97936e-09
3.78054e-09
3.58675e-09
3.3964e-09
3.20841e-09
3.02284e-09
2.84023e-09
2.66062e-09
2.48355e-09
2.30925e-09
2.13883e-09
1.9736e-09
1.81396e-09
1.66038e-09
1.5136e-09
1.37428e-09
1.24308e-09
1.12006e-09
1.00541e-09
8.99243e-10
8.01566e-10
2.06441e-16
0
5.02205e-17
6.85754e-06
1.99235e-06
0.00197087
0.0312082
0.143595
0.339394
0.523202
0.577872
0.453841
0.218672
0.0306778
0.0248886
0.192359
0.369548
0.38122
0.225988
0.0677895
0.00749374
0.000144962
1.03212e-06
1.65439e-12
0
0
4.83163e-15
7.14048e-13
2.93984e-09
6.36711e-09
5.00659e-09
3.9364e-09
3.63428e-09
3.48679e-09
3.30623e-09
3.12401e-09
2.96085e-09
2.81087e-09
2.66783e-09
2.52925e-09
2.39372e-09
2.26088e-09
2.13084e-09
2.00345e-09
1.87804e-09
1.75427e-09
1.63273e-09
1.51438e-09
1.39957e-09
1.2885e-09
2.13156e-12
2.34345e-15
0
0
1.65523e-06
1.95647e-06
0.000306992
0.0109531
0.0722588
0.211556
0.376021
0.463954
0.40744
0.231647
0.0543018
0.00468735
0.111887
0.265925
0.310139
0.205701
0.0706825
0.00956304
0.000286956
1.63302e-07
6.98164e-09
0
0
1.39872e-19
3.64005e-12
1.32815e-09
4.31552e-09
3.78097e-09
2.9285e-09
2.6324e-09
2.51019e-09
2.37886e-09
2.24307e-09
2.12021e-09
)
;

boundaryField
{
    inlet
    {
        type            calculated;
        value           nonuniform List<scalar> 
11
(
2.35593e-08
2.11647e-08
2.219e-08
2.31625e-08
2.40415e-08
2.48361e-08
2.55924e-08
2.63647e-08
2.72948e-08
2.52107e-08
2.79752e-08
)
;
    }
    outlet
    {
        type            calculated;
        value           nonuniform List<scalar> 0();
    }
    walls
    {
        type            calculated;
        value           uniform 0;
    }
    frontAndBack
    {
        type            empty;
    }
    procBoundary6to2
    {
        type            processor;
        value           nonuniform List<scalar> 
13
(
37.7545
11.4936
4.4766
1.77434
0.535143
0.0869821
0.00340818
1.47876e-06
1.4852e-06
0
1.21676e-17
7.92798e-14
2.00184e-09
)
;
    }
    procBoundary6to3
    {
        type            processor;
        value           uniform 2.20173e-09;
    }
    procBoundary6to5
    {
        type            processor;
        value           nonuniform List<scalar> 
86
(
434.968
33.6462
42.6633
33.9107
6.86249
0.0194604
0.00537371
0.000377451
0
1.0734e-14
9.69327e-12
2.44207e-06
4.68472e-06
3.36951e-06
2.75057e-06
2.72067e-06
2.71864e-06
2.59075e-06
2.40204e-06
2.21692e-06
2.05072e-06
1.89706e-06
1.74871e-06
1.60303e-06
1.46072e-06
1.3232e-06
1.19162e-06
1.06693e-06
9.49734e-07
8.4035e-07
7.39124e-07
6.46239e-07
5.61688e-07
5.61688e-07
5.36328e-07
4.5972e-07
3.91809e-07
3.32083e-07
2.79959e-07
2.34809e-07
1.95989e-07
1.62848e-07
1.34741e-07
1.11048e-07
9.1192e-08
7.4643e-08
7.4643e-08
6.4155e-08
5.21094e-08
4.22358e-08
3.41709e-08
2.76055e-08
2.22762e-08
1.79606e-08
1.44726e-08
1.16578e-08
1.16578e-08
9.64851e-09
7.76598e-09
6.25368e-09
5.03974e-09
4.06532e-09
3.28223e-09
2.65117e-09
2.65117e-09
2.18017e-09
1.75876e-09
1.41887e-09
1.14645e-09
9.27667e-10
7.57918e-10
6.34577e-10
6.34577e-10
5.4762e-10
4.67952e-10
3.91824e-10
3.34394e-10
2.6306e-10
2.41444e-10
1.58229e-10
2.10103e-10
1.18769e-10
1.18769e-10
3.11585e-10
4.16287e-10
6.96048e-10
)
;
    }
    procBoundary6to7
    {
        type            processor;
        value           nonuniform List<scalar> 
91
(
6.66106e-10
6.66106e-10
3.82667e-10
3.82667e-10
3.5997e-10
3.5997e-10
6.2467e-11
5.02221e-11
6.2467e-11
1.68717e-10
1.01854e-10
5.02221e-11
1.40182e-10
2.02814e-10
1.56294e-10
1.01854e-10
1.55988e-10
2.71445e-10
2.38803e-10
2.02814e-10
2.02336e-10
4.39587e-10
3.81192e-10
3.29256e-10
2.71445e-10
2.83491e-10
7.1225e-10
6.30975e-10
5.57305e-10
4.90854e-10
4.39587e-10
4.31153e-10
1.18166e-09
1.07961e-09
9.82851e-10
8.9152e-10
8.05797e-10
7.25793e-10
7.1225e-10
6.5164e-10
2.00834e-09
1.90273e-09
1.80103e-09
1.70237e-09
1.60663e-09
1.51364e-09
1.42272e-09
1.33326e-09
1.24535e-09
1.15961e-09
1.07636e-09
1.18166e-09
9.95651e-10
9.59424e-12
1.28687e-14
0
0
3.02045e-10
8.56639e-06
1.75805e-05
0.00290787
0.0312789
0.120901
0.257066
0.361507
0.357284
0.236157
0.0784062
0.000928073
0.0582838
0.185375
0.248583
0.184832
0.0722584
0.0118022
0.000495558
1.36441e-06
1.4512e-08
0
0
0
1.59202e-12
5.80903e-10
2.92102e-09
2.86323e-09
2.19619e-09
1.92489e-09
1.82248e-09
1.72493e-09
2.00834e-09
1.62293e-09
)
;
    }
}


// ************************************************************************* //
