/*--------------------------------*- C++ -*----------------------------------*\
| =========                 |                                                 |
| \\      /  F ield         | OpenFOAM: The Open Source CFD Toolbox           |
|  \\    /   O peration     | Version:  2506                                  |
|   \\  /    A nd           | Website:  www.openfoam.com                      |
|    \\/     M anipulation  |                                                 |
\*---------------------------------------------------------------------------*/
FoamFile
{
    version     2.0;
    format      ascii;
    arch        "LSB;label=32;scalar=64";
    class       volSymmTensorField;
    location    "200";
    object      turbulenceProperties:devReff;
}
// * * * * * * * * * * * * * * * * * * * * * * * * * * * * * * * * * * * * * //

dimensions      [0 2 -2 0 0 0 0];

internalField   nonuniform List<symmTensor> 
1340
(
(-2.50313 -7.42256 1.25276e-15 2.49166 1.15497e-15 0.0114704)
(-2.14439 -5.85918 -1.24344e-16 2.13084 -5.32172e-16 0.0135574)
(-1.64992 -4.3253 -1.57466e-15 1.64742 -2.31274e-17 0.00250077)
(-0.506204 -1.00217 -1.88082e-16 0.506951 -1.98366e-15 -0.000747136)
(-0.769366 -2.69476 3.40763e-15 0.790284 -4.96845e-15 -0.020918)
(-0.720412 -2.39209 -1.50365e-15 0.734171 1.51495e-15 -0.0137587)
(-0.559358 -2.11704 3.27543e-15 0.594142 4.09413e-16 -0.0347841)
(-0.766789 -2.21641 5.4277e-15 0.680944 7.33756e-15 0.0858445)
(-0.851122 -3.41202 -1.41119e-14 0.853695 5.44417e-16 -0.00257216)
(-0.775212 -2.95941 4.88507e-15 0.774396 -1.62119e-15 0.00081583)
(-0.521054 -2.48769 5.08181e-15 0.536133 -1.5297e-15 -0.0150791)
(-0.8156 -2.74043 -1.00983e-14 0.797985 2.90786e-15 0.017615)
(-0.748037 -3.45606 4.64188e-15 0.745202 4.73436e-15 0.00283476)
(-0.765644 -3.268 -9.88286e-15 0.761015 -1.30085e-16 0.00462904)
(-0.556913 -2.90657 -1.27569e-14 0.566516 1.84564e-15 -0.00960365)
(-0.783283 -3.09877 9.12801e-15 0.755471 -3.42951e-15 0.0278119)
(-0.345646 -2.11786 -9.14734e-16 0.346645 4.10546e-16 -0.000998661)
(-0.534384 -2.72742 -1.62419e-15 0.530874 3.84459e-15 0.00351009)
(-0.497377 -2.91379 6.73587e-16 0.507289 2.49157e-16 -0.00991219)
(-0.737584 -3.24729 -1.68695e-14 0.701241 4.25698e-15 0.0363425)
(0.000916107 -0.405294 2.42575e-15 0.000396656 -1.45437e-15 -0.00131276)
(-0.157967 -1.28738 9.28916e-15 0.157427 -1.48987e-15 0.000539889)
(-0.292628 -2.2391 5.05734e-16 0.302201 -8.76132e-17 -0.00957287)
(-0.629816 -3.05326 3.51235e-15 0.595179 -3.374e-15 0.0346369)
(0.0229596 0.0250414 -9.27042e-16 -0.0229402 2.3712e-16 -1.93703e-05)
(0.037663 -0.159698 -1.10259e-15 -0.038325 -6.92747e-16 0.000662011)
(-0.0414249 -1.04575 1.06704e-15 0.0480761 -2.47551e-16 -0.0066512)
(-0.421651 -2.37003 2.94567e-15 0.39327 -8.64862e-16 0.0283808)
(0.00606849 0.00949516 2.43257e-16 -0.00605625 7.18466e-18 -1.22379e-05)
(0.0162544 0.0175544 -2.80147e-16 -0.0164601 9.6954e-17 0.000205647)
(0.0621991 -0.188649 -1.55437e-15 -0.0596678 2.93686e-16 -0.00253136)
(-0.17219 -1.34087 8.94611e-15 0.150933 -4.94718e-16 0.0212567)
(1.11261e-05 5.88159e-06 -2.22006e-19 -1.10803e-05 -9.69507e-20 -4.58632e-08)
(0.00399249 0.00476022 6.21035e-17 -0.00404639 -5.15094e-18 5.38942e-05)
(0.0300601 0.00908355 1.3577e-15 -0.0293831 -1.663e-16 -0.000676951)
(-0.00899172 -0.48956 -3.96979e-15 -0.00505737 1.33237e-15 0.0140491)
(9.11779e-06 -3.69076e-06 1.04437e-19 -9.06887e-06 5.24663e-20 -4.89178e-08)
(8.89122e-06 1.12093e-06 -1.76084e-19 -9.04787e-06 2.59418e-20 1.56652e-07)
(0.00827472 0.00578262 -1.2791e-16 -0.0080584 5.09093e-18 -0.000216315)
(0.032089 -0.112929 -2.86359e-15 -0.0394493 1.12951e-16 0.00736032)
(8.95958e-06 -3.53832e-06 7.06759e-20 -8.90873e-06 -1.04252e-20 -5.0847e-08)
(7.543e-06 -5.74875e-06 2.3824e-19 -7.66859e-06 1.70187e-20 1.25591e-07)
(0.000565992 0.000127682 -3.97169e-18 -0.000548286 8.03654e-19 -1.77058e-05)
(0.0211254 -0.0231118 4.53837e-16 -0.0241321 -2.1063e-16 0.00300671)
(9.07522e-06 -1.41149e-06 8.22819e-20 -9.03395e-06 -8.51078e-20 -4.12735e-08)
(7.78871e-06 -5.45293e-06 1.48536e-19 -7.89568e-06 -4.68081e-20 1.06968e-07)
(0.0001835 -7.88829e-05 1.00993e-18 -0.000177346 -1.8095e-19 -6.1538e-06)
(0.00814808 -0.00757379 4.69534e-16 -0.0091742 -1.26958e-17 0.00102612)
(1.18601e-05 -6.35273e-07 -4.55207e-19 -1.1814e-05 1.27617e-19 -4.61007e-08)
(8.13006e-06 -3.48546e-06 -1.00818e-20 -8.23511e-06 -4.4316e-20 1.05052e-07)
(3.69676e-05 -2.53981e-05 -9.53012e-19 -3.5797e-05 7.46719e-20 -1.17062e-06)
(0.00230421 -0.00279932 -1.63914e-16 -0.00259107 1.62724e-17 0.000286856)
(1.78106e-05 -9.28877e-07 9.65838e-19 -1.77451e-05 -7.92123e-20 -6.54518e-08)
(8.1322e-06 -2.43501e-06 -2.50335e-19 -8.23334e-06 4.00294e-20 1.01132e-07)
(7.61002e-06 -4.7784e-06 -7.9578e-20 -7.39874e-06 2.3016e-20 -2.11281e-07)
(0.000477067 -0.000693493 4.33931e-17 -0.000534293 -4.11766e-18 5.72252e-05)
(1.58354e-05 -1.09945e-06 -6.91704e-19 -1.57806e-05 -7.27608e-20 -5.47995e-08)
(1.11285e-05 -3.16467e-06 1.79136e-19 -1.12576e-05 1.72395e-20 1.29089e-07)
(7.249e-06 -3.89231e-06 3.37221e-19 -7.07502e-06 -3.93829e-20 -1.73977e-07)
(9.96266e-05 -0.000149844 -1.07939e-17 -0.000110592 1.21008e-18 1.09653e-05)
(1.32616e-05 -9.92347e-07 7.00958e-20 -1.32201e-05 9.6627e-20 -4.15638e-08)
(1.5575e-05 -4.71516e-06 -3.12147e-20 -1.57399e-05 -2.8135e-20 1.64935e-07)
(6.98963e-06 -3.53889e-06 -3.49365e-19 -6.84277e-06 1.96335e-20 -1.4686e-07)
(5.45771e-06 -7.90366e-06 1.68587e-19 -5.9934e-06 -3.51079e-20 5.35684e-07)
(1.22192e-05 -8.63383e-07 1.09771e-19 -1.21848e-05 -8.43289e-21 -3.44122e-08)
(1.54742e-05 -4.85062e-06 -9.2044e-20 -1.56231e-05 3.13688e-21 1.48849e-07)
(6.74028e-06 -3.49161e-06 2.06428e-20 -6.61695e-06 1.64154e-20 -1.23324e-07)
(5.16414e-06 -7.14386e-06 -1.21911e-19 -5.61185e-06 9.28016e-21 4.47706e-07)
(1.19817e-05 -7.66396e-07 3.55937e-20 -1.19519e-05 -5.10217e-20 -2.98337e-08)
(1.30738e-05 -4.07523e-06 -6.83708e-20 -1.3187e-05 2.70386e-20 1.13183e-07)
(8.45139e-06 -4.55645e-06 3.58443e-19 -8.31659e-06 -1.84761e-20 -1.34801e-07)
(4.87442e-06 -6.53938e-06 1.58333e-19 -5.24624e-06 -1.89332e-20 3.71813e-07)
(1.18846e-05 -6.81181e-07 -2.91568e-19 -1.18588e-05 1.76779e-20 -2.58159e-08)
(1.13348e-05 -3.44597e-06 1.57245e-19 -1.14224e-05 -8.60986e-21 8.76089e-08)
(1.07182e-05 -5.93213e-06 2.93748e-19 -1.05716e-05 -3.40481e-20 -1.4658e-07)
(4.71888e-06 -6.20905e-06 4.21305e-19 -5.03446e-06 -1.86317e-20 3.15586e-07)
(1.16433e-05 -5.88725e-07 3.08635e-20 -1.16216e-05 3.08015e-20 -2.16127e-08)
(1.05067e-05 -3.10044e-06 -3.66781e-20 -1.05791e-05 -1.8556e-20 7.23934e-08)
(1.05348e-05 -5.89179e-06 -9.44278e-20 -1.04143e-05 -1.83692e-20 -1.2051e-07)
(5.39461e-06 -6.97482e-06 -3.86725e-20 -5.70822e-06 1.27791e-20 3.13608e-07)
(1.1251e-05 -4.84034e-07 -9.6953e-21 -1.12331e-05 -1.91423e-20 -1.78128e-08)
(1.01113e-05 -2.89116e-06 -1.33347e-19 -1.01724e-05 2.07815e-20 6.11667e-08)
(9.4993e-06 -5.31101e-06 -4.46075e-19 -9.40957e-06 3.14838e-20 -8.97251e-08)
(6.1693e-06 -7.80705e-06 -2.67698e-19 -6.47861e-06 1.18876e-20 3.09312e-07)
(1.07895e-05 -3.71693e-07 -1.4808e-19 -1.07754e-05 3.59634e-20 -1.40337e-08)
(9.80969e-06 -2.70883e-06 1.39997e-19 -9.86108e-06 -7.53216e-21 5.13882e-08)
(8.65785e-06 -4.80721e-06 1.15038e-19 -8.59117e-06 4.02171e-21 -6.66813e-08)
(6.25987e-06 -7.71878e-06 -1.5536e-19 -6.52729e-06 4.17039e-21 2.67424e-07)
(1.0315e-05 -2.55679e-07 2.93827e-19 -1.03042e-05 -2.11301e-21 -1.07466e-08)
(9.46866e-06 -2.51134e-06 -1.41813e-19 -9.51155e-06 2.91187e-21 4.28905e-08)
(8.0987e-06 -4.44025e-06 -9.59928e-20 -8.04956e-06 4.43993e-21 -4.91385e-08)
(5.97459e-06 -7.14262e-06 3.37713e-19 -6.1907e-06 -1.22816e-20 2.16113e-07)
(9.84508e-06 -1.38099e-07 -4.19796e-20 -9.83686e-06 -2.98567e-20 -8.22289e-09)
(9.07557e-06 -2.29712e-06 7.46555e-20 -9.11063e-06 -6.58558e-21 3.5058e-08)
(7.68645e-06 -4.13858e-06 1.33117e-19 -7.6508e-06 -9.95195e-21 -3.56525e-08)
(5.6292e-06 -6.50056e-06 -2.17843e-19 -5.80002e-06 9.1682e-21 1.70827e-07)
(9.37973e-06 -2.05861e-08 -4.68505e-20 -9.37405e-06 -1.63065e-21 -5.67724e-09)
(8.65598e-06 -2.07409e-06 -1.91916e-19 -8.68411e-06 8.09007e-21 2.81369e-08)
(7.32383e-06 -3.84845e-06 -2.21257e-19 -7.29885e-06 1.39504e-20 -2.49758e-08)
(5.32403e-06 -5.91417e-06 2.45836e-19 -5.45811e-06 -6.64266e-21 1.34085e-07)
(8.91455e-06 9.54596e-08 -8.9222e-20 -8.91079e-06 1.27998e-20 -3.76031e-09)
(8.22945e-06 -1.85062e-06 1.00323e-19 -8.25143e-06 2.32802e-20 2.1981e-08)
(6.97133e-06 -3.55277e-06 3.34998e-19 -6.95447e-06 -1.90745e-22 -1.68666e-08)
(5.06013e-06 -5.38683e-06 -2.40459e-19 -5.16385e-06 5.36167e-21 1.0372e-07)
(8.44881e-06 2.09995e-07 9.35575e-20 -8.4465e-06 9.17354e-21 -2.31407e-09)
(7.80553e-06 -1.62954e-06 2.82943e-19 -7.82269e-06 -1.98463e-20 1.71643e-08)
(6.62303e-06 -3.25071e-06 2.07359e-20 -6.61252e-06 -8.21948e-21 -1.05075e-08)
(4.82298e-06 -4.90028e-06 1.29868e-19 -4.90222e-06 -3.03594e-21 7.92383e-08)
(7.98357e-06 3.20024e-07 7.70425e-20 -7.98284e-06 -1.59315e-20 -7.37546e-10)
(7.38583e-06 -1.41418e-06 -1.63858e-19 -7.39917e-06 -1.73098e-20 1.33409e-08)
(6.28056e-06 -2.94871e-06 4.0013e-20 -6.27516e-06 -7.73306e-21 -5.39944e-09)
(4.60251e-06 -4.44484e-06 -2.45928e-19 -4.66279e-06 2.87199e-21 6.02754e-08)
(7.52032e-06 4.25877e-07 -1.37636e-19 -7.52031e-06 6.27432e-21 -8.43887e-12)
(6.97111e-06 -1.20376e-06 -1.09979e-19 -6.98095e-06 1.5289e-20 9.8489e-09)
(5.94574e-06 -2.65002e-06 -2.13729e-19 -5.94371e-06 4.39124e-21 -2.03664e-09)
(4.3933e-06 -4.01601e-06 1.59217e-19 -4.43856e-06 -3.97005e-21 4.52587e-08)
(7.0618e-06 5.25554e-07 1.53668e-19 -7.06234e-06 -2.73399e-21 5.40812e-10)
(6.5623e-06 -1.00189e-06 1.21906e-19 -6.56953e-06 -3.79214e-21 7.23654e-09)
(5.61936e-06 -2.35895e-06 1.03843e-19 -5.61996e-06 -1.95214e-21 6.01906e-10)
(4.19354e-06 -3.612e-06 -3.56136e-19 -4.22766e-06 5.9539e-21 3.41174e-08)
(6.61019e-06 6.17519e-07 -1.82651e-19 -6.61147e-06 -4.66877e-21 1.27487e-09)
(6.16094e-06 -8.08373e-07 -1.83933e-19 -6.16611e-06 -7.01407e-22 5.16672e-09)
(5.30085e-06 -2.07735e-06 -2.69204e-19 -5.30279e-06 3.59409e-22 1.93362e-09)
(4.00071e-06 -3.23246e-06 5.67125e-19 -4.02606e-06 4.9277e-21 2.53567e-08)
(6.16698e-06 7.01065e-07 9.05971e-20 -6.1685e-06 1.34422e-20 1.51432e-09)
(5.76818e-06 -6.2592e-07 1.24734e-19 -5.77203e-06 1.5187e-21 3.84687e-09)
(4.99091e-06 -1.80762e-06 1.57623e-19 -4.99405e-06 1.18584e-20 3.13851e-09)
(3.81368e-06 -2.87571e-06 -2.27542e-19 -3.83223e-06 -8.79478e-21 1.85485e-08)
(5.7345e-06 7.75567e-07 4.76332e-20 -5.7362e-06 -7.37709e-21 1.6938e-09)
(5.38487e-06 -4.54899e-07 -1.69217e-19 -5.38734e-06 -5.43218e-21 2.4711e-09)
(4.68871e-06 -1.55205e-06 6.23129e-20 -4.69243e-06 -1.22777e-20 3.71653e-09)
(3.63103e-06 -2.54204e-06 9.53052e-20 -3.64461e-06 4.2612e-21 1.3575e-08)
(5.35402e-06 1.96076e-06 -1.85566e-19 -5.35554e-06 9.37065e-21 1.52363e-09)
(5.31447e-06 8.40071e-07 -7.57356e-20 -5.31632e-06 -8.65299e-21 1.84368e-09)
(5.01275e-06 -2.96229e-07 5.4284e-20 -5.01434e-06 1.57088e-20 1.58656e-09)
(4.3946e-06 -1.31136e-06 -2.5791e-19 -4.39835e-06 -1.20698e-21 3.74848e-09)
(3.45146e-06 -2.23072e-06 -6.54208e-20 -3.46098e-06 4.92494e-22 9.52296e-09)
(4.92245e-06 1.9237e-06 2.08e-19 -4.92392e-06 1.39355e-20 1.47268e-09)
(4.90851e-06 8.94328e-07 -8.37514e-20 -4.91024e-06 5.18472e-21 1.72952e-09)
(4.65271e-06 -1.5115e-07 2.17717e-19 -4.65378e-06 6.21017e-22 1.07011e-09)
(4.10919e-06 -1.08709e-06 1.72837e-19 -4.11298e-06 1.15486e-20 3.78728e-09)
(3.27448e-06 -1.94119e-06 1.97446e-19 -3.28088e-06 5.88311e-21 6.3996e-09)
(4.50929e-06 1.87845e-06 -5.18081e-20 -4.51061e-06 -1.06614e-20 1.32768e-09)
(4.51832e-06 9.37888e-07 9.75337e-20 -4.52005e-06 6.0647e-21 1.72854e-09)
(4.30559e-06 -1.99144e-08 -5.8745e-20 -4.30622e-06 -1.36865e-20 6.32783e-10)
(3.83256e-06 -8.80102e-07 -4.81152e-21 -3.83627e-06 -7.48011e-21 3.70855e-09)
(3.09969e-06 -1.67333e-06 -7.93665e-20 -3.10369e-06 -9.78275e-21 4.00296e-09)
(4.11611e-06 1.82573e-06 3.02023e-20 -4.11728e-06 -4.31197e-22 1.17065e-09)
(4.14501e-06 9.70887e-07 -1.35672e-20 -4.14669e-06 -3.19643e-21 1.67861e-09)
(3.97231e-06 9.71451e-08 -1.445e-19 -3.97259e-06 1.92499e-21 2.85352e-10)
(3.56507e-06 -6.90776e-07 -9.21277e-20 -3.56857e-06 -6.44206e-21 3.50429e-09)
(2.92684e-06 -1.4268e-06 -2.09873e-19 -2.92887e-06 -4.78778e-21 2.03169e-09)
(3.74409e-06 1.76635e-06 -9.67226e-20 -3.74521e-06 -7.76128e-22 1.11461e-09)
(3.78975e-06 9.93713e-07 1.96661e-20 -3.7913e-06 -8.23179e-22 1.55416e-09)
(3.65366e-06 2.00017e-07 1.43511e-19 -3.65372e-06 6.29385e-21 5.95733e-11)
(3.3071e-06 -5.19263e-07 -1.20605e-19 -3.31035e-06 -3.21916e-21 3.24679e-09)
(2.7561e-06 -1.20105e-06 7.35706e-20 -2.75658e-06 5.91143e-21 4.80974e-10)
(3.39403e-06 1.70112e-06 1.43656e-19 -3.39507e-06 1.37587e-20 1.03426e-09)
(3.45344e-06 1.00638e-06 -3.61723e-20 -3.45491e-06 1.66744e-21 1.46484e-09)
(3.35032e-06 2.8868e-07 -1.41268e-19 -3.35028e-06 -7.73311e-21 -3.77283e-11)
(3.05918e-06 -3.65509e-07 -2.81866e-20 -3.06222e-06 7.24417e-21 3.04212e-09)
(2.58772e-06 -9.95745e-07 -1.876e-20 -2.58691e-06 -8.28639e-22 -8.04325e-10)
(3.06648e-06 1.63114e-06 7.10542e-20 -3.06739e-06 -3.20926e-21 9.15005e-10)
(3.13668e-06 1.00963e-06 9.73686e-20 -3.13803e-06 6.56644e-21 1.34767e-09)
(3.06267e-06 3.63447e-07 1.12721e-19 -3.06252e-06 7.8696e-21 -1.52263e-10)
(2.82158e-06 -2.29344e-07 2.64798e-19 -2.82444e-06 1.07022e-20 2.85284e-09)
(2.42217e-06 -8.10163e-07 9.01561e-20 -2.42035e-06 6.42121e-21 -1.81758e-09)
(2.76166e-06 1.55745e-06 -5.73094e-20 -2.76248e-06 -7.83158e-21 8.18267e-10)
(2.83986e-06 1.00422e-06 5.59821e-21 -2.84113e-06 -6.29411e-21 1.26825e-09)
(2.7912e-06 4.25021e-07 -5.73065e-20 -2.79097e-06 -6.18609e-21 -2.33241e-10)
(2.59472e-06 -1.1022e-07 -1.07933e-19 -2.59737e-06 -1.38594e-20 2.64691e-09)
(2.25985e-06 -6.44002e-07 6.29079e-20 -2.25719e-06 1.6192e-21 -2.66535e-09)
(2.47944e-06 1.48112e-06 -7.68917e-20 -2.48017e-06 -2.33737e-21 7.35949e-10)
(2.56311e-06 9.91052e-07 -1.43716e-19 -2.56428e-06 -7.32268e-21 1.1729e-09)
(2.5361e-06 4.7405e-07 -2.14675e-20 -2.53585e-06 2.12553e-21 -2.52846e-10)
(2.37896e-06 -7.3448e-09 -8.84226e-20 -2.38145e-06 -2.90226e-21 2.49643e-09)
(2.10149e-06 -4.95998e-07 -2.66581e-21 -2.09816e-06 -4.14433e-21 -3.32775e-09)
(2.21943e-06 1.40311e-06 8.86351e-21 -2.22009e-06 5.67397e-21 6.57785e-10)
(2.30632e-06 9.70978e-07 7.08951e-20 -2.30738e-06 7.01929e-21 1.06093e-09)
(2.2974e-06 5.11604e-07 9.17667e-20 -2.29711e-06 4.80691e-21 -2.89373e-10)
(2.17451e-06 8.02329e-08 -1.1131e-20 -2.17683e-06 3.168e-21 2.32197e-09)
(1.94759e-06 -3.65675e-07 -1.54032e-19 -1.94376e-06 -6.68533e-21 -3.82744e-09)
(1.9811e-06 1.32424e-06 1.25016e-19 -1.98167e-06 9.51289e-21 5.75632e-10)
(2.06924e-06 9.44948e-07 -5.36219e-20 -2.07019e-06 -6.942e-21 9.50925e-10)
(2.07504e-06 5.38472e-07 -7.47418e-20 -2.07474e-06 -7.76843e-21 -3.03512e-10)
(1.98163e-06 1.53474e-07 7.4697e-20 -1.98384e-06 3.06524e-21 2.20638e-09)
(1.79878e-06 -2.51685e-07 1.55326e-19 -1.79452e-06 1.24986e-20 -4.25933e-09)
(1.76364e-06 1.24535e-06 -2.3351e-21 -1.76414e-06 -2.65253e-21 5.00669e-10)
(1.85137e-06 9.13805e-07 -9.04241e-20 -1.85226e-06 -4.92414e-21 8.96452e-10)
(1.86888e-06 5.55684e-07 -2.06592e-20 -1.86856e-06 -2.01604e-21 -3.19047e-10)
(1.80042e-06 2.13473e-07 -6.55498e-20 -1.80252e-06 -4.521e-21 2.10339e-09)
(1.65565e-06 -1.53148e-07 -7.17517e-21 -1.65109e-06 -5.48211e-21 -4.55869e-09)
(1.42952e-06 1.42705e-06 -5.68145e-22 -1.43004e-06 -6.15815e-22 5.24517e-10)
(1.5661e-06 1.16734e-06 1.8467e-20 -1.56653e-06 1.07461e-21 4.24771e-10)
(1.65199e-06 8.78666e-07 2.7027e-20 -1.65279e-06 3.83031e-21 8.00628e-10)
(1.67852e-06 5.64334e-07 -1.04754e-19 -1.67819e-06 -5.09629e-21 -3.35129e-10)
(1.63089e-06 2.6135e-07 9.03551e-20 -1.63288e-06 7.39867e-21 1.98611e-09)
(1.5187e-06 -6.8997e-08 -1.5105e-19 -1.51395e-06 -8.47961e-21 -4.75688e-09)
(1.26185e-06 1.31501e-06 -1.78812e-20 -1.26231e-06 -1.45959e-21 4.57778e-10)
(1.38739e-06 1.09086e-06 -2.56034e-20 -1.38776e-06 -3.37007e-21 3.69664e-10)
(1.47037e-06 8.40466e-07 -2.8413e-20 -1.47109e-06 -3.46301e-21 7.12658e-10)
(1.5035e-06 5.65629e-07 1.35319e-19 -1.50316e-06 1.32973e-20 -3.37228e-10)
(1.47302e-06 2.98344e-07 -1.03058e-20 -1.4749e-06 -3.85693e-21 1.88021e-09)
(1.38837e-06 1.92423e-09 1.30216e-19 -1.38349e-06 1.1154e-20 -4.87629e-09)
(1.11159e-06 1.20929e-06 1.78501e-20 -1.11198e-06 3.16432e-21 3.90736e-10)
(1.22634e-06 1.01644e-06 -4.62041e-20 -1.22665e-06 -3.06303e-21 3.08252e-10)
(1.30558e-06 8.00001e-07 1.36188e-21 -1.30624e-06 1.43974e-21 6.64869e-10)
(1.34326e-06 5.60587e-07 5.97382e-20 -1.34291e-06 1.42506e-21 -3.42679e-10)
(1.32663e-06 3.25711e-07 -9.47684e-20 -1.32843e-06 -5.04669e-21 1.79385e-09)
(1.26498e-06 6.08642e-08 -5.59305e-20 -1.26005e-06 -5.52699e-21 -4.92772e-09)
(9.77398e-07 1.10997e-06 6.33679e-20 -9.77738e-07 4.28539e-21 3.39431e-10)
(1.08176e-06 9.44559e-07 3.29132e-20 -1.08202e-06 3.46068e-21 2.5571e-10)
(1.15661e-06 7.58123e-07 7.20518e-20 -1.15721e-06 5.28301e-21 5.91752e-10)
(1.19712e-06 5.50249e-07 -7.96338e-20 -1.19676e-06 -6.15961e-21 -3.56541e-10)
(1.19145e-06 3.44616e-07 1.36929e-19 -1.19315e-06 1.21569e-20 1.70688e-09)
(1.14879e-06 1.08977e-07 6.06442e-20 -1.14386e-06 5.51672e-21 -4.93241e-09)
(8.5793e-07 1.01709e-06 -7.35883e-20 -8.58219e-07 -7.59211e-21 2.89437e-10)
(9.52405e-07 8.75565e-07 -1.23424e-20 -9.5262e-07 -2.10073e-21 2.15683e-10)
(1.0225e-06 7.15417e-07 -8.50012e-20 -1.02303e-06 -9.23032e-21 5.39218e-10)
(1.06437e-06 5.35564e-07 9.74774e-20 -1.06402e-06 9.3493e-21 -3.54525e-10)
(1.06716e-06 3.56195e-07 9.02517e-21 -1.06876e-06 -1.35053e-21 1.60871e-09)
(1.03997e-06 1.47398e-07 -3.41049e-20 -1.0351e-06 -4.80178e-21 -4.86875e-09)
(7.51867e-07 9.3062e-07 2.96685e-20 -7.52109e-07 3.99456e-21 2.41436e-10)
(8.37027e-07 8.09826e-07 -3.07366e-20 -8.37192e-07 -2.41193e-21 1.6455e-10)
(9.02117e-07 6.72629e-07 -1.58231e-20 -9.02594e-07 2.41541e-22 4.77652e-10)
(9.44231e-07 5.17438e-07 -1.04848e-20 -9.43871e-07 -2.31285e-21 -3.60313e-10)
(9.53363e-07 3.61469e-07 -3.62847e-20 -9.54888e-07 -2.70133e-21 1.52554e-09)
(9.3856e-07 1.77219e-07 -1.07826e-19 -9.33801e-07 -8.00021e-21 -4.7592e-09)
(6.57926e-07 8.5039e-07 -6.93298e-21 -6.58133e-07 8.53482e-22 2.07192e-10)
(7.34409e-07 7.47493e-07 8.23829e-21 -7.34551e-07 1.17156e-21 1.41404e-10)
(7.94435e-07 6.3025e-07 2.8792e-20 -7.94873e-07 2.92954e-21 4.38396e-10)
(8.35887e-07 4.96717e-07 -8.07891e-21 -8.35528e-07 -1.18046e-21 -3.59123e-10)
(8.49586e-07 3.61533e-07 2.41001e-20 -8.51029e-07 1.31318e-21 1.44278e-09)
(8.44527e-07 1.99557e-07 8.69993e-20 -8.39901e-07 8.87725e-21 -4.62609e-09)
(5.74924e-07 7.76205e-07 1.40909e-19 -5.75097e-07 1.38708e-20 1.72282e-10)
(6.43364e-07 6.88729e-07 8.23817e-21 -6.43469e-07 1.25699e-21 1.04812e-10)
(6.9837e-07 5.88749e-07 5.52861e-21 -6.98753e-07 1.34836e-23 3.82568e-10)
(7.38474e-07 4.74134e-07 -5.15569e-20 -7.3812e-07 -3.39963e-21 -3.53978e-10)
(7.55304e-07 3.57313e-07 -8.71416e-20 -7.56661e-07 -7.75262e-21 1.35645e-09)
(7.57749e-07 2.15438e-07 -1.54101e-20 -7.53289e-07 -1.87927e-21 -4.46039e-09)
(5.01755e-07 7.07788e-07 -4.43653e-20 -5.01901e-07 -5.8308e-21 1.45369e-10)
(5.62816e-07 6.3352e-07 1.89284e-20 -5.62898e-07 1.56298e-21 8.23157e-11)
(6.12929e-07 5.48437e-07 -2.1237e-20 -6.13281e-07 -2.81513e-21 3.52065e-10)
(6.51183e-07 4.5031e-07 1.01634e-19 -6.5083e-07 9.53861e-21 -3.52454e-10)
(6.69952e-07 3.49638e-07 7.1482e-20 -6.7123e-07 7.60893e-21 1.27821e-09)
(6.78033e-07 2.25794e-07 7.6461e-20 -6.73761e-07 6.27394e-21 -4.27155e-09)
(3.76738e-07 6.97858e-07 3.50392e-20 -3.76822e-07 3.33035e-21 8.36556e-11)
(4.37373e-07 6.44854e-07 5.43407e-20 -4.37497e-07 6.66891e-21 1.23936e-10)
(4.91691e-07 5.819e-07 -1.71797e-20 -4.91748e-07 -2.19834e-21 5.71379e-11)
(5.37101e-07 5.09625e-07 -3.94662e-20 -5.37412e-07 -3.64869e-21 3.11053e-10)
(5.73185e-07 4.25763e-07 -6.75368e-20 -5.72836e-07 -7.43079e-21 -3.48566e-10)
(5.9296e-07 3.39238e-07 -2.11388e-20 -5.94161e-07 -2.24377e-21 1.20018e-09)
(6.05121e-07 2.31507e-07 -1.30305e-19 -6.01051e-07 -1.34223e-20 -4.07004e-09)
(3.27527e-07 6.31969e-07 -5.20235e-20 -3.27594e-07 -5.75913e-21 6.67655e-11)
(3.80796e-07 5.87107e-07 3.91768e-20 -3.809e-07 2.92626e-21 1.03664e-10)
(4.29004e-07 5.33795e-07 -4.6529e-20 -4.29048e-07 -4.67786e-21 4.44347e-11)
(4.69987e-07 4.72477e-07 -1.05097e-20 -4.70265e-07 -2.19731e-23 2.78579e-10)
(5.03675e-07 4.00954e-07 2.26991e-20 -5.03339e-07 1.93974e-21 -3.36161e-10)
(5.23742e-07 3.26753e-07 4.71274e-20 -5.24866e-07 5.29023e-21 1.12389e-09)
(5.38711e-07 2.33336e-07 -1.78909e-20 -5.34857e-07 5.062e-23 -3.8548e-09)
(2.84427e-07 5.72188e-07 3.84273e-20 -2.84484e-07 5.35259e-21 5.64288e-11)
(3.31179e-07 5.34242e-07 -7.39436e-20 -3.31267e-07 -8.18345e-21 8.80009e-11)
(3.73851e-07 4.89142e-07 -6.34762e-21 -3.73884e-07 -5.60831e-22 3.32538e-11)
(4.10693e-07 4.3717e-07 9.74121e-20 -4.10936e-07 9.58236e-21 2.42751e-10)
(4.41878e-07 3.7627e-07 -9.67082e-20 -4.41552e-07 -9.89512e-21 -3.26199e-10)
(4.61692e-07 3.1277e-07 4.61084e-20 -4.62737e-07 4.58125e-21 1.04523e-09)
(4.78455e-07 2.31992e-07 5.72168e-20 -4.74818e-07 4.78351e-21 -3.6372e-09)
(2.46709e-07 5.18063e-07 6.23483e-20 -2.46753e-07 6.78713e-21 4.45819e-11)
(2.87692e-07 4.85971e-07 5.7302e-22 -2.87764e-07 6.90756e-22 7.17543e-11)
(3.25398e-07 4.47831e-07 7.47756e-21 -3.2542e-07 1.06109e-21 2.20245e-11)
(3.58395e-07 4.03822e-07 -1.14512e-19 -3.58609e-07 -1.25625e-20 2.14019e-10)
(3.87062e-07 3.52019e-07 -3.42817e-21 -3.86748e-07 -3.86299e-22 -3.13491e-10)
(4.06232e-07 2.97762e-07 8.05751e-20 -4.07211e-07 8.66553e-21 9.79123e-10)
(4.23985e-07 2.28097e-07 -1.59481e-19 -4.20572e-07 -1.67065e-20 -3.41284e-09)
(2.13721e-07 4.69113e-07 1.55375e-20 -2.13757e-07 1.37919e-21 3.58011e-11)
(2.49608e-07 4.4198e-07 -2.10307e-20 -2.49672e-07 -1.95631e-21 6.3884e-11)
(2.82882e-07 4.09732e-07 -1.17915e-20 -2.82895e-07 -1.50988e-21 1.29213e-11)
(3.12333e-07 3.72492e-07 3.17717e-20 -3.12529e-07 4.55684e-21 1.96294e-10)
(3.38534e-07 3.28476e-07 -5.7071e-20 -3.38234e-07 -6.11333e-21 -2.99853e-10)
(3.56775e-07 2.8219e-07 6.29186e-20 -3.57684e-07 6.30989e-21 9.09329e-10)
(3.749e-07 2.22241e-07 -2.7815e-20 -3.71705e-07 -2.06726e-21 -3.19415e-09)
(1.84893e-07 4.24836e-07 8.47288e-21 -1.84918e-07 5.14917e-22 2.55837e-11)
(2.16287e-07 4.0191e-07 4.54272e-20 -2.1634e-07 5.23974e-21 5.30573e-11)
(2.45601e-07 3.74664e-07 -4.13194e-21 -2.45604e-07 -2.55671e-22 2.56109e-12)
(2.71809e-07 3.43182e-07 2.68404e-20 -2.71982e-07 1.92481e-21 1.73296e-10)
(2.95631e-07 3.05815e-07 -7.73815e-21 -2.95341e-07 -9.95828e-22 -2.89226e-10)
(3.12767e-07 2.66381e-07 6.27227e-20 -3.13613e-07 6.59391e-21 8.46149e-10)
(3.30799e-07 2.14906e-07 -6.83671e-20 -3.27821e-07 -6.87904e-21 -2.97832e-09)
(1.5974e-07 3.84692e-07 -2.97007e-20 -1.59762e-07 -3.76164e-21 2.18258e-11)
(1.87182e-07 3.65335e-07 1.68945e-20 -1.87227e-07 1.63054e-21 4.53086e-11)
(2.12959e-07 3.42348e-07 2.15663e-20 -2.1296e-07 2.40618e-21 9.96503e-13)
(2.36226e-07 3.15765e-07 -1.07538e-19 -2.36383e-07 -1.17092e-20 1.56642e-10)
(2.5777e-07 2.84101e-07 -7.55267e-20 -2.57501e-07 -8.44111e-21 -2.69271e-10)
(2.73695e-07 2.50566e-07 5.07744e-20 -2.7448e-07 4.92789e-21 7.84365e-10)
(2.91285e-07 2.06479e-07 -6.42279e-21 -2.88519e-07 -5.55747e-22 -2.76643e-09)
(1.12628e-07 3.61602e-07 3.16353e-21 -1.12647e-07 6.54546e-22 1.83085e-11)
(1.3784e-07 3.48131e-07 -3.57432e-20 -1.37854e-07 -3.64169e-21 1.40117e-11)
(1.61791e-07 3.31819e-07 2.47721e-20 -1.6183e-07 2.39636e-21 3.88399e-11)
(1.8443e-07 3.12457e-07 -3.8146e-20 -1.84423e-07 -4.65649e-21 -7.23609e-12)
(2.05026e-07 2.90058e-07 2.67368e-21 -2.05162e-07 7.63942e-22 1.36411e-10)
(2.24425e-07 2.63282e-07 -1.46821e-20 -2.24166e-07 -8.46459e-22 -2.58499e-10)
(2.39083e-07 2.34829e-07 9.63004e-21 -2.39807e-07 5.40508e-22 7.24309e-10)
(2.55977e-07 1.9719e-07 -3.22604e-20 -2.53415e-07 -2.96581e-21 -2.56211e-09)
(9.68769e-08 3.26145e-07 2.17972e-20 -9.68994e-08 2.54667e-21 2.25202e-11)
(1.18828e-07 3.1476e-07 5.87576e-20 -1.18847e-07 6.96453e-21 1.90084e-11)
(1.39731e-07 3.01017e-07 -5.05965e-20 -1.39771e-07 -5.7237e-21 3.99242e-11)
(1.5958e-07 2.84715e-07 -5.45526e-20 -1.59576e-07 -5.62967e-21 -4.57454e-12)
(1.77761e-07 2.65859e-07 -1.93035e-20 -1.77889e-07 -2.54083e-21 1.28024e-10)
(1.95154e-07 2.43258e-07 5.75111e-20 -1.94917e-07 6.47475e-21 -2.36687e-10)
(2.08531e-07 2.19178e-07 -4.38588e-20 -2.09202e-07 -5.02674e-21 6.71592e-10)
(2.24533e-07 1.87165e-07 7.80407e-20 -2.22175e-07 8.57974e-21 -2.35783e-09)
(8.3154e-08 2.94081e-07 1.93643e-20 -8.31608e-08 2.38852e-21 6.77098e-12)
(1.02276e-07 2.84431e-07 -2.69714e-20 -1.02279e-07 -3.47311e-21 2.84459e-12)
(1.20518e-07 2.72814e-07 -3.21235e-21 -1.2054e-07 -2.46987e-22 2.19832e-11)
(1.37913e-07 2.59058e-07 6.67158e-20 -1.37894e-07 8.09266e-21 -1.82656e-11)
(1.53947e-07 2.43163e-07 -3.95407e-20 -1.5405e-07 -4.89963e-21 1.03091e-10)
(1.69489e-07 2.24081e-07 -1.35699e-20 -1.69261e-07 -1.28693e-21 -2.279e-10)
(1.81633e-07 2.037e-07 -4.19455e-20 -1.82237e-07 -4.19628e-21 6.04308e-10)
(1.96608e-07 1.76531e-07 8.68027e-21 -1.94441e-07 5.68486e-22 -2.16684e-09)
(7.11985e-08 2.65298e-07 3.6344e-20 -7.12264e-08 3.97937e-21 2.78808e-11)
(8.78617e-08 2.57067e-07 -1.84071e-20 -8.78839e-08 -1.97143e-21 2.22088e-11)
(1.03791e-07 2.47192e-07 9.90519e-21 -1.03828e-07 9.70192e-22 3.65569e-11)
(1.19032e-07 2.35535e-07 4.74328e-20 -1.19034e-07 5.52004e-21 1.69543e-12)
(1.33162e-07 2.22088e-07 -1.52989e-19 -1.33271e-07 -1.71199e-20 1.09038e-10)
(1.47026e-07 2.05932e-07 1.08775e-19 -1.46831e-07 1.18295e-20 -1.95453e-10)
(1.58006e-07 1.88648e-07 4.35764e-20 -1.58571e-07 5.05786e-21 5.6535e-10)
(1.7189e-07 1.65612e-07 1.00771e-20 -1.6994e-07 8.70371e-22 -1.94969e-09)
(6.06057e-08 2.39483e-07 -4.09885e-20 -6.05812e-08 -5.09946e-21 -2.44512e-11)
(7.51123e-08 2.32421e-07 3.26079e-21 -7.50964e-08 4.53736e-22 -1.58352e-11)
(8.90234e-08 2.23976e-07 -1.79816e-20 -8.90228e-08 -1.94572e-21 -5.52146e-13)
(1.02395e-07 2.14037e-07 4.14869e-20 -1.02358e-07 4.49443e-21 -3.66397e-11)
(1.14834e-07 2.02598e-07 2.77672e-20 -1.14903e-07 3.73516e-21 6.91941e-11)
(1.27188e-07 1.88844e-07 -1.81331e-20 -1.26977e-07 -2.03181e-21 -2.1091e-10)
(1.37097e-07 1.74102e-07 -1.99802e-20 -1.37572e-07 -2.49361e-21 4.75657e-10)
(1.49878e-07 1.54492e-07 -3.26772e-20 -1.48076e-07 -3.47787e-21 -1.80277e-09)
(5.14385e-08 2.17308e-07 -2.56392e-20 -5.14546e-08 -2.9338e-21 1.61282e-11)
(6.40954e-08 2.11276e-07 2.95425e-21 -6.41126e-08 4.58637e-22 1.71855e-11)
(7.62616e-08 2.04072e-07 6.23658e-20 -7.62874e-08 6.97202e-21 2.58316e-11)
(8.80187e-08 1.95595e-07 -3.33093e-22 -8.79972e-08 3.1734e-23 -2.15147e-11)
(9.90081e-08 1.85842e-07 -4.77404e-20 -9.90701e-08 -5.59968e-21 6.19389e-11)
(1.10002e-07 1.74089e-07 9.78749e-20 -1.09813e-07 1.11668e-20 -1.89002e-10)
(1.18956e-07 1.6144e-07 -1.85804e-20 -1.19364e-07 -2.26681e-21 4.08466e-10)
(1.30674e-07 1.44618e-07 6.12499e-20 -1.29041e-07 7.06413e-21 -1.63362e-09)
(4.49284e-08 1.99397e-07 -4.94751e-20 -4.502e-08 -5.67006e-21 9.159e-11)
(5.61258e-08 1.94112e-07 5.32351e-20 -5.62433e-08 6.21313e-21 1.17493e-10)
(6.69113e-08 1.87837e-07 -8.76389e-20 -6.70545e-08 -1.04882e-20 1.43153e-10)
(7.73325e-08 1.80482e-07 2.2557e-20 -7.74593e-08 2.63452e-21 1.2682e-10)
(8.71034e-08 1.72016e-07 2.84543e-20 -8.73271e-08 3.34769e-21 2.23752e-10)
(9.6948e-08 1.61778e-07 2.50565e-20 -9.69687e-08 2.18456e-21 2.07305e-11)
(1.04986e-07 1.50749e-07 -7.89154e-20 -1.0561e-07 -8.37195e-21 6.23607e-10)
(1.15892e-07 1.36285e-07 4.14056e-20 -1.14699e-07 4.05065e-21 -1.19345e-09)
(2.91735e-08 1.87754e-07 1.01168e-20 -2.89171e-08 1.25148e-21 -2.56491e-10)
(3.93833e-08 1.83953e-07 2.79643e-20 -3.92485e-08 3.52919e-21 -1.34721e-10)
(4.93794e-08 1.79119e-07 -1.10498e-20 -4.92598e-08 -1.2595e-21 -1.19516e-10)
(5.9062e-08 1.73451e-07 -1.72563e-20 -5.89156e-08 -1.84557e-21 -1.46338e-10)
(6.84031e-08 1.66901e-07 4.62807e-20 -6.81948e-08 5.22527e-21 -2.08326e-10)
(7.71341e-08 1.5942e-07 -2.82459e-20 -7.69792e-08 -3.2512e-21 -1.549e-10)
(8.5974e-08 1.50418e-07 -9.34836e-20 -8.5591e-08 -1.0701e-20 -3.82942e-10)
(9.31813e-08 1.40673e-07 1.08626e-19 -9.32904e-08 1.26053e-20 1.09159e-10)
(1.03196e-07 1.2809e-07 -5.95493e-20 -1.01531e-07 -6.96759e-21 -1.665e-09)
(2.54178e-08 1.73658e-07 2.84421e-21 -2.53916e-08 2.98969e-22 -2.61988e-11)
(3.45394e-08 1.70145e-07 -8.4694e-21 -3.47768e-08 -1.37818e-21 2.37347e-10)
(4.3554e-08 1.65673e-07 6.16708e-20 -4.39096e-08 7.20455e-21 3.55606e-10)
(5.23906e-08 1.60414e-07 -3.40336e-20 -5.27577e-08 -3.78979e-21 3.67086e-10)
(6.09078e-08 1.54369e-07 -2.39302e-20 -6.12513e-08 -3.03086e-21 3.4348e-10)
(6.88315e-08 1.47505e-07 -1.11701e-20 -6.92653e-08 -1.1845e-21 4.33767e-10)
(7.67965e-08 1.39352e-07 7.93973e-20 -7.70922e-08 9.31685e-21 2.95731e-10)
(8.32282e-08 1.30645e-07 -2.72345e-20 -8.40964e-08 -2.69385e-21 8.68199e-10)
(9.22641e-08 1.19915e-07 -5.31319e-20 -9.174e-08 -6.44818e-21 -5.24092e-10)
(2.08548e-08 1.5905e-07 -7.57693e-22 -1.99698e-08 -7.85628e-23 -8.85003e-10)
(2.86339e-08 1.55887e-07 -5.61172e-20 -2.79615e-08 -6.7872e-21 -6.72422e-10)
(3.64089e-08 1.51909e-07 -4.81668e-20 -3.57908e-08 -5.65771e-21 -6.18057e-10)
(4.41567e-08 1.47243e-07 1.71104e-20 -4.34526e-08 2.13599e-21 -7.04109e-10)
(5.16626e-08 1.4191e-07 -1.31324e-20 -5.08556e-08 -1.65906e-21 -8.07062e-10)
(5.86826e-08 1.3586e-07 3.22349e-20 -5.78986e-08 4.07735e-21 -7.83954e-10)
(6.58705e-08 1.28608e-07 -6.4474e-20 -6.48702e-08 -8.37327e-21 -1.00028e-09)
(7.18657e-08 1.20567e-07 2.00497e-19 -7.11463e-08 2.36214e-20 -7.19422e-10)
(8.01615e-08 1.10396e-07 -9.98852e-20 -7.78476e-08 -1.15249e-20 -2.31392e-09)
(1.88714e-08 1.46862e-07 -1.13432e-21 -1.96626e-08 -2.59723e-23 7.91219e-10)
(2.59318e-08 1.43934e-07 -5.22687e-20 -2.71867e-08 -6.08397e-21 1.25493e-09)
(3.30468e-08 1.40225e-07 1.1016e-19 -3.45486e-08 1.30359e-20 1.50175e-09)
(4.01931e-08 1.35829e-07 6.71285e-21 -4.17341e-08 8.14908e-22 1.54096e-09)
(4.70546e-08 1.30793e-07 -6.31723e-20 -4.85963e-08 -7.06025e-21 1.54169e-09)
(5.33711e-08 1.25138e-07 7.35941e-20 -5.50333e-08 8.31866e-21 1.66219e-09)
(5.9579e-08 1.18602e-07 -1.40682e-19 -6.12811e-08 -1.64123e-20 1.70207e-09)
(6.45309e-08 1.11837e-07 1.29201e-19 -6.69739e-08 1.43936e-20 2.44304e-09)