/*--------------------------------*- C++ -*----------------------------------*\
| =========                 |                                                 |
| \\      /  F ield         | OpenFOAM: The Open Source CFD Toolbox           |
|  \\    /   O peration     | Version:  2506                                  |
|   \\  /    A nd           | Website:  www.openfoam.com                      |
|    \\/     M anipulation  |                                                 |
\*---------------------------------------------------------------------------*/
FoamFile
{
    version     2.0;
    format      ascii;
    arch        "LSB;label=32;scalar=64";
    class       volScalarField;
    location    "350";
    object      div(phi);
}
// * * * * * * * * * * * * * * * * * * * * * * * * * * * * * * * * * * * * * //

dimensions      [0 0 -1 0 0 0 0];

internalField   nonuniform List<scalar> 
10720
(
-0.000691426
0.000211153
0.000190927
8.78933e-05
-0.000482375
0.0002935
-2.68705e-05
-9.21134e-05
0.000179506
-0.000235708
0.000280446
-5.11634e-05
3.49847e-05
-0.00018413
-0.000119332
5.87258e-05
-2.67337e-05
4.86602e-05
0.00013289
-0.000201509
0.000146702
-0.000133502
0.000121466
-2.76338e-05
5.02791e-06
8.00207e-06
-4.1581e-05
9.45286e-06
-4.47339e-16
2.11027e-05
1.20809e-05
3.70124e-05
5.28759e-06
-1.54902e-05
-6.3132e-06
1.32453e-05
8.42912e-05
-2.18947e-05
5.17288e-05
0.000935552
-0.000535811
0
0.000440764
-0.000241552
-7.33703e-05
6.71094e-05
-1.23106e-05
1.12844e-05
3.58319e-15
-4.72831e-05
-4.32464e-05
0.000236898
-7.2053e-05
-3.28455e-05
-4.78713e-05
2.45191e-05
6.44558e-05
-7.44412e-05
-5.74443e-05
5.97063e-05
-4.07091e-05
8.94394e-05
-7.1496e-05
-1.40232e-05
2.78221e-05
-2.31914e-05
5.36786e-05
-5.39529e-05
-1.41073e-05
8.86352e-06
2.29324e-05
-2.74037e-05
-1.08325e-05
-4.92423e-07
1.34308e-06
4.07004e-07
-2.58994e-05
-3.5018e-16
-0.00047631
0.000616334
-0.000236908
-7.45477e-05
0.000206147
-0.000315805
0.000140774
-2.70691e-05
-9.97596e-06
-0.000110343
-8.44652e-05
0.000255764
-0.000149203
4.22572e-05
-0.000166439
8.95707e-05
0.000123943
-0.000135693
-4.12624e-05
-3.91657e-15
0.000137236
-3.1284e-05
-2.85188e-05
5.20121e-05
-8.76663e-05
5.71494e-05
3.04174e-05
-6.96355e-05
6.90369e-05
-4.13752e-05
4.90616e-05
-2.27885e-05
6.11537e-06
2.4774e-05
-1.24133e-05
5.80126e-16
9.88156e-05
3.80023e-05
8.30093e-05
-2.01371e-14
0.000179037
0.000315831
-0.000365871
0.000134506
-8.53839e-15
0
-5.30329e-05
0
0
-2.95011e-15
0
-0.000108735
-3.33138e-05
6.10894e-05
4.47089e-05
-7.40185e-05
0.000125738
-3.60733e-05
1.54564e-05
-3.8681e-05
-2.55845e-05
-1.1629e-05
1.45325e-05
9.61579e-06
-2.18756e-05
-1.81275e-15
-1.26763e-05
2.13339e-05
-7.64266e-06
4.95483e-05
-2.47951e-05
-1.69123e-06
-4.10133e-06
1.44518e-05
-5.51049e-06
-1.19469e-05
-2.10198e-05
-6.37441e-06
-0.000397776
0.000295959
-0.000197762
-6.3528e-05
0.000176956
5.45714e-05
-0.000102601
-9.55299e-05
0.000266175
8.2532e-05
3.81564e-05
-0.000190166
-2.27104e-05
0.00011927
-0.000108651
0.000120385
-4.59262e-05
-6.3027e-05
0.000134423
-8.776e-05
6.41472e-05
-0.000102575
-3.71593e-15
8.56277e-05
2.2326e-05
-7.11877e-05
5.46312e-05
-5.22661e-05
6.52239e-05
-1.46655e-05
-3.17755e-05
1.73471e-05
1.57819e-05
-1.91415e-05
-2.17621e-05
3.95796e-05
2.51919e-05
-3.59827e-05
8.26509e-16
-0.000242481
2.09165e-14
6.54909e-05
0.000429327
-0.000226719
7.21608e-15
1.93889e-05
2.75271e-05
-4.3304e-05
0
3.8219e-05
7.15341e-05
-3.32476e-05
6.15805e-05
-0.000198744
-2.60887e-05
7.17075e-05
-3.79185e-15
-1.99519e-05
3.63768e-05
4.9686e-05
-3.1365e-15
-1.36951e-05
-7.46914e-05
3.39884e-06
2.68247e-05
2.81807e-05
-4.10453e-05
3.73574e-05
-4.39122e-05
7.02486e-06
5.86382e-07
1.28031e-05
2.9115e-06
-2.91282e-05
1.462e-15
1.45956e-05
-2.98516e-05
6.03853e-06
-6.70204e-05
-0.000188045
0.000111121
0.000108966
2.11753e-14
4.73117e-05
-4.49732e-05
0.000168797
-0.000315875
7.40537e-05
0.000172253
-0.000287859
0.00026655
-0.000139443
6.97673e-05
-2.54697e-05
-5.95229e-05
-1.95003e-05
5.36143e-05
3.27322e-05
-0.000104902
1.37213e-05
-1.25621e-05
3.45104e-05
3.15442e-05
1.9176e-05
2.62083e-05
-4.77523e-05
4.34896e-05
-1.32e-05
-1.20176e-05
3.82855e-05
-1.99093e-05
2.7173e-05
-1.64797e-05
2.24822e-05
2.72573e-05
5.57434e-05
6.77019e-05
-0.000204416
0.000575284
-0.000274354
1.43807e-14
-0.000192373
8.84887e-05
-0.000178611
0.000131409
-7.60904e-05
-3.60895e-05
3.43659e-05
-0.000195047
0.000274245
-2.84321e-05
-2.63721e-05
-0.00012166
4.47521e-05
-2.05137e-05
5.62701e-05
8.55758e-05
-9.35863e-05
4.25888e-05
2.68531e-15
-4.69013e-05
2.13547e-05
9.73014e-06
-7.09162e-06
-2.66446e-05
5.58805e-05
-3.682e-05
5.72851e-06
-2.66237e-05
-1.51426e-06
5.51099e-06
1.0862e-05
1.13987e-05
-2.76399e-05
-1.30737e-15
-4.29014e-05
-0.000170484
2.22365e-14
9.42402e-05
-4.68999e-05
-6.10965e-15
0.00041135
-3.95046e-05
-0.000186626
-4.8807e-15
-4.61035e-15
9.33033e-05
5.80756e-05
-0.000270256
0.000250391
-0.000173693
-1.06805e-05
-3.34435e-05
9.04427e-05
4.98439e-05
-0.000122005
0.000125944
-2.56857e-05
2.35642e-05
-5.40732e-05
-9.90172e-06
-9.03782e-06
-1.64811e-05
2.2536e-05
6.84546e-06
-1.87091e-05
5.68009e-06
2.06893e-05
-1.41265e-05
1.28572e-05
-1.94984e-05
3.54724e-06
2.90317e-05
-5.8635e-05
0
-0.000115617
0.000218149
1.28591e-14
0.00013216
0.000164141
-7.56619e-05
0.000214448
-0.000242584
6.69554e-05
-6.41499e-05
-0.000216241
-4.0993e-15
5.58266e-05
-5.24667e-05
4.89746e-05
4.53699e-05
4.18666e-05
-1.9239e-05
5.28777e-05
-3.22035e-05
-4.4052e-05
6.68465e-05
-2.42957e-05
-5.52017e-05
6.03573e-05
-2.75222e-05
-1.67272e-05
1.44826e-05
2.22234e-05
-3.54266e-05
-1.40004e-05
3.09509e-05
-1.00282e-05
-4.78076e-06
-3.95444e-06
-3.59691e-06
1.30835e-05
-1.48639e-05
-2.70941e-06
0
0
1.11582e-14
-0.000405272
0
0.000322812
6.95009e-05
-3.30489e-05
-6.26876e-05
5.96395e-05
5.61422e-05
7.90266e-05
-0.000197181
2.29269e-05
-2.95315e-15
9.84544e-06
0.000118189
3.19945e-15
-9.26223e-05
1.42025e-05
-3.91811e-05
3.6041e-05
4.41829e-05
-6.09751e-05
-1.8642e-05
2.55491e-05
1.55418e-05
7.0889e-06
2.58555e-05
-2.94605e-05
5.36914e-06
-1.46733e-05
1.33632e-05
0
2.9527e-05
3.35781e-05
3.05384e-05
2.7754e-05
2.5312e-05
1.36938e-14
-1.29762e-14
-1.09249e-14
0.000188313
0.000140816
9.75748e-05
-8.5747e-15
-6.04858e-05
0.000177013
0.000114122
7.70607e-15
5.36436e-05
0.000229981
-0.000217691
0.000204412
-0.000169103
1.35812e-15
7.21476e-05
6.62194e-05
-0.0001363
-9.59004e-16
0.000100692
-8.00496e-05
-1.03933e-05
-9.47346e-06
4.32364e-05
-2.36675e-05
3.99381e-15
3.27939e-05
-1.19549e-05
1.36154e-05
-8.92935e-06
-3.16227e-06
-2.63208e-05
2.99422e-05
-2.38344e-05
-3.09647e-06
-1.96986e-05
-1.02657e-05
-0.00041575
-1.09264e-14
0
0
0
-8.69961e-15
-0.00030611
0.000175731
-0.00025153
2.67644e-05
0.000126666
-7.16808e-05
-4.49221e-05
-4.19554e-05
3.9079e-05
-3.62825e-05
4.20029e-05
1.55304e-05
2.86705e-05
-7.93104e-05
3.6544e-05
2.24628e-05
1.0352e-05
-2.86374e-05
6.08688e-15
-2.40693e-05
5.86119e-05
-2.6754e-05
-1.83075e-05
5.00907e-05
-3.55195e-05
2.31224e-05
-1.68524e-05
1.1511e-05
-3.49307e-05
3.17832e-05
-8.02336e-16
-2.62687e-05
0
-2.34925e-14
-0.000402707
9.338e-15
0.000161738
-0.000181886
-1.12221e-05
1.0712e-05
0
-0.000104109
0.000126945
-0.000249589
-0.000243421
-4.67505e-05
6.68644e-05
-6.31632e-05
3.93651e-05
2.53843e-15
-1.69022e-05
2.15689e-15
5.69445e-05
1.30038e-05
-3.55373e-05
-4.3047e-05
9.78015e-06
1.78406e-05
8.14857e-06
0
-2.03676e-05
2.47716e-05
-1.75058e-05
-8.23622e-06
3.72452e-05
-3.07661e-05
2.1402e-05
-7.08431e-06
-3.22278e-06
-2.9311e-06
-2.13084e-05
0
0.000358167
0
8.2426e-15
0
-8.06039e-15
7.61968e-15
7.49767e-15
-0.000259832
0.000249283
3.33498e-15
-0.000114286
8.66472e-05
-2.04578e-05
5.75431e-05
-7.17266e-05
-8.34951e-05
7.75542e-06
7.04392e-05
-3.99056e-05
8.60563e-05
-2.27128e-05
2.09873e-05
-4.84827e-05
3.58505e-05
-4.12633e-05
7.55607e-06
0
-6.30878e-06
4.03201e-05
-1.05129e-05
-4.79488e-06
-8.74388e-06
1.1954e-05
3.63007e-05
2.75235e-15
-8.3493e-16
5.47248e-05
1.38024e-15
2.27076e-05
0
0.000348113
-2.88927e-05
0
2.62211e-05
-4.85967e-06
-6.52187e-05
2.3174e-05
-0.000184001
6.27432e-15
0
0.000220833
0
-0.000205241
0.000175525
-0.000109889
6.83392e-05
4.74944e-05
-7.29319e-05
-5.35129e-05
0.000110078
1.11455e-05
-6.07471e-05
1.83994e-05
5.82615e-16
1.53532e-05
7.01398e-06
-1.77778e-15
4.05657e-16
-4.69387e-05
5.35112e-06
3.25165e-05
-1.45494e-05
-1.47259e-05
1.34082e-05
3.05041e-06
-2.77453e-05
-5.04211e-06
-1.27814e-15
-0.000309591
0
0.000256778
-7.39964e-15
-0.000254046
-6.68402e-15
0
6.40096e-15
0.000222381
2.99274e-15
0.000103086
-7.85296e-05
-9.3119e-05
5.25814e-05
9.86578e-05
-9.2166e-05
4.29247e-05
-4.65381e-05
4.93332e-05
-5.71268e-05
1.05809e-05
1.95991e-05
-9.07704e-06
-8.41225e-06
-1.55222e-05
4.26826e-05
-3.25341e-05
-1.78483e-05
1.08712e-05
9.92689e-06
1.81206e-05
-2.47954e-05
2.09167e-15
-3.43389e-05
8.68108e-16
2.84685e-05
-1.43759e-15
-4.70603e-05
1.19378e-15
0.000315294
-0.000302013
4.98427e-05
-0.000120787
9.09585e-05
-2.11043e-05
-8.12377e-05
0.000162781
-8.13765e-05
0
0
0
0.000195264
0
2.50511e-15
0.00010219
9.57054e-05
-7.40963e-05
-1.8989e-15
6.28386e-05
-1.14993e-05
-7.33744e-05
5.71307e-05
0
-7.90004e-06
7.22949e-06
-1.32219e-05
-1.20831e-05
-1.65537e-05
-5.03723e-06
1.37894e-06
1.96536e-05
1.5288e-06
3.48275e-06
-6.34365e-06
2.0031e-16
-1.05039e-05
-9.93364e-16
0
0
0
0
0
6.18228e-15
0.000211755
5.85621e-15
0.000204912
-0.000198558
5.37388e-15
-5.16112e-15
0.000124502
-3.3888e-05
1.6006e-05
1.50696e-05
-1.41213e-05
-6.596e-05
-1.96656e-05
-1.14292e-05
-1.06123e-05
5.9102e-05
1.82935e-05
-3.39716e-05
7.89232e-06
2.18867e-05
-2.00865e-05
2.4519e-05
-2.80453e-05
3.077e-05
-1.87438e-05
0
-1.62608e-15
0
3.24813e-05
1.6427e-15
0
4.90188e-05
-1.23614e-15
2.03688e-05
7.59246e-15
0
6.46993e-05
0
-1.97864e-05
-9.19124e-05
0.0001065
-5.36841e-05
0.000180145
0
5.03209e-15
-5.03816e-15
-0.000178276
0
0
-0.000158276
7.44099e-05
4.15993e-05
-0.000102632
7.08e-05
1.08076e-05
1.97104e-05
0
-4.06604e-05
4.45859e-05
-2.04197e-05
-6.22947e-06
-1.70916e-05
5.20686e-06
1.65018e-15
1.433e-05
-2.32204e-05
2.09615e-05
-2.30603e-05
6.00207e-06
5.68689e-16
-2.48529e-06
-2.25784e-05
1.14646e-15
0.000233608
0
-0.000193805
0.000204097
0.000195558
-0.000186372
-0.000186771
5.05703e-15
-0.000177321
0
-4.65273e-15
-0.000161094
4.62325e-05
8.10877e-15
1.38006e-05
-0.00010378
7.29157e-05
-4.99483e-05
3.17477e-05
1.9701e-05
-4.58188e-05
1.18402e-15
-3.17698e-05
1.48021e-05
-2.05682e-05
-1.88987e-05
1.15446e-05
4.22942e-05
-4.83728e-05
1.22761e-15
0
3.6908e-05
-3.36827e-05
8.52633e-16
-2.33114e-15
2.54917e-05
-1.28755e-15
-4.21411e-05
0
-0.000237996
-1.27167e-14
-7.48895e-05
-1.0143e-14
-2.93444e-05
7.54408e-05
-3.10908e-05
-0.000110324
0
0
0
0
-0.000162682
4.42903e-15
0.000154342
-4.07981e-15
-0.000138747
0.00012967
-1.20238e-05
5.53792e-05
1.01531e-05
-9.26203e-06
-5.047e-05
7.64158e-06
2.79485e-05
-3.84377e-05
-5.86817e-06
-1.07419e-05
4.42089e-05
-1.79594e-05
5.33214e-06
1.31064e-05
-1.70841e-05
9.34713e-06
2.83912e-06
-1.55097e-05
2.35181e-06
8.54587e-06
5.42885e-16
1.13115e-14
1.0836e-14
-0.000169017
0
0
0.000164359
-9.18629e-15
4.49847e-15
0.000158418
4.33102e-15
-8.38891e-15
0.000145808
-5.83043e-15
-0.000146576
-1.26303e-05
-9.08918e-15
3.35586e-05
-2.5148e-05
-1.37095e-05
7.31002e-05
-3.40829e-05
-2.38589e-05
1.48463e-05
5.77575e-15
6.44022e-05
-5.92516e-05
-1.50836e-15
-4.98169e-05
4.5617e-05
0
3.81649e-05
-3.48715e-05
1.76744e-15
2.90491e-05
1.47006e-15
2.00825e-15
2.19475e-05
0
1.82672e-05
0.000207644
0
-3.26089e-05
3.19078e-05
-5.7359e-05
-3.09054e-05
-4.09211e-05
0.000125117
0
0
0
0.000149003
0.000148376
-4.06673e-15
0
0
0
5.04569e-15
-4.68918e-15
2.88414e-15
3.81422e-05
-3.4808e-05
7.90101e-06
0
3.94044e-05
-3.01374e-05
-2.21048e-05
3.54347e-05
9.26621e-06
-4.23772e-05
2.71149e-05
-2.44148e-05
2.22873e-05
-1.76793e-05
8.05741e-06
-7.33742e-06
-8.90196e-06
-2.02145e-05
-1.85221e-05
-9.8886e-15
-9.49073e-15
0
-0.000157471
-8.41327e-15
0
0
0
3.9288e-15
-1.16657e-14
0.000136224
0
0
0.000121461
-8.08583e-05
7.64674e-05
2.14215e-15
-7.73117e-05
8.23899e-05
-5.9287e-05
-9.88924e-15
2.9638e-05
1.38695e-05
3.6074e-15
-6.04715e-05
-5.41176e-15
5.11448e-05
1.30252e-15
4.30081e-05
-1.09306e-15
-3.60318e-05
3.29413e-05
-8.35236e-16
-7.62379e-16
-2.50488e-05
-1.26663e-15
2.07654e-05
-3.77216e-05
-1.72977e-05
-0.000181556
0
0.000113837
-6.97866e-05
7.9341e-05
7.39252e-05
5.99548e-05
-0.000122769
6.97896e-15
-0.000127479
0
0
0
-0.000134436
0
3.51189e-15
0
-6.28496e-15
2.92673e-15
0
-1.24225e-15
-8.17162e-05
2.96758e-05
-6.06534e-05
6.17032e-06
5.66908e-06
1.0405e-05
-1.90792e-05
3.05826e-05
-7.99767e-06
-1.09724e-05
-1.00284e-06
-5.49532e-06
5.57224e-06
5.08076e-06
-1.61968e-05
6.31671e-06
1.85782e-15
-1.46049e-15
8.66431e-15
-8.32747e-15
0.000129476
0
-0.000133701
0.000128233
-0.000130293
-7.13331e-15
0
0.000125803
3.40776e-15
0
3.20718e-15
-0.000110669
0
3.00472e-05
-4.73019e-05
2.67222e-05
-1.42229e-05
-1.56894e-05
6.61669e-05
-4.82874e-05
3.88426e-05
-6.0848e-05
5.67566e-05
-1.4532e-15
-1.33553e-15
2.45318e-15
-1.12508e-15
1.03102e-15
9.43997e-16
3.11131e-05
-2.36791e-15
-2.59686e-05
2.36893e-05
2.15839e-05
1.96459e-05
9.90435e-16
1.63793e-05
8.82948e-15
0
-8.71631e-05
6.1195e-05
2.3217e-05
-6.49325e-05
6.33417e-05
0
0
0.000113833
-0.000118297
0.000122121
-0.000123212
0
-3.36888e-15
0
3.10946e-15
0
0
0
0
2.12896e-15
6.96342e-05
8.77768e-16
2.89753e-05
5.33022e-06
-3.42745e-05
1.7972e-05
-2.05932e-05
1.13175e-05
-3.45275e-06
1.13673e-05
-2.65445e-05
7.90256e-06
-2.50075e-16
1.51881e-16
-1.19523e-05
-5.0212e-16
-1.66078e-05
7.60513e-15
0.000131842
-0.000113647
-6.78617e-15
0
0
0
0
0
-0.00011293
0.000110621
-0.000107966
0.000104877
2.79754e-15
-4.0149e-15
1.835e-05
8.69e-06
-8.20307e-06
-2.31741e-05
3.63084e-05
6.82277e-06
1.92555e-05
-4.22848e-05
7.90316e-15
5.32494e-05
-5.46084e-15
2.5121e-15
-4.16057e-05
3.81957e-05
-3.50301e-05
8.9086e-16
-2.9381e-05
2.68691e-05
-1.36264e-15
0
-2.04156e-05
1.85843e-05
-5.06283e-05
0
-0.000139656
0
1.09134e-05
-3.22464e-05
-7.14436e-05
-9.5227e-06
0
-1.06676e-14
-5.51236e-15
0
5.90134e-15
0.000110484
6.22692e-15
0.00011297
3.10493e-15
0
-2.89173e-15
5.47506e-15
-5.12349e-15
0
7.87699e-05
-7.19712e-05
0
-8.23372e-16
1.51003e-15
-5.00947e-05
1.84259e-05
1.26928e-05
1.16451e-05
-1.7791e-05
3.25889e-06
2.98202e-07
-1.22684e-05
9.96071e-06
2.27203e-06
2.07031e-06
5.65319e-06
-1.71115e-05
1.57257e-05
6.68548e-15
0
-1.10937e-14
0
0
-0.000100491
0
-5.66722e-15
5.61779e-15
0.000101404
5.53299e-15
-5.41944e-15
-9.51464e-05
5.09176e-15
-9.77427e-15
-7.55996e-05
3.98902e-05
-3.77512e-05
1.42537e-05
6.7161e-06
-3.79616e-05
3.58066e-05
-1.68982e-05
1.47848e-15
5.54378e-15
-3.84641e-15
4.72347e-15
2.17357e-15
1.99731e-15
-9.16674e-16
8.40546e-16
2.77397e-05
-1.40904e-15
-6.43969e-16
-1.17579e-15
1.93077e-05
1.75782e-05
1.59612e-05
3.26033e-15
6.81672e-15
0.000119253
-2.87574e-05
-9.45709e-06
8.98874e-06
3.35658e-05
-8.21794e-06
9.45106e-15
-8.835e-05
9.08439e-05
-9.55575e-05
0
0
0
-0.000103038
0
-2.68779e-15
-9.19591e-05
-2.39474e-15
2.22392e-15
2.04949e-15
0
6.12631e-05
-1.54407e-15
1.41691e-15
5.64756e-05
4.33233e-06
-1.5932e-05
-1.82868e-05
2.68415e-05
-1.84508e-05
-2.81573e-06
-6.1817e-06
-2.4498e-16
1.28897e-05
-1.958e-05
1.7824e-06
0
-1.48883e-05
0
0.000102331
0
9.54129e-05
5.13259e-15
0
-1.01611e-14
5.05504e-15
-5.02594e-15
-9.10592e-05
8.97896e-05
7.34671e-15
2.39512e-15
-4.6315e-15
8.03233e-05
7.46603e-15
-7.31872e-06
-6.94409e-06
-6.57123e-06
2.48311e-05
-4.10385e-05
5.5454e-06
-7.28498e-16
-3.45564e-15
2.59805e-15
4.33626e-05
-3.99834e-05
2.04493e-15
1.88095e-15
-8.64026e-16
0
-2.18037e-15
-2.39753e-05
0
-2.00242e-05
1.8258e-05
1.84573e-15
-4.52795e-05
0
-1.20085e-14
-0.000105169
6.74618e-05
2.16662e-05
4.28116e-05
-4.44259e-05
0
0
-8.73138e-15
0
-8.5878e-05
0
9.28531e-05
2.62752e-15
0
9.29476e-05
-8.99434e-05
8.56918e-05
0
-2.08147e-15
6.91847e-05
0
-5.74197e-05
2.89433e-15
4.78853e-05
-4.41981e-05
2.0365e-05
-7.49658e-06
1.72248e-05
1.31686e-15
-2.0308e-05
1.32908e-05
-1.0705e-05
1.11219e-05
-2.03103e-06
-5.55475e-06
8.42864e-06
-1.27436e-15
0
-1.03847e-14
-9.03114e-05
0
0
-9.09529e-15
0
-8.14592e-05
0
8.10134e-05
0
-8.08763e-05
0
8.68508e-15
7.58671e-05
-4.06602e-15
-7.02707e-05
4.02574e-05
-1.91465e-05
2.42171e-05
1.14673e-05
-3.79992e-05
-1.02986e-05
1.95549e-05
4.6532e-05
-4.38472e-05
-2.2586e-15
3.75615e-05
-2.88486e-15
0
-2.93324e-05
1.49547e-15
0
0
2.07165e-05
-1.05072e-15
0
1.57211e-05
0
1.31603e-05
0
0
-1.48591e-05
1.91157e-05
-3.92062e-05
-3.27118e-05
6.42699e-05
6.70072e-05
7.00501e-05
0
0
0
0
0
0
-8.59049e-05
-4.63381e-15
-7.98111e-05
0
0
-6.47977e-05
1.64571e-15
-1.49308e-15
0
1.24609e-15
-4.60616e-15
-1.14833e-05
3.52631e-06
9.73204e-06
-5.96207e-06
2.73639e-06
-5.01793e-06
-4.80244e-06
8.40734e-06
-1.91992e-06
-1.22551e-05
3.18824e-06
-1.44708e-05
-7.40713e-16
9.16959e-15
0
0
0
0
7.02006e-05
8.0541e-15
0
-7.25146e-05
0
0
0
0
3.82676e-15
-7.41102e-15
3.56411e-15
6.14687e-05
-4.68914e-05
3.34466e-05
-1.69354e-05
1.00465e-05
9.55669e-06
-2.2751e-05
-6.03055e-16
1.13958e-15
4.23659e-15
0
-3.25719e-05
3.00216e-05
-7.6695e-16
-3.52499e-15
1.2944e-15
0
0
-1.78896e-05
1.63207e-05
8.25179e-16
-2.69853e-05
-2.76611e-15
8.42263e-05
-9.11301e-15
-3.27742e-05
-1.94849e-05
3.71327e-05
1.15728e-05
-5.69289e-05
0
-6.24216e-05
0
0
0
0
-7.91306e-05
2.22531e-15
0
7.74167e-05
0
-1.94966e-15
0
0
-4.62375e-15
0
-4.57293e-05
4.20692e-05
1.08048e-15
3.59583e-05
-1.65809e-05
-8.47588e-16
8.42613e-06
3.58087e-16
-9.47026e-06
-4.55642e-07
7.94309e-06
-5.44386e-06
1.65514e-06
-7.53651e-06
1.36808e-05
1.40234e-15
-8.10578e-15
0
0
-7.36177e-15
0
0
0
-3.5963e-15
7.20738e-15
6.59363e-05
0
3.61062e-15
-6.42088e-05
-1.73781e-15
-6.07972e-05
5.86324e-05
-5.62739e-05
-5.97238e-15
3.59016e-05
-8.78584e-06
-3.71597e-05
2.65858e-05
-1.26964e-05
-1.68858e-15
1.06651e-15
-3.57724e-05
9.18902e-16
3.39843e-15
2.35175e-15
-1.44451e-15
2.65808e-15
1.22105e-15
-1.12023e-15
0
-9.38426e-16
1.54272e-05
-2.34041e-15
1.41602e-15
1.17912e-05
0
8.06494e-15
0
1.72345e-05
-4.38182e-05
2.56146e-05
5.04678e-05
0
-5.56505e-05
0
3.46054e-15
6.67045e-05
0
0
0
2.03225e-15
7.17548e-05
-3.83543e-15
1.81824e-15
-6.12857e-05
5.6746e-05
2.88532e-15
-2.61696e-15
1.1878e-15
0
-3.65102e-05
1.87438e-15
6.23509e-06
5.74739e-06
2.64559e-06
4.86513e-06
-1.56359e-05
6.96442e-06
1.87573e-06
-5.14451e-06
-7.82291e-06
1.58211e-15
-1.43579e-15
6.63691e-16
6.46228e-05
-6.25527e-05
0
0
0
-6.15935e-15
5.76318e-05
0
-3.22676e-15
3.28723e-15
5.90615e-05
0
0
0
-1.53612e-15
-5.3515e-05
-5.71618e-15
9.86748e-06
-4.71532e-06
8.99723e-06
-1.78687e-15
8.21229e-06
-7.86719e-06
-1.05002e-15
-2.99302e-15
3.35191e-05
8.62185e-16
3.19271e-15
7.37264e-16
2.03989e-15
2.25609e-05
-2.07452e-05
-2.11455e-15
1.93823e-15
1.77332e-15
-8.09397e-16
1.32845e-05
-2.41098e-05
0
0
-6.43497e-05
0
5.08578e-06
9.70521e-06
-1.36219e-05
-4.97208e-15
0
-5.51178e-15
5.76875e-15
0
3.34498e-15
0
0
-6.75834e-05
3.74802e-15
6.64596e-05
-6.4228e-05
0
5.72336e-05
-5.3059e-05
2.69969e-15
-3.67198e-15
3.33286e-15
-1.02384e-15
-9.49995e-16
2.63908e-15
-3.25257e-15
1.08134e-05
-1.4947e-05
2.29259e-06
2.92383e-16
-6.3802e-06
8.85758e-06
-9.72161e-06
7.39374e-06
9.3473e-16
-3.39253e-16
-1.1316e-05
0
0
0
5.801e-15
5.09293e-05
-4.9366e-05
0
-5.74207e-15
0
-5.31748e-05
0
2.94294e-15
0
-2.86404e-15
5.03591e-05
4.88106e-05
-4.70768e-05
4.52221e-05
-3.03245e-05
3.31473e-05
-1.5852e-05
2.37453e-15
-7.30855e-06
3.9152e-15
-1.86553e-15
2.61404e-15
-2.91306e-05
2.70023e-05
0
0
-2.12542e-05
1.95594e-05
9.97569e-16
9.15002e-16
-1.67523e-15
-1.52976e-15
-1.39401e-15
2.52958e-15
1.05617e-05
0
0
2.2662e-05
4.50668e-06
1.72097e-05
-4.02776e-05
0
4.18748e-05
-4.91832e-15
0
-5.03425e-05
-3.02047e-15
0
-6.01921e-05
-3.44087e-15
6.22201e-05
-6.82928e-15
3.31172e-15
0
-1.48276e-15
0
1.26224e-15
-3.43296e-15
-1.03853e-15
9.57977e-16
-1.78031e-15
8.25352e-16
-2.75194e-05
5.08437e-06
9.38021e-06
-1.72809e-05
1.39074e-05
2.00697e-06
-1.17093e-05
6.12283e-06
-8.38457e-06
1.27322e-05
-1.1551e-05
-5.94489e-16
5.635e-15
5.46268e-15
-4.67541e-15
0
0
0
-4.58648e-05
0
5.17716e-15
4.77557e-05
-4.786e-05
-2.65586e-15
2.64399e-15
-2.59778e-15
2.54228e-15
-4.44971e-05
1.19399e-15
0
1.98876e-05
0
-1.42616e-05
-1.05541e-05
2.03536e-05
0
-8.71513e-16
-1.63123e-15
7.57873e-16
4.22105e-15
6.51404e-16
1.20416e-15
-1.1111e-15
2.04702e-15
1.88245e-15
1.72771e-15
-1.58233e-15
1.30189e-05
1.18657e-05
-2.15286e-05
-2.21937e-15
0
5.62198e-15
-0.000136561
3.59771e-05
-0.000133648
-3.57587e-05
-0.000141377
-3.72919e-05
3.95444e-05
0
4.52382e-05
0
5.20484e-05
-3.04696e-15
5.68165e-05
0
0
-5.53749e-05
0
0
4.63123e-05
1.1796e-15
2.13845e-15
-1.9406e-15
-1.79186e-15
3.00355e-05
-2.78872e-05
2.58421e-05
9.5591e-06
-8.82705e-06
1.01737e-05
1.03972e-15
-1.42865e-05
3.1583e-06
5.78322e-06
-9.2425e-06
0
1.09139e-05
5.62563e-16
-4.50418e-05
0
0.000112122
-4.12961e-05
0
0
4.09433e-05
4.13418e-05
0
-4.28932e-05
2.39163e-15
4.31728e-05
-4.30848e-05
4.24326e-05
-4.16242e-05
-1.12524e-15
-1.09041e-15
2.10445e-15
-1.82456e-05
3.50676e-06
-8.09277e-06
-0.000143136
0.000251711
-0.000244664
2.93207e-05
0.000109976
-1.4202e-15
6.60072e-16
-1.22396e-15
-1.13252e-15
-1.04611e-15
1.92908e-15
2.66292e-15
-1.46871e-05
1.49423e-15
1.36544e-15
-1.1212e-05
0
1.04997e-15
-5.10083e-15
0
0.000213765
9.22791e-05
-2.03501e-05
6.35377e-05
0.000125711
3.68892e-15
3.53176e-05
-3.727e-05
4.51369e-15
-4.92244e-15
-4.71857e-05
2.77645e-15
-2.88887e-15
2.92708e-15
0
5.13642e-05
2.73373e-15
4.64534e-05
-4.32301e-05
1.10175e-15
1.99709e-15
1.81198e-15
-2.51196e-15
7.80432e-16
-2.61395e-05
2.42518e-05
-2.24574e-05
1.45319e-05
-1.91587e-06
-7.06159e-06
6.49563e-06
-2.9813e-06
-1.0923e-05
8.73149e-06
-1.13687e-05
-2.86175e-16
1.06466e-15
0
4.31024e-15
-0.000232347
3.6747e-05
0
0
4.05877e-15
-3.69764e-05
0
-4.27662e-15
-3.87731e-05
3.89447e-05
-4.32556e-15
-3.84638e-05
2.0993e-15
2.04922e-15
7.17065e-05
5.77591e-15
-3.01145e-05
9.66924e-05
-3.85262e-05
0.000111231
-0.000236263
5.69153e-05
-5.4735e-05
7.71244e-05
2.39568e-05
-6.69025e-05
-2.0702e-05
1.91803e-05
7.09453e-05
0
-8.37062e-16
0
-7.05358e-16
1.16159e-05
1.05913e-05
-1.921e-05
0
0
1.59878e-05
4.11091e-05
-0.000211222
3.01418e-05
5.64851e-05
8.3906e-05
8.88648e-05
0
3.33745e-05
-3.65336e-05
0
4.27672e-05
0
-4.76353e-05
-2.69157e-15
-4.8567e-05
2.64323e-15
-2.54147e-15
-4.32802e-05
-3.35876e-15
3.70597e-05
-3.35761e-05
3.04596e-05
-2.81813e-05
0
6.79784e-16
1.89451e-15
-8.78105e-16
-3.90409e-06
1.80359e-06
9.97966e-06
-3.06227e-06
-7.0335e-06
2.57843e-06
2.35628e-06
-2.98096e-16
9.7387e-06
-5.03663e-16
-7.11054e-05
0.000138105
-6.55126e-15
3.27238e-05
-3.20017e-05
0
3.26607e-05
3.67276e-15
-3.72423e-15
0
0
0
3.52187e-05
0
-1.90631e-15
0.000134376
-0.000130812
-0.000126819
0.00024525
-0.000192397
0.00021082
-0.000124913
-8.10567e-05
0.000158744
-0.000127634
7.20799e-05
4.4849e-05
-8.36146e-05
-7.77213e-05
5.40739e-05
0.000100134
-0.000107927
8.528e-05
-6.53732e-05
1.33173e-15
1.21781e-15
0
0
8.46526e-06
0.000181359
-8.17518e-05
-0.000164329
0.000107899
8.04261e-06
-0.000100499
-4.97987e-05
-0.000105666
0
3.31888e-15
0
4.00741e-15
-2.15073e-15
-4.1468e-05
-2.41894e-15
2.47314e-15
4.48219e-05
2.44833e-15
-2.36137e-15
0
-3.76022e-05
3.83747e-15
1.73852e-15
-2.84075e-05
2.63093e-05
0
6.36594e-16
-1.77678e-15
0
-1.10104e-05
-8.48636e-06
-3.13362e-06
2.88696e-06
6.63564e-06
-9.73664e-06
-3.33793e-06
-5.63161e-16
7.65838e-16
-8.58338e-06
6.32421e-05
-0.000307208
0.000209898
6.47278e-15
-0.000114105
0.000111043
2.91846e-05
-3.28646e-15
3.33792e-15
3.10694e-05
3.48627e-15
-3.16777e-05
0.000127321
-3.1562e-05
-0.000187033
6.11151e-05
-0.000119245
-2.8964e-05
0.000112277
8.96468e-05
-0.000142122
0.000117824
3.7518e-05
-0.000122924
-1.98137e-15
0.000112208
-0.000146849
0.000156695
1.82309e-05
-0.000118529
9.41644e-05
-4.35485e-05
1.3396e-05
-8.63181e-05
5.66064e-05
1.14998e-15
9.44791e-06
-1.71296e-05
-1.7782e-15
-9.67821e-05
0.000104383
3.39636e-06
-0.000125563
-5.726e-05
0.000156574
-4.43653e-05
2.35694e-05
7.56158e-05
0
2.95026e-05
0
-3.8953e-15
2.09423e-15
0
4.09128e-05
-2.29464e-15
-4.08303e-05
-2.19251e-15
2.081e-15
3.50396e-05
0
-1.62083e-15
0
6.8145e-16
6.38084e-16
-5.95824e-16
1.99981e-05
-5.15904e-16
7.17961e-16
1.27739e-05
-1.0328e-05
4.08187e-06
4.88209e-06
-5.74341e-06
-1.05058e-06
2.659e-16
8.68396e-06
8.11981e-06
2.81372e-05
0.00013676
-4.67005e-05
-0.000129916
0.000178108
-0.000222983
-2.60879e-05
2.64978e-05
-2.69523e-05
3.09838e-15
-3.13726e-15
-2.85609e-05
2.87615e-05
-8.57291e-05
0.000141408
-1.54239e-15
3.01562e-15
5.28979e-05
5.13713e-05
-0.000107137
-0.00012584
0.000144057
-4.16445e-05
-4.56574e-05
-4.92212e-15
0.000146641
-9.8067e-05
-4.07251e-15
5.1292e-05
-8.8269e-16
2.95137e-05
-0.000109305
0.000113593
-6.9774e-05
2.13645e-05
9.77715e-06
-2.67625e-05
1.61718e-05
1.51489e-05
-0.000200971
5.91527e-05
0.000122186
9.76555e-05
0.000191214
-0.00015938
-7.90856e-05
8.41533e-05
4.50751e-05
0
-2.65107e-05
-3.26018e-15
0
1.90439e-15
-4.04095e-15
-3.75459e-05
-2.11471e-15
2.09674e-15
4.0685e-15
3.48596e-05
-3.2633e-05
0
2.72e-05
1.36928e-15
-1.27077e-15
2.14719e-05
-5.57439e-16
-5.20075e-16
-9.67954e-16
-1.61957e-05
1.2012e-05
-1.3891e-06
-2.56409e-06
-6.13838e-06
2.16772e-06
-4.95802e-06
9.04575e-06
-4.551e-16
-7.68005e-06
5.01134e-05
2.43653e-05
-0.000124752
0.000162196
-0.000113523
8.8491e-05
4.66508e-05
0
0
-2.50653e-05
-7.62607e-05
5.14904e-05
7.79361e-05
-7.75831e-05
0.000102597
-2.52493e-05
-4.94713e-05
-0.000120677
-3.25957e-15
3.42497e-05
-1.77867e-05
0.000124031
-0.000130459
6.35561e-05
2.06402e-05
5.86397e-05
-1.83306e-05
1.71678e-05
-1.60267e-05
1.49269e-05
-8.32204e-05
7.71391e-05
-3.56617e-05
-1.09622e-05
-6.04645e-05
8.30478e-05
-1.68421e-05
-3.81542e-05
0
0
3.51305e-05
-7.90873e-06
5.92966e-05
-7.57103e-05
5.326e-05
8.8155e-05
-0.0001315
-0.000141101
8.60013e-05
-2.38231e-05
2.64766e-05
3.19167e-15
0
0
1.9111e-15
3.50813e-05
-3.87584e-15
1.88585e-15
0
1.68563e-15
-1.55251e-15
2.81154e-15
-2.29607e-05
-2.36854e-15
-2.00447e-05
-5.21142e-16
-4.86953e-16
1.63516e-05
1.5209e-05
-1.4115e-06
-5.22846e-06
-2.41544e-06
6.56633e-06
4.25734e-16
-2.80812e-06
7.11074e-16
-7.73758e-06
-8.064e-16
2.2323e-05
2.17161e-05
-1.85245e-05
2.06717e-05
0
-1.97573e-05
-6.25837e-05
6.3718e-05
2.4051e-15
4.50317e-05
-6.86147e-05
-9.28157e-05
9.3839e-05
-2.33993e-05
6.97517e-05
-9.1732e-05
0.00013506
-6.60208e-05
6.43935e-05
-2.92819e-05
-5.30706e-05
6.612e-05
-0.000130381
-1.96421e-05
0.000115215
-0.000109344
0.000119826
1.60606e-05
-1.50153e-05
-4.20087e-05
-6.51424e-05
2.41838e-05
6.21375e-16
7.23199e-05
-2.85115e-05
-2.61206e-05
3.97432e-05
7.20125e-06
-1.50412e-15
0.000204992
-0.000192351
-6.51574e-05
-1.23302e-05
-1.68727e-05
4.74847e-05
-4.71881e-05
-3.35607e-05
9.01696e-05
1.92698e-05
2.14056e-05
-2.38678e-05
-2.88721e-15
0
3.03284e-05
-1.75155e-15
5.37684e-15
0
1.74742e-15
0
-2.82404e-05
-2.88931e-15
-2.35615e-05
2.13613e-05
1.1029e-15
-5.19042e-16
9.74021e-16
-4.92601e-05
-3.06479e-05
1.42713e-05
3.5811e-05
2.70541e-05
4.54949e-06
1.32183e-05
-5.20816e-05
-2.64964e-06
4.02994e-05
-2.19032e-05
-6.86828e-06
-0.000179086
5.80946e-05
3.66653e-15
1.84499e-05
-3.61959e-05
0
-3.73266e-05
-7.60906e-05
3.88538e-05
-0.000141563
4.11493e-05
4.18208e-05
-2.35148e-15
-2.11629e-05
8.42728e-05
4.16418e-05
-0.000163821
1.11353e-15
5.88122e-05
-1.91434e-05
-3.18397e-05
-2.76517e-05
6.38196e-05
-1.82031e-05
5.35684e-05
-8.49024e-05
4.79373e-05
-1.50164e-05
-2.81226e-05
9.19376e-05
-9.78967e-05
2.27408e-05
7.3754e-05
-1.9469e-05
-8.96184e-06
1.64278e-05
0
-2.03807e-05
1.42222e-15
-0.000142135
0.000157581
7.53189e-05
-2.66963e-05
6.0189e-05
-1.4118e-05
4.21144e-05
2.99898e-05
-1.61391e-05
-5.18191e-05
0
2.38897e-15
2.35201e-05
0
-1.53527e-15
-1.60391e-15
-2.9693e-05
-1.6524e-15
-2.91434e-05
-1.54934e-15
2.62471e-05
0
2.19095e-05
-3.30739e-15
-5.548e-05
3.48735e-05
8.19383e-05
-4.6076e-05
1.43555e-05
1.33894e-05
-4.98375e-06
-4.04753e-05
6.63796e-05
-4.12185e-06
-2.00074e-05
-3.99914e-05
3.80278e-05
-3.44405e-05
2.59787e-05
0.00010647
-3.83584e-15
2.94513e-05
1.64735e-05
4.85018e-05
-3.1555e-05
0
-0.000102244
3.48457e-05
0.000108993
1.85091e-05
-0.000113044
1.912e-05
-3.82725e-05
7.63407e-05
3.77898e-05
-3.72343e-05
7.30928e-05
-5.36898e-05
3.50228e-05
-8.58634e-05
0.000100688
-1.34554e-05
-0.000101122
4.97765e-05
-1.31666e-15
5.96197e-05
-1.4032e-05
-6.58042e-05
7.38638e-05
3.44575e-05
-6.41209e-05
5.94891e-05
-1.83375e-05
-4.22377e-05
6.1977e-05
-7.07579e-05
4.48503e-05
-1.34457e-15
9.05404e-05
-5.51701e-05
-2.93765e-05
-3.92173e-05
1.34248e-05
0
0
2.68048e-05
-5.77754e-05
3.09663e-05
-1.72835e-05
0
0
0
0
-2.64469e-05
2.72834e-05
-0.000137279
0.000188752
7.76513e-05
-0.000195024
-4.49934e-05
2.03565e-05
0
3.44012e-05
6.49866e-05
-3.05919e-05
4.30805e-05
-5.37705e-05
1.25544e-05
-7.0182e-05
3.37013e-05
-2.11603e-05
2.01767e-05
-2.65766e-05
2.51467e-05
7.17501e-06
-3.24808e-05
3.06968e-05
-3.16634e-05
-6.16689e-05
6.56904e-05
0
8.66795e-05
8.46289e-05
7.47325e-05
6.10582e-05
0
3.26335e-05
-1.84837e-15
-0.000101842
3.45082e-05
3.45943e-05
-3.45635e-05
8.56983e-05
1.69195e-05
-9.98189e-05
1.35928e-15
0.000128063
-0.000119584
5.48004e-05
-3.10053e-06
-7.79804e-05
1.54077e-05
5.88666e-05
1.38962e-05
-1.31049e-05
-1.23117e-05
3.46041e-05
1.07778e-05
-3.01229e-05
-2.79789e-05
2.5901e-05
-7.96128e-06
-2.9218e-05
3.33676e-05
2.41689e-05
-5.72403e-05
-3.2312e-05
3.33559e-05
-7.98543e-05
6.62405e-05
-7.18937e-05
-4.99466e-15
-1.11944e-05
2.39655e-05
2.58653e-05
-9.71852e-05
-1.55322e-05
0
1.92202e-05
-4.23639e-05
0.000114819
-0.000193499
-1.39091e-15
0.000227757
-0.000124637
0.000119938
-0.000158391
6.26827e-05
-3.78073e-05
3.42617e-05
-3.19766e-05
7.56485e-05
-8.56121e-05
1.34185e-05
-2.51602e-05
1.17667e-05
-3.29372e-05
7.35596e-05
-7.39449e-05
6.07677e-05
-4.52501e-05
5.18681e-05
7.51285e-16
-3.06302e-05
-5.80364e-06
-1.41306e-05
-4.12933e-05
-4.6904e-05
-0.000118312
-1.29132e-05
-5.04543e-05
-5.35231e-05
3.0371e-15
0
1.46551e-05
2.9947e-05
-9.17423e-05
1.72832e-15
0.000109413
-9.38584e-05
1.55417e-05
7.68427e-05
-0.000105971
2.97678e-05
2.92494e-05
3.74606e-05
-5.432e-05
6.56833e-05
-0.000129789
8.57782e-05
2.73716e-05
-1.29472e-05
-2.44654e-05
1.15112e-05
-5.40091e-05