/*--------------------------------*- C++ -*----------------------------------*\
| =========                 |                                                 |
| \\      /  F ield         | OpenFOAM: The Open Source CFD Toolbox           |
|  \\    /   O peration     | Version:  2506                                  |
|   \\  /    A nd           | Website:  www.openfoam.com                      |
|    \\/     M anipulation  |                                                 |
\*---------------------------------------------------------------------------*/
FoamFile
{
    version     2.0;
    format      ascii;
    arch        "LSB;label=32;scalar=64";
    class       volScalarField;
    location    "350";
    object      magR;
}
// * * * * * * * * * * * * * * * * * * * * * * * * * * * * * * * * * * * * * //

dimensions      [0 2 -2 0 0 0 0];

internalField   nonuniform List<scalar> 
10720
(
0.02354
0.0274646
0.0324797
0.0392922
0.0473635
0.0576377
0.0707744
0.0870485
0.107713
0.134078
0.168141
0.213113
0.273443
0.356447
0.474595
0.64748
0.913746
1.32402
2.04444
3.16555
5.69353
9.51418
22.2805
43.4753
48.1654
46.0806
45.2877
46.1208
47.1479
47.4055
46.7749
45.378
43.1224
40.0365
36.0508
31.2588
24.7548
18.295
4.26379
0.0200338
0.01719
0.014002
0.011268
0.00868648
0.00635984
0.00448092
0.00335201
0.00350605
0.00474302
0.0070544
0.0106237
0.0158788
0.0234957
0.0343362
0.0497121
0.0718202
0.104778
0.156198
0.239887
0.383306
0.636991
1.12092
2.05246
4.08335
8.35054
18.6641
38.46
54.5013
61.3855
63.3381
63.6579
63.2913
62.3959
61.018
59.2325
56.6204
53.5787
43.8851
0.00360478
0.00358447
0.0035431
0.00344057
0.00328206
0.00309983
0.00288486
0.00264319
0.00240402
0.00216953
0.00194597
0.00179073
0.00176942
0.00194412
0.00252497
0.00397341
0.0075925
0.0159191
0.0384515
0.0942444
0.279524
0.771672
2.37219
7.59805
14.855
22.3515
29.4217
34.4344
35.4327
32.5094
27.7053
22.8425
18.8982
15.8749
13.5526
11.7105
10.423
9.08047
9.75089
0.00357226
0.0035241
0.00342538
0.00327889
0.00307849
0.00281411
0.00250377
0.00220273
0.00192415
0.00164766
0.00138455
0.00115677
0.000964335
0.000801131
0.000662824
0.000546307
0.000447477
0.00036386
0.000290614
0.000223738
0.000157664
9.31609e-05
3.22831e-05
5.26529e-06
1.34078e-05
0.00191591
0.0103728
0.0836426
0.28172
0.551371
0.824356
1.06455
1.26664
1.4442
1.6101
1.78075
1.96128
2.36374
3.28775
0.00241984
0.00240073
0.00234659
0.00226382
0.00217727
0.00208208
0.00198586
0.00189937
0.00182497
0.00176725
0.00172261
0.00169705
0.00169024
0.00170505
0.00171053
0.00165734
0.00140703
0.00119023
2.15502e-05
0.00168944
0.000379217
0.00146909
5.20529e-05
0.0207769
0.226827
0.803498
2.03938
4.57691
9.03563
14.919
20.2303
22.8379
22.3231
20.0419
17.3877
14.896
12.9438
10.7155
12.0406
0.00243867
0.00243567
0.0024292
0.00238591
0.00230915
0.00218031
0.00200268
0.00179985
0.00161138
0.00141752
0.00120891
0.0010069
0.000826136
0.000670444
0.000541897
0.000438125
0.000357246
0.000295881
0.000251249
0.000219193
0.000197103
0.000182783
0.00017491
0.000170592
0.000170347
0.000169201
0.000179948
0.00010672
0.000756532
0.00502203
0.0142328
0.0299789
0.0675702
0.141395
0.250373
0.383833
0.528943
0.633134
1.08064
0.00204221
0.00204643
0.00203613
0.00201917
0.00198418
0.00193208
0.00186717
0.00178611
0.00169347
0.00159103
0.00148088
0.00136466
0.00124349
0.00111953
0.000993897
0.000861897
0.00072932
0.000615999
0.000471237
0.000338701
7.92838e-05
0.000145009
1.84956e-05
0.00520289
0.0268143
0.000375883
0.00490602
0.00710719
0.0510799
0.453814
1.96721
5.34342
10.0067
13.8802
15.5475
15.3211
14.4076
12.6092
13.5794
0.0020203
0.0019871
0.00193502
0.00187227
0.00179361
0.0016906
0.00157033
0.00144235
0.00130909
0.00116447
0.00101499
0.000874847
0.000751037
0.000644328
0.000554181
0.000478585
0.000416401
0.000365756
0.000325106
0.000292017
0.000265117
0.00024253
0.000222289
0.000201005
0.00017913
0.000160943
0.000147193
0.000137313
0.000125328
0.000109893
8.25168e-05
5.19444e-05
0.00041459
0.000705346
0.00263415
0.0141314
0.046716
0.117978
0.429364
0.00153214
0.00152942
0.00151749
0.00149618
0.00146324
0.00141856
0.00136453
0.00130207
0.0012331
0.00116187
0.00109072
0.00102247
0.000960183
0.000905713
0.000860438
0.000822382
0.00078236
0.000731605
0.000674134
0.000588905
0.000491927
0.000225899
2.75584e-05
5.52956e-06
0
1.89071e-05
0.00107262
0.00659897
0.033116
0.0171979
0.0374391
0.0656022
0.411752
2.40134
6.16095
9.98031
12.3922
12.8432
14.2947
0.00152818
0.00151735
0.00149582
0.00146138
0.00141279
0.00134394
0.00126155
0.00117311
0.00107881
0.000975288
0.000867593
0.000762229
0.000663274
0.000572458
0.000490972
0.000419365
0.000357813
0.000306027
0.000263409
0.000228665
0.000200611
0.000177735
0.000158415
0.000139984
0.000121267
0.000103967
9.02346e-05
8.0745e-05
7.65735e-05
7.07278e-05
8.65801e-05
2.03417e-05
0.000134518
0.000652962
0.00163576
0.00138252
0.00195856
0.00364649
0.0833273
0.00125584
0.00126117
0.0012607
0.0012562
0.00124384
0.00122386
0.00119707
0.00116242
0.00112068
0.00107292
0.00101957
0.000961878
0.000901239
0.000838698
0.000775363
0.00070973
0.000638222
0.000564829
0.000495623
0.000435705
0.000396382
0.000336909
0.000273881
7.11647e-05
1.25036e-05
5.76359e-06
1.20019e-06
0
0
0.00241936
0.00894375
0.0457361
0.00873822
0.11141
0.244258
2.28495
6.37362
10.2701
13.6412
0.00124447
0.00122872
0.00120585
0.00117569
0.00113692
0.00108598
0.00102736
0.000964481
0.000896088
0.000820473
0.000741293
0.000662491
0.000587086
0.000516814
0.000452925
0.000396199
0.000346891
0.00030485
0.00026961
0.000240247
0.000215733
0.00019478
0.000175934
0.000157176
0.000137703
0.000119161
0.000102985
8.94644e-05
7.81099e-05
6.86636e-05
6.05672e-05
5.32755e-05
4.27266e-05
2.99713e-05
6.10451e-07
0.000202218
0.000335114
0.000837004
0.00945528
0.00101589
0.00102035
0.00102104
0.0010185
0.00101038
0.000996325
0.000976671
0.000950838
0.000919067
0.000882232
0.000840949
0.000796247
0.000749509
0.000702076
0.000655063
0.000610008
0.000569165
0.000531146
0.000492266
0.000451251
0.000412738
0.000381288
0.000358441
0.000297859
0.000197108
0.000102032
1.805e-05
6.2681e-06
3.57598e-06
3.17366e-07
0
0
0.00112799
0.0352045
0.0267307
0.157083
1.04814
5.2393
10.9462
0.00100756
0.000996253
0.000979819
0.000957172
0.000927831
0.000890176
0.00084784
0.000801712
0.00075088
0.000695177
0.000636629
0.000577434
0.000519398
0.000463756
0.000411566
0.00036363
0.000320439
0.000282257
0.000249088
0.000220542
0.000196063
0.000174834
0.000155815
0.000137538
0.000119238
0.000101896
8.66387e-05
7.38061e-05
6.31352e-05
5.44561e-05
4.79848e-05
4.37464e-05
4.12098e-05
3.7249e-05
2.78657e-05
3.55489e-06
1.59469e-06
7.1107e-08
0.000262949
0.000842003
0.000847741
0.000851142
0.000852532
0.000850205
0.000843819
0.000833648
0.000818961
0.000799711
0.000776337
0.000748823
0.00071767
0.000683497
0.000646862
0.000608426
0.000568981
0.000527997
0.00048446
0.000440389
0.00039858
0.000361409
0.000332351
0.000312228
0.000298255
0.000269779
0.000224374
0.00016735
0.000110443
6.53353e-05
5.00566e-06
3.54594e-06
1.47882e-07
0
0
0.00386084
0.0664799
0.121991
1.19144
6.56028
0.000833355
0.000822946
0.000808998
0.00079049
0.000767279
0.00073852
0.000707124
0.000672485
0.000634144
0.000592567
0.000548647
0.000503781
0.000459085
0.000415405
0.000373574
0.000334408
0.0002984
0.000265981
0.000237325
0.000212248
0.000190356
0.000171034
0.000153441
0.000136468
0.000119544
0.000103402
8.8924e-05
7.63353e-05
6.5421e-05
5.58954e-05
4.77018e-05
4.06929e-05
3.46745e-05
2.95533e-05
2.60477e-05
2.36322e-05
1.78449e-05
1.83993e-06
1.76135e-05
0.000702375
0.000707905
0.000711944
0.000714453
0.000714372
0.000711298
0.000705318
0.000695799
0.000682636
0.000665941
0.000645661
0.000622106
0.000595669
0.000566769
0.000536069
0.000504026
0.000471391
0.000439414
0.000408239
0.000377835
0.000348602
0.000321896
0.000298837
0.000279193
0.000258346
0.000232455
0.000204214
0.000173799
0.00014731
0.00010704
7.05447e-05
2.97052e-06
1.89656e-06
0
0
0
0.0383006
0.161221
2.61409
0.000694776
0.000686005
0.00067465
0.000659588
0.000641199
0.000619006
0.000595111
0.000568615
0.000539326
0.000507843
0.000474578
0.000440369
0.000405845
0.000371537
0.000338007
0.000305895
0.000275681
0.000247768
0.00022239
0.000199587
0.000179195
0.000160829
0.000143895
0.00012765
0.000111694
9.64814e-05
8.27768e-05
7.08062e-05
6.04496e-05
5.15366e-05
4.39911e-05
3.79132e-05
3.32589e-05
3.0019e-05
2.81335e-05
2.83711e-05
3.05951e-05
3.23193e-05
1.21229e-06
0.000592123
0.000597529
0.000602064
0.000605573
0.000607195
0.000606773
0.000604246
0.000599041
0.000591094
0.000580392
0.000566723
0.000550259
0.000531204
0.000509758
0.000486229
0.000461016
0.000434595
0.000406941
0.000378236
0.00034971
0.000322888
0.000298826
0.000277784
0.000258136
0.000237116
0.000213111
0.000188335
0.000166531
0.000149732
0.000136161
0.000123117
8.9636e-05
3.78561e-05
3.31909e-06
0
0
0.000194459
0.0200967
0.687402
0.000585185
0.000577526
0.00056799
0.000555447
0.000540642
0.000523325
0.000504686
0.00048407
0.000461464
0.000437338
0.000411912
0.000385641
0.000358863
0.000331861
0.000305068
0.000278938
0.00025385
0.000230179
0.000208201
0.000188052
0.000169671
0.000152838
0.000137149
0.000122106
0.000107404
9.33863e-05
8.06187e-05
6.93609e-05
5.94919e-05
5.08437e-05
4.3389e-05
3.70364e-05
3.17622e-05
2.75993e-05
2.45641e-05
2.39761e-05
2.36313e-05
3.97419e-05
1.63489e-05
0.000502738
0.000507798
0.000512357
0.000516192
0.000518665
0.000519685
0.000519086
0.000516477
0.000511699
0.000504673
0.000495248
0.000483429
0.000469315
0.000452931
0.000434566
0.000414496
0.000393016
0.0003706
0.000347768
0.000324961
0.000302921
0.000282235
0.000263095
0.000244536
0.000224461
0.000201805
0.000178052
0.000156507
0.000139236
0.000126808
0.000117748
0.00011251
9.86885e-05
5.73133e-05
3.78948e-06
0
0
0.00634247
0.17594
0.000496508
0.000489875
0.000481885
0.000471377
0.000459309
0.000445631
0.000430848
0.000414557
0.000396958
0.000378288
0.000358638
0.00033829
0.000317436
0.000296196
0.000274812
0.000253608
0.000232849
0.000212834
0.00019387
0.000176082
0.000159506
0.000144042
0.000129439
0.000115401
0.000101727
8.86964e-05
7.67314e-05
6.60855e-05
5.6709e-05
4.84909e-05
4.14014e-05
3.54453e-05
3.06378e-05
2.70235e-05
2.45575e-05
2.42401e-05
2.41321e-05
3.42735e-05
4.26341e-05
0.000429718
0.000434458
0.0004389
0.000442843
0.000445804
0.000447753
0.000448507
0.000447714
0.000445241
0.000441039
0.000434876
0.000426763
0.000416668
0.000404615
0.000390711
0.000375123
0.00035811
0.00033999
0.000320909
0.000301289
0.000281983
0.000263658
0.000246464
0.000229662
0.000211668
0.000191519
0.000170226
0.000150227
0.0001333
0.000119719
0.000108727
0.000101686
9.84119e-05
9.48507e-05
6.18897e-05
3.04579e-06
0
0.000998865
0.0605577
0.000424143
0.000418339
0.000411549
0.000402724
0.000392773
0.000381796
0.000369929
0.000356901
0.00034304
0.000328441
0.00031313
0.000297276
0.000280965
0.0002642
0.000247142
0.000229984
0.000212874
0.000196089
0.000179835
0.000164282
0.00014953
0.000135537
0.00012215
0.000109202
9.66324e-05
8.46181e-05
7.35278e-05
6.35541e-05
5.47037e-05
4.69045e-05
4.01036e-05
3.43416e-05
2.95459e-05
2.58258e-05
2.31713e-05
2.24853e-05
2.27389e-05
2.92298e-05
4.66843e-05
0.00036935
0.000373722
0.000377949
0.000381839
0.000384997
0.000387424
0.000388983
0.000389364
0.000388422
0.000386125
0.000382263
0.000376763
0.000369571
0.000360709
0.000350178
0.000338091
0.000324593
0.000309981
0.000294465
0.000278356
0.000262197
0.000246435
0.000231208
0.000216017
0.000199795
0.000181851
0.000162896
0.000144839
0.000129163
0.000116006
0.000104773
9.54511e-05
8.90085e-05
8.65954e-05
9.12188e-05
4.66691e-05
3.56973e-08
0.000319245
0.0202002
0.000364397
0.000359309
0.000353507
0.000346048
0.00033777
0.000328848
0.00031919
0.000308684
0.000297645
0.000286129
0.000274112
0.000261664
0.00024883
0.000235585
0.000221959
0.000208064
0.000194029
0.000180019
0.00016618
0.000152677
0.000139615
0.000127012
0.000114811
0.000102924
9.13662e-05
8.03001e-05
7.00076e-05
6.0673e-05
5.23296e-05
4.49287e-05
3.84752e-05
3.29521e-05
2.8393e-05
2.4853e-05
2.23619e-05
2.16347e-05
2.19416e-05
2.69051e-05
4.29162e-05
0.000319056
0.000323045
0.000326996
0.000330733
0.000333956
0.000336646
0.000338698
0.000339808
0.000339953
0.000338984
0.000336769
0.000333221
0.000328305
0.000321932
0.00031413
0.000304918
0.00029438
0.000282756
0.000270177
0.000256845
0.00024312
0.000229505
0.000216087
0.000202525
0.000188071
0.000172185
0.000155386
0.00013919
0.000124889
0.000112665
0.000102095
9.28831e-05
8.51715e-05
7.94816e-05
7.83508e-05
9.58134e-05
2.96082e-06
3.2509e-05
0.00511225
0.00031462
0.000310149
0.000305166
0.000298808
0.00029189
0.000284533
0.000276594
0.000268053
0.000259203
0.000250024
0.000240494
0.000230669
0.000220533
0.00021002
0.000199125
0.000187909
0.000176411
0.000164738
0.000153026
0.000141386
0.00012991
0.000118656
0.000107616
9.67915e-05
8.6234e-05
7.60927e-05
6.6586e-05
5.79003e-05
5.00637e-05
4.3083e-05
3.69427e-05
3.16577e-05
2.7263e-05
2.37861e-05
2.12914e-05
2.04295e-05
2.06095e-05
2.49122e-05
3.85936e-05
0.000276793
0.000280411
0.000284083
0.000287601
0.00029075
0.00029356
0.000295851
0.000297445
0.00029827
0.000298238
0.00029719
0.000295084
0.000291827
0.000287341
0.000281617
0.000274671
0.000266525
0.000257313
0.00024722
0.000236339
0.000224888
0.000213284
0.000201605
0.000189615
0.000176824
0.000162792
0.000147937
0.000133429
0.00012036
0.000109049
9.92178e-05
9.06604e-05
8.3159e-05
7.75598e-05
6.98358e-05
8.75778e-05
4.12196e-05
4.78501e-07
0.000371764
0.000272829
0.000268901
0.00026456
0.000259132
0.000253304
0.000247168
0.000240589
0.000233593
0.000226431
0.000219054
0.00021145
0.000203634
0.000195586
0.000187203
0.000178475
0.000169419
0.000160014
0.000150325
0.000140455
0.000130461
0.000120458
0.000110489
0.000100576
9.07622e-05
8.11412e-05
7.18715e-05
6.31255e-05
5.50617e-05
4.77334e-05
4.11505e-05
3.53312e-05
3.03037e-05
2.60806e-05
2.27117e-05
2.02739e-05
1.93474e-05
1.94139e-05
2.30476e-05
3.48078e-05
0.000241049
0.0002443
0.000247706
0.000250984
0.000254
0.000256787
0.000259189
0.000261085
0.000262337
0.000262944
0.000262743
0.000261666
0.000259647
0.000256596
0.000252514
0.000247369
0.000241169
0.00023396
0.000225931
0.000217091
0.000207581
0.000197728
0.000187647
0.00017717
0.000165912
0.000153601
0.000140525
0.000127583
0.000115702
0.000105264
9.60962e-05
8.8108e-05
8.10705e-05
7.58864e-05
6.90786e-05
7.00503e-05
8.38461e-05
1.71019e-07
2.6315e-05
0.000237505
0.000234011
0.000230226
0.000225576
0.000220642
0.000215475
0.000209965
0.000204201
0.000198342
0.000192372
0.00018626
0.000180008
0.000173576
0.000166862
0.000159864
0.000152528
0.000144834
0.000136823
0.000128524
0.000120004
0.000111327
0.000102537
9.3693e-05
8.48684e-05
7.61584e-05
6.77112e-05
5.96954e-05
5.22392e-05
4.54083e-05
3.92307e-05
3.37182e-05
2.89409e-05
2.48758e-05
2.16149e-05
1.91981e-05
1.81819e-05
1.81479e-05
2.11935e-05
3.1377e-05
0.000210615
0.000213566
0.000216664
0.0002197
0.000222568
0.000225264
0.000227694
0.000229698
0.00023124
0.000232258
0.000232621
0.000232283
0.000231184
0.000229243
0.000226423
0.000222681
0.00021801
0.000212458
0.00020611
0.000199017
0.000191213
0.000182936
0.000174298
0.000165226
0.000155402
0.000144663
0.000133202
0.000121705
0.000110977
0.000101376
9.28429e-05
8.53511e-05
7.88062e-05
7.35147e-05
6.94108e-05
6.12124e-05
9.21586e-05
4.2497e-07
4.00123e-10
0.000207451
0.000204346
0.000201035
0.000197012
0.000192822
0.000188428
0.000183784
0.000178994
0.00017417
0.000169301
0.000164348
0.00015931
0.000154132
0.000148756
0.000143106
0.000137156
0.000130862
0.000124249
0.000117301
0.000110063
0.000102572
9.4876e-05
8.70342e-05
7.91237e-05
7.12702e-05
6.36092e-05
5.62824e-05
4.94085e-05
4.3064e-05
3.7281e-05
3.2083e-05
2.75412e-05
2.36464e-05
2.05009e-05
1.81245e-05
1.70241e-05
1.68969e-05
1.94199e-05
2.82031e-05
0.000184539
0.000187228
0.00019004
0.00019285
0.000195519
0.000198101
0.000200497
0.000202548
0.000204236
0.000205505
0.000206266
0.000206448
0.000206023
0.000204902
0.00020304
0.000200403
0.000196969
0.000192733
0.00018779
0.000182137
0.000175792
0.000168899
0.000161577
0.000153775
0.000145284
0.000135961
0.000125963
0.000115819
0.000106185
9.74013e-05
8.95237e-05
8.25106e-05
7.6412e-05
7.10752e-05
6.80556e-05
5.95151e-05
7.80756e-05
2.93853e-05
6.09336e-07
0.00018173
0.000178983
0.000176061
0.000172569
0.00016898
0.000165223
0.000161273
0.000157274
0.000153275
0.000149274
0.000145232
0.000141141
0.000136962
0.000132611
0.000128041
0.000123206
0.000118066
0.000112601
0.00010679
0.000100654
9.42229e-05
8.75275e-05
8.06215e-05
7.35675e-05
6.6506e-05
5.95811e-05
5.29101e-05
4.65979e-05
4.07259e-05
3.53302e-05
3.04507e-05
2.61268e-05
2.24073e-05
1.93615e-05
1.70239e-05
1.58542e-05
1.56301e-05
1.77196e-05
2.52626e-05
0.000162128
0.000164546
0.000167127
0.000169688
0.000172178
0.00017462
0.000176915
0.000178959
0.000180715
0.000182122
0.00018314
0.000183687
0.000183742
0.000183216
0.000182087
0.000180303
0.000177849
0.000174681
0.000170874
0.000166431
0.000161324
0.000155618
0.000149476
0.000142835
0.000135565
0.00012752
0.000118837
0.000109941
0.000101333
9.33658e-05
8.61261e-05
7.95961e-05
7.38863e-05
6.88015e-05
6.55494e-05
5.99476e-05
6.37755e-05
5.98679e-05
7.3448e-06
0.000159618
0.000157177
0.000154597
0.00015156
0.000148466
0.000145231
0.000141858
0.000138482
0.000135151
0.000131837
0.000128509
0.00012517
0.000121773
0.000118233
0.00011452
0.000110589
0.000106372
0.000101847
9.7001e-05
9.18222e-05
8.63179e-05
8.05136e-05
7.44457e-05
6.81963e-05
6.18878e-05
5.56524e-05
4.96004e-05
4.38241e-05
3.83943e-05
3.3379e-05
2.8804e-05
2.47106e-05
2.1163e-05
1.82086e-05
1.5901e-05
1.4673e-05
1.43677e-05
1.60962e-05
2.25333e-05
0.000142783
0.000144959
0.000147293
0.000149647
0.000151943
0.000154232
0.00015641
0.000158386
0.000160141
0.00016164
0.000162801
0.000163595
0.000163977
0.000163908
0.000163333
0.000162208
0.000160507
0.000158213
0.000155309
0.000151851
0.000147795
0.000143145
0.000138022
0.000132432
0.000126238
0.000119351
0.000111863
0.000104088
9.64524e-05
8.92717e-05
8.26428e-05
7.6611e-05
7.12564e-05
6.65549e-05
6.28598e-05
5.95655e-05
5.62522e-05
6.44281e-05
3.01419e-05
0.000140525
0.00013835
0.000136071
0.000133417
0.000130735
0.000127935
0.000125042
0.000122169
0.000119369
0.000116595
0.000113851
0.000111113
0.000108322
0.00010543
0.0001024
9.91794e-05
9.5711e-05
9.19785e-05
8.79286e-05
8.35641e-05
7.88713e-05
7.38672e-05
6.85679e-05
6.30439e-05
5.74276e-05
5.18288e-05
4.63548e-05
4.10906e-05
3.60944e-05
3.14315e-05
2.71485e-05
2.32999e-05
1.99079e-05
1.705e-05
1.47868e-05
1.34873e-05
1.31149e-05
1.45497e-05
2.00391e-05
0.000126002
0.00012796
0.000130065
0.000132211
0.000134335
0.000136462
0.000138514
0.000140408
0.000142128
0.000143639
0.000144887
0.000145839
0.000146459
0.000146701
0.000146524
0.00014591
0.00014479
0.000143169
0.000141019
0.000138381
0.000135192
0.000131442
0.00012723
0.000122558
0.000117334
0.000111471
0.000105045
9.82961e-05
9.15702e-05
8.51267e-05
7.91014e-05
7.35612e-05
6.85569e-05
6.42102e-05
6.03632e-05
5.79136e-05
5.32928e-05
5.79537e-05
4.69569e-05
0.00012398
0.000122028
0.000120012
0.000117689
0.000115338
0.000112906
0.000110418
0.000107971
0.000105592
0.000103271
0.000100982
9.87035e-05
9.63958e-05
9.40289e-05
9.15433e-05
8.88949e-05
8.60428e-05
8.2941e-05
7.95695e-05
7.58908e-05
7.18972e-05
6.75922e-05
6.29824e-05
5.81253e-05
5.31364e-05
4.81309e-05
4.31953e-05
3.84085e-05
3.38305e-05
2.95154e-05
2.55156e-05
2.18813e-05
1.86499e-05
1.5903e-05
1.3667e-05
1.23181e-05
1.1876e-05
1.30764e-05
1.77562e-05
0.000111389
0.00011315
0.000115072
0.000117024
0.000118968
0.000120934
0.000122845
0.000124643
0.000126305
0.000127794
0.000129073
0.000130118
0.000130886
0.000131355
0.000131474
0.00013122
0.000130571
0.000129483
0.000127934
0.000125957
0.000123496
0.0001205
0.00011707
0.000113203
0.00010884
0.000103895
9.84104e-05
9.25988e-05
8.67024e-05
8.09538e-05
7.55133e-05
7.04483e-05
6.58067e-05
6.17531e-05
5.80174e-05
5.55702e-05
5.17693e-05
5.14339e-05
5.0836e-05
0.000109596
0.000107836
0.000106043
0.000104016
0.000101946
9.98201e-05
9.7673e-05
9.55674e-05
9.35383e-05
9.15704e-05
8.96448e-05
8.77371e-05
8.58322e-05
8.38713e-05
8.18185e-05
7.96377e-05
7.72734e-05
7.47052e-05
7.18884e-05
6.87916e-05
6.54028e-05
6.17017e-05
5.76966e-05
5.34431e-05
4.90324e-05
4.45707e-05
4.01365e-05
3.57941e-05
3.16066e-05
2.76275e-05
2.39005e-05
2.04724e-05
1.74126e-05
1.47531e-05
1.25497e-05
1.1162e-05
1.06593e-05
1.16806e-05
1.56729e-05
9.86355e-05
0.00010023
0.000101969
0.000103737
0.00010552
0.000107335
0.000109108
0.000110788
0.000112374
0.000113821
0.000115093
0.000116173
0.000117037
0.000117651
0.000117996
0.000118019
0.000117706
0.000117037
0.000115965
0.000114514
0.000112651
0.000110308
0.00010754
0.000104386
0.000100765
9.66214e-05
9.19883e-05
8.70024e-05
8.1861e-05
7.67834e-05
7.18949e-05
6.72896e-05
6.30101e-05
5.9215e-05
5.5697e-05
5.30552e-05
5.01221e-05
4.71807e-05
4.83186e-05
9.70317e-05
9.54666e-05
9.38607e-05
9.20771e-05
9.02617e-05
8.83981e-05
8.65181e-05
8.46975e-05
8.29606e-05
8.12823e-05
7.96505e-05
7.80523e-05
7.64606e-05
7.48208e-05
7.31223e-05
7.13084e-05
6.9349e-05
6.72134e-05
6.48504e-05
6.22498e-05
5.93634e-05
5.61939e-05
5.27349e-05
4.90177e-05
4.51264e-05
4.1161e-05
3.71863e-05
3.32619e-05
2.94367e-05
2.57747e-05
2.23095e-05
1.90922e-05
1.61776e-05
1.361e-05
1.14523e-05
1.00201e-05
9.46893e-06
1.03579e-05
1.37928e-05
8.74797e-05
8.89126e-05
9.04792e-05
9.20889e-05
9.37186e-05
9.53847e-05
9.70262e-05
9.85944e-05
0.000100085
0.000101472
0.000102715
0.000103802
0.000104709
0.000105425
0.000105912
0.00010614
0.000106085
0.000105732
0.000105044
0.000104016
0.000102631
0.000100834
9.86357e-05
9.60889e-05
9.3117e-05
8.96732e-05
8.57794e-05
8.15253e-05
7.70857e-05
7.2627e-05
6.82633e-05
6.40982e-05
6.0172e-05
5.6622e-05
5.33294e-05
5.05826e-05
4.80489e-05
4.4386e-05
4.44356e-05
8.60367e-05
8.46334e-05
8.32043e-05
8.16259e-05
8.00185e-05
7.83917e-05
7.67392e-05
7.51613e-05
7.36609e-05
7.2226e-05
7.08305e-05
6.9487e-05
6.81374e-05
6.67675e-05
6.53417e-05
6.38295e-05
6.21976e-05
6.04026e-05
5.84332e-05
5.62321e-05
5.37906e-05
5.10817e-05
4.80904e-05
4.48491e-05
4.14258e-05
3.79059e-05
3.43547e-05
3.08188e-05
2.73402e-05
2.39705e-05
2.07632e-05
1.77433e-05
1.49673e-05
1.24919e-05
1.03824e-05
8.91029e-06
8.31848e-06
9.11378e-06
1.2098e-05
7.76806e-05
7.89754e-05
8.0391e-05
8.18557e-05
8.33385e-05
8.48634e-05
8.63764e-05
8.78306e-05
8.92273e-05
9.05364e-05
9.17311e-05
9.28104e-05
9.37306e-05
9.44945e-05
9.50805e-05
9.54525e-05
9.55935e-05
9.5475e-05
9.50822e-05
9.43992e-05
9.34011e-05
9.20541e-05
9.03339e-05
8.82921e-05
8.58841e-05
8.3052e-05
7.97971e-05
7.6203e-05
7.23887e-05
6.84948e-05
6.46284e-05
6.08797e-05
5.73034e-05
5.3999e-05
5.09125e-05
4.81717e-05
4.57186e-05
4.21062e-05
4.09027e-05
7.6394e-05
7.51392e-05
7.38584e-05
7.24579e-05
7.10358e-05
6.95966e-05
6.81572e-05
6.67827e-05
6.54786e-05
6.42295e-05
6.30383e-05
6.18814e-05
6.07425e-05
5.95893e-05
5.83839e-05
5.71165e-05
5.57446e-05
5.42479e-05
5.2588e-05
5.07342e-05
4.86649e-05
4.63378e-05
4.37603e-05
4.0941e-05
3.79397e-05
3.48252e-05
3.16532e-05
2.84705e-05
2.5317e-05
2.22268e-05
1.92569e-05
1.64326e-05
1.38085e-05
1.14129e-05
9.34416e-06
7.8406e-06
7.20914e-06
7.94303e-06
1.05769e-05
6.90675e-05
7.02323e-05
7.15103e-05
7.2836e-05
7.41891e-05
7.55826e-05
7.69694e-05
7.83141e-05
7.96176e-05
8.08472e-05
8.19801e-05
8.30185e-05
8.3942e-05
8.47258e-05
8.5368e-05
8.58378e-05
8.6114e-05
8.61804e-05
8.60111e-05
8.55891e-05
8.49098e-05
8.39296e-05
8.26109e-05
8.10027e-05
7.90706e-05
7.67646e-05
7.40708e-05
7.10488e-05
6.78011e-05
6.442e-05
6.10149e-05
5.76618e-05
5.44125e-05
5.13515e-05
4.84567e-05
4.57893e-05
4.33168e-05
3.98953e-05
3.78875e-05
6.79096e-05
6.67884e-05
6.56451e-05
6.44003e-05
6.31437e-05
6.18587e-05
6.05979e-05
5.93891e-05
5.82538e-05
5.717e-05
5.61397e-05
5.51453e-05
5.41756e-05
5.31842e-05
5.21723e-05
5.11016e-05
4.99468e-05
4.86874e-05
4.72863e-05
4.57209e-05
4.39492e-05
4.19681e-05
3.97461e-05
3.72925e-05
3.46614e-05
3.19133e-05
2.90924e-05
2.62337e-05
2.33752e-05
2.05524e-05
1.78033e-05
1.51665e-05
1.26769e-05
1.03825e-05
8.33891e-06
6.81412e-06
6.14633e-06
6.85188e-06
9.21141e-06
6.14711e-05
6.25207e-05
6.36768e-05
6.48811e-05
6.61062e-05
6.73792e-05
6.86495e-05
6.98855e-05
7.10914e-05
7.22401e-05
7.33152e-05
7.43064e-05
7.52029e-05
7.59912e-05
7.66598e-05
7.71904e-05
7.75674e-05
7.7761e-05
7.77647e-05
7.75483e-05
7.71191e-05
7.64262e-05
7.54398e-05
7.41999e-05
7.26774e-05
7.08128e-05
6.85996e-05
6.6083e-05
6.33297e-05
6.04175e-05
5.74388e-05
5.44501e-05
5.15134e-05
4.87027e-05
4.59851e-05
4.34173e-05
4.09396e-05
3.76711e-05
3.52097e-05
6.04372e-05
5.94287e-05
5.84002e-05
5.73032e-05
5.61857e-05
5.50479e-05
5.39286e-05
5.2865e-05
5.18675e-05
5.09271e-05
5.00285e-05
4.91708e-05
4.83308e-05
4.74842e-05
4.66217e-05
4.57099e-05
4.47337e-05
4.36685e-05
4.24791e-05
4.11496e-05
3.96512e-05
3.79547e-05
3.60346e-05
3.39073e-05
3.16058e-05
2.91777e-05
2.66709e-05
2.41128e-05
2.15258e-05
1.89505e-05
1.64162e-05
1.39573e-05
1.15986e-05
9.39462e-06
7.38899e-06
5.83345e-06
5.13676e-06
5.84948e-06
8.0005e-06
5.47668e-05
5.57122e-05
5.67567e-05
5.78429e-05
5.89587e-05
6.01198e-05
6.12726e-05
6.24133e-05
6.35216e-05
6.45899e-05
6.55981e-05
6.65322e-05
6.73959e-05
6.81742e-05
6.88509e-05
6.94097e-05
6.98498e-05
7.01425e-05
7.02675e-05
7.02136e-05
6.99794e-05
6.95219e-05
6.88081e-05
6.78588e-05
6.6677e-05
6.51903e-05
6.33872e-05
6.13102e-05
5.89886e-05
5.65048e-05
5.39085e-05
5.1264e-05
4.86295e-05
4.60517e-05
4.35118e-05
4.10554e-05
3.86065e-05
3.54635e-05
3.27583e-05
5.38391e-05
5.29352e-05
5.2012e-05
5.10358e-05
5.00371e-05
4.90318e-05
4.80372e-05
4.7103e-05
4.62217e-05
4.53922e-05
4.46134e-05
4.38622e-05
4.31307e-05
4.24057e-05
4.16616e-05
4.08886e-05
4.0053e-05
3.91441e-05
3.81438e-05
3.70104e-05
3.57306e-05
3.42723e-05
3.26221e-05
3.07735e-05
2.87604e-05
2.66237e-05
2.43995e-05
2.21096e-05
1.97755e-05
1.74276e-05
1.50952e-05
1.28042e-05
1.05885e-05
8.4699e-06
6.50379e-06
4.91597e-06
4.18305e-06
4.92783e-06
6.93908e-06
4.88388e-05
4.96846e-05
5.06281e-05
5.16114e-05
5.26251e-05
5.36743e-05
5.47289e-05
5.57772e-05
5.67965e-05
5.77791e-05
5.87185e-05
5.95996e-05
6.04188e-05
6.11707e-05
6.18405e-05
6.24164e-05
6.289e-05
6.32463e-05
6.34668e-05
6.35325e-05
6.34433e-05
6.31714e-05
6.26804e-05
6.19786e-05
6.10683e-05
5.9899e-05
5.84518e-05
5.67399e-05
5.48071e-05
5.26928e-05
5.04448e-05
4.81256e-05
4.57668e-05
4.34088e-05
4.10546e-05
3.8712e-05
3.63176e-05
3.32931e-05
3.04731e-05
4.80072e-05
4.71966e-05
4.63681e-05
4.5491e-05
4.46047e-05
4.37099e-05
4.28303e-05
4.19954e-05
4.12194e-05
4.04893e-05
3.98039e-05
3.91447e-05
3.85049e-05
3.78766e-05
3.72406e-05
3.65723e-05
3.58589e-05
3.5087e-05
3.42259e-05
3.32592e-05
3.21659e-05
3.0917e-05
2.94937e-05
2.78889e-05
2.61233e-05
2.42466e-05
2.22783e-05
2.02294e-05
1.81307e-05
1.59979e-05
1.38529e-05
1.17235e-05
9.63954e-06
7.61533e-06
5.69276e-06
4.07159e-06
3.29043e-06
4.09307e-06
6.0167e-06
4.35781e-05
4.43437e-05
4.51963e-05
4.60843e-05
4.70012e-05
4.7956e-05
4.892e-05
4.987e-05
5.0807e-05
5.17155e-05
5.25815e-05
5.34048e-05
5.41783e-05
5.48969e-05
5.5549e-05
5.61231e-05
5.6616e-05
5.70089e-05
5.72936e-05
5.74485e-05
5.74705e-05
5.73405e-05
5.70211e-05
5.65298e-05
5.58458e-05
5.49373e-05
5.37861e-05
5.23922e-05
5.07877e-05
4.90009e-05
4.70745e-05
4.50422e-05
4.29366e-05
4.07981e-05
3.86198e-05
3.63987e-05
3.40834e-05
3.11896e-05
2.83339e-05
4.28333e-05
4.21121e-05
4.13695e-05
4.05857e-05
3.97912e-05
3.89955e-05
3.82152e-05
3.74787e-05
3.67855e-05
3.61414e-05
3.55289e-05
3.49539e-05
3.43948e-05
3.38449e-05
3.32912e-05
3.2708e-05
3.20982e-05
3.14328e-05
3.06974e-05
2.98764e-05
2.89347e-05
2.78643e-05
2.66301e-05
2.52363e-05
2.36981e-05
2.20492e-05
2.03019e-05
1.84763e-05
1.65904e-05
1.4658e-05
1.26953e-05
1.07211e-05
8.76246e-06
6.83224e-06
4.9607e-06
3.30219e-06
2.46581e-06
3.36146e-06
5.22157e-06
3.89166e-05
3.96046e-05
4.03729e-05
4.11762e-05
4.20032e-05
4.28708e-05
4.37464e-05
4.46157e-05
4.54726e-05
4.63026e-05
4.71066e-05
4.78749e-05
4.85945e-05
4.92714e-05
4.98967e-05
5.04605e-05
5.09588e-05
5.1376e-05
5.16977e-05
5.1918e-05
5.20226e-05
5.2001e-05
5.18201e-05
5.14849e-05
5.09878e-05
5.02913e-05
4.93878e-05
4.82656e-05
4.69459e-05
4.54461e-05
4.37956e-05
4.20248e-05
4.01612e-05
3.82291e-05
3.62228e-05
3.41325e-05
3.19076e-05
2.91521e-05
2.63324e-05
3.82478e-05
3.75984e-05
3.69347e-05
3.62382e-05
3.55288e-05
3.48142e-05
3.41186e-05
3.34675e-05
3.28547e-05
3.22736e-05
3.17372e-05
3.12298e-05
3.07352e-05
3.02534e-05
2.97635e-05
2.9262e-05
2.87328e-05
2.81594e-05
2.75323e-05
2.68179e-05
2.6015e-05
2.50897e-05
2.40271e-05
2.28162e-05
2.14711e-05
2.00196e-05
1.84764e-05
1.68551e-05
1.516e-05
1.34086e-05
1.162e-05
9.80135e-06
7.96977e-06
6.14322e-06
4.32731e-06
2.63498e-06
1.70518e-06
2.74026e-06
4.54776e-06
3.4774e-05
3.53934e-05
3.60867e-05
3.68093e-05
3.75588e-05
3.83462e-05
3.91424e-05
3.99319e-05
4.07135e-05
4.14777e-05
4.22113e-05
4.29189e-05
4.35955e-05
4.42343e-05
4.48257e-05
4.53675e-05
4.58552e-05
4.62819e-05
4.66308e-05
4.6891e-05
4.70618e-05
4.71202e-05
4.70432e-05
4.68325e-05
4.6479e-05
4.59635e-05
4.52571e-05
4.43607e-05
4.32828e-05
4.20338e-05
4.06288e-05
3.90998e-05
3.74522e-05
3.57128e-05
3.38725e-05
3.19146e-05
2.97987e-05
2.71954e-05
2.44535e-05
3.41748e-05
3.3594e-05
3.30017e-05
3.2375e-05
3.1744e-05
3.11065e-05
3.04892e-05
2.98992e-05
2.93549e-05
2.88435e-05
2.83639e-05
2.79093e-05
2.7475e-05
2.70515e-05
2.662e-05
2.61859e-05
2.57257e-05
2.52296e-05
2.46811e-05
2.40717e-05
2.33809e-05
2.25818e-05
2.16661e-05
2.06086e-05
1.9434e-05
1.81601e-05
1.67973e-05
1.53554e-05
1.38371e-05
1.22603e-05
1.06309e-05
8.96079e-06
7.26387e-06
5.54585e-06
3.80774e-06
2.09948e-06
1.01522e-06
2.2444e-06
3.99366e-06
3.10901e-05
3.16495e-05
3.22718e-05
3.29233e-05
3.36023e-05
3.43145e-05
3.50366e-05
3.57515e-05
3.64644e-05
3.71643e-05
3.7838e-05
3.84891e-05
3.91145e-05
3.97085e-05
4.02705e-05
4.07879e-05
4.12598e-05
4.16786e-05
4.20418e-05
4.23275e-05
4.25361e-05
4.26584e-05
4.26608e-05
4.25462e-05
4.23133e-05
4.19351e-05
4.13925e-05
4.06856e-05
3.9812e-05