/*--------------------------------*- C++ -*----------------------------------*\
| =========                 |                                                 |
| \\      /  F ield         | OpenFOAM: The Open Source CFD Toolbox           |
|  \\    /   O peration     | Version:  2506                                  |
|   \\  /    A nd           | Website:  www.openfoam.com                      |
|    \\/     M anipulation  |                                                 |
\*---------------------------------------------------------------------------*/
FoamFile
{
    version     2.0;
    format      ascii;
    arch        "LSB;label=32;scalar=64";
    class       volScalarField;
    location    "350";
    object      static(p)_coeff;
}
// * * * * * * * * * * * * * * * * * * * * * * * * * * * * * * * * * * * * * //

dimensions      [0 0 0 0 0 0 0];

internalField   nonuniform List<scalar> 
10720
(
-0.184303
-0.395166
-0.643184
-0.887618
-1.11349
-1.34357
-1.54771
-1.71909
-1.86798
-1.98447
-2.07317
-2.13848
-2.18376
-2.21114
-2.22116
-2.21188
-2.186
-2.1404
-2.0793
-2.0029
-1.92113
-1.84302
-1.77618
-1.69645
-1.57742
-1.42632
-1.27138
-1.13652
-1.02045
-0.911254
-0.803314
-0.696346
-0.590487
-0.484641
-0.377623
-0.266369
-0.152489
-0.0204663
0.0768931
0.0268002
0.219191
0.424292
0.615783
0.77942
0.903413
0.976608
1.00113
0.994033
0.955871
0.893673
0.824036
0.754394
0.687005
0.623763
0.564272
0.5087
0.45576
0.404666
0.353957
0.303481
0.252325
0.200759
0.150003
0.105581
0.0705707
0.0418358
0.018523
0.00117959
-0.010297
-0.016641
-0.018291
-0.0154915
-0.00826116
0.00342587
0.0206151
0.0450043
0.0861864
0.156254
0.127742
-0.0324438
-0.211908
-0.402513
-0.598385
-0.798856
-0.993423
-1.17593
-1.34438
-1.49354
-1.62282
-1.73222
-1.82148
-1.89057
-1.93897
-1.96578
-1.97323
-1.96096
-1.93209
-1.88825
-1.83726
-1.78611
-1.738
-1.67174
-1.56303
-1.41792
-1.26663
-1.13335
-1.01784
-0.908879
-0.801021
-0.694163
-0.588517
-0.482955
-0.376247
-0.265282
-0.151635
-0.0195661
0.0759774
0.271884
0.409284
0.546338
0.67854
0.795043
0.888124
0.9485
0.974221
0.970009
0.938396
0.887574
0.827837
0.764947
0.701688
0.640153
0.581073
0.524832
0.470899
0.418678
0.367208
0.316185
0.265009
0.213918
0.16417
0.12012
0.0845114
0.0553242
0.0313328
0.0124308
-0.00108557
-0.00925437
-0.0123553
-0.0106944
-0.00436883
0.0066178
0.0232838
0.0472803
0.0882297
0.155544
0.168503
0.0245796
-0.137475
-0.316401
-0.501912
-0.692051
-0.88219
-1.06446
-1.23418
-1.3884
-1.52341
-1.63757
-1.72999
-1.80122
-1.85195
-1.88343
-1.89573
-1.88905
-1.86529
-1.8266
-1.77848
-1.72696
-1.67544
-1.61073
-1.51259
-1.38213
-1.24339
-1.11759
-1.00625
-0.900325
-0.794972
-0.690028
-0.585622
-0.480804
-0.374597
-0.264023
-0.150688
-0.0188278
0.0763388
0.298376
0.424555
0.550054
0.668873
0.77152
0.853198
0.907684
0.934068
0.934541
0.911068
0.869803
0.817698
0.760028
0.700244
0.640747
0.582824
0.527062
0.473365
0.421304
0.370163
0.319548
0.269041
0.218831
0.170048
0.126132
0.0897533
0.0598157
0.0352691
0.016072
0.00248301
-0.0056854
-0.00890026
-0.00751042
-0.00155802
0.0090478
0.0253781
0.0491136
0.0896654
0.154373
0.235386
0.114736
-0.023092
-0.174664
-0.333796
-0.500285
-0.669205
-0.835353
-0.994808
-1.14415
-1.28007
-1.40041
-1.50378
-1.58975
-1.65795
-1.70875
-1.7408
-1.75399
-1.74924
-1.72836
-1.69517
-1.65425
-1.60807
-1.54814
-1.45988
-1.34314
-1.21631
-1.09776
-0.990605
-0.887979
-0.785555
-0.683056
-0.580647
-0.477424
-0.372373
-0.262603
-0.149804
-0.018534
0.0769485
0.343454
0.447239
0.551337
0.651771
0.739678
0.811323
0.861341
0.888301
0.89293
0.8766
0.844028
0.80037
0.749954
0.696029
0.640925
0.58608
0.532298
0.479837
0.428527
0.377939
0.32778
0.277826
0.228288
0.18023
0.136487
0.0995748
0.0689975
0.0437987
0.0238495
0.00933228
8.10862e-05
-0.00421298
-0.00377448
0.00141215
0.0114499
0.0273784
0.0508218
0.0908616
0.153058
0.25351
0.14609
0.0227969
-0.113778
-0.257559
-0.409763
-0.566328
-0.722484
-0.875248
-1.02119
-1.15693
-1.28006
-1.38858
-1.48101
-1.55646
-1.61403
-1.65296
-1.67328
-1.67568
-1.662
-1.63527
-1.59929
-1.55596
-1.49925
-1.41787
-1.3108
-1.19249
-1.07923
-0.975179
-0.875151
-0.775214
-0.674955
-0.574494
-0.472951
-0.369353
-0.260831
-0.148943
-0.0186583
0.0771381
0.34997
0.44211
0.534779
0.624174
0.702477
0.767109
0.813944
0.841263
0.849151
0.838855
0.813775
0.777805
0.734325
0.686171
0.635571
0.584024
0.532525
0.481597
0.431349
0.381604
0.332196
0.28304
0.234384
0.187211
0.143862
0.106625
0.0754743
0.0496514
0.0290411
0.0138443
0.00398215
-0.000798522
-0.00074011
0.00412688
0.0138854
0.029557
0.0527281
0.0921488
0.151718
0.264731
0.169628
0.0598973
-0.0615582
-0.18946
-0.325881
-0.467027
-0.609113
-0.749954
-0.886423
-1.01565
-1.13536
-1.24339
-1.33795
-1.4178
-1.48181
-1.52963
-1.56068
-1.57499
-1.57362
-1.55858
-1.53251
-1.49659
-1.44649
-1.37358
-1.2766
-1.16727
-1.06003
-0.959692
-0.862476
-0.764959
-0.666785
-0.568159
-0.468251
-0.366093
-0.258902
-0.148168
-0.0192894
0.0768006
0.350138
0.431414
0.513749
0.593762
0.664232
0.72325
0.767476
0.794895
0.805239
0.799735
0.780881
0.751678
0.714773
0.672526
0.626937
0.579419
0.531023
0.482416
0.433905
0.385532
0.337272
0.289166
0.241518
0.195259
0.152386
0.114978
0.083367
0.0570217
0.0358426
0.0200193
0.00951052
0.0040695
0.00346837
0.0076973
0.0168806
0.0320542
0.0547664
0.0933917
0.150261
0.264497
0.178665
0.0793721
-0.0306318
-0.146245
-0.27023
-0.399227
-0.529914
-0.660834
-0.789213
-0.912565
-1.02886
-1.13589
-1.23173
-1.31485
-1.38392
-1.43772
-1.47548
-1.49675
-1.50236
-1.49391
-1.47349
-1.44205
-1.3966
-1.33069
-1.24284
-1.1421
-1.0409
-0.944382
-0.850036
-0.754967
-0.658834
-0.561897
-0.463495
-0.362789
-0.257039
-0.147668
-0.0205376
0.0758588
0.341655
0.41485
0.489376
0.562101
0.626399
0.680921
0.722919
0.750196
0.762353
0.760599
0.746842
0.723425
0.692436
0.655776
0.615153
0.571829
0.526805
0.480843
0.434381
0.387635
0.340729
0.29383
0.247295
0.202018
0.15973
0.122321
0.0903712
0.0635722
0.0418565
0.0254119
0.0142399
0.00814861
0.00694521
0.010646
0.0193885
0.0341898
0.0565307
0.0943468
0.148584
0.259532
0.181621
0.0913044
-0.00866543
-0.11345
-0.226181
-0.343761
-0.463306
-0.583856
-0.703051
-0.818745
-0.929244
-1.03251
-1.12666
-1.21004
-1.28113
-1.33858
-1.38168
-1.40982
-1.42321
-1.42272
-1.40963
-1.38441
-1.3449
-1.28637
-1.20746
-1.11519
-1.02022
-0.927836
-0.836648
-0.744298
-0.650461
-0.555422
-0.45862
-0.359367
-0.255125
-0.147387
-0.0223558
0.0741595
0.329673
0.396068
0.464051
0.530715
0.589881
0.64067
0.680669
0.707595
0.721082
0.722227
0.712573
0.694021
0.668223
0.636707
0.600884
0.56182
0.520428
0.477462
0.43344
0.388688
0.34346
0.298018
0.252775
0.208593
0.167025
0.129794
0.0976504
0.0704983
0.0483242
0.0313227
0.0195424
0.0128384
0.0110421
0.014181
0.0224109
0.0367347
0.0585722
0.0953791
0.146901
0.250969
0.179629
0.096832
0.00525376
-0.0904345
-0.193553
-0.301304
-0.411082
-0.522359
-0.633069
-0.741426
-0.846063
-0.945139
-1.03689
-1.11969
-1.19195
-1.25221
-1.29939
-1.33264
-1.35165
-1.3569
-1.34927
-1.32903
-1.29464
-1.24264
-1.1718
-1.08746
-0.99862
-0.9105
-0.82259
-0.733059
-0.641626
-0.548604
-0.453536
-0.355817
-0.253109
-0.147141
-0.0244639
0.0716459
0.315289
0.376082
0.438628
0.500211
0.555046
0.602677
0.640851
0.667288
0.681702
0.685079
0.678717
0.664203
0.642886
0.615978
0.58464
0.549722
0.512022
0.472233
0.430879
0.388363
0.34503
0.301221
0.257401
0.214412
0.173671
0.136765
0.104556
0.0771378
0.0545655
0.0370485
0.0246783
0.0173609
0.014963
0.0175354
0.0252545
0.0391031
0.0604253
0.0961692
0.145041
0.240478
0.174777
0.0984715
0.0141772
-0.0736167
-0.168305
-0.267286
-0.368208
-0.470842
-0.573376
-0.674348
-0.772664
-0.866694
-0.954903
-1.03573
-1.10757
-1.16894
-1.21863
-1.25572
-1.2796
-1.29028
-1.28815
-1.27316
-1.24413
-1.19856
-1.13538
-1.05869
-0.976002
-0.892306
-0.807827
-0.72123
-0.632308
-0.541408
-0.44817
-0.352097
-0.251003
-0.146845
-0.0266911
0.0684648
0.299817
0.355829
0.413735
0.470964
0.522078
0.566946
0.603443
0.629294
0.644317
0.649399
0.645672
0.634485
0.616981
0.59414
0.566898
0.535927
0.501876
0.46535
0.426841
0.386777
0.345554
0.303573
0.261333
0.21966
0.179876
0.143459
0.111336
0.0837645
0.0608799
0.0429137
0.0300006
0.0221019
0.0191187
0.0211207
0.0283062
0.0416314
0.0623615
0.0969027
0.143092
0.228846
0.168014
0.0973325
0.019355
-0.0615759
-0.148894
-0.240154
-0.333217
-0.428025
-0.523016
-0.616996
-0.709124
-0.797972
-0.882205
-0.960411
-1.03107
-1.09269
-1.14398
-1.18387
-1.21152
-1.2265
-1.22889
-1.2185
-1.19439
-1.15472
-1.09862
-1.02915
-0.952502
-0.873326
-0.79239
-0.708828
-0.622521
-0.533842
-0.442536
-0.34821
-0.248832
-0.146487
-0.0290641
0.0648106
0.283883
0.335787
0.389676
0.44313
0.491006
0.533419
0.568345
0.593558
0.608938
0.615316
0.613677
0.605226
0.590946
0.571649
0.548092
0.520792
0.490255
0.456979
0.421396
0.383923
0.344971
0.304975
0.264452
0.224206
0.185497
0.149714
0.117816
0.090199
0.067082
0.0487258
0.0353099
0.0268497
0.0232885
0.0247176
0.0313591
0.0441382
0.0642338
0.097494
0.141038
0.216676
0.160112
0.0943731
0.0219517
-0.0529544
-0.13376
-0.21815
-0.304153
-0.391859
-0.479882
-0.567242
-0.653318
-0.736883
-0.816807
-0.891821
-0.960517
-1.02147
-1.07335
-1.11501
-1.14552
-1.1641
-1.17054
-1.16447
-1.14508
-1.11099
-1.06149
-0.998851
-0.928132
-0.853553
-0.776279
-0.695861
-0.612275
-0.525917
-0.436644
-0.344164
-0.246622
-0.146121
-0.0316295
0.0607619
0.267954
0.316271
0.366643
0.416761
0.461791
0.501986
0.53543
0.559971
0.575518
0.582859
0.582883
0.576674
0.565103
0.548862
0.52858
0.504639
0.477421
0.447313
0.414673
0.379874
0.343318
0.305442
0.26676
0.228058
0.190545
0.155539
0.124012
0.0964679
0.0732109
0.0545386
0.0406737
0.0316869
0.0275663
0.0284237
0.034506
0.0467015
0.0661002
0.0979802
0.138893
0.204352
0.151553
0.090194
0.022694
-0.0468834
-0.121905
-0.200174
-0.279841
-0.361121
-0.442775
-0.52398
-0.604298
-0.682678
-0.758183
-0.829706
-0.895977
-0.955646
-1.00742
-1.05007
-1.08262
-1.10403
-1.11385
-1.11158
-1.09651
-1.06758
-1.02416
-0.967939
-0.902975
-0.833025
-0.759505
-0.682326
-0.601559
-0.517633
-0.430494
-0.33996
-0.244371
-0.145809
-0.0343894
0.0563352
0.252296
0.297462
0.344708
0.391853
0.434342
0.472525
0.504565
0.528411
0.543981
0.552026
0.553366
0.548989
0.539686
0.526071
0.508664
0.487755
0.463619
0.436546
0.406805
0.374709
0.340623
0.304963
0.268228
0.231177
0.194972
0.160875
0.129858
0.102507
0.0792038
0.0602898
0.0460306
0.0365522
0.0318906
0.032179
0.0376907
0.0492742
0.0679249
0.0983482
0.136666
0.192127
0.142683
0.0852399
0.022137
-0.0426877
-0.112541
-0.185326
-0.259292
-0.334752
-0.410582
-0.486078
-0.560956
-0.634326
-0.7054
-0.773262
-0.836761
-0.894646
-0.94569
-0.988626
-1.02248
-1.04607
-1.05871
-1.05982
-1.0487
-1.02452
-0.986724
-0.936508
-0.877103
-0.811779
-0.742086
-0.668226
-0.590372
-0.508978
-0.424076
-0.335595
-0.24207
-0.145574
-0.0373352
0.0515737
0.237095
0.27945
0.323902
0.368374
0.408577
0.444902
0.47561
0.498753
0.514234
0.522785
0.525163
0.522273
0.51487
0.503497
0.488598
0.470402
0.449093
0.424877
0.39794
0.368521
0.336935
0.303558
0.268856
0.233552
0.198761
0.1657
0.135328
0.108289
0.08504
0.0659657
0.0513752
0.0414481
0.0362697
0.0359967
0.0409272
0.0518665
0.069715
0.09861
0.134367
0.180168
0.133741
0.0798214
0.0206756
-0.0398872
-0.105098
-0.172941
-0.241769
-0.311944
-0.382441
-0.452672
-0.522457
-0.591046
-0.657805
-0.721943
-0.782461
-0.838219
-0.888062
-0.930755
-0.965303
-0.990468
-1.00538
-1.00938
-1.00181
-0.981956
-0.94931
-0.904685
-0.850607
-0.789864
-0.724043
-0.653566
-0.578712
-0.499948
-0.417391
-0.331063
-0.239713
-0.1454
-0.0404595
0.0465148
0.22246
0.262286
0.304215
0.346264
0.384384
0.418991
0.44844
0.470872
0.486179
0.495076
0.498262
0.496587
0.490769
0.481304
0.468588
0.452796
0.434056
0.412493
0.388227
0.36142
0.332323
0.301263
0.268656
0.235174
0.201891
0.16998
0.14038
0.113773
0.0906803
0.0715303
0.0566745
0.0463451
0.0406787
0.0398538
0.0441953
0.054462
0.0714581
0.0987659
0.132008
0.168584
0.124893
0.0741633
0.0186021
-0.0381163
-0.0991273
-0.162497
-0.226672
-0.292041
-0.35766
-0.423041
-0.488084
-0.552151
-0.614736
-0.675176
-0.732603
-0.785989
-0.834279
-0.876284
-0.910988
-0.937212
-0.953904
-0.960358
-0.955924
-0.939975
-0.912023
-0.872577
-0.823572
-0.767337
-0.705406
-0.638372
-0.566588
-0.490545
-0.410431
-0.326366
-0.2373
-0.145281
-0.0437422
0.0411765
0.208453
0.245992
0.285621
0.325458
0.361668
0.394678
0.422934
0.444654
0.459724
0.468837
0.472653
0.471966
0.467467
0.45962
0.448795
0.435123
0.418695
0.399573
0.377815
0.353519
0.326863
0.298122
0.267643
0.236046
0.204354
0.173695
0.144984
0.118927
0.0960931
0.0769553
0.0619057
0.0512261
0.0451037
0.043741
0.0474877
0.0570548
0.0731509
0.0988235
0.129601
0.157448
0.116246
0.0684236
0.0161306
-0.0371006
-0.094293
-0.153604
-0.213543
-0.27453
-0.335695
-0.396612
-0.457242
-0.517059
-0.575648
-0.632474
-0.686777
-0.737652
-0.784132
-0.825101
-0.859539
-0.886352
-0.904374
-0.912849
-0.911142
-0.898683
-0.874985
-0.840313
-0.796102
-0.744263
-0.686218
-0.622654
-0.554005
-0.480772
-0.403202
-0.321501
-0.23483
-0.145207
-0.0471597
0.0355785
0.195105
0.230564
0.268089
0.305889
0.340339
0.371855
0.398975
0.419991
0.434771
0.444
0.448298
0.448413
0.445011
0.438546
0.429347
0.417539
0.403173
0.386277
0.366853
0.344939
0.320652
0.294193
0.265853
0.236181
0.206143
0.176827
0.149114
0.123718
0.101245
0.0822087
0.0670397
0.0560657
0.0495239
0.0476418
0.0507904
0.0596341
0.0747872
0.0987886
0.127157
0.146801
0.107878
0.0627268
0.0134176
-0.0366247
-0.0903392
-0.145941
-0.20202
-0.259001
-0.316079
-0.372878
-0.429427
-0.485262
-0.540068
-0.593398
-0.644601
-0.692891
-0.737377
-0.777039
-0.810874
-0.837876
-0.856827
-0.866928
-0.867555
-0.858176
-0.838308
-0.808005
-0.768301
-0.720716
-0.666519
-0.606448
-0.540982
-0.470632
-0.395698
-0.316469
-0.232299
-0.145177
-0.0506857
0.0297527
0.182429
0.21598
0.251567
0.287491
0.320306
0.350419
0.376457
0.396772
0.411233
0.4205
0.425158
0.425921
0.42344
0.418139
0.410342
0.400162
0.387632
0.372748
0.355474
0.335799
0.313778
0.289546
0.263329
0.2356
0.207267
0.179366
0.152746
0.128115
0.106104
0.0872598
0.0720482
0.06084
0.0539192
0.0515399
0.0540902
0.0621903
0.0763616
0.0986691
0.124691
0.136666
0.0998419
0.0571462
0.0105886
-0.0365365
-0.0870572
-0.139264
-0.191803
-0.245118
-0.298444
-0.351455
-0.404217
-0.456337
-0.507567
-0.557549
-0.605717
-0.651395
-0.693784
-0.731944
-0.764915
-0.79176
-0.811291
-0.822652
-0.825237
-0.818546
-0.802092
-0.775773
-0.740276
-0.696772
-0.646361
-0.589783
-0.527535
-0.460135
-0.387925
-0.311263
-0.229703
-0.145186
-0.0542937
0.0237349
0.170422
0.202215
0.236009
0.270193
0.301476
0.330271
0.355279
0.374904
0.389019
0.398263
0.403187
0.404474
0.402753
0.398446
0.391859
0.383098
0.372192
0.359115
0.343809
0.326212
0.306336
0.284253
0.260117
0.234332
0.207736
0.181311
0.155865
0.132094
0.110641
0.0920779
0.076902
0.0655229
0.0582676
0.0554168
0.0573725
0.0647121
0.0778701
0.0984721
0.122217
0.127051
0.0921696
0.0517443
0.00772611
-0.0367099
-0.0842946
-0.133376
-0.182668
-0.232612
-0.282484
-0.331998
-0.381252
-0.429906
-0.477773
-0.524563
-0.5698
-0.61289
-0.653123
-0.689646
-0.721556
-0.747966
-0.767769
-0.780062
-0.78425
-0.779873
-0.766444
-0.743725
-0.712129
-0.67252
-0.62581
-0.572699
-0.51369
-0.449294
-0.379891
-0.305892
-0.227036
-0.145225
-0.0579588
0.0175637
0.159072
0.189239
0.221367
0.253931
0.28378
0.311326
0.335349
0.354303
0.368051
0.377223
0.382338
0.384044
0.382959
0.379495
0.373946
0.366424
0.35695
0.345492
0.331965
0.316289
0.298426
0.278393
0.25628
0.232418
0.207571
0.182663
0.158459
0.135633
0.114828
0.0966332
0.0815722
0.0700874
0.0625449
0.0592531
0.0606214
0.0671893
0.0793079
0.0982056
0.119747
0.117956
0.0848776
0.0465625
0.00489923
-0.0370533
-0.0819244
-0.128124
-0.174424
-0.22126
-0.267949
-0.314236
-0.360239
-0.405672
-0.450383
-0.49415
-0.536569
-0.577121
-0.615179
-0.649976
-0.680675
-0.706429
-0.726241
-0.739173
-0.744648
-0.742234
-0.731456
-0.711975
-0.683973
-0.64805
-0.604928
-0.555239
-0.499474
-0.438129
-0.371598
-0.300349
-0.224292
-0.14528
-0.0616525
0.0112814
0.148365
0.177018
0.207593
0.23864
0.267142
0.293509
0.316593
0.334891
0.348263
0.35732
0.362561
0.364605
0.364049
0.361298
0.356646
0.350201
0.341987
0.331968
0.320051
0.306134
0.290141
0.272047
0.251882
0.229902
0.206797
0.183432
0.160524
0.138715
0.118641
0.100898
0.0860302
0.0745065
0.0667273
0.0630276
0.0638209
0.0696103
0.0806712
0.0978782
0.117294
0.109374
0.077976
0.0416249
0.00215452
-0.0374931
-0.0798504
-0.123382
-0.166917
-0.210878
-0.254628
-0.297929
-0.340928
-0.383358
-0.425117
-0.466033
-0.505757
-0.543845
-0.57975
-0.612772
-0.642155
-0.667084
-0.686683
-0.699996
-0.706462
-0.705693
-0.697215
-0.680622
-0.655912
-0.62345
-0.583785
-0.537456
-0.484922
-0.426652
-0.363058
-0.294638
-0.221465
-0.14534
-0.0653448
0.00493198
0.138279
0.165519
0.194638
0.224261
0.251495
0.276746
0.298929
0.316585
0.329575
0.338493
0.343815
0.346122
0.346006
0.343865
0.339981
0.334474
0.327366
0.318625
0.308155
0.295838
0.281572
0.265295
0.246986
0.226832
0.205449
0.183637
0.162062
0.14133
0.122059
0.104847
0.0902475
0.0787525
0.0707899
0.066719
0.0669533
0.0719636
0.0819561
0.0974972
0.114873
0.101294
0.0714646
0.0369509
-0.000472091
-0.0379803
-0.0779964
-0.119053
-0.160024
-0.201327
-0.242351
-0.282891
-0.323095
-0.362733
-0.401735
-0.439968
-0.477131
-0.51285
-0.54664
-0.577875
-0.605865
-0.629847
-0.649044
-0.66252
-0.669722
-0.670299
-0.663801
-0.649763
-0.628046
-0.598817
-0.562459
-0.519407
-0.470073
-0.414895
-0.354282
-0.288763
-0.218548
-0.145386
-0.069009
-0.00144273
0.128787
0.154709
0.182461
0.210742
0.236779
0.260971
0.28229
0.299323
0.311926
0.320684
0.326041
0.328558
0.328812
0.327188
0.323967
0.319273
0.313139
0.305528
0.296353
0.285481
0.272802
0.258217
0.241663
0.223265
0.203566
0.183299
0.163079
0.14347
0.125067
0.108457
0.0941983
0.0827982
0.0747067
0.0703045
0.0700008
0.0742376
0.0831599
0.0970707
0.112496
0.0936994
0.0653407
0.0325488
-0.00295719
-0.0384674
-0.0763034
-0.115055
-0.153645
-0.192478
-0.230978
-0.268955
-0.306566
-0.343605
-0.380027
-0.415741
-0.450483
-0.483934
-0.515666
-0.545123
-0.571684
-0.594628
-0.613275
-0.626724
-0.634441
-0.636094
-0.631273
-0.619486
-0.60047
-0.574243
-0.541023
-0.501151
-0.454968
-0.40288
-0.345285
-0.282725
-0.215533
-0.145402
-0.0726131
-0.00779683
0.119868
0.14455
0.171018
0.198034
0.222938
0.24612
0.266611
0.283036
0.295259
0.303839
0.309202
0.311882
0.312441
0.311257
0.30861
0.304626
0.29934
0.292732
0.284707
0.275142
0.263909
0.250887
0.23598
0.219257
0.20119
0.182447
0.163589
0.145136
0.127652
0.111707
0.0978581
0.086618
0.0784525
0.0737608
0.072945
0.0764202
0.0842792
0.0966054
0.110173
0.0865724
0.0595968
0.028423
-0.00528482
-0.0389244
-0.0747236
-0.111324
-0.147694
-0.184232
-0.220386
-0.255982
-0.29118
-0.325801
-0.359822
-0.393166
-0.425626
-0.456914
-0.486661
-0.514373
-0.539485
-0.561341
-0.579316
-0.592582
-0.600612
-0.603111
-0.599701
-0.589872
-0.573282
-0.549817
-0.519564
-0.482748
-0.439661
-0.39064
-0.336083
-0.27653
-0.212411
-0.145367
-0.0761262
-0.0140862
0.111496
0.135012
0.160266
0.186085
0.209914
0.232136
0.251833
0.267673
0.279516
0.287904
0.293246
0.296051
0.296868
0.296063
0.293908
0.290539
0.286002
0.280275
0.273275
0.264881
0.254959
0.243375
0.230001
0.214864
0.198367
0.181113
0.16361
0.146333
0.129808
0.114584
0.101204
0.0901857
0.0820022
0.0770653
0.075768
0.0784998
0.0853106
0.0961079
0.107916
0.0798954
0.0542233
0.0245724
-0.00744482
-0.0393302
-0.0732213
-0.107809
-0.142109
-0.176506
-0.210476
-0.243857
-0.276812
-0.309181
-0.340957
-0.372086
-0.402389
-0.431627
-0.459469
-0.485481
-0.509152
-0.529881
-0.547102
-0.560057
-0.568238
-0.571374
-0.569126
-0.560989
-0.54656
-0.525625
-0.498152
-0.464273
-0.424191
-0.378214
-0.3267
-0.27018
-0.209177
-0.145259
-0.0795173
-0.0202656
0.103644
0.126061
0.150168
0.174849
0.19766
0.218966
0.237901
0.253174
0.264644
0.272834
0.278134
0.281033
0.282061
0.281579
0.279853
0.277022
0.273138
0.268188
0.262099
0.254752
0.246016
0.235744
0.223791
0.210143
0.195144
0.179333
0.163164
0.147068
0.131531
0.117071
0.104218
0.0934793
0.0853322
0.0801953
0.0784505
0.0804647
0.0862518
0.0955835
0.105732
0.0736499
0.0492065
0.0209944
-0.00943072
-0.0396674
-0.0717666
-0.10447
-0.136833
-0.169231
-0.201162
-0.232481
-0.263346
-0.293616
-0.323296
-0.352354
-0.380631
-0.407926
-0.433952
-0.458319
-0.480571
-0.500158
-0.516559
-0.529103
-0.537293
-0.540884
-0.539586
-0.532904
-0.520389
-0.501752
-0.47687
-0.445783
-0.408624
-0.365635
-0.31715
-0.263688
-0.205821
-0.145059
-0.0827597
-0.0262902
0.0962875
0.117666
0.140686
0.16429
0.186129
0.206563
0.224766
0.239491
0.250593
0.258581
0.263825
0.266791
0.267994
0.267789
0.266435
0.264073
0.260762
0.256497
0.251214
0.244802
0.237131
0.228053
0.217408
0.205151
0.191571
0.177145
0.162279
0.147357
0.132823
0.119164
0.106883
0.0964774
0.088419
0.0831289
0.080975
0.0823028
0.0870992
0.095036
0.103631
0.0678152
0.0445349
0.0176807
-0.0112392
-0.0399248
-0.0703388
-0.101272
-0.131823
-0.16235
-0.192377
-0.221772
-0.25069
-0.279002
-0.306729
-0.333844
-0.360219
-0.385683
-0.409979
-0.432763
-0.453628
-0.472076
-0.487616
-0.499675
-0.507756
-0.511652
-0.51111
-0.505662
-0.494833
-0.478278
-0.455799
-0.427353
-0.393004
-0.352942
-0.30746
-0.257056
-0.202338
-0.144745
-0.0858217
-0.032119
0.0894007
0.109795
0.131786
0.154364
0.175279
0.19488
0.212381
0.226575
0.237319
0.245101
0.250277
0.253289
0.25464
0.254671
0.253639
0.251687
0.248878
0.245217
0.240646
0.235066
0.228351
0.220354
0.210907
0.199941
0.187694
0.17459
0.160985
0.147218
0.133692
0.120857
0.109187
0.0991616
0.091242
0.0858454
0.0833241
0.0840032
0.0878499
0.0944696
0.101615
0.0623719
0.0401927
0.0146248
-0.0128718
-0.0400951
-0.0689223
-0.0981903
-0.12704
-0.155814
-0.184062
-0.211657
-0.238758
-0.265245
-0.291144
-0.316446
-0.341037
-0.364774
-0.387431
-0.408704
-0.42822
-0.445541
-0.460206
-0.471715
-0.479598
-0.483668
-0.483721
-0.479311
-0.469955
-0.455272
-0.435008
-0.409047
-0.377395
-0.340179
-0.29766
-0.250296
-0.19872
-0.144292
-0.0886778
-0.0377123
0.08296
0.102422
0.123434
0.145035
0.165068
0.183874
0.200701
0.214383
0.224776
0.232353
0.237451
0.240493
0.241966
0.242201
0.241448
0.239854
0.237486
0.234356
0.230415
0.225573
0.219714
0.212692
0.204337
0.194562
0.183561
0.171708
0.159312
0.146673
0.134149
0.122151
0.111122
0.101518
0.0937825
0.0883258
0.0854816
0.0855546
0.0885006
0.0938854
0.0996899
0.0573006
0.0361653
0.0118176
-0.014332
-0.0401735
-0.0675029
-0.0952028
-0.122453
-0.149583
-0.176163
-0.202076
-0.227479
-0.252261
-0.276455
-0.300059
-0.322982
-0.345095
-0.3662
-0.386029
-0.404252
-0.42047
-0.434254
-0.445174
-0.452782
-0.456923
-0.457426
-0.453882
-0.445807
-0.432801
-0.414566
-0.390933
-0.361851
-0.32739
-0.287772
-0.243421
-0.194962
-0.143683
-0.0912991
-0.0430335
0.0769417
0.0955164
0.115598
0.13627
0.155461
0.173506
0.189686
0.202872
0.212925
0.220297
0.225311
0.228369
0.229941
0.230353
0.229844
0.228564
0.226583
0.223919
0.220534
0.216348
0.211251
0.205105
0.197741
0.18906
0.179217
0.168539
0.157296
0.145746
0.134207
0.123049
0.112683
0.103533
0.0960251
0.0905525
0.0874317
0.0869472
0.0890478
0.0932847
0.0978551
0.0525823
0.0324384
0.0092484
-0.0156235
-0.0401587
-0.0660733
-0.0922947
-0.118039
-0.143625
-0.168641
-0.19298
-0.216794
-0.239983
-0.262583
-0.284601
-0.305957
-0.326547
-0.34619
-0.36465
-0.381634
-0.396775
-0.409686
-0.419991
-0.42727
-0.431393
-0.432228
-0.429397
-0.422431
-0.410919
-0.394536
-0.373074
-0.346423
-0.314618
-0.277829
-0.23644
-0.191062
-0.142899
-0.0936642
-0.0480506
0.0713226
0.0890546
0.10825
0.128035
0.146422
0.163738
0.179296
0.192006
0.201727
0.208898
0.213821
0.216883
0.218538
0.219101
0.218805
0.217799
0.21616
0.213906
0.211012
0.207405
0.202987
0.197626
0.191159
0.183476
0.174703
0.165123
0.154969
0.144464
0.133884
0.123562
0.113869
0.105201
0.0979566
0.0925112
0.0891614
0.0881708
0.0894877
0.0926662
0.0961097
0.0481985
0.0289967
0.00690693
-0.0167526
-0.0400511
-0.0646272
-0.0894525
-0.11378
-0.137913
-0.161461
-0.184325
-0.206651
-0.22835
-0.249459
-0.269995
-0.289888
-0.309045
-0.327313
-0.344477
-0.360275
-0.374381
-0.386434
-0.396109
-0.403022
-0.407059
-0.408124
-0.405873
-0.399863
-0.389676
-0.374978
-0.355525
-0.331173
-0.301905
-0.267859
-0.229368
-0.187018
-0.141922
-0.0957506
-0.0527349
0.0660807
0.0830115
0.101363
0.120299
0.137917
0.154536
0.169496
0.181748
0.191147
0.198117
0.202948
0.206006
0.207728
0.208421
0.208311
0.207547
0.206205
0.204314
0.201852
0.198758
0.194943
0.190283
0.184623
0.177849
0.170059
0.161499
0.152368
0.142855
0.133201
0.123699
0.114684
0.106517
0.0995674
0.0941889
0.0906587
0.089217
0.0898163
0.0920285
0.0944509
0.0441299
0.0258248
0.00478207
-0.0177257
-0.0398517
-0.0631607
-0.0866665
-0.109656
-0.132422
-0.15459
-0.17607
-0.197004
-0.217309
-0.237026
-0.256174
-0.274696
-0.292511
-0.309486
-0.325429
-0.340102
-0.353212
-0.364431
-0.373476
-0.379992
-0.38389
-0.385103
-0.383323
-0.378126
-0.369113
-0.355939
-0.33834
-0.316144
-0.289297
-0.257892
-0.222221
-0.182829
-0.140738
-0.0975401
-0.0570593
0.0611955
0.0773626
0.0949073
0.113034
0.129916
0.145866
0.160254
0.172062
0.181149
0.187924
0.192659
0.195704
0.197481
0.198287
0.198339
0.197786
0.196707
0.195133
0.193053
0.190412
0.187132
0.183098
0.178162
0.172212
0.16532
0.157701
0.149525
0.140949
0.132182
0.123477
0.115134
0.10748
0.100852
0.0955773
0.0919137
0.0900778
0.0900293
0.091368
0.0928735
0.0403593
0.0229084
0.00286249
-0.01855
-0.0395633
-0.0616726
-0.0839293
-0.105657
-0.127133
-0.148004
-0.168185
-0.187813
-0.206813
-0.225228
-0.24308
-0.26032
-0.276879
-0.29264
-0.30743
-0.321036
-0.333199
-0.343613
-0.352028
-0.358136
-0.361857
-0.36315
-0.361742
-0.357243
-0.349263
-0.337464
-0.321571
-0.301387
-0.276832
-0.247959
-0.215016
-0.1785
-0.139336
-0.0990161
-0.0610045
0.0566464
0.0720852
0.0888603
0.106212
0.122391
0.1377
0.151535
0.162917
0.171703
0.178285
0.182923
0.185949
0.18777
0.188671
0.188866
0.188499
0.187651
0.186358
0.184612
0.182371
0.179564
0.176086
0.171799
0.166591
0.160519
0.153764
0.146472
0.138776
0.130849
0.122913
0.115231
0.108094
0.101808
0.0966699
0.0929191
0.0907471
0.0901227
0.0906806
0.09137
0.0368702
0.0202328
0.00113686
-0.0192337
-0.0391906
-0.0601615
-0.0812365
-0.101771
-0.122031
-0.141681
-0.160641
-0.179045
-0.196824
-0.21402
-0.230659
-0.246701
-0.262084
-0.276707
-0.290414
-0.303017
-0.314274
-0.323917
-0.33172
-0.337411
-0.340928
-0.342244
-0.341132
-0.337224
-0.330152
-0.31959
-0.305256
-0.286947
-0.264551
-0.238092
-0.207771
-0.174033
-0.137709
-0.100169
-0.0645533
0.0524137
0.0671574
0.0831972
0.0998073
0.115312
0.130006
0.143312
0.154282
0.162776
0.169169
0.17371
0.176712
0.178567
0.179552
0.179871
0.179667
0.179022
0.177975
0.176524
0.174636
0.172245
0.169261
0.165553
0.161014
0.155684
0.14972
0.143243
0.136363
0.129229
0.122028
0.114988
0.108367
0.102436
0.0974647
0.0936695
0.0912198
0.0900925
0.0899615
0.0899322
0.0336455
0.0177844
-0.000406234
-0.0197845
-0.0387378
-0.0586281
-0.078583
-0.0979894
-0.117103
-0.135602
-0.153416
-0.170671
-0.187304
-0.20336
-0.218866
-0.233788
-0.248071
-0.261629
-0.27432
-0.285974
-0.296377
-0.305286
-0.312494
-0.317768
-0.32106
-0.322364
-0.32148
-0.318072
-0.311799
-0.302343
-0.289437
-0.272861
-0.25249
-0.228317
-0.200504
-0.169437
-0.135853
-0.100989
-0.0676939
0.0484795
0.0625597
0.0778959
0.0937964
0.108655
0.122759
0.135555
0.146128
0.15434
0.16055
0.164993
0.167966
0.169847
0.170903
0.17133
0.171269
0.170803
0.169972
0.168781
0.167202
0.165179
0.162631
0.15944
0.1555
0.15084
0.145594
0.139865
0.133742
0.127348
0.120842
0.114421
0.108308
0.102742
0.0979616
0.0941626
0.0914922
0.0899349
0.0892046
0.0885503
0.0306694
0.0155493
-0.0017779
-0.020211
-0.0382098
-0.0570744
-0.0759676
-0.0943075
-0.112338
-0.129752
-0.146487
-0.162663
-0.178223
-0.193212
-0.207658
-0.221533
-0.23479
-0.24735
-0.259089
-0.269855
-0.279452
-0.287661
-0.2943
-0.299166
-0.302221
-0.303481
-0.302771
-0.299787
-0.294212
-0.28575
-0.27414
-0.259164
-0.240681
-0.218666
-0.193235
-0.164721
-0.133767
-0.101473
-0.0704187
0.0448259
0.058272
0.072935
0.0881557
0.102395
0.115933
0.128238
0.138429
0.146367
0.152397
0.156743
0.159684
0.161584
0.1627
0.163222
0.163286
0.162977
0.162336
0.161372
0.160065
0.158367
0.156204
0.15347
0.150066
0.146009
0.141413
0.136365
0.130938
0.125232
0.11938
0.113549
0.107931
0.102733
0.0981648
0.0943992
0.0915626
0.0896462
0.0884033
0.0872134
0.027927
0.0135145
-0.00298894
-0.0205209
-0.0376123
-0.0555023
-0.073389
-0.0907187
-0.107725
-0.124118
-0.139837
-0.155001
-0.169555
-0.183544
-0.197
-0.209896
-0.222194
-0.233823
-0.244672
-0.254604
-0.263444
-0.270993
-0.277088
-0.281557
-0.284374
-0.285566
-0.284986
-0.28236
-0.277397
-0.269824
-0.25939
-0.245883
-0.229156
-0.209161
-0.185983
-0.159898
-0.131455
-0.101619
-0.0727249
0.0414356
0.0542759
0.0682938
0.0828636
0.0965093
0.109502
0.121335
0.131158
0.138831
0.144686
0.148934
0.15184
0.153753
0.15492
0.155523
0.155698
0.155526
0.155051
0.154287
0.153218
0.151805
0.149982
0.147653
0.144726
0.141209
0.1372
0.13277
0.127979
0.122907
0.117665
0.112393
0.107252
0.102422
0.0980811
0.0943814
0.0914307
0.0892238
0.0875518
0.0859102
0.0254039
0.0116667
-0.0040498
-0.0207227
-0.0369506
-0.0539136
-0.0708458
-0.0872193
-0.103258
-0.118687
-0.133451
-0.147663
-0.161273
-0.174329
-0.186858
-0.19884
-0.210242
-0.221003
-0.23102
-0.240173
-0.248303
-0.25523
-0.260811
-0.264899
-0.267478
-0.268588
-0.268103
-0.26578
-0.261354
-0.254574
-0.245204
-0.233043
-0.21794
-0.199831
-0.17877
-0.15498
-0.128923
-0.101433
-0.0746141
0.0382932
0.0505535
0.0639543
0.0778994
0.0909752
0.103445
0.114824
0.12429
0.131707
0.137392
0.141543
0.14441
0.14633
0.14754
0.148214
0.148484
0.148433
0.148103
0.147514
0.146653
0.14549
0.143966
0.141995
0.139491
0.136457
0.132974
0.129103
0.124889
0.120399
0.115722
0.110974
0.10629
0.101822
0.09772
0.0941155
0.0910982
0.0886663
0.0866431
0.0846285
0.023086
0.00999437
-0.00497114
-0.0208244
-0.0362304
-0.0523125
-0.0683379
-0.0838059
-0.09893
-0.11345
-0.127314
-0.140632
-0.153358
-0.165538
-0.177202
-0.188331