/*--------------------------------*- C++ -*----------------------------------*\
| =========                 |                                                 |
| \\      /  F ield         | OpenFOAM: The Open Source CFD Toolbox           |
|  \\    /   O peration     | Version:  2506                                  |
|   \\  /    A nd           | Website:  www.openfoam.com                      |
|    \\/     M anipulation  |                                                 |
\*---------------------------------------------------------------------------*/
FoamFile
{
    version     2.0;
    format      ascii;
    arch        "LSB;label=32;scalar=64";
    class       volScalarField;
    location    "350";
    object      turbulenceProperties:I;
}
// * * * * * * * * * * * * * * * * * * * * * * * * * * * * * * * * * * * * * //

dimensions      [0 0 0 0 0 0 0];

internalField   nonuniform List<scalar> 
10720
(
0.00417414
0.00414921
0.00416936
0.0042978
0.00446113
0.00469046
0.00500342
0.0053891
0.00586664
0.00645481
0.00717327
0.00806426
0.00918832
0.0106287
0.0125289
0.0150865
0.0186939
0.0238228
0.032012
0.044384
0.0693861
0.111468
0.228118
0.421049
0.507964
0.467012
0.408369
0.366425
0.3394
0.322269
0.31119
0.303471
0.299
0.296888
0.296951
0.299241
0.307526
0.318117
0.401546
0.00422554
0.00438256
0.00456343
0.00498532
0.00568711
0.00704436
0.0101837
0.0170022
0.0134835
0.00874307
0.00732174
0.00706299
0.00731374
0.0078706
0.00865658
0.00966573
0.0109377
0.0125663
0.0146963
0.0175305
0.0214026
0.0267182
0.0344051
0.0453573
0.0627087
0.0884387
0.130976
0.186825
0.221535
0.234698
0.238639
0.240293
0.241518
0.242567
0.243553
0.244662
0.246102
0.249516
0.255934
0.00181797
0.00166485
0.00152725
0.00139738
0.00127675
0.00116852
0.00106935
0.000977929
0.000896837
0.000824193
0.000759302
0.00071128
0.0006921
0.000711384
0.000795777
0.000979889
0.00132939
0.00190084
0.00294515
0.00464564
0.00817325
0.014151
0.0265369
0.0521214
0.080548
0.108814
0.136956
0.161327
0.175687
0.17771
0.171264
0.161901
0.153564
0.14766
0.144836
0.145269
0.154586
0.167113
0.320496
0.00198369
0.00219108
0.00246997
0.00286796
0.00346324
0.00439748
0.00583321
0.00715642
0.00638451
0.00446809
0.00313657
0.00234238
0.00183765
0.00149001
0.00123541
0.00104038
0.000884585
0.000756326
0.000645158
0.000542916
0.000438679
0.000325454
0.000185342
7.26358e-05
0.000113019
0.00129846
0.00295711
0.0083001
0.0151192
0.0210807
0.0257811
0.0293923
0.0322553
0.034743
0.0371136
0.0396024
0.0424671
0.0476501
0.0611844
0.00157878
0.00145482
0.00133335
0.0012191
0.00112083
0.00103367
0.000958221
0.000895783
0.000844887
0.000805018
0.000774132
0.000752515
0.00073922
0.000734139
0.000730003
0.000715284
0.000657281
0.000602903
8.0862e-05
0.000707796
0.000332334
0.000639868
0.000120182
0.00234072
0.0079056
0.0153917
0.0255748
0.0403082
0.0602785
0.0834983
0.105769
0.122394
0.131176
0.134262
0.135553
0.137384
0.144929
0.152908
0.25759
0.0017224
0.00189311
0.00212891
0.0024434
0.00286708
0.00342267
0.0040557
0.00446458
0.00424705
0.00349872
0.00272219
0.00212272
0.00168602
0.00136387
0.00112249
0.000937951
0.000796202
0.000687124
0.000604331
0.000541326
0.000494072
0.000459259
0.000434787
0.000416898
0.000406312
0.000396918
0.0004028
0.000306702
0.00079716
0.00202958
0.00340318
0.00491183
0.00734746
0.010661
0.0142951
0.0179015
0.0214173
0.0239676
0.0337463
0.00149031
0.00138678
0.00128705
0.00119636
0.00111325
0.00103594
0.000965524
0.000900578
0.000840974
0.000786002
0.000735036
0.000687277
0.000641872
0.000598312
0.000555828
0.000512255
0.000468331
0.00042958
0.000376679
0.000321153
0.000156414
0.000212271
7.57644e-05
0.0012387
0.00280462
0.000346754
0.00123785
0.00151776
0.00415819
0.0127598
0.0277078
0.0484772
0.0717023
0.0924064
0.107755
0.118695
0.130916
0.1427
0.216817
0.00160008
0.00172809
0.00189092
0.00210528
0.0023723
0.00268417
0.00299085
0.00316905
0.00308231
0.00273191
0.00229104
0.00189365
0.00157489
0.0013268
0.00113414
0.000982764
0.000863018
0.000767341
0.000690449
0.000627401
0.00057524
0.000530994
0.000491945
0.000454122
0.00041791
0.000387951
0.000364831
0.000347674
0.000328745
0.000305548
0.00026356
0.000208697
0.000577693
0.000760991
0.00145479
0.00339415
0.0062669
0.0101591
0.0207134
0.00131458
0.00122937
0.00114555
0.0010663
0.000993184
0.0009242
0.000860454
0.000802013
0.000748384
0.000700067
0.000656903
0.000618871
0.000586195
0.000558867
0.000536887
0.00051937
0.000503026
0.000484596
0.000464783
0.000435314
0.000399738
0.000272999
9.60775e-05
4.33959e-05
0
8.25274e-05
0.000630161
0.00155341
0.00352925
0.00258153
0.00386747
0.00522172
0.0134979
0.0343179
0.0593486
0.0834375
0.10564
0.125475
0.184012
0.0014057
0.00150913
0.00163742
0.00179527
0.00197619
0.0021672
0.00233681
0.00242975
0.00238885
0.00220562
0.00194538
0.00167736
0.00143631
0.00123106
0.00105999
0.000918184
0.000800818
0.000703771
0.000623736
0.000557524
0.00050271
0.000456846
0.000417545
0.000381144
0.000345834
0.000313537
0.000287148
0.000267946
0.000258181
0.000246294
0.00027088
0.000131365
0.000334983
0.000725619
0.00115184
0.00106575
0.00128524
0.00178313
0.00901109
0.0011968
0.00112921
0.0010615
0.000997575
0.00093821
0.000881795
0.000829328
0.000780552
0.000735071
0.000692828
0.000653432
0.000616635
0.000582302
0.000550185
0.000520096
0.000490989
0.000461037
0.000431
0.000402603
0.000377633
0.000361314
0.000335138
0.000304911
0.000157562
6.71294e-05
4.65274e-05
2.17337e-05
0
0
0.00101827
0.00198553
0.0045712
0.00203206
0.00739446
0.0113091
0.0367132
0.067892
0.0993071
0.152819
0.00126678
0.0013442
0.00143796
0.00155024
0.00167236
0.0017942
0.0018974
0.00195257
0.00193046
0.00182478
0.00166321
0.00148165
0.00130505
0.00114529
0.0010062
0.000887424
0.000787066
0.000702799
0.000632291
0.000573118
0.000523124
0.000480117
0.000441887
0.000405655
0.00037012
0.000336999
0.000307833
0.000282872
0.000261397
0.000243095
0.000227097
0.000212393
0.00019019
0.000159702
2.2935e-05
0.000410534
0.000533253
0.00085576
0.0030196
0.00107724
0.00102235
0.000966442
0.000912785
0.000862544
0.00081403
0.000768237
0.000725216
0.000684558
0.000646392
0.000610573
0.000576985
0.000545708
0.000516793
0.000490228
0.000466245
0.000445438
0.000427048
0.000409333
0.000391375
0.00037477
0.000361493
0.000352605
0.000324714
0.000268307
0.000197014
8.48256e-05
5.12175e-05
3.96565e-05
1.21183e-05
0
0
0.000766314
0.00432609
0.00384788
0.00956049
0.026085
0.0646496
0.119344
0.00113336
0.00119406
0.00126592
0.00134884
0.00143478
0.00151694
0.00158485
0.00162037
0.00160712
0.00154199
0.00143754
0.0013126
0.00118292
0.00105848
0.000944429
0.000842606
0.000753106
0.000675281
0.000608089
0.00055016
0.000500132
0.000456495
0.000417572
0.000381181
0.000346009
0.000313032
0.000283541
0.000257933
0.000235849
0.00021719
0.00020272
0.000192964
0.000187171
0.000178313
0.000155054
5.5867e-05
3.79125e-05
8.14531e-06
0.00050925
0.000977357
0.000933354
0.000887873
0.000843812
0.000802384
0.000762028
0.000723774
0.000687672
0.000653345
0.000620937
0.000590242
0.00056113
0.000533582
0.000507509
0.000482848
0.000459606
0.000437249
0.000415002
0.000393331
0.000373136
0.000355327
0.000341645
0.000332871
0.000328069
0.000316027
0.000293328
0.00025882
0.00021527
0.000169676
4.8189e-05
4.16601e-05
8.75613e-06
0
0
0.00150541
0.00641071
0.00893686
0.0294066
0.0831894
0.00102151
0.00106851
0.0011233
0.00118507
0.00124698
0.00130454
0.00135165
0.00137585
0.00136748
0.00132518
0.00125494
0.00116716
0.00107159
0.000975509
0.000883678
0.000798768
0.00072186
0.000653355
0.000593025
0.00054015
0.000493796
0.000452824
0.000415863
0.000381225
0.000347912
0.000316638
0.000288371
0.000263251
0.000240854
0.000220666
0.000202615
0.000186491
0.000171985
0.000159023
0.00014992
0.00014384
0.000126723
4.14591e-05
0.000133832
0.000887758
0.000852069
0.000814681
0.000778008
0.000743365
0.000709264
0.00067664
0.000645609
0.000615834
0.00058743
0.000560267
0.000534248
0.000509379
0.000485625
0.000463034
0.000441566
0.000421311
0.000402597
0.000385278
0.000369128
0.000354118
0.000340782
0.000329736
0.00032108
0.000312383
0.000300975
0.000287516
0.00027091
0.000255057
0.000222797
0.000185695
3.92226e-05
3.23025e-05
0
0
0
0.00513511
0.0107707
0.0492028
0.000923113
0.000960163
0.0010028
0.00104973
0.00109556
0.00113744
0.00117137
0.00118858
0.00118309
0.00115443
0.00110569
0.00104285
0.000971853
0.000897695
0.000824125
0.000753673
0.000687833
0.000627437
0.00057275
0.000523643
0.000479675
0.000440119
0.000403982
0.000370072
0.000337643
0.000307097
0.000279312
0.000254469
0.000232307
0.00021254
0.000195111
0.000180447
0.000168795
0.000160562
0.00015606
0.000157798
0.000165888
0.000173516
3.5034e-05
0.000809572
0.000780588
0.00074989
0.000719507
0.000690652
0.000662066
0.000634563
0.00060826
0.000582903
0.000558596
0.000535193
0.000512625
0.000490902
0.000469984
0.000449856
0.000430546
0.000412093
0.000394285
0.000376986
0.000360575
0.000345641
0.000332647
0.000321771
0.000312197
0.000302305
0.000290723
0.000278176
0.000266814
0.000258402
0.000252013
0.000245511
0.000215287
0.000144238
4.41079e-05
0
0
0.000378228
0.00386183
0.0245248
0.000837923
0.000867277
0.000900736
0.000936851
0.000971493
0.00100288
0.00102799
0.00104059
0.00103694
0.00101686
0.000982132
0.000936296
0.000883033
0.000825627
0.000766925
0.000709
0.000653293
0.000600832
0.000552197
0.000507601
0.000466917
0.000429749
0.000395427
0.000363138
0.00033232
0.000303285
0.000276682
0.000252758
0.000231225
0.000211746
0.000194296
0.000178774
0.000165296
0.00015423
0.000146048
0.000145251
0.000145977
0.000192172
0.000128302
0.000740446
0.000716756
0.0006914
0.000666091
0.000641959
0.000617883
0.000594552
0.00057215
0.000550405
0.000529415
0.00050909
0.000489328
0.000470149
0.000451487
0.000433386
0.000415881
0.000398989
0.000382805
0.000367435
0.000352954
0.00033961
0.000327612
0.000317034
0.000307323
0.000297134
0.000285423
0.000272525
0.000260335
0.000250592
0.000244409
0.0002411
0.000241698
0.000232779
0.000183187
4.88093e-05
0
0
0.00219708
0.0123313
0.00076334
0.000786828
0.00081344
0.000841635
0.000868268
0.000892361
0.000911373
0.000920786
0.000918343
0.000903916
0.000878558
0.000844511
0.00080414
0.000759578
0.000712786
0.000665376
0.000618544
0.000573279
0.000530324
0.00049002
0.000452492
0.0004176
0.000384945
0.000354042
0.00032451
0.00029664
0.000270909
0.000247586
0.000226502
0.000207421
0.000190321
0.000175324
0.000162698
0.000152901
0.000146265
0.000146249
0.000147657
0.000178664
0.000206328
0.000679329
0.000659925
0.00063892
0.000617802
0.000597603
0.00057734
0.000557609
0.000538579
0.000520016
0.000502036
0.000484521
0.000467404
0.000450671
0.000434292
0.000418274
0.000402648
0.000387471
0.000372812
0.000358628
0.00034502
0.00033234
0.000320872
0.000310661
0.000301238
0.000291518
0.00028056
0.000268516
0.000256722
0.000246568
0.000238649
0.000232705
0.0002307
0.000233142
0.000235714
0.000197133
4.54316e-05
0
0.000875226
0.00723568
0.000697925
0.000716834
0.000738173
0.000760475
0.000781262
0.000800053
0.000814721
0.00082189
0.000820208
0.000809591
0.00079071
0.000765045
0.00073413
0.000699319
0.000662004
0.000623317
0.000584158
0.000545443
0.000507814
0.000471749
0.00043754
0.000405196
0.000374515
0.000345235
0.000317239
0.000290716
0.000266115
0.000243629
0.000223189
0.000204623
0.000187834
0.000173003
0.000160123
0.000149761
0.000142309
0.000141051
0.000143449
0.000165126
0.000215218
0.000624997
0.00060903
0.000591582
0.000573923
0.000556978
0.000539873
0.000523163
0.000506995
0.000491139
0.000475724
0.000460644
0.000445802
0.000431191
0.000416807
0.000402625
0.000388688
0.000375033
0.000361767
0.000348928
0.000336602
0.00032502
0.00031436
0.000304651
0.000295527
0.000286189
0.000275908
0.000264754
0.000253775
0.000244105
0.000236077
0.000229404
0.000224358
0.000222491
0.000225896
0.000239342
0.00017785
5.14212e-06
0.000498548
0.00417293
0.000640198
0.000655525
0.000672784
0.000690608
0.000707034
0.000721893
0.000733349
0.000738904
0.000737707
0.00072974
0.000715446
0.000695805
0.000671867
0.000644541
0.000614696
0.000583127
0.000550542
0.000517621
0.000484904
0.000452884
0.000421898
0.000392089
0.000363429
0.000335818
0.000309297
0.000284078
0.000260521
0.000238831
0.000218994
0.000200874
0.000184496
0.000169895
0.000157319
0.0001472
0.000140033
0.000138549
0.000141036
0.000158483
0.000205853
0.000576549
0.00056335
0.000548809
0.000534014
0.000519803
0.000505369
0.000491221
0.000477471
0.000463974
0.000450777
0.000437819
0.000425006
0.000412345
0.000399783
0.000387331
0.000375002
0.00036283
0.000350932
0.000339333
0.000328092
0.000317367
0.000307403
0.0002982
0.00028947
0.000280604
0.000271002
0.00026069
0.000250518
0.00024147
0.000233843
0.000227436
0.000222131
0.000218325
0.000217029
0.000222427
0.000254382
4.68255e-05
0.00016202
0.00209086
0.000589
0.00060149
0.000615554
0.000629901
0.000643041
0.000654891
0.000663935
0.000668298
0.000667444
0.000661338
0.000650314
0.0006351
0.000616397
0.000594783
0.000570842
0.000545116
0.00051805
0.000490146
0.000461886
0.000433666
0.000405818
0.000378566
0.000351984
0.000326138
0.000301169
0.00027731
0.000254858
0.000234052
0.000214873
0.000197295
0.000181288
0.000166947
0.000154506
0.000144291
0.000136871
0.00013482
0.000136807
0.000152535
0.00019477
0.000533139
0.000522194
0.000510059
0.00049763
0.000485681
0.000473515
0.000461519
0.000449852
0.000438352
0.000427085
0.000415972
0.000404949
0.000393991
0.000383054
0.000372139
0.000361273
0.000350474
0.000339823
0.000329409
0.000319257
0.000309463
0.000300254
0.000291626
0.000283353
0.000274991
0.000266028
0.000256497
0.000247056
0.000238528
0.000231289
0.000225226
0.00022029
0.000216405
0.000214926
0.000210481
0.000243644
0.000174618
1.96385e-05
0.000567001
0.000543374
0.000553612
0.000565099
0.00057675
0.000587342
0.00059686
0.000604063
0.000607525
0.000606884
0.000602121
0.000593508
0.000581566
0.000566809
0.000549581
0.000530298
0.000509308
0.000486852
0.000463291
0.000438995
0.000414248
0.00038941
0.000364684
0.000340205
0.000316128
0.000292688
0.00027018
0.000248856
0.000228933
0.000210451
0.000193388
0.000177782
0.000163753
0.000151464
0.000141277
0.000133788
0.000131382
0.000132892
0.000146739
0.000184559
0.000494101
0.000484981
0.00047486
0.000464403
0.00045435
0.000444074
0.000433914
0.000424044
0.000414246
0.00040465
0.000395159
0.000385693
0.000376242
0.000366756
0.000357248
0.000347724
0.000338204
0.00032873
0.000319428
0.000310281
0.000301365
0.000292873
0.000284842
0.000277088
0.000269235
0.000260919
0.000252135
0.000243389
0.00023538
0.000228503
0.000222706
0.000218032
0.000214367
0.000213141
0.000209716
0.000218416
0.000248351
1.17306e-05
0.000153232
0.000502537
0.000510921
0.000520358
0.000529879
0.000538486
0.000546169
0.000551925
0.000554692
0.000554167
0.000550395
0.000543574
0.000534098
0.000522332
0.000508503
0.000492917
0.000475724
0.000457087
0.000437253
0.000416425
0.000394868
0.00037283
0.000350511
0.000328111
0.000305843
0.000283972
0.000262809
0.000242631
0.000223625
0.000205863
0.000189368
0.000174154
0.000160436
0.000148264
0.000138102
0.000130413
0.000127539
0.000128591
0.000140727
0.000174849
0.000458839
0.000451261
0.000442766
0.000433972
0.000425532
0.000416849
0.000408265
0.000399883
0.000391577
0.000383411
0.000375309
0.000367206
0.000359089
0.000350913
0.000342666
0.000334348
0.000325979
0.000317614
0.000309327
0.000301151
0.000293101
0.000285337
0.000277905
0.000270697
0.000263382
0.000255703
0.000247629
0.000239544
0.000232065
0.000225539
0.000219985
0.000215484
0.000212072
0.000210352
0.000210595
0.000204509
0.000260131
1.84777e-05
5.95089e-07
0.000465809
0.000472696
0.000480479
0.000488269
0.000495316
0.000501529
0.000506148
0.000508357
0.000507907
0.000504867
0.000499387
0.000491777
0.000482297
0.00047115
0.000458455
0.000444335
0.000428853
0.000412179
0.000394392
0.000375681
0.000356226
0.000336211
0.000315832
0.000295314
0.000274995
0.000255186
0.000236145
0.000218059
0.00020104
0.00018512
0.000170337
0.000156904
0.000144885
0.000134769
0.000126931
0.000123579
0.000124177
0.000134715
0.000165425
0.000426847
0.000420564
0.000413434
0.000406049
0.00039894
0.000391627
0.000384391
0.000377303
0.000370263
0.000363326
0.000356442
0.000349523
0.000342581
0.000335557
0.000328429
0.000321207
0.000313901
0.000306537
0.000299211
0.000291927
0.000284703
0.00027765
0.000270834
0.000264172
0.000257418
0.000250352
0.000242953
0.000235523
0.000228565
0.000222396
0.000217123
0.000212784
0.000209566
0.000207415
0.000208938
0.000201887
0.000239669
0.00015339
2.31288e-05
0.000432628
0.000438312
0.000444726
0.000451125
0.000456898
0.00046194
0.000465638
0.000467406
0.000467001
0.00046451
0.000460049
0.000453863
0.000446175
0.000437084
0.000426697
0.000415061
0.000402202
0.000388166
0.000372993
0.000356794
0.000339703
0.000321861
0.000303436
0.000284628
0.000265812
0.000247334
0.000229432
0.000212282
0.000196023
0.000180699
0.000166386
0.000153204
0.000141361
0.000131236
0.000123229
0.000119418
0.000119522
0.00012868
0.00015625
0.000397768
0.000392529
0.000386583
0.000380357
0.0003744
0.000368248
0.000362139
0.000356171
0.000350225
0.000344343
0.000338512
0.00033263
0.000326714
0.000320692
0.000314567
0.000308325
0.000301986
0.000295545
0.000289094
0.000282652
0.00027621
0.000269828
0.000263631
0.000257528
0.000251348
0.000244876
0.000238116
0.000231319
0.000224867
0.000219086
0.000214095
0.00020993
0.000206833
0.000204664
0.000205486
0.000202826
0.000216822
0.000218189
7.99846e-05
0.000402547
0.000407234
0.000412534
0.000417804
0.00042254
0.000426629
0.000429594
0.000430975
0.000430601
0.000428518
0.000424828
0.000419756
0.000413459
0.000405986
0.000397435
0.000387821
0.00037709
0.000365255
0.000352336
0.000338361
0.000323395
0.000307546
0.000290936
0.000273797
0.000256473
0.000239305
0.000222531
0.000206322
0.0001908
0.000176093
0.000162241
0.00014936
0.000137691
0.000127526
0.000119298
0.000115036
0.000114676
0.000122635
0.000147285
0.00037125
0.000366889
0.000361903
0.000356689
0.000351693
0.000346532
0.000341396
0.000336368
0.000331354
0.000326413
0.00032148
0.000316504
0.000311473
0.000306358
0.000301122
0.000295759
0.000290277
0.000284693
0.000279027
0.000273354
0.000267653
0.000261944
0.000256332
0.000250795
0.000245161
0.000239279
0.000233138
0.000226927
0.000220981
0.000215593
0.000210873
0.000206913
0.000203896
0.000201899
0.000201664
0.000202399
0.00020371
0.000225901
0.000161296
0.000375181
0.000379036
0.000383422
0.000387763
0.000391645
0.000394953
0.000397327
0.000398385
0.00039801
0.000396221
0.000393156
0.000388959
0.000383731
0.000377549
0.000370466
0.00036246
0.000353474
0.00034351
0.000332492
0.000320449
0.000307388
0.000293376
0.000278483
0.000262907
0.000247015
0.00023111
0.000215441
0.000200176
0.00018542
0.000171297
0.0001579
0.000145382
0.000133845
0.000123649
0.000115237
0.000110434
0.000109637
0.000116581
0.00013864
0.000346974
0.000343348
0.000339173
0.000334805
0.000330644
0.000326323
0.000322024
0.000317815
0.000313611
0.000309459
0.000305318
0.000301129
0.000296886
0.000292547
0.000288085
0.000283514
0.000278796
0.00027397
0.000269045
0.000264091
0.000259071
0.000253998
0.000248973
0.000243979
0.000238888
0.000233564
0.000228006
0.000222363
0.000216918
0.000211906
0.000207474
0.000203727
0.000200788
0.000198926
0.00019806
0.000199812
0.000198281
0.000214045
0.000200312
0.000350208
0.000353358
0.000356985
0.000360564
0.000363716
0.000366388
0.000368286
0.000369093
0.000368691
0.000367156
0.000364558
0.000361017
0.000356636
0.000351497
0.00034559
0.00033889
0.000331353
0.000322911
0.000313533
0.000303153
0.000291771
0.000279412
0.000266106
0.000252018
0.000237475
0.000222801
0.000208208
0.000193863
0.000179884
0.000166374
0.000153441
0.000141215
0.00012983
0.000119653
0.000110973
0.000105672
0.000104398
0.000110502
0.000130276
0.000324679
0.000321676
0.000318219
0.000314568
0.000311101
0.000307499
0.000303908
0.000300407
0.000296905
0.000293437
0.000289977
0.000286474
0.000282909
0.00027926
0.000275486
0.000271592
0.000267581
0.000263442
0.000259187
0.000254884
0.000250504
0.000246021
0.000241552
0.000237082
0.000232524
0.000227745
0.000222734
0.000217646
0.000212674
0.000208031
0.000203894
0.000200358
0.000197524
0.00019571
0.000194616
0.000195978
0.000195404
0.00020145
0.00020753
0.000327359
0.000329907
0.000332894
0.000335859
0.000338404
0.000340542
0.000342049
0.000342628
0.000342206
0.000340841
0.000338605
0.000335586
0.00033191
0.00032758
0.000322613
0.000316986
0.000310615
0.000303472
0.000295463
0.000286523
0.000276624
0.000265729
0.00025386
0.000241164
0.000227913
0.000214415
0.000200869
0.000187419
0.000174196
0.000161308
0.000148838
0.000136899
0.000125717
0.000115468
0.000106513
0.000100715
9.89661e-05
0.000104417
0.000122193
0.000304169
0.000301706
0.00029884
0.000295794
0.000292933
0.000289952
0.000286972
0.000284063
0.000281168
0.000278296
0.000275422
0.000272505
0.000269536
0.000266483
0.00026333
0.000260044
0.000256638
0.000253119
0.00024947
0.000245752
0.00024196
0.000238048
0.000234097
0.000230145
0.000226081
0.000221816
0.000217346
0.000212766
0.000208241
0.000203988
0.000200138
0.000196812
0.000194096
0.000192281
0.000191132
0.000191746
0.000192253
0.000192709
0.000201597
0.00030636
0.000308443
0.000310879
0.000313312
0.000315374
0.000317074
0.000318221
0.000318609
0.000318171
0.000316941
0.000314988
0.000312406
0.000309273
0.000305585
0.000301392
0.000296618
0.000291224
0.00028515
0.000278282
0.000270589
0.000261955
0.000252381
0.000241842
0.000230423
0.000218376
0.000205993
0.000193448
0.000180878
0.000168385
0.000156108
0.000144102
0.000132485
0.000121426
0.000111113
0.000101911
9.55372e-05
9.33296e-05
9.83037e-05
0.000114449
0.000285265
0.000283243
0.000280872
0.000278359
0.000276011
0.000273557
0.000271109
0.00026872
0.000266335
0.000263978
0.000261616
0.00025921
0.000256752
0.00025423
0.000251604
0.000248861
0.000245996
0.000243023
0.000239927
0.000236742
0.000233476
0.000230097
0.000226641
0.000223172
0.000219585
0.000215806
0.000211832
0.000207726
0.00020365
0.000199771
0.000196208
0.000193094
0.000190497
0.000188665
0.000187476
0.000187478
0.000188229
0.000186663
0.000192689
0.000287034
0.000288707
0.000290699
0.000292677
0.000294316
0.00029567
0.000296519
0.000296754
0.000296287
0.000295171
0.000293437
0.000291213
0.000288496
0.000285348
0.000281755
0.00027769
0.000273095
0.000267881
0.000262013
0.000255348
0.000247854
0.000239449
0.000230084
0.000219835
0.000208909
0.000197565
0.00018598
0.000174265
0.000162505
0.000150809
0.000139289
0.000127977
0.000117025
0.000106643
9.7182e-05
9.01929e-05
8.75221e-05
9.21867e-05
0.000107028
0.000267777
0.000266142
0.0002642
0.000262143
0.000260228
0.000258226
0.000256232
0.000254288
0.00025235
0.00025043
0.000248507
0.000246559
0.000244544
0.000242469
0.000240312
0.000238044
0.000235666
0.00023317
0.000230567
0.000227872
0.000225084
0.000222194
0.000219199
0.000216168
0.000213036
0.000209719
0.000206202
0.000202557
0.000198899
0.000195375
0.000192101
0.00018919
0.000186727
0.00018489
0.000183634
0.00018321
0.000183611
0.000181554
0.000184287
0.000269209
0.000270547
0.000272151
0.000273744
0.000275038
0.000276073
0.000276709
0.000276811
0.000276314
0.000275256
0.000273719
0.000271739
0.000269389
0.000266676
0.000263572
0.000260085
0.000256135
0.000251678
0.000246614
0.000240857
0.000234335
0.000226927
0.000218626
0.000209445
0.000199566
0.000189202
0.000178509
0.000167599
0.000156558
0.000145444
0.000134381
0.000123392
0.000112613
0.000102109
9.23299e-05
8.46969e-05
8.15168e-05
8.60368e-05
9.99324e-05
0.00025159
0.000250275
0.000248698
0.000247023
0.000245488
0.000243875
0.000242267
0.000240709
0.000239159
0.00023762
0.000236071
0.000234499
0.000232887
0.000231203
0.000229448
0.000227596
0.000225639
0.000223579
0.00022141
0.000219142
0.000216798
0.000214353
0.000211787
0.000209172
0.000206458
0.000203574
0.000200491
0.000197268
0.000194014
0.000190826
0.000187832
0.000185127
0.000182784
0.000180948
0.000179608
0.000178877
0.000178736
0.000176483
0.000176823
0.000252719
0.000253776
0.000255063
0.000256333
0.000257345
0.000258097
0.000258546
0.000258522
0.000258006
0.000257015
0.000255618
0.000253858
0.000251799
0.000249407
0.000246735
0.000243719
0.000240312
0.000236469
0.000232088
0.000227097
0.000221374
0.000214885
0.000207521
0.000199292
0.000190359
0.000180913
0.000171079
0.000160938
0.000150572
0.000140044
0.000129417
0.000118749
0.000108089
9.75495e-05
8.73434e-05
7.9038e-05
7.53013e-05
7.98844e-05
9.31351e-05
0.000236561
0.000235522
0.000234262
0.000232922
0.000231699
0.000230423
0.00022915
0.000227919
0.000226697
0.000225488
0.000224278
0.000223034
0.000221753
0.000220417
0.00021901
0.00021752
0.000215942
0.000214255
0.000212476
0.000210593
0.000208645
0.000206591
0.000204418
0.000202195
0.000199879
0.000197384
0.0001947
0.000191877
0.000188993
0.000186133
0.000183411
0.000180896
0.000178674
0.000176867
0.000175426
0.00017444
0.000173785
0.000171269
0.000169964
0.000237449
0.000238257
0.000239262
0.000240282
0.000241046
0.000241586
0.000241853
0.00024173
0.000241185
0.000240258
0.000238972
0.000237395
0.000235553
0.000233454
0.000231115
0.000228482
0.000225528
0.000222194
0.00021838
0.00021403
0.000209049
0.000203333
0.000196787
0.000189431
0.000181366
0.000172747
0.000163708
0.000154311
0.000144589
0.000134625
0.000124448
0.000114097
0.000103556
9.29342e-05
8.23253e-05
7.31985e-05
6.88664e-05
7.37857e-05
8.66891e-05
0.000222599
0.000221793
0.000220803
0.000219737
0.000218796
0.000217808
0.000216808
0.000215871
0.000214925
0.000214002
0.000213076
0.000212112
0.000211126
0.000210093
0.000208991
0.000207807
0.000206555
0.000205209
0.000203765
0.000202232
0.000200636
0.000198941
0.000197128
0.000195242
0.000193288
0.000191158
0.000188838
0.000186389
0.000183842
0.000181304
0.000178833
0.00017651
0.000174419
0.000172632
0.000171102
0.000169887
0.00016879
0.00016597
0.000163489
0.000223274
0.000223879
0.000224652
0.000225442
0.000225989
0.00022636
0.000226478
0.000226284
0.000225711
0.000224812
0.000223639
0.000222196
0.000220536
0.000218682
0.00021661
0.000214315
0.000211721
0.000208801
0.000205501
0.000201691
0.000197317
0.000192264
0.000186464
0.000179873
0.000172592
0.000164751
0.000156453
0.000147741
0.000138646
0.000129216
0.000119481
0.000109437
9.90908e-05
8.83664e-05
7.733e-05
6.72539e-05
6.21664e-05
6.77002e-05
8.06388e-05
0.000209603
0.000208984
0.000208226
0.000207404
0.0002067
0.000205944
0.000205197
0.00020451
0.000203808
0.000203118
0.000202437
0.000201724
0.000200985
0.000200208
0.000199371
0.000198465
0.00019749
0.000196437
0.000195299
0.000194071
0.000192779
0.000191405
0.000189921
0.000188354
0.000186712
0.000184915
0.000182942
0.000180816
0.000178601
0.000176347
0.000174115
0.000171992
0.000170018
0.000168245
0.000166658
0.000165229
0.000163751
0.000160626
0.000157275
0.000210103
0.000210537
0.000211113
0.000211691
0.000212075
0.000212293
0.000212301
0.000212016
0.000211433
0.000210571
0.000209473
0.000208146
0.000206639
0.000204981
0.000203154
0.000201114
0.000198837
0.000196286
0.000193369
0.000190027
0.00018618
0.000181722
0.000176564
0.00017066
0.000164067
0.000156944
0.000149341
0.000141265
0.000132781
0.000123884
0.000114574
0.000104845
9.4671e-05
8.38976e-05
7.24278e-05
6.12539e-05
5.51516e-05
6.16782e-05
7.50047e-05
0.000197467
0.000197027
0.000196466
0.000195849
0.000195342
0.0001948
0.000194272
0.000193777
0.000193289
0.000192813
0.000192331
0.000191831
0.000191309
0.000190754
0.000190146
0.000189475
0.000188746
0.000187942
0.000187069
0.000186112
0.00018509
0.000183998
0.000182797
0.000181534
0.000180178
0.000178679
0.000177015
0.000175194
0.000173269
0.000171281
0.000169292
0.000167343
0.000165474
0.000163739
0.000162095
0.00016048
0.000158686
0.000155305
0.000151287
0.000197818
0.000198121
0.000198534
0.000198947
0.000199175
0.000199269
0.000199183
0.000198854
0.000198243
0.000197413
0.00019636
0.00019515
0.00019378
0.000192277
0.000190636
0.000188804
0.000186798
0.000184536
0.000181972
0.000179045
0.000175635
0.000171693
0.000167083
0.000161787
0.000155848
0.000149372
0.000142385
0.000134924
0.000127011
0.000118635
0.00010977
0.000100367
9.03661e-05
7.9558e-05
6.76777e-05
5.52018e-05
4.7754e-05
5.58742e-05
6.97996e-05
0.000186149
0.000185849
0.000185453
0.000185015
0.000184671
0.000184312
0.000183962
0.000183652
0.000183341
0.000183034
0.00018274
0.000182428
0.00018208
0.000181709
0.000181296
0.000180831
0.000180317
0.000179737
0.000179085
0.000178369
0.000177586
0.00017674
0.000175798
0.000174784
0.000173689
0.000172451
0.000171068
0.000169527
0.000167873
0.000166133
0.00016435
0.000162567
0.000160817
0.000159122
0.000157434
0.000155668
0.0001536
0.000150005
0.000145518
0.000186371
0.000186545
0.000186826
0.000187109
0.000187216
0.000187191
0.000187021
0.000186654
0.000186045
0.000185213
0.000184237
0.000183113
0.000181849
0.000180483
0.000178982
0.000177356
0.000175562
0.000173553
0.000171297
0.000168677
0.000165674
0.000162161
0.00015806
0.000153305
0.000147934
0.000142035
0.00013564
0.000128765
0.000121381
0.000113491
0.000105081
9.6047e-05
8.62667e-05
7.55148e-05
6.32644e-05
4.934e-05
3.97182e-05
5.04285e-05
6.50758e-05
0.000175564
0.000175385
0.000175133
0.000174838
0.000174643
0.000174439
0.000174245
0.000174081
0.000173922
0.000173775
0.00017362
0.000173456
0.000173279
0.000173075
0.000172824
0.00017253
0.000172191
0.000171805
0.000171355
0.00017084
0.000170277
0.000169646
0.000168925
0.000168133
0.000167259
0.000166268
0.00016512
0.000163829
0.000162417
0.000160907
0.00015932
0.000157706
0.000156059
0.000154406
0.000152686
0.000150792
0.000148511
0.000144765
0.00013994
0.000175679
0.000175756
0.000175929
0.000176083
0.000176097
0.000175986
0.000175758
0.000175324
0.000174712
0.000173923
0.000172986
0.000171922
0.000170763
0.000169516
0.000168148
0.000166691
0.00016508
0.000163288
0.000161254
0.000158945
0.000156278
0.000153145
0.00014949
0.000145199
0.000140344
0.00013498
0.000129125
0.000122781
0.000115912
0.000108523
0.000100548
9.18965e-05
8.24246e-05
7.18101e-05
5.9389e-05
4.40638e-05
3.06502e-05
4.56204e-05
6.09253e-05
0.000165656
0.000165585
0.000165446
0.000165279
0.00016521
0.000165134
0.00016507
0.000165028
0.000164999
0.000164984