/*--------------------------------*- C++ -*----------------------------------*\
| =========                 |                                                 |
| \\      /  F ield         | OpenFOAM: The Open Source CFD Toolbox           |
|  \\    /   O peration     | Version:  2506                                  |
|   \\  /    A nd           | Website:  www.openfoam.com                      |
|    \\/     M anipulation  |                                                 |
\*---------------------------------------------------------------------------*/
FoamFile
{
    version     2.0;
    format      ascii;
    arch        "LSB;label=32;scalar=64";
    class       volScalarField;
    location    "350";
    object      turbulenceProperties:nut;
}
// * * * * * * * * * * * * * * * * * * * * * * * * * * * * * * * * * * * * * //

dimensions      [0 2 -1 0 0 0 0];

internalField   nonuniform List<scalar> 
10720
(
2.58101e-05
2.9537e-05
3.45251e-05
4.09881e-05
4.93124e-05
6.00294e-05
7.38593e-05
9.11643e-05
0.000112982
0.000140356
0.000175243
0.000220756
0.000281327
0.000364911
0.000485094
0.000663898
0.000945948
0.00139535
0.00221762
0.00358948
0.00690299
0.0127127
0.0339273
0.0760558
0.0937249
0.0946461
0.0956934
0.0992335
0.102751
0.104485
0.104457
0.103206
0.100838
0.0974081
0.0927896
0.0869084
0.0784449
0.068314
0.0332537
2.25843e-05
1.98054e-05
1.7075e-05
1.45849e-05
1.22508e-05
1.01081e-05
8.24543e-06
6.96207e-06
8.09658e-06
1.07905e-05
1.54805e-05
2.32255e-05
3.55737e-05
5.44508e-05
8.1383e-05
0.000117939
0.000167171
0.000236266
0.000339368
0.000501787
0.000773214
0.00124189
0.00211745
0.00376968
0.00732758
0.014722
0.0324753
0.0663185
0.0934674
0.105024
0.108432
0.109374
0.10947
0.108974
0.107973
0.106576
0.10443
0.101995
0.092461
5.08543e-06
4.98028e-06
4.88541e-06
4.80678e-06
4.71657e-06
4.63375e-06
4.57241e-06
4.51872e-06
4.49562e-06
4.51592e-06
4.54345e-06
4.81864e-06
5.87946e-06
8.65413e-06
1.64159e-05
3.68172e-05
8.39094e-05
0.000162794
0.000315133
0.00058792
0.00132158
0.00283026
0.00711563
0.0204812
0.0394494
0.0632215
0.0925093
0.123706
0.148761
0.162712
0.167994
0.168809
0.167221
0.16387
0.159358
0.153856
0.148544
0.139521
0.139937
5.16903e-06
5.28228e-06
5.37879e-06
5.50979e-06
5.64408e-06
5.77996e-06
5.91109e-06
6.02167e-06
5.95911e-06
5.81772e-06
5.62464e-06
5.39036e-06
5.12412e-06
4.82949e-06
4.49576e-06
4.11979e-06
3.67672e-06
3.16248e-06
2.54832e-06
1.84354e-06
1.07407e-06
4.20545e-07
5.41024e-08
1.4692e-09
9.28551e-09
9.37035e-05
0.000539858
0.00415626
0.0141146
0.0287184
0.043726
0.0550614
0.0618244
0.0656063
0.0680041
0.0699945
0.0717262
0.0752982
0.0784592
6.26623e-06
6.28356e-06
6.30154e-06
6.32087e-06
6.34457e-06
6.37108e-06
6.4014e-06
6.43686e-06
6.47871e-06
6.52771e-06
6.58593e-06
6.65767e-06
6.73645e-06
6.88016e-06
6.89335e-06
6.4655e-06
4.7438e-06
3.50423e-06
1.27097e-09
8.30408e-06
6.37131e-07
1.94255e-05
1.30874e-06
0.000558843
0.00298625
0.00755549
0.0156965
0.0310637
0.0574065
0.0938409
0.132855
0.164549
0.184952
0.196788
0.203483
0.206365
0.207611
0.201515
0.210314
6.25296e-06
6.23393e-06
6.21938e-06
6.1978e-06
6.17925e-06
6.15933e-06
6.14159e-06
6.12757e-06
6.13234e-06
6.1473e-06
6.16692e-06
6.1909e-06
6.22024e-06
6.25309e-06
6.29012e-06
6.33105e-06
6.37754e-06
6.43084e-06
6.49454e-06
6.572e-06
6.67145e-06
6.79901e-06
6.98029e-06
7.1736e-06
7.436e-06
7.15678e-06
7.24744e-06
2.4845e-06
8.36643e-05
0.000790262
0.00301721
0.00754154
0.0142521
0.022435
0.0311555
0.0395982
0.0470011
0.0536722
0.0631645
6.08617e-06
6.08377e-06
6.08317e-06
6.08354e-06
6.08446e-06
6.08712e-06
6.09202e-06
6.09876e-06
6.10881e-06
6.12241e-06
6.14037e-06
6.16389e-06
6.19442e-06
6.23339e-06
6.28504e-06
6.33903e-06
6.21988e-06
5.89545e-06
4.10507e-06
2.02052e-06
8.30195e-08
1.84785e-07
2.26612e-09
9.30332e-05
0.000624356
1.9918e-06
0.000221479
0.000845553
0.00416426
0.0136883
0.0357133
0.0728342
0.11888
0.161382
0.193273
0.215412
0.232002
0.239196
0.255297
6.08684e-06
6.08919e-06
6.09231e-06
6.0945e-06
6.09829e-06
6.10033e-06
6.10165e-06
6.10258e-06
6.10044e-06
6.09775e-06
6.09426e-06
6.09052e-06
6.08706e-06
6.08364e-06
6.08031e-06
6.07683e-06
6.07316e-06
6.06916e-06
6.0641e-06
6.05902e-06
6.05365e-06
6.04792e-06
6.04111e-06
6.03484e-06
6.02806e-06
6.03039e-06
6.02313e-06
6.08255e-06
5.999e-06
5.95246e-06
5.20932e-06
4.16156e-06
0.000226318
0.00104493
0.00304126
0.00688437
0.0131275
0.0218459
0.0392286
6.11124e-06
6.1118e-06
6.11207e-06
6.11296e-06
6.11451e-06
6.11648e-06
6.11914e-06
6.12272e-06
6.12743e-06
6.13361e-06
6.14169e-06
6.15227e-06
6.16616e-06
6.18393e-06
6.20829e-06
6.23633e-06
6.27968e-06
6.29227e-06
6.35866e-06
5.95489e-06
5.00682e-06
1.14651e-06
1.46182e-08
4.53501e-10
0
4.20431e-09
1.19967e-05
0.00017383
0.000935537
0.000550473
0.00167979
0.00805632
0.0296226
0.0707564
0.124182
0.175126
0.21725
0.24811
0.278338
6.11128e-06
6.10991e-06
6.1106e-06
6.10955e-06
6.11043e-06
6.10922e-06
6.1071e-06
6.10522e-06
6.10415e-06
6.1039e-06
6.10389e-06
6.1038e-06
6.10414e-06
6.10468e-06
6.10564e-06
6.10688e-06
6.10843e-06
6.11027e-06
6.11246e-06
6.11494e-06
6.1177e-06
6.12074e-06
6.12417e-06
6.12797e-06
6.13291e-06
6.1372e-06
6.15044e-06
6.1301e-06
6.27274e-06
5.69522e-06
8.70854e-06
5.81899e-07
2.55833e-05
0.000245327
0.000728236
0.000716325
0.00123957
0.00164083
0.0137115
6.10511e-06
6.10489e-06
6.10518e-06
6.10543e-06
6.10553e-06
6.10593e-06
6.10653e-06
6.1073e-06
6.10852e-06
6.11021e-06
6.11253e-06
6.11575e-06
6.12011e-06
6.126e-06
6.13419e-06
6.14498e-06
6.15968e-06
6.1756e-06
6.20525e-06
6.30346e-06
6.77996e-06
6.13137e-06
4.57011e-06
3.15623e-07
9.32213e-09
1.98212e-09
8.61169e-11
0
0
0.000102252
0.000374442
0.00183915
0.000395903
0.00875961
0.0381142
0.0933607
0.160488
0.224071
0.278404
6.10464e-06
6.10395e-06
6.10486e-06
6.10464e-06
6.10634e-06
6.10607e-06
6.1047e-06
6.1035e-06
6.10252e-06
6.10192e-06
6.10148e-06
6.101e-06
6.10075e-06
6.10058e-06
6.10057e-06
6.1006e-06
6.10072e-06
6.10092e-06
6.10117e-06
6.10143e-06
6.10166e-06
6.10178e-06
6.10185e-06
6.1015e-06
6.10143e-06
6.10175e-06
6.10215e-06
6.10394e-06
6.10349e-06
6.11256e-06
6.09539e-06
6.19887e-06
5.60365e-06
4.20401e-06
2.90023e-09
0.000160134
0.000289808
0.000429286
0.00237787
6.10535e-06
6.10556e-06
6.10572e-06
6.10577e-06
6.10589e-06
6.10598e-06
6.10616e-06
6.1065e-06
6.10697e-06
6.10768e-06
6.10872e-06
6.11019e-06
6.11225e-06
6.11512e-06
6.11908e-06
6.12469e-06
6.13205e-06
6.14043e-06
6.14904e-06
6.14551e-06
6.23412e-06
6.50285e-06
6.99831e-06
5.98104e-06
3.37259e-06
1.21143e-06
5.15277e-08
7.94981e-09
2.95113e-09
2.26593e-11
0
0
6.14273e-05
0.00205869
0.00168385
0.0217774
0.0783161
0.166294
0.252413
6.10488e-06
6.10382e-06
6.1042e-06
6.10388e-06
6.10554e-06
6.10547e-06
6.10428e-06
6.10312e-06
6.10223e-06
6.10172e-06
6.10136e-06
6.10116e-06
6.10104e-06
6.10109e-06
6.10104e-06
6.10108e-06
6.10125e-06
6.10148e-06
6.10182e-06
6.10223e-06
6.10274e-06
6.10331e-06
6.10399e-06
6.10479e-06
6.10577e-06
6.10705e-06
6.10872e-06
6.11081e-06
6.11345e-06
6.11681e-06
6.12094e-06
6.1258e-06
6.1497e-06
5.5242e-06
3.40536e-06
5.85668e-08
1.17056e-08
1.49043e-11
5.65315e-05
6.10492e-06
6.10506e-06
6.10534e-06
6.10532e-06
6.10513e-06
6.105e-06
6.10485e-06
6.10469e-06
6.10464e-06
6.10465e-06
6.10473e-06
6.10496e-06
6.10534e-06
6.10593e-06
6.10682e-06
6.1082e-06
6.11019e-06
6.11259e-06
6.11589e-06
6.11526e-06
6.10771e-06
6.15356e-06
6.32748e-06
6.75997e-06
6.83286e-06
6.31828e-06
5.0146e-06
3.16295e-06
1.53802e-06
1.18305e-08
7.07712e-09
1.32624e-11
0
0
0.00038723
0.0054312
0.0161999
0.0904837
0.200171
6.10433e-06
6.10318e-06
6.10318e-06
6.10276e-06
6.10438e-06
6.10452e-06
6.10362e-06
6.10259e-06
6.10178e-06
6.10132e-06
6.101e-06
6.10084e-06
6.10077e-06
6.10086e-06
6.10095e-06
6.10106e-06
6.10113e-06
6.10113e-06
6.10122e-06
6.10131e-06
6.10144e-06
6.10158e-06
6.10174e-06
6.1019e-06
6.10202e-06
6.1022e-06
6.10242e-06
6.10268e-06
6.10294e-06
6.10304e-06
6.10351e-06
6.10081e-06
6.11178e-06
6.0774e-06
6.31427e-06
6.02171e-06
3.66917e-06
1.83124e-08
5.08327e-07
6.10485e-06
6.10498e-06
6.10512e-06
6.10493e-06
6.10475e-06
6.10447e-06
6.10424e-06
6.10412e-06
6.104e-06
6.10394e-06
6.10396e-06
6.10407e-06
6.1043e-06
6.1047e-06
6.10532e-06
6.10627e-06
6.1077e-06
6.10956e-06
6.11151e-06
6.1137e-06
6.11217e-06
6.10735e-06
6.11249e-06
6.21166e-06
6.41163e-06
6.64621e-06
6.92561e-06
6.9113e-06
6.75001e-06
4.83307e-06
2.802e-06
6.45535e-09
3.05632e-09
0
0
0
0.00442234
0.0303477
0.133116
6.10427e-06
6.10302e-06
6.10267e-06
6.10208e-06
6.10361e-06
6.10387e-06
6.10318e-06
6.10222e-06
6.10152e-06
6.10108e-06
6.10083e-06
6.1007e-06
6.10064e-06
6.10072e-06
6.10081e-06
6.10096e-06
6.10109e-06
6.10123e-06
6.10132e-06
6.10132e-06
6.10139e-06
6.10151e-06
6.10167e-06
6.10186e-06
6.10208e-06
6.10242e-06
6.10292e-06
6.10359e-06
6.10444e-06
6.1055e-06
6.10687e-06
6.10838e-06
6.11077e-06
6.10699e-06
6.12488e-06
6.18213e-06
6.67825e-06
4.56079e-06
2.60618e-09
6.10476e-06
6.10477e-06
6.10478e-06
6.1045e-06
6.10419e-06
6.1039e-06
6.10361e-06
6.10338e-06
6.10317e-06
6.10299e-06
6.10283e-06
6.10272e-06
6.10264e-06
6.10258e-06
6.10256e-06
6.10255e-06
6.10263e-06
6.10271e-06
6.10288e-06
6.10372e-06
6.10482e-06
6.10432e-06
6.1017e-06
6.10183e-06
6.12521e-06
6.17942e-06
6.2942e-06
6.49394e-06
6.8115e-06
7.18302e-06
7.46548e-06
5.13885e-06
1.19131e-06
1.08156e-08
0
0
2.96709e-05
0.00305856
0.0731177
6.10426e-06
6.10299e-06
6.10234e-06
6.10156e-06
6.10296e-06
6.10331e-06
6.10275e-06
6.10188e-06
6.10128e-06
6.10088e-06
6.10073e-06
6.10057e-06
6.10049e-06
6.10054e-06
6.10061e-06
6.10076e-06
6.10093e-06
6.10111e-06
6.10127e-06
6.10142e-06
6.10153e-06
6.10162e-06
6.10161e-06
6.10163e-06
6.10167e-06
6.10177e-06
6.10195e-06
6.10222e-06
6.10256e-06
6.10298e-06
6.1034e-06
6.10412e-06
6.10371e-06
6.10875e-06
6.08879e-06
6.18611e-06
5.83416e-06
8.77809e-06
5.65633e-07
6.10463e-06
6.1045e-06
6.10437e-06
6.10402e-06
6.10367e-06
6.10334e-06
6.10305e-06
6.10285e-06
6.10266e-06
6.10253e-06
6.10243e-06
6.10237e-06
6.10236e-06
6.1024e-06
6.1025e-06
6.10271e-06
6.10303e-06
6.10354e-06
6.10411e-06
6.10467e-06
6.10533e-06
6.10565e-06
6.10563e-06
6.10473e-06
6.10266e-06
6.09954e-06
6.09841e-06
6.12051e-06
6.18949e-06
6.41476e-06
6.82129e-06
7.6026e-06
7.17649e-06
3.01853e-06
1.57812e-08
0
0
0.00141307
0.0333832
6.10427e-06
6.10303e-06
6.10217e-06
6.10122e-06
6.10248e-06
6.10286e-06
6.10239e-06
6.1016e-06
6.10108e-06
6.10075e-06
6.10059e-06
6.10042e-06
6.10032e-06
6.10033e-06
6.10039e-06
6.10053e-06
6.10069e-06
6.10089e-06
6.10108e-06
6.10126e-06
6.10142e-06
6.10157e-06
6.10168e-06
6.10177e-06
6.10182e-06
6.10189e-06
6.10203e-06
6.10227e-06
6.10259e-06
6.10303e-06
6.10354e-06
6.1044e-06
6.10437e-06
6.10886e-06
6.09347e-06
6.1648e-06
5.85901e-06
7.15689e-06
4.36047e-06
6.10446e-06
6.10417e-06
6.10393e-06
6.10355e-06
6.10318e-06
6.10284e-06
6.10255e-06
6.10235e-06
6.10216e-06
6.10203e-06
6.10193e-06
6.10185e-06
6.10179e-06
6.10176e-06
6.10176e-06
6.1018e-06
6.10188e-06
6.10201e-06
6.10223e-06
6.10263e-06
6.10328e-06
6.10407e-06
6.10474e-06
6.10568e-06
6.1069e-06
6.10714e-06
6.10213e-06
6.09109e-06
6.07464e-06
6.08756e-06
6.1473e-06
6.48386e-06
7.20293e-06
7.78891e-06
4.00274e-06
1.05251e-08
0
0.000281943
0.0130705
6.10426e-06
6.10309e-06
6.10207e-06
6.10098e-06
6.10209e-06
6.10247e-06
6.10207e-06
6.10134e-06
6.10087e-06
6.10058e-06
6.10043e-06
6.10029e-06
6.10016e-06
6.10014e-06
6.10015e-06
6.10027e-06
6.10041e-06
6.1006e-06
6.1008e-06
6.10101e-06
6.10122e-06
6.10144e-06
6.10162e-06
6.10178e-06
6.10193e-06
6.10201e-06
6.10205e-06
6.10214e-06
6.10229e-06
6.10252e-06
6.10282e-06
6.10325e-06
6.1035e-06
6.10507e-06
6.10156e-06
6.11904e-06
6.05991e-06
6.20549e-06
6.16175e-06
6.10421e-06
6.1038e-06
6.10349e-06
6.1031e-06
6.10273e-06
6.10239e-06
6.10212e-06
6.10194e-06
6.10178e-06
6.10169e-06
6.10162e-06
6.10158e-06
6.10156e-06
6.10156e-06
6.10158e-06
6.10164e-06
6.10175e-06
6.10193e-06
6.10218e-06
6.1025e-06
6.1029e-06
6.10343e-06
6.10403e-06
6.1047e-06
6.10592e-06
6.10799e-06
6.10982e-06
6.10873e-06
6.10021e-06
6.08398e-06
6.0597e-06
6.06175e-06
6.24385e-06
6.80007e-06
8.53041e-06
2.51286e-06
1.5394e-12
7.35063e-05
0.00435078
6.10419e-06
6.10313e-06
6.10204e-06
6.10082e-06
6.10178e-06
6.10214e-06
6.10178e-06
6.10112e-06
6.1007e-06
6.10041e-06
6.10025e-06
6.10011e-06
6.09997e-06
6.09992e-06
6.09992e-06
6.1e-06
6.10013e-06
6.10031e-06
6.10052e-06
6.10077e-06
6.10101e-06
6.10125e-06
6.10148e-06
6.10168e-06
6.10188e-06
6.10202e-06
6.10209e-06
6.10212e-06
6.10221e-06
6.10236e-06
6.10259e-06
6.10291e-06
6.10333e-06
6.10371e-06
6.10477e-06
6.10285e-06
6.11704e-06
6.05288e-06
6.25717e-06
6.10392e-06
6.10342e-06
6.10307e-06
6.10269e-06
6.10232e-06
6.10198e-06
6.10175e-06
6.1016e-06
6.10149e-06
6.10144e-06
6.10141e-06
6.10139e-06
6.10138e-06
6.10138e-06
6.1014e-06
6.10144e-06
6.1015e-06
6.10161e-06
6.10176e-06
6.10199e-06
6.10231e-06
6.10275e-06
6.1033e-06
6.10392e-06
6.10469e-06
6.10598e-06
6.10812e-06
6.1107e-06
6.11226e-06
6.10918e-06
6.09877e-06
6.06878e-06
6.04731e-06
6.08151e-06
6.6879e-06
1.04389e-05
1.16236e-08
1.35569e-06
0.00111076
6.10405e-06
6.10314e-06
6.10202e-06
6.10072e-06
6.10153e-06
6.10185e-06
6.10152e-06
6.10091e-06
6.10052e-06
6.10024e-06
6.10007e-06
6.09995e-06
6.09979e-06
6.09971e-06
6.09969e-06
6.09976e-06
6.09988e-06
6.10006e-06
6.10026e-06
6.10051e-06
6.10075e-06
6.10102e-06
6.10127e-06
6.10151e-06
6.10174e-06
6.10193e-06
6.10206e-06
6.10213e-06
6.10215e-06
6.10222e-06
6.10235e-06
6.10255e-06
6.10286e-06
6.10306e-06
6.10414e-06
6.10211e-06
6.11262e-06
6.0814e-06
6.1464e-06
6.10358e-06
6.10305e-06
6.10268e-06
6.10231e-06
6.10195e-06
6.10163e-06
6.10144e-06
6.10135e-06
6.10128e-06
6.10127e-06
6.10128e-06
6.10129e-06
6.10131e-06
6.10135e-06
6.10138e-06
6.10143e-06
6.10149e-06
6.10159e-06
6.10171e-06
6.1019e-06
6.10214e-06
6.10246e-06
6.10287e-06
6.10339e-06
6.10403e-06
6.10486e-06
6.10614e-06
6.10805e-06
6.11071e-06
6.11323e-06
6.11423e-06
6.11063e-06
6.0783e-06
6.1072e-06
5.64365e-06
9.30608e-06
2.34289e-06
3.35745e-10
7.03782e-05
6.10385e-06
6.10311e-06
6.102e-06
6.10065e-06
6.10131e-06
6.10159e-06
6.10129e-06
6.10073e-06
6.10034e-06
6.10006e-06
6.09989e-06
6.09976e-06
6.0996e-06
6.09952e-06
6.09949e-06
6.09954e-06
6.09964e-06
6.0998e-06
6.09999e-06
6.10022e-06
6.10048e-06
6.10076e-06
6.10103e-06
6.1013e-06
6.10156e-06
6.10178e-06
6.10196e-06
6.10209e-06
6.10214e-06
6.10217e-06
6.10224e-06
6.10237e-06
6.10257e-06
6.1028e-06
6.1033e-06
6.10315e-06
6.10559e-06
6.10211e-06
6.10731e-06
6.10326e-06
6.10273e-06
6.10232e-06
6.10196e-06
6.10163e-06
6.10136e-06
6.10122e-06
6.10117e-06
6.10116e-06
6.10119e-06
6.10124e-06
6.10129e-06
6.10133e-06
6.10138e-06
6.10142e-06
6.10147e-06
6.10152e-06
6.1016e-06
6.1017e-06
6.10184e-06
6.10203e-06
6.10228e-06
6.10261e-06
6.10303e-06
6.10359e-06
6.10429e-06
6.1052e-06
6.10644e-06
6.10814e-06
6.11059e-06
6.11271e-06
6.11934e-06
6.10206e-06
6.16593e-06
5.81579e-06
6.44137e-06
9.65046e-06
4.73166e-11
6.89704e-07
6.10363e-06
6.10303e-06
6.10196e-06
6.1006e-06
6.10112e-06
6.10135e-06
6.10106e-06
6.10055e-06
6.10017e-06
6.09988e-06
6.09971e-06
6.09959e-06
6.09942e-06
6.09932e-06
6.09929e-06
6.09933e-06
6.09941e-06
6.09956e-06
6.09975e-06
6.09998e-06
6.10023e-06
6.10051e-06
6.1008e-06
6.10108e-06
6.10137e-06
6.10162e-06
6.10184e-06
6.10201e-06
6.10212e-06
6.10218e-06
6.1022e-06
6.10226e-06
6.10238e-06
6.10256e-06
6.10282e-06
6.10319e-06
6.1034e-06
6.10576e-06
6.10272e-06
6.10295e-06
6.10241e-06
6.10199e-06
6.10164e-06
6.10136e-06
6.10114e-06
6.10106e-06
6.10107e-06
6.1011e-06
6.10118e-06
6.10125e-06
6.10132e-06
6.10138e-06
6.10144e-06
6.10149e-06
6.10155e-06
6.1016e-06
6.10167e-06
6.10176e-06
6.10188e-06
6.10203e-06
6.10223e-06
6.10249e-06
6.10283e-06
6.10329e-06
6.1039e-06
6.10468e-06
6.10566e-06
6.10686e-06
6.10856e-06
6.11003e-06
6.11473e-06
6.1126e-06
6.12479e-06
6.19145e-06
5.26931e-06
1.21235e-05
3.17189e-10
1.92516e-16
6.10338e-06
6.10293e-06
6.10191e-06
6.10056e-06
6.10095e-06
6.10114e-06
6.10086e-06
6.10038e-06
6.09999e-06
6.09971e-06
6.09953e-06
6.09939e-06
6.09924e-06
6.09915e-06
6.0991e-06
6.09914e-06
6.09921e-06
6.09935e-06
6.09952e-06
6.09973e-06
6.09998e-06
6.10026e-06
6.10056e-06
6.10086e-06
6.10116e-06
6.10143e-06
6.10167e-06
6.10187e-06
6.10203e-06
6.10214e-06
6.10219e-06
6.10221e-06
6.10227e-06
6.10239e-06
6.10256e-06
6.10288e-06
6.103e-06
6.10492e-06
6.10362e-06
6.10265e-06
6.10211e-06
6.10168e-06
6.10137e-06
6.10113e-06
6.10098e-06
6.10096e-06
6.10102e-06
6.10109e-06
6.10119e-06
6.10129e-06
6.10138e-06
6.10146e-06
6.10153e-06
6.10159e-06
6.10165e-06
6.1017e-06
6.10177e-06
6.10185e-06
6.10195e-06
6.10207e-06
6.10224e-06
6.10246e-06
6.10273e-06
6.10311e-06
6.10363e-06
6.10431e-06
6.10516e-06
6.10618e-06
6.10745e-06
6.10898e-06
6.11005e-06
6.11866e-06
6.08343e-06
6.31203e-06
5.30665e-06
9.4756e-06
1.60121e-06
5.24963e-10
6.10311e-06
6.10279e-06
6.10185e-06
6.10052e-06
6.1008e-06
6.10093e-06
6.10067e-06
6.10021e-06
6.09983e-06
6.09954e-06
6.09936e-06
6.09922e-06
6.09906e-06
6.09897e-06
6.09893e-06
6.09896e-06
6.09903e-06
6.09915e-06
6.09931e-06
6.09952e-06
6.09975e-06
6.10003e-06
6.10033e-06
6.10064e-06
6.10094e-06
6.10123e-06
6.10149e-06
6.10172e-06
6.10191e-06
6.10206e-06
6.10216e-06
6.10221e-06
6.10223e-06
6.10229e-06
6.10241e-06
6.10262e-06
6.10282e-06
6.10408e-06
6.10385e-06
6.10236e-06
6.10184e-06
6.10139e-06
6.10114e-06
6.10096e-06
6.10087e-06
6.10091e-06
6.10101e-06
6.10111e-06
6.10123e-06
6.10135e-06
6.10145e-06
6.10153e-06
6.10161e-06
6.10168e-06
6.10174e-06
6.1018e-06
6.10186e-06
6.10193e-06
6.10202e-06
6.10212e-06
6.10226e-06
6.10244e-06
6.10268e-06
6.10299e-06
6.10343e-06
6.10402e-06
6.10476e-06
6.10569e-06
6.10671e-06
6.10838e-06
6.10795e-06
6.11877e-06
6.08112e-06
6.24477e-06
5.74166e-06
6.93199e-06
6.84333e-06
8.84073e-08
6.10283e-06
6.10263e-06
6.10176e-06
6.10048e-06
6.10065e-06
6.10074e-06
6.10048e-06
6.10004e-06
6.09966e-06
6.09938e-06
6.0992e-06
6.09904e-06
6.0989e-06
6.09882e-06
6.09878e-06
6.0988e-06
6.09887e-06
6.09898e-06
6.09912e-06
6.09932e-06
6.09955e-06
6.09982e-06
6.10011e-06
6.10041e-06
6.10072e-06
6.10102e-06
6.10129e-06
6.10154e-06
6.10176e-06
6.10194e-06
6.10209e-06
6.10219e-06
6.10223e-06
6.10225e-06
6.10232e-06
6.10245e-06
6.10265e-06
6.10362e-06
6.1036e-06
6.10209e-06
6.10159e-06
6.10114e-06
6.10094e-06
6.10083e-06
6.10081e-06
6.1009e-06
6.10102e-06
6.10114e-06
6.10128e-06
6.1014e-06
6.10151e-06
6.10161e-06
6.10169e-06
6.10177e-06
6.10184e-06
6.1019e-06
6.10197e-06
6.10204e-06
6.10212e-06
6.10222e-06
6.10234e-06
6.10249e-06
6.10268e-06
6.10294e-06
6.10331e-06
6.10381e-06
6.10445e-06
6.10527e-06
6.10615e-06
6.10767e-06
6.10756e-06
6.11472e-06
6.09732e-06
6.1525e-06
6.07604e-06
5.87639e-06
8.5015e-06
1.68622e-06
6.10256e-06
6.10245e-06
6.10166e-06
6.10043e-06
6.1005e-06
6.10055e-06
6.10029e-06
6.09987e-06
6.0995e-06
6.09922e-06
6.09904e-06
6.09887e-06
6.09874e-06
6.09866e-06
6.09863e-06
6.09865e-06
6.09871e-06
6.09882e-06
6.09896e-06
6.09914e-06
6.09935e-06
6.0996e-06
6.09989e-06
6.1002e-06
6.1005e-06
6.10079e-06
6.10107e-06
6.10133e-06
6.10157e-06
6.10178e-06
6.10196e-06
6.1021e-06
6.10219e-06
6.10223e-06
6.10227e-06
6.10235e-06
6.1025e-06
6.10334e-06
6.10332e-06
6.10184e-06
6.10136e-06
6.10093e-06
6.1008e-06
6.10075e-06
6.10078e-06
6.10089e-06
6.10103e-06
6.10117e-06
6.10132e-06
6.10145e-06
6.10158e-06
6.10169e-06
6.10179e-06
6.10187e-06
6.10196e-06
6.10203e-06
6.1021e-06
6.10217e-06
6.10225e-06
6.10234e-06
6.10245e-06
6.10259e-06
6.10275e-06
6.10297e-06
6.10328e-06
6.1037e-06
6.10425e-06
6.10496e-06
6.10575e-06
6.10695e-06
6.10762e-06
6.11053e-06
6.11007e-06
6.10406e-06
6.19485e-06
5.732e-06
7.58313e-06
4.59965e-06
6.1023e-06
6.10226e-06
6.10154e-06
6.10037e-06
6.10037e-06
6.10037e-06
6.10011e-06
6.0997e-06
6.09934e-06
6.09908e-06
6.09887e-06
6.09871e-06
6.09859e-06
6.09852e-06
6.0985e-06
6.09852e-06
6.09858e-06
6.09867e-06
6.0988e-06
6.09896e-06
6.09916e-06
6.0994e-06
6.09967e-06
6.09996e-06
6.10026e-06
6.10055e-06
6.10083e-06
6.1011e-06
6.10136e-06
6.10159e-06
6.1018e-06
6.10197e-06
6.1021e-06
6.1022e-06
6.10221e-06
6.10225e-06
6.10236e-06
6.10308e-06
6.10308e-06
6.10161e-06
6.10115e-06
6.10076e-06
6.10069e-06
6.1007e-06
6.10076e-06
6.1009e-06
6.10105e-06
6.10121e-06
6.10136e-06
6.10151e-06
6.10164e-06
6.10176e-06
6.10187e-06
6.10197e-06
6.10206e-06
6.10214e-06
6.10222e-06
6.10229e-06
6.10238e-06
6.10246e-06
6.10257e-06
6.10269e-06
6.10283e-06
6.10303e-06
6.1033e-06
6.10366e-06
6.10414e-06
6.10475e-06
6.10548e-06
6.1064e-06
6.10753e-06
6.10819e-06
6.11398e-06
6.09443e-06
6.18569e-06
5.89135e-06
6.61962e-06
6.15242e-06
6.10204e-06
6.10207e-06
6.10141e-06
6.10029e-06
6.10023e-06
6.10019e-06
6.09992e-06
6.09953e-06
6.09918e-06
6.09893e-06
6.09872e-06
6.09855e-06
6.09845e-06
6.0984e-06
6.09837e-06
6.09839e-06
6.09844e-06
6.09852e-06
6.09863e-06
6.09878e-06
6.09896e-06
6.09919e-06
6.09945e-06
6.09973e-06
6.10003e-06
6.10031e-06
6.10059e-06
6.10087e-06
6.10114e-06
6.10139e-06
6.10163e-06
6.10183e-06
6.102e-06
6.10213e-06
6.1022e-06
6.10223e-06
6.10228e-06
6.10289e-06
6.10288e-06
6.1014e-06
6.10098e-06
6.10062e-06
6.10062e-06
6.10066e-06
6.10075e-06
6.10091e-06
6.10108e-06
6.10124e-06
6.10141e-06
6.10157e-06
6.10172e-06
6.10185e-06
6.10197e-06
6.10207e-06
6.10217e-06
6.10226e-06
6.10235e-06
6.10243e-06
6.10252e-06
6.10261e-06
6.1027e-06
6.10282e-06
6.10295e-06
6.10312e-06
6.10336e-06
6.10367e-06
6.10409e-06
6.10461e-06
6.10528e-06
6.10604e-06
6.10722e-06
6.10744e-06
6.11273e-06
6.10035e-06
6.14628e-06
6.04409e-06
6.17257e-06
6.41769e-06
6.1018e-06
6.10186e-06
6.10127e-06
6.10021e-06
6.10008e-06
6.10001e-06
6.09974e-06
6.09935e-06
6.09902e-06
6.09877e-06
6.09856e-06
6.09841e-06
6.09831e-06
6.09826e-06
6.09824e-06
6.09826e-06
6.0983e-06
6.09837e-06
6.09847e-06
6.09861e-06
6.09878e-06
6.09899e-06
6.09924e-06
6.09951e-06
6.09979e-06
6.10007e-06
6.10035e-06
6.10063e-06
6.10091e-06
6.10118e-06
6.10143e-06
6.10166e-06
6.10186e-06
6.10202e-06
6.10214e-06
6.10219e-06
6.10222e-06
6.10272e-06
6.10274e-06
6.10121e-06
6.10083e-06
6.10052e-06
6.10056e-06
6.10063e-06
6.10074e-06
6.10092e-06
6.1011e-06
6.10128e-06
6.10146e-06
6.10163e-06
6.10179e-06
6.10193e-06
6.10206e-06
6.10217e-06
6.10228e-06
6.10238e-06
6.10248e-06
6.10256e-06
6.10265e-06
6.10275e-06
6.10285e-06
6.10296e-06
6.10308e-06
6.10324e-06
6.10344e-06
6.10372e-06
6.10408e-06
6.10455e-06
6.10514e-06
6.10581e-06
6.10684e-06
6.10734e-06
6.11042e-06
6.10691e-06
6.11957e-06
6.11387e-06
6.06219e-06
6.28648e-06
6.10156e-06
6.10166e-06
6.10112e-06
6.10011e-06
6.09994e-06
6.09983e-06
6.09955e-06
6.09917e-06
6.09884e-06
6.0986e-06
6.0984e-06
6.09826e-06
6.09817e-06
6.09812e-06
6.0981e-06
6.09812e-06
6.09815e-06
6.09822e-06
6.09831e-06
6.09844e-06
6.09859e-06
6.09879e-06
6.09902e-06
6.09929e-06
6.09956e-06
6.09983e-06
6.10011e-06
6.10039e-06
6.10067e-06
6.10094e-06
6.10121e-06
6.10146e-06
6.10169e-06
6.10188e-06
6.10204e-06
6.10213e-06
6.10215e-06
6.10256e-06
6.10261e-06
6.10103e-06
6.10069e-06
6.10043e-06
6.10051e-06
6.10061e-06
6.10073e-06
6.10093e-06
6.10112e-06
6.10132e-06
6.10151e-06
6.10169e-06
6.10186e-06
6.10201e-06
6.10215e-06
6.10228e-06
6.10239e-06
6.1025e-06
6.10261e-06
6.1027e-06
6.1028e-06
6.1029e-06
6.103e-06
6.10311e-06
6.10323e-06
6.10337e-06
6.10356e-06
6.1038e-06
6.10412e-06
6.10453e-06
6.10506e-06
6.10568e-06
6.10652e-06
6.10731e-06
6.10883e-06
6.1099e-06
6.10958e-06
6.12737e-06
6.07413e-06
6.16545e-06
6.10134e-06
6.10145e-06
6.10096e-06
6.10001e-06
6.09979e-06
6.09965e-06
6.09936e-06
6.09898e-06
6.09866e-06
6.09843e-06
6.09824e-06
6.0981e-06
6.09802e-06
6.09797e-06
6.09795e-06
6.09797e-06
6.098e-06
6.09806e-06
6.09814e-06
6.09826e-06
6.09841e-06
6.09859e-06
6.09881e-06
6.09906e-06
6.09932e-06
6.09958e-06
6.09985e-06
6.10013e-06
6.10042e-06
6.1007e-06
6.10098e-06
6.10124e-06
6.10149e-06
6.10172e-06
6.1019e-06
6.10204e-06
6.10205e-06
6.10237e-06
6.10246e-06
6.10086e-06
6.10056e-06
6.10035e-06
6.10046e-06
6.10058e-06
6.10073e-06
6.10094e-06
6.10115e-06
6.10136e-06
6.10156e-06
6.10175e-06
6.10193e-06
6.10209e-06
6.10224e-06
6.10238e-06
6.10251e-06
6.10262e-06
6.10274e-06
6.10284e-06
6.10295e-06
6.10305e-06
6.10316e-06
6.10327e-06
6.10339e-06
6.10353e-06
6.1037e-06
6.10392e-06
6.1042e-06
6.10456e-06
6.10503e-06
6.1056e-06
6.10631e-06
6.10719e-06
6.10809e-06
6.11024e-06
6.10831e-06
6.12164e-06
6.1006e-06
6.11795e-06
6.10113e-06
6.10125e-06
6.1008e-06
6.09989e-06
6.09963e-06
6.09946e-06
6.09916e-06
6.09879e-06
6.09848e-06
6.09825e-06
6.09807e-06
6.09794e-06
6.09786e-06
6.09782e-06
6.0978e-06
6.09781e-06
6.09784e-06
6.0979e-06
6.09798e-06
6.09809e-06
6.09822e-06
6.0984e-06
6.0986e-06
6.09884e-06
6.09909e-06
6.09934e-06
6.0996e-06
6.09988e-06
6.10016e-06
6.10045e-06
6.10074e-06
6.10102e-06
6.10129e-06
6.10154e-06
6.10174e-06
6.10193e-06
6.10195e-06
6.10218e-06
6.1023e-06
6.1007e-06
6.10044e-06
6.10028e-06
6.10041e-06
6.10055e-06
6.10072e-06
6.10095e-06
6.10117e-06
6.1014e-06
6.10161e-06
6.10181e-06
6.102e-06
6.10217e-06
6.10233e-06
6.10248e-06
6.10262e-06
6.10274e-06
6.10287e-06
6.10298e-06
6.1031e-06
6.10321e-06
6.10333e-06
6.10344e-06
6.10356e-06
6.1037e-06
6.10386e-06
6.10406e-06
6.10431e-06
6.10464e-06
6.10505e-06
6.10557e-06
6.10619e-06
6.10702e-06
6.1078e-06
6.10963e-06
6.10925e-06
6.11521e-06
6.11333e-06
6.111e-06
6.10093e-06
6.10105e-06
6.10063e-06
6.09976e-06
6.09947e-06
6.09927e-06
6.09896e-06
6.09858e-06
6.09828e-06
6.09806e-06
6.09789e-06
6.09777e-06
6.09769e-06
6.09765e-06
6.09764e-06
6.09765e-06
6.09768e-06
6.09773e-06
6.09781e-06
6.09791e-06
6.09803e-06
6.09819e-06
6.09839e-06
6.09861e-06
6.09885e-06
6.09909e-06
6.09935e-06
6.09962e-06
6.0999e-06
6.10019e-06
6.10048e-06
6.10077e-06
6.10105e-06
6.10132e-06
6.10156e-06
6.10177e-06
6.10185e-06
6.10202e-06
6.10217e-06
6.10055e-06
6.10033e-06
6.1002e-06
6.10037e-06
6.10053e-06
6.10072e-06
6.10096e-06
6.1012e-06
6.10143e-06
6.10166e-06
6.10187e-06
6.10207e-06
6.10225e-06
6.10242e-06
6.10258e-06
6.10272e-06
6.10286e-06
6.10299e-06
6.10312e-06
6.10324e-06
6.10336e-06
6.10349e-06
6.10361e-06
6.10373e-06
6.10387e-06
6.10402e-06
6.10421e-06
6.10445e-06
6.10474e-06
6.10511e-06
6.10558e-06
6.10615e-06
6.10689e-06
6.10768e-06
6.10902e-06
6.10985e-06
6.11215e-06
6.11541e-06
6.11444e-06
6.10074e-06
6.10085e-06
6.10045e-06
6.09963e-06
6.0993e-06
6.09907e-06
6.09875e-06
6.09838e-06
6.09808e-06
6.09787e-06
6.0977e-06
6.09758e-06
6.09751e-06
6.09748e-06
6.09746e-06
6.09748e-06
6.09751e-06
6.09756e-06
6.09763e-06
6.09772e-06
6.09784e-06
6.09799e-06
6.09817e-06
6.09838e-06
6.09861e-06
6.09884e-06
6.09908e-06
6.09935e-06
6.09962e-06
6.09991e-06
6.10021e-06
6.10051e-06
6.1008e-06
6.10109e-06
6.10135e-06
6.10158e-06
6.10173e-06
6.10184e-06
6.10204e-06
6.1004e-06
6.10022e-06
6.10013e-06
6.10032e-06
6.1005e-06
6.10071e-06
6.10097e-06
6.10122e-06
6.10147e-06
6.10171e-06
6.10193e-06
6.10214e-06
6.10233e-06
6.10251e-06
6.10267e-06
6.10283e-06
6.10298e-06
6.10312e-06
6.10326e-06
6.10339e-06
6.10352e-06
6.10365e-06
6.10378e-06
6.10391e-06
6.10405e-06
6.1042e-06
6.10437e-06
6.10459e-06
6.10487e-06
6.10521e-06
6.10563e-06
6.10615e-06
6.10682e-06
6.10759e-06
6.10865e-06
6.10986e-06
6.11129e-06
6.11399e-06
6.11679e-06
6.10055e-06
6.10065e-06
6.10027e-06
6.09948e-06
6.09912e-06
6.09887e-06
6.09853e-06
6.09816e-06
6.09787e-06
6.09766e-06
6.0975e-06
6.09739e-06
6.09733e-06
6.09729e-06
6.09728e-06
6.0973e-06
6.09733e-06
6.09738e-06
6.09744e-06
6.09753e-06
6.09763e-06
6.09777e-06
6.09795e-06
6.09815e-06
6.09836e-06
6.09858e-06
6.09882e-06
6.09907e-06
6.09934e-06
6.09963e-06
6.09992e-06
6.10023e-06
6.10053e-06
6.10083e-06
6.10112e-06
6.10137e-06
6.10158e-06
6.10163e-06
6.10189e-06
6.10026e-06
6.10011e-06
6.10006e-06
6.10027e-06
6.10048e-06
6.1007e-06
6.10098e-06
6.10124e-06
6.1015e-06
6.10175e-06
6.10198e-06
6.1022e-06
6.1024e-06
6.10259e-06
6.10277e-06
6.10293e-06
6.10309e-06
6.10325e-06
6.10339e-06
6.10354e-06
6.10368e-06
6.10381e-06
6.10395e-06
6.10409e-06
6.10423e-06
6.10438e-06
6.10455e-06
6.10476e-06
6.10501e-06
6.10532e-06
6.10571e-06
6.10619e-06
6.10679e-06
6.10753e-06
6.10846e-06
6.10961e-06
6.11113e-06
6.11256e-06
6.11689e-06
6.10037e-06
6.10045e-06
6.10008e-06
6.09932e-06
6.09894e-06
6.09866e-06
6.09831e-06
6.09794e-06
6.09765e-06
6.09745e-06
6.09729e-06
6.09719e-06
6.09713e-06
6.0971e-06
6.09709e-06
6.0971e-06
6.09713e-06
6.09718e-06
6.09724e-06
6.09732e-06
6.09742e-06
6.09755e-06
6.09771e-06
6.0979e-06
6.0981e-06
6.09831e-06
6.09854e-06
6.09878e-06
6.09905e-06
6.09933e-06
6.09962e-06
6.09993e-06
6.10024e-06
6.10055e-06
6.10085e-06
6.10113e-06
6.10138e-06
6.10145e-06
6.10175e-06
6.10011e-06
6.1e-06
6.09998e-06
6.10022e-06
6.10045e-06
6.10069e-06
6.10098e-06
6.10126e-06
6.10153e-06
6.10179e-06
6.10204e-06
6.10226e-06
6.10247e-06
6.10267e-06
6.10286e-06
6.10304e-06
6.10321e-06
6.10337e-06
6.10353e-06
6.10368e-06
6.10383e-06
6.10398e-06
6.10413e-06
6.10427e-06
6.10442e-06
6.10457e-06
6.10474e-06
6.10494e-06
6.10517e-06
6.10546e-06
6.10582e-06
6.10627e-06
6.10682e-06
6.1075e-06
6.10836e-06
6.10937e-06
6.111e-06
6.1118e-06
6.11609e-06
6.10019e-06
6.10025e-06
6.09989e-06
6.09915e-06
6.09874e-06
6.09843e-06
6.09808e-06
6.09771e-06
6.09743e-06
6.09723e-06
6.09708e-06
6.09698e-06
6.09692e-06
6.09689e-06
6.09688e-06
6.0969e-06
6.09692e-06
6.09697e-06
6.09702e-06
6.0971e-06
6.09719e-06
6.09731e-06
6.09746e-06
6.09764e-06
6.09783e-06
6.09803e-06
6.09825e-06
6.09848e-06
6.09874e-06
6.09901e-06
6.09931e-06
6.09961e-06
6.09993e-06
6.10025e-06
6.10057e-06
6.10086e-06
6.10115e-06
6.10126e-06
6.10163e-06
6.09997e-06
6.09989e-06
6.09991e-06
6.10017e-06
6.10041e-06
6.10068e-06
6.10099e-06
6.10128e-06
6.10156e-06
6.10183e-06
6.10208e-06
6.10232e-06
6.10254e-06
6.10275e-06
6.10295e-06
6.10314e-06
6.10331e-06
6.10349e-06
6.10366e-06
6.10382e-06
6.10398e-06
6.10414e-06
6.1043e-06
6.10445e-06
6.1046e-06
6.10476e-06
6.10493e-06
6.10512e-06
6.10535e-06
6.10562e-06
6.10596e-06
6.10637e-06
6.10688e-06
6.1075e-06
6.10832e-06
6.10921e-06
6.11081e-06
6.11143e-06
6.11529e-06
6.10001e-06
6.10006e-06
6.0997e-06
6.09897e-06
6.09854e-06
6.09821e-06
6.09784e-06
6.09747e-06
6.09719e-06
6.09699e-06
6.09685e-06
6.09675e-06
6.0967e-06
6.09667e-06
6.09666e-06
6.09668e-06
6.0967e-06
6.09674e-06
6.09679e-06
6.09686e-06
6.09695e-06
6.09706e-06
6.0972e-06
6.09737e-06
6.09755e-06
6.09773e-06
6.09794e-06