/*--------------------------------*- C++ -*----------------------------------*\
| =========                 |                                                 |
| \\      /  F ield         | OpenFOAM: The Open Source CFD Toolbox           |
|  \\    /   O peration     | Version:  2506                                  |
|   \\  /    A nd           | Website:  www.openfoam.com                      |
|    \\/     M anipulation  |                                                 |
\*---------------------------------------------------------------------------*/
FoamFile
{
    version     2.0;
    format      ascii;
    arch        "LSB;label=32;scalar=64";
    class       volScalarField;
    location    "350";
    object      turbulenceProperties:epsilon;
}
// * * * * * * * * * * * * * * * * * * * * * * * * * * * * * * * * * * * * * //

dimensions      [0 2 -3 0 0 0 0];

internalField   nonuniform List<scalar> 
10720
(
0.259376
0.340108
0.453004
0.623614
0.840259
1.13493
1.53088
2.0351
2.68427
3.51473
4.57822
5.96485
7.80283
10.2917
13.772
18.7592
26.2383
37.3561
56.0469
83.016
139.643
211.735
435.097
738.984
736.029
667.131
637.32
637.403
643.305
639.559
622.826
593.286
548.353
489.322
416.493
334.32
232.291
145.692
16.2566
0.194133
0.147076
0.100363
0.0666662
0.0405448
0.0221729
0.0111794
0.00631241
0.00685197
0.0122561
0.0258933
0.054234
0.107177
0.197703
0.340165
0.55371
0.870373
1.35292
2.12182
3.40213
5.64664
9.71394
17.6442
33.2295
67.6635
140.846
318.965
663.235
945.008
1066.9
1100.15
1101.72
1088.11
1062.35
1025.37
978.903
912.849
836.921
619.375
0.00736103
0.00727998
0.00711433
0.00670963
0.00610654
0.00544803
0.00471922
0.00396221
0.00327815
0.00267041
0.00214894
0.00182002
0.00177277
0.00210517
0.00330795
0.00671206
0.0165638
0.0442151
0.138955
0.449547
1.75908
6.25742
23.5168
83.816
166.337
234.983
278.25
285.022
250.959
193.143
135.866
91.9112
63.5083
45.7306
34.273
26.5044
21.7476
17.5742
20.2089
0.00722731
0.00703171
0.00664132
0.0060828
0.00535939
0.00447603
0.0035413
0.00273959
0.00209104
0.0015342
0.00108414
0.00075737
0.000526729
0.000363734
0.000249049
0.000169135
0.000113323
7.46799e-05
4.72839e-05
2.75712e-05
1.31809e-05
4.21844e-06
4.013e-07
6.842e-09
5.57945e-08
0.00098656
0.00606476
0.0512803
0.170757
0.319758
0.466701
0.615331
0.773855
0.946802
1.1346
1.34797
1.59535
2.2073
4.0968
0.00330256
0.00325041
0.00310527
0.00288998
0.00267309
0.00244435
0.00222358
0.00203401
0.00187764
0.00176054
0.00167237
0.00162259
0.00160883
0.00163566
0.00164584
0.00154858
0.00112243
0.000800998
1.12562e-07
0.00158885
7.28204e-05
0.00107856
1.45843e-06
0.0229404
0.512414
2.54109
7.87919
20.0527
42.2896
70.5289
91.602
94.2529
80.1175
60.6959
44.1809
31.9728
23.9968
16.9432
20.4979
0.00335435
0.00334637
0.0033288
0.00321154
0.00300848
0.00268237
0.0022633
0.00182819
0.00146533
0.00113387
0.000824628
0.000571997
0.000385001
0.000253526
0.000165603
0.000108238
7.19571e-05
4.9356e-05
3.55859e-05
2.70814e-05
2.18926e-05
1.8819e-05
1.72195e-05
1.63677e-05
1.63046e-05
1.61226e-05
1.82325e-05
6.37736e-06
0.000167533
0.000992288
0.00208846
0.00364294
0.00959044
0.0265251
0.0598365
0.110634
0.177006
0.222086
0.549842
0.00235416
0.00236393
0.00234022
0.00230143
0.00222236
0.0021072
0.001968
0.00180083
0.00161888
0.00142894
0.00123794
0.00105124
0.000872836
0.000707465
0.000557551
0.00041925
0.00030041
0.000214623
0.0001259
6.35093e-05
2.54726e-06
9.34902e-06
8.91108e-08
0.00717478
0.0342123
7.81413e-05
0.00315273
0.00177852
0.0186379
0.447399
3.22219
11.6569
25.0465
35.499
37.1903
32.4032
26.6052
19.7652
21.4783
0.00230391
0.00222879
0.00211346
0.00197859
0.00181578
0.00161319
0.00139182
0.00117419
0.000967256
0.00076536
0.000581489
0.000432004
0.000318386
0.000234344
0.000173361
0.000129293
9.78804e-05
7.55222e-05
5.96712e-05
4.81458e-05
3.96867e-05
3.3215e-05
2.79045e-05
2.28192e-05
1.81257e-05
1.46352e-05
1.22457e-05
1.06583e-05
8.88556e-06
6.83532e-06
3.86378e-06
1.5317e-06
2.28356e-05
1.51621e-05
6.81397e-05
0.000862587
0.00494497
0.0189468
0.139794
0.00132489
0.00132018
0.00129967
0.00126343
0.00120841
0.00113573
0.00105086
0.000956844
0.00085817
0.00076188
0.000671426
0.000590026
0.000520332
0.000462964
0.000417818
0.000381643
0.000345329
0.000301952
0.000256279
0.000195938
0.000137118
2.71946e-05
2.49299e-07
6.51651e-09
0
1.00565e-07
0.000619727
0.00710147
0.0348445
0.0159482
0.0248112
0.0158852
0.170189
2.42337
9.08896
16.9128
21.0192
19.7688
21.8306
0.00131805
0.00129944
0.00126282
0.00120534
0.00112651
0.0010194
0.00089826
0.000776729
0.000656877
0.000536861
0.000424844
0.00032792
0.000248303
0.000184962
0.000136053
9.92604e-05
7.22607e-05
5.28576e-05
3.91606e-05
2.95115e-05
2.27146e-05
1.78299e-05
1.41646e-05
1.10608e-05
8.30137e-06
6.10254e-06
4.59785e-06
3.68342e-06
3.31194e-06
2.83331e-06
4.17001e-06
2.07761e-07
8.53515e-06
5.12856e-05
0.000109911
7.9473e-05
9.20931e-05
0.000240977
0.0150703
0.000890143
0.000897727
0.000897056
0.000890656
0.000873225
0.000845392
0.000808785
0.000762639
0.000708851
0.000649714
0.000586709
0.00052219
0.000458424
0.000397008
0.000339311
0.000284299
0.000229891
0.000180051
0.000138615
0.000107071
8.83819e-05
6.40658e-05
4.25163e-05
2.3884e-06
4.85463e-08
8.51011e-09
2.49459e-10
0
0
0.00145452
0.0063168
0.0338189
0.00570778
0.0421348
0.0465469
1.6629
7.52675
13.9972
19.8756
0.000874099
0.000852117
0.000820689
0.000780151
0.000729539
0.000665633
0.000595715
0.000525031
0.000453212
0.000379952
0.000310157
0.000247721
0.000194539
0.000150755
0.000115786
8.85995e-05
6.79186e-05
5.24537e-05
4.10275e-05
3.25777e-05
2.62687e-05
2.14139e-05
1.74706e-05
1.39441e-05
1.07031e-05
8.01498e-06
5.98692e-06
4.51845e-06
3.4448e-06
2.6625e-06
2.07253e-06
1.60345e-06
1.0342e-06
5.0977e-07
1.00101e-10
7.30165e-06
1.14995e-05
4.84971e-05
0.00111899
0.000582483
0.000587611
0.000588411
0.000585484
0.000576187
0.000560266
0.00053838
0.000510276
0.000476744
0.000439294
0.000399143
0.000357836
0.000317059
0.000278197
0.000242185
0.000210015
0.000182831
0.000159217
0.000136755
0.000114917
9.60948e-05
8.18921e-05
7.21614e-05
5.01035e-05
2.19439e-05
5.57129e-06
1.24715e-07
1.19619e-08
3.44244e-09
1.47624e-11
0
0
0.000429611
0.0179006
0.0126173
0.0336922
0.417127
4.90853
14.1156
0.000572972
0.000560191
0.000541861
0.000517103
0.000485883
0.000447244
0.000405718
0.000362773
0.00031823
0.000272767
0.000228757
0.000188194
0.000152266
0.00012139
9.56053e-05
7.46314e-05
5.79553e-05
4.49668e-05
3.50194e-05
2.74525e-05
2.16965e-05
1.72524e-05
1.3703e-05
1.06769e-05
8.02464e-06
5.86019e-06
4.2367e-06
3.07466e-06
2.24995e-06
1.67401e-06
1.29998e-06
1.08067e-06
9.59033e-07
7.85538e-07
4.3886e-07
4.9125e-09
8.12198e-10
7.03267e-13
2.43649e-05
0.000400149
0.000405621
0.000408882
0.000410218
0.000407983
0.000401877
0.000392247
0.000378548
0.000360962
0.00034017
0.000316485
0.0002907
0.000263674
0.000236166
0.000208934
0.000182721
0.000157346
0.000132466
0.000109461
8.9664e-05
7.37222e-05
6.23299e-05
5.49626e-05
5.00336e-05
4.0918e-05
2.83847e-05
1.58654e-05
6.8782e-06
2.32385e-06
8.01312e-09
3.7734e-09
2.99771e-12
0
0
0.00113884
0.024197
0.0273166
0.466509
6.3935
0.000391972
0.000382245
0.000369397
0.000352689
0.000332279
0.000307837
0.00028222
0.000255249
0.000226975
0.000198187
0.000169898
0.000143247
0.000118957
9.73971e-05
7.87689e-05
6.31186e-05
5.02575e-05
3.99305e-05
3.17898e-05
2.54267e-05
2.04519e-05
1.65108e-05
1.32888e-05
1.05114e-05
8.06598e-06
6.03473e-06
4.46315e-06
3.28895e-06
2.4157e-06
1.76348e-06
1.28441e-06
9.34781e-07
6.78768e-07
4.93231e-07
3.82772e-07
3.15521e-07
1.80199e-07
1.1425e-09
1.53694e-07
0.000278441
0.000282842
0.000286079
0.000288099
0.000288034
0.000285561
0.00028078
0.000273252
0.000263012
0.000250304
0.000235291
0.000218436
0.000200265
0.000181304
0.000162195
0.000143384
0.000125416
0.000108977
9.40617e-05
8.05719e-05
6.8587e-05
5.84819e-05
5.04021e-05
4.39725e-05
3.76127e-05
3.04122e-05
2.34328e-05
1.69741e-05
1.22061e-05
6.49254e-06
2.79551e-06
2.61807e-09
9.72527e-10
0
0
0
0.00986373
0.0254706
1.52664
0.00027245
0.000265615
0.000256896
0.000245554
0.000232051
0.000216265
0.000199891
0.000182489
0.000164174
0.000145566
0.000127121
0.000109455
9.29659e-05
7.79127e-05
6.44842e-05
5.28137e-05
4.28959e-05
3.46493e-05
2.79146e-05
2.24837e-05
1.8124e-05
1.45992e-05
1.16867e-05
9.19696e-06
7.04143e-06
5.25397e-06
3.86738e-06
2.8297e-06
2.06246e-06
1.4991e-06
1.09227e-06
8.11307e-07
6.24348e-07
5.08654e-07
4.46735e-07
4.54174e-07
5.26793e-07
5.92016e-07
3.89557e-10
0.000197888
0.000201518
0.000204588
0.00020698
0.000208091
0.000207801
0.000206075
0.00020254
0.000197202
0.000190126
0.000181276
0.000170896
0.000159266
0.000146665
0.000133439
0.000119959
0.000106603
9.34679e-05
8.07467e-05
6.90261e-05
5.88436e-05
5.04003e-05
4.35529e-05
3.76097e-05
3.17304e-05
2.56244e-05
2.00013e-05
1.56218e-05
1.26062e-05
1.04005e-05
8.48728e-06
4.55046e-06
7.6595e-07
3.48423e-09
0
0
1.70274e-05
0.00392685
0.192265
0.000193278
0.000188253
0.000182088
0.000174135
0.000164975
0.000154576
0.000143761
0.000132257
0.000120193
0.000107954
9.5766e-05
8.39403e-05
7.26877e-05
6.21608e-05
5.25286e-05
4.39156e-05
3.63711e-05
2.99043e-05
2.44663e-05
1.99598e-05
1.62486e-05
1.31846e-05
1.06167e-05
8.41542e-06
6.51093e-06
4.9223e-06
3.66837e-06
2.71538e-06
1.99763e-06
1.45906e-06
1.06257e-06
7.74208e-07
5.6941e-07
4.29925e-07
3.40598e-07
3.24342e-07
3.15566e-07
8.75728e-07
1.33814e-07
0.000142652
0.000145538
0.000148164
0.00015039
0.000151835
0.000152433
0.000152082
0.000150557
0.000147784
0.000143754
0.000138435
0.000131906
0.000124316
0.000115788
0.000106589
9.69707e-05
8.71805e-05
7.75192e-05
6.82614e-05
5.96017e-05
5.17909e-05
4.49588e-05
3.90677e-05
3.37506e-05
2.84369e-05
2.29862e-05
1.78937e-05
1.38238e-05
1.09377e-05
9.06185e-06
7.79528e-06
7.08119e-06
5.46388e-06
1.84976e-06
4.75846e-09
0
0
0.000846556
0.0276123
0.000139139
0.000135447
0.000131065
0.000125412
0.000119072
0.000112085
0.000104773
9.69998e-05
8.89388e-05
8.07695e-05
7.25966e-05
6.45925e-05
5.68743e-05
4.9518e-05
4.26261e-05
3.6302e-05
3.06022e-05
2.55673e-05
2.12142e-05
1.74998e-05
1.43601e-05
1.17105e-05
9.45646e-06
7.51661e-06
5.84081e-06
4.44031e-06
3.32313e-06
2.46497e-06
1.81511e-06
1.32715e-06
9.67447e-07
7.09109e-07
5.298e-07
4.12167e-07
3.40401e-07
3.31543e-07
3.29052e-07
6.59087e-07
1.03024e-06
0.000104223
0.000106535
0.000108725
0.000110687
0.000112172
0.000113155
0.000113537
0.000113136
0.00011189
0.000109788
0.000106741
0.000102796
9.79899e-05
9.24027e-05
8.61615e-05
7.94233e-05
7.23825e-05
6.5243e-05
5.8125e-05
5.12348e-05
4.48791e-05
3.92355e-05
3.42849e-05
2.97695e-05
2.52873e-05
2.0702e-05
1.6355e-05
1.27385e-05
1.00304e-05
8.09007e-06
6.67093e-06
5.82478e-06
5.43237e-06
5.02608e-06
2.16961e-06
2.92419e-09
0
0.00010391
0.00835534
0.000101536
9.87767e-05
9.55967e-05
9.15414e-05
8.7073e-05
8.22742e-05
7.7239e-05
7.18949e-05
6.64191e-05
6.08862e-05
5.53417e-05
4.98797e-05
4.45562e-05
3.93975e-05
3.44744e-05
2.98538e-05
2.5577e-05
2.17024e-05
1.82538e-05
1.52328e-05
1.262e-05
1.03685e-05
8.42152e-06
6.73072e-06
5.27043e-06
4.04136e-06
3.05143e-06
2.27975e-06
1.68902e-06
1.24174e-06
9.07746e-07
6.65638e-07
4.92711e-07
3.76446e-07
3.03043e-07
2.85341e-07
2.91893e-07
4.81995e-07
1.22988e-06
7.69967e-05
7.88304e-05
8.06239e-05
8.2292e-05
8.36592e-05
8.47174e-05
8.54009e-05
8.55683e-05
8.51548e-05
8.41503e-05
8.24755e-05
8.01192e-05
7.70899e-05
7.3437e-05
6.92116e-05
6.4516e-05
5.94674e-05
5.42341e-05
4.89404e-05
4.37321e-05
3.8802e-05
3.42771e-05
3.0172e-05
2.63374e-05
2.25299e-05
1.86646e-05
1.49763e-05
1.18401e-05
9.4163e-06
7.59617e-06
6.19703e-06
5.14333e-06
4.46854e-06
4.21669e-06
4.62257e-06
1.21829e-06
1.33453e-13
3.12339e-05
0.00279199
7.49455e-05
7.28675e-05
7.05337e-05
6.75889e-05
6.43936e-05
6.10366e-05
5.75043e-05
5.37813e-05
5.00036e-05
4.62092e-05
4.24091e-05
3.8645e-05
3.49471e-05
3.13257e-05
2.78067e-05
2.44342e-05
2.12489e-05
1.82912e-05
1.5587e-05
1.31568e-05
1.10019e-05
9.10531e-06
7.43987e-06
5.97908e-06
4.71164e-06
3.63942e-06
2.76625e-06
2.07774e-06
1.54559e-06
1.13933e-06
8.35527e-07
6.12864e-07
4.55009e-07
3.48622e-07
2.82235e-07
2.6418e-07
2.71712e-07
4.08668e-07
1.03886e-06
5.74552e-05
5.8901e-05
6.03509e-05
6.17383e-05
6.29475e-05
6.39658e-05
6.47479e-05
6.5173e-05
6.52287e-05
6.48577e-05
6.40125e-05
6.2671e-05
6.08355e-05
5.84966e-05
5.56955e-05
5.2477e-05
4.89123e-05
4.51258e-05
4.12e-05
3.72343e-05
3.33611e-05
2.97291e-05
2.63545e-05
2.31501e-05
1.99636e-05
1.67333e-05
1.36274e-05
1.09345e-05
8.80301e-06
7.16408e-06
5.88319e-06
4.87014e-06
4.09543e-06
3.56595e-06
3.45425e-06
5.01755e-06
2.79741e-09
5.70313e-07
0.000700092
5.58689e-05
5.42923e-05
5.25622e-05
5.03951e-05
4.80884e-05
4.56947e-05
4.31804e-05
4.05549e-05
3.79215e-05
3.5283e-05
3.26447e-05
3.00319e-05
2.74507e-05
2.48959e-05
2.23797e-05
1.99297e-05
1.75654e-05
1.53176e-05
1.32171e-05
1.12827e-05
9.52547e-06
7.94665e-06
6.53667e-06
5.28782e-06
4.19719e-06
3.26804e-06
2.50245e-06
1.89218e-06
1.41464e-06
1.04764e-06
7.70296e-07
5.65664e-07
4.19515e-07
3.19335e-07
2.55862e-07
2.35567e-07
2.39725e-07
3.50322e-07
8.40571e-07
4.32422e-05
4.43802e-05
4.555e-05
4.66853e-05
4.77135e-05
4.86402e-05
4.94024e-05
4.9936e-05
5.02136e-05
5.02029e-05
4.98506e-05
4.91465e-05
4.80675e-05
4.66011e-05
4.47632e-05
4.2582e-05
4.00937e-05
3.73703e-05
3.44961e-05
3.15262e-05
2.85452e-05
2.56753e-05
2.29404e-05
2.02928e-05
1.76474e-05
1.49575e-05
1.23522e-05
1.00482e-05
8.1761e-06
6.71157e-06
5.55591e-06
4.63893e-06
3.90361e-06
3.39519e-06
2.75799e-06
4.23394e-06
9.47442e-07
4.69995e-11
4.34244e-05
4.20124e-05
4.08115e-05
3.95047e-05
3.79005e-05
3.62147e-05
3.44816e-05
3.26703e-05
3.07981e-05
2.89386e-05
2.70837e-05
2.52359e-05
2.34049e-05
2.15915e-05
1.97803e-05
1.79787e-05
1.62006e-05
1.44518e-05
1.27547e-05
1.11348e-05
9.60645e-06
8.18977e-06
6.89031e-06
5.70936e-06
4.64956e-06
3.71608e-06
2.91551e-06
2.24911e-06
1.7112e-06
1.28601e-06
9.55764e-07
7.04558e-07
5.18311e-07
3.83914e-07
2.91137e-07
2.31993e-07
2.11272e-07
2.12727e-07
2.99816e-07
6.83868e-07
3.27952e-05
3.36857e-05
3.46317e-05
3.55543e-05
3.64141e-05
3.72176e-05
3.79171e-05
3.8474e-05
3.88439e-05
3.90237e-05
3.89642e-05
3.86454e-05
3.80512e-05
3.71622e-05
3.59892e-05
3.45375e-05
3.28279e-05
3.08947e-05
2.88106e-05
2.66001e-05
2.43207e-05
2.20666e-05
1.98739e-05
1.77166e-05
1.55365e-05
1.33163e-05
1.11455e-05
9.18705e-06
7.55568e-06
6.25373e-06
5.21184e-06
4.38123e-06
3.70959e-06
3.24935e-06
2.69671e-06
2.76491e-06
3.86939e-06
4.69991e-12
3.5327e-07
3.18379e-05
3.09081e-05
2.99165e-05
2.87204e-05
2.74776e-05
2.62058e-05
2.48826e-05
2.35352e-05
2.22042e-05
2.08875e-05
1.95813e-05
1.82889e-05
1.70053e-05
1.57153e-05
1.44247e-05
1.31313e-05
1.18399e-05
1.05663e-05
9.32338e-06
8.12821e-06
6.99531e-06
5.93419e-06
4.9547e-06
4.06532e-06
3.27369e-06
2.58775e-06
2.01133e-06
1.54026e-06
1.16378e-06
8.68666e-07
6.41695e-07
4.72742e-07
3.49264e-07
2.63698e-07
2.08026e-07
1.86585e-07
1.85888e-07
2.53513e-07
5.55709e-07
2.50366e-05
2.57432e-05
2.64956e-05
2.72434e-05
2.79595e-05
2.86408e-05
2.9262e-05
2.97796e-05
3.01806e-05
3.04469e-05
3.05421e-05
3.04536e-05
3.01659e-05
2.96616e-05
2.89362e-05
2.79877e-05
2.6826e-05
2.5477e-05
2.39773e-05
2.23554e-05
2.06364e-05
1.88886e-05
1.71468e-05
1.54083e-05
1.36304e-05
1.18117e-05
1.00143e-05
8.36e-06
6.95117e-06
5.80036e-06
4.86498e-06
4.11143e-06
3.5051e-06
3.05001e-06
2.71812e-06
2.12144e-06
4.56933e-06
3.68096e-11
5.45236e-18
2.429e-05
2.35685e-05
2.2811e-05
2.19072e-05
2.09854e-05
2.00398e-05
1.90641e-05
1.80833e-05
1.71219e-05
1.61779e-05
1.52452e-05
1.43249e-05
1.34088e-05
1.24897e-05
1.1559e-05
1.06179e-05
9.66567e-06
8.71355e-06
7.76621e-06
6.83736e-06
5.93836e-06
5.08062e-06
4.27546e-06
3.53359e-06
2.86694e-06
2.28371e-06
1.78791e-06
1.37786e-06
1.04671e-06
7.84469e-07
5.80967e-07
4.2812e-07
3.15596e-07
2.37216e-07
1.8541e-07
1.63579e-07
1.61144e-07
2.12859e-07
4.48967e-07
1.92211e-05
1.97853e-05
2.03841e-05
2.09913e-05
2.15764e-05
2.21501e-05
2.26891e-05
2.31558e-05
2.35433e-05
2.38367e-05
2.40136e-05
2.4056e-05
2.3957e-05
2.36971e-05
2.32684e-05
2.26679e-05
2.18975e-05
2.09658e-05
1.99043e-05
1.8724e-05
1.7442e-05
1.61011e-05
1.47353e-05
1.33467e-05
1.19133e-05
1.04334e-05
8.95535e-06
7.57105e-06
6.36384e-06
5.3545e-06
4.52337e-06
3.84241e-06
3.29526e-06
2.85151e-06
2.61145e-06
2.00522e-06
3.36017e-06
4.71332e-07
8.05902e-11
1.86403e-05
1.80811e-05
1.74954e-05
1.68085e-05
1.61166e-05
1.54078e-05
1.468e-05
1.3961e-05
1.32602e-05
1.25769e-05
1.19051e-05
1.12438e-05
1.05878e-05
9.92587e-06
9.25341e-06
8.56776e-06
7.86789e-06
7.15636e-06
6.43676e-06
5.71831e-06
5.01093e-06
4.32408e-06
3.66864e-06
3.05475e-06
2.49646e-06
2.00364e-06
1.58008e-06
1.22556e-06
9.36144e-07
7.0452e-07
5.23354e-07
3.85276e-07
2.83386e-07
2.11583e-07
1.63576e-07
1.41869e-07
1.37888e-07
1.77216e-07
3.60223e-07
1.4836e-05
1.52819e-05
1.57651e-05
1.62519e-05
1.67325e-05
1.72104e-05
1.76657e-05
1.80764e-05
1.84329e-05
1.87209e-05
1.89307e-05
1.9044e-05
1.90554e-05
1.89464e-05
1.87137e-05
1.83487e-05
1.78527e-05
1.72224e-05
1.64799e-05
1.5634e-05
1.46892e-05
1.36685e-05
1.26107e-05
1.15151e-05
1.03727e-05
9.17807e-06
7.97073e-06
6.82202e-06
5.79555e-06
4.92002e-06
4.18655e-06
3.57579e-06
3.08101e-06
2.67202e-06
2.42348e-06
2.03151e-06
2.28531e-06
2.01493e-06
2.20237e-08
1.43802e-05
1.39437e-05
1.34898e-05
1.29649e-05
1.2441e-05
1.19048e-05
1.13583e-05
1.0824e-05
1.03096e-05
9.8103e-06
9.32116e-06
8.84316e-06
8.36973e-06
7.89011e-06
7.4023e-06
6.90289e-06
6.38652e-06
5.85471e-06
5.31079e-06
4.75884e-06
4.2054e-06
3.65884e-06
3.12812e-06
2.62498e-06
2.16179e-06
1.74812e-06
1.38859e-06
1.084e-06
8.32021e-07
6.28852e-07
4.68282e-07
3.44642e-07
2.52786e-07
1.87134e-07
1.42708e-07
1.21517e-07
1.16513e-07
1.46232e-07
2.86593e-07
1.15068e-05
1.18602e-05
1.22452e-05
1.26397e-05
1.30306e-05
1.34261e-05
1.38081e-05
1.41592e-05
1.44745e-05
1.47469e-05
1.49595e-05
1.51056e-05
1.51764e-05
1.51636e-05
1.50574e-05
1.48506e-05
1.45409e-05
1.41282e-05
1.36143e-05
1.30147e-05
1.23288e-05
1.15652e-05
1.07522e-05
9.89888e-06
8.99452e-06
8.03995e-06
7.06274e-06
6.11503e-06
5.25073e-06
4.498e-06
3.85477e-06
3.31262e-06
2.86564e-06
2.50017e-06
2.22968e-06
2.00283e-06
1.78779e-06
2.30656e-06
4.97564e-07
1.11457e-05
1.08033e-05
1.04504e-05
1.00467e-05
9.64695e-06
9.23812e-06
8.82499e-06
8.42422e-06
8.04251e-06
7.67308e-06
7.31607e-06
6.96841e-06
6.6228e-06
6.27389e-06
5.91839e-06
5.55202e-06
5.17049e-06
4.77507e-06
4.36383e-06
3.94135e-06
3.5111e-06
3.0797e-06
2.65367e-06
2.24332e-06
1.86142e-06
1.51616e-06
1.21281e-06
9.52989e-07
7.35327e-07
5.57612e-07
4.15998e-07
3.06414e-07
2.23693e-07
1.64077e-07
1.2341e-07
1.02672e-07
9.70803e-08
1.19483e-07
2.26656e-07
8.96104e-06
9.2416e-06
9.5483e-06
9.86598e-06
1.01855e-05
1.05105e-05
1.08291e-05
1.11271e-05
1.14014e-05
1.16452e-05
1.18485e-05
1.20046e-05
1.21069e-05
1.21469e-05
1.21176e-05
1.20163e-05
1.18326e-05
1.1569e-05
1.12242e-05
1.08082e-05
1.03157e-05
9.75141e-06
9.13648e-06
8.47781e-06
7.77042e-06
7.01331e-06
6.22805e-06
5.45341e-06
4.73263e-06
4.09001e-06
3.5315e-06
3.05412e-06
2.65269e-06
2.32698e-06
2.05655e-06
1.89221e-06
1.60556e-06
1.87908e-06
1.24971e-06
8.67563e-06
8.40469e-06
8.12925e-06
7.81761e-06
7.50848e-06
7.19508e-06
6.88155e-06
6.57991e-06
6.29311e-06
6.01949e-06
5.75562e-06
5.49886e-06
5.24474e-06
4.99034e-06
4.73e-06
4.46027e-06
4.17866e-06
3.88281e-06
3.57355e-06
3.25076e-06
2.91763e-06
2.57869e-06
2.23895e-06
1.90693e-06
1.59363e-06
1.30753e-06
1.05312e-06
8.32638e-07
6.45978e-07
4.91698e-07
3.67462e-07
2.70238e-07
1.96314e-07
1.42745e-07
1.05426e-07
8.56425e-08
7.96053e-08
9.65103e-08
1.77955e-07
7.00309e-06
7.22623e-06
7.47385e-06
7.72958e-06
7.98842e-06
8.25465e-06
8.51757e-06
8.76877e-06
9.0041e-06
9.21771e-06
9.40319e-06
9.55601e-06
9.66919e-06
9.73848e-06
9.75622e-06
9.71849e-06
9.62266e-06
9.46294e-06
9.23787e-06
8.95452e-06
8.60804e-06
8.19545e-06
7.73549e-06
7.23287e-06
6.68616e-06
6.0924e-06
5.46612e-06
4.83957e-06
4.24284e-06
3.69886e-06
3.21839e-06
2.80111e-06
2.44415e-06
2.15225e-06
1.89991e-06
1.74225e-06
1.5141e-06
1.48914e-06
1.45829e-06
6.7794e-06
6.56334e-06
6.34696e-06
6.10668e-06
5.86606e-06
5.62393e-06
5.38461e-06
5.15495e-06
4.93839e-06
4.73279e-06
4.53584e-06
4.34484e-06
4.15822e-06
3.97041e-06
3.77843e-06
3.57969e-06
3.37029e-06
3.14999e-06
2.91692e-06
2.67103e-06
2.41435e-06
2.14882e-06
1.87891e-06
1.61209e-06
1.35697e-06
1.12125e-06
9.09248e-07
7.23146e-07
5.63843e-07
4.30808e-07
3.22414e-07
2.36559e-07
1.71131e-07
1.22848e-07
8.88926e-08
7.03213e-08
6.41299e-08
7.70069e-08
1.38646e-07
5.49121e-06
5.67019e-06
5.86865e-06
6.07392e-06
6.28459e-06
6.5026e-06
6.71914e-06
6.92764e-06
7.1275e-06
7.31219e-06
7.47654e-06
7.61755e-06
7.73121e-06
7.81258e-06
7.85843e-06
7.86142e-06
7.81981e-06
7.73124e-06
7.59027e-06
7.40145e-06
7.16258e-06
6.8677e-06
6.52732e-06
6.15013e-06
5.73079e-06
5.26919e-06
4.77598e-06
4.27227e-06
3.78224e-06
3.32758e-06
2.91735e-06
2.55556e-06
2.24084e-06
1.97899e-06
1.75092e-06
1.58842e-06
1.41832e-06
1.25598e-06
1.31567e-06
5.31408e-06
5.14403e-06
4.97244e-06
4.78529e-06
4.59845e-06
4.41053e-06
4.22493e-06
4.04899e-06
3.88464e-06
3.72905e-06
3.58084e-06
3.43858e-06
3.29977e-06
3.15975e-06
3.01792e-06
2.87005e-06
2.71449e-06
2.54988e-06
2.37374e-06
2.18717e-06
1.98904e-06
1.78232e-06
1.56965e-06
1.35616e-06
1.14939e-06
9.56262e-07
7.80496e-07
6.24449e-07
4.89081e-07
3.74963e-07
2.8092e-07
2.05738e-07
1.47716e-07
1.04548e-07
7.40269e-08
5.6669e-08
5.06062e-08
6.0554e-08
1.07377e-07
4.31933e-06
4.462e-06
4.62063e-06
4.7865e-06
4.95742e-06
5.13524e-06
5.3135e-06
5.48664e-06
5.65384e-06
5.81157e-06
5.95481e-06
6.08156e-06
6.18825e-06
6.2732e-06
6.33132e-06
6.35861e-06
6.352e-06
6.3098e-06
6.22787e-06
6.10659e-06
5.94505e-06
5.73872e-06
5.4912e-06
5.21129e-06
4.89391e-06
4.53861e-06
4.15302e-06
3.7513e-06
3.35384e-06
2.97708e-06
2.63007e-06
2.31891e-06
2.04352e-06
1.80948e-06
1.60518e-06
1.444e-06
1.303e-06
1.11217e-06
1.11346e-06
4.17801e-06
4.04282e-06
3.90746e-06
3.76063e-06
3.61398e-06
3.46853e-06
3.32384e-06
3.18857e-06
3.06254e-06
2.94439e-06
2.8317e-06
2.7253e-06
2.62047e-06
2.51616e-06
2.40985e-06
2.29959e-06
2.18351e-06
2.0593e-06
1.9272e-06
1.78474e-06
1.63313e-06
1.47278e-06
1.30534e-06
1.13531e-06
9.68607e-07
8.10995e-07
6.66156e-07
5.36088e-07
4.21896e-07
3.24309e-07
2.43328e-07
1.77693e-07
1.26441e-07
8.80767e-08
6.08416e-08
4.48109e-08
3.90562e-08
4.6881e-08
8.26103e-08
3.40586e-06
3.52036e-06
3.64769e-06
3.78183e-06
3.92008e-06
4.06485e-06
4.21107e-06
4.35406e-06
4.49363e-06
4.62645e-06
4.74935e-06
4.86176e-06
4.95865e-06
5.0398e-06
5.1025e-06
5.1425e-06
5.1577e-06
5.14492e-06
5.10267e-06
5.02963e-06
4.92383e-06
4.78283e-06
4.60575e-06
4.39989e-06
4.16316e-06
3.89312e-06
3.59394e-06
3.27748e-06
2.95758e-06
2.64795e-06
2.35744e-06
2.09188e-06
1.85332e-06
1.64573e-06
1.46296e-06
1.30969e-06
1.1796e-06
1.0008e-06
9.44009e-07
3.29398e-06
3.18665e-06
3.07895e-06
2.9633e-06
2.84813e-06
2.73389e-06
2.62198e-06
2.5173e-06
2.41995e-06
2.3285e-06
2.24294e-06
2.16137e-06
2.08255e-06
2.00422e-06
1.92396e-06
1.84133e-06
1.75394e-06
1.66102e-06
1.56093e-06
1.45281e-06
1.33671e-06
1.21193e-06
1.08085e-06
9.46069e-07
8.12446e-07
6.84531e-07
5.65509e-07
4.57502e-07
3.61767e-07
2.78842e-07
2.09302e-07
1.52411e-07
1.07621e-07
7.35184e-08
4.92812e-08
3.46976e-08
2.93338e-08
3.561e-08
6.31421e-08
2.69247e-06
2.78405e-06
2.8863e-06
2.9943e-06
3.10659e-06
3.22438e-06
3.34379e-06
3.46164e-06
3.57783e-06
3.68919e-06
3.7933e-06
3.89001e-06
3.97703e-06
4.05165e-06
4.11329e-06
4.15869e-06
4.1855e-06
4.19195e-06
4.17549e-06
4.13462e-06
4.06925e-06
3.97584e-06
3.85188e-06
3.70337e-06
3.5288e-06
3.32597e-06
3.09664e-06
2.84911e-06
2.59459e-06
2.34226e-06
2.10119e-06
1.87659e-06
1.67104e-06
1.48831e-06
1.32523e-06
1.18336e-06
1.05895e-06
8.9835e-07
8.10143e-07
2.60295e-06
2.5177e-06
2.43224e-06
2.34088e-06
2.25043e-06
2.15977e-06
2.07263e-06
1.99076e-06
1.91539e-06
1.84478e-06
1.77889e-06
1.71643e-06
1.6566e-06
1.59652e-06
1.53634e-06
1.47394e-06
1.40807e-06
1.33796e-06
1.26206e-06
1.17988e-06
1.09021e-06
9.94135e-07
8.91652e-07
7.84965e-07
6.78108e-07
5.74845e-07
4.77709e-07
3.88441e-07
3.084e-07
2.38413e-07
1.78898e-07
1.2983e-07
9.07044e-08
6.08428e-08
3.92482e-08
2.62072e-08
2.13223e-08
2.64984e-08
4.78912e-08
2.13278e-06
2.20623e-06
2.28858e-06
2.37597e-06
2.46654e-06
2.56244e-06
2.65998e-06
2.75661e-06
2.85257e-06
2.9455e-06
3.03381e-06
3.1164e-06
3.19204e-06
3.25932e-06
3.31692e-06
3.36299e-06
3.39592e-06
3.41289e-06
3.41321e-06
3.39424e-06
3.35677e-06
3.29672e-06
3.21217e-06
3.10745e-06
2.98123e-06
2.83022e-06
2.65607e-06
2.46476e-06
2.26365e-06
2.06025e-06
1.8621e-06
1.67336e-06
1.49772e-06
1.33874e-06
1.19349e-06
1.06393e-06
9.45934e-07
8.00931e-07
6.99693e-07
2.06164e-06
1.9934e-06
1.92501e-06
1.85338e-06
1.78179e-06
1.71036e-06
1.64152e-06
1.57741e-06
1.51845e-06
1.46388e-06
1.41268e-06
1.36466e-06
1.31843e-06
1.27265e-06
1.22683e-06
1.17932e-06
1.12948e-06
1.07633e-06
1.0185e-06
9.55742e-07
8.87402e-07
8.13089e-07
7.32904e-07
6.48925e-07
5.63821e-07
4.80517e-07
4.01497e-07
3.28173e-07
2.61531e-07
2.02696e-07
1.52108e-07
1.09952e-07
7.59301e-08
4.9815e-08
3.08157e-08
1.92067e-08
1.48929e-08
1.93124e-08
3.61274e-08
1.69293e-06
1.75188e-06
1.81819e-06
1.88844e-06
1.962e-06
2.04004e-06
2.11902e-06
2.19865e-06
2.27743e-06
2.35467e-06
2.42876e-06
2.49841e-06
2.5637e-06
2.62325e-06
2.67559e-06
2.71919e-06
2.75378e-06
2.7769e-06
2.78681e-06
2.78254e-06
2.764e-06
2.72798e-06
2.67225e-06
2.59902e-06
2.50928e-06
2.39862e-06
2.26777e-06
2.12159e-06
1.96395e-06
1.80204e-06
1.64024e-06
1.48326e-06
1.33472e-06
1.19696e-06
1.06856e-06
9.51315e-07
8.41204e-07
7.09802e-07
6.05644e-07
1.63606e-06
1.58158e-06
1.5269e-06
1.47013e-06
1.41316e-06
1.35695e-06
1.30245e-06
1.25229e-06
1.20587e-06
1.16298e-06
1.12341e-06
1.0859e-06
1.04999e-06
1.01498e-06
9.79674e-07
9.43658e-07
9.05482e-07
8.64854e-07
8.21215e-07
7.73137e-07
7.20593e-07
6.62972e-07
6.00665e-07
5.34516e-07
4.66873e-07
4.00078e-07
3.36023e-07
2.75911e-07
2.20729e-07
1.71427e-07
1.28613e-07
9.25352e-08
6.32814e-08
4.0491e-08
2.38745e-08
1.36402e-08
9.87615e-09
1.3706e-08
2.71773e-08
1.34628e-06
1.39331e-06
1.44673e-06
1.50347e-06
1.56311e-06
1.62606e-06
1.69058e-06
1.75596e-06
1.82072e-06
1.88427e-06
1.94603e-06
2.00488e-06
2.06036e-06
2.11196e-06
2.15847e-06
2.19885e-06
2.23234e-06
2.25771e-06
2.27348e-06
2.27819e-06
2.27179e-06
2.25236e-06
2.21748e-06
2.16811e-06
2.10489e-06
2.02505e-06
1.92837e-06
1.81707e-06
1.69539e-06
1.5671e-06
1.43623e-06
1.30721e-06
1.1822e-06
1.06352e-06
9.51284e-07
8.45817e-07
7.44417e-07
6.25584e-07
5.24087e-07
1.30082e-06
1.25726e-06
1.21351e-06
1.16804e-06
1.12297e-06
1.07837e-06
1.0354e-06
9.95435e-07
9.58985e-07
9.25318e-07
8.94255e-07
8.64882e-07
8.36841e-07
8.09755e-07
7.82787e-07
7.54942e-07
7.25778e-07
6.94867e-07
6.61179e-07
6.24359e-07
5.83984e-07
5.39516e-07
4.90983e-07
4.39006e-07
3.8518e-07
3.31825e-07
2.80137e-07
2.30978e-07
1.85539e-07
1.44454e-07
1.08315e-07
7.75739e-08
5.24465e-08
3.27326e-08
1.82915e-08
9.35683e-09
6.11095e-09
9.45582e-09
2.04323e-08
1.07187e-06
1.10986e-06
1.15295e-06
1.1987e-06
1.24687e-06
1.29804e-06
1.35075e-06
1.40372e-06
1.45696e-06
1.50953e-06
1.56051e-06
1.60976e-06
1.65672e-06
1.70096e-06
1.74161e-06
1.77779e-06
1.80916e-06
1.83435e-06
1.85272e-06
1.86275e-06
1.86417e-06
1.85575e-06
1.83513e-06
1.80365e-06
1.76026e-06
1.70346e-06
1.63281e-06
1.54928e-06
1.45583e-06
1.3552e-06
1.25073e-06
1.14507e-06
1.04051e-06
9.39438e-07
8.41798e-07
7.47752e-07
6.55644e-07
5.49032e-07
4.53088e-07
1.03554e-06
1.00096e-06
9.65975e-07
9.29719e-07
8.93678e-07
8.58295e-07
8.24293e-07
7.92828e-07
7.63768e-07
7.3726e-07
7.12481e-07
6.89607e-07
6.67724e-07
6.46544e-07
6.25561e-07
6.03834e-07
5.8153e-07
5.57668e-07
5.31879e-07
5.0381e-07
4.72549e-07
4.38235e-07
4.00271e-07
3.59467e-07
3.16982e-07
2.74407e-07
2.32639e-07
1.9268e-07
1.55354e-07
1.2127e-07
9.0969e-08
6.48762e-08
4.33367e-08
2.63469e-08
1.38896e-08
6.15471e-09
3.4318e-09
6.3776e-09
1.53888e-08
8.5482e-07
8.85312e-07
9.19993e-07
9.56965e-07
9.95792e-07
1.03735e-06
1.08016e-06
1.12351e-06
1.16708e-06
1.21007e-06
1.25246e-06
1.29365e-06
1.33283e-06
1.37022e-06
1.40521e-06
1.43715e-06
1.46567e-06
1.48976e-06
1.50848e-06
1.52136e-06
1.5275e-06
1.52623e-06
1.51563e-06
1.49608e-06
1.46733e-06
1.42752e-06
1.37668e-06
1.31483e-06
1.24391e-06
1.1657e-06
1.08257e-06
9.96788e-07
9.1034e-07
8.24854e-07
7.40544e-07
6.57541e-07
5.74607e-07
4.79646e-07
3.91339e-07
8.25689e-07
7.97891e-07
7.6997e-07
7.41208e-07
7.12472e-07
6.84101e-07
6.57037e-07
6.32201e-07
6.09264e-07
5.87902e-07
5.68524e-07
5.50491e-07
5.33191e-07
5.16607e-07
5.00009e-07
4.83304e-07
4.65978e-07
4.47565e-07
4.27855e-07
4.05937e-07
3.81994e-07
3.55306e-07
3.25847e-07
2.9383e-07
2.60206e-07
2.26214e-07
1.92683e-07
1.6035e-07
1.2972e-07
1.01479e-07
7.62111e-08
5.42222e-08
3.58506e-08
2.13008e-08
1.05691e-08
3.91885e-09
1.64113e-09
4.23824e-09
1.16734e-08
6.82516e-07
7.0705e-07
7.3502e-07
7.64748e-07
7.96209e-07
8.29944e-07
8.64765e-07
9e-07
9.35574e-07
9.71023e-07
1.00568e-06
1.03967e-06
1.07271e-06
1.10438e-06
1.1341e-06
1.16168e-06
1.18679e-06
1.20898e-06
1.22728e-06
1.24101e-06
1.25007e-06
1.25317e-06
1.24908e-06
1.23791e-06
1.21929e-06
1.1924e-06
1.15603e-06
1.11069e-06
1.05736e-06
9.97221e-07
9.31666e-07
8.6286e-07
7.9167e-07
7.19842e-07
6.47562e-07
5.74862e-07
5.01159e-07
4.1742e-07
3.37485e-07
6.59197e-07
6.36981e-07
6.1472e-07
5.91597e-07
5.68763e-07
5.46149e-07
5.24688e-07
5.04577e-07
4.86376e-07
4.69577e-07
4.54091e-07
4.39651e-07
4.26075e-07
4.13042e-07
3.99971e-07
3.87032e-07
3.73548e-07
3.5928e-07
3.43827e-07
3.27058e-07
3.08555e-07
2.87825e-07
2.64955e-07
2.39722e-07
2.13173e-07
1.86142e-07
1.59253e-07
1.33086e-07
1.08068e-07
8.48412e-08
6.37897e-08
4.53209e-08
2.97811e-08
1.73597e-08
8.18349e-09
2.48786e-09
5.81741e-10
2.84316e-09
9.00208e-09
5.45569e-07
5.65379e-07
5.8783e-07
6.11803e-07
6.37297e-07
6.64598e-07
6.92861e-07
7.21424e-07
7.50479e-07
7.79563e-07
8.08085e-07
8.36134e-07
8.63523e-07
8.89952e-07
9.1532e-07
9.38988e-07
9.60843e-07
9.80448e-07
9.97609e-07
1.01121e-06
1.0212e-06
1.02708e-06
1.0272e-06