/*--------------------------------*- C++ -*----------------------------------*\
| =========                 |                                                 |
| \\      /  F ield         | OpenFOAM: The Open Source CFD Toolbox           |
|  \\    /   O peration     | Version:  2506                                  |
|   \\  /    A nd           | Website:  www.openfoam.com                      |
|    \\/     M anipulation  |                                                 |
\*---------------------------------------------------------------------------*/
FoamFile
{
    version     2.0;
    format      ascii;
    arch        "LSB;label=32;scalar=64";
    class       volScalarField;
    location    "300";
    object      p;
}
// * * * * * * * * * * * * * * * * * * * * * * * * * * * * * * * * * * * * * //

dimensions      [0 2 -2 0 0 0 0];

internalField   nonuniform List<scalar> 
1340
(
59.0567
33.2554
4.75323
56.7733
32.8738
6.50752
-20.8571
-50.3811
54.1045
31.8763
7.38864
-17.9389
-45.2609
-73.7948
-102.873
51.2132
30.466
7.64242
-15.8833
-41.2499
-67.7138
-94.6507
-122.132
48.2165
28.7934
7.45657
-14.4622
-38.0812
-62.6912
-87.7004
-113.214
-138.853
45.1953
26.9634
6.96466
-13.513
-35.5624
-58.5012
-81.7732
-105.5
-129.336
42.2053
25.0523
6.26557
-12.9123
-33.5415
-54.9681
-76.6664
-98.7687
-120.955
-143.062
39.2835
23.1134
5.43172
-12.5671
-31.9051
-51.9593
-72.2257
-92.8464
-113.527
-134.123
-154.623
36.4558
21.1887
4.51604
-12.4044
-30.5665
-49.3666
-68.3278
-87.594
-106.893
-126.098
-145.217
33.74
19.3034
3.56096
-12.3732
-29.4553
-47.1075
-64.8719
-82.8985
-100.928
-118.852
-136.692
-154.314
31.1471
17.4782
2.59446
-12.4304
-28.5199
-45.1151
-61.7818
-78.6685
-95.5312
-112.272
-128.926
-145.376
28.6828
15.7273
1.63986
-12.5452
-27.7172
-43.3383
-58.9929
-74.8291
-90.6154
-106.266
-121.82
-137.181
-152.298
26.3503
14.059
0.712943
-12.6929
-27.0149
-41.7338
-56.4536
-71.3177
-86.1101
-100.751
-115.289
-129.635
-143.754
24.1497
12.4796
-0.174137
-12.8565
-26.3869
-40.269
-54.1219
-68.0871
-81.958
-95.6651
-109.258
-122.661
-135.847
-148.774
22.0799
10.992
-1.01345
-13.0204
-25.8135
-38.9163
-51.9641
-65.0941
-78.1119
-90.9523
-103.669
-116.192
-128.507
-140.582
20.1387
9.59789
-1.7996
-13.174
-25.2784
-37.6537
-49.9513
-62.3052
-74.5297
-86.565
-98.4661
-110.172
-121.675
-132.949
18.3226
8.29673
-2.52914
-13.3104
-24.7697
-36.4647
-48.0621
-59.6923
-71.1779
-82.4647
-93.607
-104.551
-115.295
-125.82
-136.066
16.627
7.08765
-3.19988
-13.4236
-24.2771
-35.3348
-46.2774
-57.2318
-68.028
-78.6175
-89.0533
-99.2882
-109.324
-119.148
-128.709
15.0481
5.9679
-3.81067
-13.51
-23.7936
-34.2528
-44.5828
-54.9044
-65.0571
-74.9958
-84.7736
-94.3462
-103.721
-112.889
-121.807
13.5805
4.93526
-4.36208
-13.5669
-23.3141
-33.2101
-42.9648
-52.694
-62.245
-71.5752
-80.7386
-89.6942
-98.4509
-107.006
-115.321
-123.346
12.2194
3.98667
-4.85521
-13.5929
-22.8336
-32.1995
-41.4132
-50.5864
-59.5735
-68.3353
-76.9242
-85.3035
-93.4837
-101.465
-109.215
-116.691
10.9598
3.11851
-5.29137
-13.5873
-22.3496
-31.2156
-39.9203
-48.5713
-57.0299
-65.2591
-73.3109
-81.1516
-88.7927
-96.2375
-103.459
-110.42
16.2892
9.7965
2.3273
-5.67262
-13.5504
-21.8602
-30.2542
-38.4797
-46.6396
-54.6017
-62.3321
-69.8809
-77.2178
-84.355
-91.2984
-98.0244
-104.501
-110.678
14.914
8.72448
1.60931
-6.00118
-13.4825
-21.3639
-29.3117
-37.0849
-44.7824
-52.2779
-59.5408
-66.6187
-73.4843
-80.1508
-86.625
-92.8876
-98.911
-104.651
13.6395
7.73881
0.960678
-6.27949
-13.3846
-20.8603
-28.3857
-35.7322
-42.9936
-50.0505
-56.8741
-63.5106
-69.9348
-76.1611
-82.1972
-88.0263
-93.6251
-98.9543
12.4602
6.83454
0.377606
-6.51023
-13.2582
-20.3489
-27.4749
-34.4179
-41.2684
-47.9122
-54.3231
-60.5458
-66.557
-72.3711
-77.9971
-83.4211
-88.6224
-93.5667
-98.2012
11.3702
6.00702
-0.143777
-6.6961
-13.1047
-19.8301
-26.5772
-33.139
-39.6018
-45.8565
-51.8796
-57.7138
-63.3378
-68.7665
-74.0095
-79.0545
-83.8841
-88.468
-92.7589
10.3642
5.25163
-0.60722
-6.83998
-12.9259
-19.3044
-25.6927
-31.8937
-37.9901
-43.8783
-49.5364
-55.006
-60.2671
-65.335
-70.2196
-74.9108
-79.3931
-83.6399
-87.609
9.4373
4.56395
-1.01638
-6.94444
-12.7235
-18.7725
-24.8204
-30.68
-36.4301
-41.9728
-47.2877
-52.4149
-57.3358
-62.0659
-66.6156
-70.9758
-75.1339
-79.0659
-82.7341
8.58447
3.93948
-1.37478
-7.01235
-12.4995
-18.235
-23.9602
-29.4964
-34.9195
-40.1363
-45.1282
-49.9335
-54.5355
-58.9497
-63.186
-67.2373
-71.0926
-74.7308
-78.118
7.80101
3.37429
-1.68602
-7.04648
-12.2557
-17.6934
-23.112
-28.342
-33.4558
-38.3652
-43.0528
-47.5559
-51.8589
-55.9771
-59.9208
-63.6837
-67.2567
-70.6208
-73.7459
-76.5946
7.08245
2.86432
-1.95336
-7.04952
-11.9942
-17.1486
-22.276
-27.2162
-32.0374
-36.6566
-41.058
-45.2771
-49.2996
-53.1407
-56.8107
-60.3044
-63.6142
-66.7232
-69.6043
-72.2239
6.42448
2.40583
-2.18008
-7.02403
-11.7167
-16.6018
-21.4527
-26.118
-30.6628
-35.0082
-39.1399
-43.0919
-46.8515
-50.4331
-53.8476
-57.0903
-60.1547
-63.0261
-65.6804
-68.0871
5.82312
1.9951
-2.36919
-6.9726
-11.425
-16.0539
-20.6426
-25.0474
-29.3305
-33.4174
-37.295
-40.9963
-44.5091
-47.8482
-51.0237
-54.0323
-56.8685
-59.5192
-61.9626
-64.1717
5.27444
1.62878
-2.52378
-6.89753
-11.1213
-15.5064
-19.8458
-24.0037
-28.0394
-31.8824
-35.5208
-38.9862
-42.2679
-45.3798
-48.3324
-51.1227
-53.7465
-56.1921
-58.4401
-60.4659
4.77478
1.30357
-2.64666
-6.80118
-10.8071
-14.9601
-19.063
-22.9869
-26.7885
-30.4012
-33.8144
-37.0582
-40.1231
-43.0226
-45.7671
-48.3541
-50.7804
-53.0356
-55.1024
-56.9589
-58.5776
4.32068
1.01634
-2.74047
-6.68575
-10.4841
-14.4164
-18.2944
-21.9966
-25.5769
-28.9721
-32.1732
-35.2089
-38.0705
-40.7714
-43.3216
-45.7195
-47.9624
-50.041
-51.9401
-53.6402
-55.1166
3.90883
0.764132
-2.80782
-6.55337
-10.154
-13.8762
-17.5408
-21.0328
-24.4036
-27.5938
-30.5951
-33.4352
-36.1064
-38.6216
-40.9906
-43.2123
-45.2848
-47.2
-48.9442
-50.5002
-51.8457
3.53614
0.544158
-2.85106
-6.406
-9.81815
-13.3406
-16.8025
-20.0954
-23.268
-26.2646
-29.0779
-31.7344
-34.2271
-36.5688
-38.7688
-40.8268
-42.7412
-44.5051
-46.1062
-47.5293
-48.7546
3.19968
0.353772
-2.87251
-6.24548
-9.47809
-12.8105
-16.0799
-19.184
-22.1693
-24.9832
-27.6196
-30.1036
-32.4291
-34.6086
-36.6512
-38.5569
-40.3247
-41.9486
-43.4178
-44.7188
-45.8341
2.89662
0.190508
-2.87428
-6.07363
-9.13519
-12.2867
-15.3734
-18.2986
-21.1067
-23.7484
-26.2182
-28.5402
-30.7092
-32.7371
-34.6331
-36.3972
-38.0292
-39.5238
-40.8714
-42.0602
-43.0748
-43.8992
2.6244
0.0519958
-2.8584
-5.89205
-8.79065
-11.7701
-14.6832
-17.439
-20.0796
-22.5588
-24.8718
-27.0418
-29.0642
-30.9506
-32.7099
-34.3426
-35.8488
-37.2239
-38.4597
-39.5456
-40.468
-41.2132
2.38053
-0.0639152
-2.82682
-5.7023
-8.44563
-11.2615
-14.0097
-16.605
-19.0872
-21.413
-23.5785
-25.6058
-27.491
-29.2453
-30.8773
-32.388
-33.7778
-35.0427
-36.1756
-37.1671
-38.0055
-38.6789
2.1627
-0.159329
-2.78122
-5.50579
-8.10125
-10.7614
-13.3532
-15.7964
-18.1289
-20.31
-22.3367
-24.23
-25.9868
-27.6177
-29.1313
-30.5287
-31.8107
-32.974
-34.0124
-34.9175
-35.6793
-36.2875
1.96876
-0.236169
-2.7233
-5.30387
-7.75844
-10.2705
-12.7139
-15.0128
-17.2038
-19.2484
-21.1445
-22.9121
-24.5486
-26.0644
-27.4678
-28.7601
-29.9423
-31.0119
-31.9634
-32.7896
-33.4817
-34.0309
1.79665
-0.296234
-2.65458
-5.09778
-7.41813
-9.78938
-12.0917
-14.2541
-16.3111
-18.2271
-20.0002
-21.6499
-23.1737
-24.5821
-25.8828
-27.0777
-28.1677
-29.151
-30.0227
-30.7767
-31.4054
-31.9012
1.64448
-0.34122
-2.57652
-4.8886
-7.08109
-9.31841
-11.4868
-13.5198
-15.4502
-17.2447
-18.9022
-20.441
-21.8595
-23.1675
-24.3728
-25.4772
-26.482
-27.3857
-28.1841
-28.8722
-29.4432
-29.891
1.51048
-0.372719
-2.49045
-4.67743
-6.74815
-8.85802
-10.8992
-12.8096
-14.6202
-16.3002
-17.8487
-19.2835
-20.6033
-21.8176
-22.934
-23.9544
-24.8804
-25.7107
-26.4421
-27.0699
-27.5886
-27.9929
-28.2819
1.39298
-0.392189
-2.3976
-4.46526
-6.41996
-8.4086
-10.329
-12.1231
-13.8204
-15.3921
-16.8381
-18.1751
-19.4025
-20.5293
-21.5629
-22.5054
-23.3584
-24.1212
-24.791
-25.3638
-25.835
-26.2002
-26.459
1.29042
-0.401025
-2.29912
-4.25298
-6.09716
-7.97043
-9.77611
-11.4599
-13.0499
-14.5194
-15.8687
-17.1139
-18.2545
-19.2996
-20.2561
-21.1262
-21.9117
-22.6123
-23.2255
-23.7482
-24.1762
-24.5061
-24.7381
1.20134
-0.400531
-2.19615
-4.04146
-5.78033
-7.54383
-9.24044
-10.8196
-12.308
-13.6808
-14.9389
-16.0976
-17.157
-18.1256
-19.0102
-19.813
-20.536
-21.1792
-21.7405
-22.2173
-22.6062
-22.9043
-23.1124
1.12443
-0.391859
-2.08962
-3.83142
-5.46999
-7.12905
-8.72196
-10.2018
-11.5937
-12.8752
-14.0471
-15.1243
-16.1073
-17.0045
-17.8219
-18.5621
-19.2272
-19.8174
-20.331
-20.766
-21.1193
-21.3888
-21.5757
1.05847
-0.37603
-1.98044
-3.62346
-5.16646
-6.72608
-8.22036
-9.60601
-10.9064
-12.1013
-13.1917
-14.192
-15.1033
-15.9335
-16.6882
-17.3699
-17.9812
-18.5224
-18.9922
-19.3889
-19.7099
-19.9538
-20.1217
1.00218
-0.354176
-1.86955
-3.41837
-4.87033
-6.33513
-7.73549
-9.03157
-10.2448
-11.3578
-12.371
-13.2986
-14.1429
-14.9104
-15.6061
-16.2331
-16.7944
-17.2902
-17.7196
-18.0811
-18.3728
-18.5935
-18.7446
0.954314
-0.327764
-1.75838
-3.21756
-4.58266
-5.95729
-7.268
-8.47861
-9.60844
-10.644
-11.5828
-12.4414
-13.2232
-13.9321
-14.5723
-15.1481
-15.6627
-16.1165
-16.5086
-16.8379
-17.1029
-17.3028
-17.439
0.913953
-0.297502
-1.64757
-3.02158
-4.30415
-5.59314
-6.81838
-7.94765
-8.99774
-9.96045
-10.826
-11.6177
-12.3412
-12.9954
-13.5831
-14.1106
-14.5819
-14.9968
-15.3545
-15.6544
-15.8952
-16.0763
-16.1995
-16.27
0.881212
-0.262564
-1.53547
-2.82821
-4.03223
-5.23972
-6.38412
-7.43654
-8.41131
-9.30443
-10.0998
-10.8299
-11.4995
-12.1007
-12.6375
-13.119
-13.5494
-13.9278
-14.2532
-14.5257
-14.7444
-14.9087
-15.0204
-15.0842
0.855671
-0.223147
-1.42147
-2.63625
-3.76465
-4.89369
-5.96041
-6.94013
-7.84351
-8.66995
-9.3976
-10.0785
-10.7022
-11.25
-11.7351
-12.1726
-12.5645
-12.908
-13.2028
-13.4494
-13.6475
-13.7965
-13.8978
-13.956
0.836755
-0.191228
-1.3317
-2.48061
-3.54157
-4.59508
-5.57683
-6.46876
-7.27261
-8.00921
-8.61152
-9.27898
-9.90998
-10.4365
-10.8977
-11.3206
-11.7016
-12.0344
-12.3192
-12.5579
-12.75
-12.8948
-12.9937
-13.0509
0.822394
-0.163741
-1.25492
-2.34618
-3.34434
-4.3226
-5.216
-6.00968
-6.69629
-7.32373
-7.76109
-8.44931
-9.12353
-9.65095
-10.1073
-10.5347
-10.923
-11.2611
-11.5502
-11.7928
-11.9888
-12.1372
-12.2395
-12.3
0.809746
-0.134129
-1.17555
-2.20877
-3.14427
-4.04757
-4.85478
-5.55266
-6.12886
-6.65022
-6.9342
-7.62994
-8.33818
-8.86419
-9.31179
-9.73921
-10.1318
-10.4734
-10.7652
-11.0107
-11.2101
-11.3617
-11.4676
-11.5312
0.798582
-0.103025
-1.09456
-2.07007
-2.94347
-3.77272
-4.49645
-5.1009
-5.5742
-5.9884
-6.13649
-6.82453
-7.55325
-8.07631
-8.51327
-8.93631
-9.32971
-9.67286
-9.96587
-10.2132
-10.4151
-10.5698
-10.6789
-10.7459
0.788993
-0.0707464
-1.01276
-1.93138
-2.74387
-3.50059
-4.14395
-4.65748
-5.03539
-5.33999
-5.37129
-6.03676
-6.7701
-7.28688
-7.71174
-8.12666
-8.5172
-8.85969
-9.15258
-9.40063
-9.60427
-9.76192
-9.87439
-9.94557
0.7809
-0.0378957
-0.931505
-1.79457
-2.54797
-3.23431
-3.80097
-4.22664
-4.51629
-4.70797
-4.64051
-5.26891
-5.98991
-6.4956
-6.90699
-7.31052
-7.69448
-8.03391
-8.32541
-8.57344
-8.77846
-8.93851
-9.05359
-9.12722
0.774175
-0.00579296
-0.853218
-1.66308
-2.35945
-2.97796
-3.47122
-3.81192
-4.01915
-4.09435
-3.94507
-4.52236
-5.21412
-5.70262
-6.09833
-6.48727
-6.86109
-7.19467
-7.48302
-7.73017
-7.93698
-8.10157
-8.22425
-8.30859
0.768441
0.0238977
-0.781066
-1.54127
-2.18332
-2.73663
-3.15824
-3.41488
-3.54355
-3.50011
-3.28428
-3.79747
-4.44397
-4.90783
-5.28432
-5.6553
-6.01566
-6.34106
-6.62444
-6.86817
-7.07207
-7.23307
-7.34979
-7.42419
-7.46588
0.763377
0.051195
-0.715159
-1.43042
-2.02254
-2.51553
-2.86804
-3.04282
-3.09721
-2.93295
-2.65769
-3.09357
-3.6807
-4.11141
-4.46356
-4.8115
-5.15336
-5.46829
-5.74993
-5.99994
-6.2181
-6.40257
-6.55363
-6.6736
-6.76387
0.759382
0.0773144
-0.6536
-1.32866
-1.87725
-2.3191
-2.61115
-2.71674
-2.70574
-2.40976
-2.06597
-2.41294
-2.92614
-3.3127
-3.63641
-3.95799
-4.27182
-4.55824
-4.8112
-5.03117
-5.21559
-5.35752
-5.45055
-5.49482
-5.51027
0.757025
0.0951373
-0.609793
-1.25199
-1.76296
-2.15876
-2.39356
-2.43982
-2.35902
-1.91037
-1.49926
-1.76396
-2.18703
-2.50771
-2.79242
-3.09535
-3.40999
-3.718
-4.0124
-4.29318
-4.56125
-4.81871
-5.06634
-5.29714
-5.48374
0.753919
0.0836919
-0.622189
-1.2493
-1.72724
-2.06496
-2.21349
-2.16073
-1.94237
-1.32382
-0.914748
-1.14008
-1.4854
-1.72157
-1.90637
-2.08628
-2.26384
-2.43106
-2.58284
-2.714
-2.81245
-2.85892
-2.83941
-2.7625
-2.69129
0.745298
0.0436338
-0.687428
-1.32007
-1.77497
-2.05002
-2.09196
-1.89675
-1.46901
-0.685723
-0.291368
-0.471233
-0.787667
-1.08546
-1.38626
-1.70079
-2.03179
-2.38088
-2.7529
-3.1567
-3.60448
-4.1025
-4.6276
-5.1204
-5.47522
)
;

boundaryField
{
    inlet
    {
        type            freestreamPressure;
        freestreamValue uniform 0;
        value           nonuniform List<scalar> 
25
(
0.741669
0.0434214
-0.684081
-1.31364
-1.76633
-2.04004
-2.08177
-1.88751
-1.46186
-0.682384
-0.125483
-0.203055
-0.339677
-0.468535
-0.598991
-0.735708
-0.879921
-1.03237
-1.19521
-1.37231
-1.56902
-1.78808
-2.01935
-2.23675
-2.39391
)
;
    }
    outlet
    {
        type            freestreamPressure;
        freestreamValue nonuniform List<scalar> 0();
        value           nonuniform List<scalar> 0();
    }
    walls
    {
        type            zeroGradient;
    }
    frontAndBack
    {
        type            empty;
    }
    procBoundary4to0
    {
        type            processor;
        value           nonuniform List<scalar> 
72
(
81.2722
77.3427
73.2308
69.0663
64.9353
60.8938
56.9787
53.2151
49.6169
46.1913
42.9418
39.8677
36.967
34.2358
31.6689
29.26
27.0031
24.8921
22.9199
21.08
19.3659
17.771
17.771
22.3359
20.6845
19.1467
17.716
16.3861
15.1511
14.0051
12.9428
11.959
11.0488
10.2074
9.43048
8.71374
8.05319
7.44498
6.88558
6.37156
5.89969
5.46695
5.07053
4.70768
4.37591
4.07284
3.79622
3.54398
3.31414
3.1049
2.91451
2.74138
2.58405
2.44117
2.31137
2.19337
2.08613
1.98916
1.90195
1.83531
1.78136
1.72851
1.6769
1.62705
1.57957
1.53559
1.49588
1.45946
1.42622
1.40495
1.41066
1.43141
)
;
    }
    procBoundary4to5
    {
        type            processor;
        value           nonuniform List<scalar> 
95
(
60.6933
32.697
1.73196
-24.932
-24.932
-56.9481
-81.2377
-81.2377
-112.704
-132.528
-132.528
-149.741
-149.741
-164.38
-153.082
-153.082
-165.053
-165.053
-174.847
-164.095
-164.095
-171.636
-161.56
-161.56
-167.096
-157.589
-157.589
-161.34
-152.329
-143.923
-143.923
-145.952
-137.938
-130.416
-130.416
-131.007
-123.828
-117.062
-117.062
-116.482
-110.041
-103.955
-103.955
-102.462
-96.6996
-91.2492
-86.0922
-81.2126
-81.2126
-79.1188
-74.539
-70.2076
-66.1117
-62.2388
-62.2388
-59.9278
-56.3424
-52.9573
-49.7616
-46.7455
-46.7455
-44.5235
-41.7732
-39.1807
-36.7371
-34.4335
-32.2617
-30.2137
-30.2137
-28.4617
-26.6179
-24.8786
-23.2369
-21.6861
-20.2199
-18.8323
-17.5174
-17.5174
-16.2965
-15.1083
-13.9784
-13.0742
-12.3266
-11.5614
-10.7796
-9.98433
-9.16791
-8.36219
-8.36219
-7.48653
-6.82846
-5.51764
-5.61738
-2.65914
-5.69177
)
;
    }
}


// ************************************************************************* //
