/*--------------------------------*- C++ -*----------------------------------*\
| =========                 |                                                 |
| \\      /  F ield         | OpenFOAM: The Open Source CFD Toolbox           |
|  \\    /   O peration     | Version:  2506                                  |
|   \\  /    A nd           | Website:  www.openfoam.com                      |
|    \\/     M anipulation  |                                                 |
\*---------------------------------------------------------------------------*/
FoamFile
{
    version     2.0;
    format      ascii;
    arch        "LSB;label=32;scalar=64";
    class       volVectorField;
    location    "300";
    object      U;
}
// * * * * * * * * * * * * * * * * * * * * * * * * * * * * * * * * * * * * * //

dimensions      [0 1 -1 0 0 0 0];

internalField   nonuniform List<vector> 
1340
(
(18.5698 14.7758 -5.34346e-19)
(19.3781 15.4707 1.83853e-17)
(20.285 16.1334 -1.8527e-17)
(19.233 14.0613 1.40713e-17)
(19.9864 14.6986 -3.88895e-18)
(20.8288 15.3066 1.82602e-17)
(21.7232 15.8387 -9.98809e-17)
(22.7083 16.311 1.15007e-17)
(19.824 13.4126 1.20174e-17)
(20.5295 13.9987 -1.90656e-17)
(21.3161 14.5574 -1.7771e-17)
(22.1469 15.0457 1.25367e-17)
(23.0604 15.4804 3.2402e-17)
(24.0301 15.8406 -1.42192e-16)
(25.0367 16.1102 -5.85736e-17)
(20.3531 12.8201 -1.82912e-17)
(21.0162 13.3601 -5.35174e-17)
(21.7533 13.8745 9.34724e-18)
(22.5283 14.3232 -3.25353e-18)
(23.3788 14.7231 -9.55513e-17)
(24.2794 15.0553 1.93602e-16)
(25.2118 15.3053 -3.21077e-16)
(26.1799 15.4703 1.02785e-15)
(20.8287 12.2758 2.68682e-17)
(21.4539 12.7743 1.42033e-17)
(22.1471 13.2484 1.96642e-17)
(22.8726 13.6609 3.29304e-17)
(23.6673 14.0288 -5.56379e-17)
(24.5068 14.3346 9.19849e-17)
(25.3734 14.5653 4.30927e-16)
(26.2718 14.7192 -5.74179e-16)
(27.1896 14.7897 -2.69564e-16)
(21.2579 11.7736 3.84611e-18)
(21.8489 12.2343 -5.84825e-19)
(22.5025 12.6717 -1.38251e-17)
(23.1838 13.0513 1.44797e-18)
(23.9286 13.3897 8.66353e-17)
(24.7133 13.6706 -1.90732e-16)
(25.5212 13.8827 -3.65227e-17)
(26.3574 14.0248 -1.53848e-16)
(27.21 14.0915 -1.78512e-16)
(21.6465 11.3081 -5.45866e-17)
(22.2064 11.7345 5.04903e-17)
(22.824 12.1385 -1.29505e-18)
(23.4654 12.488 4.54544e-18)
(24.1652 12.7989 1.61301e-16)
(24.9007 13.0566 -9.26156e-17)
(25.6559 13.2509 -4.56682e-16)
(26.4359 13.381 7.12284e-16)
(27.23 13.4425 4.93768e-16)
(28.0332 13.4314 -3.85753e-16)
(21.9993 10.8754 2.41655e-17)
(22.5306 11.2704 3.24005e-18)
(23.1154 11.6437 6.87849e-18)
(23.7204 11.9655 3.33924e-17)
(24.3795 12.2511 -1.67078e-16)
(25.0705 12.4872 4.56293e-16)
(25.7779 12.6644 3.03335e-16)
(26.5073 12.7827 -4.3622e-16)
(27.2483 12.8382 -3.16838e-16)
(27.9968 12.8278 2.62631e-16)
(28.753 12.7483 9.46086e-17)
(22.3203 10.4718 -2.15211e-17)
(22.8252 10.838 -8.35506e-18)
(23.3798 11.1831 -1.89502e-18)
(23.9517 11.4794 -1.01509e-17)
(24.5735 11.7417 -4.68576e-17)
(25.2239 11.9575 -6.65661e-16)
(25.888 12.1187 -1.93177e-16)
(26.5712 12.2254 -1.64309e-16)
(27.264 12.2746 1.61175e-16)
(27.9626 12.2634 1.61068e-16)
(28.6679 12.1895 2.02793e-16)
(22.6131 10.0944 2.39223e-17)
(23.0935 10.434 4.57558e-17)
(23.6201 10.7532 3.95847e-18)
(24.1615 11.026 2.24468e-17)
(24.7491 11.2666 1.29498e-16)
(25.3623 11.4637 1.56365e-16)
(25.9868 11.6097 1.99266e-16)
(26.628 11.7053 1.81957e-16)
(27.2767 11.7478 -3.05852e-16)
(27.9296 11.7352 -1.97011e-17)
(28.5882 11.6652 -1.04081e-16)
(29.248 11.5351 2.06669e-16)
(22.8805 9.74069 -5.21071e-18)
(23.3381 10.0558 -3.66136e-17)
(23.8388 10.351 5.62648e-18)
(24.3519 10.6021 1.73862e-17)
(24.908 10.8227 -5.29733e-17)
(25.487 11.0022 5.75273e-17)
(26.0751 11.134 -3.54887e-16)
(26.6776 11.219 3.11749e-16)
(27.286 11.2549 6.45301e-17)
(27.8971 11.2401 1.49246e-16)
(28.5127 11.1729 -1.46899e-16)
(29.1289 11.0508 3.20685e-16)
(23.1251 9.40847 -4.01567e-17)
(23.5614 9.70088 1.76293e-17)
(24.0378 9.97385 -1.42992e-17)
(24.5248 10.205 -4.33639e-18)
(25.0516 10.407 7.37215e-17)
(25.5989 10.5702 9.59685e-17)
(26.1535 10.6887 -1.39371e-16)
(26.7205 10.7636 -1.2932e-16)
(27.2917 10.7929 2.11493e-16)
(27.8644 10.7756 -7.557e-16)
(28.4404 10.7102 1.09663e-15)
(29.0164 10.5946 -1.20776e-15)
(29.5911 10.426 1.08467e-15)
(23.3492 9.09587 9.82761e-20)
(23.7654 9.36725 -1.41877e-17)
(24.2192 9.61969 9.38921e-18)
(24.6817 9.83229 -8.93796e-18)
(25.1812 10.0171 -1.42754e-17)
(25.6992 10.1651 -1.35572e-16)
(26.2227 10.2712 -2.85211e-16)
(26.7569 10.3365 -1.74136e-16)
(27.2939 10.3595 2.16497e-16)
(27.8311 10.3394 5.33729e-17)
(28.3706 10.2751 -1.11792e-16)
(28.9094 10.165 4.20965e-16)
(29.4466 10.0062 -1.1733e-15)
(23.5548 8.8013 4.97407e-18)
(23.952 9.05314 -4.36221e-17)
(24.3844 9.28654 -9.36493e-19)
(24.824 9.48195 2.53252e-17)
(25.2981 9.65071 6.46322e-17)
(25.7888 9.78468 -1.36688e-16)
(26.2834 9.87918 3.12578e-16)
(26.7872 9.93543 1.30834e-16)
(27.2924 9.95239 -6.48379e-16)
(27.7969 9.92947 3.15529e-16)
(28.3026 9.86579 -1.04936e-15)
(28.8069 9.75999 6.25364e-16)
(29.3094 9.60977 5.36415e-17)
(29.8089 9.41232 -1.8155e-16)
(23.7434 8.5233 2.52735e-17)
(24.1228 8.757 -1.58816e-17)
(24.535 8.97272 2.84085e-18)
(24.9532 9.15217 4.74715e-17)
(25.4034 9.3061 1.31693e-16)
(25.8685 9.42698 -1.17957e-16)
(26.3363 9.5107 3.37813e-16)
(26.8117 9.55849 1.85025e-16)
(27.2875 9.56967 6.60931e-16)
(27.7616 9.54387 2.09203e-16)
(28.236 9.48043 1.18762e-15)
(28.7084 9.3783 -4.1205e-16)
(29.1785 9.23545 1.93343e-15)
(29.6455 9.04934 -4.0295e-16)
(23.9167 8.26064 -1.81711e-17)
(24.2791 8.47746 1.73859e-17)
(24.6723 8.67669 -1.01214e-17)
(25.0702 8.84137 9.03997e-17)
(25.4981 8.98153 -1.75577e-16)
(25.9392 9.09026 3.52593e-16)
(26.3819 9.16392 -3.81586e-16)
(26.8309 9.20385 7.76543e-17)
(27.2793 9.20957 -5.18529e-16)
(27.7251 9.18097 4.1218e-16)
(28.1704 9.11753 3.99654e-16)
(28.6131 9.01848 -7.37418e-16)
(29.0531 8.88203 -1.62999e-15)
(29.49 8.70593 -1.26823e-15)
(24.076 8.01221 1.97171e-17)
(24.4223 8.21332 -3.65912e-18)
(24.7974 8.39721 -1.00583e-17)
(25.1762 8.54816 -3.24337e-17)
(25.583 8.67552 9.7071e-17)
(26.0015 8.77295 1.69042e-16)
(26.4207 8.83731 1.82919e-16)
(26.845 8.8699 6.23851e-17)
(27.2679 8.87051 -2.41526e-17)
(27.6874 8.83918 -8.90428e-18)
(28.1056 8.77559 -8.1749e-16)
(28.5207 8.67919 -1.6899e-16)
(28.9327 8.54839 4.11225e-16)
(29.3413 8.38123 3.16855e-16)
(29.7445 8.17546 1.83242e-15)
(24.2225 7.77701 2.3019e-17)
(24.5533 7.96348 2.22516e-17)
(24.9114 8.13308 1.61038e-17)
(25.2722 8.27128 -9.4448e-17)
(25.659 8.38677 -1.91826e-17)
(26.0563 8.47373 -3.06692e-16)
(26.4534 8.52947 -3.08485e-16)
(26.8546 8.55523 -3.09973e-16)
(27.2535 8.55108 -5.52934e-16)
(27.6484 8.51719 1.96913e-16)
(28.0414 8.45336 3.68824e-16)
(28.4308 8.35923 5.66159e-16)
(28.8166 8.23347 -6.70878e-16)
(29.1989 8.07428 -2.8733e-16)
(29.5759 7.87967 -7.75546e-16)
(24.3572 7.55416 -4.66048e-17)
(24.6734 7.72695 -7.35086e-18)
(25.0151 7.88326 -3.22887e-17)
(25.3588 8.0096 -3.17096e-18)
(25.7268 8.11406 6.89675e-17)
(26.1041 8.19135 3.93982e-17)
(26.4803 8.23909 4.29528e-16)
(26.8598 8.25854 -1.44312e-16)
(27.2363 8.24997 6.35458e-16)
(27.6083 8.21369 -1.65412e-16)
(27.9777 8.14958 3.16823e-16)
(28.343 8.0575 8.62804e-18)
(28.7045 7.93625 9.52364e-16)
(29.0622 7.78427 6.01684e-16)
(29.4146 7.59979 -6.30563e-16)
(24.4811 7.34287 1.21072e-17)
(24.7834 7.50288 -8.7074e-18)
(25.1096 7.64681 3.58117e-17)
(25.437 7.76215 2.19934e-17)
(25.7871 7.85636 -1.41742e-16)
(26.1454 7.92469 1.90023e-16)
(26.5021 7.96504 9.99498e-18)
(26.861 7.97868 -5.47735e-16)
(27.2165 7.96603 -5.36445e-16)
(27.567 7.92755 6.39833e-16)
(27.9144 7.86319 -3.3295e-16)
(28.2573 7.77294 -2.54708e-16)
(28.596 7.65581 6.68296e-16)
(28.9307 7.51038 -8.264e-16)
(29.2601 7.33509 7.98423e-16)
(29.5827 7.12818 -7.94472e-16)
(24.5951 7.14239 4.26835e-18)
(24.884 7.29049 2.02901e-18)
(25.1954 7.42288 1.56019e-17)
(25.5074 7.52798 -1.14917e-17)
(25.8405 7.61272 9.85793e-17)
(26.1809 7.67273 -2.93653e-16)
(26.519 7.70627 -2.69019e-16)
(26.8587 7.71458 9.73087e-16)
(27.1944 7.69821 -1.15121e-16)
(27.5246 7.6577 -7.19831e-17)
(27.8514 7.59314 -7.05739e-16)
(28.1733 7.50458 -4.51399e-16)
(28.4907 7.39121 -1.12485e-15)
(28.8039 7.25179 3.13728e-16)
(29.1118 7.08494 5.0095e-16)
(29.4131 6.88905 -1.09486e-15)
(24.7 6.95209 1.20153e-17)
(24.9762 7.08906 1.78329e-17)
(25.2734 7.21069 4.58565e-18)
(25.5706 7.30628 -8.0283e-17)
(25.8876 7.38222 -3.78613e-17)
(26.2109 7.43456 1.40139e-16)
(26.5315 7.46183 4.08735e-16)
(26.853 7.46526 4.66655e-17)
(27.1701 7.44549 -4.83327e-16)
(27.4814 7.40319 2.69734e-16)
(27.7887 7.33846 5.2884e-16)
(28.091 7.25151 1.35068e-15)
(28.3885 7.14164 -6.80886e-16)
(28.6815 7.00776 -9.20019e-16)
(28.9693 6.84866 2.35386e-16)
(29.2506 6.66288 2.07149e-16)
(24.5708 6.64143 -7.57176e-19)
(24.7965 6.77135 7.09092e-18)
(25.0604 6.89793 -9.49694e-18)
(25.3441 7.00955 2.00126e-17)
(25.6273 7.09631 -9.87042e-17)
(25.9289 7.1641 2.06097e-16)
(26.2361 7.20935 -5.33243e-18)
(26.5401 7.23087 8.2237e-17)
(26.8443 7.22983 -2.83262e-16)
(27.1438 7.20699 -2.44893e-16)
(27.4373 7.16309 -3.56472e-16)
(27.7265 7.0983 -1.88632e-17)
(28.0102 7.0129 -6.8373e-17)
(28.289 6.90632 1.52241e-16)
(28.5633 6.77758 1.1079e-15)
(28.8322 6.62565 1.37927e-16)
(29.0947 6.44923 -1.22002e-15)
(29.3491 6.24709 -1.6936e-16)
(24.6694 6.47903 6.29006e-18)
(24.8853 6.59963 -2.18197e-17)
(25.1374 6.71652 3.09314e-18)
(25.4081 6.8188 -2.4675e-17)
(25.678 6.89737 4.73829e-17)
(25.9649 6.95761 -1.44398e-16)
(26.2567 6.99634 -1.01712e-16)
(26.5449 7.01259 -4.5383e-16)
(26.8329 7.00748 4.12147e-16)
(27.1158 6.9819 4.26146e-17)
(27.3925 6.9366 -2.65151e-16)
(27.6645 6.87184 6.41256e-16)
(27.931 6.78795 -9.72915e-17)
(28.1923 6.68447 -9.08037e-18)
(28.4489 6.56055 -6.59028e-16)
(28.7001 6.41529 -6.40126e-16)
(28.9451 6.24755 1.14802e-15)
(29.1821 6.05621 7.34986e-16)
(24.7604 6.32456 -2.71561e-18)
(24.9668 6.43643 1.01289e-18)
(25.2077 6.54426 7.19168e-18)
(25.4661 6.63784 -5.32995e-17)
(25.7231 6.70881 -2.90933e-17)
(25.9961 6.76208 -6.69732e-17)
(26.2732 6.7948 4.64557e-17)
(26.5465 6.80623 -1.03688e-16)
(26.819 6.79744 -6.87698e-17)
(27.0863 6.76941 1.54911e-16)
(27.3471 6.72294 5.7036e-16)
(27.603 6.6583 -5.82374e-16)
(27.8532 6.57593 5.05287e-17)
(28.0981 6.47541 -3.45242e-16)
(28.3382 6.35603 5.01752e-16)
(28.5728 6.21701 1.31928e-15)
(28.8013 6.05733 -7.5618e-16)
(29.0222 5.87601 -1.70503e-15)
(24.8445 6.17756 -3.84109e-18)
(25.0418 6.28128 1.73137e-17)
(25.2719 6.38065 -7.64331e-18)
(25.5183 6.46614 1.50063e-17)
(25.7631 6.53007 6.45202e-17)
(26.0228 6.5769 2.35347e-16)
(26.286 6.6041 1.1885e-16)
(26.545 6.61114 -9.05155e-16)
(26.803 6.59903 -1.16591e-16)
(27.0554 6.56882 1.89334e-16)
(27.3012 6.52137 1.03805e-16)
(27.542 6.45697 -3.25807e-16)
(27.7769 6.3761 -3.56238e-16)
(28.0064 6.27844 7.30263e-16)
(28.231 6.16337 -2.96504e-16)
(28.4501 6.03022 8.20166e-16)
(28.6631 5.87808 2.34132e-16)
(28.8687 5.7061 9.41777e-16)
(29.0652 5.51375 -8.78488e-16)
(24.9221 6.03766 -6.46286e-18)
(25.1107 6.13376 -7.21833e-18)
(25.3304 6.22524 -9.00548e-18)
(25.5654 6.30319 -3.03303e-17)
(25.7985 6.36059 -7.49982e-17)
(26.0454 6.40148 -2.6488e-16)
(26.2953 6.42363 -5.77623e-17)
(26.5409 6.42668 2.87117e-16)
(26.7849 6.41159 4.5461e-16)
(27.0233 6.37948 1.68424e-16)
(27.255 6.33125 -2.63744e-16)
(27.4815 6.26719 7.72962e-16)
(27.702 6.18784 7.84706e-19)
(27.9171 6.09295 5.50191e-16)
(28.1271 5.98198 1.85317e-16)
(28.3316 5.85436 -1.0486e-16)
(28.5301 5.70929 -1.36604e-15)
(28.7215 5.54604 -1.87834e-15)
(28.9041 5.36417 1.17583e-15)
(24.9937 5.90449 1.19061e-18)
(25.1739 5.99346 6.04171e-18)
(25.3836 6.07758 2.69126e-18)
(25.6077 6.14852 -3.79596e-17)
(25.8296 6.19987 1.18147e-16)
(26.0644 6.23531 -1.91079e-16)
(26.3016 6.25282 8.33851e-16)
(26.5342 6.25225 -3.18726e-17)
(26.7651 6.2345 1.47965e-16)
(26.9902 6.20075 -9.97714e-16)
(27.2085 6.15193 3.24029e-16)
(27.4216 6.08831 -9.8454e-17)
(27.6286 6.01051 -6.16301e-19)
(27.83 5.91832 -4.58088e-16)
(28.0264 5.81129 9.06449e-16)
(28.2173 5.68891 5.04525e-16)
(28.4022 5.5505 -5.7755e-16)
(28.5802 5.39544 8.36333e-16)
(28.7498 5.22336 -1.28444e-15)
(25.0598 5.77771 -2.10188e-18)
(25.2319 5.86002 -1.11835e-17)
(25.432 5.93727 7.70951e-19)
(25.6456 6.0017 5.09175e-17)
(25.8567 6.04746 -1.74393e-16)
(26.0799 6.07787 4.67231e-17)
(26.305 6.09116 -6.42507e-17)
(26.5254 6.08731 -6.57426e-17)
(26.7438 6.06722 1.43099e-16)
(26.9563 6.03207 6.35592e-16)
(27.162 5.98282 8.07712e-17)
(27.3623 5.91977 -6.00161e-17)
(27.5566 5.84354 -3.59387e-16)
(27.7452 5.754 -7.39422e-16)
(27.9288 5.65073 4.39799e-16)
(28.1069 5.53335 -5.74463e-16)
(28.2791 5.40124 -6.62758e-17)
(28.4446 5.25388 3.95684e-16)
(28.602 5.09097 9.89248e-16)
(25.1208 5.65699 5.01166e-18)
(25.2851 5.73307 6.62589e-18)
(25.476 5.80392 2.16274e-18)
(25.6795 5.86232 -4.04515e-18)
(25.8803 5.90291 4.18423e-17)
(26.0923 5.9287 9.83396e-17)
(26.3059 5.93814 -5.65403e-17)
(26.5147 5.93137 -3.83869e-16)
(26.7211 5.90919 2.49207e-16)
(26.9216 5.87288 -9.46293e-16)
(27.1154 5.82337 5.32617e-16)
(27.3037 5.76098 -4.58446e-16)
(27.486 5.68636 -3.5968e-16)
(27.6626 5.59942 -1.10015e-15)
(27.8342 5.4998 3.78284e-16)
(28.0003 5.38718 -1.06369e-15)
(28.1606 5.26105 1.43458e-16)
(28.3144 5.12093 1.11007e-16)
(28.4604 4.96663 5.00545e-16)
(25.177 5.54205 -5.31513e-18)
(25.3338 5.61231 1.10861e-18)
(25.5158 5.6772 2.46603e-18)
(25.7096 5.73 -5.55873e-17)
(25.9006 5.76582 4.85931e-18)
(26.102 5.78737 7.94083e-17)
(26.3045 5.79332 1.33947e-16)
(26.5021 5.78392 4.98508e-16)
(26.6973 5.75995 -7.2963e-16)
(26.8865 5.72268 3.38874e-16)
(27.0689 5.67307 -3.30121e-16)
(27.2459 5.61144 8.55468e-16)
(27.4169 5.53846 7.21365e-16)
(27.5822 5.45407 1.12872e-15)
(27.7425 5.35798 7.69356e-16)
(27.8973 5.24993 9.45921e-16)
(28.0465 5.12946 -2.35656e-16)
(28.1893 4.99621 1.13427e-16)
(28.3247 4.85001 -1.39053e-16)
(28.4512 4.69105 -3.9025e-16)
(25.2288 5.43259 -8.32444e-18)
(25.3784 5.49743 2.15749e-17)
(25.5518 5.55678 -2.3141e-18)
(25.7363 5.60437 3.61363e-17)
(25.9179 5.63581 1.37933e-16)
(26.109 5.65348 -2.86826e-16)
(26.301 5.65627 2.08462e-17)
(26.4881 5.64453 5.37459e-16)
(26.6724 5.619 -1.31546e-16)
(26.8509 5.58097 -2.88317e-16)
(27.0226 5.53141 7.65151e-16)
(27.1889 5.47062 -2.50377e-16)
(27.3492 5.39932 -8.38253e-17)
(27.504 5.31746 -7.55199e-16)
(27.6536 5.22479 3.2661e-16)
(27.7979 5.12112 -1.03838e-15)
(27.9367 5.00605 -1.04172e-15)
(28.0693 4.87929 5.98515e-16)
(28.1947 4.74074 -2.65221e-16)
(28.3116 4.59062 -5.54925e-16)
(25.2765 5.32838 -5.22678e-18)
(25.4191 5.38815 -1.89606e-18)
(25.5843 5.44233 -3.7066e-17)
(25.7599 5.48511 3.00583e-17)
(25.9324 5.51251 -6.40585e-17)
(26.1138 5.52664 2.88363e-16)
(26.2957 5.52658 2.70429e-17)
(26.4727 5.51276 -3.12046e-16)
(26.6468 5.4859 5.02255e-16)
(26.815 5.4473 -6.94107e-16)
(26.9766 5.39792 -3.81348e-16)
(27.1328 5.33808 2.64012e-16)
(27.2831 5.26847 -3.86607e-16)
(27.4278 5.18911 -3.08997e-16)
(27.5675 5.09977 -4.02298e-16)
(27.702 5.0003 -1.7608e-16)
(27.831 4.89039 2.33237e-16)
(27.954 4.76979 -9.80082e-16)
(28.0701 4.63845 -1.13556e-17)
(28.1781 4.49665 2.49622e-16)
(25.3204 5.22914 -9.86442e-18)
(25.4563 5.28418 1.68045e-18)
(25.6136 5.33357 1.45975e-17)
(25.7805 5.3719 4.84822e-17)
(25.9444 5.39558 -1.70512e-16)
(26.1164 5.40649 7.69409e-17)
(26.2887 5.40386 -3.93879e-17)
(26.4561 5.38822 -5.41621e-16)
(26.6204 5.36024 3.53364e-16)
(26.779 5.32124 3.05315e-16)
(26.931 5.27218 4.88003e-16)
(27.0776 5.21335 -4.29845e-16)
(27.2184 5.14547 -3.37348e-17)
(27.3538 5.06857 6.56808e-16)
(27.4841 4.98247 2.65288e-16)
(27.6093 4.88706 -5.32249e-16)
(27.7292 4.78208 3.69539e-16)
(27.8433 4.66733 1.40611e-15)
(27.9507 4.54282 -3.6361e-17)
(28.0504 4.40884 3.22993e-16)
(25.3607 5.13466 1.22363e-17)
(25.4902 5.18529 -5.50014e-18)
(25.6399 5.23022 -2.29333e-17)
(25.7986 5.26443 -4.1011e-17)
(25.9541 5.28472 1.51505e-16)
(26.1172 5.29269 9.50341e-17)
(26.2803 5.28777 5.30707e-17)
(26.4384 5.27054 1.04485e-16)
(26.5935 5.24163 -5.85887e-16)
(26.7429 5.20239 -4.08138e-16)
(26.8858 5.15374 -4.11362e-16)
(27.0234 5.096 8.42156e-16)
(27.1553 5.02987 -2.18272e-16)
(27.2818 4.95541 -3.57298e-16)
(27.4034 4.87247 -9.04089e-16)
(27.5199 4.78098 6.9886e-16)
(27.6313 4.68071 5.09491e-16)
(27.737 4.57153 -1.9247e-16)
(27.8364 4.45348 -7.77355e-16)
(27.9284 4.32688 2.60305e-16)
(25.3979 5.04471 -2.63052e-18)
(25.5211 5.09124 -4.82541e-18)
(25.6635 5.13203 3.02953e-17)
(25.8142 5.16244 -2.95884e-18)
(25.9617 5.1796 -3.73848e-17)
(26.1162 5.18492 1.12164e-16)
(26.2705 5.17794 -5.98155e-16)
(26.4199 5.15934 5.73301e-17)
(26.5662 5.1297 1.85449e-16)
(26.7068 5.09035 5.08025e-16)
(26.8411 5.04223 3.34076e-16)
(26.9702 4.98564 -4.25011e-17)
(27.0936 4.92128 -6.9898e-16)
(27.2118 4.84923 4.80538e-16)
(27.3252 4.76936 3.52471e-16)
(27.4337 4.68165 4.16422e-16)
(27.5371 4.58589 -3.79301e-16)
(27.635 4.48201 -1.22596e-15)
(27.7268 4.37008 3.73281e-16)
(27.8117 4.25046 -6.0193e-17)
(27.8884 4.12401 -1.13215e-16)
(25.432 4.95908 6.82618e-19)
(25.5492 5.00178 4.84797e-18)
(25.6845 5.03874 -4.64312e-18)
(25.8275 5.06566 6.86405e-18)
(25.9674 5.07996 -6.3601e-17)
(26.1137 5.08288 -3.59046e-17)
(26.2596 5.07408 1.79381e-16)
(26.4006 5.0543 -6.09648e-17)
(26.5385 5.02408 5.27354e-17)
(26.6708 4.98476 1.29648e-16)
(26.797 4.93726 -1.29627e-16)
(26.918 4.88188 -2.40202e-16)
(27.0335 4.8193 -1.71329e-16)
(27.1439 4.74963 -5.18939e-16)
(27.2496 4.67275 3.39264e-16)
(27.3505 4.58868 4.64351e-16)
(27.4464 4.49726 3.29472e-16)
(27.5371 4.39843 7.54883e-16)
(27.622 4.29231 -2.34481e-16)
(27.7001 4.17926 3.55287e-16)
(27.7706 4.06017 -4.78344e-16)
(25.4633 4.87758 -4.24483e-19)
(25.5747 4.91673 -3.78415e-18)
(25.7032 4.95013 3.92356e-18)
(25.8389 4.97382 1.87777e-17)
(25.9713 4.98552 -1.53675e-16)
(26.1098 4.98627 2.77149e-16)
(26.2476 4.97586 -2.47655e-16)
(26.3807 4.95508 1.92525e-16)
(26.5106 4.92444 5.71206e-17)
(26.635 4.88527 1.1718e-16)
(26.7534 4.83848 1.55287e-16)
(26.8669 4.78434 8.00454e-16)
(26.9749 4.72356 -4.1371e-16)
(27.078 4.65624 5.8566e-16)
(27.1764 4.58228 -8.65256e-16)
(27.2702 4.50173 -3.77543e-16)
(27.3592 4.41446 2.94123e-16)
(27.4432 4.32045 -9.83317e-16)
(27.5215 4.21983 4.70539e-16)
(27.5935 4.113 -4.15031e-16)
(27.6583 4.00081 -2.90876e-16)
(25.492 4.80002 -4.6935e-18)
(25.5978 4.83586 -7.78333e-19)
(25.7197 4.86598 2.08356e-17)
(25.8483 4.8867 1.00504e-16)
(25.9737 4.89603 -3.20214e-17)
(26.1046 4.89483 -1.40546e-16)
(26.2348 4.88301 6.87323e-16)
(26.3602 4.86139 -3.85259e-16)
(26.4825 4.83047 -1.16354e-16)
(26.5995 4.79156 6.69105e-16)
(26.7106 4.74554 -1.32357e-15)
(26.8168 4.6927 1.53187e-15)
(26.9179 4.63371 -2.20536e-16)
(27.014 4.56869 -4.07521e-16)
(27.1057 4.49758 -8.58394e-16)
(27.1928 4.42043 -1.71251e-16)
(27.2754 4.33714 1.84292e-16)
(27.353 4.24771 -5.92213e-16)
(27.4253 4.15232 1.11137e-15)
(27.4916 4.05136 -6.74319e-16)
(27.5511 3.94568 2.79866e-16)
(25.5183 4.72623 -1.28293e-18)
(25.6187 4.759 3.2997e-18)
(25.7343 4.78607 -2.60559e-17)
(25.8561 4.80407 -4.35811e-18)
(25.9747 4.81124 -5.92593e-17)
(26.0984 4.8083 -1.66717e-16)
(26.2212 4.79524 -5.21374e-16)
(26.3394 4.77294 1.36887e-16)
(26.4544 4.74187 -4.5238e-16)
(26.5642 4.7033 -3.34278e-17)
(26.6685 4.65813 -5.92087e-16)
(26.7679 4.6066 -6.00989e-16)
(26.8623 4.54941 1.09433e-15)
(26.952 4.48666 6.0552e-16)
(27.0373 4.41832 -1.53567e-16)
(27.1182 4.34444 1.23554e-15)
(27.1948 4.26497 5.55129e-16)
(27.2666 4.17992 3.95655e-16)
(27.3333 4.08949 -1.40891e-16)
(27.3943 3.99408 -4.89196e-16)
(27.4488 3.89451 7.07461e-17)
(25.5424 4.65603 2.34666e-19)
(25.6376 4.68594 -2.53876e-19)
(25.747 4.71021 3.80811e-18)
(25.8623 4.7257 -5.89065e-17)
(25.9744 4.73091 -7.83617e-17)
(26.0911 4.72642 1.61894e-16)
(26.2069 4.7123 1.14924e-16)
(26.3181 4.68946 9.18223e-17)
(26.4263 4.65834 -1.03045e-16)
(26.5294 4.62021 -7.42207e-16)
(26.627 4.57592 7.49237e-16)
(26.7201 4.52575 1.83672e-16)
(26.8082 4.47034 -8.38147e-16)
(26.8918 4.40982 -2.34152e-16)
(26.9712 4.34416 -1.97017e-16)
(27.0463 4.27345 3.7783e-16)
(27.1172 4.19763 -7.55594e-16)
(27.1836 4.11676 4.09636e-16)
(27.2452 4.03103 3.49591e-16)
(27.3013 3.94086 1.23159e-16)
(27.3513 3.84705 3.69077e-16)
(27.3945 3.75112 2.97474e-16)
(25.5644 4.58928 -1.05794e-18)
(25.6546 4.61653 1.46756e-18)
(25.7581 4.6382 1.63841e-17)
(25.8671 4.65141 3.669e-17)
(25.9729 4.65484 2.63359e-16)
(26.083 4.64896 -2.97506e-17)
(26.192 4.63393 -3.31981e-16)
(26.2967 4.61068 1.69551e-16)
(26.3982 4.57961 3.10049e-16)
(26.4949 4.54199 4.64698e-16)
(26.5864 4.49864 7.84296e-16)
(26.6734 4.44983 9.6383e-16)
(26.7556 4.39619 -8.64961e-16)
(26.8335 4.33786 -4.2266e-17)
(26.9073 4.27481 -5.26837e-16)
(26.9771 4.20715 -2.65171e-16)
(27.0427 4.13483 6.86658e-17)
(27.1041 4.05794 1.44297e-15)
(27.1608 3.97667 -1.13708e-15)
(27.2124 3.89144 -5.79654e-16)
(27.2583 3.80305 4.9575e-16)
(27.2978 3.71294 -2.76535e-16)
(25.5845 4.5258 -1.51632e-18)
(25.6698 4.5506 -3.93316e-18)
(25.7677 4.56987 -2.02271e-17)
(25.8705 4.58099 -3.56928e-18)
(25.9703 4.58282 -2.7782e-17)
(26.074 4.57572 1.29434e-16)
(26.1766 4.55991 1.74547e-16)
(26.275 4.53636 1.33168e-16)
(26.3703 4.50544 -3.82408e-16)
(26.4609 4.46838 -2.02869e-16)
(26.5465 4.42602 -2.3713e-16)
(26.6278 4.37857 -3.16536e-16)
(26.7045 4.32669 1.05552e-15)
(26.777 4.27049 -2.16231e-16)
(26.8456 4.20997 7.34783e-16)
(26.9103 4.14524 -1.16081e-16)
(26.9711 4.07627 7.20005e-18)
(27.0278 4.00317 -9.50956e-16)
(27.08 3.92613 1.58536e-15)
(27.1275 3.84558 -8.74322e-17)
(27.1696 3.76227 1.8619e-16)
(27.2057 3.67762 -1.84087e-16)
(25.6028 4.46547 2.23203e-18)
(25.6834 4.48799 -1.90581e-18)
(25.7758 4.50506 2.38469e-17)
(25.8728 4.51426 -6.60972e-17)
(25.9668 4.51465 1.02364e-16)
(26.0644 4.50646 -3.48991e-16)
(26.1608 4.49001 7.29013e-17)
(26.2532 4.46626 -5.57549e-16)
(26.3426 4.43556 5.64329e-16)
(26.4274 4.39914 -6.95827e-16)
(26.5074 4.35777 -4.45345e-16)
(26.5833 4.3117 3.71326e-16)
(26.6548 4.26155 -7.31486e-16)
(26.7223 4.20743 -3.6105e-16)
(26.786 4.14936 -1.02049e-15)
(26.846 4.08745 6.46499e-17)
(26.9022 4.02169 4.63598e-17)
(26.9546 3.95219 1.58001e-16)
(27.0027 3.87916 -4.37737e-16)
(27.0464 3.80301 -2.15435e-16)
(27.0849 3.72449 3.17548e-16)
(27.118 3.64495 6.44848e-18)
(25.6195 4.40813 -7.3034e-19)
(25.6956 4.42854 -6.98179e-18)
(25.7827 4.44358 9.46437e-18)
(25.874 4.45104 -2.9226e-17)
(25.9625 4.45013 -5.20131e-17)
(26.0542 4.441 1.86619e-18)
(26.1447 4.42402 -2.26782e-16)
(26.2313 4.40016 6.06656e-16)
(26.315 4.36976 1.95667e-16)
(26.3944 4.334 4.87145e-16)
(26.4691 4.29367 -3.89796e-16)
(26.5399 4.24897 4.00842e-16)
(26.6065 4.20051 -2.42401e-16)
(26.6692 4.14842 1.56836e-15)
(26.7284 4.09272 3.56517e-16)
(26.784 4.03351 5.75438e-16)
(26.836 3.97082 5.47803e-17)
(26.8843 3.90475 -5.04906e-16)
(26.9287 3.83551 3.92393e-16)
(26.9688 3.76351 4.47346e-18)
(27.0042 3.68949 -2.3322e-16)
(27.0344 3.61472 -2.25274e-16)
(25.6347 4.35367 -6.04754e-18)
(25.7064 4.37212 -3.28228e-18)
(25.7884 4.3853 5.11557e-17)
(25.8743 4.39116 1.16248e-16)
(25.9573 4.38909 1.82659e-17)
(26.0434 4.37915 -1.212e-16)
(26.1283 4.36174 5.6781e-16)
(26.2093 4.33786 -5.97138e-16)
(26.2877 4.30781 -6.53373e-16)
(26.3619 4.27276 -2.46264e-16)
(26.4316 4.23347 5.50455e-16)
(26.4976 4.19013 8.08367e-17)
(26.5596 4.14334 5.0038e-16)
(26.6179 4.09322 -7.69867e-16)
(26.6728 4.0398 -9.5019e-16)
(26.7243 3.98319 6.87508e-16)
(26.7724 3.92342 -1.306e-15)
(26.817 3.8606 3.63875e-16)
(26.8578 3.79495 -5.18096e-16)
(26.8947 3.72687 7.19679e-17)
(26.9271 3.65706 6.29191e-16)
(26.9548 3.58675 1.86366e-16)
(25.6485 4.30195 1.33116e-18)
(25.7159 4.31859 7.06368e-18)
(25.7929 4.33006 -6.28692e-17)
(25.8736 4.33448 -3.68209e-17)
(25.9515 4.33137 -1.04164e-16)
(26.0321 4.32072 4.95609e-16)
(26.1116 4.30299 -1.01897e-16)
(26.1874 4.27915 -3.32156e-17)
(26.2606 4.24951 -9.86745e-17)
(26.3299 4.2152 7.9419e-16)
(26.3949 4.17695 -1.01843e-15)
(26.4564 4.13496 8.69794e-16)
(26.514 4.0898 4.75568e-17)
(26.5682 4.0416 2.09924e-16)
(26.6191 3.99037 7.59166e-16)
(26.6667 3.93625 -5.37604e-16)
(26.7112 3.87926 1.00524e-15)
(26.7523 3.81953 -1.01608e-16)
(26.79 3.75727 -4.55288e-16)
(26.8238 3.69287 1.27146e-16)
(26.8536 3.62702 -2.04387e-16)
(26.8789 3.56088 5.78408e-16)
(25.661 4.25285 -3.31476e-18)
(25.7243 4.26782 -1.02879e-17)
(25.7965 4.27772 2.9845e-17)
(25.8721 4.28083 -9.40875e-17)
(25.945 4.2768 -1.78699e-17)
(26.0204 4.26555 -1.19473e-17)
(26.0948 4.24757 -6.22017e-16)
(26.1656 4.22385 5.91158e-16)
(26.2339 4.19465 -3.89528e-16)
(26.2985 4.16111 -8.32016e-16)
(26.359 4.12391 4.2696e-16)
(26.4162 4.08325 -9.51124e-16)
(26.4697 4.03968 7.29048e-16)
(26.52 3.99332 -3.60618e-16)
(26.5672 3.94421 -1.29557e-15)
(26.6113 3.89247 5.54551e-16)
(26.6523 3.83813 -7.22743e-17)
(26.6903 3.78131 -1.85506e-16)
(26.725 3.72225 -1.82484e-16)
(26.7561 3.66132 1.42543e-16)
(26.7834 3.59917 -4.22899e-16)
(26.8065 3.53692 2.32595e-17)
(26.8252 3.476 -1.31747e-16)
(25.6723 4.20626 2.33708e-18)
(25.7316 4.21969 -4.77599e-18)
(25.7992 4.22814 2.53626e-17)
(25.8698 4.23007 1.04879e-16)
(25.938 4.22522 -2.41572e-16)
(26.0084 4.21347 -1.3298e-16)
(26.0778 4.19532 5.15482e-16)
(26.1438 4.17177 -5.4251e-16)
(26.2075 4.14307 1.01627e-15)
(26.2676 4.1103 -7.34265e-16)
(26.3239 4.07415 -9.2193e-17)
(26.377 4.03479 -6.74632e-16)
(26.4268 3.99277 -6.49627e-16)
(26.4734 3.9482 4.02843e-16)
(26.517 3.90111 -1.18911e-16)
(26.5578 3.85163 -8.89348e-16)
(26.5957 3.79981 -4.99227e-16)
(26.6307 3.74576 5.56081e-16)
(26.6626 3.68972 -1.94944e-17)
(26.6912 3.63204 -4.22482e-16)
(26.7163 3.57336 3.94602e-16)
(26.7375 3.51473 2.35472e-16)
(26.7546 3.45752 4.49817e-17)
(25.6825 4.16207 1.76181e-18)
(25.7379 4.17407 2.58062e-18)
(25.801 4.18121 7.23663e-18)
(25.8669 4.18206 -9.32841e-17)
(25.9304 4.1765 1.34356e-16)
(25.9961 4.16433 1.25949e-16)
(26.0607 4.14608 -6.29739e-16)
(26.1221 4.12276 3.53606e-16)
(26.1814 4.09457 -4.70366e-16)
(26.2373 4.0626 7.78131e-16)
(26.2896 4.02748 1.23951e-16)
(26.3389 3.9894 5.42396e-16)
(26.385 3.94888 7.9249e-17)
(26.4282 3.90602 -5.077e-16)
(26.4686 3.86088 8.7993e-16)
(26.5063 3.81356 9.91635e-17)
(26.5413 3.76412 -4.25314e-16)
(26.5735 3.71269 7.17915e-16)
(26.6029 3.65948 2.32976e-16)
(26.6292 3.60485 -5.54085e-16)
(26.6522 3.54941 9.81112e-17)
(26.6716 3.49416 2.56519e-17)
(26.6872 3.44041 2.25762e-17)
(25.6917 4.12018 5.14052e-19)
(25.7433 4.13086 2.08471e-18)
(25.8021 4.13679 3.81539e-17)
(25.8634 4.13668 -1.01571e-16)
(25.9224 4.1305 -1.28985e-16)
(25.9835 4.11798 2.93411e-16)
(26.0435 4.09971 -8.98122e-17)
(26.1006 4.07665 4.67912e-16)
(26.1556 4.04901 4.96664e-16)
(26.2075 4.01783 -1.20119e-16)
(26.2561 3.98375 2.91408e-16)
(26.3018 3.94691 9.93432e-17)
(26.3445 3.90783 -4.8368e-16)
(26.3844 3.86663 7.86285e-16)
(26.4218 3.82333 -7.53278e-16)
(26.4566 3.77807 1.57445e-15)
(26.4889 3.73089 -7.14224e-16)
(26.5186 3.68192 -2.65181e-16)
(26.5456 3.63138 9.903e-16)
(26.5698 3.57961 -1.14268e-16)
(26.5909 3.52718 4.51593e-17)
(26.6086 3.47508 -6.52283e-16)
(26.623 3.42452 2.67236e-16)
(25.6999 4.08047 1.21039e-18)
(25.7479 4.08994 -3.01271e-18)
(25.8024 4.09477 -8.07358e-17)
(25.8593 4.0938 1.24898e-16)
(25.9141 4.08708 7.3055e-17)
(25.9706 4.0743 1.11594e-16)
(26.0263 4.05605 -6.59537e-17)
(26.0793 4.0333 -7.85108e-17)
(26.1302 4.00623 -7.27289e-16)
(26.1783 3.97585 6.82338e-16)
(26.2233 3.94278 2.57932e-16)
(26.2656 3.90715 -4.06585e-17)
(26.3051 3.86946 -3.97393e-16)
(26.342 3.82984 -5.2662e-16)
(26.3765 3.78832 8.91902e-16)
(26.4086 3.745 -7.69472e-16)
(26.4384 3.69995 3.49923e-18)
(26.4657 3.6533 5.26224e-16)
(26.4906 3.60526 -2.03017e-16)
(26.5129 3.55616 5.37738e-16)
(26.5322 3.50656 -3.42005e-16)
(26.5486 3.45737 -9.0831e-17)
(26.5617 3.40977 3.05793e-16)
(25.7073 4.04285 -3.98368e-18)
(25.7517 4.05121 8.53196e-18)
(25.8021 4.05505 2.39269e-17)
(25.8547 4.0533 4.95187e-17)
(25.9053 4.04612 -4.99524e-17)
(25.9576 4.03315 -1.50953e-16)
(26.0091 4.01498 -2.7016e-17)
(26.0581 3.99258 1.11843e-16)
(26.1052 3.96609 -4.60846e-17)
(26.1497 3.93652 -6.68991e-16)
(26.1912 3.90443 4.29733e-16)
(26.2303 3.86996 3.13359e-17)
(26.2668 3.83362 3.67513e-16)
(26.3009 3.79552 7.56429e-16)
(26.3327 3.75567 -8.78788e-16)
(26.3623 3.7142 1.29341e-15)
(26.3898 3.67117 -2.00392e-16)
(26.415 3.6267 4.86191e-16)
(26.438 3.581 -4.87977e-16)
(26.4584 3.53439 -7.19032e-16)
(26.4763 3.48741 3.91914e-16)
(26.4913 3.44093 4.02574e-16)
(26.5034 3.39607 -2.45731e-16)
(25.7139 4.00724 1.80559e-18)
(25.7548 4.01457 4.53874e-19)
(25.8012 4.0175 1.34787e-17)
(25.8496 4.01508 5.77129e-17)
(25.8963 4.00751 -2.07152e-16)
(25.9445 3.99441 2.86031e-16)
(25.9919 3.97637 -1.96767e-16)
(26.0371 3.95436 -1.60856e-16)
(26.0806 3.92846 1.21607e-16)
(26.1216 3.8997 2.98143e-17)
(26.1599 3.86857 -1.15597e-15)
(26.196 3.83521 1.04028e-15)
(26.2296 3.80015 -4.84684e-16)
(26.2611 3.76351 7.20009e-16)
(26.2905 3.72527 -2.1384e-16)
(26.3178 3.68555 -6.09796e-16)
(26.3432 3.6444 -2.87211e-16)
(26.3665 3.60198 2.26143e-16)
(26.3877 3.55847 2.66676e-16)
(26.4065 3.51418 -1.35641e-16)
(26.423 3.46964 1.94646e-16)
(26.4368 3.42567 -4.40385e-16)
(26.4479 3.38333 -1.56185e-16)
(25.7197 3.97353 -2.2688e-18)
(25.7573 3.97991 4.64285e-20)
(25.7998 3.98203 -1.23954e-17)
(25.8442 3.97901 -7.85485e-17)
(25.887 3.97114 -3.85088e-18)
(25.9312 3.95795 -1.72314e-16)
(25.9748 3.94011 1.21702e-17)
(26.0163 3.91851 3.27858e-16)
(26.0563 3.89321 -2.05964e-16)
(26.0941 3.86528 5.03258e-16)
(26.1293 3.83507 1.07326e-15)
(26.1625 3.80276 -1.54075e-15)
(26.1936 3.76896 3.69837e-16)
(26.2227 3.73372 -1.51279e-16)
(26.2499 3.697 -6.774e-17)
(26.2751 3.65892 4.55432e-16)
(26.2986 3.61955 -3.34256e-16)
(26.3201 3.57903 1.42024e-16)
(26.3396 3.53756 -7.33606e-16)
(26.357 3.49543 4.90619e-18)
(26.3722 3.45314 8.48104e-17)
(26.385 3.41149 1.69668e-16)
(26.3952 3.37148 -4.75891e-17)
(25.7249 3.94163 5.6778e-19)
(25.7592 3.94715 4.27665e-18)
(25.7979 3.94853 -3.34127e-18)
(25.8384 3.945 2.72203e-16)
(25.8775 3.93689 -3.07436e-16)
(25.9178 3.92368 4.19837e-17)
(25.9578 3.90608 2.53861e-16)
(25.9958 3.88493 -1.70519e-16)
(26.0326 3.86021 3.52031e-17)
(26.0671 3.83316 -7.71221e-16)
(26.0994 3.80382 -2.62912e-16)
(26.13 3.77252 5.20857e-16)
(26.1588 3.73995 -8.01784e-16)
(26.1857 3.70607 3.64104e-16)
(26.2108 3.67078 1.29642e-16)