/*--------------------------------*- C++ -*----------------------------------*\
| =========                 |                                                 |
| \\      /  F ield         | OpenFOAM: The Open Source CFD Toolbox           |
|  \\    /   O peration     | Version:  2506                                  |
|   \\  /    A nd           | Website:  www.openfoam.com                      |
|    \\/     M anipulation  |                                                 |
\*---------------------------------------------------------------------------*/
FoamFile
{
    version     2.0;
    format      ascii;
    arch        "LSB;label=32;scalar=64";
    class       volScalarField;
    location    "350";
    object      div(phi);
}
// * * * * * * * * * * * * * * * * * * * * * * * * * * * * * * * * * * * * * //

dimensions      [0 0 -1 0 0 0 0];

internalField   nonuniform List<scalar> 
1340
(
-1.12783e-08
3.4871e-08
5.04542e-09
6.64188e-09
-6.8208e-10
5.05426e-09
-9.72391e-09
1.5658e-08
-1.79015e-09
-1.93744e-09
1.78665e-09
7.34566e-09
-6.44187e-09
-6.07524e-09
1.94142e-09
-3.00136e-09
-3.15044e-09
2.04822e-09
3.1193e-09
-3.47588e-10
2.24614e-09
3.7813e-09
-7.0978e-09
-5.03912e-09
-1.06983e-08
9.71872e-10
-7.96323e-09
-4.05271e-09
-7.55692e-09
1.36548e-11
4.54492e-09
-1.04499e-09
-2.27905e-09
2.21975e-09
4.45621e-09
6.45858e-08
7.88831e-09
2.22739e-08
-3.79854e-09
2.18208e-08
-9.72802e-09
-5.94993e-09
1.80702e-09
2.64318e-09
-1.02489e-08
-3.72246e-09
-4.80166e-09
2.21076e-09
-1.77357e-09
-3.32798e-09
1.94517e-09
3.14277e-09
-4.07318e-10
8.04357e-10
6.49839e-09
1.86899e-08
-1.94875e-08
-8.44408e-09
-1.35852e-10
-1.29659e-08
3.03624e-08
8.88668e-09
2.05347e-08
9.51085e-09
2.75531e-08
-8.94102e-09
-2.91325e-10
2.1661e-09
2.04557e-09
-4.63564e-09
2.11444e-09
-5.65039e-09
-1.93633e-09
-6.61398e-09
1.87666e-10
4.24102e-09
-8.98787e-10
-2.36037e-09
2.10339e-09
2.80036e-09
1.3369e-07
3.2186e-08
4.16184e-08
8.97476e-09
3.06955e-08
-3.57386e-09
2.4012e-08
-6.54825e-09
2.11699e-08
-1.01526e-08
2.3578e-08
-1.58637e-08
1.98371e-08
-1.81363e-08
1.44771e-08
-1.93133e-08
1.17216e-08
-1.06706e-09
1.34672e-08
1.74348e-08
1.40878e-08
2.68602e-08
-8.26686e-10
1.49255e-08
-6.9558e-09
1.13598e-10
1.9807e-09
9.25393e-09
-7.3122e-09
-2.23637e-09
-4.8577e-09
2.68971e-09
-1.03261e-09
-3.61981e-09
1.39388e-09
2.63434e-09
-5.77148e-10
-3.2581e-11
-4.99605e-06
5.75972e-07
-2.29661e-06
4.30376e-07
-2.20518e-06
3.95276e-07
-2.06892e-06
3.41512e-07
-1.91353e-06
2.78399e-07
-1.75301e-06
2.13471e-07
-1.5887e-06
1.57934e-07
-1.41314e-06
1.14834e-07
-1.24369e-06
8.75109e-08
-1.06086e-06
7.46673e-08
-8.99179e-07
7.31163e-08
-7.22048e-07
7.88221e-08
-5.87564e-07
8.46566e-08
-4.34619e-07
8.61364e-08
-3.43193e-07
7.39824e-08
-2.32586e-07
4.0894e-08
-1.87828e-07
-2.97642e-09
-1.66443e-07
-2.86181e-08
-1.22418e-07
-4.79649e-08
-9.72907e-08
-5.52009e-08
-8.14638e-08
-5.39114e-08
-4.87593e-08
-5.96108e-08
-4.49179e-08
-5.82867e-08
-3.31421e-08
-5.05361e-08
-2.09455e-08
-4.01036e-08
-1.11648e-08
-2.9484e-08
-4.02251e-09
-1.96069e-08
-1.18404e-09
-1.3084e-08
6.39976e-10
-8.2929e-09
-7.78921e-10
-3.16463e-09
4.73355e-09
9.51473e-09
1.02666e-08
1.5064e-08
4.54033e-09
2.55908e-08
-8.04511e-09
8.2086e-09
3.34739e-10
1.49424e-08
-6.48489e-09
5.41124e-09
-3.90175e-09
1.67763e-10
-5.59731e-09
-3.64945e-10
3.37062e-09
-9.52361e-10
-2.55843e-09
1.57875e-09
1.90963e-09
-2.25621e-06
8.46717e-07
-8.82494e-07
6.79441e-07
-9.26162e-07
6.59812e-07
-8.9896e-07
6.48624e-07
-8.19122e-07
6.31577e-07
-7.45608e-07
6.00506e-07
-6.63703e-07
5.61713e-07
-5.89199e-07
5.14295e-07
-5.22974e-07
4.61775e-07
-4.59575e-07
4.04045e-07
-4.10139e-07
3.43197e-07
-3.64426e-07
2.83018e-07
-3.27336e-07
2.27118e-07
-2.87743e-07
1.78908e-07
-2.49859e-07
1.38079e-07
-2.08033e-07
1.15588e-07
-1.71578e-07
1.0255e-07
-7.55947e-08
7.46616e-08
-5.90618e-08
3.4088e-08
-5.03044e-08
-8.47344e-09
-5.12376e-08
-4.1465e-08
-6.79386e-08
-5.44928e-08
-5.98568e-08
-5.24974e-08
-4.45571e-08
-4.41607e-08
-2.97127e-08
-3.52682e-08
-1.83103e-08
-2.57663e-08
-1.03595e-08
-1.79802e-08
-5.49725e-09
-1.09287e-08
-3.1189e-09
-5.98091e-09
-1.75856e-09
-1.95256e-09
1.36365e-09
4.65683e-09
5.70126e-09
4.13711e-09
2.0786e-08
-2.40036e-09
1.66584e-08
-5.29826e-09
1.7879e-08
-5.87834e-09
1.42182e-08
-7.74469e-09
-8.45213e-10
-4.6077e-09
2.92081e-09
-7.58986e-10
-3.221e-09
5.15722e-10
2.56818e-09
-7.09039e-10
-2.89075e-10
-1.60325e-06
1.12239e-06
-1.64858e-07
7.88623e-07
-3.50338e-07
6.1922e-07
-4.34843e-07
5.0178e-07
-5.2308e-07
4.08713e-07
-5.55702e-07
3.39581e-07
-5.85283e-07
2.83932e-07
-5.79028e-07
2.4038e-07
-5.65966e-07
2.03502e-07
-5.36343e-07
1.71031e-07
-4.99669e-07
1.4267e-07
-4.60649e-07
1.15763e-07
-4.11052e-07
9.31388e-08
-3.72065e-07
7.11269e-08
-3.14297e-07
5.2548e-08
-2.7754e-07
2.50831e-08
-2.18013e-07
-5.11322e-09
-2.19609e-07
-2.09608e-08
-1.76237e-07
-1.97447e-08
-1.23456e-07
-9.93059e-09
-8.77041e-08
-1.56574e-09
-4.06784e-08
-2.45026e-10
-1.93482e-08
-6.95339e-09
-1.18749e-08
-1.34945e-08
-8.76911e-09
-1.62615e-08
-6.31586e-09
-1.50019e-08
-3.59778e-09
-1.11025e-08
-1.37966e-09
-6.76515e-09
-2.44681e-10
-3.19118e-09
2.14586e-11
-5.44289e-10
4.33101e-10
2.54958e-09
1.18275e-09
7.88235e-09
8.21181e-10
1.30606e-08
-3.43731e-09
9.11306e-09
-6.6858e-09
1.66804e-08
-1.2076e-08
3.45724e-09
-3.79114e-09
4.70034e-09
-4.35166e-09
-5.9913e-10
2.43969e-09
-8.22119e-11
-2.2238e-09
1.34053e-09
1.2602e-09
-1.64147e-06
8.7194e-07
-2.42972e-07
7.52791e-07
-1.92924e-07
6.47249e-07
-1.92864e-07
5.37035e-07
-2.52179e-07
4.41687e-07
-2.78501e-07
3.76043e-07
-3.02874e-07
3.28346e-07
-2.98309e-07
2.95034e-07
-2.91664e-07
2.6517e-07
-2.74514e-07
2.37131e-07
-2.62819e-07
2.07108e-07
-2.47383e-07
1.77413e-07
-2.36905e-07
1.47756e-07
-2.21992e-07
1.20918e-07
-2.06826e-07
9.71441e-08
-1.86793e-07
7.8688e-08
-1.65927e-07
6.78077e-08
-1.27149e-07
5.32524e-08
-9.01023e-08
3.84735e-08
-7.77778e-08
2.21051e-08
-4.97745e-08
1.06659e-08
-4.09542e-08
2.72486e-09
-2.8126e-08
4.03178e-10
-1.49699e-08
-6.20866e-10
-5.34595e-09
-1.31173e-09
3.23779e-10
-1.99541e-09
2.94754e-09
-2.47737e-09
3.24427e-09
-2.44234e-09
2.17448e-09
-2.04477e-09
7.84681e-10
-1.45555e-09
-3.27274e-10
-6.03055e-10
-7.55956e-10
-2.60807e-10
2.84908e-09
-1.30843e-09
1.41393e-09
-3.74762e-09
1.25992e-08
-1.26911e-08
9.1471e-09
-6.99247e-09
6.09565e-09
-5.37646e-09
4.37525e-09
1.10828e-10
8.46808e-10
1.12804e-09
2.45906e-09
-6.43239e-10
-4.32903e-10
-1.23104e-06
1.15663e-06
8.25599e-08
8.11377e-07
-2.65367e-08
6.15137e-07
-1.23224e-07
4.69704e-07
-1.82872e-07
3.66719e-07
-2.37268e-07
2.91525e-07
-2.59343e-07
2.37904e-07
-2.87063e-07
1.97443e-07
-2.89261e-07
1.69502e-07
-2.90404e-07
1.49184e-07
-2.76195e-07
1.34491e-07
-2.56474e-07
1.22205e-07
-2.33361e-07
1.09086e-07
-2.09719e-07
9.65931e-08
-1.87322e-07
8.33154e-08
-1.63655e-07
7.20738e-08
-1.40465e-07
6.07519e-08
-1.17839e-07
5.73862e-08
-9.38295e-08
5.85999e-08
-5.06377e-08
6.23125e-08
-2.32587e-08
6.02904e-08
2.66011e-09
5.38645e-08
1.62917e-08
4.00064e-08
1.69744e-08
2.43755e-08
1.28618e-08
1.05133e-08
7.91944e-09
4.7165e-10
3.61017e-09
-4.55428e-09
1.29281e-09
-5.75946e-09
-3.446e-11
-4.85485e-09
-1.00592e-09
-3.12219e-09
-2.06866e-09
-1.51201e-09
-3.24381e-09
-1.18967e-09
-3.74747e-09
-1.18483e-09
-3.42711e-09
3.70785e-09
-1.1547e-08
1.0642e-08
-1.06113e-08
7.78902e-09
-6.08362e-09
7.90529e-09
-3.28818e-09
3.88454e-09
3.1156e-09
3.17777e-09
-1.05806e-09
9.95386e-10
8.56671e-10
-1.08173e-06
9.17448e-07
-8.0414e-08
6.82397e-07
-1.7613e-07
5.53683e-07
-2.35797e-07
4.54673e-07
-2.59388e-07
3.79593e-07
-2.72611e-07
3.22068e-07
-2.64557e-07
2.80777e-07
-2.48129e-07
2.48953e-07
-2.24815e-07
2.24101e-07
-2.02034e-07
2.02089e-07
-1.79906e-07
1.8283e-07
-1.61192e-07
1.63808e-07
-1.45523e-07
1.46129e-07
-1.32503e-07
1.2772e-07
-1.2264e-07
1.10308e-07
-1.14305e-07
9.27867e-08
-1.07785e-07
7.72378e-08
-9.76472e-08
6.24263e-08
-9.11505e-08
5.04078e-08
-7.53923e-08
4.04888e-08
-6.54875e-08
3.11545e-08
-4.53179e-08
1.98757e-08
-3.84591e-08
6.6512e-09
-3.35997e-08
-4.09328e-09
-2.84153e-08
-1.08169e-08
-2.40608e-08
-1.25642e-08
-1.59006e-08
-1.1034e-08
-8.02962e-09
-8.88812e-09
-2.56533e-09
-7.14748e-09
1.62942e-10
-6.00956e-09
7.10483e-10
-5.29943e-09
-6.70217e-10
-5.02131e-09
-2.71257e-09
-5.37293e-09
-1.09984e-09
-7.60515e-09
9.99088e-09
-1.10161e-08
1.0726e-08
-7.79401e-09
9.41062e-09
-5.93403e-09
6.24482e-09
1.18821e-09
4.17262e-09
1.01125e-09
2.62653e-09
-1.44974e-10
-2.66368e-10
-1.30361e-06
8.71469e-07
-1.68606e-07
5.91268e-07
-2.34717e-07
4.54351e-07
-2.38483e-07
3.64307e-07
-2.29044e-07
2.99375e-07
-2.06961e-07
2.49825e-07
-1.87073e-07
2.08827e-07
-1.73826e-07
1.74606e-07
-1.60273e-07
1.47543e-07
-1.52348e-07
1.26e-07
-1.40167e-07
1.10362e-07
-1.32283e-07
9.84729e-08
-1.19608e-07
9.05511e-08
-1.09354e-07
8.45232e-08
-9.68561e-08
8.0159e-08
-8.38431e-08
7.53854e-08
-7.27039e-08
6.94091e-08
-6.22281e-08
6.18329e-08
-5.48512e-08
5.31305e-08
-4.79619e-08
4.39876e-08
-4.19347e-08
3.498e-08
-3.60004e-08
2.82778e-08
-3.06586e-08
2.4434e-08
-1.67828e-08
2.19579e-08
-8.404e-09
1.85437e-08
1.04915e-09
1.40256e-08
5.57758e-09
7.84229e-09
5.81022e-09
1.98666e-09
4.40196e-09
-2.29862e-09
2.54562e-09
-4.68933e-09
1.01275e-09
-5.52231e-09
-7.77601e-10
-5.55122e-09
-2.89087e-09
-4.38211e-09
-2.50145e-09
4.53672e-09
-4.57097e-09
1.1559e-08
-8.93469e-09
9.31962e-09
-7.63828e-09
8.27803e-09
-2.53755e-09
5.84696e-09
1.96646e-09
4.52509e-09
-4.74713e-10
1.16491e-09
7.16566e-10
-1.674e-06
4.92882e-07
-3.40673e-07
2.92355e-07
-3.30093e-07
2.27707e-07
-2.90831e-07
1.90434e-07
-2.45599e-07
1.6336e-07
-2.10609e-07
1.40029e-07
-1.83681e-07
1.20355e-07
-1.62203e-07
1.04157e-07
-1.44614e-07
9.0781e-08
-1.2902e-07
7.95254e-08
-1.17814e-07
6.99108e-08
-1.06438e-07
6.20105e-08
-9.8834e-08
5.55955e-08
-8.98314e-08
5.07604e-08
-8.16449e-08
4.68913e-08
-7.3029e-08
4.33467e-08
-6.5117e-08
4.00945e-08
-5.8134e-08
3.65015e-08
-5.01082e-08
3.29212e-08
-4.4909e-08
2.82955e-08
-3.71341e-08
2.34758e-08
-3.41009e-08
1.70595e-08
-2.68037e-08
9.74515e-09
-2.59371e-08
1.9138e-09
-2.39827e-08
-3.66973e-09
-2.06532e-08
-6.94712e-09
-1.7403e-08
-7.71164e-09
-1.21595e-08
-7.0079e-09
-7.33654e-09
-6.15877e-09
-3.81614e-09
-5.53928e-09
-1.71097e-09
-5.25051e-09
-1.3219e-09
-4.80255e-09
-2.21364e-09
-4.50872e-09
-1.44463e-09
-4.11649e-09
1.98168e-09
-6.62012e-09
7.97359e-09
-5.76744e-09
9.56113e-09
-4.74232e-09
7.23683e-09
-1.15955e-11
6.19216e-09
6.49956e-11
3.98978e-09
4.54095e-10
-3.22888e-11
1.82811e-07
-6.38248e-07
2.80658e-07
-2.15919e-07
2.53874e-07
-1.917e-07
2.29355e-07
-1.69695e-07
2.06323e-07
-1.51823e-07
1.84426e-07
-1.36487e-07
1.64091e-07
-1.23023e-07
1.45203e-07
-1.11025e-07
1.27823e-07
-1.01448e-07
1.11841e-07
-9.18496e-08
9.77101e-08
-8.54632e-08
8.55699e-08
-7.73791e-08
7.61346e-08
-6.97774e-08
6.85474e-08
-6.10454e-08
6.2555e-08
-5.34639e-08
5.74672e-08
-4.5963e-08
5.31862e-08
-3.86117e-08
4.892e-08
-3.27277e-08
4.4372e-08
-2.75074e-08
3.93205e-08
-2.39939e-08
3.39569e-08
-2.10744e-08
2.84778e-08
-1.86385e-08
2.3101e-08
-1.65185e-08
1.88685e-08
-1.48501e-08
1.62137e-08
-7.959e-09
1.41444e-08
-4.24027e-09
1.13274e-08
8.90232e-11
7.75852e-09
1.69122e-09
3.2938e-09
9.93743e-10
-6.13111e-10
2.72155e-11
-3.07186e-09
-6.61793e-10
-3.98703e-09
-7.10196e-10
-4.06407e-09
-1.25409e-09
-3.93585e-09
-1.13931e-09
-2.77176e-09
-1.9733e-09
5.59065e-09
-1.77729e-09
9.17003e-09
-3.93832e-09
7.89246e-09
-2.50248e-09
7.52084e-09
-1.61155e-10
6.45968e-09
-4.6366e-10
1.3158e-09
7.91568e-10
2.13729e-08
-6.09889e-07
1.9363e-07
-1.35991e-07
1.89449e-07
-1.14278e-07
1.70305e-07
-1.06655e-07
1.4999e-07
-1.00316e-07
1.3233e-07
-9.32938e-08
1.16482e-07
-8.62998e-08
1.01567e-07
-8.43241e-08
8.78966e-08
-8.05559e-08
7.66269e-08
-7.74001e-08
6.7106e-08
-7.23313e-08
5.91411e-08
-6.80677e-08
5.22338e-08
-6.24896e-08
4.63877e-08
-5.77327e-08
4.15177e-08
-5.2164e-08
3.75856e-08
-4.59517e-08
3.43138e-08
-4.01748e-08
3.1122e-08
-3.45976e-08
2.82218e-08
-3.01789e-08
2.52182e-08
-2.51546e-08
2.24071e-08
-2.21761e-08
1.90925e-08
-1.78256e-08
1.57969e-08
-1.6574e-08
1.1614e-08
-1.27712e-08
6.84353e-09
-1.29992e-08
1.58717e-09
-1.29965e-08
-2.4624e-09
-1.21652e-08
-5.08716e-09
-1.14585e-08
-5.95784e-09
-8.98216e-09
-5.46775e-09
-6.02459e-09
-4.54985e-09
-3.23336e-09
-3.69712e-09
-1.28503e-09
-2.8012e-09
-6.13173e-10
-2.16385e-09
2.84384e-10
-1.72493e-09
6.32208e-10
-1.10627e-09
3.70867e-09
-1.6846e-09
7.40176e-09
-2.14333e-09
8.1567e-09
-1.3068e-09
7.42919e-09
-1.78723e-09
3.3851e-09
7.51308e-10
2.7275e-10
7.31924e-08
-3.15622e-07
1.9283e-07
-9.74298e-08
1.7498e-07
-9.10184e-08
1.54552e-07
-8.69486e-08
1.36363e-07
-8.08829e-08
1.21125e-07
-7.52e-08
1.08086e-07
-6.85887e-08
9.69341e-08
-6.20232e-08
8.68441e-08
-5.56645e-08
7.75285e-08
-5.1031e-08
6.87734e-08
-4.60624e-08
6.09597e-08
-4.31585e-08
5.41844e-08
-3.89938e-08
4.8958e-08
-3.47406e-08
4.47097e-08
-2.9892e-08
4.12039e-08
-2.53967e-08
3.80742e-08
-2.12753e-08
3.5219e-08
-1.69202e-08
3.22842e-08
-1.382e-08
2.9065e-08
-1.09572e-08
2.55233e-08
-9.3832e-09
2.17899e-08
-8.20675e-09
1.80605e-08
-7.39486e-09
1.45127e-08
-6.82377e-09
1.17626e-08
-6.3071e-09
9.96089e-09
-2.83544e-09
8.38252e-09
-1.42309e-09
6.33618e-09
1.84516e-10
4.0705e-09
7.01461e-10
1.6408e-09
3.78951e-10
-9.20145e-11
3.24361e-10
-7.34951e-10
7.49109e-10
-6.97118e-10
1.16324e-09
-6.13388e-10
1.62291e-09
-5.16903e-10
1.7389e-09
2.06561e-10
9.11236e-10
5.17024e-09
5.60835e-11
6.82479e-09
-1.64116e-09
7.0396e-09
-2.96954e-09
5.21451e-09
-3.99838e-10
1.40297e-09
7.32238e-10
2.2116e-07
-3.42185e-07
1.55663e-07
-5.87654e-08
1.31579e-07
-5.93227e-08
1.1316e-07
-5.57812e-08
9.97897e-08
-5.03203e-08
8.87656e-08
-4.55781e-08
7.86868e-08
-4.21454e-08
6.90233e-08
-3.93987e-08
5.98079e-08
-3.97966e-08
5.13714e-08
-3.89094e-08
4.44447e-08
-3.85475e-08
3.8735e-08
-3.66274e-08
3.41839e-08
-3.4806e-08
3.03859e-08
-3.20559e-08
2.71797e-08
-2.95278e-08
2.44933e-08
-2.66646e-08
2.2215e-08
-2.30974e-08
2.02009e-08
-2.00624e-08
1.80534e-08
-1.70621e-08
1.60434e-08
-1.49153e-08
1.39621e-08
-1.22082e-08
1.20529e-08
-1.07717e-08
9.85936e-09
-8.67927e-09
7.76501e-09
-8.33198e-09
5.30876e-09
-6.44683e-09
2.59023e-09
-6.89197e-09
-2.54753e-10
-7.27351e-09
-2.17433e-09
-6.7386e-09
-2.97848e-09
-6.03731e-09
-2.55597e-09
-3.88356e-09
-1.36608e-09
-1.28013e-09
-3.6775e-10
6.77404e-10
3.71536e-10
1.67408e-09
7.91021e-10
2.29376e-09
6.84089e-10
2.92824e-09
2.959e-10
1.62415e-09
4.52174e-10
3.06642e-09
-2.71588e-10
5.89892e-09
-3.33334e-09
6.19679e-09
-1.56745e-09
3.15838e-09
1.08951e-09
8.70943e-10
3.28055e-08
-2.27517e-07
1.13345e-07
-7.88799e-08
1.04697e-07
-6.69315e-08
9.53562e-08
-5.75424e-08
8.59064e-08
-4.95651e-08
7.67144e-08
-4.31721e-08
6.79922e-08
-3.87715e-08
6.0398e-08
-3.4632e-08
5.43062e-08
-2.8727e-08
4.90468e-08
-2.3958e-08
4.38197e-08
-2.05777e-08
3.88049e-08
-1.77699e-08
3.43409e-08
-1.56573e-08
3.05678e-08
-1.34783e-08
2.75803e-08
-1.10407e-08
2.50807e-08
-8.83114e-09
2.28681e-08
-6.91354e-09
2.08384e-08
-5.40873e-09
1.90143e-08
-3.65131e-09
1.72314e-08
-2.61055e-09
1.53848e-08
-1.53979e-09
1.33961e-08
-1.10013e-09
1.13343e-08
-1.22133e-09
9.35156e-09
-1.08929e-09
7.68296e-09
-1.34132e-09
6.70292e-09
-1.14521e-09
6.58765e-09
1.09594e-09
6.66545e-09
2.34769e-09
6.38674e-09
3.77088e-09
5.69912e-09
4.47672e-09
4.55412e-09
4.20265e-09
3.59333e-09
3.95216e-09
2.89173e-09
3.74538e-09
2.09677e-09
3.40424e-09
1.29877e-09
3.5489e-09
7.1127e-10
1.64441e-09
8.60071e-10
8.98707e-10
4.09582e-09
-2.88529e-09
5.71837e-09
-1.51088e-09
4.64343e-09
1.56584e-09
2.2106e-09
9.17562e-10
1.28361e-07
-1.6571e-07
8.46832e-08
-2.99942e-08
7.24555e-08
-3.03562e-08
6.10065e-08
-2.99554e-08
5.20142e-08
-2.86293e-08
4.4955e-08
-2.6057e-08
3.90974e-08
-2.39418e-08
3.37465e-08
-2.22607e-08
2.88028e-08
-2.09707e-08
2.42295e-08
-2.06234e-08
2.02207e-08
-1.98043e-08
1.69839e-08
-1.8904e-08
1.45159e-08
-1.73584e-08
1.27496e-08
-1.52864e-08
1.15762e-08
-1.30107e-08
1.07702e-08
-1.03355e-08
1.02748e-08
-7.88085e-09
9.86872e-09
-5.43052e-09
9.62151e-09
-3.31228e-09
9.38904e-09
-1.44826e-09
9.29239e-09
6.27034e-11
9.1745e-09
1.58293e-09
9.07359e-09
2.41204e-09
8.69857e-09
3.46845e-09
8.20827e-09
3.34584e-09
7.3073e-09
4.25579e-09
5.93885e-09
3.45942e-09
4.27681e-09
2.39282e-09
2.99811e-09
2.02238e-09
2.38784e-09
1.60239e-09
2.37423e-09
2.29156e-09
2.50974e-09
2.88908e-09
2.40503e-09
2.91705e-09
2.14468e-09
2.64924e-09
1.7272e-09
3.37052e-09
1.54376e-09
2.43163e-09
6.17482e-10
1.99062e-09
-1.72329e-09
3.71159e-09
-6.21919e-11
4.52567e-09
2.054e-09
2.4902e-09
1.37347e-09
3.22883e-10
-2.34193e-08
-4.35549e-08
5.86877e-09
-3.72834e-08
1.8094e-08
-2.34581e-08
2.35856e-08
-1.55396e-08
2.53155e-08
-1.09186e-08
2.49992e-08
-7.94001e-09
2.3746e-08
-5.86733e-09
2.21579e-08
-4.18408e-09
2.05039e-08
-2.52861e-09
1.89805e-08
-1.42717e-09
1.78212e-08
4.07729e-10
1.73238e-08
2.59013e-09
1.75182e-08
5.35547e-09
1.83448e-08
9.15578e-09
1.95081e-08
1.23904e-08
2.05754e-08
1.59518e-08
2.13726e-08
1.80872e-08
2.16017e-08
1.99284e-08
2.12682e-08
2.0244e-08
2.03001e-08
1.98634e-08
1.88218e-08
1.85556e-08
1.69951e-08
1.65783e-08
1.49572e-08
1.46159e-08
1.29949e-08
1.2109e-08
1.12071e-08
1.05584e-08
9.85991e-09
8.58095e-09
9.2089e-09
7.98463e-09
9.17028e-09
8.63177e-09
9.16186e-09
8.70921e-09
8.55825e-09
8.58815e-09
7.33387e-09
7.32411e-09
5.71783e-09
5.59302e-09
4.18389e-09
4.1276e-09
2.78083e-09
2.9812e-09
2.05571e-09
3.45297e-09
1.74213e-09
1.6087e-09
1.09851e-09
5.28166e-10
1.51729e-09
1.00019e-09
2.31103e-09
1.39022e-09
1.27147e-09
7.06584e-10
2.6117e-10
4.08569e-16
)
;

boundaryField
{
    inlet
    {
        type            extrapolatedCalculated;
        value           nonuniform List<scalar> 
23
(
3.4871e-08
5.05426e-09
7.34566e-09
2.24614e-09
4.45621e-09
8.04357e-10
2.80036e-09
-3.2581e-11
1.90963e-09
-2.89075e-10
1.2602e-09
-4.32903e-10
8.56671e-10
-2.66368e-10
7.16566e-10
-3.22888e-11
7.91568e-10
2.7275e-10
7.32238e-10
8.70943e-10
9.17562e-10
3.22883e-10
4.08569e-16
)
;
    }
    outlet
    {
        type            extrapolatedCalculated;
        value           nonuniform List<scalar> 
82
(
-2.34193e-08
5.86877e-09
-4.35549e-08
-3.72834e-08
1.8094e-08
-2.34581e-08
2.35856e-08
-1.55396e-08
2.53155e-08
-1.09186e-08
2.49992e-08
-7.94001e-09
2.3746e-08
-5.86733e-09
2.21579e-08
-4.18408e-09
2.05039e-08
-2.52861e-09
1.89805e-08
-1.42717e-09
1.78212e-08
4.07729e-10
1.73238e-08
2.59013e-09
1.75182e-08
5.35547e-09
1.83448e-08
9.15578e-09
1.95081e-08
1.23904e-08
2.05754e-08
1.59518e-08
2.13726e-08
1.80872e-08
2.16017e-08
1.99284e-08
2.12682e-08
2.0244e-08
2.03001e-08
1.98634e-08
1.88218e-08
1.85556e-08
1.69951e-08
1.65783e-08
1.49572e-08
1.46159e-08
1.29949e-08
1.2109e-08
1.12071e-08
1.05584e-08
9.85991e-09
8.58095e-09
9.2089e-09
7.98463e-09
9.17028e-09
8.63177e-09
9.16186e-09
8.70921e-09
8.55825e-09
8.58815e-09
7.33387e-09
7.32411e-09
5.71783e-09
5.59302e-09
4.18389e-09
4.1276e-09
2.78083e-09
2.9812e-09
2.05571e-09
3.45297e-09
1.74213e-09
1.6087e-09
1.09851e-09
5.28166e-10
1.51729e-09
1.00019e-09
2.31103e-09
1.39022e-09
1.27147e-09
7.06584e-10
2.6117e-10
4.08569e-16
)
;
    }
    walls
    {
        type            extrapolatedCalculated;
        value           nonuniform List<scalar> 0();
    }
    frontAndBack
    {
        type            empty;
    }
    procBoundary3to2
    {
        type            processor;
        value           nonuniform List<scalar> 
88
(
1.71882e-09
5.2368e-09
-5.68975e-09
-3.42271e-09
-3.42271e-09
-2.81779e-09
-6.35546e-09
-6.35546e-09
-1.34601e-08
-7.56007e-09
-1.16387e-08
-1.16387e-08
-2.42883e-08
-6.89035e-09
-1.02388e-09
8.53766e-10
-1.92187e-08
-1.92187e-08
-1.62214e-08
1.30959e-08
3.41237e-09
1.92641e-08
-2.22462e-08
-2.22462e-08
4.21263e-09
-6.51464e-09
-5.03137e-09
-4.61606e-09
-2.14231e-08
3.2674e-08
-2.87081e-08
-2.87081e-08
8.36888e-08
2.35337e-08
6.71929e-08
1.04484e-08
4.6155e-08
8.09234e-09
3.45416e-08
6.75236e-09
2.26709e-08
9.16386e-09
1.32473e-08
6.07176e-09
6.07176e-09
-1.3918e-06
2.20493e-06
7.83262e-07
1.43748e-06
4.61056e-07
1.10743e-06
3.58794e-07
9.33359e-07
3.04821e-07
8.25477e-07
2.80064e-07
7.55148e-07
2.54558e-07
6.98002e-07
2.32868e-07
6.46962e-07
1.98092e-07
5.94638e-07
1.63309e-07
5.4433e-07
1.37552e-07
4.90853e-07
1.07013e-07
4.35559e-07
8.69683e-08
3.76031e-07
6.99304e-08
3.13654e-07
4.54512e-08
2.65346e-07
4.44549e-08
2.31538e-07
9.85659e-08
1.96067e-07
1.03281e-07
1.48381e-07
1.09525e-07
9.71972e-08
7.68256e-08
7.34892e-08
6.06619e-08
5.24249e-08
5.24249e-08
)
;
    }
    procBoundary3to6
    {
        type            processor;
        value           uniform 5.20881e-06;
    }
    procBoundary3to7
    {
        type            processor;
        value           nonuniform List<scalar> 
16
(
6.00344e-07
1.73658e-06
1.86402e-06
1.80711e-06
1.72515e-06
1.47434e-06
1.47822e-06
1.11501e-06
1.11501e-06
3.17329e-07
5.08966e-08
1.73494e-07
2.68303e-07
9.63883e-08
1.63922e-07
3.14702e-08
)
;
    }
}


// ************************************************************************* //
