/*--------------------------------*- C++ -*----------------------------------*\
| =========                 |                                                 |
| \\      /  F ield         | OpenFOAM: The Open Source CFD Toolbox           |
|  \\    /   O peration     | Version:  2506                                  |
|   \\  /    A nd           | Website:  www.openfoam.com                      |
|    \\/     M anipulation  |                                                 |
\*---------------------------------------------------------------------------*/
FoamFile
{
    version     2.0;
    format      ascii;
    arch        "LSB;label=32;scalar=64";
    class       volVectorField;
    location    "350";
    object      momentError;
}
// * * * * * * * * * * * * * * * * * * * * * * * * * * * * * * * * * * * * * //

dimensions      [0 1 -2 0 0 0 0];

internalField   nonuniform List<vector> 
1340
(
(-1.88342e-06 -6.01029e-07 6.04193e-16)
(-1.51222e-06 -3.63628e-06 -1.95211e-15)
(-2.12045e-06 -1.30556e-06 5.94298e-15)
(-2.20781e-06 -2.14053e-06 7.89927e-16)
(-2.01566e-06 -1.11056e-06 1.19898e-15)
(-1.47152e-06 -3.51845e-06 2.79428e-15)
(-2.14468e-06 -1.3807e-06 9.75825e-17)
(-2.13792e-06 -1.67251e-06 6.32732e-16)
(-2.3456e-06 -1.65691e-06 7.02429e-16)
(-2.22748e-06 -2.13575e-06 -3.92533e-16)
(-1.76054e-06 -5.41895e-07 -5.39276e-16)
(-1.35726e-06 -3.35099e-06 3.05663e-15)
(-2.59033e-06 -1.0779e-06 -1.32706e-15)
(-2.37313e-06 -1.16462e-06 2.76916e-15)
(-2.25649e-06 -1.35605e-06 8.46693e-18)
(-2.353e-06 -1.70277e-06 1.68366e-18)
(-2.21406e-06 -1.7416e-06 1.20549e-15)
(-2.03756e-06 -1.22697e-06 -4.17111e-15)
(-1.99252e-06 -1.90688e-06 -2.20934e-15)
(-1.70079e-06 -5.13271e-07 1.56425e-17)
(-1.19563e-06 -3.21269e-06 -5.43778e-15)
(-3.59125e-06 -6.16417e-07 2.16827e-16)
(-3.44559e-06 -8.37164e-07 -2.65783e-16)
(-3.18209e-06 -8.71612e-07 1.83287e-16)
(-2.91615e-06 -8.73598e-07 1.1216e-15)
(-2.78558e-06 -1.04162e-06 -4.12145e-16)
(-2.88763e-06 -1.48202e-06 2.70055e-15)
(-2.6474e-06 -1.55141e-06 -8.21336e-16)
(-2.33906e-06 -1.4941e-06 -1.39449e-15)
(-2.00951e-06 -1.26924e-06 -1.75782e-17)
(-1.96282e-06 -1.45187e-06 -1.83129e-16)
(-1.9417e-06 -1.19698e-06 2.71582e-15)
(-1.88225e-06 -1.83228e-06 1.5173e-15)
(-1.62276e-06 -4.55728e-07 3.03883e-18)
(-1.07375e-06 -3.08647e-06 4.39414e-16)
(-5.58947e-06 -8.47905e-07 -9.60107e-16)
(-5.09935e-06 -7.1732e-07 2.21614e-16)
(-4.61126e-06 -6.43786e-07 3.47369e-16)
(-4.17655e-06 -5.49037e-07 1.11306e-15)
(-3.92946e-06 -6.64155e-07 1.02633e-15)
(-4.0213e-06 -1.10125e-06 -3.98614e-16)
(-3.94718e-06 -1.38609e-06 -6.26382e-16)
(-3.62447e-06 -1.39175e-06 -5.66762e-16)
(-3.32708e-06 -1.40095e-06 1.68761e-15)
(-2.92019e-06 -1.25806e-06 -1.11347e-16)
(-2.45792e-06 -1.01017e-06 -6.81573e-16)
(-2.26504e-06 -1.10981e-06 8.58188e-16)
(-2.06461e-06 -1.19671e-06 -6.31165e-16)
(-1.93394e-06 -1.24336e-06 1.51704e-17)
(-1.85496e-06 -1.39785e-06 -1.63049e-16)
(-1.86631e-06 -1.13124e-06 6.20638e-16)
(-1.78743e-06 -1.74057e-06 7.21142e-16)
(-1.54808e-06 -4.25085e-07 2.62404e-17)
(-9.52953e-07 -2.96877e-06 -2.31081e-16)
(-9.50214e-06 -2.03537e-06 4.63432e-16)
(-8.8621e-06 -1.83435e-06 8.07207e-16)
(-8.25738e-06 -1.71453e-06 9.94128e-16)
(-7.68401e-06 -1.63145e-06 -2.56772e-16)
(-7.12931e-06 -1.58987e-06 7.71661e-16)
(-6.55677e-06 -1.4225e-06 -7.49353e-16)
(-6.20598e-06 -1.40081e-06 -2.28983e-15)
(-6.38302e-06 -1.75944e-06 -1.15919e-15)
(-5.78496e-06 -1.50145e-06 6.27355e-16)
(-5.26857e-06 -1.36851e-06 1.01971e-16)
(-4.78757e-06 -1.26994e-06 1.45321e-15)
(-4.19953e-06 -1.01025e-06 -2.24418e-16)
(-3.52483e-06 -6.35344e-07 -5.21494e-17)
(-3.35594e-06 -8.0283e-07 8.04832e-17)
(-3.08658e-06 -8.2913e-07 -5.61843e-17)
(-2.83668e-06 -8.6203e-07 -5.3997e-16)
(-2.57631e-06 -9.17621e-07 1.07566e-15)
(-2.35476e-06 -1.04864e-06 -9.69812e-16)
(-2.16723e-06 -1.1229e-06 1.23374e-16)
(-1.98468e-06 -1.18499e-06 1.72688e-15)
(-1.86548e-06 -1.18613e-06 -3.73573e-17)
(-1.78256e-06 -1.33304e-06 1.70592e-16)
(-1.79262e-06 -1.08769e-06 -1.40746e-15)
(-1.69759e-06 -1.66101e-06 -1.67638e-15)
(-1.47046e-06 -4.00185e-07 -2.11113e-17)
(-8.43022e-07 -2.85848e-06 6.30191e-16)
(-1.69819e-05 -6.28284e-06 -2.39429e-16)
(-1.62929e-05 -5.8927e-06 2.68132e-16)
(-1.56278e-05 -5.58189e-06 -1.10569e-16)
(-1.49494e-05 -5.26363e-06 -2.15858e-16)
(-1.42873e-05 -4.94713e-06 7.03312e-16)
(-1.36175e-05 -4.62228e-06 -5.63959e-16)
(-1.29593e-05 -4.29585e-06 9.91887e-17)
(-1.22922e-05 -3.96421e-06 6.16061e-16)
(-1.16405e-05 -3.64524e-06 -6.1472e-16)
(-1.09872e-05 -3.33612e-06 -1.85824e-15)
(-1.02528e-05 -2.91745e-06 3.37792e-17)
(-9.94998e-06 -2.71714e-06 -3.54448e-16)
(-1.03004e-05 -3.23098e-06 3.28162e-16)
(-9.61378e-06 -2.97535e-06 3.45023e-16)
(-8.93987e-06 -2.75702e-06 -1.00432e-16)
(-8.35181e-06 -2.64038e-06 -2.23444e-16)
(-7.76233e-06 -2.49101e-06 7.12619e-16)
(-7.24628e-06 -2.39442e-06 -2.74359e-16)
(-6.4873e-06 -1.94878e-06 -4.00493e-16)
(-5.6472e-06 -1.16593e-06 3.3028e-16)
(-5.14053e-06 -1.01949e-06 -1.00447e-15)
(-4.67615e-06 -8.63701e-07 6.39825e-16)
(-4.2505e-06 -7.59105e-07 -3.79401e-16)
(-3.81042e-06 -7.26925e-07 -5.2133e-16)
(-3.40964e-06 -8.3905e-07 2.87812e-16)
(-3.24508e-06 -9.69415e-07 2.01578e-16)
(-2.97632e-06 -9.6104e-07 4.20747e-16)
(-2.74217e-06 -9.72284e-07 -4.56536e-16)
(-2.49551e-06 -9.81133e-07 -7.81209e-16)
(-2.29242e-06 -1.03699e-06 2.68947e-16)
(-2.10294e-06 -1.10085e-06 4.30368e-17)
(-1.92348e-06 -1.15733e-06 -1.72231e-16)
(-1.80189e-06 -1.15706e-06 1.24174e-17)
(-1.71302e-06 -1.28299e-06 -1.38838e-16)
(-1.72122e-06 -1.04705e-06 2.83393e-15)
(-1.61074e-06 -1.58843e-06 -1.33362e-16)
(-1.39334e-06 -3.86419e-07 2.68179e-16)
(-7.39682e-07 -2.75331e-06 -9.54553e-17)
(-0.000117549 -2.30439e-05 -7.58975e-17)
(-0.000120285 -2.50738e-05 -2.39091e-17)
(-0.000117469 -2.38652e-05 -2.7699e-18)
(-0.000114316 -2.28456e-05 -2.61482e-17)
(-0.000110998 -2.19008e-05 -1.1765e-17)
(-0.000107523 -2.09884e-05 -8.89357e-18)
(-0.000103914 -2.01544e-05 2.48411e-17)
(-0.000100164 -1.9377e-05 6.7207e-17)
(-9.6333e-05 -1.86582e-05 -2.8944e-17)
(-9.24136e-05 -1.79608e-05 -5.41112e-17)
(-8.84807e-05 -1.73062e-05 2.53314e-17)
(-8.45116e-05 -1.66851e-05 -5.02871e-17)
(-8.05865e-05 -1.61141e-05 -6.09863e-17)
(-7.6685e-05 -1.55653e-05 -5.36839e-17)
(-7.2879e-05 -1.50527e-05 -1.08111e-16)
(-6.9142e-05 -1.45748e-05 -1.02441e-17)
(-6.55385e-05 -1.41287e-05 -8.98321e-17)
(-6.20377e-05 -1.37117e-05 -5.33913e-17)
(-5.87014e-05 -1.3319e-05 -1.20529e-16)
(-5.54848e-05 -1.29639e-05 -1.00089e-17)
(-5.24518e-05 -1.26389e-05 1.40519e-16)
(-4.95434e-05 -1.23341e-05 1.41586e-16)
(-4.68171e-05 -1.20362e-05 -8.45813e-17)
(-4.42108e-05 -1.17685e-05 5.85553e-17)
(-4.1784e-05 -1.15222e-05 1.26198e-16)
(-3.94677e-05 -1.12841e-05 1.14908e-17)
(-3.7324e-05 -1.10385e-05 -1.07154e-16)
(-3.52831e-05 -1.08062e-05 -7.39831e-18)
(-3.3403e-05 -1.05924e-05 2.56474e-17)
(-3.16125e-05 -1.03849e-05 -1.19022e-17)
(-2.99685e-05 -1.01614e-05 -9.52231e-17)
(-2.84097e-05 -9.94683e-06 8.13064e-17)
(-2.69822e-05 -9.7394e-06 -2.40979e-16)
(-2.56264e-05 -9.49639e-06 -9.3392e-17)
(-2.43945e-05 -9.26978e-06 1.70049e-16)
(-2.32303e-05 -9.02779e-06 3.13019e-17)
(-2.21662e-05 -8.78551e-06 2.10396e-17)
(-2.11602e-05 -8.52416e-06 -3.25545e-17)
(-2.0213e-05 -8.26365e-06 4.52562e-17)
(-1.93526e-05 -8.0297e-06 2.55559e-16)
(-1.8543e-05 -7.78742e-06 -9.47111e-17)
(-1.74507e-05 -7.3757e-06 2.14532e-18)
(-1.73918e-05 -7.06295e-06 1.81481e-17)
(-1.81013e-05 -7.53343e-06 -1.5101e-16)
(-1.72025e-05 -7.15486e-06 7.08144e-16)
(-1.64299e-05 -6.8572e-06 1.44948e-17)
(-1.56636e-05 -6.54831e-06 -6.57246e-16)
(-1.49452e-05 -6.22662e-06 5.9878e-16)
(-1.4227e-05 -5.89446e-06 3.82721e-16)
(-1.35513e-05 -5.56076e-06 -7.98557e-17)
(-1.28616e-05 -5.21705e-06 9.91235e-18)
(-1.22115e-05 -4.87524e-06 -6.37503e-16)
(-1.15708e-05 -4.55413e-06 -1.00417e-15)
(-1.0929e-05 -4.25219e-06 -6.10083e-17)
(-1.00105e-05 -3.61557e-06 -2.14386e-16)
(-9.03082e-06 -2.58493e-06 3.17225e-16)
(-8.44682e-06 -2.34587e-06 -7.38515e-17)
(-7.88319e-06 -2.1405e-06 -1.43825e-15)
(-7.33454e-06 -1.96935e-06 -4.97862e-17)
(-6.8601e-06 -1.86243e-06 4.51509e-16)
(-6.36628e-06 -1.72799e-06 2.13339e-16)
(-5.86266e-06 -1.59764e-06 5.0127e-16)
(-5.35233e-06 -1.53451e-06 4.15978e-16)
(-4.94372e-06 -1.35853e-06 6.61511e-16)
(-4.52651e-06 -1.18953e-06 1.12122e-15)
(-4.12215e-06 -1.05653e-06 2.59639e-17)
(-3.7115e-06 -9.66775e-07 1.34373e-16)
(-3.36055e-06 -9.40585e-07 -1.8061e-16)
(-3.18675e-06 -1.0487e-06 -1.64921e-16)
(-2.92964e-06 -1.02136e-06 8.42945e-16)
(-2.69606e-06 -1.0032e-06 -6.83931e-16)
(-2.4515e-06 -1.01459e-06 -4.30292e-17)
(-2.23543e-06 -1.06303e-06 -5.80672e-16)
(-2.04046e-06 -1.10785e-06 7.62755e-16)
(-1.86309e-06 -1.14736e-06 -3.18071e-16)
(-1.7388e-06 -1.13071e-06 4.24004e-17)
(-1.64552e-06 -1.24203e-06 8.82621e-17)
(-1.65064e-06 -1.01969e-06 -1.91259e-15)
(-1.52606e-06 -1.52138e-06 7.61476e-16)
(-1.31571e-06 -3.77214e-07 1.79984e-16)
(-6.42475e-07 -2.65248e-06 6.72531e-18)
(-9.13982e-05 -2.95537e-05 -1.36786e-17)
(-9.31616e-05 -3.04531e-05 -9.72043e-18)
(-9.08587e-05 -2.92114e-05 8.61547e-18)
(-8.8671e-05 -2.80808e-05 -1.06464e-18)
(-8.6544e-05 -2.69473e-05 -1.19111e-17)
(-8.4403e-05 -2.58862e-05 3.79037e-17)
(-8.22342e-05 -2.48867e-05 1.29765e-17)
(-8.00033e-05 -2.39446e-05 -1.01026e-17)
(-7.7715e-05 -2.30359e-05 3.17914e-17)
(-7.53501e-05 -2.21768e-05 -4.03428e-18)
(-7.29335e-05 -2.1355e-05 3.44932e-17)
(-7.04503e-05 -2.05917e-05 5.52086e-17)
(-6.79364e-05 -1.98609e-05 -3.68553e-17)
(-6.53853e-05 -1.91823e-05 4.63759e-17)
(-6.28324e-05 -1.85236e-05 -2.80659e-17)
(-6.02751e-05 -1.79185e-05 -9.07829e-17)
(-5.7746e-05 -1.73303e-05 -6.60422e-18)
(-5.52438e-05 -1.67894e-05 2.18918e-17)
(-5.28012e-05 -1.62553e-05 1.85437e-17)
(-5.04065e-05 -1.5767e-05 -2.3442e-17)
(-4.8094e-05 -1.52934e-05 -1.04085e-17)
(-4.58463e-05 -1.48652e-05 -3.38879e-18)
(-4.36908e-05 -1.44345e-05 -2.54955e-17)
(-4.16065e-05 -1.40423e-05 -4.17461e-17)
(-3.9624e-05 -1.36609e-05 1.26993e-17)
(-3.77192e-05 -1.33176e-05 5.61271e-17)
(-3.59179e-05 -1.2958e-05 -4.90697e-17)
(-3.41909e-05 -1.26244e-05 4.72335e-17)
(-3.25634e-05 -1.22907e-05 -2.22829e-17)
(-3.10053e-05 -1.19876e-05 4.61996e-17)
(-2.95411e-05 -1.16531e-05 -1.09879e-16)
(-2.81372e-05 -1.1343e-05 -1.16792e-16)
(-2.68212e-05 -1.10308e-05 -8.71542e-18)
(-2.55614e-05 -1.07342e-05 -1.9806e-16)
(-2.43795e-05 -1.03908e-05 -2.37239e-17)
(-2.32518e-05 -1.00834e-05 8.08374e-17)
(-2.21911e-05 -9.75545e-06 3.98083e-17)
(-2.11784e-05 -9.46472e-06 3.12123e-17)
(-2.02189e-05 -9.15636e-06 6.15737e-17)
(-1.92926e-05 -8.86673e-06 1.89239e-16)
(-1.8517e-05 -8.62575e-06 -1.58086e-17)
(-1.76816e-05 -8.38003e-06 -1.31162e-16)
(-1.63108e-05 -7.87964e-06 1.17856e-16)
(-1.53062e-05 -7.00872e-06 -2.65792e-16)
(-1.46549e-05 -6.6386e-06 -4.51935e-16)
(-1.39949e-05 -6.24588e-06 2.55284e-17)
(-1.33615e-05 -5.86106e-06 1.9877e-16)
(-1.27563e-05 -5.48981e-06 -2.8954e-16)
(-1.21684e-05 -5.11973e-06 2.64916e-16)
(-1.16027e-05 -4.76247e-06 1.16696e-16)
(-1.10436e-05 -4.41338e-06 2.15984e-16)
(-1.05045e-05 -4.07602e-06 4.97955e-16)
(-9.97652e-06 -3.76045e-06 5.40891e-16)
(-9.46872e-06 -3.48306e-06 -2.29378e-17)
(-8.75409e-06 -3.18135e-06 -4.92016e-17)
(-8.0967e-06 -3.03634e-06 1.6646e-16)
(-7.62706e-06 -2.78531e-06 1.84749e-16)
(-7.19493e-06 -2.56141e-06 1.12644e-15)
(-6.7492e-06 -2.37356e-06 1.56591e-17)
(-6.34871e-06 -2.20508e-06 -1.05773e-15)
(-5.95928e-06 -2.06714e-06 1.09744e-16)
(-5.54153e-06 -1.86685e-06 -5.13564e-16)
(-5.18562e-06 -1.68958e-06 -2.63691e-16)
(-4.79971e-06 -1.52896e-06 9.40239e-19)
(-4.41518e-06 -1.37259e-06 -9.20673e-16)
(-4.04165e-06 -1.22787e-06 1.03944e-16)
(-3.64683e-06 -1.12203e-06 5.71412e-17)
(-3.31381e-06 -1.10342e-06 -1.02331e-17)
(-3.13316e-06 -1.15766e-06 1.32817e-16)
(-2.89087e-06 -1.10531e-06 -4.40664e-16)
(-2.6467e-06 -1.08548e-06 2.13094e-16)
(-2.40507e-06 -1.08028e-06 1.08505e-16)
(-2.18042e-06 -1.10269e-06 4.22972e-17)
(-1.97756e-06 -1.12368e-06 -1.82665e-15)
(-1.80116e-06 -1.1452e-06 -5.39311e-16)
(-1.67395e-06 -1.12192e-06 -1.50453e-17)
(-1.57943e-06 -1.20985e-06 3.64607e-17)
(-1.58066e-06 -9.95754e-07 -1.43931e-15)
(-1.44439e-06 -1.46147e-06 4.97149e-16)
(-1.23769e-06 -3.75515e-07 -4.05492e-16)
(-5.4929e-07 -2.55362e-06 1.07393e-17)
(-7.9002e-05 -3.65683e-05 -1.24932e-17)
(-7.88377e-05 -3.65712e-05 -5.10738e-18)
(-7.56515e-05 -3.45779e-05 1.23602e-17)
(-7.28467e-05 -3.288e-05 8.18555e-18)
(-7.03351e-05 -3.12583e-05 -3.79475e-18)
(-6.80464e-05 -2.97364e-05 -3.6572e-18)
(-6.5908e-05 -2.83017e-05 1.39263e-17)
(-6.38831e-05 -2.69541e-05 -1.00199e-17)
(-6.19113e-05 -2.56853e-05 -3.13389e-18)
(-5.99805e-05 -2.44889e-05 1.54874e-17)
(-5.80547e-05 -2.33605e-05 -1.89765e-18)
(-5.61307e-05 -2.2313e-05 2.28304e-17)
(-5.41923e-05 -2.13364e-05 2.06516e-17)
(-5.22508e-05 -2.04252e-05 -1.27992e-17)
(-5.02938e-05 -1.95678e-05 3.66139e-17)
(-4.83428e-05 -1.87726e-05 -1.04082e-17)
(-4.63884e-05 -1.80271e-05 -2.52517e-17)
(-4.44584e-05 -1.73354e-05 3.1207e-17)
(-4.25438e-05 -1.66834e-05 1.58727e-17)
(-4.06694e-05 -1.60778e-05 2.34984e-18)
(-3.88263e-05 -1.55054e-05 -9.73992e-18)
(-3.70406e-05 -1.49776e-05 -6.92531e-17)
(-3.52997e-05 -1.44804e-05 3.68165e-18)
(-3.36308e-05 -1.40213e-05 -3.64951e-17)
(-3.20186e-05 -1.35809e-05 -1.08967e-17)
(-3.04894e-05 -1.31799e-05 1.85255e-17)
(-2.90245e-05 -1.28023e-05 3.52126e-17)
(-2.76436e-05 -1.24504e-05 3.40957e-18)
(-2.63253e-05 -1.20971e-05 8.42056e-18)
(-2.50885e-05 -1.17705e-05 -1.0955e-17)
(-2.39138e-05 -1.14573e-05 2.80959e-17)
(-2.28138e-05 -1.115e-05 -5.90559e-17)
(-2.1768e-05 -1.082e-05 -1.41003e-17)
(-2.07912e-05 -1.05186e-05 3.87808e-17)
(-1.98649e-05 -1.0188e-05 -1.15773e-16)
(-1.8985e-05 -9.85568e-06 -6.01365e-17)
(-1.81485e-05 -9.50678e-06 2.0795e-17)
(-1.73514e-05 -9.16118e-06 -1.70309e-17)
(-1.65974e-05 -8.78526e-06 -3.33299e-17)
(-1.58638e-05 -8.41509e-06 -5.14359e-17)
(-1.52198e-05 -8.05787e-06 3.91608e-17)
(-1.45975e-05 -7.72122e-06 -4.01262e-17)
(-1.35989e-05 -7.25391e-06 -1.14851e-16)
(-1.26013e-05 -6.88962e-06 4.64884e-17)
(-1.20769e-05 -6.53004e-06 -2.3836e-16)
(-1.15821e-05 -6.17825e-06 3.17779e-19)
(-1.11203e-05 -5.83371e-06 1.47453e-17)
(-1.06724e-05 -5.50287e-06 1.70976e-16)
(-1.02513e-05 -5.17848e-06 -3.33635e-16)
(-9.83242e-06 -4.86577e-06 1.43843e-19)
(-9.43444e-06 -4.56139e-06 3.58351e-16)
(-9.03265e-06 -4.26196e-06 -1.18644e-16)
(-8.65586e-06 -3.97543e-06 4.96347e-16)
(-8.2708e-06 -3.70793e-06 2.98464e-17)
(-7.83828e-06 -3.40238e-06 -6.52494e-17)
(-7.48882e-06 -3.1289e-06 -6.43371e-17)
(-7.11642e-06 -2.90392e-06 -4.20649e-18)
(-6.73278e-06 -2.68925e-06 -6.34372e-16)
(-6.3672e-06 -2.49873e-06 2.19458e-16)
(-6.00154e-06 -2.32395e-06 6.0709e-16)
(-5.65697e-06 -2.17122e-06 -1.34394e-16)
(-5.28314e-06 -2.0021e-06 1.00795e-15)
(-4.93997e-06 -1.85444e-06 1.48847e-17)
(-4.59945e-06 -1.71338e-06 -1.84775e-16)
(-4.2614e-06 -1.55075e-06 -2.21807e-16)
(-3.91798e-06 -1.41907e-06 -2.70742e-16)
(-3.56563e-06 -1.3105e-06 5.21089e-16)
(-3.24128e-06 -1.23744e-06 1.23192e-16)
(-3.08373e-06 -1.2835e-06 2.62867e-16)
(-2.82263e-06 -1.21207e-06 -4.81905e-16)
(-2.58834e-06 -1.17601e-06 1.51518e-16)
(-2.34003e-06 -1.15606e-06 -1.12316e-16)
(-2.11276e-06 -1.16177e-06 -1.17105e-15)
(-1.91422e-06 -1.15609e-06 -3.83458e-16)
(-1.73707e-06 -1.15353e-06 1.39208e-16)
(-1.60856e-06 -1.11585e-06 9.83217e-18)
(-1.51191e-06 -1.18685e-06 1.81981e-16)
(-1.51061e-06 -9.84328e-07 2.68104e-16)
(-1.36531e-06 -1.40576e-06 -8.99764e-16)
(-1.16106e-06 -3.75953e-07 -2.02943e-16)
(-4.577e-07 -2.45621e-06 -5.13739e-16)
(-7.69064e-05 -3.93312e-05 6.81401e-18)
(-7.47847e-05 -4.01527e-05 -2.0241e-18)
(-7.0078e-05 -3.83727e-05 -9.00947e-18)
(-6.60511e-05 -3.66395e-05 -2.64012e-18)
(-6.25744e-05 -3.4923e-05 5.94512e-18)
(-5.95634e-05 -3.32461e-05 -2.58401e-19)
(-5.69289e-05 -3.16148e-05 -4.50361e-18)
(-5.4597e-05 -3.00536e-05 1.85907e-18)
(-5.24957e-05 -2.85715e-05 -2.01602e-17)
(-5.05729e-05 -2.71619e-05 -1.31705e-17)
(-4.87817e-05 -2.58213e-05 -1.0166e-17)
(-4.70802e-05 -2.45517e-05 -1.96633e-18)
(-4.5443e-05 -2.33591e-05 2.68152e-17)
(-4.38487e-05 -2.22304e-05 -7.72994e-18)
(-4.22803e-05 -2.11615e-05 -3.10224e-17)
(-4.07296e-05 -2.01533e-05 1.47813e-17)
(-3.91882e-05 -1.92063e-05 -1.00233e-17)
(-3.76579e-05 -1.83154e-05 -4.74095e-17)
(-3.61356e-05 -1.74748e-05 -6.82417e-18)
(-3.4626e-05 -1.66875e-05 -5.629e-19)
(-3.31312e-05 -1.59488e-05 4.05293e-17)
(-3.1659e-05 -1.52593e-05 5.26172e-17)
(-3.02125e-05 -1.46097e-05 5.02348e-18)
(-2.88033e-05 -1.40084e-05 1.90155e-17)
(-2.7433e-05 -1.34424e-05 -3.24858e-19)
(-2.61106e-05 -1.29184e-05 3.36118e-17)
(-2.48358e-05 -1.24241e-05 -1.49574e-17)
(-2.36168e-05 -1.19709e-05 -3.48653e-18)
(-2.24496e-05 -1.15363e-05 -2.17767e-18)
(-2.134e-05 -1.1134e-05 7.36889e-18)
(-2.02869e-05 -1.07475e-05 -2.85223e-18)
(-1.92962e-05 -1.03997e-05 2.8886e-17)
(-1.83583e-05 -1.00505e-05 -3.88782e-19)
(-1.74768e-05 -9.71752e-06 8.23052e-19)
(-1.66505e-05 -9.41263e-06 2.12052e-17)
(-1.58724e-05 -9.12359e-06 7.08716e-17)
(-1.51406e-05 -8.81387e-06 -4.42173e-17)
(-1.44544e-05 -8.51391e-06 -2.93858e-18)
(-1.3817e-05 -8.20445e-06 4.89806e-17)
(-1.32075e-05 -7.88601e-06 4.60856e-18)
(-1.26661e-05 -7.55861e-06 -8.50649e-17)
(-1.2167e-05 -7.24592e-06 3.69106e-17)
(-1.15662e-05 -6.86159e-06 7.77347e-17)
(-1.11885e-05 -6.54044e-06 2.01317e-16)
(-1.07684e-05 -6.20613e-06 2.11857e-16)
(-1.03633e-05 -5.88373e-06 4.92825e-17)
(-9.98099e-06 -5.56459e-06 -7.55866e-18)
(-9.61378e-06 -5.26323e-06 -1.04041e-16)
(-9.26221e-06 -4.96823e-06 1.1992e-16)
(-8.91818e-06 -4.68788e-06 -5.44734e-17)
(-8.5849e-06 -4.41605e-06 -2.7738e-16)
(-8.25588e-06 -4.15482e-06 -1.76946e-16)
(-7.93453e-06 -3.90239e-06 -7.99244e-17)
(-7.61351e-06 -3.66828e-06 -4.79452e-17)
(-7.2353e-06 -3.41513e-06 4.23737e-17)
(-6.90523e-06 -3.19758e-06 -4.06208e-16)
(-6.58138e-06 -2.98918e-06 -1.92461e-16)
(-6.26098e-06 -2.79234e-06 -2.25985e-16)
(-5.93962e-06 -2.61215e-06 -5.52822e-16)
(-5.62317e-06 -2.44157e-06 1.25396e-16)
(-5.31148e-06 -2.28961e-06 -1.40624e-16)
(-4.98354e-06 -2.12831e-06 -5.43852e-16)
(-4.67814e-06 -1.98779e-06 5.71131e-16)
(-4.37096e-06 -1.84118e-06 7.14562e-16)
(-4.07015e-06 -1.71063e-06 -1.12857e-16)
(-3.75218e-06 -1.5765e-06 -3.33e-16)
(-3.44168e-06 -1.46548e-06 -7.97783e-18)
(-3.13876e-06 -1.38508e-06 -6.46383e-17)
(-2.97817e-06 -1.40124e-06 1.59072e-16)
(-2.73471e-06 -1.32515e-06 1.2766e-16)
(-2.49461e-06 -1.27492e-06 1.04697e-16)
(-2.25806e-06 -1.2504e-06 3.01832e-16)
(-2.04405e-06 -1.22015e-06 5.75323e-16)
(-1.85227e-06 -1.19042e-06 2.44261e-16)
(-1.67533e-06 -1.17219e-06 5.51233e-17)
(-1.54201e-06 -1.12725e-06 -1.39373e-16)
(-1.4495e-06 -1.1718e-06 -9.72144e-16)
(-1.44462e-06 -9.72404e-07 4.26293e-16)
(-1.28888e-06 -1.35415e-06 4.60133e-16)
(-1.08579e-06 -3.83208e-07 6.12597e-16)
(-3.68009e-07 -2.36085e-06 1.88952e-15)
(-8.23526e-05 -3.92977e-05 4.92264e-19)
(-7.84775e-05 -3.98476e-05 1.82269e-18)
(-7.18866e-05 -3.78276e-05 6.03236e-18)
(-6.61825e-05 -3.59307e-05 1.81898e-18)
(-6.1219e-05 -3.4132e-05 -3.2428e-18)
(-5.69276e-05 -3.24189e-05 -1.44206e-18)
(-5.32147e-05 -3.07916e-05 -2.46197e-19)
(-5.00024e-05 -2.92489e-05 -6.65863e-20)
(-4.72081e-05 -2.77844e-05 3.03703e-20)
(-4.47651e-05 -2.64088e-05 -8.03833e-18)
(-4.26113e-05 -2.51135e-05 9.68532e-18)
(-4.06871e-05 -2.38855e-05 -7.07765e-18)
(-3.89479e-05 -2.27204e-05 -1.72614e-17)
(-3.73539e-05 -2.16247e-05 -1.03247e-17)
(-3.58692e-05 -2.05921e-05 -3.77257e-18)
(-3.44699e-05 -1.96137e-05 3.27447e-18)
(-3.3131e-05 -1.86846e-05 1.41368e-18)
(-3.1841e-05 -1.78077e-05 -1.21932e-17)
(-3.05838e-05 -1.69776e-05 -1.80773e-17)
(-2.93554e-05 -1.61893e-05 -4.8958e-18)
(-2.81493e-05 -1.54419e-05 3.11679e-18)
(-2.69676e-05 -1.47345e-05 1.95885e-17)
(-2.5807e-05 -1.40632e-05 -2.73374e-17)
(-2.4675e-05 -1.34291e-05 6.02877e-18)
(-2.35687e-05 -1.28316e-05 -2.23591e-17)
(-2.24963e-05 -1.2273e-05 1.23675e-17)
(-2.14555e-05 -1.17471e-05 3.37567e-17)
(-2.04538e-05 -1.1258e-05 -2.5996e-17)
(-1.94872e-05 -1.0802e-05 -4.72232e-17)
(-1.85641e-05 -1.03818e-05 -1.33389e-17)
(-1.76836e-05 -9.98875e-06 9.92155e-17)
(-1.68523e-05 -9.62634e-06 6.59258e-17)
(-1.60625e-05 -9.28808e-06 5.49452e-17)
(-1.53185e-05 -8.9744e-06 -4.93546e-19)
(-1.46158e-05 -8.65339e-06 -5.80165e-17)
(-1.39585e-05 -8.35265e-06 -6.42606e-17)
(-1.33377e-05 -8.04636e-06 4.878e-17)
(-1.27551e-05 -7.74382e-06 -2.02074e-17)
(-1.22157e-05 -7.43554e-06 -6.40261e-17)
(-1.17072e-05 -7.13945e-06 4.97899e-17)
(-1.12385e-05 -6.83263e-06 -1.32376e-17)
(-1.08086e-05 -6.54101e-06 2.98546e-19)
(-1.03104e-05 -6.22381e-06 -3.8348e-17)
(-9.9086e-06 -5.94431e-06 3.23658e-18)
(-9.54748e-06 -5.65687e-06 -1.7268e-16)
(-9.20433e-06 -5.38675e-06 -1.14775e-16)
(-8.88001e-06 -5.12124e-06 -2.42479e-17)
(-8.56784e-06 -4.87333e-06 -2.30173e-16)
(-8.26655e-06 -4.62933e-06 -1.81444e-16)
(-7.9702e-06 -4.40068e-06 -5.94189e-17)
(-7.68195e-06 -4.17758e-06 -1.63995e-16)
(-7.39567e-06 -3.96601e-06 1.18354e-16)
(-7.11462e-06 -3.75961e-06 -3.20104e-16)
(-6.8331e-06 -3.56782e-06 -4.5252e-17)
(-6.51788e-06 -3.36075e-06 2.14052e-16)
(-6.23379e-06 -3.17236e-06 4.19982e-17)
(-5.94854e-06 -2.99371e-06 -1.03342e-16)
(-5.6638e-06 -2.81993e-06 9.20949e-16)
(-5.38053e-06 -2.65789e-06 5.3632e-17)
(-5.10024e-06 -2.50182e-06 -7.88608e-16)
(-4.82327e-06 -2.35849e-06 1.93117e-16)
(-4.53587e-06 -2.21172e-06 -6.62662e-16)
(-4.26334e-06 -2.0779e-06 -3.64875e-17)
(-3.9959e-06 -1.95307e-06 8.00476e-17)
(-3.72239e-06 -1.82482e-06 -1.7226e-15)
(-3.4597e-06 -1.71479e-06 4.28766e-17)
(-3.17357e-06 -1.60606e-06 7.87309e-17)
(-2.92271e-06 -1.51884e-06 -2.46912e-16)
(-2.78102e-06 -1.52521e-06 3.22982e-16)
(-2.55061e-06 -1.44406e-06 -2.28357e-17)
(-2.33555e-06 -1.39052e-06 1.06679e-16)
(-2.12476e-06 -1.33318e-06 -7.12176e-16)
(-1.93661e-06 -1.29237e-06 -6.83243e-16)
(-1.7507e-06 -1.24656e-06 6.13222e-17)
(-1.58828e-06 -1.21341e-06 -5.03122e-17)
(-1.46372e-06 -1.15099e-06 1.24009e-16)
(-1.38337e-06 -1.17465e-06 -6.68427e-16)
(-1.3787e-06 -9.85762e-07 8.53202e-17)
(-1.20419e-06 -1.31461e-06 -6.87687e-16)
(-1.01355e-06 -4.02351e-07 -8.15978e-17)
(-2.6247e-07 -2.27532e-06 1.45425e-15)
(-9.02254e-05 -3.00275e-05 2.71343e-18)
(-8.52476e-05 -3.04984e-05 4.04554e-18)
(-7.7055e-05 -2.91416e-05 -1.01347e-18)
(-6.97504e-05 -2.78322e-05 1.98586e-18)
(-6.32195e-05 -2.66373e-05 1.75282e-18)
(-5.74369e-05 -2.54751e-05 -1.57978e-17)
(-5.23464e-05 -2.43681e-05 -9.37452e-18)
(-4.78873e-05 -2.3293e-05 -3.4318e-18)
(-4.39916e-05 -2.22488e-05 -1.05429e-18)
(-4.06016e-05 -2.12411e-05 4.03015e-18)
(-3.76496e-05 -2.02709e-05 -9.11095e-18)
(-3.50754e-05 -1.93289e-05 1.24158e-17)
(-3.28253e-05 -1.84205e-05 2.13773e-18)
(-3.08456e-05 -1.75407e-05 7.63948e-18)
(-2.90914e-05 -1.66967e-05 1.90297e-17)
(-2.7523e-05 -1.58826e-05 1.71586e-17)
(-2.61041e-05 -1.51022e-05 1.49354e-17)
(-2.48049e-05 -1.43489e-05 5.8376e-18)
(-2.36053e-05 -1.36327e-05 2.60919e-17)
(-2.24812e-05 -1.29446e-05 -1.29583e-17)
(-2.14228e-05 -1.22891e-05 -3.83794e-17)
(-2.04154e-05 -1.16628e-05 -8.38715e-18)
(-1.94523e-05 -1.10669e-05 -2.42081e-18)
(-1.85293e-05 -1.05023e-05 -1.11167e-17)
(-1.76409e-05 -9.96628e-06 -8.53653e-18)
(-1.67843e-05 -9.46018e-06 -2.84766e-17)
(-1.59596e-05 -8.98322e-06 -5.44115e-18)
(-1.51677e-05 -8.53874e-06 -1.47127e-18)
(-1.4408e-05 -8.12244e-06 3.04905e-17)
(-1.36827e-05 -7.73772e-06 -9.34082e-18)
(-1.29917e-05 -7.38016e-06 1.04567e-17)
(-1.23398e-05 -7.05602e-06 3.18318e-17)
(-1.17212e-05 -6.7549e-06 2.61916e-17)
(-1.11407e-05 -6.48026e-06 6.96843e-17)
(-1.0595e-05 -6.22744e-06 5.22326e-18)
(-1.0084e-05 -5.99606e-06 -4.59008e-17)
(-9.60552e-06 -5.77962e-06 -6.54578e-17)
(-9.16096e-06 -5.57383e-06 2.13019e-17)
(-8.74986e-06 -5.36182e-06 5.94695e-17)
(-8.36227e-06 -5.15486e-06 -3.57507e-17)
(-8.00742e-06 -4.95289e-06 6.22415e-17)
(-7.67182e-06 -4.75513e-06 -1.07365e-17)
(-7.33011e-06 -4.53724e-06 2.29829e-17)
(-7.04001e-06 -4.34032e-06 -1.2903e-16)
(-6.76332e-06 -4.14166e-06 -3.72218e-17)
(-6.50043e-06 -3.95913e-06 3.37716e-17)
(-6.25139e-06 -3.78181e-06 -4.37051e-17)
(-6.01257e-06 -3.61852e-06 -4.89947e-17)
(-5.78365e-06 -3.45778e-06 7.65342e-17)
(-5.56104e-06 -3.30656e-06 3.90739e-18)
(-5.34889e-06 -3.15988e-06 1.43057e-16)
(-5.14121e-06 -3.016e-06 2.39318e-16)
(-4.94232e-06 -2.87345e-06 2.83645e-17)
(-4.74378e-06 -2.73487e-06 7.12447e-17)
(-4.53672e-06 -2.58813e-06 1.27032e-17)
(-4.34589e-06 -2.44728e-06 1.92189e-16)
(-4.15772e-06 -2.30951e-06 4.33578e-17)
(-3.97227e-06 -2.17481e-06 -3.20744e-16)
(-3.78713e-06 -2.04485e-06 3.08795e-16)
(-3.60438e-06 -1.92067e-06 8.12559e-17)
(-3.42046e-06 -1.80438e-06 -5.96146e-17)
(-3.2341e-06 -1.69072e-06 4.7672e-16)
(-3.05197e-06 -1.58701e-06 -1.44171e-16)
(-2.87375e-06 -1.48885e-06 -1.21558e-16)
(-2.69563e-06 -1.40109e-06 8.46052e-16)
(-2.51513e-06 -1.31907e-06 -6.3543e-17)
(-2.33731e-06 -1.24156e-06 -3.78683e-16)
(-2.16088e-06 -1.16959e-06 -3.62427e-18)
(-2.09324e-06 -1.19508e-06 -1.3529e-16)
(-1.92947e-06 -1.1223e-06 -3.55653e-17)
(-1.78e-06 -1.06492e-06 -8.64157e-17)
(-1.63453e-06 -1.02266e-06 4.53666e-16)
(-1.49558e-06 -9.81205e-07 4.74141e-16)
(-1.3674e-06 -9.4656e-07 2.05264e-16)
(-1.24869e-06 -9.18358e-07 1.7075e-16)
(-1.16714e-06 -8.80855e-07 -1.19524e-16)
(-1.11348e-06 -8.89949e-07 7.25582e-16)
(-1.12623e-06 -7.67417e-07 1.00232e-17)
(-9.73902e-07 -1.01106e-06 8.06769e-16)
(-8.35291e-07 -3.18649e-07 -4.10179e-16)
(-1.51365e-07 -1.92863e-06 -2.34442e-15)
(-0.000106205 -2.18878e-05 9.35625e-18)
(-0.000101941 -2.19401e-05 -3.35678e-18)
(-9.32338e-05 -2.06398e-05 -4.58652e-18)
(-8.50685e-05 -1.94329e-05 7.12356e-19)
(-7.74085e-05 -1.841e-05 5.52604e-18)
(-7.03164e-05 -1.74729e-05 7.54895e-18)
(-6.38134e-05 -1.66315e-05 -4.12656e-18)
(-5.78978e-05 -1.5862e-05 4.11856e-19)
(-5.25498e-05 -1.51526e-05 9.21925e-18)
(-4.77625e-05 -1.44919e-05 5.18976e-18)
(-4.34903e-05 -1.38734e-05 -4.46937e-18)
(-3.96989e-05 -1.3287e-05 -9.47383e-18)
(-3.635e-05 -1.27313e-05 5.92787e-19)
(-3.33985e-05 -1.22056e-05 5.09737e-20)
(-3.07969e-05 -1.17028e-05 -8.32201e-19)
(-2.85101e-05 -1.12248e-05 1.6914e-18)
(-2.6492e-05 -1.07657e-05 1.15579e-17)
(-2.47066e-05 -1.03282e-05 5.93233e-18)
(-2.31214e-05 -9.90871e-06 -1.27173e-17)
(-2.17031e-05 -9.50705e-06 2.07736e-17)
(-2.04296e-05 -9.11886e-06 1.41305e-17)
(-1.9275e-05 -8.7483e-06 -5.88151e-18)
(-1.82173e-05 -8.38922e-06 1.40585e-18)
(-1.72457e-05 -8.04585e-06 1.58458e-17)
(-1.63433e-05 -7.71265e-06 1.45171e-17)
(-1.55007e-05 -7.39362e-06 1.71273e-17)
(-1.47098e-05 -7.08661e-06 -1.37117e-17)
(-1.39644e-05 -6.79366e-06 -3.20923e-19)
(-1.32591e-05 -6.51279e-06 1.86118e-17)
(-1.2593e-05 -6.24696e-06 4.01074e-18)
(-1.1961e-05 -5.99345e-06 -2.61544e-17)
(-1.13638e-05 -5.75704e-06 -1.37074e-17)
(-1.07959e-05 -5.5349e-06 -6.89238e-18)
(-1.0258e-05 -5.32822e-06 2.14555e-17)
(-9.7495e-06 -5.1326e-06 4.21355e-17)
(-9.27233e-06 -4.95387e-06 4.28922e-17)
(-8.82319e-06 -4.78659e-06 3.0603e-17)
(-8.40587e-06 -4.63451e-06 -2.08079e-17)
(-8.0189e-06 -4.49147e-06 -6.5352e-17)
(-7.65442e-06 -4.35872e-06 2.87883e-17)
(-7.31083e-06 -4.2308e-06 7.80868e-18)
(-6.99491e-06 -4.11556e-06 2.60413e-17)
(-6.68665e-06 -3.99422e-06 -5.20135e-17)
(-6.40942e-06 -3.88269e-06 9.48923e-17)
(-6.14684e-06 -3.77087e-06 -3.50704e-17)
(-5.89817e-06 -3.66196e-06 1.09247e-16)
(-5.66435e-06 -3.54492e-06 3.56601e-17)
(-5.44029e-06 -3.43011e-06 -7.13762e-17)
(-5.22858e-06 -3.31046e-06 5.11636e-17)
(-5.02488e-06 -3.19064e-06 1.23674e-16)
(-4.83414e-06 -3.06661e-06 3.39043e-17)
(-4.65013e-06 -2.94411e-06 -4.31923e-17)
(-4.47373e-06 -2.81538e-06 2.29664e-16)
(-4.30134e-06 -2.6947e-06 4.77566e-17)
(-4.12768e-06 -2.56411e-06 -1.14439e-16)
(-3.9648e-06 -2.44072e-06 -2.93842e-16)
(-3.80482e-06 -2.31618e-06 -2.58186e-17)
(-3.64648e-06 -2.19623e-06 -1.99277e-17)
(-3.48888e-06 -2.07633e-06 -2.52897e-16)
(-3.33108e-06 -1.96121e-06 1.9615e-16)
(-3.17199e-06 -1.85074e-06 1.18713e-16)
(-3.01022e-06 -1.74143e-06 2.08471e-16)
(-2.85003e-06 -1.63913e-06 1.96509e-16)
(-2.69258e-06 -1.54154e-06 -4.362e-16)
(-2.53282e-06 -1.45229e-06 5.38565e-16)
(-2.37788e-06 -1.37085e-06 3.46232e-16)
(-2.21942e-06 -1.28687e-06 2.22458e-17)
(-2.07154e-06 -1.21735e-06 1.15359e-16)
(-2.00247e-06 -1.23566e-06 -2.76991e-16)
(-1.85786e-06 -1.14724e-06 -5.95491e-17)
(-1.71847e-06 -1.08312e-06 -1.97488e-17)
(-1.58453e-06 -1.0223e-06 4.83155e-16)
(-1.4561e-06 -9.74202e-07 5.50329e-16)
(-1.33386e-06 -9.28377e-07 4.8495e-16)
(-1.22394e-06 -8.92901e-07 2.12769e-16)
(-1.1496e-06 -8.44313e-07 1.05042e-16)
(-1.10128e-06 -8.38092e-07 -7.47773e-16)
(-1.10304e-06 -7.2748e-07 1.65542e-16)
(-9.33345e-07 -9.28422e-07 7.20209e-16)
(-7.68317e-07 -2.73038e-07 -1.4485e-16)
(-1.07598e-07 -1.80825e-06 -5.44518e-16)
(-0.000110657 -1.27639e-05 -2.26231e-18)
(-0.000108898 -1.27329e-05 3.94708e-18)
(-0.000101959 -1.18503e-05 1.72974e-18)
(-9.50202e-05 -1.10725e-05 4.83066e-19)
(-8.81441e-05 -1.04482e-05 5.45113e-19)
(-8.14435e-05 -9.9099e-06 1.37341e-18)
(-7.49844e-05 -9.44953e-06 5.04177e-18)
(-6.88432e-05 -9.04562e-06 -2.6287e-20)
(-6.30553e-05 -8.69059e-06 -7.03678e-18)
(-5.76478e-05 -8.37259e-06 -2.2591e-18)
(-5.26521e-05 -8.08851e-06 2.44836e-18)
(-4.80599e-05 -7.82836e-06 -3.44079e-18)
(-4.38727e-05 -7.58797e-06 -9.5168e-19)
(-4.00748e-05 -7.36412e-06 -7.06249e-18)
(-3.66501e-05 -7.15394e-06 2.71566e-18)
(-3.35757e-05 -6.9544e-06 -1.72937e-18)
(-3.08177e-05 -6.76233e-06 -4.24269e-18)
(-2.83581e-05 -6.57852e-06 1.7588e-18)
(-2.61611e-05 -6.39999e-06 3.98963e-18)
(-2.41985e-05 -6.2275e-06 -1.17715e-17)
(-2.24457e-05 -6.05944e-06 -9.83302e-18)
(-2.08765e-05 -5.89504e-06 -2.55409e-18)
(-1.94629e-05 -5.73169e-06 -1.63237e-18)
(-1.81897e-05 -5.57273e-06 -1.16414e-17)
(-1.7035e-05 -5.41549e-06 -1.07107e-17)
(-1.59828e-05 -5.26015e-06 -9.58737e-18)
(-1.50208e-05 -5.10633e-06 3.01358e-17)
(-1.41356e-05 -4.9543e-06 -5.75295e-19)
(-1.33172e-05 -4.80405e-06 -2.83168e-17)
(-1.25581e-05 -4.6572e-06 3.98414e-18)
(-1.18509e-05 -4.51242e-06 1.08306e-17)
(-1.11902e-05 -4.37256e-06 2.5047e-18)
(-1.05692e-05 -4.23634e-06 -7.97814e-18)
(-9.98619e-06 -4.10597e-06 -3.74541e-17)
(-9.43967e-06 -3.98132e-06 -7.49515e-18)
(-8.92685e-06 -3.86299e-06 1.9407e-17)
(-8.44667e-06 -3.7494e-06 2.01477e-17)
(-7.99599e-06 -3.64354e-06 5.49695e-18)
(-7.5746e-06 -3.54496e-06 -1.71882e-17)