/*--------------------------------*- C++ -*----------------------------------*\
| =========                 |                                                 |
| \\      /  F ield         | OpenFOAM: The Open Source CFD Toolbox           |
|  \\    /   O peration     | Version:  2506                                  |
|   \\  /    A nd           | Website:  www.openfoam.com                      |
|    \\/     M anipulation  |                                                 |
\*---------------------------------------------------------------------------*/
FoamFile
{
    version     2.0;
    format      ascii;
    arch        "LSB;label=32;scalar=64";
    class       volScalarField;
    location    "350";
    object      p;
}
// * * * * * * * * * * * * * * * * * * * * * * * * * * * * * * * * * * * * * //

dimensions      [0 2 -2 0 0 0 0];

internalField   nonuniform List<scalar> 
1340
(
5.06232
12.9762
7.62113
8.94722
5.04594
12.7215
8.49283
8.40912
7.51112
8.77598
5.01637
12.4637
9.29839
8.98667
8.70016
8.3227
8.24062
7.38893
8.59201
4.97112
12.2048
10.3933
10.1136
9.86666
9.60747
9.33608
9.05636
8.76377
8.49337
8.1382
8.05723
7.25368
8.39421
4.91227
11.9398
11.4083
11.1539
10.8873
10.6103
10.324
10.0322
9.77606
9.54888
9.30952
9.05791
8.79756
8.52457
8.27057
7.93853
7.85835
7.10468
8.18171
4.84102
11.6655
11.9817
11.8745
11.7499
11.608
11.449
11.2733
11.0815
10.8745
10.6533
10.419
10.1731
9.91684
9.65373
9.42102
9.21362
8.99417
8.76252
8.52174
8.26868
8.0313
7.72301
7.64351
6.9412
7.95415
4.75739
11.3807
10.9899
11.0712
11.144
11.2073
11.2603
11.302
11.3316
11.3482
11.351
11.3393
11.3123
11.2695
11.2105
11.1348
11.0423
10.9327
10.8063
10.6633
10.504
10.3292
10.1396
9.93627
9.72059
9.49357
9.25858
9.049
8.86121
8.66156
8.44985
8.2287
7.9957
7.77511
7.49098
7.41222
6.76246
7.71111
4.66141
11.0836
6.38807
6.4285
6.46696
6.50783
6.55041
6.59514
6.64197
6.69102
6.74235
6.79606
6.85222
6.9109
6.97218
7.03614
7.10284
7.17234
7.24469
7.31995
7.39816
7.47936
7.56355
7.65073
7.74092
7.83406
7.93012
8.02902
8.13066
8.23491
8.34162
8.45061
8.56164
8.67444
8.7887
8.90409
9.0202
9.13659
9.25276
9.36817
9.48223
9.5943
9.70369
9.80966
9.91142
10.0081
10.099
10.183
10.2594
10.3271
10.3853
10.433
10.4694
10.4935
10.5045
10.5017
10.4843
10.4518
10.4036
10.3394
10.2589
10.162
10.0488
9.91954
9.77468
9.61487
9.44098
9.25415
9.0553
8.84756
8.66057
8.492
8.31187
8.11987
7.91825
7.7053
7.50158
7.2418
7.16401
6.56772
7.45181
4.55357
10.7711
5.7379
5.77322
5.80702
5.8429
5.88034
5.91969
5.96093
6.00416
6.04945
6.09688
6.14652
6.19846
6.25277
6.30952
6.36879
6.43063
6.49512
6.56233
6.63229
6.70506
6.78068
6.85918
6.94056
7.02484
7.112
7.20201
7.29482
7.39034
7.48849
7.58915
7.69215
7.79729
7.90434
8.01306
8.12311
8.23415
8.34578
8.45755
8.56894
8.67942
8.78839
8.8952
8.99913
9.09945
9.19536
9.28604
9.37062
9.44822
9.51791
9.57879
9.62995
9.67046
9.69946
9.71612
9.71965
9.70935
9.68459
9.64488
9.58981
9.51914
9.43277
9.33079
9.21346
9.08125
8.93487
8.77525
8.60317
8.42154
8.25634
8.10642
7.94532
7.77266
7.59028
7.39714
7.21032
6.97486
6.89842
6.35649
7.17511
4.43516
10.4379
5.16974
5.20062
5.23032
5.26182
5.29473
5.32934
5.36562
5.40369
5.4436
5.48543
5.52925
5.57514
5.62317
5.67341
5.72594
5.78082
5.83812
5.89792
5.96026
6.02521
6.09282
6.16313
6.23616
6.31195
6.39052
6.47185
6.55592
6.6427
6.73213
6.82414
6.91863
7.01545
7.11443
7.21539
7.3181
7.42227
7.52759
7.63369
7.74017
7.84657
7.95238
8.05705
8.15996
8.26046
8.35782
8.45131
8.54013
8.62345
8.7004
8.77011
8.83166
8.88417
8.92675
8.95854
8.97869
8.98644
8.9811
8.96203
8.92874
8.88083
8.81808
8.7404
8.64787
8.54083
8.41976
8.28541
8.13847
7.98151
7.83707
7.705
7.56227
7.40832
7.24472
7.07101
6.90096
6.68957
6.61479
6.12848
6.87871
4.30883
10.0777
4.6661
4.69315
4.71927
4.74696
4.77591
4.80636
4.83831
4.87184
4.90702
4.94391
4.98259
5.02311
5.06556
5.11
5.1565
5.20513
5.25596
5.30906
5.36448
5.42228
5.48254
5.54529
5.61058
5.67844
5.74891
5.822
5.89772
5.97605
6.05697
6.14044
6.2264
6.31475
6.40537
6.49814
6.59288
6.68936
6.78736
6.88659
6.98671
7.08737
7.18813
7.28853
7.38806
7.48614
7.58215
7.67544
7.76528
7.85092
7.93158
8.00641
8.07457
8.13519
8.18742
8.23035
8.26318
8.28508
8.29528
8.29313
8.27801
8.24939
8.20699
8.15054
8.07996
7.99542
7.89728
7.78606
7.66232
7.52835
7.40345
7.2883
7.16301
7.02699
6.88151
6.72664
6.57316
6.3855
6.31211
5.88443
6.55833
4.1817
9.67828
4.22561
4.24916
4.27195
4.29612
4.32139
4.34799
4.37591
4.40522
4.43599
4.46828
4.50215
4.53767
4.5749
4.61391
4.65476
4.69753
4.74227
4.78905
4.83795
4.88901
4.9423
4.99787
5.05577
5.11606
5.17876
5.24392
5.31156
5.38165
5.45421
5.52924
5.60672
5.68656
5.76868
5.853
5.93941
6.02774
6.11777
6.20931
6.30213
6.3959
6.49027
6.58487
6.67925
6.77295
6.86544
6.95613
7.04441
7.12959
7.21096
7.28778
7.35924
7.42455
7.48289
7.53336
7.57517
7.60754
7.62962
7.64073
7.64023
7.62745
7.60203
7.56365
7.512
7.44714
7.36929
7.2788
7.17607
7.0631
6.95628
6.85691
6.74795
6.62885
6.50066
6.3638
6.22638
6.06221
5.9886
5.62616
6.20766
4.06307
9.23066
3.69656
3.71634
3.73555
3.7559
3.7772
3.79963
3.82318
3.84792
3.87393
3.90122
3.92988
3.95996
3.9915
4.02458
4.05927
4.09562
4.13366
4.17351
4.2152
4.2588
4.30435
4.35192
4.4016
4.4534
4.50737
4.56356
4.62201
4.68274
4.74576
4.81109
4.87876
4.9487
5.02087
5.09526
5.17183
5.25041
5.33086
5.41308
5.49693
5.58215
5.66847
5.75561
5.84321
5.93096
6.01842
6.10509
6.1905
6.27407
6.35512
6.4331
6.50723
6.57683
6.64116
6.69933
6.75059
6.79423
6.82938
6.85524
6.87121
6.87654
6.87071
6.85328
6.82384
6.78229
6.72861
6.66295
6.58563
6.49816
6.41344
6.33348
6.24471
6.14669
6.04015
5.92598
5.80895
5.67577
5.60003
5.32918
5.77801
3.95758
8.68234
3.1498
3.16557
3.18097
3.19726
3.21434
3.23234
3.25124
3.27113
3.29204
3.31401
3.33711
3.36138
3.38684
3.41358
3.44166
3.47111
3.50197
3.53436
3.56828
3.60384
3.64104
3.67996
3.72069
3.76325
3.80767
3.85405
3.9024
3.9528
4.00526
4.0598
4.11646
4.17525
4.23614
4.29917
4.36433
4.43151
4.50066
4.57173
4.64461
4.71915
4.7952
4.87254
4.95096
5.03021
5.10995
5.18986
5.26957
5.34858
5.4264
5.50256
5.57644
5.64741
5.71487
5.77805
5.83625
5.88876
5.93482
5.97363
6.00452
6.02672
6.03962
6.0427
6.03547
6.01761
5.98891
5.94934
5.89904
5.8392
5.7787
5.72017
5.65403
5.57977
5.49799
5.40972
5.31806
5.21715
5.15442
4.95354
5.35245
3.7031
8.32951
2.6872
2.69994
2.71241
2.72561
2.73945
2.75403
2.76938
2.78553
2.80249
2.82035
2.83913
2.85884
2.87955
2.90132
2.92419
2.94818
2.97338
2.99981
3.02753
3.05662
3.08708
3.11896
3.15236
3.18731
3.22386
3.26207
3.30196
3.34359
3.38702
3.43226
3.47935
3.52832
3.57917
3.63196
3.68666
3.74325
3.8017
3.862
3.92406
3.98782
4.05317
4.12
4.18815
4.25743
4.32761
4.3985
4.46979
4.5411
4.61208
4.68234
4.75144
4.81882
4.88399
4.94635
5.00525
5.06012
5.11023
5.15488
5.19343
5.22516
5.24945
5.26578
5.27354
5.27236
5.26192
5.24204
5.21276
5.17496
5.1343
5.09366
5.04673
4.99301
4.93306
4.86794
4.79987
4.7283
4.68092
4.54243
4.91423
3.40622
7.98347
2.26557
2.2538
2.27585
2.28592
2.2966
2.30779
2.31959
2.33203
2.3451
2.35884
2.37331
2.38853
2.40453
2.42134
2.43903
2.45761
2.47712
2.49763
2.51916
2.54175
2.56547
2.59033
2.61639
2.6437
2.67232
2.70228
2.73364
2.76642
2.80067
2.83645
2.87378
2.9127
2.95326
2.99544
3.03932
3.08488
3.1321
3.18103
3.23162
3.28385
3.33767
3.39303
3.44985
3.50802
3.56742
3.62789
3.68929
3.7514
3.81395
3.87667
3.93925
4.00137
4.06258
4.12248
4.18064
4.23647
4.28952
4.33918
4.38483
4.42593
4.46184
4.49197
4.51581
4.53279
4.5425
4.54462
4.53886
4.5252
4.50429
4.4793
4.45309
4.42196
4.38548
4.34422
4.29922
4.25241
4.20706
4.17511
4.09475
4.4403
3.08488
7.54562
1.87194
1.86267
1.88007
1.88805
1.89651
1.90539
1.91475
1.9246
1.93497
1.94588
1.95736
1.96945
1.98217
1.99555
2.00962
2.0244
2.03995
2.0563
2.07347
2.09149
2.11042
2.1303
2.15117
2.17305
2.19599
2.22003
2.24521
2.27159
2.29916
2.32801
2.35816
2.38965
2.42251
2.45675
2.49243
2.52956
2.56813
2.60816
2.64968
2.69265
2.73706
2.78288
2.83004
2.87851
2.9282
2.979
3.03078
3.08342
3.13675
3.19053
3.24453
3.29851
3.35215
3.40512
3.4571
3.5076
3.55625
3.6026
3.64611
3.68631
3.72269
3.75471
3.78192
3.80382
3.81999
3.83016
3.83401
3.8315
3.82306
3.81004
3.79513
3.77661
3.75417
3.72841
3.70029
3.67187
3.64873
3.63106
3.60163
3.92046
2.71586
7.02505
1.51018
1.50304
1.51646
1.52263
1.52915
1.536
1.54321
1.55081
1.55881
1.56722
1.57608
1.58541
1.59522
1.60554
1.61639
1.6278
1.6398
1.65242
1.66568
1.6796
1.69422
1.70959
1.72571
1.74263
1.76038
1.77899
1.7985
1.81894
1.84032
1.86271
1.88614
1.91063
1.9362
1.96289
1.99075
2.01978
2.04997
2.08138
2.11401
2.14786
2.18293
2.21921
2.25664
2.29524
2.33495
2.37568
2.41737
2.45992
2.50323
2.54713
2.59146
2.63606
2.68065
2.72502
2.76893
2.812
2.85393
2.8944
2.93296
2.96923
3.00279
3.03325
3.06018
3.08317
3.10188
3.11603
3.12537
3.12984
3.12973
3.12517
3.11848
3.10932
3.09752
3.08374
3.06887
3.05526
3.04952
3.04345
3.05607
3.34734
2.2811
6.42062
1.13221
1.12694
1.13687
1.14145
1.1463
1.1514
1.15678
1.16245
1.16843
1.17471
1.18134
1.18832
1.19566
1.20339
1.21154
1.22011
1.22914
1.23863
1.24861
1.25912
1.27017
1.28178
1.29396
1.30677
1.32024
1.33435
1.34917
1.3647
1.38098
1.39803
1.41588
1.43457
1.45409
1.47448
1.49578
1.51798
1.54109
1.56515
1.59017
1.61613
1.64304
1.67092
1.69971
1.72941
1.76
1.7914
1.82361
1.85653
1.8901
1.92422
1.95876
1.99361
2.02859
2.06356
2.09832
2.13263
2.16629
2.19901
2.23052
2.26053
2.28871
2.31479
2.33841
2.35926
2.37714
2.39175
2.4029
2.41059
2.415
2.41552
2.41417
2.41132
2.4069
2.40159
2.39599
2.39274
2.39811
2.39774
2.43994
2.7011
1.7495
5.67265
0.828364
0.824766
0.831502
0.834538
0.837766
0.841145
0.844702
0.848442
0.852369
0.856503
0.860858
0.865431
0.870228
0.875268
0.880571
0.886145
0.891997
0.898133
0.904577
0.911356
0.918464
0.925916
0.933727
0.941927
0.950539
0.959554
0.968997
0.978893
0.98926
1.00011
1.01147
1.02336
1.03578
1.04877
1.06234
1.0765
1.09127
1.10667
1.12274
1.13944
1.15679
1.17482
1.19351
1.21285
1.23283
1.25345
1.27467
1.29646
1.31876
1.34154
1.36472
1.38821
1.41191
1.43572
1.4595
1.48312
1.50644
1.52925
1.55136
1.5726
1.59274
1.6116
1.62893
1.64453
1.65827
1.66992
1.67939
1.6867
1.69195
1.69464
1.6956
1.69559
1.69472
1.69366
1.69285
1.69544
1.70673
1.70729
1.76546
1.99442
1.1337
4.71595
0.341858
0.339475
0.343993
0.346122
0.348391
0.350772
0.35329
0.35594
0.358725
0.361672
0.36479
0.368072
0.371521
0.375154
0.378991
0.383031
0.387279
0.391745
0.396448
0.401406
0.406602
0.412058
0.417796
0.423818
0.430131
0.436742
0.443663
0.450902
0.458473
0.466373
0.474611
0.483204
0.492142
0.501438
0.511083
0.521077
0.531422
0.542121
0.553172
0.564549
0.576265
0.588304
0.600638
0.61326
0.626169
0.639337
0.652733
0.666347
0.680131
0.694059
0.708095
0.722183
0.736294
0.750358
0.764325
0.778125
0.791705
0.804977
0.817857
0.830297
0.84216
0.85335
0.863741
0.873232
0.881757
0.889154
0.895398
0.900509
0.904584
0.906996
0.908807
0.910567
0.912416
0.914547
0.916271
0.919321
0.926428
0.912492
0.950777
1.13796
0.36816
3.23069
0.302919
0.302881
0.30293
0.3029
0.302857
0.302793
0.302714
0.302618
0.302493
0.302345
0.302173
0.301972
0.301735
0.301461
0.301153
0.300803
0.300407
0.299962
0.299467
0.298923
0.298316
0.29765
0.296929
0.296141
0.295285
0.294364
0.293378
0.292323
0.291208
0.290028
0.288787
0.287497
0.28616
0.284783
0.28337
0.281938
0.280497
0.279058
0.277633
0.276235
0.274891
0.273606
0.272387
0.271255
0.27023
0.269317
0.268528
0.267881
0.267375
0.26702
0.26682
0.266783
0.26691
0.267179
0.267576
0.268063
0.268608
0.269156
0.269674
0.270152
0.270533
0.27081
0.270974
0.271032
0.271001
0.270877
0.27076
0.270612
0.270569
0.271899
0.271159
0.269094
0.265963
0.262504
0.259628
0.26119
0.27183
0.275235
0.309428
0.409843
0.00585642
1.35229
)
;

boundaryField
{
    inlet
    {
        type            freestreamPressure;
        freestreamValue uniform 0;
        value           nonuniform List<scalar> 
23
(
7.31534
7.17183
7.02658
6.88075
6.73141
6.57689
6.41644
6.24911
6.07307
5.88547
5.68267
5.45775
5.2057
4.89688
4.69841
4.50389
4.25769
3.9649
3.62483
3.20371
2.66458
1.82625
0.765015
)
;
    }
    outlet
    {
        type            freestreamPressure;
        freestreamValue uniform 0;
        value           nonuniform List<scalar> 
82
(
0.000904557
0.000904659
0.000904374
0.00090464
0.000904592
0.000904486
0.000904342
0.000904154
0.000903884
0.000903554
0.00090316
0.000902685
0.000902116
0.000901444
0.000900679
0.0008998
0.000898798
0.000897661
0.000896386
0.000894982
0.000893404
0.000891665
0.00088978
0.000887714
0.000885464
0.00088304
0.000880445
0.000877669
0.000874737
0.000871637
0.000868386
0.00086502
0.000861542
0.000857984
0.000854354
0.000850706
0.000847078
0.000843498
0.000840013
0.000836663
0.000833533
0.000830644
0.000828023
0.000825738
0.000823857
0.000822402
0.000821421
0.000820978
0.000821076
0.000821765
0.000823061
0.000825009
0.000827627
0.00083086
0.000834689
0.000839011
0.000843742
0.000848741
0.00085391
0.000859247
0.000864587
0.000869929
0.000875259
0.000880623
0.000886093
0.00089168
0.000897734
0.000904173
0.000911483
0.000922799
0.000926515
0.00092642
0.00092334
0.000919849
0.000919204
0.000935247
0.000985577
0.00101324
0.0011561
0.00155903
2.34733e-05
0.00500618
)
;
    }
    walls
    {
        type            zeroGradient;
    }
    frontAndBack
    {
        type            empty;
    }
    procBoundary3to2
    {
        type            processor;
        value           nonuniform List<scalar> 
88
(
5.07643
13.2089
7.72061
9.10444
9.10444
8.64956
8.56342
8.56342
9.52417
9.1939
8.89157
8.89157
10.7363
10.4332
10.1667
9.88797
9.59713
9.59713
11.928
11.6393
11.3396
11.0307
10.714
10.714
12.7607
12.6182
12.4582
12.2808
12.0864
11.8756
11.6493
11.6493
12.0476
12.1136
12.1694
12.2139
12.2464
12.266
12.2719
12.2634
12.2396
12.2001
12.1442
12.0715
12.0715
7.1851
7.22884
7.27536
7.32376
7.37456
7.42768
7.48327
7.54138
7.60209
7.66549
7.73165
7.80063
7.87249
7.9473
8.02511
8.10595
8.18986
8.27683
8.3669
8.46004
8.55623
8.65539
8.75747
8.86236
8.96992
9.08001
9.19242
9.30693
9.42329
9.54118
9.66024
9.78009
9.9003
10.0204
10.1398
10.2579
10.3741
10.4878
10.5981
10.7043
10.8056
10.9011
10.9011
)
;
    }
    procBoundary3to6
    {
        type            processor;
        value           uniform 7.13878;
    }
    procBoundary3to7
    {
        type            processor;
        value           nonuniform List<scalar> 
16
(
6.33927
5.6956
5.13297
4.63409
4.19783
3.67339
3.1315
2.67255
2.67255
2.24116
1.85273
1.49536
1.12129
0.820909
0.336898
0.302868
)
;
    }
}


// ************************************************************************* //
