/*--------------------------------*- C++ -*----------------------------------*\
| =========                 |                                                 |
| \\      /  F ield         | OpenFOAM: The Open Source CFD Toolbox           |
|  \\    /   O peration     | Version:  2506                                  |
|   \\  /    A nd           | Website:  www.openfoam.com                      |
|    \\/     M anipulation  |                                                 |
\*---------------------------------------------------------------------------*/
FoamFile
{
    version     2.0;
    format      ascii;
    arch        "LSB;label=32;scalar=64";
    class       surfaceScalarField;
    location    "350";
    object      phi;
}
// * * * * * * * * * * * * * * * * * * * * * * * * * * * * * * * * * * * * * //

dimensions      [0 3 -1 0 0 0 0];

oriented        oriented;

internalField   nonuniform List<scalar> 
2575
(
-0.582817
17.0054
18.6969
-0.606248
14.0163
-0.61057
15.4047
-0.612217
17.007
18.7068
-0.632202
11.5935
-0.634517
12.7458
-0.636199
14.018
-0.640751
15.4092
-0.643071
17.0093
18.7168
-0.655163
8.71126
-0.657915
9.58428
-0.660628
10.5428
-0.663084
11.5959
-0.665624
12.7483
-0.667632
14.02
-0.672472
15.414
-0.675473
17.0123
18.7269
-0.672603
7.76426
-0.675327
5.94711
-0.678128
6.54384
-0.681014
7.19832
-0.683932
7.92087
-0.686914
8.71424
-0.689902
9.58727
-0.692836
10.5457
-0.695527
11.5986
-0.698304
12.7511
-0.700661
14.0223
-0.705808
15.4192
-0.709506
17.016
18.737
-0.683586
5.93415
-0.688086
6.26275
-0.692514
6.60952
-0.696817
6.97515
-0.701002
7.3607
-0.705049
7.76831
-0.707944
5.95
-0.710915
6.54681
-0.713956
7.20136
-0.717106
7.92402
-0.720288
8.71743
-0.723518
9.5905
-0.72668
10.5489
-0.729616
11.6015
-0.732596
12.7541
-0.735369
14.0251
-0.740802
15.4246
-0.745208
17.0204
18.7473
-0.683215
4.07503
-0.688042
4.29998
-0.692884
4.53771
-0.697728
4.78841
-0.702578
5.05314
-0.707378
5.33268
-0.712156
5.62757
-0.71688
5.93888
-0.721549
6.26742
-0.726104
6.61407
-0.730577
6.97963
-0.734947
7.36507
-0.739222
7.77258
-0.74224
5.95302
-0.74538
6.54995
-0.748622
7.2046
-0.751959
7.92735
-0.755391
8.72086
-0.758823
9.59393
-0.762219
10.5522
-0.765407
11.6047
-0.768667
12.7573
-0.771814
14.0282
-0.777609
15.4304
-0.782781
17.0256
18.7577
-0.667242
2.14419
-0.67084
2.26213
-0.674558
2.38648
-0.67842
2.51765
-0.682408
2.65614
-0.686533
2.8024
-0.690762
2.95665
-0.69509
3.11957
-0.699534
3.29133
-0.704072
3.47283
-0.708693
3.66422
-0.713386
3.8664
-0.718139
4.07978
-0.722939
4.30478
-0.727789
4.54256
-0.732651
4.79327
-0.737512
5.058
-0.742387
5.33755
-0.74726
5.63245
-0.752071
5.94369
-0.756846
6.27219
-0.761569
6.61879
-0.766199
6.98426
-0.770728
7.3696
-0.775177
7.77703
-0.778374
5.95621
-0.78168
6.55325
-0.785107
7.20803
-0.788633
7.93088
-0.792271
8.7245
-0.795969
9.59763
-0.799606
10.5559
-0.803053
11.6082
-0.806545
12.7608
-0.810085
14.0318
-0.816296
15.4366
-0.822172
17.0315
18.7683
-0.650474
0.216793
-0.650786
0.227258
-0.651139
0.239769
-0.651485
0.252945
-0.651861
0.266867
-0.652257
0.281541
-0.652685
0.297037
-0.653112
0.313341
-0.653574
0.330593
-0.65406
0.348757
-0.654574
0.36792
-0.655129
0.388159
-0.65569
0.409487
-0.656296
0.431993
-0.656937
0.455716
-0.657628
0.480769
-0.658336
0.50718
-0.659098
0.535035
-0.659906
0.564414
-0.660763
0.595429
-0.661672
0.628119
-0.662638
0.662612
-0.663675
0.699011
-0.664751
0.737365
-0.665918
0.777866
-0.667132
0.820553
-0.668434
0.865604
-0.669816
0.913082
-0.671281
0.963232
-0.672836
1.01617
-0.674483
1.07196
-0.676229
1.13062
-0.678076
1.1928
-0.680031
1.25835
-0.68211
1.3273
-0.684291
1.40026
-0.686593
1.47701
-0.689018
1.55818
-0.691558
1.64365
-0.694253
1.73395
-0.697069
1.82919
-0.700008
1.92964
-0.70311
2.03561
-0.706325
2.14741
-0.709693
2.26549
-0.7132
2.38999
-0.716846
2.52129
-0.720643
2.65994
-0.724547
2.80631
-0.728596
2.9607
-0.732771
3.12375
-0.737078
3.29564
-0.741483
3.47723
-0.745975
3.66871
-0.750572
3.871
-0.755263
4.08447
-0.760008
4.30952
-0.764798
4.54735
-0.769649
4.79812
-0.774551
5.0629
-0.779461
5.34246
-0.784363
5.63735
-0.789282
5.94861
-0.794142
6.27705
-0.798971
6.62362
-0.803743
6.98903
-0.808463
7.37432
-0.813076
7.78164
-0.816401
5.95954
-0.819869
6.55672
-0.823479
7.21164
-0.827239
7.93464
-0.831085
8.72834
-0.83496
9.60151
-0.838872
10.5598
-0.842662
11.612
-0.846448
12.7646
-0.850544
14.0359
-0.856996
15.4431
-0.863553
17.038
18.7793
-0.697585
0.216889
-0.697867
0.227541
-0.698164
0.240066
-0.698489
0.253269
-0.698817
0.267195
-0.699162
0.281886
-0.699513
0.297388
-0.699908
0.313736
-0.7003
0.330985
-0.700738
0.349195
-0.701187
0.368369
-0.70165
0.388622
-0.702152
0.409989
-0.702683
0.432524
-0.703258
0.456291
-0.703842
0.481352
-0.704486
0.507824
-0.705143
0.535693
-0.705867
0.565137
-0.706622
0.596184
-0.707423
0.628921
-0.708263
0.663452
-0.709168
0.699916
-0.710143
0.73834
-0.711153
0.778876
-0.71224
0.82164
-0.713409
0.866772
-0.714637
0.914311
-0.715943
0.964537
-0.71733
1.01755
-0.718803
1.07344
-0.720367
1.13219
-0.722026
1.19446
-0.723785
1.26011
-0.725636
1.32915
-0.727609
1.40223
-0.729696
1.47909
-0.731902
1.56039
-0.734231
1.64598
-0.736687
1.7364
-0.739274
1.83178
-0.742009
1.93238
-0.744854
2.03845
-0.747852
2.1504
-0.751006
2.26865
-0.75429
2.39328
-0.757719
2.52472
-0.761278
2.6635
-0.764995
2.81002
-0.768852
2.96455
-0.77286
3.12776
-0.776974
3.29975
-0.781227
3.48149
-0.785611
3.67309
-0.79009
3.87548
-0.794653
4.08903
-0.79932
4.31419
-0.804066
4.55209
-0.808883
4.80294
-0.813759
5.06778
-0.81868
5.34739
-0.823645
5.64231
-0.828592
5.95355
-0.833561
6.28202
-0.838478
6.62854
-0.843375
6.99393
-0.848227
7.37917
-0.853038
7.78646
-0.85656
5.96306
-0.860156
6.56032
-0.86387
7.21535
-0.867802
7.93857
-0.871933
8.73247
-0.876186
9.60576
-0.880316
10.5639
-0.884144
11.6158
-0.888227
12.7687
-0.892721
14.0404
-0.899978
15.4503
-0.907056
17.0451
18.7906
-0.746483
0.216978
-0.746743
0.227801
-0.746991
0.240314
-0.747264
0.253543
-0.747553
0.267483
-0.747856
0.282189
-0.748175
0.297708
-0.748512
0.314073
-0.748867
0.33134
-0.749243
0.349571
-0.749639
0.368766
-0.750058
0.38904
-0.750501
0.410432
-0.75097
0.432994
-0.751467
0.456788
-0.751994
0.481879
-0.752553
0.508383
-0.753146
0.536286
-0.753776
0.565767
-0.754446
0.596853
-0.755157
0.629632
-0.755913
0.664208
-0.756718
0.700721
-0.757574
0.739196
-0.758485
0.779787
-0.759467
0.822622
-0.760486
0.867791
-0.761584
0.915409
-0.762752
0.965706
-0.763995
1.0188
-0.765317
1.07476
-0.766722
1.13359
-0.768216
1.19595
-0.769803
1.26169
-0.771488
1.33083
-0.773276
1.40402
-0.775172
1.48099
-0.77718
1.56239
-0.779306
1.64811
-0.781554
1.73865
-0.783929
1.83415
-0.786435
1.93488
-0.789076
2.04109
-0.791856
2.15318
-0.794779
2.27157
-0.797846
2.39634
-0.80106
2.52793
-0.804424
2.66686
-0.807936
2.81354
-0.811597
2.96821
-0.815405
3.13156
-0.819356
3.3037
-0.823445
3.48558
-0.827665
3.67731
-0.832008
3.87982
-0.836468
4.09349
-0.841036
4.31875
-0.845718
4.55678
-0.850479
4.8077
-0.855307
5.07261
-0.860217
5.3523
-0.86518
5.64728
-0.870222
5.95859
-0.875119
6.28692
-0.880252
6.63367
-0.8852
6.99887
-0.89014
7.38411
-0.895077
7.79139
-0.898714
5.9667
-0.902493
6.5641
-0.906458
7.21931
-0.910759
7.94287
-0.914915
8.73663
-0.919316
9.61016
-0.923696
10.5683
-0.927956
11.6201
-0.932359
12.7731
-0.937322
14.0453
-0.945008
15.458
-0.952993
17.0531
18.8025
-0.79727
0.217051
-0.797488
0.228019
-0.797717
0.240543
-0.797959
0.253785
-0.798213
0.267737
-0.798481
0.282457
-0.798763
0.29799
-0.799061
0.314371
-0.799388
0.331667
-0.799708
0.34989
-0.800059
0.369117
-0.800443
0.389425
-0.800837
0.410826
-0.801253
0.43341
-0.801682
0.457217
-0.802151
0.482348
-0.802648
0.50888
-0.803189
0.536827
-0.803738
0.566316
-0.804335
0.59745
-0.80497
0.630267
-0.805658
0.664896
-0.806377
0.70144
-0.80713
0.739949
-0.807945
0.780602
-0.808814
0.823491
-0.809739
0.868716
-0.810725
0.916394
-0.811775
0.966756
-0.812894
1.01992
-0.814085
1.07595
-0.815353
1.13486
-0.816704
1.1973
-0.81814
1.26313
-0.819668
1.33236
-0.821306
1.40566
-0.823032
1.48271
-0.824864
1.56423
-0.826807
1.65005
-0.828855
1.7407
-0.83105
1.83635
-0.833346
1.93718
-0.835786
2.04353
-0.838376
2.15577
-0.84108
2.27427
-0.843942
2.3992
-0.846952
2.53094
-0.850126
2.67004
-0.853439
2.81685
-0.856906
2.97168
-0.860512
3.13517
-0.864283
3.30747
-0.868187
3.48948
-0.87229
3.68142
-0.876418
3.88395
-0.880775
4.09785
-0.885258
4.32324
-0.889761
4.56128
-0.894462
4.8124
-0.899366
5.07751
-0.904161
5.35709
-0.909103
5.65222
-0.914117
5.96361
-0.919319
6.29212
-0.924256
6.63861
-0.929355
7.00397
-0.934608
7.38937
-0.939706
7.79649
-0.943272
5.97026
-0.947198
6.56802
-0.951486
7.2236
-0.955682
7.94707
-0.960367
8.74131
-0.964855
9.61465
-0.969489
10.5729
-0.974028
11.6246
-0.978946
12.778
-0.984199
14.0506
-0.992648
15.4665
-1.00081
17.0613
18.8155
-0.850146
0.217112
-0.850339
0.228212
-0.850542
0.240746
-0.850755
0.253999
-0.850981
0.267963
-0.851219
0.282695
-0.85147
0.298241
-0.851735
0.314636
-0.852015
0.331947
-0.852311
0.350186
-0.852624
0.36943
-0.852943
0.389743
-0.853295
0.411177
-0.85368
0.433796
-0.854076
0.457612
-0.854495
0.482767
-0.854941
0.509326
-0.855414
0.5373
-0.855918
0.566819
-0.856453
0.597985
-0.857023
0.630837
-0.85763
0.665503
-0.858264
0.702073
-0.858965
0.74065
-0.859699
0.781336
-0.860428
0.824221
-0.861249
0.869537
-0.862177
0.917322
-0.863177
0.967756
-0.8642
1.02094
-0.865198
1.07695
-0.866385
1.13605
-0.867569
1.19849
-0.868964
1.26453
-0.870246
1.33364
-0.871724
1.40714
-0.873363
1.48435
-0.875076
1.56594
-0.876788
1.65176
-0.87869
1.7426
-0.880668
1.83832
-0.882808
1.93932
-0.885116
2.04584
-0.887489
2.15815
-0.889972
2.27676
-0.892706
2.40194
-0.895438
2.53368
-0.89843
2.67303
-0.901563
2.81998
-0.904811
2.97493
-0.908298
3.13866
-0.911846
3.31102
-0.915563
3.4932
-0.919459
3.68531
-0.923643
3.88813
-0.927692
4.1019
-0.932022
4.32757
-0.936632
4.56589
-0.941088
4.81686
-0.945811
5.08223
-0.950646
5.36193
-0.95558
5.65715
-0.960595
5.96862
-0.965676
6.2972
-0.970812
6.64375
-0.976138
7.0093
-0.981201
7.39443
-0.986433
7.80172
-0.990267
5.9741
-0.994335
6.57209
-0.998643
7.22791
-1.00319
7.95161
-1.00794
8.74607
-1.01282
9.61953
-1.01772
10.5778
-1.02269
11.6296
-1.02773
12.7831
-1.03366
14.0565
-1.04302
15.4758
-1.05105
17.0693
18.83
-1.43817
0.217577
-1.43813
0.22817
-1.43802
0.240639
-1.43794
0.25392
-1.43789
0.267913
-1.43773
0.28253
-1.4377
0.298213
-1.43765
0.314588
-1.43744
0.331735
-1.43746
0.350208
-1.43728
0.36925
-1.43716
0.389628
-1.43707
0.411089
-1.43699
0.433711
-1.43679
0.457411
-1.43669
0.482666
-1.43666
0.5093
-1.43644
0.537074
-1.43638
0.566766
-1.4362
0.597803
-1.43613
0.630768
-1.43601
0.665378
-1.43581
0.701881
-1.43563
0.740462
-1.43557
0.781276
-1.43549
0.824145
-1.43543
0.869478
-1.43518
0.917072
-1.43501
0.967585
-1.43492
1.02085
-1.43492
1.07695
-1.43475
1.13588
-1.43482
1.19855
-1.43459
1.2643
-1.43461
1.33366
-1.43462
1.40714
-1.43448
1.48422
-1.43448
1.56594
-1.43448
1.65177
-1.4345
1.74262
-1.43454
1.83836
-1.43461
1.93939
-1.43471
2.04594
-1.43472
2.15816
-1.43492
2.27695
-1.43489
2.40192
-1.43507
2.53385
-1.43503
2.67299
-1.4352
2.82015
-1.43517
2.97489
-1.4352
3.13869
-1.43516
3.31098
-1.43505
3.49308
-1.43485
3.68511
-1.43442
3.8877
-1.43403
4.10151
-1.43325
4.32679
-1.43236
4.565
-1.43134
4.81584
-1.42988
5.08078
-1.42826
5.3603
-1.4263
5.65519
-1.42369
5.96601
-1.42067
6.29418
-1.41723
6.64031
-1.41305
7.00512
-1.40841
7.38978
-1.40297
7.79628
-1.39822
5.96935
-1.39285
6.56672
-1.38653
7.22159
-1.37925
7.94433
-1.37078
8.7376
-1.36098
9.60973
-1.34935
10.5662
-1.3357
11.6159
-1.32025
12.7676
-1.30369
14.04
-1.28761
15.4598
-1.26941
17.0511
18.8092
-1.53732
0.218191
-1.53713
0.227986
-1.53696
0.240466
-1.53694
0.253895
-1.53666
0.267633
-1.53666
0.282532
-1.53641
0.297964
-1.53618
0.314355
-1.5361
0.331652
-1.53577
0.349878
-1.53559
0.369072
-1.53543
0.389473
-1.53517
0.410823
-1.53493
0.43347
-1.53471
0.457194
-1.53452
0.48248
-1.5341
0.508876
-1.53397
0.536948
-1.53361
0.566408
-1.53329
0.59748
-1.53287
0.630352
-1.53264
0.665139
-1.53231
0.701551
-1.53202
0.740181
-1.53166
0.780914
-1.53122
0.823702
-1.53084
0.869096
-1.53052
0.916751
-1.53013
0.967198
-1.52968
1.0204
-1.52931
1.07658
-1.52888
1.13545
-1.52841
1.19808
-1.52803
1.26392
-1.52761
1.33324
-1.52703
1.40656
-1.5267
1.48388
-1.52607
1.56531
-1.52571
1.6514
-1.52521
1.74212
-1.52471
1.83787
-1.52423
1.9389
-1.52349
2.0452
-1.52304
2.15771
-1.5225
2.27641
-1.52186
2.40128
-1.52127
2.53326
-1.52074
2.67246
-1.51998
2.8194
-1.51943
2.97434
-1.51853
3.13779
-1.51784
3.31029
-1.51693
3.49217
-1.5158
3.68399
-1.51474
3.88664
-1.51345
4.10022
-1.51208
4.32542
-1.51033
4.56325
-1.50848
4.81399
-1.50638
5.07868
-1.50401
5.35793
-1.50105
5.65223
-1.49791
5.96286
-1.49427
6.29055
-1.49013
6.63616
-1.48544
7.00044
-1.48005
7.38439
-1.47407
7.7903
-1.46896
5.96425
-1.46312
6.56087
-1.45637
7.21485
-1.4487
7.93666
-1.43973
8.72862
-1.42946
9.59946
-1.41709
10.5538
-1.40276
11.6016
-1.38679
12.7516
-1.36992
14.0231
-1.35321
15.443
-1.33444
17.0323
18.7871
-1.63843
0.218677
-1.63821
0.227764
-1.63813
0.240389
-1.6378
0.25356
-1.63775
0.26758
-1.63744
0.282222
-1.63714
0.297665
-1.63685
0.314072
-1.63672
0.33152
-1.63633
0.34949
-1.6361
0.368838
-1.63575
0.389122
-1.63555
0.410628
-1.63511
0.433023
-1.63482
0.456907
-1.63442
0.482082
-1.63405
0.508502
-1.63357
0.536468
-1.63312
0.565957
-1.6327
0.597061
-1.63231
0.629967
-1.63183
0.664656
-1.63138
0.701106
-1.63085
0.739643
-1.63022
0.780284
-1.62963
0.82312
-1.62911
0.868567
-1.62849
0.91614
-1.6278
0.966509
-1.62718
1.01978
-1.62649
1.07588
-1.62572
1.13469
-1.62504
1.1974
-1.62417
1.26304
-1.62338
1.33245
-1.62269
1.40587
-1.62168
1.48288
-1.62091
1.56455
-1.61999
1.65048
-1.61904
1.74118
-1.61809
1.83691
-1.61699
1.9378
-1.61618
2.04439
-1.6151
2.15663
-1.6139
2.27521
-1.61287
2.40025
-1.6116
2.53199
-1.61037
2.67123
-1.60905
2.81808
-1.60765
2.97294
-1.60617
3.13631
-1.60461
3.30873
-1.60297
3.49053
-1.60125
3.68227
-1.59933
3.88471
-1.59718
4.09808
-1.59497
4.3232
-1.59269
4.56097
-1.59004
4.81135
-1.58717
5.07581
-1.58391
5.35467
-1.58038
5.6487
-1.57657
5.95906
-1.57217
6.28615
-1.56729
6.63129
-1.56194
6.99508
-1.55593
7.37838
-1.54909
7.78347
-1.54361
5.95876
-1.53728
6.55454
-1.53009
7.20766
-1.52187
7.92845
-1.51254
8.71929
-1.50148
9.58839
-1.48867
10.541
-1.47386
11.5868
-1.45725
12.735
-1.44015
14.006
-1.42284
15.4257
-1.40365
17.0131
18.7637
-1.74205
1.74156
0.219171
0.231285
-1.74194
0.227651
-1.7417
0.240149
-1.74133
0.253191
-1.74111
0.267361
-1.74077
0.281875
-1.74057
0.297468
-1.74025
0.31375
-1.7398
0.331076
-1.73965
0.349333
-1.73923
0.368423
-1.73883
0.388723
-1.73832
0.41011
-1.73795
0.432661
-1.73747
0.456427
-1.73702
0.481625
-1.73644
0.507929
-1.73604
0.536058
-1.73551
0.565436
-1.73502
0.596568
-1.73442
0.629368
-1.73358
0.663813
-1.73305
0.700574
-1.73227
0.738871
-1.73168
0.77969
-1.73099
0.82243
-1.73007
0.867647
-1.72934
0.915407
-1.72852
0.96569
-1.72762
1.01888
-1.72664
1.07491
-1.72572
1.13378
-1.7246
1.19627
-1.72369
1.26213
-1.72258
1.33134
-1.72141
1.4047
-1.72033
1.4818
-1.71907
1.56329
-1.71778
1.64918
-1.71645
1.73985
-1.7151
1.83556
-1.71374
1.93644
-1.71208
2.04273
-1.71057
2.15512
-1.70893
2.27357
-1.7073
2.39862
-1.70556
2.53024
-1.70371
2.66938
-1.70176
2.81613
-1.69986
2.97104
-1.69786
3.13431
-1.69565
3.30651
-1.69335
3.48823
-1.69083
3.67976
-1.68824
3.88212
-1.68559
4.09543
-1.68259
4.32021
-1.67939
4.55777
-1.67598
4.80794
-1.67223
5.07205
-1.66839
5.35084
-1.66418
5.64449
-1.65943
5.9543
-1.65441
6.28113
-1.64882
6.6257
-1.64265
6.98891
-1.63602
7.37175
-1.62878
7.77623
-1.62277
5.95275
-1.61595
6.54772
-1.60817
7.19988
-1.5994
7.91968
-1.58941
8.70929
-1.57787
9.57686
-1.56433
10.5275
-1.54877
11.5712
-1.53181
12.7181
-1.51424
13.9884
-1.49672
15.4082
-1.47747
16.9939
18.7389
-1.84846
1.84782
0.219814
0.231934
-1.84819
0.227383
-1.84779
0.239751
-1.84768
0.253079
-1.84716
0.266843
-1.84693
0.281644
-1.84657
0.29711
-1.84623
0.313402
-1.84589
0.330742
-1.84543
0.348874
-1.84499
0.367976
-1.84455
0.388292
-1.844
0.409556
-1.8436
0.432264
-1.84308
0.455909
-1.84245
0.480987
-1.84197
0.507451
-1.84123
0.535325
-1.84066
0.564865
-1.83998
0.595884
-1.83918
0.628571
-1.83856
0.663184
-1.83768
0.699699
-1.83698
0.738168
-1.83603
0.778746
-1.83513
0.821523
-1.83426
0.866781
-1.8333
0.914446
-1.83225
0.964635
-1.83124
1.01787
-1.83001
1.07368
-1.82898
1.13274
-1.82773
1.19502
-1.82641
1.26081
-1.82502
1.32995
-1.8237
1.40338
-1.82218
1.48028
-1.82062
1.56172
-1.819
1.64757
-1.81734
1.73819
-1.81551
1.83373
-1.8138
1.93472
-1.81193
2.04086
-1.8099
2.1531
-1.80788
2.27154
-1.80572
2.39646
-1.80357
2.5281
-1.80117
2.66698
-1.79879
2.81376
-1.79617
2.96842
-1.79345
3.13159
-1.79064
3.3037
-1.78775
3.48534
-1.78463
3.67664
-1.78145
3.87894
-1.77791
4.09189
-1.77433
4.31662
-1.77041
4.55385
-1.76644
4.80398
-1.76214
5.06775
-1.75734
5.34604
-1.75233
5.63948
-1.74696
5.94892
-1.74121
6.27538
-1.73493
6.61942
-1.72811
6.98209
-1.72058
7.36422
-1.71265
7.76829
-1.70612
5.94622
-1.69883
6.54043
-1.69061
7.19167
-1.6813
7.91037
-1.67065
8.69864
-1.65834
9.56455
-1.64427
10.5134
-1.62819
11.5551
-1.61054
12.7004
-1.59313
13.971
-1.57554
15.3906
-1.55589
16.9742
18.7132
-1.95768
1.95688
0.220609
0.232593
-1.95725
0.226959
-1.95698
0.239474
-1.95657
0.252672
-1.95631
0.266584
-1.95592
0.281256
-1.95541
0.296591
-1.95504
0.313035
-1.95454
0.330246
-1.95406
0.34839
-1.95359
0.367505
-1.95313
0.387836
-1.95269
0.409114
-1.95198
0.431558
-1.95144
0.45536
-1.95077
0.480317
-1.95012
0.5068
-1.94949
0.534695
-1.94874
0.564118
-1.94787
0.595019
-1.94717
0.627873
-1.94636
0.662373
-1.94544
0.698776
-1.94441
0.737136
-1.94355
0.777888
-1.94244
0.820418
-1.94138
0.865716
-1.94021
0.913281
-1.93909
0.963513
-1.93773
1.01652
-1.93657
1.07251
-1.93503
1.13121
-1.9337
1.19369
-1.93214
1.25925
-1.93065
1.32846
-1.92895
1.40168
-1.92718
1.47852
-1.92549
1.56004
-1.92361
1.64568
-1.92169
1.73626
-1.91957
1.83162
-1.91743
1.93258
-1.91512
2.03855
-1.91279
2.15077
-1.91045
2.2692
-1.90783
2.39384
-1.90521
2.52548
-1.90246
2.66423
-1.89959
2.81089
-1.89647
2.96529
-1.89338
3.12851
-1.89005
3.30037
-1.88649
3.48178
-1.88285
3.673
-1.87886
3.87494
-1.87495
4.08799
-1.87056
4.31223
-1.86613
4.54942
-1.86123
4.79908
-1.85629
5.06281
-1.85088
5.34062
-1.84527
5.63388
-1.83918
5.94283
-1.83244
6.26865
-1.82551
6.61249
-1.81793
6.97451
-1.80999
7.35628
-1.80125
7.75955
-1.79422
5.9392
-1.78632
6.53253
-1.77754
7.1829
-1.76771
7.90054
-1.75642
8.68734
-1.74352
9.55165
-1.72866
10.4986
-1.71201
11.5385
-1.69432
12.6827
-1.67665
13.9533
-1.65893
15.3729
-1.63962
16.9549
18.6874
-2.06968
2.06915
0.221141
0.233412
-2.0694
0.226672
-2.06912
0.239195
-2.0687
0.25226
-2.0683
0.266181
-2.06791
0.280862
-2.06752
0.296207
-2.06701
0.31252
-2.06651
0.329743
-2.06601
0.347899
-2.06554
0.367026
-2.06493
0.38723
-2.06434
0.408522
-2.06376
0.430981
-2.06306
0.454658
-2.06237
0.479632
-2.06171
0.506134
-2.06092
0.533907
-2.06001
0.563209
-2.05926
0.594274
-2.05826
0.626869
-2.05742
0.661535
-2.05647
0.697824
-2.05541
0.736071
-2.05423
0.776713
-2.05323
0.819417
-2.05198
0.864468
-2.05063
0.911929
-2.04932
0.962202
-2.04791
1.01511
-2.0464
1.071
-2.04495
1.12975
-2.04326
1.192
-2.04164
1.25762
-2.03993
1.32675
-2.038
1.39976
-2.03615
1.47666
-2.03395
1.55783
-2.03183
1.64357
-2.02966
1.73409
-2.0273
1.82926
-2.02476
1.93004
-2.02233
2.03612
-2.01973
2.14817
-2.01684
2.26631
-2.01393
2.39093
-2.01089
2.52244
-2.00771
2.66105
-2.00426
2.80744
-2.00083
2.96187
-1.99715
3.12483
-1.99323
3.29644
-1.98921
3.47776
-1.98512
3.66891
-1.98067
3.87049
-1.97588
4.0832
-1.9712
4.30755
-1.96604
4.54426
-1.96071
4.79375
-1.95492
5.05701
-1.94895
5.33466
-1.94252
5.62744
-1.93577
5.93608
-1.92855
6.26143
-1.92088
6.60481
-1.91273
6.96636
-1.90383
7.34738
-1.89463
7.75035
-1.88699
5.93156
-1.87852
6.52405
-1.86936
7.17374
-1.85888
7.89006
-1.84697
8.67543
-1.83335
9.53804
-1.81774
10.483
-1.8006
11.5213
-1.78256
12.6647
-1.76507
13.9358
-1.74796
15.3558
-1.72889
16.9359
18.6626
-2.18427
2.18359
0.221818
0.234095
-2.18397
0.226374
-2.18354
0.238763
-2.18311
0.251835
-2.18269
0.265765
-2.18215
0.280313
-2.18175
0.295809
-2.18136
0.312134
-2.18084
0.329225
-2.1802
0.347251
-2.17956
0.366391
-2.17894
0.386608
-2.17833
0.407915
-2.1776
0.430247
-2.17688
0.453941
-2.17618
0.478931
-2.17536
0.50531
-2.17455
0.533103
-2.17363
0.562284
-2.17272
0.593371
-2.17185
0.62599
-2.17071
0.660399
-2.1696
0.696715
-2.16852
0.73499
-2.16733
0.775523
-2.16603
0.818118
-2.16477
0.863204
-2.1634
0.910561
-2.16193
0.960733
-2.16051
1.01368
-2.15884
1.06934
-2.15723
1.12814
-2.15539
1.19016
-2.1536
1.25584
-2.15159
1.32474
-2.14965
1.39782
-2.1475
1.47451
-2.14527
1.55561
-2.14299
1.64128
-2.14037
1.73147
-2.13798
1.82687
-2.13527
1.92733
-2.13252
2.03337
-2.12946
2.14511
-2.12638
2.26323
-2.12329
2.38784
-2.11977
2.51891
-2.11639
2.65767
-2.11274
2.80379
-2.10882
2.95795
-2.10479
3.1208
-2.10051
3.29216
-2.09614
3.47339
-2.09126
3.66402
-2.08646
3.86569
-2.08132
4.07806
-2.07585
4.30208
-2.07021
4.53862
-2.06425
4.78779
-2.05799
5.05075
-2.05141
5.32808
-2.04439
5.62042
-2.03692
5.92861
-2.02916
6.25367
-2.02082
6.59647
-2.0119
6.95744
-2.0027
7.33819
-1.99251
7.74016
-1.98443
5.92349
-1.97572
6.51533
-1.9656
7.16362
-1.9545
7.87896
-1.94201
8.66295
-1.92776
9.52378
-1.91167
10.4669
-1.8939
11.5035
-1.87601
12.6468
-1.85882
13.9187
-1.8419
15.3389
-1.82396
16.9179
18.6425
-2.30361
2.30278
0.222658
0.234941
-2.30318
0.225941
-2.30276
0.238338
-2.30234
0.251418
-2.30193
0.265357
-2.30139
0.279771
-2.30086
0.295277
-2.30034
0.311611
-2.29968
0.328571
-2.29918
0.34675
-2.29855
0.36576
-2.29793
0.38599
-2.29718
0.407168
-2.29645
0.429514
-2.29573
0.453222
-2.29489
0.478086
-2.29406
0.504482
-2.29311
0.532151
-2.29217
0.561351
-2.29126
0.592459
-2.29009
0.624814
-2.28893
0.659247
-2.28781
0.695587
-2.2867
0.733889
-2.28535
0.774165
-2.28402
0.816791
-2.28258
0.861767
-2.28104
0.909016
-2.27953
0.959226
-2.27778
1.01193
-2.27607
1.06763
-2.27412
1.1262
-2.27223
1.18826
-2.27024
1.25385
-2.26804
1.32253
-2.26575
1.39553
-2.26339
1.47215
-2.2611
1.55333
-2.25847
1.63865
-2.25578
1.72878
-2.25291
1.824
-2.24999
1.92441
-2.24689
2.03028
-2.24363
2.14185
-2.24035
2.25995
-2.23663
2.38412
-2.23305
2.51533
-2.22904
2.65367
-2.22506
2.7998
-2.22095
2.95384
-2.21644
3.11629
-2.21185
3.28756
-2.20687
3.46842
-2.20184
3.65899
-2.19646
3.86031
-2.19089
4.07249
-2.18516
4.29634
-2.17897
4.53243
-2.17247
4.7813
-2.16568
5.04395
-2.15859
5.32099
-2.15106
5.61289
-2.14311
5.92066
-2.13459
6.24515
-2.12566
6.58754
-2.11617
6.94796
-2.106
7.32802
-2.09548
7.72963
-2.08707
5.91508
-2.07759
6.50585
-2.06717
7.15321
-2.05548
7.86726
-2.04207
8.64954
-2.02688
9.50859
-2.00983
10.4498
-1.99173
11.4854
-1.97323
12.6283
-1.95675
13.9022
-1.94146
15.3236
-1.92026
16.8967
18.6375
-2.42121
2.42038
-2.42075
-2.42031
-2.41987
-2.41929
-2.41887
-2.41832
-2.41763
-2.4171
-2.41644
-2.41579
-2.41501
-2.41424
-2.4135
-2.41262
-2.41177
-2.41079
-2.40984
-2.4089
-2.40771
-2.40668
-2.40554
-2.40429
-2.40293
-2.4016
-2.40016
-2.39862
-2.39713
-2.39539
-2.3937
-2.39193
-2.39006
-2.38811
-2.38594
-2.38383
-2.38151
-2.37913
-2.37654
-2.3739
-2.37121
-2.36833
-2.36527
-2.36204
-2.35879
-2.35523
-2.35167
-2.34782
-2.34384
-2.33958
-2.33506
-2.33044
-2.32558
-2.3205
-2.31521
-2.30958
-2.30376
-2.29749
-2.29106
-2.28432
-2.27715
-2.26955
-2.26153
-2.2531
-2.24427
-2.23476
-2.22489
-2.21437
-2.20324
-2.19409
-2.18408
-2.17304
-2.16061
-2.14671
-2.1309
-2.11357
-2.09528
-2.07697
-2.0609
-2.04787
-2.0168
)
;

boundaryField
{
    inlet
    {
        type            calculated;
        value           nonuniform List<scalar> 
23
(
-0.592654
-0.622133
-0.653075
-0.685533
-0.719636
-0.755484
-0.793193
-0.832791
-0.874462
-0.918382
-0.964938
-1.01375
-1.06557
-1.24861
-1.3124
-1.38022
-1.45271
-1.53018
-1.61375
-1.70417
-1.80379
-1.91529
-2.04614
)
;
    }
    outlet
    {
        type            calculated;
        value           nonuniform List<scalar> 
82
(
0.223482
0.225487
0.235772
0.23789
0.250979
0.264784
0.27935
0.294723
0.310925
0.328039
0.346087
0.36511
0.385212
0.406404
0.428766
0.452349
0.477232
0.503505
0.531194
0.560417
0.591265
0.623789
0.658106
0.694335
0.732526
0.772836
0.815356
0.860229
0.90752
0.95749
1.01024
1.06585
1.12433
1.18631
1.25168
1.32043
1.39321
1.46976
1.55074
1.63601
1.72609
1.82112
1.92135
2.02705
2.1386
2.25639
2.38056
2.51148
2.64968
2.79554
2.94932
3.11167
3.2827
3.46334
3.6537
3.85468
4.06668
4.29007
4.526
4.77456
5.03678
5.31339
5.60487
5.91223
6.23632
6.57803
6.93808
7.3175
7.71851
5.90593
6.49584
7.14217
7.85483
8.63564
9.49278
10.4325
11.4671
12.61
13.8861
15.3105
16.8656
18.6669
)
;
    }
    walls
    {
        type            calculated;
        value           nonuniform List<scalar> 0();
    }
    frontAndBack
    {
        type            empty;
    }
    procBoundary3to2
    {
        type            processor;
        value           nonuniform List<scalar> 
88
(
-17.0043
-18.6871
-14.0149
0.58179
-15.4003
-11.5912
0.604898
-12.7435
-8.70848
-9.58153
0.62997
-10.54
-7.7604
-5.94438
-6.54104
-7.19543
0.652376
-7.91795
-5.92954
-6.25825
-6.60509
-6.97085
0.668746
-7.35652
-4.07024
-4.29515
-4.53286
-4.78357
-5.04829
-5.32788
0.67897
-5.6228
-2.14071
-2.25853
-2.38277
-2.51378
-2.65216
-2.79828
-2.95242
-3.11524
-3.28689
-3.46829
-3.6596
0.678428
-3.86171
-0.226946
-0.239416
-0.252599
-0.26649
-0.281145
-0.296608
-0.312915
-0.330131
-0.348271
-0.367406
-0.387604
-0.408926
-0.431387
-0.455075
-0.480078
-0.506473
-0.534273
-0.563606
-0.594572
-0.62721
-0.661647
-0.697974
-0.736289
-0.776699
-0.819339
-0.864302
-0.911701
-0.961766
-1.01461
-1.07032
-1.12888
-1.19095
-1.25639
-1.32522
-1.39808
-1.4747
-1.55575
-1.64111
-1.73125
-1.82637
-1.9267
0.663764
-2.0325
)
;
    }
    procBoundary3to6
    {
        type            processor;
        value           uniform -0.216646;
    }
    procBoundary3to7
    {
        type            processor;
        value           nonuniform List<scalar> 
16
(
0.650327
0.697488
0.746393
0.797197
0.850085
1.4377
1.53671
1.63795
-0.230651
1.74093
1.84717
1.95622
2.06833
2.18291
2.30193
2.41955
)
;
    }
}


// ************************************************************************* //
