/*--------------------------------*- C++ -*----------------------------------*\
| =========                 |                                                 |
| \\      /  F ield         | OpenFOAM: The Open Source CFD Toolbox           |
|  \\    /   O peration     | Version:  2506                                  |
|   \\  /    A nd           | Website:  www.openfoam.com                      |
|    \\/     M anipulation  |                                                 |
\*---------------------------------------------------------------------------*/
FoamFile
{
    version     2.0;
    format      ascii;
    arch        "LSB;label=32;scalar=64";
    class       volScalarField;
    location    "350";
    object      turbulenceProperties:nuEff;
}
// * * * * * * * * * * * * * * * * * * * * * * * * * * * * * * * * * * * * * //

dimensions      [0 2 -1 0 0 0 0];

internalField   nonuniform List<scalar> 
1340
(
1.61479e-05
1.61204e-05
1.61229e-05
1.6124e-05
1.61498e-05
1.61207e-05
1.61295e-05
1.6131e-05
1.61234e-05
1.61259e-05
1.61519e-05
1.61209e-05
1.6109e-05
1.61137e-05
1.61219e-05
1.61308e-05
1.61317e-05
1.6124e-05
1.6128e-05
1.6154e-05
1.6121e-05
1.60988e-05
1.61026e-05
1.61048e-05
1.61062e-05
1.61076e-05
1.61098e-05
1.61148e-05
1.61234e-05
1.61321e-05
1.61324e-05
1.61246e-05
1.61303e-05
1.61562e-05
1.61209e-05
1.60773e-05
1.6081e-05
1.60855e-05
1.60903e-05
1.6095e-05
1.60997e-05
1.61034e-05
1.61055e-05
1.61069e-05
1.61082e-05
1.61107e-05
1.61161e-05
1.6125e-05
1.61335e-05
1.61331e-05
1.61253e-05
1.61328e-05
1.61585e-05
1.61208e-05
1.60794e-05
1.60767e-05
1.60743e-05
1.60726e-05
1.6072e-05
1.60727e-05
1.60748e-05
1.60778e-05
1.60817e-05
1.60863e-05
1.60911e-05
1.60959e-05
1.61006e-05
1.61042e-05
1.61062e-05
1.61076e-05
1.61089e-05
1.61116e-05
1.61174e-05
1.61266e-05
1.61349e-05
1.61338e-05
1.6126e-05
1.61356e-05
1.61608e-05
1.61204e-05
1.60975e-05
1.60964e-05
1.60953e-05
1.60943e-05
1.60933e-05
1.60922e-05
1.60912e-05
1.60899e-05
1.60885e-05
1.60866e-05
1.60844e-05
1.60818e-05
1.60791e-05
1.60764e-05
1.60741e-05
1.60725e-05
1.6072e-05
1.6073e-05
1.60752e-05
1.60784e-05
1.60824e-05
1.60871e-05
1.6092e-05
1.60969e-05
1.61016e-05
1.61051e-05
1.6107e-05
1.61083e-05
1.61097e-05
1.61126e-05
1.61188e-05
1.61284e-05
1.61364e-05
1.61345e-05
1.61268e-05
1.61386e-05
1.61632e-05
1.61199e-05
1.52956e-05
1.77227e-05
1.69217e-05
1.60487e-05
1.59952e-05
1.61269e-05
1.61529e-05
1.61501e-05
1.61446e-05
1.61382e-05
1.61349e-05
1.6132e-05
1.61291e-05
1.61265e-05
1.61242e-05
1.6122e-05
1.61202e-05
1.61185e-05
1.6117e-05
1.61157e-05
1.61146e-05
1.61136e-05
1.61128e-05
1.61121e-05
1.61115e-05
1.61109e-05
1.61104e-05
1.611e-05
1.61096e-05
1.61091e-05
1.61086e-05
1.61081e-05
1.61076e-05
1.6107e-05
1.61064e-05
1.61057e-05
1.61049e-05
1.6104e-05
1.61031e-05
1.61021e-05
1.6101e-05
1.60999e-05
1.60988e-05
1.60977e-05
1.60966e-05
1.60955e-05
1.60945e-05
1.60934e-05
1.60924e-05
1.60913e-05
1.609e-05
1.60885e-05
1.60866e-05
1.60842e-05
1.60816e-05
1.60788e-05
1.60761e-05
1.60738e-05
1.60724e-05
1.60721e-05
1.60733e-05
1.60757e-05
1.6079e-05
1.60832e-05
1.6088e-05
1.6093e-05
1.60979e-05
1.61025e-05
1.6106e-05
1.61078e-05
1.6109e-05
1.61105e-05
1.61137e-05
1.61204e-05
1.61303e-05
1.61379e-05
1.61352e-05
1.61277e-05
1.61419e-05
1.61657e-05
1.61192e-05
1.80879e-05
1.65562e-05
1.60688e-05
1.60098e-05
1.61337e-05
1.61596e-05
1.61496e-05
1.61432e-05
1.6138e-05
1.61346e-05
1.61321e-05
1.61295e-05
1.6127e-05
1.61248e-05
1.61228e-05
1.6121e-05
1.61194e-05
1.61179e-05
1.61167e-05
1.61155e-05
1.61146e-05
1.61137e-05
1.6113e-05
1.61124e-05
1.61118e-05
1.61113e-05
1.61109e-05
1.61104e-05
1.611e-05
1.61095e-05
1.61091e-05
1.61086e-05
1.6108e-05
1.61074e-05
1.61067e-05
1.6106e-05
1.61051e-05
1.61042e-05
1.61033e-05
1.61023e-05
1.61012e-05
1.61001e-05
1.60989e-05
1.60978e-05
1.60967e-05
1.60957e-05
1.60946e-05
1.60936e-05
1.60926e-05
1.60915e-05
1.60901e-05
1.60885e-05
1.60864e-05
1.6084e-05
1.60813e-05
1.60784e-05
1.60758e-05
1.60736e-05
1.60723e-05
1.60722e-05
1.60736e-05
1.60762e-05
1.60797e-05
1.60841e-05
1.6089e-05
1.6094e-05
1.60989e-05
1.61036e-05
1.61069e-05
1.61086e-05
1.61098e-05
1.61114e-05
1.61149e-05
1.61222e-05
1.61323e-05
1.61394e-05
1.61358e-05
1.61287e-05
1.61456e-05
1.61681e-05
1.61183e-05
1.63196e-05
1.60407e-05
1.60597e-05
1.61371e-05
1.61618e-05
1.61481e-05
1.61408e-05
1.6137e-05
1.6134e-05
1.61317e-05
1.61294e-05
1.61271e-05
1.61251e-05
1.61233e-05
1.61216e-05
1.612e-05
1.61187e-05
1.61175e-05
1.61164e-05
1.61154e-05
1.61146e-05
1.61139e-05
1.61133e-05
1.61127e-05
1.61122e-05
1.61118e-05
1.61113e-05
1.61109e-05
1.61104e-05
1.611e-05
1.61095e-05
1.6109e-05
1.61084e-05
1.61077e-05
1.6107e-05
1.61062e-05
1.61054e-05
1.61045e-05
1.61035e-05
1.61024e-05
1.61013e-05
1.61002e-05
1.60991e-05
1.6098e-05
1.60969e-05
1.60958e-05
1.60948e-05
1.60938e-05
1.60928e-05
1.60916e-05
1.60902e-05
1.60884e-05
1.60863e-05
1.60837e-05
1.60809e-05
1.6078e-05
1.60754e-05
1.60733e-05
1.60722e-05
1.60724e-05
1.6074e-05
1.60768e-05
1.60805e-05
1.6085e-05
1.609e-05
1.60951e-05
1.61001e-05
1.61047e-05
1.61079e-05
1.61094e-05
1.61106e-05
1.61123e-05
1.61163e-05
1.6124e-05
1.61344e-05
1.61409e-05
1.61364e-05
1.61298e-05
1.61495e-05
1.61705e-05
1.61171e-05
1.60174e-05
1.61056e-05
1.61426e-05
1.61574e-05
1.61455e-05
1.61381e-05
1.61354e-05
1.6133e-05
1.61309e-05
1.6129e-05
1.6127e-05
1.61251e-05
1.61235e-05
1.61219e-05
1.61205e-05
1.61193e-05
1.61182e-05
1.61171e-05
1.61162e-05
1.61155e-05
1.61148e-05
1.61142e-05
1.61136e-05
1.61131e-05
1.61127e-05
1.61122e-05
1.61118e-05
1.61114e-05
1.61109e-05
1.61104e-05
1.61099e-05
1.61093e-05
1.61087e-05
1.61081e-05
1.61073e-05
1.61065e-05
1.61056e-05
1.61047e-05
1.61036e-05
1.61026e-05
1.61015e-05
1.61003e-05
1.60992e-05
1.60981e-05
1.6097e-05
1.6096e-05
1.6095e-05
1.6094e-05
1.60929e-05
1.60917e-05
1.60902e-05
1.60883e-05
1.6086e-05
1.60834e-05
1.60805e-05
1.60776e-05
1.6075e-05
1.60731e-05
1.60721e-05
1.60726e-05
1.60745e-05
1.60775e-05
1.60814e-05
1.6086e-05
1.60911e-05
1.60962e-05
1.61012e-05
1.61058e-05
1.61089e-05
1.61103e-05
1.61114e-05
1.61134e-05
1.61178e-05
1.61261e-05
1.61366e-05
1.61424e-05
1.6137e-05
1.61311e-05
1.61539e-05
1.61728e-05
1.61156e-05
1.61271e-05
1.61491e-05
1.61487e-05
1.61415e-05
1.61353e-05
1.61334e-05
1.61317e-05
1.61299e-05
1.61282e-05
1.61265e-05
1.61249e-05
1.61234e-05
1.61221e-05
1.61208e-05
1.61197e-05
1.61187e-05
1.61178e-05
1.61169e-05
1.61162e-05
1.61155e-05
1.6115e-05
1.61144e-05
1.6114e-05
1.61135e-05
1.61131e-05
1.61127e-05
1.61122e-05
1.61118e-05
1.61113e-05
1.61108e-05
1.61103e-05
1.61097e-05
1.61091e-05
1.61083e-05
1.61076e-05
1.61067e-05
1.61058e-05
1.61048e-05
1.61038e-05
1.61027e-05
1.61016e-05
1.61005e-05
1.60993e-05
1.60983e-05
1.60972e-05
1.60962e-05
1.60952e-05
1.60942e-05
1.60931e-05
1.60917e-05
1.60901e-05
1.60881e-05
1.60857e-05
1.6083e-05
1.608e-05
1.60772e-05
1.60746e-05
1.60728e-05
1.60721e-05
1.60729e-05
1.6075e-05
1.60782e-05
1.60823e-05
1.60871e-05
1.60923e-05
1.60975e-05
1.61025e-05
1.6107e-05
1.61099e-05
1.61112e-05
1.61123e-05
1.61145e-05
1.61194e-05
1.61283e-05
1.6139e-05
1.61439e-05
1.61376e-05
1.61326e-05
1.61585e-05
1.6175e-05
1.61138e-05
1.6145e-05
1.61389e-05
1.61351e-05
1.61321e-05
1.61307e-05
1.61294e-05
1.61279e-05
1.61266e-05
1.61252e-05
1.6124e-05
1.61228e-05
1.61217e-05
1.61207e-05
1.61198e-05
1.6119e-05
1.61182e-05
1.61175e-05
1.61169e-05
1.61163e-05
1.61158e-05
1.61153e-05
1.61149e-05
1.61144e-05
1.6114e-05
1.61136e-05
1.61132e-05
1.61128e-05
1.61123e-05
1.61118e-05
1.61113e-05
1.61107e-05
1.61101e-05
1.61094e-05
1.61086e-05
1.61078e-05
1.61069e-05
1.6106e-05
1.6105e-05
1.61039e-05
1.61028e-05
1.61017e-05
1.61006e-05
1.60995e-05
1.60984e-05
1.60974e-05
1.60964e-05
1.60954e-05
1.60944e-05
1.60932e-05
1.60918e-05
1.609e-05
1.60879e-05
1.60853e-05
1.60824e-05
1.60794e-05
1.60766e-05
1.60742e-05
1.60726e-05
1.60722e-05
1.60733e-05
1.60758e-05
1.60792e-05
1.60836e-05
1.60885e-05
1.60938e-05
1.6099e-05
1.61041e-05
1.61085e-05
1.61111e-05
1.61123e-05
1.61135e-05
1.6116e-05
1.61215e-05
1.61311e-05
1.61417e-05
1.61456e-05
1.61381e-05
1.61345e-05
1.6164e-05
1.61772e-05
1.61117e-05
1.61317e-05
1.61296e-05
1.61284e-05
1.61276e-05
1.61268e-05
1.61257e-05
1.61247e-05
1.61238e-05
1.61229e-05
1.6122e-05
1.61213e-05
1.61205e-05
1.61198e-05
1.61192e-05
1.61186e-05
1.61181e-05
1.61176e-05
1.61171e-05
1.61167e-05
1.61163e-05
1.61159e-05
1.61155e-05
1.61151e-05
1.61147e-05
1.61143e-05
1.61139e-05
1.61134e-05
1.61129e-05
1.61124e-05
1.61118e-05
1.61112e-05
1.61105e-05
1.61098e-05
1.61089e-05
1.61081e-05
1.61071e-05
1.61061e-05
1.61051e-05
1.6104e-05
1.61029e-05
1.61018e-05
1.61007e-05
1.60997e-05
1.60987e-05
1.60977e-05
1.60967e-05
1.60957e-05
1.60946e-05
1.60933e-05
1.60917e-05
1.60897e-05
1.60874e-05
1.60846e-05
1.60816e-05
1.60786e-05
1.60758e-05
1.60736e-05
1.60723e-05
1.60724e-05
1.6074e-05
1.60768e-05
1.60806e-05
1.60852e-05
1.60903e-05
1.60957e-05
1.6101e-05
1.6106e-05
1.61102e-05
1.61126e-05
1.61136e-05
1.61149e-05
1.61178e-05
1.61242e-05
1.61346e-05
1.61449e-05
1.61473e-05
1.61387e-05
1.61374e-05
1.61703e-05
1.61792e-05
1.61089e-05
1.61266e-05
1.6126e-05
1.61255e-05
1.61248e-05
1.61241e-05
1.61235e-05
1.61228e-05
1.61222e-05
1.61216e-05
1.61211e-05
1.61206e-05
1.61201e-05
1.61196e-05
1.61192e-05
1.61188e-05
1.61184e-05
1.6118e-05
1.61176e-05
1.61173e-05
1.61169e-05
1.61165e-05
1.61162e-05
1.61158e-05
1.61154e-05
1.6115e-05
1.61145e-05
1.6114e-05
1.61135e-05
1.61129e-05
1.61123e-05
1.61116e-05
1.61108e-05
1.611e-05
1.61092e-05
1.61083e-05
1.61073e-05
1.61063e-05
1.61052e-05
1.61041e-05
1.6103e-05
1.6102e-05
1.61009e-05
1.60999e-05
1.60989e-05
1.6098e-05
1.6097e-05
1.60959e-05
1.60947e-05
1.60933e-05
1.60915e-05
1.60893e-05
1.60867e-05
1.60838e-05
1.60807e-05
1.60777e-05
1.60751e-05
1.60731e-05
1.60722e-05
1.60728e-05
1.60749e-05
1.60781e-05
1.60821e-05
1.6087e-05
1.60923e-05
1.60978e-05
1.61031e-05
1.6108e-05
1.61119e-05
1.6114e-05
1.61149e-05
1.61164e-05
1.612e-05
1.61273e-05
1.61383e-05
1.61482e-05
1.61489e-05
1.61394e-05
1.61413e-05
1.61771e-05
1.61807e-05
1.61057e-05
1.61246e-05
1.61249e-05
1.61242e-05
1.61238e-05
1.61233e-05
1.61229e-05
1.61225e-05
1.61221e-05
1.61217e-05
1.61213e-05
1.61209e-05
1.61206e-05
1.61202e-05
1.61199e-05
1.61196e-05
1.61192e-05
1.61189e-05
1.61186e-05
1.61183e-05
1.61179e-05
1.61176e-05
1.61172e-05
1.61169e-05
1.61165e-05
1.6116e-05
1.61156e-05
1.61151e-05
1.61145e-05
1.61139e-05
1.61133e-05
1.61126e-05
1.61119e-05
1.61111e-05
1.61102e-05
1.61093e-05
1.61084e-05
1.61074e-05
1.61063e-05
1.61053e-05
1.61042e-05
1.61031e-05
1.61021e-05
1.61011e-05
1.61001e-05
1.60992e-05
1.60982e-05
1.60972e-05
1.60961e-05
1.60948e-05
1.60931e-05
1.60911e-05
1.60887e-05
1.60859e-05
1.60828e-05
1.60797e-05
1.60768e-05
1.60743e-05
1.60727e-05
1.60723e-05
1.60735e-05
1.6076e-05
1.60795e-05
1.60839e-05
1.6089e-05
1.60945e-05
1.61e-05
1.61053e-05
1.61101e-05
1.61137e-05
1.61155e-05
1.61164e-05
1.61182e-05
1.61225e-05
1.61308e-05
1.61423e-05
1.61515e-05
1.61502e-05
1.61402e-05
1.61462e-05
1.61842e-05
1.61817e-05
1.61019e-05
1.61237e-05
1.6124e-05
1.61234e-05
1.61231e-05
1.61229e-05
1.61226e-05
1.61223e-05
1.6122e-05
1.61218e-05
1.61215e-05
1.61212e-05
1.6121e-05
1.61207e-05
1.61204e-05
1.61201e-05
1.61199e-05
1.61196e-05
1.61193e-05
1.61189e-05
1.61186e-05
1.61182e-05
1.61179e-05
1.61175e-05
1.6117e-05
1.61166e-05
1.61161e-05
1.61155e-05
1.61149e-05
1.61143e-05
1.61136e-05
1.61128e-05
1.6112e-05
1.61112e-05
1.61103e-05
1.61094e-05
1.61084e-05
1.61074e-05
1.61063e-05
1.61053e-05
1.61043e-05
1.61033e-05
1.61023e-05
1.61013e-05
1.61004e-05
1.60995e-05
1.60985e-05
1.60974e-05
1.60962e-05
1.60946e-05
1.60928e-05
1.60905e-05
1.60878e-05
1.60848e-05
1.60817e-05
1.60786e-05
1.60758e-05
1.60736e-05
1.60724e-05
1.60726e-05
1.60743e-05
1.60773e-05
1.60812e-05
1.60859e-05
1.60912e-05
1.60968e-05
1.61023e-05
1.61076e-05
1.61122e-05
1.61155e-05
1.6117e-05
1.61179e-05
1.61201e-05
1.61253e-05
1.61347e-05
1.61466e-05
1.61547e-05
1.61513e-05
1.61412e-05
1.61524e-05
1.61915e-05
1.61819e-05
1.60976e-05
1.61237e-05
1.61239e-05
1.61235e-05
1.61233e-05
1.61231e-05
1.61229e-05
1.61227e-05
1.61225e-05
1.61222e-05
1.6122e-05
1.61218e-05
1.61216e-05
1.61213e-05
1.61211e-05
1.61208e-05
1.61205e-05
1.61202e-05
1.61199e-05
1.61196e-05
1.61192e-05
1.61188e-05
1.61184e-05
1.6118e-05
1.61175e-05
1.6117e-05
1.61164e-05
1.61158e-05
1.61151e-05
1.61144e-05
1.61137e-05
1.61129e-05
1.61121e-05
1.61112e-05
1.61103e-05
1.61093e-05
1.61083e-05
1.61073e-05
1.61063e-05
1.61053e-05
1.61044e-05
1.61034e-05
1.61025e-05
1.61016e-05
1.61007e-05
1.60997e-05
1.60987e-05
1.60975e-05
1.6096e-05
1.60943e-05
1.60921e-05
1.60896e-05
1.60867e-05
1.60836e-05
1.60804e-05
1.60774e-05
1.60748e-05
1.6073e-05
1.60723e-05
1.60732e-05
1.60755e-05
1.60789e-05
1.60831e-05
1.60882e-05
1.60937e-05
1.60993e-05
1.61049e-05
1.61101e-05
1.61145e-05
1.61174e-05
1.61186e-05
1.61196e-05
1.61224e-05
1.61287e-05
1.61391e-05
1.61511e-05
1.61577e-05
1.61522e-05
1.61427e-05
1.61597e-05
1.61989e-05
1.61811e-05
1.60926e-05
1.61241e-05
1.61243e-05
1.61239e-05
1.61238e-05
1.61236e-05
1.61234e-05
1.61232e-05
1.6123e-05
1.61228e-05
1.61226e-05
1.61224e-05
1.61222e-05
1.61219e-05
1.61217e-05
1.61214e-05
1.61211e-05
1.61207e-05
1.61204e-05
1.612e-05
1.61196e-05
1.61192e-05
1.61187e-05
1.61182e-05
1.61177e-05
1.61171e-05
1.61165e-05
1.61159e-05
1.61152e-05
1.61144e-05
1.61137e-05
1.61128e-05
1.6112e-05
1.61111e-05
1.61101e-05
1.61092e-05
1.61082e-05
1.61073e-05
1.61063e-05
1.61054e-05
1.61045e-05
1.61036e-05
1.61027e-05
1.61018e-05
1.61009e-05
1.60999e-05
1.60987e-05
1.60974e-05
1.60957e-05
1.60937e-05
1.60912e-05
1.60885e-05
1.60854e-05
1.60822e-05
1.6079e-05
1.60762e-05
1.60739e-05
1.60726e-05
1.60726e-05
1.60741e-05
1.60769e-05
1.60807e-05
1.60853e-05
1.60906e-05
1.60963e-05
1.6102e-05
1.61076e-05
1.61127e-05
1.61167e-05
1.61192e-05
1.61202e-05
1.61215e-05
1.61251e-05
1.61325e-05
1.61439e-05
1.61558e-05
1.61605e-05
1.61528e-05
1.61447e-05
1.61684e-05
1.62062e-05
1.61791e-05
1.60879e-05
1.61247e-05
1.61249e-05
1.61246e-05
1.61244e-05
1.61242e-05
1.6124e-05
1.61239e-05
1.61237e-05
1.61234e-05
1.61232e-05
1.6123e-05
1.61227e-05
1.61224e-05
1.61221e-05
1.61218e-05
1.61215e-05
1.61211e-05
1.61207e-05
1.61203e-05
1.61199e-05
1.61194e-05
1.61189e-05
1.61184e-05
1.61178e-05
1.61172e-05
1.61165e-05
1.61158e-05
1.61151e-05
1.61143e-05
1.61135e-05
1.61127e-05
1.61118e-05
1.61109e-05
1.611e-05
1.61091e-05
1.61082e-05
1.61073e-05
1.61064e-05
1.61055e-05
1.61046e-05
1.61038e-05
1.61029e-05
1.6102e-05
1.6101e-05
1.60999e-05
1.60986e-05
1.6097e-05
1.6095e-05
1.60927e-05
1.609e-05
1.6087e-05
1.60838e-05
1.60806e-05
1.60776e-05
1.6075e-05
1.60732e-05
1.60725e-05
1.60733e-05
1.60755e-05
1.60788e-05
1.6083e-05
1.6088e-05
1.60935e-05
1.60993e-05
1.6105e-05
1.61105e-05
1.61154e-05
1.6119e-05
1.61211e-05
1.6122e-05
1.61239e-05
1.61285e-05
1.61372e-05
1.61495e-05
1.61607e-05
1.61629e-05
1.61532e-05
1.61477e-05
1.61787e-05
1.62131e-05
1.61763e-05
1.6085e-05
1.61252e-05
1.61253e-05
1.6125e-05
1.61248e-05
1.61246e-05
1.61244e-05
1.61242e-05
1.6124e-05
1.61238e-05
1.61235e-05
1.61233e-05
1.6123e-05
1.61227e-05
1.61223e-05
1.6122e-05
1.61216e-05
1.61212e-05
1.61208e-05
1.61203e-05
1.61198e-05
1.61193e-05
1.61188e-05
1.61182e-05
1.61176e-05
1.61169e-05
1.61162e-05
1.61155e-05
1.61148e-05
1.6114e-05
1.61132e-05
1.61123e-05
1.61115e-05
1.61106e-05
1.61098e-05
1.61089e-05
1.6108e-05
1.61072e-05
1.61064e-05
1.61056e-05
1.61048e-05
1.6104e-05
1.61031e-05
1.61022e-05
1.61011e-05
1.60998e-05
1.60983e-05
1.60964e-05
1.60942e-05
1.60916e-05
1.60886e-05
1.60855e-05
1.60822e-05
1.60791e-05
1.60762e-05
1.60739e-05
1.60726e-05
1.60726e-05
1.6074e-05
1.60768e-05
1.60805e-05
1.60851e-05
1.60903e-05
1.60961e-05
1.61019e-05
1.61077e-05
1.61132e-05
1.61178e-05
1.6121e-05
1.61226e-05
1.61235e-05
1.61259e-05
1.61315e-05
1.61415e-05
1.61545e-05
1.6165e-05
1.61649e-05
1.61531e-05
1.61503e-05
1.61883e-05
1.62191e-05
1.6172e-05
1.60817e-05
1.61256e-05
1.61258e-05
1.61254e-05
1.61252e-05
1.6125e-05
1.61247e-05
1.61245e-05
1.61242e-05
1.61239e-05
1.61236e-05
1.61233e-05
1.6123e-05
1.61226e-05
1.61223e-05
1.61219e-05
1.61214e-05
1.6121e-05
1.61205e-05
1.612e-05
1.61195e-05
1.61189e-05
1.61184e-05
1.61178e-05
1.61171e-05
1.61165e-05
1.61158e-05
1.61151e-05
1.61144e-05
1.61136e-05
1.61129e-05
1.61121e-05
1.61113e-05
1.61106e-05
1.61098e-05
1.6109e-05
1.61083e-05
1.61075e-05
1.61067e-05
1.6106e-05
1.61051e-05
1.61042e-05
1.61031e-05
1.61019e-05
1.61005e-05
1.60988e-05
1.60968e-05
1.60944e-05
1.60917e-05
1.60888e-05
1.60856e-05
1.60824e-05
1.60794e-05
1.60766e-05
1.60744e-05
1.60731e-05
1.60729e-05
1.60741e-05
1.60767e-05
1.60803e-05
1.60847e-05
1.60899e-05
1.60956e-05
1.61015e-05
1.61074e-05
1.61131e-05
1.61182e-05
1.61221e-05
1.61245e-05
1.61258e-05
1.61275e-05
1.61316e-05
1.61396e-05
1.61516e-05
1.61646e-05
1.61717e-05
1.61665e-05
1.61544e-05
1.61628e-05
1.62083e-05
1.62259e-05
1.61664e-05
1.60839e-05
)
;

boundaryField
{
    inlet
    {
        type            calculated;
        value           uniform 2e-05;
    }
    outlet
    {
        type            calculated;
        value           nonuniform List<scalar> 
82
(
1.61256e-05
1.61254e-05
1.61258e-05
1.61252e-05
1.6125e-05
1.61247e-05
1.61245e-05
1.61242e-05
1.61239e-05
1.61236e-05
1.61233e-05
1.6123e-05
1.61226e-05
1.61223e-05
1.61219e-05
1.61214e-05
1.6121e-05
1.61205e-05
1.612e-05
1.61195e-05
1.61189e-05
1.61184e-05
1.61178e-05
1.61171e-05
1.61165e-05
1.61158e-05
1.61151e-05
1.61144e-05
1.61136e-05
1.61129e-05
1.61121e-05
1.61113e-05
1.61106e-05
1.61098e-05
1.6109e-05
1.61083e-05
1.61075e-05
1.61067e-05
1.6106e-05
1.61051e-05
1.61042e-05
1.61031e-05
1.61019e-05
1.61005e-05
1.60988e-05
1.60968e-05
1.60944e-05
1.60917e-05
1.60888e-05
1.60856e-05
1.60824e-05
1.60794e-05
1.60766e-05
1.60744e-05
1.60731e-05
1.60729e-05
1.60741e-05
1.60767e-05
1.60803e-05
1.60847e-05
1.60899e-05
1.60956e-05
1.61015e-05
1.61074e-05
1.61131e-05
1.61182e-05
1.61221e-05
1.61245e-05
1.61258e-05
1.61275e-05
1.61316e-05
1.61396e-05
1.61516e-05
1.61646e-05
1.61717e-05
1.61665e-05
1.61544e-05
1.61628e-05
1.62083e-05
1.62259e-05
1.61664e-05
1.60839e-05
)
;
    }
    walls
    {
        type            calculated;
        value           nonuniform List<scalar> 0();
    }
    frontAndBack
    {
        type            empty;
    }
    procBoundary3to2
    {
        type            processor;
        value           nonuniform List<scalar> 
88
(
1.6146e-05
1.612e-05
1.61224e-05
1.61223e-05
1.61223e-05
1.61282e-05
1.61303e-05
1.61303e-05
1.61083e-05
1.61127e-05
1.61206e-05
1.61206e-05
1.6098e-05
1.61018e-05
1.61041e-05
1.61056e-05
1.61069e-05
1.61069e-05
1.60768e-05
1.60804e-05
1.60847e-05
1.60895e-05
1.60942e-05
1.60942e-05
1.60796e-05
1.6077e-05
1.60746e-05
1.60728e-05
1.6072e-05
1.60725e-05
1.60744e-05
1.60744e-05
1.60974e-05
1.60962e-05
1.60952e-05
1.60941e-05
1.60931e-05
1.60921e-05
1.6091e-05
1.60898e-05
1.60884e-05
1.60867e-05
1.60846e-05
1.60821e-05
1.60821e-05
1.37482e-05
1.80164e-05
1.71869e-05
1.60396e-05
1.60081e-05
1.61186e-05
1.61444e-05
1.61515e-05
1.61441e-05
1.61377e-05
1.61345e-05
1.61314e-05
1.61282e-05
1.61256e-05
1.61232e-05
1.6121e-05
1.61191e-05
1.61174e-05
1.61159e-05
1.61147e-05
1.61136e-05
1.61126e-05
1.61118e-05
1.61111e-05
1.61105e-05
1.611e-05
1.61096e-05
1.61091e-05
1.61087e-05
1.61082e-05
1.61077e-05
1.61072e-05
1.61067e-05
1.6106e-05
1.61054e-05
1.61046e-05
1.61038e-05
1.61029e-05
1.61019e-05
1.61008e-05
1.60998e-05
1.60986e-05
1.60986e-05
)
;
    }
    procBoundary3to6
    {
        type            processor;
        value           uniform 1.00162e-05;
    }
    procBoundary3to7
    {
        type            processor;
        value           nonuniform List<scalar> 
16
(
1.00006e-05
1.6109e-05
1.79603e-05
1.6244e-05
1.60184e-05
1.61339e-05
1.61385e-05
1.61277e-05
1.61277e-05
1.61257e-05
1.61242e-05
1.61241e-05
1.61244e-05
1.6125e-05
1.61255e-05
1.6126e-05
)
;
    }
}


// ************************************************************************* //
