/*--------------------------------*- C++ -*----------------------------------*\
| =========                 |                                                 |
| \\      /  F ield         | OpenFOAM: The Open Source CFD Toolbox           |
|  \\    /   O peration     | Version:  2506                                  |
|   \\  /    A nd           | Website:  www.openfoam.com                      |
|    \\/     M anipulation  |                                                 |
\*---------------------------------------------------------------------------*/
FoamFile
{
    version     2.0;
    format      ascii;
    arch        "LSB;label=32;scalar=64";
    class       volScalarField;
    location    "350";
    object      turbulenceProperties:I;
}
// * * * * * * * * * * * * * * * * * * * * * * * * * * * * * * * * * * * * * //

dimensions      [0 0 0 0 0 0 0];

internalField   nonuniform List<scalar> 
1340
(
2.65946e-05
3.72827e-05
1.25949e-05
2.55144e-05
2.65519e-05
3.72906e-05
1.32104e-05
1.67604e-05
1.24671e-05
2.5555e-05
2.65538e-05
3.72799e-05
1.7963e-05
1.68513e-05
1.63214e-05
1.35264e-05
1.695e-05
1.23902e-05
2.55989e-05
2.65864e-05
3.72595e-05
2.14905e-05
2.06843e-05
2.00014e-05
1.93444e-05
1.86357e-05
1.7943e-05
1.68874e-05
1.64112e-05
1.3857e-05
1.71299e-05
1.23579e-05
2.56442e-05
2.66389e-05
3.72347e-05
2.54824e-05
2.46653e-05
2.38229e-05
2.29736e-05
2.21105e-05
2.1268e-05
2.05104e-05
1.98707e-05
1.9252e-05
1.85826e-05
1.79269e-05
1.69326e-05
1.65114e-05
1.41963e-05
1.72962e-05
1.23666e-05
2.56862e-05
2.67027e-05
3.72069e-05
2.97545e-05
2.9104e-05
2.84416e-05
2.77708e-05
2.70929e-05
2.64047e-05
2.56987e-05
2.49673e-05
2.4208e-05
2.34248e-05
2.26351e-05
2.18294e-05
2.10412e-05
2.03345e-05
1.97389e-05
1.91594e-05
1.8531e-05
1.79133e-05
1.69857e-05
1.662e-05
1.45403e-05
1.74465e-05
1.24125e-05
2.57239e-05
2.67707e-05
3.71724e-05
3.45187e-05
3.4123e-05
3.37111e-05
3.32834e-05
3.28413e-05
3.23848e-05
3.19148e-05
3.14316e-05
3.09351e-05
3.04237e-05
2.98957e-05
2.93494e-05
2.87849e-05
2.82034e-05
2.76081e-05
2.70025e-05
2.6387e-05
2.57591e-05
2.5112e-05
2.44395e-05
2.374e-05
2.3018e-05
2.22898e-05
2.15432e-05
2.08116e-05
2.01575e-05
1.96064e-05
1.90667e-05
1.84807e-05
1.79019e-05
1.70461e-05
1.67358e-05
1.48858e-05
1.75782e-05
1.24927e-05
2.57556e-05
2.68332e-05
3.71357e-05
3.32972e-05
3.46356e-05
3.25627e-05
3.30273e-05
3.30398e-05
3.37769e-05
3.41697e-05
3.45527e-05
3.4884e-05
3.51942e-05
3.54772e-05
3.57326e-05
3.59544e-05
3.61445e-05
3.63097e-05
3.64416e-05
3.65449e-05
3.66207e-05
3.66704e-05
3.66958e-05
3.66974e-05
3.66767e-05
3.66365e-05
3.65779e-05
3.65022e-05
3.64104e-05
3.63044e-05
3.61858e-05
3.60538e-05
3.59107e-05
3.57561e-05
3.55906e-05
3.54147e-05
3.52279e-05
3.50309e-05
3.4823e-05
3.46036e-05
3.43734e-05
3.41304e-05
3.38747e-05
3.36064e-05
3.33237e-05
3.30265e-05
3.27137e-05
3.23862e-05
3.20427e-05
3.16838e-05
3.13105e-05
3.09227e-05
3.05214e-05
3.01072e-05
2.96795e-05
2.92369e-05
2.87781e-05
2.83008e-05
2.78051e-05
2.72915e-05
2.67628e-05
2.62217e-05
2.56687e-05
2.51015e-05
2.45142e-05
2.3902e-05
2.32639e-05
2.26047e-05
2.19392e-05
2.12531e-05
2.058e-05
1.99797e-05
1.94732e-05
1.89738e-05
1.84311e-05
1.78923e-05
1.71132e-05
1.6858e-05
1.52305e-05
1.769e-05
1.2603e-05
2.57768e-05
2.68864e-05
3.70992e-05
3.46029e-05
3.07662e-05
2.94027e-05
3.07365e-05
3.10235e-05
3.15199e-05
3.18209e-05
3.21493e-05
3.24405e-05
3.27143e-05
3.29624e-05
3.31844e-05
3.33798e-05
3.35488e-05
3.36946e-05
3.38121e-05
3.39058e-05
3.39777e-05
3.40265e-05
3.40543e-05
3.40631e-05
3.40535e-05
3.40272e-05
3.39861e-05
3.39306e-05
3.38623e-05
3.37833e-05
3.36927e-05
3.35922e-05
3.34827e-05
3.33639e-05
3.32368e-05
3.31009e-05
3.29568e-05
3.28043e-05
3.26425e-05
3.24718e-05
3.22916e-05
3.21007e-05
3.18988e-05
3.16852e-05
3.14595e-05
3.12199e-05
3.09661e-05
3.06986e-05
3.04156e-05
3.01184e-05
2.98071e-05
2.94822e-05
2.91446e-05
2.87949e-05
2.84322e-05
2.80553e-05
2.76629e-05
2.72524e-05
2.68233e-05
2.63759e-05
2.59122e-05
2.54345e-05
2.49432e-05
2.44365e-05
2.39095e-05
2.33584e-05
2.27827e-05
2.21874e-05
2.15856e-05
2.09607e-05
2.03476e-05
1.98017e-05
1.93392e-05
1.88803e-05
1.83818e-05
1.78843e-05
1.71865e-05
1.69859e-05
1.55716e-05
1.77813e-05
1.27347e-05
2.5793e-05
2.69229e-05
3.70695e-05
3.00552e-05
2.81949e-05
2.76829e-05
2.89502e-05
2.90893e-05
2.94597e-05
2.97216e-05
2.99997e-05
3.02503e-05
3.04828e-05
3.06899e-05
3.08799e-05
3.10458e-05
3.11896e-05
3.13125e-05
3.14142e-05
3.1495e-05
3.15588e-05
3.16031e-05
3.16289e-05
3.16407e-05
3.16375e-05
3.16209e-05
3.15907e-05
3.15509e-05
3.1501e-05
3.14412e-05
3.13732e-05
3.12976e-05
3.12148e-05
3.11251e-05
3.10291e-05
3.09263e-05
3.08171e-05
3.07017e-05
3.0579e-05
3.04491e-05
3.03113e-05
3.0165e-05
3.0009e-05
2.98432e-05
2.96664e-05
2.94769e-05
2.92754e-05
2.90605e-05
2.88314e-05
2.85896e-05
2.83346e-05
2.80673e-05
2.77887e-05
2.74988e-05
2.71974e-05
2.68831e-05
2.65541e-05
2.62075e-05
2.58427e-05
2.54593e-05
2.50585e-05
2.46426e-05
2.42121e-05
2.37656e-05
2.3299e-05
2.28094e-05
2.22973e-05
2.17666e-05
2.12284e-05
2.06658e-05
2.0114e-05
1.96226e-05
1.92033e-05
1.87856e-05
1.83319e-05
1.78773e-05
1.72656e-05
1.71192e-05
1.59066e-05
1.78529e-05
1.28866e-05
2.57868e-05
2.69538e-05
3.70519e-05
2.77211e-05
2.66425e-05
2.62359e-05
2.72092e-05
2.72865e-05
2.75982e-05
2.78197e-05
2.80501e-05
2.82563e-05
2.84478e-05
2.86193e-05
2.87753e-05
2.89124e-05
2.90313e-05
2.91333e-05
2.92188e-05
2.92866e-05
2.93409e-05
2.93796e-05
2.94038e-05
2.94168e-05
2.9418e-05
2.94078e-05
2.93877e-05
2.93611e-05
2.93246e-05
2.92815e-05
2.9233e-05
2.91776e-05
2.91174e-05
2.90518e-05
2.89821e-05
2.89067e-05
2.88273e-05
2.87428e-05
2.86528e-05
2.85573e-05
2.84556e-05
2.83465e-05
2.82299e-05
2.81045e-05
2.79693e-05
2.78235e-05
2.76665e-05
2.74971e-05
2.73158e-05
2.71226e-05
2.69178e-05
2.67026e-05
2.64775e-05
2.62429e-05
2.59982e-05
2.57425e-05
2.54724e-05
2.5186e-05
2.48821e-05
2.45585e-05
2.42178e-05
2.38613e-05
2.34891e-05
2.31013e-05
2.26945e-05
2.22657e-05
2.18165e-05
2.13498e-05
2.08746e-05
2.03737e-05
1.98831e-05
1.94455e-05
1.90681e-05
1.86913e-05
1.82825e-05
1.78727e-05
1.73505e-05
1.72577e-05
1.62284e-05
1.79075e-05
1.30271e-05
2.57669e-05
2.69586e-05
3.70729e-05
2.60517e-05
2.50603e-05
2.46387e-05
2.54337e-05
2.54955e-05
2.57548e-05
2.59349e-05
2.61222e-05
2.62865e-05
2.64432e-05
2.65826e-05
2.67083e-05
2.68212e-05
2.69173e-05
2.70014e-05
2.70735e-05
2.71305e-05
2.71758e-05
2.72108e-05
2.72343e-05
2.7249e-05
2.72541e-05
2.72509e-05
2.72414e-05
2.72251e-05
2.72021e-05
2.71763e-05
2.71449e-05
2.71081e-05
2.70679e-05
2.70266e-05
2.69804e-05
2.69318e-05
2.68781e-05
2.6822e-05
2.67652e-05
2.66995e-05
2.66306e-05
2.65568e-05
2.64768e-05
2.63878e-05
2.62921e-05
2.61864e-05
2.60697e-05
2.59444e-05
2.58067e-05
2.56593e-05
2.55027e-05
2.5336e-05
2.51628e-05
2.49811e-05
2.47909e-05
2.45922e-05
2.43796e-05
2.41511e-05
2.39068e-05
2.3642e-05
2.33593e-05
2.30622e-05
2.2748e-05
2.24189e-05
2.20734e-05
2.17067e-05
2.13217e-05
2.09205e-05
2.051e-05
2.00723e-05
1.96447e-05
1.92616e-05
1.89271e-05
1.85921e-05
1.82301e-05
1.78698e-05
1.74421e-05
1.74058e-05
1.65474e-05
1.79445e-05
1.32912e-05
2.56717e-05
2.70153e-05
3.7096e-05
2.407e-05
2.31504e-05
2.27398e-05
2.34039e-05
2.34326e-05
2.36411e-05
2.37724e-05
2.39032e-05
2.40403e-05
2.41498e-05
2.42527e-05
2.43573e-05
2.44387e-05
2.45088e-05
2.45795e-05
2.46402e-05
2.46782e-05
2.47221e-05
2.47532e-05
2.47763e-05
2.47963e-05
2.48031e-05
2.48121e-05
2.4816e-05
2.48106e-05
2.48056e-05
2.47983e-05
2.47873e-05
2.47742e-05
2.47556e-05
2.47423e-05
2.47258e-05
2.47051e-05
2.46796e-05
2.46605e-05
2.46372e-05
2.4606e-05
2.45732e-05
2.45387e-05
2.44988e-05
2.44495e-05
2.43984e-05
2.43332e-05
2.42623e-05
2.41856e-05
2.40935e-05
2.39973e-05
2.38946e-05
2.37806e-05
2.36658e-05
2.35436e-05
2.34134e-05
2.32798e-05
2.3131e-05
2.29669e-05
2.27886e-05
2.25908e-05
2.23728e-05
2.21423e-05
2.18957e-05
2.16349e-05
2.13602e-05
2.10661e-05
2.07563e-05
2.0431e-05
2.00944e-05
1.97297e-05
1.93752e-05
1.9053e-05
1.87659e-05
1.84792e-05
1.81719e-05
1.78707e-05
1.75561e-05
1.75704e-05
1.69142e-05
1.78998e-05
1.37947e-05
2.54108e-05
2.68754e-05
3.6444e-05
2.17768e-05
2.10624e-05
2.07296e-05
2.12251e-05
2.12309e-05
2.13826e-05
2.14595e-05
2.15489e-05
2.16466e-05
2.17134e-05
2.17878e-05
2.18633e-05
2.19155e-05
2.19641e-05
2.20227e-05
2.20664e-05
2.20928e-05
2.21357e-05
2.2158e-05
2.21858e-05
2.2211e-05
2.2218e-05
2.22393e-05
2.22585e-05
2.2263e-05
2.22763e-05
2.22845e-05
2.22939e-05
2.2306e-05
2.23112e-05
2.23202e-05
2.23331e-05
2.23386e-05
2.23439e-05
2.23588e-05
2.23638e-05
2.23679e-05
2.23713e-05
2.23734e-05
2.23692e-05
2.23614e-05
2.23484e-05
2.23248e-05
2.23016e-05
2.22664e-05
2.22239e-05
2.21803e-05
2.21303e-05
2.20743e-05
2.20192e-05
2.19611e-05
2.18961e-05
2.18294e-05
2.17494e-05
2.16552e-05
2.15462e-05
2.1419e-05
2.12731e-05
2.11156e-05
2.09445e-05
2.07612e-05
2.05658e-05
2.03545e-05
2.01291e-05
1.98877e-05
1.96333e-05
1.9351e-05
1.90768e-05
1.88204e-05
1.85855e-05
1.83532e-05
1.8109e-05
1.78806e-05
1.76932e-05
1.7762e-05
1.72953e-05
1.78266e-05
1.43231e-05
2.53816e-05
2.67456e-05
3.6401e-05
1.96558e-05
1.90723e-05
1.87731e-05
1.91604e-05
1.91553e-05
1.92452e-05
1.92997e-05
1.93739e-05
1.94131e-05
1.94703e-05
1.953e-05
1.95708e-05
1.9609e-05
1.965e-05
1.96965e-05
1.97211e-05
1.97556e-05
1.97889e-05
1.98069e-05
1.98419e-05
1.987e-05
1.98831e-05
1.99124e-05
1.99388e-05
1.9954e-05
1.9986e-05
2.00065e-05
2.00295e-05
2.00608e-05
2.00866e-05
2.01124e-05
2.01479e-05
2.01748e-05
2.0205e-05
2.02432e-05
2.02721e-05
2.03032e-05
2.03356e-05
2.03644e-05
2.03885e-05
2.04131e-05
2.04293e-05
2.04433e-05
2.04551e-05
2.04555e-05
2.04572e-05
2.04577e-05
2.0454e-05
2.04508e-05
2.04482e-05
2.04478e-05
2.04424e-05
2.04334e-05
2.04167e-05
2.03842e-05
2.03382e-05
2.02762e-05
2.01973e-05
2.01098e-05
2.0011e-05
1.99025e-05
1.97852e-05
1.96544e-05
1.95098e-05
1.93503e-05
1.9176e-05
1.89747e-05
1.8779e-05
1.85864e-05
1.84041e-05
1.82288e-05
1.80512e-05
1.79049e-05
1.78442e-05
1.79727e-05
1.7649e-05
1.77901e-05
1.48293e-05
2.54795e-05
2.6376e-05
3.63776e-05
1.77325e-05
1.6766e-05
1.71948e-05
1.68726e-05
1.72444e-05
1.7201e-05
1.72618e-05
1.73129e-05
1.73601e-05
1.73846e-05
1.7427e-05
1.74737e-05
1.75066e-05
1.75342e-05
1.75734e-05
1.76142e-05
1.76322e-05
1.7673e-05
1.77041e-05
1.77295e-05
1.77693e-05
1.77966e-05
1.7829e-05
1.78621e-05
1.78968e-05
1.79309e-05
1.79718e-05
1.80092e-05
1.80461e-05
1.80944e-05
1.8138e-05
1.81804e-05
1.82359e-05
1.8281e-05
1.8333e-05
1.83914e-05
1.84394e-05
1.84943e-05
1.85494e-05
1.85992e-05
1.86496e-05
1.86977e-05
1.87416e-05
1.87851e-05
1.88234e-05
1.88601e-05
1.88969e-05
1.89344e-05
1.89732e-05
1.90144e-05
1.90574e-05
1.91047e-05
1.91488e-05
1.91883e-05
1.92228e-05
1.9241e-05
1.92477e-05
1.92411e-05
1.92199e-05
1.91934e-05
1.91591e-05
1.91171e-05
1.90692e-05
1.90097e-05
1.89371e-05
1.88511e-05
1.87492e-05
1.86218e-05
1.84971e-05
1.83628e-05
1.82307e-05
1.81125e-05
1.80029e-05
1.79446e-05
1.80052e-05
1.819e-05
1.79628e-05
1.77824e-05
1.54262e-05
2.56398e-05
2.59003e-05
3.63462e-05
1.59436e-05
1.50504e-05
1.54151e-05
1.50994e-05
1.5453e-05
1.5396e-05
1.54555e-05
1.54786e-05
1.552e-05
1.55508e-05
1.55718e-05
1.56127e-05
1.56436e-05
1.56777e-05
1.57104e-05
1.57438e-05
1.57725e-05
1.58144e-05
1.58519e-05
1.5884e-05
1.59234e-05
1.596e-05
1.60105e-05
1.60473e-05
1.60946e-05
1.61419e-05
1.61906e-05
1.62487e-05
1.62977e-05
1.63594e-05
1.6418e-05
1.64808e-05
1.65497e-05
1.66127e-05
1.66835e-05
1.6758e-05
1.68274e-05
1.68986e-05
1.69747e-05
1.70456e-05
1.71174e-05
1.71891e-05
1.72563e-05
1.73261e-05
1.73934e-05
1.74622e-05
1.75319e-05
1.76037e-05
1.76816e-05
1.77627e-05
1.78451e-05
1.79327e-05
1.80185e-05
1.80982e-05
1.81749e-05
1.82359e-05
1.82867e-05
1.83279e-05
1.83581e-05
1.83851e-05
1.84073e-05
1.84244e-05
1.84367e-05
1.844e-05
1.84309e-05
1.8409e-05
1.83718e-05
1.83111e-05
1.82496e-05
1.81683e-05
1.80846e-05
1.8022e-05
1.79808e-05
1.80127e-05
1.81852e-05
1.84159e-05
1.82471e-05
1.78254e-05
1.6196e-05
2.58626e-05
2.53369e-05
3.63254e-05
1.42374e-05
1.34309e-05
1.37281e-05
1.34366e-05
1.3763e-05
1.37192e-05
1.37699e-05
1.37946e-05
1.38407e-05
1.38564e-05
1.38889e-05
1.39348e-05
1.39616e-05
1.40028e-05
1.40413e-05
1.40733e-05
1.41192e-05
1.41637e-05
1.42103e-05
1.42488e-05
1.42992e-05
1.43541e-05
1.44039e-05
1.44582e-05
1.45202e-05
1.4573e-05
1.46409e-05
1.47115e-05
1.47707e-05
1.48476e-05
1.4919e-05
1.49983e-05
1.5079e-05
1.51545e-05
1.5241e-05
1.53312e-05
1.54116e-05
1.54995e-05
1.55917e-05
1.56776e-05
1.57659e-05
1.58591e-05
1.59447e-05
1.60351e-05
1.61304e-05
1.6223e-05
1.6322e-05
1.64232e-05
1.65324e-05
1.66444e-05
1.6758e-05
1.68782e-05
1.69945e-05
1.71062e-05
1.7216e-05
1.73122e-05
1.74004e-05
1.74832e-05
1.75587e-05
1.76332e-05
1.77043e-05
1.77733e-05
1.7839e-05
1.7896e-05
1.79429e-05
1.79776e-05
1.79975e-05
1.79959e-05
1.79891e-05
1.79554e-05
1.79195e-05
1.79137e-05
1.79429e-05
1.80671e-05
1.8338e-05
1.85924e-05
1.84385e-05
1.78604e-05
1.70402e-05
2.6139e-05
2.46317e-05
3.63504e-05
1.3037e-05
1.2338e-05
1.26107e-05
1.23357e-05
1.26405e-05
1.25972e-05
1.26251e-05
1.26656e-05
1.2696e-05
1.27074e-05
1.2744e-05
1.27817e-05
1.28075e-05
1.28387e-05
1.28807e-05
1.29109e-05
1.29581e-05
1.30017e-05
1.30388e-05
1.30827e-05
1.31377e-05
1.31929e-05
1.32372e-05
1.32926e-05
1.33648e-05
1.34157e-05
1.34845e-05
1.35577e-05
1.3624e-05
1.37007e-05
1.37794e-05
1.38618e-05
1.39473e-05
1.4031e-05
1.41251e-05
1.42207e-05
1.43107e-05
1.44119e-05
1.45134e-05
1.46156e-05
1.47166e-05
1.48284e-05
1.49344e-05
1.50464e-05
1.5165e-05
1.52796e-05
1.54064e-05
1.55319e-05
1.56644e-05
1.58003e-05
1.5938e-05
1.608e-05
1.62183e-05
1.63562e-05
1.64901e-05
1.66156e-05
1.67368e-05
1.68544e-05
1.69681e-05
1.70821e-05
1.71933e-05
1.73043e-05
1.74128e-05
1.75128e-05
1.76064e-05
1.76885e-05
1.77565e-05
1.78064e-05
1.78489e-05
1.78606e-05
1.78678e-05
1.79094e-05
1.79967e-05
1.81971e-05
1.85383e-05
1.87974e-05
1.86594e-05
1.80965e-05
1.82166e-05
2.65709e-05
2.39554e-05
3.6563e-05
1.17671e-05
1.11095e-05
1.13551e-05
1.10857e-05
1.14323e-05
1.13844e-05
1.14364e-05
1.14813e-05
1.14972e-05
1.15234e-05
1.15788e-05
1.16225e-05
1.16587e-05
1.16915e-05
1.17403e-05
1.17922e-05
1.18443e-05
1.18893e-05
1.19312e-05
1.20022e-05
1.20569e-05
1.21159e-05
1.21742e-05
1.22334e-05
1.23153e-05
1.23772e-05
1.24478e-05
1.25234e-05
1.26022e-05
1.26825e-05
1.27611e-05
1.28528e-05
1.29361e-05
1.30266e-05
1.31245e-05
1.32186e-05
1.33156e-05
1.3415e-05
1.35246e-05
1.36308e-05
1.37356e-05
1.38543e-05
1.39696e-05
1.40892e-05
1.42134e-05
1.43411e-05
1.44739e-05
1.46076e-05
1.47465e-05
1.48878e-05
1.50336e-05
1.51795e-05
1.53275e-05
1.54763e-05
1.56221e-05
1.57657e-05
1.59091e-05
1.60515e-05
1.61922e-05
1.6336e-05
1.6478e-05
1.66219e-05
1.6764e-05
1.68998e-05
1.70314e-05
1.71514e-05
1.72582e-05
1.73476e-05
1.74199e-05
1.74599e-05
1.75116e-05
1.76125e-05
1.77787e-05
1.80764e-05
1.84792e-05
1.86861e-05
1.84638e-05
1.79362e-05
1.89329e-05
2.68157e-05
2.27803e-05
3.69379e-05
1.21026e-05
1.16657e-05
1.18319e-05
1.16444e-05
1.1807e-05
1.17716e-05
1.18104e-05
1.18305e-05
1.18245e-05
1.18403e-05
1.18744e-05
1.19023e-05
1.19197e-05
1.19312e-05
1.19625e-05
1.19955e-05
1.20233e-05
1.20501e-05
1.20735e-05
1.2124e-05
1.21591e-05
1.21915e-05
1.22336e-05
1.22774e-05
1.23326e-05
1.23805e-05
1.24358e-05
1.24917e-05
1.25571e-05
1.26249e-05
1.26913e-05
1.27735e-05
1.28489e-05
1.29375e-05
1.30305e-05
1.31266e-05
1.32281e-05
1.33336e-05
1.34531e-05
1.35675e-05
1.36909e-05
1.38203e-05
1.39494e-05
1.40816e-05
1.42168e-05
1.43539e-05
1.4487e-05
1.46246e-05
1.4761e-05
1.48989e-05
1.5043e-05
1.51882e-05
1.53407e-05
1.54953e-05
1.56535e-05
1.58121e-05
1.59707e-05
1.61282e-05
1.62806e-05
1.64335e-05
1.6583e-05
1.67339e-05
1.68843e-05
1.70321e-05
1.71777e-05
1.73148e-05
1.74438e-05
1.75622e-05
1.76766e-05
1.77613e-05
1.78308e-05
1.79309e-05
1.80839e-05
1.83559e-05
1.87177e-05
1.88885e-05
1.87906e-05
1.87789e-05
2.08351e-05
2.75335e-05
2.3126e-05
3.86652e-05
1.05713e-05
1.06267e-05
1.05691e-05
1.06869e-05
1.07388e-05
1.07554e-05
1.07844e-05
1.08048e-05
1.08375e-05
1.08722e-05
1.08928e-05
1.09269e-05
1.0961e-05
1.09969e-05
1.10318e-05
1.10656e-05
1.11072e-05
1.11464e-05
1.11865e-05
1.12319e-05
1.12728e-05
1.1321e-05
1.13659e-05
1.14142e-05
1.14666e-05
1.15203e-05
1.15745e-05
1.16291e-05
1.16908e-05
1.17503e-05
1.18143e-05
1.18814e-05
1.19477e-05
1.20215e-05
1.20942e-05
1.21728e-05
1.22525e-05
1.23353e-05
1.2422e-05
1.25069e-05
1.25973e-05
1.26865e-05
1.27752e-05
1.28634e-05
1.2953e-05
1.30396e-05
1.31261e-05
1.32162e-05
1.33074e-05
1.3406e-05
1.35104e-05
1.36229e-05
1.37445e-05
1.38706e-05
1.40042e-05
1.41404e-05
1.42816e-05
1.44252e-05
1.45709e-05
1.47246e-05
1.48817e-05
1.50456e-05
1.52125e-05
1.538e-05
1.55463e-05
1.5703e-05
1.58499e-05
1.59804e-05
1.60554e-05
1.60878e-05
1.61953e-05
1.6414e-05
1.67493e-05
1.72469e-05
1.7704e-05
1.76628e-05
1.71548e-05
1.73363e-05
2.05752e-05
2.53738e-05
2.19788e-05
3.86577e-05
)
;

boundaryField
{
    inlet
    {
        type            calculated;
        value           nonuniform List<scalar> 
23
(
7.59925e-05
7.57852e-05
7.55835e-05
7.53868e-05
7.5191e-05
7.49919e-05
7.47842e-05
7.45639e-05
7.43252e-05
7.40633e-05
7.37711e-05
7.345e-05
7.30816e-05
7.25175e-05
7.20447e-05
7.14677e-05
7.07454e-05
6.98578e-05
6.87775e-05
6.74882e-05
6.59165e-05
6.46682e-05
6.22248e-05
)
;
    }
    outlet
    {
        type            calculated;
        value           nonuniform List<scalar> 
82
(
9.45512e-06
9.44341e-06
9.54025e-06
9.59695e-06
9.66004e-06
9.67396e-06
9.70426e-06
9.72303e-06
9.75773e-06
9.79496e-06
9.81333e-06
9.84889e-06
9.88476e-06
9.92226e-06
9.95855e-06
9.99285e-06
1.00373e-05
1.00782e-05
1.012e-05
1.01686e-05
1.02109e-05
1.0262e-05
1.0309e-05
1.03597e-05
1.04154e-05
1.0472e-05
1.0529e-05
1.05855e-05
1.06507e-05
1.07121e-05
1.07782e-05
1.08475e-05
1.09144e-05
1.09899e-05
1.10625e-05
1.11412e-05
1.122e-05
1.13011e-05
1.13861e-05
1.14673e-05
1.15547e-05
1.16396e-05
1.17235e-05
1.18065e-05
1.18915e-05
1.19733e-05
1.20554e-05
1.2143e-05
1.22323e-05
1.23309e-05
1.2436e-05
1.25495e-05
1.26722e-05
1.27978e-05
1.29303e-05
1.30649e-05
1.32057e-05
1.33517e-05
1.35034e-05
1.36689e-05
1.38419e-05
1.40248e-05
1.42116e-05
1.43983e-05
1.45824e-05
1.47537e-05
1.49096e-05
1.50386e-05
1.50916e-05
1.51006e-05
1.52193e-05
1.54878e-05
1.59161e-05
1.65411e-05
1.70919e-05
1.70053e-05
1.62126e-05
1.60561e-05
1.94877e-05
2.48927e-05
1.98213e-05
3.68153e-05
)
;
    }
    walls
    {
        type            calculated;
        value           nonuniform List<scalar> 0();
    }
    frontAndBack
    {
        type            empty;
    }
    procBoundary3to2
    {
        type            processor;
        value           nonuniform List<scalar> 
88
(
2.66916e-05
3.72666e-05
1.27717e-05
2.54677e-05
2.54677e-05
1.29137e-05
1.65637e-05
1.65637e-05
1.79893e-05
1.68267e-05
1.62449e-05
1.62449e-05
2.17094e-05
2.0857e-05
2.01321e-05
1.94378e-05
1.86917e-05
1.86917e-05
2.59819e-05
2.51092e-05
2.42102e-05
2.33034e-05
2.23849e-05
2.23849e-05
3.07061e-05
2.99869e-05
2.92573e-05
2.85219e-05
2.7782e-05
2.70345e-05
2.6271e-05
2.6271e-05
3.63688e-05
3.58957e-05
3.5407e-05
3.49037e-05
3.43858e-05
3.38549e-05
3.33115e-05
3.27555e-05
3.21872e-05
3.16042e-05
3.10054e-05
3.03889e-05
3.03889e-05
3.06013e-05
3.6526e-05
3.7403e-05
3.56737e-05
3.62398e-05
3.68038e-05
3.72701e-05
3.76584e-05
3.80006e-05
3.83047e-05
3.8587e-05
3.88307e-05
3.90375e-05
3.92133e-05
3.93522e-05
3.94604e-05
3.95352e-05
3.95782e-05
3.95937e-05
3.95814e-05
3.95437e-05
3.94824e-05
3.93981e-05
3.92943e-05
3.91727e-05
3.90322e-05
3.88761e-05
3.87054e-05
3.85204e-05
3.83216e-05
3.8109e-05
3.78848e-05
3.76469e-05
3.73958e-05
3.71332e-05
3.68561e-05
3.65662e-05
3.62625e-05
3.59436e-05
3.56109e-05
3.52627e-05
3.48986e-05
3.48986e-05
)
;
    }
    procBoundary3to6
    {
        type            processor;
        value           uniform 8.18185e-06;
    }
    procBoundary3to7
    {
        type            processor;
        value           nonuniform List<scalar> 
16
(
2.81523e-06
2.82387e-05
2.8702e-05
2.53177e-05
2.36576e-05
2.2176e-05
2.03679e-05
1.85455e-05
1.85455e-05
1.66883e-05
1.49966e-05
1.3375e-05
1.22782e-05
1.10975e-05
1.15544e-05
1.07051e-05
)
;
    }
}


// ************************************************************************* //
