/*--------------------------------*- C++ -*----------------------------------*\
| =========                 |                                                 |
| \\      /  F ield         | OpenFOAM: The Open Source CFD Toolbox           |
|  \\    /   O peration     | Version:  2506                                  |
|   \\  /    A nd           | Website:  www.openfoam.com                      |
|    \\/     M anipulation  |                                                 |
\*---------------------------------------------------------------------------*/
FoamFile
{
    version     2.0;
    format      ascii;
    arch        "LSB;label=32;scalar=64";
    class       volVectorField;
    location    "350";
    object      U;
}
// * * * * * * * * * * * * * * * * * * * * * * * * * * * * * * * * * * * * * //

dimensions      [0 1 -1 0 0 0 0];

internalField   nonuniform List<vector> 
1340
(
(25.5597 3.32914 -1.26856e-16)
(25.6222 2.89344 1.57787e-16)
(25.5177 3.17156 -3.89923e-16)
(25.5111 3.08357 -6.93417e-17)
(25.5621 3.32751 2.02004e-17)
(25.6357 2.89607 -6.64373e-16)
(25.548 3.12282 0)
(25.5359 3.11857 -1.52611e-16)
(25.5211 3.1685 3.87004e-16)
(25.5187 3.08296 2.28968e-16)
(25.5654 3.32561 3.59862e-19)
(25.6493 2.89863 5.76641e-16)
(25.5574 3.07675 -2.20806e-16)
(25.5598 3.09022 4.19034e-18)
(25.5597 3.10169 2.94066e-17)
(25.554 3.11906 0)
(25.5414 3.11572 1.72294e-18)
(25.5251 3.16539 -3.33598e-18)
(25.5267 3.08272 -1.7163e-18)
(25.5699 3.3235 5.00684e-19)
(25.6628 2.90118 -7.29322e-19)
(25.5512 3.00616 1.86347e-17)
(25.5555 3.02084 7.36277e-17)
(25.5585 3.03313 7.3439e-17)
(25.5615 3.04592 -2.49884e-16)
(25.5643 3.05891 6.1831e-17)
(25.5668 3.07215 -8.74449e-17)
(25.5684 3.08595 -1.88822e-18)
(25.5674 3.09787 2.11208e-16)
(25.5605 3.11545 0)
(25.5473 3.11313 1.3654e-17)
(25.5297 3.16226 -3.72063e-16)
(25.5352 3.08286 -2.16504e-16)
(25.5755 3.32122 -7.58855e-18)
(25.6764 2.90383 7.63805e-17)
(25.5379 2.9083 1.69374e-16)
(25.5442 2.92776 -1.53153e-16)
(25.5503 2.94682 -3.97079e-17)
(25.5559 2.96542 -2.39493e-16)
(25.561 2.98356 -5.30425e-17)
(25.5654 3.00108 3.56996e-17)
(25.5687 3.01583 1.58954e-17)
(25.571 3.02824 -1.20851e-18)
(25.5732 3.04118 4.76557e-17)
(25.5752 3.05437 -1.1527e-16)
(25.5769 3.06788 2.16269e-16)
(25.5776 3.08196 -1.33477e-16)
(25.5757 3.09431 -2.11267e-16)
(25.5675 3.11202 0)
(25.5536 3.11081 -9.73968e-18)
(25.5351 3.15917 3.63433e-16)
(25.544 3.0834 2.12162e-16)
(25.5822 3.31877 8.93794e-18)
(25.6902 2.90667 -7.76628e-17)
(25.53 2.76784 -2.2062e-17)
(25.533 2.78743 -1.06628e-16)
(25.5364 2.80709 -1.80192e-16)
(25.5402 2.82679 6.55866e-17)
(25.5444 2.84647 -2.10078e-17)
(25.549 2.8661 8.26347e-17)
(25.5539 2.88561 2.10464e-16)
(25.559 2.90494 -4.8765e-18)
(25.564 2.92401 1.23976e-16)
(25.5688 2.94277 -1.06455e-17)
(25.5731 2.96114 1.62349e-17)
(25.5769 2.97915 1.02182e-16)
(25.5802 2.99661 -3.62112e-17)
(25.5825 3.01138 -1.83615e-17)
(25.584 3.02384 -1.2661e-18)
(25.5854 3.03689 3.42729e-18)
(25.5866 3.05025 8.83562e-19)
(25.5875 3.06398 -1.13657e-16)
(25.5874 3.07829 1.28826e-16)
(25.5844 3.09107 -4.14295e-19)
(25.5749 3.10881 0)
(25.5604 3.10878 1.3255e-17)
(25.5411 3.15613 -3.79545e-16)
(25.5533 3.08435 -2.10014e-18)
(25.59 3.31619 -2.28353e-17)
(25.704 2.90979 -8.02355e-19)
(25.5701 2.57656 1.74934e-17)
(25.567 2.59024 -1.00896e-16)
(25.5643 2.60444 -2.7834e-18)
(25.5619 2.61914 9.64477e-17)
(25.5598 2.63435 -1.04251e-16)
(25.5582 2.65004 1.65863e-17)
(25.557 2.6662 7.57696e-18)
(25.5564 2.6828 -2.10634e-17)
(25.5562 2.69982 1.29138e-16)
(25.5565 2.71723 1.82254e-16)
(25.5572 2.73497 1.36412e-17)
(25.5584 2.75302 4.94567e-17)
(25.5599 2.77132 -5.25086e-17)
(25.5618 2.78982 1.53669e-18)
(25.564 2.80849 2.77143e-16)
(25.5666 2.82728 -1.89078e-18)
(25.5695 2.84613 -1.53407e-16)
(25.5729 2.86502 -3.33656e-17)
(25.5766 2.88388 -1.45135e-16)
(25.5804 2.90264 -3.7409e-17)
(25.5842 2.92124 -1.21264e-18)
(25.5877 2.9396 -1.63749e-16)
(25.5908 2.95768 -6.05276e-18)
(25.5934 2.97547 -4.24573e-17)
(25.5956 2.9928 -3.56342e-19)
(25.5969 3.00753 1.42812e-17)
(25.5976 3.02 -1.26469e-16)
(25.5982 3.03311 1.15916e-16)
(25.5986 3.04658 1.02233e-16)
(25.5988 3.0605 1.87204e-16)
(25.5977 3.075 -2.08858e-16)
(25.5936 3.08816 -4.41375e-19)
(25.583 3.10586 0)
(25.5676 3.10708 -8.73297e-18)
(25.548 3.1532 1.04865e-16)
(25.5632 3.08575 4.45902e-17)
(25.599 3.31351 -2.67767e-17)
(25.7181 2.91328 -8.37699e-19)
(25.7171 2.39772 2.34473e-18)
(25.7169 2.39947 2.29759e-18)
(25.717 2.40006 -1.53e-19)
(25.7169 2.40154 5.63822e-19)
(25.7168 2.40281 7.59909e-19)
(25.7165 2.40427 3.51913e-19)
(25.716 2.40575 3.83992e-20)
(25.7154 2.40733 -3.02473e-18)
(25.7147 2.40899 -1.24077e-18)
(25.7137 2.41074 2.92745e-18)
(25.7127 2.41258 0)
(25.7114 2.41453 -4.71855e-19)
(25.71 2.41659 6.66122e-18)
(25.7084 2.41876 2.10386e-19)
(25.7067 2.42106 7.47774e-18)
(25.7048 2.42349 7.60758e-19)
(25.7027 2.42607 1.90546e-18)
(25.7004 2.4288 6.08901e-18)
(25.698 2.43169 3.05043e-18)
(25.6954 2.43476 8.54514e-18)
(25.6926 2.43802 -7.8653e-18)
(25.6898 2.44148 -1.16976e-17)
(25.6867 2.44514 4.4591e-18)
(25.6835 2.44904 -2.73787e-18)
(25.6802 2.45317 -8.6075e-18)
(25.6768 2.45757 -8.29941e-18)
(25.6733 2.46223 1.63166e-17)
(25.6696 2.46717 -5.73065e-18)
(25.6659 2.47242 2.21266e-18)
(25.662 2.47799 -7.93091e-18)
(25.6581 2.48389 1.29718e-17)
(25.6542 2.49015 8.26234e-18)
(25.6501 2.49678 9.89248e-18)
(25.6461 2.50379 2.51437e-17)
(25.642 2.5112 -1.84923e-17)
(25.6379 2.51904 -1.12648e-17)
(25.6338 2.5273 9.45916e-19)
(25.6297 2.53602 -1.3397e-17)
(25.6256 2.5452 -5.41518e-18)
(25.6217 2.55486 -2.43965e-17)
(25.6178 2.565 8.20738e-18)
(25.614 2.57564 1.1574e-17)
(25.6103 2.58678 -2.68885e-17)
(25.6068 2.59844 2.23447e-17)
(25.6035 2.6106 6.03245e-18)
(25.6004 2.62329 -6.23153e-19)
(25.5976 2.63648 -3.89366e-18)
(25.5951 2.65019 2.81115e-17)
(25.593 2.6644 -8.5433e-17)
(25.5912 2.6791 -2.8929e-19)
(25.5899 2.69427 -2.23768e-18)
(25.589 2.70989 -3.84057e-17)
(25.5885 2.72594 -6.51677e-18)
(25.5884 2.74239 -4.49601e-18)
(25.5887 2.75918 -6.24493e-19)
(25.5892 2.7763 -1.71614e-17)
(25.5901 2.79368 1.50269e-18)
(25.5912 2.8113 -1.19144e-16)
(25.5927 2.82911 -1.86803e-18)
(25.5946 2.84708 1.29991e-16)
(25.5968 2.86515 -5.6537e-19)
(25.5994 2.88329 1.33245e-16)
(25.6021 2.90141 -1.07909e-17)
(25.6046 2.91945 -1.07308e-16)
(25.607 2.93735 9.63093e-18)
(25.6089 2.95505 5.24988e-18)
(25.6104 2.97255 3.54274e-17)
(25.6114 2.98969 3.07976e-17)
(25.6118 3.00431 -2.10456e-18)
(25.6117 3.01675 4.03244e-18)
(25.6116 3.02988 -9.59741e-19)
(25.6113 3.04342 -9.98408e-17)
(25.6106 3.05748 -1.47999e-16)
(25.6086 3.07211 2.11928e-16)
(25.6034 3.08562 9.64486e-17)
(25.5915 3.10321 0)
(25.5754 3.10573 -2.8375e-17)
(25.5556 3.15042 2.58466e-16)
(25.5737 3.08764 -2.27006e-16)
(25.609 3.31077 9.83157e-18)
(25.7324 2.91728 -8.8402e-19)
(25.7425 2.44912 -2.11659e-19)
(25.7423 2.45054 1.83978e-19)
(25.7423 2.45105 -3.03845e-19)
(25.7422 2.45227 -1.45246e-19)
(25.7419 2.45333 -3.45073e-20)
(25.7415 2.45454 -1.60131e-20)
(25.741 2.45577 -2.61108e-18)
(25.7404 2.45709 1.17849e-18)
(25.7397 2.45847 1.63695e-19)
(25.7388 2.45992 -1.94516e-18)
(25.7378 2.46146 0)
(25.7367 2.46308 -3.99779e-18)
(25.7354 2.4648 -1.96283e-18)
(25.734 2.46661 -9.72942e-21)
(25.7324 2.46853 -4.72225e-18)
(25.7307 2.47056 4.35698e-18)
(25.7288 2.47272 4.84349e-18)
(25.7268 2.475 -3.98026e-18)
(25.7246 2.47743 -3.26618e-18)
(25.7224 2.48 -2.04808e-18)
(25.7199 2.48273 -5.624e-19)
(25.7174 2.48564 9.34001e-18)
(25.7147 2.48872 1.43517e-19)
(25.7119 2.492 4.49291e-18)
(25.709 2.49548 5.67761e-18)
(25.7059 2.49919 6.90924e-19)
(25.7028 2.50313 -5.08069e-18)
(25.6995 2.50731 -2.08315e-18)
(25.6962 2.51176 -1.03467e-19)
(25.6927 2.51649 1.77754e-18)
(25.6892 2.52151 -6.04488e-19)
(25.6856 2.52684 9.79745e-18)
(25.6819 2.5325 -4.58512e-19)
(25.6782 2.5385 -1.16131e-18)
(25.6744 2.54487 2.14783e-17)
(25.6706 2.55161 6.64185e-18)
(25.6667 2.55874 -1.15175e-17)
(25.6629 2.56628 8.75209e-18)
(25.659 2.57424 4.96876e-19)
(25.6552 2.58265 -9.66444e-18)
(25.6514 2.59151 -9.18744e-18)
(25.6477 2.60083 8.39591e-18)
(25.644 2.61063 1.57634e-17)
(25.6405 2.62092 6.01351e-18)
(25.6371 2.63171 6.55669e-17)
(25.6339 2.64299 -5.72617e-19)
(25.6309 2.65479 -3.59546e-18)
(25.6281 2.66709 -2.03698e-17)
(25.6256 2.67989 5.40749e-17)
(25.6235 2.6932 5.70866e-19)
(25.6217 2.707 -6.39712e-17)
(25.6203 2.72127 -1.358e-18)
(25.6192 2.736 -7.99752e-17)
(25.6184 2.75116 3.52421e-18)
(25.6179 2.76671 2.38648e-17)
(25.6177 2.78262 -1.13806e-17)
(25.6177 2.79887 -4.06008e-17)
(25.6179 2.8154 6.67551e-19)
(25.6185 2.83221 -1.83577e-18)
(25.6194 2.84924 -2.57926e-18)
(25.6207 2.86646 -5.61431e-19)
(25.6222 2.88381 -1.27421e-16)
(25.6238 2.90123 3.9931e-17)
(25.6253 2.91865 1.0418e-16)
(25.6265 2.93602 1.55749e-16)
(25.6273 2.95328 5.34954e-18)
(25.6277 2.97043 -8.94292e-17)
(25.6277 2.9873 -3.13839e-17)
(25.6272 3.00177 -5.39794e-17)
(25.6264 3.01413 8.44324e-17)
(25.6255 3.02723 -2.57518e-17)
(25.6244 3.04079 9.50752e-17)
(25.623 3.05495 2.58956e-16)
(25.6201 3.06967 1.09921e-16)
(25.6138 3.0835 -4.43318e-18)
(25.6006 3.1009 0)
(25.5836 3.10477 3.33943e-17)
(25.564 3.14783 -5.6006e-18)
(25.5848 3.09006 2.18012e-16)
(25.6202 3.30796 7.74914e-17)
(25.7471 2.92188 -9.45485e-19)
(25.7645 2.49609 4.92805e-19)
(25.7642 2.49725 5.27272e-19)
(25.7641 2.4977 -1.49299e-20)
(25.7639 2.4987 -5.18057e-19)
(25.7636 2.4996 3.30911e-20)
(25.7632 2.5006 2.06205e-19)
(25.7627 2.50164 1.22976e-19)
(25.7621 2.50274 8.77322e-21)
(25.7614 2.50389 3.75533e-20)
(25.7605 2.50512 6.17913e-20)
(25.7596 2.50641 0)
(25.7586 2.50777 1.5682e-19)
(25.7574 2.50921 -1.47451e-19)
(25.7561 2.51073 -8.20975e-21)
(25.7547 2.51235 1.05553e-18)
(25.7532 2.51406 -1.0234e-18)
(25.7515 2.51588 -2.87283e-19)
(25.7498 2.5178 1.17412e-19)
(25.7479 2.51985 1.8218e-19)
(25.7459 2.52202 1.25045e-18)
(25.7437 2.52433 1.21061e-18)
(25.7415 2.52678 -3.90068e-19)
(25.7391 2.52939 1.22616e-19)
(25.7367 2.53217 -8.02342e-20)
(25.7341 2.53512 1.16003e-19)
(25.7314 2.53826 -5.79874e-18)
(25.7287 2.54161 5.25949e-19)
(25.7258 2.54517 4.61608e-19)
(25.7228 2.54896 -1.75878e-19)
(25.7198 2.55299 -1.04837e-18)
(25.7166 2.55728 -5.25154e-19)
(25.7134 2.56184 -1.3279e-18)
(25.7101 2.56669 4.98656e-18)
(25.7067 2.57184 -1.01721e-18)
(25.7033 2.57731 -1.47321e-19)
(25.6998 2.58312 -5.53749e-18)
(25.6963 2.58928 1.11943e-17)
(25.6928 2.59581 -6.62715e-18)
(25.6892 2.60273 4.42459e-19)
(25.6856 2.61004 9.31835e-18)
(25.682 2.61778 8.33938e-18)
(25.6784 2.62594 -5.20647e-19)
(25.6749 2.63455 7.15675e-19)
(25.6715 2.64362 -8.22182e-18)
(25.6681 2.65316 -2.9226e-17)
(25.6649 2.66318 -5.24752e-19)
(25.6618 2.67369 -3.31003e-18)
(25.6589 2.6847 3.57041e-18)
(25.6563 2.6962 -1.20597e-17)
(25.6539 2.70821 -1.08497e-18)
(25.6518 2.72071 3.16915e-18)
(25.65 2.73369 2.56353e-17)
(25.6485 2.74715 -1.02301e-17)
(25.6472 2.76106 -4.34353e-19)
(25.6461 2.77539 -2.48003e-17)
(25.6452 2.79012 3.28241e-17)
(25.6445 2.80523 4.30981e-17)
(25.644 2.82069 1.05094e-16)
(25.6438 2.83646 -1.79576e-18)
(25.6439 2.85253 -9.6269e-17)
(25.6443 2.86886 2.4362e-17)
(25.6449 2.88539 2.4474e-18)
(25.6455 2.90206 -5.83597e-17)
(25.646 2.91882 -1.36299e-16)
(25.6462 2.9356 -1.21184e-16)
(25.646 2.95236 7.25153e-17)
(25.6454 2.9691 -3.91805e-18)
(25.6444 2.98565 2.73105e-17)
(25.643 2.99992 -6.87227e-18)
(25.6415 3.01217 1.96198e-19)
(25.64 3.02519 2.03505e-19)
(25.6382 3.03874 -1.09752e-16)
(25.6359 3.05294 -1.06786e-16)
(25.6321 3.06772 -8.25149e-18)
(25.6246 3.08182 -4.68304e-18)
(25.6103 3.09898 0)
(25.5924 3.10422 -2.5362e-17)
(25.5732 3.14549 -6.00024e-18)
(25.5968 3.09311 -1.33084e-16)
(25.6323 3.30507 -7.25619e-17)
(25.7623 2.92724 -1.03174e-18)
(25.7834 2.53906 -5.5914e-19)
(25.7831 2.54001 -1.06644e-19)
(25.7829 2.54039 1.70282e-20)
(25.7826 2.54124 4.63669e-19)
(25.7823 2.54199 -8.32441e-20)
(25.7819 2.54283 -2.20532e-19)
(25.7814 2.5437 1.03396e-19)
(25.7808 2.54463 7.38337e-21)
(25.7801 2.5456 2.49771e-19)
(25.7794 2.54663 1.42959e-18)
(25.7785 2.54772 0)
(25.7776 2.54887 9.43904e-19)
(25.7765 2.55009 -1.34784e-18)
(25.7754 2.55138 -1.03223e-18)
(25.7741 2.55275 1.6855e-18)
(25.7728 2.5542 5.87567e-19)
(25.7714 2.55573 -2.44254e-19)
(25.7698 2.55737 2.87366e-18)
(25.7682 2.5591 2.49124e-18)
(25.7664 2.56095 -1.53084e-18)
(25.7646 2.56291 -4.33396e-19)
(25.7626 2.56499 -6.97311e-18)
(25.7606 2.56721 1.05184e-19)
(25.7585 2.56958 -1.98878e-18)
(25.7562 2.5721 9.98536e-20)
(25.7539 2.57478 5.2541e-19)
(25.7515 2.57763 -2.77229e-19)
(25.749 2.58068 3.99616e-19)
(25.7464 2.58392 6.3817e-21)
(25.7437 2.58737 1.35725e-18)
(25.741 2.59105 -4.5757e-19)
(25.7381 2.59497 -1.15972e-18)
(25.7352 2.59914 -5.60386e-18)
(25.7322 2.60357 -8.92839e-19)
(25.7292 2.6083 -1.29653e-19)
(25.726 2.61332 1.09017e-18)
(25.7229 2.61865 -8.96853e-18)
(25.7196 2.62432 6.84039e-18)
(25.7164 2.63033 3.9408e-19)
(25.7131 2.63671 -1.67007e-17)
(25.7097 2.64347 7.50937e-18)
(25.7064 2.65062 -6.89256e-18)
(25.7031 2.65819 6.4649e-19)
(25.6998 2.66618 -3.37593e-17)
(25.6966 2.67462 5.81893e-18)
(25.6935 2.68351 -4.79768e-19)
(25.6905 2.69286 -3.03923e-18)
(25.6876 2.70269 2.07519e-17)
(25.6849 2.71301 1.16811e-17)
(25.6825 2.72382 4.48666e-19)
(25.6802 2.73511 5.34473e-17)
(25.6782 2.74689 -3.96668e-18)
(25.6764 2.75914 2.10103e-17)
(25.6747 2.77186 1.6467e-17)
(25.6732 2.78503 7.52644e-18)
(25.6718 2.79862 3.47888e-17)
(25.6705 2.81262 2.08712e-17)
(25.6694 2.82701 -1.1819e-16)
(25.6686 2.84177 8.27537e-17)
(25.668 2.85687 1.32792e-16)
(25.6676 2.87229 -2.35967e-17)
(25.6674 2.88797 1.21837e-16)
(25.6672 2.90387 -3.24837e-17)
(25.6668 2.91992 -2.86132e-17)
(25.6661 2.93608 2.85648e-16)
(25.665 2.9523 1.32018e-18)
(25.6634 2.96858 -1.71195e-17)
(25.6615 2.98476 -2.02687e-18)
(25.6593 2.99879 -5.73594e-17)
(25.6572 3.01088 2.02086e-19)
(25.6549 3.0238 -4.59312e-17)
(25.6525 3.03729 1.0006e-16)
(25.6495 3.0515 9.24276e-17)
(25.6447 3.06628 -2.57907e-17)
(25.636 3.08061 -4.93674e-18)
(25.6205 3.0975 0)
(25.6018 3.10414 3.07138e-16)
(25.5833 3.14341 -1.04132e-16)
(25.6096 3.09692 1.23056e-16)
(25.6454 3.30202 2.31474e-18)
(25.7783 2.9334 -4.81921e-16)
(25.8 2.57857 3.65057e-19)
(25.7997 2.57937 -9.09755e-20)
(25.7995 2.57969 1.45347e-20)
(25.7992 2.5804 -3.82956e-19)
(25.7988 2.58104 2.51874e-20)
(25.7984 2.58175 1.53196e-19)
(25.7979 2.58249 8.84747e-20)
(25.7973 2.58327 6.32212e-21)
(25.7967 2.5841 6.94179e-21)
(25.796 2.58497 -8.30118e-20)
(25.7953 2.5859 0)
(25.7944 2.58688 -6.63028e-19)
(25.7935 2.58791 1.06473e-18)
(25.7925 2.58901 1.37661e-18)
(25.7914 2.59017 5.56239e-19)
(25.7903 2.59141 -7.6352e-19)
(25.789 2.59272 -2.10708e-19)
(25.7877 2.59412 -1.76757e-19)
(25.7863 2.5956 -8.79155e-20)
(25.7848 2.59717 9.45464e-19)
(25.7832 2.59885 9.08279e-19)
(25.7815 2.60063 3.46823e-19)
(25.7798 2.60253 2.83433e-18)
(25.778 2.60456 1.79674e-18)
(25.776 2.60671 8.69507e-20)
(25.7741 2.60901 3.16813e-18)
(25.772 2.61146 -6.75223e-18)
(25.7698 2.61407 2.3423e-18)
(25.7676 2.61686 2.86547e-18)
(25.7653 2.61983 5.77028e-18)
(25.7629 2.62299 -8.39672e-18)
(25.7604 2.62637 -1.36431e-17)
(25.7579 2.62996 -2.247e-18)
(25.7552 2.6338 -4.64312e-18)
(25.7525 2.63787 6.41809e-18)
(25.7498 2.64222 8.32823e-18)
(25.747 2.64685 6.57496e-18)
(25.7441 2.65177 -2.86826e-18)
(25.7412 2.657 1.99955e-18)
(25.7382 2.66257 1.62383e-17)
(25.7352 2.66847 -8.6701e-18)
(25.7321 2.67474 1.01315e-17)
(25.7291 2.68139 -2.9141e-18)
(25.726 2.68843 3.12875e-17)
(25.723 2.69588 2.28644e-17)
(25.7201 2.70375 2.97201e-17)
(25.7172 2.71207 -7.23151e-19)
(25.7145 2.72084 3.22788e-17)
(25.7118 2.73007 1.8191e-17)
(25.7094 2.73977 1.70595e-17)
(25.7071 2.74995 -1.39776e-17)
(25.7049 2.76061 -4.43133e-17)
(25.7029 2.77174 4.37472e-17)
(25.701 2.78334 -1.83619e-18)
(25.6992 2.79539 -5.60518e-17)
(25.6974 2.80789 -5.50958e-17)
(25.6957 2.82082 -2.80236e-19)
(25.6942 2.83418 -1.12276e-17)
(25.6928 2.84794 -1.31194e-16)
(25.6916 2.86209 -5.68506e-18)
(25.6907 2.8766 -6.62603e-19)
(25.6898 2.89143 -2.01258e-17)
(25.6888 2.90654 2.85723e-17)
(25.6876 2.92187 1.0159e-17)
(25.6861 2.93737 -1.00276e-17)
(25.6841 2.95302 -2.66301e-18)
(25.6817 2.96882 2.00358e-17)
(25.6789 2.98459 7.04604e-17)
(25.676 2.99834 4.59779e-18)
(25.6733 3.01026 2.07644e-19)
(25.6704 3.02303 4.25506e-17)
(25.6673 3.03644 -3.69083e-18)
(25.6636 3.05063 -7.37203e-18)
(25.6579 3.06538 -8.10588e-18)
(25.648 3.0799 -5.19621e-18)
(25.6312 3.09646 0)
(25.6119 3.10458 -2.71815e-16)
(25.5941 3.14159 1.10703e-16)
(25.6239 3.1017 -7.40767e-17)
(25.6586 3.29863 -4.58479e-18)
(25.7963 2.94055 3.83018e-16)
(25.8186 2.62373 -3.95827e-20)
(25.8183 2.62439 -1.6134e-19)
(25.818 2.62465 -1.03036e-19)
(25.8177 2.62522 8.40699e-20)
(25.8174 2.62574 -7.73147e-20)
(25.817 2.62631 1.28475e-19)
(25.8165 2.62692 9.19318e-19)
(25.8161 2.62756 1.19739e-19)
(25.8155 2.62823 3.45741e-19)
(25.8149 2.62895 -1.28909e-19)
(25.8143 2.6297 0)
(25.8136 2.6305 5.23289e-19)
(25.8128 2.63135 -1.22393e-18)
(25.812 2.63225 4.8763e-21)
(25.8111 2.63321 -1.78162e-18)
(25.8101 2.63422 -1.12602e-18)
(25.8091 2.6353 -1.35738e-18)
(25.808 2.63645 -1.08463e-18)
(25.8069 2.63767 -4.38281e-19)
(25.8056 2.63896 -2.44144e-18)
(25.8044 2.64035 3.432e-18)
(25.803 2.64182 1.75058e-18)
(25.8016 2.64339 -3.24162e-19)
(25.8001 2.64506 -3.01737e-19)
(25.7985 2.64684 9.99234e-19)
(25.7969 2.64874 1.03625e-18)
(25.7952 2.65077 3.12868e-18)
(25.7935 2.65293 2.29559e-18)
(25.7916 2.65525 -3.54991e-18)
(25.7897 2.65771 -5.32564e-18)
(25.7877 2.66034 2.40406e-18)
(25.7857 2.66315 1.56572e-18)
(25.7836 2.66614 1.04169e-18)
(25.7814 2.66934 -8.46967e-18)
(25.7791 2.67274 -7.75855e-18)
(25.7768 2.67639 -1.44523e-18)
(25.7744 2.68027 5.77913e-18)
(25.7719 2.6844 3.40972e-18)
(25.7694 2.6888 -8.61723e-18)
(25.7668 2.6935 -1.22084e-17)
(25.7642 2.69849 1.0681e-18)
(25.7615 2.70381 -1.68941e-17)
(25.7588 2.70947 7.58607e-18)
(25.7561 2.71547 -1.54495e-17)
(25.7534 2.72185 1.45254e-17)
(25.7507 2.72861 -4.65252e-17)
(25.7481 2.73577 2.52947e-19)
(25.7455 2.74337 4.74041e-18)
(25.743 2.75139 -3.84636e-17)
(25.7406 2.75985 -1.76994e-17)
(25.7383 2.76878 -2.9758e-17)
(25.7361 2.77816 -7.59004e-18)
(25.7339 2.788 -5.4205e-17)
(25.7318 2.79831 -4.33162e-17)
(25.7297 2.80907 5.18432e-17)
(25.7275 2.82029 3.86061e-17)
(25.7254 2.83196 -1.94952e-17)
(25.7234 2.84408 6.91833e-17)
(25.7215 2.85665 9.87153e-17)
(25.7197 2.86966 -1.31486e-17)
(25.7181 2.88306 3.29085e-17)
(25.7164 2.89686 -1.10085e-16)
(25.7146 2.91098 -5.63697e-17)
(25.7125 2.92541 1.1479e-16)
(25.7099 2.9401 -2.40508e-16)
(25.707 2.95502 -3.24478e-17)
(25.7036 2.97018 1.22865e-16)
(25.6998 2.98542 -1.07821e-16)
(25.696 2.99881 4.55492e-17)
(25.6926 3.01047 1.14636e-17)
(25.689 3.02304 -5.12517e-18)
(25.6851 3.03631 -1.37982e-16)
(25.6805 3.05041 -1.57766e-16)
(25.6736 3.06509 -1.0037e-16)
(25.6622 3.07977 -6.96316e-17)
(25.644 3.09588 0)
(25.6239 3.10586 2.38365e-16)
(25.6073 3.1398 -1.54939e-16)
(25.6401 3.1082 -1.90101e-16)
(25.6748 3.29466 1.27453e-16)
(25.8136 2.9483 1.39843e-16)
(25.8379 2.6711 -1.54225e-19)
(25.8376 2.6716 -2.82137e-19)
(25.8374 2.67182 3.44856e-19)
(25.8371 2.67227 -2.60398e-20)
(25.8368 2.67268 -5.4537e-20)
(25.8365 2.67315 -3.49892e-19)
(25.8361 2.67363 -2.64214e-19)
(25.8357 2.67414 1.37092e-19)
(25.8353 2.67468 -3.1769e-19)
(25.8348 2.67526 -5.3445e-19)
(25.8343 2.67586 0)
(25.8337 2.67651 3.58711e-19)
(25.8332 2.67719 4.46519e-19)
(25.8325 2.67791 1.71981e-19)
(25.8318 2.67868 1.6572e-19)
(25.8311 2.6795 5.76808e-19)
(25.8303 2.68037 -3.92243e-19)
(25.8295 2.68129 -4.14984e-19)
(25.8286 2.68228 9.99984e-20)
(25.8277 2.68332 1.11901e-18)
(25.8268 2.68444 -2.79554e-18)
(25.8257 2.68563 -8.6391e-19)
(25.8247 2.68689 2.53788e-19)
(25.8235 2.68824 -5.30756e-19)
(25.8224 2.68969 -2.11047e-18)
(25.8211 2.69122 -1.68098e-18)
(25.8199 2.69287 -2.05127e-18)
(25.8185 2.69461 9.45422e-19)
(25.8171 2.69649 -2.41869e-18)
(25.8156 2.69848 2.02311e-18)
(25.8141 2.70061 1.92955e-18)
(25.8125 2.70289 1.10556e-18)
(25.8109 2.70533 -6.63614e-19)
(25.8092 2.70793 1.05797e-18)
(25.8074 2.7107 -8.4447e-19)
(25.8055 2.71367 -4.00005e-18)
(25.8036 2.71684 -7.50739e-18)
(25.8016 2.72022 -5.32347e-18)
(25.7995 2.72383 1.14901e-17)
(25.7974 2.72769 1.87286e-17)
(25.7952 2.7318 -1.08225e-17)
(25.793 2.73619 1.10487e-17)
(25.7907 2.74087 1.15598e-18)
(25.7884 2.74585 7.80415e-18)
(25.7861 2.75117 -1.73113e-17)
(25.7837 2.75682 2.59454e-17)
(25.7814 2.76284 -8.66266e-18)
(25.7791 2.76924 2.65176e-18)
(25.7769 2.77603 3.75281e-17)
(25.7747 2.78323 -1.27395e-17)
(25.7725 2.79086 5.73796e-18)
(25.7703 2.7989 2.94714e-17)
(25.768 2.80739 -2.79391e-17)
(25.7657 2.81633 4.73979e-17)
(25.7634 2.82572 -3.04908e-17)
(25.761 2.83556 1.19876e-17)
(25.7585 2.84586 5.10077e-17)
(25.756 2.85664 -5.39284e-17)
(25.7537 2.86788 -7.07367e-17)
(25.7513 2.87961 -3.74127e-17)
(25.749 2.89178 -9.83794e-17)
(25.7466 2.90439 4.74473e-17)
(25.7439 2.91739 2.32643e-17)
(25.7408 2.93077 -5.84715e-18)
(25.7373 2.9445 1.17817e-16)
(25.7334 2.95856 -9.74436e-18)
(25.7289 2.97295 -1.84352e-16)
(25.724 2.98755 9.6346e-17)
(25.7193 3.00047 6.37825e-17)
(25.7151 3.01181 -3.27853e-18)
(25.7107 3.0241 3.77097e-17)
(25.7059 3.03717 -2.86371e-18)
(25.7002 3.05113 2.92278e-17)
(25.6919 3.06569 -4.38535e-17)
(25.6787 3.08047 -1.44656e-18)
(25.659 3.09612 0)
(25.638 3.10801 -2.18589e-16)
(25.6235 3.13883 1.66899e-16)
(25.6578 3.11598 3.83116e-17)
(25.6962 3.29186 -1.21554e-16)
(25.8265 2.95758 9.32056e-17)
(25.8545 2.71137 7.39431e-20)
(25.8542 2.71177 7.49427e-21)
(25.854 2.71196 -1.6854e-19)
(25.8538 2.71233 -4.57258e-20)
(25.8536 2.71266 -2.87584e-20)
(25.8533 2.71304 -2.41826e-20)
(25.853 2.71343 -4.65716e-20)
(25.8527 2.71385 -1.93284e-19)
(25.8524 2.7143 1.82454e-19)
(25.852 2.71476 4.44399e-19)
(25.8516 2.71526 0)
(25.8512 2.71579 -6.33915e-20)
(25.8508 2.71635 2.52943e-19)
(25.8503 2.71694 -1.73986e-19)
(25.8498 2.71758 6.36769e-19)
(25.8493 2.71825 -8.2515e-19)
(25.8487 2.71896 6.79621e-19)
(25.8481 2.71973 -1.46442e-19)
(25.8475 2.72053 7.04932e-20)
(25.8468 2.72139 -3.52431e-19)
(25.8461 2.72232 1.57288e-18)
(25.8454 2.7233 1.48148e-18)
(25.8446 2.72434 1.40494e-19)
(25.8438 2.72545 5.9339e-19)
(25.8429 2.72664 2.05578e-18)
(25.842 2.7279 1.6877e-18)
(25.8411 2.72926 1.08573e-18)
(25.8401 2.7307 -4.14631e-18)
(25.839 2.73225 4.11677e-18)
(25.838 2.7339 1.78571e-18)
(25.8368 2.73566 -3.66112e-18)
(25.8356 2.73754 2.07601e-19)
(25.8344 2.73957 -1.49267e-18)
(25.8331 2.74171 4.87542e-18)
(25.8317 2.74402 3.15618e-18)
(25.8303 2.74648 -5.81504e-19)
(25.8288 2.74911 -7.73358e-19)
(25.8272 2.75192 2.32843e-18)
(25.8256 2.75493 2.21517e-19)
(25.8239 2.75814 -6.70974e-18)
(25.8222 2.76158 4.29107e-18)
(25.8204 2.76526 3.27696e-18)
(25.8185 2.76918 -6.57407e-18)
(25.8166 2.77338 -2.32432e-18)
(25.8147 2.77787 -3.16299e-18)
(25.8128 2.78265 -1.0235e-18)
(25.8109 2.78776 -5.44448e-18)
(25.8089 2.7932 -5.9849e-18)
(25.807 2.79901 -2.28934e-17)
(25.8051 2.80518 2.06719e-17)
(25.8031 2.81174 2.98206e-17)
(25.801 2.8187 -2.93571e-17)
(25.7989 2.82606 3.40908e-17)
(25.7966 2.83385 -2.30303e-17)
(25.7942 2.84207 2.54769e-17)
(25.7917 2.85074 -4.24818e-17)
(25.7891 2.85987 -3.34904e-17)
(25.7865 2.86947 3.33589e-17)
(25.7839 2.87955 1.19972e-17)
(25.7812 2.89014 -1.47404e-17)
(25.7784 2.90119 9.76518e-17)
(25.7755 2.91271 -5.41155e-18)
(25.7722 2.92468 8.4974e-18)
(25.7684 2.93708 2.52949e-17)
(25.7641 2.94989 8.43694e-19)
(25.7593 2.96313 9.8511e-17)
(25.754 2.97677 1.52247e-16)
(25.7482 2.99073 -7.55673e-17)
(25.7428 3.00317 -4.94867e-18)
(25.738 3.01418 -1.35454e-17)
(25.7329 3.02618 8.37753e-18)
(25.7273 3.03902 8.11737e-18)
(25.7205 3.0528 4.05238e-17)
(25.7109 3.06721 4.18454e-17)
(25.696 3.08201 -2.63073e-17)
(25.6748 3.09733 0)
(25.6531 3.11095 -4.70546e-17)
(25.6412 3.1392 -1.68914e-16)
(25.6766 3.12449 9.1791e-17)
(25.7196 3.2911 1.65511e-16)
(25.8383 2.96922 -8.97525e-17)
(25.8696 2.74564 -7.44205e-20)
(25.8698 2.74551 7.89817e-20)
(25.8694 2.74598 -1.94079e-21)
(25.8693 2.74614 -8.11979e-21)
(25.8691 2.74644 8.33151e-20)
(25.8689 2.74673 7.68314e-20)
(25.8687 2.74704 9.95112e-20)
(25.8685 2.74737 9.03153e-20)
(25.8683 2.74772 -1.30106e-19)
(25.8681 2.7481 -1.32909e-19)
(25.8678 2.74849 -3.45237e-19)
(25.8676 2.74891 0)
(25.8673 2.74935 -6.44452e-21)
(25.867 2.74982 -3.69592e-19)
(25.8667 2.75032 -5.28491e-19)
(25.8663 2.75085 -5.66546e-19)
(25.8659 2.75142 5.2798e-19)
(25.8656 2.75202 -2.99804e-19)
(25.8652 2.75266 5.83782e-19)
(25.8647 2.75334 3.37127e-20)
(25.8643 2.75406 3.56902e-20)
(25.8638 2.75484 -6.97862e-19)
(25.8633 2.75566 -4.67048e-19)
(25.8627 2.75654 -1.51578e-18)
(25.8622 2.75747 -5.30299e-20)
(25.8616 2.75847 2.31391e-20)
(25.8609 2.75954 1.1326e-18)
(25.8603 2.76068 8.19457e-19)
(25.8596 2.76189 8.02019e-19)
(25.8589 2.76319 -1.95452e-18)
(25.8581 2.76458 -1.71888e-19)
(25.8573 2.76606 2.88046e-18)
(25.8564 2.76764 -2.05044e-18)
(25.8555 2.76934 -3.9781e-19)
(25.8545 2.77115 -6.24042e-19)
(25.8535 2.77309 5.60173e-19)
(25.8525 2.77517 2.07358e-18)
(25.8514 2.77739 8.10411e-19)
(25.8502 2.77976 9.94501e-19)
(25.849 2.78231 -1.39504e-18)
(25.8477 2.78503 3.68701e-19)
(25.8463 2.78795 1.56676e-18)
(25.845 2.79107 -4.66651e-18)
(25.8435 2.79441 7.60833e-18)
(25.8421 2.79799 1.48109e-18)
(25.8406 2.80182 3.80866e-18)
(25.8391 2.80593 -2.62255e-18)
(25.8375 2.81032 -1.00666e-17)
(25.836 2.81501 -1.08887e-17)
(25.8344 2.82003 7.12602e-18)
(25.8327 2.82538 -8.39511e-18)
(25.831 2.83108 -1.7922e-17)
(25.8292 2.83715 7.77289e-18)
(25.8272 2.84359 -7.007e-18)
(25.8251 2.85043 4.00516e-18)
(25.8228 2.85769 -2.30416e-17)
(25.8203 2.86537 4.03038e-17)
(25.8178 2.87351 -9.06191e-18)
(25.8151 2.88212 -1.92532e-17)
(25.8124 2.89121 -2.90974e-17)
(25.8096 2.9008 -4.7058e-19)
(25.8066 2.91087 -2.54078e-17)
(25.8033 2.92144 8.24395e-18)
(25.7995 2.93248 -3.54784e-17)
(25.7952 2.944 -3.04649e-17)
(25.7904 2.95599 8.75557e-18)
(25.785 2.96845 -3.04072e-17)
(25.7791 2.98139 -7.27909e-17)
(25.7725 2.99475 3.80523e-17)
(25.7665 3.00675 -4.27673e-17)
(25.7612 3.01743 9.06158e-18)
(25.7556 3.02914 -4.67602e-17)
(25.7494 3.04176 1.37352e-17)
(25.7416 3.05535 -6.22914e-17)
(25.7306 3.06963 -4.93696e-17)
(25.714 3.08441 2.40103e-17)
(25.6916 3.09953 0)
(25.6697 3.11476 6.31238e-17)
(25.6607 3.141 -4.38355e-17)
(25.6974 3.13406 1.26649e-16)
(25.7446 3.29222 -9.19951e-17)
(25.8514 2.98384 -1.11322e-16)
(25.8835 2.77452 -1.22743e-19)
(25.8837 2.77438 -1.50055e-19)
(25.8834 2.77481 2.75713e-20)
(25.8833 2.77496 1.18952e-20)
(25.8832 2.77522 3.31866e-20)
(25.8831 2.77547 3.08808e-20)
(25.883 2.77574 7.08805e-20)
(25.8829 2.77603 1.75654e-21)
(25.8828 2.77633 1.22452e-19)
(25.8826 2.77666 -2.19604e-20)
(25.8825 2.777 7.61495e-21)
(25.8823 2.77736 0)
(25.8822 2.77775 5.22272e-20)
(25.882 2.77815 2.55736e-19)
(25.8818 2.77859 1.54724e-19)
(25.8816 2.77905 1.24315e-19)
(25.8814 2.77954 3.47856e-20)
(25.8812 2.78006 -9.41786e-20)
(25.8809 2.78062 -3.49727e-19)
(25.8807 2.78121 2.54572e-21)
(25.8804 2.78183 1.54363e-19)
(25.8801 2.7825 -2.49123e-19)
(25.8798 2.78321 1.22099e-20)
(25.8795 2.78398 -1.05219e-19)
(25.8791 2.78478 -3.63128e-19)
(25.8788 2.78565 -3.58834e-19)
(25.8784 2.78656 -1.0008e-18)
(25.878 2.78755 -7.0134e-19)
(25.8775 2.78859 1.78949e-18)
(25.8771 2.78971 4.57448e-19)
(25.8766 2.79091 -1.60404e-18)
(25.876 2.79218 -9.32967e-19)
(25.8755 2.79355 2.33986e-18)
(25.8749 2.79501 -7.22794e-19)
(25.8743 2.79657 9.74846e-19)
(25.8736 2.79824 -9.0293e-19)
(25.8729 2.80002 -8.65735e-19)
(25.8721 2.80193 3.36158e-18)
(25.8713 2.80398 4.69918e-19)
(25.8704 2.80618 -2.51349e-18)
(25.8695 2.80852 -2.64655e-18)
(25.8686 2.81104 2.49286e-18)
(25.8676 2.81374 1.47549e-18)
(25.8666 2.81664 -3.56203e-18)
(25.8655 2.81974 5.77198e-18)
(25.8644 2.82307 -5.69371e-18)
(25.8633 2.82665 -3.05069e-18)
(25.8622 2.83047 -1.22222e-18)
(25.861 2.83458 5.58747e-19)
(25.8598 2.83897 -2.83338e-18)
(25.8585 2.84366 -1.03069e-17)
(25.857 2.84868 1.47979e-17)
(25.8555 2.85403 -7.05949e-18)
(25.8537 2.85973 -4.08117e-18)
(25.8518 2.86581 -1.06028e-17)
(25.8497 2.87228 6.91465e-18)
(25.8474 2.87915 -1.848e-17)
(25.845 2.88648 5.45894e-18)
(25.8424 2.89426 1.14668e-17)
(25.8397 2.90252 2.10674e-17)
(25.8369 2.91127 -4.83261e-19)
(25.8338 2.92051 -8.81e-18)
(25.8302 2.93025 -3.03515e-18)
(25.8262 2.94049 2.83242e-17)
(25.8216 2.95124 4.6154e-17)
(25.8164 2.9625 -1.00284e-17)
(25.8106 2.97429 -5.23504e-19)
(25.8041 2.9866 -8.48545e-18)
(25.797 2.99941 -4.54989e-17)
(25.7906 3.01101 1.82433e-17)
(25.785 3.02141 -1.23718e-18)
(25.7789 3.03286 3.8933e-18)
(25.7721 3.04526 7.07914e-17)
(25.7634 3.05867 3.19192e-17)
(25.751 3.07283 2.07899e-17)
(25.7329 3.08759 2.67325e-17)
(25.7095 3.10267 0)
(25.6879 3.11943 6.52514e-17)
(25.6822 3.14424 -3.23402e-18)
(25.7207 3.14484 -3.2471e-17)
(25.7713 3.2951 -4.22531e-17)
(25.8659 3.00185 -9.49755e-17)
(25.8977 2.79838 -1.8394e-20)
(25.8977 2.79824 3.34936e-21)
(25.8976 2.79863 -1.02307e-19)
(25.8976 2.79877 4.19899e-20)
(25.8976 2.799 5.81686e-21)
(25.8975 2.79921 -8.36417e-20)
(25.8975 2.79945 -1.05976e-19)
(25.8974 2.7997 -8.54828e-20)
(25.8974 2.79997 -5.90355e-20)
(25.8973 2.80026 3.5428e-20)
(25.8973 2.80056 2.75841e-20)
(25.8972 2.80088 0)
(25.8972 2.80122 -1.59804e-19)
(25.8971 2.80158 -5.77094e-20)
(25.897 2.80196 2.57013e-19)
(25.8969 2.80237 7.83617e-20)
(25.8968 2.8028 2.11218e-19)
(25.8967 2.80326 2.49814e-19)
(25.8966 2.80375 7.44311e-20)
(25.8965 2.80427 -2.63349e-19)
(25.8964 2.80483 -1.3577e-19)
(25.8963 2.80542 3.00985e-19)
(25.8962 2.80605 1.86359e-19)
(25.896 2.80672 3.08927e-19)
(25.8959 2.80744 -2.2909e-20)
(25.8957 2.8082 -2.17326e-19)
(25.8955 2.80901 -8.25962e-19)
(25.8953 2.80988 5.62262e-19)
(25.8951 2.81081 -8.03058e-19)
(25.8948 2.8118 3.40613e-19)
(25.8946 2.81286 -9.18183e-21)
(25.8943 2.81399 8.99645e-19)
(25.894 2.8152 -8.64004e-19)
(25.8937 2.81649 1.39749e-18)
(25.8933 2.81787 -2.73186e-19)
(25.8929 2.81934 -5.73463e-19)
(25.8925 2.82093 9.26814e-19)
(25.892 2.82262 -4.648e-19)
(25.8915 2.82443 1.17475e-18)
(25.891 2.82638 1.25841e-18)
(25.8904 2.82846 1.45566e-18)
(25.8898 2.83069 -5.05796e-19)
(25.8892 2.83309 -1.28283e-18)
(25.8886 2.83566 -1.18083e-18)