# static(p)_coeff  POINT_DATA 156
# x y z  static(p)_coeff
-17.5492 0.306481 0.05 0.345188
-17.5492 0.306481 0 0.345188
-17.5472 0.397851 0 0.179316
-17.5472 0.397851 0.05 0.179316
-17.5391 0.49775 0 -0.00946648
-17.5391 0.49775 0.05 -0.00946648
-17.5189 0.60624 0 -0.218739
-17.5189 0.60624 0.05 -0.218739
-17.4861 0.723342 0 -0.428512
-17.4861 0.723342 0.05 -0.428512
-17.44 0.848679 0 -0.639159
-17.44 0.848679 0.05 -0.639159
-17.377 0.981445 0 -0.846685
-17.377 0.981445 0.05 -0.846685
-17.2959 1.12134 0 -1.03495
-17.2959 1.12134 0.05 -1.03495
-17.1951 1.26784 0 -1.20319
-17.1951 1.26784 0.05 -1.20319
-17.0722 1.42 0 -1.35008
-17.0722 1.42 0.05 -1.35008
-16.9255 1.57744 0 -1.47217
-16.9255 1.57744 0.05 -1.47217
-16.7528 1.73942 0 -1.5722
-16.7528 1.73942 0.05 -1.5722
-16.5519 1.90501 0 -1.65152
-16.5519 1.90501 0.05 -1.65152
-16.3202 2.07341 0 -1.71139
-16.3202 2.07341 0.05 -1.71139
-16.0549 2.24347 0 -1.75386
-16.0549 2.24347 0.05 -1.75386
-15.753 2.41374 0 -1.77947
-15.753 2.41374 0.05 -1.77947
-15.4112 2.58276 0 -1.78852
-15.4112 2.58276 0.05 -1.78852
-15.0259 2.74838 0 -1.78025
-15.0259 2.74838 0.05 -1.78025
-14.5933 2.90861 0 -1.75408
-14.5933 2.90861 0.05 -1.75408
-14.1092 3.06066 0 -1.71036
-14.1092 3.06066 0.05 -1.71036
-13.5691 3.20201 0 -1.65036
-13.5691 3.20201 0.05 -1.65036
-12.9684 3.32943 0 -1.5783
-12.9684 3.32943 0.05 -1.5783
-12.3022 3.44054 0 -1.50094
-12.3022 3.44054 0.05 -1.50094
-11.5649 3.53289 0 -1.42302
-11.5649 3.53289 0.05 -1.42302
-10.7508 3.60555 0 -1.3362
-10.7508 3.60555 0.05 -1.3362
-9.85332 3.65883 0 -1.23101
-9.85332 3.65883 0.05 -1.23101
-8.86484 3.69086 0 -1.11226
-8.86484 3.69086 0.05 -1.11226
-7.77697 3.69778 0 -0.993309
-7.77697 3.69778 0.05 -0.993309
-6.58048 3.6759 0 -0.883154
-6.58048 3.6759 0.05 -0.883154
-5.26526 3.62108 0 -0.781524
-5.26526 3.62108 0.05 -0.781524
-3.82021 3.52882 0 -0.683359
-3.82021 3.52882 0.05 -0.683359
-2.23308 3.39439 0 -0.585531
-2.23308 3.39439 0.05 -0.585531
-0.490443 3.2127 0 -0.48718
-0.490443 3.2127 0.05 -0.48718
1.42254 2.97825 0 -0.387631
1.42254 2.97825 0.05 -0.387631
3.5222 2.68501 0 -0.287036
3.5222 2.68501 0.05 -0.287036
5.82644 2.32599 0 -0.18506
5.82644 2.32599 0.05 -0.18506
8.3548 1.89256 0 -0.0903079
8.3548 1.89256 0.05 -0.0903079
11.1283 1.37286 0 -0.00176271
11.1283 1.37286 0.05 -0.00176271
14.1695 0.751658 0 0.0536137
14.1695 0.751658 0.05 0.0536137
17.5 -5.0487e-06 0 0.0642569
17.5 -5.0487e-06 0.05 0.0642569
-17.5422 0.216644 0.05 0.497335
-17.5422 0.216644 0 0.497335
-17.529 0.118651 0.05 0.642868
-17.529 0.118651 0 0.642868
-17.5035 0.0128145 0.05 0.779281
-17.5035 0.0128145 0 0.779281
-17.4639 -0.100298 0.05 0.890505
-17.4639 -0.100298 0 0.890505
-17.4081 -0.21963 0.05 0.962974
-17.4081 -0.21963 0 0.962974
-17.3329 -0.343474 0.05 0.993787
-17.3329 -0.343474 0 0.993787
-17.2353 -0.469453 0.05 0.990446
-17.2353 -0.469453 0 0.990446
-17.1135 -0.595699 0.05 0.95462
-17.1135 -0.595699 0 0.95462
-16.967 -0.721197 0.05 0.889744
-16.967 -0.721197 0 0.889744
-16.7942 -0.84439 0.05 0.809737
-16.7942 -0.84439 0 0.809737
-16.5941 -0.964642 0.05 0.727019
-16.5941 -0.964642 0 0.727019
-16.3659 -1.08228 0.05 0.647604
-16.3659 -1.08228 0 0.647604
-16.1079 -1.19749 0.05 0.573922
-16.1079 -1.19749 0 0.573922
-15.8184 -1.31053 0.05 0.507582
-15.8184 -1.31053 0 0.507582
-15.4954 -1.42239 0.05 0.447938
-15.4954 -1.42239 0 0.447938
-15.1361 -1.53339 0.05 0.393328
-15.1361 -1.53339 0 0.393328
-14.7376 -1.64422 0.05 0.342554
-14.7376 -1.64422 0 0.342554
-14.2963 -1.75519 0.05 0.294172
-14.2963 -1.75519 0 0.294172
-13.8084 -1.86663 0.05 0.246807
-13.8084 -1.86663 0 0.246807
-13.2692 -1.97821 0.05 0.199436
-13.2692 -1.97821 0 0.199436
-12.6739 -2.08937 0.05 0.151513
-12.6739 -2.08937 0 0.151513
-12.0167 -2.19857 0.05 0.102661
-12.0167 -2.19857 0 0.102661
-11.2914 -2.30322 0.05 0.0537667
-11.2914 -2.30322 0 0.0537667
-10.491 -2.39854 0.05 0.00858275
-10.491 -2.39854 0 0.00858275
-9.60806 -2.48004 0.05 -0.0280513
-9.60806 -2.48004 0 -0.0280513
-8.63486 -2.54503 0.05 -0.056202
-8.63486 -2.54503 0 -0.056202
-7.56293 -2.59043 0.05 -0.0782439
-7.56293 -2.59043 0 -0.0782439
-6.38295 -2.61298 0.05 -0.094484
-6.38295 -2.61298 0 -0.094484
-5.08474 -2.60901 0.05 -0.10494
-5.08474 -2.60901 0 -0.10494
-3.65712 -2.57462 0.05 -0.110134
-3.65712 -2.57462 0 -0.110134
-2.08779 -2.50566 0.05 -0.110665
-2.08779 -2.50566 0 -0.110665
-0.363235 -2.39771 0.05 -0.106972
-0.363235 -2.39771 0 -0.106972
1.53142 -2.24595 0.05 -0.0992839
1.53142 -2.24595 0 -0.0992839
3.61256 -2.0451 0.05 -0.0877249
3.61256 -2.0451 0 -0.0877249
5.89814 -1.78898 0.05 -0.0719344
5.89814 -1.78898 0 -0.0719344
8.40781 -1.46986 0.05 -0.0509217
8.40781 -1.46986 0 -0.0509217
11.1628 -1.07688 0.05 -0.0194027
11.1628 -1.07688 0 -0.0194027
14.1859 -0.596043 0.05 0.0326488
14.1859 -0.596043 0 0.0326488
