/*--------------------------------*- C++ -*----------------------------------*\
| =========                 |                                                 |
| \\      /  F ield         | OpenFOAM: The Open Source CFD Toolbox           |
|  \\    /   O peration     | Version:  2506                                  |
|   \\  /    A nd           | Website:  www.openfoam.com                      |
|    \\/     M anipulation  |                                                 |
\*---------------------------------------------------------------------------*/
FoamFile
{
    version     2.0;
    format      ascii;
    arch        "LSB;label=32;scalar=64";
    class       volScalarField;
    location    "17";
    object      p;
}
// * * * * * * * * * * * * * * * * * * * * * * * * * * * * * * * * * * * * * //

dimensions      [0 2 -2 0 0 0 0];

internalField   nonuniform List<scalar> 
400
(
1.38644e-09
-0.000113379
-0.000343792
-0.000669982
-0.0010794
-0.00153645
-0.00195896
-0.0022028
-0.0021063
-0.00153524
-0.000404477
0.00128114
0.00333735
0.00517751
0.00617525
0.00600456
0.00476395
0.00340944
0.00255046
0.00242704
0.000112602
-1.36731e-05
-0.000192984
-0.000440158
-0.000753581
-0.00113796
-0.00158351
-0.00201282
-0.00224509
-0.0020332
-0.00116961
0.000377664
0.00231885
0.00415109
0.00523855
0.0051994
0.00417584
0.00285182
0.00216698
0.00214978
0.000347201
0.000179034
-9.11344e-06
-0.000291687
-0.000737556
-0.00141766
-0.00233907
-0.00337462
-0.00424656
-0.00458457
-0.00408404
-0.00271321
-0.000733393
0.00139584
0.00303866
0.0036538
0.00318343
0.00219644
0.00137173
0.00127471
0.000583438
0.000344121
8.26236e-05
-0.000400013
-0.00127224
-0.00265741
-0.00451588
-0.00657998
-0.00841914
-0.00956578
-0.00967352
-0.00869115
-0.00678937
-0.00429209
-0.00173844
0.000251221
0.00122474
0.00118165
0.00053876
-4.88679e-05
0.00058572
0.000261867
-0.000174922
-0.0010786
-0.00270941
-0.00517368
-0.0082945
-0.0116114
-0.014558
-0.0166405
-0.0175376
-0.017118
-0.0154379
-0.0126926
-0.00923936
-0.00561858
-0.00254247
-0.000691803
-0.000360563
-0.00190894
0.000117694
-0.000315534
-0.0010383
-0.00255718
-0.00517363
-0.00889553
-0.0133234
-0.0177819
-0.021622
-0.0243989
-0.0258833
-0.0259536
-0.0246034
-0.0219569
-0.0181515
-0.013413
-0.00830718
-0.00403867
-0.00223511
-0.00418509
-0.000977415
-0.00153724
-0.00261498
-0.00482834
-0.00844496
-0.0133098
-0.0187715
-0.0239878
-0.0283019
-0.0313618
-0.0330515
-0.033354
-0.0323
-0.0299766
-0.0263891
-0.0214429
-0.0152564
-0.00894525
-0.00523299
-0.00568695
-0.00269168
-0.00336933
-0.00479518
-0.00762769
-0.0120504
-0.0177392
-0.0238335
-0.0294071
-0.0338634
-0.0369615
-0.0386703
-0.039038
-0.0381502
-0.0361029
-0.032901
-0.0283358
-0.0221302
-0.0147619
-0.00875675
-0.00605579
-0.00483653
-0.00558429
-0.00728122
-0.0105497
-0.015484
-0.0216375
-0.0280219
-0.0336996
-0.0381573
-0.0412371
-0.0429442
-0.0433325
-0.0424966
-0.0405626
-0.0376303
-0.0335825
-0.0279654
-0.0205693
-0.0129187
-0.00749666
-0.00710794
-0.00785365
-0.00970397
-0.0131858
-0.0183295
-0.0246442
-0.0310979
-0.036778
-0.0412322
-0.0443382
-0.0460913
-0.0465095
-0.045661
-0.0436946
-0.0408266
-0.0371293
-0.0322534
-0.0255522
-0.0177302
-0.0108292
-0.00919909
-0.00987355
-0.0117426
-0.0152206
-0.0203083
-0.026548
-0.0329356
-0.0385937
-0.0430838
-0.0462688
-0.048106
-0.0485647
-0.0476709
-0.0455854
-0.0426217
-0.0390568
-0.0348139
-0.0290676
-0.022054
-0.0148444
-0.0108895
-0.0114296
-0.0131874
-0.0164517
-0.0212519
-0.0272083
-0.03342
-0.0390465
-0.0436074
-0.0469025
-0.0488352
-0.049333
-0.0483777
-0.0461418
-0.0430005
-0.0394053
-0.0356202
-0.0307187
-0.0247108
-0.0176912
-0.0121114
-0.0124381
-0.0139156
-0.0167704
-0.0210799
-0.0265679
-0.0324961
-0.0380607
-0.0427022
-0.0461191
-0.0481434
-0.0486691
-0.0476613
-0.0452871
-0.0419579
-0.0382094
-0.0347132
-0.0303378
-0.0251619
-0.0183077
-0.012877
-0.0129345
-0.0139466
-0.0161573
-0.0197619
-0.0246249
-0.0301705
-0.0356261
-0.0403408
-0.0438918
-0.0460239
-0.046589
-0.0455558
-0.0430676
-0.0395757
-0.0357012
-0.0321944
-0.0280225
-0.0237069
-0.0164698
-0.0132462
-0.0130185
-0.0133976
-0.0147428
-0.0174501
-0.0215485
-0.0266131
-0.0319018
-0.036676
-0.0403827
-0.0426664
-0.0433245
-0.0423118
-0.039757
-0.0361448
-0.0321158
-0.028421
-0.0242902
-0.0211352
-0.0121327
-0.0133273
-0.0128418
-0.0123725
-0.0126541
-0.0143393
-0.0176039
-0.0221356
-0.0272202
-0.0320497
-0.0359473
-0.0384507
-0.0392886
-0.0384057
-0.0358753
-0.0321911
-0.0279626
-0.0239563
-0.0196982
-0.0173639
-0.00390109
-0.0131971
-0.0125288
-0.0110109
-0.0101493
-0.0108205
-0.0133046
-0.017348
-0.0222459
-0.0271499
-0.0312827
-0.0340854
-0.0351947
-0.0345217
-0.0321596
-0.0284405
-0.0238822
-0.0191713
-0.013998
-0.00945235
0.0133028
-0.0138162
-0.01225
-0.00919373
-0.00721078
-0.00708407
-0.00904146
-0.0127934
-0.017619
-0.022673
-0.0271104
-0.0303183
-0.0318387
-0.0315215
-0.0293317
-0.0255165
-0.0202644
-0.0137883
-0.0045829
0.0105459
0.0516033
-0.0117438
-0.0123975
-0.00782159
-0.00464757
-0.00393632
-0.00566971
-0.00937263
-0.0142708
-0.0195524
-0.0243221
-0.0279695
-0.0299573
-0.0301046
-0.0281561
-0.0240371
-0.0169825
-0.00587609
0.0144027
0.0527172
0.122841
-0.0294341
-0.0119321
-0.00363729
-0.000666253
-0.000576328
-0.00266564
-0.00659997
-0.011719
-0.0172405
-0.0222709
-0.0261959
-0.0284749
-0.0288878
-0.0270036
-0.0222055
-0.0124268
0.00653548
0.0451551
0.115478
0.219425
)
;

boundaryField
{
    movingWall
    {
        type            zeroGradient;
    }
    fixedWalls
    {
        type            zeroGradient;
    }
    frontAndBack
    {
        type            empty;
    }
}


// ************************************************************************* //
