/*--------------------------------*- C++ -*----------------------------------*\
| =========                 |                                                 |
| \\      /  F ield         | OpenFOAM: The Open Source CFD Toolbox           |
|  \\    /   O peration     | Version:  2506                                  |
|   \\  /    A nd           | Website:  www.openfoam.com                      |
|    \\/     M anipulation  |                                                 |
\*---------------------------------------------------------------------------*/
FoamFile
{
    version     2.0;
    format      ascii;
    arch        "LSB;label=32;scalar=64";
    class       surfaceScalarField;
    location    "17";
    object      phi;
}
// * * * * * * * * * * * * * * * * * * * * * * * * * * * * * * * * * * * * * //

dimensions      [0 3 -1 0 0 0 0];

oriented        oriented;

internalField   nonuniform List<scalar> 
760
(
6.82907e-06
-6.82908e-06
1.01765e-05
-3.34747e-06
7.12123e-06
3.05534e-06
-4.05348e-06
1.11747e-05
-2.65674e-05
2.25139e-05
-6.44889e-05
3.79216e-05
-0.000120383
5.58942e-05
-0.000191169
7.07858e-05
-0.000265511
7.43421e-05
-0.000326596
6.10852e-05
-0.000358766
3.21694e-05
-0.000353078
-5.68753e-06
-0.00030036
-5.27178e-05
-0.000208797
-9.15629e-05
-9.63885e-05
-0.000112409
7.06272e-06
-0.000103451
7.22782e-05
-6.52154e-05
7.51289e-05
-2.85079e-06
3.50554e-05
4.00735e-05
3.50554e-05
-7.8356e-07
-6.04551e-06
-1.4716e-05
1.0585e-05
-4.59283e-05
3.42676e-05
-0.000100537
6.57839e-05
-0.000184132
0.000106109
-0.000296565
0.000150354
-0.000426908
0.000186237
-0.000554534
0.000198412
-0.000657658
0.000177466
-0.000721029
0.000124456
-0.000737125
4.8265e-05
-0.00070087
-4.19424e-05
-0.000614677
-0.00013891
-0.000481184
-0.000225056
-0.000313042
-0.000280551
-0.000136478
-0.000280015
2.38293e-06
-0.000204077
6.43951e-05
-6.4863e-05
4.16808e-05
6.27879e-05
7.67362e-05
-1.78179e-05
1.17724e-05
-6.13563e-05
5.41235e-05
-0.000131858
0.00010477
-0.000235363
0.000169288
-0.000371994
0.00024274
-0.000529333
0.000307693
-0.000685126
0.00034203
-0.000818041
0.000331327
-0.000915902
0.000275327
-0.000973706
0.000182259
-0.000987476
6.20355e-05
-0.000955839
-7.35792e-05
-0.000880131
-0.000214619
-0.000756364
-0.000348823
-0.000583557
-0.000453358
-0.000372281
-0.000491291
-0.000157493
-0.000418864
-7.43946e-06
-0.000214917
2.63765e-05
2.89719e-05
0.000103113
-3.91093e-05
5.08817e-05
-0.000115914
0.000130928
-0.000224307
0.000213163
-0.000365847
0.000310828
-0.000532038
0.000408931
-0.000702853
0.000478508
-0.000856485
0.000495662
-0.000979319
0.000454161
-0.00106752
0.000363533
-0.00112173
0.000236463
-0.00114048
8.0786e-05
-0.00112512
-8.89427e-05
-0.00107624
-0.000263497
-0.000985064
-0.000439996
-0.000840688
-0.000597734
-0.000633326
-0.000698653
-0.000371439
-0.000680752
-0.000114103
-0.000472253
1.16359e-05
-9.67667e-05
0.000114749
-5.91896e-05
0.000110071
-0.000163819
0.000235558
-0.000298675
0.000348018
-0.000458982
0.000471135
-0.000629928
0.000579877
-0.000790163
0.000638743
-0.000923188
0.000628687
-0.00102307
0.000554041
-0.00109134
0.00043181
-0.00113244
0.00027756
-0.00115175
0.000100092
-0.00115178
-8.89054e-05
-0.0011325
-0.000282778
-0.00108649
-0.000486009
-0.000997426
-0.000686799
-0.000840341
-0.000855738
-0.000592814
-0.000928279
-0.000271908
-0.000793159
-2.10558e-05
-0.000347619
9.36927e-05
-7.19646e-05
0.000182036
-0.000192163
0.000355757
-0.000336447
0.000492302
-0.000494487
0.000629176
-0.000649038
0.000734428
-0.000782005
0.00077171
-0.000883038
0.00072972
-0.000951584
0.000622587
-0.000992912
0.000473138
-0.0010147
0.000299346
-0.00102686
0.000112249
-0.00103449
-8.12711e-05
-0.00103671
-0.000280561
-0.00103213
-0.000490588
-0.00100668
-0.000712248
-0.000929219
-0.000933198
-0.00075553
-0.00110197
-0.000454952
-0.00109374
-9.65819e-05
-0.000705989
-2.88914e-06
-7.35533e-05
0.000255589
-0.000194134
0.000476338
-0.00033102
0.000629188
-0.000470546
0.000768701
-0.000597022
0.000860904
-0.000697231
0.000871918
-0.000766035
0.000798525
-0.000806443
0.000662994
-0.000825943
0.000492638
-0.000833368
0.00030677
-0.000837238
0.00011612
-0.00084315
-7.53593e-05
-0.00085291
-0.000270801
-0.000869724
-0.000473774
-0.000888719
-0.000693253
-0.000885449
-0.000936468
-0.000808258
-0.00117916
-0.000589764
-0.00131223
-0.000208207
-0.00108755
-0.000211096
-6.35564e-05
0.000319146
-0.000170487
0.000583268
-0.000287651
0.000746353
-0.000400107
0.000881157
-0.000495815
0.000956612
-0.000566621
0.000942724
-0.000611338
0.000843242
-0.000634912
0.000686568
-0.000645128
0.000502855
-0.000649384
0.000311026
-0.000652385
0.000119121
-0.000656167
-7.15769e-05
-0.000664107
-0.000262861
-0.000682149
-0.000455733
-0.000714732
-0.00066067
-0.000752514
-0.000898686
-0.000750356
-0.00118132
-0.00062644
-0.00143615
-0.000316567
-0.00139742
-0.000527663
-4.42354e-05
0.000363381
-0.000127449
0.000666482
-0.000217941
0.000836844
-0.00030073
0.000963946
-0.000367765
0.00102365
-0.000415451
0.000990411
-0.000445208
0.000872998
-0.000462254
0.000703614
-0.000472952
0.000513552
-0.000481757
0.000319832
-0.000489496
0.00012686
-0.000495164
-6.5909e-05
-0.00050081
-0.000257215
-0.000512119
-0.000444424
-0.000539804
-0.000632985
-0.000587973
-0.000850516
-0.000629932
-0.00113936
-0.000585298
-0.00148078
-0.000365899
-0.00161682
-0.000893562
-1.90349e-05
0.000382416
-7.255e-05
0.000719997
-0.000133262
0.000897556
-0.000186629
0.00101731
-0.000227994
0.00106501
-0.000257451
0.00101987
-0.000277651
0.000893199
-0.000292749
0.000718711
-0.00030659
0.000527394
-0.000320901
0.000334142
-0.000334597
0.000140556
-0.000345395
-5.5111e-05
-0.000353398
-0.000249212
-0.000361782
-0.00043604
-0.000381162
-0.000613605
-0.0004263
-0.000805378
-0.000489411
-0.00107625
-0.000500616
-0.00146958
-0.000344401
-0.00177303
-0.00123796
7.57812e-06
0.000374838
-1.33131e-05
0.000740888
-4.40249e-05
0.000928267
-6.94008e-05
0.00104269
-8.74455e-05
0.00108306
-0.000100162
0.00103258
-0.000110871
0.000903909
-0.000122642
0.000730482
-0.000136936
0.000541688
-0.00015354
0.000350746
-0.000171238
0.000158255
-0.00018836
-3.79895e-05
-0.000203484
-0.000234088
-0.000217481
-0.000422043
-0.000237033
-0.000594053
-0.000279047
-0.000763363
-0.000351696
-0.0010036
-0.000400878
-0.00142039
-0.000299409
-0.0018745
-0.00153737
2.938e-05
0.000345458
4.05029e-05
0.000729765
4.16246e-05
0.000927146
4.49519e-05
0.00103936
5.09265e-05
0.00107708
5.61437e-05
0.00102737
5.69228e-05
0.000903129
5.17536e-05
0.000735652
4.1104e-05
0.000552337
2.61604e-05
0.000365689
7.73488e-06
0.00017668
-1.39857e-05
-1.62689e-05
-3.82233e-05
-0.00020985
-6.51288e-05
-0.000395138
-9.69744e-05
-0.000562208
-0.00014348
-0.000716857
-0.000224349
-0.00092273
-0.000302209
-0.00134253
-0.000249938
-0.00192677
-0.00178731
4.5141e-05
0.000300317
8.52003e-05
0.000689706
0.000115598
0.000896748
0.000147814
0.00100715
0.000181088
0.00104381
0.000208359
0.0010001
0.000225
0.000886488
0.000230712
0.00072994
0.000227525
0.000555525
0.000217106
0.000376109
0.000199412
0.000194373
0.000172373
1.07706e-05
0.000138148
-0.000175626
9.62216e-05
-0.000353211
4.67377e-05
-0.000512724
-1.85526e-05
-0.000651567
-0.000108348
-0.000832935
-0.00020816
-0.00124272
-0.000200766
-0.00193417
-0.00198808
5.16033e-05
0.000248713
0.000114679
0.00062663
0.000172227
0.000839199
0.000232177
0.000947197
0.000293056
0.00098293
0.000346168
0.000946983
0.000384848
0.000847809
0.000407704
0.000707083
0.000416626
0.000546603
0.000413446
0.000379289
0.000397775
0.000210044
0.000368115
4.04312e-05
0.000323161
-0.000130672
0.000264108
-0.000294158
0.000192285
-0.000440902
0.000109645
-0.000568927
3.03502e-06
-0.000726325
-0.000119604
-0.00112008
-0.000154148
-0.00189962
-0.00214222
4.64281e-05
0.000202285
0.000120307
0.000552751
0.000199073
0.000760433
0.000285197
0.000861073
0.000375214
0.000892913
0.000458289
0.000863908
0.000524975
0.000781123
0.000571441
0.000660617
0.000598002
0.000520043
0.000605944
0.000371346
0.000595062
0.000220926
0.000563583
7.19103e-05
0.000508976
-7.60647e-05
0.000433455
-0.000218637
0.000338654
-0.000346101
0.000230884
-0.000461157
0.000104348
-0.000599788
-3.89638e-05
-0.000976771
-0.00010739
-0.0018312
-0.00224961
3.08335e-05
0.000171452
0.000102177
0.000481407
0.000197986
0.000664625
0.000308513
0.000750546
0.000426809
0.000774618
0.000540471
0.000750246
0.000637445
0.000684148
0.000711053
0.000587009
0.000759178
0.000471918
0.0007817
0.000348824
0.000778257
0.000224369
0.000748105
0.000102062
0.000685821
-1.37808e-05
0.000596089
-0.000128904
0.000480122
-0.000230134
0.000347642
-0.000328677
0.000204497
-0.000456644
5.06166e-05
-0.00082289
-3.93411e-05
-0.00174124
-0.00228896
-2.51489e-06
0.000173967
4.16606e-05
0.000437232
0.000142397
0.000563888
0.000276659
0.000616285
0.000425664
0.000625613
0.00057228
0.000603629
0.000702038
0.00055439
0.000806258
0.000482789
0.000879953
0.000398223
0.000921521
0.000307255
0.00092919
0.000216701
0.00090272
0.000128532
0.000841828
4.71113e-05
0.000743737
-3.08127e-05
0.000616429
-0.000102826
0.00046873
-0.000180978
0.000319898
-0.000307812
0.000178001
-0.000680993
4.72998e-05
-0.00161054
-0.00224166
-4.31291e-05
0.000217096
-1.40251e-05
0.000408128
8.30839e-05
0.000466779
0.000230157
0.000469212
0.000400641
0.000455129
0.000571398
0.000432872
0.000725813
0.000399975
0.000854374
0.000354228
0.000949976
0.000302621
0.00101071
0.00024652
0.00103446
0.000192952
0.0010225
0.000140487
0.000974691
9.49239e-05
0.000893993
4.98858e-05
0.000786983
4.18349e-06
0.000661257
-5.52517e-05
0.000537607
-0.000184162
0.000395326
-0.000538713
0.000184645
-0.00139986
-0.00205701
-0.000407605
0.000624701
-0.00036732
0.000367843
-0.000172664
0.000272123
5.11387e-05
0.000245409
0.000274319
0.000231949
0.00049022
0.000216971
0.00068996
0.000200235
0.000865616
0.000178572
0.00101125
0.000156988
0.00112562
0.000132146
0.00120757
0.000111001
0.00125994
8.81206e-05
0.00128262
7.22491e-05
0.00127985
5.26473e-05
0.00124783
3.62058e-05
0.00119094
1.64569e-06
0.00111592
-0.000109149
0.000975004
-0.000397795
0.000548771
-0.000973622
-0.00150824
0.000624701
0.000992544
0.00126467
0.00151008
0.00174202
0.001959
0.00215923
0.0023378
0.00249479
0.00262694
0.00273794
0.00282606
0.00289831
0.00295095
0.00298716
0.00298881
0.00287966
0.00248186
0.00150824
)
;

boundaryField
{
    movingWall
    {
        type            calculated;
        value           uniform 0;
    }
    fixedWalls
    {
        type            calculated;
        value           uniform 0;
    }
    frontAndBack
    {
        type            empty;
    }
}


// ************************************************************************* //
