/*--------------------------------*- C++ -*----------------------------------*\
| =========                 |                                                 |
| \\      /  F ield         | OpenFOAM: The Open Source CFD Toolbox           |
|  \\    /   O peration     | Version:  2506                                  |
|   \\  /    A nd           | Website:  www.openfoam.com                      |
|    \\/     M anipulation  |                                                 |
\*---------------------------------------------------------------------------*/
FoamFile
{
    version     2.0;
    format      ascii;
    arch        "LSB;label=32;scalar=64";
    class       volScalarField;
    location    "250";
    object      turbulenceProperties:k;
}
// * * * * * * * * * * * * * * * * * * * * * * * * * * * * * * * * * * * * * //

dimensions      [0 2 -2 0 0 0 0];

internalField   nonuniform List<scalar> 
10720
(
0.0199741
0.0232484
0.027412
0.0330426
0.0396638
0.0480421
0.0586947
0.0718328
0.0884832
0.109729
0.137218
0.17359
0.222473
0.289817
0.385735
0.526194
0.742394
1.07606
1.66029
2.5744
4.61923
7.74512
18.0554
35.3868
39.3503
37.6911
37.0341
37.6946
38.5174
38.7178
38.196
37.0507
35.2086
32.6932
29.4493
25.5511
20.2647
14.9955
3.52464
0.0170355
0.0146458
0.0119531
0.00963705
0.0074426
0.00545838
0.00385166
0.0028846
0.00301462
0.00406946
0.00603077
0.00903243
0.0133971
0.0196364
0.0284188
0.0408176
0.0586641
0.0853487
0.127079
0.195077
0.311671
0.517923
0.911462
1.6689
3.32069
6.79053
15.1794
31.2746
44.3113
49.9044
51.4913
51.7506
51.4526
50.7247
49.6037
48.1518
46.0267
43.5512
35.6673
0.00310737
0.0030902
0.00305488
0.00296675
0.00283038
0.00267355
0.00248843
0.00228022
0.00207413
0.001872
0.00167929
0.0015451
0.00152565
0.00167317
0.00216248
0.00336634
0.00631183
0.0130532
0.0312617
0.0765484
0.224856
0.623492
1.90299
6.10612
11.9769
18.0484
23.7665
27.838
28.6861
26.3557
22.4778
18.534
15.3308
12.8764
10.9924
9.49942
8.45638
7.37811
7.90324
0.0030791
0.00303731
0.00295197
0.00282544
0.00265243
0.00242433
0.00215674
0.00189725
0.00165739
0.00141937
0.00119291
0.000996868
0.000831233
0.000690737
0.000571659
0.000471331
0.000386221
0.000314195
0.000251076
0.000193413
0.00013637
8.06057e-05
2.79238e-05
4.53637e-06
1.16411e-05
0.00159636
0.00854912
0.0688875
0.231579
0.451959
0.673634
0.867996
1.03142
1.17517
1.30974
1.4484
1.59521
1.92299
2.67571
0.00208372
0.00206723
0.00202061
0.00194933
0.00187478
0.00179287
0.00171007
0.0016356
0.00157155
0.00152185
0.00148341
0.00146133
0.0014553
0.00146777
0.0014719
0.00142673
0.00124942
0.00107726
0.000123532
0.00664254
0.00265323
0.00455505
0.000614189
0.0229794
0.193055
0.645519
1.61575
3.64806
7.20725
11.9317
16.2439
18.4046
18.0363
16.2152
14.0742
12.059
10.4787
8.68077
9.74803
0.00210001
0.00209746
0.00209189
0.0020547
0.00198864
0.0018777
0.00172474
0.00155008
0.00138775
0.00122076
0.0010411
0.000867133
0.000711437
0.000577357
0.000466656
0.000377284
0.000307644
0.00025482
0.000216402
0.000188795
0.000169776
0.000157443
0.000150657
0.000146943
0.000146767
0.000145828
0.000155112
9.21874e-05
0.000636278
0.00417827
0.0118384
0.0247264
0.055162
0.115068
0.203677
0.31221
0.430151
0.514826
0.878974
0.00175882
0.00176244
0.00175358
0.00173897
0.00170884
0.00166398
0.00160807
0.00153827
0.0014585
0.00137026
0.00127548
0.00117544
0.00107108
0.0009644
0.000856209
0.000742689
0.000629791
0.000527984
0.00040015
0.000229262
1.38882e-08
0.000515867
0.000375965
0.00621692
0.0231369
0.0451924
0.0255312
0.0122158
0.0346264
0.344902
1.53435
4.21332
7.95819
11.1137
12.507
12.3566
11.6343
10.195
10.9775
0.00173997
0.0017114
0.00166653
0.00161249
0.00154475
0.00145603
0.00135244
0.00124222
0.00112744
0.00100289
0.000874157
0.000753482
0.000646854
0.000554954
0.000477307
0.000412208
0.000358656
0.000315039
0.00028003
0.00025153
0.000228371
0.000208924
0.000191491
0.000173157
0.00015433
0.000138669
0.000126853
0.000118347
0.000108046
9.47512e-05
7.1186e-05
4.4946e-05
0.000344257
0.00059448
0.00216122
0.0115777
0.0379805
0.0960091
0.349345
0.00131955
0.00131721
0.00130691
0.00128856
0.00126017
0.00122169
0.00117516
0.00112133
0.00106194
0.00100062
0.000939327
0.000880554
0.000826902
0.000780016
0.000741019
0.000708262
0.000673733
0.000631939
0.0005872
0.000521882
0.000352784
0.000115243
1.8723e-05
3.12906e-06
0
0
0.00904154
0.0109107
0.0237481
0.0109073
0.0274334
0.0533725
0.307622
1.86283
4.86011
7.95625
9.94258
10.3476
11.5343
0.00131613
0.00130679
0.00128826
0.00125859
0.00121676
0.00115747
0.00108651
0.00101033
0.000929111
0.000839961
0.00074722
0.000656483
0.000571251
0.000493036
0.000422866
0.000361197
0.000308179
0.000263574
0.000226874
0.000196955
0.000172786
0.000153089
0.000136463
0.000120588
0.00010446
8.95774e-05
7.77419e-05
6.95954e-05
6.60111e-05
6.09872e-05
7.454e-05
1.75609e-05
0.00011462
0.000535525
0.00131352
0.00259417
0.000948822
0.0029852
0.0678448
0.00108157
0.00108617
0.00108576
0.00108186
0.00107123
0.00105402
0.00103093
0.0010011
0.000965156
0.000924011
0.000878052
0.000828404
0.000776171
0.000722305
0.000667796
0.000611305
0.000549737
0.000486617
0.000427263
0.000375366
0.000333908
0.000277829
0.000198334
4.04168e-05
1.01135e-05
5.22791e-06
2.10733e-06
4.35967e-10
0
0.00145154
0.00641261
0.0349877
0.00402027
0.0868932
0.178493
1.76211
5.02857
8.20762
10.9689
0.00107177
0.00105822
0.00103851
0.00101255
0.000979184
0.000935312
0.000884819
0.000830646
0.00077174
0.000706625
0.000638451
0.00057058
0.000505635
0.000445131
0.0003901
0.00034124
0.000298775
0.000262576
0.000232224
0.000206936
0.000185826
0.000167774
0.000151542
0.000135396
0.00011862
0.000102652
8.87302e-05
7.70756e-05
6.73012e-05
5.91708e-05
5.22177e-05
4.58604e-05
3.63144e-05
2.3297e-05
1.43909e-08
4.64803e-07
0.000160411
0.000686252
0.00773744
0.000874939
0.000878762
0.00087939
0.000877168
0.000870171
0.000858081
0.000841153
0.000818902
0.000791549
0.000759816
0.000724252
0.000685756
0.000645502
0.000604665
0.000564173
0.000525372
0.000490202
0.000457445
0.00042406
0.000389163
0.000355894
0.000328738
0.000300328
0.000247594
0.000167263
9.27865e-05
3.17671e-05
5.43111e-09
3.48853e-06
4.35331e-07
0
0
0.000392193
0.0264632
0.0173303
0.125688
0.789317
4.11489
8.73935
0.00086776
0.000858026
0.000843884
0.000824396
0.000799101
0.000766658
0.000730214
0.000690465
0.000646693
0.000598724
0.000548304
0.000497309
0.000447346
0.000399438
0.000354467
0.000313194
0.000275998
0.000243115
0.000214547
0.000189953
0.000168874
0.000150596
0.000134212
0.000118471
0.000102715
8.77713e-05
7.46443e-05
6.35964e-05
5.43949e-05
4.69345e-05
4.13485e-05
3.77132e-05
3.56116e-05
3.31616e-05
3.03307e-05
1.38269e-05
1.33579e-06
6.80479e-08
0.000235046
0.000725171
0.000730125
0.000733066
0.000734251
0.000732237
0.000726735
0.000717989
0.000705336
0.000688742
0.000668622
0.00064492
0.000618087
0.000588648
0.000557105
0.000524003
0.000490022
0.000454763
0.000417292
0.00037932
0.0003434
0.000311627
0.000286079
0.000267654
0.000253207
0.000229947
0.000195163
0.000152326
0.000104731
6.35187e-05
6.91028e-06
3.24677e-06
2.1408e-07
0
0
0.00245038
0.0506439
0.0942087
0.903861
5.17287
0.000717745
0.000708769
0.000696768
0.00068081
0.000660833
0.000636069
0.000609012
0.000579187
0.00054616
0.000510353
0.000472525
0.000433897
0.000395421
0.000357779
0.000321751
0.000288028
0.000257014
0.000229094
0.00020441
0.000182816
0.000163956
0.000147318
0.000132168
0.000117549
0.000102973
8.90776e-05
7.66003e-05
6.57711e-05
5.63606e-05
4.81683e-05
4.11003e-05
3.50791e-05
2.99165e-05
2.55061e-05
2.24085e-05
1.96042e-05
1.38785e-05
1.56824e-06
1.68408e-05
0.000604929
0.000609697
0.000613163
0.000615341
0.000615245
0.000612596
0.000607473
0.000599265
0.000587924
0.00057354
0.000556074
0.000535794
0.000513013
0.000488134
0.000461688
0.000434104
0.000406009
0.000378473
0.000351626
0.000325419
0.000300306
0.000277346
0.000257294
0.000239372
0.000220593
0.000198334
0.000174761
0.000151634
0.000128869
9.46947e-05
6.32392e-05
4.31699e-06
1.87393e-06
0
0
0
0.0285458
0.126348
2.01906
0.000598393
0.000590839
0.000581062
0.000568074
0.000552258
0.00053315
0.000512539
0.000489721
0.000464508
0.000437377
0.000408744
0.000379283
0.000349551
0.000319988
0.000291118
0.000263468
0.000237447
0.000213395
0.000191542
0.000171907
0.000154352
0.000138527
0.000123943
0.000109957
9.62131e-05
8.31135e-05
7.13033e-05
6.10059e-05
5.20873e-05
4.44112e-05
3.79264e-05
3.26798e-05
2.86726e-05
2.58873e-05
2.42993e-05
2.45152e-05
2.62478e-05
2.7652e-05
1.04344e-06
0.000509979
0.000514641
0.000518541
0.000521563
0.000522968
0.000522605
0.000520415
0.000515931
0.000509086
0.000499869
0.00048809
0.000473931
0.000457518
0.000439039
0.000418795
0.000397072
0.000374327
0.000350496
0.000325771
0.000301208
0.0002781
0.000257389
0.000239247
0.000222157
0.000203673
0.000182803
0.000161592
0.000143099
0.000128837
0.000117189
0.000106176
7.85946e-05
3.66656e-05
3.14112e-06
1.26474e-08
0
0
0.0435678
0.517536
0.000503998
0.000497402
0.000489186
0.000478401
0.000465638
0.000450728
0.000434672
0.000416905
0.000397453
0.000376662
0.000354768
0.000332138
0.000309077
0.000285816
0.000262748
0.000240252
0.000218632
0.00019825
0.000179329
0.000161968
0.000146142
0.000131646
0.000118132
0.000105181
9.25262e-05
8.04489e-05
6.94514e-05
5.97575e-05
5.12607e-05
4.3822e-05
3.7393e-05
3.19342e-05
2.73805e-05
2.37966e-05
2.11985e-05
2.06782e-05
2.03706e-05
3.41694e-05
1.40673e-05
0.000432988
0.000437361
0.000441288
0.000444597
0.000446721
0.000447609
0.00044708
0.000444823
0.000440686
0.000434662
0.000426552
0.00041636
0.000404199
0.000390109
0.00037429
0.000356995
0.000338491
0.000319199
0.000299517
0.000279882
0.000260887
0.00024306
0.000226551
0.00021053
0.000193177
0.000173579
0.000153101
0.000134606
0.000119807
0.000109009
0.00010112
9.63949e-05
8.50728e-05
5.37351e-05
2.58689e-07
1.98003e-10
0
0.00239283
0.135185
0.00042764
0.000421915
0.00041502
0.000406005
0.000395578
0.000383807
0.00037108
0.000357048
0.000341872
0.000325807
0.000308883
0.00029136
0.000273405
0.000255108
0.000236697
0.000218427
0.000200544
0.000183317
0.000166981
0.00015166
0.000137383
0.000124069
0.000111497
9.93982e-05
8.76284e-05
7.64069e-05
6.61011e-05
5.69273e-05
4.88599e-05
4.17836e-05
3.56782e-05
3.05503e-05
2.64099e-05
2.32979e-05
2.11752e-05
2.09096e-05
2.08012e-05
2.95239e-05
3.67906e-05
0.000370097
0.000374179
0.00037802
0.000381421
0.000383966
0.000385648
0.00038629
0.000385594
0.000383472
0.000379859
0.000374561
0.000367565
0.000358861
0.000348479
0.000336509
0.000323094
0.000308433
0.000292825
0.000276404
0.000259497
0.000242863
0.000227052
0.00021223
0.000197726
0.0001822
0.000164835
0.00014648
0.000129281
0.000114725
0.00010303
9.34923e-05
8.73405e-05
8.39124e-05
8.27098e-05
5.58835e-05
2.81699e-06
0
0.000781558
0.0473037
0.000365311
0.000360316
0.000354478
0.000346861
0.000338279
0.000328829
0.000318612
0.000307392
0.000295457
0.000282876
0.000269681
0.000256039
0.000241994
0.00022755
0.000212859
0.000198082
0.000183351
0.000168895
0.000154892
0.000141501
0.000128791
0.000116738
0.000105213
9.40626e-05
8.32316e-05
7.28911e-05
6.3336e-05
5.47514e-05
4.71311e-05
4.04042e-05
3.45602e-05
2.95863e-05
2.54677e-05
2.22641e-05
1.99793e-05
1.9397e-05
1.96007e-05
2.51978e-05
4.02409e-05
0.000318111
0.000321875
0.000325525
0.000328867
0.00033161
0.000333687
0.000335023
0.000335357
0.000334557
0.000332567
0.00032923
0.000324499
0.000318316
0.000310666
0.000301599
0.000291189
0.000279558
0.000266986
0.000253628
0.000239743
0.000225819
0.000212217
0.000199088
0.000185983
0.000171988
0.000156511
0.000140204
0.000124661
0.000111174
9.98624e-05
9.01743e-05
8.21428e-05
7.63992e-05
7.41234e-05
7.88371e-05
4.30691e-05
1.29201e-07
0.000248668
0.0156503
0.000313859
0.000309456
0.00030447
0.000298043
0.00029091
0.000283218
0.000274912
0.000265864
0.00025636
0.000246441
0.000236082
0.000225367
0.000214317
0.000202905
0.000191175
0.000179209
0.000167115
0.000155043
0.000143135
0.000131503
0.000120248
0.0001094
9.88875e-05
8.86529e-05
7.87027e-05
6.91725e-05
6.03037e-05
5.22756e-05
4.5086e-05
3.87114e-05
3.31449e-05
2.84087e-05
2.44732e-05
2.14248e-05
1.92806e-05
1.86539e-05
1.89173e-05
2.3196e-05
3.69963e-05
0.000274808
0.000278235
0.000281645
0.000284858
0.000287629
0.000289937
0.00029171
0.000292695
0.000292798
0.000291967
0.000290063
0.00028701
0.00028277
0.000277286
0.000270548
0.000262619
0.000253547
0.000243542
0.000232696
0.000221199
0.000209376
0.000197637
0.000186057
0.000174364
0.000161905
0.000148213
0.00013375
0.000119804
0.000107484
9.69784e-05
8.78964e-05
7.9957e-05
7.33117e-05
6.83461e-05
6.69327e-05
8.17521e-05
6.32982e-07
2.48445e-05
0.00389436
0.00027099
0.000267133
0.000262822
0.000257368
0.0002514
0.000245062
0.000238215
0.00023087
0.000223239
0.000215347
0.00020714
0.00019868
0.000189943
0.000180886
0.000171503
0.000161837
0.000151934
0.000141892
0.000131806
0.000121771
0.000111891
0.000102202
9.26905e-05
8.33671e-05
7.4281e-05
6.55477e-05
5.73634e-05
4.98787e-05
4.314e-05
3.71208e-05
3.18323e-05
2.72924e-05
2.34985e-05
2.05043e-05
1.8357e-05
1.76083e-05
1.77684e-05
2.14721e-05
3.32786e-05
0.000238423
0.000241516
0.000244673
0.000247727
0.000250427
0.000252836
0.000254822
0.00025618
0.00025689
0.000256863
0.000255978
0.000254156
0.00025135
0.000247494
0.000242566
0.000236569
0.000229553
0.000221622
0.000212926
0.000203547
0.000193664
0.000183669
0.000173597
0.000163259
0.000152223
0.000140149
0.000127347
0.000114847
0.000103604
9.38704e-05
8.54154e-05
7.80528e-05
7.15865e-05
6.6838e-05
5.98037e-05
7.54232e-05
4.04551e-05
3.19506e-07
0.000233305
0.000234982
0.000231603
0.000227872
0.000223187
0.000218167
0.000212894
0.000207207
0.000201191
0.000195015
0.000188673
0.000182115
0.000175394
0.000168444
0.000161234
0.000153716
0.000145918
0.000137824
0.000129479
0.000120967
0.000112369
0.000103747
9.51612e-05
8.66296e-05
7.8173e-05
6.98931e-05
6.19076e-05
5.43783e-05
4.74326e-05
4.11248e-05
3.5464e-05
3.04427e-05
2.61056e-05
2.24694e-05
1.95868e-05
1.74787e-05
1.66739e-05
1.67351e-05
1.98658e-05
3.00048e-05
0.000207618
0.000210434
0.000213347
0.000216168
0.000218776
0.000221172
0.000223257
0.000224856
0.000225958
0.000226472
0.000226292
0.000225361
0.000223626
0.000221002
0.000217493
0.000213061
0.000207712
0.000201512
0.00019459
0.000186978
0.00017877
0.000170279
0.000161588
0.000152545
0.000142839
0.00013223
0.00012097
0.000109826
9.96042e-05
9.0611e-05
8.27247e-05
7.5863e-05
6.97924e-05
6.53665e-05
5.94777e-05
6.01289e-05
7.22081e-05
2.17071e-07
1.50677e-05
0.00020456
0.000201551
0.000198303
0.000194281
0.000190034
0.000185588
0.000180839
0.000175868
0.000170823
0.000165682
0.000160418
0.000155036
0.000149496
0.000143718
0.000137688
0.00013137
0.000124744
0.000117843
0.000110701
0.000103358
9.58766e-05
8.83182e-05
8.07049e-05
7.30976e-05
6.55921e-05
5.83261e-05
5.14172e-05
4.4998e-05
3.91127e-05
3.37997e-05
2.90541e-05
2.49311e-05
2.14299e-05
1.86323e-05
1.65501e-05
1.56753e-05
1.56421e-05
1.82666e-05
2.70529e-05
0.000181387
0.000183942
0.000186618
0.000189234
0.000191687
0.000194022
0.000196115
0.000197855
0.000199178
0.000200042
0.000200362
0.000200068
0.000199112
0.000197441
0.000195014
0.000191796
0.000187782
0.00018298
0.00017752
0.000171406
0.00016468
0.000157542
0.000150093
0.000142262
0.000133808
0.000124537
0.000114667
0.000104775
9.55318e-05
8.72722e-05
7.99311e-05
7.34883e-05
6.78509e-05
6.32991e-05
5.98031e-05
5.27148e-05
7.84442e-05
9.4257e-07
8.86428e-10
0.000178681
0.00017601
0.000173153
0.000169687
0.000166074
0.000162284
0.000158293
0.000154149
0.000150014
0.000145811
0.000141556
0.00013721
0.000132757
0.000128112
0.000123246
0.00011813
0.000112713
0.000107013
0.000101029
9.47915e-05
8.83436e-05
8.17155e-05
7.4962e-05
6.81525e-05
6.13854e-05
5.4789e-05
4.84798e-05
4.2557e-05
3.70989e-05
3.21122e-05
2.76505e-05
2.37331e-05
2.03874e-05
1.76622e-05
1.56173e-05
1.46767e-05
1.45637e-05
1.67359e-05
2.43163e-05
0.000158949
0.000161262
0.000163695
0.000166105
0.000168407
0.000170644
0.000172683
0.000174455
0.000175918
0.000177011
0.00017766
0.000177825
0.000177449
0.000176488
0.000174877
0.000172598
0.000169646
0.000165998
0.000161738
0.000156868
0.000151401
0.000145454
0.000139132
0.000132411
0.00012509
0.000117061
0.000108445
9.97174e-05
9.14152e-05
8.38674e-05
7.70798e-05
7.10399e-05
6.57968e-05
6.12085e-05
5.85965e-05
5.14478e-05
6.62877e-05
2.75292e-05
5.93405e-07
0.00015652
0.000154156
0.000151643
0.000148635
0.000145548
0.000142299
0.000138905
0.000135451
0.000132017
0.000128563
0.000125083
0.000121569
0.000117967
0.000114211
0.000110281
0.000106117
0.000101684
9.69749e-05
9.19755e-05
8.66875e-05
8.11494e-05
7.53875e-05
6.94388e-05
6.33627e-05
5.72827e-05
5.13172e-05
4.55778e-05
4.014e-05
3.50787e-05
3.04304e-05
2.62369e-05
2.25139e-05
1.9319e-05
1.66884e-05
1.46678e-05
1.36632e-05
1.34739e-05
1.5272e-05
2.17738e-05
0.000139655
0.000141732
0.000143944
0.000146161
0.000148298
0.000150404
0.000152389
0.000154131
0.00015565
0.000156878
0.00015774
0.000158212
0.000158261
0.000157805
0.00015683
0.000155296
0.000153173
0.000150449
0.000147169
0.000143335
0.000138934
0.00013402
0.00012872
0.000123
0.000116723
0.000109795
0.000102318
9.4658e-05
8.72471e-05
8.0389e-05
7.41545e-05
6.85314e-05
6.36257e-05
5.92636e-05
5.64248e-05
5.1803e-05
5.44929e-05
5.22489e-05
7.22135e-06
0.000137487
0.000135375
0.000133157
0.000130544
0.000127873
0.000125088
0.000122183
0.000119274
0.000116399
0.000113546
0.000110679
0.000107806
0.000104879
0.000101836
9.86395e-05
9.524e-05
9.1615e-05
8.77185e-05
8.35389e-05
7.90802e-05
7.43438e-05
6.93492e-05
6.41213e-05
5.87365e-05
5.33041e-05
4.79334e-05
4.27215e-05
3.77522e-05
3.30761e-05
2.87494e-05
2.481e-05
2.12923e-05
1.82307e-05
1.56941e-05
1.37135e-05
1.26437e-05
1.23828e-05
1.38698e-05
1.9421e-05
0.000122981
0.000124856
0.000126864
0.000128892
0.000130872
0.000132839
0.00013472
0.000136428
0.000137937
0.000139224
0.000140223
0.000140914
0.000141251
0.00014118
0.000140677
0.000139711
0.000138244
0.00013626
0.000133759
0.000130781
0.000127282
0.000123269
0.000118864
0.000114035
0.000108701
0.000102762
9.63154e-05
8.96201e-05
8.30509e-05
7.68584e-05
7.1157e-05
6.59668e-05
6.13626e-05
5.73291e-05
5.41278e-05
5.13865e-05
4.84147e-05
5.5237e-05
2.73105e-05
0.000121043
0.000119164
0.000117197
0.00011492
0.000112597
0.00011019
0.000107701
0.000105225
0.000102806
0.000100425
9.80616e-05
9.569e-05
9.32873e-05
9.08105e-05
8.81978e-05
8.54204e-05
8.24394e-05
7.92142e-05
7.57302e-05
7.19757e-05
6.79341e-05
6.36228e-05
5.90546e-05
5.42981e-05
4.94618e-05
4.46439e-05
3.99256e-05
3.53891e-05
3.1096e-05
2.70833e-05
2.33896e-05
2.00704e-05
1.71486e-05
1.46955e-05
1.27466e-05
1.16255e-05
1.13003e-05
1.25363e-05
1.72702e-05
0.000108524
0.000110215
0.000112038
0.00011388
0.000115708
0.000117538
0.000119297
0.000120936
0.000122423
0.000123719
0.000124795
0.000125616
0.000126144
0.000126355
0.000126205
0.000125671
0.000124707
0.000123311
0.000121457
0.000119182
0.000116436
0.000113199
0.000109565
0.00010554
0.000101033
9.59857e-05
9.04524e-05
8.46345e-05
7.88427e-05
7.32952e-05
6.81102e-05
6.33471e-05
5.90414e-05
5.53073e-05
5.19972e-05
4.99046e-05
4.60084e-05
4.96341e-05
4.10712e-05
0.000106788
0.000105112
0.000103366
0.000101368
9.93485e-05
9.72457e-05
9.51047e-05
9.29969e-05
9.09472e-05
8.89416e-05
8.69709e-05
8.50083e-05
8.30303e-05
8.09858e-05
7.8841e-05
7.65672e-05
7.41006e-05
7.14361e-05
6.85356e-05
6.53674e-05
6.19271e-05
5.82158e-05
5.42412e-05
5.00657e-05
4.57662e-05
4.14546e-05
3.72088e-05
3.3082e-05
2.9137e-05
2.54261e-05
2.19794e-05
1.88483e-05
1.60709e-05
1.36999e-05
1.17743e-05
1.06185e-05
1.02333e-05
1.12684e-05
1.5302e-05
9.59475e-05
9.74642e-05
9.91186e-05
0.0001008
0.00010247
0.000104167
0.000105812
0.000107357
0.000108795
0.000110075
0.000111177
0.000112074
0.000112733
0.000113133
0.000113242
0.000113027
0.000112461
0.000111521
0.000110187
0.000108484
0.000106357
0.000103782
0.000100821
9.7491e-05
9.3728e-05
8.9462e-05
8.47462e-05
7.97284e-05
7.46516e-05
6.971e-05
6.50269e-05
6.06683e-05
5.66788e-05
5.31905e-05
4.99838e-05
4.787e-05
4.46928e-05
4.42055e-05
4.39188e-05
9.43956e-05
9.28876e-05
9.13381e-05
8.95839e-05
8.78087e-05
8.59768e-05
8.41216e-05
8.23141e-05
8.05596e-05
7.8871e-05
7.72068e-05
7.55711e-05
7.39308e-05
7.22337e-05
7.04669e-05
6.85867e-05
6.65525e-05
6.43446e-05
6.19148e-05
5.9248e-05
5.63304e-05
5.31387e-05
4.96954e-05
4.60288e-05
4.22299e-05
3.8388e-05
3.45706e-05
3.08322e-05
2.72259e-05
2.37963e-05
2.05867e-05
1.76446e-05
1.49987e-05
1.27023e-05
1.08119e-05
9.61683e-06
9.18369e-06
1.00651e-05
1.35115e-05
8.49587e-05
8.63325e-05
8.78294e-05
8.93555e-05
9.08928e-05
9.24541e-05
9.39805e-05
9.54304e-05
9.67931e-05
9.80416e-05
9.91346e-05
0.000100068
0.000100812
0.000101339
0.000101631
0.000101653
0.000101387
0.000100805
9.98784e-05
9.86292e-05
9.7017e-05
9.49978e-05
9.26151e-05
8.9893e-05
8.6774e-05
8.32064e-05
7.92104e-05
7.49163e-05
7.04969e-05
6.6125e-05
6.19166e-05
5.79491e-05
5.42682e-05
5.10019e-05
4.79865e-05
4.57099e-05
4.32374e-05
4.06649e-05
4.16219e-05
8.35776e-05
8.22247e-05
8.08485e-05
7.93033e-05
7.77375e-05
7.61396e-05
7.45139e-05
7.29522e-05
7.1455e-05
7.00103e-05
6.86044e-05
6.72289e-05
6.58518e-05
6.44466e-05
6.29756e-05
6.14147e-05
5.97343e-05
5.78851e-05
5.58532e-05
5.36134e-05
5.11282e-05
4.84017e-05
4.54195e-05
4.22145e-05
3.88652e-05
3.54508e-05
3.2028e-05
2.86483e-05
2.53569e-05
2.22005e-05
1.9219e-05
1.64505e-05
1.39356e-05
1.17235e-05
9.86588e-06
8.63234e-06
8.15809e-06
8.92392e-06
1.18915e-05
7.53502e-05
7.65845e-05
7.79374e-05
7.93269e-05
8.07239e-05
8.21586e-05
8.35725e-05
8.49283e-05
8.62083e-05
8.7402e-05
8.84724e-05
8.94096e-05
9.01958e-05
9.08031e-05
9.12191e-05
9.14169e-05
9.13757e-05
9.10684e-05
9.04731e-05
8.95851e-05
8.83943e-05
8.68405e-05
8.49469e-05
8.27481e-05
8.01885e-05
7.72288e-05
7.38641e-05
7.02074e-05
6.63799e-05
6.25414e-05
5.87839e-05
5.52001e-05
5.18245e-05
4.87722e-05
4.59498e-05
4.35852e-05
4.14232e-05
3.82951e-05
3.82922e-05
7.41078e-05
7.28984e-05
7.16715e-05
7.03069e-05
6.89255e-05
6.75158e-05
6.61029e-05
6.47375e-05
6.3452e-05
6.22045e-05
6.10086e-05
5.98452e-05
5.86889e-05
5.75026e-05
5.62748e-05
5.49789e-05
5.35684e-05
5.20279e-05
5.03263e-05
4.84347e-05
4.63279e-05
4.39986e-05
4.14185e-05
3.86257e-05
3.56805e-05
3.26508e-05
2.9589e-05
2.65417e-05
2.35484e-05
2.06463e-05
1.78823e-05
1.52828e-05
1.28976e-05
1.0766e-05
8.94422e-06
7.67627e-06
7.16623e-06
7.84845e-06
1.04261e-05
6.69144e-05
6.80248e-05
6.92481e-05
7.05066e-05
7.17838e-05
7.30969e-05
7.44002e-05
7.56571e-05
7.68553e-05
7.7984e-05
7.9014e-05
7.99384e-05
8.07365e-05
8.13988e-05
8.18978e-05
8.2214e-05
8.23328e-05
8.22346e-05
8.18956e-05
8.13004e-05
8.04432e-05
7.9279e-05
7.77989e-05
7.60399e-05
7.39652e-05
7.15275e-05
6.87242e-05
6.56237e-05
6.23395e-05
5.89884e-05
5.56555e-05
5.24344e-05
4.93548e-05
4.65155e-05
4.38643e-05
4.15127e-05
3.94076e-05
3.63263e-05
3.52682e-05
6.58028e-05
6.47183e-05
6.36197e-05
6.2415e-05
6.11908e-05
5.99459e-05
5.87055e-05
5.75217e-05
5.63932e-05
5.53226e-05
5.42973e-05
5.33003e-05
5.2315e-05
5.13195e-05
5.02889e-05
4.91979e-05
4.80151e-05
4.67232e-05
4.52917e-05
4.36958e-05
4.19129e-05
3.99127e-05
3.76892e-05
3.52612e-05
3.26744e-05
2.99913e-05
2.72629e-05
2.4521e-05
2.18051e-05
1.91463e-05
1.65845e-05
1.41523e-05
1.18941e-05
9.83617e-06
8.04343e-06
6.75006e-06
6.21112e-06
6.84273e-06
9.11405e-06
5.94928e-05
6.04919e-05
6.15961e-05
6.27408e-05
6.3901e-05
6.51035e-05
6.62986e-05
6.74568e-05
6.85786e-05
6.96385e-05
7.06142e-05
7.1509e-05
7.23044e-05
7.2979e-05
7.35305e-05
7.39393e-05
7.41776e-05
7.42294e-05
7.40825e-05
7.37228e-05
7.31321e-05
7.22835e-05
7.11462e-05
6.97619e-05
6.80988e-05
6.61078e-05
6.37882e-05
6.11856e-05
5.83903e-05
5.5479e-05
5.25473e-05
4.96624e-05
4.6865e-05
4.42372e-05
4.1749e-05
3.94592e-05
3.73375e-05
3.44149e-05
3.26754e-05
5.84982e-05
5.75247e-05
5.65372e-05
5.54733e-05
5.43843e-05
5.32875e-05
5.219e-05
5.11544e-05
5.01705e-05
4.92421e-05
4.83553e-05
4.7499e-05
4.6658e-05
4.58099e-05
4.49381e-05
4.40123e-05
4.30177e-05
4.193e-05
4.07268e-05
3.93772e-05
3.78555e-05
3.61431e-05
3.42319e-05
3.21195e-05
2.9851e-05
2.74831e-05
2.50563e-05
2.25944e-05
2.01298e-05
1.77014e-05
1.5334e-05
1.30591e-05
1.09182e-05
8.94281e-06
7.1822e-06
5.86612e-06
5.29388e-06
5.90377e-06
7.93808e-06
5.29499e-05
5.385e-05
5.48542e-05
5.5884e-05
5.69414e-05
5.80398e-05
5.91322e-05
6.02007e-05
6.12363e-05
6.22256e-05
6.31513e-05
6.4001e-05
6.47759e-05
6.54564e-05
6.60285e-05
6.64859e-05
6.68103e-05
6.69826e-05
6.69765e-05
6.67961e-05
6.64207e-05
6.58256e-05
6.49767e-05
6.39043e-05
6.2588e-05
6.09825e-05
5.90765e-05
5.69098e-05
5.4539e-05
5.2033e-05
4.94691e-05
4.68966e-05
4.4372e-05
4.19536e-05
3.96192e-05
3.74152e-05
3.52882e-05
3.24898e-05
3.0373e-05
5.20615e-05
5.11932e-05
5.03049e-05
4.93583e-05
4.83911e-05
4.74109e-05
4.64509e-05
4.55351e-05
4.46752e-05
4.38649e-05
4.30919e-05
4.23477e-05
4.16244e-05
4.08955e-05
4.01566e-05
3.93707e-05
3.85272e-05
3.76099e-05
3.65901e-05
3.5441e-05
3.41501e-05
3.26916e-05
3.10384e-05
2.92023e-05
2.72182e-05
2.51298e-05
2.29708e-05
2.07675e-05
1.85396e-05
1.63197e-05
1.41364e-05
1.20167e-05
9.98908e-06
8.08653e-06
6.36412e-06
5.02431e-06
4.42068e-06
5.03605e-06
6.89995e-06
4.71717e-05
4.79888e-05
4.88909e-05
4.98242e-05
5.07869e-05
5.17843e-05
5.27819e-05
5.37607e-05
5.47158e-05
5.56356e-05
5.65051e-05
5.73135e-05
5.8053e-05
5.87202e-05
5.9303e-05
5.97877e-05
6.01608e-05
6.04126e-05
6.05238e-05
6.04771e-05
6.02711e-05
5.98737e-05
5.92607e-05
5.84491e-05
5.74257e-05
5.61454e-05
5.45933e-05
5.28046e-05
5.08065e-05
4.86632e-05
4.64283e-05
4.41568e-05
4.18871e-05
3.96704e-05
3.74903e-05
3.53802e-05
3.32778e-05
3.05799e-05
2.82577e-05
4.63752e-05
4.55971e-05
4.48048e-05
4.39584e-05
4.3101e-05
4.22334e-05
4.13799e-05
4.05721e-05
3.98127e-05
3.9098e-05
3.84229e-05
3.77805e-05
3.71501e-05
3.65267e-05
3.5882e-05
3.52186e-05
3.4498e-05
3.37172e-05
3.28487e-05
3.18788e-05
3.07763e-05
2.95207e-05
2.80954e-05
2.65037e-05
2.47691e-05
2.29313e-05
2.10147e-05
1.90397e-05
1.70312e-05
1.50117e-05
1.30011e-05
1.10267e-05
9.11436e-06
7.29052e-06
5.60126e-06
4.23372e-06
3.6006e-06
4.24437e-06
5.98513e-06
4.2066e-05
4.28003e-05
4.36109e-05
4.44568e-05
4.53271e-05
4.62341e-05
4.71459e-05
4.8045e-05
4.8923e-05
4.97696e-05
5.05753e-05
5.13381e-05
5.20469e-05
5.2691e-05
5.3265e-05
5.37642e-05
5.41722e-05
5.44732e-05
5.46638e-05
5.47189e-05
5.46473e-05
5.44057e-05
5.39782e-05
5.33796e-05
5.25952e-05
5.15845e-05
5.03384e-05
4.88692e-05
4.72039e-05
4.53803e-05
4.34512e-05
4.14508e-05
3.94236e-05
3.73966e-05
3.53727e-05
3.33585e-05
3.13044e-05
2.87087e-05
2.62805e-05
4.135e-05
4.06515e-05
3.99392e-05
3.91861e-05
3.84194e-05
3.76488e-05
3.6892e-05
3.61735e-05
3.55044e-05
3.4876e-05
3.42804e-05
3.37171e-05
3.31708e-05
3.26245e-05
3.20716e-05
3.14974e-05
3.08877e-05
3.02173e-05
2.94808e-05
2.86482e-05
2.77025e-05
2.66276e-05
2.54019e-05
2.4019e-05
2.25007e-05
2.0881e-05
1.91845e-05
1.74252e-05
1.56145e-05
1.37761e-05
1.1933e-05
1.00992e-05
8.29869e-06
6.55409e-06
4.89801e-06
3.50173e-06
2.83211e-06
3.52724e-06
5.1824e-06
3.7538e-05
3.81972e-05
3.89313e-05
3.96979e-05
4.04851e-05
4.13087e-05
4.21388e-05
4.29577e-05
4.37649e-05
4.45473e-05
4.52967e-05
4.60055e-05
4.66687e-05
4.72847e-05
4.78461e-05
4.83438e-05
4.87677e-05
4.91066e-05
4.93492e-05
4.94824e-05
4.95049e-05
4.9393e-05
4.91132e-05
4.86867e-05
4.80983e-05
4.73155e-05
4.63249e-05
4.51208e-05
4.37433e-05
4.22051e-05
4.05468e-05
3.87947e-05
3.69873e-05
3.5149e-05
3.32753e-05
3.13668e-05
2.93773e-05
2.6892e-05
2.44341e-05
3.68961e-05
3.62719e-05
3.5635e-05
3.49626e-05
3.42798e-05
3.35889e-05
3.29121e-05
3.22788e-05
3.16852e-05
3.11263e-05
3.06028e-05
3.01076e-05
2.9626e-05
2.91522e-05
2.86758e-05
2.81734e-05
2.76463e-05
2.70751e-05
2.64426e-05
2.57282e-05
2.49235e-05
2.39979e-05
2.29382e-05
2.17347e-05
2.04098e-05
1.89889e-05
1.74858e-05
1.59134e-05
1.42866e-05
1.26212e-05
1.0932e-05
9.23519e-06
7.54786e-06
5.88405e-06
4.2672e-06
2.83929e-06
2.12053e-06
2.89606e-06
4.4976e-06
3.35223e-05
3.41182e-05
3.47784e-05
3.54668e-05
3.61815e-05
3.69318e-05
3.76852e-05
3.84321e-05
3.91704e-05
3.98849e-05
4.05749e-05
4.12393e-05
4.18637e-05
4.24425e-05
4.29796e-05
4.34665e-05
4.38949e-05
4.42523e-05
4.45295e-05
4.4717e-05
4.48131e-05
4.47943e-05
4.46358e-05
4.43467e-05
4.39179e-05
4.33189e-05
4.25368e-05
4.15706e-05
4.04306e-05
3.91433e-05
3.77239e-05
3.62028e-05
3.45969e-05
3.29364e-05
3.12075e-05
2.94131e-05
2.75013e-05
2.51346e-05
2.2707e-05
3.29465e-05
3.23875e-05
3.1813e-05
3.12145e-05
3.06036e-05
2.99924e-05
2.93895e-05
2.88233e-05
2.83e-05
2.7799e-05
2.73369e-05
2.68959e-05
2.64741e-05
2.60588e-05
2.56363e-05
2.52058e-05
2.47456e-05
2.42573e-05
2.37103e-05
2.31001e-05
2.2408e-05
2.16117e-05
2.06934e-05
1.96477e-05
1.84938e-05
1.72421e-05
1.59114e-05
1.45142e-05
1.30565e-05
1.15479e-05
1.00046e-05
8.43942e-06
6.86392e-06
5.29063e-06
3.72635e-06
2.26419e-06
1.46521e-06
2.36449e-06
3.92218e-06
2.99565e-05
3.04881e-05
3.10837e-05
3.17085e-05
3.2357e-05
3.30322e-05
3.37144e-05
3.43975e-05
3.50705e-05
3.57299e-05
3.63638e-05
3.69696e-05
3.75538e-05
3.81005e-05
3.86106e-05
3.90794e-05
3.95019e-05
3.98647e-05
4.01654e-05
4.03878e-05
4.05322e-05
4.05851e-05
4.05208e-05
4.0339e-05
4.00353e-05
3.95874e-05
3.8979e-05
3.82117e-05
3.72798e-05
3.6209e-05
3.49963e-05
3.36805e-05
3.22624e-05
3.07664e-05
2.91843e-05
2.75036e-05
2.56819e-05
2.34451e-05
2.10875e-05
2.94384e-05
2.89382e-05
2.84247e-05
2.78874e-05
2.73404e-05
2.67945e-05
2.62601e-05
2.57575e-05
2.52848e-05
2.48451e-05
2.44319e-05
2.40396e-05
2.36661e-05
2.32973e-05
2.29297e-05
2.25548e-05
2.21557e-05
2.17285e-05
2.12577e-05
2.07351e-05
2.01397e-05
1.94511e-05
1.86576e-05
1.77489e-05
1.67391e-05
1.56386e-05
1.44675e-05
1.32253e-05
1.19175e-05
1.05573e-05
9.15287e-06
7.71587e-06
6.25361e-06
4.77327e-06
3.27557e-06
1.80307e-06
8.68321e-07
1.93881e-06
3.4454e-06
2.67792e-05
2.7261e-05
2.78003e-05
2.83628e-05
2.89453e-05
2.95587e-05
3.01788e-05
3.0797e-05
3.1411e-05
3.20137e-05
3.25968e-05
3.31552e-05
3.36941e-05
3.42069e-05
3.4685e-05
3.51325e-05
3.55419e-05
3.59048e-05
3.62135e-05
3.6462e-05
3.66401e-05
3.67396e-05
3.67456e-05
3.66479e-05