/*--------------------------------*- C++ -*----------------------------------*\
| =========                 |                                                 |
| \\      /  F ield         | OpenFOAM: The Open Source CFD Toolbox           |
|  \\    /   O peration     | Version:  2506                                  |
|   \\  /    A nd           | Website:  www.openfoam.com                      |
|    \\/     M anipulation  |                                                 |
\*---------------------------------------------------------------------------*/
FoamFile
{
    version     2.0;
    format      ascii;
    arch        "LSB;label=32;scalar=64";
    class       volScalarField;
    location    "250";
    object      turbulenceProperties:I;
}
// * * * * * * * * * * * * * * * * * * * * * * * * * * * * * * * * * * * * * //

dimensions      [0 0 0 0 0 0 0];

internalField   nonuniform List<scalar> 
10720
(
0.00417377
0.00414882
0.00416896
0.00429737
0.00446066
0.00468996
0.00500289
0.00538849
0.00586595
0.00645402
0.00717232
0.00806309
0.0091868
0.0106267
0.012526
0.0150827
0.0186864
0.0238148
0.0319836
0.0443622
0.0692301
0.111286
0.226862
0.418935
0.505738
0.465537
0.40744
0.365768
0.33888
0.321812
0.310764
0.303069
0.29862
0.296518
0.296567
0.298823
0.306997
0.317541
0.397054
0.00422519
0.00438224
0.00456314
0.00498508
0.00568691
0.00704447
0.0101844
0.0170027
0.0134811
0.00874221
0.00732148
0.00706293
0.00731376
0.00787066
0.00865673
0.00966596
0.010938
0.0125668
0.0146971
0.0175316
0.0214044
0.0267206
0.0344096
0.0453626
0.0627202
0.0884525
0.131006
0.186852
0.221549
0.234702
0.238641
0.240295
0.241519
0.242568
0.243554
0.244665
0.246106
0.249527
0.255975
0.00181794
0.00166482
0.00152723
0.00139736
0.00127674
0.00116851
0.00106935
0.000977923
0.000896836
0.000824196
0.000759313
0.000711268
0.000692055
0.000711264
0.00079548
0.000979395
0.00132804
0.00189941
0.00294033
0.00464087
0.008128
0.0141023
0.0263401
0.0517486
0.0800525
0.108173
0.136118
0.16037
0.174783
0.176959
0.170637
0.161325
0.152997
0.147086
0.144238
0.144626
0.153786
0.166239
0.316593
0.00198367
0.00219106
0.00246998
0.00286801
0.00346338
0.0043977
0.00583355
0.00715644
0.00638391
0.00446758
0.00313629
0.00234219
0.00183751
0.00148988
0.00123529
0.00104027
0.000884487
0.000756235
0.000645072
0.000542839
0.00043859
0.000325352
0.000185226
7.2446e-05
0.000113159
0.00129877
0.00295867
0.00830382
0.0151235
0.0210852
0.0257844
0.0293962
0.0322591
0.034746
0.0371169
0.039607
0.0424743
0.0476648
0.0612258
0.00157871
0.00145475
0.00133328
0.00121902
0.00112074
0.00103359
0.000958143
0.000895694
0.000844794
0.000804914
0.000774029
0.000752404
0.000739096
0.000733997
0.000729744
0.000715084
0.000666931
0.000617318
0.000208052
0.00151374
0.000945096
0.00122068
0.000444035
0.00273046
0.00808932
0.0152979
0.0252352
0.0398776
0.0596278
0.0826654
0.104886
0.121578
0.130469
0.133621
0.134912
0.136697
0.144106
0.15198
0.254984
0.00172235
0.00189308
0.00212887
0.0024434
0.00286713
0.00342273
0.00405572
0.00446446
0.00424672
0.00349836
0.00272194
0.00212255
0.00168589
0.00136378
0.00112242
0.000937875
0.000796136
0.000687076
0.000604293
0.000541271
0.000494014
0.000459197
0.000434718
0.000416823
0.000406255
0.00039684
0.000402722
0.000306533
0.000797543
0.00203005
0.00340375
0.00491339
0.00735043
0.0106639
0.0142996
0.0179067
0.0214215
0.0239716
0.033758
0.00149026
0.00138672
0.001287
0.0011963
0.0011132
0.00103589
0.000965468
0.000900527
0.00084092
0.000785942
0.000734997
0.000687244
0.000641833
0.000598289
0.000555803
0.000512286
0.000468819
0.00042837
0.00037362
0.000284177
2.2247e-06
0.000430315
0.00036716
0.00149124
0.00289064
0.00409178
0.00312988
0.00220708
0.00379826
0.0123392
0.0271318
0.0477001
0.0708127
0.0915286
0.10695
0.117921
0.130065
0.141762
0.214778
0.00160003
0.00172806
0.00189089
0.00210525
0.0023723
0.00268416
0.0029908
0.00316894
0.0030821
0.00273167
0.00229086
0.00189351
0.0015748
0.00132672
0.00113407
0.000982713
0.000862974
0.000767303
0.000690411
0.000627361
0.000575212
0.000530971
0.000491918
0.00045409
0.000417889
0.000387919
0.000364814
0.000347645
0.000328719
0.000305512
0.00026352
0.000208894
0.000578148
0.000761618
0.00145989
0.00340732
0.00626673
0.0101646
0.0207227
0.00131455
0.00122935
0.0011455
0.00106626
0.00099314
0.000924155
0.000860413
0.000801958
0.000748333
0.000700023
0.000656855
0.00061882
0.000586135
0.000558813
0.000536825
0.000519317
0.000502959
0.000485272
0.000467404
0.000441496
0.000364571
0.00020965
8.51072e-05
3.50857e-05
0
0
0.00197704
0.00221197
0.00331704
0.00228178
0.00367471
0.00522721
0.012943
0.0335081
0.0583882
0.0824618
0.104666
0.124486
0.1823
0.00140567
0.00150908
0.00163738
0.00179523
0.00197616
0.00216718
0.00233675
0.00242965
0.0023887
0.00220547
0.00194526
0.00167726
0.00143621
0.00123098
0.00105994
0.000918144
0.000800776
0.000703731
0.00062371
0.000557505
0.000502683
0.000456829
0.000417549
0.000381143
0.000345819
0.000313545
0.00028713
0.000267958
0.000258199
0.00024627
0.000270917
0.000131182
0.000335148
0.000726119
0.0011428
0.00161811
0.000991921
0.00178939
0.00901717
0.00119675
0.00112917
0.00106146
0.000997523
0.000938167
0.00088175
0.000829281
0.000780511
0.000735032
0.000692788
0.000653388
0.000616605
0.000582267
0.000550148
0.000520073
0.000490976
0.000461031
0.000431037
0.000402768
0.000377685
0.000357409
0.00032793
0.000279412
0.000127626
6.48842e-05
4.76242e-05
3.09521e-05
4.55878e-07
0
0.000869561
0.00186521
0.00443748
0.00152967
0.00724862
0.0107256
0.0357356
0.066766
0.0981848
0.151263
0.00126673
0.00134416
0.00143791
0.00155018
0.00167233
0.00179416
0.00189734
0.00195247
0.00193034
0.00182465
0.00166312
0.00148156
0.00130497
0.00114525
0.00100615
0.000887379
0.000787033
0.000702783
0.000632277
0.000573109
0.000523122
0.000480107
0.00044188
0.000405663
0.000370124
0.000337008
0.000307859
0.00028288
0.000261411
0.000243111
0.000227143
0.000212258
0.000188803
0.000151528
3.78388e-06
2.16665e-05
0.000407969
0.000858616
0.00302917
0.0010772
0.0010223
0.000966413
0.00091274
0.000862499
0.000813996
0.000768203
0.000725182
0.000684531
0.000646362
0.000610542
0.000576955
0.000545679
0.00051677
0.000490205
0.000466223
0.000445419
0.000427023
0.000409361
0.000391623
0.000375
0.000361745
0.000347927
0.000319008
0.000266031
0.000202023
0.00012094
1.62023e-06
4.20941e-05
1.52533e-05
0
0
0.000495212
0.00416277
0.00343934
0.00949173
0.0250996
0.0634329
0.117819
0.00113332
0.00119402
0.00126589
0.00134882
0.00143475
0.00151689
0.0015848
0.00162029
0.00160704
0.0015419
0.00143746
0.00131251
0.00118287
0.00105844
0.000944374
0.000842575
0.000753081
0.000675265
0.000608074
0.000550139
0.000500121
0.000456493
0.000417568
0.000381181
0.000346019
0.000313032
0.000283569
0.000257973
0.000235869
0.000217241
0.00020274
0.000193017
0.000187441
0.000181201
0.000174076
0.000118396
3.72858e-05
8.56239e-06
0.000526731
0.000977319
0.000933323
0.000887848
0.00084378
0.000802348
0.000761992
0.000723747
0.000687643
0.000653313
0.000620911
0.000590213
0.0005611
0.00053355
0.000507483
0.000482823
0.000459578
0.00043724
0.000415007
0.000393331
0.000373188
0.000355524
0.000341555
0.000332134
0.000325826
0.000314511
0.000294833
0.000265973
0.000225611
0.000179922
6.08473e-05
4.28402e-05
1.13217e-05
0
0
0.00133044
0.00621092
0.00871794
0.0283978
0.0817188
0.00102148
0.00106847
0.00112328
0.00118503
0.00124694
0.00130452
0.00135159
0.0013758
0.00136741
0.00132511
0.00125487
0.00116712
0.00107157
0.00097546
0.000883642
0.000798743
0.000721838
0.000653337
0.000593007
0.000540139
0.000493781
0.000452816
0.000415862
0.000381226
0.000347913
0.000316656
0.000288378
0.000263287
0.000240871
0.000220712
0.000202638
0.000186556
0.000172114
0.00015916
0.000149818
0.000141134
0.000120283
4.11308e-05
0.000140663
0.000887728
0.000852041
0.000814646
0.000777984
0.000743325
0.000709226
0.000676619
0.000645581
0.000615806
0.0005874
0.000560239
0.000534224
0.000509349
0.000485604
0.000463009
0.000441548
0.000421302
0.000402593
0.000385279
0.000369119
0.000354151
0.000340849
0.000329691
0.000320383
0.0003111
0.000299658
0.000286722
0.000272782
0.000257147
0.000225698
0.000189191
5.08142e-05
3.45062e-05
0
0
0
0.00492105
0.010583
0.0479039
0.000923087
0.00096014
0.00100277
0.00104969
0.00109554
0.00113742
0.00117132
0.00118853
0.00118306
0.00115437
0.00110565
0.00104281
0.000971818
0.000897644
0.000824091
0.000753653
0.000687814
0.000627405
0.000572729
0.000523631
0.000479677
0.000440111
0.000403976
0.000370077
0.000337649
0.000307111
0.000279316
0.000254502
0.000232347
0.000212585
0.000195197
0.000180508
0.000168865
0.000160652
0.00015627
0.000158052
0.000165595
0.000172825
3.49281e-05
0.000809548
0.000780568
0.000749863
0.000719483
0.000690632
0.000662046
0.000634535
0.000608232
0.000582876
0.00055857
0.000535165
0.000512608
0.000490885
0.000469964
0.000449847
0.000430535
0.000412089
0.000394274
0.000376977
0.000360572
0.000345638
0.000332659
0.000321776
0.000312092
0.000301919
0.000290164
0.000277691
0.000266572
0.000258377
0.00025206
0.000245834
0.00021715
0.000152638
4.61131e-05
3.03345e-06
0
0
0.006313
0.0236003
0.000837892
0.000867247
0.0009007
0.000936838
0.00097146
0.00100285
0.00102797
0.00104055
0.0010369
0.00101682
0.000982095
0.000936256
0.000882994
0.000825584
0.000766897
0.000708983
0.000653261
0.000600812
0.000552189
0.000507584
0.00046691
0.000429745
0.000395423
0.000363145
0.000332342
0.000303304
0.000276701
0.000252786
0.000231262
0.000211811
0.000194347
0.000178865
0.000165362
0.000154307
0.000146185
0.000145348
0.00014602
0.000192217
0.000127927
0.000740417
0.00071674
0.000691381
0.000666078
0.000641939
0.000617871
0.00059453
0.000572122
0.000550366
0.000529394
0.000509072
0.000489303
0.000470124
0.000451474
0.000433373
0.000415863
0.000398972
0.000382796
0.000367418
0.000352945
0.000339596
0.000327596
0.000317006
0.000307273
0.000297037
0.00028525
0.00027232
0.000260172
0.000250501
0.000244227
0.000240844
0.000241237
0.000233009
0.000190889
1.37053e-05
3.9396e-07
0
0.0014978
0.0119921
0.000763325
0.000786806
0.000813399
0.00084163
0.000868231
0.00089233
0.000911349
0.000920761
0.00091829
0.000903884
0.000878522
0.000844485
0.000804121
0.000759555
0.000712775
0.000665352
0.000618516
0.000573271
0.00053031
0.000490007
0.000452482
0.0004176
0.000384955
0.000354037
0.000324522
0.000296656
0.000270926
0.000247596
0.000226533
0.000207461
0.000190366
0.00017538
0.00016276
0.000152971
0.000146343
0.000146361
0.000147697
0.000178758
0.000206373
0.000679296
0.000659894
0.000638903
0.000617788
0.000597585
0.000577323
0.000557588
0.000538548
0.000519991
0.000502016
0.000484507
0.000467385
0.000450647
0.00043427
0.000418255
0.000402637
0.000387457
0.000372797
0.000358624
0.000345012
0.000332332
0.000320849
0.000310631
0.000301187
0.000291446
0.000280476
0.000268411
0.000256631
0.00024649
0.000238568
0.000232536
0.000230439
0.0002321
0.000237368
0.000201684
4.69575e-05
0
0.000858464
0.00709536
0.000697906
0.000716821
0.000738173
0.000760459
0.000781233
0.000800025
0.000814698
0.000821868
0.000820192
0.000809566
0.000790671
0.000765027
0.000734114
0.000699298
0.000661986
0.0006233
0.000584152
0.000545438
0.000507803
0.000471746
0.000437529
0.000405187
0.000374515
0.000345238
0.000317236
0.000290727
0.000266121
0.000243649
0.000223218
0.00020463
0.000187881
0.000173021
0.000160182
0.000149826
0.000142384
0.000141161
0.000143504
0.000165207
0.000215311
0.000624972
0.000609005
0.000591565
0.000573899
0.000556974
0.000539856
0.000523139
0.000506977
0.00049113
0.000475707
0.000460621
0.000445783
0.00043118
0.000416784
0.000402606
0.00038867
0.000375013
0.000361757
0.000348924
0.000336593
0.000325009
0.000314333
0.000304617
0.000295479
0.000286123
0.000275822
0.000264678
0.000253702
0.00024404
0.000236028
0.000229331
0.000224277
0.000222138
0.000225283
0.000240023
0.000183835
1.05138e-05
0.000483188
0.00407512
0.000640189
0.000655496
0.000672764
0.000690587
0.000707011
0.000721856
0.000733328
0.000738885
0.00073769
0.000729728
0.000715423
0.000695791
0.000671856
0.000644525
0.000614691
0.000583123
0.00055053
0.000517599
0.000484903
0.000452878
0.000421885
0.000392089
0.000363423
0.00033582
0.000309308
0.000284091
0.000260528
0.000238867
0.000219024
0.000200906
0.000184508
0.000169971
0.000157375
0.000147262
0.000140105
0.000138622
0.000141107
0.000158559
0.00020596
0.000576541
0.000563335
0.000548799
0.000533995
0.000519781
0.000505339
0.000491198
0.000477472
0.000463957
0.000450762
0.000437808
0.000424996
0.000412332
0.000399774
0.000387309
0.000374985
0.000362818
0.000350925
0.000339319
0.00032807
0.000317346
0.000307375
0.000298156
0.000289418
0.000280544
0.000270932
0.000260622
0.000250448
0.00024139
0.000233784
0.0002274
0.000222082
0.000218265
0.000216867
0.000221593
0.000253677
2.32696e-05
0.000152336
0.00202454
0.000588996
0.000601482
0.000615523
0.000629896
0.000643026
0.000654874
0.000663903
0.000668283
0.000667415
0.000661332
0.000650311
0.000635102
0.000616384
0.000594768
0.000570828
0.000545093
0.000518029
0.000490146
0.000461886
0.000433651
0.00040581
0.000378567
0.000351979
0.000326135
0.000301179
0.000277324
0.000254882
0.00023407
0.000214918
0.000197326
0.000181323
0.000167022
0.000154559
0.00014435
0.000136939
0.000134867
0.000136875
0.00015259
0.000194887
0.000533149
0.000522178
0.000510038
0.000497632
0.000485669
0.000473494
0.000461508
0.00044983
0.000438327
0.000427063
0.000415965
0.000404937
0.000393977
0.000383047
0.000372133
0.000361257
0.000350459
0.000339812
0.000329398
0.00031924
0.000309433
0.000300226
0.00029159
0.00028331
0.00027493
0.000265978
0.000256437
0.000246986
0.000238468
0.000231235
0.000225185
0.000220256
0.000216357
0.000214998
0.000209851
0.000243984
0.000186124
1.72488e-05
0.000493026
0.000543358
0.000553599
0.000565098
0.000576734
0.000587329
0.000596861
0.000604037
0.000607512
0.000606858
0.000602114
0.000593491
0.000581566
0.000566779
0.000549569
0.000530287
0.000509299
0.000486854
0.000463292
0.000438977
0.00041425
0.000389398
0.000364675
0.000340207
0.000316122
0.000292696
0.000270185
0.000248872
0.00022895
0.000210479
0.000193442
0.000177814
0.000163767
0.000151482
0.000141367
0.000133851
0.000131421
0.000132948
0.000146797
0.000184639
0.000494091
0.00048499
0.000474843
0.000464385
0.000454343
0.000444062
0.000433918
0.000424013
0.000414238
0.000404634
0.000395138
0.000385669
0.000376223
0.00036674
0.000357239
0.000347715
0.000338188
0.000328723
0.000319416
0.000310273
0.000301343
0.00029285
0.000284814
0.000277045
0.000269183
0.000260861
0.000252076
0.000243331
0.00023533
0.000228447
0.000222659
0.000218008
0.000214326
0.000213168
0.000209671
0.000218097
0.00024874
1.42053e-05
0.000124684
0.000502522
0.000510907
0.00052036
0.00052986
0.000538471
0.000546158
0.000551913
0.000554668
0.000554146
0.000550375
0.000543557
0.000534084
0.000522321
0.000508498
0.000492908
0.000475715
0.00045708
0.000437246
0.000416428
0.000394861
0.000372809
0.000350516
0.000328121
0.000305839
0.000283963
0.000262821
0.000242633
0.000223633
0.000205867
0.000189395
0.000174189
0.000160448
0.000148277
0.000138158
0.00013047
0.000127601
0.000128639
0.000140779
0.000174943
0.000458808
0.000451246
0.000442762
0.000433966
0.000425507
0.000416839
0.000408255
0.000399885
0.000391573
0.000383396
0.0003753
0.000367193
0.00035907
0.000350895
0.000342651
0.000334338
0.000325976
0.000317596
0.000309316
0.000301138
0.000293086
0.000285315
0.000277877
0.000270653
0.000263347
0.000255645
0.000247571
0.000239495
0.000232008
0.000225492
0.000219945
0.000215458
0.000212043
0.000210334
0.000210651
0.00020444
0.000259269
2.95779e-05
9.52135e-07
0.000465802
0.000472695
0.000480472
0.000488263
0.000495302
0.000501506
0.000506141
0.000508321
0.000507903
0.00050485
0.000499389
0.000491767
0.0004823
0.000471126
0.000458433
0.000444328
0.000428855
0.00041217
0.000394385
0.000375667
0.000356219
0.000336206
0.000315828
0.000295319
0.000274993
0.00025519
0.000236152
0.000218061
0.000201059
0.000185125
0.000170389
0.000156942
0.000144958
0.000134787
0.000126958
0.000123638
0.000124223
0.000134757
0.000165512
0.000426845
0.000420556
0.000413439
0.00040604
0.000398935
0.000391637
0.000384371
0.000377291
0.00037026
0.000363322
0.000356432
0.000349521
0.00034257
0.000335549
0.000328416
0.000321187
0.000313887
0.000306525
0.000299197
0.000291914
0.00028469
0.000277628
0.000270799
0.000264136
0.000257377
0.00025031
0.000242905
0.000235484
0.000228518
0.00022237
0.000217092
0.000212751
0.000209548
0.000207408
0.000208933
0.000202203
0.000238317
0.000159693
2.45348e-05
0.000432614
0.0004383
0.00044472
0.00045112
0.0004569
0.000461922
0.000465635
0.000467388
0.000466998
0.000464494
0.000460035
0.000453868
0.000446176
0.00043707
0.000426696
0.000415059
0.000402188
0.00038815
0.000372987
0.000356782
0.000339692
0.000321861
0.000303433
0.000284626
0.000265812
0.000247334
0.000229447
0.000212295
0.000196026
0.000180699
0.000166417
0.00015324
0.000141432
0.000131285
0.00012325
0.000119454
0.000119575
0.000128726
0.000156307
0.000397778
0.00039253
0.000386568
0.000380357
0.000374388
0.000368241
0.000362141
0.000356151
0.000350212
0.000344348
0.000338501
0.000332621
0.000326705
0.000320682
0.000314554
0.000308315
0.000301968
0.000295532
0.000289081
0.000282633
0.00027619
0.00026981
0.000263604
0.000257502
0.000251306
0.000244836
0.000238077
0.000231281
0.000224831
0.000219055
0.000214063
0.000209898
0.00020682
0.000204678
0.000205449
0.000203143
0.000216057
0.000219745
8.52537e-05
0.00040255
0.000407223
0.000412529
0.000417806
0.000422532
0.000426624
0.00042959
0.000430971
0.000430585
0.000428505
0.000424816
0.000419748
0.000413447
0.000405989
0.000397443
0.000387801
0.000377083
0.00036525
0.00035232
0.000338348
0.000323392
0.000307553
0.000290938
0.000273795
0.000256473
0.000239305
0.000222532
0.00020634
0.00019082
0.000176092
0.000162245
0.000149391
0.000137703
0.000127571
0.000119377
0.000115064
0.000114715
0.000122665
0.000147337
0.000371245
0.000366882
0.000361893
0.00035668
0.000351687
0.00034652
0.000341389
0.000336368
0.000331352
0.000326404
0.000321472
0.000316503
0.00031148
0.000306352
0.000301108
0.000295749
0.000290265
0.000284673
0.00027901
0.000273338
0.000267632
0.000261916
0.000256313
0.000250762
0.000245129
0.000239238
0.0002331
0.00022689
0.000220953
0.000215553
0.000210842
0.000206888
0.000203884
0.000201914
0.000201653
0.000202573
0.000203637
0.000225649
0.00016516
0.000375185
0.000379035
0.000383413
0.000387769
0.000391631
0.000394948
0.000397326
0.000398383
0.000397995
0.000396222
0.000393159
0.000388936
0.000383709
0.000377556
0.000370468
0.000362456
0.000353482
0.000343497
0.000332488
0.000320455
0.000307393
0.000293379
0.000278476
0.000262904
0.000247014
0.00023112
0.000215441
0.00020017
0.000185444
0.000171332
0.000157923
0.00014539
0.000133852
0.000123693
0.000115287
0.000110477
0.000109661
0.000116605
0.000138685
0.000346964
0.000343345
0.000339183
0.000334804
0.000330641
0.000326318
0.000322006
0.000317808
0.00031361
0.00030945
0.00030531
0.000301124
0.000296873
0.000292537
0.000288079
0.000283502
0.000278785
0.00027396
0.000269034
0.000264077
0.000259059
0.000253979
0.000248948
0.000243953
0.000238855
0.000233533
0.000227977
0.000222327
0.000216883
0.000211873
0.000207446
0.000203712
0.000200781
0.000198937
0.000198079
0.000199879
0.000198499
0.000213609
0.00020178
0.000350207
0.000353365
0.000356978
0.000360563
0.000363725
0.000366383
0.000368284
0.000369093
0.000368691
0.000367143
0.000364547
0.000361007
0.000356647
0.000351494
0.000345579
0.000338896
0.000331335
0.00032291
0.00031354
0.000303161
0.000291778
0.000279409
0.000266094
0.000252025
0.000237475
0.000222801
0.000208221
0.000193866
0.000179881
0.00016639
0.000153451
0.000141222
0.000129862
0.000119665
0.000110987
0.000105718
0.000104423
0.000110533
0.000130316
0.000324685
0.00032168
0.000318222
0.00031457
0.000311096
0.000307499
0.000303907
0.000300399
0.000296907
0.000293434
0.000289973
0.000286467
0.000282898
0.000279245
0.000275481
0.00027159
0.000267571
0.00026343
0.000259176
0.000254874
0.000250486
0.00024601
0.000241534
0.000237066
0.000232501
0.000227714
0.000222714
0.000217609
0.000212638
0.000208009
0.000203876
0.000200345
0.000197526
0.000195719
0.000194648
0.000196011
0.000195631
0.000201309
0.000207899
0.000327352
0.000329915
0.000332894
0.000335843
0.000338402
0.000340541
0.000342036
0.000342629
0.000342194
0.000340844
0.000338596
0.000335594
0.000331917
0.00032757
0.000322607
0.000316975
0.000310611
0.000303476
0.000295458
0.000286519
0.000276623
0.000265719
0.000253865
0.000241161
0.00022791
0.000214414
0.000200873
0.000187428
0.000174207
0.000161311
0.000148844
0.000136945
0.000125723
0.000115449
0.000106529
0.000100733
9.89834e-05
0.000104444
0.000122251
0.000304168
0.000301706
0.000298837
0.000295797
0.000292937
0.000289952
0.000286971
0.000284066
0.000281165
0.000278296
0.000275419
0.000272506
0.000269536
0.00026648
0.000263321
0.00026004
0.000256638
0.000253111
0.000249458
0.000245743
0.000241941
0.00023803
0.000234082
0.000230122
0.000226059
0.000221796
0.000217318
0.000212738
0.000208226
0.000203975
0.000200128
0.000196801
0.000194094
0.000192284
0.000191165
0.000191787
0.000192413
0.000192808
0.000201679
0.000306361
0.000308435
0.000310886
0.000313302
0.00031536
0.000317074
0.00031821
0.000318612
0.000318173
0.000316944
0.000314991
0.000312412
0.000309265
0.000305594
0.000301382
0.000296613
0.000291235
0.000285138
0.000278279
0.000270586
0.000261954
0.000252388
0.000241841
0.000230413
0.000218372
0.000205992
0.000193449
0.00018088
0.000168397
0.000156112
0.000144118
0.000132513
0.000121435
0.00011112
0.000101923
9.55503e-05
9.33459e-05
9.83212e-05
0.000114508
0.000285266
0.000283244
0.000280879
0.000278368
0.000276009
0.000273554
0.000271106
0.000268724
0.000266332
0.000263975
0.000261611
0.000259207
0.000256756
0.00025422
0.00025159
0.00024885
0.000245994
0.000243016
0.000239918
0.000236729
0.000233467
0.00023008
0.000226625
0.000223149
0.000219563
0.000215793
0.000211804
0.000207709
0.000203628
0.000199751
0.000196189
0.00019308
0.000190495
0.000188675
0.000187516
0.000187527
0.00018833
0.000186842
0.000192791
0.000287036
0.00028871
0.000290709
0.000292679
0.000294324
0.00029566
0.000296534
0.000296754
0.000296303
0.000295162
0.000293442
0.000291203
0.000288502
0.000285338
0.000281747
0.000277698
0.000273091
0.000267891
0.00026201
0.000255356
0.000247851
0.000239457
0.000230081
0.000219829
0.000208913
0.000197575
0.00018598
0.000174259
0.000162508
0.000150812
0.000139287
0.000127981
0.000117055
0.000106678
9.71938e-05
9.0206e-05
8.75337e-05
9.2182e-05
0.000107061
0.000267787
0.000266142
0.000264207
0.000262143
0.000260228
0.000258224
0.000256231
0.000254294
0.000252347
0.000250429
0.000248507
0.00024655
0.000244544
0.000242476
0.000240309
0.000238036
0.000235655
0.000233164
0.000230561
0.000227856
0.000225073
0.000222178
0.000219185
0.000216154
0.000213022
0.000209709
0.000206191
0.00020254
0.000198883
0.000195363
0.000192084
0.000189187
0.000186727
0.000184903
0.000183666
0.000183267
0.000183695
0.000181722
0.000184423
0.000269213
0.000270543
0.000272157
0.000273756
0.000275051
0.000276077
0.00027671
0.000276814
0.000276304
0.000275261
0.000273725
0.000271745
0.000269383
0.000266665
0.000263581
0.000260096
0.000256143
0.000251679
0.000246611
0.000240855
0.000234332
0.000226935
0.000218624
0.000209443
0.000199558
0.000189193
0.000178511
0.000167599
0.000156559
0.000145455
0.000134377
0.00012339
0.000112619
0.000102143
9.23049e-05
8.46798e-05
8.15314e-05
8.60483e-05
9.99575e-05
0.000251595
0.00025027
0.000248701
0.000247029
0.000245485
0.000243875
0.000242268
0.000240709
0.000239158
0.00023762
0.000236071
0.000234499
0.000232886
0.000231201
0.000229444
0.000227599
0.000225642
0.000223574
0.000221404
0.000219142
0.00021679
0.000214339
0.000211771
0.000209158
0.000206447
0.000203556
0.000200473
0.000197251
0.000194001
0.000190815
0.000187822
0.000185123
0.000182783
0.000180966
0.00017964
0.000178931
0.000178817
0.000176636
0.000176967
0.00025273
0.000253771
0.000255052
0.000256341
0.000257338
0.000258114
0.000258537
0.000258527
0.000257996
0.000257019
0.000255624
0.000253864
0.000251791
0.000249415
0.000246742
0.000243716
0.00024031
0.000236458
0.000232088
0.000227094
0.000221383
0.000214876
0.00020752
0.000199293
0.000190352
0.000180903
0.000171079
0.000160938
0.000150562
0.000140045
0.000129419
0.000118734
0.000108089
9.75535e-05
8.73445e-05
7.90206e-05
7.53039e-05
7.99018e-05
9.31622e-05
0.000236566
0.000235518
0.000234277
0.000232919
0.000231701
0.000230428
0.000229151
0.000227927
0.000226698
0.000225489
0.000224278
0.000223027
0.000221752
0.000220417
0.000219004
0.000217515
0.000215937
0.000214259
0.000212465
0.000210593
0.000208635
0.000206584
0.000204413
0.000202183
0.00019986
0.000197366
0.000194682
0.000191861
0.000188977
0.000186121
0.000183403
0.000180892
0.000178679
0.00017688
0.000175456
0.000174491
0.000173861
0.0001714
0.000170119
0.00023746
0.00023827
0.00023927
0.000240285
0.000241039
0.000241579
0.000241857
0.000241735
0.000241189
0.000240262
0.000238978
0.000237387
0.000235547
0.000233448
0.000231121
0.000228487
0.000225525
0.000222191
0.000218391
0.000214029
0.000209047
0.000203341
0.000196795
0.000189427
0.000181356
0.000172747
0.000163708
0.000154311
0.00014459
0.000134617
0.000124438
0.000114077
0.000103555
9.29074e-05
8.23272e-05
7.32001e-05
6.88403e-05
7.37723e-05
8.67482e-05
0.000222596
0.000221796
0.000220811
0.00021974
0.000218802
0.000217808
0.000216817
0.000215872
0.000214927
0.000214003
0.000213079
0.000212121
0.000211126
0.000210088
0.000208986
0.000207808
0.000206546
0.0002052
0.000203762
0.000202229
0.000200625
0.000198925
0.000197116
0.000195241
0.000193277
0.000191148
0.000188831
0.000186382
0.000183838
0.000181293
0.000178824
0.000176514
0.000174423
0.000172644
0.000171135
0.000169938
0.000168865
0.000166079
0.000163633
0.000223278
0.000223885
0.000224665
0.000225441
0.000225997
0.000226365
0.000226492
0.000226289
0.000225716
0.000224817
0.000223632
0.000222203
0.000220543
0.000218693
0.000216608
0.00021432
0.000211724
0.000208811
0.000205489
0.0002017
0.000197324
0.000192273
0.00018646
0.00017987
0.000172587
0.000164755
0.000156453
0.00014773
0.000138643
0.000129224
0.000119481
0.000109431
9.90629e-05
8.83406e-05
7.73288e-05
6.72526e-05
6.21485e-05
6.77027e-05
8.06975e-05
0.000209602
0.000208996
0.000208232
0.000207407
0.000206696
0.000205948
0.000205208
0.000204512
0.00020381
0.00020312
0.000202432
0.000201727
0.000200993
0.000200209
0.000199367
0.000198467
0.000197491
0.000196428
0.000195291
0.000194061
0.000192778
0.000191392
0.0001899
0.000188344
0.000186701
0.000184899
0.000182927
0.000180811
0.000178594
0.000176335
0.000174118
0.000171991
0.000170026
0.000168263
0.000166688
0.000165271
0.000163821
0.000160731
0.000157394
0.000210102
0.000210535
0.000211115
0.000211701
0.000212076
0.000212295
0.000212305
0.000212023
0.000211439
0.000210579
0.000209465
0.000208153
0.000206661
0.000204986
0.000203144
0.000201108
0.000198847
0.000196278
0.000193379
0.000190036
0.000186176
0.00018172
0.000176564
0.000170656
0.000164072
0.000156937
0.000149329
0.000141275
0.000132777
0.000123874
0.000114583
0.000104857
9.46513e-05
8.38676e-05
7.23917e-05
6.12109e-05
5.51344e-05
6.16964e-05
7.50076e-05
0.000197475
0.000197033
0.000196471
0.000195858
0.000195343
0.000194804
0.000194275
0.000193782
0.000193293
0.000192817
0.000192342
0.000191841
0.000191312
0.00019075
0.000190142
0.000189478
0.000188747
0.000187944
0.000187066
0.000186109
0.000185094
0.000184002
0.000182793
0.000181524
0.000180169
0.00017867
0.000177008
0.00017518
0.000173265
0.000171279
0.000169292
0.000167339
0.000165485
0.00016376
0.000162125
0.000160524
0.000158749
0.000155397
0.000151395
0.000197824
0.000198119
0.00019854
0.000198961
0.000199195
0.000199273
0.000199173
0.000198848
0.000198249
0.000197406
0.000196367
0.000195157
0.000193787
0.000192284
0.000190645
0.000188813
0.000186801
0.000184546
0.000181984
0.000179033
0.000175645
0.00017169
0.000167092
0.000161785
0.000155845
0.000149366
0.000142387
0.000134926
0.000127001
0.00011862
0.000109761
0.000100376
9.03727e-05
7.95561e-05
6.76362e-05
5.5156e-05
4.77187e-05
5.58839e-05
6.98031e-05
0.000186155
0.000185863
0.000185463
0.000185015
0.000184677
0.000184325
0.000183972
0.000183656
0.000183346
0.000183038
0.000182738
0.000182432
0.000182094
0.000181712
0.000181296
0.000180835
0.000180318
0.000179735
0.000179083
0.000178363
0.000177591
0.000176746
0.000175798
0.000174784
0.000173688
0.000172453
0.000171061
0.000169521
0.00016786
0.00016613
0.000164352
0.000162579
0.000160828
0.000159144
0.000157457
0.000155709
0.000153659
0.000150091
0.000145617
0.000186377
0.000186553
0.000186826
0.000187113
0.000187221
0.00018721
0.00018703
0.000186647
0.000186052
0.00018522
0.000184243
0.000183106
0.000181856
0.000180489
0.000178988
0.000177366
0.000175557
0.000173568
0.000171287
0.000168686
0.000165682
0.000162171
0.000158058
0.000153293
0.00014794
0.000142034
0.000135633
0.000128754
0.000121381
0.000113489
0.000105064
9.60354e-05
8.62662e-05
7.55131e-05
6.32598e-05
4.92836e-05
3.96725e-05
5.04759e-05
6.51202e-05
0.000175576
0.000175392
0.000175135
0.000174847
0.000174659
0.000174446
0.000174242
0.000174086
0.000173926
0.000173782
0.000173631
0.000173458
0.000173285
0.000173072
0.000172823
0.000172534
0.000172199
0.000171803
0.000171354
0.000170835
0.000170267
0.000169641
0.000168924
0.000168132
0.000167259
0.000166261
0.000165113
0.000163832
0.000162414
0.000160914
0.000159322
0.000157712
0.000156068
0.000154421
0.000152711
0.000150836
0.000148562
0.000144838
0.000140036
0.000175687
0.000175764
0.000175927
0.000176089
0.000176092
0.000175992
0.000175756
0.000175342
0.000174716
0.00017393
0.000172994
0.000171929
0.000170771
0.000169509
0.000168156
0.000166695
0.000165076
0.000163283
0.000161256
0.000158956
0.000156287
0.000153153
0.000149478
0.000145197
0.00014035
0.000134972
0.000129128
0.000122782
0.000115912
0.000108513
0.000100531
9.18867e-05
8.24086e-05
7.17868e-05
5.93541e-05
4.40015e-05
3.05441e-05
4.56889e-05
6.09767e-05
0.000165656
0.000165586
0.000165456
0.000165292
0.000165216
0.000165139
0.000165069
0.000165035