/*--------------------------------*- C++ -*----------------------------------*\
| =========                 |                                                 |
| \\      /  F ield         | OpenFOAM: The Open Source CFD Toolbox           |
|  \\    /   O peration     | Version:  2506                                  |
|   \\  /    A nd           | Website:  www.openfoam.com                      |
|    \\/     M anipulation  |                                                 |
\*---------------------------------------------------------------------------*/
FoamFile
{
    version     2.0;
    format      ascii;
    arch        "LSB;label=32;scalar=64";
    class       volSymmTensorField;
    location    "250";
    object      turbulenceProperties:devReff;
}
// * * * * * * * * * * * * * * * * * * * * * * * * * * * * * * * * * * * * * //

dimensions      [0 2 -2 0 0 0 0];

internalField   nonuniform List<symmTensor> 
10720
(
(0.00163661 0.00425676 -9.48914e-22 -0.0017732 -2.238e-20 0.000136593)
(0.00238777 0.00487877 -1.33047e-22 -0.00248573 1.4032e-19 9.79566e-05)
(0.00360993 0.00545918 -2.76218e-20 -0.00380715 -4.34855e-19 0.000197219)
(0.00524428 0.00621317 1.1902e-19 -0.00549025 8.78568e-19 0.000245974)
(0.0074226 0.00687148 -2.25862e-19 -0.00769125 -8.34007e-19 0.000268645)
(0.0104007 0.00725985 -1.72245e-19 -0.0107921 -4.50479e-19 0.000391382)
(0.0142947 0.00737258 3.25807e-19 -0.0147809 1.25213e-18 0.000486207)
(0.019182 0.00685721 -8.3098e-19 -0.0197645 -2.26072e-18 0.000582523)
(0.0252317 0.00535022 -2.06451e-19 -0.0259782 6.04409e-19 0.000746486)
(0.0325552 0.00260573 6.13497e-19 -0.0334555 1.25912e-18 0.000900377)
(0.0413301 -0.0018973 1.57931e-18 -0.0424215 5.77284e-19 0.00109135)
(0.0519443 -0.00873153 -3.55141e-18 -0.0532619 -3.29834e-18 0.00131761)
(0.0649374 -0.0188164 6.72643e-19 -0.0665304 8.68291e-19 0.00159295)
(0.0812207 -0.0337394 2.68553e-18 -0.0831752 1.27259e-18 0.0019545)
(0.102329 -0.0561504 -4.07586e-18 -0.104795 -6.3678e-18 0.00246575)
(0.130485 -0.0903792 -4.36356e-18 -0.13366 -2.58366e-18 0.00317406)
(0.16979 -0.144995 1.92034e-17 -0.174096 1.77827e-17 0.00430525)
(0.224226 -0.232403 1.7858e-17 -0.230106 3.37818e-17 0.00588007)
(0.31061 -0.388572 -3.53584e-17 -0.319219 -5.47991e-17 0.00860851)
(0.426533 -0.642109 -1.38744e-18 -0.438714 1.45624e-17 0.0121811)
(0.665343 -1.2122 -2.71985e-17 -0.684709 5.19231e-17 0.0193659)
(0.946338 -2.11785 -1.21567e-17 -0.972506 4.18003e-17 0.0261682)
(1.75941 -5.115 -1.43138e-16 -1.81142 -6.37095e-16 0.0520111)
(2.42992 -10.3249 3.30632e-16 -2.5136 5.56349e-16 0.0836842)
(1.53545 -11.7031 4.19354e-17 -1.57715 -7.10949e-16 0.0417071)
(0.530965 -11.2963 3.67474e-16 -0.519931 5.79051e-16 -0.0110335)
(-0.144975 -11.1102 -8.14551e-17 0.17453 -7.83545e-17 -0.0295549)
(-0.667062 -11.289 2.74579e-16 0.691671 2.30129e-16 -0.0246096)
(-1.14091 -11.4991 7.31009e-16 1.15723 1.20696e-15 -0.016313)
(-1.57847 -11.5081 4.04006e-16 1.58676 1.99575e-15 -0.00829471)
(-1.96626 -11.2901 -1.415e-15 1.96455 -1.92986e-15 0.00170458)
(-2.28322 -10.8804 -4.77525e-16 2.27276 -7.25666e-16 0.0104564)
(-2.50433 -10.2643 -2.77932e-17 2.48937 -4.37601e-15 0.014959)
(-2.61689 -9.45556 -2.58989e-15 2.60146 -7.29666e-15 0.0154311)
(-2.60208 -8.44608 1.00704e-15 2.58782 9.23187e-16 0.0142683)
(-2.44918 -7.26629 1.22937e-15 2.4381 1.14699e-15 0.0110821)
(-2.08899 -5.71248 -1.23141e-16 2.07553 -5.27254e-16 0.013461)
(-1.60053 -4.20537 -1.53103e-15 1.59865 -2.60913e-17 0.00187807)
(-0.479493 -0.942596 -1.87719e-16 0.480221 -1.91685e-15 -0.000727913)
(0.000967727 0.0037122 2.39127e-21 -0.00101964 5.55841e-20 5.19124e-05)
(0.000549477 0.0031965 -3.56945e-21 -0.00063952 2.73583e-23 9.00438e-05)
(0.000179186 0.00261062 -1.95557e-20 -0.000226277 -1.37122e-19 4.70912e-05)
(-6.71516e-05 0.00208936 4.97492e-21 3.29968e-05 9.35857e-20 3.41548e-05)
(-0.000179306 0.00159668 3.9194e-21 0.000160985 -1.82499e-20 1.83201e-05)
(-0.000172637 0.00116706 -3.38524e-20 0.000173002 1.1082e-19 -3.65275e-07)
(-8.40381e-05 0.000835212 -2.02256e-19 0.000108133 1.62785e-19 -2.40946e-05)
(5.47506e-05 0.000636871 1.38525e-19 -1.70557e-05 -6.60697e-20 -3.76949e-05)
(0.000231319 0.000621177 2.26694e-19 -0.000204921 -1.14672e-19 -2.63979e-05)
(0.000471258 0.000742164 -1.54452e-19 -0.000467946 3.90443e-20 -3.3119e-06)
(0.000812284 0.0010267 -3.88397e-20 -0.000822899 1.83172e-19 1.06155e-05)
(0.0013063 0.00156631 2.49328e-19 -0.00132426 1.03726e-19 1.79614e-05)
(0.00202412 0.00252553 4.59471e-19 -0.00205427 -7.15352e-20 3.01518e-05)
(0.0030555 0.00413703 -8.1254e-21 -0.00310677 -2.58826e-19 5.12721e-05)
(0.00447299 0.00664459 -8.04873e-20 -0.0045479 -1.73512e-19 7.4904e-05)
(0.00629921 0.0103379 2.68706e-20 -0.00640789 -5.8202e-20 0.000108674)
(0.00863929 0.0156355 -1.97148e-19 -0.008785 6.70233e-19 0.000145716)
(0.0117406 0.0234257 7.42483e-19 -0.0119387 2.76038e-19 0.000198116)
(0.0161492 0.0354526 3.28067e-19 -0.0164176 -1.21883e-18 0.00026832)
(0.0226903 0.0550038 -1.321e-18 -0.0230808 -3.46621e-19 0.000390527)
(0.0329449 0.088629 -4.44168e-18 -0.0335358 -2.03031e-18 0.000590899)
(0.0490796 0.14855 -3.35609e-18 -0.050059 -8.97744e-19 0.000979327)
(0.0757205 0.263811 6.22936e-18 -0.0774984 -5.78657e-19 0.00177791)
(0.116304 0.487868 -7.46679e-18 -0.119941 1.20821e-18 0.00363683)
(0.1833 0.979767 4.07125e-18 -0.191148 -7.23333e-18 0.00784775)
(0.278019 2.0182 -1.26453e-16 -0.294396 2.60728e-18 0.0163776)
(0.410214 4.53458 -7.83628e-17 -0.448701 1.23226e-17 0.0384872)
(0.42127 9.37167 6.59439e-17 -0.501592 8.34974e-19 0.0803217)
(0.00809954 13.2937 8.69922e-18 -0.112239 -1.27354e-19 0.10414)
(-0.628818 14.9608 6.2885e-17 0.530496 4.82774e-19 0.0983225)
(-1.26794 15.3995 -4.3719e-16 1.18571 -4.92981e-18 0.0822337)
(-1.85334 15.4193 1.57342e-16 1.78601 2.0891e-17 0.0673296)
(-2.37752 15.2571 -1.88894e-15 2.32173 -1.52955e-16 0.0557911)
(-2.83331 14.957 -3.45862e-15 2.7864 -2.38372e-16 0.0469009)
(-3.21867 14.5346 1.0583e-15 3.17835 1.08046e-16 0.0403219)
(-3.53774 14.0114 1.00938e-15 3.50247 1.63045e-16 0.0352616)
(-3.77524 13.2877 1.45039e-15 3.74316 2.67016e-16 0.0320809)
(-3.9191 12.4697 -2.90435e-16 3.88911 -3.65755e-17 0.029996)
(-3.63939 10.0647 -4.55375e-15 3.63279 -7.83744e-16 0.00660282)
(0.000579415 -0.000460484 1.22795e-22 -0.000520029 4.00417e-21 -5.93858e-05)
(0.000492595 -0.000547305 2.90324e-20 -0.000425476 7.03509e-20 -6.71191e-05)
(0.000371421 -0.000622902 -2.69209e-20 -0.000291103 -4.74627e-20 -8.03177e-05)
(0.000250533 -0.00065213 -1.81299e-20 -0.000158603 -5.165e-20 -9.193e-05)
(0.000133165 -0.00064507 1.22265e-19 -3.25699e-05 2.37308e-19 -0.000100595)
(2.31685e-05 -0.000610449 4.76166e-20 8.61543e-05 7.38711e-20 -0.000109323)
(-6.02529e-05 -0.000551371 2.2581e-19 0.000177163 2.07441e-19 -0.00011691)
(-0.000116594 -0.000478984 -1.1671e-19 0.000238432 -2.24561e-20 -0.000121838)
(-0.000149256 -0.000404761 1.64903e-19 0.000274539 1.14257e-19 -0.000125283)
(-0.000157965 -0.000335996 -5.87135e-21 0.000285219 2.46229e-22 -0.000127254)
(-0.000150075 -0.000278303 -2.22997e-19 0.000276977 -1.90517e-19 -0.000126902)
(-0.000132624 -0.000239939 2.87164e-19 0.000258852 3.57514e-19 -0.000126228)
(-0.000110845 -0.000226095 1.76582e-19 0.000240708 8.8723e-20 -0.000129863)
(-8.62156e-05 -0.000245702 -3.68489e-20 0.000231047 1.9978e-20 -0.000144831)
(-4.85451e-05 -0.000344311 -2.26694e-19 0.000241347 3.735e-20 -0.000192802)
(6.22145e-05 -0.000657736 4.76866e-19 0.000258275 5.4575e-19 -0.000320489)
(0.000453587 -0.00154491 8.53633e-19 0.000142865 -9.33984e-19 -0.000596452)
(0.00149851 -0.00354484 -4.41706e-18 -0.000495778 -5.72508e-18 -0.00100274)
(0.00418665 -0.00864751 5.05877e-19 -0.00252177 7.44952e-18 -0.00166488)
(0.0104468 -0.0211036 7.36682e-18 -0.00786363 -2.0709e-18 -0.00258314)
(0.029204 -0.0620183 1.53875e-17 -0.0248166 6.10303e-18 -0.00438739)
(0.0735645 -0.173734 -2.35104e-17 -0.0673529 -2.24606e-17 -0.00621167)
(0.192771 -0.539478 7.37174e-17 -0.185001 1.85336e-16 -0.00777001)
(0.498214 -1.76412 1.5864e-19 -0.495325 -1.52836e-16 -0.00288889)
(0.741242 -3.51406 -2.714e-16 -0.764482 1.67607e-16 0.0232397)
(0.783476 -5.35382 -9.73549e-17 -0.837175 -6.53579e-16 0.0536992)
(0.599968 -7.10153 1.06385e-18 -0.671177 7.50932e-17 0.0712089)
(0.204598 -8.34782 -2.93606e-16 -0.279521 -4.41516e-16 0.0749229)
(-0.292474 -8.60192 -4.93247e-16 0.226942 -2.81786e-15 0.0655325)
(-0.703572 -7.8774 -1.67324e-16 0.662455 -3.52998e-15 0.0411174)
(-0.928471 -6.68009 5.22093e-16 0.91989 4.87895e-15 0.00858075)
(-0.996154 -5.46887 -9.53591e-16 1.01412 -4.06778e-17 -0.0179638)
(-0.982629 -4.48984 -7.19049e-15 1.01241 1.34082e-15 -0.0297764)
(-0.929292 -3.74573 8.76415e-15 0.959065 1.58931e-14 -0.0297726)
(-0.862526 -3.17964 -1.48718e-15 0.886685 -8.56055e-16 -0.0241592)
(-0.780723 -2.73787 3.41118e-15 0.801284 -4.99473e-15 -0.0205603)
(-0.730168 -2.42763 -1.5053e-15 0.743616 1.52443e-15 -0.0134488)
(-0.561183 -2.13593 3.26052e-15 0.596402 4.10265e-16 -0.0352198)
(-0.783655 -2.24897 5.37849e-15 0.695447 7.29367e-15 0.0882078)
(0.00064563 -0.000344974 9.36897e-21 -0.000595398 2.31785e-20 -5.02325e-05)
(0.000684397 -0.000224584 -1.27026e-20 -0.000637446 -9.60231e-20 -4.6951e-05)
(0.000691675 -7.63725e-05 -1.86399e-20 -0.000654646 -1.11221e-19 -3.70285e-05)
(0.00065423 8.6696e-05 -7.12543e-21 -0.000627646 1.65302e-19 -2.65841e-05)
(0.000565059 0.000235309 1.92282e-21 -0.00055094 4.34564e-20 -1.4119e-05)
(0.00042925 0.000348916 3.78229e-20 -0.000425595 -1.45273e-19 -3.6548e-06)
(0.0002712 0.00040598 7.8174e-20 -0.000274615 -1.96054e-19 3.41474e-06)
(0.000131105 0.00040695 -3.17852e-19 -0.000140175 8.38927e-21 9.07047e-06)
(2.28644e-05 0.000374105 4.88557e-20 -3.33677e-05 2.16475e-19 1.05034e-05)
(-6.63106e-05 0.000316345 1.24583e-21 6.00913e-05 -1.29262e-19 6.21931e-06)
(-0.000121748 0.000243623 -8.32665e-20 0.00012317 -7.89499e-20 -1.42116e-06)
(-0.000141737 0.000176675 -6.007e-20 0.000150056 -8.49785e-20 -8.31961e-06)
(-0.000139955 0.000124403 -1.12035e-20 0.000152757 1.86578e-20 -1.2802e-05)
(-0.000127556 8.66352e-05 3.75291e-20 0.000142821 1.00994e-19 -1.52643e-05)
(-0.000111029 6.08978e-05 6.47345e-20 0.000127484 2.50123e-20 -1.64553e-05)
(-9.41791e-05 4.40098e-05 -9.21232e-20 0.000110936 -4.70298e-21 -1.67567e-05)
(-7.86741e-05 3.33945e-05 8.26998e-20 9.50875e-05 8.54614e-21 -1.64134e-05)
(-6.53823e-05 2.68795e-05 -9.84654e-21 8.10332e-05 -2.88824e-20 -1.56509e-05)
(-5.43266e-05 2.2743e-05 -3.38073e-20 6.89833e-05 5.37949e-20 -1.46567e-05)
(-4.52789e-05 1.99755e-05 -2.57744e-20 5.891e-05 2.80631e-20 -1.3631e-05)
(-3.79928e-05 1.79397e-05 -6.19933e-20 5.07237e-05 6.97635e-20 -1.27309e-05)
(-3.26687e-05 1.64768e-05 -8.73156e-20 4.49142e-05 4.53098e-20 -1.22456e-05)
(-2.9187e-05 1.55285e-05 -1.25802e-19 4.16857e-05 1.0835e-20 -1.24987e-05)
(-2.68678e-05 1.5506e-05 5.61065e-20 4.05128e-05 5.33597e-21 -1.3645e-05)
(-2.46016e-05 1.72747e-05 -3.99401e-21 3.9685e-05 5.48333e-21 -1.50835e-05)
(-0.000235382 0.000213694 5.26911e-19 0.000404745 1.38077e-19 -0.000169362)
(-0.00119836 0.0013587 2.69888e-18 0.00216941 -1.92884e-19 -0.000971045)
(-0.00867502 0.012007 1.08475e-18 0.016262 -4.537e-19 -0.00758699)
(-0.0262369 0.0459688 -7.54939e-19 0.0499776 1.04028e-19 -0.0237407)
(-0.0449532 0.102776 4.96553e-17 0.0850147 2.0037e-18 -0.0400615)
(-0.0579789 0.170744 4.02729e-16 0.105308 9.78481e-18 -0.0473286)
(-0.0659859 0.235313 2.39546e-16 0.11124 1.30989e-17 -0.0452543)
(-0.0730294 0.289468 1.76261e-15 0.112031 1.21081e-16 -0.0390017)
(-0.0819983 0.33502 2.54495e-15 0.114752 1.70475e-16 -0.032754)
(-0.0941654 0.375467 -5.70503e-16 0.122137 -9.77385e-17 -0.027972)
(-0.108466 0.415674 -4.94384e-16 0.133624 -8.68495e-17 -0.0251579)
(-0.12881 0.456355 -1.22501e-15 0.151599 -5.16715e-16 -0.0227895)
(-0.147364 0.552651 -2.52568e-15 0.174216 -2.48919e-18 -0.0268517)
(-0.207749 0.776673 -2.04047e-15 0.197483 1.3622e-15 0.0102658)
(0.000333661 -0.000312775 1.72518e-21 -0.000360046 2.38588e-21 2.63845e-05)
(0.000258344 -0.000372239 -2.72916e-20 -0.000290212 -6.63163e-20 3.18688e-05)
(0.000160845 -0.000413513 -6.02e-21 -0.000197965 -3.03005e-21 3.71194e-05)
(5.20825e-05 -0.000426314 2.27811e-20 -9.69484e-05 4.92186e-20 4.48658e-05)
(-5.44075e-05 -0.000413028 -7.20881e-20 3.53589e-06 -1.46637e-19 5.08716e-05)
(-0.000154751 -0.000372413 -8.20684e-20 9.78832e-05 -1.34506e-19 5.68681e-05)
(-0.000238898 -0.000308455 -1.66395e-19 0.000175395 -2.45958e-19 6.35028e-05)
(-0.000299949 -0.000230714 -1.34023e-20 0.000231089 -1.98996e-21 6.88594e-05)
(-0.000337703 -0.000145403 -7.30465e-20 0.000264253 -1.73999e-19 7.34499e-05)
(-0.000352893 -6.11012e-05 3.05759e-19 0.000275395 3.47947e-19 7.74979e-05)
(-0.000348579 1.65825e-05 -5.00915e-20 0.000268468 6.81131e-20 8.01117e-05)
(-0.000331302 8.38927e-05 3.41273e-20 0.000250275 2.09928e-20 8.10274e-05)
(-0.000307239 0.000139254 -2.33487e-19 0.000227435 -2.97208e-19 7.9804e-05)
(-0.000281284 0.000184819 1.50387e-19 0.000204064 -1.39731e-20 7.72204e-05)
(-0.000253928 0.000218692 4.362e-20 0.000181457 1.35434e-19 7.24716e-05)
(-0.000223341 0.000237159 5.33012e-20 0.000158525 2.55753e-20 6.48158e-05)
(-0.000183314 0.000232177 -2.46088e-19 0.000130379 -1.43335e-19 5.2935e-05)
(-0.000151748 0.000222497 2.07523e-19 0.000109483 1.54721e-19 4.22646e-05)
(-9.81972e-05 0.000162341 4.86847e-20 7.28382e-05 6.18307e-22 2.5359e-05)
(-0.000951426 0.00171806 -2.20261e-18 0.000735417 -3.31081e-19 0.00021601)
(-0.000296993 0.00057069 8.64245e-19 0.000241648 -3.39722e-19 5.53447e-05)
(-0.000621877 0.00123559 6.81658e-20 0.000540267 1.17224e-18 8.161e-05)
(-0.000112885 0.000138796 4.85252e-19 0.000119838 -7.17512e-19 -6.9527e-06)
(0.00181944 -0.00676215 -3.364e-18 -0.0014624 -3.59574e-18 -0.000357038)
(0.0128652 -0.0567938 4.78033e-18 -0.0109186 1.67985e-17 -0.00194661)
(0.0319221 -0.191501 -2.85788e-17 -0.0277506 7.76797e-18 -0.00417154)
(0.0523449 -0.482438 1.46208e-17 -0.04635 1.13063e-18 -0.00599489)
(0.0626698 -1.09313 -1.40708e-17 -0.0554749 7.54635e-17 -0.00719496)
(0.0247886 -2.16243 -4.35685e-16 -0.0180233 2.43256e-16 -0.00676539)
(-0.117988 -3.57789 2.14054e-16 0.121213 3.49531e-16 -0.00322511)
(-0.382124 -4.85873 1.55372e-15 0.377108 -5.82274e-16 0.00501552)
(-0.68511 -5.47989 -2.7502e-15 0.670885 2.15226e-15 0.0142246)
(-0.899506 -5.33716 5.13991e-16 0.883756 9.28601e-15 0.0157501)
(-0.978419 -4.76626 -4.89488e-17 0.969833 -6.34339e-15 0.00858619)
(-0.961227 -4.11178 3.05019e-15 0.959616 -2.29973e-15 0.0016112)
(-0.87584 -3.50989 -1.43089e-14 0.878757 5.19887e-16 -0.00291679)
(-0.796285 -3.04137 4.95292e-15 0.795385 -1.62811e-15 0.000900383)
(-0.531014 -2.54787 5.13382e-15 0.54693 -1.53056e-15 -0.015916)
(-0.839759 -2.80394 -1.00544e-14 0.821775 2.90666e-15 0.0179831)
(0.000395276 -0.000236779 -3.54142e-21 -0.000419361 -6.74238e-21 2.40856e-05)
(0.000435576 -0.000154337 -1.34274e-20 -0.000454945 -1.90014e-20 1.93693e-05)
(0.000460026 -5.32688e-05 5.56794e-20 -0.000474948 1.20058e-19 1.49214e-05)
(0.000454747 5.43885e-05 1.14447e-20 -0.000464189 -1.35524e-20 9.44195e-06)
(0.000415673 0.000160473 7.8975e-21 -0.000421136 -8.89522e-20 5.46305e-06)
(0.000342109 0.000248051 -2.46523e-20 -0.000344089 6.37245e-20 1.97915e-06)
(0.00024418 0.000303007 7.45425e-20 -0.000243872 2.31057e-19 -3.08451e-07)
(0.000141047 0.000319901 1.56353e-19 -0.000141792 1.67847e-19 7.4493e-07)
(4.81302e-05 0.000309262 5.31661e-20 -4.95894e-05 -1.33517e-19 1.45928e-06)
(-2.83388e-05 0.000273922 1.18439e-19 2.72838e-05 7.01924e-20 1.055e-06)
(-7.85596e-05 0.000221396 -8.35321e-20 7.72296e-05 2.1467e-20 1.33004e-06)
(-0.000102651 0.000166968 -1.20565e-20 0.000100144 7.06287e-20 2.50636e-06)
(-0.000108691 0.00011937 5.25595e-21 0.000104627 -6.34532e-20 4.06372e-06)
(-0.000104068 8.1011e-05 1.13343e-19 9.83116e-05 -7.97944e-20 5.75666e-06)
(-9.40387e-05 5.206e-05 8.56506e-21 8.68659e-05 -1.25381e-20 7.17276e-06)
(-8.2033e-05 3.10515e-05 -1.2664e-20 7.3672e-05 5.23592e-20 8.361e-06)
(-7.02265e-05 1.64177e-05 8.11272e-20 6.1008e-05 -9.58442e-20 9.21857e-06)
(-5.97384e-05 6.3229e-06 1.31938e-20 4.98977e-05 1.15892e-20 9.8407e-06)
(-5.10621e-05 -7.53446e-07 9.35561e-20 4.08722e-05 -6.54015e-21 1.01899e-05)
(-4.39357e-05 -6.07813e-06 1.00019e-19 3.34932e-05 2.24187e-20 1.04425e-05)
(-3.80754e-05 -1.04007e-05 2.55837e-19 2.74928e-05 -3.3792e-20 1.05825e-05)
(-3.29292e-05 -1.44458e-05 3.31031e-19 2.21571e-05 -5.00766e-20 1.07721e-05)
(-2.776e-05 -1.86632e-05 1.96862e-19 1.66913e-05 1.70707e-20 1.10686e-05)
(-2.10898e-05 -2.26088e-05 4.53319e-20 9.23782e-06 -9.27438e-21 1.1852e-05)
(-1.29586e-05 -2.47966e-05 -4.86222e-20 -2.32266e-07 2.3498e-20 1.31909e-05)
(-4.81062e-06 -2.40782e-05 1.8151e-19 -9.43467e-06 -2.95184e-20 1.42453e-05)
(2.16828e-06 -2.25435e-05 -4.88474e-20 -1.80194e-05 -4.76651e-21 1.58511e-05)
(5.47302e-06 -1.38208e-05 -3.13869e-20 -1.76472e-05 6.4798e-22 1.21742e-05)
(5.62891e-05 -7.3422e-05 2.765e-20 -0.000143829 -8.74319e-22 8.75402e-05)
(0.000481223 -0.000275297 -1.44115e-18 -0.00111311 -5.48312e-20 0.000631887)
(0.00145064 0.000427913 -8.65408e-18 -0.00322156 -8.41702e-20 0.00177092)
(0.00231307 0.00469659 -5.48559e-17 -0.00521487 -3.18302e-18 0.0029018)
(0.00185663 0.015461 -1.34366e-16 -0.00506832 -4.49399e-18 0.00321168)
(-0.000687995 0.034311 -3.34149e-16 -0.00190239 -2.29859e-17 0.00259039)
(-0.0055339 0.0608931 -8.55348e-16 0.00399514 -7.62382e-17 0.00153877)
(-0.01134 0.0930244 2.15963e-16 0.0108484 -1.7697e-17 0.000491629)
(-0.0190731 0.127659 -1.17354e-15 0.0190322 2.12582e-16 4.09891e-05)
(-0.00960802 0.154146 2.94763e-15 0.0104394 5.33283e-16 -0.000831394)
(-0.0373994 0.261335 4.63731e-15 0.0293944 9.51044e-16 0.00800501)
(0.000306268 -0.000258201 9.51521e-21 -0.000296867 1.62782e-20 -9.40095e-06)
(0.000259286 -0.000306059 -1.32543e-20 -0.000248901 -2.38933e-20 -1.03846e-05)
(0.000195903 -0.000347381 -6.02721e-21 -0.000182634 -3.31863e-21 -1.32686e-05)
(0.00012502 -0.000374181 7.16061e-20 -0.000109146 1.04794e-19 -1.5874e-05)
(5.1775e-05 -0.000382605 4.55042e-20 -3.2898e-05 8.24841e-20 -1.88769e-05)
(-2.12891e-05 -0.000372911 5.77095e-20 4.366e-05 1.10846e-19 -2.23709e-05)
(-8.66615e-05 -0.000347055 8.81496e-20 0.000112575 1.01985e-19 -2.59138e-05)
(-0.000139525 -0.000308057 -5.05822e-20 0.000168974 -7.85574e-20 -2.94489e-05)
(-0.000178394 -0.000260538 -1.80903e-19 0.000211652 -1.79238e-19 -3.32584e-05)
(-0.000201979 -0.000209892 2.34928e-19 0.000238662 1.32297e-19 -3.66831e-05)
(-0.000211551 -0.000160023 1.97559e-19 0.000251457 1.67318e-19 -3.99055e-05)
(-0.000209267 -0.000114095 2.5569e-19 0.000251793 1.22474e-19 -4.25262e-05)
(-0.000197706 -7.42071e-05 -4.20865e-19 0.000241946 -1.34763e-19 -4.42397e-05)
(-0.000179849 -4.12387e-05 -3.58039e-19 0.000224669 -2.40521e-19 -4.48197e-05)
(-0.00015773 -1.50563e-05 4.73824e-19 0.000202202 1.49014e-19 -4.4472e-05)
(-0.000133081 7.46057e-06 9.57289e-20 0.000175243 5.89544e-20 -4.21618e-05)
(-0.000107757 2.66414e-05 -7.11057e-20 0.000145967 7.34197e-21 -3.82096e-05)
(-8.42753e-05 4.27324e-05 -2.28797e-19 0.000117149 -1.49915e-19 -3.28738e-05)
(-6.08258e-05 5.35993e-05 5.0878e-20 8.54122e-05 -1.95183e-20 -2.45864e-05)
(-4.30723e-05 5.86564e-05 2.00822e-19 5.91309e-05 6.19598e-20 -1.60586e-05)
(-3.79058e-05 7.06734e-05 -2.68465e-19 4.88827e-05 -7.72107e-20 -1.09769e-05)
(-5.19924e-05 0.000121253 1.86312e-19 6.26381e-05 2.65842e-20 -1.06457e-05)
(-4.18145e-05 0.000125998 -4.92745e-20 4.8643e-05 -1.06814e-20 -6.82853e-06)
(-0.000399529 0.00182789 -1.41939e-18 0.000477122 6.96982e-19 -7.75933e-05)
(-0.000642288 0.00698178 3.86693e-18 0.000937375 -1.23555e-18 -0.000295087)
(0.000535626 0.0136051 -7.84832e-18 8.36819e-05 1.04253e-17 -0.000619308)
(0.00143345 0.00758959 6.48183e-20 -0.00102788 -1.46926e-19 -0.000405571)
(0.00209175 0.00310395 3.87207e-18 -0.00175293 -1.3765e-18 -0.000338822)
(0.00423625 -0.00959386 6.28703e-18 -0.00373574 1.58678e-17 -0.00050051)
(0.00987179 -0.103118 2.60874e-17 -0.00865559 -1.18889e-16 -0.00121619)
(0.000218944 -0.460424 -6.52721e-17 0.00193251 -3.88384e-16 -0.00215146)
(-0.0739143 -1.26193 2.04434e-15 0.0765798 5.42731e-16 -0.0026655)
(-0.257154 -2.37372 2.9383e-15 0.258074 6.66104e-16 -0.000919872)
(-0.505731 -3.29598 -1.63372e-15 0.502439 -2.22001e-15 0.00329244)
(-0.707761 -3.68549 -7.28853e-15 0.701853 1.41782e-15 0.00590874)
(-0.787087 -3.62291 4.82869e-15 0.784498 4.86898e-15 0.0025894)
(-0.796846 -3.3988 -1.0134e-14 0.792184 -1.31195e-16 0.00466149)
(-0.572419 -3.00356 -1.30005e-14 0.582654 1.87751e-15 -0.0102353)
(-0.810601 -3.19534 9.21362e-15 0.782315 -3.43571e-15 0.028286)
(0.000342211 -0.000198481 -1.46065e-20 -0.000335889 -2.97418e-20 -6.32209e-06)
(0.000364702 -0.000135311 -5.02261e-21 -0.000359219 2.03007e-20 -5.48356e-06)
(0.000373297 -5.72342e-05 4.83463e-20 -0.000370608 9.21867e-20 -2.68907e-06)
(0.000363914 2.51652e-05 -2.06925e-20 -0.000362596 -1.16126e-21 -1.31822e-06)
(0.000332396 0.000105553 1.80225e-20 -0.000332501 1.14218e-19 1.04392e-07)
(0.000278534 0.000174411 -6.26671e-21 -0.000278815 -1.11045e-19 2.81002e-07)
(0.000208858 0.000222875 5.97586e-20 -0.000208602 -1.55123e-21 -2.56502e-07)
(0.000134078 0.00024633 -1.47482e-19 -0.000134108 -8.91306e-20 2.92997e-08)
(6.20739e-05 0.000246774 -8.05807e-20 -6.28776e-05 6.96724e-21 8.03674e-07)
(-4.82672e-07 0.000226447 1.33615e-19 -6.58848e-07 6.03021e-20 1.14152e-06)
(-4.60106e-05 0.000192078 6.23665e-20 4.50207e-05 -5.11739e-21 9.8997e-07)
(-7.36442e-05 0.000153527 7.38445e-20 7.31303e-05 -4.55926e-20 5.13806e-07)
(-8.69231e-05 0.000117332 -1.14032e-19 8.71747e-05 -7.47501e-20 -2.51548e-07)
(-9.0249e-05 8.63935e-05 -1.41379e-19 9.13682e-05 2.66868e-20 -1.11927e-06)
(-8.73172e-05 6.17613e-05 1.29031e-20 8.93369e-05 3.73743e-20 -2.01966e-06)
(-8.10745e-05 4.30099e-05 4.37237e-20 8.38994e-05 -1.30123e-20 -2.82487e-06)
(-7.35815e-05 2.93053e-05 -1.07375e-19 7.7136e-05 -8.50539e-21 -3.55442e-06)
(-6.61106e-05 1.94597e-05 -4.12606e-21 7.02665e-05 -1.71015e-20 -4.15595e-06)
(-5.93562e-05 1.23065e-05 -4.12371e-20 6.40049e-05 -8.0741e-21 -4.64871e-06)
(-5.34497e-05 6.79732e-06 8.66476e-20 5.8435e-05 -4.99246e-20 -4.98535e-06)
(-4.83422e-05 2.25412e-06 -9.43754e-20 5.35907e-05 -3.28054e-20 -5.24852e-06)
(-4.37604e-05 -1.9054e-06 -1.96268e-19 4.92021e-05 -2.31849e-20 -5.44179e-06)
(-3.9232e-05 -6.01936e-06 8.88236e-21 4.48489e-05 -2.97611e-20 -5.61689e-06)
(-3.40466e-05 -9.84125e-06 5.03085e-20 3.97785e-05 -2.86404e-20 -5.73186e-06)
(-2.84142e-05 -1.22471e-05 1.52481e-19 3.44238e-05 -1.06375e-20 -6.00957e-06)
(-2.34552e-05 -1.29947e-05 -1.42855e-19 3.007e-05 -8.29358e-21 -6.61485e-06)
(-1.95454e-05 -1.28638e-05 -2.45789e-20 2.68446e-05 7.65556e-21 -7.2992e-06)
(-1.65203e-05 -1.23486e-05 1.47859e-20 2.4468e-05 1.29863e-21 -7.94769e-06)
(-1.36839e-05 -1.14336e-05 -6.83101e-21 2.18792e-05 -2.75857e-22 -8.19526e-06)
(-1.08681e-05 -1.01987e-05 -9.94526e-21 1.87076e-05 4.93723e-22 -7.83952e-06)
(-7.46456e-06 -8.18481e-06 -1.60186e-20 1.38341e-05 -8.3387e-22 -6.36956e-06)
(-4.21589e-06 -5.76283e-06 4.61688e-20 8.62755e-06 1.3287e-21 -4.41166e-06)
(-3.03741e-05 -5.74302e-05 2.0159e-18 7.74982e-05 1.30509e-19 -4.71241e-05)
(-4.92161e-07 -4.60083e-05 1.88598e-17 0.00011046 1.75723e-18 -0.000109968)
(0.000238045 0.000604242 7.8961e-17 -0.000137448 1.04311e-17 -0.000100598)
(0.000889561 0.00335329 -1.73893e-16 -0.000949953 -2.66006e-17 6.03921e-05)
(0.00157989 0.0112335 7.43312e-16 -0.00206048 1.09971e-16 0.000480586)
(0.00673724 0.0279473 -4.86375e-16 -0.00722861 -1.68692e-16 0.000491366)
(-0.00280399 0.104583 -3.29211e-16 -0.00198457 -1.41332e-15 0.00478856)
(0.000222636 -0.000196116 -1.35338e-20 -0.00022565 -2.01607e-20 3.01394e-06)
(0.000184148 -0.000231614 2.65885e-21 -0.000188507 4.23698e-21 4.35855e-06)
(0.000134447 -0.000261234 1.61091e-20 -0.000139279 1.74939e-20 4.83192e-06)
(7.80029e-05 -0.000279172 -9.89589e-20 -8.41619e-05 -1.40667e-19 6.15898e-06)
(1.89402e-05 -0.000283305 -7.24426e-20 -2.64861e-05 -8.47225e-20 7.54591e-06)
(-4.04338e-05 -0.000273057 1.69295e-19 3.16056e-05 2.02661e-19 8.82813e-06)
(-9.48196e-05 -0.000249148 -1.79746e-19 8.42572e-05 -2.23211e-19 1.05624e-05)
(-0.000140326 -0.000213776 -8.12642e-20 0.00012791 -5.40533e-20 1.24161e-05)
(-0.00017472 -0.000169929 -1.93182e-19 0.000160458 -1.44558e-19 1.4262e-05)
(-0.000196656 -0.000121814 -3.59854e-20 0.000180302 -6.55039e-20 1.63536e-05)
(-0.000206255 -7.28673e-05 2.41739e-20 0.000187803 -8.72733e-21 1.84516e-05)
(-0.00020468 -2.62682e-05 -1.32254e-19 0.000184139 -1.75435e-19 2.05411e-05)
(-0.000193946 1.54352e-05 4.30624e-19 0.000171425 2.94932e-19 2.25208e-05)
(-0.000176441 5.07248e-05 -1.41767e-19 0.000152248 -2.47889e-20 2.41934e-05)
(-0.000154483 7.94161e-05 -3.47368e-19 0.000128918 -1.51889e-19 2.55648e-05)
(-0.000130501 0.000100443 2.30338e-19 0.000104563 4.58729e-21 2.5938e-05)
(-0.000106096 0.000113106 -1.67321e-19 8.12838e-05 -9.65107e-20 2.48124e-05)
(-8.19701e-05 0.000118348 2.28271e-21 5.92293e-05 1.22563e-19 2.27407e-05)
(-5.95823e-05 0.00011798 -4.0275e-20 3.95114e-05 -3.16405e-20 2.00709e-05)
(-3.90448e-05 0.000110494 -2.83824e-19 2.25238e-05 -1.96139e-19 1.6521e-05)
(-2.01384e-05 8.62685e-05 1.80498e-19 9.328e-06 1.75284e-19 1.08104e-05)
(-1.005e-05 6.5991e-05 3.46269e-21 3.75341e-06 -1.06572e-19 6.29663e-06)
(-6.62771e-06 6.96581e-05 3.84052e-20 1.98261e-06 1.17528e-20 4.64511e-06)
(-2.36741e-06 7.95556e-05 1.11609e-19 -1.38507e-06 -5.01643e-21 3.75248e-06)
(3.9111e-06 8.66237e-05 -3.76332e-20 -6.90141e-06 -1.19978e-20 2.99031e-06)
(9.57302e-06 8.88008e-05 1.26701e-19 -1.16846e-05 2.02462e-20 2.11155e-06)
(0.000397615 0.00274729 -2.14671e-19 -0.000435797 4.82239e-21 3.81819e-05)
(0.000543886 0.00330037 -5.2606e-19 -0.000566018 -3.2631e-19 2.21325e-05)
(0.00132896 0.00708283 2.09689e-20 -0.00134191 1.82987e-18 1.29461e-05)
(0.000741621 0.00325598 -9.45761e-18 -0.000735386 7.81296e-19 -6.23519e-06)
(0.00249082 0.00790738 -9.88304e-18 -0.00244986 1.65568e-18 -4.09622e-05)
(0.0102109 0.0124446 2.64211e-17 -0.00999562 -1.54686e-16 -0.000215231)
(0.0188417 -0.0904497 5.57934e-16 -0.018046 -6.866e-16 -0.000795655)
(-0.0229684 -0.55841 -2.91731e-15 0.0249093 1.54941e-16 -0.00194093)
(-0.175485 -1.44744 4.76486e-15 0.177319 1.79505e-15 -0.00183377)
(-0.392178 -2.35451 -9.48443e-16 0.392947 4.21161e-16 -0.000769654)
(-0.578328 -2.92669 -1.73011e-15 0.574444 3.97094e-15 0.00388385)
(-0.521918 -3.05926 6.75114e-16 0.532431 2.48552e-16 -0.0105128)
(-0.768729 -3.37769 -1.72184e-14 0.73142 4.30771e-15 0.0373091)
(0.000253106 -0.000152893 8.63673e-21 -0.000256263 3.53137e-21 3.1569e-06)
(0.000274175 -0.00010656 -3.12459e-20 -0.000275947 -4.49319e-20 1.77198e-06)
(0.000285714 -4.96566e-05 3.99093e-21 -0.000287332 2.03312e-20 1.61863e-06)
(0.000283455 1.17779e-05 1.70405e-20 -0.000284276 -5.68529e-20 8.21308e-07)
(0.000264469 7.30999e-05 -1.38564e-19 -0.000265046 -1.99261e-19 5.76353e-07)
(0.000228048 0.000127531 -1.23131e-19 -0.000228057 9.48239e-20 8.2656e-09)
(0.000178317 0.000168594 1.98745e-19 -0.000177991 1.03191e-19 -3.25906e-07)
(0.000122687 0.000192327 -6.43059e-20 -0.000122567 -1.86798e-19 -1.19617e-07)
(6.67627e-05 0.000198825 -8.78141e-20 -6.69413e-05 2.49276e-20 1.78644e-07)
(1.59891e-05 0.000188947 -5.98827e-20 -1.63281e-05 -1.03989e-19 3.39035e-07)
(-2.36421e-05 0.000167056 2.09747e-20 2.33385e-05 3.16651e-20 3.03592e-07)
(-5.04722e-05 0.000139405 -3.93041e-20 5.01939e-05 -5.14056e-20 2.78283e-07)
(-6.58556e-05 0.000110986 -8.11768e-20 6.55253e-05 1.09209e-19 3.30235e-07)
(-7.23453e-05 8.47902e-05 8.61014e-20 7.18774e-05 5.052e-20 4.67891e-07)
(-7.25491e-05 6.24354e-05 7.31676e-20 7.18747e-05 -3.36508e-20 6.74375e-07)
(-6.88985e-05 4.43337e-05 -1.5034e-20 6.79438e-05 -3.01158e-20 9.54764e-07)
(-6.32436e-05 3.02684e-05 4.36829e-20 6.19792e-05 9.73115e-21 1.2644e-06)
(-5.69277e-05 1.95696e-05 -6.47121e-20 5.53466e-05 1.6535e-20 1.58112e-06)
(-5.07717e-05 1.14582e-05 4.58157e-20 4.88941e-05 -1.20393e-21 1.87763e-06)
(-4.51154e-05 5.13448e-06 -6.03078e-20 4.29625e-05 -2.81703e-20 2.15296e-06)
(-4.00223e-05 -2.31505e-08 5.81781e-20 3.76448e-05 4.8662e-21 2.37752e-06)
(-3.53187e-05 -4.52251e-06 7.79924e-20 3.27503e-05 1.70684e-20 2.56836e-06)
(-3.06303e-05 -8.6552e-06 -5.43861e-21 2.791e-05 7.15838e-21 2.72028e-06)
(-2.53538e-05 -1.22584e-05 -1.46134e-19 2.24336e-05 6.30026e-23 2.92027e-06)
(-1.95045e-05 -1.45486e-05 -5.43805e-20 1.63522e-05 -2.32392e-20 3.15235e-06)
(-1.39181e-05 -1.52725e-05 -1.60219e-20 1.05772e-05 2.47146e-20 3.34085e-06)
(-9.03231e-06 -1.5017e-05 5.92783e-20 5.38617e-06 7.39652e-22 3.64614e-06)
(-4.81682e-06 -1.41974e-05 2.13863e-21 7.46469e-07 -4.88503e-22 4.07035e-06)
(-1.2378e-06 -1.31355e-05 -3.35654e-21 -3.32243e-06 2.88101e-22 4.56023e-06)
(1.63536e-06 -1.12946e-05 3.75513e-20 -6.35216e-06 1.69343e-22 4.7168e-06)
(4.36973e-06 -1.1806e-05 3.3275e-20 -1.00262e-05 1.07461e-21 5.6565e-06)
(3.22941e-06 -5.83721e-06 -8.99337e-20 -6.12961e-06 -4.96802e-21 2.9002e-06)
(1.18733e-05 -1.72405e-05 -7.6358e-19 -1.98577e-05 -5.92534e-20 7.9844e-06)
(8.61496e-05 -0.000108182 -1.05852e-18 -0.000128087 -1.30829e-19 4.19374e-05)
(0.000239788 -0.000261313 2.02297e-18 -0.000317378 1.72356e-20 7.75905e-05)
(0.000569785 -0.000463423 -8.83228e-18 -0.000661762 3.67042e-18 9.19771e-05)
(0.000260484 -9.32504e-05 -1.27286e-17 -0.000281533 -1.06328e-17 2.10495e-05)
(0.000887558 0.000202572 5.30091e-17 -0.000867113 3.77578e-18 -2.04448e-05)
(0.00384233 0.0197502 -2.90712e-16 -0.00521947 5.25074e-17 0.00137715)
(0.000184127 -0.000161002 1.18686e-20 -0.000183015 1.37878e-20 -1.11183e-06)
(0.000155875 -0.000189708 -2.98471e-20 -0.000154866 -3.5878e-20 -1.0093e-06)
(0.000118625 -0.000214935 -2.41095e-21 -0.000117023 -4.98662e-21 -1.60195e-06)
(7.60912e-05 -0.000232377 -1.24418e-20 -7.42005e-05 -6.48404e-21 -1.89066e-06)
(3.10423e-05 -0.00023996 9.86351e-20 -2.87744e-05 1.1352e-19 -2.26792e-06)
(-1.54475e-05 -0.000237308 7.56359e-20 1.84226e-05 6.24022e-20 -2.97509e-06)
(-5.93341e-05 -0.000224497 9.58151e-22 6.295e-05 3.0504e-20 -3.61588e-06)
(-9.76807e-05 -0.000202626 1.87626e-19 0.000102068 1.81803e-19 -4.38762e-06)
(-0.000128786 -0.00017355 -2.34371e-20 0.00013417 -3.13335e-21 -5.38441e-06)