/*--------------------------------*- C++ -*----------------------------------*\
| =========                 |                                                 |
| \\      /  F ield         | OpenFOAM: The Open Source CFD Toolbox           |
|  \\    /   O peration     | Version:  2506                                  |
|   \\  /    A nd           | Website:  www.openfoam.com                      |
|    \\/     M anipulation  |                                                 |
\*---------------------------------------------------------------------------*/
FoamFile
{
    version     2.0;
    format      ascii;
    arch        "LSB;label=32;scalar=64";
    class       volScalarField;
    location    "50";
    object      turbulenceProperties:k;
}
// * * * * * * * * * * * * * * * * * * * * * * * * * * * * * * * * * * * * * //

dimensions      [0 2 -2 0 0 0 0];

internalField   nonuniform List<scalar> 
1340
(
3.6385
2.62582
1.91713
5.9098
10.052
10.5673
12.2169
13.5881
17.3655
15.7064
13.6333
13.8414
22.8557
19.5256
15.3101
13.1409
27.3718
22.4264
16.4779
12.1559
30.8892
24.498
17.1993
11.3485
33.2651
25.736
17.5185
10.6909
33.9636
25.9495
17.3553
10.0351
31.812
24.6406
16.4604
9.17168
25.2722
20.9935
14.4347
7.87257
14.5485
14.4593
10.9518
6.00462
4.32324
6.23941
6.0478
3.52888
0.37118
0.917252
1.42148
1.05517
0.0997666
0.150819
0.203573
0.114054
0.0210275
0.0108115
0.0238619
0.0267486
0
0.00200149
0.00457116
0.00336644
0
0
0
0.00336434
0
0
0
0.00352761
9.83257e-08
0
0
0.00381187
2.20515e-06
1.52945e-06
0
0.00421451
4.45307e-05
3.14577e-05
4.59934e-08
0.00456147
7.38253e-05
9.76201e-05
1.59896e-07
0.00444071
7.42674e-05
0.000126701
2.21054e-07
0.00371175
7.41916e-05
0.000116352
2.07444e-07
0.0025085
7.47583e-05
9.64882e-05
1.78148e-07
0.000884193
7.26865e-05
8.72972e-05
1.74171e-07
0
6.96079e-05
8.30615e-05
1.84607e-07
0
6.635e-05
7.87466e-05
1.97612e-07
0
6.29878e-05
7.43789e-05
2.12365e-07
0
5.94574e-05
7.01991e-05
2.28061e-07
0
5.56137e-05
6.58176e-05
2.42682e-07
0
5.12883e-05
6.10021e-05
2.54218e-07
0
4.66208e-05
5.60053e-05
2.62692e-07
0
2.80659e-05
4.20715e-05
5.07691e-05
2.66532e-07
0
2.56942e-05
3.76705e-05
4.55549e-05
5.18895e-07
0
2.34688e-05
3.35064e-05
3.98879e-05
1.11449e-06
5.24484e-09
2.13911e-05
2.833e-05
3.74852e-05
1.02573e-05
5.48325e-08
1.92772e-05
2.39406e-05
3.50461e-05
1.53485e-05
9.22646e-08
1.72211e-05
2.0254e-05
3.01919e-05
2.0444e-05
1.36022e-07
1.52758e-05
1.69327e-05
2.52096e-05
2.44179e-05
6.19646e-07
1.34237e-05
1.41131e-05
2.0487e-05
2.52934e-05
3.58593e-06
1.15725e-05
1.19235e-05
1.60279e-05
2.38697e-05
8.04219e-06
9.73551e-06
1.02168e-05
1.22498e-05
2.02718e-05
1.29351e-05
8.01214e-06
8.71261e-06
9.53766e-06
1.56259e-05
1.58833e-05
6.47834e-06
7.22809e-06
7.71904e-06
1.13632e-05
1.49183e-05
4.80229e-06
5.1508e-06
5.78973e-06
6.36083e-06
8.3338e-06
1.18092e-05
3.76692e-06
4.00792e-06
4.49581e-06
5.14536e-06
6.38691e-06
8.80273e-06
2.86569e-06
3.02679e-06
3.39739e-06
4.02446e-06
5.05334e-06
6.68273e-06
2.09481e-06
2.18934e-06
2.48767e-06
3.05695e-06
4.0134e-06
5.25873e-06
1.44362e-06
1.4808e-06
1.74137e-06
2.26972e-06
3.16449e-06
4.23115e-06
9.11358e-07
8.89555e-07
1.1429e-06
1.66103e-06
2.49271e-06
3.44258e-06
5.05049e-07
4.11824e-07
7.08868e-07
1.23443e-06
1.99634e-06
2.83872e-06
2.85758e-07
7.21109e-08
4.98248e-07
9.97472e-07
1.66514e-06
2.39474e-06
3.55096e-07
2.8382e-07
5.31498e-07
9.23447e-07
1.4698e-06
2.08278e-06
6.24703e-07
5.22558e-07
5.12474e-07
6.66604e-07
9.45121e-07
1.36729e-06
1.86832e-06
7.1234e-07
6.67846e-07
6.8386e-07
7.98548e-07
9.99043e-07
1.31729e-06
1.72015e-06
7.88584e-07
7.76103e-07
8.05471e-07
8.99704e-07
1.05077e-06
1.2913e-06
1.61402e-06
8.43658e-07
8.50629e-07
8.87287e-07
9.68936e-07
1.08743e-06
1.27215e-06
1.53262e-06
8.75647e-07
8.94646e-07
9.35252e-07
1.00827e-06
1.10481e-06
1.24992e-06
1.46324e-06
8.8841e-07
9.13445e-07
9.55399e-07
1.02119e-06
1.10193e-06
1.21829e-06
1.3966e-06
8.87132e-07
9.14973e-07
9.55049e-07
1.01344e-06
1.08143e-06
1.17624e-06
1.32792e-06
8.5506e-07
8.75069e-07
9.038e-07
9.4049e-07
9.91294e-07
1.04801e-06
1.12567e-06
1.25639e-06
8.3193e-07
8.54015e-07
8.82615e-07
9.16571e-07
9.60733e-07
1.0078e-06
1.07132e-06
1.18461e-06
8.01676e-07
8.24667e-07
8.52906e-07
8.84579e-07
9.23228e-07
9.62598e-07
1.01469e-06
1.11372e-06
7.66842e-07
7.90968e-07
8.18935e-07
8.48375e-07
8.82297e-07
9.15165e-07
9.58154e-07
1.04524e-06
7.28684e-07
7.54021e-07
7.82159e-07
8.10074e-07
8.39925e-07
8.67125e-07
9.02149e-07
9.7898e-07
6.80168e-07
7.06063e-07
7.34608e-07
7.62342e-07
7.90438e-07
8.14525e-07
8.44271e-07
9.13287e-07
6.41832e-07
6.65473e-07
6.91514e-07
7.17029e-07
7.42995e-07
7.6426e-07
7.90179e-07
8.52432e-07
6.02051e-07
6.22557e-07
6.44662e-07
6.67446e-07
6.89713e-07
7.12141e-07
7.29597e-07
7.4985e-07
8.02844e-07
5.75773e-07
5.97056e-07
6.20119e-07
6.43439e-07
6.65325e-07
6.85982e-07
7.01345e-07
7.16831e-07
7.62278e-07
5.37056e-07
5.57385e-07
5.80685e-07
6.0515e-07
6.28407e-07
6.50185e-07
6.66441e-07
6.80375e-07
7.18437e-07
4.97236e-07
5.13834e-07
5.33675e-07
5.55259e-07
5.76558e-07
5.97331e-07
6.14565e-07
6.30955e-07
6.71756e-07
4.61704e-07
4.75926e-07
4.93097e-07
5.1208e-07
5.31262e-07
5.50158e-07
5.65418e-07
5.76944e-07
6.06991e-07
4.30398e-07
4.39639e-07
4.51512e-07
4.64966e-07
4.79049e-07
4.9404e-07
5.09578e-07
5.27688e-07
5.71321e-07
3.98824e-07
4.07774e-07
4.19094e-07
4.31642e-07
4.442e-07
4.56033e-07
4.63478e-07
4.64722e-07
4.79508e-07
3.92618e-07
3.93975e-07
3.97673e-07
4.02924e-07
4.09479e-07
4.18715e-07
4.34939e-07
4.60953e-07
5.13178e-07
3.73549e-07
3.82576e-07
3.91615e-07
4.00294e-07
4.07718e-07
4.1264e-07
4.09275e-07
3.988e-07
3.97561e-07
4.64717e-07
4.54028e-07
4.55713e-07
4.58216e-07
4.60722e-07
4.64932e-07
4.74063e-07
4.99372e-07
5.44121e-07
6.02947e-07
4.29007e-07
4.43599e-07
4.57291e-07
4.70297e-07
4.83058e-07
4.95371e-07
5.0732e-07
5.21127e-07
5.40597e-07
5.40041e-07
7.1358e-07
6.36331e-07
6.64471e-07
6.88424e-07
7.05217e-07
7.22697e-07
7.45049e-07
7.80482e-07
8.17831e-07
7.62341e-07
20.1878
8.3001
6.40832
7.77346
6.8397
5.71116
4.75217
3.90151
3.07258
2.21896
1.38664
0.677806
0.219714
0.056041
0.0303926
0.0321017
0.0347174
0.040658
0.054652
0.0767879
0.101714
0.119458
0.117942
0.0887347
0.032635
0.110594
0.110482
0.121979
0.14282
0.163541
0.161857
0.129586
0.079412
0.0365135
0.00912933
0
0
0
0
0
7.86337e-08
5.20115e-07
3.09463e-06
8.87083e-06
1.33768e-05
1.34164e-05
1.07294e-05
8.11199e-06
6.33022e-06
5.13056e-06
4.2396e-06
3.54511e-06
3.00799e-06
2.601e-06
2.29524e-06
2.06523e-06
1.89014e-06
1.75332e-06
1.64065e-06
1.541e-06
1.44744e-06
1.3571e-06
1.2705e-06
1.18822e-06
1.11046e-06
1.03704e-06
9.65125e-07
8.9811e-07
8.43134e-07
8.00325e-07
7.5159e-07
7.11518e-07
6.3743e-07
6.18117e-07
5.04453e-07
5.67927e-07
4.15628e-07
6.39451e-07
5.14798e-07
7.17982e-07
6.34827
4.5052
5.09922
4.92523
4.35106
3.86766
3.41072
2.91122
2.37843
1.86114
1.40463
1.045
0.793576
0.64681
0.571692
0.559144
0.625733
0.771012
0.987328
1.2515
1.55929
1.91877
2.27419
2.5775
2.86706
3.16795
3.44191
3.80535
4.30823
4.87865
5.00055
4.16536
2.53526
1.02974
0.198697
0.0927062
0.017732
0
0
0
0
4.31035e-09
1.60114e-07
1.82021e-06
9.01755e-06
1.30047e-05
1.18717e-05
9.24404e-06
7.17273e-06
5.81024e-06
4.83538e-06
4.07144e-06
3.46096e-06
2.97736e-06
2.59695e-06
2.29862e-06
2.0645e-06
1.87873e-06
1.72726e-06
1.59799e-06
1.4828e-06
1.37706e-06
1.2797e-06
1.19002e-06
1.10785e-06
1.03102e-06
9.57773e-07
8.90868e-07
8.35629e-07
7.92483e-07
7.44905e-07
7.07313e-07
6.39031e-07
6.178e-07
5.20739e-07
5.67384e-07
4.48844e-07
6.21819e-07
5.22921e-07
2.22934
1.73025
2.15631
2.50696
2.69255
2.80865
2.87802
2.92166
2.94109
2.93195
2.89302
2.82137
2.7131
2.5613
2.35698
2.08601
1.7471
1.34877
0.964613
0.830032
1.16632
1.78304
2.48529
3.27769
4.38466
5.83953
7.28518
8.57513
9.96168
12.3864
15.8573
17.9651
16.1697
10.7328
4.84385
1.38043
0.282648
0.081145
0.00565625
0
0
0
0
1.19386e-07
1.62784e-06
9.17819e-06
1.21457e-05
1.03174e-05
8.0316e-06
6.47816e-06
5.4198e-06
4.60398e-06
3.94027e-06
3.3984e-06
2.95813e-06
2.60167e-06
2.31348e-06
2.07931e-06
1.88573e-06
1.72107e-06
1.57716e-06
1.44863e-06
1.33337e-06
1.22966e-06
1.13708e-06
1.05196e-06
9.72627e-07
9.02562e-07
8.44716e-07
7.97974e-07
7.48161e-07
7.08235e-07
6.41767e-07
6.15204e-07
5.27198e-07
5.62655e-07
4.57255e-07
6.15538e-07
0.315965
0.235627
0.328844
0.49654
0.619154
0.772117
0.896969
0.928142
0.878506
0.797756
0.757877
0.844266
1.09543
1.48091
1.95005
2.43543
2.85934
3.14333
3.23448
3.12054
2.82687
2.41347
1.96142
1.56692
1.43738
1.75653
2.29576
2.78604
3.13502
4.93017
10.8669
19.5425
25.7855
24.6467
16.5048
7.18168
1.8923
0.445564
0.0830732
0.0186116
0
0
0
0
1.8516e-07
3.32149e-06
1.03103e-05
1.09691e-05
8.87111e-06
7.11924e-06
5.95319e-06
5.08493e-06
4.37632e-06
3.7866e-06
3.29695e-06
2.89207e-06
2.55806e-06
2.28171e-06
2.05061e-06
1.8537e-06
1.6827e-06
1.53177e-06
1.39818e-06
1.27959e-06
1.17543e-06
1.08089e-06
9.9464e-07
9.20782e-07
8.59503e-07
8.08537e-07
7.55394e-07
7.1216e-07
6.45388e-07
6.14754e-07
5.29257e-07
5.60478e-07
4.55732e-07
0.0751524
0.0983686
0.115512
0.166829
0.217529
0.261318
0.312776
0.379214
0.454601
0.525837
0.580083
0.608673
0.600874
0.532686
0.364106
0.0669225
0.401773
0.972561
1.59963
2.20469
2.71549
3.08069
3.28201
3.33572
3.29421
3.23037
3.20087
3.1864
2.95305
1.87941
2.67635
10.0733
20.1283
26.8593
24.7572
15.2246
5.68583
1.2197
0.373377
0.0832565
0.0158914
9.12053e-06
0
0
0
3.55533e-07
6.21907e-06
1.06238e-05
9.5421e-06
7.6996e-06
6.40682e-06
5.47769e-06
4.72808e-06
4.09836e-06
3.56839e-06
3.12418e-06
2.75309e-06
2.44287e-06
2.18172e-06
1.95887e-06
1.76621e-06
1.59737e-06
1.44897e-06
1.31819e-06
1.20423e-06
1.10186e-06
1.00985e-06
9.32948e-07
8.69035e-07
8.1446e-07
7.58304e-07
7.12262e-07
6.44919e-07
6.11261e-07
5.26791e-07
5.53947e-07
0.00370085
0.00577666
0.00733749
0.0108769
0.0157354
0.0212729
0.0276432
0.0360365
0.0472184
0.0613893
0.078901
0.100328
0.127334
0.160171
0.192795
0.201544
0.165476
0.136932
0.2958
0.630171
1.09126
1.62404
2.15315
2.61008
2.95883
3.20456
3.37761
3.49178
3.46266
3.00778
2.20829
5.4158
13.2098
21.6181
24.8137
19.5692
9.83103
2.69391
0.526207
0.251147
0.0502812
0.000432429
4.6501e-05
0
0
5.33047e-08
1.81731e-06
8.88306e-06
9.83914e-06
8.20277e-06
6.80315e-06
5.80595e-06
5.01681e-06
4.35282e-06
3.78887e-06
3.31165e-06
2.90944e-06
2.57061e-06
2.28423e-06
2.04024e-06
1.8302e-06
1.64703e-06
1.48671e-06
1.34624e-06
1.2244e-06
1.11535e-06
1.01892e-06
9.39669e-07
8.7335e-07
8.15534e-07
7.56718e-07
7.08478e-07
6.40855e-07
6.0429e-07
3.97415e-06
1.07679e-05
2.683e-05
1.21608e-06
0.0001292
0.000332648
0.000575094
0.000893211
0.00133389
0.00203927
0.00322967
0.00508704
0.00715947
0.00970863
0.0145621
0.0222122
0.0225532
0.0267877
0.0549166
0.168808
0.434878
0.861457
1.39464
1.94883
2.44788
2.84967
3.14141
3.30527
3.25499
2.77226
1.89812
3.92825
9.75289
16.8875
21.4831
19.6951
12.1279
4.36771
0.674587
0.332151
0.131306
0.0206929
0.000109762
7.05343e-06
0
0
3.00765e-07
6.15191e-06
9.58794e-06
8.55708e-06
7.13437e-06
6.0772e-06
5.25348e-06
4.56271e-06
3.97216e-06
3.4682e-06
3.03973e-06
2.67658e-06
2.36889e-06
2.10703e-06
1.88227e-06
1.68727e-06
1.51729e-06
1.369e-06
1.24061e-06
1.12582e-06
1.0256e-06
9.44354e-07
8.75512e-07
8.14649e-07
7.5329e-07
7.03107e-07
2.57142e-05
1.34884e-05
4.79311e-06
1.10573e-06
1.6454e-08
2.12316e-07
5.82269e-07
1.53395e-06
5.0151e-06
2.44391e-06
1.66698e-05
7.28529e-05
7.56106e-05
0.000179175
0.000160828
0.000580273
0.0013809
0.0159628
0.0558115
0.171986
0.421782
0.815434
1.30844
1.82635
2.29837
2.6762
2.9267
3.00544
2.81494
2.17303
1.35206
3.54975
8.27975
13.9167
18.0686
17.807
12.4407
5.44701
1.09242
0.268737
0.192562
0.0510079
0.00616702
5.55746e-05
1.78013e-06
0
9.75204e-08
3.2571e-06
8.74151e-06
8.65976e-06
7.35005e-06
6.26495e-06
5.42018e-06
4.71505e-06
4.10916e-06
3.58767e-06
3.14051e-06
2.75902e-06
2.43479e-06
2.1587e-06
1.9227e-06
1.71854e-06
1.54122e-06
1.38699e-06
1.25345e-06
1.13425e-06
1.03098e-06
9.48036e-07
8.76835e-07
3.21118e-05
2.43871e-05
1.92329e-05
1.77119e-05
1.59133e-05
1.41548e-05
1.30492e-05
1.01117e-05
4.38934e-06
9.10766e-07
1.01543e-07
6.15872e-08
3.27996e-08
0.00010141
0.00370475
0.0108561
0.0314183
0.0759644
0.178636
0.37389
0.677519
1.07206
1.51048
1.93484
2.29478
2.55304
2.67286
2.59713
2.22324
1.42609
1.16728
3.75138
7.70352
12.0787
15.3151
15.4242
11.5599
5.75848
1.49174
0.119543
0.211567
0.0780608
0.0152231
0.0015601
0.000248802
0
4.10565e-08
1.34514e-06
7.4076e-06
8.45002e-06
7.40214e-06
6.34031e-06
5.49538e-06
4.79177e-06
4.1851e-06
3.65827e-06
3.2027e-06
2.8112e-06
2.47665e-06
2.192e-06
1.94868e-06
1.73855e-06
1.55661e-06
1.39867e-06
1.26186e-06
1.1398e-06
1.55207e-05
1.42647e-05
1.49125e-05
1.7117e-05
1.80275e-05
2.38054e-05
3.26178e-05
3.49988e-05
2.16408e-05
7.49412e-06
4.8101e-07
0
0.00186279
0.00782127
0.04691
0.115576
0.215283
0.355081
0.550236
0.809229
1.12271
1.46328
1.79353
2.07675
2.2834
2.38699
2.35085
2.11399
1.58221
0.756435
1.58762
4.15269
7.44536
10.7993
13.1342
13.1423
10.1824
5.50431
1.69981
0.0559861
0.196358
0.0941328
0.0239526
0.00372879
0.000310193
4.27179e-05
1.53373e-08
4.90313e-07
6.04578e-06
7.96953e-06
7.27595e-06
6.29176e-06
5.47013e-06
4.78469e-06
4.19152e-06
3.67289e-06
3.22004e-06
2.82814e-06
2.4918e-06
2.20448e-06
1.95825e-06
1.7459e-06
1.07139e-05
1.22848e-05
1.2909e-05
1.50189e-05
1.63241e-05
2.23059e-05
3.38474e-05
3.99701e-05
2.34055e-05
1.59971e-06
0
0.00264842
0.0132403
0.0727182
0.193639
0.379896
0.615937
0.878856
1.14992
1.41632
1.66676
1.8877
2.06386
2.18058
2.22404
2.1742
1.9938
1.62212
0.990436
0.613108
2.15206
4.49892
7.21505
9.75273
11.338
11.1209
8.70688
4.94502
1.71816
0.170038
0.165486
0.0986148
0.0302166
0.006077
0.000796544
3.8304e-05
1.83166e-06
3.64498e-07
4.97499e-06
7.32867e-06
6.99094e-06
6.12508e-06
5.34887e-06
4.69521e-06
4.12825e-06
3.62954e-06
3.19077e-06
1.65959e-05
1.63849e-05
1.40541e-05
1.5356e-05
1.66197e-05
2.3561e-05
3.23532e-05
2.27033e-05
1.70473e-06
0
0.000754173
0.00371492
0.0546766
0.188309
0.433426
0.773747
1.15536
1.51795
1.81928
2.04167
2.18539
2.25854
2.26947
2.22287
2.11621
1.93366
1.639
1.17747
0.553815
0.976808
2.58297
4.65685
6.86903
8.76117
9.7707
9.35148
7.3046
4.26908
1.60933
0.240097
0.134047
0.0949242
0.0334906
0.00799432
0.00136854
0.000149153
6.18526e-07
4.24931e-07
4.24099e-06
6.63771e-06
2.4454e-05
2.20087e-05
1.66515e-05
1.62188e-05
1.66444e-05
2.05743e-05
2.7988e-05
1.79785e-05
1.26113e-06
0
0.00205392
0.010504
0.0893001
0.297039
0.66649
1.15307
1.662
2.10051
2.41138
2.57865
2.6162
2.55186
2.41444
2.22524
1.99183
1.70292
1.32621
0.821174
0.424538
1.32244
2.84262
4.65283
6.45169
7.85606
8.45111
7.88657
6.09942
3.58313
)
;

boundaryField
{
    inlet
    {
        type            calculated;
        value           nonuniform List<scalar> 
11
(
2.69469e-06
2.61488e-06
2.74601e-06
2.87559e-06
2.99919e-06
3.11853e-06
3.23886e-06
3.36749e-06
3.51732e-06
3.4771e-06
3.75098e-06
)
;
    }
    outlet
    {
        type            calculated;
        value           nonuniform List<scalar> 0();
    }
    walls
    {
        type            calculated;
        value           uniform 0;
    }
    frontAndBack
    {
        type            empty;
    }
    procBoundary6to2
    {
        type            processor;
        value           nonuniform List<scalar> 
13
(
14.5497
7.45125
2.96344
0.301736
0.0825932
0.00586875
4.30611e-07
4.68019e-05
3.74212e-05
1.79211e-05
1.0684e-05
1.62045e-05
2.4441e-05
)
;
    }
    procBoundary6to3
    {
        type            processor;
        value           uniform 2.99503e-05;
    }
    procBoundary6to5
    {
        type            processor;
        value           nonuniform List<scalar> 
86
(
2.691
8.29809
17.1586
23.337
29.055
33.8876
37.1445
37.3015
32.0238
20.6765
7.96572
1.04786
0.148114
0.0103383
0.00170821
0
0
0
1.70732e-06
2.65329e-05
6.00807e-05
6.32941e-05
5.7416e-05
5.28356e-05
4.98701e-05
4.73288e-05
4.48601e-05
4.24594e-05
4.01159e-05
3.7813e-05
3.55259e-05
3.31707e-05
3.06336e-05
3.06336e-05
2.87001e-05
2.61674e-05
2.36221e-05
2.11471e-05
1.87587e-05
1.64873e-05
1.43211e-05
1.22862e-05
1.04269e-05
8.76709e-06
7.29204e-06
5.97732e-06
5.97732e-06
4.63571e-06
3.67936e-06
2.85004e-06
2.14394e-06
1.55903e-06
1.09689e-06
7.66071e-07
5.84326e-07
5.57977e-07
5.57977e-07
7.56685e-07
7.88857e-07
8.28181e-07
8.59042e-07
8.74926e-07
8.78125e-07
8.71041e-07
8.71041e-07
8.4196e-07
8.15641e-07
7.83076e-07
7.46722e-07
7.07055e-07
6.57972e-07
6.21278e-07
6.21278e-07
5.86148e-07
5.59355e-07
5.221e-07
4.86039e-07
4.52322e-07
4.26291e-07
3.93364e-07
3.96987e-07
3.62894e-07
3.62894e-07
4.34599e-07
4.29411e-07
5.71144e-07
)
;
    }
    procBoundary6to7
    {
        type            processor;
        value           nonuniform List<scalar> 
91
(
6.91514e-07
6.91514e-07
5.10703e-07
5.10703e-07
6.16716e-07
6.16716e-07
4.52362e-07
5.211e-07
4.52362e-07
5.42311e-07
6.35455e-07
5.211e-07
5.96023e-07
8.13004e-07
7.49161e-07
6.35455e-07
6.97104e-07
1.03475e-06
9.50667e-07
8.13004e-07
8.77266e-07
1.56243e-06
1.40316e-06
1.26508e-06
1.03475e-06
1.14168e-06
2.80851e-06
2.47888e-06
2.19485e-06
1.95103e-06
1.56243e-06
1.74035e-06
6.5826e-06
5.85681e-06
5.14325e-06
4.53196e-06
4.00086e-06
3.53164e-06
2.80851e-06
3.11715e-06
1.37784
0.258637
0.105639
0.0846837
0.0334522
0.00906646
0.00183802
0.000270741
1.62017e-05
8.75961e-07
3.65029e-06
6.5826e-06
5.92284e-06
2.932e-05
2.4468e-05
1.71426e-05
1.68829e-05
1.89856e-05
2.55706e-05
1.67041e-05
1.25477e-06
0
0.00286457
0.0143492
0.113886
0.390212
0.885239
1.52235
2.1593
2.6685
2.97967
3.08217
3.00616
2.80027
2.51458
2.18869
1.84266
1.47126
1.04533
0.549831
0.554885
1.55044
2.91826
4.4351
5.82762
6.78737
7.02364
6.34739
4.81472
1.37784
2.86419
)
;
    }
}


// ************************************************************************* //
