/*--------------------------------*- C++ -*----------------------------------*\
| =========                 |                                                 |
| \\      /  F ield         | OpenFOAM: The Open Source CFD Toolbox           |
|  \\    /   O peration     | Version:  2506                                  |
|   \\  /    A nd           | Website:  www.openfoam.com                      |
|    \\/     M anipulation  |                                                 |
\*---------------------------------------------------------------------------*/
FoamFile
{
    version     2.0;
    format      ascii;
    arch        "LSB;label=32;scalar=64";
    class       volScalarField;
    location    "50";
    object      turbulenceProperties:epsilon;
}
// * * * * * * * * * * * * * * * * * * * * * * * * * * * * * * * * * * * * * //

dimensions      [0 2 -3 0 0 0 0];

internalField   nonuniform List<scalar> 
1340
(
13.6903
7.66204
4.39739
24.4515
22.3691
25.0752
34.8603
46.6133
34.7742
31.5326
28.468
36.8294
43.8932
36.4085
27.9934
28.675
52.1639
40.0965
27.4645
22.218
59.3029
42.6156
26.6522
17.8682
64.9496
43.9548
25.5901
14.8529
67.4573
43.6567
24.0945
12.515
62.8038
40.4199
21.6469
10.3064
45.9618
32.1955
17.5179
7.82782
20.3446
18.5664
11.442
5.02442
3.10563
5.11187
4.57052
2.21853
0.0628288
0.252642
0.483714
0.382334
0.0274783
0.0344751
0.0438213
0.025702
0.00534675
0.00254054
0.00553636
0.00512131
0
0.000385765
0.000890285
0.000530966
0
0
0
0.000471811
0
0
0
0.00045547
1.71221e-12
0
0
0.000467943
1.8891e-09
8.09451e-10
0
0.000517303
1.48231e-06
6.91849e-07
2.97518e-13
0.000579705
4.13571e-06
7.16733e-06
4.95805e-12
0.00057501
4.17494e-06
1.15485e-05
1.04753e-11
0.00047871
4.15467e-06
9.84676e-06
9.283e-12
0.000327237
4.19835e-06
6.93238e-06
6.71807e-12
0.000119711
3.96093e-06
5.70709e-06
6.47365e-12
0
3.63048e-06
5.16149e-06
7.44167e-12
0
3.29817e-06
4.63667e-06
8.71212e-12
0
2.97249e-06
4.13739e-06
1.02613e-11
0
2.64875e-06
3.68689e-06
1.20585e-11
0
2.31757e-06
3.24314e-06
1.39017e-11
0
1.97198e-06
2.78833e-06
1.55185e-11
0
1.63071e-06
2.35125e-06
1.68682e-11
0
6.00385e-07
1.32874e-06
1.93278e-06
1.76766e-11
0
5.03201e-07
1.06609e-06
1.55626e-06
8.064e-11
0
4.19803e-07
8.44407e-07
1.19495e-06
4.61145e-10
2.54311e-15
3.48734e-07
6.06871e-07
1.0472e-06
6.81447e-08
5.09098e-13
2.83173e-07
4.35007e-07
9.06825e-07
1.687e-07
1.68672e-12
2.25927e-07
3.12028e-07
6.74775e-07
3.15433e-07
4.19158e-12
1.77679e-07
2.18377e-07
4.73502e-07
4.53893e-07
1.32872e-10
1.37105e-07
1.51786e-07
3.15139e-07
4.80259e-07
7.17793e-09
1.01837e-07
1.08345e-07
1.94414e-07
4.21227e-07
4.47409e-08
7.20627e-08
7.95178e-08
1.1415e-07
3.03139e-07
1.26423e-07
4.88194e-08
5.77801e-08
6.93099e-08
1.82096e-07
1.91513e-07
3.19257e-08
3.97392e-08
4.54028e-08
9.75341e-08
1.67136e-07
1.75454e-08
2.01846e-08
2.54926e-08
3.08158e-08
5.27875e-08
1.0503e-07
1.07952e-08
1.22213e-08
1.53736e-08
2.01495e-08
3.10531e-08
5.87345e-08
6.24761e-09
6.96997e-09
8.7804e-09
1.23216e-08
1.94393e-08
3.39536e-08
3.33844e-09
3.64658e-09
4.70798e-09
7.10872e-09
1.22575e-08
2.10416e-08
1.58547e-09
1.66819e-09
2.30693e-09
3.919e-09
7.61874e-09
1.36221e-08
6.31873e-10
6.02e-10
9.93729e-10
2.09893e-09
4.72701e-09
9.01666e-09
1.94052e-10
1.29025e-10
3.82278e-10
1.15925e-09
3.03187e-09
6.13049e-09
6.21227e-11
3.95596e-12
1.8886e-10
7.56918e-10
2.10933e-09
4.36275e-09
9.59277e-11
6.12824e-11
2.14908e-10
6.48742e-10
1.64347e-09
3.30011e-09
2.96894e-10
2.07741e-10
1.998e-10
3.38054e-10
6.79554e-10
1.42222e-09
2.6555e-09
3.86039e-10
3.39319e-10
3.55784e-10
4.85125e-10
7.59309e-10
1.32012e-09
2.25103e-09
4.73101e-10
4.58242e-10
4.93576e-10
6.15818e-10
8.39974e-10
1.26854e-09
1.98183e-09
5.41491e-10
5.50475e-10
5.9894e-10
7.14239e-10
8.99618e-10
1.2312e-09
1.78697e-09
5.83335e-10
6.08922e-10
6.65448e-10
7.73402e-10
9.28594e-10
1.18854e-09
1.62886e-09
6.00467e-10
6.34783e-10
6.9443e-10
7.93368e-10
9.23776e-10
1.12916e-09
1.48386e-09
5.98743e-10
6.36912e-10
6.93925e-10
7.81373e-10
8.89728e-10
1.05256e-09
1.34152e-09
5.56239e-10
5.82573e-10
6.21454e-10
6.72933e-10
7.47597e-10
8.35591e-10
9.64007e-10
1.20091e-09
5.26555e-10
5.54881e-10
5.92666e-10
6.39143e-10
7.02215e-10
7.72697e-10
8.73179e-10
1.06762e-09
4.88957e-10
5.17403e-10
5.53442e-10
5.95309e-10
6.48463e-10
7.04946e-10
7.83305e-10
9.43665e-10
4.47391e-10
4.75984e-10
5.10237e-10
5.47579e-10
5.92243e-10
6.37189e-10
6.98455e-10
8.31188e-10
4.03977e-10
4.32558e-10
4.65442e-10
4.99257e-10
5.36728e-10
5.72052e-10
6.19194e-10
7.2915e-10
3.51977e-10
3.79287e-10
4.10574e-10
4.42158e-10
4.75348e-10
5.0476e-10
5.42298e-10
6.34582e-10
3.13421e-10
3.36934e-10
3.63819e-10
3.91161e-10
4.20003e-10
4.44388e-10
4.75039e-10
5.52836e-10
2.75775e-10
2.9488e-10
3.16192e-10
3.38937e-10
3.61928e-10
3.85848e-10
4.04994e-10
4.2779e-10
4.90391e-10
2.52229e-10
2.71219e-10
2.92576e-10
3.14994e-10
3.36787e-10
3.58024e-10
3.74239e-10
3.90947e-10
4.4209e-10
2.1945e-10
2.36378e-10
2.56552e-10
2.78624e-10
3.00451e-10
3.21635e-10
3.37919e-10
3.52196e-10
3.92702e-10
1.88117e-10
2.00884e-10
2.16697e-10
2.34578e-10
2.52919e-10
2.71472e-10
2.87362e-10
3.02892e-10
3.43331e-10
1.62193e-10
1.72339e-10
1.84999e-10
1.99516e-10
2.14743e-10
2.3029e-10
2.43242e-10
2.53259e-10
2.80324e-10
1.40945e-10
1.47063e-10
1.55113e-10
1.64495e-10
1.74609e-10
1.85708e-10
1.97573e-10
2.11864e-10
2.48349e-10
1.21026e-10
1.26519e-10
1.3364e-10
1.41762e-10
1.50131e-10
1.58236e-10
1.63444e-10
1.64322e-10
1.74945e-10
1.1729e-10
1.18102e-10
1.20329e-10
1.23528e-10
1.27579e-10
1.334e-10
1.43937e-10
1.6167e-10
2.00379e-10
1.06174e-10
1.11367e-10
1.16692e-10
1.21921e-10
1.26485e-10
1.29558e-10
1.27453e-10
1.21012e-10
1.20261e-10
1.64324e-10
1.56851e-10
1.58017e-10
1.59758e-10
1.6151e-10
1.64475e-10
1.70999e-10
1.89745e-10
2.25275e-10
2.76617e-10
1.40039e-10
1.49727e-10
1.59112e-10
1.68291e-10
1.77547e-10
1.86713e-10
1.95829e-10
2.06633e-10
2.2236e-10
2.21903e-10
3.87436e-10
3.08092e-10
3.35943e-10
3.60599e-10
3.78406e-10
3.97396e-10
4.22357e-10
4.63484e-10
5.08905e-10
4.42188e-10
95.5571
14.1801
7.77233
11.0089
8.63376
6.19431
4.41926
3.09546
2.04216
1.18117
0.545138
0.172924
0.0295038
0.00337772
0.00124968
0.00136348
0.00148761
0.00187788
0.00312866
0.00585125
0.010285
0.0155446
0.0188949
0.0167467
0.00697485
0.0259012
0.0276961
0.0330658
0.0420401
0.0491123
0.0458028
0.0318545
0.0157804
0.00577144
0.00122176
0
0
0
0
0
1.29202e-12
9.55184e-11
5.49707e-09
5.76384e-08
1.36321e-07
1.35648e-07
8.69172e-08
4.99436e-08
3.0477e-08
2.0028e-08
1.36753e-08
9.5612e-09
6.88323e-09
5.1466e-09
4.00771e-09
3.24474e-09
2.71792e-09
2.33868e-09
2.04778e-09
1.80659e-09
1.59388e-09
1.40115e-09
1.22804e-09
1.07414e-09
9.38149e-10
8.18196e-10
7.08665e-10
6.13671e-10
5.40846e-10
4.87323e-10
4.29783e-10
3.85179e-10
3.09145e-10
2.907e-10
1.9362e-10
2.45415e-10
1.3144e-10
3.11125e-10
2.01642e-10
3.92224e-10
7.69277
3.47742
4.06682
3.60025
2.72523
2.10427
1.60578
1.15598
0.76937
0.473984
0.27449
0.155292
0.0913339
0.0608691
0.0464798
0.0428056
0.0511531
0.0736026
0.113899
0.17285
0.25524
0.37238
0.512828
0.659399
0.832951
1.05376
1.298
1.62179
2.0109
2.39565
2.4972
1.95798
0.99618
0.295801
0.0387826
0.0138565
0.00232382
0
0
0
0
1.94908e-15
6.99434e-12
1.73351e-09
6.05879e-08
1.28424e-07
1.06264e-07
6.47211e-08
3.91032e-08
2.56828e-08
1.77888e-08
1.2611e-08
9.1124e-09
6.74371e-09
5.13059e-09
4.01954e-09
3.24247e-09
2.6852e-09
2.26969e-09
1.94269e-09
1.6727e-09
1.44266e-09
1.24589e-09
1.07739e-09
9.33743e-10
8.08727e-10
6.97909e-10
6.03815e-10
5.31261e-10
4.7782e-10
4.22172e-10
3.8064e-10
3.107e-10
2.90402e-10
2.06324e-10
2.44946e-10
1.53288e-10
2.94204e-10
2.08055e-10
1.07994
0.563351
0.782389
0.96068
1.01468
1.0152
0.986017
0.946573
0.900038
0.845595
0.783985
0.713899
0.633859
0.542206
0.439728
0.329261
0.2205
0.125321
0.0610826
0.0431101
0.0812557
0.181767
0.339263
0.569366
0.985622
1.68922
2.53211
3.3448
4.22644
5.9937
9.12743
11.5867
10.2609
5.69307
1.77862
0.297325
0.0412622
0.0107276
0.000635601
0
0
0
0
3.76254e-12
1.39837e-09
6.36146e-08
1.11619e-07
8.04323e-08
4.89721e-08
3.19184e-08
2.2348e-08
1.61259e-08
1.18111e-08
8.78587e-09
6.65688e-09
5.14925e-09
4.07169e-09
3.28916e-09
2.70525e-09
2.25345e-09
1.89237e-09
1.59652e-09
1.35259e-09
1.15036e-09
9.83664e-10
8.41918e-10
7.19727e-10
6.19773e-10
5.4288e-10
4.84465e-10
4.25872e-10
3.81633e-10
3.13366e-10
2.87967e-10
2.11474e-10
2.40879e-10
1.59086e-10
2.8829e-10
0.0463233
0.0201926
0.0325961
0.0637947
0.0866735
0.119014
0.142974
0.137282
0.111059
0.0832531
0.0687409
0.0784896
0.122194
0.207342
0.334569
0.486491
0.626551
0.709747
0.707403
0.623018
0.486521
0.33935
0.215549
0.132773
0.107899
0.154869
0.251184
0.34366
0.393316
0.858604
3.62346
10.3751
17.1895
16.6792
9.19863
2.59923
0.348325
0.0536082
0.00998454
0.0019042
0
0
0
0
1.05055e-11
7.07078e-09
8.10234e-08
9.09195e-08
5.96511e-08
3.85292e-08
2.69607e-08
1.96708e-08
1.45698e-08
1.09076e-08
8.26913e-09
6.3629e-09
4.9781e-09
3.96066e-09
3.199e-09
2.61417e-09
2.15411e-09
1.78504e-09
1.48726e-09
1.24568e-09
1.05115e-09
8.88865e-10
7.52674e-10
6.45049e-10
5.62053e-10
4.97377e-10
4.34147e-10
3.85876e-10
3.16912e-10
2.87545e-10
2.13129e-10
2.39018e-10
1.58028e-10
0.0163914
0.0191427
0.019092
0.0306201
0.0416763
0.0494047
0.0591219
0.0735031
0.0902088
0.103943
0.109791
0.105669
0.0905163
0.0628319
0.0261205
0.000790819
0.0256165
0.134835
0.327477
0.559694
0.768465
0.903266
0.946277
0.911799
0.836307
0.758416
0.696875
0.630746
0.474841
0.161214
0.265593
3.03645
10.2826
17.0892
15.4255
7.30538
1.56655
0.142757
0.0368086
0.00878657
0.00138152
5.54478e-08
0
0
0
4.72768e-11
2.83489e-08
8.5717e-08
6.89342e-08
4.5034e-08
3.12205e-08
2.28263e-08
1.7006e-08
1.27776e-08
9.68671e-09
7.42521e-09
5.7661e-09
4.5399e-09
3.62115e-09
2.91919e-09
2.37323e-09
1.94119e-09
1.59728e-09
1.32198e-09
1.10328e-09
9.23695e-10
7.75874e-10
6.62208e-10
5.7459e-10
5.04691e-10
4.37498e-10
3.85987e-10
3.16453e-10
2.84287e-10
2.11147e-10
2.3348e-10
0.000949115
0.00116612
0.00108474
0.00151206
0.00217869
0.00289267
0.00367602
0.00479635
0.00645522
0.00868485
0.0114986
0.0150204
0.0196044
0.0252479
0.0299789
0.0276398
0.0161391
0.00938389
0.0354167
0.125929
0.295073
0.520287
0.749279
0.929933
1.03733
1.07793
1.06895
1.00726
0.844072
0.518797
0.219898
1.02844
4.91632
11.4156
14.5489
10.0975
3.40177
0.422914
0.0343826
0.0228547
0.00450289
3.01737e-05
1.48964e-06
0
0
6.59434e-13
1.89841e-09
6.01059e-08
7.33477e-08
5.10723e-08
3.51927e-08
2.56425e-08
1.91462e-08
1.44134e-08
1.09206e-08
8.343e-09
6.43956e-09
5.02709e-09
3.96944e-09
3.16676e-09
2.54831e-09
2.06378e-09
1.68157e-09
1.37883e-09
1.14055e-09
9.46448e-10
7.89872e-10
6.71785e-10
5.8031e-10
5.06024e-10
4.3567e-10
3.81898e-10
3.12477e-10
2.7784e-10
6.77147e-09
6.75071e-08
5.32446e-07
5.77972e-10
8.45849e-06
2.40454e-05
3.9785e-05
5.90865e-05
8.77291e-05
0.000142485
0.000253046
0.000443257
0.000642574
0.00085748
0.00140199
0.00247663
0.00254954
0.00255024
0.00522572
0.0250622
0.0958798
0.24442
0.457742
0.687014
0.880243
1.00755
1.05673
1.00867
0.823252
0.484695
0.178837
0.595852
2.93811
7.47997
11.2142
9.83019
4.54005
0.868096
0.0380291
0.0217109
0.0109545
0.00148926
5.37727e-06
3.42295e-08
0
0
3.34746e-11
2.80617e-08
6.98596e-08
5.55561e-08
3.86897e-08
2.80916e-08
2.09948e-08
1.58367e-08
1.20026e-08
9.15034e-09
7.0292e-09
5.45006e-09
4.26909e-09
3.37747e-09
2.69539e-09
2.16584e-09
1.75146e-09
1.42584e-09
1.17095e-09
9.643e-10
8.00264e-10
6.78501e-10
5.83187e-10
5.04927e-10
4.31733e-10
3.7613e-10
4.75774e-07
1.22748e-07
1.32577e-08
5.10573e-10
4.00888e-14
1.26764e-11
1.22982e-10
1.09454e-09
1.54978e-08
3.03944e-09
2.02213e-07
3.68475e-06
3.97379e-06
1.24873e-05
7.89337e-06
2.43919e-05
7.49635e-05
0.0010126
0.00457921
0.0219751
0.0791677
0.199433
0.377565
0.577571
0.754348
0.873282
0.909002
0.833346
0.620783
0.303237
0.0935146
0.509531
2.25118
5.43084
8.38981
8.22841
4.62768
1.21046
0.0809632
0.0101257
0.0137503
0.00354817
0.000341607
1.8151e-06
1.68825e-09
0
2.66022e-12
7.1062e-09
5.82343e-08
5.69153e-08
4.10515e-08
2.98503e-08
2.23474e-08
1.69116e-08
1.28447e-08
9.79147e-09
7.50297e-09
5.79093e-09
4.50992e-09
3.54515e-09
2.81241e-09
2.24687e-09
1.80713e-09
1.46356e-09
1.19531e-09
9.78793e-10
8.08687e-10
6.83801e-10
5.84952e-10
7.83653e-07
4.5219e-07
2.81757e-07
2.39014e-07
1.91716e-07
1.49293e-07
1.24629e-07
7.13974e-08
1.11782e-08
3.2025e-10
2.21845e-12
6.95456e-13
1.65464e-13
6.54979e-06
0.000297428
0.000700898
0.00181133
0.00523179
0.0174186
0.0515562
0.123768
0.240474
0.388427
0.538684
0.659691
0.725511
0.712512
0.597704
0.378879
0.129769
0.0701738
0.584107
2.03909
4.34167
6.42322
6.50511
4.08337
1.31459
0.136948
0.00166238
0.0121709
0.00499788
0.000819164
6.59465e-05
8.49396e-06
0
3.81972e-13
1.00266e-09
4.17255e-08
5.42529e-08
4.16283e-08
3.05682e-08
2.29705e-08
1.7466e-08
1.33236e-08
1.01805e-08
7.80298e-09
6.012e-09
4.6663e-09
3.65535e-09
2.88891e-09
2.29949e-09
1.8434e-09
1.48832e-09
1.21141e-09
9.88394e-10
1.82926e-07
1.54215e-07
1.68336e-07
2.22459e-07
2.47502e-07
4.28599e-07
7.89589e-07
9.16147e-07
3.53604e-07
3.5309e-08
7.34172e-11
0
0.000174443
0.000795676
0.00507721
0.0131317
0.0259318
0.0469202
0.0827221
0.140573
0.223236
0.324588
0.429465
0.518494
0.573752
0.579381
0.518769
0.380871
0.187415
0.0361438
0.130395
0.732564
1.98605
3.67566
5.05138
5.04758
3.33604
1.22528
0.172904
0.000332599
0.00877925
0.00536924
0.00121404
0.000151652
1.02193e-05
9.77493e-07
4.20829e-14
1.05239e-10
2.75057e-08
4.83294e-08
4.02232e-08
3.00979e-08
2.27584e-08
1.74139e-08
1.33642e-08
1.02619e-08
7.88763e-09
6.08462e-09
4.72352e-09
3.6971e-09
2.91737e-09
2.31898e-09
8.71772e-08
1.14351e-07
1.26041e-07
1.71307e-07
2.02908e-07
3.7577e-07
8.3845e-07
1.1676e-06
4.15945e-07
1.13069e-09
0
0.000205616
0.00119906
0.00799916
0.0256819
0.0586103
0.106338
0.164853
0.230019
0.298619
0.366819
0.428581
0.475934
0.500571
0.494913
0.450539
0.358119
0.219025
0.072564
0.0236583
0.242164
0.883948
1.94999
3.1809
4.03847
3.89549
2.61424
1.03988
0.179707
0.00297824
0.00568541
0.00491872
0.00141111
0.000233316
2.49563e-05
8.12492e-07
1.97922e-09
5.4717e-11
1.83566e-08
4.09165e-08
3.71437e-08
2.85217e-08
2.17591e-08
1.67681e-08
1.29636e-08
1.00209e-08
7.74475e-09
2.09075e-07
2.03324e-07
1.49289e-07
1.78919e-07
2.10208e-07
4.15912e-07
7.63146e-07
3.92863e-07
1.35862e-09
0
4.79892e-05
0.000266947
0.00501196
0.0230855
0.0683127
0.146564
0.246956
0.348336
0.43223
0.489723
0.52017
0.526544
0.511827
0.477494
0.422711
0.343816
0.23753
0.114668
0.022752
0.0606892
0.357022
0.983582
1.86227
2.74018
3.23551
2.99059
1.99616
0.83117
0.164905
0.00599257
0.00358975
0.00410597
0.00142022
0.00028551
4.0226e-05
3.69472e-06
1.76994e-10
7.84388e-11
1.31784e-08
3.35815e-08
4.53524e-07
3.66811e-07
2.09445e-07
1.99272e-07
2.10556e-07
3.18347e-07
5.6797e-07
2.46361e-07
7.22091e-10
0
0.000114893
0.000690815
0.0082137
0.0393278
0.117814
0.24866
0.405136
0.545621
0.638629
0.674054
0.659148
0.608666
0.53683
0.453322
0.362046
0.262378
0.155106
0.0561059
0.0135153
0.113349
0.445335
1.02313
1.73162
2.34698
2.60245
2.30307
1.51097
0.637768
)
;

boundaryField
{
    inlet
    {
        type            calculated;
        value           nonuniform List<scalar> 
11
(
5.52499e-09
5.20256e-09
5.73745e-09
6.29166e-09
6.84413e-09
7.39965e-09
7.98169e-09
8.62824e-09
9.4131e-09
9.19904e-09
1.07052e-08
)
;
    }
    outlet
    {
        type            calculated;
        value           nonuniform List<scalar> 0();
    }
    walls
    {
        type            calculated;
        value           uniform 0;
    }
    frontAndBack
    {
        type            empty;
    }
    procBoundary6to2
    {
        type            processor;
        value           nonuniform List<scalar> 
13
(
66.2048
12.6414
2.21379
0.0480191
0.0203354
0.00171119
4.41282e-11
1.6567e-06
1.06469e-06
2.44098e-07
8.67134e-08
1.99268e-07
4.52722e-07
)
;
    }
    procBoundary6to3
    {
        type            processor;
        value           uniform 6.7967e-07;
    }
    procBoundary6to5
    {
        type            processor;
        value           nonuniform List<scalar> 
86
(
8.30919
16.4245
34.1492
45.4804
58.48
71.7804
83.2405
86.8706
72.4436
38.9767
9.232
0.365328
0.0285842
0.00292346
0.000359809
0
0
0
1.08364e-09
4.95615e-07
2.75067e-06
3.04494e-06
2.51058e-06
2.12748e-06
1.89555e-06
1.70731e-06
1.53386e-06
1.37409e-06
1.2266e-06
1.08982e-06
9.61967e-07
8.38646e-07
7.15264e-07
7.15264e-07
6.2625e-07
5.2056e-07
4.24198e-07
3.39947e-07
2.67495e-07
2.06653e-07
1.55952e-07
1.14816e-07
8.27142e-08
5.84832e-08
4.04591e-08
2.71834e-08
2.71834e-08
1.6349e-08
1.02992e-08
6.17958e-09
3.49689e-09
1.84912e-09
9.15336e-10
4.46469e-10
2.59756e-10
2.36857e-10
2.36857e-10
4.35599e-10
4.73428e-10
5.21807e-10
5.61421e-10
5.82377e-10
5.86646e-10
5.77222e-10
5.77222e-10
5.39328e-10
5.06139e-10
4.66533e-10
4.24224e-10
3.80352e-10
3.2938e-10
2.93669e-10
2.93669e-10
2.614e-10
2.3805e-10
2.07399e-10
1.7974e-10
1.5567e-10
1.38269e-10
1.17735e-10
1.19915e-10
1.00203e-10
1.00203e-10
1.43715e-10
1.40303e-10
2.48203e-10
)
;
    }
    procBoundary6to7
    {
        type            processor;
        value           nonuniform List<scalar> 
91
(
3.63838e-10
3.63838e-10
1.98446e-10
1.98446e-10
2.89394e-10
2.89394e-10
1.557e-10
2.06609e-10
1.557e-10
2.23774e-10
3.07233e-10
2.06609e-10
2.7029e-10
5.0289e-10
4.27014e-10
3.07233e-10
3.69735e-10
8.14611e-10
6.87603e-10
5.0289e-10
5.85527e-10
1.85721e-09
1.49788e-09
1.2176e-09
8.14611e-10
9.91661e-10
6.00039e-09
4.67464e-09
3.66484e-09
2.89588e-09
1.85721e-09
2.30426e-09
3.29454e-08
2.60771e-08
2.0117e-08
1.56217e-08
1.21756e-08
9.48751e-09
6.00039e-09
7.3914e-09
0.134141
0.00749275
0.00229372
0.00317247
0.00127593
0.000297686
5.01235e-05
6.26028e-06
1.85649e-07
4.04728e-10
9.66025e-09
3.29454e-08
2.6734e-08
6.50882e-07
4.51643e-07
2.22096e-07
2.1636e-07
2.71719e-07
4.68553e-07
2.1239e-07
7.3648e-10
0
0.000140397
0.000812004
0.00971062
0.0517373
0.164389
0.353582
0.572869
0.755192
0.854522
0.861571
0.794767
0.683229
0.553941
0.425279
0.305486
0.195487
0.0969174
0.0253802
0.0233508
0.159132
0.486875
0.982271
1.52224
1.92513
2.0136
1.69915
1.08294
0.134141
0.463784
)
;
    }
}


// ************************************************************************* //
