/*--------------------------------*- C++ -*----------------------------------*\
| =========                 |                                                 |
| \\      /  F ield         | OpenFOAM: The Open Source CFD Toolbox           |
|  \\    /   O peration     | Version:  2506                                  |
|   \\  /    A nd           | Website:  www.openfoam.com                      |
|    \\/     M anipulation  |                                                 |
\*---------------------------------------------------------------------------*/
FoamFile
{
    version     2.0;
    format      ascii;
    arch        "LSB;label=32;scalar=64";
    class       volScalarField;
    location    "500";
    object      div(phi);
}
// * * * * * * * * * * * * * * * * * * * * * * * * * * * * * * * * * * * * * //

dimensions      [0 0 -1 0 0 0 0];

internalField   nonuniform List<scalar> 
1340
(
-6.50821e-06
-1.19164e-06
-1.09179e-08
1.90631e-08
5.41937e-07
3.7085e-07
6.84559e-07
4.06004e-07
5.89293e-07
3.39582e-07
6.39051e-07
2.95987e-07
7.33893e-07
9.80413e-08
4.4032e-07
-1.03375e-06
-1.66733e-06
-1.84723e-06
-1.78992e-06
-1.24299e-06
-1.17172e-06
1.72707e-06
-2.87245e-06
-1.04698e-06
-1.46038e-06
-1.44754e-06
-2.51266e-06
-2.61063e-06
-4.91702e-06
-1.09692e-06
-2.83062e-07
-1.06533e-07
1.71123e-07
3.25003e-07
4.84973e-07
7.01837e-07
6.09766e-07
7.19935e-07
5.31689e-07
6.88284e-07
4.72173e-07
6.67287e-07
2.75897e-07
3.59644e-07
-6.54071e-07
-1.07705e-06
-1.54154e-06
-1.47706e-06
-1.46032e-06
-1.0516e-06
1.2345e-06
-2.19607e-06
-8.7401e-07
-1.39358e-06
-1.32236e-06
-2.54952e-06
-2.31323e-06
-1.14309e-06
-9.67856e-09
1.0628e-07
1.19911e-08
1.62574e-07
1.60451e-07
5.2397e-07
4.63426e-07
6.2854e-07
4.39182e-07
5.09886e-07
4.34802e-07
4.41013e-07
4.71429e-07
2.85046e-07
2.18553e-07
-6.33226e-07
-1.22855e-06
-1.64503e-06
-1.50308e-06
-1.50923e-06
-9.8228e-07
1.17224e-06
-2.34076e-06
-9.3965e-07
-1.44033e-06
-1.2666e-06
-2.25226e-06
-2.16613e-06
-1.48047e-06
2.2194e-07
3.32448e-07
1.2799e-07
1.33129e-07
5.79292e-09
2.11241e-07
4.56882e-07
6.02681e-07
7.44576e-07
6.20048e-07
6.62399e-07
5.19386e-07
6.14825e-07
4.50585e-07
4.46242e-07
1.74085e-07
-2.24343e-07
-7.86215e-07
-1.07783e-06
-1.39488e-06
-1.42657e-06
-1.18031e-06
7.02754e-07
-1.73994e-06
-9.28655e-07
-1.38639e-06
-1.36582e-06
-2.58171e-06
-2.32234e-06
-2.83106e-07
2.72618e-07
4.64213e-07
3.4674e-07
5.7063e-08
-1.02627e-08
2.17756e-07
3.63256e-07
6.96039e-07
5.85587e-07
6.89783e-07
4.54319e-07
5.56233e-07
3.97859e-07
4.94724e-07
2.76633e-07
2.64581e-07
-3.62339e-07
-7.00994e-07
-1.33788e-06
-1.37509e-06
-1.60809e-06
-1.03727e-06
4.25198e-07
-1.45941e-06
-9.41451e-07
-1.17604e-06
-1.1987e-06
-1.83159e-06
-1.84791e-06
-1.6054e-06
-8.71249e-08
5.34919e-07
4.48769e-07
2.71692e-07
-1.73281e-08
-2.34836e-08
1.1062e-07
4.43023e-07
6.48969e-07
7.55667e-07
6.92803e-07
5.82245e-07
5.96765e-07
5.15348e-07
4.96789e-07
3.76239e-07
2.32118e-07
-3.93969e-08
-4.38044e-07
-7.32525e-07
-1.19777e-06
-1.30392e-06
-1.32796e-06
3.02539e-07
-1.41184e-06
-1.04244e-06
-1.30367e-06
-1.29783e-06
-2.2902e-06
-2.07484e-06
3.63141e-07
-1.30508e-07
1.75687e-07
4.82062e-07
1.73192e-07
-1.57058e-08
-8.83778e-08
9.00637e-08
4.52229e-07
6.1881e-07
7.84587e-07
6.04656e-07
6.18843e-07
4.62421e-07
5.52358e-07
3.51639e-07
4.51351e-07
1.17583e-07
9.54743e-08
-5.809e-07
-6.35274e-07
-1.43952e-06
-1.21432e-06
-1.47809e-06
4.13761e-07
-1.32073e-06
-7.17091e-07
-1.10141e-06
-9.03237e-07
-1.53968e-06
-1.30098e-06
-1.12725e-06
-8.16335e-08
2.33757e-07
3.41375e-07
8.56787e-08
-1.14238e-07
-1.48278e-07
1.07811e-07
3.79318e-07
7.0409e-07
7.05601e-07
6.67159e-07
5.61399e-07
5.75779e-07
5.00869e-07
4.83534e-07
3.37814e-07
2.80696e-07
5.91519e-08
-1.65021e-07
-4.63119e-07
-8.72745e-07
-1.11726e-06
-1.21726e-06
-2.91191e-09
-1.2212e-06
-1.2793e-06
-1.35537e-06
-1.29545e-06
-2.02112e-06
-1.86142e-06
-2.64176e-06
9.94775e-07
-1.00713e-07
3.10073e-08
5.17935e-08
7.89859e-08
-1.69362e-07
-1.53507e-07
6.85086e-08
3.96956e-07
6.5431e-07
6.771e-07
6.38333e-07
5.24749e-07
5.73159e-07
4.46201e-07
4.95129e-07
2.91399e-07
3.41204e-07
2.88984e-08
-6.01831e-08
-5.42047e-07
-7.57595e-07
-1.23368e-06
-1.0566e-06
6.58926e-09
-8.26306e-07
-1.05046e-06
-8.14406e-07
-8.6624e-07
-1.07411e-06
-1.03776e-06
-1.14076e-06
1.01266e-07
-8.22254e-08
6.74738e-07
-1.81279e-07
-2.3465e-07
-1.65343e-07
4.56314e-08
4.26269e-07
5.80923e-07
6.58725e-07
5.30858e-07
5.72723e-07
4.92214e-07
5.53571e-07
3.84341e-07
3.97566e-07
2.18027e-07
2.07298e-07
-6.73965e-08
-1.56894e-07
-6.17698e-07
-7.25012e-07
-1.00691e-06
-1.01072e-07
-1.1506e-06
-1.41297e-06
-1.54298e-06
-1.40968e-06
-1.83988e-06
-1.76615e-06
-5.95529e-07
7.38301e-07
1.19768e-09
-1.55369e-07
-3.24648e-07
-2.18156e-07
7.84569e-08
3.50533e-07
5.65521e-07
5.48986e-07
5.30588e-07
5.10297e-07
5.16226e-07
5.06833e-07
4.14252e-07
3.77942e-07
2.63451e-07
2.40602e-07
-8.27632e-09
-8.45997e-08
-5.54826e-07
-5.91523e-07
-9.0249e-07
1.16919e-07
-7.90393e-07
-8.84644e-07
-1.08065e-06
-6.19944e-07
-9.16382e-07
-6.8068e-07
-2.20159e-07
4.79569e-07
-3.33991e-07
-4.44198e-07
-2.30067e-07
8.18254e-08
3.28497e-07
4.95361e-07
4.57958e-07
4.93093e-07
4.45601e-07
5.58429e-07
4.31854e-07
4.57243e-07
2.84732e-07
3.25642e-07
1.55882e-07
1.43062e-07
-7.49905e-08
-2.36313e-07
-4.72709e-07
-5.65897e-07
-2.27409e-07
-9.23652e-07
-1.48191e-06
-1.63548e-06
-1.64709e-06
-1.80467e-06
-1.7254e-06
-1.82703e-07
-2.8979e-07
-3.48679e-07
-1.55556e-07
5.71611e-08
3.28386e-07
3.74492e-07
4.42127e-07
3.94064e-07
4.92291e-07
4.74344e-07
4.95249e-07
3.89397e-07
3.66205e-07
2.98414e-07
2.67648e-07
1.65429e-07
7.10411e-08
-1.54778e-07
-2.521e-07
-4.01558e-07
9.47249e-08
-4.94784e-07
-9.30893e-07
-8.90813e-07
-8.70294e-07
-5.67868e-07
-5.65752e-07
-3.47559e-07
-2.53588e-07
-1.35882e-07
9.80989e-08
2.65958e-07
3.22116e-07
3.60544e-07
3.59109e-07
4.81026e-07
4.46276e-07
4.75452e-07
3.41164e-07
3.60584e-07
2.41593e-07
2.68727e-07
1.3391e-07
1.23372e-07
-9.44875e-08
-1.32054e-07
-3.15173e-07
-1.33557e-07
-7.98298e-07
-1.23884e-06
-1.70173e-06
-1.73381e-06
-1.95863e-06
-1.75094e-06
-2.82274e-07
-8.97742e-08
1.07652e-07
1.9176e-07
3.03223e-07
2.67888e-07
4.00764e-07
3.93308e-07
4.95637e-07
3.85673e-07
4.05881e-07
3.06105e-07
3.34732e-07
2.63946e-07
2.68179e-07
1.75915e-07
1.07874e-07
1.01242e-09
-8.84731e-09
1.05817e-07
-2.4456e-07
-6.61928e-07
-8.63913e-07
-7.50027e-07
-6.149e-07
-3.31961e-07
-1.44404e-07
-2.32418e-08
8.61254e-08
1.54604e-07
2.16374e-07
2.57101e-07
3.63502e-07
4.02936e-07
4.41371e-07
3.63458e-07
3.66704e-07
2.71292e-07
3.02099e-07
2.03883e-07
2.40903e-07
1.06031e-07
1.09432e-07
-4.88465e-08
-3.64397e-08
-1.74505e-07
-5.03427e-07
-1.05034e-06
-1.46067e-06
-1.79775e-06
-1.99919e-06
-1.8639e-06
-5.87927e-08
-1.3691e-08
1.54896e-07
1.4241e-07
2.87493e-07
2.93703e-07
4.30261e-07
3.43973e-07
3.91738e-07
2.86388e-07
3.26472e-07
2.58081e-07
2.99373e-07
2.48635e-07
2.69187e-07
1.71001e-07
2.03054e-07
1.06188e-07
2.21854e-07
-1.2815e-07
-2.8097e-07
-7.06829e-07
-5.78065e-07
-5.88211e-07
-8.29586e-08
-8.87207e-08
2.41817e-07
-3.82682e-08
1.14485e-07
2.35642e-07
3.17654e-07
3.60411e-07
3.33451e-07
3.32261e-07
2.65489e-07
2.84518e-07
2.13402e-07
2.4924e-07
1.63847e-07
1.62114e-07
9.34592e-08
5.53418e-08
-2.22959e-09
-1.10099e-07
-3.62606e-07
-7.83428e-07
-1.18794e-06
-1.67245e-06
-1.90898e-06
-2.01002e-06
-2.51091e-07
5.98465e-09
6.56971e-08
1.58176e-07
3.25712e-07
2.65087e-07
3.34876e-07
2.34749e-07
2.85482e-07
2.07234e-07
2.60039e-07
2.08565e-07
2.57705e-07
1.78742e-07
2.46009e-07
1.41595e-07
2.45921e-07
1.05029e-07
1.30134e-07
-2.30298e-07
-2.43948e-07
-5.818e-07
-2.65906e-07
-1.22263e-07
2.95577e-07
-1.96481e-07
-1.21226e-08
1.64013e-07
2.33769e-07
2.60496e-07
2.53565e-07
2.25659e-07
2.29583e-07
1.87477e-07
2.1039e-07
1.58482e-07
1.22481e-07
9.39211e-08
7.10504e-08
3.02755e-08
-1.70293e-09
-1.22958e-07
-2.57992e-07
-6.29923e-07
-8.95134e-07
-1.48296e-06
-1.67659e-06
-2.06985e-06
-3.25076e-07
3.03304e-09
-1.38708e-08
1.75958e-07
1.58736e-07
2.4235e-07
1.61994e-07
2.19461e-07
1.39038e-07
1.93655e-07
1.36476e-07
1.67145e-07
1.00038e-07
1.53539e-07
1.11236e-07
1.58819e-07
1.20883e-07
1.47447e-07
6.1964e-08
-2.94967e-08
-1.57807e-07
-2.77956e-07
-1.77522e-07
1.92361e-08
-1.77431e-07
5.82316e-08
9.99506e-08
1.65933e-07
1.59432e-07
1.59082e-07
1.42572e-07
1.31706e-07
1.41066e-07
1.16083e-07
6.25613e-08
2.57167e-08
7.13388e-09
7.6806e-09
-2.04994e-08
-5.22271e-08
-1.47842e-07
-2.43423e-07
-5.26254e-07
-7.08172e-07
-1.24731e-06
-1.40434e-06
-1.89245e-06
-6.06235e-08
7.51635e-08
7.81448e-08
1.6229e-07
8.59491e-08
1.47239e-07
7.1542e-08
1.22345e-07
6.7544e-08
7.06325e-08
4.27184e-10
1.11644e-08
9.57834e-09
5.06158e-08
4.66456e-08
7.6091e-08
3.68644e-08
6.36803e-08
-6.56079e-08
-8.87905e-09
-2.11172e-07
4.37674e-08
1.39531e-07
-1.38918e-08
9.04292e-08
4.90882e-08
1.84344e-07
4.7452e-08
7.91017e-08
6.47883e-08
5.45304e-08
2.37834e-09
-4.45364e-08
-8.76443e-08
-6.28423e-08
-6.13144e-08
-6.45291e-08
-1.136e-07
-1.74168e-07
-2.66839e-07
-4.57931e-07
-5.98894e-07
-1.0283e-06
-1.13328e-06
-1.65762e-06
2.61196e-08
3.62821e-08
2.41134e-07
8.57125e-08
5.86298e-08
2.50339e-08
1.27105e-08
2.8277e-09
-6.98164e-08
-1.07974e-07
-1.11883e-07
-6.96464e-08
-2.97073e-08
-1.37827e-08
-1.17441e-08
-2.1639e-08
-1.22576e-08
-6.7661e-08
-1.04865e-08
-1.32664e-07
1.25062e-07
1.36587e-07
2.43667e-09
2.77299e-07
1.54004e-07
1.6105e-07
-1.52583e-08
2.55227e-08
-4.49968e-08
-6.43627e-08
-9.92601e-08
-1.55332e-07
-1.45544e-07
-1.14127e-07
-9.03446e-08
-9.99009e-08
-1.46324e-07
-1.92235e-07
-2.79665e-07
-3.99805e-07
-5.32229e-07
-8.18035e-07
-9.5345e-07
-1.30321e-06
1.68574e-09
3.83732e-07
-2.86356e-08
1.75746e-07
-1.81007e-07
-7.05466e-08
-1.47385e-07
-1.78754e-07
-1.8809e-07
-1.6643e-07
-1.04016e-07
-6.88334e-08
-5.72991e-08
-6.50047e-08
-6.52652e-08
-6.75403e-08
-7.82637e-08
-4.20382e-08
-8.09717e-08
1.02134e-07
2.1206e-07
7.7404e-07
-2.63499e-08
3.69292e-07
-2.50362e-07
-7.69016e-08
-2.36126e-07
-2.28624e-07
-2.18798e-07
-1.99232e-07
-1.63191e-07
-1.11653e-07
-9.43367e-08
-1.08475e-07
-1.4839e-07
-1.88566e-07
-2.6344e-07
-3.40992e-07
-4.59934e-07
-6.46336e-07
-7.63125e-07
-1.01715e-06
-1.07894e-07
4.09677e-07
-9.01944e-09
-1.11891e-07
-2.02399e-07
-3.56948e-07
-2.78175e-07
-2.25453e-07
-2.1163e-07
-1.51765e-07
-1.02135e-07
-7.42777e-08
-7.59207e-08
-8.46371e-08
-9.05204e-08
-9.0941e-08
-8.82364e-08
-6.23999e-08
-6.19923e-08
7.61733e-08
1.86737e-07
4.09241e-07
-1.60362e-07
1.09586e-08
-4.34996e-07
-3.08526e-07
-2.24603e-07
-2.41965e-07
-1.97473e-07
-1.27152e-07
-8.91411e-08
-7.66678e-08
-9.30779e-08
-1.30735e-07
-1.61107e-07
-2.25087e-07
-2.71291e-07
-3.80851e-07
-4.84083e-07
-6.19461e-07
-7.64108e-07
-1.868e-07
2.04703e-07
-2.74837e-07
-2.61161e-07
-1.87066e-07
-2.63281e-07
-2.54162e-07
-2.00074e-07
-1.3364e-07
-7.67094e-08
-6.4512e-08
-7.12594e-08
-8.67457e-08
-9.01554e-08
-9.7973e-08
-8.33928e-08
-7.77666e-08
-5.27901e-08
4.1727e-08
1.43225e-07
-1.36834e-07
-9.86113e-08
-1.80185e-07
-1.5772e-07
-3.04177e-07
-1.83663e-07
-2.37601e-07
-1.31269e-07
-6.92534e-08
-4.70123e-08
-7.76656e-08
-8.84638e-08
-1.34422e-07
-1.58576e-07
-2.14713e-07
-2.79792e-07
-3.61267e-07
-4.57491e-07
-5.87657e-07
1.78956e-07
-2.34207e-07
8.13599e-08
-3.21153e-07
-4.86817e-08
-3.19257e-07
-2.28713e-07
-1.43567e-07
-7.15303e-08
-5.69119e-08
-5.61419e-08
-7.65154e-08
-7.81701e-08
-8.75133e-08
-7.78267e-08
-7.79413e-08
-4.85569e-08
1.08145e-08
7.36397e-08
-4.12851e-07
2.38773e-07
-2.00789e-07
4.59988e-08
-2.40352e-07
-2.38367e-07
-1.96699e-07
-1.68546e-07
-7.23113e-08
-4.77001e-08
-4.47567e-08
-6.77369e-08
-8.50378e-08
-1.13693e-07
-1.46549e-07
-1.97944e-07
-2.44814e-07
-3.70191e-07
-4.04331e-07
-2.51297e-07
3.98092e-08
-1.12552e-07
-1.00442e-07
-2.0864e-07
-2.65682e-07
-1.68156e-07
-8.92532e-08
-4.19243e-08
-5.42128e-08
-5.20341e-08
-6.96915e-08
-6.56353e-08
-7.4819e-08
-6.53743e-08
-7.13087e-08
-3.33668e-08
4.71274e-08
1.78378e-07
-1.31846e-07
9.44695e-08
-1.97585e-07
-2.49616e-07
-2.37881e-07
-1.65179e-07
-7.45056e-08
-4.02761e-08
-3.26441e-08
-4.20962e-08
-5.52881e-08
-7.34254e-08
-9.87966e-08
-1.31097e-07
-1.98579e-07
-2.31467e-07
-3.4179e-07
-3.82252e-07
2.25732e-07
-1.00105e-07
-1.31358e-07
-1.99505e-07
-2.51223e-07
-1.29131e-07
-5.3938e-08
-3.90453e-08
-3.19643e-08
-4.6968e-08
-5.23065e-08
-6.46167e-08
-6.45944e-08
-8.26077e-08
-7.56718e-08
-8.42304e-08
1.21099e-07
-1.56944e-07
-4.60508e-09
-1.06969e-07
-2.66164e-07
-1.48597e-07
-4.14018e-08
-2.75131e-08
-2.11468e-08
-2.09583e-08
-3.17209e-08
-4.52623e-08
-5.68916e-08
-7.51598e-08
-1.05443e-07
-1.36052e-07
-1.32596e-07
-5.02015e-07
1.60079e-07
-7.16027e-08
-1.71353e-07
-1.39384e-07
-4.78067e-09
-1.6471e-08
-3.18303e-08
-1.89437e-08
-3.75465e-08
-4.88964e-08
-6.37849e-08
-6.88945e-08
-8.08258e-08
-8.05209e-08
-9.08375e-08
-1.25182e-07
-2.94775e-07
6.17358e-09
-9.09708e-08
3.00919e-08
-1.61471e-08
-3.25007e-08
-1.3366e-08
-7.18392e-08
-5.46866e-08
-5.59642e-08
-6.01231e-08
-6.72214e-08
-7.11708e-08
-8.35072e-08
-9.89635e-08
-1.65792e-07
-1.61681e-07
7.09881e-08
-3.20537e-08
-2.24234e-08
-4.04552e-09
-1.62825e-07
-7.35765e-08
-6.23157e-08
-7.24888e-08
-7.9578e-08
-8.36119e-08
-8.07192e-08
-9.23577e-08
-7.84955e-08
-7.35231e-08
2.06679e-07
-5.6613e-08
-3.18847e-08
-1.6327e-08
-2.56315e-07
-6.51904e-08
-4.79518e-08
-5.55613e-08
-6.84717e-08
-7.42516e-08
-6.99811e-08
-6.89935e-08
-7.05656e-08
-6.86065e-08
-9.55167e-08
-2.56352e-07
1.71911e-08
-4.95477e-09
-2.74611e-07
-2.56371e-08
-8.93763e-09
-1.24652e-08
-4.8357e-08
-6.34854e-08
-7.23059e-08
-7.08338e-08
-7.44565e-08
-6.67253e-08
-7.70276e-08
-4.121e-08
-1.0696e-07
-2.27147e-07
-1.00893e-08
1.25781e-08
2.18162e-08
-2.5772e-08
-3.58827e-08
-5.70072e-08
-4.68953e-08
-5.59501e-08
-4.71561e-08
-4.75251e-08
-4.7394e-08
-5.32488e-08
-8.20711e-08
-1.88089e-08
7.36737e-09
2.91514e-08
-7.99406e-09
-2.73428e-09
-3.67345e-08
-1.19031e-08
-5.77405e-08
-3.58198e-08
-4.0846e-08
-5.35843e-08
-4.23536e-08
-4.1004e-08
-1.61477e-07
1.35969e-08
2.07308e-08
-8.53981e-09
5.99488e-09
-3.27552e-08
6.36721e-09
-7.29779e-08
-8.07891e-09
-6.49823e-08
-4.22201e-08
-3.10288e-08
-2.86721e-08
-3.65269e-08
-8.61219e-08
-2.74129e-08
-8.25326e-09
-3.94033e-08
4.78229e-09
-7.86362e-08
1.91488e-08
-1.42806e-07
-4.13136e-08
-3.3786e-08
-2.37564e-08
-3.74031e-08
-1.88293e-08
1.22131e-08
-1.00564e-08
-4.93941e-08
-3.99881e-09
-7.06455e-08
2.11677e-08
-2.24438e-07
-2.92919e-08
-3.04462e-08
-4.88314e-09
-1.71755e-08
-1.2405e-08
-1.97409e-08
2.1394e-08
-4.93658e-08
4.99433e-09
-4.49501e-08
2.06994e-08
-2.34399e-07
6.78576e-09
-2.07119e-08
3.12348e-08
-7.13133e-10
2.73644e-10
-2.77415e-09
-7.98368e-09
-4.62935e-08
3.89606e-08
-1.13678e-08
2.02721e-08
-1.79341e-07
2.572e-08
-2.32918e-08
5.53835e-08
-9.16354e-09
2.26362e-08
-4.20544e-09
1.02016e-08
5.84979e-09
-5.14491e-09
1.31069e-08
-1.02318e-07
1.60442e-08
-2.78584e-08
5.58243e-08
-2.32597e-08
4.42547e-08
-1.94536e-08
4.06167e-08
3.94407e-09
2.52547e-08
-5.64965e-08
-3.812e-08
-3.91834e-09
-1.66733e-08
3.12794e-08
-3.4323e-08
3.92983e-08
-4.3515e-08
4.76804e-08
-2.6164e-08
3.85131e-08
-3.47253e-08
4.6982e-08
-2.46585e-08
1.19794e-08
-7.62527e-09
-4.67937e-08
1.6246e-08
-5.58072e-08
3.65557e-08
-5.81267e-08
4.23842e-08
-6.96099e-08
-1.3715e-07
5.55667e-08
-1.28867e-08
-4.76334e-08
-7.47743e-10
-5.29594e-08
2.22991e-08
-7.24719e-08
3.38947e-08
-1.14979e-07
6.11147e-08
-5.067e-08
-2.23371e-08
-3.58837e-10
-3.21019e-08
1.14715e-08
-6.42456e-08
2.79984e-08
-1.64801e-07
3.06768e-08
-7.09296e-08
3.83446e-08
7.01226e-09
-4.72513e-09
7.06356e-10
-4.57538e-08
2.36699e-08
-1.67621e-07
3.0067e-08
-8.10377e-08
7.41535e-08
-1.73414e-08
3.95212e-09
-4.78582e-09
-2.27347e-08
1.74726e-08
-1.28205e-07
4.25694e-08
-1.17423e-07
4.25972e-08
-6.4693e-08
5.03224e-08
-8.71234e-09
4.01902e-09
4.70709e-10
-8.08963e-08
3.54311e-08
-1.30186e-07
4.66654e-08
-5.27592e-08
6.12939e-08
-7.12433e-08
3.80519e-08
-4.9547e-09
-4.24949e-08
2.10275e-08
-1.18025e-07
5.05298e-08
-7.6042e-08
3.55144e-08
-3.65439e-08
-2.6085e-08
-8.42923e-09
2.26767e-08
-8.48771e-08
4.93584e-08
-8.96134e-08
4.42046e-08
-2.02573e-08
4.46991e-08
3.92941e-08
2.37587e-08
-3.8615e-08
4.56661e-08
-8.23807e-08
5.25629e-08
-2.39181e-08
4.36749e-08
-1.67705e-08
8.26235e-09
-3.40224e-09
3.42431e-08
-6.25254e-08
5.32819e-08
-4.69048e-08
4.75429e-08
-3.35544e-08
4.18918e-08
2.42801e-08
-3.05571e-08
4.56523e-08
-6.04407e-08
4.22167e-08
-2.04595e-08
4.50549e-08
2.10883e-08
-5.91149e-09
3.15793e-08
-4.46085e-08
5.03053e-08
-3.06302e-08
3.32109e-08
-2.10344e-08
2.43244e-08
2.5566e-08
-1.36465e-08
4.43306e-08
-3.40284e-08
4.1462e-08
-1.40395e-08
3.74868e-08
1.88288e-08
2.20404e-08
-1.89709e-08
4.33432e-08
-1.83712e-08
3.18808e-08
-1.16604e-08
-1.0646e-08
-6.56126e-09
2.33719e-08
-3.11602e-08
3.87901e-08
-1.02452e-08
3.59091e-08
1.64675e-08
8.61664e-09
-2.11378e-08
3.51777e-08
-2.72785e-08
2.90899e-08
-1.10568e-08
-8.61468e-09
-6.61624e-09
1.58023e-08
-3.12274e-08
2.54797e-08
-5.08154e-09
2.44865e-08
1.24139e-08
7.49832e-09
-2.00627e-08
1.96663e-08
-1.1098e-08
1.58765e-08
-4.97664e-10
-5.76446e-09
-6.8144e-09
1.30521e-08
-1.91767e-08
1.38159e-08
-6.17283e-09
1.84692e-08
1.0032e-08
8.18768e-09
-1.70378e-08
1.16353e-08
-1.68297e-08
1.88989e-08
1.03346e-09
-7.19034e-09
1.12604e-08
-1.34152e-08
8.90252e-09
-1.37903e-08
5.15956e-09
1.018e-08
-6.76855e-09
1.24935e-08
-5.85422e-09
1.23754e-08
4.82724e-09
1.0615e-08
-1.59284e-10
1.01976e-08
-2.42825e-09
-4.77491e-09
-2.95814e-09
7.50944e-09
-3.05901e-09
1.05063e-08
8.6066e-09
9.37874e-09
1.68877e-09
1.1439e-08
2.35215e-09
2.66675e-09
-4.06148e-10
7.88215e-09
-8.97169e-10
1.09933e-08
1.60437e-08
1.29672e-08
8.53164e-09
1.45211e-08
7.82035e-09
1.67958e-08
7.10822e-09
8.17769e-09
5.69649e-09
8.34476e-09
)
;

boundaryField
{
    inlet
    {
        type            extrapolatedCalculated;
        value           nonuniform List<scalar> 5(1.67958e-08 7.10822e-09 8.17769e-09 5.69649e-09 8.34476e-09);
    }
    outlet
    {
        type            extrapolatedCalculated;
        value           nonuniform List<scalar> 0();
    }
    walls
    {
        type            extrapolatedCalculated;
        value           nonuniform List<scalar> 
28
(
-6.50821e-06
-1.19164e-06
-1.09179e-08
1.90631e-08
5.41937e-07
3.7085e-07
6.84559e-07
4.06004e-07
5.89293e-07
3.39582e-07
6.39051e-07
2.95987e-07
7.33893e-07
9.80413e-08
4.4032e-07
-1.03375e-06
-1.66733e-06
-1.84723e-06
-1.78992e-06
-1.24299e-06
-1.17172e-06
1.72707e-06
-2.87245e-06
-1.04698e-06
-1.46038e-06
-1.44754e-06
-2.51266e-06
-2.61063e-06
)
;
    }
    frontAndBack
    {
        type            empty;
    }
    procBoundary1to0
    {
        type            processor;
        value           nonuniform List<scalar> 
94
(
1.96192e-06
1.96192e-06
9.71101e-07
9.71101e-07
4.01865e-07
4.01865e-07
7.74707e-07
7.74707e-07
3.98064e-07
3.98064e-07
-2.68516e-07
-2.68516e-07
-7.05931e-08
-1.28265e-07
-1.28265e-07
-3.42634e-08
2.31766e-07
2.31766e-07
-1.1928e-07
2.21186e-07
1.6764e-07
1.6764e-07
-2.44695e-08
1.77355e-08
1.77355e-08
-4.80795e-09
2.88575e-08
2.97588e-07
2.97588e-07
-1.4574e-07
4.561e-07
4.86038e-07
4.86038e-07
4.68002e-07
4.03561e-07
4.03561e-07
-8.37457e-08
2.58854e-07
2.94988e-07
2.94988e-07
-1.43554e-07
2.4504e-07
2.99044e-07
2.99044e-07
-7.47244e-08
2.27931e-07
2.23999e-07
2.23999e-07
-1.05936e-07
2.75861e-07
2.15927e-07
2.15927e-07
-6.92587e-08
3.32557e-08
6.83918e-08
6.83918e-08
-6.48216e-08
1.83716e-08
1.11561e-07
6.39049e-08
6.39049e-08
4.00554e-08
-7.28965e-08
1.13026e-07
1.15791e-07
1.15791e-07
-1.30634e-08
6.59782e-08
-3.48216e-08
7.97273e-08
8.22444e-08
8.22444e-08
-4.50883e-09
5.11801e-08
4.35797e-10
4.24791e-08
2.58697e-08
1.55087e-08
1.55087e-08
2.05713e-08
-1.52743e-08
1.73544e-08
-1.25328e-08
1.66105e-08
-7.89404e-09
1.37501e-08
6.22671e-09
3.71751e-09
3.71751e-09
8.82135e-09
-3.44344e-09
1.36124e-08
5.12275e-09
1.15587e-08
)
;
    }
    procBoundary1to2
    {
        type            processor;
        value           nonuniform List<scalar> 
84
(
1.55884e-07
1.01561e-06
-5.0617e-07
1.55584e-07
-1.31328e-06
-8.43431e-07
-1.49527e-06
-1.60411e-06
-1.66479e-06
-2.26212e-06
-1.45352e-06
-2.64764e-06
-1.22584e-06
-2.92267e-06
-9.11763e-07
-2.92185e-06
-5.01373e-07
-2.75588e-06
-2.60623e-07
-2.35078e-06
2.84012e-07
-1.8944e-06
3.68137e-07
-1.46395e-06
4.86639e-07
-1.10511e-06
3.97367e-07
-8.4504e-07
2.1481e-07
-6.62642e-07
1.10757e-07
-4.81486e-07
-1.02559e-08
-3.66663e-07
-3.92388e-08
-2.1275e-07
-7.75781e-08
-2.35388e-07
-1.48477e-07
-1.48477e-07
-1.33151e-07
-1.24442e-07
-4.88739e-08
-1.07968e-07
-3.15213e-08
-6.48212e-08
-2.21153e-08
-6.00638e-08
-1.21586e-08
-1.04565e-08
4.28418e-09
4.96331e-09
1.64595e-08
8.47316e-08
8.47316e-08
-7.26917e-08
8.63988e-08
-7.00416e-08
6.60215e-08
-2.84475e-08
4.45227e-08
-9.40596e-09
2.82879e-08
6.17047e-08
6.17047e-08
-1.00182e-08
3.1695e-08
-5.28634e-09
3.28386e-08
6.42661e-10
3.16763e-08
2.53274e-09
1.87311e-08
1.9535e-09
-1.40839e-08
-1.40839e-08
3.54682e-09
-6.52856e-09
1.13459e-08
6.45702e-10
1.75136e-08
3.82211e-09
2.30322e-08
1.34345e-08
)
;
    }
    procBoundary1to5
    {
        type            processor;
        value           nonuniform List<scalar> 
13
(
-1.76147e-06
-1.76147e-06
-6.1025e-07
-1.59993e-06
-1.59993e-06
-1.18809e-06
-1.03697e-06
-1.03697e-06
-9.61547e-07
-1.50211e-06
2.01577e-06
2.01577e-06
1.43912e-06
)
;
    }
}


// ************************************************************************* //
