/*--------------------------------*- C++ -*----------------------------------*\
| =========                 |                                                 |
| \\      /  F ield         | OpenFOAM: The Open Source CFD Toolbox           |
|  \\    /   O peration     | Version:  2506                                  |
|   \\  /    A nd           | Website:  www.openfoam.com                      |
|    \\/     M anipulation  |                                                 |
\*---------------------------------------------------------------------------*/
FoamFile
{
    version     2.0;
    format      ascii;
    arch        "LSB;label=32;scalar=64";
    class       volScalarField;
    location    "500";
    object      magR;
}
// * * * * * * * * * * * * * * * * * * * * * * * * * * * * * * * * * * * * * //

dimensions      [0 2 -2 0 0 0 0];

internalField   nonuniform List<scalar> 
1340
(
0.00335175
0.00350619
0.00474345
0.00705508
0.0106247
0.0158801
0.0234976
0.0343389
0.0497157
0.0718251
0.104784
0.156208
0.239903
0.383332
0.637033
1.121
2.05261
4.08368
8.35114
18.6656
38.4622
54.5031
61.3868
63.3395
63.659
63.2924
62.397
61.0188
0.00250372
0.0022027
0.00192412
0.00164763
0.00138453
0.00115676
0.000964327
0.000801119
0.000662816
0.000546301
0.000447472
0.00036386
0.000290609
0.000223737
0.000157664
9.31612e-05
3.22831e-05
5.26515e-06
1.34238e-05
0.00191624
0.010375
0.0836546
0.281746
0.55142
0.824378
1.06464
1.26669
1.44422
1.61011
0.00200263
0.00179981
0.00161135
0.00141748
0.00120888
0.00100688
0.000826098
0.00067042
0.000541888
0.000438106
0.000357222
0.00029587
0.000251245
0.000219186
0.000197101
0.000182769
0.000174901
0.000170575
0.000170352
0.000169185
0.00017994
0.000106713
0.000756714
0.00502253
0.0142338
0.0299799
0.0675796
0.141401
0.250398
0.00169056
0.00157029
0.00144231
0.00130906
0.00116444
0.00101496
0.000874827
0.000751019
0.000644318
0.000554162
0.000478581
0.000416398
0.000365753
0.000325104
0.000292011
0.000265121
0.000242534
0.000222291
0.000201004
0.00017913
0.000160942
0.000147193
0.000137313
0.000125328
0.000109904
8.24943e-05
5.19381e-05
0.000414625
0.000705079
0.00263462
0.0013439
0.00126153
0.00117308
0.00107878
0.000975268
0.000867585
0.000762215
0.000663259
0.000572435
0.000490963
0.000419361
0.000357802
0.000306016
0.0002634
0.000228655
0.000200605
0.000177734
0.000158417
0.000139991
0.000121266
0.000103972
9.02366e-05
8.07406e-05
7.65755e-05
7.07208e-05
8.65945e-05
2.03329e-05
0.000134551
0.000653086
0.00163584
0.00113689
0.00108596
0.00102734
0.00096445
0.000896062
0.000820461
0.000741285
0.00066248
0.000587068
0.000516805
0.000452913
0.000396189
0.000346882
0.000304851
0.000269606
0.000240243
0.000215733
0.000194776
0.00017593
0.000157178
0.000137706
0.000119166
0.000102994
8.94591e-05
7.81058e-05
6.86644e-05
6.05695e-05
5.32719e-05
4.27182e-05
2.99772e-05
6.09266e-07
0.000927814
0.000890148
0.000847821
0.000801683
0.000750874
0.000695161
0.000636604
0.000577412
0.000519381
0.000463748
0.000411553
0.000363628
0.000320435
0.000282254
0.000249085
0.000220536
0.000196058
0.000174833
0.000155813
0.000137535
0.000119233
0.000101891
8.66467e-05
7.38159e-05
6.31342e-05
5.44619e-05
4.79752e-05
4.37548e-05
4.12117e-05
3.72438e-05
2.78679e-05
0.000767263
0.00073851
0.000707099
0.000672473
0.000634133
0.000592539
0.000548627
0.000503774
0.000459086
0.0004154
0.000373568
0.000334403
0.000298397
0.000265982
0.00023732
0.000212245
0.000190353
0.00017103
0.000153436
0.000136467
0.000119547
0.000103401
8.89176e-05
7.63436e-05
6.54157e-05
5.58907e-05
4.77007e-05
4.0688e-05
3.46843e-05
2.95469e-05
2.6049e-05
0.000659565
0.000641189
0.000619003
0.000595089
0.0005686
0.00053931
0.000507823
0.000474579
0.000440363
0.00040584
0.000371521
0.000338
0.000305892
0.000275678
0.000247756
0.000222379
0.000199584
0.000179196
0.000160828
0.000143893
0.000127649
0.000111692
9.64875e-05
8.27671e-05
7.0808e-05
6.04561e-05
5.15339e-05
4.40019e-05
3.791e-05
3.32642e-05
3.00196e-05
2.81303e-05
0.000540626
0.000523311
0.000504678
0.000484053
0.00046146
0.000437335
0.0004119
0.000385624
0.000358848
0.000331847
0.000305059
0.000278931
0.000253834
0.000230172
0.0002082
0.000188047
0.000169671
0.000152839
0.000137148
0.000122106
0.000107406
9.33871e-05
8.06237e-05
6.93634e-05
5.94944e-05
5.08551e-05
4.33839e-05
3.70492e-05
3.1762e-05
2.7607e-05
2.45705e-05
0.000445617
0.000430844
0.000414548
0.000396941
0.000378277
0.000358624
0.00033828
0.000317429
0.000296192
0.00027481
0.000253603
0.00023284
0.000212838
0.000193866
0.00017608
0.000159506
0.00014404
0.000129442
0.000115398
0.000101729
8.86925e-05
7.67321e-05
6.60864e-05
5.67082e-05
4.84909e-05
4.14017e-05
3.5451e-05
3.06358e-05
2.70238e-05
2.45538e-05
0.000369918
0.000356896
0.000343033
0.000328429
0.000313118
0.000297271
0.000280961
0.000264195
0.000247138
0.000229976
0.000212876
0.000196091
0.000179831
0.000164282
0.000149525
0.00013553
0.00012215
0.000109203
9.66291e-05
8.46181e-05
7.35211e-05
6.35527e-05
5.47039e-05
4.68995e-05
4.01069e-05
3.43329e-05
2.95493e-05
2.58228e-05
2.3178e-05
0.000308676
0.000297649
0.000286128
0.0002741
0.00026166
0.00024883
0.000235579
0.000221952
0.000208068
0.000194029
0.000180012
0.000166175
0.000152675
0.000139615
0.000127011
0.000114805
0.000102924
9.13659e-05
8.03023e-05
7.00065e-05
6.06749e-05
5.23316e-05
4.49337e-05
3.84671e-05
3.29544e-05
2.83957e-05
2.48584e-05
2.23687e-05
0.000259195
0.000250018
0.000240489
0.000230668
0.000220532
0.000210009
0.000199122
0.000187905
0.0001764
0.000164734
0.000153022
0.000141384
0.000129909
0.000118653
0.000107612
9.67916e-05
8.62359e-05
7.60918e-05
6.65895e-05
5.79012e-05
5.00721e-05
4.30868e-05
3.69423e-05
3.16665e-05
2.72594e-05
2.37873e-05
2.12885e-05
0.000219051
0.000211449
0.000203635
0.000195578
0.000187199
0.000178473
0.000169411
0.000160008
0.000150328
0.000140449
0.000130463
0.000120454
0.000110484
0.000100575
9.07623e-05
8.11442e-05
7.18709e-05
6.31267e-05
5.50614e-05
4.77355e-05
4.1156e-05
3.53326e-05
3.03014e-05
2.60736e-05
2.27191e-05
2.02753e-05
0.000192369
0.000186255
0.000180006
0.000173572
0.000166865
0.00015986
0.000152521
0.000144835
0.000136822
0.000128524
0.000120002
0.00011132
0.000102538
9.36963e-05
8.48654e-05
7.61552e-05
6.77128e-05
5.96945e-05
5.22359e-05
4.5406e-05
3.92289e-05
3.37244e-05
2.89345e-05
2.48757e-05
2.16182e-05
1.92026e-05
0.000164345
0.000159306
0.000154132
0.000148746
0.0001431
0.000137154
0.000130869
0.000124248
0.000117297
0.000110057
0.000102568
9.48775e-05
8.70335e-05
7.91228e-05
7.12702e-05
6.36086e-05
5.62819e-05
4.94088e-05
4.30621e-05
3.72797e-05
3.20902e-05
2.75396e-05
2.36521e-05
2.04989e-05
1.81222e-05
0.000145226
0.000141141
0.000136959
0.000132606
0.000128039
0.000123207
0.000118064
0.000112593
0.000106786
0.000100651
9.42196e-05
8.75299e-05
8.06198e-05
7.35676e-05
6.65056e-05
5.95802e-05
5.29111e-05
4.66011e-05
4.07242e-05
3.53277e-05
3.04479e-05
2.61329e-05
2.24141e-05
1.93617e-05
1.70197e-05
0.000125169
0.000121767
0.000118231
0.000114519
0.000110582
0.000106367
0.000101845
9.69969e-05
9.18194e-05
8.63171e-05
8.05143e-05
7.44462e-05
6.81958e-05
6.18868e-05
5.56512e-05
4.95991e-05
4.3824e-05
3.83987e-05
3.33763e-05
2.87986e-05
2.47149e-05
2.11632e-05
1.82114e-05
1.5906e-05
0.000111103
0.000108316
0.000105429
0.000102399
9.91772e-05
9.57146e-05
9.19762e-05
8.79302e-05
8.35633e-05
7.88731e-05
7.38661e-05
6.85641e-05
6.30447e-05
5.74267e-05
5.18298e-05
4.63559e-05
4.10883e-05
3.60966e-05
3.14362e-05
2.71527e-05
2.32954e-05
1.99081e-05
1.70551e-05
1.47863e-05
9.86952e-05
9.6398e-05
9.4026e-05
9.15401e-05
8.88936e-05
8.60392e-05
8.29432e-05
7.95693e-05
7.58926e-05
7.18984e-05
6.75899e-05
6.29794e-05
5.81267e-05
5.31372e-05
4.81298e-05
4.31963e-05
3.84078e-05
3.38294e-05
2.95166e-05
2.55174e-05
2.18804e-05
1.86538e-05
1.58978e-05
1.36666e-05
8.58333e-05
8.38699e-05
8.18168e-05
7.96341e-05
7.72746e-05
7.47032e-05
7.18848e-05
6.87903e-05
6.53991e-05
6.16997e-05
5.76979e-05
5.34437e-05
4.9033e-05
4.457e-05
4.0136e-05
3.57956e-05
3.16073e-05
2.76261e-05
2.39003e-05
2.04778e-05
1.74077e-05
1.47469e-05
1.25537e-05
7.64565e-05
7.48228e-05
7.31196e-05
7.13076e-05
6.93481e-05
6.72082e-05
6.48501e-05
6.22437e-05
5.93651e-05
5.61961e-05
5.2733e-05
4.90159e-05
4.51269e-05
4.11607e-05
3.71853e-05
3.32612e-05
2.94405e-05
2.57751e-05
2.23118e-05
1.90964e-05
1.61782e-05
1.36107e-05
1.14558e-05
6.67642e-05
6.53389e-05
6.38277e-05
6.21942e-05
6.04068e-05
5.843e-05
5.62338e-05
5.37917e-05
5.10805e-05
4.80895e-05
4.48479e-05
4.14262e-05
3.79069e-05
3.43548e-05
3.08164e-05
2.73399e-05
2.39733e-05
2.07605e-05
1.77446e-05
1.49744e-05
1.24986e-05
1.03817e-05
5.95832e-05
5.83853e-05
5.71166e-05
5.57471e-05
5.42482e-05
5.25876e-05
5.07331e-05
4.86591e-05
4.634e-05
4.37609e-05
4.09404e-05
3.79384e-05
3.48233e-05
3.16552e-05
2.84717e-05
2.53159e-05
2.22298e-05
1.92551e-05
1.64313e-05
1.38047e-05
1.14193e-05
9.33985e-06
5.31849e-05
5.21705e-05
5.11005e-05
4.99468e-05
4.86836e-05
4.72834e-05
4.5716e-05
4.39534e-05
4.19689e-05
3.97442e-05
3.72919e-05
3.46607e-05
3.19115e-05
2.90908e-05
2.62335e-05
2.3375e-05
2.05523e-05
1.78039e-05
1.51648e-05
1.2677e-05
1.03811e-05
8.33967e-06
4.6619e-05
4.571e-05
4.4733e-05
4.36658e-05
4.24805e-05
4.11508e-05
3.96509e-05
3.79531e-05
3.60352e-05
3.39059e-05
3.16029e-05
2.91787e-05
2.66721e-05
2.41116e-05
2.15269e-05
1.89506e-05
1.64157e-05
1.39535e-05
1.16013e-05
9.39436e-06
7.3911e-06
4.16624e-05
4.08857e-05
4.00537e-05
3.91462e-05
3.81395e-05
3.70089e-05
3.57291e-05
3.42744e-05
3.26211e-05
3.07724e-05
2.87589e-05
2.66237e-05
2.43992e-05
2.21088e-05
1.97765e-05
1.74301e-05
1.50972e-05
1.2805e-05
1.05859e-05
8.46865e-06
6.50466e-06
3.72371e-05
3.65697e-05
3.58574e-05
3.50824e-05
3.42239e-05
3.32596e-05
3.21661e-05
3.09176e-05
2.94913e-05
2.7886e-05
2.61254e-05
2.42471e-05
2.22758e-05
2.02305e-05
1.813e-05
1.59971e-05
1.38553e-05
1.17266e-05
9.63837e-06
7.61266e-06
5.69109e-06
3.27105e-05
3.20975e-05
3.14333e-05
3.06986e-05
2.98732e-05
2.89361e-05
2.78628e-05
2.66308e-05
2.52369e-05
2.36991e-05
2.20471e-05
2.03025e-05
1.84784e-05
1.65903e-05
1.46558e-05
1.26944e-05
1.07236e-05
8.76529e-06
6.83533e-06
4.96243e-06
2.9263e-05
2.87326e-05
2.81601e-05
2.75287e-05
2.682e-05
2.6015e-05
2.50914e-05
2.40263e-05
2.28144e-05
2.14712e-05
2.00197e-05
1.84773e-05
1.68534e-05
1.51594e-05
1.34095e-05
1.16185e-05
9.80092e-06
7.97272e-06
6.14446e-06
4.33076e-06
2.5723e-05
2.52278e-05
2.4683e-05
2.40732e-05
2.33803e-05
2.25834e-05
2.16615e-05
2.06079e-05
1.94341e-05
1.81598e-05
1.67975e-05
1.5354e-05
1.38377e-05
1.22594e-05
1.06302e-05
8.9609e-06
7.26395e-06
5.54537e-06
3.8075e-06
2.30333e-05
2.26034e-05
2.21319e-05
2.16052e-05
2.10068e-05
2.03185e-05
1.952e-05
1.86038e-05
1.75786e-05
1.64601e-05
1.52583e-05
1.39779e-05
1.26244e-05
1.12052e-05
9.72929e-06
8.20458e-06
6.64065e-06
5.04149e-06
3.40179e-06
2.06307e-05
2.0256e-05
1.98472e-05
1.93913e-05
1.88746e-05
1.82789e-05
1.75859e-05
1.67885e-05
1.58932e-05
1.49128e-05
1.38547e-05
1.27213e-05
1.15164e-05
1.02451e-05
8.91461e-06
7.5309e-06
6.10174e-06
4.63173e-06
3.11615e-06
1.81589e-05
1.78034e-05
1.74079e-05
1.69602e-05
1.64443e-05
1.58435e-05
1.51496e-05
1.4368e-05
1.35093e-05
1.25792e-05
1.15785e-05
1.05096e-05
9.37624e-06
8.18336e-06
6.93667e-06
5.6434e-06
4.31074e-06
2.94299e-06
1.62861e-05
1.59762e-05
1.5633e-05
1.5245e-05
1.47978e-05
1.42762e-05
1.36727e-05
1.29911e-05
1.22403e-05
1.14244e-05
1.05435e-05
9.59903e-06
8.59335e-06
7.53066e-06
6.41629e-06
5.25837e-06
4.06806e-06
2.86313e-06
1.46143e-05
1.43443e-05
1.40461e-05
1.37093e-05
1.33218e-05
1.28693e-05
1.23445e-05
1.17511e-05
1.10957e-05
1.03818e-05
9.60909e-06
8.77815e-06
7.8906e-06
6.95047e-06
5.96288e-06
4.93749e-06
3.88992e-06
2.85033e-06
1.28874e-05
1.26279e-05
1.23361e-05
1.20003e-05
1.16079e-05
1.11522e-05
1.0636e-05
1.00654e-05
9.44285e-06
8.76766e-06
8.04001e-06
7.26156e-06
6.43564e-06
5.56819e-06
4.67001e-06
3.76037e-06
2.87744e-06
1.15869e-05
1.13616e-05
1.11086e-05
1.08178e-05
1.04779e-05
1.0083e-05
9.63514e-06
9.13962e-06
8.59844e-06
8.0109e-06
7.37707e-06
6.69849e-06
5.97834e-06
5.22306e-06
4.44443e-06
3.6636e-06
1.04263e-05
1.02307e-05
1.00117e-05
9.76035e-06
9.46657e-06
9.12489e-06
8.73728e-06
8.30828e-06
7.83967e-06
7.3308e-06
6.78172e-06
6.19386e-06
5.57066e-06
4.91862e-06
4.24985e-06
3.58579e-06
9.221e-06
9.03172e-06
8.81475e-06
8.56128e-06
8.26641e-06
7.93191e-06
7.56195e-06
7.15786e-06
6.71922e-06
6.24617e-06
5.74023e-06
5.20477e-06
4.6463e-06
4.07655e-06
3.51577e-06
8.31908e-06
8.15572e-06
7.96894e-06
7.75095e-06
7.49727e-06
7.20955e-06
6.89161e-06
6.54463e-06
6.16842e-06
5.76321e-06
5.33053e-06
4.87362e-06
4.39868e-06
3.91661e-06
3.44542e-06
7.51281e-06
7.37248e-06
7.21225e-06
7.02514e-06
6.80751e-06
6.56098e-06
6.28889e-06
5.99241e-06
5.67134e-06
5.32615e-06
4.95829e-06
4.57089e-06
4.16955e-06
3.76392e-06
3.36939e-06
6.67158e-06
6.53429e-06
6.37436e-06
6.18849e-06
5.97803e-06
5.74613e-06
5.49389e-06
5.22127e-06
4.9288e-06
4.61786e-06
4.29128e-06
3.95399e-06
3.61423e-06
3.28465e-06
6.04355e-06
5.92662e-06
5.79042e-06
5.63217e-06
5.45324e-06
5.25642e-06
5.04282e-06
4.81252e-06
4.566e-06
4.30454e-06
4.03064e-06
3.74851e-06
3.46489e-06
3.18995e-06
5.48045e-06
5.38108e-06
5.26546e-06
5.13132e-06
4.97989e-06
4.81365e-06
4.63362e-06
4.43995e-06
4.23316e-06
4.01436e-06
3.78567e-06
3.55059e-06
3.31452e-06
3.08531e-06
4.89071e-06
4.79308e-06
4.6798e-06
4.55218e-06
4.41237e-06
4.26131e-06
4.09919e-06
3.92651e-06
3.74421e-06
3.55402e-06
3.35878e-06
3.16269e-06
2.97168e-06
4.44933e-06
4.36719e-06
4.27201e-06
4.16493e-06
4.04788e-06
3.92168e-06
3.78656e-06
3.64295e-06
3.49164e-06
3.334e-06
3.17227e-06
3.00961e-06
2.85047e-06
4.05141e-06
3.98268e-06
3.90308e-06
3.8136e-06
3.71599e-06
3.61102e-06
3.49885e-06
3.37984e-06
3.25467e-06
3.12439e-06
2.99068e-06
2.85591e-06
2.72329e-06
3.69216e-06
3.63486e-06
3.56856e-06
3.49413e-06
3.4131e-06
3.3261e-06
3.23329e-06
3.13501e-06
3.03173e-06
2.92429e-06
2.81392e-06
2.70234e-06
2.5918e-06
3.3196e-06
3.26463e-06
3.20294e-06
3.13585e-06
3.06396e-06
2.98741e-06
2.90643e-06
2.8214e-06
2.73295e-06
2.64194e-06
2.54958e-06
2.45744e-06
3.03313e-06
2.98762e-06
2.93661e-06
2.88122e-06
2.82195e-06
2.75892e-06
2.69229e-06
2.6224e-06
2.54965e-06
2.47465e-06
2.39821e-06
2.3214e-06
2.77189e-06
2.73428e-06
2.69212e-06
2.6464e-06
2.59756e-06
2.54569e-06
2.49093e-06
2.43349e-06
2.37367e-06
2.31187e-06
2.24863e-06
2.5327e-06
2.50152e-06
2.46661e-06
2.42885e-06
2.38856e-06
2.34584e-06
2.30082e-06
2.25361e-06
2.20442e-06
2.1535e-06
2.10118e-06
2.28672e-06
2.25774e-06
2.22646e-06
2.19316e-06
2.15793e-06
2.12087e-06
2.08206e-06
2.04161e-06
1.99966e-06
1.95639e-06
2.08788e-06
2.06372e-06
2.03773e-06
2.01018e-06
1.98112e-06
1.95062e-06
1.91871e-06
1.88547e-06
1.85094e-06
1.8152e-06
1.90372e-06
1.88357e-06
1.86199e-06
1.83922e-06
1.81529e-06
1.79023e-06
1.76405e-06
1.73678e-06
1.70841e-06
1.67894e-06
1.73376e-06
1.71704e-06
1.69923e-06
1.68051e-06
1.66089e-06
1.64038e-06
1.61898e-06
1.59667e-06
1.57341e-06
1.54915e-06
1.57797e-06
1.56424e-06
1.54967e-06
1.53438e-06
1.51838e-06
1.50166e-06
1.4842e-06
1.46598e-06
1.44693e-06
1.427e-06
1.42491e-06
1.41302e-06
1.40056e-06
1.3875e-06
1.37385e-06
1.35957e-06
1.34465e-06
1.32902e-06
1.31259e-06
1.29785e-06
1.28802e-06
1.2777e-06
1.26689e-06
1.25559e-06
1.24378e-06
1.23144e-06
1.2185e-06
1.2049e-06
1.18086e-06
1.17242e-06
1.16357e-06
1.15434e-06
1.14473e-06
1.13475e-06
1.12437e-06
1.11354e-06
1.07147e-06
1.06384e-06
1.05592e-06
1.04774e-06
1.03934e-06
1.0307e-06
1.02182e-06
1.01264e-06
9.68111e-07
9.60924e-07
9.53587e-07
9.46148e-07
9.38622e-07
9.31007e-07
9.23286e-07
9.15441e-07
8.7069e-07
8.63812e-07
8.56922e-07
8.50054e-07
8.43232e-07
8.36437e-07
8.29673e-07
8.22931e-07
7.73522e-07
7.6701e-07
7.60607e-07
7.54343e-07
7.48207e-07
7.42232e-07
7.36368e-07
6.92315e-07
6.86109e-07
6.80082e-07
6.74243e-07
6.68638e-07
6.63266e-07
6.58078e-07
6.25819e-07
6.19842e-07
6.14048e-07
6.08466e-07
6.03155e-07
5.98086e-07
5.93286e-07
5.72817e-07
5.67093e-07
5.61501e-07
5.5611e-07
5.5093e-07
5.45997e-07
5.41365e-07
5.25066e-07
5.19648e-07
5.14321e-07
5.09134e-07
5.04096e-07
4.99291e-07
4.9474e-07
4.79435e-07
4.74206e-07
4.69022e-07
4.6391e-07
4.58955e-07
4.54226e-07
4.49737e-07
4.36923e-07
4.31598e-07
4.26176e-07
4.20721e-07
4.15366e-07
4.10198e-07
3.95458e-07
3.89728e-07
3.83841e-07
3.77871e-07
3.71915e-07
3.66045e-07
3.48736e-07
3.40884e-07
3.32894e-07
3.2498e-07
3.17362e-07
3.10215e-07
2.84848e-07
2.73357e-07
2.61358e-07
2.49106e-07
2.36884e-07
2.24217e-07
2.12736e-07
2.02173e-07
1.92944e-07
1.85457e-07
2.21438e-07
2.14033e-07
2.08426e-07
2.04497e-07
2.02031e-07
4.05414e-07
4.35292e-07
4.64346e-07
4.91961e-07
5.17541e-07
9.64947e-07
9.81159e-07
9.93993e-07
1.00355e-06
1.01028e-06
1.87671e-06
1.90048e-06
1.91803e-06
1.92971e-06
1.93666e-06
)
;

boundaryField
{
    inlet
    {
        type            calculated;
        value           nonuniform List<scalar> 5(5.9055e-06 6.06907e-06 6.21643e-06 6.34791e-06 6.46385e-06);
    }
    outlet
    {
        type            calculated;
        value           nonuniform List<scalar> 0();
    }
    walls
    {
        type            calculated;
        value           nonuniform List<scalar> 
28
(
0.0289455
0.038173
0.090122
0.168738
0.256746
0.344199
0.426994
0.503679
0.574121
0.638941
0.699257
0.756484
0.811517
0.865235
0.918046
0.969712
1.01748
1.05589
1.08359
1.10286
1.11588
1.12379
1.1274
1.12545
1.11657
1.10051
1.07772
1.0481
)
;
    }
    frontAndBack
    {
        type            empty;
    }
    procBoundary1to0
    {
        type            processor;
        value           nonuniform List<scalar> 
94
(
0.000555439
0.000555439
0.000459293
0.000459293
0.00038179
0.00038179
0.000319185
0.000319185
0.000268051
0.000268051
0.000226421
0.000226421
0.000198336
0.000169296
0.000169296
0.000149266
0.000128508
0.000128508
0.00011385
0.000100973
8.77418e-05
8.77418e-05
7.80536e-05
6.81357e-05
6.81357e-05
6.07402e-05
5.41699e-05
4.74849e-05
4.74849e-05
4.24047e-05
3.78777e-05
3.32877e-05
3.32877e-05
2.97646e-05
2.61835e-05
2.61835e-05
2.34344e-05
2.0982e-05
1.84856e-05
1.84856e-05
1.65719e-05
1.48648e-05
1.31229e-05
1.31229e-05
1.17923e-05
1.06053e-05
9.39038e-06
9.39038e-06
8.4657e-06
7.63935e-06
6.79203e-06
6.79203e-06
6.14643e-06
5.56797e-06
4.97472e-06
4.97472e-06
4.52001e-06
4.11063e-06
3.74154e-06
3.36712e-06
3.36712e-06
3.07245e-06
2.80436e-06
2.55959e-06
2.31266e-06
2.31266e-06
2.10957e-06
1.92189e-06
1.74892e-06
1.59046e-06
1.43611e-06
1.43611e-06
1.30709e-06
1.1888e-06
1.07871e-06
9.75018e-07
8.77398e-07
7.80117e-07
7.80117e-07
6.98676e-07
6.3199e-07
5.7866e-07
5.30514e-07
4.84642e-07
4.42099e-07
4.00958e-07
3.56197e-07
2.95615e-07
2.95615e-07
2.36253e-07
2.3059e-07
3.74631e-07
9.46171e-07
1.84611e-06
)
;
    }
    procBoundary1to2
    {
        type            processor;
        value           nonuniform List<scalar> 
84
(
59.2334
1.7808
0.383847
0.0141386
0.00138243
0.000202265
3.55337e-06
2.36408e-05
2.83649e-05
2.39699e-05
2.42476e-05
2.24908e-05
2.16339e-05
2.04295e-05
1.93463e-05
1.81846e-05
1.70275e-05
1.5851e-05
1.46712e-05
1.34914e-05
1.23191e-05
1.11604e-05
1.00228e-05
8.91403e-06
7.84108e-06
6.81181e-06
5.8342e-06
4.91679e-06
4.06921e-06
3.30406e-06
2.63871e-06
2.10011e-06
1.72689e-06
1.5546e-06
1.57415e-06
1.72e-06
1.91929e-06
2.12418e-06
2.92143e-06
2.92143e-06
2.96545e-06
2.99846e-06
3.01409e-06
3.00932e-06
2.98352e-06
2.93762e-06
2.87348e-06
2.79351e-06
2.70042e-06
2.59677e-06
2.48505e-06
2.36733e-06
2.24533e-06
2.1846e-06
2.1846e-06
2.04781e-06
1.91198e-06
1.77829e-06
1.64834e-06
1.52384e-06
1.40607e-06
1.29527e-06
1.19053e-06
1.10219e-06
1.10219e-06
1.00312e-06
9.07409e-07
8.16133e-07
7.30577e-07
6.53099e-07
5.88757e-07
5.36988e-07
4.90423e-07
4.45512e-07
4.05291e-07
4.05291e-07
3.60336e-07
3.03697e-07
2.25002e-07
1.79998e-07
2.00564e-07
5.40478e-07
1.01492e-06
1.93988e-06
)
;
    }
    procBoundary1to5
    {
        type            processor;
        value           nonuniform List<scalar> 
13
(
0.00448042
0.00448042
0.00281403
0.00218026
0.00218026
0.00179357
0.00141275
0.00141275
0.00117563
0.000957167
0.000790464
0.000790464
0.000674636
)
;
    }
}


// ************************************************************************* //
