/*--------------------------------*- C++ -*----------------------------------*\
| =========                 |                                                 |
| \\      /  F ield         | OpenFOAM: The Open Source CFD Toolbox           |
|  \\    /   O peration     | Version:  2506                                  |
|   \\  /    A nd           | Website:  www.openfoam.com                      |
|    \\/     M anipulation  |                                                 |
\*---------------------------------------------------------------------------*/
FoamFile
{
    version     2.0;
    format      ascii;
    arch        "LSB;label=32;scalar=64";
    class       volScalarField;
    location    "500";
    object      p;
}
// * * * * * * * * * * * * * * * * * * * * * * * * * * * * * * * * * * * * * //

dimensions      [0 2 -2 0 0 0 0];

internalField   nonuniform List<scalar> 
1340
(
338.464
336.064
323.159
302.13
278.586
255.041
232.257
210.876
190.764
171.975
154.078
136.804
119.66
102.596
85.3011
67.8677
50.7081
35.6899
23.854
14.1395
6.25823
0.395113
-3.48454
-5.62898
-6.18645
-5.23964
-2.79479
1.15679
320.675
329.369
327.941
317.251
300.068
279.871
258.609
237.222
216.418
196.444
177.43
159.196
141.542
124.14
106.891
89.5895
72.3166
55.4978
40.6056
28.5673
18.6999
10.5891
4.19904
-0.370277
-3.13166
-4.17965
-3.61778
-1.47883
2.23595
306.875
315.792
315.951
308.013
294.06
276.444
256.946
236.734
216.619
197.036
178.184
160.03
142.429
125.14
108.028
90.9526
73.9777
57.4853
42.638
30.3394
20.2184
11.92
5.43009
0.83624
-1.92501
-3.01154
-2.5413
-0.528525
3.05751
274.299
291.207
300.32
301.883
296.36
285.347
270.587
253.541
235.309
216.68
198.137
179.955
162.218
144.871
127.769
110.811
93.9228
77.1752
60.9276
46.1392
33.6601
23.3227
14.8038
8.05962
3.15192
0.0245856
-1.42683
-1.27822
0.475653
3.86964
259.35
275.182
284.416
287.082
283.599
275.12
262.958
248.257
231.977
214.87
197.442
180.031
162.814
145.826
129.008
112.304
95.6856
79.2363
63.288
48.6326
36.0435
25.5125
16.7825
9.81483
4.67737
1.34349
-0.272427
-0.25233
1.39348
4.69306
224.57
244.522
259.472
268.741
272.236
270.374
263.999
254.125
241.647
227.364
211.951
195.886
179.524
163.091
146.691
130.336
114.02
97.7569
81.6482
66.0089
51.5145
38.8677
28.1809
19.2744
12.1144
6.76511
3.2126
1.37341
1.17052
2.60061
5.70569
211.779
230.21
244.408
253.628
257.737
257.143
252.491
244.574
234.096
221.701
207.968
193.32
178.098
162.559
146.851
131.047
115.19
99.3339
83.6016
68.2942
53.9975
41.3503
30.549
21.4891
14.1476
8.58829
4.81157
2.75251
2.346
3.59751
6.5536
199.432
216.602
230.124
239.226
243.784
244.17
240.906
234.633
225.911
215.255
203.144
189.936
175.942
161.417
146.533
131.404
116.113
100.75
85.4542
70.5174
56.4641
43.8771
33.0101
23.8308
16.3343
10.5867
6.6043
4.33812
3.73114
4.79267
7.57543
169.117
187.655
203.756
216.661
225.598
230.47
231.611
229.46
224.553
217.344
208.248
197.652
185.847
173.101
159.649
145.668
131.294
116.644
101.833
87.0184
72.4846
58.7109
46.234
35.3447
26.0755
18.4445
12.5226
8.3407
5.86712
5.05675
5.92678
8.53684
176.509
191.676
204.014
212.753
217.831
219.549
218.288
214.505
208.587
200.865
191.655
181.184
169.672
157.322
144.303
130.758
116.821
102.628
88.3476
74.259
60.809
48.4973
37.637
28.3159
20.5794
14.5055
10.1401
7.47
6.46175
7.13894
9.56858
180.341
192.148
200.671
205.871
208.026
207.471
204.614
199.785
193.261
185.297
176.067
165.743
154.492
142.463
129.794
116.625
103.103
89.4024
75.7962
62.7096
50.6119
39.828
30.4915
22.6762
16.4706
11.9352
9.07521
7.87151
8.35499
10.6008
181.02
189.316
194.572
197.053
197.061
194.961
191.049
185.558
178.7
170.606
161.403
151.224
140.19
128.425
116.066
103.261
90.1829
77.0986
64.4161
52.5813
41.9228
32.6109
24.7484
18.4359
13.7486
10.7106
9.31781
9.60801
11.6647
178.646
183.909
186.629
187.082
185.601
182.456
177.853
171.967
164.898
156.738
147.584
137.53
126.679
115.154
103.099
90.6792
78.1531
65.9131
54.3857
43.8996
34.6526
26.7745
20.3803
15.5598
12.3556
10.7798
10.8777
12.7414
173.852
176.744
177.546
176.57
174.066
170.22
165.184
159.031
151.827
143.64
134.533
124.587
113.908
102.624
90.892
78.9561
67.1942
56.0169
45.7488
36.6076
28.7477
22.2993
17.3667
14.0107
12.2604
12.1683
13.8356
167.375
168.452
167.886
165.918
162.718
158.419
153.08
146.743
139.454
131.25
122.186
112.349
101.848
90.8244
79.5049
68.2525
57.4639
47.4568
38.4619
30.6547
24.1807
19.1584
15.6665
13.751
13.4724
14.9405
158.504
159.794
159.562
158.04
155.388
151.727
147.105
141.55
135.086
127.73
119.515
110.504
100.786
90.4821
79.7998
69.0852
58.72
49.0137
40.2045
32.4848
26.0148
20.927
17.3166
15.247
14.7867
16.0536
151.56
151.598
150.449
148.262
145.152
141.159
136.303
130.591
124.024
116.615
108.404
99.4583
89.8771
79.8455
69.6905
59.7791
50.4099
41.8241
34.2267
27.791
22.6628
18.9529
16.7415
16.1055
17.1702
143.737
143.995
143.155
141.363
138.727
135.285
131.049
126.017
120.177
113.524
106.079
97.8875
89.0239
79.6493
70.0703
60.6378
51.6381
43.3109
35.8695
29.4988
24.3561
20.5671
18.2276
17.4234
18.2859
136.743
136.162
134.705
132.478
129.516
125.829
121.408
116.233
110.284
103.564
96.0981
87.9383
79.2208
70.2291
61.2953
52.6927
44.6562
37.4034
31.1277
25.9973
22.1503
19.6976
18.7341
19.3956
129.837
129.47
128.298
126.423
123.879
120.676
116.802
112.229
106.93
100.89
94.1171
86.6412
78.5739
70.1734
61.7525
53.5699
45.8527
38.819
32.6679
27.5762
23.6936
21.1438
20.0311
20.494
123.265
123.077
122.147
120.574
118.394
115.617
112.23
108.202
103.496
98.0892
91.9719
85.1544
77.7234
69.912
62.0128
54.2681
46.8949
40.1081
34.1099
29.0834
25.1877
22.5579
21.3073
21.5757
116.978
116.253
114.94
113.077
110.675
107.72
104.18
100.015
95.1924
89.6895
83.4994
76.6856
69.4564
62.0821
54.788
47.7789
41.264
35.4451
30.5094
26.6232
23.9314
22.5553
22.6347
111.164
110.616
109.526
107.939
105.865
103.292
100.189
96.5141
92.2276
87.2966
81.6997
75.4797
68.8198
61.968
55.1321
48.5027
42.2809
36.6656
31.8451
27.9911
25.2557
23.7675
23.6651
105.23
104.334
102.987
101.2
98.9656
96.2527
93.0187
89.2208
84.8186
79.7785
74.1247
68.0167
61.68
55.3044
49.0662
43.1551
37.7646
33.0824
29.2825
26.522
24.9361
24.6605
100.092
99.3636
98.2247
96.6905
94.7543
92.3877
89.5498
86.1955
82.2789
77.7575
72.6399
67.0624
61.2292
55.3116
49.4706
43.8839
38.737
34.2138
30.4888
27.7222
26.0533
25.6149
95.1956
94.6121
93.6548
92.3415
90.6682
88.6093
86.1256
83.1721
79.6991
75.658
71.0438
65.9729
60.6274
55.1612
49.7193
44.4665
39.5782
35.2327
31.6023
28.848
27.1115
26.5218
90.0757
89.277
88.1576
86.7158
84.9294
82.7617
80.1684
77.099
73.5001
69.3564
64.765
59.888
54.862
49.8173
44.9037
40.2858
36.1337
32.616
29.8917
28.1033
27.3753
85.7498
85.0897
84.1401
82.9022
81.3569
79.4702
77.1999
74.4963
71.3025
67.5951
63.4546
59.0243
54.4245
49.7703
45.1976
40.8581
36.9129
33.5235
30.8462
29.0219
28.1696
81.6283
81.0893
80.2888
79.2304
77.898
76.2611
74.2801
71.906
69.0813
65.7766
62.0574
58.0498
53.8592
49.5861
45.352
41.2956
37.567
34.3201
31.7051
29.8605
28.899
77.2722
76.6027
75.702
74.5575
73.1422
71.4189
69.341
66.8515
63.9165
60.5887
56.9786
53.1776
49.2727
45.3716
41.5996
38.0948
35.0017
32.4633
30.6133
29.5583
73.6332
73.0787
72.3169
71.3382
70.119
68.6253
66.8128
64.6263
62.0288
59.0628
55.824
52.3912
48.8394
45.2626
41.7728
38.4959
35.5655
33.1164
31.2755
30.1431
69.7133
69.0739
68.2414
67.1955
65.9056
64.3303
62.4168
60.1266
57.4928
54.5987
51.5118
48.2957
45.0319
41.8194
38.7715
36.0104
33.6611
31.8428
30.6494
66.5024
65.9703
65.2669
64.3741
63.2649
61.9011
60.2325
58.2207
55.8909
53.3149
50.5506
47.6514
44.6872
41.7444
38.9239
36.3361
34.0954
32.3122
31.0737
63.4407
63.0035
62.4133
61.6557
60.7064
59.5306
58.0813
56.3206
54.2677
51.9841
49.5188
46.9166
44.2367
41.5539
38.9567
36.5439
34.4186
32.6816
31.4136
60.1695
59.679
59.0404
58.2322
57.2233
55.9698
54.435
52.6331
50.6166
48.4269
46.1011
43.689
41.2545
38.8745
36.636
34.631
32.9503
31.6673
57.4639
57.0611
56.5271
55.8435
54.982
53.903
52.5709
50.9955
49.2219
47.2849
45.2148
43.0531
40.8538
38.6829
36.6161
34.7344
33.1184
31.8341
54.8822
54.5564
54.1144
53.5402
52.8092
51.8848
50.7338
49.3622
47.8086
46.102
44.267
42.3378
40.3594
38.3881
36.4888
34.7316
33.1871
31.914
52.1611
51.7996
51.3219
50.7056
49.9182
48.9285
47.7396
46.3843
44.8867
43.2666
41.5519
39.7797
37.9972
36.2594
34.6263
33.1588
31.9081
49.8713
49.5803
49.1869
48.6717
48.0053
47.1587
46.133
44.9556
43.6467
42.2221
40.7039
39.1228
37.5176
35.9342
34.4234
33.0368
47.6826
47.4533
47.1337
46.707
46.1472
45.4273
44.5468
43.5286
42.3893
41.1413
39.8024
38.397
36.957
35.5201
34.1285
32.8251
45.4153
45.16
44.8108
44.3444
43.7365
42.9847
42.1082
41.1207
40.0317
38.8552
37.6106
36.3234
35.0243
33.7477
32.5287
43.4628
43.2634
42.9816
42.5971
42.0876
41.4497
40.6988
39.8466
38.9
37.8699
36.7715
35.6248
34.4545
33.2878
32.1532
41.5922
41.4413
41.2181
40.905
40.4817
39.944
39.3044
38.572
37.7525
36.8537
35.8874
34.8692
33.8182
32.756
31.7046
39.6907
39.5183
39.2673
38.9195
38.4696
37.9278
37.3015
36.5947
35.8132
34.9658
34.0643
33.1234
32.1594
31.1893
38.0092
37.8805
37.6832
37.4009
37.028
36.572
36.039
35.4318
34.7546
34.0136
33.2177
32.3777
31.5056
30.614
36.3937
36.3025
36.1515
35.9261
35.6201
35.2392
34.788
34.2685
33.6836
33.0375
32.3365
31.5885
30.8019
29.9854
34.7823
34.6711
34.4948
34.2468
33.9312
33.5514
33.1089
32.6053
32.0434
31.4276
30.763
30.0554
29.3103
33.3179
33.2406
33.1066
32.9087
32.6496
32.3321
31.9568
31.5246
31.0372
30.4973
29.9081
29.2731
28.5953
31.9072
31.8588
31.7608
31.606
31.3958
31.1322
30.8154
30.4457
30.024
29.5515
29.0302
28.4616
27.8468
30.5482
30.5241
30.4568
30.339
30.1708
29.9536
29.6876
29.3725
29.0084
28.5958
28.1352
27.6271
27.071
29.2354
29.1939
29.1076
28.9754
28.7982
28.5761
28.3084
27.9947
27.635
27.2287
26.7755
26.2736
27.9911
27.9714
27.9117
27.8102
27.6673
27.4829
27.2564
26.9868
26.6735
26.3158
25.9121
25.4602
26.7901
26.7886
26.7513
26.6757
26.5621
26.4102
26.2191
25.9879
25.7155
25.4008
25.0418
25.631
25.6445
25.6259
25.5723
25.4836
25.3594
25.1989
25.0011
24.7646
24.4879
24.169
24.5383
24.5353
24.5001
24.4324
24.3319
24.1978
24.0288
23.8237
23.5808
23.2978
23.4693
23.4791
23.4592
23.4093
23.3289
23.2173
23.0734
22.8957
22.6826
22.4317
22.4366
22.4568
22.4496
22.4146
22.3513
22.2591
22.1367
21.983
21.7961
21.5739
21.4394
21.468
21.4713
21.4487
21.3998
21.3241
21.2204
21.0875
20.9237
20.727
20.4769
20.5122
20.524
20.5117
20.475
20.4134
20.3258
20.211
20.0676
19.8935
19.5887
19.6075
19.6038
19.5773
19.5277
19.4539
19.3549
19.2294
19.0755
18.6971
18.7215
18.7247
18.7069
18.6675
18.6056
18.5204
18.4106
18.2746
17.8366
17.8654
17.8745
17.8639
17.8331
17.7816
17.7084
17.6125
17.0065
17.0388
17.0527
17.0481
17.0248
16.9822
16.9195
16.8358
16.2062
16.2413
16.2591
16.2597
16.2428
16.2079
16.1545
16.0815
15.4349
15.4722
15.4933
15.4983
15.487
15.459
15.4137
15.3504
14.7308
14.7547
14.7636
14.7572
14.7352
14.6973
14.6426
14.0177
14.0441
14.0563
14.0543
14.0378
14.0064
13.9595
13.4411
13.4702
13.4855
13.4871
13.4746
13.4477
13.4062
12.9616
12.9938
13.0122
13.0168
13.0074
12.9839
12.946
12.469
12.5044
12.5259
12.5337
12.5277
12.5078
12.4736
11.9648
12.0036
12.0284
12.0395
12.037
12.0208
11.9908
11.4517
11.4941
11.5225
11.5372
11.5384
11.526
10.9293
10.976
11.0089
11.0284
11.0344
11.0272
10.4002
10.4503
10.4867
10.5099
10.5202
10.5179
9.94059
9.98354
10.0124
10.0273
10.0283
9.37644
9.4326
9.47775
9.51185
9.53467
8.83729
8.87406
8.89525
8.90225
8.8965
8.73266
8.86027
8.97464
9.07487
9.15896
6.2884
6.27951
6.2657
6.24666
6.22611
11.5834
11.8426
12.0674
12.2619
12.4193
)
;

boundaryField
{
    inlet
    {
        type            freestreamPressure;
        freestreamValue uniform 0;
        value           nonuniform List<scalar> 5(6.54485 6.68958 6.81494 6.92321 7.01054);
    }
    outlet
    {
        type            freestreamPressure;
        freestreamValue nonuniform List<scalar> 0();
        value           nonuniform List<scalar> 0();
    }
    walls
    {
        type            zeroGradient;
    }
    frontAndBack
    {
        type            empty;
    }
    procBoundary1to0
    {
        type            processor;
        value           nonuniform List<scalar> 
94
(
159.228
159.228
166.003
166.003
169.714
169.714
170.585
170.585
168.62
168.62
164.368
164.368
155.424
150.108
150.108
142.162
136.309
136.309
129.261
122.575
117.016
117.016
111.079
105.629
105.629
100.364
95.3588
90.5335
90.5335
86.0987
81.8829
77.7053
77.7053
73.9734
70.1669
70.1669
66.8671
63.7275
60.5234
60.5234
57.7448
55.0989
52.4194
52.4194
50.0705
47.8305
45.591
45.591
43.5919
41.681
39.7999
39.7999
38.0824
36.4362
34.8415
34.8415
33.3499
31.9163
30.5382
29.2391
29.2391
27.978
26.7631
25.5928
24.5127
24.5127
23.4338
22.3932
21.3899
20.4227
19.5482
19.5482
18.6526
17.789
16.9567
16.1548
15.3823
14.6915
14.6915
13.977
13.398
12.9152
12.4191
11.9116
11.3947
10.8681
10.3355
9.88335
9.88335
9.30915
8.78327
8.59326
6.29341
11.268
)
;
    }
    procBoundary1to2
    {
        type            processor;
        value           nonuniform List<scalar> 
84
(
6.96862
7.87087
8.57893
9.25522
9.99178
10.836
11.5581
12.4185
13.2192
14.074
14.9215
15.7882
16.6579
17.5344
18.4119
19.2885
20.1605
21.0246
21.8773
22.7148
23.5333
24.3289
25.0977
25.8356
26.5387
27.203
27.8244
28.3993
28.9239
29.3946
29.8083
30.162
30.4531
30.6794
30.8392
30.9313
30.9551
30.9105
31.8182
31.8182
31.647
31.398
31.0752
30.6833
30.2274
29.713
29.1458
28.5315
27.8761
27.1853
26.4648
25.7201
24.9562
24.6357
24.6357
23.8048
22.9716
22.1399
21.3131
20.4942
19.6859
18.8904
18.1097
17.4922
17.4922
16.7297
15.988
15.2681
14.5704
13.8964
13.3492
12.8931
12.425
11.9467
11.5001
11.5001
11.0066
10.5031
10.016
9.54585
8.87985
9.22414
6.20897
12.536
)
;
    }
    procBoundary1to5
    {
        type            processor;
        value           nonuniform List<scalar> 
13
(
330.179
330.179
300.267
288.457
288.457
250.079
237.501
237.501
200.747
190.042
179.43
179.43
148.297
)
;
    }
}


// ************************************************************************* //
