/*--------------------------------*- C++ -*----------------------------------*\
| =========                 |                                                 |
| \\      /  F ield         | OpenFOAM: The Open Source CFD Toolbox           |
|  \\    /   O peration     | Version:  2506                                  |
|   \\  /    A nd           | Website:  www.openfoam.com                      |
|    \\/     M anipulation  |                                                 |
\*---------------------------------------------------------------------------*/
FoamFile
{
    version     2.0;
    format      ascii;
    arch        "LSB;label=32;scalar=64";
    class       volScalarField;
    location    "500";
    object      turbulenceProperties:I;
}
// * * * * * * * * * * * * * * * * * * * * * * * * * * * * * * * * * * * * * //

dimensions      [0 0 0 0 0 0 0];

internalField   nonuniform List<scalar> 
1340
(
0.0170031
0.013481
0.00874222
0.00732141
0.00706285
0.0073137
0.00787058
0.00865658
0.00966578
0.0109378
0.0125664
0.0146964
0.0175308
0.021403
0.0267188
0.034406
0.0453583
0.0627105
0.0884409
0.130981
0.186828
0.221537
0.234699
0.238639
0.240294
0.241518
0.242567
0.243552
0.00583363
0.0071565
0.00638396
0.00446762
0.0031363
0.00234222
0.00183756
0.00148994
0.00123536
0.00104034
0.000884558
0.000756305
0.000645139
0.000542906
0.00043867
0.000325449
0.000185339
7.26339e-05
0.000113085
0.00129856
0.00295739
0.00830061
0.0151197
0.0210815
0.0257812
0.0293932
0.0322556
0.0347429
0.0371134
0.0040558
0.00446455
0.00424683
0.00349845
0.00272198
0.00212257
0.00168591
0.0013638
0.00112245
0.000937901
0.000796152
0.000687096
0.000604311
0.000541307
0.000494058
0.000459234
0.000434768
0.000416872
0.000406312
0.000396893
0.000402786
0.000306689
0.000797247
0.00202965
0.00340327
0.00491186
0.0073479
0.0106612
0.0142957
0.00268423
0.00299088
0.00316901
0.00308219
0.00273175
0.00229091
0.00189353
0.00157481
0.00132674
0.00113409
0.000982734
0.000862989
0.000767319
0.00069043
0.000627383
0.000575234
0.000530989
0.000491939
0.000454113
0.000417905
0.000387944
0.000364826
0.00034767
0.000328742
0.00030556
0.000263522
0.000208682
0.000577711
0.000760848
0.0014549
0.00216722
0.00233681
0.00242972
0.00238877
0.00220553
0.00194531
0.00167728
0.00143624
0.00123099
0.00105995
0.000918155
0.000800785
0.000703743
0.000623712
0.000557501
0.000502694
0.000456838
0.00041754
0.000381148
0.000345827
0.00031354
0.000287147
0.000267936
0.000258181
0.000246279
0.0002709
0.000131336
0.000335021
0.000725679
0.00115186
0.00167237
0.00179421
0.00189739
0.00195253
0.00193041
0.00182472
0.00166315
0.00148159
0.00130499
0.00114525
0.00100615
0.000887389
0.000787038
0.000702785
0.000632272
0.000573102
0.000523115
0.000480103
0.000441876
0.000405651
0.000370119
0.000337002
0.000307843
0.00028286
0.000261387
0.000243094
0.0002271
0.000212384
0.00019017
0.000159717
2.29126e-05
0.0014348
0.00151694
0.00158484
0.00162034
0.00160709
0.00154194
0.00143748
0.00131253
0.00118287
0.00105844
0.000944391
0.000842583
0.000753082
0.000675261
0.000608071
0.000550142
0.000500117
0.000456486
0.000417562
0.000381171
0.000345997
0.000313021
0.000283551
0.000257947
0.000235845
0.000217199
0.000202698
0.000192981
0.000187174
0.000178299
0.000155058
0.00124698
0.00130454
0.00135163
0.00137584
0.00136745
0.00132513
0.00125489
0.00116713
0.00107157
0.000975475
0.000883652
0.000798742
0.00072184
0.000653341
0.000593006
0.000540135
0.000493783
0.000452811
0.00041585
0.000381219
0.000347911
0.000316634
0.000288358
0.000263263
0.000240841
0.000220654
0.000202611
0.000186478
0.000172007
0.000159004
0.000149922
0.00104972
0.00109556
0.00113744
0.00117135
0.00118856
0.00118306
0.00115439
0.00110567
0.00104282
0.000971823
0.000897652
0.000824097
0.000753652
0.000687812
0.000627408
0.000572726
0.00052363
0.000479668
0.000440111
0.000403971
0.000370064
0.000337636
0.000307102
0.000279292
0.00025447
0.000232317
0.000212532
0.000195133
0.000180437
0.000168807
0.000160562
0.000156049
0.000971484
0.00100287
0.00102799
0.00104057
0.00103692
0.00101684
0.000982102
0.000936258
0.000882996
0.000825595
0.000766898
0.000708976
0.00065326
0.000600814
0.000552185
0.000507586
0.000466911
0.000429743
0.000395419
0.000363133
0.000332318
0.000303283
0.000276687
0.00025276
0.000231227
0.000211767
0.000194283
0.000178803
0.000165295
0.00015425
0.000146066
0.000892351
0.000911368
0.000920775
0.000918315
0.000903893
0.000878528
0.000844488
0.000804118
0.000759558
0.000712773
0.000665355
0.000618522
0.000573274
0.000530308
0.00049001
0.000452484
0.000417591
0.000384945
0.000354031
0.00032451
0.00029663
0.000270908
0.000247585
0.000226498
0.00020742
0.000190319
0.000175337
0.000162691
0.000152901
0.000146253
0.000814708
0.000821882
0.000820195
0.00080957
0.000790687
0.000765029
0.000734114
0.000699302
0.000661986
0.000623295
0.000584152
0.000545437
0.000507799
0.00047174
0.000437524
0.000405181
0.000374509
0.000345232
0.00031723
0.000290712
0.000266099
0.000243624
0.000223187
0.000204609
0.000187841
0.00017298
0.000160131
0.000149751
0.000142328
0.000738893
0.000737705
0.000729732
0.000715426
0.000695792
0.000671857
0.000644523
0.000614678
0.000583122
0.000550533
0.000517602
0.00048489
0.000452874
0.00042189
0.000392081
0.000363415
0.000335814
0.000309292
0.000284078
0.000260516
0.000238833
0.000218996
0.000200883
0.000184474
0.000169899
0.000157326
0.000147215
0.000140054
0.000667427
0.000661325
0.000650303
0.000635093
0.000616387
0.000594759
0.000570831
0.000545101
0.000518026
0.000490133
0.000461873
0.000433658
0.000405811
0.000378556
0.000351972
0.000326135
0.000301168
0.000277306
0.000254862
0.000234052
0.000214889
0.000197301
0.000181285
0.000166969
0.000154495
0.000144294
0.00013686
0.000602112
0.000593503
0.000581561
0.000566789
0.000549569
0.000530291
0.000509289
0.000486837
0.000463288
0.000438979
0.000414246
0.000389399
0.000364672
0.000340199
0.000316124
0.000292689
0.000270175
0.000248856
0.000228931
0.000210454
0.000193399
0.000177784
0.000163746
0.000151442
0.000141299
0.000133791
0.000550387
0.000543562
0.000534089
0.00052232
0.000508501
0.000492906
0.000475707
0.000457083
0.000437245
0.00041642
0.000394859
0.000372813
0.00035051
0.000328112
0.000305833
0.000283963
0.00026281
0.000242627
0.000223615
0.000205856
0.000189362
0.000174168
0.000160417
0.000148262
0.000138111
0.000130427
0.000499378
0.000491767
0.000482293
0.00047113
0.000458441
0.000444328
0.00042886
0.000412171
0.00039438
0.000375666
0.000356214
0.00033621
0.000315826
0.000295309
0.000274992
0.000255182
0.000236141
0.000218057
0.000201034
0.000185115
0.000170355
0.000156898
0.000144901
0.000134762
0.000126922
0.000460036
0.000453858
0.000446165
0.000437072
0.00042669
0.00041506
0.000402193
0.000388149
0.000372982
0.000356784
0.000339694
0.000321862
0.00030343
0.000284626
0.000265808
0.000247331
0.000229432
0.000212288
0.000196017
0.000180691
0.000166377
0.00015322
0.000141381
0.000131236
0.000123212
0.000419751
0.000413445
0.00040598
0.000397431
0.000387806
0.000377076
0.000365247
0.000352326
0.000338352
0.00032339
0.000307544
0.000290934
0.000273793
0.000256468
0.0002393
0.000222526
0.00020632
0.000190809
0.000176084
0.000162224
0.000149371
0.000137691
0.000127535
0.000119316
0.00038894
0.000383717
0.000377544
0.000370461
0.000362454
0.000353478
0.000343503
0.000332493
0.000320445
0.000307388
0.000293371
0.000278473
0.000262907
0.000247011
0.000231111
0.000215441
0.000200169
0.000185424
0.000171308
0.000157911
0.000145367
0.000133844
0.000123667
0.000115235
0.000361001
0.000356638
0.000351489
0.000345581
0.000338885
0.000331343
0.000322912
0.00031353
0.000303154
0.000291771
0.000279404
0.000266098
0.000252019
0.000237475
0.000222797
0.000208208
0.00019386
0.00017988
0.000166376
0.000153445
0.00014121
0.000129843
0.000119633
0.00011097
0.000331909
0.000327575
0.000322607
0.000316977
0.000310616
0.000303465
0.000295453
0.000286517
0.000276614
0.000265723
0.000253861
0.000241163
0.000227913
0.000214411
0.000200866
0.000187421
0.000174196
0.000161302
0.000148837
0.000136915
0.000125698
0.000115443
0.000106529
0.000309263
0.000305587
0.000301384
0.000296615
0.00029122
0.000285137
0.00027828
0.000270573
0.000261957
0.000252384
0.000241836
0.000230418
0.000218376
0.000205991
0.000193444
0.000180875
0.000168395
0.000156108
0.000144108
0.000132499
0.000121427
0.000111115
0.000101925
0.000285339
0.000281748
0.000277684
0.000273086
0.000267888
0.000262004
0.000255351
0.000247854
0.000239444
0.00023008
0.00021983
0.000208909
0.000197566
0.000185979
0.000174257
0.000162503
0.000150816
0.000139279
0.000127981
0.000117052
0.00010667
9.71778e-05
0.000266661
0.000263573
0.000260083
0.000256139
0.000251677
0.000246612
0.000240853
0.00023432
0.000226931
0.000218626
0.000209442
0.00019956
0.000189195
0.000178513
0.000167601
0.000156554
0.000145453
0.000134374
0.000123387
0.000112597
0.000102137
9.2308e-05
0.000249408
0.000246729
0.000243714
0.000240311
0.000236458
0.000232079
0.000227084
0.000221383
0.000214885
0.000207515
0.000199289
0.000190356
0.000180907
0.000171073
0.000160936
0.00015057
0.000140043
0.000129418
0.000118742
0.000108088
9.75422e-05
8.73467e-05
0.000231108
0.000228481
0.000225525
0.000222186
0.000218382
0.000214032
0.000209046
0.000203328
0.000196787
0.000189425
0.000181357
0.000172749
0.000163711
0.000154306
0.000144592
0.000134624
0.000124445
0.000114081
0.000103568
9.29325e-05
8.23365e-05
0.00021661
0.000214306
0.000211721
0.000208806
0.000205488
0.000201686
0.000197312
0.000192269
0.00018646
0.000179869
0.000172586
0.00016475
0.000156451
0.000147737
0.000138648
0.000129224
0.000119488
0.000109439
9.90777e-05
8.83595e-05
7.73347e-05
0.000203143
0.000201106
0.000198832
0.000196272
0.000193363
0.000190027
0.00018618
0.000181723
0.000176556
0.00017065
0.000164072
0.000156944
0.000149332
0.000141268
0.000132777
0.00012388
0.000114583
0.000104858
9.46647e-05
8.38824e-05
7.24167e-05
0.000188811
0.000186795
0.000184538
0.000181975
0.000179035
0.000175638
0.000171688
0.000167084
0.000161788
0.00015585
0.000149364
0.000142386
0.000134931
0.00012701
0.000118625
0.000109766
0.000100378
9.03801e-05
7.95755e-05
6.7689e-05
0.000177357
0.00017556
0.000173555
0.000171285
0.000168683
0.000165674
0.000162166
0.000158056
0.000153299
0.000147934
0.000142035
0.000135642
0.000128758
0.000121379
0.000113494
0.000105073
9.60445e-05
8.62823e-05
7.55222e-05
6.32894e-05
0.000165071
0.000163281
0.00016126
0.000158949
0.000156276
0.000153149
0.000149473
0.000145196
0.000140344
0.000134979
0.000129125
0.000122775
0.000115914
0.000108519
0.000100544
9.18967e-05
8.24247e-05
7.18066e-05
5.93869e-05
0.000155279
0.000153674
0.000151867
0.000149805
0.000147418
0.000144626
0.000141332
0.000137483
0.000133094
0.000128213
0.000122856
0.000117008
0.000110644
0.000103728
9.62062e-05
8.79735e-05
7.8859e-05
6.85135e-05
5.61681e-05
0.000146138
0.00014469
0.000143069
0.000141223
0.000139091
0.00013659
0.00013363
0.00013016
0.000126187
0.00012175
0.000116855
0.000111478
0.000105589
9.91464e-05
9.20887e-05
8.43069e-05
7.56255e-05
6.57045e-05
5.37835e-05
0.000136296
0.000134836
0.000133177
0.000131264
0.00012902
0.000126361
0.00012323
0.000119633
0.000115599
0.000111131
0.000106199
0.000100769
9.4795e-05
8.82126e-05
8.09186e-05
7.27493e-05
6.34096e-05
5.22852e-05
0.000128453
0.000127133
0.00012564
0.000123921
0.000121904
0.000119509
0.000116684
0.000113428
0.000109766
0.000105695
0.000101183
9.61954e-05
9.06844e-05
8.45886e-05
7.78159e-05
7.02302e-05
6.1611e-05
5.15807e-05
0.000121125
0.000119931
0.000118585
0.000117036
0.000115222
0.000113065
0.000110514
0.00010757
0.00010425
0.000100548
9.64352e-05
9.18741e-05
8.68199e-05
8.12194e-05
7.49948e-05
6.80481e-05
6.02489e-05
5.14679e-05
0.000113199
0.000111982
0.000110588
0.000108955
0.000107012
0.000104711
0.00010205
9.90459e-05
9.5691e-05
9.19556e-05
8.78052e-05
8.32014e-05
7.80975e-05
7.24377e-05
6.61628e-05
5.92297e-05
5.17075e-05
0.000106907
0.000105808
0.000104551
0.000103081
0.000101331
9.92588e-05
9.68593e-05
9.41474e-05
9.11161e-05
8.77382e-05
8.3983e-05
7.98181e-05
7.52068e-05
7.01142e-05
6.45188e-05
5.84465e-05
0.000101026
0.000100034
9.89021e-05
9.75803e-05
9.60077e-05
9.41427e-05
9.19835e-05
8.95425e-05
8.68142e-05
8.37745e-05
8.0397e-05
7.66554e-05
7.25252e-05
6.7989e-05
6.30555e-05
5.77982e-05
9.46356e-05
9.36175e-05
9.24302e-05
9.10184e-05
8.93442e-05
8.74063e-05
8.52177e-05
8.27725e-05
8.00508e-05
7.70312e-05
7.36942e-05
7.00251e-05
6.60217e-05
6.17135e-05
5.71992e-05
8.95875e-05
8.86725e-05
8.76084e-05
8.63447e-05
8.48461e-05
8.31124e-05
8.11567e-05
7.89749e-05
7.65509e-05
7.3868e-05
7.09129e-05
6.76785e-05
6.4174e-05
6.04411e-05
5.65853e-05
8.48639e-05
8.40452e-05
8.30946e-05
8.19655e-05
8.06277e-05
7.90825e-05
7.73424e-05
7.54053e-05
7.3258e-05
7.08884e-05
6.82883e-05
6.54574e-05
6.2411e-05
5.91958e-05
5.59127e-05
7.97128e-05
7.88645e-05
7.78597e-05
7.66707e-05
7.52986e-05
7.37569e-05
7.20449e-05
7.01527e-05
6.80721e-05
6.57986e-05
6.33362e-05
6.07035e-05
5.79465e-05
5.51552e-05
7.56525e-05
7.49001e-05
7.40091e-05
7.29557e-05
7.17423e-05
7.03823e-05
6.88766e-05
6.72182e-05
6.54013e-05
6.34244e-05
6.1294e-05
5.90296e-05
5.66728e-05
5.43e-05
7.18461e-05
7.11801e-05
7.03926e-05
6.94634e-05
6.83955e-05
6.72016e-05
6.58838e-05
6.44372e-05
6.28585e-05
6.11481e-05
5.93134e-05
5.73728e-05
5.53626e-05
5.33442e-05
6.76863e-05
6.69941e-05
6.61776e-05
6.52417e-05
6.41983e-05
6.30503e-05
6.17945e-05
6.04292e-05
5.89559e-05
5.73818e-05
5.57236e-05
5.40111e-05
5.22923e-05
6.44019e-05
6.37956e-05
6.30819e-05
6.22654e-05
6.13577e-05
6.03621e-05
5.92767e-05
5.81008e-05
5.68364e-05
5.54902e-05
5.40762e-05
5.2618e-05
5.11525e-05
6.13103e-05
6.07823e-05
6.01613e-05
5.9452e-05
5.86657e-05
5.7806e-05
5.68716e-05
5.58624e-05
5.47808e-05
5.36323e-05
5.24282e-05
5.11867e-05
4.99351e-05
5.83968e-05
5.79387e-05
5.74008e-05
5.67875e-05
5.61094e-05
5.53697e-05
5.4568e-05
5.37048e-05
5.27817e-05
5.18036e-05
5.07791e-05
4.97217e-05
4.86511e-05
5.5251e-05
5.47871e-05
5.42587e-05
5.36754e-05
5.3041e-05
5.23552e-05
5.16183e-05
5.08319e-05
4.99999e-05
4.91284e-05
4.82271e-05
4.73099e-05
5.27046e-05
5.23052e-05
5.1851e-05
5.13508e-05
5.08078e-05
5.0222e-05
4.95936e-05
4.89243e-05
4.82167e-05
4.74751e-05
4.67061e-05
4.59192e-05
5.02839e-05
4.99407e-05
4.95505e-05
4.91215e-05
4.86568e-05
4.81565e-05
4.7621e-05
4.70512e-05
4.64491e-05
4.58174e-05
4.51606e-05
4.79737e-05
4.76778e-05
4.73419e-05
4.69736e-05
4.65754e-05
4.61476e-05
4.56907e-05
4.52051e-05
4.46921e-05
4.41535e-05
4.35918e-05
4.55021e-05
4.52121e-05
4.48948e-05
4.45526e-05
4.4186e-05
4.37955e-05
4.33811e-05
4.29436e-05
4.24838e-05
4.20028e-05
4.3403e-05
4.31512e-05
4.2877e-05
4.25824e-05
4.22679e-05
4.19337e-05
4.15798e-05
4.12064e-05
4.08136e-05
4.04016e-05
4.13753e-05
4.11566e-05
4.09195e-05
4.06661e-05
4.03965e-05
4.01107e-05
3.98086e-05
3.94901e-05
3.91547e-05
3.8802e-05
3.9422e-05
3.92329e-05
3.9029e-05
3.88119e-05
3.85816e-05
3.8338e-05
3.80809e-05
3.78097e-05
3.75236e-05
3.72219e-05
3.75518e-05
3.739e-05
3.72159e-05
3.70311e-05
3.68354e-05
3.66284e-05
3.64099e-05
3.61793e-05
3.59354e-05
3.56773e-05
3.56343e-05
3.54864e-05
3.53292e-05
3.51627e-05
3.49866e-05
3.48004e-05
3.46036e-05
3.43951e-05
3.41737e-05
3.39614e-05
3.38339e-05
3.36983e-05
3.35545e-05
3.34025e-05
3.32419e-05
3.30721e-05
3.28924e-05
3.27015e-05
3.23519e-05
3.22375e-05
3.21161e-05
3.1988e-05
3.18532e-05
3.17115e-05
3.15626e-05
3.14055e-05
3.07782e-05
3.06701e-05
3.05565e-05
3.04378e-05
3.03145e-05
3.01864e-05
3.00532e-05
2.99142e-05
2.92213e-05
2.91144e-05
2.90041e-05
2.88909e-05
2.87752e-05
2.86569e-05
2.85356e-05
2.8411e-05
2.76813e-05
2.75736e-05
2.74647e-05
2.73549e-05
2.72446e-05
2.71337e-05
2.7022e-05
2.69096e-05
2.60662e-05
2.59576e-05
2.58497e-05
2.57431e-05
2.56376e-05
2.55338e-05
2.54308e-05
2.46369e-05
2.45277e-05
2.44206e-05
2.43159e-05
2.42143e-05
2.41159e-05
2.40199e-05
2.34069e-05
2.32964e-05
2.31883e-05
2.30831e-05
2.29821e-05
2.28847e-05
2.27914e-05
2.23811e-05
2.22707e-05
2.21618e-05
2.20557e-05
2.19528e-05
2.18538e-05
2.17599e-05
2.14161e-05
2.1307e-05
2.11988e-05
2.10923e-05
2.09879e-05
2.08873e-05
2.07911e-05
2.04533e-05
2.03432e-05
2.0233e-05
2.01232e-05
2.00158e-05
1.99122e-05
1.9813e-05
1.95151e-05
1.93977e-05
1.92768e-05
1.91539e-05
1.9032e-05
1.89132e-05
1.85565e-05
1.84234e-05
1.82851e-05
1.81433e-05
1.80003e-05
1.78578e-05
1.74174e-05
1.72221e-05
1.70205e-05
1.6818e-05
1.66204e-05
1.64325e-05
1.57371e-05
1.54179e-05
1.5077e-05
1.47202e-05
1.4355e-05
1.39588e-05
1.35987e-05
1.32584e-05
1.29537e-05
1.27011e-05
1.38756e-05
1.36448e-05
1.34679e-05
1.33432e-05
1.3265e-05
1.87951e-05
1.94791e-05
2.0122e-05
2.07145e-05
2.12484e-05
2.89529e-05
2.91966e-05
2.9388e-05
2.95293e-05
2.96282e-05
4.03707e-05
4.0628e-05
4.08161e-05
4.09395e-05
4.10104e-05
)
;

boundaryField
{
    inlet
    {
        type            calculated;
        value           nonuniform List<scalar> 5(7.09796e-05 7.19579e-05 7.28273e-05 7.35932e-05 7.42604e-05);
    }
    outlet
    {
        type            calculated;
        value           nonuniform List<scalar> 0();
    }
    walls
    {
        type            calculated;
        value           uniform 0;
    }
    frontAndBack
    {
        type            empty;
    }
    procBoundary1to0
    {
        type            processor;
        value           nonuniform List<scalar> 
94
(
0.000936857
0.000936857
0.000868259
0.000868259
0.000800049
0.000800049
0.000733342
0.000733342
0.000668295
0.000668295
0.000606867
0.000606867
0.000554155
0.000504857
0.000504857
0.000464494
0.000424825
0.000424825
0.000393152
0.000364541
0.000335594
0.000335594
0.000312407
0.000288491
0.000288491
0.000269383
0.000251785
0.000233454
0.000233454
0.000218679
0.000204982
0.000190626
0.000190626
0.000178985
0.000166682
0.000166682
0.000156731
0.000147455
0.000137605
0.000137605
0.000129641
0.000122206
0.000114281
0.000114281
0.000107888
0.000101917
9.55306e-05
9.55306e-05
9.03944e-05
8.55895e-05
8.04448e-05
8.04448e-05
7.6304e-05
7.24236e-05
6.82728e-05
6.82728e-05
6.49157e-05
6.17585e-05
5.87859e-05
5.56462e-05
5.56462e-05
5.30448e-05
5.05762e-05
4.82255e-05
4.57583e-05
4.57583e-05
4.36259e-05
4.15699e-05
3.95912e-05
3.76971e-05
3.5772e-05
3.5772e-05
3.40798e-05
3.24581e-05
3.08795e-05
2.93228e-05
2.77851e-05
2.6175e-05
2.6175e-05
2.47477e-05
2.35198e-05
2.24927e-05
2.15246e-05
2.05617e-05
1.9628e-05
1.86827e-05
1.76004e-05
1.60297e-05
1.60297e-05
1.43263e-05
1.41559e-05
1.80634e-05
2.86676e-05
4.00353e-05
)
;
    }
    procBoundary1to2
    {
        type            processor;
        value           nonuniform List<scalar> 
84
(
0.244662
0.0396027
0.0179017
0.003395
0.00106571
0.000410577
5.58544e-05
0.000143865
0.00015778
0.000145231
0.000146271
0.000141067
0.000138545
0.000134819
0.000131378
0.000127547
0.000123591
0.000119405
0.000115028
0.00011045
0.000105676
0.000100707
9.55491e-05
9.02114e-05
8.46991e-05
7.90243e-05
7.32027e-05
6.72592e-05
6.12357e-05
5.5217e-05
4.93747e-05
4.40703e-05
3.99787e-05
3.79431e-05
3.81878e-05
3.99207e-05
4.21684e-05
4.43554e-05
5.20895e-05
5.20895e-05
5.24619e-05
5.27277e-05
5.28334e-05
5.27542e-05
5.24851e-05
5.2033e-05
5.14113e-05
5.06374e-05
4.97309e-05
4.87101e-05
4.75928e-05
4.63937e-05
4.51246e-05
4.44844e-05
4.44844e-05
4.30099e-05
4.1502e-05
3.99705e-05
3.84311e-05
3.6903e-05
3.54033e-05
3.39377e-05
3.24976e-05
3.12394e-05
3.12394e-05
2.97684e-05
2.82821e-05
2.67949e-05
2.53279e-05
2.39267e-05
2.27024e-05
2.16702e-05
2.06989e-05
1.97186e-05
1.87993e-05
1.87993e-05
1.77178e-05
1.62589e-05
1.39906e-05
1.25138e-05
1.3219e-05
2.17156e-05
2.96956e-05
4.10399e-05
)
;
    }
    procBoundary1to5
    {
        type            processor;
        value           nonuniform List<scalar> 
13
(
0.0101849
0.0101849
0.00439779
0.00342281
0.00342281
0.00237237
0.00197622
0.00197622
0.00155024
0.00134886
0.00118507
0.00118507
0.0010028
)
;
    }
}


// ************************************************************************* //
