/*--------------------------------*- C++ -*----------------------------------*\
| =========                 |                                                 |
| \\      /  F ield         | OpenFOAM: The Open Source CFD Toolbox           |
|  \\    /   O peration     | Version:  2506                                  |
|   \\  /    A nd           | Website:  www.openfoam.com                      |
|    \\/     M anipulation  |                                                 |
\*---------------------------------------------------------------------------*/
FoamFile
{
    version     2.0;
    format      ascii;
    arch        "LSB;label=32;scalar=64";
    class       pointScalarField;
    location    "22";
    object      streamFunction;
}
// * * * * * * * * * * * * * * * * * * * * * * * * * * * * * * * * * * * * * //

dimensions      [0 3 -1 0 0 0 0];

internalField   nonuniform List<scalar> 
882
(
0
0
0
0
0
0
0
0
0
0
0
0
0
0
0
0
0
0
0
0
0
0
0.000112933
0.000201371
0.000197261
7.8369e-05
-0.000191148
-0.000663298
-0.00136682
-0.00224273
-0.00312913
-0.00381962
-0.0041475
-0.00401667
-0.00335663
-0.00226742
-0.000959387
0.000223046
0.00092778
0.000913002
0.000413831
0
0
0.000169931
0.000159656
-0.000189891
-0.000985681
-0.0023134
-0.00418216
-0.00643555
-0.00874677
-0.0107265
-0.0120376
-0.0124554
-0.0118483
-0.0101749
-0.00756607
-0.00436928
-0.00121694
0.00104062
0.00167807
0.00089252
0
0
2.8296e-06
-0.000482875
-0.00169637
-0.00379345
-0.00679474
-0.0104892
-0.0144415
-0.0181279
-0.0210757
-0.0229225
-0.0234001
-0.0223958
-0.0198653
-0.0158916
-0.0108043
-0.00533468
-0.0007121
0.00159338
0.00117272
0
0
-0.000448799
-0.00186965
-0.00443127
-0.00824926
-0.0131625
-0.0186978
-0.024208
-0.0290839
-0.032855
-0.0351812
-0.0357799
-0.0345765
-0.0315077
-0.0265594
-0.0199398
-0.0122646
-0.00482272
0.000311863
0.00128785
0
0
-0.0011878
-0.00390367
-0.00810264
-0.0137727
-0.0205266
-0.0276698
-0.0344404
-0.0402188
-0.0445764
-0.0472343
-0.0479836
-0.0467612
-0.0434932
-0.0380865
-0.0305715
-0.02129
-0.011264
-0.00269717
0.00104602
0
0
-0.00210243
-0.00628888
-0.0121769
-0.0195785
-0.0279012
-0.036297
-0.0439568
-0.0502957
-0.0549588
-0.05776
-0.0586059
-0.0574534
-0.05423
-0.0488172
-0.0410932
-0.0310759
-0.0193136
-0.00764002
-3.0538e-05
0
0
-0.00303258
-0.00865958
-0.0160913
-0.0249547
-0.0344993
-0.0437837
-0.0519973
-0.058617
-0.0633805
-0.0662003
-0.0670741
-0.065997
-0.0629144
-0.0577223
-0.0502389
-0.0402398
-0.0277539
-0.0138926
-0.00230475
0
0
-0.0038178
-0.0106893
-0.019399
-0.0293991
-0.0398306
-0.0497062
-0.058242
-0.0649877
-0.0697727
-0.0725911
-0.0734893
-0.0724847
-0.0695483
-0.0646131
-0.0575151
-0.0479296
-0.0354561
-0.0203897
-0.0056977
0
0
-0.00434266
-0.0121561
-0.021824
-0.0326352
-0.0436645
-0.053914
-0.0626388
-0.0694568
-0.0742707
-0.0771264
-0.0780879
-0.0771773
-0.0743811
-0.069667
-0.0629361
-0.0538757
-0.0418404
-0.0263617
-0.00949246
0
0
-0.00453861
-0.0129379
-0.0232283
-0.0345462
-0.0459297
-0.0563933
-0.0652321
-0.0721148
-0.0769904
-0.0799318
-0.0810068
-0.0802338
-0.0776005
-0.0730928
-0.0666769
-0.0581326
-0.0467417
-0.0313946
-0.0129823
0
0
-0.00440308
-0.0130034
-0.0235965
-0.0351459
-0.0466683
-0.0572039
-0.0660871
-0.0730225
-0.0779792
-0.0810372
-0.082264
-0.0816768
-0.0792624
-0.075005
-0.0689107
-0.0608706
-0.0502229
-0.0353767
-0.0159765
0
0
-0.00399225
-0.0124201
-0.0229675
-0.0344636
-0.0459096
-0.056378
-0.0652331
-0.072193
-0.0772276
-0.0804113
-0.0818124
-0.081453
-0.0793165
-0.0754028
-0.069721
-0.0622234
-0.052403
-0.0383382
-0.0184426
0
0
-0.00338186
-0.0112927
-0.0214761
-0.0326358
-0.0437693
-0.0539976
-0.062712
-0.0696295
-0.074705
-0.0780008
-0.0795858
-0.0795016
-0.0777245
-0.0742583
-0.0691179
-0.0623172
-0.0534012
-0.0403231
-0.0203997
0
0
-0.00268983
-0.00980201
-0.0193161
-0.0298514
-0.0404104
-0.0501745
-0.0585742
-0.0653269
-0.0703674
-0.0737398
-0.0755119
-0.0757337
-0.0743985
-0.0715079
-0.0670769
-0.0611058
-0.0532471
-0.0413967
-0.0218825
0
0
-0.00206029
-0.00822226
-0.0168147
-0.0264339
-0.0361191
-0.0451334
-0.0529697
-0.0593614
-0.064229
-0.0675971
-0.069528
-0.0700815
-0.06927
-0.0670891
-0.0635568
-0.0586395
-0.0520431
-0.0416701
-0.0228847
0
0
-0.00162225
-0.00683678
-0.0142744
-0.0226696
-0.0311499
-0.0390875
-0.0460627
-0.0518435
-0.0563497
-0.0595918
-0.0616244
-0.0625064
-0.0622929
-0.0609547
-0.0585198
-0.0549016
-0.0497554
-0.040944
-0.0231414
0
0
-0.00155341
-0.00611309
-0.0122997
-0.0191672
-0.026058
-0.0325272
-0.0382758
-0.0431227
-0.0470077
-0.0499346
-0.0519579
-0.0531283
-0.0535145
-0.0531104
-0.0519106
-0.0497806
-0.0462161
-0.0389384
-0.0225821
0
0
-0.00202156
-0.00605954
-0.0109911
-0.0160868
-0.0210503
-0.0257063
-0.0299059
-0.0335269
-0.036545
-0.0389545
-0.0408109
-0.0421431
-0.0430152
-0.0434136
-0.0433173
-0.0425453
-0.0403911
-0.034732
-0.0206328
0
0
-0.00615132
-0.00971978
-0.012469
-0.015034
-0.0175068
-0.0198231
-0.0219356
-0.0237878
-0.0253866
-0.0267115
-0.0278092
-0.0286695
-0.0293608
-0.0298454
-0.0301445
-0.0300565
-0.0288364
-0.0247918
-0.015067
0
0
0
0
0
0
0
0
0
0
0
0
0
0
0
0
0
0
0
0
0
0
0
0
0
0
0
0
0
0
0
0
0
0
0
0
0
0
0
0
0
0
0
0
0.000112933
0.000201371
0.000197261
7.8369e-05
-0.000191148
-0.000663298
-0.00136682
-0.00224273
-0.00312913
-0.00381962
-0.0041475
-0.00401667
-0.00335663
-0.00226742
-0.000959387
0.000223046
0.00092778
0.000913002
0.000413831
0
0
0.000169931
0.000159656
-0.000189891
-0.000985681
-0.0023134
-0.00418216
-0.00643555
-0.00874677
-0.0107265
-0.0120376
-0.0124554
-0.0118483
-0.0101749
-0.00756607
-0.00436928
-0.00121694
0.00104062
0.00167807
0.00089252
0
0
2.8296e-06
-0.000482875
-0.00169637
-0.00379345
-0.00679474
-0.0104892
-0.0144415
-0.0181279
-0.0210757
-0.0229225
-0.0234001
-0.0223958
-0.0198653
-0.0158916
-0.0108043
-0.00533468
-0.0007121
0.00159338
0.00117272
0
0
-0.000448799
-0.00186965
-0.00443127
-0.00824926
-0.0131625
-0.0186978
-0.024208
-0.0290839
-0.032855
-0.0351812
-0.0357799
-0.0345765
-0.0315077
-0.0265594
-0.0199398
-0.0122646
-0.00482272
0.000311863
0.00128785
0
0
-0.0011878
-0.00390367
-0.00810264
-0.0137727
-0.0205266
-0.0276698
-0.0344404
-0.0402188
-0.0445764
-0.0472343
-0.0479836
-0.0467612
-0.0434932
-0.0380865
-0.0305715
-0.02129
-0.011264
-0.00269717
0.00104602
0
0
-0.00210243
-0.00628888
-0.0121769
-0.0195785
-0.0279012
-0.036297
-0.0439568
-0.0502957
-0.0549588
-0.05776
-0.0586059
-0.0574534
-0.05423
-0.0488172
-0.0410932
-0.0310759
-0.0193136
-0.00764002
-3.0538e-05
0
0
-0.00303258
-0.00865958
-0.0160913
-0.0249547
-0.0344993
-0.0437837
-0.0519973
-0.058617
-0.0633805
-0.0662003
-0.0670741
-0.065997
-0.0629144
-0.0577223
-0.0502389
-0.0402398
-0.0277539
-0.0138926
-0.00230475
0
0
-0.0038178
-0.0106893
-0.019399
-0.0293991
-0.0398306
-0.0497062
-0.058242
-0.0649877
-0.0697727
-0.0725911
-0.0734893
-0.0724847
-0.0695483
-0.0646131
-0.0575151
-0.0479296
-0.0354561
-0.0203897
-0.0056977
0
0
-0.00434266
-0.0121561
-0.021824
-0.0326352
-0.0436645
-0.053914
-0.0626388
-0.0694568
-0.0742707
-0.0771264
-0.0780879
-0.0771773
-0.0743811
-0.069667
-0.0629361
-0.0538757
-0.0418404
-0.0263617
-0.00949246
0
0
-0.00453861
-0.0129379
-0.0232283
-0.0345462
-0.0459297
-0.0563933
-0.0652321
-0.0721148
-0.0769904
-0.0799318
-0.0810068
-0.0802338
-0.0776005
-0.0730928
-0.0666769
-0.0581326
-0.0467417
-0.0313946
-0.0129823
0
0
-0.00440308
-0.0130034
-0.0235965
-0.0351459
-0.0466683
-0.0572039
-0.0660871
-0.0730225
-0.0779792
-0.0810372
-0.082264
-0.0816768
-0.0792624
-0.075005
-0.0689107
-0.0608706
-0.0502229
-0.0353767
-0.0159765
0
0
-0.00399225
-0.0124201
-0.0229675
-0.0344636
-0.0459096
-0.056378
-0.0652331
-0.072193
-0.0772276
-0.0804113
-0.0818124
-0.081453
-0.0793165
-0.0754028
-0.069721
-0.0622234
-0.052403
-0.0383382
-0.0184426
0
0
-0.00338186
-0.0112927
-0.0214761
-0.0326358
-0.0437693
-0.0539976
-0.062712
-0.0696295
-0.074705
-0.0780008
-0.0795858
-0.0795016
-0.0777245
-0.0742583
-0.0691179
-0.0623172
-0.0534012
-0.0403231
-0.0203997
0
0
-0.00268983
-0.00980201
-0.0193161
-0.0298514
-0.0404104
-0.0501745
-0.0585742
-0.0653269
-0.0703674
-0.0737398
-0.0755119
-0.0757337
-0.0743985
-0.0715079
-0.0670769
-0.0611058
-0.0532471
-0.0413967
-0.0218825
0
0
-0.00206029
-0.00822226
-0.0168147
-0.0264339
-0.0361191
-0.0451334
-0.0529697
-0.0593614
-0.064229
-0.0675971
-0.069528
-0.0700815
-0.06927
-0.0670891
-0.0635568
-0.0586395
-0.0520431
-0.0416701
-0.0228847
0
0
-0.00162225
-0.00683678
-0.0142744
-0.0226696
-0.0311499
-0.0390875
-0.0460627
-0.0518435
-0.0563497
-0.0595918
-0.0616244
-0.0625064
-0.0622929
-0.0609547
-0.0585198
-0.0549016
-0.0497554
-0.040944
-0.0231414
0
0
-0.00155341
-0.00611309
-0.0122997
-0.0191672
-0.026058
-0.0325272
-0.0382758
-0.0431227
-0.0470077
-0.0499346
-0.0519579
-0.0531283
-0.0535145
-0.0531104
-0.0519106
-0.0497806
-0.0462161
-0.0389384
-0.0225821
0
0
-0.00202156
-0.00605954
-0.0109911
-0.0160868
-0.0210503
-0.0257063
-0.0299059
-0.0335269
-0.036545
-0.0389545
-0.0408109
-0.0421431
-0.0430152
-0.0434136
-0.0433173
-0.0425453
-0.0403911
-0.034732
-0.0206328
0
0
-0.00615132
-0.00971978
-0.012469
-0.015034
-0.0175068
-0.0198231
-0.0219356
-0.0237878
-0.0253866
-0.0267115
-0.0278092
-0.0286695
-0.0293608
-0.0298454
-0.0301445
-0.0300565
-0.0288364
-0.0247918
-0.015067
0
0
0
0
0
0
0
0
0
0
0
0
0
0
0
0
0
0
0
0
0
0
)
;

boundaryField
{
    movingWall
    {
        type            calculated;
    }
    fixedWalls
    {
        type            calculated;
    }
    frontAndBack
    {
        type            empty;
    }
}


// ************************************************************************* //
