/*--------------------------------*- C++ -*----------------------------------*\
| =========                 |                                                 |
| \\      /  F ield         | OpenFOAM: The Open Source CFD Toolbox           |
|  \\    /   O peration     | Version:  2506                                  |
|   \\  /    A nd           | Website:  www.openfoam.com                      |
|    \\/     M anipulation  |                                                 |
\*---------------------------------------------------------------------------*/
FoamFile
{
    version     2.0;
    format      ascii;
    arch        "LSB;label=32;scalar=64";
    class       surfaceScalarField;
    location    "50";
    object      phi;
}
// * * * * * * * * * * * * * * * * * * * * * * * * * * * * * * * * * * * * * //

dimensions      [0 3 -1 0 0 0 0];

oriented        oriented;

internalField   nonuniform List<scalar> 
2579
(
0.217433
0.00490471
0.210046
0.00750412
0.194968
0.0151332
0.171922
0.023402
0.246108
0.00925271
0.240844
0.0129005
0.230647
0.0254596
0.211373
0.0431388
0.267122
0.0132245
0.26156
0.0185715
0.250822
0.0362024
0.232425
0.0617672
0.286309
0.0166014
0.281148
0.0238868
0.270407
0.0470943
0.250769
0.0819008
0.300653
0.0197148
0.296036
0.0286122
0.286539
0.0565485
0.267203
0.101411
0.317261
0.0230025
0.312238
0.0337873
0.302767
0.0661773
0.283384
0.121274
0.333794
0.0264084
0.328593
0.0390795
0.319154
0.0755359
0.300051
0.140475
0.351738
0.0299207
0.346316
0.0446441
0.336714
0.0852908
0.317908
0.159698
0.370424
0.0335349
0.364824
0.0503228
0.355212
0.0947899
0.33691
0.178031
0.390205
0.0372331
0.384468
0.0561914
0.37484
0.104561
0.357074
0.196147
0.411035
0.0410014
0.405156
0.0621405
0.395562
0.114016
0.378471
0.213236
0.432978
0.0448169
0.426984
0.0682555
0.417504
0.123626
0.401149
0.229878
0.456127
0.048661
0.450054
0.0743914
0.44067
0.132855
0.425163
0.245355
0.480496
0.0525134
0.474381
0.0806151
0.465201
0.142147
0.450578
0.260207
0.506197
0.0563707
0.500077
0.0867939
0.491084
0.150971
0.47745
0.273805
0.533284
0.0601879
0.527182
0.0929933
0.518463
0.159782
0.505888
0.286559
0.561821
0.0639601
0.555814
0.0990541
0.547377
0.168051
0.535875
0.298021
0.591924
0.067604
0.586011
0.10505
0.577961
0.176173
0.567575
0.308543
0.623626
0.071145
0.617904
0.110823
0.61023
0.18368
0.601006
0.317733
0.657052
0.0745161
0.651546
0.116396
0.644311
0.190965
0.636246
0.325902
0.692277
0.0777219
0.687056
0.121661
0.680315
0.197554
0.673383
0.332804
0.729437
0.0806689
0.724509
0.126641
0.718294
0.203801
0.712549
0.338629
0.768589
0.0833685
0.764046
0.13122
0.758393
0.20931
0.753749
0.343255
0.809864
0.0857562
0.805748
0.135375
0.800673
0.214402
0.797125
0.346869
0.853366
0.087883
0.849746
0.139018
0.845277
0.218752
0.842771
0.349363
0.899231
0.089608
0.896043
0.142238
0.892344
0.222461
0.890818
0.350944
0.947607
0.0908336
0.945056
0.144803
0.941857
0.225562
0.941273
0.351527
0.998709
0.0916702
0.996427
0.147115
0.994079
0.227918
0.994402
0.351251
1.05226
0.0920808
1.05082
0.14856
1.04903
0.229634
1.05028
0.350008
1.10895
0.0920436
1.10807
0.149465
1.10702
0.230696
1.10898
0.348088
1.16873
0.0915314
1.16833
0.149868
1.16798
0.231001
1.17047
0.345613
1.23162
0.0905471
1.23196
0.149551
1.23233
0.230653
1.23538
0.34259
1.29811
0.0888058
1.29891
0.148756
1.2997
0.22984
1.30355
0.338746
1.36782
0.0870019
1.36936
0.147234
1.37081
0.228403
1.37496
0.334623
1.44167
0.0844342
1.4435
0.145407
1.44572
0.226173
1.45027
0.330076
1.51936
0.0815406
1.52188
0.142903
1.5243
0.223769
1.52916
0.325238
1.60117
0.0781909
1.60407
0.140003
1.60716
0.220664
1.61229
0.320114
1.68759
0.0744485
1.69098
0.136623
1.69434
0.217321
1.69952
0.314949
1.77448
0.0188968
1.77852
0.0704102
1.78224
0.132902
1.7859
0.213659
1.79135
0.309495
1.87005
0.0140106
1.87444
0.0660313
1.87842
0.128925
1.8825
0.209594
1.8879
0.304108
1.97093
0.00886853
1.9755
0.0614592
1.97984
0.124583
1.98403
0.205402
1.98946
0.298682
2.07723
0.00363194
2.08207
0.0566205
2.08661
0.12005
2.09083
0.201198
2.09626
0.293265
2.18947
-0.00179385
2.19441
0.0516802
2.19921
0.115256
2.20357
0.196831
2.20869
0.288155
2.30781
-0.00725752
2.31297
0.0465271
2.31772
0.110509
2.32203
0.192536
2.32722
0.282974
2.43276
-0.0127176
2.43795
0.0413375
2.4426
0.105858
2.44699
0.188156
2.45191
0.278048
2.56454
-0.0184123
2.56959
0.0362934
2.5744
0.101051
2.57852
0.184044
2.5832
0.273377
2.70348
-0.0239386
2.70863
0.0311525
2.71329
0.0963938
2.71741
0.179928
2.72165
0.269135
2.8501
-0.0293816
2.8552
0.0260525
2.85967
0.0919276
2.86362
0.175985
2.86772
0.265038
3.00494
-0.034761
3.0098
0.0211932
3.01433
0.0874036
3.01784
0.172475
3.02164
0.261246
3.16831
-0.0401654
3.17298
0.0165265
3.17714
0.0832445
3.18057
0.169045
3.18405
0.257773
3.34056
-0.0452169
3.34511
0.01198
3.34917
0.079189
3.35216
0.166063
3.35516
0.25477
3.52239
-0.050179
3.52696
0.00741665
3.53052
0.075629
3.53329
0.163291
3.53597
0.252097
3.70966
-0.10907
3.71452
-0.0550378
3.7186
0.00333596
3.72203
0.0722018
3.72434
0.160983
3.72659
0.24985
3.91232
-0.114585
3.91698
-0.0597004
3.92092
-0.000595193
3.92416
0.0689632
3.926
0.159133
3.92793
0.247924
4.12629
-0.120077
4.13087
-0.0642802
4.1345
-0.00422465
4.13735
0.0661139
4.13891
0.157577
4.14043
0.246402
4.35204
-0.125297
4.35643
-0.068674
4.35999
-0.00778025
4.36239
0.0637058
4.36356
0.156401
4.36455
0.245414
4.59042
-0.130668
4.59457
-0.0728175
4.59768
-0.0109071
4.59993
0.0614609
4.60072
0.155618
4.60146
0.244669
4.8418
-0.135841
4.84579
-0.0768171
4.84891
-0.0140235
4.85073
0.0596388
4.85105
0.155294
4.85133
0.24439
5.1072
-0.141081
5.11112
-0.0807384
5.11383
-0.0167439
5.11543
0.0580464
5.11534
0.155381
5.11517
0.244563
5.38721
-0.146177
5.39093
-0.0844666
5.39348
-0.0192688
5.39471
0.0568086
5.39422
0.155874
5.39377
0.245011
5.68262
-0.151179
5.68623
-0.08805
5.68844
-0.0214932
5.68954
0.0557235
5.68859
0.156821
5.68776
0.24583
5.98924
-0.221928
5.99434
-0.156269
5.99781
-0.0915243
6.00005
-0.0237228
6.00064
0.0551215
5.9994
0.158052
5.9981
0.24713
6.31824
-0.22902
6.32318
-0.161209
6.32661
-0.0949558
6.32865
-0.0257642
6.32905
0.0547018
6.32734
0.159767
6.32577
0.248683
6.66501
-0.236211
6.67012
-0.166313
6.67354
-0.0983868
6.6752
-0.0274248
6.67548
0.0544161
6.6734
0.161848
6.67156
0.250517
7.03092
-0.243669
7.03625
-0.171642
7.0396
-0.101741
7.04116
-0.0289862
7.04125
0.0543233
7.03791
0.16519
7.03619
0.25224
7.41649
-0.25209
7.42131
-0.176454
7.42411
-0.104546
7.42549
-0.030364
7.42608
0.053739
7.42389
0.167384
7.4205
0.25564
7.82184
-0.258674
7.82734
-0.181951
7.83078
-0.107976
7.83278
-0.0323669
7.83149
0.0550461
7.82879
0.170089
7.8267
0.257737
5.72561
-0.287527
5.75775
-0.214087
5.79476
-0.144992
5.83462
-0.0722226
5.88182
0.00785626
5.94067
0.111238
5.99212
0.206291
6.29788
-0.32021
6.33379
-0.249996
6.37197
-0.183171
6.41687
-0.117125
6.46919
-0.0444657
6.53344
0.0469833
6.591
0.148737
6.92561
-0.355541
6.96541
-0.289795
7.00871
-0.226469
7.05877
-0.167192
7.11507
-0.100769
7.18616
-0.0241008
7.24735
0.0875457
7.61794
-0.393646
7.66043
-0.332281
7.70771
-0.273749
7.76176
-0.221235
7.8247
-0.163712
7.90152
-0.100921
7.97154
0.0175307
8.33514
-0.500866
8.37873
-0.437236
8.42408
-0.377619
8.478
-0.32766
8.53614
-0.279372
8.60593
-0.2335
8.69116
-0.186144
8.76633
-0.057632
9.16766
-0.542264
9.21432
-0.483887
9.26649
-0.429786
9.32208
-0.383237
9.38838
-0.345671
9.46383
-0.308942
9.55646
-0.278764
9.64069
-0.141854
10.0823
-0.58825
10.1322
-0.533747
10.1888
-0.486337
10.2525
-0.447024
10.3232
-0.416342
10.4057
-0.391457
10.5096
-0.382646
10.6003
-0.232566
11.0873
-0.638975
11.143
-0.589501
11.2054
-0.548693
11.2736
-0.515275
11.3514
-0.494102
11.4425
-0.482547
11.5556
-0.49571
11.6559
-0.332884
12.1885
-0.69439
12.2501
-0.651117
12.317
-0.615521
12.3922
-0.590516
12.4783
-0.580147
12.5776
-0.581915
12.7
-0.618093
12.8086
-0.441451
13.3989
-0.753755
13.4656
-0.71774
13.5398
-0.689816
13.6225
-0.673144
13.7161
-0.673764
13.8263
-0.692096
13.9645
-0.756336
14.0864
-0.563308
14.7257
-0.81951
14.7987
-0.790788
14.8794
-0.770494
14.9697
-0.763426
15.0733
-0.777324
15.1926
-0.811383
15.3378
-0.901571
15.4659
-0.691369
16.2135
-0.89315
16.2954
-0.872623
16.3872
-0.86229
16.4887
-0.864888
16.6032
-0.891777
16.7399
-0.948047
16.9125
-1.0741
17.0663
-0.845168
17.8488
17.9393
18.0385
18.1493
18.2752
18.418
18.5883
18.7433
-0.249459
0.171016
-0.244237
0.206709
-0.244058
0.23221
-0.245103
0.252239
-0.247011
0.269002
-0.248309
0.284981
-0.250515
0.302124
-0.25319
0.320779
-0.25685
0.340431
-0.260792
0.36114
-0.265462
0.383019
-0.270356
0.406117
-0.275804
0.430506
-0.281431
0.456248
-0.28746
0.483399
-0.293614
0.512067
-0.300077
0.542276
-0.306625
0.574137
-0.313378
0.607716
-0.320208
0.643081
-0.327181
0.680323
-0.334206
0.719572
-0.341321
0.760837
-0.34846
0.80426
-0.355639
0.849931
-0.362799
0.897975
-0.369943
0.948402
-0.377017
1.00148
-0.384016
1.05728
-0.390891
1.11586
-0.397627
1.1772
-0.404167
1.24193
-0.410543
1.30993
-0.416675
1.3811
-0.422571
1.45617
-0.428205
1.5348
-0.433579
1.61767
-0.438669
1.70462
-0.443481
1.79617
-0.448016
1.89244
-0.452285
1.99373
-0.456285
2.10026
-0.46004
2.21244
-0.46353
2.33072
-0.466797
2.45518
-0.469848
2.58625
-0.47267
2.72448
-0.475274
2.87033
-0.477663
3.02403
-0.479845
3.18624
-0.48184
3.35715
-0.483644
3.53778
-0.485258
3.7282
-0.486687
3.92936
-0.487946
4.14169
-0.489046
4.36565
-0.489994
4.6024
-0.490791
4.85213
-0.491445
5.11582
-0.491966
5.39429
-0.492352
5.68815
-0.492667
5.99841
-0.492871
6.32598
-0.492993
6.67168
-0.493033
7.03623
-0.492994
7.42046
-0.492882
7.82659
-0.492743
5.99198
-0.492564
6.59082
-0.492317
7.2471
-0.492056
7.97128
-0.491727
8.76601
-0.491332
9.6403
-0.490901
10.5999
-0.490317
11.6553
-0.489843
12.8081
-0.488669
14.0852
-0.488934
15.4661
-0.487606
17.065
18.7477
0.0638035
0.194045
0.0495321
0.220653
0.0349762
0.246489
0.0192916
0.26752
0.00320664
0.284834
-0.0135477
0.301331
-0.0307237
0.31916
-0.0486608
0.338417
-0.0668347
0.358561
-0.0855897
0.379679
-0.104447
0.401882
-0.123721
0.425236
-0.142968
0.449788
-0.162435
0.475604
-0.181733
0.502739
-0.201056
0.531311
-0.220041
0.561309
-0.238854
0.592895
-0.257204
0.626107
-0.275178
0.661022
-0.292549
0.697738
-0.309383
0.736392
-0.325503
0.777001
-0.340959
0.819717
-0.355629
0.86464
-0.369552
0.911906
-0.38265
0.961536
-0.394972
1.01381
-0.406478
1.06881
-0.417213
1.1266
-0.427161
1.18717
-0.436386
1.25116
-0.444854
1.31841
-0.45265
1.38891
-0.459786
1.46331
-0.466303
1.54133
-0.472236
1.62361
-0.477615
1.71
-0.482486
1.80105
-0.48689
1.89685
-0.490863
1.99771
-0.494437
2.10384
-0.497657
2.21567
-0.500559
2.33362
-0.50314
2.45777
-0.505433
2.58855
-0.507503
2.72655
-0.509344
2.87217
-0.510973
3.02566
-0.512415
3.18768
-0.513693
3.35844
-0.514809
3.5389
-0.515768
3.72916
-0.516581
3.93017
-0.517264
4.14237
-0.517823
4.36621
-0.518284
4.60287
-0.518614
4.85246
-0.518818
5.11603
-0.518948
5.39442
-0.519006
5.68821
-0.518953
5.99836
-0.518853
6.32588
-0.518711
6.67154
-0.518479
7.036
-0.51822
7.4202
-0.51792
7.8263
-0.517681
5.99174
-0.517376
6.59051
-0.517066
7.24679
-0.516679
7.9709
-0.516266
8.7656
-0.515804
9.63985
-0.515318
10.5994
-0.514661
11.6546
-0.514116
12.8076
-0.512797
14.0839
-0.513284
15.4666
-0.512198
17.0639
18.7521
0.146469
0.232109
0.114485
0.252106
0.0876685
0.273061
0.0624669
0.292179
0.0374562
0.309697
0.0112931
0.327013
-0.0146882
0.345093
-0.040793
0.364126
-0.0662406
0.384029
-0.0917767
0.404893
-0.11665
0.426812
-0.141479
0.449807
-0.165553
0.473947
-0.189431
0.49928
-0.212497
0.525898
-0.235233
0.553893
-0.257097
0.583272
-0.278478
0.614165
-0.298949
0.646671
-0.318834
0.680829
-0.337767
0.716763
-0.355988
0.754562
-0.373232
0.794322
-0.389707
0.836158
-0.405149
0.880151
-0.419731
0.926467
-0.433304
0.975162
-0.445991
1.02648
-0.45768
1.08054
-0.468479
1.13739
-0.478322
1.19704
-0.487308
1.26014
-0.495417
1.32653
-0.502744
1.39623
-0.509272
1.46985
-0.515086
1.54714
-0.520217
1.62875
-0.524726
1.71451
-0.528648
1.80497
-0.532092
1.9003
-0.535031
2.00065
-0.537565
2.10638
-0.539743
2.21785
-0.541546
2.33543
-0.543065
2.45929
-0.544329
2.58982
-0.54539
2.72761
-0.546233
2.87302
-0.546899
3.02633
-0.547405
3.18819
-0.547808
3.35884
-0.548112
3.5392
-0.548273
3.72932
-0.548357
3.93026
-0.54838
4.14239
-0.548292
4.36613
-0.548153
4.60273
-0.547945
4.85225
-0.547678
5.11576
-0.54736
5.39411
-0.546997
5.68785
-0.546596
5.99795
-0.546162
6.32545
-0.545701
6.67109
-0.545231
7.03554
-0.544733
7.41971
-0.544213
7.82577
-0.543827
5.99136
-0.54344
6.59013
-0.542991
7.24635
-0.542547
7.97046
-0.542039
8.7651
-0.541538
9.63935
-0.54101
10.5989
-0.540267
11.6539
-0.539659
12.807
-0.538221
14.0825
-0.538948
15.4674
-0.538038
17.063
18.7565
-0.304049
0.2447
-0.313802
0.261239
-0.319596
0.278462
-0.323836
0.29589
-0.327969
0.313603
-0.333294
0.331912
-0.33931
0.351002
-0.346458
0.370929
-0.35413
0.391673
-0.362827
0.413312
-0.371903
0.435913
-0.381794
0.459472
-0.391874
0.484078
-0.40254
0.509761
-0.413224
0.536652
-0.424242
0.564761
-0.435097
0.594198
-0.446089
0.625036
-0.456753
0.657408
-0.467368
0.69135
-0.477548
0.727007
-0.487537
0.764481
-0.496981
0.803827
-0.506128
0.845257
-0.514721
0.888795
-0.522918
0.934633
-0.530548
0.982835
-0.537733
1.03365
-0.544349
1.08718
-0.550484
1.14352
-0.556056
1.20263
-0.561132
1.26521
-0.565664
1.33108
-0.569702
1.40026
-0.573226
1.47338
-0.576279
1.55019
-0.578862
1.63133
-0.581018
1.71667
-0.58279
1.80674
-0.584162
1.90167
-0.585209
2.0017
-0.585953
2.10712
-0.586428
2.21832
-0.586656
2.33566
-0.586677
2.45931
-0.586529
2.58967
-0.58624
2.72733
-0.585825
2.87261
-0.58531
3.02582
-0.584727
3.18761
-0.584092
3.35821
-0.583408
3.53852
-0.582683
3.7286
-0.581932
3.92951
-0.581164
4.14163
-0.580402
4.36537
-0.579594
4.60193
-0.578792
4.85146
-0.578001
5.11498
-0.577198
5.3933
-0.57638
5.68703
-0.575587
5.99716
-0.574805
6.32466
-0.574028
6.67031
-0.57326
7.03477
-0.572514
7.41897
-0.571796
7.82506
-0.571273
5.99084
-0.57074
6.5896
-0.570192
7.2458
-0.569633
7.9699
-0.569065
8.76454
-0.568494
9.63879
-0.56792
10.5983
-0.567106
11.6531
-0.566451
12.8063
-0.564982
14.081
-0.565878
15.4683
-0.565252
17.0624
18.7609
-0.872576
0.232167
-0.85846
0.247493
-0.84342
0.263647
-0.827951
0.280656
-0.812691
0.298466
-0.797817
0.317172
-0.783457
0.336702
-0.769714
0.357245
-0.756671
0.37866
-0.744421
0.401064
-0.732978
0.424484
-0.722449
0.448905
-0.712767
0.474409
-0.704094
0.501026
-0.69622
0.528795
-0.689351
0.557817
-0.683257
0.588125
-0.678084
0.619783
-0.673569
0.652923
-0.669858
0.687564
-0.666667
0.723847
-0.664117
0.761866
-0.661924
0.801675
-0.66021
0.843495
-0.658717
0.88734
-0.657537
0.93342
-0.656466
0.981803
-0.655579
1.03274
-0.654714
1.08635
-0.65393
1.14272
-0.65311
1.20183
-0.652296
1.26438
-0.651405
1.3302
-0.650468
1.39932
-0.64943
1.47235
-0.648309
1.54906
-0.647076
1.6301
-0.64575
1.71533
-0.64432
1.80531
-0.642794
1.90014
-0.641171
2.00007
-0.639484
2.10543
-0.637686
2.21652
-0.63584
2.33381
-0.633951
2.45742
-0.632041
2.58776
-0.630119
2.72541
-0.628193
2.87069
-0.626281
3.02391
-0.624404
3.18574
-0.622587
3.3564
-0.620775
3.53671
-0.619028
3.72686
-0.617337
3.92783
-0.615709
4.14001
-0.614141
4.36381
-0.612633
4.60042
-0.611181
4.85
-0.609788
5.11358
-0.608456
5.39198
-0.607185
5.68576
-0.605995
5.99597
-0.604824
6.3235
-0.603719
6.66921
-0.602659
7.03372
-0.601655
7.41797
-0.60071
7.82412
-0.60004
5.99017
-0.599367
6.58893
-0.598693
7.24513
-0.598025
7.96924
-0.597376
8.76389
-0.596745
9.63816
-0.596114
10.5977
-0.595247
11.6522
-0.594519
12.8056
-0.593117
14.0796
-0.594107
15.4693
-0.593795
-1.22892
0.216798
-1.21249
0.231029
-1.19502
0.246175
-1.17668
0.262271
-1.15757
0.27935
-1.13788
0.297443
-1.11777
0.316585
-1.09734
0.336765
-1.07676
0.358076
-1.05618
0.380431
-1.03562
0.403934
-1.01541
0.428625
-0.995476
0.454488
-0.976091
0.481574
-0.957183
0.509903
-0.939001
0.539566
-0.921443
0.57059
-0.904767
0.603039
-0.888779
0.63696
-0.873716
0.672437
-0.859382
0.709545
-0.846011
0.748438
-0.833406
0.789104
-0.821651
0.831692
-0.810608
0.876338
-0.8004
0.923176
-0.790784
0.972225
-0.781864
1.02379
-0.77346
1.07798
-0.765631
1.13487
-0.758229
1.19446
-0.751285
1.25742
-0.744685
1.32362
-0.738424
1.39304
-0.732461
1.4664
-0.72678
1.54337
-0.721329
1.62465
-0.71611
1.71011
-0.711087
1.80029
-0.70625
1.8953
-0.701598
1.99542
-0.69707
2.1009
-0.692711
2.21216
-0.688515
2.32962
-0.684452
2.45336
-0.680538
2.58385
-0.676753
2.72162
-0.673127
2.86706
-0.669652
3.02044
-0.666354
3.18245
-0.663173
3.35322
-0.660157
3.5337
-0.657307
3.72402
-0.654592
3.92512
-0.65201
4.13743
-0.649589
4.3614
-0.647309
4.59814
-0.645159
4.84785
-0.643134
5.11156
-0.641242
5.39009
-0.639472
5.68399
-0.637821
5.99433
-0.636296
6.32198
-0.634827
6.66775
-0.633463
7.03236
-0.63219
7.4167
-0.631024
7.82296
-0.630181
5.98934
-0.629361
6.58811
-0.628552
7.24433
-0.62777
7.96847
-0.627046
8.76318
-0.626329
9.63745
-0.625631
10.597
-0.624709
11.6513
-0.623945
12.8048
-0.622613
-1.37489
0.207272
-1.3643
0.220358
-1.35247
0.234326
-1.33953
0.249252
-1.32537
0.265185
-1.31017
0.282174
-1.29386
0.300276
-1.27665
0.319491
-1.2585
0.339938
-1.23967
0.361535
-1.22012
0.384399
-1.20013
0.408582
-1.17969
0.434068
-1.15908
0.46091
-1.13827
0.489121
-1.11755
0.518791
-1.09687
0.549939
-1.07651
0.58262
-1.05638
0.616865
-1.03675
0.652752
-1.01752
0.690344
-0.998913
0.729787
-0.980832
0.771054
-0.963463
0.814284
-0.946692
0.859603
-0.93068
0.907137
-0.915307
0.956888
-0.900688
1.00916
-0.886711
1.06404
-0.873454
1.12161
-0.860818
1.18185
-0.848843
1.24544
-0.837439
1.31223
-0.826628
1.38223
-0.816334
1.45611
-0.806563
1.53359
-0.79726
1.61535
-0.788418
1.70126
-0.779995
1.79187
-0.771973
1.88727
-0.764329
1.98777
-0.757045
2.09362
-0.750105
2.20522
-0.743494
2.32301
-0.737209
2.44708
-0.731235
2.57788
-0.725557
2.71595
-0.720165
2.86168
-0.715059
3.01534
-0.710237
3.17763
-0.705684
3.34868
-0.701389
3.52941
-0.697349
3.71999
-0.693561
3.92134
-0.690016
4.1339
-0.686705
4.35809
-0.683616
4.59506
-0.680729
4.84498
-0.678052
5.10888
-0.67557
5.38761
-0.673294
5.68173
-0.671167
5.9922
-0.669215
6.32003
-0.667402
6.66595
-0.665723
7.03069
-0.664173
7.41515
-0.662739
7.82154
-0.661757
5.98836
-0.660786
6.58715
-0.659841
7.24339
-0.658939
7.96758
-0.658099
8.76235
-0.657317
9.63668
-0.656539
10.5963
-0.655566
-1.407
0.203218
-1.40222
0.215362
-1.39649
0.228422
-1.38975
0.242349
-1.38191
0.257235
-1.37301
0.273141
-1.36293
0.290137
-1.35182
0.308274
-1.33947
0.327553
-1.32613
0.348113
-1.31173
0.369983
-1.29639
0.393173
-1.28011
0.417777
-1.26306
0.443799
-1.24529
0.471357
-1.22704
0.500482
-1.20823
0.531144
-1.18911
0.563455
-1.16974
0.597504
-1.15031
0.63328
-1.13084
0.670894
-1.11147
0.710373
-1.09224
0.751851
-1.07336
0.795368
-1.05472
0.840992
-1.03651
0.888893
-1.01871
0.939114
-1.00144
0.991867
-0.98465
1.04727
-0.968438
1.10538
-0.952756
1.16618
-0.937674
1.23035
-0.923145
1.29771
-0.909234
1.3683
-0.895858
1.44274
-0.883059
1.52078
-0.870809
1.6031
-0.859106
1.68955
-0.847905
1.78066
-0.837255
1.87662
-0.827059
1.97758
-0.817363
2.08392
-0.808156
2.19601
-0.799361
2.31422
-0.791036
2.43875
-0.783138
2.56999
-0.775675
2.70849
-0.768593
2.8546
-0.761914
3.00866
-0.755606
3.17133
-0.74969
3.34277
-0.744152
3.52389
-0.738933
3.71478
-0.734078
3.9165
-0.729571
4.1294
-0.725348
4.35388
-0.721457
4.59118
-0.717836
4.84136
-0.714472
5.10553
-0.71139
5.38455
-0.708574
5.6789
-0.705989
5.98963
-0.703617
6.31767
-0.701456
6.6638
-0.699454
7.02869
-0.697621
7.41333
-0.695921
7.81985
-0.694794
5.98725
-0.693676
6.58603
-0.692595
7.24231
-0.691576
7.96656
-0.690617
-0.689762
-1.39222
0.20248
-1.39072
0.214142
-1.38861
0.22652
-1.38586
0.239797
-1.38242
0.253936
-1.3782
0.269063
-1.37311
0.285126
-1.36711
0.302376
-1.36019
0.320694
-1.35227
0.34026
-1.34337
0.361117
-1.33344
0.383289
-1.32252
0.406884
-1.31064
0.431953
-1.2978
0.458535
-1.28404
0.486738
-1.26948
0.516607
-1.2542
0.548175
-1.23825
0.581568
-1.22176
0.616784
-1.20478
0.653938
-1.18751
0.693085
-1.16989
0.734249
-1.15217
0.777634
-1.13435
0.823188
-1.11657
0.871104
-1.09886
0.92142
-1.08133
0.974338
-1.06401
1.02996
-1.04698
1.08836
-1.0303
1.14952
-1.01395
1.214
-0.998014
1.28179
-0.982526
1.35283
-0.967493
1.42772
-0.952944
1.50624
-0.938889
1.58905
-0.925334
1.676
-0.912308
1.76764
-0.899744
1.86406
-0.887738
1.96557
-0.876213
2.07241
-0.865181
2.18499
-0.854669
2.30372
-0.844666
2.42876
-0.835149
2.56049
-0.826121
2.69947
-0.817567
2.84606
-0.809493
3.0006
-0.801884
3.16373
-0.794746
3.33564
-0.788011
3.51716
-0.781748
3.70853
-0.775891
3.91065
-0.770423
4.12395
-0.765381
4.34885
-0.760675
4.58648
-0.756337
4.83704
-0.752354
5.10158
-0.748709
5.38089
-0.745339
5.67556
-0.742313
5.98658
-0.739508
6.31487
-0.736959
6.66126
-0.734636
7.02637
-0.732524
7.41122
-0.73061
-0.729298
-0.72804
-0.726835
-1.3658
0.203474
-1.36649
0.214808
-1.36681
0.226838
-1.36669
0.239647
-1.36604
0.253291
-1.36483
0.267833
-1.36304
0.283344
-1.36054
0.299858
-1.35735
0.317507
-1.35336
0.336258
-1.34849
0.356254
-1.3428
0.377584
-1.33618
0.400276
-1.32866
0.424421
-1.32019
0.45007
-1.31081
0.477344
-1.30049
0.506299
-1.28934
0.537012
-1.27729
0.569533
-1.26448
0.603961
-1.2509
0.640363
-1.23671
0.678888
-1.22196
0.719508
-1.20669
0.762351
-1.19103
0.807532
-1.17509
0.855162
-1.15889
0.905223
-1.14255
0.957995
-1.12614
1.01355
-1.10973
1.07195
-1.09338
1.13316
-1.0772
1.19783
-1.0612
1.26578
-1.04539
1.33703
-1.02992
1.41222
-1.01474
1.49107
-0.999941
1.57424
-0.985504
1.66158
-0.971496
1.75363
-0.957895
1.85048
-0.944758
1.95244
-0.932069
2.05974
-0.919874
2.1728
-0.908178
2.29204
-0.896971
2.41756
-0.886253
2.54979
-0.876027
2.68926
-0.86632
2.83637
-0.857132
2.99142
-0.848462
3.15508
-0.840253
3.32744
-0.832554
3.50948
-0.82535
3.70133
-0.818622
3.90394
-0.812349
4.11769
-0.806528
4.34303
-0.801127
4.5811
-0.796129
4.83207
-0.791551
5.09699
-0.787331
5.37671
-0.783538
5.67173
-0.78002
-0.776866
-0.773955
-0.771329
-1.33607
0.205476
-1.33782
0.216635
-1.33935
0.228423
-1.34063
0.241004
-1.34164
0.254345
-1.3423
0.268562
-1.34252
0.283611
-1.34232
0.299721
-1.34157
0.316797
-1.34026
0.335006
-1.33838
0.354405
-1.33577
0.375028
-1.33245
0.396993
-1.32832
0.42034
-1.32346
0.445239
-1.31773
0.47165
-1.31115
0.49975
-1.30367
0.529571
-1.29538
0.561259
-1.28623
0.59484
-1.27629
0.630446
-1.26553
0.668155
-1.25401
0.708009
-1.24186
0.750219
-1.22906
0.794751
-1.21568
0.841801
-1.20185
0.891409
-1.18761
0.943776
-1.17305
0.999006
-1.15823
1.05715
-1.14325
1.11819
-1.12813
1.18275
-1.11301
1.25066
-1.09791
1.32196
-1.0829
1.39722
-1.068
1.47621
-1.05332
1.55956
-1.03883
1.64713
-1.02465
1.73945
-1.01075
1.83661
-0.997208
1.9389
-0.984036
2.04659
-0.971292
2.16006
-0.958914
2.27969
-0.947018
2.40567
-0.935569
2.53836
-0.924633
2.67832
-0.914159
2.82591
-0.904199
2.98147
-0.894719
3.14561
-0.885769
3.3185
-0.877338
3.50105
-0.86938
3.69338
-0.861958
3.89652
-0.855057
-0.848609
-0.842621
-0.837089
-0.831964
-0.827328
-1.30674
0.207786
-1.3092
0.218858
-1.31149
0.230562
-1.31362
0.242973
-1.3155
0.25614
-1.31717
0.270119
-1.31857
0.284972
-1.31966
0.300736
-1.32042
0.317529
-1.32079
0.335328
-1.32066
0.35427
-1.32011
0.37444
-1.31899
0.395877
-1.31735
0.418675
-1.31501
0.442898
-1.31204
0.468674
-1.30836
0.496072
-1.30398
0.525188
-1.29882
0.556094
-1.29288
0.588902
-1.28614
0.623703
-1.27863
0.660661
-1.27041
0.699775
-1.26136
0.741188
-1.25165
0.785031
-1.24125
0.831429
-1.23025
0.880384
-1.21862
0.932176
-1.20653
0.986889
-1.19393
1.04458
-1.18101
1.10523
-1.16769
1.16945
-1.15424
1.23716
-1.14048
1.30823
-1.12671
1.3834
-1.11281
1.46233
-1.09899
1.54569
-1.08516
1.63333
-1.0715
1.72575
-1.05793
1.82307
-1.04462
1.92557
-1.03151
2.0335
-1.01874
-1.00628
-0.994235
-0.982537
-0.97127
-0.96045
-0.950116
-0.940266
-0.930898
-0.921991
-0.913611
-1.27929
-1.28183
-1.28442
-1.28697
-1.28951
-1.29193
-1.29427
-1.29643
-1.29838
-1.30006
-1.30149
-1.30255
-1.30324
-1.3034
-1.30316
-1.30234
-1.30097
-1.29889
-1.29623
-1.29281
-1.28878
-1.28388
-1.27835
-1.27199
-1.26502
-1.2572
-1.24881
-1.23968
-1.23004
-1.21974
-1.20905
-1.19783
-1.18629
-1.17434
-1.16224
-1.14983
-1.1374
-1.12481
-1.11227
-1.09962
-1.08706
)
;

boundaryField
{
    inlet
    {
        type            calculated;
        value           nonuniform List<scalar> 
13
(
-0.974015
-0.963075
-0.961351
-0.975655
-1.01765
-1.09079
-1.24439
-1.00007
-0.491944
-0.516604
-0.542471
-0.569555
-0.597947
)
;
    }
    outlet
    {
        type            calculated;
        value           nonuniform List<scalar> 0();
    }
    walls
    {
        type            calculated;
        value           uniform 0;
    }
    frontAndBack
    {
        type            empty;
    }
    procBoundary2to1
    {
        type            processor;
        value           nonuniform List<scalar> 
84
(
-0.222275
-0.250409
-0.271018
-0.289626
-0.303676
-0.320481
-0.337106
-0.355179
-0.373943
-0.393828
-0.414709
-0.436717
-0.45988
-0.484271
-0.509968
-0.537026
-0.565515
-0.595497
-0.627097
-0.66036
-0.695422
-0.732329
-0.771236
-0.812205
-0.855452
-0.900916
-0.948801
-0.999514
-1.05265
-1.10889
-1.16821
-1.23062
-1.29636
-1.366
-1.4391
-1.51646
-1.59781
-1.68383
-0.0236342
-1.76974
-1.86516
-1.96578
-2.07199
-2.18404
-2.30235
-2.42729
-2.55884
-2.69795
-2.84465
-2.99956
-3.16291
-3.33551
-3.51743
0.103368
-3.70397
-3.9068
-4.12081
-4.3468
-4.58506
-4.83661
-5.10196
-5.3821
-5.67763
0.215139
-5.98247
-6.31113
-6.65783
-7.02345
-7.40808
-7.81525
-5.69676
-6.2652
-6.89028
-7.57984
0.462644
-8.29689
-9.12625
-10.0363
-11.0365
-12.1331
-13.3396
-14.6599
-16.1399
-17.7679
)
;
    }
    procBoundary2to3
    {
        type            processor;
        value           nonuniform List<scalar> 
88
(
17.0621
18.765
14.0783
-0.623722
15.4704
11.6504
-0.654746
12.804
8.7614
9.63583
-0.6889
10.5954
7.81796
5.98594
6.58478
7.24111
-0.725701
7.96544
5.9831
6.31171
6.65835
7.02375
-0.768944
7.40885
4.1108
4.3366
4.57513
4.82655
5.09191
5.37205
-0.823017
5.66746
2.14728
2.26725
2.39362
2.52668
2.66705
2.81511
2.97113
3.13577
3.30913
3.49215
3.685
-0.905696
3.88861
0.210646
0.221669
0.233374
0.245735
0.258824
0.272693
0.2874
0.303007
0.319526
0.337084
0.355716
0.375552
0.396559
0.418877
0.442624
0.467877
0.494657
0.523114
0.553378
0.585487
0.619592
0.655762
0.694157
0.734828
0.777963
0.823601
0.871896
0.923039
0.977146
1.03428
1.09443
1.15823
1.2255
1.29628
1.37119
1.44993
1.53316
1.62076
1.71314
1.81046
1.91295
-1.07443
2.02098
)
;
    }
    procBoundary2to6
    {
        type            processor;
        value           nonuniform List<scalar> 
13
(
0.250122
-0.0875633
-0.185359
0.290042
0.88572
1.24425
1.38432
1.41054
1.39353
1.36479
1.33422
1.30399
1.27714
)
;
    }
}


// ************************************************************************* //
