/*--------------------------------*- C++ -*----------------------------------*\
| =========                 |                                                 |
| \\      /  F ield         | OpenFOAM: The Open Source CFD Toolbox           |
|  \\    /   O peration     | Version:  2506                                  |
|   \\  /    A nd           | Website:  www.openfoam.com                      |
|    \\/     M anipulation  |                                                 |
\*---------------------------------------------------------------------------*/
FoamFile
{
    version     2.0;
    format      ascii;
    arch        "LSB;label=32;scalar=64";
    class       volSymmTensorField;
    location    "50";
    object      turbulenceProperties:devReff;
}
// * * * * * * * * * * * * * * * * * * * * * * * * * * * * * * * * * * * * * //

dimensions      [0 2 -2 0 0 0 0];

internalField   nonuniform List<symmTensor> 
1340
(
(-4.11251 16.2188 1.23327e-15 4.08784 5.11521e-17 0.0246659)
(-4.37373 15.3622 1.7053e-15 4.35068 2.03411e-16 0.023045)
(-4.50769 14.3065 -3.41424e-16 4.48781 -6.13248e-17 0.0198862)
(-4.1221 11.6381 -5.2874e-15 4.06206 -8.20025e-16 0.0600345)
(-0.125229 0.47911 -5.90508e-16 0.155412 1.04962e-17 -0.0301836)
(-0.144118 0.519956 -1.50092e-15 0.170291 -9.23689e-17 -0.026173)
(-0.172212 0.647503 -2.87421e-15 0.198191 -2.47921e-16 -0.0259784)
(-0.225154 0.921407 -2.24182e-15 0.199026 1.07367e-15 0.0261285)
(-0.0179815 0.12115 2.50786e-16 0.0200007 1.00812e-16 -0.00201925)
(-0.0259214 0.158884 -1.29527e-15 0.0289315 -2.87566e-16 -0.00301018)
(-0.013803 0.189921 3.51586e-15 0.0140182 5.7657e-16 -0.000215154)
(-0.0260581 0.266722 5.21281e-15 0.0142714 9.67532e-16 0.0117867)
(0.00153484 0.00468283 -2.337e-16 -0.00179958 -2.11641e-17 0.000264741)
(0.00268547 0.0144478 9.40476e-16 -0.00333698 1.27901e-16 0.000651506)
(0.00939419 0.0367562 -6.26299e-16 -0.0109965 -1.42445e-16 0.00160236)
(0.0017885 0.107958 -4.33968e-16 -0.00604665 -1.18414e-15 0.00425814)
(6.10213e-05 -5.6845e-05 -7.40433e-19 -7.19636e-05 -6.66397e-19 1.09423e-05)
(0.000592962 -0.000288425 -2.66146e-17 -0.000646382 -6.03853e-19 5.34204e-05)
(0.00159201 0.000333764 8.34664e-17 -0.0016649 9.45738e-18 7.28858e-05)
(0.0054809 0.0210055 -3.26367e-16 -0.0068323 3.27484e-17 0.0013514)
(3.37959e-06 -3.65903e-06 3.96851e-19 -2.11255e-06 6.25112e-20 -1.26704e-06)
(0.000107593 -4.31969e-05 -1.64184e-17 -9.28074e-05 -2.54354e-18 -1.47855e-05)
(0.00037634 1.91305e-05 -2.40996e-17 -0.000362561 -5.30435e-18 -1.37792e-05)
(0.00128575 0.0025305 1.1935e-17 -0.00148886 3.89334e-17 0.000203109)
(4.74203e-06 -2.48149e-06 -2.19613e-19 -6.32681e-06 -2.0244e-20 1.58479e-06)
(5.0879e-06 -1.37224e-06 3.7854e-19 -6.34668e-06 4.3682e-20 1.25878e-06)
(6.582e-06 4.80393e-07 1.21765e-20 -7.39731e-06 3.58697e-20 8.15315e-07)
(0.00034129 0.000503929 2.57911e-17 -0.000414584 2.39298e-18 7.3294e-05)
(3.31636e-06 -3.67872e-06 3.34128e-19 -2.36738e-06 2.09689e-20 -9.48974e-07)
(3.76414e-06 -1.8041e-06 -1.51683e-19 -2.97531e-06 -1.38323e-20 -7.88823e-07)
(4.74041e-06 5.53116e-07 3.18379e-20 -4.11727e-06 5.8775e-21 -6.23141e-07)
(4.04603e-06 7.33696e-06 -3.10029e-21 -4.19218e-06 -9.05768e-20 1.46149e-07)
(5.37188e-06 -3.80972e-06 -1.72433e-20 -6.02936e-06 1.42057e-20 6.57478e-07)
(6.38086e-06 -1.96112e-06 1.08875e-19 -6.89655e-06 1.10915e-20 5.15682e-07)
(7.41221e-06 1.08936e-06 6.14496e-20 -7.45354e-06 -2.52376e-20 4.13341e-08)
(3.74954e-06 7.0122e-06 -3.40032e-20 -3.98508e-06 2.37205e-20 2.3554e-07)
(4.06265e-06 -3.85303e-06 1.17023e-19 -3.58274e-06 1.28367e-20 -4.79913e-07)
(4.93298e-06 -1.80658e-06 6.15235e-19 -4.5555e-06 8.08466e-20 -3.77487e-07)
(8.39954e-06 1.44626e-06 -5.8229e-19 -7.87499e-06 -2.30366e-20 -5.24558e-07)
(3.4777e-06 7.04509e-06 1.64119e-19 -3.61781e-06 5.31254e-20 1.40116e-07)
(4.50244e-06 -3.47752e-06 4.54575e-21 -4.69317e-06 1.36927e-20 1.9073e-07)
(5.31312e-06 -1.41835e-06 -7.2031e-19 -5.56986e-06 -8.98336e-20 2.56738e-07)
(7.49352e-06 1.59433e-06 8.39802e-19 -7.54943e-06 1.16841e-19 5.59158e-08)
(4.41463e-06 8.94841e-06 2.79744e-19 -4.89465e-06 -5.97756e-20 4.80023e-07)
(4.0461e-06 -3.33725e-06 -2.61102e-19 -3.99424e-06 -3.82918e-20 -5.18644e-08)
(4.90574e-06 -1.28755e-06 4.59414e-19 -4.97503e-06 5.44907e-20 6.9288e-08)
(6.32684e-06 1.5651e-06 -4.30203e-19 -6.25716e-06 -1.07627e-19 -6.96862e-08)
(4.53821e-06 9.62399e-06 -5.21841e-19 -5.1182e-06 -1.93957e-19 5.79998e-07)
(3.91308e-06 -3.13975e-06 3.02073e-19 -3.94768e-06 3.11478e-20 3.46051e-08)
(4.6907e-06 -1.11784e-06 -6.44053e-19 -4.82047e-06 -7.79864e-20 1.29772e-07)
(5.68329e-06 1.58967e-06 -3.57437e-20 -5.6037e-06 2.59373e-20 -7.95964e-08)
(3.97978e-06 9.00138e-06 -8.06313e-19 -4.48024e-06 2.25784e-20 5.00458e-07)
(3.61972e-06 -2.98953e-06 -2.28385e-19 -3.58213e-06 -1.8631e-20 -3.7594e-08)
(4.33385e-06 -1.00033e-06 4.31253e-19 -4.39429e-06 5.63251e-20 6.04425e-08)
(5.08522e-06 1.59338e-06 6.98609e-20 -4.94131e-06 2.68574e-20 -1.43909e-07)
(3.32318e-06 8.18996e-06 4.87137e-19 -3.68521e-06 1.20305e-19 3.62033e-07)
(3.41688e-06 -2.81749e-06 5.26578e-20 -3.40717e-06 -4.71507e-23 -9.70427e-09)
(4.05964e-06 -8.75058e-07 1.75592e-19 -4.13857e-06 1.68924e-20 7.89345e-08)
(4.58483e-06 1.59614e-06 3.33938e-19 -4.45552e-06 1.55831e-20 -1.29318e-07)
(2.77487e-06 7.45332e-06 -2.48103e-19 -3.06642e-06 -9.7609e-20 2.91552e-07)
(3.17247e-06 -2.66693e-06 2.81987e-20 -3.15215e-06 4.29128e-21 -2.03171e-08)
(3.7507e-06 -7.81803e-07 -2.69868e-19 -3.8126e-06 -3.21898e-20 6.18971e-08)
(4.08692e-06 1.57161e-06 -4.58688e-19 -3.95542e-06 -7.78052e-20 -1.31499e-07)
(2.28591e-06 6.76722e-06 -2.54133e-19 -2.53044e-06 4.37242e-20 2.44536e-07)
(2.94057e-06 -2.52504e-06 -8.86993e-21 -2.92593e-06 -1.48518e-21 -1.46396e-08)
(3.45423e-06 -7.08896e-07 1.3967e-19 -3.51051e-06 1.42365e-20 5.62723e-08)
(3.61953e-06 1.52417e-06 -1.74043e-19 -3.49322e-06 1.11704e-20 -1.2631e-07)
(1.83826e-06 6.10684e-06 6.41478e-19 -2.04369e-06 5.70813e-20 2.05428e-07)
(2.70074e-06 -2.39558e-06 1.1289e-19 -2.68578e-06 1.40489e-20 -1.49619e-08)
(3.15489e-06 -6.57267e-07 -4.16154e-19 -3.20132e-06 -4.83484e-20 4.64318e-08)
(3.17783e-06 1.45497e-06 2.80994e-19 -3.05799e-06 4.76713e-20 -1.19834e-07)
(1.42523e-06 5.46731e-06 -4.94166e-19 -1.59206e-06 -5.24561e-20 1.66827e-07)
(2.46193e-06 -2.26953e-06 -3.24525e-19 -2.4508e-06 -3.47416e-20 -1.11306e-08)
(2.86043e-06 -6.17858e-07 1.13404e-19 -2.90053e-06 2.04844e-20 4.01071e-08)
(2.76532e-06 1.36965e-06 2.06955e-19 -2.65676e-06 5.32765e-21 -1.08559e-07)
(1.05086e-06 4.85319e-06 7.97964e-19 -1.18375e-06 9.10552e-20 1.32894e-07)
(2.22188e-06 -2.14693e-06 1.67407e-19 -2.21398e-06 1.57593e-20 -7.89621e-09)
(2.56884e-06 -5.8838e-07 3.16474e-19 -2.60311e-06 3.22359e-20 3.42728e-08)
(2.37902e-06 1.27178e-06 -2.10996e-19 -2.28323e-06 -3.44274e-20 -9.57928e-08)
(7.15376e-07 4.27007e-06 -4.85257e-19 -8.19403e-07 -9.40286e-20 1.04027e-07)
(1.98383e-06 -2.03041e-06 -4.58512e-20 -1.98048e-06 -3.89522e-21 -3.35822e-09)
(2.28416e-06 -5.69472e-07 -2.50128e-19 -2.31455e-06 -3.0572e-20 3.03936e-08)
(2.02006e-06 1.16185e-06 -1.10673e-19 -1.93831e-06 -1.19173e-21 -8.17504e-08)
(4.17828e-07 3.71951e-06 9.72689e-20 -4.97116e-07 3.66271e-20 7.9288e-08)
(1.74834e-06 -1.92352e-06 1.3771e-20 -1.7481e-06 1.60264e-21 -2.4791e-10)
(2.00635e-06 -5.63593e-07 4.14132e-20 -2.03257e-06 7.31096e-21 2.62229e-08)
(1.68867e-06 1.03823e-06 1.416e-19 -1.62144e-06 2.35172e-20 -6.72272e-08)
(1.58152e-07 3.20016e-06 1.69334e-21 -2.16231e-07 -1.00431e-20 5.80783e-08)
(1.51669e-06 -1.82465e-06 9.30627e-20 -1.51919e-06 9.53257e-21 2.50721e-09)
(1.73727e-06 -5.6752e-07 8.81573e-21 -1.75957e-06 -2.22582e-22 2.23046e-08)
(1.38378e-06 9.03858e-07 1.82494e-19 -1.33063e-06 7.33339e-21 -5.31488e-08)
(-6.44257e-08 2.71216e-06 -1.36208e-19 2.3745e-08 -1.08839e-20 4.06807e-08)
(1.29011e-06 -1.72974e-06 -7.52477e-20 -1.29442e-06 -7.69315e-21 4.31358e-09)
(1.47801e-06 -5.76852e-07 -6.87579e-20 -1.4969e-06 -5.6235e-21 1.88901e-08)
(1.10313e-06 7.62861e-07 -3.6971e-19 -1.06196e-06 -4.14023e-20 -4.11658e-08)
(-2.52818e-07 2.25691e-06 8.16221e-20 2.2707e-07 1.56969e-20 2.57475e-08)
(1.07024e-06 -1.63958e-06 5.49408e-20 -1.07597e-06 4.98951e-21 5.72965e-09)
(1.23025e-06 -5.90362e-07 1.49317e-19 -1.24579e-06 1.6816e-20 1.55412e-08)
(8.47e-07 6.18786e-07 1.43126e-19 -8.15945e-07 2.88792e-20 -3.10552e-08)
(-4.08944e-07 1.83651e-06 7.84788e-20 3.95195e-07 8.24265e-21 1.37488e-08)
(8.60469e-07 -1.55871e-06 -1.37765e-19 -8.67239e-07 -1.35379e-20 6.77e-09)
(9.96344e-07 -6.11671e-07 -2.65476e-21 -1.00849e-06 -9.40581e-22 1.21498e-08)
(6.15977e-07 4.70691e-07 2.4771e-19 -5.93494e-07 1.97472e-20 -2.24824e-08)
(-5.34111e-07 1.44857e-06 1.22383e-19 5.30125e-07 3.27333e-21 3.98593e-09)
(6.61859e-07 -1.486e-06 1.21315e-19 -6.70015e-07 1.30988e-20 8.15593e-09)
(7.78247e-07 -6.38496e-07 9.14345e-20 -7.87917e-07 9.34432e-21 9.66969e-09)
(4.0992e-07 3.20716e-07 -1.93611e-19 -3.95122e-07 -2.29885e-20 -1.47984e-08)
(-6.29923e-07 1.09101e-06 -3.00797e-19 6.32828e-07 -2.96859e-20 -2.90575e-09)
(4.75307e-07 -1.41496e-06 3.33409e-21 -4.8512e-07 -4.11721e-22 9.81296e-09)
(5.76179e-07 -6.64561e-07 -3.04339e-20 -5.84531e-07 -5.25783e-21 8.35197e-09)
(2.26998e-07 1.75811e-07 1.40743e-19 -2.18849e-07 1.52646e-20 -8.14893e-09)
(-7.00093e-07 7.65867e-07 1.97024e-19 7.07936e-07 2.28919e-20 -7.84272e-09)
(3.01172e-07 -1.34456e-06 -7.75715e-21 -3.12685e-07 -1.09689e-21 1.15135e-08)
(3.90573e-07 -6.86946e-07 -9.35974e-20 -3.98244e-07 -1.01759e-20 7.67044e-09)
(6.62079e-08 4.04072e-08 -2.05429e-19 -6.35266e-08 -2.25567e-20 -2.68134e-09)
(-7.48789e-07 4.7577e-07 -2.44317e-19 7.59954e-07 -2.93342e-20 -1.11644e-08)
(1.4116e-07 -1.27738e-06 -2.94055e-20 -1.53885e-07 -3.22544e-21 1.27255e-08)
(2.22109e-07 -7.07851e-07 -6.15673e-20 -2.29171e-07 -5.69494e-21 7.06166e-09)
(-7.32433e-08 -8.61194e-08 1.00789e-19 7.20943e-08 1.38025e-20 1.14898e-09)
(-7.78483e-07 2.19537e-07 -2.02616e-20 7.9225e-07 5.30878e-21 -1.3768e-08)
(-4.13826e-09 -1.2163e-06 -2.649e-20 -8.6837e-09 -2.80181e-21 1.2822e-08)
(7.14322e-08 -7.2947e-07 -1.5154e-20 -7.72044e-08 -1.06348e-22 5.77223e-09)
(-1.91941e-07 -2.05331e-07 1.11987e-20 1.88596e-07 2.00056e-22 3.34556e-09)
(-7.91463e-07 -6.5034e-09 2.37841e-19 8.07168e-07 2.74855e-20 -1.57055e-08)
(-1.33758e-07 -1.15978e-06 -3.36505e-20 1.21817e-07 -3.37015e-21 1.19407e-08)
(-6.1177e-08 -7.50571e-07 8.69939e-20 5.70908e-08 8.999e-21 4.08619e-09)
(-2.90953e-07 -3.15724e-07 3.54548e-20 2.86658e-07 2.73715e-21 4.29524e-09)
(-7.89515e-07 -2.04515e-07 2.31784e-19 8.06685e-07 1.91287e-20 -1.71695e-08)
(-2.4797e-07 -1.10389e-06 -1.03648e-20 2.37692e-07 -2.24894e-22 1.02779e-08)
(-1.7633e-07 -7.66258e-07 -2.89784e-20 1.74127e-07 -3.51505e-21 2.20305e-09)
(-3.71904e-07 -4.12157e-07 -8.49179e-20 3.67148e-07 -9.38808e-21 4.75581e-09)
(-7.76478e-07 -3.72626e-07 -2.07333e-19 7.94242e-07 -2.56748e-20 -1.77633e-08)
(-3.45325e-07 -1.04843e-06 6.47561e-20 3.36406e-07 6.63985e-21 8.91904e-09)
(-2.7342e-07 -7.75854e-07 3.71345e-20 2.72353e-07 3.03276e-21 1.06649e-09)
(-4.35087e-07 -4.93579e-07 -3.68673e-22 4.29562e-07 1.76733e-21 5.52483e-09)
(-7.53408e-07 -5.10723e-07 -1.46008e-19 7.70569e-07 -1.29772e-20 -1.71609e-08)
(-4.25521e-07 -9.96615e-07 -1.43589e-20 4.17722e-07 -1.88226e-21 7.79992e-09)
(-3.52626e-07 -7.82326e-07 -1.29518e-19 3.52329e-07 -1.34527e-20 2.96044e-10)
(-4.82189e-07 -5.62843e-07 1.02004e-19 4.75945e-07 9.9803e-21 6.24389e-09)
(-7.2277e-07 -6.23269e-07 6.97836e-20 7.3863e-07 7.8897e-21 -1.586e-08)
(-4.89224e-07 -9.44112e-07 2.25765e-20 4.81709e-07 2.27084e-21 7.51546e-09)
(-4.14764e-07 -7.8209e-07 8.23179e-20 4.1387e-07 9.59056e-21 8.94203e-10)
(-5.14366e-07 -6.17556e-07 -1.26223e-19 5.06521e-07 -1.40843e-20 7.84515e-09)
(-6.86286e-07 -7.11177e-07 -1.31119e-19 7.00237e-07 -1.4712e-20 -1.39502e-08)
(-5.38729e-07 -8.89919e-07 -2.18057e-20 5.32266e-07 -2.20082e-21 6.46267e-09)
(-4.62153e-07 -7.73722e-07 -3.90395e-20 4.60924e-07 -4.8791e-21 1.22896e-09)
(-5.34098e-07 -6.56703e-07 6.29132e-20 5.24594e-07 7.33179e-21 9.50344e-09)
(-6.46857e-07 -7.74555e-07 4.09509e-20 6.58295e-07 6.15654e-21 -1.14378e-08)
(-5.74659e-07 -8.3808e-07 3.67022e-20 5.70509e-07 4.18236e-21 4.14989e-09)
(-4.96769e-07 -7.59012e-07 8.57631e-21 4.96353e-07 8.63547e-22 4.1643e-10)
(-5.43443e-07 -6.82427e-07 -7.5895e-20 5.33023e-07 -7.95041e-21 1.04197e-08)
(-6.04522e-07 -8.17978e-07 1.83361e-19 6.13729e-07 2.00331e-20 -9.20657e-09)
(-7.15872e-07 -8.16469e-07 -2.37618e-20 7.15157e-07 -1.88495e-21 7.14704e-10)
(-5.98216e-07 -7.87737e-07 1.0008e-20 5.9466e-07 -1.4328e-22 3.55589e-09)
(-5.1907e-07 -7.41033e-07 -4.40209e-20 5.19358e-07 -3.73151e-21 -2.87795e-10)
(-5.42398e-07 -6.97743e-07 1.34086e-19 5.32178e-07 1.55863e-20 1.02198e-08)
(-5.59967e-07 -8.44615e-07 -2.84641e-20 5.67614e-07 -4.03293e-21 -7.64714e-09)
(-7.14182e-07 -7.40038e-07 6.51738e-20 7.13941e-07 7.06033e-21 2.40278e-10)
(-6.08159e-07 -7.35398e-07 -1.07104e-19 6.05373e-07 -1.16816e-20 2.78549e-09)
(-5.29088e-07 -7.17925e-07 1.67175e-19 5.30817e-07 1.82004e-20 -1.72864e-09)
(-5.34455e-07 -7.01559e-07 7.47e-21 5.25257e-07 -8.67667e-22 9.19735e-09)
(-5.16991e-07 -8.53789e-07 8.3486e-21 5.23619e-07 1.17036e-21 -6.628e-09)
(-7.03071e-07 -6.72047e-07 -1.87367e-20 7.04181e-07 -2.82856e-21 -1.11045e-09)
(-6.07574e-07 -6.86279e-07 2.08777e-20 6.069e-07 3.6388e-21 6.74186e-10)
(-5.29286e-07 -6.89961e-07 -9.49582e-20 5.33067e-07 -1.19589e-20 -3.78079e-09)
(-5.20532e-07 -6.94534e-07 -1.51168e-19 5.13031e-07 -1.70298e-20 7.50135e-09)
(-4.75732e-07 -8.48398e-07 -4.00274e-21 4.82027e-07 -8.07043e-22 -6.29406e-09)
(-6.83497e-07 -6.10604e-07 -2.56679e-20 6.85901e-07 -2.32878e-21 -2.40359e-09)
(-5.97356e-07 -6.38912e-07 6.4135e-20 5.98203e-07 7.40566e-21 -8.47379e-10)
(-5.20424e-07 -6.58699e-07 -1.73109e-20 5.25363e-07 -9.74499e-22 -4.93861e-09)
(-5.00537e-07 -6.79141e-07 5.59129e-20 4.94181e-07 7.3354e-21 6.35535e-09)
(-4.34663e-07 -8.31966e-07 -9.65469e-20 4.40809e-07 -1.1003e-20 -6.14604e-09)
(-6.57022e-07 -5.52536e-07 4.3089e-20 6.6037e-07 5.07891e-21 -3.34803e-09)
(-5.79395e-07 -5.90858e-07 5.24225e-20 5.81633e-07 5.3984e-21 -2.23821e-09)
(-5.04758e-07 -6.22654e-07 5.00031e-20 5.10896e-07 5.52078e-21 -6.13792e-09)
(-4.76669e-07 -6.54773e-07 1.63658e-20 4.71734e-07 1.94116e-21 4.93466e-09)
(-3.96209e-07 -8.04308e-07 9.3918e-20 4.02572e-07 1.15675e-20 -6.36266e-09)
(-6.24709e-07 -4.98723e-07 6.22559e-21 6.28315e-07 3.392e-22 -3.6064e-09)
(-5.55022e-07 -5.43826e-07 -1.58327e-20 5.57845e-07 -2.51916e-21 -2.82311e-09)
(-4.8336e-07 -5.8397e-07 -5.79383e-20 4.8997e-07 -6.77885e-21 -6.60996e-09)
(-4.49395e-07 -6.24105e-07 6.90692e-20 4.45413e-07 7.84237e-21 3.98188e-09)
(-3.59153e-07 -7.67866e-07 4.51432e-20 3.65645e-07 5.10354e-21 -6.49172e-09)
(-5.87151e-07 -4.51204e-07 -4.26328e-21 5.90698e-07 -4.34266e-22 -3.54627e-09)
(-5.24601e-07 -5.00634e-07 -6.35702e-20 5.2772e-07 -7.17381e-21 -3.11872e-09)
(-4.5638e-07 -5.46297e-07 4.10331e-20 4.63242e-07 5.07929e-21 -6.86194e-09)
(-4.18979e-07 -5.91575e-07 -5.09449e-20 4.15715e-07 -6.60565e-21 3.26406e-09)
(-3.2312e-07 -7.28094e-07 -1.7788e-20 3.29672e-07 -2.56959e-21 -6.55219e-09)
(-5.46548e-07 -4.06278e-07 1.39923e-20 5.49716e-07 1.58395e-21 -3.168e-09)
(-4.90681e-07 -4.57584e-07 1.28164e-20 4.93623e-07 2.24854e-21 -2.94171e-09)
(-4.26451e-07 -5.06115e-07 -2.54245e-20 4.32969e-07 -3.29159e-21 -6.51866e-09)
(-3.87379e-07 -5.54074e-07 -5.61955e-20 3.84325e-07 -6.32604e-21 3.05409e-09)
(-2.89155e-07 -6.83051e-07 -1.01762e-19 2.95483e-07 -1.21358e-20 -6.32885e-09)
(-5.05061e-07 -3.625e-07 -1.2132e-20 5.0779e-07 -1.44489e-21 -2.72872e-09)
(-4.55053e-07 -4.13904e-07 6.16138e-20 4.57713e-07 6.99117e-21 -2.65985e-09)
(-3.94971e-07 -4.63279e-07 -3.882e-21 4.01035e-07 -3.21549e-22 -6.06457e-09)
(-3.55491e-07 -5.12097e-07 6.40758e-20 3.52587e-07 8.08154e-21 2.90342e-09)
(-2.58117e-07 -6.32871e-07 6.376e-20 2.64005e-07 7.85717e-21 -5.88797e-09)
(-4.62847e-07 -3.22778e-07 1.98357e-20 4.65334e-07 2.66534e-21 -2.48691e-09)
(-4.18161e-07 -3.73021e-07 -4.86542e-20 4.20576e-07 -6.50409e-21 -2.41492e-09)
(-3.62334e-07 -4.21782e-07 -6.5782e-21 3.67856e-07 -6.69609e-22 -5.52269e-09)
(-3.23413e-07 -4.70134e-07 2.2423e-20 3.20494e-07 2.75972e-21 2.91949e-09)
(-2.28337e-07 -5.81934e-07 -9.96969e-20 2.33651e-07 -1.24993e-20 -5.31396e-09)
(-4.20256e-07 -2.88064e-07 3.80165e-20 4.22676e-07 4.37376e-21 -2.4204e-09)
(-3.80309e-07 -3.36267e-07 -6.29548e-20 3.82744e-07 -7.39355e-21 -2.43517e-09)
(-3.28656e-07 -3.83409e-07 1.86956e-20 3.34047e-07 2.14777e-21 -5.39165e-09)
(-2.9117e-07 -4.3034e-07 6.65618e-20 2.88624e-07 8.26425e-21 2.54589e-09)
(-1.99686e-07 -5.33112e-07 1.0486e-20 2.04657e-07 1.51401e-21 -4.97151e-09)
(-3.7846e-07 -2.55869e-07 -2.18927e-20 3.80939e-07 -2.78227e-21 -2.47924e-09)
(-3.42791e-07 -3.01148e-07 2.87298e-21 3.45305e-07 7.8185e-22 -2.5141e-09)
(-2.95476e-07 -3.45604e-07 -3.67494e-20 3.00725e-07 -4.65892e-21 -5.24956e-09)
(-2.60197e-07 -3.8994e-07 2.4048e-20 2.58042e-07 2.52649e-21 2.15564e-09)
(-1.73418e-07 -4.83863e-07 -2.50588e-20 1.78125e-07 -3.27576e-21 -4.70692e-09)
(-3.39146e-07 -2.24215e-07 2.27413e-20 3.41859e-07 2.89378e-21 -2.71361e-09)
(-3.07297e-07 -2.66067e-07 3.3306e-20 3.10123e-07 3.85429e-21 -2.82635e-09)
(-2.64051e-07 -3.0745e-07 -3.08555e-21 2.69378e-07 3.83114e-23 -5.32682e-09)
(-2.31193e-07 -3.48658e-07 -7.28383e-20 2.29653e-07 -9.48129e-21 1.53994e-09)
(-1.5041e-07 -4.33777e-07 -3.87146e-20 1.54995e-07 -4.87509e-21 -4.58498e-09)
(-3.0188e-07 -1.95425e-07 -9.43535e-21 3.04649e-07 -1.32859e-21 -2.76966e-09)
(-2.73041e-07 -2.33272e-07 -5.93667e-20 2.76261e-07 -7.6027e-21 -3.21934e-09)
(-2.33771e-07 -2.71299e-07 8.13064e-20 2.39252e-07 1.03676e-20 -5.48079e-09)
(-2.03834e-07 -3.0919e-07 -6.09595e-20 2.02647e-07 -7.26211e-21 1.18737e-09)
(-1.29314e-07 -3.85731e-07 1.56145e-20 1.33606e-07 2.02251e-21 -4.29234e-09)
(-2.85739e-07 -1.37814e-07 4.75375e-21 2.87265e-07 4.59775e-22 -1.52696e-09)
(-2.66253e-07 -1.70964e-07 -1.24148e-20 2.68163e-07 -1.76099e-21 -1.91013e-09)
(-2.3961e-07 -2.04669e-07 -1.20744e-20 2.42847e-07 -9.46005e-22 -3.23718e-09)
(-2.04097e-07 -2.38694e-07 3.53927e-20 2.0962e-07 4.03595e-21 -5.52295e-09)
(-1.77302e-07 -2.72846e-07 8.03527e-20 1.76301e-07 1.06357e-20 1.00024e-09)
(-1.0917e-07 -3.41222e-07 -1.19941e-20 1.12988e-07 -1.68689e-21 -3.81745e-09)
(-2.49694e-07 -1.1994e-07 -1.38226e-20 2.50579e-07 -1.63829e-21 -8.8483e-10)
(-2.31954e-07 -1.4994e-07 -6.53971e-20 2.33308e-07 -8.19287e-21 -1.35386e-09)
(-2.08031e-07 -1.79767e-07 9.44288e-20 2.11081e-07 1.19096e-20 -3.05007e-09)
(-1.76665e-07 -2.08879e-07 -4.75809e-20 1.81791e-07 -6.08308e-21 -5.12648e-09)
(-1.53287e-07 -2.38769e-07 6.16019e-20 1.52146e-07 7.66758e-21 1.14107e-09)
(-9.14012e-08 -2.99565e-07 -2.40051e-20 9.46182e-08 -3.01675e-21 -3.21706e-09)
(-2.16357e-07 -1.03531e-07 3.56483e-20 2.1666e-07 4.6271e-21 -3.03149e-10)
(-2.00945e-07 -1.30069e-07 1.51373e-20 2.01599e-07 2.11003e-21 -6.53752e-10)
(-1.79604e-07 -1.55899e-07 -4.74513e-20 1.81775e-07 -6.35968e-21 -2.17097e-09)
(-1.51875e-07 -1.80576e-07 3.16901e-20 1.55959e-07 4.16006e-21 -4.08465e-09)
(-1.31422e-07 -2.06659e-07 -7.65095e-21 1.29992e-07 -1.19865e-21 1.43023e-09)
(-7.57358e-08 -2.60691e-07 1.81772e-20 7.85308e-08 2.41887e-21 -2.79499e-09)
(-1.86761e-07 -8.82606e-08 1.0149e-20 1.86483e-07 1.06402e-21 2.78686e-10)
(-1.7294e-07 -1.11492e-07 -1.08508e-20 1.73084e-07 -1.30628e-21 -1.44024e-10)
(-1.53963e-07 -1.33858e-07 1.16385e-20 1.55489e-07 1.70934e-21 -1.5254e-09)
(-1.29637e-07 -1.5488e-07 -2.90025e-20 1.32988e-07 -3.71087e-21 -3.35039e-09)
(-1.1206e-07 -1.77632e-07 -1.94639e-20 1.10639e-07 -2.51584e-21 1.42189e-09)
(-6.23556e-08 -2.25296e-07 -1.0756e-21 6.50838e-08 -1.2533e-22 -2.7282e-09)
(-1.59956e-07 -7.48883e-08 -3.83757e-20 1.59663e-07 -4.92874e-21 2.9333e-10)
(-1.48046e-07 -9.5067e-08 4.46017e-20 1.47976e-07 5.93496e-21 7.05761e-11)
(-1.31342e-07 -1.14423e-07 1.88166e-20 1.32477e-07 2.29714e-21 -1.13517e-09)
(-1.09912e-07 -1.32384e-07 4.46651e-20 1.12779e-07 5.80502e-21 -2.86697e-09)
(-9.46733e-08 -1.52087e-07 -1.11354e-20 9.34619e-08 -1.35363e-21 1.21145e-09)
(-5.05658e-08 -1.93791e-07 2.44196e-20 5.33704e-08 3.10443e-21 -2.80467e-09)
(-1.36418e-07 -6.31998e-08 1.83854e-20 1.36117e-07 2.47582e-21 3.01428e-10)
(-1.25712e-07 -8.06335e-08 4.79194e-20 1.2571e-07 6.05983e-21 2.58963e-12)
(-1.10788e-07 -9.73806e-08 -4.2161e-20 1.1193e-07 -5.41837e-21 -1.14163e-09)
(-9.19735e-08 -1.12704e-07 -3.67605e-20 9.46347e-08 -5.064e-21 -2.66114e-09)
(-7.90368e-08 -1.29823e-07 1.55571e-20 7.79442e-08 2.03086e-21 1.09266e-09)
(-4.00013e-08 -1.65932e-07 -5.10311e-20 4.26285e-08 -6.64249e-21 -2.62729e-09)
(-1.15031e-07 -5.34683e-08 -7.32971e-21 1.14955e-07 -1.17234e-21 7.60184e-11)
(-1.05612e-07 -6.83412e-08 -2.1325e-20 1.05775e-07 -2.74551e-21 -1.63038e-10)
(-9.24815e-08 -8.25467e-08 4.54906e-20 9.36412e-08 6.02669e-21 -1.15969e-09)
(-7.60132e-08 -9.54408e-08 -6.60649e-20 7.8512e-08 -8.53576e-21 -2.49879e-09)
(-6.50752e-08 -1.10036e-07 -1.34899e-20 6.41057e-08 -1.81787e-21 9.69468e-10)
(-3.06451e-08 -1.41195e-07 6.68631e-20 3.29911e-08 8.834e-21 -2.34603e-09)
(-9.66821e-08 -4.44962e-08 -7.33952e-20 9.66307e-08 -9.53822e-21 5.1362e-11)
(-8.82398e-08 -5.68828e-08 6.15846e-20 8.8527e-08 7.99989e-21 -2.87222e-10)
(-7.64536e-08 -6.88983e-08 -1.26566e-20 7.77474e-08 -1.66907e-21 -1.29381e-09)
(-6.21724e-08 -7.95863e-08 1.3308e-20 6.46353e-08 1.93759e-21 -2.4629e-09)
(-5.31718e-08 -9.18058e-08 5.48425e-21 5.23006e-08 6.11053e-22 8.71244e-10)
(-2.30982e-08 -1.18337e-07 -5.05109e-20 2.51841e-08 -6.71863e-21 -2.08589e-09)
(-8.08723e-08 -3.70281e-08 2.27182e-20 8.06289e-08 3.11208e-21 2.43395e-10)
(-7.30836e-08 -4.69181e-08 -6.41915e-20 7.34995e-08 -8.54652e-21 -4.15912e-10)
(-6.26863e-08 -5.69179e-08 4.21682e-20 6.41228e-08 5.61734e-21 -1.43647e-09)
(-5.05155e-08 -6.55399e-08 1.44138e-20 5.28523e-08 1.8272e-21 -2.33677e-09)
(-4.3241e-08 -7.56804e-08 -7.42438e-20 4.24368e-08 -9.85312e-21 8.04235e-10)
(-1.69669e-08 -9.79995e-08 3.4587e-20 1.88387e-08 4.67774e-21 -1.87178e-09)
(-7.24565e-08 -2.33921e-08 6.06178e-22 7.05948e-08 -6.93405e-23 1.8617e-09)
(-6.74211e-08 -3.15735e-08 -1.51234e-20 6.63012e-08 -1.98285e-21 1.11987e-09)
(-5.98991e-08 -3.91379e-08 1.15059e-20 6.00192e-08 1.6838e-21 -1.2012e-10)
(-5.0535e-08 -4.69576e-08 1.31474e-20 5.19954e-08 1.6415e-21 -1.46035e-09)
(-4.02876e-08 -5.36422e-08 -3.21147e-20 4.24722e-08 -4.18424e-21 -2.1846e-09)
(-3.47358e-08 -6.18983e-08 -1.43636e-20 3.402e-08 -1.85976e-21 7.15743e-10)
(-1.18623e-08 -8.05191e-08 1.86654e-20 1.36829e-08 2.37232e-21 -1.82058e-09)
(-6.02544e-08 -2.11403e-08 -7.16642e-20 5.75144e-08 -9.47339e-21 2.74002e-09)
(-5.55332e-08 -2.8106e-08 2.68219e-20 5.3568e-08 3.66951e-21 1.96526e-09)
(-4.87353e-08 -3.40113e-08 2.23727e-20 4.82414e-08 2.8575e-21 4.93816e-10)
(-4.06254e-08 -3.95683e-08 -7.54784e-21 4.15764e-08 -1.10178e-21 -9.51017e-10)
(-3.21079e-08 -4.42355e-08 4.49631e-20 3.38362e-08 6.07628e-21 -1.72834e-09)
(-2.77468e-08 -5.07502e-08 -4.66718e-20 2.70183e-08 -6.01098e-21 7.2853e-10)
(-7.88635e-09 -6.58296e-08 -2.38256e-20 9.78632e-09 -3.25183e-21 -1.89997e-09)
(-4.94306e-08 -2.02083e-08 -1.67124e-21 4.62368e-08 -6.22939e-23 3.19378e-09)
(-4.55825e-08 -2.61571e-08 5.02537e-20 4.28883e-08 6.59949e-21 2.69414e-09)
(-3.97339e-08 -3.07121e-08 -4.01117e-20 3.83031e-08 -5.36555e-21 1.43074e-09)
(-3.25778e-08 -3.46488e-08 -4.53151e-20 3.26397e-08 -5.99632e-21 -6.18718e-11)
(-2.52203e-08 -3.7813e-08 3.77318e-20 2.6299e-08 5.02572e-21 -1.07871e-09)
(-2.18482e-08 -4.29101e-08 9.62347e-20 2.10163e-08 1.28404e-20 8.31825e-10)
(-4.632e-09 -5.45913e-08 -3.39316e-20 6.56215e-09 -4.59231e-21 -1.93015e-09)
(-3.99564e-08 -1.97393e-08 1.78895e-20 3.64185e-08 2.31724e-21 3.5379e-09)
(-3.68719e-08 -2.50362e-08 -2.38676e-21 3.34785e-08 -3.34458e-22 3.39339e-09)
(-3.18757e-08 -2.88761e-08 -4.13269e-21 2.94834e-08 -4.71774e-22 2.39233e-09)
(-2.56537e-08 -3.19047e-08 -1.87583e-21 2.47003e-08 -2.16651e-22 9.53356e-10)
(-1.92827e-08 -3.40618e-08 6.43936e-20 1.94799e-08 8.45369e-21 -1.97278e-10)
(-1.6765e-08 -3.78997e-08 -1.14979e-20 1.55293e-08 -1.6454e-21 1.23566e-09)
(-1.77744e-09 -4.64642e-08 -8.95049e-20 3.47459e-09 -1.18676e-20 -1.69714e-09)
(-3.10766e-08 -1.84227e-08 -3.61549e-20 2.75481e-08 -4.80252e-21 3.52855e-09)
(-2.90415e-08 -2.34842e-08 4.43228e-20 2.51252e-08 5.86236e-21 3.9163e-09)
(-2.50485e-08 -2.70896e-08 1.08917e-20 2.17278e-08 1.54171e-21 3.32067e-09)
(-1.97181e-08 -2.96908e-08 -2.43036e-20 1.76261e-08 -3.30848e-21 2.09204e-09)
(-1.42632e-08 -3.13031e-08 -3.14035e-20 1.32989e-08 -4.17163e-21 9.64329e-10)
(-1.24655e-08 -3.42275e-08 1.15955e-20 1.04031e-08 1.51029e-21 2.06238e-09)
(5.72774e-10 -4.00091e-08 8.86151e-21 4.87124e-10 1.39015e-21 -1.0599e-09)
(-2.36627e-08 -1.53892e-08 1.58001e-20 2.09466e-08 2.08211e-21 2.71608e-09)
(-2.23729e-08 -2.03938e-08 -2.51816e-20 1.8818e-08 -3.40703e-21 3.55495e-09)
(-1.92708e-08 -2.40454e-08 6.52462e-20 1.5818e-08 8.61263e-21 3.45272e-09)
(-1.49045e-08 -2.66524e-08 -5.20714e-20 1.22463e-08 -6.8848e-21 2.65822e-09)
(-1.0356e-08 -2.81915e-08 7.31129e-20 8.52433e-09 9.74713e-21 1.83167e-09)
(-9.25574e-09 -3.06797e-08 -3.98301e-20 6.39275e-09 -5.35106e-21 2.86299e-09)
(2.11321e-09 -3.44151e-08 8.10766e-20 -1.82694e-09 1.08227e-20 -2.86265e-10)
(-1.79738e-08 -1.04236e-08 -4.1388e-20 1.63735e-08 -5.63842e-21 1.60027e-09)
(-1.73929e-08 -1.51601e-08 -9.99999e-22 1.45035e-08 -9.85192e-23 2.88941e-09)
(-1.50984e-08 -1.87374e-08 -2.88844e-20 1.18149e-08 -3.87665e-21 3.2835e-09)
(-1.15812e-08 -2.12707e-08 -1.6026e-21 8.62767e-09 -1.24809e-22 2.95351e-09)
(-7.86885e-09 -2.27694e-08 -1.27838e-20 5.36735e-09 -1.86475e-21 2.5015e-09)
(-7.1996e-09 -2.47771e-08 -2.05915e-20 3.58324e-09 -2.66871e-21 3.61637e-09)
(2.95412e-09 -2.68828e-08 2.8911e-20 -3.5373e-09 3.68729e-21 5.83187e-10)
(-1.43144e-08 -7.49779e-09 -6.01106e-20 1.36358e-08 -7.92734e-21 6.78614e-10)
(-1.40468e-08 -1.18435e-08 -8.79442e-21 1.18853e-08 -1.11932e-21 2.16143e-09)
(-1.22427e-08 -1.54056e-08 3.48884e-20 9.32831e-09 4.66734e-21 2.91439e-09)
(-9.36684e-09 -1.7971e-08 -2.72107e-22 6.32569e-09 -8.42943e-23 3.04115e-09)
(-6.52944e-09 -1.95673e-08 -3.02282e-20 3.4691e-09 -4.09552e-21 3.06035e-09)
(-6.46844e-09 -2.12233e-08 3.01284e-21 1.97248e-09 6.43031e-22 4.49596e-09)
(2.40167e-09 -2.15575e-08 -4.5406e-20 -4.2107e-09 -6.21096e-21 1.80903e-09)
(-1.05421e-08 -6.28563e-09 8.85562e-21 1.10977e-08 1.32868e-21 -5.55537e-10)
(-1.04568e-08 -1.02038e-08 2.61765e-20 9.57183e-09 3.48666e-21 8.84976e-10)
(-9.09613e-09 -1.38269e-08 -2.0731e-20 7.18369e-09 -2.81762e-21 1.91244e-09)
(-6.78876e-09 -1.66788e-08 -2.90493e-20 4.32416e-09 -3.94424e-21 2.4646e-09)
(-4.70707e-09 -1.86577e-08 -5.41476e-20 1.6963e-09 -7.07603e-21 3.01076e-09)
(-5.63213e-09 -2.06339e-08 1.1625e-19 6.58313e-10 1.54027e-20 4.97382e-09)
(1.97593e-09 -1.99695e-08 -7.82657e-20 -4.71369e-09 -1.02619e-20 2.73776e-09)
(-6.78712e-09 -4.32613e-09 2.46124e-20 7.70372e-09 3.29778e-21 -9.1661e-10)
(-6.63534e-09 -7.31882e-09 -8.64338e-21 6.58741e-09 -1.21854e-21 4.79283e-11)
(-5.6561e-09 -1.07066e-08 7.70904e-21 4.69222e-09 1.04092e-21 9.63882e-10)
(-4.13965e-09 -1.37538e-08 -4.49235e-20 2.3683e-09 -5.99323e-21 1.77134e-09)
(-2.87769e-09 -1.61567e-08 6.83718e-20 1.63514e-10 9.163e-21 2.71418e-09)
(-4.84397e-09 -1.85785e-08 -6.68109e-20 -2.6579e-10 -8.98668e-21 5.10976e-09)
(1.27292e-09 -1.76061e-08 9.20785e-20 -4.59444e-09 1.23343e-20 3.32152e-09)
(-3.15071e-09 -1.67522e-09 3.32577e-20 4.11322e-09 4.4514e-21 -9.62507e-10)
(-3.33077e-09 -3.40066e-09 1.69367e-20 3.80565e-09 2.26057e-21 -4.74872e-10)
(-2.64249e-09 -5.43219e-09 -1.48462e-20 2.8675e-09 -2.01232e-21 -2.25008e-10)
(-1.87652e-09 -8.03219e-09 -1.33535e-20 1.57325e-09 -1.82539e-21 3.03268e-10)
(-1.1766e-09 -1.07346e-08 -2.9455e-20 4.4556e-12 -3.83483e-21 1.17214e-09)
(-7.72187e-10 -1.33437e-08 -2.88121e-20 -1.58442e-09 -3.87642e-21 2.35661e-09)
(-3.63355e-09 -1.60958e-08 7.55754e-20 -1.43345e-09 1.01673e-20 5.067e-09)
(9.57172e-10 -1.47904e-08 -4.27847e-20 -4.5732e-09 -5.78456e-21 3.61603e-09)
(-4.98165e-10 -1.83309e-09 -1.66874e-20 1.22746e-09 -2.20651e-21 -7.29293e-10)
(-5.96629e-10 -3.53112e-09 2.8216e-20 9.10776e-10 3.67037e-21 -3.14147e-10)
(2.24259e-10 -5.15261e-09 -2.95123e-20 7.60073e-11 -3.83614e-21 -3.00266e-10)
(1.01452e-09 -6.9673e-09 -2.57908e-20 -9.71713e-10 -3.49114e-21 -4.28094e-11)
(1.52646e-09 -9.12327e-09 2.44141e-20 -2.20602e-09 3.2202e-21 6.79565e-10)
(1.596e-09 -1.17549e-08 4.80828e-20 -3.51386e-09 6.56746e-21 1.91787e-09)
(-1.56341e-09 -1.48908e-08 -8.90194e-21 -3.28765e-09 -1.36724e-21 4.85106e-09)
(2.48663e-09 -1.34316e-08 2.2324e-20 -6.48729e-09 3.06419e-21 4.00067e-09)
(2.89938e-09 -3.96062e-09 5.39506e-20 -2.31288e-09 7.23545e-21 -5.86495e-10)
(2.5623e-09 -5.66287e-09 -6.35989e-20 -2.2435e-09 -8.59902e-21 -3.18795e-10)
(3.16913e-09 -7.05494e-09 7.38424e-20 -2.62232e-09 9.9411e-21 -5.46815e-10)
(3.81485e-09 -8.41879e-09 -5.87385e-20 -3.10132e-09 -7.83156e-21 -7.13538e-10)
(4.12545e-09 -1.0145e-08 -6.63329e-20 -3.60111e-09 -8.92182e-21 -5.24344e-10)
(3.88519e-09 -1.25569e-08 9.61226e-20 -4.05391e-09 1.2885e-20 1.68713e-10)
(6.1212e-10 -1.49259e-08 -5.98525e-20 -2.98397e-09 -8.0389e-21 2.37185e-09)
(3.23145e-09 -1.23623e-08 4.70139e-20 -4.15519e-09 6.2523e-21 9.23734e-10)
(7.44981e-09 -1.01131e-08 7.95526e-21 -7.46248e-09 9.66531e-22 1.26698e-11)
(7.2849e-09 -1.23096e-08 -5.64479e-20 -8.00635e-09 -7.50026e-21 7.2145e-10)
(8.19649e-09 -1.40681e-08 3.69584e-20 -9.07114e-09 4.81685e-21 8.74646e-10)
(9.33564e-09 -1.55125e-08 -1.01526e-20 -1.02345e-08 -1.2115e-21 8.98893e-10)
(1.00834e-08 -1.7156e-08 -4.04973e-20 -1.12745e-08 -5.31777e-21 1.19109e-09)
(9.98585e-09 -1.96293e-08 1.08208e-19 -1.2155e-08 1.42993e-20 2.16917e-09)
(6.37839e-09 -2.34527e-08 -5.65292e-20 -1.16568e-08 -7.38886e-21 5.27837e-09)
(9.61763e-09 -2.23715e-08 1.15295e-20 -1.47271e-08 1.39057e-21 5.10947e-09)
(8.79836e-09 -1.27237e-08 -2.83194e-20 -3.91827e-09 -3.76121e-21 -4.88009e-09)
(7.48034e-09 -1.45732e-08 -2.86972e-20 -2.43492e-09 -3.76388e-21 -5.04543e-09)
(7.06692e-09 -1.633e-08 -4.60128e-20 -1.4801e-09 -6.2152e-21 -5.58682e-09)