/*--------------------------------*- C++ -*----------------------------------*\
| =========                 |                                                 |
| \\      /  F ield         | OpenFOAM: The Open Source CFD Toolbox           |
|  \\    /   O peration     | Version:  2506                                  |
|   \\  /    A nd           | Website:  www.openfoam.com                      |
|    \\/     M anipulation  |                                                 |
\*---------------------------------------------------------------------------*/
FoamFile
{
    version     2.0;
    format      ascii;
    arch        "LSB;label=32;scalar=64";
    class       volVectorField;
    location    "38";
    object      U;
}
// * * * * * * * * * * * * * * * * * * * * * * * * * * * * * * * * * * * * * //

dimensions      [0 1 -1 0 0 0 0];

internalField   nonuniform List<vector> 
400
(
(0.00164571 -0.0016535 0)
(0.00472372 -0.00185419 0)
(0.00641374 -0.00117919 0)
(0.00548121 -0.00056036 0)
(0.00140201 0.000197136 0)
(-0.00691416 0.00173526 0)
(-0.0205253 0.0047235 0)
(-0.0392173 0.00859999 0)
(-0.0602459 0.0111403 0)
(-0.0784413 0.0104195 0)
(-0.0891328 0.00676093 0)
(-0.0899192 0.00171711 0)
(-0.0799187 -0.00352143 0)
(-0.0599599 -0.00816115 0)
(-0.0337528 -0.0107442 0)
(-0.00572181 -0.00973777 0)
(0.0162193 -0.00481911 0)
(0.0240569 0.00268586 0)
(0.0159884 0.00637889 0)
(0.00428364 0.00466764 0)
(0.00165635 -0.00493277 0)
(0.002988 -0.00389229 0)
(-0.000638097 0.000643146 0)
(-0.0114697 0.00640957 0)
(-0.0313306 0.0139065 0)
(-0.0606682 0.0234725 0)
(-0.0959409 0.0326307 0)
(-0.130237 0.0366745 0)
(-0.157587 0.0332389 0)
(-0.1747 0.0233128 0)
(-0.180146 0.00920493 0)
(-0.173952 -0.00674388 0)
(-0.156691 -0.0228107 0)
(-0.129073 -0.0365034 0)
(-0.0933479 -0.0441894 0)
(-0.0522372 -0.0415968 0)
(-0.0116745 -0.0263309 0)
(0.016503 -0.0014997 0)
(0.0176396 0.0159585 0)
(0.00550018 0.0146607 0)
(-0.000296115 -0.00553642 0)
(-0.00547868 0.00100317 0)
(-0.0196156 0.0142535 0)
(-0.0442254 0.0309051 0)
(-0.0795987 0.0488423 0)
(-0.120968 0.0635523 0)
(-0.160733 0.0697944 0)
(-0.193412 0.0654475 0)
(-0.216877 0.0518611 0)
(-0.230524 0.0314871 0)
(-0.234354 0.00664992 0)
(-0.229009 -0.0206271 0)
(-0.214797 -0.0481906 0)
(-0.191216 -0.0724473 0)
(-0.15799 -0.0882813 0)
(-0.115088 -0.0886752 0)
(-0.0643076 -0.0668232 0)
(-0.0139437 -0.0229215 0)
(0.0093502 0.0175121 0)
(0.00415106 0.0233292 0)
(-0.00346329 0.000721224 0)
(-0.0174004 0.0173178 0)
(-0.0431333 0.0411267 0)
(-0.0788456 0.0673925 0)
(-0.121591 0.0900827 0)
(-0.164046 0.102721 0)
(-0.199822 0.101929 0)
(-0.226951 0.0889642 0)
(-0.245677 0.0669422 0)
(-0.256603 0.0385503 0)
(-0.260558 0.00565385 0)
(-0.258339 -0.0304286 0)
(-0.249882 -0.0674876 0)
(-0.234139 -0.102599 0)
(-0.209117 -0.130321 0)
(-0.17212 -0.141881 0)
(-0.120612 -0.125132 0)
(-0.0565712 -0.070794 0)
(-0.0010768 0.00314157 0)
(0.00473617 0.0279347 0)
(-0.0065899 0.0149172 0)
(-0.028395 0.0438733 0)
(-0.0625313 0.0762719 0)
(-0.103182 0.107641 0)
(-0.145519 0.129736 0)
(-0.182484 0.136794 0)
(-0.210603 0.128342 0)
(-0.230227 0.107907 0)
(-0.242641 0.0793308 0)
(-0.249565 0.0453931 0)
(-0.252694 0.00762262 0)
(-0.252963 -0.0331943 0)
(-0.250154 -0.0759308 0)
(-0.243688 -0.119284 0)
(-0.230757 -0.159315 0)
(-0.206738 -0.187592 0)
(-0.165611 -0.18882 0)
(-0.102735 -0.142255 0)
(-0.022129 -0.0390391 0)
(0.00730279 0.0267575 0)
(-0.00838696 0.0347254 0)
(-0.0346844 0.0759847 0)
(-0.0721015 0.113667 0)
(-0.111771 0.145999 0)
(-0.148641 0.164237 0)
(-0.177258 0.164334 0)
(-0.1966 0.148415 0)
(-0.208185 0.121508 0)
(-0.213991 0.0879568 0)
(-0.216506 0.0507464 0)
(-0.217732 0.0113364 0)
(-0.218697 -0.0298843 0)
(-0.219607 -0.0734193 0)
(-0.220527 -0.119686 0)
(-0.219247 -0.167487 0)
(-0.210642 -0.211335 0)
(-0.186631 -0.237026 0)
(-0.13866 -0.21733 0)
(-0.0623346 -0.11841 0)
(0.00571854 0.0139591 0)
(-0.00815148 0.056514 0)
(-0.0347898 0.10892 0)
(-0.0707827 0.148788 0)
(-0.105584 0.179128 0)
(-0.134911 0.191813 0)
(-0.155119 0.184637 0)
(-0.16684 0.161783 0)
(-0.172166 0.129359 0)
(-0.173508 0.0921465 0)
(-0.1734 0.0531758 0)
(-0.173406 0.0136838 0)
(-0.174235 -0.0263173 0)
(-0.176442 -0.0680239 0)
(-0.180552 -0.112792 0)
(-0.185878 -0.161776 0)
(-0.188725 -0.213812 0)
(-0.181155 -0.259848 0)
(-0.153184 -0.273603 0)
(-0.0985696 -0.204786 0)
(-0.00885008 -0.0147455 0)
(-0.00601585 0.0767614 0)
(-0.0292873 0.13906 0)
(-0.0604686 0.179154 0)
(-0.0885762 0.205979 0)
(-0.110341 0.212623 0)
(-0.123696 0.198545 0)
(-0.130171 0.169616 0)
(-0.132055 0.132798 0)
(-0.131819 0.0931208 0)
(-0.131461 0.0533344 0)
(-0.131719 0.014167 0)
(-0.132797 -0.0247968 0)
(-0.135167 -0.0646599 0)
(-0.139525 -0.106747 0)
(-0.146458 -0.153117 0)
(-0.154586 -0.206148 0)
(-0.157835 -0.263785 0)
(-0.145813 -0.306301 0)
(-0.111495 -0.275693 0)
(-0.0306549 -0.0748816 0)
(-0.00266059 0.092476 0)
(-0.0200361 0.163791 0)
(-0.0444002 0.203239 0)
(-0.0653116 0.225994 0)
(-0.0803874 0.227052 0)
(-0.0887137 0.207318 0)
(-0.0921288 0.173837 0)
(-0.0927685 0.134108 0)
(-0.092757 0.0931947 0)
(-0.0933161 0.0533871 0)
(-0.0945252 0.0147786 0)
(-0.0962947 -0.0234751 0)
(-0.098808 -0.0622435 0)
(-0.102582 -0.10232 0)
(-0.108773 -0.145444 0)
(-0.118087 -0.195645 0)
(-0.12727 -0.257308 0)
(-0.125806 -0.321389 0)
(-0.106894 -0.332884 0)
(-0.0370759 -0.162131 0)
(0.00121645 0.101413 0)
(-0.00874065 0.181355 0)
(-0.0251804 0.220561 0)
(-0.0389816 0.239976 0)
(-0.0483233 0.236849 0)
(-0.0530651 0.213114 0)
(-0.0548546 0.176597 0)
(-0.055349 0.135182 0)
(-0.056095 0.0938717 0)
(-0.0576748 0.0544265 0)
(-0.0598679 0.0163721 0)
(-0.062519 -0.0214224 0)
(-0.0656259 -0.0596932 0)
(-0.0693895 -0.0987608 0)
(-0.0747693 -0.139446 0)
(-0.0833678 -0.185551 0)
(-0.0952183 -0.24547 0)
(-0.100202 -0.322067 0)
(-0.0948187 -0.370247 0)
(-0.0307972 -0.240937 0)
(0.00502841 0.102512 0)
(0.00294528 0.190782 0)
(-0.00526158 0.230901 0)
(-0.012269 0.247873 0)
(-0.0165823 0.241898 0)
(-0.0183917 0.215908 0)
(-0.0189737 0.17807 0)
(-0.0193808 0.136268 0)
(-0.0205751 0.0952655 0)
(-0.0227438 0.0564366 0)
(-0.0255849 0.0190248 0)
(-0.0290177 -0.0181961 0)
(-0.0330578 -0.0559959 0)
(-0.0376744 -0.0945275 0)
(-0.0434398 -0.133826 0)
(-0.0516568 -0.176477 0)
(-0.0652128 -0.232397 0)
(-0.0740432 -0.315626 0)
(-0.0810424 -0.39464 0)
(-0.0228939 -0.305309 0)
(0.00826913 0.0961286 0)
(0.0139737 0.191727 0)
(0.0138718 0.234367 0)
(0.0134871 0.250597 0)
(0.0141111 0.243612 0)
(0.0153152 0.217119 0)
(0.0161923 0.179293 0)
(0.0162627 0.137859 0)
(0.0151206 0.0973798 0)
(0.0128207 0.0591614 0)
(0.00965195 0.0224743 0)
(0.00559435 -0.0139 0)
(0.000503353 -0.0508435 0)
(-0.00550942 -0.0885494 0)
(-0.0128519 -0.12672 0)
(-0.021772 -0.166522 0)
(-0.0375649 -0.217224 0)
(-0.0488603 -0.301897 0)
(-0.0679513 -0.406445 0)
(-0.0144865 -0.358184 0)
(0.010058 0.0834132 0)
(0.0229406 0.184235 0)
(0.0304975 0.230535 0)
(0.036341 0.247167 0)
(0.0419246 0.240407 0)
(0.0468103 0.214838 0)
(0.050178 0.17832 0)
(0.051772 0.138219 0)
(0.051543 0.0989137 0)
(0.0497161 0.0617738 0)
(0.0465599 0.0262578 0)
(0.042001 -0.00878445 0)
(0.0358555 -0.0443054 0)
(0.0282085 -0.0805792 0)
(0.0182987 -0.117279 0)
(0.00716563 -0.154743 0)
(-0.0121022 -0.20086 0)
(-0.0246651 -0.283846 0)
(-0.0560587 -0.409035 0)
(-0.00621375 -0.400155 0)
(0.00958971 0.0665729 0)
(0.0283725 0.168702 0)
(0.043462 0.219625 0)
(0.0558143 0.238468 0)
(0.0669404 0.233579 0)
(0.0764758 0.210419 0)
(0.0835468 0.176386 0)
(0.0878416 0.138369 0)
(0.0894419 0.100655 0)
(0.0886748 0.0648387 0)
(0.0858827 0.0307526 0)
(0.0808954 -0.00264111 0)
(0.0735304 -0.0360285 0)
(0.064042 -0.0700332 0)
(0.051117 -0.104479 0)
(0.0364967 -0.139321 0)
(0.0123814 -0.180835 0)
(-0.000605972 -0.260705 0)
(-0.0451528 -0.40491 0)
(0.00264107 -0.434776 0)
(0.00671864 0.0492006 0)
(0.0286296 0.147417 0)
(0.0500013 0.201334 0)
(0.068589 0.221927 0)
(0.0858131 0.219069 0)
(0.101277 0.199101 0)
(0.113724 0.168781 0)
(0.122466 0.13423 0)
(0.127423 0.0994649 0)
(0.128875 0.0661977 0)
(0.127107 0.0346533 0)
(0.122211 0.00400539 0)
(0.113689 -0.0261676 0)
(0.102187 -0.0567264 0)
(0.0854932 -0.087748 0)
(0.066699 -0.119885 0)
(0.037106 -0.15774 0)
(0.0230366 -0.234818 0)
(-0.0348885 -0.397388 0)
(0.0132882 -0.463282 0)
(0.00230545 0.0348102 0)
(0.0229974 0.122909 0)
(0.0497861 0.178103 0)
(0.0751005 0.200689 0)
(0.0994058 0.200305 0)
(0.121959 0.184044 0)
(0.141107 0.158236 0)
(0.155632 0.128127 0)
(0.165125 0.0973281 0)
(0.16982 0.0675473 0)
(0.169689 0.0393609 0)
(0.16546 0.0123358 0)
(0.155769 -0.0139073 0)
(0.142281 -0.0401211 0)
(0.121413 -0.0666438 0)
(0.0983326 -0.0950476 0)
(0.0630433 -0.13009 0)
(0.0460992 -0.205568 0)
(-0.0232427 -0.385995 0)
(0.028267 -0.484805 0)
(-0.00337408 0.0290804 0)
(0.00961074 0.101086 0)
(0.0360565 0.147355 0)
(0.0674192 0.167658 0)
(0.0998587 0.168757 0)
(0.131155 0.156562 0)
(0.158761 0.136343 0)
(0.180952 0.112232 0)
(0.196708 0.0872954 0)
(0.20639 0.0630578 0)
(0.209201 0.0402625 0)
(0.206897 0.0187526 0)
(0.196801 -0.00183 0)
(0.182424 -0.0220275 0)
(0.158067 -0.0423233 0)
(0.131976 -0.0658342 0)
(0.0911322 -0.0996926 0)
(0.068966 -0.178482 0)
(-0.00488521 -0.369365 0)
(0.0519041 -0.491259 0)
(-0.0136936 0.0189766 0)
(-0.00749614 0.0882307 0)
(0.0185544 0.123529 0)
(0.0551747 0.136182 0)
(0.0957203 0.135568 0)
(0.13553 0.126385 0)
(0.171273 0.111855 0)
(0.200663 0.0942784 0)
(0.222221 0.0760684 0)
(0.237031 0.0582124 0)
(0.242967 0.0416812 0)
(0.243852 0.026318 0)
(0.234732 0.0123168 0)
(0.223161 -0.00120332 0)
(0.19868 -0.0149817 0)
(0.175328 -0.0337901 0)
(0.131718 -0.0665393 0)
(0.106877 -0.145246 0)
(0.0370319 -0.326011 0)
(0.0921923 -0.455815 0)
(-0.105802 0.0827409 0)
(-0.0775888 0.0692334 0)
(-0.0486804 0.0731039 0)
(0.00317982 0.0773209 0)
(0.0561166 0.0774966 0)
(0.10827 0.0732018 0)
(0.15492 0.0659321 0)
(0.196807 0.0566442 0)
(0.228592 0.0471329 0)
(0.256486 0.0376499 0)
(0.272148 0.0291833 0)
(0.287308 0.0213736 0)
(0.287874 0.0147974 0)
(0.292258 0.00854013 0)
(0.276476 0.00170475 0)
(0.269772 -0.00943114 0)
(0.230997 -0.0350455 0)
(0.217524 -0.0951755 0)
(0.150076 -0.229714 0)
(0.170648 -0.3415 0)
(0.130093 0.103838 0)
(0.158587 0.0754746 0)
(0.212584 0.0534988 0)
(0.27106 0.0418299 0)
(0.323437 0.0360408 0)
(0.375555 0.03201 0)
(0.419802 0.0289429 0)
(0.464772 0.0255933 0)
(0.497597 0.0229239 0)
(0.532646 0.0197466 0)
(0.551995 0.0176097 0)
(0.577809 0.0146937 0)
(0.584054 0.0132774 0)
(0.602585 0.0104782 0)
(0.59428 0.00953341 0)
(0.60309 0.0051356 0)
(0.567596 0.000203558 0)
(0.54774 -0.0182426 0)
(0.43599 -0.0504039 0)
(0.336903 -0.101409 0)
)
;

boundaryField
{
    movingWall
    {
        type            fixedValue;
        value           uniform (1 0 0);
    }
    fixedWalls
    {
        type            noSlip;
    }
    frontAndBack
    {
        type            empty;
    }
}


// ************************************************************************* //
