/*--------------------------------*- C++ -*----------------------------------*\
| =========                 |                                                 |
| \\      /  F ield         | OpenFOAM: The Open Source CFD Toolbox           |
|  \\    /   O peration     | Version:  2506                                  |
|   \\  /    A nd           | Website:  www.openfoam.com                      |
|    \\/     M anipulation  |                                                 |
\*---------------------------------------------------------------------------*/
FoamFile
{
    version     2.0;
    format      ascii;
    arch        "LSB;label=32;scalar=64";
    class       volVectorField;
    location    "350";
    object      momentError;
}
// * * * * * * * * * * * * * * * * * * * * * * * * * * * * * * * * * * * * * //

dimensions      [0 1 -2 0 0 0 0];

internalField   nonuniform List<vector> 
1340
(
(-0.000103338 0.00010981 2.99483e-14)
(-0.000237358 0.000269015 -7.51813e-14)
(-0.000564796 0.000547316 9.5792e-14)
(-0.000601255 0.000417151 -6.00414e-14)
(-0.000471364 0.000269668 -1.46128e-13)
(-0.000415618 0.000215023 -1.64679e-13)
(-0.00038797 0.000178003 1.32097e-14)
(-0.000344152 0.000140237 1.3304e-13)
(-0.000297896 0.000113474 3.99424e-14)
(-0.00026338 9.51184e-05 -5.03091e-14)
(-0.000235486 8.13603e-05 -3.54766e-14)
(-0.0002116 6.96118e-05 -2.18189e-14)
(-0.000191347 6.06521e-05 3.90419e-14)
(-0.000175771 5.2198e-05 1.72971e-14)
(-0.000162665 4.53341e-05 2.5053e-14)
(-0.000152123 3.72189e-05 -3.38403e-14)
(-0.000138356 2.9487e-05 -2.46572e-14)
(-0.000119327 2.17576e-05 1.81858e-14)
(-9.78922e-05 1.83997e-05 1.24094e-14)
(-7.81983e-05 1.57558e-05 6.93145e-15)
(-6.31531e-05 3.19633e-06 -1.46281e-15)
(-5.5069e-05 -3.83176e-06 -2.84588e-16)
(-5.78714e-05 -9.71093e-06 2.30416e-16)
(-4.78853e-05 -6.36998e-06 -4.51162e-16)
(-3.03105e-05 -6.4591e-06 -1.86681e-15)
(-1.84485e-05 -6.16768e-06 -1.26053e-15)
(-1.757e-05 -6.2096e-06 -3.83715e-15)
(-1.57732e-06 -4.08074e-06 -2.90305e-15)
(-0.000489267 0.00073325 1.11448e-13)
(-0.00032235 0.000440745 5.95739e-14)
(-0.000398771 0.00045947 -8.26132e-14)
(-0.000570178 0.000504421 -1.06356e-14)
(-0.000624568 0.000356397 1.01899e-13)
(-0.00057076 0.000239925 -5.20943e-15)
(-0.000521641 0.000177698 1.22895e-14)
(-0.000483652 0.000122869 -2.4794e-14)
(-0.000436112 7.74464e-05 -3.2589e-14)
(-0.000385069 5.17461e-05 1.41535e-14)
(-0.000342713 3.67252e-05 1.70871e-14)
(-0.000307701 2.71373e-05 -5.80459e-14)
(-0.000277601 2.06447e-05 2.69307e-14)
(-0.00025216 1.66263e-05 1.78458e-14)
(-0.000231396 1.3399e-05 1.46794e-14)
(-0.000214097 1.02274e-05 3.19108e-14)
(-0.000198589 6.6301e-06 4.17848e-14)
(-0.000180665 4.0741e-08 1.76506e-14)
(-0.000158496 -6.91935e-06 -1.51666e-14)
(-0.000134823 -1.30026e-05 8.16032e-16)
(-0.000110914 -1.56334e-05 -5.6832e-15)
(-8.91668e-05 -1.59563e-05 -2.08635e-15)
(-7.7254e-05 -1.28162e-05 3.93468e-16)
(-7.13151e-05 -7.94741e-06 -3.85546e-17)
(-5.07672e-05 -1.11741e-05 2.82505e-16)
(-3.69089e-05 -7.09475e-06 6.13653e-16)
(-2.3106e-05 -6.86612e-06 1.84899e-15)
(7.24279e-06 -7.94827e-06 2.35297e-15)
(3.2418e-05 -7.93443e-06 7.64772e-16)
(-0.000486286 0.000794496 1.35435e-14)
(-0.000420237 0.000601208 -1.1765e-13)
(-0.000509315 0.000596467 -7.91847e-14)
(-0.000609068 0.000560426 -8.81279e-14)
(-0.000634407 0.000455199 9.75396e-14)
(-0.00059367 0.000362342 1.45311e-14)
(-0.000541098 0.000291402 -1.36526e-14)
(-0.000493088 0.000228148 -8.09001e-14)
(-0.000442666 0.000176562 -5.80897e-14)
(-0.000390655 0.000140776 3.78575e-14)
(-0.000345138 0.00011526 -2.13744e-14)
(-0.000307445 9.58835e-05 -4.39739e-14)
(-0.000275642 8.0892e-05 -4.00373e-15)
(-0.000248919 6.94226e-05 -4.02413e-14)
(-0.000227227 5.92434e-05 -4.30024e-14)
(-0.000209318 4.97334e-05 -8.433e-14)
(-0.000193154 3.90498e-05 -6.39476e-14)
(-0.000174645 2.69276e-05 -1.80002e-14)
(-0.000152359 1.6102e-05 3.95083e-15)
(-0.000128671 8.3744e-06 -1.14787e-15)
(-0.00010508 4.59862e-06 -1.053e-14)
(-8.28267e-05 2.07658e-06 4.47474e-15)
(-6.94696e-05 1.85035e-06 5.81927e-16)
(-6.3856e-05 -4.46226e-06 -1.81376e-16)
(-4.91795e-05 -6.16093e-06 -9.26734e-18)
(-3.36314e-05 -5.15783e-06 -5.33791e-16)
(-2.10578e-05 -3.23454e-06 -9.82613e-16)
(-1.37724e-06 -7.37392e-07 -1.46426e-15)
(3.48543e-05 7.2079e-06 1.86899e-15)
(-0.000548519 0.00122672 7.34773e-14)
(-0.000456189 0.000815707 -1.84169e-13)
(-0.000446239 0.00068726 1.69129e-13)
(-0.000559476 0.000690692 2.01518e-15)
(-0.000619195 0.000613594 -1.20418e-13)
(-0.000634739 0.000501932 -7.02443e-14)
(-0.000609716 0.000397139 -1.98381e-14)
(-0.000565097 0.000308792 5.95901e-14)
(-0.000517982 0.000234443 1.29282e-13)
(-0.000469282 0.000174317 2.11139e-14)
(-0.000418799 0.0001295 -4.7339e-14)
(-0.0003726 9.75136e-05 2.21991e-14)
(-0.000332717 7.44386e-05 5.00114e-14)
(-0.000298571 5.7513e-05 -3.67795e-15)
(-0.000269295 4.54091e-05 -7.78321e-15)
(-0.000245003 3.56306e-05 -2.14384e-14)
(-0.000224408 2.72209e-05 5.28098e-14)
(-0.00020544 1.81913e-05 3.09373e-14)
(-0.000184472 8.20352e-06 -1.07672e-14)
(-0.000160632 -7.30892e-07 -1.69138e-14)
(-0.000135967 -7.0711e-06 -6.96468e-15)
(-0.000111494 -1.01867e-05 1.26272e-14)
(-8.82461e-05 -1.19404e-05 -8.9152e-16)
(-7.33138e-05 -1.03446e-05 -5.13623e-16)
(-6.5372e-05 -1.1331e-05 2.01737e-16)
(-5.00736e-05 -1.4982e-05 -3.96503e-17)
(-3.49407e-05 -1.59719e-05 -3.66293e-17)
(-3.52042e-05 -6.14675e-05 2.73936e-16)
(-7.10693e-05 -0.00024214 5.10723e-16)
(0.000104271 0.000280251 -3.23313e-15)
(-0.000480849 0.00112726 -6.87655e-14)
(-0.000448836 0.000861288 -7.24458e-14)
(-0.000478749 0.000765032 1.50456e-13)
(-0.000568452 0.000727635 1.26929e-13)
(-0.000613816 0.000640871 3.56523e-14)
(-0.000623856 0.000536322 -5.19407e-14)
(-0.000604772 0.000435454 5.91831e-14)
(-0.000565735 0.000346818 4.5427e-14)
(-0.000520763 0.000272387 -3.98337e-15)
(-0.00047437 0.000211827 -9.37222e-14)
(-0.000425761 0.000164763 3.96478e-15)
(-0.000380156 0.000129846 3.73033e-15)
(-0.00033947 0.000103888 2.06862e-16)
(-0.000304235 8.41791e-05 1.51387e-14)
(-0.00027369 6.92375e-05 -5.43048e-15)
(-0.000247961 5.68017e-05 1.23016e-14)
(-0.000225946 4.58551e-05 -2.67257e-14)
(-0.000205638 3.41826e-05 -1.5366e-14)
(-0.000183725 2.20423e-05 1.5503e-14)
(-0.00015962 1.11866e-05 2.09549e-14)
(-0.000135002 3.62102e-06 1.25548e-15)
(-0.000110517 -4.96108e-07 -1.23719e-15)
(-8.72894e-05 -2.26857e-06 -3.2605e-15)
(-7.19946e-05 -8.35389e-07 6.54429e-16)
(-6.36267e-05 -4.39975e-06 -1.04657e-16)
(-4.80871e-05 -6.48585e-06 -5.31048e-16)
(-3.06789e-05 5.19152e-06 -2.81658e-17)
(-1.43505e-05 7.16962e-05 7.93714e-17)
(3.02219e-05 0.000304324 -6.81964e-17)
(-3.1619e-05 -0.000469709 -9.2926e-16)
(-0.000423087 0.00133512 4.67877e-15)
(-0.000417763 0.00103083 -7.81781e-14)
(-0.000423031 0.000852342 -2.94249e-14)
(-0.00048088 0.000793657 -3.5063e-14)
(-0.00055551 0.000743016 2.74162e-14)
(-0.000592445 0.000653045 1.35737e-13)
(-0.000601246 0.000552973 -3.03599e-14)
(-0.000587613 0.000455609 -5.88491e-14)
(-0.000555872 0.000366925 2.49992e-15)
(-0.000516627 0.000290972 -5.12985e-14)
(-0.000474926 0.000228067 1.70042e-14)
(-0.000430412 0.000177297 2.54115e-14)
(-0.000387298 0.000137867 3.93186e-14)
(-0.000347656 0.000107555 1.50496e-14)
(-0.000312572 8.42143e-05 -1.77035e-14)
(-0.000281674 6.62476e-05 2.27268e-14)
(-0.000254991 5.17748e-05 2.51839e-14)
(-0.000231703 3.92745e-05 1.82603e-14)
(-0.000209905 2.6978e-05 3.816e-15)
(-0.00018692 1.47774e-05 -1.44107e-14)
(-0.000162214 4.14258e-06 1.18026e-14)
(-0.000137416 -3.52494e-06 3.28053e-15)
(-0.000112684 -7.55392e-06 -1.13722e-14)
(-8.92561e-05 -9.26324e-06 1.22358e-15)
(-7.32857e-05 -7.54766e-06 -1.18529e-16)
(-6.40382e-05 -1.01332e-05 2.05698e-16)
(-4.84949e-05 -1.31275e-05 6.67792e-16)
(-2.98938e-05 -1.29616e-05 -1.60713e-16)
(-9.63903e-06 -2.95863e-05 -2.52194e-16)
(2.99594e-05 -9.45871e-05 5.63529e-16)
(-5.39958e-05 0.000200622 1.39526e-15)
(-0.000362526 0.00119091 7.3823e-15)
(-0.000366256 0.000934597 1.10915e-14)
(-0.000392399 0.000823582 8.06422e-14)
(-0.000463164 0.000786798 -1.01461e-13)
(-0.000527894 0.00073221 -3.27999e-14)
(-0.000562373 0.000648404 -3.11498e-14)
(-0.00057229 0.000556023 1.17309e-13)
(-0.000562784 0.0004651 -4.64478e-14)
(-0.000537249 0.00038061 -4.56507e-15)
(-0.000504253 0.000307133 1.85401e-14)
(-0.000467647 0.000245527 1.77852e-14)
(-0.000427409 0.000194365 1.20874e-14)
(-0.000387451 0.000153492 -7.68281e-14)
(-0.000349598 0.000121331 -2.81423e-14)
(-0.000315211 9.62774e-05 3.58182e-14)
(-0.000284374 7.65672e-05 1.42851e-15)
(-0.000257228 6.07341e-05 3.63876e-14)
(-0.000233014 4.68687e-05 -1.0391e-14)
(-0.00021022 3.3624e-05 1.50681e-15)
(-0.000186562 2.05832e-05 2.42368e-14)
(-0.000161806 9.22554e-06 -2.03644e-14)
(-0.000137135 7.75881e-07 -6.99038e-15)
(-0.000112612 -4.05691e-06 6.58293e-15)
(-8.92301e-05 -5.9294e-06 2.19827e-15)
(-7.29239e-05 -4.4276e-06 -1.14245e-18)
(-6.30634e-05 -6.8499e-06 -2.57246e-16)
(-4.79465e-05 -8.90751e-06 6.3805e-16)
(-3.03066e-05 -5.50479e-06 7.49552e-17)
(-1.66806e-05 -4.55544e-06 -1.08155e-15)
(-2.32896e-06 -8.23688e-07 5.42143e-17)
(2.58379e-06 4.36152e-06 -3.1638e-15)
(-0.000312693 0.00105895 3.14374e-15)
(-0.000329992 0.000873172 1.01652e-13)
(-0.00037251 0.000801884 1.36656e-13)
(-0.000444722 0.000772522 -5.30041e-14)
(-0.000493958 0.000706717 -7.25301e-14)
(-0.000525591 0.000630302 -5.54125e-14)
(-0.000538025 0.000547928 -1.02167e-13)
(-0.000532894 0.000465148 -5.52986e-15)
(-0.000513139 0.000386283 -4.30513e-14)
(-0.000486352 0.000316541 5.78122e-14)
(-0.00045527 0.000256762 1.93969e-14)
(-0.000419864 0.000205734 -3.07517e-14)
(-0.000383784 0.00016366 -3.26228e-15)
(-0.000348559 0.000129649 -2.54414e-14)
(-0.000315748 0.0001025 2.79082e-15)
(-0.000285646 8.07573e-05 -1.77689e-14)
(-0.000258609 6.3002e-05 -3.33812e-14)
(-0.000233928 4.76412e-05 1.47964e-14)
(-0.000210497 3.33339e-05 -2.76269e-14)
(-0.000186359 1.97697e-05 -1.00669e-14)
(-0.000161691 7.90799e-06 6.28624e-15)
(-0.00013723 -9.8701e-07 3.97157e-15)
(-0.000112986 -6.48373e-06 1.56341e-15)
(-8.97406e-05 -8.50208e-06 -1.0352e-15)
(-7.30848e-05 -7.27341e-06 -4.35206e-16)
(-6.25614e-05 -9.01849e-06 -7.72629e-17)
(-4.76747e-05 -1.12052e-05 -1.03099e-15)
(-2.98462e-05 -8.2388e-06 5.53911e-16)
(-1.57418e-05 -7.58633e-06 3.06583e-15)
(-4.75657e-07 -7.57704e-06 5.13449e-17)
(1.68129e-05 -1.10126e-05 2.49834e-15)
(-0.000242458 0.00112085 9.71618e-14)
(-0.000272249 0.000945501 6.43184e-14)
(-0.00029906 0.000816471 -1.65788e-13)
(-0.000342589 0.000748188 -1.14062e-13)
(-0.000417489 0.000739037 -3.87778e-14)
(-0.000464499 0.000683932 7.08616e-14)
(-0.00048752 0.000605607 7.32056e-14)
(-0.000501001 0.000531304 2.72965e-14)
(-0.000499875 0.000457296 2.5044e-14)
(-0.000485572 0.000385578 -2.67414e-14)
(-0.000464627 0.000321072 -8.73383e-14)
(-0.000438764 0.000264399 1.34155e-14)
(-0.000408148 0.000214802 2.70948e-14)
(-0.000376189 0.000172902 1.84382e-14)
(-0.00034388 0.000138203 5.10872e-14)
(-0.000313123 0.000109936 -2.84815e-14)
(-0.000284217 8.70269e-05 -2.12619e-14)
(-0.000257634 6.80277e-05 -1.5319e-14)
(-0.000232852 5.1664e-05 -3.15584e-15)
(-0.000209067 3.66579e-05 2.46394e-14)
(-0.000184795 2.26911e-05 1.64559e-14)
(-0.000160347 1.04533e-05 1.90886e-14)
(-0.000136336 1.03133e-06 6.47053e-15)
(-0.000112494 -5.05537e-06 2.83014e-17)
(-8.96536e-05 -7.58651e-06 2.21336e-15)
(-7.27685e-05 -6.38249e-06 -3.08485e-16)
(-6.17532e-05 -7.82832e-06 3.02192e-16)
(-4.7059e-05 -9.65258e-06 -3.79905e-16)
(-2.93432e-05 -6.82222e-06 3.187e-17)
(-1.51204e-05 -5.60804e-06 -1.76073e-15)
(-8.91446e-07 -3.51875e-06 4.23797e-16)
(1.49229e-05 -1.57222e-06 4.63175e-15)
(-0.000238687 0.000845795 1.02128e-13)
(-0.000270882 0.000758719 1.87081e-14)
(-0.000326963 0.00072989 -2.78769e-15)
(-0.000373135 0.000670458 -9.34347e-14)
(-0.000428243 0.000645228 -3.88184e-14)
(-0.000453034 0.000580899 5.64903e-14)
(-0.000464531 0.000511006 6.41651e-14)
(-0.000465873 0.00044434 1.04452e-13)
(-0.000455923 0.000379737 9.98136e-14)
(-0.000440231 0.00032087 -2.10593e-14)
(-0.000419396 0.000268072 -8.11399e-15)
(-0.000393315 0.00022054 1.57309e-14)
(-0.000365435 0.000179539 3.48494e-15)
(-0.000336414 0.000144719 1.13515e-14)
(-0.000308036 0.000115806 3.09256e-14)
(-0.000280751 9.1827e-05 8.31712e-17)
(-0.000255023 7.17605e-05 -1.26207e-14)
(-0.000230535 5.4335e-05 -5.7631e-15)
(-0.000206754 3.86337e-05 2.63283e-15)
(-0.00018257 2.41681e-05 1.12632e-15)
(-0.000158532 1.15814e-05 -3.97072e-15)
(-0.000135077 1.60731e-06 -8.91634e-15)
(-0.000111779 -5.04782e-06 5.54165e-16)
(-8.94878e-05 -8.18625e-06 -1.41949e-15)
(-7.25216e-05 -7.22172e-06 4.54826e-16)
(-6.09889e-05 -8.47579e-06 6.53916e-17)
(-4.6436e-05 -1.01637e-05 2.1651e-16)
(-2.89617e-05 -7.68579e-06 1.7477e-15)
(-1.4424e-05 -5.99894e-06 2.52589e-15)
(-1.75139e-07 -3.83706e-06 -1.92817e-15)
(1.58915e-05 -1.80239e-06 -6.47636e-15)
(-0.000244326 0.000697552 9.93867e-15)
(-0.000308005 0.000700709 7.45252e-14)
(-0.000357863 0.000660482 -9.30779e-14)
(-0.000378377 0.000579137 1.36918e-15)
(-0.000415592 0.000545897 2.55373e-14)
(-0.000429352 0.000487101 -1.08719e-13)
(-0.000432485 0.000427982 -1.63284e-13)
(-0.000425992 0.000370318 2.25682e-14)
(-0.000414595 0.000317223 2.43315e-14)
(-0.000398099 0.000268467 -1.70257e-14)
(-0.000376201 0.00022362 -1.6472e-14)
(-0.000352183 0.00018413 -3.75652e-14)
(-0.000326533 0.000149917 3.35304e-14)
(-0.000300778 0.000120963 2.9375e-14)
(-0.00027532 9.64772e-05 9.06541e-15)
(-0.000250748 7.56471e-05 3.06027e-14)
(-0.00022687 5.7523e-05 2.85575e-14)
(-0.000203352 4.12965e-05 1.14274e-15)
(-0.000179505 2.65547e-05 -4.24748e-14)
(-0.000156055 1.37121e-05 -9.03133e-15)
(-0.000133238 3.39424e-06 -2.4434e-15)
(-0.000110639 -3.8013e-06 -7.61576e-15)
(-8.89799e-05 -7.41386e-06 -4.13993e-17)
(-7.21063e-05 -6.97711e-06 -9.25595e-17)
(-6.01255e-05 -7.95515e-06 2.1932e-16)
(-4.5744e-05 -9.67946e-06 -2.34849e-16)
(-2.85571e-05 -7.36905e-06 -1.8141e-16)
(-1.37598e-05 -5.39535e-06 2.31679e-17)
(5.65689e-07 -2.94385e-06 -4.45407e-15)
(1.65919e-05 -7.91288e-07 2.7294e-15)
(-0.00027533 0.000630746 -7.0086e-14)
(-0.000341107 0.000643445 7.50895e-14)
(-0.00036635 0.000577091 5.83741e-14)
(-0.000368125 0.000492138 7.79314e-14)
(-0.0003925 0.000456265 7.72727e-14)
(-0.000399014 0.000407176 -5.4246e-14)
(-0.000395799 0.000357132 -5.91132e-14)
(-0.000388164 0.000310196 4.22783e-14)
(-0.000375661 0.000265955 1.36129e-14)
(-0.000357521 0.000224179 2.77765e-15)
(-0.000337154 0.000186658 -5.28854e-15)
(-0.000314753 0.0001536 -8.11538e-14)
(-0.000291707 0.000124987 -3.57946e-14)
(-0.000268262 0.000100376 -1.46664e-14)
(-0.00024509 7.90738e-05 -3.10059e-14)
(-0.000222071 6.04513e-05 -1.60441e-14)
(-0.000199054 4.3787e-05 3.6702e-15)
(-0.000175774 2.87861e-05 2.51798e-14)
(-0.000153019 1.57351e-05 1.37419e-15)
(-0.000130958 5.11033e-06 1.15445e-14)
(-0.00010914 -2.53388e-06 8.95733e-15)
(-8.82625e-05 -6.67334e-06 1.08881e-15)
(-7.16023e-05 -6.84269e-06 -1.28722e-15)
(-5.92516e-05 -7.83704e-06 -2.04724e-16)
(-4.49922e-05 -9.62695e-06 -2.23951e-16)
(-2.81439e-05 -7.69276e-06 3.6419e-16)
(-1.31163e-05 -5.41358e-06 -2.99524e-16)
(1.33531e-06 -2.58446e-06 1.83762e-15)
(1.72817e-05 -1.90751e-07 2.59597e-15)
(-0.000294355 0.000556753 9.77239e-14)
(-0.000354535 0.000573458 6.41762e-15)
(-0.000347859 0.000477265 -5.21806e-14)
(-0.000357489 0.000425078 4.48775e-14)
(-0.000366886 0.000384719 9.55721e-14)
(-0.000366251 0.000341579 1.6607e-14)
(-0.00036166 0.000300444 -6.74018e-14)
(-0.000352446 0.00026079 3.37449e-14)
(-0.000337856 0.000222375 1.38589e-14)
(-0.00032088 0.00018733 1.9315e-15)
(-0.000301635 0.000155812 2.00005e-15)
(-0.000281144 0.000128028 -5.0173e-14)
(-0.000259775 0.00010357 6.39172e-15)
(-0.000238154 8.21988e-05 3.20108e-15)
(-0.000216197 6.32754e-05 2.24619e-16)
(-0.000193933 4.64172e-05 -3.34582e-16)
(-0.000171371 3.12306e-05 9.53668e-15)
(-0.000149426 1.81253e-05 1.79735e-14)
(-0.000128223 7.27928e-06 -8.92463e-15)
(-0.000107256 -6.33859e-07 -6.21576e-15)
(-8.72354e-05 -5.31742e-06 1.65626e-15)
(-7.08715e-05 -6.09265e-06 1.03177e-15)
(-5.82694e-05 -7.31438e-06 -3.46484e-16)
(-4.41517e-05 -9.24543e-06 -1.55435e-16)
(-2.77147e-05 -7.68482e-06 -1.80275e-15)
(-1.25107e-05 -5.13025e-06 2.26678e-15)
(2.06289e-06 -2.00808e-06 1.93944e-15)
(1.78321e-05 9.14349e-07 -8.87489e-15)
(-0.000297134 0.000478794 -2.06127e-14)
(-0.000359842 0.000512108 3.4514e-14)
(-0.000322472 0.000392464 -2.647e-14)
(-0.000336925 0.000362829 -3.31977e-14)
(-0.000338402 0.00032547 1.41595e-14)
(-0.000336106 0.000289339 3.36166e-14)
(-0.000329442 0.000253902 -4.79475e-14)
(-0.000317801 0.000218795 1.00897e-14)
(-0.000303875 0.000186368 2.92537e-14)
(-0.000287574 0.000156707 2.8092e-14)
(-0.000269529 0.000130045 2.81831e-14)
(-0.000250167 0.000106089 1.28362e-14)
(-0.000230133 8.48544e-05 5.79816e-15)
(-0.000209384 6.58845e-05 9.13064e-15)
(-0.000188051 4.89308e-05 1.09404e-14)
(-0.000166337 3.37124e-05 -1.34859e-14)
(-0.000145317 2.0576e-05 -1.64112e-14)
(-0.000125031 9.63187e-06 -7.63009e-16)
(-0.00010501 1.4576e-06 -2.97517e-15)
(-8.59022e-05 -3.65147e-06 -1.56559e-15)
(-6.99772e-05 -5.14482e-06 -4.87784e-16)
(-5.71758e-05 -6.67186e-06 2.58085e-16)
(-4.32303e-05 -8.86158e-06 1.64941e-15)
(-2.72746e-05 -7.67565e-06 -1.77007e-15)
(-1.19515e-05 -5.07388e-06 -4.73683e-15)
(2.74748e-06 -1.59547e-06 6.02402e-15)
(1.83293e-05 1.9032e-06 2.14079e-15)
(-0.000311052 0.000443473 -3.65764e-14)
(-0.000320891 0.000405393 -5.92282e-14)
(-0.00030463 0.000335801 -2.15357e-14)
(-0.000310254 0.000306357 -2.56377e-14)
(-0.000310618 0.000275812 -1.09416e-15)
(-0.000306511 0.000244816 4.38359e-15)
(-0.000297609 0.000213466 -4.33729e-14)
(-0.000286455 0.000183817 7.73098e-15)
(-0.000272758 0.000156304 -2.55357e-14)
(-0.000257032 0.000130962 -1.64601e-14)
(-0.000239605 0.000107869 3.05068e-14)
(-0.000221178 8.70058e-05 -1.76407e-14)
(-0.000201732 6.8265e-05 -3.17506e-14)
(-0.000181446 5.1337e-05 2.42532e-15)
(-0.000160705 3.62403e-05 1.6905e-14)
(-0.000140727 2.31411e-05 2.45119e-15)
(-0.000121436 1.22564e-05 -3.65698e-15)
(-0.000102409 3.86803e-06 1.08241e-15)
(-8.42546e-05 -1.5579e-06 2.94358e-16)
(-6.88075e-05 -3.80873e-06 -6.61526e-16)
(-5.59357e-05 -5.76965e-06 4.49169e-16)
(-4.22171e-05 -8.14905e-06 -1.26765e-15)
(-2.67781e-05 -7.4496e-06 -1.32112e-16)
(-1.14314e-05 -4.88219e-06 -2.16976e-16)
(3.36231e-06 -1.0499e-06 2.06701e-15)
(1.86807e-05 3.00008e-06 8.07372e-15)
(-0.000260805 0.000372546 -2.18526e-14)
(-0.00032209 0.000415954 -5.97847e-14)
(-0.000278042 0.000313968 -9.68092e-15)
(-0.000284584 0.000288704 4.24537e-15)
(-0.000286846 0.000262213 -2.73763e-14)
(-0.000284752 0.000235092 5.8247e-14)
(-0.000278005 0.000207187 5.85417e-14)
(-0.000269217 0.000180396 -1.39529e-15)
(-0.000257694 0.000154943 2.07579e-14)
(-0.000244003 0.000131087 -1.46698e-14)
(-0.000228364 0.000108959 1.59353e-14)
(-0.000211504 8.87173e-05 3.7299e-14)
(-0.000193434 7.0333e-05 1.55842e-15)
(-0.000174285 5.36303e-05 -2.66319e-14)
(-0.000154626 3.87025e-05 -8.15188e-15)
(-0.000135732 2.57467e-05 7.6463e-15)
(-0.000117509 1.49158e-05 3.80769e-15)
(-9.95086e-05 6.45169e-06 6.89486e-15)
(-8.23555e-05 6.76798e-07 -2.89453e-15)
(-6.74375e-05 -2.211e-06 4.79025e-17)
(-5.46046e-05 -4.69343e-06 -1.94248e-16)
(-4.11419e-05 -7.19421e-06 1.13749e-16)
(-2.62807e-05 -7.075e-06 2.43695e-16)
(-1.10052e-05 -4.60661e-06 -1.7694e-15)
(3.86494e-06 -6.37873e-07 -1.35673e-14)
(1.89088e-05 4.03398e-06 -1.42111e-14)
(-0.000272926 0.000351922 -4.60346e-14)
(-0.000286698 0.000336242 9.54396e-15)
(-0.000258284 0.000268471 4.26148e-14)
(-0.000262264 0.000246207 2.86932e-14)
(-0.000262406 0.000223181 -2.1764e-14)
(-0.000258106 0.000199078 1.93882e-14)
(-0.000251617 0.000175547 -1.61463e-14)
(-0.000242224 0.000152374 6.79385e-16)
(-0.000230443 0.00013025 1.84829e-14)
(-0.000216568 0.000109273 -1.61898e-14)
(-0.000201264 8.98824e-05 1.64408e-14)
(-0.000184592 7.1992e-05 1.33429e-14)
(-0.000166668 5.5698e-05 1.02313e-14)
(-0.000148179 4.1044e-05 -8.5939e-15)
(-0.000130427 2.83894e-05 -6.7275e-15)
(-0.000113307 1.76229e-05 -2.51504e-15)
(-9.63584e-05 9.17368e-06 -4.99862e-15)
(-8.01839e-05 3.08387e-06 5.99332e-16)
(-6.58341e-05 -3.78585e-07 1.968e-15)
(-5.31338e-05 -3.35618e-06 -2.08814e-16)
(-4.00013e-05 -5.97493e-06 1.18736e-15)
(-2.57173e-05 -6.33565e-06 -7.04523e-16)
(-1.06014e-05 -4.17209e-06 1.52973e-15)
(4.2754e-06 -7.45579e-08 9.63094e-15)
(1.89345e-05 5.16427e-06 7.21131e-15)
(-0.000226606 0.000292897 -7.79671e-14)
(-0.000280612 0.000334237 -4.35801e-14)
(-0.000240977 0.000256495 1.25073e-14)
(-0.000243315 0.000234409 -1.09357e-14)
(-0.00024296 0.000213004 -3.42823e-14)
(-0.00023981 0.000191428 -5.21853e-14)
(-0.000234794 0.000170365 2.35344e-14)
(-0.000227044 0.000149291 -2.29745e-14)
(-0.000216884 0.000128734 -1.05776e-14)
(-0.000204587 0.000109001 -2.23713e-14)
(-0.000190796 9.05249e-05 -4.10727e-14)
(-0.000175484 7.33239e-05 -1.27661e-14)
(-0.000158793 5.75047e-05 1.32929e-14)
(-0.000141462 4.32419e-05 1.14185e-14)
(-0.00012489 3.08413e-05 6.85046e-16)
(-0.00010886 2.02883e-05 4.40487e-15)
(-9.29898e-05 1.18132e-05 -2.54284e-15)
(-7.77752e-05 5.55178e-06 -6.59407e-17)
(-6.40467e-05 1.52611e-06 7.90625e-16)
(-5.1563e-05 -1.78376e-06 -5.64723e-16)
(-3.88136e-05 -4.59205e-06 2.56335e-16)
(-2.51193e-05 -5.30821e-06 1.23994e-15)
(-1.03319e-05 -3.57248e-06 -1.11493e-15)
(4.44379e-06 5.50862e-07 -1.63845e-15)
(1.88065e-05 6.21061e-06 7.724e-15)
(-0.000243649 0.000289128 -8.8958e-14)
(-0.000242301 0.000266589 -1.20436e-14)
(-0.000220871 0.000218096 6.61007e-15)
(-0.000223613 0.000201017 4.73028e-14)
(-0.000221739 0.000182641 1.07964e-14)
(-0.000218376 0.000164271 -1.75586e-14)
(-0.000212138 0.000145394 3.19515e-14)
(-0.0002035 0.000126481 9.19225e-16)
(-0.000192643 0.000108086 2.48682e-14)
(-0.000180226 9.05923e-05 1.12483e-14)
(-0.000166219 7.4214e-05 2.94392e-15)
(-0.000150739 5.89734e-05 2.1522e-15)
(-0.000134553 4.52319e-05 -6.94572e-15)
(-0.000119109 3.3091e-05 -3.2107e-15)
(-0.000104187 2.28157e-05 1.16747e-15)
(-8.9372e-05 1.43572e-05 1.32002e-15)
(-7.51141e-05 7.98967e-06 7.6032e-16)
(-6.2001e-05 3.52694e-06 -7.29569e-16)
(-4.98515e-05 -6.74855e-08 4.34298e-17)
(-3.75067e-05 -2.96342e-06 -2.52985e-15)
(-2.44078e-05 -4.02296e-06 1.78024e-15)
(-1.01074e-05 -2.61799e-06 6.53328e-15)
(4.42731e-06 1.28211e-06 -2.57363e-15)
(1.85597e-05 7.49903e-06 -8.0838e-15)
(-0.000215932 0.000259609 2.50409e-14)
(-0.000230894 0.000257173 -2.6774e-15)
(-0.000200405 0.000201703 2.65381e-14)
(-0.000204208 0.000187906 -2.1655e-14)
(-0.00020427 0.00017275 1.36289e-14)
(-0.000202363 0.000157141 -1.45136e-14)
(-0.000197546 0.000140495 1.04247e-14)
(-0.000190263 0.000123401 1.15768e-14)
(-0.000180773 0.000106414 -4.0861e-15)
(-0.000169652 9.01024e-05 1.69039e-14)
(-0.000156866 7.45991e-05 -9.92668e-15)
(-0.000142539 6.00847e-05 -1.06635e-14)
(-0.000127482 4.68106e-05 9.05116e-15)
(-0.000113124 3.50979e-05 -3.94545e-15)
(-9.93119e-05 2.50512e-05 -8.01716e-15)
(-8.55391e-05 1.67361e-05 4.13752e-16)
(-7.22334e-05 1.02705e-05 4.71097e-16)
(-5.97727e-05 5.54762e-06 -8.83074e-16)
(-4.804e-05 1.72641e-06 9.72934e-16)
(-3.61443e-05 -1.20139e-06 -7.83043e-16)
(-2.36498e-05 -2.54739e-06 -5.88119e-16)
(-9.95927e-06 -1.44283e-06 3.33663e-17)
(4.20619e-06 2.1778e-06 2.52532e-15)
(1.81426e-05 8.76775e-06 4.35153e-16)
(-0.00017789 0.000214561 1.76216e-14)
(-0.000229265 0.000257716 -5.96954e-15)
(-0.000185949 0.000190774 5.20621e-15)
(-0.000188696 0.000177419 6.02646e-15)
(-0.00018901 0.000163656 -1.20491e-14)
(-0.000187911 0.00015005 1.32332e-14)
(-0.000184014 0.000135334 -5.32185e-15)
(-0.000177679 0.000119923 6.2418e-15)
(-0.000169297 0.000104297 -2.04316e-14)
(-0.000159274 8.91452e-05 -4.15826e-15)
(-0.000147615 7.45762e-05 1.63898e-14)
(-0.000134305 6.08107e-05 -8.85798e-15)
(-0.000120265 4.80001e-05 -9.26725e-15)
(-0.000106996 3.67328e-05 4.51104e-15)
(-9.42579e-05 2.69799e-05 5.42069e-15)
(-8.15245e-05 1.88462e-05 2.9602e-15)
(-6.91351e-05 1.2393e-05 -1.93766e-15)
(-5.73587e-05 7.50071e-06 3.06923e-16)
(-4.6091e-05 3.58383e-06 -4.65254e-18)
(-3.46872e-05 6.22698e-07 2.61333e-15)
(-2.27875e-05 -8.60016e-07 -2.93106e-15)
(-9.7434e-06 -6.79488e-08 -5.29559e-15)
(3.97988e-06 3.38121e-06 1.26515e-15)
(1.75905e-05 1.00878e-05 3.89962e-15)
(-0.000185021 0.000206459 -5.35642e-15)
(-0.000204737 0.000214931 1.10041e-14)
(-0.000171418 0.000164902 6.5896e-15)
(-0.000173327 0.000153223 -2.65224e-14)
(-0.000173173 0.000141549 -2.28008e-14)
(-0.000170495 0.000129126 -1.42411e-14)
(-0.000165244 0.000115563 7.72017e-15)
(-0.000157929 0.000101528 2.19056e-14)
(-0.00014896 8.75832e-05 -1.47463e-14)
(-0.000138358 7.40659e-05 -2.40148e-15)
(-0.000126048 6.09799e-05 8.55917e-15)
(-0.00011299 4.87618e-05 -1.64315e-15)
(-0.000100782 3.79168e-05 -3.97153e-16)
(-8.91003e-05 2.85602e-05 1.02491e-15)
(-7.7397e-05 2.06504e-05 4.47175e-15)
(-6.59218e-05 1.43124e-05 -9.28873e-16)
(-5.48471e-05 9.346e-06 -1.29671e-15)
(-4.41043e-05 5.42671e-06 -6.07547e-16)
(-3.32246e-05 2.46013e-06 2.95251e-16)
(-2.19314e-05 9.27723e-07 1.68656e-15)
(-9.58398e-06 1.4637e-06 2.66543e-15)
(3.59947e-06 4.76787e-06 3.21865e-15)
(1.67808e-05 1.15081e-05 -2.95671e-15)
(-0.000151454 0.00017062 -4.89236e-14)
(-0.00019904 0.000209726 -2.74713e-14)
(-0.00016176 0.000158043 2.30669e-15)
(-0.000161821 0.000145655 -2.43901e-15)
(-0.000161239 0.000134589 -2.05932e-15)
(-0.000158767 0.000123394 1.24849e-14)
(-0.000153895 0.000111353 -6.07631e-16)
(-0.000147222 9.8578e-05 -4.07954e-15)
(-0.000139055 8.57429e-05 -3.41432e-15)
(-0.000129318 7.30999e-05 2.59258e-15)
(-0.000117876 6.06571e-05 5.31823e-15)
(-0.000105753 4.89898e-05 4.45214e-15)
(-9.45513e-05 3.86494e-05 4.04448e-15)
(-8.39185e-05 2.97151e-05 1.85913e-15)
(-7.31895e-05 2.213e-05 2.08374e-15)
(-6.25969e-05 1.59632e-05 4.18638e-16)
(-5.22269e-05 1.10479e-05 6.27591e-17)
(-4.20349e-05 7.17225e-06 1.51181e-16)
(-3.16858e-05 4.27498e-06 1.15749e-15)
(-2.10051e-05 2.73921e-06 1.64691e-15)
(-9.35402e-06 3.15126e-06 -5.45087e-15)
(3.23175e-06 6.28936e-06 -6.10227e-15)
(1.58293e-05 1.31698e-05 4.56489e-15)
(-0.000163004 0.00017053 -1.1496e-15)
(-0.000175018 0.000173922 7.55166e-15)
(-0.000147063 0.000135021 1.89299e-14)
(-0.000148992 0.00012632 -6.15896e-15)
(-0.000147101 0.000116993 1.12587e-14)
(-0.000143015 0.000106592 9.19972e-15)
(-0.000136886 9.52178e-05 3.00073e-15)
(-0.000129502 8.34747e-05 2.19112e-15)
(-0.000120547 7.16045e-05 -8.58846e-15)
(-0.000109905 5.98453e-05 -5.36999e-15)
(-9.86568e-05 4.87162e-05 2.9401e-15)
(-8.83978e-05 3.89491e-05 1.29126e-15)
(-7.8757e-05 3.04975e-05 -7.01197e-15)
(-6.89805e-05 2.33069e-05 -6.37019e-15)
(-5.92312e-05 1.73751e-05 1.99177e-15)
(-4.95587e-05 1.25862e-05 -5.44465e-16)
(-3.99556e-05 8.81699e-06 5.68016e-16)
(-3.01706e-05 6.02913e-06 -3.30779e-15)
(-2.01055e-05 4.55306e-06 1.19271e-15)
(-9.18705e-06 4.90066e-06 7.32092e-15)
(2.69856e-06 7.96137e-06 -1.84281e-15)
(1.46356e-05 1.49017e-05 -1.93489e-15)
(-0.000144677 0.000152793 -3.76456e-15)
(-0.000167639 0.000166911 -1.31351e-14)
(-0.00013487 0.000125469 -3.14339e-14)
(-0.000137005 0.00011821 9.355e-15)
(-0.00013591 0.000110234 -1.00172e-14)
(-0.000132404 0.000101351 6.19428e-15)
(-0.000126986 9.13015e-05 -1.53597e-14)
(-0.000120183 8.06569e-05 -7.66553e-15)
(-0.000111966 6.95884e-05 2.24679e-14)
(-0.000102059 5.84725e-05 -1.27653e-14)
(-9.16052e-05 4.79598e-05 -5.46848e-15)
(-8.22886e-05 3.87858e-05 -2.14908e-15)
(-7.35989e-05 3.09047e-05 -2.08588e-15)
(-6.47411e-05 2.41512e-05 5.63714e-15)
(-5.57993e-05 1.85248e-05 2.07265e-15)
(-4.68142e-05 1.39148e-05 1.1042e-15)
(-3.78052e-05 1.03113e-05 -1.25144e-16)
(-2.85952e-05 7.66714e-06 2.38585e-15)
(-1.91461e-05 6.3152e-06 -2.25839e-15)
(-8.95398e-06 6.64198e-06 -6.731e-15)
(2.20296e-06 9.69379e-06 9.94323e-16)
(1.33806e-05 1.66142e-05 4.68912e-15)
(-0.000118235 0.000126402 4.88604e-15)
(-0.00016161 0.000160701 1.70079e-14)
(-0.00012815 0.000120774 9.47951e-15)
(-0.00012878 0.000112605 -6.35251e-15)
(-0.000127025 0.000104856 -3.23275e-15)
(-0.00012352 9.66289e-05 -1.42268e-14)
(-0.000118007 8.75816e-05 1.93698e-14)
(-0.000111517 7.76168e-05 3.88032e-15)
(-0.00010364 6.72701e-05 -1.07145e-16)
(-9.44085e-05 5.67287e-05 1.62637e-14)
(-8.47445e-05 4.68532e-05 2.06283e-15)
(-7.63388e-05 3.83267e-05 -1.30645e-15)
(-6.85589e-05 3.10232e-05 -9.6076e-16)
(-6.05675e-05 2.47446e-05 1.37389e-15)
(-5.24104e-05 1.94514e-05 3.33989e-17)
(-4.41142e-05 1.50875e-05 -5.76587e-16)
(-3.57098e-05 1.16799e-05 -4.82846e-16)
(-2.70919e-05 9.22205e-06 -7.21116e-18)
(-1.82769e-05 8.02251e-06 -1.66019e-15)
(-8.84032e-06 8.39479e-06 -5.97891e-15)
(1.52942e-06 1.14543e-05 -5.35583e-15)
(1.18898e-05 1.83476e-05 -7.04228e-15)
(-0.000128352 0.000127268 -6.84279e-15)
(-0.000143773 0.000136054 1.57116e-15)
(-0.000117224 0.000104966 2.10459e-14)
(-0.000117919 9.86117e-05 -8.36204e-15)
(-0.000114431 9.14775e-05 -7.52919e-16)
(-0.00010938 8.32833e-05 8.6679e-15)
(-0.000102928 7.42004e-05 -1.70572e-15)
(-9.55949e-05 6.44994e-05 -4.53616e-15)
(-8.69429e-05 5.46326e-05 2.17011e-15)
(-7.81303e-05 4.54225e-05 -7.98707e-16)
(-7.05965e-05 3.75837e-05 -5.80606e-15)
(-6.36882e-05 3.08803e-05 2.83953e-15)
(-5.65001e-05 2.50893e-05 -3.32298e-16)
(-4.90646e-05 2.01513e-05 -6.63222e-16)
(-4.14248e-05 1.60675e-05 -1.35987e-16)
(-3.36179e-05 1.28895e-05 -1.7609e-16)
(-2.55958e-05 1.06419e-05 -1.08851e-15)
(-1.73986e-05 9.61593e-06 2.76633e-15)
(-8.69851e-06 1.00663e-05 1.0959e-14)
(8.93575e-07 1.31299e-05 8.81812e-15)
(1.03275e-05 1.99885e-05 5.98624e-15)
(-0.000113612 0.000114931 2.11753e-14)
(-0.000137758 0.000130649 -1.00554e-15)
(-0.000108227 9.83138e-05 -1.7475e-14)
(-0.000108696 9.23235e-05 1.16327e-14)
(-0.000105621 8.59112e-05 1.87876e-14)
(-0.000100767 7.83322e-05 -8.30536e-15)
(-9.47547e-05 7.02032e-05 3.49515e-15)
(-8.77294e-05 6.11966e-05 -8.36889e-16)
(-7.98138e-05 5.21882e-05 -1.86031e-14)
(-7.17883e-05 4.37504e-05 4.53457e-15)
(-6.51071e-05 3.66245e-05 5.0955e-15)
(-5.90086e-05 3.0546e-05 -8.00881e-16)
(-5.25734e-05 2.52385e-05 3.20701e-16)
(-4.58285e-05 2.06937e-05 -9.76195e-16)
(-3.88303e-05 1.69196e-05 -1.2301e-15)
(-3.16229e-05 1.39971e-05 2.87757e-16)
(-2.42021e-05 1.19797e-05 -4.77533e-16)
(-1.66321e-05 1.11423e-05 1.85483e-15)