/*--------------------------------*- C++ -*----------------------------------*\
| =========                 |                                                 |
| \\      /  F ield         | OpenFOAM: The Open Source CFD Toolbox           |
|  \\    /   O peration     | Version:  2506                                  |
|   \\  /    A nd           | Website:  www.openfoam.com                      |
|    \\/     M anipulation  |                                                 |
\*---------------------------------------------------------------------------*/
FoamFile
{
    version     2.0;
    format      ascii;
    arch        "LSB;label=32;scalar=64";
    class       volScalarField;
    location    "350";
    object      turbulenceProperties:nuEff;
}
// * * * * * * * * * * * * * * * * * * * * * * * * * * * * * * * * * * * * * //

dimensions      [0 2 -1 0 0 0 0];

internalField   nonuniform List<scalar> 
1340
(
1.69621e-05
1.80966e-05
2.07905e-05
2.54805e-05
3.32255e-05
4.55737e-05
6.44508e-05
9.1383e-05
0.000127939
0.000177171
0.000246266
0.000349368
0.000511787
0.000783214
0.00125189
0.00212745
0.00377968
0.00733758
0.014732
0.0324853
0.0663285
0.0934774
0.105034
0.108442
0.109384
0.10948
0.108984
0.107983
1.59111e-05
1.60217e-05
1.59591e-05
1.58177e-05
1.56246e-05
1.53904e-05
1.51241e-05
1.48295e-05
1.44958e-05
1.41198e-05
1.36767e-05
1.31625e-05
1.25483e-05
1.18435e-05
1.10741e-05
1.04205e-05
1.00541e-05
1.00015e-05
1.00093e-05
0.000103704
0.000549858
0.00416626
0.0141246
0.0287284
0.043736
0.0550714
0.0618344
0.0656163
0.0680141
1.61416e-05
1.61276e-05
1.61323e-05
1.61473e-05
1.61669e-05
1.61909e-05
1.62202e-05
1.62531e-05
1.62901e-05
1.63311e-05
1.63775e-05
1.64308e-05
1.64945e-05
1.6572e-05
1.66714e-05
1.6799e-05
1.69803e-05
1.71736e-05
1.7436e-05
1.71568e-05
1.72474e-05
1.24845e-05
9.36643e-05
0.000800262
0.00302721
0.00755154
0.0142621
0.022445
0.0311655
1.61003e-05
1.61017e-05
1.61026e-05
1.61004e-05
1.60977e-05
1.60943e-05
1.60905e-05
1.60871e-05
1.60836e-05
1.60803e-05
1.60768e-05
1.60732e-05
1.60692e-05
1.60641e-05
1.6059e-05
1.60537e-05
1.60479e-05
1.60411e-05
1.60348e-05
1.60281e-05
1.60304e-05
1.60231e-05
1.60826e-05
1.5999e-05
1.59525e-05
1.52093e-05
1.41616e-05
0.000236318
0.00105493
0.00305126
1.61092e-05
1.61071e-05
1.61052e-05
1.61042e-05
1.61039e-05
1.61039e-05
1.61038e-05
1.61041e-05
1.61047e-05
1.61056e-05
1.61069e-05
1.61084e-05
1.61103e-05
1.61125e-05
1.61149e-05
1.61177e-05
1.61207e-05
1.61242e-05
1.6128e-05
1.61329e-05
1.61372e-05
1.61504e-05
1.61301e-05
1.62727e-05
1.56952e-05
1.87085e-05
1.05819e-05
3.55833e-05
0.000255327
0.000738236
1.61063e-05
1.61061e-05
1.61047e-05
1.61035e-05
1.61025e-05
1.61019e-05
1.61015e-05
1.6101e-05
1.61007e-05
1.61006e-05
1.61006e-05
1.61006e-05
1.61007e-05
1.61009e-05
1.61012e-05
1.61014e-05
1.61017e-05
1.61018e-05
1.61019e-05
1.61015e-05
1.61014e-05
1.61018e-05
1.61022e-05
1.61039e-05
1.61035e-05
1.61126e-05
1.60954e-05
1.61989e-05
1.56036e-05
1.4204e-05
1.00029e-05
1.61055e-05
1.61055e-05
1.61043e-05
1.61031e-05
1.61022e-05
1.61017e-05
1.61014e-05
1.61012e-05
1.6101e-05
1.61011e-05
1.6101e-05
1.61011e-05
1.61012e-05
1.61015e-05
1.61018e-05
1.61022e-05
1.61027e-05
1.61033e-05
1.6104e-05
1.61048e-05
1.61058e-05
1.61071e-05
1.61087e-05
1.61108e-05
1.61135e-05
1.61168e-05
1.61209e-05
1.61258e-05
1.61497e-05
1.55242e-05
1.34054e-05
1.61044e-05
1.61045e-05
1.61036e-05
1.61026e-05
1.61018e-05
1.61013e-05
1.6101e-05
1.61008e-05
1.61008e-05
1.61009e-05
1.61009e-05
1.61011e-05
1.61011e-05
1.61011e-05
1.61012e-05
1.61013e-05
1.61014e-05
1.61016e-05
1.61017e-05
1.61019e-05
1.6102e-05
1.61022e-05
1.61024e-05
1.61027e-05
1.61029e-05
1.6103e-05
1.61035e-05
1.61008e-05
1.61118e-05
1.60774e-05
1.63143e-05
1.61021e-05
1.61036e-05
1.61039e-05
1.61032e-05
1.61022e-05
1.61015e-05
1.61011e-05
1.61008e-05
1.61007e-05
1.61006e-05
1.61007e-05
1.61008e-05
1.6101e-05
1.61011e-05
1.61012e-05
1.61013e-05
1.61013e-05
1.61014e-05
1.61015e-05
1.61017e-05
1.61019e-05
1.61021e-05
1.61024e-05
1.61029e-05
1.61036e-05
1.61044e-05
1.61055e-05
1.61069e-05
1.61084e-05
1.61108e-05
1.6107e-05
1.61249e-05
1.6103e-05
1.61033e-05
1.61027e-05
1.61019e-05
1.61013e-05
1.61009e-05
1.61007e-05
1.61006e-05
1.61005e-05
1.61005e-05
1.61006e-05
1.61008e-05
1.61009e-05
1.61011e-05
1.61013e-05
1.61014e-05
1.61015e-05
1.61016e-05
1.61016e-05
1.61016e-05
1.61017e-05
1.61018e-05
1.6102e-05
1.61022e-05
1.61026e-05
1.6103e-05
1.61034e-05
1.61041e-05
1.61037e-05
1.61087e-05
1.60888e-05
1.61029e-05
1.61024e-05
1.61016e-05
1.61011e-05
1.61007e-05
1.61006e-05
1.61004e-05
1.61003e-05
1.61003e-05
1.61004e-05
1.61005e-05
1.61007e-05
1.61009e-05
1.61011e-05
1.61013e-05
1.61014e-05
1.61016e-05
1.61017e-05
1.61018e-05
1.61018e-05
1.61019e-05
1.6102e-05
1.61023e-05
1.61026e-05
1.6103e-05
1.61035e-05
1.61044e-05
1.61044e-05
1.61089e-05
1.60935e-05
1.61021e-05
1.61013e-05
1.61009e-05
1.61006e-05
1.61004e-05
1.61003e-05
1.61002e-05
1.61001e-05
1.61002e-05
1.61003e-05
1.61004e-05
1.61006e-05
1.61008e-05
1.6101e-05
1.61012e-05
1.61014e-05
1.61016e-05
1.61018e-05
1.61019e-05
1.6102e-05
1.6102e-05
1.61021e-05
1.61023e-05
1.61025e-05
1.61028e-05
1.61033e-05
1.61035e-05
1.61051e-05
1.61016e-05
1.61011e-05
1.61007e-05
1.61004e-05
1.61003e-05
1.61001e-05
1.61e-05
1.60999e-05
1.60999e-05
1.61e-05
1.61001e-05
1.61003e-05
1.61005e-05
1.61008e-05
1.6101e-05
1.61013e-05
1.61015e-05
1.61017e-05
1.61019e-05
1.6102e-05
1.61021e-05
1.61021e-05
1.61022e-05
1.61024e-05
1.61026e-05
1.61029e-05
1.61033e-05
1.61037e-05
1.61048e-05
1.61005e-05
1.61002e-05
1.61001e-05
1.60999e-05
1.60998e-05
1.60997e-05
1.60997e-05
1.60998e-05
1.60999e-05
1.61001e-05
1.61003e-05
1.61005e-05
1.61008e-05
1.6101e-05
1.61013e-05
1.61015e-05
1.61017e-05
1.61019e-05
1.61021e-05
1.61021e-05
1.61022e-05
1.61022e-05
1.61024e-05
1.61025e-05
1.61029e-05
1.61031e-05
1.61041e-05
1.61001e-05
1.60999e-05
1.60998e-05
1.60996e-05
1.60995e-05
1.60995e-05
1.60995e-05
1.60996e-05
1.60998e-05
1.61e-05
1.61002e-05
1.61005e-05
1.61008e-05
1.6101e-05
1.61013e-05
1.61016e-05
1.61018e-05
1.6102e-05
1.61021e-05
1.61021e-05
1.61022e-05
1.61022e-05
1.61024e-05
1.61026e-05
1.61028e-05
1.61033e-05
1.60999e-05
1.60997e-05
1.60996e-05
1.60994e-05
1.60993e-05
1.60993e-05
1.60993e-05
1.60994e-05
1.60996e-05
1.60997e-05
1.61e-05
1.61002e-05
1.61005e-05
1.61008e-05
1.61011e-05
1.61014e-05
1.61016e-05
1.61018e-05
1.6102e-05
1.61021e-05
1.61022e-05
1.61022e-05
1.61023e-05
1.61024e-05
1.61026e-05
1.61028e-05
1.60995e-05
1.60994e-05
1.60992e-05
1.60991e-05
1.60991e-05
1.60991e-05
1.60992e-05
1.60993e-05
1.60995e-05
1.60997e-05
1.61e-05
1.61003e-05
1.61006e-05
1.61009e-05
1.61012e-05
1.61014e-05
1.61017e-05
1.61019e-05
1.6102e-05
1.61021e-05
1.61022e-05
1.61022e-05
1.61023e-05
1.61024e-05
1.61026e-05
1.60994e-05
1.60992e-05
1.60991e-05
1.6099e-05
1.60989e-05
1.6099e-05
1.6099e-05
1.60991e-05
1.60993e-05
1.60995e-05
1.60998e-05
1.61e-05
1.61003e-05
1.61006e-05
1.61009e-05
1.61012e-05
1.61015e-05
1.61017e-05
1.61019e-05
1.61021e-05
1.61022e-05
1.61022e-05
1.61022e-05
1.61023e-05
1.61024e-05
1.6099e-05
1.60989e-05
1.60988e-05
1.60988e-05
1.60988e-05
1.60989e-05
1.6099e-05
1.60991e-05
1.60993e-05
1.60995e-05
1.60998e-05
1.61001e-05
1.61004e-05
1.61007e-05
1.6101e-05
1.61013e-05
1.61015e-05
1.61018e-05
1.61019e-05
1.61021e-05
1.61022e-05
1.61022e-05
1.61022e-05
1.61023e-05
1.60989e-05
1.60987e-05
1.60987e-05
1.60986e-05
1.60987e-05
1.60987e-05
1.60988e-05
1.6099e-05
1.60991e-05
1.60993e-05
1.60996e-05
1.60999e-05
1.61002e-05
1.61005e-05
1.61008e-05
1.61011e-05
1.61013e-05
1.61016e-05
1.61018e-05
1.6102e-05
1.61021e-05
1.61022e-05
1.61022e-05
1.61023e-05
1.60987e-05
1.60986e-05
1.60985e-05
1.60985e-05
1.60985e-05
1.60986e-05
1.60987e-05
1.60988e-05
1.6099e-05
1.60992e-05
1.60994e-05
1.60997e-05
1.61e-05
1.61003e-05
1.61005e-05
1.61008e-05
1.61011e-05
1.61014e-05
1.61016e-05
1.61018e-05
1.6102e-05
1.61021e-05
1.61022e-05
1.61022e-05
1.60984e-05
1.60984e-05
1.60984e-05
1.60984e-05
1.60984e-05
1.60985e-05
1.60986e-05
1.60988e-05
1.6099e-05
1.60992e-05
1.60994e-05
1.60997e-05
1.61e-05
1.61003e-05
1.61006e-05
1.61009e-05
1.61011e-05
1.61014e-05
1.61016e-05
1.61018e-05
1.6102e-05
1.61021e-05
1.61022e-05
1.60983e-05
1.60983e-05
1.60982e-05
1.60983e-05
1.60983e-05
1.60984e-05
1.60985e-05
1.60986e-05
1.60988e-05
1.6099e-05
1.60992e-05
1.60995e-05
1.60998e-05
1.61001e-05
1.61004e-05
1.61006e-05
1.61009e-05
1.61012e-05
1.61014e-05
1.61017e-05
1.61019e-05
1.6102e-05
1.61021e-05
1.60981e-05
1.60981e-05
1.60981e-05
1.60982e-05
1.60982e-05
1.60983e-05
1.60984e-05
1.60986e-05
1.60988e-05
1.6099e-05
1.60993e-05
1.60996e-05
1.60998e-05
1.61001e-05
1.61004e-05
1.61007e-05
1.61009e-05
1.61012e-05
1.61015e-05
1.61017e-05
1.61019e-05
1.6102e-05
1.6098e-05
1.6098e-05
1.6098e-05
1.6098e-05
1.60981e-05
1.60981e-05
1.60983e-05
1.60984e-05
1.60986e-05
1.60988e-05
1.60991e-05
1.60993e-05
1.60996e-05
1.60999e-05
1.61001e-05
1.61004e-05
1.61007e-05
1.6101e-05
1.61012e-05
1.61015e-05
1.61017e-05
1.61019e-05
1.60978e-05
1.60978e-05
1.60978e-05
1.60978e-05
1.60979e-05
1.6098e-05
1.60981e-05
1.60982e-05
1.60984e-05
1.60986e-05
1.60988e-05
1.60991e-05
1.60993e-05
1.60996e-05
1.60999e-05
1.61002e-05
1.61004e-05
1.61007e-05
1.6101e-05
1.61013e-05
1.61015e-05
1.61017e-05
1.60976e-05
1.60976e-05
1.60977e-05
1.60977e-05
1.60978e-05
1.60979e-05
1.6098e-05
1.60982e-05
1.60984e-05
1.60986e-05
1.60989e-05
1.60991e-05
1.60993e-05
1.60996e-05
1.60999e-05
1.61002e-05
1.61005e-05
1.61008e-05
1.61011e-05
1.61013e-05
1.61016e-05
1.60975e-05
1.60975e-05
1.60975e-05
1.60976e-05
1.60976e-05
1.60977e-05
1.60978e-05
1.6098e-05
1.60982e-05
1.60984e-05
1.60986e-05
1.60988e-05
1.60991e-05
1.60993e-05
1.60996e-05
1.60999e-05
1.61002e-05
1.61005e-05
1.61008e-05
1.61011e-05
1.61013e-05
1.60973e-05
1.60973e-05
1.60973e-05
1.60974e-05
1.60974e-05
1.60975e-05
1.60976e-05
1.60978e-05
1.60979e-05
1.60981e-05
1.60984e-05
1.60986e-05
1.60988e-05
1.60991e-05
1.60993e-05
1.60996e-05
1.60999e-05
1.61002e-05
1.61005e-05
1.61008e-05
1.61011e-05
1.60971e-05
1.60971e-05
1.60972e-05
1.60972e-05
1.60973e-05
1.60974e-05
1.60975e-05
1.60977e-05
1.60979e-05
1.60981e-05
1.60983e-05
1.60985e-05
1.60988e-05
1.6099e-05
1.60993e-05
1.60996e-05
1.60999e-05
1.61002e-05
1.61006e-05
1.61009e-05
1.60969e-05
1.60969e-05
1.6097e-05
1.6097e-05
1.60971e-05
1.60972e-05
1.60973e-05
1.60975e-05
1.60976e-05
1.60978e-05
1.6098e-05
1.60982e-05
1.60985e-05
1.60987e-05
1.6099e-05
1.60993e-05
1.60996e-05
1.60999e-05
1.61002e-05
1.61006e-05
1.60967e-05
1.60967e-05
1.60968e-05
1.60969e-05
1.60969e-05
1.60971e-05
1.60972e-05
1.60974e-05
1.60975e-05
1.60977e-05
1.60979e-05
1.60982e-05
1.60984e-05
1.60987e-05
1.6099e-05
1.60993e-05
1.60996e-05
1.60999e-05
1.61002e-05
1.60965e-05
1.60965e-05
1.60965e-05
1.60966e-05
1.60967e-05
1.60968e-05
1.60969e-05
1.60971e-05
1.60972e-05
1.60974e-05
1.60976e-05
1.60978e-05
1.60981e-05
1.60983e-05
1.60986e-05
1.60989e-05
1.60992e-05
1.60995e-05
1.60999e-05
1.60962e-05
1.60962e-05
1.60963e-05
1.60963e-05
1.60964e-05
1.60965e-05
1.60966e-05
1.60967e-05
1.60969e-05
1.60971e-05
1.60972e-05
1.60975e-05
1.60977e-05
1.60979e-05
1.60982e-05
1.60985e-05
1.60988e-05
1.60991e-05
1.60995e-05
1.60959e-05
1.6096e-05
1.6096e-05
1.60961e-05
1.60962e-05
1.60963e-05
1.60964e-05
1.60965e-05
1.60967e-05
1.60969e-05
1.6097e-05
1.60973e-05
1.60975e-05
1.60978e-05
1.60981e-05
1.60984e-05
1.60987e-05
1.60991e-05
1.60956e-05
1.60956e-05
1.60957e-05
1.60957e-05
1.60958e-05
1.60959e-05
1.6096e-05
1.60961e-05
1.60963e-05
1.60964e-05
1.60966e-05
1.60968e-05
1.6097e-05
1.60973e-05
1.60976e-05
1.60979e-05
1.60982e-05
1.60986e-05
1.60952e-05
1.60953e-05
1.60953e-05
1.60953e-05
1.60954e-05
1.60955e-05
1.60956e-05
1.60957e-05
1.60958e-05
1.6096e-05
1.60961e-05
1.60963e-05
1.60965e-05
1.60968e-05
1.6097e-05
1.60973e-05
1.60977e-05
1.6098e-05
1.60948e-05
1.60949e-05
1.60949e-05
1.60949e-05
1.6095e-05
1.60951e-05
1.60952e-05
1.60953e-05
1.60954e-05
1.60956e-05
1.60958e-05
1.6096e-05
1.60962e-05
1.60965e-05
1.60967e-05
1.60971e-05
1.60974e-05
1.60944e-05
1.60944e-05
1.60944e-05
1.60944e-05
1.60945e-05
1.60946e-05
1.60946e-05
1.60947e-05
1.60949e-05
1.6095e-05
1.60952e-05
1.60953e-05
1.60956e-05
1.60958e-05
1.60961e-05
1.60964e-05
1.60938e-05
1.60938e-05
1.60939e-05
1.60939e-05
1.60939e-05
1.6094e-05
1.6094e-05
1.60941e-05
1.60942e-05
1.60943e-05
1.60945e-05
1.60947e-05
1.60949e-05
1.60951e-05
1.60954e-05
1.60957e-05
1.60932e-05
1.60932e-05
1.60933e-05
1.60933e-05
1.60933e-05
1.60934e-05
1.60934e-05
1.60935e-05
1.60936e-05
1.60938e-05
1.60939e-05
1.60941e-05
1.60943e-05
1.60946e-05
1.60949e-05
1.60926e-05
1.60926e-05
1.60926e-05
1.60926e-05
1.60926e-05
1.60926e-05
1.60927e-05
1.60928e-05
1.60929e-05
1.6093e-05
1.60931e-05
1.60933e-05
1.60935e-05
1.60938e-05
1.6094e-05
1.60919e-05
1.60918e-05
1.60918e-05
1.60918e-05
1.60918e-05
1.60919e-05
1.60919e-05
1.6092e-05
1.6092e-05
1.60922e-05
1.60923e-05
1.60925e-05
1.60927e-05
1.60929e-05
1.60931e-05
1.60911e-05
1.6091e-05
1.6091e-05
1.6091e-05
1.6091e-05
1.60911e-05
1.60911e-05
1.60912e-05
1.60913e-05
1.60914e-05
1.60916e-05
1.60917e-05
1.6092e-05
1.60922e-05
1.60902e-05
1.60902e-05
1.60901e-05
1.60901e-05
1.60901e-05
1.60902e-05
1.60902e-05
1.60903e-05
1.60904e-05
1.60905e-05
1.60906e-05
1.60908e-05
1.6091e-05
1.60913e-05
1.60893e-05
1.60893e-05
1.60893e-05
1.60892e-05
1.60892e-05
1.60893e-05
1.60893e-05
1.60894e-05
1.60894e-05
1.60896e-05
1.60897e-05
1.60899e-05
1.60901e-05
1.60903e-05
1.60884e-05
1.60883e-05
1.60883e-05
1.60883e-05
1.60883e-05
1.60884e-05
1.60884e-05
1.60885e-05
1.60886e-05
1.60888e-05
1.60889e-05
1.60891e-05
1.60893e-05
1.60875e-05
1.60874e-05
1.60874e-05
1.60874e-05
1.60874e-05
1.60875e-05
1.60875e-05
1.60876e-05
1.60877e-05
1.60878e-05
1.6088e-05
1.60882e-05
1.60884e-05
1.60865e-05
1.60865e-05
1.60865e-05
1.60865e-05
1.60865e-05
1.60865e-05
1.60866e-05
1.60867e-05
1.60868e-05
1.60869e-05
1.60871e-05
1.60873e-05
1.60875e-05
1.60856e-05
1.60856e-05
1.60856e-05
1.60856e-05
1.60856e-05
1.60856e-05
1.60857e-05
1.60858e-05
1.60859e-05
1.6086e-05
1.60861e-05
1.60863e-05
1.60865e-05
1.60846e-05
1.60846e-05
1.60846e-05
1.60846e-05
1.60847e-05
1.60847e-05
1.60848e-05
1.60849e-05
1.6085e-05
1.60852e-05
1.60853e-05
1.60855e-05
1.60837e-05
1.60836e-05
1.60836e-05
1.60836e-05
1.60837e-05
1.60837e-05
1.60838e-05
1.60838e-05
1.60839e-05
1.60841e-05
1.60842e-05
1.60844e-05
1.60826e-05
1.60826e-05
1.60825e-05
1.60825e-05
1.60825e-05
1.60825e-05
1.60825e-05
1.60826e-05
1.60827e-05
1.60828e-05
1.60829e-05
1.60814e-05
1.60813e-05
1.60812e-05
1.60812e-05
1.60811e-05
1.60811e-05
1.60811e-05
1.60811e-05
1.60812e-05
1.60813e-05
1.60814e-05
1.60799e-05
1.60797e-05
1.60796e-05
1.60795e-05
1.60795e-05
1.60794e-05
1.60794e-05
1.60794e-05
1.60795e-05
1.60795e-05
1.60782e-05
1.6078e-05
1.60779e-05
1.60777e-05
1.60776e-05
1.60775e-05
1.60775e-05
1.60775e-05
1.60775e-05
1.60775e-05
1.60764e-05
1.60762e-05
1.6076e-05
1.60758e-05
1.60757e-05
1.60756e-05
1.60755e-05
1.60755e-05
1.60754e-05
1.60754e-05
1.60746e-05
1.60744e-05
1.60742e-05
1.6074e-05
1.60739e-05
1.60738e-05
1.60737e-05
1.60736e-05
1.60736e-05
1.60736e-05
1.6073e-05
1.60728e-05
1.60727e-05
1.60725e-05
1.60724e-05
1.60724e-05
1.60723e-05
1.60723e-05
1.60722e-05
1.60722e-05
1.60718e-05
1.60717e-05
1.60717e-05
1.60717e-05
1.60716e-05
1.60716e-05
1.60716e-05
1.60716e-05
1.60716e-05
1.60716e-05
1.60717e-05
1.60717e-05
1.60718e-05
1.60719e-05
1.6072e-05
1.6072e-05
1.60721e-05
1.60722e-05
1.60723e-05
1.60725e-05
1.60727e-05
1.60729e-05
1.60731e-05
1.60732e-05
1.60734e-05
1.60735e-05
1.60738e-05
1.60741e-05
1.60745e-05
1.60748e-05
1.6075e-05
1.60753e-05
1.60755e-05
1.60757e-05
1.6076e-05
1.60764e-05
1.60769e-05
1.60773e-05
1.60777e-05
1.6078e-05
1.60784e-05
1.60787e-05
1.60787e-05
1.60793e-05
1.60799e-05
1.60804e-05
1.60809e-05
1.60814e-05
1.60818e-05
1.60822e-05
1.60826e-05
1.60833e-05
1.60839e-05
1.60845e-05
1.6085e-05
1.60855e-05
1.6086e-05
1.60862e-05
1.60869e-05
1.60876e-05
1.60882e-05
1.60888e-05
1.60894e-05
1.60899e-05
1.60892e-05
1.60899e-05
1.60906e-05
1.60913e-05
1.60919e-05
1.60925e-05
1.60931e-05
1.60914e-05
1.60921e-05
1.60928e-05
1.60935e-05
1.60941e-05
1.60947e-05
1.60953e-05
1.60933e-05
1.6094e-05
1.60947e-05
1.60953e-05
1.60959e-05
1.60965e-05
1.60971e-05
1.60948e-05
1.60954e-05
1.60961e-05
1.60967e-05
1.60973e-05
1.60979e-05
1.60984e-05
1.60959e-05
1.60966e-05
1.60972e-05
1.60979e-05
1.60985e-05
1.60991e-05
1.60973e-05
1.6098e-05
1.60988e-05
1.60995e-05
1.61002e-05
1.6101e-05
1.60996e-05
1.61007e-05
1.61017e-05
1.61026e-05
1.61036e-05
1.61046e-05
1.61051e-05
1.61064e-05
1.61077e-05
1.6109e-05
1.61102e-05
1.61098e-05
1.61111e-05
1.61125e-05
1.61138e-05
1.61151e-05
1.611e-05
1.61109e-05
1.61118e-05
1.61126e-05
1.61134e-05
1.61027e-05
1.61035e-05
1.61043e-05
1.61051e-05
1.6106e-05
1.60998e-05
1.61024e-05
1.61051e-05
1.61078e-05
1.61107e-05
1.61021e-05
1.61039e-05
1.61057e-05
1.61073e-05
1.61088e-05
)
;

boundaryField
{
    inlet
    {
        type            calculated;
        value           uniform 2e-05;
    }
    outlet
    {
        type            calculated;
        value           nonuniform List<scalar> 0();
    }
    walls
    {
        type            calculated;
        value           nonuniform List<scalar> 
28
(
0.000457374
0.000560146
0.000898229
0.00121862
0.00148058
0.00169112
0.001863
0.00200559
0.00212597
0.00222977
0.00232136
0.00240443
0.00248133
0.00255414
0.0026235
0.00268942
0.00274861
0.00279467
0.00282718
0.00284941
0.00286444
0.00287356
0.00287761
0.00287511
0.00286442
0.00284525
0.00281805
0.00278237
)
;
    }
    frontAndBack
    {
        type            empty;
    }
    procBoundary1to0
    {
        type            processor;
        value           nonuniform List<scalar> 
94
(
1.61016e-05
1.61016e-05
1.61025e-05
1.61025e-05
1.61025e-05
1.61025e-05
1.61018e-05
1.61018e-05
1.61009e-05
1.61009e-05
1.61003e-05
1.61003e-05
1.61002e-05
1.60997e-05
1.60997e-05
1.60995e-05
1.60992e-05
1.60992e-05
1.6099e-05
1.60989e-05
1.60986e-05
1.60986e-05
1.60984e-05
1.60982e-05
1.60982e-05
1.6098e-05
1.60979e-05
1.60977e-05
1.60977e-05
1.60975e-05
1.60973e-05
1.60971e-05
1.60971e-05
1.60969e-05
1.60967e-05
1.60967e-05
1.60964e-05
1.60962e-05
1.60959e-05
1.60959e-05
1.60956e-05
1.60952e-05
1.60948e-05
1.60948e-05
1.60944e-05
1.60938e-05
1.60933e-05
1.60933e-05
1.60926e-05
1.60919e-05
1.60911e-05
1.60911e-05
1.60903e-05
1.60894e-05
1.60884e-05
1.60884e-05
1.60875e-05
1.60866e-05
1.60856e-05
1.60847e-05
1.60847e-05
1.60837e-05
1.60827e-05
1.60815e-05
1.608e-05
1.608e-05
1.60784e-05
1.60766e-05
1.60748e-05
1.60732e-05
1.60719e-05
1.60719e-05
1.60716e-05
1.60721e-05
1.60735e-05
1.60755e-05
1.60781e-05
1.60819e-05
1.60819e-05
1.60854e-05
1.60884e-05
1.60906e-05
1.60925e-05
1.60941e-05
1.60953e-05
1.60965e-05
1.60986e-05
1.61038e-05
1.61038e-05
1.61084e-05
1.6109e-05
1.6102e-05
1.60974e-05
1.61001e-05
)
;
    }
    procBoundary1to2
    {
        type            processor;
        value           nonuniform List<scalar> 
84
(
0.106586
0.0700045
0.0396082
0.00689437
0.000726325
0.000170134
1.00586e-05
1.60217e-05
1.61821e-05
1.61861e-05
1.61648e-05
1.6119e-05
1.61029e-05
1.61021e-05
1.61031e-05
1.61032e-05
1.61029e-05
1.61026e-05
1.61025e-05
1.61024e-05
1.61023e-05
1.61022e-05
1.61022e-05
1.61021e-05
1.6102e-05
1.61019e-05
1.61018e-05
1.61016e-05
1.61014e-05
1.61011e-05
1.61009e-05
1.61006e-05
1.61002e-05
1.60998e-05
1.60994e-05
1.60989e-05
1.60984e-05
1.60978e-05
1.60967e-05
1.60967e-05
1.6096e-05
1.60952e-05
1.60944e-05
1.60935e-05
1.60925e-05
1.60915e-05
1.60906e-05
1.60896e-05
1.60886e-05
1.60877e-05
1.60868e-05
1.60858e-05
1.60846e-05
1.60831e-05
1.60831e-05
1.60815e-05
1.60796e-05
1.60776e-05
1.60755e-05
1.60736e-05
1.60722e-05
1.60716e-05
1.60722e-05
1.60737e-05
1.60737e-05
1.60759e-05
1.60789e-05
1.60825e-05
1.60864e-05
1.60903e-05
1.60936e-05
1.60959e-05
1.60976e-05
1.6099e-05
1.60997e-05
1.60997e-05
1.61017e-05
1.61056e-05
1.61115e-05
1.61163e-05
1.61142e-05
1.61069e-05
1.61136e-05
1.61102e-05
)
;
    }
    procBoundary1to5
    {
        type            processor;
        value           nonuniform List<scalar> 
13
(
1.82454e-05
1.82454e-05
1.578e-05
1.61593e-05
1.61593e-05
1.60983e-05
1.61104e-05
1.61104e-05
1.61046e-05
1.61039e-05
1.61028e-05
1.61028e-05
1.61027e-05
)
;
    }
}


// ************************************************************************* //
