/*--------------------------------*- C++ -*----------------------------------*\
| =========                 |                                                 |
| \\      /  F ield         | OpenFOAM: The Open Source CFD Toolbox           |
|  \\    /   O peration     | Version:  2506                                  |
|   \\  /    A nd           | Website:  www.openfoam.com                      |
|    \\/     M anipulation  |                                                 |
\*---------------------------------------------------------------------------*/
FoamFile
{
    version     2.0;
    format      ascii;
    arch        "LSB;label=32;scalar=64";
    class       volSymmTensorField;
    location    "350";
    object      turbulenceProperties:R;
}
// * * * * * * * * * * * * * * * * * * * * * * * * * * * * * * * * * * * * * //

dimensions      [0 2 -2 0 0 0 0];

internalField   nonuniform List<symmTensor> 
1340
(
(0.00194587 0.000261444 5.7351e-20 0.00191643 -2.26483e-20 0.00190794)
(0.00211334 0.00027794 1.01427e-19 0.0019182 -5.13029e-20 0.00199805)
(0.00295754 0.000385201 -8.01728e-20 0.00247011 2.02683e-20 0.00271126)
(0.00451396 0.000623769 -2.35952e-20 0.00352054 1.1129e-19 0.00402695)
(0.00693462 0.00109487 1.7429e-19 0.00509581 7.25076e-20 0.00603407)
(0.010511 0.00197129 3.58643e-19 0.00732765 -5.58385e-20 0.00895467)
(0.0156716 0.00349493 -6.86433e-21 0.0104657 -2.18653e-19 0.0131336)
(0.0229278 0.00591702 -7.16681e-20 0.0148946 -1.5451e-19 0.0190113)
(0.033016 0.00952902 2.47747e-20 0.021303 -5.36507e-20 0.0273098)
(0.0472567 0.0147515 -1.86002e-19 0.0308173 6.32306e-19 0.0392433)
(0.0681552 0.0224719 7.12217e-19 0.0454399 2.64761e-19 0.0570827)
(0.100392 0.0344331 3.18626e-19 0.0687619 -1.18364e-18 0.0849681)
(0.152274 0.0539206 -1.29498e-18 0.107404 -3.397e-19 0.130414)
(0.240255 0.0874794 -4.38391e-18 0.174636 -2.00344e-18 0.208321)
(0.393886 0.147331 -3.32812e-18 0.295559 -8.9012e-19 0.34618)
(0.682803 0.262493 6.19792e-18 0.530348 -5.7603e-19 0.609229)
(1.22826 0.486443 -7.44633e-18 0.992698 1.2048e-18 1.11592)
(2.39587 0.978035 4.06366e-18 2.02208 -7.21472e-18 2.22073)
(4.80314 2.01611 -1.2632e-16 4.23131 2.61319e-18 4.54177)
(10.5245 4.53094 -7.82943e-17 9.66628 1.22964e-17 10.1531)
(21.2637 9.36707 6.59116e-17 20.3413 8.25674e-19 20.923)
(29.544 13.2901 8.69724e-18 29.4237 -1.25786e-19 29.64)
(32.6379 14.958 6.28529e-17 33.7969 4.39523e-19 33.3649)
(33.0571 15.3969 -4.37135e-16 35.5103 -4.89657e-18 34.4071)
(32.645 15.4168 1.57292e-16 36.2837 2.09245e-17 34.5653)
(31.9222 15.2546 -1.88882e-15 36.6207 -1.5317e-16 34.3551)
(30.9813 14.9546 -3.45818e-15 36.6001 -2.37017e-16 33.8611)
(29.8491 14.5324 1.05834e-15 36.2452 1.0836e-16 33.1076)
(0.00153869 0.000150825 2.61048e-20 0.00133588 -8.34653e-20 0.00143918)
(0.00131419 0.000152955 -1.19461e-19 0.00121222 3.15243e-21 0.00126832)
(0.00111354 0.000139697 1.82484e-20 0.00109253 8.08373e-20 0.00110892)
(0.000921945 0.00011636 4.60713e-22 0.000968428 -4.75485e-20 0.000948622)
(0.000751513 8.77058e-05 -2.99782e-20 0.000839689 -2.84231e-20 0.000794835)
(0.00061499 6.18802e-05 -2.10402e-20 0.000717202 -2.97652e-20 0.000661725)
(0.000506788 4.21478e-05 -3.79623e-21 0.000605972 6.32195e-21 0.000549872)
(0.000418997 2.82131e-05 1.22227e-20 0.00050706 3.28918e-20 0.00045557)
(0.000346718 1.88851e-05 2.00772e-20 0.000420702 7.75749e-21 0.000376054)
(0.000286786 1.2839e-05 -2.68799e-20 0.000346641 -1.37185e-21 0.000309378)
(0.00023637 8.9756e-06 2.22331e-20 0.000283089 2.29718e-21 0.000253109)
(0.00019379 6.45638e-06 -2.36608e-21 0.000228974 -6.93895e-21 0.00020574)
(0.000156383 4.61648e-06 -6.86615e-21 0.000181429 1.09241e-20 0.00016444)
(0.000121923 3.1074e-06 -4.0123e-21 0.000138143 4.36791e-21 0.00012685)
(8.72594e-05 1.73916e-06 -6.01316e-21 9.58652e-05 6.76547e-21 8.97098e-05)
(5.24496e-05 6.64601e-07 -3.52396e-21 5.55811e-05 1.82831e-21 5.32739e-05)
(1.84809e-05 8.35001e-08 -6.76928e-22 1.88623e-05 5.83168e-23 1.85707e-05)
(3.03592e-06 2.27609e-09 8.24184e-24 3.04582e-06 7.82944e-25 3.03787e-06)
(7.71811e-06 1.60132e-08 -3.70552e-24 7.77775e-06 5.08222e-24 7.72694e-06)
(0.000851077 0.000192871 4.75834e-19 0.0014292 1.24504e-19 0.000910713)
(0.00451749 0.00133189 2.64715e-18 0.00782098 -1.89048e-19 0.00474054)
(0.0372334 0.0119631 1.08084e-18 0.0620902 -4.50558e-19 0.038318)
(0.128079 0.0458933 -7.53575e-19 0.204207 1.03204e-19 0.130572)
(0.256237 0.102672 4.96249e-17 0.38613 2.01428e-18 0.261125)
(0.390973 0.170628 4.02545e-16 0.554201 9.72323e-18 0.401617)
(0.512525 0.235187 2.39483e-16 0.689697 1.31136e-17 0.533244)
(0.614397 0.289322 1.76213e-15 0.7994 1.20926e-16 0.648405)
(0.701266 0.334875 2.5443e-15 0.897959 1.69297e-16 0.750491)
(0.778791 0.375308 -5.70481e-16 0.99503 -9.71732e-17 0.844961)
(0.00124283 0.00011529 9.03538e-21 0.00105711 5.48242e-20 0.0011498)
(0.00108707 0.000121549 5.94035e-20 0.000979583 6.37773e-20 0.00103375)
(0.000943545 0.000117565 2.02078e-20 0.000906386 -5.07583e-20 0.000925799)
(0.00080313 0.00010429 4.50961e-20 0.000824303 2.67244e-20 0.000814319)
(0.000664158 8.44574e-05 -3.18651e-20 0.00072359 8.18917e-21 0.000694635)
(0.000538878 6.38463e-05 -4.61079e-21 0.000616427 2.70081e-20 0.000579089)
(0.000432636 4.57776e-05 2.01492e-21 0.000514447 -2.43345e-20 0.000475879)
(0.000344889 3.11679e-05 4.36081e-20 0.000422756 -3.07007e-20 0.000387144)
(0.000274815 2.01015e-05 3.30749e-21 0.000344674 -4.84163e-21 0.0003139)
(0.00021974 1.20357e-05 -4.90946e-21 0.000280108 2.02981e-20 0.000254787)
(0.000177762 6.39178e-06 3.1593e-20 0.000228868 -3.73226e-20 0.0002087)
(0.00014651 2.47233e-06 5.1641e-21 0.000189423 4.53559e-21 0.000173745)
(0.000124172 -2.99551e-07 3.68385e-20 0.000160372 -2.57582e-21 0.000148291)
(0.000108454 -2.41374e-06 3.96668e-20 0.000139163 8.88879e-21 0.000130021)
(9.79647e-05 -4.16462e-06 1.02385e-19 0.000124206 -1.35241e-20 0.000117439)
(9.16487e-05 -5.8493e-06 1.33982e-19 0.000113944 -2.02682e-20 0.000109337)
(8.90456e-05 -7.67559e-06 8.09276e-20 0.000107319 7.01233e-21 0.000105008)
(8.9171e-05 -9.44673e-06 1.89351e-20 0.000101839 -3.87274e-21 0.000102932)
(9.23399e-05 -1.05781e-05 -2.07362e-20 9.77672e-05 1.00164e-20 0.000103493)
(9.52323e-05 -1.00467e-05 7.57197e-20 9.33025e-05 -1.23058e-20 0.000103181)
(0.000104345 -9.47662e-06 -2.05288e-20 9.58616e-05 -1.99835e-21 0.000110096)
(6.26089e-05 -2.75285e-06 -6.24781e-21 5.80063e-05 1.28823e-22 6.3943e-05)
(0.000473964 -6.55302e-05 2.46603e-20 0.000295449 -7.76001e-22 0.000501828)
(0.00325886 -0.000272192 -1.42198e-18 0.00168542 -5.38339e-20 0.00340749)
(0.00933428 0.000423973 -8.62079e-18 0.00467903 -7.89377e-20 0.00965328)
(0.0187819 0.00468201 -5.47589e-17 0.0112637 -3.17611e-18 0.0193688)
(0.0386 0.0154346 -1.34228e-16 0.0316767 -4.43392e-18 0.0399522)
(0.0759749 0.0342722 -3.33908e-16 0.0747555 -2.28666e-17 0.0792512)
(0.130171 0.0608335 -8.54731e-16 0.139673 -7.65042e-17 0.13724)
(0.0010763 6.60797e-05 2.09404e-20 0.000865104 -5.98504e-21 0.000970861)
(0.000980848 8.44565e-05 2.26471e-20 0.000822633 -5.87309e-22 0.000901595)
(0.000879025 9.3356e-05 -5.5896e-20 0.00077737 -3.37812e-20 0.000828215)
(0.000775214 9.35065e-05 -3.05351e-20 0.000727857 2.63965e-21 0.000751993)
(0.000668466 8.57824e-05 5.06143e-20 0.000668393 2.2845e-20 0.000669079)
(0.000565393 7.27366e-05 2.36177e-20 0.000599862 -1.93777e-21 0.000583191)
(0.000474472 5.81146e-05 2.79522e-20 0.000530028 -1.72584e-20 0.000502543)
(0.000398364 4.43981e-05 -4.31484e-20 0.000464239 -2.82858e-20 0.000431159)
(0.000335847 3.26797e-05 -5.34781e-20 0.000404544 1.00945e-20 0.000369561)
(0.000285198 2.33535e-05 4.87889e-21 0.000351997 1.41323e-20 0.000317452)
(0.00024417 1.62568e-05 1.6527e-20 0.00030653 -4.91847e-21 0.000273749)
(0.000211308 1.10718e-05 -4.05718e-20 0.000268257 -3.21333e-21 0.000237768)
(0.000185062 7.34864e-06 -1.55822e-21 0.000236571 -6.45868e-21 0.000208462)
(0.000164286 4.64512e-06 -1.55665e-20 0.000210854 -3.04744e-21 0.000184937)
(0.000147526 2.56392e-06 3.26922e-20 0.00018974 -1.88349e-20 0.000165811)
(0.000134024 8.48567e-07 -3.55891e-20 0.000172462 -1.23673e-20 0.000150275)
(0.000122794 -7.18912e-07 -7.39666e-20 0.000157829 -8.73322e-21 0.000137235)
(0.00011289 -2.26742e-06 3.34685e-21 0.000144556 -1.12048e-20 0.00012555)
(0.00010263 -3.70513e-06 1.89354e-20 0.000130415 -1.07753e-20 0.000113287)
(9.22022e-05 -4.60641e-06 5.73462e-20 0.000115835 -4.00094e-21 0.000100628)
(8.36286e-05 -4.8896e-06 -5.37409e-20 0.000103764 -3.11366e-21 8.99638e-05)
(7.72217e-05 -4.83546e-06 -9.23845e-21 9.46592e-05 2.87399e-21 8.18245e-05)
(7.26555e-05 -4.67178e-06 5.59217e-21 8.8157e-05 4.89387e-22 7.58973e-05)
(6.69053e-05 -4.28769e-06 -2.56159e-21 8.02404e-05 -1.03035e-22 6.89632e-05)
(5.91228e-05 -3.80632e-06 -3.7111e-21 7.01598e-05 1.80701e-22 6.02528e-05)
(4.49102e-05 -2.80463e-06 -5.48569e-21 5.22061e-05 -2.89471e-22 4.52853e-05)
(2.86708e-05 -1.69224e-06 1.35511e-20 3.24412e-05 3.90945e-22 2.86133e-05)
(0.000200081 -5.49105e-05 1.92681e-18 0.000303235 1.2533e-19 0.00018408)
(0.000394881 -4.55141e-05 1.8625e-17 0.000504787 1.73236e-18 0.00028683)
(0.00166545 0.000597918 7.8253e-17 0.0012963 1.03094e-17 0.00132983)
(0.000858183 4.83602e-05 -5.38305e-20 0.000685198 2.76273e-20 0.000771695)
(0.00079201 6.39219e-05 7.53597e-20 0.000656897 3.91278e-20 0.000724268)
(0.000720121 7.29086e-05 -2.43783e-20 0.000627133 -7.08167e-20 0.000673559)
(0.000644767 7.53659e-05 -3.32879e-20 0.000594075 9.44934e-21 0.000619524)
(0.000566082 7.16209e-05 -2.26993e-20 0.000553825 -3.94181e-20 0.000560146)
(0.000489225 6.33232e-05 7.95083e-21 0.000507028 1.20026e-20 0.000498299)
(0.000418548 5.28407e-05 -1.48979e-20 0.000456703 -1.94852e-20 0.000437785)
(0.000355894 4.20705e-05 -3.07697e-20 0.000405693 4.13964e-20 0.000380981)
(0.000301281 3.21424e-05 3.2638e-20 0.000355949 1.91508e-20 0.00032888)
(0.000254418 2.36705e-05 2.77382e-20 0.000309168 -1.27572e-20 0.000282176)
(0.000214683 1.68097e-05 -5.7e-21 0.000266566 -1.14182e-20 0.000241167)
(0.000181475 1.14784e-05 1.65647e-20 0.00022896 3.69001e-21 0.000205937)
(0.000154129 7.42342e-06 -2.45439e-20 0.000196713 6.27131e-21 0.000176321)
(0.00013199 4.34802e-06 1.73808e-20 0.000169798 -4.56881e-22 0.000151962)
(0.000114181 1.9494e-06 -2.28837e-20 0.000147602 -1.06877e-20 0.000132116)
(0.000100002 -8.32286e-09 2.20828e-20 0.000129482 1.84624e-21 0.000116096)
(8.86513e-05 -1.7171e-06 2.96115e-20 0.000114496 6.47838e-21 0.000103036)
(7.93366e-05 -3.2866e-06 -2.06694e-21 0.00010157 2.71831e-21 9.20025e-05)
(7.07576e-05 -4.65764e-06 -5.5525e-20 8.89143e-05 2.59841e-23 8.15002e-05)
(6.2226e-05 -5.53063e-06 -2.06714e-20 7.58566e-05 -8.82825e-21 7.08389e-05)
(5.44201e-05 -5.80764e-06 -6.09317e-21 6.37352e-05 9.39129e-21 6.09834e-05)
(4.83909e-05 -5.71919e-06 2.25744e-20 5.38815e-05 2.80496e-22 5.32189e-05)
(4.45551e-05 -5.39394e-06 8.12364e-22 4.66691e-05 -1.85105e-22 4.79323e-05)
(4.35203e-05 -5.06196e-06 -1.29352e-21 4.27166e-05 1.10546e-22 4.5755e-05)
(4.1251e-05 -4.09793e-06 1.36268e-20 3.83522e-05 6.29996e-23 4.2369e-05)
(5.17138e-05 -5.4936e-06 1.54838e-20 4.50139e-05 5.00571e-22 5.2313e-05)
(1.19159e-05 -3.21032e-07 -4.94699e-21 1.14011e-05 -2.73742e-22 1.18978e-05)
(8.48655e-05 -1.23782e-05 -5.48382e-19 6.20772e-05 -4.2535e-20 8.20741e-05)
(0.000439174 -0.000103795 -1.01574e-18 0.000233622 -1.24099e-19 0.000396775)
(0.00112967 -0.000261847 2.02717e-18 0.000571588 2.16839e-20 0.000967215)
(0.00073435 1.93217e-05 -1.09626e-20 0.000571243 2.80336e-21 0.000652877)
(0.000695154 3.59235e-05 4.7491e-20 0.000552069 3.38536e-20 0.000623512)
(0.000647611 4.91032e-05 -2.9789e-20 0.000532315 -5.08291e-20 0.000589834)
(0.000595493 5.7583e-05 1.5021e-20 0.000512138 2.50733e-20 0.000553785)
(0.000539677 6.10599e-05 -1.72413e-20 0.000489371 -3.62371e-21 0.000514561)
(0.000480758 5.96854e-05 -5.23557e-20 0.000461422 -2.17104e-21 0.000471196)
(0.00042248 5.45362e-05 3.7518e-20 0.000428763 8.41505e-21 0.000425741)
(0.000367805 4.71721e-05 -7.13577e-21 0.00039294 1.02739e-20 0.000380483)
(0.000318341 3.89931e-05 2.14269e-20 0.000355807 1.69179e-20 0.00033717)
(0.000274597 3.09809e-05 7.72531e-21 0.000318886 -1.93165e-20 0.000296795)
(0.000236653 2.37731e-05 -5.82214e-21 0.000283499 -1.40681e-20 0.000260063)
(0.000204276 1.76504e-05 -2.25049e-20 0.000250783 8.86198e-21 0.000227438)
(0.000177055 1.26814e-05 -2.73655e-20 0.00022144 1.27901e-20 0.000199062)
(0.000154462 8.75985e-06 1.12507e-20 0.000195829 -7.8024e-22 0.000174861)
(0.000135912 5.69679e-06 -4.58264e-21 0.00017397 -5.25893e-21 0.000154555)
(0.000120718 3.26318e-06 -2.31611e-20 0.000155505 -9.08165e-25 0.000137631)
(0.000108231 1.26635e-06 -2.59962e-20 0.000139905 -6.14222e-21 0.000123496)
(9.77292e-05 -4.63446e-07 -2.19594e-20 0.000126392 1.58945e-21 0.000111409)
(8.84777e-05 -2.02906e-06 2.33377e-20 0.000114047 -1.03626e-20 0.000100541)
(7.94635e-05 -3.39685e-06 -5.73828e-21 0.000101557 1.072e-20 8.97419e-05)
(7.02077e-05 -4.33963e-06 -3.49929e-20 8.84815e-05 8.25683e-21 7.85313e-05)
(6.14036e-05 -4.75587e-06 4.66331e-20 7.60573e-05 -2.71997e-21 6.78246e-05)
(5.36986e-05 -4.81136e-06 3.70772e-21 6.52639e-05 -2.77909e-21 5.84675e-05)
(4.72285e-05 -4.66556e-06 6.80366e-22 5.62705e-05 -2.71527e-22 5.06198e-05)
(4.17709e-05 -4.38262e-06 1.69106e-21 4.87907e-05 3.80662e-23 4.40073e-05)
(3.71884e-05 -4.01225e-06 -1.71828e-20 4.26534e-05 -7.17128e-22 3.84731e-05)
(3.31981e-05 -3.57027e-06 -9.90767e-21 3.74703e-05 -1.0369e-21 3.37182e-05)
(2.95355e-05 -3.16251e-06 5.08106e-20 3.28255e-05 4.06963e-21 2.94609e-05)
(2.40486e-05 -2.42668e-06 3.56983e-20 2.60695e-05 2.5132e-21 2.35604e-05)
(1.72088e-05 -1.50828e-06 -2.28519e-20 1.797e-05 -1.61784e-21 1.65864e-05)
(3.52486e-07 -8.38774e-10 1.60601e-23 3.52471e-07 2.02743e-24 3.5191e-07)
(0.000599764 1.36711e-05 -1.33116e-21 0.000465737 -9.63052e-21 0.000532803)
(0.000570891 2.71845e-05 -1.60433e-20 0.000451449 8.25363e-21 0.000511078)
(0.000536206 3.83445e-05 1.82398e-20 0.000437518 1.77621e-20 0.000486779)
(0.000497373 4.60433e-05 4.27936e-20 0.000423318 1.878e-20 0.000460334)
(0.000455144 4.98713e-05 2.92037e-20 0.000407186 -7.45154e-22 0.000431172)
(0.00041061 4.99333e-05 -8.26773e-21 0.000387715 7.29939e-21 0.000399203)
(0.000366167 4.69078e-05 -3.93545e-20 0.000364904 -1.47862e-20 0.000365581)
(0.000323736 4.18266e-05 2.77298e-20 0.000339356 1.90525e-20 0.000331592)
(0.000284412 3.56949e-05 1.38448e-21 0.000312029 -2.17107e-20 0.000298275)
(0.000248687 2.93004e-05 1.48355e-21 0.000283861 -9.89797e-21 0.000266332)
(0.000216805 2.32279e-05 -2.21785e-20 0.000255802 8.807e-21 0.000236359)
(0.000188754 1.78031e-05 1.27674e-20 0.000228807 1.35668e-20 0.000208845)
(0.000164384 1.31842e-05 5.59896e-20 0.000203563 4.65423e-21 0.000184054)
(0.000143474 9.37423e-06 -2.04071e-20 0.000180609 -3.40515e-22 0.000162145)
(0.000125737 6.28084e-06 -4.24212e-21 0.000160232 -4.68216e-22 0.000143117)
(0.000110767 3.75516e-06 -2.92084e-20 0.000142391 1.89315e-20 0.000126749)
(9.81571e-05 1.65334e-06 -2.21646e-20 0.000126863 3.3822e-21 0.000112719)
(8.74268e-05 -1.55096e-07 2.51757e-20 0.000113191 6.29862e-21 0.000100557)
(7.80278e-05 -1.75066e-06 -5.84629e-20 0.000100721 6.17859e-21 8.96607e-05)
(6.92205e-05 -3.11564e-06 1.96241e-20 8.85027e-05 1.81681e-22 7.91995e-05)
(6.05598e-05 -4.08384e-06 3.8765e-20 7.61055e-05 5.83144e-22 6.87301e-05)
(5.24122e-05 -4.56356e-06 -1.59562e-20 6.43141e-05 -4.43382e-21 5.87951e-05)
(4.52716e-05 -4.67775e-06 -1.73433e-20 5.39239e-05 3.08116e-22 5.00655e-05)
(3.92931e-05 -4.56543e-06 -4.17075e-21 4.51279e-05 2.37126e-22 4.27381e-05)
(3.43532e-05 -4.29365e-06 -5.10863e-22 3.77493e-05 1.84119e-23 3.66578e-05)
(3.03852e-05 -3.9024e-06 2.07733e-21 3.16986e-05 5.46059e-22 3.17404e-05)
(2.75046e-05 -3.43921e-06 -2.70029e-20 2.70564e-05 -8.68439e-22 2.8094e-05)
(2.57584e-05 -2.95234e-06 6.19589e-20 2.38876e-05 2.0647e-21 2.57446e-05)
(2.4814e-05 -2.48254e-06 2.61998e-21 2.18713e-05 -5.58583e-22 2.43276e-05)
(2.27714e-05 -1.82662e-06 3.77994e-20 1.94515e-05 3.89587e-21 2.19873e-05)
(1.70397e-05 -8.9672e-07 1.25021e-20 1.47106e-05 -3.86992e-22 1.63785e-05)
(0.000496291 9.72004e-06 -4.75823e-22 0.000384866 2.56786e-21 0.000440574)
(0.000474368 2.08676e-05 -2.45562e-21 0.000373816 -2.30234e-20 0.000424015)
(0.000448413 3.03476e-05 -7.99356e-20 0.000363676 -3.77061e-20 0.000405999)
(0.000418876 3.72184e-05 1.76091e-20 0.000353424 2.76616e-20 0.000386142)
(0.000386464 4.10514e-05 -5.21087e-21 0.000341804 1.88081e-21 0.000364128)
(0.00035239 4.19409e-05 4.22997e-20 0.000328093 1.44608e-20 0.000340262)
(0.000318093 4.03113e-05 -2.81556e-21 0.000311956 1.39983e-20 0.000315049)
(0.000284919 3.68665e-05 1.78891e-20 0.000293618 -6.28107e-21 0.000289294)
(0.000253646 3.23302e-05 -1.55414e-20 0.000273562 5.07722e-21 0.00026364)
(0.000224688 2.73074e-05 -2.84383e-20 0.000252349 8.22829e-21 0.000238556)
(0.00019835 2.22916e-05 7.50338e-21 0.000230652 3.75508e-21 0.000214529)
(0.000174772 1.76052e-05 1.23884e-20 0.000209256 -5.05817e-21 0.000192034)
(0.000153941 1.3442e-05 1.16489e-20 0.000188744 -2.22691e-20 0.000171349)
(0.000135803 9.87185e-06 1.63273e-20 0.000169668 5.72847e-21 0.000152724)
(0.000120205 6.87902e-06 -1.50023e-20 0.000152362 8.46096e-21 0.000136251)
(0.000106877 4.37741e-06 5.58646e-20 0.000136908 2.44193e-21 0.000121837)
(9.54866e-05 2.26721e-06 -1.3132e-20 0.000123172 7.78078e-21 0.000109252)
(8.56463e-05 4.48988e-07 2.59329e-20 0.000110836 -1.01858e-20 9.81406e-05)
(7.68969e-05 -1.14083e-06 3.98146e-20 9.93943e-05 2.54034e-21 8.80229e-05)
(6.86644e-05 -2.4945e-06 7.94351e-22 8.81473e-05 -8.95959e-21 7.82704e-05)
(6.06052e-05 -3.49066e-06 -1.09415e-20 7.67802e-05 -7.15643e-21 6.85492e-05)
(5.29776e-05 -4.04774e-06 -1.00223e-20 6.58852e-05 1.52029e-21 5.92582e-05)
(4.61452e-05 -4.2507e-06 2.02546e-21 5.61103e-05 1.3208e-22 5.09151e-05)
(4.02077e-05 -4.22222e-06 4.1964e-21 4.76287e-05 1.96115e-22 4.36738e-05)
(3.50242e-05 -4.0309e-06 1.71054e-21 4.02844e-05 -3.10264e-23 3.73773e-05)
(3.04605e-05 -3.71999e-06 4.82417e-21 3.39393e-05 1.12933e-22 3.18788e-05)
(2.64803e-05 -3.33776e-06 1.90136e-20 2.8554e-05 1.74903e-21 2.71372e-05)
(2.3015e-05 -2.92249e-06 -1.08284e-19 2.40123e-05 -7.86296e-21 2.30663e-05)
(2.00096e-05 -2.5074e-06 -4.32545e-20 2.01605e-05 -1.75301e-21 1.95834e-05)
(1.74298e-05 -2.08881e-06 -2.38128e-21 1.68622e-05 -4.50021e-21 1.6616e-05)
(1.57793e-05 -1.76182e-06 -6.11887e-20 1.44994e-05 -7.13278e-21 1.45967e-05)
(0.000427257 -2.86502e-06 -3.23495e-20 0.000330213 -2.46729e-20 0.000378736)
(0.00041494 6.91416e-06 -1.85939e-20 0.000321441 -1.32552e-20 0.000368169)
(0.000398112 1.62051e-05 -4.7146e-21 0.000312814 -1.21912e-21 0.000355405)
(0.000378229 2.43005e-05 1.16519e-20 0.000305205 2.98515e-20 0.000341701)
(0.00035537 3.03754e-05 2.6464e-20 0.000297638 1.70888e-20 0.000326496)
(0.000330198 3.4041e-05 1.87752e-20 0.000289175 -1.2254e-20 0.000309676)
(0.00030378 3.53834e-05 -2.55823e-20 0.000279419 -1.5921e-20 0.000291608)
(0.000277071 3.4672e-05 5.3493e-20 0.000267947 2.37874e-21 0.00027252)
(0.000250982 3.23947e-05 -7.80929e-21 0.000254744 -2.39911e-20 0.000252871)
(0.000226046 2.90768e-05 4.56344e-20 0.000240025 9.79461e-21 0.000233053)
(0.000202573 2.51758e-05 3.51441e-20 0.000224081 4.87427e-21 0.00021335)
(0.000180829 2.10891e-05 -1.67224e-20 0.000207331 -6.98868e-21 0.0001941)
(0.000160957 1.71009e-05 2.86547e-21 0.000190327 -7.82869e-21 0.000175663)
(0.000143035 1.34128e-05 -4.29372e-20 0.000173549 1.9703e-21 0.000158312)
(0.000127069 1.01275e-05 -6.707e-21 0.000157451 -5.13806e-21 0.000142279)
(0.000113004 7.27561e-06 3.00422e-20 0.000142371 1.53721e-21 0.000127706)
(0.000100705 4.82738e-06 6.00797e-22 0.00012849 -8.43516e-21 0.000114618)
(8.99684e-05 2.72577e-06 2.6207e-20 0.00011581 4.94789e-21 0.000102913)
(8.05229e-05 9.0148e-07 -2.9437e-20 0.000104157 -4.95779e-21 9.23688e-05)
(7.20313e-05 -6.88172e-07 -2.24449e-20 9.31939e-05 -4.97211e-21 8.26493e-05)
(6.40965e-05 -2.03681e-06 -4.44974e-20 8.24634e-05 1.45072e-21 7.33318e-05)
(5.64675e-05 -3.05504e-06 -3.34977e-20 7.1753e-05 5.14823e-21 6.41832e-05)
(4.92864e-05 -3.67086e-06 -3.5978e-21 6.1465e-05 7.9529e-22 5.54598e-05)
(4.28416e-05 -3.94201e-06 -1.2746e-20 5.21497e-05 5.65862e-22 4.75842e-05)
(3.72409e-05 -3.97233e-06 -4.26895e-22 4.40068e-05 -3.02421e-22 4.07265e-05)
(3.23961e-05 -3.82864e-06 -1.6204e-21 3.69489e-05 -1.49309e-22 3.47965e-05)
(2.82074e-05 -3.55358e-06 -6.07973e-22 3.08762e-05 -2.99928e-22 2.9688e-05)
(2.46558e-05 -3.19178e-06 1.33573e-20 2.5761e-05 -6.54136e-23 2.53801e-05)
(2.17875e-05 -2.78603e-06 1.9697e-22 2.16105e-05 3.32915e-22 2.1905e-05)
(1.96204e-05 -2.3672e-06 8.7777e-20 1.84232e-05 7.94638e-21 1.92567e-05)
(1.81636e-05 -1.95348e-06 -1.3997e-19 1.61444e-05 -9.82029e-21 1.74037e-05)
(1.7418e-05 -1.55487e-06 7.79963e-21 1.4714e-05 6.59687e-21 1.6325e-05)
(0.00034999 4.8946e-06 -5.76903e-20 0.000270905 -5.88972e-21 0.000310419)
(0.000336923 1.27126e-05 8.25893e-20 0.000264095 6.55568e-20 0.000300467)
(0.000321373 1.9655e-05 5.08037e-20 0.000258219 7.21307e-21 0.000289796)
(0.000303401 2.4999e-05 3.65677e-20 0.000252508 -7.08174e-21 0.00027795)
(0.000283656 2.84203e-05 -5.74546e-20 0.000246311 -2.56139e-20 0.000264972)
(0.000262938 2.99833e-05 -3.58172e-20 0.000239312 -6.85822e-21 0.00025113)
(0.000241935 2.98652e-05 -7.24874e-20 0.000231106 -2.33001e-20 0.000236523)
(0.000221287 2.84149e-05 -7.44285e-20 0.000221577 3.90878e-21 0.000221434)
(0.000201338 2.60181e-05 -3.62696e-20 0.000210771 -1.21089e-20 0.000206065)
(0.00018229 2.30159e-05 1.09962e-20 0.000198806 7.47113e-22 0.000190564)
(0.00016438 1.97221e-05 -6.79994e-21 0.000185952 1.76216e-21 0.000175179)
(0.000147742 1.63768e-05 -1.90981e-20 0.000172583 7.76089e-21 0.000160178)
(0.000132461 1.31615e-05 2.1083e-20 0.000159042 4.25941e-21 0.000145765)
(0.00011861 1.01947e-05 -2.57514e-20 0.000145721 -7.18844e-21 0.000132175)
(0.000106187 7.53771e-06 -2.77815e-21 0.000132913 -6.46802e-21 0.000119554)
(9.51323e-05 5.19314e-06 8.19156e-21 0.000120827 -6.01616e-21 0.000107978)
(8.53277e-05 3.14058e-06 2.52038e-20 0.000109533 -1.08617e-20 9.7423e-05)
(7.65836e-05 1.34186e-06 -1.07014e-20 9.89491e-05 5.18133e-22 8.77535e-05)
(6.86536e-05 -2.28132e-07 -6.19184e-21 8.88618e-05 1.19396e-20 7.87404e-05)
(6.12595e-05 -1.5635e-06 -6.74149e-21 7.89821e-05 1.1105e-20 7.01019e-05)
(5.42013e-05 -2.59466e-06 2.48099e-20 6.91564e-05 3.383e-21 6.16627e-05)
(4.75699e-05 -3.26026e-06 -3.00788e-22 5.9691e-05 3.13043e-21 5.36092e-05)
(4.15782e-05 -3.59826e-06 8.4999e-21 5.10336e-05 1.35999e-21 4.62713e-05)
(3.631e-05 -3.69354e-06 -1.12992e-21 4.33767e-05 1.43457e-22 3.97987e-05)
(3.1691e-05 -3.60997e-06 -9.09339e-22 3.66664e-05 3.4267e-23 3.41271e-05)
(2.76246e-05 -3.39023e-06 -3.29289e-21 3.08178e-05 -1.25657e-22 2.91596e-05)
(2.40743e-05 -3.07818e-06 -1.38907e-20 2.57973e-05 -7.81547e-22 2.48603e-05)
(2.10321e-05 -2.71545e-06 -3.73195e-20 2.15762e-05 -2.32363e-21 2.12112e-05)
(1.84719e-05 -2.32992e-06 2.54217e-21 1.80746e-05 -5.6164e-22 1.81652e-05)
(1.64805e-05 -1.94465e-06 1.26622e-19 1.53028e-05 1.67817e-20 1.57709e-05)
(1.50712e-05 -1.55068e-06 9.13089e-20 1.32242e-05 2.54438e-21 1.4029e-05)
(0.000287156 1.00562e-05 -7.62537e-20 0.000224627 -4.28522e-20 0.000255864)
(0.000274805 1.6032e-05 -5.81325e-20 0.00021999 -1.01506e-20 0.000247404)
(0.000260482 2.07295e-05 4.32606e-20 0.000215603 3.56013e-20 0.000238041)
(0.000244835 2.38746e-05 7.08886e-20 0.000211036 1.68962e-20 0.000227923)
(0.000228432 2.55176e-05 1.17875e-20 0.000205996 -1.06396e-21 0.000217216)
(0.000211762 2.57741e-05 5.28255e-20 0.000200096 3.6176e-20 0.00020593)
(0.000195297 2.49043e-05 6.84513e-20 0.000193198 2.75343e-20 0.000194246)
(0.000179273 2.31966e-05 -2.46369e-20 0.000185273 -7.54185e-21 0.000182276)
(0.000163817 2.09083e-05 1.48744e-20 0.000176335 6.98569e-23 0.000170085)
(0.000149087 1.82797e-05 -5.10002e-21 0.000166511 2.41863e-21 0.000157807)
(0.000135186 1.55029e-05 3.76263e-20 0.000156054 2.046e-21 0.00014563)
(0.000122204 1.27382e-05 -1.36408e-20 0.000145192 -2.76445e-22 0.000133707)
(0.000110213 1.00986e-05 -3.64048e-20 0.000134212 1.40291e-20 0.000122221)
(9.92602e-05 7.65953e-06 -1.36883e-20 0.000123378 1.27121e-21 0.000111326)
(8.93319e-05 5.45116e-06 -3.19314e-20 0.000112881 5.18361e-21 0.000101111)
(8.03617e-05 3.47789e-06 -3.40359e-20 0.000102817 -5.12866e-22 9.15926e-05)
(7.22352e-05 1.7249e-06 -3.68997e-20 9.31821e-05 7.20997e-21 8.27112e-05)
(6.47887e-05 1.83392e-07 6.00112e-20 8.38628e-05 -6.13591e-21 7.43292e-05)
(5.78322e-05 -1.1342e-06 4.67684e-20 7.46881e-05 -1.47366e-21 6.62671e-05)
(5.12339e-05 -2.17191e-06 7.9489e-21 6.55842e-05 -5.5112e-21 5.84233e-05)
(4.50533e-05 -2.87734e-06 3.09388e-20 5.67904e-05 -3.34052e-21 5.09397e-05)
(3.94427e-05 -3.27175e-06 7.08134e-21 4.86666e-05 -1.75917e-21 4.40702e-05)
(3.44777e-05 -3.4235e-06 2.07214e-21 4.14053e-05 3.70802e-22 3.79577e-05)
(3.01122e-05 -3.39115e-06 -1.53461e-22 3.49968e-05 1.31493e-22 3.25761e-05)
(2.62768e-05 -3.21638e-06 -1.96264e-22 2.93914e-05 1.81889e-22 2.78613e-05)
(2.2948e-05 -2.94063e-06 6.95372e-21 2.45754e-05 7.43369e-22 2.37939e-05)
(2.01406e-05 -2.6048e-06 9.96829e-21 2.05437e-05 1.38609e-21 2.03818e-05)
(1.78683e-05 -2.23834e-06 2.02527e-20 1.72816e-05 1.53368e-21 1.76214e-05)
(1.62016e-05 -1.86442e-06 4.52656e-20 1.47995e-05 -1.52115e-21 1.5548e-05)
(1.51234e-05 -1.47657e-06 -1.61029e-19 1.30387e-05 -2.07818e-20 1.41326e-05)
(0.000236277 1.31756e-05 1.86986e-20 0.000188545 1.02093e-20 0.00021242)
(0.000224743 1.73048e-05 2.66547e-20 0.000185133 -1.483e-20 0.000204936)
(0.000212218 2.01678e-05 -9.09277e-20 0.000181741 -4.79562e-20 0.00019697)
(0.000199094 2.18027e-05 -7.45577e-20 0.000178087 -7.52153e-22 0.000188591)
(0.000185753 2.2291e-05 1.3707e-20 0.000173846 -1.38558e-21 0.000179798)
(0.000172545 2.18266e-05 6.39013e-20 0.000168856 -1.07541e-20 0.000170696)
(0.000159621 2.06315e-05 -1.76893e-20 0.000163045 4.21889e-21 0.000161335)
(0.000147038 1.88995e-05 -1.01147e-20 0.00015637 -8.74517e-22 0.00015171)
(0.000134923 1.68165e-05 -2.54983e-21 0.000148897 -4.30895e-21 0.000141913)
(0.000123343 1.45348e-05 -1.31756e-20 0.000140766 -3.31133e-22 0.000132061)
(0.000112356 1.21843e-05 2.84706e-20 0.000132114 3.73644e-21 0.000122241)
(0.000102042 9.86766e-06 5.60875e-20 0.000123152 1.41595e-20 0.000112603)
(9.24492e-05 7.6625e-06 8.62849e-21 0.000114072 4.18797e-21 0.000103265)
(8.36063e-05 5.61305e-06 3.98183e-20 0.000105058 4.63753e-21 9.43356e-05)
(7.5496e-05 3.74355e-06 1.71859e-20 9.62221e-05 5.15766e-21 8.58601e-05)
(6.80508e-05 2.05714e-06 2.82275e-20 8.75972e-05 1.99079e-21 7.78222e-05)
(6.11569e-05 5.59602e-07 -3.96304e-20 7.9125e-05 -7.61094e-21 7.01378e-05)
(5.46921e-05 -7.32135e-07 -6.24644e-21 7.07202e-05 -1.01165e-20 6.27044e-05)
(4.85871e-05 -1.76893e-06 -2.3763e-20 6.23825e-05 -1.96398e-22 5.5486e-05)
(4.28766e-05 -2.50374e-06 -3.32612e-20 5.42987e-05 -2.90272e-22 4.85894e-05)
(3.76709e-05 -2.94745e-06 -1.52443e-20 4.67631e-05 -5.12363e-22 4.22142e-05)
(3.30306e-05 -3.15249e-06 3.54212e-21 3.99577e-05 -3.55319e-22 3.64876e-05)
(2.89248e-05 -3.17155e-06 1.74966e-21 3.39019e-05 -7.07278e-23 3.14058e-05)
(2.52968e-05 -3.04466e-06 1.74914e-21 2.85681e-05 4.64594e-22 2.69232e-05)
(2.212e-05 -2.81109e-06 -2.12913e-22 2.39463e-05 -4.26248e-22 2.30206e-05)
(1.94024e-05 -2.51031e-06 -2.33926e-21 2.00356e-05 9.85245e-22 1.97023e-05)
(1.71425e-05 -2.17107e-06 -2.60452e-21 1.68044e-05 -3.86761e-21 1.69529e-05)
(1.54085e-05 -1.81481e-06 -7.88597e-20 1.42624e-05 -3.77288e-21 1.48094e-05)
(1.42342e-05 -1.43972e-06 7.60769e-21 1.23973e-05 1.01873e-20 1.32931e-05)
(0.000194749 1.45304e-05 -1.02728e-19 0.000159748 -4.45544e-20 0.000177247)
(0.000184626 1.71222e-05 2.16279e-20 0.000157212 3.1427e-20 0.00017091)
(0.000174039 1.86994e-05 5.54299e-20 0.000154561 9.61437e-21 0.000164301)
(0.000163278 1.9321e-05 -6.71948e-20 0.000151511 -2.82368e-20 0.000157393)
(0.000152607 1.91357e-05 -6.66785e-20 0.000147896 -6.86494e-21 0.000150248)
(0.000142124 1.83188e-05 3.80118e-20 0.000143642 9.34655e-21 0.000142883)
(0.000131864 1.702e-05 2.00105e-20 0.000138682 -4.36219e-22 0.000135276)
(0.000121889 1.53802e-05 -3.41456e-20 0.000133007 -1.86666e-21 0.00012745)
(0.000112242 1.35175e-05 2.96425e-20 0.000126708 1.3286e-21 0.000119479)
(0.000102971 1.1538e-05 -2.09105e-20 0.000119856 -1.00605e-20 0.000111418)
(9.41378e-05 9.52934e-06 5.04653e-20 0.000112591 -9.94368e-21 0.000103369)
(8.57892e-05 7.56287e-06 2.07056e-20 0.000105049 -3.7004e-21 9.54234e-05)
(7.79606e-05 5.68713e-06 -2.3905e-21 9.73745e-05 -8.3176e-21 8.76709e-05)
(7.06639e-05 3.93824e-06 7.79565e-21 8.96726e-05 -3.58596e-21 8.017e-05)
(6.38678e-05 2.33416e-06 -7.65235e-21 8.19952e-05 -5.05484e-21 7.2932e-05)
(5.75097e-05 8.92634e-07 -2.34161e-21 7.43355e-05 5.36408e-21 6.59229e-05)
(5.15235e-05 -3.64084e-07 -4.83184e-20 6.66753e-05 5.57469e-21 5.91008e-05)
(4.58742e-05 -1.3922e-06 3.7649e-22 5.90492e-05 3.23419e-21 5.2466e-05)
(4.05937e-05 -2.1475e-06 2.29916e-20 5.16223e-05 3.61735e-21 4.61142e-05)
(3.57592e-05 -2.63161e-06 3.25004e-22 4.46339e-05 1.58383e-21 4.0201e-05)
(3.14217e-05 -2.88395e-06 -4.24791e-21 3.82556e-05 -1.04737e-22 3.48416e-05)
(2.75635e-05 -2.95005e-06 -2.36265e-21 3.25313e-05 -9.54467e-23 3.00512e-05)
(2.41427e-05 -2.86733e-06 7.53293e-21 2.74553e-05 -2.81933e-23 2.5804e-05)
(2.11401e-05 -2.67248e-06 -5.12741e-21 2.3031e-05 -5.31753e-22 2.20911e-05)
(1.85694e-05 -2.40318e-06 3.75493e-20 1.92701e-05 4.73471e-21 1.89262e-05)
(1.64414e-05 -2.08799e-06 -8.72979e-20 1.61617e-05 -7.57068e-21 1.63095e-05)
(1.48197e-05 -1.74794e-06 1.29862e-19 1.37224e-05 1.01582e-20 1.42769e-05)
(1.37371e-05 -1.38337e-06 6.19115e-20 1.19435e-05 9.64844e-21 1.28497e-05)
(0.000161148 1.46019e-05 5.72462e-21 0.000136526 3.85559e-21 0.00014883)
(0.000152532 1.60934e-05 -3.59332e-20 0.0001346 -1.48874e-20 0.000143565)
(0.000143781 1.6783e-05 4.58971e-21 0.000132408 2.12146e-20 0.000138092)
(0.000135108 1.67882e-05 3.70628e-20 0.000129804 8.27339e-21 0.000132451)
(0.00012657 1.62491e-05 -4.18156e-20 0.000126699 -1.27252e-20 0.000126633)
(0.000118168 1.5283e-05 7.69585e-21 0.000123014 7.92512e-22 0.000120592)