/*--------------------------------*- C++ -*----------------------------------*\
| =========                 |                                                 |
| \\      /  F ield         | OpenFOAM: The Open Source CFD Toolbox           |
|  \\    /   O peration     | Version:  2506                                  |
|   \\  /    A nd           | Website:  www.openfoam.com                      |
|    \\/     M anipulation  |                                                 |
\*---------------------------------------------------------------------------*/
FoamFile
{
    version     2.0;
    format      ascii;
    arch        "LSB;label=32;scalar=64";
    class       pointScalarField;
    location    "1.2";
    object      streamFunction;
}
// * * * * * * * * * * * * * * * * * * * * * * * * * * * * * * * * * * * * * //

dimensions      [0 3 -1 0 0 0 0];

internalField   nonuniform List<scalar> 
882
(
0
0
0
0
0
0
0
0
0
0
0
0
0
0
0
0
0
0
0
0
0
0
1.24207e-06
-2.87509e-06
-1.22306e-05
-2.50198e-05
-3.95364e-05
-5.44247e-05
-6.84762e-05
-8.053e-05
-8.93266e-05
-9.36853e-05
-9.26107e-05
-8.5619e-05
-7.3047e-05
-5.6198e-05
-3.73802e-05
-1.95441e-05
-5.7035e-06
1.9411e-06
2.95863e-06
0
0
-3.0531e-06
-2.32217e-05
-5.88563e-05
-0.000104802
-0.000155912
-0.000207662
-0.000255873
-0.000296495
-0.000325444
-0.000338989
-0.000334284
-0.00031013
-0.000267873
-0.000211768
-0.000148935
-8.8371e-05
-3.91788e-05
-8.1419e-06
2.81516e-06
0
0
-1.40532e-05
-6.33728e-05
-0.000141661
-0.000238845
-0.000345089
-0.000451514
-0.000549806
-0.000631893
-0.000689847
-0.000716563
-0.000706777
-0.00065842
-0.000574094
-0.000461801
-0.00033487
-0.000210311
-0.00010565
-3.4516e-05
-2.0253e-06
0
0
-3.13461e-05
-0.000122463
-0.000258935
-0.000423917
-0.000601776
-0.000778463
-0.000940809
-0.00107603
-0.00117169
-0.00121668
-0.00120272
-0.00112635
-0.000991066
-0.000808659
-0.000599351
-0.000389763
-0.000208352
-7.86192e-05
-1.17662e-05
0
0
-5.42174e-05
-0.00019863
-0.000407429
-0.000655193
-0.000919528
-0.00118068
-0.00142025
-0.00162037
-0.00176368
-0.00183445
-0.00182061
-0.00171626
-0.00152477
-0.00126089
-0.000951736
-0.000634898
-0.000352738
-0.000142828
-2.67271e-05
0
0
-8.18024e-05
-0.000289376
-0.000582746
-0.000926365
-0.00129034
-0.00164893
-0.00197842
-0.0022558
-0.0024585
-0.00256564
-0.00256034
-0.00243278
-0.00218434
-0.00183103
-0.00140591
-0.000958326
-0.000547843
-0.000231685
-4.79975e-05
0
0
-0.000113057
-0.000391583
-0.000779322
-0.00122942
-0.001704
-0.00217131
-0.00260254
-0.0029697
-0.00324503
-0.00340205
-0.00341797
-0.00327735
-0.00297708
-0.00253162
-0.00197774
-0.0013761
-0.000806378
-0.000352325
-7.76265e-05
0
0
-0.000146736
-0.000501512
-0.000990386
-0.00155439
-0.00214747
-0.00273207
-0.00327473
-0.00374304
-0.00410436
-0.00432649
-0.00437993
-0.00424186
-0.00390193
-0.00336929
-0.00268046
-0.00190491
-0.00114371
-0.00051446
-0.000118735
0
0
-0.000181443
-0.000614944
-0.00120814
-0.00188949
-0.00260473
-0.00331096
-0.00397082
-0.00454832
-0.00500673
-0.0053086
-0.00541753
-0.0053021
-0.0049421
-0.00433718
-0.003518
-0.00255731
-0.00157551
-0.000729905
-0.000175631
0
0
-0.000215791
-0.000727593
-0.00142434
-0.00222167
-0.00305728
-0.00388355
-0.0046602
-0.00534895
-0.00591027
-0.00630265
-0.00648357
-0.00641275
-0.00605862
-0.0054073
-0.00447692
-0.00333485
-0.00211359
-0.00101142
-0.000253954
0
0
-0.000248719
-0.000835893
-0.0016315
-0.0025381
-0.0034857
-0.00442283
-0.00530759
-0.00610097
-0.00676252
-0.00724863
-0.00751257
-0.0075062
-0.00718705
-0.00652484
-0.00551882
-0.00422008
-0.00275991
-0.00137033
-0.000360775
0
0
-0.000280022
-0.000938243
-0.00182458
-0.00282821
-0.00387206
-0.00490207
-0.00587633
-0.00675702
-0.00750504
-0.00807722
-0.00842536
-0.00849702
-0.00823962
-0.00760724
-0.00657582
-0.00516913
-0.00349901
-0.00181245
-0.000504412
0
0
-0.000311205
-0.00103679
-0.00200342
-0.00308637
-0.00420289
-0.00529825
-0.00633267
-0.00727173
-0.0080801
-0.00871792
-0.00913893
-0.00929006
-0.0091131
-0.0085494
-0.00755137
-0.00610761
-0.00429059
-0.00233195
-0.000693412
0
0
-0.000346903
-0.00113992
-0.0021753
-0.00331434
-0.00447152
-0.00559473
-0.00664908
-0.00760601
-0.00843636
-0.00910624
-0.00957465
-0.00979207
-0.00970027
-0.00923388
-0.00832682
-0.00693116
-0.00506391
-0.00290358
-0.000933673
0
0
-0.00039735
-0.00126543
-0.00235699
-0.0035217
-0.00467745
-0.0057799
-0.00680275
-0.00772594
-0.00852857
-0.0091849
-0.00966179
-0.00991706
-0.00989809
-0.00954075
-0.00877026
-0.00750978
-0.00571473
-0.00347372
-0.00122225
0
0
-0.000482299
-0.00144288
-0.00257206
-0.00371854
-0.00481557
-0.00583434
-0.00676159
-0.00758826
-0.00830329
-0.00889041
-0.0093261
-0.00957817
-0.00960427
-0.0093491
-0.00874151
-0.00769161
-0.00610296
-0.00394992
-0.00153689
0
0
-0.000634824
-0.00170564
-0.00282741
-0.00388089
-0.00483552
-0.00568749
-0.00644052
-0.00709793
-0.00765875
-0.00811617
-0.00845666
-0.00865925
-0.00869479
-0.00852223
-0.00808531
-0.00730083
-0.00604547
-0.00418712
-0.00182232
0
0
-0.000893546
-0.00202805
-0.00301348
-0.0038368
-0.00452779
-0.00511102
-0.00560516
-0.00602286
-0.00637036
-0.00664795
-0.00685048
-0.00696754
-0.00698376
-0.00687448
-0.00660591
-0.00611978
-0.00530489
-0.00396109
-0.00194204
0
0
-0.00115686
-0.00203531
-0.00259086
-0.00299356
-0.00330227
-0.00354355
-0.00373536
-0.00388936
-0.0040118
-0.00410498
-0.00416832
-0.00419914
-0.00419318
-0.0041399
-0.00402979
-0.00383917
-0.00350821
-0.00286846
-0.00162366
0
0
0
0
0
0
0
0
0
0
0
0
0
0
0
0
0
0
0
0
0
0
0
0
0
0
0
0
0
0
0
0
0
0
0
0
0
0
0
0
0
0
0
0
1.24207e-06
-2.87509e-06
-1.22306e-05
-2.50198e-05
-3.95364e-05
-5.44247e-05
-6.84762e-05
-8.053e-05
-8.93266e-05
-9.36853e-05
-9.26107e-05
-8.5619e-05
-7.3047e-05
-5.6198e-05
-3.73802e-05
-1.95441e-05
-5.7035e-06
1.9411e-06
2.95863e-06
0
0
-3.0531e-06
-2.32217e-05
-5.88563e-05
-0.000104802
-0.000155912
-0.000207662
-0.000255873
-0.000296495
-0.000325444
-0.000338989
-0.000334284
-0.00031013
-0.000267873
-0.000211768
-0.000148935
-8.8371e-05
-3.91788e-05
-8.1419e-06
2.81516e-06
0
0
-1.40532e-05
-6.33728e-05
-0.000141661
-0.000238845
-0.000345089
-0.000451514
-0.000549806
-0.000631893
-0.000689847
-0.000716563
-0.000706777
-0.00065842
-0.000574094
-0.000461801
-0.00033487
-0.000210311
-0.00010565
-3.4516e-05
-2.0253e-06
0
0
-3.13461e-05
-0.000122463
-0.000258935
-0.000423917
-0.000601776
-0.000778463
-0.000940809
-0.00107603
-0.00117169
-0.00121668
-0.00120272
-0.00112635
-0.000991066
-0.000808659
-0.000599351
-0.000389763
-0.000208352
-7.86192e-05
-1.17662e-05
0
0
-5.42174e-05
-0.00019863
-0.000407429
-0.000655193
-0.000919528
-0.00118068
-0.00142025
-0.00162037
-0.00176368
-0.00183445
-0.00182061
-0.00171626
-0.00152477
-0.00126089
-0.000951736
-0.000634898
-0.000352738
-0.000142828
-2.67271e-05
0
0
-8.18024e-05
-0.000289376
-0.000582746
-0.000926365
-0.00129034
-0.00164893
-0.00197842
-0.0022558
-0.0024585
-0.00256564
-0.00256034
-0.00243278
-0.00218434
-0.00183103
-0.00140591
-0.000958326
-0.000547843
-0.000231685
-4.79975e-05
0
0
-0.000113057
-0.000391583
-0.000779322
-0.00122942
-0.001704
-0.00217131
-0.00260254
-0.0029697
-0.00324503
-0.00340205
-0.00341797
-0.00327735
-0.00297708
-0.00253162
-0.00197774
-0.0013761
-0.000806378
-0.000352325
-7.76265e-05
0
0
-0.000146736
-0.000501512
-0.000990386
-0.00155439
-0.00214747
-0.00273207
-0.00327473
-0.00374304
-0.00410436
-0.00432649
-0.00437993
-0.00424186
-0.00390193
-0.00336929
-0.00268046
-0.00190491
-0.00114371
-0.00051446
-0.000118735
0
0
-0.000181443
-0.000614944
-0.00120814
-0.00188949
-0.00260473
-0.00331096
-0.00397082
-0.00454832
-0.00500673
-0.0053086
-0.00541753
-0.0053021
-0.0049421
-0.00433718
-0.003518
-0.00255731
-0.00157551
-0.000729905
-0.000175631
0
0
-0.000215791
-0.000727593
-0.00142434
-0.00222167
-0.00305728
-0.00388355
-0.0046602
-0.00534895
-0.00591027
-0.00630265
-0.00648357
-0.00641275
-0.00605862
-0.0054073
-0.00447692
-0.00333485
-0.00211359
-0.00101142
-0.000253954
0
0
-0.000248719
-0.000835893
-0.0016315
-0.0025381
-0.0034857
-0.00442283
-0.00530759
-0.00610097
-0.00676252
-0.00724863
-0.00751257
-0.0075062
-0.00718705
-0.00652484
-0.00551882
-0.00422008
-0.00275991
-0.00137033
-0.000360775
0
0
-0.000280022
-0.000938243
-0.00182458
-0.00282821
-0.00387206
-0.00490207
-0.00587633
-0.00675702
-0.00750504
-0.00807722
-0.00842536
-0.00849702
-0.00823962
-0.00760724
-0.00657582
-0.00516913
-0.00349901
-0.00181245
-0.000504412
0
0
-0.000311205
-0.00103679
-0.00200342
-0.00308637
-0.00420289
-0.00529825
-0.00633267
-0.00727173
-0.0080801
-0.00871792
-0.00913893
-0.00929006
-0.0091131
-0.0085494
-0.00755137
-0.00610761
-0.00429059
-0.00233195
-0.000693412
0
0
-0.000346903
-0.00113992
-0.0021753
-0.00331434
-0.00447152
-0.00559473
-0.00664908
-0.00760601
-0.00843636
-0.00910624
-0.00957465
-0.00979207
-0.00970027
-0.00923388
-0.00832682
-0.00693116
-0.00506391
-0.00290358
-0.000933673
0
0
-0.00039735
-0.00126543
-0.00235699
-0.0035217
-0.00467745
-0.0057799
-0.00680275
-0.00772594
-0.00852857
-0.0091849
-0.00966179
-0.00991706
-0.00989809
-0.00954075
-0.00877026
-0.00750978
-0.00571473
-0.00347372
-0.00122225
0
0
-0.000482299
-0.00144288
-0.00257206
-0.00371854
-0.00481557
-0.00583434
-0.00676159
-0.00758826
-0.00830329
-0.00889041
-0.0093261
-0.00957817
-0.00960427
-0.0093491
-0.00874151
-0.00769161
-0.00610296
-0.00394992
-0.00153689
0
0
-0.000634824
-0.00170564
-0.00282741
-0.00388089
-0.00483552
-0.00568749
-0.00644052
-0.00709793
-0.00765875
-0.00811617
-0.00845666
-0.00865925
-0.00869479
-0.00852223
-0.00808531
-0.00730083
-0.00604547
-0.00418712
-0.00182232
0
0
-0.000893546
-0.00202805
-0.00301348
-0.0038368
-0.00452779
-0.00511102
-0.00560516
-0.00602286
-0.00637036
-0.00664795
-0.00685048
-0.00696754
-0.00698376
-0.00687448
-0.00660591
-0.00611978
-0.00530489
-0.00396109
-0.00194204
0
0
-0.00115686
-0.00203531
-0.00259086
-0.00299356
-0.00330227
-0.00354355
-0.00373536
-0.00388936
-0.0040118
-0.00410498
-0.00416832
-0.00419914
-0.00419318
-0.0041399
-0.00402979
-0.00383917
-0.00350821
-0.00286846
-0.00162366
0
0
0
0
0
0
0
0
0
0
0
0
0
0
0
0
0
0
0
0
0
0
)
;

boundaryField
{
    movingWall
    {
        type            calculated;
    }
    fixedWalls
    {
        type            calculated;
    }
    frontAndBack
    {
        type            empty;
    }
}


// ************************************************************************* //
