/*--------------------------------*- C++ -*----------------------------------*\
| =========                 |                                                 |
| \\      /  F ield         | OpenFOAM: The Open Source CFD Toolbox           |
|  \\    /   O peration     | Version:  2506                                  |
|   \\  /    A nd           | Website:  www.openfoam.com                      |
|    \\/     M anipulation  |                                                 |
\*---------------------------------------------------------------------------*/
FoamFile
{
    version     2.0;
    format      ascii;
    arch        "LSB;label=32;scalar=64";
    class       volVectorField;
    location    "100";
    object      momentError;
}
// * * * * * * * * * * * * * * * * * * * * * * * * * * * * * * * * * * * * * //

dimensions      [0 1 -2 0 0 0 0];

internalField   nonuniform List<vector> 
1340
(
(-0.00508976 0.00015087 3.77084e-16)
(-0.00501758 -0.00951893 -1.30558e-15)
(-0.00653801 -0.00322675 3.7297e-15)
(-0.00608594 -0.00661449 5.09005e-16)
(-0.00492861 -0.000227229 7.68926e-16)
(-0.0045502 -0.00955324 1.86932e-15)
(-0.00764794 -0.00418411 6.39989e-17)
(-0.00678421 -0.00477396 3.91519e-16)
(-0.00631422 -0.00359514 4.34792e-16)
(-0.00561736 -0.00677857 -2.53662e-16)
(-0.00470287 -0.000824893 -3.51819e-16)
(-0.00410594 -0.00954027 2.03804e-15)
(-0.0095275 -0.00331675 -7.96323e-16)
(-0.00886464 -0.00405852 1.67013e-15)
(-0.00811654 -0.004437 2.43868e-18)
(-0.00739369 -0.00459582 9.39327e-19)
(-0.00655482 -0.00519253 7.51554e-16)
(-0.00601699 -0.00414341 -2.6007e-15)
(-0.00513875 -0.00686965 -1.4239e-15)
(-0.00442886 -0.00119917 9.14239e-18)
(-0.00372209 -0.00948095 -3.63037e-15)
(-0.0126224 0.000148443 1.22378e-16)
(-0.0119009 -0.000510152 -1.57447e-16)
(-0.010953 -0.00109366 1.15857e-16)
(-0.0101116 -0.00189756 6.52481e-16)
(-0.00938694 -0.00273174 -2.41021e-16)
(-0.00881541 -0.0035499 1.60097e-15)
(-0.00826968 -0.00430844 -4.94846e-16)
(-0.00765127 -0.0048106 -8.4136e-16)
(-0.00694261 -0.00509528 -1.19081e-17)
(-0.00615836 -0.00555289 -1.12584e-16)
(-0.0056679 -0.00450597 1.69466e-15)
(-0.00469321 -0.00689948 9.76392e-16)
(-0.00415871 -0.00131939 -1.14351e-18)
(-0.00338211 -0.00937228 2.94048e-16)
(-0.0220206 0.00217474 -5.22134e-16)
(-0.020069 0.00129862 1.21331e-16)
(-0.0181171 0.000553983 2.01168e-16)
(-0.0161586 -7.22077e-05 6.28691e-16)
(-0.0142574 -0.000610068 5.79735e-16)
(-0.012578 -0.00103439 -2.28477e-16)
(-0.0117065 -0.00148498 -3.59021e-16)
(-0.0106062 -0.00182928 -3.29586e-16)
(-0.00967047 -0.00243431 9.84638e-16)
(-0.00883288 -0.00316892 -6.93284e-17)
(-0.00805762 -0.00396215 -4.06409e-16)
(-0.00750119 -0.00464044 5.16962e-16)
(-0.00698335 -0.00508964 -3.77683e-16)
(-0.00639837 -0.00533952 1.01227e-17)
(-0.00568076 -0.00570828 -1.05861e-16)
(-0.00525487 -0.00463105 3.82867e-16)
(-0.00427088 -0.00686016 4.61885e-16)
(-0.00390315 -0.00143734 1.8199e-17)
(-0.00301827 -0.00922135 -1.52857e-16)
(-0.0375773 0.00561971 2.47041e-16)
(-0.0347587 0.0052228 4.37578e-16)
(-0.0321155 0.00469376 5.20602e-16)
(-0.0296629 0.00402191 -1.3682e-16)
(-0.0274436 0.00322218 4.12056e-16)
(-0.0253679 0.00234141 -4.14466e-16)
(-0.0233755 0.00140952 -1.24164e-15)
(-0.021594 0.000502899 -6.36096e-16)
(-0.0198191 -0.000339842 3.45012e-16)
(-0.0180199 -0.0010603 5.90261e-17)
(-0.0162613 -0.00165545 8.10512e-16)
(-0.0144499 -0.00217799 -1.26376e-16)
(-0.0125293 -0.00254165 -2.79005e-17)
(-0.0115186 -0.00285509 4.70427e-17)
(-0.010311 -0.00294586 -3.12081e-17)
(-0.00924216 -0.00326918 -3.16468e-16)
(-0.00830314 -0.00368746 6.30749e-16)
(-0.00749584 -0.00422683 -5.75417e-16)
(-0.00684772 -0.00477607 7.33356e-17)
(-0.00634088 -0.00512807 1.03902e-15)
(-0.00582073 -0.0053232 -2.43175e-17)
(-0.00516878 -0.00568967 1.08811e-16)
(-0.00478962 -0.00468984 -8.71459e-16)
(-0.00384307 -0.00676771 -1.0738e-15)
(-0.00364528 -0.00155832 -1.35608e-17)
(-0.00262089 -0.00904015 4.19258e-16)
(-0.0761416 -0.00158618 -9.87222e-17)
(-0.0722968 -0.000777005 1.48671e-16)
(-0.0685215 -4.85532e-05 -7.74719e-17)
(-0.0648264 0.00056692 -9.96895e-17)
(-0.0612157 0.00107147 3.58947e-16)
(-0.0576961 0.00146315 -2.86882e-16)
(-0.0542851 0.0017497 5.51453e-17)
(-0.0509834 0.00194024 3.00796e-16)
(-0.0477635 0.00205346 -3.37867e-16)
(-0.0448046 0.00217016 -9.52226e-16)
(-0.0418567 0.00229863 1.45424e-17)
(-0.0387904 0.00232818 -1.7987e-16)
(-0.0361838 0.00237031 1.76878e-16)
(-0.0335352 0.00222366 1.60041e-16)
(-0.031005 0.00198699 -6.28309e-17)
(-0.0286448 0.00163157 -1.06311e-16)
(-0.0264645 0.00112737 3.82048e-16)
(-0.0246028 0.000503013 -1.40685e-16)
(-0.0227496 -0.000279876 -2.12484e-16)
(-0.0207059 -0.00121807 1.8057e-16)
(-0.0190713 -0.00198084 -5.45062e-16)
(-0.0174709 -0.00266444 3.53549e-16)
(-0.015903 -0.0032439 -2.14291e-16)
(-0.014301 -0.00366915 -2.92473e-16)
(-0.0126431 -0.00385442 1.62081e-16)
(-0.0116198 -0.00406035 1.20484e-16)
(-0.0103376 -0.00394181 2.40005e-16)
(-0.00915067 -0.00401615 -2.67582e-16)
(-0.00810289 -0.00413807 -4.60783e-16)
(-0.00720722 -0.00438777 1.61742e-16)
(-0.00644236 -0.00478166 2.60891e-17)
(-0.00584694 -0.00506091 -1.04684e-16)
(-0.00529679 -0.00527697 8.0128e-18)
(-0.00467195 -0.00561633 -8.73036e-17)
(-0.00430254 -0.0046918 1.74562e-15)
(-0.00339409 -0.0066224 -8.26716e-17)
(-0.0033633 -0.00165541 1.65824e-16)
(-0.00221196 -0.00883999 -6.32394e-17)
(-0.11631 -0.166108 -4.66306e-17)
(-0.135568 -0.16307 -1.28403e-17)
(-0.147085 -0.154392 -9.57391e-19)
(-0.157327 -0.144876 -1.51099e-17)
(-0.166209 -0.135999 -7.17573e-18)
(-0.173741 -0.127632 -5.7062e-18)
(-0.179953 -0.119871 1.78988e-17)
(-0.184892 -0.112711 3.94886e-17)
(-0.188618 -0.106142 -1.93454e-17)
(-0.191195 -0.100111 -2.98612e-17)
(-0.192724 -0.0945524 1.63373e-17)
(-0.193256 -0.0893806 -3.44478e-17)
(-0.192903 -0.0845347 -3.37096e-17)
(-0.191741 -0.0799568 -3.47252e-17)
(-0.18987 -0.0755917 -5.90684e-17)
(-0.187372 -0.0714222 -4.46762e-18)
(-0.184326 -0.0674298 -5.15983e-17)
(-0.180833 -0.0636242 -3.125e-17)
(-0.176966 -0.0599948 -7.01995e-17)
(-0.172792 -0.056549 -3.90912e-18)
(-0.168391 -0.0532815 8.65381e-17)
(-0.16381 -0.0501852 6.98929e-17)
(-0.159102 -0.0472375 -4.49145e-17)
(-0.154311 -0.0444232 3.62661e-17)
(-0.149476 -0.0417169 7.34754e-17)
(-0.144619 -0.0390979 -3.87086e-18)
(-0.139771 -0.0365511 -5.63542e-17)
(-0.134953 -0.0340688 -1.58247e-18)
(-0.130181 -0.0316516 1.69644e-17)
(-0.125462 -0.0292983 -8.7287e-18)
(-0.120822 -0.0270279 -5.46252e-17)
(-0.116272 -0.0248487 3.62314e-17)
(-0.111807 -0.0227736 -1.32091e-16)
(-0.107441 -0.0208077 -4.4988e-17)
(-0.103198 -0.0189669 9.4133e-17)
(-0.099064 -0.0172415 1.53795e-17)
(-0.0950634 -0.0156522 1.30968e-17)
(-0.0911519 -0.0141878 -1.25436e-17)
(-0.0873669 -0.0128333 2.94799e-17)
(-0.0832625 -0.0115597 1.27417e-16)
(-0.080349 -0.0103028 -5.30952e-17)
(-0.0772115 -0.00896903 6.77513e-18)
(-0.0728542 -0.00798876 8.85167e-18)
(-0.0707531 -0.00635579 -7.88336e-17)
(-0.0674111 -0.00549791 3.51082e-16)
(-0.0640245 -0.00473465 8.6434e-18)
(-0.0607134 -0.00403578 -3.32839e-16)
(-0.0574671 -0.00340553 3.07886e-16)
(-0.0543007 -0.00285821 1.98158e-16)
(-0.0512209 -0.00239114 -4.28405e-17)
(-0.0482298 -0.00200787 8.86857e-18)
(-0.0453002 -0.00170117 -3.19811e-16)
(-0.0424097 -0.0014578 -5.10645e-16)
(-0.0400048 -0.0011634 -3.13231e-17)
(-0.0373819 -0.000949331 -1.08771e-16)
(-0.0339729 -0.00110925 1.62481e-16)
(-0.0315158 -0.000978644 -3.06738e-17)
(-0.0291906 -0.000888039 -7.4644e-16)
(-0.027 -0.000912521 -3.46994e-17)
(-0.0249555 -0.00108839 2.36996e-16)
(-0.0231753 -0.00144049 1.08737e-16)
(-0.0214936 -0.00196699 2.67935e-16)
(-0.0198993 -0.00257347 2.31529e-16)
(-0.0183691 -0.00319084 3.61402e-16)
(-0.0169199 -0.00378727 6.11929e-16)
(-0.0155208 -0.00434358 1.17861e-17)
(-0.0141549 -0.00471492 7.59418e-17)
(-0.0127489 -0.00482597 -1.01643e-16)
(-0.0118624 -0.00500644 -9.29962e-17)
(-0.0105989 -0.00478859 4.80395e-16)
(-0.00935615 -0.00469565 -3.91804e-16)
(-0.00820396 -0.00463584 -1.90849e-17)
(-0.00718135 -0.00471141 -3.44297e-16)
(-0.00627778 -0.00492159 4.45828e-16)
(-0.00554357 -0.0050816 -1.89506e-16)
(-0.0048907 -0.00524973 2.72059e-17)
(-0.00422769 -0.00551734 4.89966e-17)
(-0.00382225 -0.00464307 -1.17456e-15)
(-0.00293778 -0.00643462 4.85311e-16)
(-0.00304895 -0.00172861 1.09736e-16)
(-0.00180967 -0.00862469 4.614e-18)
(-0.0450481 -0.179943 -6.5356e-18)
(-0.0599912 -0.178686 -4.3873e-18)
(-0.0719763 -0.170129 4.95331e-18)
(-0.0831226 -0.161114 -3.01027e-19)
(-0.0934255 -0.152086 -6.81515e-18)
(-0.102787 -0.143172 2.41167e-17)
(-0.111162 -0.13452 6.7549e-18)
(-0.11853 -0.126226 -8.101e-18)
(-0.124888 -0.118395 1.91906e-17)
(-0.130259 -0.111102 -1.53317e-18)
(-0.13468 -0.104385 2.18571e-17)
(-0.138183 -0.0982249 3.34566e-17)
(-0.140832 -0.0925998 -1.91222e-17)
(-0.142678 -0.0874524 2.96507e-17)
(-0.143784 -0.0827168 -1.49451e-17)
(-0.14421 -0.0783237 -5.54148e-17)
(-0.144017 -0.0742137 -1.60834e-18)
(-0.143276 -0.0703429 1.70528e-17)
(-0.14205 -0.066677 1.20594e-17)
(-0.14039 -0.0631882 -9.12137e-18)
(-0.138367 -0.0598697 -1.32735e-17)
(-0.136024 -0.0567059 -5.25171e-18)
(-0.133416 -0.0536892 -1.38768e-17)
(-0.130584 -0.0508046 -2.65102e-17)
(-0.127575 -0.0480419 3.73513e-18)
(-0.124418 -0.0453789 3.14072e-17)
(-0.12115 -0.0428005 -2.14855e-17)
(-0.117791 -0.0402911 2.37963e-17)
(-0.114368 -0.0378435 -1.22695e-17)
(-0.110889 -0.0354477 2.36866e-17)
(-0.107387 -0.0331067 -5.88626e-17)
(-0.103869 -0.0308283 -6.03076e-17)
(-0.100346 -0.0286168 -1.40438e-18)
(-0.096829 -0.0264835 -1.05688e-16)
(-0.0933536 -0.0244432 -1.90062e-17)
(-0.089906 -0.0224989 4.45695e-17)
(-0.0865276 -0.0206636 1.97489e-17)
(-0.0831749 -0.0189575 1.25948e-17)
(-0.079889 -0.017393 3.30481e-17)
(-0.0764087 -0.0159316 9.77274e-17)
(-0.072807 -0.0145994 -8.20656e-18)
(-0.0707495 -0.0133614 -6.93149e-17)
(-0.0681078 -0.0121285 5.84058e-17)
(-0.0622539 -0.0117798 -1.44322e-16)
(-0.0594097 -0.0107268 -2.29673e-16)
(-0.0566624 -0.00975509 1.45794e-17)
(-0.0539621 -0.00885723 1.03137e-16)
(-0.0513157 -0.00803082 -1.49726e-16)
(-0.0487285 -0.00727893 1.26525e-16)
(-0.0461945 -0.00660195 6.75012e-17)
(-0.0437113 -0.00600425 1.11154e-16)
(-0.0412449 -0.00548946 2.58779e-16)
(-0.0387957 -0.00505875 2.78826e-16)
(-0.0366636 -0.00467562 -1.56176e-17)
(-0.0344481 -0.00437305 -2.59977e-17)
(-0.0322235 -0.00401561 8.9808e-17)
(-0.029962 -0.00366643 9.71003e-17)
(-0.0278341 -0.00331466 5.87428e-16)
(-0.0257895 -0.00306849 8.48625e-18)
(-0.0238475 -0.00296197 -5.59669e-16)
(-0.0221407 -0.00303142 6.49649e-17)
(-0.0206042 -0.0032457 -2.72905e-16)
(-0.0191721 -0.00357532 -1.4597e-16)
(-0.0177437 -0.0040168 -6.71437e-18)
(-0.0163951 -0.00451074 -5.08316e-16)
(-0.0151139 -0.00502151 5.8869e-17)
(-0.0139121 -0.00541604 3.38783e-17)
(-0.0127064 -0.00560834 -3.69025e-18)
(-0.0120016 -0.00585602 7.29051e-17)
(-0.010842 -0.00563727 -2.52261e-16)
(-0.00963466 -0.00546778 1.22454e-16)
(-0.00845079 -0.00528042 5.64919e-17)
(-0.00733289 -0.00519262 2.06621e-17)
(-0.00629709 -0.00521238 -1.07618e-15)
(-0.0054109 -0.00520857 -3.20006e-16)
(-0.00461816 -0.00526378 -9.73303e-18)
(-0.00386566 -0.00542143 2.26107e-17)
(-0.00338055 -0.00457955 -8.86562e-16)
(-0.002504 -0.00622706 3.15536e-16)
(-0.00271705 -0.00178142 -2.50352e-16)
(-0.00141724 -0.00839364 7.16552e-18)
(-0.00603482 -0.176464 -7.06202e-18)
(-0.0155679 -0.177158 -2.85684e-18)
(-0.0252653 -0.170617 7.10744e-18)
(-0.03477 -0.163931 4.55595e-18)
(-0.0440703 -0.156957 -2.21967e-18)
(-0.0529702 -0.149744 -2.36342e-18)
(-0.0613389 -0.142321 6.63603e-18)
(-0.0690769 -0.134764 -4.98256e-18)
(-0.0761074 -0.127177 -1.79725e-18)
(-0.0823912 -0.119691 7.66203e-18)
(-0.0879084 -0.112437 -1.31683e-18)
(-0.0926513 -0.10551 1.14567e-17)
(-0.0966453 -0.099007 1.08727e-17)
(-0.0999128 -0.0929615 -7.9462e-18)
(-0.102496 -0.0873976 1.876e-17)
(-0.104435 -0.0822939 -3.94215e-18)
(-0.105778 -0.0776233 -1.276e-17)
(-0.106576 -0.073338 1.55077e-17)
(-0.106883 -0.0693967 7.01349e-18)
(-0.106734 -0.0657476 -4.43742e-19)
(-0.10619 -0.0623579 -4.90062e-18)
(-0.105287 -0.0591891 -3.44975e-17)
(-0.104075 -0.0562161 1.77139e-18)
(-0.102594 -0.0534152 -1.91368e-17)
(-0.100884 -0.0507627 -1.8466e-18)
(-0.0989825 -0.0482405 1.0996e-17)
(-0.0969224 -0.045827 1.65196e-17)
(-0.0947341 -0.043505 1.64354e-18)
(-0.0924383 -0.0412546 4.77991e-18)
(-0.0900562 -0.0390673 -5.07377e-18)
(-0.0876121 -0.0369333 1.49691e-17)
(-0.0851249 -0.03485 -3.15775e-17)
(-0.082598 -0.0328073 -8.0309e-18)
(-0.0800519 -0.0308147 1.93801e-17)
(-0.0775036 -0.0288738 -5.51932e-17)
(-0.0749491 -0.0269876 -3.28424e-17)
(-0.0724229 -0.0251609 1.01769e-17)
(-0.0699037 -0.023415 -6.20198e-18)
(-0.0674329 -0.0217829 -1.88793e-17)
(-0.0648088 -0.0202659 -2.87789e-17)
(-0.0621296 -0.0188552 1.89916e-17)
(-0.0603591 -0.0175499 -2.01453e-17)
(-0.0582358 -0.0163486 -5.65974e-17)
(-0.0559691 -0.0151465 2.88565e-17)
(-0.0534977 -0.0140283 -1.15957e-16)
(-0.0512222 -0.0129153 -4.16886e-19)
(-0.048959 -0.0119092 6.29429e-18)
(-0.0467392 -0.0109933 8.7464e-17)
(-0.0445601 -0.0101598 -1.6588e-16)
(-0.0424161 -0.00940692 1.39395e-19)
(-0.0403006 -0.00873224 1.77955e-16)
(-0.0381928 -0.00814288 -6.07004e-17)
(-0.036081 -0.00764507 2.5293e-16)
(-0.0342514 -0.00719726 1.78167e-17)
(-0.0324549 -0.00676162 -3.44292e-17)
(-0.0306071 -0.00631168 -3.63633e-17)
(-0.028633 -0.00585384 -1.05594e-17)
(-0.0267337 -0.00538628 -3.34566e-16)
(-0.0248621 -0.00497088 1.22027e-16)
(-0.0230427 -0.00464787 3.20989e-16)
(-0.0213844 -0.00446392 -7.33821e-17)
(-0.019861 -0.00441958 5.38698e-16)
(-0.0184384 -0.00452568 1.43915e-17)
(-0.0170519 -0.00477204 -9.35841e-17)
(-0.0157496 -0.00513089 -1.25772e-16)
(-0.014542 -0.00555265 -1.51205e-16)
(-0.0134589 -0.0059367 2.88839e-16)
(-0.0124138 -0.00619119 6.95151e-17)
(-0.0118825 -0.00654621 1.48875e-16)
(-0.0108699 -0.00638713 -2.75091e-16)
(-0.00977001 -0.00621981 8.96505e-17)
(-0.00863561 -0.00596887 -6.16277e-17)
(-0.00750153 -0.00575597 -6.81952e-16)
(-0.00639275 -0.00561205 -2.24528e-16)
(-0.00538353 -0.00543887 8.3244e-17)
(-0.00444867 -0.00535275 6.28574e-18)
(-0.00358309 -0.0053661 1.09438e-16)
(-0.00298916 -0.00453491 1.67668e-16)
(-0.00210791 -0.00602375 -5.70699e-16)
(-0.00238633 -0.00182356 -1.25434e-16)
(-0.00102494 -0.00814998 -3.3886e-16)
(0.0062888 -0.157203 4.37066e-18)
(0.00299702 -0.158771 -7.67028e-19)
(-0.00198729 -0.154383 -5.34476e-18)
(-0.00768566 -0.15043 -1.56911e-18)
(-0.0139546 -0.146609 3.62674e-18)
(-0.0205779 -0.142687 -3.00084e-19)
(-0.027352 -0.138498 -2.49323e-18)
(-0.0340981 -0.133923 9.8653e-19)
(-0.0406598 -0.12892 -1.2037e-17)
(-0.0469092 -0.123509 -7.12167e-18)
(-0.0527487 -0.117776 -6.31768e-18)
(-0.0580998 -0.11182 -2.48198e-19)
(-0.0629189 -0.105781 1.5938e-17)
(-0.0671785 -0.099775 -5.28281e-18)
(-0.0708731 -0.0939169 -1.72121e-17)
(-0.0740089 -0.0882957 8.42814e-18)
(-0.0766036 -0.0829736 -6.8851e-18)
(-0.0786845 -0.0779866 -2.77137e-17)
(-0.080282 -0.0733482 -2.80525e-18)
(-0.0814268 -0.0690559 2.20648e-20)
(-0.0821583 -0.0650969 2.55083e-17)
(-0.0825098 -0.0614437 2.87717e-17)
(-0.0825173 -0.0580682 2.84818e-18)
(-0.0822195 -0.0549445 1.02782e-17)
(-0.0816497 -0.0520402 -8.17054e-19)
(-0.0808414 -0.0493296 1.69816e-17)
(-0.0798224 -0.0467843 -7.60259e-18)
(-0.0786257 -0.0443827 -1.74935e-18)
(-0.0772697 -0.042098 -1.72737e-18)
(-0.0757798 -0.0399163 3.49282e-18)
(-0.0741798 -0.0378241 -1.26092e-18)
(-0.0724937 -0.0358131 1.66808e-17)
(-0.0707259 -0.0338635 1.09483e-18)
(-0.0689016 -0.0319814 1.95047e-19)
(-0.0670327 -0.0301618 9.63293e-18)
(-0.0651188 -0.0283992 3.85052e-17)
(-0.0632002 -0.0266895 -2.24272e-17)
(-0.06128 -0.0250465 -3.94443e-18)
(-0.0594025 -0.0234986 2.94205e-17)
(-0.0574203 -0.0220473 2.63813e-18)
(-0.0552835 -0.020673 -4.27783e-17)
(-0.053779 -0.0193678 1.80772e-17)
(-0.0521504 -0.0181078 4.51735e-17)
(-0.0503377 -0.0169426 1.0317e-16)
(-0.0483908 -0.0158311 1.04358e-16)
(-0.0465581 -0.0147641 2.59808e-17)
(-0.044713 -0.0137854 -6.53994e-18)
(-0.0428847 -0.0128837 -5.49759e-17)
(-0.0410722 -0.0120589 6.12744e-17)
(-0.0392747 -0.0113124 -3.34971e-17)
(-0.0374915 -0.0106414 -1.42265e-16)
(-0.0357116 -0.0100497 -9.04267e-17)
(-0.0339062 -0.00953376 -4.30761e-17)
(-0.0322817 -0.00905445 -2.49289e-17)
(-0.0306713 -0.00858683 1.93251e-17)
(-0.0290298 -0.00812872 -2.13875e-16)
(-0.0273169 -0.00764969 -9.07701e-17)
(-0.0256349 -0.00715685 -1.16965e-16)
(-0.0239513 -0.00666506 -3.0039e-16)
(-0.0222707 -0.00620619 6.60452e-17)
(-0.0206721 -0.00582797 -7.87413e-17)
(-0.0191525 -0.00556119 -2.90765e-16)
(-0.0177076 -0.00544813 3.10846e-16)
(-0.0163106 -0.00548328 3.73006e-16)
(-0.0150096 -0.00566259 -6.52393e-17)
(-0.01383 -0.00594805 -1.80556e-16)
(-0.0128175 -0.00626849 -5.55826e-18)
(-0.011891 -0.00653669 -3.46282e-17)
(-0.0115102 -0.0069906 8.85652e-17)
(-0.0106583 -0.00691738 7.42956e-17)
(-0.00970905 -0.00681281 5.72305e-17)
(-0.00869411 -0.00657666 1.70885e-16)
(-0.00762502 -0.00631043 3.36291e-16)
(-0.00651783 -0.00605146 1.45532e-16)
(-0.0054408 -0.00573336 3.46338e-17)
(-0.0043914 -0.00550395 -8.95239e-17)
(-0.0034121 -0.00535705 -5.90938e-16)
(-0.00269296 -0.00451904 2.60208e-16)
(-0.00178828 -0.005831 2.89777e-16)
(-0.00208739 -0.00186183 3.88874e-16)
(-0.000649345 -0.00789379 1.25075e-15)
(-0.0105895 -0.136376 2.73077e-19)
(-0.00827943 -0.135464 9.84904e-19)
(-0.00693618 -0.129298 3.41015e-18)
(-0.00682112 -0.12396 1.21521e-18)
(-0.00775166 -0.119772 -1.81608e-18)
(-0.00964305 -0.116323 -1.01879e-18)
(-0.0123391 -0.11345 -2.80104e-19)
(-0.0156787 -0.110889 -6.37792e-20)
(-0.0194944 -0.108409 2.0037e-19)
(-0.0236265 -0.105822 -3.93007e-18)
(-0.0279248 -0.102995 5.63019e-18)
(-0.0322542 -0.0998404 -4.00976e-18)
(-0.0365029 -0.0963474 -1.05352e-17)
(-0.0405765 -0.092544 -6.23401e-18)
(-0.0444021 -0.0884905 -9.6807e-19)
(-0.0479258 -0.0842686 2.47609e-18)
(-0.0511088 -0.0799722 1.06757e-18)
(-0.0539306 -0.0756923 -5.73939e-18)
(-0.0563799 -0.0715066 -9.53098e-18)
(-0.0584566 -0.0674758 -3.43148e-18)
(-0.0601718 -0.0636536 1.21427e-18)
(-0.0615385 -0.0600636 8.17115e-18)
(-0.0625748 -0.0567185 -1.57801e-17)
(-0.0633055 -0.0536179 3.12158e-18)
(-0.0637511 -0.0507483 -1.36979e-17)
(-0.0639363 -0.0480904 9.07738e-18)
(-0.0638847 -0.0456212 1.82599e-17)
(-0.06362 -0.0433168 -1.52191e-17)
(-0.0631567 -0.0411488 -2.75287e-17)
(-0.0625188 -0.0390968 -5.39153e-18)
(-0.0617309 -0.0371427 5.75023e-17)
(-0.0608206 -0.0352801 3.58571e-17)
(-0.0597869 -0.0334866 2.91745e-17)
(-0.058665 -0.0317681 -1.09145e-18)
(-0.0574601 -0.0301166 -3.27253e-17)
(-0.0561859 -0.028532 -3.52936e-17)
(-0.0548746 -0.0270048 2.48861e-17)
(-0.0535433 -0.0255394 -9.07997e-18)
(-0.052224 -0.0241523 -3.68109e-17)
(-0.0507962 -0.0228344 2.54723e-17)
(-0.0491393 -0.021552 -7.22273e-18)
(-0.0478086 -0.0203275 4.74835e-19)
(-0.0463894 -0.0191747 -2.34082e-17)
(-0.0448983 -0.018114 -4.20025e-18)
(-0.0433832 -0.017079 -9.22537e-17)
(-0.041899 -0.0161058 -5.82983e-17)
(-0.0403957 -0.0151966 -1.51681e-17)
(-0.0388941 -0.0143514 -1.20039e-16)
(-0.0373902 -0.0135742 -9.41726e-17)
(-0.0358903 -0.0128698 -2.99712e-17)
(-0.0343987 -0.0122355 -7.63987e-17)
(-0.0329034 -0.0116698 5.7899e-17)
(-0.03136 -0.011157 -1.66366e-16)
(-0.0299141 -0.0106673 -1.83937e-17)
(-0.0284734 -0.0101964 1.15952e-16)
(-0.0270251 -0.00974999 2.24367e-17)
(-0.0255453 -0.00927799 -5.52153e-17)
(-0.0240776 -0.00877692 4.8697e-16)
(-0.0226002 -0.00825377 3.19887e-17)
(-0.0210989 -0.00772911 -4.14946e-16)
(-0.0196149 -0.0072378 1.03269e-16)
(-0.018166 -0.00682149 -3.51223e-16)
(-0.0167654 -0.00653091 -2.07059e-17)
(-0.0153956 -0.00637509 4.10936e-17)
(-0.0141051 -0.00636083 -9.28017e-16)
(-0.0129377 -0.00647521 2.31124e-17)
(-0.0119592 -0.00667924 3.97705e-17)
(-0.0111044 -0.00689365 -1.35656e-16)
(-0.0108188 -0.00737408 1.79201e-16)
(-0.0100968 -0.00734306 -1.44078e-17)
(-0.0092967 -0.00729073 5.98945e-17)
(-0.00842937 -0.00708589 -4.06935e-16)
(-0.00748261 -0.00681086 -3.93582e-16)
(-0.00644809 -0.00648833 3.81102e-17)
(-0.00537692 -0.00607133 -3.00748e-17)
(-0.00427142 -0.00572484 7.96007e-17)
(-0.00321398 -0.00542714 -4.07125e-16)
(-0.00240048 -0.00458207 5.24453e-17)
(-0.00145073 -0.00568134 -4.324e-16)
(-0.00181188 -0.00192144 -5.89294e-17)
(-0.000229262 -0.00766733 9.56341e-16)
(-0.048883 -0.108518 1.88118e-18)
(-0.0472676 -0.106163 2.21446e-18)
(-0.0430235 -0.0992074 -6.95883e-19)
(-0.0390954 -0.0923719 9.93666e-19)
(-0.0355284 -0.0864412 1.06141e-18)
(-0.0325224 -0.081214 -8.68412e-18)
(-0.0301718 -0.0768327 -5.07711e-18)
(-0.0285146 -0.073235 -1.91251e-18)
(-0.027543 -0.0703045 -4.37544e-19)
(-0.0272108 -0.0679509 2.27393e-18)
(-0.0274516 -0.0659849 -5.26434e-18)
(-0.0281724 -0.0642586 6.85524e-18)
(-0.029281 -0.0626425 1.39932e-18)
(-0.0306758 -0.0610206 4.89228e-18)
(-0.0322622 -0.0592992 1.07946e-17)
(-0.0339504 -0.0574382 9.56079e-18)
(-0.0356608 -0.0554308 8.57717e-18)
(-0.037327 -0.053269 3.15066e-18)
(-0.0388976 -0.0510054 1.50634e-17)
(-0.0403261 -0.0486702 -7.58237e-18)
(-0.0415901 -0.0463255 -2.16555e-17)
(-0.0426643 -0.0440174 -4.22963e-18)
(-0.0435403 -0.0417815 -6.2677e-19)
(-0.0442181 -0.039651 -5.95497e-18)
(-0.044697 -0.0376427 -4.76748e-18)
(-0.0449804 -0.0357596 -1.57417e-17)
(-0.0450815 -0.0340009 -4.56485e-18)
(-0.0450114 -0.0323591 2.52009e-20)
(-0.0447827 -0.030818 1.84066e-17)
(-0.0444063 -0.0293606 -4.76193e-18)
(-0.0438982 -0.0279666 4.0866e-18)
(-0.0432826 -0.0266308 1.51488e-17)
(-0.0425644 -0.0253395 1.52626e-17)
(-0.0417686 -0.0240971 3.85471e-17)
(-0.0409022 -0.0229008 3.81017e-18)
(-0.039967 -0.0217485 -2.47395e-17)
(-0.0390027 -0.020642 -3.49976e-17)
(-0.038017 -0.0195831 1.20636e-17)
(-0.0370316 -0.0185806 3.38438e-17)
(-0.035913 -0.0176175 -1.78717e-17)
(-0.034702 -0.0166802 3.40373e-17)
(-0.0336306 -0.0157867 -5.58596e-18)
(-0.0325452 -0.0149542 1.34517e-17)
(-0.0314254 -0.0141734 -6.71778e-17)
(-0.0303088 -0.0134069 -1.37763e-17)
(-0.0292114 -0.0126798 2.04236e-17)
(-0.0281127 -0.0119947 -2.52508e-17)
(-0.0270215 -0.0113568 -2.08362e-17)
(-0.0259413 -0.0107718 4.22205e-17)
(-0.0248745 -0.0102447 4.84858e-18)
(-0.0238313 -0.00977756 7.32082e-17)
(-0.0227835 -0.00936528 1.25268e-16)
(-0.0217183 -0.00899327 2.06886e-17)
(-0.0207104 -0.0086467 3.38642e-17)
(-0.0197396 -0.00832312 1.04954e-18)
(-0.0187785 -0.00801764 1.00661e-16)
(-0.017807 -0.00769512 2.04453e-17)
(-0.0168548 -0.00735202 -1.74508e-16)
(-0.0158935 -0.00698701 1.60364e-16)
(-0.0149068 -0.00660661 4.1218e-17)
(-0.0139126 -0.006223 -2.75957e-17)
(-0.0129275 -0.00585959 2.5812e-16)
(-0.011956 -0.00554824 -8.31998e-17)
(-0.0109818 -0.00530269 -5.87346e-17)
(-0.0100425 -0.00514513 4.61889e-16)
(-0.00918278 -0.00509237 -4.03523e-17)
(-0.00846757 -0.00513367 -2.04174e-16)
(-0.00785144 -0.0052349 -1.57871e-18)
(-0.00780581 -0.00568515 -7.75068e-17)
(-0.00732157 -0.00569925 -2.05604e-17)
(-0.00681093 -0.00574079 -4.64221e-17)
(-0.00627416 -0.00568592 2.63959e-16)
(-0.0056795 -0.00557369 2.77118e-16)
(-0.00499524 -0.00538855 1.2253e-16)
(-0.00423854 -0.00509561 1.02513e-16)
(-0.00339075 -0.00482937 -7.64298e-17)
(-0.00253532 -0.00453118 4.41936e-16)
(-0.00184686 -0.0039357 1.09789e-17)
(-0.00101936 -0.00470354 5.0962e-16)
(-0.00140768 -0.00175717 -2.56915e-16)
(0.000128404 -0.00671099 -1.54769e-15)
(-0.0461091 -0.0919382 4.98944e-18)
(-0.0555295 -0.0898834 -1.81347e-18)
(-0.0596483 -0.0839515 -2.42307e-18)
(-0.06175 -0.0776583 3.90642e-19)
(-0.0622577 -0.0716027 2.97531e-18)
(-0.0615644 -0.0657196 4.10331e-18)
(-0.0600199 -0.0602636 -2.04147e-18)
(-0.0579493 -0.055369 3.05488e-19)
(-0.0555905 -0.0510979 5.12172e-18)
(-0.053162 -0.0475368 2.7534e-18)
(-0.05081 -0.0446705 -2.47977e-18)
(-0.0486407 -0.0424474 -5.08313e-18)
(-0.0467255 -0.0407945 2.29862e-20)
(-0.0451015 -0.0395963 1.01003e-20)
(-0.0437677 -0.0387144 -9.67328e-19)
(-0.0427206 -0.0380306 8.25369e-19)
(-0.0419256 -0.0374395 6.16149e-18)
(-0.0413496 -0.0368394 3.07173e-18)
(-0.0409502 -0.0361706 -7.4062e-18)
(-0.0406848 -0.0354027 1.1465e-17)
(-0.0405179 -0.0345336 8.57544e-18)
(-0.0404096 -0.0335878 -3.17918e-18)
(-0.0403219 -0.032577 6.16455e-19)
(-0.0402384 -0.0315394 8.97842e-18)
(-0.0401298 -0.0305022 8.38638e-18)
(-0.0399786 -0.0294901 9.8933e-18)
(-0.0397745 -0.0285189 -7.20479e-18)
(-0.039505 -0.0275936 6.51924e-19)
(-0.0391646 -0.0267119 9.36169e-18)
(-0.0387516 -0.0258703 7.39301e-19)
(-0.0382664 -0.0250524 -1.37959e-17)
(-0.0377135 -0.024241 -6.73374e-18)
(-0.0370935 -0.0234278 -3.53241e-18)
(-0.036414 -0.022612 1.0804e-17)
(-0.0356745 -0.0217973 2.20313e-17)
(-0.0348621 -0.020978 2.37562e-17)
(-0.0340118 -0.0201628 1.83688e-17)
(-0.033135 -0.0193556 -1.16818e-17)
(-0.0322461 -0.018575 -3.93293e-17)
(-0.0312772 -0.0178102 1.54528e-17)
(-0.0302261 -0.0170575 4.08958e-18)
(-0.0292876 -0.0163336 1.14338e-17)
(-0.0283403 -0.015649 -2.76938e-17)
(-0.0273778 -0.0149796 5.03988e-17)
(-0.0264215 -0.0143137 -2.03484e-17)
(-0.0254789 -0.0136686 5.25704e-17)
(-0.0245454 -0.0130496 1.84919e-17)
(-0.0236223 -0.0124643 -4.23287e-17)
(-0.0227175 -0.0119219 2.43721e-17)
(-0.0218343 -0.0114301 6.46541e-17)
(-0.0209769 -0.010995 1.33411e-17)
(-0.0201231 -0.0106138 -2.00201e-17)
(-0.0192467 -0.0102762 1.13732e-16)
(-0.0184351 -0.00997157 2.37675e-17)
(-0.0176654 -0.00969558 -5.57645e-17)
(-0.0169091 -0.00942502 -1.56158e-16)
(-0.0161442 -0.0091273 -1.2803e-17)
(-0.0153816 -0.00879782 -3.42721e-18)
(-0.0145944 -0.00842709 -1.2878e-16)
(-0.0137553 -0.00801215 1.07866e-16)
(-0.012888 -0.00755444 6.31181e-17)
(-0.0120079 -0.00707387 1.06201e-16)
(-0.0111155 -0.0065919 1.05242e-16)
(-0.0101985 -0.00613367 -2.3577e-16)
(-0.00929458 -0.0057433 2.84539e-16)
(-0.00846356 -0.00546936 1.95011e-16)
(-0.00777311 -0.00532686 1.27413e-17)
(-0.00718382 -0.00529892 5.91673e-17)
(-0.00715811 -0.00571521 -1.52426e-16)
(-0.00674485 -0.00574029 -3.38446e-17)
(-0.00632076 -0.00584355 -1.11967e-17)
(-0.00588445 -0.00587479 2.72564e-16)
(-0.00538822 -0.00584062 3.1628e-16)
(-0.00478425 -0.00568795 2.8227e-16)
(-0.00406631 -0.00538561 1.24263e-16)
(-0.00321252 -0.00505521 6.72461e-17)
(-0.00231859 -0.00462716 -4.53721e-16)
(-0.00158016 -0.0040455 9.87438e-17)
(-0.000772819 -0.0046121 4.54077e-16)
(-0.00106736 -0.00181381 -9.08689e-17)
(0.000390593 -0.00647795 -3.59252e-16)
(0.0306812 -0.101665 -1.04619e-18)
(0.0125544 -0.101547 1.9929e-18)
(-0.00397158 -0.0975174 8.99581e-19)
(-0.0175358 -0.093288 2.1494e-19)
(-0.0286917 -0.0885946 2.62966e-19)
(-0.0375031 -0.0836493 6.38753e-19)
(-0.0442307 -0.0784645 2.62657e-18)
(-0.0491465 -0.0731877 -3.71077e-21)
(-0.0525082 -0.0679031 -3.90192e-18)
(-0.0545693 -0.0628052 -1.27977e-18)
(-0.0556155 -0.0580125 1.34805e-18)
(-0.0558455 -0.0536384 -1.87818e-18)
(-0.0554786 -0.0497455 -3.41644e-19)
(-0.0546785 -0.0463947 -4.02749e-18)
(-0.053602 -0.0435692 1.85376e-18)
(-0.052359 -0.0412232 -9.20813e-19)
(-0.051029 -0.0392819 -2.29515e-18)
(-0.0496915 -0.0376747 9.17476e-19)
(-0.048379 -0.0362928 2.32925e-18)
(-0.0471205 -0.0350707 -6.50335e-18)
(-0.0459306 -0.0339388 -6.32327e-18)
(-0.0448132 -0.0328562 -1.71074e-18)
(-0.0437571 -0.0318013 -9.44665e-19)
(-0.0427669 -0.0307808 -6.84386e-18)
(-0.0418255 -0.0297897 -6.59592e-18)
(-0.0409236 -0.0288362 -5.81889e-18)
(-0.0400529 -0.0279328 1.74692e-17)
(-0.0391989 -0.0270888 -7.87837e-19)
(-0.0383558 -0.0263101 -1.67827e-17)
(-0.0375173 -0.0255885 3.51133e-18)
(-0.036677 -0.0249132 6.36035e-18)
(-0.0358295 -0.0242643 1.76108e-18)
(-0.0349667 -0.0236209 -5.1516e-18)
(-0.0340841 -0.0229691 -2.08356e-17)
(-0.0331796 -0.0223069 -3.76706e-18)
(-0.0322303 -0.0216169 1.07656e-17)
(-0.0312677 -0.0209081 1.00366e-17)
(-0.030305 -0.0201761 2.13187e-18)
(-0.0293511 -0.0194418 -6.96332e-18)
(-0.0283695 -0.0187002 -2.47319e-17)
(-0.0273594 -0.0179559 1.13271e-18)
(-0.0264169 -0.0172214 -1.75672e-17)
(-0.0254703 -0.0165009 1.5906e-17)
(-0.0245186 -0.015782 -9.70601e-18)
(-0.0235855 -0.0150692 3.40281e-17)
(-0.0226726 -0.014374 -4.70474e-17)
(-0.0217795 -0.0137037 1.72155e-17)
(-0.0209093 -0.0130653 2.686e-17)
(-0.020065 -0.0124671 -4.93352e-17)
(-0.0192519 -0.0119201 -5.12526e-17)
(-0.0184683 -0.0114311 -2.55517e-17)
(-0.0177006 -0.011004 -3.34042e-17)
(-0.0169331 -0.0106323 -6.45477e-19)
(-0.0162328 -0.0103097 -7.49557e-17)
(-0.0155784 -0.0100248 4.62446e-17)
(-0.0149352 -0.00975327 8.47803e-17)
(-0.014289 -0.00946756 -7.34857e-17)
(-0.0136404 -0.00916066 4.78428e-17)
(-0.012967 -0.0088206 1.4148e-16)
(-0.0122499 -0.00843944 1.95817e-17)
(-0.0115118 -0.00801282 5.21912e-17)
(-0.0107642 -0.00754888 -9.52257e-17)
(-0.0099972 -0.00706044 -8.91335e-17)
(-0.00919899 -0.00656981 1.89612e-17)
(-0.00839948 -0.00611948 -3.02452e-16)
(-0.00765628 -0.00576102 -1.80787e-16)
(-0.00702278 -0.00551294 2.03284e-16)
(-0.00645378 -0.00536803 -9.89204e-17)
(-0.00641734 -0.00570721 -1.04441e-16)
(-0.00601657 -0.00566737 2.59482e-17)
(-0.00560608 -0.00574074 -9.84577e-17)
(-0.00519828 -0.0057797 -6.32827e-17)
(-0.00474723 -0.00577851 -2.03206e-16)
(-0.00420769 -0.00566467 -1.15575e-17)
(-0.0035543 -0.00540267 1.54544e-17)
(-0.00276549 -0.00509283 2.30827e-18)
(-0.00193179 -0.00463306 6.978e-16)
(-0.00121592 -0.00411349 -2.53711e-16)
(-0.000564836 -0.00453238 -2.87355e-16)
(-0.000658574 -0.00182355 1.04644e-16)
(0.000551037 -0.00623954 -7.46809e-17)
(0.120153 -0.13921 5.76978e-19)
(0.125581 -0.130536 6.34403e-19)
(0.107366 -0.141044 3.87851e-20)
(0.089102 -0.136186 -3.63687e-19)
(0.071553 -0.131993 -9.27347e-19)
(0.0550254 -0.12752 -9.24719e-19)
(0.039764 -0.122907 -1.35455e-18)
(0.0259672 -0.118054 5.12873e-19)
(0.0137427 -0.112931 1.53674e-18)
(0.00311523 -0.107518 2.65017e-18)
(-0.0059596 -0.101891 6.84851e-19)
(-0.0135513 -0.0961416 -9.16139e-19)
(-0.0197783 -0.09036 1.90253e-18)
(-0.0247761 -0.084678 3.90351e-18)
(-0.0286929 -0.0792017 5.8732e-18)
(-0.031679 -0.0740381 -2.47018e-18)
(-0.0338804 -0.0692466 8.9548e-19)
(-0.0354244 -0.0648561 -2.33028e-18)
(-0.0364521 -0.0608953 -2.44846e-18)
(-0.0370495 -0.0573236 -4.52824e-19)
(-0.0373195 -0.0540981 3.37567e-18)
(-0.0373328 -0.0511663 1.60599e-20)
(-0.0371495 -0.0484576 4.6695e-18)
(-0.0368236 -0.0459462 3.95487e-18)
(-0.0363805 -0.0435974 -1.32861e-18)
(-0.0358602 -0.0413856 -6.9915e-18)
(-0.0352715 -0.0392899 -8.09416e-18)
(-0.034638 -0.0373084 -7.01679e-18)