/*--------------------------------*- C++ -*----------------------------------*\
| =========                 |                                                 |
| \\      /  F ield         | OpenFOAM: The Open Source CFD Toolbox           |
|  \\    /   O peration     | Version:  2506                                  |
|   \\  /    A nd           | Website:  www.openfoam.com                      |
|    \\/     M anipulation  |                                                 |
\*---------------------------------------------------------------------------*/
FoamFile
{
    version     2.0;
    format      ascii;
    arch        "LSB;label=32;scalar=64";
    class       volScalarField;
    location    "100";
    object      turbulenceProperties:nut;
}
// * * * * * * * * * * * * * * * * * * * * * * * * * * * * * * * * * * * * * //

dimensions      [0 2 -1 0 0 0 0];

internalField   nonuniform List<scalar> 
1340
(
6.12976e-06
6.10561e-06
6.11699e-06
6.11388e-06
6.13126e-06
6.10572e-06
6.12806e-06
6.12739e-06
6.11745e-06
6.11539e-06
6.13278e-06
6.10575e-06
6.11108e-06
6.11524e-06
6.12251e-06
6.12946e-06
6.12812e-06
6.11793e-06
6.11703e-06
6.13432e-06
6.1057e-06
6.10524e-06
6.10735e-06
6.1086e-06
6.1095e-06
6.11024e-06
6.11207e-06
6.11658e-06
6.12413e-06
6.13087e-06
6.12882e-06
6.1184e-06
6.11882e-06
6.13591e-06
6.10557e-06
6.0872e-06
6.09083e-06
6.09495e-06
6.09916e-06
6.10304e-06
6.10622e-06
6.10827e-06
6.10944e-06
6.11029e-06
6.11107e-06
6.11311e-06
6.11798e-06
6.12582e-06
6.13227e-06
6.12946e-06
6.11888e-06
6.12079e-06
6.13752e-06
6.10534e-06
6.07488e-06
6.07571e-06
6.07713e-06
6.07882e-06
6.08056e-06
6.08251e-06
6.08495e-06
6.08803e-06
6.09176e-06
6.09596e-06
6.10021e-06
6.10408e-06
6.10722e-06
6.10919e-06
6.11028e-06
6.11108e-06
6.11192e-06
6.1142e-06
6.11947e-06
6.12756e-06
6.13366e-06
6.13004e-06
6.11937e-06
6.12294e-06
6.13914e-06
6.10501e-06
6.07799e-06
6.07747e-06
6.07699e-06
6.07651e-06
6.07605e-06
6.07566e-06
6.07533e-06
6.07503e-06
6.07479e-06
6.07467e-06
6.07469e-06
6.07489e-06
6.07535e-06
6.07622e-06
6.07769e-06
6.07942e-06
6.08117e-06
6.08317e-06
6.0857e-06
6.08889e-06
6.09273e-06
6.097e-06
6.10128e-06
6.10513e-06
6.10821e-06
6.11009e-06
6.1111e-06
6.11186e-06
6.11278e-06
6.11534e-06
6.12104e-06
6.12936e-06
6.13502e-06
6.13055e-06
6.11988e-06
6.12528e-06
6.14076e-06
6.10454e-06
6.18229e-06
6.17824e-06
6.17461e-06
6.18725e-06
6.18833e-06
6.18411e-06
6.1827e-06
6.18187e-06
6.18009e-06
6.17788e-06
6.17536e-06
6.17252e-06
6.16938e-06
6.16592e-06
6.16216e-06
6.15813e-06
6.15388e-06
6.14947e-06
6.145e-06
6.14052e-06
6.13612e-06
6.13185e-06
6.12772e-06
6.12375e-06
6.11992e-06
6.11621e-06
6.11261e-06
6.10911e-06
6.10572e-06
6.10245e-06
6.09934e-06
6.09641e-06
6.09368e-06
6.09118e-06
6.08894e-06
6.08699e-06
6.08532e-06
6.08393e-06
6.08278e-06
6.08179e-06
6.08093e-06
6.08018e-06
6.07947e-06
6.07886e-06
6.07831e-06
6.07776e-06
6.07723e-06
6.07673e-06
6.0763e-06
6.07593e-06
6.07559e-06
6.07533e-06
6.07519e-06
6.07522e-06
6.0754e-06
6.07585e-06
6.07675e-06
6.07827e-06
6.08002e-06
6.0818e-06
6.08386e-06
6.08647e-06
6.08978e-06
6.09372e-06
6.09806e-06
6.10236e-06
6.10619e-06
6.1092e-06
6.11097e-06
6.1119e-06
6.11264e-06
6.11367e-06
6.11655e-06
6.1227e-06
6.13121e-06
6.13635e-06
6.13098e-06
6.12041e-06
6.12783e-06
6.14236e-06
6.10394e-06
6.17229e-06
6.15798e-06
6.16331e-06
6.16944e-06
6.16941e-06
6.16863e-06
6.1689e-06
6.16899e-06
6.16856e-06
6.1677e-06
6.16648e-06
6.16493e-06
6.16304e-06
6.16077e-06
6.15814e-06
6.15516e-06
6.15186e-06
6.1483e-06
6.14454e-06
6.14067e-06
6.13676e-06
6.13287e-06
6.12905e-06
6.12532e-06
6.12169e-06
6.11814e-06
6.11467e-06
6.11128e-06
6.10795e-06
6.10472e-06
6.1016e-06
6.09863e-06
6.09582e-06
6.09322e-06
6.09088e-06
6.08881e-06
6.08703e-06
6.08552e-06
6.08423e-06
6.08311e-06
6.08215e-06
6.08134e-06
6.08054e-06
6.07979e-06
6.07913e-06
6.07852e-06
6.07794e-06
6.0774e-06
6.07694e-06
6.07652e-06
6.07614e-06
6.07585e-06
6.07569e-06
6.07572e-06
6.07592e-06
6.07639e-06
6.07732e-06
6.07884e-06
6.08062e-06
6.08243e-06
6.08457e-06
6.08727e-06
6.09069e-06
6.09473e-06
6.09913e-06
6.10345e-06
6.10725e-06
6.11018e-06
6.11183e-06
6.11268e-06
6.1134e-06
6.11458e-06
6.11784e-06
6.12447e-06
6.13312e-06
6.13762e-06
6.13132e-06
6.12099e-06
6.13059e-06
6.14392e-06
6.10318e-06
6.15398e-06
6.14677e-06
6.15022e-06
6.15366e-06
6.15491e-06
6.15546e-06
6.15608e-06
6.15668e-06
6.15705e-06
6.15709e-06
6.15684e-06
6.15632e-06
6.15548e-06
6.15428e-06
6.1527e-06
6.15073e-06
6.14839e-06
6.14571e-06
6.14274e-06
6.13956e-06
6.13625e-06
6.13286e-06
6.12946e-06
6.12609e-06
6.12275e-06
6.11945e-06
6.11619e-06
6.11296e-06
6.10977e-06
6.10663e-06
6.10356e-06
6.10059e-06
6.09777e-06
6.09512e-06
6.09271e-06
6.09057e-06
6.0887e-06
6.08707e-06
6.08562e-06
6.08433e-06
6.08326e-06
6.08243e-06
6.08163e-06
6.08079e-06
6.08001e-06
6.07933e-06
6.0787e-06
6.07812e-06
6.07761e-06
6.07715e-06
6.07674e-06
6.0764e-06
6.07622e-06
6.07624e-06
6.07647e-06
6.07699e-06
6.07794e-06
6.07943e-06
6.08121e-06
6.08307e-06
6.08529e-06
6.08809e-06
6.09162e-06
6.09576e-06
6.10022e-06
6.10455e-06
6.10832e-06
6.11116e-06
6.11267e-06
6.11344e-06
6.11417e-06
6.11554e-06
6.11921e-06
6.12633e-06
6.13505e-06
6.13882e-06
6.13155e-06
6.12163e-06
6.13358e-06
6.14542e-06
6.10223e-06
6.14654e-06
6.14456e-06
6.14307e-06
6.14361e-06
6.14497e-06
6.14577e-06
6.14616e-06
6.14657e-06
6.147e-06
6.14735e-06
6.14757e-06
6.14763e-06
6.14748e-06
6.14706e-06
6.14632e-06
6.14521e-06
6.14374e-06
6.1419e-06
6.13973e-06
6.13728e-06
6.13463e-06
6.13183e-06
6.12895e-06
6.12601e-06
6.12306e-06
6.1201e-06
6.11713e-06
6.11415e-06
6.11116e-06
6.10819e-06
6.10523e-06
6.10234e-06
6.09955e-06
6.09691e-06
6.09449e-06
6.0923e-06
6.09034e-06
6.08857e-06
6.08693e-06
6.08549e-06
6.08435e-06
6.08354e-06
6.08274e-06
6.08182e-06
6.08095e-06
6.0802e-06
6.07952e-06
6.0789e-06
6.07834e-06
6.07783e-06
6.07737e-06
6.07699e-06
6.07677e-06
6.0768e-06
6.07707e-06
6.07763e-06
6.07859e-06
6.08002e-06
6.08179e-06
6.08372e-06
6.08603e-06
6.08894e-06
6.09258e-06
6.09682e-06
6.10133e-06
6.10567e-06
6.1094e-06
6.11213e-06
6.11351e-06
6.11419e-06
6.11496e-06
6.11656e-06
6.1207e-06
6.12831e-06
6.13702e-06
6.13993e-06
6.13167e-06
6.12234e-06
6.13679e-06
6.14682e-06
6.1011e-06
6.14396e-06
6.14498e-06
6.14187e-06
6.1405e-06
6.14092e-06
6.14123e-06
6.14107e-06
6.14083e-06
6.14072e-06
6.14072e-06
6.14075e-06
6.14076e-06
6.14071e-06
6.14054e-06
6.14018e-06
6.13957e-06
6.13867e-06
6.13746e-06
6.13595e-06
6.13416e-06
6.13214e-06
6.12993e-06
6.12758e-06
6.12514e-06
6.12263e-06
6.12007e-06
6.11745e-06
6.11479e-06
6.11207e-06
6.10933e-06
6.10656e-06
6.10381e-06
6.10113e-06
6.09857e-06
6.09618e-06
6.09396e-06
6.09191e-06
6.08997e-06
6.08819e-06
6.08668e-06
6.08557e-06
6.08477e-06
6.0839e-06
6.08289e-06
6.08194e-06
6.08114e-06
6.08041e-06
6.07974e-06
6.07914e-06
6.07858e-06
6.07807e-06
6.07765e-06
6.07741e-06
6.07746e-06
6.07778e-06
6.07838e-06
6.07932e-06
6.08067e-06
6.08236e-06
6.08436e-06
6.08677e-06
6.08981e-06
6.09356e-06
6.09789e-06
6.10245e-06
6.1068e-06
6.11049e-06
6.1131e-06
6.11431e-06
6.11492e-06
6.11575e-06
6.11763e-06
6.12228e-06
6.13037e-06
6.13898e-06
6.14091e-06
6.13165e-06
6.12315e-06
6.14024e-06
6.14807e-06
6.0997e-06
6.14368e-06
6.14657e-06
6.14292e-06
6.1403e-06
6.14023e-06
6.1405e-06
6.14016e-06
6.13958e-06
6.13907e-06
6.13862e-06
6.13817e-06
6.13773e-06
6.13728e-06
6.1368e-06
6.13626e-06
6.13559e-06
6.13476e-06
6.13375e-06
6.13255e-06
6.13115e-06
6.12958e-06
6.12785e-06
6.12599e-06
6.12403e-06
6.12197e-06
6.11983e-06
6.11762e-06
6.11532e-06
6.11293e-06
6.11047e-06
6.10795e-06
6.1054e-06
6.10288e-06
6.10042e-06
6.09805e-06
6.09576e-06
6.09358e-06
6.09155e-06
6.08977e-06
6.08836e-06
6.08731e-06
6.0864e-06
6.08535e-06
6.08422e-06
6.08322e-06
6.08236e-06
6.08157e-06
6.08084e-06
6.08016e-06
6.07953e-06
6.07895e-06
6.0785e-06
6.07827e-06
6.07834e-06
6.07869e-06
6.07928e-06
6.08019e-06
6.08145e-06
6.08305e-06
6.08509e-06
6.08768e-06
6.09088e-06
6.09479e-06
6.09923e-06
6.10384e-06
6.10819e-06
6.11179e-06
6.11421e-06
6.11522e-06
6.11575e-06
6.11669e-06
6.11897e-06
6.12427e-06
6.13288e-06
6.14121e-06
6.14185e-06
6.13154e-06
6.12452e-06
6.14426e-06
6.1493e-06
6.09815e-06
6.15553e-06
6.15681e-06
6.14902e-06
6.1422e-06
6.13991e-06
6.13929e-06
6.1385e-06
6.1377e-06
6.13723e-06
6.13699e-06
6.13679e-06
6.13656e-06
6.13627e-06
6.13589e-06
6.13537e-06
6.13468e-06
6.13378e-06
6.13268e-06
6.13139e-06
6.12995e-06
6.1284e-06
6.12678e-06
6.1251e-06
6.12336e-06
6.12157e-06
6.11972e-06
6.1178e-06
6.1158e-06
6.11372e-06
6.11155e-06
6.1093e-06
6.10698e-06
6.10463e-06
6.10225e-06
6.09989e-06
6.09759e-06
6.09542e-06
6.09349e-06
6.09189e-06
6.09058e-06
6.08945e-06
6.0883e-06
6.08705e-06
6.08585e-06
6.08481e-06
6.08389e-06
6.08303e-06
6.08222e-06
6.08146e-06
6.08074e-06
6.0801e-06
6.07963e-06
6.07943e-06
6.07952e-06
6.07985e-06
6.08041e-06
6.08124e-06
6.0824e-06
6.08392e-06
6.08597e-06
6.08874e-06
6.09218e-06
6.09626e-06
6.10082e-06
6.10548e-06
6.1098e-06
6.11327e-06
6.11543e-06
6.1162e-06
6.11668e-06
6.11781e-06
6.12064e-06
6.12674e-06
6.13584e-06
6.14363e-06
6.14264e-06
6.13132e-06
6.1267e-06
6.14888e-06
6.15032e-06
6.09614e-06
6.18854e-06
6.18645e-06
6.16956e-06
6.15551e-06
6.1484e-06
6.14387e-06
6.13957e-06
6.13598e-06
6.13365e-06
6.13238e-06
6.13179e-06
6.13167e-06
6.13185e-06
6.13218e-06
6.13251e-06
6.13268e-06
6.13259e-06
6.13215e-06
6.13132e-06
6.13014e-06
6.12869e-06
6.12709e-06
6.12542e-06
6.12372e-06
6.122e-06
6.12025e-06
6.11846e-06
6.11661e-06
6.1147e-06
6.1127e-06
6.11061e-06
6.10843e-06
6.10617e-06
6.10386e-06
6.10156e-06
6.09936e-06
6.09738e-06
6.09566e-06
6.09417e-06
6.09281e-06
6.09147e-06
6.09011e-06
6.08876e-06
6.08755e-06
6.08648e-06
6.08549e-06
6.08456e-06
6.08367e-06
6.08282e-06
6.08203e-06
6.08138e-06
6.08093e-06
6.08074e-06
6.08082e-06
6.08111e-06
6.08161e-06
6.08236e-06
6.08343e-06
6.08488e-06
6.08693e-06
6.08986e-06
6.09352e-06
6.09779e-06
6.10245e-06
6.10716e-06
6.11145e-06
6.11474e-06
6.1166e-06
6.11712e-06
6.1176e-06
6.11903e-06
6.12251e-06
6.12944e-06
6.13893e-06
6.14591e-06
6.14311e-06
6.13108e-06
6.12968e-06
6.15371e-06
6.15097e-06
6.09379e-06
6.20622e-06
6.19019e-06
6.20942e-06
6.19136e-06
6.1765e-06
6.16855e-06
6.161e-06
6.15201e-06
6.14348e-06
6.13682e-06
6.13181e-06
6.12824e-06
6.12592e-06
6.12466e-06
6.12431e-06
6.12464e-06
6.12536e-06
6.12626e-06
6.12706e-06
6.12755e-06
6.12758e-06
6.12712e-06
6.12621e-06
6.125e-06
6.12363e-06
6.12217e-06
6.12065e-06
6.11905e-06
6.11737e-06
6.1156e-06
6.11374e-06
6.11177e-06
6.1097e-06
6.10754e-06
6.10536e-06
6.10325e-06
6.10128e-06
6.0995e-06
6.0979e-06
6.09636e-06
6.09484e-06
6.09332e-06
6.09185e-06
6.0905e-06
6.08929e-06
6.08818e-06
6.08714e-06
6.08613e-06
6.08517e-06
6.08426e-06
6.08345e-06
6.08281e-06
6.08238e-06
6.0822e-06
6.08223e-06
6.08246e-06
6.08289e-06
6.08357e-06
6.08455e-06
6.08595e-06
6.088e-06
6.09104e-06
6.09493e-06
6.09938e-06
6.10415e-06
6.1089e-06
6.11312e-06
6.11619e-06
6.11769e-06
6.11799e-06
6.11854e-06
6.12037e-06
6.12462e-06
6.1324e-06
6.1421e-06
6.14797e-06
6.14321e-06
6.13093e-06
6.13354e-06
6.1587e-06
6.15116e-06
6.09108e-06
6.19145e-06
6.1736e-06
6.19292e-06
6.17928e-06
6.17287e-06
6.17205e-06
6.16862e-06
6.1617e-06
6.1538e-06
6.14622e-06
6.13914e-06
6.13263e-06
6.12689e-06
6.1222e-06
6.11891e-06
6.11696e-06
6.11616e-06
6.11637e-06
6.11727e-06
6.11854e-06
6.11982e-06
6.12077e-06
6.12125e-06
6.12121e-06
6.12077e-06
6.12006e-06
6.11915e-06
6.11807e-06
6.11684e-06
6.11543e-06
6.11388e-06
6.11219e-06
6.11038e-06
6.1085e-06
6.10661e-06
6.10479e-06
6.10307e-06
6.10143e-06
6.09981e-06
6.09817e-06
6.09653e-06
6.09496e-06
6.09351e-06
6.0922e-06
6.09099e-06
6.08986e-06
6.08876e-06
6.08771e-06
6.0867e-06
6.08577e-06
6.08498e-06
6.08437e-06
6.08396e-06
6.08374e-06
6.08372e-06
6.08389e-06
6.08425e-06
6.08486e-06
6.08577e-06
6.08712e-06
6.08917e-06
6.09231e-06
6.09643e-06
6.10106e-06
6.10593e-06
6.11071e-06
6.11481e-06
6.11757e-06
6.11869e-06
6.11879e-06
6.11951e-06
6.12188e-06
6.12701e-06
6.13562e-06
6.1453e-06
6.14972e-06
6.14293e-06
6.131e-06
6.13833e-06
6.16375e-06
6.15077e-06
6.08804e-06
6.18418e-06
6.17517e-06
6.17059e-06
6.15673e-06
6.15563e-06
6.15882e-06
6.15833e-06
6.15474e-06
6.15027e-06
6.14554e-06
6.14035e-06
6.13482e-06
6.12929e-06
6.12407e-06
6.11938e-06
6.1154e-06
6.11235e-06
6.1103e-06
6.10938e-06
6.10965e-06
6.11062e-06
6.11196e-06
6.11329e-06
6.11432e-06
6.11494e-06
6.1152e-06
6.11515e-06
6.11486e-06
6.11432e-06
6.11355e-06
6.11257e-06
6.11142e-06
6.11014e-06
6.10876e-06
6.10733e-06
6.10587e-06
6.10438e-06
6.10282e-06
6.10121e-06
6.09955e-06
6.09795e-06
6.09646e-06
6.0951e-06
6.09384e-06
6.09265e-06
6.0915e-06
6.09039e-06
6.08932e-06
6.08831e-06
6.08741e-06
6.08666e-06
6.08608e-06
6.08565e-06
6.08539e-06
6.08531e-06
6.08542e-06
6.08571e-06
6.08625e-06
6.0871e-06
6.08839e-06
6.09045e-06
6.09369e-06
6.09802e-06
6.10282e-06
6.10779e-06
6.11256e-06
6.11647e-06
6.11885e-06
6.11956e-06
6.11955e-06
6.12056e-06
6.12361e-06
6.12973e-06
6.13909e-06
6.14844e-06
6.15106e-06
6.1423e-06
6.13144e-06
6.14408e-06
6.16874e-06
6.14966e-06
6.08448e-06
6.2254e-06
6.2351e-06
6.19171e-06
6.17309e-06
6.16792e-06
6.16585e-06
6.16129e-06
6.15604e-06
6.15149e-06
6.14736e-06
6.14277e-06
6.13771e-06
6.13253e-06
6.12739e-06
6.12234e-06
6.11766e-06
6.11366e-06
6.11052e-06
6.10829e-06
6.10692e-06
6.10627e-06
6.10638e-06
6.10715e-06
6.10806e-06
6.10885e-06
6.10946e-06
6.10989e-06
6.11013e-06
6.11017e-06
6.11002e-06
6.1097e-06
6.10924e-06
6.10863e-06
6.10787e-06
6.10697e-06
6.1059e-06
6.10467e-06
6.10329e-06
6.10182e-06
6.10034e-06
6.09892e-06
6.09761e-06
6.09638e-06
6.0952e-06
6.09406e-06
6.09294e-06
6.09186e-06
6.09082e-06
6.08987e-06
6.08903e-06
6.08833e-06
6.08776e-06
6.08731e-06
6.08701e-06
6.08688e-06
6.08693e-06
6.08717e-06
6.08764e-06
6.08842e-06
6.08967e-06
6.09177e-06
6.09521e-06
6.09976e-06
6.10471e-06
6.10976e-06
6.11447e-06
6.11809e-06
6.12001e-06
6.12033e-06
6.12029e-06
6.12175e-06
6.12564e-06
6.1328e-06
6.14279e-06
6.15146e-06
6.15193e-06
6.14126e-06
6.13216e-06
6.15075e-06
6.1735e-06
6.14765e-06
6.08099e-06
6.34723e-06
6.38291e-06
6.27981e-06
6.2445e-06
6.22125e-06
6.2037e-06
6.18907e-06
6.17886e-06
6.17235e-06
6.16779e-06
6.16384e-06
6.15988e-06
6.15561e-06
6.1508e-06
6.14548e-06
6.13992e-06
6.1345e-06
6.12952e-06
6.12516e-06
6.12144e-06
6.11838e-06
6.11598e-06
6.11414e-06
6.11271e-06
6.11158e-06
6.11069e-06
6.11001e-06
6.10946e-06
6.10901e-06
6.10863e-06
6.1083e-06
6.10799e-06
6.10762e-06
6.10714e-06
6.1065e-06
6.10565e-06
6.10462e-06
6.10346e-06
6.10225e-06
6.10105e-06
6.09989e-06
6.09877e-06
6.09769e-06
6.09662e-06
6.09556e-06
6.09452e-06
6.0935e-06
6.09255e-06
6.09168e-06
6.09091e-06
6.09024e-06
6.08966e-06
6.08918e-06
6.08885e-06
6.08867e-06
6.08867e-06
6.08884e-06
6.08925e-06
6.08997e-06
6.09117e-06
6.09329e-06
6.09681e-06
6.10159e-06
6.10668e-06
6.11176e-06
6.11631e-06
6.11954e-06
6.12095e-06
6.12096e-06
6.1211e-06
6.12323e-06
6.12814e-06
6.13637e-06
6.14666e-06
6.15411e-06
6.15207e-06
6.14009e-06
6.13459e-06
6.15856e-06
6.17779e-06
6.145e-06
6.07879e-06
6.70027e-06
6.77303e-06
6.55751e-06
6.46344e-06
6.38326e-06
6.31616e-06
6.26186e-06
6.22093e-06
6.19163e-06
6.17159e-06
6.1588e-06
6.15149e-06
6.14773e-06
6.1459e-06
6.1448e-06
6.14381e-06
6.14263e-06
6.14114e-06
6.13927e-06
6.13699e-06
6.13439e-06
6.13161e-06
6.12874e-06
6.12587e-06
6.1231e-06
6.12051e-06
6.11818e-06
6.11611e-06
6.11429e-06
6.11274e-06
6.11143e-06
6.1103e-06
6.10929e-06
6.10828e-06
6.10721e-06
6.10606e-06
6.10486e-06
6.10366e-06
6.1025e-06
6.1014e-06
6.10035e-06
6.09933e-06
6.09834e-06
6.09735e-06
6.09638e-06
6.09543e-06
6.09451e-06
6.09366e-06
6.09288e-06
6.09217e-06
6.09153e-06
6.09095e-06
6.09047e-06
6.09013e-06
6.08993e-06
6.08989e-06
6.09002e-06
6.09036e-06
6.09101e-06
6.09223e-06
6.09464e-06
6.09851e-06
6.10344e-06
6.10865e-06
6.11374e-06
6.11812e-06
6.12092e-06
6.12181e-06
6.12154e-06
6.12188e-06
6.12467e-06
6.13058e-06
6.13982e-06
6.15036e-06
6.15653e-06
6.15198e-06
6.13878e-06
6.13715e-06
6.16584e-06
6.1815e-06
6.14131e-06
6.07646e-06
7.56768e-06
7.67399e-06
7.37653e-06
7.21601e-06
7.06043e-06
6.91522e-06
6.78309e-06
6.66585e-06
6.56329e-06
6.47512e-06
6.40206e-06
6.34395e-06
6.29754e-06
6.26126e-06
6.23315e-06
6.2115e-06
6.19514e-06
6.18273e-06
6.17318e-06
6.16554e-06
6.15912e-06
6.15351e-06
6.14844e-06
6.1438e-06
6.13951e-06
6.13556e-06
6.13193e-06
6.12868e-06
6.12578e-06
6.12319e-06
6.12081e-06
6.1186e-06
6.11649e-06
6.11446e-06
6.1125e-06
6.11062e-06
6.10885e-06
6.10721e-06
6.10569e-06
6.10431e-06
6.10302e-06
6.10182e-06
6.1007e-06
6.09965e-06
6.09866e-06
6.09775e-06
6.09691e-06
6.09615e-06
6.09545e-06
6.09479e-06
6.09417e-06
6.0936e-06
6.09312e-06
6.09275e-06
6.09251e-06
6.0924e-06
6.09245e-06
6.09271e-06
6.09336e-06
6.09475e-06
6.09742e-06
6.10154e-06
6.10671e-06
6.11201e-06
6.11688e-06
6.12058e-06
6.12245e-06
6.12266e-06
6.12256e-06
6.12409e-06
6.12865e-06
6.13644e-06
6.14672e-06
6.15602e-06
6.15827e-06
6.14966e-06
6.13838e-06
6.14811e-06
6.17995e-06
6.18456e-06
6.13622e-06
6.07814e-06
)
;

boundaryField
{
    inlet
    {
        type            freestream;
        freestreamValue uniform 1e-05;
        value           uniform 1e-05;
    }
    outlet
    {
        type            freestream;
        freestreamValue uniform 1e-05;
        value           nonuniform List<scalar> 
82
(
7.56768e-06
7.37653e-06
7.67399e-06
7.21601e-06
7.06043e-06
6.91522e-06
6.78309e-06
6.66585e-06
6.56329e-06
6.47512e-06
6.40206e-06
6.34395e-06
6.29754e-06
6.26126e-06
6.23315e-06
6.2115e-06
6.19514e-06
6.18273e-06
6.17318e-06
6.16554e-06
6.15912e-06
6.15351e-06
6.14844e-06
6.1438e-06
6.13951e-06
6.13556e-06
6.13193e-06
6.12868e-06
6.12578e-06
6.12319e-06
6.12081e-06
6.1186e-06
6.11649e-06
6.11446e-06
6.1125e-06
6.11062e-06
6.10885e-06
6.10721e-06
6.10569e-06
6.10431e-06
6.10302e-06
6.10182e-06
6.1007e-06
6.09965e-06
6.09866e-06
6.09775e-06
6.09691e-06
6.09615e-06
6.09545e-06
6.09479e-06
6.09417e-06
6.0936e-06
6.09312e-06
6.09275e-06
6.09251e-06
6.0924e-06
6.09245e-06
6.09271e-06
6.09336e-06
6.09475e-06
6.09742e-06
6.10154e-06
6.10671e-06
6.11201e-06
6.11688e-06
6.12058e-06
6.12245e-06
6.12266e-06
6.12256e-06
6.12409e-06
6.12865e-06
6.13644e-06
6.14672e-06
6.15602e-06
6.15827e-06
6.14966e-06
6.13838e-06
6.14811e-06
6.17995e-06
6.18456e-06
6.13622e-06
6.07814e-06
)
;
    }
    walls
    {
        type            nutUSpaldingWallFunction;
        value           nonuniform List<scalar> 0();
    }
    frontAndBack
    {
        type            empty;
    }
    procBoundary3to2
    {
        type            processor;
        value           nonuniform List<scalar> 
88
(
6.12828e-06
6.10545e-06
6.11651e-06
6.11248e-06
6.11248e-06
6.12664e-06
6.12661e-06
6.12661e-06
6.11009e-06
6.11394e-06
6.12093e-06
6.12093e-06
6.10422e-06
6.1064e-06
6.10771e-06
6.10866e-06
6.10939e-06
6.10939e-06
6.08638e-06
6.0899e-06
6.09393e-06
6.09809e-06
6.10197e-06
6.10197e-06
6.07435e-06
6.07518e-06
6.07654e-06
6.0782e-06
6.07993e-06
6.08183e-06
6.08419e-06
6.08419e-06
6.07697e-06
6.07654e-06
6.07613e-06
6.07571e-06
6.07529e-06
6.07494e-06
6.07465e-06
6.07441e-06
6.07421e-06
6.07409e-06
6.07412e-06
6.07436e-06
6.07436e-06
6.20539e-06
6.16861e-06
6.19541e-06
6.21294e-06
6.20483e-06
6.19768e-06
6.19548e-06
6.1922e-06
6.18808e-06
6.18387e-06
6.17943e-06
6.17477e-06
6.1699e-06
6.16485e-06
6.15967e-06
6.15441e-06
6.14917e-06
6.14402e-06
6.13902e-06
6.13423e-06
6.12966e-06
6.12531e-06
6.12117e-06
6.1172e-06
6.11338e-06
6.10969e-06
6.10613e-06
6.10272e-06
6.09949e-06
6.09646e-06
6.09365e-06
6.09108e-06
6.08876e-06
6.0867e-06
6.08491e-06
6.08341e-06
6.08217e-06
6.08115e-06
6.08029e-06
6.07953e-06
6.07886e-06
6.07838e-06
6.07838e-06
)
;
    }
    procBoundary3to6
    {
        type            processor;
        value           uniform 6.22063e-06;
    }
    procBoundary3to7
    {
        type            processor;
        value           nonuniform List<scalar> 
16
(
6.08764e-06
6.15395e-06
6.16487e-06
6.14609e-06
6.13671e-06
6.13672e-06
6.15335e-06
6.17965e-06
6.17965e-06
6.19411e-06
6.15927e-06
6.16155e-06
6.23752e-06
6.42126e-06
6.8865e-06
7.83301e-06
)
;
    }
}


// ************************************************************************* //
