/*--------------------------------*- C++ -*----------------------------------*\
| =========                 |                                                 |
| \\      /  F ield         | OpenFOAM: The Open Source CFD Toolbox           |
|  \\    /   O peration     | Version:  2506                                  |
|   \\  /    A nd           | Website:  www.openfoam.com                      |
|    \\/     M anipulation  |                                                 |
\*---------------------------------------------------------------------------*/
FoamFile
{
    version     2.0;
    format      ascii;
    arch        "LSB;label=32;scalar=64";
    class       volScalarField;
    location    "100";
    object      turbulenceProperties:k;
}
// * * * * * * * * * * * * * * * * * * * * * * * * * * * * * * * * * * * * * //

dimensions      [0 2 -2 0 0 0 0];

internalField   nonuniform List<scalar> 
1340
(
4.8275e-07
9.17118e-07
1.29387e-07
4.21237e-07
4.82644e-07
9.17136e-07
1.08382e-07
1.80222e-07
1.2284e-07
4.23616e-07
4.84037e-07
9.16285e-07
1.54282e-07
1.38128e-07
1.42602e-07
1.15271e-07
1.8482e-07
1.17019e-07
4.26125e-07
4.86231e-07
9.15117e-07
2.02771e-07
1.90531e-07
1.8069e-07
1.71719e-07
1.62357e-07
1.53996e-07
1.39493e-07
1.45731e-07
1.21856e-07
1.88842e-07
1.11982e-07
4.28779e-07
4.88903e-07
9.13844e-07
2.53876e-07
2.43888e-07
2.32855e-07
2.21091e-07
2.09083e-07
1.97455e-07
1.86291e-07
1.77283e-07
1.69114e-07
1.60688e-07
1.53415e-07
1.40775e-07
1.48775e-07
1.28345e-07
1.92327e-07
1.07565e-07
4.31367e-07
4.91928e-07
9.12473e-07
2.70306e-07
2.69323e-07
2.67174e-07
2.63677e-07
2.59007e-07
2.53512e-07
2.47419e-07
2.40429e-07
2.31931e-07
2.22598e-07
2.12368e-07
2.01921e-07
1.91906e-07
1.82079e-07
1.74035e-07
1.66799e-07
1.59273e-07
1.52827e-07
1.4215e-07
1.51926e-07
1.34726e-07
1.95109e-07
1.03686e-07
4.33886e-07
4.95081e-07
9.10801e-07
1.82958e-07
1.92922e-07
2.01211e-07
2.08797e-07
2.15503e-07
2.21464e-07
2.26686e-07
2.31495e-07
2.35879e-07
2.39364e-07
2.41926e-07
2.4483e-07
2.46676e-07
2.46612e-07
2.45922e-07
2.43965e-07
2.40921e-07
2.36629e-07
2.31747e-07
2.26574e-07
2.20035e-07
2.12451e-07
2.04078e-07
1.95322e-07
1.86675e-07
1.78112e-07
1.71147e-07
1.64982e-07
1.58514e-07
1.52862e-07
1.44056e-07
1.55351e-07
1.40976e-07
1.9712e-07
1.00536e-07
4.36349e-07
4.97978e-07
9.09046e-07
2.09791e-06
2.29658e-06
2.37332e-06
2.37586e-06
2.36625e-06
2.33332e-06
2.2833e-06
2.21733e-06
2.13747e-06
2.04627e-06
1.9462e-06
1.83946e-06
1.72819e-06
1.61435e-06
1.49954e-06
1.3854e-06
1.2729e-06
1.16331e-06
1.05746e-06
9.56095e-07
8.59771e-07
7.68912e-07
6.83577e-07
6.03983e-07
5.30052e-07
4.61653e-07
3.98578e-07
3.40675e-07
2.87762e-07
2.39444e-07
1.95632e-07
1.561e-07
1.21e-07
9.0708e-08
6.68568e-08
5.24363e-08
5.07487e-08
5.97966e-08
7.4179e-08
9.31114e-08
1.08623e-07
1.18653e-07
1.35268e-07
1.47141e-07
1.53353e-07
1.64367e-07
1.73854e-07
1.82317e-07
1.89828e-07
1.96579e-07
2.02767e-07
2.08469e-07
2.13515e-07
2.16638e-07
2.19207e-07
2.23122e-07
2.25345e-07
2.25641e-07
2.25082e-07
2.23578e-07
2.20734e-07
2.17126e-07
2.13172e-07
2.08528e-07
2.02879e-07
1.96553e-07
1.8974e-07
1.82593e-07
1.75044e-07
1.69074e-07
1.63954e-07
1.58501e-07
1.53632e-07
1.46742e-07
1.59234e-07
1.47292e-07
1.98443e-07
9.83926e-08
4.38631e-07
5.00486e-07
9.07369e-07
1.37655e-06
1.45949e-06
1.57096e-06
1.62682e-06
1.67156e-06
1.6993e-06
1.71058e-06
1.70575e-06
1.68556e-06
1.65135e-06
1.60484e-06
1.54766e-06
1.48173e-06
1.40897e-06
1.33104e-06
1.2496e-06
1.16598e-06
1.08161e-06
9.97642e-07
9.1502e-07
8.34532e-07
7.56823e-07
6.82287e-07
6.1131e-07
5.44144e-07
4.8088e-07
4.21593e-07
3.66302e-07
3.14875e-07
2.67154e-07
2.23005e-07
1.82184e-07
1.44593e-07
1.1004e-07
7.85726e-08
4.98302e-08
2.42204e-08
8.23689e-09
2.55205e-08
4.86408e-08
7.05252e-08
8.20644e-08
8.92868e-08
1.07133e-07
1.24249e-07
1.35191e-07
1.45227e-07
1.54462e-07
1.62814e-07
1.70511e-07
1.77641e-07
1.84369e-07
1.90458e-07
1.94477e-07
1.97671e-07
2.01707e-07
2.05073e-07
2.06651e-07
2.0756e-07
2.07536e-07
2.06199e-07
2.0398e-07
2.01363e-07
1.98284e-07
1.94461e-07
1.9004e-07
1.8502e-07
1.79329e-07
1.72757e-07
1.67607e-07
1.63445e-07
1.58981e-07
1.54973e-07
1.50144e-07
1.6362e-07
1.53771e-07
1.99156e-07
9.74937e-08
4.40986e-07
5.02392e-07
9.06139e-07
8.51279e-07
8.79865e-07
9.73063e-07
1.0411e-06
1.10326e-06
1.15735e-06
1.20105e-06
1.2335e-06
1.25399e-06
1.26225e-06
1.25865e-06
1.24359e-06
1.21795e-06
1.1829e-06
1.13975e-06
1.08988e-06
1.03474e-06
9.75776e-07
9.14298e-07
8.51351e-07
7.87918e-07
7.24825e-07
6.62716e-07
6.02181e-07
5.43641e-07
4.87476e-07
4.33965e-07
3.83267e-07
3.35413e-07
2.904e-07
2.48228e-07
2.08952e-07
1.72445e-07
1.38692e-07
1.07871e-07
8.00539e-08
5.56276e-08
3.53537e-08
2.34598e-08
2.99119e-08
4.75655e-08
5.91009e-08
6.83358e-08
8.43254e-08
1.00585e-07
1.11737e-07
1.22375e-07
1.32237e-07
1.41195e-07
1.49511e-07
1.57237e-07
1.64538e-07
1.71236e-07
1.76108e-07
1.79971e-07
1.84315e-07
1.8831e-07
1.91019e-07
1.93059e-07
1.94156e-07
1.94057e-07
1.93072e-07
1.91609e-07
1.89755e-07
1.87406e-07
1.84498e-07
1.80986e-07
1.76629e-07
1.70955e-07
1.66506e-07
1.63287e-07
1.5984e-07
1.56814e-07
1.54265e-07
1.68608e-07
1.60514e-07
1.99437e-07
9.81939e-08
4.42759e-07
5.04108e-07
9.05648e-07
6.4416e-07
6.42856e-07
6.73122e-07
7.15544e-07
7.48843e-07
7.88206e-07
8.26606e-07
8.62573e-07
8.9382e-07
9.18833e-07
9.36587e-07
9.46444e-07
9.48094e-07
9.41567e-07
9.27208e-07
9.05573e-07
8.77451e-07
8.43762e-07
8.0547e-07
7.63471e-07
7.18745e-07
6.72127e-07
6.24421e-07
5.76358e-07
5.28582e-07
4.81626e-07
4.35889e-07
3.91691e-07
3.49234e-07
3.08644e-07
2.70109e-07
2.33796e-07
1.99767e-07
1.68243e-07
1.39562e-07
1.13649e-07
9.05785e-08
7.01405e-08
5.2714e-08
4.14699e-08
4.27157e-08
5.15551e-08
6.0621e-08
7.10996e-08
8.3317e-08
9.3966e-08
1.04407e-07
1.14171e-07
1.23181e-07
1.31611e-07
1.39424e-07
1.4674e-07
1.53558e-07
1.59019e-07
1.63533e-07
1.68234e-07
1.7259e-07
1.76075e-07
1.78902e-07
1.80866e-07
1.8186e-07
1.82014e-07
1.81611e-07
1.80854e-07
1.79736e-07
1.78117e-07
1.75941e-07
1.7283e-07
1.68107e-07
1.64419e-07
1.62213e-07
1.59953e-07
1.58219e-07
1.58228e-07
1.73499e-07
1.66789e-07
1.99118e-07
1.00184e-07
4.44323e-07
5.05021e-07
9.07312e-07
6.19892e-07
6.4877e-07
6.55115e-07
6.67459e-07
6.55642e-07
6.52594e-07
6.51578e-07
6.56681e-07
6.66052e-07
6.78209e-07
6.90779e-07
7.01912e-07
7.10081e-07
7.1429e-07
7.13991e-07
7.08765e-07
6.9858e-07
6.83552e-07
6.63893e-07
6.39997e-07
6.12411e-07
5.81761e-07
5.48705e-07
5.13937e-07
4.78143e-07
4.41889e-07
4.05635e-07
3.69829e-07
3.34732e-07
3.00626e-07
2.67835e-07
2.36639e-07
2.07285e-07
1.80013e-07
1.55077e-07
1.31982e-07
1.10516e-07
9.06382e-08
7.37239e-08
6.26679e-08
6.02683e-08
6.5242e-08
6.97939e-08
7.4361e-08
8.19351e-08
9.0144e-08
9.8703e-08
1.07014e-07
1.14942e-07
1.22531e-07
1.29565e-07
1.36209e-07
1.42623e-07
1.48161e-07
1.52841e-07
1.57578e-07
1.61932e-07
1.65598e-07
1.68688e-07
1.71064e-07
1.72735e-07
1.73687e-07
1.7408e-07
1.74182e-07
1.74038e-07
1.73448e-07
1.72418e-07
1.7045e-07
1.6658e-07
1.63614e-07
1.62399e-07
1.61352e-07
1.61099e-07
1.63902e-07
1.80113e-07
1.74299e-07
1.99382e-07
1.0645e-07
4.43187e-07
5.07551e-07
9.0912e-07
7.84386e-07
7.92362e-07
7.63582e-07
7.29656e-07
6.96178e-07
6.6893e-07
6.42473e-07
6.19031e-07
5.98655e-07
5.81012e-07
5.67289e-07
5.56774e-07
5.48896e-07
5.42846e-07
5.37806e-07
5.32445e-07
5.26119e-07
5.18396e-07
5.08424e-07
4.96274e-07
4.81563e-07
4.64493e-07
4.45192e-07
4.239e-07
4.00968e-07
3.76811e-07
3.51679e-07
3.26079e-07
3.00262e-07
2.74654e-07
2.4963e-07
2.25533e-07
2.02503e-07
1.80657e-07
1.59773e-07
1.39319e-07
1.19583e-07
1.01813e-07
8.82792e-08
8.01493e-08
7.70744e-08
7.7351e-08
7.65467e-08
7.70412e-08
8.097e-08
8.63137e-08
9.25241e-08
9.90212e-08
1.05423e-07
1.11773e-07
1.17715e-07
1.23528e-07
1.29446e-07
1.34824e-07
1.39542e-07
1.4429e-07
1.48685e-07
1.52496e-07
1.5592e-07
1.58899e-07
1.61427e-07
1.63446e-07
1.65047e-07
1.66478e-07
1.67698e-07
1.68447e-07
1.68801e-07
1.68063e-07
1.65e-07
1.62682e-07
1.62348e-07
1.6251e-07
1.64009e-07
1.7012e-07
1.87111e-07
1.82706e-07
1.973e-07
1.18144e-07
4.36684e-07
5.02587e-07
8.77291e-07
5.36752e-07
6.63955e-07
7.35294e-07
7.58142e-07
7.65571e-07
7.58522e-07
7.41144e-07
7.17556e-07
6.90073e-07
6.59784e-07
6.29211e-07
5.98947e-07
5.70065e-07
5.4357e-07
5.19875e-07
4.98613e-07
4.79699e-07
4.62735e-07
4.46797e-07
4.3168e-07
4.16718e-07
4.0167e-07
3.86169e-07
3.70048e-07
3.53214e-07
3.35653e-07
3.17383e-07
2.98615e-07
2.79433e-07
2.60136e-07
2.40953e-07
2.22088e-07
2.03419e-07
1.84933e-07
1.66367e-07
1.47895e-07
1.307e-07
1.16648e-07
1.06835e-07
1.00165e-07
9.42889e-08
8.85057e-08
8.27869e-08
7.95886e-08
7.96508e-08
8.15999e-08
8.47878e-08
8.87312e-08
9.29547e-08
9.73396e-08
1.01744e-07
1.06358e-07
1.11434e-07
1.16373e-07
1.2102e-07
1.25811e-07
1.30463e-07
1.34833e-07
1.39045e-07
1.43068e-07
1.46816e-07
1.50196e-07
1.53305e-07
1.56289e-07
1.59009e-07
1.612e-07
1.62984e-07
1.63393e-07
1.61222e-07
1.59648e-07
1.603e-07
1.61896e-07
1.65518e-07
1.75144e-07
1.92654e-07
1.89478e-07
1.92782e-07
1.31876e-07
4.39501e-07
4.9719e-07
8.75404e-07
5.44435e-07
3.09255e-07
1.14041e-07
1.95567e-07
3.30517e-07
4.38986e-07
5.18945e-07
5.74663e-07
6.10512e-07
6.30561e-07
6.38e-07
6.35919e-07
6.26387e-07
6.11614e-07
5.93187e-07
5.72624e-07
5.50944e-07
5.29024e-07
5.07429e-07
4.8635e-07
4.65902e-07
4.45992e-07
4.26479e-07
4.07334e-07
3.8842e-07
3.69571e-07
3.50756e-07
3.31868e-07
3.12914e-07
2.93918e-07
2.74911e-07
2.55846e-07
2.36655e-07
2.17406e-07
1.98447e-07
1.8051e-07
1.64878e-07
1.5254e-07
1.42858e-07
1.33702e-07
1.23459e-07
1.13356e-07
1.05029e-07
9.93763e-08
9.60824e-08
9.43671e-08
9.38974e-08
9.42389e-08
9.51694e-08
9.65368e-08
9.85454e-08
1.0113e-07
1.04353e-07
1.0789e-07
1.11571e-07
1.15742e-07
1.20111e-07
1.24508e-07
1.28978e-07
1.33385e-07
1.37629e-07
1.41684e-07
1.45624e-07
1.4953e-07
1.53243e-07
1.56442e-07
1.59294e-07
1.60573e-07
1.59247e-07
1.5846e-07
1.60036e-07
1.62977e-07
1.68648e-07
1.81279e-07
1.98801e-07
1.95811e-07
1.89729e-07
1.46618e-07
4.46808e-07
4.83316e-07
8.74685e-07
1.55934e-06
1.49944e-06
1.38402e-06
1.1022e-06
8.27448e-07
5.87191e-07
3.78447e-07
2.18187e-07
1.50997e-07
2.0364e-07
2.87844e-07
3.63791e-07
4.24756e-07
4.70832e-07
5.03507e-07
5.2457e-07
5.35764e-07
5.39124e-07
5.36011e-07
5.28229e-07
5.16758e-07
5.02789e-07
4.87014e-07
4.69975e-07
4.52271e-07
4.33985e-07
4.15483e-07
3.96727e-07
3.77807e-07
3.58737e-07
3.39398e-07
3.19847e-07
3.00086e-07
2.80265e-07
2.60799e-07
2.42391e-07
2.25579e-07
2.10933e-07
1.9813e-07
1.85896e-07
1.72961e-07
1.59471e-07
1.47334e-07
1.3756e-07
1.29784e-07
1.23531e-07
1.18396e-07
1.14304e-07
1.10944e-07
1.08294e-07
1.06426e-07
1.05567e-07
1.05514e-07
1.0614e-07
1.07484e-07
1.09503e-07
1.12402e-07
1.1585e-07
1.19604e-07
1.23626e-07
1.27717e-07
1.31791e-07
1.35919e-07
1.40157e-07
1.44558e-07
1.48915e-07
1.52862e-07
1.56564e-07
1.58558e-07
1.58104e-07
1.58168e-07
1.6063e-07
1.64821e-07
1.72481e-07
1.87606e-07
2.04644e-07
2.00919e-07
1.88169e-07
1.64364e-07
4.56153e-07
4.66058e-07
8.73992e-07
1.63777e-06
1.25254e-06
1.66359e-06
1.54525e-06
1.389e-06
1.21741e-06
1.03858e-06
8.60387e-07
6.89767e-07
5.34285e-07
3.99259e-07
2.94777e-07
2.34374e-07
2.26528e-07
2.56491e-07
3.00116e-07
3.42887e-07
3.79798e-07
4.08667e-07
4.29503e-07
4.43035e-07
4.50002e-07
4.51606e-07
4.4864e-07
4.42133e-07
4.32732e-07
4.21187e-07
4.0794e-07
3.93343e-07
3.77709e-07
3.61114e-07
3.43972e-07
3.26424e-07
3.09017e-07
2.92183e-07
2.76455e-07
2.61744e-07
2.47882e-07
2.34169e-07
2.19958e-07
2.05385e-07
1.91432e-07
1.79233e-07
1.68923e-07
1.59735e-07
1.51495e-07
1.44035e-07
1.37278e-07
1.31202e-07
1.25858e-07
1.21446e-07
1.18059e-07
1.15442e-07
1.13498e-07
1.1261e-07
1.12761e-07
1.14008e-07
1.16057e-07
1.18622e-07
1.21592e-07
1.24784e-07
1.28208e-07
1.31978e-07
1.36162e-07
1.40761e-07
1.45516e-07
1.50038e-07
1.5445e-07
1.57108e-07
1.5761e-07
1.58606e-07
1.61885e-07
1.67256e-07
1.76778e-07
1.93825e-07
2.0978e-07
2.04832e-07
1.88979e-07
1.86963e-07
4.67742e-07
4.46243e-07
8.74227e-07
3.0482e-07
2.72829e-07
4.68196e-07
6.20272e-07
7.44616e-07
8.12202e-07
8.40975e-07
8.30811e-07
7.92662e-07
7.3273e-07
6.58933e-07
5.78523e-07
4.97794e-07
4.22105e-07
3.58334e-07
3.10708e-07
2.8382e-07
2.77227e-07
2.86058e-07
3.03528e-07
3.23963e-07
3.43063e-07
3.59003e-07
3.70876e-07
3.78229e-07
3.8103e-07
3.80384e-07
3.76295e-07
3.69364e-07
3.6027e-07
3.49322e-07
3.37175e-07
3.24286e-07
3.11046e-07
2.98042e-07
2.85208e-07
2.72174e-07
2.58781e-07
2.44752e-07
2.30347e-07
2.16326e-07
2.03513e-07
1.92008e-07
1.81728e-07
1.72149e-07
1.63238e-07
1.55066e-07
1.47461e-07
1.40601e-07
1.34506e-07
1.29339e-07
1.25021e-07
1.21285e-07
1.18264e-07
1.16387e-07
1.15562e-07
1.15711e-07
1.16653e-07
1.18111e-07
1.1999e-07
1.22187e-07
1.24899e-07
1.28234e-07
1.32234e-07
1.36917e-07
1.41949e-07
1.46917e-07
1.51945e-07
1.55173e-07
1.56641e-07
1.58635e-07
1.62738e-07
1.69264e-07
1.80503e-07
1.98719e-07
2.12659e-07
2.06e-07
1.91039e-07
2.1235e-07
4.81354e-07
4.22225e-07
8.77297e-07
1.87338e-06
1.93065e-06
1.57374e-06
1.24408e-06
9.17496e-07
6.53175e-07
4.53505e-07
3.44246e-07
3.30059e-07
3.67304e-07
4.11721e-07
4.43098e-07
4.5739e-07
4.56324e-07
4.4392e-07
4.23613e-07
3.99659e-07
3.75577e-07
3.53951e-07
3.37263e-07
3.26358e-07
3.21011e-07
3.19629e-07
3.21411e-07
3.24534e-07
3.26759e-07
3.28371e-07
3.28392e-07
3.26378e-07
3.22704e-07
3.17584e-07
3.11187e-07
3.03959e-07
2.95935e-07
2.87438e-07
2.78198e-07
2.68008e-07
2.56961e-07
2.45205e-07
2.33229e-07
2.21649e-07
2.10849e-07
2.00438e-07
1.90527e-07
1.80985e-07
1.71809e-07
1.63229e-07
1.55105e-07
1.47694e-07
1.41075e-07
1.35272e-07
1.30243e-07
1.25896e-07
1.22515e-07
1.20304e-07
1.19156e-07
1.18843e-07
1.19163e-07
1.19879e-07
1.20938e-07
1.22357e-07
1.24487e-07
1.27435e-07
1.31217e-07
1.35929e-07
1.41159e-07
1.46514e-07
1.52184e-07
1.56174e-07
1.58813e-07
1.61675e-07
1.66229e-07
1.73464e-07
1.85824e-07
2.04289e-07
2.15765e-07
2.08806e-07
2.01604e-07
2.47872e-07
5.01348e-07
4.01236e-07
8.90469e-07
3.02855e-06
2.29377e-06
3.10643e-06
2.93936e-06
2.62581e-06
2.29934e-06
1.95891e-06
1.62522e-06
1.30915e-06
1.01895e-06
7.61562e-07
5.40787e-07
3.58006e-07
2.17199e-07
1.33759e-07
1.28833e-07
1.65856e-07
2.02598e-07
2.28461e-07
2.43847e-07
2.48632e-07
2.46062e-07
2.38502e-07
2.27796e-07
2.16733e-07
2.05162e-07
1.9458e-07
1.85324e-07
1.77517e-07
1.70801e-07
1.64939e-07
1.60637e-07
1.56799e-07
1.54081e-07
1.51792e-07
1.4961e-07
1.47362e-07
1.44987e-07
1.42623e-07
1.40001e-07
1.37498e-07
1.35152e-07
1.32547e-07
1.29867e-07
1.27205e-07
1.24564e-07
1.21968e-07
1.19567e-07
1.17402e-07
1.15527e-07
1.13891e-07
1.1247e-07
1.11407e-07
1.10872e-07
1.10929e-07
1.11444e-07
1.12217e-07
1.13091e-07
1.13939e-07
1.1489e-07
1.16126e-07
1.18145e-07
1.21064e-07
1.24958e-07
1.29929e-07
1.3546e-07
1.41189e-07
1.4738e-07
1.51602e-07
1.54861e-07
1.58683e-07
1.64155e-07
1.72877e-07
1.8684e-07
2.04545e-07
2.11196e-07
2.02027e-07
2.05027e-07
2.73597e-07
5.14227e-07
3.65825e-07
9.13826e-07
1.11283e-06
8.79084e-07
2.25837e-06
3.03943e-06
3.49382e-06
3.6957e-06
3.74409e-06
3.65891e-06
3.48521e-06
3.24898e-06
2.97512e-06
2.68245e-06
2.38543e-06
2.09562e-06
1.82101e-06
1.56813e-06
1.34005e-06
1.13934e-06
9.65856e-07
8.18568e-07
6.95666e-07
5.94612e-07
5.12411e-07
4.43736e-07
3.86423e-07
3.3921e-07
2.99361e-07
2.65935e-07
2.3864e-07
2.16561e-07
1.99663e-07
1.87135e-07
1.78506e-07
1.72495e-07
1.68308e-07
1.65535e-07
1.63456e-07
1.61806e-07
1.6041e-07
1.59202e-07
1.57772e-07
1.55835e-07
1.53279e-07
1.50037e-07
1.46151e-07
1.41719e-07
1.36937e-07
1.32083e-07
1.27394e-07
1.23116e-07
1.19471e-07
1.16651e-07
1.15e-07
1.14664e-07
1.15512e-07
1.1701e-07
1.18664e-07
1.20122e-07
1.21144e-07
1.21902e-07
1.22761e-07
1.24255e-07
1.26557e-07
1.29781e-07
1.34178e-07
1.39475e-07
1.45612e-07
1.52836e-07
1.58587e-07
1.63576e-07
1.67503e-07
1.71602e-07
1.78549e-07
1.90574e-07
2.06065e-07
2.11555e-07
2.11182e-07
2.39591e-07
3.35254e-07
5.47145e-07
3.87679e-07
1.00652e-06
1.45215e-05
1.51989e-05
1.20225e-05
9.32339e-06
6.8857e-06
4.96729e-06
3.38648e-06
2.13499e-06
1.15741e-06
4.43329e-07
3.13408e-07
6.62257e-07
9.3978e-07
1.12614e-06
1.23746e-06
1.28987e-06
1.29721e-06
1.27182e-06
1.22302e-06
1.15906e-06
1.08598e-06
1.00849e-06
9.31238e-07
8.55684e-07
7.8406e-07
7.17544e-07
6.56726e-07
6.01637e-07
5.52419e-07
5.08681e-07
4.70011e-07
4.36197e-07
4.06533e-07
3.80472e-07
3.57628e-07
3.37686e-07
3.20305e-07
3.05057e-07
2.91546e-07
2.79225e-07
2.67558e-07
2.5618e-07
2.44829e-07
2.33329e-07
2.21601e-07
2.09778e-07
1.97988e-07
1.8647e-07
1.75393e-07
1.64949e-07
1.55403e-07
1.47013e-07
1.40073e-07
1.34562e-07
1.30229e-07
1.26625e-07
1.23354e-07
1.20163e-07
1.16938e-07
1.13994e-07
1.11726e-07
1.10639e-07
1.10925e-07
1.12857e-07
1.16582e-07
1.21305e-07
1.26752e-07
1.33114e-07
1.36176e-07
1.3943e-07
1.44418e-07
1.51227e-07
1.63038e-07
1.79395e-07
1.92505e-07
1.87276e-07
1.80408e-07
2.27148e-07
3.42228e-07
4.74627e-07
3.57902e-07
1.02171e-06
)
;

boundaryField
{
    inlet
    {
        type            calculated;
        value           nonuniform List<scalar> 
23
(
3.89448e-06
3.87234e-06
3.85074e-06
3.82948e-06
3.80804e-06
3.78597e-06
3.76275e-06
3.73803e-06
3.7113e-06
3.68214e-06
3.65005e-06
3.61521e-06
3.57662e-06
3.51772e-06
3.46706e-06
3.40694e-06
3.33441e-06
3.24827e-06
3.14694e-06
3.02989e-06
2.89416e-06
2.79013e-06
2.60785e-06
)
;
    }
    outlet
    {
        type            calculated;
        value           nonuniform List<scalar> 
82
(
1.46396e-05
1.21395e-05
1.53166e-05
9.43905e-06
6.99989e-06
5.08016e-06
3.49803e-06
2.24521e-06
1.26542e-06
5.38732e-07
2.57508e-07
5.61346e-07
8.33879e-07
1.01877e-06
1.1296e-06
1.18203e-06
1.18984e-06
1.16536e-06
1.11784e-06
1.05552e-06
9.84301e-07
9.08899e-07
8.3387e-07
7.60554e-07
6.91121e-07
6.26696e-07
5.67821e-07
5.14478e-07
4.66848e-07
4.24499e-07
3.87124e-07
3.54549e-07
3.26118e-07
3.01359e-07
2.79944e-07
2.61621e-07
2.46083e-07
2.32912e-07
2.21714e-07
2.11879e-07
2.02832e-07
1.94142e-07
1.85529e-07
1.76774e-07
1.67771e-07
1.5866e-07
1.49544e-07
1.40689e-07
1.32237e-07
1.24408e-07
1.17462e-07
1.11616e-07
1.07137e-07
1.03904e-07
1.01649e-07
9.99263e-08
9.83904e-08
9.68692e-08
9.53095e-08
9.415e-08
9.37697e-08
9.46938e-08
9.70808e-08
1.01191e-07
1.06872e-07
1.12807e-07
1.18364e-07
1.2395e-07
1.25531e-07
1.27726e-07
1.33487e-07
1.42636e-07
1.57882e-07
1.7745e-07
1.91261e-07
1.81354e-07
1.6116e-07
1.96619e-07
3.10208e-07
4.55867e-07
2.90092e-07
9.27429e-07
)
;
    }
    walls
    {
        type            calculated;
        value           nonuniform List<scalar> 0();
    }
    frontAndBack
    {
        type            empty;
    }
    procBoundary3to2
    {
        type            processor;
        value           nonuniform List<scalar> 
88
(
4.84733e-07
9.16567e-07
1.36497e-07
4.18464e-07
4.18464e-07
1.01257e-07
1.74758e-07
1.74758e-07
1.5457e-07
1.36691e-07
1.39178e-07
1.39178e-07
2.08402e-07
1.95092e-07
1.84258e-07
1.74288e-07
1.63799e-07
1.63799e-07
2.67846e-07
2.56242e-07
2.43364e-07
2.29901e-07
2.16108e-07
2.16108e-07
2.965e-07
2.93549e-07
2.89388e-07
2.84076e-07
2.7775e-07
2.70753e-07
2.62864e-07
2.62864e-07
2.33152e-07
2.38569e-07
2.43643e-07
2.48429e-07
2.5278e-07
2.56694e-07
2.60059e-07
2.63148e-07
2.65841e-07
2.68067e-07
2.6994e-07
2.70784e-07
2.70784e-07
3.26468e-06
3.24419e-06
3.15426e-06
3.05904e-06
2.93746e-06
2.80467e-06
2.66286e-06
2.51354e-06
2.35925e-06
2.20259e-06
2.04533e-06
1.88949e-06
1.73672e-06
1.58831e-06
1.44549e-06
1.30888e-06
1.17939e-06
1.05746e-06
9.43262e-07
8.37084e-07
7.38861e-07
6.48428e-07
5.6569e-07
4.9023e-07
4.21621e-07
3.59633e-07
3.0401e-07
2.54689e-07
2.11324e-07
1.74047e-07
1.4359e-07
1.2073e-07
1.06565e-07
1.01049e-07
1.03125e-07
1.10277e-07
1.20527e-07
1.32545e-07
1.44651e-07
1.56637e-07
1.68799e-07
1.76155e-07
1.76155e-07
)
;
    }
    procBoundary3to6
    {
        type            processor;
        value           uniform 3.07055e-06;
    }
    procBoundary3to7
    {
        type            processor;
        value           nonuniform List<scalar> 
16
(
1.72974e-06
1.16944e-06
7.35233e-07
5.74092e-07
5.70067e-07
7.28054e-07
3.71076e-07
7.94932e-07
7.94932e-07
1.42907e-06
9.59442e-07
5.02213e-07
1.82071e-06
1.56318e-06
2.5757e-06
1.55734e-05
)
;
    }
}


// ************************************************************************* //
