/*--------------------------------*- C++ -*----------------------------------*\
| =========                 |                                                 |
| \\      /  F ield         | OpenFOAM: The Open Source CFD Toolbox           |
|  \\    /   O peration     | Version:  2506                                  |
|   \\  /    A nd           | Website:  www.openfoam.com                      |
|    \\/     M anipulation  |                                                 |
\*---------------------------------------------------------------------------*/
FoamFile
{
    version     2.0;
    format      ascii;
    arch        "LSB;label=32;scalar=64";
    class       volSymmTensorField;
    location    "100";
    object      turbulenceProperties:devReff;
}
// * * * * * * * * * * * * * * * * * * * * * * * * * * * * * * * * * * * * * //

dimensions      [0 2 -2 0 0 0 0];

internalField   nonuniform List<symmTensor> 
1340
(
(3.63977e-08 5.75648e-08 -1.09115e-19 -8.33698e-08 -1.45482e-20 4.69721e-08)
(-1.40385e-07 6.4478e-08 5.46982e-20 2.039e-07 6.7805e-21 -6.35156e-08)
(5.57652e-09 -1.17745e-08 -2.13973e-19 -2.10279e-08 -2.79084e-20 1.54514e-08)
(-6.82897e-08 1.68104e-08 -3.3399e-20 9.73409e-08 -4.09517e-21 -2.90512e-08)
(3.22496e-08 6.03651e-08 1.62411e-20 -7.97558e-08 1.93494e-21 4.75061e-08)
(-1.39112e-07 6.39669e-08 -2.21322e-19 2.03724e-07 -2.70583e-20 -6.4612e-08)
(-1.76245e-08 -1.78457e-08 -0 1.40002e-08 -8.18178e-23 3.62436e-09)
(-2.74648e-08 -2.33936e-08 -7.2566e-20 3.50492e-08 -9.14372e-21 -7.58436e-09)
(3.18539e-09 -1.03552e-08 2.04222e-19 -1.8701e-08 2.66904e-20 1.55156e-08)
(-6.85573e-08 1.65726e-08 1.02744e-19 9.79129e-08 1.29316e-20 -2.93556e-08)
(2.79034e-08 6.28039e-08 2.13869e-23 -7.62885e-08 1.37451e-22 4.8385e-08)
(-1.37038e-07 6.30279e-08 1.83005e-19 2.03258e-07 2.22837e-20 -6.62204e-08)
(-3.48318e-08 -2.75195e-09 -9.29527e-20 3.4598e-08 -1.18541e-20 2.33785e-10)
(-3.11074e-08 -5.55366e-09 2.16586e-21 3.01854e-08 4.21347e-22 9.22018e-10)
(-2.917e-08 -1.2108e-08 1.28055e-20 3.03554e-08 1.62723e-21 -1.18534e-09)
(-1.82858e-08 -1.93782e-08 -0 1.46482e-08 -1.57956e-23 3.63761e-09)
(-2.77152e-08 -2.49979e-08 -2.04176e-22 3.51779e-08 -3.66446e-23 -7.46277e-09)
(7.28658e-10 -8.97899e-09 9.00555e-22 -1.6285e-08 1.55324e-22 1.55564e-08)
(-6.87822e-08 1.66767e-08 5.48856e-22 9.84472e-08 1.02281e-22 -2.9665e-08)
(2.40386e-08 6.49407e-08 4.43138e-24 -7.32529e-08 3.96252e-24 4.92143e-08)
(-1.35245e-07 6.13194e-08 6.55106e-22 2.02976e-07 1.20741e-22 -6.77311e-08)
(-4.54682e-08 -3.31143e-09 6.6456e-21 4.58395e-08 9.86959e-22 -3.71245e-10)
(-4.27498e-08 -2.81212e-09 2.79657e-20 4.30839e-08 3.58498e-21 -3.34068e-10)
(-4.06254e-08 -2.4592e-09 2.83823e-20 4.08025e-08 3.31242e-21 -1.77117e-10)
(-3.86207e-08 -2.75529e-09 -9.87033e-20 3.87089e-08 -1.25736e-20 -8.8216e-11)
(-3.65723e-08 -3.05094e-09 2.56783e-20 3.64707e-08 3.41383e-21 1.01564e-10)
(-3.45489e-08 -4.20322e-09 -3.89681e-20 3.4461e-08 -5.03997e-21 8.78924e-11)
(-3.10355e-08 -7.21227e-09 1.48589e-22 3.0206e-08 2.14814e-22 8.29459e-10)
(-2.90992e-08 -1.4077e-08 9.3274e-20 3.02421e-08 1.19681e-20 -1.14288e-09)
(-1.88633e-08 -2.08704e-08 -0 1.52755e-08 -1.12979e-22 3.58777e-09)
(-2.79081e-08 -2.64246e-08 5.40304e-21 3.52308e-08 5.16235e-22 -7.32273e-09)
(-1.69547e-09 -7.69689e-09 -1.8612e-19 -1.38345e-08 -2.42827e-20 1.55299e-08)
(-6.91379e-08 1.69685e-08 -9.35766e-20 9.90111e-08 -1.17889e-20 -2.98732e-08)
(2.07119e-08 6.68851e-08 -6.09578e-21 -7.06263e-08 -6.92587e-22 4.99144e-08)
(-1.33918e-07 5.88691e-08 2.4032e-20 2.02959e-07 2.94548e-21 -6.90413e-08)
(-5.70821e-08 -7.25314e-09 5.46365e-20 5.6667e-08 6.51721e-21 4.15076e-10)
(-5.48811e-08 -6.1619e-09 -5.04398e-20 5.45802e-08 -6.50301e-21 3.0096e-10)
(-5.23439e-08 -5.66017e-09 -1.31487e-20 5.2207e-08 -1.71782e-21 1.36894e-10)
(-4.95971e-08 -5.42617e-09 -8.16062e-20 4.96512e-08 -1.02646e-20 -5.41187e-11)
(-4.67944e-08 -5.2688e-09 -1.871e-20 4.70222e-08 -2.14435e-21 -2.27808e-10)
(-4.40581e-08 -5.17992e-09 1.3183e-20 4.44809e-08 1.71727e-21 -4.22743e-10)
(-4.1576e-08 -4.47043e-09 6.67405e-21 4.20429e-08 8.13897e-22 -4.66854e-10)
(-3.96401e-08 -3.91147e-09 7.86698e-23 4.00072e-08 4.01097e-23 -3.67059e-10)
(-3.78001e-08 -4.06414e-09 1.67156e-20 3.81089e-08 2.02325e-21 -3.08831e-10)
(-3.59466e-08 -4.25461e-09 -4.52615e-20 3.60943e-08 -5.63998e-21 -1.47742e-10)
(-3.4126e-08 -5.46972e-09 8.58488e-20 3.42601e-08 1.09563e-20 -1.34148e-10)
(-3.08483e-08 -8.73646e-09 -5.559e-20 3.02161e-08 -7.39436e-21 6.32155e-10)
(-2.89029e-08 -1.59604e-08 -8.83712e-20 3.0063e-08 -1.12305e-20 -1.16008e-09)
(-1.93215e-08 -2.24068e-08 -0 1.58764e-08 1.15469e-22 3.44513e-09)
(-2.80395e-08 -2.76853e-08 -5.14069e-21 3.52231e-08 -4.81953e-22 -7.18368e-09)
(-4.06921e-09 -6.4291e-09 1.76888e-19 -1.13472e-08 2.30427e-20 1.54164e-08)
(-6.9584e-08 1.74282e-08 8.86749e-20 9.95553e-08 1.11416e-20 -2.99713e-08)
(1.77096e-08 6.86714e-08 5.80148e-21 -6.82679e-08 6.60351e-22 5.05583e-08)
(-1.32812e-07 5.57824e-08 -2.27049e-20 2.03096e-07 -2.77156e-21 -7.02843e-08)
(-5.6623e-08 -2.28932e-08 -5.92163e-21 5.66044e-08 -9.05688e-22 1.86016e-11)
(-5.72059e-08 -2.06958e-08 -3.19732e-20 5.72262e-08 -4.12957e-21 -2.02798e-11)
(-5.74368e-08 -1.84838e-08 -5.68618e-20 5.74759e-08 -6.81897e-21 -3.90784e-11)
(-5.73423e-08 -1.61674e-08 2.01995e-20 5.73135e-08 2.68272e-21 2.88037e-11)
(-5.69325e-08 -1.37759e-08 -5.23501e-21 5.67904e-08 -6.32183e-22 1.42136e-10)
(-5.62022e-08 -1.15329e-08 2.60371e-20 5.59746e-08 3.47314e-21 2.27591e-10)
(-5.51842e-08 -9.72078e-09 6.71326e-20 5.48746e-08 8.2769e-21 3.0958e-10)
(-5.3837e-08 -8.44831e-09 1.9679e-22 5.3435e-08 -5.4655e-23 4.02019e-10)
(-5.19793e-08 -7.75083e-09 3.98983e-20 5.16149e-08 4.97494e-21 3.64368e-10)
(-4.98322e-08 -7.51156e-09 -3.73189e-21 4.9564e-08 -5.57296e-22 2.68241e-10)
(-4.74289e-08 -7.40469e-09 3.68001e-21 4.7319e-08 5.45751e-22 1.09918e-10)
(-4.4959e-08 -7.198e-09 3.58886e-20 4.50695e-08 4.4739e-21 -1.10523e-10)
(-4.25493e-08 -6.98989e-09 -1.24699e-20 4.29513e-08 -1.66348e-21 -4.02035e-10)
(-4.03721e-08 -6.08287e-09 -6.26101e-21 4.09107e-08 -7.6069e-22 -5.38588e-10)
(-3.86567e-08 -5.31978e-09 1.1668e-22 3.91743e-08 4.07906e-23 -5.17545e-10)
(-3.70142e-08 -5.33865e-09 -6.79481e-23 3.7512e-08 -6.13942e-24 -4.97826e-10)
(-3.53395e-08 -5.4826e-09 -2.08826e-22 3.57137e-08 -1.24013e-22 -3.74272e-10)
(-3.36335e-08 -6.77696e-09 -4.68162e-20 3.40022e-08 -5.8764e-21 -3.68721e-10)
(-3.05752e-08 -1.02651e-08 5.2898e-20 3.02029e-08 6.83866e-21 3.72294e-10)
(-2.86167e-08 -1.78022e-08 -2.1113e-22 2.98566e-08 -1.18946e-22 -1.23985e-09)
(-1.97066e-08 -2.39385e-08 -0 1.64879e-08 7.39368e-24 3.21873e-09)
(-2.81284e-08 -2.87255e-08 4.88898e-21 3.51628e-08 4.45728e-22 -7.03439e-09)
(-6.40993e-09 -5.07287e-09 -1.80439e-19 -8.79835e-09 -2.33793e-20 1.52083e-08)
(-7.00665e-08 1.80949e-08 1.89308e-22 1.00058e-07 1.92507e-22 -2.99918e-08)
(1.4952e-08 7.02735e-08 -1.65326e-20 -6.61206e-08 -2.20146e-21 5.11686e-08)
(-1.31788e-07 5.20863e-08 -8.21408e-23 2.03279e-07 -6.43459e-24 -7.1491e-08)
(-1.96563e-08 -3.64854e-08 5.64706e-21 1.91485e-08 4.3177e-22 5.07725e-10)
(-2.37519e-08 -3.66596e-08 -3.56952e-20 2.33708e-08 -4.38411e-21 3.81131e-10)
(-2.7537e-08 -3.62782e-08 -7.02846e-22 2.72299e-08 3.40221e-22 3.07074e-10)
(-3.11268e-08 -3.5544e-08 3.24109e-20 3.08876e-08 3.73982e-21 2.3926e-10)
(-3.44644e-08 -3.44825e-08 -3.45611e-20 3.42694e-08 -4.37018e-21 1.94958e-10)
(-3.76095e-08 -3.30925e-08 6.19603e-21 3.74374e-08 9.73975e-22 1.72089e-10)
(-4.04859e-08 -3.14661e-08 2.44713e-21 4.03229e-08 2.32222e-22 1.62996e-10)
(-4.30829e-08 -2.97654e-08 -5.81649e-21 4.292e-08 -5.12978e-22 1.62973e-10)
(-4.53561e-08 -2.81058e-08 4.09825e-20 4.5193e-08 5.32969e-21 1.63068e-10)
(-4.72942e-08 -2.63267e-08 5.75306e-20 4.71773e-08 6.86781e-21 1.16839e-10)
(-4.89045e-08 -2.43931e-08 4.28195e-21 4.89164e-08 3.25575e-22 -1.19611e-11)
(-5.03801e-08 -2.2691e-08 1.51392e-20 5.05053e-08 1.76902e-21 -1.25179e-10)
(-5.15608e-08 -2.09938e-08 -1.63446e-20 5.16833e-08 -2.07421e-21 -1.22574e-10)
(-5.22022e-08 -1.92266e-08 -9.14741e-23 5.23762e-08 3.91367e-22 -1.74067e-10)
(-5.26381e-08 -1.7434e-08 8.60755e-20 5.28565e-08 1.06127e-20 -2.1842e-10)
(-5.28077e-08 -1.54683e-08 5.95135e-23 5.2981e-08 -4.8402e-22 -1.73261e-10)
(-5.26916e-08 -1.35015e-08 -4.88503e-20 5.27464e-08 -6.09143e-21 -5.4757e-11)
(-5.21881e-08 -1.16433e-08 -1.00706e-20 5.21413e-08 -1.23158e-21 4.67873e-11)
(-5.14406e-08 -1.00798e-08 -4.60725e-20 5.12842e-08 -5.72989e-21 1.56411e-10)
(-5.04619e-08 -9.17679e-09 -1.08333e-20 5.02172e-08 -1.21173e-21 2.44658e-10)
(-4.90111e-08 -8.91239e-09 1.98322e-22 4.87522e-08 -7.55019e-23 2.589e-10)
(-4.72568e-08 -8.96633e-09 -5.66504e-20 4.69924e-08 -7.09601e-21 2.64445e-10)
(-4.52667e-08 -9.10922e-09 -3.72464e-21 4.50653e-08 -3.61222e-22 2.01446e-10)
(-4.3166e-08 -9.08092e-09 -1.38362e-20 4.31346e-08 -1.7345e-21 3.14276e-11)
(-4.10457e-08 -8.89814e-09 -5.81107e-23 4.13306e-08 3.4629e-23 -2.84829e-10)
(-3.91905e-08 -7.81653e-09 5.95935e-21 3.96731e-08 6.2798e-22 -4.82665e-10)
(-3.77405e-08 -6.85503e-09 -4.82706e-20 3.82809e-08 -6.02653e-21 -5.40321e-10)
(-3.63243e-08 -6.72741e-09 4.38817e-20 3.69098e-08 5.76361e-21 -5.85451e-10)
(-3.48519e-08 -6.80977e-09 4.02865e-20 3.53811e-08 5.17228e-21 -5.29213e-10)
(-3.32486e-08 -8.16422e-09 7.33911e-20 3.37762e-08 9.1388e-21 -5.27632e-10)
(-3.03441e-08 -1.18563e-08 -8.53098e-20 3.01956e-08 -1.10213e-20 1.48574e-10)
(-2.83328e-08 -1.96101e-08 -8.65598e-23 2.9641e-08 1.12099e-22 -1.30812e-09)
(-2.00837e-08 -2.54091e-08 -0 1.71392e-08 -4.26314e-24 2.94442e-09)
(-2.82262e-08 -2.9497e-08 -4.62653e-21 3.50857e-08 -5.39241e-22 -6.85946e-09)
(-8.73636e-09 -3.59594e-09 4.64303e-20 -6.17406e-09 6.01077e-21 1.49104e-08)
(-7.05661e-08 1.89744e-08 1.96241e-20 1.00514e-07 2.46047e-21 -2.99476e-08)
(1.24515e-08 7.16941e-08 -1.9326e-20 -6.41402e-08 -2.59361e-21 5.16888e-08)
(-1.3094e-07 4.77602e-08 3.27166e-24 2.03558e-07 1.07955e-23 -7.26179e-08)
(-7.34357e-08 4.67586e-07 3.94375e-21 6.23849e-08 5.60457e-22 1.10507e-08)
(-5.85497e-08 5.14613e-07 3.80264e-21 4.61856e-08 4.11469e-22 1.23641e-08)
(-3.84108e-08 5.33381e-07 -2.1157e-22 1.90793e-08 -6.50854e-23 1.93315e-08)
(-3.97784e-08 5.34012e-07 8.90835e-22 3.44201e-08 1.28381e-22 5.35831e-09)
(-2.66895e-08 5.32578e-07 1.13201e-21 2.03714e-08 1.35052e-22 6.31806e-09)
(-1.80826e-08 5.25534e-07 5.01477e-22 1.46463e-08 4.79746e-23 3.43625e-09)
(-7.97169e-09 5.14498e-07 2.59162e-22 5.18619e-09 -2.61974e-23 2.7855e-09)
(1.34103e-09 4.99684e-07 -3.94159e-21 -3.47047e-09 -5.06418e-22 2.12944e-09)
(1.04137e-08 4.81575e-07 -1.55381e-21 -1.24794e-08 -9.71251e-23 2.06569e-09)
(1.87717e-08 4.60752e-07 3.5127e-21 -2.09335e-08 4.5173e-22 2.16178e-09)
(2.63892e-08 4.37779e-07 -0 -2.87884e-08 -4.93923e-23 2.39921e-09)
(3.31459e-08 4.13175e-07 -1.91641e-22 -3.58167e-08 6.43092e-23 2.67086e-09)
(3.89482e-08 3.87453e-07 7.11291e-21 -4.18124e-08 8.83514e-22 2.86427e-09)
(4.37698e-08 3.61092e-07 2.13688e-22 -4.67153e-08 3.17248e-23 2.94546e-09)
(4.76188e-08 3.34482e-07 7.29913e-21 -5.05008e-08 9.02872e-22 2.88198e-09)
(5.06269e-08 3.07993e-07 4.48201e-22 -5.34118e-08 -8.99027e-24 2.78496e-09)
(5.28141e-08 2.81869e-07 1.43228e-21 -5.54314e-08 2.2894e-22 2.61726e-09)
(5.42534e-08 2.56402e-07 5.26846e-21 -5.66796e-08 6.56154e-22 2.4262e-09)
(5.50515e-08 2.31776e-07 2.54231e-21 -5.73041e-08 3.31128e-22 2.25257e-09)
(5.52638e-08 2.08159e-07 6.83626e-21 -5.73914e-08 7.42108e-22 2.12765e-09)
(5.49509e-08 1.85685e-07 -6.05381e-21 -5.69906e-08 -9.09659e-22 2.03974e-09)
(5.41323e-08 1.64463e-07 -8.68561e-21 -5.61158e-08 -9.6524e-22 1.98349e-09)
(5.28509e-08 1.44521e-07 2.909e-21 -5.47759e-08 4.25674e-22 1.92498e-09)
(5.11278e-08 1.2593e-07 -2.07648e-21 -5.29902e-08 -3.46435e-22 1.86234e-09)
(4.90243e-08 1.08679e-07 -5.93358e-21 -5.08007e-08 -7.60596e-22 1.7764e-09)
(4.65451e-08 9.27697e-08 -5.06427e-21 -4.82021e-08 -4.60324e-22 1.65703e-09)
(4.37356e-08 7.81747e-08 1.00839e-20 -4.52101e-08 1.24856e-21 1.47458e-09)
(4.06303e-08 6.48711e-08 -3.41318e-21 -4.1887e-08 -4.99652e-22 1.25673e-09)
(3.7324e-08 5.27843e-08 1.27499e-21 -3.83521e-08 1.45554e-22 1.02806e-09)
(3.38291e-08 4.18256e-08 -4.41865e-21 -3.46297e-08 -4.85428e-22 8.00548e-10)
(3.01945e-08 3.19639e-08 6.98953e-21 -3.07557e-08 9.29947e-22 5.61262e-10)
(2.64465e-08 2.31041e-08 4.29138e-21 -2.67842e-08 5.04364e-22 3.37691e-10)
(2.26672e-08 1.51365e-08 5.00798e-21 -2.28273e-08 6.79615e-22 1.60065e-10)
(1.88497e-08 7.98283e-09 1.23195e-20 -1.88809e-08 1.38308e-21 3.12255e-11)
(1.50315e-08 1.67644e-09 -9.38117e-21 -1.49798e-08 -1.28722e-21 -5.1699e-11)
(1.12222e-08 -3.88846e-09 -5.19867e-21 -1.11495e-08 -5.58591e-22 -7.26863e-11)
(7.44254e-09 -8.73598e-09 4.32022e-22 -7.39816e-09 4.78122e-23 -4.43816e-11)
(3.67376e-09 -1.29938e-08 -6.03802e-21 -3.69659e-09 -7.55406e-22 2.28336e-11)
(-5.36904e-11 -1.67542e-08 -2.4064e-21 -7.17926e-11 -3.23603e-22 1.25483e-10)
(-3.73848e-09 -2.07147e-08 -9.57136e-21 3.51013e-09 -1.12299e-21 2.28348e-10)
(-7.16811e-09 -2.34851e-08 3.31142e-21 7.03803e-09 5.05114e-22 1.30081e-10)
(-1.04956e-08 -2.46607e-08 4.22838e-21 1.05022e-08 4.20768e-22 -6.6906e-12)
(-1.44703e-08 -2.68744e-08 -1.07428e-20 1.46095e-08 -1.28311e-21 -1.39198e-10)
(-1.82417e-08 -2.77942e-08 8.5063e-21 1.8216e-08 1.11592e-21 2.56646e-11)
(-2.1387e-08 -2.73325e-08 -1.25653e-22 2.1178e-08 -8.14833e-23 2.09021e-10)
(-2.46697e-08 -2.78125e-08 -1.22636e-24 2.45294e-08 -2.0331e-23 1.4026e-10)
(-2.77876e-08 -2.78143e-08 7.75228e-23 2.76679e-08 7.44781e-23 1.19711e-10)
(-3.07618e-08 -2.74417e-08 8.67717e-21 3.06645e-08 8.96597e-22 9.72825e-11)
(-3.35951e-08 -2.67038e-08 -2.96939e-20 3.35152e-08 -3.68016e-21 7.98933e-11)
(-3.62142e-08 -2.57555e-08 5.58846e-24 3.61423e-08 1.51938e-22 7.19324e-11)
(-3.86031e-08 -2.47201e-08 3.28988e-23 3.85276e-08 -5.52219e-23 7.55175e-11)
(-4.07218e-08 -2.3738e-08 -1.14824e-20 4.06309e-08 -1.40416e-21 9.092e-11)
(-4.25647e-08 -2.27845e-08 2.05822e-22 4.24674e-08 9.3216e-23 9.72231e-11)
(-4.39681e-08 -2.1495e-08 -1.34811e-21 4.39707e-08 -1.56114e-22 -2.60399e-12)
(-4.5312e-08 -1.98834e-08 2.15008e-23 4.53982e-08 -1.27548e-23 -8.61457e-11)
(-4.67119e-08 -1.87035e-08 -6.30168e-21 4.69022e-08 -7.75254e-22 -1.90331e-10)
(-4.75532e-08 -1.76492e-08 2.93e-23 4.794e-08 -1.19429e-22 -3.86784e-10)
(-4.81327e-08 -1.61312e-08 -3.69235e-20 4.85638e-08 -4.54888e-21 -4.31143e-10)
(-4.8527e-08 -1.44682e-08 2.79488e-24 4.89488e-08 2.84595e-22 -4.21859e-10)
(-4.8662e-08 -1.28739e-08 4.12733e-20 4.90002e-08 5.10797e-21 -3.38257e-10)
(-4.84304e-08 -1.14196e-08 -2.54957e-23 4.86318e-08 -6.86672e-24 -2.01413e-10)
(-4.79268e-08 -1.02625e-08 4.39494e-20 4.79803e-08 5.45501e-21 -5.35119e-11)
(-4.71576e-08 -9.748e-09 -2.63259e-21 4.71331e-08 -5.5997e-22 2.44995e-11)
(-4.61164e-08 -9.7888e-09 -3.64315e-20 4.60046e-08 -4.53493e-21 1.11721e-10)
(-4.47709e-08 -1.01458e-08 -2.76771e-22 4.45704e-08 5.37118e-23 2.0052e-10)
(-4.32147e-08 -1.05731e-08 -1.95347e-23 4.29791e-08 1.91732e-23 2.35581e-10)
(-4.15274e-08 -1.08004e-08 1.32859e-20 4.13719e-08 1.69029e-21 1.55491e-10)
(-3.97567e-08 -1.07562e-08 1.13783e-20 3.98229e-08 1.40166e-21 -6.62531e-11)
(-3.82007e-08 -9.60063e-09 6.05349e-23 3.84519e-08 -1.2593e-23 -2.51148e-10)
(-3.70189e-08 -8.49571e-09 -1.87309e-22 3.73855e-08 -2.94915e-23 -3.66652e-10)
(-3.58264e-08 -8.24781e-09 1.24532e-22 3.63123e-08 -6.19439e-23 -4.85899e-10)
(-3.45461e-08 -8.24054e-09 -3.82793e-20 3.50641e-08 -4.97259e-21 -5.17957e-10)
(-3.30251e-08 -9.62935e-09 -5.91342e-20 3.35754e-08 -7.31437e-21 -5.50374e-10)
(-3.02303e-08 -1.35284e-08 8.44534e-20 3.02201e-08 1.09207e-20 1.02409e-11)
(-2.812e-08 -2.14127e-08 4.05555e-20 2.94402e-08 5.05351e-21 -1.32022e-09)
(-2.0509e-08 -2.68395e-08 -0 1.78509e-08 -6.93121e-23 2.65812e-09)
(-2.83823e-08 -3.00038e-08 -1.33535e-20 3.50251e-08 -1.58887e-21 -6.64278e-09)
(-1.10628e-08 -1.98816e-09 1.19244e-19 -3.46176e-09 1.53497e-20 1.45246e-08)
(-7.10881e-08 2.00264e-08 -9.16412e-20 1.00899e-07 -1.18147e-20 -2.98112e-08)
(1.02415e-08 7.29948e-08 4.89844e-21 -6.23112e-08 7.47734e-22 5.20697e-08)
(-1.30359e-07 4.28051e-08 3.208e-24 2.03963e-07 -2.44743e-24 -7.36031e-08)
(-1.03741e-07 2.93249e-07 -2.70777e-22 9.84554e-08 -3.14149e-23 5.28596e-09)
(-8.58142e-08 3.18792e-07 4.70265e-22 7.29026e-08 5.63065e-23 1.29117e-08)
(-6.43609e-08 3.48436e-07 -5.59237e-22 4.03581e-08 -7.57173e-23 2.40028e-08)
(-6.53916e-08 3.61438e-07 -2.06379e-22 5.27805e-08 -1.99927e-23 1.2611e-08)
(-5.45917e-08 3.7322e-07 7.77522e-25 4.15512e-08 2.68166e-24 1.30405e-08)
(-4.78674e-08 3.8037e-07 2.11965e-25 3.83007e-08 -4.61911e-23 9.56673e-09)
(-3.99536e-08 3.83743e-07 -3.97923e-21 3.23921e-08 -4.69289e-22 7.56146e-09)
(-3.25186e-08 3.83279e-07 1.61039e-21 2.70622e-08 2.45592e-22 5.45636e-09)
(-2.49341e-08 3.79234e-07 1.56194e-22 2.09699e-08 -3.02014e-23 3.96423e-09)
(-1.74764e-08 3.71898e-07 -2.55293e-21 1.45883e-08 -3.16722e-22 2.88812e-09)
(-1.01325e-08 3.61666e-07 -0 7.83338e-09 -2.72065e-23 2.29916e-09)
(-3.02074e-09 3.48896e-07 -4.86116e-21 8.92065e-10 -6.24236e-22 2.12868e-09)
(3.66831e-09 3.34016e-07 -1.98602e-21 -5.88066e-09 -1.913e-22 2.21235e-09)
(9.7918e-09 3.17466e-07 1.5344e-25 -1.22236e-08 -3.13636e-23 2.43175e-09)
(1.52529e-08 2.9964e-07 -4.98739e-21 -1.79383e-08 -5.6316e-22 2.68539e-09)
(2.00326e-08 2.80925e-07 4.53699e-21 -2.29911e-08 6.62505e-22 2.9585e-09)
(2.40523e-08 2.6165e-07 4.89045e-21 -2.71976e-08 5.13385e-22 3.14531e-09)
(2.72915e-08 2.42171e-07 -3.72664e-21 -3.05126e-08 -5.37582e-22 3.2211e-09)
(2.9835e-08 2.2276e-07 -3.02669e-21 -3.30623e-08 -3.51637e-22 3.22729e-09)
(3.17167e-08 2.03641e-07 -1.5317e-21 -3.49063e-08 -1.62216e-22 3.18956e-09)
(3.29883e-08 1.8501e-07 -8.39076e-22 -3.60919e-08 -9.08303e-24 3.10365e-09)
(3.36892e-08 1.67024e-07 7.56777e-21 -3.66858e-08 9.32134e-22 2.9966e-09)
(3.38926e-08 1.49775e-07 3.33901e-24 -3.67679e-08 -3.9013e-23 2.87528e-09)
(3.36201e-08 1.33367e-07 3.28366e-21 -3.63722e-08 4.40187e-22 2.75212e-09)
(3.29397e-08 1.17859e-07 3.81782e-21 -3.55591e-08 4.39468e-22 2.6194e-09)
(3.18472e-08 1.03298e-07 4.86393e-22 -3.43176e-08 -1.00037e-23 2.47045e-09)
(3.03906e-08 8.97175e-08 -3.07011e-21 -3.26647e-08 -3.90704e-22 2.27411e-09)
(2.85921e-08 7.71341e-08 -1.62263e-21 -3.06502e-08 -1.69366e-22 2.05816e-09)
(2.65239e-08 6.55197e-08 1.61224e-24 -2.83326e-08 2.15296e-23 1.80878e-09)
(2.42065e-08 5.48427e-08 8.975e-22 -2.57696e-08 1.0651e-22 1.56312e-09)
(2.16947e-08 4.50811e-08 9.21455e-24 -2.29827e-08 4.01523e-23 1.28804e-09)
(1.89821e-08 3.61985e-08 6.09965e-21 -1.99829e-08 7.46388e-22 1.00082e-09)
(1.61887e-08 2.81193e-08 3.38556e-24 -1.69247e-08 -4.80134e-23 7.36006e-10)
(1.33059e-08 2.08013e-08 1.81759e-23 -1.3836e-08 9.31548e-23 5.30037e-10)
(1.03726e-08 1.42637e-08 1.05569e-20 -1.07128e-08 1.31519e-21 3.40221e-10)
(7.35467e-09 8.43496e-09 3.21351e-21 -7.53531e-09 2.67259e-22 1.80645e-10)
(4.33748e-09 3.29119e-09 -5.85049e-21 -4.39939e-09 -7.08096e-22 6.19031e-11)
(1.31454e-09 -1.299e-09 3.80431e-21 -1.34725e-09 5.03834e-22 3.27165e-11)
(-1.65545e-09 -5.5273e-09 -4.20054e-24 1.6139e-09 -5.9425e-23 4.15512e-11)
(-4.56167e-09 -1.00128e-08 -4.4897e-21 4.47991e-09 -5.77135e-22 8.17597e-11)
(-7.34078e-09 -1.4181e-08 -4.00275e-21 7.16454e-09 -4.36401e-22 1.76239e-10)
(-9.81108e-09 -1.57664e-08 3.6005e-21 9.68319e-09 5.0599e-22 1.2789e-10)
(-1.29459e-08 -1.55341e-08 5.82718e-21 1.27765e-08 7.00973e-22 1.69471e-10)
(-1.70617e-08 -1.72638e-08 3.05874e-21 1.68516e-08 4.90776e-22 2.10092e-10)
(-2.00299e-08 -1.95995e-08 2.4648e-20 2.01497e-08 2.99013e-21 -1.19812e-10)
(-2.26964e-08 -2.03662e-08 3.03766e-25 2.28159e-08 -1.52961e-22 -1.19585e-10)
(-2.53198e-08 -2.07903e-08 2.17555e-24 2.54363e-08 -3.71382e-23 -1.1647e-10)
(-2.78901e-08 -2.08902e-08 -8.50315e-21 2.80079e-08 -9.29457e-22 -1.17763e-10)
(-3.03598e-08 -2.06749e-08 1.86764e-20 3.04795e-08 2.31855e-21 -1.19688e-10)
(-3.26879e-08 -2.02847e-08 3.13311e-22 3.28039e-08 -1.7008e-22 -1.15961e-10)
(-3.4839e-08 -1.98236e-08 -2.25981e-20 3.49466e-08 -2.7705e-21 -1.07587e-10)
(-3.67893e-08 -1.944e-08 1.2179e-22 3.6883e-08 -6.85893e-24 -9.37018e-11)
(-3.84786e-08 -1.91777e-08 -2.62148e-20 3.85549e-08 -3.20687e-21 -7.63196e-11)
(-3.98243e-08 -1.84912e-08 1.28962e-21 3.98845e-08 3.10828e-22 -6.01889e-11)
(-4.10789e-08 -1.74211e-08 8.53776e-21 4.11573e-08 1.03103e-21 -7.83652e-11)
(-4.22244e-08 -1.67687e-08 -4.9881e-21 4.25116e-08 -7.01887e-22 -2.87131e-10)
(-4.32416e-08 -1.60157e-08 -1.4483e-20 4.36896e-08 -1.77289e-21 -4.47974e-10)
(-4.4016e-08 -1.47694e-08 -1.65243e-22 4.45379e-08 1.76559e-23 -5.21951e-10)
(-4.46354e-08 -1.33951e-08 2.58364e-24 4.52104e-08 -3.11156e-24 -5.75019e-10)
(-4.49996e-08 -1.21125e-08 1.72021e-22 4.55569e-08 3.23326e-23 -5.57232e-10)
(-4.50329e-08 -1.09907e-08 -1.71949e-23 4.54738e-08 -1.29748e-22 -4.40908e-10)
(-4.47849e-08 -1.02003e-08 -4.17854e-20 4.50631e-08 -5.15227e-21 -2.78164e-10)
(-4.42839e-08 -1.00285e-08 1.47955e-20 4.44255e-08 2.06418e-21 -1.41568e-10)
(-4.35633e-08 -1.03819e-08 3.46419e-20 4.35463e-08 4.42834e-21 1.69089e-11)
(-4.25728e-08 -1.10523e-08 5.14838e-20 4.24127e-08 6.36207e-21 1.60066e-10)
(-4.13922e-08 -1.1762e-08 -5.99793e-23 4.11259e-08 -2.11769e-22 2.66287e-10)
(-4.0072e-08 -1.22382e-08 -3.10087e-20 3.9793e-08 -3.92444e-21 2.79001e-10)
(-3.86311e-08 -1.23641e-08 -1.08078e-20 3.84588e-08 -1.3355e-21 1.72353e-10)
(-3.73603e-08 -1.12447e-08 -1.99903e-20 3.7317e-08 -2.4084e-21 4.33405e-11)
(-3.64198e-08 -1.00837e-08 3.11801e-20 3.65065e-08 3.97543e-21 -8.66902e-11)
(-3.54448e-08 -9.7826e-09 -9.7079e-21 3.56937e-08 -1.22797e-21 -2.4889e-10)
(-3.43488e-08 -9.73626e-09 3.73389e-20 3.47168e-08 4.95156e-21 -3.68001e-10)
(-3.29021e-08 -1.11911e-08 1.02225e-19 3.33584e-08 1.30092e-20 -4.56314e-10)
(-3.02054e-08 -1.53082e-08 4.64295e-20 3.02454e-08 5.75099e-21 -4.00057e-11)
(-2.79839e-08 -2.32434e-08 9.50555e-23 2.92467e-08 -5.36646e-23 -1.26287e-09)
(-2.10083e-08 -2.82454e-08 -0 1.86301e-08 2.0228e-23 2.37821e-09)
(-2.86307e-08 -3.02623e-08 1.26717e-20 3.49957e-08 1.62339e-21 -6.36493e-09)
(-1.34043e-08 -2.28781e-10 2.48587e-22 -6.31272e-10 1.21052e-22 1.40356e-08)
(-7.17438e-08 2.11786e-08 8.70781e-20 1.01298e-07 1.11465e-20 -2.95546e-08)
(8.38122e-09 7.42519e-08 4.93875e-20 -6.06096e-08 6.49662e-21 5.22284e-08)
(-1.30266e-07 3.72132e-08 3.19564e-24 2.04602e-07 -2.68809e-23 -7.43359e-08)
(-9.95443e-08 1.66308e-07 1.22068e-21 9.01152e-08 1.58976e-22 9.42908e-09)
(-8.96498e-08 1.7916e-07 1.31977e-21 7.61456e-08 1.51195e-22 1.35042e-08)
(-7.24347e-08 2.07848e-07 -6.82607e-23 4.82578e-08 -2.975e-23 2.41768e-08)
(-7.21409e-08 2.24523e-07 -1.0231e-21 5.46098e-08 -1.25178e-22 1.75312e-08)
(-6.32235e-08 2.41228e-07 1.21071e-22 4.41138e-08 2.86238e-23 1.91098e-08)
(-5.78372e-08 2.55005e-07 4.09236e-22 4.09344e-08 5.24742e-23 1.69027e-08)
(-5.20378e-08 2.66193e-07 -2.82768e-24 3.70728e-08 -3.55588e-24 1.4965e-08)
(-4.69607e-08 2.74513e-07 7.4963e-25 3.46892e-08 -1.64594e-24 1.22715e-08)
(-4.19273e-08 2.79942e-07 -2.53258e-25 3.23215e-08 9.63329e-25 9.60579e-09)
(-3.69105e-08 2.82459e-07 -2.53746e-24 2.98181e-08 -1.01964e-24 7.09239e-09)
(-3.17866e-08 2.82197e-07 -0 2.68415e-08 1.40214e-24 4.94514e-09)
(-2.6605e-08 2.7926e-07 -3.82358e-24 2.34136e-08 -2.6289e-24 3.19144e-09)
(-2.13252e-08 2.73871e-07 -1.77041e-25 1.93863e-08 -2.62248e-24 1.93899e-09)
(-1.60384e-08 2.66292e-07 6.76966e-25 1.48893e-08 1.47904e-23 1.14902e-09)
(-1.08841e-08 2.56807e-07 1.16199e-21 1.01615e-08 1.3095e-22 7.22645e-10)
(-5.97893e-09 2.45724e-07 -9.68192e-22 5.40609e-09 -1.34055e-22 5.7284e-10)
(-1.41778e-09 2.33363e-07 3.58267e-24 7.94891e-10 1.29029e-23 6.22893e-10)
(2.68889e-09 2.20058e-07 -4.64892e-24 -3.46187e-09 4.08167e-24 7.7298e-10)
(6.29988e-09 2.06114e-07 -3.85464e-24 -7.27807e-09 9.4737e-24 9.78196e-10)
(9.38161e-09 1.91778e-07 1.46257e-21 -1.05799e-08 1.88296e-22 1.19825e-09)
(1.19058e-08 1.77292e-07 7.93533e-22 -1.32912e-08 8.31406e-23 1.38544e-09)
(1.39063e-08 1.62853e-07 1.08262e-23 -1.54603e-08 -6.92745e-24 1.55393e-09)
(1.54016e-08 1.48622e-07 1.24771e-25 -1.70928e-08 2.45655e-24 1.69122e-09)
(1.64239e-08 1.34745e-07 4.37195e-24 -1.82299e-08 7.37622e-25 1.80601e-09)
(1.69845e-08 1.21333e-07 3.9594e-24 -1.88571e-08 -3.7252e-23 1.87261e-09)
(1.7124e-08 1.08482e-07 -4.66087e-21 -1.90324e-08 -5.68257e-22 1.90841e-09)
(1.68744e-08 9.62678e-08 5.89681e-22 -1.87782e-08 1.11363e-22 1.9038e-09)
(1.62596e-08 8.4739e-08 -1.39732e-24 -1.81194e-08 -4.77253e-24 1.8598e-09)
(1.53199e-08 7.39119e-08 -6.26528e-23 -1.70901e-08 -1.58e-23 1.77012e-09)
(1.40891e-08 6.37909e-08 -8.5881e-22 -1.57392e-08 -1.06889e-22 1.6501e-09)
(1.26079e-08 5.43814e-08 -3.48255e-25 -1.4099e-08 -5.15587e-25 1.49111e-09)
(1.09084e-08 4.56958e-08 7.01647e-24 -1.22215e-08 2.76757e-23 1.31305e-09)
(9.04059e-09 3.76984e-08 3.38399e-21 -1.01586e-08 4.15894e-22 1.11803e-09)
(7.00491e-09 3.03857e-08 -4.08822e-25 -7.9174e-09 -2.11789e-23 9.12484e-10)
(4.84873e-09 2.37748e-08 1.47715e-23 -5.55246e-09 -1.44981e-23 7.03726e-10)
(2.57982e-09 1.78389e-08 -3.06088e-21 -3.09021e-09 -3.32333e-22 5.10383e-10)
(2.44584e-10 1.2547e-08 5.56378e-21 -5.71443e-10 6.75897e-22 3.26859e-10)
(-2.09605e-09 7.72554e-09 -3.62687e-21 1.89471e-09 -4.80367e-22 2.01341e-10)
(-4.35515e-09 3.09682e-09 -9.70189e-27 4.23646e-09 5.01622e-23 1.18681e-10)
(-6.53844e-09 -1.80425e-09 4.25808e-21 6.48203e-09 5.42832e-22 5.64016e-11)
(-8.68889e-09 -6.37664e-09 3.80149e-21 8.60286e-09 4.34661e-22 8.60376e-11)
(-1.0912e-08 -7.84276e-09 1.04573e-23 1.06829e-08 -1.90627e-23 2.29092e-10)
(-1.34712e-08 -7.81464e-09 9.9517e-24 1.31326e-08 -1.78443e-23 3.38571e-10)
(-1.60191e-08 -1.03348e-08 -2.86524e-21 1.59819e-08 -4.18326e-22 3.71404e-11)
(-1.85806e-08 -1.29778e-08 -1.25523e-20 1.87177e-08 -1.51383e-21 -1.37051e-10)
(-2.09378e-08 -1.4001e-08 2.8941e-25 2.1064e-08 5.93967e-23 -1.26113e-10)
(-2.33094e-08 -1.47381e-08 2.06234e-24 2.34643e-08 1.05846e-23 -1.54927e-10)
(-2.56286e-08 -1.51996e-08 -3.05495e-23 2.58016e-08 -2.45605e-23 -1.72962e-10)
(-2.78465e-08 -1.54002e-08 -4.73888e-21 2.80162e-08 -5.87209e-22 -1.69649e-10)
(-2.99506e-08 -1.54579e-08 -2.97302e-22 3.01088e-08 -8.90549e-24 -1.58224e-10)
(-3.1904e-08 -1.54729e-08 -8.26971e-23 3.20429e-08 2.77835e-23 -1.38885e-10)
(-3.36834e-08 -1.55877e-08 1.03619e-20 3.38047e-08 1.25181e-21 -1.21218e-10)
(-3.52432e-08 -1.5838e-08 -3.89541e-21 3.53428e-08 -5.23399e-22 -9.95985e-11)
(-3.65739e-08 -1.56206e-08 -8.00699e-24 3.66063e-08 -2.12726e-23 -3.24061e-11)
(-3.77756e-08 -1.50473e-08 -8.10227e-21 3.77648e-08 -9.50852e-22 1.07994e-11)
(-3.88749e-08 -1.47953e-08 1.0366e-20 3.89663e-08 1.36348e-21 -9.13321e-11)
(-3.99487e-08 -1.4376e-08 1.37191e-20 4.01235e-08 1.77629e-21 -1.74747e-10)
(-4.08441e-08 -1.35061e-08 3.71165e-20 4.11156e-08 4.53609e-21 -2.71544e-10)
(-4.15987e-08 -1.24539e-08 -5.51321e-23 4.19796e-08 -2.39441e-22 -3.80885e-10)
(-4.21103e-08 -1.14544e-08 -3.3105e-20 4.25451e-08 -4.08018e-21 -4.34864e-10)
(-4.23327e-08 -1.05916e-08 8.79031e-21 4.27219e-08 1.19645e-21 -3.89203e-10)
(-4.22838e-08 -1.00711e-08 -1.81366e-22 4.25642e-08 -1.13315e-22 -2.80365e-10)
(-4.19813e-08 -1.01709e-08 -1.86759e-20 4.21347e-08 -2.45242e-21 -1.5341e-10)
(-4.14642e-08 -1.08084e-08 -4.80032e-20 4.14607e-08 -6.03937e-21 3.54754e-12)
(-4.07224e-08 -1.17678e-08 -4.4023e-20 4.05643e-08 -5.3297e-21 1.58115e-10)
(-3.98129e-08 -1.27226e-08 2.43191e-20 3.95055e-08 3.14722e-21 3.07366e-10)
(-3.87735e-08 -1.34321e-08 -1.92794e-21 3.83875e-08 -2.81863e-22 3.85988e-10)
(-3.7607e-08 -1.37466e-08 1.02829e-20 3.72347e-08 1.28649e-21 3.72305e-10)
(-3.65935e-08 -1.26977e-08 -2.87905e-21 3.62779e-08 -3.84881e-22 3.15577e-10)
(-3.58701e-08 -1.15519e-08 6.5559e-23 3.56539e-08 1.88122e-23 2.1614e-10)
(-3.51091e-08 -1.12846e-08 1.33796e-23 3.50617e-08 -8.53648e-23 4.73221e-11)
(-3.42009e-08 -1.1287e-08 -4.24588e-20 3.43289e-08 -5.46741e-21 -1.28001e-10)
(-3.28334e-08 -1.28713e-08 -4.03462e-20 3.30957e-08 -5.05143e-21 -2.62346e-10)
(-3.02453e-08 -1.72327e-08 1.24611e-22 3.02437e-08 8.49314e-23 1.57461e-12)
(-2.79242e-08 -2.51528e-08 8.45294e-24 2.90466e-08 3.42244e-24 -1.1224e-09)
(-2.15974e-08 -2.96527e-08 -0 1.94707e-08 -1.05608e-23 2.12672e-09)
(-2.89998e-08 -3.0329e-08 -1.23011e-20 3.49979e-08 -1.591e-21 -5.99803e-09)
(-1.57674e-08 1.72578e-09 9.37985e-23 2.33154e-09 -3.76822e-23 1.34359e-08)
(-7.25039e-08 2.22913e-08 -5.23255e-20 1.01593e-07 -6.7044e-21 -2.90886e-08)
(6.97761e-09 7.55977e-08 -4.69396e-20 -5.9132e-08 -6.18767e-21 5.21544e-08)
(-1.30564e-07 3.11124e-08 4.19345e-22 2.05443e-07 1.04397e-22 -7.48793e-08)
(-9.19161e-08 1.13008e-07 -1.16025e-21 9.06585e-08 -1.45705e-22 1.25758e-09)
(-9.05979e-08 1.13693e-07 2.11107e-24 8.93438e-08 1.27611e-23 1.25413e-09)
(-7.97406e-08 1.31279e-07 -2.73528e-25 6.99701e-08 1.22419e-23 9.77042e-09)
(-7.92963e-08 1.42137e-07 9.73678e-22 7.20767e-08 1.17532e-22 7.21956e-09)
(-7.12325e-08 1.54739e-07 -1.14605e-22 5.96005e-08 -2.73064e-23 1.1632e-08)
(-6.5501e-08 1.66563e-07 -3.89107e-22 5.23658e-08 -4.40219e-23 1.31352e-08)
(-5.94708e-08 1.77649e-07 -1.03256e-24 4.50242e-08 4.24832e-24 1.44465e-08)
(-5.42375e-08 1.87527e-07 -6.53403e-26 3.96712e-08 1.96127e-24 1.45663e-08)
(-4.94653e-08 1.9595e-07 3.92389e-22 3.55399e-08 6.97936e-23 1.39254e-08)
(-4.51616e-08 2.02675e-07 2.37109e-21 3.25474e-08 2.87432e-22 1.26142e-08)
(-4.1167e-08 2.07551e-07 -0 3.02826e-08 -7.32172e-24 1.08843e-08)
(-3.73751e-08 2.1048e-07 1.27885e-21 2.84407e-08 1.39435e-22 8.93442e-09)
(-3.36296e-08 2.11437e-07 -1.84603e-21 2.66236e-08 -2.52187e-22 7.00598e-09)
(-2.98558e-08 2.1046e-07 -1.48262e-21 2.46037e-08 -1.45282e-22 5.25219e-09)
(-2.60483e-08 2.07648e-07 2.3046e-21 2.22987e-08 3.01512e-22 3.74955e-09)
(-2.22297e-08 2.03137e-07 9.24636e-22 1.96931e-08 9.16647e-23 2.53655e-09)
(-1.84212e-08 1.97116e-07 3.89654e-25 1.67767e-08 2.29837e-23 1.64448e-09)
(-1.47142e-08 1.89787e-07 3.38283e-21 1.36919e-08 4.41944e-22 1.02222e-09)
(-1.11707e-08 1.81369e-07 2.73279e-21 1.05345e-08 2.93523e-22 6.36202e-10)
(-7.85977e-09 1.72061e-07 -1.39286e-21 7.42572e-09 -1.9738e-22 4.34052e-10)
(-4.85332e-09 1.62083e-07 -7.55449e-22 4.49963e-09 -1.36729e-22 3.53692e-10)