/*--------------------------------*- C++ -*----------------------------------*\
| =========                 |                                                 |
| \\      /  F ield         | OpenFOAM: The Open Source CFD Toolbox           |
|  \\    /   O peration     | Version:  2506                                  |
|   \\  /    A nd           | Website:  www.openfoam.com                      |
|    \\/     M anipulation  |                                                 |
\*---------------------------------------------------------------------------*/
FoamFile
{
    version     2.0;
    format      ascii;
    arch        "LSB;label=32;scalar=64";
    class       volScalarField;
    location    "150";
    object      div(phi);
}
// * * * * * * * * * * * * * * * * * * * * * * * * * * * * * * * * * * * * * //

dimensions      [0 0 -1 0 0 0 0];

internalField   nonuniform List<scalar> 
1340
(
0.00179091
-0.00155145
0.000654805
-0.000834637
0.000261993
9.20031e-05
4.22019e-05
0.000458174
0.000161211
0.00016639
0.000128353
9.67697e-05
5.94638e-05
4.64229e-05
3.08051e-05
4.3454e-05
4.54773e-05
8.4206e-05
9.28483e-05
0.000157109
0.00012524
0.000202705
-3.02642e-05
-5.31364e-05
-0.000138439
-7.11685e-05
7.53788e-07
-7.39963e-06
7.37292e-05
8.26562e-05
0.000673171
-0.000584191
-1.75175e-05
4.07747e-05
0.000205498
-0.00187634
0.00258771
-0.000184805
0.000981579
0.000306342
-0.00037629
-0.000896033
0.000551207
-0.000549538
0.000336093
-0.000515509
0.000247364
8.82674e-05
0.00054428
7.31029e-06
0.000213383
0.000141375
0.000120674
0.000106929
0.000101429
9.06089e-05
8.11514e-05
7.60199e-05
6.16857e-05
6.17357e-05
4.04436e-05
4.42431e-05
-7.91322e-06
-3.05569e-05
-0.000194164
-0.000253864
-0.0002765
-0.000122309
7.09857e-05
0.000266592
0.000339082
0.000387865
0.000812485
-0.000254829
0.000183717
0.000108702
0.000159752
0.000253748
0.000801489
0.000108803
0.000368597
-0.000164071
-0.000446281
-0.00187279
0.000819284
-0.00100931
0.000404748
9.92836e-05
0.000330652
9.69345e-05
0.00039402
7.52464e-05
7.62713e-05
6.32594e-05
4.92487e-05
4.74825e-05
3.74781e-05
4.95662e-05
5.12721e-05
7.11174e-05
8.15214e-05
0.000107616
0.000124395
0.000138807
0.000147675
9.75013e-05
6.65117e-05
2.77221e-05
1.93593e-05
-6.80515e-05
-3.67043e-05
-0.000108546
-7.22707e-05
0.000114034
-0.000297966
-7.77583e-05
-1.65623e-05
9.52888e-05
0.00139212
-0.000592546
0.000383387
-0.000343683
-0.000161509
0.000120248
0.000857018
-0.00073111
0.000202911
-4.20039e-05
-7.51912e-06
0.000412362
0.000325396
-0.000112548
8.01897e-05
4.41186e-05
3.92772e-05
5.94248e-05
6.32535e-05
8.06261e-05
8.76447e-05
9.35512e-05
0.000101437
9.5566e-05
9.74514e-05
7.84984e-05
6.5309e-05
1.44938e-05
-5.94161e-05
-0.000150874
-0.000171104
-0.000138468
-6.53822e-06
0.000164465
0.00025436
0.00034221
0.000546752
-5.95892e-05
0.00018628
0.000111288
0.000138719
-0.000477253
7.87991e-05
-0.000305423
-0.000325357
-3.05938e-05
0.000536929
2.62341e-05
-2.3633e-05
-0.000106951
0.000518027
-1.01388e-05
-5.59573e-05
0.000191607
-2.30487e-05
-4.11173e-06
1.23758e-05
2.16111e-05
2.6499e-05
3.77216e-05
3.74332e-05
5.37678e-05
5.50241e-05
7.52023e-05
8.04661e-05
0.000105728
0.000109937
0.000124691
0.000101621
8.30686e-05
5.44884e-05
2.04825e-06
-2.23706e-05
-7.53386e-05
-8.96839e-05
-0.000134014
-7.08781e-05
-0.000197198
-0.000102101
-4.86474e-05
8.26864e-05
-0.000309618
-8.47022e-05
-0.000517875
-4.2405e-05
-0.000205561
-9.8065e-05
0.000110159
0.000205605
0.000350579
-0.000119935
0.000296875
0.000131652
-0.000145985
3.53376e-06
-2.49476e-06
2.31233e-05
2.59886e-05
5.97901e-05
6.60104e-05
8.77417e-05
9.67352e-05
0.000108579
0.000117469
0.000113063
0.000114045
8.94174e-05
7.19367e-05
4.11153e-06
-4.42074e-05
-0.000113832
-0.000111754
-7.62343e-05
7.07397e-05
0.00016033
0.000283547
0.000382756
6.27381e-05
0.000195028
0.000133632
0.000157009
7.45059e-06
-0.000379473
-0.000265767
-0.000187353
-0.000307885
0.000430443
0.000136746
0.000119122
0.000427951
-6.61781e-05
-7.67019e-05
8.72291e-05
-2.73526e-05
9.97113e-06
1.52402e-05
3.25212e-05
3.63361e-05
3.82696e-05
4.32379e-05
3.89883e-05
4.94181e-05
4.71307e-05
6.26298e-05
6.50092e-05
8.13608e-05
7.89229e-05
8.54322e-05
6.77359e-05
5.68812e-05
1.51603e-05
-2.09764e-05
-3.72014e-05
-0.00010706
-0.000125248
-0.000175453
-0.000146901
-0.000110293
-7.08476e-05
6.15572e-05
1.20867e-05
-0.000427085
-3.16846e-05
-0.000122893
0.000492275
0.000141992
0.000367788
0.000172703
-2.15687e-05
0.000108594
2.47456e-05
-0.000103686
-1.01867e-06
2.60855e-05
4.00699e-05
6.27909e-05
5.8029e-05
8.80666e-05
8.72575e-05
0.000104669
0.000111398
0.000122121
0.000127279
0.000119874
0.000118016
9.06499e-05
6.91903e-05
1.11011e-05
-2.81503e-05
-8.34489e-05
-8.01789e-05
-2.44483e-05
5.84608e-05
0.000168003
0.000236974
0.000109111
0.000182925
0.000139599
0.000159217
-0.000269607
-1.87017e-06
-0.000220283
0.000494911
0.000147226
0.000353964
-8.59851e-05
0.00034714
-5.4631e-05
-0.000156496
-3.42836e-05
6.13494e-05
5.8454e-06
3.27787e-05
5.74689e-05
5.08443e-05
6.20661e-05
5.58146e-05
5.11459e-05
4.73304e-05
3.9564e-05
4.23334e-05
3.65032e-05
4.63592e-05
4.18447e-05
5.57283e-05
4.54635e-05
6.05687e-05
3.02241e-05
3.52009e-05
-1.97683e-05
-1.72943e-05
-8.32263e-05
-0.000119195
-0.00019127
-9.25404e-05
-0.000117472
-7.89751e-05
3.26709e-05
0.000114046
-0.000242882
0.000361216
0.000246624
0.000232879
-3.8729e-05
-7.63331e-05
7.12974e-05
-1.17952e-05
2.89093e-05
5.84354e-05
9.14772e-05
8.55372e-05
0.000107872
0.000105012
0.000114613
0.00012067
0.000123881
0.000124436
0.000116792
0.000109519
8.97748e-05
6.02251e-05
2.14937e-05
-3.08396e-05
-5.95565e-05
-6.56562e-05
-1.49645e-05
5.30323e-05
0.000133095
9.34012e-05
0.000143501
0.000134643
0.000149689
0.00024478
0.000253642
-0.000134567
8.14642e-05
9.58546e-05
6.71389e-05
6.16327e-05
7.42414e-05
6.44518e-05
5.65399e-05
4.50979e-05
3.53801e-05
3.10157e-05
2.16483e-05
2.90312e-05
1.69129e-05
3.73206e-05
1.47978e-05
4.15181e-05
-3.45556e-06
2.28776e-05
-3.93895e-05
-3.56573e-05
-0.000114627
-0.000152533
-0.000106904
-8.77825e-05
-8.82564e-05
1.27153e-05
0.000452224
-3.77411e-05
-1.55889e-05
0.000100624
8.25643e-05
0.000103075
9.82709e-05
0.000105265
0.000103135
0.000105733
0.000110678
0.00011197
0.000107704
0.000107096
9.48908e-05
8.1752e-05
5.19124e-05
1.3715e-05
-2.51635e-05
-5.75166e-05
-4.73555e-05
-1.20672e-05
5.73759e-05
5.46744e-05
8.95757e-05
0.000109847
0.000136679
0.000305421
0.000138137
3.19712e-05
6.50662e-05
6.56558e-05
7.17183e-05
5.45404e-05
4.29491e-05
3.03906e-05
1.92079e-05
1.48582e-05
4.36044e-06
1.17425e-05
6.1329e-07
1.6579e-05
-5.35427e-07
1.42226e-05
-8.58157e-06
-3.41715e-06
-4.13053e-05
-6.79601e-05
-0.000124466
-7.67505e-05
-0.000101229
-6.9053e-05
-9.69075e-06
3.54823e-05
7.32408e-05
8.66937e-05
7.91865e-05
8.39046e-05
7.89422e-05
7.63305e-05
7.85477e-05
8.51849e-05
8.88424e-05
9.39956e-05
8.98162e-05
9.41828e-05
7.86258e-05
7.30735e-05
3.60164e-05
1.7078e-05
-3.29809e-05
-2.86877e-05
-3.71304e-05
2.61485e-05
1.22484e-05
4.06612e-05
6.71684e-05
0.000114732
0.000276156
-4.66294e-05
4.46938e-05
6.09243e-05
4.68277e-05
3.82368e-05
2.4703e-05
1.84666e-05
1.07036e-05
2.46807e-06
-1.51973e-07
-5.10167e-06
-1.48223e-06
-6.2495e-06
7.20486e-07
-9.31279e-06
1.90815e-06
-1.55276e-05
-1.14546e-05
-5.1571e-05
-8.02697e-05
-7.57129e-05
-8.02858e-05
-7.85972e-05
-1.08109e-05
0.000250321
-1.86656e-05
4.84096e-05
4.2318e-05
3.8962e-05
4.53478e-05
4.77424e-05
5.8483e-05
7.03337e-05
7.26569e-05
8.06874e-05
7.62752e-05
8.09838e-05
6.76613e-05
6.0794e-05
3.58123e-05
1.12965e-05
-5.00799e-06
-1.37871e-05
9.75737e-06
-3.16308e-06
1.87729e-06
2.65438e-05
8.09997e-05
0.000118053
2.97655e-05
1.92671e-05
1.14207e-05
1.02117e-05
9.79014e-06
9.57787e-06
2.53279e-06
-7.93029e-07
-5.71155e-06
-4.73943e-06
-8.11982e-06
-4.37719e-06
-1.14131e-05
-1.85177e-06
-1.33103e-05
-1.168e-06
-3.30886e-05
-4.46631e-05
-6.5846e-05
-6.86723e-05
-6.93945e-05
-2.18534e-05
4.54016e-05
-9.81388e-06
1.27422e-05
1.69682e-05
2.0963e-05
3.69644e-05
4.37203e-05
5.66068e-05
6.3588e-05
6.50699e-05
6.91577e-05
6.76306e-05
6.82443e-05
6.28114e-05
5.3932e-05
3.75461e-05
2.48686e-05
1.41265e-05
1.40134e-05
-2.35306e-06
-1.49899e-05
-5.10927e-08
4.48088e-05
3.21981e-05
8.97797e-06
4.72256e-06
1.42469e-05
1.74073e-05
1.73809e-05
1.28715e-05
3.95682e-06
2.71203e-06
-4.79539e-06
2.0182e-08
-8.25236e-06
-2.06498e-06
-1.13664e-05
-6.59198e-07
-1.02353e-05
-6.8375e-06
-3.89617e-05
-3.73229e-05
-6.26415e-05
-5.48845e-05
-2.36875e-05
1.41176e-05
-1.7612e-05
9.87615e-06
2.7442e-05
3.13116e-05
4.38075e-05
4.86764e-05
5.5247e-05
5.54104e-05
5.73174e-05
5.74441e-05
5.89908e-05
5.97846e-05
5.65889e-05
5.14866e-05
4.06801e-05
3.54478e-05
1.97401e-05
9.77048e-06
-1.69059e-05
-6.27255e-06
1.50245e-05
1.76091e-05
2.18927e-05
1.80244e-05
2.53448e-05
2.32619e-05
2.00279e-05
1.29507e-05
5.37394e-06
4.27269e-06
-5.86111e-07
1.45444e-06
-5.49491e-06
-3.13758e-06
-7.41136e-06
-3.13385e-06
-1.07357e-05
-2.14197e-05
-3.13731e-05
-4.11809e-05
-4.34853e-05
-2.06228e-05
1.83772e-05
-3.07757e-05
-1.32207e-05
2.93505e-05
3.60223e-05
4.14061e-05
4.44464e-05
4.46589e-05
4.41407e-05
4.50305e-05
4.59681e-05
4.92394e-05
5.02976e-05
4.99393e-05
4.46079e-05
4.11548e-05
2.52857e-05
1.89941e-05
-8.34648e-06
-1.49774e-08
-1.13489e-07
2.17923e-05
7.21519e-05
1.83707e-05
2.51695e-05
2.11213e-05
1.35215e-05
8.84433e-06
4.28544e-06
4.27582e-06
1.24562e-06
-3.5471e-07
-5.29236e-06
-4.22443e-06
-8.93383e-06
-6.64277e-06
-2.15561e-05
-1.75341e-05
-3.40596e-05
-2.36631e-05
-1.97825e-05
9.21549e-06
1.44601e-05
6.57723e-05
4.00711e-05
3.04574e-05
3.16133e-05
3.0929e-05
3.15617e-05
3.05413e-05
3.25771e-05
3.43922e-05
3.93557e-05
3.89317e-05
4.05264e-05
3.58772e-05
2.84984e-05
2.19049e-05
3.91069e-06
8.46424e-06
-3.82369e-07
9.7825e-05
6.96288e-05
3.96482e-05
2.41875e-05
1.71877e-05
1.07024e-05
6.43502e-06
4.24972e-06
3.46377e-06
2.77095e-06
-4.49158e-07
-2.93167e-06
-6.08457e-06
-7.31847e-06
-9.88423e-06
-1.5344e-05
-1.50053e-05
-2.27706e-05
-1.43936e-05
-1.21636e-05
0.000107762
3.06221e-05
1.98076e-05
1.70172e-05
1.7733e-05
1.93254e-05
1.89303e-05
1.93273e-05
1.8671e-05
2.26467e-05
2.50323e-05
2.86929e-05
2.96853e-05
2.96134e-05
2.58943e-05
2.25055e-05
1.29155e-05
1.45631e-05
1.19536e-05
-2.94845e-05
1.02569e-05
1.02222e-05
6.7952e-06
4.60836e-06
2.53856e-06
2.08711e-06
1.97133e-06
2.54885e-06
1.55236e-07
-1.69318e-06
-4.88061e-06
-6.01817e-06
-9.08436e-06
-1.08625e-05
-1.2442e-05
-1.47241e-05
-8.39211e-06
-9.00167e-06
7.12168e-05
-3.46419e-05
-2.15211e-05
1.12938e-06
6.87506e-06
9.57444e-06
1.06531e-05
9.86228e-06
1.02375e-05
1.19786e-05
1.53742e-05
1.78476e-05
2.09526e-05
2.14933e-05
2.21812e-05
1.97875e-05
1.82183e-05
1.49161e-05
2.56963e-05
2.3041e-05
2.69714e-05
-3.65755e-06
1.21171e-06
1.26478e-06
3.42261e-07
1.61295e-06
1.53412e-06
1.55773e-06
-1.07416e-06
-1.97054e-06
-4.61063e-06
-5.51355e-06
-8.07585e-06
-8.15994e-06
-1.05327e-05
-3.30442e-06
8.82891e-06
-6.4309e-06
-9.21964e-06
2.45849e-05
1.03841e-05
7.55217e-06
6.7639e-06
5.41046e-06
4.87727e-06
5.83515e-06
8.09153e-06
1.05083e-05
1.30579e-05
1.49834e-05
1.6566e-05
1.63441e-05
1.83503e-05
2.06303e-05
1.56779e-06
4.79609e-05
3.03324e-05
1.20746e-05
7.59623e-06
3.57509e-06
2.07831e-06
1.32713e-06
2.28435e-06
1.34712e-06
7.93263e-07
-1.0552e-06
-1.74073e-06
-3.75049e-06
-4.25801e-06
-5.7503e-06
-4.77499e-06
-1.04942e-05
1.9091e-05
5.40333e-05
1.11694e-05
8.05498e-06
7.80641e-06
5.5822e-06
4.1328e-06
2.24221e-06
2.60489e-06
3.34907e-06
5.42096e-06
7.0459e-06
9.45564e-06
1.08914e-05
1.24694e-05
1.39243e-05
2.20964e-05
-2.52184e-05
-3.30688e-05
4.97001e-06
9.02164e-06
6.6314e-06
3.83747e-06
2.23816e-06
1.99585e-06
1.55826e-06
6.36215e-07
7.27693e-08
-8.86955e-07
-1.65747e-06
-2.64187e-06
-2.87923e-06
-1.6614e-06
-1.51852e-05
3.79657e-05
3.84712e-05
-7.50067e-06
6.30521e-06
7.83628e-06
6.10326e-06
3.28379e-06
1.38927e-06
1.06775e-07
1.13054e-06
1.74808e-06
3.37152e-06
4.9059e-06
6.45314e-06
8.56325e-06
9.43241e-06
2.26784e-05
2.36543e-05
9.38128e-06
7.37373e-06
3.54188e-06
1.84387e-06
9.47184e-07
1.0226e-06
6.61492e-07
5.30689e-07
4.40097e-08
-5.32399e-07
-1.12582e-06
-8.83103e-07
5.88382e-07
-1.06651e-05
-5.00581e-06
-1.52301e-06
4.83789e-06
3.72399e-06
1.96447e-06
-1.57619e-07
9.10086e-08
-2.57971e-08
8.93953e-07
1.40154e-06
2.30448e-06
3.56705e-06
5.51298e-06
5.74125e-06
1.9082e-05
1.57205e-05
1.49049e-05
2.56099e-06
2.13743e-06
1.95804e-07
1.22997e-06
1.10827e-06
1.9313e-06
1.49239e-06
1.15239e-06
5.00891e-07
6.55277e-08
4.86012e-07
2.44197e-06
-1.07848e-05
-1.42263e-06
-4.94703e-06
1.08462e-05
4.87824e-06
2.19745e-06
1.51314e-06
1.17309e-06
1.7076e-06
1.1484e-06
1.1608e-06
9.55892e-07
2.16203e-06
3.29292e-06
2.01623e-06
1.73934e-05
1.54158e-05
2.57626e-05
5.6889e-06
3.07511e-06
2.74772e-06
2.16649e-06
3.78715e-06
2.83416e-06
2.64557e-06
1.43117e-06
1.04271e-06
6.73788e-07
6.62516e-07
3.86769e-06
-1.12795e-05
8.40799e-06
1.16602e-05
6.29855e-06
4.28337e-06
3.8048e-06
3.18886e-06
2.38536e-06
1.41919e-06
4.24747e-07
2.97208e-07
8.22389e-07
1.89192e-06
-1.85476e-06
1.71722e-05
1.95072e-05
5.85046e-06
4.39702e-06
2.95186e-06
4.13279e-06
3.16198e-06
2.78988e-06
1.31342e-06
8.07791e-07
4.90339e-07
8.75448e-07
-5.79014e-07
6.22364e-06
-5.57893e-06
1.50205e-05
3.22661e-06
2.63945e-06
4.55208e-06
2.33818e-06
6.78747e-07
7.53169e-07
-5.46493e-09
-4.70423e-07
-2.44336e-07
-5.18271e-07
1.87165e-06
3.28949e-06
8.85443e-06
-1.66916e-05
-1.50325e-06
2.50538e-06
-7.53952e-07
-2.29871e-06
1.0545e-07
-1.67094e-06
-5.93719e-07
-3.66646e-07
-1.96323e-07
8.06176e-07
2.94661e-06
-1.65877e-06
-1.30717e-06
4.67601e-06
-5.2299e-06
-2.88131e-06
-1.66008e-06
-1.23504e-06
-4.4441e-06
-2.1392e-06
-1.36566e-06
-1.0032e-06
-4.49234e-07
1.82426e-07
-3.08753e-06
4.37438e-06
-2.56045e-06
1.18093e-06
-1.44041e-06
-2.74243e-06
-4.93892e-06
-3.51535e-06
-1.95764e-06
-2.24249e-06
-8.35912e-07
-4.51283e-07
-5.63329e-07
3.44676e-06
-7.37545e-06
2.92847e-06
-8.70489e-06
-2.89667e-06
-3.41243e-06
-2.80855e-06
-1.33602e-06
-3.45906e-06
-1.16477e-06
-1.52314e-06
-3.98489e-07
4.11124e-07
-4.44528e-06
5.51433e-06
-7.01555e-08
-2.93273e-06
-1.97343e-06
-8.44918e-07
-3.1349e-06
-1.32928e-06
-3.05417e-06
-1.303e-06
-1.41372e-06
-1.04529e-06
3.02993e-06
-3.76551e-06
-8.62188e-06
-2.33778e-06
-3.85035e-07
-1.14311e-06
-6.64452e-07
-2.55491e-06
-1.42716e-06
-2.72963e-06
-7.8232e-07
-1.70934e-07
-3.33374e-06
3.73942e-06
1.46841e-06
-6.94588e-07
-8.27375e-07
-3.13129e-07
-9.01158e-07
-6.99636e-07
-2.74553e-06
-9.00634e-07
-2.67109e-06
-9.50615e-07
2.43956e-06
-2.34627e-06
5.42682e-07
-4.3441e-07
-5.51803e-07
1.2306e-07
-1.35222e-06
6.66442e-08
-2.52564e-06
9.26296e-07
-4.30074e-07
-1.85656e-06
2.2374e-06
-3.63287e-06
-1.55572e-06
-1.3099e-07
-4.85087e-07
5.94728e-07
-9.38951e-07
1.49237e-06
-1.75896e-06
1.57493e-07
9.93545e-07
-1.44254e-06
1.85417e-07
-4.09808e-07
-1.95265e-07
2.14954e-07
9.83831e-08
9.49494e-07
-1.09945e-06
1.17584e-06
-6.64727e-07
-2.31972e-06
-9.86323e-08
-3.13929e-06
-5.09389e-07
-2.89447e-07
6.10277e-08
2.74881e-07
-2.16368e-07
7.42948e-07
-7.12503e-07
-1.30707e-06
5.8485e-07
-9.90601e-07
1.14233e-06
-2.39047e-07
-5.6342e-08
-5.09028e-08
1.01487e-07
2.28234e-07
-3.0644e-09
-3.99558e-08
8.1017e-07
-1.31235e-06
9.07984e-07
-2.38877e-06
-2.40028e-08
-1.79087e-07
-5.87149e-08
9.04793e-08
-6.78537e-08
3.39551e-07
1.9298e-07
-2.7148e-07
1.22617e-06
2.81445e-06
-9.73707e-07
-5.31003e-07
-9.14065e-08
-3.02869e-07
2.6351e-07
-3.17309e-07
7.38532e-07
-1.6415e-07
3.20625e-07
1.77429e-06
-2.14112e-07
-1.65387e-07
3.61606e-09
-1.39198e-07
5.36835e-07
-5.26844e-07
8.99913e-07
-5.94656e-07
-1.16865e-06
-2.37336e-07
-1.57188e-07
2.24265e-08
1.88092e-07
-3.6809e-07
9.25905e-07
-4.74355e-07
1.07095e-06
8.92053e-07
-4.37945e-08
6.46249e-08
1.68932e-07
-2.81892e-09
5.75417e-07
-4.45206e-07
6.48703e-07
-4.80728e-07
-9.96678e-07
-2.98896e-08
-1.15065e-08
6.44451e-08
2.6168e-07
-3.67658e-07
1.15847e-07
-3.64923e-07
3.3059e-07
7.58818e-07
-1.14173e-08
9.56124e-08
1.81212e-07
-7.95808e-08
-8.37577e-08
-7.08204e-08
-1.39923e-07
3.52913e-07
-6.8751e-07
3.5709e-08
3.50686e-08
2.86477e-08
5.71765e-08
4.01444e-08
-1.06358e-07
2.78307e-07
5.62035e-07
-1.18818e-07
4.5106e-08
5.52662e-09
-3.53273e-08
-1.35869e-07
2.68374e-07
5.74671e-08
-9.352e-07
2.25139e-07
-3.02429e-08
-1.24749e-08
-2.02711e-07
5.36904e-07
-2.13979e-07
6.96613e-07
-5.7356e-07
3.9219e-08
-1.52225e-07
4.63731e-07
-4.88801e-07
6.34104e-07
-5.35908e-07
6.98388e-07
4.15948e-08
1.75917e-07
-4.91044e-07
4.82218e-07
-6.35254e-07
5.1405e-07
-2.58326e-07
1.72851e-07
-5.17451e-08
4.58101e-07
-2.97054e-07
3.49944e-07
-5.57266e-07
7.41872e-07
1.92122e-07
2.14933e-07
-1.05693e-08
2.72117e-08
-3.21682e-07
-1.66869e-08
6.31417e-08
1.3574e-07
7.88093e-08
6.63464e-08
5.31702e-08
-3.65147e-08
6.25637e-07
1.66172e-07
2.01013e-07
1.78234e-07
2.46494e-08
2.57879e-07
4.04522e-07
2.44376e-07
1.7782e-07
1.32489e-07
2.10144e-07
1.12422e-07
3.65006e-07
3.24778e-07
1.85455e-07
2.23116e-07
7.56673e-08
2.67499e-07
1.24078e-06
1.14067e-07
4.11511e-07
-1.56552e-08
1.87739e-07
1.12047e-07
-6.76481e-07
1.05903e-06
-2.60166e-08
3.72585e-07
-5.38924e-08
4.42149e-07
2.02452e-07
4.5713e-07
2.53758e-07
2.071e-07
1.72557e-07
1.25431e-06
7.08654e-07
2.65736e-07
4.50757e-07
-1.35642e-07
4.78973e-07
6.33577e-07
8.61578e-07
-1.19952e-07
7.00562e-07
2.14599e-06
1.13999e-06
8.15661e-07
1.15898e-06
1.88418e-06
2.63576e-06
1.61229e-06
2.59875e-06
5.42073e-06
2.60271e-06
1.6864e-06
2.81862e-06
)
;

boundaryField
{
    inlet
    {
        type            extrapolatedCalculated;
        value           nonuniform List<scalar> 4(5.42073e-06 2.60271e-06 1.6864e-06 2.81862e-06);
    }
    outlet
    {
        type            extrapolatedCalculated;
        value           nonuniform List<scalar> 0();
    }
    walls
    {
        type            extrapolatedCalculated;
        value           nonuniform List<scalar> 
42
(
0.00179091
-0.00155145
0.000654805
-0.000834637
0.000261993
9.20031e-05
4.22019e-05
0.000458174
0.000161211
0.00016639
0.000128353
9.67697e-05
5.94638e-05
4.64229e-05
3.08051e-05
4.3454e-05
4.54773e-05
8.4206e-05
9.28483e-05
0.000157109
0.00012524
0.000202705
-3.02642e-05
-5.31364e-05
-0.000138439
-7.11685e-05
7.53788e-07
-7.39963e-06
7.37292e-05
8.26562e-05
0.000673171
-0.000584191
-1.75175e-05
4.07747e-05
0.000205498
-0.00187634
0.00258771
-0.000184805
0.000981579
0.000306342
-0.00037629
-0.000896033
)
;
    }
    frontAndBack
    {
        type            empty;
    }
    procBoundary5to0
    {
        type            processor;
        value           nonuniform List<scalar> 4(0.000378215 -6.44155e-05 0.000145372 -0.000133609);
    }
    procBoundary5to1
    {
        type            processor;
        value           nonuniform List<scalar> 
13
(
-0.000510033
2.25471e-05
2.25471e-05
-0.00018153
-0.000224698
-0.000224698
0.000124622
-5.38616e-05
-5.38616e-05
0.000224852
-3.87642e-07
-0.000181944
-0.000181944
)
;
    }
    procBoundary5to4
    {
        type            processor;
        value           nonuniform List<scalar> 
95
(
0.000266763
0.000689599
-0.000173246
-0.000173246
9.67853e-05
-0.000199521
-0.000199521
0.000134355
-0.000141296
-0.000141296
-0.00015909
-0.00015909
4.95262e-05
4.95262e-05
4.74626e-06
-0.000148213
-0.000148213
-8.60481e-05
-8.60481e-05
4.18632e-05
5.93127e-06
5.93127e-06
1.72388e-06
-1.94654e-05
-1.94654e-05
4.52804e-06
-4.64449e-05
-4.64449e-05
4.90996e-05
-2.24214e-05
9.5998e-06
9.5998e-06
8.77107e-05
-5.2344e-05
-6.88359e-05
-6.88359e-05
3.58562e-05
-2.38511e-05
-1.34995e-05
-1.34995e-05
4.64149e-05
-4.02328e-05
-2.91638e-05
-2.91638e-05
1.42554e-05
-1.45176e-05
2.34934e-05
-9.30436e-06
2.0181e-05
2.0181e-05
7.31391e-06
-3.57149e-06
1.15482e-05
-1.89977e-05
-1.80043e-05
-1.80043e-05
4.84714e-07
-8.56804e-06
2.73104e-06
-5.80429e-06
-5.01583e-06
-5.01583e-06
5.75795e-07
-3.78814e-06
1.49441e-06
-2.68766e-06
2.56188e-06
-2.32152e-06
-2.7858e-06
-2.7858e-06
1.4091e-06
-1.45992e-06
1.22556e-06
-1.12467e-06
8.98845e-07
-9.82036e-07
6.31259e-07
8.86553e-07
8.86553e-07
-4.32774e-07
8.88174e-07
-2.8725e-07
6.82372e-07
-7.51674e-08
4.58614e-07
4.74893e-07
-1.232e-07
1.39019e-06
1.76184e-06
1.76184e-06
2.47761e-07
1.75637e-06
-1.01989e-07
3.83571e-06
2.66708e-06
)
;
    }
    procBoundary5to6
    {
        type            processor;
        value           nonuniform List<scalar> 
86
(
0.00016417
0.000194789
4.90378e-05
0.000153709
2.22376e-05
0.000148263
-9.96253e-06
0.000129713
-3.81987e-05
0.000105153
-5.55641e-05
8.27619e-05
-6.44303e-05
6.49162e-05
-6.49139e-05
4.81778e-05
-5.99668e-05
3.06036e-05
-5.32755e-05
1.7361e-05
-4.71211e-05
7.99585e-06
-3.29428e-05
4.46842e-06
-2.65015e-05
5.35804e-06
-1.48113e-05
6.76737e-06
-7.68628e-06
1.5323e-05
-1.11869e-05
1.62375e-05
-8.53974e-06
-3.20758e-05
-3.20758e-05
2.65081e-05
-1.51131e-05
2.25834e-05
-1.52846e-05
2.08264e-05
-1.48624e-05
1.84482e-05
-7.47111e-06
6.8909e-06
-5.71175e-06
3.68133e-06
-5.69411e-06
-5.69411e-06
1.64608e-06
-6.95898e-07
1.4482e-06
5.33589e-07
-4.86324e-07
3.14838e-08
-9.99952e-07
1.67768e-07
-9.8319e-07
-9.8319e-07
-5.31742e-07
6.57008e-07
-2.66341e-07
8.4742e-07
6.37562e-08
6.64405e-08
1.40122e-07
1.40122e-07
3.79983e-07
2.7648e-08
5.72394e-07
-6.34881e-07
1.72868e-07
-4.14561e-07
-1.69068e-07
-1.69068e-07
1.91837e-07
3.68092e-07
3.23281e-07
3.87214e-07
1.83325e-07
3.95275e-07
5.69749e-07
9.16901e-08
1.38423e-06
1.38423e-06
3.50039e-06
4.47669e-06
)
;
    }
}


// ************************************************************************* //
