/*--------------------------------*- C++ -*----------------------------------*\
| =========                 |                                                 |
| \\      /  F ield         | OpenFOAM: The Open Source CFD Toolbox           |
|  \\    /   O peration     | Version:  2506                                  |
|   \\  /    A nd           | Website:  www.openfoam.com                      |
|    \\/     M anipulation  |                                                 |
\*---------------------------------------------------------------------------*/
FoamFile
{
    version     2.0;
    format      ascii;
    arch        "LSB;label=32;scalar=64";
    class       volScalarField;
    location    "150";
    object      magR;
}
// * * * * * * * * * * * * * * * * * * * * * * * * * * * * * * * * * * * * * //

dimensions      [0 2 -2 0 0 0 0];

internalField   nonuniform List<scalar> 
1340
(
0.0215429
0.0251772
0.0298375
0.0361589
0.0436704
0.0532478
0.0655112
0.0807259
0.100035
0.12467
0.156252
0.198282
0.254538
0.33174
0.44089
0.601278
0.842241
1.22854
1.84315
2.97532
4.85494
9.18734
17.2088
40.7579
55.4419
56.7066
55.1913
54.665
54.6808
54.1945
52.7852
50.5157
47.5057
43.8216
39.3843
0.018308
0.0156757
0.0127374
0.010217
0.00784917
0.00573235
0.00410051
0.00351636
0.00350029
0.00346186
0.00336505
0.00321486
0.00304008
0.00283261
0.00259858
0.00236576
0.00213475
0.00191958
0.00173087
0.00164574
0.00173155
0.00211179
0.00314114
0.00567516
0.0117363
0.026134
0.0663069
0.167984
0.513242
1.34011
4.3455
9.49735
15.1959
20.762
25.3762
27.7386
27.0585
23.9929
20.1577
16.7497
14.0697
12.0348
0.00348209
0.0034303
0.00333237
0.00318867
0.00298973
0.00272533
0.00236867
0.00234545
0.00228844
0.00220312
0.00211355
0.00201463
0.00191383
0.00182259
0.00174363
0.00168103
0.00163375
0.00159846
0.00158456
0.00158552
0.00160574
0.00158133
0.00140577
0.0011926
0.000686294
0.00636348
0.0124259
0.0100655
0.0280073
0.0011016
0.0656312
0.247144
0.703431
1.80243
4.07781
7.71171
11.9921
15.3428
16.5457
15.8018
14.1366
0.00238932
0.00238817
0.00238257
0.00234195
0.00226469
0.00212953
0.0019842
0.00198833
0.0019783
0.00196117
0.00192718
0.00187663
0.00181364
0.00173532
0.0016459
0.00154703
0.00144146
0.00133199
0.00121885
0.00110222
0.000984957
0.000861561
0.000734098
0.0006215
0.000494643
0.000342888
3.55194e-05
0.000890546
1.59674e-07
0.00314263
0.0179474
0.0341969
0.0614989
0.0421109
0.028338
0.0459283
0.456251
1.83312
4.50419
7.76517
10.2315
0.00196324
0.00193204
0.0018835
0.00182465
0.00174865
0.00149731
0.00149404
0.00148177
0.00146012
0.00142741
0.00138317
0.00132965
0.0012677
0.0011993
0.00112845
0.00105761
0.000989403
0.000926447
0.000871056
0.000824304
0.00078719
0.000750887
0.000708107
0.000657749
0.000608342
0.000468126
0.000190123
2.57376e-06
7.63802e-06
1.61422e-07
0
0
0.0119306
0.017199
0.0396601
0.0349381
0.0612824
0.0677281
0.501182
2.26019
0.00149325
0.00148273
0.00146172
0.00142797
0.00137872
0.00122297
0.00122783
0.00122698
0.00122198
0.00120975
0.00119009
0.00116379
0.00112997
0.0010893
0.00104286
0.000991112
0.00093521
0.00087649
0.000816015
0.000755041
0.000693453
0.000626995
0.000556975
0.000489996
0.000429075
0.00038142
0.000331462
0.000256738
9.80741e-05
1.95116e-06
7.56647e-06
4.81418e-06
1.40546e-06
0
0
0.00507298
0.0151546
0.00575318
0.0409202
0.108582
0.00121219
0.00119751
0.00117601
0.00114702
0.000990308
0.000994433
0.000994906
0.000992029
0.000984068
0.000970351
0.000951165
0.000926002
0.000895044
0.000859109
0.000818803
0.000775148
0.00072945
0.000682889
0.000636742
0.000592131
0.000551371
0.00051432
0.000477642
0.000439449
0.000400999
0.000366737
0.000335513
0.000289178
0.000226454
0.000153238
8.9955e-05
2.23889e-05
5.67844e-06
2.44662e-06
0
0
0.000459711
0.00674401
0.045044
0.000982199
0.000971451
0.000955777
0.000933691
0.000819706
0.00082511
0.000828263
0.00082925
0.000826962
0.000820745
0.000810766
0.00079644
0.000777722
0.000755005
0.00072827
0.000698025
0.000664861
0.000629302
0.000592024
0.000553768
0.000514667
0.000473293
0.000430739
0.000389535
0.000351754
0.000319117
0.000293505
0.000271522
0.00025009
0.000220917
0.000186275
0.000144073
9.84233e-05
4.59951e-05
4.85627e-06
1.668e-06
0
0
0
0.000811464
0.000801657
0.000788515
0.000770389
0.000683479
0.000688764
0.000692683
0.000694901
0.000694843
0.000691921
0.000686119
0.000676904
0.000664135
0.000647956
0.000628318
0.000605488
0.000579857
0.000551827
0.000522015
0.000490943
0.000459164
0.00042778
0.000397195
0.000367216
0.000338008
0.000310241
0.000284963
0.000261343
0.000238091
0.000214136
0.000189623
0.000168384
0.000147949
0.000123199
8.70961e-05
3.58809e-05
3.91205e-06
4.19314e-07
0
0.000676213
0.000667897
0.000657223
0.000590236
0.000589815
0.000587364
0.000582335
0.000574644
0.000564288
0.000551059
0.00053512
0.000516666
0.000495884
0.000473109
0.000448668
0.000423047
0.000396371
0.00036855
0.000340437
0.000313308
0.000288127
0.000265371
0.000244166
0.000222382
0.000199106
0.000175699
0.000155564
0.000140243
0.000128598
0.000119668
0.000101027
6.87114e-05
8.72977e-06
1.26219e-06
0.000504406
0.000501873
0.00049728
0.000490555
0.000481482
0.000470055
0.000456396
0.000440578
0.000422812
0.00040337
0.000382521
0.00036071
0.000338321
0.00031572
0.000293463
0.000272014
0.000251723
0.000232249
0.00021221
0.000190633
0.000168485
0.000148158
0.000131679
0.00011904
0.000110332
0.000104465
9.9472e-05
7.97327e-05
2.21635e-05
0.000432459
0.000428341
0.00042253
0.000414692
0.000404913
0.000393263
0.000379815
0.000364716
0.000348171
0.000330536
0.000311883
0.000292488
0.000273023
0.000254117
0.00023606
0.000218577
0.000200676
0.000181546
0.000161774
0.000143133
0.000127176
0.000114119
0.000103629
9.60217e-05
9.14499e-05
9.23484e-05
8.15781e-05
0.000374893
0.000371118
0.000365938
0.00035899
0.000350397
0.000340211
0.000328494
0.000315368
0.000301099
0.000285877
0.000269913
0.0002536
0.000237424
0.000221586
0.000205932
0.000189827
0.000172727
0.000155065
0.000138239
0.000123514
0.000111157
0.000100712
9.20832e-05
8.52139e-05
8.24286e-05
8.44542e-05
0.000326797
0.000323399
0.000318724
0.000312534
0.000304956
0.000296015
0.000285759
0.000274368
0.000262017
0.000248794
0.000234985
0.000221069
0.000207228
0.000193362
0.000179028
0.000163838
0.00014812
0.000132983
0.000119522
0.000108062
9.82886e-05
8.99843e-05
8.29077e-05
7.78946e-05
7.41034e-05
0.000288306
0.000286203
0.000283164
0.000278815
0.000273237
0.000266483
0.000258556
0.000249525
0.000239584
0.000228784
0.000217278
0.00020546
0.000193491
0.000181311
0.000168631
0.000155183
0.000141221
0.000127621
0.000115321
0.000104693
9.55715e-05
8.77946e-05
8.11809e-05
7.6168e-05
7.11374e-05
0.000253699
0.000251709
0.00024886
0.000244863
0.000239837
0.000233783
0.000226704
0.00021877
0.00020999
0.00020046
0.000190477
0.000180202
0.000169609
0.000158487
0.000146659
0.000134327
0.000122179
0.000111001
0.000101179
9.26607e-05
8.53432e-05
7.91757e-05
7.42883e-05
7.08936e-05
0.000224006
0.000222139
0.000219434
0.000215753
0.00021118
0.000205701
0.000199418
0.000192352
0.000184542
0.000176185
0.000167442
0.00015831
0.000148637
0.000138297
0.000127462
0.00011667
0.000106575
9.75548e-05
8.96355e-05
8.27568e-05
7.69628e-05
7.21572e-05
6.95806e-05
0.000199573
0.000198405
0.000196679
0.000194056
0.000190665
0.000186491
0.000181577
0.00017595
0.000169607
0.000162661
0.00015528
0.000147472
0.000139118
0.000130133
0.000120658
0.000111121
0.000102058
9.38266e-05
8.65075e-05
8.00799e-05
7.46163e-05
7.00414e-05
6.72206e-05
0.000177323
0.000176242
0.000174517
0.000172057
0.000168927
0.00016513
0.000160697
0.000155594
0.000149878
0.000143709
0.000137097
0.000129945
0.000122189
0.000113949
0.000105564
9.74757e-05
9.00093e-05
8.32822e-05
7.7316e-05
7.21675e-05
6.79025e-05
6.46924e-05
0.000158612
0.000157973
0.000156938
0.000155212
0.000152906
0.000150015
0.000146567
0.000142509
0.000137856
0.000132743
0.000127192
0.000121121
0.000114477
0.000107356
0.000100028
9.28537e-05
8.6124e-05
7.99757e-05
7.44669e-05
6.96393e-05
6.56579e-05
6.23353e-05
0.000141661
0.000141057
0.000139961
0.000138308
0.000136152
0.000133517
0.00013033
0.000126583
0.000122387
0.00011777
0.000112661
0.000107011
0.000100897
9.45322e-05
8.82095e-05
8.21842e-05
7.66003e-05
7.15395e-05
6.70422e-05
6.32962e-05
6.00794e-05
0.000127099
0.000126781
0.000126175
0.000125043
0.000123475
0.000121496
0.00011903
0.000116055
0.000112647
0.000108842
0.000104584
9.98181e-05
9.46023e-05
8.91078e-05
8.35707e-05
7.82101e-05
7.31708e-05
6.85455e-05
6.43838e-05
6.08504e-05
5.78078e-05
0.00011399
0.000113686
0.000112996
0.000111892
0.000110431
0.000108558
0.000106231
0.000103497
0.000100396
9.68823e-05
9.28985e-05
8.84834e-05
8.37737e-05
7.8958e-05
7.42221e-05
6.97029e-05
6.54979e-05
6.16666e-05
5.8345e-05
5.54716e-05
0.000102488
0.000102408
0.000102047
0.000101311
0.000100265
9.88759e-05
9.70911e-05
9.49257e-05
9.2428e-05
8.95561e-05
8.62548e-05
8.25476e-05
7.85409e-05
7.43827e-05
7.02301e-05
6.62062e-05
6.24086e-05
5.88991e-05
5.57947e-05
5.30704e-05
9.2143e-05
9.22209e-05
9.21399e-05
9.16988e-05
9.09848e-05
8.99925e-05
8.86528e-05
8.69629e-05
8.49717e-05
8.2648e-05
7.9935e-05
7.68432e-05
7.34541e-05
6.98847e-05
6.62636e-05
6.27022e-05
5.9292e-05
5.60929e-05
5.32096e-05
5.06249e-05
8.30666e-05
8.31382e-05
8.29495e-05
8.24955e-05
8.18106e-05
8.08348e-05
7.95441e-05
7.79853e-05
7.61308e-05
7.39262e-05
7.13716e-05
6.8528e-05
6.54869e-05
6.23505e-05
5.92162e-05
5.61689e-05
5.3267e-05
5.05966e-05
4.81544e-05
7.48147e-05
7.49868e-05
7.49797e-05
7.47272e-05
7.42802e-05
7.3594e-05
7.26337e-05
7.14337e-05
6.99746e-05
6.82052e-05
6.61183e-05
6.37561e-05
6.11881e-05
5.84954e-05
5.57583e-05
5.3052e-05
5.04334e-05
4.79736e-05
4.56717e-05
6.73626e-05
6.76009e-05
6.77537e-05
6.7662e-05
6.74064e-05
6.69531e-05
6.62622e-05
6.53545e-05
6.42198e-05
6.28132e-05
6.11199e-05
5.91704e-05
5.7015e-05
5.47168e-05
5.23427e-05
4.99555e-05
4.76026e-05
4.535e-05
4.31909e-05
6.09544e-05
6.11775e-05
6.12278e-05
6.11191e-05
6.08466e-05
6.0372e-05
5.97085e-05
5.88442e-05
5.77411e-05
5.63829e-05
5.47881e-05
5.29922e-05
5.10426e-05
4.89931e-05
4.68974e-05
4.47953e-05
4.27374e-05
4.07243e-05
5.49497e-05
5.52111e-05
5.53587e-05
5.53583e-05
5.52208e-05
5.49173e-05
5.44505e-05
5.38092e-05
5.29605e-05
5.18873e-05
5.05983e-05
4.9117e-05
4.74778e-05
4.57219e-05
4.3892e-05
4.20226e-05
4.01532e-05
3.82823e-05
4.95136e-05
4.97951e-05
5.00326e-05
5.0116e-05
5.00827e-05
4.99141e-05
4.96031e-05
4.91384e-05
4.8494e-05
4.76539e-05
4.66196e-05
4.54058e-05
4.40362e-05
4.25408e-05
4.09531e-05
3.92983e-05
3.7608e-05
3.58775e-05
4.49174e-05
4.51844e-05
4.53424e-05
4.53893e-05
4.53226e-05
4.51346e-05
4.48129e-05
4.43353e-05
4.36866e-05
4.28649e-05
4.1877e-05
4.07381e-05
3.94697e-05
3.80967e-05
3.66383e-05
3.51158e-05
3.35235e-05
4.05089e-05
4.07803e-05
4.09842e-05
4.10861e-05
4.10933e-05
4.10001e-05
4.07928e-05
4.04504e-05
3.99602e-05
3.93176e-05
3.85233e-05
3.75849e-05
3.65165e-05
3.53354e-05
3.40548e-05
3.26894e-05
3.12308e-05
3.65067e-05
3.67748e-05
3.70248e-05
3.71671e-05
3.72281e-05
3.72058e-05
3.70863e-05
3.68496e-05
3.64844e-05
3.59857e-05
3.53513e-05
3.4583e-05
3.36879e-05
3.2677e-05
3.15577e-05
3.03384e-05
3.31683e-05
3.34209e-05
3.36002e-05
3.37025e-05
3.37325e-05
3.36793e-05
3.35248e-05
3.32585e-05
3.28754e-05
3.23711e-05
3.1744e-05
3.09962e-05
3.01331e-05
2.91579e-05
2.80735e-05
2.99074e-05
3.01504e-05
3.03487e-05
3.04783e-05
3.05434e-05
3.05388e-05
3.04487e-05
3.02624e-05
2.9974e-05
2.95776e-05
2.90692e-05
2.8447e-05
2.77123e-05
2.68647e-05
2.59032e-05
2.6938e-05
2.71831e-05
2.73916e-05
2.75364e-05
2.76251e-05
2.76557e-05
2.76135e-05
2.74884e-05
2.72747e-05
2.69662e-05
2.65565e-05
2.60413e-05
2.54184e-05
2.46842e-05
2.38349e-05
2.42539e-05
2.44924e-05
2.47015e-05
2.48526e-05
2.49566e-05
2.50121e-05
2.50051e-05
2.49263e-05
2.4771e-05
2.45327e-05
2.42041e-05
2.37791e-05
2.32527e-05
2.26193e-05
2.18723e-05
2.18325e-05
2.20486e-05
2.22629e-05
2.24153e-05
2.2527e-05
2.25984e-05
2.26161e-05
2.25712e-05
2.24603e-05
2.2277e-05
2.20135e-05
2.16628e-05
2.12183e-05
2.0673e-05
2.00187e-05
1.98518e-05
2.00514e-05
2.02065e-05
2.03218e-05
2.04016e-05
2.04352e-05
2.04152e-05
2.03379e-05
2.01971e-05
1.99852e-05
1.96949e-05
1.9319e-05
1.88495e-05
1.82776e-05
1.78706e-05
1.80496e-05
1.82009e-05
1.83156e-05
1.83981e-05
1.8442e-05
1.84404e-05
1.8389e-05
1.82819e-05
1.81119e-05
1.78716e-05
1.75537e-05
1.71497e-05
1.66507e-05
1.6069e-05
1.6238e-05
1.63832e-05
1.64936e-05
1.65754e-05
1.66248e-05
1.66353e-05
1.66027e-05
1.65217e-05
1.63856e-05
1.6187e-05
1.59184e-05
1.55714e-05
1.51372e-05
1.44446e-05
1.46004e-05
1.47359e-05
1.48393e-05
1.49183e-05
1.49703e-05
1.49886e-05
1.49692e-05
1.49079e-05
1.47988e-05
1.46345e-05
1.44078e-05
1.41106e-05
1.37339e-05
1.29813e-05
1.31167e-05
1.32476e-05
1.3343e-05
1.34171e-05
1.34689e-05
1.34914e-05
1.34809e-05
1.34342e-05
1.33459e-05
1.32095e-05
1.30178e-05
1.27633e-05
1.24375e-05
1.17867e-05
1.19037e-05
1.19935e-05
1.20625e-05
1.21115e-05
1.21354e-05
1.21307e-05
1.20946e-05
1.20223e-05
1.19078e-05
1.17448e-05
1.15264e-05
1.12448e-05
1.05917e-05
1.06922e-05
1.07753e-05
1.08387e-05
1.08838e-05
1.09074e-05
1.09068e-05
1.08787e-05
1.0819e-05
1.07224e-05
1.05834e-05
1.03957e-05
9.50921e-06
9.60006e-06
9.67581e-06
9.7332e-06
9.77396e-06
9.79648e-06
9.79822e-06
9.77613e-06
9.72642e-06
9.64473e-06
9.52606e-06
9.3648e-06
8.53591e-06
8.617e-06
8.68452e-06
8.73534e-06
8.77196e-06
8.79303e-06
8.79595e-06
8.77796e-06
8.73612e-06
8.66677e-06
8.56542e-06
8.42695e-06
7.66142e-06
7.72982e-06
7.79263e-06
7.83681e-06
7.86883e-06
7.88802e-06
7.89125e-06
7.87614e-06
7.84047e-06
7.78121e-06
7.69438e-06
7.5755e-06
6.93669e-06
6.99099e-06
7.03031e-06
7.05818e-06
7.07485e-06
7.07764e-06
7.06448e-06
7.03354e-06
6.98227e-06
6.90737e-06
6.80494e-06
6.22697e-06
6.27165e-06
6.30649e-06
6.33092e-06
6.34494e-06
6.34696e-06
6.3353e-06
6.30824e-06
6.26357e-06
6.19846e-06
6.1098e-06
5.58679e-06
5.62569e-06
5.65622e-06
5.67721e-06
5.68883e-06
5.69018e-06
5.67983e-06
5.65613e-06
5.61711e-06
5.56056e-06
5.48377e-06
5.0133e-06
5.04676e-06
5.07286e-06
5.09059e-06
5.10008e-06
5.10068e-06
5.09119e-06
5.07018e-06
5.03601e-06
4.98679e-06
4.92032e-06
4.4994e-06
4.52802e-06
4.55024e-06
4.56511e-06
4.57267e-06
4.57243e-06
4.56345e-06
4.54455e-06
4.51437e-06
4.47144e-06
4.41378e-06
4.0393e-06
4.06385e-06
4.08253e-06
4.0946e-06
4.10037e-06
4.09943e-06
4.09086e-06
4.07369e-06
4.04694e-06
4.00934e-06
3.6275e-06
3.6473e-06
3.66383e-06
3.67324e-06
3.67729e-06
3.67577e-06
3.6676e-06
3.65196e-06
3.62811e-06
3.59508e-06
3.27584e-06
3.28931e-06
3.29686e-06
3.29954e-06
3.29734e-06
3.28937e-06
3.27493e-06
3.25351e-06
3.2243e-06
2.94489e-06
2.95505e-06
2.96116e-06
2.96284e-06
2.95999e-06
2.9521e-06
2.93869e-06
2.91927e-06
2.89317e-06
2.64791e-06
2.65617e-06
2.66099e-06
2.66178e-06
2.65849e-06
2.65084e-06
2.63845e-06
2.62084e-06
2.59747e-06
2.382e-06
2.38854e-06
2.39212e-06
2.39215e-06
2.38861e-06
2.3813e-06
2.36985e-06
2.35389e-06
2.33297e-06
2.1429e-06
2.14802e-06
2.15058e-06
2.15007e-06
2.14642e-06
2.13947e-06
2.12894e-06
2.11459e-06
2.09587e-06
1.92731e-06
1.93122e-06
1.93296e-06
1.932e-06
1.92829e-06
1.92172e-06
1.91208e-06
1.89918e-06
1.73341e-06
1.73631e-06
1.73724e-06
1.73582e-06
1.73203e-06
1.72577e-06
1.71689e-06
1.70517e-06
1.56003e-06
1.56182e-06
1.56227e-06
1.56029e-06
1.55627e-06
1.55021e-06
1.54186e-06
1.5311e-06
1.40714e-06
1.40685e-06
1.40446e-06
1.40021e-06
1.39416e-06
1.38611e-06
1.37601e-06
1.26979e-06
1.26867e-06
1.26594e-06
1.26147e-06
1.2553e-06
1.24733e-06
1.23765e-06
1.14883e-06
1.1477e-06
1.14515e-06
1.14118e-06
1.13548e-06
1.12805e-06
1.11942e-06
1.05272e-06
1.05134e-06
1.04862e-06
1.045e-06
1.03951e-06
1.03232e-06
1.02463e-06
9.75129e-07
9.73201e-07
9.69803e-07
9.65576e-07
9.59425e-07
9.51359e-07
9.02725e-07
9.01013e-07
8.97743e-07
8.93554e-07
8.87514e-07
8.79332e-07
8.31574e-07
8.29441e-07
8.25669e-07
8.20936e-07
8.14625e-07
8.05883e-07
7.64984e-07
7.63667e-07
7.60809e-07
7.56833e-07
7.5159e-07
7.44402e-07
6.93972e-07
6.90512e-07
6.85428e-07
6.79549e-07
6.72869e-07
6.62742e-07
6.46109e-07
6.46092e-07
6.44462e-07
6.40725e-07
6.36517e-07
6.32441e-07
5.52518e-07
5.45399e-07
5.39273e-07
5.32235e-07
5.1706e-07
5.78702e-07
5.81532e-07
5.77876e-07
5.76582e-07
5.86315e-07
4.57503e-07
4.57935e-07
4.64021e-07
4.61128e-07
4.42351e-07
6.82348e-07
7.00919e-07
6.9895e-07
7.06751e-07
7.39135e-07
7.57426e-07
7.79871e-07
8.10245e-07
1.09471e-06
1.15839e-06
1.11756e-06
1.0615e-06
)
;

boundaryField
{
    inlet
    {
        type            calculated;
        value           nonuniform List<scalar> 4(4.76625e-06 5.07072e-06 5.13436e-06 5.19291e-06);
    }
    outlet
    {
        type            calculated;
        value           nonuniform List<scalar> 0();
    }
    walls
    {
        type            calculated;
        value           nonuniform List<scalar> 
42
(
1.20857
1.41491
1.64735
1.86908
2.08389
2.28976
2.468
2.61599
2.73419
2.81831
2.87104
2.89877
2.89029
2.84523
2.76093
2.63781
2.47175
2.26236
2.00518
1.70288
1.35916
1.00032
0.668108
0.443659
0.355547
0.368142
0.427455
0.500048
0.565999
0.612018
0.634589
0.63365
0.6112
0.572135
0.517505
1.01239
0.817993
0.623679
0.430155
0.262732
0.132179
0.0529198
)
;
    }
    frontAndBack
    {
        type            empty;
    }
    procBoundary5to0
    {
        type            processor;
        value           nonuniform List<scalar> 4(0.0005758 0.000569114 0.000561864 0.00055294);
    }
    procBoundary5to1
    {
        type            processor;
        value           nonuniform List<scalar> 
13
(
0.00328534
0.00243126
0.00243126
0.00195072
0.00164814
0.00164814
0.00131065
0.00110813
0.00110813
0.000904179
0.000747274
0.000642399
0.000642399
)
;
    }
    procBoundary5to4
    {
        type            processor;
        value           nonuniform List<scalar> 
95
(
0.000580973
0.000585389
0.000588686
0.000588686
0.000504072
0.000505073
0.000505073
0.000435686
0.00043492
0.00043492
0.000377218
0.000377218
0.000329053
0.000329053
0.000289336
0.000254813
0.000254813
0.000225185
0.000225185
0.000200027
0.000177936
0.000177936
0.000158715
0.000141928
0.000141928
0.000127004
0.000114049
0.000114049
0.000102314
9.18101e-05
8.28637e-05
8.28637e-05
7.4486e-05
6.69582e-05
6.06615e-05
6.06615e-05
5.45905e-05
4.91227e-05
4.46155e-05
4.46155e-05
4.01722e-05
3.61632e-05
3.2898e-05
3.2898e-05
2.96213e-05
2.66628e-05
2.39912e-05
2.15792e-05
1.96491e-05
1.96491e-05
1.76697e-05
1.58847e-05
1.42753e-05
1.28245e-05
1.16651e-05
1.16651e-05
1.04757e-05
9.4058e-06
8.4436e-06
7.5782e-06
6.87724e-06
6.87724e-06
6.17167e-06
5.53885e-06
4.97162e-06
4.4633e-06
4.00802e-06
3.60009e-06
3.25952e-06
3.25952e-06
2.93024e-06
2.63579e-06
2.37199e-06
2.13469e-06
1.92066e-06
1.72807e-06
1.55579e-06
1.40629e-06
1.40629e-06
1.26948e-06
1.14868e-06
1.05282e-06
9.75609e-07
9.02979e-07
8.32187e-07
7.64911e-07
6.96147e-07
6.44436e-07
5.58309e-07
5.58309e-07
5.74484e-07
4.55238e-07
6.65832e-07
7.11419e-07
1.09194e-06
)
;
    }
    procBoundary5to6
    {
        type            processor;
        value           nonuniform List<scalar> 
86
(
34.2316
10.4578
12.2791
11.1679
5.11723
0.440078
0.0561212
0.0102044
0
0
1.45625e-06
2.31537e-05
8.68077e-05
8.99554e-05
7.31303e-05
6.44372e-05
6.3163e-05
6.35271e-05
6.27812e-05
6.0841e-05
5.83756e-05
5.58374e-05
5.33539e-05
5.09086e-05
4.84756e-05
4.60388e-05
4.36047e-05
4.11854e-05
3.87882e-05
3.6429e-05
3.4119e-05
3.18642e-05
2.96768e-05
2.9009e-05
2.9009e-05
2.6868e-05
2.4815e-05
2.28565e-05
2.09976e-05
1.92406e-05
1.75883e-05
1.60424e-05
1.46022e-05
1.32654e-05
1.20289e-05
1.08897e-05
1.01524e-05
1.01524e-05
9.15495e-06
8.24614e-06
7.42e-06
6.67102e-06
5.99433e-06
5.38401e-06
4.83428e-06
4.33974e-06
3.95932e-06
3.95932e-06
3.55163e-06
3.18622e-06
2.85959e-06
2.56773e-06
2.30662e-06
2.07278e-06
1.88266e-06
1.88266e-06
1.69052e-06
1.51787e-06
1.36384e-06
1.2262e-06
1.10912e-06
1.01576e-06
9.43271e-07
9.43271e-07
8.7103e-07
7.97027e-07
7.36085e-07
6.53549e-07
6.23504e-07
5.09612e-07
5.74979e-07
4.48624e-07
7.64026e-07
7.64026e-07
8.11103e-07
1.39464e-06
)
;
    }
}


// ************************************************************************* //
