/*--------------------------------*- C++ -*----------------------------------*\
| =========                 |                                                 |
| \\      /  F ield         | OpenFOAM: The Open Source CFD Toolbox           |
|  \\    /   O peration     | Version:  2506                                  |
|   \\  /    A nd           | Website:  www.openfoam.com                      |
|    \\/     M anipulation  |                                                 |
\*---------------------------------------------------------------------------*/
FoamFile
{
    version     2.0;
    format      ascii;
    arch        "LSB;label=32;scalar=64";
    class       surfaceScalarField;
    location    "150";
    object      phi;
}
// * * * * * * * * * * * * * * * * * * * * * * * * * * * * * * * * * * * * * //

dimensions      [0 3 -1 0 0 0 0];

oriented        oriented;

internalField   nonuniform List<scalar> 
2558
(
-0.220889
0.240619
-0.019728
0.262699
-0.0220812
0.281939
-0.019239
0.299237
-0.017299
0.315641
-0.0164041
0.328912
-0.0132708
0.339501
-0.0105893
0.348128
-0.00862621
0.353856
-0.0057279
0.357641
-0.00378387
0.359653
-0.00201181
0.359509
0.000144273
0.35721
0.00229898
0.352501
0.00470917
0.345071
0.00742973
0.334868
0.0102034
0.321271
0.0135973
0.303801
0.0174705
0.281589
0.0222122
0.254119
0.0274705
0.220782
0.0333377
0.183579
0.0372045
0.148035
0.0355434
0.123497
0.0245379
0.116059
0.00743712
0.122171
-0.00611295
0.133372
-0.0112006
0.14419
-0.0108185
0.152243
-0.00805246
0.156994
-0.00475001
0.158528
-0.00152444
0.156995
0.00152472
0.152764
0.00423051
0.146116
0.00664806
0.00930073
-0.197872
-0.0230189
-0.173933
-0.0239366
-0.144727
-0.0292067
-0.112848
-0.0318771
-0.0793978
-0.0334502
-0.0450764
-0.0343218
-0.201626
0.223005
-0.0411068
0.244921
-0.0439971
0.267875
-0.0421928
0.289355
-0.0387796
0.310387
-0.0374357
0.330005
-0.0328886
0.347795
-0.0283787
0.364031
-0.0248622
0.37834
-0.0200369
0.390807
-0.0162502
0.401489
-0.0126936
0.410745
-0.00911147
0.419113
-0.00606897
0.426788
-0.00296555
0.433604
0.000614862
0.43917
0.00463751
0.443221
0.00954658
0.445542
0.01515
0.445072
0.0226818
0.441116
0.0314272
0.431836
0.0426172
0.416056
0.0529845
0.393009
0.058589
0.365165
0.0523795
0.337291
0.0353095
0.31153
0.0196466
0.287914
0.0124166
0.266669
0.0104287
0.248423
0.0101981
0.233649
0.0100289
0.2218
0.0103372
0.211664
0.0116566
0.201796
0.0141019
0.191099
0.0173467
0.0216191
-0.179816
-0.0448292
-0.156462
-0.0472892
-0.129126
-0.0565423
-0.100243
-0.0607596
-0.06959
-0.0641038
-0.0663734
-0.1959
0.217582
-0.0627913
0.239459
-0.0658728
0.263094
-0.0658297
0.284739
-0.0604237
0.305366
-0.0580629
0.325128
-0.0526496
0.342734
-0.045985
0.358571
-0.0406978
0.372192
-0.0336586
0.383844
-0.0279018
0.393539
-0.022388
0.401364
-0.0169364
0.407138
-0.0118433
0.411321
-0.00714818
0.413749
-0.00181246
0.415405
0.00298103
0.416326
0.00862617
0.417332
0.0141443
0.418715
0.0212996
0.421097
0.0290458
0.424775
0.0389399
0.428845
0.048916
0.430834
0.0566006
0.427819
0.0553945
0.419572
0.0435573
0.40782
0.0313984
0.393677
0.0265588
0.376876
0.0272295
0.356855
0.0302177
0.333833
0.03305
0.309287
0.0348854
0.285282
0.0356557
0.263258
0.0361242
0.243104
0.0375002
0.0412163
-0.174095
-0.0666321
-0.150272
-0.0711125
-0.121811
-0.0850034
-0.0922466
-0.0903244
-0.0613846
-0.094966
-0.188986
0.211608
-0.0854121
0.234339
-0.0886044
0.259352
-0.090843
0.282204
-0.0832754
0.304392
-0.080251
0.325699
-0.0739561
0.345291
-0.0655759
0.363009
-0.058416
0.379052
-0.0497017
0.393201
-0.0420506
0.405573
-0.0347599
0.416159
-0.0275218
0.425013
-0.0206972
0.4322
-0.0143348
0.438065
-0.00767729
0.442133
-0.00108672
0.444476
0.00628384
0.444811
0.0138101
0.443534
0.0225771
0.440851
0.0317286
0.437578
0.0422135
0.434765
0.0517299
0.432543
0.0588217
0.429743
0.0581927
0.424927
0.0483718
0.418383
0.0379409
0.411093
0.0338487
0.403519
0.0348058
0.395117
0.0386235
0.384599
0.0435727
0.370504
0.0489897
0.351709
0.0544494
0.328448
0.0593896
0.302364
0.0635861
0.0683165
-0.16664
-0.0889786
-0.142713
-0.0950402
-0.113696
-0.11402
-0.083932
-0.120089
-0.125978
-0.18552
0.208987
-0.108879
0.232613
-0.11223
0.259031
-0.117261
0.282641
-0.106886
0.305813
-0.103422
0.328162
-0.0963055
0.348574
-0.0859879
0.367167
-0.077008
0.384215
-0.0667503
0.399078
-0.0569138
0.412132
-0.0478134
0.423304
-0.0386939
0.432858
-0.0302512
0.440476
-0.0219528
0.446328
-0.0135291
0.450411
-0.00516889
0.452977
0.00371782
0.454136
0.0126512
0.453743
0.0229704
0.452163
0.0333098
0.449387
0.04499
0.445684
0.0554337
0.441168
0.0633394
0.435467
0.0638937
0.428245
0.055595
0.419942
0.0462439
0.411464
0.0423264
0.403431
0.0428374
0.395997
0.0460562
0.389105
0.0504628
0.382254
0.0558388
0.374283
0.0624168
0.36323
0.0704404
0.346796
0.0800194
0.0914339
-0.162121
-0.112378
-0.137461
-0.1197
-0.107182
-0.144301
-0.07655
-0.150721
-0.182733
0.207216
-0.133362
0.232145
-0.137158
0.25993
-0.145045
0.284723
-0.131678
0.308897
-0.127596
0.33258
-0.119988
0.353936
-0.107344
0.373773
-0.0968453
0.39179
-0.0847671
0.407866
-0.0729898
0.422231
-0.062179
0.434704
-0.0511661
0.4455
-0.041047
0.454611
-0.031064
0.461914
-0.0208312
0.467751
-0.0110056
0.471742
-0.000272503
0.473996
0.0103971
0.474656
0.0223115
0.47364
0.0343268
0.471122
0.047509
0.467364
0.0591924
0.462251
0.068452
0.455501
0.0706433
0.446974
0.064121
0.437168
0.0560482
0.42688
0.0526132
0.416638
0.0530811
0.40661
0.0560866
0.396909
0.0601686
0.387754
0.0650002
0.37926
0.0709129
0.371279
0.0784249
0.362669
0.088633
0.103497
-0.158364
-0.136747
-0.132877
-0.145188
-0.101273
-0.175906
-0.182509
-0.181168
0.206975
-0.15917
0.232953
-0.163135
0.262299
-0.174392
0.288354
-0.157732
0.313765
-0.153005
0.338509
-0.144732
0.361005
-0.12984
0.381668
-0.117508
0.400693
-0.103792
0.417664
-0.0899613
0.432814
-0.0773289
0.446275
-0.0646265
0.457918
-0.0526901
0.467813
-0.0409584
0.476027
-0.0290452
0.482401
-0.0173793
0.487086
-0.00495797
0.490056
0.0074282
0.491406
0.0209614
0.491183
0.0345503
0.489545
0.0491475
0.486581
0.0621575
0.482348
0.072686
0.476342
0.0766494
0.46841
0.0720545
0.458894
0.0655636
0.448522
0.062985
0.437786
0.0638167
0.426819
0.0670519
0.415563
0.0714225
0.404092
0.0764677
0.392588
0.0824138
0.381381
0.0896288
0.370821
0.0991913
0.113428
-0.155587
-0.162327
-0.12899
-0.171787
-0.0959186
-0.208977
-0.215624
-0.180263
0.207406
-0.186311
0.234805
-0.190534
0.265826
-0.205411
0.293077
-0.184984
0.319765
-0.179693
0.345747
-0.170714
0.369248
-0.15334
0.391094
-0.139355
0.410919
-0.123617
0.428801
-0.107843
0.444974
-0.0935014
0.459281
-0.0789327
0.471797
-0.065206
0.482646
-0.0518073
0.491774
-0.0381723
0.499151
-0.0247556
0.50483
-0.010637
0.508777
0.00348264
0.510948
0.0187908
0.511422
0.0340779
0.510369
0.0502016
0.50782
0.0647067
0.503829
0.0766775
0.498216
0.0822626
0.490718
0.0795522
0.481599
0.0746821
0.471504
0.073078
0.460884
0.0744366
0.449836
0.0781009
0.438337
0.0829246
0.426259
0.0885512
0.413591
0.0950838
0.400303
0.102921
0.386631
0.112867
0.126999
-0.153449
-0.189143
-0.125684
-0.199552
-0.0908936
-0.243768
-0.180144
0.208657
0.237502
0.27022
0.298858
0.327004
-0.207839
0.354333
-0.198044
0.37904
-0.178047
0.401767
-0.162081
0.422684
-0.144534
0.441384
-0.126543
0.45825
-0.110367
0.473352
-0.0940349
0.486708
-0.078562
0.498338
-0.0634366
0.508251
-0.0480854
0.516486
-0.0329897
0.52293
-0.0170806
0.527568
-0.00115522
0.530443
0.0159156
0.53158
0.0329422
0.531125
0.0506566
0.52913
0.0667021
0.525593
0.0802151
0.520388
0.0874688
0.513334
0.0866063
0.504595
0.0834209
0.494716
0.0829571
0.484206
0.0849461
0.473222
0.0890835
0.461699
0.0944454
0.449574
0.100672
0.436747
0.107908
0.423042
0.116623
0.408259
0.127648
0.142925
-0.151844
-0.122723
0.33509
0.363882
0.389754
-0.203919
0.413607
-0.185934
0.435497
-0.166425
0.455062
-0.146108
0.472768
-0.128073
0.488729
-0.109995
0.502779
-0.0926121
0.515116
-0.0757726
0.525879
-0.0588481
0.534813
-0.0419225
0.54203
-0.0242971
0.547419
-0.00654345
0.551087
0.0122486
0.55298
0.0310505
0.553064
0.0505737
0.551588
0.0681796
0.548465
0.0833396
0.54364
0.0922942
0.53694
0.0933066
0.528457
0.0919035
0.518757
0.0926564
0.508297
0.0954045
0.497201
0.100179
0.485551
0.106097
0.473267
0.112959
0.460269
0.120909
0.446427
0.130469
0.431478
0.142602
0.159356
0.401615
0.426683
0.449599
-0.189342
0.470094
-0.166602
0.488579
-0.146558
0.505167
-0.126582
0.520002
-0.107446
0.533166
-0.0889362
0.544509
-0.0701907
0.554202
-0.0516153
0.562122
-0.0322171
0.568278
-0.0126986
0.572572
0.00795455
0.575083
0.0285402
0.575806
0.0498513
0.574791
0.0691939
0.572114
0.0860174
0.567708
0.0967004
0.561421
0.0995944
0.553333
0.0999917
0.543832
0.102157
0.533373
0.105863
0.522223
0.111329
0.510336
0.117981
0.497761
0.12553
0.484453
0.134214
0.470295
0.144625
0.455083
0.157811
0.175953
0.464861
0.486249
-0.18799
0.505621
-0.16593
0.52306
-0.144021
0.538505
-0.122891
0.552283
-0.102713
0.564385
-0.082292
0.574752
-0.0619818
0.583317
-0.0407813
0.590089
-0.0194695
0.595037
0.00300751
0.598193
0.0253858
0.599517
0.0485284
0.599056
0.0696563
0.596832
0.0882425
0.592829
0.100705
0.586928
0.105496
0.579193
0.107727
0.569927
0.111423
0.559582
0.116207
0.548346
0.122564
0.536295
0.130031
0.523425
0.138402
0.509717
0.147924
0.495126
0.159219
0.479434
0.173507
0.192987
0.503659
0.52386
-0.18613
0.542029
-0.16219
0.558281
-0.139142
0.572754
-0.117186
0.585463
-0.0950005
0.596415
-0.0729329
0.605635
-0.0500007
0.613074
-0.0269084
0.618647
-0.00256517
0.622325
0.0217081
0.624203
0.0466506
0.624221
0.0696384
0.622445
0.0900186
0.618902
0.104248
0.613485
0.110913
0.606116
0.115095
0.597136
0.120403
0.586894
0.126449
0.575633
0.133825
0.563445
0.142217
0.550331
0.151512
0.536264
0.161988
0.521186
0.174294
0.504938
0.189752
0.21064
0.543416
-0.207294
0.562362
-0.181135
0.57932
-0.156099
0.594463
-0.132329
0.607711
-0.108247
0.619331
-0.0845526
0.629156
-0.0598251
0.637166
-0.0349175
0.643356
-0.00875347
0.647648
0.0174164
0.650037
0.0442634
0.65057
0.0691062
0.649262
0.0913286
0.646141
0.107371
0.641127
0.115928
0.634141
0.122082
0.625471
0.129073
0.6154
0.136518
0.604151
0.145073
0.591845
0.154522
0.578491
0.164866
0.5641
0.17638
0.548567
0.189828
0.531801
0.206521
0.228944
0.56428
0.584078
-0.200934
0.601667
-0.173688
0.61748
-0.148141
0.631469
-0.122236
0.643645
-0.0967283
0.654056
-0.0702348
0.662612
-0.0434742
0.669259
-0.0154001
0.674073
0.012603
0.677006
0.0413306
0.677973
0.0681391
0.677122
0.0921792
0.674447
0.110046
0.669882
0.120493
0.663346
0.128618
0.654955
0.137464
0.645072
0.146401
0.633905
0.15624
0.621516
0.16691
0.607971
0.178409
0.593254
0.191095
0.577343
0.205736
0.560057
0.223804
0.247869
0.607073
0.625525
-0.19214
0.641962
-0.164578
0.65653
-0.136804
0.669278
-0.109476
0.680222
-0.0811783
0.689311
-0.0525632
0.696571
-0.0226591
0.701857
0.00731811
0.70522
0.0379687
0.70669
0.0666702
0.706249
0.092622
0.703999
0.112298
0.699849
0.124645
0.693719
0.134749
0.685697
0.145486
0.676033
0.156065
0.664933
0.167339
0.652497
0.179345
0.638795
0.192111
0.623813
0.206078
0.607489
0.22206
0.589711
0.241583
0.267361
0.650746
-0.211358
0.667901
-0.181732
0.68306
-0.151963
0.696398
-0.122813
0.707867
-0.0926469
0.717497
-0.0621928
0.725191
-0.0303537
0.730987
0.00152221
0.734794
0.0341625
0.736656
0.064808
0.736662
0.0926153
0.73482
0.11414
0.731121
0.128343
0.725385
0.140485
0.717706
0.153165
0.708286
0.165485
0.697288
0.178337
0.684858
0.191774
0.671018
0.20595
0.655787
0.221306
0.639109
0.238735
0.620863
0.259826
0.287385
0.677411
0.695285
-0.199606
0.711168
-0.167845
0.725033
-0.136679
0.737061
-0.104675
0.74717
-0.0723005
0.755382
-0.0385653
0.761585
-0.00468029
0.765806
0.0299433
0.768119
0.0624961
0.768467
0.0922683
0.767025
0.115584
0.76371
0.131659
0.758372
0.145825
0.751061
0.160478
0.741907
0.17464
0.731092
0.189154
0.718669
0.204197
0.704726
0.219894
0.689265
0.236766
0.67225
0.25575
0.653579
0.278497
0.307983
0.724364
-0.218232
0.740862
-0.184343
0.755334
-0.15115
0.767865
-0.117205
0.778434
-0.0828695
0.787047
-0.047178
0.79369
-0.0113237
0.798349
0.0252845
0.80097
0.0598754
0.801698
0.0915405
0.800649
0.116633
0.797721
0.134587
0.792813
0.150733
0.785857
0.167433
0.776968
0.183529
0.766297
0.199825
0.75395
0.216543
0.739941
0.233902
0.724288
0.252417
0.706969
0.273067
0.687878
0.297584
0.329061
0.755085
0.772227
-0.201486
0.787327
-0.16625
0.80035
-0.130228
0.811382
-0.093901
0.820468
-0.056263
0.827481
-0.0183353
0.832474
0.0202924
0.835462
0.0568884
0.836527
0.0904767
0.835823
0.117339
0.83328
0.137132
0.828726
0.155289
0.822119
0.174041
0.813558
0.192092
0.803089
0.210295
0.790801
0.228833
0.776747
0.247956
0.760955
0.26821
0.743371
0.29065
0.723896
0.317059
0.350612
0.805345
-0.219336
0.82103
-0.181935
0.83462
-0.143817
0.846163
-0.105444
0.855607
-0.0657061
0.863017
-0.0257446
0.868322
0.0149871
0.871634
0.0535772
0.873061
0.0890498
0.872574
0.117826
0.870398
0.139308
0.866224
0.159462
0.859892
0.180372
0.851698
0.200286
0.841436
0.220558
0.829286
0.240982
0.815224
0.262016
0.799318
0.284114
0.781494
0.308472
0.761677
0.336874
0.372607
0.840344
0.856646
-0.198237
0.870782
-0.157954
0.882768
-0.11743
0.892617
-0.0755535
0.900363
-0.0334901
0.906023
0.00932854
0.909568
0.0500335
0.91126
0.0873592
0.911121
0.117965
0.909187
0.141243
0.905394
0.163258
0.899489
0.186279
0.891563
0.208214
0.881555
0.230568
0.869424
0.253115
0.855438
0.276004
0.839504
0.300049
0.821498
0.326477
0.801309
0.357063
0.394999
0.894219
-0.21523
0.908894
-0.172626
0.921352
-0.129888
0.931592
-0.0857927
0.939728
-0.0416257
0.945686
0.00337054
0.949522
0.0461978
0.951337
0.085545
0.951465
0.117837
0.949909
0.142799
0.946396
0.166771
0.940802
0.191873
0.933025
0.21599
0.9233
0.240293
0.911392
0.265022
0.897545
0.28985
0.88136
0.316233
0.863207
0.344628
0.842846
0.377422
0.417734
0.933766
-0.232825
0.94913
-0.187989
0.962056
-0.142812
0.972778
-0.0965139
0.981061
-0.0499076
0.987382
-0.00294974
0.991453
0.0421278
0.993528
0.0834707
0.993916
0.11745
0.992515
0.144202
0.989227
0.17006
0.983917
0.197184
0.976445
0.223465
0.966844
0.249895
0.955335
0.276533
0.941343
0.303844
0.925398
0.33218
0.907078
0.362947
0.886431
0.39807
0.4407
0.975625
0.99148
-0.203842
1.0048
-0.156136
1.01596
-0.107667
1.02469
-0.058639
1.03111
-0.00937075
1.03546
0.0377784
1.03769
0.0812388
1.03823
0.11691
1.03712
0.145313
1.03418
0.173002
1.02913
0.202237
1.02194
0.230646
1.01263
0.25921
1.00105
0.288107
0.987416
0.317483
0.971281
0.348314
0.952847
0.38138
0.932294
0.418622
0.464085
1.03607
-0.220166
1.05016
-0.170218
1.06151
-0.119017
1.07068
-0.0678076
1.07728
-0.0159716
1.08176
0.0333003
1.0843
0.0786927
1.08484
0.116375
1.08397
0.146182
1.08105
0.175919
1.07639
0.206901
1.06948
0.23756
1.06045
0.268244
1.04898
0.299575
1.03525
0.331214
1.01943
0.364137
1.00107
0.399737
0.980075
0.439622
0.487393
1.08334
-0.237335
1.09774
-0.184622
1.10956
-0.130842
1.11898
-0.0772176
1.1259
-0.0228944
1.13046
0.0287403
1.133
0.0761499
1.13398
0.1154
1.13297
0.147188
1.13047
0.178413
1.12569
0.211689
1.11918
0.244065
1.11026
0.277163
1.09922
0.310615
1.08573
0.344702
1.06964
0.380226
1.05141
0.417963
1.03047
0.460563
0.511136
1.13288
1.14784
-0.199578
1.16017
-0.143169
1.16974
-0.0867944
1.17709
-0.0302438
1.18179
0.0240421
1.1845
0.0734451
1.18534
0.114559
1.18465
0.147878
1.1821
0.180965
1.17778
0.216002
1.17118
0.250672
1.16252
0.285826
1.15159
0.321545
1.1382
0.35809
1.12249
0.395944
1.10398
0.436472
1.08315
0.481392
0.534819
1.20075
-0.215199
1.21361
-0.156035
1.22357
-0.0967493
1.23079
-0.0374612
1.23584
0.0189855
1.2384
0.0708834
1.23927
0.113691
1.23871
0.148439
1.2362
0.183474
1.23201
0.220194
1.22575
0.256928
1.21717
0.294404
1.20636
0.332364
1.19324
0.371209
1.17762
0.411563
1.15947
0.454619
1.13837
0.502494
0.558374
1.25659
-0.231304
1.26968
-0.169123
1.28004
-0.107107
1.28764
-0.0450583
1.29247
0.0141545
1.29541
0.0679449
1.29641
0.112693
1.29559
0.149256
1.29339
0.18567
1.28913
0.224459
1.28288
0.263183
1.27467
0.302614
1.2641
0.34293
1.2511
0.38421
1.23545
0.427218
1.21725
0.472814
1.19652
0.523233
0.582027
1.31533
1.32897
-0.182763
1.33955
-0.117687
1.34731
-0.0528138
1.35251
0.00895114
1.35512
0.0653341
1.35603
0.111784
1.35559
0.149695
1.35318
0.18808
1.34897
0.228676
1.34298
0.269164
1.33466
0.31094
1.32418
0.353406
1.31131
0.397087
1.29609
0.442432
1.27803
0.490872
1.25727
0.543991
0.605573
1.39121
-0.196832
1.40232
-0.128802
1.41015
-0.0606389
1.41538
0.00371577
1.41829
0.062431
1.41911
0.110959
1.41846
0.150343
1.41616
0.190386
1.4121
0.232738
1.4059
0.27536
1.39789
0.318952
1.38749
0.363811
1.37488
0.409697
1.35951
0.457797
1.34177
0.508618
1.32118
0.564586
0.628948
1.45716
-0.211623
1.4683
-0.139936
1.47654
-0.0688856
1.4819
-0.00164189
1.48453
0.0597974
1.48539
0.110108
1.48457
0.151159
1.48229
0.19267
1.47819
0.236832
1.4722
0.281351
1.46402
0.327134
1.45382
0.37401
1.44118
0.42234
1.42627
0.472702
1.40857
0.526319
1.38819
0.584966
1.52623
1.5381
-0.151799
1.54639
-0.077176
1.55171
-0.0069667
1.55456
0.0569512
1.55523
0.109441
1.55444
0.151943
1.55202
0.195095
1.5477
0.241146
1.54172
0.287329
1.53364
0.335217
1.52347
0.38418
1.51108
0.434733
1.49619
0.487595
1.4787
0.54381
0.605105
1.61139
-0.163775
1.6201
-0.0858849
1.62536
-0.0122275
1.62803
0.05429
1.62879
0.108673
1.62777
0.152971
1.62516
0.197704
1.62089
0.245418
1.61474
0.293479
1.60687
0.343083
1.59671
0.394343
1.58425
0.447185
1.56953
0.502324
1.55226
0.561073
0.625107
1.68886
-0.176248
1.69756
-0.094586
1.70313
-0.0177919
1.70579
0.0516288
1.70616
0.108303
1.70513
0.154001
1.70243
0.200399
1.69802
0.249833
1.69181
0.299683
1.68369
0.35121
1.6735
0.404526
1.66127
0.459419
1.6467
0.516897
1.62952
0.578249
0.64467
1.77022
-0.189069
1.77944
-0.103804
1.78486
-0.0232184
1.78743
0.0490625
1.78782
0.107917
1.78647
0.155343
1.78367
0.203199
1.77908
0.254428
1.77278
0.305979
1.76451
0.359482
1.75443
0.41461
1.74224
0.471601
1.72767
0.531468
1.71088
0.595042
0.6642
1.8563
-0.202291
1.86553
-0.113039
1.87109
-0.0287738
1.87356
0.046595
1.87395
0.107528
1.87239
0.156898
1.8693
0.206296
1.86449
0.259233
1.85807
0.3124
1.84977
0.367787
1.8396
0.424772
1.82716
0.484047
1.81287
0.545761
1.79616
0.611746
0.683405
1.94693
1.95635
-0.122458
1.96211
-0.0345339
1.9646
0.0441071
1.96449
0.107637
1.96282
0.158569
1.95958
0.209538
1.95453
0.264281
1.9478
0.319127
1.93929
0.3763
1.92902
0.435043
1.91686
0.496202
1.9024
0.560229
1.88578
0.628367
0.702279
2.05221
-0.132142
2.05786
-0.0401786
2.06016
0.0418118
2.06
0.107792
2.05822
0.160345
2.05462
0.213141
2.04945
0.269459
2.04239
0.326183
2.03378
0.38491
2.02323
0.445592
2.01091
0.508526
1.99667
0.574461
1.98026
0.644777
0.720976
2.15323
-0.142324
2.1589
-0.0458442
2.16129
0.0394199
2.1609
0.108181
2.15867
0.162576
2.15484
0.216973
2.14936
0.274936
2.14209
0.333459
2.13321
0.393788
2.12264
0.456164
2.11026
0.520901
2.09582
0.588905
2.0796
0.660994
0.739497
2.25974
-0.152701
2.26563
-0.0517277
2.26765
0.0373979
2.26711
0.108721
2.26471
0.164976
2.2605
0.221183
2.25469
0.280744
2.24731
0.340843
2.23813
0.402967
2.22722
0.467075
2.21463
0.533496
2.20037
0.603165
2.18404
0.677319
0.75786
2.37191
-0.163197
2.37789
-0.0577104
2.37993
0.0353587
2.3791
0.109552
2.37651
0.16757
2.37214
0.225551
2.36584
0.287049
2.35803
0.348646
2.34853
0.412475
2.33753
0.478071
2.32468
0.546345
2.3103
0.617551
2.29398
0.693637
0.775942
2.49037
2.4964
-0.0637356
2.49826
0.0334973
2.49738
0.11043
2.4944
0.170552
2.4896
0.230343
2.48306
0.293596
2.47481
0.356895
2.46508
0.422201
2.45355
0.489605
2.4407
0.559195
2.42601
0.632233
2.40995
0.7097
0.794052
2.62147
-0.0698888
2.62331
0.0316612
2.62206
0.111675
2.61869
0.173922
2.61356
0.235475
2.6066
0.300551
2.59802
0.365477
2.58791
0.432313
2.57623
0.501284
2.56292
0.572499
2.54833
0.646826
2.5318
0.726232
2.75313
-0.0761295
2.755
0.0297943
2.75339
0.11328
2.74988
0.177435
2.74439
0.240963
2.737
0.30794
2.72806
0.374414
2.7174
0.442978
2.70526
0.513418
2.6919
0.585868
2.67681
0.661914
0.742576
2.89232
-0.0825802
2.8938
0.0283123
2.89218
0.114897
2.88823
0.181385
2.88222
0.246978
2.87451
0.315647
2.86505
0.383879
2.85408
0.453945
2.8416
0.525896
2.82758
0.599885
2.81252
0.676981
0.75918
3.03874
-0.0888955
3.04046
0.0265936
3.0384
0.116957
3.03412
0.185664
3.02784
0.253257
3.01965
0.323838
3.00964
0.393894
2.99806
0.465519
2.98521
0.538751
2.97106
0.614036
2.95529
0.692746
0.775805
3.19361
3.19486
0.0253392
3.19275
0.119075
3.18807
0.190339
3.18138
0.259948
3.17268
0.332542
3.16222
0.404346
3.15029
0.477452
3.13675
0.552286
3.12203
0.628763
3.10621
0.708562
0.793039
3.35805
0.0240259
3.35541
0.121717
3.35051
0.195235
3.34335
0.267113
3.33411
0.34178
3.32319
0.415267
3.31045
0.490186
3.29662
0.56612
3.28142
0.643964
3.2651
0.724873
0.810375
3.5301
0.0226083
3.52736
0.12446
3.5219
0.200688
3.51424
0.274774
3.50444
0.351583
3.49289
0.426816
3.47974
0.503335
3.46517
0.580693
3.44933
0.659802
3.43262
0.741581
0.828125
3.71145
0.0215082
3.70838
0.127526
3.70248
0.20659
3.69446
0.282801
3.6842
0.361842
3.67199
0.439023
3.65826
0.517068
3.64305
0.5959
3.62681
0.676043
3.6094
0.75899
0.84646
3.90284
0.0203804
3.89944
0.130925
3.89333
0.212699
3.88476
0.29137
3.87375
0.372857
3.86099
0.451784
3.84651
0.531548
3.83063
0.611772
3.81369
0.69299
3.79567
0.777003
0.865153
4.10468
0.0193734
4.10104
0.13457
4.09441
0.219332
4.08526
0.300513
4.07387
0.384254
4.06025
0.465399
4.04513
0.546673
4.02856
0.628342
4.01087
0.710678
3.99235
0.795522
4.31761
0.0184322
4.31365
0.138522
4.30662
0.226366
4.29687
0.310266
4.28478
0.396337
4.27069
0.479494
4.25462
0.562745
4.23745
0.645506
4.21885
0.729277
0.814719
4.54225
4.53798
0.142793
4.53048
0.233861
4.52022
0.320535
4.50727
0.409283
4.49239
0.494373
4.47574
0.579393
4.45754
0.663704
4.4384
0.748417
0.834767
4.77457
0.147458
4.76674
0.241698
4.75577
0.331497
4.74223
0.422828
4.7264
0.510206
4.70887
0.596921
4.68987
0.682703
4.66988
0.768407
0.855703
5.02414
0.152397
5.01562
0.250218
5.00423
0.342887
4.98987
0.437187
4.97332
0.526757
4.95487
0.615363
4.9349
0.702672
4.9139
0.789414
0.877432
5.2874
0.157674
5.27842
0.259201
5.26626
0.355049
5.25121
0.45223
5.23377
0.544204
5.21437
0.63476
5.1934
0.723647
5.17134
0.811474
0.900127
5.56509
0.163134
5.5555
0.268791
5.54267
0.36788
5.52675
0.468152
5.50837
0.562583
5.48798
0.655147
5.4661
0.745535
5.44307
0.834495
0.923825
5.85791
0.16917
5.84779
0.278916
5.83423
0.381439
5.81738
0.485003
5.79815
0.581808
5.77659
0.676704
5.75362
0.768509
5.72946
0.858654
6.16674
0.175594
6.15611
0.28954
6.14179
0.395757
6.12412
0.502679
6.10373
0.602193
6.08123
0.699208
6.05686
0.792883
0.883859
6.49274
0.182354
6.48149
0.300789
6.46618
0.41106
6.44762
0.521239
6.42603
0.623782
6.4024
0.722843
6.37698
0.818304
0.910556
6.83644
6.82445
0.312774
6.80857
0.426945
6.78892
0.54089
6.76634
0.646366
6.74126
0.74792
6.71448
0.845085
0.938525
7.18662
0.324879
7.16952
0.444049
7.14862
0.561786
7.12539
0.669599
7.09869
0.774617
7.07103
0.872745
0.968209
7.56829
0.339134
7.55061
0.461736
7.52877
0.583618
7.503
0.695375
7.47581
0.801802
7.44591
0.902648
0.998204
7.97128
0.352181
7.95225
0.480769
7.9292
0.606672
7.90358
0.720989
7.87402
0.83136
7.84315
0.933521
1.03171
5.77365
0.385578
5.74581
0.508602
5.72951
0.622978
5.70895
0.741541
5.68804
0.852271
5.70711
0.914453
6.34398
0.422235
6.31301
0.539567
6.29365
0.64234
6.27408
0.761106
6.25163
0.874721
0.895628
6.97075
0.462364
6.9365
0.573811
6.91653
0.662313
6.89387
0.783769
6.86713
0.901458
0.871955
7.65906
0.506181
7.6213
0.611567
7.60054
0.68307
7.5733
0.811014
7.54603
0.928732
0.847536
8.4153
0.555186
8.37385
0.65301
8.3495
0.707422
8.32273
0.837783
8.29215
0.95931
0.821225
9.24573
0.608383
9.2003
0.698442
9.17341
0.734313
9.14294
0.868257
9.11011
0.992143
0.790671
10.1585
10.1103
0.746629
10.0807
0.763881
10.0478
0.901215
10.01
1.02989
0.75854
11.1069
0.80213
11.0755
0.795364
11.0382
0.938497
10.9976
1.0705
0.722796
12.2085
0.860534
12.1729
0.830951
12.133
0.978408
12.0887
1.11479
0.681609
13.4062
0.927586
13.3674
0.869727
13.3234
1.02246
13.2737
1.16444
14.7494
0.998064
14.7086
0.910523
14.66
1.07107
1.21406
16.1741
1.0777
16.1257
0.958953
16.0713
1.12545
1.27598
17.8536
17.808
17.7581
)
;

boundaryField
{
    inlet
    {
        type            calculated;
        value           nonuniform List<scalar> 4(1.1575 1.00454 1.17534 1.32722);
    }
    outlet
    {
        type            calculated;
        value           nonuniform List<scalar> 0();
    }
    walls
    {
        type            calculated;
        value           uniform 0;
    }
    frontAndBack
    {
        type            empty;
    }
    procBoundary5to0
    {
        type            processor;
        value           nonuniform List<scalar> 4(-0.214824 -0.217442 -0.228674 -0.280343);
    }
    procBoundary5to1
    {
        type            processor;
        value           nonuniform List<scalar> 
13
(
-0.0115559
-0.0335219
-0.0375392
-0.0293913
-0.0983665
-0.0529202
-0.0447933
-0.157735
-0.0694853
-0.0628038
-0.056247
-0.250269
-0.0861469
)
;
    }
    procBoundary5to4
    {
        type            processor;
        value           nonuniform List<scalar> 
95
(
-0.219378
-0.238129
-0.21362
-0.305652
-0.237276
-0.226836
-0.374599
-0.230934
-0.211001
-0.440879
-0.21332
-0.481287
-0.21036
-0.522252
-0.542229
-0.229343
-0.586398
-0.221606
-0.631526
-0.657431
-0.231338
-0.705738
-0.735672
-0.237645
-0.787495
-0.821663
-0.238016
-0.877226
-0.916171
-0.957196
-0.251252
-1.01975
-1.06617
-1.11505
-0.255164
-1.18512
-1.24049
-1.29844
-0.24819
-1.37714
-1.44237
-1.51119
-0.226668
-1.59941
-1.67639
-1.75739
-1.84308
-1.93314
-0.216081
-2.04253
-2.14305
-2.24937
-2.36142
-2.47934
-0.17423
-2.61532
-2.74689
-2.88587
-3.03243
-3.18676
-0.0957465
-3.35673
-3.52868
-3.71035
-3.90171
-4.10368
-4.31667
-4.54129
0.0174727
-4.77924
-5.02908
-5.29268
-5.57055
-5.86395
-6.17316
-6.49949
-6.84361
0.189526
-7.19873
-7.58255
-7.98433
-5.80704
-6.38063
-7.01088
-7.70287
-8.4643
-9.29893
-10.2173
0.66722
-11.1624
-12.2669
-13.4733
-14.8199
-16.2537
-17.9333
)
;
    }
    procBoundary5to6
    {
        type            processor;
        value           nonuniform List<scalar> 
86
(
0.13682
0.178784
0.223509
0.275267
0.323681
0.350611
0.360891
0.373065
0.392334
0.415052
0.438486
0.462405
0.487284
0.513502
0.541131
0.570223
0.600837
0.632983
0.666799
0.702345
0.739682
0.778916
0.82011
0.863465
0.908908
0.956768
1.00673
1.05947
1.11481
1.17286
1.23373
1.2978
1.36489
0.652252
1.45856
1.53226
1.60996
1.69135
1.77696
1.8669
1.96157
2.06108
2.16568
2.2759
2.39184
2.51377
0.812083
2.66046
2.79591
2.93867
3.08898
3.24777
3.41487
3.59106
3.77698
3.97312
0.884379
4.19966
4.41836
4.64894
4.89217
5.14864
5.41938
5.70458
0.948703
6.03165
6.35028
6.68651
7.04135
7.41591
7.80965
5.70998
1.02884
6.27046
6.89081
7.57044
8.31847
9.14066
10.0422
11.0333
12.1299
13.316
0.639383
14.6104
16.0094
17.7069
)
;
    }
}


// ************************************************************************* //
