/*--------------------------------*- C++ -*----------------------------------*\
| =========                 |                                                 |
| \\      /  F ield         | OpenFOAM: The Open Source CFD Toolbox           |
|  \\    /   O peration     | Version:  2506                                  |
|   \\  /    A nd           | Website:  www.openfoam.com                      |
|    \\/     M anipulation  |                                                 |
\*---------------------------------------------------------------------------*/
FoamFile
{
    version     2.0;
    format      ascii;
    arch        "LSB;label=32;scalar=64";
    class       volScalarField;
    location    "150";
    object      turbulenceProperties:I;
}
// * * * * * * * * * * * * * * * * * * * * * * * * * * * * * * * * * * * * * //

dimensions      [0 0 0 0 0 0 0];

internalField   nonuniform List<scalar> 
1340
(
0.00421953
0.00417851
0.00418557
0.00430188
0.00445416
0.00467294
0.00497507
0.00534896
0.00581237
0.00638286
0.00707648
0.00793481
0.00901109
0.0103832
0.0121757
0.0145842
0.0178898
0.0226781
0.0296663
0.0411955
0.0594799
0.096644
0.164672
0.316467
0.416544
0.414141
0.377173
0.344797
0.322371
0.307554
0.2976
0.291373
0.288173
0.286923
0.287306
0.00429154
0.00447746
0.00470259
0.00520729
0.0060849
0.00787211
0.0121411
0.00188955
0.00172519
0.00157779
0.00144008
0.00131332
0.00119994
0.00109652
0.00100164
0.000917606
0.00084217
0.000775844
0.000719381
0.000686845
0.000691153
0.000749614
0.00089821
0.00118515
0.00167841
0.00248855
0.0039758
0.00641684
0.0115419
0.0195566
0.037697
0.0602579
0.0825215
0.104495
0.125072
0.140938
0.148659
0.147976
0.142287
0.13578
0.13082
0.128462
0.00206952
0.00229595
0.00260569
0.00305524
0.0037377
0.00480552
0.00163445
0.00150029
0.00136989
0.00124802
0.00114326
0.00105032
0.00096975
0.00090294
0.000848363
0.000805303
0.000772153
0.000746945
0.000731058
0.000722218
0.000720911
0.000711906
0.000669557
0.000615827
0.000466531
0.00138572
0.00190691
0.00169906
0.00280541
0.000557687
0.00435778
0.00867092
0.0151146
0.0251723
0.0397634
0.0581238
0.0779681
0.0955753
0.107667
0.113884
0.116741
0.00178959
0.00197459
0.00222998
0.00257284
0.00303006
0.00360222
0.00152956
0.00142061
0.0013158
0.00122056
0.00113373
0.00105319
0.000980041
0.000912892
0.000851477
0.000795027
0.000743044
0.000695018
0.0006499
0.000606692
0.000565142
0.000522736
0.000479173
0.000439676
0.000392924
0.000329046
0.0001068
0.000536609
7.25594e-06
0.00100496
0.00238783
0.00334152
0.00456033
0.00384444
0.00321544
0.00418843
0.013617
0.0285312
0.0475411
0.0674306
0.0846488
0.00164552
0.00178107
0.00195363
0.0021795
0.00245407
0.00134577
0.0012568
0.00116927
0.00108662
0.00101056
0.000938887
0.000872726
0.000812107
0.000756524
0.00070641
0.000661624
0.00062207
0.000587833
0.000559057
0.000535612
0.000517552
0.000501671
0.000485157
0.000467135
0.000450142
0.000397102
0.00025539
3.00111e-05
5.22992e-05
7.71596e-06
0
0
0.00215933
0.00264283
0.00408492
0.00390023
0.00526136
0.00566585
0.0159888
0.035963
0.00144045
0.00154769
0.00167984
0.00184062
0.00201875
0.00121761
0.00114807
0.0010782
0.00101217
0.000950994
0.000892853
0.000838822
0.000788689
0.000742003
0.000698731
0.000658468
0.00062094
0.000586002
0.00055342
0.000523058
0.000494357
0.000465252
0.000435586
0.000407309
0.000381306
0.000360802
0.000338603
0.000301049
0.000188788
2.70893e-05
5.44731e-05
4.44956e-05
2.46432e-05
0
0
0.00154309
0.00272742
0.00171771
0.00467612
0.00781942
0.0012894
0.00136856
0.0014636
0.00157555
0.00109207
0.00103619
0.000979074
0.000924119
0.000872744
0.000823099
0.000776234
0.000732232
0.000690663
0.000651655
0.000615063
0.000580773
0.000548851
0.000519294
0.000492159
0.000467518
0.000446006
0.000427362
0.000409992
0.000392772
0.000375864
0.000361077
0.000347878
0.000326472
0.000293349
0.000246157
0.000193007
9.87019e-05
5.09693e-05
3.43383e-05
0
0
0.000506567
0.00195761
0.00519912
0.00114883
0.00120993
0.00128151
0.00136256
0.0009868
0.000942475
0.000896439
0.000851646
0.000809597
0.000768559
0.000729593
0.000692821
0.000657872
0.000624887
0.000593661
0.00056408
0.00053612
0.000509687
0.000484732
0.000461252
0.000438993
0.000417015
0.00039542
0.000375003
0.000356512
0.000340735
0.000328835
0.000319269
0.000310458
0.000296861
0.000278273
0.000250414
0.000212121
0.000148856
4.97093e-05
2.99925e-05
0
0
0
0.00103104
0.00107784
0.00113183
0.00119125
0.000893541
0.000857933
0.000820448
0.000783454
0.00074853
0.000714077
0.000681046
0.000649602
0.000619411
0.000590617
0.000563096
0.00053674
0.000511567
0.000487544
0.000464707
0.000443058
0.000422608
0.000403633
0.000386119
0.000369771
0.000354447
0.000340301
0.000327807
0.000316534
0.000305736
0.000294533
0.000282451
0.000271792
0.000260525
0.000243524
0.000210262
0.000138965
4.73226e-05
1.60223e-05
0
0.000928629
0.000965127
0.00100672
0.000693966
0.000665213
0.000637497
0.000610961
0.000585353
0.000560796
0.000537152
0.000514354
0.000492419
0.000471308
0.000451027
0.00043158
0.000413026
0.000395229
0.000377935
0.000361351
0.000345934
0.000332063
0.000319957
0.000309121
0.000298189
0.000286255
0.000273693
0.000262701
0.000254809
0.000249615
0.000246746
0.000232934
0.000198022
7.301e-05
2.87909e-05
0.000596349
0.000573839
0.000551973
0.000530875
0.000510421
0.000490516
0.000471199
0.000452432
0.000434229
0.000416635
0.000399663
0.000383403
0.000367905
0.000353211
0.000339467
0.000326788
0.000315282
0.000304687
0.000294031
0.000282363
0.000269831
0.000257826
0.000248102
0.000241164
0.000237775
0.000237415
0.000238285
0.000220243
0.000120531
0.000520775
0.000502708
0.0004852
0.000468
0.000451177
0.00043473
0.00041865
0.000402968
0.00038772
0.000373008
0.000358754
0.000344985
0.000331952
0.000319901
0.000308917
0.000298758
0.000288668
0.000277836
0.000266252
0.000254892
0.000245011
0.0002371
0.000231256
0.000228319
0.000229061
0.000237204
0.000230766
0.000475824
0.000460704
0.000445911
0.000431266
0.000416833
0.000402622
0.000388651
0.000374953
0.000361629
0.000348707
0.000336224
0.000324318
0.000313183
0.000302854
0.000293142
0.000283499
0.000273319
0.000262569
0.000252025
0.000242687
0.000234995
0.000228779
0.00022424
0.000221661
0.000224599
0.00023499
0.000437402
0.000424623
0.000412008
0.000399421
0.000386945
0.0003746
0.000362405
0.000350445
0.000338781
0.000327403
0.000316422
0.000306064
0.000296364
0.000287168
0.000278045
0.000268521
0.000258554
0.000248764
0.000240013
0.000232737
0.000226842
0.000222327
0.00021915
0.000218743
0.000220489
0.00041519
0.000404156
0.000393294
0.000382365
0.000371439
0.000360573
0.000349772
0.000339081
0.000328606
0.000318338
0.000308335
0.000298805
0.000289783
0.000281142
0.00027256
0.000263667
0.000254421
0.000245314
0.000237083
0.000230162
0.000224558
0.000220297
0.000217384
0.000216688
0.000216283
0.000384587
0.000375158
0.000365781
0.000356272
0.000346749
0.000337231
0.000327732
0.00031837
0.000309131
0.000300056
0.000291318
0.000282974
0.000274927
0.000266915
0.000258656
0.000250115
0.00024168
0.000233966
0.000227389
0.000222025
0.000217926
0.000215241
0.000214402
0.000216136
0.000357731
0.000349623
0.000341438
0.00033312
0.000324759
0.000316367
0.000308037
0.000299775
0.000291603
0.000283648
0.000275986
0.000268551
0.000261128
0.000253496
0.000245635
0.000237852
0.000230658
0.00022444
0.000219319
0.000215359
0.0002128
0.000211733
0.000214379
0.000341036
0.000334006
0.000326994
0.000319765
0.000312461
0.000305096
0.000297729
0.000290388
0.000283073
0.000275868
0.000268878
0.000262054
0.000255219
0.000248199
0.000240987
0.000233829
0.00022715
0.000221303
0.000216439
0.000212637
0.000210145
0.000209054
0.000210996
0.000318952
0.000312904
0.000306722
0.000300368
0.000293934
0.000287452
0.000280964
0.000274455
0.000267977
0.00026165
0.00025544
0.000249195
0.000242775
0.000236183
0.000229624
0.000223448
0.000217977
0.000213377
0.000209754
0.000207308
0.000206306
0.000207289
0.00030451
0.000299266
0.000294014
0.000288518
0.000282921
0.000277248
0.00027155
0.000265798
0.000260017
0.000254327
0.000248716
0.000243052
0.000237219
0.000231226
0.000225242
0.000219561
0.000214467
0.000210135
0.000206696
0.000204307
0.000203355
0.000203786
0.000286108
0.000281597
0.000276928
0.000272084
0.000267152
0.000262185
0.000257134
0.000252014
0.000246934
0.000241901
0.000236804
0.000231538
0.000226118
0.000220684
0.000215484
0.000210768
0.000206711
0.000203459
0.000201144
0.000200169
0.000200383
0.000273454
0.000269551
0.000265624
0.000261465
0.000257204
0.000252899
0.000248497
0.000244
0.0002395
0.00023502
0.000230469
0.00022575
0.000220874
0.000215965
0.000211229
0.000206885
0.000203107
0.000200041
0.000197817
0.000196784
0.000196888
0.000257929
0.000254588
0.000251082
0.000247421
0.000243705
0.000239898
0.000235983
0.000232029
0.000228075
0.000224047
0.000219852
0.000215496
0.000211087
0.0002068
0.000202824
0.000199323
0.000196443
0.000194315
0.000193225
0.000193209
0.000246697
0.000243865
0.000240925
0.000237806
0.000234622
0.000231357
0.000227982
0.000224538
0.00022108
0.000217544
0.000213842
0.000209979
0.000206047
0.00020219
0.000198577
0.000195355
0.000192666
0.000190634
0.000189501
0.000189333
0.000235844
0.000233452
0.000231052
0.000228428
0.000225725
0.00022296
0.00022008
0.000217105
0.000214103
0.000211024
0.000207782
0.000204376
0.000200886
0.000197433
0.000194162
0.000191211
0.000188711
0.000186775
0.000185615
0.000185279
0.000223414
0.00022142
0.00021927
0.000216994
0.000214667
0.000212237
0.0002097
0.000207127
0.000204476
0.000201666
0.00019869
0.000195616
0.000192547
0.000189604
0.000186911
0.000184593
0.000182752
0.000181561
0.00018107
0.00021372
0.000212065
0.000210318
0.000208424
0.000206479
0.00020445
0.000202315
0.000200134
0.000197877
0.000195469
0.000192898
0.000190218
0.000187515
0.000184891
0.000182454
0.000180315
0.00017857
0.000177359
0.000176714
0.000204342
0.000202977
0.000201624
0.000200076
0.000198481
0.000196814
0.000195043
0.000193213
0.000191308
0.000189261
0.000187054
0.000184731
0.000182364
0.000180037
0.000177845
0.000175883
0.000174229
0.000173008
0.000172225
0.000194226
0.000193148
0.00019194
0.000190653
0.000189304
0.000187859
0.000186353
0.000184771
0.000183052
0.000181178
0.000179184
0.000177125
0.000175073
0.000173107
0.000171311
0.00016975
0.000168517
0.000167616
0.000185775
0.000184919
0.000183994
0.000182973
0.000181897
0.000180741
0.000179525
0.000178234
0.000176815
0.000175249
0.00017356
0.000171792
0.000169999
0.00016825
0.000166611
0.00016514
0.000163906
0.000162895
0.000177595
0.000176925
0.000176284
0.000175502
0.000174668
0.000173768
0.000172807
0.000171769
0.000170611
0.000169315
0.000167896
0.000166386
0.000164831
0.000163283
0.000161796
0.000160412
0.000159182
0.000158077
0.000169236
0.000168781
0.000168234
0.000167614
0.000166936
0.0001662
0.000165388
0.000164462
0.000163404
0.000162225
0.000160948
0.000159604
0.000158236
0.000156886
0.000155586
0.000154364
0.000153184
0.000161819
0.000161499
0.000161141
0.0001607
0.000160208
0.000159668
0.000159057
0.000158337
0.000157494
0.000156534
0.000155468
0.000154321
0.000153121
0.000151901
0.000150679
0.000149471
0.000148229
0.000154628
0.00015442
0.000154258
0.000153975
0.000153643
0.00015327
0.00015283
0.000152286
0.000151625
0.000150851
0.000149971
0.000148998
0.000147951
0.000146851
0.000145706
0.000144518
0.00014762
0.000147569
0.000147443
0.000147254
0.000147022
0.000146728
0.000146335
0.000145828
0.000145212
0.00014449
0.000143668
0.000142754
0.000141761
0.000140688
0.000139525
0.000141066
0.00014109
0.000141086
0.000141016
0.000140899
0.000140726
0.000140463
0.000140093
0.000139617
0.000139035
0.000138346
0.000137551
0.000136654
0.000135648
0.000134512
0.000134695
0.000134817
0.000134917
0.000134941
0.000134919
0.000134847
0.000134691
0.000134435
0.000134077
0.000133615
0.000133042
0.000132355
0.000131547
0.000130604
0.000129499
0.000128555
0.00012875
0.000128928
0.000129026
0.000129082
0.000129095
0.000129028
0.000128865
0.000128605
0.000128244
0.000127772
0.000127178
0.00012645
0.00012557
0.000124503
0.000122651
0.00012287
0.000123137
0.000123296
0.000123414
0.000123493
0.000123497
0.000123408
0.000123228
0.000122948
0.000122558
0.000122043
0.000121386
0.000120564
0.000119539
0.000117238
0.000117537
0.000117759
0.000117928
0.000118058
0.000118115
0.000118086
0.000117969
0.000117754
0.00011743
0.000116978
0.000116381
0.000115611
0.000114629
0.00011183
0.000112134
0.000112399
0.000112607
0.000112771
0.000112871
0.00011289
0.000112825
0.000112665
0.000112396
0.000111999
0.000111454
0.000110732
0.000109793
0.000106586
0.000106921
0.00010722
0.000107453
0.000107642
0.000107772
0.000107828
0.000107802
0.000107686
0.000107463
0.000107114
0.000106617
0.00010594
0.000105046
0.000101551
0.000101901
0.000102217
0.000102464
0.00010267
0.000102823
0.000102905
0.000102908
0.000102825
0.00010264
0.000102331
0.000101877
0.000101246
0.000100398
9.67215e-05
9.7053e-05
9.74004e-05
9.76543e-05
9.78675e-05
9.8035e-05
9.81343e-05
9.81571e-05
9.80973e-05
9.79407e-05
9.7666e-05
9.72491e-05
9.66599e-05
9.58597e-05
9.24263e-05
9.27669e-05
9.30332e-05
9.3251e-05
9.3423e-05
9.35307e-05
9.3566e-05
9.35225e-05
9.3386e-05
9.31361e-05
9.27499e-05
9.21981e-05
9.1444e-05
8.80037e-05
8.8319e-05
8.85897e-05
8.88085e-05
8.89787e-05
8.90897e-05
8.91337e-05
8.91022e-05
8.89809e-05
8.87512e-05
8.83916e-05
8.78738e-05
8.37381e-05
8.40495e-05
8.43191e-05
8.45333e-05
8.46988e-05
8.48095e-05
8.48581e-05
8.48344e-05
8.47252e-05
8.45133e-05
8.41778e-05
8.36929e-05
7.96572e-05
7.99591e-05
8.02192e-05
8.04237e-05
8.05831e-05
8.0692e-05
8.07414e-05
8.07212e-05
8.06205e-05
8.04239e-05
8.01114e-05
7.96579e-05
7.57573e-05
7.60296e-05
7.6293e-05
7.64839e-05
7.66329e-05
7.67375e-05
7.67848e-05
7.67653e-05
7.66703e-05
7.64863e-05
7.61942e-05
7.57708e-05
7.22935e-05
7.25382e-05
7.27209e-05
7.28594e-05
7.29557e-05
7.29977e-05
7.29766e-05
7.28845e-05
7.27093e-05
7.24341e-05
7.20375e-05
6.87408e-05
6.89549e-05
6.91285e-05
6.92582e-05
6.93442e-05
6.93794e-05
6.93561e-05
6.92661e-05
6.90981e-05
6.88365e-05
6.84634e-05
6.53338e-05
6.55336e-05
6.56966e-05
6.58152e-05
6.58912e-05
6.592e-05
6.5895e-05
6.58073e-05
6.56462e-05
6.53986e-05
6.5048e-05
6.20912e-05
6.22749e-05
6.24236e-05
6.25303e-05
6.25963e-05
6.26184e-05
6.25903e-05
6.25037e-05
6.23492e-05
6.21148e-05
6.17863e-05
5.90053e-05
5.9173e-05
5.93079e-05
5.94032e-05
5.94593e-05
5.94738e-05
5.94413e-05
5.93547e-05
5.92053e-05
5.89834e-05
5.86752e-05
5.60724e-05
5.62259e-05
5.63465e-05
5.64287e-05
5.64747e-05
5.64822e-05
5.64455e-05
5.63582e-05
5.62136e-05
5.60029e-05
5.32872e-05
5.34184e-05
5.35323e-05
5.36003e-05
5.36354e-05
5.36365e-05
5.3596e-05
5.35082e-05
5.33679e-05
5.31676e-05
5.07627e-05
5.08612e-05
5.09192e-05
5.09447e-05
5.09382e-05
5.0893e-05
5.0804e-05
5.0667e-05
5.04755e-05
4.82551e-05
4.83335e-05
4.83832e-05
4.84012e-05
4.83869e-05
4.83364e-05
4.82459e-05
4.81111e-05
4.79264e-05
4.58706e-05
4.5938e-05
4.59796e-05
4.59902e-05
4.59695e-05
4.59153e-05
4.58243e-05
4.56922e-05
4.5514e-05
4.36093e-05
4.36658e-05
4.36984e-05
4.3702e-05
4.36763e-05
4.36195e-05
4.35285e-05
4.33995e-05
4.32281e-05
4.14562e-05
4.15028e-05
4.15276e-05
4.15254e-05
4.14958e-05
4.14373e-05
4.13469e-05
4.12223e-05
4.10579e-05
3.94002e-05
3.94377e-05
3.94555e-05
3.94481e-05
3.9415e-05
3.93552e-05
3.92663e-05
3.91462e-05
3.74423e-05
3.74715e-05
3.74816e-05
3.74683e-05
3.74315e-05
3.73701e-05
3.72821e-05
3.71654e-05
3.55898e-05
3.56083e-05
3.56135e-05
3.55926e-05
3.55503e-05
3.54862e-05
3.53976e-05
3.52829e-05
3.3862e-05
3.38585e-05
3.38312e-05
3.37829e-05
3.37143e-05
3.36227e-05
3.35076e-05
3.22242e-05
3.22099e-05
3.21764e-05
3.2122e-05
3.20469e-05
3.19501e-05
3.1832e-05
3.0703e-05
3.06878e-05
3.06545e-05
3.06034e-05
3.05297e-05
3.04339e-05
3.03224e-05
2.94308e-05
2.94113e-05
2.9374e-05
2.93249e-05
2.92505e-05
2.91527e-05
2.90485e-05
2.8357e-05
2.83286e-05
2.82797e-05
2.82194e-05
2.81316e-05
2.80163e-05
2.73149e-05
2.72885e-05
2.72393e-05
2.71768e-05
2.70867e-05
2.69644e-05
2.62464e-05
2.62122e-05
2.61527e-05
2.60786e-05
2.59798e-05
2.58424e-05
2.52027e-05
2.51803e-05
2.51331e-05
2.50681e-05
2.49824e-05
2.48647e-05
2.40323e-05
2.39716e-05
2.38831e-05
2.3781e-05
2.36649e-05
2.34879e-05
2.32148e-05
2.32135e-05
2.31839e-05
2.31169e-05
2.30416e-05
2.29691e-05
2.14925e-05
2.13534e-05
2.12335e-05
2.1095e-05
2.07932e-05
2.20167e-05
2.20698e-05
2.20003e-05
2.19761e-05
2.2162e-05
1.96079e-05
1.96172e-05
1.97474e-05
1.96864e-05
1.92833e-05
2.3955e-05
2.4278e-05
2.42436e-05
2.43791e-05
2.5003e-05
2.53089e-05
2.56791e-05
2.61733e-05
3.0366e-05
3.12322e-05
3.06739e-05
2.98885e-05
)
;

boundaryField
{
    inlet
    {
        type            calculated;
        value           nonuniform List<scalar> 4(6.3505e-05 6.54993e-05 6.59015e-05 6.62633e-05);
    }
    outlet
    {
        type            calculated;
        value           nonuniform List<scalar> 0();
    }
    walls
    {
        type            calculated;
        value           uniform 0;
    }
    frontAndBack
    {
        type            empty;
    }
    procBoundary5to0
    {
        type            processor;
        value           nonuniform List<scalar> 4(0.000812579 0.000840447 0.000869129 0.000901534);
    }
    procBoundary5to1
    {
        type            processor;
        value           nonuniform List<scalar> 
13
(
0.0172739
0.00629453
0.00629453
0.00417016
0.00275714
0.00275714
0.00219633
0.00169256
0.00169256
0.00144318
0.0012485
0.00105129
0.00105129
)
;
    }
    procBoundary5to4
    {
        type            processor;
        value           nonuniform List<scalar> 
95
(
0.000783878
0.000753332
0.000722918
0.000722918
0.000643905
0.000619812
0.000619812
0.000558493
0.00053944
0.00053944
0.000491325
0.000491325
0.000450429
0.000450429
0.000426276
0.000394066
0.000394066
0.000365891
0.000365891
0.000347955
0.000325007
0.000325007
0.000309597
0.000290605
0.000290605
0.000277187
0.000261248
0.000261248
0.000249439
0.000238092
0.000225408
0.000225408
0.000215303
0.000205584
0.000195323
0.000195323
0.000186579
0.000178165
0.000169725
0.000169725
0.000162097
0.000154752
0.000147713
0.000147713
0.000141011
0.000134559
0.00012835
0.000122375
0.000116981
0.000116981
0.000111501
0.00010624
0.000101188
9.63413e-05
9.20986e-05
9.20986e-05
8.76514e-05
8.33953e-05
7.93241e-05
7.54304e-05
7.20395e-05
7.20395e-05
6.84833e-05
6.50945e-05
6.18682e-05
5.87986e-05
5.5881e-05
5.3108e-05
5.06482e-05
5.06482e-05
4.81452e-05
4.57743e-05
4.35251e-05
4.1383e-05
3.93377e-05
3.73893e-05
3.55454e-05
3.38534e-05
3.38534e-05
3.22216e-05
3.07023e-05
2.94334e-05
2.83653e-05
2.73201e-05
2.62576e-05
2.5203e-05
2.40714e-05
2.31865e-05
2.16055e-05
2.16055e-05
2.19376e-05
1.95594e-05
2.36652e-05
2.45321e-05
3.03342e-05
)
;
    }
    procBoundary5to6
    {
        type            processor;
        value           nonuniform List<scalar> 
86
(
0.289464
0.128944
0.118801
0.0976338
0.0587428
0.016419
0.00595875
0.00260448
0
0
3.21337e-05
0.000128035
0.000247204
0.000251678
0.000227263
0.000213503
0.000211452
0.000212114
0.000210942
0.000207761
0.000203626
0.000199276
0.000194927
0.000190547
0.000186085
0.000181503
0.000176802
0.000171997
0.000167094
0.000162118
0.000157085
0.000152003
0.000146896
0.000143231
0.000143231
0.000138209
0.000133181
0.000128165
0.000123181
0.000118241
0.000113364
0.000108568
0.000103866
9.92703e-05
9.47892e-05
9.04329e-05
8.71641e-05
8.71641e-05
8.30272e-05
7.90351e-05
7.51902e-05
7.14958e-05
6.79581e-05
6.4576e-05
6.13471e-05
5.82683e-05
5.57144e-05
5.57144e-05
5.28976e-05
5.02206e-05
4.76845e-05
4.52839e-05
4.30094e-05
4.0853e-05
3.89911e-05
3.89911e-05
3.70183e-05
3.51409e-05
3.33681e-05
3.1692e-05
3.01888e-05
2.89279e-05
2.79011e-05
2.79011e-05
2.68405e-05
2.57033e-05
2.47283e-05
2.33269e-05
2.28084e-05
2.06449e-05
2.19482e-05
1.9421e-05
2.53483e-05
2.53483e-05
2.61891e-05
3.42489e-05
)
;
    }
}


// ************************************************************************* //
