/*--------------------------------*- C++ -*----------------------------------*\
| =========                 |                                                 |
| \\      /  F ield         | OpenFOAM: The Open Source CFD Toolbox           |
|  \\    /   O peration     | Version:  2506                                  |
|   \\  /    A nd           | Website:  www.openfoam.com                      |
|    \\/     M anipulation  |                                                 |
\*---------------------------------------------------------------------------*/
FoamFile
{
    version     2.0;
    format      ascii;
    arch        "LSB;label=32;scalar=64";
    class       volSymmTensorField;
    location    "150";
    object      turbulenceProperties:devReff;
}
// * * * * * * * * * * * * * * * * * * * * * * * * * * * * * * * * * * * * * //

dimensions      [0 2 -2 0 0 0 0];

internalField   nonuniform List<symmTensor> 
1340
(
(0.00155342 0.00383415 -1.45364e-21 -0.00167645 -2.0729e-20 0.000123024)
(0.00223443 0.00439537 3.96314e-21 -0.00232262 1.29989e-19 8.81804e-05)
(0.00334306 0.00491964 -3.27411e-20 -0.00352163 -3.95208e-19 0.000178567)
(0.00483062 0.00560354 1.15833e-19 -0.00505394 7.94193e-19 0.000223313)
(0.00682081 0.00620657 -2.05459e-19 -0.00706564 -7.49486e-19 0.000244832)
(0.00955406 0.00656943 -1.63263e-19 -0.00991185 -4.17248e-19 0.000357789)
(0.0131494 0.00668594 3.12793e-19 -0.0135955 1.14588e-18 0.000446106)
(0.0176894 0.00622886 -7.80803e-19 -0.0182261 -2.07221e-18 0.000536667)
(0.0233326 0.00484971 -1.9057e-19 -0.0240232 5.39854e-19 0.000690664)
(0.0301881 0.00231561 5.8117e-19 -0.0310227 1.16753e-18 0.00083462)
(0.0383501 -0.00188726 1.47169e-18 -0.0393679 5.47909e-19 0.00101776)
(0.0482925 -0.00830224 -3.31425e-18 -0.0495322 -3.05605e-18 0.00123966)
(0.0604225 -0.0177525 6.22508e-19 -0.0619202 8.0951e-19 0.00149768)
(0.0755526 -0.0317062 2.51772e-18 -0.0773936 1.19844e-18 0.00184104)
(0.0949771 -0.0525785 -3.83396e-18 -0.0972951 -5.90863e-18 0.00231803)
(0.120964 -0.084505 -4.13655e-18 -0.123948 -2.36195e-18 0.00298389)
(0.156076 -0.134519 1.74794e-17 -0.160102 1.61187e-17 0.00402526)
(0.207 -0.216914 1.75151e-17 -0.212555 3.04125e-17 0.00555476)
(0.277966 -0.352727 -3.18336e-17 -0.28593 -4.75772e-17 0.00796415)
(0.395345 -0.606871 -2.62319e-18 -0.407209 1.3203e-17 0.011864)
(0.556799 -1.04214 -2.4415e-17 -0.574437 4.14077e-17 0.017638)
(0.887107 -2.05296 5.23868e-18 -0.915194 3.17289e-17 0.0280879)
(1.32842 -3.9745 -1.24568e-16 -1.37384 -3.7067e-16 0.0454198)
(2.26263 -9.66786 2.47312e-16 -2.3583 3.84187e-16 0.0956663)
(1.84164 -13.3895 2.74518e-17 -1.92547 -6.03423e-16 0.0838299)
(0.784469 -13.8073 4.26988e-16 -0.806669 4.88875e-16 0.0222008)
(-0.0641418 -13.4605 -6.50194e-17 0.0747292 -7.36181e-17 -0.0105874)
(-0.70954 -13.313 2.69956e-16 0.723699 2.09823e-16 -0.0141595)
(-1.26763 -13.2753 7.81666e-16 1.27633 1.11672e-15 -0.00869912)
(-1.76529 -13.0989 5.19828e-16 1.76818 1.86108e-15 -0.00289532)
(-2.18521 -12.6873 -1.49168e-15 2.1814 -1.80534e-15 0.00380721)
(-2.51052 -12.0629 -5.49673e-16 2.49972 -6.76751e-16 0.0107935)
(-2.73296 -11.2612 1.29646e-16 2.717 -4.40133e-15 0.015964)
(-2.84362 -10.3049 -2.67776e-15 2.82623 -6.86222e-15 0.0173835)
(-2.82637 -9.18281 9.74537e-16 2.8101 8.75054e-16 0.016269)
(0.000949668 0.00334797 3.99494e-21 -0.000996361 5.03505e-20 4.66927e-05)
(0.000572146 0.00288366 -4.60337e-21 -0.000652349 -4.0565e-21 8.02024e-05)
(0.000238533 0.00235849 -3.00979e-20 -0.000279989 -1.207e-19 4.14563e-05)
(1.8762e-05 0.00189121 1.77574e-20 -4.93092e-05 8.04436e-20 3.05472e-05)
(-7.84158e-05 0.00145001 4.81446e-22 6.26976e-05 -6.78177e-21 1.57182e-05)
(-6.74079e-05 0.00106427 -4.87486e-20 7.37021e-05 1.43709e-19 -6.29426e-06)
(1.75616e-05 0.000772233 -1.98209e-19 1.52203e-05 1.61115e-19 -3.27819e-05)
(0.000572749 -0.000436228 1.81591e-22 -0.000517886 3.62809e-21 -5.48627e-05)
(0.00048983 -0.000523943 2.75141e-20 -0.000427257 6.78249e-20 -6.25726e-05)
(0.000372989 -0.000600865 -2.48237e-20 -0.000297546 -4.44404e-20 -7.54433e-05)
(0.0002549 -0.000632935 -1.92991e-20 -0.000168012 -5.12322e-20 -8.6888e-05)
(0.000139326 -0.000629418 1.19027e-19 -4.37369e-05 2.28434e-19 -9.55886e-05)
(3.02357e-05 -0.000598248 4.64936e-20 7.41277e-05 7.22967e-20 -0.000104363)
(-5.35097e-05 -0.00054232 2.19011e-19 0.00016554 2.02391e-19 -0.000112031)
(-0.000110985 -0.000472568 -1.11122e-19 0.000228117 -2.21574e-20 -0.000117131)
(-0.000145214 -0.000400103 1.59363e-19 0.000266039 1.11641e-19 -0.000120825)
(-0.000155879 -0.000332351 -5.1783e-21 0.000278716 2.49027e-22 -0.000122836)
(-0.000150292 -0.000274157 -2.18e-19 0.000273679 -1.86072e-19 -0.000123387)
(-0.000134329 -0.000230387 2.77927e-19 0.000256561 3.43445e-19 -0.000122232)
(-0.000113402 -0.000208724 1.65568e-19 0.000236054 8.31743e-20 -0.000122652)
(-9.1949e-05 -0.000214208 -3.35534e-20 0.000223101 1.70797e-20 -0.000131152)
(-6.62315e-05 -0.000271008 -1.84527e-19 0.000227236 3.08189e-20 -0.000161004)
(-8.96734e-06 -0.000471783 3.69031e-19 0.000259781 4.17852e-19 -0.000250813)
(0.000201743 -0.00107691 6.30348e-19 0.000266084 -7.18078e-19 -0.000467828)
(0.000859093 -0.00258158 -3.64354e-18 -1.04094e-05 -4.57235e-18 -0.000848683)
(0.00246127 -0.00597738 5.02652e-19 -0.00107432 5.7522e-18 -0.00138695)
(0.00662719 -0.0151693 6.18117e-18 -0.00428864 -1.7801e-18 -0.00233855)
(0.0162803 -0.038419 1.11009e-17 -0.0126248 4.68582e-18 -0.00365548)
(0.0455575 -0.117995 -1.98735e-17 -0.0392451 -1.62347e-17 -0.00631245)
(0.102907 -0.31202 5.4106e-17 -0.0945518 1.08296e-16 -0.00835498)
(0.270938 -1.02668 2.13901e-19 -0.259446 -8.61896e-17 -0.011492)
(0.455828 -2.27185 -1.97708e-16 -0.453483 9.65233e-17 -0.0023452)
(0.524602 -3.66769 -9.61136e-17 -0.544694 -4.20633e-16 0.0200917)
(0.440082 -5.04256 -2.50114e-18 -0.480921 5.27137e-17 0.0408385)
(0.200552 -6.18453 -2.41346e-16 -0.250582 -3.11391e-16 0.0500304)
(-0.15105 -6.76355 -4.4752e-16 0.104199 -2.1572e-15 0.0468508)
(-0.501634 -6.58111 -1.79022e-16 0.469464 -2.80189e-15 0.0321699)
(-0.738865 -5.80527 4.80387e-16 0.728636 4.0788e-15 0.0102294)
(-0.840563 -4.84271 -8.47267e-16 0.852045 -1.24069e-16 -0.0114827)
(-0.850881 -3.99242 -6.89266e-15 0.876876 1.23328e-15 -0.0259955)
(-0.814371 -3.3293 8.10639e-15 0.844731 1.34881e-14 -0.0303601)
(-0.762361 -2.83048 -1.37138e-15 0.789044 -6.19739e-16 -0.0266826)
(0.000634739 -0.00032101 9.30407e-21 -0.000588964 2.0151e-20 -4.57745e-05)
(0.000669079 -0.000201332 -1.27481e-20 -0.000626996 -9.75842e-20 -4.20832e-05)
(0.000672041 -5.54891e-05 -1.95087e-20 -0.000639871 -9.61313e-20 -3.21704e-05)
(0.00063054 0.000103417 -7.82774e-21 -0.000608969 1.66424e-19 -2.15707e-05)
(0.000537401 0.000247576 5.48273e-21 -0.000528277 3.41351e-20 -9.12405e-06)
(0.000399282 0.000354239 4.46282e-20 -0.000399445 -1.70628e-19 1.62945e-07)
(0.000338752 -0.000294318 1.95245e-21 -0.000362257 3.06451e-21 2.35056e-05)
(0.000266939 -0.000354219 -2.78796e-20 -0.00029565 -6.29584e-20 2.87115e-05)
(0.000173158 -0.000397127 -5.56422e-21 -0.000206917 -4.16076e-21 3.37594e-05)
(6.78409e-05 -0.000412623 2.37108e-20 -0.000108952 4.76328e-20 4.1111e-05)
(-3.60395e-05 -0.000402616 -7.08094e-20 -1.09571e-05 -1.39467e-19 4.69967e-05)
(-0.000134629 -0.000365766 -7.97094e-20 8.17225e-05 -1.29346e-19 5.29061e-05)
(-0.00021794 -0.000305697 -1.62812e-19 0.000158531 -2.37505e-19 5.94095e-05)
(-0.000279069 -0.000231604 -1.23648e-20 0.000214331 -2.35548e-21 6.47386e-05)
(-0.000317642 -0.000149557 -7.40276e-20 0.000248264 -1.6804e-19 6.93776e-05)
(-0.000333931 -6.79942e-05 2.98544e-19 0.000260405 3.36004e-19 7.35262e-05)
(-0.000331252 7.35055e-06 -4.75822e-20 0.000254849 6.58569e-20 7.64039e-05)
(-0.000313761 7.35109e-05 3.51219e-20 0.000235468 2.04138e-20 7.82929e-05)
(-0.000289291 0.000127864 -2.27941e-19 0.000211167 -2.87865e-19 7.81245e-05)
(-0.000261714 0.000171596 1.45606e-19 0.000185721 -1.32962e-20 7.59921e-05)
(-0.000235427 0.000206969 4.23314e-20 0.00016259 1.32146e-19 7.28364e-05)
(-0.000206859 0.000228457 5.32148e-20 0.000140117 2.47854e-20 6.67414e-05)
(-0.000168872 0.00022644 -2.45029e-19 0.000113115 -1.42276e-19 5.57574e-05)
(-0.000135964 0.000215582 2.04097e-19 9.11589e-05 1.53457e-19 4.4805e-05)
(-9.78777e-05 0.000179892 5.31246e-20 6.66421e-05 -3.56144e-22 3.12356e-05)
(-0.000644387 0.00134024 -1.65818e-18 0.000453499 -2.39662e-19 0.000190889)
(-0.00124048 0.00287656 3.92319e-18 0.000914417 -1.59783e-18 0.000326066)
(-0.000913343 0.0023659 8.49201e-20 0.000713285 1.66959e-18 0.000200058)
(-0.0020878 0.00660649 3.75971e-18 0.0017439 -5.82666e-18 0.0003439)
(0.000210515 -0.000188656 -1.75686e-18 -0.000157338 -1.8969e-18 -5.31771e-05)
(0.00450907 -0.0155075 3.46406e-18 -0.003758 1.00076e-17 -0.000751072)
(0.0118415 -0.0593602 -1.54989e-17 -0.00999786 3.14037e-18 -0.00184363)
(0.0216447 -0.170508 8.13044e-18 -0.0183696 4.39088e-19 -0.00327511)
(0.0299865 -0.438879 -6.47744e-18 -0.025099 4.21917e-17 -0.00488754)
(0.0193764 -0.994555 -2.73021e-16 -0.0135051 1.43898e-16 -0.00587134)
(-0.0465139 -1.88029 1.20603e-16 0.0513145 2.265e-16 -0.00480057)
(-0.19996 -2.91794 1.16136e-15 0.200447 -4.14056e-16 -0.000487003)
(-0.420684 -3.71853 -2.12614e-15 0.414366 1.69989e-15 0.0063174)
(-0.624706 -3.98743 5.21054e-16 0.613287 7.49281e-15 0.0114191)
(-0.739367 -3.78315 -7.40537e-17 0.729172 -5.27487e-15 0.0101953)
(-0.762768 -3.36279 2.67663e-15 0.75772 -2.10143e-15 0.0050479)
(0.000396577 -0.000218419 -4.00994e-21 -0.000417825 -7.59145e-21 2.12479e-05)
(0.000433434 -0.000136816 -1.35714e-20 -0.000450118 -1.43132e-20 1.66837e-05)
(0.000453974 -3.73233e-05 6.1067e-20 -0.000466651 1.17098e-19 1.26778e-05)
(0.00044542 6.79456e-05 1.0508e-20 -0.00045315 -2.26294e-20 7.73022e-06)
(0.000403092 0.000170745 7.32558e-21 -0.000407238 -8.72252e-20 4.14545e-06)
(0.000326152 0.000253716 -2.77861e-20 -0.000327162 7.44546e-20 1.00998e-06)
(0.000303873 -0.000242716 9.25535e-21 -0.000295834 1.52335e-20 -8.03898e-06)
(0.00025908 -0.000290847 -1.25984e-20 -0.000250105 -2.25562e-20 -8.97597e-06)
(0.000198202 -0.000332815 -5.80407e-21 -0.000186527 -4.50478e-21 -1.16756e-05)
(0.000129482 -0.000360664 6.90906e-20 -0.00011532 1.00207e-19 -1.41625e-05)
(5.79975e-05 -0.000370675 4.50592e-20 -4.1007e-05 7.94942e-20 -1.69904e-05)
(-1.37518e-05 -0.000362915 5.81755e-20 3.40703e-05 1.06413e-19 -2.03185e-05)
(-7.84119e-05 -0.000339072 8.69021e-20 0.000102142 9.94436e-20 -2.37305e-05)
(-0.000131119 -0.000302064 -4.89109e-20 0.000158282 -7.50729e-20 -2.71637e-05)
(-0.000170313 -0.000256358 -1.7752e-19 0.000201184 -1.74452e-19 -3.08719e-05)
(-0.000194568 -0.00020722 2.27952e-19 0.000228794 1.28771e-19 -3.4226e-05)
(-0.000205122 -0.000158582 1.93369e-19 0.00024257 1.63067e-19 -3.74483e-05)
(-0.000204172 -0.000113642 2.50759e-19 0.000244469 1.20383e-19 -4.02968e-05)
(-0.000193976 -7.45193e-05 -4.10658e-19 0.000236469 -1.32244e-19 -4.2493e-05)
(-0.000177354 -4.18473e-05 -3.51855e-19 0.000220905 -2.35084e-19 -4.35506e-05)
(-0.000156399 -1.63603e-05 4.64059e-19 0.000200261 1.45744e-19 -4.38617e-05)
(-0.000132764 4.69384e-06 9.44449e-20 0.000175184 5.74834e-20 -4.24195e-05)
(-0.000107826 2.24447e-05 -7.02799e-20 0.000147053 7.37268e-21 -3.92272e-05)
(-8.4662e-05 3.72223e-05 -2.29359e-19 0.00011967 -1.50288e-19 -3.5008e-05)
(-6.18308e-05 4.85198e-05 5.45353e-20 9.00129e-05 -2.08834e-20 -2.81822e-05)
(-4.23187e-05 5.43603e-05 2.19972e-19 6.21584e-05 6.80244e-20 -1.98397e-05)
(-2.98157e-05 5.75583e-05 -2.62805e-19 4.23713e-05 -7.55717e-20 -1.25556e-05)
(-5.68732e-05 0.000148999 2.76268e-19 7.58133e-05 3.75038e-20 -1.894e-05)
(-2.6842e-05 9.48195e-05 -4.26742e-20 3.40219e-05 -9.33973e-21 -7.1799e-06)
(-0.000121338 0.000671215 -5.5487e-19 0.000155593 2.8272e-19 -3.42543e-05)
(-0.000327235 0.00444159 2.37131e-18 0.000513819 -7.7854e-19 -0.000186583)
(0.000226217 0.00841734 -4.06966e-18 0.000103914 5.55438e-18 -0.000330131)
(0.00174463 0.0149815 1.15863e-19 -0.00117987 -1.8994e-19 -0.000564762)
(0.00222287 0.0101082 4.12447e-18 -0.00183241 -1.49594e-18 -0.000390464)
(0.0032611 0.00619622 4.6578e-18 -0.00288344 1.09227e-17 -0.000377663)
(0.00625266 -0.00946946 9.76052e-18 -0.00566048 -5.38123e-17 -0.000592179)
(0.00994092 -0.110922 -3.48235e-17 -0.00875468 -1.96299e-16 -0.00118623)
(-0.0101434 -0.447006 1.19001e-15 0.011808 3.13735e-16 -0.0016646)
(-0.094731 -1.09442 1.96334e-15 0.0960638 4.54179e-16 -0.00133287)
(-0.256386 -1.87644 -1.26798e-15 0.255894 -1.67094e-15 0.000491234)
(-0.439662 -2.45654 -5.66063e-15 0.436381 1.17393e-15 0.00328155)
(0.000337565 -0.000183233 -1.45902e-20 -0.000332416 -2.84834e-20 -5.14825e-06)
(0.000358024 -0.000120751 -5.76896e-21 -0.00035364 2.29424e-20 -4.38423e-06)
(0.000364582 -4.41468e-05 4.79864e-20 -0.000362832 8.54814e-20 -1.75045e-06)
(0.000353346 3.62573e-05 -2.31695e-20 -0.000352784 1.60087e-21 -5.62306e-07)
(0.000320209 0.0001141 1.73941e-20 -0.000320624 1.10051e-19 4.15272e-07)
(0.000223712 -0.000184711 -1.35572e-20 -0.000226196 -1.90938e-20 2.48464e-06)
(0.000187134 -0.000220489 2.51305e-21 -0.000190846 3.55061e-21 3.71213e-06)
(0.000139427 -0.000250836 1.62449e-20 -0.00014357 1.78905e-20 4.14322e-06)
(8.48047e-05 -0.000269914 -9.8293e-20 -9.01366e-05 -1.33981e-19 5.33188e-06)
(2.72928e-05 -0.000275608 -7.20212e-20 -3.39301e-05 -8.3734e-20 6.63728e-06)
(-3.0912e-05 -0.000267257 1.66722e-19 2.30718e-05 1.95492e-19 7.84024e-06)
(-8.45994e-05 -0.000245398 -1.76084e-19 7.51402e-05 -2.14231e-19 9.45917e-06)
(-0.00012988 -0.000212098 -7.87016e-20 0.000118672 -5.33769e-20 1.12079e-05)
(-0.000164494 -0.000170242 -1.88856e-19 0.000151537 -1.40642e-19 1.29572e-05)
(-0.000187023 -0.000123891 -3.58783e-20 0.000172068 -6.36369e-20 1.49559e-05)
(-0.000197515 -7.64583e-05 2.38377e-20 0.000180569 -8.18672e-21 1.69458e-05)
(-0.000197034 -3.09845e-05 -1.30956e-19 0.000178061 -1.70464e-19 1.89732e-05)
(-0.00018737 1.00594e-05 4.21869e-19 0.000166374 2.87228e-19 2.09952e-05)
(-0.000170799 4.50185e-05 -1.38147e-19 0.000147986 -2.38282e-20 2.28126e-05)
(-0.000149538 7.34313e-05 -3.40435e-19 0.000125167 -1.48504e-19 2.43712e-05)
(-0.00012604 9.49688e-05 2.2536e-19 0.000100719 4.30053e-21 2.53212e-05)
(-0.000102027 0.000108488 -1.63929e-19 7.72682e-05 -9.42175e-20 2.47586e-05)
(-7.83411e-05 0.000114705 1.9499e-21 5.51883e-05 1.20636e-19 2.31528e-05)
(-5.58613e-05 0.000114691 -3.95907e-20 3.50825e-05 -3.10173e-20 2.07788e-05)
(-3.60389e-05 0.000110723 -2.83128e-19 1.79681e-05 -1.96198e-19 1.80708e-05)
(-1.73454e-05 9.20716e-05 1.94628e-19 4.11761e-06 1.90937e-19 1.32278e-05)
(-5.15168e-06 6.4112e-05 3.94318e-21 -2.49725e-06 -1.12023e-19 7.64893e-06)
(-1.58262e-07 5.90715e-05 3.806e-20 -5.26595e-06 1.17292e-20 5.42421e-06)
(4.01615e-06 6.34862e-05 1.0822e-19 -8.41497e-06 -5.07792e-21 4.39882e-06)
(8.79541e-06 6.7495e-05 -3.65519e-20 -1.24225e-05 -1.20525e-20 3.62704e-06)
(1.28238e-05 6.90261e-05 1.22976e-19 -1.56453e-05 2.01588e-20 2.8215e-06)
(1.5006e-05 6.96729e-05 -6.99409e-21 -1.70261e-05 1.88951e-22 2.02008e-06)
(0.00065028 0.00289355 -5.53953e-19 -0.000704393 -3.59024e-19 5.41126e-05)
(0.000965455 0.00414695 -3.45438e-20 -0.00100889 1.24958e-18 4.34399e-05)
(0.00239288 0.0094391 -2.84452e-17 -0.00243172 2.34313e-18 3.88419e-05)
(0.00245646 0.00822355 -8.60288e-18 -0.00245273 1.50799e-18 -3.72717e-06)
(0.00576256 0.0138467 1.14894e-17 -0.00570672 -7.24104e-17 -5.58358e-05)
(0.0145054 0.0081221 2.23126e-16 -0.0142824 -2.94148e-16 -0.000222912)
(0.0161815 -0.121224 -1.46475e-15 -0.0154556 7.16791e-17 -0.000725905)
(-0.0387268 -0.549851 2.90738e-15 0.0400227 1.1698e-15 -0.00129586)
(0.000252166 -0.000141469 8.80644e-21 -0.000254814 2.51884e-21 2.64858e-06)
(0.000271305 -9.54815e-05 -3.17315e-20 -0.000272705 -4.22162e-20 1.40076e-06)
(0.00028077 -3.93501e-05 2.77867e-21 -0.000282168 1.99228e-20 1.39828e-06)
(0.000276513 2.08247e-05 1.88075e-20 -0.000277242 -6.08388e-20 7.29533e-07)
(0.000255573 8.02963e-05 -1.44446e-19 -0.000256012 -1.94396e-19 4.39195e-07)
(0.00018383 -0.000151385 1.19814e-20 -0.000182933 1.32568e-20 -8.96797e-07)
(0.000156919 -0.000180262 -2.97329e-20 -0.000156136 -3.40283e-20 -7.83205e-07)
(0.000121147 -0.000205895 -2.18327e-21 -0.00011983 -5.15079e-21 -1.31668e-06)
(7.99569e-05 -0.000223999 -1.16275e-20 -7.83591e-05 -7.21865e-21 -1.59785e-06)
(3.60824e-05 -0.000232548 9.68847e-20 -3.4162e-05 1.08947e-19 -1.9204e-06)
(-9.45717e-06 -0.00023109 7.37924e-20 1.2017e-05 6.12411e-20 -2.55979e-06)
(-5.27193e-05 -0.000219585 1.78535e-21 5.58687e-05 2.86487e-20 -3.14944e-06)
(-9.07762e-05 -0.000199058 1.84481e-19 9.46341e-05 1.76151e-19 -3.85796e-06)
(-0.000121892 -0.000171283 -2.22366e-20 0.000126673 -2.53275e-21 -4.7814e-06)
(-0.000144449 -0.000138961 -6.33473e-20 0.000150196 -2.99882e-20 -5.74666e-06)
(-0.000158036 -0.000104549 1.24494e-19 0.000164884 4.68354e-20 -6.84852e-06)
(-0.000163097 -7.03815e-05 -1.66901e-19 0.000171157 -6.47822e-20 -8.05955e-06)
(-0.000160624 -3.8609e-05 -2.97363e-19 0.00016995 -2.30242e-19 -9.32572e-06)
(-0.000152016 -1.0636e-05 -1.24489e-19 0.00016271 3.05452e-20 -1.06934e-05)
(-0.00013894 1.27316e-05 5.35218e-19 0.000151017 2.40663e-19 -1.20778e-05)
(-0.00012277 3.09077e-05 -3.86096e-19 0.000136232 -1.75194e-19 -1.34622e-05)
(-0.000104154 4.46918e-05 -9.3098e-20 0.000118271 8.04985e-20 -1.41173e-05)
(-8.41729e-05 5.43006e-05 1.73581e-19 9.80428e-05 1.12758e-19 -1.38699e-05)
(-6.4432e-05 6.02664e-05 -1.09661e-19 7.72852e-05 -4.32983e-22 -1.28532e-05)
(-4.59996e-05 6.28394e-05 -3.59088e-20 5.72636e-05 9.06343e-20 -1.12639e-05)
(-2.98057e-05 6.32618e-05 4.97905e-20 3.9208e-05 -3.32467e-20 -9.40226e-06)
(-1.53176e-05 6.01532e-05 -3.67047e-19 2.25407e-05 3.83472e-20 -7.22306e-06)
(-2.9244e-06 5.13508e-05 3.67946e-21 7.63096e-06 -5.41709e-20 -4.70656e-06)
(4.78439e-06 3.57485e-05 -1.64377e-19 -2.46073e-06 1.71796e-20 -2.32366e-06)
(9.7072e-06 3.08568e-05 4.12967e-20 -8.21743e-06 1.22069e-20 -1.48977e-06)
(1.30975e-05 2.79205e-05 -1.26271e-20 -1.18601e-05 -5.52243e-20 -1.23737e-06)
(1.4373e-05 2.55931e-05 -2.6911e-21 -1.32569e-05 -2.78593e-22 -1.11603e-06)
(1.44222e-05 2.53309e-05 6.41874e-21 -1.3508e-05 2.49526e-22 -9.14239e-07)
(1.43975e-05 2.74916e-05 6.48917e-20 -1.37421e-05 -2.24441e-20 -6.55438e-07)
(1.48566e-05 3.18069e-05 5.07313e-20 -1.44048e-05 8.71825e-20 -4.51866e-07)
(0.000493781 0.00117098 -5.18879e-19 -0.000482612 1.06607e-18 -1.11693e-05)
(0.0013834 0.00348 -1.51755e-17 -0.00135755 4.98793e-18 -2.58427e-05)
(0.000541544 0.00133512 -7.87582e-18 -0.000534058 -5.64743e-18 -7.48551e-06)
(0.00433708 0.00903982 -2.42894e-17 -0.00430131 3.12283e-17 -3.57703e-05)
(0.0187759 0.0187334 2.25269e-16 -0.0187058 -2.88497e-16 -7.00214e-05)
(0.000204636 -0.00011708 -1.31062e-20 -0.000204523 -1.83971e-20 -1.1243e-07)
(0.000218518 -8.09182e-05 5.33641e-21 -0.000218168 2.28125e-21 -3.49896e-07)
(0.000225542 -3.69666e-05 1.22574e-20 -0.000225812 1.07712e-20 2.69786e-07)
(0.000222761 1.01823e-05 -9.71111e-21 -0.000222877 -5.07798e-20 1.162e-07)
(0.000147552 -0.000123656 -5.95712e-21 -0.000147685 -5.20675e-21 1.33347e-07)
(0.000125829 -0.000146608 3.72299e-22 -0.000126331 -1.88794e-21 5.01955e-07)
(9.72009e-05 -0.000167139 4.11098e-20 -9.76204e-05 4.33453e-20 4.19511e-07)
(6.41887e-05 -0.000181786 1.80995e-21 -6.48023e-05 5.13357e-22 6.13655e-07)
(2.88708e-05 -0.00018908 -1.41829e-19 -2.96973e-05 -1.4607e-19 8.26499e-07)
(-8.11746e-06 -0.000188506 3.26389e-20 7.16243e-06 3.62228e-20 9.55028e-07)
(-4.38401e-05 -0.000179797 3.17941e-20 4.26238e-05 1.98721e-20 1.21627e-06)
(-7.59695e-05 -0.00016356 -7.40365e-20 7.44287e-05 -1.03559e-19 1.54084e-06)
(-0.000103007 -0.000140892 -1.09029e-19 0.00010116 -6.43642e-20 1.8468e-06)
(-0.000123441 -0.000113689 4.22214e-20 0.00012117 5.36673e-20 2.27086e-06)
(-0.000136647 -8.38015e-05 -2.48305e-19 0.000133897 -2.02576e-19 2.75029e-06)
(-0.000142573 -5.31166e-05 1.63738e-19 0.00013929 1.03677e-19 3.28268e-06)
(-0.000141667 -2.35346e-05 3.34578e-19 0.000137755 1.88645e-19 3.91205e-06)
(-0.000134821 3.59021e-06 4.33135e-19 0.000130209 1.62721e-19 4.61232e-06)
(-0.000123169 2.71969e-05 -5.78586e-19 0.000117771 -4.29087e-19 5.39791e-06)
(-0.000107943 4.66456e-05 3.10393e-19 0.00010162 2.35595e-19 6.32284e-06)
(-9.05439e-05 6.16909e-05 3.32826e-19 8.33484e-05 7.68881e-20 7.19556e-06)
(-7.25075e-05 7.16516e-05 2.12844e-19 6.50129e-05 -4.72657e-20 7.49456e-06)
(-5.47598e-05 7.66625e-05 1.08321e-19 4.75848e-05 5.74989e-20 7.175e-06)
(-3.82674e-05 7.72433e-05 -1.44086e-20 3.18605e-05 7.97947e-20 6.4069e-06)
(-2.37991e-05 7.44747e-05 1.08441e-19 1.84969e-05 -1.83161e-20 5.30219e-06)
(-1.16915e-05 6.99632e-05 3.60155e-19 7.59626e-06 1.51192e-19 4.09528e-06)
(-1.11139e-06 6.43788e-05 -1.52456e-19 -1.85242e-06 -1.99018e-20 2.96381e-06)
(8.46979e-06 5.52473e-05 3.94834e-19 -1.05338e-05 9.24207e-20 2.06398e-06)
(1.54607e-05 4.26743e-05 -5.96403e-20 -1.68932e-05 2.39579e-21 1.43253e-06)
(1.80669e-05 2.91736e-05 -2.04743e-20 -1.9004e-05 1.43788e-20 9.3707e-07)
(1.74374e-05 1.88522e-05 5.34108e-21 -1.80728e-05 2.33382e-21 6.35322e-07)
(1.5248e-05 1.21117e-05 -1.755e-20 -1.57495e-05 7.48859e-21 5.01481e-07)
(1.442e-05 9.23072e-06 -4.17154e-20 -1.49037e-05 -2.4258e-20 4.83734e-07)
(1.38062e-05 8.13488e-06 -3.93138e-21 -1.42446e-05 2.88355e-20 4.38434e-07)
(1.34408e-05 8.8754e-06 2.51657e-21 -1.37948e-05 -2.0779e-20 3.5395e-07)
(1.3456e-05 1.18469e-05 1.50601e-19 -1.37119e-05 1.23081e-19 2.55846e-07)
(5.79304e-05 7.1362e-05 -1.00122e-18 -5.8546e-05 9.6962e-19 6.15531e-07)
(0.000890938 0.00141341 -4.70847e-18 -0.000893118 3.02128e-18 2.18012e-06)
(0.00546491 0.0095641 -7.38712e-17 -0.00547307 1.55989e-18 8.15459e-06)
(0.000164492 -9.66744e-05 1.90548e-21 -0.00016495 6.46003e-21 4.57489e-07)
(0.000176117 -6.82174e-05 2.83652e-20 -0.000176195 2.31767e-20 7.80987e-08)
(0.000182598 -3.36314e-05 -2.86575e-20 -0.000182985 -8.08796e-21 3.8775e-07)
(0.000181476 3.74534e-06 7.06426e-20 -0.000181581 6.26152e-20 1.05163e-07)
(0.000121465 -0.000103313 -2.75249e-22 -0.000121316 -8.03776e-22 -1.49063e-07)
(0.000104076 -0.00012211 -1.98553e-21 -0.000104095 -1.3996e-21 1.91561e-08)
(8.1162e-05 -0.000139157 -5.66227e-21 -8.10194e-05 -4.4028e-21 -1.42629e-07)
(5.46764e-05 -0.000151719 -2.91543e-20 -5.45422e-05 -2.68936e-20 -1.34172e-07)
(2.62615e-05 -0.000158652 3.67577e-20 -2.61069e-05 3.87301e-20 -1.54631e-07)
(-3.81766e-06 -0.000159534 1.90847e-19 4.07375e-06 1.58529e-19 -2.5609e-07)
(-3.32649e-05 -0.000154052 -1.16488e-20 3.35806e-05 -2.94929e-20 -3.15655e-07)
(-6.02718e-05 -0.000142547 -8.4071e-20 6.06755e-05 -6.85329e-20 -4.03665e-07)
(-8.37447e-05 -0.000125699 2.21006e-19 8.43051e-05 1.98885e-19 -5.60401e-07)
(-0.000102348 -0.000104855 8.91983e-20 0.000103053 5.60264e-20 -7.05578e-07)
(-0.000115398 -8.13526e-05 -7.09582e-20 0.00011631 -1.241e-20 -9.1238e-07)
(-0.000122708 -5.66188e-05 -2.67909e-19 0.000123879 -1.29669e-19 -1.1712e-06)
(-0.000124411 -3.21819e-05 -5.0588e-19 0.000125866 -3.80405e-19 -1.45516e-06)
(-0.000121026 -9.25371e-06 -5.83308e-19 0.000122831 -3.45025e-19 -1.80475e-06)
(-0.000113356 1.11576e-05 -3.30486e-20 0.000115573 1.3069e-19 -2.21679e-06)
(-0.000102399 2.83175e-05 2.90735e-20 0.000105081 -6.20082e-20 -2.68195e-06)
(-8.91053e-05 4.17519e-05 -4.37001e-19 9.23678e-05 -1.99374e-19 -3.26257e-06)
(-7.41956e-05 5.1467e-05 -2.84867e-19 7.78139e-05 -1.21698e-19 -3.61825e-06)
(-5.85635e-05 5.76497e-05 7.2946e-20 6.2228e-05 6.60693e-21 -3.66442e-06)
(-4.33035e-05 6.0619e-05 3.02088e-19 4.66835e-05 3.92745e-20 -3.38e-06)
(-2.91989e-05 6.09163e-05 -1.27006e-19 3.20645e-05 -5.2405e-20 -2.86561e-06)
(-1.68184e-05 5.92207e-05 -7.83609e-20 1.90679e-05 -1.49281e-19 -2.24943e-06)
(-6.02198e-06 5.64297e-05 1.49476e-20 7.66597e-06 5.56155e-21 -1.64399e-06)
(3.79086e-06 5.23471e-05 -1.368e-19 -2.70543e-06 -1.33363e-19 -1.08543e-06)
(1.25279e-05 4.64592e-05 9.83534e-20 -1.1841e-05 2.10854e-20 -6.86869e-07)
(1.88538e-05 3.80129e-05 3.2294e-20 -1.8324e-05 -2.32851e-20 -5.29771e-07)
(2.17067e-05 2.85967e-05 1.39482e-21 -2.12207e-05 -9.49452e-21 -4.85947e-07)
(2.08555e-05 1.9382e-05 3.49698e-20 -2.04749e-05 1.06222e-20 -3.80555e-07)
(1.7739e-05 1.16985e-05 2.01125e-20 -1.751e-05 1.47155e-20 -2.29066e-07)
(1.37874e-05 6.00074e-06 1.35954e-19 -1.36665e-05 7.42736e-21 -1.20905e-07)
(1.18928e-05 2.88231e-06 -5.14596e-20 -1.18162e-05 5.94096e-20 -7.65977e-08)
(1.13278e-05 1.19761e-06 1.28677e-19 -1.12837e-05 -1.75897e-19 -4.41169e-08)
(1.09597e-05 9.8748e-07 3.08003e-19 -1.09531e-05 1.94468e-19 -6.62384e-09)
(1.10741e-05 3.08723e-06 -8.84351e-21 -1.10751e-05 1.53071e-19 1.07357e-09)
(1.18809e-05 8.29405e-06 1.23863e-19 -1.18899e-05 -5.52661e-20 8.93073e-09)
(0.000135052 -8.15046e-05 -4.82814e-21 -0.0001352 -7.3537e-21 1.47753e-07)
(0.000144519 -5.85229e-05 -1.53756e-20 -0.000144463 -9.61903e-21 -5.5853e-08)
(0.000150119 -3.06713e-05 2.42325e-20 -0.000150361 7.3195e-21 2.41646e-07)
(0.000149805 -4.18707e-07 -1.00695e-19 -0.000149823 -6.92496e-20 1.8645e-08)
(0.00010044 -8.70858e-05 -9.22259e-21 -0.000100391 -6.17695e-21 -4.84174e-08)
(8.61161e-05 -0.000102546 -2.89508e-20 -8.62236e-05 -2.50811e-20 1.0752e-07)
(6.7316e-05 -0.000116666 -6.43915e-21 -6.73481e-05 -7.31897e-21 3.20388e-08)
(4.55593e-05 -0.000127203 9.92157e-20 -4.56385e-05 8.44785e-20 7.92236e-08)
(2.22438e-05 -0.00013326 -6.57056e-20 -2.23557e-05 -5.61714e-20 1.11924e-07)
(-2.6213e-06 -0.000134516 -6.98543e-20 2.5138e-06 -7.01265e-20 1.075e-07)
(-2.71788e-05 -0.000130625 -1.69553e-19 2.7022e-05 -1.21799e-19 1.56779e-07)
(-5.00248e-05 -0.000121777 -1.17018e-19 4.98093e-05 -8.0612e-20 2.15505e-07)
(-7.02691e-05 -0.000108404 1.27884e-19 7.00334e-05 8.25534e-20 2.357e-07)
(-8.67705e-05 -9.14702e-05 3.49943e-20 8.64591e-05 -1.0208e-21 3.1145e-07)
(-9.89129e-05 -7.19362e-05 5.49532e-20 9.85258e-05 6.10612e-20 3.87128e-07)
(-0.000106374 -5.08827e-05 5.00774e-19 0.000105904 3.01368e-19 4.69683e-07)
(-0.000109069 -2.95548e-05 -1.70131e-19 0.000108477 -1.94711e-20 5.91703e-07)
(-0.000107245 -8.99122e-06 3.76148e-19 0.000106522 3.19636e-19 7.23242e-07)
(-0.00010142 9.88377e-06 5.10091e-20 0.000100533 3.8408e-20 8.86595e-07)
(-9.22688e-05 2.62817e-05 -8.87958e-20 9.1169e-05 -4.27986e-20 1.09984e-06)
(-8.0563e-05 3.97542e-05 2.67257e-19 7.91852e-05 1.82278e-19 1.37779e-06)
(-6.72691e-05 4.99206e-05 1.01831e-19 6.56117e-05 7.41026e-20 1.6574e-06)
(-5.33237e-05 5.65686e-05 4.8782e-20 5.15984e-05 -2.46628e-20 1.72538e-06)
(-3.96259e-05 5.9835e-05 -1.78027e-19 3.79982e-05 -1.55416e-19 1.62772e-06)
(-2.68794e-05 6.0196e-05 -1.99715e-21 2.55057e-05 4.15194e-21 1.37373e-06)
(-1.55566e-05 5.83552e-05 -9.995e-20 1.45028e-05 4.01119e-21 1.05379e-06)
(-5.61418e-06 5.51006e-05 -1.4679e-19 4.87047e-06 -7.51107e-21 7.43703e-07)
(3.25731e-06 5.06406e-05 3.86355e-20 -3.79593e-06 4.9992e-20 5.38619e-07)
(1.09624e-05 4.48088e-05 -6.62085e-21 -1.13805e-05 -4.13592e-20 4.1813e-07)
(1.68078e-05 3.77395e-05 -1.14003e-19 -1.70761e-05 3.88222e-21 2.68208e-07)
(2.01783e-05 3.03024e-05 -1.09546e-20 -2.02863e-05 4.0912e-21 1.08061e-07)
(2.15742e-05 2.37729e-05 3.49098e-21 -2.16066e-05 -8.48535e-21 3.2426e-08)
(2.1588e-05 1.80038e-05 -2.43971e-20 -2.16226e-05 4.31314e-21 3.45633e-08)
(2.01845e-05 1.2339e-05 3.08866e-20 -2.02234e-05 -1.57381e-19 3.8886e-08)
(1.67121e-05 6.67326e-06 1.84194e-19 -1.6728e-05 -3.60671e-20 1.59357e-08)
(1.20854e-05 2.2324e-06 -2.9882e-19 -1.20857e-05 -1.35818e-20 3.18109e-10)
(1.03738e-05 -3.34433e-07 3.139e-19 -1.03771e-05 -1.76786e-19 3.23032e-09)
(9.78478e-06 -2.15866e-06 3.04698e-19 -9.7888e-06 -3.5313e-21 4.01637e-09)
(9.45757e-06 -2.57723e-06 -3.63098e-19 -9.48245e-06 5.42048e-20 2.48769e-08)
(0.000111691 -6.93039e-05 6.10177e-21 -0.000111836 8.12843e-21 1.45071e-07)
(0.000119659 -5.05525e-05 4.5458e-20 -0.000119633 2.8785e-20 -2.54119e-08)
(0.00012464 -2.78398e-05 -2.93634e-20 -0.000124845 -3.24975e-20 2.0491e-07)
(1.90035e-05 -0.000113191 4.26901e-20 -1.90098e-05 3.47151e-20 6.31857e-09)
(-1.71218e-06 -0.000114677 5.86743e-20 1.74076e-06 4.74708e-20 -2.85706e-08)
(-2.22961e-05 -0.00011201 2.48784e-19 2.23111e-05 1.86955e-19 -1.50168e-08)
(-4.16794e-05 -0.000105274 -4.17275e-20 4.16952e-05 -3.11305e-20 -1.57838e-08)
(-5.9133e-05 -9.4782e-05 8.63854e-20 5.91799e-05 4.14121e-20 -4.6819e-08)
(-7.37357e-05 -8.12119e-05 -1.70822e-19 7.379e-05 -9.78505e-20 -5.42467e-08)
(-8.49066e-05 -6.52796e-05 1.27102e-19 8.49908e-05 6.94183e-20 -8.42632e-08)
(-9.23301e-05 -4.78075e-05 -3.17527e-19 9.24604e-05 -2.43762e-19 -1.30248e-07)
(-9.58433e-05 -2.97604e-05 1.05308e-20 9.60134e-05 3.26315e-20 -1.70122e-07)
(-9.55308e-05 -1.19951e-05 5.00855e-20 9.57586e-05 -2.66605e-20 -2.27863e-07)
(-9.16915e-05 4.64176e-06 8.43682e-20 9.19972e-05 1.69292e-20 -3.05708e-07)
(-8.48158e-05 1.94317e-05 1.40952e-20 8.52089e-05 1.19214e-20 -3.93014e-07)
(-7.55393e-05 3.18575e-05 -1.02409e-19 7.60518e-05 -9.43594e-20 -5.12528e-07)
(-6.45643e-05 4.15127e-05 -1.97351e-19 6.52004e-05 -6.20471e-20 -6.36153e-07)
(-5.25166e-05 4.82912e-05 -1.69851e-19 5.32419e-05 -4.90916e-20 -7.25317e-07)
(-4.01994e-05 5.22445e-05 -1.24036e-19 4.0929e-05 3.46872e-20 -7.29613e-07)
(-2.83059e-05 5.37138e-05 -7.86193e-20 2.8959e-05 -7.98922e-21 -6.53108e-07)
(-1.73837e-05 5.31203e-05 -8.40422e-21 1.7904e-05 3.69599e-20 -5.20303e-07)
(-7.57358e-06 5.09629e-05 9.62076e-20 7.95413e-06 6.07848e-20 -3.80556e-07)
(1.18367e-06 4.74244e-05 -6.93071e-21 -9.58485e-07 -3.81876e-20 -2.25182e-07)
(8.69876e-06 4.23422e-05 -5.19212e-20 -8.60323e-06 -7.94441e-21 -9.55236e-08)
(1.43703e-05 3.59319e-05 9.00304e-20 -1.43039e-05 2.66333e-20 -6.63728e-08)
(1.77388e-05 2.91493e-05 1.18135e-20 -1.76437e-05 4.32414e-21 -9.51256e-08)
(1.92195e-05 2.31745e-05 1.40464e-20 -1.91287e-05 -1.45349e-20 -9.08149e-08)
(1.97467e-05 1.83588e-05 9.59733e-21 -1.97045e-05 -4.73942e-21 -4.22165e-08)
(1.99254e-05 1.43123e-05 -2.35018e-19 -1.99247e-05 7.94629e-20 -6.77021e-10)
(1.99869e-05 1.06436e-05 -2.01243e-19 -1.99924e-05 -5.88927e-20 5.4261e-09)
(1.82688e-05 6.46122e-06 1.43319e-19 -1.8266e-05 2.97501e-19 -2.75168e-09)
(1.43824e-05 2.36947e-06 -2.05799e-19 -1.43822e-05 -2.52862e-19 -1.6232e-10)
(9.8362e-06 -5.32821e-07 4.38507e-20 -9.83116e-06 -1.22361e-19 -5.03767e-09)
(9.11389e-06 -2.81972e-06 1.92796e-19 -9.12875e-06 4.37532e-20 1.4867e-08)