/*--------------------------------*- C++ -*----------------------------------*\
| =========                 |                                                 |
| \\      /  F ield         | OpenFOAM: The Open Source CFD Toolbox           |
|  \\    /   O peration     | Version:  2506                                  |
|   \\  /    A nd           | Website:  www.openfoam.com                      |
|    \\/     M anipulation  |                                                 |
\*---------------------------------------------------------------------------*/
FoamFile
{
    version     2.0;
    format      ascii;
    arch        "LSB;label=32;scalar=64";
    class       volScalarField;
    location    "9";
    object      p;
}
// * * * * * * * * * * * * * * * * * * * * * * * * * * * * * * * * * * * * * //

dimensions      [0 2 -2 0 0 0 0];

internalField   nonuniform List<scalar> 
400
(
1.44034e-09
-7.17079e-05
-9.58523e-05
-9.16976e-05
-6.37261e-05
-3.09882e-06
0.000111372
0.000313256
0.000645576
0.00115008
0.00184639
0.00270821
0.00363162
0.00441247
0.00485123
0.00484602
0.00444526
0.00390369
0.00351691
0.00341163
8.73206e-05
1.40873e-05
7.24304e-06
2.58388e-05
6.0688e-05
0.000120003
0.000220961
0.00039076
0.000668135
0.00109824
0.00171252
0.00250105
0.00337758
0.00414956
0.00459509
0.00460115
0.0042461
0.00369617
0.00336398
0.00329121
6.45461e-05
-2.25486e-05
-2.67871e-05
-1.18134e-05
5.65611e-06
2.95593e-05
7.16704e-05
0.000155016
0.000321257
0.000632972
0.00115211
0.00189834
0.00280844
0.00366938
0.00422259
0.00430114
0.00395144
0.0034089
0.00299413
0.00288979
-0.000112824
-0.000213867
-0.000226796
-0.000233079
-0.000257093
-0.000301913
-0.000364435
-0.000430818
-0.000464191
-0.000387444
-9.37405e-05
0.000491608
0.00138664
0.00238459
0.00321198
0.00359708
0.00345657
0.00297986
0.00243957
0.00218597
-0.000495128
-0.000608214
-0.000641817
-0.000688704
-0.000780367
-0.000930169
-0.00115083
-0.00145489
-0.00184567
-0.00226992
-0.00255019
-0.00243845
-0.00187573
-0.000842219
0.000459175
0.00162647
0.00228452
0.00230735
0.00184605
0.00110776
-0.00110516
-0.00123041
-0.00129852
-0.00140789
-0.00159822
-0.00190004
-0.00235766
-0.00304542
-0.00407374
-0.00548882
-0.00705189
-0.00816722
-0.00833236
-0.00743774
-0.00557895
-0.00314063
-0.000757325
0.00081826
0.00107856
-0.000416651
-0.00193543
-0.00207379
-0.00219077
-0.00238638
-0.00271141
-0.00322407
-0.00402355
-0.00529167
-0.00731045
-0.0102419
-0.013688
-0.0165497
-0.0178107
-0.0172032
-0.0148813
-0.0111116
-0.00657066
-0.00248916
-0.000640419
-0.00220971
-0.002951
-0.00310253
-0.00328037
-0.00358356
-0.00407712
-0.0048568
-0.00609517
-0.00810259
-0.011325
-0.0159526
-0.0213325
-0.0258802
-0.0281383
-0.0278668
-0.0252537
-0.0206279
-0.0144762
-0.0079271
-0.00354363
-0.00289765
-0.00409503
-0.00425695
-0.00449977
-0.00491936
-0.00559438
-0.00665793
-0.00835062
-0.0110835
-0.0153893
-0.0213796
-0.0281416
-0.0337365
-0.0365774
-0.0363876
-0.0336421
-0.0288582
-0.0223407
-0.014517
-0.0074021
-0.00327054
-0.00529733
-0.00546229
-0.00576019
-0.00628177
-0.00711331
-0.00841256
-0.0104592
-0.0137022
-0.0186792
-0.0254009
-0.0328498
-0.0389087
-0.0419381
-0.041776
-0.0389905
-0.0343567
-0.0282644
-0.0205959
-0.0122702
-0.0055552
-0.00648606
-0.00664239
-0.00696894
-0.00755124
-0.0084742
-0.00990204
-0.0121185
-0.0155414
-0.0206761
-0.0274759
-0.0349876
-0.0411153
-0.0442161
-0.0441016
-0.0413112
-0.0368518
-0.0314155
-0.0247225
-0.0169743
-0.00940437
-0.00760076
-0.0077324
-0.00804679
-0.00862663
-0.00954935
-0.0109676
-0.0131464
-0.0164244
-0.0212633
-0.0275881
-0.0345547
-0.0403467
-0.0434138
-0.043396
-0.0406683
-0.0364346
-0.0317445
-0.026267
-0.0198194
-0.0124808
-0.00859984
-0.0086896
-0.00894825
-0.00944717
-0.0102707
-0.0115526
-0.0135091
-0.0164314
-0.0206129
-0.0260139
-0.0319673
-0.0370415
-0.0398648
-0.0399453
-0.0375811
-0.0337366
-0.029766
-0.0253804
-0.0202646
-0.0133571
-0.00947121
-0.0095056
-0.00964711
-0.00998813
-0.0106306
-0.0116898
-0.0133236
-0.0157345
-0.0191027
-0.0233949
-0.0281314
-0.0322709
-0.0346999
-0.0348956
-0.0329849
-0.029695
-0.0263438
-0.0227027
-0.0188476
-0.0119568
-0.0102343
-0.0102001
-0.0101657
-0.0102761
-0.0106742
-0.0114621
-0.0127465
-0.0146464
-0.0172579
-0.0205373
-0.0241505
-0.0273696
-0.0293389
-0.0295689
-0.0280693
-0.0253427
-0.0224986
-0.0192638
-0.0169217
-0.00874411
-0.0109445
-0.0108061
-0.0104808
-0.0102897
-0.0104167
-0.0109403
-0.0119207
-0.0134163
-0.0154619
-0.017998
-0.0207785
-0.0232873
-0.0248821
-0.0250841
-0.0238825
-0.0215873
-0.0190788
-0.0160211
-0.0151113
-0.0029447
-0.0116299
-0.0114178
-0.0107237
-0.0101484
-0.00998154
-0.0102666
-0.011014
-0.0122337
-0.0139221
-0.0160043
-0.0182808
-0.0203562
-0.0217421
-0.0219824
-0.0209806
-0.0188895
-0.0163877
-0.0131357
-0.0109894
0.0105234
-0.0133047
-0.0121657
-0.0105326
-0.00956532
-0.00922578
-0.00939204
-0.0100277
-0.0111156
-0.0126423
-0.0145209
-0.0165878
-0.0184976
-0.0198701
-0.0202323
-0.0194237
-0.0172466
-0.0139667
-0.00804779
0.00357739
0.0443891
-0.0121643
-0.0136106
-0.0111305
-0.00949242
-0.00880467
-0.00881239
-0.00934959
-0.0103495
-0.0118144
-0.0136271
-0.0156721
-0.0175852
-0.0190688
-0.0195294
-0.0186825
-0.0155449
-0.00887162
0.00696707
0.0420521
0.112419
-0.0297042
-0.0139389
-0.00807985
-0.0066466
-0.00646648
-0.00672953
-0.00743679
-0.00858831
-0.0102146
-0.0121618
-0.0143337
-0.0163816
-0.0180355
-0.0186097
-0.017244
-0.0115339
0.00301609
0.0369599
0.104558
0.208627
)
;

boundaryField
{
    movingWall
    {
        type            zeroGradient;
    }
    fixedWalls
    {
        type            zeroGradient;
    }
    frontAndBack
    {
        type            empty;
    }
}


// ************************************************************************* //
