/*--------------------------------*- C++ -*----------------------------------*\
| =========                 |                                                 |
| \\      /  F ield         | OpenFOAM: The Open Source CFD Toolbox           |
|  \\    /   O peration     | Version:  2506                                  |
|   \\  /    A nd           | Website:  www.openfoam.com                      |
|    \\/     M anipulation  |                                                 |
\*---------------------------------------------------------------------------*/
FoamFile
{
    version     2.0;
    format      ascii;
    arch        "LSB;label=32;scalar=64";
    class       surfaceScalarField;
    location    "9";
    object      phi;
}
// * * * * * * * * * * * * * * * * * * * * * * * * * * * * * * * * * * * * * //

dimensions      [0 3 -1 0 0 0 0];

oriented        oriented;

internalField   nonuniform List<scalar> 
760
(
-3.38549e-06
3.38549e-06
-1.35003e-05
1.01148e-05
-2.64477e-05
1.29473e-05
-4.07035e-05
1.42558e-05
-5.64594e-05
1.57559e-05
-7.43814e-05
1.7922e-05
-9.49439e-05
2.05626e-05
-0.000117877
2.29328e-05
-0.000141473
2.35958e-05
-0.000161993
2.05201e-05
-0.000173873
1.18802e-05
-0.000171061
-2.81182e-06
-0.000148465
-2.2596e-05
-0.000108112
-4.03527e-05
-5.77544e-05
-5.03579e-05
-1.06004e-05
-4.71541e-05
2.01401e-05
-3.07404e-05
2.64328e-05
-6.2928e-06
1.40085e-05
1.24243e-05
1.40085e-05
-1.36549e-05
1.70404e-05
-4.01309e-05
3.65908e-05
-7.21295e-05
4.49459e-05
-0.000107315
4.94418e-05
-0.000145577
5.40169e-05
-0.000187179
5.95246e-05
-0.00023162
6.50031e-05
-0.00027676
6.80729e-05
-0.000318178
6.50138e-05
-0.000349143
5.14848e-05
-0.000361927
2.46642e-05
-0.000349783
-1.49558e-05
-0.000308074
-6.43053e-05
-0.00023873
-0.000109696
-0.000151848
-0.00013724
-6.49927e-05
-0.000134009
-6.71566e-07
-9.50615e-05
2.69013e-05
-3.38656e-05
1.84296e-05
2.0896e-05
3.24382e-05
-2.15452e-05
3.85856e-05
-5.98962e-05
7.49418e-05
-0.0001051
9.01501e-05
-0.000154305
9.86467e-05
-0.000207092
0.000106803
-0.000263187
0.000115619
-0.000321317
0.000123133
-0.000378677
0.000125434
-0.000430796
0.000117133
-0.000471593
9.22814e-05
-0.000493937
4.70086e-05
-0.00049085
-1.8043e-05
-0.000453532
-0.000101624
-0.000379836
-0.000183391
-0.000275281
-0.000241795
-0.000155597
-0.000253694
-4.84744e-05
-0.000202184
1.26683e-05
-9.50083e-05
1.8387e-05
1.51772e-05
5.08251e-05
-2.63769e-05
6.49626e-05
-7.22216e-05
0.000120786
-0.000125677
0.000143606
-0.000183527
0.000156496
-0.000245304
0.000168581
-0.000310812
0.000181128
-0.000379266
0.000191587
-0.000449275
0.000195442
-0.000518931
0.000186789
-0.000584538
0.000157889
-0.000637375
9.98451e-05
-0.000666592
1.11736e-05
-0.000653109
-0.000115107
-0.000590028
-0.000246472
-0.000476827
-0.000354995
-0.00032276
-0.000407761
-0.000155797
-0.000369146
-2.72832e-05
-0.000223523
1.54231e-05
-2.7529e-05
6.62482e-05
-2.84719e-05
9.34345e-05
-7.79251e-05
0.00017024
-0.000135615
0.000201296
-0.000198219
0.0002191
-0.000265631
0.000235993
-0.000338616
0.000254113
-0.000418343
0.000271314
-0.000506592
0.000283691
-0.000604812
0.000285009
-0.00070969
0.000262767
-0.000806944
0.000197099
-0.000869066
7.3296e-05
-0.000883526
-0.000100647
-0.000840153
-0.000289845
-0.000734264
-0.000460884
-0.000563495
-0.00057853
-0.000340842
-0.0005918
-0.000116672
-0.000447692
4.90749e-06
-0.000149109
7.11557e-05
-2.8152e-05
0.000121587
-7.78673e-05
0.000219955
-0.000136463
0.000259892
-0.000200745
0.000283382
-0.000271294
0.000306542
-0.000350444
0.000333263
-0.000441964
0.000362834
-0.000550456
0.000392183
-0.000677702
0.000412254
-0.000814996
0.000400062
-0.000939213
0.000321315
-0.00102203
0.000156114
-0.00104988
-7.28033e-05
-0.00103061
-0.000309112
-0.000955142
-0.000536351
-0.000808317
-0.000725355
-0.000575516
-0.0008246
-0.000275843
-0.000747366
-3.1655e-05
-0.000393297
3.95007e-05
-2.57077e-05
0.000147294
-7.27121e-05
0.000266959
-0.000129159
0.000316339
-0.000192028
0.00034625
-0.00026252
0.000377034
-0.000344322
0.000415064
-0.000442837
0.000461349
-0.000562702
0.000512049
-0.000701306
0.000550858
-0.000841966
0.000540722
-0.000959119
0.000438468
-0.00103656
0.000233554
-0.00106714
-4.22261e-05
-0.00106967
-0.000306573
-0.00103636
-0.000569661
-0.000949196
-0.000812524
-0.000774105
-0.000999691
-0.000479357
-0.00104211
-0.000120722
-0.000751931
-8.12217e-05
-2.14454e-05
0.00016874
-6.30394e-05
0.000308553
-0.000114291
0.000367591
-0.000172115
0.000404074
-0.000237679
0.000442597
-0.000314729
0.000492114
-0.000407946
0.000554566
-0.000519027
0.00062313
-0.000640553
0.000672384
-0.000754325
0.000654495
-0.00084189
0.000526033
-0.000898161
0.000289825
-0.00092966
-1.07278e-05
-0.000942345
-0.000293887
-0.00094198
-0.000570026
-0.000920835
-0.000833669
-0.000839165
-0.00108136
-0.000628581
-0.0012527
-0.000249674
-0.00113084
-0.000330895
-1.57878e-05
0.000184527
-4.96458e-05
0.000342411
-9.27676e-05
0.000410713
-0.0001416
0.000452906
-0.000196347
0.000497345
-0.000259375
0.000555142
-0.000333136
0.000628327
-0.00041669
0.000706684
-0.000502306
0.000758
-0.000577254
0.000729443
-0.000633015
0.000581794
-0.000669705
0.000326515
-0.000699738
1.9305e-05
-0.000714991
-0.000278634
-0.000730168
-0.000554849
-0.000750437
-0.000813401
-0.000748118
-0.00108368
-0.000644532
-0.00135628
-0.000358615
-0.00141676
-0.00068951
-9.37779e-06
0.000193905
-3.38587e-05
0.000366892
-6.64876e-05
0.000443342
-0.000102966
0.000489385
-0.000141893
0.000536272
-0.00018356
0.000596809
-0.000228256
0.000673023
-0.000274282
0.000752709
-0.000318134
0.000801852
-0.000356294
0.000767603
-0.000389107
0.000614607
-0.000418969
0.000356377
-0.000448216
4.85519e-05
-0.000472143
-0.000254707
-0.00049773
-0.000529262
-0.000536714
-0.000774417
-0.000581529
-0.00103886
-0.000562681
-0.00137513
-0.000372538
-0.0016069
-0.00106205
-3.07896e-06
0.000196984
-1.75729e-05
0.000381386
-3.84749e-05
0.000464244
-6.07542e-05
0.000511664
-8.12811e-05
0.000556799
-9.8269e-05
0.000613797
-0.000110601
0.000685355
-0.000116729
0.000758837
-0.000119562
0.000804685
-0.000125205
0.000773247
-0.000138602
0.000628004
-0.000162384
0.00038016
-0.000196245
8.24124e-05
-0.000233989
-0.000216963
-0.000273431
-0.00048982
-0.000327753
-0.000720095
-0.000404191
-0.000962427
-0.00044513
-0.00133419
-0.000322869
-0.00172916
-0.00138492
2.19607e-06
0.000194788
-2.97305e-06
0.000386555
-1.2355e-05
0.000473626
-2.02977e-05
0.000519607
-2.24196e-05
0.00055892
-1.53026e-05
0.00060668
3.98328e-06
0.000666069
3.27599e-05
0.000730061
6.73363e-05
0.000770108
9.5848e-05
0.000744735
0.000106189
0.000617663
9.23668e-05
0.000393982
5.62631e-05
0.000118516
8.64169e-06
-0.000169342
-5.34152e-05
-0.000427763
-0.000131266
-0.000642244
-0.000235435
-0.000858257
-0.000324783
-0.00124484
-0.000265383
-0.00178856
-0.0016503
5.33405e-06
0.000189454
7.28735e-06
0.000384602
7.99801e-06
0.000472915
1.276e-05
0.000514845
2.61075e-05
0.000545573
5.17888e-05
0.000580999
9.28001e-05
0.000625057
0.000150921
0.000671939
0.00021936
0.000701669
0.000282152
0.000681943
0.000319369
0.000580446
0.000319859
0.000393492
0.000284581
0.000153794
0.000219002
-0.000103763
0.000137707
-0.000346468
3.64273e-05
-0.000540965
-9.15645e-05
-0.000730265
-0.000215055
-0.00112135
-0.000208712
-0.0017949
-0.00185901
5.47121e-06
0.000183983
1.11016e-05
0.000378972
1.92055e-05
0.000464811
3.42659e-05
0.000499784
6.00791e-05
0.00051976
0.000100057
0.000541021
0.000157141
0.000567974
0.000232358
0.000596723
0.000320084
0.000613943
0.000405037
0.00059699
0.000465071
0.000520412
0.000484004
0.000374559
0.000459161
0.000178637
0.000390095
-3.46966e-05
0.000291217
-0.00024759
0.000169572
-0.00041932
2.23107e-05
-0.000583004
-0.000125334
-0.000973709
-0.000159928
-0.00176031
-0.00201894
1.46159e-06
0.000182521
6.39966e-06
0.000374034
1.85056e-05
0.000452706
4.19114e-05
0.000476379
7.78996e-05
0.000483772
0.000128107
0.000490813
0.00019425
0.000501831
0.000276786
0.000514187
0.000371455
0.000519275
0.00046596
0.000502485
0.000540097
0.000446275
0.000574569
0.000340087
0.000560885
0.000192321
0.000501265
2.49233e-05
0.000396687
-0.000143011
0.000264139
-0.000286773
0.000107929
-0.000426793
-5.05459e-05
-0.000815234
-0.000115865
-0.00169499
-0.0021348
-7.40763e-06
0.000189929
-7.71328e-06
0.000374339
7.04685e-06
0.000437945
3.65272e-05
0.000446898
8.02326e-05
0.000440066
0.000137417
0.000433628
0.000208193
0.000431055
0.000292108
0.000430272
0.000385715
0.000425667
0.000479909
0.00040829
0.000558633
0.000367551
0.000603535
0.000295185
0.000602028
0.000193828
0.00055152
7.54319e-05
0.000453293
-4.47839e-05
0.000322564
-0.000156044
0.000172299
-0.000276528
1.06773e-05
-0.000653613
-6.24276e-05
-0.00162189
-0.00219723
-2.9661e-05
0.00021959
-4.97028e-05
0.000394381
-3.17997e-05
0.000420042
1.10604e-05
0.000404038
6.70561e-05
0.000384071
0.000132826
0.000367859
0.000207865
0.000356016
0.000291688
0.000346449
0.000381359
0.000335997
0.000470502
0.000319147
0.000546909
0.000291144
0.000596142
0.000245952
0.00060427
0.000185699
0.00056572
0.000113982
0.000480695
4.02412e-05
0.000365469
-4.08182e-05
0.000242285
-0.000153344
0.000123638
-0.000534966
1.9761e-05
-0.00151801
-0.00217747
-3.64227e-05
0.000256013
-6.44364e-05
0.000422395
-5.48297e-05
0.000410436
-1.68632e-05
0.000366072
3.9573e-05
0.000327634
0.0001072
0.000300232
0.000183433
0.000279783
0.000267273
0.000262609
0.000354821
0.000248448
0.000441712
0.000232256
0.000518259
0.000214598
0.000575284
0.000188927
0.00060105
0.000159934
0.000591286
0.000123746
0.000544029
8.74979e-05
0.000475565
2.76464e-05
0.000409399
-8.71777e-05
0.000321644
-0.000447211
0.000154172
-0.00135054
-0.0020233
-0.000392356
0.000648368
-0.000365458
0.000395497
-0.000227618
0.000272596
-8.80824e-05
0.000226536
4.19905e-05
0.000197561
0.000168352
0.00017387
0.000292414
0.000155721
0.000415157
0.000139866
0.000534579
0.000129026
0.000649594
0.000117241
0.000755187
0.000109005
0.000847303
9.68108e-05
0.000918482
8.87554e-05
0.000967247
7.49807e-05
0.000993051
6.16935e-05
0.000993754
2.69441e-05
0.000974589
-6.80129e-05
0.000900034
-0.000372656
0.000519246
-0.000969748
-0.00150405
0.000648368
0.00104387
0.00131646
0.001543
0.00174056
0.00191443
0.00207015
0.00221002
0.00233904
0.00245628
0.00256529
0.0026621
0.00275085
0.00282583
0.00288753
0.00291447
0.00284646
0.0024738
0.00150405
)
;

boundaryField
{
    movingWall
    {
        type            calculated;
        value           uniform 0;
    }
    fixedWalls
    {
        type            calculated;
        value           uniform 0;
    }
    frontAndBack
    {
        type            empty;
    }
}


// ************************************************************************* //
