/*--------------------------------*- C++ -*----------------------------------*\
| =========                 |                                                 |
| \\      /  F ield         | OpenFOAM: The Open Source CFD Toolbox           |
|  \\    /   O peration     | Version:  2506                                  |
|   \\  /    A nd           | Website:  www.openfoam.com                      |
|    \\/     M anipulation  |                                                 |
\*---------------------------------------------------------------------------*/
FoamFile
{
    version     2.0;
    format      ascii;
    arch        "LSB;label=32;scalar=64";
    class       pointScalarField;
    location    "9";
    object      streamFunction;
}
// * * * * * * * * * * * * * * * * * * * * * * * * * * * * * * * * * * * * * //

dimensions      [0 3 -1 0 0 0 0];

internalField   nonuniform List<scalar> 
882
(
0
0
0
0
0
0
0
0
0
0
0
0
0
0
0
0
0
0
0
0
0
0
-3.38504e-05
-0.000135051
-0.00026449
-0.000407074
-0.000564607
-0.000743822
-0.000949434
-0.00117881
-0.00141469
-0.0016199
-0.00173875
-0.00171063
-0.0014845
-0.00108112
-0.000577628
-0.000105976
0.000201368
0.000264342
0.000140124
0
0
-0.000170399
-0.00053636
-0.000985785
-0.00148022
-0.00202038
-0.00261561
-0.00326563
-0.00394641
-0.00459647
-0.00511133
-0.00535802
-0.00520846
-0.00456524
-0.00346842
-0.00209611
-0.000755903
0.000194652
0.000533355
0.00032442
0
0
-0.000385851
-0.00113532
-0.00203678
-0.00302327
-0.0040913
-0.00524748
-0.0064788
-0.00773318
-0.00890443
-0.00982726
-0.0102974
-0.010117
-0.00910056
-0.00726678
-0.00484892
-0.00231187
-0.000290092
0.000660038
0.00050829
0
0
-0.00064962
-0.00185754
-0.00329355
-0.00485854
-0.00654434
-0.0083556
-0.0102715
-0.0122259
-0.0140937
-0.0156726
-0.0166711
-0.0167829
-0.0156317
-0.0131671
-0.00961719
-0.00553947
-0.00184806
0.000387206
0.000662521
0
0
-0.000934339
-0.00263679
-0.0046497
-0.00684073
-0.00920065
-0.0117418
-0.0144549
-0.0172918
-0.0201419
-0.0227695
-0.0247406
-0.0254735
-0.0244669
-0.0215686
-0.0169598
-0.0111744
-0.00525648
-0.000779514
0.000711596
0
0
-0.00121586
-0.00341546
-0.00601433
-0.00884818
-0.0119136
-0.0152462
-0.0188745
-0.0227964
-0.0269189
-0.0309195
-0.0341327
-0.0356938
-0.0349657
-0.0318747
-0.0265112
-0.0192576
-0.0110116
-0.00353794
0.000395046
0
0
-0.00147294
-0.00414258
-0.00730592
-0.0107685
-0.0145388
-0.0186894
-0.0233029
-0.0284234
-0.0339319
-0.0393392
-0.0437239
-0.0460594
-0.0456371
-0.0425714
-0.0368748
-0.0287496
-0.0187527
-0.00833151
-0.000812174
0
0
-0.00168739
-0.00477298
-0.00844883
-0.0124896
-0.0169156
-0.0218367
-0.0273824
-0.0336137
-0.0403375
-0.0468824
-0.0521428
-0.055041
-0.0549337
-0.0519948
-0.0462946
-0.0379579
-0.0271443
-0.0146173
-0.00330891
0
0
-0.00184527
-0.00526943
-0.00937651
-0.0139056
-0.018879
-0.0244305
-0.0307137
-0.0377806
-0.0453605
-0.0526549
-0.058473
-0.0617381
-0.0619311
-0.0591447
-0.0535963
-0.0454623
-0.0346255
-0.0210626
-0.00689506
0
0
-0.00193905
-0.00560802
-0.0100414
-0.0149353
-0.020298
-0.0262661
-0.0329963
-0.0405234
-0.0485419
-0.0562179
-0.062364
-0.0659278
-0.0664133
-0.0638662
-0.0585736
-0.0508294
-0.0404408
-0.0266895
-0.0106204
0
0
-0.00196984
-0.00578375
-0.0104261
-0.0155428
-0.0211108
-0.0272488
-0.0341023
-0.0416907
-0.0497375
-0.0574699
-0.06375
-0.0675516
-0.0683757
-0.0662061
-0.0613079
-0.0541069
-0.0444827
-0.0311408
-0.0138491
0
0
-0.00194788
-0.00581348
-0.0105497
-0.0157458
-0.021335
-0.0274018
-0.0340625
-0.0413631
-0.0490641
-0.0565115
-0.0626881
-0.066628
-0.0678131
-0.0661197
-0.0618421
-0.0554196
-0.0468371
-0.0343886
-0.016503
0
0
-0.00189453
-0.00574061
-0.0104697
-0.0156182
-0.0210739
-0.0268839
-0.0331345
-0.0398539
-0.0468705
-0.0536899
-0.0594945
-0.0634294
-0.0649673
-0.0639296
-0.060465
-0.0550553
-0.0477527
-0.0365391
-0.0185901
0
0
-0.00183982
-0.00562959
-0.0102777
-0.0152755
-0.0204731
-0.0258833
-0.0315631
-0.0375303
-0.0436697
-0.0496396
-0.0548438
-0.0585893
-0.0603756
-0.0600287
-0.0575528
-0.0533596
-0.0475296
-0.0377925
-0.0201894
0
0
-0.00182521
-0.0055656
-0.0100926
-0.0148564
-0.0196941
-0.0246022
-0.0296206
-0.0347625
-0.0399551
-0.04498
-0.0494428
-0.0528436
-0.0547668
-0.055016
-0.053586
-0.0507182
-0.0464503
-0.0382979
-0.021348
0
0
-0.00189928
-0.00564273
-0.0100221
-0.0144911
-0.0188918
-0.0232281
-0.0275386
-0.0318414
-0.036098
-0.0401809
-0.0438565
-0.0468083
-0.0487465
-0.0495008
-0.049053
-0.0474926
-0.0447273
-0.0381912
-0.0219723
0
0
-0.00219589
-0.00613976
-0.0103401
-0.0143805
-0.0182212
-0.0218998
-0.02546
-0.0289245
-0.0322844
-0.0354759
-0.0383874
-0.0408469
-0.0427038
-0.0438436
-0.0442461
-0.0438379
-0.0423045
-0.0369548
-0.0217747
0
0
-0.00256012
-0.00678412
-0.0108884
-0.0145492
-0.0178255
-0.0208278
-0.0236256
-0.0262518
-0.0287362
-0.0310587
-0.0332048
-0.035094
-0.0366933
-0.0379308
-0.0388058
-0.0390822
-0.0382105
-0.0337383
-0.020233
0
0
-0.00648368
-0.0104387
-0.0131646
-0.01543
-0.0174056
-0.0191443
-0.0207015
-0.0221002
-0.0233904
-0.0245628
-0.0256529
-0.026621
-0.0275085
-0.0282583
-0.0288753
-0.0291447
-0.0284646
-0.024738
-0.0150405
0
0
0
0
0
0
0
0
0
0
0
0
0
0
0
0
0
0
0
0
0
0
0
0
0
0
0
0
0
0
0
0
0
0
0
0
0
0
0
0
0
0
0
0
-3.38504e-05
-0.000135051
-0.00026449
-0.000407074
-0.000564607
-0.000743822
-0.000949434
-0.00117881
-0.00141469
-0.0016199
-0.00173875
-0.00171063
-0.0014845
-0.00108112
-0.000577628
-0.000105976
0.000201368
0.000264342
0.000140124
0
0
-0.000170399
-0.00053636
-0.000985785
-0.00148022
-0.00202038
-0.00261561
-0.00326563
-0.00394641
-0.00459647
-0.00511133
-0.00535802
-0.00520846
-0.00456524
-0.00346842
-0.00209611
-0.000755903
0.000194652
0.000533355
0.00032442
0
0
-0.000385851
-0.00113532
-0.00203678
-0.00302327
-0.0040913
-0.00524748
-0.0064788
-0.00773318
-0.00890443
-0.00982726
-0.0102974
-0.010117
-0.00910056
-0.00726678
-0.00484892
-0.00231187
-0.000290092
0.000660038
0.00050829
0
0
-0.00064962
-0.00185754
-0.00329355
-0.00485854
-0.00654434
-0.0083556
-0.0102715
-0.0122259
-0.0140937
-0.0156726
-0.0166711
-0.0167829
-0.0156317
-0.0131671
-0.00961719
-0.00553947
-0.00184806
0.000387206
0.000662521
0
0
-0.000934339
-0.00263679
-0.0046497
-0.00684073
-0.00920065
-0.0117418
-0.0144549
-0.0172918
-0.0201419
-0.0227695
-0.0247406
-0.0254735
-0.0244669
-0.0215686
-0.0169598
-0.0111744
-0.00525648
-0.000779514
0.000711596
0
0
-0.00121586
-0.00341546
-0.00601433
-0.00884818
-0.0119136
-0.0152462
-0.0188745
-0.0227964
-0.0269189
-0.0309195
-0.0341327
-0.0356938
-0.0349657
-0.0318747
-0.0265112
-0.0192576
-0.0110116
-0.00353794
0.000395046
0
0
-0.00147294
-0.00414258
-0.00730592
-0.0107685
-0.0145388
-0.0186894
-0.0233029
-0.0284234
-0.0339319
-0.0393392
-0.0437239
-0.0460594
-0.0456371
-0.0425714
-0.0368748
-0.0287496
-0.0187527
-0.00833151
-0.000812174
0
0
-0.00168739
-0.00477298
-0.00844883
-0.0124896
-0.0169156
-0.0218367
-0.0273824
-0.0336137
-0.0403375
-0.0468824
-0.0521428
-0.055041
-0.0549337
-0.0519948
-0.0462946
-0.0379579
-0.0271443
-0.0146173
-0.00330891
0
0
-0.00184527
-0.00526943
-0.00937651
-0.0139056
-0.018879
-0.0244305
-0.0307137
-0.0377806
-0.0453605
-0.0526549
-0.058473
-0.0617381
-0.0619311
-0.0591447
-0.0535963
-0.0454623
-0.0346255
-0.0210626
-0.00689506
0
0
-0.00193905
-0.00560802
-0.0100414
-0.0149353
-0.020298
-0.0262661
-0.0329963
-0.0405234
-0.0485419
-0.0562179
-0.062364
-0.0659278
-0.0664133
-0.0638662
-0.0585736
-0.0508294
-0.0404408
-0.0266895
-0.0106204
0
0
-0.00196984
-0.00578375
-0.0104261
-0.0155428
-0.0211108
-0.0272488
-0.0341023
-0.0416907
-0.0497375
-0.0574699
-0.06375
-0.0675516
-0.0683757
-0.0662061
-0.0613079
-0.0541069
-0.0444827
-0.0311408
-0.0138491
0
0
-0.00194788
-0.00581348
-0.0105497
-0.0157458
-0.021335
-0.0274018
-0.0340625
-0.0413631
-0.0490641
-0.0565115
-0.0626881
-0.066628
-0.0678131
-0.0661197
-0.0618421
-0.0554196
-0.0468371
-0.0343886
-0.016503
0
0
-0.00189453
-0.00574061
-0.0104697
-0.0156182
-0.0210739
-0.0268839
-0.0331345
-0.0398539
-0.0468705
-0.0536899
-0.0594945
-0.0634294
-0.0649673
-0.0639296
-0.060465
-0.0550553
-0.0477527
-0.0365391
-0.0185901
0
0
-0.00183982
-0.00562959
-0.0102777
-0.0152755
-0.0204731
-0.0258833
-0.0315631
-0.0375303
-0.0436697
-0.0496396
-0.0548438
-0.0585893
-0.0603756
-0.0600287
-0.0575528
-0.0533596
-0.0475296
-0.0377925
-0.0201894
0
0
-0.00182521
-0.0055656
-0.0100926
-0.0148564
-0.0196941
-0.0246022
-0.0296206
-0.0347625
-0.0399551
-0.04498
-0.0494428
-0.0528436
-0.0547668
-0.055016
-0.053586
-0.0507182
-0.0464503
-0.0382979
-0.021348
0
0
-0.00189928
-0.00564273
-0.0100221
-0.0144911
-0.0188918
-0.0232281
-0.0275386
-0.0318414
-0.036098
-0.0401809
-0.0438565
-0.0468083
-0.0487465
-0.0495008
-0.049053
-0.0474926
-0.0447273
-0.0381912
-0.0219723
0
0
-0.00219589
-0.00613976
-0.0103401
-0.0143805
-0.0182212
-0.0218998
-0.02546
-0.0289245
-0.0322844
-0.0354759
-0.0383874
-0.0408469
-0.0427038
-0.0438436
-0.0442461
-0.0438379
-0.0423045
-0.0369548
-0.0217747
0
0
-0.00256012
-0.00678412
-0.0108884
-0.0145492
-0.0178255
-0.0208278
-0.0236256
-0.0262518
-0.0287362
-0.0310587
-0.0332048
-0.035094
-0.0366933
-0.0379308
-0.0388058
-0.0390822
-0.0382105
-0.0337383
-0.020233
0
0
-0.00648368
-0.0104387
-0.0131646
-0.01543
-0.0174056
-0.0191443
-0.0207015
-0.0221002
-0.0233904
-0.0245628
-0.0256529
-0.026621
-0.0275085
-0.0282583
-0.0288753
-0.0291447
-0.0284646
-0.024738
-0.0150405
0
0
0
0
0
0
0
0
0
0
0
0
0
0
0
0
0
0
0
0
0
0
)
;

boundaryField
{
    movingWall
    {
        type            calculated;
    }
    fixedWalls
    {
        type            calculated;
    }
    frontAndBack
    {
        type            empty;
    }
}


// ************************************************************************* //
