/*--------------------------------*- C++ -*----------------------------------*\
| =========                 |                                                 |
| \\      /  F ield         | OpenFOAM: The Open Source CFD Toolbox           |
|  \\    /   O peration     | Version:  2506                                  |
|   \\  /    A nd           | Website:  www.openfoam.com                      |
|    \\/     M anipulation  |                                                 |
\*---------------------------------------------------------------------------*/
FoamFile
{
    version     2.0;
    format      ascii;
    arch        "LSB;label=32;scalar=64";
    class       volScalarField;
    location    "100";
    object      nuTilda;
}
// * * * * * * * * * * * * * * * * * * * * * * * * * * * * * * * * * * * * * //

dimensions      [0 2 -1 0 0 0 0];

internalField   nonuniform List<scalar> 
1340
(
4.39109e-05
4.78129e-05
5.3137e-05
6.02651e-05
6.98836e-05
8.29753e-05
0.000101155
0.000126713
0.000163464
0.00021756
0.000299382
0.000427523
0.000633578
0.000984909
0.00158887
0.00274767
0.00488134
0.00969457
0.0191952
0.0430549
0.0790371
0.103014
0.112101
0.114629
0.115322
0.115282
0.114684
0.113638
3.99102e-05
3.97592e-05
3.94723e-05
3.91078e-05
3.86857e-05
3.82119e-05
3.76849e-05
3.70975e-05
3.64085e-05
3.55998e-05
3.45734e-05
3.32696e-05
3.14782e-05
2.8978e-05
2.5271e-05
1.9983e-05
1.3131e-05
7.42669e-06
3.61531e-05
0.000188719
0.00109074
0.00641409
0.0182906
0.0340629
0.0492942
0.0602289
0.0664638
0.0697813
0.071787
4.00994e-05
4.01063e-05
4.01297e-05
4.01639e-05
4.02022e-05
4.02493e-05
4.03037e-05
4.03632e-05
4.04296e-05
4.05023e-05
4.0584e-05
4.06763e-05
4.07847e-05
4.09143e-05
4.1076e-05
4.12834e-05
4.15519e-05
4.18641e-05
4.20778e-05
4.16154e-05
4.06398e-05
3.29869e-05
0.000206285
0.00118905
0.00403296
0.0093272
0.0167533
0.0254482
0.0344123
4.0073e-05
4.00698e-05
4.00593e-05
4.00472e-05
4.00366e-05
4.00274e-05
4.00191e-05
4.00128e-05
4.00088e-05
4.00063e-05
4.00053e-05
4.00057e-05
4.00071e-05
4.00092e-05
4.00119e-05
4.00144e-05
4.00165e-05
4.00176e-05
4.00203e-05
4.00228e-05
4.00541e-05
4.00082e-05
4.03935e-05
3.89469e-05
4.45217e-05
2.34888e-05
3.59724e-05
0.000333751
0.00136109
0.00368108
4.00919e-05
4.00855e-05
4.00781e-05
4.0072e-05
4.00677e-05
4.00642e-05
4.00621e-05
4.00617e-05
4.00626e-05
4.00652e-05
4.00694e-05
4.00752e-05
4.00824e-05
4.0091e-05
4.01006e-05
4.01111e-05
4.01224e-05
4.01347e-05
4.0148e-05
4.01646e-05
4.01794e-05
4.02175e-05
4.01706e-05
4.05259e-05
3.91128e-05
4.56775e-05
4.16664e-06
8.55064e-05
9.73114e-06
0.000863452
4.00849e-05
4.00868e-05
4.00847e-05
4.00811e-05
4.00779e-05
4.00746e-05
4.00712e-05
4.00679e-05
4.0065e-05
4.00624e-05
4.00608e-05
4.00601e-05
4.00605e-05
4.00618e-05
4.00639e-05
4.00667e-05
4.00699e-05
4.00734e-05
4.00767e-05
4.0081e-05
4.00859e-05
4.00914e-05
4.00972e-05
4.01052e-05
4.01106e-05
4.01224e-05
4.01535e-05
4.01571e-05
3.80467e-05
2.98133e-05
8.91113e-06
4.00689e-05
4.00737e-05
4.00764e-05
4.00783e-05
4.00797e-05
4.00796e-05
4.00782e-05
4.00761e-05
4.00736e-05
4.00709e-05
4.00686e-05
4.0067e-05
4.00662e-05
4.00663e-05
4.00676e-05
4.00698e-05
4.00731e-05
4.00772e-05
4.00822e-05
4.0088e-05
4.00949e-05
4.01029e-05
4.01121e-05
4.0123e-05
4.01345e-05
4.01526e-05
4.01477e-05
4.0253e-05
4.02651e-05
3.94684e-05
3.70596e-05
4.00439e-05
4.00512e-05
4.00588e-05
4.00661e-05
4.00716e-05
4.0075e-05
4.00767e-05
4.00769e-05
4.00762e-05
4.00746e-05
4.00727e-05
4.00708e-05
4.00691e-05
4.0068e-05
4.00675e-05
4.00678e-05
4.00687e-05
4.00704e-05
4.00727e-05
4.00757e-05
4.00791e-05
4.0083e-05
4.00874e-05
4.00922e-05
4.00971e-05
4.01019e-05
4.01072e-05
4.01095e-05
4.01277e-05
4.01492e-05
4.04405e-05
4.00168e-05
4.00169e-05
4.00252e-05
4.00362e-05
4.00467e-05
4.00556e-05
4.00624e-05
4.00674e-05
4.00708e-05
4.00728e-05
4.00734e-05
4.00732e-05
4.00724e-05
4.00714e-05
4.00703e-05
4.00695e-05
4.00691e-05
4.00693e-05
4.00701e-05
4.00716e-05
4.00738e-05
4.00768e-05
4.00808e-05
4.00857e-05
4.00915e-05
4.00984e-05
4.01063e-05
4.01155e-05
4.01254e-05
4.01354e-05
4.01498e-05
4.02339e-05
3.99956e-05
4.00028e-05
4.00133e-05
4.00249e-05
4.00355e-05
4.00445e-05
4.00522e-05
4.00586e-05
4.00634e-05
4.00667e-05
4.00688e-05
4.00699e-05
4.00703e-05
4.00702e-05
4.00699e-05
4.00695e-05
4.00694e-05
4.00695e-05
4.00701e-05
4.00712e-05
4.00729e-05
4.00753e-05
4.00785e-05
4.00824e-05
4.0087e-05
4.00923e-05
4.00983e-05
4.01051e-05
4.01117e-05
4.01242e-05
4.01191e-05
3.99903e-05
3.99977e-05
4.00069e-05
4.00166e-05
4.00259e-05
4.00348e-05
4.0043e-05
4.00499e-05
4.00555e-05
4.00598e-05
4.0063e-05
4.00653e-05
4.00667e-05
4.00676e-05
4.00681e-05
4.00685e-05
4.00688e-05
4.00693e-05
4.00701e-05
4.00714e-05
4.00732e-05
4.00757e-05
4.0079e-05
4.00831e-05
4.00881e-05
4.0094e-05
4.0101e-05
4.01087e-05
4.01182e-05
4.01231e-05
3.99935e-05
3.99982e-05
4.00043e-05
4.00116e-05
4.00197e-05
4.00278e-05
4.00353e-05
4.00419e-05
4.00477e-05
4.00525e-05
4.00564e-05
4.00596e-05
4.0062e-05
4.00638e-05
4.00651e-05
4.00662e-05
4.00671e-05
4.00681e-05
4.00692e-05
4.00707e-05
4.00726e-05
4.00752e-05
4.00783e-05
4.00822e-05
4.00869e-05
4.00923e-05
4.00988e-05
4.01061e-05
4.01156e-05
4.00009e-05
4.00019e-05
4.00052e-05
4.00104e-05
4.00164e-05
4.00226e-05
4.00288e-05
4.00348e-05
4.00403e-05
4.00453e-05
4.00497e-05
4.00534e-05
4.00566e-05
4.00591e-05
4.00612e-05
4.0063e-05
4.00647e-05
4.00662e-05
4.00679e-05
4.00698e-05
4.00721e-05
4.0075e-05
4.00784e-05
4.00825e-05
4.00873e-05
4.00931e-05
4.00998e-05
4.01081e-05
4.00097e-05
4.00073e-05
4.00085e-05
4.00113e-05
4.0015e-05
4.00194e-05
4.00243e-05
4.00293e-05
4.00344e-05
4.00391e-05
4.00436e-05
4.00476e-05
4.00512e-05
4.00543e-05
4.0057e-05
4.00595e-05
4.00617e-05
4.00639e-05
4.00662e-05
4.00686e-05
4.00713e-05
4.00744e-05
4.00781e-05
4.00823e-05
4.00873e-05
4.00933e-05
4.01003e-05
4.00162e-05
4.00137e-05
4.00131e-05
4.00138e-05
4.00156e-05
4.00184e-05
4.00219e-05
4.00259e-05
4.00301e-05
4.00344e-05
4.00386e-05
4.00426e-05
4.00462e-05
4.00496e-05
4.00527e-05
4.00557e-05
4.00585e-05
4.00613e-05
4.00641e-05
4.0067e-05
4.00702e-05
4.00738e-05
4.00778e-05
4.00824e-05
4.00878e-05
4.00941e-05
4.00288e-05
4.00233e-05
4.00198e-05
4.00179e-05
4.00171e-05
4.00175e-05
4.00189e-05
4.00212e-05
4.00241e-05
4.00274e-05
4.00309e-05
4.00345e-05
4.00381e-05
4.00416e-05
4.00451e-05
4.00484e-05
4.00517e-05
4.0055e-05
4.00582e-05
4.00616e-05
4.0065e-05
4.00687e-05
4.00727e-05
4.00771e-05
4.00823e-05
4.00881e-05
4.00312e-05
4.00274e-05
4.00243e-05
4.00218e-05
4.00203e-05
4.00199e-05
4.00203e-05
4.00214e-05
4.00232e-05
4.00255e-05
4.00282e-05
4.00311e-05
4.00343e-05
4.00376e-05
4.0041e-05
4.00445e-05
4.0048e-05
4.00516e-05
4.00553e-05
4.0059e-05
4.00629e-05
4.00671e-05
4.00716e-05
4.00766e-05
4.00823e-05
4.0034e-05
4.00323e-05
4.00294e-05
4.00267e-05
4.00246e-05
4.00231e-05
4.00221e-05
4.00217e-05
4.0022e-05
4.00229e-05
4.00244e-05
4.00264e-05
4.00287e-05
4.00315e-05
4.00345e-05
4.00378e-05
4.00413e-05
4.00449e-05
4.00487e-05
4.00526e-05
4.00567e-05
4.0061e-05
4.00656e-05
4.00707e-05
4.00763e-05
4.0032e-05
4.00311e-05
4.00296e-05
4.0028e-05
4.00263e-05
4.00248e-05
4.00236e-05
4.00229e-05
4.00227e-05
4.00231e-05
4.00239e-05
4.00253e-05
4.00272e-05
4.00296e-05
4.00323e-05
4.00354e-05
4.00388e-05
4.00424e-05
4.00463e-05
4.00504e-05
4.00547e-05
4.00594e-05
4.00645e-05
4.007e-05
4.00266e-05
4.00283e-05
4.00287e-05
4.00284e-05
4.00275e-05
4.00264e-05
4.00253e-05
4.00243e-05
4.00235e-05
4.00232e-05
4.00232e-05
4.00238e-05
4.00248e-05
4.00263e-05
4.00284e-05
4.00308e-05
4.00336e-05
4.00369e-05
4.00404e-05
4.00443e-05
4.00485e-05
4.00531e-05
4.00581e-05
4.00636e-05
4.00188e-05
4.00224e-05
4.00247e-05
4.00258e-05
4.00262e-05
4.0026e-05
4.00255e-05
4.00249e-05
4.00242e-05
4.00236e-05
4.00233e-05
4.00233e-05
4.00237e-05
4.00245e-05
4.00257e-05
4.00275e-05
4.00297e-05
4.00323e-05
4.00354e-05
4.00388e-05
4.00427e-05
4.0047e-05
4.00518e-05
4.00572e-05
4.00166e-05
4.00194e-05
4.00214e-05
4.00228e-05
4.00237e-05
4.00241e-05
4.00241e-05
4.00238e-05
4.00235e-05
4.00232e-05
4.0023e-05
4.00231e-05
4.00234e-05
4.00241e-05
4.00252e-05
4.00268e-05
4.00288e-05
4.00313e-05
4.00342e-05
4.00376e-05
4.00415e-05
4.00459e-05
4.0051e-05
4.00125e-05
4.00146e-05
4.00169e-05
4.00189e-05
4.00204e-05
4.00214e-05
4.0022e-05
4.00224e-05
4.00225e-05
4.00225e-05
4.00224e-05
4.00224e-05
4.00226e-05
4.0023e-05
4.00237e-05
4.00248e-05
4.00263e-05
4.00282e-05
4.00306e-05
4.00334e-05
4.00368e-05
4.00407e-05
4.00453e-05
4.00122e-05
4.00138e-05
4.00154e-05
4.00168e-05
4.00181e-05
4.00191e-05
4.00199e-05
4.00205e-05
4.00209e-05
4.00211e-05
4.00213e-05
4.00216e-05
4.0022e-05
4.00226e-05
4.00234e-05
4.00245e-05
4.00259e-05
4.00278e-05
4.00301e-05
4.00329e-05
4.00363e-05
4.00404e-05
4.00121e-05
4.00124e-05
4.00132e-05
4.00141e-05
4.00152e-05
4.00163e-05
4.00173e-05
4.00181e-05
4.00188e-05
4.00193e-05
4.00198e-05
4.00202e-05
4.00207e-05
4.00213e-05
4.0022e-05
4.00229e-05
4.00241e-05
4.00256e-05
4.00274e-05
4.00298e-05
4.00327e-05
4.00362e-05
4.00137e-05
4.00128e-05
4.00126e-05
4.00129e-05
4.00135e-05
4.00142e-05
4.0015e-05
4.00158e-05
4.00165e-05
4.00172e-05
4.00178e-05
4.00185e-05
4.00191e-05
4.00197e-05
4.00205e-05
4.00213e-05
4.00223e-05
4.00236e-05
4.00252e-05
4.00272e-05
4.00296e-05
4.00327e-05
4.00141e-05
4.00132e-05
4.00129e-05
4.00129e-05
4.00132e-05
4.00136e-05
4.00141e-05
4.00146e-05
4.00152e-05
4.00159e-05
4.00165e-05
4.00172e-05
4.0018e-05
4.00188e-05
4.00197e-05
4.00207e-05
4.00219e-05
4.00233e-05
4.0025e-05
4.00271e-05
4.00298e-05
4.00157e-05
4.00146e-05
4.00139e-05
4.00134e-05
4.00131e-05
4.0013e-05
4.00131e-05
4.00134e-05
4.00137e-05
4.00142e-05
4.00148e-05
4.00155e-05
4.00163e-05
4.00171e-05
4.0018e-05
4.0019e-05
4.00202e-05
4.00215e-05
4.00231e-05
4.0025e-05
4.00273e-05
4.00175e-05
4.00163e-05
4.00152e-05
4.00143e-05
4.00137e-05
4.00132e-05
4.0013e-05
4.00129e-05
4.00129e-05
4.00132e-05
4.00136e-05
4.00141e-05
4.00148e-05
4.00156e-05
4.00164e-05
4.00174e-05
4.00185e-05
4.00197e-05
4.00212e-05
4.0023e-05
4.00251e-05
4.00175e-05
4.00164e-05
4.00155e-05
4.00147e-05
4.0014e-05
4.00134e-05
4.0013e-05
4.00128e-05
4.00127e-05
4.00129e-05
4.00132e-05
4.00137e-05
4.00143e-05
4.00151e-05
4.00159e-05
4.00169e-05
4.00181e-05
4.00195e-05
4.00211e-05
4.0023e-05
4.00187e-05
4.00177e-05
4.00168e-05
4.00159e-05
4.0015e-05
4.00143e-05
4.00136e-05
4.00132e-05
4.00129e-05
4.00128e-05
4.00129e-05
4.00131e-05
4.00135e-05
4.00141e-05
4.00148e-05
4.00156e-05
4.00167e-05
4.00179e-05
4.00194e-05
4.00211e-05
4.00186e-05
4.00177e-05
4.00169e-05
4.00161e-05
4.00153e-05
4.00146e-05
4.00141e-05
4.00136e-05
4.00133e-05
4.00131e-05
4.00131e-05
4.00133e-05
4.00136e-05
4.00141e-05
4.00147e-05
4.00156e-05
4.00166e-05
4.00179e-05
4.00195e-05
4.00191e-05
4.00184e-05
4.00178e-05
4.00171e-05
4.00164e-05
4.00157e-05
4.00151e-05
4.00145e-05
4.0014e-05
4.00137e-05
4.00135e-05
4.00134e-05
4.00135e-05
4.00137e-05
4.00142e-05
4.00148e-05
4.00157e-05
4.00168e-05
4.00181e-05
4.00193e-05
4.00189e-05
4.00184e-05
4.00178e-05
4.00172e-05
4.00166e-05
4.00159e-05
4.00153e-05
4.00148e-05
4.00144e-05
4.0014e-05
4.00138e-05
4.00137e-05
4.00137e-05
4.0014e-05
4.00144e-05
4.0015e-05
4.00159e-05
4.0017e-05
4.00191e-05
4.00187e-05
4.00182e-05
4.00177e-05
4.00172e-05
4.00166e-05
4.00161e-05
4.00156e-05
4.00151e-05
4.00146e-05
4.00143e-05
4.0014e-05
4.00139e-05
4.0014e-05
4.00142e-05
4.00146e-05
4.00153e-05
4.00162e-05
4.00191e-05
4.00188e-05
4.00184e-05
4.0018e-05
4.00176e-05
4.00171e-05
4.00166e-05
4.00161e-05
4.00156e-05
4.00152e-05
4.00148e-05
4.00144e-05
4.00142e-05
4.00141e-05
4.00142e-05
4.00144e-05
4.00149e-05
4.00156e-05
4.00192e-05
4.00188e-05
4.00185e-05
4.00182e-05
4.00178e-05
4.00173e-05
4.00169e-05
4.00164e-05
4.00159e-05
4.00155e-05
4.00151e-05
4.00147e-05
4.00145e-05
4.00143e-05
4.00142e-05
4.00144e-05
4.00147e-05
4.00152e-05
4.00189e-05
4.00185e-05
4.00182e-05
4.00178e-05
4.00174e-05
4.00169e-05
4.00165e-05
4.00161e-05
4.00157e-05
4.00153e-05
4.00149e-05
4.00146e-05
4.00144e-05
4.00143e-05
4.00143e-05
4.00145e-05
4.0015e-05
4.0019e-05
4.00186e-05
4.00182e-05
4.00178e-05
4.00173e-05
4.00169e-05
4.00165e-05
4.0016e-05
4.00156e-05
4.00152e-05
4.00149e-05
4.00146e-05
4.00143e-05
4.00142e-05
4.00142e-05
4.00144e-05
4.00193e-05
4.00187e-05
4.00182e-05
4.00177e-05
4.00172e-05
4.00167e-05
4.00163e-05
4.00158e-05
4.00154e-05
4.0015e-05
4.00146e-05
4.00143e-05
4.00141e-05
4.0014e-05
4.0014e-05
4.00141e-05
4.00189e-05
4.00182e-05
4.00177e-05
4.00171e-05
4.00166e-05
4.0016e-05
4.00155e-05
4.00151e-05
4.00147e-05
4.00143e-05
4.0014e-05
4.00138e-05
4.00136e-05
4.00136e-05
4.00137e-05
4.00189e-05
4.00182e-05
4.00176e-05
4.0017e-05
4.00164e-05
4.00158e-05
4.00152e-05
4.00147e-05
4.00143e-05
4.00139e-05
4.00135e-05
4.00133e-05
4.00131e-05
4.00131e-05
4.00132e-05
4.00188e-05
4.00182e-05
4.00175e-05
4.00169e-05
4.00162e-05
4.00155e-05
4.00149e-05
4.00143e-05
4.00138e-05
4.00134e-05
4.0013e-05
4.00127e-05
4.00126e-05
4.00125e-05
4.00125e-05
4.00178e-05
4.00172e-05
4.00165e-05
4.00158e-05
4.00151e-05
4.00145e-05
4.00139e-05
4.00134e-05
4.00129e-05
4.00125e-05
4.00122e-05
4.00119e-05
4.00118e-05
4.00118e-05
4.00173e-05
4.00167e-05
4.00161e-05
4.00154e-05
4.00147e-05
4.00141e-05
4.00135e-05
4.00129e-05
4.00124e-05
4.00119e-05
4.00116e-05
4.00113e-05
4.00112e-05
4.00111e-05
4.00165e-05
4.0016e-05
4.00154e-05
4.00148e-05
4.00141e-05
4.00135e-05
4.00129e-05
4.00123e-05
4.00118e-05
4.00113e-05
4.0011e-05
4.00107e-05
4.00105e-05
4.00104e-05
4.00152e-05
4.00146e-05
4.0014e-05
4.00134e-05
4.00128e-05
4.00123e-05
4.00117e-05
4.00112e-05
4.00108e-05
4.00104e-05
4.00101e-05
4.00098e-05
4.00097e-05
4.00142e-05
4.00137e-05
4.00132e-05
4.00126e-05
4.00121e-05
4.00116e-05
4.00111e-05
4.00106e-05
4.00102e-05
4.00098e-05
4.00095e-05
4.00093e-05
4.00091e-05
4.00133e-05
4.00128e-05
4.00123e-05
4.00118e-05
4.00113e-05
4.00108e-05
4.00104e-05
4.001e-05
4.00096e-05
4.00092e-05
4.00089e-05
4.00087e-05
4.00085e-05
4.00124e-05
4.0012e-05
4.00115e-05
4.0011e-05
4.00106e-05
4.00101e-05
4.00097e-05
4.00093e-05
4.00089e-05
4.00086e-05
4.00083e-05
4.00081e-05
4.00079e-05
4.00112e-05
4.00107e-05
4.00102e-05
4.00098e-05
4.00094e-05
4.00089e-05
4.00086e-05
4.00082e-05
4.00079e-05
4.00077e-05
4.00075e-05
4.00073e-05
4.00105e-05
4.001e-05
4.00095e-05
4.00091e-05
4.00087e-05
4.00083e-05
4.00079e-05
4.00076e-05
4.00073e-05
4.00071e-05
4.00069e-05
4.00068e-05
4.00098e-05
4.00093e-05
4.00089e-05
4.00085e-05
4.00081e-05
4.00077e-05
4.00073e-05
4.0007e-05
4.00068e-05
4.00066e-05
4.00064e-05
4.00091e-05
4.00087e-05
4.00082e-05
4.00078e-05
4.00074e-05
4.00071e-05
4.00067e-05
4.00065e-05
4.00063e-05
4.00061e-05
4.0006e-05
4.00079e-05
4.00075e-05
4.00071e-05
4.00068e-05
4.00065e-05
4.00063e-05
4.00061e-05
4.00059e-05
4.00059e-05
4.00059e-05
4.00071e-05
4.00068e-05
4.00065e-05
4.00063e-05
4.00061e-05
4.0006e-05
4.0006e-05
4.0006e-05
4.00061e-05
4.00062e-05
4.00063e-05
4.00062e-05
4.00061e-05
4.00061e-05
4.00061e-05
4.00063e-05
4.00065e-05
4.00067e-05
4.0007e-05
4.00073e-05
4.00059e-05
4.0006e-05
4.00062e-05
4.00065e-05
4.00068e-05
4.00072e-05
4.00076e-05
4.00081e-05
4.00085e-05
4.0009e-05
4.00061e-05
4.00065e-05
4.0007e-05
4.00075e-05
4.00081e-05
4.00087e-05
4.00093e-05
4.00099e-05
4.00105e-05
4.0011e-05
4.00078e-05
4.00086e-05
4.00093e-05
4.001e-05
4.00107e-05
4.00114e-05
4.00121e-05
4.00128e-05
4.00135e-05
4.00099e-05
4.00107e-05
4.00116e-05
4.00124e-05
4.00132e-05
4.0014e-05
4.00148e-05
4.00156e-05
4.00164e-05
4.00126e-05
4.00135e-05
4.00145e-05
4.00155e-05
4.00164e-05
4.00173e-05
4.00182e-05
4.00191e-05
4.00159e-05
4.00171e-05
4.00182e-05
4.00193e-05
4.00203e-05
4.00214e-05
4.00224e-05
4.00234e-05
4.002e-05
4.00213e-05
4.00226e-05
4.00238e-05
4.00251e-05
4.00262e-05
4.00274e-05
4.00284e-05
4.00246e-05
4.00261e-05
4.00276e-05
4.0029e-05
4.00303e-05
4.00316e-05
4.00329e-05
4.00341e-05
4.00313e-05
4.00329e-05
4.00344e-05
4.00359e-05
4.00373e-05
4.00386e-05
4.00399e-05
4.00365e-05
4.00382e-05
4.00398e-05
4.00413e-05
4.00427e-05
4.00442e-05
4.00455e-05
4.00407e-05
4.00424e-05
4.0044e-05
4.00455e-05
4.0047e-05
4.00485e-05
4.00498e-05
4.00435e-05
4.00451e-05
4.00467e-05
4.00482e-05
4.00497e-05
4.00511e-05
4.00525e-05
4.00457e-05
4.00473e-05
4.00488e-05
4.00503e-05
4.00517e-05
4.00531e-05
4.00545e-05
4.00473e-05
4.00488e-05
4.00502e-05
4.00516e-05
4.0053e-05
4.00544e-05
4.00558e-05
4.00484e-05
4.00498e-05
4.00512e-05
4.00527e-05
4.00541e-05
4.00555e-05
4.00498e-05
4.00514e-05
4.0053e-05
4.00546e-05
4.00562e-05
4.00578e-05
4.00529e-05
4.00549e-05
4.0057e-05
4.0059e-05
4.00611e-05
4.00631e-05
4.00613e-05
4.00639e-05
4.00664e-05
4.00689e-05
4.00714e-05
4.00678e-05
4.00704e-05
4.00729e-05
4.00754e-05
4.00778e-05
4.00666e-05
4.00683e-05
4.00699e-05
4.00715e-05
4.0073e-05
4.00532e-05
4.00543e-05
4.00555e-05
4.00568e-05
4.00582e-05
4.00454e-05
4.0049e-05
4.00527e-05
4.00566e-05
4.00607e-05
4.00466e-05
4.00491e-05
4.00514e-05
4.00536e-05
4.00556e-05
)
;

boundaryField
{
    inlet
    {
        type            freestream;
        freestreamValue uniform 4e-05;
        value           uniform 4e-05;
    }
    outlet
    {
        type            freestream;
        freestreamValue nonuniform List<scalar> 0();
        value           nonuniform List<scalar> 0();
    }
    walls
    {
        type            fixedValue;
        value           uniform 0;
    }
    frontAndBack
    {
        type            empty;
    }
    procBoundary1to0
    {
        type            processor;
        value           nonuniform List<scalar> 
94
(
3.99948e-05
3.99948e-05
3.99873e-05
3.99873e-05
3.99926e-05
3.99926e-05
4.00032e-05
4.00032e-05
4.00147e-05
4.00147e-05
4.00242e-05
4.00242e-05
4.00337e-05
4.00352e-05
4.00352e-05
4.00332e-05
4.00288e-05
4.00288e-05
4.00215e-05
4.00152e-05
4.00131e-05
4.00131e-05
4.00116e-05
4.0012e-05
4.0012e-05
4.00134e-05
4.00152e-05
4.00161e-05
4.00161e-05
4.00176e-05
4.00188e-05
4.0019e-05
4.0019e-05
4.00196e-05
4.00195e-05
4.00195e-05
4.00197e-05
4.00197e-05
4.00194e-05
4.00194e-05
4.00195e-05
4.00196e-05
4.00195e-05
4.00195e-05
4.00198e-05
4.002e-05
4.00197e-05
4.00197e-05
4.00197e-05
4.00195e-05
4.00186e-05
4.00186e-05
4.00179e-05
4.00171e-05
4.00157e-05
4.00157e-05
4.00148e-05
4.00138e-05
4.00129e-05
4.00117e-05
4.00117e-05
4.0011e-05
4.00103e-05
4.00096e-05
4.00084e-05
4.00084e-05
4.00074e-05
4.00065e-05
4.00058e-05
4.00057e-05
4.00071e-05
4.00071e-05
4.0009e-05
4.00115e-05
4.00147e-05
4.00186e-05
4.00231e-05
4.00296e-05
4.00296e-05
4.00347e-05
4.00388e-05
4.00417e-05
4.0044e-05
4.00457e-05
4.00468e-05
4.00481e-05
4.00509e-05
4.00587e-05
4.00587e-05
4.00651e-05
4.00647e-05
4.00521e-05
4.00421e-05
4.0044e-05
)
;
    }
    procBoundary1to2
    {
        type            processor;
        value           nonuniform List<scalar> 
84
(
0.112298
0.073437
0.0428248
0.00781338
1.78559e-05
1.04719e-05
2.80975e-05
3.82618e-05
4.04304e-05
4.03012e-05
4.01673e-05
4.01232e-05
4.01148e-05
4.01084e-05
4.01018e-05
4.00952e-05
4.0089e-05
4.00829e-05
4.00765e-05
4.00701e-05
4.00635e-05
4.0057e-05
4.00509e-05
4.00454e-05
4.00406e-05
4.00365e-05
4.00331e-05
4.00302e-05
4.00277e-05
4.00254e-05
4.00232e-05
4.00214e-05
4.00198e-05
4.00184e-05
4.00173e-05
4.00165e-05
4.00159e-05
4.00155e-05
4.00146e-05
4.00146e-05
4.00143e-05
4.00139e-05
4.00133e-05
4.00126e-05
4.00119e-05
4.00111e-05
4.00104e-05
4.00097e-05
4.0009e-05
4.00084e-05
4.00078e-05
4.00072e-05
4.00067e-05
4.00063e-05
4.00063e-05
4.0006e-05
4.00059e-05
4.00064e-05
4.00077e-05
4.00095e-05
4.00117e-05
4.00142e-05
4.00172e-05
4.002e-05
4.002e-05
4.00244e-05
4.00296e-05
4.00354e-05
4.00413e-05
4.00469e-05
4.00513e-05
4.0054e-05
4.0056e-05
4.00572e-05
4.0057e-05
4.0057e-05
4.00596e-05
4.00653e-05
4.00741e-05
4.00804e-05
4.00747e-05
4.00597e-05
4.00649e-05
4.00575e-05
)
;
    }
    procBoundary1to5
    {
        type            processor;
        value           nonuniform List<scalar> 
13
(
4.15156e-05
4.15156e-05
3.97444e-05
4.01264e-05
4.01264e-05
4.0068e-05
4.00927e-05
4.00927e-05
4.00875e-05
4.00733e-05
4.00465e-05
4.00465e-05
4.00199e-05
)
;
    }
}


// ************************************************************************* //
