/*--------------------------------*- C++ -*----------------------------------*\
| =========                 |                                                 |
| \\      /  F ield         | OpenFOAM: The Open Source CFD Toolbox           |
|  \\    /   O peration     | Version:  2506                                  |
|   \\  /    A nd           | Website:  www.openfoam.com                      |
|    \\/     M anipulation  |                                                 |
\*---------------------------------------------------------------------------*/
FoamFile
{
    version     2.0;
    format      ascii;
    arch        "LSB;label=32;scalar=64";
    class       surfaceScalarField;
    location    "100";
    object      phi;
}
// * * * * * * * * * * * * * * * * * * * * * * * * * * * * * * * * * * * * * //

dimensions      [0 3 -1 0 0 0 0];

oriented        oriented;

internalField   nonuniform List<scalar> 
2568
(
0.0514065
-0.029663
0.0780562
-0.0266498
0.101129
-0.0230723
0.120435
-0.0193068
0.136412
-0.0159757
0.149557
-0.0131456
0.16032
-0.0107621
0.169456
-0.00913512
0.177229
-0.00777291
0.184115
-0.00688522
0.190314
-0.00619781
0.196121
-0.00580546
0.201626
-0.00550298
0.206982
-0.00535479
0.212147
-0.00516349
0.217021
-0.00487575
0.220892
-0.00387539
0.223588
-0.00270098
0.225474
-0.00189116
0.226636
-0.00116612
0.22734
-0.000708519
0.227703
-0.000358678
0.22764
5.18405e-05
0.226944
0.000690153
0.225568
0.00136941
0.223524
0.0020329
0.220874
0.00263424
0.00326998
0.0269126
-0.062751
0.0554695
-0.05822
0.0811939
-0.0523741
0.103957
-0.0458349
0.123637
-0.0389872
0.140593
-0.0329315
0.155201
-0.0277535
0.167684
-0.0232438
0.178539
-0.0199894
0.188063
-0.0172967
0.196548
-0.0153692
0.204306
-0.0139544
0.211589
-0.013087
0.21849
-0.0124027
0.225168
-0.012031
0.231682
-0.0116758
0.237944
-0.0111401
0.243458
-0.00939401
0.247928
-0.00717735
0.251541
-0.00551014
0.254162
-0.00379442
0.255697
-0.00224915
0.256137
-0.000797577
0.255635
0.000540665
0.254451
0.00186649
0.252751
0.00305767
0.250578
0.00419114
0.247956
0.00523332
0.00634258
0.0331526
-0.0933811
0.0613252
-0.0863925
0.0869348
-0.0779836
0.10985
-0.0687496
0.12983
-0.0589673
0.147116
-0.0502179
0.162088
-0.0427244
0.175036
-0.0361917
0.186295
-0.0312472
0.196235
-0.0272356
0.205124
-0.0242577
0.213238
-0.0220672
0.220781
-0.0206287
0.227914
-0.0195342
0.234822
-0.0189372
0.241503
-0.0183546
0.247832
-0.0174706
0.253488
-0.0150525
0.258161
-0.0118557
0.261983
-0.0093358
0.265024
-0.00684007
0.267324
-0.00455234
0.268963
-0.00243217
0.269928
-0.000433197
0.270289
0.00150149
0.270001
0.00334058
0.269079
0.00510373
0.267471
0.00682814
0.00865561
0.0100783
-0.127053
0.0407616
-0.124064
0.0689031
-0.114534
0.0943502
-0.103431
0.117158
-0.0915568
0.137082
-0.0788913
0.154444
-0.0675797
0.169668
-0.0579476
0.183008
-0.0495318
0.194814
-0.043052
0.205309
-0.0377301
0.214824
-0.0337716
0.223533
-0.0307747
0.231676
-0.0287698
0.239386
-0.0272433
0.246773
-0.0263226
0.253897
-0.025477
0.26068
-0.0242552
0.266777
-0.0211531
0.271928
-0.0170116
0.276203
-0.0136179
0.279661
-0.0103052
0.282355
-0.00725384
0.284331
-0.00440816
0.285647
-0.00176179
0.286351
0.000787506
0.286462
0.00321673
0.285986
0.00556275
0.284923
0.00786432
0.0103574
0.0180692
-0.159272
0.0492824
-0.155277
0.0776826
-0.142934
0.10321
-0.128957
0.126068
-0.114416
0.145998
-0.0988206
0.163417
-0.0849988
0.178811
-0.0733405
0.192395
-0.0631154
0.204514
-0.0551699
0.215445
-0.0486604
0.225376
-0.0437016
0.234504
-0.0399007
0.243037
-0.0373015
0.251119
-0.0353231
0.258838
-0.0340404
0.266234
-0.0328715
0.27326
-0.0312814
0.279621
-0.0275154
0.285043
-0.0224377
0.28957
-0.018148
0.293245
-0.0139854
0.296124
-0.0101357
0.298238
-0.00652013
0.299612
-0.00313994
0.300316
8.05826e-05
0.300424
0.00310583
0.299954
0.00602514
0.29891
0.00889871
0.0119452
-0.00673172
-0.186983
0.0264931
-0.192497
0.0585473
-0.187331
0.0874579
-0.171844
0.113259
-0.154758
0.136252
-0.137409
0.156234
-0.118803
0.173647
-0.102411
0.189084
-0.0887772
0.202817
-0.0768476
0.215156
-0.0675073
0.22637
-0.0598737
0.236635
-0.0539649
0.246169
-0.0494339
0.255105
-0.0462354
0.263583
-0.0438
0.271701
-0.0421565
0.279476
-0.0406455
0.286847
-0.0386525
0.293621
-0.0342915
0.299452
-0.0282732
0.304337
-0.0230402
0.308379
-0.0180353
0.311574
-0.0133391
0.313977
-0.00892471
0.315612
-0.0047858
0.316543
-0.000860478
0.316803
0.00283184
0.316412
0.00639841
0.315419
0.00986481
0.013611
0.00070359
-0.220582
0.0352249
-0.227018
0.0683483
-0.220454
0.0980245
-0.20152
0.124305
-0.181038
0.147599
-0.160702
0.167704
-0.138908
0.185157
-0.119865
0.200634
-0.104253
0.214439
-0.0906522
0.226907
-0.079974
0.238319
-0.0712846
0.248876
-0.0645203
0.258723
-0.0592803
0.26801
-0.0555206
0.276839
-0.0526269
0.285291
-0.0506065
0.293379
-0.048733
0.301081
-0.046353
0.308138
-0.0413497
0.314325
-0.0344618
0.319562
-0.0282814
0.323883
-0.0223596
0.327346
-0.0168063
0.329957
-0.0115322
0.331776
-0.00660698
0.332822
-0.00190744
0.333173
0.0024781
0.332855
0.00671278
0.331849
0.0108637
0.0152942
0.00833973
-0.255633
0.0442914
-0.262969
0.0787198
-0.254882
0.109342
-0.232142
0.136272
-0.207968
0.160002
-0.184432
0.180324
-0.15923
0.197858
-0.137398
0.213369
-0.119763
0.227207
-0.10449
0.239732
-0.0924977
0.251307
-0.0828584
0.262046
-0.0752575
0.272147
-0.0693802
0.281717
-0.065089
0.290864
-0.0617722
0.299626
-0.0593665
0.308056
-0.0571622
0.316087
-0.0543838
0.323513
-0.0487773
0.330068
-0.0410197
0.33567
-0.0338894
0.340343
-0.0270404
0.344125
-0.0205966
0.347016
-0.0144252
0.349054
-0.00865455
0.350309
-0.00317453
0.350801
0.00197213
0.350578
0.00691807
0.349627
0.0117868
0.0169997
-0.0206325
0.016083
-0.292348
0.0536645
-0.300551
0.0896087
-0.290826
0.121361
-0.263894
0.149095
-0.235701
0.173392
-0.208729
0.194041
-0.179879
0.211731
-0.155087
0.227305
-0.135337
0.24117
-0.118354
0.253742
-0.105068
0.265372
-0.094487
0.27627
-0.0861545
0.286554
-0.0796627
0.296354
-0.0748879
0.305774
-0.0711895
0.314858
-0.0684494
0.323573
-0.0658752
0.331915
-0.0627249
0.339686
-0.0565487
0.346622
-0.0479567
0.352564
-0.0398336
0.357579
-0.0320589
0.361644
-0.0246638
0.364817
-0.0175954
0.36709
-0.010928
0.368514
-0.0045995
0.369147
0.00133929
0.368997
0.00706616
0.368087
0.0126921
0.0187231
0.0240198
0.0634624
-0.339993
0.101005
-0.328369
0.13405
-0.296938
0.162755
-0.264407
0.187768
-0.233742
0.20884
-0.200951
0.226748
-0.172995
0.242436
-0.151025
0.25633
-0.132246
0.268921
-0.117658
0.280607
-0.106172
0.291571
-0.0971178
0.301988
-0.0900778
0.311997
-0.0848952
0.321644
-0.0808352
0.330951
-0.0777543
0.339974
-0.0748976
0.348635
-0.0713853
0.356742
-0.0646566
0.364028
-0.0552444
0.370356
-0.0461657
0.375699
-0.0374076
0.380104
-0.0290764
0.383555
-0.0210495
0.386077
-0.0134589
0.387725
-0.00626025
0.388499
0.000550284
0.388472
0.00707473
0.387624
0.0135125
0.0204315
0.0735973
0.112944
-0.367715
0.147432
-0.331425
0.177254
-0.294229
0.203071
-0.25956
0.224688
-0.222568
0.242895
-0.191202
0.258751
-0.16688
0.27271
-0.146204
0.285323
-0.130269
0.297016
-0.117864
0.308032
-0.108133
0.318548
-0.100592
0.328671
-0.0950172
0.338501
-0.0906635
0.348071
-0.087322
0.357354
-0.0841792
0.366289
-0.0803189
0.374738
-0.0731056
0.38238
-0.0628859
0.389062
-0.0528489
0.394772
-0.0431188
0.399494
-0.0338006
0.403255
-0.0248073
0.406033
-0.0162358
0.407873
-0.00810057
0.408836
-0.000411915
0.408914
0.00699747
0.408133
0.0142904
0.0221711
0.125478
0.161516
-0.367462
0.19257
-0.325284
0.219344
-0.286335
0.241599
-0.244822
0.260198
-0.209802
0.276259
-0.18294
0.290312
-0.160257
0.302952
-0.142908
0.314665
-0.129575
0.325687
-0.119153
0.336255
-0.111158
0.346494
-0.105255
0.356463
-0.10063
0.366212
-0.09707
0.375719
-0.0936842
0.384961
-0.0895609
0.393728
-0.0818724
0.401722
-0.0708809
0.408765
-0.0598949
0.414818
-0.049176
0.41989
-0.0388778
0.423932
-0.0288535
0.426993
-0.0193042
0.429069
-0.0101891
0.430199
-0.0015581
0.430424
0.00675252
0.429699
0.0149877
0.0238534
0.176347
0.20875
-0.357687
0.236583
-0.314169
0.259577
-0.267816
0.278646
-0.228871
0.294995
-0.199288
0.309199
-0.17446
0.321881
-0.155589
0.333601
-0.141294
0.344631
-0.130182
0.355224
-0.121749
0.365514
-0.115544
0.375597
-0.110711
0.385494
-0.106966
0.39522
-0.103409
0.40471
-0.0990495
0.413797
-0.0909585
0.422124
-0.0792065
0.42952
-0.0672908
0.435925
-0.0555814
0.441309
-0.0442621
0.445679
-0.0332198
0.449019
-0.0226422
0.451341
-0.0125104
0.452679
-0.00289411
0.453036
0.00639653
0.452407
0.0156152
0.0255561
0.22586
0.254854
-0.343163
0.278678
-0.291641
0.29828
-0.248473
0.31498
-0.215988
0.32936
-0.188838
0.342118
-0.168347
0.353871
-0.153046
0.364907
-0.141216
0.37548
-0.132321
0.385803
-0.125864
0.395968
-0.120875
0.405991
-0.116988
0.415887
-0.113303
0.425624
-0.108786
0.434996
-0.10033
0.443644
-0.0878545
0.45138
-0.0750288
0.458132
-0.0623361
0.463868
-0.0500021
0.468557
-0.0379117
0.472185
-0.0262783
0.474754
-0.0150908
0.476286
-0.00444326
0.476806
0.00585706
0.476275
0.0161186
0.0271841
0.274143
-0.373457
0.29888
-0.316378
0.319134
-0.268727
0.336241
-0.233094
0.350864
-0.203461
0.363737
-0.181219
0.375517
-0.164825
0.386541
-0.152239
0.397124
-0.142902
0.407451
-0.13619
0.417649
-0.131071
0.427768
-0.127106
0.43783
-0.123363
0.447782
-0.118736
0.457416
-0.109963
0.466391
-0.0968283
0.474453
-0.0830904
0.481544
-0.0694259
0.487603
-0.0560597
0.492614
-0.0429191
0.496525
-0.0301867
0.499362
-0.017927
0.501129
-0.00620834
0.501798
0.00519098
0.501393
0.0165243
0.0287898
0.294525
0.320297
-0.342149
0.341242
-0.289671
0.358828
-0.250679
0.373735
-0.218367
0.386765
-0.194249
0.398603
-0.176661
0.409634
-0.163269
0.420196
-0.153462
0.430518
-0.146511
0.440745
-0.141296
0.450921
-0.137281
0.461096
-0.133537
0.471243
-0.128881
0.48116
-0.119879
0.490414
-0.106082
0.498785
-0.0914626
0.506203
-0.0768451
0.512593
-0.0624518
0.517925
-0.0482545
0.522149
-0.0344177
0.525254
-0.0210432
0.527227
-0.00819798
0.5281
0.0042985
0.527809
0.0167882
0.0302856
0.342907
-0.369009
0.364637
-0.311402
0.382773
-0.268814
0.398027
-0.233621
0.411237
-0.207458
0.423182
-0.188606
0.434233
-0.174318
0.444788
-0.164016
0.45509
-0.156812
0.46531
-0.151515
0.475545
-0.147514
0.485814
-0.143805
0.49613
-0.139196
0.50626
-0.130008
0.515787
-0.115606
0.524473
-0.100148
0.532203
-0.0845734
0.538929
-0.0691754
0.544566
-0.0538888
0.549094
-0.0389438
0.552472
-0.0244186
0.554705
-0.010428
0.555754
0.00325375
0.555593
0.0169495
0.0317263
0.366827
0.389418
-0.333991
0.408159
-0.287555
0.423801
-0.249262
0.437256
-0.220913
0.449302
-0.200651
0.460412
-0.185427
0.47095
-0.174552
0.481234
-0.167094
0.491441
-0.161721
0.501695
-0.157766
0.512044
-0.154153
0.522514
-0.149664
0.532863
-0.140356
0.542648
-0.125391
0.551604
-0.109104
0.55963
-0.0925999
0.566653
-0.0762004
0.572617
-0.0598563
0.577436
-0.0437689
0.581106
-0.0280997
0.583567
-0.0129031
0.584834
0.00196673
0.584848
0.0169099
0.0330549
0.415597
-0.357529
0.435008
-0.306967
0.451112
-0.265366
0.464842
-0.234643
0.477051
-0.212859
0.488214
-0.196588
0.498764
-0.185101
0.509025
-0.177354
0.519241
-0.171936
0.529485
-0.168009
0.539903
-0.16457
0.55049
-0.16025
0.561039
-0.150903
0.571061
-0.135413
0.580264
-0.118305
0.588591
-0.100927
0.595912
-0.0835187
0.602155
-0.0660981
0.607302
-0.0489124
0.611241
-0.0320379
0.613965
-0.0156231
0.615421
0.000514001
0.6156
0.0167355
0.0342747
0.443261
-0.382049
0.463423
-0.327129
0.480026
-0.281969
0.494079
-0.248695
0.506489
-0.225268
0.517738
-0.207836
0.528328
-0.19569
0.538582
-0.187607
0.548757
-0.18211
0.55902
-0.17827
0.569461
-0.175009
0.580175
-0.170963
0.590894
-0.161621
0.601115
-0.145634
0.610578
-0.127768
0.619149
-0.109499
0.62675
-0.0911214
0.633314
-0.0726658
0.638717
-0.0543217
0.642942
-0.0362723
0.645935
-0.0186295
0.647635
-0.0012059
0.647991
0.0163549
0.0353394
0.472505
0.493466
-0.34809
0.510624
-0.299126
0.525046
-0.263116
0.537679
-0.237901
0.54906
-0.219216
0.559669
-0.206298
0.569933
-0.19787
0.580103
-0.192278
0.59036
-0.188526
0.600852
-0.185501
0.611641
-0.181751
0.622514
-0.172493
0.632949
-0.156068
0.64261
-0.137428
0.651426
-0.118315
0.659303
-0.0989967
0.666135
-0.0794969
0.671841
-0.0600254
0.676346
-0.0407759
0.679601
-0.0218811
0.681516
-0.00311608
0.682068
0.0158066
0.0362681
0.525193
-0.369919
0.542965
-0.316899
0.557818
-0.277968
0.570716
-0.250799
0.582245
-0.230744
0.592956
-0.217008
0.60323
-0.208143
0.613378
-0.202426
0.623634
-0.198781
0.634137
-0.196003
0.645015
-0.192629
0.656048
-0.183526
0.666634
-0.166656
0.676497
-0.147292
0.68555
-0.127369
0.693669
-0.107118
0.700755
-0.0865871
0.706738
-0.0660139
0.71151
-0.0455576
0.715015
-0.0253985
0.717194
-0.00531344
0.717944
0.0150337
0.0370006
0.558721
0.577182
-0.33536
0.592465
-0.293251
0.605679
-0.264012
0.617392
-0.242457
0.628183
-0.227797
0.638503
-0.218464
0.64868
-0.212602
0.658916
-0.209017
0.669454
-0.20654
0.680422
-0.203597
0.691537
-0.194641
0.702294
-0.177413
0.712418
-0.157416
0.721534
-0.136485
0.729911
-0.115494
0.737309
-0.0939848
0.743508
-0.0722114
0.748537
-0.0505866
0.752385
-0.0292429
0.754794
-0.0077188
0.75573
0.0141034
0.0375788
0.613292
-0.354544
0.629105
-0.309064
0.642664
-0.277572
0.654602
-0.254393
0.665527
-0.238723
0.67589
-0.228826
0.686113
-0.222824
0.696388
-0.219292
0.706882
-0.217033
0.717867
-0.214584
0.729231
-0.206006
0.740083
-0.188266
0.750275
-0.16761
0.759806
-0.146019
0.76827
-0.12396
0.775755
-0.101474
0.78236
-0.0788221
0.787666
-0.0559015
0.791528
-0.0331168
0.7942
-0.0104077
0.795543
0.0127381
0.037958
0.651446
-0.374515
0.667783
-0.325401
0.681808
-0.291595
0.69395
-0.266534
0.705071
-0.249844
0.715514
-0.239268
0.725646
-0.232957
0.735922
-0.229567
0.746562
-0.227674
0.757783
-0.225807
0.769024
-0.217247
0.780147
-0.19939
0.790418
-0.177881
0.800067
-0.155668
0.80882
-0.132713
0.816644
-0.109299
0.823238
-0.0854163
0.828824
-0.0614868
0.833112
-0.0374033
0.835958
-0.0132501
0.837354
0.0113466
0.0379935
0.691788
0.708794
-0.342405
0.723073
-0.305873
0.735646
-0.279106
0.746859
-0.261057
0.757448
-0.249857
0.76771
-0.243219
0.778104
-0.239961
0.78877
-0.238342
0.799815
-0.236853
0.811398
-0.228833
0.822544
-0.210538
0.832997
-0.188335
0.842619
-0.165292
0.851513
-0.141611
0.859524
-0.117313
0.866477
-0.0923757
0.872197
-0.0672152
0.876776
-0.0419932
0.879928
-0.0164171
0.881505
0.00974788
0.0378111
0.7519
-0.360085
0.76683
-0.320801
0.779557
-0.291833
0.791077
-0.272576
0.801728
-0.26051
0.812248
-0.25374
0.822534
-0.250248
0.8331
-0.24891
0.844438
-0.248192
0.855997
-0.240395
0.867288
-0.22183
0.877902
-0.198951
0.887853
-0.175243
0.89687
-0.150629
0.904922
-0.125366
0.911958
-0.099412
0.918056
-0.0733137
0.922787
-0.0467225
0.926112
-0.0197406
0.928136
0.00772733
0.0375858
0.797489
-0.378394
0.812886
-0.336198
0.826111
-0.305055
0.837747
-0.284215
0.84869
-0.271453
0.859126
-0.264178
0.869569
-0.260694
0.880397
-0.25974
0.891675
-0.259472
0.903465
-0.252187
0.914876
-0.233243
0.925521
-0.209598
0.935408
-0.185132
0.944653
-0.159877
0.952977
-0.133694
0.960333
-0.106773
0.96628
-0.0792685
0.971282
-0.0517336
0.975036
-0.0235094
0.977126
0.00561812
0.0368549
0.845692
0.861669
-0.352172
0.875192
-0.318578
0.887306
-0.29633
0.89834
-0.282489
0.90896
-0.274801
0.919434
-0.271171
0.930309
-0.270618
0.94177
-0.270936
0.953658
-0.264077
0.965082
-0.244669
0.975988
-0.220506
0.986048
-0.195193
0.995253
-0.169083
1.00358
-0.14202
1.01098
-0.114174
1.01753
-0.0858179
1.02253
-0.0567348
1.02645
-0.0274285
1.02886
0.00320516
0.0360511
0.912997
-0.368654
0.927176
-0.332758
0.939438
-0.308592
0.950692
-0.293747
0.961499
-0.285611
0.972262
-0.281938
0.983193
-0.28155
0.994738
-0.282483
1.00673
-0.276072
1.01839
-0.256331
1.02932
-0.231432
1.03941
-0.205293
1.04881
-0.178484
1.05737
-0.150585
1.06493
-0.121733
1.07129
-0.0921897
1.07667
-0.0621185
1.08062
-0.0313879
1.08336
0.000443406
0.0348542
0.967404
0.981818
-0.34717
0.994594
-0.321371
1.0062
-0.305361
1.0171
-0.296511
1.02795
-0.292787
1.03894
-0.292546
1.05069
-0.294232
1.06292
-0.288304
1.0747
-0.26811
1.08564
-0.242376
1.09602
-0.21567
1.10547
-0.187942
1.114
-0.159116
1.12157
-0.129299
1.12824
-0.0988653
1.13385
-0.0677244
1.13807
-0.035615
1.14088
-0.00236705
0.0333085
1.03982
-0.362305
1.05279
-0.334334
1.06467
-0.317246
1.07591
-0.307753
1.08683
-0.303708
1.09815
-0.303867
1.10999
-0.30608
1.12234
-0.300657
1.1344
-0.280171
1.14547
-0.253442
1.15574
-0.225949
1.16525
-0.197447
1.17386
-0.167727
1.18179
-0.13724
1.18851
-0.105587
1.19407
-0.073296
1.19857
-0.0401176
1.2017
-0.00551654
0.0316236
1.10085
-0.377905
1.11438
-0.347864
1.12653
-0.329404
1.1379
-0.319122
1.14918
-0.314987
1.1606
-0.315294
1.17267
-0.318154
1.18528
-0.313267
1.19734
-0.292226
1.20868
-0.264788
1.21898
-0.236251
1.22853
-0.206994
1.23733
-0.176532
1.24512
-0.145032
1.25199
-0.112453
1.25776
-0.0790632
1.26238
-0.0447389
1.2657
-0.00883685
0.0297132
1.16525
1.17936
-0.361973
1.19182
-0.34186
1.2037
-0.331005
1.21497
-0.326265
1.22663
-0.326948
1.23909
-0.330624
1.25173
-0.325909
1.26406
-0.304557
1.27542
-0.276149
1.286
-0.246825
1.29571
-0.216706
1.30445
-0.185276
1.31221
-0.152794
1.31921
-0.119459
1.32504
-0.0848952
1.32977
-0.0494823
1.3334
-0.012476
0.0274137
1.24788
-0.37645
1.26077
-0.354746
1.27283
-0.343066
1.28461
-0.338048
1.29652
-0.338864
1.30899
-0.343095
1.32205
-0.33897
1.33455
-0.317057
1.34606
-0.287665
1.35679
-0.257558
1.36642
-0.226329
1.37521
-0.194075
1.38331
-0.160895
1.39019
-0.126335
1.39619
-0.0908975
1.40103
-0.0543227
1.40469
-0.0161427
0.0248943
1.32017
-0.391418
1.33364
-0.368221
1.34612
-0.355544
1.35805
-0.349986
1.37026
-0.35107
1.38302
-0.35586
1.39649
-0.352448
1.40919
-0.329758
1.42087
-0.299344
1.43151
-0.268202
1.4413
-0.236119
1.45028
-0.203056
1.45821
-0.168823
1.4652
-0.133329
1.47136
-0.097063
1.47642
-0.059387
1.48024
-0.0199728
0.0221324
1.3967
1.41055
-0.382068
1.42321
-0.368207
1.43572
-0.362497
1.44821
-0.36356
1.46141
-0.369066
1.47498
-0.36602
1.48797
-0.342754
1.49984
-0.311218
1.51079
-0.279145
1.52063
-0.24596
1.52966
-0.212095
1.53754
-0.176703
1.54477
-0.140557
1.55083
-0.103127
1.55584
-0.0643984
1.55993
-0.0240666
0.0193015
1.49172
-0.396514
1.505
-0.381489
1.5177
-0.375198
1.53049
-0.376362
1.54404
-0.382614
1.55795
-0.379927
1.57131
-0.356115
1.5835
-0.323404
1.59438
-0.290029
1.6044
-0.255982
1.61337
-0.221071
1.62146
-0.184787
1.62854
-0.147636
1.63474
-0.109334
1.63994
-0.0696082
1.64417
-0.0282956
1.57732
-0.411364
1.59108
-0.395248
1.60424
-0.388358
1.61739
-0.389512
1.63141
-0.39664
1.64582
-0.394333
1.65942
-0.369718
1.67171
-0.335688
1.68292
-0.30124
1.69301
-0.266077
1.70206
-0.230118
1.71022
-0.192954
1.71728
-0.154693
1.72349
-0.115552
1.72875
-0.0748744
-0.0325149
1.66782
1.68208
-0.409511
1.69562
-0.401893
1.70927
-0.40316
1.72352
-0.410893
1.73847
-0.409279
1.75244
-0.383693
1.76498
-0.348231
1.77642
-0.312678
1.7866
-0.276256
1.79572
-0.239248
1.80385
-0.201081
1.81113
-0.161981
1.81723
-0.12165
1.82254
-0.0801922
-0.03697
1.77805
-0.424193
1.79209
-0.415939
1.80635
-0.417413
1.82116
-0.425706
1.83626
-0.424385
1.85079
-0.398223
1.86371
-0.361154
1.87526
-0.324231
1.88567
-0.286666
1.89489
-0.248475
1.90312
-0.209308
1.91013
-0.168998
1.91649
-0.12801
1.92184
-0.0855528
-0.0413895
1.8794
-0.439656
1.8941
-0.430643
1.90867
-0.431986
1.92403
-0.441058
1.93983
-0.440198
1.95455
-0.412941
1.96788
-0.37449
1.97971
-0.336059
1.99024
-0.2972
1.99958
-0.257815
2.00778
-0.217514
2.01504
-0.17626
2.02128
-0.134251
2.02667
-0.0909542
-0.0458978
1.98647
2.00161
-0.445782
2.01672
-0.447087
2.03263
-0.456982
2.04907
-0.456638
2.06437
-0.428245
2.07803
-0.388147
2.09002
-0.348046
2.10082
-0.308006
2.11029
-0.267284
2.11862
-0.225848
2.12587
-0.183521
2.13212
-0.140504
2.13756
-0.0963959
-0.050356
2.11516
-0.461632
2.13099
-0.46292
2.14741
-0.473398
2.16433
-0.473566
2.18028
-0.44419
2.19427
-0.402138
2.2067
-0.360475
2.21755
-0.318855
2.22717
-0.276906
2.23564
-0.234321
2.24291
-0.190792
2.2493
-0.146904
2.25465
-0.10175
-0.0548879
2.23495
-0.478089
2.25138
-0.479344
2.26867
-0.490696
2.28626
-0.491145
2.30261
-0.460542
2.31711
-0.416641
2.32989
-0.373251
2.34106
-0.330024
2.35085
-0.286705
2.35936
-0.242829
2.36678
-0.198218
2.37296
-0.15308
2.37835
-0.107149
-0.0596201
2.36157
2.37863
-0.496405
2.39648
-0.508542
2.41488
-0.509547
2.43178
-0.477449
2.44681
-0.431673
2.45997
-0.386406
2.47149
-0.341546
2.48148
-0.296701
2.49005
-0.251394
2.49739
-0.205563
2.50386
-0.159551
2.50918
-0.112469
-0.0641688
2.51301
-0.514394
2.53153
-0.52706
2.55068
-0.528701
2.56842
-0.495192
2.58389
-0.447143
2.59746
-0.399976
2.60923
-0.353314
2.61945
-0.306932
2.62809
-0.26004
2.63575
-0.213225
2.64203
-0.165827
2.64753
-0.117976
-0.0686644
2.65462
-0.532928
2.67414
-0.546582
2.69404
-0.548603
2.71243
-0.513588
2.72848
-0.463195
2.74261
-0.414104
2.75478
-0.365503
2.76514
-0.317289
2.77414
-0.269044
2.78164
-0.220719
2.78811
-0.172301
2.79344
-0.1233
-0.0732401
2.8044
-0.552438
2.82465
-0.566838
2.84535
-0.569307
2.86463
-0.53287
2.88148
-0.480035
2.89581
-0.428455
2.90831
-0.378001
2.91908
-0.32806
2.92822
-0.278179
2.93582
-0.228324
2.94239
-0.17887
2.9478
-0.128709
-0.077775
2.96214
2.98358
-0.588275
3.00524
-0.590967
3.02526
-0.552889
3.0426
-0.497384
3.05772
-0.443573
3.07069
-0.390975
3.08165
-0.339017
3.09095
-0.287479
3.09895
-0.236316
3.10538
-0.1853
3.11076
-0.13409
-0.0822817
3.15121
-0.610527
3.17397
-0.613734
3.19485
-0.573771
3.21306
-0.515589
3.22871
-0.459225
3.24207
-0.40433
3.2535
-0.350456
3.263
-0.296968
3.2709
-0.24422
3.27747
-0.191866
3.2831
-0.139719
-0.0867707
3.32825
-0.633891
3.35196
-0.637448
3.37386
-0.595661
3.39281
-0.534542
3.40917
-0.475585
3.42294
-0.41811
3.43465
-0.362153
3.44461
-0.306941
3.45271
-0.252314
3.45945
-0.1986
3.46484
-0.14511
3.51502
-0.658275
3.53992
-0.662351
3.56277
-0.618511
3.58262
-0.554391
3.59962
-0.492584
3.61411
-0.432601
3.62623
-0.374277
3.63633
-0.317042
3.64465
-0.260639
3.65145
-0.205396
-0.150672
3.71224
3.73838
-0.688483
3.76237
-0.642503
3.78304
-0.575071
3.8007
-0.510235
3.81581
-0.447719
3.82839
-0.386856
3.83878
-0.327444
3.84736
-0.269215
3.85438
-0.212422
-0.156164
3.94787
-0.716063
3.973
-0.66763
3.99456
-0.596632
4.01316
-0.52884
4.02868
-0.463242
4.04188
-0.400065
4.05261
-0.338168
4.06147
-0.278091
4.06836
-0.219312
-0.16188
4.16871
-0.744693
4.1952
-0.694117
4.2179
-0.619337
4.23714
-0.548073
4.25361
-0.479726
4.2671
-0.413547
4.27831
-0.349395
4.28737
-0.287152
4.29467
-0.226618
-0.167581
4.40209
-0.775085
4.42955
-0.721577
4.45349
-0.643273
4.47375
-0.568339
4.49073
-0.496697
4.50491
-0.427741
4.51653
-0.361016
4.52582
-0.296455
4.53319
-0.23398
-0.173439
4.64808
-0.806906
4.67724
-0.750731
4.70204
-0.668081
4.72327
-0.589565
4.74103
-0.514464
4.75597
-0.442674
4.7679
-0.372966
4.7776
-0.306149
4.78518
-0.241572
-0.179347
4.90773
4.93822
-0.781219
4.96446
-0.694326
4.9867
-0.611806
5.0053
-0.533063
5.02064
-0.458024
5.03333
-0.38565
5.0432
-0.316036
5.05119
-0.249553
-0.185222
5.21377
-0.813244
5.24126
-0.721812
5.26456
-0.635104
5.28417
-0.552683
5.30023
-0.474076
5.31331
-0.398749
5.32368
-0.326397
5.33171
-0.257583
-0.191477
5.50444
-0.847015
5.53332
-0.750681
5.55786
-0.659647
5.57829
-0.573108
5.59522
-0.491023
5.60878
-0.41229
5.61966
-0.337288
5.62791
-0.265827
5.81118
-0.882416
5.84156
-0.781059
5.86726
-0.685346
5.88865
-0.594511
5.90628
-0.508642
5.92058
-0.426593
5.93179
-0.348489
-0.274591
6.13476
-0.919759
6.16664
-0.812941
6.19357
-0.712275
6.21615
-0.617086
6.23463
-0.527127
6.24948
-0.441435
6.26117
-0.360183
-0.283651
6.47616
-0.959001
6.50961
-0.846392
6.53794
-0.740601
6.5616
-0.64075
6.58099
-0.546509
6.59655
-0.457002
6.60879
-0.372406
-0.292935
6.83554
6.87102
-0.881869
6.90116
-0.770742
6.92598
-0.665564
6.94632
-0.566853
6.9619
-0.47257
6.97534
-0.385851
-0.302605
7.25335
-0.919545
7.28363
-0.801017
7.31025
-0.692188
7.33072
-0.587309
7.34877
-0.490623
7.36183
-0.398902
-0.311945
7.65468
-0.957207
7.68867
-0.835005
7.71517
-0.718681
7.73797
-0.610115
7.75575
-0.508395
7.76846
-0.41161
-0.323433
5.56262
-0.964994
5.57192
-0.844307
5.5854
-0.732158
5.60311
-0.627824
5.62253
-0.527823
5.64627
-0.435341
-0.350255
6.11971
-0.970803
6.13079
-0.855381
6.14592
-0.747285
6.16393
-0.64584
6.18614
-0.550026
6.21257
-0.461774
-0.378424
6.73284
-0.977357
6.74455
-0.867088
6.76151
-0.764252
6.78126
-0.665585
6.80639
-0.575152
6.83438
-0.489758
-0.409346
7.40837
-0.984872
7.4222
-0.88092
7.4386
-0.780641
7.46152
-0.688513
7.48844
-0.602075
7.51941
-0.520729
8.15138
-0.99483
8.16496
-0.894505
8.18483
-0.800515
8.20984
-0.713517
8.23873
-0.630974
-0.553561
8.96698
-1.00363
8.98305
-0.910584
9.00405
-0.821506
9.03132
-0.740791
9.06364
-0.663294
-0.590985
9.86645
9.88276
-0.926889
9.90632
-0.845078
9.93605
-0.770516
9.9707
-0.697937
-0.631875
10.8723
-0.944802
10.8974
-0.870122
10.9297
-0.802851
10.9681
-0.736326
-0.676383
11.9585
-0.964471
11.9864
-0.898025
12.0202
-0.836573
12.0623
-0.778487
-0.724493
13.1505
-0.986289
13.1803
-0.92789
13.2197
-0.875978
13.2649
-0.823639
-0.778007
14.4598
-1.00885
14.4928
-0.960879
14.5326
-0.915749
14.5831
-0.874115
-0.835457
15.9143
-1.03571
15.9526
-0.999208
16.0001
-0.963205
16.058
-0.932012
-0.901265
17.5307
17.5688
17.6199
17.6802
)
;

boundaryField
{
    inlet
    {
        type            calculated;
        value           nonuniform List<scalar> 5(-1.06366 -1.03731 -1.01426 -0.992299 -0.972199);
    }
    outlet
    {
        type            calculated;
        value           nonuniform List<scalar> 0();
    }
    walls
    {
        type            calculated;
        value           uniform 0;
    }
    frontAndBack
    {
        type            empty;
    }
    procBoundary1to0
    {
        type            processor;
        value           nonuniform List<scalar> 
94
(
-0.283047
0.0144256
-0.330794
-0.0322387
-0.381352
-0.0841578
-0.409035
-0.138575
-0.405235
-0.191955
-0.391592
-0.24385
-0.26287
-0.405112
-0.316047
-0.338771
-0.397065
-0.39206
-0.418741
-0.446871
-0.407685
-0.503364
-0.535931
-0.392708
-0.594107
-0.631475
-0.670954
-0.395349
-0.734219
-0.779173
-0.826604
-0.397483
-0.896511
-0.950174
-0.385887
-1.02469
-1.08525
-1.14912
-0.394042
-1.23341
-1.3052
-1.38097
-0.407153
-1.47727
-1.56247
-1.6523
-0.426894
-1.76337
-1.86393
-1.97041
-0.455732
-2.09932
-2.2185
-2.34437
-0.495291
-2.49503
-2.63608
-2.78489
-2.94177
-0.572807
-3.12895
-3.30489
-3.49064
-3.68653
-0.683996
-3.9203
-4.14008
-4.37171
-4.61626
-4.87442
-0.84022
-5.18175
-5.47066
-5.77578
-6.0974
-6.43691
-6.79524
-0.999286
-7.21567
-7.61702
-5.55483
-6.11391
-6.72629
-7.40086
-8.14142
-8.95818
-9.85604
-1.01403
-10.8544
-11.9389
-13.1286
-14.4373
-15.8874
-17.5028
)
;
    }
    procBoundary1to2
    {
        type            processor;
        value           nonuniform List<scalar> 
84
(
0.217574
0.244849
0.26513
0.283181
0.297295
0.313711
0.330144
0.34788
0.366346
0.385872
0.40638
0.427974
0.450696
0.474604
0.499781
0.526272
0.554153
0.58348
0.614381
0.64689
0.681143
0.717177
0.755157
0.795132
0.837322
0.881659
0.928365
0.977831
1.02967
1.08454
1.14243
1.20337
1.26761
1.33568
1.40721
1.48299
1.56277
1.64721
0.016238
1.73297
1.82699
1.92626
2.03118
2.14202
2.25918
2.38308
2.51372
2.65203
2.79801
2.95233
3.11527
3.28759
3.46934
-0.091267
3.65701
3.85988
4.07407
4.30038
4.53904
4.7911
5.05706
5.33797
5.63433
-0.1979
5.94055
6.27024
6.61807
6.98502
7.37116
7.77996
5.67309
6.24074
6.8653
7.55451
-0.444435
8.27157
9.10106
10.0116
11.0126
12.1104
13.3184
14.6405
16.1238
17.7511
)
;
    }
    procBoundary1to5
    {
        type            processor;
        value           nonuniform List<scalar> 
13
(
-0.0217449
0.0315317
0.0043047
-0.00252293
0.0955206
0.0214531
0.0141496
0.154635
0.0390791
0.0328955
0.0267111
0.247105
0.0565729
)
;
    }
}


// ************************************************************************* //
