/*--------------------------------*- C++ -*----------------------------------*\
| =========                 |                                                 |
| \\      /  F ield         | OpenFOAM: The Open Source CFD Toolbox           |
|  \\    /   O peration     | Version:  2506                                  |
|   \\  /    A nd           | Website:  www.openfoam.com                      |
|    \\/     M anipulation  |                                                 |
\*---------------------------------------------------------------------------*/
FoamFile
{
    version     2.0;
    format      ascii;
    arch        "LSB;label=32;scalar=64";
    class       volSymmTensorField;
    location    "100";
    object      turbulenceProperties:R;
}
// * * * * * * * * * * * * * * * * * * * * * * * * * * * * * * * * * * * * * //

dimensions      [0 2 -2 0 0 0 0];

internalField   nonuniform List<symmTensor> 
1340
(
(0.00262317 0.000289082 7.82865e-20 0.00219713 -7.03571e-20 0.00239585)
(0.00365081 0.000394366 9.28769e-20 0.00286522 -3.69831e-20 0.00325739)
(0.00535789 0.000621234 -5.83615e-20 0.00396974 4.30954e-21 0.00467469)
(0.00793223 0.00107142 -3.1895e-20 0.00557106 1.09099e-19 0.00677689)
(0.0116633 0.0019045 2.37154e-19 0.00778767 2.5373e-20 0.00977158)
(0.0169308 0.00334481 4.1701e-19 0.0108353 -7.99117e-20 0.0139633)
(0.0242073 0.00565148 -9.30511e-20 0.015075 -1.71065e-19 0.0197693)
(0.0340945 0.00906123 7.61093e-20 0.0210603 -1.70853e-19 0.0277546)
(0.0476573 0.0139416 2.02654e-19 0.0297708 -8.91926e-20 0.0389609)
(0.0669071 0.0209464 -3.38742e-19 0.0427857 5.65138e-19 0.0551706)
(0.0954525 0.0314008 8.0036e-19 0.0628789 1.45359e-19 0.0796011)
(0.139963 0.0478169 3.76802e-19 0.0951092 -9.40801e-19 0.118124)
(0.21176 0.0746931 -1.70113e-18 0.14852 -9.49549e-20 0.180993)
(0.334862 0.121528 -5.57864e-18 0.242364 -9.4128e-19 0.289906)
(0.547831 0.204386 -3.37565e-18 0.409699 -3.95123e-19 0.480896)
(0.957564 0.367395 7.92968e-18 0.741779 -1.28307e-18 0.853551)
(1.71001 0.676227 -1.32992e-17 1.37909 1.83595e-18 1.55237)
(3.39267 1.3834 5.54602e-18 2.85842 6.04444e-19 3.14263)
(6.67642 2.80006 -1.71355e-16 5.87318 1.71415e-17 6.30993)
(14.8224 6.37753 -1.01098e-16 13.5991 -6.55125e-18 14.294)
(26.8367 11.8189 8.32372e-17 25.66 -9.08725e-18 26.4)
(34.3977 15.4727 1.01506e-17 34.2574 1.31762e-18 34.5038)
(36.7323 16.8348 5.55997e-17 38.0434 -3.46887e-17 37.5462)
(36.7932 17.1376 -4.99329e-16 39.5317 1.86859e-17 38.2931)
(36.2017 17.0973 1.62014e-16 40.2461 4.84617e-17 38.3308)
(35.338 16.888 -2.18802e-15 40.5503 -3.14094e-16 38.0328)
(34.2758 16.5462 -3.88574e-15 40.5058 4.67098e-16 37.4654)
(33.0526 16.0938 1.27623e-15 40.1523 2.87664e-16 36.6668)
(0.00137956 0.000148099 -1.39014e-20 0.0012279 -7.20479e-20 0.00131038)
(0.00119678 0.000145197 -1.06089e-19 0.00113873 3.67935e-20 0.00117374)
(0.00100899 0.000127296 2.05427e-20 0.00103553 4.41086e-20 0.00102424)
(0.000841465 0.000100371 -1.04466e-20 0.000924271 -2.47368e-20 0.000879917)
(0.000702483 7.32279e-05 -1.72998e-20 0.000810182 -1.87822e-20 0.000749465)
(0.000587981 5.08422e-05 -1.72757e-20 0.000698794 -1.57609e-20 0.000634066)
(0.000491996 3.41968e-05 -1.92764e-21 0.000594043 5.65285e-21 0.000532448)
(0.000410591 2.28495e-05 9.3718e-21 0.000498381 2.05052e-20 0.000443566)
(0.000341917 1.56502e-05 1.77629e-20 0.0004141 3.3185e-21 0.000367453)
(0.00028468 1.11945e-05 -2.77627e-20 0.00034239 2.41412e-21 0.000303837)
(0.000236455 8.41375e-06 2.5392e-20 0.000281271 -1.1245e-21 0.000250363)
(0.000195888 6.57559e-06 -4.01078e-21 0.000229684 -3.65392e-21 0.000205675)
(0.000160074 5.08461e-06 -8.70873e-21 0.000184267 7.5932e-21 0.000166615)
(0.000126686 3.66023e-06 -5.0461e-21 0.000142517 3.05979e-21 0.000130678)
(9.22958e-05 2.16914e-06 -7.55363e-21 0.000100841 4.45496e-21 9.42946e-05)
(5.66563e-05 8.73559e-07 -4.16907e-21 5.98487e-05 1.31147e-21 5.73402e-05)
(2.44343e-05 1.6563e-07 -1.076e-21 2.50114e-05 1.32155e-22 2.45434e-05)
(7.90217e-06 1.73735e-08 5.3183e-23 7.95949e-06 -3.52026e-24 7.91092e-06)
(0.000174856 9.52373e-06 -2.21873e-21 0.000202286 -3.35951e-22 0.000177799)
(0.00163901 0.000471737 9.60157e-19 0.00277554 -1.89574e-19 0.00171415)
(0.0104544 0.00334428 5.5992e-18 0.0173621 -8.71405e-20 0.0107048)
(0.0646858 0.0222686 1.25679e-18 0.103736 1.72175e-18 0.0654173)
(0.184019 0.0697664 -6.30001e-19 0.282012 -6.32755e-19 0.185297)
(0.335557 0.139558 6.63835e-17 0.486502 1.33678e-17 0.339151)
(0.487212 0.216715 4.82401e-16 0.668087 -3.3189e-17 0.497943)
(0.616112 0.284852 2.89604e-16 0.809281 2.77834e-17 0.63905)
(0.716844 0.338439 2.0278e-15 0.918801 6.31589e-17 0.755397)
(0.797178 0.381082 2.88064e-15 1.01311 -4.43166e-16 0.853021)
(0.864386 0.416919 -7.01107e-16 1.10263 1.64099e-16 0.938914)
(0.00111545 0.000115053 2.63064e-20 0.000976294 5.62901e-20 0.00104654)
(0.000988627 0.000118502 5.45627e-20 0.000923241 3.59133e-20 0.000956557)
(0.000851503 0.000109607 2.80479e-20 0.000851488 -3.802e-20 0.000852039)
(0.00071143 9.17983e-05 2.29052e-20 0.000758511 2.37816e-20 0.00073615)
(0.00058006 7.07075e-05 -3.17011e-20 0.000653578 1.00306e-20 0.000619146)
(0.000465301 5.06945e-05 -6.06044e-22 0.000548677 1.90454e-20 0.000510603)
(0.000368984 3.3734e-05 1.28044e-20 0.000451122 -2.25669e-20 0.000414941)
(0.000290391 2.05042e-05 5.03382e-20 0.000364602 -2.85693e-20 0.000333568)
(0.000229623 1.0992e-05 -1.63404e-21 0.000293265 -2.03592e-21 0.000268389)
(0.000184128 4.40917e-06 -3.86533e-21 0.000236988 1.39158e-20 0.000218175)
(0.000151488 4.7065e-08 3.99544e-20 0.000194701 -3.008e-20 0.000181142)
(0.000128855 -2.80905e-06 4.38904e-21 0.000164013 2.81131e-21 0.000154743)
(0.000114011 -4.72165e-06 4.25707e-20 0.000142898 -5.77093e-21 0.000136848)
(0.000104734 -6.1613e-06 4.47656e-20 0.000128697 1.77909e-21 0.000125146)
(9.95394e-05 -7.38934e-06 1.14993e-19 0.000119626 -1.73663e-20 0.000117999)
(9.78434e-05 -8.67839e-06 1.4401e-19 0.000114527 -2.2082e-20 0.000114647)
(9.94311e-05 -1.01904e-05 8.17761e-20 0.000112488 -3.29814e-21 0.000114565)
(0.000104151 -1.17194e-05 1.79408e-20 0.000111852 -1.81786e-21 0.000117123)
(0.000110409 -1.23996e-05 -2.10486e-20 0.000110936 3.02889e-21 0.000120591)
(0.000114994 -1.1507e-05 7.96618e-20 0.000108613 -2.79453e-21 0.000122095)
(0.000117889 -9.63326e-06 -2.09234e-20 0.00010643 2.69635e-21 0.00012242)
(7.98455e-05 -3.69644e-06 -7.8579e-21 7.27525e-05 -2.37284e-23 8.12201e-05)
(0.00110241 -0.000163372 6.4632e-20 0.000611789 5.7277e-21 0.00115501)
(0.00517054 -0.000361341 -2.32864e-18 0.00260566 2.24927e-19 0.00533413)
(0.0127229 0.00099262 -1.26758e-17 0.00636786 4.45247e-18 0.0130281)
(0.0248139 0.00736178 -7.23373e-17 0.016037 -3.16057e-18 0.0254789)
(0.0518055 0.0219145 -1.70879e-16 0.0456794 3.19363e-17 0.0537242)
(0.0993646 0.0457531 -4.10825e-16 0.102382 3.29697e-17 0.104288)
(0.164075 0.077592 -9.69424e-16 0.182289 -2.52816e-16 0.174546)
(0.00096704 7.29193e-05 2.71466e-20 0.000794232 -1.7459e-20 0.000880574)
(0.000884911 8.65375e-05 1.81473e-20 0.000763192 -1.44304e-21 0.000824303)
(0.00079229 9.14387e-05 -4.53097e-20 0.000725283 -2.48408e-20 0.000759282)
(0.00069221 8.73771e-05 -2.02381e-20 0.000675942 2.0322e-21 0.000684655)
(0.000593907 7.67572e-05 5.71655e-20 0.000618029 8.20062e-21 0.000606451)
(0.000504663 6.29026e-05 1.9147e-20 0.00055619 -2.59954e-21 0.000530538)
(0.000428015 4.87106e-05 2.75154e-20 0.000494917 -1.53054e-20 0.000461)
(0.000363745 3.59197e-05 -5.36819e-20 0.000436698 -1.31902e-20 0.000399107)
(0.000310473 2.53707e-05 -5.41262e-20 0.000383081 1.31955e-20 0.000345007)
(0.000267216 1.73487e-05 8.53727e-21 0.000335773 9.03115e-21 0.000299063)
(0.000232091 1.15175e-05 1.49099e-20 0.000294953 -4.28388e-21 0.000260526)
(0.000203856 7.44257e-06 -4.51856e-20 0.000260714 2.4097e-21 0.000228823)
(0.000181161 4.636e-06 1.00445e-21 0.000232395 -4.61034e-21 0.000202963)
(0.00016317 2.65955e-06 -1.537e-20 0.000209532 -5.77059e-22 0.000182271)
(0.000148583 1.12858e-06 3.65529e-20 0.00019078 -1.42073e-20 0.000165451)
(0.000136775 -1.86417e-07 -4.13326e-20 0.000175433 -3.23643e-21 0.00015178)
(0.000126833 -1.47954e-06 -7.74329e-20 0.000162315 1.68544e-21 0.000140206)
(0.000117867 -2.85583e-06 7.47354e-21 0.000150165 -5.26918e-21 0.00012962)
(0.000108194 -4.18532e-06 2.25155e-20 0.000136719 -5.12664e-21 0.000118064)
(9.80938e-05 -4.98521e-06 6.03366e-20 0.000122529 -4.69614e-21 0.000105814)
(8.99063e-05 -5.16494e-06 -5.90533e-20 0.000110962 4.66613e-21 9.56148e-05)
(8.36805e-05 -4.99452e-06 -8.87906e-21 0.000102084 -1.09779e-21 8.77229e-05)
(7.99598e-05 -4.86665e-06 6.2209e-21 9.68745e-05 -1.2428e-21 8.27939e-05)
(6.91347e-05 -3.91492e-06 -2.64687e-21 8.20968e-05 2.18105e-22 7.06666e-05)
(7.54919e-05 -5.48445e-06 -5.80216e-21 9.2499e-05 -3.76189e-21 7.67225e-05)
(1.83667e-05 -4.19426e-07 -8.46873e-22 1.95261e-05 -4.73932e-22 1.83964e-05)
(2.78291e-05 -1.52845e-06 1.47704e-20 3.14712e-05 1.04046e-21 2.76811e-05)
(0.000262028 -6.43193e-05 2.99927e-18 0.000399987 6.9213e-19 0.000236031)
(0.000434334 2.15164e-05 2.61173e-17 0.000536905 3.95773e-19 0.000302804)
(0.00251381 0.000982877 9.96572e-17 0.00204894 -2.96216e-18 0.00219507)
(0.000772431 5.45446e-05 -6.15516e-20 0.000629161 3.92396e-20 0.000700585)
(0.0007141 6.65354e-05 8.21341e-20 0.000608474 2.58721e-20 0.00066131)
(0.000647799 7.22476e-05 -3.38822e-20 0.000583552 -5.24739e-20 0.000615775)
(0.000576057 7.13357e-05 -2.7225e-20 0.000551499 8.09167e-21 0.000563893)
(0.000504006 6.51185e-05 -1.72847e-20 0.000512849 -3.09489e-20 0.000508585)
(0.00043534 5.55781e-05 3.55795e-21 0.000468624 1.14186e-20 0.000452182)
(0.00037259 4.47934e-05 -1.70648e-20 0.000421096 -1.30577e-20 0.000397117)
(0.000316603 3.42878e-05 -3.61788e-20 0.000372484 3.53389e-20 0.000344962)
(0.000267405 2.49723e-05 4.06134e-20 0.000324735 9.09198e-21 0.000296693)
(0.000225108 1.73348e-05 2.84862e-20 0.000279938 -1.14849e-20 0.000253375)
(0.000189357 1.13873e-05 -5.82566e-21 0.000239538 -7.91415e-21 0.000215554)
(0.000159708 6.92948e-06 1.67394e-20 0.000204398 1.09583e-21 0.000183425)
(0.000135596 3.64768e-06 -2.76187e-20 0.000174797 6.68289e-21 0.000156821)
(0.000116494 1.22626e-06 1.95643e-20 0.000150698 -1.85312e-21 0.000135437)
(0.000101613 -6.39647e-07 -2.38577e-20 0.000131442 -5.05419e-21 0.000118555)
(9.03082e-05 -2.17537e-06 2.5533e-20 0.000116356 -9.62686e-22 0.000105498)
(8.18183e-05 -3.55764e-06 3.03265e-20 0.000104457 1.32501e-21 9.54068e-05)
(7.53881e-05 -4.87776e-06 -4.74376e-21 9.46452e-05 1.91814e-21 8.73554e-05)
(6.97128e-05 -6.04938e-06 -5.99716e-20 8.50644e-05 3.6454e-21 7.98241e-05)
(6.38737e-05 -6.74002e-06 -2.02552e-20 7.48089e-05 -6.1625e-22 7.18955e-05)
(5.83289e-05 -6.84166e-06 -6.35207e-21 6.50531e-05 9.20073e-24 6.4339e-05)
(5.43711e-05 -6.60538e-06 2.42903e-20 5.73785e-05 -1.02686e-21 5.86981e-05)
(5.23277e-05 -6.14192e-06 4.34865e-22 5.20788e-05 3.3295e-22 5.52593e-05)
(5.29074e-05 -5.76726e-06 -1.14085e-21 4.98197e-05 -3.24177e-22 5.47608e-05)
(4.96929e-05 -4.53092e-06 1.43431e-20 4.50579e-05 1.23551e-21 5.04847e-05)
(6.51369e-05 -6.85847e-06 1.64321e-20 5.53502e-05 9.33303e-22 6.53617e-05)
(5.15459e-07 -5.3202e-10 -7.81934e-24 5.14563e-07 -8.5565e-25 5.15402e-07)
(0.000157855 -3.05295e-05 -1.22879e-18 0.000103092 -7.17081e-20 0.000150504)
(2.14219e-06 -1.24472e-08 -1.08542e-22 2.1197e-06 6.39806e-23 2.13747e-06)
(0.00144895 -0.000372307 2.2436e-18 0.000775318 2.45939e-18 0.00125264)
(0.0006613 2.77031e-05 -9.13804e-21 0.000520043 1.33779e-20 0.000590517)
(0.0006252 4.14607e-05 5.26288e-20 0.000505894 2.97129e-20 0.000565399)
(0.000582997 5.1856e-05 -3.2193e-20 0.000491853 -4.46946e-20 0.000537458)
(0.000534354 5.75836e-05 5.47796e-21 0.000474868 2.4596e-20 0.00050467)
(0.000481556 5.83338e-05 -2.20634e-20 0.000453258 7.40416e-22 0.000467472)
(0.000427959 5.49002e-05 -5.18917e-20 0.000427149 1.59725e-21 0.000427664)
(0.00037613 4.85266e-05 4.44718e-20 0.000396896 1.44285e-21 0.000386626)
(0.000328129 4.06656e-05 -1.31314e-20 0.000363849 1.08158e-20 0.000346063)
(0.000284954 3.25135e-05 2.55219e-20 0.000329598 9.86136e-21 0.000307297)
(0.000246867 2.48841e-05 8.1648e-21 0.000295522 -1.51554e-20 0.000271133)
(0.000213967 1.82984e-05 -7.57223e-21 0.000263008 -9.51239e-21 0.000238313)
(0.000186077 1.29188e-05 -2.7229e-20 0.00023324 9.08114e-21 0.000209351)
(0.000162804 8.7096e-06 -2.91339e-20 0.000206878 1.13952e-20 0.000184388)
(0.000143626 5.49522e-06 1.3467e-20 0.000184157 -1.84872e-21 0.000163292)
(0.000128014 3.05334e-06 -6.24645e-21 0.00016503 -2.8497e-21 0.000145779)
(0.000115349 1.13996e-06 -2.58388e-20 0.000149095 1.6083e-21 0.000131349)
(0.000105036 -4.39138e-07 -2.73428e-20 0.000135791 -2.13939e-21 0.000119423)
(9.63953e-05 -1.84601e-06 -2.22698e-20 0.000124312 2.3471e-21 0.000109266)
(8.87108e-05 -3.17018e-06 2.62617e-20 0.000113706 -6.96933e-21 0.000100041)
(8.09491e-05 -4.35594e-06 -8.55789e-21 0.000102606 4.60589e-21 9.05596e-05)
(7.25547e-05 -5.14306e-06 -3.6817e-20 9.0498e-05 4.1508e-21 8.02597e-05)
(6.42713e-05 -5.41491e-06 5.08528e-20 7.87091e-05 -2.47576e-21 7.01224e-05)
(5.68956e-05 -5.347e-06 3.17524e-21 6.83837e-05 7.36125e-22 6.11546e-05)
(5.06617e-05 -5.10262e-06 7.10286e-22 5.97823e-05 1.19499e-22 5.36111e-05)
(4.54005e-05 -4.74346e-06 1.50032e-21 5.26623e-05 -5.3534e-23 4.72647e-05)
(4.09663e-05 -4.30812e-06 -1.84767e-20 4.68264e-05 6.75526e-22 4.1944e-05)
(3.69767e-05 -3.82929e-06 -9.70953e-21 4.17543e-05 3.00413e-21 3.72586e-05)
(3.26819e-05 -3.32219e-06 5.47864e-20 3.64215e-05 -8.71072e-21 3.24341e-05)
(2.53904e-05 -2.32624e-06 3.42096e-20 2.75963e-05 -1.1118e-20 2.48616e-05)
(1.32705e-05 -7.85929e-07 -1.15293e-20 1.37913e-05 -3.57167e-21 1.2954e-05)
(9.67217e-07 -5.51134e-09 1.10473e-22 9.68459e-07 1.17359e-23 9.63831e-07)
(0.000539125 2.07364e-05 2.0477e-22 0.000422827 -8.17065e-21 0.000480847)
(0.000512908 3.206e-05 -1.70226e-20 0.000412838 5.69082e-21 0.000462774)
(0.000481549 4.09962e-05 2.39723e-20 0.000402953 1.05888e-20 0.000442273)
(0.000445223 4.6428e-05 4.36009e-20 0.000391222 1.2588e-20 0.000418245)
(0.000405913 4.80735e-05 2.76822e-20 0.00037665 -2.33799e-21 0.000391289)
(0.000365643 4.64104e-05 -1.58537e-20 0.000358962 9.68603e-21 0.000362344)
(0.000326089 4.22245e-05 -3.70586e-20 0.000338019 -1.02712e-20 0.000332106)
(0.000288655 3.65221e-05 3.08251e-20 0.00031436 1.25765e-20 0.000301561)
(0.00025409 3.02065e-05 2.35709e-21 0.000288892 -1.77663e-20 0.000271557)
(0.000222685 2.39541e-05 8.27472e-22 0.000262501 -7.58314e-21 0.000242676)
(0.000194647 1.82597e-05 -2.47404e-20 0.00023619 8.71031e-21 0.000215519)
(0.00017 1.3356e-05 1.71035e-20 0.000210972 8.41009e-21 0.000190614)
(0.000148628 9.31661e-06 5.88993e-20 0.000187563 -3.38966e-22 0.000168262)
(0.000130337 6.07851e-06 -2.52474e-20 0.000166457 1.90959e-21 0.000148614)
(0.000114907 3.50992e-06 -4.69313e-21 0.000147925 -5.58217e-23 0.000131691)
(0.000102014 1.44114e-06 -3.40228e-20 0.000131929 1.47354e-20 0.000117309)
(9.13171e-05 -2.80029e-07 -2.24049e-20 0.000118238 3.02748e-21 0.000105178)
(8.23889e-05 -1.78181e-06 2.55388e-20 0.000106389 2.37534e-21 9.48481e-05)
(7.4708e-05 -3.13535e-06 -6.34544e-20 9.56981e-05 6.7952e-21 8.57158e-05)
(6.75086e-05 -4.305e-06 2.35012e-20 8.51466e-05 -1.19617e-21 7.69042e-05)
(6.02247e-05 -5.10216e-06 4.05471e-20 7.41666e-05 -1.87961e-21 6.78446e-05)
(5.31563e-05 -5.42397e-06 -1.79275e-20 6.35049e-05 5.16367e-22 5.90236e-05)
(4.68909e-05 -5.39949e-06 -1.82817e-20 5.40593e-05 5.14828e-22 5.12146e-05)
(4.16995e-05 -5.17192e-06 -4.14919e-21 4.61305e-05 -2.97774e-23 4.4729e-05)
(3.74989e-05 -4.80536e-06 -4.42788e-22 3.95707e-05 2.52305e-23 3.94455e-05)
(3.42155e-05 -4.33665e-06 1.83561e-21 3.42777e-05 -1.60182e-21 3.52688e-05)
(3.19361e-05 -3.80522e-06 -2.76178e-20 3.03133e-05 -3.58263e-21 3.22785e-05)
(3.06206e-05 -3.30343e-06 6.56533e-20 2.76935e-05 1.87727e-20 3.04164e-05)
(2.949e-05 -2.79403e-06 1.79013e-21 2.5663e-05 8.63143e-21 2.88701e-05)
(2.72441e-05 -2.16941e-06 4.23731e-20 2.31515e-05 5.96575e-22 2.63611e-05)
(2.29361e-05 -1.42257e-06 1.51325e-20 1.94409e-05 8.17394e-21 2.20411e-05)
(0.000444818 1.57337e-05 -7.38776e-22 0.000348137 3.94645e-21 0.000396378)
(0.000425253 2.51472e-05 -4.24167e-21 0.000340838 -2.02533e-20 0.000382988)
(0.000401556 3.28085e-05 -8.41339e-20 0.000333759 -2.48836e-20 0.000367671)
(0.000373987 3.77943e-05 2.16468e-20 0.000325534 2.15221e-20 0.000349769)
(0.000344253 3.98565e-05 -5.34369e-21 0.000315587 1.89921e-21 0.000329915)
(0.000313613 3.92969e-05 4.54332e-20 0.000303509 8.26076e-21 0.000308585)
(0.000283163 3.66194e-05 -7.79546e-21 0.000288948 1.38213e-20 0.000286088)
(0.000253965 3.25338e-05 2.08452e-20 0.000272154 -6.95194e-21 0.000263089)
(0.000226606 2.77128e-05 -2.19579e-20 0.000253647 6.98513e-21 0.00024016)
(0.000201358 2.26911e-05 -3.02951e-20 0.000233999 8.6758e-21 0.00021771)
(0.000178462 1.78959e-05 1.04395e-20 0.000213913 1.75815e-21 0.000196205)
(0.000158051 1.35794e-05 1.45579e-20 0.00019421 -4.86234e-21 0.00017613)
(0.00014012 9.86986e-06 1.4843e-20 0.000175499 -1.75124e-20 0.000157785)
(0.000124604 6.77786e-06 1.59762e-20 0.000158286 3.40287e-21 0.000141392)
(0.000111368 4.24674e-06 -1.54548e-20 0.000142868 6.74305e-21 0.000127032)
(0.000100171 2.16456e-06 6.05825e-20 0.000129294 -1.90324e-21 0.000114611)
(9.07118e-05 4.1705e-07 -1.58722e-20 0.000117398 5.78947e-21 0.000103898)
(8.26158e-05 -1.09968e-06 3.04073e-20 0.000106815 -7.67002e-21 9.45223e-05)
(7.54243e-05 -2.44562e-06 4.17235e-20 9.69882e-05 -9.58426e-22 8.59801e-05)
(6.85339e-05 -3.60168e-06 2.97381e-22 8.71521e-05 -4.12624e-21 7.75938e-05)
(6.15261e-05 -4.42869e-06 -1.14282e-20 7.69042e-05 -1.95279e-21 6.8948e-05)
(5.46284e-05 -4.83397e-06 -1.05401e-20 6.68213e-05 4.99942e-22 6.04163e-05)
(4.82818e-05 -4.90537e-06 2.4139e-21 5.76385e-05 -3.28676e-22 5.25995e-05)
(4.26642e-05 -4.76892e-06 4.45302e-21 4.96004e-05 -1.46869e-22 4.57291e-05)
(3.76709e-05 -4.49141e-06 1.82885e-21 4.25798e-05 5.32458e-23 3.96786e-05)
(3.31815e-05 -4.11274e-06 5.39355e-21 3.64469e-05 3.31633e-22 3.43098e-05)
(2.91838e-05 -3.67697e-06 1.85823e-20 3.11967e-05 -2.25819e-21 2.96063e-05)
(2.56157e-05 -3.22483e-06 -1.16153e-19 2.66809e-05 -1.35948e-21 2.54901e-05)
(2.24446e-05 -2.78529e-06 -4.36231e-20 2.27753e-05 -1.03652e-20 2.18999e-05)
(1.97164e-05 -2.37396e-06 -4.77643e-21 1.94303e-05 1.5659e-20 1.88375e-05)
(1.76096e-05 -2.0351e-06 -6.27587e-20 1.67421e-05 -5.24147e-21 1.64388e-05)
(0.000382854 3.50801e-06 -3.41629e-20 0.000296171 -1.9747e-20 0.000339443)
(0.000370843 1.20771e-05 -2.06901e-20 0.000289758 -1.01999e-20 0.000330229)
(0.000355885 1.99632e-05 -7.56918e-21 0.000284243 3.62995e-21 0.000320034)
(0.000337667 2.65419e-05 8.81461e-21 0.000279078 2.78516e-20 0.000308385)
(0.000316469 3.10419e-05 3.0445e-20 0.000273273 1.13207e-20 0.000294873)
(0.000293654 3.32492e-05 2.20065e-20 0.000266431 -1.36628e-20 0.000280032)
(0.000270073 3.33685e-05 -2.35097e-20 0.000258167 -1.30647e-20 0.00026413)
(0.000246475 3.17301e-05 6.16821e-20 0.000248068 -3.96714e-21 0.000247287)
(0.000223595 2.88356e-05 -6.27782e-21 0.000236152 -2.00136e-20 0.000229888)
(0.000201855 2.51841e-05 5.1787e-20 0.000222694 3.8496e-21 0.000212296)
(0.000181463 2.11893e-05 3.46312e-20 0.000208011 2.23023e-21 0.000194764)
(0.000162612 1.72025e-05 -1.91391e-20 0.000192541 -3.94227e-21 0.000177603)
(0.000145428 1.34559e-05 2.76117e-21 0.000176861 -6.08361e-21 0.000161172)
(0.000129982 1.01018e-05 -4.76479e-20 0.00016148 4.4704e-21 0.000145759)
(0.000116269 7.19446e-06 -3.6955e-21 0.000146829 -3.86883e-21 0.00013158)
(0.000104245 4.72693e-06 3.26048e-20 0.00013323 -5.86319e-22 0.000118773)
(9.37949e-05 2.64246e-06 1.09977e-21 0.000120839 -5.57912e-21 0.000107361)
(8.47459e-05 8.66675e-07 2.70302e-20 0.000109644 1.89832e-21 9.72486e-05)
(7.6846e-05 -6.77775e-07 -3.27405e-20 9.94412e-05 -1.25739e-21 8.82094e-05)
(6.97701e-05 -2.03349e-06 -2.40208e-20 8.98629e-05 -1.57124e-21 7.98974e-05)
(6.30994e-05 -3.18672e-06 -4.80471e-20 8.03937e-05 2.68343e-21 7.18494e-05)
(5.65256e-05 -4.03538e-06 -3.52173e-20 7.07474e-05 3.21099e-21 6.37676e-05)
(5.01474e-05 -4.499e-06 -3.47055e-21 6.12894e-05 1.59138e-22 5.58671e-05)
(4.43005e-05 -4.63643e-06 -1.35644e-20 5.26234e-05 2.72381e-22 4.86212e-05)
(3.91629e-05 -4.55434e-06 -2.46898e-22 4.50123e-05 1.18964e-22 4.22696e-05)
(3.46867e-05 -4.31885e-06 -1.72838e-21 3.84006e-05 7.08782e-23 3.67575e-05)
(3.07708e-05 -3.96884e-06 -4.21977e-22 3.2681e-05 4.09099e-22 3.19721e-05)
(2.74063e-05 -3.54685e-06 1.40509e-20 2.78319e-05 2.86488e-21 2.79025e-05)
(2.46595e-05 -3.09795e-06 1.7761e-21 2.38986e-05 -6.74766e-21 2.46027e-05)
(2.24857e-05 -2.64962e-06 9.14318e-20 2.08085e-05 2.97265e-21 2.20031e-05)
(2.08823e-05 -2.2243e-06 -1.48405e-19 1.84935e-05 -2.35664e-20 2.00593e-05)
(1.98267e-05 -1.83379e-06 1.20661e-20 1.68645e-05 -1.03243e-20 1.87268e-05)
(0.00031197 9.36714e-06 -6.00685e-20 0.000243416 1.48843e-21 0.000277642)
(0.000300297 1.60257e-05 8.86145e-20 0.000239136 4.9927e-20 0.000269704)
(0.000286023 2.16813e-05 5.45568e-20 0.000235263 1.53622e-22 0.000260654)
(0.000269515 2.57041e-05 3.62462e-20 0.000231146 -8.02742e-21 0.00025033)
(0.000251796 2.79066e-05 -6.54735e-20 0.000226442 -1.5359e-20 0.000239109)
(0.00023343 2.84258e-05 -4.06402e-20 0.000220769 -1.88632e-21 0.000227105)
(0.00021498 2.74924e-05 -8.06349e-20 0.000213764 -1.30515e-20 0.000214379)
(0.000196975 2.54696e-05 -8.14059e-20 0.000205348 9.19649e-21 0.000201168)
(0.00017968 2.27262e-05 -3.45024e-20 0.000195619 -8.44078e-21 0.000187664)
(0.000163234 1.95751e-05 1.24129e-20 0.000184733 -7.09145e-23 0.000174002)
(0.000147813 1.62989e-05 -9.31796e-21 0.000172975 2.23162e-21 0.00016041)
(0.00013353 1.31003e-05 -2.03628e-20 0.000160746 7.14406e-21 0.000147154)
(0.000120467 1.01253e-05 2.24364e-20 0.000148422 1.91114e-21 0.000134456)
(0.000108678 7.45366e-06 -2.8404e-20 0.000136382 -3.79265e-21 0.000122536)
(9.81603e-05 5.11461e-06 -1.05758e-21 0.000124906 -4.59356e-21 0.000111532)
(8.88638e-05 3.08496e-06 1.01458e-20 0.000114188 -4.80079e-21 0.000101517)
(8.06818e-05 1.32592e-06 2.74371e-20 0.000104274 -8.48842e-21 9.24607e-05)
(7.34319e-05 -2.1157e-07 -1.256e-20 9.5054e-05 7.94425e-22 8.42167e-05)
(6.6863e-05 -1.55637e-06 -7.31323e-21 8.62701e-05 7.18719e-21 7.65327e-05)
(6.06747e-05 -2.69951e-06 -7.22748e-21 7.75789e-05 5.7974e-21 6.90878e-05)
(5.46196e-05 -3.56336e-06 2.64563e-20 6.87628e-05 4.08724e-22 6.16513e-05)
(4.87521e-05 -4.07984e-06 -8.24905e-22 6.0093e-05 1.02667e-21 5.43729e-05)
(4.33139e-05 -4.2871e-06 8.99975e-21 5.20485e-05 -4.1524e-23 4.76124e-05)
(3.84437e-05 -4.2723e-06 -1.37176e-21 4.48718e-05 6.26565e-24 4.15741e-05)
(3.41001e-05 -4.0994e-06 -9.99406e-22 3.85338e-05 -7.33902e-23 3.6222e-05)
(3.01875e-05 -3.80809e-06 -3.70374e-21 3.29433e-05 -1.51754e-22 3.14547e-05)
(2.66755e-05 -3.43975e-06 -1.52783e-20 2.80749e-05 -1.78462e-22 2.7242e-05)
(2.3571e-05 -3.03652e-06 -3.92048e-20 2.3907e-05 -3.10123e-21 2.35817e-05)
(2.08539e-05 -2.62536e-06 4.52956e-21 2.03633e-05 6.27983e-21 2.04323e-05)
(1.86064e-05 -2.22982e-06 1.37229e-19 1.74507e-05 -1.88847e-21 1.78366e-05)
(1.67959e-05 -1.84522e-06 9.38504e-20 1.50873e-05 2.06645e-20 1.57492e-05)
(0.000255274 1.29936e-05 -7.98738e-20 0.000202752 -3.17837e-20 0.000229013)
(0.000243907 1.78722e-05 -5.92172e-20 0.000199784 -4.67613e-21 0.000221857)
(0.000230865 2.14481e-05 4.78698e-20 0.000196831 2.72921e-20 0.000213847)
(0.000216926 2.35611e-05 7.6017e-20 0.000193598 8.54447e-21 0.000205252)
(0.00020249 2.4307e-05 1.27186e-20 0.000189741 -2.0503e-21 0.000196118)
(0.000187934 2.38463e-05 5.60956e-20 0.00018489 2.70577e-20 0.000186415)
(0.000173667 2.24527e-05 6.90921e-20 0.000178962 1.96667e-20 0.000176316)
(0.000159864 2.04028e-05 -2.7883e-20 0.000171966 -4.36513e-21 0.000165922)
(0.000146606 1.7935e-05 1.76321e-20 0.000163951 -1.16883e-21 0.00015529)
(0.000134005 1.52682e-05 -5.26268e-21 0.000155063 2.20038e-21 0.000144546)
(0.000122148 1.25671e-05 4.05209e-20 0.000145576 -5.20724e-22 0.000133875)
(0.000111115 9.9667e-06 -1.79534e-20 0.000135743 1.111e-21 0.000123441)
(0.000100959 7.55072e-06 -4.06605e-20 0.000125849 1.24887e-20 0.000113415)
(9.17209e-05 5.36793e-06 -1.49186e-20 0.000116149 1.67827e-21 0.000103944)
(8.33859e-05 3.4254e-06 -3.57096e-20 0.000106821 5.37817e-21 9.51112e-05)
(7.58935e-05 1.7097e-06 -3.66096e-20 9.79453e-05 1.20241e-21 8.69267e-05)
(6.91328e-05 1.93952e-07 -3.76754e-20 8.94919e-05 5.8113e-21 7.93203e-05)
(6.29356e-05 -1.13659e-06 6.68054e-20 8.13136e-05 -6.19221e-21 7.21351e-05)
(5.70953e-05 -2.26942e-06 4.88804e-20 7.31949e-05 -2.3344e-21 6.51606e-05)
(5.14426e-05 -3.14411e-06 8.50817e-21 6.5008e-05 -2.68721e-21 5.82501e-05)
(4.60066e-05 -3.70369e-06 3.31331e-20 5.69591e-05 -1.88025e-21 5.15131e-05)
(4.09544e-05 -3.96919e-06 7.06035e-21 4.94224e-05 -3.47752e-22 4.52177e-05)
(3.64087e-05 -4.01078e-06 2.08109e-21 4.26332e-05 1.32983e-23 3.95536e-05)
(3.23556e-05 -3.88767e-06 -1.96952e-22 3.6605e-05 -5.07114e-23 3.45224e-05)
(2.87299e-05 -3.63917e-06 -8.10398e-23 3.12856e-05 -2.0193e-22 3.00594e-05)
(2.55106e-05 -3.30445e-06 7.57605e-21 2.66614e-05 -4.14445e-22 2.6146e-05)
(2.27292e-05 -2.92482e-06 1.09684e-20 2.2745e-05 -1.7207e-21 2.28081e-05)
(2.03927e-05 -2.53026e-06 2.18707e-20 1.95159e-05 2.14126e-21 2.00345e-05)
(1.85443e-05 -2.14289e-06 4.33599e-20 1.69559e-05 1.81778e-20 1.78322e-05)
(1.71425e-05 -1.76231e-06 -1.72586e-19 1.49776e-05 -1.24488e-20 1.61465e-05)
(0.000209254 1.48571e-05 1.79254e-20 0.000170762 8.81963e-21 0.00019002)
(0.000198823 1.80307e-05 2.93208e-20 0.000168636 -1.62619e-20 0.000183727)
(0.000187718 2.00082e-05 -9.78255e-20 0.000166415 -3.49188e-20 0.000177059)
(0.000176232 2.08658e-05 -7.79527e-20 0.000163802 4.17505e-21 0.000170018)
(0.000164649 2.07194e-05 2.09827e-20 0.000160475 -4.18811e-21 0.000162562)
(0.000153271 1.97775e-05 6.91892e-20 0.000156324 -1.31771e-20 0.000154796)
(0.000142211 1.82536e-05 -2.2991e-20 0.000151319 5.49417e-21 0.000146768)
(0.000131492 1.63271e-05 -9.74916e-21 0.000145443 -4.28565e-22 0.000138475)
(0.000121207 1.41689e-05 -2.64635e-21 0.00013878 -3.25347e-21 0.00013)
(0.000111405 1.19113e-05 -1.29647e-20 0.000131488 3.24548e-22 0.000121455)
(0.00010214 9.66623e-06 3.31045e-20 0.000123728 1.02251e-21 0.000112942)
(9.34694e-05 7.51395e-06 5.89378e-20 0.00011571 8.13044e-21 0.000104597)
(8.54349e-05 5.51131e-06 8.5338e-21 0.000107623 2.8199e-21 9.65349e-05)
(7.80588e-05 3.6829e-06 4.30445e-20 9.96429e-05 1.59431e-21 8.88545e-05)
(7.13235e-05 2.03665e-06 1.77224e-20 9.18688e-05 2.80656e-21 8.15969e-05)
(6.51584e-05 5.63335e-07 2.88187e-20 8.43096e-05 2.53415e-22 7.47315e-05)
(5.94442e-05 -7.38564e-07 -4.27535e-20 7.68795e-05 -2.9773e-21 6.81574e-05)
(5.40395e-05 -1.85461e-06 -5.68113e-21 6.94506e-05 -5.25902e-21 6.17411e-05)
(4.88444e-05 -2.73422e-06 -2.59578e-20 6.19773e-05 5.3195e-22 5.54091e-05)
(4.38639e-05 -3.32784e-06 -3.52325e-20 5.46118e-05 7.2643e-22 4.92356e-05)
(3.9216e-05 -3.64616e-06 -1.55258e-20 4.76536e-05 2.84889e-23 4.34261e-05)
(3.49945e-05 -3.74321e-06 4.04839e-21 4.13135e-05 -5.84755e-24 3.81401e-05)
(3.11971e-05 -3.6728e-06 1.81941e-21 3.56322e-05 4.93979e-23 3.33988e-05)
(2.77703e-05 -3.47334e-06 1.83439e-21 3.05773e-05 -7.27848e-23 2.91548e-05)
(2.46899e-05 -3.1822e-06 -3.29406e-22 2.61394e-05 4.89821e-22 2.53893e-05)
(2.19672e-05 -2.83825e-06 -2.36607e-21 2.23199e-05 -1.12468e-21 2.21109e-05)
(1.96083e-05 -2.47151e-06 -4.62044e-21 1.90907e-05 5.16006e-21 1.93108e-05)
(1.76662e-05 -2.10351e-06 -8.25112e-20 1.64448e-05 -1.13282e-20 1.70096e-05)
(1.61288e-05 -1.73528e-06 1.03638e-20 1.43236e-05 -1.19485e-20 1.51818e-05)
(0.000172051 1.52587e-05 -1.06878e-19 0.000145252 -3.32527e-20 0.000158651)
(0.000163102 1.70874e-05 2.30817e-20 0.000143744 2.64596e-20 0.000153416)
(0.000153875 1.79852e-05 5.64667e-20 0.000142003 5.55152e-21 0.00014794)
(0.000144577 1.80433e-05 -7.35692e-20 0.000139751 -1.9646e-20 0.000142165)
(0.000135428 1.74228e-05 -6.81503e-20 0.000136859 -2.70006e-21 0.000136142)
(0.000126511 1.62933e-05 4.29086e-20 0.000133298 5.1601e-21 0.000129906)
(0.000117833 1.4794e-05 1.90551e-20 0.00012903 -9.43717e-22 0.000123436)
(0.000109426 1.30548e-05 -3.63961e-20 0.000124054 1.46943e-22 0.000116744)
(0.000101324 1.11784e-05 3.27011e-20 0.000118482 -3.96361e-22 0.000109909)
(9.35644e-05 9.25823e-06 -2.10625e-20 0.000112401 -6.98072e-21 0.000102989)
(8.61938e-05 7.3654e-06 5.67315e-20 0.000105953 -9.90395e-21 9.60798e-05)
(7.92485e-05 5.55494e-06 2.08148e-20 9.92753e-05 -3.31387e-21 8.92677e-05)
(7.2757e-05 3.85942e-06 -2.2264e-21 9.25057e-05 -5.69952e-21 8.26361e-05)
(6.67249e-05 2.30072e-06 8.57205e-21 8.57396e-05 -2.78834e-21 7.62355e-05)
(6.11149e-05 8.85079e-07 -8.18852e-21 7.90092e-05 -3.05136e-21 7.0064e-05)
(5.58546e-05 -3.77864e-07 -3.80815e-21 7.22818e-05 3.34106e-21 6.40701e-05)
(5.08611e-05 -1.47004e-06 -5.18668e-20 6.55039e-05 4.446e-21 5.81856e-05)
(4.60746e-05 -2.34849e-06 1.68839e-21 5.86725e-05 1.41352e-21 5.238e-05)
(4.15002e-05 -2.96819e-06 2.42634e-20 5.19201e-05 1.02672e-21 4.67189e-05)
(3.72166e-05 -3.33092e-06 -1.94955e-22 4.54833e-05 3.63046e-22 4.13569e-05)
(3.33002e-05 -3.47751e-06 -4.53998e-21 3.95552e-05 -3.29423e-24 3.64336e-05)
(2.97592e-05 -3.45495e-06 -2.3093e-21 3.41979e-05 -2.82333e-23 3.19864e-05)
(2.65566e-05 -3.29969e-06 7.91519e-21 2.9403e-05 4.35949e-22 2.79901e-05)
(2.3674e-05 -3.04664e-06 -4.96755e-21 2.51722e-05 -1.48458e-22 2.44342e-05)
(2.11294e-05 -2.73304e-06 3.87071e-20 2.15187e-05 7.33714e-22 2.13371e-05)
(1.89422e-05 -2.38927e-06 -9.09042e-20 1.84405e-05 -7.17249e-21 1.87064e-05)
(1.71544e-05 -2.0368e-06 1.3906e-19 1.59302e-05 1.32442e-20 1.65555e-05)
(1.57465e-05 -1.67732e-06 6.58284e-20 1.39264e-05 4.90168e-21 1.48526e-05)
(0.00014223 1.46661e-05 5.88691e-21 0.000124688 3.16856e-21 0.000133453)
(0.00013474 1.55628e-05 -3.7357e-20 0.000123563 -1.1089e-20 0.000129152)
(0.000127209 1.57502e-05 4.20021e-21 0.000122068 1.80751e-20 0.000124638)
(0.000119808 1.53592e-05 3.80328e-20 0.00012009 5.31312e-21 0.000119946)
(0.000112584 1.45257e-05 -4.47417e-20 0.000117582 -8.50107e-21 0.000115083)
(0.000105523 1.33592e-05 9.46358e-21 0.000114492 1.72316e-22 0.00011001)