/*--------------------------------*- C++ -*----------------------------------*\
| =========                 |                                                 |
| \\      /  F ield         | OpenFOAM: The Open Source CFD Toolbox           |
|  \\    /   O peration     | Version:  2506                                  |
|   \\  /    A nd           | Website:  www.openfoam.com                      |
|    \\/     M anipulation  |                                                 |
\*---------------------------------------------------------------------------*/
FoamFile
{
    version     2.0;
    format      ascii;
    arch        "LSB;label=32;scalar=64";
    class       volScalarField;
    location    "100";
    object      turbulenceProperties:I;
}
// * * * * * * * * * * * * * * * * * * * * * * * * * * * * * * * * * * * * * //

dimensions      [0 0 0 0 0 0 0];

internalField   nonuniform List<scalar> 
1340
(
0.010621
0.00760547
0.00662929
0.00647234
0.00671901
0.00722411
0.00794012
0.00885066
0.00998511
0.0114102
0.0132369
0.0156327
0.0188086
0.0231793
0.0291087
0.0378659
0.0499987
0.0700336
0.0982426
0.146928
0.198899
0.22695
0.23669
0.239579
0.240921
0.241914
0.242709
0.243417
0.00663187
0.00540224
0.00386206
0.00283195
0.00218387
0.00175254
0.00144519
0.00121418
0.00103414
0.000890343
0.00077163
0.000671656
0.000582799
0.0004988
0.000410056
0.000309749
0.000196588
0.000108674
0.000514204
0.00168123
0.00416362
0.0101762
0.0169211
0.0226071
0.0270736
0.0304341
0.0330103
0.0351748
0.0371729
0.00413601
0.00375738
0.0030813
0.00244043
0.00193649
0.00155743
0.00127007
0.00104826
0.000877736
0.000746577
0.000647
0.000572321
0.000517706
0.000478015
0.000449549
0.000430182
0.00041838
0.000412371
0.000409232
0.000404776
0.000400206
0.000325388
0.00113153
0.0024072
0.0037588
0.0054013
0.00817391
0.0116834
0.0153572
0.00287825
0.00293888
0.00277561
0.00244079
0.00206623
0.0017329
0.00146224
0.00124754
0.00107721
0.000942084
0.000833708
0.000746349
0.000675306
0.000617491
0.000569432
0.000529163
0.000494399
0.000462999
0.000431504
0.000400593
0.00037525
0.000355498
0.000342651
0.000314191
0.000328062
0.0001568
0.000194659
0.000625914
0.000747514
0.00173015
0.00222377
0.00225465
0.00217234
0.00199035
0.00176152
0.00153164
0.00132433
0.00114528
0.000992983
0.000864605
0.000756678
0.000666262
0.000590919
0.000528822
0.000477911
0.000436564
0.000402883
0.000374882
0.000349224
0.000323912
0.00030055
0.000282424
0.000270354
0.000266273
0.000254226
0.000286602
2.61015e-05
0.000426181
5.3283e-05
0.00124758
0.00173011
0.00179392
0.00181233
0.00176531
0.00165709
0.00151134
0.00135348
0.0012015
0.00106358
0.000942117
0.000837181
0.000747626
0.000671774
0.000607862
0.000554244
0.000509177
0.000471023
0.000437997
0.000408235
0.000379223
0.000349706
0.000321489
0.000296381
0.000274835
0.000256387
0.000240711
0.000226698
0.000211724
0.000185432
0.000133236
3.60196e-05
0.00145076
0.00149206
0.001504
0.00147489
0.00140654
0.0013102
0.00119986
0.00108743
0.000979872
0.000880527
0.000790898
0.000711256
0.000641179
0.000580033
0.000527091
0.000481429
0.000442091
0.00040792
0.000377502
0.000348819
0.00032047
0.000293354
0.000269011
0.000248125
0.000230499
0.000216078
0.000205366
0.000198563
0.000193227
0.000185046
0.000170217
0.00124021
0.00126848
0.00127677
0.00125771
0.00121235
0.00114645
0.00106786
0.000984453
0.00090146
0.000822038
0.000748128
0.000680737
0.000620152
0.000566379
0.000519131
0.000477831
0.000441711
0.000409786
0.000380831
0.000353258
0.000326025
0.000299797
0.000275701
0.000254108
0.000234634
0.000216898
0.000200881
0.000186316
0.000173013
0.000161077
0.000151337
0.00104797
0.00107644
0.00109656
0.00110257
0.00108961
0.00105831
0.00101189
0.00095497
0.000892581
0.000828434
0.000765036
0.000704161
0.00064694
0.000594035
0.000545766
0.000502205
0.000463177
0.000428295
0.000396921
0.000368175
0.00034092
0.00031436
0.000288843
0.000265311
0.000244216
0.000225381
0.000208522
0.000193673
0.000181182
0.000171063
0.000163434
0.000158386
0.000945755
0.000960484
0.000964906
0.000955803
0.000933559
0.000900015
0.00085805
0.000810979
0.000761301
0.000710855
0.000661149
0.000613242
0.000567863
0.000525557
0.000486581
0.000451005
0.000418673
0.000389174
0.000361855
0.000335913
0.000310724
0.000286531
0.000264052
0.000243655
0.000225169
0.000208279
0.00019289
0.00017902
0.00016659
0.000155934
0.00014709
0.000850316
0.000853575
0.000846967
0.000830734
0.000806007
0.000774553
0.000738659
0.000700019
0.000659918
0.000619476
0.000579571
0.000540871
0.000503927
0.000469132
0.000436679
0.000406572
0.000378618
0.000352405
0.000327393
0.000303173
0.000279929
0.000258204
0.000238364
0.000220343
0.000203933
0.000189089
0.000175962
0.000164664
0.00015545
0.000148342
0.000761818
0.000756888
0.000744752
0.00072614
0.000702219
0.000674569
0.000644346
0.000612399
0.000579578
0.000546529
0.000513781
0.000481853
0.000451125
0.000421896
0.0003943
0.000368276
0.000343568
0.000319836
0.000296881
0.000274833
0.000254122
0.000235062
0.000217637
0.000201673
0.000187105
0.000173991
0.000162379
0.000152518
0.000144509
0.000681182
0.000671917
0.000657674
0.000639233
0.00061769
0.000593879
0.000568384
0.000541737
0.000514428
0.000486854
0.000459436
0.000432513
0.000406383
0.00038124
0.000357121
0.000333913
0.000311455
0.000289679
0.000268725
0.000248928
0.000230575
0.000213705
0.000198203
0.000184031
0.000171277
0.000160066
0.000150625
0.000143019
0.000609502
0.000598429
0.000584023
0.000567091
0.000548209
0.000527759
0.000506125
0.000483605
0.000460469
0.00043705
0.000413627
0.00039046
0.000367747
0.000345598
0.000324001
0.000302938
0.000282436
0.000262645
0.000243847
0.000226295
0.000210059
0.000195071
0.000181299
0.000168825
0.000157739
0.000148245
0.000140408
0.00054669
0.000535384
0.000521932
0.000506844
0.000490375
0.000472764
0.000454207
0.000434858
0.000414933
0.000394651
0.000374227
0.000353864
0.000333688
0.000313745
0.000294077
0.000274828
0.00025618
0.00023837
0.000221616
0.000206018
0.000191547
0.000178193
0.000166045
0.000155211
0.000145881
0.000138105
0.000501189
0.000492173
0.000481455
0.000469338
0.000456006
0.000441639
0.00042632
0.000410151
0.000393253
0.000375778
0.000357887
0.000339746
0.000321487
0.000303187
0.00028496
0.000266999
0.000249512
0.000232707
0.000216783
0.000201858
0.000187933
0.000175019
0.000163204
0.000152588
0.000143341
0.000135499
0.000453565
0.000445009
0.000435202
0.000424377
0.00041262
0.000399979
0.000386474
0.000372187
0.000357188
0.000341597
0.000325534
0.000309111
0.00029242
0.000275618
0.000258938
0.000242594
0.000226789
0.000211707
0.000197465
0.000184101
0.000171639
0.000160171
0.0001498
0.000140677
0.000132821
0.00041888
0.00041199
0.000404066
0.000395238
0.000385599
0.000375153
0.000363884
0.000351822
0.000338995
0.000325462
0.000311314
0.000296643
0.000281528
0.000266119
0.000250681
0.000235471
0.000220668
0.000206435
0.000192896
0.000180108
0.000168115
0.000157005
0.000146882
0.000137875
0.000129983
0.000381979
0.000375581
0.000368353
0.000360441
0.000351805
0.000342406
0.000332237
0.000321296
0.000309603
0.000297198
0.000284144
0.000270512
0.000256466
0.000242272
0.000228177
0.000214362
0.000200975
0.000188145
0.000175941
0.000164426
0.000153682
0.00014381
0.000134929
0.000127016
0.000354634
0.000349427
0.000343535
0.000337027
0.000329872
0.000322033
0.000313473
0.000304156
0.000294077
0.000283251
0.000271703
0.00025948
0.000246739
0.000233744
0.000220733
0.000207885
0.000195342
0.000183224
0.000171616
0.000160586
0.000150219
0.000140599
0.000131853
0.000123922
0.000329666
0.000325408
0.000320591
0.000315221
0.000309285
0.000302739
0.000295538
0.000287623
0.000278964
0.000269542
0.000259372
0.000248475
0.000236978
0.000225122
0.00021316
0.00020126
0.00018955
0.000178144
0.000167135
0.000156596
0.000146611
0.000137258
0.000128653
0.000120713
0.000303324
0.000299382
0.000294912
0.00028998
0.000284509
0.000278444
0.000271725
0.000264301
0.000256137
0.000247213
0.000237531
0.000227198
0.000216443
0.000205495
0.000194514
0.000183618
0.000172917
0.000162504
0.000152459
0.000142861
0.000133787
0.000125329
0.000117385
0.000283002
0.000279715
0.000276023
0.000271901
0.000267313
0.000262201
0.000256495
0.000250138
0.00024308
0.000235278
0.000226713
0.000217468
0.000207747
0.000197767
0.000187665
0.000177562
0.000167555
0.000157736
0.000148187
0.00013898
0.000130189
0.000121883
0.000113953
0.000261512
0.000258447
0.00025497
0.000251119
0.000246805
0.000241958
0.00023652
0.000230429
0.000223625
0.00021607
0.000207826
0.000199068
0.000189994
0.000180741
0.000171405
0.000162078
0.000152848
0.000143793
0.00013498
0.000126478
0.000118333
0.000110428
0.000244636
0.000242057
0.000239144
0.000235896
0.000232241
0.000228119
0.000223462
0.000218204
0.000212277
0.000205632
0.000198304
0.000190447
0.000182227
0.000173777
0.000165176
0.000156509
0.000147856
0.000139289
0.000130872
0.000122663
0.000114691
0.000106827
0.000228973
0.000226796
0.00022435
0.000221591
0.00021848
0.000214966
0.000210974
0.000206436
0.000201277
0.000195439
0.000188939
0.000181905
0.000174485
0.000166788
0.00015889
0.00015086
0.000142769
0.000134686
0.000126665
0.000118752
0.000110964
0.000103161
0.000212564
0.00021051
0.000208138
0.000205493
0.000202486
0.000199058
0.000195143
0.00019066
0.000185538
0.000179784
0.000173499
0.000166814
0.00015982
0.000152583
0.00014516
0.000137615
0.000130006
0.000122378
0.000114765
0.000107174
9.9454e-05
0.000199295
0.000197527
0.000195507
0.000193246
0.000190667
0.000187723
0.000184339
0.000180442
0.000175948
0.000170856
0.000165249
0.000159234
0.000152892
0.000146276
0.000139432
0.000132413
0.000125266
0.000118028
0.000110718
0.000103335
9.57224e-05
0.0001869
0.000185375
0.000183659
0.000181708
0.000179492
0.000176953
0.000174028
0.000170631
0.000166685
0.00016218
0.000157179
0.000151779
0.000146038
0.000140003
0.000133705
0.000127188
0.000120489
0.000113635
0.000106631
9.94656e-05
9.19868e-05
0.000173998
0.000172535
0.000170833
0.000168923
0.00016673
0.000164194
0.000161229
0.000157762
0.000153777
0.000149323
0.000144476
0.000139287
0.000133787
0.000128002
0.000121961
0.000115693
0.000109214
0.000102517
9.55819e-05
8.82611e-05
0.000163348
0.000162056
0.0001606
0.000158944
0.000157045
0.000154837
0.000152244
0.000149193
0.000145664
0.000141698
0.000137349
0.000132662
0.000127656
0.000122347
0.000116757
0.000110902
0.000104792
9.84057e-05
9.17166e-05
8.45811e-05
0.000152235
0.000150984
0.000149521
0.000147872
0.000145946
0.000143675
0.000140987
0.000137861
0.000134324
0.000130423
0.000126188
0.000121633
0.000116767
0.0001116
0.000106141
0.000100389
9.4315e-05
8.78873e-05
8.0963e-05
0.000143022
0.000141911
0.000140637
0.000139198
0.000137512
0.000135518
0.000133146
0.000130372
0.000127215
0.00012371
0.000119883
0.000115741
0.000111285
0.000106516
0.000101434
9.60307e-05
9.02709e-05
8.4121e-05
7.74338e-05
0.00013437
0.000133386
0.00013228
0.000131009
0.000129527
0.000127767
0.000125667
0.000123197
0.000120375
0.000117225
0.000113767
0.000110001
0.000105921
0.000101523
9.68002e-05
9.17366e-05
8.62917e-05
8.04289e-05
7.40024e-05
0.00012538
0.000124415
0.00012327
0.000121963
0.000120409
0.000118545
0.000116345
0.000113818
0.000110983
0.000107855
0.000104429
0.000100696
9.66459e-05
9.2264e-05
8.75302e-05
8.24025e-05
7.68358e-05
7.06969e-05
0.000117862
0.000116986
0.000115975
0.000114817
0.000113435
0.000111779
0.000109818
0.000107549
0.000104992
0.000102157
9.90395e-05
9.56263e-05
9.18996e-05
8.78414e-05
8.34279e-05
7.86143e-05
7.33519e-05
6.75202e-05
0.000110792
0.000110003
0.000109111
0.00010807
0.000106841
0.000105365
0.000103607
0.000101565
9.92526e-05
9.66813e-05
9.3845e-05
9.07255e-05
8.73008e-05
8.35518e-05
7.94489e-05
7.49477e-05
6.99961e-05
6.44928e-05
0.000103446
0.000102653
0.000101703
0.000100603
9.92842e-05
9.77066e-05
9.58636e-05
9.37709e-05
9.14387e-05
8.88581e-05
8.60077e-05
8.28659e-05
7.94085e-05
7.56053e-05
7.14147e-05
6.67834e-05
6.16361e-05
9.72923e-05
9.65576e-05
9.57005e-05
9.47199e-05
9.35411e-05
9.21189e-05
9.04503e-05
8.85535e-05
8.64357e-05
8.40854e-05
8.14817e-05
7.86028e-05
7.54218e-05
7.19088e-05
6.80248e-05
6.37243e-05
9.1502e-05
9.08274e-05
9.0073e-05
8.91908e-05
8.81225e-05
8.68322e-05
8.53212e-05
8.35996e-05
8.16739e-05
7.95324e-05
7.71551e-05
7.45202e-05
7.16009e-05
6.83669e-05
6.47821e-05
6.08043e-05
8.54656e-05
8.4793e-05
8.39754e-05
8.30047e-05
8.18372e-05
8.04667e-05
7.89048e-05
7.71536e-05
7.52015e-05
7.30317e-05
7.0624e-05
6.7951e-05
6.4985e-05
6.16922e-05
5.80329e-05
8.04381e-05
7.9808e-05
7.90628e-05
7.81837e-05
7.71232e-05
7.58832e-05
7.44675e-05
7.28702e-05
7.10887e-05
6.911e-05
6.69138e-05
6.44741e-05
6.17641e-05
5.8754e-05
5.5408e-05
7.57012e-05
7.51213e-05
7.44537e-05
7.36476e-05
7.269e-05
7.1568e-05
7.02736e-05
6.88141e-05
6.71904e-05
6.53889e-05
6.33904e-05
6.11712e-05
5.8705e-05
5.59683e-05
5.2929e-05
7.07304e-05
7.01221e-05
6.93901e-05
6.85257e-05
6.74969e-05
6.63129e-05
6.4984e-05
6.35072e-05
6.18707e-05
6.0056e-05
5.80428e-05
5.58084e-05
5.33302e-05
5.05855e-05
6.66085e-05
6.60597e-05
6.54017e-05
6.46093e-05
6.36687e-05
6.25908e-05
6.13833e-05
6.00411e-05
5.85529e-05
5.69071e-05
5.50856e-05
5.30678e-05
5.08335e-05
4.83689e-05
6.27544e-05
6.22552e-05
6.16632e-05
6.09392e-05
6.00806e-05
5.90997e-05
5.80005e-05
5.67781e-05
5.54272e-05
5.39378e-05
5.22941e-05
5.04775e-05
4.84714e-05
4.62651e-05
5.86932e-05
5.81618e-05
5.74944e-05
5.67105e-05
5.58182e-05
5.48208e-05
5.37125e-05
5.24889e-05
5.11452e-05
4.96678e-05
4.80363e-05
4.62402e-05
4.42719e-05
5.53525e-05
5.48672e-05
5.42598e-05
5.35458e-05
5.27391e-05
5.18354e-05
5.083e-05
4.97294e-05
4.85255e-05
4.71971e-05
4.57341e-05
4.41296e-05
4.2379e-05
5.22184e-05
5.17768e-05
5.12287e-05
5.0585e-05
4.98493e-05
4.90259e-05
4.81268e-05
4.71449e-05
4.60601e-05
4.48647e-05
4.35565e-05
4.21281e-05
4.0576e-05
4.928e-05
4.88808e-05
4.83967e-05
4.78071e-05
4.71344e-05
4.64003e-05
4.55998e-05
4.47129e-05
4.37344e-05
4.26635e-05
4.14976e-05
4.02309e-05
3.88565e-05
4.6185e-05
4.57478e-05
4.52044e-05
4.46008e-05
4.39458e-05
4.3223e-05
4.24245e-05
4.15475e-05
4.05932e-05
3.95583e-05
3.84364e-05
3.72241e-05
4.36667e-05
4.32679e-05
4.278e-05
4.22347e-05
4.1641e-05
4.09902e-05
4.02751e-05
3.94947e-05
3.86464e-05
3.7729e-05
3.67366e-05
3.56645e-05
4.13079e-05
4.09509e-05
4.05083e-05
4.0011e-05
3.94721e-05
3.88876e-05
3.82505e-05
3.7556e-05
3.68025e-05
3.59857e-05
3.51093e-05
3.9089e-05
3.87667e-05
3.83663e-05
3.79115e-05
3.74247e-05
3.69e-05
3.63303e-05
3.57112e-05
3.50381e-05
3.43138e-05
3.35442e-05
3.67019e-05
3.63361e-05
3.59215e-05
3.54789e-05
3.50061e-05
3.44978e-05
3.39425e-05
3.33395e-05
3.27016e-05
3.20287e-05
3.47425e-05
3.44081e-05
3.40256e-05
3.36206e-05
3.31979e-05
3.27416e-05
3.22424e-05
3.17137e-05
3.11584e-05
3.057e-05
3.28785e-05
3.25705e-05
3.22224e-05
3.18587e-05
3.14762e-05
3.10651e-05
3.06278e-05
3.0164e-05
2.96737e-05
2.91546e-05
3.11045e-05
3.08283e-05
3.05183e-05
3.01902e-05
2.98448e-05
2.94813e-05
2.90933e-05
2.86854e-05
2.8256e-05
2.78014e-05
2.94288e-05
2.91818e-05
2.8906e-05
2.86147e-05
2.83084e-05
2.79823e-05
2.76432e-05
2.72857e-05
2.69049e-05
2.65014e-05
2.76313e-05
2.73859e-05
2.71257e-05
2.68488e-05
2.65648e-05
2.62664e-05
2.595e-05
2.56148e-05
2.52591e-05
2.61704e-05
2.59445e-05
2.57034e-05
2.5457e-05
2.52068e-05
2.49476e-05
2.46728e-05
2.43735e-05
2.40558e-05
2.4772e-05
2.45568e-05
2.43343e-05
2.41094e-05
2.38894e-05
2.36617e-05
2.34151e-05
2.31509e-05
2.34081e-05
2.32024e-05
2.299e-05
2.27812e-05
2.25776e-05
2.23726e-05
2.21576e-05
2.19308e-05
2.20638e-05
2.18572e-05
2.16546e-05
2.14563e-05
2.12664e-05
2.10794e-05
2.08886e-05
2.06918e-05
2.07353e-05
2.05282e-05
2.03332e-05
2.01464e-05
1.99636e-05
1.97854e-05
1.96147e-05
1.9447e-05
1.92422e-05
1.90496e-05
1.88642e-05
1.86826e-05
1.85122e-05
1.83568e-05
1.82086e-05
1.80493e-05
1.78597e-05
1.76748e-05
1.74945e-05
1.73305e-05
1.71834e-05
1.70457e-05
1.70188e-05
1.68406e-05
1.66657e-05
1.6494e-05
1.63352e-05
1.61909e-05
1.60577e-05
1.6145e-05
1.59771e-05
1.58146e-05
1.56511e-05
1.54973e-05
1.53564e-05
1.52242e-05
1.53318e-05
1.51748e-05
1.50216e-05
1.48697e-05
1.47221e-05
1.45809e-05
1.44451e-05
1.45338e-05
1.43795e-05
1.42345e-05
1.40883e-05
1.39451e-05
1.3809e-05
1.36791e-05
1.37681e-05
1.36051e-05
1.34493e-05
1.3293e-05
1.31421e-05
1.29947e-05
1.29823e-05
1.27931e-05
1.2618e-05
1.24444e-05
1.22716e-05
1.20995e-05
1.19596e-05
1.16745e-05
1.14073e-05
1.11535e-05
1.09084e-05
1.06785e-05
1.02126e-05
9.75243e-06
9.28049e-06
8.78493e-06
8.27951e-06
8.48854e-06
7.92065e-06
7.39111e-06
6.94802e-06
6.67691e-06
1.05287e-05
1.05672e-05
1.06759e-05
1.08285e-05
1.10039e-05
1.50868e-05
1.56449e-05
1.61697e-05
1.66482e-05
1.70731e-05
2.40307e-05
2.41941e-05
2.43167e-05
2.44e-05
2.44502e-05
3.35257e-05
3.3669e-05
3.3758e-05
3.37977e-05
3.3797e-05
)
;

boundaryField
{
    inlet
    {
        type            calculated;
        value           nonuniform List<scalar> 5(5.94887e-05 6.0173e-05 6.07692e-05 6.12828e-05 6.17185e-05);
    }
    outlet
    {
        type            calculated;
        value           nonuniform List<scalar> 0();
    }
    walls
    {
        type            calculated;
        value           uniform 0;
    }
    frontAndBack
    {
        type            empty;
    }
    procBoundary1to0
    {
        type            processor;
        value           nonuniform List<scalar> 
94
(
0.000924714
0.000924714
0.000839326
0.000839326
0.000759438
0.000759438
0.00068501
0.00068501
0.000616729
0.000616729
0.000555443
0.000555443
0.000508064
0.000460753
0.000460753
0.000424604
0.000387528
0.000387528
0.000359144
0.000333378
0.000306834
0.000306834
0.000285923
0.000264261
0.000264261
0.00024695
0.000230931
0.000214414
0.000214414
0.000200874
0.000188256
0.000175316
0.000175316
0.000164494
0.000153359
0.000153359
0.000144008
0.000135244
0.000126246
0.000126246
0.000118632
0.000111488
0.000104152
0.000104152
9.79278e-05
9.20862e-05
8.60644e-05
8.60644e-05
8.09755e-05
7.61985e-05
7.12545e-05
7.12545e-05
6.70852e-05
6.31749e-05
5.91374e-05
5.91374e-05
5.57474e-05
5.25733e-05
4.96041e-05
4.65335e-05
4.65335e-05
4.39731e-05
4.15759e-05
3.9326e-05
3.69894e-05
3.69894e-05
3.50013e-05
3.3112e-05
3.13121e-05
2.96105e-05
2.78516e-05
2.78516e-05
2.6369e-05
2.496e-05
2.3592e-05
2.22498e-05
2.09273e-05
1.94466e-05
1.94466e-05
1.8243e-05
1.72008e-05
1.63173e-05
1.54961e-05
1.46975e-05
1.39428e-05
1.3183e-05
1.22507e-05
1.06576e-05
1.06576e-05
9.06066e-06
1.05823e-05
1.44897e-05
2.38343e-05
3.33193e-05
)
;
    }
    procBoundary1to2
    {
        type            processor;
        value           nonuniform List<scalar> 
84
(
0.244213
0.0392039
0.0188483
0.00365291
8.26072e-05
3.8726e-05
0.000128739
0.000137303
0.000157938
0.000143364
0.000145558
0.000140446
0.000139022
0.000135867
0.000133299
0.000130298
0.000127294
0.00012411
0.000120824
0.000117425
0.000113933
0.000110341
0.000106674
0.000102941
9.9165e-05
9.53581e-05
9.15547e-05
8.7766e-05
8.40208e-05
8.03356e-05
7.67496e-05
7.32783e-05
6.99494e-05
6.67705e-05
6.37663e-05
6.09347e-05
5.82953e-05
5.58328e-05
5.89346e-05
5.89346e-05
5.63661e-05
5.39617e-05
5.17028e-05
4.95802e-05
4.75742e-05
4.5672e-05
4.38615e-05
4.21345e-05
4.04828e-05
3.88983e-05
3.73754e-05
3.59169e-05
3.45151e-05
3.41713e-05
3.41713e-05
3.27237e-05
3.13119e-05
2.99404e-05
2.86045e-05
2.73194e-05
2.60752e-05
2.4884e-05
2.37259e-05
2.28747e-05
2.28747e-05
2.16913e-05
2.04884e-05
1.92759e-05
1.80618e-05
1.6913e-05
1.59326e-05
1.51005e-05
1.43143e-05
1.35524e-05
1.28491e-05
1.28491e-05
1.19303e-05
1.04794e-05
7.80389e-06
6.6821e-06
1.11785e-05
1.74416e-05
2.44769e-05
3.37632e-05
)
;
    }
    procBoundary1to5
    {
        type            processor;
        value           nonuniform List<scalar> 
13
(
0.0161046
0.0161046
0.00611132
0.0039963
0.0039963
0.00267462
0.00211651
0.00211651
0.00164122
0.00139282
0.00120046
0.00120046
0.00101379
)
;
    }
}


// ************************************************************************* //
