/*--------------------------------*- C++ -*----------------------------------*\
| =========                 |                                                 |
| \\      /  F ield         | OpenFOAM: The Open Source CFD Toolbox           |
|  \\    /   O peration     | Version:  2506                                  |
|   \\  /    A nd           | Website:  www.openfoam.com                      |
|    \\/     M anipulation  |                                                 |
\*---------------------------------------------------------------------------*/
FoamFile
{
    version     2.0;
    format      ascii;
    arch        "LSB;label=32;scalar=64";
    class       volVectorField;
    location    "100";
    object      U;
}
// * * * * * * * * * * * * * * * * * * * * * * * * * * * * * * * * * * * * * //

dimensions      [0 1 -1 0 0 0 0];

internalField   nonuniform List<vector> 
1340
(
(4.41197 -1.36293 3.30531e-15)
(6.6079 -3.55766 -7.74469e-16)
(8.91009 -5.17836 2.87688e-16)
(11.0821 -6.20959 1.07653e-15)
(13.0317 -6.77813 1.67831e-15)
(14.7426 -7.01353 5.38304e-16)
(16.2162 -7.01803 -9.18285e-16)
(17.477 -6.88152 -8.13165e-16)
(18.567 -6.66232 4.37273e-16)
(19.5226 -6.40093 1.56622e-16)
(20.3766 -6.11906 5.24696e-16)
(21.1604 -5.83063 -4.14652e-16)
(21.895 -5.53344 -8.02634e-17)
(22.5981 -5.2253 -3.22301e-16)
(23.2793 -4.8936 1.35794e-16)
(23.9384 -4.52141 2.93799e-16)
(24.5403 -4.08246 -5.62603e-17)
(25.0126 -3.5754 3.52697e-17)
(25.3383 -3.05144 1.37516e-16)
(25.5562 -2.53739 -2.83164e-18)
(25.708 -1.96706 -2.65875e-17)
(25.8059 -1.29176 2.74469e-18)
(25.8457 -0.559612 -4.47883e-17)
(25.7993 0.162404 5.13639e-16)
(25.6607 0.83064 3.0584e-16)
(25.4331 1.42624 9.27124e-16)
(25.1271 1.94546 4.31904e-15)
(24.7463 2.3931 6.61449e-17)
(4.94936 2.27964 -3.62374e-15)
(6.33086 -0.0427389 -3.24977e-15)
(8.04902 -1.94784 1.93874e-15)
(9.94532 -3.32448 -1.081e-15)
(11.8464 -4.21508 1.52728e-16)
(13.6436 -4.72402 -3.49574e-16)
(15.2911 -4.94883 3.53704e-17)
(16.7666 -4.96987 9.51319e-17)
(18.0683 -4.86916 3.52708e-16)
(19.2201 -4.69399 -6.01256e-16)
(20.2465 -4.48113 6.43299e-16)
(21.1751 -4.24779 -1.45245e-16)
(22.0317 -4.00618 -2.62888e-16)
(22.8407 -3.74756 -1.77138e-16)
(23.6177 -3.46549 -3.78543e-16)
(24.3748 -3.13832 -3.64243e-16)
(25.1128 -2.74107 -3.18152e-16)
(25.8071 -2.22831 7.52953e-17)
(26.4012 -1.60791 1.78868e-18)
(26.8676 -0.946089 -7.44242e-17)
(27.2143 -0.27333 -9.79183e-17)
(27.4331 0.364012 -1.73227e-18)
(27.5211 0.923572 2.161e-18)
(27.4846 1.39616 -6.63483e-17)
(27.3607 1.79618 -4.24736e-16)
(27.1722 2.1505 -1.97881e-16)
(26.931 2.47841 -1.4479e-15)
(26.6412 2.78781 -1.96805e-15)
(26.2961 3.0824 4.09243e-16)
(7.13537 3.19969 1.35251e-15)
(8.15084 1.13537 1.41189e-15)
(9.45005 -0.632124 1.17301e-15)
(10.9208 -2.05158 -1.02537e-15)
(12.4464 -3.12728 -7.60597e-16)
(13.9412 -3.89336 1.94031e-16)
(15.3577 -4.39958 7.25534e-16)
(16.6672 -4.69949 9.99257e-16)
(17.8569 -4.84632 -1.92436e-16)
(18.9339 -4.88143 -2.32959e-17)
(19.9123 -4.83814 6.43368e-16)
(20.8102 -4.73786 1.10381e-17)
(21.6471 -4.59492 4.53241e-16)
(22.4419 -4.41057 3.85314e-16)
(23.2081 -4.18357 8.42081e-16)
(23.9543 -3.90262 7.92757e-16)
(24.6802 -3.55152 2.8264e-16)
(25.3641 -3.1079 4.91019e-17)
(25.9594 -2.58776 -1.39868e-17)
(26.4412 -2.04374 -7.20829e-17)
(26.8213 -1.498 5.48315e-17)
(27.115 -0.951562 6.69392e-17)
(27.3281 -0.397988 -1.08046e-17)
(27.4617 0.166201 8.15768e-17)
(27.5178 0.739547 1.49006e-16)
(27.4983 1.30594 3.86606e-16)
(27.4041 1.84628 5.27092e-16)
(27.2365 2.34602 7.94671e-16)
(26.9888 2.80002 1.31306e-15)
(8.52511 5.79839 1.09411e-15)
(8.98856 3.82422 -9.72758e-16)
(9.72845 1.96756 2.91003e-18)
(10.712 0.335036 2.70966e-16)
(11.8709 -1.02797 1.83252e-15)
(13.1234 -2.10353 1.37114e-16)
(14.3992 -2.90131 5.26631e-16)
(15.6518 -3.45509 -1.37509e-15)
(16.848 -3.80573 -8.38249e-16)
(17.9675 -3.99501 2.52594e-16)
(19.005 -4.06229 1.4127e-16)
(19.9652 -4.0398 -6.57835e-16)
(20.8571 -3.95157 6.46571e-17)
(21.6937 -3.81425 -1.49084e-16)
(22.4888 -3.6337 3.76162e-16)
(23.2532 -3.40988 -3.67849e-16)
(23.9936 -3.13396 -4.79211e-16)
(24.7091 -2.79152 5.38565e-17)
(25.3818 -2.36176 9.03514e-17)
(25.9739 -1.84961 7.3961e-17)
(26.4605 -1.29493 4.51175e-17)
(26.8482 -0.721089 1.657e-17)
(27.1492 -0.138609 -2.55487e-17)
(27.3694 0.441049 1.48233e-17)
(27.5122 1.00214 2.59517e-17)
(27.583 1.52539 5.46808e-17)
(27.5893 1.99908 -1.71243e-16)
(27.5358 2.42394 -4.56718e-16)
(27.4253 2.80524 -9.80729e-16)
(27.2504 3.15177 -1.34911e-15)
(10.2703 6.01826 -1.40108e-15)
(10.5806 4.25896 3.35061e-15)
(11.1254 2.58796 -2.32044e-15)
(11.88 1.09077 -7.31468e-18)
(12.7996 -0.199359 2.91704e-17)
(13.824 -1.2627 -2.78823e-16)
(14.897 -2.09803 -3.98579e-16)
(15.9796 -2.72634 -7.9263e-16)
(17.041 -3.17559 9.58765e-16)
(18.0587 -3.47368 4.04992e-16)
(19.0225 -3.65104 -8.1218e-17)
(19.9302 -3.73306 2.02237e-16)
(20.7851 -3.73973 -3.57966e-16)
(21.5948 -3.68507 2.36918e-16)
(22.3688 -3.57591 -2.1288e-16)
(23.1153 -3.41273 2.31597e-16)
(23.8389 -3.18944 1.94823e-16)
(24.5379 -2.89526 -2.5864e-17)
(25.1967 -2.51733 -1.85009e-16)
(25.7831 -2.06172 -1.66519e-17)
(26.2732 -1.56216 -6.85083e-18)
(26.6686 -1.04464 -4.04282e-17)
(26.9794 -0.521346 -2.37714e-18)
(27.2104 -0.00111132 5.6297e-18)
(27.3641 0.506859 -9.0954e-17)
(27.4444 0.996582 -7.74074e-17)
(27.4585 1.47083 4.28856e-16)
(27.4115 1.92824 1.16022e-15)
(27.3084 2.36511 2.46018e-16)
(27.1459 2.77933 -1.36234e-16)
(11.7527 7.69339 -7.21774e-16)
(11.7505 6.1358 1.26427e-15)
(11.9527 4.5561 -8.98187e-16)
(12.3557 3.04445 -7.25359e-16)
(12.9395 1.67169 -7.92569e-16)
(13.6742 0.462839 -7.81379e-16)
(14.5153 -0.562152 1.20019e-15)
(15.4189 -1.39492 -5.65725e-16)
(16.3539 -2.04768 6.26509e-16)
(17.2937 -2.53912 1.1946e-16)
(18.2168 -2.88747 -1.78256e-16)
(19.1104 -3.11535 -4.9483e-16)
(19.9685 -3.24299 -3.8144e-16)
(20.7895 -3.28777 2.04937e-16)
(21.5761 -3.263 -8.40651e-17)
(22.3334 -3.17669 -2.50663e-16)
(23.0664 -3.03129 -2.09125e-16)
(23.7775 -2.82363 -1.34738e-16)
(24.4637 -2.54574 1.58822e-16)
(25.1112 -2.18801 -4.59001e-17)
(25.6926 -1.7541 -7.94427e-17)
(26.1853 -1.27062 2.23627e-17)
(26.5872 -0.761474 3.57326e-18)
(26.9058 -0.238421 -2.26049e-18)
(27.1452 0.290145 -7.47478e-18)
(27.3074 0.814425 1.03315e-16)
(27.3964 1.32519 7.50822e-17)
(27.4182 1.81037 -4.0706e-16)
(27.378 2.26245 -3.4898e-16)
(27.2805 2.67719 2.90414e-16)
(27.1221 3.05559 -2.65749e-16)
(13.0756 7.58491 -3.28705e-16)
(13.0243 6.18626 1.31096e-16)
(13.1481 4.75847 1.03802e-15)
(13.4462 3.38531 7.46332e-16)
(13.9018 2.12628 3.11362e-16)
(14.4936 0.999818 -8.0379e-16)
(15.1874 0.0242763 -3.73185e-16)
(15.9488 -0.789897 6.06757e-16)
(16.7534 -1.45085 5.83026e-17)
(17.5795 -1.97137 -2.34177e-17)
(18.4079 -2.36326 -4.14212e-16)
(19.226 -2.64297 3.27299e-16)
(20.0258 -2.82567 7.20976e-16)
(20.8024 -2.925 -3.97624e-16)
(21.5554 -2.95175 -4.07934e-17)
(22.2863 -2.91307 -3.79562e-16)
(22.9974 -2.81133 -1.85541e-16)
(23.6891 -2.64445 1.76222e-16)
(24.3576 -2.40642 -3.76816e-16)
(24.9903 -2.09082 1.096e-16)
(25.5636 -1.70139 1.03973e-16)
(26.056 -1.25994 -4.82114e-18)
(26.4626 -0.789031 1.58738e-17)
(26.7883 -0.30161 7.96542e-18)
(27.0365 0.192596 1.92472e-18)
(27.2089 0.683087 -1.32343e-17)
(27.3087 1.15878 1.74279e-16)
(27.3415 1.61434 -4.49659e-16)
(27.3121 2.04688 -2.96655e-17)
(27.2246 2.45382 -3.33668e-16)
(27.0751 2.83536 -1.4041e-16)
(14.2171 7.45772 -4.38304e-18)
(14.1318 6.19198 -1.83302e-16)
(14.1982 4.89398 -1.76513e-15)
(14.4172 3.6409 7.15979e-16)
(14.7748 2.48383 -9.68051e-17)
(15.2548 1.43641 8.81826e-16)
(15.8303 0.515297 -4.82086e-16)
(16.4734 -0.268686 4.37727e-16)
(17.1656 -0.921555 -6.30374e-16)
(17.8896 -1.45232 -4.73716e-16)
(18.6292 -1.86813 2.38446e-16)
(19.3733 -2.18055 2.57943e-16)
(20.1135 -2.40014 2.50883e-16)
(20.8433 -2.53672 1.40566e-16)
(21.5599 -2.59863 -1.60901e-16)
(22.2622 -2.59191 6.21515e-16)
(22.95 -2.51892 -1.78251e-16)
(23.6219 -2.37858 2.64013e-16)
(24.273 -2.16663 2.37827e-16)
(24.8916 -1.87882 1.06271e-18)
(25.4565 -1.51857 -2.41779e-17)
(25.9475 -1.10325 -8.1839e-18)
(26.3578 -0.653375 1.90813e-19)
(26.6895 -0.182097 -8.61973e-18)
(26.9453 0.300748 -5.53705e-18)
(27.1263 0.784918 -2.49124e-17)
(27.2349 1.26033 -1.23031e-16)
(27.2761 1.71877 7.85139e-16)
(27.2543 2.15319 3.11046e-16)
(27.1733 2.55886 4.0723e-17)
(27.0298 2.93457 4.44841e-16)
(15.4388 8.41237 -5.76575e-16)
(15.2133 7.3204 -3.22161e-16)
(15.104 6.16765 -6.65252e-16)
(15.1279 4.98159 -1.41255e-16)
(15.2865 3.83283 7.77509e-16)
(15.5683 2.76705 5.70141e-16)
(15.9603 1.79422 -1.61763e-16)
(16.4403 0.928778 1.3461e-15)
(16.9854 0.181167 -3.54079e-17)
(17.5814 -0.453831 9.43698e-16)
(18.2146 -0.983132 3.73109e-16)
(18.8721 -1.41136 -3.30758e-16)
(19.5447 -1.74651 3.00693e-17)
(20.2243 -1.99568 -6.60316e-16)
(20.9043 -2.16559 4.41066e-17)
(21.5805 -2.26203 3.6204e-16)
(22.25 -2.2895 1.73162e-17)
(22.9105 -2.24981 2.21989e-16)
(23.559 -2.14215 -2.65499e-16)
(24.1902 -1.96321 -1.60772e-16)
(24.7926 -1.71031 -2.46113e-16)
(25.347 -1.38663 -1.20796e-16)
(25.8345 -1.00643 -2.48293e-18)
(26.2466 -0.588135 -5.76114e-18)
(26.5833 -0.145147 -9.60938e-20)
(26.8462 0.31229 5.11041e-18)
(27.0358 0.773764 2.48597e-18)
(27.1539 1.22852 -7.37487e-17)
(27.2049 1.66839 -2.09236e-17)
(27.1928 2.08803 -6.42736e-16)
(27.121 2.48305 1.01789e-15)
(26.9859 2.85184 -5.41727e-17)
(16.0908 7.1783 -8.53067e-16)
(15.9647 6.12296 2.11567e-15)
(15.9565 5.03417 1.06486e-15)
(16.0685 3.97725 3.74272e-16)
(16.2912 2.99299 -1.53756e-15)
(16.6132 2.08911 -8.58381e-16)
(17.0158 1.27827 -1.52593e-15)
(17.4797 0.570058 -1.37731e-15)
(17.9938 -0.0407201 -3.06419e-16)
(18.5474 -0.559879 2.06157e-16)
(19.1303 -0.990334 -2.1125e-16)
(19.7353 -1.33795 -2.6458e-16)
(20.3556 -1.60702 2.78285e-16)
(20.985 -1.80174 -3.65216e-16)
(21.6187 -1.92569 4.49407e-17)
(22.2529 -1.98159 1.39385e-16)
(22.8837 -1.97025 2.59904e-16)
(23.5072 -1.89085 -1.09029e-16)
(24.1171 -1.74074 -6.11376e-17)
(24.7023 -1.51806 -4.49306e-17)
(25.2452 -1.2258 1.0108e-16)
(25.7277 -0.875683 -5.26847e-18)
(26.14 -0.48385 6.29506e-19)
(26.4805 -0.0634256 8.73441e-19)
(26.7493 0.375204 2.2292e-18)
(26.9466 0.821722 1.16928e-17)
(27.0734 1.26546 7.54615e-17)
(27.1332 1.69785 2.05935e-16)
(27.1296 2.11169 -7.75711e-18)
(27.0658 2.50136 -9.03928e-16)
(26.9381 2.86428 -5.62771e-16)
(16.732 6.06439 -1.34559e-15)
(16.6996 5.06106 -8.39142e-16)
(16.7755 4.08532 1.00087e-15)
(16.9514 3.17433 1.36523e-15)
(17.2173 2.33376 2.18119e-16)
(17.5569 1.57517 9.22328e-16)
(17.9534 0.907275 8.44984e-16)
(18.3979 0.32455 -4.95313e-16)
(18.8821 -0.178518 3.28304e-16)
(19.398 -0.603946 -8.44887e-17)
(19.9402 -0.956132 5.39832e-16)
(20.5037 -1.23782 -3.24786e-16)
(21.0827 -1.45113 -5.1587e-16)
(21.6728 -1.59771 -1.73375e-16)
(22.2696 -1.67878 -4.07719e-16)
(22.8685 -1.69421 -3.44609e-16)
(23.4647 -1.64277 -2.8636e-16)
(24.0515 -1.52189 4.93173e-16)
(24.6182 -1.33017 2.72868e-16)
(25.1479 -1.0704 3.91957e-17)
(25.6235 -0.752136 9.49195e-17)
(26.0345 -0.389525 7.52538e-18)
(26.3775 0.00480953 -8.98897e-20)
(26.6514 0.420337 -9.58409e-20)
(26.8558 0.846769 -1.65979e-18)
(26.9911 1.2734 -3.10649e-17)
(27.06 1.69112 -9.18614e-17)
(27.0655 2.09311 -1.12266e-16)
(27.0104 2.47348 -2.60617e-16)
(26.8911 2.829 9.9635e-16)
(17.3697 5.06903 7.07458e-17)
(17.4172 4.16544 5.94578e-16)
(17.5558 3.32035 -1.73261e-15)
(17.7764 2.53806 -1.13443e-15)
(18.0644 1.82882 7.48891e-16)
(18.4049 1.20067 1.06944e-15)
(18.7904 0.647759 -5.4414e-16)
(19.2144 0.164731 -7.39236e-17)
(19.6706 -0.250116 -4.27066e-17)
(20.1554 -0.600652 -1.35435e-16)
(20.6651 -0.888477 4.90679e-16)
(21.1951 -1.11431 6.55674e-16)
(21.7414 -1.27831 5.8084e-17)
(22.2997 -1.38032 4.4076e-16)
(22.8651 -1.41917 1.42885e-16)
(23.4324 -1.39306 2.11392e-16)
(23.9948 -1.29935 -3.13281e-16)
(24.5416 -1.13665 -1.9483e-17)
(25.0569 -0.907303 -1.26225e-16)
(25.524 -0.619181 -1.08069e-16)
(25.932 -0.284461 -2.49099e-17)
(26.276 0.0849916 2.68557e-18)
(26.5541 0.478721 -2.44848e-18)
(26.7647 0.886632 -6.85612e-18)
(26.9078 1.2981 4.0179e-18)
(26.9852 1.70385 -1.93689e-17)
(26.9994 2.09629 4.06971e-17)
(26.9527 2.46865 4.92539e-16)
(26.8417 2.81682 -6.86362e-17)
(18.002 4.22399 -1.57492e-15)
(18.1108 3.43841 4.03102e-16)
(18.2944 2.70955 7.21204e-16)
(18.5398 2.04642 -1.21899e-15)
(18.8335 1.45669 -8.11642e-16)
(19.169 0.934364 7.17053e-16)
(19.541 0.473757 1.48141e-16)
(19.9444 0.073139 -4.71863e-16)
(20.3772 -0.270956 4.35332e-16)
(20.8368 -0.559646 -2.19794e-16)
(21.3197 -0.792784 7.29363e-16)
(21.8228 -0.96954 1.85044e-16)
(22.3422 -1.08863 -2.18767e-17)
(22.8732 -1.1479 9.02162e-17)
(23.4104 -1.14497 -6.36582e-17)
(23.947 -1.07689 -3.78634e-17)
(24.4728 -0.942118 -3.29688e-16)
(24.9722 -0.742361 9.26493e-18)
(25.4292 -0.483986 8.61557e-17)
(25.8325 -0.177436 -5.5489e-18)
(26.1762 0.166323 -2.62434e-18)
(26.4572 0.537073 1.67729e-18)
(26.6733 0.924882 -1.56291e-17)
(26.8237 1.31927 1.99641e-17)
(26.9093 1.71068 -1.95795e-16)
(26.9323 2.09133 4.66657e-16)
(26.8942 2.45405 -7.03435e-16)
(26.7919 2.79395 -3.30421e-16)
(18.6214 3.53409 9.68447e-17)
(18.7748 2.85409 -5.13916e-16)
(18.9849 2.23412 4.85812e-17)
(19.2394 1.6812 4.62603e-16)
(19.5324 1.18907 -6.24493e-16)
(19.8594 0.752069 1.69108e-16)
(20.2165 0.36819 -4.60737e-17)
(20.6024 0.0339865 -2.77028e-16)
(21.0158 -0.251451 -4.18861e-16)
(21.4542 -0.48745 -3.65296e-16)
(21.9154 -0.672605 -1.70072e-16)
(22.3963 -0.804899 -2.46857e-16)
(22.8924 -0.88143 -1.10867e-16)
(23.3986 -0.899162 -1.48116e-16)
(23.9084 -0.854709 4.80958e-17)
(24.4119 -0.746033 2.81244e-16)
(24.8942 -0.574259 3.59052e-17)
(25.3395 -0.344441 4.65458e-17)
(25.7366 -0.0653894 1.97655e-17)
(26.0786 0.252978 4.73178e-18)
(26.3613 0.600833 -3.79476e-19)
(26.5819 0.968519 1.21362e-17)
(26.7388 1.34578 1.43837e-17)
(26.8323 1.72295 -1.99708e-16)
(26.8637 2.09193 4.41013e-18)
(26.8342 2.44491 6.20379e-16)
(26.7406 2.77621 -2.76093e-16)
(19.2208 2.97661 -7.20819e-17)
(19.4016 2.39662 8.3035e-16)
(19.623 1.87849 -2.21827e-16)
(19.8798 1.41584 1.90152e-16)
(20.168 1.00285 -1.13107e-16)
(20.4843 0.637321 6.6491e-16)
(20.8284 0.315626 1.4488e-16)
(21.1996 0.0367467 -2.06372e-17)
(21.5964 -0.198504 4.54446e-16)
(22.0176 -0.388401 -2.81925e-16)
(22.4606 -0.530412 1.16541e-18)
(22.9219 -0.62111 4.41697e-16)
(23.3967 -0.656895 3.99561e-17)
(23.8789 -0.633927 -1.52303e-16)
(24.3592 -0.54963 -1.26577e-16)
(24.8232 -0.404355 7.69493e-17)
(25.2554 -0.202011 7.09357e-18)
(25.6447 0.0500918 -9.4123e-18)
(25.9835 0.343115 5.27123e-18)
(26.2668 0.667783 1.13131e-19)
(26.4909 1.01477 1.1819e-18)
(26.6536 1.37409 -4.2492e-17)
(26.7545 1.73607 1.11978e-16)
(26.7941 2.09233 -1.53866e-16)
(26.7732 2.4347 4.36553e-16)
(26.6885 2.75671 9.39035e-17)
(19.6354 3.08061 3.65028e-16)
(19.7915 2.53803 6.05715e-16)
(19.985 2.05275 1.35454e-18)
(20.2109 1.61842 5.71931e-16)
(20.4656 1.22929 3.45353e-17)
(20.7463 0.882828 -8.52972e-16)
(21.053 0.575249 -1.56925e-16)
(21.3859 0.305304 -1.14848e-16)
(21.7442 0.0737038 3.00943e-17)
(22.1275 -0.117751 9.82543e-17)
(22.534 -0.266303 -3.6472e-16)
(22.961 -0.36814 -1.81589e-16)
(23.4043 -0.419272 2.46107e-16)
(23.8585 -0.415448 2.5469e-16)
(24.3148 -0.353599 -1.45144e-16)
(24.7593 -0.233212 -4.02248e-18)
(25.1773 -0.057023 -1.41411e-16)
(25.5573 0.168982 2.11915e-17)
(25.8915 0.437047 5.59839e-18)
(26.174 0.738591 6.79142e-20)
(26.4007 1.06467 -2.97386e-18)
(26.5684 1.40568 7.85282e-18)
(26.676 1.75201 -5.76041e-17)
(26.7235 2.09509 -2.48761e-16)
(26.711 2.42636 -8.25916e-16)
(26.6354 2.73859 2.63504e-17)
(20.1565 2.66151 6.26591e-16)
(20.3264 2.20692 -2.83102e-16)
(20.5258 1.79972 -6.0476e-16)
(20.7514 1.43388 -3.06541e-16)
(21.0009 1.1068 -1.65374e-16)
(21.2745 0.814345 -1.57487e-16)
(21.5728 0.555064 2.59258e-16)
(21.8957 0.329425 -5.15449e-16)
(22.2435 0.139092 1.261e-16)
(22.6152 -0.0131494 -3.07796e-16)
(23.0088 -0.123404 -2.15479e-16)
(23.4209 -0.187378 -1.1489e-16)
(23.8468 -0.200452 3.00805e-17)
(24.2786 -0.158926 1.72211e-16)
(24.703 -0.061533 2.18685e-17)
(25.1054 0.0899375 7.31166e-17)
(25.4747 0.290773 2.24653e-17)
(25.8029 0.534353 -2.23056e-17)
(26.0835 0.812851 -1.50216e-18)
(26.3115 1.11784 -1.80896e-19)
(26.4834 1.44008 1.54751e-17)
(26.5972 1.77018 9.34183e-18)
(26.6521 2.09938 2.61238e-16)
(26.648 2.4189 3.44256e-16)
(26.5815 2.72076 1.45895e-16)
(20.4984 2.76963 4.72612e-16)
(20.6481 2.34406 -3.70955e-16)
(20.8246 1.96249 1.13314e-16)
(21.0251 1.61916 2.98442e-16)
(21.2472 1.31124 8.80027e-16)
(21.4915 1.03444 -6.77978e-17)
(21.7586 0.786949 1.11983e-16)
(22.0492 0.568982 3.01922e-16)
(22.364 0.381913 1.68878e-16)
(22.7028 0.228383 5.68849e-16)
(23.0642 0.112298 3.64776e-16)
(23.4458 0.0380336 -2.91854e-17)
(23.8437 0.0104204 -2.92098e-16)
(24.2507 0.0336461 2.22034e-17)
(24.6541 0.109788 -9.83368e-17)
(25.0399 0.238073 2.88513e-17)
(25.3974 0.414872 1.2093e-17)
(25.7183 0.634647 -1.08273e-17)
(25.9957 0.890384 6.20766e-20)
(26.224 1.17424 5.32464e-19)
(26.399 1.47744 1.58857e-18)
(26.5183 1.79086 1.49718e-17)
(26.5803 2.10564 -4.20551e-17)
(26.5843 2.41286 4.37058e-17)
(26.527 2.70386 2.44763e-16)
(20.9509 2.4663 1.05205e-15)
(21.1079 2.10887 -8.00047e-17)
(21.2864 1.78709 -1.101e-16)
(21.4845 1.4979 -7.12935e-16)
(21.7028 1.23686 4.24827e-16)
(21.9421 1.00187 -3.73275e-16)
(22.2034 0.792803 2.55939e-17)
(22.4877 0.610736 -2.06983e-16)
(22.7956 0.457993 -1.98944e-16)
(23.1265 0.338295 -8.60459e-17)
(23.4784 0.256041 -9.78565e-17)
(23.8486 0.216192 9.4745e-17)
(24.2307 0.223281 5.07182e-17)
(24.6126 0.280112 -2.92448e-17)
(24.9811 0.386836 -7.25615e-18)
(25.3256 0.540841 -2.34473e-17)
(25.6379 0.737599 7.90348e-18)
(25.9108 0.97098 1.88595e-18)
(26.1383 1.23377 3.64067e-18)
(26.3156 1.51774 -3.44232e-18)
(26.4396 1.81405 6.17381e-17)
(26.5081 2.11388 -7.86071e-18)
(26.52 2.40824 -9.77509e-17)
(26.4719 2.68789 -1.07576e-16)
(21.236 2.57547 1.6897e-17)
(21.376 2.24101 -4.75043e-16)
(21.5354 1.93971 1.15839e-16)
(21.7125 1.66856 2.23507e-17)
(21.9078 1.4231 1.94205e-17)
(22.1222 1.20094 1.77093e-16)
(22.357 1.00161 -4.02382e-16)
(22.6134 0.825802 7.09405e-17)
(22.8926 0.675528 -1.98446e-16)
(23.1944 0.554212 -8.7348e-18)
(23.518 0.46607 2.14946e-16)
(23.8611 0.416061 -8.38531e-17)
(24.2183 0.409085 -2.55719e-17)
(24.5785 0.448584 1.69252e-16)
(24.9289 0.535452 3.05464e-17)
(25.2596 0.668015 -1.218e-17)
(25.5622 0.842703 1.33825e-17)
(25.8294 1.05428 -1.81857e-18)
(26.0549 1.29621 -3.85847e-18)
(26.2336 1.56085 7.93634e-18)
(26.3615 1.83976 -8.82715e-18)
(26.436 2.1242 -2.71801e-17)
(26.4554 2.4052 8.90514e-17)
(26.4165 2.67304 -1.4703e-16)
(21.5044 2.67333 -7.77956e-17)
(21.6295 2.36036 4.38282e-16)
(21.7723 2.07847 -3.47024e-16)
(21.9308 1.82465 2.3621e-16)
(22.1057 1.5944 -3.01425e-16)
(22.298 1.38512 1.87219e-17)
(22.5088 1.19604 -5.77846e-17)
(22.7398 1.02744 1.94903e-16)
(22.9924 0.880938 1.68498e-16)
(23.2671 0.75966 -1.76902e-16)
(23.5635 0.667578 -3.59019e-17)
(23.8804 0.609532 2.2866e-16)
(24.2132 0.590548 -5.41008e-17)
(24.5516 0.614595 -4.74218e-17)
(24.8835 0.683323 -9.08756e-17)
(25.1994 0.795863 2.46332e-17)
(25.4913 0.949546 -4.65234e-18)
(25.7518 1.13999 5.29925e-19)
(25.9743 1.3614 -8.43207e-18)
(26.1532 1.60675 -9.03996e-19)
(26.2842 1.86804 -1.1961e-17)
(26.3641 2.13673 9.22837e-18)
(26.3908 2.40389 -3.23659e-18)
(26.3608 2.65951 1.00973e-16)
(21.869 2.4685 -4.43403e-16)
(21.9973 2.20484 -1.48902e-16)
(22.1395 1.96756 4.38297e-17)
(22.2964 1.75203 4.19562e-16)
(22.4688 1.55547 1.40039e-16)
(22.6581 1.37687 1.58158e-16)
(22.866 1.21611 -4.05324e-16)
(23.0941 1.07445 5.27094e-17)
(23.3434 0.954598 1.95545e-16)
(23.6143 0.860226 -1.42754e-16)
(23.906 0.795945 3.843e-17)
(24.2148 0.766847 -8.01492e-18)
(24.5316 0.777323 4.32364e-17)
(24.8447 0.829652 -7.64399e-17)
(25.1452 0.923691 -1.00506e-17)
(25.4255 1.05755 2.8444e-17)
(25.6782 1.22768 6.49231e-19)
(25.8966 1.42904 1.0051e-17)
(26.0748 1.65523 -1.89497e-17)
(26.2081 1.8988 1.73576e-18)
(26.2928 2.15144 -4.73276e-18)
(26.3263 2.40438 -1.41104e-17)
(26.3051 2.64739 -1.85902e-17)
(22.0953 2.56653 3.76088e-16)
(22.2107 2.32019 4.62987e-16)
(22.3385 2.09856 -8.44179e-17)
(22.4794 1.8971 2.29233e-16)
(22.6342 1.71295 -1.39161e-16)
(22.8041 1.5448 -1.01432e-17)
(22.991 1.39225 7.79242e-17)
(23.1968 1.2562 4.77314e-17)
(23.4226 1.13891 -2.74642e-17)
(23.6694 1.0437 -7.4115e-17)
(23.937 0.974893 -6.88702e-17)
(24.2228 0.937514 -6.85533e-17)
(24.5181 0.936272 -8.25874e-17)
(24.8123 0.973955 -5.42539e-17)
(25.097 1.051 -1.68178e-17)
(25.365 1.16628 -5.90152e-18)
(25.6091 1.31702 -1.16767e-18)
(25.8224 1.49889 -1.05524e-17)
(25.999 1.70621 -1.3681e-17)
(26.1336 1.93205 1.738e-17)
(26.2224 2.16847 7.62555e-18)
(26.2621 2.40684 -3.24795e-18)
(26.2495 2.63694 4.86904e-18)
(22.4128 2.42556 -8.63149e-17)
(22.5281 2.21863 -4.36296e-16)
(22.6546 2.03061 8.33491e-17)
(22.7936 1.85842 -1.65771e-16)
(22.9462 1.70061 -5.95304e-17)
(23.1142 1.55649 -2.21694e-16)
(23.2996 1.42658 -5.39973e-18)
(23.5038 1.31277 8.98166e-17)
(23.728 1.21792 5.19062e-17)
(23.973 1.14604 -3.19225e-18)
(24.2365 1.10202 -6.2863e-17)
(24.5109 1.09075 4.95278e-17)
(24.7863 1.11547 1.87843e-16)
(25.0549 1.17708 -1.59484e-17)
(25.31 1.2751 1.25621e-17)
(25.5445 1.40746 -6.65682e-19)
(25.7519 1.57058 5.30934e-18)
(25.9259 1.75941 3.74855e-17)
(26.0611 1.96763 -7.4523e-17)
(26.1532 2.18773 7.62906e-18)
(26.1988 2.4113 -3.45642e-18)
(26.1944 2.62824 3.55416e-18)
(22.6042 2.52185 -5.15455e-18)
(22.7081 2.32889 5.39449e-16)
(22.8221 2.15357 -5.24132e-17)
(22.947 1.99282 8.62621e-17)
(23.0841 1.84508 -2.49766e-17)
(23.235 1.7094 2.03816e-17)
(23.4018 1.58597 4.30559e-16)
(23.5862 1.47628 -3.77764e-16)
(23.7896 1.38283 1.23153e-16)
(24.0131 1.3092 2.04537e-16)
(24.2553 1.26006 -1.95029e-17)
(24.5094 1.24039 1.19884e-16)
(24.7663 1.25373 -9.43225e-17)
(25.0187 1.30146 -4.76768e-17)
(25.2604 1.38357 -3.72141e-17)
(25.4848 1.49865 -2.83234e-18)
(25.6854 1.6438 -1.30112e-17)
(25.8559 1.81467 -1.86623e-17)
(25.9908 2.0055 6.84797e-17)
(26.0855 2.20928 1.54341e-17)
(26.1363 2.4179 -2.54736e-17)
(26.1398 2.62152 -2.18291e-17)
(22.7853 2.60997 -4.5116e-17)
(22.8791 2.43009 -3.48743e-16)
(22.9818 2.26674 3.34789e-16)
(23.0942 2.11689 -2.74752e-16)
(23.2173 1.97889 3.52636e-16)
(23.3529 1.85156 -1.11919e-16)
(23.5029 1.73479 -2.59978e-16)
(23.6691 1.62973 1.05464e-16)
(23.8532 1.53846 -2.24396e-16)
(24.0567 1.46417 -1.49128e-16)
(24.2788 1.41123 -6.20733e-18)
(24.5133 1.38466 3.06095e-17)
(24.752 1.38818 -2.32576e-17)
(24.9883 1.42352 -1.472e-17)
(25.2164 1.49109 1.16504e-17)
(25.4301 1.59005 6.2725e-18)
(25.6231 1.71814 1.42317e-17)
(25.7893 1.87164 1.57771e-17)
(25.9231 2.04543 7.95112e-17)
(26.0198 2.23301 8.12355e-17)
(26.0752 2.42663 3.97899e-17)
(26.086 2.61682 5.10789e-17)
(23.0412 2.5231 1.70582e-16)
(23.134 2.37096 -4.00801e-16)
(23.2351 2.23149 6.49917e-17)
(23.3457 2.10279 2.14917e-16)
(23.4675 1.9836 -2.41529e-16)
(23.6023 1.87356 7.69315e-17)
(23.7519 1.77345 -7.2769e-18)
(23.9183 1.68498 8.01795e-18)
(24.1032 1.61094 -6.38001e-17)
(24.3062 1.55538 1.71851e-16)
(24.522 1.52325 -3.13215e-17)
(24.7431 1.51841 9.58447e-19)
(24.9634 1.5428 5.44477e-18)
(25.1778 1.5972 7.6979e-18)
(25.3804 1.68125 -1.40498e-18)
(25.5653 1.79324 5.37849e-18)
(25.7264 1.93011 -2.20847e-17)
(25.8584 2.08732 -1.16581e-16)
(25.9561 2.25892 -1.56061e-16)
(26.0155 2.43761 -4.14174e-17)
(26.0333 2.61434 -1.01784e-16)
(23.1948 2.60849 -4.8914e-17)
(23.2786 2.46698 1.91881e-16)
(23.3697 2.33724 -2.65599e-17)
(23.4692 2.21741 -3.55412e-16)
(23.5785 2.10609 -1.29832e-17)
(23.6995 2.0027 7.97026e-17)
(23.8342 1.90774 -1.97737e-16)
(23.9843 1.82256 2.95825e-16)
(24.1519 1.74954 5.43388e-17)
(24.337 1.69238 -1.39829e-16)
(24.5351 1.65591 -2.07379e-17)
(24.7392 1.64402 -2.42103e-17)
(24.9439 1.65885 3.68228e-18)
(25.1445 1.70142 3.35975e-17)
(25.3358 1.77176 -5.35064e-19)
(25.512 1.86869 -3.615e-18)
(25.6675 1.98971 1.84749e-17)
(25.7968 2.13089 -3.00162e-17)
(25.895 2.28685 2.00937e-16)
(25.9577 2.45073 -4.31624e-17)
(25.9818 2.61407 1.29706e-16)
(23.3403 2.68701 -1.79781e-16)
(23.416 2.55541 -3.30177e-16)
(23.4981 2.43481 3.60385e-16)
(23.5875 2.3234 2.40416e-16)
(23.6857 2.21962 -2.91227e-17)
(23.7944 2.12277 3.1161e-17)
(23.9154 2.03305 1.29169e-16)
(24.0507 1.95148 6.86824e-17)
(24.2023 1.88006 1.48549e-16)
(24.3708 1.82216 -4.92749e-17)
(24.5521 1.7824 4.18928e-17)
(24.7399 1.7647 1.12086e-16)
(24.9294 1.77125 6.19253e-17)
(25.1164 1.80329 -1.86989e-17)
(25.2962 1.86115 4.65244e-18)
(25.4634 1.94411 3.52174e-17)
(25.6127 2.05017 -3.7893e-17)
(25.7387 2.17597 4.7429e-17)
(25.8366 2.31674 -2.86196e-16)
(25.902 2.46608 3.52204e-17)
(25.9318 2.61618 -1.6687e-16)
(23.5462 2.63686 1.09982e-16)
(23.6205 2.52484 2.19309e-16)
(23.7008 2.42136 -1.53672e-16)
(23.789 2.32478 3.43082e-16)
(23.8865 2.23425 -2.62691e-16)
(23.9952 2.14973 5.56877e-17)
(24.1169 2.07199 -2.53332e-16)
(24.254 2.00265 -4.31406e-17)
(24.407 1.94474 -4.5776e-17)
(24.5724 1.90263 -1.69362e-16)
(24.7448 1.88021 -1.08566e-16)
(24.9196 1.8797 -7.20124e-17)
(25.0933 1.90244 -1.66275e-17)
(25.2616 1.94902 7.10355e-18)
(25.4196 2.01909 -6.26745e-17)
(25.5621 2.11111 6.25747e-17)
(25.6843 2.22228 -4.27491e-17)
(25.7812 2.34837 2.41866e-16)
(25.8487 2.48352 3.09891e-17)
(25.8835 2.62061 1.99094e-16)
(23.6698 2.71182 9.92808e-17)
(23.7368 2.60787 -1.20792e-16)
(23.8091 2.51182 -3.05044e-16)
(23.8882 2.42206 -2.70739e-16)
(23.9757 2.33757 3.44469e-16)
(24.0733 2.2582 -6.14569e-17)
(24.1827 2.18442 2.79604e-16)
(24.3064 2.11751 7.02498e-17)
(24.445 2.06016 -9.76412e-18)
(24.5957 2.01652 1.46959e-18)
(24.7534 1.99036 5.90571e-17)
(24.9142 1.98389 7.6053e-17)
(25.075 1.99851 1.16463e-17)
(25.2318 2.03499 -8.46027e-18)
(25.3804 2.09327 3.71201e-17)
(25.516 2.17224 -3.19409e-17)
(25.6337 2.26958 3.36186e-18)
(25.7291 2.38162 -4.51727e-17)
(25.7979 2.50306 -2.15298e-16)
(25.8372 2.62745 3.18014e-17)
(23.8472 2.68442 -1.79907e-16)
(23.9124 2.5953 -1.11369e-17)
(23.9834 2.51195 3.6309e-16)
(24.0619 2.43324 -5.83355e-17)
(24.1494 2.35887 -5.29577e-17)
(24.2477 2.28909 -4.76732e-17)
(24.3591 2.22486 -1.54773e-17)
(24.4846 2.16856 6.58333e-17)
(24.6215 2.12408 3.71907e-17)
(24.7654 2.09505 3.65358e-17)
(24.9129 2.08362 -2.71111e-17)
(25.0612 2.09121 2.83817e-17)
(25.2068 2.1187 -5.84054e-20)
(25.346 2.16629 -1.34626e-17)
(25.4742 2.23321 3.1418e-17)
(25.5872 2.31758 -3.67758e-17)
(25.6804 2.41626 7.86708e-18)
(25.75 2.52453 1.28164e-16)
(25.7929 2.63659 -1.35505e-16)
(23.9521 2.75488 2.73921e-16)
(24.0108 2.67228 9.69949e-17)
(24.0746 2.59494 -8.97916e-17)
(24.1449 2.52171 -1.19004e-16)
(24.2233 2.45217 -1.63261e-16)
(24.3116 2.38637 1.42979e-16)
(24.4118 2.32502 -9.63046e-17)
(24.5252 2.27014 1.36939e-16)
(24.6494 2.22538 -6.33622e-17)
(24.7804 2.19422 -1.18934e-17)
(24.9152 2.17872 1.1505e-17)
(25.0515 2.18028 -2.50928e-17)
(25.1863 2.19987 -6.94302e-18)
(25.3161 2.23784 -2.21095e-17)
(25.4369 2.29372 2.35212e-17)
(25.5447 2.36603 1.10779e-16)
(25.6353 2.45212 1.47637e-17)
(25.7051 2.54786 5.6791e-17)
(25.751 2.64806 -2.76316e-17)
(24.0516 2.81977 8.21379e-17)
(24.1045 2.74321 -1.00076e-16)
(24.1617 2.67148 -1.48375e-17)
(24.2248 2.60344 -1.40496e-16)
(24.295 2.53852 -1.41982e-16)
(24.3742 2.47663 -1.4027e-16)
(24.4643 2.41823 1.8865e-16)
(24.5665 2.36506 -2.2423e-18)
(24.6789 2.3205 3.98264e-17)
(24.7979 2.28786 2.22415e-17)
(24.9209 2.26909 -5.34107e-17)
(25.0459 2.26556 2.85703e-17)
(25.1701 2.27823 -1.20786e-18)
(25.2907 2.3076 2.68104e-17)
(25.404 2.35345 -5.72884e-17)
(25.5064 2.41463 3.90596e-17)
(25.594 2.48895 -2.93875e-16)
(25.6633 2.57282 1.31972e-16)
(25.7115 2.66167 1.77582e-16)
(24.1934 2.80851 2.67803e-16)
(24.245 2.74202 -6.04085e-17)
(24.3014 2.67885 -9.06914e-17)
(24.3643 2.61833 -6.0326e-18)
(24.4353 2.56025 1.12164e-16)
(24.5162 2.50484 -7.11193e-17)
(24.6083 2.45357 -3.77899e-17)
(24.7099 2.40959 -1.14563e-17)
(24.8177 2.37601 -4.75744e-17)
(24.9296 2.35469 3.58149e-17)
(25.0438 2.34688 2.00455e-17)
(25.158 2.35358 3.86678e-19)
(25.2696 2.37535 2.4891e-17)
(25.3755 2.41216 8.59548e-18)
(25.4722 2.46316 -1.8004e-16)
(25.5564 2.52655 1.41973e-16)
(25.6247 2.5993 -1.84506e-16)
(25.6746 2.6774 -2.21721e-16)
(24.2781 2.86854 1.16744e-17)
(24.3243 2.80696 2.47309e-16)
(24.3749 2.74835 -1.7146e-16)
(24.4312 2.69199 5.19894e-18)
(24.4947 2.63756 4.68693e-17)
(24.5673 2.58513 9.38813e-17)
(24.6501 2.53593 3.77486e-17)
(24.7418 2.49282 -1.38446e-16)
(24.8394 2.45877 6.07023e-17)
(24.941 2.4355 -6.65073e-18)
(25.045 2.42417 1.67648e-17)
(25.1497 2.42574 5.93907e-18)
(25.2526 2.44085 -2.22392e-17)
(25.3511 2.46957 -3.5531e-17)
(25.4422 2.51132 1.86611e-16)
(25.5226 2.56467 7.67684e-17)
(25.5896 2.62706 8.86123e-17)
(25.6405 2.69502 1.33742e-16)
(24.3585 2.92373 -3.11108e-16)
(24.4 2.86669 8.93167e-17)
(24.4453 2.81231 -7.62748e-17)
(24.4956 2.75989 2.40691e-16)
(24.5524 2.70897 -3.39202e-17)
(24.6175 2.65948 -8.6561e-17)
(24.6919 2.61241 5.49183e-17)
(24.7746 2.57041 5.2483e-17)
(24.8627 2.53626 9.99007e-17)
(24.9547 2.51155 -5.51818e-17)
(25.0493 2.49737 -1.41533e-17)
(25.1449 2.49461 -4.10657e-18)
(25.2395 2.50391 -1.15622e-17)
(25.3308 2.52547 2.8208e-17)
(25.4161 2.55891 -1.39626e-16)
(25.4927 2.6031 6.14348e-18)
(25.5577 2.65593 -7.59762e-18)
(25.6091 2.71441 7.78465e-17)
(24.4719 2.92155 -6.09343e-17)
(24.5126 2.87113 1.12861e-16)
(24.5576 2.82239 -1.18774e-16)
(24.6083 2.77481 -4.10088e-17)
(24.6666 2.72817 7.72668e-17)
(24.7334 2.68325 -1.46995e-16)
(24.8078 2.64252 3.66252e-18)
(24.8873 2.6086 -2.16294e-18)
(24.9704 2.58293 -5.27975e-18)
(25.0562 2.56647 1.70579e-17)
(25.1433 2.56009 -5.96739e-18)
(25.2301 2.56439 -2.2587e-17)
(25.3144 2.57967 9.30589e-17)
(25.394 2.6057 1.26634e-16)
(25.4665 2.64159 1.13656e-16)
(25.5294 2.68567 -3.56735e-19)
(25.5806 2.73539 -1.19645e-17)
(24.5405 2.97187 8.02142e-17)
(24.5769 2.92514 -3.57088e-17)
(24.617 2.87985 -9.15031e-17)
(24.6624 2.83542 5.00688e-17)
(24.7145 2.7915 -6.87013e-17)
(24.7745 2.74874 -6.03781e-17)
(24.8414 2.70942 5.91447e-17)
(24.9129 2.67598 -4.25611e-17)
(24.9879 2.64972 -1.41931e-18)
(25.0656 2.63152 5.34427e-18)
(25.1447 2.62215 5.8966e-18)
(25.224 2.6222 1.25404e-17)
(25.3017 2.63201 -1.73978e-16)
(25.3757 2.65148 -7.19888e-17)
(25.4439 2.67995 9.69549e-17)