/*--------------------------------*- C++ -*----------------------------------*\
| =========                 |                                                 |
| \\      /  F ield         | OpenFOAM: The Open Source CFD Toolbox           |
|  \\    /   O peration     | Version:  2506                                  |
|   \\  /    A nd           | Website:  www.openfoam.com                      |
|    \\/     M anipulation  |                                                 |
\*---------------------------------------------------------------------------*/
FoamFile
{
    version     2.0;
    format      ascii;
    arch        "LSB;label=32;scalar=64";
    class       surfaceScalarField;
    location    "9.99546";
    object      ddtCorrDdt0(phi);
}
// * * * * * * * * * * * * * * * * * * * * * * * * * * * * * * * * * * * * * //

dimensions      [0 3 -2 0 0 0 0];

oriented        oriented;

internalField   nonuniform List<scalar> 
19160
(
1.78793e-05
0.00167762
3.50817e-05
0.00158336
2.86318e-05
0.00164899
5.27257e-05
0.00142037
5.50566e-05
0.00155693
3.43443e-05
0.00161464
8.54744e-05
0.00126269
7.48616e-05
0.00140056
6.26498e-05
0.00152863
3.91863e-05
0.00157546
0.000123824
0.00115415
9.98408e-05
0.00123771
8.25475e-05
0.00138067
7.00947e-05
0.00149772
4.23783e-05
0.00153308
0.000161631
0.00112816
0.000125227
0.00112877
0.000100989
0.00121927
8.9135e-05
0.00136163
7.64987e-05
0.0014636
4.64375e-05
0.00148664
0.000194943
0.00113034
0.000155198
0.00109819
0.000120257
0.0011095
0.000102356
0.00120604
9.64435e-05
0.00134168
8.49714e-05
0.00142507
5.31892e-05
0.00143345
0.000224957
0.00113398
0.000181716
0.00110383
0.000144391
0.00107406
0.000116235
0.00109562
0.000106444
0.00119604
0.000107734
0.00131892
9.84489e-05
0.00137981
6.3747e-05
0.00136971
0.000251207
0.00112241
0.000205785
0.00110991
0.00016819
0.00108003
0.000133943
0.00105635
0.00011447
0.00108759
0.000115571
0.00118821
0.000125115
0.00129225
0.00011811
0.00132544
7.77092e-05
0.001292
0.000275876
0.00110264
0.000225532
0.00110266
0.000190382
0.00108772
0.00015424
0.00105973
0.000125967
0.00104485
0.000117576
0.00108559
0.00013109
0.00118223
0.000149231
0.00126113
0.00014252
0.00126063
9.24186e-05
0.00119958
0.00029853
0.00107335
0.000244262
0.00108391
0.000208212
0.00108483
0.000173429
0.00106853
0.000141769
0.00104393
0.000122418
0.00104001
0.000126718
0.00108996
0.000153083
0.00117838
0.000177811
0.00122584
0.000167176
0.00118587
0.000104264
0.00109531
0.000320602
0.00104284
0.000259674
0.00105794
0.000223532
0.00106859
0.000189055
0.00106921
0.000157375
0.00105292
0.000132111
0.00103424
0.000123686
0.00104304
0.000141566
0.00110148
0.000178965
0.00117723
0.000205507
0.00118751
0.000186072
0.00110407
0.000109125
0.000986189
0.000340683
0.00100614
0.000275172
0.00102734
0.000235977
0.00104549
0.000200369
0.00105728
0.000169836
0.00105675
0.000142959
0.00104207
0.000125824
0.0010321
0.000129326
0.00105528
0.000159647
0.0011208
0.000203477
0.00117926
0.000225609
0.00114797
0.000192443
0.00102075
0.000103792
0.000882397
0.000360087
0.000966917
0.000288964
0.000992345
0.000247786
0.00101553
0.000209379
0.00103648
0.000177632
0.00104948
0.000150944
0.00104876
0.000130179
0.00103772
0.00012225
0.00103917
0.000137211
0.00107772
0.000176396
0.00114788
0.000220401
0.00118447
0.000230709
0.00110971
0.000181067
0.000943474
8.65846e-05
0.000795812
0.000377886
0.00092196
0.000302969
0.000952911
0.000258776
0.000981355
0.00021702
0.00100789
0.000182864
0.00103125
0.000154849
0.00104558
0.000132611
0.00104633
0.000118407
0.00104156
0.000119495
0.00105689
0.000143656
0.00111046
0.000186723
0.00118156
0.000223007
0.00119217
0.000215102
0.00107567
0.000149199
0.00088086
5.82891e-05
0.000737523
0.000394526
0.000873943
0.00031569
0.000909239
0.000269596
0.000942091
0.000224635
0.00097374
0.000186917
0.00100384
0.000156034
0.00103006
0.000131774
0.00104641
0.000114174
0.00105056
0.000106131
0.00105492
0.000114925
0.00108562
0.0001449
0.00115228
0.00018519
0.00121937
0.000206053
0.00120122
0.000175625
0.00104925
9.82237e-05
0.000840926
2.1639e-05
0.000715885
0.000410174
0.00082307
0.000327805
0.000861828
0.000279833
0.000899002
0.000232069
0.000934657
0.000191043
0.000969614
0.000156587
0.00100329
0.000128857
0.00103298
0.00010805
0.00105254
9.43542e-05
0.00106234
9.15808e-05
0.00107827
0.000106091
0.00112443
0.000136996
0.00120048
0.00016748
0.00125794
0.000166347
0.00121049
0.000113558
0.00103391
3.26176e-05
0.000829947
-1.90883e-05
0.000734973
0.000423861
0.000766347
0.000339404
0.000811472
0.000289506
0.000852155
0.000239448
0.000891623
0.000195421
0.00093028
0.000157384
0.000968816
0.0001258
0.00100634
0.000101039
0.00103999
8.28154e-05
0.00106408
7.209e-05
0.00108183
7.34244e-05
0.00111093
9.04476e-05
0.00117098
0.000116783
0.00125117
0.000130707
0.00129359
0.000104528
0.00121953
3.35488e-05
0.00103298
-4.0375e-05
0.000851234
-5.87713e-05
0.000793745
0.000437122
0.000711022
0.000349009
0.000756742
0.000298753
0.000802225
0.000246499
0.000845103
0.000199972
0.000887072
0.000158748
0.000928916
0.000123378
0.000971238
9.4501e-05
0.00101288
7.19088e-05
0.0010509
5.53545e-05
0.00108081
4.68067e-05
0.00110845
5.02907e-05
0.00115109
6.5975e-05
0.00122179
8.20365e-05
0.00129984
7.48707e-05
0.00132324
2.42362e-05
0.00122884
-5.63646e-05
0.00104897
-0.000111764
0.000904227
-9.22849e-05
0.00088603
0.000447655
0.000649781
0.000359128
0.000700903
0.000306539
0.000748955
0.000253214
0.000795511
0.00020451
0.000840565
0.000160535
0.000885285
0.000121798
0.000930497
8.90246e-05
0.000976715
6.22441e-05
0.00102254
4.09873e-05
0.00106527
2.54447e-05
0.00110218
1.79027e-05
0.00114084
2.11115e-05
0.00119595
3.12393e-05
0.00127259
3.25051e-05
0.00134221
2.36823e-06
0.00134511
-6.74336e-05
0.00123991
-0.000145663
0.00108287
-0.000172378
0.00098432
-0.000114966
0.001001
0.000458389
0.000586556
0.000366596
0.000642314
0.00031419
0.000693252
0.000259158
0.000743011
0.000208863
0.000791157
0.000162575
0.000838526
0.000120903
0.00088618
8.46725e-05
0.000934849
5.40369e-05
0.000984922
2.86773e-05
0.00103485
8.16957e-06
0.00108254
-7.15008e-06
0.00112723
-1.5061e-05
0.00117701
-1.48397e-05
0.00124203
-1.39627e-05
0.00131905
-3.0322e-05
0.0013749
-8.12881e-05
0.00135897
-0.000160485
0.00125473
-0.000223098
0.00113359
-0.000213798
0.00108315
-0.000124113
0.00112511
0.000466742
0.000523799
0.000374236
0.000578916
0.000321289
0.000635215
0.000264648
0.000687763
0.000212867
0.000739007
0.000164685
0.000789048
0.000120519
0.00083891
8.12302e-05
0.000889622
4.71594e-05
0.000941726
1.81503e-05
0.000995449
-6.26661e-06
0.00104929
-2.66676e-05
0.00110206
-4.25564e-05
0.00115472
-5.23102e-05
0.00121448
-5.76211e-05
0.00128569
-6.86554e-05
0.00135739
-0.000102432
0.00139604
-0.000167763
0.00136624
-0.000243527
0.00127516
-0.000277849
0.00119764
-0.00023108
0.00119012
-0.000119371
0.00124448
0.00047446
0.000456092
0.000380816
0.000517219
0.000326524
0.000573681
0.000269968
0.000629895
0.000216533
0.000684096
0.000166697
0.000736995
0.000120455
0.000789112
7.85184e-05
0.000841622
4.13542e-05
0.000895427
9.06758e-06
0.000950809
-1.86854e-05
0.00100787
-4.27056e-05
0.00106533
-6.35611e-05
0.00112306
-8.07136e-05
0.00118313
-9.37853e-05
0.00125065
-0.000106529
0.00132357
-0.000129954
0.00138491
-0.000177534
0.00140581
-0.000246999
0.00136972
-0.000304943
0.00130225
-0.000303084
0.00126965
-0.000223383
0.00129413
-0.000103282
0.00134776
0.000481081
0.000389322
0.000386264
0.000450644
0.000332372
0.000511372
0.000273957
0.000569691
0.000219753
0.000626675
0.000168524
0.000682269
0.000120532
0.000736918
7.63592e-05
0.000791271
3.6445e-05
0.000846531
1.14109e-06
0.000903354
-2.96325e-05
0.000961756
-5.65983e-05
0.00102176
-8.07022e-05
0.00108247
-0.000102338
0.00114469
-0.000121508
0.00121085
-0.000138942
0.00128306
-0.000159456
0.00135307
-0.000193433
0.00140081
-0.000247712
0.00140653
-0.000308234
0.00137301
-0.000336804
0.00133597
-0.000296894
0.00134316
-0.000194993
0.00138584
-8.04449e-05
0.00142821
0.000487108
0.000320498
0.00039134
0.000384247
0.000336482
0.000446534
0.00027784
0.000507489
0.000222503
0.000566942
0.000170075
0.000625125
0.000120589
0.000682212
7.45566e-05
0.000738721
3.22787e-05
0.000795437
-5.79095e-06
0.000853463
-3.94148e-05
0.000913136
-6.90665e-05
0.000974225
-9.56923e-05
0.00103675
-0.000120071
0.0011002
-0.000142901
0.00116608
-0.000164516
0.00123642
-0.000186199
0.0013098
-0.000213455
0.00137309
-0.0002534
0.0014065
-0.000304195
0.00140249
-0.000343806
0.00138001
-0.000336096
0.00137518
-0.000263881
0.00141205
-0.00015393
0.00145933
-5.68574e-05
0.00148507
0.000487977
0.00017529
0.000395767
0.00031607
0.000340401
0.000380328
0.000280822
0.000443552
0.000224756
0.000505236
0.000171259
0.000565757
0.000120498
0.000625216
7.29012e-05
0.000683867
2.86545e-05
0.000742345
-1.18504e-05
0.000801497
-4.8174e-05
0.000862222
-8.04261e-05
0.000924496
-0.000109368
0.000987901
-0.000135799
0.00105248
-0.000160781
0.00111808
-0.000184934
0.0011865
-0.000208516
0.00125874
-0.000233691
0.00133004
-0.000264714
0.0013844
-0.000303408
0.00140571
-0.00034074
0.00139942
-0.000350352
0.00139427
-0.000306777
0.00141807
-0.000213665
0.00147178
-0.000110985
0.00151345
-3.80411e-05
0.00152311
0.000488408
0.00014329
0.000395918
0.000175138
0.000343651
0.00031282
0.000283255
0.000377894
0.000226483
0.000441825
0.000172084
0.000504411
0.000120173
0.000566082
7.12202e-05
0.000626897
2.53277e-05
0.000687194
-1.72302e-05
0.000747725
-5.60014e-05
0.000809324
-9.08006e-05
0.000872597
-0.000122045
0.000937173
-0.000150389
0.00100249
-0.000176969
0.00106867
-0.000202619
0.00113577
-0.000227469
0.00120545
-0.000252396
0.00127745
-0.000279014
0.00134434
-0.000308856
0.00138985
-0.00033914
0.00140411
-0.00035446
0.00140353
-0.000331007
0.0014185
-0.000258451
0.00146286
-0.000159988
0.00152078
-7.63856e-05
0.0015518
-2.82506e-05
0.00155136
0.000488814
0.000111399
0.000396131
0.000143077
0.000344193
0.000174596
0.000285075
0.000311
0.000227689
0.000376689
0.000172475
0.000441434
0.000119563
0.000505021
6.9403e-05
0.000567899
2.20858e-05
0.000630139
-2.21908e-05
0.000692155
-6.30711e-05
0.000754795
-0.000100258
0.000818781
-0.000133834
0.000884385
-0.000164138
0.000950921
-0.000192267
0.00101779
-0.000219099
0.00108515
-0.000244804
0.0011531
-0.000269901
0.00122296
-0.00029471
0.00129314
-0.000319351
0.00135483
-0.000343385
0.0013941
-0.00035867
0.00140832
-0.000347874
0.0014204
-0.000294235
0.00145428
-0.000205748
0.00150862
-0.000116428
0.00156082
-5.82745e-05
0.00158182
-3.00922e-05
0.00158145
0.000489225
7.85725e-05
0.000396589
0.000110941
0.000344308
0.000142963
0.000285748
0.000173923
0.000228357
0.000310332
0.00017246
0.000376704
0.000118647
0.00044235
6.7389e-05
0.000507035
1.87929e-05
0.000571192
-2.69721e-05
0.00063492
-6.96375e-05
0.000698721
-0.000108944
0.000763481
-0.000144786
0.000829734
-0.000177144
0.000897392
-0.000206921
0.000965575
-0.000235003
0.00103369
-0.000261554
0.0011019
-0.000287078
0.00117028
-0.000311392
0.00123964
-0.000333656
0.00130745
-0.000353588
0.00136504
-0.000367361
0.00140279
-0.000364201
0.00142465
-0.000327783
0.00145395
-0.000253602
0.00150214
-0.000163602
0.00155579
-9.4193e-05
0.00159674
-6.18578e-05
0.00161359
-4.41589e-05
0.00162561
0.000489969
4.49034e-05
0.00039702
7.81415e-05
0.000344419
0.00011083
0.000285899
0.000142812
0.000228913
0.000173367
0.00017202
0.000310772
0.000117415
0.000377936
6.51618e-05
0.000444577
1.53788e-05
0.000510449
-3.17297e-05
0.00057595
-7.59477e-05
0.00064123
-0.000117084
0.000706862
-0.000155015
0.00077371
-0.000189452
0.000842041
-0.000221014
0.000911485
-0.000250486
0.000981058
-0.000278074
0.00105021
-0.000304323
0.00111914
-0.000328977
0.00118787
-0.000350725
0.00125671
-0.000368984
0.00132284
-0.000381502
0.00137918
-0.000382819
0.00142141
-0.000360854
0.00145772
-0.000305462
0.00150581
-0.000223116
0.00156165
-0.000144554
0.00160616
-0.000100724
0.00163561
-8.84856e-05
0.00165792
-6.91423e-05
0.00169475
0.000490906
1.1085e-05
0.000397505
4.44187e-05
0.000344563
7.79974e-05
0.000285711
0.000111019
0.00022885
0.000142875
0.000172504
0.000172884
0.000115885
0.000312302
6.27307e-05
0.000380367
1.18386e-05
0.000448118
-3.65425e-05
0.000515262
-8.21684e-05
0.000582171
-0.00012491
0.000649056
-0.000164696
0.000716543
-0.000201133
0.000785391
-0.000234579
0.000855606
-0.000265604
0.000926603
-0.000294398
0.000997382
-0.000321659
0.00106755
-0.00034718
0.00113735
-0.000369594
0.00120674
-0.000388111
0.00127584
-0.00040082
0.00134216
-0.000404926
0.00140128
-0.000393422
0.00145397
-0.000357278
0.00150954
-0.000292404
0.00157509
-0.000214444
0.00163154
-0.000157071
0.0016625
-0.000138088
0.00168521
-0.000135766
0.00172454
-0.000101663
0.00179642
0.000491973
-2.33094e-05
0.000397882
1.07083e-05
0.00034433
4.46511e-05
0.000285287
7.84205e-05
0.000228518
0.000111351
0.00017236
0.000143018
0.000116299
0.00017247
6.01255e-05
0.000314907
8.20347e-06
0.000384002
-4.14045e-05
0.00045298
-8.83852e-05
0.000521479
-0.000132585
0.000589846
-0.000174019
0.000658378
-0.000212293
0.000727703
-0.00024764
0.000798452
-0.000280367
0.00087037
-0.000310531
0.000942736
-0.000338973
0.0010147
-0.000365685
0.00108605
-0.000389375
0.00115713
-0.000409357
0.00122798
-0.000423752
0.00129877
-0.00043071
0.00136795
-0.000426302
0.00143417
-0.000405474
0.00150217
-0.000361941
0.00157907
-0.000297805
0.00165846
-0.000235472
0.00170994
-0.000203366
0.00172778
-0.000203076
0.00175252
-0.000197261
0.00182014
-0.00013698
0.0019334
0.000492685
-5.76987e-05
0.000398214
-2.36418e-05
0.000344268
1.07705e-05
0.000284794
4.51445e-05
0.000227959
7.89791e-05
0.000171825
0.000111886
0.000116135
0.000143182
6.04787e-05
0.000172116
4.53629e-06
0.000318574
-4.6247e-05
0.000388844
-9.45811e-05
0.000459176
-0.000140197
0.00052909
-0.000183128
0.000598955
-0.000223062
0.000669147
-0.000260226
0.00074029
-0.000294753
0.000812839
-0.000326459
0.000886298
-0.000356216
0.000959979
-0.000384243
0.00103325
-0.000409476
0.00110616
-0.000431432
0.0011792
-0.000448415
0.00125265
-0.000458878
0.00132694
-0.000460113
0.00140176
-0.00045008
0.00147877
-0.000424718
0.00156495
-0.000381072
0.00166234
-0.000327825
0.00175081
-0.000287815
0.00179439
-0.000279632
0.00180434
-0.000286867
0.00184213
-0.000263976
0.00194714
-0.000169565
0.00210296
0.000492899
-9.26055e-05
0.000398288
-5.77727e-05
0.000343823
-2.31971e-05
0.000284056
1.15082e-05
0.00022708
4.60235e-05
0.000170862
7.99414e-05
0.000115405
0.000112616
6.01905e-05
0.00014347
4.85654e-06
0.000171796
-5.09603e-05
0.000323288
-0.000100638
0.000394901
-0.000147718
0.000466697
-0.000192104
0.000538067
-0.000233548
0.000609441
-0.00027239
0.00068131
-0.000308709
0.000754245
-0.00034211
0.00082849
-0.000373342
0.000903424
-0.000402754
0.00097849
-0.000429559
0.00105334
-0.000453602
0.00112833
-0.000473409
0.00120419
-0.000487714
0.00128148
-0.000494193
0.00136102
-0.000492157
0.00144383
-0.000479916
0.00153397
-0.000454785
0.00163866
-0.000418842
0.00175336
-0.000383055
0.00184605
-0.000367408
0.00188217
-0.000375731
0.0018932
-0.000377359
0.00195551
-0.00032554
0.00210311
-0.000194
0.00229696
0.00049256
-0.000127445
0.000397777
-9.2095e-05
0.000343318
-5.7267e-05
0.000283167
-2.2308e-05
0.000225881
1.27076e-05
0.00016959
4.72957e-05
0.000114226
8.11207e-05
5.92697e-05
0.000113537
4.45715e-06
0.00014387
-5.06492e-05
0.000171485
-0.000106389
0.000329039
-0.000154977
0.000402159
-0.000200911
0.000475504
-0.000243814
0.000548332
-0.000284191
0.000621243
-0.00032221
0.000694811
-0.000357361
0.000769496
-0.000390242
0.00084539
-0.000421151
0.000921821
-0.000449502
0.000998433
-0.00047552
0.00107526
-0.000498031
0.00115295
-0.000516029
0.00123251
-0.000527413
0.0013147
-0.000531963
0.00140082
-0.000529104
0.00149302
-0.000517558
0.00159674
-0.000498243
0.00171806
-0.000474876
0.00184518
-0.000459577
0.00193822
-0.000464185
0.00197062
-0.000478356
0.0019942
-0.00046084
0.00209081
-0.000371995
0.00228111
-0.000207183
0.00250415
0.000487953
-0.000251169
0.000396794
-0.000126462
0.000342346
-9.11229e-05
0.000281907
-5.60071e-05
0.000224328
-2.07557e-05
0.000167936
1.43618e-05
0.000112516
4.90053e-05
5.7756e-05
8.26344e-05
3.35246e-06
0.000114642
-5.11457e-05
0.000144366
-0.000106086
0.000171182
-0.000161756
0.000335818
-0.000209332
0.000410581
-0.000253812
0.000485502
-0.000295664
0.000559805
-0.000335263
0.000634296
-0.000372122
0.000709572
-0.000406744
0.000785998
-0.000439305
0.000863544
-0.000469231
0.00094155
-0.000497079
0.00101999
-0.000522016
0.00109924
-0.000543326
0.00118025
-0.000559068
0.00126416
-0.000569244
0.00135198
-0.000573597
0.00144532
-0.000571525
0.00154699
-0.000564588
0.00166309
-0.000554123
0.00179731
-0.000545743
0.00193134
-0.000548532
0.00202257
-0.000565884
0.00205815
-0.0005728
0.00210616
-0.000524424
0.00224324
-0.000397839
0.00247176
-0.000208262
0.00271241
0.000482238
-0.000327384
0.00039243
-0.000246805
0.00034075
-0.000124867
0.000280229
-8.94445e-05
0.000222479
-5.41574e-05
0.000165947
-1.87669e-05
0.000110449
1.64292e-05
5.57302e-05
5.10311e-05
1.57661e-06
8.44103e-05
-5.24292e-05
0.000115925
-0.000106667
0.000144948
-0.000161457
0.000170883
-0.00021714
0.000343625
-0.000263314
0.000420083
-0.00030675
0.000496587
-0.000347863
0.000572405
-0.000386348
0.000648522
-0.000422715
0.000725542
-0.000457028
0.000803722
-0.000488629
0.000882941
-0.000518228
0.000962699
-0.000545318
0.00104329
-0.000569503
0.00112542
-0.000588992
0.00121017
-0.000603936
0.00129886
-0.000614124
0.00139251
-0.000619008
0.0014928
-0.000620563
0.00160296
-0.000619885
0.00172885
-0.000619709
0.00187128
-0.00062427
0.00200708
-0.00064028
0.00209696
-0.000659333
0.00214468
-0.000645568
0.00222731
-0.000561453
0.00240686
-0.000401842
0.00266535
-0.000199248
0.00291166
0.00047554
-0.000402803
0.000386749
-0.000321703
0.000336447
-0.000242502
0.000277991
-0.000122628
0.000220258
-8.72239e-05
0.000163482
-5.16917e-05
0.000107845
-1.61626e-05
5.31321e-05
1.90273e-05
-8.4171e-07
5.34494e-05
-5.44697e-05
8.64507e-05
-0.000108128
0.000117386
-0.000162123
0.000145613
-0.000216734
0.000170477
-0.000272144
0.000352455
-0.000317251
0.000430585
-0.000359945
0.00050867
-0.000400002
0.000586058
-0.000438075
0.000663883
-0.000474174
0.000742688
-0.000507526
0.000822619
-0.000538889
0.000903602
-0.00056794
0.000985321
-0.000594611
0.0010684
-0.00061729
0.00115372
-0.00063625
0.00124248
-0.000651263
0.001336
-0.0006616
0.0014351
-0.000669227
0.00154146
-0.000675227
0.00165831
-0.000681555
0.0017907
-0.000689493
0.0019365
-0.00070385
0.00207065
-0.000724762
0.00216239
-0.00073269
0.0022318
-0.000690392
0.00235625
-0.0005709
0.00257592
-0.000388047
0.00285414
-0.000183772
0.00309543
0.000467651
-0.000477973
0.000380339
-0.000396393
0.000331041
-0.000316297
0.000273665
-0.000238177
0.000217324
-0.000119695
0.000160544
-8.42861e-05
0.000104759
-4.86064e-05
5.00113e-05
-1.30418e-05
-3.90582e-06
2.20914e-05
-5.72965e-05
5.62763e-05
-0.000110514
8.88367e-05
-0.00016376
0.000119023
-0.0002175
0.00014638
-0.000271889
0.000170223
-0.000327111
0.000362315
-0.000371383
0.000442022
-0.000413016
0.000521684
-0.000452766
0.000600749
-0.00049065
0.00068036
-0.000525794
0.000760956
-0.000558945
0.000842676
-0.000589867
0.00092553
-0.000618726
0.00100944
-0.00064413
0.00109524
-0.000666491
0.00118396
-0.000685552
0.00127677
-0.000700381
0.00137478
-0.000712738
0.00147861
-0.000723494
0.00158973
-0.000734393
0.00171114
-0.000745494
0.0018467
-0.00075949
0.00199214
-0.000777741
0.00212363
-0.00079303
0.00222273
-0.000781337
0.00232275
-0.00070691
0.00249226
-0.000558571
0.00274644
-0.000363291
0.00303366
-0.000167124
0.00326255
0.000458569
-0.000552588
0.000372952
-0.000470586
0.000324843
-0.000390195
0.000268558
-0.000311189
0.000213022
-0.000233874
0.000156906
-0.000116056
0.000101053
-8.05793e-05
4.6274e-05
-4.4869e-05
-7.64014e-06
-9.30751e-06
-6.08555e-05
2.56504e-05
-0.0001137
5.94624e-05
-0.000166381
9.14571e-05
-0.000219328
0.000120852
-0.000272797
0.000147287
-0.000326948
0.00017006
-0.000382281
0.000373214
-0.000425357
0.000454363
-0.000466726
0.000535644
-0.000506396
0.000616495
-0.000543355
0.000697921
-0.000578315
0.000780326
-0.00061106
0.000863868
-0.000641915
0.000948718
-0.000669666
0.00103497
-0.000694932
0.00112368
-0.000717448
0.00121585
-0.000736089
0.00131248
-0.000752424
0.00141446
-0.000766988
0.00152211
-0.000781306
0.00163664
-0.000795006
0.00176066
-0.000809674
0.00189688
-0.000825609
0.00204001
-0.000839887
0.00217049
-0.00084263
0.00228403
-0.000805664
0.0024215
-0.000701947
0.00263563
-0.000533531
0.00291668
-0.000337303
0.00320384
-0.000154396
0.00341695
0.000448147
-0.00062713
0.000364744
-0.00054438
0.000317803
-0.000463546
0.00026273
-0.000384367
0.000208068
-0.000306235
0.000152603
-0.000229572
9.67026e-05
-0.000111706
4.18709e-05
-7.61762e-05
-1.20701e-05
-4.0439e-05
-6.52318e-05
-4.93122e-06
-0.000117869
2.98193e-05
-0.000170051
6.31328e-05
-0.000222233
9.43615e-05
-0.00027485
0.000122905
-0.00032787
0.00014821
-0.000382241
0.00017002
-0.000437292
0.000385149
-0.000480018
0.000467655
-0.000521369
0.000550617
-0.000560164
0.000633304
-0.000596954
0.00071656
-0.0006315
0.000800766
-0.000664222
0.000886176
-0.000694046
0.000973098
-0.000721797
0.00106184
-0.000747288
0.00115353
-0.000769241
0.00124901
-0.000789062
0.00134912
-0.000806994
0.00145447
-0.00082429
0.00156509
-0.000840312
0.00168195
-0.000856361
0.00180734
-0.000871781
0.00194305
-0.000883917
0.00208404
-0.000889776
0.00221764
-0.00087454
0.0023529
-0.000812483
0.00253204
-0.000685252
0.00278735
-0.000508411
0.00308779
-0.000319191
0.00336864
-0.00015012
0.00356707
0.00043626
-0.000701411
0.000355434
-0.00061782
0.000310029
-0.000536606
0.000256224
-0.00045704
0.000202549
-0.000378849
0.00014781
-0.000301442
9.23825e-05
-0.000225252
3.67845e-05
-0.00010662
-1.72045e-05
-7.10418e-05
-7.0377e-05
-3.52937e-05
-0.000122833
3.29807e-08
-0.000174714
3.44821e-05
-0.000226336
6.72359e-05
-0.000278059
9.75707e-05
-0.000330195
0.00012523
-0.00038336
0.000149328
-0.000437377
0.000170105
-0.000493021
0.000398152
-0.000535705
0.000481992
-0.000576208
0.000566661
-0.00061485
0.000651199
-0.000651192
0.000736252
-0.000685705
0.000822249
-0.000717397
0.000909528
-0.000747298
0.000998599
-0.000775342
0.00108989
-0.000800191
0.00118448
-0.000823131
0.00128308
-0.000844165
0.00138629
-0.000864327
0.00149451
-0.00088273
0.00160751
-0.000900654
0.00172624
-0.000917204
0.00185277
-0.00092912
0.00198826
-0.00093519
0.00212945
-0.000928715
0.00227181
-0.000894836
0.00243526
-0.000810619
0.00265741
-0.000670394
0.00294934
-0.00049466
0.00326326
-0.000316815
0.00353534
-0.000158798
0.00372587
0.00042358
-0.000774942
0.000344908
-0.000690885
0.000301367
-0.000609157
0.000249044
-0.000529426
0.000196506
-0.000450997
0.000142595
-0.000373634
8.77332e-05
-0.000296793
3.24258e-05
-0.000220893
-2.3081e-05
-0.000100744
-7.62746e-05
-6.51442e-05
-0.0001287
-2.94264e-05
-0.000180399
5.71831e-06
-0.000231517
3.96633e-05
-0.000282598
7.17751e-05
-0.000333929
0.000101305
-0.000386013
0.000127884
-0.000438957
0.000150908
-0.000493208
0.000170292
-0.000549827
0.000412274
-0.000591672
0.000497456
-0.000632025
0.000583836
-0.000670164
0.000670171
-0.000706419
0.000756966
-0.000739845
0.000844697
-0.000771632
0.000933861
-0.000801863
0.00102512
-0.000829215
0.00111891
-0.000854942
0.00121629
-0.000878856
0.00131777
-0.000901824
0.00142379
-0.000922758
0.00153454
-0.000942976
0.00164983
-0.000961669
0.00177071
-0.000975437
0.00189909
-0.00098311
0.00203618
-0.000980756
0.00218149
-0.000961829
0.00233881
-0.00091053
0.00253517
-0.000812816
0.00279983
-0.000669395
0.00312407
-0.00050178
0.00344823
-0.000338027
0.00371457
-0.000183923
0.00390979
0.000410503
-0.000847897
0.000333619
-0.000763653
0.000291772
-0.000681291
0.000241142
-0.000601255
0.000189945
-0.000522865
0.000137005
-0.000445407
8.28123e-05
-0.000368713
2.79093e-05
-0.000292276
-2.75009e-05
-0.000216473
-8.29443e-05
-9.40738e-05
-0.000135386
-5.84584e-05
-0.00018701
-2.28153e-05
-0.000237871
1.20721e-05
-0.000288285
4.53497e-05
-0.00033892
7.67661e-05
-0.000390184
0.000105475
-0.000441975
0.000130902
-0.000495053
0.000152753
-0.000549783
0.000170248
-0.000606952
0.000427554
-0.000648694
0.000514124
-0.000688479
0.000602152
-0.000726436
0.000690188
-0.000761495
0.000778617
-0.000794979
0.000868044
-0.000827091
0.00095909
-0.000856582
0.00105249
-0.000884748
0.00114872
-0.000911294
0.00124873
-0.000936957
0.0013529
-0.000960495
0.00146152
-0.000983284
0.00157484
-0.00100468
0.00169285
-0.00102149
0.00181676
-0.00103271
0.00194868
-0.00103486
0.00209028
-0.00102487
0.00224453
-0.000994259
0.00242254
-0.000932634
0.00265499
-0.000830306
0.00296074
-0.000691957
0.00331425
-0.000539442
0.00364964
-0.00038873
0.00391937
-0.000227862
0.00413766
0.00039718
-0.000920258
0.000321727
-0.000836004
0.000281289
-0.00075317
0.00023245
-0.000672598
0.000182818
-0.000594129
0.000131046
-0.000516906
7.76629e-05
-0.000440257
2.32675e-05
-0.000364071
-3.18942e-05
-0.000287883
-8.74403e-05
-0.000211977
-0.000142875
-8.6585e-05
-0.000194508
-5.09605e-05
-0.000245244
-1.54425e-05
-0.000295285
1.90724e-05
-0.00034511
5.15397e-05
-0.00039543
8.20125e-05
-0.00044637
0.000109869
-0.000498449
0.000134298
-0.000551863
0.000154834
-0.000607218
0.000170513
-0.000665183
0.000444044
-0.000706364
0.000532009
-0.000745859
0.000621576
-0.000782464
0.000711157
-0.00081749
0.000801128
-0.000851248
0.000892201
-0.000882551
0.000985059
-0.000912807
0.00108055
-0.000941683
0.00117911
-0.000969851
0.00128162
-0.000995937
0.00138834
-0.00102138
0.00149963
-0.00104573
0.00161589
-0.00106604
0.0017374
-0.00108179
0.00186585
-0.0010898
0.00200362
-0.0010879
0.00215332
-0.00107119
0.00232146
-0.00103529
0.00252519
-0.000970969
0.00279565
-0.000872087
0.00314087
-0.000748427
0.00352324
-0.000614556
0.00387547
-0.000472741
0.00416425
-0.000289768
0.00442743
0.000383727
-0.000991251
0.000309354
-0.000907885
0.000270031
-0.000824747
0.000222898
-0.000743618
0.000175021
-0.000664801
0.000124674
-0.000587757
7.22921e-05
-0.000511535
1.85382e-05
-0.000435528
-3.62685e-05
-0.000359697
-9.1714e-05
-0.000283609
-0.000147479
-0.000207373
-0.000202851
-7.82417e-05
-0.000253572
-4.26324e-05
-0.00030339
-7.33707e-06
-0.000352525
2.64871e-05
-0.000402349
5.84591e-05
-0.000452315
8.79578e-05
-0.000503295
0.000114715
-0.000555629
0.000138064
-0.000609499
0.000157115
-0.000665479
0.000170809
-0.000724075
0.000461754
-0.000764925
0.000551075
-0.00080289
0.000642002
-0.000839318
0.000732986
-0.000874518
0.000824397
-0.000907361
0.000917011
-0.000939373
0.00101162
-0.000970255
0.00110912
-0.00100066
0.00120992
-0.00102911
0.0013148
-0.00105713
0.00142409
-0.00108439
0.00153829
-0.00110824
0.00165809
-0.0011287
0.00178431
-0.00114307
0.00191912
-0.00114973
0.00206545
-0.0011449
0.00222703
-0.0011278
0.00241397
-0.00109341
0.00264763
-0.00103344
0.002957
-0.000948517
0.00334096
-0.00084571
0.00375439
-0.00073116
0.00413389
-0.000587615
0.0044621
-0.000364861
0.00479229
0.000370082
-0.0010612
0.000296687
-0.000978585
0.000258057
-0.000895911
0.000212414
-0.000814263
0.000166382
-0.000734979
0.000117757
-0.000657884
6.66572e-05
-0.000582122
1.37283e-05
-0.000506725
-4.05947e-05
-0.000431202
-9.58288e-05
-0.000355582
-0.00015166
-0.000279428
-0.000207623
-0.000202602
-0.00026296
-6.88539e-05
-0.000312539
-3.34832e-05
-0.000361304
1.44201e-06
-0.000410303
3.44405e-05
-0.000459569
6.57126e-05
-0.000509796
9.44589e-05
-0.000560954
0.00012004
-0.000613629
0.000142194
-0.000667947
0.000159583
-0.000724412
0.000171146
-0.000783841
0.00048067
-0.000823028
0.000571214
-0.000860641
0.000663324
-0.00089709
0.000755558
-0.000931223
0.00084826
-0.000964694
0.000942332
-0.000997248
0.00103862
-0.00102958
0.00113804
-0.00106014
0.00124094
-0.0010905
0.00134816
-0.00112047
0.00146016
-0.0011476
0.00157766
-0.00117246
0.00170185
-0.00119292
0.00183416
-0.00120802
0.00197741
-0.00121453
0.00213509
-0.00121327
0.0023125
-0.00120229
0.00252285
-0.00117542
0.00278962
-0.00112998
0.00313846
-0.00106587
0.00356113
-0.000987053
0.00401028
-0.00088426
0.00443054
-0.000723191
0.00482043
-0.000441268
0.00523356
0.000356236
-0.00113098
0.000283634
-0.00104814
0.000245476
-0.000966003
0.000200965
-0.000884462
0.000156694
-0.000804575
0.000110056
-0.000727278
6.06153e-05
-0.000651843
8.80383e-06
-0.000577197
-4.48626e-05
-0.000502457
-9.97625e-05
-0.000427268
-0.000155547
-0.000351695
-0.000211778
-0.000275272
-0.000267996
-0.000197565
-0.000322729
-5.86647e-05
-0.000371443
-2.33438e-05
-0.000419726
1.08659e-05
-0.000468327
4.31985e-05
-0.000517646
7.35618e-05
-0.000568081
0.000101586
-0.000619809
0.000126221
-0.000672454
0.000146701
-0.000727089
0.00016226
-0.000783819
0.000171124
-0.000843072
0.000500714
-0.000881746
0.000592319
-0.000919182
0.000685416
-0.000954361
0.000778696
-0.000988992
0.000872558
-0.0010229
0.000967987
-0.00105683
0.00106588
-0.0010892
0.0011671
-0.00112159
0.00127204
-0.00115392
0.00138162
-0.00118393
0.00149649
-0.00121264
0.00161784
-0.00123848
0.00174741
-0.00126121
0.00188736
-0.00127827
0.00204115
-0.00129138
0.0022132
-0.00130019
0.0024104
-0.00130065
0.00264808
-0.00129063
0.00295027
-0.00126572
0.00333832
-0.00122582
0.00379989
-0.00116399
0.00429001
-0.00105797
0.00476532
-0.000855472
0.00523464
-0.000497591
0.00573115
0.000343231
-0.00120578
0.000270535
-0.00111789
0.000232157
-0.00103482
0.000188562
-0.0009536
0.000145798
-0.000873566
0.000101257
-0.000795776
5.38969e-05
-0.000720559
3.63065e-06
-0.000646669
-4.90886e-05
-0.000572972
-0.000103496
-0.000498724
-0.000159118
-0.000423698
-0.000215506
-0.000347967
-0.000272255
-0.000271014
-0.000328143
-0.00019215
-0.000382567
-4.75413e-05
-0.000430677
-1.23933e-05
-0.000478391
2.09305e-05
-0.000527084
5.26372e-05
-0.000576632
8.21124e-05
-0.000627313
0.00010909
-0.00067889
0.000132657
-0.000732005
0.000151618
-0.000786743
0.000165183
-0.000843519
0.000171571
-0.000902852
0.000521819
-0.000941134
0.000614271
-0.000977038
0.000708094
-0.00101252
0.000802227
-0.00104745
0.000897103
-0.00108265
0.000993808
-0.00111651
0.00109319
-0.00115063
0.00119614
-0.00118493
0.00130304
-0.00121729
0.00141498
-0.00124915
0.001533
-0.00127947