/*--------------------------------*- C++ -*----------------------------------*\
| =========                 |                                                 |
| \\      /  F ield         | OpenFOAM: The Open Source CFD Toolbox           |
|  \\    /   O peration     | Version:  2506                                  |
|   \\  /    A nd           | Website:  www.openfoam.com                      |
|    \\/     M anipulation  |                                                 |
\*---------------------------------------------------------------------------*/
FoamFile
{
    version     2.0;
    format      ascii;
    arch        "LSB;label=32;scalar=64";
    class       volScalarField;
    location    "9.99546";
    object      mag(vorticity);
}
// * * * * * * * * * * * * * * * * * * * * * * * * * * * * * * * * * * * * * //

dimensions      [0 0 -1 0 0 0 0];

internalField   nonuniform List<scalar> 
9700
(
3.57129e-05
4.43001e-05
7.61703e-05
7.79675e-05
0.000654269
0.000282135
0.000849477
0.000754113
0.0012429
0.000471835
0.000763158
0.00023175
0.00142017
0.00188589
0.000587078
0.000481446
3.45818e-06
0.000666404
0.00217863
0.00241334
0.000710304
5.51572e-05
0.000129825
3.39494e-05
0.00131637
0.0029115
0.00294703
0.000841361
0.000302106
0.00046006
5.72089e-05
0.000384611
0.001927
0.00363874
0.00343742
0.000960623
0.000176757
0.000708988
0.000133394
1.3185e-05
0.000704063
0.00254114
0.00430616
0.00388187
0.00107376
6.10385e-05
0.000797143
0.00033972
6.96722e-05
5.31472e-05
0.00103046
0.00319006
0.00492184
0.00428518
0.0011704
0.000533031
0.000715729
0.000437195
0.000320366
1.38071e-05
0.000128623
0.00141382
0.00377701
0.00546362
0.00458856
0.00122927
0.000723268
0.000631966
0.000348605
0.000460446
0.000213343
6.9036e-05
0.000231675
0.0018028
0.00430331
0.00582833
0.00473943
0.00123329
0.000836421
0.000492186
0.000179817
0.000387186
0.00037924
0.000129803
8.07882e-05
0.000405695
0.00215678
0.00467112
0.00598659
0.004685
0.00117269
0.000958729
0.00045725
2.16832e-05
0.000224919
0.000334027
0.000293338
5.52497e-05
0.000100803
0.000541754
0.00245937
0.00484622
0.00586385
0.00438941
0.0010423
0.0010055
0.000426754
4.45678e-05
0.000124683
0.000196442
0.000297974
0.00021024
3.62898e-05
6.9658e-05
0.000715516
0.00263216
0.00476924
0.00542326
0.00385144
0.000847544
0.00106508
0.000479045
6.59158e-05
4.41836e-05
7.54705e-05
0.000184036
0.000209725
0.000126577
0.000106825
5.72347e-05
0.000829533
0.0026519
0.00441351
0.00466609
0.00310262
0.000607691
0.00109242
0.000456616
8.85452e-05
1.40283e-05
2.35423e-05
6.69836e-05
0.000120211
0.00014088
1.22778e-05
0.000183204
3.80256e-05
0.000874926
0.00248333
0.00376768
0.00364231
0.00219886
0.000348795
0.00116046
0.000479039
0.000112485
2.61968e-05
2.95558e-06
2.02686e-05
5.3013e-05
7.45031e-05
4.60642e-05
0.000118246
0.000261524
4.65841e-05
0.000819342
0.00211487
0.0028701
0.0024238
0.00123542
9.33084e-05
0.00119366
0.00048441
0.000116716
2.9225e-06
2.73671e-05
2.25594e-05
1.17705e-05
1.17493e-05
2.06519e-05
7.12924e-05
0.000245626
0.000343888
9.29028e-05
0.000657539
0.00155707
0.00178783
0.00112659
0.000294427
0.000134781
0.00122168
0.000520359
0.000123256
2.03621e-05
5.07692e-06
1.58122e-05
2.37699e-05
6.39402e-07
5.92011e-06
4.89601e-05
0.000182685
0.000370326
0.000435047
0.000188833
0.000376228
0.000846418
0.000609957
0.000128548
0.000535451
0.000314687
0.00128748
0.000535121
0.000110853
1.92957e-05
5.89786e-06
6.74245e-06
3.17984e-05
2.43644e-06
1.23866e-05
3.1272e-05
0.000116324
0.000292077
0.000488372
0.000538819
0.000343525
8.60831e-06
4.33574e-05
0.000542999
0.00122716
0.00118675
0.000431593
0.00127404
0.000504141
0.000100493
1.79704e-05
3.36924e-05
4.43975e-05
1.23299e-05
2.41992e-05
1.47658e-05
1.92255e-05
5.80914e-05
0.000179358
0.000388391
0.000594034
0.000659208
0.00054993
0.000466951
0.000773121
0.00156514
0.00207542
0.00162294
0.000490206
0.00129812
0.000531325
0.000138432
3.41409e-06
1.42531e-05
3.48096e-05
1.51901e-05
4.15618e-05
2.32494e-05
1.64829e-05
2.25785e-05
8.21731e-05
0.000231216
0.000471156
0.000690671
0.000791855
0.000802392
0.000956016
0.0015076
0.00235221
0.00262482
0.00185066
0.000499701
0.00129277
0.000562911
0.000117976
2.59646e-05
1.59347e-08
2.90061e-06
1.62281e-05
3.19445e-05
3.33789e-05
2.169e-05
1.02792e-05
2.53078e-05
0.000101415
0.000275662
0.000532355
0.000777989
0.000936987
0.00107598
0.00140913
0.00207975
0.00284507
0.00287324
0.00190622
0.000478252
0.00130571
0.000544992
0.000113859
2.17705e-05
9.60431e-06
4.10662e-06
1.75252e-05
1.97299e-05
3.46423e-05
2.82804e-05
1.56375e-05
6.34573e-06
3.03114e-05
0.000114882
0.000304634
0.000577376
0.000853222
0.001081
0.00133981
0.00177521
0.00242829
0.00302868
0.00287106
0.00185089
0.000449556
0.00129267
0.00059411
0.000132551
1.03415e-05
2.843e-08
8.25277e-06
1.95918e-05
3.06137e-05
2.78105e-05
3.28275e-05
2.68395e-05
1.0027e-05
2.87223e-06
2.98494e-05
0.000123405
0.000321416
0.00060104
0.000912022
0.0012159
0.00155911
0.00199965
0.00253203
0.00295018
0.0027061
0.00176436
0.00043446
0.00133594
0.000610418
9.57806e-05
4.45837e-05
5.93763e-06
1.22649e-05
2.34805e-05
1.97201e-05
1.94239e-05
3.06063e-05
3.12719e-05
1.77065e-05
7.0077e-07
3.13894e-06
3.0221e-05
0.000124994
0.000321881
0.000609587
0.00095293
0.00132302
0.00170672
0.00207299
0.00242468
0.00270241
0.00248964
0.00171169
0.000448536
0.00161683
0.000596273
9.90614e-05
6.27358e-05
1.35332e-05
1.40757e-05
4.27835e-06
3.55969e-06
1.18427e-05
2.15885e-05
2.63173e-05
2.3338e-05
8.28548e-06
7.19976e-06
7.00228e-06
2.49734e-05
0.000123942
0.00030984
0.000597724
0.000973357
0.00139624
0.00177408
0.00201028
0.00218667
0.00240225
0.00232873
0.0017479
0.000499237
0.00197043
0.000611907
9.1252e-05
3.59406e-05
1.07821e-06
8.50343e-06
1.00095e-05
3.15842e-06
8.17915e-06
1.26015e-05
2.06139e-05
2.45681e-05
1.40792e-05
9.89296e-07
1.42587e-05
9.66861e-06
2.20896e-05
0.000114289
0.000288606
0.000574187
0.000972507
0.00142817
0.00176805
0.00186512
0.0019219
0.00217923
0.00230341
0.00189511
0.00058556
0.00233518
0.000619272
8.85852e-05
1.28758e-05
2.63226e-05
4.07284e-05
6.14974e-06
5.90689e-07
5.58349e-06
7.26975e-06
1.31011e-05
1.77055e-05
1.59931e-05
4.4637e-06
9.69224e-06
2.01298e-05
1.46728e-05
1.89738e-05
9.95789e-05
0.000256929
0.000537836
0.000958297
0.00143066
0.00172524
0.00171731
0.0017461
0.00213733
0.00246388
0.00216
0.000699695
0.00256173
0.000621536
0.000105673
4.3626e-05
2.77647e-05
2.67761e-05
1.61711e-05
6.3814e-06
1.08377e-06
5.10538e-06
8.4629e-06
1.11395e-05
1.26948e-05
8.91912e-06
5.36768e-06
2.00957e-05
2.54375e-05
1.81072e-05
1.3899e-05
8.22537e-05
0.000225427
0.000500743
0.000939712
0.00142425
0.00168523
0.00164405
0.0017548
0.00234183
0.00282201
0.00251221
0.000825847
0.00241008
0.000627869
0.000110566
5.14999e-05
1.8091e-05
2.70202e-06
2.34887e-05
1.6225e-05
5.17091e-06
3.14393e-06
6.47053e-06
9.02919e-06
1.12804e-05
8.42132e-06
1.26063e-06
1.4805e-05
2.75532e-05
2.86695e-05
1.64555e-05
1.06408e-05
6.47569e-05
0.000195111
0.000469844
0.000923071
0.0014253
0.00169317
0.00171261
0.00201332
0.00280402
0.00334335
0.00290693
0.000949156
0.00203397
0.000629535
0.000106973
3.48219e-05
5.38952e-06
1.07121e-05
2.08775e-05
2.57821e-05
1.50866e-05
4.4913e-06
1.80591e-06
6.94105e-06
9.59521e-06
7.44844e-06
3.39383e-06
8.95116e-06
2.33785e-05
3.21701e-05
2.99943e-05
1.77139e-05
4.27277e-06
5.22749e-05
0.000170095
0.000447635
0.000925329
0.00145884
0.00178237
0.00196196
0.00252448
0.00349172
0.00396101
0.00327903
0.00104514
0.00167394
0.000619015
0.000107126
3.58938e-05
2.50229e-06
8.85461e-06
1.13041e-05
2.0222e-05
2.47122e-05
1.6379e-05
4.33005e-06
3.4075e-07
7.67061e-06
8.82239e-06
4.95563e-06
2.29045e-06
1.5758e-05
2.91238e-05
3.38534e-05
2.9509e-05
1.66103e-05
5.02002e-08
3.7949e-05
0.000154557
0.000444547
0.000944163
0.00152564
0.00196051
0.00238837
0.00325131
0.00431155
0.00456324
0.00355753
0.00109401
0.00132966
0.000600732
0.000102729
4.02658e-05
5.58726e-06
8.39141e-06
5.62079e-06
6.57134e-06
1.7084e-05
2.4486e-05
1.62222e-05
7.18341e-06
7.18971e-07
8.39822e-06
5.98112e-06
4.16098e-06
4.70988e-06
1.949e-05
3.11683e-05
3.47668e-05
2.69503e-05
1.61429e-05
2.2999e-06
3.23365e-05
0.000149728
0.000452605
0.000984767
0.00162423
0.00221965
0.00294815
0.00409594
0.00514169
0.00505273
0.00367948
0.00108492
0.00132273
0.000593731
0.0001011
4.05758e-05
1.12971e-05
1.38126e-05
4.49927e-06
3.84391e-06
9.38738e-06
1.79462e-05
2.53488e-05
1.88109e-05
1.08142e-05
1.51216e-06
7.04895e-06
6.93386e-06
1.14914e-06
9.04934e-06
2.18928e-05
3.16401e-05
3.04679e-05
2.45399e-05
1.28248e-05
3.14084e-06
3.16716e-05
0.000158473
0.000472711
0.00102991
0.00174089
0.00252523
0.00357256
0.00495061
0.00585202
0.00532785
0.00360852
0.00101815
0.00132991
0.000582778
0.00011316
3.85071e-05
1.56448e-05
1.72745e-05
8.29649e-06
5.36643e-06
2.77459e-06
5.81036e-06
1.60645e-05
2.65079e-05
2.53876e-05
1.73031e-05
3.46789e-06
5.02352e-06
5.68788e-06
9.28662e-07
1.23287e-05
2.05954e-05
2.9002e-05
2.76721e-05
2.0863e-05
1.06806e-05
8.7503e-07
3.62389e-05
0.000168184
0.000495749
0.00107262
0.00185083
0.00283334
0.00417423
0.00568285
0.0063284
0.00533395
0.0033403
0.00089779
0.00131279
0.000549905
0.00011722
3.44498e-05
1.32488e-05
1.85531e-05
1.67804e-05
7.62995e-06
2.88027e-06
1.54531e-06
9.10618e-06
1.78213e-05
3.43851e-05
3.50764e-05
2.66629e-05
9.76394e-06
6.86453e-06
6.44423e-06
8.61724e-07
9.52156e-06
2.06521e-05
2.50164e-05
2.28321e-05
1.36002e-05
9.62969e-06
1.64399e-07
4.21737e-05
0.000181491
0.000511757
0.00109313
0.00193032
0.00309159
0.00467262
0.00619744
0.00650218
0.00506345
0.00290185
0.000745857
0.00129695
0.000534972
0.000120135
2.20776e-05
3.95128e-06
2.06692e-05
1.91635e-05
1.44338e-05
7.22871e-06
4.04861e-06
8.62583e-08
5.30192e-06
1.96944e-05
4.31104e-05
4.71913e-05
3.82658e-05
1.42778e-05
3.87137e-06
8.2421e-06
5.78063e-07
8.06846e-06
1.91308e-05
1.92457e-05
1.82883e-05
1.18879e-05
8.02154e-06
3.86639e-06
4.89117e-05
0.000189662
0.000510684
0.00108079
0.00196207
0.00326761
0.00499762
0.00643604
0.00636712
0.00455663
0.00235354
0.000583978
0.00126713
0.00051361
0.000120531
2.01913e-05
6.30066e-06
9.09196e-06
1.85771e-05
1.83292e-05
8.81927e-06
3.61432e-06
2.18621e-06
1.50811e-06
5.13205e-06
2.18079e-05
5.23924e-05
6.55853e-05
5.30551e-05
2.12754e-05
3.75452e-06
8.56993e-06
9.2297e-07
7.42666e-06
1.37218e-05
1.63586e-05
1.27491e-05
9.34842e-06
4.31269e-06
6.65635e-06
4.94747e-05
0.000186339
0.000486866
0.0010309
0.0019274
0.00333088
0.00512356
0.00638908
0.00596666
0.0038929
0.00177014
0.000437719
0.00124465
0.000500198
0.000120328
2.24115e-05
9.01775e-06
6.09359e-06
6.11011e-06
1.88326e-05
1.74441e-05
1.05138e-05
3.2198e-06
1.59897e-06
3.11203e-06
4.57043e-06
2.73854e-05
6.56624e-05
8.15583e-05
6.32516e-05
2.51468e-05
2.4483e-06
9.38717e-06
4.6348e-06
5.77734e-06
9.06199e-06
1.09117e-05
7.43676e-06
6.47843e-06
5.21376e-06
7.19206e-06
5.01224e-05
0.000173729
0.000438032
0.000940393
0.00183015
0.00327758
0.00504684
0.00610216
0.00538252
0.00317256
0.00123217
0.000333601
0.00122698
0.000485787
0.000116645
2.35881e-05
7.05317e-06
2.65708e-06
8.78628e-06
5.10165e-06
1.97424e-05
1.32342e-05
8.4373e-06
1.02015e-06
4.70697e-06
2.35064e-06
6.93706e-06
3.15876e-05
7.86967e-05
9.8306e-05
7.66364e-05
3.25467e-05
4.51113e-06
1.14427e-05
4.63089e-06
2.74391e-06
6.84337e-06
6.74514e-06
6.44719e-06
5.5683e-06
1.04599e-06
8.10057e-06
4.62644e-05
0.000149408
0.000369929
0.000818341
0.00167812
0.00311973
0.00480276
0.00564569
0.00471761
0.00249821
0.000818019
0.000295229
0.00120865
0.000471413
0.00011609
2.59076e-05
6.41917e-06
2.79138e-06
4.97289e-06
1.20715e-05
4.97824e-06
1.47751e-05
1.35131e-05
6.31321e-06
1.99376e-06
5.20339e-06
5.87337e-06
4.14302e-06
3.65032e-05
9.02182e-05
0.000114144
8.61882e-05
3.44748e-05
2.0282e-06
1.42468e-05
7.8839e-06
3.25703e-07
4.59597e-06
5.27874e-06
4.24904e-06
4.07059e-06
2.52464e-06
4.55797e-06
3.61391e-05
0.000113302
0.000286708
0.000673512
0.00149062
0.0028857
0.00444491
0.00510358
0.00407225
0.00196305
0.000597241
0.000335962
0.00118565
0.000449516
0.000111839
3.08627e-05
1.50709e-06
1.80249e-07
4.85239e-06
8.33026e-06
1.49916e-05
5.86583e-06
1.72567e-05
1.42165e-05
4.79808e-06
3.39095e-06
1.01928e-05
7.41915e-06
5.46344e-06
3.85131e-05
9.35247e-05
0.000120804
9.21116e-05
3.78352e-05
2.91436e-06
1.29923e-05
9.98692e-06
1.84663e-06
1.84414e-06
4.41818e-06
4.9052e-06
4.27367e-06
1.05905e-06
1.77673e-06
2.17439e-05
6.93665e-05
0.000193638
0.000522258
0.00128541
0.00260727
0.00403317
0.00455873
0.00353623
0.00164162
0.00060641
0.000462628
0.00115036
0.000427419
0.000109613
3.82215e-05
7.34025e-06
5.32328e-06
2.17123e-06
5.58935e-06
1.20439e-05
1.79687e-05
6.82558e-06
2.07295e-05
1.54254e-05
3.02461e-06
2.165e-06
1.02538e-05
8.49569e-06
6.89165e-06
3.96965e-05
0.000100335
0.000132095
9.71254e-05
4.09654e-05
4.23322e-06
1.45175e-05
1.15701e-05
3.78042e-06
4.2783e-08
2.76616e-06
1.21375e-06
2.00284e-06
2.54479e-06
4.29403e-06
5.56285e-07
2.22916e-05
0.000102309
0.000382465
0.00109129
0.0023264
0.00362905
0.00408845
0.00317417
0.00158318
0.000860959
0.000664216
0.00109384
0.000407761
0.000109173
4.45875e-05
1.43905e-05
1.07186e-05
3.19423e-06
5.7518e-07
6.16031e-06
1.31858e-05
1.8937e-05
6.53013e-06
2.19374e-05
1.70747e-05
7.7947e-06
6.60869e-06
1.34243e-05
1.01516e-05
7.29882e-06
3.87615e-05
0.000103779
0.000133789
0.000100066
3.9689e-05
2.81572e-06
1.68335e-05
1.21703e-05
5.91515e-06
1.64627e-06
1.64717e-07
7.63837e-07
8.64123e-07
6.3089e-06
1.42506e-05
2.12078e-05
2.50411e-05
2.52041e-05
0.000269723
0.000931001
0.00208113
0.00328369
0.00374348
0.00303027
0.0017817
0.00130918
0.000910331
0.00099552
0.000401478
0.0001084
4.55103e-05
2.33245e-05
2.21835e-05
1.22141e-05
2.39535e-06
1.43033e-06
7.30646e-06
5.65866e-06
2.12381e-05
1.30735e-05
4.20838e-05
2.26634e-05
7.29394e-06
6.62773e-06
1.32425e-05
1.32795e-05
5.66501e-06
3.251e-05
0.000101787
0.000138882
0.000105921
4.1424e-05
4.01859e-06
1.81984e-05
1.45555e-05
6.95275e-06
3.16231e-06
8.20859e-07
6.33978e-07
3.61172e-06
1.28697e-05
2.92769e-05
4.85941e-05
6.50338e-05
2.56274e-05
0.000201944
0.000828788
0.0019027
0.00303929
0.00355045
0.00308736
0.00217251
0.00183924
0.00113928
0.000835256
0.000441661
9.39606e-05
4.33627e-05
2.6557e-05
3.57883e-05
2.3102e-05
1.00602e-05
1.51105e-06
4.21884e-06
1.8936e-05
2.04704e-05
4.78164e-06
4.33657e-05
4.89437e-05
3.8086e-05
7.58923e-06
7.27942e-06
1.44705e-05
1.43225e-05
1.10556e-06
2.99021e-05
0.000105985
0.000144939
0.000107975
4.34329e-05
5.62541e-06
2.03114e-05
1.68751e-05
9.22795e-06
4.1674e-06
4.05774e-07
2.65436e-06
1.14692e-05
2.60845e-05
4.63273e-05
6.84103e-05
8.26473e-05
3.26522e-05
0.000206596
0.000815118
0.00182689
0.0029102
0.00349868
0.00326138
0.00257772
0.00223947
0.00124789
0.000412867
0.000552971
3.93317e-05
4.99315e-05
2.61981e-05
4.18487e-05
3.42825e-05
2.27356e-05
7.5658e-06
3.99349e-08
1.21644e-05
3.04245e-06
4.83989e-06
5.37285e-06
3.48621e-05
4.87947e-05
3.62e-05
3.86521e-06
9.75951e-06
1.8e-05
1.75528e-05
5.31222e-06
2.26584e-05
0.000103406
0.000146711
0.000109248
4.39405e-05
7.46221e-06
2.36509e-05
1.75523e-05
1.02516e-05
4.26603e-06
3.43071e-06
9.68285e-06
2.43962e-05
4.08592e-05
5.97537e-05
6.92014e-05
5.41753e-05
3.47854e-05
0.000303618
0.000899978
0.00184698
0.00286472
0.00347145
0.003336
0.00268555
0.00219253
0.00111087
0.000341637
0.000796535
9.40831e-05
9.56566e-05
3.06431e-05
4.11759e-05
4.36779e-05
3.46338e-05
1.96718e-05
2.34701e-06
1.4063e-05
5.28715e-06
1.23209e-05
3.73358e-05
5.4807e-06
5.58799e-05
7.32842e-05
2.28996e-05
4.61547e-06
1.10073e-05
2.00103e-05
2.19054e-05
1.35122e-05
1.23251e-05
0.000101257
0.000151573
0.000112134
4.31523e-05
1.1819e-05
2.45706e-05
1.83378e-05
9.05471e-06
5.92497e-07
8.82973e-06
2.49202e-05
3.91909e-05
5.41123e-05
5.25348e-05
2.45005e-05
4.34485e-05
0.000188699
0.000497703
0.0010711
0.00190605
0.00276951
0.00322571
0.00294469
0.00205635
0.00130069
0.000579208
0.000732706
0.00118551
0.000338642
0.000225982
7.03324e-05
3.95512e-05
4.39745e-05
4.50061e-05
3.22929e-05
2.5974e-05
1.48908e-06
1.39055e-05
2.70864e-05
2.35373e-05
4.8517e-07
3.53769e-05
9.29111e-05
8.42953e-05
3.59017e-05
2.65042e-06
1.44017e-05
2.31079e-05
2.3517e-05
1.75682e-05
7.02443e-06
9.8939e-05
0.000152436
0.000111881
4.30157e-05
1.45625e-05
2.6957e-05
1.82108e-05
6.30946e-06
7.75787e-06
2.16312e-05
4.15213e-05
5.08797e-05
4.35243e-05
1.09024e-07
8.92862e-05
0.000234481
0.000446069
0.000764517
0.00124293
0.00184229
0.00234831
0.00236219
0.00156568
0.000128009
0.000880153
0.000488896
0.000749045
0.00171388
0.000726424
0.000474823
0.000194908
7.18795e-05
4.09599e-05
4.54693e-05
4.25819e-05
3.24864e-05
7.62288e-06
2.72903e-06
2.1109e-05
8.67025e-06
1.39313e-05
1.35317e-05
3.26481e-05
0.000127641
7.64199e-05
3.83288e-05
1.78907e-06
1.97353e-05
2.74048e-05
2.80898e-05
2.34613e-05
3.81888e-06
9.45108e-05
0.000154047
0.000111239
3.63417e-05
1.82859e-05
2.7378e-05
1.57405e-05
4.46683e-06
2.22966e-05
4.02703e-05
4.89681e-05
3.57983e-05
1.89951e-05
0.000129121
0.000304435
0.000519871
0.000756618
0.000993284
0.00121473
0.00134223
0.00114969
0.000289809
0.00145611
0.0036874
0.0047393
0.00218548
0.00163387
0.00235144
0.00125825
0.000861438
0.000439874
0.000187796
6.61404e-05
3.86784e-05
3.5327e-05
1.48639e-05
2.00939e-05
1.07931e-05
1.65369e-05
1.51601e-05
6.63477e-06
8.02167e-06
7.47231e-06
4.56791e-05
0.000114812
5.91095e-05
3.72608e-05
4.80076e-06
2.21039e-05
3.45831e-05
3.80365e-05
3.23465e-05
1.56513e-05
8.92188e-05
0.000153986
0.000105357
3.02105e-05
2.16128e-05
2.44021e-05
3.45876e-06
2.04849e-05
3.76967e-05
4.71055e-05
2.72415e-05
3.5884e-05
0.000165947
0.000365074
0.000612702
0.00085046
0.000989588
0.000948235
0.000627771
0.000106475
0.00146418
0.0036937
0.00678231
0.00988207
0.0104857
0.00448913
0.00265148
0.00286108
0.00184381
0.00134326
0.000811959
0.000418892
0.000164939
5.58809e-05
2.68407e-05
2.00724e-05
3.43793e-05
5.86806e-06
1.05943e-05
8.16286e-06
4.08245e-07
3.31339e-06
7.41127e-06
8.7482e-06
6.9424e-05
8.87406e-05
6.95541e-05
3.78247e-05
8.1095e-06
2.6985e-05
3.99621e-05
4.27845e-05
4.15852e-05
2.78036e-05
8.40144e-05
0.000150316
9.70813e-05
2.36841e-05
1.78692e-05
1.3231e-05
1.3258e-05
3.78863e-05
4.57278e-05
2.10459e-05
5.21037e-05
0.00019929
0.000421717
0.000695786
0.000950866
0.00106238
0.000877857
0.000216855
0.0010823
0.00318101
0.00623031
0.0102819
0.0149321
0.0186633
0.0179782
0.00717475
0.00251967
0.0029669
0.0022102
0.0017842
0.00124741
0.00077348
0.000378138
0.000139095
5.59748e-05
4.57971e-05
2.73699e-05
2.92244e-05
1.21491e-05
1.77641e-05
6.10994e-06
1.61574e-06
6.85123e-06
9.48807e-06
2.05981e-05
5.71152e-05
6.87856e-05
4.66444e-05
6.32846e-06
1.00358e-05
2.69997e-05
3.99323e-05
4.85049e-05
4.74511e-05
4.37474e-05
7.4186e-05
0.000144035
8.78749e-05
2.36971e-05
9.38767e-06
8.65366e-06
3.89633e-05
4.65645e-05
1.68589e-05
6.99623e-05
0.000230467
0.000473379
0.000769164
0.00103717
0.00113374
0.000851082
5.19281e-05
0.00181728
0.0046422
0.00864566
0.0138391
0.0199515
0.0260497
0.0297737
0.0265834
0.00966079
0.00173033
0.00245133
0.00203901
0.00193679
0.00159099
0.00116765
0.000705375
0.000324612
0.00012249
4.32483e-05
2.06307e-05
3.38737e-05
2.07006e-05
1.02475e-05
4.78864e-06
4.08521e-06
1.96149e-05
5.38539e-06
7.27963e-06
2.00822e-05
7.92563e-07
5.52068e-05
2.74772e-05
1.51504e-06
1.24873e-05
3.33535e-05
4.63869e-05
5.44534e-05
6.04378e-05
5.94968e-05
6.30208e-05
0.000137155
7.49681e-05
2.55097e-05
1.13624e-05
4.21478e-05
5.7212e-05
2.1944e-05
8.45815e-05
0.000265212
0.000527155
0.000837908
0.00110939
0.00118349
0.000809339
0.000303924
0.0024591
0.00591801
0.0108226
0.0171574
0.0246839
0.0327175
0.0397119
0.0423683
0.0350589
0.0089018
0.000457664
0.00123626
0.00118093
0.0015183
0.00158267
0.00142731
0.00106171
0.00062045
0.000268961
8.1705e-05
1.33839e-05
4.03224e-06
1.39098e-05
6.59946e-06
7.65089e-06
4.27493e-07
1.02222e-05
1.8235e-05
7.83288e-06
1.16964e-05
3.04514e-05
2.49817e-05
2.25721e-05
2.18879e-05
1.33195e-05
1.71502e-05
3.57439e-05
5.24555e-05
6.29449e-05
7.20672e-05
8.01759e-05
4.54123e-05
0.000123088
6.69483e-05
3.79778e-05
4.65996e-05
7.49526e-05
4.68016e-05
7.63365e-05
0.000293157
0.000583566
0.000908351
0.00117395
0.00120484
0.000730093
0.000589645
0.00311307
0.00714794
0.0128571
0.0202208
0.0289899
0.0385965
0.0479169
0.0547928
0.0550254
0.041365
0.00646686
0.000836544
0.000326971
0.000202142
0.000410765
0.00095785
0.00130314
0.00127883
0.000962083
0.000509915
0.000206077
5.20636e-05
9.97467e-06
7.4106e-06
1.17307e-05
8.3951e-06
1.5898e-05
6.04176e-06
2.91101e-06
1.94175e-05
2.15391e-07
3.89998e-06
7.34759e-05
5.1983e-05
1.77768e-05
1.25348e-05
5.46507e-06
1.69839e-05
4.03961e-05
5.79701e-05
7.38013e-05
8.90019e-05
0.00010786
2.73421e-05
0.000109168
6.84888e-05
6.3862e-05
8.94994e-05
8.89818e-05
2.84232e-05
0.000282862
0.000625979
0.000981302
0.00123509
0.00120471
0.000608581
0.000928811
0.00381909
0.00840946
0.0148696
0.02315
0.0329591
0.0437517
0.0546352
0.0641058
0.0695049
0.0659802
0.0468529
0.013423
0.00169396
0.00171511
0.00170858
0.00116921
0.000357325
0.000530454
0.00110739
0.00114922
0.000830365
0.00041168
0.000160038
5.19887e-05
4.75171e-06
6.22482e-06
2.71467e-07
7.57459e-07
1.31369e-05
7.5373e-07
6.68422e-06
8.52288e-06
4.46772e-06
6.67901e-06
7.57456e-05
9.24584e-05
2.25384e-05
7.40464e-06
2.06035e-05
2.10486e-05
4.65665e-05
6.79285e-05
8.52077e-05
0.000104257
0.00013167
1.20324e-05
0.000105617
7.97168e-05
0.00010599
0.000129788
5.3319e-05
0.00020543
0.000608
0.00102655
0.00129418
0.00120545
0.000463515
0.00132153
0.00458701
0.00972245
0.0169097
0.0260402
0.0367384
0.048403
0.0602085
0.0710474
0.0791826
0.0816389
0.0734992
0.0513592
0.0139944
6.77227e-05
0.00225486
0.00289212
0.00275605
0.00209803
0.000945786
0.000248587
0.000981965
0.00107486
0.0007144
0.000338325
0.00010074
2.80384e-05
8.10206e-06
1.46008e-05
2.39534e-05
6.32558e-07
2.90691e-06
1.87874e-05
8.39201e-07
9.29086e-06
1.67364e-06
4.13679e-05
0.000107043
0.0001307
2.00437e-05
1.12935e-06
1.03548e-05
2.24486e-05
5.01938e-05
7.4484e-05
9.54866e-05
0.000122022
0.000156259
1.99904e-06
0.000108909
0.00010183
0.000145377
0.000137578
6.11901e-05
0.000485244
0.000990375
0.00132557
0.00120721
0.000314321
0.0017438
0.00541889
0.0110872
0.0189758
0.0289124
0.0404056
0.0527276
0.0650226
0.076336
0.0854911
0.0907247
0.0890096
0.0761389
0.0506324
0.0132566
0.000711884
0.00306129
0.00385689
0.00374964
0.00281652
0.00132181
0.00018673
0.000980283
0.00100913
0.000632903
0.00025586
6.60958e-05
1.93084e-05
1.00108e-05
3.55321e-06
1.65997e-05
1.05373e-05
9.52913e-06
4.11654e-07
4.33644e-06
2.13918e-05
1.74042e-05
5.91684e-05
0.000118347
0.000147787
1.53416e-05
2.14624e-05
1.43419e-06
2.12171e-05
5.32753e-05
8.26152e-05
0.000110522
0.000139846
0.000177534
7.19014e-06
0.000121018
0.000124453
0.000175181
9.73187e-05
0.000244119
0.000795341
0.00124383
0.00117624
0.000178712
0.0021601
0.00624268
0.0124828
0.0210446
0.0317443
0.0439526
0.0568044
0.0693234
0.0805669
0.0896354
0.0954944
0.0965592
0.0900453
0.0730115
0.0460102
0.0110235
0.000951426
0.003707
0.00471422
0.00450508
0.00325109
0.00139177
0.000265901
0.00105001
0.000943593
0.00052231
0.000198308
4.53917e-05
5.73725e-06
1.63212e-05
1.15134e-05
3.0723e-06
1.99653e-05
7.70119e-06
1.02482e-05
1.99937e-06
2.3355e-06
1.88507e-05
5.82569e-05
0.000131871
0.000131567
2.94574e-05
1.66163e-05
2.7368e-06
2.45166e-05
6.02331e-05
9.12141e-05
0.000113694
0.000144379
0.000182165
4.34059e-06
0.000140974
0.000138306
0.000183466
3.45524e-05
0.000412867
0.00093823
0.00100363
2.59769e-05
0.00249654
0.00706049
0.0138398
0.02306
0.0344933
0.0473412
0.060615
0.0732005
0.0840859
0.0924616
0.0977028
0.0990916
0.0953561
0.0842881
0.0644944
0.0383778
0.00823698
0.00111097
0.00422271
0.00531551
0.00495255
0.00336861
0.00119659
0.000517755
0.00113772
0.000899047
0.000434039
0.000151605
2.83397e-05
6.6951e-06
4.09427e-06
1.69391e-05
1.46834e-05
3.15117e-06
1.93431e-06
1.34901e-05
4.62544e-06
7.93464e-06
2.77834e-05
6.2146e-05
0.000148256
0.000114174
1.65998e-05
3.05654e-06
8.22926e-07
3.0166e-05
6.26554e-05
9.00885e-05
0.000113302
0.000136953
0.00017741
2.27777e-05
0.000147132
0.000143774
0.000200976
4.06561e-05
0.000360718
0.000543222
0.000268324
0.00284865
0.00765116
0.0150078
0.0250329
0.0371206
0.0505304
0.0641171
0.0766557
0.0870353
0.0944573
0.0984778
0.0988926
0.0953927
0.0871042
0.0726616
0.0522188
0.0293159
0.00553324
0.0012447
0.00453108
0.00561465
0.0050629
0.00311885
0.000732931
0.000903842
0.00127605
0.000848024
0.000373266
0.000125666
5.27172e-06
1.28396e-05
3.29657e-06
1.84302e-06
1.21125e-05
8.90345e-06
3.64649e-06
6.42491e-07
1.63573e-07
4.13796e-06
2.0227e-05
7.10007e-05
0.000144135
0.000128793
2.7923e-05
3.82058e-06
1.75249e-06
2.68826e-05
6.15643e-05
8.49569e-05
0.00010025
0.000120108
0.000162953
3.45608e-05
0.000135083
0.000164298
0.000345759
0.000350163
0.000282716
0.000917961
0.00325006
0.00818122
0.0159835
0.0252105
0.0395792
0.0534988
0.0672781
0.0796649
0.0894575
0.0958366
0.0984492
0.0973543
0.0928162
0.0849098
0.0732248
0.0573324
0.0385339
0.0204906
0.00334538
0.0013145
0.00459878
0.00560015
0.00479248
0.00252253
6.87312e-05
0.00130366
0.00135539
0.000789516
0.000323373
6.17899e-05
1.6254e-05
4.26883e-06
6.58537e-06
2.79107e-06
1.04142e-05
2.9004e-06
1.67903e-06
4.92429e-06
1.6954e-05
1.33026e-05
2.07669e-05
6.11633e-05
0.000142908
0.000110402
4.52121e-05
4.42247e-06
8.25125e-06
2.29616e-05
4.54886e-05
6.18712e-05
6.50803e-05
8.51212e-05
0.000151024
1.9743e-05
0.000116688
0.000321885
0.000853245
0.00132713
0.00201255
0.0040524
0.00859758
0.0164491
0.0277624
0.0418026
0.0561432
0.0700615
0.0822146
0.0913663
0.096694
0.097903
0.0952158
0.0891941
0.0804957
0.0695122
0.0562671
0.0410882
0.0257654
0.0131754
0.00183252
0.00131324
0.00443669
0.00526067
0.00421545
0.00172075
0.000667613
0.00168992
0.00141253
0.000702938
0.000223088
4.55206e-05
1.35992e-05
6.27959e-06
1.37931e-05
6.3557e-06
4.83224e-06
8.45194e-06
8.58353e-06
7.29588e-07
2.17408e-06
3.06472e-06
2.96001e-05
5.62538e-05
0.000143496
6.56268e-05
4.99875e-05
3.7706e-05
1.37441e-05
2.83539e-06
1.51786e-05
1.90856e-05
2.28542e-05
5.85635e-05
0.000170734
2.10958e-05
0.000166201
0.000856421
0.0020933
0.00343838
0.00531253
0.00932709
0.0168855
0.0287067
0.0435303
0.0584696
0.0724645
0.0843029
0.0927852
0.0970882
0.0969818
0.0928035
0.0853097
0.0754619
0.0641593
0.0519588
0.0391686
0.0265012
0.0155434
0.00794438
0.000953682
0.0012445
0.00409967
0.0047314
0.0034009
0.00074799
0.001417
0.00197129
0.00135101
0.000595815
0.000157255
2.47327e-05
1.51144e-05
1.78756e-05
2.02437e-07
7.77993e-06
5.44734e-06
1.6098e-05
2.00024e-05
7.98805e-06
1.04848e-05
6.18285e-06
2.20479e-05
5.54911e-05
0.000142432
6.54998e-05
9.7199e-05
4.21572e-05
2.68846e-05
2.51855e-05
2.86382e-05
2.50089e-05
7.9369e-06
6.33493e-05
0.000244306
6.65995e-05
0.000478484
0.00214617
0.00452703
0.0070933
0.0104534
0.0172738
0.0295527
0.0449043
0.0602903
0.0744278
0.0859557
0.0937523
0.097073
0.0957657
0.0902651
0.0814793
0.0705502
0.058633
0.0466405
0.0351107
0.024418
0.0152244
0.00849396
0.00471431
0.000539985
0.00113412
0.00361883
0.00399897
0.00242407
0.000242684
0.00203317
0.00211441
0.00127051
0.000458109
7.33889e-05
2.56026e-05
3.34267e-05
1.25607e-05
1.01861e-05
6.06166e-06
2.43321e-06
5.05601e-07
6.07605e-06
7.71812e-06
1.5738e-05
1.90915e-05
2.07158e-05
5.57196e-05
0.00011324
5.29365e-05
0.000122821
4.8304e-05
4.44028e-05
5.83751e-05
6.71057e-05
5.30999e-05
2.86266e-06
0.000158528
0.00038532
1.2767e-05
0.00139141
0.00464612
0.0085004
0.0120205
0.0178127
0.0300757
0.0456746
0.0615477
0.0759163
0.0871835
0.0943206
0.0967136
0.0943165
0.0876766
0.0778138
0.0660107
0.0535476
0.0415067
0.0305981
0.0211601
0.0134228
0.00771775
0.00432608
0.00299531
0.000398944
0.000974287
0.00307478
0.0031501
0.00135751
0.00117599
0.00252329
0.00214413
0.0010656
0.000284963
2.93997e-05
5.42587e-05
6.38872e-05
9.828e-06
5.55255e-06
3.51084e-07
1.90963e-05
8.43548e-06
1.57021e-05
1.39595e-06
1.78888e-05
6.16048e-06
9.04905e-08
3.03758e-05
0.000101492
2.66188e-05
0.000133751
4.75753e-05
4.70964e-05
7.61178e-05
7.56705e-05
1.53542e-05
0.000123778
0.000373977
0.00055592
0.000325593
0.00336822
0.00858897
0.0133608
0.0163381
0.0309562
0.046344
0.0621679
0.0767539
0.0879602
0.0945416
0.0960854
0.0927074
0.0850894
0.0743563
0.0618926
0.0490636
0.0370004
0.0264732
0.017838
0.0111511
0.00636885
0.00345849
0.00224216
0.00219774
0.000375665
0.000814148
0.00252995
0.00228785
0.000337715
0.00196321
0.00274162
0.00197686
0.00080317
7.70408e-05
0.000122102
0.000125418
5.25884e-05
2.96431e-05
2.13195e-06
1.22939e-05
1.25613e-06
1.13268e-05
1.51344e-05
3.89843e-06
8.44772e-06
1.53832e-06
3.84237e-06
2.46263e-06
8.55486e-05
3.1899e-06
0.000137165
1.72161e-05
1.71279e-05
4.10788e-05
7.17209e-07
0.000135462
0.000396034
0.000729428
0.000634463
0.00125334
0.00665235
0.0132607
0.0155103
0.0318095
0.0470665
0.0622998
0.076928
0.0881774
0.0944199
0.0952458
0.0910087
0.0825481
0.0711184
0.0581777
0.0451468
0.0331732
0.0230001
0.0149609
0.00902766
0.00497246
0.00253547
0.00144627
0.00137283
0.00185675
0.000384518
0.000687366
0.00199986
0.00143718
0.000553232
0.00245515
0.00274281
0.00163289
0.000463375
0.000133667
0.000217849
0.000159015
8.77134e-05
2.0838e-05
1.88631e-05
5.70481e-06
6.57758e-06
1.09285e-05
8.15529e-06
4.28704e-07
2.02233e-06
1.65904e-05
1.48021e-05
2.23152e-05
7.7381e-05
1.82087e-05
8.5419e-05
7.53177e-05
8.25677e-05
8.97884e-05
0.000203211
0.000458885
0.000855925
0.00116663
0.000418208
0.00300687
0.00934903
0.0138776
0.0320966
0.0478459
0.0622474
0.0763845
0.0877574
0.0938857
0.0942212
0.0892739
0.0801037
0.0681115
0.0548351
0.0417295
0.0299358
0.0201512
0.0126361
0.00728926
0.00379603
0.00176457
0.000831477
0.000693398
0.00107166
0.00168641
0.000388209
0.000535585
0.00149356
0.000666472
0.00128656
0.00272567
0.00249856
0.00121319
8.17295e-05
0.000356231
0.000350314
0.000191286
9.26289e-05
2.78032e-05
1.29664e-05
3.43365e-06
1.83304e-05
1.91398e-05
7.98107e-06
1.66014e-05
3.5548e-05
2.62181e-05
4.86802e-05
3.77846e-06
0.000101966
0.000112333
4.31539e-05
0.000259367
0.000290197
0.000349626
0.00057154
0.000968529
0.00147693
0.00155418
0.00033532
0.00529548
0.0120167
0.0295797
0.0475607
0.0619969
0.075479