/*--------------------------------*- C++ -*----------------------------------*\
| =========                 |                                                 |
| \\      /  F ield         | OpenFOAM: The Open Source CFD Toolbox           |
|  \\    /   O peration     | Version:  2506                                  |
|   \\  /    A nd           | Website:  www.openfoam.com                      |
|    \\/     M anipulation  |                                                 |
\*---------------------------------------------------------------------------*/
FoamFile
{
    version     2.0;
    format      ascii;
    arch        "LSB;label=32;scalar=64";
    class       volScalarField;
    location    "9.99546";
    object      p;
}
// * * * * * * * * * * * * * * * * * * * * * * * * * * * * * * * * * * * * * //

dimensions      [0 2 -2 0 0 0 0];

internalField   nonuniform List<scalar> 
9700
(
0.00016859
0.000155471
-0.000260382
0.000130071
-0.000230332
-0.000125182
0.00011995
-0.000225833
-0.000110743
-0.00012486
0.000103809
-0.000204882
-0.000111663
-0.000119895
-0.000111021
0.000100816
-0.000206225
-0.00011032
-0.000119119
-0.000109752
-0.000110321
0.000103469
-0.000202954
-0.000115709
-0.00011906
-0.000111156
-0.000109666
-0.000111971
0.000102159
-0.000197052
-0.000116057
-0.000120257
-0.000111972
-0.000111194
-0.000111587
-0.000116756
0.000102588
-0.000198573
-0.000113253
-0.000120217
-0.000113012
-0.000112238
-0.00011294
-0.000116362
-0.000124197
9.78093e-05
-0.000193283
-0.00011364
-0.000119102
-0.0001136
-0.000113108
-0.000114028
-0.000117529
-0.000123758
-0.000134247
9.81181e-05
-0.000193478
-0.000111736
-0.000118933
-0.000113063
-0.000113802
-0.000114754
-0.000118397
-0.000124551
-0.000133705
-0.000146541
9.09347e-05
-0.000183722
-0.000112527
-0.000117871
-0.000113359
-0.000113539
-0.000115462
-0.000118845
-0.000125031
-0.000133953
-0.00014591
-0.000160891
9.18442e-05
-0.000185175
-0.000109296
-0.000117655
-0.000112454
-0.000113834
-0.000115335
-0.000119422
-0.000125073
-0.000133921
-0.000145528
-0.000160212
-0.000177158
8.42022e-05
-0.000173182
-0.000110647
-0.000116244
-0.000112398
-0.000113184
-0.000115565
-0.000119212
-0.000125407
-0.000133451
-0.000144928
-0.000159156
-0.000176478
-0.000195276
8.46184e-05
-0.000173941
-0.000105778
-0.000115864
-0.000111528
-0.000113172
-0.000115088
-0.000119474
-0.000125063
-0.00013346
-0.000143891
-0.000157985
-0.000174765
-0.000194631
-0.000215219
7.55653e-05
-0.000158874
-0.000107476
-0.000113768
-0.000111223
-0.000112559
-0.000115087
-0.000119024
-0.000125286
-0.000132925
-0.000143532
-0.000156372
-0.000173055
-0.00019234
-0.000214668
-0.000237078
7.60123e-05
-0.000159682
-0.000100695
-0.000113031
-0.00011009
-0.000112336
-0.000114614
-0.000119127
-0.000124846
-0.000133072
-0.00014277
-0.000155636
-0.000170899
-0.000190169
-0.000211925
-0.000236643
-0.000260978
6.64772e-05
-0.000141464
-0.000102593
-0.000109789
-0.000109013
-0.000111494
-0.000114444
-0.000118738
-0.000125009
-0.000132618
-0.000142817
-0.000154631
-0.000169801
-0.00018754
-0.000209401
-0.000233618
-0.000260652
-0.000287075
6.64711e-05
-0.000141063
-9.34401e-05
-0.000108292
-0.000106997
-0.000110612
-0.00011379
-0.000118728
-0.000124695
-0.000132826
-0.000142333
-0.000154565
-0.000168553
-0.000186116
-0.0002064
-0.000230862
-0.000257543
-0.000286829
-0.00031551
5.67954e-05
-0.000121429
-9.4558e-05
-0.000103498
-0.000104865
-0.000109016
-0.00011311
-0.000118235
-0.000124806
-0.000132574
-0.00014257
-0.000154039
-0.000168368
-0.000184637
-0.0002047
-0.000227601
-0.000254685
-0.00028382
-0.000315324
-0.000346472
5.59014e-05
-0.000117959
-8.39137e-05
-0.000100707
-0.000101633
-0.000107125
-0.000111819
-0.00011776
-0.000124446
-0.000132787
-0.000142367
-0.000154293
-0.000167793
-0.000184329
-0.000203009
-0.000225679
-0.000251282
-0.000280988
-0.000312567
-0.000346339
-0.000380206
4.59736e-05
-9.91908e-05
-8.17965e-05
-9.43035e-05
-9.81198e-05
-0.000104388
-0.000110179
-0.000116689
-0.000124134
-0.000132531
-0.000142657
-0.000154122
-0.00016805
-0.000183693
-0.00020257
-0.000223795
-0.000249195
-0.00027756
-0.000309883
-0.000343924
-0.000380115
-0.000416984
4.40446e-05
-9.33995e-05
-7.20039e-05
-8.93012e-05
-9.33622e-05
-0.000101138
-0.000107804
-0.000115283
-0.000123234
-0.000132346
-0.000142477
-0.000154463
-0.000167893
-0.000183933
-0.000201853
-0.000223211
-0.000247139
-0.000275372
-0.000306545
-0.000341485
-0.000378063
-0.000416912
-0.000457103
3.40348e-05
-7.43821e-05
-6.6498e-05
-8.19413e-05
-8.81975e-05
-9.69187e-05
-0.000104822
-0.000113156
-0.000122011
-0.000131571
-0.000142379
-0.000154325
-0.000168256
-0.000183764
-0.000202045
-0.000222387
-0.000246396
-0.000273167
-0.000304321
-0.000338331
-0.000375921
-0.000415195
-0.000457015
-0.000500876
3.08636e-05
-6.75539e-05
-5.55088e-05
-7.45131e-05
-8.1814e-05
-9.20393e-05
-0.000100992
-0.000110414
-0.000120069
-0.000130479
-0.000141682
-0.000154275
-0.000168127
-0.000184115
-0.000201829
-0.000222494
-0.000245431
-0.000272249
-0.000301996
-0.000336134
-0.000373011
-0.000413353
-0.000455566
-0.00050074
-0.000548575
2.39207e-05
-5.00654e-05
-4.90721e-05
-6.53654e-05
-7.49948e-05
-8.614e-05
-9.63825e-05
-0.000106838
-0.000117502
-0.000128661
-0.00014067
-0.000153612
-0.000168081
-0.000183956
-0.000202126
-0.00022219
-0.000245408
-0.000271109
-0.00030089
-0.00033372
-0.000370889
-0.000410707
-0.000453986
-0.000499465
-0.000548377
-0.000600414
1.94687e-05
-4.26744e-05
-3.76774e-05
-5.70166e-05
-6.67663e-05
-7.95456e-05
-9.08399e-05
-0.000102437
-0.000114103
-0.000126206
-0.00013892
-0.000152628
-0.000167406
-0.00018387
-0.000201894
-0.000222388
-0.000244968
-0.000270904
-0.00029954
-0.000332422
-0.000368418
-0.000408686
-0.000451578
-0.000498069
-0.000547177
-0.000600171
-0.000656567
1.43191e-05
-3.44902e-05
-3.07433e-05
-4.64302e-05
-5.88932e-05
-7.17544e-05
-8.44693e-05
-9.71268e-05
-0.000109831
-0.000122911
-0.000136515
-0.000150891
-0.0001664
-0.000183136
-0.00020172
-0.000222036
-0.000245015
-0.000270279
-0.000299105
-0.000330837
-0.000366935
-0.000406182
-0.000449655
-0.000495831
-0.000545869
-0.000598968
-0.000656318
-0.000717166
9.48032e-06
-2.63507e-05
-2.49345e-05
-3.82816e-05
-4.8795e-05
-6.38406e-05
-7.70041e-05
-9.0854e-05
-0.000104673
-0.000118694
-0.000133261
-0.000148478
-0.000164623
-0.000182056
-0.000200879
-0.000221725
-0.000244495
-0.000270122
-0.000298244
-0.000330132
-0.000365103
-0.000404527
-0.000447129
-0.000493971
-0.000543703
-0.000597658
-0.000655084
-0.000716976
-0.000782358
4.98323e-06
-1.81649e-05
-1.91194e-05
-3.13887e-05
-4.08144e-05
-5.392e-05
-6.90599e-05
-8.36024e-05
-9.84067e-05
-0.000113614
-0.000129031
-0.000145205
-0.000162147
-0.000180188
-0.000199673
-0.000220727
-0.000243996
-0.000269384
-0.000297833
-0.000328992
-0.000364101
-0.000402451
-0.000445321
-0.000491418
-0.000541847
-0.000595466
-0.000653719
-0.000715749
-0.000782312
-0.000852314
7.1509e-07
-9.60548e-06
-1.31286e-05
-2.47014e-05
-3.38562e-05
-4.57431e-05
-5.93626e-05
-7.54643e-05
-9.13063e-05
-0.000107268
-0.000123963
-0.000140899
-0.000158799
-0.000177594
-0.000197662
-0.000219346
-0.000242791
-0.000268646
-0.000296829
-0.000328282
-0.000362652
-0.000401143
-0.000443017
-0.000489478
-0.000539254
-0.000593551
-0.000651433
-0.000714338
-0.000781198
-0.000852513
-0.000927293
-3.62717e-06
-5.87133e-07
-7.15391e-06
-1.74841e-05
-2.7091e-05
-3.85334e-05
-5.09417e-05
-6.59955e-05
-8.28627e-05
-0.000100265
-0.000117464
-0.000135787
-0.00015436
-0.000174118
-0.000194898
-0.00021714
-0.000241182
-0.000267185
-0.000295803
-0.000326968
-0.000361607
-0.000399369
-0.000441411
-0.000486974
-0.000537204
-0.000590903
-0.00064942
-0.00071196
-0.000779832
-0.000851691
-0.000927851
-0.00100765
-8.34716e-06
8.76056e-06
-1.02601e-06
-1.0097e-05
-1.98065e-05
-3.13453e-05
-4.3595e-05
-5.71694e-05
-7.36708e-05
-9.14028e-05
-0.000110515
-0.000129068
-0.000149151
-0.000169492
-0.000191242
-0.000214155
-0.000238731
-0.000265298
-0.000294038
-0.000325609
-0.000359948
-0.000397967
-0.000439312
-0.000485094
-0.000534538
-0.000588771
-0.000646716
-0.000709853
-0.000777443
-0.000850546
-0.000927551
-0.00100869
-0.00109387
-1.3486e-05
1.79809e-05
5.31323e-06
-2.37537e-06
-1.22685e-05
-2.36378e-05
-3.60628e-05
-4.96724e-05
-6.42966e-05
-8.25403e-05
-0.000101134
-0.000122137
-0.000142149
-0.000164137
-0.000186378
-0.00021027
-0.000235476
-0.000262552
-0.000291825
-0.000323496
-0.000358218
-0.000395937
-0.000437544
-0.000482684
-0.000532419
-0.000585989
-0.000644535
-0.000707118
-0.000775305
-0.000848318
-0.000926884
-0.00100917
-0.0010955
-0.00118666
-1.82965e-05
2.69968e-05
1.19454e-05
5.60901e-06
-4.37307e-06
-1.55896e-05
-2.80375e-05
-4.1749e-05
-5.66809e-05
-7.24696e-05
-9.2661e-05
-0.000112139
-0.000135209
-0.000156797
-0.000180832
-0.00020512
-0.000231313
-0.000258978
-0.000288737
-0.00032091
-0.000355716
-0.000393803
-0.000435126
-0.000480553
-0.000529726
-0.000583678
-0.000641688
-0.000704928
-0.000772597
-0.00084628
-0.000925075
-0.0010093
-0.00109703
-0.00118894
-0.0012869
-2.39999e-05
3.62443e-05
1.86973e-05
1.39622e-05
3.86129e-06
-7.14802e-06
-1.95999e-05
-3.33724e-05
-4.83437e-05
-6.47552e-05
-8.17529e-05
-0.000104125
-0.000124505
-0.000149822
-0.0001731
-0.000199339
-0.000225829
-0.000254489
-0.000284794
-0.000317432
-0.000352712
-0.000390874
-0.000432561
-0.000477737
-0.00052724
-0.000580734
-0.000639231
-0.000702063
-0.000770452
-0.000843698
-0.000923336
-0.00100823
-0.00109829
-0.00119178
-0.00128989
-0.00139562
-2.95057e-05
4.64656e-05
2.61285e-05
2.24193e-05
1.24992e-05
1.71105e-06
-1.07353e-05
-2.45175e-05
-3.96289e-05
-5.59631e-05
-7.39605e-05
-9.22383e-05
-0.000117023
-0.000138326
-0.000166071
-0.000191166
-0.000219773
-0.000248625
-0.000279933
-0.000313075
-0.000348798
-0.00038741
-0.000429172
-0.000474719
-0.00052402
-0.000577907
-0.000636067
-0.000699501
-0.000767617
-0.000841663
-0.000921016
-0.00100705
-0.00109835
-0.00119451
-0.00129421
-0.00139937
-0.00151397
-3.53948e-05
6.30145e-05
3.56318e-05
3.16557e-05
2.13701e-05
1.09911e-05
-1.40239e-06
-1.52044e-05
-3.03543e-05
-4.68978e-05
-6.46748e-05
-8.43839e-05
-0.000103988
-0.00013145
-0.000153696
-0.000184065
-0.00021111
-0.000242252
-0.000273646
-0.000307794
-0.000343978
-0.000383015
-0.000425208
-0.000470836
-0.000520525
-0.000574276
-0.000632907
-0.000696137
-0.000764978
-0.000838905
-0.000919173
-0.00100517
-0.00109804
-0.00119606
-0.00129869
-0.00140527
-0.00151854
-0.00164321
-3.96853e-05
7.93328e-05
4.97651e-05
4.32403e-05
3.10907e-05
2.06235e-05
8.35706e-06
-5.38698e-06
-2.06235e-05
-3.72027e-05
-5.52622e-05
-7.45624e-05
-9.61178e-05
-0.00011712
-0.000147498
-0.000170725
-0.000203924
-0.000233055
-0.000266916
-0.000301038
-0.00033823
-0.000377685
-0.000420284
-0.000466327
-0.000516112
-0.000570279
-0.000628851
-0.000692641
-0.000761423
-0.000836211
-0.000916536
-0.00100361
-0.00109681
-0.00119695
-0.00130207
-0.00141172
-0.00152603
-0.00164865
-0.00178461
-4.4087e-05
9.86997e-05
6.3926e-05
5.93769e-05
4.33325e-05
3.09802e-05
1.85953e-05
4.85027e-06
-1.0339e-05
-2.70501e-05
-4.51209e-05
-6.47954e-05
-8.57173e-05
-0.000109272
-0.000131759
-0.000165296
-0.000189529
-0.000225769
-0.00025714
-0.00029391
-0.000330959
-0.00037142
-0.000414392
-0.000460823
-0.00051101
-0.000565293
-0.000624314
-0.000688129
-0.000757569
-0.000832458
-0.000913795
-0.00100114
-0.00109567
-0.00119663
-0.00130449
-0.00141722
-0.00153461
-0.00165771
-0.00179099
-0.0019394
-4.77183e-05
0.000117796
8.06507e-05
7.57375e-05
6.02723e-05
4.41516e-05
2.93607e-05
1.5695e-05
3.27584e-07
-1.63142e-05
-3.45681e-05
-5.4198e-05
-7.55684e-05
-9.82358e-05
-0.00012392
-0.00014801
-0.000184976
-0.000210233
-0.00024974
-0.000283513
-0.000323392
-0.000363588
-0.000407558
-0.000454316
-0.00050487
-0.000559541
-0.0006187
-0.000683001
-0.000752556
-0.000828208
-0.000909818
-0.000998354
-0.00109343
-0.00119606
-0.00130535
-0.00142148
-0.00154245
-0.00166852
-0.00180156
-0.00194683
-0.0021088
-5.11835e-05
0.000138141
9.76533e-05
9.39945e-05
7.74322e-05
6.20558e-05
4.33759e-05
2.67972e-05
1.17551e-05
-5.23709e-06
-2.33691e-05
-4.32445e-05
-6.45321e-05
-8.76742e-05
-0.00011222
-0.000140151
-0.000165987
-0.000206671
-0.000232982
-0.000275987
-0.000312329
-0.000355536
-0.000399114
-0.000446854
-0.000497683
-0.000552696
-0.000612226
-0.000676685
-0.000746764
-0.000822626
-0.000905114
-0.000994114
-0.00109059
-0.00119411
-0.00130552
-0.00142379
-0.00154886
-0.00167888
-0.0018147
-0.00195887
-0.00211744
-0.00229401
-5.37648e-05
0.000158702
0.000115918
0.000112857
9.63404e-05
8.03954e-05
6.19944e-05
4.17256e-05
2.30768e-05
6.77312e-06
-1.19151e-05
-3.15876e-05
-5.31503e-05
-7.62094e-05
-0.000101249
-0.000127784
-0.000158134
-0.000185821
-0.000230532
-0.000257925
-0.000304664
-0.000343763
-0.000390529
-0.000437742
-0.000489526
-0.000544757
-0.000604596
-0.000669402
-0.000739654
-0.000816075
-0.000898872
-0.000988876
-0.00108604
-0.00119122
-0.00130395
-0.00142491
-0.00155291
-0.00168771
-0.00182774
-0.00197449
-0.00213101
-0.00230414
-0.00249636
-5.59593e-05
0.000180648
0.000134629
0.000132849
0.000115947
0.000100251
8.14009e-05
6.09417e-05
3.89825e-05
1.82173e-05
6.78672e-07
-1.97793e-05
-4.10693e-05
-6.43915e-05
-8.93311e-05
-0.000116436
-0.000145054
-0.000178018
-0.000207601
-0.000256706
-0.000285214
-0.000335943
-0.000378002
-0.000428569
-0.000479683
-0.000535826
-0.000595815
-0.000660883
-0.000731449
-0.000808052
-0.000891441
-0.000981861
-0.00108017
-0.00118631
-0.00130105
-0.00142385
-0.0015552
-0.00169379
-0.00183927
-0.00199044
-0.00214939
-0.00231949
-0.00250837
-0.00271736
-5.74762e-05
0.000203144
0.00015432
0.000153483
0.000136652
0.00012094
0.000102074
8.14602e-05
5.86557e-05
3.51828e-05
1.21543e-05
-6.59463e-06
-2.89086e-05
-5.19123e-05
-7.70756e-05
-0.000103975
-0.000133305
-0.000164148
-0.000199929
-0.000231509
-0.00028534
-0.00031502
-0.000370005
-0.000415238
-0.000469858
-0.000525178
-0.000586016
-0.00065115
-0.000721916
-0.000798786
-0.000882357
-0.000973402
-0.00107225
-0.00117972
-0.00129573
-0.00142096
-0.00155481
-0.00169752
-0.00184768
-0.00200501
-0.00216858
-0.00234107
-0.00252599
-0.00273177
-0.00295893
-5.88856e-05
0.000226414
0.000174539
0.000174907
0.000158035
0.000142644
0.000123738
0.000102936
8.02969e-05
5.5191e-05
3.02608e-05
4.82446e-06
-1.51239e-05
-3.93948e-05
-6.41852e-05
-9.13514e-05
-0.000120298
-0.000151955
-0.000185207
-0.000224004
-0.000257763
-0.000316626
-0.000347535
-0.000407042
-0.000455669
-0.000514627
-0.000574473
-0.000640369
-0.000711097
-0.000788083
-0.000871859
-0.000963077
-0.00106259
-0.00117073
-0.00128829
-0.00141519
-0.00155198
-0.00169795
-0.00185314
-0.00201612
-0.00218663
-0.00236404
-0.00255151
-0.0027525
-0.00297645
-0.00322346
-5.95352e-05
0.000249383
0.000195418
0.000196823
0.000180148
0.000165072
0.000146323
0.000125605
0.000102527
7.79848e-05
5.04868e-05
2.41602e-05
-3.8856e-06
-2.49901e-05
-5.1342e-05
-7.79743e-05
-0.000107306
-0.000138474
-0.000172549
-0.000208384
-0.0002504
-0.000286515
-0.000350755
-0.000382946
-0.000447245
-0.000499518
-0.000563108
-0.000627824
-0.000699194
-0.000776014
-0.000859797
-0.000951139
-0.00105081
-0.00115966
-0.00127806
-0.00140679
-0.00154573
-0.00169528
-0.00185461
-0.00202365
-0.0022009
-0.00238617
-0.00257907
-0.00278306
-0.00300155
-0.00324508
-0.00351408
-6.06157e-05
0.000272995
0.000216271
0.000219145
0.00020271
0.000188162
0.00016968
0.000149081
0.000126193
0.000100936
7.44661e-05
4.44896e-05
1.6803e-05
-1.405e-05
-3.63329e-05
-6.48704e-05
-9.34598e-05
-0.000125029
-0.000158612
-0.000195305
-0.00023385
-0.000279308
-0.000317861
-0.000387899
-0.000421439
-0.000490827
-0.000547005
-0.000615535
-0.000685514
-0.000762818
-0.000846275
-0.000937487
-0.00103718
-0.00114617
-0.00126534
-0.00139511
-0.00153622
-0.00168849
-0.00185217
-0.00202639
-0.0022109
-0.00240417
-0.00260611
-0.00281639
-0.00303867
-0.00327627
-0.00354111
-0.00383485
-6.18944e-05
0.000295154
0.000237486
0.000241505
0.000225622
0.000211672
0.000193644
0.000173392
0.000150541
0.000125607
9.8107e-05
6.96939e-05
3.71229e-05
8.09329e-06
-2.57547e-05
-4.92996e-05
-8.01168e-05
-0.000110811
-0.000144702
-0.000180802
-0.000220352
-0.000261778
-0.000310921
-0.000352052
-0.000428223
-0.000463219
-0.000537999
-0.000598352
-0.000672168
-0.000747839
-0.000831577
-0.000922268
-0.00102166
-0.00113056
-0.00124984
-0.00138045
-0.00152286
-0.00167772
-0.00184481
-0.0020243
-0.00221522
-0.00241716
-0.00262861
-0.00284948
-0.00307935
-0.00332198
-0.00358058
-0.00386876
-0.00419103
-6.55588e-05
0.0003179
0.000257831
0.00026383
0.000248521
0.000235458
0.000218011
0.000198255
0.0001758
0.000150826
0.000123791
9.39981e-05
6.3593e-05
2.82949e-05
-2.08301e-06
-3.91446e-05
-6.39745e-05
-9.72304e-05
-0.000130157
-0.000166549
-0.000205258
-0.000247781
-0.000292333
-0.000345435
-0.000389361
-0.000471966
-0.000508488
-0.000588964
-0.000653801
-0.000733274
-0.000815098
-0.000905813
-0.00100445
-0.00111284
-0.00123189
-0.00136258
-0.00150594
-0.00166241
-0.00183259
-0.00201631
-0.00221359
-0.00242337
-0.00264519
-0.00287747
-0.00311996
-0.00337205
-0.00363747
-0.00391924
-0.00423318
-0.00458856
-6.73145e-05
0.000339347
0.000278149
0.000285568
0.00027133
0.000259184
0.000242602
0.000223516
0.000201562
0.000177047
0.000149882
0.00012071
8.85365e-05
5.60746e-05
1.78912e-05
-1.3837e-05
-5.43735e-05
-8.04767e-05
-0.000116359
-0.000151592
-0.000190685
-0.000232218
-0.000277801
-0.000325616
-0.000382949
-0.000429935
-0.00051934
-0.000557445
-0.00064394
-0.000713595
-0.000799112
-0.000887587
-0.000985926
-0.00109327
-0.00121157
-0.00134188
-0.00148529
-0.00164282
-0.00181498
-0.00200241
-0.00220489
-0.00242234
-0.00265372
-0.00289841
-0.00315466
-0.00342197
-0.00369941
-0.00399027
-0.00429759
-0.00463975
-0.00502741
-6.87692e-05
0.000364455
0.000296537
0.000306876
0.000293496
0.000282734
0.000267089
0.000248953
0.000227729
0.000203726
0.000177081
0.000147678
0.000116292
8.16337e-05
4.70301e-05
5.77518e-06
-2.72929e-05
-7.1596e-05
-9.89826e-05
-0.000137666
-0.000175324
-0.000217221
-0.000261815
-0.000310761
-0.000361993
-0.000423617
-0.000473935
-0.000570531
-0.000610295
-0.000703143
-0.000777961
-0.000869934
-0.000965651
-0.00107231
-0.00118922
-0.00131849
-0.00146133
-0.00161889
-0.00179226
-0.00198211
-0.00218904
-0.00241282
-0.00265341
-0.0029097
-0.00318084
-0.00346478
-0.0037607
-0.00406681
-0.00438577
-0.00472039
-0.00508998
-0.00550515
-6.63239e-05
0.000385689
0.000315939
0.000327075
0.000315156
0.000305597
0.000291342
0.000274254
0.000254035
0.000230829
0.000204699
0.000175875
0.000144146
0.00011045
7.31801e-05
3.63265e-05
-8.20435e-06
-4.26026e-05
-9.10472e-05
-0.000119683
-0.000161322
-0.000201613
-0.000246411
-0.000294157
-0.000346773
-0.000401706
-0.000467777
-0.000521576
-0.000625744
-0.000667255
-0.000766774
-0.000847113
-0.000946026
-0.00104961
-0.00116536
-0.00129284
-0.00143431
-0.00159108
-0.00176444
-0.0019557
-0.00216555
-0.00239466
-0.00264292
-0.00291024
-0.00319534
-0.00349706
-0.00381306
-0.0041415
-0.00447934
-0.00482827
-0.00518935
-0.00558096
-0.00604101
-6.14386e-05
0.000405502
0.000333717
0.000346816
0.000335473
0.00032784
0.000314849
0.000299268
0.000280182
0.000258043
0.000232772
0.000204462
0.000173365
0.000139201
0.000103074
6.30384e-05
2.38155e-05
-2.42109e-05
-5.99507e-05
-0.000112866
-0.000142777
-0.000187517
-0.000230639
-0.000278552
-0.00032953
-0.000385894
-0.000444778
-0.000515655
-0.000573081
-0.000685179
-0.000728505
-0.000834994
-0.00092129
-0.00102764
-0.00113978
-0.00126553
-0.00140473
-0.00155974
-0.00173207
-0.00192328
-0.00213477
-0.0023674
-0.00262201
-0.00289854
-0.00319673
-0.0035151
-0.00385218
-0.00420452
-0.00456888
-0.0049405
-0.00531874
-0.00570186
-0.00611127
-0.00657356
-5.43595e-05
0.00041713
0.000351355
0.000364383
0.000354957
0.000348668
0.000337657
0.000323488
0.000305999
0.000285087
0.000260939
0.000233545
0.000202952
0.000169468
0.000132733
9.40227e-05
5.10562e-05
9.32287e-06
-4.24191e-05
-7.95596e-05
-0.000137178
-0.000168444
-0.000216475
-0.000262451
-0.000313767
-0.000368229
-0.000428437
-0.000491431
-0.000567395
-0.000628502
-0.000748981
-0.000794193
-0.000907989
-0.00100068
-0.00111501
-0.00123653
-0.00137331
-0.00152551
-0.00169562
-0.00188551
-0.0020969
-0.00233144
-0.00259027
-0.00287431
-0.00318341
-0.00351714
-0.00387377
-0.00425066
-0.00464279
-0.00504508
-0.00544983
-0.00585245
-0.00624713
-0.00664825
-0.00688583
-4.93924e-05
0.000417638
0.000363189
0.000379787
0.000372126
0.000368447
0.00035896
0.00034694
0.000330986
0.000311769
0.000288936
0.000262717
0.00023309
0.000200091
0.000164073
0.0001246
8.31386e-05
3.70604e-05
-7.35589e-06
-6.30165e-05
-0.000101679
-0.000164225
-0.000196883
-0.000248506
-0.000297361
-0.000352174
-0.000410404
-0.000474587
-0.00054187
-0.000623158
-0.000688081
-0.000817235
-0.000864498
-0.000985892
-0.00108544
-0.00120838
-0.00134021
-0.00148919
-0.00165585
-0.00184299
-0.00205271
-0.00228709
-0.00254815
-0.00283722
-0.00315508
-0.00350146
-0.0038758
-0.00427507
-0.00469499
-0.00512853
-0.00556766
-0.00599978
-0.00641535
-0.00679215
-0.00711988
-0.00740008
-3.84928e-05
0.000400545
0.000367251
0.000390177
0.000387399
0.00038581
0.000379122
0.000368836
0.000355154
0.000337598
0.000316552
0.000291733
0.000263325
0.000231332
0.000195768
0.000157035
0.000114641
7.0238e-05
2.08434e-05
-2.64333e-05
-8.62354e-05
-0.000126535
-0.000194347
-0.000228325
-0.000283667
-0.000335745
-0.000394062
-0.000456251
-0.00052465
-0.000596308
-0.000683092
-0.000752075
-0.000890078
-0.000939519
-0.00106877
-0.00117573
-0.001308
-0.00145116
-0.00161368
-0.00179663
-0.00200298
-0.00223528
-0.00249613
-0.00278779
-0.00311152
-0.0034678
-0.00385652
-0.0042756
-0.0047203
-0.00518415
-0.00565705
-0.00612628
-0.00657281
-0.00697804
-0.00730193
-0.00757891
-0.00799305
-2.29595e-05
0.000381726
0.000361283
0.000395426
0.000398356
0.000401261
0.000396876
0.000389539
0.000377732
0.000362568
0.000343303
0.000320359
0.000293429
0.00026269
0.000228159
0.000189835
0.000148188
0.000102665
5.51023e-05
2.17597e-06
-4.81415e-05
-0.000112353
-0.000154363
-0.000227741
-0.00026312
-0.000322169
-0.000377724
-0.000439666
-0.000505857
-0.000578748
-0.00065491
-0.000747342
-0.000820388
-0.000967502
-0.00101929
-0.00115667
-0.00127166
-0.00141403
-0.00156977
-0.0017475
-0.00194879
-0.00217697
-0.00243527
-0.00272666
-0.00305332
-0.00341626
-0.00381576
-0.00425056
-0.00471656
-0.00520671
-0.00571124
-0.00621534
-0.00670079
-0.00714025
-0.0075051
-0.00777371
-0.00798916
-0.00814404
-7.12028e-06
0.000366194
0.000355631
0.000394849
0.000405553
0.000412873
0.000412892
0.00040788
0.000399092
0.000385932
0.000369168
0.000348122
0.000323149
0.000293957
0.000260704
0.000223424
0.000182124
0.000137337
8.84428e-05
3.74976e-05
-1.92012e-05
-7.27464e-05
-0.000141642
-0.000185437
-0.000264589
-0.000301578
-0.000364451
-0.000423554
-0.000489324
-0.000559505
-0.000636913
-0.000717789
-0.000816019
-0.000893145
-0.0010494
-0.00110378
-0.00124958
-0.00137328
-0.00152668
-0.00169653
-0.00189135
-0.00211348
-0.00236683
-0.00265495
-0.00298131
-0.00334765
-0.00375432
-0.00420007
-0.00468239
-0.00519445
-0.00572537
-0.00626095
-0.00678128
-0.00726204
-0.0076677
-0.00797071
-0.00815848
-0.00825495
-0.00826578
2.51662e-07
0.000360014
0.000354265
0.000392642
0.000408178
0.000421658
0.000425482
0.000424627
0.000418146
0.000408059
0.00039342
0.000374982
0.000352018
0.000324859
0.000293211
0.000257216
0.000216954
0.000172432
0.000124241
7.17202e-05
1.71609e-05
-4.35847e-05
-0.000100544
-0.000174388
-0.000220063
-0.00030524
-0.000343823
-0.000410731
-0.000473353
-0.000543138
-0.000617497
-0.000699349
-0.000785031
-0.000889169
-0.000970481
-0.00113569
-0.00119292
-0.00134735
-0.00148059
-0.00164625
-0.00183192
-0.00204619
-0.00229238
-0.00257438
-0.00289628
-0.00326326
-0.00367305
-0.00412519
-0.00461821
-0.00514655
-0.00569857
-0.00625923
-0.00680995
-0.0073259
-0.00777654
-0.00812367
-0.00834297
-0.00841447
-0.00842527
-0.00842967
0.000364364
0.000355175
0.000391208
0.000409242
0.000426624
0.000435772
0.000438277
0.000435739
0.000427931
0.000416415
0.000400227
0.000379978
0.000354934
0.000325387
0.000291038
0.000252052
0.000208541
0.000160507
0.000108638
5.22135e-05
-6.21559e-06
-7.12928e-05
-0.000131849
-0.0002109
-0.000258521
-0.000350012
-0.000390067
-0.000461231
-0.000527398
-0.000601156
-0.000679886
-0.00076627
-0.000856583
-0.000966611
-0.0010524
-0.00122621
-0.0012865
-0.00144973
-0.00159368
-0.00177288
-0.00197668
-0.00221355
-0.00248673
-0.00280056
-0.0031622
-0.00357557
-0.00402705
-0.00452395
-0.00506388
-0.00563081
-0.00621053
-0.00678441
-0.00733013
-0.00781796
-0.0082146
-0.00848204
-0.0086023
-0.00858014
-0.0085587
-0.00857592
0.000355898
0.000390603
0.000409591
0.000429894
0.000442698
0.000450008
0.000450502
0.000446438
0.000437191
0.000424194
0.000406325
0.000384102
0.000356771
0.000324577
0.000287263
0.000244997
0.000197923
0.000146072
9.02334e-05
2.95926e-05
-3.29747e-05
-0.000102663
-0.000167003
-0.000251521
-0.000301099
-0.000399165
-0.00044063
-0.000516153
-0.000586017
-0.000663648
-0.000746622
-0.000837779
-0.000932665
-0.00104819
-0.00113838
-0.00132057
-0.00138415
-0.00155648
-0.00171241
-0.00190706
-0.00213236
-0.00239392
-0.00269652
-0.00304885
-0.00345612
-0.00391305
-0.00440159
-0.00494717
-0.00552372
-0.00611579
-0.00670656
-0.0072744
-0.00779353
-0.00823205
-0.00855712
-0.00873591
-0.00877298
-0.00871081
-0.00870747
-0.00881321
0.000390697
0.00041008
0.000431987
0.000447928
0.000458707
0.000463637
0.000462323
0.000456656
0.000445955
0.000431366
0.000411664
0.000387261
0.000357374
0.000322254
0.000281668
0.00023578
0.000184814
0.000128817
6.86767e-05
3.49172e-06
-6.34845e-05
-0.000138056
-0.000206384
-0.000296593
-0.000348119
-0.000452978
-0.000495789
-0.000575717
-0.00064934
-0.000730919
-0.00081789
-0.000913646
-0.00101322
-0.0011339
-0.00122803
-0.00141802
-0.0014855
-0.00166701
-0.00183697
-0.00205044
-0.00229878
-0.00258654
-0.00292587
-0.00332532
-0.00376975
-0.00424644
-0.00479984
-0.00537926
-0.00597758
-0.00657841
-0.00716226
-0.00770507
-0.00818005
-0.00855604
-0.00880509
-0.00890973
-0.00890542
-0.0088607
-0.00894115
-0.00918084
0.000410621
0.000433225
0.000451755
0.000465717
0.000473992
0.000476802
0.000473643
0.000466408
0.000454189
0.000437886
0.000416155
0.000389298
0.000356567
0.000318198
0.000273972
0.000224105
0.000168887
0.000108371
4.3578e-05
-2.64827e-05
-9.81444e-05
-0.000177884
-0.000250372
-0.000346466
-0.000399917
-0.000511885
-0.00055581
-0.000640143
-0.000717399
-0.000802926
-0.000893871
-0.000993771
-0.00109774
-0.00122339
-0.00132099
-0.00151769
-0.00159006
-0.00178098
-0.00196896
-0.002202
-0.00247412
-0.00279725
-0.00318119
-0.00360646
-0.00408238
-0.00462295
-0.00520029
-0.00579841
-0.00640339
-0.00699665
-0.00755756
-0.00806185
-0.00848411
-0.00879693
-0.00898408
-0.00905036
-0.0090575
-0.00909024
-0.00930106
-0.00969313
0.000434548
0.000453974
0.00047119
0.000482669
0.000488697
0.000489381
0.000484459
0.000475662
0.000461858
0.000443672
0.000419642
0.000390042
0.000354129
0.000312119
0.00026387
0.000209631
0.000149757
8.43207e-05
1.45148e-05
-6.07589e-05
-0.00013741
-0.000222567
-0.000299369
-0.000401527
-0.00045682
-0.000576059
-0.000620911
-0.000709606
-0.000790225
-0.000879488
-0.000974366
-0.00107818
-0.00118598
-0.00131598
-0.00141624
-0.00161831
-0.00169746
-0.00189871
-0.00210626
-0.00235772
-0.00266768
-0.00302671
-0.00343371
-0.00389438
-0.00442464
-0.00499011
-0.00558222
-0.00618448
-0.00678159
-0.00735448
-0.00788309
-0.0083448
-0.00871721
-0.00898157
-0.00913766
-0.00921237
-0.00928503
-0.00944063
-0.00980259
-0.0103466
0.000456207
0.000474396
0.00048967
0.000498921
0.00050268
0.000501338
0.000494733
0.000484389
0.000468888
0.000448571
0.000421957
0.000389268
0.000349763
0.000303703
0.00025101
0.000191954
0.000126984
5.6217e-05
-1.89768e-05
-9.98306e-05
-0.000181751
-0.00027255
-0.000353811
-0.000462141
-0.000519159
-0.000645621
-0.000691257
-0.000784331
-0.000868086
-0.000960664
-0.00105901
-0.00116644
-0.00127743
-0.00141079
-0.00151316
-0.00171768
-0.00180663
-0.00201693
-0.00224342
-0.00253629
-0.00287751
-0.00324528
-0.00369223
-0.00420526
-0.00475371
-0.00533181
-0.00592606
-0.0065203
-0.00710006
-0.00764731
-0.00814362
-0.00856887
-0.00890675
-0.00915009
-0.00931514
-0.00944576
-0.00962646
-0.0099284
-0.0104427
-0.0111262
0.000477534
0.000493852
0.000507298
0.000514301
0.000515866
0.000512626
0.000504449
0.000492535
0.000475133
0.000452419
0.000422879
0.000386677
0.00034315
0.000292591
0.000234972
0.000170616
0.000100095
2.35643e-05
-5.74345e-05
-0.000144211
-0.000231667
-0.000328319
-0.000414145
-0.000528681
-0.000587273
-0.000721034
-0.000767
-0.000864138
-0.000950968
-0.00104647
-0.00114758
-0.00125781
-0.00137125
-0.00150688
-0.00161062
-0.00181154
-0.00191654
-0.00213317
-0.00240685
-0.00273608
-0.00305628
-0.00347807
-0.00396852
-0.0044925
-0.00505291
-0.00563098
-0.00621733
-0.0067974
-0.00735844
-0.00788369
-0.0083566
-0.00876137
-0.00908945
-0.00934587
-0.00956033
-0.00978517
-0.0100985
-0.0105518
-0.011208
-0.0120146
0.000497791
0.000512393
0.000523883
0.000528695
0.000528191
0.000523235
0.000513574
0.000499973
0.000480445
0.000455006
0.000422106
0.000381946
0.000333925
0.00027835
0.000215281
0.000145119
6.8561e-05
-1.4216e-05
-0.000101422
-0.000194453
-0.000287713
-0.000390386
-0.000480813
-0.000601511
-0.000661429
-0.000802406
-0.000848385
-0.000948996
-0.00103846
-0.00113646
-0.00123974
-0.0013516
-0.00146659
-0.00160257
-0.00170536
-0.00189868
-0.00203344
-0.0022648
-0.00259371
-0.00284735
-0.00325245
-0.00371345
-0.00421412
-0.00474611
-0.00530538
-0.00587536
-0.00645087
-0.00701915
-0.00756831
-0.00808289
-0.00854889
-0.00895567
-0.00930302
-0.00960643
-0.00990366
-0.0102469
-0.0107014
-0.0112993
-0.0120826
-0.0129973
0.000516997
0.000529801
0.00053929
0.00054201
0.000539641
0.00053316
0.000522023
0.000506582
0.000484627
0.000456029
0.000419318
0.000374708
0.000321647
0.000260489
0.000191416
0.000114905
3.17627e-05
-5.77342e-05
-0.00015155
-0.000251178
-0.000350478
-0.000459269
-0.00055426
-0.000680988
-0.000741884
-0.000889725
-0.000935456
-0.0010391
-0.00113039
-0.00122994
-0.00133462
-0.00144685
-0.00156205
-0.0016938