/*--------------------------------*- C++ -*----------------------------------*\
| =========                 |                                                 |
| \\      /  F ield         | OpenFOAM: The Open Source CFD Toolbox           |
|  \\    /   O peration     | Version:  2506                                  |
|   \\  /    A nd           | Website:  www.openfoam.com                      |
|    \\/     M anipulation  |                                                 |
\*---------------------------------------------------------------------------*/
FoamFile
{
    version     2.0;
    format      ascii;
    arch        "LSB;label=32;scalar=64";
    class       volScalarField;
    location    "100";
    object      div(phi);
}
// * * * * * * * * * * * * * * * * * * * * * * * * * * * * * * * * * * * * * //

dimensions      [0 0 -1 0 0 0 0];

internalField   nonuniform List<scalar> 
1340
(
0.00538299
0.00810777
-0.0176568
0.0043747
0.00200707
0.00079873
-0.00671118
0.000239437
0.00311546
0.004621
-0.00664281
0.00226408
0.00123639
-0.000158963
-0.00325536
-0.000254856
0.00262393
0.00404215
-0.00545972
0.00203079
0.000935709
-0.000368179
-0.00222417
-0.000362959
0.0025302
0.00402534
-0.00499783
0.0019787
0.000725433
-0.000283668
-0.00170858
-0.000263465
0.00229914
0.00406427
-0.00496145
0.00197358
0.000430846
-0.000184823
-0.00147656
-0.000124906
0.002024
0.00391775
-0.00480609
0.00195711
0.000187245
-0.000102028
-0.0012461
3.17666e-05
0.00172487
0.00363968
-0.00455152
0.00192885
1.73759e-06
-6.91249e-05
-0.00106723
0.000160263
0.00146506
0.00320422
-0.00420161
0.00176263
-0.000102432
-3.18577e-05
-0.000902689
0.00027221
0.00126304
0.00278291
-0.00381748
0.00158792
-0.00016233
-5.04967e-05
-0.00076793
0.000343153
0.00105362
0.00225315
-0.00338679
0.00132736
-0.000177815
-8.10111e-05
-0.000631192
0.000389729
0.000892848
0.00196109
-0.00285256
0.00114206
-0.000138442
-9.87689e-05
-0.00050225
0.000396108
0.000696113
0.00146155
-0.00233457
0.000936217
-9.90691e-05
-0.000123203
-0.0003947
0.000365893
0.000500847
0.000974756
-0.00172826
0.000768738
-4.64213e-05
-0.000120604
-0.000278207
0.00030722
0.000293388
0.000541589
-0.00126811
0.000615249
-1.4675e-05
-0.000106331
-0.000193258
0.000235934
0.000142945
0.000173495
-0.000855183
0.000468242
-2.07775e-05
-9.18853e-05
-0.000113482
0.000163275
5.00825e-05
-1.1094e-05
-0.000534687
0.000313013
-1.72709e-05
-6.37473e-05
-5.87439e-05
0.000103649
-1.31478e-06
-7.18401e-05
-0.000315388
0.000183011
2.43378e-05
-6.58421e-06
-4.24627e-05
-2.36458e-05
6.0018e-05
2.74089e-05
-2.03088e-05
-7.23394e-05
-0.000176778
9.2992e-05
-1.23291e-05
-4.27458e-06
-2.52595e-05
-5.8683e-06
3.27853e-05
3.79777e-05
-1.92123e-05
-5.57598e-05
-8.98219e-05
3.33183e-05
-2.07377e-05
-4.23712e-06
-1.35814e-05
5.32699e-07
1.71336e-05
3.91683e-05
-1.52346e-05
-3.42106e-05
-4.86615e-05
6.81888e-06
-2.54867e-05
-3.18009e-06
-7.70998e-06
1.15515e-06
9.93678e-06
3.57407e-05
-1.02526e-05
-2.01894e-05
-2.76009e-05
-1.91891e-06
-1.82892e-05
-2.07066e-06
-5.29548e-06
7.95956e-07
6.32346e-06
1.62179e-05
-8.30304e-06
-1.17061e-05
-1.57164e-05
-3.41263e-06
-1.58821e-05
-2.19085e-06
-3.95766e-06
6.3344e-07
4.11081e-06
8.61732e-06
-4.99171e-06
-6.00281e-06
-8.38527e-06
-2.76018e-06
-3.92835e-06
-1.14673e-05
-8.76865e-07
-2.42213e-06
4.96082e-07
2.94288e-06
-6.09617e-08
8.37047e-06
-2.15964e-06
-2.29747e-06
-3.94745e-06
-1.91363e-06
8.72014e-07
-7.04525e-06
3.80647e-07
-1.18577e-06
4.08736e-07
2.03064e-06
9.1288e-07
6.79434e-06
-4.34999e-07
-3.58292e-07
-1.72418e-06
-1.17413e-06
1.8445e-06
-4.31897e-06
7.73287e-07
-8.22097e-07
2.47941e-07
1.33823e-06
-8.88124e-07
4.63334e-06
-3.32623e-07
3.28602e-07
-4.46766e-07
-8.33545e-07
2.23421e-06
-2.83007e-06
6.37084e-07
-3.80012e-07
5.15147e-08
1.26699e-06
-1.72154e-06
2.62143e-06
-1.05852e-07
4.89777e-07
6.7423e-07
-1.12702e-06
3.54577e-06
-2.24133e-06
-6.02806e-07
-2.6156e-07
-6.53285e-07
8.38392e-07
2.35637e-06
-3.90207e-06
-1.29613e-06
-2.91438e-07
-2.55626e-07
1.21082e-06
-4.64613e-07
-3.31618e-06
-1.54698e-06
-3.17234e-07
-1.23487e-06
2.50405e-07
-5.90177e-07
1.49884e-06
9.68362e-07
-2.15607e-07
-1.64531e-06
6.10236e-07
-1.08854e-07
1.27211e-06
-7.9566e-08
-1.09581e-06
-1.15129e-06
1.07274e-06
-2.93322e-07
-1.47951e-07
-1.34233e-06
8.60161e-07
1.26673e-06
5.30757e-07
-4.50197e-07
-6.53441e-07
-1.57752e-06
-1.29439e-07
-1.19525e-06
-1.62284e-06
2.20096e-07
-4.37176e-07
-9.42071e-07
-9.78079e-08
-1.70787e-06
3.72607e-07
2.01994e-06
-7.37793e-08
3.14138e-09
9.05604e-07
-8.79127e-07
9.86747e-07
9.65696e-08
1.34231e-06
1.38049e-07
3.07328e-07
1.16433e-06
-3.02742e-07
1.36685e-06
1.51286e-07
7.32562e-07
6.49337e-07
2.02256e-07
5.00262e-07
8.18845e-08
9.25195e-07
-9.76303e-09
6.3782e-07
1.38587e-07
2.62609e-07
8.25135e-08
2.19518e-07
4.37872e-07
3.3086e-07
4.21127e-07
4.40434e-07
8.68643e-07
8.93249e-07
-1.20659e-07
1.44829e-07
3.4423e-07
3.30068e-07
3.95817e-07
5.67981e-07
7.68568e-07
-1.27041e-06
-2.64286e-07
-9.24167e-08
1.42973e-07
9.85734e-08
9.1362e-07
3.13721e-07
6.09074e-07
-2.1772e-07
-3.34138e-07
-1.36373e-07
-1.95366e-08
1.39553e-06
1.6478e-07
8.52704e-07
4.99674e-07
-6.88928e-07
-4.0827e-07
-5.73458e-08
1.41841e-06
-1.02151e-07
1.42202e-06
8.49601e-08
1.79914e-07
-6.64105e-07
-2.06583e-07
-1.86163e-07
6.20572e-07
-1.51568e-07
8.94515e-07
-2.0404e-07
2.49839e-08
-1.10931e-07
-2.59496e-07
-1.49078e-07
1.21294e-07
-2.69875e-08
3.28122e-07
-1.2164e-07
1.12149e-10
2.79996e-08
3.67547e-07
1.4212e-08
4.25104e-08
6.92988e-08
1.91169e-07
1.64047e-07
1.72472e-07
1.9084e-07
3.46008e-07
3.83274e-07
-8.11169e-08
-6.88098e-08
1.3753e-07
2.18636e-07
2.32872e-07
2.97718e-07
3.36979e-07
3.49897e-07
3.24225e-07
-2.93857e-08
-6.37901e-08
2.8119e-09
9.27966e-08
2.0411e-07
2.18104e-07
2.21003e-07
2.14404e-07
2.10974e-07
-2.40851e-07
-2.27562e-07
-5.35139e-08
-3.33573e-08
-2.17506e-09
4.72839e-08
9.41911e-08
3.37993e-08
2.36183e-08
-1.40819e-07
-2.84324e-07
-2.10674e-07
-1.80165e-07
-1.07063e-07
-9.3199e-08
-9.93943e-08
-6.78681e-08
-7.67007e-08
-6.68335e-07
-4.2229e-07
-2.16863e-07
-2.97792e-07
-2.29054e-07
-2.16484e-07
-1.92885e-07
-1.49355e-07
-2.07721e-07
-5.59326e-07
-2.66121e-07
-2.82299e-07
-2.75359e-07
-2.14723e-07
-2.21092e-07
-1.19325e-07
-1.75281e-07
-1.6126e-07
-1.69038e-07
-5.93855e-08
-3.65483e-08
-4.4145e-08
6.10535e-10
-6.90738e-09
9.20035e-08
4.09747e-08
7.60624e-08
-5.17902e-09
3.37501e-07
4.06515e-07
3.32862e-07
3.89395e-07
3.74136e-07
4.37377e-07
4.23881e-07
4.83887e-07
2.70595e-07
1.64518e-07
8.17953e-07
4.56694e-07
4.60243e-07
4.03818e-07
4.29582e-07
4.45455e-07
5.21805e-07
3.06629e-07
3.46835e-07
2.1292e-08
0.00202682
-0.004319
0.000837853
-0.00285696
0.00122168
-0.00201167
0.00121122
-0.00146998
0.00117529
-0.00111542
0.00105219
-0.000838896
0.00102275
-0.000628363
0.000986981
-0.000438601
0.000979507
-0.00026394
0.00087306
-0.000118582
0.000836845
-1.94939e-05
0.00074009
2.35763e-05
0.000654422
3.56744e-05
0.000532436
2.50117e-05
0.000396368
1.74049e-05
0.000279567
1.69558e-05
0.000182568
2.01049e-05
0.000105091
2.11266e-05
5.50291e-05
1.98639e-05
2.66763e-05
1.59838e-05
1.21603e-05
1.15654e-05
5.80089e-06
7.71191e-06
3.22351e-06
4.42591e-06
2.15579e-06
2.32769e-06
1.12521e-06
1.24106e-06
3.60213e-07
6.06921e-07
-1.5327e-06
4.23749e-07
-9.57441e-07
9.18543e-07
7.19445e-07
8.66491e-07
8.49808e-07
-9.80976e-07
9.97764e-07
7.79554e-07
1.8341e-06
9.79513e-07
9.57742e-07
5.27236e-07
-4.69908e-09
2.45497e-07
5.14819e-07
1.98984e-07
7.59817e-07
6.5045e-07
4.91803e-07
-6.28665e-08
-4.06202e-09
-3.30273e-07
-2.51093e-07
-5.78112e-07
4.58584e-07
5.52548e-07
0.00541179
0.000166165
0.00120912
6.50069e-06
0.000878526
-0.000131018
0.00063093
-0.000212997
0.000478358
-0.000257875
0.000347289
-0.000276766
0.00027655
-0.000287336
0.000222936
-0.000287986
0.000216361
-0.000269356
0.000218283
-0.000211685
0.000246294
-0.000151601
0.000248651
-0.000108287
0.000264373
-7.6089e-05
0.000251058
-5.32155e-05
0.00022952
-3.06368e-05
0.000196396
-1.19014e-05
0.00014775
2.1373e-06
9.83399e-05
1.01622e-05
5.93861e-05
1.32235e-05
3.20434e-05
1.36543e-05
1.72265e-05
1.18011e-05
9.56152e-06
8.42166e-06
5.5968e-06
5.34287e-06
3.2794e-06
2.81864e-06
2.07412e-06
1.19295e-06
1.19057e-06
-1.33502e-07
3.80052e-07
-1.26753e-06
3.62487e-07
-8.81364e-07
9.1067e-07
8.10074e-08
-3.73715e-07
1.58397e-06
4.69196e-07
1.2491e-06
3.08529e-07
1.54863e-06
1.12315e-06
7.10464e-07
7.25022e-07
1.42693e-07
-1.4501e-07
8.89493e-07
5.03238e-07
4.41237e-07
-1.1528e-09
8.0483e-08
-5.37453e-08
-2.78572e-07
-4.82598e-07
1.81986e-07
-5.08838e-07
0.00558297
0.00136364
0.000678053
0.000930448
0.000290202
0.000657888
0.00015865
0.000481896
9.07595e-05
0.000335313
9.65557e-05
0.000210527
0.000110969
0.000108844
0.000153997
4.84141e-05
0.000221239
2.75379e-05
0.000289871
5.17298e-05
0.000388788
8.00123e-05
0.000442849
8.7138e-05
0.000461608
7.13801e-05
0.000436968
4.28473e-05
0.000365682
1.23273e-05
0.000261052
-6.21176e-06
0.000165421
-1.21797e-05
9.5025e-05
-8.67977e-06
4.89366e-05
-1.6507e-06
2.67097e-05
4.09154e-06
1.51809e-05
6.208e-06
8.73588e-06
5.89914e-06
5.15066e-06
4.12006e-06
3.30061e-06
2.43776e-06
2.02021e-06
1.32253e-06
1.35901e-06
8.09358e-07
-1.54474e-07
5.66359e-07
-1.40676e-06
3.75123e-07
-1.28746e-06
1.89956e-07
7.37041e-07
-4.95881e-07
1.13816e-06
6.85501e-07
1.95305e-06
9.19061e-07
8.55113e-07
4.24723e-07
-3.15642e-07
1.38685e-07
6.87035e-07
3.43564e-07
6.81097e-07
3.60831e-07
1.02098e-06
-8.56063e-07
-2.81522e-08
-3.8343e-07
3.49676e-08
-1.04525e-06
-0.0079164
-0.00416796
-0.00181383
-0.00215195
-0.000697201
-0.00123884
-0.000258481
-0.000758215
-9.87425e-05
-0.000483379
-3.76456e-05
-0.000313522
-4.56552e-05
-0.000218521
-7.27007e-05
-0.000173155
-0.000130029
-0.000168571
-0.000192286
-0.000177754
-0.000255833
-0.000177832
-0.000294152
-0.000156039
-0.000294221
-0.000131648
-0.000270855
-0.000111566
-0.000231668
-8.98442e-05
-0.000164781
-6.64516e-05
-9.96774e-05
-4.37505e-05
-5.17964e-05
-2.53112e-05
-1.91973e-05
-1.14899e-05
-3.93293e-06
-3.23828e-06
1.41712e-06
9.56055e-07
2.68514e-06
2.21978e-06
2.52703e-06
2.33961e-06
1.9295e-06
1.65502e-06
1.64383e-06
1.03387e-06
1.29571e-06
7.03486e-07
1.01192e-06
-1.08546e-07
2.44569e-07
-1.12798e-06
8.05318e-08
-1.12736e-06
-1.09285e-06
1.30798e-06
5.34443e-07
1.28779e-06
2.18318e-07
1.32334e-06
6.48963e-07
4.52682e-07
7.51385e-07
5.89473e-08
5.58457e-08
5.39459e-07
3.47311e-07
5.79428e-07
7.77982e-08
-1.71088e-07
-2.8189e-07
-1.72986e-07
-6.75611e-07
0.0115018
0.00265206
0.00225335
0.00128336
0.0010767
0.000686417
0.000570712
0.000420873
0.000301406
0.000289199
0.000153541
0.00021583
5.52667e-05
0.000161641
-1.04501e-05
0.00011345
-5.52227e-05
7.01859e-05
-8.20876e-05
4.06359e-05
-0.000116563
2.44675e-05
-0.000158895
2.07013e-05
-0.000169787
2.42971e-05
-0.000172145
2.38144e-05
-0.000146476
1.93926e-05
-0.000113022
1.27468e-05
-7.78059e-05
6.83278e-06
-4.63486e-05
3.75493e-06
-2.48075e-05
2.32802e-06
-1.1964e-05
1.94093e-06
-4.93772e-06
1.86623e-06
-1.52046e-06
2.04295e-06
1.18455e-07
1.57507e-06
9.22447e-07
1.14564e-06
1.00887e-06
7.44817e-07
1.18095e-06
7.15589e-07
9.46307e-07
7.14613e-07
7.41775e-08
4.46968e-07
-1.51054e-06
-9.59341e-07
5.68565e-08
-5.0999e-07
8.14519e-07
1.17357e-07
1.73184e-06
4.59107e-07
7.46639e-07
8.31919e-07
-3.19353e-07
4.47626e-07
-2.25496e-07
3.15877e-07
4.6727e-07
5.10383e-07
7.39961e-07
-1.02427e-06
6.39946e-08
-4.30492e-07
0.00479682
0.00150604
0.000913985
0.000988348
0.000376325
0.000668595
0.000141965
0.000504818
3.95707e-05
0.000406256
-3.51928e-07
0.0003391
-2.90615e-05
0.000286345
-2.7581e-05
0.000237299
-2.8293e-05
0.000187082
-8.34648e-06
0.000146786
7.26855e-06
0.000121302
2.42898e-05
0.000105606
2.29782e-05
8.50556e-05
1.56003e-05
6.71005e-05
6.74242e-06
5.27389e-05
1.07648e-06
4.17899e-05
-4.71858e-07
3.22652e-05
-9.52207e-07
2.35546e-05
-1.42766e-06
1.61071e-05
-1.54232e-06
1.02841e-05
-1.48112e-06
6.34394e-06
-8.47369e-07
3.54393e-06
-1.94057e-07
2.23072e-06
2.5144e-07
1.29989e-06
7.81421e-07
8.36978e-07
9.00415e-07
6.09856e-07
1.24396e-06
8.00397e-07
9.68283e-07
-3.83841e-08
-2.69947e-07
-1.69059e-06
-1.30475e-06
5.23648e-08
-4.0668e-07
1.11637e-06
-1.88716e-07
1.3283e-06
1.89128e-07
-2.96403e-07
1.11817e-06
-3.58618e-07
3.88632e-07
-1.65006e-07
1.33553e-07
2.18587e-07
-1.06685e-08
1.73913e-07
0.00406651
0.00149735
0.000993808
0.00111638
0.000451384
0.000732982
0.000162012
0.000533343
4.86474e-05
0.000426086
-4.11129e-06
0.000355162
-3.67611e-05
0.0003032
-4.83179e-05
0.000257149
-6.27437e-05
0.000206586
-5.73979e-05
0.000157479
-5.29357e-05
0.000115793
-3.91876e-05
8.79564e-05
-3.84698e-05
6.39933e-05
-3.20738e-05
4.53784e-05
-3.11497e-05
3.46084e-05
-2.29249e-05
2.95226e-05
-1.39106e-05
2.64165e-05
-6.38819e-06
2.28897e-05
-1.37499e-06
1.82284e-05
-5.63777e-08
1.31491e-05
-7.07913e-08
8.58637e-06
-4.11806e-07
5.64203e-06
-1.31033e-07
3.32975e-06
4.61547e-07
1.98725e-06
6.70569e-07
1.04735e-06
1.0904e-06
8.9116e-07
1.19269e-06
1.05141e-06
1.001e-06
7.08684e-07
-1.7479e-06
-1.04043e-06
-1.37135e-06
-1.83431e-06
-8.96883e-08
-1.38708e-06
1.54993e-06
-1.20291e-07
4.03457e-09
8.2051e-07
-4.26862e-07
6.88675e-07
-5.89954e-07
5.25591e-07
4.18566e-07
7.39172e-07
0.00483309
0.00166084
0.00135251
0.00129173
0.000737482
0.000833193
0.000297862
0.000532779
8.9583e-05
0.000386121
4.53113e-06
0.000306292
-3.34469e-05
0.000255573
-5.729e-05
0.000218133
-6.17177e-05
0.000184247
-6.6347e-05
0.000147391
-5.5061e-05
0.000113303
-4.8556e-05
8.53991e-05
-3.70853e-05
6.3694e-05
-3.46362e-05
4.32076e-05
-2.50009e-05
2.92383e-05
-1.93e-05
2.23716e-05
-1.24576e-05
2.00452e-05
-5.97356e-06
1.876e-05
-2.83316e-06
1.66659e-05
-1.00372e-06
1.35686e-05
-4.47225e-07
1.02808e-05
1.17801e-07
6.87187e-06
3.83816e-07
4.58709e-06
5.14823e-07
2.78294e-06
8.98573e-07
1.85002e-06
1.06123e-06
1.19279e-06
1.52739e-06
7.60156e-07
1.45319e-06
3.65283e-07
-7.965e-07
-9.78045e-07
-3.05031e-06
-1.39992e-07
-3.13535e-06
1.01422e-06
-9.59351e-07
7.18656e-07
1.09318e-07
-9.42533e-07
1.58502e-06
-1.92573e-07
6.99887e-07
-0.00188236
-0.000942929
-0.000802026
-0.000523023
-0.000479846
-0.000227399
-0.000248445
-3.10145e-05
-0.000130272
5.49239e-05
-7.59825e-05
9.22781e-05
-5.49929e-05
0.000107495
-4.50438e-05
0.000113868
-3.97773e-05
0.000113051
-4.00547e-05
0.00010407
-3.64765e-05
8.93882e-05
-3.57015e-05
7.2834e-05
-2.99454e-05
5.6994e-05
-3.32901e-05
3.89537e-05
-3.26657e-05
2.53402e-05
-2.94242e-05
1.8683e-05
-2.06828e-05
1.77849e-05
-1.26995e-05
1.79809e-05
-5.36257e-06
1.67027e-05
-1.99454e-06
1.38271e-05
-5.84437e-07
1.03668e-05
-3.08373e-07
7.77451e-06
1.98611e-07
5.3372e-06
7.70781e-07
3.61994e-06
9.62758e-07
2.15003e-06
1.3099e-06
1.61996e-06
1.00555e-06
1.67875e-06
3.21266e-06
-1.45168e-06
2.38404e-06
-4.16752e-06
1.48228e-06
-4.45184e-06
1.29812e-06
-2.4114e-06
2.80132e-06
-5.31337e-07
-4.5174e-07
1.32054e-06
0.00145457
0.000472136
0.000368035
0.000434127
0.000246181
0.000385185
0.000134372
0.000310894
4.51745e-05
0.000232672
-2.16467e-06
0.000183697
-2.06099e-05
0.000152896
-2.77012e-05
0.000130636
-3.3178e-05
0.000113055
-3.32954e-05
9.73293e-05
-3.41339e-05
8.06317e-05
-2.98653e-05
6.55629e-05
-2.74325e-05
5.37707e-05
-2.39827e-05
4.42422e-05
-2.41247e-05
3.25598e-05
-2.14913e-05
2.3741e-05
-1.98144e-05
1.79284e-05
-1.46562e-05
1.51479e-05
-1.06626e-05
1.35095e-05
-6.73946e-06
1.19265e-05
-3.91257e-06
1.02748e-05
-1.50592e-06
7.94269e-06
-2.55031e-07
5.869e-06
2.5006e-07
3.78954e-06
7.10286e-07
2.53683e-06
1.09297e-06
1.07736e-06
2.42301e-06
4.3864e-06
-1.22049e-06
5.56557e-06
-5.45353e-06
6.31934e-06
-4.18504e-06
3.53404e-06
-4.21358e-06
3.49738e-06
0.000319785
1.28163e-05
5.21458e-05
4.1051e-05
3.66248e-05
5.675e-05
1.1823e-05
6.88721e-05
-5.88579e-07
7.1732e-05
-1.53809e-05
6.80302e-05
-1.85838e-05
6.57629e-05
-2.12604e-05
6.29561e-05
-2.11671e-05
6.10647e-05
-2.06675e-05
5.89379e-05
-2.07491e-05
5.54343e-05
-1.8532e-05
5.02073e-05
-1.76896e-05
4.37964e-05
-1.3999e-05
3.63353e-05
-2.06136e-05
2.73895e-05
-2.15857e-05
1.9614e-05
-2.13219e-05
1.54289e-05
-1.79594e-05
1.39718e-05
-1.16149e-05
1.2987e-05
-7.29233e-06
1.15726e-05
-4.23742e-06
9.481e-06
-2.64223e-06
7.45946e-06
-1.5736e-06
5.35783e-06
-8.53495e-07
3.83594e-06
-2.03467e-07
2.03583e-06
6.2561e-07
3.35887e-06
2.77158e-06
9.44697e-07
5.51634e-06
-4.30817e-06
8.56159e-06
0.00238422
0.000953937
0.00075811
0.000685132
0.000457878
0.000482756
0.000275776
0.000352102
0.000148978
0.000254278
6.00122e-05
0.000172784
1.19548e-05
0.000124268
-5.98038e-06
9.71955e-05
-1.08755e-05
8.0301e-05
-1.28152e-05
6.86178e-05
-1.13239e-05
5.96572e-05
-1.11211e-05
5.09553e-05
-7.98204e-06
4.36096e-05
-7.4324e-06
3.73618e-05
-5.42302e-06
2.99125e-05
-1.12338e-05
2.1075e-05
-1.45185e-05
1.38948e-05
-1.57067e-05
1.00607e-05
-1.54615e-05
7.83662e-06
-1.08876e-05
8.93994e-06
-7.68793e-06
7.95052e-06
-4.61366e-06
6.66345e-06
-2.36328e-06
4.95755e-06
-1.10383e-06
3.39155e-06
-1.72866e-06
4.72395e-06
-0.00157556
-0.000613461
-0.000502349
-0.000362499
-0.000278568
-0.000196207
-0.00014883
-9.43079e-05
-8.08855e-05
-3.05622e-05
-4.1786e-05
9.05519e-06
-2.40725e-05
2.68934e-05
-1.48991e-05
3.46532e-05
-1.22489e-05
3.81657e-05
-9.9373e-06
4.12294e-05
-9.18969e-06
4.29313e-05
-8.60706e-06
4.28463e-05
-8.62665e-06
4.06836e-05
-8.13439e-06
3.88534e-05
-7.90054e-06
3.7829e-05
-7.9437e-06
3.50163e-05
-7.64016e-06
2.99919e-05
-7.1838e-06
2.77325e-05
-1.33093e-05
4.28962e-05
)
;

boundaryField
{
    inlet
    {
        type            extrapolatedCalculated;
        value           nonuniform List<scalar> 
11
(
8.17953e-07
4.56694e-07
4.60243e-07
4.03818e-07
4.29582e-07
4.45455e-07
5.21805e-07
3.06629e-07
3.46835e-07
2.1292e-08
5.52548e-07
)
;
    }
    outlet
    {
        type            extrapolatedCalculated;
        value           nonuniform List<scalar> 0();
    }
    walls
    {
        type            extrapolatedCalculated;
        value           nonuniform List<scalar> 4(0.00538299 0.00810777 -0.0176568 0.0043747);
    }
    frontAndBack
    {
        type            empty;
    }
    procBoundary6to2
    {
        type            processor;
        value           nonuniform List<scalar> 
13
(
-0.0107096
0.00100961
0.00300741
-0.0137744
0.00836419
0.00204401
0.00213569
0.00338157
-0.00246719
0.000544643
-0.000130255
0.00210724
-0.00158408
)
;
    }
    procBoundary6to3
    {
        type            processor;
        value           uniform 0.00163977;
    }
    procBoundary6to5
    {
        type            processor;
        value           nonuniform List<scalar> 
86
(
-0.000488967
0.000560383
-0.000506557
0.000594912
-0.000584266
0.00055678
-0.000623264
0.000447038
-0.000663687
0.000250332
-0.000545449
8.32911e-05
-0.000473588
-9.03592e-05
-0.000336158
-0.000225129
-0.000256963
-0.000328819
-0.000229371
-0.00036986
-0.000149103
-0.000335469
-8.65676e-05
-0.000250543
-3.80895e-05
-0.000135707
4.03597e-06
-4.21972e-05
-4.37416e-05
2.14174e-05
-4.95988e-05
4.55951e-05
-3.00626e-05
-3.00626e-05
1.23568e-05
7.85296e-07
2.78421e-05
-2.9375e-06
3.27311e-05
-9.94627e-06
3.41551e-05
-7.67751e-06
1.99937e-05
-5.75037e-06
6.90328e-07
-8.75011e-07
-8.75011e-07
7.06905e-06
-5.1902e-06
5.42816e-06
-3.25964e-06
4.07942e-06
-2.12116e-06
7.47025e-07
1.21393e-06
8.79196e-07
8.79196e-07
1.56448e-06
1.80412e-06
-2.02823e-06
1.61449e-06
-1.59695e-06
1.99714e-06
-1.77072e-06
-1.77072e-06
-5.02e-07
-3.49243e-07
4.81387e-07
-1.1514e-06
5.18325e-07
-1.13385e-06
-1.10921e-06
-1.10921e-06
-5.40907e-07
-3.79277e-08
-2.63538e-07
-7.89165e-08
-3.84975e-07
-5.66569e-08
-5.34458e-07
-4.42063e-07
-1.70651e-07
-1.70651e-07
-3.5268e-08
4.5151e-07
5.71197e-07
)
;
    }
    procBoundary6to7
    {
        type            processor;
        value           nonuniform List<scalar> 
91
(
6.94215e-07
6.94215e-07
8.4447e-07
8.4447e-07
3.93327e-08
3.93327e-08
-1.47906e-07
-5.58894e-07
-1.47906e-07
-3.71113e-07
7.91195e-07
-5.58894e-07
-1.19125e-06
-2.1504e-07
4.21551e-07
7.91195e-07
5.45854e-08
-2.83772e-07
9.7558e-07
-2.1504e-07
-5.01213e-07
-2.88059e-06
1.2377e-06
1.51133e-07
-2.83772e-07
-7.96073e-07
-6.59858e-06
4.76048e-06
-5.60754e-06
2.83077e-06
-2.88059e-06
-2.72822e-06
1.4039e-06
-4.5493e-07
4.2713e-06
3.01319e-06
9.94696e-07
3.43835e-06
-6.59858e-06
8.66655e-07
-5.62981e-06
1.9655e-05
-1.62344e-06
1.4135e-05
-1.78204e-06
1.14768e-05
-1.856e-06
9.15116e-06
-1.84349e-06
7.21441e-06
-2.45738e-06
1.4039e-06
6.84229e-06
0.00132627
0.000675356
0.000413749
0.00049617
0.000239976
0.00036786
0.000140545
0.000284082
7.65696e-05
0.000228764
3.3571e-05
0.000176361
4.36593e-06
0.000129491
-8.04704e-06
0.000100381
-8.96645e-06
8.23024e-05
-8.3555e-06
7.0454e-05
-5.6247e-06
6.11901e-05
-4.30751e-06
5.24842e-05
-2.87393e-06
4.45759e-05
-1.26735e-06
3.92906e-05
-3.72597e-07
3.66627e-05
-2.07766e-06
3.37913e-05
8.59549e-07
2.95354e-05
-1.13693e-06
2.46174e-05
-5.62981e-06
9.74604e-07
)
;
    }
}


// ************************************************************************* //
